/*--------------------------------*- C++ -*----------------------------------*\
| =========                 |                                                 |
| \\      /  F ield         | OpenFOAM: The Open Source CFD Toolbox           |
|  \\    /   O peration     | Version:  2.3.0                                 |
|   \\  /    A nd           | Web:      www.OpenFOAM.org                      |
|    \\/     M anipulation  |                                                 |
\*---------------------------------------------------------------------------*/
FoamFile
{
    version     2.0;
    format      ascii;
    class       volScalarField;
    location    "2.9";
    object      epsilon;
}
// * * * * * * * * * * * * * * * * * * * * * * * * * * * * * * * * * * * * * //

dimensions      [0 2 -3 0 0 0 0];

internalField   nonuniform List<scalar> 
2268
(
0.0034707
0.0214651
0.0411455
0.060759
0.0792797
0.096105
0.110969
0.123904
0.135159
0.145225
0.154151
0.161839
0.168141
0.172749
0.175096
0.173564
0.165004
0.151963
0.13534
0.113645
0.0846096
0.0499085
0.0152173
0.00793532
0.0135793
0.0215647
0.0300907
0.0384076
0.0460928
0.0529437
0.0589131
0.0640651
0.068563
0.0724845
0.0757973
0.0784529
0.0803448
0.0812628
0.0807661
0.078239
0.0739464
0.0678924
0.0595044
0.0482137
0.0342037
0.0217769
0.0148012
0.0151331
0.0204812
0.0266955
0.0329172
0.0387369
0.0439616
0.0485347
0.0524905
0.0559204
0.0588785
0.0613516
0.0633046
0.0646682
0.065319
0.0650483
0.0636164
0.0610218
0.0571706
0.0516833
0.0440525
0.034402
0.0322738
0.0224816
0.0180657
0.0219987
0.027177
0.0324973
0.0375183
0.0420463
0.0460257
0.0494833
0.0524807
0.0550536
0.0571919
0.0588637
0.0600166
0.0605724
0.0604182
0.0594351
0.0575822
0.0547622
0.0506895
0.0449101
0.0374889
0.0408592
0.0308126
0.0216844
0.024557
0.0290936
0.033883
0.0384326
0.0425453
0.0461711
0.0493362
0.0520865
0.054444
0.0563963
0.0579121
0.0589508
0.0594653
0.0593962
0.0586807
0.0572866
0.0551478
0.0520775
0.0477432
0.0421863
0.0484931
0.0398489
0.0258959
0.0278413
0.0318975
0.0363036
0.0405066
0.0443068
0.0476646
0.050609
0.0531765
0.055379
0.0571998
0.0586072
0.0595697
0.0600634
0.0600642
0.0595434
0.05849
0.0568829
0.0546625
0.0517562
0.0486067
0.0577312
0.0497276
0.0307558
0.0318068
0.0354442
0.0395172
0.043408
0.0469194
0.0500262
0.0527633
0.0551614
0.0572249
0.0589318
0.0602489
0.0611511
0.0616319
0.0616932
0.0613313
0.0605548
0.0593898
0.0579294
0.0565303
0.057163
0.0778254
0.0609594
0.0364056
0.0365113
0.0397266
0.0434527
0.047007
0.0502014
0.0530312
0.0555395
0.0577536
0.0596716
0.0612657
0.0624988
0.0633475
0.0638185
0.0639352
0.0637139
0.0631682
0.0623674
0.0615536
0.0615624
0.0672293
0.144413
0.0171703
0.0678084
0.106943
0.127256
0.134884
0.131644
0.121347
0.109241
0.0886963
0.06913
0.069551
0.0641444
0.0531063
0.0495739
0.0522659
0.0546256
0.0491087
0.0332089
0.009777
0.0189538
0.03739
0.0513484
0.0592398
0.0626626
0.0623868
0.0594627
0.0549276
0.0486208
0.0413359
0.0373529
0.034171
0.0311663
0.0296132
0.0280892
0.02599
0.023233
0.0190857
0.0143666
0.0271165
0.0361466
0.0438985
0.0483359
0.0502674
0.0500561
0.0483063
0.0451325
0.0407906
0.0360555
0.0325235
0.0298651
0.0278366
0.0264386
0.0247031
0.0229482
0.021635
0.0206024
0.0221036
0.0386568
0.0397714
0.0434776
0.0457141
0.0465637
0.0460782
0.0446196
0.0419806
0.0384349
0.034776
0.0316923
0.029241
0.0274104
0.0259325
0.02437
0.0231397
0.0226946
0.0233648
0.029819
0.0539652
0.0456501
0.0454214
0.0457828
0.0457017
0.044877
0.0434689
0.0411256
0.0380629
0.0350018
0.0322371
0.0299253
0.0281572
0.0266043
0.025146
0.0242627
0.0243365
0.0261219
0.0376074
0.0747059
0.0528239
0.0483562
0.0470263
0.0461418
0.0449929
0.0435616
0.0414277
0.0387284
0.0360602
0.033516
0.0313149
0.0295966
0.0280252
0.0265794
0.0258248
0.0261747
0.0287814
0.0456795
0.109568
0.0606369
0.0515671
0.0488047
0.0472807
0.045865
0.0444072
0.0424608
0.0400821
0.0377009
0.0352904
0.0331607
0.0315047
0.0299589
0.0284871
0.027697
0.0281637
0.0315165
0.0544854
0.191139
0.0677909
0.0545169
0.050785
0.0488298
0.0472389
0.0458001
0.0440602
0.0419749
0.0397903
0.0374371
0.035331
0.0337185
0.0322047
0.0306922
0.0297984
0.0303043
0.0343924
0.0637505
0.0785393
0.0461078
0.044958
0.0475523
0.0506868
0.0536236
0.0562201
0.058522
0.060595
0.0624662
0.0641253
0.0655336
0.0666406
0.0674147
0.0678792
0.0680903
0.0680723
0.0678345
0.0674757
0.0674098
0.0687417
0.0749831
0.102097
0.107521
0.0636806
0.060814
0.0621989
0.0639638
0.0654477
0.0666694
0.067807
0.0689745
0.0701879
0.071405
0.0725487
0.0735053
0.074184
0.0746192
0.0749244
0.0751449
0.075176
0.0749703
0.075023
0.0762615
0.0802368
0.090504
0.144403
0.0884194
0.0834629
0.0824582
0.0815207
0.080296
0.079112
0.0783802
0.0782472
0.0786286
0.0793747
0.0803363
0.0812422
0.0817782
0.0820346
0.0823945
0.0829908
0.0833854
0.0829555
0.0824618
0.0828348
0.0843219
0.0873715
0.194223
0.126673
0.1169
0.110346
0.104086
0.0979608
0.0927762
0.0893337
0.0876162
0.0871601
0.0875535
0.0886473
0.089805
0.0900109
0.089642
0.0899062
0.0912877
0.092706
0.0914441
0.0896408
0.0890922
0.0884918
0.0882378
0.285918
0.195196
0.166985
0.146437
0.130594
0.116541
0.105606
0.0990759
0.0960892
0.0952732
0.0956552
0.096994
0.0980812
0.0977906
0.0968889
0.096477
0.0977711
0.10024
0.0977565
0.0950821
0.0931611
0.090607
0.0884434
0.42463
0.294857
0.228908
0.178833
0.150179
0.129078
0.113595
0.104999
0.101711
0.10147
0.102529
0.103837
0.104636
0.103912
0.101729
0.100323
0.100578
0.100916
0.0998025
0.097398
0.0942101
0.0910649
0.0876319
0.535982
0.298483
0.246636
0.195948
0.157594
0.132368
0.11581
0.106945
0.104324
0.104708
0.104502
0.104476
0.104945
0.103536
0.101249
0.100276
0.101448
0.102762
0.103083
0.100599
0.0961096
0.0926899
0.0878957
0.673375
0.299494
0.264077
0.219692
0.163712
0.131516
0.114032
0.105582
0.102775
0.101984
0.10159
0.101897
0.101134
0.0994728
0.0978612
0.0976003
0.0997189
0.103541
0.106202
0.103203
0.0959741
0.0892745
0.0840584
0.804558
0.303727
0.265766
0.21512
0.158577
0.126308
0.109792
0.101864
0.0985822
0.0977346
0.098518
0.0984698
0.0964426
0.0943694
0.0931169
0.0931285
0.0949263
0.0985589
0.100686
0.0970619
0.0898378
0.0837157
0.0792012
0.844402
0.293815
0.232236
0.183557
0.142759
0.118182
0.104574
0.0974234
0.0944569
0.0937808
0.0939144
0.0928636
0.0906171
0.0885315
0.0874034
0.0873701
0.0883261
0.0899492
0.0901495
0.0869832
0.0820436
0.0776279
0.0739888
0.778633
0.27992
0.206814
0.162581
0.132026
0.112844
0.100666
0.0937095
0.0904501
0.0887879
0.0873828
0.0856969
0.0839032
0.082358
0.0815332
0.0813966
0.0816008
0.0817377
0.0808418
0.0782981
0.0749335
0.0716804
0.0686563
0.699063
0.275102
0.19921
0.155978
0.128474
0.110051
0.0978698
0.0905835
0.0862756
0.0834152
0.0811655
0.0793355
0.0778968
0.0768757
0.0763821
0.0761641
0.0758373
0.0751272
0.0736966
0.0714987
0.0689211
0.0662942
0.0636454
0.615596
0.270796
0.198636
0.154149
0.125423
0.106806
0.0950354
0.0874129
0.0822602
0.0786312
0.0759986
0.0741475
0.0729466
0.0723243
0.0720727
0.0717855
0.0711276
0.0699722
0.0683007
0.066235
0.0639786
0.0616498
0.0592461
0.526606
0.257214
0.191672
0.148345
0.12028
0.102817
0.091663
0.0840385
0.0785912
0.07466
0.0718711
0.0700115
0.0689286
0.0684703
0.0682813
0.0679112
0.0670874
0.0657666
0.0640302
0.0620328
0.0599148
0.0577422
0.0555287
0.441593
0.239025
0.180381
0.140292
0.114374
0.0982088
0.0876575
0.0802758
0.0748947
0.0709709
0.0681982
0.066374
0.0653349
0.0648704
0.0646138
0.0641652
0.0632975
0.0619856
0.0603213
0.0584413
0.0564569
0.0544307
0.0524042
0.361996
0.21433
0.167939
0.132269
0.108368
0.0930728
0.0830219
0.0759728
0.0708454
0.0671116
0.0644753
0.0627346
0.0617134
0.0611869
0.0608356
0.0603389
0.0595081
0.0583096
0.05681
0.0551145
0.0533165
0.0514827
0.0496712
0.288271
0.185877
0.15261
0.124041
0.102403
0.0876706
0.0779389
0.0712105
0.0663899
0.0629218
0.0604852
0.0588637
0.057872
0.0572981
0.0568837
0.0563826
0.0556399
0.0546111
0.053332
0.0518754
0.050317
0.0487232
0.0471585
0.222985
0.157434
0.135337
0.113933
0.0955918
0.0820598
0.0726769
0.0662047
0.0616875
0.0584972
0.0562763
0.05479
0.0538496
0.0532652
0.0528328
0.052366
0.051739
0.0509018
0.049865
0.0486739
0.0473861
0.046061
0.0447604
0.169081
0.131236
0.117722
0.102466
0.0876242
0.075774
0.0671673
0.0611337
0.0569578
0.0540438
0.0520279
0.0506772
0.0498045
0.0492413
0.0488263
0.0484177
0.0479143
0.0472656
0.0464655
0.0455383
0.0445239
0.0434706
0.0424315
0.128278
0.108277
0.10089
0.0903715
0.0788405
0.0689671
0.0614717
0.0560844
0.0523078
0.0497062
0.0479155
0.0467068
0.0459119
0.0453893
0.0450115
0.0446701
0.0442834
0.0438041
0.0432165
0.0425298
0.0417688
0.0409688
0.0401715
0.099759
0.0887298
0.0853106
0.078292
0.0697014
0.0618988
0.0557282
0.0511633
0.0478985
0.0456151
0.0440565
0.0429991
0.0422947
0.0418274
0.0414982
0.0412236
0.040939
0.0406026
0.0401942
0.0397127
0.0391712
0.0385929
0.0380076
0.0806847
0.0724145
0.071228
0.0667777
0.0607067
0.0548913
0.050109
0.0464582
0.0437794
0.0418642
0.0405292
0.0396283
0.0390233
0.0386212
0.0383462
0.0381349
0.037937
0.0377166
0.0374529
0.0371386
0.0367781
0.0363844
0.0359768
0.0678855
0.0591625
0.0589618
0.0563471
0.0523307
0.0482704
0.0447966
0.0420532
0.0399789
0.0384558
0.0373675
0.0366154
0.0361179
0.0357891
0.0355732
0.0354229
0.0352994
0.0351732
0.0350245
0.0348429
0.0346267
0.0343814
0.0341179
0.0589489
0.0487794
0.0487885
0.0473922
0.0449315
0.0422964
0.0399474
0.0380234
0.036519
0.0353808
0.0345465
0.0339581
0.0335647
0.0333182
0.0331675
0.033079
0.0330233
0.0329765
0.0329208
0.0328448
0.032743
0.0326156
0.0324671
0.0523572
0.0408935
0.0407303
0.0400589
0.0386816
0.0371166
0.0356625
0.0344228
0.0334164
0.0326306
0.0320416
0.0316222
0.031345
0.0311839
0.0311055
0.0310826
0.0310932
0.0311182
0.031142
0.0311529
0.0311438
0.0311112
0.0310552
0.0472517
0.0349845
0.034532
0.0342459
0.0335728
0.0327637
0.0319792
0.0312761
0.0306792
0.0301988
0.0298353
0.0295822
0.0294288
0.0293612
0.0293632
0.0294123
0.0294922
0.0295872
0.0296839
0.0297712
0.0298407
0.0298872
0.0299078
0.0432127
0.0305232
0.0297925
0.0296994
0.0294775
0.0291864
0.0288811
0.0285791
0.0283046
0.0280796
0.0279175
0.0278239
0.0277978
0.027834
0.0279239
0.0280529
0.0282078
0.0283756
0.0285444
0.0287035
0.0288443
0.0289604
0.0290472
0.0400462
0.0270846
0.0261254
0.0261353
0.0262203
0.0262865
0.0263154
0.026305
0.02628
0.0262666
0.0262835
0.0263414
0.0264445
0.0265917
0.0267789
0.0269971
0.0272351
0.0274816
0.0277256
0.0279569
0.0281668
0.028348
0.0284952
0.0375795
0.0243829
0.0232622
0.0233413
0.0236386
0.0239515
0.0242124
0.0244164
0.0245885
0.0247544
0.0249329
0.025136
0.0253695
0.0256346
0.0259289
0.0262465
0.0265776
0.0269113
0.0272371
0.0275446
0.027825
0.0280707
0.0282759
0.0355437
0.0222985
0.0210528
0.0211849
0.0216178
0.02209
0.0225136
0.0228822
0.0232172
0.0235404
0.0238685
0.0242127
0.024579
0.0249692
0.0253815
0.0258107
0.026247
0.0266793
0.0270962
0.0274871
0.0278426
0.0281551
0.0284184
0.033918
0.0207793
0.019429
0.01958
0.0200816
0.0206477
0.021187
0.0216871
0.0221612
0.0226258
0.023095
0.0235785
0.0240819
0.0246068
0.0251505
0.0257068
0.0262642
0.0268098
0.0273308
0.0278153
0.0282532
0.0286366
0.0289598
0.0328358
0.019742
0.0183274
0.0184609
0.0189815
0.0195989
0.0202206
0.0208256
0.0214189
0.0220119
0.022616
0.02324
0.0238887
0.0245623
0.0252564
0.025961
0.026661
0.02734
0.0279821
0.0285733
0.0291029
0.029563
0.0299487
0.0322964
0.0191649
0.0176828
0.0177743
0.0182848
0.0189259
0.0196032
0.0202896
0.020984
0.0216944
0.0224307
0.0232012
0.0240098
0.0248548
0.0257277
0.0266114
0.0274844
0.0283239
0.029109
0.0298233
0.0304552
0.030998
0.0314484
0.0322763
0.0190109
0.0174416
0.017475
0.0179572
0.0186012
0.0193118
0.0200591
0.0208394
0.02166
0.0225314
0.0234626
0.0244571
0.0255098
0.026605
0.027714
0.0288032
0.0298394
0.030795
0.0316509
0.0323959
0.033026
0.0335414
0.0327431
0.0192336
0.0175548
0.0175161
0.0179545
0.0185832
0.0193081
0.0200996
0.0209552
0.0218848
0.0229026
0.024021
0.0252443
0.026563
0.0279478
0.029351
0.0307179
0.0319989
0.0331575
0.0341734
0.0350392
0.0357569
0.0363334
0.033621
0.0197747
0.0179699
0.0178458
0.0182243
0.0188199
0.0195418
0.0203642
0.0212893
0.0223338
0.0235203
0.024869
0.0263884
0.0280637
0.0298433
0.0316453
0.0333771
0.0349632
0.036359
0.0375482
0.0385344
0.0393317
0.0399581
0.0347727
0.0205779
0.018651
0.0184246
0.0187181
0.0192564
0.0199559
0.020797
0.0217896
0.0229617
0.0243505
0.0259928
0.0279089
0.0300804
0.0324212
0.0347822
0.0369996
0.0389611
0.040621
0.0419821
0.0430722
0.0439271
0.0445813
0.0360378
0.0217347
0.0197029
0.0192949
0.0194246
0.0198504
0.0204943
0.0213374
0.0223957
0.0237111
0.025345
0.0273652
0.0298225
0.0327061
0.0358779
0.0390482
0.041912
0.0443144
0.0462383
0.0477384
0.0488889
0.0497594
0.0504057
0.037778
0.0245827
0.021961
0.0208057
0.0204421
0.0205944
0.0211093
0.0219232
0.0230391
0.0245105
0.0264326
0.0289296
0.0321246
0.0360602
0.0405302
0.0449099
0.048607
0.0514668
0.0535883
0.0551383
0.056267
0.057087
0.0576764
0.0503828
0.0390606
0.0295552
0.0242274
0.0220907
0.021526
0.0217589
0.0224894
0.0236433
0.0252697
0.0275065
0.0305722
0.0347505
0.0402852
0.0469637
0.0531918
0.0578347
0.0610054
0.0631242
0.0645521
0.0655321
0.0662141
0.0666886
0.211982
0.103007
0.0558361
0.0325866
0.0248557
0.0226523
0.0223759
0.02296
0.0241238
0.0258802
0.0284122
0.0320772
0.037475
0.0454729
0.0565495
0.0654701
0.0706917
0.0736263
0.0753302
0.0763743
0.0770477
0.077498
0.0778022
1.56762
0.200426
0.0977052
0.0466296
0.0282593
0.0236578
0.022803
0.0232401
0.0243952
0.0262276
0.0289535
0.0330711
0.0396297
0.0510447
0.0739878
0.0847789
0.0884697
0.0899302
0.0906174
0.0909934
0.0912223
0.0913705
0.0914682
0.242504
0.200146
0.210663
0.273962
0.10703
0.109021
0.109668
0.107755
0.0902197
0.0907152
0.0896789
0.086786
0.0881933
0.0878615
0.0865283
0.0836286
0.0878906
0.0869767
0.0846576
0.0815766
0.0856092
0.0841284
0.0823077
0.0803601
0.084657
0.0831009
0.0815708
0.0794977
0.081062
0.0797917
0.0785057
0.0766382
0.0765808
0.0751494
0.0737155
0.0720806
0.0715676
0.0700653
0.0685649
0.067053
0.0664213
0.0649905
0.0635642
0.0621687
0.0615822
0.0602583
0.0589488
0.0576805
0.0573558
0.0561526
0.0549747
0.0538398
0.0538284
0.0527594
0.0517186
0.0507116
0.0508951
0.0499558
0.0490452
0.0481612
0.0483575
0.0475462
0.0467622
0.045999
0.0460456
0.0453611
0.0447004
0.0440549
0.0438462
0.0432844
0.0427411
0.0422075
0.0417046
0.0412567
0.0408215
0.0403907
0.0396126
0.039266
0.0389266
0.0385873
0.0375928
0.0373327
0.0370751
0.0368141
0.0356817
0.0354932
0.0353034
0.0351076
0.0339199
0.0337901
0.0336563
0.0335148
0.0323472
0.0322654
0.0321776
0.0320809
0.0309985
0.030956
0.0309061
0.0308467
0.0299033
0.0298937
0.0298755
0.0298472
0.0290875
0.029106
0.0291151
0.0291134
0.0285756
0.0286193
0.0286524
0.0286741
0.0283939
0.0284608
0.0285158
0.0285585
0.0285728
0.0286619
0.0287376
0.0287996
0.0291505
0.0292613
0.0293567
0.0294367
0.0301758
0.0303078
0.0304221
0.0305189
0.0317116
0.0318641
0.031996
0.0321081
0.0338389
0.0340102
0.0341578
0.034283
0.0366608
0.0368475
0.0370074
0.0371423
0.0403066
0.0405031
0.0406698
0.0408093
0.0449368
0.0451344
0.0453002
0.0454375
0.0507478
0.0509349
0.0510898
0.0512163
0.0579794
0.0581422
0.0582749
0.0583814
0.0669252
0.0670496
0.0671492
0.0672274
0.0779493
0.0780246
0.0780834
0.0781282
0.0915135
0.0915358
0.0915524
0.0915645
0.106766
0.0688773
0.0580206
0.053922
0.051646
0.0499716
0.0487226
0.0473649
0.0456613
0.0436289
0.041259
0.039101
0.0374432
0.0359017
0.0343111
0.0331437
0.0335231
0.0381781
0.0731157
0.0851586
0.0686845
0.0614674
0.0581347
0.0560899
0.0548551
0.0544631
0.0538234
0.0523683
0.0501446
0.0474272
0.04484
0.0426797
0.0407208
0.0388447
0.0375054
0.0379536
0.0431351
0.0821764
0.0787326
0.0696189
0.0648506
0.062445
0.0608044
0.0605536
0.0617491
0.0621989
0.0608934
0.0580593
0.0544246
0.0509074
0.0479091
0.0452726
0.0430001
0.0415724
0.0423322
0.0474299
0.0830612
0.0774174
0.0707319
0.0675558
0.0662076
0.0655522
0.0667064
0.0703802
0.0726675
0.0715759
0.0678212
0.0625022
0.057541
0.0535162
0.0499223
0.0470156
0.0455763
0.0474118
0.0521652
0.0832566
0.0760321
0.0707075
0.0681799
0.0669016
0.0661974
0.0670836
0.0703029
0.0730511
0.0724174
0.0688221
0.0637077
0.0585436
0.0543641
0.0510799
0.0492613
0.0493767
0.0503376
0.0556098
0.0900708
0.0758755
0.0707372
0.0680018
0.0667398
0.065857
0.0651201
0.0651128
0.0649739
0.0638896
0.062011
0.0597926
0.0568402
0.0533874
0.0506227
0.0491933
0.0490942
0.0493406
0.055034
0.0861867
0.0751995
0.0702859
0.0675255
0.0662826
0.0654143
0.0641976
0.0626521
0.0607363
0.0588428
0.0573022
0.0561303
0.0543231
0.0513289
0.0485424
0.0469663
0.0466106
0.0470555
0.0521734
0.0829271
0.072995
0.0688524
0.0664856
0.0652664
0.0641416
0.062554
0.0602403
0.0573984
0.0549527
0.0533271
0.052382
0.0509712
0.0484664
0.0459096
0.0442851
0.0436198
0.0441133
0.0492036
0.0859166
0.0692449
0.0658902
0.0636755
0.0621043
0.0605059
0.0585438
0.0560763
0.0533103
0.0509493
0.0493868
0.0484206
0.0471034
0.0449614
0.0427
0.0411543
0.0405703
0.0412475
0.0456725
0.0814862
0.0646598
0.0617846
0.0595753
0.057705
0.0558119
0.053745
0.0514223
0.0490105
0.0469397
0.0454531
0.0443393
0.0429757
0.0411037
0.0392051
0.0378675
0.0374548
0.0379631
0.0401436
0.061773
0.0600364
0.0574572
0.0552681
0.0532533
0.0512735
0.049256
0.0471581
0.0450811
0.0432564
0.0417921
0.0405064
0.0390774
0.0374036
0.0357828
0.0345612
0.0340664
0.0340741
0.0341053
0.0421378
0.0557617
0.0534001
0.051289
0.0493095
0.0473937
0.0455174
0.043654
0.0418489
0.0402027
0.0387338
0.0373272
0.0358441
0.0342602
0.0327219
0.0313927
0.0304842
0.0297761
0.0284161
0.0306641
0.0521177
0.049946
0.0479649
0.046107
0.0443357
0.0426351
0.0409807
0.0393757
0.0378451
0.036382
0.0349353
0.033449
0.0319177
0.0303864
0.0289406
0.0277319
0.0267744
0.025952
0.0292681
0.0491651
0.0471738
0.045345
0.0436439
0.0420386
0.0405038
0.0390127
0.0375481
0.0361029
0.03467
0.0332423
0.0318129
0.0303864
0.0289746
0.0276219
0.0264704
0.0257934
0.0262211
0.0336061
0.0467855
0.0449823
0.0433174
0.0417761
0.0403264
0.0389327
0.0375667
0.0362081
0.0348413
0.0334636
0.0320894
0.030738
0.0294261
0.0281684
0.0270092
0.0261111
0.025927
0.0276595
0.0394888
0.0447949
0.0431904
0.0416964
0.0403094
0.0389982
0.0377238
0.0364591
0.0351869
0.0338935
0.0325802
0.0312677
0.0299842
0.0287553
0.0276107
0.0266219
0.0260007
0.0263187
0.0292237
0.0449222
0.0430209
0.0416193
0.0402972
0.0390568
0.0378702
0.0367011
0.0355252
0.0343284
0.033102
0.03185
0.0305933
0.0293618
0.0281892
0.0271242
0.0262697
0.0258795
0.0266039
0.0304605
0.0497374
0.0413382
0.0401363
0.0389815
0.037879
0.0368071
0.0357355
0.0346426
0.033517
0.0323538
0.0311596
0.0299547
0.0287701
0.0276477
0.0266541
0.0259174
0.0257191
0.0267592
0.0313658
0.0543033
0.039676
0.0386641
0.0376688
0.0366971
0.0357336
0.0347551
0.0337435
0.0326894
0.0315909
0.0304564
0.0293071
0.0281763
0.0271138
0.0262001
0.0255809
0.0255564
0.0268674
0.0320958
0.058731
0.0380127
0.0371766
0.0363312
0.0354838
0.0346249
0.0337376
0.0328078
0.0318283
0.0307995
0.0297317
0.0286479
0.0275845
0.0265979
0.0257785
0.0252842
0.0254335
0.0270147
0.0328443
0.0633235
0.0363629
0.0356857
0.0349787
0.0342491
0.0334914
0.0326944
0.031848
0.0309471
0.0299945
0.0290024
0.0279954
0.0270132
0.0261177
0.0254062
0.0250449
0.0253635
0.0271887
0.0335661
0.067603
0.0347624
0.0342256
0.0336442
0.0330247
0.0323646
0.0316567
0.0308946
0.0300757
0.0292048
0.0282962
0.0273763
0.0264872
0.0256934
0.0250954
0.0248636
0.025334
0.0273572
0.0341359
0.071123
0.0332589
0.0328429
0.032373
0.0318544
0.0312864
0.0306649
0.0299863
0.0292507
0.0284646
0.0276439
0.0268163
0.026025
0.0253355
0.0248495
0.0247382
0.0253404
0.0275178
0.0345684
0.0739406
0.0318996
0.031586
0.0312133
0.0307853
0.0303023
0.0297623
0.029164
0.0285097
0.0278076
0.0270744
0.0263386
0.0256436
0.025055
0.0246737
0.0246706
0.0253843
0.0276793
0.0348961
0.0758277
0.0307275
0.0304999
0.0302107
0.0298625
0.0294558
0.0289903
0.0284665
0.0278884
0.0272653
0.0266148
0.0259652
0.0253598
0.0248632
0.0245753
0.0246654
0.0254698
0.0278467
0.0351232
0.0765171
0.0297803
0.0296247
0.0294064
0.0291269
0.0287869
0.0283873
0.02793
0.0274199
0.0268675
0.0262906
0.0257173
0.0251901
0.0247725
0.0245628
0.0247281
0.0256006
0.0280248
0.035271
0.0762906
0.0290909
0.0289959
0.0288372
0.0286157
0.0283325
0.027989
0.0275882
0.0271359
0.0266429
0.0261272
0.0256166
0.0251524
0.0247967
0.0246461
0.0248655
0.0257819
0.028225
0.0354003
0.0757491
0.02869
0.0286462
0.0285372
0.0283639
0.0281274
0.0278296
0.0274743
0.0270677
0.026621
0.0261517
0.025687
0.0252671
0.0249526
0.0248387
0.0250876
0.0260225
0.0284643
0.0355793
0.0754134
0.0286085
0.0286083
0.0285405
0.0284061
0.0282065
0.0279441
0.0276228
0.0272491
0.026834
0.0263945
0.0259567
0.0255598
0.025263
0.0251597
0.0254109
0.0263384
0.0287644
0.0358725
0.0758295
0.0288803
0.0289175
0.0288835
0.0287797
0.0286079
0.0283706
0.0280719
0.027718
0.0273193
0.026892
0.0264608
0.0260637
0.0257585
0.0256378
0.0258624
0.0267568
0.0291579
0.0363344
0.0772506
0.0295453
0.0296145
0.0296078
0.0295271
0.0293747
0.0291532
0.0288662
0.0285194
0.028122
0.0276889
0.0272432
0.0268213
0.0264803
0.0263126
0.0264812
0.0273179
0.0296856
0.0369783
0.0792701
0.0306528
0.0307492
0.0307638
0.0306996
0.0305591
0.0303448
0.0300597
0.0297082
0.0292978
0.0288411
0.0283592
0.027887
0.0274811
0.0272356
0.0273181
0.0280717
0.0303917
0.0378057
0.081542
0.0322644
0.032383
0.0324133
0.0323596
0.0322247
0.0320106
0.0317191
0.0313527
0.0309161
0.0304187
0.0298786
0.0293287
0.0288265
0.0284698
0.0284343
0.029078
0.0313319
0.0388589
0.0841538
0.0344575
0.0345927
0.0346334
0.034585
0.0344506
0.0342314
0.0339275
0.0335383
0.0330642
0.0325097
0.0318882
0.0312303
0.0305952
0.0300888
0.0299002
0.0304061
0.0325762
0.040211
0.0871098
0.0373295
0.0374745
0.03752
0.0374725
0.0373353
0.0371083
0.0367889
0.0363721
0.0358519
0.035225
0.0344967
0.0336933
0.0328786
0.0321723
0.0317777
0.0321025
0.0341619
0.0418842
0.0902125
0.0410014
0.0411484
0.0411931
0.0411433
0.0410019
0.0407673
0.0404333
0.0399887
0.039418
0.0387045
0.0378395
0.0368402
0.0357776
0.0347882
0.0341148
0.0342041
0.0361239
0.0439338
0.0936913
0.0456245
0.045764
0.0458026
0.0457486
0.0456045
0.0453664
0.0450239
0.0445576
0.0439382
0.0431273
0.0420886
0.040818
0.039391
0.037996
0.036938
0.0367185
0.0384681
0.0464114
0.0980622
0.0513863
0.0515087
0.0515366
0.0514786
0.0513362
0.0511034
0.0507651
0.0502924
0.0496369
0.0487256
0.047469
0.0458089
0.0438168
0.0418164
0.04022
0.0395969
0.0411446
0.0492791
0.103237
0.0585221
0.0586182
0.0586328
0.0585735
0.0584406
0.0582267
0.057913
0.0574616
0.0568015
0.0558087
0.0542943
0.0520587
0.0491223
0.0461839
0.0438348
0.042698
0.0440173
0.052409
0.10902
0.0673285
0.0673923
0.0673938
0.0673387
0.0672265
0.0670496
0.0667885
0.0664012
0.0657985
0.0647965
0.0630426
0.0599861
0.0552952
0.0508658
0.0474967
0.0457471
0.0468319
0.0555509
0.115058
0.0781844
0.0782155
0.0782084
0.0781664
0.0780886
0.0779695
0.077794
0.077527
0.0770832
0.0762497
0.0744886
0.0705061
0.0620779
0.0553198
0.0506985
0.0483143
0.0492
0.0582956
0.12075
0.0915792
0.0915855
0.0915801
0.0915636
0.0915359
0.0914951
0.091436
0.0913451
0.0911842
0.0908292
0.0898145
0.0860653
0.0682515
0.0584532
0.0526973
0.049852
0.050629
0.0600498
0.124742
)
;

boundaryField
{
    leftWall
    {
        type            epsilonWallFunction;
        value           nonuniform List<scalar> 
50
(
0.0034707
0.00793532
0.0148012
0.0224816
0.0308126
0.0398489
0.0497276
0.0609594
0.0785393
0.107521
0.144403
0.194223
0.285918
0.42463
0.535982
0.673375
0.804558
0.844402
0.778633
0.699063
0.615596
0.526606
0.441593
0.361996
0.288271
0.222985
0.169081
0.128278
0.099759
0.0806847
0.0678855
0.0589489
0.0523572
0.0472517
0.0432127
0.0400462
0.0375795
0.0355437
0.033918
0.0328358
0.0322964
0.0322763
0.0327431
0.033621
0.0347727
0.0360378
0.037778
0.0503828
0.211982
1.56762
)
;
        Cmu             0.09;
        kappa           0.41;
        E               9.8;
        value           nonuniform List<scalar> 
50
(
0.0034707
0.00793532
0.0148012
0.0224816
0.0308126
0.0398489
0.0497276
0.0609594
0.0785393
0.107521
0.144403
0.194223
0.285918
0.42463
0.535982
0.673375
0.804558
0.844402
0.778633
0.699063
0.615596
0.526606
0.441593
0.361996
0.288271
0.222985
0.169081
0.128278
0.099759
0.0806847
0.0678855
0.0589489
0.0523572
0.0472517
0.0432127
0.0400462
0.0375795
0.0355437
0.033918
0.0328358
0.0322964
0.0322763
0.0327431
0.033621
0.0347727
0.0360378
0.037778
0.0503828
0.211982
1.56762
)
;
    }
    rightWall
    {
        type            epsilonWallFunction;
        value           nonuniform List<scalar> 
50
(
0.009777
0.0143666
0.0221036
0.029819
0.0376074
0.0456795
0.0544854
0.0637505
0.0731157
0.0821764
0.0830612
0.0832566
0.0900708
0.0861867
0.0829271
0.0859166
0.0814862
0.061773
0.0421378
0.0306641
0.0292681
0.0336061
0.0394888
0.0449222
0.0497374
0.0543033
0.058731
0.0633235
0.067603
0.071123
0.0739406
0.0758277
0.0765171
0.0762906
0.0757491
0.0754134
0.0758295
0.0772506
0.0792701
0.081542
0.0841538
0.0871098
0.0902125
0.0936913
0.0980622
0.103237
0.10902
0.115058
0.12075
0.124742
)
;
        Cmu             0.09;
        kappa           0.41;
        E               9.8;
        value           nonuniform List<scalar> 
50
(
0.009777
0.0143666
0.0221036
0.029819
0.0376074
0.0456795
0.0544854
0.0637505
0.0731157
0.0821764
0.0830612
0.0832566
0.0900708
0.0861867
0.0829271
0.0859166
0.0814862
0.061773
0.0421378
0.0306641
0.0292681
0.0336061
0.0394888
0.0449222
0.0497374
0.0543033
0.058731
0.0633235
0.067603
0.071123
0.0739406
0.0758277
0.0765171
0.0762906
0.0757491
0.0754134
0.0758295
0.0772506
0.0792701
0.081542
0.0841538
0.0871098
0.0902125
0.0936913
0.0980622
0.103237
0.10902
0.115058
0.12075
0.124742
)
;
    }
    lowerWall
    {
        type            epsilonWallFunction;
        value           nonuniform List<scalar> 
62
(
0.0034707
0.0214651
0.0411455
0.060759
0.0792797
0.096105
0.110969
0.123904
0.135159
0.145225
0.154151
0.161839
0.168141
0.172749
0.175096
0.173564
0.165004
0.151963
0.13534
0.113645
0.0846096
0.0499085
0.0152173
0.0152173
0.0217769
0.0322738
0.0408592
0.0484931
0.0577312
0.0778254
0.144413
0.242504
0.200146
0.210663
0.273962
0.0171703
0.0189538
0.0271165
0.0386568
0.0539652
0.0747059
0.109568
0.191139
0.0171703
0.0678084
0.106943
0.127256
0.134884
0.131644
0.121347
0.109241
0.0886963
0.06913
0.069551
0.0641444
0.0531063
0.0495739
0.0522659
0.0546256
0.0491087
0.0332089
0.009777
)
;
        Cmu             0.09;
        kappa           0.41;
        E               9.8;
        value           nonuniform List<scalar> 
62
(
0.0034707
0.0214651
0.0411455
0.060759
0.0792797
0.096105
0.110969
0.123904
0.135159
0.145225
0.154151
0.161839
0.168141
0.172749
0.175096
0.173564
0.165004
0.151963
0.13534
0.113645
0.0846096
0.0499085
0.0152173
0.0152173
0.0217769
0.0322738
0.0408592
0.0484931
0.0577312
0.0778254
0.144413
0.242504
0.200146
0.210663
0.273962
0.0171703
0.0189538
0.0271165
0.0386568
0.0539652
0.0747059
0.109568
0.191139
0.0171703
0.0678084
0.106943
0.127256
0.134884
0.131644
0.121347
0.109241
0.0886963
0.06913
0.069551
0.0641444
0.0531063
0.0495739
0.0522659
0.0546256
0.0491087
0.0332089
0.009777
)
;
    }
    atmosphere
    {
        type            inletOutlet;
        inletValue      uniform 0.1;
        value           nonuniform List<scalar> 
46
(
0.1
0.1
0.1
0.0466296
0.0282593
0.0236578
0.022803
0.0232401
0.0243952
0.0262276
0.0289535
0.0330711
0.0396297
0.0510447
0.1
0.1
0.1
0.1
0.1
0.1
0.1
0.1
0.1
0.1
0.1
0.1
0.1
0.1
0.1
0.1
0.1
0.1
0.1
0.1
0.1
0.1
0.1
0.1
0.1
0.0682515
0.0584532
0.0526973
0.049852
0.050629
0.0600498
0.124742
)
;
    }
    defaultFaces
    {
        type            empty;
    }
}


// ************************************************************************* //
