/*--------------------------------*- C++ -*----------------------------------*\
| =========                 |                                                 |
| \\      /  F ield         | OpenFOAM: The Open Source CFD Toolbox           |
|  \\    /   O peration     | Version:  2.3.0                                 |
|   \\  /    A nd           | Web:      www.OpenFOAM.org                      |
|    \\/     M anipulation  |                                                 |
\*---------------------------------------------------------------------------*/
FoamFile
{
    version     2.0;
    format      ascii;
    class       volScalarField;
    location    "2.9";
    object      k;
}
// * * * * * * * * * * * * * * * * * * * * * * * * * * * * * * * * * * * * * //

dimensions      [0 2 -2 0 0 0 0];

internalField   nonuniform List<scalar> 
2268
(
0.00108512
0.00298225
0.0045922
0.00593826
0.00707446
0.00802915
0.00882666
0.00949301
0.0100556
0.0105435
0.010964
0.0113178
0.0116007
0.0118013
0.0118973
0.0118204
0.0114216
0.0108068
0.00999892
0.00889317
0.00730378
0.00513178
0.0023214
0.00252983
0.00720087
0.0106292
0.0134809
0.0158912
0.0179186
0.0196137
0.0210304
0.0222215
0.0232296
0.0240736
0.0247566
0.025266
0.0255738
0.0256333
0.0253587
0.0246252
0.0234417
0.0217592
0.0194099
0.0160231
0.0113107
0.00487626
0.00383048
0.0100071
0.0142861
0.0178103
0.0207853
0.0232854
0.0253732
0.0271148
0.0285749
0.0298027
0.0308216
0.0316328
0.0322186
0.0325454
0.0325615
0.0321867
0.0313204
0.0299184
0.0278853
0.0249983
0.020852
0.0150163
0.00635324
0.00505614
0.0124962
0.0173695
0.0213267
0.0246537
0.027443
0.0297675
0.0317033
0.033323
0.0346791
0.0357964
0.0366743
0.0372921
0.0376144
0.0375914
0.0371526
0.0362108
0.0346946
0.0324757
0.0292973
0.0246982
0.0180324
0.00745465
0.00623149
0.014889
0.0202783
0.0245762
0.0281611
0.031151
0.0336334
0.0356954
0.0374171
0.0388533
0.0400294
0.0409431
0.041572
0.0418811
0.0418256
0.0413445
0.0403586
0.038783
0.0364697
0.0331412
0.0282776
0.0209444
0.00837991
0.00738817
0.0172636
0.0231506
0.0277495
0.0315401
0.0346748
0.0372613
0.0394016
0.0411836
0.0426651
0.043872
0.0448006
0.0454277
0.0457201
0.0456389
0.0451323
0.0441273
0.0425332
0.0401937
0.0368288
0.0318859
0.0241346
0.00942828
0.00855587
0.0196703
0.0260623
0.0309447
0.0349058
0.0381417
0.0407875
0.0429645
0.0447703
0.046267
0.0474812
0.0484084
0.0490248
0.0492993
0.0491993
0.0486819
0.0476807
0.0461027
0.0437932
0.0404943
0.0356794
0.0279528
0.0114723
0.00979813
0.0221594
0.029072
0.0342282
0.0383287
0.041624
0.0442851
0.0464573
0.0482514
0.0497344
0.0509347
0.0518472
0.0524469
0.0527041
0.0525925
0.0520785
0.0511041
0.04957
0.0473369
0.0441912
0.0397108
0.0327175
0.0172664
0.00254225
0.00631796
0.00854596
0.0095866
0.00995427
0.00978459
0.00928157
0.00866061
0.00753309
0.00639831
0.00644278
0.00608791
0.00538045
0.00515407
0.00533927
0.0054956
0.00511249
0.0039383
0.00218653
0.00480089
0.0134132
0.0179756
0.0202559
0.0211344
0.0209872
0.0202369
0.0190131
0.0167819
0.0147335
0.0145199
0.0136958
0.0122459
0.011393
0.0113633
0.0112594
0.0102038
0.00790056
0.00398297
0.00608492
0.0173481
0.0228774
0.0256123
0.0266798
0.0265582
0.025722
0.0242781
0.022069
0.0200308
0.0192781
0.0181822
0.0166476
0.015559
0.01513
0.0146196
0.0132509
0.0103859
0.00530259
0.00767609
0.020707
0.0267439
0.0296144
0.0307083
0.0305783
0.0297082
0.0282133
0.0261184
0.0241802
0.0230645
0.0217687
0.0201909
0.0188967
0.018136
0.0173609
0.0158035
0.0126077
0.00646788
0.00957004
0.0241506
0.0303076
0.0331133
0.0341345
0.0339687
0.0330826
0.031609
0.0296417
0.0277949
0.0264505
0.0250098
0.0233985
0.0219438
0.0208819
0.0198677
0.0181409
0.0147174
0.00754383
0.0118674
0.0278611
0.0337676
0.0363692
0.0372589
0.0370352
0.0361495
0.034735
0.0329
0.0311338
0.0296374
0.0280904
0.026452
0.0248828
0.0235415
0.0222542
0.0203238
0.0167163
0.00858225
0.0152927
0.0318401
0.0371666
0.0394748
0.0402086
0.0399225
0.0390511
0.0377207
0.0360268
0.0343296
0.0327168
0.0310761
0.0294169
0.0277612
0.0261674
0.024564
0.0223755
0.0185708
0.00964884
0.0221196
0.0360006
0.0404861
0.0424643
0.0430454
0.0427098
0.0418763
0.0406546
0.0391019
0.0374495
0.0357304
0.0339927
0.0322985
0.0305593
0.0287319
0.0268006
0.0243195
0.0202772
0.0107077
0.0115661
0.026064
0.0339093
0.0395262
0.04382
0.0471505
0.0497644
0.0518586
0.053572
0.0549845
0.0561289
0.0569999
0.0575693
0.0578063
0.0576947
0.0572178
0.0563167
0.0548943
0.0528353
0.0500265
0.0462846
0.0411977
0.0334866
0.01425
0.0320549
0.0413878
0.0476188
0.0520052
0.0551365
0.0574269
0.0591907
0.0606259
0.0618316
0.0628402
0.0636376
0.0641738
0.0643976
0.064302
0.0638996
0.063158
0.061957
0.0601735
0.0578568
0.0550921
0.0518474
0.0481634
0.0173347
0.0391388
0.0503694
0.0571261
0.0612793
0.0637986
0.0653759
0.0665224
0.067511
0.0684305
0.069285
0.0700412
0.0705884
0.0707777
0.0706369
0.0703183
0.0698462
0.0689824
0.0674189
0.0654472
0.0633562
0.0610678
0.0587203
0.0211741
0.0475804
0.0616482
0.0686087
0.0718993
0.0731095
0.0733959
0.0736054
0.0740398
0.0746716
0.0754143
0.0762572
0.0769383
0.077
0.0766159
0.0763231
0.0763166
0.0760925
0.0744964
0.0724944
0.0708126
0.0688179
0.0668089
0.0274939
0.0587744
0.0766906
0.0822446
0.0835439
0.0824549
0.0807931
0.0799148
0.0799216
0.0804547
0.0812013
0.0821377
0.0827783
0.0826417
0.0820698
0.0815394
0.0815905
0.081993
0.080167
0.0782546
0.0765669
0.0743901
0.0722954
0.035564
0.0767829
0.0945579
0.0943318
0.0924231
0.0892445
0.0860382
0.0844101
0.0843326
0.0851272
0.086152
0.0870419
0.0875517
0.0872473
0.0861588
0.0852233
0.0848609
0.0844554
0.0834901
0.0820308
0.0800981
0.0780159
0.0757195
0.0416178
0.0848766
0.101686
0.101244
0.0965809
0.0921744
0.0886299
0.0869036
0.0871105
0.088161
0.0885943
0.0888913
0.0892899
0.0886936
0.0875478
0.0868339
0.0869533
0.0871122
0.0869531
0.085616
0.0832786
0.0813052
0.0786036
0.0485818
0.0877686
0.107834
0.109182
0.0996282
0.0930238
0.0891721
0.0875889
0.0876614
0.0881287
0.0884729
0.0889777
0.0888383
0.0881097
0.0872508
0.0868841
0.087523
0.0889468
0.0899324
0.0884389
0.0849374
0.0815178
0.0787321
0.0544753
0.0902982
0.110022
0.109196
0.0989413
0.0919691
0.0883127
0.0868219
0.0865862
0.0870048
0.0879416
0.0883149
0.0875653
0.0866334
0.0859509
0.0857525
0.0863378
0.0878078
0.0886554
0.0868951
0.0833551
0.0802186
0.0778237
0.0560798
0.0881225
0.101959
0.100549
0.0941449
0.0893808
0.0866068
0.085293
0.085146
0.0856611
0.0863185
0.0862182
0.085358
0.0844274
0.0838427
0.0837014
0.0840032
0.0846481
0.0846657
0.0830879
0.0805897
0.0782832
0.0763297
0.0531057
0.0839258
0.0942624
0.0935541
0.0901269
0.0871802
0.0848838
0.0836132
0.0833442
0.0834191
0.0833516
0.0829503
0.0823379
0.0817187
0.0813588
0.0812724
0.0813255
0.0813449
0.0808711
0.0795716
0.0778177
0.0760733
0.0744059
0.0494502
0.0807303
0.0900656
0.0899368
0.0877723
0.0852106
0.0830051
0.0816933
0.0810245
0.0805925
0.0801616
0.0797358
0.0793611
0.0790854
0.0789936
0.0789775
0.078863
0.0785265
0.0778051
0.0766648
0.0752881
0.0738384
0.072326
0.0455462
0.0776074
0.087103
0.086958
0.0846878
0.0823102
0.0805305
0.0792793
0.0783782
0.0777018
0.0771857
0.0768429
0.0766825
0.0767155
0.0768573
0.0769059
0.0766982
0.0761803
0.0753486
0.0742684
0.0730413
0.0717225
0.070303
0.0411978
0.0723771
0.081793
0.0818599
0.0801041
0.0785159
0.0773361
0.0763765
0.0755725
0.0749378
0.0744977
0.0742815
0.0743001
0.0745299
0.0748061
0.0748959
0.0746625
0.0740947
0.0732444
0.0721997
0.0710353
0.0697818
0.0684403
0.0366521
0.0640064
0.0743853
0.0753843
0.0746354
0.0739882
0.0734737
0.072976
0.0724911
0.0720915
0.0718465
0.0718023
0.0719733
0.072309
0.07264
0.0727609
0.0725589
0.0720322
0.0712408
0.070267
0.0691736
0.0679932
0.0667456
0.0321178
0.0545917
0.065875
0.0684252
0.0687582
0.0689064
0.0690578
0.0690902
0.0690344
0.0689761
0.068999
0.0691585
0.0694687
0.0698752
0.0702387
0.0704012
0.0702724
0.0698473
0.069174
0.0683194
0.0673399
0.066274
0.0651549
0.0276016
0.0459891
0.0573832
0.0613851
0.0627828
0.0636144
0.0643195
0.0648615
0.0652469
0.0655569
0.0658716
0.066246
0.0666939
0.0671721
0.0675799
0.0678054
0.0677798
0.0674936
0.0669789
0.0662866
0.0654656
0.0645573
0.0636023
0.023251
0.0389894
0.0498253
0.0548138
0.0570641
0.0584486
0.059565
0.0605233
0.0612984
0.0619453
0.0625337
0.0631122
0.0636958
0.0642564
0.0647283
0.0650369
0.0651325
0.0650034
0.0646692
0.064166
0.0635344
0.0628145
0.0620474
0.0193036
0.0336654
0.0436704
0.0491036
0.0519272
0.0537169
0.0551268
0.0563399
0.0574044
0.0583221
0.0591396
0.0598946
0.0606028
0.0612511
0.0618
0.0622027
0.0624251
0.0624561
0.0623062
0.0620004
0.0615705
0.0610514
0.0604804
0.0160116
0.0297264
0.038901
0.0443725
0.0475062
0.0495658
0.051175
0.0525558
0.0537788
0.0548792
0.0558616
0.0567514
0.0575638
0.0582947
0.0589233
0.0594204
0.0597643
0.0599461
0.0599707
0.0598545
0.059621
0.0592982
0.058917
0.0134987
0.0267556
0.0351858
0.0404867
0.0437553
0.0459916
0.0477422
0.0492361
0.0505593
0.0517513
0.0528386
0.0538222
0.0547127
0.055512
0.0562107
0.0567932
0.0572458
0.0575613
0.0577413
0.0577959
0.0577411
0.0575979
0.0573899
0.0116924
0.024377
0.032155
0.0372226
0.0405413
0.0429052
0.0447723
0.0463573
0.0477536
0.0490066
0.0501449
0.0511883
0.0521346
0.0529878
0.0537455
0.0544006
0.0549447
0.0553728
0.0556845
0.055885
0.0559846
0.0559974
0.05594
0.0104096
0.0223622
0.0295694
0.0344074
0.0377415
0.0402089
0.0421847
0.043858
0.0453214
0.046626
0.0478046
0.0488805
0.0498683
0.0507648
0.0515722
0.0522882
0.0529085
0.0534293
0.0538493
0.0541704
0.0543982
0.0545412
0.0546099
0.00947111
0.0206238
0.0273296
0.0319546
0.0352837
0.0378364
0.0399152
0.0416784
0.0432121
0.0445701
0.0457902
0.0468998
0.0479178
0.0488536
0.0497056
0.050475
0.05116
0.0517579
0.0522667
0.0526861
0.0530183
0.0532674
0.0534392
0.00875067
0.0191401
0.0254077
0.0298333
0.0331386
0.0357566
0.0379281
0.0397786
0.0413846
0.0428007
0.0440681
0.045218
0.0462726
0.0472463
0.0481425
0.0489625
0.0497057
0.0503701
0.0509533
0.0514538
0.0518712
0.0522066
0.0524621
0.00817297
0.0178993
0.0237903
0.0280313
0.0312979
0.033961
0.0362094
0.0381378
0.0398132
0.0412897
0.0426106
0.0438092
0.0449094
0.0459272
0.0468717
0.0477435
0.048543
0.0492685
0.0499174
0.0504871
0.0509757
0.0513822
0.0517062
0.00770221
0.0168898
0.0224549
0.0265317
0.0297569
0.0324487
0.0347544
0.0367455
0.0384825
0.040019
0.0413984
0.0426538
0.0438096
0.0448819
0.0458808
0.0468091
0.0476669
0.0484525
0.0491629
0.0497949
0.0503456
0.0508127
0.0511942
0.00732405
0.0160911
0.0213689
0.0253067
0.0285005
0.0312106
0.0335533
0.0355904
0.037381
0.0389768
0.0404192
0.0417396
0.0429607
0.0440978
0.0451604
0.0461523
0.0470734
0.0479214
0.0486931
0.0493847
0.0499926
0.0505137
0.0509452
0.00702435
0.0154592
0.0205003
0.0243278
0.0274976
0.0302182
0.0325832
0.0346564
0.0364972
0.0381545
0.0396659
0.0410597
0.0423561
0.0435686
0.0447053
0.0457701
0.0467618
0.0476776
0.0485136
0.0492653
0.0499289
0.0505007
0.0509777
0.00677272
0.0149176
0.0198134
0.0235687
0.0267154
0.0294367
0.0318183
0.0339276
0.0358222
0.0375467
0.0391348
0.0406113
0.0419935
0.0432929
0.0445157
0.0456644
0.0467366
0.047728
0.0486339
0.0494492
0.0501694
0.050791
0.0513109
0.00656771
0.0144948
0.0193045
0.0230088
0.0261294
0.0288456
0.0312459
0.0333972
0.0353523
0.0371517
0.0388251
0.0403943
0.0418741
0.0432735
0.0445966
0.045843
0.0470081
0.048086
0.04907
0.0499544
0.0507343
0.0514062
0.0519678
0.00642974
0.0142526
0.0189828
0.0226375
0.0257309
0.0284439
0.030868
0.0330666
0.0350882
0.0369692
0.0387367
0.0404099
0.0420013
0.0435172
0.0449583
0.0463203
0.0475951
0.0487733
0.0498464
0.0508073
0.0516509
0.0523745
0.052977
0.00636042
0.0141588
0.0188351
0.02245
0.0255224
0.0282372
0.0306882
0.0329368
0.0350283
0.0369968
0.0388678
0.0406589
0.0423803
0.0440346
0.0456182
0.0471201
0.0485266
0.0498236
0.0509993
0.0520452
0.0529569
0.0537331
0.0543749
0.00635706
0.0141937
0.0188481
0.0224395
0.0255001
0.0282215
0.0307008
0.0329999
0.0351636
0.037226
0.0392126
0.0411405
0.0430174
0.0448418
0.0466024
0.0482783
0.0498466
0.0512857
0.0525798
0.0537196
0.0547023
0.0555299
0.0562072
0.00641539
0.0143477
0.0190074
0.0225906
0.0256474
0.0283786
0.0308865
0.0332362
0.0354751
0.0376402
0.0397594
0.0418507
0.0439207
0.0459615
0.0479493
0.0498481
0.0516189
0.0532294
0.0546587
0.0558989
0.0569517
0.0578252
0.0585303
0.00652513
0.0146024
0.0192896
0.0228769
0.0259356
0.0286778
0.0312137
0.0336144
0.0359334
0.0382135
0.0404886
0.0427813
0.0450982
0.0474239
0.0497146
0.0519073
0.053936
0.0557521
0.0573314
0.0586721
0.0597862
0.0606926
0.0614114
0.00666817
0.0149329
0.0196705
0.0232698
0.0263304
0.029081
0.0316422
0.0340942
0.036499
0.0389096
0.0413711
0.0439165
0.0465572
0.0492696
0.0519792
0.0545713
0.0569312
0.0589883
0.0607228
0.0621503
0.0633032
0.0642181
0.0649283
0.00682655
0.0153716
0.0201855
0.0237756
0.0268125
0.029553
0.0321291
0.0346286
0.0371236
0.0396809
0.0423639
0.0452268
0.0482987
0.0515528
0.0548662
0.0580173
0.060799
0.0631207
0.0649905
0.0664654
0.0676138
0.0684979
0.0691672
0.0070728
0.0164665
0.0212341
0.0245625
0.0274213
0.0300771
0.0326346
0.0351679
0.037751
0.0404658
0.0434033
0.0466578
0.0503053
0.0543434
0.0585772
0.0625332
0.0658277
0.0683911
0.0703232
0.071764
0.0728365
0.0736336
0.0742207
0.00884913
0.0220207
0.02504
0.0263588
0.0283406
0.0306695
0.0331247
0.0356601
0.0383177
0.0411873
0.0443967
0.0481099
0.0525127
0.057724
0.063495
0.0686282
0.0724459
0.0751008
0.0769243
0.0781909
0.079086
0.0797267
0.0801856
0.0233491
0.0450452
0.0407974
0.031372
0.0299499
0.0313536
0.0335583
0.0360495
0.0387552
0.0417542
0.0452145
0.0494042
0.0547318
0.0617268
0.0705277
0.077264
0.0812521
0.083567
0.0849674
0.0858616
0.0864603
0.086874
0.087163
0.0852034
0.0886442
0.0794979
0.0423243
0.0322724
0.0319918
0.0338487
0.0362733
0.0389972
0.0420718
0.0456948
0.0502402
0.0564354
0.0658683
0.0827967
0.0902452
0.0928662
0.0939613
0.0945106
0.0948293
0.0950327
0.0951698
0.0952638
0.0244401
0.0213451
0.0219906
0.0262315
0.0458822
0.0449325
0.0448409
0.0455628
0.0573566
0.0566521
0.0561516
0.0558405
0.0656145
0.0649632
0.0642662
0.0633594
0.0712668
0.0704644
0.0692588
0.0679737
0.074234
0.0732461
0.0722439
0.0713613
0.0767041
0.0757684
0.0749294
0.0739261
0.0770714
0.076347
0.0756533
0.0747096
0.0764038
0.0756249
0.0748544
0.0739878
0.0750083
0.0741794
0.0733447
0.0724975
0.073148
0.0723282
0.0714963
0.0706672
0.0711158
0.0703219
0.0695182
0.06872
0.0691486
0.0683947
0.067636
0.0668828
0.0673656
0.0666702
0.0659724
0.0652751
0.0657704
0.0651444
0.0645175
0.0638874
0.064298
0.0637511
0.0632038
0.0626508
0.0628798
0.0624194
0.0619576
0.0614877
0.0614676
0.0610969
0.0607226
0.0603374
0.0600425
0.0597597
0.0594703
0.0591673
0.0586123
0.0584113
0.0582005
0.0579738
0.0572045
0.0570764
0.0569355
0.0567766
0.0558573
0.0557919
0.0557112
0.0556108
0.0546131
0.0546006
0.0545708
0.05452
0.0535129
0.0535443
0.0535569
0.0535477
0.0525931
0.0526606
0.052708
0.0527333
0.0518841
0.0519812
0.0520574
0.0521111
0.051411
0.0515327
0.0516327
0.05171
0.0511953
0.0513379
0.0514581
0.051555
0.0512571
0.0514178
0.0515553
0.051669
0.051617
0.051794
0.0519466
0.0520747
0.0522988
0.0524905
0.0526566
0.0527971
0.0533312
0.0535362
0.053714
0.0538651
0.0547501
0.0549665
0.0551541
0.0553136
0.0565996
0.0568249
0.0570196
0.0571848
0.0589339
0.0591639
0.0593618
0.0595292
0.0618166
0.0620455
0.0622412
0.0624058
0.0653212
0.065541
0.0657273
0.0658828
0.0695298
0.0697301
0.0698984
0.0700375
0.0745316
0.074701
0.0748418
0.074957
0.0804229
0.0805503
0.080655
0.0807396
0.0873091
0.0873863
0.0874488
0.0874987
0.0953102
0.0953343
0.0953534
0.0953684
0.0365343
0.0424408
0.0454659
0.0469684
0.0473478
0.0469853
0.046285
0.0452703
0.043905
0.0422612
0.0403705
0.0384584
0.0366398
0.0347254
0.0325599
0.0300687
0.0270333
0.0224498
0.0117223
0.0474356
0.0497938
0.0515845
0.0526409
0.0528762
0.0526697
0.052416
0.0517751
0.0505227
0.0487095
0.0464966
0.0442028
0.0419577
0.0395875
0.0369221
0.0338784
0.0302742
0.0249283
0.0126375
0.0555984
0.056159
0.0571606
0.0579198
0.0580685
0.0582829
0.0588377
0.0587266
0.0574998
0.0552895
0.0524836
0.0495572
0.0466999
0.0437502
0.0405887
0.0371108
0.0331012
0.0268048
0.0126815
0.0618973
0.0612756
0.0617969
0.0624791
0.0628741
0.0637237
0.065496
0.0662252
0.065005
0.0622435
0.05849
0.0547025
0.0511612
0.0475259
0.0437834
0.0399494
0.0358617
0.0281468
0.012732
0.0660033
0.0648335
0.064842
0.0650831
0.0652301
0.0658768
0.0674076
0.0682925
0.0671417
0.0642754
0.0604659
0.0564361
0.052675
0.0490642
0.0457115
0.0423823
0.0374818
0.0295226
0.0133897
0.0695209
0.0677504
0.0670992
0.0669843
0.0668007
0.0664229
0.0661179
0.0653959
0.0638814
0.061743
0.059279
0.0562453
0.0526961
0.0492053
0.0459281
0.0423956
0.0371326
0.0293788
0.0130552
0.0719469
0.0698586
0.0688265
0.0684435
0.0680413
0.0671901
0.0658461
0.063978
0.0618557
0.0597384
0.0576853
0.0551122
0.0516469
0.0479976
0.0445551
0.0408942
0.0358953
0.0286352
0.0127677
0.0729096
0.070939
0.0698592
0.0692622
0.0685023
0.0672226
0.0652357
0.0626467
0.0600321
0.057704
0.0556247
0.0531187
0.049779
0.0461264
0.0425704
0.0387716
0.0340201
0.0273312
0.0130938
0.0724879
0.0707179
0.0695009
0.0684954
0.0672625
0.0655594
0.0632849
0.0605579
0.0578293
0.0553971
0.0531725
0.0505723
0.0472859
0.0436514
0.0400399
0.0363327
0.031932
0.02561
0.012637
0.0711337
0.0694418
0.0680302
0.0666587
0.0650652
0.0631212
0.0607658
0.0581021
0.0554244
0.0529289
0.0505004
0.047734
0.0444335
0.0408333
0.0372089
0.0335903
0.0293904
0.0230245
0.0105024
0.069361
0.0676845
0.0661206
0.0644985
0.0626932
0.0606394
0.0583006
0.0557433
0.0531369
0.0505745
0.0479392
0.0449978
0.0416428
0.0380082
0.0342558
0.0304539
0.0260311
0.019454
0.0081072
0.0674645
0.0657969
0.064152
0.0624237
0.060545
0.0584863
0.0562225
0.0537844
0.0512479
0.0486292
0.0458384
0.0427509
0.0393053
0.0355499
0.0315498
0.0273556
0.0225776
0.0160569
0.00658006
0.0656886
0.064051
0.0623992
0.0606677
0.058815
0.0568205
0.0546611
0.0523364
0.0498624
0.0472262
0.0443711
0.0412238
0.0377399
0.0339187
0.0297862
0.0253744
0.0204964
0.0145325
0.0063874
0.0641547
0.0625792
0.0609763
0.0593068
0.0575362
0.0556383
0.0535883
0.0513685
0.0489667
0.0463648
0.0435341
0.040438
0.0370484
0.0333508
0.0293476
0.0250447
0.0203499
0.014779
0.00699657
0.0628602
0.0613848
0.0598721
0.0583005
0.0566371
0.0548486
0.0529086
0.0507949
0.0484869
0.0459683
0.0432282
0.0402548
0.0370346
0.0335554
0.0298054
0.0257613
0.0213204
0.0159391
0.00778443
0.0617355
0.060393
0.0590012
0.0575484
0.0560031
0.0543297
0.0525015
0.0504981
0.0482994
0.0458928
0.0432756
0.040447
0.0374017
0.0341293
0.0306112
0.0268041
0.0225564
0.0172074
0.00848536
0.0606966
0.0595084
0.0582561
0.0569331
0.0555111
0.0539556
0.0522417
0.050351
0.0482673
0.0459811
0.0434923
0.040803
0.0379114
0.0348088
0.0314731
0.0278452
0.0237344
0.0184101
0.00909241
0.0596757
0.0586517
0.0575467
0.0563571
0.055059
0.0536223
0.0520237
0.0502467
0.048278
0.0461107
0.043745
0.0411831
0.0384248
0.035463
0.0322738
0.0287879
0.0247962
0.019553
0.00965215
0.0586333
0.0577736
0.0568162
0.0557591
0.0545835
0.0532642
0.0517802
0.0501161
0.0482608
0.0462089
0.0439602
0.0415171
0.0388799
0.0360421
0.0329774
0.0296085
0.0257202
0.0205735
0.0101788
0.0575602
0.0568578
0.056043
0.0551147
0.0540584
0.0528537
0.0514821
0.0499294
0.0481858
0.0462466
0.0441116
0.0417826
0.0392603
0.0365372
0.0335828
0.0303076
0.0264964
0.0214053
0.0107116
0.0564724
0.0559154
0.0552345
0.0544288
0.0534871
0.052393
0.0511306
0.049687
0.0480534
0.0462253
0.0442018
0.0419844
0.0395731
0.0369587
0.0341064
0.0309228
0.0271667
0.0220605
0.0111891
0.0554026
0.054976
0.0544175
0.0537259
0.0528925
0.0519039
0.0507466
0.0494089
0.0478828
0.046164
0.0442517
0.0421463
0.0398457
0.0373371
0.0345805
0.0314726
0.0277504
0.0225918
0.011573
0.0543943
0.0540813
0.0536317
0.053044
0.0523109
0.0514213
0.0503636
0.0491274
0.0477054
0.0460932
0.0442893
0.0422925
0.0400982
0.0376892
0.0350187
0.0319728
0.0282677
0.0230325
0.0118723
0.0534915
0.0532754
0.0529209
0.0524258
0.0517835
0.0509849
0.0500197
0.0488788
0.0475551
0.046044
0.0443427
0.0424481
0.0403521
0.0380327
0.0354363
0.0324383
0.0287341
0.0234025
0.0120618
0.052735
0.0526003
0.0523272
0.0519128
0.0513511
0.0506342
0.0497529
0.048699
0.0474654
0.046047
0.0444394
0.0426371
0.0406282
0.0383859
0.0358492
0.0328828
0.0291616
0.0237138
0.0121221
0.0521607
0.0520936
0.0518891
0.0515437
0.0510518
0.0504062
0.0495989
0.0486219
0.047468
0.0461313
0.0446056
0.0428826
0.0409468
0.0387659
0.0362722
0.0333195
0.0295631
0.0239852
0.012094
0.0517992
0.0517879
0.0516403
0.0513527
0.0509198
0.0503349
0.0495905
0.0486789
0.0475926
0.0463244
0.0448662
0.0432068
0.0413269
0.0391894
0.0367197
0.0337618
0.0299541
0.0242422
0.012039
0.0516772
0.0517116
0.0516106
0.0513704
0.050986
0.0504511
0.0497584
0.0489
0.0478678
0.0466532
0.045246
0.0436322
0.0417887
0.0396737
0.0372069
0.034224
0.0303514
0.024509
0.0120087
0.0518187
0.0518907
0.0518273
0.0516252
0.0512795
0.0507842
0.0501319
0.0493142
0.0483221
0.0471453
0.0457714
0.0441833
0.0423545
0.040239
0.037752
0.0347235
0.0307729
0.0248081
0.0120608
0.0522478
0.0523503
0.0523169
0.0521446
0.0518289
0.0513636
0.050741
0.0499521
0.0489863
0.0478313
0.0464721
0.0448887
0.0430513
0.0409108
0.0383789
0.0352829
0.0312407
0.0251587
0.0122177
0.0529898
0.0531169
0.0531069
0.0529574
0.052664
0.0522203
0.0516182
0.0508471
0.0498945
0.0487458
0.0473828
0.0457826
0.0439125
0.0417208
0.0391181
0.0359315
0.0317809
0.0255741
0.0124325
0.054074
0.0542205
0.0542281
0.0540953
0.0538179
0.0533892
0.0527997
0.0520371
0.0510865
0.0499296
0.048545
0.0469063
0.0449782
0.0427081
0.0400065
0.0367029
0.0324204
0.0260639
0.0126708
0.0555351
0.0556957
0.0557159
0.0555949
0.0553287
0.0549101
0.0543278
0.053567
0.052609
0.0514313
0.0500079
0.0483086
0.0462961
0.0439177
0.0410863
0.0376345
0.0331883
0.0266426
0.0129417
0.0574143
0.0575836
0.0576116
0.0574987
0.0572409
0.0568298
0.0562521
0.0554893
0.0545178
0.053309
0.0518304
0.0500471
0.0479202
0.0453995
0.0424028
0.0387669
0.0341177
0.0273329
0.0132445
0.059761
0.0599327
0.0599642
0.0598567
0.0596063
0.0592031
0.058631
0.0578668
0.0568796
0.055632
0.054082
0.0521878
0.0499098
0.0472039
0.0439928
0.0401232
0.0352218
0.0281373
0.0135593
0.0626325
0.0627997
0.0628306
0.0627273
0.0624857
0.0620942
0.0615331
0.0607731
0.0597735
0.0584833
0.0568453
0.0548057
0.0523256
0.0493695
0.0458817
0.0417211
0.0365133
0.0290675
0.0139043
0.0660956
0.0662505
0.0662771
0.0661783
0.0659494
0.0655772
0.0650381
0.064295
0.0632941
0.0619637
0.0602199
0.0579863
0.0552215
0.0519247
0.048077
0.0435573
0.0379877
0.0301311
0.0143288
0.0702264
0.070361
0.0703806
0.0702882
0.0700787
0.0697375
0.0692374
0.0685331
0.0675541
0.0661977
0.0643329
0.0618329
0.0586454
0.0548662
0.0505468
0.0455912
0.0396108
0.0313101
0.0148213
0.0751118
0.0752191
0.0752301
0.0751478
0.0749668
0.0746723
0.0742349
0.073603
0.0726878
0.0713449
0.0693606
0.0664886
0.0626224
0.0581306
0.0531917
0.0477226
0.0413
0.0325499
0.0153605
0.080852
0.0809269
0.0809299
0.0808629
0.0807213
0.0804916
0.0801464
0.079633
0.0788516
0.0776134
0.0755771
0.0722172
0.0671278
0.0615448
0.0558089
0.0497694
0.0429097
0.0337491
0.0159126
0.087564
0.0876054
0.0876031
0.087558
0.0874669
0.0873202
0.0870979
0.0867586
0.0862131
0.0852607
0.0834294
0.0796305
0.071979
0.0647345
0.0580565
0.0514591
0.044229
0.0347544
0.0164244
0.0953879
0.0953996
0.0953973
0.0953812
0.0953502
0.0953009
0.0952263
0.0951105
0.0949148
0.0945285
0.0935688
0.0904063
0.0763331
0.0669537
0.0594429
0.0524554
0.0450053
0.0353659
0.0167797
)
;

boundaryField
{
    leftWall
    {
        type            kqRWallFunction;
        value           nonuniform List<scalar> 
50
(
0.00108512
0.00252983
0.00383048
0.00505614
0.00623149
0.00738817
0.00855587
0.00979813
0.0115661
0.01425
0.0173347
0.0211741
0.0274939
0.035564
0.0416178
0.0485818
0.0544753
0.0560798
0.0531057
0.0494502
0.0455462
0.0411978
0.0366521
0.0321178
0.0276016
0.023251
0.0193036
0.0160116
0.0134987
0.0116924
0.0104096
0.00947111
0.00875067
0.00817297
0.00770221
0.00732405
0.00702435
0.00677272
0.00656771
0.00642974
0.00636042
0.00635706
0.00641539
0.00652513
0.00666817
0.00682655
0.0070728
0.00884913
0.0233491
0.0852034
)
;
    }
    rightWall
    {
        type            kqRWallFunction;
        value           nonuniform List<scalar> 
50
(
0.00218653
0.00398297
0.00530259
0.00646788
0.00754383
0.00858225
0.00964884
0.0107077
0.0117223
0.0126375
0.0126815
0.012732
0.0133897
0.0130552
0.0127677
0.0130938
0.012637
0.0105024
0.0081072
0.00658006
0.0063874
0.00699657
0.00778443
0.00848536
0.00909241
0.00965215
0.0101788
0.0107116
0.0111891
0.011573
0.0118723
0.0120618
0.0121221
0.012094
0.012039
0.0120087
0.0120608
0.0122177
0.0124325
0.0126708
0.0129417
0.0132445
0.0135593
0.0139043
0.0143288
0.0148213
0.0153605
0.0159126
0.0164244
0.0167797
)
;
    }
    lowerWall
    {
        type            kqRWallFunction;
        value           nonuniform List<scalar> 
62
(
0.00108512
0.00298225
0.0045922
0.00593826
0.00707446
0.00802915
0.00882666
0.00949301
0.0100556
0.0105435
0.010964
0.0113178
0.0116007
0.0118013
0.0118973
0.0118204
0.0114216
0.0108068
0.00999892
0.00889317
0.00730378
0.00513178
0.0023214
0.0023214
0.00487626
0.00635324
0.00745465
0.00837991
0.00942828
0.0114723
0.0172664
0.0244401
0.0213451
0.0219906
0.0262315
0.00254225
0.00480089
0.00608492
0.00767609
0.00957004
0.0118674
0.0152927
0.0221196
0.00254225
0.00631796
0.00854596
0.0095866
0.00995427
0.00978459
0.00928157
0.00866061
0.00753309
0.00639831
0.00644278
0.00608791
0.00538045
0.00515407
0.00533927
0.0054956
0.00511249
0.0039383
0.00218653
)
;
    }
    atmosphere
    {
        type            inletOutlet;
        inletValue      uniform 0.1;
        value           nonuniform List<scalar> 
46
(
0.1
0.1
0.1
0.0423243
0.0322724
0.0319918
0.0338487
0.0362733
0.0389972
0.0420718
0.0456948
0.0502402
0.0564354
0.0658683
0.1
0.1
0.1
0.1
0.1
0.1
0.1
0.1
0.1
0.1
0.1
0.1
0.1
0.1
0.1
0.1
0.1
0.1
0.1
0.1
0.1
0.1
0.1
0.1
0.1
0.0763331
0.0669537
0.0594429
0.0524554
0.0450053
0.0353659
0.0167797
)
;
    }
    defaultFaces
    {
        type            empty;
    }
}


// ************************************************************************* //
