/*--------------------------------*- C++ -*----------------------------------*\
| =========                 |                                                 |
| \\      /  F ield         | OpenFOAM: The Open Source CFD Toolbox           |
|  \\    /   O peration     | Version:  2.3.0                                 |
|   \\  /    A nd           | Web:      www.OpenFOAM.org                      |
|    \\/     M anipulation  |                                                 |
\*---------------------------------------------------------------------------*/
FoamFile
{
    version     2.0;
    format      ascii;
    class       volScalarField;
    location    "2.9";
    object      nut;
}
// * * * * * * * * * * * * * * * * * * * * * * * * * * * * * * * * * * * * * //

dimensions      [0 2 -1 0 0 0 0];

internalField   nonuniform List<scalar> 
2268
(
3.05339e-05
3.72904e-05
4.61277e-05
5.22337e-05
5.68155e-05
6.03719e-05
6.31879e-05
6.54584e-05
6.73309e-05
6.88918e-05
7.01829e-05
7.12331e-05
7.20339e-05
7.25577e-05
7.27546e-05
7.24518e-05
7.11543e-05
6.91674e-05
6.64846e-05
6.26331e-05
5.67437e-05
4.74901e-05
3.18716e-05
7.25874e-05
0.000343665
0.000471517
0.000543561
0.00059175
0.000626927
0.000653954
0.000675657
0.000693694
0.000708329
0.000719582
0.000727732
0.00073233
0.000732616
0.000727715
0.000716584
0.000697556
0.000668809
0.000627633
0.000569825
0.000479255
0.000336628
9.82697e-05
8.92181e-05
0.000595569
0.000896842
0.00106942
0.00118122
0.00125975
0.00131801
0.00136334
0.00140001
0.0014295
0.0014521
0.00146788
0.00147578
0.00147411
0.00146087
0.00143337
0.0013878
0.00132019
0.00122411
0.00108821
0.000888313
0.000589908
0.00011256
0.000102342
0.000777933
0.00123429
0.00150621
0.0016833
0.0018066
0.0018967
0.0019654
0.00201964
0.00206243
0.00209477
0.00211656
0.00212632
0.00212168
0.00209964
0.00205614
0.00198552
0.00188139
0.00173332
0.00152398
0.00122245
0.000780635
0.000122407
0.000113422
0.000920085
0.00150705
0.00186841
0.0021065
0.00227241
0.00239294
0.00248369
0.00255398
0.0026084
0.00264881
0.00267519
0.00268581
0.00267787
0.00264767
0.00259012
0.00249816
0.00236305
0.00217059
0.00189814
0.00150735
0.000935849
0.000130329
0.000123282
0.0010358
0.00173252
0.00217268
0.00246615
0.00267144
0.00282026
0.00293139
0.00301622
0.00308084
0.00312804
0.00315803
0.00316908
0.00315814
0.00312107
0.00305212
0.00294322
0.00278366
0.00255609
0.00223321
0.00176798
0.00107851
0.000138579
0.000132487
0.00113223
0.00192197
0.00243148
0.00277493
0.00301628
0.00319114
0.00332096
0.00341893
0.00349261
0.00354568
0.00357877
0.00359025
0.00357701
0.00353472
0.00345732
0.00333615
0.00315897
0.00290632
0.0025476
0.00202673
0.00123021
0.000152202
0.000141739
0.00121392
0.00208336
0.00265417
0.00304281
0.00331717
0.00351594
0.00366285
0.00377276
0.00385459
0.00391294
0.00394889
0.00396106
0.00394642
0.00390071
0.00381785
0.0036891
0.00350091
0.00323359
0.00285536
0.00230539
0.001433
0.000185799
3.38766e-05
5.29801e-05
6.14626e-05
6.4997e-05
6.61153e-05
6.54527e-05
6.38934e-05
6.17952e-05
5.75815e-05
5.32974e-05
5.37137e-05
5.2002e-05
4.90607e-05
4.82271e-05
4.90894e-05
4.97596e-05
4.79014e-05
4.20346e-05
4.40098e-05
0.000109443
0.000433067
0.00056635
0.000623351
0.000641523
0.000635416
0.000619847
0.000592322
0.000521318
0.000472635
0.000507981
0.000494038
0.000433049
0.000394486
0.000413723
0.000439006
0.000403331
0.000294341
9.93813e-05
0.00012289
0.000749337
0.00107301
0.00122143
0.00127444
0.00126819
0.00123267
0.00117539
0.0010746
0.00100154
0.00102843
0.00099626
0.000896048
0.000824072
0.000834002
0.000838235
0.00073043
0.000471208
0.000114487
0.000137182
0.000970304
0.00148056
0.00172662
0.00182266
0.00182631
0.00178021
0.00170648
0.00159739
0.00151315
0.00151069
0.00145853
0.00133856
0.00123929
0.00121471
0.00117228
0.000990442
0.000612287
0.000126262
0.000152741
0.00114989
0.00182006
0.00215548
0.00229456
0.00231407
0.00226602
0.00218651
0.00207753
0.00198648
0.00195323
0.00188115
0.00174996
0.00162898
0.00156069
0.0014642
0.00121703
0.000746281
0.000136192
0.000169667
0.00132254
0.00212222
0.00253144
0.00270776
0.00274365
0.00269987
0.00262111
0.00251539
0.00241923
0.00235868
0.00226781
0.00212774
0.00198835
0.00187657
0.00172595
0.00142027
0.000873802
0.000145119
0.000192099
0.00150471
0.00241087
0.00287356
0.00307749
0.00312749
0.00309069
0.00301588
0.00291436
0.00281338
0.00272978
0.00262103
0.00247207
0.00231523
0.00216329
0.00196068
0.00159992
0.00098484
0.000153785
0.000230381
0.00172064
0.00270597
0.00319562
0.00341516
0.00347533
0.00344598
0.0033761
0.0032783
0.00317218
0.00306912
0.00294346
0.00278444
0.00260982
0.0024207
0.00216939
0.0017565
0.00107596
0.000161864
0.000153295
0.00132602
0.00230183
0.00295692
0.00340952
0.00373129
0.0039645
0.00413585
0.00426266
0.00435591
0.00442167
0.00446196
0.00447596
0.00446106
0.00441344
0.00432733
0.0041932
0.00399803
0.00372343
0.00334134
0.00280475
0.00203716
0.000988486
0.000169973
0.00145219
0.00253504
0.00328108
0.00380542
0.00418048
0.00445191
0.00465023
0.00479591
0.00490231
0.00497724
0.0050239
0.00504242
0.00503121
0.00498702
0.00490474
0.00477749
0.00459562
0.00434673
0.00401566
0.00358193
0.00301524
0.00230679
0.000187284
0.00155923
0.00273579
0.00356187
0.00414574
0.00456216
0.00486223
0.00508127
0.00524232
0.00535996
0.005443
0.00549588
0.00551986
0.00551313
0.00547405
0.00540108
0.00529052
0.00513604
0.0049313
0.0046749
0.00436122
0.0039804
0.0035518
0.000207755
0.00160847
0.00292597
0.00383922
0.00446993
0.00491064
0.00522576
0.00545816
0.00563104
0.00575753
0.00584623
0.0059039
0.00593236
0.00592828
0.00589344
0.0058313
0.00574206
0.00562106
0.00546208
0.0052765
0.00506552
0.00481662
0.00455257
0.000237944
0.00159275
0.00316992
0.00415724
0.00481006
0.00525047
0.00556294
0.00580135
0.00598269
0.00611469
0.00620382
0.00626012
0.00628767
0.00628556
0.00625656
0.00620231
0.0061279
0.00603606
0.00591681
0.00579647
0.00566356
0.00549681
0.00531861
0.000268073
0.00179953
0.00351542
0.00447827
0.00511911
0.00555334
0.00586499
0.00610727
0.0062931
0.00642748
0.00651521
0.0065667
0.0065931
0.00659299
0.00656748
0.00651568
0.00644397
0.00636116
0.00628596
0.00621793
0.006129
0.0060153
0.00588838
0.000290837
0.00217219
0.0037732
0.00470804
0.00532702
0.0057767
0.00610462
0.00635563
0.00654635
0.00668057
0.00675973
0.00680681
0.00683733
0.00683813
0.00681304
0.0067674
0.00670769
0.00664614
0.00660127
0.00655781
0.00649445
0.00641869
0.00632645
0.000315452
0.00231491
0.00396303
0.00488352
0.00545667
0.00592179
0.00627588
0.00653961
0.00672932
0.00685404
0.00693448
0.00699267
0.00702335
0.00702401
0.00700118
0.00696101
0.00691368
0.00687684
0.00685397
0.00682079
0.00676529
0.00669916
0.00663689
0.000331959
0.00241611
0.00409921
0.00498858
0.00555596
0.00602694
0.00639318
0.00666007
0.0068445
0.00697076
0.00706506
0.00712865
0.00715545
0.00715784
0.00714028
0.00710646
0.00706738
0.00704066
0.00702561
0.00700138
0.00696061
0.00691809
0.00688232
0.000335202
0.00237872
0.00402867
0.00495708
0.00558771
0.00608385
0.00645539
0.00672057
0.00690776
0.007042
0.00714033
0.00720435
0.00723636
0.00724622
0.00723843
0.00721681
0.00719026
0.00716935
0.00715639
0.00714304
0.00712454
0.00710496
0.00708701
0.000325981
0.00226465
0.00386669
0.00484505
0.00553724
0.00606175
0.0064418
0.00671442
0.0069117
0.00705375
0.00715558
0.00722626
0.00727216
0.0072976
0.00730663
0.00730336
0.00729459
0.00728585
0.00728104
0.00727793
0.00727316
0.00726618
0.00725734
0.00031482
0.00213216
0.0036648
0.00466716
0.00539686
0.00593792
0.00633583
0.00663081
0.00684838
0.00700787
0.0071253
0.00721244
0.00727676
0.00732228
0.0073525
0.00737053
0.00738086
0.00738717
0.00739283
0.00739837
0.0074019
0.00740169
0.00739715
0.000303285
0.00200173
0.00343757
0.0044149
0.00514644
0.00570894
0.00614155
0.00647123
0.00672115
0.0069105
0.00705522
0.00716726
0.00725488
0.00732359
0.00737636
0.00741525
0.00744345
0.00746452
0.00748114
0.00749485
0.00750488
0.00750967
0.00750812
0.000290071
0.00183295
0.00314134
0.0040655
0.0048013
0.00539625
0.00587236
0.00624718
0.00654028
0.00676949
0.00694982
0.00709308
0.00720812
0.00730132
0.0073759
0.0074339
0.00747838
0.00751297
0.00754061
0.00756296
0.00757979
0.00758986
0.00759186
0.00027379
0.00154257
0.00276075
0.00364561
0.00438334
0.00501669
0.00554266
0.00597061
0.00631482
0.00659067
0.0068121
0.00699071
0.00713575
0.00725404
0.00734968
0.00742574
0.00748579
0.00753363
0.00757234
0.0076037
0.00762794
0.00764416
0.00765106
0.000256467
0.00125145
0.00232559
0.00318579
0.00392634
0.00459134
0.00516982
0.00565479
0.00605428
0.00638032
0.00664562
0.00686162
0.00703788
0.00718175
0.00729857
0.00739272
0.00746856
0.00753012
0.0075806
0.00762192
0.00765466
0.00767833
0.00769188
0.000237853
0.00102406
0.00194191
0.00273401
0.00346426
0.00415431
0.00477721
0.00531708
0.00577112
0.0061472
0.00645639
0.00670986
0.00691746
0.00708729
0.00722587
0.00733881
0.00743118
0.00750734
0.00757062
0.00762312
0.00766572
0.00769834
0.00772018
0.000218197
0.000869035
0.00165091
0.00237341
0.00306583
0.0037468
0.00439368
0.00497965
0.00548205
0.00590369
0.00625382
0.00654287
0.0067808
0.00697642
0.0071372
0.00726964
0.00737938
0.00747106
0.00754816
0.00761299
0.00766671
0.00770956
0.00774098
0.000198346
0.000777243
0.00145801
0.00211782
0.00276955
0.00342724
0.00407202
0.00467298
0.0052069
0.00566452
0.00605012
0.00637096
0.00663682
0.0068571
0.00703989
0.00719211
0.00731973
0.00742757
0.00751925
0.00759723
0.00766292
0.00771682
0.00775861
0.000179871
0.000734499
0.00134994
0.00196082
0.00257629
0.00320602
0.00383427
0.00443242
0.0049762
0.00545315
0.00586129
0.00620606
0.00649554
0.00673825
0.00694213
0.00711372
0.00725915
0.00738329
0.00748981
0.00758129
0.0076593
0.00772453
0.00777687
0.000164389
0.00072611
0.00130609
0.0018843
0.00247208
0.00307551
0.00368105
0.00426433
0.00480311
0.00528417
0.00570341
0.00606324
0.0063699
0.00663064
0.00685253
0.00704191
0.0072043
0.00734429
0.0074654
0.00757018
0.0076603
0.00773658
0.00779909
0.000152497
0.000738547
0.00130644
0.00186734
0.00243669
0.00301827
0.00360036
0.0041631
0.00468797
0.00516307
0.00558377
0.00595084
0.0062686
0.00654288
0.00677962
0.00698437
0.00716197
0.0073165
0.00745119
0.00756845
0.00766991
0.00775646
0.00782825
0.000143658
0.000760719
0.00133462
0.00189093
0.00244976
0.00301444
0.00357526
0.00411662
0.00462401
0.00508788
0.00550413
0.00587286
0.00619684
0.00648064
0.00672901
0.0069465
0.00713717
0.00730449
0.00745129
0.00757972
0.00769131
0.00778695
0.00786688
0.000136952
0.000784769
0.00137782
0.00193911
0.00249368
0.00304621
0.00358948
0.00411162
0.00460186
0.00505315
0.0054624
0.00582962
0.00615677
0.00644694
0.00670409
0.00693175
0.00713319
0.00731125
0.00746829
0.00760621
0.00772637
0.00782962
0.00791626
0.000131628
0.000806263
0.00142645
0.00199961
0.00255509
0.00310018
0.00363038
0.00413709
0.00461276
0.00505264
0.00545479
0.00581934
0.00614781
0.00644239
0.006706
0.00694147
0.00715136
0.00733792
0.00750312
0.00764855
0.00777543
0.00788455
0.00797627
0.000127229
0.000824217
0.0014751
0.00206499
0.00262595
0.00316819
0.00368992
0.00418545
0.00465
0.00508085
0.00547706
0.00583904
0.00616799
0.0064656
0.00673379
0.00697494
0.00719099
0.00738375
0.00755483
0.00770561
0.00783717
0.00795028
0.00804534
0.000123555
0.000841132
0.0015232
0.00213317
0.0027035
0.00324681
0.00376399
0.00425208
0.00470882
0.00513316
0.005525
0.00588493
0.00621398
0.00651343
0.00678468
0.00702952
0.0072495
0.00744611
0.00762073
0.00777459
0.0079087
0.00802383
0.00812044
0.000120555
0.000860381
0.00157305
0.0022054
0.00278811
0.00333514
0.00385039
0.00433382
0.0047854
0.00520536
0.00559415
0.00595251
0.00628132
0.00658156
0.00685431
0.00710088
0.00732258
0.00752072
0.00769654
0.00785123
0.00798577
0.00810099
0.00819744
0.000118169
0.000882128
0.00162597
0.00228203
0.00287879
0.00343121
0.00394631
0.00442719
0.00487562
0.00529275
0.00567942
0.00603641
0.00636448
0.00666442
0.0069371
0.00718347
0.00740474
0.00760215
0.00777694
0.0079303
0.00806329
0.00817681
0.00827153
0.000116147
0.000898187
0.00167823
0.00235987
0.00297135
0.0035304
0.00404716
0.00452741
0.00497434
0.00538979
0.0057749
0.00613047
0.00645719
0.00675571
0.00702673
0.00727108
0.00748991
0.00768451
0.0078562
0.0080063
0.008136
0.0082463
0.00833799
0.000114456
0.000909983
0.00172626
0.00243343
0.00305988
0.00362684
0.00414724
0.00462872
0.00507558
0.00549028
0.00587422
0.00622826
0.00655303
0.00684907
0.00711703
0.00735766
0.00757224
0.00776221
0.00792907
0.00807432
0.00819932
0.00830522
0.00839294
0.000113314
0.000926062
0.00176955
0.00249832
0.00313924
0.00371526
0.00424097
0.00472525
0.00517331
0.00558812
0.00597133
0.00632386
0.00664625
0.00693897
0.00720263
0.00743814
0.00764698
0.00783085
0.00799155
0.0081308
0.00825016
0.00835092
0.0084341
0.000112735
0.000941431
0.00180563
0.00255201
0.00320622
0.00379166
0.00432373
0.00481207
0.00526249
0.00567836
0.00606149
0.00641274
0.00673256
0.00702135
0.00727979
0.00750909
0.00771109
0.00788789
0.00804163
0.00817427
0.00828755
0.00838288
0.00846136
0.000112687
0.000953744
0.00183312
0.00259329
0.00325901
0.00385357
0.00439259
0.00488603
0.00534002
0.00575806
0.00614194
0.00649239
0.00680968
0.00709418
0.00734677
0.00756918
0.00776378
0.00793316
0.00807977
0.00820581
0.0083131
0.00840313
0.00847706
0.000113128
0.000963265
0.00185221
0.00262217
0.00329729
0.00390035
0.00444672
0.00494626
0.00540504
0.00582647
0.00621208
0.00656232
0.00687729
0.00715739
0.00740391
0.00761933
0.00780672
0.00796912
0.00810922
0.00822926
0.00833109
0.00841623
0.00848589
0.000113975
0.000970468
0.00186356
0.00263938
0.00332187
0.00393293
0.00448711
0.00499376
0.00545856
0.00588455
0.00627287
0.00662359
0.00693663
0.0072126
0.00745355
0.00766283
0.00784427
0.00800116
0.0081361
0.00825119
0.00834826
0.00842889
0.00849447
0.000115085
0.000975281
0.00186711
0.00264503
0.00333346
0.00395263
0.00451549
0.0050304
0.00550242
0.00593408
0.00632602
0.00667797
0.00698992
0.00726301
0.00750021
0.00770575
0.007884
0.00803791
0.0081695
0.00828065
0.0083733
0.00844936
0.00851056
0.000116382
0.000978428
0.0018612
0.00263673
0.00333092
0.00395983
0.00453322
0.00505792
0.00553833
0.00597657
0.00637296
0.00672723
0.00703995
0.00731339
0.00755135
0.00775812
0.00793776
0.00809174
0.0082213
0.00832849
0.00841596
0.00848637
0.00854207
0.000119175
0.000992696
0.00184781
0.00260978
0.0033105
0.00395336
0.00454073
0.00507727
0.00556716
0.00601265
0.00641427
0.00677251
0.00708979
0.00737069
0.00761942
0.0078365
0.00802345
0.00817927
0.00830558
0.00840624
0.00848568
0.00854786
0.00859597
0.000139882
0.00111729
0.00190931
0.00258101
0.00327228
0.00393272
0.00453846
0.00508896
0.00558897
0.00604185
0.00644925
0.00681373
0.00714184
0.00744405
0.00772608
0.00796898
0.00816735
0.00832078
0.00843673
0.00852401
0.00858989
0.00863973
0.0086773
0.000231463
0.00177284
0.00268283
0.00271823
0.00324794
0.00390575
0.0045296
0.00509413
0.00560346
0.00606282
0.00647578
0.00684816
0.00719417
0.00754115
0.00791651
0.00820643
0.0084051
0.00853649
0.00862538
0.00868748
0.00873205
0.00876459
0.00878851
0.000416789
0.00352848
0.00582151
0.00345749
0.00331698
0.00389356
0.00452205
0.00509539
0.00561056
0.00607388
0.00649045
0.00686904
0.00723311
0.0076497
0.00833889
0.00864575
0.0087733
0.00883558
0.0088714
0.00889442
0.00891021
0.00892143
0.00892952
0.000221682
0.000204877
0.000206599
0.000226047
0.0017702
0.00166667
0.0016501
0.0017339
0.00328176
0.00318416
0.00316429
0.00323364
0.00439345
0.00432294
0.00429585
0.00432026
0.00520085
0.00513783
0.00509948
0.00509751
0.00579332
0.00573943
0.00570695
0.00570331
0.00625484
0.00621746
0.00619458
0.00618705
0.00659494
0.0065746
0.00656141
0.00655466
0.00686045
0.00684931
0.00684097
0.00683508
0.0070753
0.00706816
0.00706119
0.00705457
0.00725002
0.0072445
0.00723765
0.00722946
0.00739128
0.00738595
0.00737843
0.00736851
0.00750295
0.00749752
0.00748921
0.00747768
0.00758766
0.0075824
0.00757392
0.0075619
0.0076494
0.00764558
0.00763837
0.00762739
0.00769439
0.00769312
0.00768837
0.00767974
0.00772817
0.00773032
0.00772895
0.00772368
0.00775538
0.00776157
0.00776421
0.00776295
0.00777995
0.00779049
0.00779747
0.00780054
0.00780526
0.00782022
0.00783158
0.00783901
0.00783428
0.00785355
0.00786913
0.00788075
0.00786969
0.00789297
0.00791245
0.00792791
0.00791374
0.0079405
0.00796335
0.00798212
0.00796753
0.0079971
0.00802268
0.0080441
0.00803083
0.00806249
0.00809006
0.00811343
0.008102
0.00813497
0.0081638
0.00818841
0.00817802
0.00821154
0.00824091
0.00826606
0.00825481
0.00828818
0.00831742
0.00834248
0.00832771
0.00836032
0.00838886
0.00841332
0.0083922
0.00842357
0.00845097
0.00847442
0.00844462
0.00847443
0.00850042
0.00852262
0.00848296
0.00851105
0.0085355
0.00855635
0.00850735
0.0085337
0.00855662
0.00857613
0.00852027
0.00854498
0.00856645
0.00858471
0.00852649
0.00854965
0.00856975
0.00858685
0.00853249
0.00855412
0.00857286
0.0085888
0.00854574
0.00856566
0.00858289
0.0085975
0.00857368
0.00859148
0.00860681
0.00861977
0.00862281
0.00863781
0.00865067
0.0086615
0.00869786
0.00870925
0.00871896
0.0087271
0.00880135
0.00880841
0.00881438
0.00881938
0.0089338
0.00893613
0.0089381
0.00893973
0.00112515
0.0023536
0.00320651
0.00368203
0.00390665
0.00397597
0.00395725
0.00389414
0.00379947
0.00368427
0.00355509
0.00340438
0.00322683
0.00302288
0.00278083
0.00245511
0.00196199
0.0011881
0.000169144
0.00237806
0.00324889
0.00389616
0.00428997
0.0044862
0.00455143
0.00454013
0.00448242
0.0043868
0.0042584
0.00410259
0.00392173
0.00371231
0.00346372
0.00315853
0.0027542
0.00217338
0.00129658
0.000174912
0.00353355
0.00407712
0.00453441
0.00483503
0.00499102
0.00504876
0.00504573
0.00499034
0.00488657
0.00473866
0.00455507
0.00434186
0.0040969
0.0038051
0.00344813
0.00298153
0.00232948
0.00136338
0.000174256
0.00445396
0.00477752
0.0050876
0.00530645
0.00542749
0.00547869
0.00548556
0.00543187
0.00531336
0.00514121
0.00492618
0.00468037
0.00440188
0.00407201
0.00366961
0.00315154
0.00244128
0.00136685
0.000175235
0.00515677
0.00535028
0.00555006
0.00569826
0.00578492
0.00582225
0.00581683
0.00574595
0.00560253
0.00540262
0.00516501
0.00489641
0.00459345
0.00424153
0.00381757
0.00327408
0.00251183
0.00141059
0.000179143
0.00573287
0.00584008
0.00595876
0.00605067
0.0060982
0.00609767
0.00604246
0.00592386
0.00574859
0.00553285
0.00528929
0.00500911
0.00468124
0.00430448
0.00385917
0.00329498
0.00251506
0.0014115
0.000177979
0.00619515
0.00624905
0.00631372
0.00636074
0.00636964
0.00632898
0.00622826
0.00606534
0.00585205
0.00560504
0.0053355
0.00503216
0.00467701
0.0042713
0.00380409
0.0032291
0.00246438
0.00141447
0.000176917
0.00655418
0.006578
0.00660636
0.00661523
0.00658436
0.00650157
0.00635807
0.00615374
0.00590229
0.00561962
0.00531613
0.0049821
0.00460144
0.00417098
0.00368299
0.0031016
0.00236126
0.00136635
0.000179597
0.00682946
0.00683095
0.00682734
0.00679897
0.00672962
0.0066074
0.00642782
0.00619116
0.00590746
0.0055925
0.00525516
0.0048867
0.00447575
0.00401615
0.00350601
0.0029284
0.00222483
0.00129243
0.000176379
0.00704303
0.00702431
0.00699166
0.00693015
0.00682675
0.006672
0.00646265
0.00619922
0.00588987
0.00554708
0.00517659
0.00477171
0.00432298
0.00382762
0.00329056
0.0027112
0.00204782
0.00118852
0.000160702
0.00721205
0.0071759
0.00711936
0.00703066
0.00689908
0.00671883
0.00648683
0.00620346
0.00587468
0.00550821
0.00510623
0.00466336
0.00417262
0.00363348
0.00305578
0.00245021
0.00178979
0.000998704
0.000140382
0.0073461
0.00729645
0.00722169
0.00711231
0.0069611
0.00676351
0.00651687
0.00622116
0.00587949
0.00549472
0.00506613
0.00458898
0.00405839
0.00347601
0.00285369
0.00220933
0.00154075
0.000816589
0.000127079
0.00745138
0.00739255
0.00730596
0.00718439
0.00702208
0.0068153
0.00656176
0.00626069
0.00591261
0.00551725
0.00507199
0.00457252
0.00401616
0.00340754
0.00275908
0.00208955
0.00141213
0.000732405
0.000125457
0.00753428
0.0074714
0.00737963
0.00725317
0.00708723
0.0068785
0.00662486
0.00632482
0.00597726
0.00558038
0.0051311
0.00462615
0.00406538
0.00345493
0.00280629
0.00213262
0.00144497
0.000749689
0.000131098
0.00760123
0.00753916
0.00744783
0.0073225
0.00715903
0.00695439
0.00670642
0.00641324
0.00607291
0.0056831
0.00524102
0.00474463
0.00419495
0.00359753
0.00296019
0.00228746
0.00157791
0.000826658
0.000138109
0.00765746
0.00760027
0.00751391
0.00739439
0.00723807
0.00704209
0.00680425
0.00652247
0.00619454
0.00581805
0.00539055
0.00491046
0.00437831
0.00379681
0.00316783
0.00248691
0.00173987
0.000911876
0.000144252
0.00770711
0.00765781
0.00757967
0.00746924
0.00732325
0.00713898
0.00691418
0.00664669
0.00633423
0.00597437
0.00556469
0.00510322
0.00458881
0.00402034
0.00339363
0.00269642
0.00190569
0.00100143
0.000149595
0.00775329
0.00771377
0.00764584
0.00754642
0.00741254
0.0072416
0.0070313
0.00677942
0.00648358
0.00614121
0.00574955
0.00530566
0.00480626
0.0042465
0.00361702
0.00290006
0.00206795
0.00109702
0.000154406
0.00779836
0.00776951
0.00771266
0.00762504
0.00750391
0.00734674
0.00715121
0.00691496
0.00663545
0.00630979
0.00593458
0.00550569
0.00501765
0.0044623
0.00382613
0.00308728
0.00221597
0.00118689
0.000158771
0.00784437
0.00782623
0.00778046
0.00770454
0.00759592
0.00745211
0.00727071
0.00704922
0.00678481
0.00647414
0.00611302
0.00569599
0.00521557
0.00466075
0.00401447
0.00325041
0.00233892
0.00125552
0.000163075
0.00789325
0.00788518
0.00784982
0.00778487
0.00768787
0.00755639
0.00738792
0.00717973
0.00692867
0.00663084
0.00628112
0.00587275
0.00539645
0.00483877
0.00418018
0.00339306
0.00244303
0.00130489
0.000166674
0.00794681
0.00794764
0.00792152
0.00786631
0.00777965
0.00765908
0.00750195
0.0073053
0.00706558
0.00677832
0.00643766
0.00603565
0.00556139
0.00499953
0.00432854
0.00351887
0.00253344
0.00134565
0.000169483
0.00800648
0.00801485
0.00799656
0.00794962
0.00787174
0.00776044
0.00761294
0.007426
0.00719569
0.00691699
0.00658327
0.00618557
0.00571166
0.00514467
0.00446142
0.00363071
0.00261342
0.00138116
0.000171565
0.00807284
0.00808726
0.00807528
0.00803504
0.00796434
0.00786066
0.00772107
0.00754208
0.00731938
0.0070474
0.00671883
0.00632381
0.00584898
0.00527622
0.004581
0.00373071
0.00268462
0.0014125
0.00017268
0.0081454
0.00816433
0.00815712
0.00812206
0.00805698
0.00795935
0.00782609
0.00765348
0.00743682
0.00717006
0.00684522
0.00645165
0.00597505
0.00539618
0.00468935
0.00382079
0.00274848
0.00144095
0.000172837
0.00822243
0.00824436
0.00824049
0.00820918
0.00814834
0.00805539
0.00792714
0.0077596
0.00754776
0.00728508
0.006963
0.00657013
0.00609132
0.00550635
0.00478849
0.00390292
0.00280672
0.00146795
0.000172547
0.00830103
0.00832458
0.00832276
0.008294
0.00823626
0.00814691
0.00802264
0.00785925
0.00765139
0.00739211
0.00707229
0.00667987
0.00619891
0.00560828
0.00488026
0.00397905
0.00286102
0.00149409
0.000172205
0.0083774
0.0084014
0.00840057
0.00837343
0.00831794
0.00823144
0.00811051
0.00795074
0.00774648
0.00749038
0.00717282
0.00678113
0.00629859
0.00570321
0.00496627
0.00405094
0.00291273
0.00151949
0.000172103
0.00844736
0.00847089
0.00847029
0.00844413
0.00839037
0.00830633
0.00818847
0.00803219
0.00783158
0.0075789
0.00726408
0.00687386
0.00639081
0.00579205
0.00504781
0.00412002
0.00296295
0.00154407
0.000172647
0.00850701
0.00852943
0.00852859
0.00850307
0.00845086
0.00836921
0.00825448
0.00810193
0.00790537
0.00765675
0.00734554
0.00695794
0.00647581
0.00587539
0.00512576
0.00418732
0.0030125
0.00156784
0.000173909
0.00855339
0.00857439
0.00857312
0.00854819
0.00849758
0.00841852
0.00830728
0.00815895
0.00796713
0.00772345
0.00741697
0.00703338
0.00655384
0.00595367
0.00520067
0.0042535
0.00306217
0.00159182
0.00017549
0.00858518
0.00860469
0.00860304
0.00857885
0.00853012
0.00845404
0.00834681
0.00820338
0.00801714
0.00777941
0.00747889
0.00710072
0.00662542
0.00602735
0.00527296
0.00431892
0.0031126
0.0016172
0.000177203
0.00860308
0.00862122
0.00861939
0.00859624
0.00854979
0.0084772
0.00837462
0.00823685
0.00805707
0.00782631
0.00753287
0.00716141
0.00669175
0.0060973
0.00534311
0.00438381
0.00316391
0.00164401
0.000179122
0.00860992
0.00862691
0.00862517
0.00860342
0.00855971
0.0084912
0.00839396
0.00826267
0.00809024
0.00786738
0.00758197
0.00721813
0.00675502
0.00616509
0.00541201
0.00444839
0.0032159
0.00167213
0.000181236
0.00861046
0.00862648
0.00862509
0.00860509
0.00856461
0.00850081
0.0084097
0.00828577
0.00812162
0.00790753
0.00763083
0.00727506
0.00681869
0.00623328
0.0054813
0.00451331
0.00326831
0.0017012
0.000183422
0.0086108
0.0086259
0.00862502
0.00860711
0.00857036
0.008512
0.00842794
0.00831244
0.00815766
0.00795325
0.00768575
0.0073379
0.00688746
0.00630564
0.00555365
0.00458011
0.00332161
0.00173085
0.000185712
0.00861768
0.0086317
0.00863137
0.00861581
0.00858335
0.00853126
0.00845541
0.00834977
0.0082059
0.00801243
0.00775459
0.00741382
0.00696724
0.00638634
0.00563176
0.00465028
0.0033762
0.00176055
0.000188434
0.00863766
0.00865021
0.00865033
0.00863734
0.00860975
0.00856496
0.00849883
0.00840507
0.00827448
0.00809414
0.00784691
0.00751157
0.00706431
0.00647897
0.00571727
0.00472435
0.00343207
0.0017904
0.000191505
0.00867639
0.00868692
0.00868731
0.00867708
0.00865498
0.00861865
0.00856413
0.00848508
0.00837155
0.00820854
0.0079747
0.00764263
0.00718493
0.00658509
0.00580914
0.00480045
0.00348753
0.00181943
0.000194782
0.00873826
0.00874617
0.00874662
0.0087393
0.00872326
0.00869657
0.00865582
0.00859513
0.00850448
0.00836689
0.00815435
0.00782479
0.00733433
0.00670192
0.00590183
0.00487308
0.00353844
0.00184534
0.000198065
0.0088262
0.00883104
0.00883136
0.00882702
0.00881743
0.00880131
0.00877632
0.00873805
0.0086782
0.00858029
0.00840989
0.00809422
0.00751132
0.00681764
0.00598341
0.00493277
0.00357842
0.00186477
0.000201065
0.00894196
0.00894353
0.00894363
0.00894222
0.0089391
0.00893385
0.00892564
0.0089128
0.00889182
0.00885407
0.00877321
0.00854696
0.00768345
0.00690214
0.00603467
0.00496753
0.00360057
0.00187456
0.00020314
)
;

boundaryField
{
    leftWall
    {
        type            nutkWallFunction;
        Cmu             0.09;
        kappa           0.41;
        E               9.8;
        value           nonuniform List<scalar> 
50
(
5.68608e-06
8.62865e-06
1.0527e-05
1.20074e-05
1.32493e-05
1.435e-05
1.53681e-05
1.637e-05
1.76814e-05
1.94756e-05
2.13204e-05
2.34173e-05
2.84923e-05
3.15241e-05
3.39466e-05
3.7427e-05
4.01645e-05
4.04876e-05
3.77413e-05
3.60936e-05
3.43467e-05
3.2291e-05
3.00286e-05
2.76212e-05
2.50259e-05
2.22873e-05
1.95377e-05
1.69882e-05
1.48331e-05
1.31386e-05
1.18422e-05
1.08348e-05
1.00218e-05
9.34168e-06
8.76702e-06
8.46533e-06
8.12834e-06
7.65895e-06
7.29389e-06
7.10501e-06
7.00926e-06
7.00461e-06
7.08523e-06
7.2358e-06
7.42989e-06
7.64204e-06
7.96637e-06
1.01348e-05
2.2352e-05
4.91143e-05
)
;
    }
    rightWall
    {
        type            nutkWallFunction;
        Cmu             0.09;
        kappa           0.41;
        E               9.8;
        value           nonuniform List<scalar> 
50
(
8.90249e-06
1.18498e-05
1.35586e-05
1.48798e-05
1.59869e-05
1.69753e-05
1.79237e-05
1.88096e-05
1.96141e-05
2.0312e-05
2.0374e-05
2.15752e-05
1.7537e-05
1.76827e-05
1.82344e-05
1.85552e-05
1.80965e-05
1.50533e-05
1.1656e-05
9.78399e-06
9.51949e-06
1.03344e-05
1.09864e-05
1.20335e-05
1.29734e-05
1.36505e-05
1.42675e-05
1.48732e-05
1.54009e-05
1.58149e-05
1.60804e-05
1.60882e-05
1.61145e-05
1.6085e-05
1.60272e-05
1.60023e-05
1.61536e-05
1.63396e-05
1.65624e-05
1.6807e-05
1.70818e-05
1.73444e-05
1.75743e-05
1.79117e-05
1.83199e-05
1.87851e-05
1.92845e-05
1.97855e-05
2.02413e-05
2.05534e-05
)
;
    }
    lowerWall
    {
        type            nutkWallFunction;
        Cmu             0.09;
        kappa           0.41;
        E               9.8;
        value           nonuniform List<scalar> 
62
(
2.53729e-06
4.42687e-06
5.52644e-06
6.28766e-06
6.8578e-06
7.29839e-06
7.64449e-06
7.92052e-06
8.14527e-06
8.33455e-06
8.49382e-06
8.62523e-06
8.72865e-06
8.80113e-06
8.83558e-06
8.80803e-06
8.66336e-06
8.43478e-06
8.123e-06
7.67256e-06
6.96652e-06
5.84486e-06
3.8781e-06
3.8781e-06
1.18038e-05
1.33702e-05
1.44103e-05
1.52198e-05
1.60794e-05
1.76147e-05
2.12814e-05
2.50919e-05
2.35778e-05
2.39031e-05
2.59204e-05
4.07008e-06
1.29407e-05
1.4462e-05
1.61176e-05
1.78566e-05
1.97268e-05
2.21747e-05
2.62758e-05
4.07008e-06
6.48451e-06
7.5248e-06
7.95846e-06
8.10537e-06
8.03795e-06
7.83416e-06
7.57395e-06
7.07345e-06
6.52532e-06
6.54775e-06
6.36605e-06
5.9853e-06
5.8576e-06
5.9623e-06
6.0491e-06
5.83381e-06
5.11101e-06
3.75561e-06
)
;
    }
    atmosphere
    {
        type            calculated;
        value           nonuniform List<scalar> 
46
(
0.009
0.009
0.009
0.00345749
0.00331698
0.00389356
0.00452205
0.00509539
0.00561056
0.00607388
0.00649045
0.00686904
0.00723311
0.0076497
0.009
0.009
0.009
0.009
0.009
0.009
0.009
0.009
0.009
0.009
0.009
0.009
0.009
0.009
0.009
0.009
0.009
0.009
0.009
0.009
0.009
0.009
0.009
0.009
0.009
0.00768345
0.00690214
0.00603467
0.00496753
0.00360057
0.00187456
0.00020314
)
;
    }
    defaultFaces
    {
        type            empty;
    }
}


// ************************************************************************* //
