/*--------------------------------*- C++ -*----------------------------------*\
| =========                 |                                                 |
| \\      /  F ield         | OpenFOAM: The Open Source CFD Toolbox           |
|  \\    /   O peration     | Version:  2.3.0                                 |
|   \\  /    A nd           | Web:      www.OpenFOAM.org                      |
|    \\/     M anipulation  |                                                 |
\*---------------------------------------------------------------------------*/
FoamFile
{
    version     2.0;
    format      ascii;
    class       volScalarField;
    location    "2.9";
    object      p;
}
// * * * * * * * * * * * * * * * * * * * * * * * * * * * * * * * * * * * * * //

dimensions      [1 -1 -2 0 0 0 0];

internalField   nonuniform List<scalar> 
2268
(
829.209
828.294
825.76
821.573
816.034
809.392
801.934
793.842
785.33
776.596
767.838
759.24
750.964
743.139
735.842
729.088
722.816
717.606
713.758
711.444
710.361
710.744
712.377
770.384
769.411
766.984
762.861
757.378
750.783
743.278
735.114
726.509
717.673
708.81
700.104
691.725
683.809
676.46
669.795
664.197
659.468
655.756
653.012
651.673
652.195
654.065
711.806
710.758
708.42
704.341
698.878
692.253
684.686
676.421
667.686
658.704
649.688
640.835
632.33
624.329
616.973
610.513
605.523
601.238
597.677
595.079
593.658
593.618
595.392
653.562
652.487
650.183
646.104
640.611
633.909
626.226
617.806
608.892
599.719
590.513
581.49
572.851
564.78
557.45
551.128
546.309
542.419
539.125
536.544
535.052
534.851
536.325
595.679
594.599
592.297
588.181
582.606
575.77
567.912
559.284
550.141
540.734
531.305
522.083
513.294
505.143
497.823
491.564
486.706
482.933
479.884
477.468
476.07
475.94
477.122
538.177
537.1
534.783
530.601
524.888
517.859
509.765
500.872
491.446
481.753
472.057
462.598
453.624
445.361
438.012
431.789
426.921
423.173
420.26
418.111
417.033
417.069
417.878
481.072
480.005
477.661
473.378
467.473
460.188
451.796
442.575
432.808
422.779
412.77
403.034
393.837
385.425
378.01
371.808
366.957
363.282
360.518
358.611
357.855
358.159
358.528
424.374
423.306
420.887
416.448
410.282
402.683
393.938
384.344
374.2
363.81
353.476
343.455
334.021
325.437
317.932
311.745
306.918
303.34
300.685
298.914
298.273
298.517
298.577
687.963
690.014
691.796
692.469
692.365
692.227
692.684
693.542
694.241
695.651
699.152
701.886
703.881
704.572
705.758
709.709
715.223
718.517
718.177
631.613
631.812
632.816
633.267
633.288
633.468
634.323
635.801
638.902
641.231
642.484
644.383
646.911
647.591
647.567
650.28
655.183
658.783
659.346
575.13
573.73
573.893
573.991
574.038
574.516
575.931
578.039
582.121
585.505
585.347
586.822
589.248
589.622
589.086
591.001
595.309
598.69
600.077
518.722
516.921
515.645
515.176
515.153
515.767
517.571
520.221
523.97
527.431
527.575
529.042
531.641
532.267
530.636
532.163
535.961
538.691
540.624
462.166
460.148
457.533
456.55
456.463
457.173
459.087
462.325
465.749
470.704
471.746
474.719
476.431
477.207
474.752
474.278
477.076
478.911
481.228
405.22
402.279
399.063
397.864
397.782
398.44
400.339
404.722
410.169
415.961
418.227
420.884
422.833
423.211
420.738
418.118
418.7
419.538
422.042
346.741
343.099
340.124
339.082
339.124
339.468
341.271
347.144
354.842
361.05
362.963
365.599
368.961
369.12
366.743
363.132
360.775
360.684
363.134
287.032
283.176
280.962
280.362
280.791
280.62
282.007
288.96
297.822
304.281
306.13
308.741
313.653
314.76
312.57
307.413
303.075
302.41
304.566
336.336
335.251
332.587
327.761
321.046
312.849
303.501
293.304
282.558
271.603
260.765
250.28
240.427
231.508
223.756
217.54
212.834
209.383
206.868
205.187
204.424
203.78
202.787
218.552
217.478
214.345
208.626
200.8
191.524
181.185
170.025
158.238
146.2
134.411
123.238
113.194
104.628
97.2568
91.914
88.5172
86.5677
85.4657
84.6974
84.1271
83.3493
82.449
104.497
104.153
101.122
95.0768
87.221
78.8151
70.1438
61.3427
52.65
44.3861
36.9799
30.5615
25.3409
21.2473
18.3299
16.3484
15.1399
14.7132
14.9917
15.5041
15.5535
14.9775
14.1854
26.5404
26.4863
24.5903
21.8177
18.5579
15.1497
11.7794
8.80944
6.47672
4.7609
3.49893
2.51012
1.92138
1.8321
1.90607
1.82892
1.57292
1.39407
1.56165
2.17216
2.54938
2.49693
2.19911
1.53614
1.04149
1.09633
2.12938
2.89795
3.14314
3.00863
2.89824
2.80201
2.54502
1.97125
1.42269
1.24744
1.21067
1.19001
1.08117
0.910612
0.786248
0.860546
1.12839
1.30889
1.2273
1.01313
0.532584
0.10699
0.154268
0.646961
1.13262
1.092
0.72247
0.502557
0.425077
0.343177
0.264553
0.373029
0.540009
0.530382
0.461792
0.365293
0.255983
0.120432
0.050343
0.0343429
-0.0867124
-0.251725
-0.261096
-0.515714
-0.761636
-0.777839
-0.696655
-0.461582
-0.605812
-0.910151
-1.02917
-1.0364
-0.977949
-0.799263
-0.490362
-0.350173
-0.411286
-0.52658
-0.553599
-0.575696
-0.683837
-0.829517
-0.943657
-1.0294
-1.08459
-1.11238
-1.12878
-1.17937
-1.16501
-1.21123
-1.24417
-1.31949
-1.35463
-1.36065
-1.34392
-1.31477
-1.26897
-1.19379
-1.14876
-1.18164
-1.21205
-1.21727
-1.23483
-1.24993
-1.29755
-1.31963
-1.30086
-1.28853
-1.29968
-1.38385
-1.38943
-1.35179
-1.3709
-1.3986
-1.44048
-1.48356
-1.50142
-1.49665
-1.48588
-1.48362
-1.49971
-1.49274
-1.4725
-1.4673
-1.47769
-1.48313
-1.47006
-1.45268
-1.44811
-1.4447
-1.43945
-1.44246
-1.62254
-1.62979
-1.60828
-1.61992
-1.64131
-1.66234
-1.66527
-1.6568
-1.64363
-1.63079
-1.62252
-1.61964
-1.6119
-1.60419
-1.60285
-1.60784
-1.60525
-1.59473
-1.58582
-1.58311
-1.58029
-1.57724
-1.57849
-1.81758
-1.86184
-1.87531
-1.86851
-1.8721
-1.87595
-1.84864
-1.81587
-1.79296
-1.7788
-1.77345
-1.7749
-1.76892
-1.75735
-1.75042
-1.74744
-1.74148
-1.73269
-1.72521
-1.72052
-1.71604
-1.71361
-1.71413
-1.99814
-2.0471
-2.07136
-2.06375
-2.04979
-2.02276
-1.9959
-1.97165
-1.95119
-1.93769
-1.93231
-1.92756
-1.91979
-1.90944
-1.89925
-1.88701
-1.87794
-1.87046
-1.86402
-1.85812
-1.85295
-1.84973
-1.84923
-2.15467
-2.18869
-2.19994
-2.18839
-2.16734
-2.14659
-2.12643
-2.11235
-2.10041
-2.08836
-2.07578
-2.0619
-2.05304
-2.04529
-2.03351
-2.02102
-2.01174
-2.00488
-1.99963
-1.99462
-1.98976
-1.98561
-1.98357
-2.28666
-2.30924
-2.30884
-2.2989
-2.28343
-2.26675
-2.25035
-2.23619
-2.22371
-2.21203
-2.20071
-2.18987
-2.18047
-2.17137
-2.16136
-2.15143
-2.14311
-2.13652
-2.13157
-2.12772
-2.12376
-2.11977
-2.11679
-2.40671
-2.42363
-2.41841
-2.41031
-2.39825
-2.38481
-2.3713
-2.3588
-2.34726
-2.33638
-2.32599
-2.31608
-2.30692
-2.29805
-2.28907
-2.28049
-2.27307
-2.26691
-2.26195
-2.2579
-2.25445
-2.2513
-2.24858
-2.52136
-2.53251
-2.52919
-2.52213
-2.51238
-2.5015
-2.49039
-2.4797
-2.46949
-2.45969
-2.45028
-2.44123
-2.43266
-2.42441
-2.41635
-2.40878
-2.40209
-2.39639
-2.39163
-2.38766
-2.38429
-2.38143
-2.37914
-2.63372
-2.63926
-2.63809
-2.63313
-2.62573
-2.61715
-2.60821
-2.5993
-2.59056
-2.582
-2.57366
-2.56557
-2.5578
-2.55031
-2.54311
-2.53638
-2.53036
-2.52511
-2.52063
-2.51685
-2.51365
-2.511
-2.50889
-2.74625
-2.74682
-2.74662
-2.74379
-2.7387
-2.7323
-2.72534
-2.71816
-2.7109
-2.70363
-2.69641
-2.68931
-2.68241
-2.67572
-2.66933
-2.66335
-2.65793
-2.65313
-2.64896
-2.6454
-2.64237
-2.63988
-2.63787
-2.86045
-2.85761
-2.85692
-2.85537
-2.85214
-2.84766
-2.84246
-2.83684
-2.83096
-2.82491
-2.81878
-2.81264
-2.80659
-2.8007
-2.79505
-2.78974
-2.78487
-2.7805
-2.77665
-2.77331
-2.77045
-2.76807
-2.76614
-2.97638
-2.97201
-2.97015
-2.96894
-2.96689
-2.96387
-2.9601
-2.9558
-2.95112
-2.94615
-2.941
-2.93575
-2.9305
-2.92534
-2.92036
-2.91565
-2.91128
-2.90731
-2.90376
-2.90064
-2.89794
-2.89568
-2.89381
-3.09352
-3.08895
-3.08623
-3.08486
-3.0834
-3.08132
-3.0786
-3.07533
-3.07162
-3.06756
-3.06325
-3.05878
-3.05425
-3.04976
-3.04538
-3.04119
-3.03728
-3.03368
-3.03042
-3.02753
-3.02499
-3.02284
-3.02104
-3.21157
-3.20744
-3.20445
-3.20286
-3.20162
-3.20009
-3.19807
-3.19555
-3.19259
-3.18926
-3.18566
-3.18186
-3.17797
-3.17405
-3.1702
-3.1665
-3.16299
-3.15974
-3.15676
-3.15408
-3.15172
-3.14969
-3.14797
-3.33047
-3.32697
-3.32412
-3.32243
-3.32126
-3.32002
-3.31844
-3.31644
-3.31405
-3.31131
-3.30828
-3.30506
-3.3017
-3.2983
-3.29493
-3.29165
-3.28852
-3.28559
-3.28288
-3.28043
-3.27823
-3.27634
-3.27472
-3.45021
-3.44731
-3.44475
-3.44308
-3.44195
-3.44088
-3.43958
-3.43795
-3.43598
-3.4337
-3.43115
-3.4284
-3.42551
-3.42256
-3.41962
-3.41672
-3.41394
-3.41131
-3.40886
-3.40662
-3.40461
-3.40286
-3.40135
-3.57068
-3.56826
-3.56599
-3.56442
-3.56337
-3.56244
-3.56135
-3.55999
-3.55834
-3.55641
-3.55425
-3.5519
-3.54941
-3.54686
-3.54429
-3.54175
-3.53928
-3.53694
-3.53474
-3.53271
-3.53087
-3.52927
-3.52787
-3.69175
-3.68967
-3.68765
-3.68621
-3.68531
-3.68457
-3.68365
-3.68249
-3.68108
-3.67943
-3.67757
-3.67555
-3.67341
-3.6712
-3.66896
-3.66673
-3.66457
-3.66249
-3.66053
-3.6587
-3.65704
-3.65558
-3.6543
-3.8133
-3.8115
-3.80962
-3.80831
-3.80769
-3.80722
-3.80644
-3.8054
-3.80415
-3.80271
-3.8011
-3.79935
-3.7975
-3.79558
-3.79364
-3.7917
-3.7898
-3.78797
-3.78623
-3.7846
-3.78311
-3.78179
-3.78063
-3.93632
-3.93462
-3.93297
-3.93173
-3.93105
-3.93057
-3.92974
-3.92872
-3.92755
-3.92625
-3.92482
-3.92329
-3.92168
-3.92001
-3.91832
-3.91664
-3.91498
-3.91338
-3.91184
-3.9104
-3.90907
-3.90789
-3.90684
-4.0611
-4.05936
-4.05792
-4.05675
-4.05568
-4.05457
-4.05347
-4.05236
-4.05121
-4.05
-4.0487
-4.04735
-4.04593
-4.04448
-4.04302
-4.04156
-4.04012
-4.03872
-4.03738
-4.03611
-4.03494
-4.03389
-4.03295
-4.18578
-4.18454
-4.18319
-4.1819
-4.18041
-4.17875
-4.1774
-4.17621
-4.17506
-4.17391
-4.17272
-4.17151
-4.17026
-4.169
-4.16772
-4.16646
-4.16521
-4.164
-4.16283
-4.16173
-4.1607
-4.15978
-4.15895
-4.30927
-4.30853
-4.30739
-4.30596
-4.30429
-4.30268
-4.30133
-4.30013
-4.29902
-4.29793
-4.29684
-4.29575
-4.29465
-4.29354
-4.29244
-4.29134
-4.29027
-4.28922
-4.28822
-4.28726
-4.28637
-4.28557
-4.28484
-4.4323
-4.43149
-4.43042
-4.42915
-4.42777
-4.42642
-4.4252
-4.42409
-4.42304
-4.42203
-4.42104
-4.42006
-4.41908
-4.41812
-4.41716
-4.41622
-4.41529
-4.4144
-4.41354
-4.41273
-4.41196
-4.41126
-4.41064
-4.55539
-4.55454
-4.55351
-4.55241
-4.55128
-4.55015
-4.54908
-4.54808
-4.54713
-4.54621
-4.54531
-4.54443
-4.54356
-4.54272
-4.54189
-4.54108
-4.5403
-4.53954
-4.53882
-4.53812
-4.53747
-4.53688
-4.53635
-4.67862
-4.67777
-4.6768
-4.67583
-4.67488
-4.67393
-4.67302
-4.67213
-4.67128
-4.67045
-4.66964
-4.66885
-4.66808
-4.66734
-4.66662
-4.66593
-4.66528
-4.66465
-4.66405
-4.66347
-4.66293
-4.66244
-4.66199
-4.80199
-4.80116
-4.80026
-4.79942
-4.79861
-4.79782
-4.79703
-4.79626
-4.7955
-4.79475
-4.79402
-4.79331
-4.79262
-4.79197
-4.79135
-4.79078
-4.79024
-4.78974
-4.78925
-4.78879
-4.78835
-4.78795
-4.78758
-4.92548
-4.92469
-4.92387
-4.92314
-4.92247
-4.92181
-4.92114
-4.92046
-4.91979
-4.91912
-4.91846
-4.91781
-4.91719
-4.9166
-4.91607
-4.91561
-4.91519
-4.91481
-4.91444
-4.91409
-4.91374
-4.91343
-4.91313
-5.04907
-5.04832
-5.04759
-5.04699
-5.04645
-5.0459
-5.04533
-5.04475
-5.04415
-5.04354
-5.04293
-5.04233
-5.04175
-5.04122
-5.04076
-5.04041
-5.04013
-5.03988
-5.03963
-5.03938
-5.03913
-5.03889
-5.03866
-5.17271
-5.17199
-5.17135
-5.17092
-5.17052
-5.17008
-5.16961
-5.1691
-5.16857
-5.16801
-5.16745
-5.16687
-5.16632
-5.16581
-5.16542
-5.16519
-5.16506
-5.16495
-5.16483
-5.16468
-5.16451
-5.16434
-5.16418
-5.29639
-5.29562
-5.29508
-5.2949
-5.29467
-5.29435
-5.29396
-5.29352
-5.29304
-5.29253
-5.29199
-5.29142
-5.29087
-5.29033
-5.28997
-5.28992
-5.29
-5.29007
-5.29006
-5.29001
-5.28991
-5.28981
-5.28969
-5.42012
-5.41928
-5.41879
-5.41905
-5.419
-5.41874
-5.4184
-5.41801
-5.41757
-5.41708
-5.41653
-5.41592
-5.41529
-5.41458
-5.41412
-5.41443
-5.41497
-5.41526
-5.41537
-5.41538
-5.41534
-5.41528
-5.4152
-5.54386
-5.54315
-5.54321
-5.54399
-5.54377
-5.54336
-5.54298
-5.54259
-5.54215
-5.54164
-5.54103
-5.54029
-5.53943
-5.53846
-5.53739
-5.53832
-5.53992
-5.54059
-5.54077
-5.54082
-5.5408
-5.54076
-5.5407
-5.66694
-5.66833
-5.66912
-5.66932
-5.6685
-5.66785
-5.66744
-5.66712
-5.66678
-5.66637
-5.66587
-5.66523
-5.66436
-5.66335
-5.66198
-5.66245
-5.66514
-5.66603
-5.66625
-5.66631
-5.66633
-5.66632
-5.6663
195.812
194.288
193.274
192.423
79.6934
78.5971
77.8577
77.0665
13.1466
12.5276
11.9926
11.5451
1.77565
1.50219
1.32541
1.25995
0.753931
0.661484
0.607355
0.585207
-0.234007
-0.205965
-0.148514
-0.140128
-1.07556
-1.02859
-0.974174
-0.936244
-1.31906
-1.32736
-1.32719
-1.33292
-1.44691
-1.45166
-1.45664
-1.45763
-1.58153
-1.58425
-1.58678
-1.58874
-1.71654
-1.71881
-1.72088
-1.72247
-1.8505
-1.852
-1.85363
-1.85471
-1.98375
-1.9845
-1.98542
-1.98596
-2.11614
-2.11624
-2.11659
-2.11691
-2.24754
-2.24723
-2.2471
-2.24701
-2.37803
-2.37744
-2.37694
-2.37649
-2.5077
-2.50691
-2.50613
-2.50543
-2.63659
-2.63566
-2.63469
-2.63383
-2.76479
-2.76376
-2.76269
-2.76175
-2.89242
-2.89135
-2.89023
-2.88928
-3.01965
-3.01856
-3.01744
-3.0165
-3.14661
-3.14554
-3.14443
-3.14352
-3.27341
-3.27237
-3.27129
-3.2704
-3.4001
-3.39909
-3.39804
-3.39717
-3.52669
-3.52573
-3.52471
-3.52386
-3.6532
-3.65228
-3.6513
-3.65047
-3.7796
-3.77873
-3.77779
-3.777
-3.9059
-3.90509
-3.90419
-3.90343
-4.03209
-4.03133
-4.03049
-4.02977
-4.15817
-4.15747
-4.15669
-4.15601
-4.28415
-4.28351
-4.28278
-4.28216
-4.41002
-4.40944
-4.40878
-4.40822
-4.53581
-4.53529
-4.5347
-4.53419
-4.66152
-4.66107
-4.66054
-4.6601
-4.78718
-4.78678
-4.78633
-4.78594
-4.9128
-4.91246
-4.91208
-4.91175
-5.03839
-5.03811
-5.03779
-5.03752
-5.16397
-5.16374
-5.16348
-5.16326
-5.28953
-5.28936
-5.28916
-5.28899
-5.41509
-5.41497
-5.41482
-5.41469
-5.54063
-5.54054
-5.54045
-5.54037
-5.66627
-5.66624
-5.6662
-5.66617
192.776
189.491
188.005
188.446
190.537
193.123
194.603
198.326
206.089
212.3
215.035
218.41
222.902
224.612
222.992
218.343
213.92
212.138
213.317
75.4997
72.565
71.5222
72.7973
78.22
87.5575
94.4151
97.1996
100.346
103.175
105.065
106.336
107.394
107.489
105.475
101.961
98.8111
97.8634
99.5996
10.8845
10.1324
10.0648
10.731
13.5708
20.058
26.2274
28.6945
28.8516
28.8553
28.8114
28.3455
27.6487
26.788
25.1787
23.0561
21.5699
22.3677
24.1511
1.26441
1.38884
1.40791
1.36531
1.16275
0.726937
0.36209
0.143236
-0.139505
-0.446635
-0.628071
-0.690652
-0.769505
-0.841035
-0.851693
-0.819432
-0.742451
-0.321926
-0.357778
0.566695
0.507379
0.452968
0.385517
0.299947
0.181268
0.0683237
-0.130631
-0.375232
-0.581564
-0.711481
-0.7779
-0.836288
-0.886146
-0.910757
-0.919628
-0.916233
-0.910398
-0.907182
-0.147492
-0.265135
-0.347494
-0.41801
-0.502577
-0.61434
-0.69594
-0.803194
-0.890584
-0.95812
-0.999842
-1.0189
-1.02657
-1.03443
-1.04331
-1.04991
-1.04732
-1.04299
-1.03596
-0.938466
-1.00737
-1.05415
-1.09054
-1.13996
-1.19128
-1.21774
-1.2188
-1.21627
-1.20505
-1.19599
-1.19827
-1.19434
-1.18463
-1.18561
-1.18643
-1.18182
-1.17864
-1.17344
-1.33853
-1.33065
-1.32949
-1.33151
-1.33007
-1.32733
-1.33243
-1.33791
-1.33877
-1.33465
-1.32982
-1.32954
-1.3312
-1.33134
-1.32963
-1.32291
-1.31742
-1.31494
-1.31628
-1.45727
-1.45536
-1.45519
-1.45598
-1.45752
-1.45959
-1.46391
-1.46739
-1.46727
-1.46297
-1.4585
-1.45768
-1.45995
-1.46086
-1.4586
-1.45468
-1.45249
-1.45409
-1.45942
-1.59025
-1.59093
-1.59062
-1.59187
-1.59445
-1.59714
-1.59997
-1.60079
-1.59783
-1.59217
-1.58855
-1.58856
-1.59049
-1.59179
-1.59116
-1.5903
-1.59158
-1.59574
-1.59906
-1.7242
-1.72389
-1.72353
-1.72506
-1.72792
-1.73051
-1.73228
-1.73209
-1.72921
-1.72636
-1.72496
-1.72629
-1.7289
-1.73122
-1.73021
-1.72864
-1.72854
-1.72877
-1.72957
-1.85535
-1.85374
-1.85338
-1.85453
-1.85672
-1.85875
-1.86018
-1.86091
-1.86176
-1.86412
-1.86595
-1.86694
-1.86763
-1.86726
-1.86454
-1.86017
-1.85694
-1.85673
-1.85879
-1.98579
-1.98446
-1.98392
-1.98434
-1.98583
-1.98766
-1.98925
-1.99064
-1.99287
-1.99606
-1.9989
-1.99988
-1.99907
-1.99592
-1.99297
-1.99004
-1.98826
-1.98889
-1.99114
-2.1169
-2.11592
-2.11507
-2.11482
-2.11546
-2.11681
-2.11848
-2.11997
-2.12139
-2.12286
-2.12439
-2.12515
-2.12463
-2.12318
-2.12237
-2.12236
-2.12233
-2.1231
-2.12426
-2.24682
-2.2463
-2.2458
-2.2454
-2.24533
-2.24573
-2.24662
-2.24767
-2.24865
-2.24969
-2.25068
-2.2512
-2.25108
-2.25065
-2.25089
-2.25212
-2.25304
-2.25359
-2.25379
-2.37583
-2.37526
-2.3751
-2.37483
-2.37444
-2.37424
-2.37463
-2.37526
-2.37597
-2.37674
-2.3775
-2.37799
-2.37817
-2.37828
-2.37881
-2.3798
-2.38068
-2.38121
-2.38065
-2.50448
-2.50366
-2.50319
-2.50289
-2.5025
-2.5023
-2.50248
-2.50289
-2.5034
-2.50398
-2.50459
-2.50511
-2.50552
-2.50594
-2.50662
-2.5076
-2.50853
-2.50931
-2.50851
-2.63272
-2.63176
-2.6311
-2.63062
-2.63025
-2.63007
-2.63016
-2.63046
-2.63086
-2.63132
-2.63183
-2.63236
-2.63291
-2.63352
-2.63433
-2.63535
-2.63639
-2.63752
-2.6368
-2.76058
-2.75955
-2.7588
-2.75824
-2.75784
-2.75765
-2.75767
-2.75789
-2.75824
-2.75867
-2.75915
-2.75968
-2.76028
-2.761
-2.76187
-2.7629
-2.76394
-2.76513
-2.76437
-2.88811
-2.88707
-2.88629
-2.88569
-2.88528
-2.88507
-2.88506
-2.88522
-2.88552
-2.88594
-2.88642
-2.88697
-2.88758
-2.88832
-2.88919
-2.89019
-2.89116
-2.89196
-2.89134
-3.01538
-3.01438
-3.01359
-3.01299
-3.01258
-3.01236
-3.01233
-3.01245
-3.01272
-3.01311
-3.01359
-3.01413
-3.01475
-3.01548
-3.01631
-3.01721
-3.01805
-3.01848
-3.01785
-3.14245
-3.1415
-3.14074
-3.14016
-3.13976
-3.13955
-3.1395
-3.13961
-3.13985
-3.1402
-3.14065
-3.14118
-3.14178
-3.14246
-3.1432
-3.14399
-3.14468
-3.14486
-3.14419
-3.26938
-3.26848
-3.26775
-3.2672
-3.26682
-3.26662
-3.26657
-3.26667
-3.26689
-3.26721
-3.26763
-3.26811
-3.26865
-3.26925
-3.26987
-3.2705
-3.27102
-3.27098
-3.27046
-3.39619
-3.39534
-3.39466
-3.39413
-3.39378
-3.39359
-3.39355
-3.39363
-3.39383
-3.39412
-3.39449
-3.39491
-3.39537
-3.39584
-3.3963
-3.39671
-3.39693
-3.3965
-3.39573
-3.52292
-3.52212
-3.52147
-3.52097
-3.52064
-3.52046
-3.52042
-3.52049
-3.52066
-3.52092
-3.52123
-3.52158
-3.52193
-3.52226
-3.52251
-3.52263
-3.52244
-3.52148
-3.52002
-3.64956
-3.6488
-3.64819
-3.64772
-3.6474
-3.64723
-3.64718
-3.64724
-3.64738
-3.64759
-3.64785
-3.64812
-3.64836
-3.64853
-3.64857
-3.64839
-3.64776
-3.64636
-3.64454
-3.77612
-3.77541
-3.77483
-3.77438
-3.77407
-3.7739
-3.77384
-3.77388
-3.77399
-3.77416
-3.77436
-3.77454
-3.77468
-3.77471
-3.77455
-3.77409
-3.77308
-3.77133
-3.76934
-3.9026
-3.90193
-3.90139
-3.90096
-3.90066
-3.90048
-3.90041
-3.90043
-3.90051
-3.90064
-3.90077
-3.90089
-3.90093
-3.90084
-3.90052
-3.89984
-3.89854
-3.89654
-3.89429
-4.02899
-4.02837
-4.02786
-4.02745
-4.02716
-4.02698
-4.0269
-4.02689
-4.02695
-4.02703
-4.02712
-4.02718
-4.02715
-4.02698
-4.02656
-4.02575
-4.02431
-4.02221
-4.01986
-4.15528
-4.15472
-4.15425
-4.15386
-4.15358
-4.1534
-4.15331
-4.15329
-4.15331
-4.15337
-4.15342
-4.15344
-4.15337
-4.15314
-4.15268
-4.15185
-4.15041
-4.14835
-4.14619
-4.28149
-4.28098
-4.28055
-4.2802
-4.27993
-4.27975
-4.27965
-4.27961
-4.27962
-4.27965
-4.27968
-4.27967
-4.27958
-4.27934
-4.27889
-4.27809
-4.27675
-4.27476
-4.27268
-4.40761
-4.40716
-4.40678
-4.40645
-4.4062
-4.40603
-4.40593
-4.40589
-4.40588
-4.4059
-4.40592
-4.4059
-4.4058
-4.40557
-4.40515
-4.40443
-4.40322
-4.40132
-4.39925
-4.53366
-4.53327
-4.53292
-4.53263
-4.5324
-4.53225
-4.53215
-4.5321
-4.5321
-4.53211
-4.53212
-4.5321
-4.53201
-4.5318
-4.53143
-4.53081
-4.52973
-4.52798
-4.526
-4.65963
-4.6593
-4.659
-4.65874
-4.65854
-4.6584
-4.65831
-4.65827
-4.65827
-4.65829
-4.6583
-4.65829
-4.65821
-4.65802
-4.65769
-4.65715
-4.65621
-4.65457
-4.6528
-4.78555
-4.78526
-4.78501
-4.78478
-4.78461
-4.78449
-4.78442
-4.78439
-4.78439
-4.78442
-4.78445
-4.78445
-4.78438
-4.78421
-4.7839
-4.78339
-4.78249
-4.78087
-4.77912
-4.91141
-4.91118
-4.91096
-4.91077
-4.91062
-4.91052
-4.91047
-4.91045
-4.91047
-4.91052
-4.91057
-4.91059
-4.91053
-4.91036
-4.91006
-4.90955
-4.90864
-4.90701
-4.90518
-5.03724
-5.03705
-5.03687
-5.03671
-5.03659
-5.03651
-5.03647
-5.03647
-5.0365
-5.03657
-5.03665
-5.0367
-5.03667
-5.03649
-5.03618
-5.03568
-5.03478
-5.03322
-5.0315
-5.16304
-5.16288
-5.16274
-5.16261
-5.16251
-5.16244
-5.16242
-5.16243
-5.16249
-5.16258
-5.1627
-5.1628
-5.1628
-5.16261
-5.16229
-5.1618
-5.16096
-5.15954
-5.15798
-5.28881
-5.28869
-5.28857
-5.28846
-5.28838
-5.28833
-5.28831
-5.28834
-5.28841
-5.28853
-5.2887
-5.28891
-5.28897
-5.28873
-5.28839
-5.28793
-5.2872
-5.28596
-5.28459
-5.41456
-5.41445
-5.41436
-5.41428
-5.41421
-5.41417
-5.41415
-5.41418
-5.41425
-5.41439
-5.41466
-5.41512
-5.41538
-5.41496
-5.41451
-5.41409
-5.4135
-5.41248
-5.41133
-5.54028
-5.5402
-5.54013
-5.54006
-5.54
-5.53997
-5.53995
-5.53996
-5.54001
-5.54016
-5.54059
-5.5417
-5.5423
-5.54137
-5.54068
-5.54026
-5.53985
-5.5391
-5.53822
-5.66614
-5.6661
-5.66606
-5.66602
-5.66599
-5.66597
-5.66595
-5.66595
-5.66598
-5.66612
-5.66666
-5.66846
-5.66849
-5.66727
-5.66658
-5.66636
-5.66637
-5.66599
-5.66528
)
;

boundaryField
{
    leftWall
    {
        type            calculated;
        value           nonuniform List<scalar> 
50
(
829.209
770.384
711.806
653.562
595.679
538.177
481.072
424.374
336.336
218.552
104.497
26.5404
1.53614
0.532584
-0.515714
-1.12878
-1.38385
-1.62254
-1.81758
-1.99814
-2.15467
-2.28666
-2.40671
-2.52136
-2.63372
-2.74625
-2.86045
-2.97638
-3.09352
-3.21157
-3.33047
-3.45021
-3.57068
-3.69175
-3.8133
-3.93632
-4.0611
-4.18578
-4.30927
-4.4323
-4.55539
-4.67862
-4.80199
-4.92548
-5.04907
-5.17271
-5.29639
-5.42012
-5.54386
-5.66694
)
;
    }
    rightWall
    {
        type            calculated;
        value           nonuniform List<scalar> 
50
(
718.177
659.346
600.077
540.624
481.228
422.042
363.134
304.566
213.317
99.5996
24.1511
-0.357778
-0.907182
-1.03596
-1.17344
-1.31628
-1.45942
-1.59906
-1.72957
-1.85879
-1.99114
-2.12426
-2.25379
-2.38065
-2.50851
-2.6368
-2.76437
-2.89134
-3.01785
-3.14419
-3.27046
-3.39573
-3.52002
-3.64454
-3.76934
-3.89429
-4.01986
-4.14619
-4.27268
-4.39925
-4.526
-4.6528
-4.77912
-4.90518
-5.0315
-5.15798
-5.28459
-5.41133
-5.53822
-5.66528
)
;
    }
    lowerWall
    {
        type            calculated;
        value           nonuniform List<scalar> 
62
(
858.638
857.723
855.189
851.003
845.463
838.821
831.363
823.271
814.759
806.025
797.267
788.67
780.393
772.568
765.271
758.517
752.128
746.462
742.686
740.771
739.724
740.087
741.685
712.377
654.065
595.392
536.325
477.122
417.878
358.528
298.577
258.409
256.886
255.871
255.02
687.963
631.613
575.13
518.722
462.166
405.22
346.741
287.032
715.898
718.173
720.531
721.439
721.311
721.163
721.837
722.521
721.788
723.199
727.689
731.144
733.014
733.236
734.422
738.554
744.368
747.431
747.06
)
;
    }
    atmosphere
    {
        type            calculated;
        value           nonuniform List<scalar> 
46
(
-5.72915
-5.7291
-5.72905
-5.72904
-5.72904
-5.72904
-5.72904
-5.72904
-5.72904
-5.72904
-5.72904
-5.72904
-5.72904
-5.72904
-5.72904
-5.72904
-5.72905
-5.72906
-5.72908
-5.7291
-5.72912
-5.72914
-5.72916
-5.72917
-5.72918
-5.72918
-5.72918
-5.72917
-5.72917
-5.72916
-5.72915
-5.72914
-5.72912
-5.72911
-5.72909
-5.72907
-5.72906
-5.72905
-5.72904
-5.72904
-5.72904
-5.72904
-5.72935
-5.73019
-5.73019
-5.72934
)
;
    }
    defaultFaces
    {
        type            empty;
    }
}


// ************************************************************************* //
