/*--------------------------------*- C++ -*----------------------------------*\
| =========                 |                                                 |
| \\      /  F ield         | OpenFOAM: The Open Source CFD Toolbox           |
|  \\    /   O peration     | Version:  2.3.0                                 |
|   \\  /    A nd           | Web:      www.OpenFOAM.org                      |
|    \\/     M anipulation  |                                                 |
\*---------------------------------------------------------------------------*/
FoamFile
{
    version     2.0;
    format      ascii;
    class       volScalarField;
    location    "2.9";
    object      p_rgh;
}
// * * * * * * * * * * * * * * * * * * * * * * * * * * * * * * * * * * * * * //

dimensions      [1 -1 -2 0 0 0 0];

internalField   nonuniform List<scalar> 
2268
(
858.638
857.723
855.189
851.003
845.463
838.821
831.363
823.271
814.759
806.025
797.267
788.67
780.393
772.568
765.271
758.517
752.128
746.462
742.686
740.771
739.724
740.087
741.685
858.672
857.699
855.273
851.149
845.666
839.071
831.565
823.402
814.797
805.961
797.098
788.392
780.012
772.097
764.748
757.936
750.792
746.035
742.323
739.787
739.478
740.263
741.988
858.952
857.906
855.567
851.488
846.024
839.4
831.833
823.567
814.832
805.85
796.834
787.982
779.476
771.475
764.12
757.488
751.109
745.514
741.954
739.357
737.937
740.315
742.411
859.568
858.493
856.189
852.11
846.616
839.914
832.232
823.811
814.896
805.724
796.519
787.495
778.856
770.785
763.456
757.134
752.315
747.392
743.108
741.284
740.885
740.654
742.329
860.544
859.463
857.161
853.045
847.47
840.634
832.776
824.148
815.005
805.598
796.169
786.947
778.158
770.007
762.687
756.428
751.571
747.798
744.748
742.332
740.934
740.804
741.985
861.9
860.823
858.506
854.323
848.612
841.582
833.489
824.595
815.168
805.476
795.78
786.321
777.347
769.084
761.734
755.512
750.644
746.896
743.983
741.834
740.756
740.792
741.6
863.654
862.587
860.243
855.959
850.055
842.77
834.377
825.156
815.389
805.36
795.352
785.616
776.419
768.007
760.592
754.39
749.539
745.864
743.1
741.193
740.437
740.74
741.108
865.814
864.747
862.327
857.888
851.722
844.123
835.378
825.785
815.64
805.251
794.916
784.895
775.462
766.877
759.373
753.185
748.358
744.78
742.125
740.355
739.713
739.957
740.017
715.898
718.173
720.531
721.439
721.311
721.163
721.837
722.521
721.788
723.199
727.689
731.144
733.014
733.236
734.422
738.554
744.368
747.431
747.06
715.876
719.943
720.948
721.398
721.419
721.599
722.453
723.93
723.393
723.872
729.659
732.166
734.699
735.234
735.153
738.086
742.988
746.589
746.877
714.516
719.566
720.779
720.877
720.923
721.401
722.814
724.92
728.619
729.169
731.656
733.136
735.567
735.949
735.422
737.342
741.65
745.031
746.417
713.861
718.13
721.285
720.815
720.559
720.695
722.996
725.848
729.55
730.128
732.374
733.723
730.534
725.891
731.561
736.457
740.84
743.567
745.482
713.059
720.501
721.928
720.946
720.783
720.254
723.205
726.672
727.166
712.437
715.052
712.887
713.926
714.819
713.843
732.297
740.493
742.32
744.44
713.915
724.558
722.213
721.019
720.917
720.116
722.638
725.796
707.156
710.455
712.721
724.039
713.183
713.647
711.238
721.67
740.646
741.478
743.752
727.634
724.973
722.042
721.003
721.006
719.756
719.009
727.352
714.187
709.088
729.046
739.868
712.081
712.296
709.987
718.393
741.249
741.154
743.593
727.892
723.903
721.661
721.073
721.109
713.004
708.812
727.907
735.946
731.113
744.765
747.376
730.311
710.81
708.717
730.69
742.031
741.411
743.534
869.803
868.718
866.054
861.227
854.512
846.316
836.968
826.771
816.024
805.069
794.232
783.747
773.893
764.974
757.222
751.007
746.301
742.851
740.336
738.654
737.891
737.247
736.255
877.207
876.135
873.004
867.286
859.461
850.185
839.846
828.685
816.897
804.857
791.607
774.401
753.337
730.321
707.453
687.912
673.426
664.031
657.99
657.782
667.036
678.112
679.502
878.738
874.613
860.696
842.618
817.594
781.495
734.831
678.678
610.221
531.982
449.272
368.053
299.888
245.564
205.432
179.331
166.113
163.996
170.258
174.614
175.234
169.942
160.449
386.087
399.136
370.22
315.773
250.086
189.104
134.326
84.8904
45.8826
18.5373
6.76146
5.76529
5.18392
5.09461
5.30558
5.49855
5.04984
4.84415
5.12113
7.92808
9.88819
10.9247
11.1957
7.2875
6.27248
6.45407
10.0947
17.2708
21.2339
21.8535
22.1527
22.3713
23.1286
22.5601
14.1772
6.36286
4.92994
5.14812
5.38259
4.83253
4.67398
4.78578
10.3451
14.3817
14.309
14.0859
13.3247
5.80261
7.16828
23.728
24.2112
24.208
23.8698
23.5761
23.0685
21.5043
14.5514
5.68218
5.55403
6.21091
9.63463
9.53813
6.13669
4.50312
5.99843
14.5355
14.5696
12.1161
14.4012
13.4491
3.34353
2.2433
11.0309
19.4864
17.1118
7.57409
4.57248
3.39735
3.02871
3.74202
6.74483
9.6484
9.68418
9.63673
9.60229
9.43293
4.82823
5.19928
6.78642
3.3367
0.201295
0.608188
6.80243
0.93341
0.573621
0.434979
0.308115
0.186412
0.149611
0.143004
0.159891
0.186363
0.574744
5.16813
6.99074
4.54525
2.93686
3.73831
4.06956
2.59781
0.869534
0.0909894
0.109694
0.121958
0.111223
3.71004
0.835276
0.734597
1.40501
2.51583
1.55921
0.172064
0.135644
0.137783
0.139706
0.132767
0.115351
0.0519684
0.0668276
0.0708062
0.0604262
0.0569067
0.103988
0.0832547
0.087707
0.0911136
0.0962221
0.0932644
0.983867
0.963433
2.88604
3.02889
3.00792
2.95695
0.90051
0.113851
0.12516
0.136949
0.143523
0.268885
0.447785
0.367702
0.135846
0.0583818
0.0575298
0.0680535
0.12174
0.138965
0.0815567
0.0833966
0.0821413
0.0238716
0.548213
2.6486
3.13118
2.80304
0.61405
0.129442
0.0902065
0.111814
0.135635
0.40546
0.49726
0.503689
0.513682
0.517072
0.0761816
0.045432
0.0891726
0.152757
0.157242
0.122029
0.07223
0.0716116
-0.0629043
0.12133
0.982766
0.902008
-0.139078
-0.112146
-0.0844675
0.384133
0.659278
0.674838
0.587717
0.0281953
0.109207
0.404907
0.209934
0.0236153
0.0328038
0.0721221
0.145552
0.151579
0.156482
0.0863239
0.0616351
-0.101129
-0.0776495
-0.0505229
-0.0938297
-0.131527
-0.110783
-0.0906266
-0.0765524
-0.0645853
-0.052554
-0.0399782
-0.0260953
-0.0172381
-0.0094873
0.00229667
0.0147836
0.024062
0.0309291
0.0630193
0.141788
0.148476
0.113338
0.0524815
-0.11893
-0.142429
-0.147432
-0.137845
-0.122139
-0.10505
-0.089354
-0.07519
-0.062712
-0.0510294
-0.0397087
-0.028872
-0.0194732
-0.010378
-0.000359008
0.00956971
0.0178895
0.02448
0.0294251
0.0356943
0.0623673
0.0779282
0.0507303
-0.11894
-0.136225
-0.132156
-0.124076
-0.11171
-0.0977196
-0.0850098
-0.072613
-0.0610712
-0.0501855
-0.0398016
-0.0298861
-0.0207242
-0.0118564
-0.00287739
0.00569636
0.0131244
0.0192803
0.0242366
0.0282892
0.0317447
0.0348972
0.0390783
-0.10951
-0.120797
-0.117746
-0.110705
-0.100905
-0.0898684
-0.0788307
-0.068298
-0.0581012
-0.0483043
-0.0388912
-0.0298408
-0.0212783
-0.0130282
-0.00496654
0.00260692
0.00929405
0.0149972
0.0197508
0.0237206
0.0271
0.0300386
0.0327879
-0.0970159
-0.102566
-0.10145
-0.0965196
-0.0891427
-0.0805619
-0.0716045
-0.0627023
-0.0539682
-0.0454164
-0.0370812
-0.0289927
-0.0212203
-0.0137299
-0.00652912
0.000196497
0.00622433
0.0114718
0.0159456
0.0197305
0.0230438
0.0258369
0.0278971
-0.084441
-0.085007
-0.0847867
-0.0819988
-0.0769201
-0.0705232
-0.0635626
-0.0563834
-0.0491222
-0.0418493
-0.0346343
-0.0275389
-0.0206312
-0.0139487
-0.00755303
-0.00157493
0.00384756
0.00864573
0.0128098
0.0163782
0.0194016
0.0219729
0.0240936
-0.0734611
-0.0706254
-0.069912
-0.0683868
-0.0651637
-0.0606858
-0.0554842
-0.0498666
-0.0439873
-0.0379385
-0.0318061
-0.0256739
-0.0196254
-0.0137333
-0.00808017
-0.0027698
0.00209941
0.00646873
0.010319
0.0136631
0.0165229
0.0188965
0.0208306
-0.064199
-0.0598292
-0.05797
-0.056766
-0.0547245
-0.0517
-0.0479308
-0.0436335
-0.0389497
-0.0339835
-0.0288297
-0.0235818
-0.0183351
-0.0131772
-0.00819668
-0.00348294
0.00088501
0.00485427
0.00839972
0.0115197
0.0142187
0.0164822
0.0183557
-0.0561466
-0.051578
-0.04886
-0.0474936
-0.0460354
-0.0439591
-0.0412373
-0.0379689
-0.0342575
-0.0301993
-0.0258896
-0.0214235
-0.016896
-0.0123981
-0.00801707
-0.00383423
8.13259e-05
0.00368035
0.0069341
0.00983176
0.012367
0.0145167
0.0163203
-0.0489201
-0.0448744
-0.0418879
-0.040304
-0.0390651
-0.0375317
-0.0355084
-0.0329902
-0.030032
-0.0267084
-0.0231042
-0.0193088
-0.0154119
-0.0114987
-0.00765134
-0.00394372
-0.000438607
0.00281678
0.00579132
0.00846844
0.0108347
0.0128599
0.014578
-0.0425555
-0.039178
-0.0363653
-0.0346829
-0.0335114
-0.0322677
-0.0306853
-0.0286926
-0.0263008
-0.0235588
-0.0205348
-0.0173067
-0.0139551
-0.0105569
-0.00718444
-0.00390504
-0.000776015
0.00215742
0.00486308
0.00732095
0.00951295
0.0114043
0.0130226
-0.0370908
-0.0341929
-0.0317441
-0.0301326
-0.0290053
-0.0279326
-0.026634
-0.0250083
-0.0230394
-0.020754
-0.0182033
-0.0154522
-0.0125695
-0.00962222
-0.00667325
-0.00378167
-0.000999414
0.00163093
0.00407745
0.0063185
0.00833331
0.010084
0.0115934
-0.0324145
-0.0299738
-0.0278012
-0.0262783
-0.0252316
-0.024304
-0.0232121
-0.0218524
-0.0202017
-0.0182745
-0.0161088
-0.0137566
-0.0112752
-0.00872169
-0.00614951
-0.0036093
-0.00114701
0.0011983
0.00339623
0.00542495
0.00726248
0.00886942
0.0102645
-0.0284002
-0.0263315
-0.0243137
-0.0228781
-0.0219801
-0.0212311
-0.020315
-0.0191535
-0.017742
-0.0160936
-0.014238
-0.012217
-0.0100771
-0.00786568
-0.00562717
-0.00340415
-0.0012359
0.000842839
0.00280419
0.0046273
0.00629013
0.00775299
0.00903158
-0.0247663
-0.0229751
-0.0210944
-0.019781
-0.0191639
-0.0186924
-0.0179091
-0.0168725
-0.015626
-0.0141856
-0.0125743
-0.0108244
-0.00897249
-0.00705614
-0.00511126
-0.00317261
-0.00127256
0.000558966
0.0022974
0.00392371
0.00541674
0.00673749
0.00789943
0.0490566
0.0317357
0.0572914
0.065496
0.0212781
-0.0167994
-0.0160154
-0.0149935
-0.0138288
-0.0125269
-0.0110996
-0.00956745
-0.00795586
-0.00629186
-0.00460349
-0.00291769
-0.00126013
0.000344392
0.00187503
0.00331516
0.00464518
0.00582763
0.00687436
0.0732331
0.0758077
0.0776275
0.0785237
0.0536272
-0.0142783
-0.0145531
-0.0134497
-0.0122995
-0.0110815
-0.00979002
-0.00843144
-0.00701894
-0.00557002
-0.00410448
-0.00264186
-0.00120168
0.000196331
0.00153523
0.0028011
0.00397638
0.00502578
0.00596006
0.0162737
0.075606
0.0804007
0.0585263
0.00782777
-0.0145018
-0.0132938
-0.0121039
-0.0109537
-0.00979635
-0.00861264
-0.0073967
-0.00615168
-0.00488671
-0.00361432
-0.00234785
-0.00110138
0.000110154
0.00127359
0.00237784
0.00340767
0.00433044
0.00515624
-0.0199429
-0.00488228
0.000596947
-0.0126867
-0.0149638
-0.0132694
-0.0120072
-0.0108302
-0.00971327
-0.0086232
-0.0075376
-0.0064453
-0.00534403
-0.0042375
-0.00313295
-0.00203879
-0.000964512
7.92402e-05
0.00108292
0.00203827
0.00293249
0.00373594
0.00445829
-0.0177978
-0.0169838
-0.0159124
-0.0146437
-0.013273
-0.0119222
-0.0106973
-0.00958578
-0.00854138
-0.00753305
-0.00654346
-0.00556256
-0.00458699
-0.00361814
-0.00266011
-0.00171785
-0.000797068
9.55261e-05
0.000953839
0.00177238
0.00254086
0.00323278
0.0038575
-0.0157005
-0.01485
-0.0138179
-0.0127222
-0.0115847
-0.0104546
-0.00938747
-0.00838513
-0.00743274
-0.00651399
-0.0056178
-0.00473804
-0.00387299
-0.00302418
-0.00219471
-0.00138745
-0.000604809
0.000150415
0.000875613
0.00156811
0.00222012
0.00280825
0.00334152
-0.0137364
-0.0128863
-0.011911
-0.0109482
-0.0099943
-0.00904709
-0.00812835
-0.00724401
-0.00639039
-0.00556151
-0.00475308
-0.00396368
-0.00319475
-0.00245
-0.00173376
-0.00104827
-0.000392421
0.000235562
0.000836975
0.0014121
0.00195565
0.00244719
0.00289509
-0.0119117
-0.0110819
-0.0101757
-0.00933412
-0.0085322
-0.00773698
-0.00695029
-0.00617689
-0.0054179
-0.00467309
-0.00394336
-0.00323181
-0.0025439
-0.00188741
-0.00127113
-0.00069841
-0.000163107
0.000343081
0.000826409
0.00129034
0.00173188
0.00213319
0.00250153
-0.0102093
-0.00941864
-0.00859182
-0.007868
-0.00719914
-0.00653357
-0.00586257
-0.00518895
-0.00451554
-0.00384518
-0.00318228
-0.00253387
-0.00191
-0.00132456
-0.000796352
-0.000332923
8.1011e-05
0.000465054
0.000831999
0.00118856
0.00153316
0.00185009
0.00214456
-0.00859932
-0.00785342
-0.00711782
-0.00652167
-0.0059809
-0.00543178
-0.00486318
-0.00427798
-0.00367978
-0.00307271
-0.00246315
-0.00186119
-0.00128168
-0.000747796
-0.000294733
5.59648e-05
0.00033781
0.000592098
0.00084062
0.00109214
0.00134468
0.00158318
0.00180998
-0.00704694
-0.00632278
-0.00568978
-0.00525671
-0.00485642
-0.00441898
-0.00394322
-0.00343694
-0.00290461
-0.00235033
-0.0017807
-0.00120772
-0.000650714
-0.00014401
0.000249316
0.000477453
0.000601347
0.000709943
0.000836007
0.000985502
0.00115249
0.00132027
0.00148691
-0.00552869
-0.00476006
-0.00421889
-0.00404042
-0.00381543
-0.00348818
-0.00309593
-0.00265952
-0.00218406
-0.00167197
-0.00112804
-0.000564974
-9.14646e-06
0.000531367
0.000893432
0.000943764
0.000854402
0.000790949
0.000794606
0.000851235
0.000944277
0.00105263
0.00116885
-0.00406797
-0.00322866
-0.00274012
-0.00299984
-0.0029457
-0.00268197
-0.00234231
-0.00195432
-0.00151541
-0.00102215
-0.000473386
0.000131225
0.000761245
0.00147264
0.00192937
0.00162749
0.00108166
0.000796738
0.000686377
0.000671413
0.000710541
0.000775924
0.000853987
-0.00260807
-0.00189793
-0.00196229
-0.00274417
-0.00252356
-0.00211227
-0.00173204
-0.00134461
-0.00090417
-0.000389086
0.000217138
0.000957009
0.00181569
0.00278652
0.0038539
0.00293187
0.0013289
0.000661003
0.000478522
0.000430377
0.00044539
0.000488047
0.000543853
-0.000499531
-0.00188335
-0.00268116
-0.00287999
-0.00205996
-0.00140357
-0.00100012
-0.000675496
-0.000332301
7.11251e-05
0.000571799
0.00121576
0.00208046
0.00309006
0.00446308
0.00399401
0.00129865
0.000415892
0.000193726
0.000131042
0.000117443
0.000125111
0.000141416
729.279
727.755
726.741
725.89
655.907
643.875
638.745
637.905
145.677
139.969
133.516
126.868
8.46486
4.99579
4.48504
4.64704
9.74886
4.25631
4.04172
4.18004
12.4155
4.71702
3.69731
7.10706
3.67821
3.44055
3.27842
6.90352
0.0946514
0.28917
0.906844
0.964867
0.0894937
0.088381
0.0908106
0.105076
0.0850662
0.151515
0.16795
0.165988
0.0692753
0.0770252
0.144373
0.164579
0.0603576
0.0682618
0.102732
0.111958
0.0522493
0.0514963
0.055211
0.0846689
0.0450588
0.044895
0.0444077
0.0462317
0.040942
0.0393742
0.0390976
0.0391813
0.0342074
0.0341301
0.0344499
0.0348956
0.0289009
0.0296878
0.0305078
0.0311903
0.0252171
0.0261253
0.0270868
0.027943
0.0222012
0.0232643
0.0242992
0.0252158
0.0197438
0.0208151
0.0219297
0.0228852
0.0177125
0.0187949
0.0199139
0.0208551
0.0159437
0.0170138
0.0181175
0.0190331
0.0143388
0.0153813
0.0164604
0.0173499
0.0128459
0.013852
0.0149023
0.0157683
0.0114447
0.0124088
0.0134273
0.0142712
0.0101346
0.0110525
0.0120353
0.0128557
0.00892261
0.00979091
0.0107329
0.0115256
0.00781622
0.0086318
0.00952741
0.0102864
0.00682012
0.00758001
0.0084235
0.00914233
0.0059349
0.00663645
0.00742246
0.00809491
0.00515686
0.0057979
0.00652187
0.00714254
0.00447801
0.00505712
0.00571553
0.00628023
0.00388644
0.00440299
0.00499359
0.00549957
0.00336712
0.00382134
0.00434321
0.00478931
0.00290342
0.00329639
0.00374991
0.00413649
0.00247916
0.00281257
0.00319926
0.00352807
0.00208069
0.00235685
0.00267906
0.00295278
0.00169816
0.00191989
0.00218048
0.00240218
0.00132644
0.00149704
0.00169914
0.00187213
0.000962255
0.00108422
0.0012311
0.00135989
0.000621422
0.000703341
0.000799557
0.00088319
0.000171579
0.000202839
0.000239261
0.000271072
726.242
722.947
721.425
721.754
719.872
682.088
660.388
718.159
735.614
742.377
745.112
748.49
752.979
748.438
746.764
741.925
735.81
742.56
743.568
634.913
606.523
585.555
578.879
592
587.863
512.554
493.844
571.254
601.153
620.5
651.233
685.061
702.842
713.542
707.693
689.006
661.441
638.589
117.901
102.281
97.7618
104.049
147.614
266.344
381.296
420.635
422.166
425.164
427.141
421.594
414.567
403.61
372.701
327.405
292.305
291.644
324.302
4.92279
5.90514
5.99492
5.15161
3.66924
2.7068
1.92353
1.44171
0.949654
0.536498
0.318388
0.239382
0.154399
0.0822698
0.0715078
0.103742
0.180718
6.60185
6.66313
4.49315
6.11629
5.50996
5.34101
5.21881
5.72819
5.64331
4.96971
3.07693
1.96125
1.45888
1.29103
0.58692
0.164961
0.139649
0.13068
0.134075
0.13991
0.143138
8.64917
8.49571
8.30917
8.09434
8.54278
8.48126
8.29703
6.01764
4.08928
2.19945
1.01137
1.094
0.912321
0.246274
0.163743
0.136711
0.129927
0.138493
0.213613
7.19179
4.76122
3.54773
3.04341
2.30485
0.657279
0.0853355
0.0821776
0.084372
0.095571
0.10463
0.102355
0.258537
0.474882
0.473152
0.175507
0.122324
0.129507
0.383417
0.408666
0.156917
0.109671
0.102942
0.100656
0.103635
0.108224
0.149543
0.104085
0.092735
0.0975598
0.0978359
0.250762
0.336541
0.179221
0.108912
0.113855
0.116307
0.392005
0.126978
0.151719
0.110716
0.110014
0.145626
0.17346
0.216045
0.212561
0.145497
0.0912989
0.0956366
0.096468
0.0957829
0.0963838
0.0994586
0.103398
0.138491
0.330996
0.398705
0.164476
0.157033
0.120497
0.125501
0.17478
0.2065
0.216951
0.201721
0.0929779
0.0926754
0.161157
0.23026
0.290374
0.301359
0.250445
0.251666
0.338522
0.335445
0.206215
0.151745
0.0628317
0.0631075
0.0613001
0.0584265
0.0558425
0.0730842
0.0693346
0.0943559
0.238719
0.331851
0.330519
0.327908
0.325357
0.325188
0.257388
0.115956
0.103884
0.103086
0.0767932
0.0665919
0.0683092
0.057756
0.0548906
0.0528372
0.0522459
0.0579574
0.105955
0.202378
0.317415
0.334089
0.310463
0.121672
0.0761614
0.0919679
0.096518
0.107708
0.158269
0.0957191
0.0970402
0.0975854
0.0782398
0.0510108
0.0491998
0.0845425
0.0957759
0.0888175
0.0422403
0.0371783
0.0556777
0.0534133
0.0478226
0.0746926
0.164935
0.166715
0.166079
0.163425
0.0718351
0.0935909
0.0943414
0.0944977
0.0674085
0.0441934
0.0442613
0.0514407
0.0442066
0.038391
0.0368894
0.0361142
0.0365961
0.0379855
0.0464255
0.120828
0.152072
0.131103
0.143454
0.0393759
0.0496638
0.0873913
0.0913516
0.0717101
0.0404746
0.0395765
0.0385332
0.0375692
0.0369624
0.0376324
0.0371203
0.0362935
0.035703
0.0354163
0.0340796
0.0331515
0.0326063
0.0325337
0.0355557
0.0361288
0.0367128
0.0504593
0.0432522
0.0371492
0.0369233
0.0370074
0.0365017
0.0352874
0.0359327
0.0356275
0.0354408
0.0348941
0.0325833
0.0315889
0.0307096
0.0338985
0.0636051
0.0321013
0.0329169
0.0333916
0.0336941
0.0340782
0.0342803
0.0345308
0.0363999
0.0358891
0.0352939
0.0323334
0.0318022
0.0314379
0.0308009
0.0299735
0.028985
0.02805
0.041074
0.114232
0.0290578
0.0300186
0.0306754
0.031151
0.031523
0.0317054
0.0316188
0.032615
0.0337572
0.0332915
0.0326888
0.0296373
0.0288706
0.0282568
0.0274446
0.0264293
0.0253836
0.0381571
0.115387
0.0263933
0.0274202
0.0281732
0.0287301
0.0291238
0.0293228
0.0292947
0.0290738
0.0295591
0.0312741
0.0307788
0.0296626
0.0266871
0.0259767
0.0251106
0.0240768
0.0230238
0.026353
0.117264
0.024055
0.0250887
0.0258782
0.0264709
0.0268785
0.0270932
0.0271078
0.0269456
0.0266401
0.0266103
0.0278695
0.0258865
0.0247572
0.024019
0.0231946
0.0219944
0.0210067
0.0203531
0.11971
0.0219799
0.0229824
0.0237683
0.0243659
0.024773
0.0249931
0.0250305
0.0249035
0.0246358
0.0242498
0.0237701
0.0232306
0.0227444
0.0221949
0.0213659
0.0201899
0.0193104
0.0188734
0.122351
0.020103
0.0210564
0.0218152
0.0223972
0.0227915
0.0230064
0.0230526
0.0229459
0.0227048
0.0223492
0.0219001
0.0213753
0.0207731
0.020356
0.01958
0.0185963
0.017869
0.0176877
0.124767
0.0183705
0.0192708
0.0199925
0.0205482
0.020922
0.0211252
0.0211717
0.0210773
0.0208581
0.0205324
0.0201191
0.019636
0.0190924
0.0184991
0.0178752
0.017248
0.0167309
0.0167683
0.106459
0.0167482
0.0175978
0.0182806
0.0188069
0.0191584
0.019348
0.0193925
0.0193078
0.0191103
0.0188179
0.0184504
0.0180283
0.0175706
0.0170995
0.0166415
0.0162354
0.0160144
0.0164402
0.0317874
0.0152167
0.0160197
0.0166653
0.0171637
0.0174954
0.0176743
0.0177187
0.0176457
0.0174724
0.0172182
0.0169049
0.0165575
0.016204
0.0158785
0.0156228
0.0155016
0.0156923
0.0166532
0.0181173
0.0137684
0.014527
0.0151379
0.0156114
0.015928
0.0161013
0.0161503
0.0160929
0.0159476
0.0157355
0.0154814
0.0152151
0.014973
0.0148012
0.0147591
0.0149431
0.0155672
0.0169753
0.0187915
0.0124024
0.0131167
0.013694
0.0141454
0.0144512
0.014624
0.0146822
0.0146445
0.0145302
0.0143621
0.0141678
0.0139814
0.0138462
0.0138185
0.0139748
0.0144398
0.0154497
0.0171953
0.0191838
0.0111216
0.011789
0.0123325
0.0127631
0.0130607
0.013236
0.0133068
0.013291
0.0132087
0.0130835
0.0129449
0.01283
0.0127868
0.0128788
0.0131946
0.0138782
0.0151773
0.0171824
0.0225933
0.00992876
0.0105461
0.011054
0.0114632
0.0117526
0.0119311
0.0120148
0.0120208
0.0119685
0.011882
0.0117911
0.011734
0.0117605
0.0119365
0.0123544
0.0131624
0.0146011
0.0167071
0.0677006
0.0088255
0.00938935
0.00985936
0.0102448
0.0105241
0.0107038
0.0107981
0.0108227
0.0107959
0.010741
0.010687
0.0106715
0.0107429
0.0109646
0.0114243
0.0122599
0.0136937
0.016049
0.0788836
0.00781123
0.00831909
0.00874853
0.00910696
0.00937244
0.00954946
0.00965006
0.00968802
0.00968017
0.00964806
0.00961932
0.00962919
0.00972289
0.00995847
0.0104132
0.0112086
0.0125554
0.0171967
0.0794222
0.00688258
0.00733308
0.00771966
0.00804771
0.00829516
0.00846458
0.00856585
0.00861072
0.00861409
0.00859558
0.00858068
0.00860192
0.00870049
0.00892752
0.00934785
0.0100645
0.0112816
0.0181648
0.0798593
0.00603319
0.00642635
0.00676865
0.00706348
0.00728895
0.00744589
0.00754207
0.00758715
0.00759399
0.00758016
0.00756906
0.00759074
0.00768278
0.00788944
0.00826241
0.00888633
0.00995833
0.0143994
0.0800791
0.005254
0.00559133
0.00588921
0.00614912
0.00634966
0.00649009
0.0065761
0.0066153
0.0066185
0.00660136
0.00658558
0.00659981
0.00667997
0.00686535
0.00719605
0.00774024
0.00867794
0.010315
0.0573326
0.00453423
0.00481873
0.00507351
0.00529822
0.00547232
0.0055936
0.00566572
0.00569419
0.00568776
0.00566023
0.00563227
0.00563279
0.00569997
0.00587201
0.00618085
0.00669199
0.00759601
0.00921439
0.0109627
0.00386269
0.00409874
0.0043131
0.00450382
0.00465149
0.00475265
0.00480889
0.00482347
0.00480276
0.00475845
0.00471041
0.00468967
0.00474285
0.00491143
0.00521723
0.00572571
0.00664059
0.00897082
0.0102463
0.00322923
0.00342215
0.00359981
0.00375895
0.00388164
0.00396337
0.00400365
0.00400316
0.00396519
0.00389826
0.0038208
0.00376694
0.00380207
0.00397604
0.00428694
0.0047943
0.00569394
0.00746543
0.00902202
0.00262585
0.00278147
0.0029267
0.00305745
0.00315772
0.00322223
0.00324851
0.00323422
0.00317848
0.00308461
0.00296699
0.00286035
0.00286651
0.0030574
0.00337714
0.00386731
0.00470779
0.00612527
0.00769097
0.00204868
0.00217334
0.00229068
0.0023967
0.00247791
0.00252876
0.0025451
0.00252164
0.00245236
0.00233151
0.00215893
0.00195108
0.00189055
0.00213031
0.00247433
0.00292897
0.00366024
0.0049
0.0062736
0.00149859
0.00159889
0.001693
0.00177829
0.00184439
0.00188618
0.00189883
0.00187522
0.0018048
0.00166422
0.00139767
0.000930584
0.000679061
0.00109957
0.00154278
0.00196643
0.00255231
0.00357529
0.00473169
0.000972352
0.00104894
0.00112306
0.00119061
0.00124476
0.00128189
0.00129794
0.00128647
0.00123526
0.00109156
0.000654297
-0.000452493
-0.00105292
-0.00012077
0.000571896
0.00099299
0.00164396
0.00220233
0.00303452
0.000304577
0.000342509
0.000381418
0.000417914
0.000449548
0.000474739
0.00049061
0.000490771
0.000459588
0.000325553
-0.000218062
-0.0020154
-0.00204966
-0.000820727
-0.000135739
0.000392322
0.00120606
0.00159042
0.00145409
)
;

boundaryField
{
    leftWall
    {
        type            fixedFluxPressure;
        gradient        uniform 0;
        value           nonuniform List<scalar> 
50
(
858.638
858.672
858.952
859.568
860.544
861.9
863.654
865.814
869.803
877.207
878.738
386.087
7.2875
13.3247
13.4491
6.80243
3.71004
0.983867
0.0238716
-0.0629043
-0.101129
-0.11893
-0.11894
-0.10951
-0.0970159
-0.084441
-0.0734611
-0.064199
-0.0561466
-0.0489201
-0.0425555
-0.0370908
-0.0324145
-0.0284002
-0.0247663
0.0490566
0.0732331
0.0162737
-0.0199429
-0.0177978
-0.0157005
-0.0137364
-0.0119117
-0.0102093
-0.00859932
-0.00704694
-0.00552869
-0.00406797
-0.00260807
-0.000499531
)
;
    }
    rightWall
    {
        type            fixedFluxPressure;
        gradient        uniform 0;
        value           nonuniform List<scalar> 
50
(
747.06
746.877
746.417
745.482
744.44
743.752
743.593
743.534
743.568
638.589
324.302
6.66313
0.143138
0.213613
0.383417
0.392005
0.398705
0.206215
0.103086
0.158269
0.163425
0.143454
0.0325337
0.0636051
0.114232
0.115387
0.117264
0.11971
0.122351
0.124767
0.106459
0.0317874
0.0181173
0.0187915
0.0191838
0.0225933
0.0677006
0.0788836
0.0794222
0.0798593
0.0800791
0.0573326
0.0109627
0.0102463
0.00902202
0.00769097
0.0062736
0.00473169
0.00303452
0.00145409
)
;
    }
    lowerWall
    {
        type            fixedFluxPressure;
        gradient        uniform 0;
        value           nonuniform List<scalar> 
62
(
858.638
857.723
855.189
851.003
845.463
838.821
831.363
823.271
814.759
806.025
797.267
788.67
780.393
772.568
765.271
758.517
752.128
746.462
742.686
740.771
739.724
740.087
741.685
741.685
741.988
742.411
742.329
741.985
741.6
741.108
740.017
729.279
727.755
726.741
725.89
715.898
715.876
714.516
713.861
713.059
713.915
727.634
727.892
715.898
718.173
720.531
721.439
721.311
721.163
721.837
722.521
721.788
723.199
727.689
731.144
733.014
733.236
734.422
738.554
744.368
747.431
747.06
)
;
    }
    atmosphere
    {
        type            totalPressure;
        rho             rho;
        psi             none;
        gamma           1;
        p0              uniform 0;
        value           nonuniform List<scalar> 
46
(
-0.00011412
-6.11736e-05
-5.44453e-06
0
0
0
0
0
0
0
0
0
0
0
-2.46585e-08
-1.46193e-06
-8.7096e-06
-2.33365e-05
-4.22034e-05
-6.31843e-05
-8.45478e-05
-0.000104869
-0.000122859
-0.000133034
-0.000137476
-0.000139308
-0.000138569
-0.000134326
-0.000126898
-0.000118157
-0.00010778
-9.55716e-05
-8.15487e-05
-6.60246e-05
-4.96519e-05
-3.34218e-05
-1.86661e-05
-6.81541e-06
-9.01567e-08
0
0
0
0
0
0
0
)
;
    }
    defaultFaces
    {
        type            empty;
    }
}


// ************************************************************************* //
