/*--------------------------------*- C++ -*----------------------------------*\
| =========                 |                                                 |
| \\      /  F ield         | OpenFOAM: The Open Source CFD Toolbox           |
|  \\    /   O peration     | Version:  2.3.0                                 |
|   \\  /    A nd           | Web:      www.OpenFOAM.org                      |
|    \\/     M anipulation  |                                                 |
\*---------------------------------------------------------------------------*/
FoamFile
{
    version     2.0;
    format      ascii;
    class       surfaceScalarField;
    location    "2.9";
    object      phi;
}
// * * * * * * * * * * * * * * * * * * * * * * * * * * * * * * * * * * * * * //

dimensions      [0 3 -1 0 0 0 0];

internalField   nonuniform List<scalar> 
4432
(
1.38896e-06
-1.38896e-06
2.26804e-06
-8.79068e-07
2.74536e-06
-4.77323e-07
2.98319e-06
-2.3782e-07
3.08929e-06
-1.06077e-07
3.12534e-06
-3.6053e-08
3.13217e-06
-6.81667e-09
3.13449e-06
-2.32371e-09
3.15148e-06
-1.69864e-08
3.19883e-06
-4.7343e-08
3.28793e-06
-8.9101e-08
3.43038e-06
-1.4245e-07
3.63877e-06
-2.08406e-07
3.93091e-06
-2.92151e-07
4.33013e-06
-3.99231e-07
4.79154e-06
-4.614e-07
4.978e-06
-1.86464e-07
4.90843e-06
6.95706e-08
4.71611e-06
1.92301e-07
4.49516e-06
2.20932e-07
3.91108e-06
5.84085e-07
2.43916e-06
1.47192e-06
2.43915e-06
1.14747e-06
-2.53643e-06
1.82343e-06
-1.55501e-06
2.21975e-06
-8.7363e-07
2.43337e-06
-4.51437e-07
2.5308e-06
-2.03489e-07
2.56234e-06
-6.75897e-08
2.56613e-06
-1.05955e-08
2.57291e-06
-9.10735e-09
2.6038e-06
-4.7868e-08
2.67192e-06
-1.15459e-07
2.78625e-06
-2.03444e-07
2.94805e-06
-3.04265e-07
3.15379e-06
-4.14161e-07
3.39497e-06
-5.33334e-07
3.65216e-06
-6.56413e-07
3.8835e-06
-6.92747e-07
4.02478e-06
-3.27758e-07
4.0517e-06
4.26368e-08
3.96202e-06
2.81972e-07
3.70963e-06
4.73324e-07
3.24425e-06
1.04947e-06
2.35642e-06
2.35976e-06
4.79556e-06
9.52402e-07
-3.48883e-06
1.50174e-06
-2.10433e-06
1.83831e-06
-1.21019e-06
2.02961e-06
-6.42735e-07
2.11849e-06
-2.92359e-07
2.14817e-06
-9.72653e-08
2.15634e-06
-1.87749e-08
2.17335e-06
-2.61297e-08
2.2193e-06
-9.3826e-08
2.30571e-06
-2.01877e-07
2.43654e-06
-3.34281e-07
2.60616e-06
-4.73901e-07
2.80015e-06
-6.08158e-07
2.99589e-06
-7.29074e-07
3.16005e-06
-8.20574e-07
3.25914e-06
-7.91835e-07
3.36054e-06
-4.29155e-07
3.38538e-06
1.78017e-08
3.28739e-06
3.79971e-07
3.0422e-06
7.18533e-07
2.6334e-06
1.45828e-06
1.90999e-06
3.08319e-06
6.70556e-06
7.70042e-07
-4.25886e-06
1.23513e-06
-2.56941e-06
1.53665e-06
-1.51169e-06
1.71625e-06
-8.22327e-07
1.80426e-06
-3.80369e-07
1.83884e-06
-1.3185e-07
1.85697e-06
-3.69146e-08
1.88819e-06
-5.73571e-08
1.95111e-06
-1.56747e-07
2.05469e-06
-3.05454e-07
2.19843e-06
-4.78029e-07
2.37031e-06
-6.45775e-07
2.54807e-06
-7.85914e-07
2.70179e-06
-8.82802e-07
2.7977e-06
-9.16489e-07
2.82144e-06
-8.15574e-07
2.83901e-06
-4.46729e-07
2.82015e-06
3.66719e-08
2.69764e-06
5.02488e-07
2.42722e-06
9.8896e-07
2.03771e-06
1.84779e-06
1.42253e-06
3.69838e-06
8.12811e-06
6.11647e-07
-4.8705e-06
1.02238e-06
-2.98015e-06
1.31118e-06
-1.80048e-06
1.49435e-06
-1.00549e-06
1.59264e-06
-4.78661e-07
1.64115e-06
-1.80367e-07
1.67636e-06
-7.2129e-08
1.72691e-06
-1.07899e-07
1.80923e-06
-2.39061e-07
1.92917e-06
-4.25392e-07
2.08199e-06
-6.30837e-07
2.24986e-06
-8.13646e-07
2.4049e-06
-9.40955e-07
2.51428e-06
-9.92197e-07
2.54906e-06
-9.51275e-07
2.50769e-06
-7.74223e-07
2.44018e-06
-3.79226e-07
2.34211e-06
1.34733e-07
2.16071e-06
6.83888e-07
1.8443e-06
1.30536e-06
1.41542e-06
2.27666e-06
9.01183e-07
4.21262e-06
9.02928e-06
4.88584e-07
-5.35908e-06
8.77297e-07
-3.36887e-06
1.17671e-06
-2.09989e-06
1.38087e-06
-1.20965e-06
1.50254e-06
-6.00332e-07
1.57538e-06
-2.53211e-07
1.63577e-06
-1.32516e-07
1.71097e-06
-1.83093e-07
1.81456e-06
-3.42645e-07
1.94881e-06
-5.59638e-07
2.10485e-06
-7.86877e-07
2.25984e-06
-9.68637e-07
2.38199e-06
-1.06311e-06
2.43818e-06
-1.0484e-06
2.40513e-06
-9.18239e-07
2.28897e-06
-6.58069e-07
2.13386e-06
-2.24127e-07
1.94532e-06
3.23264e-07
1.68385e-06
9.45359e-07
1.3073e-06
1.68189e-06
8.34245e-07
2.74971e-06
3.65081e-07
4.68179e-06
9.39434e-06
4.14403e-07
-5.77348e-06
8.17027e-07
-3.7715e-06
1.15118e-06
-2.43405e-06
1.39415e-06
-1.45262e-06
1.55335e-06
-7.59527e-07
1.66188e-06
-3.61742e-07
1.75598e-06
-2.26603e-07
1.86085e-06
-2.87952e-07
1.98627e-06
-4.68046e-07
2.13053e-06
-7.03894e-07
2.28087e-06
-9.37222e-07
2.4104e-06
-1.09817e-06
2.48522e-06
-1.13795e-06
2.47377e-06
-1.03696e-06
2.35881e-06
-8.0328e-07
2.15412e-06
-4.53375e-07
1.9021e-06
2.78975e-08
1.619e-06
6.06372e-07
1.28058e-06
1.28379e-06
8.57302e-07
2.10517e-06
3.56498e-07
3.25052e-06
-1.46424e-07
5.18471e-06
9.24792e-06
4.01695e-07
-6.17518e-06
8.50644e-07
-4.22044e-06
1.2405e-06
-2.8239e-06
1.53799e-06
-1.7501e-06
1.74777e-06
-9.69302e-07
1.90306e-06
-5.17029e-07
2.03923e-06
-3.62774e-07
2.17808e-06
-4.26804e-07
2.32454e-06
-6.14507e-07
2.47246e-06
-8.51823e-07
2.6056e-06
-1.07037e-06
2.69434e-06
-1.18692e-06
2.70481e-06
-1.14843e-06
2.60903e-06
-9.41187e-07
2.39614e-06
-5.90393e-07
2.08888e-06
-1.46114e-07
1.73213e-06
3.84653e-07
1.35682e-06
9.81676e-07
9.5634e-07
1.68426e-06
5.21645e-07
2.53986e-06
7.45215e-08
3.69763e-06
-3.2915e-07
5.58837e-06
8.91877e-06
-3.33492e-06
3.33492e-06
-1.84199e-06
-1.49293e-06
5.14944e-08
-1.89348e-06
1.49444e-06
-1.44295e-06
2.48766e-06
-9.9322e-07
2.90351e-06
-4.15834e-07
2.83058e-06
7.2911e-08
2.64757e-06
1.83009e-07
6.00223e-07
2.04734e-06
-2.97116e-06
3.57137e-06
-4.16229e-06
1.19111e-06
-5.18693e-06
1.02466e-06
-7.70717e-06
2.52022e-06
-1.09131e-05
3.20595e-06
-1.2422e-05
1.50885e-06
-1.10052e-05
-1.41676e-06
-7.5038e-06
-3.50141e-06
-3.18355e-06
-4.32024e-06
-3.18357e-06
-1.69632e-06
5.03123e-06
-8.03588e-07
-2.38566e-06
2.51763e-08
-2.72224e-06
7.01727e-07
-2.1195e-06
1.17338e-06
-1.4649e-06
1.22678e-06
-4.6921e-07
8.28289e-07
4.71378e-07
1.17624e-07
8.93661e-07
-9.58952e-07
3.1239e-06
-2.61004e-06
5.22248e-06
-3.83326e-06
2.41431e-06
-5.03509e-06
2.22652e-06
-6.99148e-06
4.47662e-06
-9.00409e-06
5.21853e-06
-9.79534e-06
2.30014e-06
-9.06066e-06
-2.15145e-06
-7.08669e-06
-5.4754e-06
-4.03051e-06
-7.3764e-06
-7.21409e-06
-3.06621e-07
5.33785e-06
-3.23522e-07
-2.36876e-06
-1.87064e-07
-2.85869e-06
1.76661e-08
-2.32423e-06
1.54186e-07
-1.60144e-06
-4.0117e-08
-2.74892e-07
-6.04294e-07
1.03555e-06
-1.36147e-06
1.65085e-06
-2.07489e-06
3.83732e-06
-2.6969e-06
5.84451e-06
-3.61931e-06
3.33671e-06
-4.4391e-06
3.04632e-06
-5.50763e-06
5.54516e-06
-6.69641e-06
6.40727e-06
-7.38466e-06
2.98842e-06
-7.12842e-06
-2.40769e-06
-5.90631e-06
-6.69752e-06
-3.77724e-06
-9.50546e-06
-1.09913e-05
4.38195e-07
4.89965e-06
-1.70328e-07
-1.76024e-06
-5.5144e-07
-2.47758e-06
-6.97623e-07
-2.17804e-06
-7.95807e-07
-1.50327e-06
-1.15285e-06
8.21622e-08
-1.80016e-06
1.68286e-06
-2.45829e-06
2.30898e-06
-2.90021e-06
4.27925e-06
-3.12119e-06
6.0655e-06
-3.58781e-06
3.80331e-06
-4.01846e-06
3.47697e-06
-4.39443e-06
5.92115e-06
-4.79808e-06
6.8109e-06
-5.27215e-06
3.46251e-06
-5.1688e-06
-2.51104e-06
-4.35206e-06
-7.51428e-06
-2.91505e-06
-1.09425e-05
-1.39064e-05
6.11516e-07
4.28814e-06
-3.35146e-07
-8.13578e-07
-1.08379e-06
-1.72894e-06
-1.48544e-06
-1.77638e-06
-1.75084e-06
-1.23788e-06
-2.20278e-06
5.34111e-07
-2.89876e-06
2.37884e-06
-3.43944e-06
2.84965e-06
-3.72401e-06
4.56381e-06
-3.59096e-06
5.93246e-06
-3.71691e-06
3.92925e-06
-3.65128e-06
3.41134e-06
-3.5159e-06
5.7858e-06
-3.24808e-06
6.54306e-06
-3.28435e-06
3.49879e-06
-3.21624e-06
-2.57915e-06
-2.66848e-06
-8.06203e-06
-1.81506e-06
-1.17959e-05
-1.57214e-05
3.95236e-07
3.8929e-06
-8.18841e-07
4.00493e-07
-1.77137e-06
-7.76416e-07
-2.34897e-06
-1.19878e-06
-2.72731e-06
-8.59551e-07
-3.22352e-06
1.03032e-06
-3.94809e-06
3.10341e-06
-4.41398e-06
3.31554e-06
-4.44383e-06
4.59365e-06
-4.03557e-06
5.52422e-06
-3.80025e-06
3.69392e-06
-3.42093e-06
3.03201e-06
-2.81668e-06
5.18157e-06
-2.05352e-06
5.77989e-06
-1.56682e-06
3.01209e-06
-1.35954e-06
-2.78641e-06
-1.04463e-06
-8.37694e-06
-6.58006e-07
-1.21825e-05
-1.63794e-05
-2.71484e-07
4.16438e-06
-1.53923e-06
1.66823e-06
-2.56824e-06
2.52598e-07
-3.27157e-06
-4.95443e-07
-3.71787e-06
-4.13244e-07
-4.21727e-06
1.52974e-06
-4.91212e-06
3.79827e-06
-5.29459e-06
3.69802e-06
-5.02193e-06
4.32098e-06
-4.32922e-06
4.83152e-06
-3.84861e-06
3.21332e-06
-3.32563e-06
2.50902e-06
-2.31288e-06
4.16882e-06
-1.15115e-06
4.61815e-06
-2.28061e-07
2.08899e-06
2.6132e-07
-3.27579e-06
3.83968e-07
-8.49959e-06
4.1684e-07
-1.22154e-05
-1.59626e-05
-1.23735e-06
5.40173e-06
-2.33187e-06
2.76275e-06
-3.39666e-06
1.31738e-06
-4.22528e-06
3.33189e-07
-4.72265e-06
8.41161e-08
-5.15858e-06
1.96566e-06
-5.73444e-06
4.37414e-06
-5.92502e-06
3.88861e-06
-5.4367e-06
3.83266e-06
-4.51426e-06
3.90909e-06
-3.86866e-06
2.56773e-06
-3.23632e-06
1.87667e-06
-1.96382e-06
2.89632e-06
-4.89368e-07
3.1437e-06
8.09473e-07
7.9015e-07
1.49995e-06
-3.96627e-06
1.51841e-06
-8.51807e-06
1.26323e-06
-1.19602e-05
-1.46994e-05
9.93827e-07
-7.16901e-06
2.16362e-06
-5.39022e-06
3.22126e-06
-3.88154e-06
4.05663e-06
-2.58547e-06
4.68526e-06
-1.59793e-06
5.18535e-06
-1.01711e-06
5.6277e-06
-8.0513e-07
6.03904e-06
-8.38144e-07
6.41125e-06
-9.86717e-07
6.71215e-06
-1.15273e-06
6.90134e-06
-1.25956e-06
6.90955e-06
-1.19512e-06
6.67276e-06
-9.11628e-07
6.15377e-06
-4.22195e-07
5.34389e-06
2.19504e-07
4.32399e-06
8.73811e-07
3.22109e-06
1.48758e-06
2.14851e-06
2.05427e-06
1.16298e-06
2.6698e-06
3.47888e-07
3.35497e-06
-3.66177e-08
4.08215e-06
6.17147e-07
4.93462e-06
5.80051e-06
3.7354e-06
1.28205e-06
-8.45107e-06
2.75868e-06
-6.86686e-06
4.04255e-06
-5.16542e-06
5.05455e-06
-3.59748e-06
5.84347e-06
-2.38686e-06
6.51535e-06
-1.689e-06
7.11163e-06
-1.40141e-06
7.64826e-06
-1.37478e-06
8.06788e-06
-1.40634e-06
8.30411e-06
-1.38896e-06
8.31082e-06
-1.26626e-06
8.01213e-06
-8.96431e-07
7.39119e-06
-2.90703e-07
6.49053e-06
4.78457e-07
5.27771e-06
1.43232e-06
3.84958e-06
2.30194e-06
2.36328e-06
2.97387e-06
1.01591e-06
3.40163e-06
2.27294e-08
3.66296e-06
-4.74463e-07
3.85215e-06
-3.31662e-07
3.93933e-06
4.16702e-07
4.18625e-06
4.99068e-06
1.22654e-06
1.3446e-06
-9.79565e-06
3.02592e-06
-8.54817e-06
4.35366e-06
-6.49314e-06
5.43108e-06
-4.67489e-06
6.37173e-06
-3.3275e-06
7.2639e-06
-2.58117e-06
8.07456e-06
-2.21207e-06
8.75084e-06
-2.05106e-06
9.25964e-06
-1.91513e-06
9.51935e-06
-1.64865e-06
9.44671e-06
-1.1936e-06
8.91895e-06
-3.68643e-07
7.97267e-06
6.55612e-07
6.70599e-06
1.74519e-06
5.25265e-06
2.88571e-06
3.59755e-06
3.95709e-06
1.6982e-06
4.87327e-06
-1.61093e-07
5.26095e-06
-1.32882e-06
4.8307e-06
-1.32357e-06
3.84692e-06
-4.13378e-07
3.02914e-06
8.47343e-07
2.92556e-06
3.93529e-06
1.90276e-06
3.07073e-06
-1.28664e-05
3.31281e-06
-8.79024e-06
3.66926e-06
-6.8496e-06
4.78775e-06
-5.79337e-06
6.38945e-06
-4.9292e-06
8.03175e-06
-4.22347e-06
9.3269e-06
-3.50719e-06
1.01965e-05
-2.92066e-06
1.07573e-05
-2.4759e-06
1.09915e-05
-1.88285e-06
1.07024e-05
-9.04495e-07
9.36612e-06
9.67612e-07
7.07598e-06
2.94567e-06
5.26513e-06
3.55596e-06
4.54222e-06
3.60857e-06
3.97823e-06
4.52102e-06
1.99364e-06
6.85785e-06
-1.39864e-06
8.65323e-06
-4.49857e-06
7.93062e-06
-3.38073e-06
2.72908e-06
-4.73919e-07
1.22276e-07
2.1912e-06
2.60402e-07
1.34657e-06
4.77993e-06
1.29467e-05
-2.5813e-05
1.76484e-06
2.39158e-06
-3.1545e-06
-1.93028e-06
-1.44278e-06
-7.50514e-06
2.27184e-06
-8.64381e-06
5.38618e-06
-7.33779e-06
6.48747e-06
-4.60844e-06
6.66316e-06
-3.09636e-06
7.09748e-06
-2.91023e-06
8.30093e-06
-3.08627e-06
8.69416e-06
-1.2977e-06
6.48484e-06
3.17696e-06
3.60617e-06
5.82427e-06
2.65043e-06
4.51164e-06
5.59011e-06
6.68918e-07
8.21533e-06
1.89582e-06
5.9315e-06
9.14171e-06
-2.09308e-06
1.66778e-05
-7.42295e-06
1.32605e-05
-3.81178e-06
-8.82178e-07
8.35232e-07
-4.52483e-06
3.90138e-06
-2.80591e-06
-1.59261e-06
6.84039e-06
1.47432e-05
-4.05563e-05
-6.70176e-06
2.38368e-05
-2.02575e-05
1.16255e-05
-1.55264e-05
-1.22362e-05
-7.9715e-06
-1.61986e-05
-1.99088e-06
-1.33183e-05
1.68468e-07
-6.76768e-06
4.81336e-07
-3.40915e-06
5.03034e-08
-2.47912e-06
-1.24023e-06
-1.79565e-06
-4.61225e-06
2.07435e-06
-7.57692e-06
6.14171e-06
-5.09453e-06
3.34189e-06
-1.74773e-06
1.16479e-06
8.79331e-07
-1.9581e-06
3.47436e-06
-6.99095e-07
5.6025e-06
7.01366e-06
3.32927e-06
1.89511e-05
1.83526e-06
1.47545e-05
2.05938e-06
-1.10623e-06
2.08266e-06
-4.54802e-06
-2.39491e-07
-4.83688e-07
2.08043e-07
-2.04016e-06
-1.25454e-06
-3.93018e-05
-7.6877e-06
3.02699e-05
-1.52341e-05
1.91718e-05
-1.50996e-05
-1.23706e-05
-1.08235e-05
-2.04748e-05
-6.39055e-06
-1.77512e-05
-4.45222e-06
-8.706e-06
-4.48229e-06
-3.37903e-06
-7.11632e-06
1.54982e-07
-1.2939e-05
4.02699e-06
-1.83305e-05
7.46581e-06
-1.53518e-05
3.163e-06
-1.04284e-05
-1.58149e-06
-6.36295e-06
-2.90076e-06
-4.57981e-06
-3.74124e-06
-2.41764e-06
-2.86122e-06
1.2453e-06
3.35077e-06
5.51609e-06
1.46803e-05
7.02287e-06
1.32477e-05
5.94958e-06
-3.29618e-08
2.9527e-06
-1.55116e-06
-3.07219e-06
5.54119e-06
6.12988e-06
-8.994e-06
-1.45463e-05
-2.47554e-05
-1.45465e-05
3.02703e-05
-9.58109e-06
1.42063e-05
-1.10265e-05
-1.09251e-05
-1.17288e-05
-1.97724e-05
-1.1712e-05
-1.77681e-05
-1.1609e-05
-8.80928e-06
-1.36523e-05
-1.33597e-06
-1.72118e-05
3.71445e-06
-2.03878e-05
7.20291e-06
-2.04496e-05
7.52753e-06
-1.70033e-05
-2.833e-07
-1.32028e-05
-5.38208e-06
-1.04895e-05
-5.61402e-06
-9.44759e-06
-4.7831e-06
-8.25945e-06
-4.04931e-06
-5.71801e-06
8.09307e-07
7.14114e-07
8.24821e-06
5.06987e-06
8.89207e-06
1.50389e-06
3.533e-06
-3.77055e-06
3.72324e-06
-6.14695e-06
7.91742e-06
8.24202e-06
-8.2593e-06
-2.8367e-05
3.6118e-06
-3.03518e-05
3.22552e-05
-2.60153e-05
9.86985e-06
-2.44632e-05
-1.24775e-05
-2.21483e-05
-2.20876e-05
-1.99935e-05
-1.99228e-05
-2.06857e-05
-8.11692e-06
-2.30587e-05
1.03707e-06
-2.44532e-05
5.109e-06
-2.35832e-05
6.33303e-06
-1.97266e-05
3.67105e-06
-1.78913e-05
-2.1186e-06
-1.70852e-05
-6.18816e-06
-1.56731e-05
-7.02605e-06
-1.46176e-05
-5.8385e-06
-1.50939e-05
-3.57288e-06
-1.45713e-05
2.86697e-07
-1.1294e-05
4.97087e-06
-8.42328e-06
6.0214e-06
-9.43812e-06
4.54791e-06
-1.1197e-05
5.48238e-06
-1.1013e-05
7.73389e-06
7.71151e-06
-1.04819e-05
-3.43508e-05
3.79622e-05
-3.54484e-05
3.33532e-05
-3.118e-05
5.60172e-06
-2.93869e-05
-1.42705e-05
-2.91783e-05
-2.22963e-05
-3.03578e-05
-1.87432e-05
-3.11495e-05
-7.32525e-06
-3.15031e-05
1.39064e-06
-3.05452e-05
4.15101e-06
-2.82968e-05
4.08475e-06
-2.57144e-05
1.08872e-06
-2.453e-05
-3.30291e-06
-2.37649e-05
-6.95323e-06
-2.26781e-05
-8.11287e-06
-2.17996e-05
-6.71706e-06
-2.21118e-05
-3.26053e-06
-2.17927e-05
-3.22969e-08
-1.97527e-05
2.93112e-06
-1.76381e-05
3.90689e-06
-1.70178e-05
3.92743e-06
-1.65494e-05
5.01381e-06
-1.52061e-05
6.39047e-06
6.18132e-06
-1.36759e-05
-2.50493e-05
6.30116e-05
-2.90626e-05
3.73666e-05
-2.86895e-05
5.22856e-06
-2.97715e-05
-1.31886e-05
-3.29002e-05
-1.91675e-05
-3.74389e-05
-1.42045e-05
-3.90906e-05
-5.6736e-06
-3.73156e-05
-3.84467e-07
-3.43516e-05
1.18693e-06
-3.10824e-05
8.15576e-07
-2.84582e-05
-1.53558e-06
-2.77836e-05
-3.97748e-06
-2.77817e-05
-6.95518e-06
-2.73738e-05
-8.52089e-06
-2.69697e-05
-7.12115e-06
-2.67909e-05
-3.4394e-06
-2.61589e-05
-6.6446e-07
-2.45846e-05
1.35687e-06
-2.28569e-05
2.17925e-06
-2.1576e-05
2.64683e-06
-2.00753e-05
3.51327e-06
-1.81814e-05
4.49655e-06
4.27086e-06
-1.6271e-05
-1.40185e-05
7.70306e-05
-1.8665e-05
4.20128e-05
-2.29588e-05
9.52216e-06
-2.84313e-05
-7.71617e-06
-3.5693e-05
-1.19058e-05
-3.98912e-05
-1.00065e-05
-4.01796e-05
-5.38537e-06
-3.79939e-05
-2.57036e-06
-3.51024e-05
-1.70464e-06
-3.21913e-05
-2.09559e-06
-3.02431e-05
-3.48382e-06
-2.94848e-05
-4.73597e-06
-2.94885e-05
-6.9516e-06
-2.96853e-05
-8.32423e-06
-2.98273e-05
-6.97928e-06
-2.91519e-05
-4.11482e-06
-2.80505e-05
-1.76574e-06
-2.65806e-05
-1.12935e-07
-2.50905e-05
6.89268e-07
-2.36014e-05
1.15777e-06
-2.18768e-05
1.78865e-06
-1.98213e-05
2.44095e-06
2.29938e-06
-1.785e-05
-6.66487e-06
8.36957e-05
-1.18416e-05
4.71892e-05
-1.93737e-05
1.70543e-05
-2.74404e-05
3.5046e-07
-3.34716e-05
-5.87438e-06
-3.67067e-05
-6.77133e-06
-3.68263e-05
-5.26567e-06
-3.54242e-05
-3.97234e-06
-3.35069e-05
-3.62188e-06
-3.16174e-05
-3.98503e-06
-3.02947e-05
-4.80648e-06
-2.92054e-05
-5.82528e-06
-2.90232e-05
-7.1338e-06
-2.95501e-05
-7.79727e-06
-2.96606e-05
-6.86873e-06
-2.89064e-05
-4.86893e-06
-2.77217e-05
-2.95031e-06
-2.63192e-05
-1.5154e-06
-2.49557e-05
-6.74116e-07
-2.35791e-05
-2.18858e-07
-2.2014e-05
2.23532e-07
-2.01403e-05
5.6722e-07
4.19631e-07
-1.82606e-05
-1.93049e-06
8.56262e-05
-7.49986e-06
5.27587e-05
-1.49561e-05
2.45109e-05
-2.22338e-05
7.62846e-06
-2.74076e-05
-7.00268e-07
-3.02348e-05
-3.94384e-06
-3.09278e-05
-4.57239e-06
-3.0359e-05
-4.54084e-06
-2.93055e-05
-4.67515e-06
-2.82148e-05
-5.07553e-06
-2.73247e-05
-5.69636e-06
-2.67333e-05
-6.41656e-06
-2.66819e-05
-7.18505e-06
-2.7008e-05
-7.47096e-06
-2.70872e-05
-6.78926e-06
-2.65648e-05
-5.39121e-06
-2.55982e-05
-3.91672e-06
-2.44042e-05
-2.70927e-06
-2.31741e-05
-1.9041e-06
-2.19824e-05
-1.41047e-06
-2.066e-05
-1.09883e-06
-1.91264e-05
-9.66269e-07
-1.21815e-06
-1.74885e-05
3.58609e-06
8.20402e-05
-1.69319e-06
5.80384e-05
-8.39655e-06
3.12146e-05
-1.45765e-05
1.38087e-05
-1.92024e-05
3.92568e-06
-2.20755e-05
-1.07053e-06
-2.33818e-05
-3.26583e-06
-2.36649e-05
-4.25752e-06
-2.34536e-05
-4.88633e-06
-2.30882e-05
-5.44084e-06
-2.27736e-05
-6.01082e-06
-2.26254e-05
-6.56468e-06
-2.27692e-05
-7.04122e-06
-2.30857e-05
-7.15438e-06
-2.32147e-05
-6.66018e-06
-2.29211e-05
-5.68479e-06
-2.22534e-05
-4.58435e-06
-2.13515e-05
-3.61099e-06
-2.03592e-05
-2.8963e-06
-1.933e-05
-2.43957e-06
-1.82338e-05
-2.19494e-06
-1.70212e-05
-2.17872e-06
-2.51246e-06
-1.57267e-05
8.10696e-06
7.3933e-05
4.59334e-06
6.15521e-05
-8.20118e-07
3.6628e-05
-6.0775e-06
1.90659e-05
-1.03312e-05
8.17918e-06
-1.33473e-05
1.94557e-06
-1.52087e-05
-1.40442e-06
-1.62355e-05
-3.23077e-06
-1.67748e-05
-4.34716e-06
-1.70775e-05
-5.13834e-06
-1.73156e-05
-5.77283e-06
-1.7591e-05
-6.28932e-06
-1.79751e-05
-6.65723e-06
-1.83941e-05
-6.73539e-06
-1.86445e-05
-6.40983e-06
-1.8579e-05
-5.75034e-06
-1.82044e-05
-4.95897e-06
-1.7602e-05
-4.21339e-06
-1.68702e-05
-3.62807e-06
-1.60666e-05
-3.24302e-06
-1.5198e-05
-3.06352e-06
-1.42586e-05
-3.11795e-06
-3.4745e-06
-1.32964e-05
1.09739e-05
6.29589e-05
1.0699e-05
6.1827e-05
6.67085e-06
4.06558e-05
2.18937e-06
2.35472e-05
-1.77574e-06
1.21442e-05
-4.92021e-06
5.09002e-06
-7.21899e-06
8.9433e-07
-8.83754e-06
-1.61236e-06
-9.99134e-06
-3.19358e-06
-1.08594e-05
-4.27048e-06
-1.15754e-05
-5.05692e-06
-1.22256e-05
-5.63915e-06
-1.28563e-05
-6.02652e-06
-1.34278e-05
-6.16376e-06
-1.38304e-05
-6.00713e-06
-1.39775e-05
-5.60325e-06
-1.3863e-05
-5.07346e-06
-1.35344e-05
-4.54197e-06
-1.3059e-05
-4.10344e-06
-1.249e-05
-3.81205e-06
-1.18552e-05
-3.69821e-06
-1.11772e-05
-3.79578e-06
-4.14714e-06
-1.05044e-05
1.16517e-05
5.13072e-05
1.46812e-05
5.87975e-05
1.26362e-05
4.27008e-05
9.16769e-06
2.70158e-05
5.62482e-06
1.56873e-05
2.50361e-06
8.21143e-06
-4.93643e-08
3.4474e-06
-2.06801e-06
4.06284e-07
-3.6645e-06
-1.59716e-06
-4.95661e-06
-2.97843e-06
-6.04244e-06
-3.97105e-06
-6.99031e-06
-4.6911e-06
-7.83516e-06
-5.18143e-06
-8.56087e-06
-5.43779e-06
-9.11204e-06
-5.45573e-06
-9.44143e-06
-5.27367e-06
-9.54349e-06
-4.97129e-06
-9.44815e-06
-4.63723e-06
-9.20334e-06
-4.34818e-06
-8.85566e-06
-4.15967e-06
-8.44243e-06
-4.11137e-06
-7.99931e-06
-4.2388e-06
-4.57231e-06
-7.57405e-06
1.03723e-05
4.09351e-05
1.57956e-05
5.33744e-05
1.60436e-05
4.24531e-05
1.39853e-05
2.90745e-05
1.11895e-05
1.84835e-05
8.37038e-06
1.10308e-05
5.8282e-06
5.98974e-06
3.64855e-06
2.58603e-06
1.81208e-06
2.39361e-07
2.61917e-07
-1.4282e-06
-1.06316e-06
-2.64587e-06
-2.21169e-06
-3.5424e-06
-3.21094e-06
-4.18196e-06
-4.05838e-06
-4.59015e-06
-4.72898e-06
-4.78494e-06
-5.19992e-06
-4.80259e-06
-5.47006e-06
-4.70106e-06
-5.5609e-06
-4.54635e-06
-5.50852e-06
-4.40052e-06
-5.35322e-06
-4.31494e-06
-5.13389e-06
-4.33067e-06
-4.89023e-06
-4.48241e-06
-4.79467e-06
-4.66784e-06
8.00967e-06
3.29257e-05
1.45527e-05
4.68314e-05
1.68379e-05
4.01683e-05
1.63806e-05
2.95322e-05
1.46191e-05
2.02451e-05
1.23964e-05
1.32537e-05
1.01454e-05
8.2407e-06
8.05914e-06
4.6724e-06
6.20054e-06
2.09804e-06
4.57128e-06
2.01125e-07
3.1487e-06
-1.22323e-06
1.90685e-06
-2.30048e-06
8.28398e-07
-3.10343e-06
-8.8703e-08
-3.67301e-06
-8.34581e-07
-4.03906e-06
-1.40014e-06
-4.23705e-06
-1.78825e-06
-4.31299e-06
-2.0162e-06
-4.31843e-06
-2.11251e-06
-4.30422e-06
-2.11154e-06
-4.3159e-06
-2.04982e-06
-4.39235e-06
-1.96593e-06
-4.56625e-06
-4.85916e-06
-1.90138e-06
5.6351e-06
2.72907e-05
1.2193e-05
4.02737e-05
1.58078e-05
3.65538e-05
1.67638e-05
2.85762e-05
1.61099e-05
2.0899e-05
1.46592e-05
1.47043e-05
1.2907e-05
9.99276e-06
1.11205e-05
6.45889e-06
9.42785e-06
3.79078e-06
7.88098e-06
1.74809e-06
6.4937e-06
1.64124e-07
5.26378e-06
-1.07049e-06
4.18613e-06
-2.02575e-06
3.26024e-06
-2.74714e-06
2.4902e-06
-3.26907e-06
1.87883e-06
-3.62574e-06
1.42153e-06
-3.85575e-06
1.10406e-06
-4.00098e-06
9.03498e-07
-4.10363e-06
7.91053e-07
-4.20338e-06
7.34452e-07
-4.33564e-06
6.98926e-07
-4.53058e-06
-4.80811e-06
6.48012e-07
3.8894e-06
2.34013e-05
9.80743e-06
3.43558e-05
1.39622e-05
3.23991e-05
1.5886e-05
2.66524e-05
1.61822e-05
2.06027e-05
1.55091e-05
1.53773e-05
1.43413e-05
1.11604e-05
1.29735e-05
7.82672e-06
1.15727e-05
5.19161e-06
1.02272e-05
3.09376e-06
8.97949e-06
1.41194e-06
7.84843e-06
6.06797e-08
6.8418e-06
-1.01903e-06
5.96411e-06
-1.8694e-06
5.21916e-06
-2.5241e-06
4.60816e-06
-3.01471e-06
4.12678e-06
-3.37431e-06
3.76367e-06
-3.63778e-06
3.50073e-06
-3.84056e-06
3.3145e-06
-4.01697e-06
3.17774e-06
-4.19871e-06
3.06072e-06
-4.41338e-06
-4.67968e-06
2.93243e-06
2.85548e-06
2.05459e-05
7.91536e-06
2.92961e-05
1.20321e-05
2.82824e-05
1.44505e-05
2.42339e-05
1.54191e-05
1.96341e-05
1.53976e-05
1.53987e-05
1.47853e-05
1.17728e-05
1.38632e-05
8.74887e-06
1.28101e-05
6.2449e-06
1.17325e-05
4.17153e-06
1.06912e-05
2.45338e-06
9.71974e-06
1.03224e-06
8.83665e-06
-1.35815e-07
8.05238e-06
-1.08502e-06
7.37301e-06
-1.84463e-06
6.80076e-06
-2.44235e-06
6.33298e-06
-2.90639e-06
5.96142e-06
-3.26605e-06
5.67235e-06
-3.5513e-06
5.44733e-06
-3.79176e-06
5.26434e-06
-4.01557e-06
5.09889e-06
-4.24782e-06
-4.50611e-06
4.92536e-06
2.32203e-06
1.8224e-05
6.57311e-06
2.50452e-05
1.03598e-05
2.44957e-05
1.29219e-05
2.16718e-05
1.42834e-05
1.82727e-05
1.47301e-05
1.49523e-05
1.45726e-05
1.19304e-05
1.40559e-05
9.26576e-06
1.33485e-05
6.95243e-06
1.2559e-05
4.96117e-06
1.17547e-05
3.25784e-06
1.09765e-05
1.81053e-06
1.02494e-05
5.91345e-07
9.58879e-06
-4.24308e-07
9.0037e-06
-1.25944e-06
8.49846e-06
-1.937e-06
8.07276e-06
-2.48056e-06
7.72155e-06
-2.9147e-06
7.43513e-06
-3.26474e-06
7.19973e-06
-3.55623e-06
6.99824e-06
-3.81401e-06
6.81122e-06
-4.0608e-06
-4.31301e-06
6.61806e-06
2.046e-06
1.61781e-05
5.63821e-06
2.14531e-05
9.01536e-06
2.11187e-05
1.15209e-05
1.91665e-05
1.30576e-05
1.67362e-05
1.37915e-05
1.42186e-05
1.39644e-05
1.17577e-05
1.37798e-05
9.45051e-06
1.33826e-05
7.34983e-06
1.28699e-05
5.47396e-06
1.23056e-05
3.8222e-06
1.17313e-05
2.38483e-06
1.11745e-05
1.14824e-06
1.06531e-05
9.70972e-08
1.01789e-05
-7.85132e-07
9.7583e-06
-1.51637e-06
9.39363e-06
-2.11582e-06
9.08285e-06
-2.60384e-06
8.81995e-06
-3.00176e-06
8.59529e-06
-3.33153e-06
8.39624e-06
-3.61496e-06
8.20792e-06
-3.87252e-06
-4.11941e-06
8.01424e-06
1.86508e-06
1.43131e-05
4.93445e-06
1.8384e-05
7.93018e-06
1.81232e-05
1.0292e-05
1.68049e-05
1.18589e-05
1.51696e-05
1.27348e-05
1.33429e-05
1.31274e-05
1.13652e-05
1.32014e-05
9.37669e-06
1.30686e-05
7.48267e-06
1.28065e-05
5.73615e-06
1.24687e-05
4.15999e-06
1.2093e-05
2.76051e-06
1.17062e-05
1.53506e-06
1.13273e-05
4.7599e-07
1.09696e-05
-4.27472e-07
1.06418e-05
-1.18855e-06
1.03484e-05
-1.82235e-06
1.00901e-05
-2.34545e-06
9.86399e-06
-2.77567e-06
9.66422e-06
-3.13173e-06
9.48199e-06
-3.43272e-06
9.30641e-06
-3.69694e-06
-3.93833e-06
9.12531e-06
1.66632e-06
1.26469e-05
4.30988e-06
1.57408e-05
6.96742e-06
1.5466e-05
9.1616e-06
1.4611e-05
1.06759e-05
1.36556e-05
1.1599e-05
1.242e-05
1.21456e-05
1.08187e-05
1.24283e-05
9.09405e-06
1.25219e-05
7.3891e-06
1.24814e-05
5.77663e-06
1.23488e-05
4.29258e-06
1.21564e-05
2.95286e-06
1.19293e-05
1.76216e-06
1.16866e-05
7.18663e-07
1.14427e-05
-1.83608e-07
1.12079e-05
-9.53692e-07
1.09886e-05
-1.60296e-06
1.07877e-05
-2.14459e-06
1.06053e-05
-2.59325e-06
1.04385e-05
-2.96481e-06
1.02816e-05
-3.27582e-06
1.01274e-05
-3.54256e-06
-3.77764e-06
9.96677e-06
1.37809e-06
1.1269e-05
3.71718e-06
1.34021e-05
6.00128e-06
1.31823e-05
7.92442e-06
1.26882e-05
9.37157e-06
1.22087e-05
1.03581e-05
1.14337e-05
1.10595e-05
1.01174e-05
1.15343e-05
8.61929e-06
1.18289e-05
7.09458e-06
1.19828e-05
5.62272e-06
1.20301e-05
4.24526e-06
1.19995e-05
2.9834e-06
1.19149e-05
1.8468e-06
1.17954e-05
8.38185e-07
1.16561e-05
-4.43087e-08
1.15085e-05
-8.05976e-07
1.13603e-05
-1.45479e-06
1.12167e-05
-2.00088e-06
1.10796e-05
-2.4561e-06
1.09486e-05
-2.83376e-06
1.0821e-05
-3.14811e-06
1.06921e-05
-3.41347e-06
-3.64111e-06
1.05557e-05
1.01856e-06
1.02507e-05
3.09807e-06
1.13231e-05
5.02015e-06
1.12606e-05
6.62135e-06
1.10873e-05
7.96161e-06
1.08687e-05
9.07485e-06
1.03206e-05
9.94494e-06
9.24742e-06
1.05976e-05
7.96674e-06
1.10654e-05
6.62672e-06
1.13823e-05
5.30593e-06
1.15793e-05
4.04829e-06
1.1684e-05
2.87876e-06
1.17197e-05
1.81115e-06
1.17057e-05
8.52272e-07
1.16574e-05
4.03831e-09
1.15869e-05
-7.35395e-07
1.15031e-05
-1.37093e-06
1.14123e-05
-1.90995e-06
1.13181e-05
-2.36188e-06
1.12222e-05
-2.73774e-06
1.11239e-05
-3.04971e-06
1.10208e-05
-3.31026e-06
-3.52926e-06
1.09091e-05
1.0063e-06
9.24472e-06
2.58238e-06
9.74738e-06
4.10521e-06
9.73804e-06
5.45905e-06
9.73369e-06
6.73022e-06
9.5977e-06
7.93317e-06
9.11786e-06
8.92513e-06
8.25559e-06
9.70605e-06
7.18594e-06
1.03001e-05
6.03274e-06
1.07374e-05
4.86876e-06
1.10473e-05
3.7385e-06
1.12562e-05
2.66995e-06
1.13867e-05
1.68074e-06
1.14577e-05
7.81476e-07
1.14841e-05
-2.23363e-08
1.14782e-05
-7.29368e-07
1.14492e-05
-1.3418e-06
1.1404e-05
-1.8647e-06
1.13476e-05
-2.30542e-06
1.1283e-05
-2.67308e-06
1.12113e-05
-2.978e-06
1.1132e-05
-3.23089e-06
-3.44024e-06
1.1043e-05
1.19146e-06
8.05349e-06
2.30167e-06
8.63752e-06
3.46482e-06
8.57511e-06
4.66032e-06
8.53838e-06
5.89228e-06
8.36591e-06
7.07013e-06
7.94017e-06
8.08736e-06
7.23853e-06
8.91933e-06
6.35412e-06
9.57779e-06
5.37444e-06
1.00857e-05
4.36103e-06
1.0468e-05
3.35635e-06
1.07482e-05
2.38992e-06
1.09468e-05
1.48225e-06
1.10811e-05
6.47307e-07
1.11651e-05
-1.06184e-07
1.12099e-05
-7.74084e-07
1.12245e-05
-1.35634e-06
1.12161e-05
-1.85625e-06
1.11903e-05
-2.27963e-06
1.11513e-05
-2.63407e-06
1.11016e-05
-2.92831e-06
1.10421e-05
-3.17143e-06
-3.37047e-06
1.09722e-05
1.10755e-06
6.94614e-06
2.13478e-06
7.61063e-06
3.16643e-06
7.54368e-06
4.26165e-06
7.44335e-06
5.38529e-06
7.24245e-06
6.46657e-06
6.85908e-06
7.42955e-06
6.27574e-06
8.2438e-06
5.54007e-06
8.90995e-06
4.70849e-06
9.44204e-06
3.82914e-06
9.85873e-06
2.93984e-06
1.01791e-05
2.06973e-06
1.04204e-05
1.24106e-06
1.05974e-05
4.70448e-07
1.07218e-05
-2.30584e-07
1.08033e-05
-8.55544e-07
1.08499e-05
-1.40281e-06
1.08683e-05
-1.87468e-06
1.08647e-05
-2.27609e-06
1.08442e-05
-2.6136e-06
1.08104e-05
-2.8946e-06
1.07656e-05
-3.12664e-06
-3.31528e-06
1.07103e-05
1.04008e-06
5.90625e-06
2.05804e-06
6.59305e-06
3.04887e-06
6.55312e-06
4.05338e-06
6.43907e-06
5.06006e-06
6.23599e-06
6.02367e-06
5.89568e-06
6.89542e-06
5.4042e-06
7.65055e-06
4.78515e-06
8.28464e-06
4.0746e-06
8.80517e-06
3.30881e-06
9.22513e-06
2.52005e-06
9.5591e-06
1.7359e-06
9.8208e-06
9.79452e-07
1.00218e-05
2.69513e-07
1.01711e-05
-3.79847e-07
1.02758e-05
-9.60211e-07
1.03422e-05
-1.46928e-06
1.0377e-05
-1.90941e-06
1.03863e-05
-2.28552e-06
1.03763e-05
-2.6036e-06
1.03516e-05
-2.86996e-06
1.03154e-05
-3.0906e-06
-3.26947e-06
1.02696e-05
1.02351e-06
4.88298e-06
2.03386e-06
5.58313e-06
2.98726e-06
5.60002e-06
3.9122e-06
5.51439e-06
4.80955e-06
5.33888e-06
5.65717e-06
5.04829e-06
6.4277e-06
4.63388e-06
7.1045e-06
4.10855e-06
7.68307e-06
3.49623e-06
8.16769e-06
2.82436e-06
8.56765e-06
2.12023e-06
8.89408e-06
1.40958e-06
9.15757e-06
7.16031e-07
9.36652e-06
6.06016e-08
9.52654e-06
-5.39856e-07
9.64153e-06
-1.07521e-06
9.71595e-06
-1.54371e-06
9.75582e-06
-1.94931e-06
9.76819e-06
-2.29792e-06
9.75998e-06
-2.59543e-06
9.73706e-06
-2.84707e-06
9.7036e-06
-3.05717e-06
-3.22787e-06
9.66198e-06
1.0187e-06
3.86458e-06
2.01445e-06
4.58779e-06
2.92623e-06
4.68853e-06
3.77699e-06
4.66387e-06
4.57614e-06
4.53994e-06
5.31745e-06
4.30719e-06
5.98849e-06
3.96302e-06
6.58048e-06
3.51674e-06
7.09116e-06
2.98569e-06
7.52424e-06
2.39142e-06
7.88728e-06
1.7573e-06
8.18946e-06
1.10748e-06
8.43924e-06
4.66309e-07
8.64226e-06
-1.42388e-07
8.80028e-06
-6.97869e-07
8.91314e-06
-1.18806e-06
8.98315e-06
-1.61371e-06
9.01643e-06
-1.98259e-06
9.02128e-06
-2.30276e-06
9.00608e-06
-2.58021e-06
8.97781e-06
-2.81877e-06
8.94134e-06
-3.02067e-06
-3.1859e-06
8.89942e-06
1.0101e-06
2.85477e-06
1.98451e-06
3.61367e-06
2.85129e-06
3.82194e-06
3.6311e-06
3.88423e-06
4.34091e-06
3.83028e-06
4.98539e-06
3.66285e-06
5.56209e-06
3.38645e-06
6.0684e-06
3.01055e-06
6.50491e-06
2.5493e-06
6.87601e-06
2.02041e-06
7.18911e-06
1.44429e-06
7.45292e-06
8.4373e-07
7.67519e-06
2.44097e-07
7.85968e-06
-3.26836e-07
8.00372e-06
-8.41866e-07
8.10171e-06
-1.28602e-06
8.15393e-06
-1.6659e-06
8.16798e-06
-1.99659e-06
8.15456e-06
-2.28929e-06
8.12396e-06
-2.54954e-06
8.0841e-06
-2.77884e-06
8.04012e-06
-2.9766e-06
-3.14025e-06
7.99456e-06
1.00605e-06
1.84895e-06
1.96012e-06
2.65965e-06
2.77908e-06
3.00302e-06
3.48662e-06
3.17672e-06
4.1106e-06
3.20632e-06
4.66426e-06
3.10924e-06
5.15118e-06
2.89958e-06
5.57261e-06
2.58918e-06
5.93122e-06
2.19075e-06
6.23234e-06
1.71934e-06
6.48398e-06
1.1927e-06
6.69574e-06
6.32034e-07
6.87654e-06
6.33649e-08
7.02964e-06
-4.79871e-07
7.1473e-06
-9.59462e-07
7.21618e-06
-1.35483e-06
7.23537e-06
-1.68501e-06
7.21662e-06
-1.97776e-06
7.17466e-06
-2.24725e-06
7.12179e-06
-2.49657e-06
7.06621e-06
-2.72316e-06
7.01237e-06
-2.92265e-06
-3.0896e-06
6.96182e-06
1.02478e-06
8.2424e-07
1.97381e-06