/*--------------------------------*- C++ -*----------------------------------*\
| =========                 |                                                 |
| \\      /  F ield         | OpenFOAM: The Open Source CFD Toolbox           |
|  \\    /   O peration     | Version:  2.3.0                                 |
|   \\  /    A nd           | Web:      www.OpenFOAM.org                      |
|    \\/     M anipulation  |                                                 |
\*---------------------------------------------------------------------------*/
FoamFile
{
    version     2.0;
    format      ascii;
    class       volVectorField;
    location    "2.9";
    object      U;
}
// * * * * * * * * * * * * * * * * * * * * * * * * * * * * * * * * * * * * * //

dimensions      [0 1 -1 0 0 0 0];

internalField   nonuniform List<vector> 
2268
(
(0.00908409 -0.00442667 0)
(0.0226001 -0.00287958 0)
(0.0290043 -0.00128959 0)
(0.0328466 -0.000499119 0)
(0.034647 -0.000115253 0)
(0.0353672 7.07552e-05 0)
(0.0355507 0.000147266 0)
(0.0355648 0.000121579 0)
(0.03565 1.86628e-05 0)
(0.0359857 -0.000130505 0)
(0.0367518 -0.000350505 0)
(0.038065 -0.000628834 0)
(0.0400623 -0.000985172 0)
(0.042924 -0.00145715 0)
(0.0468783 -0.00210146 0)
(0.051978 -0.00258403 0)
(0.0561216 -0.00121132 0)
(0.0568844 0.0001239 0)
(0.0550447 0.00048407 0)
(0.0526099 0.000177974 0)
(0.0486985 0.00135486 0)
(0.0403705 0.00512827 0)
(0.0215304 0.00857917 0)
(0.00764622 -0.0111823 0)
(0.0183504 -0.00699024 0)
(0.0234194 -0.00383695 0)
(0.0268282 -0.00195309 0)
(0.028467 -0.000894822 0)
(0.0290944 -0.000321442 0)
(0.0292092 -5.58642e-05 0)
(0.0292072 -2.83574e-05 0)
(0.0293807 -0.000173483 0)
(0.0299215 -0.000443076 0)
(0.0309567 -0.000820107 0)
(0.0325441 -0.00127504 0)
(0.0346709 -0.00180588 0)
(0.0372647 -0.00243125 0)
(0.040161 -0.00313749 0)
(0.0430637 -0.00340621 0)
(0.045463 -0.00153264 0)
(0.0464488 0.00036761 0)
(0.0459932 0.00134405 0)
(0.0440408 0.00198826 0)
(0.0401026 0.00463713 0)
(0.0343369 0.0109135 0)
(0.0242434 0.0203331 0)
(0.00615772 -0.0164833 0)
(0.0151305 -0.00997571 0)
(0.0193425 -0.00566929 0)
(0.0223575 -0.00296716 0)
(0.0238366 -0.00133458 0)
(0.024405 -0.000432083 0)
(0.0245274 -6.11803e-05 0)
(0.0246044 -7.51912e-05 0)
(0.0249248 -0.000363887 0)
(0.025661 -0.000842636 0)
(0.0269065 -0.00144787 0)
(0.0286548 -0.00211399 0)
(0.0307885 -0.00279724 0)
(0.0330887 -0.00347386 0)
(0.0352127 -0.00407329 0)
(0.0367336 -0.00408381 0)
(0.0379405 -0.00214588 0)
(0.0387558 8.89996e-05 0)
(0.0384231 0.00173434 0)
(0.0364847 0.00319761 0)
(0.0326617 0.00677223 0)
(0.0272701 0.0147831 0)
(0.0200538 0.0310223 0)
(0.00474603 -0.021099 0)
(0.0123201 -0.0126778 0)
(0.016041 -0.0073649 0)
(0.0188278 -0.00395223 0)
(0.0202531 -0.00180498 0)
(0.0208476 -0.000603185 0)
(0.0210531 -0.000131574 0)
(0.021269 -0.000203506 0)
(0.0217723 -0.000653084 0)
(0.0227115 -0.00134794 0)
(0.0241427 -0.00217737 0)
(0.0259971 -0.00301979 0)
(0.028072 -0.00377976 0)
(0.0300568 -0.00438983 0)
(0.0315545 -0.00474378 0)
(0.0321832 -0.00440362 0)
(0.0323933 -0.00245204 0)
(0.0325067 5.15181e-05 0)
(0.03183 0.00230142 0)
(0.0296038 0.00454655 0)
(0.025673 0.00887805 0)
(0.0204636 0.0183327 0)
(0.0148689 0.0403281 0)
(0.00349439 -0.0247891 0)
(0.00997784 -0.0150207 0)
(0.0134972 -0.00893877 0)
(0.0162567 -0.00491644 0)
(0.0177749 -0.00229685 0)
(0.0185091 -0.000818822 0)
(0.0188914 -0.000268074 0)
(0.0193192 -0.000417955 0)
(0.0200504 -0.001041 0)
(0.0212034 -0.00195022 0)
(0.0227937 -0.00298065 0)
(0.0246938 -0.00394381 0)
(0.0266301 -0.00468872 0)
(0.0282355 -0.00511355 0)
(0.0291182 -0.00511322 0)
(0.0290031 -0.00437606 0)
(0.0283167 -0.00233406 0)
(0.0274703 0.000350484 0)
(0.0260158 0.00310173 0)
(0.0231865 0.00611394 0)
(0.0187929 0.0110856 0)
(0.0133372 0.0213859 0)
(0.00921486 0.04704 0)
(0.00243657 -0.0277198 0)
(0.00826972 -0.0171283 0)
(0.0118756 -0.010482 0)
(0.0148329 -0.00592554 0)
(0.0166137 -0.00286082 0)
(0.0176199 -0.00112201 0)
(0.018286 -0.000506783 0)
(0.0190045 -0.000744209 0)
(0.0200068 -0.00153713 0)
(0.0213734 -0.00263979 0)
(0.0230771 -0.00382752 0)
(0.0249358 -0.00483808 0)
(0.0266188 -0.00546706 0)
(0.0277279 -0.00559467 0)
(0.0278998 -0.0051559 0)
(0.0269661 -0.00398895 0)
(0.0253344 -0.00176638 0)
(0.0234312 0.00109963 0)
(0.0209892 0.00428321 0)
(0.0173623 0.0079905 0)
(0.0124386 0.0135583 0)
(0.00660377 0.0241598 0)
(0.00275955 0.0509169 0)
(0.00167738 -0.0300875 0)
(0.00738627 -0.0191981 0)
(0.0113737 -0.0121347 0)
(0.014762 -0.00708141 0)
(0.0169869 -0.00357324 0)
(0.0184097 -0.00157259 0)
(0.019475 -0.000893018 0)
(0.0205642 -0.00120967 0)
(0.0218718 -0.00214786 0)
(0.0234314 -0.00339811 0)
(0.0251715 -0.00467458 0)
(0.0268623 -0.00563741 0)
(0.0281317 -0.00603672 0)
(0.0285744 -0.00575648 0)
(0.0278708 -0.00479645 0)
(0.0259565 -0.00316098 0)
(0.0232508 -0.000697445 0)
(0.0202131 0.00235413 0)
(0.0167531 0.00590132 0)
(0.0124041 0.0101774 0)
(0.00716141 0.0162693 0)
(0.00122406 0.0270492 0)
(-0.00428277 0.0521541 0)
(0.00136307 -0.0321876 0)
(0.00746583 -0.021508 0)
(0.0120773 -0.0141087 0)
(0.0160902 -0.00855464 0)
(0.0189234 -0.00457677 0)
(0.0209024 -0.00228811 0)
(0.0224819 -0.00151677 0)
(0.0240175 -0.00187329 0)
(0.0256537 -0.00289025 0)
(0.0273668 -0.00419334 0)
(0.0290395 -0.0054407 0)
(0.0304042 -0.00621356 0)
(0.0310671 -0.00623703 0)
(0.0306464 -0.00541917 0)
(0.0288813 -0.00384311 0)
(0.0258104 -0.00169213 0)
(0.0219019 0.00102753 0)
(0.0176909 0.00422515 0)
(0.0132891 0.00798459 0)
(0.00847433 0.0125651 0)
(0.00347193 0.0188359 0)
(-0.00147688 0.0291516 0)
(-0.00631829 0.0489472 0)
(-0.0388975 0.0092773 0)
(-0.0311711 -0.00790427 0)
(-0.00850295 -0.00896593 0)
(0.00923942 -0.00672856 0)
(0.0231065 -0.00476526 0)
(0.0320212 -0.00250354 0)
(0.0342223 -0.000466587 0)
(0.0323921 -0.000474279 0)
(0.0248855 0.00721629 0)
(-0.0139162 0.0143799 0)
(-0.0479937 0.00408098 0)
(-0.0486951 0.00355521 0)
(-0.0675976 0.00996689 0)
(-0.111948 0.011815 0)
(-0.142845 0.00393937 0)
(-0.138049 -0.00742054 0)
(-0.105673 -0.0149073 0)
(-0.0620232 -0.0162157 0)
(-0.018149 -0.00888882 0)
(-0.0264571 0.0218772 0)
(-0.0131459 -0.0101227 0)
(-0.00386671 -0.0124313 0)
(0.00434341 -0.00964075 0)
(0.0112532 -0.00669922 0)
(0.0151049 -0.00256443 0)
(0.0127959 0.00118736 0)
(0.00553374 0.00288243 0)
(-0.0013149 0.0137782 0)
(-0.0204538 0.0235367 0)
(-0.0401879 0.00967612 0)
(-0.0477418 0.00852602 0)
(-0.0648958 0.0186631 0)
(-0.0955921 0.0225052 0)
(-0.11331 0.0098772 0)
(-0.10998 -0.00934067 0)
(-0.0935328 -0.0234861 0)
(-0.0661106 -0.0301181 0)
(-0.0291577 -0.0250091 0)
(-0.00537398 0.0265213 0)
(-0.00349073 -0.0116998 0)
(-0.00309926 -0.013943 0)
(-0.00114162 -0.0111249 0)
(0.00135683 -0.0076945 0)
(0.00194223 -0.00195087 0)
(-0.00279684 0.00363317 0)
(-0.0114764 0.00633698 0)
(-0.0185915 0.0172708 0)
(-0.0270393 0.0273464 0)
(-0.0373549 0.0145212 0)
(-0.0448496 0.0133551 0)
(-0.0549258 0.025072 0)
(-0.0713558 0.0290252 0)
(-0.083524 0.013141 0)
(-0.0850381 -0.0112556 0)
(-0.075744 -0.0300371 0)
(-0.0581885 -0.0419531 0)
(-0.0281319 -0.0452724 0)
(0.00757734 0.0254548 0)
(0.000882262 -0.0102151 0)
(-0.00486516 -0.0132376 0)
(-0.0076209 -0.0111671 0)
(-0.00835184 -0.00770049 0)
(-0.00999669 -0.000567776 0)
(-0.016236 0.00656268 0)
(-0.0249082 0.00970865 0)
(-0.0308444 0.0199205 0)
(-0.034239 0.0291576 0)
(-0.0386424 0.0177414 0)
(-0.0432499 0.0162927 0)
(-0.047296 0.0283743 0)
(-0.0528589 0.0326796 0)
(-0.0589237 0.0160696 0)
(-0.0611598 -0.0119374 0)
(-0.0553025 -0.0348577 0)
(-0.0441395 -0.0505781 0)
(-0.0208086 -0.0620775 0)
(0.0121123 0.0220973 0)
(0.000740555 -0.00645272 0)
(-0.00914444 -0.0104602 0)
(-0.0153771 -0.00981729 0)
(-0.0184955 -0.00679373 0)
(-0.0215944 0.0014262 0)
(-0.0287361 0.00985084 0)
(-0.0371446 0.0126191 0)
(-0.0417283 0.0217365 0)
(-0.0418548 0.0294582 0)
(-0.0416771 0.0191601 0)
(-0.042395 0.0170756 0)
(-0.0409915 0.0289842 0)
(-0.0384559 0.0330238 0)
(-0.0375283 0.0174212 0)
(-0.0379024 -0.0121841 0)
(-0.0339458 -0.0381158 0)
(-0.0276627 -0.055949 0)
(-0.011242 -0.0735681 0)
(0.0107068 0.019131 0)
(-0.00353385 -0.00115133 0)
(-0.015839 -0.0062798 0)
(-0.0243537 -0.00742119 0)
(-0.0291956 -0.00522505 0)
(-0.0331516 0.00378038 0)
(-0.040727 0.013376 0)
(-0.0489764 0.0151388 0)
(-0.0519103 0.0225414 0)
(-0.0485832 0.0281785 0)
(-0.0444939 0.0188354 0)
(-0.041823 0.0159537 0)
(-0.0362386 0.0271156 0)
(-0.0275952 0.0304854 0)
(-0.0201371 0.0163717 0)
(-0.01661 -0.0127746 0)
(-0.0134303 -0.0400944 0)
(-0.0111513 -0.0587226 0)
(-0.00124452 -0.079496 0)
(0.00281166 0.0187473 0)
(-0.0111698 0.00481728 0)
(-0.0242317 -0.00141063 0)
(-0.0341899 -0.0042952 0)
(-0.0403588 -0.00323606 0)
(-0.0447111 0.0062479 0)
(-0.0520487 0.0169319 0)
(-0.059713 0.017249 0)
(-0.0605499 0.021927 0)
(-0.0535726 0.0253869 0)
(-0.0462305 0.0170117 0)
(-0.0417225 0.0137147 0)
(-0.0332284 0.0230342 0)
(-0.0197338 0.0257414 0)
(-0.0069409 0.0129125 0)
(0.00118575 -0.0144727 0)
(0.00453094 -0.0410615 0)
(0.00386753 -0.0596306 0)
(0.00809983 -0.0797136 0)
(-0.0115248 0.023306 0)
(-0.0200355 0.0108011 0)
(-0.0330839 0.00387844 0)
(-0.0442943 -0.000447701 0)
(-0.0518652 -0.000806187 0)
(-0.0563244 0.00852149 0)
(-0.0622494 0.0199892 0)
(-0.0679909 0.0186696 0)
(-0.0665116 0.0199289 0)
(-0.0569686 0.0212391 0)
(-0.0473573 0.0141868 0)
(-0.0413784 0.0107955 0)
(-0.0308858 0.0172104 0)
(-0.0141288 0.0189062 0)
(0.002867 0.00711354 0)
(0.0146611 -0.0174618 0)
(0.0185309 -0.0413815 0)
(0.0162838 -0.0589573 0)
(0.0157837 -0.0748068 0)
(0.00154562 -0.0360273 0)
(0.00884957 -0.025908 0)
(0.0146122 -0.0180425 0)
(0.0197157 -0.0116483 0)
(0.0235956 -0.00686919 0)
(0.0265385 -0.00406062 0)
(0.0290046 -0.00306165 0)
(0.0312854 -0.00336404 0)
(0.0334241 -0.00432648 0)
(0.0352883 -0.00547761 0)
(0.0366865 -0.00640538 0)
(0.0373067 -0.00657275 0)
(0.0367628 -0.00572091 0)
(0.0347693 -0.00383963 0)
(0.0311781 -0.00113872 0)
(0.0261657 0.00188409 0)
(0.0203272 0.00498323 0)
(0.0143574 0.00821562 0)
(0.00872266 0.0118904 0)
(0.00372428 0.0162321 0)
(0.000271288 0.0215552 0)
(-0.00043851 0.0288035 0)
(0.010054 0.0364096 0)
(0.00241959 -0.0438036 0)
(0.0112786 -0.0334375 0)
(0.0184657 -0.0244864 0)
(0.0245626 -0.0167369 0)
(0.0293491 -0.0108298 0)
(0.033218 -0.00732625 0)
(0.0366075 -0.00592829 0)
(0.0396745 -0.00592217 0)
(0.0422955 -0.0064383 0)
(0.0441417 -0.00694885 0)
(0.0448818 -0.00707994 0)
(0.0441636 -0.00622542 0)
(0.041713 -0.00422408 0)
(0.0376012 -0.00108627 0)
(0.0318858 0.00271691 0)
(0.0247237 0.00653626 0)
(0.0167363 0.00994261 0)
(0.00885717 0.0129271 0)
(0.00226427 0.0158605 0)
(-0.00192606 0.0188066 0)
(-0.0029207 0.0215416 0)
(-0.000693914 0.024566 0)
(0.00628942 0.0279796 0)
(0.00284573 -0.0417782 0)
(0.0126146 -0.0372298 0)
(0.0198532 -0.028565 0)
(0.0260856 -0.0200837 0)
(0.0316105 -0.0134857 0)
(0.0366529 -0.00967085 0)
(0.0412869 -0.00814432 0)
(0.0452895 -0.00803496 0)
(0.0485002 -0.00828636 0)
(0.0506823 -0.00823912 0)
(0.0513478 -0.00760772 0)
(0.0498357 -0.005506 0)
(0.0457739 -0.00171811 0)
(0.0396609 0.00347624 0)
(0.0323422 0.00898464 0)
(0.0240881 0.0137608 0)
(0.0144374 0.0171518 0)
(0.00384516 0.0190235 0)
(-0.00497437 0.0201066 0)
(-0.00833459 0.0208075 0)
(-0.0055545 0.0209577 0)
(0.000548961 0.0221542 0)
(0.0092736 0.0264873 0)
(0.0169238 -0.0445671 0)
(0.0167529 -0.0428858 0)
(0.0174967 -0.0343749 0)
(0.021442 -0.0255271 0)
(0.0296027 -0.0184628 0)
(0.0387967 -0.0148072 0)
(0.0468532 -0.012845 0)
(0.0526221 -0.0116189 0)
(0.0564277 -0.0103277 0)
(0.0589292 -0.00837969 0)
(0.0592376 -0.00609148 0)
(0.0547741 -0.00175751 0)
(0.0447367 0.00385494 0)
(0.0330737 0.00957203 0)
(0.0259569 0.0160353 0)
(0.0232217 0.0218025 0)
(0.0168827 0.0265576 0)
(0.00152287 0.0286045 0)
(-0.017553 0.0276454 0)
(-0.0233896 0.021052 0)
(-0.0109752 0.0150106 0)
(0.00405256 0.0141934 0)
(0.0200258 0.0178634 0)
(0.0857765 -0.102499 0)
(0.0237216 -0.0422877 0)
(-0.00639922 -0.0342186 0)
(-0.0158947 -0.0346135 0)
(0.00194819 -0.0322141 0)
(0.0213023 -0.0282606 0)
(0.0333469 -0.0222054 0)
(0.0362811 -0.0181685 0)
(0.0372049 -0.0165982 0)
(0.0409591 -0.0149637 0)
(0.0439884 -0.00611835 0)
(0.041354 0.0150801 0)
(0.0286296 0.0355373 0)
(0.014706 0.0364325 0)
(0.0197998 0.0216157 0)
(0.0385459 0.0266238 0)
(0.0431157 0.0564697 0)
(0.0112863 0.0808576 0)
(-0.0336371 0.0665252 0)
(-0.0312324 0.00270034 0)
(-0.00680189 -0.0175026 0)
(0.0133785 -0.0136596 0)
(0.0288533 -0.00623717 0)
(0.0473072 -0.20233 0)
(0.0422438 0.0564676 0)
(-0.0951074 0.0107693 0)
(-0.0950385 -0.0562821 0)
(-0.0630916 -0.0713882 0)
(-0.0252157 -0.0589241 0)
(-0.00240649 -0.0328851 0)
(0.00397062 -0.019541 0)
(0.00284752 -0.0165115 0)
(-0.00263286 -0.0136749 0)
(-0.0142294 0.00184478 0)
(-0.03262 0.0286419 0)
(-0.0400576 0.0270647 0)
(-0.0193135 0.0146498 0)
(-0.00257175 -0.00500772 0)
(0.0116639 0.00277541 0)
(0.0276624 0.0450299 0)
(0.0270621 0.101073 0)
(0.0117054 0.0752725 0)
(0.00981293 -0.0043756 0)
(0.0118451 -0.0263584 0)
(0.00641905 -0.0166339 0)
(-0.00703074 -0.00457052 0)
(-0.0491059 -0.223929 0)
(0.013364 0.153422 0)
(-0.0789233 0.0810903 0)
(-0.0797719 -0.0613833 0)
(-0.0704464 -0.0916552 0)
(-0.0487927 -0.0785741 0)
(-0.0280674 -0.0411742 0)
(-0.0195561 -0.0188283 0)
(-0.0270298 -0.0103756 0)
(-0.0520789 -0.00265613 0)
(-0.0879217 0.0192946 0)
(-0.0946413 0.023911 0)
(-0.071349 0.00356547 0)
(-0.0449506 -0.00608091 0)
(-0.0278562 -0.0159993 0)
(-0.018838 -0.0091368 0)
(-0.00461806 0.0287595 0)
(0.0183493 0.0890631 0)
(0.0366683 0.0739954 0)
(0.039175 -0.00230268 0)
(0.0247655 -0.0205918 0)
(0.00487085 0.00603518 0)
(-0.0403531 0.00878573 0)
(-0.117535 -0.165057 0)
(-0.0584019 0.185082 0)
(-0.0722713 0.120226 0)
(-0.044949 -0.0651829 0)
(-0.0673751 -0.114396 0)
(-0.0657936 -0.0992253 0)
(-0.0600053 -0.0479696 0)
(-0.0640859 -0.0144159 0)
(-0.080939 0.0110785 0)
(-0.104466 0.0356258 0)
(-0.114635 0.0449499 0)
(-0.100254 0.00974253 0)
(-0.0809838 -0.0158966 0)
(-0.0632552 -0.0214223 0)
(-0.0511043 -0.0236243 0)
(-0.0480411 -0.0190861 0)
(-0.0417126 0.0129822 0)
(-0.0166575 0.0664323 0)
(0.0205373 0.0679836 0)
(0.0306742 0.00582611 0)
(-0.00867833 0.00435557 0)
(-0.0279888 0.047335 0)
(-0.0400333 0.0462654 0)
(-0.168689 -0.0592344 0)
(-0.151718 0.171911 0)
(-0.153507 0.0633784 0)
(-0.134862 -0.0687773 0)
(-0.125904 -0.119784 0)
(-0.113855 -0.10902 0)
(-0.106238 -0.0481146 0)
(-0.115736 0.000927488 0)
(-0.128187 0.0288757 0)
(-0.131309 0.0438196 0)
(-0.119664 0.0376354 0)
(-0.0989509 -0.00519242 0)
(-0.0917626 -0.032368 0)
(-0.0876041 -0.0347533 0)
(-0.0802537 -0.0289999 0)
(-0.080051 -0.0225756 0)
(-0.0842552 0.000189146 0)
(-0.0698032 0.0358115 0)
(-0.0480264 0.0388536 0)
(-0.04498 0.0240662 0)
(-0.0569324 0.0302846 0)
(-0.0610069 0.0466297 0)
(-0.0583326 0.0461433 0)
(-0.193046 0.0929314 0)
(-0.191526 0.169494 0)
(-0.176666 0.03835 0)
(-0.160952 -0.0712231 0)
(-0.155537 -0.119747 0)
(-0.159586 -0.104232 0)
(-0.165306 -0.0433544 0)
(-0.169191 0.00827506 0)
(-0.167968 0.0276608 0)
(-0.159016 0.0298369 0)
(-0.144642 0.0126054 0)
(-0.133165 -0.018598 0)
(-0.129198 -0.0399569 0)
(-0.124798 -0.0434643 0)
(-0.118794 -0.0345802 0)
(-0.117753 -0.01896 0)
(-0.119727 -0.0013889 0)
(-0.112222 0.0177596 0)
(-0.0988147 0.0250211 0)
(-0.091886 0.0240551 0)
(-0.0907609 0.0303585 0)
(-0.085938 0.0393164 0)
(-0.0775799 0.0382776 0)
(-0.147495 0.264024 0)
(-0.156423 0.185502 0)
(-0.150172 0.0274906 0)
(-0.153406 -0.0746737 0)
(-0.166712 -0.113038 0)
(-0.190266 -0.0928846 0)
(-0.209291 -0.0350565 0)
(-0.207156 0.00391275 0)
(-0.193439 0.0150599 0)
(-0.175408 0.0127806 0)
(-0.158556 -0.0022224 0)
(-0.149488 -0.020275 0)
(-0.148497 -0.0380768 0)
(-0.148079 -0.045571 0)
(-0.145844 -0.0375195 0)
(-0.144643 -0.017754 0)
(-0.143132 -0.00156012 0)
(-0.136743 0.0110595 0)
(-0.126923 0.0161149 0)
(-0.118946 0.0182569 0)
(-0.11225 0.0236929 0)
(-0.10302 0.0296989 0)
(-0.0922221 0.0283939 0)
(-0.0896315 0.385094 0)
(-0.093554 0.21319 0)
(-0.107057 0.0356895 0)
(-0.133397 -0.0614043 0)
(-0.172747 -0.090328 0)
(-0.208258 -0.0659385 0)
(-0.219292 -0.028613 0)
(-0.211457 -0.00760647 0)
(-0.196359 -0.00205174 0)
(-0.180131 -0.00443348 0)
(-0.166441 -0.0136711 0)
(-0.158977 -0.023264 0)
(-0.15743 -0.0376074 0)
(-0.158714 -0.0457275 0)
(-0.160191 -0.0382756 0)
(-0.159004 -0.0201837 0)
(-0.154219 -0.00622062 0)
(-0.146941 0.00337363 0)
(-0.138565 0.00763782 0)
(-0.130707 0.010257 0)
(-0.122427 0.0143153 0)
(-0.112137 0.01861 0)
(-0.100797 0.0176517 0)
(-0.0481066 0.444664 0)
(-0.0471452 0.243822 0)
(-0.0791972 0.0680964 0)
(-0.124462 -0.0234615 0)
(-0.166797 -0.0470016 0)
(-0.192459 -0.0440067 0)
(-0.200342 -0.0288641 0)
(-0.195554 -0.0183892 0)
(-0.185358 -0.0150109 0)
(-0.17438 -0.0168723 0)
(-0.165192 -0.0228657 0)
(-0.158702 -0.0287087 0)
(-0.155507 -0.0379296 0)
(-0.157087 -0.0435288 0)
(-0.159568 -0.0373791 0)
(-0.157937 -0.0241815 0)
(-0.15249 -0.0127756 0)
(-0.145219 -0.00451606 0)
(-0.137581 -0.000110629 0)
(-0.130345 0.00236258 0)
(-0.122661 0.00515959 0)
(-0.113326 0.0077697 0)
(-0.102816 0.00705281 0)
(-0.018278 0.467495 0)
(-0.0157907 0.269365 0)
(-0.0581287 0.112029 0)
(-0.100749 0.0223568 0)
(-0.136167 -0.0167086 0)
(-0.157628 -0.0287024 0)
(-0.166397 -0.0272044 0)
(-0.165645 -0.024287 0)
(-0.160467 -0.0239126 0)
(-0.154215 -0.0257926 0)
(-0.148627 -0.0293964 0)
(-0.144476 -0.0335211 0)
(-0.142701 -0.0387867 0)
(-0.143974 -0.0412177 0)
(-0.145753 -0.036904 0)
(-0.144678 -0.0278862 0)
(-0.140431 -0.0188478 0)
(-0.134356 -0.0117266 0)
(-0.127705 -0.00724656 0)
(-0.12129 -0.00462637 0)
(-0.114658 -0.00265316 0)
(-0.10694 -0.00146547 0)
(-0.098116 -0.00256014 0)
(0.0075109 0.460886 0)
(0.0139581 0.30075 0)
(-0.0274418 0.151157 0)
(-0.0626046 0.0588621 0)
(-0.0927585 0.00927796 0)
(-0.112931 -0.0136465 0)
(-0.123709 -0.02188 0)
(-0.127255 -0.0247829 0)
(-0.126852 -0.0268915 0)
(-0.124943 -0.0293515 0)
(-0.122899 -0.0323716 0)
(-0.121494 -0.0355775 0)
(-0.121462 -0.0386666 0)
(-0.123037 -0.0395662 0)
(-0.12467 -0.0364295 0)
(-0.12436 -0.0301753 0)
(-0.121644 -0.0233192 0)
(-0.117237 -0.0174399 0)
(-0.112011 -0.0132907 0)
(-0.106588 -0.0107123 0)
(-0.10096 -0.00923389 0)
(-0.0947422 -0.00889012 0)
(-0.0878009 -0.0104951 0)
(0.0291322 0.427179 0)
(0.0435341 0.327477 0)
(0.0109346 0.184669 0)
(-0.0190537 0.0896876 0)
(-0.0454279 0.0330634 0)
(-0.0651066 0.00219095 0)
(-0.0779555 -0.0132138 0)
(-0.0852525 -0.0210454 0)
(-0.0890462 -0.0257892 0)
(-0.0910257 -0.0293495 0)
(-0.0922923 -0.0324649 0)
(-0.0935482 -0.035201 0)
(-0.0953123 -0.037288 0)
(-0.0976646 -0.0376637 0)
(-0.0997214 -0.0354596 0)
(-0.100324 -0.0311471 0)
(-0.099081 -0.0261132 0)
(-0.0963319 -0.0214919 0)
(-0.0926417 -0.0179553 0)
(-0.088481 -0.0156559 0)
(-0.083998 -0.0145259 0)
(-0.0791238 -0.0146792 0)
(-0.0738959 -0.0165671 0)
(0.0431914 0.372646 0)
(0.0674656 0.338661 0)
(0.0484861 0.211407 0)
(0.0238314 0.116311 0)
(0.000327284 0.0553559 0)
(-0.0190634 0.0189749 0)
(-0.0335928 -0.00176331 0)
(-0.0438438 -0.0136649 0)
(-0.0510114 -0.021005 0)
(-0.0562286 -0.0260143 0)
(-0.0603317 -0.0297635 0)
(-0.063905 -0.0326168 0)
(-0.0673336 -0.0345256 0)
(-0.0706673 -0.0350148 0)
(-0.0734304 -0.0337074 0)
(-0.0749785 -0.0308932 0)
(-0.0750384 -0.0273814 0)
(-0.0737688 -0.0239589 0)
(-0.0715275 -0.021189 0)
(-0.0686697 -0.0193476 0)
(-0.0654065 -0.0185581 0)
(-0.0618481 -0.0189904 0)
(-0.0581471 -0.0209208 0)
(0.0462008 0.307856 0)
(0.0796879 0.329839 0)
(0.0763666 0.228398 0)
(0.0593671 0.138375 0)
(0.0395418 0.0760567 0)
(0.0211806 0.0362129 0)
(0.0058481 0.011634 0)
(-0.00631839 -0.0035627 0)
(-0.0158549 -0.0133317 0)
(-0.0234592 -0.0199778 0)
(-0.0297288 -0.0247389 0)
(-0.035115 -0.0281848 0)
(-0.0399115 -0.0304751 0)
(-0.0441795 -0.0314822 0)
(-0.0476864 -0.0311019 0)
(-0.0500933 -0.0295537 0)
(-0.051237 -0.0273481 0)
(-0.0512016 -0.0250381 0)
(-0.0502236 -0.0230812 0)
(-0.0485762 -0.021783 0)
(-0.0464846 -0.0213459 0)
(-0.0441445 -0.021961 0)
(-0.0417707 -0.0238155 0)
(0.0388099 0.245698 0)
(0.0781076 0.304632 0)
(0.0893184 0.232899 0)
(0.0823002 0.153629 0)
(0.0680394 0.09358 0)
(0.0523194 0.0526466 0)
(0.0376685 0.0257544 0)
(0.0249591 0.00809424 0)
(0.0142411 -0.00378973 0)
(0.00523811 -0.0120774 0)
(-0.00240235 -0.0180491 0)
(-0.00898829 -0.0223878 0)
(-0.0147352 -0.0254019 0)
(-0.0197136 -0.0271711 0)
(-0.0238272 -0.0277474 0)
(-0.0269131 -0.0273294 0)
(-0.0288911 -0.026272 0)
(-0.0298215 -0.0249791 0)
(-0.0298729 -0.0238198 0)
(-0.0292609 -0.0230856 0)
(-0.0282008 -0.0230004 0)
(-0.0269162 -0.0237559 0)
(-0.0256463 -0.0254966 0)
(0.0264964 0.195473 0)
(0.0665236 0.270462 0)
(0.0882889 0.225029 0)
(0.0914845 0.160219 0)
(0.0842538 0.106033 0)
(0.0727835 0.066528 0)
(0.060381 0.038995 0)
(0.0485842 0.0199032 0)
(0.0379648 0.00644726 0)
(0.028625 -0.00327265 0)
(0.0204716 -0.0104514 0)
(0.013352 -0.0157951 0)
(0.00713782 -0.0196895 0)
(0.00177416 -0.0223302 0)
(-0.00270672 -0.0238574 0)
(-0.006235 -0.0244652 0)
(-0.0087835 -0.0244266 0)
(-0.0104072 -0.0240505 0)
(-0.0112353 -0.0236373 0)
(-0.0114421 -0.0234488 0)
(-0.0112209 -0.0237029 0)
(-0.0107917 -0.0245821 0)
(-0.0103921 -0.0262101 0)
(0.0154354 0.159469 0)
(0.0516583 0.234099 0)
(0.0787604 0.207922 0)
(0.0899673 0.158256 0)
(0.0896784 0.112375 0)
(0.0832362 0.0764971 0)
(0.074167 0.0499579 0)
(0.0644261 0.0305513 0)
(0.0549815 0.0162286 0)
(0.0462512 0.00547823 0)
(0.0383731 -0.00271527 0)
(0.0313567 -0.0089992 0)
(0.0251678 -0.013772 0)
(0.0197865 -0.0172785 0)
(0.015227 -0.0197003 0)
(0.0115175 -0.0212272 0)
(0.00865984 -0.0220841 0)
(0.00660422 -0.0225186 0)
(0.00524816 -0.0227787 0)
(0.00445056 -0.0230936 0)
(0.00404479 -0.0236643 0)
(0.00383006 -0.0246605 0)
(0.00358565 -0.0261942 0)
(0.00853061 0.134855 0)
(0.0387553 0.200029 0)
(0.066642 0.186027 0)
(0.0824987 0.149776 0)
(0.0876595 0.112964 0)
(0.0859506 0.0820893 0)
(0.0805308 0.057838 0)
(0.0734383 0.0391374 0)
(0.065851 0.0246826 0)
(0.0584016 0.0133977 0)
(0.0514054 0.00450283 0)
(0.0450058 -0.00253402 0)
(0.0392615 -0.00806876 0)
(0.0341979 -0.0123459 0)
(0.0298376 -0.0155549 0)
(0.0261983 -0.0178751 0)
(0.0232753 -0.0194988 0)
(0.0210274 -0.0206308 0)
(0.0193745 -0.0214782 0)
(0.0182044 -0.0222398 0)
(0.0173789 -0.0230965 0)
(0.0167235 -0.024204 0)
(0.0160426 -0.0256669 0)
(0.0054046 0.117451 0)
(0.0297436 0.170403 0)
(0.055591 0.1632 0)
(0.0730841 0.137509 0)
(0.0816908 0.10915 0)
(0.0836929 0.0837249 0)
(0.0815624 0.0625285 0)
(0.0771549 0.045288 0)
(0.0716755 0.0313262 0)
(0.0658531 0.0199845 0)
(0.0601081 0.0107375 0)
(0.0546739 0.00319728 0)
(0.0496781 -0.0029165 0)
(0.0451922 -0.00781395 0)
(0.0412573 -0.0116682 0)
(0.037897 -0.0146406 0)
(0.0351117 -0.0168963 0)
(0.0328727 -0.0186069 0)
(0.0311207 -0.0199476 0)
(0.0297694 -0.0210899 0)
(0.0287088 -0.0221948 0)
(0.0277924 -0.0234044 0)
(0.0268529 -0.0248167 0)
(0.00447608 0.103937 0)
(0.0241442 0.145496 0)
(0.0468572 0.141723 0)
(0.0640615 0.123753 0)
(0.074358 0.102544 0)
(0.0788286 0.0823296 0)
(0.0792478 0.0644437 0)
(0.0771748 0.049082 0)
(0.0737148 0.0360411 0)
(0.0695873 0.0250202 0)
(0.0652417 0.0157338 0)
(0.0609527 0.00794317 0)
(0.0568865 0.00145576 0)
(0.053146 -0.00388744 0)
(0.0497934 -0.00822859 0)
(0.0468635 -0.0117049 0)
(0.0443676 -0.014456 0)
(0.0422915 -0.0166261 0)
(0.0405954 -0.0183635 0)
(0.039217 -0.0198163 0)
(0.0380721 -0.0211269 0)
(0.0370419 -0.0224242 0)
(0.0359865 -0.0237999 0)
(0.00439415 0.0923776 0)
(0.0206923 0.1246 0)
(0.0402913 0.122436 0)
(0.0563227 0.109944 0)
(0.0670992 0.0945157 0)
(0.0729278 0.0789412 0)
(0.0750724 0.0642455 0)
(0.0748183 0.050871 0)
(0.0731036 0.0389611 0)
(0.0705598 0.028503 0)
(0.0676023 0.0194149 0)
(0.0645023 0.011592 0)
(0.0614369 0.00492629 0)
(0.0585231 -0.000688146 0)
(0.0558388 -0.00535743 0)
(0.0534309 -0.00919155 0)
(0.0513226 -0.0123056 0)
(0.0495145 -0.0148199 0)
(0.0479848 -0.0168599 0)
(0.0466924 -0.0185528 0)
(0.0455768 -0.0200242 0)
(0.0445441 -0.0213903 0)
(0.0434801 -0.0227366 0)
(0.00445941 0.0818715 0)
(0.0182667 0.106836 0)
(0.035211 0.105346 0)
(0.0498377 0.0967725 0)
(0.0603951 0.0860295 0)
(0.066752 0.0744703 0)
(0.0699181 0.0626071 0)
(0.0709949 0.0510865 0)
(0.0707168 0.0403329 0)
(0.0695736 0.0305539 0)
(0.0679046 0.0218225 0)
(0.0659478 0.0141385 0)
(0.063871 0.00746296 0)
(0.061794 0.00173674 0)
(0.0598025 -0.00311257 0)
(0.057954 -0.00716826 0)
(0.0562827 -0.0105224 0)
(0.0548025 -0.0132739 0)
(0.0535079 -0.015528 0)
(0.0523761 -0.0173937 0)
(0.0513671 -0.018981 0)
(0.0504089 -0.0203944 0)
(0.0494105 -0.0217125 0)
(0.00421784 0.0722638 0)
(0.016029 0.0914693 0)
(0.0308017 0.0900929 0)
(0.0440165 0.0843938 0)
(0.053996 0.0776272 0)
(0.0603907 0.0695644 0)
(0.0641467 0.06003 0)
(0.0662442 0.0500814 0)
(0.0671695 0.0403966 0)
(0.0672496 0.0313322 0)
(0.0667363 0.023059 0)
(0.0658259 0.0156447 0)
(0.0646705 0.00909923 0)
(0.063387 0.00339928 0)
(0.0620645 -0.00149905 0)
(0.0607687 -0.00565504 0)
(0.0595431 -0.0091396 0)
(0.0584129 -0.0120325 0)
(0.0573861 -0.0144208 0)
(0.0564555 -0.0163974 0)
(0.0555983 -0.0180581 0)
(0.0547617 -0.019496 0)
(0.053874 -0.0207828 0)
(0.00335841 0.0640935 0)
(0.0136611 0.0780438 0)
(0.0265222 0.0767549 0)
(0.0379158 0.073271 0)
(0.0469619 0.0696237 0)
(0.0534072 0.0644158 0)
(0.0578302 0.0566701 0)
(0.0609028 0.0480192 0)
(0.06291 0.0393154 0)
(0.0640655 0.030987 0)
(0.0645639 0.0232513 0)
(0.0645737 0.0162128 0)
(0.0642358 0.00991273 0)
(0.0636649 0.00435473 0)
(0.0629524 -0.00048157 0)
(0.0621697 -0.00463428 0)
(0.061367 -0.00815512 0)
(0.0605789 -0.0111065 0)
(0.059824 -0.0135594 0)
(0.0591078 -0.0155922 0)
(0.0584216 -0.0172877 0)
(0.0577284 -0.0187281 0)
(0.0569731 -0.0199781 0)
(0.00200737 0.0577543 0)
(0.0111068 0.0661496 0)
(0.0221313 0.0653968 0)
(0.0315704 0.0637822 0)
(0.0394683 0.0621399 0)
(0.0460406 0.0587515 0)
(0.0513427 0.0524093 0)
(0.0553911 0.0449364 0)
(0.0583558 0.0372087 0)
(0.0604195 0.0296671 0)
(0.0617597 0.0225465 0)
(0.0625357 0.0159733 0)
(0.0628842 0.0100119 0)
(0.0629192 0.00468861 0)
(0.0627335 3.86553e-06 0)
(0.062401 -0.00406113 0)
(0.0619767 -0.00754067 0)
(0.061501 -0.0104815 0)
(0.0610007 -0.0129404 0)
(0.060491 -0.0149827 0)
(0.0599743 -0.0166794 0)
(0.0594268 -0.0181024 0)
(0.0588074 -0.0193089 0)
(0.00258923 0.0523846 0)
(0.00972749 0.0564035 0)
(0.0181373 0.0561957 0)
(0.0257905 0.0558807 0)
(0.0328666 0.0551031 0)
(0.0395738 0.0524561 0)
(0.0455057 0.0472968 0)
(0.0502561 0.0409846 0)
(0.0539133 0.0342702 0)
(0.0566425 0.0275701 0)
(0.0586112 0.0211264 0)
(0.0599713 0.0150838 0)
(0.060855 0.00952799 0)
(0.0613731 0.00450658 0)
(0.0616162 3.99819e-05 0)
(0.0616574 -0.00387274 0)
(0.0615527 -0.00725011 0)
(0.0613453 -0.0101251 0)
(0.0610672 -0.0125423 0)
(0.0607405 -0.0145556 0)
(0.0603768 -0.0162254 0)
(0.0599629 -0.0176138 0)
(0.0594691 -0.0187706 0)
(0.00410177 0.0466197 0)
(0.00941938 0.04927 0)
(0.0154694 0.049098 0)
(0.0218072 0.049083 0)
(0.0283776 0.0483318 0)
(0.0349421 0.0459489 0)
(0.0409052 0.0417685 0)
(0.045874 0.0365378 0)
(0.0498511 0.0308121 0)
(0.0529496 0.0249557 0)
(0.0553069 0.0192063 0)
(0.0570558 0.0137213 0)
(0.0583159 0.00860504 0)
(0.0591887 0.00392467 0)
(0.0597576 -0.000280887 0)
(0.06009 -0.00399626 0)
(0.0602387 -0.00722642 0)
(0.0602466 -0.00999309 0)
(0.0601482 -0.012331 0)
(0.0599707 -0.0142846 0)
(0.0597325 -0.015905 0)
(0.0594295 -0.0172454 0)
(0.0590416 -0.0183478 0)
(0.00404061 0.0404625 0)
(0.00887442 0.0436753 0)
(0.0141742 0.043342 0)
(0.019891 0.0429771 0)
(0.0259171 0.0419663 0)
(0.0319271 0.0397878 0)
(0.0374751 0.0363546 0)
(0.0422587 0.0320268 0)
(0.0462201 0.0271761 0)
(0.0494134 0.0220963 0)
(0.0519344 0.0170054 0)
(0.0538881 0.0120632 0)
(0.0553741 0.00738657 0)
(0.056479 0.0030588 0)
(0.0572738 -0.000864999 0)
(0.0578152 -0.00435549 0)
(0.0581489 -0.00740717 0)
(0.0583143 -0.010034 0)
(0.0583467 -0.0122639 0)
(0.058277 -0.0141345 0)
(0.0581294 -0.0156889 0)
(0.0579076 -0.0169717 0)
(0.0575997 -0.0180173 0)
(0.00377237 0.0346262 0)
(0.00854307 0.038289 0)
(0.0137042 0.0379654 0)
(0.0190405 0.0373417 0)
(0.0244922 0.0362133 0)
(0.0298431 0.0342529 0)
(0.0348135 0.0313767 0)
(0.0391956 0.0277563 0)
(0.0429198 0.0236291 0)
(0.0460038 0.0192186 0)
(0.0485089 0.0147134 0)
(0.0505129 0.0102671 0)
(0.0520945 0.00600272 0)
(0.0533224 0.0020161 0)
(0.0542519 -0.00162356 0)
(0.0549248 -0.00487558 0)
(0.0553756 -0.0077281 0)
(0.0556383 -0.0101921 0)
(0.0557482 -0.0122929 0)
(0.05574 -0.0140637 0)
(0.0556432 -0.0155412 0)
(0.0554686 -0.016762 0)
(0.0552115 -0.017752 0)
(0.00373189 0.0290562 0)
(0.00846291 0.0328231 0)
(0.0135269 0.0327248 0)
(0.018534 0.0321397 0)
(0.0234562 0.0310851 0)
(0.0281769 0.0293737 0)
(0.0325481 0.0269427 0)
(0.0364448 0.0238791 0)
(0.0398126 0.0203365 0)
(0.0426558 0.0164825 0)
(0.0450154 0.0124763 0)
(0.0469498 0.0084613 0)
(0.0485198 0.00456362 0)
(0.0497781 0.000890197 0)
(0.0507621 -0.00247617 0)
(0.051495 -0.00548533 0)
(0.0519964 -0.00812464 0)
(0.0522941 -0.0104089 0)
(0.0524247 -0.0123657 0)
(0.0524279 -0.0140266 0)
(0.0523394 -0.015423 0)
(0.0521764 -0.0165828 0)
(0.0519406 -0.017523 0)
(0.00374168 0.0235213 0)
(0.00842538 0.0273857 0)
(0.0133487 0.0276815 0)
(0.0180397 0.0273524 0)
(0.0224835 0.0265208 0)
(0.0266366 0.0251002 0)
(0.0304419 0.0230596 0)
(0.0338384 0.0204534 0)
(0.0367959 0.0173876 0)
(0.0393205 0.0139912 0)
(0.0414452 0.0103993 0)
(0.043218 0.00674589 0)
(0.0446892 0.00315991 0)
(0.045899 -0.00023888 0)
(0.0468671 -0.00335094 0)
(0.0475932 -0.00611697 0)
(0.0480784 -0.00853144 0)
(0.0483454 -0.0106226 0)
(0.0484362 -0.0124266 0)
(0.0483988 -0.0139755 0)
(0.0482758 -0.0152943 0)
(0.0480905 -0.0164014 0)
(0.047849 -0.0173033 0)
(0.00371711 0.0180227 0)
(0.00834677 0.0220555 0)
(0.0130958 0.0228755 0)
(0.017473 0.0229546 0)
(0.0214754 0.0224583 0)
(0.0251157 0.0213721 0)
(0.028398 0.0197005 0)
(0.0313061 0.0174915 0)
(0.0338328 0.014827 0)
(0.0359919 0.0118108 0)
(0.0378169 0.00856016 0)
(0.0393534 0.00520153 0)
(0.0406493 0.0018687 0)
(0.0417395 -0.00130073 0)
(0.042627 -0.004182 0)
(0.0432808 -0.00670346 0)
(0.0436786 -0.00887986 0)
(0.0438434 -0.0107677 0)
(0.0438306 -0.0124178 0)
(0.0437009 -0.0138625 0)
(0.0435046 -0.0151177 0)
(0.043269 -0.0161892 0)
(0.0430017 -0.0170705 0)
(0.00370074 0.012587 0)
(0.0083007 0.0168499 0)