/*--------------------------------*- C++ -*----------------------------------*\
| =========                 |                                                 |
| \\      /  F ield         | OpenFOAM: The Open Source CFD Toolbox           |
|  \\    /   O peration     | Version:  2.3.0                                 |
|   \\  /    A nd           | Web:      www.OpenFOAM.org                      |
|    \\/     M anipulation  |                                                 |
\*---------------------------------------------------------------------------*/
FoamFile
{
    version     2.0;
    format      ascii;
    class       volScalarField;
    location    "2.45";
    object      alpha.water;
}
// * * * * * * * * * * * * * * * * * * * * * * * * * * * * * * * * * * * * * //

dimensions      [0 0 0 0 0 0 0];

internalField   nonuniform List<scalar> 
2268
(
0.997044
0.997044
0.992618
0.983031
0.990715
1
1
1
1
0.999999
0.997216
0.990699
0.990699
0.990699
0.997558
0.999871
0.999871
0.999709
0.999636
0.999803
0.999803
0.999802
0.999801
0.979858
0.977284
0.971556
0.99479
1
1
1
1
1
0.999999
0.999965
0.996487
0.990699
0.990708
0.994639
0.999871
0.999871
0.999606
0.999274
0.99938
0.999803
0.999803
0.999801
0.936308
0.892203
0.91827
1
1
1
1
0.999995
0.999999
0.999993
0.999994
0.999994
0.999155
0.991963
0.991965
0.995277
0.99987
0.99987
0.999608
0.999369
0.999603
0.999806
0.999805
0.892184
0.892161
0.892105
0.994233
1
1
1
0.999841
0.996137
0.971865
0.992786
0.999995
0.999995
0.99986
0.998238
0.999437
0.99987
0.99987
0.999868
0.999819
0.999818
0.999816
0.999815
0.892184
0.892184
0.892168
0.989703
1
1
0.999999
0.997593
0.94824
0.915934
0.930118
0.999955
0.999996
0.999996
0.999996
0.999996
0.999407
0.99987
0.999276
0.996283
0.984012
0.973257
0.993432
0.954269
0.917066
0.901729
0.964498
1
1
0.999997
0.980763
0.915946
0.915921
0.927938
0.999948
0.999816
0.9999
0.999993
0.999996
0.996763
0.983371
0.968179
0.950791
0.950694
0.950697
0.986118
0.992723
0.986921
0.948496
0.934123
0.981936
0.999997
0.999994
0.978906
0.921008
0.915966
0.998721
0.998435
0.998638
0.99993
0.999935
0.999996
0.995732
0.950735
0.950715
0.950694
0.950694
0.950694
0.9791
0.992657
0.992605
0.978492
0.934123
0.934563
0.994077
0.999983
0.999858
0.991601
0.959963
0.998753
0.998419
0.998679
0.99993
0.999904
0.999996
0.994223
0.95114
0.950735
0.961147
0.961888
0.950697
0.985943
0.964986
0.979563
0.952712
0.993406
0.998721
0.998144
0.997367
0.997724
0.998538
0.999114
0.999118
0.999118
0.999118
0.999118
0.89866
0.880564
0.906837
0.968334
0.968334
0.936058
0.943589
0.952359
0.999044
0.998735
0.993864
0.993677
0.993426
0.991688
0.991415
0.99562
0.99905
0.999118
0.999118
0.936345
0.880166
0.880037
0.917237
0.968332
0.936058
0.93606
0.979067
0.999047
0.999048
0.999048
0.999047
0.999045
0.994303
0.983343
0.983331
0.995044
0.999116
0.999118
0.929462
0.880035
0.880019
0.880017
0.939783
0.93606
0.958444
0.999045
0.999046
0.999048
0.999049
0.999048
0.999044
0.999016
0.99112
0.96902
0.989168
0.999039
0.985963
0.881054
0.880022
0.880021
0.880015
0.880737
0.941505
0.999028
0.999044
0.999045
0.999049
0.999053
0.999037
0.997765
0.999004
0.998311
0.958397
0.970309
0.998856
0.901858
0.8801
0.880064
0.942373
0.880011
0.897498
0.94155
0.994205
0.99903
0.998951
0.999052
0.999056
0.990075
0.990443
0.998818
0.998818
0.959624
0.921683
0.92076
0.880652
0.88041
0.900094
0.979735
0.951813
0.975221
0.961263
0.963896
0.996251
0.998967
0.999046
0.999022
0.985518
0.995292
0.998784
0.998822
0.968007
0.934226
0.957468
0.927164
0.892112
0.968389
0.982697
0.982698
0.982707
0.994048
0.963943
0.976473
0.998895
0.998928
0.987681
0.991579
0.997721
0.998737
0.998759
0.995396
0.986437
0.9862
0.985806
0.983191
0.983047
0.982703
0.982707
0.982707
0.992601
0.992604
0.982144
0.980785
0.974208
0.979966
0.999906
0.997538
0.995977
0.998765
0.998784
0.999532
0.999926
0.99993
0.999913
0.999994
0.998127
0.984329
0.97841
0.986214
0.986449
0.9866
0.994096
0.9926
0.99259
0.974189
0.994724
0.99469
0.994405
0.988737
0.988312
0.994734
0.996011
0.998773
0.999443
0.999908
0.999926
0.999914
0.989244
0.967434
0.925666
0.894559
0.888025
0.89164
0.845187
0.806146
0.9926
0.9926
0.986896
0.994725
0.993331
0.992005
0.990976
0.990998
0.983485
0.746086
0.603671
0.595667
0.754566
0.841401
0.869946
0.695453
0.435809
0.271708
0.191289
0.172454
0.209042
0.243073
0.208713
0.992608
0.992605
0.982035
0.981643
0.986585
0.991913
0.991575
0.7534
0.220387
0.0246866
0.000516517
0.000447383
0.00181636
0.0447778
0.0826546
0.110885
0.0674778
0.0173261
0.000557226
0.000484738
0.000479137
0.000468128
0.000442503
0.991911
0.721365
0.398865
0.32952
0.430864
0.483977
0.405168
0.126894
0.000764177
0.000561269
0.00056058
0.000424813
0.000341101
0.000363831
0.000399876
0.000455221
0.0046969
0.00078611
0.000770049
0.000949287
0.000705568
0.000535907
0.000733311
0.786601
0.12304
0.00119191
0.000371706
0.00039723
0.000402388
0.000412631
0.000455017
0.000616006
0.000596485
0.000598051
0.000617664
0.000316057
0.000337095
0.000615689
0.00208825
0.00267757
0.00256504
0.00228232
0.00147253
0.000799138
0.00139363
0.00268834
0.200422
0.000943723
0.000414367
0.000339111
0.000394834
0.00039883
0.000415274
0.000865987
0.00159421
0.00159485
0.00157333
0.000489048
0.000183888
0.000419448
0.00123704
0.00134167
0.0012208
0.00187334
0.00206602
0.00206043
0.00148638
0.00146617
0.00259252
0.000924164
0.000352894
0.000335564
0.000334018
0.000331329
0.00110932
0.00111091
0.00111091
0.000789153
0.000194282
7.92981e-05
3.97704e-05
0.000143638
0.000219385
2.58557e-05
2.61464e-05
2.94132e-05
6.51825e-05
0.00011175
0.000459633
0.002772
0.00405906
0.00141306
0.000320323
0.000210982
0.000320975
0.00050419
0.000331222
0.000578714
0.00111091
0.00037729
1.1461e-05
1.04895e-05
1.03248e-05
1.03272e-05
1.03243e-05
1.03259e-05
1.03987e-05
3.34972e-05
7.09233e-05
5.63011e-05
5.63011e-05
5.62673e-05
0.00358802
0.00455523
0.0038222
0.000195216
0.000183438
0.000328734
0.00061596
0.000353114
1.60936e-05
0.000122016
9.93656e-06
1.05105e-05
1.03574e-05
1.03394e-05
1.03207e-05
1.03299e-05
1.04092e-05
1.01718e-05
0.000150375
0.000212069
0.000200695
5.62101e-05
5.79021e-05
0.000581828
0.0044201
0.00475707
0.000184346
0.000182168
0.000576658
0.000615984
0.000316682
1.07477e-05
9.42875e-06
9.05131e-06
1.20179e-05
1.8875e-05
1.84733e-05
1.16773e-05
1.36071e-05
9.94074e-06
9.58286e-06
4.72135e-05
0.000189293
0.000201057
6.7102e-05
5.96444e-05
7.97871e-05
0.000639607
0.0041176
0.000182099
0.000181864
0.000396281
0.000615984
0.000150861
9.5098e-06
9.04272e-06
8.88386e-06
1.56032e-05
2.05203e-05
2.05229e-05
2.05234e-05
2.05229e-05
1.61399e-05
9.49789e-06
9.46295e-06
9.65948e-06
9.42788e-05
0.000145943
0.000743287
0.000876298
0.000512808
0.000162459
0.000181839
0.000181712
0.000184729
0.000615984
0.000161461
9.04425e-06
8.76248e-06
8.68946e-06
8.88931e-06
1.65847e-05
2.05196e-05
2.05229e-05
2.05236e-05
1.88971e-05
8.53406e-06
9.22194e-06
9.95355e-06
1.08601e-05
0.000869876
0.00157949
0.00157949
0.000719758
8.19948e-05
0.000407029
0.000181607
0.00018467
0.000547166
0.000424584
4.13458e-05
8.40672e-06
8.1077e-06
8.13698e-06
8.06492e-06
8.06377e-06
1.61261e-05
2.04876e-05
8.40133e-06
8.24457e-06
1.76844e-05
1.09308e-05
1.17531e-05
0.00134673
0.00156652
0.00157983
0.000409358
7.69236e-05
0.000766176
0.000590821
0.000186785
0.000205875
0.000423228
0.000234711
9.1792e-06
7.95538e-06
8.05642e-06
8.05642e-06
8.05647e-06
8.42893e-06
9.85235e-06
8.06439e-06
8.12728e-06
8.26069e-06
4.25933e-05
6.719e-05
0.000458449
0.00125942
0.000303506
8.97442e-05
7.99522e-05
0.000657035
0.000825773
0.000797066
0.000259196
0.000110123
5.41292e-05
8.76329e-06
7.80151e-06
7.94746e-06
8.06609e-06
8.02343e-06
8.08372e-06
8.08204e-06
8.08028e-06
8.02682e-06
8.19256e-06
0.000262195
0.000360346
0.000190683
0.00013522
0.000127395
0.000120174
0.000239594
0.000678377
0.00188281
0.00249406
0.00223745
0.000398084
1.67078e-05
9.00953e-06
7.76466e-06
7.7466e-06
8.11193e-06
8.10588e-06
8.10242e-06
8.09178e-06
8.01918e-06
7.95654e-06
8.55626e-06
0.000345076
0.000360388
0.000134829
0.0001367
0.000156697
0.000293733
0.0014664
0.00243844
0.00249221
0.00252435
0.00252435
0.00252435
0.000730269
1.63467e-05
8.78372e-06
7.72209e-06
7.78697e-06
8.14323e-06
8.1111e-06
8.02907e-06
7.97447e-06
2.71067e-05
0.000145156
0.000162663
0.000264984
4.6109e-05
0.000251663
0.000323207
0.000477157
0.00120264
0.00258242
0.00172182
0.00154228
0.00252435
0.00252345
0.00252271
0.000508345
1.50168e-05
8.62212e-06
8.09157e-06
8.13064e-06
8.15803e-06
8.08814e-06
7.99945e-06
0.000268244
0.000283182
6.13404e-05
1.61886e-06
2.91056e-06
0.000210016
2.62946e-05
4.11735e-05
0.0001418
0.00257889
0.000360308
0.000359749
0.00177523
0.00252256
0.00250014
0.00131051
2.31165e-05
1.04595e-05
8.89609e-06
8.59685e-06
8.2344e-06
9.42177e-06
0.000235568
0.00034299
0.000197836
4.03235e-06
1.38072e-06
7.46529e-06
5.9213e-05
5.17969e-06
1.40531e-05
7.49778e-06
0.00136645
0.000359749
0.000359203
0.000358708
0.00112502
0.000965553
0.00029548
1.29675e-05
1.1458e-05
1.04609e-05
3.34686e-05
0.000305639
0.000449023
0.000449023
0.000346989
1.33356e-05
1.38072e-06
1.35031e-06
1.2371e-06
1.0179e-06
4.33657e-06
4.63324e-06
5.50291e-06
0.00125696
0.000360441
0.000359749
0.000360184
0.000506269
0.000227201
0.000226052
0.000239413
0.000655376
0.00130614
0.00138434
0.00137952
0.000412524
2.71805e-06
2.93e-06
2.94065e-06
2.9111e-06
2.50671e-06
4.15982e-07
9.97262e-07
1.20924e-05
5.25215e-06
5.99969e-06
0.00207986
0.000455904
0.000360441
0.000915644
0.00123556
0.00139494
0.00138901
0.00144659
0.00145342
0.00145231
0.000736205
0.000188849
9.30973e-06
2.54463e-06
3.0677e-06
8.97727e-06
9.99605e-06
2.28495e-06
3.43087e-07
3.31611e-07
2.02277e-05
7.26164e-05
6.79937e-06
0.00207986
0.000599627
0.00041835
0.000384566
7.69545e-06
0.000741771
0.00139618
0.00113486
0.000426566
0.000172603
6.0033e-06
3.16272e-06
3.16272e-06
3.28651e-06
9.09949e-06
1.54489e-05
1.54629e-05
1.54769e-05
1.02167e-06
3.31611e-07
8.04674e-06
8.72507e-05
6.4742e-05
0.00207919
0.000450008
0.000453248
3.73718e-05
5.45518e-06
0.000113372
0.000196284
4.09473e-05
3.85024e-06
3.75446e-06
4.80151e-06
7.74126e-06
6.53063e-06
5.33074e-06
4.31643e-06
5.73719e-06
1.54769e-05
1.54769e-05
1.53243e-05
1.00699e-06
1.39161e-06
8.72564e-05
8.71135e-05
0.00207495
0.000308693
0.000213744
1.72986e-05
3.65483e-06
3.71854e-06
3.71579e-06
3.66875e-06
3.64371e-06
3.65246e-06
4.92826e-06
1.3347e-05
1.24877e-05
4.67694e-06
4.31643e-06
4.45914e-06
9.80569e-06
1.54769e-05
1.54002e-05
5.2894e-06
1.5131e-06
1.93132e-05
7.2354e-05
0.00206529
0.000457921
0.000124338
2.15014e-05
3.6544e-06
3.65483e-06
3.65161e-06
3.64963e-06
3.64314e-06
3.63205e-06
3.7092e-06
1.1704e-05
1.20383e-05
1.85173e-05
4.67694e-06
4.8332e-06
3.16247e-06
8.70503e-06
1.53714e-05
1.53068e-05
3.87394e-06
3.30409e-07
6.02471e-06
0.00194811
0.00097219
7.53825e-05
3.13882e-05
3.65482e-06
3.66305e-06
3.64985e-06
3.64963e-06
3.65114e-06
3.6427e-06
3.75315e-06
2.19504e-05
0.000212157
0.000916817
0.000142285
2.3431e-05
3.2044e-06
2.45122e-06
1.21664e-05
1.51019e-05
4.72969e-06
2.11799e-07
2.01564e-07
0.000305095
0.0010316
0.000124669
3.26727e-05
5.17826e-06
1.87256e-05
1.40695e-05
3.65103e-06
3.65279e-06
1.04359e-05
2.69606e-05
2.63389e-05
0.000985057
0.00138795
0.00120277
0.00013379
5.99247e-06
2.36605e-06
2.33297e-06
5.89577e-06
2.19994e-06
1.8409e-07
1.8506e-07
0.000282579
0.000436058
0.000160812
0.000274424
5.21972e-06
1.26352e-05
3.69999e-05
2.32885e-05
3.87552e-06
7.8671e-06
1.50681e-05
1.53001e-05
0.00137513
0.00138908
0.00138874
0.000517241
4.31926e-06
4.2365e-06
2.6018e-07
2.22814e-07
1.84091e-07
1.82581e-07
1.84092e-07
0.000282579
0.000282579
0.000406775
0.00172296
0.000213338
1.30721e-05
3.69999e-05
3.69999e-05
1.36566e-05
5.46266e-06
5.54831e-06
8.78079e-05
0.00137539
0.00138795
0.00138881
0.000568438
7.28765e-06
1.28722e-05
5.8778e-06
2.30812e-06
1.82579e-07
1.83575e-07
2.10054e-06
0.000282579
0.000703877
0.00101537
0.00177631
0.00178406
0.000224109
2.16516e-05
2.10798e-05
5.97054e-06
5.46218e-06
5.46184e-06
0.000903687
0.00136532
0.00138353
0.00119548
0.000150931
8.12835e-06
1.23493e-05
1.24981e-05
1.24981e-05
1.20372e-05
1.09719e-05
1.08805e-05
0.00053727
0.00170209
0.00176701
0.00178269
0.00178192
0.00115948
3.42767e-05
5.71347e-06
5.61421e-06
5.46266e-06
8.12802e-05
0.00130545
0.00135174
0.000806332
8.52322e-05
2.41658e-07
3.35922e-06
1.09503e-05
9.60721e-06
8.93561e-06
9.16575e-06
5.90379e-06
4.24093e-06
0.000781557
0.000361605
0.000256864
0.00120199
0.00178504
0.00132076
4.65346e-05
5.55099e-06
5.67766e-06
6.06057e-06
0.000830609
0.00125666
0.000376965
3.09682e-10
2.86138e-10
4.26352e-10
7.02696e-08
5.02973e-07
2.85017e-07
3.41061e-07
5.45721e-07
3.29316e-08
1.80117e-09
0.000359196
5.66979e-07
1.2533e-06
1.56038e-06
0.000233975
0.000827343
5.55099e-06
5.51436e-06
5.90524e-06
0.000959661
0.000999579
0.000445861
7.67938e-11
2.97744e-10
2.70053e-10
1.91912e-10
1.89094e-10
1.29099e-10
1.09858e-10
1.12491e-10
1.3427e-10
5.9053e-11
5.94487e-11
1.87217e-07
2.64771e-07
5.6698e-07
2.75985e-06
0.000106703
0.000183704
5.51436e-06
5.53306e-06
0.00099545
0.000999105
0.000823618
4.5895e-12
6.88178e-11
5.36183e-10
1.79489e-10
1.90333e-10
2.25013e-10
1.0999e-10
8.54688e-11
5.82093e-11
1.05041e-11
1.00683e-11
1.2321e-11
1.87217e-07
1.41114e-05
4.50869e-05
1.40892e-05
2.81624e-05
4.07096e-05
0.000128895
0.00094691
0.000999105
0.000756745
6.12467e-13
3.62775e-12
6.84751e-11
3.28887e-11
2.41668e-10
1.13898e-09
1.38521e-09
1.08767e-10
8.54739e-11
5.75752e-11
7.02657e-12
7.34633e-12
7.38341e-12
1.89848e-07
2.1915e-05
0.000147985
0.000150718
0.000434297
0.00100695
0.000896956
0.000936849
0.000501185
5.04003e-13
4.12078e-13
3.62774e-12
8.97975e-12
1.62563e-11
2.39819e-10
1.82099e-09
2.95046e-09
2.21177e-10
8.92668e-11
7.63527e-11
6.47437e-12
6.6867e-12
5.93024e-12
3.4829e-07
3.53907e-07
9.22972e-05
0.000526646
0.00139579
0.00139616
0.000940257
9.46682e-05
9.80704e-08
9.14163e-08
3.83034e-13
3.03631e-12
7.33902e-12
1.4986e-11
1.61502e-10
1.7623e-09
3.08261e-09
4.07326e-10
5.62904e-11
5.28255e-11
2.22116e-12
2.33889e-12
1.78227e-12
3.4765e-07
6.00988e-06
4.74211e-05
0.00116865
0.00119894
0.00106791
5.81266e-08
5.80552e-08
1.64711e-06
2.2729e-06
3.83023e-13
1.47903e-12
3.86089e-12
7.469e-12
2.6647e-11
8.60961e-10
2.86939e-09
1.92303e-10
2.11894e-11
2.53033e-11
8.24596e-13
7.26371e-13
4.42931e-13
2.26355e-07
1.26593e-06
8.40158e-07
0.000247118
9.54512e-05
8.39242e-05
5.80553e-08
9.91241e-08
3.54481e-07
1.94214e-07
4.80999e-14
5.45198e-13
1.39373e-12
2.09745e-12
9.77324e-12
8.49093e-11
4.7856e-10
5.58463e-11
3.24764e-12
4.28195e-12
2.56648e-13
1.61477e-13
8.30524e-14
5.38417e-93
4.00306e-98
8.39353e-07
4.91726e-15
2.25277e-17
1.82934e-05
7.09962e-07
1.26747e-25
1.78867e-23
1.69008e-20
4.80925e-14
1.04192e-13
4.48681e-15
1.2388e-15
1.51731e-14
1.0898e-14
3.63254e-14
2.23404e-12
3.03116e-13
4.74595e-13
4.97226e-14
2.43447e-14
1.17811e-14
0.994128
0.99413
0.994132
0.994132
0.802083
0.815152
0.784037
0.751468
0.135993
0.100451
0.0773036
0.0624591
0.000393044
0.000327725
0.000261176
0.000209537
0.00123121
0.00148666
0.00137801
0.00108244
0.00489976
0.00498432
0.00500848
0.0045962
0.00310595
0.00438938
0.00507851
0.00504501
0.0013881
0.00139383
0.00277503
0.00504501
0.00143152
0.0013881
0.00141637
0.00480577
0.00468613
0.00153011
0.0045807
0.00578959
0.00546274
0.0056749
0.00577129
0.00579019
0.000212923
0.000469236
0.00318558
0.00578292
7.69869e-05
7.77101e-05
7.75591e-05
0.000581256
7.80913e-05
7.78739e-05
7.7709e-05
7.78605e-05
7.71616e-05
7.77211e-05
7.7975e-05
0.000635212
0.000379581
0.00235692
0.00236209
0.00236209
0.00229927
0.00233459
0.000683114
0.000639527
0.000459299
0.00026654
0.000122044
0.000120404
4.54509e-05
6.37358e-05
9.24913e-05
0.000125824
1.69083e-05
0.000128067
0.000292636
0.000291321
9.80946e-06
0.000145816
0.000291321
0.000289605
8.5843e-06
4.53632e-05
0.000153423
0.000260491
7.84472e-06
9.94622e-06
1.73728e-05
3.47402e-05
4.74496e-05
1.97253e-05
1.83839e-05
2.08806e-05
8.63488e-05
8.61508e-05
8.39949e-05
3.50449e-05
8.61508e-05
8.61508e-05
8.61508e-05
8.61364e-05
2.26348e-05
3.24927e-05
7.65345e-05
8.49486e-05
2.24372e-07
3.2499e-07
6.23944e-06
2.09601e-05
1.86234e-07
1.91348e-07
2.56374e-07
5.15567e-07
1.85096e-07
1.86231e-07
3.59213e-06
9.90858e-06
4.94321e-06
9.33229e-06
1.10373e-05
1.10105e-05
1.0783e-05
1.07735e-05
1.05682e-05
6.78159e-06
4.62339e-06
3.62242e-06
1.39811e-06
2.06511e-07
1.87715e-09
1.38152e-09
5.62818e-10
1.34238e-10
8.04492e-11
5.66954e-11
2.78589e-11
1.23773e-11
1.45915e-11
1.30574e-11
1.07397e-11
8.10259e-12
8.47152e-12
1.0236e-11
8.67974e-12
6.83594e-12
4.81998e-12
3.31313e-12
1.87447e-12
1.17874e-12
1.03244e-12
5.68643e-13
2.75012e-13
1.82708e-13
2.02143e-13
9.42638e-14
4.09715e-14
2.81084e-14
3.40717e-14
1.45867e-14
5.86725e-15
3.96843e-15
4.76039e-15
1.9681e-15
7.37754e-16
4.74382e-16
0.994087
0.978433
0.978104
0.92662
0.810049
0.824177
0.904269
0.949979
0.946713
0.876517
0.893492
0.929644
0.950629
0.970726
0.976113
0.964864
0.942744
0.944436
0.956217
0.708264
0.624276
0.453766
0.302851
0.239849
0.229857
0.259465
0.290755
0.320386
0.33949
0.346958
0.324924
0.298093
0.346561
0.39807
0.352358
0.269637
0.262739
0.288935
0.0392931
0.00811275
0.000120787
9.32153e-05
8.28958e-05
7.4985e-05
7.00253e-05
6.79794e-05
6.36232e-05
5.52813e-05
5.01684e-05
0.0171263
0.0337062
0.0332771
0.0243312
0.00300086
0.00132652
0.000748303
0.000799467
0.000171522
0.000133351
0.000110848
0.000107876
9.38109e-05
7.99435e-05
7.54859e-05
7.54154e-05
7.25468e-05
5.50699e-05
4.65081e-05
5.01805e-05
6.3671e-05
0.00010425
0.000141636
0.000885948
0.00154671
0.000577831
0.00057498
0.00138762
0.00125344
0.00108895
0.00018877
8.95358e-05
8.4549e-05
0.000113059
0.000125483
0.000116234
4.76739e-05
2.80296e-05
0.000370832
0.00152883
0.00199596
0.00200104
0.00255125
0.00255161
0.00056075
0.000555991
0.0023248
0.00205236
0.00178032
0.000859539
0.000534321
0.00036808
0.000175729
0.000173821
0.000173522
9.36664e-05
2.58995e-05
7.2905e-05
0.000432036
0.00107967
0.00158369
0.00239539
0.00177142
0.00055598
0.000554095
0.00180377
0.000939184
0.0018017
0.00179609
0.00178933
0.000913836
5.80027e-05
9.51608e-05
3.65942e-05
2.50883e-05
2.50883e-05
2.58995e-05
2.92034e-05
0.000229827
0.00080704
0.00079822
0.000796983
0.00113781
0.000553944
0.0033994
0.00093654
0.00158144
0.00163642
0.00146521
0.000481839
3.89317e-05
2.55354e-05
2.52919e-05
2.50851e-05
6.71868e-05
0.00014131
3.83486e-05
4.7422e-05
0.000426873
0.000982347
0.00165958
0.00176388
0.000553944
0.00578947
0.00115827
0.000273126
0.000175754
0.000155066
4.03078e-05
2.80289e-05
2.57269e-05
2.55354e-05
0.00010927
0.000421404
0.000439353
0.000119878
6.70551e-05
0.000388627
0.00168594
0.00177229
0.0017692
0.00171873
0.00579019
0.00139284
3.34895e-05
2.30116e-05
2.43732e-05
2.47959e-05
2.55678e-05
2.5916e-05
0.000148998
0.00043935
0.000439353
0.000439353
0.000437713
0.000130111
0.000166688
0.000292387
0.000748627
0.000903645
0.00056082
0.00578939
0.00185109
2.39516e-05
2.33211e-05
2.3361e-05
2.41271e-05
2.48729e-05
0.000140731
0.000430695
0.000438892
0.000418226
0.000413114
0.000435212
0.000321233
0.000170583
0.000177505
0.000562017
0.000493252
0.000492567
0.00579018
0.00216452
2.33152e-05
2.32332e-05
2.33211e-05
2.34034e-05
0.000130996
0.000417737
0.000428818
0.000336653
3.32638e-05
2.35015e-05
0.00027147
0.000384585
0.00020785
0.000289392
0.000980132
0.000982522
0.00115584
0.00574038
0.00230324
2.32327e-05
2.32332e-05
2.31942e-05
0.00010455
0.000357356
0.000360152
0.000133117
2.5903e-05
2.35015e-05
2.27268e-05
2.29223e-05
0.000229656
0.000238761
0.000241596
0.00100148
0.00125463
0.00125494
0.00485331
0.00186467
2.41267e-05
2.32332e-05
8.69826e-05
0.000281924
0.000275649
4.15361e-05
4.41366e-05
5.97432e-05
0.000125426
8.33543e-05
2.27268e-05
7.40588e-05
0.000227848
0.000172215
0.000521002
0.00125443
0.00125494
0.00483375
0.000349543
2.47181e-05
3.10692e-05
0.000280415
0.000280147
3.68582e-05
3.75358e-05
9.70727e-05
0.00014017
0.000140208
0.000140204
0.000126344
1.225e-05
9.12566e-05
6.83292e-05
2.24191e-05
0.000247525
0.00125494
0.0014824
3.27911e-05
2.55291e-05
0.000246997
0.000277774
3.04723e-05
3.13863e-05
0.000131139
0.000139127
0.000139612
0.000140154
0.000139629
9.68544e-05
5.98032e-06
4.71431e-07
4.48094e-06
4.18986e-07
4.2804e-07
0.00123976
6.937e-05
5.43049e-05
0.000121276
0.000246904
0.000116531
2.70744e-05
0.000126094
0.000138051
0.000138886
0.000133043
5.83587e-05
1.44859e-06
4.22115e-07
7.70277e-07
3.48433e-07
3.56168e-07
3.4565e-07
3.92025e-07
0.0010892
9.59809e-05
0.000128693
0.000271331
0.000161454
8.1961e-06
3.72346e-05
0.000136656
0.000137486
6.27624e-05
2.03513e-05
1.24418e-05
4.73026e-07
3.87327e-07
3.48367e-07
3.40553e-07
3.41619e-07
3.40139e-07
5.08179e-06
0.00109999
0.000267852
0.000293048
0.000277876
5.342e-05
7.5553e-06
0.000128193
0.000136018
7.37808e-05
2.01787e-08
0.000110963
0.000129821
6.59976e-05
7.02798e-07
3.40921e-07
3.40301e-07
3.40034e-07
3.40064e-07
3.40449e-07
0.00109845
0.000289699
0.000289769
0.000259482
7.5553e-06
7.43028e-06
0.000112161
8.93996e-05
1.40714e-08
1.4037e-08
0.000175711
0.000174053
0.000150025
5.9316e-06
3.40288e-07
3.40011e-07
3.39935e-07
3.39925e-07
5.22514e-06
0.000765831
0.000290178
0.000289875
0.000288815
5.92216e-05
4.16625e-06
1.4291e-05
9.1825e-09
1.32933e-08
1.41445e-08
7.87521e-05
0.00026228
0.000138439
1.1112e-05
3.40011e-07
3.39952e-07
3.39963e-07
3.39923e-07
0.000198582
0.000537312
0.000289903
0.000290178
0.000289887
4.47718e-05
1.46353e-08
9.18251e-09
8.88552e-09
9.11423e-09
4.71799e-08
7.67227e-05
0.000697198
9.30512e-05
4.76918e-05
3.39954e-07
3.39952e-07
3.3995e-07
3.45731e-06
0.000431412
0.000403285
7.06019e-05
0.000290062
0.000210476
1.28312e-05
1.48015e-08
7.97874e-09
8.48614e-09
6.90264e-09
1.61872e-05
0.000464171
0.000698884
0.000437392
0.000128155
3.39985e-07
3.39954e-07
3.39982e-07
3.43985e-06
0.000447141
0.000486485
2.28498e-05
0.000163938
0.000135924
1.28194e-05
1.66594e-08
7.11847e-09
6.48047e-09
4.92347e-09
6.86376e-05
0.000698884
0.000698884
0.000698884
0.000126977
5.46775e-05
3.39985e-07
3.40013e-07
9.49529e-07
0.000344801
0.00100662
2.60766e-05
0.000136649
0.000121219
1.20937e-05
1.68167e-08
6.04429e-09
4.92351e-09
4.92344e-09
5.71531e-05
0.000698569
0.000698884
0.00069229
6.30604e-05
0.000119521
4.2345e-06
3.40033e-07
3.40015e-07
7.10594e-05
0.00100662
8.38906e-05
7.39614e-05
4.4313e-05
4.35281e-06
4.68707e-08
5.32582e-08
5.97342e-08
4.92365e-09
3.04601e-07
0.000336698
0.000698319
0.00059934
4.82431e-05
4.7896e-05
3.56237e-05
3.4004e-07
3.40038e-07
3.4269e-07
0.000881499
5.68192e-05
2.49721e-06
6.11443e-08
7.92395e-08
9.10721e-08
3.18118e-07
4.09274e-07
6.85166e-08
1.34954e-09
2.52785e-05
0.000603043
0.000621475
0.000483709
2.10285e-05
2.06603e-05
3.40044e-07
3.40047e-07
3.40262e-07
0.000841218
5.14845e-06
6.11441e-08
4.71164e-08
5.20451e-08
1.51238e-07
4.44235e-07
4.40671e-07
1.09102e-07
2.85226e-10
2.62112e-10
3.04758e-05
0.000621749
0.000617258
4.14363e-05
3.40049e-07
3.40047e-07
3.40048e-07
3.40067e-07
0.000950091
3.38968e-06
9.37633e-07
1.92191e-08
6.85937e-08
4.38244e-07
4.44235e-07
3.06661e-07
1.35832e-08
2.62352e-10
2.58201e-10
2.62112e-10
5.70538e-05
0.000488281
0.0010224
0.000129043
3.40048e-07
3.40052e-07
0.000102911
0.00114747
9.90733e-06
6.38448e-07
2.66823e-09
1.4006e-07
4.34168e-07
3.36347e-07
2.41225e-08
2.66693e-10
2.58474e-10
2.58075e-10
5.45614e-09
5.55292e-09
4.17783e-05
0.00104191
0.00113479
0.000433502
9.55299e-05
0.0010374
0.00116644
6.40234e-06
3.35126e-08
4.14648e-10
3.12882e-08
3.25725e-08
6.7501e-09
4.19775e-09
2.19015e-09
3.36036e-10
2.52599e-10
2.83511e-08
3.83819e-08
3.86595e-08
4.53425e-08
0.00114408
0.00115409
0.00112957
0.00116644
0.00116644
5.53954e-07
3.41237e-10
2.35882e-10
2.50986e-09
1.58392e-08
1.74193e-08
9.52084e-09
6.56438e-10
2.32686e-10
2.39758e-10
4.85076e-10
3.65406e-08
5.04572e-08
5.10271e-08
0.000559399
0.00115631
0.00115868
0.00116341
0.000731918
3.27412e-10
8.1261e-11
2.14133e-10
9.31272e-09
1.64122e-08
1.18498e-08
1.47392e-09
2.30763e-10
2.24894e-10
-1.88559e-10
9.34788e-09
5.25777e-08
5.20542e-08
5.12824e-08
0.000460087
0.00115424
0.00115661
0.000360983
0.000247309
2.17199e-11
7.11429e-11
8.70971e-10
5.09301e-09
2.83393e-09
4.32402e-10
3.42876e-10
2.30451e-10
2.24027e-10
2.23351e-10
0.000204476
0.000211956
3.37641e-05
5.49356e-08
0.00012566
0.000568641
0.000386272
0.000234985
0.000245499
1.44837e-11
6.96719e-11
6.74925e-10
4.11817e-10
2.74247e-10
5.70215e-10
3.88797e-10
2.16314e-10
2.08261e-10
3.94016e-05
0.00044271
0.000442628
0.000163668
5.80139e-07
2.24539e-06
4.58665e-06
3.18424e-05
0.000314292
1.15341e-08
1.29332e-11
4.42962e-11
9.0989e-11
3.21093e-11
2.62106e-10
5.1485e-10
2.10662e-10
1.96694e-10
1.97754e-10
0.000112587
0.000442628
0.000442631
0.00011004
2.34967e-06
2.68819e-06
2.83874e-06
3.43828e-05
0.000336769
1.15341e-08
4.88372e-12
1.392e-11
8.27239e-12
1.64445e-11
7.39246e-11
9.02249e-11
5.20596e-11
5.08936e-11
1.77055e-10
0.000112601
0.000441778
0.000442614
0.000184087
2.68581e-06
2.68581e-06
2.68819e-06
0.000171087
0.000336692
1.15434e-08
1.13595e-12
2.8414e-12
2.26386e-12
4.81152e-12
1.23047e-11
2.00678e-11
1.95465e-11
2.1646e-11
4.84325e-10
1.84905e-05
0.00035461
0.000441272
0.00035594
2.68516e-06
2.80269e-05
7.05881e-05
0.000202744
0.00020298
1.15526e-08
2.20456e-13
5.21962e-13
6.88321e-13
1.482e-12
2.74465e-12
8.35193e-12
8.823e-12
1.17825e-11
1.83561e-10
2.18877e-08
0.000119351
0.00043951
0.000435999
0.000229311
1.80701e-05
8.41135e-05
0.000163143
3.38885e-07
1.41042e-08
3.96916e-14
1.05604e-13
2.32775e-13
5.58437e-13
1.15474e-12
3.62366e-12
1.09015e-11
1.22775e-11
3.47612e-11
1.21173e-10
3.56785e-09
9.58631e-05
0.000239672
0.000148994
5.3317e-07
1.31543e-05
6.78444e-06
1.48443e-08
1.4745e-08
6.32104e-15
2.02028e-14
5.97469e-14
1.64636e-13
4.07276e-13
1.313e-12
5.80877e-12
1.16229e-11
1.77926e-11
2.22831e-11
4.49403e-11
1.05629e-09
1.05565e-06
2.59469e-06
4.59398e-07
2.74671e-08
1.47453e-08
5.99291e-08
4.99207e-09
8.21533e-16
3.01078e-15
1.03057e-14
3.16366e-14
8.86614e-14
3.0435e-13
1.78564e-12
8.78404e-12
1.70576e-11
2.24221e-11
3.20967e-11
3.06055e-10
1.20788e-09
3.29798e-08
5.22585e-08
1.74444e-08
1.22921e-08
1.20375e-08
3.34153e-10
)
;

boundaryField
{
    leftWall
    {
        type            zeroGradient;
    }
    rightWall
    {
        type            zeroGradient;
    }
    lowerWall
    {
        type            zeroGradient;
    }
    atmosphere
    {
        type            inletOutlet;
        inletValue      uniform 0;
        value           nonuniform List<scalar> 
46
(
0
0
0
0
0
1.82934e-05
0
0
0
0
0
0
0
0
0
0
0
2.23404e-12
3.03116e-13
4.74595e-13
4.97226e-14
2.43447e-14
1.17811e-14
4.76039e-15
1.9681e-15
7.37754e-16
4.74382e-16
8.21533e-16
3.01078e-15
1.03057e-14
3.16366e-14
8.86614e-14
3.0435e-13
1.78564e-12
8.78404e-12
1.70576e-11
2.24221e-11
3.20967e-11
3.06055e-10
1.20788e-09
3.29798e-08
5.22585e-08
1.74444e-08
1.22921e-08
0
0
)
;
    }
    defaultFaces
    {
        type            empty;
    }
}


// ************************************************************************* //
