/*--------------------------------*- C++ -*----------------------------------*\
| =========                 |                                                 |
| \\      /  F ield         | OpenFOAM: The Open Source CFD Toolbox           |
|  \\    /   O peration     | Version:  2.3.0                                 |
|   \\  /    A nd           | Web:      www.OpenFOAM.org                      |
|    \\/     M anipulation  |                                                 |
\*---------------------------------------------------------------------------*/
FoamFile
{
    version     2.0;
    format      ascii;
    class       volScalarField;
    location    "2.45";
    object      p_rgh;
}
// * * * * * * * * * * * * * * * * * * * * * * * * * * * * * * * * * * * * * //

dimensions      [1 -1 -2 0 0 0 0];

internalField   nonuniform List<scalar> 
2268
(
1023.64
1015.53
1011.43
1003.1
986.616
965.685
945.671
926.691
910.933
899.883
887.232
868.287
847.669
830.141
814.576
800.93
789.085
777.541
765.668
753.815
744.12
741.296
745.742
1022.99
1013.47
1010.52
1004.95
988.228
966.471
944.755
923.717
907.976
898.267
886.446
867.964
847.407
829.897
813.835
800.127
788.699
777.317
765.461
753.459
742.95
739.513
745.297
1020.08
1004.48
1003.08
1005.87
988.779
966.887
943.25
920.866
905.096
895.659
884.378
866.898
847.495
829.34
813.026
799.283
788.171
776.39
764.397
751.833
741.335
738.249
745.469
1017.81
1005.79
997.21
1005.64
989.197
966.813
942.095
918.343
901.183
886.917
879.245
862.763
845.327
829.26
813.697
800.048
787.458
774.379
761.465
749.247
738.827
736.752
746.592
1022.15
1007.35
996.454
1006.15
990.07
967.11
941.988
916.672
887.388
869.498
859.467
857.597
841.425
827.433
814.05
800.644
786.573
771.79
757.987
744.71
730.883
726.657
744.294
1044.99
1016.16
998.908
1000.72
991.634
968.109
943.132
912.275
876.704
865.522
853.403
851.976
837.314
825.395
814.084
801.45
785.046
763.992
744.849
725.582
714.231
713.031
738.973
1062.66
1042.18
1015.58
992.452
987.439
969.931
945.503
913.293
877.762
862.294
872.281
846.765
833.17
823.312
814.203
802.496
783.881
749.562
734.754
719.539
705.732
704.108
730.892
1065.08
1045.05
1029.11
995.517
971.124
969.988
947.122
924.469
907.921
876.471
867.334
842.695
829.413
821.387
814.446
803.153
782.867
747.857
732.078
719.754
705.336
698.479
730.145
641.348
627.434
637.51
626.917
616.622
643.862
667.703
668.043
654.165
629.026
609.479
608.555
618.316
628.348
628.179
621.408
615.643
617.005
629.445
636.236
618.658
634.007
621.555
607.176
636.091
660.414
661.199
648.554
624.361
604.088
603.418
615.206
627.155
629.526
619.73
612.365
610.526
628.136
636.389
619.605
631.529
611.357
598.082
629.275
652.271
653.494
642.077
618.028
597.873
599.644
611.194
621.493
621.614
614.014
609.317
607.74
626.047
639.777
631.664
632.617
605.301
593.234
623.475
644.07
645.817
636.875
614.066
590.244
596.001
608.508
613.747
604.845
608.995
608.612
610.045
619.81
646.199
650.24
633.888
605.43
593.714
619.769
637.204
639.418
632.821
612.245
583.874
590.167
607.78
590.819
599.059
605.772
623.197
609.927
624.728
649.801
655.658
637.062
610.461
599.509
617.345
628.824
632.622
630.504
611.097
583.436
576.697
586.376
583.97
596.453
609.359
633.735
628.817
645.883
659.106
649.03
641.431
617.772
606.292
615.318
622.346
630.5
629.35
612.621
589.466
583.003
601.162
600.892
599.353
631.679
633.703
636.525
644.442
676.305
652.677
639.884
627.644
610.804
607.845
620.112
628.226
628.798
616.815
607.415
607.253
616.273
627.622
637.124
636.721
631.78
632.678
639.246
1068.93
1046.99
1034.68
1022.55
995.372
969.608
957.191
934.054
912.89
889.694
862.012
837.624
824.416
817.718
812.623
802.36
786.279
763.214
742.126
726.678
711.267
709.686
730.175
1086.17
1069.11
1046.76
1043.74
1022.31
998.273
970.434
949.172
930.851
898.139
858.568
827.804
820.214
817.869
812.714
793.532
763.124
718.109
681.836
665.403
662.888
633.424
614.227
1115.94
1108.42
1088.91
1068.17
1037.84
1006.37
971.391
937.797
889.107
648.025
512.067
506.005
642.849
720.021
746.121
600.876
378.898
233.759
163.312
147.716
178.797
207.85
179.066
1163.66
1134.19
1091.14
1055.04
1027.81
1006.89
982.972
731.242
214.422
25.5573
2.45839
2.16181
3.08225
43.5132
80.7699
108.465
65.6833
17.8549
2.56008
2.52666
2.52901
2.63767
2.80525
1206.22
841.713
446.299
363.122
473.309
531.62
444.793
136.519
2.0518
1.76465
1.84285
1.56026
1.25354
1.03137
1.06179
1.21204
5.9493
2.12963
2.34806
2.72342
2.60669
2.58291
2.94117
982.439
150.768
4.29301
1.83195
1.58126
1.47755
1.13586
0.756336
1.31254
1.52536
1.56727
1.46817
0.946248
0.879197
1.23331
3.03617
3.9401
4.13175
4.09825
3.28666
2.631
3.45102
5.02509
265.428
2.62552
2.00152
1.63442
1.50569
1.25882
0.938116
1.31903
2.39969
2.39322
2.34194
0.922326
0.531793
0.838336
1.93093
2.1647
2.19817
3.20928
3.55685
3.73256
3.34363
3.57021
5.03474
1.18817
1.24257
1.54769
1.47006
1.33635
2.2374
1.9436
1.66855
1.09175
0.184709
0.0132274
-0.00989529
0.2031
0.385037
0.20862
0.358201
0.544571
0.72602
0.797426
1.2152
4.69579
7.06868
3.45019
1.16137
1.04607
1.3332
1.568
1.17462
1.34839
1.91464
0.513529
-0.22074
-0.322715
-0.365453
-0.354061
-0.288393
-0.161832
0.0193967
0.279554
0.558843
0.664212
0.644803
0.473107
5.7178
7.68421
6.9905
1.13987
0.977237
1.26808
1.673
1.09566
0.340671
0.283702
-0.16843
-0.412848
-0.602291
-0.7013
-0.699297
-0.604565
-0.428446
-0.188507
0.316191
0.678122
0.810483
0.576323
0.459132
1.12521
7.61093
8.60025
1.30753
0.978274
1.71071
1.68148
1.00458
0.25532
0.00513611
-0.308049
-0.630591
-0.868018
-0.987696
-0.989067
-0.86602
-0.664096
-0.384284
-0.0139625
0.515816
0.702383
0.511198
0.456726
0.355073
1.2529
7.59068
1.6206
1.21265
1.47708
1.76646
0.718997
0.213049
-0.0861136
-0.454653
-0.814127
-1.06864
-1.18261
-1.14737
-1.00972
-0.799442
-0.519772
-0.196103
0.0828937
0.413231
0.573088
1.69511
1.83654
0.971451
0.225747
1.98348
1.62356
1.29026
1.9249
0.789716
0.197009
-0.153436
-0.548949
-0.926166
-1.16576
-1.25822
-1.20692
-1.05857
-0.843048
-0.580427
-0.260897
0.00833938
0.171223
1.9565
3.33024
3.20941
1.29112
-0.08143
2.7065
2.02926
1.63907
2.02845
1.43089
0.262706
-0.185633
-0.575941
-0.92347
-1.15021
-1.22656
-1.16184
-1.00778
-0.823472
-0.557342
-0.246319
-0.030309
0.103227
2.9889
3.3311
3.16141
0.461382
-0.347541
3.57068
3.16872
1.97454
1.5273
1.53411
0.693406
-0.20447
-0.563941
-0.854994
-1.03457
-1.08217
-1.0424
-0.901327
-0.702153
-0.452942
-0.200374
0.0575568
0.186475
1.05136
2.74971
0.279183
-0.484466
-0.672869
3.28589
3.82168
3.59131
1.76964
0.829457
0.211043
-0.259614
-0.548786
-0.767917
-0.894466
-0.924524
-0.852263
-0.705212
-0.503035
-0.271241
-0.0597825
0.687222
0.948157
0.496596
0.234599
-0.120382
-0.608482
-0.683923
3.22839
6.33753
7.83152
6.67416
1.34003
-0.100052
-0.362659
-0.505856
-0.61745
-0.676016
-0.659888
-0.567492
-0.417115
-0.22846
-0.0307623
0.132736
1.08361
1.13147
0.530897
0.427486
0.113421
-0.0813336
2.35353
7.67477
7.60605
7.42838
7.05325
6.49733
1.30356
-0.553376
-0.435349
-0.362158
-0.32556
-0.273951
-0.186176
-0.0610549
0.0856879
0.276603
0.687952
0.781786
1.06029
0.481418
0.962675
0.872519
0.895504
2.46738
7.91389
4.94819
3.95742
6.2117
5.57325
5.64836
0.61357
-0.331314
-0.0708544
0.074699
0.144338
0.20027
0.272184
0.358947
1.15869
1.23365
0.61752
0.453502
0.488089
1.04516
0.37058
0.200717
0.227894
7.65719
0.580522
0.273084
3.89671
5.51544
5.59752
2.90979
-0.221401
0.154101
0.372461
0.447423
0.469637
0.492844
1.18424
1.51811
1.08777
0.511089
0.508711
0.569967
0.743272
0.522837
0.421414
0.215877
3.9719
0.47951
0.36183
-0.0139854
1.94685
1.50765
0.164496
-0.13716
0.284545
0.515053
0.651896
1.48122
1.90756
1.91116
1.59806
0.569781
0.521338
0.529683
0.574642
0.623252
0.627416
0.54992
0.3783
3.72502
0.637495
0.557041
0.394689
0.790384
0.0241637
0.271731
0.671865
2.29122
4.52644
4.83321
4.84175
1.82254
0.550266
0.537975
0.529693
0.525418
0.535993
0.564323
0.601129
0.663309
0.584885
0.410488
6.53631
1.03596
0.68753
2.44986
3.49896
4.09619
4.24916
4.61357
4.81443
4.97205
2.71783
0.99657
0.48658
0.514679
0.520746
0.535846
0.537909
0.52288
0.535287
0.553838
0.633888
0.766137
0.39051
6.75691
1.63101
1.00155
0.809747
-0.506145
1.99974
4.30684
3.57962
1.32204
0.625267
0.209828
0.320414
0.421179
0.480784
0.516487
0.533485
0.530904
0.535279
0.491968
0.49257
0.509318
0.748558
0.551869
7.06488
1.28338
1.28833
-0.227804
-0.369771
-0.00577315
0.315639
-0.148195
-0.162446
-0.0303192
0.1128
0.250954
0.361414
0.436999
0.462597
0.464268
0.490599
0.484682
0.478515
0.421449
0.405775
0.672448
0.598445
7.40744
0.939359
0.598436
-0.12157
-0.189581
-0.22583
-0.25145
-0.237745
-0.188116
-0.108047
-0.00118747
0.147129
0.279804
0.370565
0.418747
0.413048
0.417585
0.417162
0.40167
0.354138
0.327649
0.361496
0.513642
7.72786
1.64377
0.404528
0.0444037
-0.0425985
-0.106347
-0.183367
-0.234283
-0.24042
-0.206782
-0.146987
-0.0253527
0.130305
0.3444
0.386759
0.370125
0.338626
0.324451
0.322356
0.308211
0.261906
0.235495
0.235248
7.62422
3.8036
0.324942
0.207343
0.0687086
-0.0301477
-0.154446
-0.255006
-0.305464
-0.311396
-0.292726
-0.174862
0.719634
3.74898
0.90313
0.413981
0.287996
0.239317
0.238418
0.23358
0.200234
0.190101
0.186961
1.31013
4.23655
0.597422
0.311486
0.166518
0.08382
-0.0969497
-0.274986
-0.357775
-0.363202
-0.302037
-0.287002
3.6948
5.62517
5.12613
0.82356
0.248097
0.184614
0.140728
0.140158
0.140774
0.155817
0.168563
1.29556
1.89286
0.767075
1.34558
0.263515
0.106749
0.0137929
-0.196826
-0.373943
-0.399882
-0.380546
-0.365323
5.36628
5.6973
5.90273
2.33289
0.176082
0.142815
0.0863841
0.0799362
0.101111
0.13321
0.155845
1.29799
1.27736
1.82014
7.52713
1.1876
0.115446
0.019755
-0.114398
-0.295947
-0.368836
-0.3753
-0.00142343
5.55679
5.77275
5.88484
2.449
0.107349
0.121506
0.0807052
0.0703447
0.0860936
0.120587
0.153839
1.26913
3.11019
4.50841
7.8477
7.94712
0.933439
-0.0830997
-0.134607
-0.231943
-0.258707
-0.271288
3.69564
5.74443
5.85356
5.05259
0.552272
0.0324365
0.0721785
0.08926
0.107959
0.133522
0.159233
0.181599
2.35557
7.57174
7.89381
7.87615
7.76868
4.9386
-0.0913629
-0.132487
-0.0870958
-0.0899775
0.225485
5.73666
5.91683
3.40289
0.145926
-0.136213
-0.0317882
0.0431544
0.0665048
0.0898358
0.118191
0.128766
0.139845
3.46214
1.42305
0.955734
5.24608
7.74991
5.62968
-0.0587824
-0.0547133
0.0482322
0.0657376
3.8613
5.77954
1.61264
-0.193
-0.172691
-0.105476
-0.050353
-0.00947326
0.0204162
0.0478061
0.0732028
0.0913971
0.106135
1.56306
-0.207203
-0.208081
-0.335641
0.605747
3.48991
-0.178246
0.0223975
0.135972
4.66775
4.81556
2.10278
-0.0789354
-0.104165
-0.0909024
-0.0616413
-0.0335248
-0.0061976
0.0188935
0.0417729
0.0619007
0.0784096
0.0905575
-0.0968112
-0.11833
-0.126678
-0.224209
0.222362
0.693289
-0.0283881
0.0703937
4.9639
4.94806
4.04745
-0.0181128
-0.0414897
-0.0541905
-0.0493785
-0.0355886
-0.0181444
0.000533298
0.0190726
0.0366775
0.052377
0.065464
0.0754817
-0.0547516
0.0200809
0.167058
-0.0576312
0.0205638
0.19231
0.701345
4.83767
5.05487
3.79926
-0.0246802
-0.0269192
-0.0326066
-0.0355136
-0.0313974
-0.0221327
-0.00930213
0.00443361
0.0182354
0.0314829
0.0434668
0.0536594
0.061741
-0.0344628
0.0940321
0.722158
0.673978
2.1444
5.21689
4.68175
4.81959
2.55109
-0.0446513
-0.0367931
-0.0293922
-0.0271476
-0.0251581
-0.0204938
-0.0132308
-0.00392485
0.00615657
0.0163628
0.026185
0.0351538
0.0428935
0.0491755
-0.0326794
-0.0124902
0.424733
2.65024
7.2349
7.31575
4.92384
0.435374
-0.0600758
-0.048084
-0.0323489
-0.0263967
-0.0217694
-0.0180755
-0.0134821
-0.00766282
-0.000860565
0.00640317
0.013729
0.0207628
0.0272068
0.032822
0.0374616
-0.0333827
0.00219567
0.193786
6.16709
6.34597
5.69602
-0.0762544
-0.0629935
-0.0334405
-0.0222945
-0.0259323
-0.0209277
-0.0162043
-0.0123511
-0.00841652
-0.0040703
0.000659644
0.00558272
0.0104825
0.0151624
0.0194523
0.023215
0.02637
-0.0295466
-0.0314239
-0.0423566
1.27036
0.436403
0.365795
-0.0577875
-0.0481
-0.0299739
-0.0261948
-0.0196675
-0.0152069
-0.0110563
-0.0077071
-0.00469384
-0.00175378
0.00113289
0.00397943
0.00674987
0.00937205
0.0117786
0.0139048
0.0157085
-0.0239941
-0.0289477
-0.0161909
-0.0258897
-0.0546527
0.00327972
-0.0308756
-0.0441343
-0.0268176
-0.0208336
-0.0143408
-0.0101057
-0.00667159
-0.00403017
-0.00202353
-0.000448277
0.000736954
0.00163762
0.00247399
0.00326758
0.00399789
0.00465072
0.00521315
719.116
713.214
706.476
699.304
602.21
604.472
578.803
552.946
117.877
87.9253
68.1918
55.154
2.87008
2.81664
2.69849
2.54865
3.56311
3.86689
3.75873
3.41631
7.60518
7.72644
7.7737
7.32256
5.65605
7.30427
8.21077
8.21184
3.37931
3.37653
5.33446
8.59101
3.42075
3.37266
3.43461
8.67054
8.71121
3.56793
8.62916
10.6759
10.1795
10.6926
10.9587
11.0778
0.426255
1.00665
6.27142
11.3232
-0.0300297
0.0216989
0.0475023
1.10938
-0.304502
-0.247937
-0.177934
-0.100468
-0.631205
-0.566859
-0.498236
0.859455
-0.375204
4.44085
4.57619
4.59473
4.31717
4.40133
0.321784
0.335706
0.349987
-0.186079
-0.589397
-0.613735
-0.18985
-0.210659
-0.20092
-0.197512
0.0613652
0.253706
0.596256
0.449239
0.168693
0.409838
0.666501
0.487409
0.180727
0.121871
0.280302
0.450795
0.179628
0.031877
-0.0917589
-0.171128
0.335784
0.128341
0.0131011
-0.0800578
0.502463
0.432531
0.355576
0.118274
0.5138
0.477661
0.443151
0.410043
0.271797
0.291532
0.442158
0.457836
0.175675
0.167918
0.182912
0.232127
0.168371
0.166495
0.163568
0.160256
0.162765
0.164746
0.178654
0.202917
0.17582
0.198367
0.206966
0.206234
0.190948
0.194939
0.195962
0.179612
0.149919
0.149027
0.141107
0.136732
0.112968
0.116213
0.118444
0.119856
0.0964822
0.099494
0.101749
0.103396
0.0806843
0.0834436
0.0856406
0.0873534
0.066137
0.0685328
0.0705171
0.0721315
0.052712
0.0546788
0.0563515
0.0577535
0.0401497
0.0416686
0.0429853
0.0441142
0.0282397
0.0293096
0.0302504
0.0310689
0.0167959
0.0174239
0.0179817
0.0184731
0.00555969
0.00576186
0.00594343
0.00610627
688.29
671.967
656.206
603.411
521.681
524.457
572.375
601.869
603.702
565.266
573.717
594.45
606.331
624.345
633.973
625.58
606.349
604.956
615.922
518.198
455.944
329.804
220.449
174.97
167.765
189.12
211.55
232.77
246.535
252.068
239.391
223.806
257.491
292.141
257
196.81
190.9
210.014
34.9697
9.12263
2.47138
2.26212
2.26401
2.3713
2.39156
2.23632
2.06371
1.93024
1.95194
15.8988
29.9936
29.2969
21.5472
4.40398
3.12039
2.46049
3.1419
2.36407
2.34275
2.24359
2.10364
2.06112
2.11206
2.14552
2.04959
1.91276
1.83021
1.81475
1.75782
1.67051
1.54602
1.49574
2.32256
3.02539
1.95035
2.51159
3.59182
3.37187
3.08414
2.03215
1.90453
1.91944
2.00428
1.96519
1.84382
1.69055
1.60904
1.88529
2.9972
3.40124
3.43551
4.3081
4.05588
1.78261
2.1869
4.74181
4.3668
3.90741
2.74119
2.30798
2.10221
1.91384
1.86788
1.76038
1.59009
1.45458
1.45423
1.79721
2.53064
3.16307
4.14048
3.19607
1.79808
2.06769
4.15982
3.00858
4.03682
3.96318
3.82445
2.64366
1.55495
1.54677
1.38773
1.31699
1.30434
1.30059
1.27955
1.53069
2.30159
2.26978
2.17859
2.68357
2.09416
6.41988
3.02165
3.82077
3.83393
3.42525
1.94577
1.31508
1.26131
1.2229
1.20448
1.27473
1.40611
1.27118
1.27666
1.80538
2.56837
3.45201
3.70266
2.17621
10.3327
3.31823
1.84392
1.6267
1.46715
1.20146
1.14961
1.1284
1.11962
1.25111
1.74667
1.81811
1.36921
1.28537
1.75784
3.71048
3.79477
3.86298
3.99388
10.7898
3.59696
1.30042
1.25852
1.17384
1.09974
1.05727
1.04128
1.24424
1.72632
1.74717
1.7975
1.85862
1.37592
1.42419
1.59845
2.35426
2.67564
2.21454
11.2024
4.2728
1.07777
1.11483
1.07696
1.03759
1.0024
1.18704
1.68678
1.69938
1.68523
1.72208
1.8246
1.68925
1.42954
1.42743
2.11485
2.04776
2.12242
11.5823
4.78583
0.865122
0.975816
0.993982
0.99022
1.16473
1.67369
1.66587
1.48821
0.932914
0.951439
1.47181
1.7542
1.46685
1.58853
2.88932
2.93357
3.34267
11.8292
5.015
0.686706
0.859141
0.926653
1.11286
1.59042
1.54742
1.05927
0.837322
0.849351
0.870068
0.897283
1.35376
1.43088
1.4099
2.88343
3.43857
3.52019
10.3014
4.00761
0.533298
0.756597
1.00358
1.45695
1.39506
0.855548
0.832931
0.844913
0.973556
0.881612
0.768546
0.898448
1.26991
1.1413
1.79736
3.3822
3.51444
10.4795
0.500162
0.395794
0.679076
1.38251
1.40495
0.831229
0.800199
0.889373
0.943181
0.90166
0.871339
0.837824
0.607298
0.823332
0.790586
0.64727
1.09917
3.54579
2.58742
-0.316709
0.280624
1.09872
1.31281
0.741801
0.74535
0.947308
0.912756
0.867292
0.816805
0.766109
0.646207
0.459926
0.494996
0.549754
0.55949
0.521928
3.58377
-0.846707
-0.263534
0.425861
0.998808
0.797738
0.626518
0.876917
0.875329
0.835884
0.792828
0.560977
0.368685
0.341021
0.361366
0.41168
0.47037
0.523994
0.527494
3.30711
-0.567778
-0.0373849
0.717132
0.641564
0.363684
0.515063
0.790185
0.784555
0.566692
0.451574
0.403524
0.331426
0.303407
0.309352
0.354707
0.416
0.482515
0.523279
3.43521
0.1232
0.37982
0.590125
0.173085
0.192229
0.626495
0.683896
0.533111
0.332652
0.654572
0.69159
0.477737
0.26975
0.271393
0.311643
0.372061
0.435832
0.488991
3.51631
0.259896
0.27092
0.378264
-0.133221
0.0415212
0.467499
0.470614
0.25713
0.285254
0.809415
0.792909
0.68609
0.248471
0.238057
0.275278
0.338007
0.386774
0.490354
2.63499
0.264696
0.197528
0.358963
-0.0852546
-0.0583613
0.108415
0.154241
0.210729
0.25067
0.510586
1.04067
0.62151
0.229173
0.21018
0.243545
0.315485
0.341002
1.05209
2.00913
0.32576
0.230298
0.365242
-0.152278
-0.0986666
0.0393229
0.130518
0.182911
0.229265
0.499764
2.40608
0.462479
0.31659
0.190428
0.218429
0.287677
0.313487
1.7514
1.63706
-0.240037
0.38936
0.22567
-0.213774
-0.0777722
0.0433277
0.121211
0.173021
0.265839
1.75849
2.46717
1.57644
0.562328
0.177993
0.207305
0.259756
0.283341
1.76778
1.92609
-0.215282
0.190234
0.156914
-0.116999
-0.0280396
0.0621107
0.121496
0.164065
0.422252
2.57696
2.5388
2.49651
0.560032
0.358127
0.208144
0.243647
0.257889
1.37646
3.72303
-0.00919555
0.320479
0.294517
-0.0125113
0.0240723
0.0819803
0.122715
0.151099
0.364197
2.62283
2.61815
2.56104
0.358217
0.595954
0.234459
0.242695
0.259713
0.422223
3.82056
0.346127
0.262408
0.155618
0.0409603
0.064409
0.0978819
0.123699
0.140394
0.150943
1.35756
2.70119
2.34706
0.3556
0.378102
0.376506
0.26461
0.277758
0.210415
3.49526
0.322304
0.0851838
0.0653645
0.074635
0.0920304
0.110909
0.126832
0.136352
0.144518
0.223835
2.42508
2.54709
2.06458
0.349999
0.369932
0.303863
0.307033
0.262019
3.48142
0.155713
0.116208
0.104741
0.103966
0.110816
0.120957
0.129945
0.13609
0.141946
0.141742
0.266458
2.63517
2.68315
0.502845
0.360264
0.351808
0.336903
0.304217
4.04342
0.163466
0.14018
0.126589
0.122402
0.124481
0.128111
0.132176
0.135904
0.14142
0.14879
0.160224
0.422551
2.21481
4.46413
0.948489
0.390332
0.363853
0.758285
5.00606
0.197561
0.149137
0.137938
0.132849
0.131785
0.13168
0.132057
0.13482
0.139494
0.14728
0.159721
0.181731
0.382119
4.57699
5.08228
2.15795
0.754027
4.65216
5.22367
0.183184
0.14856
0.141129
0.135557
0.132158
0.130631
0.130467
0.131658
0.134874
0.140558
0.150033
0.159469
0.171766
0.1764
5.12707
5.15786
5.07313
5.24936
5.29733
0.150796
0.143251
0.137592
0.132793
0.129484
0.127416
0.12607
0.125877
0.127455
0.130705
0.136841
0.13448
0.138575
0.158459
2.62242
5.20803
5.20172
5.28142
3.43661
0.135969
0.133008
0.129265
0.125801
0.122978
0.120719
0.11856
0.117182
0.11665
0.117527
0.120644
0.101487
0.0885531
0.115997
2.21744
5.3327
5.29454
1.72551
1.25485
0.120999
0.119914
0.117864
0.115561
0.113267
0.111055
0.108218
0.105471
0.101537
0.0998327
1.04295
1.02654
0.166506
0.0425295
0.653803
2.70142
1.8037
1.13215
1.19951
0.105192
0.105454
0.10462
0.10319
0.101319
0.0986278
0.09564
0.0913276
0.0827299
0.268152
2.15667
2.0524
0.678709
-0.042149
0.0133468
0.0189505
0.112696
1.48337
0.00180511
0.0894673
0.0905327
0.0904896
0.0897156
0.0883073
0.0859626
0.0823369
0.0765269
0.0650203
0.611552
2.16005
2.01514
0.347881
-0.10163
-0.0387424
-0.0243525
0.10389
1.58629
-0.02432
0.0742556
0.0756867
0.0761012
0.0757758
0.0747745
0.0727799
0.0691859
0.0624249
0.0511685
0.609406
2.1801
2.02975
0.705401
-0.131315
-0.0709357
-0.0458327
0.798238
1.615
-0.0390507
0.0596734
0.0611578
0.0617891
0.0617635
0.0611449
0.0596889
0.05674
0.0507132
0.0434643
0.124596
1.77398
2.08559
1.62198
-0.129312
0.0514669
0.301294
1.00039
0.984595
-0.0437692
0.0456919
0.0470231
0.0476999
0.0478583
0.0475663
0.04675
0.0450328
0.041366
0.0371367
0.0244352
0.587229
2.17142
2.11853
1.08159
0.011556
0.39298
0.831023
-0.0453716
-0.0396574
0.0322334
0.0332698
0.0338602
0.0340946
0.03406
0.0338257
0.0332156
0.0319728
0.0312957
0.0222525
-0.0203659
0.430569
1.17967
0.715201
-0.048294
0.0487189
0.0237573
-0.0352913
-0.0253676
0.0191775
0.0198338
0.0202326
0.0204347
0.0205086
0.0205806
0.0207044
0.0207222
0.0209885
0.0154096
-0.00481645
-0.0320536
-0.0351737
-0.0127187
-0.00513516
0.00350155
0.00340576
-0.0211849
-0.013994
0.00634673
0.00657932
0.00673338
0.00684311
0.00693478
0.0071115
0.00759997
0.008297
0.00821532
0.00570483
0.00290487
0.00468799
0.00878042
0.00870513
0.00338398
-0.00136252
0.00152397
-0.00602399
-0.00736846
)
;

boundaryField
{
    leftWall
    {
        type            fixedFluxPressure;
        gradient        uniform 0;
        value           nonuniform List<scalar> 
50
(
1023.64
1022.99
1020.08
1017.81
1022.15
1044.99
1062.66
1065.08
1068.93
1086.17
1115.94
1163.66
1206.22
982.439
265.428
1.18817
1.16137
1.13987
1.30753
1.6206
1.98348
2.7065
3.57068
3.28589
3.22839
7.67477
7.91389
7.65719
3.9719
3.72502
6.53631
6.75691
7.06488
7.40744
7.72786
7.62422
1.31013
1.29556
1.29799
1.26913
2.35557
3.46214
1.56306
-0.0968112
-0.0547516
-0.0344628
-0.0326794
-0.0333827
-0.0295466
-0.0239941
)
;
    }
    rightWall
    {
        type            fixedFluxPressure;
        gradient        uniform 0;
        value           nonuniform List<scalar> 
50
(
629.445
628.136
626.047
619.81
624.728
645.883
644.442
639.246
615.922
210.014
3.1419
2.51159
2.1869
2.06769
2.09416
2.17621
3.99388
2.21454
2.12242
3.34267
3.52019
3.51444
3.54579
3.58377
3.30711
3.43521
3.51631
2.63499
2.00913
1.63706
1.92609
3.72303
3.82056
3.49526
3.48142
4.04342
5.00606
5.22367
5.29733
3.43661
1.25485
1.19951
0.00180511
-0.02432
-0.0390507
-0.0437692
-0.0396574
-0.0253676
-0.013994
-0.00736846
)
;
    }
    lowerWall
    {
        type            fixedFluxPressure;
        gradient        uniform 0;
        value           nonuniform List<scalar> 
62
(
1023.64
1015.53
1011.43
1003.1
986.616
965.685
945.671
926.691
910.933
899.883
887.232
868.287
847.669
830.141
814.576
800.93
789.085
777.541
765.668
753.815
744.12
741.296
745.742
745.742
745.297
745.469
746.592
744.294
738.973
730.892
730.145
719.116
713.214
706.476
699.304
641.348
636.236
636.389
639.777
646.199
649.801
659.106
676.305
641.348
627.434
637.51
626.917
616.622
643.862
667.703
668.043
654.165
629.026
609.479
608.555
618.316
628.348
628.179
621.408
615.643
617.005
629.445
)
;
    }
    atmosphere
    {
        type            totalPressure;
        rho             rho;
        psi             none;
        gamma           1;
        p0              uniform 0;
        value           nonuniform List<scalar> 
46
(
-0.0194849
-0.023565
-0.00522241
-0.00372266
-0.050588
0
-0.0419907
-0.0450701
-0.0249802
-0.0185395
-0.0120289
-0.00805772
-0.00500105
-0.00271924
-0.00128068
-0.000376883
-1.26028e-05
0
0
0
0
0
0
0
0
0
0
0
0
0
0
0
0
0
0
0
0
0
0
0
0
0
0
0
-0.00246984
-0.00609565
)
;
    }
    defaultFaces
    {
        type            empty;
    }
}


// ************************************************************************* //
