/*--------------------------------*- C++ -*----------------------------------*\
| =========                 |                                                 |
| \\      /  F ield         | OpenFOAM: The Open Source CFD Toolbox           |
|  \\    /   O peration     | Version:  2.3.0                                 |
|   \\  /    A nd           | Web:      www.OpenFOAM.org                      |
|    \\/     M anipulation  |                                                 |
\*---------------------------------------------------------------------------*/
FoamFile
{
    version     2.0;
    format      ascii;
    class       surfaceScalarField;
    location    "2.45";
    object      phi;
}
// * * * * * * * * * * * * * * * * * * * * * * * * * * * * * * * * * * * * * //

dimensions      [0 3 -1 0 0 0 0];

internalField   nonuniform List<scalar> 
4432
(
3.84888e-06
-3.84888e-06
6.82812e-07
3.16606e-06
-4.07848e-06
4.76129e-06
-6.8589e-06
2.78042e-06
-8.09784e-06
1.23895e-06
-1.06273e-05
2.52946e-06
-1.60781e-05
5.45075e-06
-2.10818e-05
5.00379e-06
-2.06778e-05
-4.04018e-07
-1.53906e-05
-5.28724e-06
-9.04179e-06
-6.34879e-06
-4.7961e-06
-4.24569e-06
-3.25035e-06
-1.54575e-06
-3.92736e-06
6.77011e-07
-5.58309e-06
1.65573e-06
-5.50056e-06
-8.25361e-08
-3.28612e-06
-2.21444e-06
-1.25156e-06
-2.03456e-06
-1.03802e-06
-2.13533e-07
-2.62825e-06
1.59022e-06
-4.21237e-06
1.58412e-06
-3.40431e-06
-8.08061e-07
-3.40431e-06
-3.1329e-07
-3.53559e-06
-3.98032e-06
6.83308e-06
-9.7868e-06
1.05678e-05
-1.43212e-05
7.31486e-06
-1.83192e-05
5.23696e-06
-2.25762e-05
6.78638e-06
-2.51833e-05
8.05788e-06
-2.3852e-05
3.67251e-06
-1.93315e-05
-4.92454e-06
-1.33009e-05
-1.13178e-05
-7.85095e-06
-1.17988e-05
-5.2197e-06
-6.87694e-06
-5.25175e-06
-1.5137e-06
-5.83052e-06
1.25578e-06
-5.35372e-06
1.17894e-06
-3.2779e-06
-2.15836e-06
-5.82676e-07
-4.90966e-06
7.63997e-07
-3.38123e-06
6.44981e-07
-9.45198e-08
-2.28236e-07
2.46344e-06
-7.39446e-07
2.09533e-06
-5.75185e-07
-9.72319e-07
-3.9795e-06
-3.34763e-06
-1.87955e-07
-7.01356e-06
1.0499e-05
-1.12365e-05
1.47908e-05
-1.55916e-05
1.16699e-05
-1.96356e-05
9.28097e-06
-2.25484e-05
9.69918e-06
-2.27449e-05
8.25439e-06
-1.99853e-05
9.12864e-07
-1.51261e-05
-9.78373e-06
-8.69076e-06
-1.77531e-05
-3.28838e-06
-1.72012e-05
-1.21589e-06
-8.94943e-06
-1.38154e-06
-1.34806e-06
-1.52202e-06
1.39626e-06
-6.26177e-07
2.83096e-07
1.61718e-06
-4.40172e-06
4.10319e-06
-7.39567e-06
5.3553e-06
-4.63334e-06
5.41331e-06
-1.52528e-07
5.29401e-06
2.58274e-06
5.03256e-06
2.35677e-06
3.02801e-06
1.03223e-06
-9.51487e-07
-5.55923e-06
5.37128e-06
-8.45252e-06
1.33923e-05
-1.04334e-05
1.67717e-05
-1.39871e-05
1.52236e-05
-1.7379e-05
1.26729e-05
-1.89614e-05
1.12816e-05
-1.84473e-05
7.74032e-06
-1.56944e-05
-1.84007e-06
-1.05424e-05
-1.49357e-05
-4.25171e-06
-2.40438e-05
-2.03306e-08
-2.14325e-05
2.01074e-06
-1.09805e-05
2.44411e-06
-1.78143e-06
2.32658e-06
1.51378e-06
3.0698e-06
-4.60119e-07
4.95856e-06
-6.29049e-06
7.17006e-06
-9.60717e-06
8.77973e-06
-6.24302e-06
9.72608e-06
-1.09888e-06
1.07058e-05
1.60306e-06
1.05292e-05
2.53331e-06
6.36059e-06
5.20086e-06
5.4091e-06
-7.07598e-06
1.24473e-05
-9.27368e-06
1.559e-05
-9.21689e-06
1.67149e-05
-1.1763e-05
1.77697e-05
-1.46955e-05
1.56054e-05
-1.5396e-05
1.1982e-05
-1.42862e-05
6.63056e-06
-1.12127e-05
-4.91358e-06
-5.84325e-06
-2.03052e-05
-1.18601e-06
-2.8701e-05
7.26154e-07
-2.33447e-05
2.61383e-06
-1.28682e-05
4.19275e-06
-3.36035e-06
4.75717e-06
9.49359e-07
5.02012e-06
-7.2307e-07
6.05611e-06
-7.32648e-06
7.63056e-06
-1.11816e-05
9.25032e-06
-7.86278e-06
1.16231e-05
-3.4717e-06
1.39778e-05
-7.51648e-07
1.38046e-05
2.70654e-06
8.30556e-06
1.06999e-05
1.37147e-05
-8.39184e-06
2.08391e-05
-1.06624e-05
1.78606e-05
-9.22455e-06
1.5277e-05
-1.00358e-05
1.8581e-05
-1.24244e-05
1.7994e-05
-1.25024e-05
1.20599e-05
-1.04847e-05
4.61289e-06
-6.76797e-06
-8.63031e-06
-1.90587e-06
-2.51673e-05
-4.79359e-07
-3.01275e-05
-4.83184e-07
-2.33409e-05
1.05317e-06
-1.44045e-05
3.0449e-06
-5.35208e-06
4.46373e-06
-4.69465e-07
5.13977e-06
-1.39911e-06
5.61663e-06
-7.80334e-06
6.59222e-06
-1.21572e-05
8.02553e-06
-9.29609e-06
1.10348e-05
-6.48096e-06
1.3604e-05
-3.32081e-06
1.29464e-05
3.36406e-06
7.60068e-06
1.60457e-05
2.13153e-05
-9.07165e-06
2.99108e-05
-1.24173e-05
2.12062e-05
-1.07253e-05
1.3585e-05
-9.17168e-06
1.70273e-05
-1.02248e-05
1.90471e-05
-1.00275e-05
1.18626e-05
-7.05851e-06
1.64392e-06
-2.84581e-06
-1.2843e-05
2.622e-07
-2.82753e-05
-1.98293e-06
-2.78824e-05
-2.86706e-06
-2.24567e-05
-1.54874e-06
-1.57229e-05
4.5363e-07
-7.35444e-06
2.14826e-06
-2.16409e-06
3.32471e-06
-2.57556e-06
3.81822e-06
-8.29684e-06
3.85696e-06
-1.2196e-05
4.29378e-06
-9.73291e-06
5.83888e-06
-8.02606e-06
7.18377e-06
-4.6657e-06
6.51717e-06
4.03066e-06
3.94447e-06
1.86184e-05
2.52598e-05
-8.10767e-06
3.80184e-05
-1.1869e-05
2.49676e-05
-1.08991e-05
1.26151e-05
-7.92004e-06
1.40483e-05
-6.89505e-06
1.80221e-05
-6.31585e-06
1.12834e-05
-3.14206e-06
-1.52987e-06
2.62686e-07
-1.62478e-05
-9.97303e-07
-2.70153e-05
-5.30581e-06
-2.35739e-05
-6.55608e-06
-2.12065e-05
-5.32766e-06
-1.69513e-05
-3.1464e-06
-9.5357e-06
-1.01556e-06
-4.29493e-06
4.65984e-07
-4.05711e-06
-1.7103e-07
-7.65983e-06
-2.21383e-06
-1.01532e-05
-3.52766e-06
-8.41909e-06
-3.23416e-06
-8.31956e-06
-2.00476e-06
-5.8951e-06
-1.01498e-06
3.04088e-06
1.46333e-07
1.74571e-05
2.54061e-05
8.79799e-06
-8.79799e-06
7.72443e-06
1.07356e-06
-3.78382e-06
1.15083e-05
-1.74751e-05
1.36913e-05
-1.98825e-05
2.4074e-06
-9.37069e-06
-1.05118e-05
4.44e-06
-1.38107e-05
1.75529e-05
-1.31129e-05
2.90798e-05
-1.15269e-05
3.62742e-05
-7.19437e-06
3.66789e-05
-4.04712e-07
3.1432e-05
5.24692e-06
2.4247e-05
7.18506e-06
1.66394e-05
7.60751e-06
7.33655e-06
9.3029e-06
-1.3408e-06
8.67735e-06
-6.3964e-06
5.0556e-06
-6.67406e-06
2.77654e-07
-6.67406e-06
5.08563e-06
-1.38836e-05
2.09749e-06
4.0617e-06
-1.08497e-05
2.44554e-05
-1.89142e-05
2.17558e-05
-1.47307e-05
-1.77605e-06
-4.06015e-06
-2.11824e-05
6.9403e-06
-2.48111e-05
1.70112e-05
-2.31838e-05
2.65622e-05
-2.10779e-05
3.35945e-05
-1.42266e-05
3.67763e-05
-3.58652e-06
3.72018e-05
4.82138e-06
3.44833e-05
9.90355e-06
2.65496e-05
1.55412e-05
1.40062e-05
2.18463e-05
3.55033e-06
1.91332e-05
-1.41065e-06
1.00166e-05
-2.4294e-06
1.29639e-06
-9.10346e-06
-1.86722e-06
-1.20164e-05
-7.02828e-06
9.22275e-06
-1.36995e-05
3.11267e-05
-1.30489e-05
2.11052e-05
-4.38895e-06
-1.0436e-05
4.31883e-06
-2.98902e-05
1.10698e-05
-3.15621e-05
1.65461e-05
-2.86601e-05
2.30643e-05
-2.7596e-05
2.88359e-05
-1.99983e-05
3.07857e-05
-5.53628e-06
3.09623e-05
4.64478e-06
3.06115e-05
1.02543e-05
2.54271e-05
2.07257e-05
1.60557e-05
3.12176e-05
1.02698e-05
2.49191e-05
8.73547e-06
1.15509e-05
4.52726e-06
5.50459e-06
-4.57619e-06
-6.36459e-06
-5.65181e-06
-1.14918e-05
1.435e-05
-1.17188e-05
3.13536e-05
-4.28486e-06
1.36713e-05
6.30073e-06
-2.10216e-05
1.22095e-05
-3.5799e-05
1.4326e-05
-3.36786e-05
1.53442e-05
-2.96783e-05
1.86541e-05
-3.0906e-05
2.33951e-05
-2.47393e-05
2.49061e-05
-7.04728e-06
2.44345e-05
5.1164e-06
2.42765e-05
1.04123e-05
2.08374e-05
2.41648e-05
1.56808e-05
3.63742e-05
1.4184e-05
2.64159e-05
1.47436e-05
1.09914e-05
9.00872e-06
1.12394e-05
4.43253e-06
-7.7475e-06
2.09568e-06
-1.07731e-05
1.73756e-05
-5.99841e-06
2.6579e-05
6.22079e-06
1.45206e-06
1.5433e-05
-3.02338e-05
1.6938e-05
-3.7304e-05
1.46502e-05
-3.13907e-05
1.26446e-05
-2.76728e-05
1.32386e-05
-3.14999e-05
1.68544e-05
-2.8355e-05
1.89226e-05
-9.11545e-06
1.87369e-05
5.30207e-06
1.813e-05
1.10192e-05
1.63468e-05
2.59479e-05
1.50768e-05
3.76443e-05
1.57407e-05
2.5752e-05
1.54786e-05
1.12535e-05
9.83907e-06
1.68789e-05
1.42716e-05
-5.54437e-06
7.64005e-06
-6.52328e-06
1.83545e-05
3.16021e-06
1.68955e-05
1.64979e-05
-1.18856e-05
2.05205e-05
-3.42564e-05
1.70953e-05
-3.38789e-05
1.22514e-05
-2.65468e-05
9.14759e-06
-2.4569e-05
7.27125e-06
-2.96236e-05
9.24771e-06
-3.03315e-05
1.25145e-05
-1.23822e-05
1.34299e-05
4.38661e-06
1.30499e-05
1.13992e-05
1.33101e-05
2.56877e-05
1.54479e-05
3.55065e-05
1.67382e-05
2.44617e-05
1.39617e-05
1.40301e-05
8.73451e-06
2.21061e-05
2.30061e-05
-1.02837e-06
8.66842e-06
6.57456e-08
1.72604e-05
1.20076e-05
4.95361e-06
2.15006e-05
-2.13786e-05
1.98923e-05
-3.26481e-05
1.34152e-05
-2.74018e-05
9.08582e-06
-2.22174e-05
6.53828e-06
-2.20215e-05
2.36554e-06
-2.54509e-05
1.75816e-06
-2.97241e-05
5.95812e-06
-1.65822e-05
8.669e-06
1.67572e-06
9.32795e-06
1.07402e-05
1.17778e-05
2.32378e-05
1.62944e-05
3.09898e-05
1.70632e-05
2.36929e-05
1.23909e-05
1.87024e-05
7.20128e-06
2.72957e-05
3.02074e-05
2.89868e-06
5.76974e-06
8.61028e-06
1.15488e-05
1.72641e-05
-3.70023e-06
1.91171e-05
-2.32316e-05
1.38006e-05
-2.73316e-05
8.71188e-06
-2.23131e-05
7.33734e-06
-2.08429e-05
6.10193e-06
-2.07861e-05
1.06938e-06
-2.04183e-05
-3.63834e-06
-2.50164e-05
-9.10809e-07
-1.93097e-05
3.89643e-06
-3.13152e-06
6.99891e-06
7.63777e-06
1.14465e-05
1.87902e-05
1.63246e-05
2.61117e-05
1.55043e-05
2.45133e-05
9.83451e-06
2.43721e-05
5.26517e-06
3.18651e-05
3.54726e-05
-6.74582e-06
4.47643e-05
-1.07081e-05
2.89299e-05
-1.05533e-05
1.24602e-05
-7.55879e-06
1.10538e-05
-3.256e-06
1.37193e-05
2.00051e-07
7.82737e-06
3.1533e-06
-4.48312e-06
-1.16741e-06
-1.1927e-05
-1.72562e-05
-1.09265e-05
-2.90906e-05
-1.17395e-05
-3.2146e-05
-1.81511e-05
-3.08107e-05
-1.82866e-05
-2.62886e-05
-1.40578e-05
-2.08568e-05
-9.72668e-06
-1.86957e-05
-6.21824e-06
-2.32966e-05
-3.05889e-06
-3.18418e-05
-1.60795e-06
-3.59424e-05
-4.31858e-06
-3.52331e-05
-9.02883e-06
-3.06366e-05
-1.04916e-05
-2.25172e-05
-5.07845e-06
-1.0997e-05
5.93677e-06
1.28027e-05
1.60644e-06
7.69537e-06
3.70689e-05
5.90708e-06
3.07182e-05
-1.74863e-06
2.0116e-05
-5.7965e-06
1.51017e-05
-2.51278e-06
1.04356e-05
-1.71614e-07
5.4862e-06
-6.59922e-06
1.94448e-06
-2.55008e-05
6.97457e-06
-4.6397e-05
9.9697e-06
-5.71683e-05
-9.68197e-07
-6.28273e-05
-1.24922e-05
-6.31093e-05
-1.80046e-05
-5.90931e-05
-1.80739e-05
-5.58387e-05
-1.29812e-05
-5.42741e-05
-7.78284e-06
-5.62887e-05
-1.04429e-06
-6.15843e-05
3.68771e-06
-6.74211e-05
1.51824e-06
-7.12451e-05
-5.20485e-06
-7.06066e-05
-1.11302e-05
-6.48409e-05
-1.08442e-05
-5.77393e-05
-1.16481e-06
6.30246e-06
-5.1239e-05
5.20931e-06
3.18596e-05
-5.82344e-06
4.17509e-05
-2.04448e-05
3.47374e-05
-2.6681e-05
2.13378e-05
-2.81372e-05
1.18919e-05
-3.19241e-05
9.27306e-06
-4.47318e-05
1.47522e-05
-6.21717e-05
2.44145e-05
-7.97439e-05
2.7542e-05
-9.54432e-05
1.4731e-05
-9.89249e-05
-9.01051e-06
-8.90583e-05
-2.78712e-05
-7.40622e-05
-3.307e-05
-6.45595e-05
-2.24838e-05
-5.92671e-05
-1.30753e-05
-5.5959e-05
-4.35236e-06
-5.75158e-05
5.24448e-06
-6.55922e-05
9.59461e-06
-7.20299e-05
1.23291e-06
-7.30886e-05
-1.00715e-05
-6.65628e-05
-1.73699e-05
-5.10693e-05
-1.66583e-05
-1.57171e-05
-2.90497e-05
-2.09188e-05
5.27784e-05
-4.74729e-05
6.8305e-05
-6.57671e-05
5.30315e-05
-7.13103e-05
2.6881e-05
-7.03942e-05
1.09758e-05
-7.08982e-05
9.777e-06
-7.26777e-05
1.65318e-05
-7.67266e-05
2.84633e-05
-8.74247e-05
3.82401e-05
-0.000111932
3.92387e-05
-0.000139245
1.8302e-05
-0.000136282
-3.08337e-05
-0.000107473
-6.18791e-05
-6.24225e-05
-6.75345e-05
-2.93299e-05
-4.61679e-05
-3.41221e-06
-3.02701e-05
1.93103e-05
-1.7478e-05
1.76115e-05
1.12934e-05
-1.38509e-05
3.26952e-05
-3.3129e-05
9.20658e-06
-3.9369e-05
-1.11299e-05
-2.29159e-05
-3.31114e-05
-4.95992e-05
1.09663e-05
-4.00318e-05
9.28102e-05
-7.8479e-05
0.000106752
-0.000108418
8.29708e-05
-0.00011372
3.21827e-05
-9.87266e-05
-4.01767e-06
-8.06226e-05
-8.32694e-06
-5.56501e-05
-8.44081e-06
-3.60289e-05
8.84207e-06
-0.000105793
0.000108004
-0.000125917
5.93625e-05
-0.000130664
2.3048e-05
-0.00014139
-2.01073e-05
-0.000155759
-4.75099e-05
-0.000160699
-6.2595e-05
-0.000138341
-6.85258e-05
-0.00010715
-6.14612e-05
-9.24553e-05
-3.21724e-05
-8.04996e-05
-6.62351e-07
-4.9398e-05
1.59356e-06
-4.05268e-05
3.35558e-07
-3.51034e-05
-1.65532e-05
-2.23962e-05
-4.58185e-05
-7.20827e-05
8.75417e-08
-2.82302e-05
0.00012104
-4.89013e-05
0.000127423
-6.53166e-05
9.93859e-05
-6.51729e-05
3.20392e-05
-8.12028e-05
1.2012e-05
-0.0001003
1.07708e-05
-0.000115564
6.8228e-06
-0.000155809
4.90878e-05
-0.000144677
9.6872e-05
-0.000142371
5.70571e-05
-0.000141485
2.21612e-05
-0.000151593
-9.99903e-06
-0.000162932
-3.61709e-05
-0.000164363
-6.11638e-05
-0.000152312
-8.05762e-05
-0.000131222
-8.25513e-05
-0.000102315
-6.10794e-05
-6.77999e-05
-3.51777e-05
-4.47073e-05
-2.14989e-05
-3.25925e-05
-1.17793e-05
-1.49537e-05
-3.41921e-05
8.29392e-06
-6.90662e-05
-9.01306e-05
2.63419e-05
7.55165e-06
0.000113489
-3.68394e-05
0.000171814
-5.1112e-05
0.000113659
-7.69536e-05
5.78806e-05
-0.000110805
4.58637e-05
-0.000131428
3.13937e-05
-0.000156267
3.16608e-05
-0.000165744
5.85652e-05
-0.000145504
7.66321e-05
-0.00014426
5.58133e-05
-0.000146402
2.43027e-05
-0.000147191
-9.20945e-06
-0.000141236
-4.21263e-05
-0.000127296
-7.51041e-05
-0.000106566
-0.000101305
-8.23266e-05
-0.000106791
-6.11551e-05
-8.2251e-05
-5.11708e-05
-4.5162e-05
-5.45733e-05
-1.80964e-05
-4.63399e-05
-2.00126e-05
-1.46605e-05
-6.58713e-05
2.30064e-05
-0.000106733
-0.000113814
4.66895e-05
-6.31499e-05
0.000176638
-5.55389e-05
0.000164203
-5.55352e-05
0.000113655
-7.64951e-05
7.88404e-05
-0.000107203
7.65715e-05
-0.000129453
5.36442e-05
-0.000144314
4.65218e-05
-0.000153198
6.74488e-05
-0.000155788
7.92225e-05
-0.000166387
6.64124e-05
-0.000173633
3.15483e-05
-0.0001695
-1.33424e-05
-0.00015366
-5.79666e-05
-0.000131832
-9.69313e-05
-0.000108697
-0.000124441
-8.3202e-05
-0.000132286
-5.65763e-05
-0.000108877
-4.32307e-05
-5.85076e-05
-4.846e-05
-1.28673e-05
-4.80407e-05
-2.04319e-05
-8.4813e-06
-0.000105431
2.8481e-05
-0.000143695
-0.000140953
5.56201e-05
-4.42372e-05
0.000220876
-5.15695e-05
0.000171536
-4.55266e-05
0.000107612
-5.56153e-05
8.8929e-05
-7.73416e-05
9.82978e-05
-0.000107702
8.40042e-05
-0.000133829
7.26489e-05
-0.000156725
9.03458e-05
-0.000173638
9.61353e-05
-0.000180175
7.29494e-05
-0.000177037
2.84103e-05
-0.000167266
-2.31134e-05
-0.000151498
-7.37347e-05
-0.000129339
-0.00011909
-0.000101579
-0.000152201
-6.96535e-05
-0.000164211
-3.38652e-05
-0.000144665
3.97706e-06
-9.63498e-05
2.85883e-05
-3.74784e-05
3.56708e-05
-2.75144e-05
3.91554e-05
-0.000108915
4.37783e-05
-0.000148318
-0.000150166
5.29914e-05
-2.16841e-05
0.00024256
-3.09466e-05
0.000180798
-2.62511e-05
0.000102916
-2.87722e-05
9.145e-05
-4.26042e-05
0.00011213
-7.35093e-05
0.000114909
-0.000109801
0.00010894
-0.000138433
0.000118979
-0.000151873
0.000109576
-0.000151888
7.29635e-05
-0.000143143
1.96657e-05
-0.00013076
-3.54964e-05
-0.000114666
-8.9829e-05
-9.45954e-05
-0.00013916
-6.949e-05
-0.000177306
-4.05225e-05
-0.000193179
-8.03455e-06
-0.000177153
2.90145e-05
-0.000133399
7.45466e-05
-8.30106e-05
0.000101634
-5.46022e-05
8.93158e-05
-9.65967e-05
7.69686e-05
-0.000135971
-0.000143588
7.03904e-05
7.59938e-06
0.00023496
-4.61213e-06
0.00019301
-9.99041e-06
0.000108295
-5.90614e-06
8.73656e-05
-1.34812e-05
0.000119705
-3.79539e-05
0.000139382
-6.86106e-05
0.000139597
-8.99336e-05
0.000140302
-9.74395e-05
0.000117082
-9.40391e-05
6.9563e-05
-8.50567e-05
1.06833e-05
-7.31638e-05
-4.73893e-05
-6.09476e-05
-0.000102045
-4.74284e-05
-0.00015268
-2.97526e-05
-0.000194982
-8.03542e-06
-0.000214896
1.57488e-05
-0.000200937
3.84027e-05
-0.000156053
7.07244e-05
-0.000115332
0.00011347
-9.73476e-05
0.000124197
-0.000107324
0.000116149
-0.000127923
-0.000129107
0.000101669
4.63086e-05
0.000188651
3.17754e-05
0.000207542
1.26032e-05
0.000127467
1.55941e-05
8.43747e-05
1.98037e-05
0.000115495
6.52253e-06
0.000152663
-1.33232e-05
0.000159443
-2.50916e-05
0.00015207
-2.7134e-05
0.000119124
-2.23307e-05
6.47597e-05
-1.502e-05
3.3725e-06
-6.10073e-06
-5.63086e-05
1.8215e-06
-0.000109967
9.12713e-06
-0.000159985
1.81102e-05
-0.000203965
2.94481e-05
-0.000226234
4.40485e-05
-0.000215537
5.67577e-05
-0.000168762
7.36525e-05
-0.000132227
0.000102232
-0.000125928
0.000131391
-0.000136482
0.000145569
-0.000142101
-0.000120452
0.000136914
8.06163e-05
0.000108035
0.000101829
0.000186329
7.10501e-05
0.000158246
4.72033e-05
0.000108222
5.32193e-05
0.000109479
5.81111e-05
0.000147771
5.20599e-05
0.000165494
4.74298e-05
0.0001567
4.70377e-05
0.000119516
4.92115e-05
6.2586e-05
5.22442e-05
3.39953e-07
5.65262e-05
-6.05907e-05
6.02315e-05
-0.000113673
6.39512e-05
-0.000163705
6.82857e-05
-0.000208299
7.25452e-05
-0.000230493
7.77978e-05
-0.00022079
8.44722e-05
-0.000175437
8.96299e-05
-0.000137385
0.000102516
-0.000138814
0.000130304
-0.00016427
0.000153231
-0.000165029
-0.000121092
0.000153871
8.55175e-05
2.25176e-05
0.000157393
0.000114454
0.000162908
0.000152731
0.000126025
0.000145105
0.000103271
0.000132233
0.000106448
0.000144595
0.000112215
0.000159726
0.000115435
0.00015348
0.000116217
0.000118735
0.000115203
6.35998e-05
0.000114032
1.51053e-06
0.000113063
-5.96215e-05
0.000113472
-0.000114082
0.000114838
-0.000165071
0.000115333
-0.000208793
0.000113308
-0.000228469
0.000109526
-0.000217008
0.00010796
-0.00017387
0.000102321
-0.000131746
0.000112578
-0.000149071
0.000136773
-0.000188464
0.000154124
-0.00018238
-0.000114479
0.000147511
4.73769e-05
-2.48593e-05
0.000148733
1.30979e-05
0.00022075
8.0714e-05
0.000229565
0.00013629
0.000201062
0.000160736
0.000177266
0.000168391
0.00016854
0.000168452
0.000168569
0.000153451
0.000169217
0.000118087
0.000167365
6.54518e-05
0.000165069
3.80651e-06
0.000162245
-5.67982e-05
0.000161092
-0.000112928
0.000160125
-0.000164105
0.000155428
-0.000204096
0.00014529
-0.000218331
0.000131052
-0.00020277
0.000118507
-0.000161324
0.00010907
-0.00012231
0.000120257
-0.000160258
0.000138055
-0.000206262
0.000139657
-0.000183983
-8.66642e-05
0.000111842
5.98983e-06
-3.08492e-05
8.68116e-05
-6.77239e-05
0.000199981
-3.24551e-05
0.000280881
5.53891e-05
0.000299979
0.000141638
0.000277253
0.000191117
0.000247599
0.000198106
0.000227991
0.000173059
0.000218098
0.00012798
0.000212945
7.06043e-05
0.000209451
7.30107e-06
0.000207034
-5.43819e-05
0.00020419
-0.000110084
0.000198334
-0.000158249
0.000184727
-0.000190489
0.000162445
-0.000196049
0.000134613
-0.000174938
0.000109653
-0.000136364
0.000100662
-0.000113319
0.00010919
-0.000168786
0.00010883
-0.000205901
8.78857e-05
-0.000163039
-5.14723e-05
5.26937e-05
8.71502e-06
-3.95642e-05
5.5961e-05
-0.00011497
0.000133974
-0.000110468
0.00023261
-4.32467e-05
0.000311717
6.25309e-05
0.000339135
0.000163699
0.000324475
0.000212767
0.000298465
0.000199068
0.000277725
0.000148721
0.00026508
8.32491e-05
0.000256428
1.59533e-05
0.000249455
-4.74091e-05
0.000240275
-0.000100904
0.000224998
-0.000142972
0.000198631
-0.000164121
0.000162157
-0.000159575
0.000122664
-0.000135445
8.90492e-05
-0.00010275
7.13828e-05
-9.56528e-05
6.44125e-05
-0.000161816
3.62797e-05
-0.000177769
-7.99129e-06
-0.000118768
-4.03982e-06
-5.54236e-05
5.0271e-05
-8.98352e-05
9.41258e-05
-0.000158825
0.000123981
-0.000140323
0.000168659
-8.79248e-05
0.000237519
-6.32847e-06
0.000298442
0.000102776
0.000328123
0.000183085
0.000326952
0.00020024
0.00031434
0.000161332
0.000301629
9.596e-05
0.000289807
2.77751e-05
0.000276107
-3.37087e-05
0.000258212
-8.30094e-05
0.000230861
-0.00011562
0.000191518
-0.000124779
0.000146071
-0.000114128
0.000103542
-9.29166e-05
6.76424e-05
-6.685e-05
3.95651e-05
-6.75754e-05
1.07866e-05
-0.000133037
-4.21932e-05
-0.000124789
-0.000106044
-5.49172e-05
4.1267e-05
-0.00015135
6.93805e-05
-0.000159216
0.000106445
-0.000195889
0.000117509
-0.000151387
0.000132412
-0.000102828
0.000161983
-3.58992e-05
0.000210179
5.458e-05
0.000257889
0.000135375
0.000283692
0.000174436
0.000292503
0.000152522
0.000291314
9.71486e-05
0.000283534
3.55546e-05
0.000269211
-1.93855e-05
0.000245448
-5.92463e-05
0.000207841
-7.80135e-05
0.000160598
-7.7536e-05
0.000115602
-6.91314e-05
8.03664e-05
-5.76809e-05
4.83485e-05
-3.48321e-05
1.66739e-05
-3.59009e-05
-2.34104e-05
-9.29528e-05
-8.21345e-05
-6.60646e-05
-0.000145839
8.78777e-06
0.000100576
-0.000205148
5.36089e-05
-0.000212825
5.02472e-05
-0.000192528
4.88189e-05
-0.000149959
6.0817e-05
-0.000114826
8.24563e-05
-5.75386e-05
0.000114674
2.23622e-05
0.00015361
9.64395e-05
0.000190057
0.000137989
0.000217593
0.000124985
0.000233328
8.14137e-05
0.000236954
3.1929e-05
0.000227582
-1.00143e-05
0.000199806
-3.14701e-05
0.000158651
-3.68584e-05
0.00011606
-3.49445e-05
8.20912e-05
-3.5163e-05
5.74467e-05
-3.30363e-05
3.34575e-05
-1.08428e-05
3.13099e-06
-5.5743e-06
-4.15364e-05
-4.82853e-05
-9.47864e-05
-1.28145e-05
-0.000151174
6.51758e-05
0.000146504
-0.000197102
1.41565e-05
-0.000226981
-2.56641e-05
-0.000152707
-4.05697e-05
-0.000135053
-3.42664e-05
-0.000121129
-1.80244e-05
-7.37809e-05
3.72634e-06
6.11491e-07
3.57138e-05
6.4452e-05
7.77387e-05
9.59641e-05
0.000120799
8.19246e-05
0.000152798
4.94148e-05
0.000165155
1.95724e-05
0.00015679
-1.65028e-06
0.000128383
-3.06267e-06
9.47965e-05
-3.27215e-06
6.85369e-05
-8.6849e-06
5.21453e-05
-1.87714e-05
3.91372e-05
-2.00281e-05
2.45317e-05
3.76294e-06
-3.54549e-07
1.9312e-05
-4.40799e-05
-4.55998e-06
-8.19701e-05
2.50758e-05
-0.000118915
0.000102121
0.000171663
-0.000144075
-7.55788e-06
-0.000219423
-4.70457e-05
-0.000113219
-6.32958e-05
-0.000118803
-7.71255e-05
-0.000107299
-8.67755e-05
-6.41309e-05
-7.38792e-05
-1.22848e-05
-3.4224e-05
2.47967e-05
1.69481e-05
4.47921e-05
6.23561e-05
3.65166e-05
8.87505e-05
2.30204e-05
8.89663e-05
1.93567e-05
6.92178e-05
1.80981e-05
4.3882e-05
2.22731e-05
3.18217e-05
8.78814e-06
3.19144e-05
-8.77751e-06
3.28625e-05
-1.97195e-05
2.71628e-05
-1.43284e-05
1.97984e-05
1.11274e-05
4.69234e-06
3.44181e-05
-3.00037e-05
3.01361e-05
-5.38338e-05
4.89058e-05
-6.73069e-05
0.000115594
0.000177582
-7.32256e-05
-6.44011e-06
-0.000212983
-2.24029e-05
-9.72566e-05
-2.73536e-05
-0.000113853
-3.06366e-05
-0.000104016
-3.09465e-05
-6.38209e-05
-2.28208e-05
-2.04105e-05
-2.10709e-06
4.083e-06
1.78958e-05
2.47892e-05
2.0851e-05
3.35613e-05
6.27378e-06
3.75977e-05
-1.46399e-05
4.02703e-05
-2.73603e-05
3.08186e-05
-1.77243e-05
1.26371e-05
1.7702e-06
-1.07063e-05
1.8352e-05
-2.53592e-05
2.66002e-05
-2.79676e-05
2.6404e-05
-1.41323e-05
2.39958e-05
1.35356e-05
1.6982e-05
4.14318e-05
-6.24032e-06
5.33584e-05
-2.32209e-05
6.58865e-05
-1.79149e-05
0.000110288
0.000166804
-7.13707e-06
-8.27092e-06
-0.000204712
-1.24233e-05
-9.31041e-05
-1.38338e-05
-0.000112442
-2.04791e-05
-9.73711e-05
-3.24821e-05
-5.18179e-05
-3.81597e-05
-1.47328e-05
-4.75647e-05
1.3488e-05
-6.25311e-05
3.97557e-05
-8.08205e-05
5.18508e-05
-9.35226e-05
5.02998e-05
-8.87509e-05
3.54986e-05
-6.79312e-05
9.99888e-06
-3.92524e-05
-1.60417e-05
-1.34602e-05
-3.64985e-05
7.14008e-06
-4.59596e-05
2.25181e-05
-4.33456e-05
3.18199e-05
-2.34341e-05
3.59369e-05
9.41866e-06
3.34521e-05
4.39166e-05
1.90989e-05
6.77114e-05
4.50912e-06
8.04764e-05
1.38665e-05
0.000100931
0.000142292
3.8379e-05
-1.37389e-05
-0.000190973
-1.948e-05
-8.73631e-05
-3.25997e-05
-9.93224e-05
-5.66383e-05
-7.33324e-05
-8.38732e-05
-2.4583e-05
-0.000106109
7.50351e-06
-0.000128315
3.56937e-05
-0.000142447
5.38874e-05
-0.000142744
5.21487e-05
-0.000129234
3.67896e-05
-0.000106783
1.30475e-05
-8.17667e-05
-1.50176e-05
-5.41834e-05
-4.3625e-05
-2.52075e-05
-6.54745e-05
-1.57774e-06
-6.95895e-05
1.76787e-05
-6.26022e-05
3.312e-05
-3.88755e-05
4.4393e-05
-1.85444e-06
4.81412e-05
4.01686e-05
4.20461e-05
7.38064e-05
2.98366e-05
9.26859e-05
3.10046e-05
9.97629e-05
0.000118886
5.44102e-05
-1.9735e-05
-0.000171238
-2.91791e-05
-7.79189e-05
-4.99632e-05
-7.85382e-05
-7.78691e-05
-4.54264e-05
-0.000107204
4.75228e-06
-0.000133648
3.3947e-05
-0.000150698
5.27439e-05
-0.000152078
5.52682e-05
-0.000142027
4.20979e-05
-0.000126761
2.15235e-05
-0.000110451
-3.26294e-06
-9.15913e-05
-3.3877e-05
-6.43721e-05
-7.08442e-05
-3.04229e-05
-9.94237e-05
-4.23431e-06
-9.57782e-05
1.36558e-05
-8.04924e-05
2.97844e-05
-5.50042e-05
4.37244e-05
-1.57946e-05
5.33536e-05
3.05394e-05
5.5e-05
7.216e-05
4.91385e-05
9.85475e-05
4.40397e-05
0.000104862
0.000107632
5.52933e-05
-2.3471e-05
-0.000147767
-3.2259e-05
-6.91309e-05
-5.14835e-05
-5.93138e-05
-7.14713e-05
-2.54386e-05
-9.66319e-05
2.9913e-05
-0.000116329
5.36438e-05
-0.00012647
6.28857e-05
-0.000125888
5.46863e-05
-0.000119793
3.60025e-05
-0.000111368
1.3098e-05
-0.000101281
-1.33492e-05
-8.64727e-05
-4.86854e-05
-5.81962e-05
-9.91206e-05
-2.1751e-05
-0.000135869
2.95497e-06
-0.000120484
1.47055e-05
-9.22431e-05
2.47137e-05
-6.50125e-05
3.65809e-05
-2.76621e-05
4.81059e-05
1.90144e-05
5.51931e-05
6.50727e-05
5.61326e-05
9.7608e-05
5.27773e-05
0.000108217
0.000105141
5.52682e-05
-2.57347e-05
-0.000122032
-3.44132e-05
-6.04524e-05
-4.55334e-05
-4.81936e-05
-4.80027e-05
-2.29692e-05
-6.33846e-05
4.5295e-05
-7.60004e-05
6.62597e-05
-8.4193e-05
7.10784e-05
-8.71121e-05
5.76054e-05
-8.56827e-05
3.4573e-05
-7.88781e-05
6.29335e-06
-6.8156e-05
-2.40713e-05
-5.20631e-05
-6.47783e-05
-2.05883e-05
-0.000130595
6.89113e-06
-0.000163349
2.46102e-05
-0.000138203
2.45776e-05
-9.22107e-05
2.2212e-05
-6.2647e-05
2.68421e-05
-3.22922e-05
3.53037e-05
1.05528e-05
4.42405e-05
5.61359e-05
5.04105e-05
9.1438e-05
5.23703e-05
0.000106257
0.000103474
5.40376e-05
-2.84232e-05
-9.36089e-05
-3.83932e-05
-5.04825e-05
-4.036e-05
-4.62268e-05
-1.99949e-05
-4.33343e-05
-1.97325e-05
4.50328e-05
-2.74623e-05
7.39895e-05
-3.53222e-05
7.89384e-05
-4.06832e-05
6.29663e-05
-4.04669e-05
3.43568e-05
-3.22133e-05
-1.96026e-06
-1.79177e-05
-3.83668e-05
3.75689e-06
-8.64529e-05
3.02012e-05
-0.00015704
4.27583e-05
-0.000175906
4.79179e-05
-0.000143363
3.70681e-05
-8.13609e-05
2.03487e-05
-4.59276e-05
1.48181e-05
-2.67616e-05
1.75835e-05
7.78741e-06
2.57456e-05
4.79738e-05
3.50103e-05
8.21733e-05
4.22157e-05
9.90517e-05
9.83623e-05
4.73271e-05
-2.92493e-05
-6.43596e-05
-3.96302e-05
-4.01016e-05
-3.3737e-05
-5.21199e-05
1.65333e-06
-7.87246e-05
2.92011e-05
1.7485e-05
2.55729e-05
7.76177e-05
1.3764e-05
9.07472e-05
6.18286e-06
7.05475e-05
6.8813e-06
3.36584e-05
1.54495e-05
-1.05283e-05
3.15479e-05
-5.44651e-05
5.61629e-05
-0.000111068
7.18006e-05
-0.000172677
7.36964e-05
-0.000177801
6.25147e-05
-0.000132181
3.9432e-05
-5.82782e-05
1.32333e-05
-1.97289e-05
-3.48442e-07
-1.31798e-05
-2.31498e-06
9.75399e-06
4.10961e-06
4.15492e-05
1.44433e-05
7.18396e-05
2.53827e-05
8.81121e-05
8.90792e-05
3.46657e-05
-2.4227e-05
-4.01326e-05
-1.95601e-05
-4.47685e-05
-2.46929e-06
-6.92106e-05
1.90345e-05
-0.000100228
6.34106e-05
-2.68911e-05
7.47485e-05
6.62798e-05
6.15661e-05
0.00010393
4.87614e-05
8.33522e-05
4.66061e-05
3.58138e-05
5.35758e-05
-1.7498e-05
6.80969e-05
-6.89861e-05
9.16798e-05
-0.000134651
9.72363e-05
-0.000178234
8.59996e-05
-0.000166565
5.89362e-05
-0.000105118
2.18774e-05
-2.12193e-05
-3.28441e-06
5.43291e-06
-1.70121e-05
5.47934e-07
-2.18905e-05
1.46324e-05
-1.76696e-05
3.73282e-05
-6.4851e-06
6.0655e-05
6.78994e-06
7.4837e-05
7.69733e-05
1.88957e-05
-1.8825e-05
-2.13076e-05
2.77796e-07
-6.38711e-05
2.72799e-05
-9.62127e-05
3.65355e-05
-0.000109484
6.58569e-05
-5.62125e-05
9.24687e-05
3.9668e-05
9.10137e-05
0.000105385
8.03304e-05
9.40355e-05
7.53074e-05
4.08369e-05
7.78237e-05
-2.00142e-05
9.30621e-05
-8.42244e-05
0.00010769
-0.000149278
9.94746e-05
-0.000170019
6.99848e-05
-0.000137075
2.48293e-05
-5.99625e-05
-1.07676e-05
1.43775e-05
-2.32032e-05
1.78686e-05
-3.29245e-05
1.02691e-05
-3.68897e-05
1.85976e-05
-3.31688e-05
3.36073e-05
-2.26445e-05
5.01306e-05
-9.02205e-06
6.12144e-05
6.38937e-05
4.0575e-06
-7.49919e-06
-1.38084e-05
8.8309e-06
-8.02012e-05
3.16098e-05
-0.000118992
4.31382e-05
-0.000121012
5.40102e-05
-6.70844e-05
7.35697e-05
2.01085e-05
8.24663e-05
9.64881e-05
8.27766e-05
9.37253e-05
8.00974e-05
4.35161e-05
8.51658e-05
-2.50825e-05
0.000102771
-0.00010183
0.000102298
-0.000148805
7.30689e-05
-0.00014079
2.26321e-05
-8.66381e-05
-2.58543e-05
-1.14761e-05
-3.86176e-05
2.7141e-05
-3.77706e-05
1.70216e-05
-4.20392e-05
1.45378e-05
-4.34362e-05
1.99945e-05
-3.95887e-05
2.97598e-05
-3.02129e-05
4.07548e-05
-1.77781e-05
4.87795e-05
5.13564e-05
-5.2409e-06
8.31985e-06
-2.21282e-05
2.14021e-05
-9.32833e-05
2.76003e-05
-0.00012519
2.46356e-05
-0.000118048
2.04277e-05
-6.28764e-05
2.51441e-05
1.53921e-05
3.91031e-05
8.25292e-05
5.08442e-05
8.19842e-05
5.88134e-05
3.5547e-05
8.29567e-05
-4.92257e-05
9.66255e-05
-0.000115499
7.3225e-05
-0.000125405
1.96969e-05
-8.72614e-05
-3.61911e-05
-3.07501e-05
-5.73988e-05
9.73174e-06
-4.7157e-05
1.68992e-05
-4.18918e-05
1.17565e-05
-4.13728e-05
1.40187e-05
-4.02257e-05
1.88474e-05
-3.61144e-05
2.56485e-05
-2.83045e-05
3.29449e-05
-1.80465e-05
3.85214e-05
4.07819e-05
-7.47193e-06
1.98076e-05
-4.19358e-05
2.4471e-05
-9.79468e-05
9.50606e-06
-0.000110225
-1.84302e-05
-9.01114e-05
-3.49359e-05
-4.63707e-05
-3.42029e-05
1.46591e-05
-1.5898e-05
6.42244e-05
4.45658e-06
6.16298e-05
4.79449e-05
-7.94111e-06
8.23965e-05
-8.36773e-05
7.34643e-05
-0.000106566
2.34264e-05
-7.53669e-05
-3.22734e-05
-3.15616e-05
-5.78872e-05
-5.13628e-06
-5.33707e-05
5.21529e-06
-4.22315e-05
5.76005e-06
-3.75212e-05
7.04625e-06
-3.47193e-05
1.12167e-05
-3.19024e-05
1.60305e-05
-2.77637e-05
2.15098e-05
-2.16682e-05
2.68494e-05
-1.41416e-05
3.09948e-05
3.30305e-05
-6.39028e-06
1.66564e-05
-5.85921e-05
2.76177e-06
-8.40522e-05
-3.22664e-05
-7.51964e-05
-6.89612e-05
-5.34166e-05
-9.07808e-05
-2.45513e-05
-8.3259e-05
7.13729e-06
-5.26703e-05
3.36357e-05
8.72745e-06
2.32243e-07
6.36045e-05
-6.28181e-05
6.70675e-05
-8.71403e-05
2.4995e-05
-6.44938e-05
-2.62935e-05
-2.40784e-05
-4.72692e-05
-1.05858e-05
-4.64103e-05
-5.99521e-06
-3.9145e-05
-2.04997e-06
-3.33582e-05
-2.67806e-08
-3.01611e-05
3.84915e-06
-2.73237e-05
8.3793e-06
-2.43947e-05
1.31014e-05
-2.07873e-05
1.79024e-05
-1.62394e-05
2.23015e-05
-1.0919e-05
2.56744e-05
2.75215e-05
-5.41001e-06
-2.0131e-07
-5.83908e-05
-2.99573e-05
-5.42962e-05
-7.06706e-05
-3.44831e-05
-0.000103797
-2.02907e-05
-0.000105405
-2.29427e-05
-6.63183e-05
-3.19496e-05
-7.25481e-06
-2.54277e-05
4.66413e-05
-5.36637e-05
5.47203e-05
-7.08971e-05
2.04018e-05
-5.28216e-05
-2.45547e-05
-1.95372e-05
-3.64328e-05
-1.22003e-05
-3.36143e-05
-1.34044e-05
-3.05403e-05
-9.06921e-06
-2.7052e-05
-5.53836e-06
-2.49864e-05
-2.09236e-06
-2.31592e-05
2.02188e-06
-2.12363e-05
6.45643e-06
-1.90724e-05
1.09375e-05