/*--------------------------------*- C++ -*----------------------------------*\
| =========                 |                                                 |
| \\      /  F ield         | OpenFOAM: The Open Source CFD Toolbox           |
|  \\    /   O peration     | Version:  2.3.0                                 |
|   \\  /    A nd           | Web:      www.OpenFOAM.org                      |
|    \\/     M anipulation  |                                                 |
\*---------------------------------------------------------------------------*/
FoamFile
{
    version     2.0;
    format      ascii;
    class       volScalarField;
    location    "3.3e-05";
    object      nuSgs;
}
// * * * * * * * * * * * * * * * * * * * * * * * * * * * * * * * * * * * * * //

dimensions      [0 2 -1 0 0 0 0];

internalField   nonuniform List<scalar> 
7500
(
4.1404125e-10
4.1899928e-10
4.2388171e-10
4.2875149e-10
4.3354875e-10
4.3831899e-10
4.4302351e-10
4.4771056e-10
4.5233106e-10
4.5692393e-10
4.6145628e-10
4.6598084e-10
4.7045467e-10
4.7489109e-10
4.792852e-10
4.8362253e-10
4.8790526e-10
4.92138e-10
4.9632598e-10
5.0047173e-10
5.045899e-10
5.0867285e-10
5.127281e-10
5.1675571e-10
5.2074229e-10
5.2467153e-10
5.2854275e-10
5.323519e-10
5.3610355e-10
5.3980974e-10
5.434745e-10
5.4710017e-10
5.5068471e-10
5.5423806e-10
5.5776694e-10
5.6121772e-10
5.6462371e-10
5.679837e-10
5.7130503e-10
5.8038051e-10
5.8400777e-10
5.8757824e-10
5.9115098e-10
5.9465134e-10
5.981644e-10
6.0159974e-10
6.0506324e-10
6.0846671e-10
6.119581e-10
6.1535741e-10
6.1890787e-10
6.2230159e-10
6.2592065e-10
6.2934867e-10
6.3311638e-10
6.3661683e-10
6.405998e-10
6.4420001e-10
6.4844728e-10
6.5217222e-10
6.5670331e-10
6.6053567e-10
6.6534863e-10
6.6931376e-10
6.7443456e-10
6.7859234e-10
6.841811e-10
6.8859327e-10
6.9476476e-10
6.9950405e-10
7.0640794e-10
7.1154535e-10
7.193846e-10
7.249583e-10
7.3577237e-10
4.554573e-10
4.6089846e-10
4.6629139e-10
4.716392e-10
4.7693126e-10
4.8218078e-10
4.8738255e-10
4.9254144e-10
4.9765054e-10
5.0271567e-10
5.0772121e-10
5.1268626e-10
5.1759616e-10
5.2245589e-10
5.2727029e-10
5.3203448e-10
5.3675373e-10
5.4143498e-10
5.4607401e-10
5.5067114e-10
5.5523439e-10
5.5973874e-10
5.6421149e-10
5.6861589e-10
5.7297892e-10
5.7728199e-10
5.8153926e-10
5.8574803e-10
5.8991302e-10
5.9403674e-10
5.9811804e-10
6.021631e-10
6.0615711e-10
6.1011126e-10
6.1402751e-10
6.1791072e-10
6.2179124e-10
6.2564869e-10
6.2956386e-10
6.3982773e-10
6.4426199e-10
6.4864151e-10
6.5331634e-10
6.5789382e-10
6.6296289e-10
6.6787777e-10
6.7357237e-10
6.7900563e-10
6.8562426e-10
6.9177858e-10
6.9969159e-10
7.0676845e-10
7.1633052e-10
7.245665e-10
7.3612791e-10
7.4579735e-10
7.5985326e-10
7.7117282e-10
7.8809679e-10
8.0124495e-10
8.2096839e-10
8.3575419e-10
8.5840223e-10
8.7496944e-10
9.0045633e-10
9.1893835e-10
9.4784718e-10
9.684617e-10
1.0011709e-09
1.0238709e-09
1.0601656e-09
1.0851188e-09
1.1258254e-09
1.1525719e-09
1.2092687e-09
5.0102067e-10
5.0703495e-10
5.1301503e-10
5.1893554e-10
5.2479977e-10
5.3061899e-10
5.363797e-10
5.4208841e-10
5.4774341e-10
5.5334628e-10
5.5890206e-10
5.6441266e-10
5.6988865e-10
5.7531669e-10
5.8072558e-10
5.8607131e-10
5.914163e-10
5.966909e-10
6.0199625e-10
6.0720833e-10
6.1248824e-10
6.176334e-10
6.2287269e-10
6.2795083e-10
6.3312714e-10
6.3814287e-10
6.4325922e-10
6.4824313e-10
6.5335031e-10
6.5838072e-10
6.6360254e-10
6.687953e-10
6.7432165e-10
6.79903e-10
6.8613184e-10
6.9247781e-10
7.0008364e-10
7.0778731e-10
7.1781255e-10
7.3503412e-10
7.4944054e-10
7.631471e-10
7.8308597e-10
8.0138442e-10
8.2865044e-10
8.5283442e-10
8.8924896e-10
9.2048721e-10
9.6758796e-10
1.0067043e-09
1.0660473e-09
1.1133181e-09
1.1853048e-09
1.2409661e-09
1.3255771e-09
1.389964e-09
1.4881583e-09
1.5609948e-09
1.6728433e-09
1.7534519e-09
1.8750378e-09
1.9611456e-09
2.0921841e-09
2.183672e-09
2.3224706e-09
2.4196068e-09
2.5676704e-09
2.6708545e-09
2.82921e-09
2.9371291e-09
3.102829e-09
3.2163901e-09
3.3925374e-09
3.508593e-09
3.7428544e-09
5.5120073e-10
5.5805333e-10
5.6480388e-10
5.715968e-10
5.781864e-10
5.8489304e-10
5.9134753e-10
5.9786076e-10
6.0427094e-10
6.1065537e-10
6.1714609e-10
6.2353662e-10
6.301697e-10
6.3661392e-10
6.4342208e-10
6.4993439e-10
6.5694426e-10
6.6354815e-10
6.7079612e-10
6.7752374e-10
6.8507389e-10
6.9199805e-10
6.999545e-10
7.0721779e-10
7.1574967e-10
7.2366814e-10
7.332796e-10
7.4260221e-10
7.5449578e-10
7.6668806e-10
7.8327837e-10
8.0079789e-10
8.2618925e-10
8.5256379e-10
8.9253414e-10
9.3174999e-10
9.9244929e-10
1.0485019e-09
1.1360541e-09
1.2245888e-09
1.3463383e-09
1.4473172e-09
1.6047795e-09
1.7306312e-09
1.924598e-09
2.0758155e-09
2.3066408e-09
2.4827381e-09
2.7490226e-09
2.9491877e-09
3.2515509e-09
3.4742222e-09
3.8102484e-09
4.0547223e-09
4.4237167e-09
4.6905252e-09
5.0945585e-09
5.3832142e-09
5.8236276e-09
6.1295099e-09
6.5885054e-09
6.9057668e-09
7.3831864e-09
7.7106336e-09
8.2028295e-09
8.5426048e-09
9.053389e-09
9.4070508e-09
9.9409314e-09
1.0303113e-08
1.0850693e-08
1.1225869e-08
1.1794205e-08
1.2170992e-08
1.2909174e-08
5.9748071e-10
6.0562913e-10
6.1358794e-10
6.2198347e-10
6.2999449e-10
6.3878654e-10
6.4679334e-10
6.5547858e-10
6.6432282e-10
6.7309072e-10
6.8313668e-10
6.9241656e-10
7.0370334e-10
7.1363803e-10
7.2623644e-10
7.3687999e-10
7.507824e-10
7.622801e-10
7.7763578e-10
7.9055666e-10
8.0796119e-10
8.2361634e-10
8.454854e-10
8.6678725e-10
8.9827274e-10
9.3097185e-10
9.8195381e-10
1.0353871e-09
1.119538e-09
1.2061791e-09
1.3416138e-09
1.4740217e-09
1.6793205e-09
1.8657323e-09
2.1528916e-09
2.3964806e-09
2.770671e-09
3.0730491e-09
3.5387895e-09
3.9022197e-09
4.4676393e-09
4.8945033e-09
5.5627385e-09
6.054276e-09
6.8219797e-09
7.3790977e-09
8.2456397e-09
8.865139e-09
9.8221595e-09
1.0501666e-08
1.1547761e-08
1.2282893e-08
1.3407356e-08
1.4195108e-08
1.5401254e-08
1.6240932e-08
1.752852e-08
1.8422048e-08
1.9798121e-08
2.0723584e-08
2.2129548e-08
2.307508e-08
2.4505136e-08
2.5464676e-08
2.6915462e-08
2.7894828e-08
2.9370625e-08
3.0376519e-08
3.1891226e-08
3.2906457e-08
3.4443409e-08
3.5481117e-08
3.704486e-08
3.8074858e-08
4.0061791e-08
6.3145226e-10
6.4036829e-10
6.493708e-10
6.5880154e-10
6.6909356e-10
6.7964037e-10
6.9205772e-10
7.0410694e-10
7.2002472e-10
7.3416857e-10
7.5444531e-10
7.7101807e-10
7.9627133e-10
8.1549878e-10
8.4566338e-10
8.6776992e-10
9.028777e-10
9.3004129e-10
9.7153233e-10
1.0166218e-09
1.0678287e-09
1.1509062e-09
1.2419057e-09
1.3832577e-09
1.5583168e-09
1.7830029e-09
2.0952829e-09
2.4179824e-09
2.8940435e-09
3.3404135e-09
4.0072546e-09
4.5944537e-09
5.4847727e-09
6.2128669e-09
7.3413128e-09
8.2234536e-09
9.5943472e-09
1.0628766e-08
1.2240691e-08
1.3430608e-08
1.5304281e-08
1.6652032e-08
1.8795697e-08
2.0295341e-08
2.2686082e-08
2.4339422e-08
2.6969592e-08
2.8763093e-08
3.160095e-08
3.3525029e-08
3.6551075e-08
3.859482e-08
4.1769635e-08
4.3923191e-08
4.7266773e-08
4.9519485e-08
5.3015681e-08
5.5382287e-08
5.9050421e-08
6.145903e-08
6.5156619e-08
6.7586205e-08
7.1276309e-08
7.371095e-08
7.7406864e-08
7.9853609e-08
8.3545951e-08
8.6033104e-08
8.9748895e-08
9.2232764e-08
9.5975827e-08
9.84853e-08
1.02239e-07
1.0471438e-07
1.0937303e-07
6.5705677e-10
6.7064008e-10
6.8302591e-10
6.9873992e-10
7.1535791e-10
7.317536e-10
7.546716e-10
7.7586209e-10
8.0859144e-10
8.3516865e-10
8.7778404e-10
9.1032509e-10
9.6401258e-10
1.004699e-09
1.0716895e-09
1.1282004e-09
1.2214312e-09
1.3197792e-09
1.4775244e-09
1.6884861e-09
1.9670382e-09
2.403918e-09
2.8712766e-09
3.6121596e-09
4.323375e-09
5.4461965e-09
6.4329942e-09
7.8654238e-09
9.378212e-09
1.1087689e-08
1.3155865e-08
1.5194689e-08
1.7887844e-08
2.0127454e-08
2.3578436e-08
2.6144481e-08
3.0186639e-08
3.3089408e-08
3.7665321e-08
4.0905803e-08
4.6060902e-08
4.9632767e-08
5.5372722e-08
5.9230465e-08
6.546758e-08
6.9616123e-08
7.632035e-08
8.0721488e-08
8.7809482e-08
9.2433685e-08
9.9829821e-08
1.0465475e-07
1.1223745e-07
1.1724505e-07
1.250754e-07
1.3022242e-07
1.3825957e-07
1.4359847e-07
1.5186123e-07
1.5722991e-07
1.6548058e-07
1.7083972e-07
1.7894915e-07
1.8427109e-07
1.9230928e-07
1.9758419e-07
2.0549102e-07
2.1082524e-07
2.1860994e-07
2.2391074e-07
2.3174097e-07
2.3704331e-07
2.448279e-07
2.5006346e-07
2.5956863e-07
6.7677054e-10
6.9911987e-10
7.2215211e-10
7.5795172e-10
7.888727e-10
8.3384087e-10
8.8785406e-10
9.4159101e-10
1.0104824e-09
1.0694407e-09
1.1553942e-09
1.2259904e-09
1.3354828e-09
1.4419684e-09
1.615416e-09
1.8339148e-09
2.191248e-09
2.6587524e-09
3.4151967e-09
4.2776877e-09
5.5031114e-09
7.1483254e-09
8.8003337e-09
1.1392397e-08
1.3636424e-08
1.7241073e-08
2.0154078e-08
2.4860827e-08
2.8468715e-08
3.4379602e-08
3.872901e-08
4.5816548e-08
5.1031327e-08
5.8423624e-08
6.6271233e-08
7.3197711e-08
8.2984096e-08
9.0150475e-08
1.0104879e-07
1.0872115e-07
1.20791e-07
1.2892502e-07
1.4198902e-07
1.5053738e-07
1.6442062e-07
1.7342572e-07
1.8805232e-07
1.9744034e-07
2.1265808e-07
2.2236959e-07
2.3800944e-07
2.4800628e-07
2.6376493e-07
2.7403054e-07
2.8998788e-07
3.0042158e-07
3.1663841e-07
3.2739659e-07
3.4382799e-07
3.546749e-07
3.7110343e-07
3.8193274e-07
3.9801643e-07
4.0878537e-07
4.2469649e-07
4.3529975e-07
4.5085953e-07
4.6161744e-07
4.7674012e-07
4.8752081e-07
5.0280726e-07
5.1362395e-07
5.2894829e-07
5.398082e-07
5.5888907e-07
7.1698849e-10
8.2802572e-10
8.8631616e-10
9.8883088e-10
1.0539198e-09
1.1315703e-09
1.2238872e-09
1.2892916e-09
1.3787338e-09
1.464229e-09
1.6015418e-09
1.7801073e-09
2.0679623e-09
2.5082547e-09
3.2054745e-09
4.163285e-09
5.6657315e-09
7.4029658e-09
1.0183081e-08
1.2921668e-08
1.7315226e-08
2.1396994e-08
2.6631931e-08
3.3835829e-08
3.983021e-08
4.9559455e-08
5.6894901e-08
6.8960899e-08
7.7648308e-08
9.2082668e-08
1.021628e-07
1.189626e-07
1.3036664e-07
1.4945907e-07
1.6212457e-07
1.8279592e-07
1.9773582e-07
2.1825135e-07
2.3625468e-07
2.5583331e-07
2.777914e-07
2.9524302e-07
3.2079632e-07
3.3786916e-07
3.6522198e-07
3.8292169e-07
4.1144874e-07
4.2986208e-07
4.5947215e-07
4.7847485e-07
5.0885128e-07
5.2832419e-07
5.5877192e-07
5.7873467e-07
6.0914031e-07
6.2964027e-07
6.6116323e-07
6.8268362e-07
7.1489431e-07
7.3718321e-07
7.6984983e-07
7.9245266e-07
8.2462215e-07
8.4726457e-07
8.7926845e-07
9.0157294e-07
9.335468e-07
9.5601694e-07
9.8702959e-07
1.0106986e-06
1.0428527e-06
1.0676202e-06
1.1015263e-06
1.1277643e-06
1.1738551e-06
7.2475874e-10
8.7682002e-10
9.4716151e-10
1.1061665e-09
1.1720612e-09
1.3217423e-09
1.3989363e-09
1.5753061e-09
1.7378612e-09
2.0288025e-09
2.5009499e-09
3.2755687e-09
4.4485687e-09
6.1396913e-09
8.7148514e-09
1.1821772e-08
1.6688124e-08
2.1670786e-08
2.9818716e-08
3.7032967e-08
4.9035762e-08
5.8696167e-08
7.4588479e-08
8.7930198e-08
1.0420741e-07
1.258702e-07
1.4230326e-07
1.6914709e-07
1.874329e-07
2.1801075e-07
2.3856996e-07
2.72991e-07
2.9562827e-07
3.3357921e-07
3.5815375e-07
3.9928013e-07
4.2551475e-07
4.6896442e-07
4.9659483e-07
5.4219642e-07
5.713824e-07
6.1578431e-07
6.5459483e-07
6.9273156e-07
7.4170748e-07
7.7701981e-07
8.320237e-07
8.6884987e-07
9.2660923e-07
9.6487654e-07
1.0246068e-06
1.063831e-06
1.1239234e-06
1.1647577e-06
1.2261432e-06
1.2711899e-06
1.3407058e-06
1.3897929e-06
1.461199e-06
1.5132253e-06
1.5820874e-06
1.6380633e-06
1.7032741e-06
1.760089e-06
1.8287748e-06
1.8822771e-06
1.957291e-06
2.0111983e-06
2.0879748e-06
2.1504514e-06
2.2377875e-06
2.3118763e-06
2.4162972e-06
2.4963698e-06
2.6339619e-06
7.0559879e-10
7.5116426e-10
8.0029052e-10
8.965416e-10
9.7459802e-10
1.1145496e-09
1.3416444e-09
1.7745566e-09
2.5261404e-09
3.7558866e-09
5.6149442e-09
8.3385134e-09
1.2123842e-08
1.7272395e-08
2.5192948e-08
3.3385769e-08
4.6795495e-08
5.902375e-08
7.9590508e-08
9.6089554e-08
1.2417285e-07
1.4497917e-07
1.8055417e-07
2.0556417e-07
2.4800974e-07
2.7863689e-07
3.197944e-07
3.6752845e-07
4.0353566e-07
4.6111733e-07
4.9997967e-07
5.6400836e-07
6.0598722e-07
6.7584342e-07
7.2115889e-07
7.9671536e-07
8.4529816e-07
9.2532356e-07
9.7752615e-07
1.0633677e-06
1.1196379e-06
1.212777e-06
1.2738788e-06
1.3754047e-06
1.4500488e-06
1.5491842e-06
1.6533714e-06
1.7375963e-06
1.8590797e-06
1.9429766e-06
2.0714956e-06
2.1575553e-06
2.2878172e-06
2.3878598e-06
2.552163e-06
2.6731966e-06
2.8662772e-06
2.9908728e-06
3.1597759e-06
3.2800873e-06
3.4502022e-06
3.5927488e-06
3.7402991e-06
3.9214342e-06
4.0999239e-06
4.2399953e-06
4.479473e-06
4.6134291e-06
4.9010854e-06
5.092375e-06
5.4805045e-06
5.7224755e-06
6.1262514e-06
6.3175111e-06
6.6804628e-06
7.9272917e-10
8.8723952e-10
1.0154236e-09
1.1008126e-09
1.271292e-09
1.6655697e-09
2.4895613e-09
3.978598e-09
6.366958e-09
9.9962005e-09
1.5233491e-08
2.2839711e-08
3.2844591e-08
4.6558718e-08
6.6676542e-08
8.5698169e-08
1.1789242e-07
1.4440123e-07
1.8951519e-07
2.2307201e-07
2.8057049e-07
3.207047e-07
3.8963925e-07
4.3600283e-07
5.1543066e-07
5.6776767e-07
6.5738496e-07
7.1598383e-07
8.0823137e-07
8.9236983e-07
9.7604963e-07
1.0876144e-06
1.1686084e-06
1.2968325e-06
1.3834152e-06
1.5269028e-06
1.6259069e-06
1.7852605e-06
1.895464e-06
2.0767522e-06
2.1969971e-06
2.40412e-06
2.5391076e-06
2.8076905e-06
2.9770422e-06
3.2469627e-06
3.432705e-06
3.6721263e-06
3.9427639e-06
4.1355867e-06
4.4961968e-06
4.6677652e-06
5.0637969e-06
5.3872607e-06
6.034786e-06
6.2959352e-06
6.8691887e-06
7.1212425e-06
7.2940263e-06
7.6455992e-06
8.2055644e-06
8.6068087e-06
8.9797777e-06
9.7226355e-06
1.0014422e-05
1.0353195e-05
1.1193081e-05
1.1274214e-05
1.1773163e-05
1.2061675e-05
1.2634326e-05
1.2895555e-05
1.3424946e-05
1.363489e-05
1.4034235e-05
8.1162091e-10
9.8875579e-10
1.1304702e-09
1.437202e-09
2.1515312e-09
3.677502e-09
6.3473909e-09
1.0673309e-08
1.7159374e-08
2.6769341e-08
4.0133335e-08
6.0083872e-08
8.3193652e-08
1.1807244e-07
1.5827952e-07
2.0003018e-07
2.6836244e-07
3.1895351e-07
4.0590159e-07
4.6749737e-07
5.7163738e-07
6.4332763e-07
7.6516353e-07
8.4712751e-07
9.861537e-07
1.0811394e-06
1.2422974e-06
1.3510538e-06
1.5366e-06
1.6683663e-06
1.8822377e-06
2.0600684e-06
2.2538162e-06
2.4879998e-06
2.6751784e-06
3.0138744e-06
3.2428371e-06
3.6046619e-06
3.8655377e-06
4.3257502e-06
4.566324e-06
5.1741027e-06
5.4495016e-06
6.454495e-06
6.7276237e-06
7.3622631e-06
7.7214374e-06
8.5258437e-06
8.9789934e-06
9.5499171e-06
1.0619629e-05
1.0733511e-05
1.1790692e-05
1.1845747e-05
1.2658604e-05
1.2739209e-05
1.3983672e-05
1.4043778e-05
1.3727754e-05
1.4356851e-05
1.462215e-05
1.467305e-05
1.50376e-05
1.5577967e-05
1.4651397e-05
1.5062047e-05
1.4532232e-05
1.3789763e-05
1.3872363e-05
1.397197e-05
1.3622509e-05
1.3628165e-05
1.2665485e-05
1.2527608e-05
1.1822359e-05
7.5284801e-10
9.525939e-10
1.3446541e-09
2.5114176e-09
4.9442076e-09
9.3654895e-09
1.6498451e-08
2.7502484e-08
4.3404927e-08
6.6930061e-08
9.8005216e-08
1.4325949e-07
1.922797e-07
2.7002836e-07
3.3499471e-07
4.3260388e-07
5.4777759e-07
6.3920768e-07
7.9454453e-07
9.018934e-07
1.0752672e-06
1.208317e-06
1.4198423e-06
1.5714958e-06
1.8289982e-06
2.0182997e-06
2.3334522e-06
2.5517177e-06
2.9537804e-06
3.2572958e-06
3.7462479e-06
4.0852841e-06
4.5484753e-06
5.0448904e-06
5.5402432e-06
6.6415678e-06
7.0555692e-06
7.7947807e-06
8.6909104e-06
9.5923386e-06
1.0153091e-05
1.1602398e-05
1.1696457e-05
1.3091661e-05
1.3164898e-05
1.4006818e-05
1.3797114e-05
1.4985424e-05
1.4457904e-05
1.5674918e-05
1.4353163e-05
1.3969435e-05
1.3993625e-05
1.2845598e-05
1.2377234e-05
1.2228483e-05
1.1962187e-05
1.0535967e-05
1.0781373e-05
1.0709762e-05
1.0088347e-05
9.3620931e-06
9.1148539e-06
7.9233917e-06
7.3186585e-06
7.4835442e-06
5.586391e-06
5.8721387e-06
5.4258625e-06
5.8180825e-06
4.9251238e-06
4.6182355e-06
3.6000826e-06
3.7319455e-06
3.4236959e-06
6.9982667e-10
1.0526052e-09
2.4845914e-09
5.979533e-09
1.254022e-08
2.3539191e-08
4.0655806e-08
6.628929e-08
1.0193633e-07
1.5680616e-07
2.2061791e-07
3.0768819e-07
4.1095747e-07
5.4443242e-07
6.6658259e-07
8.5881332e-07
1.0106981e-06
1.2052869e-06
1.4641777e-06
1.6568575e-06
1.9484433e-06
2.2549823e-06
2.600287e-06
2.9392346e-06
3.5015223e-06
3.9130408e-06
4.6038994e-06
5.0630261e-06
6.2335158e-06
6.9324701e-06
7.994446e-06
8.762891e-06
9.8688143e-06
1.1014724e-05
1.1701448e-05
1.3066103e-05
1.3178396e-05
1.3616657e-05
1.4773057e-05
1.4218106e-05
1.5085161e-05
1.3834714e-05
1.3478061e-05
1.2369212e-05
1.2290336e-05
1.139128e-05
1.0287882e-05
1.0492326e-05
8.6859538e-06
8.4168812e-06
5.6052109e-06
6.5782156e-06
5.3811557e-06
4.4434809e-06
3.826919e-06
4.2580511e-06
3.6323484e-06
2.7654165e-06
3.8096701e-06
3.5376907e-06
2.92847e-06
3.0067003e-06
2.9534243e-06
1.9910911e-06
2.0647538e-06
1.9877692e-06
1.5552779e-06
1.9272233e-06
2.0234183e-06
2.0156758e-06
1.4146461e-06
1.2079461e-06
1.0089604e-06
1.112094e-06
1.0466694e-06
6.806147e-10
1.953998e-09
6.2009239e-09
1.4991156e-08
3.0763777e-08
5.5853456e-08
9.3519397e-08
1.4910617e-07
2.2188167e-07
3.3733744e-07
4.5456049e-07
6.1061849e-07
8.1707221e-07
9.9890508e-07
1.2676641e-06
1.5507758e-06
1.8246013e-06
2.241013e-06
2.6263396e-06
3.0371673e-06
3.6831594e-06
4.3247385e-06
4.9854511e-06
5.9735911e-06
7.2935793e-06
8.2322681e-06
9.7876368e-06
1.0682618e-05
1.2322216e-05
1.2900644e-05
1.3642306e-05
1.4080393e-05
1.4545007e-05
1.4111329e-05
1.3460626e-05
1.1926761e-05
1.174955e-05
1.0614349e-05
9.4920548e-06
7.8183676e-06
8.0141517e-06
5.1129072e-06
6.0881688e-06
4.2617989e-06
5.1973138e-06
3.5902058e-06
3.8193221e-06
3.3144365e-06
2.5186797e-06
2.2136449e-06
1.4730775e-06
2.1661748e-06
1.4443198e-06
1.2955408e-06
1.3922655e-06
1.6133299e-06
1.311225e-06
1.0861468e-06
2.0115305e-06
1.8960734e-06
1.3215327e-06
1.4308745e-06
1.6214519e-06
1.2927234e-06
1.1950412e-06
9.9090346e-07
1.1237823e-06
1.5253093e-06
1.9723516e-06
1.1527063e-06
8.4528695e-07
7.8921722e-07
7.2010824e-07
6.7642751e-07
6.7830409e-07
6.9170718e-10
4.9321903e-09
1.5527187e-08
3.5986785e-08
7.0837609e-08
1.2373914e-07
2.0031503e-07
3.1457176e-07
4.4695838e-07
6.6368437e-07
8.5605598e-07
1.1666364e-06
1.4524504e-06
1.8154713e-06
2.318887e-06
2.7375387e-06
3.410057e-06
4.1824227e-06
4.8906029e-06
6.0081726e-06
7.5872517e-06
8.9000413e-06
1.0435487e-05
1.1809038e-05
1.2746578e-05
1.3627943e-05
1.4241307e-05
1.3906522e-05
1.2927627e-05
1.1924704e-05
9.8326027e-06
9.4140351e-06
7.4651462e-06
6.9306765e-06
5.0449832e-06
4.0249002e-06
4.5186899e-06
3.6494635e-06
2.7217596e-06
2.450723e-06
2.2340316e-06
1.2981642e-06
2.15895e-06
1.5760228e-06
2.9278139e-06
1.3241982e-06
2.1787406e-06
1.035401e-06
9.5931638e-07
8.6752385e-07
1.0171302e-06
1.1919426e-06
9.4397874e-07
9.109956e-07
9.8079468e-07
1.1755823e-06
1.0141133e-06
9.1618663e-07
1.3367851e-06
1.3140542e-06
1.0607551e-06
1.1212757e-06
1.0872072e-06
1.3251384e-06
1.301732e-06
9.2707378e-07
1.0404079e-06
1.6961851e-06
1.5705763e-06
8.837802e-07
8.2911235e-07
8.2911794e-07
8.2246714e-07
7.094938e-07
7.129727e-07
1.0180029e-09
1.2270263e-08
3.6773871e-08
8.1196196e-08
1.5233213e-07
2.5540297e-07
4.0006652e-07
6.0677136e-07
8.3948754e-07
1.2104815e-06
1.5441592e-06
2.0860643e-06
2.5647205e-06
3.3739751e-06
4.1943168e-06
5.1340642e-06
6.8126626e-06
8.2462744e-06
9.9044126e-06
1.1933394e-05
1.2832988e-05
1.3682173e-05
1.3282185e-05
1.2675178e-05
1.1306794e-05
9.6866585e-06
8.9165385e-06
6.782402e-06
4.8152385e-06
4.1065078e-06
3.1814109e-06
3.3142043e-06
2.2280974e-06
1.9024448e-06
1.2962505e-06
1.4674925e-06
1.5883398e-06
1.3338826e-06
1.088162e-06
1.0779576e-06
7.1873715e-07
6.9463324e-07
9.2751931e-07
9.5988943e-07
1.1865221e-06
1.1276268e-06
1.3947988e-06
9.7783914e-07
9.6960839e-07
8.8132979e-07
1.023366e-06
9.6618591e-07
8.8914862e-07
9.2316881e-07
1.4271715e-06
1.511166e-06
1.0792816e-06
9.4007981e-07
1.1522361e-06
1.1694174e-06
1.056806e-06
1.0018302e-06
1.0281111e-06
1.0444333e-06
1.1118071e-06
8.7101224e-07
9.9171821e-07
1.7143951e-06
9.8622652e-07
8.1061871e-07
8.601731e-07
8.1166064e-07
8.8475246e-07
8.278876e-07
8.2122301e-07
3.0463148e-10
2.866655e-08
8.1567047e-08
1.7116977e-07
3.0583377e-07
4.9267239e-07
7.5116878e-07
1.0896654e-06
1.5109847e-06
2.1319402e-06
2.747452e-06
3.7249705e-06
4.7070005e-06
6.5324196e-06
8.1452122e-06
1.047598e-05
1.176175e-05
1.2873973e-05
1.3379149e-05
1.3179841e-05
1.0832541e-05
9.3811002e-06
6.3270416e-06
5.4396246e-06
4.1340875e-06
3.4601028e-06
3.048874e-06
1.9182407e-06
1.4395439e-06
1.1969313e-06
1.4263591e-06
1.419167e-06
7.1775576e-07
5.448155e-07
4.1710423e-07
7.5364971e-07
8.4387734e-07
5.8842693e-07
1.0363092e-06
8.3482777e-07
5.1350681e-07
7.1211809e-07
6.6582872e-07
8.1594292e-07
1.1733923e-06
9.174596e-07
1.2042663e-06
1.1947304e-06
1.1733189e-06
1.1234396e-06
1.1033741e-06
9.593644e-07
8.9132153e-07
9.3275655e-07
1.2338757e-06
1.2187756e-06
1.0054705e-06
9.4683824e-07
1.0656657e-06
1.1723017e-06
1.0475186e-06
1.3025464e-06
1.2328e-06
1.033267e-06
9.8919584e-07
9.0786818e-07
1.0092194e-06
1.4554288e-06
9.1149392e-07
9.0459784e-07
8.8746604e-07
8.851136e-07
8.7144444e-07
8.8356014e-07
9.2481358e-07
5.4826942e-09
6.5083453e-08
1.7089795e-07
3.3794321e-07
5.7472367e-07
8.9289852e-07
1.3331734e-06
1.8973019e-06
2.7064516e-06
3.7641418e-06
5.02234e-06
7.1135702e-06
9.271379e-06
1.1454594e-05
1.2751521e-05
1.3011568e-05
1.1743226e-05
9.8094281e-06
8.222814e-06
6.1033897e-06
3.6918064e-06
3.1025306e-06
1.8249307e-06
1.9537217e-06
1.511541e-06
1.6225762e-06
1.1000622e-06
8.6969461e-07
7.8654156e-07
5.8950267e-07
8.0384162e-07
6.3915216e-07
4.18201e-07
4.3130688e-07
3.7622885e-07
6.3106593e-07
5.6865554e-07
4.3681367e-07
6.8244406e-07
6.9025308e-07
4.8771415e-07
8.5818728e-07
7.8485047e-07
7.6259102e-07
1.3475089e-06
1.0061294e-06
1.136775e-06
9.6938651e-07
1.0422565e-06
1.1699679e-06
1.1666745e-06
1.0133654e-06
9.108904e-07
9.7473675e-07
1.185896e-06
1.0831043e-06
1.1060939e-06
1.1545268e-06
1.0798978e-06
1.5674834e-06
1.3040622e-06
1.2460858e-06
1.1456163e-06
9.9653528e-07
8.9305351e-07
8.5121037e-07
9.8278451e-07
1.1651348e-06
8.9597787e-07
9.7727878e-07
9.1964896e-07
9.173922e-07
8.897514e-07
8.8802048e-07
9.7214659e-07
1.8219007e-08
1.3952063e-07
3.3756732e-07
6.2633471e-07
1.0188961e-06
1.5459999e-06
2.2895393e-06
3.3582653e-06
4.9226681e-06
7.0675302e-06
9.8624513e-06
1.1511903e-05
1.2245439e-05
1.1856282e-05
9.8752148e-06
6.5744699e-06
4.8129319e-06
3.9291431e-06
3.1939627e-06
1.8794415e-06
1.1424849e-06
9.7182122e-07
5.4330457e-07
7.1370343e-07
7.8259894e-07
1.0495273e-06
1.1324855e-06
6.831555e-07
7.0581823e-07
5.2406099e-07
6.3683772e-07
5.7680124e-07
3.9298035e-07
5.6118307e-07
4.866849e-07
5.7354693e-07
5.1569441e-07
4.0772479e-07
6.5108041e-07
5.6766554e-07
5.0445139e-07
9.7973326e-07
1.1920726e-06
8.0014963e-07
1.0995426e-06
1.0304329e-06
1.1570977e-06
9.3570297e-07
7.2921529e-07
1.4808217e-06
1.135909e-06
1.1084124e-06
9.1948524e-07
1.0895316e-06
1.1068785e-06
1.0829542e-06
1.2469855e-06
1.4448073e-06
1.1564986e-06
1.966578e-06
1.3262121e-06
1.1958552e-06
1.0035287e-06
1.0639206e-06
9.0419686e-07
8.8810103e-07
9.2729987e-07
1.0661597e-06
9.4086053e-07
1.0205061e-06
9.034309e-07
9.3199633e-07
9.6572158e-07
9.4001543e-07
9.8474296e-07
4.9581814e-08
2.8254557e-07
6.270271e-07
1.0951483e-06
1.7286875e-06
2.6213432e-06
4.0102125e-06
6.1852705e-06
9.6477156e-06
1.1020059e-05
1.1849593e-05
1.0615208e-05
7.292268e-06
5.5087522e-06
3.6559256e-06
2.0542788e-06
1.66761e-06
1.6897173e-06
9.6403555e-07
5.4896274e-07
6.8021876e-07
4.7637242e-07
3.8176704e-07
5.463459e-07
5.9555474e-07
8.7453443e-07
1.2936411e-06
5.1220983e-07
7.4168376e-07
5.0895885e-07
5.541759e-07
4.1368784e-07
4.1223664e-07
5.9503423e-07
5.6559813e-07
5.3828862e-07
4.8251545e-07
4.1193157e-07
5.8760589e-07
5.3847765e-07
4.8640393e-07
1.1507332e-06
1.4810658e-06
1.2344908e-06
1.0837018e-06
1.1083519e-06
1.1860566e-06
9.4005829e-07
7.4820818e-07
1.2973939e-06
8.7457104e-07
1.1118978e-06
8.805132e-07
1.075438e-06
1.048072e-06
1.1325698e-06
1.5497731e-06
1.3809765e-06
1.0971494e-06
1.5394009e-06
1.1825727e-06
1.1145131e-06
1.3646964e-06
1.0817618e-06
1.0857207e-06
9.4976275e-07
9.8141614e-07
9.386839e-07
9.6757517e-07
1.0257448e-06
9.4999243e-07
9.0587596e-07
1.02841e-06
1.0653144e-06
1.036427e-06
1.2085686e-07
5.4082321e-07
1.1001974e-06
1.8292335e-06
2.8742482e-06
4.4987677e-06
7.4849056e-06
1.0248434e-05
1.2333099e-05
1.0090082e-05
6.5852734e-06
4.6264122e-06
2.8644774e-06
2.2155537e-06
1.0764615e-06
5.3287693e-07
6.4221594e-07
8.1839628e-07
4.0126993e-07
3.8123923e-07
6.1649246e-07
3.5194563e-07
3.9761689e-07
4.6196429e-07
5.1774105e-07
7.0948169e-07
7.8918267e-07
5.3168821e-07
5.6057391e-07
4.7833586e-07
5.1085721e-07
4.1013884e-07
4.3147927e-07
5.1758827e-07
8.5790705e-07
5.6618119e-07
4.4212392e-07
4.3486108e-07
5.5813442e-07
5.4679251e-07
5.2416367e-07
1.2058426e-06
1.8790389e-06
2.0088897e-06
1.1407496e-06
9.5154494e-07
1.1549642e-06
1.0362033e-06
7.7746465e-07
7.6648453e-07
7.4537384e-07
9.6890972e-07
8.0747976e-07
9.5875535e-07
1.0559965e-06
1.5248698e-06
1.6575016e-06
1.3955327e-06
1.0293394e-06
2.273629e-06
1.3431273e-06
1.1181133e-06
1.3533353e-06
1.1343996e-06
1.1485615e-06
9.8865028e-07
9.6541516e-07
8.5790295e-07
1.0188062e-06
1.0141625e-06
9.954492e-07
9.4479732e-07
1.083365e-06
1.1311271e-06
1.0672222e-06
2.7230562e-07
9.800677e-07
1.8415667e-06
2.9728437e-06
4.8461009e-06
8.2299988e-06
1.0288812e-05
1.0432465e-05
8.0104585e-06
4.213691e-06
2.6782615e-06
1.680248e-06
1.0130186e-06
7.4607601e-07
2.9072635e-07
1.8274264e-07
3.918858e-07
5.3451783e-07
3.2795433e-07
3.8809282e-07
3.0241573e-07
2.8115712e-07
4.5536815e-07
4.4778977e-07
5.8816694e-07
6.2466953e-07
7.1132193e-07
4.7812328e-07
4.56797e-07
4.3551806e-07
4.737241e-07
4.2729021e-07
4.2677826e-07
6.9402408e-07
1.1368698e-06
6.1460478e-07
4.5955678e-07
4.638045e-07
4.8158466e-07
6.8628775e-07
6.712954e-07
1.0579033e-06
2.0771333e-06
1.1730431e-06
7.4743317e-07
6.3274274e-07
1.026276e-06
9.2942357e-07
8.3961537e-07
6.9015971e-07
7.035699e-07
9.0684303e-07
7.8153945e-07
1.2385976e-06
2.4852755e-06
2.0316155e-06
1.7583313e-06
1.6078134e-06
1.0924545e-06
1.5032967e-06
1.2997436e-06
1.3398156e-06
1.3161323e-06
1.1554058e-06
8.9124242e-07
9.0125832e-07
8.3529478e-07
8.1881652e-07
1.1223988e-06
1.1141282e-06
1.0164817e-06
1.0595626e-06
1.1272133e-06
1.1223896e-06
1.0512896e-06
5.750593e-07
1.6917341e-06
2.9772116e-06
4.844737e-06
8.6290652e-06
1.0378418e-05
8.6948177e-06
5.6527401e-06
3.4056182e-06
1.3221108e-06
9.5685948e-07
5.1061658e-07
4.1158984e-07
3.4769158e-07
1.7458644e-07
1.5494151e-07
3.2109097e-07
4.1622298e-07
3.4524286e-07
4.9241907e-07
2.7085206e-07
2.6649503e-07
4.1188997e-07
4.3060897e-07
6.8833207e-07
9.8278103e-07
8.0112409e-07
4.7368916e-07
4.6092744e-07
4.2309468e-07
4.306763e-07
4.3437057e-07
4.2902506e-07
7.749502e-07
1.1443002e-06
6.3459729e-07
4.890513e-07
4.7338305e-07
4.4470898e-07
5.3506486e-07
5.4214538e-07
7.6653474e-07
9.971809e-07
8.9637277e-07
7.0175997e-07
6.2110531e-07
9.1499221e-07
9.8845324e-07
8.2111048e-07
6.6540035e-07
7.226125e-07
9.5191851e-07
7.3927364e-07
1.3578683e-06
1.966913e-06
1.7509016e-06
1.4856587e-06
1.5324489e-06
1.1337133e-06
9.7245074e-07
1.0046149e-06
1.3796566e-06
1.3354082e-06
1.2255022e-06
9.383987e-07
8.6360111e-07
9.4293789e-07
8.4409991e-07
1.0829869e-06
1.1395461e-06
1.0720964e-06
1.1781372e-06
1.2261287e-06
1.1485072e-06
1.0531006e-06
1.1511004e-06
2.7959959e-06
4.7537702e-06
8.2347278e-06
9.9416098e-06
7.7042887e-06
5.1348724e-06
2.9688563e-06
1.0197286e-06
3.8259643e-07
3.9540748e-07
2.166165e-07
2.2663216e-07
2.4764567e-07
1.6566348e-07
1.5849172e-07
2.9183465e-07
3.7015655e-07
3.6470242e-07
5.2070783e-07
2.7282814e-07
2.4109847e-07
3.1520227e-07
3.8930949e-07
4.7207133e-07
1.3772385e-06
8.2261758e-07
4.7150439e-07
4.8548529e-07
4.4138177e-07
4.1539085e-07
4.6306368e-07
4.0319771e-07
6.8663816e-07
8.3982405e-07
6.6800796e-07
5.2815706e-07
4.7186786e-07
4.2789987e-07
3.9019417e-07
5.5151358e-07
6.8726297e-07
8.6378206e-07
8.5619019e-07
6.9903388e-07
6.8001244e-07
8.3869292e-07
7.8924525e-07
6.7426173e-07
6.6028389e-07
7.7948435e-07
8.5600319e-07
7.1503457e-07
8.2199273e-07
2.2776476e-06
1.6044568e-06
1.5884209e-06
1.5214101e-06
1.1523455e-06
9.2701481e-07
9.76579e-07
1.1387175e-06
1.2539352e-06
1.1465133e-06
1.074183e-06
9.0669817e-07
1.0620564e-06
9.31663e-07
1.0967595e-06
1.2386497e-06
1.1111107e-06
1.2477268e-06
1.3992526e-06
1.2912817e-06
1.1037909e-06
2.2096017e-06
4.4559477e-06
7.7771638e-06
9.288527e-06
6.8123071e-06
4.4693079e-06
2.5290754e-06
1.129648e-06
3.209972e-07
2.2729113e-07
2.4490473e-07
1.744245e-07
1.8258881e-07
2.322116e-07
1.6793351e-07
1.7080064e-07
2.7621407e-07
3.5327559e-07
3.6820357e-07
5.151209e-07
3.0045805e-07
2.2593222e-07
2.8746124e-07
3.6930811e-07
6.0058867e-07
1.0108232e-06
6.1691164e-07
4.2529849e-07
5.7627447e-07
4.7896048e-07
4.1406504e-07
5.228015e-07
4.2004927e-07
5.1569393e-07
6.4122103e-07
7.329126e-07
6.2032875e-07
5.1248038e-07
4.8524733e-07
3.8700909e-07
4.2862201e-07
5.8976533e-07
6.9830073e-07
6.1052483e-07
5.9760076e-07
7.9701287e-07
8.3260081e-07
7.5831792e-07
6.6072611e-07
6.7748993e-07
7.9040286e-07
7.9390264e-07
7.1539338e-07
8.8130483e-07
2.1638213e-06
1.576659e-06
1.4600747e-06
1.5021089e-06
1.1540237e-06
9.830947e-07
1.217325e-06
1.119696e-06
1.1842223e-06
1.1300457e-06
9.1494347e-07
7.2054472e-07
8.4538374e-07
9.1196231e-07
1.1830862e-06
1.2723528e-06
1.1555801e-06
1.2948954e-06
1.4284991e-06
1.3895591e-06
1.2188009e-06
3.8480674e-06
7.1097181e-06
9.6175866e-06
7.1568977e-06
4.0784008e-06
2.2233529e-06
9.4053789e-07
3.9633984e-07
2.0436338e-07
2.0074283e-07
2.0131934e-07
1.710595e-07
1.6834463e-07
2.2419499e-07
1.7892763e-07
1.9590693e-07
2.5970612e-07
3.4158244e-07
3.6014703e-07
4.5554583e-07
3.3744336e-07
2.2332616e-07
2.7109422e-07
3.6357524e-07
5.1699857e-07
5.251766e-07
4.5962591e-07
4.1276528e-07
6.7817464e-07
8.409979e-07
4.3885632e-07
5.7142203e-07
4.6058414e-07
4.8203314e-07
6.23038e-07
7.8121648e-07
6.2972598e-07
5.1602419e-07
5.9541652e-07
4.7147951e-07
4.383439e-07
5.321633e-07
5.1825922e-07
6.1733112e-07
5.9876824e-07
9.5554344e-07
8.3161401e-07
7.5033404e-07
6.7243159e-07
7.0623434e-07
6.9411785e-07
7.9071362e-07
7.3859083e-07
7.6834235e-07
1.2596946e-06
1.3034907e-06
1.4042584e-06
1.4155346e-06
1.1778261e-06
1.069912e-06
1.0936957e-06
1.0755954e-06
1.1984052e-06
1.2358056e-06
9.9296633e-07
6.8230439e-07
7.6250005e-07
8.8454273e-07
1.0432572e-06
1.0882343e-06
1.2615211e-06
1.3400271e-06
1.489147e-06
1.449701e-06