/*--------------------------------*- C++ -*----------------------------------*\
| =========                 |                                                 |
| \\      /  F ield         | OpenFOAM: The Open Source CFD Toolbox           |
|  \\    /   O peration     | Version:  2.3.0                                 |
|   \\  /    A nd           | Web:      www.OpenFOAM.org                      |
|    \\/     M anipulation  |                                                 |
\*---------------------------------------------------------------------------*/
FoamFile
{
    version     2.0;
    format      ascii;
    class       volScalarField;
    location    "3.3e-05";
    object      p_rgh;
}
// * * * * * * * * * * * * * * * * * * * * * * * * * * * * * * * * * * * * * //

dimensions      [1 -1 -2 0 0 0 0];

internalField   nonuniform List<scalar> 
7500
(
-16272.389
-9913.1534
-5329.9124
-474.95866
998.5142
1778.0197
495.22462
3292.4708
2601.4521
2151.0422
2346.9896
862.16981
2642.2958
-823.82951
2763.3424
-1393.4982
3784.5457
-952.37922
3493.7114
-35.512788
2273.8474
1401.1151
-736.11922
2753.0717
-574.49768
2977.9194
-878.02542
4004.8799
-691.45443
3027.0916
480.67936
1784.1384
1501.1904
1777.628
5127.3203
693.9889
3529.9269
341.43842
3132.0175
880.26099
2164.7319
1677.3719
1729.9214
3078.7073
1805.6327
3984.3591
1566.2351
2705.316
724.89081
859.55339
3493.5223
1094.5085
1218.5414
287.12823
-3689.6949
-5199.1894
-5226.4284
-5965.2889
-2866.5848
4955.8724
6766.0006
3081.4547
6318.9364
9021.0957
6977.9344
4861.712
3888.8479
5209.758
6126.0015
4527.6456
3162.7793
4517.7672
8005.091
8305.9008
1655.7172
-16351.323
-9866.5767
-5109.367
-358.76173
820.93657
1692.6082
504.84261
3005.0581
2873.3124
1921.7272
2652.5852
743.70547
2693.1523
-890.93476
2673.3921
-1201.9168
3573.2438
-674.78085
3175.3768
297.30788
1880.3723
1775.2488
-943.0182
2768.8695
-450.69066
2777.9302
-567.70525
3610.7518
-447.47246
2844.9722
731.9347
1587.0496
1729.8031
1692.3537
4864.0582
943.17502
3309.6442
761.78615
2719.8431
1027.1461
2133.3489
1740.6231
1791.0734
2910.2988
2052.6437
3536.2775
1998.8954
2366.5504
902.26234
1010.4369
3191.6849
1465.8247
835.10463
476.43406
-3728.476
-5486.0669
-5090.9346
-5686.8492
-2503.278
4334.8032
6119.6904
3934.7106
6852.7829
8261.6552
6485.4453
5471.4865
4348.3843
5042.6452
5732.6435
4235.5196
3504.1075
5054.9815
7773.4861
7832.1952
1694.2219
-16511.743
-9814.5201
-4808.727
-306.10254
993.73256
1210.1139
796.3556
2601.3292
3057.6256
1883.8872
2748.4067
801.24367
2605.2346
-797.65093
2363.5167
-747.50066
3076.7434
-140.63896
2664.3758
684.83047
1631.7352
1851.709
-751.83341
2355.9522
13.649064
2336.4524
-111.77254
3140.4346
-138.16723
2570.1751
942.16036
1657.6168
1513.5932
2185.5198
4204.887
1388.841
2916.8551
1112.1104
2585.7238
990.42531
2198.7205
1591.8963
2210.0719
2509.1903
2369.3713
3113.6108
2332.3312
2109.2875
920.16977
1447.5359
2812.9363
1830.8697
513.03577
339.84045
-3529.4463
-5684.9779
-5225.3065
-5313.298
-1990.4
3744.7545
5222.1119
4677.3597
7611.1275
7928.0285
5978.8144
5326.8015
4672.1341
5346.8572
5579.2805
3742.9712
3705.6397
5738.1232
7655.2514
7212.0442
1626.0029
-16804.141
-9874.2584
-4364.0022
-285.82487
1388.1984
612.34889
1109.8372
2193.9688
3293.6398
1767.2738
2911.9556
851.91343
2391.3988
-440.66975
1750.5468
-14.060344
2376.4545
520.32317
2064.3702
1064.0958
1508.3607
1753.7489
-376.42662
1814.2856
535.52381
1783.9318
557.12991
2449.539
316.55794
2280.4726
960.25696
1994.9205
1099.2661
2853.9846
3494.4953
1871.8365
2425.4388
1430.1376
2428.837
1058.8369
2305.6427
1332.6748
2755.4446
1979.1327
2772.4514
2720.3056
2584.8091
1828.323
908.42696
2016.6319
2434.4697
2151.1596
425.05324
-79.066566
-3416.802
-5742.5167
-5523.5681
-4825.6996
-1435.1016
3068.2467
4400.5539
5318.4189
8122.1615
7984.9656
5880.3773
4904.9452
4709.5989
5645.3971
5460.7972
3325.6969
3958.8392
6443.8734
7560.0508
6470.5725
1473.6126
-17217.702
-10049.307
-3792.2008
-183.53823
1733.9926
119.2358
1359.8749
1735.9772
3652.3785
1601.0809
3034.0151
997.33492
2045.7993
-5.5390502
1171.6735
628.17515
1772.6027
1137.7526
1460.3889
1427.5828
1385.3053
1720.071
-13.443795
1248.9676
1051.7896
1177.6227
1326.4788
1723.5476
776.57762
2020.1223
925.93083
2220.313
832.82104
3532.915
2849.3751
2302.9841
1910.0795
1783.4049
1960.5921
1438.1478
2298.915
1235.7444
3227.0164
1450.9628
3161.7804
2266.5055
2863.5145
1478.6908
1085.3715
2368.5801
2304.5842
2410.4926
377.66341
-515.48267
-3491.5115
-5747.6474
-5846.4676
-4199.7554
-955.97898
2144.6868
3775.079
6079.5197
8354.5516
8081.0003
6110.0272
4507.0742
4685.5968
5939.9528
5179.9516
3034.5739
4404.3397
6962.0102
7358.6703
5728.2016
1299.4061
-17655.899
-10242.287
-3200.8206
8.9488259
1930.4674
-255.13109
1495.182
1384.465
3882.9251
1653.0568
2966.4544
1186.4126
1758.7789
258.90169
849.00839
1011.3649
1404.3426
1548.7081
1077.3187
1555.9699
1403.3179
1679.7401
357.96625
741.63273
1394.0994
727.03995
1880.9782
1240.4616
1147.3899
1799.4141
883.48804
2248.5382
744.12731
4147.0936
2396.8849
2641.4985
1381.4363
2169.1967
1264.9807
2038.3356
2071.1659
1432.2469
3551.329
1099.6441
3409.7706
1758.3594
3095.4148
991.94511
1643.9801
2401.0689
2552.6848
2528.8655
200.12207
-831.79308
-3674.3044
-5708.2106
-6090.109
-3543.2705
-739.64953
1081.6514
3360.9395
6837.4799
8502.7193
8258.6982
6419.3424
4075.0929
4666.0803
6224.2815
4781.9132
3117.1823
5150.8213
7217.7884
6901.3322
4945.8139
1145.9609
-18034.782
-10399.91
-2685.363
249.70936
2014.3613
-546.20133
1466.5403
1303.0018
3864.5002
1912.4825
2836.1426
1277.0998
1596.1768
387.83215
690.70092
1197.3481
1301.7521
1620.6948
1054.9539
1377.4644
1599.6362
1595.8519
686.86494
477.66952
1388.1968
536.13496
2089.8035
1078.5545
1377.3321
1726.7443
727.98765
2154.2356
841.10837
4546.9672
2267.7345
2831.4504
946.0143
2318.0564
725.93032
2605.0223
1658.5499
1968.1868
3587.9172
1090.5498
3475.4617
1395.1664
3027.2084
382.32771
2418.6957
2330.9779
3230.6146
2342.7865
22.912177
-1070.7632
-4012.9086
-5589.5543
-5900.7197
-3005.4182
-1180.8975
160.9581
3290.6233
7235.7269
8531.1469
8630.617
6780.4319
3790.5457
4734.7197
6070.4827
4224.0314
3865.683
6221.78
7270.4237
6292.439
4089.4993
915.42904
-18377.337
-10512.568
-2215.0531
514.29087
1977.0874
-692.45462
1288.3731
1401.1869
3774.2919
2187.7638
2712.2783
1379.791
1379.2396
533.30167
609.01744
1228.3982
1402.8726
1456.8584
1200.0982
1112.1087
1846.7361
1491.098
973.793
381.24023
1205.7225
450.28241
2086.4796
1140.0685
1504.1602
1742.786
570.89839
1911.8771
1088.5384
4718.843
2541.1353
2731.7783
811.77834
1989.628
482.03891
3111.5227
1091.8092
2839.7728
3215.2161
1564.2499
3356.3655
1357.29
2431.5468
-46.823943
2917.687
2294.0786
4291.2761
1843.0453
97.779462
-1388.5615
-4559.666
-5470.1473
-4833.4155
-2630.6074
-2536.2207
-376.58462
3550.7316
7067.3021
8462.1702
9112.2618
6846.4825
3958.1929
5275.8028
5124.8115
3671.5941
5358.5402
7307.4788
7068.8581
5703.0832
3322.12
628.88078
-18759.474
-10513.976
-1739.5455
761.2379
1815.2659
-687.34479
1053.0963
1529.8276
3730.7124
2434.2421
2542.7016
1557.3495
1102.8613
687.67515
599.48227
1181.1306
1511.255
1299.537
1297.3131
886.67007
2141.3493
1277.5646
1369.9104
262.5497
1011.756
342.05519
2029.055
1322.5822
1697.1597
1621.343
458.87452
1583.5237
1449.0488
4627.645
3167.9402
2541.7198
782.27588
1429.3373
342.53355
3507.0136
596.246
3815.593
2359.111
2693.5082
3153.1942
1645.1489
1308.7066
-85.110314
2847.6602
2379.5429
5273.7795
1104.7998
777.71264
-2059.785
-5270.28
-5338.7342
-2778.542
-2575.5844
-4434.8785
-245.25838
3974.7003
6183.6088
8479.7235
9764.3395
5913.554
4659.7647
6405.4046
3317.7772
3705.7517
7543.6116
8031.214
6706.0605
5251.3993
2663.2287
528.92967
-19206.966
-10364.026
-1286.5896
960.74698
1567.3042
-619.21692
847.10022
1660.2932
3689.8613
2707.7044
2320.9082
1692.8042
902.16229
801.33924
624.43769
1211.8147
1466.0904
1189.4971
1398.4492
669.69526
2458.3888
979.42173
1845.3254
246.25593
702.20275
175.52093
1922.5186
1650.5934
2076.8802
1314.2596
297.79454
1169.0813
1946.0509
4374.8858
3757.4073
2756.0247
553.7925
813.9256
560.55299
3292.0608
567.79921
4621.4797
932.56847
4417.7903
3099.6162
2207.1504
65.036093
38.843471
2237.7977
2873.0182
5608.2148
44.720277
2113.6735
-3250.2325
-6168.1465
-5016.1487
76.824207
-3140.1076
-6053.2329
515.89109
4299.8211
4687.9379
8590.676
10639.73
3645.3784
5876.3603
7181.5154
653.76421
4715.59
9453.4216
8239.2112
6315.3758
5044.7637
2235.815
487.77774
-19728.778
-10095.852
-871.9305
1080.2019
1285.9754
-545.60086
673.39271
1824.1645
3627.8183
2994.0127
2110.2943
1718.5325
775.58669
913.50991
617.76614
1392.4002
1349.0057
953.61164
1566.3487
588.0454
2606.9036
733.08281
2221.6673
518.20216
303.18969
-85.259167
1658.9792
2080.289
2715.0907
926.28295
94.660733
701.28184
2382.1514
4124.5253
4108.2237
3291.5952
294.07083
99.957414
1405.0132
2201.5151
1118.2823
4878.2923
-795.51363
6353.2629
3221.9099
3163.1628
-759.57009
101.91053
1139.4908
3900.6746
5046.0171
-1029.129
3468.3858
-4923.6368
-7141.3128
-4666.6215
2361.8279
-3835.7039
-6227.6012
1423.6893
4128.988
3031.3786
8602.6876
10920.043
513.21109
7504.6238
5867.0568
-1733.7557
6111.5867
9362.5949
7796.1927
5820.3913
4561.0998
2011.6454
1104.5731
-20345.4
-9740.0064
-475.71567
1078.1812
1028.9892
-478.06788
522.01736
2020.4723
3576.557
3241.1215
1952.5422
1668.6624
679.6611
1021.1233
606.94541
1611.4855
1330.404
549.31969
1660.464
820.96299
2518.943
543.85304
2477.5976
923.48001
-1.920633
-382.71929
1217.9867
2476.1754
3456.9597
691.5981
-205.7294
376.89122
2662.0546
3656.4275
4321.128
3785.5045
39.79802
-400.11028
2512.9132
342.47135
2315.3335
3922.7953
-2257.6568
7511.0264
3034.0275
4871.9787
-987.34627
125.73808
-280.02656
4938.904
3239.7762
-1388.3813
3207.7953
-6842.0037
-7832.8471
-4281.3209
1003.4731
-2998.6824
-3774.8031
2142.4372
3763.1871
2560.0404
8593.7962
9962.3776
570.94643
8020.3758
3786.3396
-1689.4239
6440.0896
8635.347
7614.5378
5588.2268
4211.2869
1529.9139
1095.1758
-21055.384
-9288.0102
-109.29662
969.53213
816.1559
-419.44872
404.81441
2239.5815
3538.8367
3433.4134
1837.831
1564.1699
661.89913
1044.1625
647.78466
1836.4715
1339.021
135.09151
1577.3712
1362.801
2285.497
333.2006
2678.5172
1272.0996
-170.89446
-677.51405
621.49706
2833.5805
3884.6961
709.49884
-507.61515
57.679545
2899.7211
2797.1031
4096.2509
3886.3196
-156.86812
-358.21942
3234.2934
-1841.3569
3474.9117
1286.9719
-2740.273
6301.3207
2156.2865
7142.0379
-260.32721
254.10487
-456.41134
5309.8674
2425.9138
-967.89257
2302.1811
-7787.3463
-7971.8752
-4147.3169
-738.8792
-4906.4736
-1970.6024
3586.8252
4661.584
3216.02
9238.3046
9791.6299
1117.0197
9195.3916
3559.9963
-1160.3015
6836.9331
8567.0516
7821.6365
5611.6422
4516.556
1317.2152
1077.1074
-21800.699
-8733.7205
195.45
804.73749
647.26441
-387.07595
316.44595
2510.5068
3493.3112
3564.3221
1763.6855
1366.2931
785.72013
972.86444
666.70228
2206.2546
1239.7247
-254.18967
1317.9359
2122.7403
2020.7169
42.86883
2680.9967
1474.5722
-145.3473
-988.44278
-236.65903
3047.9109
3582.5417
712.56606
-433.12721
-451.25222
2869.9992
1582.2666
3262.5359
2321.9473
1271.6286
629.69136
3044.2543
-1869.098
3853.1915
349.80474
-2469.4619
4816.9289
116.46713
8436.0318
641.28954
918.66757
24.24019
5929.2956
3416.1422
-8.2859745
2737.0791
-8034.0306
-7441.8078
-3707.1668
-905.95548
-6585.2014
-829.54994
3832.2843
2087.0891
3630.253
10447.305
7883.257
997.89611
9487.2465
2177.1127
-795.43418
6966.8434
8122.5727
7916.9808
5522.1816
4461.3827
1346.9669
1189.6027
-22522.619
-8081.5702
417.84237
618.4553
538.85713
-400.97665
229.64659
2864.675
3453.9131
3595.7358
1778.9841
1028.0161
1009.4109
931.68419
536.50358
2725.2188
1091.211
-637.15053
679.17335
2980.2742
1799.9341
-282.13273
2149.4817
1158.0978
181.54402
-1210.1137
-1284.2421
2736.767
2333.5425
1021.9457
482.55999
-101.16242
3003.0587
1370.8307
2917.9124
240.06539
1661.9033
2198.8703
3338.8881
-1219.8546
4561.2684
999.95157
-1383.7297
4922.0651
-528.92978
8958.9149
410.69351
-72.26284
-261.41535
4793.6412
1792.5712
199.81917
2337.1127
-8285.9892
-7788.7059
-3996.2139
-605.30339
-6201.9075
-1722.5537
3324.389
3081.8253
3235.4222
9067.1259
8306.7913
1165.4124
9367.4831
2111.7615
-1276.8269
6868.6751
8543.2322
7845.7957
5499.9611
4333.612
1222.4527
1134.0078
-23187.411
-7344.7761
547.30893
434.84867
499.6232
-453.48572
103.03285
3310.1
3462.2913
3474.0908
1933.8104
581.39867
1155.9619
999.16786
298.06747
3081.0009
962.67156
-892.78053
-639.79546
3572.923
1689.9069
-507.88325
881.66153
132.49779
1111.7874
-772.24011
-1083.9515
2771.2378
1237.6099
821.29074
1325.3778
704.74108
3516.4616
2060.1364
3275.2593
-97.1041
1739.2989
2530.8779
2492.0084
-1993.0506
3958.1996
-486.47384
-2233.4375
4929.2351
-167.87475
8881.4969
478.34972
956.8844
76.205013
5192.5956
1597.7039
-792.27724
1568.6505
-8400.1472
-7722.5473
-3247.2535
-984.94377
-6452.0117
-1448.6165
2552.7692
2524.9145
3474.8274
8850.7182
7513.6554
1233.2834
9298.9609
1042.1375
-1710.8043
6376.7503
8236.7331
7514.0222
5389.6067
4209.9558
906.4423
1124.3738
-23749.978
-6581.7572
606.96256
240.10675
554.92525
-556.65766
-71.200799
3804.4605
3577.7415
3178.5169
2139.9268
199.00994
949.57912
1034.6265
129.65556
2719.4149
893.75552
-974.44719
-2430.3481
3322.7402
2543.5269
71.558404
708.15018
-828.03565
1763.5823
-67.821657
-348.50245
3567.7713
1266.9595
718.16643
1379.0468
245.8185
2589.2825
1271.1171
2935.4393
-139.33653
1802.4154
2565.204
2938.4004
-1281.3403
4128.571
-574.68859
-1362.182
4714.3007
-549.30331
9093.6865
246.41606
-84.689662
-358.31097
4895.5563
632.88153
-1761.2266
967.51061
-9150.3938
-9192.1496
-4137.5168
-819.59615
-6053.6411
-1495.2041
2496.8082
3222.6336
3320.5391
8056.414
5834.6227
1213.3574
9021.4934
718.82497
-955.96553
6203.0784
8294.5673
7160.0264
5178.6752
4082.9603
835.12575
1153.4354
-24238.481
-5857.5951
622.73744
-11.69943
770.827
-787.05774
-205.89524
4168.152
3931.4681
2682.6783
2146.6225
83.846703
19.62596
922.37523
36.468165
1526.017
1133.6579
-267.50694
-2462.7077
2885.6683
3245.0354
970.77863
1376.369
-844.45811
1768.5168
-587.67733
-1437.8787
2874.9144
1091.0487
718.6967
1431.8945
639.27607
3099.052
1376.62
2841.3391
-86.706179
1840.5075
2069.0495
2585.8309
-1251.1188
3981.6058
-967.66471
-2077.035
4255.6091
-594.9824
8901.7831
-442.45823
-34.368056
-747.20439
4212.1506
-136.9321
-1773.7609
666.38539
-9798.6578
-10140.17
-3723.915
-1127.0067
-5737.7245
-1834.8256
2186.4994
2453.1765
2722.4902
7028.6739
6342.9742
1868.5718
8258.348
1337.7583
-468.26837
6266.2339
7265.3521
6868.4306
5016.43
3774.1194
688.76642
1208.6235
-24724.098
-5178.5396
560.72676
-313.60388
1139.6748
-1154.3075
-210.6094
4098.9024
4692.4141
1818.2763
1816.3283
163.33714
-1504.6552
806.74844
866.94418
1278.8441
1251.2666
385.84577
-1684.5545
2946.3762
2889.1431
124.24576
800.35022
-1105.2414
1896.5976
-188.42698
-946.366
3200.9872
972.30573
611.4782
1422.7038
499.82686
2652.8043
1429.7265
2596.5485
-447.73681
2089.2343
2091.769
2408.1318
-934.00167
3976.449
-1134.134
-1059.1187
3608.227
-673.88931
8505.0913
-2586.9671
-1145.3024
-1574.9293
2580.9114
-484.29436
-2055.3766
-236.10488
-9504.5655
-10641.459
-4106.1051
-2348.6778
-5653.2659
-1658.8919
1735.9028
2270.3323
2538.2628
6122.1194
5956.1959
2358.4184
7631.7424
2574.3979
825.59392
6690.5857
6648.1251
6537.3768
4918.7109
3406.7381
787.84695
1292.7486
-25215.608
-4491.8688
352.49056
-577.72902
1463.5176
-1410.9098
-240.90501
3490.6527
5638.7746
733.52699
1119.8614
925.78016
-1483.6842
673.84112
1806.8855
1627.4101
1146.8463
-64.738829
-2573.8865
2677.757
3137.3714
325.29538
996.85658
-1029.8939
1755.874
-576.91581
-1264.0229
2793.8198
820.20399
518.76356
1296.5919
639.18345
2673.0596
1506.2648
2370.6629
-734.09764
2141.9199
1782.0025
2259.2673
-941.05398
3780.5829
-1132.9037
-1484.5693
2962.119
-521.43602
7972.5817
-4486.0986
-1407.0009
-1550.1746
1517.5355
-1980.9466
-1839.5361
66.8923
-8738.8332
-10468.518
-4599.101
-3327.6146
-5240.5215
-1791.4783
1460.343
2244.1986
2344.2763
5669.8357
5115.4007
2316.6579
7188.1682
3348.1062
1735.3054
6327.7914
6225.7114
6200.2783
4751.6799
3103.6307
600.31957
1297.9464
-25648.341
-3732.0703
-21.586101
-712.77405
1439.6245
-1173.4676
-687.29847
2624.5457
5879.4806
1469.1542
725.6715
1829.9189
-832.65898
552.281
1257.9978
1149.8953
1044.0119
211.06823
-2043.1461
2654.0264
3007.4421
221.85207
875.74592
-1096.5926
1795.5655
-647.12506
-1266.5733
2226.158
416.37014
353.67288
941.27983
607.10213
2472.2151
1490.6163
2085.2417
-1330.2249
2128.6461
1848.2675
2120.0385
-982.72253
3656.1851
-966.27259
-1010.4709
3065.0149
-35.587551
7271.76
-5232.8753
-1670.7423
-1343.5078
1583.4529
-4011.3443
-1770.2935
187.43877
-8431.5827
-10456.109
-4972.1184
-4251.1338
-4740.8115
-2367.2859
1383.7443
2497.457
2506.906
5685.4167
4025.5932
2313.0903
6593.0352
4015.1158
2486.9656
5851.9738
5907.7518
5924.513
4553.3006
2781.1646
365.86278
1296.169
-25952.84
-2873.9349
-442.9523
-703.35363
931.30963
-430.19827
-1505.071
2255.9227
5915.0341
2616.8547
761.3605
1418.3757
-1269.4355
468.75882
1488.7852
1273.352
1062.2155
-9.6328742
-2541.5832
2350.5987
2909.2974
221.75959
945.47446
-1078.2168
1723.7843
-907.97324
-1821.8617
1964.2593
345.70762
159.01917
745.43542
642.95886
2373.9039
1568.1434
1666.3621
-2167.3498
2080.9919
1608.2874
1999.6311
-923.11115
3282.788
-798.4023
-740.14078
3510.8702
792.62223
6355.955
-7132.99
-1780.1599
-1563.8102
2193.6625
-4259.2106
-3247.7967
-104.25717
-7972.9751
-10147.398
-5342.1367
-4313.8614
-3814.3043
-2389.4676
653.13673
2450.5571
1893.171
4436.4693
2493.6546
2435.3966
5983.1161
4178.8625
3024.7016
5243.8742
5476.4368
5601.5881
4171.1392
2393.2988
154.70555
1284.4741
-26190.055
-1945.8126
-617.31063
-606.37625
186.50725
78.160479
-918.98306
2366.0717
6019.9738
2345.0092
563.70956
1423.1912
-1087.4106
430.53197
1347.412
1197.6541
1106.3548
14.532649
-2537.4356
1956.5541
2772.6561
127.01068
955.30382
-1155.0881
1789.8449
-604.94518
-1839.4867
2132.3078
243.09259
140.4523
490.65153
570.34427
2071.1065
1564.3579
1128.3312
-3275.1139
2027.3702
1302.3208
1902.9335
-760.49451
3114.3009
-656.68694
-448.85032
3594.7925
1126.7523
5285.203
-8038.2623
-1428.619
-1984.6476
2611.6348
-3547.4409
-3947.7873
-119.03136
-7883.958
-9094.7529
-5224.9913
-4392.0473
-3509.2365
-2306.1151
351.94789
2297.7392
1784.7181
4098.6732
2847.4485
2890.9041
5658.4837
4356.7539
3215.0984
4482.3937
5066.1165
5244.5056
3659.0177
2211.2205
94.280096
1225.2382
-26749.506
-1026.2932
-182.19818
-523.28347
-164.20382
188.10678
110.03312
2163.4583
5583.5307
2367.3494
615.03632
1367.0621
-1134.7406
396.31888
1259.993
1174.4834
1107.3968
-187.3088
-2800.9935
1580.4212
2645.1156
166.19724
1015.8749
-1286.7969
1694.5991
-452.90572
-1888.9181
2280.2513
69.521322
108.05121
206.94524
419.64436
1780.8935
1593.5688
756.84394
-4344.6029
1889.7794
1133.3804
1872.16
-632.52325
2869.9589
-707.21489
-308.56089
3165.0205
988.34536
4335.9614
-7010.1119
-705.00812
-1929.659
2446.1508
-2817.8669
-3882.0815
-871.79645
-7738.603
-7744.0383
-4531.0608
-4094.8315
-3083.48
-1876.0607
168.96746
2632.5997
2147.6967
3850.8855
3686.1576
3613.2578
5561.6925
4104.4245
3492.7564
4295.887
4736.6049
4876.5251
3305.2112
2188.71
169.17765
1125.5793
-28328.094
-209.65033
849.39811
-507.24679
54.311336
175.04847
-52.491015
2218.3264
5615.8794
2286.2039
612.29279
1356.5574
-1075.7877
355.78741
1120.9977
1119.9637
1066.815
-320.32789
-2948.5725
1227.9933
2503.0216
136.69481
1051.5405
-1332.594
1685.8193
-327.17845
-1980.1538
2434.3631
-44.013761
146.55464
-118.15749
172.38061
1568.1583
1549.7245
736.01738
-4563.2743
1775.6044
1037.6209
1913.2997
-366.8326
2632.1718
-734.59671
-371.80138
3071.1827
942.67172
3322.2867
-5694.4547
367.29056
-1919.246
2341.214
-2425.8099
-3842.8877
-1100.1515
-6392.345
-7549.0528
-6110.8123
-4347.4946
-3169.4887
-1257.6469
185.18417
2498.5625
2330.7688
3752.3972
4352.8525
4079.9557
5461.0085
4218.2274
3341.9616
3704.5944
4339.2158
4579.4784
3051.8637
2242.618
294.77298
985.56269
-30725.038
256.32833
1432.3886
-314.63748
119.24054
-5.5063491
-59.561817
2163.6829
5544.904
2138.0579
605.35612
1335.4828
-1076.5657
274.9585
982.69269
1061.9201
960.10991
-496.86528
-3072.6818
940.99674
2359.3088
131.92481
1145.1902
-1300.2435
1634.879
-158.02618
-1943.5568
2554.5795
-197.79782
129.0311
-515.96319
-64.953248
1544.4324
1458.4791
1013.6296
-3919.9823
1609.7509
1011.8603
1904.9383
-303.832
2429.4463
-786.27547
-333.52118
2604.1044
962.87662
2270.8169
-5127.9905
650.64514
-2115.7015
2439.3619
-2597.6426
-4281.6396
-1562.0557
-5504.8379
-7509.5373
-7338.2552
-5464.2449
-3985.229
-1170.4089
-210.28093
2058.8722
2261.4529
4123.4299
4630.1798
4155.2511
5312.7815
4175.3952
2851.555
3265.0292
4004.4613
4363.8264
2801.4748
2200.6541
240.26212
857.92782
-30499.635
-589.40117
855.48703
15.212887
101.17425
-77.460778
-73.769597
2119.5136
5420.6566
1984.2089
551.13325
1301.3136
-1059.3429
166.60079
837.36116
979.24273
805.65184
-671.74126
-3097.7963
724.45693
2218.2885
136.06249
1206.4939
-1248.1151
1656.9563
67.813729
-1784.5296
2643.479
-347.95203
106.02883
-875.51333
-292.37476
1626.4937
1324.1844
1376.9758
-2927.3031
1473.456
1094.9185
1965.4133
-156.51563
2309.4445
-811.32455
-374.44223
2159.3084
994.09109
1627.8516
-4604.566
1252.8857
-2191.3282
2390.7996
-2835.1319
-4485.6653
-1775.0395
-5364.7788
-7180.5977
-7903.1229
-6137.1175
-3822.2695
-909.14285
-497.06741
1363.8672
2101.3158
4535.4399
4763.7844
4325.7055
5421.672
3951.4288
2770.0877
3194.9851
3662.8784
4154.9843
2495.003
1950.1649
1.7948955
752.72265
-21332.627
-3046.1774
339.93182
169.19502
117.42904
-108.88044
-68.413219
2098.7663
5252.5853
1833.5219
516.21324
1256.6307
-1071.3211
53.414532
716.90763
883.12143
624.45935
-848.32411
-3056.7221
551.38231
2057.987
150.32215
1255.2111
-1334.7906
1519.027
128.56007
-1709.2756
2686.706
-478.40098
68.506884
-1154.889
-480.85781
1590.7271
1113.9007
1592.4463
-2035.1526
1403.0245
1096.0806
1974.6728
-28.966138
2197.6137
-850.24117
-222.94462
1965.3696
1029.3649
1353.5974
-3664.0498
1487.7596
-2342.8482
2103.2419
-2771.4899
-3169.9965
-1531.4292
-5614.729
-6190.5647
-7687.4727
-6355.3622
-3779.5598
-1019.138
-971.43827
650.74221
1879.7054
4963.208
4723.9184
4369.5237
5419.8682
3674.2408
2587.5259
2902.5842
3046.7005
3945.3462
2172.4268
1549.0539
-257.34228
662.51491
-3424.275
-4034.4874
258.48144
69.171508
125.86967
-113.49269
-65.027072
2077.3176
5087.0714
1683.6238
454.40507
1202.7603
-1084.7148
-86.101407
616.28785
775.93812
440.47651
-1011.5706
-2977.3336
419.4785
1859.7148
160.37518
1329.9822
-1531.6769
1290.7621
78.088768
-1738.3336
2668.5808
-575.49881
65.25802
-1222.2217
-570.87386
1525.12
788.02715
1644.8881
-1447.455
1327.8682
1113.5608
1943.8895
72.133681
2031.0865
-904.59207
-307.34927
1562.8368
1169.8177
845.76964
-3306.0825
1948.4653
-2465.3334
1609.5448
-2668.3348
-2102.0934
-1334.1388
-5801.7353
-6419.8561
-6765.9993
-5313.0335
-3390.7488
-1073.4438
-1299.0459
-312.19059
1414.0262
5462.3875
4697.2775
4351.3172
5521.6379
3317.8665
2224.8374
2903.7753
2493.3203
3792.0736
1867.9376
1007.0446
-360.44935
565.57447
1033.8867
-2489.2773
202.72078
42.946107
145.37143
-105.14797
-65.374866
2050.4785
4921.8427
1537.1201
392.38694
1143.1329
-1111.9396
-219.37698
538.61612
669.52519
280.54357
-1154.1917
-2877.4005
316.81594
1642.5077
156.97744
1392.3251
-1761.7741
983.81575
-45.659258
-1869.6997
2602.9036
-575.82349
140.93734
-908.88358
-552.99569
1385.0316
540.57419
1546.6159
-1100.8479
1264.6376
1223.7539
1928.1135
88.025005
1935.3178
-928.07839
-262.24679
1538.7327
1335.2137
288.6954
-3502.8647
2363.8315
-2290.764
1232.0801
-2445.0024
-1480.4841
-1344.6169
-6114.5492
-6520.7363
-6362.8847
-5956.3353
-2762.493
-568.16074
-1394.661
-1361.4578
1150.8342
6083.4052
4338.6121
4225.431
5369.9909
2991.5371
1779.9416
2736.4713
1863.2811
3511.2225
1490.5327
461.87717
-312.81235
417.37591
-8096.0854
-1547.7367
252.0169
43.770064
163.38565
-98.550442
-68.763519
2021.6449
4758.8702
1397.2749
332.15768
1081.9109
-1146.3407
-340.96826
478.4297
561.03658
153.17246
-1274.3254
-2777.1436
223.38605
1390.7473
146.69992
1433.8788
-2002.1184
636.26085
-225.5324
-2010.563
2493.5313
-528.3756
328.17011
-134.78433
-401.3057
1255.0318
402.72872
1250.9591
-1007.2146
1191.6317
1406.1101
1924.0238
95.185018
1859.0045
-888.17291
-18.24127
1449.4665
1456.7338
-471.21982
-3831.8735
2756.3265
-2131.2401
879.9622
-2106.0293
-1009.1492
-1480.7903
-6250.4519
-6532.8137
-6474.5758
-6127.5424
-2519.7819
-592.05014
-1205.7102
-1780.5869
1273.129
6735.6958
3110.766
3843.1239
5411.9352
2757.7804
1342.3223
3130.1923
1268.4715
3079.9872
1077.0406
104.04065
-255.14123
276.29285
-8130.1009
-1762.7892
277.54506
53.452834
180.94206
-96.517564
-75.443488
1989.0517
4591.8502
1262.465
289.83124
1028.2731
-1173.8508
-443.12903
430.63653
447.32788
35.482756
-1368.4964
-2678.0114
103.32365
1190.3846
124.42179
1454.2914
-2185.8182
283.11172
-410.12565
-2158.758
2310.9231
-585.61133
428.09083
664.24213
-179.85687
1118.5262
328.3627
814.9863
-1156.0878
1078.6314
1583.5851
1888.7777
81.183846
1858.462
-760.37377
227.92757
1153.4399
1662.9435
-1307.2995
-4299.7335
3304.3997
-2035.7163
459.52674
-1624.2062
-856.71739
-1677.1717
-6191.2381
-6626.9758
-6718.5638
-6132.6523
-2449.6489
-619.62575
-1641.7271
-2169.8913
1204.6707
7201.179
2944.4437
3451.3561
5379.5384
2422.9393
1109.7475
3098.6674
1139.4524
2683.2924
956.80915
-201.39856
-448.3962
175.65023
-7883.7696
-1619.3094
300.60153
64.754505
195.57118
-99.94635
-85.285435
1951.8395
4423.4485
1131.8704
261.93892
992.15291
-1204.7318
-513.72878
389.68782
337.88371
-50.871293
-1437.8405
-2598.5147
-15.22026
1022.0654
99.081732
1492.656
-2232.8104
-83.576429
-546.33878
-2189.529
2162.0809
-706.62394
283.36777
1017.0988
132.12546
999.72099
365.48099
285.12569
-1505.0397
863.88756
1690.9671
1829.3757
89.057777
1700.7629
-693.27513
384.82097
1053.805
1812.3981
-1810.7025
-4594.6481
3530.0869
-2001.5849
51.950007
-1333.1034
-720.70427
-1725.1196
-6099.7211
-6404.3922
-7070.6157
-6293.1082
-2447.0089
-809.39079
-1906.3003
-2455.7495
1020.9105
7692.9863
2077.7806
2857.2595
5200.8806
2735.194
1148.4508
2889.1699
1509.536
2449.7347
1080.5863
-528.63848
-905.5644
141.06285
-7465.152
-1549.5258
322.05112
76.870004
206.955
-109.4172
-98.647966
1910.5028
4252.5123
1005.2852
250.23051
973.22334
-1205.4362
-538.73318
355.20788
225.12797
-122.5046
-1486.374
-2500.7753
-129.11418
856.20526
75.813074
1562.7314
-2206.1712
-412.19863
-599.56713
-2157.1411
2049.1696
-698.79261
154.15967
1103.5373
418.44132
863.44792
479.61423
-271.85687
-1921.871
595.89691
1728.5742
1750.7778
65.141352
1729.5719
-582.95115
595.70086
1099.0622
1918.5676
-2203.9452
-4639.2
3596.7943
-1904.2857
-270.82375
-1409.6036
-633.66862
-1765.8486
-6047.2774
-6681.3127
-7103.2877
-6045.3049
-2013.6114
-1002.9681
-2477.5337
-2651.8367
422.89622
7784.1982
1266.1949
1422.1181
4888.5672
2810.7594
1466.4002
2641.3695
1677.083
2265.5804
920.46347
-981.90514
-1326.9849
169.11097
-7038.584
-1418.781
344.71892
89.361672
214.71333
-125.40918
-116.28192
1866.0801
4080.0517
886.52476
256.615
965.53724
-1188.5564
-525.80308
326.31745
111.49169
-184.96361
-1508.6091
-2336.0995
-213.87881
703.46514
42.220871
1573.2139
-2054.6934
-514.08444
-592.20542
-2014.7199
1951.6455
-711.40661
121.59189
1104.8345
519.31792
758.084
655.98972
-805.32158
-2422.6431
319.21709
1684.3001
1645.3552
58.520358
1802.7501
-403.14364
849.9777
1060.966
2036.2954
-2438.8578
-4467.1415
3607.7525
-1761.452
9.0403105
-1128.1887
-505.7276
-1671.0324
-6020.4202
-6719.0713
-7277.0511
-5705.6376
-1457.795
-1356.39
-2816.993
-2610.0548
-856.07616
7321.5153
413.9314
-240.88754
4476.7717
2846.967
1584.0968
2337.9148
1686.1329
2061.3365
577.30197
-1581.2479
-1828.3568
243.70005
-6563.6965
-1357.0404
364.05371
102.01293
219.39033
-148.5506
-138.70446
1820.935
3902.8302
780.67275
294.42196
954.28939
-1155.3909
-468.93928
298.46442
5.6812541
-229.84668
-1509.6021
-2232.8334
-295.862
562.13536
27.60879
1487.562
-1846.7225
-400.90928
-471.66059
-1754.1462
1849.5816
-642.65079
204.4252
1049.3391
534.92773
631.12901
850.58469
-1269.9989
-2972.9827
51.612573
1576.2546
1527.0806
9.2494525
1839.7882
-272.18747
1037.173
1083.906
1916.0867
-2351.7393
-3931.7376
3537.3221
-1551.4947
432.17462
-894.16042
-513.40203
-1584.3156
-5838.4938
-7192.4498
-7673.7986
-5421.7486
-843.8917
-1935.3107
-2870.0238
-2303.7179
-3098.8054
5930.4256
-651.67176
-1767.9957
3804.9908
2844.672
1457.1466
2006.8076
1640.0775
1837.8825
373.67579
-1938.5123
-2394.7905
244.67826
-6112.5273
-1215.4251
388.24053
114.6854
217.21179
-179.58802
-166.76478
1775.4457
3719.9224
690.76773
368.62145
932.86341
-1133.7409
-409.39793
272.55812
-95.628815
-264.95589
-1495.3252
-2076.2464
-348.22942
467.35288
-3.8741649
1302.6163
-1612.2815
-153.69191
-304.85103
-1546.4356
1752.7605
-479.82366
327.22275
945.97606
537.58851
526.24072
950.9551
-1487.5908
-3145.6792
-148.14032
1469.3465
1467.2036
-37.522784
1853.5704
-184.72225
1208.8709
972.78939
1547.9415
-2108.5625
-3176.5625
3385.9453
-1213.6387
717.99725
-840.78873
-492.48859
-1589.6069
-5773.0023
-7486.8632
-8307.9224
-5317.4225
-342.34721
-2632.6874
-3148.1144
-2123.2393
-5806.3983
4365.3952
-925.33998
-1580.1405
3474.7132
2887.4667
1366.0343
1613.0231
1595.7428
1601.0069
263.30742
-2163.3024
-2743.2868
310.28472
-5626.5104
-1181.1592
415.16819
127.35672
214.58916
-219.36886
-201.03419
1732.2371
3530.7911
618.65124
481.06093
900.21118
-1119.6378
-342.20314
246.73275
-177.96536
-291.4878
-1486.8436
-1932.6781
-430.9458
395.16971
-38.292304
1118.7706
-1355.508
94.740334
-151.89224
-1370.5534
1627.6033
-415.62202
427.49084
909.30422
534.00395
398.5092
981.31853
-1539.6404
-2961.9512
-187.52171
1145.9806
1439.954
-55.329559
1841.4581
-146.46897
1224.661
973.12705
1392.3685
-1801.5699
-2576.2751
3355.553
-1035.0157
599.25114
-608.82845
-441.24605
-1598.9177
-5533.0224
-7503.7173
-8735.1833
-4889.3671
118.77019
-3383.655
-3634.8853
-1956.5038
-6029.0537
3889.0347
-690.4829
42.205493
3706.2515
2985.5649
1432.4127
1384.5652
1735.705
1424.3877
160.82219
-2238.6272
-3143.561
318.35429
-5186.1799
-1014.9622
440.94713
139.82609
209.2645