/*--------------------------------*- C++ -*----------------------------------*\
| =========                 |                                                 |
| \\      /  F ield         | OpenFOAM: The Open Source CFD Toolbox           |
|  \\    /   O peration     | Version:  2.3.0                                 |
|   \\  /    A nd           | Web:      www.OpenFOAM.org                      |
|    \\/     M anipulation  |                                                 |
\*---------------------------------------------------------------------------*/
FoamFile
{
    version     2.0;
    format      ascii;
    class       surfaceScalarField;
    location    "3.3e-05";
    object      phi;
}
// * * * * * * * * * * * * * * * * * * * * * * * * * * * * * * * * * * * * * //

dimensions      [0 3 -1 0 0 0 0];

internalField   nonuniform List<scalar> 
14825
(
1.0342493e-09
-2.0487953e-11
1.0547548e-09
-2.0505512e-11
1.0750347e-09
-2.0279843e-11
1.0955283e-09
-2.0493631e-11
1.1157481e-09
-2.0219748e-11
1.1362113e-09
-2.0463216e-11
1.156063e-09
-1.9851693e-11
1.176405e-09
-2.0342067e-11
1.1958787e-09
-1.9473654e-11
1.2161189e-09
-2.0240257e-11
1.2353449e-09
-1.9225956e-11
1.2554015e-09
-2.0056585e-11
1.2744225e-09
-1.9021031e-11
1.2940646e-09
-1.9642087e-11
1.3129762e-09
-1.8911639e-11
1.3320348e-09
-1.9058555e-11
1.3509849e-09
-1.8950149e-11
1.3693659e-09
-1.8380968e-11
1.3883453e-09
-1.8979396e-11
1.4060521e-09
-1.7706831e-11
1.4248991e-09
-1.8846977e-11
1.4421031e-09
-1.7204015e-11
1.4605835e-09
-1.8480414e-11
1.4775509e-09
-1.6967303e-11
1.4953726e-09
-1.7821794e-11
1.5122004e-09
-1.6827738e-11
1.5292727e-09
-1.7072337e-11
1.5460349e-09
-1.6762179e-11
1.5622526e-09
-1.6217705e-11
1.5788876e-09
-1.6634984e-11
1.594438e-09
-1.5550428e-11
1.6107379e-09
-1.629983e-11
1.6257899e-09
-1.5052044e-11
1.6414682e-09
-1.5678336e-11
1.6562587e-09
-1.479046e-11
1.6710835e-09
-1.48248e-11
1.6856848e-09
-1.4601273e-11
1.6997129e-09
-1.40281e-11
1.7140425e-09
-1.4329657e-11
1.7272824e-09
-1.3239853e-11
1.7411146e-09
-1.383225e-11
1.7537805e-09
-1.2665852e-11
1.7669549e-09
-1.3174419e-11
1.7792728e-09
-1.2317922e-11
1.7916657e-09
-1.2392901e-11
1.8035918e-09
-1.1926065e-11
1.8151141e-09
-1.1522341e-11
1.8267075e-09
-1.1593361e-11
1.8373878e-09
-1.0680306e-11
1.848432e-09
-1.1044234e-11
1.8586699e-09
-1.023784e-11
1.8688535e-09
-1.0183654e-11
1.8787476e-09
-9.8941155e-12
1.88815e-09
-9.4023888e-12
1.897299e-09
-9.1489502e-12
1.9060409e-09
-8.7418748e-12
1.9144974e-09
-8.4565305e-12
1.9224816e-09
-7.9842134e-12
1.9304512e-09
-7.9695839e-12
1.9381452e-09
-7.6939876e-12
1.9450234e-09
-6.8781863e-12
1.95161e-09
-6.5865989e-12
1.9583611e-09
-6.7511308e-12
1.9644186e-09
-6.0574711e-12
1.970074e-09
-5.6554689e-12
1.975401e-09
-5.3269846e-12
1.9805749e-09
-5.1739145e-12
1.9852413e-09
-4.6663753e-12
1.9896688e-09
-4.4274793e-12
1.9935626e-09
-3.8938499e-12
1.9971006e-09
-3.5379902e-12
2.0004408e-09
-3.3401547e-12
2.0036723e-09
-3.2315661e-12
2.0062425e-09
-2.5701156e-12
-2.1808192e-12
2.862073e-09
-8.0594995e-11
2.9223091e-09
-8.0741634e-11
2.9820871e-09
-8.0057822e-11
3.042535e-09
-8.0941599e-11
3.102282e-09
-7.9966694e-11
3.1627679e-09
-8.0949164e-11
3.2217094e-09
-7.8793198e-11
3.2820482e-09
-8.06808e-11
3.3402207e-09
-7.7646145e-11
3.400393e-09
-8.0412609e-11
3.4581352e-09
-7.6968099e-11
3.5178853e-09
-7.9806773e-11
3.5752921e-09
-7.6427819e-11
3.6340572e-09
-7.8407197e-11
3.6913575e-09
-7.6211913e-11
3.7487289e-09
-7.6429929e-11
3.8062213e-09
-7.644257e-11
3.8619962e-09
-7.4155856e-11
3.9196127e-09
-7.6595899e-11
3.9738446e-09
-7.1938695e-11
4.0310986e-09
-7.6100988e-11
4.084298e-09
-7.0403457e-11
4.1405356e-09
-7.4717951e-11
4.1933339e-09
-6.9765683e-11
4.2479236e-09
-7.2411409e-11
4.3004536e-09
-6.9357823e-11
4.3532064e-09
-6.9825092e-11
4.4055545e-09
-6.9110281e-11
4.4562451e-09
-6.6908281e-11
4.5082801e-09
-6.8669974e-11
4.5574273e-09
-6.4697711e-11
4.6085482e-09
-6.7420666e-11
4.6565676e-09
-6.3071483e-11
4.7060053e-09
-6.5116042e-11
4.7534899e-09
-6.2275075e-11
4.8007786e-09
-6.211348e-11
4.8477892e-09
-6.1611866e-11
4.893141e-09
-5.9379897e-11
4.9393346e-09
-6.0523288e-11
4.982747e-09
-5.6652185e-11
5.027681e-09
-5.8766289e-11
5.0696452e-09
-5.4630022e-11
5.1129006e-09
-5.6429826e-11
5.1540208e-09
-5.3438116e-11
5.1951917e-09
-5.3563774e-11
5.235292e-09
-5.2026379e-11
5.2744132e-09
-5.0643601e-11
5.3133971e-09
-5.0577211e-11
5.3505027e-09
-4.7785956e-11
5.3879849e-09
-4.8526431e-11
5.4239155e-09
-4.6168445e-11
5.4593734e-09
-4.5641484e-11
5.4941264e-09
-4.4647172e-11
5.5277128e-09
-4.2988728e-11
5.5603921e-09
-4.1828317e-11
5.5922895e-09
-4.0639188e-11
5.6231531e-09
-3.9320221e-11
5.6530468e-09
-3.7877866e-11
5.682822e-09
-3.7744745e-11
5.7115338e-09
-3.6405857e-11
5.738482e-09
-3.3826336e-11
5.7646844e-09
-3.2789036e-11
5.7908763e-09
-3.2943045e-11
5.8153701e-09
-3.0551271e-11
5.8391963e-09
-2.9481681e-11
5.861829e-09
-2.7959605e-11
5.8839059e-09
-2.7250864e-11
5.9048585e-09
-2.5618914e-11
5.9250555e-09
-2.4624565e-11
5.9437366e-09
-2.2574937e-11
5.961624e-09
-2.1425329e-11
5.9790211e-09
-2.0737292e-11
5.9958206e-09
-2.0031066e-11
6.0110322e-09
-1.7781714e-11
-1.6305087e-11
4.3657672e-09
-1.7825267e-10
4.4638218e-09
-1.7879629e-10
4.5614326e-09
-1.7766857e-10
4.6601809e-09
-1.7968989e-10
4.758082e-09
-1.7786779e-10
4.8569844e-09
-1.7985157e-10
4.954218e-09
-1.760268e-10
5.0531016e-09
-1.7956446e-10
5.1497369e-09
-1.7428137e-10
5.248568e-09
-1.7924374e-10
5.3449775e-09
-1.7337765e-10
5.4434167e-09
-1.7824596e-10
5.5396319e-09
-1.7264302e-10
5.6369987e-09
-1.7577394e-10
5.7332576e-09
-1.7247079e-10
5.82911e-09
-1.722824e-10
5.9256105e-09
-1.7294305e-10
6.0197528e-09
-1.6829818e-10
6.1163268e-09
-1.7316981e-10
6.2088228e-09
-1.6443473e-10
6.3048441e-09
-1.7212231e-10
6.3963509e-09
-1.6191026e-10
6.4910178e-09
-1.6938481e-10
6.5821218e-09
-1.6086974e-10
6.6748746e-09
-1.6516415e-10
6.7655767e-09
-1.6005991e-10
6.8561635e-09
-1.6041194e-10
6.9464267e-09
-1.5937349e-10
7.0344896e-09
-1.5497115e-10
7.124342e-09
-1.5852234e-10
7.2105892e-09
-1.5094496e-10
7.2992121e-09
-1.5604359e-10
7.3839476e-09
-1.4780697e-10
7.4704485e-09
-1.5161695e-10
7.5544052e-09
-1.4623171e-10
7.6383002e-09
-1.4600852e-10
7.721499e-09
-1.4481064e-10
7.8029591e-09
-1.4083998e-10
7.8849054e-09
-1.4246958e-10
7.9636311e-09
-1.3537789e-10
8.0441369e-09
-1.392721e-10
8.1206447e-09
-1.3113789e-10
8.1991397e-09
-1.3492478e-10
8.274299e-09
-1.2859747e-10
8.3501172e-09
-1.293819e-10
8.4238186e-09
-1.2572779e-10
8.4970194e-09
-1.2384441e-10
8.5688551e-09
-1.2241288e-10
8.6392899e-09
-1.1822081e-10
8.7091922e-09
-1.1842868e-10
8.7777279e-09
-1.1470422e-10
8.8453194e-09
-1.1323295e-10
8.9116369e-09
-1.109647e-10
8.9768044e-09
-1.0815621e-10
9.0403131e-09
-1.0533702e-10
9.1029123e-09
-1.032384e-10
9.1638505e-09
-1.0025838e-10
9.2239232e-09
-9.7950623e-11
9.2835181e-09
-9.733961e-11
9.3411431e-09
-9.4030791e-11
9.3968445e-09
-8.9527825e-11
9.4516686e-09
-8.7613131e-11
9.5056198e-09
-8.6894211e-11
9.5575064e-09
-8.243783e-11
9.6087183e-09
-8.0693656e-11
9.6580018e-09
-7.7243098e-11
9.7061177e-09
-7.5366692e-11
9.7529573e-09
-7.2458517e-11
9.7985111e-09
-7.0178452e-11
9.8417589e-09
-6.5822742e-11
9.8843989e-09
-6.40653e-11
9.9261183e-09
-6.2456688e-11
9.9664538e-09
-6.0366499e-11
1.0004756e-08
-5.6084073e-11
-5.3065878e-11
5.5895872e-09
-3.1136919e-10
5.7236e-09
-3.1280909e-10
5.857281e-09
-3.1134953e-10
5.9925961e-09
-3.1500496e-10
6.1271966e-09
-3.1246834e-10
6.2628126e-09
-3.1546751e-10
6.3974582e-09
-3.1067242e-10
6.5332855e-09
-3.1539181e-10
6.6680148e-09
-3.0901063e-10
6.8039901e-09
-3.1521899e-10
6.9390833e-09
-3.084709e-10
7.0749018e-09
-3.1406443e-10
7.2101806e-09
-3.0792184e-10
7.3453248e-09
-3.1091817e-10
7.4808536e-09
-3.0799956e-10
7.6150726e-09
-3.0650136e-10
7.7507214e-09
-3.0859188e-10
7.8839174e-09
-3.0149424e-10
8.0193544e-09
-3.0860676e-10
8.1515143e-09
-2.9659468e-10
8.2862311e-09
-3.0683906e-10
8.4179427e-09
-2.9362191e-10
8.5512935e-09
-3.0273552e-10
8.6826809e-09
-2.9225717e-10
8.8145667e-09
-2.9704999e-10
8.9453648e-09
-2.9085799e-10
9.0755146e-09
-2.9056172e-10
9.2053985e-09
-2.8925737e-10
9.3332829e-09
-2.8285561e-10
9.4627084e-09
-2.8794777e-10
9.5890035e-09
-2.7724006e-10
9.717202e-09
-2.842421e-10
9.8416824e-09
-2.7228746e-10
9.968118e-09
-2.7805253e-10
1.0091485e-08
-2.6959914e-10
1.0215691e-08
-2.70214e-10
1.0338012e-08
-2.6713216e-10
1.0459865e-08
-2.6269269e-10
1.0580566e-08
-2.6317013e-10
1.0699295e-08
-2.5410706e-10
1.0818915e-08
-2.588918e-10
1.093468e-08
-2.4690328e-10
1.1052875e-08
-2.5311943e-10
1.1166312e-08
-2.4203469e-10
1.1281977e-08
-2.4504657e-10
1.1393658e-08
-2.3740898e-10
1.1506694e-08
-2.3688033e-10
1.1616162e-08
-2.318813e-10
1.172604e-08
-2.2809881e-10
1.1833609e-08
-2.2599782e-10
1.1940769e-08
-2.2186361e-10
1.2046556e-08
-2.1902058e-10
1.2150418e-08
-2.1482627e-10
1.2253607e-08
-2.1134531e-10
1.2354614e-08
-2.0634419e-10
1.2454394e-08
-2.0301842e-10
1.2552355e-08
-1.9821908e-10
1.2650062e-08
-1.9565813e-10
1.2746441e-08
-1.9371805e-10
1.2840165e-08
-1.877546e-10
1.2932545e-08
-1.8190806e-10
1.3023813e-08
-1.7888158e-10
1.3113042e-08
-1.761227e-10
1.3200571e-08
-1.6996748e-10
1.3287197e-08
-1.6731976e-10
1.337161e-08
-1.6165548e-10
1.3454171e-08
-1.5792742e-10
1.3535723e-08
-1.5401072e-10
1.3615012e-08
-1.4946731e-10
1.3691746e-08
-1.425572e-10
1.3768622e-08
-1.4094079e-10
1.384378e-08
-1.3761514e-10
1.3916928e-08
-1.3351439e-10
1.3988112e-08
-1.2726779e-10
-1.2232292e-10
6.572354e-09
-4.7795187e-10
6.7403538e-09
-4.8080887e-10
6.9084122e-09
-4.7940791e-10
7.078472e-09
-4.8506477e-10
7.248284e-09
-4.8228037e-10
7.4190247e-09
-4.8620819e-10
7.5899062e-09
-4.8155397e-10
7.7613019e-09
-4.8678745e-10
7.933256e-09
-4.8096481e-10
8.1051233e-09
-4.8708626e-10
8.2783369e-09
-4.8168451e-10
8.4504533e-09
-4.861808e-10
8.624468e-09
-4.8193658e-10
8.796647e-09
-4.8309709e-10
8.9712978e-09
-4.8265046e-10
9.1435701e-09
-4.7877358e-10
9.3183066e-09
-4.833284e-10
9.4907544e-09
-4.7394205e-10
9.6649807e-09
-4.8283309e-10
9.8374651e-09
-4.6907904e-10
1.0010941e-08
-4.8031463e-10
1.0183907e-08
-4.6658792e-10
1.0356219e-08
-4.7504804e-10
1.052911e-08
-4.6514756e-10
1.0700904e-08
-4.6884481e-10
1.0873074e-08
-4.6302777e-10
1.1044151e-08
-4.6163876e-10
1.1214967e-08
-4.6007316e-10
1.1384607e-08
-4.5249599e-10
1.1555059e-08
-4.5839943e-10
1.1723701e-08
-4.4588167e-10
1.1893177e-08
-4.5371841e-10
1.2059869e-08
-4.3897911e-10
1.2228606e-08
-4.4679006e-10
1.2393913e-08
-4.3490627e-10
1.2561319e-08
-4.3761956e-10
1.2725327e-08
-4.3114033e-10
1.2891067e-08
-4.2843243e-10
1.3052969e-08
-4.2507254e-10
1.3216073e-08
-4.172106e-10
1.3377261e-08
-4.2007963e-10
1.3536976e-08
-4.0661873e-10
1.3698054e-08
-4.1419709e-10
1.3854033e-08
-3.9801441e-10
1.4013794e-08
-4.0480729e-10
1.416778e-08
-3.9139477e-10
1.4325305e-08
-3.9440591e-10
1.447653e-08
-3.8310543e-10
1.4631139e-08
-3.8270806e-10
1.4780923e-08
-3.757824e-10
1.493267e-08
-3.736105e-10
1.5081546e-08
-3.6789675e-10
1.5228516e-08
-3.6179537e-10
1.5375319e-08
-3.581491e-10
1.5519852e-08
-3.5087657e-10
1.5662419e-08
-3.4558549e-10
1.5803654e-08
-3.3945439e-10
1.5945537e-08
-3.3754081e-10
1.608453e-08
-3.327112e-10
1.6220934e-08
-3.2415825e-10
1.6357131e-08
-3.1810566e-10
1.649138e-08
-3.1313081e-10
1.6623071e-08
-3.0781365e-10
1.6753646e-08
-3.0054177e-10
1.6883102e-08
-2.9677613e-10
1.7009662e-08
-2.8821494e-10
1.7134479e-08
-2.8274443e-10
1.7258695e-08
-2.782269e-10
1.7379079e-08
-2.6985163e-10
1.7498223e-08
-2.6170157e-10
1.7618008e-08
-2.6072514e-10
1.7734868e-08
-2.5447544e-10
1.7849329e-08
-2.4797569e-10
1.796212e-08
-2.4005874e-10
-2.3312941e-10
7.3482434e-09
-6.7634874e-10
7.5479131e-09
-6.8047853e-10
7.7489914e-09
-6.8048621e-10
7.9516654e-09
-6.8773872e-10
8.1553543e-09
-6.8596931e-10
8.3595159e-09
-6.9036984e-10
8.5653218e-09
-6.8735986e-10
8.7710002e-09
-6.924658e-10
8.9788691e-09
-6.888337e-10
9.1857325e-09
-6.9394973e-10
9.3957781e-09
-6.9173008e-10
9.6035805e-09
-6.9398322e-10
9.8151948e-09
-6.9355084e-10
1.0023949e-08
-6.9185111e-10
1.0236913e-08
-6.9561457e-10
1.0446877e-08
-6.8873805e-10
1.0660302e-08
-6.9675302e-10
1.0871829e-08
-6.8546908e-10
1.1084818e-08
-6.9582213e-10
1.1297547e-08
-6.8180784e-10
1.1510176e-08
-6.9294346e-10
1.1724437e-08
-6.8084895e-10
1.1936443e-08
-6.8705409e-10
1.2151054e-08
-6.7975884e-10
1.2363699e-08
-6.8148933e-10
1.2577791e-08
-6.7712054e-10
1.279098e-08
-6.748269e-10
1.3003878e-08
-6.7297193e-10
1.3216696e-08
-6.6531377e-10
1.3429731e-08
-6.7143411e-10
1.364229e-08
-6.5844093e-10
1.3854797e-08
-6.6622507e-10
1.4065576e-08
-6.4975813e-10
1.4278694e-08
-6.5990871e-10
1.4488116e-08
-6.4432794e-10
1.4701004e-08
-6.5050768e-10
1.490901e-08
-6.3914598e-10
1.5121399e-08
-6.4082118e-10
1.5326704e-08
-6.3037791e-10
1.5538093e-08
-6.2859963e-10
1.5742529e-08
-6.245159e-10
1.5950907e-08
-6.1499692e-10
1.6156908e-08
-6.2019736e-10
1.6359933e-08
-6.0103979e-10
1.6566694e-08
-6.1156787e-10
1.6767316e-08
-5.9201728e-10
1.6972902e-08
-5.9999152e-10
1.7170363e-08
-5.805672e-10
1.7374464e-08
-5.8680853e-10
1.7570063e-08
-5.7138135e-10
1.7771586e-08
-5.7513347e-10
1.796723e-08
-5.6354105e-10
1.8162956e-08
-5.5752096e-10
1.8357902e-08
-5.5309497e-10
1.8551108e-08
-5.4408304e-10
1.8741307e-08
-5.3578464e-10
1.8931647e-08
-5.2979427e-10
1.9122825e-08
-5.287185e-10
1.9309311e-08
-5.191974e-10
1.9494533e-08
-5.0938015e-10
1.9680562e-08
-5.0413514e-10
1.9863351e-08
-4.959198e-10
2.0044098e-08
-4.8856012e-10
2.0224104e-08
-4.8054757e-10
2.04036e-08
-4.7627272e-10
2.0578298e-08
-4.6291235e-10
2.0753666e-08
-4.5811228e-10
2.0927554e-08
-4.5211518e-10
2.1095471e-08
-4.3776839e-10
2.1265205e-08
-4.3143604e-10
2.1434491e-08
-4.300114e-10
2.1600482e-08
-4.2046566e-10
2.1764763e-08
-4.1225728e-10
2.1927156e-08
-4.0245207e-10
-3.9363414e-10
7.9467911e-09
-9.0490334e-10
8.1757435e-09
-9.0943094e-10
8.4085399e-09
-9.1328255e-10
8.6414645e-09
-9.2066336e-10
8.8777955e-09
-9.2230026e-10
9.1133147e-09
-9.2588907e-10
9.3528585e-09
-9.2690366e-10
9.5911607e-09
-9.3076794e-10
9.8337154e-09
-9.3138847e-10
1.0074442e-08
-9.3467627e-10
1.0320026e-08
-9.3731414e-10
1.0562735e-08
-9.366918e-10
1.0810803e-08
-9.4161912e-10
1.1055444e-08
-9.3649232e-10
1.1305929e-08
-9.4609981e-10
1.1552893e-08
-9.3570182e-10
1.1804692e-08
-9.4855193e-10
1.2054653e-08
-9.3542983e-10
1.2306648e-08
-9.4781717e-10
1.2558942e-08
-9.3410241e-10
1.2811554e-08
-9.4555504e-10
1.3066392e-08
-9.3568749e-10
1.3319398e-08
-9.4005976e-10
1.357535e-08
-9.3571023e-10
1.3830089e-08
-9.3622852e-10
1.4086275e-08
-9.3330633e-10
1.4342631e-08
-9.3118362e-10
1.459876e-08
-9.2910051e-10
1.4855704e-08
-9.2225753e-10
1.5113015e-08
-9.2874553e-10
1.5370304e-08
-9.1573008e-10
1.562773e-08
-9.2365088e-10
1.5883815e-08
-9.0584284e-10
1.6143282e-08
-9.1937642e-10
1.6398492e-08
-8.9953791e-10
1.6658755e-08
-9.1076988e-10
1.6912753e-08
-8.9314437e-10
1.7173565e-08
-9.01633e-10
1.7424637e-08
-8.8144979e-10
1.7687116e-08
-8.9107942e-10
1.7936549e-08
-8.7394853e-10
1.8197661e-08
-8.7610877e-10
1.8449763e-08
-8.7229948e-10
1.8704372e-08
-8.5564866e-10
1.8959823e-08
-8.6701851e-10
1.9211135e-08
-8.4332978e-10
1.9466874e-08
-8.5573069e-10
1.9714567e-08
-8.2825955e-10
1.9971226e-08
-8.4346835e-10
2.0216348e-08
-8.1650299e-10
2.0472222e-08
-8.3100759e-10
2.0717278e-08
-8.0859722e-10
2.096664e-08
-8.0688262e-10
2.1212987e-08
-7.9944177e-10
2.1458803e-08
-7.8989969e-10
2.1701162e-08
-7.7814348e-10
2.194642e-08
-7.7505183e-10
2.2190167e-08
-7.7246586e-10
2.2428699e-08
-7.5772922e-10
2.2668649e-08
-7.493299e-10
2.2908818e-08
-7.443042e-10
2.314558e-08
-7.326819e-10
2.338111e-08
-7.2408975e-10
2.3615799e-08
-7.1523714e-10
2.385088e-08
-7.1135323e-10
2.4078295e-08
-6.9032735e-10
2.4311995e-08
-6.9181261e-10
2.4539971e-08
-6.8009157e-10
2.4762835e-08
-6.6063231e-10
2.499163e-08
-6.6023081e-10
2.5215735e-08
-6.5411645e-10
2.5436919e-08
-6.4164984e-10
2.5657079e-08
-6.3241712e-10
2.5876052e-08
-6.2142466e-10
-6.1066884e-10
8.3924109e-09
-1.1606074e-09
8.6496668e-09
-1.1666868e-09
8.9115236e-09
-1.1751393e-09
9.1735989e-09
-1.1827387e-09
9.4402551e-09
-1.1889564e-09
9.7059324e-09
-1.1915664e-09
9.9774538e-09
-1.1984251e-09
1.0247054e-08
-1.200368e-09
1.052304e-08
-1.2073744e-09
1.0796439e-08
-1.2080752e-09
1.1076602e-08
-1.2174768e-09
1.135328e-08
-1.2133698e-09
1.1637141e-08
-1.2254802e-09
1.1916823e-08
-1.2161745e-09
1.2204579e-08
-1.2338558e-09
1.248751e-08
-1.2186329e-09
1.2778023e-08
-1.2390651e-09
1.306514e-08
-1.2225468e-09
1.3357088e-08
-1.2397656e-09
1.3647611e-08
-1.224625e-09
1.3941605e-08
-1.2395493e-09
1.4235645e-08
-1.2297275e-09
1.4531503e-08
-1.2359172e-09
1.4827815e-08
-1.2320228e-09
1.5126228e-08
-1.2346418e-09
1.5424022e-08
-1.2311001e-09
1.5724605e-08
-1.2317665e-09
1.6024318e-08
-1.2288137e-09
1.6326275e-08
-1.2242147e-09
1.6628538e-08
-1.2310079e-09
1.6931089e-08
-1.2182814e-09
1.7234423e-08
-1.2269849e-09
1.7536704e-08
-1.2081233e-09
1.7843616e-08
-1.2262891e-09
1.8145984e-08
-1.2019055e-09
1.8454846e-08
-1.2196318e-09
1.8756566e-08
-1.1948648e-09
1.9066307e-08
-1.2113738e-09
1.9365895e-08
-1.181038e-09
1.9680275e-08
-1.2054591e-09
1.9976723e-08
-1.1703964e-09
2.0292962e-08
-1.1923483e-09
2.0591465e-08
-1.1708027e-09
2.0901894e-08
-1.1660774e-09
2.1206291e-08
-1.1714154e-09
2.1512136e-08
-1.149175e-09
2.1818504e-08
-1.1620982e-09
2.2120632e-08
-1.1303879e-09
2.2430173e-08
-1.1530092e-09
2.2728887e-08
-1.1152168e-09
2.3040349e-08
-1.1424702e-09
2.3337553e-08
-1.1058008e-09
2.3645078e-08
-1.1144078e-09
2.3945005e-08
-1.0993691e-09
2.4245589e-08
-1.0904835e-09
2.4544035e-08
-1.0765896e-09
2.4848737e-08
-1.0797531e-09
2.5145712e-08
-1.0694413e-09
2.5440952e-08
-1.0529688e-09
2.5739688e-08
-1.0480659e-09
2.6036012e-08
-1.0406288e-09
2.6331062e-08
-1.0277316e-09
2.6624737e-08
-1.0177645e-09
2.6918974e-08
-1.0094748e-09
2.7211508e-08
-1.0038872e-09
2.7496282e-08
-9.7510145e-10
2.7792784e-08
-9.883138e-10
2.8073506e-08
-9.6081349e-10
2.8358732e-08
-9.4585829e-10
2.8648944e-08
-9.504431e-10
2.8930246e-08
-9.3541872e-10
2.9212017e-08
-9.2342089e-10
2.9492846e-08
-9.1324641e-10
2.977161e-08
-9.0018858e-10
-8.8821185e-10
8.7068961e-09
-1.4397954e-09
8.9928984e-09
-1.4526891e-09
9.2799159e-09
-1.4621568e-09
9.5720294e-09
-1.4748522e-09
9.8650788e-09
-1.4820058e-09
1.016205e-08
-1.4885375e-09
1.0462029e-08
-1.4984038e-09
1.076381e-08
-1.502149e-09
1.1070384e-08
-1.5139488e-09
1.1377099e-08
-1.5147904e-09
1.1689454e-08
-1.5298321e-09
1.2000753e-08
-1.5246689e-09
1.231833e-08
-1.5430567e-09
1.2633658e-08
-1.5315022e-09
1.2957048e-08
-1.5572463e-09
1.3276008e-08
-1.5375928e-09
1.3604543e-08
-1.5676003e-09
1.3927915e-08
-1.545918e-09
1.4260164e-08
-1.5720154e-09
1.4587396e-08
-1.5518564e-09
1.4923705e-08
-1.5758586e-09
1.5254878e-08
-1.5609003e-09
1.5595175e-08
-1.5762146e-09
1.5929799e-08
-1.5666466e-09
1.6273497e-08
-1.5783392e-09
1.6610748e-08
-1.5683518e-09
1.6957171e-08
-1.5781893e-09
1.7298511e-08
-1.5701537e-09
1.7647666e-08
-1.5733695e-09
1.7992692e-08
-1.5760339e-09
1.834246e-08
-1.5680495e-09
1.8689919e-08
-1.5744442e-09
1.904081e-08
-1.5590145e-09
1.9393542e-08
-1.5790201e-09
1.9745251e-08
-1.5536148e-09
2.0102455e-08
-1.5768364e-09
2.0453383e-08
-1.5457928e-09
2.0811226e-08
-1.5692161e-09
2.116222e-08
-1.5320324e-09
2.1526854e-08
-1.570093e-09
2.1873326e-08
-1.5168685e-09
2.2244157e-08
-1.5631789e-09
2.2588691e-08
-1.5153372e-09
2.2958141e-08
-1.5355267e-09
2.3309493e-08
-1.5227679e-09
2.3672611e-08
-1.5122926e-09
2.4027766e-08
-1.5172532e-09
2.4388406e-08
-1.4910282e-09
2.474723e-08
-1.5118332e-09
2.5104801e-08
-1.4727877e-09
2.5467687e-08
-1.5053562e-09
2.5819034e-08
-1.4571483e-09
2.6185735e-08
-1.4811083e-09
2.6537921e-08
-1.4515553e-09
2.6893028e-08
-1.4455904e-09
2.7248307e-08
-1.4318686e-09
2.761335e-08
-1.4447957e-09
2.7960275e-08
-1.4163664e-09
2.8313352e-08
-1.4060462e-09
2.866947e-08
-1.4041837e-09
2.9020297e-08
-1.3914561e-09
2.9372567e-08
-1.3800016e-09
2.9723714e-08
-1.368911e-09
3.0078481e-08
-1.3642421e-09
3.0420171e-08
-1.3455775e-09
3.0769233e-08
-1.3241633e-09
3.1123695e-08
-1.3427757e-09
3.1451469e-08
-1.2885871e-09
3.1806278e-08
-1.3006681e-09
3.2150491e-08
-1.2946553e-09
3.2487582e-08
-1.2725098e-09
3.282775e-08
-1.263589e-09
3.3166681e-08
-1.2521779e-09
3.350496e-08
-1.2384675e-09
-1.2246428e-09
8.9131093e-09
-1.7421246e-09
9.2256178e-09
-1.7651976e-09
9.5367303e-09
-1.7732693e-09
9.8576103e-09
-1.7957322e-09
1.0175194e-08
-1.7995891e-09
1.050339e-08
-1.8167345e-09
1.0828971e-08
-1.823984e-09
1.1163737e-08
-1.836915e-09
1.1497302e-08
-1.8475139e-09
1.1838714e-08
-1.8562028e-09
1.2179086e-08
-1.8702039e-09
1.2526838e-08
-1.872421e-09
1.2873429e-08
-1.8896475e-09
1.3226845e-08
-1.8849181e-09
1.3580581e-08
-1.9109825e-09
1.3938515e-08
-1.8955272e-09
1.4299941e-08
-1.929026e-09
1.4661946e-08
-1.907923e-09
1.5030347e-08
-1.9404164e-09
1.53959e-08
-1.9174095e-09
1.5771338e-08
-1.9512961e-09
1.6140244e-08
-1.9298071e-09
1.6523011e-08
-1.9589808e-09
1.6896165e-08
-1.9398011e-09
1.7284185e-08
-1.9663595e-09
1.7659957e-08
-1.9441231e-09
1.8052747e-08
-1.9709791e-09
1.8433413e-08
-1.9508201e-09
1.8832602e-08
-1.972559e-09
1.9216517e-08
-1.9599487e-09
1.9616914e-08
-1.9684466e-09
2.0004065e-08
-1.9615946e-09
2.0408087e-08
-1.9630367e-09
2.0801302e-08
-1.9722353e-09
2.1205739e-08
-1.9580517e-09
2.1608021e-08
-1.9791181e-09
2.2009405e-08
-1.9471774e-09
2.2411433e-08
-1.9712438e-09
2.2816599e-08
-1.9371983e-09
2.3224336e-08
-1.9778304e-09
2.3625575e-08
-1.9181072e-09
2.40431e-08
-1.9807037e-09
2.4433677e-08
-1.905914e-09
2.485965e-08
-1.9615006e-09
2.5253473e-08
-1.9165904e-09
2.5671939e-08
-1.9307588e-09
2.6070004e-08
-1.9153181e-09
2.648788e-08
-1.9089043e-09
2.6885963e-08
-1.9099162e-09
2.7304562e-08
-1.8913863e-09
2.7706638e-08
-1.9074325e-09
2.8110771e-08
-1.8612814e-09
2.8530969e-08
-1.901306e-09
2.8926641e-08
-1.8472271e-09
2.9331039e-08
-1.8499884e-09
2.9735915e-08
-1.8367451e-09
3.0153902e-08
-1.8627824e-09
3.0542068e-08
-1.8045327e-09
3.0946969e-08
-1.8109464e-09
3.1348692e-08
-1.8059071e-09
3.1748482e-08
-1.7912464e-09
3.2147063e-08
-1.7785822e-09
3.2553088e-08
-1.7749358e-09
3.2963011e-08
-1.7741658e-09
3.3336903e-08
-1.7194694e-09
3.3760441e-08
-1.7477008e-09
3.4152039e-08
-1.7343737e-09
3.4520713e-08
-1.6572613e-09
3.4948623e-08
-1.7285779e-09
3.5325115e-08
-1.6711472e-09
3.5718185e-08
-1.66558e-09
3.6107069e-08
-1.6524734e-09
3.6493449e-08
-1.6385582e-09
3.6883004e-08
-1.6280216e-09
-1.6091769e-09
9.0303851e-09
-2.0696015e-09
9.3640106e-09
-2.0988231e-09
9.7014081e-09
-2.1106668e-09
1.0045515e-08
-2.1398387e-09
1.038991e-08
-2.1439842e-09
1.0744006e-08
-2.1708302e-09
1.1096752e-08
-2.1767302e-09
1.1459902e-08
-2.2000651e-09
1.182098e-08
-2.2085916e-09
1.2193424e-08
-2.2286473e-09
1.2561515e-08
-2.2382945e-09
1.2942802e-08
-2.2537084e-09
1.3317381e-08
-2.264226e-09
1.3707412e-08
-2.2749496e-09
1.4088792e-08
-2.2923623e-09
1.4486865e-08
-2.2936007e-09
1.4876417e-08
-2.3185773e-09
1.5280338e-08
-2.3118446e-09
1.5678549e-08
-2.3386275e-09
1.6087726e-08
-2.3265867e-09
1.6494951e-08
-2.3585211e-09
1.6907791e-08
-2.3426464e-09
1.7325243e-08
-2.3764331e-09
1.7744163e-08
-2.3587216e-09
1.8168322e-08
-2.3905183e-09
1.858926e-08
-2.3650609e-09
1.9020902e-08
-2.4026208e-09
1.9445354e-08
-2.3752722e-09
1.9889352e-08
-2.4165567e-09
2.031355e-08
-2.3841469e-09
2.07602e-08
-2.4150965e-09
2.1185621e-08
-2.3870157e-09
2.1640486e-08
-2.4179017e-09
2.2068381e-08
-2.4001304e-09
2.2523427e-08
-2.4130977e-09
2.2963391e-08
-2.4190826e-09
2.3412414e-08
-2.3962004e-09
2.3848035e-08
-2.4068644e-09
2.4306886e-08
-2.3960487e-09
2.4740246e-08
-2.4111904e-09
2.5200401e-08
-2.3782628e-09
2.5643229e-08
-2.4235313e-09
2.6080267e-08
-2.3429526e-09
2.6545619e-08
-2.4268518e-09
2.6975663e-08
-2.3466352e-09
2.7434299e-08
-2.3893939e-09
2.7864667e-08
-2.3456868e-09
2.8327457e-08
-2.371694e-09
2.8751368e-08
-2.3338276e-09
2.9225411e-08
-2.365429e-09
2.9649114e-08
-2.3311356e-09
3.0100539e-08
-2.3127067e-09
3.0560288e-08
-2.3610544e-09
3.0983238e-08
-2.2701778e-09
3.143029e-08
-2.2970403e-09
3.1866116e-08
-2.2725707e-09
3.231491e-08
-2.3115768e-09
3.2726521e-08
-2.2161433e-09
3.3157082e-08
-2.241507e-09
3.3602108e-08
-2.250934e-09
3.4063336e-08
-2.2524741e-09
3.4494192e-08
-2.2094379e-09
3.4965137e-08
-2.2458813e-09
3.5427765e-08
-2.2367935e-09
3.5788547e-08
-2.0802515e-09
3.6311889e-08
-2.2710425e-09
3.6689608e-08
-2.112093e-09
3.7033166e-08
-2.0008193e-09
3.7535635e-08
-2.2310469e-09
3.7851219e-08
-1.9867307e-09
3.8249325e-08
-2.063686e-09
3.8566344e-08
-1.9694923e-09
3.889606e-08
-1.9682748e-09
3.9146755e-08
-1.8787167e-09
-1.8700606e-09
9.0704432e-09
-2.4212067e-09
9.4224808e-09
-2.4508607e-09
9.7855371e-09
-2.4737231e-09
1.0149427e-08
-2.5037285e-09
1.0520723e-08
-2.5152805e-09
1.0896314e-08
-2.5464214e-09
1.1277138e-08
-2.5575542e-09
1.166358e-08
-2.5865065e-09
1.2053963e-08
-2.5989755e-09
1.2451787e-08
-2.6264712e-09
1.2850659e-08
-2.6371664e-09
1.3258853e-08
-2.6619018e-09
1.3666275e-08
-2.6716479e-09
1.4085513e-08
-2.6941885e-09
1.4500477e-08
-2.7073258e-09
1.4931558e-08
-2.7246822e-09
1.5355015e-08
-2.7420344e-09
1.5794772e-08
-2.7516011e-09
1.6226758e-08
-2.7706137e-09
1.6676329e-08
-2.7761577e-09
1.7116298e-08
-2.7984902e-09
1.757201e-08
-2.7983583e-09
1.8021355e-08
-2.8257782e-09
1.8487481e-08
-2.8248474e-09
1.8940014e-08
-2.8430513e-09
1.9409956e-08
-2.8350028e-09
1.9867228e-08
-2.8598926e-09
2.0340437e-08
-2.8484818e-09
2.0811631e-08
-2.8877499e-09
2.1281378e-08
-2.8538944e-09
2.175194e-08
-2.8856583e-09
2.2220706e-08
-2.8557821e-09
2.2701589e-08
-2.8987847e-09
2.3166863e-08
-2.8654043e-09
2.3646235e-08
-2.8924699e-09
2.4122887e-08
-2.8957345e-09
2.4593939e-08
-2.867252e-09
2.5056196e-08
-2.869122e-09
2.5550265e-08
-2.8901169e-09
2.5995793e-08
-2.8567191e-09
2.6507621e-08
-2.8900901e-09
2.6949962e-08
-2.8658727e-09
2.7429746e-08
-2.8227367e-09
2.7905803e-08
-2.9029092e-09
2.8356921e-08
-2.7977531e-09
2.8813878e-08
-2.8463511e-09
2.9281302e-08
-2.8131104e-09
2.9792394e-08
-2.8827856e-09
3.0230953e-08
-2.7723867e-09
3.0763133e-08
-2.8976089e-09
3.1171856e-08
-2.7398589e-09
3.1624518e-08
-2.765369e-09
3.2115619e-08
-2.8521548e-09
3.2411822e-08
-2.5663808e-09
3.2797031e-08
-2.6822494e-09
3.3013442e-08
-2.4889816e-09
3.3339892e-08
-2.638027e-09
3.3047015e-08
-1.9232665e-09
3.2820196e-08
-2.014688e-09
3.3350423e-08
-2.7811605e-09
3.3749261e-08
-2.6513127e-09
3.3829699e-08
-2.2898762e-09
3.4131795e-08
-2.5479767e-09
3.450343e-08
-2.6084289e-09
3.4252527e-08
-1.8293482e-09
3.4645005e-08
-2.6635203e-09
3.4653113e-08
-2.1202011e-09
3.4285163e-08
-1.632869e-09
3.4426163e-08
-2.3720472e-09
3.4146691e-08
-1.7072593e-09
3.4024201e-08
-1.9411953e-09
3.3667243e-08
-1.6125349e-09
3.345701e-08
-1.758042e-09
3.2991577e-08
-1.4132835e-09
-1.453906e-09
9.0444399e-09
-2.7942962e-09
9.4138753e-09
-2.8202961e-09
9.7998824e-09
-2.8597301e-09
1.0182524e-08
-2.8863705e-09
1.0577913e-08
-2.9106693e-09
1.097445e-08
-2.9429581e-09
1.1380521e-08
-2.9636252e-09
1.17904e-08
-2.9963851e-09
1.2207355e-08
-3.015931e-09
1.2631249e-08
-3.0503654e-09
1.3058445e-08
-3.0643623e-09
1.3494444e-08
-3.0979005e-09
1.3933328e-08
-3.1105319e-09
1.4381686e-08
-3.1425471e-09
1.4830811e-08
-3.1564507e-09
1.5291967e-08
-3.1858376e-09
1.5752846e-08
-3.2029141e-09
1.6221302e-08
-3.2200569e-09
1.6692847e-08
-3.2421582e-09
1.717167e-08
-3.2549811e-09
1.7650785e-08
-3.2776053e-09
1.8133705e-08
-3.2812783e-09
1.862037e-08
-3.3124428e-09
1.9112973e-08
-3.3174507e-09
1.9598022e-08
-3.3281005e-09
2.0092987e-08
-3.3299675e-09
2.0575449e-08
-3.3423544e-09
2.1073181e-08
-3.3462133e-09
2.1564846e-08
-3.3794157e-09
2.205721e-08
-3.3462584e-09
2.2537251e-08
-3.3656995e-09
2.3032567e-08
-3.3510982e-09
2.3521216e-08
-3.3874331e-09
2.4012242e-08
-3.3564303e-09
2.4487696e-08
-3.3679241e-09
2.499162e-08
-3.3996584e-09
2.5429228e-08
-3.3048604e-09
2.5947953e-08
-3.3878466e-09
2.6451785e-08
-3.3939493e-09
2.6912139e-08
-3.317073e-09
2.7433261e-08
-3.4112122e-09
2.7835112e-08
-3.2677234e-09
2.8170884e-08
-3.1585082e-09
2.8587316e-08
-3.3193416e-09
2.8402082e-08
-2.6125188e-09
2.8319264e-08
-2.7635335e-09
2.8657481e-08
-3.1513269e-09
2.8910113e-08
-3.1354175e-09
2.9046255e-08
-2.9085296e-09
2.9178376e-08
-3.0297295e-09
2.9152753e-08
-2.7142357e-09
2.8912676e-08
-2.5252917e-09
2.8951213e-08
-2.8906923e-09
2.8404751e-08
-2.0199186e-09
2.797019e-08
-2.247688e-09
2.7491037e-08
-2.0098289e-09
2.6872881e-08
-2.019871e-09
2.6023705e-08
-1.0740904e-09
2.5315642e-08
-1.3066252e-09
2.4173064e-08
-1.6385825e-09
2.2827845e-08
-1.3060937e-09
2.1494746e-08
-9.567771e-10
2.0267449e-08
-1.32068e-09
1.9152217e-08
-1.4931963e-09
1.7948138e-08
-6.2526905e-10
1.6622603e-08
-1.3379859e-09
1.557818e-08
-1.0757782e-09
1.4511194e-08
-5.6588265e-10
1.3224402e-08
-1.0852556e-09
1.2057709e-08
-5.4056545e-10
1.1091617e-08
-9.7510348e-10
9.9598736e-09
-4.8079174e-10
9.2928365e-09
-1.0910049e-09
8.5594564e-09
-6.7990346e-10
-9.5599452e-10
8.9630898e-09
-3.1858805e-09
9.3485077e-09
-3.205714e-09
9.7554815e-09
-3.2667039e-09
1.0154942e-08
-3.2858311e-09
1.057368e-08
-3.329407e-09
1.0989269e-08
-3.3585468e-09
1.1420772e-08
-3.3951287e-09
1.1852224e-08
-3.4278367e-09
1.2296608e-08
-3.4603152e-09
1.2744913e-08
-3.4986706e-09
1.3200874e-08
-3.5203236e-09
1.3664901e-08
-3.5619276e-09
1.4133054e-08
-3.5786848e-09
1.4613249e-08
-3.6227422e-09
1.5090007e-08
-3.6332082e-09
1.5585229e-08
-3.6810597e-09
1.6072283e-08
-3.6899677e-09
1.6572723e-08
-3.7204971e-09
1.706786e-08
-3.7372949e-09
1.7574858e-08
-3.7619791e-09
1.8074196e-08
-3.7769442e-09
1.8577687e-08
-3.7847691e-09
1.9079318e-08
-3.814073e-09
1.9584937e-08
-3.8230697e-09
2.0082501e-08
-3.8256653e-09
2.057815e-08
-3.8256158e-09
2.1076311e-08
-3.8405156e-09
2.1568856e-08
-3.8387588e-09
2.2073863e-08
-3.8844226e-09
2.2542963e-08
-3.8153584e-09
2.3044895e-08
-3.8676307e-09
2.3536362e-08
-3.8425654e-09
2.404181e-08
-3.8928817e-09
2.4445464e-08
-3.7600836e-09
2.4826167e-08
-3.7486271e-09
2.4903031e-08
-3.4765229e-09
2.4487138e-08
-2.8889668e-09
2.4944284e-08
-3.8449932e-09
2.5100014e-08
-3.5496795e-09
2.5130075e-08
-3.3471341e-09
2.5020589e-08
-3.3017256e-09
2.4749427e-08
-2.9965614e-09
2.4103242e-08
-2.5123235e-09
2.358359e-08