/*--------------------------------*- C++ -*----------------------------------*\
| =========                 |                                                 |
| \\      /  F ield         | OpenFOAM: The Open Source CFD Toolbox           |
|  \\    /   O peration     | Version:  2.3.0                                 |
|   \\  /    A nd           | Web:      www.OpenFOAM.org                      |
|    \\/     M anipulation  |                                                 |
\*---------------------------------------------------------------------------*/
FoamFile
{
    version     2.0;
    format      ascii;
    class       volScalarField;
    location    "2.75";
    object      alpha.water;
}
// * * * * * * * * * * * * * * * * * * * * * * * * * * * * * * * * * * * * * //

dimensions      [0 0 0 0 0 0 0];

internalField   nonuniform List<scalar> 
2268
(
0.983632
0.995281
0.99568
0.994671
0.991547
0.991244
0.992258
0.999123
0.999984
0.999672
0.996664
0.993313
0.994426
0.994426
0.984497
0.993087
0.999729
0.999742
0.999746
0.999749
0.999826
0.999826
0.999805
0.892396
0.97497
0.994961
0.999993
0.999993
0.999851
0.999549
0.999834
0.999988
0.999139
0.960976
0.949709
0.949662
0.966565
0.982839
0.994801
0.999721
0.999738
0.999742
0.99964
0.999691
0.999826
0.999826
0.892396
0.947073
0.999568
0.999987
0.999994
0.999994
0.999994
0.999994
0.999993
0.997729
0.988301
0.960129
0.939433
0.939433
0.947108
0.987799
0.995766
0.996622
0.998916
0.999624
0.99959
0.999637
0.999826
0.892401
0.8928
0.977687
0.999428
0.999988
0.999993
0.999994
0.999905
0.998678
0.999566
0.999588
0.999583
0.99499
0.946373
0.941354
0.953234
0.993064
0.998235
0.997901
0.999507
0.999713
0.999633
0.999725
0.926282
0.892825
0.904222
0.938216
0.973235
0.997225
0.999989
0.999693
0.99944
0.99955
0.999583
0.999587
0.999545
0.990327
0.941933
0.943244
0.991133
0.999684
0.999586
0.999772
0.999896
0.999666
0.999803
0.997022
0.926121
0.904934
0.905392
0.905522
0.93939
0.993048
0.999656
0.9993
0.992989
0.990869
0.995396
0.999569
0.999327
0.988374
0.980994
0.990386
0.999878
0.999955
0.999963
0.999965
0.999958
0.99993
0.997065
0.997632
0.977941
0.946207
0.931765
0.932292
0.962641
0.994307
0.986835
0.977199
0.977396
0.988245
0.99977
0.999828
0.999852
0.999956
0.998429
0.999386
0.999963
0.999965
0.999964
0.999965
0.999965
0.997055
0.997985
0.998145
0.998172
0.99815
0.995188
0.983859
0.977206
0.977204
0.977202
0.977197
0.99136
0.999956
0.999889
0.999786
0.999983
0.999985
0.999985
0.999272
0.997824
0.998032
0.999951
0.999963
0.936109
0.937084
0.992475
0.997573
0.998764
0.997958
0.997909
0.997909
0.997909
0.998047
0.997519
0.997215
0.998062
0.99667
0.947784
0.927677
0.963432
0.953145
0.92169
0.936109
0.936109
0.976938
0.999174
0.999175
0.999175
0.99917
0.999174
0.999173
0.999169
0.999167
0.998179
0.99883
0.998692
0.977052
0.926167
0.886824
0.877884
0.877884
0.936109
0.936158
0.937272
0.999175
0.999175
0.999175
0.999175
0.999175
0.998532
0.999168
0.999163
0.998857
0.99883
0.99883
0.998828
0.953212
0.877884
0.877884
0.877884
0.955007
0.9914
0.937217
0.999058
0.999176
0.999175
0.999175
0.997313
0.995925
0.998234
0.989468
0.968731
0.986058
0.990153
0.998144
0.998007
0.89582
0.877884
0.877906
0.991261
0.99786
0.945227
0.995478
0.999176
0.999175
0.999074
0.995884
0.996085
0.997637
0.958476
0.940339
0.963522
0.985808
0.99806
0.998063
0.99092
0.877893
0.926442
0.979903
0.998105
0.996047
0.996716
0.999008
0.999175
0.998858
0.995876
0.998455
0.998273
0.971058
0.940286
0.953366
0.99806
0.998063
0.998064
0.998063
0.900801
0.982804
0.984605
0.997091
0.999107
0.999167
0.999169
0.999163
0.998268
0.99875
0.998758
0.998758
0.998156
0.957407
0.938228
0.998059
0.99806
0.998064
0.935747
0.962152
0.982804
0.993051
0.998912
0.999161
0.999169
0.99917
0.999169
0.991726
0.998737
0.998758
0.998744
0.998283
0.978815
0.920696
0.981135
0.998061
0.956693
0.920083
0.982706
0.982794
0.997167
0.997633
0.99799
0.998145
0.998171
0.998119
0.997502
0.979913
0.977209
0.977824
0.992358
0.999956
0.999976
0.999969
0.999979
0.999986
0.999986
0.999986
0.999985
0.995015
0.995033
0.997188
0.999961
0.940804
0.867879
0.913966
0.981453
0.997967
0.998391
0.998889
0.999272
0.99958
0.999871
0.999953
0.999975
0.999985
0.999986
0.999986
0.999986
0.999986
0.999986
0.999986
0.999985
0.999899
0.999922
0.999939
0.248162
0.167114
0.25256
0.445268
0.726965
0.919592
0.98686
0.997475
0.995233
0.997328
0.999857
0.999953
0.984675
0.95245
0.904232
0.831922
0.739837
0.661017
0.61357
0.559869
0.524254
0.497222
0.43988
7.20747e-05
7.20747e-05
7.52714e-05
8.23359e-05
0.0527428
0.212685
0.417549
0.530993
0.531977
0.55545
0.6253
0.673614
0.653039
0.551377
0.413067
0.270302
0.134862
0.05911
0.0273227
0.010915
0.00450152
0.00105985
8.05315e-06
7.20747e-05
7.83477e-05
9.48028e-05
5.45395e-05
3.62401e-05
2.9629e-05
2.96736e-05
1.92308e-05
0.028064
0.0662286
0.0894397
0.0957805
0.0880949
0.0631979
0.0284087
0.00112143
0.000379177
0.000407144
0.000173268
5.71547e-05
2.74997e-05
6.49629e-06
6.7437e-06
9.87599e-05
0.000693008
0.00081154
0.000636108
0.000423868
0.000245384
3.89172e-05
5.75061e-06
1.95808e-06
1.25325e-06
1.2621e-06
-2.04036e-06
1.97777e-05
1.28498e-05
5.70166e-05
6.60786e-05
8.82821e-05
9.48078e-05
3.41286e-05
1.12577e-05
7.32104e-06
6.19253e-06
7.18693e-06
0.000296897
0.000831708
0.000843362
0.000869215
0.000883475
0.000881855
0.000726345
0.000105429
4.59095e-06
1.95808e-06
2.94737e-06
2.83466e-06
5.84138e-06
8.13206e-06
0.000196617
2.79637e-05
2.31433e-05
2.79707e-05
1.01461e-05
5.94023e-06
5.46993e-06
5.24955e-06
5.26085e-06
0.000342151
0.000604851
0.000589804
0.00054461
0.000851326
0.000890024
0.00088661
0.000529331
1.35483e-05
4.34013e-06
4.1216e-06
4.96172e-06
5.46623e-06
7.29271e-06
0.000348695
1.45801e-05
9.40167e-06
1.32392e-05
6.15045e-06
5.27948e-06
5.45211e-06
5.34576e-06
5.30074e-06
0.000244003
0.00014136
5.29817e-05
5.33556e-05
0.000137953
0.000866209
0.000890024
0.000644957
2.34305e-05
5.46396e-06
5.30439e-06
5.46623e-06
5.51316e-06
1.11827e-05
0.000348712
1.23414e-05
5.97747e-06
1.84346e-05
5.92209e-06
5.14718e-06
5.32292e-06
7.01979e-06
1.12955e-05
0.000279474
0.000501015
9.16177e-05
5.33556e-05
5.43753e-05
0.000261616
0.000883822
0.000751481
5.79189e-05
3.23278e-05
0.000326726
0.000588075
0.000443478
6.77056e-05
0.00022243
4.94881e-06
4.74876e-06
1.48638e-05
1.11856e-05
5.08828e-06
5.7364e-06
1.74136e-05
1.74243e-05
0.000526102
0.000502083
9.65571e-05
4.19393e-05
5.62777e-05
8.57425e-05
0.000736077
0.000827142
0.000151311
0.000186944
0.00066512
0.000667876
0.000665577
0.000545139
4.99538e-06
4.7953e-06
4.72087e-06
4.69891e-06
5.74902e-06
5.00275e-06
9.75804e-06
1.72019e-05
1.74133e-05
0.00052312
3.96772e-05
2.01157e-05
2.80887e-05
0.000422696
0.000240093
0.000381361
0.000827369
0.000327666
0.000103613
0.000639871
0.000667084
0.000667853
0.000634944
4.89133e-06
4.79549e-06
4.72692e-06
4.70182e-06
4.69749e-06
5.0009e-06
4.99189e-06
5.05066e-06
8.67693e-06
5.71581e-05
1.01486e-05
1.16703e-05
0.000535016
0.0015345
0.00152936
0.0007699
0.000736897
0.000443367
8.91657e-05
0.000118335
0.00055622
0.000547277
0.000195736
7.59742e-06
4.77976e-06
4.75286e-06
4.78261e-06
4.77554e-06
4.76942e-06
4.7905e-06
4.82942e-06
4.91642e-06
9.09934e-06
9.09934e-06
0.000213469
0.0015455
0.00153704
0.00152915
0.00138393
0.000883464
0.000713938
7.86136e-05
4.65263e-05
4.25613e-05
3.02213e-05
5.92522e-06
6.08935e-06
4.65371e-06
4.77193e-06
4.79185e-06
4.80221e-06
4.77462e-06
4.79877e-06
4.79094e-06
5.72336e-06
9.09934e-06
9.16712e-06
0.000642491
0.00154443
0.00152888
0.00152915
0.00151888
0.00126503
0.000941427
0.000698169
0.000118071
9.94004e-06
6.37934e-06
4.96383e-06
4.72306e-06
4.68761e-06
4.73017e-06
4.7915e-06
4.74019e-06
4.75893e-06
4.82013e-06
8.62599e-06
1.43279e-05
9.19219e-06
9.59623e-06
0.000686244
0.00157672
0.00154443
0.00153581
0.00151694
0.00140997
0.000691541
0.000824374
0.00082951
0.000656977
0.000405831
4.59956e-05
4.7701e-06
4.65968e-06
4.70543e-06
4.71563e-06
1.01226e-05
0.000133408
0.000169741
0.00101343
0.00189909
9.83175e-06
1.31987e-05
0.000202129
0.000876757
0.00107707
0.000410219
0.000548046
0.000492748
0.000512682
0.000591978
0.000830648
0.000831111
0.000826521
0.000786032
0.00014664
5.30965e-06
4.83094e-06
4.76848e-06
0.000135014
0.00156946
0.00182165
0.00182888
0.0018856
5.21063e-05
0.000404059
8.62664e-05
8.22636e-05
7.66957e-05
9.10524e-05
0.000111016
0.000305877
0.000614587
0.000605033
0.000570452
0.000674267
0.000682074
0.00056396
0.000265257
6.996e-05
6.85606e-06
5.38408e-06
0.00121288
0.00172001
0.00177306
0.00181671
0.00175201
0.000251406
0.000838227
9.11459e-05
7.67155e-05
7.26484e-05
6.84908e-05
0.00050439
0.000618506
0.000617094
0.00061397
0.000603052
0.000613362
0.000607264
0.000601358
0.000590989
0.000206995
0.000204563
0.00121442
0.0012807
0.00122161
0.000699513
0.000426268
0.00046249
0.000378331
0.000838227
0.000466289
7.68316e-05
6.49313e-05
5.46759e-05
0.000207044
0.000572603
0.000416687
0.00013093
0.000122793
0.000125604
0.000123976
0.000202256
0.00023245
0.000460919
0.000456138
9.89843e-05
5.71274e-05
5.08195e-05
5.03478e-05
0.000314485
0.000813883
0.000484215
0.000850185
0.000836994
0.000335689
6.40826e-05
4.61405e-05
1.84819e-05
1.51059e-05
1.49723e-05
1.5106e-05
1.49743e-05
1.58475e-05
1.87158e-05
1.90546e-05
1.93712e-05
7.27022e-05
0.000357341
7.74314e-05
5.21e-05
5.05885e-05
0.000458568
0.00048634
0.000158504
0.000908042
0.000861072
0.000827312
0.000706895
0.000325508
9.04946e-05
0.000215588
0.000127167
1.5106e-05
1.50303e-05
1.58455e-05
2.89866e-05
2.26788e-05
1.98815e-05
1.90546e-05
9.47387e-05
0.000431311
0.000323793
5.3859e-05
0.000277834
0.000457598
0.000186251
2.25678e-05
0.000908042
0.000406559
0.000378569
0.00069934
0.000662994
0.000527807
0.000397376
0.000252152
3.43007e-05
1.64591e-05
0.000207189
0.000675077
0.000587455
0.000252793
5.27081e-05
0.000113574
0.000431437
0.00021597
0.000135469
0.000355937
0.000308905
1.37717e-06
2.19124e-05
0.000907901
0.000338406
0.000361434
0.000662589
0.000603276
0.000465069
0.000189311
6.8513e-05
7.49442e-05
0.000337333
0.000897657
0.000901186
0.00090072
0.000841844
9.05791e-05
6.07286e-06
0.000407171
0.0001467
0.00021649
0.000355937
2.90051e-05
7.00783e-07
1.60604e-06
0.000906533
0.000337392
0.000575622
0.000498702
5.36871e-05
1.39692e-05
1.63256e-05
6.70154e-05
0.000639411
0.000896355
0.000898524
0.000900446
0.000901175
0.000809339
6.44582e-05
3.05075e-06
2.51325e-05
0.000137141
0.000236257
0.000251267
6.56743e-07
6.26506e-07
6.25792e-07
0.000350288
0.000472558
0.000574204
7.5922e-05
7.87679e-06
1.22385e-05
1.39692e-05
0.000523817
0.000862314
0.000885438
0.000895616
0.000898549
0.000889322
0.000214268
2.70082e-06
2.87593e-06
5.73165e-05
0.000415027
4.08391e-05
2.42316e-05
6.20767e-07
6.23721e-07
6.25811e-07
0.000258944
0.000574306
0.000124771
5.22985e-08
6.60873e-06
2.42134e-05
3.19351e-05
0.00029783
0.000530013
0.000620742
0.000561033
0.000429245
9.77254e-05
3.10302e-05
2.70082e-06
2.70082e-06
0.000102997
0.000419684
8.48376e-06
6.61922e-07
6.21082e-07
6.18774e-07
6.23081e-07
0.000258964
0.000573379
3.21505e-08
3.26708e-08
5.22672e-08
2.89076e-05
7.69336e-05
3.97371e-05
3.69709e-05
3.43654e-05
3.5332e-05
2.99298e-05
5.09601e-05
1.33628e-05
2.70076e-06
2.7022e-06
8.70279e-05
0.000424011
6.73649e-06
9.9917e-07
7.67955e-07
6.18774e-07
6.50087e-07
0.000524064
0.000363438
3.20797e-08
3.01786e-08
4.05801e-08
3.33443e-05
9.35144e-05
3.98667e-05
3.43654e-05
3.28017e-05
3.92662e-05
2.77531e-05
7.70448e-10
1.63581e-09
2.77035e-06
2.71462e-06
3.84793e-05
0.000425677
1.83055e-05
2.69362e-06
1.17472e-06
1.40259e-06
4.67407e-05
0.000543139
9.73606e-08
3.0614e-08
2.70631e-08
3.28533e-08
3.16058e-05
9.35522e-05
9.29406e-05
6.5611e-05
2.53707e-05
2.38501e-06
1.46981e-10
1.78431e-10
5.69014e-09
3.39911e-06
5.25805e-06
6.98729e-06
0.000424523
2.5163e-05
5.72781e-06
2.00953e-06
3.32871e-06
0.000176439
0.000286666
8.29513e-07
2.7261e-08
2.63994e-08
2.40148e-08
8.41681e-06
9.05575e-05
8.97557e-05
8.09894e-05
4.96221e-06
1.35768e-10
1.3576e-10
1.47584e-10
3.39276e-10
1.46131e-06
5.33613e-06
3.49885e-06
0.000423318
1.75055e-05
6.23934e-06
4.39642e-06
5.85309e-06
0.000265215
1.46145e-08
3.74908e-08
4.08839e-08
2.63992e-08
2.62861e-08
1.95856e-08
9.20103e-06
5.40024e-05
3.52223e-06
1.35769e-10
1.35279e-10
1.61467e-10
1.83439e-10
1.94244e-10
3.76909e-10
3.41379e-06
3.36496e-06
4.7868e-05
7.28153e-06
6.65616e-06
6.92391e-06
8.30624e-06
0.000234265
1.41258e-08
1.94153e-08
8.24845e-08
2.64297e-08
1.55364e-08
1.02621e-09
9.6383e-10
6.44897e-10
2.04432e-10
1.41891e-10
1.45787e-10
3.33984e-10
3.69856e-10
5.46152e-10
8.69153e-10
4.36528e-09
2.38631e-06
3.13962e-06
1.4945e-05
1.22698e-05
1.02834e-05
9.39951e-06
0.000134285
1.39947e-08
6.50304e-08
8.25204e-08
3.15467e-08
2.98654e-07
8.52554e-07
1.04491e-09
3.83911e-09
8.25833e-09
1.22028e-09
1.03915e-10
4.17053e-10
4.08373e-10
6.03341e-10
3.82684e-09
6.9768e-08
5.95904e-05
0.0001977
0.000434441
3.15031e-05
8.84931e-06
8.59913e-06
2.30952e-05
3.76632e-09
6.77684e-08
8.20351e-08
5.61601e-08
1.34649e-06
1.42503e-06
2.23652e-08
9.93071e-09
2.40627e-08
5.3924e-09
2.11621e-11
3.59814e-10
4.17796e-10
9.38496e-10
1.04769e-08
1.6928e-07
0.00017593
0.000496468
0.000495728
7.17354e-05
8.5714e-06
8.40678e-06
8.56396e-06
1.18011e-16
1.94946e-09
1.73644e-08
7.00949e-08
1.42503e-06
1.42503e-06
5.17093e-08
9.0383e-09
2.41234e-08
7.09727e-09
1.33744e-11
2.23165e-10
3.11464e-10
1.18844e-09
1.87862e-08
2.93941e-07
0.000150526
0.000496458
0.000496474
0.000171375
8.40628e-06
8.34901e-06
8.39531e-06
2.95648e-16
1.68497e-15
2.76005e-13
6.35942e-09
7.35889e-07
1.42503e-06
2.70681e-08
1.66728e-09
1.94402e-08
1.73622e-09
8.75719e-12
1.46765e-10
2.06954e-10
8.21411e-10
9.61137e-09
1.74974e-07
3.10765e-05
0.000428302
0.000495702
0.000169948
8.36307e-06
8.36307e-06
8.35278e-06
6.4151e-16
3.52882e-13
7.74296e-13
3.31452e-12
2.58522e-08
1.11358e-06
4.88234e-16
1.18612e-10
6.32967e-13
7.83407e-13
7.51957e-12
8.78193e-11
1.94524e-10
4.0956e-10
4.15844e-09
5.68207e-08
2.59932e-06
9.53844e-05
0.000288158
8.70722e-05
1.06915e-05
8.40608e-06
1.04947e-05
1.08675e-15
2.04819e-13
1.41797e-12
9.43835e-13
2.01044e-13
3.69428e-18
5.56755e-17
4.88968e-16
2.08415e-15
4.43644e-13
4.2704e-12
2.18555e-11
1.54814e-10
2.31358e-10
5.11194e-10
5.51663e-09
7.80636e-07
2.58264e-06
5.369e-06
5.73759e-06
1.24099e-05
1.42338e-05
1.48965e-05
4.301e-16
5.56488e-14
6.49987e-13
1.74713e-13
-1.25939e-14
4.94133e-19
7.16998e-17
1.49063e-15
2.09007e-14
1.93929e-13
1.17431e-12
4.58985e-12
3.19363e-11
1.79884e-10
1.34297e-10
3.24307e-10
4.27112e-08
2.44928e-07
2.95297e-07
3.55993e-07
2.46282e-06
1.06914e-05
1.493e-05
5.0506e-17
9.3437e-15
2.16725e-13
2.97141e-13
2.84072e-21
1.39922e-19
4.71117e-18
9.17678e-17
1.26279e-15
1.28354e-14
1.00054e-13
6.02048e-13
2.40531e-12
9.51085e-12
9.54649e-11
9.12319e-11
3.21419e-10
8.64108e-09
3.13353e-08
7.514e-08
1.13744e-07
9.61807e-07
3.40832e-06
1.83209e-19
1.43808e-16
6.38412e-15
2.40746e-15
2.70238e-24
1.97524e-22
1.13258e-20
3.38104e-19
6.15406e-18
6.86563e-17
4.24589e-16
1.83661e-15
2.7348e-14
4.74049e-13
5.19539e-12
2.50718e-11
3.69724e-11
3.21139e-10
4.55136e-09
3.41295e-08
7.51964e-08
1.13847e-07
2.40622e-07
0.999938
0.999914
0.999913
0.999846
0.999922
0.999922
0.980604
0.817761
0.313698
0.16804
0.00839274
0.000189038
8.68e-06
1.83921e-05
3.34056e-05
8.33426e-06
7.85705e-06
1.88068e-05
5.11659e-06
5.60057e-06
5.25247e-06
5.26295e-06
5.18542e-06
5.12644e-06
5.26273e-06
5.26295e-06
5.21361e-06
5.17466e-06
5.27056e-06
5.17281e-06
5.17654e-06
5.1232e-06
8.44411e-06
5.64326e-06
5.2718e-06
5.17343e-06
1.74313e-05
1.06485e-05
5.21168e-06
5.13935e-06
1.7416e-05
1.27269e-05
5.464e-06
5.53969e-06
1.17874e-05
9.64531e-06
6.26676e-06
7.74476e-06
5.77207e-06
8.87641e-06
1.08407e-05
0.00028438
3.3526e-05
7.84955e-05
0.000193891
0.00131856
0.00109714
0.00185044
0.00184856
0.00183105
0.00189354
0.00184531
0.00186037
0.00185447
0.00184133
0.00186051
0.0018835
0.000657426
0.000820434
0.000647285
0.000611258
0.000611258
0.000526015
0.000985914
0.000990099
0.000990133
0.000805127
0.000710978
0.00099023
0.000990901
0.000349813
0.00100418
0.000996178
0.000991197
0.000288687
0.00075397
0.000269127
0.000153817
3.8288e-05
1.06374e-05
1.88988e-06
1.9494e-06
7.80819e-07
7.2762e-07
7.27172e-07
7.56889e-07
6.10711e-07
6.11149e-07
6.33162e-07
7.48891e-07
6.2431e-07
6.17585e-07
6.24554e-07
6.48556e-07
6.1161e-07
5.04443e-07
2.44882e-05
5.0763e-05
6.37467e-05
0.00032576
0.000314441
0.000130236
0.000470868
0.000445776
0.000270143
1.34641e-07
0.000478967
0.000471087
0.000303531
3.92015e-08
0.000489425
0.000479248
0.000488737
0.000254028
0.000480851
0.000479644
0.000491298
0.000498687
0.000482191
0.000481833
0.000482048
0.000492274
0.000427061
0.000480949
0.000485874
0.000483571
6.31432e-05
0.000301272
0.000489981
0.000486591
8.94675e-06
2.9715e-05
0.000103026
0.000213913
8.49956e-06
1.02819e-05
6.41406e-06
3.3794e-06
1.50752e-05
1.465e-05
4.75627e-06
2.28787e-06
1.50752e-05
1.51538e-05
1.50752e-05
4.80709e-06
1.50859e-05
1.52234e-05
1.11049e-05
1.81546e-06
5.56239e-06
4.30527e-06
1.14582e-06
1.86375e-07
4.60682e-07
2.50152e-07
1.86375e-07
1.80398e-07
0.907413
0.728048
0.808868
0.924043
0.932601
0.974768
0.998724
0.998743
0.998744
0.965661
0.93942
0.918765
0.922316
0.93492
0.966269
0.973417
0.976177
0.982595
0.982726
0.241066
0.0141491
0.0706103
0.16642
0.250267
0.428108
0.656361
0.754019
0.78981
0.831576
0.70402
0.602235
0.623256
0.676166
0.712155
0.721078
0.681337
0.624929
0.660052
0.000456589
0.000605257
0.00055233
0.000191205
0.000418455
0.00286254
0.0399115
0.0860399
0.134356
0.194211
0.176707
0.0552441
0.000223606
7.8419e-05
4.26309e-05
0.00247628
0.00115476
0.00011279
0.00261967
0.0005246
0.000545001
0.000603645
2.06866e-05
2.71912e-05
5.94929e-05
0.000135965
0.000373444
0.000513023
0.000337105
9.57629e-05
6.46759e-05
0.000411845
0.000191909
3.64624e-05
4.26309e-05
4.9968e-05
0.000102708
0.000114824
5.37678e-06
5.38372e-06
5.51359e-06
1.15839e-05
1.52367e-05
3.0621e-05
8.69122e-05
0.000413056
0.000544198
0.000315235
6.75326e-05
5.14419e-05
9.7518e-05
5.48186e-05
3.36545e-05
0.000174512
0.00086321
0.00112763
0.000150516
5.30652e-06
7.09808e-06
6.82301e-06
7.02616e-06
7.33033e-06
3.5775e-05
4.84357e-05
6.87748e-05
0.000458663
0.000437876
9.13525e-05
3.21724e-05
3.14059e-05
3.20217e-05
3.31322e-05
0.00109071
0.00129862
0.00129711
0.000522754
5.27971e-06
5.91831e-06
5.62492e-06
5.88358e-06
9.26189e-05
0.00029542
0.000288123
0.000285244
0.00013578
7.28821e-05
3.89822e-05
3.10388e-05
3.12809e-05
3.15732e-05
0.000280105
0.00131427
0.00130008
0.00114214
0.00112268
5.19839e-06
5.35733e-06
5.41471e-06
6.46266e-06
0.000298027
0.000304322
0.00025502
4.35779e-05
3.11456e-05
3.08766e-05
3.05945e-05
3.08407e-05
3.11577e-05
3.35948e-05
0.000818046
0.00131406
0.000591777
0.000294473
0.000603893
5.24974e-06
5.33448e-06
5.41864e-06
0.000424524
0.000508199
0.000162124
3.19443e-05
3.13844e-05
3.1258e-05
3.13633e-05
3.09104e-05
3.11515e-05
3.09187e-05
5.80213e-05
0.00115781
0.00132091
0.00103368
0.000251654
0.000253313
5.33164e-06
5.45134e-06
5.62054e-05
0.000747193
0.000520756
4.23343e-05
3.9126e-05
4.5249e-05
3.13777e-05
3.13742e-05
3.12844e-05
3.12633e-05
3.04868e-05
0.000199619
0.00132649
0.00132756
0.00117738
0.00025194
0.000252353
6.07603e-06
5.85836e-06
0.000381871
0.000758648
0.00051292
5.9601e-05
0.000245981
0.000354641
6.81089e-05
3.13078e-05
3.1358e-05
3.11358e-05
3.22489e-05
0.000463194
0.00132755
0.0013262
0.000658576
0.000252338
0.000252325
1.08337e-05
8.10757e-06
0.000545413
0.000763022
0.000531474
8.45611e-05
0.000361096
0.000360798
0.000358998
0.000146962
3.14501e-05
3.14511e-05
3.32078e-05
0.000331823
0.0013264
0.00118545
0.00025288
0.000252325
0.000252353
0.000373266
3.38272e-05
0.000687218
0.000762342
0.000457633
0.000130825
0.000360798
0.000361233
0.000311301
8.70448e-05
3.15194e-05
3.19764e-05
3.4873e-05
6.43105e-05
0.000395163
0.00102374
0.000667589
0.000263456
0.000266163
0.00162703
0.000205792
0.000803295
0.000553146
0.000157914
0.000159526
0.00036138
0.000333474
9.32362e-05
9.43169e-05
0.000146256
0.000266843
0.00026359
0.000147135
0.00015031
0.000167131
0.000313263
0.000428938
0.000428945
0.00175907
0.00041485
0.000773466
0.00035187
0.000158424
0.000158929
0.000360222
0.000147843
9.08402e-05
0.00015044
0.00041427
0.00041427
0.00041427
0.000414472
0.000385649
0.000178997
0.000185784
0.00022962
0.00042886
0.00141309
0.000432325
0.000956702
0.000860297
0.000175638
0.000322218
0.000344429
8.49336e-05
8.83405e-05
0.000229746
0.000201732
0.000100819
0.000115736
0.000415849
0.000419553
0.000419553
0.000193868
0.00016278
0.000255265
0.00067807
0.00092554
0.000986095
0.000991737
0.000318637
0.000310393
0.00020674
8.3063e-05
0.000226376
0.000248604
0.000128293
1.21848e-05
9.41832e-06
6.01648e-06
0.000339083
0.0004166
0.000293783
0.000159534
0.000159534
0.000783267
0.000986561
0.000986088
0.000986086
0.000271903
0.000131986
8.3063e-05
8.37923e-05
0.000243978
0.000248604
0.000244837
7.51821e-05
6.01648e-06
5.15292e-06
5.91329e-05
0.000410309
0.000405687
0.000166472
0.000400455
0.000989999
0.000988272
0.000986441
0.000989652
0.000100352
8.46083e-05
8.38356e-05
0.000132462
0.000121041
0.000173276
0.000238428
0.000139091
5.33316e-06
4.8841e-06
4.65871e-05
0.000413584
0.00030561
0.000264486
0.000877781
0.000990303
0.000990323
0.000988267
0.000620418
9.52466e-05
9.19668e-05
0.000227308
0.000233918
6.0421e-05
7.43442e-05
9.90511e-05
3.93458e-05
4.89405e-06
4.91984e-06
0.000353905
0.000413584
0.000208827
0.000252216
0.000877781
0.000990598
0.000809063
0.000473371
7.75001e-05
0.000134512
0.000166105
0.000166709
6.21629e-05
5.91583e-05
0.000201108
7.98963e-06
5.7969e-06
5.38346e-06
1.82751e-05
0.000413042
0.000411864
0.000207613
0.000254355
0.000597764
0.000132113
5.36394e-05
1.75441e-05
2.72908e-05
0.000128861
0.000122454
1.79359e-05
1.40745e-06
6.54618e-05
0.000201181
5.82848e-06
5.78318e-06
4.94605e-05
0.000402594
0.000413982
0.000309725
0.000207731
0.000274728
2.68478e-05
2.21526e-06
2.41886e-06
2.25432e-06
1.63531e-05
4.67262e-05
1.06221e-05
5.62504e-07
1.7905e-06
0.000125762
0.000198836
5.7919e-06
6.63186e-06
0.000188866
0.000411468
0.000413042
0.000327734
0.000232151
0.000146409
2.68349e-05
9.41602e-07
8.04757e-07
4.60016e-07
7.40235e-07
4.8269e-07
1.82261e-07
4.38966e-07
3.29531e-06
0.000142426
0.000196446
1.56624e-05
4.8164e-06
7.00262e-05
0.000312969
0.000431166
0.000453018
0.000185151
2.68694e-05
2.68349e-05
8.17601e-07
5.78978e-07
2.09493e-07
1.50602e-07
1.45533e-07
1.28917e-07
1.8344e-07
4.86775e-06
0.000152269
0.000201936
8.97021e-05
3.85006e-06
4.8164e-06
4.99885e-05
0.000366165
0.000457441
0.000361854
3.31351e-05
2.68694e-05
9.9859e-07
3.08647e-06
2.01195e-07
1.21716e-07
1.20167e-07
1.15573e-07
1.29074e-07
1.67203e-06
0.000118903
0.000208231
0.000135726
3.90856e-06
3.85865e-06
5.77239e-06
0.000272052
0.000456915
0.000457359
0.000204392
2.71916e-05
5.09115e-05
1.55261e-07
1.21716e-07
1.20274e-07
1.1499e-07
1.08311e-07
1.68217e-07
1.6406e-07
3.38538e-05
0.000208767
0.000236411
4.53122e-05
3.99338e-06
3.96893e-06
4.76837e-05
0.000312549
0.000449191
0.000119141
2.89637e-05
1.32712e-07
1.04113e-07
1.09043e-06
2.48683e-06
8.89449e-07
1.01739e-07
8.85998e-08
2.41954e-08
1.63188e-07
6.44797e-05
0.000240633
0.000266311
5.6567e-05
4.09714e-06
4.09714e-06
9.39059e-06
1.07377e-05
1.18897e-05
0.000184716
3.92507e-08
3.74688e-08
1.48283e-06
2.69845e-06
2.69845e-06
4.66525e-07
1.97864e-08
1.47318e-08
2.20817e-08
1.25071e-07
7.34755e-05
0.000264188
0.000266311
0.000211405
0.000153155
6.77846e-05
1.37114e-05
1.24002e-05
0.000385188
3.8217e-08
3.04124e-08
1.07557e-07
4.07475e-07
5.30038e-07
4.09019e-07
8.75391e-08
1.44154e-08
1.47319e-08
2.19928e-08
1.25479e-07
2.12645e-05
0.000199062
0.000395527
0.000519646
0.000706434
0.00021474
1.36086e-05
0.000413094
2.58395e-08
1.16201e-08
1.12418e-08
1.01419e-08
1.00665e-08
2.48432e-08
5.72376e-08
1.41225e-08
1.42485e-08
4.2617e-08
5.82522e-05
0.000330207
0.000330207
8.3268e-05
0.000197481
0.000730253
0.000469685
2.34419e-05
0.000430129
0.000356905
4.12604e-05
1.01411e-08
9.30594e-09
1.00504e-08
1.00913e-08
1.2753e-08
1.35531e-08
2.74107e-09
1.54151e-08
0.000122399
0.000330178
0.000330153
7.96969e-05
8.12963e-05
0.000728222
0.000549697
4.09256e-05
0.000592233
0.000481312
0.000212986
1.08754e-08
8.45239e-09
8.3615e-09
5.93369e-09
7.20478e-09
9.08157e-09
2.25044e-09
2.00297e-09
2.49177e-05
9.38188e-05
9.33116e-05
7.86061e-05
7.9448e-05
0.000714074
0.000394304
4.44808e-05
0.00075373
0.000469388
0.000107092
6.71003e-07
6.95212e-07
3.11033e-09
4.02172e-09
4.68353e-09
4.86668e-09
2.09125e-09
8.805e-10
2.06776e-09
2.1334e-09
7.45912e-09
5.36991e-05
0.000537132
0.000655004
8.90408e-05
3.88447e-05
0.000753702
0.00041004
2.94935e-05
7.28351e-06
3.6055e-06
3.73551e-09
1.6792e-09
1.75468e-09
1.72769e-09
8.79696e-10
1.80968e-10
4.12509e-10
1.81086e-09
2.13344e-09
7.29622e-05
0.000779131
0.000779131
5.9315e-05
3.87438e-05
0.000750959
8.78348e-05
5.9274e-06
7.23359e-06
4.19428e-06
3.93379e-08
4.6829e-10
6.09043e-10
6.26302e-10
2.76761e-10
1.65571e-10
1.68119e-10
1.75384e-09
2.18185e-09
0.00051356
0.000778799
0.00077915
0.000380348
0.000286014
0.000158008
2.61047e-06
4.27685e-06
3.70317e-06
1.36634e-06
5.20771e-10
1.77542e-10
3.94904e-10
2.76688e-10
9.41271e-11
9.5183e-11
4.43809e-10
1.51555e-09
3.66851e-05
0.000730803
0.000716056
0.000167364
0.000190105
9.99401e-05
3.76977e-13
2.10656e-06
3.61665e-06
2.18135e-06
1.10576e-07
1.40819e-10
1.04609e-10
1.89975e-10
6.57167e-11
5.27297e-11
6.71811e-11
1.39257e-05
1.60529e-08
0.000430846
0.00067227
6.883e-07
8.98375e-07
1.30975e-06
7.56012e-13
7.40713e-14
1.95745e-06
2.22406e-06
8.33112e-07
5.50614e-10
9.40052e-11
8.97886e-11
6.15855e-11
3.8172e-11
3.8529e-11
1.09258e-06
3.9084e-05
0.000177598
0.000575166
0.000384626
5.26269e-07
2.43582e-06
1.34993e-06
2.72638e-13
7.40785e-14
1.92061e-06
1.57907e-06
1.73942e-07
1.37467e-10
4.40743e-11
4.51535e-11
4.7373e-11
3.87973e-11
6.21523e-10
7.94698e-06
4.12995e-05
0.000412371
0.000575166
4.99013e-05
4.34818e-07
4.10152e-07
3.36234e-15
3.39198e-15
8.07798e-14
1.52494e-06
6.93655e-07
4.05391e-09
4.51063e-11
3.29409e-11
4.00483e-11
1.37869e-10
1.46189e-10
1.47357e-10
1.03355e-08
3.74173e-05
0.000287563
0.000297137
4.5879e-06
4.28274e-06
2.91254e-17
8.28853e-15
4.35156e-14
1.23215e-13
1.8141e-07
7.27339e-09
8.52197e-11
3.33347e-11
3.23132e-11
3.84917e-11
2.21977e-10
4.24042e-10
-3.20604e-13
-1.41382e-11
1.27208e-06
1.17405e-05
1.42815e-05
1.59494e-05
1.49725e-05
1.74165e-22
8.53338e-16
6.35845e-15
2.84793e-14
)
;

boundaryField
{
    leftWall
    {
        type            zeroGradient;
    }
    rightWall
    {
        type            zeroGradient;
    }
    lowerWall
    {
        type            zeroGradient;
    }
    atmosphere
    {
        type            inletOutlet;
        inletValue      uniform 0;
        value           nonuniform List<scalar> 
46
(
0
0
0
0
0
0
0
0
0
0
0
0
0
0
0
2.50718e-11
3.69724e-11
3.21139e-10
4.55136e-09
3.41295e-08
7.51964e-08
1.13847e-07
2.40622e-07
4.60682e-07
2.50152e-07
1.86375e-07
1.80398e-07
1.8141e-07
7.27339e-09
8.52197e-11
3.33347e-11
3.23132e-11
3.84917e-11
2.21977e-10
4.24042e-10
0
0
1.27208e-06
1.17405e-05
1.42815e-05
1.59494e-05
0
0
0
0
0
)
;
    }
    defaultFaces
    {
        type            empty;
    }
}


// ************************************************************************* //
