/*--------------------------------*- C++ -*----------------------------------*\
| =========                 |                                                 |
| \\      /  F ield         | OpenFOAM: The Open Source CFD Toolbox           |
|  \\    /   O peration     | Version:  2.3.0                                 |
|   \\  /    A nd           | Web:      www.OpenFOAM.org                      |
|    \\/     M anipulation  |                                                 |
\*---------------------------------------------------------------------------*/
FoamFile
{
    version     2.0;
    format      ascii;
    class       volScalarField;
    location    "0.075";
    object      T;
}
// * * * * * * * * * * * * * * * * * * * * * * * * * * * * * * * * * * * * * //

dimensions      [0 0 0 1 0 0 0];

internalField   nonuniform List<scalar> 
12225
(
2.90048e-10
2.88308e-10
2.8782e-10
2.87668e-10
2.87606e-10
2.8771e-10
2.88102e-10
2.89023e-10
2.90964e-10
2.94921e-10
3.02977e-10
3.19693e-10
3.55435e-10
4.3433e-10
6.13444e-10
1.0304e-09
2.03194e-09
4.5972e-09
2.85959e-10
2.86457e-10
2.86869e-10
2.87142e-10
2.87316e-10
2.87556e-10
2.88033e-10
2.89014e-10
2.91005e-10
2.95007e-10
3.03082e-10
3.19711e-10
3.54988e-10
4.3221e-10
6.05854e-10
1.00463e-09
1.93702e-09
4.14431e-09
2.87961e-10
2.87926e-10
2.87802e-10
2.87753e-10
2.8775e-10
2.87887e-10
2.8831e-10
2.89283e-10
2.91311e-10
2.95393e-10
3.03568e-10
3.2019e-10
3.54909e-10
4.296e-10
5.94205e-10
9.62087e-10
1.78357e-09
3.55426e-09
2.88073e-10
2.87888e-10
2.87729e-10
2.87717e-10
2.87778e-10
2.87978e-10
2.88473e-10
2.89544e-10
2.91725e-10
2.96038e-10
3.04517e-10
3.21379e-10
3.55711e-10
4.27504e-10
5.80735e-10
9.09752e-10
1.60332e-09
2.97042e-09
2.88253e-10
2.88145e-10
2.88026e-10
2.88021e-10
2.88098e-10
2.88328e-10
2.88885e-10
2.90081e-10
2.92496e-10
2.97202e-10
3.06257e-10
3.23753e-10
3.58145e-10
4.27241e-10
5.6828e-10
8.55849e-10
1.42442e-09
2.46007e-09
2.88542e-10
2.88496e-10
2.88412e-10
2.88411e-10
2.88508e-10
2.8879e-10
2.89453e-10
2.9086e-10
2.93661e-10
2.99026e-10
3.0909e-10
3.27874e-10
3.63216e-10
4.30665e-10
5.60706e-10
8.09819e-10
1.26998e-09
2.05236e-09
2.89025e-10
2.89011e-10
2.88958e-10
2.88971e-10
2.89101e-10
2.8946e-10
2.90287e-10
2.92019e-10
2.95427e-10
3.01845e-10
3.13583e-10
3.3471e-10
3.72577e-10
4.40689e-10
5.63484e-10
7.82523e-10
1.1593e-09
1.76128e-09
2.89608e-10
2.89607e-10
2.89579e-10
2.89615e-10
2.89788e-10
2.90247e-10
2.91287e-10
2.93445e-10
2.97655e-10
3.05488e-10
3.19538e-10
3.44097e-10
3.86372e-10
4.58578e-10
5.81147e-10
7.86256e-10
1.11819e-09
1.62314e-09
2.90259e-10
2.90265e-10
2.90259e-10
2.90321e-10
2.90548e-10
2.91127e-10
2.92423e-10
2.95099e-10
3.00294e-10
3.09878e-10
3.26834e-10
3.55847e-10
4.04263e-10
4.83606e-10
6.11675e-10
8.14461e-10
1.12551e-09
1.57879e-09
2.91148e-10
2.91159e-10
2.91176e-10
2.91275e-10
2.91582e-10
2.92342e-10
2.94031e-10
2.97505e-10
3.04227e-10
3.16553e-10
3.38122e-10
3.74377e-10
4.33287e-10
5.26349e-10
6.69777e-10
8.85293e-10
1.19909e-09
1.63714e-09
2.92361e-10
2.92378e-10
2.92419e-10
2.92572e-10
2.93002e-10
2.94046e-10
2.96356e-10
3.01105e-10
3.10283e-10
3.27057e-10
3.562e-10
4.04567e-10
4.81614e-10
5.99951e-10
7.75808e-10
1.02902e-09
1.38185e-09
1.85584e-09
2.94016e-10
2.94039e-10
2.94111e-10
2.94343e-10
2.9497e-10
2.96479e-10
2.99814e-10
3.06688e-10
3.19996e-10
3.44314e-10
3.86429e-10
4.55812e-10
5.64972e-10
7.29595e-10
9.68366e-10
1.30229e-09
1.75323e-09
2.34151e-09
2.9627e-10
2.96302e-10
2.96419e-10
2.96779e-10
2.97738e-10
3.00043e-10
3.05162e-10
3.15769e-10
3.36401e-10
3.74214e-10
4.39724e-10
5.47363e-10
7.15659e-10
9.66901e-10
1.32622e-09
1.82005e-09
2.47401e-09
3.31037e-09
2.99336e-10
2.99385e-10
2.99575e-10
3.00157e-10
3.01708e-10
3.05462e-10
3.13873e-10
3.31458e-10
3.65928e-10
4.29469e-10
5.39939e-10
7.21598e-10
1.00503e-09
1.42601e-09
2.02331e-09
2.83564e-09
3.89802e-09
5.23803e-09
3.03502e-10
3.03581e-10
3.03905e-10
3.04901e-10
3.07582e-10
3.14155e-10
3.29077e-10
3.60675e-10
4.23298e-10
5.39761e-10
7.43498e-10
1.07963e-09
1.60421e-09
2.38125e-09
3.47763e-09
4.95676e-09
6.87153e-09
9.2578e-09
3.09147e-10
3.09287e-10
3.09872e-10
3.11699e-10
3.16697e-10
3.29175e-10
3.58025e-10
4.20172e-10
5.4521e-10
7.80638e-10
1.19624e-09
1.88567e-09
2.96337e-09
4.55632e-09
6.79138e-09
9.78063e-09
1.36071e-08
1.83123e-08
3.16764e-10
3.1703e-10
3.18164e-10
3.21778e-10
3.31892e-10
3.57771e-10
4.19099e-10
5.54283e-10
8.31922e-10
1.3637e-09
2.31462e-09
3.90475e-09
6.39737e-09
1.00726e-08
1.51915e-08
2.19589e-08
3.04937e-08
4.08095e-08
3.26219e-10
3.26741e-10
3.29012e-10
3.36437e-10
3.57847e-10
4.14411e-10
5.52811e-10
8.67334e-10
1.53142e-09
2.8337e-09
5.20513e-09
9.21703e-09
1.55329e-08
2.48143e-08
3.7605e-08
5.4233e-08
7.47559e-08
9.89551e-08
3.36176e-10
3.37134e-10
3.41392e-10
3.55715e-10
3.98437e-10
5.15496e-10
8.12747e-10
1.51318e-09
3.04291e-09
6.13314e-09
1.18954e-08
2.17993e-08
3.74888e-08
6.0447e-08
9.16301e-08
1.31234e-07
1.78673e-07
2.32728e-07
3.45556e-10
3.4713e-10
3.54267e-10
3.78965e-10
4.55175e-10
6.71909e-10
1.24406e-09
2.646e-09
5.82575e-09
1.24752e-08
2.52383e-08
4.76265e-08
8.34093e-08
1.35517e-07
2.04971e-07
2.90513e-07
3.89051e-07
4.96503e-07
3.5403e-10
3.56379e-10
3.67229e-10
4.0581e-10
5.28855e-10
8.91924e-10
1.88909e-09
4.43526e-09
1.04551e-08
2.35548e-08
4.95993e-08
9.65156e-08
1.72485e-07
2.82542e-07
4.25603e-07
5.94649e-07
7.79503e-07
9.69881e-07
3.61387e-10
3.64613e-10
3.79763e-10
4.35005e-10
6.16688e-10
1.17197e-09
2.75751e-09
6.97996e-09
1.74148e-08
4.11616e-08
9.04095e-08
1.82249e-07
3.33896e-07
5.52563e-07
8.2715e-07
1.13345e-06
1.44554e-06
1.74363e-06
3.6753e-10
3.7166e-10
3.91327e-10
4.64647e-10
7.12521e-10
1.49483e-09
3.81205e-09
1.02426e-08
2.6874e-08
6.6613e-08
1.532e-07
3.22041e-07
6.09206e-07
1.02242e-06
1.51596e-06
2.02264e-06
2.4905e-06
2.89404e-06
3.72469e-10
3.77454e-10
4.01464e-10
4.92688e-10
8.08443e-10
1.83332e-09
4.97073e-09
1.40193e-08
3.84904e-08
1.00014e-07
2.41761e-07
5.34122e-07
1.054e-06
1.8063e-06
2.63746e-06
3.39068e-06
3.99347e-06
4.44251e-06
3.76288e-10
3.82006e-10
4.09857e-10
5.17385e-10
8.96816e-10
2.15741e-09
6.1264e-09
1.797e-08
5.1355e-08
1.3962e-07
3.55554e-07
8.32199e-07
1.73683e-06
3.0784e-06
4.37752e-06
5.34255e-06
5.95705e-06
6.31193e-06
3.79177e-10
3.85459e-10
4.16462e-10
5.37749e-10
9.72223e-10
2.44248e-09
7.17755e-09
2.17117e-08
6.41772e-08
1.81771e-07
4.87324e-07
1.21593e-06
2.72999e-06
5.12554e-06
6.94421e-06
7.88785e-06
8.24805e-06
8.3081e-06
3.8122e-10
3.87842e-10
4.21185e-10
5.53145e-10
1.03129e-09
2.6719e-09
8.04706e-09
2.49093e-08
7.56045e-08
2.21549e-07
6.22188e-07
1.65739e-06
4.0752e-06
8.46908e-06
1.04808e-05
1.08272e-05
1.05672e-05
1.01552e-05
3.8269e-10
3.89889e-10
4.2507e-10
5.64862e-10
1.07542e-09
2.84429e-09
8.7092e-09
2.73901e-08
8.47052e-08
2.54488e-07
7.41077e-07
2.09163e-06
5.69443e-06
1.41433e-05
1.48064e-05
1.36536e-05
1.25167e-05
1.15978e-05
3.80401e-10
3.88413e-10
4.25296e-10
5.70246e-10
1.10133e-09
2.95315e-09
9.14206e-09
2.90497e-08
9.09147e-08
2.77441e-07
8.26275e-07
2.42061e-06
7.17559e-06
2.42268e-05
1.87597e-05
1.56252e-05
1.37829e-05
1.25037e-05
3.86589e-10
3.91894e-10
4.28121e-10
5.75276e-10
1.11777e-09
3.01639e-09
9.38621e-09
2.99711e-08
9.43197e-08
2.89842e-07
8.70627e-07
2.56528e-06
7.37427e-06
1.92083e-05
1.8948e-05
1.63968e-05
1.4349e-05
1.2899e-05
1.18797e-07
1.18953e-07
1.19261e-07
1.1973e-07
1.20367e-07
1.21173e-07
1.22153e-07
1.2331e-07
1.24647e-07
1.26168e-07
1.27877e-07
1.29777e-07
1.31869e-07
1.34157e-07
1.36642e-07
1.39327e-07
1.42213e-07
1.45302e-07
1.48595e-07
1.52092e-07
1.55794e-07
1.59701e-07
1.63813e-07
1.6813e-07
1.7265e-07
1.77373e-07
1.82297e-07
1.87421e-07
1.92743e-07
1.98259e-07
2.03968e-07
2.09867e-07
2.15952e-07
2.2222e-07
2.28666e-07
2.35288e-07
2.4208e-07
2.49038e-07
2.56157e-07
2.63432e-07
2.70857e-07
2.78427e-07
2.86136e-07
2.93979e-07
3.01948e-07
3.10038e-07
3.18242e-07
3.26554e-07
3.34968e-07
3.43476e-07
3.52072e-07
3.6075e-07
3.69502e-07
3.78322e-07
3.87203e-07
3.96139e-07
4.05124e-07
4.14151e-07
4.23214e-07
4.32307e-07
4.41424e-07
4.50561e-07
4.59711e-07
4.6887e-07
4.78032e-07
4.87194e-07
4.96351e-07
5.05499e-07
5.14634e-07
5.23753e-07
5.32854e-07
5.41932e-07
5.50985e-07
5.60012e-07
5.6901e-07
5.77977e-07
5.86911e-07
5.95812e-07
6.04678e-07
6.13508e-07
6.22302e-07
6.31059e-07
6.39779e-07
6.48461e-07
6.57106e-07
6.65715e-07
6.74287e-07
6.82822e-07
6.91322e-07
6.99788e-07
7.08219e-07
7.16619e-07
7.24986e-07
7.33323e-07
7.41631e-07
7.49911e-07
7.58163e-07
7.66391e-07
7.74593e-07
7.82773e-07
7.9093e-07
7.99066e-07
8.07182e-07
8.15278e-07
8.23355e-07
8.31415e-07
8.39456e-07
8.47481e-07
8.55488e-07
8.63478e-07
8.71453e-07
8.7941e-07
8.8735e-07
8.95273e-07
9.03178e-07
9.11066e-07
9.18935e-07
9.26786e-07
9.34616e-07
9.42427e-07
9.50216e-07
9.57983e-07
9.65727e-07
9.73447e-07
9.81142e-07
9.8881e-07
9.96452e-07
1.00406e-06
1.01165e-06
1.0192e-06
1.02672e-06
1.0342e-06
1.04165e-06
1.04906e-06
1.05643e-06
1.06376e-06
1.07105e-06
1.07829e-06
1.08549e-06
1.09264e-06
1.09974e-06
1.10679e-06
1.11379e-06
1.12073e-06
1.12762e-06
1.13445e-06
1.14122e-06
1.14792e-06
1.15456e-06
1.16114e-06
1.16765e-06
1.17409e-06
1.18046e-06
1.18676e-06
1.19298e-06
1.19913e-06
1.2052e-06
1.2112e-06
1.21711e-06
1.22295e-06
1.2287e-06
1.23436e-06
1.23996e-06
1.24542e-06
1.25079e-06
1.25608e-06
1.26123e-06
1.26629e-06
1.27127e-06
1.27616e-06
1.28096e-06
1.28567e-06
1.29028e-06
1.2948e-06
1.29923e-06
1.30354e-06
1.30779e-06
1.31182e-06
1.31623e-06
1.31799e-06
1.18476e-07
1.1863e-07
1.18945e-07
1.19421e-07
1.20064e-07
1.20876e-07
1.21861e-07
1.23023e-07
1.24363e-07
1.25887e-07
1.27595e-07
1.29493e-07
1.31582e-07
1.33866e-07
1.36346e-07
1.39024e-07
1.41902e-07
1.44981e-07
1.48263e-07
1.51748e-07
1.55437e-07
1.5933e-07
1.63427e-07
1.67727e-07
1.7223e-07
1.76934e-07
1.81839e-07
1.86943e-07
1.92243e-07
1.97737e-07
2.03424e-07
2.09299e-07
2.1536e-07
2.21603e-07
2.28025e-07
2.34621e-07
2.41387e-07
2.48319e-07
2.55412e-07
2.6266e-07
2.70059e-07
2.77603e-07
2.85286e-07
2.93102e-07
3.01045e-07
3.09109e-07
3.17288e-07
3.25576e-07
3.33965e-07
3.42449e-07
3.51021e-07
3.59675e-07
3.68405e-07
3.77202e-07
3.86062e-07
3.94977e-07
4.03941e-07
4.12948e-07
4.21992e-07
4.31067e-07
4.40167e-07
4.49286e-07
4.5842e-07
4.67564e-07
4.76712e-07
4.8586e-07
4.95004e-07
5.04139e-07
5.13264e-07
5.22372e-07
5.31463e-07
5.40533e-07
5.49578e-07
5.58598e-07
5.67589e-07
5.76551e-07
5.8548e-07
5.94377e-07
6.0324e-07
6.12068e-07
6.2086e-07
6.29616e-07
6.38335e-07
6.47018e-07
6.55664e-07
6.64273e-07
6.72847e-07
6.81385e-07
6.89888e-07
6.98357e-07
7.06793e-07
7.15197e-07
7.2357e-07
7.31913e-07
7.40226e-07
7.48513e-07
7.56773e-07
7.65008e-07
7.73219e-07
7.81407e-07
7.89574e-07
7.97721e-07
8.05848e-07
8.13957e-07
8.22047e-07
8.3012e-07
8.38176e-07
8.46216e-07
8.54238e-07
8.62245e-07
8.70236e-07
8.78211e-07
8.86169e-07
8.9411e-07
9.02034e-07
9.09941e-07
9.1783e-07
9.25701e-07
9.33552e-07
9.41383e-07
9.49193e-07
9.56982e-07
9.64747e-07
9.72489e-07
9.80206e-07
9.87897e-07
9.9556e-07
1.00319e-06
1.0108e-06
1.01837e-06
1.02591e-06
1.03342e-06
1.04089e-06
1.04832e-06
1.05571e-06
1.06306e-06
1.07037e-06
1.07763e-06
1.08485e-06
1.09202e-06
1.09914e-06
1.10621e-06
1.11322e-06
1.12018e-06
1.12708e-06
1.13393e-06
1.14071e-06
1.14743e-06
1.15408e-06
1.16067e-06
1.16719e-06
1.17364e-06
1.18002e-06
1.18632e-06
1.19255e-06
1.1987e-06
1.20478e-06
1.21077e-06
1.21669e-06
1.22252e-06
1.22826e-06
1.23392e-06
1.23951e-06
1.24498e-06
1.25037e-06
1.2557e-06
1.26092e-06
1.26604e-06
1.27107e-06
1.27601e-06
1.28086e-06
1.28561e-06
1.29026e-06
1.29482e-06
1.29929e-06
1.30365e-06
1.30795e-06
1.31205e-06
1.31639e-06
1.31904e-06
1.17836e-07
1.17984e-07
1.18297e-07
1.18775e-07
1.19418e-07
1.20231e-07
1.21215e-07
1.22373e-07
1.2371e-07
1.25228e-07
1.26931e-07
1.2882e-07
1.30899e-07
1.3317e-07
1.35635e-07
1.38296e-07
1.41155e-07
1.44213e-07
1.47471e-07
1.50931e-07
1.54592e-07
1.58454e-07
1.62519e-07
1.66785e-07
1.71251e-07
1.75917e-07
1.80782e-07
1.85844e-07
1.91101e-07
1.9655e-07
2.0219e-07
2.08018e-07
2.1403e-07
2.20223e-07
2.26594e-07
2.33139e-07
2.39853e-07
2.46732e-07
2.53772e-07
2.60967e-07
2.68313e-07
2.75803e-07
2.83433e-07
2.91196e-07
2.99087e-07
3.07099e-07
3.15226e-07
3.23463e-07
3.31801e-07
3.40236e-07
3.4876e-07
3.57367e-07
3.66049e-07
3.74802e-07
3.83618e-07
3.9249e-07
4.01413e-07
4.1038e-07
4.19386e-07
4.28424e-07
4.37488e-07
4.46574e-07
4.55676e-07
4.6479e-07
4.73909e-07
4.83031e-07
4.9215e-07
5.01264e-07
5.10367e-07
5.19457e-07
5.2853e-07
5.37585e-07
5.46617e-07
5.55625e-07
5.64607e-07
5.73561e-07
5.82485e-07
5.91379e-07
6.0024e-07
6.09067e-07
6.17861e-07
6.26621e-07
6.35346e-07
6.44036e-07
6.52691e-07
6.61311e-07
6.69897e-07
6.7845e-07
6.86969e-07
6.95456e-07
7.03911e-07
7.12336e-07
7.20732e-07
7.29099e-07
7.37439e-07
7.45754e-07
7.54044e-07
7.62311e-07
7.70555e-07
7.78779e-07
7.86984e-07
7.9517e-07
8.03338e-07
8.1149e-07
8.19626e-07
8.27745e-07
8.3585e-07
8.4394e-07
8.52016e-07
8.60077e-07
8.68123e-07
8.76155e-07
8.84172e-07
8.92174e-07
9.0016e-07
9.08131e-07
9.16084e-07
9.24021e-07
9.31939e-07
9.39838e-07
9.47717e-07
9.55575e-07
9.63412e-07
9.71225e-07
9.79014e-07
9.86777e-07
9.94513e-07
1.00222e-06
1.0099e-06
1.01755e-06
1.02516e-06
1.03274e-06
1.04028e-06
1.04779e-06
1.05525e-06
1.06268e-06
1.07006e-06
1.07739e-06
1.08468e-06
1.09192e-06
1.09911e-06
1.10624e-06
1.11332e-06
1.12034e-06
1.12731e-06
1.13421e-06
1.14106e-06
1.14783e-06
1.15455e-06
1.16119e-06
1.16776e-06
1.17426e-06
1.18069e-06
1.18705e-06
1.19332e-06
1.19952e-06
1.20564e-06
1.21167e-06
1.21762e-06
1.22349e-06
1.22927e-06
1.23497e-06
1.24058e-06
1.24609e-06
1.25153e-06
1.25688e-06
1.26214e-06
1.26731e-06
1.27238e-06
1.27735e-06
1.28223e-06
1.28701e-06
1.2917e-06
1.29629e-06
1.30078e-06
1.30516e-06
1.30947e-06
1.3136e-06
1.31787e-06
1.32103e-06
1.16863e-07
1.17006e-07
1.17318e-07
1.17795e-07
1.18437e-07
1.19246e-07
1.20226e-07
1.21378e-07
1.22707e-07
1.24216e-07
1.25906e-07
1.2778e-07
1.29841e-07
1.32092e-07
1.34534e-07
1.37168e-07
1.39998e-07
1.43023e-07
1.46245e-07
1.49666e-07
1.53285e-07
1.57102e-07
1.61118e-07
1.65333e-07
1.69746e-07
1.74356e-07
1.79162e-07
1.84162e-07
1.89355e-07
1.94739e-07
2.00312e-07
2.0607e-07
2.12011e-07
2.18132e-07
2.2443e-07
2.309e-07
2.37539e-07
2.44342e-07
2.51305e-07
2.58423e-07
2.65691e-07
2.73104e-07
2.80656e-07
2.88343e-07
2.96157e-07
3.04094e-07
3.12146e-07
3.20309e-07
3.28574e-07
3.36937e-07
3.45391e-07
3.53929e-07
3.62545e-07
3.71232e-07
3.79983e-07
3.88794e-07
3.97657e-07
4.06567e-07
4.15517e-07
4.24501e-07
4.33515e-07
4.42553e-07
4.51609e-07
4.60679e-07
4.69758e-07
4.78842e-07
4.87926e-07
4.97007e-07
5.0608e-07
5.15143e-07
5.24193e-07
5.33226e-07
5.4224e-07
5.51233e-07
5.60202e-07
5.69146e-07
5.78063e-07
5.86952e-07
5.95812e-07
6.04641e-07
6.13439e-07
6.22206e-07
6.3094e-07
6.39643e-07
6.48313e-07
6.56951e-07
6.65558e-07
6.74133e-07
6.82678e-07
6.91194e-07
6.9968e-07
7.08139e-07
7.16571e-07
7.24977e-07
7.33359e-07
7.41718e-07
7.50056e-07
7.58373e-07
7.66671e-07
7.74952e-07
7.83215e-07
7.91464e-07
7.99697e-07
8.07917e-07
8.16124e-07
8.24318e-07
8.32499e-07
8.40669e-07
8.48826e-07
8.56972e-07
8.65106e-07
8.73228e-07
8.81337e-07
8.89433e-07
8.97516e-07
9.05586e-07
9.1364e-07
9.21679e-07
9.29702e-07
9.37707e-07
9.45694e-07
9.53662e-07
9.61608e-07
9.69533e-07
9.77435e-07
9.85312e-07
9.93162e-07
1.00098e-06
1.00878e-06
1.01654e-06
1.02427e-06
1.03196e-06
1.03962e-06
1.04724e-06
1.05482e-06
1.06236e-06
1.06985e-06
1.0773e-06
1.0847e-06
1.09205e-06
1.09934e-06
1.10658e-06
1.11377e-06
1.1209e-06
1.12796e-06
1.13497e-06
1.1419e-06
1.14878e-06
1.15558e-06
1.16231e-06
1.16897e-06
1.17556e-06
1.18207e-06
1.1885e-06
1.19486e-06
1.20113e-06
1.20732e-06
1.21342e-06
1.21944e-06
1.22538e-06
1.23122e-06
1.23697e-06
1.24264e-06
1.24821e-06
1.2537e-06
1.2591e-06
1.2644e-06
1.2696e-06
1.27471e-06
1.27973e-06
1.28464e-06
1.28946e-06
1.29418e-06
1.29879e-06
1.30331e-06
1.30771e-06
1.31203e-06
1.31617e-06
1.32041e-06
1.32384e-06
1.15546e-07
1.15688e-07
1.15998e-07
1.16473e-07
1.17111e-07
1.17915e-07
1.18887e-07
1.2003e-07
1.21347e-07
1.22839e-07
1.24511e-07
1.26364e-07
1.284e-07
1.30622e-07
1.33031e-07
1.3563e-07
1.38419e-07
1.41401e-07
1.44576e-07
1.47944e-07
1.51508e-07
1.55267e-07
1.5922e-07
1.63369e-07
1.67713e-07
1.7225e-07
1.7698e-07
1.81902e-07
1.87013e-07
1.92313e-07
1.978e-07
2.03469e-07
2.0932e-07
2.15349e-07
2.21553e-07
2.27928e-07
2.3447e-07
2.41177e-07
2.48042e-07
2.55062e-07
2.62232e-07
2.69546e-07
2.77001e-07
2.8459e-07
2.92307e-07
3.00147e-07
3.08104e-07
3.16173e-07
3.24346e-07
3.32617e-07
3.40982e-07
3.49432e-07
3.57962e-07
3.66566e-07
3.75237e-07
3.83969e-07
3.92756e-07
4.01593e-07
4.10472e-07
4.1939e-07
4.2834e-07
4.37316e-07
4.46315e-07
4.55331e-07
4.64359e-07
4.73395e-07
4.82435e-07
4.91475e-07
5.00512e-07
5.09542e-07
5.18562e-07
5.2757e-07
5.36562e-07
5.45536e-07
5.54491e-07
5.63424e-07
5.72334e-07
5.8122e-07
5.9008e-07
5.98913e-07
6.07718e-07
6.16496e-07
6.25245e-07
6.33966e-07
6.42658e-07
6.51322e-07
6.59957e-07
6.68565e-07
6.77145e-07
6.857e-07
6.94229e-07
7.02734e-07
7.11215e-07
7.19675e-07
7.28114e-07
7.36534e-07
7.44936e-07
7.53321e-07
7.6169e-07
7.70046e-07
7.7839e-07
7.86721e-07
7.95042e-07
8.03353e-07
8.11654e-07
8.19946e-07
8.2823e-07
8.36505e-07
8.44771e-07
8.53029e-07
8.61279e-07
8.6952e-07
8.77751e-07
8.85972e-07
8.94183e-07
9.02382e-07
9.1057e-07
9.18744e-07
9.26905e-07
9.3505e-07
9.43179e-07
9.5129e-07
9.59382e-07
9.67453e-07
9.75503e-07
9.83529e-07
9.91529e-07
9.99502e-07
1.00745e-06
1.01536e-06
1.02324e-06
1.03109e-06
1.0389e-06
1.04667e-06
1.0544e-06
1.06208e-06
1.06972e-06
1.07732e-06
1.08486e-06
1.09235e-06
1.09979e-06
1.10717e-06
1.11449e-06
1.12175e-06
1.12895e-06
1.13608e-06
1.14315e-06
1.15014e-06
1.15707e-06
1.16392e-06
1.17069e-06
1.17739e-06
1.18401e-06
1.19055e-06
1.197e-06
1.20337e-06
1.20965e-06
1.21585e-06
1.22195e-06
1.22797e-06
1.23389e-06
1.23972e-06
1.24546e-06
1.2511e-06
1.25665e-06
1.26211e-06
1.26747e-06
1.27273e-06
1.27789e-06
1.28295e-06
1.28792e-06
1.29277e-06
1.29753e-06
1.30218e-06
1.30673e-06
1.31116e-06
1.3155e-06
1.31966e-06
1.3239e-06
1.32747e-06
1.13882e-07
1.14023e-07
1.14331e-07
1.14803e-07
1.15435e-07
1.16231e-07
1.17192e-07
1.1832e-07
1.19619e-07
1.21091e-07
1.22738e-07
1.24563e-07
1.26567e-07
1.28752e-07
1.3112e-07
1.33674e-07
1.36414e-07
1.39341e-07
1.42458e-07
1.45764e-07
1.4926e-07
1.52948e-07
1.56826e-07
1.60895e-07
1.65155e-07
1.69605e-07
1.74245e-07
1.79072e-07
1.84087e-07
1.89286e-07
1.94669e-07
2.00234e-07
2.05977e-07
2.11896e-07
2.17988e-07
2.2425e-07
2.30678e-07
2.37269e-07
2.44018e-07
2.50921e-07
2.57974e-07
2.65172e-07
2.72509e-07
2.79981e-07
2.87583e-07
2.95309e-07
3.03153e-07
3.11109e-07
3.19172e-07
3.27335e-07
3.35593e-07
3.43939e-07
3.52367e-07
3.60872e-07
3.69446e-07
3.78085e-07
3.86783e-07
3.95532e-07
4.04329e-07
4.13167e-07
4.22041e-07
4.30945e-07
4.39876e-07
4.48827e-07
4.57796e-07
4.66776e-07
4.75765e-07
4.84758e-07
4.93752e-07
5.02744e-07
5.11731e-07
5.20709e-07
5.29676e-07
5.38631e-07
5.4757e-07
5.56493e-07
5.65396e-07
5.7428e-07
5.83143e-07
5.91983e-07
6.008e-07
6.09594e-07
6.18364e-07
6.27109e-07
6.3583e-07
6.44528e-07
6.53201e-07
6.6185e-07
6.70477e-07
6.79083e-07
6.87666e-07
6.9623e-07
7.04775e-07
7.13303e-07
7.21814e-07
7.3031e-07
7.38793e-07
7.47263e-07
7.55723e-07
7.64174e-07
7.72617e-07
7.81052e-07
7.89482e-07
7.97906e-07
8.06325e-07
8.1474e-07
8.2315e-07
8.31556e-07
8.39957e-07
8.48355e-07
8.56747e-07
8.65135e-07
8.73516e-07
8.81891e-07
8.90259e-07
8.98619e-07
9.0697e-07
9.15311e-07
9.23641e-07
9.31958e-07
9.4026e-07
9.48548e-07
9.56817e-07
9.65069e-07
9.73299e-07
9.81507e-07
9.89691e-07
9.97848e-07
1.00598e-06
1.01407e-06
1.02214e-06
1.03017e-06
1.03816e-06
1.04612e-06
1.05403e-06
1.0619e-06
1.06972e-06
1.07749e-06
1.08521e-06
1.09287e-06
1.10048e-06
1.10803e-06
1.11552e-06
1.12294e-06
1.1303e-06
1.13759e-06
1.14481e-06
1.15195e-06
1.15903e-06
1.16602e-06
1.17293e-06
1.17976e-06
1.18651e-06
1.19317e-06
1.19975e-06
1.20624e-06
1.21263e-06
1.21893e-06
1.22514e-06
1.23126e-06
1.23728e-06
1.2432e-06
1.24903e-06
1.25475e-06
1.26038e-06
1.26591e-06
1.27134e-06
1.27666e-06
1.28189e-06
1.28701e-06
1.29202e-06
1.29693e-06
1.30174e-06
1.30643e-06
1.31102e-06
1.31548e-06
1.31985e-06
1.32404e-06
1.3283e-06
1.33194e-06
1.11862e-07
1.12004e-07
1.1231e-07
1.12776e-07
1.13401e-07
1.14185e-07
1.15131e-07
1.16242e-07
1.17519e-07
1.18964e-07
1.20581e-07
1.22371e-07
1.24335e-07
1.26477e-07
1.28796e-07
1.31296e-07
1.33978e-07
1.36842e-07
1.39891e-07
1.43124e-07
1.46543e-07
1.50147e-07
1.53939e-07
1.57917e-07
1.62081e-07
1.66431e-07
1.70966e-07
1.75686e-07
1.80589e-07
1.85675e-07
1.9094e-07
1.96384e-07
2.02004e-07
2.07798e-07
2.13763e-07
2.19896e-07
2.26193e-07
2.32653e-07
2.39269e-07
2.46039e-07
2.52959e-07
2.60023e-07
2.67227e-07
2.74567e-07
2.82037e-07
2.89632e-07
2.97346e-07
3.05175e-07
3.13112e-07
3.21151e-07
3.29287e-07
3.37515e-07
3.45827e-07
3.54219e-07
3.62684e-07
3.71217e-07
3.79812e-07
3.88463e-07
3.97165e-07
4.05912e-07
4.147e-07
4.23523e-07
4.32376e-07
4.41256e-07
4.50157e-07
4.59075e-07
4.68006e-07
4.76947e-07
4.85894e-07
4.94844e-07
5.03794e-07
5.12741e-07
5.21683e-07
5.30617e-07
5.39541e-07
5.48453e-07
5.57353e-07
5.66237e-07
5.75106e-07
5.83958e-07
5.92792e-07
6.01608e-07
6.10405e-07
6.19183e-07
6.27942e-07
6.36682e-07
6.45402e-07
6.54105e-07
6.6279e-07
6.71457e-07
6.80109e-07
6.88746e-07
6.97368e-07
7.05979e-07
7.14578e-07
7.23167e-07
7.31748e-07
7.40323e-07
7.48892e-07
7.57457e-07
7.6602e-07
7.74581e-07
7.83141e-07
7.91701e-07
8.00261e-07
8.08822e-07
8.17383e-07
8.25945e-07
8.34508e-07
8.4307e-07
8.51632e-07
8.60194e-07
8.68754e-07
8.77311e-07
8.85865e-07
8.94414e-07
9.02958e-07
9.11496e-07
9.20024e-07
9.28543e-07
9.3705e-07
9.45544e-07
9.54023e-07
9.62484e-07
9.70927e-07
9.79349e-07
9.87747e-07
9.96119e-07
1.00446e-06
1.01278e-06
1.02106e-06
1.0293e-06
1.03751e-06
1.04568e-06
1.0538e-06
1.06188e-06
1.06991e-06
1.07789e-06
1.08581e-06
1.09368e-06
1.10149e-06
1.10924e-06
1.11692e-06
1.12453e-06
1.13207e-06
1.13955e-06
1.14694e-06
1.15426e-06
1.1615e-06
1.16866e-06
1.17573e-06
1.18272e-06
1.18962e-06
1.19642e-06
1.20314e-06
1.20976e-06
1.21629e-06
1.22271e-06
1.22904e-06
1.23527e-06
1.2414e-06
1.24743e-06
1.25335e-06
1.25917e-06
1.26489e-06
1.2705e-06
1.27601e-06
1.28141e-06
1.28671e-06
1.29189e-06
1.29697e-06
1.30194e-06
1.3068e-06
1.31154e-06
1.31618e-06
1.32068e-06
1.32509e-06
1.3293e-06
1.3336e-06
1.33727e-06
1.09479e-07
1.09623e-07
1.09926e-07
1.10386e-07
1.11e-07
1.1177e-07
1.12698e-07
1.13787e-07
1.15037e-07
1.16452e-07
1.18033e-07
1.19782e-07
1.21701e-07
1.23792e-07
1.26056e-07
1.28495e-07
1.31111e-07
1.33904e-07
1.36875e-07
1.40027e-07
1.43358e-07
1.46871e-07
1.50565e-07
1.54441e-07
1.58499e-07
1.62738e-07
1.67158e-07
1.71759e-07
1.76539e-07
1.81497e-07
1.86632e-07
1.91943e-07
1.97427e-07
2.03083e-07
2.08907e-07
2.14897e-07
2.21051e-07
2.27364e-07
2.33834e-07
2.40457e-07
2.47229e-07
2.54146e-07
2.61203e-07
2.68397e-07
2.75721e-07
2.83171e-07
2.90742e-07
2.98429e-07
3.06227e-07
3.1413e-07
3.22132e-07
3.30228e-07
3.38412e-07
3.46679e-07
3.55023e-07
3.63439e-07
3.71921e-07
3.80463e-07
3.89061e-07
3.97709e-07
4.06402e-07
4.15136e-07
4.23906e-07
4.32706e-07
4.41534e-07
4.50384e-07
4.59254e-07
4.68139e-07
4.77036e-07
4.85942e-07
4.94854e-07
5.03769e-07
5.12685e-07
5.21599e-07
5.3051e-07
5.39415e-07
5.48313e-07
5.57203e-07
5.66083e-07
5.74952e-07
5.8381e-07
5.92655e-07
6.01487e-07
6.10307e-07
6.19113e-07
6.27905e-07
6.36685e-07
6.45452e-07
6.54207e-07
6.62951e-07
6.71685e-07
6.80409e-07
6.89125e-07
6.97834e-07
7.06538e-07
7.15238e-07
7.23936e-07
7.32633e-07
7.41331e-07
7.50032e-07
7.58735e-07
7.67443e-07
7.76156e-07
7.84874e-07
7.93599e-07
8.0233e-07
8.11066e-07
8.19809e-07
8.28557e-07
8.37311e-07
8.46069e-07
8.54831e-07
8.63596e-07
8.72362e-07
8.8113e-07
8.89897e-07
8.98662e-07
9.07423e-07
9.1618e-07
9.24929e-07
9.33669e-07
9.42399e-07
9.51115e-07
9.59817e-07
9.68501e-07
9.77165e-07
9.85806e-07
9.94423e-07
1.00301e-06
1.01157e-06
1.0201e-06
1.02859e-06
1.03704e-06
1.04544e-06
1.05381e-06
1.06213e-06
1.07039e-06
1.0786e-06
1.08676e-06
1.09485e-06
1.10289e-06
1.11085e-06
1.11875e-06
1.12658e-06
1.13433e-06
1.14201e-06
1.1496e-06
1.15712e-06
1.16455e-06
1.17189e-06
1.17914e-06
1.1863e-06
1.19336e-06
1.20033e-06
1.2072e-06
1.21398e-06
1.22065e-06
1.22721e-06
1.23368e-06
1.24003e-06
1.24628e-06
1.25243e-06
1.25846e-06
1.26438e-06
1.2702e-06
1.27591e-06
1.2815e-06
1.28699e-06
1.29236e-06
1.29762e-06
1.30277e-06
1.3078e-06
1.31272e-06
1.31752e-06
1.3222e-06
1.32676e-06
1.3312e-06
1.33546e-06
1.33978e-06
1.34348e-06
1.06725e-07
1.0687e-07
1.0717e-07
1.07622e-07
1.08224e-07
1.08978e-07
1.09885e-07
1.10947e-07
1.12168e-07
1.13547e-07
1.15088e-07
1.16792e-07
1.1866e-07
1.20695e-07
1.22897e-07
1.25269e-07
1.27811e-07
1.30526e-07
1.33413e-07
1.36475e-07
1.39712e-07
1.43124e-07
1.46713e-07
1.50478e-07
1.5442e-07
1.58538e-07
1.62834e-07
1.67305e-07
1.71952e-07
1.76773e-07
1.81768e-07
1.86934e-07
1.92272e-07
1.97777e-07
2.0345e-07
2.09286e-07
2.15284e-07
2.21441e-07
2.27753e-07
2.34217e-07
2.4083e-07
2.47587e-07
2.54485e-07
2.6152e-07
2.68687e-07
2.75981e-07
2.83398e-07
2.90933e-07
2.9858e-07
3.06335e-07
3.14193e-07
3.22147e-07
3.30193e-07
3.38326e-07
3.4654e-07
3.5483e-07
3.6319e-07
3.71616e-07
3.80102e-07
3.88644e-07
3.97237e-07
4.05875e-07
4.14556e-07
4.23273e-07
4.32024e-07
4.40803e-07
4.49609e-07
4.58436e-07
4.67282e-07
4.76143e-07
4.85018e-07
4.93902e-07
5.02794e-07
5.11692e-07
5.20592e-07
5.29495e-07
5.38397e-07
5.47297e-07
5.56195e-07
5.65089e-07
5.73978e-07
5.82862e-07
5.91739e-07
6.0061e-07
6.09475e-07
6.18332e-07
6.27184e-07
6.36029e-07
6.44868e-07
6.53703e-07
6.62534e-07
6.71362e-07
6.80188e-07
6.89013e-07
6.9784e-07
7.0667e-07
7.15504e-07
7.24343e-07
7.33191e-07
7.42047e-07
7.50914e-07
7.59791e-07
7.68679e-07
7.77579e-07
7.86491e-07
7.95415e-07
8.04352e-07
8.133e-07
8.22259e-07
8.31228e-07
8.40207e-07
8.49195e-07
8.58191e-07
8.67193e-07
8.762e-07
8.85211e-07
8.94223e-07
9.03236e-07
9.12246e-07
9.21253e-07
9.30253e-07
9.39245e-07
9.48226e-07
9.57194e-07
9.66146e-07
9.75079e-07
9.83991e-07
9.92878e-07
1.00174e-06
1.01057e-06
1.01936e-06
1.02812e-06
1.03684e-06
1.04551e-06
1.05414e-06
1.06272e-06
1.07125e-06
1.07971e-06
1.08812e-06
1.09647e-06
1.10475e-06
1.11296e-06
1.12109e-06
1.12915e-06
1.13714e-06
1.14503e-06
1.15285e-06
1.16057e-06
1.16821e-06
1.17575e-06
1.1832e-06
1.19055e-06
1.1978e-06
1.20494e-06
1.21198e-06
1.21892e-06
1.22574e-06
1.23246e-06
1.23907e-06
1.24556e-06
1.25194e-06
1.25821e-06
1.26436e-06
1.2704e-06
1.27632e-06
1.28213e-06
1.28782e-06
1.29339e-06
1.29885e-06
1.30419e-06
1.30941e-06
1.31451e-06
1.3195e-06
1.32436e-06
1.32909e-06
1.3337e-06
1.33818e-06
1.34248e-06
1.34684e-06
1.35056e-06
1.03587e-07
1.03733e-07
1.04029e-07
1.04472e-07
1.05061e-07
1.05796e-07
1.0668e-07
1.07715e-07
1.08902e-07
1.10243e-07
1.11739e-07
1.13393e-07
1.15206e-07
1.1718e-07
1.19316e-07
1.21615e-07
1.24079e-07
1.26709e-07
1.29506e-07
1.32472e-07
1.35607e-07
1.38912e-07
1.42388e-07
1.46035e-07
1.49854e-07
1.53844e-07
1.58007e-07
1.62341e-07
1.66846e-07
1.71521e-07
1.76367e-07
1.81381e-07
1.86563e-07
1.9191e-07
1.97421e-07
2.03095e-07
2.08928e-07
2.14918e-07
2.21062e-07
2.27358e-07
2.33803e-07
2.40392e-07
2.47122e-07
2.53989e-07
2.60989e-07
2.68118e-07
2.75372e-07
2.82745e-07
2.90234e-07
2.97833e-07
3.05537e-07
3.13342e-07
3.21243e-07
3.29234e-07
3.37311e-07
3.45468e-07
3.53701e-07
3.62005e-07
3.70375e-07
3.78806e-07
3.87294e-07
3.95834e-07
4.04422e-07
4.13055e-07
4.21727e-07
4.30435e-07
4.39176e-07
4.47946e-07
4.56742e-07
4.65561e-07
4.74401e-07
4.83258e-07
4.9213e-07
5.01016e-07
5.09912e-07
5.18818e-07
5.27732e-07
5.36651e-07
5.45576e-07
5.54504e-07
5.63435e-07
5.72368e-07
5.81303e-07
5.90238e-07
5.99174e-07
6.08111e-07
6.17048e-07
6.25987e-07
6.34927e-07
6.43869e-07
6.52814e-07
6.61763e-07
6.70717e-07
6.79679e-07
6.88648e-07
6.97627e-07
7.06617e-07
7.15621e-07
7.2464e-07
7.33674e-07
7.42725e-07
7.51793e-07
7.6088e-07
7.69985e-07
7.79108e-07
7.8825e-07
7.9741e-07
8.06587e-07
8.15781e-07
8.24991e-07
8.34216e-07
8.43454e-07
8.52705e-07
8.61967e-07
8.71239e-07
8.80518e-07
8.89802e-07
8.9909e-07
9.0838e-07
9.17668e-07
9.26953e-07
9.36232e-07
9.45501e-07
9.5476e-07
9.64003e-07
9.73229e-07
9.82433e-07
9.91614e-07
1.00077e-06
1.00989e-06
1.01898e-06
1.02803e-06
1.03703e-06
1.046e-06
1.05491e-06
1.06377e-06
1.07258e-06
1.08132e-06
1.09e-06
1.09862e-06
1.10716e-06
1.11563e-06
1.12402e-06
1.13233e-06
1.14056e-06
1.1487e-06
1.15674e-06
1.16469e-06
1.17255e-06
1.18031e-06
1.18796e-06
1.19551e-06
1.20295e-06
1.21029e-06
1.21751e-06
1.22461e-06
1.23161e-06
1.23848e-06
1.24524e-06
1.25188e-06
1.2584e-06
1.2648e-06
1.27108e-06
1.27723e-06
1.28326e-06
1.28918e-06
1.29496e-06
1.30063e-06
1.30618e-06
1.3116e-06
1.3169e-06
1.32207e-06
1.32712e-06
1.33204e-06
1.33683e-06
1.34149e-06
1.34602e-06
1.35037e-06
1.35476e-06
1.35851e-06
1.00051e-07
1.00199e-07
1.00491e-07
1.00924e-07
1.01499e-07
1.02214e-07
1.03074e-07
1.04078e-07
1.05229e-07
1.06529e-07
1.07979e-07
1.0958e-07
1.11334e-07
1.13243e-07
1.15308e-07
1.1753e-07
1.19911e-07
1.22452e-07
1.25154e-07
1.28019e-07
1.31047e-07
1.3424e-07
1.37597e-07
1.4112e-07
1.4481e-07
1.48667e-07
1.5269e-07
1.5688e-07
1.61238e-07
1.65761e-07
1.70451e-07
1.75306e-07
1.80325e-07
1.85507e-07
1.9085e-07
1.96353e-07
2.02014e-07
2.07831e-07
2.13801e-07
2.19922e-07
2.26191e-07
2.32604e-07
2.39159e-07
2.45852e-07
2.52679e-07
2.59636e-07
2.6672e-07
2.73926e-07
2.8125e-07
2.88687e-07
2.96233e-07
3.03884e-07
3.11634e-07
3.1948e-07
3.27415e-07
3.35437e-07
3.43539e-07
3.51719e-07
3.5997e-07
3.68289e-07
3.76671e-07
3.85112e-07
3.93608e-07
4.02156e-07
4.10751e-07
4.1939e-07
4.28069e-07
4.36785e-07
4.45536e-07
4.54318e-07
4.63128e-07
4.71964e-07
4.80824e-07
4.89706e-07
4.98607e-07
5.07526e-07
5.16461e-07
5.25411e-07
5.34373e-07
5.43348e-07
5.52334e-07
5.6133e-07
5.70336e-07
5.79351e-07
5.88374e-07
5.97406e-07
6.06446e-07
6.15496e-07
6.24554e-07
6.33622e-07
6.42701e-07
6.51791e-07
6.60894e-07
6.70011e-07
6.79144e-07
6.88294e-07
6.97463e-07
7.06654e-07
7.15866e-07
7.25101e-07
7.3436e-07
7.43643e-07
7.52952e-07
7.62285e-07
7.71643e-07
7.81026e-07
7.90433e-07
7.99863e-07
8.09315e-07
8.18789e-07
8.28283e-07
8.37795e-07