/*--------------------------------*- C++ -*----------------------------------*\
| =========                 |                                                 |
| \\      /  F ield         | OpenFOAM: The Open Source CFD Toolbox           |
|  \\    /   O peration     | Version:  2.3.0                                 |
|   \\  /    A nd           | Web:      www.OpenFOAM.org                      |
|    \\/     M anipulation  |                                                 |
\*---------------------------------------------------------------------------*/
FoamFile
{
    version     2.0;
    format      ascii;
    class       volScalarField;
    location    "2.25";
    object      alpha.water;
}
// * * * * * * * * * * * * * * * * * * * * * * * * * * * * * * * * * * * * * //

dimensions      [0 0 0 0 0 0 0];

internalField   nonuniform List<scalar> 
2268
(
1
1
1
1
1
1
1
1
1
1
1
1
0.999998
0.999997
0.999998
0.999999
0.999999
0.999353
0.987383
0.982885
0.997126
0.994901
0.992254
1
1
1
1
1
1
1
0.999999
1
1
0.999998
0.999998
0.999998
0.999997
0.999998
1
1
0.998247
0.978932
0.978895
0.997621
0.998296
0.997173
1
1
1
1
1
1
1
0.999999
0.999999
0.999999
0.999998
0.999998
0.999999
0.999999
0.999999
1
1
0.999995
0.980519
0.978755
0.98128
0.998989
0.99992
1
1
1
1
1
1
1
0.999999
0.999999
0.999999
0.999999
0.999999
1
0.999999
0.999999
1
1
1
0.997367
0.978755
0.978782
0.992292
0.999925
1
1
1
1
1
1
1
0.999999
0.999999
0.999999
0.999999
0.999999
1
1
1
1
1
1
1
0.986686
0.97881
0.991379
0.999949
1
1
1
1
1
0.999999
0.999999
0.999999
0.999999
1
1
0.999999
1
1
1
1
1
1
1
0.999683
0.996122
0.998789
0.999959
1
1
1
1
1
1
0.999999
0.999999
0.999999
1
1
0.999999
1
1
1
1
1
1
0.999999
0.999999
0.999998
0.999998
0.999997
1
1
1
1
1
1
1
1
1
1
0.999999
0.999999
0.999999
0.999999
0.999999
0.999999
1
1
0.999999
0.999998
0.999998
0.999998
0.999998
0.957204
0.944126
0.947346
0.957269
0.947366
0.933436
0.922602
0.918059
0.918059
0.967832
0.994917
0.994917
0.993198
0.95541
0.941908
0.963798
0.963798
0.962945
0.960096
0.956386
0.956907
0.996407
0.9964
0.996399
0.996397
0.996399
0.965884
0.918629
0.91901
0.983155
0.994799
0.988116
0.92061
0.903664
0.942809
0.959441
0.954878
0.961244
0.956386
0.980244
0.99642
0.996406
0.9964
0.996403
0.996409
0.996399
0.978672
0.916738
0.923299
0.987677
0.971151
0.903573
0.903598
0.90363
0.903496
0.961223
0.991352
0.959795
0.992746
0.996442
0.99642
0.996229
0.996393
0.996396
0.996385
0.985503
0.916738
0.917057
0.953617
0.981157
0.903451
0.903508
0.903598
0.91667
0.991414
0.991353
0.977398
0.996446
0.996462
0.996405
0.996186
0.996186
0.996379
0.996369
0.993548
0.96516
0.949279
0.987736
0.989963
0.925849
0.903598
0.904108
0.976731
0.991353
0.991352
0.969066
0.996461
0.996472
0.996473
0.996456
0.996421
0.995618
0.990652
0.989887
0.992879
0.994585
0.994734
0.994639
0.972941
0.914738
0.929427
0.991356
0.991348
0.991289
0.968995
0.99574
0.995918
0.996471
0.996473
0.996466
0.99637
0.966075
0.905127
0.958751
0.994735
0.99476
0.99475
0.994642
0.989117
0.987674
0.991221
0.991307
0.991226
0.985956
0.995272
0.995941
0.996457
0.996466
0.996455
0.996359
0.973416
0.767268
0.70749
0.914293
0.994752
0.994756
0.994752
0.992835
0.978982
0.990233
0.991908
0.992761
1
1
1
1
1
1
1
1
0.999999
0.999996
0.99999
0.999981
0.999972
0.999964
0.999961
0.999964
0.999974
0.999987
0.999997
0.999998
0.999998
0.999998
0.999998
0.858225
0.853149
0.843785
0.83321
0.821299
0.809541
0.798239
0.788297
0.778764
0.770643
0.765715
0.763636
0.763264
0.764199
0.766634
0.770189
0.775713
0.782657
0.791065
0.798956
0.803992
0.810183
0.842655
0.12805
0.125683
0.118925
0.113186
0.106519
0.0980676
0.0890384
0.0788976
0.0693819
0.064266
0.0595841
0.0560427
0.053848
0.0526213
0.0518826
0.0504181
0.0520797
0.0564162
0.0593318
0.0604733
0.0590089
0.0611832
0.086162
0.00288974
0.00306146
0.00361863
0.00300068
0.00241954
0.00195401
0.00162487
0.00149602
0.00148156
0.00118636
0.00101821
0.000869476
0.000717996
0.000664474
0.000668997
0.000662273
0.000668997
0.000968705
0.00122249
0.00160772
0.00309425
0.00320708
0.00418775
0.00284912
0.00327463
0.00753941
0.00753891
0.00754466
0.00740116
0.00209623
0.001958
0.01015
0.0106203
0.0106313
0.0106203
0.0105796
0.00981565
0.00250437
0.00737052
0.0180273
0.018456
0.0147969
0.0153885
0.019963
0.016682
0.00409518
0.00158001
0.00110688
0.000635517
0.000357765
0.00139499
0.00363525
0.00443224
0.00443224
0.00237373
0.00155427
0.00173001
0.00187643
0.0038397
0.00380955
0.0013758
0.0021547
0.0112259
0.0201084
0.0201354
0.0201354
0.0201354
0.0171193
0.00395696
1.76179e-05
2.49523e-06
2.60442e-06
3.1101e-06
2.91057e-06
2.49387e-05
0.000171299
0.000132204
1.89841e-05
3.01119e-05
3.59965e-05
0.000269308
0.000421891
0.000539791
0.00059832
0.000371934
0.000507864
0.000360035
0.0031762
0.0167978
0.019963
0.0175486
0.00385004
4.60864e-07
2.20921e-07
2.23804e-06
2.89032e-06
2.61746e-06
3.12205e-06
3.53102e-06
6.19855e-06
8.35356e-06
4.94909e-05
0.00122866
0.00166402
0.00165628
0.000482163
0.000255291
0.000238427
0.000268427
0.000219349
0.000163275
0.000123064
0.00548593
0.0163096
0.0162056
4.33642e-08
2.32175e-08
2.24044e-06
3.3085e-06
2.43624e-06
3.27736e-06
1.18659e-05
1.13918e-05
4.07781e-06
1.5017e-05
0.000879104
0.00166402
0.00166035
0.00163396
0.000379435
0.000238427
0.000238427
0.000733355
0.000116775
4.48217e-05
4.82517e-05
0.00339053
0.0159496
7.98539e-09
4.62921e-09
1.34897e-06
3.08825e-06
1.34844e-06
2.36124e-06
1.2207e-05
1.21771e-05
3.16092e-06
9.25413e-06
3.08892e-05
0.000166173
0.00131968
0.0016012
0.00110252
0.000238427
0.000314899
0.000779847
0.000529422
3.00861e-05
1.15734e-05
5.14447e-05
0.000882591
4.94246e-09
3.26642e-09
1.02094e-07
8.79483e-07
3.92392e-08
5.25959e-07
2.82191e-06
5.40515e-06
2.12543e-07
2.8572e-07
5.97401e-08
9.51402e-08
1.19192e-05
0.000440615
0.000762375
0.000349224
0.000452845
0.000780043
0.000779847
0.000209394
7.39519e-06
1.097e-05
2.42671e-06
4.09073e-09
1.4061e-09
1.2094e-09
4.13335e-09
2.61575e-09
3.87754e-09
9.27765e-09
1.67124e-08
2.14048e-09
3.24e-09
5.91528e-09
1.41595e-08
2.81385e-08
1.92068e-07
1.29495e-05
9.29612e-05
0.000460988
0.000779999
0.000747696
7.52109e-05
6.25983e-06
1.26044e-05
2.63233e-05
3.64209e-08
6.88119e-10
7.27108e-10
1.35343e-09
2.21645e-09
2.27143e-09
2.16664e-09
1.74661e-09
5.88046e-10
6.50154e-10
2.79081e-09
1.06684e-08
7.48116e-09
1.18697e-08
1.45748e-07
1.17363e-05
0.000186581
0.000303245
0.000119016
1.14026e-06
5.53702e-06
6.78342e-05
0.00010251
5.1927e-08
6.80311e-10
1.44548e-09
1.62682e-09
2.22481e-09
2.14091e-09
1.61455e-09
6.15978e-10
4.7084e-10
4.65064e-10
2.60746e-09
1.10619e-08
6.26296e-09
9.02646e-10
3.99291e-08
2.78205e-06
3.54276e-06
4.68007e-07
2.82156e-07
2.72248e-08
2.90957e-06
5.65108e-05
0.000102566
5.217e-08
6.7989e-10
1.50647e-09
1.95048e-09
2.2291e-09
2.17836e-09
1.57305e-09
5.73695e-10
4.59508e-10
4.42659e-10
2.01456e-09
4.48369e-09
1.72858e-09
2.25419e-10
1.23117e-08
3.20285e-08
2.37844e-08
2.65058e-08
1.66535e-08
2.64147e-09
1.98407e-07
8.13819e-06
9.58777e-05
5.37379e-08
6.80107e-10
1.27571e-09
1.57719e-09
1.92124e-09
1.97345e-09
1.54947e-09
8.25301e-10
4.56147e-10
3.72644e-10
7.37258e-10
4.20091e-10
2.05878e-10
1.62469e-10
1.31715e-09
6.05658e-10
1.42596e-09
1.57683e-09
1.0223e-09
2.28886e-10
7.29717e-10
1.09448e-08
3.57723e-05
5.41744e-08
1.23002e-08
1.12205e-09
1.11297e-09
1.29528e-09
1.37005e-09
1.32843e-09
9.04274e-10
5.26482e-10
3.31862e-10
2.44865e-10
1.79252e-10
1.71236e-10
1.55037e-10
1.29314e-10
1.42068e-10
1.99687e-10
2.1369e-10
1.60928e-10
8.62141e-11
1.80507e-10
1.98461e-08
1.28352e-05
5.41743e-08
3.23008e-08
5.54202e-09
1.07751e-09
1.08828e-09
1.08407e-09
9.25023e-10
8.4958e-10
5.7009e-10
3.48264e-10
2.44873e-10
1.7954e-10
1.50499e-10
1.35089e-10
1.21225e-10
1.11485e-10
1.12491e-10
1.28058e-10
9.33298e-11
7.42988e-11
2.6904e-10
6.85749e-07
1.43925e-07
3.48265e-08
1.77381e-08
8.24426e-09
1.0758e-09
1.21097e-09
1.20852e-09
8.85469e-10
6.84255e-10
5.35304e-10
3.59203e-10
2.47323e-10
1.74319e-10
1.35713e-10
1.16144e-10
1.05178e-10
1.09164e-10
1.04197e-10
1.20008e-10
9.45457e-11
7.2231e-11
7.22331e-11
4.7186e-07
6.34448e-08
3.28374e-09
2.39062e-09
3.17745e-09
1.0753e-09
1.2859e-09
1.34411e-09
1.09464e-09
6.76214e-10
4.84105e-10
3.42783e-10
2.42027e-10
1.72349e-10
1.293e-10
1.03369e-10
8.72037e-11
8.06247e-11
7.82958e-11
8.86676e-11
7.43697e-11
6.64981e-11
7.52453e-09
8.42151e-09
1.14676e-09
1.30358e-09
1.16413e-09
1.0753e-09
1.07534e-09
1.13206e-09
1.20078e-09
1.24585e-09
8.11157e-10
4.84393e-10
3.23927e-10
2.24656e-10
1.62302e-10
1.21156e-10
9.33196e-11
7.38958e-11
6.12518e-11
5.38109e-11
5.52618e-11
5.06059e-11
7.58473e-11
2.95063e-09
1.64494e-10
3.16052e-11
9.40791e-06
2.17913e-05
8.9024e-06
2.9079e-07
1.13955e-09
1.13638e-09
1.13522e-09
8.80497e-10
5.38903e-10
3.25329e-10
2.1053e-10
1.48405e-10
1.07734e-10
8.04448e-11
6.08013e-11
4.63455e-11
3.67978e-11
3.25694e-11
2.94015e-11
6.19319e-11
8.85795e-11
2.16417e-11
2.72474e-11
3.14664e-05
3.15096e-05
3.11671e-05
3.82565e-06
2.12115e-09
6.85563e-09
1.42523e-09
8.51963e-10
5.61482e-10
3.29911e-10
1.98496e-10
1.33082e-10
9.10859e-11
6.41437e-11
4.61575e-11
3.3511e-11
2.49621e-11
1.96503e-11
1.61944e-11
2.42643e-11
2.18559e-11
1.70196e-11
1.20865e-11
3.15096e-05
3.15095e-05
3.15096e-05
4.68365e-06
7.87437e-09
1.20983e-08
1.2922e-09
8.00323e-10
5.75734e-10
3.43926e-10
1.9594e-10
1.18299e-10
7.44464e-11
4.89717e-11
3.34394e-11
2.3364e-11
1.66829e-11
1.22293e-11
9.20567e-12
8.86221e-12
7.6025e-12
5.56381e-12
4.0177e-12
1.15473e-05
2.36648e-05
8.22617e-06
2.43063e-06
5.06618e-08
5.88344e-09
3.66998e-10
6.23136e-10
5.16811e-10
2.84115e-10
1.5248e-10
9.50239e-11
5.78997e-11
3.64943e-11
2.38516e-11
1.60177e-11
1.09702e-11
7.62504e-12
5.36081e-12
4.0023e-12
2.93975e-12
2.07366e-12
1.45009e-12
3.83939e-08
7.93911e-07
2.52113e-08
6.84473e-08
4.64084e-08
4.45331e-09
2.00637e-10
3.28752e-10
2.68419e-10
1.59092e-10
1.05213e-10
6.43584e-11
3.92691e-11
2.44494e-11
1.55852e-11
1.01204e-11
6.65287e-12
4.40461e-12
2.92602e-12
1.96109e-12
1.3091e-12
8.64592e-13
5.67652e-13
2.78736e-09
6.06502e-09
1.7814e-09
5.05195e-10
3.32718e-09
8.85733e-10
1.84865e-10
1.35694e-10
1.13135e-10
8.88242e-11
5.78795e-11
3.5918e-11
2.21166e-11
1.37144e-11
8.58245e-12
5.40482e-12
3.41266e-12
2.1539e-12
1.35582e-12
8.50677e-13
5.30565e-13
3.28309e-13
2.01662e-13
2.26866e-10
4.23299e-10
1.78196e-10
6.04346e-11
4.86383e-11
8.38709e-11
8.77623e-11
7.74681e-11
5.91696e-11
4.12012e-11
2.65063e-11
1.64572e-11
1.00933e-11
6.1678e-12
3.76014e-12
2.28379e-12
1.37955e-12
8.27649e-13
4.92673e-13
2.90807e-13
1.70074e-13
9.85089e-14
5.66054e-14
3.45121e-11
5.51206e-11
3.54535e-11
3.04748e-11
3.83865e-11
4.70122e-11
4.21787e-11
3.31618e-11
2.38106e-11
1.58166e-11
9.94103e-12
6.0568e-12
3.62669e-12
2.14603e-12
1.25654e-12
7.27776e-13
4.1672e-13
2.35785e-13
1.31787e-13
7.2746e-14
3.96564e-14
2.13853e-14
1.15357e-14
1.70853e-11
1.83888e-11
2.31093e-11
2.79346e-11
2.18191e-11
1.89584e-11
1.52848e-11
1.13047e-11
7.68656e-12
4.88618e-12
2.96052e-12
1.73703e-12
9.96097e-13
5.6066e-13
3.10225e-13
1.68813e-13
9.03451e-14
4.75504e-14
2.46113e-14
1.25284e-14
6.28514e-15
3.15495e-15
1.72765e-15
9.46549e-12
1.57743e-11
1.09949e-11
8.49628e-12
6.9409e-12
5.70027e-12
4.34274e-12
3.02902e-12
1.95181e-12
1.18065e-12
6.80856e-13
3.7865e-13
2.04495e-13
1.07632e-13
5.5302e-14
2.77587e-14
1.36162e-14
6.52744e-15
3.05852e-15
1.40416e-15
6.46559e-16
3.49841e-16
3.7323e-16
1.81844e-12
3.33019e-12
2.57025e-12
2.0561e-12
1.68501e-12
1.32089e-12
9.51429e-13
6.269e-13
3.82033e-13
2.18387e-13
1.18554e-13
6.16551e-14
3.08797e-14
1.49363e-14
6.98631e-15
3.16156e-15
1.38415e-15
5.86178e-16
2.40821e-16
9.97145e-17
5.63218e-17
8.97062e-17
2.6783e-16
2.65401e-13
5.48684e-13
4.60822e-13
3.82409e-13
3.09691e-13
2.3248e-13
1.58744e-13
9.88585e-14
5.67996e-14
3.04765e-14
1.5419e-14
7.40284e-15
3.38465e-15
1.47575e-15
6.13628e-16
2.43082e-16
9.15987e-17
3.29049e-17
1.19669e-17
7.57328e-18
1.81062e-17
6.6939e-17
2.46932e-16
2.99419e-14
7.01937e-14
6.35099e-14
5.40306e-14
4.29166e-14
3.08813e-14
2.00188e-14
1.17744e-14
6.35404e-15
3.17764e-15
1.483e-15
6.48391e-16
2.65864e-16
1.02118e-16
3.66319e-17
1.22146e-17
3.77849e-18
1.17383e-18
8.45342e-19
2.78427e-18
1.21794e-17
5.16017e-17
2.06668e-16
2.64116e-15
6.97828e-15
6.71465e-15
5.78041e-15
4.48024e-15
3.08971e-15
1.90168e-15
1.0544e-15
5.31917e-16
2.45959e-16
1.04664e-16
4.10115e-17
1.47608e-17
4.85193e-18
1.44316e-18
3.84563e-19
9.88067e-20
7.20847e-20
2.96674e-19
1.51669e-18
7.40031e-18
3.39803e-17
1.47318e-16
1.83994e-16
5.40783e-16
5.45015e-16
4.69194e-16
3.53306e-16
2.33274e-16
1.36171e-16
7.09526e-17
3.32569e-17
1.40807e-17
5.38617e-18
1.85435e-18
5.70008e-19
1.54329e-19
3.60961e-20
7.55207e-21
4.28176e-21
1.97327e-20
1.18633e-19
6.77963e-19
3.61692e-18
1.80843e-17
8.54018e-17
1.02528e-17
3.29112e-17
3.4174e-17
2.91057e-17
2.12009e-17
1.33773e-17
7.38907e-18
3.60172e-18
1.55608e-18
5.95806e-19
2.01203e-19
5.93208e-20
1.50175e-20
3.17974e-21
5.57359e-22
1.80381e-22
7.25166e-22
5.10938e-21
3.52444e-20
2.25219e-19
1.33093e-18
7.3394e-18
3.81957e-17
4.65893e-19
1.59551e-18
1.67725e-18
1.39862e-18
9.80947e-19
5.89945e-19
3.07292e-19
1.39265e-19
5.48944e-20
1.87109e-20
5.45002e-21
1.33016e-21
2.63918e-22
4.10594e-23
7.28648e-24
1.39745e-23
9.9637e-23
8.49895e-22
6.84874e-21
5.01899e-20
3.36444e-19
2.08976e-18
1.22002e-17
1.77992e-20
6.30436e-20
6.57901e-20
5.31457e-20
3.57162e-20
2.04079e-20
9.98135e-21
4.17468e-21
1.48308e-21
4.41523e-22
1.0775e-22
2.08229e-23
3.03687e-24
3.7551e-25
2.5299e-25
8.21974e-25
6.81156e-24
7.31975e-23
7.21477e-22
6.33884e-21
5.02148e-20
3.6428e-19
2.46016e-18
6.00133e-22
2.09439e-21
2.1211e-21
1.6424e-21
1.05274e-21
5.69645e-22
2.60422e-22
9.97496e-23
3.15385e-23
8.03779e-24
1.59127e-24
2.31323e-25
2.46823e-26
7.22876e-27
1.13525e-26
2.04552e-26
1.53785e-25
2.19697e-24
2.87097e-23
3.288e-22
3.34084e-21
3.05873e-20
2.56797e-19
1.92345e-23
6.06048e-23
5.81551e-23
4.27858e-23
2.60563e-23
1.33086e-23
5.66258e-24
1.97365e-24
5.50077e-25
1.18233e-25
1.85417e-26
2.02284e-27
3.2586e-28
3.37299e-28
3.38156e-28
2.28726e-28
4.66242e-28
8.99058e-27
1.85216e-25
3.30686e-24
5.17012e-23
7.17706e-22
8.97192e-21
6.47881e-25
1.57679e-24
1.40988e-24
9.81459e-25
5.65553e-25
2.71283e-25
1.06883e-25
3.37568e-26
8.27081e-27
1.49861e-27
1.89804e-28
2.32731e-29
1.36057e-29
1.23399e-29
5.10307e-30
1.18289e-30
1.88594e-31
6.9154e-32
2.61723e-30
1.27406e-28
5.45011e-27
2.08515e-25
7.25708e-24
0.999998
0.999998
0.999998
0.999995
0.879265
0.9006
0.920795
0.964472
0.130064
0.200398
0.340054
0.546581
0.00533251
0.00609276
0.00989223
0.0409983
0.00397412
0.00414412
0.00418435
0.00394799
0.00377767
0.00379642
0.00381769
0.00390001
0.00378895
0.00378018
0.00379019
0.00380694
0.0166108
0.0087143
0.00382674
0.00668063
0.0167438
0.0167752
0.016671
0.0156598
0.00215255
0.00240664
0.00191515
0.00110997
9.73705e-08
7.24823e-08
7.44202e-08
9.32191e-08
7.24841e-08
7.17654e-08
7.23476e-08
7.82241e-08
1.65356e-05
7.1996e-08
7.17748e-08
1.1772e-07
0.000100925
8.37952e-06
7.21799e-08
7.70672e-08
9.98123e-05
4.86284e-05
1.25647e-07
5.7407e-08
8.32162e-05
3.00842e-05
9.81286e-08
1.75137e-08
1.00359e-05
3.62718e-06
4.6533e-08
7.84353e-10
7.64885e-09
1.77971e-09
4.89002e-09
4.18605e-10
3.63828e-10
1.26078e-10
1.02219e-10
8.95237e-11
4.65111e-11
6.19336e-11
8.16925e-11
9.05589e-11
3.31643e-11
5.33925e-11
5.483e-11
5.27895e-11
2.73163e-11
2.57303e-11
2.49e-11
2.53388e-11
1.04094e-11
9.35154e-12
8.94273e-12
9.17604e-12
3.41576e-12
2.9954e-12
2.76092e-12
2.70056e-12
1.2045e-12
1.01423e-12
8.74815e-13
7.8097e-13
4.54022e-13
3.64197e-13
2.94109e-13
2.4061e-13
1.54966e-13
1.18998e-13
9.13935e-14
7.04191e-14
4.17949e-14
3.0881e-14
2.28691e-14
1.70529e-14
8.25085e-15
5.99999e-15
4.50635e-15
3.60492e-15
1.32773e-15
1.15098e-15
1.15291e-15
1.3168e-15
4.50115e-16
5.96702e-16
8.2738e-16
1.16715e-15
3.9294e-16
5.77395e-16
8.46274e-16
1.23517e-15
3.71852e-16
5.5726e-16
8.31701e-16
1.2373e-15
3.15633e-16
4.80149e-16
7.2914e-16
1.10826e-15
2.28003e-16
3.5222e-16
5.45678e-16
8.53397e-16
1.33997e-16
2.10735e-16
3.357e-16
5.50095e-16
6.0866e-17
9.81894e-17
1.64289e-16
2.94521e-16
1.98493e-17
3.35753e-17
6.23022e-17
1.32939e-16
4.16174e-18
7.90168e-18
1.8344e-17
5.1916e-17
4.87661e-19
1.26314e-18
4.31063e-18
1.71377e-17
2.69265e-20
1.30863e-19
6.8027e-19
4.10475e-18
1.28635e-22
1.83221e-21
2.5741e-20
4.96165e-19
0.999922
0.998824
0.998054
0.997169
0.996279
0.996375
0.996092
0.964777
0.737942
0.686846
0.683553
0.793338
0.906064
0.911724
0.889033
0.912448
0.98983
0.991012
0.991523
0.999607
0.999378
0.999078
0.998619
0.997292
0.955278
0.942715
0.960955
0.897099
0.688457
0.680379
0.677807
0.675744
0.691813
0.804342
0.946914
0.987296
0.979771
0.961455
0.781686
0.880251
0.895286
0.87484
0.820071
0.786144
0.830064
0.868866
0.878865
0.876171
0.871208
0.824094
0.674175
0.819582
0.821389
0.797275
0.677769
0.494657
0.401012
0.116639
0.191578
0.21696
0.214585
0.209611
0.213626
0.216759
0.283344
0.467898
0.589412
0.614255
0.59526
0.576788
0.522424
0.366544
0.168678
0.0413085
2.87012e-05
3.15662e-05
0.00461666
0.00542781
0.00611209
0.00680624
0.00733376
0.00771168
0.00803983
0.0112781
0.0123263
0.0129158
0.0320625
0.0453416
0.0311718
2.76309e-05
2.76309e-05
2.7673e-05
2.7672e-05
2.79072e-05
2.87012e-05
0.00394892
0.00460612
0.00546755
0.0062584
0.00689328
0.00737229
0.00777154
0.0112346
0.0143232
0.0128827
0.00860899
7.55009e-05
3.10088e-05
2.77056e-05
2.76725e-05
2.76734e-05
2.77594e-05
3.28746e-05
0.000246828
0.00391144
0.00419335
0.0123113
0.0261315
0.0262721
0.0266074
0.027008
0.0270584
0.0270584
0.0268194
0.0202428
0.01168
0.000238144
2.84143e-05
2.7757e-05
2.77594e-05
2.79779e-05
9.42308e-05
0.000287022
0.0232634
0.0259662
0.0262218
0.0262225
0.0262225
0.0245034
0.0218663
0.0192136
0.014664
0.00843999
0.000875546
0.00340775
0.00141824
2.7701e-05
2.79251e-05
2.76898e-05
3.73948e-05
0.000123578
0.000199144
0.0168592
0.0194596
0.0140702
0.00770632
0.00402744
0.00231114
0.000978727
3.3588e-05
2.69347e-05
2.29032e-05
2.31461e-05
2.29027e-05
3.99714e-05
2.94149e-05
2.79196e-05
2.99318e-05
0.000153828
0.000152946
8.87996e-05
0.00064976
0.000443816
0.00015639
0.000138717
0.000135637
0.000129671
0.000123436
0.000114579
0.000155994
0.000109579
2.29644e-05
2.46564e-05
0.000102854
3.66572e-05
2.81198e-05
6.42135e-05
0.000153828
0.000153967
0.000103504
1.76899e-07
7.08771e-07
0.000113012
0.000277994
0.000277648
0.000257761
0.000228589
0.000271822
0.000271825
0.000271826
3.11248e-05
1.84399e-05
9.34009e-05
2.8794e-05
3.56457e-05
0.00015355
0.000153966
0.000153806
7.45551e-05
1.03173e-07
1.74959e-07
3.42238e-05
0.000213617
0.000277866
0.000276853
0.000275491
0.000266533
0.000271822
0.000269184
5.87753e-05
1.4817e-05
8.69716e-06
9.94555e-06
6.61648e-05
0.000153241
0.000153806
5.35606e-05
7.6507e-06
1.306e-07
1.49888e-07
3.05821e-07
5.6148e-07
6.82779e-05
0.000224145
0.000245794
6.28457e-05
3.99019e-05
0.000138585
0.000151597
0.00011844
7.91976e-06
3.13736e-06
7.91431e-05
0.000152849
0.000137723
7.15112e-06
6.97537e-06
4.20066e-06
1.21908e-05
1.13047e-05
3.39514e-06
3.71668e-07
2.88299e-07
1.97808e-07
1.97861e-07
1.97537e-07
2.33091e-05
0.000151564
0.000151612
4.35253e-05
3.60161e-07
2.55715e-05
8.6682e-05
1.47769e-05
6.98617e-06
4.29851e-05
8.69452e-06
2.848e-05
2.84863e-05
2.08658e-05
6.26217e-06
2.1934e-07
1.98134e-07
1.97877e-07
4.51654e-07
1.88689e-05
0.000104925
0.00011906
4.52487e-05
3.60161e-07
2.03636e-06
6.1815e-08
4.9263e-08
9.8614e-06
6.00169e-05
5.60989e-06
2.84857e-05
2.84986e-05
2.85308e-05
2.86332e-05
1.21269e-05
4.27522e-07
2.71856e-07
8.44495e-07
4.95618e-08
4.92003e-08
4.95615e-08
4.95615e-08
4.72091e-07
6.03491e-06
5.79065e-08
1.69185e-08
1.15821e-05
6.00169e-05
1.10593e-10
1.77456e-05
2.85049e-05
2.85749e-05
2.86364e-05
2.87037e-05
9.97944e-06
5.93948e-08
5.94221e-08
4.95287e-08
4.95629e-08
4.91998e-08
5.08512e-08
4.48972e-07
5.78801e-06
7.48012e-08
2.19148e-10
7.49563e-06
6.00144e-05
5.45628e-11
3.92393e-11
1.83295e-05
2.84943e-05
2.85749e-05
2.86364e-05
1.81157e-05
1.15016e-07
5.91296e-08
1.14588e-07
4.46036e-07
8.23248e-08
5.32164e-08
3.14949e-07
2.94515e-10
4.08665e-09
2.17475e-10
3.23081e-06
5.99987e-05
6.26071e-11
3.53012e-11
3.34637e-11
7.50851e-06
2.51581e-05
2.82976e-05
1.2484e-05
7.59054e-08
6.11523e-08
8.81344e-07
1.15165e-06
9.32361e-07
2.03044e-07
2.94759e-10
2.68198e-10
2.19555e-10
2.17473e-10
1.82114e-06
5.99297e-05
6.31461e-11
4.44898e-11
3.34637e-11
2.68362e-11
2.68362e-11
2.92224e-11
9.58449e-07
5.25455e-07
6.64341e-08
1.15165e-06
1.15165e-06
1.15165e-06
5.52326e-07
3.96092e-10
2.97109e-10
1.03377e-09
2.17477e-10
1.0324e-06
5.96837e-05
5.06645e-11
4.35081e-11
3.77358e-11
4.12757e-11
2.7507e-11
2.59792e-11
2.59336e-11
2.59336e-11
1.29296e-07
1.05948e-06
1.15165e-06
1.15134e-06
3.39491e-07
1.0807e-09
3.95061e-10
1.10063e-09
2.18554e-10
6.15201e-08
5.8877e-05
3.0363e-11
3.2437e-11
3.25023e-11
2.9145e-11
2.7586e-11
2.81973e-11
2.84063e-11
2.6866e-11
2.66024e-11
1.27527e-07
1.09921e-06
5.84492e-07
5.5347e-08
2.16541e-08
1.27343e-08
1.20054e-09
2.02996e-10
2.1833e-10
2.33996e-05
1.22241e-11
1.52861e-11
1.75876e-11
1.92445e-11
2.11908e-11
2.45053e-11
2.87745e-11
3.40518e-11
3.14972e-11
3.07609e-11
8.37163e-08
3.19099e-07
2.38238e-07
1.53213e-07
6.14805e-08
3.30016e-10
1.73006e-10
2.01833e-10
4.06605e-06
3.48096e-12
4.75769e-12
6.65696e-12
9.34869e-12
1.29516e-11
1.7559e-11
2.28182e-11
2.87775e-11
3.44185e-11
3.11494e-11
2.97675e-11
3.08518e-11
1.29516e-07
1.54127e-07
8.94891e-08
1.13333e-09
1.20271e-10
1.69226e-10
3.37669e-05
8.23737e-13
1.10695e-12
1.82678e-12
3.25773e-12
5.81984e-12
1.00057e-11
1.54849e-11
2.12874e-11
2.64911e-11
2.90792e-11
2.97674e-11
2.9771e-11
1.91638e-09
2.71393e-08
1.00104e-08
2.01765e-09
9.27615e-11
9.17981e-07
3.85362e-05
1.92921e-13
2.2319e-13
4.07721e-13
9.19029e-13
2.09835e-12
4.42269e-12
7.9621e-12
1.2265e-11
1.67747e-11
2.14787e-11
2.62942e-11
2.98207e-11
2.98322e-11
3.01012e-11
3.07801e-11
1.3055e-10
9.22157e-11
4.46464e-06
3.85362e-05
4.67904e-14
4.58652e-14
8.77058e-14
2.42335e-13
6.81235e-13
1.69762e-12
3.5135e-12
6.13101e-12
9.46247e-12
1.39414e-11
2.00407e-11
2.71256e-11
3.62998e-11
4.68008e-11
6.84015e-11
9.20719e-11
9.22157e-11
6.62008e-06
3.85338e-05
1.14591e-14
1.30158e-14
2.79315e-14
8.17453e-14
2.46865e-13
6.72254e-13
1.54733e-12
3.03369e-12
5.29536e-12
8.78842e-12
1.39801e-11
2.19009e-11
3.43924e-11
5.03248e-11
8.88981e-11
1.09608e-10
9.22157e-11
5.32316e-06
3.8524e-05
4.04953e-15
8.10446e-15
1.99525e-14
5.21022e-14
1.38696e-13
3.57122e-13
8.37942e-13
1.75533e-12
3.34688e-12
6.04319e-12
1.03937e-11
1.73227e-11
2.83161e-11
4.54063e-11
8.45441e-11
1.09809e-10
9.24756e-11
9.98047e-07
3.8479e-05
3.25247e-15
8.67429e-15
2.20884e-14
5.36757e-14
1.26704e-13
2.91615e-13
6.4302e-13
1.33349e-12
2.60022e-12
4.83907e-12
8.62276e-12
1.48478e-11
2.49141e-11
4.09786e-11
8.71756e-11
1.2696e-10
9.35847e-11
9.41894e-11
3.81369e-05
3.77079e-15
1.09219e-14
2.83041e-14
6.70509e-14
1.49091e-13
3.17341e-13
6.51111e-13
1.28512e-12
2.43908e-12
4.47505e-12
7.95572e-12
1.37983e-11
2.34477e-11
3.90706e-11
9.5412e-11
1.69499e-10
9.48361e-11
9.62191e-11
1.84933e-05
4.70961e-15
1.51499e-14
4.07563e-14
9.54205e-14
2.02961e-13
4.05678e-13
7.77882e-13
1.44442e-12
2.60899e-12
4.60536e-12
7.98248e-12
1.37445e-11
2.34602e-11
3.96077e-11
1.03685e-10
1.92755e-10
9.72399e-11
1.01225e-10
6.6647e-06
6.07793e-15
2.29388e-14
6.56009e-14
1.53871e-13
3.16174e-13
5.96861e-13
1.06901e-12
1.85199e-12
3.13733e-12
5.23952e-12
8.72906e-12
1.48161e-11
2.51095e-11
4.3427e-11
1.53193e-10
1.9569e-10
9.88615e-11
3.28862e-06
2.58618e-05
7.74214e-15
3.49747e-14
1.08773e-13
2.63134e-13
5.3816e-13
9.83619e-13
1.67042e-12
2.70972e-12
4.2807e-12
6.68716e-12
1.0583e-11
1.74361e-11
2.85344e-11
4.98149e-11
2.01365e-10
2.54856e-10
1.01244e-10
8.77244e-06
2.58618e-05
9.12184e-15
4.85563e-14
1.67164e-13
4.32685e-13
9.18853e-13
1.69067e-12
2.80545e-12
4.34091e-12
6.44932e-12
9.44421e-12
1.4135e-11
2.21561e-11
3.39861e-11
5.81384e-11
2.51971e-10
4.21009e-10
1.04346e-10
1.91511e-06
2.50508e-05
9.42321e-15
5.70786e-14
2.21372e-13
6.39614e-13
1.47978e-12
2.86238e-12
4.80534e-12
7.26804e-12
1.03166e-11
1.43537e-11
2.05504e-11
3.06106e-11
4.37605e-11
7.38566e-11
3.97855e-10
5.8271e-10
1.10755e-10
7.74803e-07
5.68231e-07
8.07104e-15
5.43716e-14
2.45313e-13
8.32912e-13
2.21541e-12
4.72278e-12
8.34267e-12
1.27254e-11
1.7604e-11
2.35455e-11
3.27412e-11
4.77812e-11
6.64298e-11
1.14633e-10
5.06276e-10
1.16164e-09
7.6612e-10
4.34571e-10
4.3457e-10
5.36876e-15
4.09051e-14
2.24382e-13
9.43314e-13
3.03162e-12
7.41448e-12
1.42614e-11
2.26248e-11
3.12741e-11
4.05856e-11
5.51491e-11
8.28536e-11
1.22743e-10
2.5529e-10
9.80397e-10
1.26965e-09
1.01403e-09
4.69929e-10
1.18193e-09
2.59378e-15
2.3808e-14
1.65035e-13
8.91448e-13
3.61491e-12
1.03086e-11
2.20254e-11
3.72313e-11
5.28888e-11
6.80027e-11
8.98466e-11
1.3786e-10
2.35957e-10
6.13729e-10
1.10448e-09
1.24473e-09
7.12413e-10
4.07245e-10
2.43675e-09
8.68577e-16
1.08173e-14
1.00928e-13
7.07277e-13
3.66822e-12
1.20774e-11
2.88908e-11
5.31335e-11
7.91634e-11
1.03934e-10
1.37727e-10
1.98195e-10
3.44703e-10
7.42486e-10
9.47319e-10
6.67034e-10
4.04085e-10
4.05501e-10
1.5155e-09
1.89981e-16
3.7487e-15
4.89e-14
4.4962e-13
3.01946e-12
1.13325e-11
3.13595e-11
6.49533e-11
1.08507e-10
1.48224e-10
1.94589e-10
2.7774e-10
3.39025e-10
5.49135e-10
3.44975e-09
6.69921e-10
2.62038e-07
9.2261e-08
1.54648e-09
2.25793e-17
8.02558e-16
1.46835e-14
1.693e-13
1.73488e-12
7.59106e-12
2.66053e-11
6.23591e-11
1.232e-10
2.07295e-10
2.78037e-10
3.68878e-10
4.21302e-10
4.12686e-10
4.15922e-10
1.9437e-07
7.25866e-07
7.25865e-07
2.18342e-07
)
;

boundaryField
{
    leftWall
    {
        type            zeroGradient;
    }
    rightWall
    {
        type            zeroGradient;
    }
    lowerWall
    {
        type            zeroGradient;
    }
    atmosphere
    {
        type            inletOutlet;
        inletValue      uniform 0;
        value           nonuniform List<scalar> 
46
(
6.47881e-25
1.57679e-24
1.40988e-24
9.81459e-25
5.65553e-25
2.71283e-25
1.06883e-25
3.37568e-26
8.27081e-27
1.49861e-27
1.89804e-28
2.32731e-29
1.36057e-29
1.23399e-29
0
0
0
0
0
0
0
0
0
0
0
0
0
0
0
0
0
0
0
0
0
0
0
0
0
0
0
4.15922e-10
1.9437e-07
7.25866e-07
7.25865e-07
2.18342e-07
)
;
    }
    defaultFaces
    {
        type            empty;
    }
}


// ************************************************************************* //
