/*--------------------------------*- C++ -*----------------------------------*\
| =========                 |                                                 |
| \\      /  F ield         | OpenFOAM: The Open Source CFD Toolbox           |
|  \\    /   O peration     | Version:  2.3.0                                 |
|   \\  /    A nd           | Web:      www.OpenFOAM.org                      |
|    \\/     M anipulation  |                                                 |
\*---------------------------------------------------------------------------*/
FoamFile
{
    version     2.0;
    format      ascii;
    class       volScalarField;
    location    "2.25";
    object      k;
}
// * * * * * * * * * * * * * * * * * * * * * * * * * * * * * * * * * * * * * //

dimensions      [0 2 -2 0 0 0 0];

internalField   nonuniform List<scalar> 
2268
(
0.00166337
0.00362499
0.00531369
0.0067176
0.00795601
0.00910017
0.0101929
0.0112621
0.0123316
0.0134093
0.0144961
0.0155898
0.0166774
0.0177273
0.0186789
0.0194357
0.0198708
0.0198614
0.0191024
0.0176434
0.0151628
0.0110184
0.0046018
0.00323264
0.00831819
0.0119404
0.0149836
0.0176811
0.0201754
0.0225569
0.0248856
0.0272032
0.0295343
0.0318934
0.0342813
0.0366748
0.0390124
0.041174
0.0429669
0.0441189
0.0442824
0.0429402
0.0400717
0.0350945
0.0262112
0.0110271
0.00434304
0.0110332
0.0155424
0.0193541
0.0227616
0.0259237
0.0289459
0.0319018
0.034845
0.0378097
0.0408166
0.0438687
0.0469399
0.0499559
0.0527721
0.0551564
0.0567932
0.0572867
0.0561472
0.0530312
0.0471381
0.036466
0.0158841
0.00526038
0.0131614
0.0183032
0.0226446
0.0265448
0.0301769
0.0336558
0.0370646
0.040465
0.0438988
0.0473916
0.0509495
0.0545457
0.0580996
0.0614513
0.0643427
0.0664304
0.0673058
0.0664943
0.0634885
0.0573809
0.0459299
0.0207728
0.00606369
0.0150182
0.0206982
0.0254705
0.0297694
0.0337858
0.0376442
0.0414354
0.0452278
0.0490697
0.0529915
0.0570027
0.061078
0.0651346
0.0690013
0.0723911
0.0749489
0.0762556
0.0758488
0.0731594
0.0672005
0.0553583
0.0262873
0.00680391
0.0167211
0.0228944
0.0280454
0.0326909
0.0370446
0.0412416
0.0453798
0.0495338
0.0537574
0.0580859
0.0625332
0.0670779
0.0716387
0.0760309
0.0799438
0.0830054
0.0847907
0.0848464
0.0826216
0.0771078
0.0653489
0.032462
0.00752517
0.0183296
0.0249743
0.030471
0.0354299
0.0400914
0.0446028
0.0490687
0.0535691
0.0581633
0.0628912
0.0677726
0.0727927
0.0778762
0.0828217
0.0872987
0.0909022
0.0932039
0.0937592
0.092093
0.0872809
0.0763066
0.0407491
0.00824182
0.0198968
0.0269893
0.0328073
0.0380555
0.0430046
0.0478153
0.0525986
0.0574385
0.0623997
0.067527
0.0728472
0.0783563
0.0839893
0.0895328
0.0946267
0.0988103
0.101642
0.102715
0.101636
0.0976958
0.0885495
0.057639
0.0057825
0.0106203
0.0147085
0.0171999
0.0182794
0.0187844
0.0188137
0.0177761
0.0151746
0.012228
0.0100152
0.00867747
0.0073899
0.0061444
0.00570593
0.00592583
0.00629878
0.00587835
0.00404345
0.0111953
0.0217552
0.0309942
0.0360685
0.0385116
0.0395328
0.0393678
0.0374207
0.0331687
0.0274232
0.0227474
0.0196011
0.0166442
0.0136706
0.0122447
0.0124217
0.0125597
0.0113629
0.00649123
0.0138851
0.0283621
0.0395371
0.0457805
0.048726
0.0497494
0.0491722
0.0465595
0.041743
0.0356354
0.0303078
0.0262623
0.0225234
0.0190811
0.0172553
0.0169691
0.0167273
0.0147475
0.00811471
0.0155556
0.0334402
0.0462538
0.0531369
0.056225
0.0570443
0.0559974
0.0528237
0.0476741
0.0415228
0.0360021
0.0315158
0.027392
0.0237938
0.0217407
0.021148
0.0205031
0.0176112
0.00946258
0.0166544
0.0381845
0.0525058
0.0596627
0.0626139
0.0630713
0.0615079
0.0578247
0.0524268
0.0463137
0.0407807
0.0361031
0.0318362
0.0282773
0.026151
0.0253156
0.0241214
0.0202301
0.0106168
0.0176015
0.0433953
0.0588119
0.0658581
0.0684072
0.068369
0.066254
0.0621015
0.0565143
0.0504985
0.0450545
0.0403355
0.0360858
0.0326732
0.030552
0.0294482
0.0275635
0.0226776
0.0116179
0.0193659
0.0497901
0.0653654
0.0718726
0.0737724
0.0731386
0.070459
0.0658855
0.0601814
0.0543412
0.0490651
0.0444035
0.0402707
0.0370379
0.0349144
0.0334503
0.0307838
0.0249401
0.012497
0.0254146
0.0577793
0.0720929
0.0776022
0.0787248
0.0774434
0.074215
0.0692836
0.063569
0.0580227
0.0529998
0.0484545
0.0444754
0.0414125
0.0392411
0.0372824
0.0337617
0.0270279
0.0133069
0.00937887
0.0223541
0.0300975
0.036386
0.0420559
0.0474309
0.0526953
0.0579679
0.0633301
0.0688541
0.0745967
0.0806004
0.086887
0.0934168
0.099983
0.106145
0.111307
0.114989
0.116868
0.116639
0.113993
0.108165
0.0956608
0.0109547
0.0258521
0.0343694
0.0411946
0.0473674
0.05328
0.0591607
0.0651292
0.071225
0.0775286
0.0841269
0.0910916
0.0985122
0.10646
0.114837
0.122891
0.129541
0.134189
0.136701
0.136949
0.134829
0.130523
0.123585
0.0130854
0.0299358
0.0390621
0.0462761
0.0528686
0.0592663
0.0657951
0.0725602
0.0794328
0.0865244
0.093994
0.101929
0.110519
0.120206
0.131337
0.142222
0.150474
0.155486
0.157742
0.157277
0.153934
0.148971
0.144113
0.0163725
0.0350402
0.0443936
0.0518605
0.0588388
0.0656309
0.0728917
0.080645
0.0882343
0.0961232
0.104495
0.113352
0.123012
0.134814
0.150529
0.164347
0.172126
0.176271
0.177678
0.175875
0.169725
0.161318
0.155641
0.0196298
0.0391632
0.0487566
0.0566026
0.0639982
0.0711364
0.0788108
0.0873111
0.0957699
0.104512
0.113625
0.122973
0.133121
0.146436
0.163927
0.175452
0.179887
0.182828
0.18426
0.182523
0.176295
0.167878
0.160463
0.0188726
0.0396577
0.0515103
0.0599829
0.0673147
0.0748479
0.0828644
0.0917796
0.101559
0.111198
0.120267
0.129161
0.138849
0.151414
0.165096
0.175385
0.180366
0.183331
0.183952
0.181739
0.176607
0.170433
0.166111
0.018315
0.0391782
0.052022
0.0612087
0.069516
0.0778713
0.0863659
0.0958309
0.106136
0.115404
0.123722
0.132234
0.14176
0.153551
0.163994
0.172694
0.181834
0.187045
0.186712
0.183666
0.178417
0.172722
0.169231
0.0172104
0.0380438
0.0509867
0.0610648
0.0704614
0.0798086
0.0889141
0.0982489
0.107489
0.115731
0.12391
0.132671
0.142518
0.153748
0.16261
0.168728
0.177468
0.185113
0.190057
0.19013
0.183378
0.176072
0.171395
0.0163162
0.0369552
0.0499439
0.0604557
0.0702444
0.0798624
0.0891966
0.0981916
0.106648
0.114609
0.123031
0.131856
0.141123
0.150851
0.158825
0.163649
0.169492
0.176254
0.184091
0.191293
0.188147
0.178683
0.171531
0.0160902
0.036413
0.0492597
0.0597058
0.0693064
0.0785879
0.0875658
0.0961301
0.104219
0.112259
0.121217
0.130372
0.138913
0.14708
0.153908
0.158282
0.162334
0.167246
0.173386
0.179326
0.181455
0.176805
0.169482
0.0163689
0.0366541
0.0490669
0.059099
0.0681711
0.076818
0.0851688
0.0932007
0.100969
0.108915
0.117757
0.127126
0.135791
0.143103
0.148796
0.152544
0.155484
0.158884
0.163142
0.166703
0.167775
0.166132
0.162301
0.016928
0.0373915
0.0493086
0.05876
0.0671812
0.0751157
0.0827691
0.0902112
0.097549
0.105099
0.113275
0.121955
0.130381
0.137494
0.142732
0.145966
0.148232
0.150785
0.153875
0.156122
0.156143
0.154209
0.151153
0.017575
0.0382567
0.049734
0.0586027
0.0663902
0.0736528
0.0806399
0.0874755
0.0942747
0.101231
0.108549
0.116161
0.123604
0.130155
0.135153
0.138385
0.140621
0.142883
0.145311
0.146861
0.146518
0.144424
0.141214
0.0182507
0.0389611
0.0500581
0.0584301
0.0656677
0.0723463
0.0787379
0.0849889
0.0912037
0.0974912
0.10394
0.110493
0.116864
0.122586
0.127199
0.130519
0.132954
0.135123
0.137081
0.138161
0.137711
0.135759
0.132781
0.0187432
0.0393523
0.0501094
0.0580626
0.0648393
0.0710257
0.0769014
0.0826194
0.0882681
0.0939031
0.0995589
0.105192
0.110633
0.115583
0.119755
0.123008
0.125508
0.127552
0.129152
0.12993
0.12949
0.127827
0.125266
0.01897
0.0393395
0.0497777
0.0573717
0.0637618
0.0695349
0.0749699
0.0802178
0.0853529
0.0904093
0.0953979
0.100283
0.104961
0.109259
0.112994
0.116052
0.118467
0.120354
0.121699
0.122295
0.121922
0.12057
0.11845
0.0189047
0.0388824
0.0490066
0.0562853
0.0623469
0.0677715
0.0728324
0.0776759
0.0823687
0.0869362
0.0913818
0.0956786
0.0997608
0.103524
0.106851
0.109651
0.111902
0.113625
0.114793
0.115293
0.115009
0.113942
0.112231
0.0185444
0.0379765
0.0477819
0.0547782
0.0605579
0.0656877
0.0704333
0.0749361
0.0792576
0.0834229
0.0874342
0.0912719
0.0948922
0.0982282
0.1012
0.103738
0.105801
0.107373
0.10842
0.108879
0.108695
0.107878
0.106526
0.0179022
0.0366449
0.046122
0.0528622
0.0583986
0.0632791
0.0677614
0.0719788
0.0759931
0.0798315
0.0834977
0.0869775
0.09024
0.0932389
0.0959182
0.0982229
0.100111
0.101555
0.102523
0.10298
0.1029
0.102304
0.101261
0.0170116
0.0349375
0.0440734
0.050577
0.0559022
0.060573
0.0648338
0.0688126
0.0725748
0.076149
0.079541
0.082741
0.085726
0.0884621
0.0909081
0.0930214
0.0947654
0.0961117
0.0970359
0.0975169
0.0975476
0.0971491
0.0963727
0.0159277
0.0329387
0.0417078
0.047985
0.0531239
0.0576128
0.0616864
0.0654688
0.0690256
0.0723868
0.0755608
0.0785414
0.0813113
0.0838448
0.0861106
0.0880762
0.0897118
0.0909935
0.0919032
0.0924294
0.0925736
0.0923561
0.0918154
0.0147886
0.030705
0.0391108
0.0451672
0.0501347
0.0544652
0.0583807
0.0620011
0.0653907
0.0685809
0.0715819
0.0743907
0.0769945
0.0793737
0.0815047
0.0833625
0.0849241
0.0861712
0.087091
0.0876783
0.0879382
0.0878889
0.0875597
0.0135966
0.0283583
0.0363786
0.04222
0.0470256
0.0512145
0.0549953
0.0584821
0.0617367
0.0647906
0.0676554
0.0703306
0.0728075
0.0750713
0.0771044
0.078888
0.0804051
0.0816423
0.0825913
0.0832502
0.0836256
0.083733
0.0835946
0.0123651
0.0259679
0.0335894
0.0392299
0.0438881
0.0479538
0.0516227
0.0550017
0.0581496
0.0610966
0.0638557
0.0664286
0.0688097
0.0709888
0.072953
0.0746889
0.0761841
0.0774294
0.0784197
0.0791552
0.0796423
0.0798936
0.0799264
0.0111169
0.023569
0.0308368
0.03629
0.0408222
0.0447887
0.0483706
0.0516672
0.0547335
0.0575989
0.0602773
0.0627725
0.0650819
0.0671993
0.0691158
0.0708223
0.0723106
0.0735745
0.0746111
0.0754217
0.076012
0.0763921
0.0765749
0.00992376
0.0213251
0.0282574
0.0335328
0.0379583
0.0418489
0.045367
0.0486029
0.0516082
0.0544116
0.0570278
0.0594629
0.0617174
0.063788
0.06567
0.0673575
0.0688457
0.0701308
0.0712116
0.0720897
0.07277
0.0732602
0.0735701
0.00889333
0.019436
0.0260297
0.0311327
0.0354602
0.0392874
0.0427551
0.0459436
0.0489004
0.0516534
0.0542182
0.0566031
0.058811
0.060842
0.0626944
0.0643653
0.0658526
0.0671544
0.0682707
0.0692032
0.0699559
0.0705346
0.0709467
0.00811952
0.0180285
0.0243186
0.0292572
0.033489
0.0372542
0.0406739
0.0438178
0.046729
0.0494341
0.0519497
0.0542857
0.0564477
0.0584384
0.0602586
0.0619084
0.0633873
0.0646954
0.0658334
0.0668029
0.0676072
0.0682507
0.0687387
0.00764491
0.0171617
0.0232202
0.0280198
0.0321626
0.035865
0.0392329
0.0423276
0.0451881
0.0478402
0.0503011
0.0525826
0.0546923
0.0566354
0.0584152
0.0600336
0.0614921
0.0627919
0.0639343
0.0649211
0.0657547
0.0664384
0.066976
0.00746138
0.0168351
0.0227624
0.0274687
0.0315415
0.0351855
0.0384983
0.0415366
0.0443374
0.0469263
0.0493221
0.0515382
0.0535847
0.0554686
0.0571954
0.058769
0.0601921
0.0614669
0.0625953
0.063579
0.0644198
0.0651201
0.0656822
0.00753488
0.0170188
0.0229309
0.0276053
0.0316392
0.0352371
0.0384957
0.0414714
0.0442023
0.0467161
0.0490337
0.0511712
0.0531407
0.0549517
0.0566114
0.0581252
0.0594971
0.0607302
0.0618266
0.0627879
0.0636156
0.0643109
0.064876
0.00783074
0.0176794
0.0236994
0.0284124
0.0324466
0.0360164
0.0392245
0.0421326
0.0447836
0.0472096
0.0494354
0.0514801
0.0533587
0.0550828
0.0566612
0.0581009
0.0594067
0.0605824
0.0616306
0.0625526
0.0633496
0.064022
0.0645705
0.00832881
0.0187992
0.0250541
0.0298793
0.033954
0.0375131
0.0406734
0.0435077
0.0460678
0.048393
0.0505133
0.052452
0.0542268
0.0558513
0.0573361
0.058689
0.0599159
0.0610212
0.0620075
0.0628765
0.063628
0.0642618
0.0647779
0.0090298
0.0203903
0.0270077
0.0320135
0.0361607
0.0397184
0.0428266
0.0455759
0.0480317
0.0502427
0.0522453
0.0540672
0.0557286
0.0572446
0.0586267
0.0598835
0.0610218
0.0620465
0.0629608
0.0637649
0.0644588
0.065042
0.0655137
0.00995749
0.0224996
0.0295999
0.0348366
0.0390685
0.0426165
0.045656
0.0483022
0.0506377
0.0527221
0.054599
0.0562992
0.0578445
0.0592501
0.0605269
0.0616838
0.0627282
0.0636659
0.0644995
0.0652298
0.0658575
0.0663819
0.0668016
0.0111585
0.0252018
0.0328783
0.0383594
0.0426549
0.0461611
0.0491005
0.051619
0.0538183
0.0557696
0.0575218
0.0591077
0.0605477
0.0618543
0.0630352
0.0640974
0.0650489
0.0658965
0.0666436
0.0672945
0.0678507
0.0683116
0.0686751
0.0126972
0.0285688
0.0368544
0.0425356
0.0468319
0.0502388
0.0530353
0.0554004
0.0574544
0.0592781
0.0609241
0.062424
0.0637936
0.0650372
0.0661532
0.0671418
0.0680109
0.0687689
0.0694283
0.0699971
0.070479
0.0708741
0.0711807
0.0146365
0.032606
0.0414366
0.0472048
0.0514
0.054634
0.0572436
0.0594376
0.0613513
0.0630722
0.0646548
0.0661284
0.0675005
0.06876
0.069883
0.0708473
0.0716557
0.0723334
0.0729066
0.0733921
0.0737984
0.0741276
0.0743784
0.0169919
0.0371589
0.0463588
0.0520457
0.0560211
0.0590125
0.0614048
0.0634271
0.0652237
0.0668872
0.0684752
0.0700178
0.0715174
0.0729422
0.0742216
0.07526
0.0760527
0.0766642
0.077153
0.0775539
0.0778832
0.0781464
0.0783435
0.0196646
0.0418275
0.0511388
0.0565686
0.0602289
0.0629397
0.0651124
0.0669836
0.068701
0.0703624
0.0720352
0.0737644
0.0755673
0.0774101
0.0791504
0.0804675
0.0813124
0.0818682
0.0822682
0.0825787
0.0828272
0.0830231
0.0831677
0.0223757
0.0459251
0.055091
0.0601599
0.0634864
0.0659373
0.0679264
0.0696861
0.0713636
0.0730642
0.0748747
0.0768778
0.0791564
0.0817659
0.0845655
0.0866513
0.0876163
0.0880945
0.0883824
0.0885878
0.088747
0.0888709
0.0889617
0.0244862
0.0484939
0.0574118
0.0621889
0.0652867
0.067575
0.0694568
0.0711569
0.0728213
0.0745619
0.0764857
0.0787225
0.0814664
0.0850341
0.0897611
0.0943047
0.0952647
0.0955369
0.095655
0.095729
0.0957844
0.0958271
0.0958583
0.0681492
0.0545447
0.047921
0.046152
0.113689
0.105908
0.097796
0.0904846
0.136864
0.12997
0.122158
0.115142
0.149241
0.143738
0.137444
0.131362
0.154981
0.151631
0.148251
0.143942
0.161952
0.158432
0.154656
0.150605
0.165993
0.162686
0.158653
0.15449
0.168218
0.166104
0.162966
0.158128
0.167281
0.164576
0.161404
0.157463
0.16474
0.161772
0.158683
0.155246
0.158293
0.155444
0.152308
0.148957
0.148209
0.146018
0.143523
0.140775
0.138402
0.136462
0.134377
0.132158
0.130189
0.128422
0.126569
0.124632
0.123005
0.121454
0.119827
0.11813
0.116543
0.11522
0.113825
0.112361
0.110655
0.109547
0.10837
0.107126
0.105245
0.104331
0.10335
0.102306
0.100237
0.0994955
0.098691
0.0978276
0.0955745
0.0949858
0.0943389
0.0936374
0.0912164
0.0907641
0.0902583
0.0897019
0.0871384
0.0868081
0.0864287
0.0860027
0.083332
0.083111
0.0828448
0.0825351
0.0798044
0.0796803
0.0795143
0.0793075
0.0765753
0.0765356
0.0764567
0.0763394
0.0736738
0.0737053
0.0736999
0.0736581
0.0711334
0.0712224
0.0712764
0.0712956
0.0689879
0.0691204
0.0692195
0.0692857
0.0672675
0.0674297
0.0675604
0.0676595
0.0659974
0.0661768
0.066326
0.0664445
0.0651979
0.0653827
0.0655382
0.0656639
0.0648842
0.0650643
0.065216
0.0653387
0.0650714
0.0652388
0.0653789
0.0654907
0.0657786
0.0659278
0.0660505
0.0661459
0.0670325
0.06716
0.0672622
0.0673381
0.0688697
0.0689744
0.0690552
0.0691109
0.0713393
0.0714218
0.0714822
0.0715194
0.0745033
0.0745659
0.0746086
0.0746306
0.0784381
0.0784837
0.0785124
0.0785237
0.0832352
0.0832666
0.0832851
0.0832903
0.0890034
0.0890225
0.0890334
0.0890358
0.0958726
0.0958791
0.0958828
0.0958836
0.050764
0.0719979
0.0824998
0.0859682
0.0857606
0.0833779
0.0793201
0.0739767
0.0685402
0.063708
0.059244
0.0549351
0.0511604
0.0483207
0.0458986
0.0426816
0.0375505
0.0295047
0.0142123
0.0838302
0.0900669
0.0943529
0.0949173
0.0930469
0.089584
0.0847919
0.0793369
0.07456
0.0709471
0.0676006
0.0639086
0.0604196
0.0576721
0.0541909
0.0490334
0.0420621
0.032894
0.0162606
0.10737
0.105282
0.104322
0.102102
0.0986447
0.0942928
0.0892775
0.0841308
0.0801312
0.0775568
0.0752018
0.0723815
0.0691044
0.0654595
0.0607801
0.0541819
0.0459631
0.0361157
0.0185118
0.123816
0.117633
0.112988
0.108305
0.103363
0.0983373
0.0933981
0.0888192
0.0857019
0.0839203
0.0820849
0.0794089
0.0756103
0.071067
0.0656336
0.0581479
0.0485759
0.038853
0.0193816
0.136334
0.127605
0.120427
0.113705
0.107557
0.102124
0.0974349
0.0936463
0.0916243
0.0910786
0.0895923
0.0863781
0.0809589
0.075494
0.0695367
0.0603934
0.0486242
0.0376511
0.0172715
0.14348
0.133589
0.12554
0.118615
0.112226
0.106402
0.101337
0.0973059
0.0947889
0.0934508
0.0917633
0.0888985
0.0829579
0.0767073
0.0700619
0.0585088
0.0450303
0.031925
0.0146511
0.14758
0.13808
0.129753
0.122196
0.115732
0.10992
0.104712
0.100069
0.095996
0.0924618
0.0892314
0.0860163
0.0817805
0.0797278
0.0740811
0.0591988
0.0428448
0.029255
0.0129395
0.150157
0.140604
0.131985
0.124092
0.117457
0.111768
0.106611
0.101603
0.0965978
0.0918132
0.0875985
0.0834104
0.0794824
0.0767438
0.069189
0.0555439
0.0414031
0.0286961
0.0128167
0.150819
0.141396
0.132618
0.124771
0.118257
0.112799
0.10773
0.102257
0.096225
0.0904135
0.0858894
0.0813966
0.0760065
0.0706368
0.0631957
0.0527129
0.0413207
0.0292956
0.0134061
0.149425
0.140068
0.131115
0.123305
0.116747
0.110938
0.105293
0.0994402
0.0933878
0.0877298
0.0830339
0.0786937
0.0729507
0.0668109
0.059932
0.0515821
0.0416747
0.0299455
0.0138986
0.143498
0.135235
0.127113
0.119652
0.113008
0.106903
0.10104
0.09536
0.089904
0.0847014
0.0800006
0.0754888
0.0702844
0.0644202
0.0581942
0.0509532
0.0417948
0.0303769
0.0141519
0.136087
0.129033
0.121855
0.114999
0.108691
0.10282
0.0972215
0.091862
0.0867839
0.0818988
0.0772705
0.0727698
0.0679154
0.0624831
0.0567826
0.0500714
0.0413597
0.0301602
0.0141136
0.128276
0.122369
0.116268
0.110255
0.104515
0.0990731
0.0938878
0.08892
0.0841483
0.0794776
0.0749242
0.0704687
0.0657892
0.0607049
0.0553391
0.0489093
0.0405188
0.0295151
0.013977
0.121266
0.116211
0.110986
0.105769
0.100684
0.0957879
0.0910611
0.086443
0.0819069
0.077399
0.0729069
0.06846
0.0638736
0.0590327
0.0538689
0.0476548
0.0396347
0.029045
0.0140586
0.115175
0.110803
0.106288
0.101749
0.0972734
0.0929029
0.0885944
0.0842843
0.0799576
0.0756014
0.0711959
0.0667501
0.0622006
0.057498
0.0524615
0.0465034
0.0390183
0.0291651
0.0144707
0.109801
0.106026
0.102113
0.0981503
0.0941967
0.0902743
0.0863452
0.0823372
0.078231
0.0740442
0.069764
0.0653685
0.0608576
0.0562338
0.0513207
0.0456908
0.0388659
0.0299247
0.0151241
0.104938
0.101704
0.0983267
0.0948712
0.091375
0.0878465
0.0842552
0.080544
0.0766904
0.0726977
0.0685695
0.0642885
0.0598758
0.0553564
0.0506111
0.0453419
0.0391504
0.0310558
0.0158767
0.10046
0.0977142
0.0948197
0.0918218
0.0887418
0.0855785
0.0823039
0.0788778
0.0752828
0.0715203
0.0675857
0.0634725
0.059222
0.054864
0.0503258
0.0453917
0.0396975
0.0322275
0.0166343
0.0962893
0.0939805
0.0915199
0.0889389
0.0862453
0.0834287
0.0804614
0.0773166
0.0739857
0.0704672
0.0667592
0.0628679
0.0588281
0.0546733
0.0503589
0.0457076
0.0403467
0.033157
0.0173548
0.0923765
0.0904587
0.0883863
0.0861824
0.0838464
0.0813597
0.0786947
0.0758334
0.0727724
0.0695106
0.0660505
0.0624052
0.0586067
0.0546812
0.0505894
0.0461648
0.0410076
0.0339043
0.0178842
0.0886904
0.0871228
0.0853984
0.0835335
0.0815231
0.0793462
0.0769769
0.0743998
0.0716119
0.0686145
0.0654138
0.0620263
0.0584789
0.0547871
0.0509057
0.046663
0.0416253
0.0344898
0.0182357
0.0852148
0.0839603
0.0825474
0.080987
0.0792718
0.077382
0.0752945
0.0729942
0.0704768
0.0677449
0.0648067
0.0616784
0.0583802
0.0549155
0.0512277
0.0471326
0.0421637
0.0349375
0.0184148
0.0819469
0.0809706
0.0798352
0.0785471
0.0770984
0.0754714
0.073646
0.0716076
0.069351
0.0668781
0.0641973
0.0613217
0.0582634
0.0550129
0.0514999
0.0475247
0.0425933
0.0352552
0.0184291
0.0788958
0.0781641
0.077273
0.076226
0.0750151
0.073625
0.0720385
0.0702422
0.0682301
0.0660029
0.0635669
0.0609308
0.0580971
0.0550436
0.0516854
0.0478073
0.042894
0.0354535
0.018382
0.0760808
0.0755604
0.0748807
0.0740433
0.0730408
0.0718602
0.0704868
0.0689089
0.0671198
0.0651187
0.0629089
0.0604929
0.0578642
0.0549874
0.0517642
0.0479662
0.0430656
0.035558
0.0183704
0.0735288
0.0731862
0.0726848
0.0720251
0.0712005
0.0702001
0.0690119
0.0676253
0.0660336
0.0642342
0.0622263
0.0600067
0.0575592
0.0548372
0.0517308
0.0480026
0.0431219
0.0355902
0.01836
0.0712715
0.0710731
0.0707165
0.0702019
0.0695237
0.068673
0.0676397
0.0664147
0.0649911
0.0633645
0.0615304
0.0594793
0.057187
0.054597
0.0515904
0.0479249
0.0430734
0.0355512
0.0183098
0.0693422
0.0692544
0.0690092
0.0686069
0.0680429
0.06731
0.0663997
0.0653041
0.0640164
0.0625304
0.0608383
0.0589253
0.0567601
0.0542786
0.0513552
0.0477449
0.0429256
0.0354303
0.0182221
0.0677725
0.0677626
0.0675964
0.0672741
0.066792
0.0661443
0.0653239
0.0643238
0.0631372
0.0617569
0.0601724
0.0583646
0.0562969
0.0538995
0.0510423
0.0474781
0.0426868
0.0352174
0.0181023
0.0665911
0.0666286
0.0665106
0.0662375
0.0658059
0.0652111
0.0644469
0.0635072
0.0623855
0.0610738
0.0595598
0.0578219
0.0558199
0.0534806
0.0506712
0.0471427
0.0423733
0.0349194
0.0179355
0.0658238
0.0658812
0.0657838
0.0655314
0.065121
0.0645481
0.0638072
0.0628927
0.0617983
0.060516
0.0590331
0.0573267
0.0553555
0.0530451
0.0502621
0.046757
0.0420049
0.0345578
0.0176817
0.0654947
0.0655488
0.0654484
0.0651924
0.0647772
0.0641979
0.0634492
0.0625254
0.0614207
0.0601273
0.0586331
0.056916
0.0549358
0.0526195
0.0498354
0.0463355
0.0415934
0.034148
0.0173278
0.0656295
0.0656623
0.0655405
0.0652614
0.0648202
0.0642108
0.0634269
0.0624621
0.0613104
0.0599646
0.0584139
0.0566388
0.054603
0.0522378
0.0494161
0.0458935
0.0411458
0.0337099
0.0169877
0.0662584
0.0662578
0.0661024
0.0657874
0.0653057
0.064649
0.0638085
0.0627762
0.0615444
0.0601056
0.0584506
0.0565642
0.0544168
0.0519489
0.0490427
0.0454614
0.040688
0.0332783
0.0167309
0.0674194
0.0673798
0.0671857
0.0668298
0.0663018
0.0655899
0.0646815
0.0635644
0.0622269
0.0606591
0.0588516
0.0567937
0.054466
0.0518253
0.0487726
0.0450871
0.0402625
0.0328742
0.0165138
0.0691606
0.0690829
0.0688531
0.0684607
0.0678918
0.0671298
0.0661566
0.0649527
0.0634991
0.0617781
0.0597752
0.0574804
0.054886
0.0519747
0.0486845
0.0448276
0.0399108
0.0325073
0.0162506
0.0715409
0.0714331
0.0711788
0.0707649
0.0701736
0.0693833
0.0683684
0.0670999
0.065546
0.0636732
0.0614508
0.0588574
0.0558897
0.0525645
0.0488892
0.044748
0.0396712
0.0322036
0.0159304
0.0746309
0.0745065
0.0742469
0.0738369
0.073256
0.0724781
0.0714704
0.0701927
0.0685955
0.0666201
0.064201
0.0612773
0.0578204
0.0538704
0.0495563
0.0449354
0.0395891
0.0320116
0.0157227
0.0785118
0.0783886
0.0781485
0.0777761
0.0772504
0.0765435
0.0756182
0.0744254
0.0728982
0.0709457
0.0684468
0.0652538
0.0612314
0.0563628
0.0509452
0.0455033
0.0397198
0.0319876
0.0157346
0.0832752
0.083172
0.0829779
0.0826799
0.0822599
0.0816926
0.080943
0.0799613
0.0786734
0.0769653
0.0746569
0.0714691
0.0670141
0.0609335
0.0534522
0.0465747
0.0400958
0.0321431
0.0159304
0.0890249
0.0889573
0.0888321
0.0886409
0.0883717
0.0880074
0.0875234
0.0868827
0.086026
0.0848515
0.0831712
0.0806195
0.076474
0.0693911
0.057525
0.0481761
0.0406832
0.0324421
0.016289
0.0958799
0.0958568
0.0958145
0.0957503
0.0956604
0.0955391
0.0953783
0.0951656
0.0948797
0.0944812
0.0938856
0.0928814
0.090833
0.0853328
0.0627059
0.0498301
0.0412543
0.0327266
0.0166261
)
;

boundaryField
{
    leftWall
    {
        type            kqRWallFunction;
        value           nonuniform List<scalar> 
50
(
0.00166337
0.00323264
0.00434304
0.00526038
0.00606369
0.00680391
0.00752517
0.00824182
0.00937887
0.0109547
0.0130854
0.0163725
0.0196298
0.0188726
0.018315
0.0172104
0.0163162
0.0160902
0.0163689
0.016928
0.017575
0.0182507
0.0187432
0.01897
0.0189047
0.0185444
0.0179022
0.0170116
0.0159277
0.0147886
0.0135966
0.0123651
0.0111169
0.00992376
0.00889333
0.00811952
0.00764491
0.00746138
0.00753488
0.00783074
0.00832881
0.0090298
0.00995749
0.0111585
0.0126972
0.0146365
0.0169919
0.0196646
0.0223757
0.0244862
)
;
    }
    rightWall
    {
        type            kqRWallFunction;
        value           nonuniform List<scalar> 
50
(
0.00404345
0.00649123
0.00811471
0.00946258
0.0106168
0.0116179
0.012497
0.0133069
0.0142123
0.0162606
0.0185118
0.0193816
0.0172715
0.0146511
0.0129395
0.0128167
0.0134061
0.0138986
0.0141519
0.0141136
0.013977
0.0140586
0.0144707
0.0151241
0.0158767
0.0166343
0.0173548
0.0178842
0.0182357
0.0184148
0.0184291
0.018382
0.0183704
0.01836
0.0183098
0.0182221
0.0181023
0.0179355
0.0176817
0.0173278
0.0169877
0.0167309
0.0165138
0.0162506
0.0159304
0.0157227
0.0157346
0.0159304
0.016289
0.0166261
)
;
    }
    lowerWall
    {
        type            kqRWallFunction;
        value           nonuniform List<scalar> 
62
(
0.00166337
0.00362499
0.00531369
0.0067176
0.00795601
0.00910017
0.0101929
0.0112621
0.0123316
0.0134093
0.0144961
0.0155898
0.0166774
0.0177273
0.0186789
0.0194357
0.0198708
0.0198614
0.0191024
0.0176434
0.0151628
0.0110184
0.0046018
0.0046018
0.0110271
0.0158841
0.0207728
0.0262873
0.032462
0.0407491
0.057639
0.0681492
0.0545447
0.047921
0.046152
0.0057825
0.0111953
0.0138851
0.0155556
0.0166544
0.0176015
0.0193659
0.0254146
0.0057825
0.0106203
0.0147085
0.0171999
0.0182794
0.0187844
0.0188137
0.0177761
0.0151746
0.012228
0.0100152
0.00867747
0.0073899
0.0061444
0.00570593
0.00592583
0.00629878
0.00587835
0.00404345
)
;
    }
    atmosphere
    {
        type            inletOutlet;
        inletValue      uniform 0.1;
        value           nonuniform List<scalar> 
46
(
0.0244862
0.0484939
0.0574118
0.0621889
0.0652867
0.067575
0.0694568
0.0711569
0.0728213
0.0745619
0.0764857
0.0787225
0.0814664
0.0850341
0.0897611
0.1
0.1
0.1
0.1
0.1
0.1
0.1
0.1
0.1
0.1
0.1
0.1
0.1
0.1
0.1
0.1
0.1
0.1
0.1
0.1
0.1
0.1
0.1
0.1
0.1
0.1
0.0627059
0.0498301
0.0412543
0.0327266
0.0166261
)
;
    }
    defaultFaces
    {
        type            empty;
    }
}


// ************************************************************************* //
