/*--------------------------------*- C++ -*----------------------------------*\
| =========                 |                                                 |
| \\      /  F ield         | OpenFOAM: The Open Source CFD Toolbox           |
|  \\    /   O peration     | Version:  2.3.0                                 |
|   \\  /    A nd           | Web:      www.OpenFOAM.org                      |
|    \\/     M anipulation  |                                                 |
\*---------------------------------------------------------------------------*/
FoamFile
{
    version     2.0;
    format      ascii;
    class       volScalarField;
    location    "2.25";
    object      p;
}
// * * * * * * * * * * * * * * * * * * * * * * * * * * * * * * * * * * * * * //

dimensions      [1 -1 -2 0 0 0 0];

internalField   nonuniform List<scalar> 
2268
(
684.865
684.052
683.254
682.33
681.289
680.174
679.047
677.978
677.04
676.279
675.747
675.473
675.475
675.762
676.335
677.196
678.346
679.785
681.307
683.679
686.985
689.904
691.666
626.224
625.363
624.525
623.586
622.53
621.393
620.229
619.109
618.102
617.275
616.675
616.34
616.293
616.555
617.149
618.104
619.451
621.344
624.095
626.665
628.758
630.717
632.534
567.606
566.803
565.922
564.949
563.854
562.667
561.437
560.234
559.133
558.204
557.505
557.08
556.963
557.189
557.803
558.86
560.423
562.742
566.488
569.144
570.506
571.401
573.625
509.035
508.329
507.399
506.375
505.217
503.956
502.639
501.335
500.122
499.08
498.274
497.756
497.569
497.758
498.378
499.499
501.209
503.717
507.657
510.662
512.058
512.334
515.22
450.529
449.911
448.935
447.84
446.6
445.246
443.823
442.404
441.07
439.909
438.996
438.388
438.135
438.285
438.894
440.032
441.792
444.299
447.95
451.373
453.11
453.739
457.345
392.089
391.534
390.52
389.339
388
386.535
384.992
383.443
381.974
380.683
379.657
378.957
378.637
378.744
379.326
380.441
382.172
384.594
387.929
391.32
393.414
394.916
399.991
333.713
333.205
332.151
330.872
329.42
327.83
326.151
324.457
322.833
321.393
320.238
319.437
319.043
319.103
319.644
320.699
322.339
324.623
327.684
330.849
333.174
335.794
343.071
275.416
274.929
273.827
272.435
270.853
269.127
267.303
265.45
263.65
262.038
260.74
259.827
259.359
259.376
259.872
260.834
262.313
264.397
267.216
270.307
273.05
276.79
287.112
824.668
817.506
815.649
815.194
814.366
811.375
805.352
796.137
785.666
781.984
783.271
783.414
781.073
775.886
772.607
773.592
779.598
787.276
787.237
769.217
761.004
757.131
756.503
755.66
752.624
746.7
738.637
730.789
726.954
726.779
726.411
724.49
721.457
717.781
715.365
719.737
727.394
728.742
712.012
703.398
698.788
697.647
696.359
692.9
686.867
679.853
674.408
672.901
671.82
669.86
668.648
667.741
663.935
659.912
662.222
667.269
668.906
653.069
644.808
641.129
639.767
638.132
634.417
628.343
621.272
616.398
617.67
617.535
614.39
612.906
613.444
609.372
604.909
605.396
606.462
607.585
592.933
586.046
583.833
582.473
580.694
576.912
570.87
563.456
557.802
560.143
561.17
558.113
556.479
558.079
554.209
549.298
546.945
545.007
545.963
532.289
527.558
526.717
525.467
523.733
520.069
514.224
506.268
498.366
500.305
503.015
500.566
499.217
500.872
498.21
492.451
487.072
483.668
484.205
471.302
469.353
469.537
468.579
467.1
463.77
458.444
450.906
440.803
439.243
442.891
442.485
441.419
442.06
439.636
433.734
426.967
422.462
422.348
407.887
410.217
411.829
411.691
410.71
407.953
403.63
397.604
389.99
386.476
384.886
384.269
383.594
382.547
379.155
373.126
366.955
361.49
360.53
184.407
183.893
182.672
181.061
179.241
177.282
175.226
173.13
171.065
169.211
167.739
166.708
166.172
166.162
166.615
167.43
168.628
170.345
172.78
175.898
179.641
185.321
198.036
69.7386
69.2548
68.2548
66.9911
65.5521
63.9487
62.2427
60.5309
58.8895
57.5207
56.465
55.715
55.2997
55.23
55.5696
56.2038
57.2021
58.4643
60.0675
62.2932
65.2644
70.2268
81.0909
8.30796
8.20687
8.07555
7.80168
7.40608
6.85831
6.24477
5.79903
5.5107
5.28361
5.08127
4.91534
4.77505
4.64994
4.91082
5.58784
6.63887
7.7287
8.75386
9.85495
10.8503
11.8913
14.5878
-0.00307711
0.0372955
0.295606
0.429271
0.484889
0.466347
0.371635
0.55754
0.926319
1.10861
1.24268
1.33757
1.3726
1.38119
1.59298
2.44817
3.47001
4.2907
5.08896
5.85594
6.30742
6.30809
5.96605
-0.498769
-0.507834
-0.416125
-0.327466
-0.222831
-0.133051
-0.0724768
-0.00644766
0.077773
0.23438
0.38265
0.540823
0.699462
0.79034
0.890901
1.32614
2.21354
3.21846
3.98016
4.46755
4.57975
4.38245
4.04787
-0.917997
-0.946121
-0.982336
-0.974143
-0.930001
-0.833387
-0.706957
-0.700857
-0.772679
-0.717783
-0.604657
-0.461266
-0.30789
-0.181201
-0.0641463
-0.0651432
0.21988
0.907224
1.61612
2.31156
2.71349
3.08546
3.24381
-1.14728
-1.15018
-1.15031
-1.14644
-1.15057
-1.15435
-1.13835
-1.10874
-1.05447
-0.980619
-0.880052
-0.785578
-0.713027
-0.663103
-0.623648
-0.684248
-0.746082
-0.696033
-0.476292
0.0768089
0.689883
1.50964
2.26726
-1.27617
-1.27792
-1.27859
-1.27746
-1.27773
-1.27478
-1.26319
-1.24114
-1.20886
-1.16764
-1.10439
-1.02693
-0.958876
-0.900142
-0.901354
-0.955044
-1.00403
-0.990411
-1.00203
-1.0663
-0.956021
-0.520928
0.553377
-1.40523
-1.4054
-1.4057
-1.40487
-1.40395
-1.40051
-1.39162
-1.37787
-1.36139
-1.35024
-1.34635
-1.31305
-1.24901
-1.17227
-1.14067
-1.17112
-1.20142
-1.20899
-1.23609
-1.27799
-1.35985
-1.41137
-1.15853
-1.53537
-1.53482
-1.53471
-1.53415
-1.53317
-1.53073
-1.52571
-1.51867
-1.51229
-1.51401
-1.53041
-1.5356
-1.51392
-1.47089
-1.41872
-1.40816
-1.41273
-1.42329
-1.44049
-1.48267
-1.54012
-1.62575
-1.7525
-1.66644
-1.66572
-1.66544
-1.66512
-1.66445
-1.6631
-1.66088
-1.65816
-1.65695
-1.66133
-1.67206
-1.6814
-1.6951
-1.69514
-1.67542
-1.64704
-1.63235
-1.63605
-1.65378
-1.69002
-1.73588
-1.79277
-1.85343
-1.79805
-1.7975
-1.79726
-1.79709
-1.79679
-1.79626
-1.79558
-1.79516
-1.79618
-1.80066
-1.80898
-1.81763
-1.82655
-1.83632
-1.84251
-1.83459
-1.83048
-1.83901
-1.86054
-1.88066
-1.90542
-1.94417
-1.989
-1.92988
-1.92975
-1.92969
-1.92966
-1.92966
-1.92969
-1.92989
-1.93061
-1.9326
-1.93682
-1.94348
-1.9511
-1.95917
-1.96668
-1.9725
-1.97858
-1.99338
-2.01342
-2.03086
-2.03619
-2.04989
-2.07589
-2.10745
-2.06178
-2.06212
-2.06234
-2.06248
-2.06269
-2.06307
-2.06378
-2.0651
-2.06748
-2.07142
-2.07701
-2.08367
-2.09102
-2.09842
-2.10561
-2.1147
-2.13095
-2.14885
-2.16077
-2.16908
-2.18244
-2.203
-2.22474
-2.19363
-2.1944
-2.19491
-2.19522
-2.19559
-2.19618
-2.19716
-2.19876
-2.20125
-2.20497
-2.20992
-2.21587
-2.22261
-2.22991
-2.23781
-2.24727
-2.2598
-2.27337
-2.28523
-2.29608
-2.30972
-2.32703
-2.344
-2.32535
-2.32642
-2.32717
-2.32764
-2.32814
-2.32887
-2.32999
-2.33169
-2.33418
-2.33766
-2.34217
-2.34761
-2.35386
-2.36084
-2.36861
-2.3776
-2.38827
-2.39971
-2.41071
-2.42174
-2.43441
-2.4489
-2.46392
-2.45684
-2.45808
-2.45898
-2.45959
-2.46022
-2.46108
-2.46229
-2.46401
-2.46643
-2.46967
-2.47381
-2.47881
-2.4846
-2.49115
-2.49848
-2.50678
-2.51618
-2.52619
-2.53629
-2.54669
-2.55798
-2.57012
-2.58252
-2.58802
-2.58928
-2.59024
-2.59099
-2.59177
-2.59276
-2.59406
-2.5958
-2.59812
-2.60114
-2.60494
-2.60952
-2.61484
-2.62089
-2.62767
-2.63524
-2.64359
-2.65248
-2.66163
-2.67107
-2.68096
-2.69115
-2.70123
-2.7188
-2.71992
-2.72087
-2.72176
-2.72274
-2.72389
-2.72531
-2.72708
-2.72933
-2.73216
-2.73564
-2.73981
-2.74466
-2.75017
-2.75634
-2.76316
-2.77061
-2.77851
-2.7867
-2.79513
-2.80376
-2.81239
-2.82068
-2.84908
-2.84993
-2.85083
-2.85193
-2.85315
-2.85448
-2.85602
-2.85784
-2.86005
-2.86272
-2.86594
-2.86973
-2.87412
-2.8791
-2.88465
-2.89076
-2.89737
-2.90438
-2.91166
-2.91913
-2.92668
-2.93409
-2.94116
-2.97877
-2.97921
-2.98016
-2.98162
-2.98308
-2.98457
-2.98619
-2.98806
-2.99024
-2.9928
-2.99579
-2.99927
-3.00325
-3.00774
-3.01271
-3.01816
-3.02402
-3.03023
-3.03668
-3.04328
-3.04991
-3.05635
-3.06249
-3.1086
-3.1089
-3.10957
-3.11123
-3.11278
-3.11427
-3.11588
-3.11773
-3.11986
-3.12233
-3.12515
-3.12838
-3.13201
-3.13608
-3.14055
-3.14541
-3.15063
-3.15613
-3.16184
-3.16767
-3.17351
-3.17917
-3.18456
-3.23996
-3.24008
-3.24017
-3.24129
-3.24245
-3.2437
-3.24516
-3.24691
-3.24895
-3.25131
-3.25399
-3.25701
-3.26037
-3.26408
-3.26813
-3.27251
-3.27717
-3.28207
-3.28714
-3.2923
-3.29746
-3.30247
-3.30724
-3.37216
-3.37179
-3.37161
-3.37154
-3.37195
-3.37281
-3.37404
-3.37563
-3.37755
-3.37978
-3.38233
-3.38517
-3.3883
-3.39173
-3.39544
-3.3994
-3.4036
-3.40799
-3.41251
-3.41711
-3.4217
-3.42616
-3.43041
-3.50293
-3.50244
-3.50175
-3.50097
-3.5009
-3.50146
-3.50249
-3.50393
-3.50571
-3.50783
-3.51023
-3.51291
-3.51585
-3.51903
-3.52245
-3.52607
-3.52988
-3.53384
-3.53791
-3.54204
-3.54614
-3.55013
-3.55395
-3.63143
-3.63088
-3.62987
-3.62922
-3.62913
-3.6296
-3.63053
-3.63186
-3.63353
-3.63552
-3.63779
-3.64032
-3.64308
-3.64604
-3.64921
-3.65254
-3.65602
-3.65962
-3.6633
-3.66702
-3.67071
-3.6743
-3.67775
-3.75904
-3.75814
-3.75726
-3.75682
-3.75686
-3.75735
-3.75824
-3.7595
-3.76109
-3.76297
-3.7651
-3.76748
-3.77006
-3.77283
-3.77576
-3.77884
-3.78203
-3.78531
-3.78866
-3.79202
-3.79536
-3.79861
-3.80173
-3.88659
-3.88553
-3.88463
-3.88425
-3.88435
-3.88487
-3.88574
-3.88695
-3.88846
-3.89023
-3.89224
-3.89446
-3.89687
-3.89944
-3.90216
-3.905
-3.90793
-3.91093
-3.91397
-3.91703
-3.92005
-3.92299
-3.92581
-4.01412
-4.01297
-4.01204
-4.01166
-4.01177
-4.01227
-4.01312
-4.01427
-4.0157
-4.01736
-4.01924
-4.02132
-4.02356
-4.02594
-4.02845
-4.03105
-4.03374
-4.03648
-4.03925
-4.04202
-4.04476
-4.04741
-4.04996
-4.1416
-4.14043
-4.13948
-4.13907
-4.13916
-4.13963
-4.14043
-4.14152
-4.14286
-4.14441
-4.14616
-4.14808
-4.15015
-4.15234
-4.15464
-4.15703
-4.15948
-4.16197
-4.16448
-4.16699
-4.16946
-4.17185
-4.17415
-4.26903
-4.26788
-4.26692
-4.26649
-4.26654
-4.26697
-4.26771
-4.26872
-4.26996
-4.2714
-4.27301
-4.27478
-4.27667
-4.27867
-4.28076
-4.28293
-4.28515
-4.28741
-4.28968
-4.29193
-4.29415
-4.2963
-4.29836
-4.39641
-4.3953
-4.39436
-4.39391
-4.39393
-4.3943
-4.39497
-4.39589
-4.39703
-4.39834
-4.39981
-4.40141
-4.40312
-4.40493
-4.40682
-4.40877
-4.41077
-4.4128
-4.41483
-4.41685
-4.41884
-4.42075
-4.42258
-4.52374
-4.52268
-4.52177
-4.52132
-4.52131
-4.52163
-4.52222
-4.52305
-4.52406
-4.52524
-4.52655
-4.52798
-4.52951
-4.53113
-4.53281
-4.53456
-4.53634
-4.53815
-4.53995
-4.54175
-4.54351
-4.54521
-4.54683
-4.651
-4.65001
-4.64916
-4.64872
-4.64868
-4.64895
-4.64946
-4.65018
-4.65107
-4.65211
-4.65326
-4.65451
-4.65585
-4.65727
-4.65876
-4.66029
-4.66187
-4.66346
-4.66506
-4.66664
-4.66819
-4.66968
-4.6711
-4.7782
-4.77729
-4.7765
-4.77609
-4.77603
-4.77625
-4.77669
-4.7773
-4.77807
-4.77895
-4.77993
-4.781
-4.78214
-4.78336
-4.78465
-4.78599
-4.78736
-4.78875
-4.79014
-4.79152
-4.79287
-4.79417
-4.79541
-4.90532
-4.90452
-4.90381
-4.90343
-4.90337
-4.90354
-4.90389
-4.9044
-4.90503
-4.90576
-4.90656
-4.90744
-4.90838
-4.9094
-4.91049
-4.91164
-4.91282
-4.91402
-4.91522
-4.91641
-4.91757
-4.91869
-4.91975
-5.03238
-5.03168
-5.03107
-5.03074
-5.03067
-5.03079
-5.03107
-5.03147
-5.03197
-5.03253
-5.03315
-5.03383
-5.03457
-5.03538
-5.03627
-5.03725
-5.03826
-5.03928
-5.0403
-5.04131
-5.04229
-5.04324
-5.04414
-5.15935
-5.15879
-5.15828
-5.158
-5.15793
-5.15801
-5.15822
-5.15851
-5.15887
-5.15927
-5.15971
-5.16018
-5.1607
-5.16128
-5.162
-5.16282
-5.16367
-5.16454
-5.16539
-5.16623
-5.16705
-5.16783
-5.16858
-5.28624
-5.28581
-5.28542
-5.28519
-5.28513
-5.28519
-5.28532
-5.28551
-5.28573
-5.28597
-5.28622
-5.28648
-5.28675
-5.28709
-5.28764
-5.28835
-5.28908
-5.2898
-5.2905
-5.29118
-5.29183
-5.29246
-5.29306
-5.41302
-5.41275
-5.41248
-5.41233
-5.4123
-5.41233
-5.41241
-5.4125
-5.41259
-5.41267
-5.41272
-5.41272
-5.41268
-5.41265
-5.41307
-5.41382
-5.41448
-5.41507
-5.41562
-5.41615
-5.41665
-5.41713
-5.41759
-5.53967
-5.53956
-5.53946
-5.53943
-5.53945
-5.53949
-5.53951
-5.53951
-5.53947
-5.53938
-5.53921
-5.53892
-5.53841
-5.5377
-5.53803
-5.53918
-5.53989
-5.54036
-5.54077
-5.54115
-5.5415
-5.54183
-5.54215
-5.66611
-5.66614
-5.66618
-5.66623
-5.66628
-5.6663
-5.66629
-5.66623
-5.66613
-5.66596
-5.66572
-5.66534
-5.66463
-5.66329
-5.66323
-5.66495
-5.66565
-5.66597
-5.66618
-5.66636
-5.66653
-5.66668
-5.66682
214.868
227.829
241.329
256.499
97.1205
110.741
126.616
143.88
19.1596
23.7833
31.6904
43.1739
5.90627
5.76915
5.61862
6.30864
3.86703
3.77938
3.68994
3.60318
3.27096
3.26602
3.23926
3.23966
2.45026
2.46714
2.45438
2.50016
0.906975
0.874582
0.887737
0.914031
-1.06271
-1.02229
-1.0255
-1.12857
-1.81674
-1.84808
-1.89803
-1.94138
-1.90554
-1.93986
-1.96463
-1.97538
-2.02405
-2.04361
-2.05805
-2.06628
-2.13006
-2.14379
-2.15544
-2.16428
-2.24052
-2.25129
-2.26108
-2.26903
-2.35588
-2.36437
-2.37241
-2.37921
-2.47343
-2.48054
-2.48703
-2.49285
-2.59127
-2.59702
-2.60271
-2.60798
-2.70852
-2.71379
-2.71916
-2.72403
-2.82705
-2.83178
-2.83669
-2.84117
-2.94673
-2.95094
-2.95536
-2.9594
-3.06739
-3.07111
-3.07504
-3.07866
-3.18889
-3.19217
-3.19564
-3.19885
-3.31108
-3.31398
-3.31704
-3.31987
-3.43384
-3.4364
-3.43909
-3.44157
-3.55702
-3.55929
-3.56166
-3.56383
-3.68051
-3.68252
-3.6846
-3.6865
-3.80421
-3.80599
-3.80781
-3.80947
-3.92804
-3.92961
-3.9312
-3.93266
-4.05195
-4.05333
-4.05472
-4.05599
-4.17592
-4.17713
-4.17834
-4.17945
-4.29992
-4.30098
-4.30203
-4.30299
-4.42396
-4.42488
-4.42579
-4.42663
-4.54804
-4.54883
-4.54962
-4.55034
-4.67215
-4.67283
-4.67351
-4.67413
-4.79631
-4.79689
-4.79746
-4.798
-4.92052
-4.92101
-4.9215
-4.92195
-5.04478
-5.0452
-5.0456
-5.04598
-5.16911
-5.16944
-5.16977
-5.17009
-5.29348
-5.29375
-5.29401
-5.29427
-5.41791
-5.41811
-5.41831
-5.41851
-5.54237
-5.54251
-5.54266
-5.5428
-5.66691
-5.66698
-5.66704
-5.66711
299.354
314.436
320.723
322.805
322.841
320.963
318.912
317.627
318.612
316.159
311.426
305.004
298.95
294.915
289.922
283.385
273.772
266.308
263.669
173.109
189.262
198.693
202.664
203.471
203.661
205.262
209.642
217.888
221.671
219.176
209.489
197.86
190.572
180.181
165.544
148.181
134.316
127.619
63.1143
77.8446
86.4991
90.2474
91.3072
92.6537
95.1078
100.951
111.337
120.297
120.037
113.437
105.209
95.854
80.1994
60.1833
43.9547
31.5236
25.2192
10.0222
15.4299
19.3668
21.4177
22.4595
23.2187
23.6338
26.6404
32.7288
35.5544
35.0829
33.1389
30.1062
24.2086
16.7616
7.58348
1.60741
-0.441737
-0.557652
3.60092
4.14138
5.22843
6.28758
6.81747
6.94643
6.88276
6.52188
5.33914
3.90157
3.01087
1.97998
0.277245
-1.03279
-1.07687
-0.955298
-0.791154
-0.72824
-0.766485
3.34
3.65203
4.18966
4.77876
5.03378
5.02291
4.80885
4.34669
3.73296
2.94987
1.63026
0.147088
-0.838542
-0.97462
-0.975446
-0.956658
-0.926403
-0.90236
-0.902569
2.66121
2.81737
2.8584
2.82385
2.81262
2.64473
2.32515
1.83294
1.23154
0.604272
-0.0878701
-0.567912
-0.957985
-1.10797
-1.11452
-1.10159
-1.08062
-1.06539
-1.06865
0.918352
0.916619
0.617712
0.188802
-0.0678237
-0.296691
-0.511137
-0.703301
-0.908859
-1.17425
-1.36465
-1.30446
-1.27191
-1.28038
-1.26981
-1.25529
-1.23811
-1.23233
-1.24094
-1.22862
-1.17521
-1.26575
-1.42315
-1.54037
-1.61056
-1.66059
-1.67781
-1.6455
-1.59729
-1.5473
-1.55048
-1.49727
-1.44865
-1.4266
-1.4113
-1.39993
-1.3986
-1.40419
-1.97038
-1.94676
-1.88912
-1.8268
-1.78305
-1.75557
-1.73397
-1.71747
-1.70691
-1.69237
-1.67942
-1.66691
-1.63489
-1.60313
-1.58154
-1.56708
-1.56252
-1.5616
-1.5626
-1.97741
-1.9633
-1.94049
-1.91617
-1.89511
-1.87904
-1.8669
-1.85778
-1.84593
-1.82807
-1.81063
-1.79507
-1.77453
-1.75146
-1.7335
-1.72228
-1.71961
-1.72008
-1.71923
-2.07062
-2.06882
-2.06279
-2.0544
-2.04126
-2.0255
-2.01304
-2.00529
-1.99142
-1.96924
-1.94323
-1.92554
-1.91176
-1.89586
-1.88273
-1.87464
-1.87052
-1.86912
-1.86653
-2.17378
-2.17721
-2.17598
-2.17472
-2.16985
-2.16102
-2.15046
-2.13923
-2.12539
-2.10613
-2.07882
-2.05934
-2.04684
-2.03659
-2.02887
-2.02218
-2.01629
-2.00908
-2.00524
-2.27902
-2.28423
-2.28506
-2.28429
-2.28285
-2.2803
-2.27272
-2.25961
-2.24683
-2.23338
-2.21444
-2.19689
-2.18351
-2.17438
-2.16932
-2.16413
-2.156
-2.14677
-2.14251
-2.38813
-2.39374
-2.39589
-2.39583
-2.3941
-2.39102
-2.3852
-2.37632
-2.36652
-2.35677
-2.34629
-2.33313
-2.31911
-2.30869
-2.30277
-2.29796
-2.29
-2.28399
-2.2798
-2.50067
-2.50653
-2.50914
-2.50945
-2.50782
-2.50468
-2.50007
-2.49364
-2.48618
-2.4788
-2.47157
-2.4617
-2.44963
-2.43972
-2.43333
-2.42833
-2.42311
-2.41985
-2.41586
-2.61501
-2.62112
-2.62403
-2.62471
-2.62357
-2.62068
-2.61665
-2.6117
-2.60579
-2.59944
-2.59262
-2.58458
-2.57585
-2.56839
-2.56296
-2.55859
-2.555
-2.55338
-2.54957
-2.73043
-2.73645
-2.7401
-2.74137
-2.74059
-2.73836
-2.73491
-2.73062
-2.7257
-2.72033
-2.71454
-2.70813
-2.70154
-2.69581
-2.69142
-2.68785
-2.68524
-2.68424
-2.68093
-2.847
-2.85248
-2.85643
-2.85851
-2.85867
-2.85717
-2.85419
-2.85024
-2.8461
-2.84167
-2.83694
-2.83189
-2.82685
-2.8224
-2.81881
-2.81602
-2.81402
-2.81276
-2.81025
-2.96468
-2.96964
-2.97326
-2.9756
-2.97657
-2.97583
-2.97346
-2.97028
-2.96697
-2.96345
-2.95969
-2.95574
-2.95185
-2.94835
-2.94545
-2.94317
-2.94148
-2.94003
-2.93783
-3.08341
-3.08789
-3.09123
-3.09344
-3.09446
-3.09421
-3.09282
-3.09069
-3.08823
-3.08555
-3.08262
-3.07957
-3.07654
-3.07374
-3.07132
-3.06933
-3.06771
-3.06609
-3.06442
-3.20309
-3.20715
-3.21024
-3.21237
-3.21351
-3.21366
-3.21292
-3.21157
-3.20984
-3.20787
-3.20565
-3.20329
-3.20087
-3.19857
-3.19645
-3.19452
-3.19267
-3.19061
-3.18904
-3.32364
-3.32733
-3.33019
-3.33226
-3.33351
-3.33396
-3.3337
-3.3329
-3.33174
-3.33031
-3.32865
-3.3268
-3.32485
-3.32288
-3.32091
-3.31888
-3.31658
-3.31369
-3.31056
-3.44492
-3.44827
-3.45094
-3.45294
-3.45426
-3.45492
-3.45499
-3.4546
-3.45385
-3.45282
-3.45156
-3.4501
-3.44849
-3.44674
-3.44485
-3.44271
-3.44005
-3.4366
-3.43248
-3.56679
-3.56984
-3.57232
-3.57425
-3.57559
-3.57638
-3.57668
-3.57655
-3.57609
-3.57536
-3.57438
-3.5732
-3.57182
-3.57025
-3.56843
-3.56624
-3.56343
-3.55982
-3.55592
-3.68911
-3.69189
-3.69419
-3.69602
-3.69735
-3.69821
-3.69864
-3.69869
-3.69843
-3.69789
-3.69712
-3.69613
-3.69492
-3.69348
-3.69175
-3.68961
-3.68679
-3.68313
-3.67933
-3.81178
-3.81431
-3.81643
-3.81815
-3.81944
-3.82032
-3.82081
-3.82097
-3.82083
-3.82043
-3.8198
-3.81895
-3.81787
-3.81654
-3.81492
-3.81287
-3.81014
-3.80653
-3.80259
-3.9347
-3.937
-3.93895
-3.94055
-3.94177
-3.94263
-3.94315
-3.94337
-3.94331
-3.943
-3.94247
-3.94172
-3.94074
-3.93952
-3.938
-3.93607
-3.93348
-3.92997
-3.92585
-4.0578
-4.05988
-4.06167
-4.06315
-4.06429
-4.06512
-4.06564
-4.06589
-4.06587
-4.06563
-4.06517
-4.0645
-4.06361
-4.06248
-4.06105
-4.05923
-4.05678
-4.05333
-4.04922
-4.18104
-4.18293
-4.18456
-4.18592
-4.18698
-4.18776
-4.18827
-4.18853
-4.18855
-4.18836
-4.18796
-4.18736
-4.18654
-4.18547
-4.18412
-4.18238
-4.18
-4.17659
-4.17289
-4.30441
-4.30611
-4.30759
-4.30884
-4.30982
-4.31055
-4.31104
-4.3113
-4.31135
-4.3112
-4.31086
-4.31032
-4.30957
-4.30856
-4.30726
-4.30553
-4.3031
-4.29963
-4.29624
-4.42787
-4.42941
-4.43076
-4.43189
-4.43279
-4.43348
-4.43394
-4.43421
-4.43429
-4.43418
-4.4339
-4.43343
-4.43274
-4.4318
-4.43053
-4.42879
-4.42623
-4.42242
-4.41845
-4.55144
-4.55282
-4.55404
-4.55507
-4.5559
-4.55654
-4.55699
-4.55726
-4.55736
-4.55731
-4.55709
-4.55669
-4.55609
-4.55523
-4.55402
-4.55233
-4.54976
-4.54583
-4.5416
-4.6751
-4.67634
-4.67743
-4.67837
-4.67913
-4.67972
-4.68015
-4.68043
-4.68057
-4.68057
-4.68042
-4.68012
-4.67962
-4.67887
-4.67778
-4.67622
-4.67389
-4.67034
-4.66635
-4.79885
-4.79995
-4.80093
-4.80178
-4.80247
-4.80302
-4.80343
-4.80372
-4.80389
-4.80394
-4.80388
-4.80369
-4.80331
-4.80269
-4.80174
-4.80035
-4.79828
-4.79515
-4.79163
-4.92269
-4.92366
-4.92453
-4.92528
-4.92591
-4.92641
-4.92681
-4.9271
-4.92729
-4.92741
-4.92744
-4.92736
-4.92714
-4.92667
-4.92585
-4.92456
-4.92256
-4.91945
-4.91622
-5.04661
-5.04746
-5.04822
-5.04888
-5.04943
-5.04989
-5.05025
-5.05054
-5.05076
-5.05093
-5.05105
-5.05111
-5.05106
-5.05079
-5.05011
-5.04884
-5.04678
-5.04351
-5.03998
-5.17062
-5.17134
-5.17198
-5.17255
-5.17302
-5.17342
-5.17375
-5.17402
-5.17425
-5.17445
-5.17466
-5.17486
-5.17503
-5.17504
-5.17453
-5.17328
-5.17116
-5.16782
-5.16427
-5.2947
-5.29529
-5.29582
-5.29628
-5.29668
-5.29701
-5.29728
-5.29751
-5.29772
-5.29794
-5.2982
-5.29855
-5.29898
-5.29943
-5.29925
-5.29798
-5.29587
-5.29254
-5.28901
-5.41885
-5.4193
-5.41972
-5.42008
-5.42038
-5.42064
-5.42085
-5.42102
-5.42118
-5.42136
-5.42161
-5.42205
-5.42286
-5.42426
-5.42473
-5.42305
-5.42086
-5.41762
-5.41415
-5.54304
-5.54337
-5.54366
-5.54392
-5.54413
-5.54431
-5.54444
-5.54454
-5.54462
-5.5447
-5.54484
-5.54529
-5.54665
-5.55017
-5.55161
-5.5485
-5.54598
-5.54296
-5.53979
-5.66722
-5.66736
-5.66748
-5.66757
-5.66765
-5.6677
-5.66774
-5.66776
-5.66777
-5.66778
-5.66787
-5.66828
-5.66998
-5.67576
-5.67564
-5.67212
-5.67071
-5.66857
-5.6656
)
;

boundaryField
{
    leftWall
    {
        type            calculated;
        value           nonuniform List<scalar> 
50
(
684.865
626.224
567.606
509.035
450.529
392.089
333.713
275.416
184.407
69.7386
8.30796
-0.00307711
-0.498769
-0.917997
-1.14728
-1.27617
-1.40523
-1.53537
-1.66644
-1.79805
-1.92988
-2.06178
-2.19363
-2.32535
-2.45684
-2.58802
-2.7188
-2.84908
-2.97877
-3.1086
-3.23996
-3.37216
-3.50293
-3.63143
-3.75904
-3.88659
-4.01412
-4.1416
-4.26903
-4.39641
-4.52374
-4.651
-4.7782
-4.90532
-5.03238
-5.15935
-5.28624
-5.41302
-5.53967
-5.66611
)
;
    }
    rightWall
    {
        type            calculated;
        value           nonuniform List<scalar> 
50
(
787.237
728.742
668.906
607.585
545.963
484.205
422.348
360.53
263.669
127.619
25.2192
-0.557652
-0.766485
-0.902569
-1.06865
-1.24094
-1.40419
-1.5626
-1.71923
-1.86653
-2.00524
-2.14251
-2.2798
-2.41586
-2.54957
-2.68093
-2.81025
-2.93783
-3.06442
-3.18904
-3.31056
-3.43248
-3.55592
-3.67933
-3.80259
-3.92585
-4.04922
-4.17289
-4.29624
-4.41845
-4.5416
-4.66635
-4.79163
-4.91622
-5.03998
-5.16427
-5.28901
-5.41415
-5.53979
-5.6656
)
;
    }
    lowerWall
    {
        type            calculated;
        value           nonuniform List<scalar> 
62
(
714.294
713.482
712.683
711.76
710.719
709.603
708.477
707.408
706.469
705.709
705.176
704.903
704.905
705.191
705.764
706.625
707.775
709.196
710.365
712.605
716.33
719.184
720.867
691.666
632.534
573.625
515.22
457.345
399.991
343.071
287.112
277.465
290.426
303.926
319.096
824.668
769.217
712.012
653.069
592.933
532.289
471.302
407.887
852.839
845.293
843.53
843.368
842.248
838.847
832.506
823.157
812.686
810.467
812.551
812.694
810.302
804.004
800.329
801.957
807.963
815.616
815.493
)
;
    }
    atmosphere
    {
        type            calculated;
        value           nonuniform List<scalar> 
46
(
-5.72904
-5.72904
-5.72904
-5.72904
-5.72904
-5.72904
-5.72904
-5.72904
-5.72904
-5.72904
-5.72904
-5.72904
-5.72904
-5.72904
-5.72904
-5.72904
-5.72906
-5.72908
-5.7291
-5.72913
-5.72916
-5.72919
-5.72922
-5.72924
-5.72925
-5.72926
-5.72927
-5.72928
-5.72928
-5.72928
-5.72926
-5.72924
-5.72921
-5.72918
-5.72915
-5.72912
-5.7291
-5.72908
-5.72907
-5.72905
-5.72904
-5.72904
-5.73015
-5.73319
-5.73319
-5.73029
)
;
    }
    defaultFaces
    {
        type            empty;
    }
}


// ************************************************************************* //
