/*--------------------------------*- C++ -*----------------------------------*\
| =========                 |                                                 |
| \\      /  F ield         | OpenFOAM: The Open Source CFD Toolbox           |
|  \\    /   O peration     | Version:  2.3.0                                 |
|   \\  /    A nd           | Web:      www.OpenFOAM.org                      |
|    \\/     M anipulation  |                                                 |
\*---------------------------------------------------------------------------*/
FoamFile
{
    version     2.0;
    format      ascii;
    class       surfaceScalarField;
    location    "2.25";
    object      phi;
}
// * * * * * * * * * * * * * * * * * * * * * * * * * * * * * * * * * * * * * //

dimensions      [0 3 -1 0 0 0 0];

internalField   nonuniform List<scalar> 
4432
(
-7.85989e-07
7.85989e-07
-1.14308e-06
3.57092e-07
-1.2809e-06
1.37825e-07
-1.34772e-06
6.68303e-08
-1.41291e-06
6.51935e-08
-1.48015e-06
6.7248e-08
-1.53365e-06
5.35017e-08
-1.55681e-06
2.31746e-08
-1.54154e-06
-1.52696e-08
-1.48489e-06
-5.66358e-08
-1.38604e-06
-9.88429e-08
-1.24797e-06
-1.38074e-07
-1.07879e-06
-1.69173e-07
-8.95261e-07
-1.83527e-07
-7.28931e-07
-1.66339e-07
-6.29425e-07
-9.94909e-08
-6.60164e-07
3.0757e-08
-9.4329e-07
2.83114e-07
-1.99426e-06
1.05095e-06
-3.42168e-06
1.42741e-06
-4.11164e-06
6.89959e-07
-3.0924e-06
-1.01923e-06
-3.0924e-06
-6.5833e-07
1.44432e-06
-8.54164e-07
5.52934e-07
-9.88982e-07
2.72655e-07
-1.10922e-06
1.87077e-07
-1.22144e-06
1.77422e-07
-1.31794e-06
1.6376e-07
-1.38493e-06
1.20502e-07
-1.41153e-06
4.97876e-08
-1.39086e-06
-3.59313e-08
-1.32038e-06
-1.27106e-07
-1.20147e-06
-2.17742e-07
-1.03916e-06
-3.0038e-07
-8.43496e-07
-3.64849e-07
-6.32115e-07
-3.949e-07
-4.34842e-07
-3.63599e-07
-2.96706e-07
-2.3762e-07
-2.80636e-07
1.4682e-08
-4.8041e-07
4.82857e-07
-9.44394e-07
1.51493e-06
-1.59728e-06
2.08031e-06
-2.21793e-06
1.31061e-06
-2.13599e-06
-1.10117e-06
-5.22839e-06
-4.49366e-07
1.89369e-06
-6.3465e-07
7.38226e-07
-7.92128e-07
4.30139e-07
-9.47726e-07
3.4268e-07
-1.0904e-06
3.201e-07
-1.20747e-06
2.80836e-07
-1.28577e-06
1.98808e-07
-1.31532e-06
7.93549e-08
-1.29095e-06
-6.02999e-08
-1.21101e-06
-2.07041e-07
-1.07754e-06
-3.51209e-07
-8.96449e-07
-4.81468e-07
-6.78324e-07
-5.82978e-07
-4.40284e-07
-6.32928e-07
-2.09688e-07
-5.9418e-07
-2.68043e-08
-4.20503e-07
5.60633e-08
-6.81871e-08
-6.49862e-09
5.45416e-07
-1.12009e-07
1.62044e-06
-3.65693e-07
2.334e-06
-7.92475e-07
1.7374e-06
-1.06218e-06
-8.31459e-07
-6.29055e-06
-2.61654e-07
2.15535e-06
-4.5336e-07
9.29939e-07
-6.35779e-07
6.12562e-07
-8.18947e-07
5.25849e-07
-9.85367e-07
4.86522e-07
-1.11917e-06
4.14647e-07
-1.207e-06
2.86636e-07
-1.23948e-06
1.11845e-07
-1.21232e-06
-8.74557e-08
-1.12443e-06
-2.94932e-07
-9.77916e-07
-4.97715e-07
-7.78882e-07
-6.80497e-07
-5.37656e-07
-8.24201e-07
-2.69936e-07
-9.00638e-07
2.38283e-10
-8.64347e-07
2.39005e-07
-6.59274e-07
4.05335e-07
-2.34514e-07
4.80566e-07
4.7019e-07
5.84987e-07
1.51602e-06
6.08093e-07
2.31089e-06
4.05008e-07
1.94048e-06
7.52445e-08
-5.01687e-07
-6.21529e-06
-1.14554e-07
2.26991e-06
-3.01862e-07
1.11725e-06
-5.03501e-07
8.14202e-07
-7.07535e-07
7.29882e-07
-8.92207e-07
6.71193e-07
-1.0394e-06
5.61847e-07
-1.13527e-06
3.8251e-07
-1.17068e-06
1.47263e-07
-1.14177e-06
-1.1636e-07
-1.04744e-06
-3.89266e-07
-8.89376e-07
-6.55771e-07
-6.73356e-07
-8.96511e-07
-4.08943e-07
-1.08861e-06
-1.098e-07
-1.19977e-06
2.03899e-07
-1.17804e-06
5.04734e-07
-9.60112e-07
7.63328e-07
-4.93104e-07
9.77503e-07
2.56016e-07
1.22225e-06
1.27126e-06
1.44776e-06
2.08538e-06
1.44356e-06
1.94469e-06
9.95309e-07
-5.34293e-08
-5.21998e-06
-7.21543e-09
2.27713e-06
-1.78335e-07
1.28837e-06
-3.89473e-07
1.02534e-06
-6.06393e-07
9.46801e-07
-8.0301e-07
8.67812e-07
-9.59444e-07
7.18286e-07
-1.06136e-06
4.84432e-07
-1.09952e-06
1.85425e-07
-1.0701e-06
-1.45772e-07
-9.71433e-07
-4.87934e-07
-8.04277e-07
-8.22922e-07
-5.73734e-07
-1.12705e-06
-2.88337e-07
-1.374e-06
4.05655e-08
-1.52868e-06
3.96788e-07
-1.53427e-06
7.59058e-07
-1.32238e-06
1.10712e-06
-8.41164e-07
1.4423e-06
-7.91674e-08
1.81126e-06
9.02298e-07
2.17415e-06
1.72249e-06
2.323e-06
1.79584e-06
1.83053e-06
4.39043e-07
-3.38944e-06
7.32825e-08
2.20385e-06
-7.8863e-08
1.44052e-06
-2.89074e-07
1.23555e-06
-5.0932e-07
1.16704e-06
-7.1e-07
1.06849e-06
-8.70129e-07
8.78421e-07
-9.75166e-07
5.89472e-07
-1.01554e-06
2.25799e-07
-9.87096e-07
-1.74207e-07
-8.87076e-07
-5.8795e-07
-7.14854e-07
-9.95138e-07
-4.74718e-07
-1.36718e-06
-1.74177e-07
-1.67454e-06
1.77721e-07
-1.88058e-06
5.68594e-07
-1.92514e-06
9.82589e-07
-1.73637e-06
1.40581e-06
-1.26438e-06
1.83903e-06
-5.12398e-07
2.30866e-06
4.32672e-07
2.76819e-06
1.26297e-06
3.02733e-06
1.53669e-06
2.55694e-06
9.09418e-07
-8.32537e-07
1.2973e-07
2.07412e-06
9.90914e-10
1.56926e-06
-1.9845e-07
1.43499e-06
-4.11585e-07
1.38018e-06
-6.07007e-07
1.26392e-06
-7.63959e-07
1.03538e-06
-8.68328e-07
6.93845e-07
-9.10024e-07
2.67497e-07
-8.84187e-07
-2.00039e-07
-7.8651e-07
-6.8562e-07
-6.14616e-07
-1.16703e-06
-3.72207e-07
-1.60958e-06
-6.62093e-08
-1.98054e-06
2.96347e-07
-2.24314e-06
7.06616e-07
-2.33541e-06
1.15366e-06
-2.18342e-06
1.62833e-06
-1.73905e-06
2.1288e-06
-1.01287e-06
2.66372e-06
-1.02244e-07
3.17943e-06
7.47265e-07
3.50088e-06
1.21525e-06
3.15497e-06
1.25532e-06
2.32245e-06
-6.36561e-06
6.36561e-06
-1.07175e-05
4.35192e-06
-1.0247e-05
-4.70482e-07
-8.58422e-06
-1.66284e-06
-6.69254e-06
-1.89165e-06
-4.43593e-06
-2.25663e-06
-1.7509e-06
-2.68504e-06
2.57612e-07
-2.00845e-06
-8.97231e-08
3.47315e-07
-3.31885e-06
3.22915e-06
-6.75095e-06
3.43212e-06
-8.48777e-06
1.73681e-06
-9.79133e-06
1.30356e-06
-1.34539e-05
3.66256e-06
-1.7138e-05
3.68413e-06
-1.70931e-05
-4.48794e-08
-1.30419e-05
-4.05125e-06
-5.72284e-06
-7.31906e-06
-5.72286e-06
-6.99636e-06
1.3362e-05
-8.97504e-06
6.3306e-06
-8.77701e-06
-6.68496e-07
-8.00708e-06
-2.43283e-06
-6.85092e-06
-3.04779e-06
-5.31237e-06
-3.79515e-06
-3.55778e-06
-4.43964e-06
-2.15552e-06
-3.41064e-06
-2.34836e-06
5.4016e-07
-4.7365e-06
5.61729e-06
-7.57982e-06
6.27548e-06
-9.43142e-06
3.58841e-06
-1.11239e-05
2.99609e-06
-1.35611e-05
6.09973e-06
-1.50291e-05
5.15213e-06
-1.46387e-05
-4.35377e-07
-1.17929e-05
-6.89704e-06
-6.19853e-06
-1.29134e-05
-1.19214e-05
-5.9635e-06
1.93255e-05
-7.30626e-06
7.67334e-06
-7.75687e-06
-2.17872e-07
-7.6257e-06
-2.56401e-06
-7.02882e-06
-3.64465e-06
-6.04023e-06
-4.78371e-06
-4.87854e-06
-5.60135e-06
-4.02924e-06
-4.25989e-06
-4.2446e-06
7.55545e-07
-5.82185e-06
7.19451e-06
-7.89985e-06
8.35347e-06
-9.67477e-06
5.36332e-06
-1.10373e-05
4.35858e-06
-1.20885e-05
7.15094e-06
-1.25746e-05
5.63831e-06
-1.21651e-05
-8.44835e-07
-9.84586e-06
-9.21633e-06
-5.34707e-06
-1.74122e-05
-1.72685e-05
-4.79712e-06
2.41226e-05
-6.11149e-06
8.9877e-06
-7.0529e-06
7.23557e-07
-7.46225e-06
-2.15466e-06
-7.36127e-06
-3.74562e-06
-6.83838e-06
-5.30657e-06
-6.08693e-06
-6.35283e-06
-5.58466e-06
-4.76219e-06
-5.99039e-06
1.16127e-06
-7.0207e-06
8.22482e-06
-8.4491e-06
9.7819e-06
-9.91558e-06
6.82981e-06
-1.09898e-05
5.43278e-06
-1.11035e-05
7.2646e-06
-1.08493e-05
5.38412e-06
-1.003e-05
-1.66404e-06
-7.6772e-06
-1.15692e-05
-4.26221e-06
-2.08271e-05
-2.15307e-05
-3.7361e-06
2.78586e-05
-5.23118e-06
1.04828e-05
-6.64153e-06
2.13393e-06
-7.52778e-06
-1.26843e-06
-7.87458e-06
-3.39886e-06
-7.76471e-06
-5.41645e-06
-7.33997e-06
-6.77759e-06
-7.0409e-06
-5.06124e-06
-7.51771e-06
1.63808e-06
-8.24482e-06
8.95193e-06
-9.13289e-06
1.067e-05
-1.02187e-05
7.91563e-06
-1.09745e-05
6.18862e-06
-1.04979e-05
6.78795e-06
-9.57607e-06
4.4623e-06
-8.20879e-06
-3.03132e-06
-5.90464e-06
-1.38733e-05
-3.37246e-06
-2.33593e-05
-2.49032e-05
-2.85447e-06
3.07131e-05
-4.66943e-06
1.22977e-05
-6.53688e-06
4.00137e-06
-7.83327e-06
2.79551e-08
-8.57802e-06
-2.65412e-06
-8.85092e-06
-5.14353e-06
-8.70842e-06
-6.92008e-06
-8.49131e-06
-5.27835e-06
-8.91623e-06
2.063e-06
-9.43784e-06
9.47352e-06
-9.8817e-06
1.11138e-05
-1.05465e-05
8.58046e-06
-1.08808e-05
6.5229e-06
-1.0071e-05
5.97817e-06
-8.57752e-06
2.96883e-06
-6.72026e-06
-4.88858e-06
-4.60047e-06
-1.59931e-05
-2.59214e-06
-2.53676e-05
-2.74953e-05
-2.2008e-06
3.29139e-05
-4.52141e-06
1.46183e-05
-6.76555e-06
6.24552e-06
-8.37295e-06
1.63535e-06
-9.45651e-06
-1.57055e-06
-1.00957e-05
-4.50432e-06
-1.02589e-05
-6.75689e-06
-1.00589e-05
-5.47835e-06
-1.02481e-05
2.25226e-06
-1.05143e-05
9.73966e-06
-1.05834e-05
1.11829e-05
-1.07676e-05
8.76465e-06
-1.06445e-05
6.39988e-06
-9.54216e-06
4.8758e-06
-7.68185e-06
1.10852e-06
-5.51723e-06
-7.05318e-06
-3.46959e-06
-1.80408e-05
-1.86528e-06
-2.69719e-05
-2.93606e-05
-2.15281e-06
3.50667e-05
-4.94034e-06
1.74058e-05
-7.32439e-06
8.62959e-06
-9.10543e-06
3.41639e-06
-1.04574e-05
-2.18626e-07
-1.14521e-05
-3.50955e-06
-1.19734e-05
-6.23559e-06
-1.18892e-05
-5.56264e-06
-1.16928e-05
2.05592e-06
-1.13637e-05
9.41055e-06
-1.10279e-05
1.08471e-05
-1.07845e-05
8.52126e-06
-1.02011e-05
5.81648e-06
-8.78618e-06
3.46089e-06
-6.66514e-06
-1.01253e-06
-4.33902e-06
-9.37929e-06
-2.2942e-06
-2.00856e-05
-1.10515e-06
-2.81609e-05
-3.04657e-05
4.01039e-07
1.67308e-06
2.09144e-07
1.76115e-06
-1.57821e-07
1.80195e-06
-5.57854e-07
1.78021e-06
-9.25855e-07
1.63192e-06
-1.22586e-06
1.33538e-06
-1.43402e-06
9.02015e-07
-1.52253e-06
3.56008e-07
-1.48026e-06
-2.42306e-07
-1.29084e-06
-8.75037e-07
-9.41223e-07
-1.51664e-06
-4.40914e-07
-2.10989e-06
1.92911e-07
-2.61438e-06
9.49415e-07
-2.99965e-06
1.82235e-06
-3.20835e-06
2.80602e-06
-3.1671e-06
3.8981e-06
-2.83114e-06
5.08157e-06
-2.19633e-06
6.31986e-06
-1.34053e-06
7.4502e-06
-3.83101e-07
8.05474e-06
6.10702e-07
7.4119e-06
1.89816e-06
4.44705e-06
5.28729e-06
1.99543e-07
1.47354e-06
1.3064e-07
1.83005e-06
-8.01284e-08
2.01272e-06
-3.0734e-07
2.00743e-06
-5.14721e-07
1.83931e-06
-7.11523e-07
1.53219e-06
-8.89421e-07
1.07992e-06
-9.90952e-07
4.5754e-07
-9.75332e-07
-2.57922e-07
-7.99937e-07
-1.05043e-06
-4.70796e-07
-1.84578e-06
-9.22776e-09
-2.57146e-06
5.47254e-07
-3.17087e-06
1.14579e-06
-3.59819e-06
1.80412e-06
-3.86669e-06
2.57785e-06
-3.94083e-06
3.56281e-06
-3.8161e-06
4.73264e-06
-3.36616e-06
5.93154e-06
-2.53946e-06
6.86489e-06
-1.31646e-06
6.86794e-06
6.07668e-07
4.87139e-06
3.89476e-06
9.68713e-06
-3.68664e-07
-5.1087e-07
1.98441e-06
-4.47399e-07
1.76659e-06
-2.73314e-07
1.83864e-06
-1.17897e-07
1.85201e-06
9.58434e-09
1.71182e-06
-1.5186e-08
1.55696e-06
-3.10095e-07
1.37482e-06
-5.95717e-07
7.43155e-07
-6.24345e-07
-2.29296e-07
-4.34975e-07
-1.23979e-06
-1.40967e-07
-2.13979e-06
2.5801e-07
-2.97044e-06
6.70538e-07
-3.5834e-06
6.53281e-07
-3.58094e-06
3.63762e-07
-3.57717e-06
1.64802e-07
-3.74184e-06
6.57563e-07
-4.30884e-06
1.72636e-06
-4.43499e-06
2.87048e-06
-3.68356e-06
3.74678e-06
-2.19271e-06
3.06388e-06
1.29051e-06
-1.99095e-06
8.94962e-06
2.01238e-05
-1.24277e-05
-4.12201e-06
6.10641e-06
-6.29949e-06
3.94409e-06
-3.6159e-06
-8.4497e-07
-2.18863e-06
4.24744e-07
-1.19287e-06
7.16033e-07
-3.02762e-07
6.66826e-07
-2.72056e-06
3.79254e-06
-5.5907e-06
3.61323e-06
-4.99363e-06
-8.26408e-07
-4.69241e-06
-1.54099e-06
-4.45472e-06
-2.37742e-06
-3.73588e-06
-3.6893e-06
-2.98447e-06
-4.33487e-06
-4.97758e-06
-1.58785e-06
-1.47664e-05
6.2117e-06
-2.20901e-05
3.58192e-06
-2.27206e-05
-3.67834e-06
-2.02383e-05
-6.91734e-06
-1.7372e-05
-6.54979e-06
-1.35909e-05
-5.97387e-06
-9.01636e-06
-3.28402e-06
-8.50686e-06
8.44016e-06
3.01428e-05
-1.85257e-05
-8.41861e-06
1.4525e-05
-1.50546e-05
1.05801e-05
-1.39026e-05
-1.99713e-06
-1.43568e-05
8.78979e-07
-1.44326e-05
7.9171e-07
-1.38791e-05
1.13284e-07
-1.54234e-05
5.33671e-06
-1.65911e-05
4.78088e-06
-1.65139e-05
-9.03582e-07
-1.71591e-05
-8.95808e-07
-1.79176e-05
-1.61888e-06
-1.88431e-05
-2.76389e-06
-1.99261e-05
-3.25185e-06
-2.49602e-05
3.44626e-06
-3.96952e-05
2.09468e-05
-4.836e-05
1.22467e-05
-4.96676e-05
-2.3708e-06
-4.90837e-05
-7.50119e-06
-4.69554e-05
-8.67813e-06
-4.2274e-05
-1.06553e-05
-3.65111e-05
-9.04695e-06
-3.0211e-05
2.1399e-06
2.63121e-05
-2.63804e-05
-2.9116e-06
1.74365e-05
-5.9165e-06
1.35847e-05
-1.32097e-05
5.29594e-06
-1.80581e-05
5.72721e-06
-2.01492e-05
2.88277e-06
-2.05172e-05
4.81148e-07
-1.85038e-05
3.3232e-06
-1.69912e-05
3.26823e-06
-2.0289e-05
2.39426e-06
-2.37465e-05
2.56165e-06
-2.59127e-05
5.47324e-07
-2.72742e-05
-1.40243e-06
-2.88104e-05
-1.71576e-06
-3.37025e-05
8.33849e-06
-3.94529e-05
2.66971e-05
-4.87716e-05
2.15654e-05
-5.32226e-05
2.08021e-06
-5.59822e-05
-4.74156e-06
-5.82257e-05
-6.43462e-06
-5.79147e-05
-1.09663e-05
-5.7356e-05
-9.60558e-06
-5.45944e-05
-6.21802e-07
1.90575e-05
-4.73399e-05
-2.67708e-06
2.01134e-05
-5.25122e-06
1.61583e-05
-1.05652e-05
1.06096e-05
-1.39054e-05
9.06735e-06
-1.72169e-05
6.19429e-06
-2.07545e-05
4.01859e-06
-2.22693e-05
4.83784e-06
-2.55866e-05
6.58537e-06
-3.15689e-05
8.37646e-06
-3.73398e-05
8.33255e-06
-3.81718e-05
1.37917e-06
-3.58428e-05
-3.7316e-06
-3.48105e-05
-2.7482e-06
-3.4759e-05
8.2869e-06
-3.19659e-05
2.3904e-05
-3.55875e-05
2.51869e-05
-4.65542e-05
1.30468e-05
-5.85081e-05
7.21253e-06
-6.59358e-05
9.92863e-07
-6.80403e-05
-8.86183e-06
-7.08605e-05
-6.78535e-06
-7.13614e-05
-1.20835e-07
1.08873e-05
-6.31911e-05
-1.40233e-06
2.15154e-05
-3.47795e-06
1.82333e-05
-7.05185e-06
1.41832e-05
-1.02391e-05
1.22545e-05
-1.41361e-05
1.00912e-05
-1.88263e-05
8.70865e-06
-2.34536e-05
9.46481e-06
-2.84678e-05
1.15993e-05
-3.37401e-05
1.36488e-05
-3.75163e-05
1.21085e-05
-3.77111e-05
1.57379e-06
-3.64782e-05
-4.9646e-06
-3.47114e-05
-4.51504e-06
-3.0678e-05
4.25335e-06
-2.61418e-05
1.93677e-05
-2.70845e-05
2.61296e-05
-3.5726e-05
2.16884e-05
-4.48964e-05
1.63831e-05
-5.61866e-05
1.22833e-05
-6.95022e-05
4.45394e-06
-7.44829e-05
-1.80472e-06
-7.39334e-05
-6.70317e-07
3.78378e-06
-6.68299e-05
-7.09422e-08
2.15859e-05
-1.51648e-06
1.96783e-05
-4.17119e-06
1.68378e-05
-7.02424e-06
1.51076e-05
-1.06044e-05
1.36713e-05
-1.48912e-05
1.29952e-05
-1.91377e-05
1.37111e-05
-2.30774e-05
1.55389e-05
-2.63613e-05
1.69326e-05
-2.86192e-05
1.43662e-05
-3.14884e-05
4.44294e-06
-3.34934e-05
-2.95956e-06
-3.35816e-05
-4.42689e-06
-3.0708e-05
1.37962e-06
-2.54273e-05
1.4087e-05
-2.41549e-05
2.48574e-05
-2.65561e-05
2.40898e-05
-2.93365e-05
1.91635e-05
-3.64347e-05
1.93812e-05
-5.08724e-05
1.88913e-05
-6.4082e-05
1.14046e-05
-6.69615e-05
2.20933e-06
-1.37715e-06
-6.18005e-05
6.56595e-07
2.09289e-05
-1.55508e-07
2.04898e-05
-2.00777e-06
1.869e-05
-4.27477e-06
1.73748e-05
-7.06567e-06
1.64623e-05
-1.02317e-05
1.6161e-05
-1.32339e-05
1.67132e-05
-1.55805e-05
1.78855e-05
-1.70713e-05
1.84235e-05
-1.85214e-05
1.58163e-05
-2.29945e-05
8.91605e-06
-2.82224e-05
2.26829e-06
-3.07086e-05
-1.94075e-06
-3.08112e-05
1.48195e-06
-2.74579e-05
1.07335e-05
-2.4041e-05
2.14403e-05
-2.20836e-05
2.21322e-05
-2.15518e-05
1.86316e-05
-2.23955e-05
2.0225e-05
-2.85747e-05
2.50711e-05
-3.99541e-05
2.2784e-05
-5.05272e-05
1.27821e-05
2.95908e-06
-5.48634e-05
7.31195e-07
2.01973e-05
4.29158e-07
2.07915e-05
-6.97968e-07
1.98172e-05
-2.25831e-06
1.89353e-05
-4.1435e-06
1.83476e-05
-6.17482e-06
1.81921e-05
-7.99475e-06
1.8533e-05
-9.2074e-06
1.90981e-05
-9.80069e-06
1.90167e-05
-1.08644e-05
1.68801e-05
-1.41988e-05
1.22506e-05
-1.91378e-05
7.20727e-06
-2.48145e-05
3.73565e-06
-2.76229e-05
4.2902e-06
-2.68519e-05
9.96265e-06
-2.31442e-05
1.77327e-05
-1.94845e-05
1.8473e-05
-1.73447e-05
1.64919e-05
-1.58185e-05
1.86988e-05
-1.5956e-05
2.52083e-05
-1.874e-05
2.55679e-05
-2.42749e-05
1.8317e-05
8.8389e-06
-3.01545e-05
4.29237e-07
1.97677e-05
3.96675e-07
2.08238e-05
-1.80166e-07
2.03941e-05
-1.08422e-06
1.98394e-05
-2.1757e-06
1.94391e-05
-3.29425e-06
1.93105e-05
-4.20605e-06
1.94448e-05
-4.70913e-06
1.96012e-05
-4.89926e-06
1.92069e-05
-5.53615e-06
1.7517e-05
-7.65713e-06
1.43718e-05
-1.13289e-05
1.0879e-05
-1.59065e-05
8.31315e-06
-1.98144e-05
8.19804e-06
-2.11405e-05
1.12889e-05
-1.88543e-05
1.54463e-05
-1.60345e-05
1.56531e-05
-1.42866e-05
1.4744e-05
-1.27982e-05
1.72107e-05
-1.03514e-05
2.27618e-05
-8.24507e-06
2.34615e-05
-8.17436e-06
1.82463e-05
1.05199e-05
-9.85537e-06
6.06848e-09
1.97614e-05
1.17277e-08
2.0818e-05
-2.28296e-07
2.06343e-05
-6.4048e-07
2.02519e-05
-1.13352e-06
1.99321e-05
-1.59195e-06
1.97689e-05
-1.88139e-06
1.97341e-05
-1.92257e-06
1.96423e-05
-1.85284e-06
1.91371e-05
-2.16063e-06
1.78249e-05
-3.4552e-06
1.56665e-05
-5.84436e-06
1.32682e-05
-8.97733e-06
1.1446e-05
-1.18723e-05
1.10927e-05
-1.31293e-05
1.25459e-05
-1.22607e-05
1.45779e-05
-1.12021e-05
1.45944e-05
-1.06919e-05
1.42339e-05
-9.75061e-06
1.62693e-05
-6.53932e-06
1.95506e-05
-3.09966e-06
2.00217e-05
-1.03199e-06
1.61786e-05
1.03204e-05
-8.32607e-07
-4.08475e-07
2.01697e-05
-5.01109e-07
2.09106e-05
-5.83004e-07
2.07164e-05
-6.87683e-07
2.03568e-05
-7.82304e-07
2.00266e-05
-8.05092e-07
1.97916e-05
-6.92558e-07
1.96215e-05
-4.35171e-07
1.93849e-05
-1.61556e-07
1.88636e-05
-1.88169e-07
1.78517e-05
-8.70367e-07
1.63488e-05
-2.29856e-06
1.46962e-05
-4.24332e-06
1.33906e-05
-6.0757e-06
1.29252e-05
-6.96296e-06
1.3433e-05
-6.62929e-06
1.42445e-05
-6.30746e-06
1.42726e-05
-6.28207e-06
1.42084e-05
-5.31645e-06
1.53035e-05
-2.69886e-06
1.69328e-05
4.74184e-07
1.68485e-05
2.68652e-06
1.39662e-05
9.41857e-06
3.58837e-06
-7.53203e-07
2.09229e-05
-9.80961e-07
2.11386e-05
-1.02093e-06
2.07567e-05
-9.66608e-07
2.03026e-05
-8.30941e-07
1.9891e-05
-5.95401e-07
1.95559e-05
-2.41922e-07
1.9268e-05
2.06555e-07
1.89365e-05
6.40329e-07
1.843e-05
8.57444e-07
1.76349e-05
6.4561e-07
1.65608e-05
-5.61115e-08
1.5398e-05
-1.09881e-06
1.44331e-05
-2.10341e-06
1.39298e-05
-2.60838e-06
1.39383e-05
-2.49974e-06
1.41361e-05
-2.28037e-06
1.40534e-05
-2.04424e-06
1.3972e-05
-1.13469e-06
1.43937e-05
8.89135e-07
1.49087e-05
3.40671e-06
1.43308e-05
5.32e-06
1.2053e-05
8.48088e-06
6.25787e-06
-9.79486e-07
2.19024e-05
-1.32143e-06
2.14809e-05
-1.37361e-06
2.08092e-05
-1.25765e-06
2.01866e-05
-1.01306e-06
1.96463e-05
-6.47441e-07
1.91901e-05
-1.67531e-07
1.8788e-05
3.91793e-07
1.83772e-05
9.46223e-07
1.78758e-05
1.3618e-06
1.72195e-05
1.50905e-06
1.64137e-05
1.34679e-06
1.55603e-05
9.64159e-07
1.48158e-05
5.77248e-07
1.43164e-05
4.32976e-07
1.40826e-05
6.09715e-07
1.39594e-05
9.2345e-07
1.37398e-05
1.37766e-06
1.35177e-05
2.31725e-06
1.3454e-05
3.94603e-06
1.32799e-05
5.89389e-06
1.2383e-05
7.51669e-06
1.04303e-05
7.67342e-06
8.32417e-06
-1.05871e-06
2.29612e-05
-1.45421e-06
2.18769e-05
-1.52537e-06
2.08805e-05
-1.39963e-06
2.0061e-05
-1.12336e-06
1.93699e-05
-7.12897e-07
1.87796e-05
-1.83883e-07
1.82591e-05
4.29241e-07
1.77642e-05
1.06209e-06
1.72431e-05
1.62552e-06
1.6656e-05
2.03681e-06
1.60022e-05
2.26554e-06
1.53313e-05
2.3589e-06
1.47222e-05
2.43485e-06
1.42404e-05
2.62737e-06
1.38902e-05
2.99302e-06
1.35937e-05
3.48221e-06
1.32508e-05
4.1265e-06
1.28735e-05
5.09649e-06
1.2484e-05
6.46588e-06
1.19104e-05
8.00981e-06
1.0839e-05
9.33266e-06
9.10733e-06
6.91953e-06
1.00864e-05
-9.78256e-07
2.39397e-05
-1.34185e-06
2.22409e-05
-1.40784e-06
2.09466e-05
-1.29246e-06
1.99458e-05
-1.02825e-06
1.91056e-05
-6.24962e-07
1.83764e-05
-9.60889e-08
1.77304e-05
5.29744e-07
1.71387e-05
1.20457e-06
1.65685e-05
1.86711e-06
1.59936e-05
2.46177e-06
1.54075e-05
2.96382e-06
1.48292e-05
3.3936e-06
1.42923e-05
3.81167e-06
1.38223e-05
4.28928e-06
1.34127e-05
4.86521e-06
1.30178e-05
5.53605e-06
1.25799e-05
6.33012e-06
1.20793e-05
7.32224e-06
1.14916e-05
8.52407e-06
1.07084e-05
9.79173e-06
9.57111e-06
1.08828e-05
8.01617e-06
6.2155e-06
1.15866e-05
-7.40116e-07
2.46802e-05
-9.76081e-07
2.24771e-05
-9.97855e-07
2.09687e-05
-8.95826e-07
1.98436e-05
-6.65235e-07
1.88749e-05
-2.96253e-07
1.80076e-05
2.05891e-07
1.72285e-05
8.19463e-07
1.65254e-05
1.50834e-06
1.58799e-05
2.22869e-06
1.52734e-05
2.94085e-06
1.46953e-05
3.62324e-06
1.41468e-05
4.2803e-06
1.36352e-05
4.93954e-06
1.3163e-05
5.63585e-06
1.27162e-05
6.39172e-06
1.22617e-05
7.21281e-06
1.17586e-05
8.11408e-06
1.11778e-05
9.12058e-06
1.04848e-05
1.02167e-05
9.61209e-06
1.13057e-05
8.48203e-06
1.22385e-05
7.08334e-06
5.54086e-06
1.29131e-05
-3.77729e-07
2.50582e-05
-3.8623e-07
2.24856e-05
-3.22529e-07
2.09053e-05
-2.30769e-07
1.97515e-05
-3.97021e-08
1.86838e-05
2.89275e-07
1.76785e-05
7.58603e-07
1.6759e-05
1.35091e-06
1.59331e-05
2.0375e-06
1.51932e-05
2.78528e-06
1.45255e-05
3.56432e-06
1.39162e-05
4.35536e-06
1.33556e-05
5.15405e-06
1.28363e-05
5.96929e-06
1.23477e-05
6.81478e-06
1.18707e-05
7.69956e-06
1.13767e-05
8.62522e-06
1.08328e-05
9.5938e-06
1.02091e-05
1.0605e-05
9.47358e-06
1.1633e-05
8.58408e-06
1.26105e-05
7.50456e-06
1.34477e-05
6.24605e-06
4.901e-06
1.40875e-05
4.85873e-08
2.50097e-05
3.42488e-07
2.21919e-05
5.19639e-07
2.07281e-05
6.08625e-07
1.96625e-05
7.7862e-07
1.85141e-05
1.08802e-06
1.73692e-05
1.54062e-06
1.63064e-05
2.11944e-06
1.53541e-05
2.8002e-06
1.45123e-05
3.55706e-06
1.37684e-05
4.36702e-06
1.3106e-05
5.2135e-06
1.2509e-05
6.08826e-06
1.19615e-05
6.99029e-06
1.14458e-05
7.92122e-06
1.09399e-05
8.88055e-06
1.04174e-05
9.86354e-06
9.84979e-06
1.08628e-05
9.20982e-06
1.18657e-05
8.47071e-06
1.2844e-05
7.60579e-06
1.37489e-05
6.59966e-06
1.45242e-05
5.4707e-06
4.29121e-06
1.5134e-05
5.33697e-07
2.4476e-05
9.21716e-07
2.18041e-05
1.29036e-06
2.03591e-05
1.44893e-06
1.95042e-05
1.6688e-06
1.82947e-05
2.01715e-06
1.70211e-05
2.4933e-06
1.58305e-05
3.08199e-06
1.47656e-05
3.76465e-06
1.38297e-05
4.52288e-06
1.301e-05
5.34048e-06
1.22883e-05
6.20472e-06
1.16448e-05
7.10705e-06
1.10593e-05
8.04219e-06
1.05109e-05
9.00562e-06
9.9766e-06
9.99111e-06
9.43191e-06
1.09892e-05
8.85163e-06
1.1987e-05
8.21196e-06
1.29665e-05
7.49123e-06
1.39003e-05
6.67195e-06
1.47516e-05
5.74843e-06
1.5482e-05
4.74027e-06
3.70576e-06
1.60674e-05
8.27794e-07
2.3648e-05
1.27011e-06
2.13618e-05
1.76839e-06
1.98604e-05
2.1348e-06
1.9138e-05
2.52759e-06
1.7902e-05
2.99786e-06
1.65509e-05
3.54938e-06
1.52792e-05
4.17752e-06
1.41377e-05
4.87484e-06
1.31325e-05
5.63305e-06
1.22518e-05
6.4441e-06
1.14772e-05
7.30065e-06
1.07881e-05
8.19631e-06
1.01636e-05
9.1252e-06
9.58193e-06
1.00806e-05
9.02109e-06
1.10538e-05
8.45855e-06
1.20329e-05
7.87229e-06
1.30028e-05
7.24195e-06
1.39439e-05
6.55007e-06
1.48313e-05
5.78456e-06
1.56356e-05
4.9441e-06
1.6329e-05
4.04694e-06
3.14104e-06
1.68937e-05
8.84684e-07
2.27634e-05
1.55316e-06
2.0693e-05
2.05505e-06
1.93583e-05
2.70735e-06
1.84858e-05
3.35304e-06
1.72561e-05
3.99707e-06
1.59067e-05
4.65624e-06
1.46199e-05
5.34237e-06
1.34516e-05
6.06249e-06
1.24124e-05
6.81992e-06
1.14943e-05
7.61539e-06
1.06816e-05
8.44765e-06
9.95581e-06
9.31386e-06
9.29727e-06
1.02097e-05
8.686e-06
1.11287e-05
8.10189e-06
1.20619e-05
7.5251e-06
1.29973e-05
6.93671e-06
1.39195e-05
6.31961e-06
1.48098e-05
5.65973e-06
1.56461e-05
4.94831e-06
1.64044e-05
4.18583e-06
1.7063e-05
3.38836e-06
2.59587e-06
1.76082e-05
1.18872e-06
2.15749e-05
1.85424e-06
2.00272e-05
2.50051e-06
1.87124e-05
3.3644e-06
1.76221e-05
4.21693e-06
1.64033e-05
5.01338e-06
1.51101e-05
5.771e-06
1.38623e-05
6.51142e-06
1.27114e-05
7.25202e-06
1.1672e-05
8.00507e-06
1.07413e-05
8.77843e-06
9.90834e-06
9.57619e-06
9.15815e-06
1.03993e-05
8.47424e-06
1.12458e-05
7.83948e-06
1.21109e-05
7.23666e-06
1.29869e-05
6.649e-06
1.38628e-05
6.06071e-06
1.47247e-05
5.45771e-06
1.55557e-05
4.82876e-06
1.63368e-05
4.16735e-06
1.7048e-05
3.47469e-06
1.76719e-05
2.7646e-06
2.07075e-06
1.81972e-05
1.58129e-06
1.99937e-05
2.34426e-06
1.92642e-05
3.20906e-06
1.7848e-05
4.17312e-06
1.6658e-05
5.12757e-06
1.54489e-05
6.01271e-06
1.4225e-05
6.83349e-06
1.30416e-05
7.60981e-06
1.19353e-05
8.36156e-06
1.09205e-05
9.10493e-06
9.99815e-06
9.85188e-06
9.16158e-06
1.06102e-05
8.40002e-06
1.13839e-05
7.70067e-06
1.21735e-05
7.04983e-06
1.29766e-05
6.43361e-06
1.3787e-05
5.83847e-06
1.4596e-05
5.25173e-06
1.53917e-05
4.66217e-06
1.61596e-05
4.061e-06
1.68836e-05
3.44345e-06
1.75473e-05
2.81112e-06
1.81361e-05
2.17593e-06
1.56651e-06
1.86405e-05
1.77032e-06
1.82231e-05
2.8959e-06
1.81388e-05
3.92864e-06
1.68153e-05
4.97205e-06
1.56144e-05
5.97466e-06
1.44462e-05
6.90349e-06
1.32962e-05
7.75826e-06
1.2187e-05
8.55386e-06
1.11399e-05
9.30842e-06
1.01661e-05
1.00387e-05
9.26803e-06
1.07582e-05
8.44222e-06
1.14769e-05
7.68151e-06
1.2201e-05
6.97667e-06
1.29333e-05
6.31751e-06
1.36734e-05
5.69353e-06
1.44174e-05
5.09441e-06
1.51588e-05
4.51045e-06
1.5888e-05
3.93311e-06
1.65932e-05
3.35587e-06
1.72613e-05
2.77547e-06
1.78786e-05
2.19391e-06
1.84329e-05
1.62169e-06
1.08351e-06
1.8916e-05
1.82033e-06
1.64026e-05
3.22976e-06
1.67295e-05
4.44585e-06
1.55989e-05
5.57569e-06
1.44841e-05
6.62377e-06
1.3398e-05
7.58375e-06
1.23363e-05
8.4606e-06
1.13103e-05
9.26778e-06
1.03328e-05
1.00219e-05
9.41207e-06
1.07392e-05
8.55085e-06
1.14337e-05
7.74787e-06
1.21164e-05
6.9989e-06
1.27952e-05
6.29793e-06
1.34747e-05
5.63806e-06
1.41562e-05
5.012e-06
1.48383e-05
4.41246e-06
1.55163e-05
3.83259e-06
1.61831e-05
3.26636e-06
1.68297e-05
2.70935e-06
1.74455e-05
2.15978e-06
1.80192e-05
1.62018e-06
1.85407e-05
1.10012e-06
6.21313e-07
1.90029e-05
1.76302e-06
1.46397e-05
3.34019e-06
1.51525e-05
4.69545e-06
1.42434e-05
5.90644e-06
1.32729e-05
7.0009e-06
1.23035e-05
7.99013e-06
1.13472e-05
8.88572e-06
1.04149e-05
9.70228e-06
9.51641e-06
1.0456e-05
8.65845e-06
1.11627e-05
7.84426e-06
1.18365e-05
7.07418e-06
1.24892e-05
6.34639e-06
1.31294e-05
5.65771e-06
1.37633e-05
5.00421e-06
1.43938e-05
4.38152e-06
1.50213e-05
3.78519e-06
1.56431e-05
3.21094e-06
1.62544e-05
2.65513e-06
1.68486e-05
2.1153e-06
1.74172e-05
1.59111e-06
1.79516e-05
1.08581e-06
1.84433e-05
6.08497e-07
1.78607e-07
1.8886e-05
1.66203e-06
1.29779e-05
3.28755e-06
1.3527e-05
4.71044e-06
1.28203e-05
5.97174e-06
1.20116e-05
7.0992e-06
1.11763e-05
8.11008e-06
1.03367e-05
9.01931e-06
9.5059e-06
9.84239e-06
8.69346e-06
1.05953e-05
7.90569e-06
1.12933e-05
7.14633e-06
1.19505e-05
6.41708e-06
1.25787e-05
5.71819e-06
1.31874e-05
5.04895e-06
1.37835e-05
4.40805e-06
1.43713e-05
3.79376e-06
1.49525e-05
3.20413e-06
1.55263e-05
2.63727e-06
1.60899e-05
2.09167e-06
1.66386e-05
1.56672e-06
1.71663e-05
1.06352e-06
1.76661e-05
5.86115e-07
1.81312e-05
1.43507e-07
-2.46576e-07
1.85565e-05
1.54619e-06
1.14318e-05
3.1317e-06
1.19414e-05
4.55182e-06
1.14001e-05
5.8197e-06
1.07439e-05
6.9538e-06
1.00426e-05
7.96945e-06
9.32133e-06
8.88104e-06
8.59447e-06
9.7034e-06
7.87119e-06
1.04515e-05
7.15764e-06
1.114e-05
6.45793e-06
1.17822e-05
5.7749e-06
1.23897e-05
5.11052e-06
1.29723e-05
4.46622e-06
1.35373e-05
3.84297e-06
1.40897e-05
3.24136e-06
1.46324e-05
2.66163e-06
1.51658e-05
2.10395e-06
1.56889e-05
1.56872e-06
1.61988e-05
1.05702e-06
1.66911e-05
5.71324e-07
1.71608e-05
1.16564e-07
1.76026e-05
-2.98161e-07
-6.56393e-07
1.80126e-05
1.42074e-06
1.0011e-05
2.91159e-06
1.04506e-05
4.27428e-06
1.00374e-05
5.50608e-06
9.5124e-06
6.61559e-06
8.9334e-06
7.61316e-06
8.32396e-06
8.51038e-06
7.69732e-06
9.32002e-06
7.06162e-06
1.00554e-05
6.42235e-06
1.07296e-05
5.78371e-06
1.13551e-05
5.14931e-06
1.1943e-05
4.52258e-06
1.25023e-05
3.90675e-06
1.30405e-05
3.30475e-06
1.35629e-05
2.71912e-06
1.40727e-05
2.15193e-06
1.45717e-05
1.60507e-06
1.506e-05
1.08055e-06
1.55362e-05
5.80952e-07
1.59977e-05
1.10007e-07
1.64409e-05
-3.26477e-07
1.6862e-05
-7.19158e-07
-1.05254e-06
1.72583e-05
1.2862e-06
8.72484e-06
2.65067e-06
9.08606e-06
3.91843e-06
8.76987e-06
5.07926e-06
8.35192e-06
6.13462e-06
7.87827e-06
7.08997e-06
7.3687e-06
7.95351e-06
6.83384e-06
8.73536e-06
6.27986e-06
9.44669e-06
5.71111e-06
1.00989e-05
5.13147e-06
1.07031e-05
4.54511e-06
1.12691e-05
3.95656e-06
1.18053e-05
3.37058e-06
1.23184e-05
2.79181e-06
1.28133e-05
2.22437e-06
1.32936e-05
1.67175e-06
1.37618e-05
1.13707e-06
1.42188e-05
6.23621e-07
1.46647e-05
1.3524e-07
1.5098e-05
-3.23224e-07
1.55168e-05
-7.4514e-07
1.59186e-05
-1.12085e-06
-1.43562e-06
1.63017e-05
1.14475e-06
7.58012e-06
2.36497e-06
7.86589e-06
3.51332e-06
7.62185e-06
4.57707e-06
7.28844e-06
5.55351e-06
6.90192e-06
6.44451e-06
6.47773e-06
7.25527e-06
6.02314e-06
7.99338e-06
5.54186e-06
8.66783e-06
5.03669e-06
9.28826e-06
4.51102e-06
9.86406e-06
3.96929e-06
1.04037e-05
3.41697e-06
1.09143e-05
2.86015e-06
1.14013e-05
2.30497e-06
1.1869e-05
1.75694e-06
1.23205e-05
1.22034e-06
1.27588e-05
6.98938e-07
1.31856e-05
1.96849e-07
1.36021e-05
-2.81083e-07
1.4008e-05
-7.29041e-07
1.44025e-05
-1.13963e-06
1.47846e-05
-1.5029e-06
-1.80471e-06
1.51537e-05
9.99826e-07
6.5803e-06
2.06632e-06
6.79958e-06
3.07989e-06
6.60862e-06
4.02825e-06
6.3402e-06
4.90682e-06
6.02334e-06
5.71518e-06
5.6694e-06
6.45626e-06
5.28213e-06
7.13555e-06
4.86259e-06
7.76019e-06
4.412e-06
8.33807e-06
3.93305e-06
8.87701e-06
3.43034e-06
9.38394e-06
2.91012e-06
9.86444e-06
2.37982e-06
1.03224e-05
1.84716e-06
1.07606e-05
1.31891e-06
1.11816e-05
7.99494e-07
1.15883e-05
2.92285e-07
1.19835e-05
-1.98267e-07
1.2369e-05
-6.66531e-07
1.27458e-05
-1.10581e-06
1.31143e-05
-1.50803e-06
1.34743e-05
-1.86293e-06
-2.15693e-06
1.38265e-05
8.53969e-07
5.72634e-06
1.76292e-06
5.89101e-06
2.63352e-06
5.73826e-06
3.45543e-06
5.5183e-06
4.22339e-06
5.25537e-06
4.9356e-06
4.95724e-06
5.59347e-06
4.62431e-06
6.20092e-06
4.25508e-06
6.7636e-06
3.84918e-06
7.28798e-06
3.40854e-06
7.78053e-06
2.93777e-06
8.2469e-06
2.44385e-06
8.69123e-06
1.93565e-06
9.11558e-06
1.42293e-06
9.52022e-06
9.14353e-07
9.9064e-06
4.13357e-07
1.02775e-05
-7.87387e-08
1.0637e-05
-5.57732e-07
1.09878e-05
-1.01724e-06
1.13317e-05
-1.44966e-06
1.16699e-05
-1.84624e-06
1.20035e-05
-2.19647e-06
-2.48724e-06
1.23337e-05
7.07837e-07
5.01864e-06
1.46068e-06
5.13865e-06
2.18746e-06
5.01164e-06
2.87921e-06
4.82658e-06
3.53028e-06
4.60439e-06
4.13811e-06
4.34953e-06
4.70316e-06
4.05928e-06
5.2283e-06
3.72983e-06
5.71806e-06
3.35927e-06
6.17787e-06
2.94866e-06
6.61337e-06
2.50232e-06
7.02959e-06
2.02777e-06
7.42989e-06
1.53549e-06
7.81458e-06
1.03834e-06
8.17996e-06
5.49006e-07
8.52498e-06
6.83611e-08
8.85388e-06
-4.07594e-07
9.17153e-06
-8.75308e-07
9.48168e-06
-1.3273e-06
9.78689e-06
-1.7548e-06
1.0089e-05
-2.14829e-06
1.03895e-05
-2.49706e-06
-2.78847e-06
1.06907e-05
5.61823e-07
4.45715e-06
1.16723e-06
4.53365e-06
1.75765e-06
4.42129e-06
2.3231e-06
4.26124e-06
2.85746e-06
4.07021e-06
3.35806e-06
3.84906e-06
3.82495e-06
3.59236e-06
4.26025e-06
3.29442e-06
4.66753e-06
2.9519e-06
5.05145e-06
2.56476e-06
5.41742e-06