/*--------------------------------*- C++ -*----------------------------------*\
| =========                 |                                                 |
| \\      /  F ield         | OpenFOAM: The Open Source CFD Toolbox           |
|  \\    /   O peration     | Version:  2.3.0                                 |
|   \\  /    A nd           | Web:      www.OpenFOAM.org                      |
|    \\/     M anipulation  |                                                 |
\*---------------------------------------------------------------------------*/
FoamFile
{
    version     2.0;
    format      ascii;
    class       volVectorField;
    location    "2.25";
    object      U;
}
// * * * * * * * * * * * * * * * * * * * * * * * * * * * * * * * * * * * * * //

dimensions      [0 1 -1 0 0 0 0];

internalField   nonuniform List<vector> 
2268
(
(-0.00874334 0.0032996 0)
(-0.0115079 0.0014484 0)
(-0.0139946 0.000365939 0)
(-0.0150107 7.51485e-05 0)
(-0.015751 0.000108709 0)
(-0.016557 0.000150303 0)
(-0.0172848 0.000117603 0)
(-0.017743 2.15526e-05 0)
(-0.0177903 -0.000120631 0)
(-0.0173741 -0.000281489 0)
(-0.0164769 -0.000444837 0)
(-0.0151092 -0.000598705 0)
(-0.0133282 -0.000722387 0)
(-0.0112636 -0.00077777 0)
(-0.009167 -0.000695461 0)
(-0.00750481 -0.000386679 0)
(-0.00695521 0.000201703 0)
(-0.00783853 0.00136463 0)
(-0.014999 0.00548298 0)
(-0.0307629 0.00723426 0)
(-0.045351 0.00304175 0)
(-0.0464285 -0.00580431 0)
(-0.0221982 -0.0124636 0)
(-0.00790729 0.00629883 0)
(-0.008805 0.00262719 0)
(-0.0105303 0.00118237 0)
(-0.0120046 0.000706165 0)
(-0.0133443 0.000665957 0)
(-0.0145813 0.000638177 0)
(-0.0155532 0.00048312 0)
(-0.0161079 0.000207852 0)
(-0.0161481 -0.000134919 0)
(-0.0156244 -0.000509335 0)
(-0.0145312 -0.000884289 0)
(-0.0129038 -0.00122897 0)
(-0.0108247 -0.00149933 0)
(-0.008441 -0.00162296 0)
(-0.00600574 -0.00147763 0)
(-0.00394352 -0.000912727 0)
(-0.00292264 0.000207209 0)
(-0.00356187 0.00240239 0)
(-0.00707147 0.00766991 0)
(-0.0141999 0.0104303 0)
(-0.022499 0.00591308 0)
(-0.028194 -0.0065385 0)
(-0.0181385 -0.024699 0)
(-0.00495444 0.00914628 0)
(-0.00640328 0.0035173 0)
(-0.00809949 0.00188735 0)
(-0.00996024 0.00141348 0)
(-0.0116946 0.00132666 0)
(-0.0132224 0.0011882 0)
(-0.0143735 0.000854969 0)
(-0.0150088 0.000346081 0)
(-0.0150441 -0.00025897 0)
(-0.014445 -0.000899067 0)
(-0.0132139 -0.00153068 0)
(-0.0113947 -0.00210278 0)
(-0.00907971 -0.00254696 0)
(-0.00641825 -0.00275596 0)
(-0.00365011 -0.00255417 0)
(-0.00115663 -0.00172243 0)
(0.000480117 -4.76459e-05 0)
(0.000624198 0.00295024 0)
(-0.000221919 0.0086378 0)
(-0.00226243 0.0121423 0)
(-0.00634907 0.00840964 0)
(-0.0125975 -0.00542739 0)
(-0.00885004 -0.0324866 0)
(-0.00234679 0.0111259 0)
(-0.00430588 0.00452154 0)
(-0.00616105 0.00279228 0)
(-0.00833515 0.00231661 0)
(-0.0103764 0.00215126 0)
(-0.0121369 0.00185692 0)
(-0.0134365 0.00129735 0)
(-0.0141411 0.00051076 0)
(-0.0141762 -0.000396569 0)
(-0.0135161 -0.00134491 0)
(-0.0121652 -0.00227324 0)
(-0.010169 -0.00310971 0)
(-0.00762134 -0.00376236 0)
(-0.0046641 -0.00409241 0)
(-0.00151306 -0.00387548 0)
(0.00150107 -0.00283303 0)
(0.00391103 -0.000703117 0)
(0.00520653 0.00289411 0)
(0.00626723 0.00860555 0)
(0.00725961 0.0126924 0)
(0.00645819 0.0100756 0)
(0.00167352 -0.00369011 0)
(0.0018194 -0.035099 0)
(-0.000491941 0.0121165 0)
(-0.002516 0.00554181 0)
(-0.00454207 0.00383351 0)
(-0.0069458 0.00336524 0)
(-0.00922031 0.00310173 0)
(-0.0111635 0.0026171 0)
(-0.0125852 0.00179358 0)
(-0.0133516 0.000693706 0)
(-0.0133932 -0.000548482 0)
(-0.0126877 -0.00183698 0)
(-0.0112352 -0.00309464 0)
(-0.00907709 -0.00422818 0)
(-0.0063032 -0.00512412 0)
(-0.00304148 -0.00561794 0)
(0.000523526 -0.00544483 0)
(0.00411735 -0.00428014 0)
(0.0073847 -0.00184023 0)
(0.00997407 0.00211674 0)
(0.0125762 0.00768506 0)
(0.0156151 0.0120317 0)
(0.0173001 0.0106483 0)
(0.0144941 -0.00153564 0)
(0.0120017 -0.0316989 0)
(0.000722749 0.0123739 0)
(-0.00106702 0.00650757 0)
(-0.00318391 0.0049569 0)
(-0.0057162 0.00451158 0)
(-0.00814014 0.00413972 0)
(-0.0102059 0.0034427 0)
(-0.0117154 0.0023301 0)
(-0.0125321 0.000892125 0)
(-0.0125875 -0.000708112 0)
(-0.0118571 -0.00236129 0)
(-0.0103301 -0.00397636 0)
(-0.00803877 -0.00543787 0)
(-0.00506599 -0.00661313 0)
(-0.00152257 -0.00731887 0)
(0.00244126 -0.00725904 0)
(0.00660691 -0.00607547 0)
(0.0107131 -0.0034835 0)
(0.0145299 0.000627901 0)
(0.0185238 0.00602123 0)
(0.0230467 0.0104331 0)
(0.0264661 0.0102396 0)
(0.0254574 0.00106742 0)
(0.021323 -0.0238922 0)
(0.00148307 0.0121342 0)
(5.87385e-05 0.00738415 0)
(-0.00203776 0.00610827 0)
(-0.00458469 0.00570795 0)
(-0.00705579 0.00522757 0)
(-0.00916586 0.00430913 0)
(-0.0107148 0.00289576 0)
(-0.0115633 0.00110593 0)
(-0.0116395 -0.000867479 0)
(-0.0109107 -0.00290544 0)
(-0.00935007 -0.00490463 0)
(-0.00697681 -0.00672486 0)
(-0.00386627 -0.00821542 0)
(-0.000112646 -0.00918119 0)
(0.00416708 -0.00930406 0)
(0.00880677 -0.00820293 0)
(0.0136199 -0.0056028 0)
(0.0184586 -0.00149002 0)
(0.0236153 0.00371019 0)
(0.0292273 0.00815726 0)
(0.0337758 0.00907766 0)
(0.0342498 0.00362698 0)
(0.0307588 -0.0127723 0)
(0.00197817 0.0115775 0)
(0.000910043 0.00816704 0)
(-0.00106565 0.00724501 0)
(-0.00350684 0.00690645 0)
(-0.00590601 0.00632285 0)
(-0.00796467 0.00518844 0)
(-0.00949172 0.00348013 0)
(-0.0103476 0.00133779 0)
(-0.010451 -0.0010153 0)
(-0.00975436 -0.00345486 0)
(-0.00821127 -0.00586375 0)
(-0.0058279 -0.00807072 0)
(-0.00267444 -0.00990567 0)
(0.00116548 -0.0111679 0)
(0.00560358 -0.0115314 0)
(0.010524 -0.0106041 0)
(0.0158048 -0.00812511 0)
(0.0213541 -0.00413327 0)
(0.0273128 0.00086872 0)
(0.0335953 0.00538983 0)
(0.0387343 0.00742116 0)
(0.0396476 0.00596934 0)
(0.041213 0.00544824 0)
(-0.0538058 0.0206722 0)
(-0.111467 0.0133671 0)
(-0.123737 -0.0041164 0)
(-0.105871 -0.00811753 0)
(-0.087407 -0.00817721 0)
(-0.0642089 -0.00941438 0)
(-0.0360684 -0.0114552 0)
(-0.00624241 -0.00939015 0)
(0.00937887 0.000213121 0)
(-0.0104794 0.0114339 0)
(-0.0580116 0.0132467 0)
(-0.0909631 0.0063222 0)
(-0.100528 0.00455741 0)
(-0.128212 0.0138261 0)
(-0.184455 0.0126945 0)
(-0.210007 -0.00213215 0)
(-0.17535 -0.0179833 0)
(-0.107303 -0.0279388 0)
(-0.0329629 -0.0186949 0)
(-0.0725546 0.0494719 0)
(-0.100979 0.0270512 0)
(-0.101757 -0.00293875 0)
(-0.0959603 -0.0110298 0)
(-0.08563 -0.0131952 0)
(-0.0703814 -0.0160646 0)
(-0.0511835 -0.0188153 0)
(-0.0312231 -0.0144385 0)
(-0.0204563 0.0023275 0)
(-0.0338046 0.0231359 0)
(-0.0713304 0.0253248 0)
(-0.100198 0.0136392 0)
(-0.114937 0.0110858 0)
(-0.139469 0.0258799 0)
(-0.171621 0.0236328 0)
(-0.176545 -0.000295747 0)
(-0.155323 -0.0277216 0)
(-0.105024 -0.0514772 0)
(-0.0391993 -0.0433033 0)
(-0.0674029 0.0786445 0)
(-0.0790207 0.0339115 0)
(-0.0868106 -0.00252967 0)
(-0.0886167 -0.0125868 0)
(-0.0847457 -0.0167179 0)
(-0.075604 -0.0212827 0)
(-0.0627653 -0.0247877 0)
(-0.0494431 -0.0189527 0)
(-0.0432753 0.00303857 0)
(-0.0531461 0.0315347 0)
(-0.0786443 0.0360406 0)
(-0.10232 0.022044 0)
(-0.118308 0.0182996 0)
(-0.13226 0.0329837 0)
(-0.144764 0.0269902 0)
(-0.146435 -0.00281321 0)
(-0.130213 -0.0391658 0)
(-0.0890375 -0.0751369 0)
(-0.0338531 -0.0725568 0)
(-0.0561368 0.105698 0)
(-0.0618567 0.0402335 0)
(-0.0761488 0.000759804 0)
(-0.0840017 -0.011913 0)
(-0.0858817 -0.0183677 0)
(-0.0821272 -0.0248705 0)
(-0.0743042 -0.0293066 0)
(-0.0654367 -0.0220674 0)
(-0.0631604 0.00463628 0)
(-0.0717 0.037735 0)
(-0.0880783 0.0445119 0)
(-0.105957 0.0299445 0)
(-0.120817 0.02422 0)
(-0.127522 0.0355848 0)
(-0.127524 0.0274699 0)
(-0.122845 -0.00550857 0)
(-0.10445 -0.0506961 0)
(-0.0697114 -0.0940474 0)
(-0.0265396 -0.0958322 0)
(-0.0436511 0.127398 0)
(-0.0484135 0.0469347 0)
(-0.0690936 0.00642394 0)
(-0.0822251 -0.00879563 0)
(-0.0892925 -0.0178029 0)
(-0.0904575 -0.026457 0)
(-0.0869838 -0.032202 0)
(-0.0811883 -0.0239921 0)
(-0.0809957 0.00685675 0)
(-0.0886285 0.0419975 0)
(-0.0988552 0.0501386 0)
(-0.110982 0.0362932 0)
(-0.123029 0.0286975 0)
(-0.12476 0.0346129 0)
(-0.116245 0.0245851 0)
(-0.103901 -0.0108462 0)
(-0.0824872 -0.0618736 0)
(-0.0536818 -0.107956 0)
(-0.0205978 -0.113812 0)
(-0.0308258 0.143997 0)
(-0.0389232 0.0549633 0)
(-0.0658213 0.014478 0)
(-0.0834949 -0.00342208 0)
(-0.0950696 -0.015118 0)
(-0.100751 -0.0260704 0)
(-0.101337 -0.0336127 0)
(-0.0978239 -0.0252619 0)
(-0.0978731 0.00909698 0)
(-0.104144 0.0450032 0)
(-0.11002 0.0533405 0)
(-0.116841 0.0405701 0)
(-0.124473 0.0313357 0)
(-0.122128 0.0313798 0)
(-0.107993 0.0184547 0)
(-0.0888125 -0.0189379 0)
(-0.0651366 -0.0725117 0)
(-0.0410473 -0.118841 0)
(-0.0154987 -0.128107 0)
(-0.0171993 0.15686 0)
(-0.035031 0.0653812 0)
(-0.0668327 0.0246497 0)
(-0.0878837 0.00374989 0)
(-0.103051 -0.0106136 0)
(-0.112848 -0.0238432 0)
(-0.117596 -0.0336021 0)
(-0.116536 -0.0263661 0)
(-0.115135 0.0107141 0)
(-0.118288 0.0470058 0)
(-0.120075 0.0546499 0)
(-0.122051 0.042669 0)
(-0.124293 0.0318097 0)
(-0.11776 0.0266707 0)
(-0.0998437 0.0101349 0)
(-0.0761642 -0.0287339 0)
(-0.0507098 -0.0826495 0)
(-0.0295432 -0.127586 0)
(-0.0110108 -0.139096 0)
(-0.00817981 0.166989 0)
(-0.0396009 0.0776254 0)
(-0.0725266 0.0360127 0)
(-0.0950498 0.0121053 0)
(-0.112668 -0.0046167 0)
(-0.126141 -0.0197857 0)
(-0.135317 -0.0318935 0)
(-0.137891 -0.0269156 0)
(-0.134946 0.0108082 0)
(-0.131663 0.0472971 0)
(-0.127327 0.0541108 0)
(-0.1244 0.0426662 0)
(-0.121608 0.0302467 0)
(-0.110857 0.0206695 0)
(-0.0896729 0.000642219 0)
(-0.0629406 -0.0396935 0)
(-0.0364769 -0.0927523 0)
(-0.0174488 -0.134266 0)
(-0.00640241 -0.145958 0)
(0.00248977 0.0109963 0)
(0.00187317 0.00929753 0)
(0.000149978 0.00894471 0)
(-0.0019631 0.0086862 0)
(-0.00406673 0.00794088 0)
(-0.00589168 0.00649691 0)
(-0.00728906 0.00437021 0)
(-0.00812192 0.00170497 0)
(-0.00827487 -0.00122856 0)
(-0.00766046 -0.00430166 0)
(-0.00620658 -0.00736533 0)
(-0.00390608 -0.0101904 0)
(-0.000831907 -0.0125711 0)
(0.00292346 -0.0143097 0)
(0.0072987 -0.0151014 0)
(0.0122651 -0.0145647 0)
(0.017825 -0.0124725 0)
(0.0239672 -0.00885126 0)
(0.0305974 -0.00417386 0)
(0.0372507 0.000613757 0)
(0.0422763 0.00468699 0)
(0.0420991 0.0091532 0)
(0.0360752 0.0204532 0)
(0.000846186 0.0087286 0)
(0.00114643 0.0104532 0)
(0.000103797 0.0108562 0)
(-0.00106879 0.0106385 0)
(-0.00223818 0.00963372 0)
(-0.00332333 0.00779317 0)
(-0.00436623 0.00518094 0)
(-0.00521006 0.00193191 0)
(-0.00550331 -0.00163396 0)
(-0.00497266 -0.00540489 0)
(-0.0036062 -0.00919416 0)
(-0.00145345 -0.0126901 0)
(0.00135339 -0.0156909 0)
(0.00450824 -0.0180604 0)
(0.00782479 -0.0194811 0)
(0.0115367 -0.01954 0)
(0.0161668 -0.0179928 0)
(0.022054 -0.0148311 0)
(0.0286753 -0.0103566 0)
(0.0349468 -0.0048646 0)
(0.0383373 0.00174437 0)
(0.0336557 0.0113035 0)
(0.0162263 0.0287507 0)
(-0.00415996 0.00723722 0)
(-0.00230598 0.00928301 0)
(-0.00201955 0.0104062 0)
(-0.000997092 0.0107407 0)
(-0.000218162 0.00984798 0)
(0.000134146 0.00810371 0)
(-0.00075257 0.00572752 0)
(-0.00258105 0.00245362 0)
(-0.0036208 -0.00136554 0)
(-0.0029958 -0.00545655 0)
(-0.00169969 -0.00968689 0)
(0.000205938 -0.0135308 0)
(0.00259137 -0.016773 0)
(0.00395588 -0.0192659 0)
(0.0029611 -0.0205569 0)
(0.00104719 -0.0210735 0)
(0.00129808 -0.0203988 0)
(0.00594826 -0.0176551 0)
(0.012375 -0.0127588 0)
(0.0187464 -0.00555217 0)
(0.0212715 0.00563291 0)
(0.00835215 0.0255483 0)
(-0.0333672 0.0609629 0)
(-0.0257205 0.0123214 0)
(-0.0276356 0.0112759 0)
(-0.0255632 0.00558906 0)
(-0.0148519 0.00888913 0)
(-0.00888811 0.00833817 0)
(-0.00386937 0.00600286 0)
(-0.00651559 0.00971148 0)
(-0.0207285 0.00910769 0)
(-0.0307282 -0.00162928 0)
(-0.0259192 -0.0063308 0)
(-0.0246677 -0.0114573 0)
(-0.0225997 -0.0176456 0)
(-0.0182474 -0.0230037 0)
(-0.0194664 -0.0205097 0)
(-0.0465482 -0.00603515 0)
(-0.0985747 -0.00330567 0)
(-0.129781 -0.0232056 0)
(-0.117906 -0.0330352 0)
(-0.099129 -0.0266233 0)
(-0.0820108 -0.0175925 0)
(-0.0618104 0.000822668 0)
(-0.0370697 0.0578314 0)
(-0.0654376 0.136676 0)
(-0.038064 0.0556614 0)
(-0.0713492 0.0300139 0)
(-0.073972 -0.0108889 0)
(-0.0761597 -0.00285544 0)
(-0.0770014 0.000929744 0)
(-0.0754454 0.00417451 0)
(-0.0785415 0.031813 0)
(-0.0884235 0.0238545 0)
(-0.0863248 -0.00739775 0)
(-0.0900704 -0.0115725 0)
(-0.0943267 -0.0158386 0)
(-0.098019 -0.0217033 0)
(-0.102315 -0.0219255 0)
(-0.112024 0.0071158 0)
(-0.174131 0.0677267 0)
(-0.246644 0.0279733 0)
(-0.261862 -0.0208955 0)
(-0.266033 -0.0407573 0)
(-0.260933 -0.0459399 0)
(-0.241864 -0.052961 0)
(-0.212116 -0.0362636 0)
(-0.181493 0.0363652 0)
(-0.149291 0.190623 0)
(-0.0104054 0.0920749 0)
(-0.0241302 0.0695837 0)
(-0.0509509 -0.000590301 0)
(-0.088994 0.0119563 0)
(-0.10414 0.00601547 0)
(-0.108338 -4.02138e-05 0)
(-0.104188 0.0205286 0)
(-0.096128 0.0223857 0)
(-0.096641 0.00158306 0)
(-0.118809 0.000340225 0)
(-0.134198 -0.00486107 0)
(-0.142626 -0.0122606 0)
(-0.148394 -0.0137131 0)
(-0.161839 0.0298747 0)
(-0.192387 0.132253 0)
(-0.248588 0.0838001 0)
(-0.271613 -0.00553807 0)
(-0.292451 -0.038356 0)
(-0.308181 -0.0465928 0)
(-0.314007 -0.0593175 0)
(-0.309923 -0.0521282 0)
(-0.303915 0.00112872 0)
(-0.280436 0.126364 0)
(-0.0134009 0.103848 0)
(-0.0170231 0.0854816 0)
(-0.0411232 0.0440031 0)
(-0.0674857 0.0433485 0)
(-0.0841395 0.0234703 0)
(-0.10438 0.00605987 0)
(-0.117203 0.0190668 0)
(-0.123227 0.0226816 0)
(-0.151089 0.0246059 0)
(-0.189006 0.0305911 0)
(-0.207179 0.00875874 0)
(-0.1997 -0.010071 0)
(-0.185963 -0.00880318 0)
(-0.188787 0.054091 0)
(-0.17516 0.151897 0)
(-0.177202 0.140619 0)
(-0.213061 0.0263338 0)
(-0.287562 -0.0155172 0)
(-0.341057 -0.0319997 0)
(-0.35735 -0.0575443 0)
(-0.374131 -0.0481467 0)
(-0.384213 -0.00485816 0)
(-0.371496 0.0751747 0)
(-0.00581423 0.114143 0)
(-0.0106421 0.0953478 0)
(-0.0275138 0.0693917 0)
(-0.046698 0.0595025 0)
(-0.0645737 0.0451174 0)
(-0.0885634 0.0338472 0)
(-0.113777 0.0366638 0)
(-0.137874 0.0485345 0)
(-0.167423 0.0623285 0)
(-0.196692 0.0562098 0)
(-0.203439 0.00730181 0)
(-0.199542 -0.0240804 0)
(-0.191306 -0.0205749 0)
(-0.176817 0.0343828 0)
(-0.151365 0.124192 0)
(-0.136011 0.150011 0)
(-0.162449 0.110267 0)
(-0.210696 0.0817747 0)
(-0.267368 0.0373566 0)
(-0.349628 -0.0334447 0)
(-0.395195 -0.0278656 0)
(-0.403075 -0.00295981 0)
(-0.378291 0.0339828 0)
(0.00206387 0.117206 0)
(-0.00242972 0.102972 0)
(-0.0145742 0.0849222 0)
(-0.0296639 0.0745879 0)
(-0.0464388 0.0649398 0)
(-0.0681148 0.0595949 0)
(-0.0915282 0.0635223 0)
(-0.113408 0.0748115 0)
(-0.132747 0.0847789 0)
(-0.149279 0.0721958 0)
(-0.162612 0.0138131 0)
(-0.175372 -0.0238789 0)
(-0.182282 -0.0262085 0)
(-0.174226 0.0122146 0)
(-0.151022 0.0866137 0)
(-0.128893 0.140843 0)
(-0.133212 0.130961 0)
(-0.14729 0.104632 0)
(-0.166693 0.100592 0)
(-0.222239 0.0749932 0)
(-0.329945 0.0155888 0)
(-0.363804 0.00432153 0)
(-0.346061 0.0128789 0)
(0.00543258 0.114543 0)
(0.00293051 0.108886 0)
(-0.00513517 0.0966974 0)
(-0.0163613 0.0884275 0)
(-0.0298204 0.0823381 0)
(-0.0462721 0.0800664 0)
(-0.0634445 0.0836325 0)
(-0.0780181 0.0918429 0)
(-0.0877541 0.0969363 0)
(-0.0941125 0.0827034 0)
(-0.109124 0.0346787 0)
(-0.13988 -0.00566006 0)
(-0.160931 -0.0192069 0)
(-0.168091 0.00516048 0)
(-0.157794 0.0628637 0)
(-0.138057 0.123535 0)
(-0.121472 0.126918 0)
(-0.116088 0.105288 0)
(-0.112584 0.112472 0)
(-0.128675 0.128659 0)
(-0.176664 0.100885 0)
(-0.249919 0.0267124 0)
(-0.299002 -0.00532728 0)
(0.00474367 0.110359 0)
(0.00438526 0.111705 0)
(-9.48939e-05 0.104595 0)
(-0.00750605 0.0988094 0)
(-0.0168258 0.0949772 0)
(-0.0276872 0.0939634 0)
(-0.0385171 0.0964183 0)
(-0.0468749 0.100986 0)
(-0.0511212 0.101977 0)
(-0.0538704 0.0894566 0)
(-0.0642124 0.0590254 0)
(-0.0872631 0.0262153 0)
(-0.120958 0.00156179 0)
(-0.145659 0.0135841 0)
(-0.149836 0.0552084 0)
(-0.135129 0.103579 0)
(-0.112734 0.108957 0)
(-0.0977187 0.0951846 0)
(-0.0880297 0.10721 0)
(-0.0818136 0.140525 0)
(-0.0893383 0.138759 0)
(-0.112355 0.0916069 0)
(-0.147651 0.0227679 0)
(0.00234425 0.107117 0)
(0.00305046 0.112303 0)
(0.00107815 0.108958 0)
(-0.00308737 0.105306 0)
(-0.00857869 0.102817 0)
(-0.0147589 0.102166 0)
(-0.0205051 0.103418 0)
(-0.0243978 0.105177 0)
(-0.0257358 0.103695 0)
(-0.0267573 0.0935177 0)
(-0.0333195 0.0733224 0)
(-0.04896 0.0510429 0)
(-0.0725906 0.034091 0)
(-0.0988524 0.0324602 0)
(-0.115574 0.056298 0)
(-0.108597 0.089687 0)
(-0.092317 0.0913725 0)
(-0.0806965 0.0837446 0)
(-0.0741009 0.0968801 0)
(-0.0619728 0.13097 0)
(-0.0476891 0.136953 0)
(-0.0418547 0.104802 0)
(-0.0465926 0.0577188 0)
(-0.000244778 0.106041 0)
(0.000399689 0.112143 0)
(-0.000285509 0.110903 0)
(-0.00216402 0.108611 0)
(-0.00470971 0.106819 0)
(-0.00742459 0.106105 0)
(-0.0095854 0.106338 0)
(-0.0104571 0.106361 0)
(-0.00998338 0.103798 0)
(-0.00985699 0.0958127 0)
(-0.0136131 0.082035 0)
(-0.0236058 0.0667122 0)
(-0.0393376 0.0551993 0)
(-0.0572374 0.0534074 0)
(-0.0698768 0.0640643 0)
(-0.0695307 0.079986 0)
(-0.0627113 0.0805303 0)
(-0.0589357 0.0771057 0)
(-0.057096 0.0897629 0)
(-0.0444512 0.114794 0)
(-0.0250197 0.118312 0)
(-0.00923935 0.094727 0)
(-0.00300304 0.0587569 0)
(-0.00248092 0.107169 0)
(-0.00251232 0.112325 0)
(-0.00281406 0.111598 0)
(-0.00337337 0.109791 0)
(-0.00397931 0.10816 0)
(-0.00438021 0.10714 0)
(-0.00420006 0.10657 0)
(-0.00314376 0.105606 0)
(-0.00142848 0.10278 0)
(-0.000287868 0.0966197 0)
(-0.0018449 0.0870753 0)
(-0.00758269 0.0765497 0)
(-0.017222 0.0683984 0)
(-0.0283847 0.0660115 0)
(-0.0364688 0.0704696 0)
(-0.0373347 0.0771841 0)
(-0.0347421 0.0770657 0)
(-0.0342565 0.076156 0)
(-0.0328225 0.0848987 0)
(-0.0227754 0.0981139 0)
(-0.00575978 0.0988582 0)
(0.009924 0.0812014 0)
(0.0185672 0.0537959 0)
(-0.00420005 0.110425 0)
(-0.0050327 0.113204 0)
(-0.00543679 0.111838 0)
(-0.00540249 0.109779 0)
(-0.00492277 0.107868 0)
(-0.00395811 0.106373 0)
(-0.00238301 0.105137 0)
(-0.000157872 0.10358 0)
(0.0024154 0.100812 0)
(0.00446207 0.0960456 0)
(0.00469053 0.0893271 0)
(0.00219506 0.0820019 0)
(-0.00284839 0.0760615 0)
(-0.00894662 0.0733848 0)
(-0.0134636 0.0743747 0)
(-0.0142563 0.0766302 0)
(-0.0129175 0.0763695 0)
(-0.0120526 0.0760802 0)
(-0.00976934 0.0800212 0)
(-0.00175319 0.0853426 0)
(0.0114733 0.0833823 0)
(0.0244977 0.0696428 0)
(0.0324307 0.04816 0)
(-0.00528018 0.115246 0)
(-0.00673121 0.114807 0)
(-0.00739933 0.112064 0)
(-0.00719998 0.109235 0)
(-0.00623716 0.106721 0)
(-0.00459996 0.104617 0)
(-0.00230958 0.102766 0)
(0.000553641 0.100769 0)
(0.00368758 0.0980845 0)
(0.00647543 0.094271 0)
(0.0081169 0.0893743 0)
(0.00805425 0.0841266 0)
(0.00638141 0.0796388 0)
(0.00397753 0.0769043 0)
(0.00228695 0.0760954 0)
(0.00244962 0.0760561 0)
(0.00394075 0.0751955 0)
(0.00577395 0.0743892 0)
(0.00909414 0.0751167 0)
(0.0160634 0.0756244 0)
(0.0263367 0.0714784 0)
(0.0367307 0.0601632 0)
(0.0436216 0.0433422 0)
(-0.00565339 0.120908 0)
(-0.00735024 0.116902 0)
(-0.00820646 0.112421 0)
(-0.00802121 0.108547 0)
(-0.00693917 0.105243 0)
(-0.00508502 0.102436 0)
(-0.00253469 0.0999605 0)
(0.000593852 0.0975367 0)
(0.00404026 0.0948222 0)
(0.00736929 0.0915556 0)
(0.0100683 0.0877489 0)
(0.011779 0.0837769 0)
(0.0125276 0.0802207 0)
(0.0127976 0.0775736 0)
(0.0133679 0.0758959 0)
(0.0148593 0.0746364 0)
(0.0171878 0.0730714 0)
(0.0200963 0.0714065 0)
(0.0242332 0.0699898 0)
(0.0305838 0.0676916 0)
(0.0388203 0.0622302 0)
(0.0470677 0.0523719 0)
(0.0529741 0.0391973 0)
(-0.00530295 0.1266 0)
(-0.00676326 0.119079 0)
(-0.00757717 0.112845 0)
(-0.00741716 0.107893 0)
(-0.00640419 0.103748 0)
(-0.00460487 0.10019 0)
(-0.00207733 0.0970544 0)
(0.00107243 0.0941451 0)
(0.00463662 0.0912429 0)
(0.00830477 0.0881786 0)
(0.0117346 0.0849303 0)
(0.0146817 0.0816621 0)
(0.0171243 0.0786459 0)
(0.0193024 0.076098 0)
(0.0216209 0.0740077 0)
(0.0244217 0.0720758 0)
(0.0277583 0.0699205 0)
(0.0316182 0.0674866 0)
(0.0363352 0.0647084 0)
(0.0422941 0.0608635 0)
(0.0491796 0.0547917 0)
(0.0558562 0.0459705 0)
(0.0609619 0.0353366 0)
(-0.00425545 0.131467 0)
(-0.00496873 0.120832 0)
(-0.00543188 0.113154 0)
(-0.00522398 0.107324 0)
(-0.00436186 0.102404 0)
(-0.00275708 0.0980899 0)
(-0.000401194 0.0942522 0)
(0.00263276 0.0907766 0)
(0.00618273 0.0875288 0)
(0.0100207 0.0843924 0)
(0.0139056 0.0813193 0)
(0.0176583 0.078351 0)
(0.0212283 0.0755792 0)
(0.0247137 0.0730626 0)
(0.0283065 0.0707424 0)
(0.0321817 0.0684187 0)
(0.0364005 0.0658418 0)
(0.0409922 0.0628662 0)
(0.0460955 0.0593123 0)
(0.0518026 0.054727 0)
(0.0578277 0.0485358 0)
(0.0634719 0.040586 0)
(0.0680228 0.0316426 0)
(-0.00269368 0.134697 0)
(-0.00214993 0.12161 0)
(-0.00193497 0.113122 0)
(-0.0015816 0.106842 0)
(-0.000891663 0.101288 0)
(0.000486016 0.0962245 0)
(0.0026397 0.0916432 0)
(0.00552088 0.0875254 0)
(0.00899557 0.0838046 0)
(0.0128873 0.0803961 0)
(0.0170165 0.0772339 0)
(0.0212435 0.0742872 0)
(0.0255038 0.0715446 0)
(0.0298164 0.0689741 0)
(0.0342539 0.0664828 0)
(0.0388871 0.0639082 0)
(0.0437413 0.0610573 0)
(0.0488202 0.0577657 0)
(0.0541449 0.0538482 0)
(0.0596729 0.0490237 0)
(0.0651582 0.0430195 0)
(0.0701669 0.0358575 0)
(0.0743318 0.0281138 0)
(-0.000758339 0.135861 0)
(0.00125124 0.12088 0)
(0.00236618 0.112513 0)
(0.00298167 0.106426 0)
(0.00356761 0.100382 0)
(0.00482533 0.0945597 0)
(0.00687848 0.0891997 0)
(0.00967364 0.0843931 0)
(0.013088 0.0801236 0)
(0.016979 0.0763224 0)
(0.0212093 0.0729085 0)
(0.025669 0.069808 0)
(0.0302916 0.066951 0)
(0.0350567 0.0642546 0)
(0.0399721 0.0616049 0)
(0.0450458 0.0588541 0)
(0.0502639 0.0558383 0)
(0.0555942 0.0524021 0)
(0.0609913 0.0483863 0)
(0.0663549 0.0436153 0)
(0.0714774 0.0379679 0)
(0.0760803 0.0315338 0)
(0.0799696 0.0247515 0)
(0.00141713 0.133999 0)
(0.00419166 0.118955 0)
(0.00603669 0.111031 0)
(0.00732673 0.105838 0)
(0.00823876 0.0994459 0)
(0.00973124 0.0928804 0)
(0.0119481 0.0867621 0)
(0.0148259 0.081287 0)
(0.0182624 0.0764673 0)
(0.0221526 0.0722361 0)
(0.0264005 0.0684989 0)
(0.0309267 0.0651556 0)
(0.0356747 0.0621047 0)
(0.04061 0.0592376 0)
(0.0457101 0.0564305 0)
(0.0509487 0.0535453 0)
(0.0562847 0.0504375 0)
(0.0616594 0.0469695 0)
(0.0669939 0.0430116 0)
(0.072168 0.0384509 0)
(0.0770068 0.0332393 0)
(0.0813195 0.027484 0)
(0.0849984 0.0215327 0)
(0.00271915 0.130123 0)
(0.00595122 0.116547 0)
(0.00819779 0.108684 0)
(0.0104511 0.104472 0)
(0.0124377 0.0979007 0)
(0.0147272 0.0907619 0)
(0.0174646 0.084051 0)
(0.0206367 0.078043 0)
(0.0242042 0.0727655 0)
(0.0281218 0.0681507 0)
(0.0323438 0.0640969 0)
(0.0368277 0.0604922 0)
(0.0415369 0.0572223 0)
(0.0464401 0.0541697 0)
(0.0515056 0.0512108 0)
(0.0566933 0.0482179 0)
(0.0619489 0.0450636 0)
(0.0672009 0.0416291 0)
(0.0723577 0.0378101 0)
(0.0772982 0.0335302 0)
(0.081874 0.0287749 0)
(0.0859457 0.0236479 0)
(0.0894478 0.0184331 0)
(0.00303998 0.125571 0)
(0.00699941 0.113559 0)
(0.00957928 0.105962 0)
(0.0127471 0.101756 0)
(0.0162513 0.0951253 0)
(0.0197035 0.0877784 0)
(0.0231862 0.0808023 0)
(0.0267849 0.0745099 0)
(0.0305526 0.0689485 0)
(0.0345163 0.0640623 0)
(0.0386851 0.0597567 0)
(0.0430563 0.0559233 0)
(0.0476186 0.0524501 0)
(0.0523535 0.0492232 0)
(0.0572331 0.0461273 0)
(0.0622167 0.0430476 0)
(0.0672483 0.0398737 0)
(0.0722551 0.0365047 0)
(0.0771458 0.0328565 0)
(0.0818077 0.0288748 0)
(0.0861149 0.0245592 0)
(0.0899594 0.0200026 0)
(0.0932974 0.0154403 0)
(0.0044993 0.12022 0)
(0.00860027 0.110167 0)
(0.0115198 0.102898 0)
(0.0156759 0.0976597 0)
(0.0203807 0.0910174 0)
(0.0248165 0.0838401 0)
(0.0289666 0.0769501 0)
(0.0329628 0.0706463 0)
(0.0369188 0.0649998 0)
(0.0409152 0.0599814 0)
(0.0450047 0.0555181 0)
(0.0492183 0.051518 0)
(0.0535686 0.0478824 0)
(0.0580532 0.0445101 0)
(0.0626544 0.0412997 0)
(0.0673387 0.0381523 0)
(0.0720559 0.0349742 0)
(0.0767394 0.0316816 0)
(0.0813061 0.0282069 0)
(0.0856565 0.0245097 0)
(0.089684 0.0205954 0)
(0.0933015 0.0165442 0)
(0.096477 0.0125535 0)
(0.00650072 0.112678 0)
(0.0109963 0.106396 0)
(0.014755 0.098897 0)
(0.0197475 0.0926696 0)
(0.02502 0.0860572 0)
(0.0299766 0.079235 0)
(0.0345363 0.0726488 0)
(0.0387966 0.0665304 0)
(0.0428742 0.0609611 0)
(0.0468687 0.0559376 0)
(0.0508559 0.0514126 0)
(0.0548881 0.047317 0)
(0.0589965 0.0435712 0)
(0.0631933 0.0400918 0)
(0.0674729 0.0367947 0)
(0.0718124 0.033598 0)
(0.0761719 0.0304251 0)
(0.0804952 0.0272082 0)
(0.0847112 0.0238935 0)
(0.0887352 0.0204511 0)
(0.0924782 0.0168886 0)
(0.0958683 0.013275 0)
(0.0988803 0.00977715 0)
(0.00726274 0.10327 0)
(0.0131166 0.101268 0)
(0.0182615 0.0937953 0)
(0.0238833 0.0872089 0)
(0.029452 0.0807347 0)
(0.0346541 0.0743044 0)
(0.0394275 0.0681021 0)
(0.0438339 0.062274 0)
(0.047971 0.0568895 0)
(0.0519359 0.0519591 0)
(0.0558113 0.0474567 0)
(0.0596605 0.0433344 0)
(0.0635265 0.039533 0)
(0.0674336 0.0359882 0)
(0.0713877 0.0326342 0)
(0.0753773 0.029407 0)
(0.0793742 0.0262462 0)
(0.0833344 0.0230989 0)
(0.0872004 0.0199242 0)
(0.0909027 0.0167004 0)
(0.0943676 0.0134374 0)
(0.0975359 0.0101947 0)
(0.100386 0.00711538 0)
(0.00702671 0.0933338 0)
(0.0142082 0.0943355 0)
(0.0206972 0.0876654 0)
(0.026959 0.0813261 0)
(0.0328386 0.075191 0)
(0.0382344 0.069198 0)
(0.0431513 0.0634212 0)
(0.0476504 0.0579443 0)
(0.0518186 0.0528174 0)
(0.0557473 0.0480555 0)
(0.0595193 0.0436463 0)
(0.0632029 0.0395597 0)
(0.0668486 0.0357552 0)
(0.0704898 0.0321867 0)
(0.0741425 0.0288067 0)
(0.0778059 0.0255678 0)
(0.0814632 0.0224257 0)
(0.085083 0.0193414 0)
(0.088621 0.0162854 0)
(0.0920221 0.0132444 0)
(0.0952269 0.0102304 0)
(0.0981865 0.00729692 0)
(0.100882 0.00456827 0)
(0.0064054 0.0835982 0)
(0.0143258 0.0861182 0)
(0.021758 0.0806339 0)
(0.0285705 0.0749716 0)
(0.0347652 0.0693946 0)
(0.0403523 0.0639304 0)
(0.0453951 0.0586336 0)
(0.0499701 0.0535604 0)
(0.0541633 0.0487494 0)
(0.0580628 0.044217 0)
(0.0617506 0.0399608 0)
(0.0652966 0.035965 0)
(0.0687563 0.0322056 0)
(0.0721697 0.0286534 0)
(0.0755609 0.0252775 0)
(0.0789382 0.0220465 0)
(0.0822953 0.0189306 0)
(0.0856123 0.015904 0)
(0.0888575 0.0129483 0)
(0.0919887 0.0100579 0)
(0.0949591 0.00724822 0)
(0.0977294 0.00456911 0)
(0.100283 0.00213086 0)
(0.00581818 0.0743343 0)
(0.0138344 0.0773442 0)
(0.0216849 0.0730369 0)
(0.0288113 0.0682422 0)
(0.0352208 0.0633676 0)
(0.0409492 0.0585153 0)
(0.0460848 0.0537524 0)
(0.0507141 0.0491297 0)
(0.0549233 0.0446819 0)
(0.0587979 0.0404281 0)
(0.0624178 0.0363741 0)
(0.065853 0.0325162 0)
(0.0691614 0.0288443 0)
(0.0723873 0.0253448 0)
(0.0755606 0.0220015 0)
(0.078697 0.0187977 0)
(0.0817989 0.015717 0)
(0.0848563 0.0127457 0)
(0.0878485 0.00987571 0)
(0.0907451 0.00710933 0)
(0.0935104 0.00446598 0)
(0.0961136 0.00199419 0)
(0.0985404 -0.000206338 0)
(0.00534247 0.0656662 0)
(0.0130157 0.0685938 0)
(0.0208265 0.0652825 0)
(0.0279768 0.0613577 0)
(0.0344244 0.0572251 0)
(0.0401842 0.05302 0)
(0.0453399 0.0488202 0)
(0.0499749 0.0446769 0)
(0.0541708 0.0406242 0)
(0.0580079 0.036684 0)
(0.0615623 0.0328688 0)
(0.0649019 0.0291852 0)
(0.0680845 0.0256356 0)
(0.071156 0.0222196 0)
(0.0741495 0.0189344 0)
(0.0770858 0.015776 0)
(0.0799738 0.0127402 0)
(0.082812 0.00982415 0)
(0.0855888 0.00702949 0)
(0.0882839 0.00436594 0)
(0.0908715 0.0018577 0)
(0.0933288 -0.000446629 0)
(0.0956441 -0.00245526 0)
(0.00491076 0.0576515 0)
(0.0120122 0.0602422 0)
(0.0194589 0.057716 0)
(0.0263738 0.0545635 0)
(0.0326649 0.051132 0)
(0.0383143 0.047557 0)
(0.0433859 0.0439154 0)
(0.0479506 0.0402553 0)
(0.0520801 0.0366088 0)
(0.0558465 0.0329992 0)
(0.0593193 0.0294442 0)
(0.062562 0.0259588 0)
(0.0656296 0.0225562 0)
(0.0685667 0.0192473 0)
(0.0714069 0.0160409 0)
(0.0741732 0.012944 0)
(0.0768792 0.00996241 0)
(0.0795297 0.00710322 0)
(0.0821208 0.00437653 0)
(0.0846409 0.00179926 0)
(0.0870725 -0.000599574 0)
(0.0894007 -0.00277034 0)
(0.0916165 -0.00462716 0)
(0.00446973 0.0503408 0)
(0.0108909 0.0525098 0)
(0.0177686 0.0505819 0)
(0.0242508 0.0480712 0)
(0.0302117 0.045257 0)
(0.0356069 0.0422577 0)
(0.0404786 0.039139 0)
(0.0448813 0.0359406 0)
(0.0488742 0.0326896 0)
(0.0525192 0.0294084 0)
(0.0558773 0.0261183 0)
(0.0590056 0.0228411 0)
(0.0619535 0.0195988 0)
(0.0647615 0.016412 0)
(0.0674607 0.0132994 0)
(0.0700737 0.0102765 0)
(0.0726167 0.00735744 0)
(0.0750989 0.0045571 0)
(0.0775229 0.00189313 0)
(0.0798842 -0.000611153 0)
(0.0821731 -0.00292211 0)
(0.0843815 -0.00498848 0)
(0.086504 -0.00672897 0)
(0.00400668 0.043781 0)
(0.00969589 0.045522 0)
(0.0158828 0.0440413 0)
(0.021793 0.0420433 0)
(0.0272849 0.0397477 0)
(0.0322991 0.0372496 0)
(0.0368597 0.0345978 0)
(0.0410063 0.0318193 0)
(0.0447854 0.0289337 0)
(0.0482484 0.0259608 0)
(0.0514471 0.0229242 0)
(0.0544304 0.0198509 0)
(0.0572405 0.0167705 0)
(0.0599111 0.0137121 0)
(0.0624678 0.0107022 0)
(0.0649302 0.0077626 0)
(0.0673149 0.00491268 0)
(0.0696346 0.00217307 0)
(0.0718971 -0.000432467 0)
(0.0741042 -0.00287502 0)
(0.0762528 -0.0051166 0)
(0.0783413 -0.00710428 0)
(0.0803678 -0.00876036 0)
(0.00352892 0.0379984 0)
(0.00846351 0.0393476 0)
(0.0138907 0.0381967 0)
(0.0191361 0.0365972 0)
(0.024057 0.0347224 0)
(0.0285888 0.0326438 0)
(0.0327431 0.0303909 0)
(0.0365474 0.0279767 0)
(0.0400375 0.0254119 0)
(0.0432548 0.022713 0)
(0.0462425 0.0199046 0)
(0.0490411 0.0170183 0)
(0.0516847 0.0140904 0)
(0.0541986 0.0111583 0)
(0.0565997 0.0082551 0)
(0.0589012 0.00540544 0)
(0.0611183 0.0026299 0)
(0.0632673 -4.76973e-05 0)
(0.0653605 -0.00259889 0)
(0.0674054 -0.00498978 0)
(0.0694045 -0.00717855 0)
(0.0713617 -0.00911065 0)
(0.0732792 -0.0107114 0)
(0.00304234 0.0330014 0)
(0.00721826 0.0340196 0)
(0.0118555 0.0331095 0)
(0.0163833 0.0318117 0)
(0.0206677 0.0302673 0)
(0.0246455 0.028527 0)
(0.0283203 0.0266015 0)
(0.0317104 0.0244893 0)
(0.0348434 0.0221926 0)
(0.0377527 0.0197241 0)
(0.0404741 0.0171085 0)
(0.0430412 0.0143817 0)
(0.045481 0.0115873 0)
(0.0478104 0.00877156 0)
(0.0500335 0.00597534 0)
(0.0521521 0.00322144 0)
(0.0541795 0.000524916 0)
(0.0561359 -0.00209015 0)
(0.0580391 -0.0045914 0)
(0.0599013 -0.00694037 0)
(0.0617299 -0.00909161 0)
(0.0635332 -0.0109891 0)
(0.065317 -0.0125609 0)
(0.00253963 0.0287941 0)
(0.0059739 0.0295445 0)
(0.00982875 0.0288042 0)
(0.0136263 0.0277275 0)
(0.0172463 0.0264348 0)
(0.0206303 0.0249587 0)
(0.0237769 0.0232924 0)