/*--------------------------------*- C++ -*----------------------------------*\
| =========                 |                                                 |
| \\      /  F ield         | OpenFOAM: The Open Source CFD Toolbox           |
|  \\    /   O peration     | Version:  2.3.0                                 |
|   \\  /    A nd           | Web:      www.OpenFOAM.org                      |
|    \\/     M anipulation  |                                                 |
\*---------------------------------------------------------------------------*/
FoamFile
{
    version     2.0;
    format      ascii;
    class       volScalarField;
    location    "2.2";
    object      alpha.water;
}
// * * * * * * * * * * * * * * * * * * * * * * * * * * * * * * * * * * * * * //

dimensions      [0 0 0 0 0 0 0];

internalField   nonuniform List<scalar> 
2268
(
0.999564
0.999922
0.97161
0.97501
0.959535
0.971314
1
1
1
1
1
1
1
0.999941
0.99238
0.98738
0.995144
0.999614
0.999617
0.999617
0.999781
0.999797
0.999797
0.98175
0.936537
0.933016
0.944075
0.956276
0.974546
1
1
1
1
1
1
1
0.999903
0.992574
0.987372
0.990638
0.99961
0.9992
0.998735
0.999161
0.999797
0.999797
0.973164
0.932568
0.926517
0.881069
0.940729
0.963156
1
1
1
0.999992
0.999968
0.999961
0.999986
0.999999
0.997867
0.987374
0.991726
0.999554
0.99963
0.999284
0.998696
0.999797
0.999797
0.981931
0.981117
0.968829
0.87728
0.87559
0.895085
1
1
1
0.999972
0.999877
0.999889
0.999979
0.999999
0.99995
0.997623
0.998897
0.99964
0.999761
0.999734
0.998032
0.999797
0.999797
0.983867
0.984267
0.984385
0.915026
0.853029
0.909753
1
1
1
0.999999
0.999874
0.999999
0.999999
0.999999
0.999999
0.999999
0.999998
0.999996
0.999996
0.997411
0.992581
0.999755
0.9998
0.972574
0.984272
0.987138
0.990095
0.853029
0.965514
1
0.999986
0.993617
0.981796
0.997574
0.999996
0.999999
0.999999
0.999999
0.999998
0.999998
0.999919
0.982755
0.974926
0.99253
0.983565
0.996283
0.893028
0.982611
0.984977
0.99148
0.955569
0.998951
0.999879
0.999957
0.924109
0.910741
0.984777
0.999976
0.999998
0.999999
0.999968
0.999997
0.999998
0.980217
0.972047
0.972142
0.99243
0.958882
0.982869
0.834436
0.924753
0.983063
0.999178
0.999673
0.999825
0.999824
0.979225
0.838734
0.856585
0.985092
0.999666
0.999314
0.998579
0.998551
0.999883
0.999998
0.976837
0.972107
0.977376
0.950713
0.95242
0.982861
0.992147
0.975938
0.931515
0.931515
0.937011
0.997762
0.99911
0.99911
0.99911
0.999108
0.979146
0.88525
0.880409
0.888401
0.902041
0.90204
0.901473
0.90024
0.898973
0.979506
0.93191
0.931515
0.932875
0.989882
0.99911
0.99911
0.99911
0.999108
0.999107
0.998868
0.938385
0.880417
0.880328
0.88046
0.880326
0.880326
0.880345
0.944384
0.951093
0.932099
0.931747
0.95997
0.991279
0.999097
0.99911
0.999104
0.998796
0.999097
0.998586
0.996316
0.916357
0.880327
0.880327
0.880325
0.880336
0.880387
0.975569
0.970087
0.932219
0.977043
0.986277
0.985274
0.997478
0.999097
0.999006
0.994586
0.97551
0.96902
0.983198
0.98281
0.938419
0.942831
0.936725
0.880374
0.880663
0.97465
0.993733
0.983392
0.994463
0.994793
0.99573
0.998542
0.997773
0.99066
0.992214
0.934706
0.934696
0.934687
0.94522
0.975384
0.975652
0.978687
0.955187
0.906801
0.972788
0.993865
0.99379
0.993894
0.991283
0.997991
0.998544
0.992728
0.98721
0.992023
0.974119
0.934687
0.934687
0.934687
0.934802
0.939206
0.982053
0.982051
0.982051
0.982048
0.993881
0.980814
0.988154
0.99807
0.998267
0.998335
0.991728
0.987142
0.991352
0.995815
0.970161
0.935336
0.934802
0.935573
0.956372
0.982013
0.982053
0.982048
0.982041
0.993881
0.961558
0.95956
0.902257
0.99808
0.998267
0.995987
0.991647
0.996889
0.996587
0.996103
0.994854
0.99293
0.987368
0.98311
0.981812
0.98189
0.981718
0.966136
0.830171
0.897222
0.970147
0.981451
0.977825
0.978372
0.943822
0.813283
0.824979
0.929068
0.984203
0.979242
0.941708
0.985637
0.999957
0.999958
0.999959
0.99901
0.994708
0.951042
0.929279
0.966687
0.980758
0.834275
0.785406
0.740799
0.693404
0.683167
0.766087
0.818276
0.67231
0.559983
0.602041
0.746945
0.827209
0.897489
0.970941
0.99992
0.999957
0.999959
0.999957
0.999932
0.999637
0.978324
0.979548
0.980189
0.377256
0.046391
0.0180925
0.0360793
0.0389972
0.051676
0.0701982
0.0720103
0.0479156
0.0508151
0.0880973
0.122487
0.238757
0.531893
0.88861
0.999911
0.999957
0.99993
0.917047
0.761588
0.739965
0.936851
0.979732
0.110934
0.00204627
0.000929462
0.000929477
0.00090283
0.000937281
0.00122694
0.000377909
0.000762695
0.000969235
0.000548104
0.000363786
0.000512819
0.00182583
0.329331
0.694514
0.787332
0.516769
0.202801
0.062783
0.0322846
0.270723
0.828295
0.000204804
0.000522359
0.00170062
0.00170062
0.00161064
0.00122981
0.000187151
0.000126856
0.000571813
0.000967562
0.000674824
0.000258729
0.000380095
0.00089333
0.00092666
0.00216718
0.0714595
0.0211405
0.00269781
0.00137414
0.00139379
0.0013732
0.0133296
0.000162363
0.000434315
0.00166233
0.00161064
0.00155278
0.00102935
7.69478e-05
1.75007e-05
2.402e-05
4.02167e-05
2.63554e-05
5.941e-05
0.00118142
0.00293527
0.00358327
0.00378886
0.000863112
0.00108786
0.000944667
0.000913014
0.00123148
0.00145439
0.001417
0.000144095
0.000210782
0.00030116
0.000237408
8.40721e-05
3.82646e-05
1.516e-05
1.24304e-05
1.28522e-05
1.34108e-05
1.51976e-05
3.47609e-05
0.000565734
0.00104021
0.00138536
0.000729759
0.000653382
0.000688467
0.000744077
0.000817645
0.00143802
0.00215326
0.00200703
6.01054e-05
3.91318e-05
2.32572e-05
1.23494e-05
1.26892e-05
1.2294e-05
1.24035e-05
1.24075e-05
1.24282e-05
1.22141e-05
1.59936e-05
3.96625e-05
6.76705e-05
0.00016339
0.00143434
0.000646606
0.000625259
0.00062986
0.000713905
0.000836547
0.00104091
0.00121173
0.00268843
1.19255e-05
1.75039e-05
1.32294e-05
1.25731e-05
1.23142e-05
1.24016e-05
1.23966e-05
1.24266e-05
1.23895e-05
1.78255e-05
0.00023704
0.000446798
8.95694e-05
0.000276142
0.00181565
0.00181561
0.000619545
0.00062032
0.00192807
0.00417219
0.00170947
0.00122208
0.00278641
1.60391e-05
1.22831e-05
1.18222e-05
1.19015e-05
1.24091e-05
1.257e-05
2.14101e-05
1.24985e-05
1.25354e-05
3.17155e-05
0.000637301
0.000638139
0.000101087
0.000119897
0.000977841
0.0018157
0.000618307
0.000618449
0.00331199
0.00453523
0.00268164
0.00123361
0.00279466
1.38957e-05
1.29746e-05
1.2051e-05
1.22969e-05
1.24352e-05
2.79207e-05
2.79573e-05
1.4371e-05
1.27747e-05
7.15938e-05
0.000638139
0.000638139
0.000252352
0.00050343
0.000417489
0.00103853
0.000618471
0.000618255
0.00124364
0.00453523
0.00207896
0.00126677
0.00279028
1.32762e-05
1.23744e-05
1.21633e-05
1.23454e-05
2.08895e-05
2.77489e-05
2.71697e-05
1.29674e-05
1.29085e-05
0.000269724
0.000628764
0.000594781
0.000741445
0.00107174
0.000413742
0.00214826
0.00299228
0.000618112
0.000654683
0.00267045
0.00537704
0.00322599
0.0026333
1.29348e-05
1.22199e-05
1.23587e-05
1.24576e-05
1.24782e-05
2.02355e-05
1.29512e-05
1.28337e-05
1.27424e-05
0.000487435
0.000616808
0.000469101
0.000466773
0.000992456
0.00170019
0.00273503
0.00493949
0.000687381
0.000699153
0.00387199
0.00541521
0.0032242
0.000273264
8.69032e-05
1.23159e-05
1.11862e-05
1.19356e-05
1.24807e-05
1.24512e-05
1.26852e-05
1.28126e-05
1.27918e-05
0.00059462
0.000608196
0.00048787
0.000465264
0.000508655
0.00203788
0.0023828
0.00494731
0.00494785
0.00393704
0.00553276
0.00545878
0.000753828
2.7294e-05
0.000134879
0.000116745
1.99347e-05
1.07294e-05
1.19727e-05
1.26797e-05
1.27882e-05
1.22674e-05
8.52646e-05
0.000579918
0.000598975
0.000415777
0.00046768
0.00126009
0.00203089
0.00162133
0.00338235
0.0055488
0.00559524
0.00555619
0.00507345
2.90751e-05
2.47015e-05
5.27299e-05
0.000119126
0.0001074
5.46043e-05
1.19512e-05
1.28805e-05
1.28504e-05
1.28483e-05
1.39725e-05
0.000290868
0.000264897
0.00035701
0.00154713
0.0017327
0.00170408
0.000978066
0.000450358
0.00305798
0.00559754
0.00559524
0.00318839
2.85958e-05
2.7544e-05
4.21127e-05
4.64618e-05
0.000138729
9.65986e-05
7.27568e-05
1.87991e-05
1.36381e-05
1.31558e-05
2.07795e-05
2.46061e-05
6.4308e-05
0.00167228
0.00179985
0.00176597
0.000390693
5.97713e-05
1.29973e-05
0.00147242
0.00559524
0.00559775
0.00278685
2.88391e-05
2.86188e-05
4.18649e-05
9.6537e-05
0.000276391
0.000366357
0.000177967
1.71375e-05
1.48488e-05
1.39529e-05
1.49154e-05
1.55784e-05
0.00161818
0.00182697
0.00182401
0.000154693
4.38715e-07
1.27936e-06
4.4814e-06
0.000395277
0.003546
0.00553872
0.00295838
3.75258e-05
3.26127e-05
4.18188e-05
0.000502436
0.000527136
0.000507985
8.38434e-05
1.67513e-05
1.56399e-05
1.49119e-05
0.000877115
0.00212362
0.00208125
0.00120803
1.68177e-07
2.39498e-07
2.61786e-07
1.98956e-07
3.46339e-06
4.73061e-05
0.000144579
0.00341963
0.00167278
0.000222053
3.44109e-05
4.18165e-05
0.000198823
0.000374645
6.9868e-05
2.58738e-05
2.13254e-05
0.00105824
0.0019087
0.00247027
0.00221716
0.000151647
1.68177e-07
1.65536e-07
2.95382e-07
2.46738e-07
7.06529e-08
7.02916e-07
3.3033e-07
1.13792e-06
5.5393e-05
4.68278e-05
0.000168355
9.09482e-05
4.18164e-05
0.000102095
0.00010598
7.77028e-05
0.000326405
0.00189583
0.00207924
0.00177752
0.000104511
1.0026e-06
9.07192e-07
1.65703e-07
1.65384e-07
1.5137e-07
1.28817e-07
3.38007e-08
4.34816e-08
2.02285e-08
6.83977e-08
1.04336e-06
8.2588e-07
5.01016e-06
1.06758e-05
4.18164e-05
5.45303e-05
5.89623e-05
0.000548139
0.00205412
0.00205412
0.000707325
5.58469e-05
5.58469e-05
0.000145719
0.000176015
2.87724e-05
7.92519e-09
7.87571e-09
7.75699e-09
2.242e-08
4.33598e-08
6.47101e-09
5.24026e-09
2.79126e-09
1.59379e-08
1.45332e-08
4.02598e-09
0.000807711
0.000188928
9.54772e-05
0.000846192
0.00204995
0.000920708
7.96873e-05
6.92921e-05
0.000278878
0.000279384
0.000279384
0.000138933
7.86578e-09
7.75743e-09
7.36599e-09
7.20751e-09
7.04037e-09
5.85463e-09
4.39062e-09
3.54772e-09
2.6272e-09
2.48131e-09
2.72598e-09
0.00313336
0.000806911
0.000115031
0.000527369
0.00187342
9.19654e-05
9.41979e-05
0.000242336
0.00027705
0.000274653
5.31778e-05
8.5877e-07
2.09767e-07
9.95982e-09
7.71788e-09
6.74914e-09
5.91361e-09
5.17343e-09
4.28765e-09
3.48973e-09
2.80722e-09
2.30449e-09
2.07918e-09
0.00313336
0.000495528
0.00013149
0.00106876
0.00116933
9.00586e-05
0.000117143
0.00023461
0.000158817
1.04611e-05
1.04611e-05
1.49577e-05
1.78245e-05
1.3351e-06
1.2025e-07
6.3465e-07
4.1395e-07
7.36468e-08
6.41646e-09
3.86064e-09
3.14482e-09
2.65187e-09
6.19804e-09
0.00313254
0.00122871
0.000261014
0.00115268
0.000794237
9.034e-05
9.53963e-05
0.000228662
4.57413e-05
7.05067e-06
3.07374e-05
8.02414e-05
8.13492e-05
5.4097e-05
2.4084e-05
1.03229e-05
8.38829e-07
8.0979e-08
3.97678e-07
2.01528e-06
1.82683e-06
5.8928e-07
4.2524e-08
0.00297629
0.00295504
0.000719087
0.00115154
0.000620987
9.02337e-05
0.000111997
0.000216473
2.90221e-05
2.81448e-06
6.96811e-05
8.13492e-05
8.13492e-05
8.13492e-05
8.04135e-05
1.56792e-05
2.5294e-07
1.66958e-07
3.44596e-07
1.38661e-05
1.61927e-05
5.0714e-06
4.57137e-08
0.00204233
0.00285119
0.000795549
0.00115177
0.000324893
0.000109057
0.000226472
0.000208524
1.52023e-05
1.42646e-06
1.19691e-05
6.13001e-05
8.13492e-05
8.1027e-05
2.51381e-05
6.57902e-06
3.49331e-07
2.5294e-07
7.24265e-07
1.57238e-05
1.61927e-05
1.27644e-05
5.8302e-07
0.00256981
0.00126283
0.000707106
0.000580147
3.78395e-05
7.17918e-05
0.000226497
0.000226472
2.76761e-05
1.4165e-06
1.42378e-06
1.41567e-06
8.10209e-05
2.97545e-05
2.49605e-06
1.55776e-06
1.20218e-06
4.39483e-07
5.23039e-07
8.38855e-06
1.61927e-05
1.33634e-05
7.6064e-07
0.00322626
0.000642932
0.00112238
0.000689523
1.4188e-05
2.62211e-05
0.000226552
0.000226092
5.05234e-05
1.42654e-06
1.37635e-06
1.43033e-06
7.63414e-05
5.59913e-06
3.07636e-06
1.00276e-05
1.22224e-05
2.7417e-06
5.31219e-07
5.6519e-06
1.59452e-05
1.18192e-05
3.78388e-07
0.00322626
0.000629319
0.00112003
0.00111793
1.23275e-05
8.04774e-06
9.45313e-05
8.11342e-05
2.88596e-05
1.3881e-06
1.33908e-06
1.47606e-06
1.57257e-05
7.44092e-06
3.47873e-06
1.47855e-05
1.47796e-05
4.35741e-06
6.1327e-07
7.51596e-06
1.56765e-05
8.40564e-06
2.75299e-08
0.00321928
0.000633115
0.000656726
0.00110834
3.93581e-05
5.93562e-06
2.66161e-06
1.74737e-06
1.96939e-06
1.21027e-06
1.31613e-06
1.74373e-05
3.95089e-06
3.52266e-06
3.91609e-06
1.47712e-05
1.48307e-05
2.23989e-06
1.70103e-06
1.65729e-05
1.53876e-05
1.18568e-06
8.52622e-12
0.00321619
0.00113683
0.000694395
0.000950982
0.000167995
2.69548e-06
1.52458e-06
1.26557e-06
1.20619e-06
1.19633e-06
1.21025e-06
3.37562e-05
2.38509e-05
2.89837e-06
3.9511e-06
1.47252e-05
1.47849e-05
4.85873e-06
1.09944e-05
1.6574e-05
9.73351e-06
8.4047e-12
8.35995e-12
0.00269591
0.00293432
0.00151692
0.000144532
6.04233e-05
1.53424e-06
1.26545e-06
1.20533e-06
1.19702e-06
1.19817e-06
9.30699e-06
3.51392e-05
3.09783e-05
2.46441e-06
2.88563e-06
1.4745e-05
1.47169e-05
1.47326e-05
1.46925e-05
1.29457e-05
7.60104e-12
8.31938e-12
1.48729e-11
0.000340868
0.00293432
0.00293432
0.000233803
5.08092e-06
3.51996e-06
0.000115658
0.000115413
2.49529e-05
1.19823e-06
2.93933e-05
3.49758e-05
8.42615e-06
1.28937e-06
3.71949e-07
9.69643e-06
1.47158e-05
1.18038e-05
3.51227e-06
7.43117e-12
7.43117e-12
1.01302e-11
1.51405e-11
8.34762e-05
0.00115732
0.00286819
0.00177412
1.80046e-05
0.000678313
0.00270568
0.00175953
5.99857e-05
3.2297e-06
4.71615e-05
2.90374e-05
3.02218e-07
6.28503e-07
1.68236e-10
1.12834e-10
5.30766e-06
1.33529e-11
1.3302e-11
1.33091e-11
7.64073e-12
1.04379e-11
1.27972e-11
6.14286e-05
1.00505e-06
0.000934452
0.00228823
0.00230372
0.00271981
0.00272459
0.00257196
0.000260645
2.11133e-05
4.61495e-05
6.37882e-06
7.30791e-09
1.68174e-10
5.45228e-11
7.98774e-11
2.33034e-11
2.3303e-11
6.21105e-11
7.55245e-11
6.72806e-12
8.65727e-12
8.81575e-12
9.12454e-08
1.09304e-07
1.0228e-06
0.00197566
0.0027143
0.00272459
0.00272476
0.00214189
0.00017643
7.8437e-05
2.57592e-05
3.58779e-08
1.23064e-09
5.07286e-11
2.59599e-11
7.37513e-10
9.66388e-10
2.55251e-11
1.29672e-10
1.53313e-10
4.62094e-12
5.54779e-12
4.30433e-12
8.63125e-08
2.42529e-07
3.78287e-07
0.000125527
0.00271171
0.00272474
0.00272459
0.000790649
0.000108484
7.66287e-05
1.34557e-05
1.19448e-08
2.57356e-10
1.32676e-11
9.25609e-12
1.85401e-09
4.84091e-09
4.14695e-12
1.15181e-10
1.51938e-10
2.55613e-12
2.72944e-12
1.64467e-12
7.69147e-08
3.47919e-06
2.71483e-06
3.37202e-06
0.000946504
0.00254074
0.00102488
6.64594e-05
8.66318e-05
4.20499e-05
7.8303e-08
5.16549e-10
-3.58816e-12
1.77608e-12
1.7456e-12
1.71356e-09
5.68116e-09
2.91918e-12
2.24582e-11
6.94328e-11
1.1157e-12
8.24573e-13
2.82664e-13
2.1583e-07
1.41759e-05
3.33375e-06
3.3056e-06
6.22782e-06
0.00025904
1.45009e-05
3.84127e-05
3.95884e-05
4.70325e-06
-6.86217e-11
-1.0992e-11
1.0946e-12
1.28774e-12
5.41739e-13
2.52859e-10
4.17972e-09
1.68375e-14
5.16637e-13
6.14616e-13
3.629e-13
9.66471e-14
2.48732e-14
5.05338e-07
1.419e-05
4.86551e-06
4.83675e-06
5.34608e-06
1.13196e-05
7.34437e-06
4.48738e-06
1.40882e-12
-3.16322e-13
-4.09591e-14
-4.0041e-15
-2.03812e-16
-5.39692e-18
5.26269e-14
3.83346e-14
5.62313e-11
8.94039e-15
2.00843e-13
2.49876e-13
2.90299e-14
2.58263e-15
1.47859e-15
0.961701
0.961701
0.961764
0.968324
0.975498
0.971407
0.986466
0.989933
0.97876
0.977511
0.962157
0.917524
0.977511
0.974907
0.928128
0.692473
0.422895
0.60847
0.459546
0.118721
0.00138941
0.001432
0.00168321
0.00127457
0.00134697
0.00137022
0.00210827
0.00128213
0.0013343
0.00132932
0.00130994
0.00125994
0.00134264
0.00135037
0.00132672
0.00131417
0.00216265
0.00144329
0.00154193
0.00249553
0.00279466
0.00276541
0.00269826
0.00195988
0.00252269
0.00134383
0.000680507
0.000174796
0.000217184
3.99266e-05
2.42219e-05
2.12303e-05
2.36951e-05
2.14801e-05
2.04086e-05
1.96281e-05
2.19785e-05
2.04979e-05
1.96885e-05
1.93261e-05
2.49497e-05
2.18539e-05
0.000112076
0.000266092
3.43869e-05
4.15896e-05
9.74969e-05
9.24142e-05
3.02684e-05
1.97456e-05
1.08193e-05
8.6166e-06
1.39045e-05
1.07201e-05
7.66956e-06
5.66175e-06
9.82894e-06
7.55354e-06
4.70435e-06
3.06288e-06
1.06548e-05
9.59702e-06
4.5706e-06
5.31606e-07
2.46906e-09
2.06623e-06
5.73833e-06
2.60698e-06
2.05428e-09
1.97609e-09
2.02004e-09
1.98625e-09
1.99404e-09
1.98206e-09
1.98295e-09
4.32007e-09
2.48286e-09
1.9934e-09
2.11064e-09
7.29951e-08
3.7068e-09
2.37283e-09
7.38996e-08
8.96841e-08
7.62787e-09
2.26122e-09
1.18828e-09
6.01074e-08
1.00867e-08
1.18742e-09
1.55502e-10
5.98473e-11
7.26637e-09
6.22971e-10
1.0238e-10
5.90477e-11
2.19771e-09
1.72282e-10
4.5509e-11
5.96669e-11
7.49021e-11
2.63326e-11
3.14596e-11
6.48337e-11
1.2989e-11
2.16252e-11
3.01439e-11
6.3611e-11
1.28339e-11
1.27927e-11
1.78807e-11
3.74295e-11
1.18804e-11
9.16271e-12
1.04925e-11
2.00356e-11
9.59686e-12
6.41482e-12
5.67033e-12
9.71522e-12
7.10635e-12
3.95184e-12
2.60237e-12
4.50269e-12
4.47901e-12
2.1201e-12
9.46324e-13
7.9284e-13
2.12748e-12
8.97711e-13
3.28512e-13
1.86137e-13
6.33935e-13
2.42e-13
8.33604e-14
5.01961e-14
9.31836e-14
3.33197e-14
1.11378e-14
7.234e-15
8.85996e-15
3.46168e-15
1.07977e-15
5.11413e-16
7.89434e-16
3.05019e-16
6.54512e-17
9.16142e-18
0.993881
0.972105
0.872972
0.784103
0.838882
0.902206
0.997438
0.997438
0.997431
0.973943
0.929648
0.896693
0.881334
0.870487
0.839041
0.779417
0.736887
0.75518
0.864204
0.993218
0.931675
0.784376
0.784753
0.788662
0.983715
0.997333
0.997438
0.91068
0.456639
0.24165
0.193693
0.176374
0.150653
0.100191
0.0473524
0.0255746
0.0628021
0.154177
0.915482
0.935389
0.961118
0.961608
0.976903
0.992788
0.993575
0.590766
0.149547
0.0214741
0.000651977
0.000651977
0.000598406
0.000522137
0.000490825
0.000488962
0.000489893
0.000490668
0.000490877
0.476396
0.376136
0.511081
0.670583
0.691954
0.433949
0.169022
0.0367751
0.000895112
0.000862868
0.000794693
0.000753062
0.00212825
0.00246301
0.00229318
0.000501015
0.000490511
0.000490878
0.000492375
0.0152194
0.000954757
0.000921761
0.00082707
0.000654244
0.00161745
0.000940042
0.000931894
0.00189597
0.00303412
0.00304043
0.00129058
0.00332591
0.00378202
0.00377062
0.00227063
0.000496288
0.000492492
0.000543354
0.00104413
0.001016
0.00112666
0.00092382
0.000607825
0.000500562
0.00103981
0.00241543
0.00245783
0.00250079
0.00191792
0.00119945
0.000800431
0.000966554
0.00334886
0.00368417
0.00261221
0.000518425
0.000470189
0.00115791
0.00132232
0.00246852
0.00246574
0.00122023
0.000425151
0.000356337
0.00033969
0.000341356
7.3033e-05
0.000512196
0.00104818
0.000851365
0.000494626
0.000453527
0.00249977
0.00332497
0.0024894
0.000397801
0.0012303
0.00175632
0.0024664
0.00246954
0.0021309
5.70803e-05
5.72231e-05
6.20807e-05
6.42789e-05
6.48304e-05
7.85688e-05
0.000401491
0.000717361
0.00078628
0.000399477
0.000389682
0.00174274
0.00184909
0.000384753
0.00141897
0.00245291
0.00246797
0.00198839
8.25875e-05
5.64165e-05
5.67403e-05
5.72668e-05
6.10425e-05
6.57066e-05
6.67791e-05
6.79408e-05
0.000388132
0.00115224
0.00119175
0.000380222
0.000379265
0.000398208
0.00036118
0.00249553
0.00243648
0.00166393
3.02483e-05
4.39572e-05
5.48712e-05
9.23973e-05
0.000173013
0.00012708
7.95631e-05
7.86531e-05
8.12004e-05
9.6656e-05
0.000658185
0.001312
0.000418012
0.000363032
0.00036118
0.00036118
0.00208762
0.00133045
2.19938e-05
2.28846e-05
3.45109e-05
0.000166449
0.000212588
0.000212622
0.000212588
0.000212577
0.000211532
0.000199703
0.000113488
0.000135594
0.001312
0.00107782
0.00036295
0.000362099
0.000415375
0.000155373
7.67981e-05
1.8674e-05
1.87737e-05
4.21209e-05
0.000209517
0.000212648
0.000212588
0.000212176
0.000210665
0.000198564
0.000191608
0.000166298
0.00012207
0.0012078
0.00133591
0.000399702
0.000363018
0.000813443
1.99975e-05
1.85504e-05
1.81819e-05
1.82007e-05
1.88382e-05
3.04634e-05
0.000116071
0.000188965
0.000209653
0.000150046
3.80345e-05
9.4661e-05
0.000180428
0.00011498
0.000102696
0.00133785
0.00133551
0.000631558
0.00133618
1.89115e-05
1.81999e-05
1.82021e-05
1.82124e-05
1.82079e-05
1.84422e-05
1.92647e-05
1.70696e-05
5.99355e-05
6.48367e-06
6.02341e-06
5.882e-06
0.000155751
2.59169e-05
8.2806e-05
0.00114151
0.00132145
0.00133618
0.00133618
1.93335e-05
1.89114e-05
1.91546e-05
1.91534e-05
1.82737e-05
1.92379e-05
1.70692e-05
1.3583e-05
1.19881e-05
1.21556e-05
5.98267e-06
5.39625e-06
2.79778e-06
8.54135e-06
0.000831882
0.00145712
0.000694401
0.000985272
0.00133618
0.000359692
0.000473838
0.000548372
0.000512056
0.000444871
0.000400393
0.00023676
5.24725e-05
9.52742e-06
7.8369e-06
8.96013e-06
5.00119e-06
2.51667e-06
2.79996e-06
0.00145305
0.00146894
0.000700857
0.000241633
0.000650945
0.000546276
0.00079145
0.000792438
0.000791543
0.00079145
0.000789737
0.000786457
0.000144538
7.93622e-06
3.75077e-06
2.80834e-06
1.71466e-06
2.18392e-06
2.51691e-06
0.00125228
0.00148432
0.00141317
0.000209483
0.000155769
0.000383726
0.000784032
0.00079145
0.00079145
0.000788808
0.000788152
0.000646375
0.000148078
4.83088e-06
1.88544e-06
1.31709e-06
1.31316e-06
1.62297e-06
2.22087e-06
0.000409616
0.00149917
0.00149712
0.000305464
0.000143303
0.000104871
0.000613539
0.000732613
0.000346987
1.33191e-05
6.16243e-06
4.34785e-07
1.06046e-05
3.96455e-06
9.75797e-07
1.03719e-06
1.24384e-06
2.24287e-06
2.79574e-06
7.72683e-05
0.00144795
0.00149959
0.000496072
0.000133434
3.45501e-05
3.02528e-07
3.60984e-07
3.85714e-07
4.03275e-07
4.18982e-07
4.34791e-07
4.34945e-07
8.22924e-07
7.85219e-07
9.37204e-07
1.03576e-06
4.41522e-05
3.1787e-05
4.32592e-05
0.00130539
0.00149712
0.000792156
0.000125429
1.72327e-07
2.47195e-07
3.03402e-07
3.62085e-07
3.85987e-07
4.05406e-07
4.20007e-07
4.43347e-07
4.7358e-07
6.46541e-07
7.62095e-07
9.2939e-07
5.68673e-05
0.00042577
0.000437719
0.00133528
0.00149311
0.000760452
0.000122764
7.75031e-10
1.24925e-07
2.31938e-07
3.14978e-07
4.00787e-07
1.22321e-06
9.95731e-07
9.87673e-07
1.51196e-06
2.72836e-06
9.30018e-07
1.07286e-06
4.76076e-05
0.000413368
0.0012831
0.00149158
0.0014877
0.000437156
0.000122764
2.20674e-09
-3.42332e-09
3.11151e-07
7.63601e-07
9.68439e-07
1.5511e-06
1.05878e-06
1.10677e-06
4.31212e-05
4.17049e-05
3.56269e-06
1.9364e-06
0.000242325
0.0004511
0.000598595
0.0014877
0.00149094
0.000149046
0.000122764
2.24877e-09
-1.79107e-08
4.75547e-05
3.47236e-05
5.28867e-06
1.93318e-06
1.45227e-06
9.55556e-05
0.000112252
0.000106552
3.4168e-05
9.27445e-05
0.000343084
0.000242627
0.000100937
0.00123484
0.00148885
0.000447176
0.000487911
3.30947e-09
3.9477e-05
0.000293505
0.000272267
0.000133755
6.03487e-05
0.000168773
0.000180507
6.65657e-05
0.000222504
0.000252835
0.000214126
0.000325351
5.70165e-05
5.82561e-05
0.000230225
0.00124048
0.00116653
0.000738361
1.407e-09
0.000145944
0.000297233
0.000297233
0.000297233
0.000294672
0.00024917
6.55753e-05
1.38012e-07
0.000270556
0.000267459
0.00010196
0.000121868
5.70054e-05
5.70054e-05
5.87409e-05
0.00026563
0.000991431
0.000173439
5.96896e-11
5.3414e-05
0.000258403
0.000293047
0.000191114
5.91205e-05
5.42945e-09
5.84034e-09
7.17425e-08
0.000276823
0.000191391
9.76678e-05
9.73054e-05
0.000141733
0.000484412
8.06388e-05
5.29509e-05
0.000439652
9.73989e-05
5.75716e-11
5.9723e-11
5.07728e-08
1.16355e-06
6.78769e-09
5.42945e-09
5.08371e-09
7.70566e-09
1.48863e-07
0.000277868
0.000318119
9.73054e-05
0.000119067
0.000725827
0.000780829
0.000587228
4.58396e-05
5.15101e-05
8.37199e-05
5.71692e-11
3.73078e-08
4.95799e-08
1.6632e-07
9.25627e-07
2.94869e-08
3.83679e-09
3.25742e-09
2.50563e-07
9.29026e-05
0.00032244
9.98837e-05
0.000268163
0.000786561
0.000786256
0.000632026
4.46909e-05
4.58538e-05
0.000256741
5.71648e-11
5.44912e-07
2.10395e-06
1.56165e-06
8.63198e-08
8.84475e-08
2.68068e-09
1.0768e-09
5.40765e-09
2.58712e-05
0.000322265
0.000155887
0.000182865
0.000786561
0.000786651
0.000751964
4.47111e-05
4.47708e-05
0.000302157
9.28589e-11
9.12903e-11
8.08425e-10
7.82311e-10
7.90766e-08
9.91538e-08
1.62341e-09
9.24521e-11
9.55243e-11
1.69625e-06
0.000162396
0.000210248
0.000176162
0.000763413
0.000786256
0.000785083
4.53394e-05
4.58721e-05
0.000302869
1.35238e-10
9.12076e-11
1.4127e-10
4.58053e-08
1.31121e-07
7.08431e-08
9.00179e-11
9.03277e-11
9.10498e-11
9.45429e-11
1.5636e-10
0.000130468
0.0001811
0.000238107
0.000181673
0.00077024
0.000540627
5.47103e-05
0.0003029
6.40266e-11
9.04871e-11
3.14518e-09
8.3662e-08
1.21938e-07
9.38325e-11
9.38317e-11
1.02857e-10
9.52876e-11
1.18102e-10
6.35842e-10
3.24234e-07
4.08636e-05
2.02485e-06
1.13963e-05
0.000630304
0.000670333
7.12954e-05
0.00029912
3.40478e-11
6.2362e-11
7.10655e-09
3.82136e-08
7.85755e-09
1.04673e-10
1.08585e-10
1.1597e-10
1.20645e-10
1.3713e-10
6.73088e-10
2.9874e-08
6.07961e-08
1.04945e-06
0.000135632
0.000695198
0.000695198
7.52804e-06
3.53937e-05
1.66357e-11
3.41588e-10
4.28462e-09
2.76382e-11
3.8334e-10
9.26034e-10
2.04613e-10
1.24745e-10
1.30439e-10
2.18546e-10
1.73384e-09
1.76346e-08
1.86539e-07
1.56295e-05
0.000534314
0.000695198
0.000410278
4.78695e-07
8.01749e-08
1.43537e-11
8.92793e-11
1.75806e-10
2.38245e-11
7.89424e-10
1.50335e-09
3.00172e-10
1.08719e-10
1.12306e-10
3.09469e-10
4.12535e-09
5.839e-08
6.46298e-07
7.1822e-05
0.000328637
0.000366378
3.2945e-06
7.01982e-08
2.38934e-08
1.26581e-12
2.56527e-12
2.32168e-12
1.88693e-11
4.4331e-10
1.2405e-09
2.97643e-10
8.85269e-11
3.71737e-11
1.36186e-10
2.09939e-09
3.15025e-08
5.46661e-06
2.13798e-05
8.65583e-06
5.96475e-06
5.42859e-08
1.4031e-08
2.3728e-08
2.59388e-13
7.10302e-13
1.64087e-12
4.70088e-12
1.86512e-11
9.1795e-11
1.48464e-10
6.38866e-11
2.42043e-11
3.51142e-11
1.66545e-10
4.49775e-08
3.91322e-07
1.37143e-07
3.66942e-07
4.26093e-07
1.02878e-08
1.05596e-08
1.07514e-08
8.43353e-14
2.92361e-13
8.01945e-13
1.62489e-12
2.49127e-12
3.0906e-12
4.80058e-12
9.81912e-12
1.92559e-11
2.77261e-11
3.58721e-11
3.70185e-10
2.31039e-09
2.67974e-08
6.82029e-08
8.39358e-08
5.04999e-08
5.39872e-08
1.13102e-08
1.5586e-14
7.35209e-14
2.72587e-13
7.40342e-13
1.50849e-12
2.42291e-12
3.35502e-12
5.01706e-12
1.00138e-11
2.08848e-11
2.36678e-11
3.46644e-11
1.30246e-09
2.39268e-08
3.74005e-08
4.35506e-08
8.82403e-08
9.08778e-08
1.45902e-08
1.31102e-15
8.91132e-15
4.49088e-14
1.6051e-13
4.23305e-13
8.9141e-13
1.5304e-12
2.22559e-12
4.30525e-12
1.06422e-11
2.07083e-11
2.32845e-11
1.03542e-09
1.65394e-08
3.20915e-08
3.80778e-08
5.79076e-08
7.82997e-08
7.40537e-09
1.1318e-17
1.78985e-16
1.88332e-15
1.16741e-14
4.37463e-14
1.1839e-13
2.4804e-13
6.95391e-13
1.13964e-12
3.98062e-12
1.23867e-11
2.50151e-11
1.7096e-10
1.43345e-09
4.2949e-09
8.1213e-09
1.08184e-08
1.40898e-08
1.30296e-09
)
;

boundaryField
{
    leftWall
    {
        type            zeroGradient;
    }
    rightWall
    {
        type            zeroGradient;
    }
    lowerWall
    {
        type            zeroGradient;
    }
    atmosphere
    {
        type            inletOutlet;
        inletValue      uniform 0;
        value           nonuniform List<scalar> 
46
(
0
1.419e-05
4.86551e-06
4.83675e-06
5.34608e-06
1.13196e-05
7.34437e-06
4.48738e-06
0
0
0
0
0
0
0
0
0
0
0
0
0
0
0
0
0
0
0
0
0
0
0
0
0
0
0
1.13964e-12
3.98062e-12
1.23867e-11
2.50151e-11
1.7096e-10
1.43345e-09
4.2949e-09
8.1213e-09
1.08184e-08
1.40898e-08
1.30296e-09
)
;
    }
    defaultFaces
    {
        type            empty;
    }
}


// ************************************************************************* //
