/*--------------------------------*- C++ -*----------------------------------*\
| =========                 |                                                 |
| \\      /  F ield         | OpenFOAM: The Open Source CFD Toolbox           |
|  \\    /   O peration     | Version:  2.3.0                                 |
|   \\  /    A nd           | Web:      www.OpenFOAM.org                      |
|    \\/     M anipulation  |                                                 |
\*---------------------------------------------------------------------------*/
FoamFile
{
    version     2.0;
    format      ascii;
    class       volScalarField;
    location    "2.2";
    object      p;
}
// * * * * * * * * * * * * * * * * * * * * * * * * * * * * * * * * * * * * * //

dimensions      [1 -1 -2 0 0 0 0];

internalField   nonuniform List<scalar> 
2268
(
661.483
658.656
664.811
658.576
658.416
670.341
674.821
674.488
677.85
686.452
700.853
719.148
739.584
759.537
776.435
790.167
801.976
814.005
824.467
829.935
834.547
842.419
848.591
603.251
600.215
607.551
599.357
599.552
612.452
615.99
614.672
617.453
625.974
640.781
659.466
680.272
700.826
718.773
732.622
743.231
754.577
766.139
771.61
775.079
781.882
788.911
546.659
544.316
549.632
541.147
539.677
552.89
556.227
553.802
555.464
563.921
580.057
599.812
621.183
642.479
661.335
675.331
685.186
696.275
708.749
713.92
715.18
720.223
728.533
488.28
483.144
487.579
484.548
485.61
495.64
496.05
492.129
491.822
500.309
519.045
540.557
562.511
584.25
603.329
617.769
627.803
638.662
651.902
656.529
656.578
659.934
668.408
427.426
416.829
421.344
428.369
437.043
440.241
435.866
429.618
426.222
434.768
457.366
481.474
504.012
525.777
544.737
559.678
570.75
582.086
595.475
599.945
600.916
601.219
608.172
366.013
351.004
355.152
372.154
389.329
384.756
375.775
366.615
359.38
368.33
395.902
423.023
445.808
466.956
485.577
501.095
513.888
525.508
539.69
545.232
547.778
544.326
546.703
310.079
289.534
293.191
314.904
335.699
329.658
316.715
303.311
295.622
306.879
337.583
365.849
388.109
408.184
426.229
442.671
457.182
469.873
485.519
495.563
495.585
489.102
485.365
261.544
237.168
237.405
256.942
273.297
272.228
259.139
241.869
239.276
256.386
283.772
309.455
330.785
350.177
367.596
384.63
400.588
415.282
431.986
444.086
445.944
435.367
421.628
819.207
811.863
794.412
767.862
744.953
733.758
739.441
737.178
705.218
661.647
628.17
603.52
586.918
572.082
558.246
550.093
546.186
547.803
558.358
762.76
756.314
738.857
710.259
682.539
666.983
675.374
674.194
642.407
600.462
568.67
548.137
533.64
518.434
503.613
495.683
492.141
491.514
502.467
710.539
699.292
676.267
648.227
617.244
600.666
611.097
608.788
577.074
537.307
507.435
489.512
477.964
464.046
450.507
443.548
439.898
436.796
444.96
656.76
639.559
610.336
584.733
555.144
535.698
547.427
544.155
512.383
474.394
446.001
428.623
419.864
409.035
398.113
390.817
386.923
384.456
387.427
600.093
580.293
547.436
524.731
499.124
476.1
487.458
483.565
451.056
415.035
386.723
369.061
359.861
351.733
341.786
334.109
331.388
330.616
330.244
542.141
522.717
487.177
465.141
448.535
427.289
434.786
428.54
393.496
356.396
328.241
310.745
301.51
293.031
283.57
275.263
272.477
273.028
272.316
484.596
465.371
421.247
394.588
398.231
390.473
390.973
377.719
338.294
297.899
269.166
252.262
243.092
234.742
224.782
215.187
211.919
212.825
213.55
430.877
408.219
349.337
318.374
345.707
360.827
351.305
328.646
284.411
239.672
209.25
192.259
182.966
174.634
163.677
153.223
149.284
152.07
156.029
189.357
170.27
159.174
164.555
170.63
176.366
172.454
155.468
153.525
179.518
204.621
222.697
242.262
261.302
278.739
295.434
311.667
328.034
349.288
371.972
371.836
353.395
344.28
81.4406
53.5712
50.7
51.5308
51.0499
53.8541
54.4287
49.6162
46.2403
56.7541
70.3991
87.9438
113.342
137.991
157.44
172.198
189.571
211.963
237.57
259.013
259.108
239.851
237.514
20.212
5.07506
4.03728
3.66232
3.80385
3.70684
2.61019
2.07207
3.28557
5.69432
7.87303
10.5367
18.9203
35.267
52.2903
60.4507
76.0155
95.1226
101.172
85.2716
74.1632
100.156
125.013
6.47261
2.38046
2.35422
1.74422
1.27622
0.557
-0.246429
-0.73691
-0.174195
0.769704
1.24168
1.55849
1.8296
2.81694
19.4745
35.7119
39.3721
29.8591
15.3078
6.9875
5.99964
17.2299
34.3316
1.54003
1.67279
1.56263
0.960827
0.458072
-0.0935719
-0.391191
-0.408569
-0.207944
0.144144
0.502349
0.796478
1.06298
1.35826
0.927509
1.05016
3.01838
1.01816
0.747188
0.813224
0.892142
0.225461
1.05622
1.3706
1.00487
0.557425
0.0482641
-0.360312
-0.645748
-0.713613
-0.644592
-0.490459
-0.27661
-0.0238326
0.228797
0.464324
0.636968
0.739709
0.698071
0.333713
0.178444
0.142702
0.128939
0.0357578
-0.0606301
0.00606224
0.609431
0.18116
-0.299028
-0.675185
-0.925242
-1.03131
-1.00098
-0.900671
-0.757078
-0.587754
-0.39981
-0.225565
-0.0987687
0.0521622
0.277048
0.324009
0.29178
0.0923637
-0.0824441
-0.142163
-0.152554
-0.179242
-0.285795
-0.118194
-0.500433
-0.860079
-1.12982
-1.31168
-1.36796
-1.30337
-1.17871
-1.03042
-0.872362
-0.689494
-0.515406
-0.410178
-0.300874
-0.119407
0.150177
-0.00667579
-0.17246
-0.343318
-0.418411
-0.416648
-0.384559
-0.383831
-0.62829
-0.980507
-1.27231
-1.50674
-1.67305
-1.7086
-1.6201
-1.45788
-1.28977
-1.137
-0.952462
-0.742318
-0.610773
-0.50984
-0.311003
-0.0682015
-0.27537
-0.359106
-0.517322
-0.637029
-0.597346
-0.590056
-0.668058
-0.916857
-1.31661
-1.59148
-1.82204
-1.97968
-2.00114
-1.89372
-1.70987
-1.5207
-1.36381
-1.18457
-0.930042
-0.768742
-0.659428
-0.482169
-0.363592
-0.369505
-0.444124
-0.568937
-0.647452
-0.726302
-0.810678
-0.966915
-1.0217
-1.48146
-1.80315
-2.05725
-2.22993
-2.26636
-2.15906
-1.95013
-1.72727
-1.54632
-1.35937
-1.09395
-0.909306
-0.782462
-0.607954
-0.526884
-0.392152
-0.551238
-0.749587
-0.877935
-1.01365
-1.07316
-1.26509
-0.991819
-1.45615
-1.89328
-2.21581
-2.42559
-2.49426
-2.39383
-2.15272
-1.89445
-1.68215
-1.47829
-1.2424
-1.06436
-0.930671
-0.706655
-0.574383
-0.535648
-0.754394
-0.902344
-1.03368
-1.22923
-1.4342
-1.62997
-0.957847
-1.29745
-1.82997
-2.24947
-2.51089
-2.60184
-2.4994
-2.24513
-1.97455
-1.75571
-1.55637
-1.36724
-1.22979
-1.11993
-0.906744
-0.672648
-0.795722
-0.897263
-0.997251
-1.15628
-1.42884
-1.81459
-1.94715
-1.04902
-1.21532
-1.64033
-2.0651
-2.34909
-2.45032
-2.36356
-2.14475
-1.92733
-1.75405
-1.60545
-1.47789
-1.38558
-1.31406
-1.20394
-0.971542
-1.03567
-1.12904
-1.32018
-1.5121
-1.79423
-2.06969
-2.1346
-1.25082
-1.3074
-1.4875
-1.74013
-1.95465
-2.04972
-2.00746
-1.90524
-1.78912
-1.70531
-1.64432
-1.58517
-1.54169
-1.53337
-1.56208
-1.49299
-1.49942
-1.5607
-1.81406
-1.89813
-2.15754
-2.27663
-2.33455
-1.43871
-1.44391
-1.46459
-1.53912
-1.64292
-1.71425
-1.73086
-1.7161
-1.68901
-1.68224
-1.69317
-1.69079
-1.72913
-1.81119
-1.94175
-1.98766
-1.94004
-1.95828
-2.13541
-2.19093
-2.37483
-2.47549
-2.58991
-1.55518
-1.55058
-1.5209
-1.52919
-1.56913
-1.60165
-1.6217
-1.644
-1.66559
-1.69773
-1.74004
-1.82654
-1.96535
-2.12071
-2.23465
-2.24712
-2.16092
-2.19538
-2.23785
-2.32511
-2.47053
-2.60453
-2.7994
-1.68181
-1.66407
-1.62926
-1.64738
-1.6629
-1.64623
-1.63865
-1.66188
-1.70563
-1.7585
-1.86383
-2.03855
-2.19995
-2.33
-2.39953
-2.40566
-2.3219
-2.36209
-2.31735
-2.34107
-2.49207
-2.64545
-2.86325
-1.83772
-1.84154
-1.83563
-1.85713
-1.81348
-1.73861
-1.7169
-1.74025
-1.8037
-1.95197
-2.14122
-2.282
-2.36583
-2.42655
-2.49157
-2.48719
-2.44805
-2.49122
-2.48139
-2.42897
-2.53235
-2.64672
-2.80889
-1.96936
-2.00051
-2.04431
-2.04167
-1.94721
-1.84449
-1.89337
-1.98618
-2.12029
-2.2743
-2.37622
-2.43379
-2.48306
-2.52414
-2.55226
-2.54494
-2.54254
-2.57755
-2.57546
-2.58319
-2.62512
-2.67451
-2.77176
-2.08049
-2.11293
-2.15787
-2.16211
-2.09683
-2.09379
-2.23816
-2.35989
-2.41428
-2.48776
-2.54986
-2.5806
-2.60426
-2.62671
-2.6363
-2.62784
-2.63039
-2.65952
-2.67547
-2.68137
-2.70965
-2.74426
-2.80236
-2.17536
-2.21433
-2.2795
-2.34101
-2.34747
-2.48641
-2.56313
-2.6045
-2.60867
-2.64426
-2.68132
-2.7129
-2.73056
-2.73886
-2.74085
-2.73674
-2.73987
-2.7626
-2.78478
-2.80205
-2.82162
-2.84429
-2.87698
-2.32271
-2.39154
-2.47077
-2.59128
-2.63312
-2.75278
-2.7664
-2.77107
-2.79815
-2.83864
-2.86939
-2.87393
-2.86607
-2.85858
-2.85393
-2.85503
-2.86539
-2.88881
-2.91334
-2.93389
-2.95202
-2.97151
-2.99869
-2.62924
-2.71088
-2.72857
-2.79085
-2.86677
-2.91718
-2.93873
-2.97161
-3.01787
-3.05396
-3.06388
-3.04222
-3.00722
-2.98045
-2.96946
-2.97602
-2.99708
-3.02653
-3.05613
-3.08071
-3.10054
-3.11834
-3.13792
-3.02639
-3.04698
-2.97521
-2.96708
-3.04937
-3.08477
-3.13817
-3.19772
-3.25652
-3.28857
-3.27925
-3.23596
-3.17454
-3.12311
-3.10077
-3.10963
-3.13865
-3.17496
-3.20874
-3.23493
-3.25391
-3.26916
-3.28477
-3.31512
-3.28477
-3.18092
-3.17842
-3.24655
-3.29569
-3.37336
-3.44948
-3.52015
-3.55829
-3.54952
-3.49131
-3.3986
-3.31446
-3.27181
-3.27421
-3.30309
-3.34075
-3.3736
-3.3963
-3.41077
-3.42186
-3.4338
-3.44411
-3.42538
-3.38005
-3.40832
-3.47038
-3.54061
-3.641
-3.73177
-3.81688
-3.86895
-3.86496
-3.7957
-3.67409
-3.55547
-3.48803
-3.47526
-3.49761
-3.52957
-3.55406
-3.5668
-3.57213
-3.5764
-3.58448
-3.528
-3.5608
-3.58193
-3.631
-3.68949
-3.79277
-3.9222
-4.02175
-4.10826
-4.15769
-4.14789
-4.07602
-3.94504
-3.80867
-3.72746
-3.70407
-3.7187
-3.74073
-3.75056
-3.74712
-3.73848
-3.7335
-3.73694
-3.62839
-3.75624
-3.7611
-3.82045
-3.86798
-4.00562
-4.17072
-4.26972
-4.33778
-4.36752
-4.34274
-4.26977
-4.15292
-4.02747
-3.95328
-3.93591
-3.95017
-3.9629
-3.95524
-3.93207
-3.90666
-3.89175
-3.89003
-3.77457
-3.9374
-3.92841
-3.99163
-4.01718
-4.15183
-4.33815
-4.43427
-4.47929
-4.48736
-4.45092
-4.37869
-4.28686
-4.19147
-4.14298
-4.14421
-4.16598
-4.17335
-4.15114
-4.10983
-4.0706
-4.04769
-4.04176
-3.97502
-4.09309
-4.10052
-4.15603
-4.14253
-4.23562
-4.38795
-4.4817
-4.51897
-4.51742
-4.48116
-4.42297
-4.35983
-4.304
-4.28667
-4.30904
-4.34097
-4.34696
-4.31797
-4.26756
-4.22345
-4.19782
-4.19034
-4.20591
-4.17818
-4.22971
-4.28002
-4.23575
-4.28678
-4.37511
-4.45414
-4.49838
-4.50504
-4.48186
-4.44464
-4.40863
-4.38589
-4.39133
-4.42776
-4.46535
-4.47275
-4.44605
-4.40175
-4.36279
-4.34019
-4.33443
-4.42013
-4.22864
-4.33367
-4.38036
-4.32972
-4.35141
-4.39227
-4.4539
-4.5047
-4.51992
-4.50655
-4.48514
-4.46867
-4.46329
-4.47886
-4.51777
-4.55386
-4.56357
-4.54601
-4.5167
-4.49083
-4.4761
-4.47307
-4.52592
-4.39131
-4.45645
-4.47222
-4.44831
-4.44306
-4.45615
-4.50626
-4.55938
-4.57607
-4.56682
-4.5575
-4.55402
-4.55516
-4.57165
-4.60329
-4.63198
-4.6431
-4.63672
-4.62281
-4.61253
-4.60761
-4.60817
-4.73179
-4.66279
-4.60989
-4.5808
-4.56215
-4.5389
-4.53367
-4.5926
-4.65621
-4.66934
-4.66041
-4.66061
-4.66415
-4.66752
-4.6816
-4.70314
-4.72403
-4.73607
-4.73917
-4.738
-4.73716
-4.73824
-4.74125
-4.87206
-4.86279
-4.80063
-4.74432
-4.67902
-4.66409
-4.69577
-4.76194
-4.79562
-4.79492
-4.78277
-4.78783
-4.79248
-4.7973
-4.80784
-4.82208
-4.83757
-4.84907
-4.8566
-4.86152
-4.86552
-4.86938
-4.87361
-5.01851
-5.0252
-5.0243
-4.96957
-4.89364
-4.89009
-4.92038
-4.93917
-4.94603
-4.93246
-4.92498
-4.92801
-4.9316
-4.93663
-4.94478
-4.95462
-4.96649
-4.97651
-4.9849
-4.99145
-4.99678
-5.00143
-5.00592
-5.18381
-5.18786
-5.22057
-5.21088
-5.13664
-5.12276
-5.11857
-5.09522
-5.09825
-5.07488
-5.07016
-5.07182
-5.07517
-5.07991
-5.08647
-5.09408
-5.10328
-5.11149
-5.11883
-5.12489
-5.12992
-5.13432
-5.13843
-5.36403
-5.398
-5.41928
-5.41824
-5.3504
-5.28671
-5.2709
-5.27889
-5.2424
-5.22305
-5.21747
-5.21724
-5.22035
-5.22455
-5.22997
-5.23642
-5.24336
-5.2497
-5.2554
-5.26025
-5.26434
-5.26794
-5.27127
-5.53342
-5.58114
-5.57714
-5.55489
-5.51426
-5.43902
-5.43947
-5.42304
-5.3833
-5.37142
-5.36422
-5.36317
-5.36618
-5.36993
-5.37446
-5.37977
-5.38493
-5.38945
-5.39342
-5.39679
-5.39964
-5.40213
-5.40441
-5.66608
-5.70612
-5.68003
-5.65675
-5.62755
-5.61166
-5.58438
-5.54809
-5.51804
-5.5107
-5.50883
-5.50978
-5.51283
-5.51629
-5.52005
-5.524
-5.52747
-5.53018
-5.53238
-5.53413
-5.53554
-5.53673
-5.5378
-5.76787
-5.76393
-5.74553
-5.73187
-5.71305
-5.71678
-5.70407
-5.68297
-5.6623
-5.66043
-5.65826
-5.65869
-5.66135
-5.66438
-5.66759
-5.67002
-5.67159
-5.67231
-5.67246
-5.67235
-5.67209
-5.6718
-5.67155
344.409
339.109
327.72
324.376
243.72
244.819
244.12
244.955
134.316
136.955
135.773
131.949
51.0676
61.395
64.4665
54.4768
25.4705
38.6839
24.6944
6.90719
-0.182184
-0.372818
-0.582744
-0.430139
-0.453313
-0.548213
-0.618905
-0.683701
-0.546142
-0.670529
-0.816471
-0.966069
-0.840626
-0.951407
-1.07583
-1.20003
-1.11193
-1.17744
-1.2509
-1.31231
-1.3756
-1.43917
-1.48621
-1.50809
-1.736
-1.79085
-1.8021
-1.79583
-1.99907
-2.02327
-2.03269
-2.04335
-2.18859
-2.22811
-2.26331
-2.30107
-2.43169
-2.49682
-2.55119
-2.59646
-2.75046
-2.85156
-2.93084
-2.98152
-3.00963
-3.13409
-3.23459
-3.30339
-3.09176
-3.22364
-3.32421
-3.3924
-2.98176
-3.08499
-3.16315
-3.21688
-2.88249
-2.95527
-3.01979
-3.07434
-2.86823
-2.91341
-2.95697
-2.99805
-2.91428
-2.94128
-2.97178
-3.00529
-3.02288
-3.04226
-3.06556
-3.09226
-3.15585
-3.1696
-3.18663
-3.20746
-3.29876
-3.30937
-3.32275
-3.33971
-3.44523
-3.45407
-3.46523
-3.47954
-3.5945
-3.60248
-3.61235
-3.62469
-3.74577
-3.75311
-3.76196
-3.77279
-3.89716
-3.90352
-3.91122
-3.9206
-4.04683
-4.05188
-4.05825
-4.06614
-4.1936
-4.19735
-4.20244
-4.20883
-4.33658
-4.33943
-4.3435
-4.34864
-4.47547
-4.47796
-4.48137
-4.4856
-4.61106
-4.61354
-4.61662
-4.62022
-4.74466
-4.74718
-4.75005
-4.75324
-4.8772
-4.87967
-4.88231
-4.88512
-5.00934
-5.0116
-5.01394
-5.01635
-5.14143
-5.14336
-5.14531
-5.14728
-5.27363
-5.27513
-5.27663
-5.27812
-5.406
-5.40701
-5.40801
-5.409
-5.53856
-5.53904
-5.53951
-5.53998
-5.6714
-5.67131
-5.67124
-5.67118
348.606
321.517
249.526
224.85
277.772
311.706
284.634
251.32
201.383
148.337
112.376
94.7212
87.6472
81.5528
71.6803
61.8849
58.5521
67.5467
75.574
240.374
201.877
162.735
158.482
195.493
208.684
176.806
133.333
77.5987
33.4482
16.8366
13.841
13.1454
12.422
8.67329
5.03347
3.66997
5.97369
11.6653
121.047
97.2383
82.4514
88.211
110.151
100.783
71.3738
38.1522
9.93882
2.28049
1.89331
1.82763
1.82588
2.08938
2.16772
1.98189
1.69232
1.5971
1.73021
31.8855
23.316
32.1354
42.6013
43.9604
27.5172
10.6104
1.9783
1.29076
1.38515
1.46177
1.39071
1.34225
1.56226
1.82052
1.6685
1.44968
1.32655
1.50582
0.545041
0.165144
0.223605
0.185217
0.118515
0.106985
0.057379
0.0389234
0.277155
0.662599
1.02807
1.01759
0.920219
1.00943
1.25596
1.32579
1.25556
1.21163
1.3447
-0.285485
-0.298163
-0.179967
-0.116495
-0.189287
-0.245753
-0.260823
-0.143351
0.121444
0.279462
0.498364
0.667852
0.604898
0.5553
0.644383
0.853419
0.979793
1.05464
1.13332
-0.789244
-0.766946
-0.587702
-0.412046
-0.44325
-0.491467
-0.4676
-0.42783
-0.297021
-0.157313
0.0192443
0.218238
0.278765
0.248932
0.208404
0.255683
0.457873
0.659985
0.773128
-1.17805
-1.18261
-0.963201
-0.807879
-0.812323
-0.774837
-0.730173
-0.644548
-0.527649
-0.402635
-0.285355
-0.17332
-0.0903974
-0.0425226
-0.0428651
-0.0800746
-0.00866331
0.179879
0.383937
-1.37691
-1.35919
-1.20233
-1.17309
-1.15378
-1.05925
-0.979655
-0.884405
-0.771695
-0.657556
-0.551391
-0.467177
-0.407975
-0.339482
-0.272932
-0.237102
-0.191087
-0.0922785
0.0633317
-1.36116
-1.46035
-1.48261
-1.48229
-1.43868
-1.38021
-1.30152
-1.19118
-1.06508
-0.941815
-0.828308
-0.7306
-0.664759
-0.616284
-0.47948
-0.3472
-0.304544
-0.246075
-0.162005
-1.48148
-1.65846
-1.75013
-1.74333
-1.75958
-1.74239
-1.67414
-1.55131
-1.40307
-1.25999
-1.1292
-1.00608
-0.899628
-0.835594
-0.679636
-0.467224
-0.39791
-0.396518
-0.338424
-1.82026
-1.90041
-1.95342
-2.0054
-2.0659
-2.0869
-2.02904
-1.89993
-1.73565
-1.5755
-1.4281
-1.2854
-1.14032
-1.03482
-0.885495
-0.632019
-0.512315
-0.524471
-0.491861
-2.08079
-2.12323
-2.16344
-2.22297
-2.28444
-2.30684
-2.26621
-2.16303
-2.0067
-1.83839
-1.67645
-1.5293
-1.37069
-1.23313
-1.08366
-0.856864
-0.687458
-0.673523
-0.631756
-2.34771
-2.34821
-2.34967
-2.37837
-2.41599
-2.43006
-2.40138
-2.32511
-2.19829
-2.03811
-1.87435
-1.7258
-1.58142
-1.43671
-1.25312
-1.0547
-0.934844
-0.903975
-0.817632
-2.6347
-2.58049
-2.52513
-2.51123
-2.52263
-2.52375
-2.49338
-2.43175
-2.33252
-2.19562
-2.0434
-1.89577
-1.76625
-1.63961
-1.44388
-1.23249
-1.16544
-1.17663
-1.08813
-3.00105
-2.88595
-2.74892
-2.67593
-2.65379
-2.63409
-2.58827
-2.52899
-2.4452
-2.33011
-2.1929
-2.05438
-1.93496
-1.8317
-1.66286
-1.41611
-1.35853
-1.39402
-1.37214
-3.35099
-3.20416
-3.00473
-2.87678
-2.81806
-2.77682
-2.71255
-2.63699
-2.5545
-2.4521
-2.32923
-2.20529
-2.09998
-2.01144
-1.87814
-1.61978
-1.55666
-1.58726
-1.59715
-3.45367
-3.35007
-3.17372
-3.04645
-2.97292
-2.91936
-2.84908
-2.7558
-2.66571
-2.56901
-2.45858
-2.35148
-2.26087
-2.17811
-2.06141
-1.83791
-1.76935
-1.79934
-1.8136
-3.2814
-3.28856
-3.21459
-3.14482
-3.09256
-3.0421
-2.97173
-2.87735
-2.78207
-2.68759
-2.5899
-2.50072
-2.42158
-2.33927
-2.22985
-2.07989
-2.02853
-2.068
-2.07691
-3.14806
-3.20383
-3.2123
-3.20307
-3.18791
-3.15914
-3.10245
-3.01716
-2.91873
-2.82305
-2.73771
-2.66693
-2.59845
-2.51097
-2.40765
-2.32991
-2.34383
-2.40406
-2.37947
-3.066
-3.15224
-3.22222
-3.27138
-3.2949
-3.28767
-3.24466
-3.16682
-3.06945
-2.97624
-2.90484
-2.85391
-2.80628
-2.74265
-2.65861
-2.62515
-2.67561
-2.76618
-2.6656
-3.06805
-3.16823
-3.26942
-3.35373
-3.40339
-3.41201
-3.37903
-3.3085
-3.21646
-3.13006
-3.0744
-3.04655
-3.03104
-3.0451
-3.0434
-3.0051
-3.01242
-3.07292
-2.91298
-3.14421
-3.24166
-3.35407
-3.45587
-3.51564
-3.5285
-3.4985
-3.43338
-3.35188
-3.27379
-3.23577
-3.23744
-3.26951
-3.35717
-3.4176
-3.34221
-3.3132
-3.27291
-3.11713
-3.25093
-3.33961
-3.45353
-3.56143
-3.61858
-3.62778
-3.59821
-3.5442
-3.48068
-3.41332
-3.39957
-3.43478
-3.50035
-3.60398
-3.63741
-3.55702
-3.5516
-3.42666
-3.31281
-3.3756
-3.45248
-3.56317
-3.66384
-3.7092
-3.71453
-3.68925
-3.65072
-3.60822
-3.56154
-3.58513
-3.63988
-3.68234
-3.7368
-3.73083
-3.69879
-3.70559
-3.56357
-3.53501
-3.50928
-3.57465
-3.67496
-3.76118
-3.79687
-3.80296
-3.78501
-3.76359
-3.73351
-3.71772
-3.76775
-3.80141
-3.81248
-3.81325
-3.77553
-3.75986
-3.78095
-3.70287
-3.70736
-3.64987
-3.70391
-3.78758
-3.85376
-3.88869
-3.89884
-3.89227
-3.88126
-3.85685
-3.8622
-3.89642
-3.91319
-3.92743
-3.91302
-3.84977
-3.81348
-3.8345
-3.8294
-3.83251
-3.79477
-3.83947
-3.90267
-3.95499
-3.98695
-3.99822
-3.99821
-3.99594
-3.98222
-3.99676
-3.99296
-4.01356
-4.07464
-4.0897
-4.00497
-3.91663
-3.93044
-3.94917
-3.95557
-3.93938
-3.97412
-4.02267
-4.06269
-4.09073
-4.10502
-4.11131
-4.1136
-4.11016
-4.12074
-4.09668
-4.12545
-4.25443
-4.32845
-4.21899
-4.07425
-4.04753
-4.07714
-4.07954
-4.08195
-4.11079
-4.14533
-4.17816
-4.20212
-4.21739
-4.22748
-4.23445
-4.24001
-4.24775
-4.24228
-4.25036
-4.4099
-4.54387
-4.43713
-4.23874
-4.14033
-4.21289
-4.20153
-4.22161
-4.24461
-4.27026
-4.29763
-4.31763
-4.33312
-4.34595
-4.35763
-4.37059
-4.38559
-4.40688
-4.40961
-4.52666
-4.65107
-4.58936
-4.40686
-4.2509
-4.3444
-4.31125
-4.35885
-4.37708
-4.39724
-4.4187
-4.43608
-4.45133
-4.46569
-4.48067
-4.49926
-4.52455
-4.56012
-4.58213
-4.64244
-4.71191
-4.67775
-4.57152
-4.47381
-4.47512
-4.41858
-4.49388
-4.50849
-4.52482
-4.54131
-4.55654
-4.57095
-4.58562
-4.60216
-4.62395
-4.65599
-4.70025
-4.74672
-4.78659
-4.81669
-4.80035
-4.76879
-4.74099
-4.60971
-4.54501
-4.62714
-4.63911
-4.65206
-4.6653
-4.67826
-4.69119
-4.70495
-4.72102
-4.74257
-4.77547
-4.82577
-4.88811
-4.93808
-4.96711
-4.95897
-4.96744
-4.91542
-4.72972
-4.68425
-4.75911
-4.76883
-4.77923
-4.7899
-4.80063
-4.81159
-4.82343
-4.83722
-4.8553
-4.88268
-4.92743
-4.99041
-5.04962
-5.08204
-5.094
-5.08586
-4.98899
-4.8484
-4.82526
-4.89012
-4.89801
-4.90631
-4.9148
-4.92336
-4.93212
-4.94145
-4.95199
-4.96488
-4.98298
-5.01176
-5.05267
-5.09215
-5.12284
-5.13867
-5.12104
-5.04969
-4.97941
-4.97215
-5.02053
-5.02685
-5.03336
-5.03991
-5.04642
-5.05296
-5.05969
-5.06686
-5.07491
-5.08476
-5.09807
-5.11487
-5.1317
-5.14813
-5.16439
-5.16767
-5.14505
-5.11911
-5.11497
-5.15064
-5.15553
-5.16045
-5.16526
-5.16991
-5.17439
-5.17874
-5.18302
-5.18735
-5.19177
-5.19584
-5.19875
-5.2014
-5.20877
-5.22582
-5.24729
-5.25804
-5.25222
-5.24236
-5.28063
-5.28419
-5.28766
-5.29095
-5.29395
-5.29663
-5.29899
-5.30102
-5.3028
-5.30424
-5.30476
-5.30375
-5.30253
-5.30652
-5.32202
-5.34541
-5.362
-5.36384
-5.35421
-5.41064
-5.41292
-5.41508
-5.41702
-5.41862
-5.41983
-5.42059
-5.42099
-5.42121
-5.42129
-5.42106
-5.42011
-5.41942
-5.42221
-5.43246
-5.4485
-5.46077
-5.46383
-5.45944
-5.54076
-5.54181
-5.54275
-5.54348
-5.54392
-5.54398
-5.54359
-5.54284
-5.5423
-5.54212
-5.54197
-5.54162
-5.54154
-5.54322
-5.54835
-5.55639
-5.56303
-5.56542
-5.56439
-5.67108
-5.67094
-5.67074
-5.67039
-5.66982
-5.66899
-5.66788
-5.66653
-5.66558
-5.66509
-5.66489
-5.665
-5.66558
-5.66689
-5.66887
-5.671
-5.67255
-5.67287
-5.67302
)
;

boundaryField
{
    leftWall
    {
        type            calculated;
        value           nonuniform List<scalar> 
50
(
661.483
603.251
546.659
488.28
427.426
366.013
310.079
261.544
189.357
81.4406
20.212
6.47261
1.54003
1.3706
0.609431
-0.118194
-0.62829
-0.916857
-1.0217
-0.991819
-0.957847
-1.04902
-1.25082
-1.43871
-1.55518
-1.68181
-1.83772
-1.96936
-2.08049
-2.17536
-2.32271
-2.62924
-3.02639
-3.31512
-3.44411
-3.528
-3.62839
-3.77457
-3.97502
-4.20591
-4.42013
-4.52592
-4.73179
-4.87206
-5.01851
-5.18381
-5.36403
-5.53342
-5.66608
-5.76787
)
;
    }
    rightWall
    {
        type            calculated;
        value           nonuniform List<scalar> 
50
(
558.358
502.467
444.96
387.427
330.244
272.316
213.55
156.029
75.574
11.6653
1.73021
1.50582
1.3447
1.13332
0.773128
0.383937
0.0633317
-0.162005
-0.338424
-0.491861
-0.631756
-0.817632
-1.08813
-1.37214
-1.59715
-1.8136
-2.07691
-2.37947
-2.6656
-2.91298
-3.11713
-3.31281
-3.53501
-3.70736
-3.83251
-3.95557
-4.07954
-4.20153
-4.31125
-4.41858
-4.54501
-4.68425
-4.82526
-4.97215
-5.11497
-5.24236
-5.35421
-5.45944
-5.56439
-5.67302
)
;
    }
    lowerWall
    {
        type            calculated;
        value           nonuniform List<scalar> 
62
(
690.9
688.083
693.405
687.271
686.656
698.927
704.251
703.918
707.28
715.881
730.283
748.577
769.013
788.964
805.64
819.226
831.263
843.423
853.885
859.353
863.97
871.842
878.015
848.591
788.911
728.533
668.408
608.172
546.703
485.365
421.628
404.611
399.311
387.927
384.992
819.207
762.76
710.539
656.76
600.093
542.141
484.596
430.877
848.405
840.585
821.827
795.278
772.531
763.122
768.844
766.581
734.621
691.051
656.986
629.575
612.832
598.23
584.795
576.642
572.719
574.3
584.817
)
;
    }
    atmosphere
    {
        type            calculated;
        value           nonuniform List<scalar> 
46
(
-5.83227
-5.81025
-5.75689
-5.75672
-5.75964
-5.79383
-5.77107
-5.75472
-5.7304
-5.72936
-5.73065
-5.7332
-5.73639
-5.73936
-5.74266
-5.74421
-5.74467
-5.74424
-5.74319
-5.74197
-5.74075
-5.73962
-5.73863
-5.738
-5.73761
-5.73725
-5.73691
-5.73637
-5.73566
-5.73491
-5.73406
-5.73307
-5.73193
-5.73067
-5.7295
-5.72904
-5.72904
-5.72904
-5.72904
-5.72904
-5.72905
-5.72906
-5.72909
-5.7291
-5.72912
-5.72905
)
;
    }
    defaultFaces
    {
        type            empty;
    }
}


// ************************************************************************* //
