/*--------------------------------*- C++ -*----------------------------------*\
| =========                 |                                                 |
| \\      /  F ield         | OpenFOAM: The Open Source CFD Toolbox           |
|  \\    /   O peration     | Version:  2.3.0                                 |
|   \\  /    A nd           | Web:      www.OpenFOAM.org                      |
|    \\/     M anipulation  |                                                 |
\*---------------------------------------------------------------------------*/
FoamFile
{
    version     2.0;
    format      ascii;
    class       surfaceScalarField;
    location    "2.2";
    object      phi;
}
// * * * * * * * * * * * * * * * * * * * * * * * * * * * * * * * * * * * * * //

dimensions      [0 3 -1 0 0 0 0];

internalField   nonuniform List<scalar> 
4432
(
2.60169e-06
-2.60169e-06
8.78927e-07
1.72276e-06
5.01406e-06
-4.13514e-06
9.48757e-06
-4.47351e-06
3.55765e-06
5.92991e-06
-3.04772e-06
6.60537e-06
-6.03227e-06
2.98455e-06
-9.48923e-06
3.45696e-06
-1.17396e-05
2.25039e-06
-1.3872e-05
2.1324e-06
-1.51625e-05
1.29049e-06
-1.47886e-05
-3.73906e-07
-1.24401e-05
-2.34853e-06
-9.05517e-06
-3.3849e-06
-7.29857e-06
-1.7566e-06
-9.08845e-06
1.78988e-06
-1.22549e-05
3.16648e-06
-1.32029e-05
9.47931e-07
-1.18416e-05
-1.36131e-06
-1.15155e-05
-3.26083e-07
-1.09901e-05
-5.25384e-07
-6.87515e-06
-4.11495e-06
-6.87515e-06
-3.30896e-06
7.07262e-07
-4.25737e-06
2.67117e-06
1.28189e-06
-9.67441e-06
7.62701e-06
-1.08186e-05
5.17585e-06
8.38108e-06
-2.91824e-06
1.46994e-05
-7.35506e-06
7.42138e-06
-1.05444e-05
6.64633e-06
-1.33052e-05
5.01116e-06
-1.5324e-05
4.1512e-06
-1.5599e-05
1.56554e-06
-1.45797e-05
-1.3932e-06
-1.25257e-05
-4.40257e-06
-1.01229e-05
-5.78767e-06
-9.17989e-06
-2.69964e-06
-1.06652e-05
3.27521e-06
-1.19174e-05
4.41866e-06
-1.13422e-05
3.72743e-07
-1.03445e-05
-2.35902e-06
-1.12661e-05
5.95505e-07
-1.11664e-05
-6.25045e-07
-6.76362e-06
-8.51775e-06
-1.36388e-05
-6.56146e-06
7.26872e-06
-6.51915e-06
2.62886e-06
-2.25526e-06
-1.39383e-05
3.73311e-06
-1.6807e-05
4.15334e-06
7.96085e-06
-2.18498e-06
2.10378e-05
-6.40341e-06
1.16398e-05
-9.78602e-06
1.00289e-05
-1.26281e-05
7.85327e-06
-1.37708e-05
5.29389e-06
-1.28822e-05
6.76913e-07
-1.10505e-05
-3.22485e-06
-9.24786e-06
-6.20525e-06
-8.09948e-06
-6.93604e-06
-7.26309e-06
-3.53602e-06
-7.15658e-06
3.1687e-06
-6.9216e-06
4.18368e-06
-6.39989e-06
-1.48949e-07
-7.13572e-06
-1.6232e-06
-9.3277e-06
2.7875e-06
-8.52422e-06
-1.42853e-06
-3.71481e-06
-1.33272e-05
-1.73536e-05
-7.66306e-06
1.49318e-05
-9.57468e-06
4.54047e-06
-7.33633e-06
-1.61767e-05
-8.84031e-07
-2.32593e-05
2.73281e-06
4.34401e-06
-1.41674e-06
2.51873e-05
-5.44668e-06
1.56698e-05
-9.1517e-06
1.3734e-05
-1.18084e-05
1.051e-05
-1.16494e-05
5.13489e-06
-9.14986e-06
-1.82261e-06
-6.29684e-06
-6.07785e-06
-4.10919e-06
-8.3929e-06
-3.53905e-06
-7.50618e-06
-3.633e-06
-3.44207e-06
-2.71564e-06
2.25134e-06
-1.38271e-06
2.85075e-06
-1.18007e-06
-3.51593e-07
-3.54029e-06
7.37014e-07
-5.94576e-06
5.19297e-06
-3.48145e-06
-3.89285e-06
1.22126e-06
-1.80299e-05
-1.61323e-05
-6.67832e-06
2.16101e-05
-9.15231e-06
7.01447e-06
-9.02449e-06
-1.63045e-05
-4.28146e-06
-2.80023e-05
1.41614e-06
-1.35359e-06
-1.59586e-07
2.6763e-05
-3.83961e-06
1.93498e-05
-7.50722e-06
1.74016e-05
-1.02755e-05
1.32783e-05
-9.11585e-06
3.97519e-06
-5.15968e-06
-5.77877e-06
-1.63531e-06
-9.60222e-06
4.46232e-07
-1.04744e-05
1.21022e-06
-8.27017e-06
6.74664e-07
-2.90652e-06
8.85246e-07
2.04076e-06
2.15734e-06
1.57866e-06
1.62081e-06
1.8494e-07
-9.63059e-07
3.32088e-06
-2.73031e-06
6.96021e-06
1.75817e-06
-8.38133e-06
5.00507e-06
-2.12768e-05
-1.11272e-05
-3.65166e-06
2.52617e-05
-4.20621e-06
7.56901e-06
-5.41731e-06
-1.50934e-05
-5.67767e-06
-2.7742e-05
6.44276e-07
-7.67553e-06
2.18689e-06
2.52204e-05
-2.07504e-07
2.17442e-05
-2.11378e-06
1.93079e-05
-3.79608e-06
1.49606e-05
-1.75287e-06
1.93198e-06
1.43174e-06
-8.96338e-06
3.4488e-06
-1.16193e-05
4.14612e-06
-1.11718e-05
4.39526e-06
-8.5193e-06
3.86073e-06
-2.37199e-06
3.24734e-06
2.65416e-06
3.32893e-06
1.49708e-06
2.14854e-06
1.36534e-06
1.66309e-07
5.30311e-06
1.26301e-06
5.8635e-06
6.20303e-06
-1.33214e-05
5.87202e-06
-2.09458e-05
-5.25522e-06
5.71883e-07
2.46899e-05
3.11464e-06
5.02626e-06
3.20149e-06
-1.51802e-05
-1.22536e-06
-2.33151e-05
1.71084e-06
-1.06117e-05
6.00131e-06
2.093e-05
5.58809e-06
2.21574e-05
6.06317e-06
1.88328e-05
6.88428e-06
1.41395e-05
8.73044e-06
8.58067e-08
9.73518e-06
-9.96812e-06
7.8868e-06
-9.7709e-06
5.80629e-06
-9.09124e-06
5.09699e-06
-7.81e-06
4.71346e-06
-1.98847e-06
3.81602e-06
3.5516e-06
2.60548e-06
2.70761e-06
7.36788e-07
3.23403e-06
-1.00521e-06
7.0451e-06
3.22397e-06
1.63432e-06
5.98088e-06
-1.60783e-05
2.92113e-06
-1.7886e-05
-2.3341e-06
7.04344e-06
1.76464e-05
1.05893e-05
1.4804e-06
1.2227e-05
-1.68179e-05
7.64339e-06
-1.87316e-05
6.64666e-06
-9.615e-06
1.1074e-05
1.65026e-05
1.43602e-05
1.88712e-05
1.64331e-05
1.67599e-05
1.81615e-05
1.2411e-05
1.74901e-05
7.57194e-07
1.34514e-05
-5.9294e-06
7.59209e-06
-3.91159e-06
3.16779e-06
-4.66695e-06
2.32562e-06
-6.96784e-06
2.94588e-06
-2.60874e-06
2.63635e-06
3.86114e-06
2.10254e-07
5.1337e-06
-1.92336e-06
5.36764e-06
-7.84075e-07
5.90582e-06
1.82421e-06
-9.73958e-07
-1.7317e-06
-1.25223e-05
-4.41188e-06
-1.52059e-05
-6.74598e-06
3.75156e-06
-3.75156e-06
-3.28245e-06
7.03401e-06
-1.16265e-05
8.34406e-06
-1.97759e-05
8.14938e-06
-3.07461e-05
1.09702e-05
-3.58014e-05
5.05532e-06
-2.70668e-05
-8.73459e-06
-1.25496e-05
-1.45171e-05
-2.55235e-06
-9.99731e-06
2.19692e-06
-4.74926e-06
4.37238e-06
-2.17546e-06
1.93257e-06
2.43981e-06
-4.71698e-06
6.64958e-06
-1.14434e-05
6.72641e-06
-1.60615e-05
4.61807e-06
-1.61e-05
3.85323e-08
-1.345e-05
-2.65e-06
-9.13912e-06
-4.31086e-06
-9.13911e-06
-4.39405e-06
6.42495e-07
-1.85502e-05
2.11902e-05
-3.08172e-05
2.06111e-05
-3.78051e-05
1.51372e-05
-3.94925e-05
1.26575e-05
-3.34417e-05
-9.95498e-07
-2.11042e-05
-2.10721e-05
-8.77974e-06
-2.68416e-05
-1.2891e-06
-1.74879e-05
1.0231e-06
-7.06143e-06
9.29006e-07
-2.08135e-06
-8.9124e-07
4.26003e-06
-6.07299e-06
1.18313e-05
-1.11912e-05
1.18446e-05
-1.17926e-05
5.21949e-06
-1.03713e-05
-1.38276e-06
-8.96313e-06
-4.05816e-06
-6.67885e-06
-6.59515e-06
-1.5818e-05
-8.90052e-06
9.54301e-06
-2.10862e-05
3.33759e-05
-3.07073e-05
3.02321e-05
-3.45811e-05
1.90111e-05
-3.24253e-05
1.05017e-05
-2.64209e-05
-6.99987e-06
-1.67378e-05
-3.07552e-05
-7.42576e-06
-3.61536e-05
-2.17953e-06
-2.27342e-05
-4.68683e-07
-8.77229e-06
-1.31372e-06
-1.2363e-06
-1.98134e-06
4.92764e-06
-2.05092e-06
1.19009e-05
-1.80558e-06
1.15993e-05
3.67211e-07
3.04672e-06
1.66736e-06
-2.68292e-06
-6.30223e-07
-1.76057e-06
-1.6915e-06
-5.53388e-06
-1.75094e-05
-8.96816e-06
1.85112e-05
-1.45454e-05
3.89531e-05
-1.67044e-05
3.23911e-05
-2.13804e-05
2.36871e-05
-2.41089e-05
1.32302e-05
-2.0934e-05
-1.01747e-05
-1.36661e-05
-3.80232e-05
-8.60169e-06
-4.12179e-05
-6.02914e-06
-2.53068e-05
-3.94201e-06
-1.08594e-05
-3.40272e-06
-1.77558e-06
-3.171e-06
4.69591e-06
-9.63159e-07
9.69312e-06
1.91896e-06
8.71711e-06
3.35911e-06
1.60659e-06
4.40407e-06
-3.72789e-06
4.42211e-06
-1.7786e-06
2.49711e-06
-3.60888e-06
-1.50123e-05
-7.15242e-06
2.56636e-05
-4.61341e-06
3.64141e-05
2.15986e-06
2.56179e-05
-3.03545e-06
2.88824e-05
-1.35796e-05
2.37744e-05
-1.54258e-05
-8.32855e-06
-1.13602e-05
-4.20888e-05
-1.09611e-05
-4.1617e-05
-1.10227e-05
-2.52451e-05
-8.90303e-06
-1.29791e-05
-7.02477e-06
-3.65383e-06
-5.28243e-06
2.95356e-06
-2.58175e-06
6.99246e-06
-3.28341e-07
6.46369e-06
-3.0169e-07
1.57996e-06
1.29295e-07
-4.15888e-06
1.81827e-06
-3.46757e-06
3.26287e-06
-5.05347e-06
-1.17495e-05
-5.01958e-06
3.06832e-05
5.67726e-06
2.57172e-05
1.80095e-05
1.32857e-05
1.39709e-05
3.29209e-05
-7.69028e-07
3.85143e-05
-8.75736e-06
-3.40225e-07
-9.58546e-06
-4.12607e-05
-1.37077e-05
-3.74948e-05
-1.65222e-05
-2.24306e-05
-1.59001e-05
-1.36012e-05
-1.37249e-05
-5.82904e-06
-1.06296e-05
-1.41769e-07
-6.60545e-06
2.96833e-06
-3.74132e-06
3.59954e-06
-3.33027e-06
1.16892e-06
-3.56125e-06
-3.92792e-06
-9.51338e-07
-6.07748e-06
2.5999e-06
-8.60471e-06
-9.14957e-06
-3.70735e-07
3.10539e-05
1.3834e-05
1.15125e-05
2.38027e-05
3.31694e-06
2.15068e-05
3.52169e-05
9.11662e-06
5.09044e-05
-2.21613e-06
1.09926e-05
-8.55425e-06
-3.49226e-05
-1.67422e-05
-2.93068e-05
-2.21096e-05
-1.70632e-05
-2.40313e-05
-1.16795e-05
-2.27025e-05
-7.15784e-06
-1.90147e-05
-3.82961e-06
-1.41729e-05
-1.87342e-06
-1.00852e-05
-4.88185e-07
-7.91438e-06
-1.00192e-06
-7.14398e-06
-4.69832e-06
-4.18662e-06
-9.03485e-06
3.98919e-07
-1.31903e-05
-8.75065e-06
4.80141e-06
2.62525e-05
1.74566e-05
-1.14271e-06
1.8243e-05
2.5306e-06
1.7631e-05
3.58289e-05
1.09219e-05
5.76135e-05
9.27028e-07
2.09875e-05
-9.18896e-06
-2.48066e-05
-1.99871e-05
-1.85087e-05
-2.7116e-05
-9.93424e-06
-3.12092e-05
-7.5864e-06
-3.15141e-05
-6.85286e-06
-2.83959e-05
-6.94783e-06
-2.34152e-05
-6.85419e-06
-1.81354e-05
-5.76797e-06
-1.4431e-05
-4.7063e-06
-1.24468e-05
-6.68252e-06
-9.10075e-06
-1.23809e-05
-2.82146e-06
-1.94695e-05
-1.15721e-05
2.73943e-05
-9.74783e-06
3.97205e-05
-1.08459e-05
3.71618e-05
-1.42592e-05
2.61322e-05
-7.70193e-06
1.52409e-05
1.27631e-06
2.3851e-05
7.89245e-06
4.2964e-05
-2.41816e-07
5.39586e-05
5.76531e-06
4.58809e-05
2.04888e-05
2.61523e-05
2.04858e-05
4.8512e-06
1.53717e-05
-9.92056e-06
1.08602e-05
-1.52389e-05
6.51406e-07
-1.30289e-05
-9.17789e-06
-6.44503e-06
-9.19255e-06
3.24955e-07
-2.90885e-06
1.91219e-06
3.54646e-06
-1.65013e-06
8.92995e-06
-9.45296e-06
1.37087e-05
-2.56553e-05
1.52284e-05
-4.04634e-05
2.28569e-06
-4.4153e-05
-1.15163e-05
-5.89357e-06
-4.50054e-05
2.28714e-05
-3.26192e-05
2.00078e-05
-7.98226e-06
8.04343e-06
-2.29483e-06
-3.53734e-06
3.87884e-06
-6.18789e-06
3.92685e-06
4.8559e-06
-3.15134e-06
7.5691e-06
-2.95502e-06
-3.77735e-06
1.71118e-05
-2.63313e-05
4.30428e-05
-4.64252e-05
4.05796e-05
-5.16451e-05
2.05916e-05
-4.99261e-05
9.14109e-06
-4.35857e-05
-5.6889e-06
-3.4574e-05
-1.81896e-05
-2.35999e-05
-2.01667e-05
-1.64503e-05
-1.00584e-05
-2.06128e-05
7.70894e-06
-3.80011e-05
2.63182e-05
-6.39262e-05
3.96338e-05
-8.39862e-05
3.52883e-05
-9.2892e-05
1.11915e-05
-9.81749e-05
-6.23342e-06
-7.94005e-06
-9.61284e-05
-9.22035e-06
-2.33989e-05
-5.77529e-05
4.05503e-05
-9.2261e-05
3.22133e-05
-8.28295e-05
-5.55261e-06
-7.71132e-05
-1.78955e-06
-7.0601e-05
-9.66356e-06
-7.45274e-05
9.71411e-07
-8.58361e-05
2.84205e-05
-0.000104808
6.20143e-05
-0.000115642
5.1414e-05
-0.000117413
2.23627e-05
-0.000109681
1.40905e-06
-9.21967e-05
-2.31732e-05
-7.13772e-05
-3.90091e-05
-5.51346e-05
-3.64093e-05
-5.45295e-05
-1.06635e-05
-6.3388e-05
1.65675e-05
-8.04035e-05
4.33336e-05
-0.000101557
6.07874e-05
-0.00011757
5.13011e-05
-0.00012438
1.80019e-05
-0.000112709
-1.79048e-05
-1.86707e-05
-0.000101978
1.96003e-06
-2.53589e-05
-8.05498e-05
0.00012306
-0.000109545
6.1208e-05
-0.000146925
3.18277e-05
-0.000179387
3.06731e-05
-0.000206685
1.76341e-05
-0.000224553
1.88393e-05
-0.00022259
2.64573e-05
-0.000196969
3.63941e-05
-0.000175885
3.03291e-05
-0.000165921
1.2399e-05
-0.000148658
-1.58532e-05
-0.000122402
-4.94291e-05
-0.000127399
-3.40126e-05
-8.93702e-05
-7.44378e-05
-7.50283e-05
-2.50054e-05
-7.78704e-05
1.94096e-05
-9.48761e-05
6.03394e-05
-0.000120411
8.63218e-05
-0.000135623
6.65134e-05
-0.000145144
2.75227e-05
-0.000130103
-3.29453e-05
-4.45569e-05
-0.000104217
-0.000116531
9.11721e-05
-0.000164382
0.000170912
-0.0001995
9.63259e-05
-0.000223339
5.56662e-05
-0.000231292
3.86268e-05
-0.000237292
2.36334e-05
-0.000240309
2.1857e-05
-0.000236064
2.22118e-05
-0.000219892
2.02222e-05
-0.000197317
7.75394e-06
-0.000170575
-1.43421e-05
-0.00013469
-5.17379e-05
-9.23855e-05
-9.17335e-05
-3.58626e-05
-9.05354e-05
-6.33939e-05
-4.69065e-05
-9.28395e-05
4.44008e-06
-8.94163e-05
1.59864e-05
-0.000112856
8.37793e-05
-0.000118751
9.22168e-05
-0.000114454
6.22162e-05
-0.000110689
2.3757e-05
-0.000123536
-2.00978e-05
-3.26749e-05
-0.000135418
-0.000106195
0.000197367
-0.000169777
0.000234494
-0.000208032
0.000134581
-0.000231079
7.87132e-05
-0.000239315
4.68629e-05
-0.000242212
2.653e-05
-0.000242393
2.20385e-05
-0.000236824
1.66425e-05
-0.000221871
5.27009e-06
-0.000199681
-1.44365e-05
-0.000170223
-4.37992e-05
-0.000139898
-8.2063e-05
-0.000105421
-0.00012621
-5.78157e-05
-0.000138141
-3.76023e-05
-6.71201e-05
-6.20618e-05
2.88995e-05
-0.000106953
6.08774e-05
-0.000111096
8.79233e-05
-9.68911e-05
7.80118e-05
-7.36209e-05
3.89458e-05
-5.1781e-05
1.9168e-06
-5.90091e-05
-1.28697e-05
-2.01179e-05
-7.1566e-05
-7.93228e-05
0.00027669
-0.000125473
0.000280644
-0.000166488
0.000175596
-0.000196552
0.000108777
-0.000216341
6.6652e-05
-0.000224946
3.5135e-05
-0.00021551
1.26017e-05
-0.000193967
-4.89998e-06
-0.000167615
-2.10819e-05
-0.00014199
-4.00613e-05
-0.000117799
-6.79898e-05
-9.82364e-05
-0.000101625
-8.90274e-05
-0.000135419
-7.07878e-05
-0.000156381
-2.98158e-05
-0.000108092
-4.14163e-05
4.04998e-05
-7.19915e-05
9.14522e-05
-7.8692e-05
9.46238e-05
-6.97871e-05
6.9107e-05
-5.87697e-05
2.79287e-05
-4.71364e-05
-9.71627e-06
-4.07247e-05
-1.92814e-05
6.47823e-06
-6.73203e-05
-5.00418e-05
0.000326732
-8.18687e-05
0.000312471
-0.000117294
0.000211021
-0.000147293
0.000138777
-0.000165786
8.5145e-05
-0.000168548
3.78963e-05
-0.000156197
2.51198e-07
-0.000137247
-2.38499e-05
-0.000118096
-4.02328e-05
-0.000100544
-5.76129e-05
-8.10226e-05
-8.75114e-05
-6.63852e-05
-0.000116262
-6.96484e-05
-0.000132155
-6.51021e-05
-0.000160927
-3.6462e-05
-0.000136732
-4.91973e-06
8.95772e-06
-2.8185e-05
0.000114717
-3.60205e-05
0.00010246
-2.55292e-05
5.86158e-05
-1.07428e-05
1.31424e-05
-1.34166e-05
-7.04234e-06
-2.0821e-05
-1.18772e-05
2.30677e-05
-3.74109e-05
-2.48099e-05
0.000351542
-4.47996e-05
0.000332461
-7.2126e-05
0.000238346
-9.68495e-05
0.0001635
-0.000112087
0.000100382
-0.000114119
3.99283e-05
-0.000104423
-9.44399e-06
-8.77111e-05
-4.05618e-05
-7.23819e-05
-5.55622e-05
-6.09826e-05
-6.9012e-05
-4.71668e-05
-0.000101327
-3.91911e-05
-0.000124238
-4.63265e-05
-0.00012502
-5.36525e-05
-0.000153601
-4.90589e-05
-0.000141325
-4.01473e-06
-3.60861e-05
1.08161e-05
9.98857e-05
6.30219e-06
0.000106974
1.57985e-05
4.91191e-05
2.56473e-05
3.29348e-06
2.18853e-05
-3.27968e-06
2.99692e-06
7.01148e-06
3.32086e-05
-7.14426e-06
-9.25918e-07
0.000352468
-1.07364e-05
0.000342271
-2.97647e-05
0.000257375
-5.01502e-05
0.000183886
-6.55727e-05
0.000115804
-7.11813e-05
4.55368e-05
-6.46676e-05
-1.59576e-05
-4.93065e-05
-5.59226e-05
-3.25548e-05
-7.2314e-05
-1.92043e-05
-8.23623e-05
-1.12569e-05
-0.000109274
-1.52088e-05
-0.000120286
-2.62375e-05
-0.000113991
-3.88557e-05
-0.000140983
-4.45102e-05
-0.000135671
-9.00594e-06
-7.15904e-05
2.93802e-05
6.14995e-05
2.60558e-05
0.000110298
2.57572e-05
4.94178e-05
3.56925e-05
-6.64189e-06
3.30476e-05
-6.35094e-07
8.86428e-06
3.11947e-05
4.4291e-05
-2.21759e-06
3.30877e-05
0.00031938
2.60305e-05
0.000349329
1.09018e-05
0.000272503
-6.13662e-06
0.000200925
-2.07241e-05
0.000130392
-2.90539e-05
5.38674e-05
-2.80698e-05
-1.69415e-05
-1.62048e-05
-6.77876e-05
6.9305e-07
-8.92118e-05
1.67893e-05
-9.84586e-05
1.87997e-05
-0.000111284
1.03932e-05
-0.000111879
-2.72799e-06
-0.000100869
-1.86507e-05
-0.00012506
-2.98894e-05
-0.000124433
-1.69175e-05
-8.4563e-05
3.96474e-05
4.93537e-06
4.46857e-05
0.00010526
3.06298e-05
6.34737e-05
3.27391e-05
-8.75107e-06
2.74524e-05
4.65141e-06
3.5077e-06
5.51391e-05
5.52674e-05
-7.46892e-06
6.75323e-05
0.000251848
7.63295e-05
0.000340532
6.05092e-05
0.000288324
4.44325e-05
0.000217001
3.1725e-05
0.0001431
2.33089e-05
6.22841e-05
2.27416e-05
-1.63739e-05
3.11758e-05
-7.6222e-05
4.34642e-05
-0.0001015
5.23675e-05
-0.000107361
5.05972e-05
-0.000109514
4.26486e-05
-0.000103931
3.03095e-05
-8.85306e-05
8.66218e-06
-0.000103412
-6.5871e-06
-0.000109183
-1.64778e-05
-7.46725e-05
2.37115e-05
-3.52544e-05
5.44886e-05
7.4483e-05
5.04367e-05
6.75254e-05
3.39164e-05
7.76924e-06
1.10677e-05
2.75003e-05
-2.59148e-06
6.87985e-05
6.27568e-05
-1.00808e-05
9.31173e-05
0.00015873
0.000136833
0.000296816
0.000133629
0.000291528
0.000118898
0.000231733
0.000107283
0.000154715
0.000100084
6.94836e-05
9.66856e-05
-1.29752e-05
9.60283e-05
-7.55649e-05
9.40176e-05
-9.94893e-05
8.98045e-05
-0.000103148
8.29652e-05
-0.000102674
7.31654e-05
-9.41303e-05
6.10361e-05
-7.64011e-05
4.01864e-05
-8.25626e-05
2.48281e-05
-9.38249e-05
5.77781e-06
-5.56223e-05
9.3918e-06
-3.88686e-05
5.30624e-05
3.08126e-05
5.92294e-05
6.13586e-05
3.10484e-05
3.595e-05
1.46083e-06
5.70877e-05
-8.28372e-06
7.85429e-05
8.56013e-05
-3.11283e-05
8.87755e-05
6.99553e-05
0.000169756
0.000215835
0.000202181
0.000259103
0.000205683
0.000228232
0.000199493
0.000160905
0.000190353
7.86232e-05
0.00017603
1.34738e-06
0.000158922
-5.84566e-05
0.00013917
-7.97366e-05
0.000122837
-8.68156e-05
0.000109597
-8.94343e-05
9.65553e-05
-8.10887e-05
8.67545e-05
-6.66005e-05
7.48856e-05
-7.06939e-05
6.10387e-05
-7.99781e-05
3.92941e-05
-3.38774e-05
6.79276e-06
-6.36724e-06
3.24819e-05
5.12349e-06
4.33907e-05
5.04497e-05
2.06843e-05
5.86563e-05
-3.62924e-06
8.14012e-05
-3.50879e-05
0.000110001
0.000126583
-7.60695e-05
5.30454e-05
1.691e-05
0.00014558
0.0001233
0.000212538
0.000192146
0.000245552
0.000195217
0.000253996
0.000152462
0.00024525
8.7369e-05
0.000224406
2.21918e-05
0.000191685
-2.57361e-05
0.000162361
-5.04122e-05
0.000140549
-6.50035e-05
0.000122592
-7.14766e-05
0.000107642
-6.61391e-05
0.000102398
-6.13561e-05
9.78869e-05
-6.6183e-05
8.44662e-05
-6.65575e-05
5.7668e-05
-7.07916e-06
1.08271e-05
4.04736e-05
1.5407e-05
5.4348e-07
2.06834e-05
4.51732e-05
-2.04495e-06
8.13846e-05
-2.94162e-05
0.000108772
-6.76031e-05
0.000148189
0.000166805
-0.000107825
1.47555e-05
2.15436e-06
8.40866e-05
5.39695e-05
0.000160265
0.000115968
0.000213209
0.000142273
0.000237429
0.000128242
0.000236227
8.85711e-05
0.00021574
4.2679e-05
0.000186137
3.86702e-06
0.000160308
-2.45834e-05
0.000138691
-4.33865e-05
0.000118737
-5.15227e-05
0.000107956
-5.53578e-05
0.00010476
-5.81602e-05
0.000101264
-6.26871e-05
8.22013e-05
-4.74948e-05
4.79967e-05
2.71252e-05
1.28301e-05
7.56401e-05
-1.25335e-07
1.34988e-05
-4.24665e-06
4.92945e-05
-2.57874e-05
0.000102925
-5.07802e-05
0.000133765
-7.56653e-05
0.000173074
0.000184409
-9.32692e-05
-1.14565e-05
1.36109e-05
2.28856e-05
1.96278e-05
8.84599e-05
5.03936e-05
0.000143321
8.7412e-05
0.000174009
9.75544e-05
0.000181812
8.07686e-05
0.000173985
5.05058e-05
0.000157533
2.03188e-05
0.000140778
-7.82836e-06
0.000119969
-2.25775e-05
0.000105045
-3.65984e-05
9.60718e-05
-4.63845e-05
9.45138e-05
-5.66022e-05
8.57645e-05
-5.3938e-05
5.72058e-05
-1.89364e-05
2.23042e-05
6.20267e-05
4.6377e-07
9.74807e-05
-1.73757e-05
3.13385e-05
-1.79103e-05
4.98292e-05
-2.9515e-05
0.00011453
-3.85308e-05
0.000142781
-3.92604e-05
0.000173803
0.000173539
-2.83899e-05
-1.91074e-05
3.27184e-05
1.41587e-06
-8.95244e-07
4.40543e-05
7.75495e-06
8.35694e-05
4.78972e-05
0.000109135
7.19891e-05
0.000122604
6.73005e-05
0.000125972
4.71369e-05
0.000117563
2.87284e-05
0.000106152
3.58192e-06
9.51432e-05
-1.15682e-05
8.46153e-05
-2.60705e-05
7.7569e-05
-3.93384e-05
6.88626e-05
-4.78958e-05
4.27014e-05
-2.77769e-05
1.63238e-05
7.44095e-06
4.41284e-07
7.79095e-05
-5.21387e-06
0.000103136
-2.09735e-05
4.70983e-05
-1.82564e-05
4.71123e-05
-9.53409e-06
0.000105808
5.19127e-06
0.000128056
2.95858e-05
0.000149409
0.000140871
6.22543e-05
2.27173e-06
3.04466e-05
2.11602e-05
-1.97838e-05
3.25248e-05
-3.60993e-06
4.04074e-05
4.00149e-05
4.87337e-05
6.36633e-05
5.59027e-05
6.01317e-05
6.42672e-05
3.87722e-05
6.15831e-05
3.14125e-05
5.72053e-05
7.96048e-06
6.58346e-05
-2.0197e-05
6.47457e-05
-2.49815e-05
4.78699e-05
-2.24624e-05
1.65636e-05
-1.65893e-05
-3.50353e-06
-7.70959e-06
-1.27039e-05
1.66415e-05
-9.14133e-06
7.43472e-05
5.8553e-07
9.34096e-05
-5.65979e-06
5.33438e-05
-8.17639e-06
4.96289e-05
1.60414e-05
8.15899e-05
4.95938e-05
9.45035e-05
9.17649e-05
0.000107237
9.88328e-05
0.000133803
1.20748e-05
1.83719e-05
1.07428e-05
-1.84522e-05
-7.95438e-06
1.50872e-05
-2.45255e-05
5.65864e-05
-2.27073e-05
6.18453e-05
-8.02348e-07
3.82264e-05
1.60165e-05
2.1953e-05
4.06855e-05
6.74349e-06
4.52171e-05
3.42921e-06
4.0221e-05
-1.52005e-05
1.68652e-05
-1.62531e-06
-5.73021e-06
1.33341e-07
-1.80429e-05
-4.27629e-06
-2.21278e-05
-3.62445e-06
-2.21268e-05
1.66406e-05
-3.74985e-06
5.59705e-05
1.74043e-05
7.22556e-05
1.87254e-05
5.20228e-05
2.16472e-05
4.6707e-05
4.45886e-05
5.86485e-05
7.72127e-05
6.18792e-05
0.000118739
6.5711e-05
5.68378e-05
0.000160734
5.68994e-06
1.26819e-05
-1.64609e-05
3.69851e-06
-4.81722e-05
4.67987e-05
-6.0441e-05
6.88553e-05
-3.17604e-05
3.31648e-05
6.93239e-06
-4.66559e-07
2.31127e-05
5.77264e-06
2.09078e-05
8.9483e-06
2.52455e-07
2.40847e-05
-1.91397e-05
4.19194e-06
-2.13685e-05
6.03798e-07
-2.04105e-05
-8.24585e-07
-2.49963e-05
3.09522e-07
-2.9569e-05
9.48233e-07
-2.42738e-05
1.13456e-05
-7.73769e-07
3.24706e-05
2.57981e-05
4.56838e-05
3.92827e-05
3.85384e-05
5.023e-05
3.57597e-05
7.07285e-05
3.815e-05
9.49645e-05
3.76433e-05
0.000125985
3.46908e-05
2.36513e-05
0.000159171
9.54866e-06
3.13312e-06
-1.77083e-05
3.09555e-05
-4.54155e-05
7.45062e-05
-4.25085e-05
6.59483e-05
-3.31951e-06
-6.02401e-06
4.33456e-06
-8.12057e-06
-2.00154e-05
3.01225e-05
-4.55205e-05
3.44534e-05
-3.6975e-05
1.55396e-05
-3.04935e-05
-2.2892e-06
-2.4107e-05
-5.78247e-06
-2.35629e-05
-1.36866e-06
-2.62095e-05
2.95618e-06
-2.78304e-05
2.56925e-06
-2.29482e-05
6.46351e-06
-5.11982e-06
1.46426e-05
1.88339e-05
2.17303e-05
3.64613e-05
2.09112e-05
5.22632e-05
1.99579e-05
7.04796e-05
1.99334e-05
9.03591e-05
1.77637e-05
0.000112599
1.24506e-05
1.19637e-06
0.000135054
3.06851e-05
-2.7552e-05
1.0204e-05
5.14367e-05
-1.75654e-05
0.000102276
-1.45304e-05
6.29132e-05
-5.88332e-06
-1.4671e-05
-4.2616e-05
2.86122e-05
-6.76701e-05
5.51764e-05
-6.5706e-05
3.24893e-05
-5.71681e-05
7.00177e-06
-5.74121e-05
-2.04492e-06
-5.76265e-05
-5.56795e-06
-5.17109e-05
-7.28401e-06
-4.09736e-05
-7.78069e-06
-2.96069e-05
-8.79711e-06
-1.80793e-05
-5.06365e-06
-4.12118e-06
6.84926e-07
1.31576e-05
4.45191e-06
2.7883e-05
6.18608e-06
4.10903e-05
6.75064e-06
5.49225e-05
6.10113e-06
6.98924e-05
2.7938e-06
8.55261e-05
-3.18318e-06
-1.40723e-05
0.000100795
1.84282e-05
-4.59802e-05
1.50649e-05
5.48003e-05
-2.42725e-06
0.000119768
-3.73368e-06
6.42196e-05
-2.70243e-05
8.61976e-06
-7.00753e-05
7.16633e-05
-7.99387e-05
6.50398e-05
-7.73173e-05
2.9868e-05
-8.54321e-05
1.51168e-05
-9.69002e-05
9.42352e-06
-9.93574e-05
-3.11054e-06
-8.86233e-05
-1.80178e-05
-6.61435e-05
-3.02601e-05
-4.03732e-05
-3.4567e-05
-1.52756e-05
-3.01607e-05
5.81407e-06
-2.04044e-05
2.27058e-05
-1.24397e-05
3.49672e-05
-6.0753e-06
4.4326e-05
-2.6082e-06
5.29586e-05
-2.53143e-06
6.17411e-05
-5.98875e-06
7.13052e-05
-1.27472e-05
-2.34543e-05
8.06872e-05
7.9005e-06
-5.38807e-05
5.79894e-06
5.69019e-05
-3.24338e-06
0.00012881
-4.92706e-06
6.59034e-05
-4.37886e-05
4.74813e-05
-7.71074e-05
0.000104982
-8.70553e-05
7.4988e-05
-9.88204e-05
4.16332e-05
-0.00011769
3.3987e-05
-0.000128988
2.07215e-05
-0.000124025
-8.07346e-06
-0.000104079
-3.79637e-05
-7.46764e-05
-5.96624e-05
-4.11908e-05
-6.80524e-05
-8.81926e-06
-6.25321e-05
1.75596e-05
-4.67831e-05
3.6489e-05
-3.13692e-05
4.82235e-05
-1.78099e-05
5.46734e-05
-9.05825e-06
5.84951e-05
-6.3531e-06
6.15151e-05
-9.00876e-06
6.45972e-05
-1.58291e-05
-2.62615e-05
6.74047e-05
-1.82959e-06
-5.20512e-05
-9.71172e-06
6.47838e-05
-8.65607e-06
0.000127754
-1.03258e-05
6.75734e-05
-5.01115e-05
8.72669e-05
-7.81971e-05
0.000133068
-9.36843e-05
9.04754e-05
-0.000112779
6.07277e-05
-0.000128987
5.01951e-05
-0.00013129
2.30253e-05
-0.00012
-1.93633e-05
-9.83811e-05
-5.95827e-05
-6.78646e-05
-9.01787e-05
-3.21498e-05
-0.000103767
2.25883e-06
-9.69407e-05
3.07409e-05
-7.52653e-05
4.98766e-05
-5.0505e-05
6.03582e-05
-2.82916e-05
6.41845e-05
-1.28847e-05
6.40604e-05
-6.22897e-06
6.2076e-05
-7.02426e-06
5.95401e-05
-1.3293e-05
-2.33298e-05
5.66085e-05
-8.53438e-06
-4.35169e-05
-2.02526e-05
7.65018e-05
-1.25932e-05
0.000120095
-1.56681e-05
7.06486e-05
-5.04775e-05
0.000122076
-7.35137e-05
0.000156104
-8.99139e-05
0.000106876
-0.000105182
7.59963e-05
-0.000112023
5.70357e-05
-0.000107433
1.84354e-05
-9.48375e-05
-3.19588e-05
-7.60484e-05
-7.83718e-05
-4.92088e-05
-0.000117018
-1.71983e-05
-0.000135778
1.46288e-05
-0.000128768
4.19945e-05
-0.000102631
6.06333e-05
-6.91439e-05
6.93617e-05
-3.702e-05
7.0153e-05
-1.3676e-05
6.63106e-05
-2.38648e-06
6.04234e-05
-1.13704e-06
5.4096e-05
-6.96569e-06
-1.692e-05
4.76862e-05
-8.97534e-06
-3.45416e-05
-2.26785e-05
9.0205e-05
-1.13222e-05
0.000108739
-1.5803e-05
7.51294e-05
-4.03194e-05
0.000146593
-5.75412e-05
0.000173326
-7.05062e-05
0.000119841
-7.70084e-05
8.24987e-05
-7.43954e-05
5.44227e-05
-6.44144e-05
8.45446e-06
-5.25293e-05
-4.38438e-05
-3.9348e-05
-9.1553e-05
-1.9856e-05
-0.00013651
2.90888e-06
-0.000158543
2.61757e-05
-0.000152035
4.80713e-05
-0.000124527
6.39719e-05
-8.50446e-05
7.10568e-05
-4.41051e-05
6.97494e-05
-1.23687e-05
6.32959e-05
4.06695e-06
5.50149e-05
7.14387e-06
4.70965e-05
9.52578e-07
-9.79717e-06
3.99735e-05
-5.94674e-06
-2.85948e-05
-2.13377e-05
0.000105596
-7.34319e-06
9.47445e-05
-6.32387e-06
7.41101e-05
-1.7051e-05
0.00015732
-2.79177e-05
0.000184193
-3.70853e-05
0.000129009
-3.66009e-05
8.20145e-05
-2.66419e-05
4.4464e-05
-1.47472e-05
-3.44002e-06
-4.85381e-06
-5.3737e-05
2.21684e-06
-9.86235e-05
1.05725e-05
-0.000144866
2.11713e-05
-0.000169142
3.39078e-05
-0.000164771
4.7043e-05
-0.000137662
5.72522e-05
-9.52537e-05
6.15961e-05
-4.84491e-05
5.94197e-05
-1.01924e-05
5.27385e-05
1.0748e-05
4.47749e-05
1.51073e-05
3.76609e-05
8.06647e-06
-4.05835e-06
3.1922e-05
-5.24374e-06
-2.3351e-05
-1.72912e-05
0.000117644
-8.16737e-06
8.56206e-05
1.60649e-06
6.43363e-05
8.61297e-06
0.000150314
1.13964e-05
0.00018141
9.3275e-06
0.000131078
1.33436e-05
7.79985e-05
2.42496e-05
3.35582e-05
3.22644e-05
-1.14546e-05
3.47782e-05
-5.62505e-05
3.32043e-05
-9.70493e-05
3.14744e-05
-0.000143136
3.13258e-05
-0.000168993
3.29446e-05
-0.00016639
3.64413e-05
-0.000141159
3.98594e-05
-9.86719e-05
4.08629e-05
-4.94526e-05
3.87461e-05
-8.07556e-06
3.44429e-05
1.50511e-05
2.97299e-05
1.98202e-05
2.58148e-05
1.19816e-05
-1.04795e-06
2.28045e-05
-4.46695e-06
-1.8884e-05
-5.23616e-06
0.000118413
-9.35724e-06
8.97416e-05
-2.31488e-06
5.72939e-05
2.18091e-05
0.00012619
4.44407e-05
0.000158779
5.53175e-05
0.000120201
6.33425e-05
6.99734e-05
7.00269e-05
2.68738e-05
6.9815e-05
-1.12426e-05
6.17644e-05
-4.81997e-05
5.1735e-05
-8.70197e-05
4.16243e-05
-0.000133025
3.11725e-05
-0.000158541
2.25222e-05
-0.000157739
1.73004e-05
-0.000135937
1.42447e-05
-9.56162e-05
1.25764e-05
-4.77844e-05
1.18235e-05
-7.32264e-06
1.18772e-05
1.49974e-05
1.23869e-05
1.93106e-05
1.3202e-05
1.11666e-05
-1.49153e-06
1.36458e-05
-5.6137e-06
-1.32704e-05
1.4447e-05
9.8352e-05
1.30047e-06
0.000102888
-6.38538e-06
6.49797e-05
1.81824e-05
0.000101622
5.33849e-05
0.000123576
7.78383e-05
9.57478e-05
9.09549e-05
5.68567e-05
9.38078e-05
2.40208e-05
8.68035e-05
-4.23835e-06
7.12444e-05
-3.26405e-05
5.66519e-05
-7.24272e-05
4.14674e-05
-0.00011784
2.27811e-05
-0.000139855
6.40278e-06
-0.000141361
-6.25873e-06
-0.000123275
-1.36593e-05
-8.82156e-05
-1.5926e-05
-4.55176e-05
-1.3813e-05
-9.43562e-06
-9.22665e-06
1.04112e-05
-3.63577e-06
1.37198e-05
2.19194e-06
5.33897e-06
-5.03464e-06
5.73509e-06
-8.00075e-06
-5.2698e-06
2.4938e-05
6.54131e-05
2.46675e-05
0.000103158
6.64372e-06
8.30034e-05
1.68333e-05
9.14324e-05
4.74151e-05
9.29941e-05
7.58236e-05
6.7339e-05
9.22475e-05
4.04325e-05
9.38293e-05
2.24388e-05
8.32066e-05
6.38431e-06
6.66259e-05
-1.60598e-05
5.28133e-05
-5.86145e-05
3.51638e-05
-0.00010019
1.172e-05
-0.000116411
-8.8998e-06
-0.000120741
-2.50092e-05
-0.000107166
-3.53113e-05
-7.79135e-05
-3.78422e-05
-4.29867e-05
-3.32201e-05
-1.40577e-05
-2.44683e-05
1.65939e-06
-1.3821e-05
3.07252e-06
-5.00658e-06
-3.47556e-06
-9.70271e-06
-3.3865e-07
-9.04969e-06
3.77986e-06
1.87042e-05
3.76592e-05
3.91316e-05
8.2731e-05
2.87568e-05
9.3378e-05
2.6915e-05
9.3274e-05
4.46653e-05
7.52436e-05
7.10104e-05
4.09935e-05
8.66302e-05
2.48125e-05
8.52568e-05
2.38121e-05
7.14523e-05
2.01887e-05
5.76491e-05
-2.25659e-06
4.6652e-05
-4.76174e-05
2.79106e-05
-8.1449e-05
3.72129e-06
-9.22215e-05
-1.75962e-05
-9.94239e-05
-3.49659e-05
-8.97961e-05
-4.51392e-05
-6.77402e-05
-4.66382e-05
-4.14878e-05
-4.03301e-05
-2.03659e-05
-2.90438e-05
-9.62696e-06
-1.70388e-05
-8.93258e-06
-8.4946e-06
-1.20199e-05
-1.41746e-05
-4.02295e-06
-6.75344e-06
1.05333e-05
7.06943e-06
2.38364e-05
2.72854e-05
6.2515e-05
3.41716e-05
8.64918e-05
3.12362e-05
9.62092e-05
3.93836e-05
6.70961e-05
5.95915e-05
2.07854e-05
7.4401e-05
1.00029e-05
6.93931e-05
2.882e-05
5.57975e-05
3.37844e-05
4.87411e-05
4.79979e-06
4.10724e-05
-3.99487e-05
2.31924e-05
-6.3569e-05
1.40933e-06
-7.04385e-05
-1.79111e-05
-8.01036e-05
-3.36635e-05
-7.40439e-05
-4.22143e-05
-5.91895e-05
-4.25349e-05
-4.11673e-05
-3.57585e-05
-2.71423e-05
-2.52325e-05
-2.01531e-05
-1.56345e-05
-1.85307e-05
-9.54623e-06
-1.81083e-05
-1.78961e-05
-5.82485e-06
1.01007e-05
4.32573e-07
8.31303e-06
2.56242e-05
1.60953e-05
5.47327e-05
2.17958e-05
8.07911e-05
2.73624e-05
9.06426e-05
3.16222e-05
6.28363e-05
3.70233e-05
1.53843e-05
4.82326e-05
-1.20633e-06
4.63081e-05
3.07445e-05
4.06449e-05
3.94477e-05
4.16745e-05
3.77027e-06
3.65087e-05
-3.47828e-05
2.17723e-05
-4.88326e-05
4.59484e-06
-5.32612e-05
-1.12681e-05
-6.42407e-05
-2.39811e-05
-6.1331e-05
-3.0699e-05
-5.24717e-05
-3.07045e-05
-4.11618e-05
-2.5602e-05
-3.22448e-05
-1.86513e-05
-2.71038e-05
-1.30449e-05
-2.41371e-05
-9.24048e-06
-2.19129e-05
-2.07828e-05
-6.35397e-06
2.12897e-05
-2.08571e-05
2.82787e-05
1.86352e-05
1.93999e-05
6.36114e-05
2.06673e-05
7.95237e-05
2.76781e-05
8.36319e-05
3.26252e-05
5.78893e-05
3.32145e-05
1.47951e-05
3.3475e-05
-1.46678e-06
2.80298e-05
3.61898e-05
3.12094e-05
3.62681e-05
3.6803e-05
-1.82325e-06
3.2606e-05
-3.05859e-05
2.18727e-05
-3.80992e-05
9.91555e-06
-4.13042e-05
-2.25674e-06
-5.20685e-05
-1.19799e-05
-5.16079e-05
-1.75341e-05
-4.69175e-05
-1.83689e-05
-4.0327e-05
-1.61779e-05
-3.44359e-05
-1.31738e-05