/*--------------------------------*- C++ -*----------------------------------*\
| =========                 |                                                 |
| \\      /  F ield         | OpenFOAM: The Open Source CFD Toolbox           |
|  \\    /   O peration     | Version:  2.3.0                                 |
|   \\  /    A nd           | Web:      www.OpenFOAM.org                      |
|    \\/     M anipulation  |                                                 |
\*---------------------------------------------------------------------------*/
FoamFile
{
    version     2.0;
    format      ascii;
    class       volScalarField;
    location    "1.8e-05";
    object      alpha.fuel;
}
// * * * * * * * * * * * * * * * * * * * * * * * * * * * * * * * * * * * * * //

dimensions      [0 0 0 0 0 0 0];

internalField   nonuniform List<scalar> 
7500
(
1
1
1
1
1
1
1
1
1
1
1
1
1
1
1
1
1
1
1
1
1
1
1
1
1
1
1
1
1
1
1
1
1
1
1
1
1
1
1
1
1
1
1
1
1
1
1
1
1
1
1
1
1
1
1
1
1
1
1
1
1
1
1
1
1
1
1
1
1
1
1
1
1
1
1
1
1
1
1
1
1
1
1
1
1
1
1
1
1
1
1
1
1
1
1
1
1
1
1
1
1
1
1
1
1
1
1
1
1
1
1
1
1
1
1
1
1
1
1
1
1
1
1
1
1
1
1
1
1
1
1
1
1
1
1
1
1
1
1
1
1
1
1
1
1
1
1
1
1
1
1
1
1
1
1
1
1
1
1
1
1
1
1
1
1
1
1
1
1
1
1
1
1
1
1
1
1
1
1
1
1
1
1
1
1
1
1
1
1
1
1
1
1
1
1
1
1
1
1
1
1
1
1
1
1
1
1
1
1
1
1
1
1
1
1
1
1
1
1
1
1
1
1
1
1
1
1
1
1
1
1
1
1
1
1
1
1
1
1
1
1
1
1
1
1
1
1
1
1
1
1
1
1
1
1
1
1
1
1
1
1
1
1
1
1
1
1
1
1
1
1
1
1
1
1
1
1
1
1
1
1
1
1
1
1
1
1
1
1
1
1
1
1
1
1
1
1
1
1
1
1
1
1
1
1
1
1
1
1
1
1
1
1
1
1
1
1
1
1
1
1
1
1
1
1
1
1
1
1
1
1
1
1
1
1
1
1
1
1
1
1
1
1
1
1
1
1
1
1
1
1
1
1
1
1
1
1
1
1
1
1
1
1
1
1
1
1
1
1
1
1
1
1
1
1
1
1
1
1
1
1
1
1
1
1
1
1
1
1
1
1
1
1
1
1
1
1
1
1
1
1
1
1
1
1
1
1
1
1
1
1
1
1
1
1
1
1
1
1
1
1
1
1
1
1
1
1
1
1
1
1
1
1
1
1
1
1
1
1
1
1
1
1
1
1
1
1
1
1
1
1
1
1
1
1
1
1
1
1
1
1
1
1
1
1
1
1
1
1
1
1
1
1
1
1
1
1
1
1
1
1
1
1
1
1
1
1
1
1
1
1
1
1
1
1
1
1
1
1
1
1
1
1
1
1
1
1
1
1
1
1
1
1
1
1
1
1
1
1
1
1
1
1
1
1
1
1
1
1
1
1
1
1
1
1
1
1
1
1
1
1
1
1
1
1
1
1
1
1
1
1
1
1
1
1
1
1
1
1
1
1
1
1
1
1
1
1
1
1
1
1
1
1
1
1
1
1
1
1
1
1
1
1
1
1
1
1
1
1
1
1
1
1
1
1
1
1
1
1
1
1
1
1
1
1
1
1
1
1
1
1
1
1
1
1
1
1
1
1
1
1
1
1
1
1
1
1
1
1
1
1
1
1
1
1
1
1
1
1
1
1
1
1
1
1
1
1
1
1
1
1
1
1
1
1
1
1
1
1
1
1
1
1
1
1
1
1
1
1
1
1
1
1
1
1
1
1
1
1
1
1
1
1
1
1
1
1
1
1
1
1
1
1
1
1
1
1
1
1
1
1
1
1
1
1
1
1
1
1
1
1
1
1
1
1
1
1
1
1
1
1
1
1
1
1
1
1
1
1
1
1
1
1
1
1
1
1
1
1
1
1
1
1
0.99926608
0.99610992
0.99109862
0.98327987
0.97237648
0.95953668
0.93820737
1
1
1
1
1
1
1
1
1
1
1
1
1
1
1
1
1
1
1
1
1
1
1
1
1
1
1
1
1
1
1
1
1
1
1
1
1
1
1
1
1
1
1
1
1
1
1
1
1
1
1
1
0.99945779
0.9942096
0.98321527
0.96496687
0.94240231
0.91524691
0.88502217
0.83651365
0.78269837
0.72819426
0.66977867
0.60883566
0.54839911
0.48694678
0.42728357
0.37316312
0.32386533
0.27771564
0.23257011
0.18899198
0.1470611
0.1129623
0.069181355
1
1
1
1
1
1
1
1
1
1
1
1
1
1
1
1
1
1
1
1
1
1
1
1
1
1
1
1
1
1
1
1
1
1
1
1
1
1
1
1
1
1
0.99256467
0.97485725
0.94509061
0.90531076
0.82586849
0.74238471
0.65630874
0.57710057
0.49464664
0.4202411
0.3335537
0.26219948
0.19026617
0.12557527
0.077151287
0.034371703
8.8311005e-10
3.6404571e-10
3.6404569e-10
3.6404569e-10
3.6404569e-10
3.6404568e-10
3.6404568e-10
3.6404568e-10
3.6404568e-10
3.6404567e-10
3.6404567e-10
3.6404567e-10
3.6404567e-10
3.6406455e-10
3.6405991e-10
3.6405116e-10
3.6405116e-10
1
1
1
1
1
1
1
1
1
1
1
1
1
1
1
1
1
1
1
1
1
1
1
1
1
1
1
1
1
1
1
1
1
1
0.98847322
0.96119608
0.91273143
0.81708857
0.69938056
0.58692722
0.47649613
0.3630314
0.25569851
0.15924525
0.084579055
1.623439e-09
7.5544368e-10
7.5544366e-10
7.5544366e-10
7.5544367e-10
7.5544368e-10
7.5544368e-10
7.5544369e-10
7.5544369e-10
7.554437e-10
7.5544375e-10
7.5544377e-10
7.5544392e-10
1.1685928e-09
1.5228154e-09
1.7383464e-09
1.7147874e-09
1.7421883e-09
2.768183e-09
2.8947416e-09
7.5398929e-10
8.4428979e-10
1.0598257e-09
7.3598133e-10
6.8297108e-10
3.8938985e-10
2.8330999e-06
2.6402637e-06
6.7702643e-10
6.5016461e-10
1
1
1
1
1
1
1
1
1
1
1
1
1
1
1
1
1
1
1
1
1
1
1
1
1
1
1
1
0.98240313
0.9274925
0.82170764
0.67482284
0.52507825
0.37605571
0.23405653
0.1271221
0.00071044761
3.1373882e-09
3.1257043e-09
3.1257043e-09
3.1257043e-09
3.1257043e-09
3.1257043e-09
3.125705e-09
3.1257053e-09
3.897669e-09
6.4325396e-09
7.0278244e-09
8.2070207e-09
8.269393e-09
9.0968341e-09
8.9170383e-09
8.210133e-09
7.4088907e-09
6.9131627e-09
8.7589597e-09
9.6939469e-09
1.0099454e-08
1.0829734e-08
9.5890695e-09
8.0333527e-09
2.6471934e-09
2.0890707e-09
2.0850438e-08
2.4125351e-07
2.3228167e-06
9.6510418e-07
1.6480977e-09
2.3846426e-06
2.4314347e-06
1.2166967e-06
1.6153269e-09
0.00022862223
0.00055160536
1.9122469e-05
1
1
1
1
1
1
1
1
1
1
1
1
1
1
1
1
1
1
1
1
1
1
1
0.97654428
0.89947448
0.73633243
0.55333602
0.3580721
0.20272212
0.026425227
3.9298386e-09
3.6297972e-09
3.6297972e-09
3.6297972e-09
3.6297972e-09
3.6297972e-09
3.6298046e-09
4.9585112e-09
5.3140185e-09
5.0292568e-09
5.097512e-09
4.0722569e-09
9.0579664e-09
1.7847598e-07
2.703335e-08
2.7249918e-08
2.5511138e-08
2.4147395e-08
1.9995206e-08
1.4340822e-08
1.6990685e-08
8.6653978e-09
8.2135695e-09
7.7712326e-09
1.158167e-08
8.2317524e-09
1.0861539e-08
1.4360169e-08
1.6746984e-08
1.5289079e-08
4.8876713e-09
1.394244e-06
1.2534298e-06
3.5601058e-09
7.1376127e-06
8.36968e-06
1.4892392e-06
1.7269158e-09
7.2981133e-06
3.4347617e-05
2.1388445e-05
1.6114706e-09
1.2217208e-09
0.006732543
0.022901026
1
1
1
1
1
1
1
1
1
1
1
1
1
1
1
1
1
1
1
0.96497572
0.84804563
0.6425124
0.40899743
0.19343346
4.9648864e-09
3.7402535e-09
3.7402535e-09
3.7412586e-09
3.742564e-09
3.7508973e-09
4.3473609e-09
4.4232319e-09
6.499091e-09
4.3606701e-09
3.6425166e-09
4.4158821e-09
1.1399085e-08
2.0875491e-08
1.104006e-08
5.5053934e-09
5.5757215e-09
4.9007221e-07
8.8305299e-07
1.004959e-08
1.0318536e-08
9.889175e-09
9.7194018e-09
9.1853112e-09
8.711597e-09
8.3277169e-09
7.4693334e-09
0.014604888
0.014377075
0.0011332975
4.3529491e-09
3.7576304e-09
8.0895407e-09
3.696177e-08
1.9023009e-08
3.030132e-08
4.3538204e-09
1.2220994e-05
8.1497519e-06
3.53493e-09
1.7335417e-08
2.2845918e-09
2.4074462e-09
2.0302476e-09
3.9842758e-07
1.1421761e-05
1.8172549e-06
1.2576265e-09
1.2547458e-09
1.2214979e-09
0.024715335
1
1
1
1
1
1
1
1
1
1
1
1
1
1
1
1
0.92105812
0.72059055
0.45710313
0.16125339
4.8070324e-09
3.7865629e-09
3.7865628e-09
3.7865628e-09
3.8636707e-09
4.0370367e-09
4.8697342e-09
0.00023961238
0.00023707844
0.00013123188
1.5015749e-05
5.0797149e-09
2.3002253e-08
2.6811698e-06
8.7634986e-06
6.2916043e-06
9.5285495e-07
1.0614104e-08
9.9349434e-09
4.1670343e-05
6.7088961e-05
2.0834688e-05
8.0653413e-09
0.0022049102
0.0063435739
9.9872394e-09
0.03859051
0.028482381
0.0027630834
8.1156475e-09
7.4693327e-09
0.036781223
0.036784564
0.015512241
2.2864906e-05
2.144156e-09
1.6977075e-09
8.3910049e-09
5.3603578e-09
4.9396945e-09
4.5960504e-09
7.2860778e-07
2.9194368e-09
3.1339443e-09
2.9098827e-09
2.6133778e-09
0.0022420222
0.0011277893
1.4972607e-08
8.1460388e-06
0.00071187713
0.00051807989
1.6013701e-09
1.2543154e-09
1.2221639e-09
1
1
1
1
1
1
1
1
1
1
1
1
1
0.93030297
0.71683083
0.40607205
0.046965025
4.2302784e-09
3.8295183e-09
3.8295183e-09
4.6072851e-09
1.6477373e-08
4.5791983e-09
4.5688228e-09
4.3922528e-09
5.0853844e-09
0.0027736771
0.0027731182
0.0021706653
2.4282504e-06
0.00042250503
0.00096193596
2.3336728e-08
5.3358473e-06
7.4892636e-06
8.9933402e-06
1.5981902e-06
1.0275098e-08
1.0306438e-08
0.00046156973
0.00046179484
0.00029960263
7.5855884e-09
0.019195106
0.041325382
0.070421253
0.070498242
0.070498242
0.03367456
8.6902015e-09
0.010389572
0.036784564
0.036784565
0.029352675
1.189023e-08
0.0041256293
0.00056691382
7.4028053e-09
0.0050957203
1.1712124e-05
4.4345524e-09
6.5986632e-07
2.9592653e-09
0.00011996366
0.00079823644
0.0021043951
0.0036899703
0.0036899703
0.0012583632
1.0277733e-08
1.022202e-08
6.9185468e-06
3.7268629e-06
1.5461604e-09
1.6240018e-09
1
1
1
1
1
1
1
1
1
1
1
0.869777
0.54905196
0.10433098
4.7960816e-09
4.0713001e-09
4.0959455e-09
4.979818e-09
4.8514305e-09
4.8843205e-09
5.4774595e-06
7.639462e-06
1.9338386e-05
0.00054779251
4.0539985e-09
0.001067662
0.0032844883
7.5134663e-09
8.1705308e-09
0.00092739816
0.0030860968
0.0028434318
0.00069334487
5.0115477e-09
5.5057208e-09
5.8471622e-09
1.9447629e-06
9.7607049e-09
0.00015849279
0.00010546205
0.0001555028
3.4404609e-08
0.016212544
0.00095969539
2.2557132e-07
0.0024443641
0.033025769
0.070498242
0.045839238
9.031799e-09
0.0011627527
0.028810953
0.036784565
0.018881025
0.0031559415
0.0066043818
0.00080497201
6.9069907e-09
0.016117886
0.012261638
0.00024847232
3.2163499e-09
3.0026415e-09
0.0022236155
0.0033905184
0.0033805346
0.00095838529
0.0016764517
0.0028799048
0.00082339936
0.0010398519
1.8607901e-09
1.6962983e-09
1.7389852e-09
7.272445e-09
1
1
1
1
1
1
1
1
1
0.84858514
0.46006087
0.0069012151
4.4087587e-09
4.3376287e-09
1.7175512e-07
2.8950255e-05
0.00093439225
0.00046520829
0.0026701551
0.0018986853
0.0012172702
4.9254831e-09
0.0016258175
0.0023078622
3.4197922e-09
3.4197901e-09
0.0016631982
7.5181781e-09
8.0821645e-09
0.0004389149
3.8742106e-09
3.8742107e-09
3.2086472e-05
5.6111636e-09
0.00059497196
3.7365598e-06
4.5998753e-09
9.6018865e-05
4.5855474e-09
4.3181285e-09
4.4398333e-09
0.0024035729
0.012047036
0.0030713992
0.0041527017
2.3438245e-07
2.3457325e-07
0.044937748
0.068261558
0.048318858
0.00014060991
0.0029973891
0.0024539823
2.1630312e-09
0.000282763
3.1314883e-06
0.0029531818
0.00046086552
0.016122381
0.016122381
0.0010554569
2.2974214e-05
0.00054646395
9.9148523e-10
8.1929873e-10
8.1929864e-10
8.4512239e-10
8.1930905e-10
0.00012821195
1.1984056e-09
0.0012403766
0.0082962839
0.0057684882
0.00017243211
7.5618619e-09
1
1
1
1
1
1
1
0.89373317
0.5126632
0.0095796571
4.7267468e-09
4.6225078e-09
5.0131866e-09
5.610112e-09
5.7377465e-09
0.0063131916
0.0090173952
0.0079832189
0.006777076
0.0036726319
4.7382346e-09
5.1500583e-09
5.2684762e-09
0.0016439173
4.4237867e-09
4.1200474e-09
4.9156484e-09
3.0214446e-06
8.8828885e-06
5.1893958e-09
4.48322e-09
4.40441e-09
4.4248711e-09
0.001767831
0.0080125444
5.9801697e-06
5.0206137e-09
3.1301835e-06
5.9744075e-06
4.3836144e-09
0.00047890607
0.00027473035
0.00026589433
0.00026589407
0.067682961
0.068763335
0.037905631
0.0037230921
0.031974539
0.020656252
0.0028435573
0.0047002979
0.00041643257
2.1538244e-09
0.0046955227
3.2735179e-06
0.00049993653
0.001843702
0.016122382
0.014396768
0.014917232
0.00034583161
1.3039356e-09
1.2003657e-09
1.2851534e-09
1.0594898e-09
5.8356334e-05
2.7130084e-07
1.4231999e-09
1.0149916e-09
8.383876e-10
0.012114956
0.012878872
0.009164371
0.00055249798
1
1
1
1
1
1
0.73702172
0.10680212
7.4856397e-09
6.6970388e-09
6.68429e-09
6.8207506e-09
6.2424895e-09
0.001956775
0.00051716677
4.2831327e-09
0.0090167916
0.0012283509
0.0005350339
5.7824058e-09
5.6255489e-09
6.002419e-09
5.5359376e-06
0.00045854841
0.0064243518
0.0024012082
1.1217176e-05
2.1586486e-06
9.2103121e-05
5.2410742e-09
0.001752668
2.4600199e-05
0.0016538791
0.0047030295
0.0080125442
0.0042050151
0.00033339422
6.2170321e-09
2.6000167e-05
1.0962667e-05
4.4075816e-09
4.41317e-09
0.013633561
0.0026568455
2.8604833e-08
0.032308202
0.039903802
0.0060509849
4.7794618e-09
5.1478093e-09
0.0019168046
0.0041413415
0.0011552572
2.1280144e-09
0.00023564166
0.0089574807
0.010970834
0.016118506
0.0023245798
1.6500472e-09
0.00088267117
0.00019820144
1.3743962e-09
4.3037797e-08
1.2888855e-09
7.5145036e-05
0.00050985986
0.00045817752
6.2793929e-05
1.1033386e-09
8.1886973e-10
0.0021922545
0.012878872
0.012878872
0.0029910419
1
1
1
1
0.96889241
0.4775708
1.2138601e-08
9.8797515e-09
2.013367e-07
8.1807786e-05
0.00048104744
0.00030938487
0.0004662055
0.004603021
0.0032291852
4.2677804e-09
0.0087051828
8.4386559e-08
8.5640066e-08
0.00043139183
0.0026547426
0.0017475472
5.9158159e-06
0.00095361331
0.0084321455
0.0084829913
6.1961394e-08
4.8330205e-09
4.5513318e-09
0.0045964774
0.0057345287
0.00037416125
0.00057815973
0.00039505751
0.0059452486
0.0069959985
0.00535693
5.4746611e-09
8.1300853e-07
4.4658675e-09
4.3841985e-09
4.4054775e-09
0.008371763
0.001975178
0.0084586057
0.0019096688
0.0095489989
0.00027407833
4.3703948e-09
0.00014267333
0.00022202792
1.2078551e-09
1.642554e-09
1.8196837e-09
1.4003332e-09
0.017977622
0.011598478
0.016118506
0.0011478521
1.6114948e-09
1.3432649e-09
1.1214147e-09
1.0412896e-09
4.25353e-06
1.3785199e-09
0.0004587374
0.00042040243
0.00047613182
0.00018709684
9.4137949e-10
8.1886964e-10
1.0270075e-09
0.0022203475
0.00014490868
1.4881003e-09
1
1
1
0.95554471
0.26533098
1.5206496e-08
1.3597098e-08
1.1623249e-08
0.00025422902
0.00059811594
0.00059768445
8.8720693e-09
0.0013771523
0.0046029527
3.1137251e-09
3.1141606e-09
0.00030539007
6.1301086e-05
8.5732185e-08
0.003256935
0.0069347646
0.0045778234
6.2959247e-06
0.0014806346
6.0846103e-07
0.0038661318
0.0062591106
4.5502711e-09
4.5513299e-09
9.8202301e-05
0.0013094798
4.6171117e-09
4.6970844e-09
0.00013867141
9.7331281e-09
9.4284207e-05
5.0714941e-09
4.8181858e-09
5.2549175e-09
6.4415695e-07
6.3964726e-07
0.00010747283
4.8951653e-08
0.0041690519
0.024465544
0.0056417116
0.0055286444
0.012219516
0.010262134
0.0090833806
1.1719759e-09
6.9584485e-10
0.0025492805
0.0081451247
1.6205302e-09
0.016128947
0.0022471203
0.0064391799
0.00086412069
1.6585761e-09
1.3443353e-09
1.7972271e-05
1.3145736e-09
1.5403579e-09
0.00011175149
1.0072697e-09
9.5542756e-10
9.5542665e-10
9.8096412e-10
0.00033332935
0.00082975453
0.00039815288
1.4450532e-09
1.2495798e-09
1.4538668e-09
1
1
0.98652659
0.24815512
1.7218944e-08
1.5216007e-08
1.6590526e-05
0.00011665178
7.9853176e-09
7.5157423e-09
7.4070357e-09
8.5927228e-09
8.7457946e-09
0.00092495019
4.5665644e-09
4.2368292e-09
5.2315033e-09
0.00016492718
0.00010062313
0.0028986224
0.0078207524
0.00016974605
0.0039285799
0.0017950062
6.0845958e-07
6.0848163e-07
0.0038109864
4.5502745e-09
4.8910514e-09
4.3269223e-09
4.3388968e-09
4.6078128e-09
4.1406315e-09
0.0075169069
0.0008248083
0.016620633
0.0037512483
5.3586461e-09
8.2671571e-05
2.8154553e-06
4.373611e-09
0.0068241609
4.868011e-08
0.019587049
0.0031938984
0.001764115
0.0091602914
0.015523862
0.015523862
0.00039514267
9.6002086e-10
6.9584412e-10
0.0059921579
0.01004158
0.0096499151
0.00075702577
0.0020703271
1.9882821e-09
1.6802377e-09
0.0039751095
0.00069762637
3.6288898e-05
0.0074595338
0.0040035348
1.4242355e-09
1.0712018e-09
1.9749049e-09
9.554787e-10
3.1912556e-05
3.8536627e-05
0.00030543558
0.00020399695
1.9558168e-05
1.3293769e-09
0.00023001423
1
1
0.31492417
2.2488962e-08
1.9958007e-08
1.5220639e-08
5.7694383e-05
1.8161795e-08
3.1595895e-06
3.1256967e-05
7.5634748e-09
2.3132604e-05
0.00020072784
1.1370481e-07
0.00019017539
4.0971889e-06
3.1623651e-06
6.5439367e-09
0.00033341048
0.0083681759
0.0078279471
0.0011468474
0.0073804434
0.0021840012
6.0847705e-07
8.9329112e-06
5.3578383e-07
0.00010184092
0.00033465389
3.8091375e-09
3.7980041e-09
2.3452464e-06
4.1444005e-09
0.0045672123
0.0012948357
0.02581162
0.02581162
0.00065371731
0.00028370929
4.3321818e-08
0.00061740527
1.9086755e-08
0.013229484
0.0026743784
1.8523036e-09
0.024732518
0.0092071292
0.0085765428
0.008486515
0.0064407616
0.00056571962
0.00052862253
2.5708395e-09
2.4686799e-09
0.017526498
0.00095119386
0.0065588323
0.00050980057
1.769315e-09
0.0061665215
0.0050524694
0.00092532901
0.013451245
0.013451245
0.0020626563
1.3843909e-09
4.5792055e-09
2.9556101e-09
9.9380495e-10
1.0209504e-09
1.2088808e-09
1.2877584e-09
1.5597362e-06
1.1748558e-09
0.00051575166
1
0.64563376
0.024837971
0.00027507741
1.9983388e-08
1.798686e-08
1.7697107e-08
1.7784738e-08
0.00010153239
0.00014319275
7.4898034e-09
0.00015442944
2.5738578e-05
8.4423013e-06
0.00028564218
1.6354562e-05
9.1153163e-09
7.5085003e-09
5.5893134e-08
0.0083681762
0.0026265398
0.0047929251
0.002975497
0.0068332019
6.0864451e-07
6.093463e-07
7.7694194e-05
0.0020888273
0.0020663999
0.0020605864
0.00035976461
0.00024845978
4.8206731e-09
5.4249504e-09
5.4259558e-09
0.009947809
0.0011073567
0.0016445305
3.9833141e-08
0.00056103413
3.5850566e-05
1.9604179e-08
0.0048522686
0.001737407
1.7490045e-09
0.023386709
0.0041688463
1.068965e-09
5.3208103e-06
0.010082739
0.0032254903
0.00068562183
0.00010360685
2.5013825e-09
0.009602245
0.00092278798
0.0049201145
0.00021675009
0.00022126814
4.2567037e-10
4.2158151e-10
0.008718907
0.0064926583
0.013451245
0.0098895357
1.6631073e-09
1.822264e-09
9.6168373e-09
9.9383225e-10
0.00044593512
1.2230096e-09
0.001008092
1.9171941e-09
9.4234635e-06
0.00023936494
0.970207
0.080927204
7.1995092e-08
6.8763781e-08
8.0511962e-05
2.8624562e-05
1.7757309e-08
7.902385e-08
7.4697593e-09
7.4679603e-09
7.5077986e-09
0.00011900452
2.7545994e-05
2.1787803e-05
0.00017165123
6.4249853e-05
1.0194779e-08
0.0013022797
6.3886228e-09
0.0023936788
6.1139521e-09
5.7642709e-09
5.7657202e-09
5.7786959e-09
4.9754863e-05
0.00051300472
2.8795751e-05
3.9279013e-05
2.6658892e-07
0.00017149524
7.6338826e-05
5.3301487e-09
5.2978813e-09
5.2984797e-09
5.980131e-09
3.9024364e-09
3.9024363e-09
0.00070197967
5.5928986e-05
0.00062740617
6.4828847e-07
0.0015212138
2.0128324e-09
1.5029736e-09
1.50273e-09
1.2084974e-09
6.8622851e-10
6.8591938e-10
6.8616963e-10
0.010063296
0.010082738
0.0081921215
3.1549088e-09
2.7498887e-09
3.0370049e-09
3.4025834e-09
3.3729495e-09
0.010190664
0.0028424741
6.448582e-10
4.2158278e-10
0.0011196344
2.693175e-10
0.0098555057
0.013451247
0.0074975381
2.7995799e-05
3.1137866e-07
9.5008213e-08
1.1284291e-09
0.0094673254
0.012423166
0.012402111
0.001365842
4.843075e-09
0.32202739
8.1115064e-08
7.702839e-08
2.4540454e-07
9.0630772e-09
3.5414022e-05
3.1388038e-08
9.142906e-08
1.1304289e-07
4.0841965e-08
2.096777e-08
6.7759275e-09
8.1746205e-07
2.190565e-05
4.9008978e-09
0.00013728418
0.000247057
0.004167437
3.2562817e-08
6.0454668e-09
5.2541868e-09
5.9461462e-09
1.6301866e-06
2.9817801e-05
0.00092797191
0.0014842989
2.4703912e-07
0.00092660672
6.8497111e-05
4.5429596e-09
4.6776159e-09
1.9399993e-06
0.0014705667
0.00017618373
4.4497546e-09
4.4440666e-09
3.9024438e-09
0.004247024
0.0009548349
4.5221759e-05
5.5341264e-05
0.0015704089
0.0015662679
1.9257714e-09
0.0023854106
1.3940762e-09
1.5842566e-06
6.8748587e-10
0.00081228297
0.0056547387
0.0098531545
0.0023150244
5.2640613e-05
0.0041670558
0.00049578643
0.013010191
3.786669e-09
0.0022384474
0.00074276916
8.160102e-10
5.7201229e-10
3.6452443e-10
2.5954385e-10
1.8710072e-10
0.012831178
0.013451248
0.0053779552
3.4392064e-07
4.3454573e-07
1.1146539e-09
0.0011963748
0.0078950997
0.0048761782
0.00029739648
4.8748017e-09
0.10227737
8.603596e-08
1.1347983e-05
6.8928546e-06
8.104987e-09
8.1023098e-09
5.0163979e-08
1.0815909e-07
1.140982e-07
1.4768884e-07
2.9300999e-08
8.8183896e-09
7.4542046e-09
1.3594906e-05
5.9931286e-09
6.2415727e-09
6.9887161e-05
0.0031459743
0.0014202724
5.1514018e-09
5.1404654e-09
7.846449e-09
4.4458506e-09
4.4458142e-09
4.4457849e-09
4.8018533e-09
0.001503605
0.0032799937
0.00015505359
4.0530913e-09
0.00040747062
3.4623868e-08
0.006701121
5.8956531e-05
0.014708207
0.0031720633
4.5207913e-09
0.0020182494
0.00029556063
3.399669e-09
0.0037388162
3.4673175e-09
3.3556877e-09
0.0037086605
0.032957945
0.0046608039
1.3299832e-09
9.5036632e-10
0.00015765767
5.7632934e-05
0.0021026231
1.5601923e-09
1.2231915e-09
0.017039889
0.01706431
0.01706431
0.0038788806
1.2912469e-08
0.0070884082
0.0040365069
0.0032689928
0.00060107372
4.2646851e-10
1.8710625e-10
0.0022777863
0.0015799656
0.0053102385
0.0017412647
2.3591671e-07
2.3176345e-07
8.8141043e-10
9.2796768e-10
8.9507383e-10
4.0066343e-06
3.9797615e-06
4.4250285e-09
1.4484284e-05
2.3413876e-05
6.7465141e-09
2.0830853e-08
3.0281878e-08
6.9531162e-08
1.2027543e-07
1.7975455e-06
2.3983077e-07
2.4109664e-08
1.127648e-08
0.00017399094
2.3052741e-06
9.1809699e-09
1.4051632e-05
2.955027e-07
2.9529611e-07
0.0035118074
0.0034990737
2.8856946e-09
3.7958778e-09
4.4711803e-09
4.7787136e-09
5.0542269e-09
9.2305155e-07
5.6058668e-06
0.0006913557
3.8516145e-09
3.855645e-09
0.00011273203
1.0067856e-05
1.7945175e-09
0.016857357
0.025983438
0.0061780922
4.9557899e-09
5.2610867e-09
2.1334769e-05
3.1960635e-09
0.0021381586
4.005363e-09
3.5775542e-09
0.024919383
0.032957944
0.0062038496
1.6802596e-09
0.00098434142
0.00080431599
5.7633348e-05
5.763338e-05
0.0055796308
0.00044138293
0.00099965017
0.01706431
0.010998872
0.010981158
0.009118686
0.0098891694
0.0098574394
0.0098605637
0.00128349
6.1951683e-10
2.4008974e-09
1.8652939e-10
1.8652906e-10
1.8652903e-10
0.0026293855
0.00047755504
9.3184533e-10
7.375212e-10
7.3714851e-10
7.3668125e-10
3.3572059e-05
0.00010842572
7.2943273e-07
2.4013907e-05
2.3413426e-08
2.3235002e-08
2.4180133e-08
3.3589892e-08
7.8268524e-08
7.9857598e-08
8.0092747e-08
2.3135572e-05
1.3845438e-08
1.251111e-08
0.00051841
4.3853559e-06
6.3796387e-09
1.9073685e-05
0.0009123587
1.1734398e-05
1.4310481e-08
0.0015985687
6.1891108e-06
2.899495e-05
0.00032234109
5.4260909e-09
0.00085208647
4.7343808e-09
3.8216938e-09
3.8085779e-09
3.2981486e-09
4.5351387e-08
2.2553206e-09
1.7868622e-09
1.7943726e-09
0.00032658414
0.0067403436
5.5615537e-09
5.4276549e-09
0.0011929244
0.00050941614
3.0751325e-09
2.4653625e-09
0.027914577
0.0094807358
2.3021511e-08
0.020484575
0.002349831
0.018463518
0.0097857857
0.0005709443
5.763342e-05
0.0054661259
0.008524874
0.0021038154
0.0001800277
0.017064283
2.270582e-10
2.2696325e-10
0.0025551695
2.8890658e-10
2.2464851e-10
1.9766118e-10
2.0024064e-10
4.2033394e-09
4.6602972e-09
5.5020424e-10
3.3843463e-10
1.8662252e-10
0.002383418
0.0012873338
1.1382665e-09
1.9802714e-07
9.7893003e-08
8.384755e-10
6.9256484e-10
9.1697356e-05
1.9157817e-08
1.9423182e-08
1.3640958e-06
2.5864516e-08
2.6020729e-08
2.760484e-08
6.8321909e-08
2.713157e-06
8.1825594e-08
2.3122887e-05
4.1960748e-06
3.8363376e-06
0.00051840913
1.0076686e-05
6.3475783e-09
4.8601215e-09
0.001596367
0.0014197374
4.2961092e-06
2.6670047e-09
3.795812e-07
5.3242144e-05
0.0013940379
0.0013974988
0.0076279156
0.0045875082
3.3273518e-09
3.2938098e-09
3.2940919e-09
2.7725821e-09
2.2231925e-09
2.1646229e-09
3.5492002e-07
6.6584384e-09
6.3105803e-09
5.9206487e-09
0.013673686
0.0064532878
0.00058286946
2.5137326e-09
2.1978678e-09
0.030381993
0.030294465
0.0017501481
1.1633861e-08
0.032346824
0.032389458
0.029102154
0.0005487705
5.7633426e-05
0.0083139406
0.0013355436
0.0020524123
0.0010486866
0.0045230796
2.4313253e-06
2.2166128e-10
2.545699e-10
3.0716555e-05
0.00049527242
5.8421355e-05
7.9972706e-06
9.186421e-09
8.4775543e-08
7.8461706e-10
1.4148363e-05
1.507454e-07
2.2397418e-10
0.0013642854
0.00015179242
1.0102701e-09
2.1750827e-07
5.2891039e-08
6.8539395e-10
5.4745653e-10
2.3043786e-08
8.292129e-07
6.4723865e-06
6.3119127e-06
3.6052043e-06
4.7283201e-06
7.0816158e-08
1.9022958e-05
8.0303614e-06
2.4834891e-08
0.00010781184
0.00018883038
0.00023954238
4.6766191e-08
5.1081971e-08
6.1436106e-09
0.00077443319
0.0014157512
1.4744349e-09
1.4744137e-09
1.4743769e-09
1.4738656e-09
1.4738617e-09
0.0057345178
0.007091977
0.0076469461
0.0076303014
0.0055294523
0.0019476034
0.0027097852
2.4270204e-09
5.3187273e-05
0.002663583
6.8671321e-09
0.00015915051
0.00034139497
0.021515836
0.0014134374
0.0046556079
0.008671752
2.3127744e-09
0.0035950598
1.1654586e-08
1.1627624e-08
1.1613922e-08
0.011814823
5.7633907e-05
5.7633779e-05
5.7634006e-05
5.7633646e-05
0.0030835078
0.00015386877
3.1204116e-06
3.3305193e-07
4.7365815e-10
4.8876183e-08
2.219814e-10
6.5951631e-05
3.0568648e-05
0.0014004061
0.00087514235
0.00032952356
3.7812192e-10
1.8661653e-10
0.00045341569
0.00013554629
3.9562458e-10
2.2397186e-10
0.00076048763
0.00024138392
8.7249344e-10
5.0932012e-08
1.0933023e-08
1.9959025e-09
2.4185393e-08
0.00011034705
1.0052202e-07
6.0042299e-06
1.8185727e-05
1.6344969e-05
5.0987923e-05
0.001765242
1.5432658e-05
1.6846314e-05
2.6263278e-07
1.7979662e-07
0.00018743461
0.00011524877
6.2886266e-05
1.7716246e-07
9.5599506e-05
7.5417494e-07
0.0013972387
2.6765386e-09
0.00011229848
0.00080150858
1.5765137e-09
2.1481099e-09
1.4842055e-09
1.474096e-09
0.00017267507
0.00099025098
0.00024110798
0.0052898609
0.0053218667
0.0053383015
0.0052279743
0.0024687118
0.0011891342
0.0017078689
0.0024122869
0.021515806
8.4327484e-09
8.2207837e-09
0.044663175
0.044933919
0.0019241259
1.1901515e-08
1.4368506e-05
1.184891e-08
1.2158274e-08
0.00010237861
0.00077416073
0.01472127
0.0051366158
6.1997757e-10
3.6077925e-10
3.6191628e-10
4.1532197e-10
1.8020132e-10
1.8182334e-10
3.3713451e-10
1.8005448e-10
4.0710498e-10
0.00035053736
0.0013829577
9.2541952e-05
5.3311478e-10
2.9203834e-10
0.0005574949
6.2561466e-08
5.7518856e-10
3.5791296e-10
0.00017746614
8.2107139e-10
7.0645987e-10
1.3912254e-07
1.9969173e-08
8.9981695e-10
2.8056023e-06
0.00022819175
1.3704287e-07
1.971483e-06
1.0762924e-06
1.6982532e-07
4.6723926e-06
0.0019075868
5.5477659e-09
5.5479095e-09
6.5184319e-09
1.7927909e-07
2.9453956e-08
2.2176958e-05
1.3158629e-05
5.4305759e-08
9.5583511e-05
1.0121251e-06
0.00054780453
1.2410369e-05
5.531198e-05
0.0040857875
2.1097385e-06
0.0034264338
4.5046758e-05
1.9646954e-09
1.9036883e-09
2.4155981e-09
2.558886e-09
2.5788185e-09
2.624073e-09
0.0023198125
3.9938779e-08
3.9842478e-08
0.0041633152
0.00021437383
0.00090382478
0.00055723461
8.4625149e-09
0.0039507645
5.1993142e-09
0.016628846
0.0023565306
1.2195059e-08
0.00031958976
0.00074077427
1.2168658e-08
0.0097612892
0.016787892
0.016752126
0.0093177774
4.5179863e-10
3.6078417e-10
0.00071548761
0.0075712346
0.00016514874
4.2617372e-10
3.4896584e-10
1.800555e-10
0.00062016855
3.7579122e-10
3.2458208e-10
5.4368397e-10
0.0047437016
0.00010980349
3.9127562e-10
0.0040249452
0.0057075995
0.00017385918
0.00018420733
0.0012089313
0.00027275369
1.0436627e-09
3.3227245e-09
8.9796987e-10
1.0280223e-09
0.00022819145
0.00013262977
1.5030984e-07
1.5347893e-07
3.4525039e-06
0.0011357296
0.0019075692
5.5655977e-09
6.5104976e-09
8.9045731e-09
7.8079794e-07
2.9456674e-08
3.0283974e-08
3.1099005e-08
3.2817492e-08
3.2845122e-08
1.6887037e-05
3.4946409e-09
0.00035313563
1.4407962e-08
0.0032470906
2.7411878e-05
0.0068530068
0.00023473462
2.0609834e-09
1.4755791e-09
0.0005488192
0.00072170596
8.0119365e-05
0.00024270438
8.6148334e-08
0.00060623168
6.5852871e-05
0.0025431798
0.00017933665
8.821842e-08
8.8168292e-08
0.00088136082
0.008263574
0.00081044212
4.8968956e-10
4.8968962e-10
2.3102354e-05
2.7345317e-08
0.010069894
0.020607585
0.00143111
0.00017802376
3.501739e-08
0.018955863
0.0071283557
6.3738642e-10
0.0085592405
0.014439369
0.0057149756
6.1856842e-10
5.3135325e-06
2.1288595e-10
0.00088144842
5.2860343e-09
3.9636984e-06
0.0029408092
0.0054610549
0.0020130577
3.6969635e-07
0.00665528
0.0066552799
0.0017949829
0.00013239191
0.0009612319
1.0942037e-09
9.2133834e-10
8.9824276e-10
0.0031593602
0.0022858649
0.00013914336
0.00022242382
0.00019514751
1.5563278e-07
0.00019603321
0.0014135383
0.00028991707
3.111278e-07
3.1130093e-07
4.9986525e-08
2.7834954e-08
2.9493314e-08
5.9551769e-08
3.1100617e-08
3.2075098e-08
1.6257567e-06
8.2777636e-06
5.8171552e-09
2.2611309e-09
0.00093524027
5.1974071e-07
1.2993998e-08
0.004983899
0.002797166
0.0029272772
2.0362362e-09
0.00012502767
0.00060209076
1.1629823e-05
0.00083813428
0.00036015067
0.0015392137
0.00043837684
2.575784e-07
0.00040667491
2.3302365e-05
8.8565912e-08
9.3911314e-08
0.0082635739
0.0037628157
5.267935e-10
7.2891532e-10
0.00010907168
0.00018230835
1.7224982e-08
0.019026516
0.0023598008
3.5459989e-08
3.5387192e-08
3.5512003e-08
3.5825541e-08
0.013181587
0.013181041
0.004466797
0.00053214137
4.6203343e-06
3.0512076e-05
2.2343887e-09
6.16328e-10
8.4095496e-05
0.00076657202
0.0041856509
0.00037607384
0.0019364342
0.00013039973
0.0012581005
0.0010026538
0.0023618659
9.2893507e-05
2.1484488e-09
0.00096950694
9.3907344e-10
0.0038766694
0.0068803251
0.0053103793
6.5545108e-08
6.5743225e-08
3.0952245e-05
8.4449223e-05
0.00075159421
0.00070795465
2.8056315e-08
2.8545804e-08
9.3615637e-06
2.970405e-08
2.874441e-08
2.9708928e-08
6.9611291e-07
0.00010394983
0.00018073451
7.6326267e-05
1.3956354e-06
0.00066308146
2.518454e-09
0.00070563555
0.0006703191
3.6926508e-05
2.2197923e-05
0.0056599811
0.0056861392
0.001547969
2.0593698e-08
2.0095591e-08
1.9446209e-08
1.9751949e-08
5.557274e-05
4.6010512e-08
0.00014355953
2.8442191e-06
0.00012661945
1.6891257e-06
0.019977803
0.011491165
0.0050889386
9.2417016e-10
4.1946153e-05
2.1365056e-05
4.2991845e-06
0.00053616162
3.7955094e-08
1.7584186e-08
0.0019621113
0.0068256146
0.0011713253
0.0095676712
3.5834454e-08
0.018233823
0.006435344
3.3282447e-05
1.9446311e-09
1.7974811e-09
3.021373e-05
0.000678569
7.7416839e-10
0.000339518
0.0008629949
6.1924626e-10
6.1917995e-10
6.242889e-10
6.7605307e-10
4.9068618e-10
4.644139e-10
0.0023616316
0.00030465854
2.0026842e-09
1.8447778e-09
0.0057322383
0.006880325
0.0068803251
0.0038951788
6.8696035e-08
6.821129e-08
7.0310842e-08
0.00021389414
0.00075159367
1.2326568e-08
9.4565618e-05
0.00093750719
2.3568995e-08
5.4691358e-05
6.3094634e-05
3.0331246e-08
3.0315688e-08
0.00026898614
0.00026956257
0.00011858582
1.5120097e-07
0.00067829788
1.9320751e-05
2.9511461e-09
0.00014959528
0.0044794113
0.00019163434
3.5089931e-05
3.5089939e-05
0.0027919487
0.00063765821
1.9607685e-08
1.9446312e-08
0.00078254411
3.0460727e-06
1.2403637e-05
5.1128795e-09
5.0904974e-09
0.0002337881
1.6893004e-06
0.029717535
0.029944964
0.0034324466
9.2399414e-10
7.5145651e-05
6.5973458e-10
3.6730825e-05
0.00042917364
0.00010608491
1.7249868e-08
0.01340853
0.019147136
0.0069439804
0.025578324
0.025539741
0.0013494954
1.8440979e-09
1.7872286e-09
1.7872662e-09
1.7912138e-09
1.2424312e-05
0.00074940545
1.4286029e-05
3.3296249e-05
6.815339e-10
7.4249595e-10
6.192939e-10
4.3070675e-05
0.003091179
0.00010479929
5.5965707e-10
0.002361342
0.00072432151
1.8796512e-09
1.76795e-09
0.00075951188
0.0015936139
0.0016482828
0.00023067718
1.9559751e-06
6.7811341e-05
1.9458763e-06
0.00029968357
0.00028002139
1.3478152e-08
0.00017019063
0.001476628
2.4024573e-08
0.00016300242
0.00017603495
3.1027909e-06
6.777613e-06
0.00010356116
0.00011947724
6.58841e-05
8.3329127e-09
0.0034126888
0.0053697711
2.2540116e-09
2.3107042e-09
0.0044740338
0.00051133167
3.5090212e-05
0.0001448567
0.0027919823
0.0027858443
0.0024519778
2.0048515e-08
0.00078186635
0.0002525399
0.00044201589
0.002683512
0.0036446871