/*--------------------------------*- C++ -*----------------------------------*\
| =========                 |                                                 |
| \\      /  F ield         | OpenFOAM: The Open Source CFD Toolbox           |
|  \\    /   O peration     | Version:  2.3.0                                 |
|   \\  /    A nd           | Web:      www.OpenFOAM.org                      |
|    \\/     M anipulation  |                                                 |
\*---------------------------------------------------------------------------*/
FoamFile
{
    version     2.0;
    format      ascii;
    class       volScalarField;
    location    "1.8e-05";
    object      k;
}
// * * * * * * * * * * * * * * * * * * * * * * * * * * * * * * * * * * * * * //

dimensions      [0 2 -2 0 0 0 0];

internalField   nonuniform List<scalar> 
7500
(
9.9984256e-06
1.0000492e-05
1.0006987e-05
1.0006944e-05
1.0006178e-05
1.0003312e-05
1.0002295e-05
1.000225e-05
1.0004069e-05
1.0011093e-05
1.00203e-05
1.0024845e-05
1.00303e-05
1.0033217e-05
1.0035708e-05
1.0037102e-05
1.0040799e-05
1.0048302e-05
1.0050342e-05
1.0057412e-05
1.0064323e-05
1.0071656e-05
1.0076832e-05
1.0085558e-05
1.0099178e-05
1.0117771e-05
1.0155879e-05
1.020039e-05
1.0229281e-05
1.0261608e-05
1.0281505e-05
1.0313302e-05
1.0339072e-05
1.0365883e-05
1.0385262e-05
1.0400295e-05
1.0419413e-05
1.0453648e-05
1.0521426e-05
1.0676268e-05
1.0847716e-05
1.1081998e-05
1.1301531e-05
1.1524155e-05
1.1735474e-05
1.189635e-05
1.2043043e-05
1.2157772e-05
1.2241814e-05
1.2296991e-05
1.232943e-05
1.2343521e-05
1.2351111e-05
1.2358576e-05
1.2361448e-05
1.2356662e-05
1.2336231e-05
1.2333062e-05
1.2322615e-05
1.2316446e-05
1.2319539e-05
1.2326462e-05
1.2339404e-05
1.235941e-05
1.2400908e-05
1.2451728e-05
1.2541261e-05
1.259474e-05
1.2709527e-05
1.2782245e-05
1.2918734e-05
1.3016591e-05
1.3175401e-05
1.3263911e-05
1.3486524e-05
9.9998002e-06
9.9998941e-06
1.0000299e-05
1.00023e-05
1.000281e-05
1.0002452e-05
1.00032e-05
1.0004109e-05
1.0005514e-05
1.0008389e-05
1.0012112e-05
1.0017182e-05
1.0019952e-05
1.0023428e-05
1.0027675e-05
1.003286e-05
1.0035359e-05
1.0040187e-05
1.0044202e-05
1.0051797e-05
1.0059728e-05
1.0066395e-05
1.008088e-05
1.0099882e-05
1.0139557e-05
1.0186907e-05
1.026833e-05
1.0350298e-05
1.0442623e-05
1.0539814e-05
1.0628758e-05
1.0711824e-05
1.0784554e-05
1.0831503e-05
1.0865387e-05
1.0893229e-05
1.0931376e-05
1.0998412e-05
1.1132707e-05
1.1498232e-05
1.2024526e-05
1.2741998e-05
1.3409582e-05
1.4002871e-05
1.4602682e-05
1.5039581e-05
1.5377203e-05
1.5679931e-05
1.5834429e-05
1.5977941e-05
1.6045126e-05
1.6074414e-05
1.6109184e-05
1.6121818e-05
1.6172543e-05
1.6228967e-05
1.6291808e-05
1.6387978e-05
1.6504496e-05
1.6661025e-05
1.690688e-05
1.7201143e-05
1.7668679e-05
1.8068767e-05
1.8748779e-05
1.9370013e-05
2.0146281e-05
2.0760363e-05
2.1855274e-05
2.2666316e-05
2.3952036e-05
2.5173914e-05
2.6677972e-05
2.7590944e-05
2.9621429e-05
1.0001629e-05
1.0008463e-05
1.0010856e-05
1.0017121e-05
1.0019465e-05
1.0020049e-05
1.0023051e-05
1.002722e-05
1.0029578e-05
1.0031971e-05
1.0036543e-05
1.0045648e-05
1.0051116e-05
1.0060978e-05
1.0069022e-05
1.0079532e-05
1.0089392e-05
1.0097567e-05
1.0115869e-05
1.0130984e-05
1.0161617e-05
1.0187258e-05
1.0244399e-05
1.0303695e-05
1.0438258e-05
1.0574153e-05
1.0868403e-05
1.1159747e-05
1.1560886e-05
1.1909767e-05
1.2256674e-05
1.2506927e-05
1.27179e-05
1.2856312e-05
1.2979564e-05
1.312199e-05
1.3308165e-05
1.3634201e-05
1.4226441e-05
1.5727862e-05
1.7765944e-05
2.0866865e-05
2.3826653e-05
2.622752e-05
2.9092624e-05
3.1179372e-05
3.2901053e-05
3.4948103e-05
3.6100119e-05
3.7781373e-05
3.9220356e-05
4.0561416e-05
4.262001e-05
4.4178892e-05
4.6329502e-05
4.9005755e-05
5.1266855e-05
5.4547383e-05
5.7434367e-05
6.1496497e-05
6.7225344e-05
7.1822964e-05
7.9411564e-05
8.5349194e-05
9.4976669e-05
0.00010394572
0.00011408261
0.000122021
0.00013550653
0.00014625906
0.0001607619
0.00017593013
0.0001920818
0.00020220655
0.00022317691
1.000814e-05
1.0044091e-05
1.0050894e-05
1.0067997e-05
1.0077414e-05
1.0082304e-05
1.0092057e-05
1.010164e-05
1.0109374e-05
1.0120786e-05
1.0140365e-05
1.017102e-05
1.0189555e-05
1.0222437e-05
1.0240047e-05
1.026507e-05
1.0282116e-05
1.0302787e-05
1.0346842e-05
1.0397049e-05
1.0495664e-05
1.0572422e-05
1.0722969e-05
1.0871697e-05
1.1208752e-05
1.1558526e-05
1.2402649e-05
1.3127987e-05
1.4573229e-05
1.5476005e-05
1.6762478e-05
1.7527784e-05
1.8630893e-05
1.9504608e-05
2.0783719e-05
2.252111e-05
2.4332821e-05
2.7761443e-05
3.1634853e-05
3.9679983e-05
4.7289487e-05
6.109201e-05
7.7072308e-05
8.7669292e-05
0.00010668857
0.00012131736
0.00013575976
0.00015611674
0.00016954776
0.00019108385
0.00021444256
0.00023475231
0.00026916546
0.00029340162
0.00033040489
0.00036791021
0.00040489469
0.00044238038
0.00048816172
0.00053623442
0.00060294937
0.00065405477
0.00074078162
0.00080714894
0.00090824711
0.0010020004
0.0011072027
0.0011867453
0.0013187723
0.0014263245
0.0015633826
0.0017077381
0.0018513025
0.0019423721
0.0021229824
1.0016155e-05
1.0105794e-05
1.0115754e-05
1.0156336e-05
1.0180911e-05
1.0218793e-05
1.025783e-05
1.0332681e-05
1.041814e-05
1.0520866e-05
1.0650536e-05
1.0774055e-05
1.082873e-05
1.0911892e-05
1.0945718e-05
1.1000886e-05
1.1038753e-05
1.1110143e-05
1.1253931e-05
1.1460312e-05
1.1710912e-05
1.1934869e-05
1.2336741e-05
1.2804215e-05
1.3833089e-05
1.4981879e-05
1.7624263e-05
1.995135e-05
2.485748e-05
2.8653363e-05
3.5798576e-05
4.18148e-05
5.2541091e-05
6.2369643e-05
7.9581779e-05
9.6825134e-05
0.00011888658
0.0001547468
0.00018772461
0.00024213674
0.00029779883
0.00037426331
0.00049249007
0.0005727267
0.00071523759
0.0008390296
0.00097829652
0.0011672937
0.001296468
0.0015247956
0.0017423374
0.0019609213
0.0023170406
0.002554133
0.0029623648
0.0032332893
0.0036620147
0.0039636899
0.0044122967
0.0047855266
0.0053709985
0.0057917297
0.006514794
0.0070597426
0.0078484528
0.0085559188
0.0093829611
0.0099744649
0.010952057
0.011738261
0.012754605
0.01376577
0.01474972
0.015366946
0.016562119
1.0005084e-05
1.0079567e-05
1.0140344e-05
1.029105e-05
1.0425491e-05
1.0675259e-05
1.0902967e-05
1.1228844e-05
1.172861e-05
1.2124382e-05
1.2642568e-05
1.299309e-05
1.3173352e-05
1.3380192e-05
1.3452479e-05
1.3570407e-05
1.3709419e-05
1.4015318e-05
1.4581468e-05
1.5384766e-05
1.6855742e-05
1.8669087e-05
2.2274672e-05
2.652456e-05
3.5270378e-05
4.4487377e-05
6.3479317e-05
8.2152387e-05
0.00012100388
0.00015672292
0.00022670054
0.00029089011
0.00041052737
0.00051607116
0.00070859571
0.00086785816
0.0011485167
0.0013827261
0.0017800898
0.0021506811
0.0027352715
0.003242644
0.0042169616
0.0048577661
0.0059943042
0.0069316647
0.0080351673
0.0095310775
0.010505145
0.012309915
0.013684151
0.015620377
0.017975391
0.01967149
0.022653028
0.024496676
0.027569804
0.029459974
0.032300235
0.034580004
0.038368632
0.040918442
0.04528926
0.04862913
0.053115566
0.057083759
0.061857176
0.065086207
0.07041677
0.074581686
0.080155032
0.085357514
0.090488196
0.093598663
0.099503315
1.0196315e-05
1.0782244e-05
1.1198244e-05
1.2049848e-05
1.2455989e-05
1.3263368e-05
1.3930442e-05
1.4607085e-05
1.5794572e-05
1.64042e-05
1.7471519e-05
1.7912957e-05
1.8486901e-05
1.8943317e-05
1.9389824e-05
2.0208726e-05
2.1629059e-05
2.4339123e-05
2.8995729e-05
3.7480091e-05
5.3141411e-05
7.4522161e-05
0.0001173418
0.00016676368
0.00026470512
0.00036309532
0.00056175438
0.00074940723
0.001138459
0.0014756464
0.0021497119
0.0027227782
0.0038266632
0.0047215334
0.0063980047
0.0076699196
0.0099675522
0.011721991
0.014865832
0.017246533
0.021737855
0.024992538
0.031245908
0.035353047
0.043012988
0.048366006
0.055495924
0.064341416
0.069983759
0.080361074
0.087554488
0.09993501
0.11046494
0.12028385
0.13585688
0.14539697
0.16129098
0.17051086
0.18377313
0.19503544
0.21293891
0.22440116
0.24366385
0.25946962
0.2781226
0.29561444
0.31574896
0.32919597
0.35102567
0.3682573
0.39137141
0.4124961
0.43242874
0.44458969
0.46670378
1.0438197e-05
1.2593597e-05
1.3194661e-05
1.485778e-05
1.5532188e-05
1.7165019e-05
1.8762737e-05
2.0179963e-05
2.1467587e-05
2.2305286e-05
2.3144167e-05
2.4050223e-05
2.5542285e-05
2.829958e-05
3.3247592e-05
4.2879649e-05
6.0031082e-05
9.4019484e-05
0.00014788685
0.00025376455
0.00041130687
0.00064259623
0.0010846397
0.0015630822
0.0024818726
0.0033603851
0.0051190759
0.0066617635
0.0098075686
0.012328814
0.017431772
0.021395521
0.02923793
0.03504166
0.046130356
0.053931979
0.068286025
0.078420367
0.096582106
0.10957969
0.1340678
0.1507052
0.18337048
0.2034182
0.24217911
0.26498529
0.30292044
0.33847893
0.36431925
0.41223906
0.44315394
0.49662645
0.53373622
0.58020267
0.63990653
0.68310439
0.74004523
0.77925241
0.82746546
0.87442347
0.94142879
0.98334566
1.0514975
1.1140843
1.1771075
1.2444682
1.3121156
1.3624271
1.4341615
1.4986044
1.5822467
1.6578169
1.7230983
1.7632164
1.8294613
1.009323e-05
1.1334745e-05
1.1922645e-05
1.3560235e-05
1.6009039e-05
1.8313067e-05
2.2405194e-05
2.4455772e-05
2.8732914e-05
3.1314921e-05
3.691357e-05
4.4473303e-05
5.9079341e-05
8.7441284e-05
0.00013991601
0.00024863392
0.00042855417
0.00080258765
0.0013098046
0.0023779643
0.003598542
0.0058403143
0.0091379979
0.012858515
0.019566836
0.025764004
0.037956879
0.04771845
0.067200236
0.081908118
0.11172134
0.13293999
0.17550229
0.20441765
0.26031533
0.2973385
0.36546468
0.41131742
0.49245992
0.54826733
0.65253176
0.72047607
0.85470675
0.9328453
1.0851168
1.1702822
1.3243198
1.4271262
1.5532061
1.7150899
1.8238533
2.0031627
2.1374311
2.3206525
2.5028737
2.6799417
2.8433539
3.0320895
3.1779602
3.366472
3.6097342
3.7635814
4.0076523
4.2535089
4.4612126
4.7189322
4.9288496
5.1316468
5.4108167
5.6829771
5.9741299
6.216001
6.3946563
6.5193321
6.69461
1.0721346e-05
1.2487886e-05
1.3994769e-05
1.5728097e-05
1.8643956e-05
2.0437235e-05
2.4328524e-05
2.8225671e-05
3.691278e-05
5.2705486e-05
8.6811769e-05
0.00015468984
0.0002892996
0.00056366614
0.0010604137
0.0021323806
0.00366127
0.00691433
0.010751152
0.018911326
0.027131583
0.044698475
0.060035055
0.088532032
0.12163077
0.15913637
0.22305296
0.27050196
0.36460205
0.43275127
0.56796256
0.65729427
0.83641129
0.95091762
1.1719624
1.3167075
1.5616097
1.7548536
2.0373991
2.2471878
2.6262556
2.8675049
3.3380174
3.6077786
4.1243138
4.4117685
4.9446132
5.2635409
5.8209831
6.1896059
6.7383038
7.249652
7.8178335
8.5056325
9.0559913
9.8619209
10.530982
11.365224
11.972552
12.848937
13.834357
14.481878
15.525954
16.458242
17.308095
18.15609
19.144401
20.469335
22.132236
22.943261
23.740888
24.225022
24.657046
25.135491
26.047155
1.074533e-05
1.481672e-05
1.6129013e-05
2.0080908e-05
2.1775791e-05
2.5288811e-05
3.2696173e-05
5.1043317e-05
9.7616365e-05
0.00020693113
0.00045254198
0.00099006953
0.0020645504
0.0044320995
0.008274081
0.016695369
0.027120454
0.049348808
0.072345413
0.12118357
0.16510011
0.25862193
0.33250688
0.48866326
0.60095705
0.8123869
1.0278659
1.2294353
1.6077689
1.8632734
2.3482075
2.6629476
3.2886985
3.6834288
4.4117761
4.9796932
5.6397077
6.58029
7.3309253
8.32571
9.504678
10.328179
11.916969
12.86745
14.653245
15.706835
17.812998
19.087957
21.364506
22.727862
25.286872
26.901145
29.966253
33.100532
35.598684
40.545935
44.343165
47.83657
52.210411
56.643131
59.982182
62.880269
68.337316
72.178323
75.518586
80.636445
93.562882
105.72414
108.04209
104.13855
107.48053
108.18404
110.64197
117.02666
130.65047
1.0183465e-05
1.1582338e-05
1.2897663e-05
1.636253e-05
2.3758963e-05
4.4377406e-05
0.00010328922
0.00025645068
0.00063615672
0.0015054611
0.0033762852
0.0075070779
0.015219981
0.032801495
0.056643911
0.10904766
0.16551789
0.28453542
0.39399547
0.62393309
0.81122816
1.2057081
1.493137
2.0943587
2.4990634
3.3322869
3.8839376
4.8798013
5.9068634
6.8225193
8.37631
9.4472499
11.526331
12.890861
15.280185
17.03961
20.182624
23.70486
26.322171
30.685623
34.285477
37.348301
43.428852
47.279339
56.329625
60.530765
73.640062
78.007698
90.26566
94.327116
111.12087
116.4382
144.15373
163.77302
172.6826
226.70755
227.23708
247.61798
280.44116
285.92335
291.23722
312.41108
355.85107
370.32022
385.08968
446.45553
447.02416
431.09172
377.6913
378.19649
413.69559
425.70487
459.99169
485.38852
495.69589
1.1800022e-05
1.3486354e-05
1.5872674e-05
2.5479498e-05
6.5845583e-05
0.00020685157
0.00064071394
0.0017716903
0.0044747112
0.010579256
0.02303215
0.052268238
0.097196639
0.20103091
0.31873519
0.57588015
0.81831763
1.319943
1.7412614
2.6106368
3.2759156
4.6558198
5.6184199
7.6141632
8.9356074
11.684212
13.485553
17.173468
19.503807
23.953064
28.372112
32.647609
40.110331
45.972739
53.286257
62.980737
81.949366
92.176797
105.00464
123.29362
135.73457
150.5588
189.61218
202.94393
284.08101
272.99852
374.73299
361.60961
456.02271
434.64805
610.43158
550.61097
738.75028
673.78358
716.28036
938.9696
759.06227
988.03097
962.22025
772.39106
759.73364
864.69526
814.89886
767.33744
726.94461
738.70008
449.69274
272.49805
293.68917
454.12774
453.95892
505.30184
552.25271
439.39357
342.39478
1.0882898e-05
1.5324809e-05
2.9723401e-05
0.00010667391
0.00041546392
0.001446958
0.0043854068
0.01168506
0.028041561
0.0653385
0.13504725
0.30299026
0.51268441
0.99295918
1.4654703
2.4800145
3.3358375
5.0764614
6.4708982
9.2922935
11.455063
15.842197
18.95952
25.442479
29.955655
39.641736
45.857976
59.235466
67.28149
89.273006
102.56029
127.16041
155.95515
181.72228
220.10997
305.07097
394.19174
413.82956
484.126
577.61166
598.6107
728.83267
765.99054
856.62616
1046.2029
927.768
1094.6348
964.70481
1006.3969
986.6965
1166.9763
936.37485
890.32223
715.85784
883.74036
481.36018
422.98997
559.46036
371.7739
223.14089
243.70816
297.21053
214.9434
163.29853
132.40212
108.30427
49.915323
37.532431
47.033206
63.642
52.470007
66.737393
71.83166
42.581036
29.814348
1.0049673e-05
1.9596861e-05
0.0001139481
0.00064800293
0.0027723889
0.0093784688
0.027137777
0.068321184
0.15481745
0.3637049
0.68018213
1.4352903
2.2371885
3.9973462
5.6270582
8.9411911
11.625431
17.116252
21.58298
30.67355
38.046811
52.676465
63.552712
88.305248
105.3712
146.25242
167.91299
229.10088
257.59039
407.11129
443.40399
594.5336
683.91926
873.69486
977.85154
1262.2488
1211.701
1100.8004
1291.2892
1078.1095
1018.0212
1017.9006
910.11637
1093.3888
634.79379
632.21548
465.00249
365.38434
243.95211
254.19914
191.7496
261.63618
107.13847
130.48684
221.87494
51.282043
78.001409
93.167346
33.712453
23.705989
47.453235
38.160391
22.491875
17.831713
21.083564
19.264916
19.987674
19.893163
28.167704
29.621321
23.719539
21.619797
16.517824
14.859506
12.67651
1.0385582e-05
7.8760848e-05
0.00075611346
0.00421992
0.01698437
0.053506728
0.14554793
0.34381036
0.73590811
1.6915881
2.8888813
5.6413308
8.2783512
13.757554
19.300549
28.745362
37.380184
55.868756
70.771712
104.97201
132.5505
189.5527
231.72514
361.59463
425.93521
610.02695
702.08326
967.32454
1026.5293
1383.5671
1266.6459
1502.355
1376.358
1658.4949
1271.2759
1039.4186
497.61907
515.89941
363.8495
178.48839
194.72074
111.25149
140.47405
166.56097
45.38309
77.198952
40.532053
28.391932
22.371793
33.820691
29.043267
29.390185
24.26618
25.481452
43.587756
19.238286
32.070367
33.390458
15.153627
13.297448
24.260853
22.552179
16.849678
12.556038
13.037694
17.341069
13.114717
14.53459
21.166178
27.852231
23.738338
24.991522
25.330859
17.100965
11.449287
9.1085812e-06
0.00051715852
0.0048638307
0.024909269
0.09174138
0.26687708
0.68203064
1.502069
3.0527975
6.6156087
10.521633
19.093513
27.236208
43.937792
63.839728
88.631051
123.93245
195.48752
250.21251
418.0289
533.19434
790.90901
968.66322
1248.5342
1325.4199
1530.6349
1527.9776
1433.7201
1319.6747
1003.6159
1000.782
522.37584
466.51892
571.3665
150.22478
88.026182
43.907748
56.465479
36.447034
17.997726
20.420817
27.263476
30.878018
17.594784
8.7955087
19.372078
11.348358
9.3665796
8.2050648
20.152882
25.650136
19.950219
37.291636
24.443748
20.412784
15.366963
19.868134
18.875618
12.404151
11.807623
16.855539
19.009411
14.057042
10.747572
12.116342
11.544254
10.936141
12.38159
20.330367
30.9014
25.337002
27.304159
25.407212
14.482345
10.765152
3.9036621e-05
0.0032362977
0.027823769
0.12922797
0.43211378
1.1574758
2.806187
5.691072
11.299672
22.260408
34.287818
59.871841
86.347132
147.0006
208.85721
303.56268
489.24079
775.26463
999.71882
1475.6036
1547.011
1810.9373
1644.8654
1326.2943
1269.7925
692.13679
511.88133
387.39596
357.20084
127.66788
242.32223
61.743887
59.673407
52.623531
10.748307
9.602369
13.209517
16.062215
14.091785
10.59726
8.5685217
9.305371
17.306506
9.2116754
7.7931486
8.1904439
7.062529
6.0324288
6.7485325
10.768152
58.563213
24.173483
13.891442
17.633224
16.071713
13.08422
16.978474
14.47136
12.123366
10.56216
12.541651
11.559379
10.435269
9.9291816
11.152167
10.945149
10.379897
12.451471
24.804904
29.221108
23.959239
21.307795
16.925347
11.475758
9.6566616
4.6569123e-06
0.018336679
0.14032472
0.58642725
1.7759869
4.3937192
9.952414
19.234116
39.482114
67.073147
108.09225
191.47803
290.39765
544.50577
784.85202
1257.1264
1504.5816
1815.9538
1795.5406
1644.8662
1174.7611
845.32032
327.23451
245.76864
214.55179
64.121462
60.46733
58.288843
56.834726
22.848936
30.967405
8.554304
31.741214
52.600784
6.0778029
6.1085508
7.0417398
7.4284576
20.454308
18.444313
17.964422
16.603264
15.259674
6.7054376
8.7649093
8.271825
8.0539463
6.7135298
6.2253737
7.3347661
18.451265
14.115951
18.680306
14.144317
14.098373
12.19754
16.592335
13.459604
12.144517
11.792215
10.941623
10.486045
10.733446
11.913727
12.162662
10.655257
10.235246
11.240153
15.979647
22.406278
19.018661
14.7397
13.818451
11.41127
8.5626296
0.00075056153
0.097429674
0.63297307
2.3410927
6.4143737
14.770988
31.434586
61.341045
125.43605
206.12481
368.85401
698.95803
1134.6975
1599.1376
1967.6609
1838.8506
1465.2806
956.736
617.39438
304.78747
172.66866
83.285614
37.300703
42.352528
23.201102
7.697565
16.31252
15.079303
23.402771
23.901551
4.3949595
5.8994092
19.675319
18.275221
5.0282946
5.2703435
6.6186267
6.754984
36.817803
25.145748
32.125507
22.371327
12.98747
9.1622253
9.7510986
8.1944935
7.0876539
7.7299179
7.8325969
6.623795
6.1725837
19.672949
15.73156
9.9096979
9.0897265
10.123444
13.262769
13.093805
12.113928
12.539245
11.537905
11.863715
12.970823
13.545933
12.216861
10.465405
10.550591
11.727599
12.759386
16.126337
15.414438
13.374935
13.776633
11.158473
8.1853312
0.0084741558
0.46121855
2.5376446
8.2525255
20.671442
45.520103
96.063567
197.45786
404.21039
722.84898
1490.9272
1803.0338
1983.0004
1671.6143
1345.3772
432.53755
280.06251
137.72177
87.945776
34.707005
24.224511
10.544335
23.598447
11.933435
5.8636662
4.1272262
9.9861959
13.055062
19.139226
14.988272
2.539942
3.423832
12.975357
11.556984
5.7204893
4.9419186
7.3018355
7.0161074
50.110134
27.464665
30.093452
16.613682
11.099792
11.531189
10.727702
6.8763102
6.587634
8.7752722
27.282983
12.134134
10.268345
12.306331
15.408167
9.7037251
8.168676
9.5951553
12.186913
13.68051
13.633169
16.591691
14.070885
15.00843
16.820468
14.270416
11.340832
11.693036
12.246313
12.991674
13.06657
15.00087
15.110217
12.751648
12.48546
9.6694889
7.7782598
0.064819258
1.9526372
9.0111207
25.957199
61.198544
135.29874
305.15803
686.99698
1508.5619
1816.3674
2271.1406
1481.1902
672.97765
351.22374
226.98862
43.61483
57.896428
23.04795
15.413466
5.2659888
5.4070608
7.9054413
14.875758
6.3441537
6.768847
4.4356684
7.5126228
7.8884507
15.978796
11.330605
3.1415529
3.0325217
7.9613307
6.1279823
5.4909813
4.4887176
7.3407306
8.6926653
35.979599
26.591515
14.800904
12.121018
8.7951044
9.722307
8.2733485
7.0932696
7.1538015
14.677698
30.572252
18.822131
11.794914
11.909872
10.734369
7.1657491
7.8788756
9.1724543
13.112633
12.672449
15.55254
21.915198
17.55419
22.279166
19.608054
13.029248
11.879004
13.719529
16.04336
15.74456
13.394778
15.601593
14.827729
12.156134
11.245489
9.0837169
7.7583399
0.39918729
7.3976387
28.604789
74.75437
174.62751
414.73749
1102.877
1884.5083
2356.0464
1735.6828
756.92859
233.13268
96.599318
70.847731
24.47432
7.6203499
14.622929
6.4557075
18.627423
3.9479244
4.0301265
6.091488
7.2200191
5.1420746
6.1674379
7.3346153
6.8482818
12.107389
7.6304988
9.5849895
6.6450985
2.8354076
5.1217833
6.0305774
4.2760384
3.8177026
7.2632433
11.370272
17.769844
22.209598
29.733494
15.368296
9.2665697
9.2955306
7.801958
9.4302588
7.0032726
8.1962952
28.06896
17.003218
11.19345
9.7483708
7.0147501
6.3888332
6.7193289
9.4677773
19.036107
20.158148
17.689111
21.1825
49.881111
30.928091
19.960895
13.116641
12.852979
14.726293
17.89401
16.659846
13.155979
14.319575
13.034394
12.000415
10.745917
9.2717176
8.2346132
2.1049823
25.156309
82.797631
204.73862
514.06335
1451.8743
2091.7089
1918.9065
858.96508
414.05235
115.64025
21.663591
12.841773
16.744801
8.9028883
2.4424846
6.6605194
4.3693501
4.3496959
2.8511689
2.7447608
4.5013234
5.8927132
6.1542415
6.1802931
14.879923
7.4952327
9.6792217
3.6107252
7.409416
7.7227518
2.9244833
6.5381433
6.7899075
3.7305095
3.8486713
7.5153804
23.494086
23.096567
23.019344
22.76048
14.037273
11.170039
10.157693
8.024909
7.9445028
6.4091894
7.6216532
35.464581
10.473536
8.2020522
6.9568592
6.4376379
6.3421014
7.1115445
11.230577
20.955619
21.816181
16.960999
16.70872
40.630009
19.188618
17.406809
13.558515
13.482989
16.1357
18.592856
17.667498
13.377039
12.59561
12.120918
11.586363
9.8832793
9.6730085
9.3739823
9.770079
77.715948
224.09561
566.90724
1691.2569
2386.0365
1438.4595
473.49011
151.50081
75.895157
8.9709583
1.7912841
2.8203599
6.6856729
4.7986113
1.7857345
4.5381477
3.5516821
2.2545629
2.2528267
2.2432724
4.1032904
6.6590203
7.3296207
7.3379821
21.38657
7.0702627
3.8956205
2.9217368
7.4595018
8.036511
3.0265177
9.0245441
6.625148
3.480281
4.2780723
8.1987125
20.470294
8.8936377
15.39351
18.240048
14.417289
12.741676
10.584373
8.0540229
7.2118194
6.3667009
7.7316893
12.03527
7.2266244
6.5577712
7.3529
7.2944347
7.3980136
6.929579
11.863239
15.059594
16.111867
16.381429
16.03038
19.896266
16.440113
17.028832
16.10276
14.626604
20.278915
22.94171
20.69618
14.329823
12.366048
12.277737
12.220847
10.152774
11.715828
12.343502
40.808906
220.40581
593.29364
1722.7644
2381.5519
1374.2014
411.73574
87.072242
19.421532
9.6137142
1.1286937
0.83765449
1.5417579
3.4585347
1.806118
1.2781531
3.6929172
2.6140125
1.2297956
2.3483089
2.382542
5.8157057
10.07264
5.7040464
7.8204309
21.424363
6.5158584
5.2534303
2.700134
8.0655026
6.5653906
2.9490515
3.6753905
6.8540939
4.2588568
3.8724542
8.6748626
14.01595
7.4412766
14.940894
45.890035
19.718028
14.556234
11.169698
7.5508804
7.1015827
6.2643596
6.7379498
6.7515112
6.9254789
12.910502
9.154569
8.3071737
10.434838
7.9526253
12.000024
16.991549
14.75014
15.636588
14.475053
14.762567
18.083516
19.049567
17.256333
16.836372
21.430623
25.094454
22.215123
16.255465
12.512582
14.191759
13.753558
10.338706
14.177591
16.465763
156.98879
581.96838
1654.068
2301.6032
1227.5811
479.00167
55.701124
9.5587834
3.000663
2.7336217
0.87452514
1.2638624
1.248409
2.1406997
1.4766832
1.0904847
3.1770921
2.8191088
1.0998828
2.3648657
2.7348408
7.4858062
16.841419
7.2838236
7.914063
16.14903
5.44224
4.259849
2.5947116
5.8390322
4.7264044
2.537993
2.8897803
6.0350187
4.4411382
3.7512304
9.2915241
10.397564
7.7315037
13.207342
24.032134
9.8081851
12.756754
8.4056175
7.6185408
6.3643396
6.3346109
12.960558
8.6198689
8.7021493
16.391282
9.7548914
9.5235359
15.468566
10.753535
13.59762
21.243672
14.70926
16.447934
16.425404
15.892448
19.328987
19.231467
16.706973
17.727614
19.981404
23.100057
22.086038
16.423412
13.629305
14.566263
12.560682
10.293706
17.037407
17.899935
496.39967
1543.7067
2683.2456
1459.1539
515.57936
97.523391
5.6754208
1.3192458
1.2138646
2.7169009
1.0496558
2.4700537
1.2331465
1.5729054
1.382508
1.0449708
2.8038612
2.5393147
1.0211465
2.3308135
2.6377675
6.1057828
18.82629
11.300395
7.9374825
8.4774323
5.2164653
7.4009105
2.5944813
4.2604329
3.4792027
2.4566431
2.6376026
5.5078035
5.4128154
3.8658769
9.4990933
8.5209955
8.2263442
12.830908
15.403226
7.0634285
9.7647871
7.7034616
7.5350374
6.8922994
7.4089578
18.859729
10.936206
9.8281872
8.5690097
8.2293391
9.9119482
10.029296
11.491802
14.71433
22.873228
16.666741
17.9727
18.82599
13.35362
19.529835
19.265485
16.905424
17.520185
17.299405
18.469814
20.915666
17.247065
15.211835
14.169551
10.961315
12.640927
21.756282
16.271954
1476.0582
3115.0858
2235.5585
721.86249
146.85873
12.09963
1.2984065
0.62260488
0.85338853
3.2841515
1.1002749
4.5808399
1.3110835
1.2878083
1.3469676
1.0579085
2.5851346
3.465775
1.0683606
2.2126069
2.393105
5.790751
15.827501
12.009342
8.4870434
8.4879351
5.2328584
17.395028
2.7941611
3.3159836
3.0524793
2.4333331
2.9463345
9.0004919
4.3040698
4.0346637
8.449445
8.0134647
7.7529252
12.176978
12.573285
6.3378146
11.286867
8.2266324
8.0748854
9.1440734
7.8907873
7.9027798
9.996684
10.632641
8.102469
10.728393
10.325988
11.623656
23.551231
17.07193
24.977175
18.676655
19.617837
13.617376
12.218804
18.982084
19.670447
18.535154
16.052985
16.469202
17.776438
20.780944
18.159716
14.669494
12.069244
11.386055
24.234916
21.985545
12.296089
4233.8734
3354.093
960.49439
192.07088
25.220961
2.9330381
0.92188352
0.58028304
0.64788425
2.6547288
1.1129656
5.5831739
1.391009
1.0564182
1.3451158
1.1910882
2.4479022
3.7795576
1.5783357
1.882109
2.4488827
7.0482689
17.571847
11.532934
8.2503086
17.98469
5.1158739
12.16945
2.9100535
2.9492947
2.8276999
2.4522368
3.4300707
8.1919915
3.2638116
4.0726207
8.2104123
8.0302323
8.0678731
8.2184951
10.512785
5.9903885
11.772094
10.162213
8.3905545
9.9753361
7.5175235
10.396036
13.224393
11.834757
9.5886784
15.465502
11.562
9.8200288
29.874082
18.053981
19.567612
21.656216
25.176493
13.885477
10.048644
19.131355
19.201048
19.027128
16.834976
17.523952
18.040367
21.673093
21.623156
14.229411
12.292431
13.946681
22.729659
14.975348
11.445913
7966.2165
1704.7448
224.68455
31.622667
3.8573839
1.2758783
0.89130519
0.65821231
0.54855713
1.150779
1.2644392
5.5328547
1.3950703
0.97536789
1.3619071
1.4683418
2.2917784
2.4185931
2.3195368
1.718213
2.7515928
10.075414
23.726534
11.56174
6.8750582
20.928126
5.4011328
5.1268935
2.9366161
3.0909145
2.4821075
2.5606968
2.8577378
5.7624688
2.9794027
3.9016491
7.2393592
10.576171
9.1137556
7.0627171
9.4019136
6.2286
7.5316339
11.661416
8.5645173
8.6595416
7.63869
15.942052
12.401657
9.5589666
14.642912
12.145537
11.355605
8.9753536
20.598476
12.408844
14.388873
40.272903
17.708544
11.798499
11.138355
17.042226
18.191746
18.658382
19.047869
18.776436
19.646493
22.202503
24.651503
16.319192
12.352156
14.613133
15.855119
12.863217
11.322531
1578.076
310.83491
29.799051
4.1925425
1.3108091
1.1385054
0.88425671
0.75183878
0.53764584
0.58861084
1.4816724
4.1532668
1.337113
0.98078478
1.4486638
1.6292905
2.1539961
1.3265963
2.3730716
1.6822162
3.3590897
10.955198
15.822681
11.433609
6.7258655
12.284561
7.3242648
4.7968096
3.1577485
3.0434005
2.4650692
2.7123108
2.7552009
4.1931521
2.7527586
3.9279077
5.4532273
14.708302
9.770145
7.2477222
12.875925
6.7204928
8.0423664
9.9687478
7.9748418
9.0374197
8.1306636
14.077526
12.535973
8.7005581
11.620388
7.778772
9.3763355
8.9177896
11.700354
9.9380834
14.968615
26.443084
11.172568
11.443511
12.516341
15.795355
18.004639
17.530434
18.744082
22.496432
23.328582
22.357198
23.086874
17.160618
12.845821
14.137284
13.212718
12.068776
11.282153
111.13748
30.115344
3.3856055
1.1634749
1.0688855
1.1547709
0.88389465
1.0616093
0.51601689
0.50495053
1.5161071
2.2733913
1.2455697
0.86356156
1.5676039
1.661421
2.0280823
1.2132064
2.1176757
1.6980421
3.7006061
8.3754826
9.1154189
9.924074
6.7687111
5.0311104
8.8958909
5.1397216
3.2039934
3.4521197
2.6051246
2.825663
4.3671304
3.4650066
2.6858664
3.3732625
5.164121
12.674663
10.859422
8.5965172
9.9896425
6.7207671
7.1364734
9.4242524
8.1019101
11.976218
8.722344
9.2298966
11.230116
8.9194216
11.397157
7.2802147
8.8645835
8.5355074
9.4886926
9.3320841
16.132615
14.046689
10.239977
11.371305
15.637562
17.163012
19.779322
17.413608
17.375284
25.435769
25.566573
21.484943
20.729137
17.660738
13.357066
13.156262
12.196676
12.553353
12.620123
4.3047937
2.3708143
0.93772585
0.88025939
1.1027834
1.1802444
0.90648397
1.2271516
0.52214364
0.49663497
1.465804
1.7212674
1.1590927
0.67283611
1.6751075
1.5742595
1.9139649
1.2274135
2.1183795
1.918847
3.8605755
7.7695936
6.4529889
7.358738
6.1256868
3.7509949
7.7190438
4.9067048
3.2022088
4.0092404
3.0093948
2.9639647
5.1406557
3.4979597
2.8076196
3.3079024
5.0968323
12.881431
11.590301
11.357616
6.6813144
6.1871796
6.8349362
12.542058
8.3588863
10.423658
8.4885251
15.911486
12.119891
7.4092025
11.979896
6.8579919
7.3970588
6.2972382
11.758901
9.3717848
9.870781
11.959404
9.3638309
11.46242
19.745051
19.928886
23.869487
18.592544
17.900715
27.575766
26.050682
21.11696
19.568077
17.442747
13.339458
12.83423
12.137485
12.924787
13.097854
0.95449855
0.68629177
0.73071073
0.92151227
1.1408995
1.2051356
0.92676874
1.3173243
0.61171689
0.53533968
1.387003
1.6605617
1.0824816
0.73187857
1.8308015
1.3602395
1.8007584
1.3904991
2.6587967
2.1651401
4.283836
9.0304875
5.8374251
5.4164415
5.0617031
4.3974233
5.4676779
4.7703243
3.3927751
4.3094919
2.9298122
3.0643145
3.8958468
3.4240259
3.3989128
3.0484817
4.9667682
13.346252
11.953428
13.514375
6.8128975
6.6702796
6.1871421
12.981561
9.4191589
8.7806701
9.7634671
14.943374
6.233951
5.7299383
9.7011594
6.7766139
6.3931499
6.0796786
8.8153016
5.756618
6.1947238
8.5110469
9.1502893
12.909929
29.832479
25.312589
26.786845
20.822223
19.45747
28.535386
24.156567
20.469237
19.220167
17.291858
13.52909
12.782311
11.760308
15.451542
14.561836
0.88794002
0.59512452
0.76167158
0.95303658
1.1774902
1.2342437
0.9582185
1.3406148
0.81673745
0.57189431
1.3612322
1.7507192
1.0042864
0.90234805
2.003454
1.2555182
1.7219416
1.6055281
2.9771954
2.398418
4.7123741
7.8255059
5.9741037
4.7026818
4.5186208
4.0639008
11.764456
6.522096
3.6221857
3.6778669
2.8714187
3.3968139
2.9277844
3.0871018
3.476239
2.8362335
4.1422399
18.60536
11.627203
9.0242083
10.426947
6.7600394
6.450203
7.4250513
8.4151754
11.818999
9.2026097
9.4228847
4.8096619
9.0379829
8.4496031
6.8073439
6.4306138
6.6599572
10.599116
5.1710943
6.4520817
8.0196556
10.036777
16.117862
41.238117