/*--------------------------------*- C++ -*----------------------------------*\
| =========                 |                                                 |
| \\      /  F ield         | OpenFOAM: The Open Source CFD Toolbox           |
|  \\    /   O peration     | Version:  2.3.0                                 |
|   \\  /    A nd           | Web:      www.OpenFOAM.org                      |
|    \\/     M anipulation  |                                                 |
\*---------------------------------------------------------------------------*/
FoamFile
{
    version     2.0;
    format      ascii;
    class       volScalarField;
    location    "1.8e-05";
    object      nuSgs;
}
// * * * * * * * * * * * * * * * * * * * * * * * * * * * * * * * * * * * * * //

dimensions      [0 2 -1 0 0 0 0];

internalField   nonuniform List<scalar> 
7500
(
4.1403639e-10
4.1906534e-10
4.2414355e-10
4.2903916e-10
4.3387348e-10
4.3861575e-10
4.4335204e-10
4.4806403e-10
4.5277257e-10
4.575553e-10
4.6234599e-10
4.6698655e-10
4.7160488e-10
4.7611974e-10
4.8058e-10
4.8496919e-10
4.8936943e-10
4.9381908e-10
4.9809078e-10
5.0244326e-10
5.0674891e-10
5.1102228e-10
5.1519764e-10
5.1942071e-10
5.2372821e-10
5.2812479e-10
5.3299454e-10
5.3799978e-10
5.4255897e-10
5.4717323e-10
5.514185e-10
5.5594496e-10
5.6027175e-10
5.6458863e-10
5.686639e-10
5.7257915e-10
5.7656562e-10
5.8093153e-10
5.8619552e-10
5.9983971e-10
6.0835391e-10
6.1860014e-10
6.2840031e-10
6.382528e-10
6.4775876e-10
6.5584272e-10
6.6350859e-10
6.7026631e-10
6.7614877e-10
6.8120116e-10
6.8558645e-10
6.894199e-10
6.9302703e-10
6.9658501e-10
6.9996725e-10
7.0308473e-10
7.0570588e-10
7.0876981e-10
7.1157518e-10
7.1445426e-10
7.1755389e-10
7.2071859e-10
7.240138e-10
7.2747203e-10
7.3152079e-10
7.3580452e-10
7.4119332e-10
7.4547773e-10
7.5153668e-10
7.5631216e-10
7.62933e-10
7.6837139e-10
7.7556487e-10
7.806448e-10
7.8961838e-10
4.5547134e-10
4.6095809e-10
4.6640197e-10
4.7183355e-10
4.771805e-10
4.8245659e-10
4.8770932e-10
4.9291622e-10
4.9808578e-10
5.0324287e-10
5.0837275e-10
5.1348884e-10
5.184977e-10
5.2347616e-10
5.2842639e-10
5.3335338e-10
5.3816051e-10
5.429816e-10
5.4773247e-10
5.5253329e-10
5.5729652e-10
5.6197767e-10
5.6683124e-10
5.7176835e-10
5.7725159e-10
5.829187e-10
5.8953092e-10
5.9613252e-10
6.0300634e-10
6.0999503e-10
6.1671843e-10
6.2324288e-10
6.294362e-10
6.3484254e-10
6.3982648e-10
6.4459021e-10
6.4961677e-10
6.5546377e-10
6.632821e-10
6.8475261e-10
7.0455325e-10
7.296464e-10
7.5295331e-10
7.7390814e-10
7.9482583e-10
8.1115415e-10
8.247262e-10
8.3730783e-10
8.4588877e-10
8.5413996e-10
8.6031e-10
8.6541526e-10
8.7061594e-10
8.7516432e-10
8.8069368e-10
8.8632948e-10
8.9209233e-10
8.987215e-10
9.0586436e-10
9.1406117e-10
9.2465924e-10
9.365217e-10
9.5300344e-10
9.6755212e-10
9.8941642e-10
1.0094976e-09
1.0333585e-09
1.0528105e-09
1.0840675e-09
1.1078492e-09
1.1427213e-09
1.1754133e-09
1.2139626e-09
1.2384932e-09
1.2872501e-09
5.0106429e-10
5.0727111e-10
5.1331289e-10
5.1940131e-10
5.2533533e-10
5.3116887e-10
5.3701228e-10
5.4283377e-10
5.4855284e-10
5.5421893e-10
5.5989189e-10
5.6563969e-10
5.7123373e-10
5.7690135e-10
5.8246618e-10
5.8805173e-10
5.935681e-10
5.9898407e-10
6.0465136e-10
6.1017598e-10
6.1612285e-10
6.2187545e-10
6.2855093e-10
6.3525949e-10
6.4426173e-10
6.5328439e-10
6.6716341e-10
6.8090458e-10
6.9791949e-10
7.1327032e-10
7.2849179e-10
7.407874e-10
7.5188429e-10
7.6080358e-10
7.6924087e-10
7.7821201e-10
7.8844532e-10
8.0277019e-10
8.2478111e-10
8.8093871e-10
9.420342e-10
1.0271053e-09
1.1040396e-09
1.1650704e-09
1.23407e-09
1.2847301e-09
1.3269932e-09
1.3750471e-09
1.4049441e-09
1.4447749e-09
1.4795576e-09
1.5121895e-09
1.5577197e-09
1.5936124e-09
1.6396729e-09
1.6942051e-09
1.7407491e-09
1.8036077e-09
1.8588342e-09
1.9317116e-09
2.0281926e-09
2.1050554e-09
2.2224244e-09
2.3131432e-09
2.4495921e-09
2.572387e-09
2.7049298e-09
2.8076485e-09
2.9692788e-09
3.0955959e-09
3.256517e-09
3.418047e-09
3.5831475e-09
3.6880827e-09
3.8866661e-09
5.5135008e-10
5.5899049e-10
5.6577219e-10
5.7279049e-10
5.7953757e-10
5.8609804e-10
5.9274348e-10
5.993289e-10
6.0580373e-10
6.1233351e-10
6.1905836e-10
6.2607426e-10
6.3266964e-10
6.396632e-10
6.461312e-10
6.5278324e-10
6.591314e-10
6.6554425e-10
6.7266688e-10
6.7995007e-10
6.887848e-10
6.968747e-10
7.073713e-10
7.1778768e-10
7.3437796e-10
7.5131735e-10
7.8396968e-10
8.123643e-10
8.6194658e-10
8.9438526e-10
9.3713065e-10
9.6466047e-10
1.0010432e-09
1.0308029e-09
1.0707464e-09
1.1214648e-09
1.1727391e-09
1.2600567e-09
1.3529014e-09
1.5391795e-09
1.6906259e-09
1.9331754e-09
2.184213e-09
2.3430955e-09
2.5995609e-09
2.7876123e-09
2.9651182e-09
3.1968569e-09
3.3492182e-09
3.5740941e-09
3.8056099e-09
4.0017253e-09
4.3061077e-09
4.517511e-09
4.8166416e-09
5.1062967e-09
5.3812303e-09
5.6499648e-09
5.9611393e-09
6.2746155e-09
6.6815278e-09
6.9876576e-09
7.4666003e-09
7.8247834e-09
8.3325898e-09
8.7853616e-09
9.2694189e-09
9.6315654e-09
1.0189396e-08
1.0633708e-08
1.1170873e-08
1.1714163e-08
1.223638e-08
1.2573667e-08
1.3186164e-08
5.9786505e-10
6.0823919e-10
6.1618452e-10
6.2501722e-10
6.3331694e-10
6.4198887e-10
6.5065968e-10
6.6043858e-10
6.7054015e-10
6.8118608e-10
6.9269985e-10
7.0401133e-10
7.1305514e-10
7.2301024e-10
7.3129805e-10
7.4025919e-10
7.4859927e-10
7.5804004e-10
7.6993258e-10
7.8396029e-10
7.9949374e-10
8.1410911e-10
8.3475646e-10
8.5754118e-10
8.9865206e-10
9.4276732e-10
1.0306316e-09
1.1050939e-09
1.2429291e-09
1.3444702e-09
1.5138534e-09
1.6479596e-09
1.8603979e-09
2.041093e-09
2.3213947e-09
2.5778004e-09
2.875297e-09
3.3016961e-09
3.659709e-09
4.1824097e-09
4.6668021e-09
5.2633271e-09
6.0734748e-09
6.5876821e-09
7.4038717e-09
8.0640316e-09
8.75557e-09
9.6157068e-09
1.0187579e-08
1.1105868e-08
1.1932394e-08
1.2722285e-08
1.3897437e-08
1.4661635e-08
1.5864743e-08
1.6651375e-08
1.7801773e-08
1.8603315e-08
1.9713895e-08
2.0618987e-08
2.1935905e-08
2.2872908e-08
2.4356834e-08
2.5455557e-08
2.6944039e-08
2.8239155e-08
2.9682576e-08
3.071536e-08
3.2300116e-08
3.3555995e-08
3.5097863e-08
3.6584198e-08
3.7992584e-08
3.890292e-08
4.0513141e-08
6.3154841e-10
6.4255294e-10
6.5310827e-10
6.6656481e-10
6.7951795e-10
6.9626064e-10
7.1232474e-10
7.3163144e-10
7.5660008e-10
7.7820332e-10
8.0372166e-10
8.2390321e-10
8.3870587e-10
8.5437054e-10
8.6573321e-10
8.7854417e-10
8.9202996e-10
9.109502e-10
9.3829512e-10
9.7309269e-10
1.0282025e-09
1.0921693e-09
1.203891e-09
1.3255302e-09
1.5420097e-09
1.746831e-09
2.1044297e-09
2.4140758e-09
2.9539353e-09
3.3889675e-09
4.1083529e-09
4.6901633e-09
5.6146073e-09
6.3426668e-09
7.4873844e-09
8.3467045e-09
9.6708831e-09
1.0686127e-08
1.2208911e-08
1.3511311e-08
1.5339595e-08
1.6811987e-08
1.9296445e-08
2.0842845e-08
2.3298246e-08
2.5208233e-08
2.7305256e-08
2.9915828e-08
3.1591413e-08
3.4394656e-08
3.6469166e-08
3.9180935e-08
4.2260985e-08
4.4447807e-08
4.7949771e-08
5.0122145e-08
5.3445001e-08
5.5524242e-08
5.8426253e-08
6.0746251e-08
6.4292508e-08
6.6705396e-08
7.0500575e-08
7.3384064e-08
7.7035012e-08
8.0208969e-08
8.3852727e-08
8.6375104e-08
9.021338e-08
9.3219124e-08
9.7023715e-08
1.0051361e-07
1.0388664e-07
1.0605396e-07
1.097509e-07
6.6270285e-10
6.9137912e-10
7.1461534e-10
7.5162161e-10
7.7461889e-10
8.1002704e-10
8.4103767e-10
8.7229889e-10
9.1850482e-10
9.4764466e-10
9.8985893e-10
1.0142241e-09
1.0423887e-09
1.0672856e-09
1.0919548e-09
1.127106e-09
1.1787086e-09
1.2637158e-09
1.3937738e-09
1.6009398e-09
1.9255891e-09
2.3029633e-09
2.9180621e-09
3.5121339e-09
4.4666682e-09
5.2799111e-09
6.6272964e-09
7.7233117e-09
9.6033068e-09
1.1028288e-08
1.3424578e-08
1.523527e-08
1.8210795e-08
2.0392828e-08
2.3928688e-08
2.6405681e-08
3.0335231e-08
3.3147562e-08
3.7608945e-08
4.0807672e-08
4.6146985e-08
4.9835043e-08
5.611415e-08
6.0101835e-08
6.674608e-08
7.125276e-08
7.6828523e-08
8.3263202e-08
8.7393378e-08
9.4239244e-08
9.8977116e-08
1.0638965e-07
1.1252698e-07
1.1811677e-07
1.2626192e-07
1.3136924e-07
1.3914476e-07
1.4386182e-07
1.5016914e-07
1.5553553e-07
1.633793e-07
1.6859424e-07
1.7658382e-07
1.8314233e-07
1.9055448e-07
1.9741732e-07
2.0501286e-07
2.1032546e-07
2.1820043e-07
2.245179e-07
2.325021e-07
2.3975497e-07
2.4655226e-07
2.510698e-07
2.5832586e-07
6.887716e-10
7.6823294e-10
7.9824248e-10
8.5960154e-10
8.916457e-10
9.5066915e-10
1.0077808e-09
1.0594299e-09
1.1073492e-09
1.1435842e-09
1.179913e-09
1.2180089e-09
1.2708148e-09
1.353962e-09
1.4851354e-09
1.7064319e-09
2.0423931e-09
2.5850023e-09
3.2781793e-09
4.3412685e-09
5.5864625e-09
7.0566277e-09
9.2633594e-09
1.1234135e-08
1.4298436e-08
1.6802434e-08
2.0940297e-08
2.4116991e-08
2.9538218e-08
3.3425237e-08
4.0108035e-08
4.4833923e-08
5.2874052e-08
5.8388342e-08
6.7566826e-08
7.3673719e-08
8.3588933e-08
9.0310037e-08
1.0103108e-07
1.0846863e-07
1.2091558e-07
1.2918568e-07
1.4358055e-07
1.5235533e-07
1.6746155e-07
1.7643904e-07
1.8999361e-07
2.0224885e-07
2.1128189e-07
2.2628355e-07
2.3619454e-07
2.5169772e-07
2.6263818e-07
2.7559642e-07
2.9126673e-07
3.0282057e-07
3.1713279e-07
3.2740312e-07
3.3940055e-07
3.5095794e-07
3.6627539e-07
3.7648765e-07
3.9151616e-07
4.0524472e-07
4.1883647e-07
4.3298438e-07
4.4696811e-07
4.5785085e-07
4.7218315e-07
4.8513948e-07
5.0100251e-07
5.1537008e-07
5.279866e-07
5.3666942e-07
5.4925171e-07
6.8963323e-10
7.4280498e-10
7.7405668e-10
8.3848358e-10
9.2508162e-10
1.0043409e-09
1.1273254e-09
1.1948556e-09
1.3135416e-09
1.390408e-09
1.5302387e-09
1.7021815e-09
1.9877319e-09
2.4495086e-09
3.137871e-09
4.2351136e-09
5.6282946e-09
7.7950246e-09
1.0075869e-08
1.3734192e-08
1.7088359e-08
2.2014532e-08
2.7841393e-08
3.3385414e-08
4.1623766e-08
4.8265091e-08
5.9189486e-08
6.7041631e-08
8.0356275e-08
8.959079e-08
1.0564952e-07
1.1634893e-07
1.3494229e-07
1.4698613e-07
1.6738528e-07
1.8050291e-07
2.0189003e-07
2.1605172e-07
2.3843844e-07
2.5371984e-07
2.7910869e-07
2.9569537e-07
3.246792e-07
3.4190999e-07
3.7166972e-07
3.8898068e-07
4.169612e-07
4.3611442e-07
4.5836166e-07
4.8519567e-07
5.039694e-07
5.3193659e-07
5.5334744e-07
5.8058427e-07
6.0708151e-07
6.324369e-07
6.5577868e-07
6.8164949e-07
7.0238331e-07
7.2754442e-07
7.5813138e-07
7.7894308e-07
8.0874613e-07
8.3823823e-07
8.6359844e-07
8.9343788e-07
9.1841379e-07
9.425049e-07
9.732922e-07
1.0030529e-06
1.0341062e-06
1.0605804e-06
1.0814979e-06
1.0977837e-06
1.1182673e-06
7.1881186e-10
7.8928044e-10
8.4977849e-10
9.1588858e-10
1.01346e-09
1.0780487e-09
1.1946389e-09
1.3065286e-09
1.516611e-09
1.8389849e-09
2.3943266e-09
3.2415456e-09
4.494789e-09
6.3599108e-09
8.8404878e-09
1.2701835e-08
1.6859535e-08
2.3464071e-08
2.9625122e-08
3.9774652e-08
4.8217718e-08
6.2625685e-08
7.3427939e-08
9.019444e-08
1.0691583e-07
1.2365676e-07
1.4800421e-07
1.6474726e-07
1.9330063e-07
2.1279585e-07
2.4629486e-07
2.6764539e-07
3.0493591e-07
3.2834074e-07
3.680461e-07
3.9384097e-07
4.329457e-07
4.6321223e-07
5.0367766e-07
5.3374433e-07
5.821382e-07
6.1362057e-07
6.6777421e-07
7.001501e-07
7.5488765e-07
7.8722426e-07
8.4022433e-07
8.7389115e-07
9.2631552e-07
9.6269507e-07
1.012241e-06
1.0579723e-06
1.1069361e-06
1.1631978e-06
1.2090582e-06
1.27086e-06
1.3226612e-06
1.3837593e-06
1.4301552e-06
1.4917744e-06
1.5584428e-06
1.6051972e-06
1.6730658e-06
1.7338336e-06
1.7895203e-06
1.8445247e-06
1.9059921e-06
1.9831019e-06
2.0747481e-06
2.1252349e-06
2.1748136e-06
2.2098759e-06
2.2425236e-06
2.2772454e-06
2.3313919e-06
7.2384191e-10
8.6568088e-10
9.1951664e-10
1.0441289e-09
1.1061025e-09
1.2121711e-09
1.4011691e-09
1.7791409e-09
2.4995543e-09
3.6960762e-09
5.5495162e-09
8.3316592e-09
1.2208541e-08
1.814644e-08
2.5146021e-08
3.6217682e-08
4.679272e-08
6.3969427e-08
7.8477315e-08
1.0288881e-07
1.2162798e-07
1.5413972e-07
1.769357e-07
2.1710349e-07
2.4363877e-07
2.8660714e-07
3.2611814e-07
3.6073071e-07
4.1714783e-07
4.5403635e-07
5.1525569e-07
5.5458479e-07
6.2281961e-07
6.6599836e-07
7.3635162e-07
7.9021916e-07
8.4933691e-07
9.2644313e-07
9.8732617e-07
1.0622302e-06
1.1456357e-06
1.2053239e-06
1.3065747e-06
1.3699466e-06
1.4749525e-06
1.5404866e-06
1.6547573e-06
1.7276211e-06
1.8431892e-06
1.9169473e-06
2.0386347e-06
2.119789e-06
2.2552475e-06
2.389034e-06
2.4969257e-06
2.685368e-06
2.8297201e-06
2.9612109e-06
3.1166425e-06
3.2701055e-06
3.3895361e-06
3.4953387e-06
3.6696659e-06
3.7977786e-06
3.9115209e-06
4.0695019e-06
4.4131547e-06
4.7224973e-06
4.8054541e-06
4.7485782e-06
4.8552283e-06
4.9020852e-06
4.9886354e-06
5.1624433e-06
5.488181e-06
7.057048e-10
7.6735304e-10
8.2524846e-10
9.4690135e-10
1.1619009e-09
1.6163842e-09
2.5092182e-09
4.0216587e-09
6.4406332e-09
1.0071191e-08
1.5325921e-08
2.3215059e-08
3.3569094e-08
5.0032581e-08
6.6732232e-08
9.3951459e-08
1.1741978e-07
1.5613528e-07
1.8628875e-07
2.3763776e-07
2.7461466e-07
3.3922071e-07
3.8240736e-07
4.5869697e-07
5.0736937e-07
5.9313814e-07
6.4816559e-07
7.3524911e-07
8.1849501e-07
8.8989081e-07
9.9733734e-07
1.0711402e-06
1.1963146e-06
1.2790196e-06
1.4075659e-06
1.5022281e-06
1.6520818e-06
1.8089837e-06
1.9256974e-06
2.1001257e-06
2.2419418e-06
2.3628609e-06
2.5725792e-06
2.7097966e-06
2.9856343e-06
3.1237073e-06
3.4769738e-06
3.6109729e-06
3.9190252e-06
4.0415451e-06
4.4247775e-06
4.5683442e-06
5.1261988e-06
5.5097246e-06
5.7044646e-06
6.5896443e-06
6.6506527e-06
6.9979287e-06
7.5060579e-06
7.6381472e-06
7.7681773e-06
8.1068542e-06
8.717228e-06
8.9588119e-06
9.2028648e-06
9.9810255e-06
1.0059113e-05
9.9483707e-06
9.3772146e-06
9.4486171e-06
9.9499413e-06
1.016183e-05
1.0634023e-05
1.0996142e-05
1.1185224e-05
7.5803234e-10
8.2720408e-10
9.1559192e-10
1.1830018e-09
1.9385472e-09
3.5009306e-09
6.2755615e-09
1.0624614e-08
1.7184601e-08
2.6882352e-08
4.0340432e-08
6.1784881e-08
8.5632852e-08
1.2513077e-07
1.60043e-07
2.1845004e-07
2.6435714e-07
3.407495e-07
3.9710419e-07
4.9323219e-07
5.6033083e-07
6.7728854e-07
7.5419007e-07
8.8978772e-07
9.7666428e-07
1.1313578e-06
1.2310146e-06
1.4066967e-06
1.517715e-06
1.7025065e-06
1.8752218e-06
2.0354197e-06
2.282458e-06
2.4717131e-06
2.6912703e-06
2.9585972e-06
3.4120797e-06
3.6580978e-06
3.9462285e-06
4.3213417e-06
4.5814419e-06
4.8748179e-06
5.5262164e-06
5.7745037e-06
6.8995893e-06
6.8297168e-06
8.0788584e-06
8.0116639e-06
9.0815087e-06
8.9483932e-06
1.0701793e-05
1.02559e-05
1.1985768e-05
1.1547721e-05
1.2010218e-05
1.3869588e-05
1.2576532e-05
1.4469341e-05
1.4397915e-05
1.3005836e-05
1.3003696e-05
1.3984407e-05
1.3683632e-05
1.3382617e-05
1.3126799e-05
1.3334147e-05
1.0482754e-05
8.2214677e-06
8.5985723e-06
1.0770881e-05
1.0847159e-05
1.1526433e-05
1.2135759e-05
1.090111e-05
9.6899407e-06
7.2422609e-10
8.7829473e-10
1.2494101e-09
2.4164655e-09
4.8663839e-09
9.2631249e-09
1.6441237e-08
2.7350365e-08
4.3161093e-08
6.7089133e-08
9.8180647e-08
1.4964358e-07
1.9800708e-07
2.8021406e-07
3.4605341e-07
4.5748711e-07
5.3904212e-07
6.7537515e-07
7.7423183e-07
9.4179915e-07
1.0611855e-06
1.266156e-06
1.404995e-06
1.6505179e-06
1.8157678e-06
2.1172955e-06
2.3078285e-06
2.657586e-06
2.8691716e-06
3.3473066e-06
3.633026e-06
4.0955981e-06
4.5911862e-06
5.0157521e-06
5.5857824e-06
6.6530981e-06
7.650073e-06
7.9275987e-06
8.6708499e-06
9.576043e-06
9.8551143e-06
1.0991624e-05
1.1388245e-05
1.2169646e-05
1.3588417e-05
1.2927125e-05
1.4183461e-05
1.3447928e-05
1.3870744e-05
1.3867923e-05
1.5226631e-05
1.3768941e-05
1.3551985e-05
1.226445e-05
1.375166e-05
1.0240935e-05
9.6858092e-06
1.1237697e-05
9.240814e-06
7.2209711e-06
7.6108692e-06
8.4758496e-06
7.2681624e-06
6.3874179e-06
5.7984811e-06
5.2866893e-06
3.617716e-06
3.1618435e-06
3.5671586e-06
4.18157e-06
3.825914e-06
4.3475227e-06
4.544214e-06
3.524675e-06
2.9709878e-06
6.905866e-10
9.8678807e-10
2.4334462e-09
5.9313787e-09
1.2533316e-08
2.3537478e-08
4.0862907e-08
6.614092e-08
1.0152283e-07
1.5860185e-07
2.2097974e-07
3.2692571e-07
4.1553693e-07
5.652874e-07
6.8234023e-07
8.7476634e-07
1.0141342e-06
1.2507171e-06
1.4270732e-06
1.728163e-06
1.9545844e-06
2.3349666e-06
2.6031827e-06
3.1137793e-06
3.4507035e-06
4.1233357e-06
4.4801363e-06
5.3054074e-06
5.7020847e-06
7.2643831e-06
7.6811759e-06
9.0098329e-06
9.7869821e-06
1.1201175e-05
1.1997177e-05
1.3797414e-05
1.3681421e-05
1.3195433e-05
1.445927e-05
1.33648e-05
1.3135261e-05
1.3282406e-05
1.2699083e-05
1.4071766e-05
1.0838122e-05
1.0931685e-05
9.474162e-06
8.4857425e-06
7.0050823e-06
7.2233662e-06
6.3366281e-06
7.4752576e-06
4.8304241e-06
5.382465e-06
7.0857922e-06
3.4387883e-06
4.2807076e-06
4.7216278e-06
2.8661935e-06
2.425189e-06
3.4618824e-06
3.1318872e-06
2.4254432e-06
2.1782736e-06
2.3888304e-06
2.3027925e-06
2.3652201e-06
2.3791591e-06
2.8542437e-06
2.9506966e-06
2.6616221e-06
2.5612651e-06
2.2563462e-06
2.1567401e-06
2.0073731e-06
6.9509292e-10
1.9613078e-09
6.2225757e-09
1.5043618e-08
3.0867326e-08
5.6003531e-08
9.4368118e-08
1.4810764e-07
2.2116679e-07
3.4209683e-07
4.5590272e-07
6.4941695e-07
8.0159978e-07
1.0525516e-06
1.2693622e-06
1.5767379e-06
1.8294644e-06
2.2749591e-06
2.6035631e-06
3.2232382e-06
3.6807515e-06
4.4717565e-06
5.0216723e-06
6.3695187e-06
7.0176255e-06
8.5233079e-06
9.2776733e-06
1.1046915e-05
1.154125e-05
1.358578e-05
1.3177626e-05
1.4545593e-05
1.4107805e-05
1.5689709e-05
1.3914242e-05
1.2741975e-05
8.9271751e-06
9.2022982e-06
7.8225636e-06
5.5449253e-06
5.8604266e-06
4.4816722e-06
5.0942775e-06
5.6105248e-06
2.9616432e-06
3.9056943e-06
2.8611337e-06
2.4206025e-06
2.1717296e-06
2.6984815e-06
2.5267865e-06
2.5680918e-06
2.3573323e-06
2.4400075e-06
3.2230696e-06
2.1623669e-06
2.8190865e-06
2.9042252e-06
1.9751199e-06
1.8676253e-06
2.5461517e-06
2.4774635e-06
2.1609641e-06
1.8822381e-06
1.9351015e-06
2.2514161e-06
1.9750217e-06
2.0971488e-06
2.5523843e-06
2.9526644e-06
2.7487257e-06
2.8437299e-06
2.8864689e-06
2.3909308e-06
1.9720872e-06
6.4329956e-10
4.9735443e-09
1.5638787e-08
3.626305e-08
7.1262691e-08
1.2438584e-07
2.0337896e-07
3.0853395e-07
4.4940441e-07
6.7560098e-07
8.6968183e-07
1.19531e-06
1.4559404e-06
1.8851401e-06
2.3155451e-06
2.7791996e-06
3.3464218e-06
4.2781641e-06
4.9251141e-06
6.4757238e-06
7.4373104e-06
9.2086037e-06
1.0357341e-05
1.1947353e-05
1.2503747e-05
1.3645124e-05
1.3841027e-05
1.360829e-05
1.3248391e-05
1.1721191e-05
1.1871865e-05
8.6977683e-06
8.3334844e-06
9.3483796e-06
4.8579212e-06
3.7679272e-06
2.6958923e-06
3.0965604e-06
2.5194054e-06
1.7925841e-06
1.9330267e-06
2.2607429e-06
2.4348657e-06
1.8597913e-06
1.3303275e-06
1.9971356e-06
1.5460171e-06
1.4203821e-06
1.3441958e-06
2.1297975e-06
2.4288765e-06
2.1650566e-06
2.9914461e-06
2.4472922e-06
2.2595766e-06
1.9805814e-06
2.274834e-06
2.2394693e-06
1.8333831e-06
1.8062546e-06
2.1789681e-06
2.3361483e-06
2.0279404e-06
1.789831e-06
1.9179998e-06
1.8893386e-06
1.8555896e-06
1.9921444e-06
2.5754219e-06
3.2030904e-06
2.9256606e-06
3.0633001e-06
2.9802018e-06
2.269042e-06
1.9726661e-06
1.313914e-09
1.22929e-08
3.7008149e-08
8.1828914e-08
1.534139e-07
2.5726058e-07
4.1016344e-07
5.9775154e-07
8.6146598e-07
1.2360092e-06
1.5673083e-06
2.1150215e-06
2.5926596e-06
3.451494e-06
4.1957974e-06
5.1567978e-06
6.671362e-06
8.5548683e-06
9.8925146e-06
1.2234389e-05
1.2747638e-05
1.4030768e-05
1.3599028e-05
1.2414994e-05
1.2346739e-05
9.2623423e-06
8.0915586e-06
7.1488353e-06
6.9697202e-06
4.2295669e-06
5.9135132e-06
3.0285924e-06
3.0201824e-06
2.8763287e-06
1.3180562e-06
1.2629339e-06
1.5013333e-06
1.6776278e-06
1.5920419e-06
1.398519e-06
1.2736446e-06
1.3440377e-06
1.8557786e-06
1.3705568e-06
1.2759147e-06
1.3236988e-06
1.2437137e-06
1.1628598e-06
1.2441265e-06
1.5894547e-06
3.7484201e-06
2.4350371e-06
1.8661777e-06
2.1253627e-06
2.0508403e-06
1.8700585e-06
2.1525793e-06
2.0079007e-06
1.8566377e-06
1.7505365e-06
1.926654e-06
1.8680069e-06
1.7922644e-06
1.7652294e-06
1.888749e-06
1.8889155e-06
1.8567908e-06
2.0525799e-06
2.9237559e-06
3.2023098e-06
2.9258698e-06
2.7838943e-06
2.5031075e-06
2.0791773e-06
1.923836e-06
4.470899e-10
2.8871531e-08
8.2122554e-08
1.7247813e-07
3.0813813e-07
4.9719481e-07
7.6712024e-07
1.0925571e-06
1.6026985e-06
2.1375584e-06
2.7751973e-06
3.7755613e-06
4.750369e-06
6.6425373e-06
8.1401258e-06
1.0510958e-05
1.1727232e-05
1.3134139e-05
1.3308901e-05
1.2976145e-05
1.1167029e-05
9.6429186e-06
6.1054885e-06
5.3828263e-06
5.1149054e-06
2.8429581e-06
2.8061025e-06
2.7995718e-06
2.8083216e-06
1.8084357e-06
2.1376925e-06
1.1405227e-06
2.229674e-06
2.9123666e-06
1.0042661e-06
1.0211234e-06
1.1117151e-06
1.1576052e-06
1.9470491e-06
1.8737307e-06
1.8736751e-06
1.824814e-06
1.7719571e-06
1.1895407e-06
1.3770606e-06
1.3543278e-06
1.3527054e-06
1.2499243e-06
1.2179674e-06
1.337604e-06
2.1461859e-06
1.8987552e-06
2.2090559e-06
1.9437886e-06
1.9621387e-06
1.8450732e-06
2.175253e-06
1.9801505e-06
1.9008455e-06
1.8926868e-06
1.8420315e-06
1.8217506e-06
1.861797e-06
1.981162e-06
2.0216157e-06
1.9107768e-06
1.8909379e-06
2.0006527e-06
2.4081569e-06
2.8784624e-06
2.6767012e-06
2.378203e-06
2.3237541e-06
2.1308126e-06
1.862354e-06
5.5847213e-09
6.558656e-08
1.7214818e-07
3.4061769e-07
5.7958288e-07
9.0339717e-07
1.3526606e-06
1.938053e-06
2.8406482e-06
3.7300464e-06
5.108109e-06
7.1944291e-06
9.3737844e-06
1.1373638e-05
1.2888462e-05
1.2722316e-05
1.159116e-05
9.5554466e-06
7.82794e-06
5.6066833e-06
4.3002381e-06
3.0422328e-06
2.0731806e-06
2.248768e-06
1.6937379e-06
9.9247852e-07
1.469359e-06
1.4363357e-06
1.818763e-06
1.8677382e-06
8.1363202e-07
9.5739981e-07
1.775345e-06
1.7369353e-06
9.2468522e-07
9.6058999e-07
1.0920543e-06
1.1189833e-06
2.6491315e-06
2.2196503e-06
2.5431494e-06
2.1508326e-06
1.6605741e-06
1.4130426e-06
1.4766102e-06
1.3709195e-06
1.2910507e-06
1.3650601e-06
1.3909847e-06
1.2946803e-06
1.2647897e-06
2.2847198e-06
2.0669815e-06
1.6594873e-06
1.6075114e-06
1.7156195e-06
1.9856221e-06
1.9947151e-06
1.9395716e-06
1.9946306e-06
1.9337616e-06
1.9815853e-06
2.0936327e-06
2.1616623e-06
2.0738777e-06
1.9389008e-06
1.9662801e-06
2.0936161e-06
2.2052094e-06
2.503243e-06
2.4709149e-06
2.3235818e-06
2.3804661e-06
2.1623801e-06
1.8691692e-06
1.8442972e-08
1.4048459e-07
3.398718e-07
6.3151301e-07
1.0288628e-06
1.570281e-06
2.3442452e-06
3.4512353e-06
5.0668734e-06
6.9480376e-06
1.0225582e-05
1.1516419e-05
1.2361769e-05
1.1610518e-05
1.064982e-05
6.1709481e-06
5.0720131e-06
3.631362e-06
2.9614352e-06
1.8977939e-06
1.6167413e-06
1.0872492e-06
1.657327e-06
1.2004471e-06
8.5682356e-07
7.3171269e-07
1.1581894e-06
1.3471173e-06
1.6587752e-06
1.4924092e-06
6.2444241e-07
7.3669985e-07
1.4569248e-06
1.3964832e-06
9.9761331e-07
9.4129357e-07
1.1612547e-06
1.1550459e-06
3.1315676e-06
2.3515001e-06
2.4961242e-06
1.880405e-06
1.5580536e-06
1.6094929e-06
1.5730954e-06
1.2760093e-06
1.2651497e-06
1.4788944e-06
2.6406624e-06
1.7830502e-06
1.660487e-06
1.8399714e-06
2.0836311e-06
1.6732146e-06
1.5532282e-06
1.7029576e-06
1.9412693e-06
2.0801524e-06
2.0998719e-06
2.3422678e-06
2.1807025e-06
2.2766517e-06
2.4360777e-06
2.2676942e-06
2.0428413e-06
2.0959204e-06
2.1670387e-06
2.2547804e-06
2.2841043e-06
2.4718004e-06
2.5053479e-06
2.3240831e-06
2.3220183e-06
2.063098e-06
1.8679905e-06
5.0081356e-08
2.843121e-07
6.3097538e-07
1.1051147e-06
1.7492662e-06
2.6786845e-06
4.1393909e-06
6.3853638e-06
9.7203366e-06
1.0948906e-05
1.2559034e-05
1.039724e-05
7.1799252e-06
5.3108157e-06
4.3689478e-06
1.9586881e-06
2.3068879e-06
1.4871628e-06
1.2420333e-06
7.4109126e-07
7.6626186e-07
9.4503632e-07
1.3217373e-06
8.7973264e-07
9.2581449e-07
7.6330736e-07
1.0114052e-06
1.0548635e-06
1.5276011e-06
1.3084989e-06
7.0065411e-07
6.9983908e-07
1.152492e-06
1.0274025e-06
9.8795048e-07
9.0718259e-07
1.1779447e-06
1.3012324e-06
2.6867924e-06
2.3437558e-06
1.7739027e-06
1.6282184e-06
1.4064885e-06
1.4993062e-06
1.402026e-06
1.3157407e-06
1.338971e-06
1.9431815e-06
2.8409116e-06
2.2577081e-06
1.8098881e-06
1.8414592e-06
1.7698479e-06
1.4637068e-06
1.5533489e-06
1.6960271e-06
2.0517713e-06
2.0405655e-06
2.2866555e-06
2.7453483e-06
2.4847683e-06
2.8304987e-06
2.6847086e-06
2.2123584e-06
2.1352676e-06
2.319263e-06
2.534538e-06
2.5371184e-06
2.3644061e-06
2.5779417e-06
2.5387303e-06
2.3218e-06
2.2553922e-06
2.0470544e-06
1.9103207e-06
1.2191822e-07
5.438675e-07
1.1067503e-06
1.8492516e-06
2.9180045e-06
4.6377648e-06
7.7920303e-06
1.0484614e-05
1.2056984e-05
1.0634709e-05
7.2116204e-06
4.1068836e-06
2.7108852e-06
2.3791627e-06
1.4321614e-06
8.1799645e-07
1.1592382e-06
7.8757988e-07
1.3672645e-06
6.4299871e-07
6.6334553e-07
8.3235903e-07
9.2450318e-07
7.956605e-07
8.8831398e-07
9.8719035e-07
9.7173967e-07
1.3157877e-06
1.0634043e-06
1.2129539e-06
1.0275327e-06
6.8269017e-07
9.3298855e-07
1.0291482e-06
8.8072207e-07
8.4553049e-07
1.1846709e-06
1.5052874e-06
1.9106359e-06
2.1682642e-06
2.5461093e-06
1.8573271e-06
1.463081e-06
1.4862562e-06
1.380775e-06
1.539099e-06
1.3444981e-06
1.4741675e-06
2.7644263e-06
2.1799104e-06
1.7917011e-06
1.6935232e-06
1.4548077e-06
1.4057856e-06
1.4595405e-06
1.7537177e-06
2.516786e-06
2.6208647e-06
2.484141e-06
2.7501666e-06
4.269039e-06
3.3999774e-06
2.762319e-06
2.2642666e-06
2.2662081e-06
2.4523167e-06
2.7325426e-06
2.6649203e-06
2.3933118e-06
2.523167e-06
2.4323429e-06
2.3579363e-06
2.2540688e-06
2.1149244e-06
2.013095e-06
2.7442098e-07
9.8498186e-07
1.8525716e-06
3.0160027e-06
4.9414958e-06
8.5768435e-06
1.0620826e-05
1.0484414e-05
7.2228575e-06
5.1590992e-06
2.8026607e-06
1.2459981e-06
9.8466099e-07
1.1532942e-06
8.6200856e-07
4.6253335e-07
7.8200756e-07
6.4812157e-07
6.6136575e-07
5.4735838e-07
5.4872465e-07
7.1765782e-07
8.3822749e-07
8.7411461e-07
8.9349062e-07
1.4135941e-06
1.0225793e-06
1.1840013e-06
7.3656312e-07
1.0743463e-06
1.1164567e-06
6.9912181e-07
1.0634117e-06
1.1021228e-06
8.305926e-07
8.5753392e-07
1.2177357e-06
2.1874179e-06
2.2029153e-06
2.2332742e-06
2.2545544e-06
1.7971805e-06
1.6269215e-06
1.5741172e-06
1.4192984e-06
1.4322453e-06
1.3044716e-06
1.4422067e-06
3.1535025e-06
1.7368419e-06
1.5574702e-06
1.4532449e-06
1.4161195e-06
1.4236068e-06
1.526604e-06
1.9424603e-06
2.6862431e-06
2.7743877e-06
2.4758619e-06
2.4867769e-06
3.9237033e-06
2.7280117e-06
2.6283375e-06
2.3462348e-06
2.3661932e-06
2.6175302e-06
2.8409369e-06
2.7997414e-06
2.4626597e-06
2.415356e-06
2.3946415e-06
2.3659336e-06
2.2079624e-06
2.2069416e-06
2.1948187e-06
5.7909277e-07
1.6992325e-06
2.9969986e-06
4.9435255e-06
8.8428377e-06
1.0863652e-05
8.714131e-06
5.1593415e-06
3.0086332e-06
2.1932154e-06
7.7593032e-07
3.5649666e-07
4.5957699e-07
7.2643061e-07
6.3138729e-07
3.9489393e-07
6.4502704e-07
5.8434429e-07
4.7649185e-07
4.8722767e-07
4.9708991e-07
6.8703406e-07
8.939994e-07
9.5764207e-07
9.7791222e-07
1.7031681e-06
9.9865067e-07
7.5567174e-07
6.669003e-07
1.0855333e-06
1.1474343e-06
7.1686057e-07
1.2598327e-06
1.0982672e-06
8.0966353e-07
9.1283048e-07
1.2846741e-06
2.0631243e-06
1.3817805e-06
1.8467169e-06
2.0416252e-06
1.8430574e-06
1.7589351e-06
1.6271095e-06
1.4402877e-06
1.3827299e-06
1.3178323e-06
1.4728089e-06
1.863219e-06
1.4637037e-06
1.4133109e-06
1.5166653e-06
1.5306846e-06
1.5617349e-06
1.5310706e-06
2.0289405e-06
2.3149184e-06
2.4243784e-06
2.4748012e-06
2.4780683e-06
2.7941228e-06
2.570237e-06
2.6467827e-06
2.6039127e-06
2.5104114e-06
2.9897858e-06
3.2160588e-06
3.0888688e-06
2.5987769e-06
2.4406768e-06
2.4584035e-06
2.4791213e-06
2.2837444e-06
2.4791648e-06
2.5713342e-06
1.1585326e-06
2.8071863e-06
4.7930495e-06
8.4854174e-06
1.0349173e-05
8.1433998e-06
4.6114154e-06
2.1912527e-06
1.0681785e-06
7.7491358e-07
2.7351926e-07
2.4251494e-07
3.3834429e-07
5.2071765e-07
3.8638092e-07
3.3351828e-07
5.8131899e-07
5.0120605e-07
3.5209267e-07
4.9802867e-07
5.1321977e-07
8.1992063e-07
1.1028619e-06
8.478534e-07
1.0137574e-06
1.7126952e-06
9.6370689e-07
8.8256459e-07
6.4509417e-07
1.1363118e-06
1.0445165e-06
7.1299558e-07
8.1043983e-07
1.1265102e-06
9.0358732e-07
8.7651045e-07
1.3341869e-06
1.7242613e-06
1.2770587e-06
1.8389214e-06
3.2742941e-06
2.1800826e-06
1.9021759e-06
1.6917531e-06
1.41193e-06
1.3896349e-06
1.3242912e-06
1.3933068e-06
1.4146179e-06
1.4529131e-06
2.011337e-06
1.7169409e-06
1.6577256e-06
1.8828116e-06
1.6654345e-06
2.0725435e-06
2.4980612e-06
2.3571867e-06
2.4576109e-06
2.39407e-06
2.4475534e-06
2.741943e-06
2.8481829e-06
2.7431644e-06
2.7415696e-06
3.1292209e-06
3.4253037e-06
3.2596775e-06
2.8199398e-06
2.5018101e-06
2.6939629e-06
2.6811833e-06
2.349911e-06
2.7814654e-06
3.0295154e-06
2.2230604e-06
4.4727149e-06
7.8631414e-06
9.6542301e-06
7.3261129e-06
4.7478059e-06
1.6773353e-06
7.1893638e-07
4.1627542e-07
4.1015209e-07
2.3923263e-07
2.9629775e-07
3.031197e-07
4.082335e-07
3.4844123e-07
3.0749004e-07
5.3860482e-07
5.2030829e-07
3.3308747e-07
5.0028037e-07
5.5075594e-07
9.3232042e-07
1.430108e-06
9.6135514e-07
1.0238331e-06
1.4936105e-06
8.8512661e-07
7.990823e-07
6.3613521e-07
9.7302767e-07
8.9231007e-07
6.6625863e-07
7.2416016e-07
1.0656355e-06
9.3057472e-07
8.703581e-07
1.3936006e-06
1.4994269e-06
1.3147437e-06
1.7468483e-06
2.394828e-06
1.5545294e-06
1.8009439e-06
1.484713e-06
1.4352457e-06
1.3317037e-06
1.3484725e-06
1.9573041e-06
1.6194843e-06
1.650584e-06
2.2974656e-06
1.7971915e-06
1.80031e-06
2.325759e-06
1.9653286e-06
2.2394483e-06
2.8360009e-06
2.3905764e-06
2.5604353e-06
2.5912178e-06
2.5808774e-06
2.8816579e-06
2.9097199e-06
2.7450075e-06
2.8616289e-06
3.0742545e-06
3.3444008e-06
3.3082872e-06
2.8857395e-06
2.658846e-06
2.7797907e-06
2.6102264e-06
2.3891523e-06
3.1074194e-06
3.2197249e-06
3.8654417e-06
7.1399197e-06
9.8368453e-06
7.5646148e-06
4.6803903e-06
2.1152017e-06
5.2940867e-07
2.6444695e-07
2.6247239e-07
4.0582718e-07
2.6040844e-07
4.1197237e-07
2.9991073e-07
3.4867405e-07
3.3622059e-07
3.0041762e-07
5.0537682e-07
4.935808e-07
3.210132e-07
4.970988e-07
5.4170467e-07
8.4377876e-07
1.5160866e-06
1.2013052e-06
1.0292106e-06
1.0868064e-06
8.7071316e-07
1.0588011e-06
6.3974604e-07
8.3628166e-07
7.7063465e-07
6.6009824e-07
6.9698425e-07
1.0259961e-06
1.0357836e-06
8.9114847e-07
1.4217007e-06
1.3700303e-06
1.3692647e-06
1.7389885e-06
1.9370762e-06
1.3332572e-06
1.5929374e-06
1.4373765e-06
1.4438855e-06
1.4022961e-06
1.4760865e-06
2.3904916e-06
1.8473633e-06
1.7769321e-06
1.6831881e-06
1.6730283e-06
1.8619854e-06
1.8990326e-06
2.0607163e-06
2.3634678e-06
2.9862677e-06
2.5829018e-06
2.7173177e-06
2.81708e-06
2.4029412e-06
2.9427589e-06
2.9593542e-06
2.8064855e-06
2.8920412e-06
2.9085729e-06
3.0413754e-06
3.2748798e-06
3.008745e-06
2.8584822e-06
2.7905476e-06
2.482334e-06
2.6958002e-06