/*--------------------------------*- C++ -*----------------------------------*\
| =========                 |                                                 |
| \\      /  F ield         | OpenFOAM: The Open Source CFD Toolbox           |
|  \\    /   O peration     | Version:  2.3.0                                 |
|   \\  /    A nd           | Web:      www.OpenFOAM.org                      |
|    \\/     M anipulation  |                                                 |
\*---------------------------------------------------------------------------*/
FoamFile
{
    version     2.0;
    format      ascii;
    class       volScalarField;
    location    "1.8e-05";
    object      p;
}
// * * * * * * * * * * * * * * * * * * * * * * * * * * * * * * * * * * * * * //

dimensions      [1 -1 -2 0 0 0 0];

internalField   nonuniform List<scalar> 
7500
(
-11993.582
-13134.536
-7669.1055
7971.1764
-264.13851
2700.5499
-1172.2112
3311.4333
3272.4499
4385.3079
4134.083
3740.6886
2017.8641
5366.2072
674.69846
4339.2129
4572.6329
1298.4736
6410.7093
3287.3184
8650.3303
-5584.9867
11766.004
-4537.785
12578.633
-603.1933
5171.5306
10383.676
2567.6631
14375.723
2515.4501
7928.0612
6317.4025
15085.773
7521.0846
20721.725
18743.534
15838.929
20515.806
1689.6118
-4264.1795
8997.7485
9473.5183
-1916.9671
22712.306
20276.666
2587.698
23193.686
4560.7626
12465.237
24832.348
15622.117
54553.76
43928.098
37641.977
53666.207
34233.576
47923.299
56471.383
43139.534
39944.015
53074.273
76153.657
55235.712
43223.823
83989.986
66923.207
5975.3095
1712.4734
-7731.2373
-31897.826
964.58297
3707.6249
-24539.349
-8115.3899
-11064.462
-14017.343
-8983.5486
8617.2199
334.4997
3139.1956
-1553.4434
3130.4667
3477.1719
4145.3527
4739.0922
3032.5053
2188.512
5648.7988
542.10128
4356.003
4333.4459
1812.3453
6060.5405
3216.2367
8827.4674
-5549.282
11178.751
-3595.1004
11443.611
244.32226
5163.2779
9548.085
3657.8723
13216.987
2840.8995
8655.1058
5775.0462
14896.957
8052.6376
20125.772
19355.518
16079.575
19161.953
1582.0553
-2199.6705
7483.8757
9402.3707
-528.53069
20930.631
21267.618
3081.0518
21621.453
4515.41
13162.556
24281.126
16917.388
52897.111
44357.945
39116.372
51414.46
36228.197
47984.555
54390.123
44687.223
41258.326
51192.016
75694.34
57446.445
42946.002
81108.464
68153.54
8860.7167
350.07932
-9761.7371
-31127.988
1400.0417
3665.5671
-23908.553
-8200.2708
-10372.314
-14236.934
-10336.05
8479.679
1134.085
3751.7083
-1574.9437
2098.709
4372.5723
3573.8208
5218.8019
2906.5729
1939.0709
5790.0863
138.7613
5203.2974
3710.3772
1919.8314
6262.5637
3445.0388
7608.8032
-3701.7563
9206.1614
-2200.6497
11045.778
-327.42223
6400.5319
7913.7261
5260.1259
12103.31
2752.4009
9205.7407
5808.4901
14308.616
8970.9627
19532.689
19631.453
16771.831
17845.854
616.39904
184.46149
7067.9767
7937.2266
1285.7638
19590.917
20844.738
5273.5485
20028.942
3186.0053
14919.242
22810.468
19231.245
51195.406
43254.897
42537.271
48019.215
38578.599
49355.848
49829.079
45845.768
44765.539
48967.153
73388.544
60626.858
44090.232
78116.457
67936.953
12031.361
-621.27306
-12659.732
-30049.706
1469.5592
3217.7892
-21773.126
-7612.1286
-9601.8331
-14656.026
-11481.61
8231.5379
1854.5393
3676.9464
-527.86508
988.8757
4607.1795
3711.1869
5241.3484
2951.3883
1887.5936
5658.8811
7.801064
5516.7618
3228.2935
2797.096
5395.4571
4681.457
5939.6152
-2188.3021
7701.502
-1003.4233
10432.29
-357.47025
7102.0146
6191.672
7634.861
10117.605
3437.2913
9145.6658
5942.3997
13782.83
9820.5091
19313.077
19331.023
18310.388
16024.021
-878.59521
3677.7046
5970.2799
6874.2388
3122.5828
18144.756
19981.156
7428.4515
18967.196
2097.7255
16111.887
20951.148
23015.589
48687.537
41382.795
46790.035
44565.631
40769.796
51259.36
44557.426
45835.901
49912.02
47217.286
68955.75
65512.587
46254.2
72539.678
69056.364
17736.229
-3487.292
-17092.04
-27354.904
934.77619
997.9457
-18809.055
-5867.638
-8662.9352
-15227.406
-12233.564
7773.6696
2374.9176
3645.4196
122.75834
781.72262
4487.847
3449.1285
5797.2932
2590.1078
1869.5556
5999.8379
-509.02967
5823.3838
2765.6104
3402.8741
5143.8034
5481.8969
4253.6746
-69.204845
5365.0007
805.50366
9550.45
-498.38932
8364.5251
3930.7507
10100.228
8190.3013
4140.3559
9082.3841
6183.2893
13172.412
10275.458
19623.023
18772.213
19722.331
14431.291
-2371.1698
7347.1046
4226.0025
6452.951
5255.2243
16318.352
18796.949
9646.3826
17211.837
2375.6943
16756.462
18699.792
27912.958
45269.699
40181.226
49817.231
42268.594
43090.106
51773.808
40155.009
44753.711
55209.845
47137.186
63438.035
70512.165
49795.019
65184.918
69871.543
25952.265
-7037.7056
-23181.326
-23380.224
958.22647
-2920.7673
-16151.098
-3444.4572
-7863.0407
-15535.744
-12694.375
7046.6269
2633.3195
4047.6628
384.87627
582.30854
4905.0802
2745.7247
6299.0831
2550.0574
1369.0373
6574.3092
-710.34119
5629.7904
2908.7769
3541.4884
4667.6614
6817.1437
2278.4221
2000.6189
3489.0466
2044.1344
8840.7168
-405.04031
9181.6683
2602.5061
11469.329
6523.4482
5387.8511
8260.2756
6891.4947
12901.7
10184.844
19773.274
18802.723
20643.299
12012.828
-1762.6255
9762.0632
1933.5134
7400.8308
6451.7726
15035.315
17453.319
11747.787
14652.172
3523.7541
17070.227
17066.311
32503.363
41162.907
41156.971
50379.482
41770.69
46292.96
49165.979
37823.891
43982.099
57586.741
49400.799
60180.983
72748.359
53844.546
59120.154
68714.581
33468.914
-9069.426
-29110.477
-20210.69
1411.8205
-5869.6538
-13664.238
-1693.9475
-7548.4769
-15714.953
-12752
6398.0102
2643.9903
4243.9918
1215.3656
-23.588373
5144.8576
2845.8703
5924.0834
2991.1719
1114.7805
6088.8301
194.98827
5091.1245
2713.4325
4637.0428
3306.9205
7925.9529
1484.9419
2572.2227
2811.0383
3030.2949
7411.2217
960.00593
8312.7218
2926.3918
12390.767
3928.9145
8122.2177
6259.2404
7764.9627
13579.903
9369.8184
19995.486
18837.149
21666.79
8355.1916
589.39779
11748.051
-952.322
9265.133
6686.3582
14408.301
15880.216
13525.092
12006.708
5266.9364
16453.621
16384.646
35863.417
38247.152
43365.028
48283.939
43821.157
48940.898
44060.196
37512.44
44524.784
56210.393
51373.251
60856.773
72523.124
56213.341
57583.719
67633.779
36555.757
-10468.388
-32378.407
-19506.833
-28.366696
-5764.058
-9681.072
-703.26255
-7858.4635
-15763.301
-12230.784
5697.3283
2735.8243
3933.7519
2126.1253
56.01371
4514.9507
3459.5215
5561.1611
2936.3067
1685.0506
5010.7825
831.06123
5281.4712
1976.1561
5792.4883
2866.1781
7597.1692
1555.9724
2886.6033
2011.5235
4439.46
5640.4761
2653.3617
6842.5626
3681.1606
13232.73
1455.693
10891.011
4054.053
8544.1225
14877.309
8025.5602
20917.612
18634.995
21533.319
5449.5842
3375.9085
12447.273
-2259.4616
10547.449
6367.3572
15098.688
13200.479
14904.83
10037.736
6664.8128
15998.576
16683.832
35975.345
38413.038
44874.314
45097.621
49984.667
47780.393
39095.733
39547.619
44930.961
53658.37
52462.19
62872.596
70901.3
56363.284
60093.585
70145.189
35471.683
-14285.854
-32095.6
-18906.958
-5539.7921
-5466.0365
-3551.5207
443.29072
-8625.8518
-15491.229
-11287.896
4758.8783
2963.7613
3657.1096
2369.0707
917.95264
3854.6154
3529.1515
5698.612
2628.615
2016.1835
4811.0376
618.98894
5310.2699
2248.9155
5863.0524
3147.575
7404.7367
983.58636
3218.8003
1885.9026
5007.9937
4610.7289
4060.4743
5218.3504
5008.0096
12672.344
573.23062
12428.965
2504.6126
9149.3653
15869.203
7428.8728
21758.91
19115.024
19039.901
4336.3118
6845.2617
9991.73
-950.76062
11537.727
5338.6764
16652.699
10556.256
14853.606
8881.0059
7571.1359
15775.61
18555.073
32297.083
41680.968
44302.571
43024.936
59969.305
41408.769
35022.132
44097.75
43604.675
50918.671
55326.695
64814.394
66759.542
54947.173
64189.039
76279.771
34353.428
-19693.676
-31139.324
-16529.127
-12991.225
-8113.3545
3095.1758
2611.9095
-9678.2069
-14944.604
-10111.816
3848.683
2844.1654
3822.8195
2332.4796
1432.7855
3978.7646
3172.2087
5521.2302
3108.2306
1491.2149
4993.9886
997.5795
4327.4369
3050.4908
6054.8213
2988.8612
7500.7219
869.30455
2415.5102
2755.1385
5079.33
3767.1024
5418.8654
3664.2382
6743.1558
10968.183
1122.6872
12454.963
1961.7525
9785.8892
15153.723
8500.3069
23032.371
19586.783
15073.465
4437.3251
10814.18
5410.2932
1959.925
11699.837
5616.296
17086.58
8833.6711
14724.115
7114.0827
8463.576
15564.96
20748.993
27727.703
47332.906
39331.859
44653.681
70721.448
30745.237
33843.456
48500.724
41735.566
46610.422
59046.348
68445.513
60880.713
51894.321
67516.079
81986.093
35677.683
-21335.875
-31206.662
-14161.044
-17218.182
-13803.465
6424.8221
4956.8607
-10894.859
-14187.206
-8902.4689
3196.3851
2260.2935
3993.6282
2785.5637
1333.7962
4332.3778
3183.8273
4725.1388
3953.8284
1156.6174
4478.3414
1839.6292
3839.806
3041.8024
6413.1409
3408.7787
6613.1508
1658.9144
1330.4741
3269.4864
5483.3346
3140.3108
5967.1969
3307.008
7313.5855
9728.751
2929.2724
10302.516
3022.8121
10199.523
12740.982
9968.7268
26192.518
19283.862
10530.278
6267.279
12795.447
1079.238
6051.9435
9767.1888
8096.923
17283.027
6861.6434
15799.64
4896.7691
8576.6741
15718.54
21116.485
23783.405
53560.343
30901.211
50642.977
79025.477
19656.932
37431.867
49899.434
40181.19
42766.08
59791.588
71025.013
57173
49594.78
66747.593
81812.457
36560.237
-17579.545
-31103.875
-15150.485
-16140.814
-15941.374
5796.8354
6026.4079
-12186.526
-13239.318
-7893.8892
2713.8638
1697.4037
3726.4296
3625.6245
1375.6708
4175.274
3520.2679
4183.2995
4049.6919
1576.3748
3845.196
1776.3248
4444.9785
3053.5847
5816.8469
4572.0501
5726.6215
1849.759
920.05282
3653.2779
5216.7024
3672.003
5256.9549
4448.6272
6268.9026
9091.42
5959.6279
6070.8954
6367.3604
9539.5961
9763.8628
11058.669
30120.107
18435.293
6018.8845
10573.158
11017.742
-1930.1404
9501.7708
7994.6331
9828.4703
17844.093
5992.3143
17252.951
3209.9069
8528.7677
15653.998
19823.262
21369.043
53169.933
27656.252
55506.71
77569.299
17782.107
41936.436
51507.395
39922.941
42233.34
59840.476
70136.474
56381.538
50166.966
66066.543
75667.294
33841.13
-14345.386
-29835.526
-15847.578
-15752.347
-15469.36
4878.7555
5524.9774
-13554.605
-12141.992
-7091.1088
2132.8352
1471.2325
3288.7849
4179.1348
1959.0763
3765.7108
3409.9499
4522.4303
3527.0198
1932.8208
3764.1948
1186.0601
4924.6213
3692.4126
5188.5338
4822.5718
5987.0557
1472.4522
147.47463
4987.1328
3942.9106
4810.1518
4222.5783
6242.3734
4328.2762
8745.958
9342.3616
695.71811
11472.944
8018.6324
6245.2634
12559.844
33047.677
17358.284
2697.1471
15583.48
5510.2186
-2334.7749
9173.0039
7219.5313
9892.6186
15670.898
9010.588
17966.461
3026.2843
8177.7975
15456.34
20184.882
21538.903
48295.427
26633.193
58667.972
73900.017
15989.567
41562.005
53957.67
41748.115
41603.8
61640.133
71790.722
56364.919
50810.496
70440.971
80785.156
30437.381
-18232.455
-29674.72
-15911.697
-16523.71
-14456.805
5620.4497
4857.6134
-14939.665
-10949.342
-6352.0448
1330.1238
1368.3417
3180.456
4288.8211
2642.0264
3735.3967
2675.8916
5177.7892
3241.1267
1978.2847
3540.5062
1046.2228
5229.4385
3799.9032
5629.1384
4220.4259
6380.7193
1526.6115
-1232.1708
6253.2912
3011.4316
5367.1025
3667.9042
7356.2399
2593.7272
7651.8997
12069.461
-4179.7829
15416.059
6070.8791
3224.9864
13494.222
32485.693
17947.409
3900.9807
16223.843
4278.3305
-1816.2636
8673.5536
6562.3683
10082.395
12045.965
9598.5342
19837.139
3611.6057
9026.14
15062.645
21777.741
25842.342
50603.547
24305.839
61233.699
73080.008
14171.618
43052.603
50928.456
43212.009
43706.687
58140.444
69520.48
57301.28
50356.966
64560.786
76745.146
34182.321
-15187.447
-30552.959
-16485.755
-15891.471
-17820.274
4889.2749
5238.7397
-16246.445
-9729.925
-5631.2989
500.05485
1078.1366
3421.1811
4398.8466
2932.325
4045.3738
1964.8527
5539.2754
3099.3289
2356.7409
2833.3893
832.09392
6243.0542
3186.476
5960.2718
4120.7242
6276.8248
1425.2236
-1918.1147
5899.1885
2643.2586
5699.4166
3562.7302
7029.4118
1572.4903
6361.5206
12649.189
-3494.9495
16741.317
4890.3846
2970.182
13911.677
30362.365
17999.305
5469.3568
16953.351
4458.5539
-1045.3904
9523.8031
6674.0696
10166.433
12421.923
9531.0654
19815.941
1504.5863
11068.618
14957.229
15392.147
21088.309
50367.079
25594.548
57622.387
66786.59
13119.731
41316.087
48946.69
40743.971
42913.974
61041.353
68877.866
59654.837
48427.902
56984.92
62294.793
25413.014
-20388.245
-32004.974
-17600.807
-16143.016
-15792.695
701.00597
4366.1099
-17418.389
-8551.8808
-5011.0444
-115.58864
619.48552
3645.5085
4800.6474
2985.759
4151.8038
1597.752
5958.0952
2522.7297
3027.2534
2310.7251
-13.567688
7339.8738
3224.0094
5134.8815
4094.8968
6190.8643
679.56229
-1848.6874
4460.7465
1293.4357
7031.1382
4188.7632
7028.7968
1257.0767
5884.4152
12057.308
-2933.2155
18362.054
4933.6366
3005.8676
15211.418
30918.371
16899.091
6098.1161
16525.751
2984.617
-690.77959
7453.055
7030.0038
8645.6915
11430.521
8595.3354
20036.369
2465.2985
10040.158
14929.385
20500.913
26692.077
48288.991
26512.089
58922.175
56823.481
9488.0797
39055.886
43787.1
36114.234
39703.571
59087.399
64829.55
58681.91
46464.756
49249.33
49449.672
17390.257
-30351.516
-36732.002
-18664.091
-19857.542
-26097.046
-6499.0522
3706.9856
-18418.174
-7456.0291
-4576.7877
-549.90335
297.03274
3625.9977
5318.1614
3241.7618
3904.628
1157.3529
6749.8486
1800.8124
3212.3513
2080.0225
-688.2241
6859.9135
4180.2543
4194.898
3147.7703
5548.4317
1553.9577
-1288.2525
4266.4431
-121.82473
7638.4314
5522.1488
7483.3606
1790.549
6730.7957
11664.702
-3554.363
18016.711
3627.0421
2871.3975
14451.625
30419.019
16555.438
5350.8994
17198.567
3280.1427
-903.28019
8215.3445
7853.639
8582.0736
8996.1432
7475.419
19384.233
1362.9494
9378.0935
14876.805
17312.509
17932.057
45172.577
26371.266
58317.401
54175.863
6214.2352
36600.183
40066.29
33557.318
34831.284
59632.888
64659.358
56435.895
49656.21
50814.15
44186.791
13193.436
-36690.326
-42154.533
-22547.701
-21384.227
-18803.865
-6398.455
4566.7726
-19286.589
-6441.3297
-4323.1351
-1045.1606
350.04125
3424.5381
5713.6159
3654.3776
3787.2502
373.35702
7285.5093
1613.9542
2504.2362
1512.1509
-557.41966
5052.9473
4833.3051
4858.4563
3283.9713
4870.5217
2061.4508
-134.76687
4678.7729
-243.97718
7817.7495
5238.675
6331.5354
658.82978
5737.0436
12409.751
-3015.8423
19396.348
4147.7381
2786.5411
13627.961
29393.198
15800.016
5346.1501
17381.634
2582.519
-1460.0675
6305.6299
5680.4676
7238.5745
5619.2705
5582.2715
16848.104
1086.0817
9091.7534
14013.627
19347.356
18401.174
40025.151
26690.455
57145.782
53106.694
8973.6016
34248.388
35430.991
32394.142
35861.064
63759.332
67147.698
55217.389
51351.88
50411.853
36294.957
5152.915
-40035.628
-46355.867
-24891.564
-20157.08
-15998.43
-2378.0615
4755.4399
-20099.191
-5479.2945
-4190.4602
-1733.6824
647.38619
3293.7657
5968.6363
3719.3656
4133.6101
-514.38324
6972.3955
1793.5532
1314.9932
1074.697
391.69298
4788.8587
5035.1721
5683.2317
4156.7627
4893.7368
1800.6578
-757.77789
3980.6132
-544.65601
7835.5386
5539.8455
6663.2238
1452.011
6514.9791
12050.657
-3599.9542
18344.513
2052.6138
3081.8331
12748.295
27889.468
15201.51
6070.1104
17178.872
2029.1336
-1699.0597
5613.0096
4152.7415
4238.8657
2080.9109
5819.6013
12966.313
1500.2886
8985.343
13935.515
19172.192
19349.097
38197.166
26567.268
52206.619
47440.716
10840.643
31655.029
28641.436
31619.226
35915.676
64502.566
68374.955
53525.403
52035.427
50342.695
30970.126
-8939.1481
-51522.252
-53992.125
-27591.563
-19962.517
-12382.182
3121.9348
4757.3598
-20871.888
-4530.8175
-4150.2111
-2479.2708
766.05418
3557.2921
6044.3467
3249.8763
4412.1789
-1147.8632
6117.8471
2579.1065
1372.3281
822.83364
1388.3206
5338.5419
4962.9658
5055.898
3086.4832
4808.9558
1966.5433
-589.45607
4039.6536
-351.41741
7829.4278
5108.2195
6079.6451
1323.4755
6431.745
11900.795
-3735.3676
17579.778
1890.1512
3631.1825
11853.488
26663.534
14565.115
5711.6153
16904.73
1220.4238
-2645.0056
5964.2584
134.54663
748.12809
-1585.5888
8130.3813
11665.683
3184.8182
9783.2936
11519.195
20901.453
21047.189
33579.132
26263.378
48122.735
41060.339
12376.803
28603.227
22064.491
30928.382
32971.875
66757.923
69985
51367.695
52335.321
50489.734
29379.537
-21146.04
-67157.153
-63494.542
-29921.377
-20577.892
-9870.4784
6721.4258
4495.408
-21553.12
-3558.2359
-4222.24
-3037.9012
336.18051
4409.7353
5684.2413
2647.6239
3860.7244
-267.62648
5799.7629
3514.2454
1899.9564
640.87265
617.51778
4812.5808
4800.2149
5734.7861
3528.9459
4832.6933
1798.0714
-862.05027
3911.4596
-706.47054
7634.507
4850.1975
5468.1278
1591.3836
5906.0317
11349.71
-3741.818
15890.024
2180.9692
3884.7887
11086.603
25738.59
13636.556
5296.4762
16797.133
1142.773
-1847.8161
6658.8947
-1163.1748
-2367.8144
-8095.5563
4129.1694
12966.382
3427.2821
7590.6648
10507.189
20364.569
19620.095
32506.596
26222.113
42304.998
35979.551
16741.384
27636.063
27172.758
28564.81
30024.582
70955.061
71453.087
49807.432
52518.759
51577.403
28145.858
-30445.099
-77628.889
-71602.991
-31810.736
-21382.721
-9887.4329
8555.7047
4142.4059
-22070.893
-2551.5828
-4356.8604
-3327.2915
-647.26026
5616.6969
4927.4868
2474.243
3731.9152
931.70821
5896.7344
3153.0484
1505.5056
499.7102
824.3551
4926.9659
4713.1839
5544.6035
2994.789
4762.1807
1834.4104
-1187.3249
4013.4005
-621.30516
7146.1332
4402.7571
4039.8564
1620.0144
5124.2473
10528.415
-4197.5766
13338.926
2733.1851
5372.723
11017.334
24833.57
10996.333
2713.9986
16545.886
763.07489
-1091.3486
7995.8718
-645.67217
-1495.1469
-10862.417
8323.7753
18041.455
3775.5325
7409.4511
10560.272
21734.54
20527.757
29390.621
26264.319
39459.727
31753.93
13580.086
28813.947
39226.207
23508.847
29322.429
76734.662
72576.147
47591.111
51146.12
52228.356
25667.607
-40295.475
-90258.829
-80886.238
-34627.716
-22911.931
-9087.0173
9065.948
4173.1346
-22473.838
-1527.5455
-4296.7185
-3490.7051
-1758.3517
6297.372
5591.9049
2627.1455
3854.127
637.98805
5654.8473
3157.2025
1666.2306
379.60417
680.81292
4879.3851
4441.2089
5641.8343
3104.3047
4811.7586
1773.1592
-1705.4196
4062.0159
-258.57003
6417.8877
3744.3545
2578.563
1394.3994
4468.5404
10081.881
-5078.8449
10980.601
3510.339
5685.9668
10014.215
23140.201
6576.9632
-1869.8297
17855.935
-1155.1436
-3042.8472
8630.5721
-306.9075
-866.97311
-10829.542
8738.2465
17666.274
4654.7733
8288.6705
8683.956
20713.701
20218.614
30219.057
25918.448
37077.527
30622.772
7463.2189
24044.067
47725.703
21649.431
30867.633
81346.134
71752.326
45042.133
50343.212
50867.964
18525.099
-51533.059
-101550.53
-90277.555
-39242.795
-24456.4
-8197.0712
8522.8227
4071.798
-23148.033
-536.29274
-3610.3055
-3722.106
-2234.9999
6416.1351
6712.433
2380.6874
3426.8409
609.50658
5718.1051
3018.8685
1682.3261
21.573919
498.08363
4844.8546
3700.0629
5423.6576
2947.1358
4963.9611
1603.9605
-2390.4624
4099.2643
239.21976
5535.2513
2821.2983
964.5819
572.61689
3339.9896
10470.75
-6158.9548
8834.8393
4042.9825
5886.5723
9573.5198
21577.404
3362.1401
-5569.9457
18546.665
-4119.7872
-4392.0266
8825.3973
640.17088
1861.8344
-9220.6574
5141.029
16702.891
6010.3713
8478.5576
6268.1091
20419.258
20245.55
28387.991
25008.844
34229.561
30335.973
8236.5761
22228.597
50055.129
25834.754
34470.498
80875.726
69201.296
41541.48
49520.968
49236.508
12494.955
-61763.561
-110701.41
-97639.602
-44157.38
-24914.238
-6875.6207
7022.8421
3623.4557
-24808.533
353.80859
-2206.6458
-3913.1984
-2014.8429
6408.5718
6556.8356
2415.285
3525.6175
551.10212
5658.7711
2868.4544
1711.5738
-239.0759
175.87002
4785.2952
2931.8216
5217.5036
2996.7651
4971.118
1313.5068
-3273.3691
4110.4294
695.88757
4646.1981
2640.276
-836.68954
-181.09367
1710.5829
10316.973
-6712.5087
6722.8284
4200.8004
6000.3498
9121.7305
20122.266
1252.7013
-6924.2715
18196.823
-6428.2836
-3849.8204
8831.0098
2182.8119
3686.1461
-4297.5544
3721.7695
15240.366
6165.6103
9292.7916
5686.2215
20331.647
20702.041
26909.017
24316.489
31491.435
34205.92
13443.488
23381.734
45743.009
30087.506
39219.617
78784.192
66392.939
38161.059
47458.004
47539.144
9338.9878
-69404.103
-117234.74
-102338.35
-48103.211
-25614.415
-5010.7178
7800.4473
3827.7324
-27292.433
910.21568
-1263.3925
-3756.2233
-1935.9416
6229.2821
6588.712
2417.0405
3519.6916
539.39672
5549.1981
2704.1208
1626.2011
-387.09429
-224.06743
4716.4693
2254.6076
4992.0173
2851.9513
4966.6236
997.87522
-3875.6995
4245.6637
824.12936
3754.029
2956.1817
-1968.0463
-1392.8636
-176.92969
10403.475
-6774.3805
4613.4619
3435.7786
5784.6391
8641.637
17758.696
-495.62685
-7722.6244
17251.631
-6821.3676
-3909.113
8725.4887
3780.6111
5237.3472
-2253.6513
2826.4344
14838.586
7442.5161
10045.543
5594.7074
19660.525
21057.439
26638.384
23777.537
30630.045
40939.839
16387.403
23236.142
43908.038
33370.143
41736.909
77597.143
62190.573
34141.819
44563.449
45213.094
4387.4257
-75207.781
-123298.66
-106921.84
-51630.396
-26765.492
-3291.4583
8481.4822
3864.4353
-27189.073
168.81369
-1769.6467
-3434.9309
-1937.7487
6136.9019
6568.3701
2426.1824
3546.6536
528.13765
5392.3905
2531.6089
1533.6742
-493.19335
-685.82656
4615.9363
1566.9161
4735.6687
2846.0587
4817.7896
662.38816
-4563.2437
4473.9627
863.4501
3313.3009
3621.5346
-2127.4243
-2627.8124
-2180.6573
10539.851
-6484.0858
3211.9456
2404.2202
5406.968
8258.6881
15787.498
-3237.6391
-8817.7745
16187.507
-4986.6893
-1172.1985
8409.0069
5360.142
6566.0282
-3591.9047
6577.1793
15702.2
7626.0935
10695.795
5851.1693
19300.254
21724.444
26598.464
23069.527
31978.596
46037.863
16864.896
22110.367
44129.295
35358.289
42992.235
74683.499
58187.096
31465.616
39787.492
40224.289
-4206.0965
-79396.336
-128390.07
-110324.92
-55724.862
-27564.284
-2100.1306
8427.1684
3827.8529
-18183.343
-2205.9986
-2298.9771
-3283.6544
-1921.7041
6102.1383
6492.0917
2439.1966
3548.2913
511.62817
5252.1515
2352.7444
1362.2001
-571.01162
-1159.7352
4479.9842
813.125
4432.8933
2782.5458
4581.5773
377.40174
-4801.9212
4706.1389
807.54945
3388.7496
4642.9754
-1368.3012
-3626.0185
-3657.2857
10348.069
-5940.7776
2307.6725
1037.6891
5176.087
8131.9555
14566.783
-5037.7335
-8375.3312
15283.643
-3290.7367
1214.1928
7943.4338
6371.1414
5766.7766
-2778.0259
7094.3021
15754.373
7489.8565
11826.194
6937.1263
19332.175
22010.167
25477.119
22809.524
33891.707
48182.516
15907.374
21159.001
43922.024
36222.344
44031.812
68372.87
54110.528
31249.833
33804.397
32812.393
-12591.989
-83154.448
-132992.47
-111723.91
-59625.369
-29603.141
-2576.871
10122.817
4172.6166
-493.31055
-3184.4361
-2395.6471
-3400.5649
-1934.7037
6087.9889
6343.6578
2441.6491
3549.3534
510.6942
5156.3049
2182.4903
1194.426
-618.99629
-1649.1209
4307.3543
53.903443
4133.3154
2766.3109
4381.6736
98.124671
-4934.9619
4885.317
757.23463
3730.3301
5577.2917
16.607015
-4215.1966
-4172.3002
10245.528
-5323.7967
1850.0928
-231.61234
4934.2463
7926.3606
12715.561
-6116.8038
-6600.4105
14161.815
-2275.3857
2424.3495
7484.7993
6795.793
7295.9432
-2479.3864
6298.1835
15792.563
7869.013
13332.014
7536.9676
19565.456
21552.018
23830.427
22949.356
35610.08
49310.076
13960.98
20471.055
44773.338
37002.411
42971.351
65961.986
50150.066
30208.874
27413.858
23910.405
-18345.639
-86583.343
-134997.21
-112726.37
-63573.564
-31521.999
-4421.6765
11482.345
3190.1392
3691.6248
-1623.2795
-2476.086
-3429.6126
-1924.4429
6015.3782
6199.5039
2442.7523
3540.3727
537.22994
5112.4442
2035.6728
1074.8524
-640.93162
-2125.9422
4093.9919
-620.92771
3835.1786
2652.9869
4182.1469
-263.61245
-5024.3485
4939.3196
724.37988
3943.1258
6179.6667
1578.5395
-4164.0507
-3754.9133
9947.6336
-4464.9745
2027.3318
-976.62799
4424.3419
7282.2996
10559.318
-6874.1925
-4163.3466
14790.196
-1067.4783
2835.2736
7237.0658
6916.9181
6745.4577
-2932.7197
4951.5521
15271.392
8065.0195
14247.409
7396.3351
19033.234
20751.608
22877.869
22887.013
35449.486
48142.426
11796.463
21927.318
45703.967
36891.242
42729.406
65839.92
45197.862
28362.415
23543.426
19121.644
-22318.196
-91017.409
-134798.59
-112329.26
-65286.761
-32159.951
-7674.22
6977.372
1325.7405
-5520.0248
-625.97109
-2412.3659
-3418.6295
-1902.3799
5910.4972
6052.6862
2443.354
3531.7871
581.10751
5097.6698
1917.6224
1041.9525
-633.3544
-2562.0883
3850.6932
-1095.242
3685.5838
2502.8889
4016.5108
-735.67774
-5270.947
4826.5454
782.73673
4056.6396
6499.3003
2791.7356
-3927.6958
-2674.072
9555.9671
-3494.1493
2739.8955
-1436.8317
4572.0664
6503.8223
9473.8372
-7572.4693
-3047.0285
15518.367
304.20931
3018.5753
6853.1765
6702.3721
6628.1827
-2976.5966
2466.7163
14571.618
8366.1036
13964.33
7062.4664
18510.759
19643.283
22413.364
23368.422
33108.194
40114.763
10526.629
23976.331
44760.584
36006.794
40809.571
63725.831
38935.204
26744.018
24399.847
17963.396
-25154.047
-97474.027
-138129.19
-113069.59
-67484.898
-33873.735
-11081.6
2244.3928
-43.673762
-5386.7922
-778.29148
-2336.6509
-3399.015
-1892.5716
5778.07
5896.1697
2438.1672
3523.0418
628.28778
5086.9675
1823.9071
1107.8664
-604.44939
-2923.0243
3601.9576
-1363.7978
3630.3102
2306.4619
3828.7839
-1288.9663
-5766.4143
4627.2722
1038.6054
4093.7026
6539.9074
3508.2218
-3586.4792
-1476.7211
9056.469
-2468.2331
3668.3398
-1670.1947
4858.6433
5832.3715
9077.4082
-8290.775
-2645.2639
15608.323
1169.2931
3210.9994
6120.7014
6522.1775
5925.5869
-2962.3748
1146.6955
12306.478
8669.2803
13921.634
5987.147
17165.352
19535.871
22262.773
23958.911
29514.636
34466.458
11766.237
27639.253
43657.877
33971.435
36037.43
61337.802
34929.963
25591.733
27168.958
17719.981
-30337.759
-107397.09
-146499.86
-118262.89
-71178.773
-35522.935
-13218.834
-1854.3285
-1091.5061
-4912.8406
-455.94072
-2221.8512
-3387.8785
-1896.3945
5617.1905
5734.2646
2432.527
3512.7453
667.33293
5055.8783
1747.2716
1266.8455
-536.49364
-3173.6744
3365.9982
-1480.4087
3612.7033
2132.8327
3697.1723
-1860.7481
-6368.8359
4286.0569
1371.3471
4059.1672
6379.5681
3755.698
-3209.8585
-440.81577
8433.7047
-1611.8649
4246.9853
-1659.4475
5174.6212
5422.2852
8801.135
-7167.5631
-1620.8458
15186.044
1651.5671
3873.5973
5638.9655
5877.2801
5807.0037
-2683.4895
924.59307
9291.8648
9007.1386
14071.875
3995.3415
15856.977
20369.428
21803.753
24106.78
26671.548
29881.822
13076.793
29960.883
42189.777
32403.593
36956.884
60986.911
34239.181
24525.843
26604.656
17489.811
-34875.298
-120220.84
-156904.03
-125113.09
-74807.901
-37197.73
-15106.244
-5149.4461
-2156.3795
-4258.5303
-206.51189
-2115.9037
-3384.0297
-1911.3314
5432.2932
5572.3358
2429.3642
3499.9306
696.42716
5000.2083
1678.3958
1490.3475
-434.7554
-3321.7799
3154.8778
-1518.7003
3623.5775
2116.8804
3622.1218
-2412.6133
-6780.0776
3679.261
1404.8263
3838.2068
5929.2576
3936.4187
-2574.1768
504.64607
7656.081
-957.28215
4479.3566
-1666.0684
5451.1076
5157.0585
8529.6662
-3778.0365
-372.18927
14392.827
2179.0698
4553.7111
5330.8473
5318.7399
6354.5108
-3321.9198
3537.4805
10343.389
9087.6355
14378.493
3093.1729
14824.806
20613.965
21086.817
23968.155
24879.133
27010.013
14793.32
29288.792
40792.035
31577.183
35763.443
62060.593
34637.534
22699.731
25498.131
16020.226
-36461.139
-129932.58
-164357.77
-131178.25
-78495.826
-37951.192
-16750.696
-11027.018
-3329.2538
-3590.5862
111.75012
-2015.9793
-3393.377
-1935.7002
5223.5779
5411.6196
2435.9241
3481.5775
720.93314
4920.5986
1604.7188
1741.2189
-327.44707
-3373.9436
2963.6677
-1463.1812
3671.4238
1958.8853
3594.4774
-2932.6204
-7139.0272
3030.7884
1097.0873
3548.2093
5439.6195
3936.9771
-1979.479
1418.6739
6863.7549
-510.53297
4413.3558
-1824.747
5543.7699
5120.207
8583.8614
1002.3347
640.42209
12932.441
1581.2989
5278.3655
5992.4855
5144.7251
7083.3714
-3769.8304
5248.3656
11357.073
9048.707
13999.066
2688.1625
14244.507
20094.088
20433.029
23459.898
24839.109
28688.389
16907.164
26742.068
39302.792
31434.315
37655.341
62402.365
35831.82
20541.204
23894.048
13162.583
-40591.442
-134858.99
-166167.72
-134554.15
-81487.372
-36922.016
-17075.512
-12181.546
-4154.1357
-2887.9865
319.62259
-1912.7218
-3414.8879
-1969.0516
4998.9802
5260.7261
2453.5703
3452.4464
743.70622
4830.214
1515.819
1975.1062
-191.46539
-3324.2858
2789.0478
-1323.1798
3744.0165
1860.6358
3615.8754
-3270.3453
-7433.8265
2391.8872
885.86648
3199.3812
5070.9279
3879.1242
-1530.3532
2202.6186
6218.1902
266.01486
4055.7524
-2647.4487
5679.9865
5154.8877
8740.9793
6840.6668
1450.6075
11051.684
1361.3969
7448.7057
7049.8737
4847.8253
7173.3642
-4244.8206
5465.5115
11052.021
9015.2097
13388.878
2922.6462
13119.288
19308.188
19957.12
22231.318
25031.303
29716.421
19073.839
25036.824
37838.742
32202.853
38958.68
59720.742
36477.806
19348.188
20190.961
10967.335
-44714.387
-137202.65
-166196.69
-135977.22
-83687.329
-33831.348
-15207.967
-12417.027
-4485.4708
-2228.756
729.89358
-1866.6482
-3447.4132
-2011.0303
4756.7736
5123.47
2486.3739
3405.7063
764.50836
4735.1848
1410.2705
2190.9288
-14.242043
-3162.1791
2625.8087
-1124.2558
3821.4824
1702.4691
3657.4175
-3261.7386
-7285.5447
1699.0116
377.10535
2788.0361
4691.8031
3899.5051
-1141.3454
2836.6928
5730.2294
1119.1274
3572.4824
-3020.8295
5495.5501
5677.3338
9040.3823
8877.8273
1671.1948
9135.0465
2007.8951
9088.1313
6339.3848
4364.1564
7436.5806
-4636.5844
5048.6347
11195.349
9410.1545
12893.786
4016.8451
12124.169
18145.76
19671.65
21334.842
24493.542
29296.649
21226.263
24429.493
36124.141
32142.213
39982.047
54317.687
34497.38
18266.721
16555.307
7605.1981
-48030.251
-134789.27
-167556.18
-136158.81
-85800.629
-31330.305
-14407.157
-13259.777
-4192.795
-1560.7718
725.82003
-1753.069
-3497.383
-2060.5941
4502.5218
5006.3281
2534.9473
3333.4523
781.96808
4633.1082
1304.0008
2394.3463
186.38997
-2873.2763
2461.3604
-876.00596
3883.5455
1472.8067
3671.3881
-2978.0761
-6906.557
1244.1137
-312.53456
2362.6772
4260.6991
3874.7806
-601.16846
3336.4555
5332.6371
1790.8018
2850.6392
-3399.1879
5409.6063
5190.4615
9221.4609
9179.8686
1903.0498
8760.5576
2514.2222
9555.988
5458.8245
3889.3672
7526.171
-4751.7039
5155.1621
11626.13
8875.4417
12780.177
4854.8772
11756.344
17626.815
19376.784
21247.209
24061.183
27540.467
22705.277
24066.27
34007.89
30493.398
38682.028
46447.309
31359.535
16741.949
13041.646
2616.0814
-54631.52
-130609.74
-166384.15
-135362.68
-88243.003
-27893.509
-14519.954
-14832.159
-4366.1193
-977.97283
1344.2685
-1766.67
-3537.3059
-2112.95
4239.9995
4907.6047
2594.4007
3231.2829
798.85299
4516.52
1231.4112
2603.3919
419.59344
-2442.8602
2225.7145
-588.62018
3970.6755
1154.9452
3692.328
-2522.3139
-6474.3796
1418.0364
-537.93191
1909.1452
3756.4407
3837.9731
108.08187
3816.6995
5103.6426