/*--------------------------------*- C++ -*----------------------------------*\
| =========                 |                                                 |
| \\      /  F ield         | OpenFOAM: The Open Source CFD Toolbox           |
|  \\    /   O peration     | Version:  2.3.0                                 |
|   \\  /    A nd           | Web:      www.OpenFOAM.org                      |
|    \\/     M anipulation  |                                                 |
\*---------------------------------------------------------------------------*/
FoamFile
{
    version     2.0;
    format      ascii;
    class       surfaceScalarField;
    location    "1.8e-05";
    object      phi;
}
// * * * * * * * * * * * * * * * * * * * * * * * * * * * * * * * * * * * * * //

dimensions      [0 3 -1 0 0 0 0];

internalField   nonuniform List<scalar> 
14825
(
1.0344263e-09
-2.0664926e-11
1.0551636e-09
-2.0737327e-11
1.0754683e-09
-2.0304689e-11
1.0956463e-09
-2.0178007e-11
1.1155088e-09
-1.9862532e-11
1.1361488e-09
-2.0639991e-11
1.1556793e-09
-1.9530418e-11
1.1762115e-09
-2.0532237e-11
1.1956626e-09
-1.9451148e-11
1.2159521e-09
-2.028948e-11
1.2353096e-09
-1.9357521e-11
1.255534e-09
-2.0224394e-11
1.2741849e-09
-1.8650901e-11
1.2942934e-09
-2.0108456e-11
1.3124445e-09
-1.8151134e-11
1.3321952e-09
-1.9750687e-11
1.3503431e-09
-1.8147925e-11
1.3695027e-09
-1.9159582e-11
1.387742e-09
-1.8239319e-11
1.4063447e-09
-1.8602654e-11
1.4246574e-09
-1.8312655e-11
1.4420448e-09
-1.7387404e-11
1.4608762e-09
-1.8831467e-11
1.476666e-09
-1.5789767e-11
1.4961091e-09
-1.944306e-11
1.5109065e-09
-1.4797418e-11
1.530277e-09
-1.9370568e-11
1.5451611e-09
-1.4884066e-11
1.5632505e-09
-1.8089351e-11
1.5788996e-09
-1.5649178e-11
1.5951759e-09
-1.6276266e-11
1.610721e-09
-1.5545048e-11
1.6262288e-09
-1.5507895e-11
1.6410369e-09
-1.4808029e-11
1.6555285e-09
-1.4491648e-11
1.6703695e-09
-1.4840993e-11
1.683943e-09
-1.3573493e-11
1.6986044e-09
-1.4661409e-11
1.7124493e-09
-1.3844837e-11
1.7258894e-09
-1.3440156e-11
1.738882e-09
-1.2992581e-11
1.7535301e-09
-1.4648087e-11
1.7654968e-09
-1.1966746e-11
1.7787758e-09
-1.3279002e-11
1.7917663e-09
-1.2990478e-11
1.8032628e-09
-1.1496487e-11
1.8153775e-09
-1.211466e-11
1.8275154e-09
-1.213796e-11
1.8374538e-09
-9.9383714e-12
1.8488299e-09
-1.1376132e-11
1.8588347e-09
-1.0004817e-11
1.8682418e-09
-9.4070419e-12
1.8796609e-09
-1.1419112e-11
1.8870127e-09
-7.3517969e-12
1.8974155e-09
-1.0402833e-11
1.9060196e-09
-8.6040801e-12
1.9133789e-09
-7.3593233e-12
1.922906e-09
-9.5270969e-12
1.9301365e-09
-7.2304376e-12
1.9368245e-09
-6.6880529e-12
1.9440394e-09
-7.2149251e-12
1.9517467e-09
-7.7072647e-12
1.9575792e-09
-5.8325044e-12
1.9632113e-09
-5.6320482e-12
1.9698673e-09
-6.655994e-12
1.975696e-09
-5.8287304e-12
1.9793734e-09
-3.6774132e-12
1.9847288e-09
-5.3553546e-12
1.9904326e-09
-5.7038279e-12
1.9941231e-09
-3.6905124e-12
1.9971508e-09
-3.02766e-12
2.0013269e-09
-4.1761562e-12
2.0036438e-09
-2.3168686e-12
2.0063867e-09
-2.7429159e-12
-2.486741e-12
2.8626319e-09
-8.1330945e-11
2.9231677e-09
-8.1273042e-11
2.9832358e-09
-8.0372875e-11
3.0429749e-09
-7.9917035e-11
3.1016421e-09
-7.8529782e-11
3.1627779e-09
-8.1775764e-11
3.2205057e-09
-7.7258224e-11
3.2816853e-09
-8.1711787e-11
3.3395289e-09
-7.7294798e-11
3.3999894e-09
-8.0749972e-11
3.4579933e-09
-7.7361437e-11
3.5181946e-09
-8.0425672e-11
3.5746857e-09
-7.5141989e-11
3.6347102e-09
-8.0132947e-11
3.6898514e-09
-7.3292409e-11
3.7492722e-09
-7.9171477e-11
3.8043171e-09
-7.3192744e-11
3.8624804e-09
-7.7322906e-11
3.9178818e-09
-7.3640768e-11
3.9746491e-09
-7.5369939e-11
4.0305506e-09
-7.4214129e-11
4.0840256e-09
-7.0862435e-11
4.1416612e-09
-7.6467061e-11
4.1909895e-09
-6.5118009e-11
4.2502141e-09
-7.8667666e-11
4.2972191e-09
-6.1802428e-11
4.3561963e-09
-7.8347786e-11
4.4034308e-09
-6.2118588e-11
4.4593928e-09
-7.4051309e-11
4.5083887e-09
-6.4645154e-11
4.5595831e-09
-6.747061e-11
4.6087464e-09
-6.4708333e-11
4.6574027e-09
-6.4164223e-11
4.7048236e-09
-6.222894e-11
4.7511382e-09
-6.0806232e-11
4.7983591e-09
-6.2061921e-11
4.8426771e-09
-5.7891484e-11
4.8893532e-09
-6.1337465e-11
4.934497e-09
-5.8988644e-11
4.9783279e-09
-5.727107e-11
5.0217955e-09
-5.6460217e-11
5.0685564e-09
-6.1408983e-11
5.109784e-09
-5.3194312e-11
5.1528309e-09
-5.6325904e-11
5.1958946e-09
-5.605423e-11
5.2351686e-09
-5.0770487e-11
5.2752419e-09
-5.2187879e-11
5.3163741e-09
-5.3270177e-11
5.3510391e-09
-4.4603364e-11
5.3905729e-09
-5.0909914e-11
5.4250045e-09
-4.4436474e-11
5.4595937e-09
-4.3996175e-11
5.4975981e-09
-4.9423537e-11
5.5262826e-09
-3.6036369e-11
5.5620365e-09
-4.6156692e-11
5.5937245e-09
-4.0292039e-11
5.6222968e-09
-3.5931693e-11
5.6556923e-09
-4.2922546e-11
5.6832185e-09
-3.4756691e-11
5.7096635e-09
-3.3133045e-11
5.736482e-09
-3.4033422e-11
5.7648269e-09
-3.6052147e-11
5.7887971e-09
-2.9802697e-11
5.8118732e-09
-2.8708117e-11
5.8383516e-09
-3.3134392e-11
5.8626206e-09
-3.0097771e-11
5.8814737e-09
-2.2530506e-11
5.9035948e-09
-2.7476423e-11
5.9274315e-09
-2.954055e-11
5.9450655e-09
-2.1324473e-11
5.9620565e-09
-2.0018752e-11
5.9815749e-09
-2.3694534e-11
5.9963817e-09
-1.7123644e-11
6.0117639e-09
-1.8125161e-11
-1.738444e-11
4.3666227e-09
-1.7984413e-10
4.4647056e-09
-1.7935594e-10
4.5628754e-09
-1.7854264e-10
4.6612105e-09
-1.7825216e-10
4.7571036e-09
-1.7442287e-10
4.8575248e-09
-1.8219705e-10
4.9521257e-09
-1.7185909e-10
5.0528513e-09
-1.8243739e-10
5.1485531e-09
-1.7299661e-10
5.2479894e-09
-1.801862e-10
5.3447222e-09
-1.7409426e-10
5.443754e-09
-1.7945751e-10
5.5387279e-09
-1.7011587e-10
5.6380878e-09
-1.7949284e-10
5.7309285e-09
-1.661331e-10
5.8300466e-09
-1.7828954e-10
5.9225561e-09
-1.6570231e-10
6.0203419e-09
-1.7510865e-10
6.1136087e-09
-1.6690756e-10
6.2098888e-09
-1.7165004e-10
6.3041826e-09
-1.6850794e-10
6.3963282e-09
-1.6300801e-10
6.4932465e-09
-1.7338543e-10
6.579936e-09
-1.5180746e-10
6.6789303e-09
-1.7766197e-10
6.7622415e-09
-1.4511365e-10
6.8612132e-09
-1.7731947e-10
6.9440645e-09
-1.449699e-10
7.0400149e-09
-1.7000167e-10
7.1245395e-09
-1.4916983e-10
7.2137541e-09
-1.5668515e-10
7.2997295e-09
-1.5068373e-10
7.384242e-09
-1.4867671e-10
7.4683397e-09
-1.4632672e-10
7.5506039e-09
-1.4307039e-10
7.6335512e-09
-1.4500924e-10
7.7137226e-09
-1.3806287e-10
7.7958426e-09
-1.4345746e-10
7.8771913e-09
-1.4033732e-10
7.9555438e-09
-1.3562358e-10
8.0357585e-09
-1.3667492e-10
8.1172263e-09
-1.4287675e-10
8.1940436e-09
-1.300117e-10
8.2721694e-09
-1.344517e-10
8.3509377e-09
-1.3482245e-10
8.4251237e-09
-1.2495653e-10
8.4983249e-09
-1.2538912e-10
8.5740332e-09
-1.2897845e-10
8.6395928e-09
-1.1016299e-10
8.7147079e-09
-1.2602497e-10
8.778857e-09
-1.0858557e-10
8.8479024e-09
-1.1304156e-10
8.9164771e-09
-1.1799822e-10
8.9766476e-09
-9.6206956e-11
9.0440815e-09
-1.1359056e-10
9.1048893e-09
-1.0109979e-10
9.165468e-09
-9.6510449e-11
9.2281301e-09
-1.0558457e-10
9.283728e-09
-9.0354662e-11
9.3396067e-09
-8.9011754e-11
9.3941672e-09
-8.8593913e-11
9.4505514e-09
-9.2436294e-11
9.5035029e-09
-8.2754177e-11
9.5533588e-09
-7.856407e-11
9.6076796e-09
-8.745519e-11
9.6589157e-09
-8.1333884e-11
9.7030683e-09
-6.6683113e-11
9.7514595e-09
-7.5867563e-11
9.8023013e-09
-8.038237e-11
9.8443703e-09
-6.3393523e-11
9.8868528e-09
-6.2501251e-11
9.9320297e-09
-6.8871401e-11
9.9696937e-09
-5.4787639e-11
1.0006913e-08
-5.5344268e-11
-5.5055e-11
5.5906754e-09
-3.1404884e-10
5.7241007e-09
-3.1278122e-10
5.8586259e-09
-3.1306781e-10
5.9942791e-09
-3.1390539e-10
6.1261115e-09
-3.0625523e-10
6.264023e-09
-3.2010854e-10
6.3948137e-09
-3.0264987e-10
6.5330387e-09
-3.2066237e-10
6.6664875e-09
-3.0644538e-10
6.8031073e-09
-3.16806e-10
6.9386085e-09
-3.0959547e-10
7.0752167e-09
-3.160657e-10
7.2090073e-09
-3.039065e-10
7.3468842e-09
-3.1736968e-10
7.4779001e-09
-2.9714901e-10
7.6162933e-09
-3.1668273e-10
7.7468674e-09
-2.9627643e-10
7.8846046e-09
-3.1284584e-10
8.0162231e-09
-2.9852614e-10
8.1528278e-09
-3.0825471e-10
8.2857536e-09
-3.0143373e-10
8.4193698e-09
-2.9662424e-10
8.5552755e-09
-3.0929107e-10
8.6833142e-09
-2.798462e-10
8.8212382e-09
-3.1558594e-10
8.9446423e-09
-2.6851774e-10
9.0831489e-09
-3.1582608e-10
9.2037619e-09
-2.6558292e-10
9.3406195e-09
-3.0685927e-10
9.4618686e-09
-2.7041891e-10
9.591981e-09
-2.8679753e-10
9.7169289e-09
-2.7563163e-10
9.8407105e-09
-2.7245832e-10
9.965021e-09
-2.7063719e-10
1.0087631e-08
-2.6568053e-10
1.0209686e-08
-2.6706459e-10
1.0330256e-08
-2.586327e-10
1.0451355e-08
-2.6455586e-10
1.0572256e-08
-2.6123872e-10
1.0688512e-08
-2.5187944e-10
1.0811255e-08
-2.5941752e-10
1.0929655e-08
-2.612776e-10
1.104921e-08
-2.4956637e-10
1.1164607e-08
-2.4984893e-10
1.1282531e-08
-2.5274644e-10
1.1394478e-08
-2.3690314e-10
1.1506303e-08
-2.3721424e-10
1.162209e-08
-2.4476548e-10
1.1725582e-08
-2.1365477e-10
1.1840921e-08
-2.4136373e-10
1.1939626e-08
-2.0729068e-10
1.2051713e-08
-2.2512927e-10
1.2154992e-08
-2.2127705e-10
1.2255956e-08
-1.971704e-10
1.2360488e-08
-2.1812253e-10
1.2455786e-08
-1.9639845e-10
1.2558561e-08
-1.9928544e-10
1.2654427e-08
-2.0145032e-10
1.2745569e-08
-1.8149653e-10
1.2839311e-08
-1.8275337e-10
1.292899e-08
-1.7827294e-10
1.3018662e-08
-1.8210902e-10
1.3109613e-08
-1.7370501e-10
1.3194849e-08
-1.6379997e-10
1.328297e-08
-1.7557639e-10
1.3370036e-08
-1.684e-10
1.3450376e-08
-1.4702322e-10
1.3534481e-08
-1.5997194e-10
1.3619175e-08
-1.650769e-10
1.3695292e-08
-1.395105e-10
1.3772489e-08
-1.3969805e-10
1.3850844e-08
-1.4722603e-10
1.3920781e-08
-1.247253e-10
1.3992524e-08
-1.2708647e-10
-1.2520131e-10
6.573795e-09
-4.820725e-10
6.7404574e-09
-4.794437e-10
6.9092841e-09
-4.818945e-10
7.0807569e-09
-4.8537815e-10
7.2472191e-09
-4.7271747e-10
7.4205086e-09
-4.9339802e-10
7.587399e-09
-4.6954028e-10
7.7606262e-09
-4.9388955e-10
7.9315186e-09
-4.7733782e-10
8.1037488e-09
-4.8903614e-10
8.2770912e-09
-4.8293788e-10
8.4505315e-09
-4.8950598e-10
8.6227931e-09
-4.7616817e-10
8.7987244e-09
-4.933009e-10
8.9682872e-09
-4.6671187e-10
9.1454874e-09
-4.9388293e-10
9.3143482e-09
-4.6513724e-10
9.4915962e-09
-4.9009376e-10
9.6619844e-09
-4.6891442e-10
9.8396165e-09
-4.8588676e-10
1.0011542e-08
-4.7335916e-10
1.0187685e-08
-4.7276773e-10
1.0361459e-08
-4.8306514e-10
1.0534163e-08
-4.5255015e-10
1.0709285e-08
-4.9070708e-10
1.087582e-08
-4.3505312e-10
1.1052668e-08
-4.9267457e-10
1.1212876e-08
-4.2579072e-10
1.1391399e-08
-4.8538166e-10
1.1550585e-08
-4.2960507e-10
1.1724571e-08
-4.6078369e-10
1.1890083e-08
-4.4114385e-10
1.2058436e-08
-4.4081065e-10
1.222576e-08
-4.3796176e-10
1.2393709e-08
-4.3362935e-10
1.2557994e-08
-4.3134952e-10
1.2722955e-08
-4.2359428e-10
1.2886032e-08
-4.2763197e-10
1.3048311e-08
-4.2351862e-10
1.320562e-08
-4.0918833e-10
1.3373836e-08
-4.2763325e-10
1.352923e-08
-4.1667205e-10
1.369693e-08
-4.1726623e-10
1.3850975e-08
-4.0389318e-10
1.401627e-08
-4.1804161e-10
1.4170081e-08
-3.9071394e-10
1.4325365e-08
-3.9249889e-10
1.4478704e-08
-3.9810466e-10
1.4625152e-08
-3.6010205e-10
1.4784118e-08
-4.0033016e-10
1.4927783e-08
-3.5095531e-10
1.5086778e-08
-3.8412477e-10
1.5227306e-08
-3.6180498e-10
1.5378676e-08
-3.4854057e-10
1.5524337e-08
-3.6378357e-10
1.5661899e-08
-3.3396058e-10
1.581373e-08
-3.511158e-10
1.5946605e-08
-3.3432594e-10
1.6081405e-08
-3.1629603e-10
1.621918e-08
-3.2052811e-10
1.635127e-08
-3.1036371e-10
1.6479051e-08
-3.0988908e-10
1.661652e-08
-3.1117487e-10
1.6745611e-08
-2.9289024e-10
1.6873482e-08
-3.0344786e-10
1.7001967e-08
-2.9688491e-10
1.712726e-08
-2.7231657e-10
1.7252426e-08
-2.8513731e-10
1.7378852e-08
-2.9150284e-10
1.7500345e-08
-2.6100381e-10
1.7624306e-08
-2.6365917e-10
1.774361e-08
-2.6652991e-10
1.7854561e-08
-2.3567662e-10
1.796848e-08
-2.41005e-10
-2.3698424e-10
7.3502638e-09
-6.824897e-10
7.5483042e-09
-6.7748414e-10
7.7492466e-09
-6.828369e-10
7.9546778e-09
-6.908093e-10
8.1544976e-09
-6.7253732e-10
8.3605996e-09
-6.9949999e-10
8.5638373e-09
-6.7277798e-10
8.769162e-09
-6.9921429e-10
8.9772341e-09
-6.8540991e-10
9.1836944e-09
-6.9549637e-10
9.3930833e-09
-6.9232678e-10
9.603506e-09
-6.9992875e-10
9.8125806e-09
-6.8524274e-10
1.0026655e-08
-7.0737548e-10
1.0234525e-08
-6.7458148e-10
1.0450112e-08
-7.0947036e-10
1.0657891e-08
-6.7291634e-10
1.0874454e-08
-7.0665685e-10
1.1083556e-08
-6.7801618e-10
1.1301169e-08
-7.034997e-10
1.1511208e-08
-6.8339787e-10
1.1730057e-08
-6.916166e-10
1.1940351e-08
-6.9335911e-10
1.215832e-08
-6.7051908e-10
1.236908e-08
-7.0146785e-10
1.2581684e-08
-6.4765683e-10
1.2796457e-08
-7.0744745e-10
1.3000424e-08
-6.2975747e-10
1.322065e-08
-7.0560789e-10
1.342169e-08
-6.3064549e-10
1.3641693e-08
-6.8078655e-10
1.3848667e-08
-6.4811718e-10
1.4065617e-08
-6.5776156e-10
1.4277125e-08
-6.4946955e-10
1.4493505e-08
-6.5000899e-10
1.4703101e-08
-6.4094561e-10
1.4916602e-08
-6.3709545e-10
1.5125506e-08
-6.3653618e-10
1.5330393e-08
-6.2840501e-10
1.5532977e-08
-6.1177256e-10
1.5744808e-08
-6.3946447e-10
1.5938667e-08
-6.1053118e-10
1.615745e-08
-6.3604844e-10
1.6350762e-08
-5.9720539e-10
1.6567749e-08
-6.3502849e-10
1.6765739e-08
-5.8870411e-10
1.6972073e-08
-5.9883281e-10
1.717111e-08
-5.9714216e-10
1.7369936e-08
-5.5892801e-10
1.7569053e-08
-5.9944726e-10
1.7758454e-08
-5.4035604e-10
1.7964428e-08
-5.9009851e-10
1.8150732e-08
-5.4810906e-10
1.8359529e-08
-5.573375e-10
1.8545152e-08
-5.4940709e-10
1.8738926e-08
-5.2773393e-10
1.8940608e-08
-5.5279796e-10
1.9118118e-08
-5.1183607e-10
1.9304202e-08
-5.0238032e-10
1.949112e-08
-5.0744614e-10
1.9671673e-08
-4.9091614e-10
1.9845758e-08
-4.8397397e-10
2.0033115e-08
-4.9853184e-10
2.0213466e-08
-4.7324183e-10
2.0388441e-08
-4.7842283e-10
2.0567526e-08
-4.7596932e-10
2.0748363e-08
-4.5315446e-10
2.0923931e-08
-4.6070488e-10
2.1094367e-08
-4.6193907e-10
2.1261945e-08
-4.2858145e-10
2.1434393e-08
-4.3610722e-10
2.1603741e-08
-4.3587799e-10
2.1769047e-08
-4.0098249e-10
2.1933362e-08
-4.0531987e-10
-3.9873845e-10
7.9497468e-09
-9.14e-10
8.1770393e-09
-9.0477662e-10
8.4091411e-09
-9.1493869e-10
8.6451746e-09
-9.2684278e-10
8.8782004e-09
-9.0556315e-10
9.1135298e-09
-9.3482935e-10
9.3533542e-09
-9.1260238e-10
9.5878398e-09
-9.3369993e-10
9.8327976e-09
-9.3036765e-10
1.0072025e-08
-9.3472357e-10
1.0315885e-08
-9.3618704e-10
1.0563263e-08
-9.4730638e-10
1.0806835e-08
-9.2881521e-10
1.1059372e-08
-9.5991284e-10
1.1304711e-08
-9.1992049e-10
1.1557898e-08
-9.6265658e-10
1.18052e-08
-9.2021847e-10
1.2059529e-08
-9.6098563e-10
1.2307506e-08
-9.259933e-10
1.2563721e-08
-9.5971534e-10
1.2811171e-08
-9.3084794e-10
1.3071402e-08
-9.5184693e-10
1.3317448e-08
-9.3940578e-10
1.358136e-08
-9.3443079e-10
1.3827491e-08
-9.4759909e-10
1.4088988e-08
-9.0915338e-10
1.4342024e-08
-9.6048382e-10
1.4596592e-08
-8.8432552e-10
1.4857363e-08
-9.6637808e-10
1.5105421e-08
-8.7870394e-10
1.5372262e-08
-9.4762776e-10
1.561938e-08
-8.9523454e-10
1.5887384e-08
-9.2576596e-10
1.6140318e-08
-9.0240393e-10
1.640545e-08
-9.1514093e-10
1.6660069e-08
-8.955641e-10
1.6923258e-08
-9.0028437e-10
1.7180129e-08
-8.9340726e-10
1.7429348e-08
-8.7762376e-10
1.7686053e-08
-8.6847764e-10
1.7943925e-08
-8.9733722e-10
1.8183457e-08
-8.5006258e-10
1.8455485e-08
-9.0807631e-10
1.8690583e-08
-8.3230426e-10
1.8961233e-08
-9.0567789e-10
1.9201756e-08
-8.2922731e-10
1.9462998e-08
-8.6007502e-10
1.9707255e-08
-8.4139921e-10
1.9965023e-08
-8.1669595e-10
2.0210796e-08
-8.4522016e-10
2.046098e-08
-7.9053952e-10
2.0710275e-08
-8.3939422e-10
2.0943868e-08
-7.817019e-10
2.1207309e-08
-8.2077785e-10
2.1435012e-08
-7.7711087e-10
2.1696965e-08
-7.8968652e-10
2.194881e-08
-8.0464337e-10
2.2182728e-08
-7.4575362e-10
2.242606e-08
-7.4571268e-10
2.2666215e-08
-7.4760085e-10
2.2902276e-08
-7.2697698e-10
2.3132291e-08
-7.1398869e-10
2.3374387e-08
-7.4062805e-10
2.3607459e-08
-7.0631452e-10
2.3829553e-08
-7.005167e-10
2.4063477e-08
-7.098931e-10
2.4302695e-08
-6.9237265e-10
2.4536806e-08
-6.9481547e-10
2.4763741e-08
-6.8887454e-10
2.4994126e-08
-6.5896587e-10
2.5224292e-08
-6.6627376e-10
2.5442895e-08
-6.544809e-10
2.5656638e-08
-6.1472551e-10
2.5880958e-08
-6.2963957e-10
-6.1691055e-10
8.3966442e-09
-1.1739374e-09
8.6506848e-09
-1.1588171e-09
8.9141935e-09
-1.1784474e-09
9.1763252e-09
-1.1889745e-09
9.4434447e-09
-1.1726827e-09
9.7048259e-09
-1.1962105e-09
9.9804123e-09
-1.1881888e-09
1.0242986e-08
-1.1962736e-09
1.0523593e-08
-1.2109749e-09
1.0794254e-08
-1.2053845e-09
1.1072485e-08
-1.2144181e-09
1.1354636e-08
-1.2294576e-09
1.1632577e-08
-1.2067562e-09
1.1921831e-08
-1.2491664e-09
1.2203695e-08
-1.2017845e-09
1.2492836e-08
-1.2517979e-09
1.2779964e-08
-1.2073462e-09
1.3069336e-08
-1.2503576e-09
1.3358088e-08
-1.2147457e-09
1.3650923e-08
-1.2525504e-09
1.3937368e-08
-1.2172926e-09
1.4239228e-08
-1.2537073e-09
1.4522143e-08
-1.22232e-09
1.483318e-08
-1.2454681e-09
1.5116184e-08
-1.2306032e-09
1.542873e-08
-1.2216997e-09
1.5717892e-08
-1.2496452e-09
1.6027009e-08
-1.1934422e-09
1.632504e-08
-1.2644097e-09
1.6623759e-08
-1.1774227e-09
1.6935657e-08
-1.2595259e-09
1.7222772e-08
-1.1823491e-09
1.7542776e-08
-1.2457699e-09
1.7835575e-08
-1.1952031e-09
1.8148879e-08
-1.2284457e-09
1.8449737e-08
-1.1964219e-09
1.8761895e-08
-1.2124416e-09
1.9068577e-08
-1.2000897e-09
1.9363735e-08
-1.1727819e-09
1.9678805e-08
-1.1835476e-09
1.9982163e-08
-1.2006951e-09
2.0275227e-08
-1.1431263e-09
2.0601598e-08
-1.2344481e-09
2.0885752e-08
-1.1164576e-09
2.1213878e-08
-1.2338036e-09
2.1502447e-08
-1.1177964e-09
2.1822585e-08
-1.1802133e-09
2.2110609e-08
-1.1294231e-09
2.2426911e-08
-1.1329978e-09
2.2717341e-08
-1.1356508e-09
2.3031086e-08
-1.1042847e-09
2.3326842e-08
-1.1351503e-09
2.363006e-08
-1.0849198e-09
2.3942022e-08
-1.1327399e-09
2.4219287e-08
-1.0543754e-09
2.4548629e-08
-1.1190283e-09
2.4839581e-08
-1.095596e-09
2.513853e-08
-1.0447024e-09
2.5444606e-08
-1.0517886e-09
2.5740328e-08
-1.0433225e-09
2.6037971e-08
-1.0246204e-09
2.6327332e-08
-1.0033496e-09
2.6626195e-08
-1.0394913e-09
2.6919089e-08
-9.9920874e-10
2.7202003e-08
-9.834307e-10
2.7491926e-08
-9.9981527e-10
2.7786224e-08
-9.8667149e-10
2.8071984e-08
-9.8057555e-10
2.8352118e-08
-9.6900838e-10
2.8644016e-08
-9.5086331e-10
2.8936859e-08
-9.5911709e-10
2.9222727e-08
-9.4034844e-10
2.9502801e-08
-8.9479988e-10
2.9776583e-08
-9.0342174e-10
-8.9507611e-10
8.7108792e-09
-1.4571085e-09
8.9912915e-09
-1.4392295e-09
9.2837778e-09
-1.4709337e-09
9.5706233e-09
-1.4758199e-09
9.8703165e-09
-1.4723758e-09
1.0158317e-08
-1.4842106e-09
1.0466654e-08
-1.496526e-09
1.0759446e-08
-1.4890661e-09
1.1072679e-08
-1.5242079e-09
1.1374859e-08
-1.5075638e-09
1.1687737e-08
-1.5272961e-09
1.2000478e-08
-1.5421993e-09
1.2315504e-08
-1.5217817e-09
1.2635742e-08
-1.5694047e-09
1.2955838e-08
-1.5218807e-09
1.3277064e-08
-1.5730237e-09
1.3604824e-08
-1.5351062e-09
1.3926996e-08
-1.5725298e-09
1.4258808e-08
-1.5465573e-09
1.4586995e-08
-1.5807377e-09
1.4915839e-08
-1.5461363e-09
1.5258262e-08
-1.59613e-09
1.5580455e-08
-1.5445137e-09
1.5937535e-08
-1.6025483e-09
1.6257835e-08
-1.5509029e-09
1.6620045e-08
-1.5839096e-09
1.6944909e-08
-1.5745091e-09
1.7307996e-08
-1.5565289e-09
1.7638832e-08
-1.5952465e-09
1.7992534e-08
-1.5311245e-09
1.8343645e-08
-1.6106368e-09
1.8677379e-08
-1.5160827e-09
1.9047188e-08
-1.6155792e-09
1.9383483e-08
-1.5314986e-09
1.9745863e-08
-1.5908249e-09
2.0095346e-08
-1.5459051e-09
2.0456939e-08
-1.5740348e-09
2.081162e-08
-1.5547709e-09
2.1156668e-08
-1.5178298e-09
2.1528918e-08
-1.5557978e-09
2.1875717e-08
-1.5474941e-09
2.2227807e-08
-1.4952163e-09
2.2600808e-08
-1.6074486e-09
2.2943002e-08
-1.4586517e-09
2.3322207e-08
-1.6130084e-09
2.3662663e-08
-1.4582532e-09
2.4040214e-08
-1.5577636e-09
2.4381892e-08
-1.4711011e-09
2.4756105e-08
-1.5072108e-09
2.509381e-08
-1.4733556e-09
2.5466819e-08
-1.4772944e-09
2.5801309e-08
-1.4696403e-09
2.6177494e-08
-1.4611049e-09
2.6526849e-08
-1.4820946e-09
2.6876522e-08
-1.4040487e-09
2.7269412e-08
-1.5119182e-09
2.7593829e-08
-1.4200127e-09
2.7963727e-08
-1.4146009e-09
2.8312042e-08
-1.4001028e-09
2.8666898e-08
-1.3981793e-09
2.9027116e-08
-1.3848379e-09
2.9373095e-08
-1.3493287e-09
2.9723341e-08
-1.3897372e-09
3.0072639e-08
-1.3485067e-09
3.0413118e-08
-1.3239093e-09
3.0768308e-08
-1.3550057e-09
3.1116165e-08
-1.3345283e-09
3.1454879e-08
-1.3192901e-09
3.179176e-08
-1.3058885e-09
3.2141598e-08
-1.3007019e-09
3.2483089e-08
-1.3006084e-09
3.2823085e-08
-1.2803442e-09
3.3169365e-08
-1.2410796e-09
3.3513475e-08
-1.2475317e-09
-1.2331909e-09
8.9127013e-09
-1.7590298e-09
9.2217669e-09
-1.7482951e-09
9.5374589e-09
-1.7866256e-09
9.8526341e-09
-1.7909952e-09
1.0178905e-08
-1.7986464e-09
1.0497593e-08
-1.8028992e-09
1.083313e-08
-1.8320628e-09
1.1159271e-08
-1.8152071e-09
1.1500398e-08
-1.8653352e-09
1.1835316e-08
-1.8424812e-09
1.2180174e-08
-1.872154e-09
1.2521576e-08
-1.8836016e-09
1.2874791e-08
-1.8749965e-09
1.3220304e-08
-1.9149181e-09
1.3582405e-08
-1.8839814e-09
1.3930956e-08
-1.9215743e-09
1.4300714e-08
-1.9048642e-09
1.465553e-08
-1.9273461e-09
1.502845e-08
-1.9194774e-09
1.539272e-08
-1.9450077e-09
1.5763802e-08
-1.9172181e-09
1.6143344e-08
-1.9756721e-09
1.6508566e-08
-1.9097356e-09
1.6905461e-08
-1.9994434e-09
1.7267156e-08
-1.9125978e-09
1.7672946e-08
-1.9896996e-09
1.8036569e-08
-1.9381319e-09
1.8450907e-08
-1.9708677e-09
1.8815232e-08
-1.9595711e-09
1.9227094e-08
-1.9429862e-09
1.9610815e-08
-1.9943586e-09
2.0001624e-08
-1.9068914e-09
2.0414242e-08
-2.0281976e-09
2.0795973e-08
-1.9132295e-09
2.1208038e-08
-2.0028895e-09
2.1604373e-08
-1.9422399e-09
2.2017865e-08
-1.9875267e-09
2.2412077e-08
-1.9489828e-09
2.281566e-08
-1.9214137e-09
2.3236128e-08
-1.9762653e-09
2.3623051e-08
-1.934417e-09
2.403895e-08
-1.9111151e-09
2.4443806e-08
-2.0123044e-09
2.4851262e-08
-1.866108e-09
2.5267978e-08
-2.0297245e-09
2.5659242e-08
-1.8495167e-09
2.6085203e-08
-1.9837248e-09
2.6475229e-08
-1.8611273e-09
2.6898667e-08
-1.9306483e-09
2.7288397e-08
-1.8630855e-09
2.7718035e-08
-1.9069324e-09
2.8087084e-08
-1.8386895e-09
2.8532015e-08
-1.9060365e-09
2.8887775e-08
-1.8378544e-09
2.9320552e-08
-1.8368255e-09
2.9749234e-08
-1.9406001e-09
3.0120413e-08
-1.7911922e-09
3.0560708e-08
-1.8548959e-09
3.0935594e-08
-1.7749885e-09
3.1335627e-08
-1.7982123e-09
3.1747929e-08
-1.7971402e-09
3.2144752e-08
-1.7461513e-09
3.253792e-08
-1.7829051e-09
3.2942254e-08
-1.7528403e-09
3.333428e-08
-1.7159353e-09
3.3742249e-08
-1.7629754e-09
3.4151411e-08
-1.7436902e-09
3.4542544e-08
-1.7104225e-09
3.4926887e-08
-1.6902317e-09
3.532015e-08
-1.6939648e-09
3.5712985e-08
-1.6934433e-09
3.6108539e-08
-1.6758988e-09
3.6507225e-08
-1.6397656e-09
3.691597e-08
-1.6562766e-09
-1.6245297e-09
9.0250118e-09
-2.0811333e-09
9.3615382e-09
-2.0848215e-09
9.6976598e-09
-2.1227472e-09
1.004264e-08
-2.1359757e-09
1.0389753e-08
-2.1457591e-09
1.0740919e-08
-2.1540653e-09
1.1098144e-08
-2.189288e-09
1.1457731e-08
-2.1747935e-09
1.1822603e-08
-2.2302072e-09
1.2190341e-08
-2.2102194e-09
1.2562543e-08
-2.2443557e-09
1.2934997e-08
-2.2560554e-09
1.3321577e-08
-2.2615765e-09
1.3694396e-08
-2.2877378e-09
1.4096831e-08
-2.2864163e-09
1.4472084e-08
-2.2968277e-09
1.4883871e-08
-2.316651e-09
1.5270737e-08
-2.3142114e-09
1.5681841e-08
-2.3305818e-09
1.6084089e-08
-2.3472553e-09
1.6494056e-08
-2.3271859e-09
1.690928e-08
-2.3908955e-09
1.731889e-08
-2.3193459e-09
1.7750604e-08
-2.4311574e-09
1.8157499e-08
-2.3194931e-09
1.8601933e-08
-2.4341337e-09
1.9008008e-08
-2.344206e-09
1.9466999e-08
-2.4298594e-09
1.9869183e-08
-2.3617547e-09
2.0336609e-08
-2.4104123e-09
2.0745317e-08
-2.4030668e-09
2.1199178e-08
-2.3607521e-09
2.1642483e-08
-2.4715027e-09
2.2069124e-08
-2.3398709e-09
2.2523375e-08
-2.4571406e-09
2.2965448e-08
-2.3843124e-09
2.342306e-08
-2.4451384e-09
2.3842983e-08
-2.3689061e-09
2.431362e-08
-2.3920504e-09
2.475953e-08
-2.4221753e-09
2.5183285e-08
-2.3581727e-09
2.5656191e-08
-2.384021e-09
2.6072328e-08
-2.4284408e-09
2.6548088e-08
-2.3418684e-09
2.6976505e-08
-2.458142e-09
2.7416528e-08
-2.2895389e-09
2.7874564e-08
-2.4417612e-09
2.8304423e-08
-2.2909861e-09
2.8769367e-08
-2.3955925e-09
2.9188041e-08
-2.28176e-09
2.9663589e-08
-2.3824803e-09
3.0057201e-08
-2.2323012e-09
3.0568872e-08
-2.4177075e-09
3.0910646e-08
-2.1796282e-09
3.1432066e-08
-2.3582458e-09
3.1854996e-08
-2.3635299e-09
3.2262455e-08
-2.1986511e-09
3.2758304e-08
-2.3507455e-09
3.3135506e-08
-2.1521905e-09
3.3602145e-08
-2.2648506e-09
3.4050799e-08
-2.2457949e-09
3.4486248e-08
-2.1815999e-09
3.4925339e-08
-2.2219965e-09
3.5384795e-08
-2.2122962e-09
3.5811773e-08
-2.1429129e-09
3.6233466e-08
-2.1846692e-09
3.671154e-08
-2.2217636e-09
3.7108302e-08
-2.1071843e-09
3.7514248e-08
-2.0961777e-09
3.7921233e-08
-2.1009499e-09
3.8335172e-08
-2.1073826e-09
3.8697042e-08
-2.0377686e-09
3.8998292e-08
-1.9410159e-09
3.9308074e-08
-1.9660579e-09
-1.9304058e-09
9.0657934e-09
-2.4280886e-09
9.4220586e-09
-2.4410867e-09
9.7814028e-09
-2.4820914e-09
1.0149939e-08
-2.5045115e-09
1.0517898e-08
-2.5137188e-09
1.0897754e-08
-2.5339209e-09
1.1274733e-08
-2.5662674e-09
1.166604e-08
-2.5660998e-09
1.2051871e-08
-2.6160381e-09
1.2452876e-08
-2.611225e-09
1.2848182e-08
-2.6396621e-09
1.3255867e-08
-2.6637402e-09
1.3668065e-08
-2.6737741e-09
1.4076512e-08
-2.6961851e-09
1.4509483e-08
-2.7193875e-09
1.4918196e-08
-2.7055405e-09
1.5367833e-08
-2.7662877e-09
1.5784535e-08
-2.7309135e-09
1.6237292e-08
-2.7833388e-09
1.6671126e-08
-2.7810892e-09
1.7123824e-08
-2.7798837e-09
1.7569471e-08
-2.8365424e-09
1.8024703e-08
-2.7745783e-09
1.84862e-08
-2.892654e-09
1.8938585e-08
-2.7718789e-09
1.9415152e-08
-2.9107001e-09
1.9863412e-08
-2.7924666e-09
2.0355776e-08
-2.9222231e-09
2.0795469e-08
-2.8014474e-09
2.1306889e-08
-2.9218328e-09
2.1730354e-08
-2.8265318e-09
2.2243283e-08
-2.8736804e-09
2.2696803e-08
-2.9250233e-09
2.3166727e-08
-2.8097948e-09
2.363778e-08
-2.9281932e-09
2.4127848e-08
-2.8743806e-09
2.4601147e-08
-2.9184374e-09
2.5034928e-08
-2.8026872e-09
2.5571105e-08
-2.9282276e-09
2.6001173e-08
-2.8522435e-09
2.6476743e-08
-2.8337418e-09
2.6964417e-08
-2.8716955e-09
2.7394067e-08
-2.8580905e-09
2.7914439e-08
-2.8622404e-09
2.8326182e-08
-2.8698852e-09
2.8797697e-08
-2.7610539e-09
2.9284251e-08
-2.9283151e-09
2.9768054e-08
-2.7747892e-09
3.0262078e-08
-2.8896165e-09
3.0704875e-08
-2.7245568e-09
3.1209387e-08
-2.8869929e-09
3.1545592e-08
-2.5685062e-09
3.2148368e-08
-3.0204831e-09
3.2220308e-08
-2.2515686e-09
3.2749943e-08
-2.8878805e-09
3.3189619e-08
-2.8032058e-09
3.2898207e-08
-1.9072394e-09
3.3010708e-08
-2.4632462e-09
3.3161241e-08
-2.3027234e-09
3.3305463e-08
-2.409073e-09
3.3661144e-08
-2.6014758e-09
3.3874932e-08
-2.3953877e-09
3.4309418e-08
-2.6564832e-09
3.454632e-08
-2.4491974e-09
3.4400132e-08
-1.9967252e-09
3.4324288e-08
-2.1088252e-09
3.509373e-08
-2.9912053e-09
3.5507512e-08
-2.5209665e-09
3.5766015e-08
-2.3546811e-09
3.587889e-08
-2.2138241e-09
3.5902739e-08
-2.1312316e-09
3.5688459e-08
-1.8234891e-09
3.513057e-08
-1.3831269e-09
3.4988975e-08
-1.8244625e-09
-1.7461032e-09
9.042806e-09
-2.7995443e-09
9.412477e-09
-2.8107577e-09
9.7979022e-09
-2.8675165e-09
1.0181457e-08
-2.8880665e-09
1.0575383e-08
-2.9076449e-09
1.0975839e-08
-2.9343768e-09
1.1376777e-08
-2.9672051e-09
1.1795561e-08
-2.9848836e-09
1.220286e-08
-3.0233379e-09
1.2636925e-08
-3.0452895e-09
1.3053022e-08
-3.0557591e-09
1.3498676e-08
-3.1093939e-09
1.3930614e-08
-3.105712e-09
1.4382471e-08
-3.1480428e-09
1.4833632e-08
-3.1705479e-09
1.5288169e-08
-3.1600775e-09
1.5761924e-08
-3.2400429e-09
1.6215626e-08
-3.1846153e-09
1.6704055e-08
-3.2717676e-09
1.7165601e-08
-3.2426355e-09
1.7662066e-08
-3.2763484e-09
1.812575e-08
-3.3002271e-09
1.8629376e-08
-3.2782043e-09
1.9101332e-08
-3.3646097e-09
1.9603645e-08
-3.2741919e-09
2.0085484e-08
-3.3925392e-09
2.0579681e-08
-3.286664e-09
2.107529e-08
-3.4178321e-09
2.1551678e-08
-3.2778347e-09
2.2079385e-08
-3.4495402e-09
2.2505872e-08
-3.2530187e-09
2.3058998e-08
-3.426806e-09
2.3507668e-08
-3.3736934e-09
2.4006184e-08
-3.3083112e-09
2.4468371e-08
-3.3903797e-09
2.4998255e-08
-3.4042649e-09
2.5421349e-08
-3.3415313e-09
2.5888371e-08
-3.2697093e-09
2.6502727e-08
-3.5425836e-09
2.6881134e-08
-3.2306503e-09
2.7398921e-08
-3.3515291e-09
2.7829119e-08
-3.3018938e-09
2.8151386e-08
-3.1803573e-09
2.8507518e-08
-3.2183719e-09
2.8544712e-08
-2.9070798e-09
2.780098e-08
-2.0173221e-09
2.8646419e-08
-3.7737542e-09
2.8700327e-08
-2.8286964e-09
2.8980054e-08
-3.1693438e-09
2.9167948e-08
-2.9124506e-09
2.9145456e-08
-2.8645015e-09
2.8607561e-08
-2.0306105e-09
2.8830953e-08
-3.2438752e-09
2.8056692e-08
-1.4773077e-09
2.7294461e-08
-2.1256498e-09
2.7593586e-08
-3.1023302e-09
2.6358617e-08
-6.7227088e-10
2.5903091e-08
-2.0077203e-09
2.5262724e-08
-1.662356e-09
2.4678461e-08
-1.8248103e-09
2.3641057e-08
-1.5640718e-09
2.2101853e-08
-8.561829e-10
2.1480809e-08
-2.0354396e-09
2.0646028e-08
-1.6144169e-09
1.8591369e-08
5.7934039e-11
1.7408055e-08
-9.255111e-10
1.869323e-08
-4.2763807e-09
2.0394772e-08
-4.2225083e-09
2.0886526e-08
-2.8464348e-09
1.9083723e-08
-4.1102122e-10
1.8434034e-08
-1.4815424e-09
1.7826656e-08
-1.2161113e-09
1.6349835e-08
9.369425e-11
1.620637e-08
-1.6809975e-09
-1.6609866e-09
8.9608005e-09
-3.1888393e-09
9.3460633e-09
-3.1960206e-09
9.7538731e-09
-3.2753263e-09
1.0151552e-08
-3.2857459e-09
1.0573283e-08
-3.3293753e-09
1.0988273e-08
-3.3493674e-09
1.1420411e-08
-3.3993428e-09
1.1856659e-08
-3.4211319e-09
1.2294944e-08
-3.4616228e-09
1.2750989e-08
-3.5013339e-09
1.3197543e-08
-3.5023138e-09
1.3671496e-08
-3.5833464e-09
1.4129905e-08
-3.564121e-09
1.4619647e-08
-3.6377849e-09
1.5087525e-08
-3.6384262e-09
1.5590015e-08
-3.6625677e-09
1.6072705e-08
-3.7227321e-09
1.6574823e-08
-3.6867338e-09
1.7069616e-08
-3.7665607e-09
1.7573479e-08
-3.7464988e-09
1.8078458e-08
-3.7813274e-09
1.8567519e-08
-3.789288e-09
1.9087039e-08
-3.7977242e-09
1.956389e-08
-3.84146e-09
2.0090967e-08
-3.8012689e-09
2.0556696e-08
-3.8582683e-09
2.1088128e-08
-3.8180959e-09
2.155657e-08
-3.8862742e-09
2.2061257e-08
-3.7825221e-09
2.2565639e-08
-3.9539225e-09
2.299203e-08
-3.6794092e-09
2.3579625e-08
-4.0144016e-09
2.4015607e-08
-3.8096747e-09
2.4419687e-08
-3.7123911e-09
2.477484e-08
-3.7455331e-09
2.4836412e-08
-3.4658365e-09
2.4764516e-08
-3.2696356e-09
2.4804626e-08
-3.3098195e-09
2.5392252e-08
-4.130209e-09
2.5137631e-08
-2.9760299e-09
2.5222551e-08
-3.4364489e-09
2.4737224e-08
-2.8165663e-09
2.4542276e-08