/*--------------------------------*- C++ -*----------------------------------*\
| =========                 |                                                 |
| \\      /  F ield         | OpenFOAM: The Open Source CFD Toolbox           |
|  \\    /   O peration     | Version:  2.3.0                                 |
|   \\  /    A nd           | Web:      www.OpenFOAM.org                      |
|    \\/     M anipulation  |                                                 |
\*---------------------------------------------------------------------------*/
FoamFile
{
    version     2.0;
    format      ascii;
    class       volScalarField;
    location    "0.052";
    object      alpha.water;
}
// * * * * * * * * * * * * * * * * * * * * * * * * * * * * * * * * * * * * * //

dimensions      [0 0 0 0 0 0 0];

internalField   nonuniform List<scalar> 
725
(
1
1
1
1.00004
1.00004
1
1
1
1.0001
1
1
1
1.00001
1.00002
0.999888
1
1
1.00001
0.999979
0.99998
1
1
1.00002
0.999968
0.99998
0.987514
0.700212
0.344676
0.0696303
0.361829
0.998865
0.999868
0.999763
0.99977
0.99986
0.999925
0.999957
0.999977
1.00001
1.00004
1.00001
0.989603
0.449362
0.035119
0.0124476
0.225665
0.546206
0.984942
1
1.00003
1.00003
1.00002
1.00002
1.00002
1.00002
1.00002
1.00002
1.00002
1
0.999985
0.999973
0.999931
0.999877
0.999831
0.999739
0.999463
0.999482
0.999953
0.732527
0.105009
0.999976
0.741624
0.351921
0.0626552
0.396095
0.99992
0.999879
0.999863
0.999746
0.999654
0.999674
0.999756
0.999835
0.999905
0.999954
1
0.982539
0.460001
0.0244257
0.0120629
0.0124455
0.597991
0.999662
0.99993
0.999891
0.999905
0.999853
0.999823
0.999822
0.999836
0.999857
0.999878
0.999892
0.9999
0.999902
0.999904
0.999902
0.999853
0.999701
0.999341
0.99838
0.998909
0.999953
0.757489
0.0878243
0.999935
0.596337
0.0164439
0.0480159
0.529621
0.999947
0.999946
0.999904
0.999852
0.999771
0.999669
0.999644
0.999689
0.999811
0.999931
1
0.969742
0.464517
0.0160508
0.0119527
0.0178413
0.557875
0.992332
0.999986
0.999891
0.999887
0.999829
0.999748
0.999688
0.999666
0.999681
0.99972
0.999763
0.999798
0.999823
0.999837
0.999852
0.999847
0.999751
0.999475
0.996498
0.996497
0.999953
0.788696
0.0584649
0.999981
0.10051
0.00895557
0.0301102
0.530102
0.999906
0.999864
0.999811
0.999926
0.99986
0.999772
0.999699
0.999696
0.999793
0.99996
1
0.967101
0.44689
0.0119547
0.01192
0.0119028
0.386126
0.995603
1
1.00002
0.999932
0.99984
0.999719
0.999594
0.9995
0.999462
0.999484
0.999539
0.999603
0.99966
0.999696
0.999714
0.999805
1.00042
0.998227
0.996463
0.997315
0.999803
0.688694
1.79184e-07
0.437221
0.000477532
0.00637536
0.0617511
0.748003
0.987258
0.999867
0.999862
0.999832
0.999898
0.999794
0.999766
0.999756
0.99981
0.999901
1.00001
0.968333
0.426501
0.0119797
0.0118706
0.0118618
0.3262
0.972939
0.999978
0.999929
0.999915
0.999833
0.999693
0.99952
0.999355
0.999245
0.999214
0.999241
0.999304
0.999381
0.99945
0.999559
0.999684
1.00008
0.997964
0.996463
0.998182
0.999606
0.676376
0.00307196
1.92678e-08
2.6499e-05
0.000487216
0.0307173
0.74911
0.977523
0.999867
0.99987
0.999848
0.999858
0.999819
0.999779
0.999766
0.999811
0.999893
1.00006
0.968271
0.428118
0.0119833
0.0118711
0.0118113
0.300381
0.977435
0.999972
0.999917
0.999911
0.999829
0.999677
0.999448
0.999204
0.999013
0.998919
0.998924
0.998997
0.999106
0.999211
0.999342
0.999422
0.999528
0.998479
0.996517
0.998634
0.998944
0.73298
0.0178482
3.63271e-05
7.27686e-05
0.00074007
0.0566953
0.858826
0.999674
0.999805
0.999749
0.999918
0.999875
0.999835
0.999791
0.999771
0.999809
0.999904
1.00005
0.971052
0.423568
0.0125121
0.0118436
0.0117449
0.312176
0.988626
0.999953
0.99991
0.999906
0.999824
0.999657
0.999417
0.999171
0.998966
0.998843
0.998819
0.998883
0.999003
0.999143
0.999254
0.999298
0.999288
0.998719
0.996525
0.99919
0.999208
0.701743
1.73638e-05
2.8885e-05
7.78443e-05
0.00252611
0.124388
0.610473
0.98672
0.999874
0.999553
0.999807
0.99988
0.999846
0.9998
0.999801
0.999813
0.99991
1
0.977695
0.423417
0.015147
0.0211313
0.0118403
0.306671
0.993851
0.999977
0.999904
0.9999
0.999816
0.999638
0.9994
0.99916
0.998952
0.998812
0.998775
0.998836
0.998969
0.999135
0.999287
0.99936
0.999003
0.998831
0.99653
0.998842
0.999043
0.718324
0.00486262
1.33746e-05
0.000125361
0.0259127
0.255882
0.762957
0.995744
0.999901
0.999682
0.999834
0.999893
0.999856
0.999808
0.999801
0.99981
0.9999
1.00006
0.980803
0.413121
0.0197337
0.0245857
0.0121229
0.306
0.995815
1
0.999896
0.999892
0.999806
0.999622
0.999391
0.999166
0.998963
0.998817
0.998776
0.998842
0.998993
0.999186
0.999357
0.999424
0.999669
0.999295
0.996904
0.999053
0.999245
0.76483
0.0319393
7.83434e-06
0.00530484
0.0234638
0.46176
0.978234
0.999159
0.999887
0.999782
0.999886
0.999909
0.999863
0.999814
0.999797
0.999802
0.999886
1.00025
0.978553
0.422102
0.0159867
0.0182954
0.00792389
0.301575
0.99247
1.00005
0.999884
0.999882
0.999794
0.999607
0.999388
0.999187
0.999009
0.998869
0.998835
0.99892
0.999099
0.9993
0.999451
0.999516
0.999513
0.999258
0.999351
0.999484
0.99976
0.802585
0.046241
1
1
1
1.00029
0.947953
1
1
1
1.00009
1
1
1
1
1.00022
0.999697
1
1
1
1.00049
0.994714
1
1
1
1.00063
0.992462
0.0251351
0.0895382
0.24616
0.527568
0.944687
0.996102
1
1.00004
0.999978
0.999926
0.999871
0.999831
0.999809
0.9998
0.999894
1
0.987211
0.399516
0.00504404
0.00412608
0.00100869
0.257572
0.993339
0.999944
0.999904
0.999853
0.999733
0.999548
0.999363
0.999206
0.999086
0.999034
0.999067
0.999173
0.999312
0.999444
0.99951
0.999893
0.999841
0.999136
0.999995
0.999998
1
0.848188
0.0838102
0.508781
0.093018
0.31503
0.547348
0.948535
0.999947
0.999942
0.999953
0.999923
0.999881
0.999854
0.999842
0.999833
0.999824
0.999896
1.00001
0.999529
0.396025
0.00362205
0.00632559
0.000942465
0.200617
0.999953
0.999947
0.999865
0.999791
0.999645
0.999493
0.999388
0.999325
0.999297
0.999308
0.999365
0.999451
0.999536
0.9996
0.999628
1.00006
1.00026
0.996688
0.994322
0.999367
0.999936
0.893857
0.15612
0.990923
0.28581
0.684523
0.687927
0.946098
0.999948
0.999944
0.999956
0.999928
0.999902
0.999892
0.999889
0.999881
0.99987
0.999916
0.999993
1
0.392818
0.000980845
0.00329765
0.000921435
0.178927
0.999953
0.999875
0.999798
0.999679
0.999558
0.999506
0.999514
0.999538
0.999566
0.999596
0.999637
0.999681
0.999711
0.999728
0.999692
1.00051
0.999212
0.99202
0.991721
0.994541
0.999886
0.991657
0.386431
0.994717
0.883386
0.96934
0.740052
0.937002
0.999688
0.999939
0.999974
0.999971
0.999959
0.999951
0.999943
0.999931
0.999916
0.999939
0.999979
1
0.382386
0.000936339
0.000923729
0.000920414
0.165356
0.999953
0.999879
0.999683
0.999612
0.999628
0.999697
0.999753
0.999783
0.999797
0.999805
0.999811
0.999814
0.999804
0.999755
1.00002
1.00056
0.995209
0.991722
0.99172
0.994411
0.999895
0.999904
0.502114
0.984295
0.984327
0.978804
0.893923
0.923493
0.992655
0.999881
1.00005
1.00001
1.00002
1.00002
1.00002
1.00001
1.00001
1
1.00003
1.00001
0.379577
0.000924265
0.00092056
0.000920367
0.156434
0.98964
0.99988
0.9998
0.999892
0.99996
0.999979
0.999967
0.999948
0.999934
0.999923
0.999917
0.999912
0.999858
0.999538
0.999625
0.999734
0.993273
0.991726
0.994157
0.999158
0.999902
0.999903
0.49953
)
;

boundaryField
{
    AirInlet
    {
        type            fixedValue;
        value           uniform 0;
    }
    WaterInlet
    {
        type            fixedValue;
        value           uniform 1;
    }
    ChannelWall
    {
        type            zeroGradient;
    }
    Outlet
    {
        type            inletOutlet;
        inletValue      uniform 0;
        value           nonuniform List<scalar> 
15
(
0.105009
0.0878243
0
0
0.00307196
0
0
0
0
0
0
0
0
0.502114
0.49953
)
;
    }
    FrontAndBack
    {
        type            empty;
    }
}


// ************************************************************************* //
