/*--------------------------------*- C++ -*----------------------------------*\
| =========                 |                                                 |
| \\      /  F ield         | OpenFOAM: The Open Source CFD Toolbox           |
|  \\    /   O peration     | Version:  2.3.0                                 |
|   \\  /    A nd           | Web:      www.OpenFOAM.org                      |
|    \\/     M anipulation  |                                                 |
\*---------------------------------------------------------------------------*/
FoamFile
{
    version     2.0;
    format      ascii;
    class       volScalarField;
    location    "0.052";
    object      p_rgh;
}
// * * * * * * * * * * * * * * * * * * * * * * * * * * * * * * * * * * * * * //

dimensions      [1 -1 -2 0 0 0 0];

internalField   nonuniform List<scalar> 
725
(
639.868
601.319
575.62
603.84
502.667
634.082
602.096
578.161
614.629
546.141
631.498
601.807
577.038
609.191
516.028
631.888
600.392
575.681
600.373
484.365
635.253
598.266
574.825
593.493
494.137
553.96
163.004
11.5231
-208.792
-740.569
-980.142
-811.337
-760.984
-727.275
-728.857
-727.651
-729.284
-730.842
-730.877
-727.892
-716.444
-661.536
-668.231
-746.758
-710.421
-620.097
-589.326
-871.728
-893.771
-875.56
-886.587
-888.937
-889.833
-890.744
-891.893
-893.445
-895.599
-898.357
-901.607
-905.234
-909.185
-913.734
-918.674
-923.073
-930.858
-924.337
-932.945
-831.968
-776.08
-142.18
575.914
125.529
-262.265
-194.435
-803.8
-982.889
-806.129
-762.649
-725.187
-727.015
-727.952
-729.769
-731.432
-732.048
-730.648
-721.107
-682.478
-693.075
-752.49
-732.175
-783.129
-757.722
-860.8
-885.104
-868.006
-884.718
-888.822
-890.159
-891.343
-892.56
-894.061
-896.123
-898.825
-901.99
-905.542
-909.467
-913.817
-918.709
-922.915
-932.232
-929.782
-942.407
-839.631
-788.022
-126.293
529.547
-281.953
-147.872
-249.916
-877.732
-923.17
-799.919
-756.443
-722.281
-726.19
-727.078
-728.547
-731.357
-733.239
-734.617
-733.469
-717.875
-712.383
-756.052
-736.507
-788.228
-893.798
-953.206
-907.568
-873.353
-885.347
-888.519
-889.758
-891.102
-892.418
-893.935
-895.999
-898.731
-901.905
-905.455
-909.369
-913.723
-918.287
-922.565
-934.287
-930.724
-965.947
-907.314
-838.845
-131.388
527.335
-124.969
-125.192
-302.286
-794.588
-815.861
-797.7
-742.181
-717.759
-724.024
-726.844
-729.012
-731.805
-734.932
-738.725
-746.181
-762.186
-748.338
-758.473
-740.136
-775.012
-915.786
-1060.06
-949.43
-885.163
-888.002
-888.606
-889.517
-890.808
-892.166
-893.694
-895.774
-898.576
-901.765
-905.309
-909.164
-913.432
-917.808
-916.459
-934.069
-937.616
-1008.66
-1044.02
-1955.96
17.385
99.9548
13.792
-99.114
-369.815
-1806.41
-714.314
-793.292
-720.71
-712.963
-721.011
-725.977
-729.062
-732.8
-736.718
-742.946
-759.308
-786.593
-760.762
-756.725
-741.256
-759.208
-899.693
-1065.94
-977.998
-894.143
-889.881
-888.411
-889.253
-890.533
-891.852
-893.343
-895.445
-898.367
-901.562
-905.093
-908.848
-913
-917.454
-917.817
-931.134
-939.266
-1047.8
-1006.04
-1351.07
-5.69714
14.3611
24.138
8.45999
14.4169
-1302.72
-604.597
-753.936
-692.025
-712.521
-720.694
-725.969
-729.327
-733.452
-737.994
-744.742
-764.809
-790.794
-775.238
-754.861
-744.922
-757.143
-765.416
-982.671
-930.126
-891.061
-890.255
-887.967
-889.137
-890.33
-891.356
-892.85
-895.119
-898.246
-901.425
-904.91
-908.526
-912.689
-917.52
-916.735
-930.953
-932.475
-1049.91
-1107.94
-2349.44
25.033
15.3409
24.753
2.7388
-290.154
1529.59
-488.557
-755.81
-685.166
-709.888
-720.944
-726.016
-729.488
-733.709
-738.433
-745.242
-765.754
-790.158
-771.271
-756.634
-745.856
-758.777
-720.625
-933.782
-914.421
-890.306
-890.245
-887.823
-889.116
-890.211
-891.097
-892.542
-894.996
-898.22
-901.363
-904.747
-907.865
-909.845
-913.238
-915.549
-930.798
-929.214
-1035.71
-1146.89
-2897.34
188.221
15.5704
25.08
-25.8554
-810.996
5342.18
-630.78
-769.381
-675.904
-711.617
-721.002
-726.094
-729.695
-734.013
-738.825
-745.55
-765.457
-778.052
-736.016
-764.036
-807.875
-762.19
-677.456
-873.674
-903.65
-890.2
-890.191
-887.723
-889.057
-890.091
-890.918
-892.16
-894.089
-896.718
-899.928
-903.562
-907.491
-910.825
-915.003
-905.005
-929.684
-925.613
-1032.22
-1151.06
-3076.64
128.339
15.5941
24.8243
4.48319
-1146.71
473.414
-657.589
-779.919
-679.924
-712.448
-721.101
-726.182
-729.907
-734.284
-739.234
-746.172
-764.748
-770.223
-678.632
-751.185
-710.141
-767.014
-631.908
-836.202
-904.155
-890.483
-890.112
-887.655
-888.999
-890.035
-891.055
-892.537
-894.356
-896.888
-900.193
-904.349
-908.609
-910.88
-914.755
-923.959
-927.551
-922.563
-1025.1
-1116.94
-2499.72
-88.2046
15.6337
10.7639
19.9098
-968.399
-66.4969
-634.656
-783.265
-680.76
-713.413
-721.207
-726.243
-730.098
-734.475
-739.551
-746.566
-763.149
-779.654
-701.649
-765.211
-888.557
-777.472
-642.497
-837.727
-905.845
-890.946
-889.992
-887.621
-888.954
-890.022
-891.254
-892.906
-894.826
-897.134
-900.645
-904.488
-908.479
-910.694
-914.351
-924.962
-926.823
-919.19
-1013.72
-1073.86
-1824.62
-116.266
-698.358
-736.772
-751.24
-753.318
-737.958
-701.812
-735.215
-753.263
-758.001
-825.882
-702.246
-734.017
-752.822
-742.942
-807.881
-699.659
-733.739
-752.859
-735.632
-794.437
-693.775
-734.094
-753.336
-737.698
-771.991
87.8097
-94.6742
-379.424
-873.232
-351.223
-556.225
-791.737
-686.662
-713.511
-721.429
-726.356
-730.5
-735.469
-740.197
-747.442
-756.914
-796.416
-866.394
-777.976
-799.818
-774.676
-875.929
-883.941
-910.478
-892.816
-889.609
-887.615
-888.831
-889.962
-891.363
-893.225
-895.273
-897.63
-900.89
-904.419
-908.019
-910.312
-912.835
-915.245
-925.777
-905.273
-972.499
-964.683
-1014.43
-149.352
-414.548
-60.5295
-386.4
-402.288
-548.365
-608.134
-803.135
-695.289
-717.29
-721.92
-726.212
-730.529
-735.732
-741.078
-749.038
-760.598
-788.076
-872.858
-777.203
-810.372
-777.667
-908.206
-963.699
-917.122
-894.156
-889.204
-887.16
-888.141
-889.739
-891.625
-893.51
-895.528
-897.893
-900.952
-904.255
-907.721
-909.587
-911.023
-909.556
-918.365
-915.117
-919.254
-816.151
-692.423
-271.813
-656.449
-376.061
-945.938
-706.784
-763.262
-662.219
-844.577
-705.147
-722.304
-722.615
-726.286
-730.452
-735.8
-741.498
-750.138
-763.5
-777.876
-790.697
-778.663
-788.705
-777.742
-837.005
-950.214
-916.072
-894.069
-888.11
-886.034
-887.824
-889.939
-891.743
-893.614
-895.655
-898.034
-900.973
-904.073
-907.001
-909.051
-905.614
-908.019
-895.535
-877.279
-865.468
-728.495
-467.105
-461.486
-651.524
-844.21
-1023.79
-852.599
-872.575
-653.347
-858.307
-723.828
-723.881
-722.946
-726.105
-730.198
-735.612
-741.413
-750.489
-764.707
-783.797
-812.387
-778.833
-772.848
-777.37
-804.093
-920.939
-912.678
-892.812
-886.721
-886.045
-887.866
-889.854
-891.734
-893.642
-895.698
-898.079
-900.953
-903.982
-906.697
-905.915
-905.01
-903.786
-887.763
-860.807
-826.949
-676.661
-348.751
-492.688
-650.314
-358.477
-896.278
-605.261
-892.13
-634.12
-869.753
-730.846
-724.377
-722.525
-725.465
-729.511
-734.896
-740.514
-749.933
-765.415
-798.711
-805.258
-777.817
-772.772
-777.191
-800.031
-937.315
-912.594
-892.238
-885.726
-884.242
-886.488
-888.928
-891.091
-893.127
-895.23
-897.627
-900.441
-903.856
-905.895
-907.934
-905.526
-895.181
-884.706
-856.673
-807.184
-658.53
-308.564
-459.63
)
;

boundaryField
{
    AirInlet
    {
        type            fixedFluxPressure;
        gradient        nonuniform List<scalar> 5(-0.336325 164051 -109460 88536.2 -3007.03);
        value           nonuniform List<scalar> 5(14.3611 16.9814 14.4758 16.4794 15.6036);
    }
    WaterInlet
    {
        type            fixedFluxPressure;
        gradient        nonuniform List<scalar> 10(0.00349572 -0.477934 0.424699 -0.0340309 -0.538182 0.0787025 -2.10549 -7.47184 -9.09799 0.990373);
        value           nonuniform List<scalar> 10(639.868 634.082 631.498 631.888 635.253 -698.358 -701.812 -702.246 -699.659 -693.775);
    }
    ChannelWall
    {
        type            fixedFluxPressure;
        gradient        uniform 0;
        value           nonuniform List<scalar> 
110
(
635.253
598.266
574.825
593.493
494.137
-698.358
-736.772
-751.24
-753.318
-737.958
-693.775
-734.094
-753.336
-737.698
-771.991
-650.314
-358.477
-896.278
-605.261
-892.13
-634.12
-869.753
-730.846
-724.377
-722.525
-725.465
-729.511
-734.896
-740.514
-749.933
-765.415
-798.711
-805.258
-777.817
-772.772
-777.191
-800.031
-937.315
-912.594
-892.238
-885.726
-884.242
-886.488
-888.928
-891.091
-893.127
-895.23
-897.627
-900.441
-903.856
-905.895
-907.934
-905.526
-895.181
-884.706
-856.673
-807.184
-658.53
-308.564
-459.63
639.868
601.319
575.62
603.84
502.667
553.96
163.004
11.5231
-208.792
-740.569
-980.142
-811.337
-760.984
-727.275
-728.857
-727.651
-729.284
-730.842
-730.877
-727.892
-716.444
-661.536
-668.231
-746.758
-710.421
-620.097
-589.326
-871.728
-893.771
-875.56
-886.587
-888.937
-889.833
-890.744
-891.893
-893.445
-895.599
-898.357
-901.607
-905.234
-909.185
-913.734
-918.674
-923.073
-930.858
-924.337
-932.945
-831.968
-776.08
-142.18
)
;
    }
    Outlet
    {
        type            totalPressure;
        rho             rho;
        psi             none;
        gamma           1;
        p0              uniform 0;
        value           nonuniform List<scalar> 
15
(
0
0
-0.132829
0
-0.13947
0
-0.152635
-0.313324
-0.0200068
-0.0106465
0
-0.393687
-0.0030749
0
0
)
;
    }
    FrontAndBack
    {
        type            empty;
    }
}


// ************************************************************************* //
