/*--------------------------------*- C++ -*----------------------------------*\
| =========                 |                                                 |
| \\      /  F ield         | OpenFOAM: The Open Source CFD Toolbox           |
|  \\    /   O peration     | Version:  2.3.0                                 |
|   \\  /    A nd           | Web:      www.OpenFOAM.org                      |
|    \\/     M anipulation  |                                                 |
\*---------------------------------------------------------------------------*/
FoamFile
{
    version     2.0;
    format      ascii;
    class       surfaceScalarField;
    location    "0.052";
    object      phi;
}
// * * * * * * * * * * * * * * * * * * * * * * * * * * * * * * * * * * * * * //

dimensions      [0 3 -1 0 0 0 0];

internalField   nonuniform List<scalar> 
1380
(
3.12594e-13
1.87406e-13
2.89525e-13
2.3069e-14
2.79417e-13
1.01077e-14
4.14911e-13
-1.35493e-13
8.13998e-14
3.33511e-13
5.99072e-13
8.83342e-14
5.97767e-13
2.43735e-14
4.78658e-13
1.29217e-13
-9.23374e-14
4.35502e-13
2.48875e-12
-2.49969e-12
6.83283e-13
-9.49493e-14
7.07297e-13
3.59585e-16
6.46372e-13
1.90142e-13
2.35278e-13
8.46596e-13
3.89324e-12
-1.16921e-12
5.98451e-13
-1.934e-13
6.11907e-13
-1.30971e-14
6.86777e-13
1.15272e-13
9.45785e-13
5.87588e-13
3.33026e-12
1.50877e-12
3.066e-13
2.93503e-13
4.08775e-13
9.96364e-13
4.32662e-12
-2.81833e-13
6.15344e-13
-1.64309e-12
1.36126e-12
3.82744e-12
-5.47053e-12
5.8611e-12
-2.03367e-12
-2.56429e-14
5.88674e-12
-1.30586e-12
1.28022e-12
-6.21075e-13
-6.84786e-13
-5.14904e-14
-5.69584e-13
2.03067e-13
-2.54557e-13
2.32386e-13
-2.93186e-14
2.08587e-13
2.37993e-14
1.73846e-13
3.47409e-14
1.53735e-13
2.01114e-14
1.47057e-13
6.67765e-15
1.52267e-13
-5.20972e-15
2.70055e-13
-1.17788e-13
1.04847e-12
-7.78419e-13
2.40362e-14
1.02444e-12
-5.82247e-12
5.8465e-12
-1.34159e-11
7.59344e-12
2.9255e-12
-1.63414e-11
2.10775e-12
8.17748e-13
9.71887e-13
1.13587e-12
5.1037e-13
4.61517e-13
3.83949e-13
1.2642e-13
2.6454e-13
1.1941e-13
1.78591e-13
8.59485e-14
1.43132e-13
3.54587e-14
1.3309e-13
1.00419e-14
1.33492e-13
-4.01409e-16
1.39049e-13
-5.55699e-15
1.44444e-13
-5.39628e-15
1.47271e-13
-2.8273e-15
1.49698e-13
-2.42597e-15
1.53289e-13
-3.59176e-15
1.57086e-13
-3.79724e-15
1.61349e-13
-4.26226e-15
1.74187e-13
-1.2839e-14
1.87842e-13
-1.36546e-14
2.23115e-13
-3.52724e-14
4.49973e-13
-2.26859e-13
9.72432e-13
-5.22459e-13
2.4175e-12
-1.44507e-12
7.96582e-12
-5.54832e-12
5.54899e-13
-3.38535e-12
1.501e-12
1.63438e-12
-3.65847e-12
1.88691e-11
-2.27053e-11
2.47956e-12
1.43559e-11
-9.16468e-13
9.28277e-12
-1.38538e-12
1.74913e-12
-9.00332e-13
-1.16983e-12
8.77986e-14
-1.55771e-12
4.90945e-13
-6.57703e-13
5.58973e-13
-9.73463e-14
5.05688e-13
7.70844e-14
4.35027e-13
1.05402e-13
3.90436e-13
6.47031e-14
3.53031e-13
4.40823e-14
3.08548e-13
3.92734e-14
3.24774e-13
-1.34014e-13
7.29422e-13
-1.18307e-12
-6.97187e-13
2.45105e-12
-7.43861e-12
1.25879e-11
-5.17833e-12
5.33316e-12
-1.85138e-12
-1.96684e-11
5.35369e-12
-6.38733e-12
3.87546e-12
2.61411e-12
1.94046e-12
2.39651e-12
1.02253e-12
1.04436e-12
6.39786e-13
5.0215e-13
4.51671e-13
2.74064e-13
3.73995e-13
1.13135e-13
3.53385e-13
3.06516e-14
3.55943e-13
-2.96031e-15
3.68084e-13
-1.76976e-14
3.79221e-13
-1.65339e-14
3.85224e-13
-8.83045e-15
3.89947e-13
-7.14905e-15
3.96468e-13
-1.01127e-14
4.03288e-13
-1.06176e-14
4.04789e-13
-5.7629e-15
4.23007e-13
-3.10573e-14
4.39531e-13
-3.01795e-14
4.45732e-13
-4.14741e-14
5.49297e-13
-3.30423e-13
8.0107e-13
-7.74232e-13
9.14911e-13
-1.55891e-12
2.57858e-12
-7.21199e-12
5.5813e-13
1.53894e-12
-1.20715e-12
1.23272e-11
-1.44467e-11
5.96253e-12
-1.63407e-11
-7.75633e-12
2.80748e-11
-1.38585e-12
2.91229e-12
-7.21964e-13
1.08525e-12
-3.44119e-13
-1.54768e-12
4.68847e-13
-2.37068e-12
7.56198e-13
-9.45054e-13
7.67918e-13
-1.09066e-13
6.91827e-13
1.53175e-13
6.06278e-13
1.9095e-13
5.27271e-13
1.43711e-13
4.25495e-13
1.45858e-13
2.73459e-13
1.9131e-13
2.08978e-13
-6.95331e-14
6.63655e-13
-1.63774e-12
-4.11771e-13
3.52647e-12
-4.71858e-12
1.68947e-11
-2.93422e-12
3.5488e-12
-3.37162e-12
-1.9231e-11
3.06364e-12
-1.28226e-11
3.66311e-12
2.01464e-12
2.38233e-12
3.67729e-12
1.38191e-12
2.04478e-12
8.82657e-13
1.0014e-12
6.52886e-13
5.03835e-13
5.59642e-13
2.06379e-13
5.35297e-13
5.49967e-14
5.38788e-13
-6.452e-15
5.52446e-13
-3.13559e-14
5.63727e-13
-2.78144e-14
5.68067e-13
-1.31707e-14
5.71953e-13
-1.10357e-14
5.8024e-13
-1.83996e-14
5.91017e-13
-2.13948e-14
5.89283e-13
-4.02943e-15
5.91083e-13
-3.28572e-14
5.97748e-13
-3.6844e-14
5.93467e-13
-3.7193e-14
5.78498e-13
-3.15455e-13
4.70559e-13
-6.66294e-13
-3.8399e-13
-7.04362e-13
-6.31354e-12
-1.28244e-12
-9.08278e-13
5.33137e-12
-5.02975e-12
1.73735e-11
-2.64888e-11
6.91665e-12
-5.88378e-12
-4.72506e-12
3.97165e-11
-1.60288e-12
-2.09891e-13
2.2103e-13
-7.38663e-13
1.00075e-12
-2.3274e-12
1.09931e-12
-2.46923e-12
1.0062e-12
-8.51948e-13
8.89809e-13
7.32467e-15
7.94395e-13
2.4859e-13
7.06726e-13
2.78619e-13
6.06481e-13
2.43956e-13
4.50409e-13
3.0193e-13
1.99893e-13
4.41826e-13
-5.50129e-14
1.85373e-13
-3.53579e-14
-1.6574e-12
-1.2841e-13
3.61953e-12
-1.09185e-12
1.78582e-11
2.57216e-12
-1.1521e-13
2.34207e-13
-1.6893e-11
-9.38e-13
-1.16504e-11
1.17585e-12
-9.92052e-14
1.66063e-12
3.1925e-12
1.35293e-12
2.35248e-12
9.77101e-13
1.37723e-12
7.73311e-13
7.07625e-13
6.97004e-13
2.82686e-13
6.79547e-13
7.24531e-14
6.83727e-13
-1.06324e-14
6.94124e-13
-4.1753e-14
6.99305e-13
-3.29957e-14
6.95981e-13
-9.84662e-15
6.94819e-13
-9.87402e-15
7.01999e-13
-2.55801e-14
7.1613e-13
-3.55251e-14
7.17478e-13
-5.37753e-15
7.08758e-13
-2.41378e-14
7.01952e-13
-3.00375e-14
7.48878e-13
-8.41184e-14
6.36072e-13
-2.02648e-13
3.53955e-13
-3.84177e-13
2.19557e-13
-5.69964e-13
1.47721e-12
-2.54009e-12
4.82121e-13
6.71599e-12
-7.41913e-12
-9.92312e-13
-1.87805e-11
-1.21056e-11
5.22949e-12
-1.32272e-12
2.89336e-11
9.28387e-13
-2.46099e-12
3.00283e-12
-2.81311e-12
2.64562e-12
-1.9702e-12
1.75086e-12
-1.57447e-12
1.16613e-12
-2.67221e-13
9.28526e-13
2.44933e-13
8.32533e-13
3.44584e-13
7.63082e-13
3.48069e-13
6.73468e-13
3.3357e-13
5.01979e-13
4.73419e-13
2.59725e-13
6.8408e-13
8.51694e-14
3.59928e-13
9.36148e-14
-1.66584e-12
1.86408e-12
1.84906e-12
2.48203e-12
1.72402e-11
8.00122e-12
-5.6344e-12
-1.08921e-12
-7.80259e-12
-1.36513e-12
-1.13745e-11
-4.38518e-14
-1.42048e-12
1.05391e-12
2.09474e-12
1.14497e-12
2.26142e-12
9.42168e-13
1.58003e-12
8.20103e-13
8.29689e-13
7.80525e-13
3.22264e-13
7.82888e-13
7.00906e-14
7.91366e-13
-1.91117e-14
7.94726e-13
-4.51129e-14
7.86907e-13
-2.51772e-14
7.69309e-13
7.75162e-15
7.58441e-13
9.93857e-16
7.60097e-13
-2.72368e-14
7.7563e-13
-5.10573e-14
7.81069e-13
-1.08159e-14
7.6298e-13
-6.049e-15
8.09806e-13
-7.68634e-14
8.21848e-13
-9.61609e-14
6.70949e-13
-5.17498e-14
3.83203e-13
-9.64305e-14
-7.95696e-14
-1.07192e-13
-5.94799e-12
3.32833e-12
-1.19506e-11
-7.61442e-13
-6.45769e-12
-5.01261e-12
-1.45294e-11
-6.57541e-12
6.79229e-12
6.33236e-12
1.60259e-11
2.854e-12
1.01737e-12
1.8262e-12
-1.78531e-12
8.16915e-13
-9.6091e-13
3.89333e-13
-1.14689e-12
2.44382e-13
-1.22271e-13
1.98683e-13
2.90632e-13
1.82993e-13
3.60274e-13
1.71958e-13
3.59104e-13
1.58608e-13
3.4692e-13
1.25905e-13
5.06122e-13
8.23368e-14
7.27648e-13
1.00066e-13
3.42199e-13
1.92441e-13
-1.75822e-12
7.62789e-13
1.27871e-12
1.16576e-12
1.68373e-11
1.95342e-12
-6.42206e-12
5.10057e-13
-6.35922e-12
2.38169e-13
-1.11026e-11
1.38627e-13
-1.32094e-12
1.92409e-13
2.04096e-12
2.0722e-13
2.24661e-12
1.93642e-13
1.59361e-12
1.79593e-13
8.43738e-13
1.78184e-13
3.23673e-13
1.82176e-13
6.60982e-14
1.85414e-13
-2.23502e-14
1.84401e-13
-4.40999e-14
1.79405e-13
-2.01814e-14
1.7303e-13
1.41264e-14
1.68829e-13
5.19597e-15
1.67806e-13
-2.62143e-14
1.70559e-13
-5.38105e-14
1.7186e-13
-1.21167e-14
1.73497e-13
-7.68617e-15
1.75142e-13
-7.85074e-14
1.75594e-13
-9.66128e-14
1.36533e-13
-1.26891e-14
9.62547e-14
-5.61533e-14
7.64969e-14
-8.74335e-14
-7.91602e-13
4.19643e-12
-1.43057e-11
-1.34755e-12
-4.91014e-12
-5.92073e-12
-9.9562e-12
-8.18155e-12
9.05312e-12
1.51449e-12
6.32983e-12
1.92172e-12
6.10132e-13
1.80776e-12
-1.67136e-12
8.36806e-13
1.00485e-14
3.82826e-13
-6.92908e-13
2.38174e-13
2.23815e-14
1.94308e-13
3.34499e-13
1.8119e-13
3.73392e-13
1.72368e-13
3.67927e-13
1.61314e-13
3.57973e-13
1.32105e-13
5.35331e-13
9.24859e-14
7.67267e-13
1.28352e-13
3.06333e-13
1.40819e-13
-1.77069e-12
1.05117e-12
3.6836e-13
1.24358e-12
1.66449e-11
2.0509e-12
-7.22938e-12
2.06056e-12
-6.36888e-12
6.22471e-13
-9.66449e-12
1.13493e-13
-8.11962e-13
1.73397e-13
1.98106e-12
1.91095e-13
2.22891e-12
1.86638e-13
1.59806e-12
1.78006e-13
8.52371e-13
1.7941e-13
3.22269e-13
1.84665e-13
6.08431e-14
1.88332e-13
-2.60168e-14
1.86628e-13
-4.23957e-14
1.8046e-13
-1.40136e-14
1.73158e-13
2.14276e-14
1.68363e-13
9.99175e-15
1.66809e-13
-2.46611e-14
1.68735e-13
-5.57362e-14
1.70669e-13
-1.40508e-14
1.74522e-13
-1.15386e-14
1.72841e-13
-7.68271e-14
1.7691e-13
-1.00682e-13
1.25985e-13
3.82371e-14
6.67157e-14
3.11665e-15
1.84639e-13
-2.05357e-13
6.08955e-12
-1.70848e-12
-9.4851e-12
-1.43153e-12
-3.27861e-12
-5.60107e-12
-5.78666e-12
-4.39631e-12
7.84835e-12
-8.0827e-12
1.00162e-11
-4.6612e-13
-7.00645e-12
1.38209e-12
-3.51957e-12
7.57607e-13
6.34531e-13
3.66781e-13
-3.02082e-13
2.29595e-13
1.59568e-13
1.89116e-13
3.74978e-13
1.78682e-13
3.83825e-13
1.72287e-13
3.74322e-13
1.63671e-13
3.66589e-13
1.38365e-13
5.60637e-13
1.02812e-13
8.0282e-13
1.42301e-13
2.66844e-13
1.70737e-13
-1.79912e-12
9.98413e-13
-4.59316e-13
1.30668e-12
1.63366e-11
2.362e-12
-8.28471e-12
3.29039e-12
-7.29726e-12
5.46789e-13
-6.92089e-12
3.79825e-14
-3.03156e-13
1.48288e-13
1.87075e-12
1.74421e-13
2.20278e-12
1.78812e-13
1.59367e-12
1.75928e-13
8.55256e-13
1.79917e-13
3.1828e-13
1.86087e-13
5.46732e-14
1.90231e-13
-3.01616e-14
1.88292e-13
-4.04566e-14
1.81019e-13
-6.74022e-15
1.72754e-13
2.96927e-14
1.67384e-13
1.53616e-14
1.65646e-13
-2.29235e-14
1.68634e-13
-5.87238e-14
1.70881e-13
-1.62982e-14
1.73499e-13
-1.41567e-14
1.71548e-13
-7.48756e-14
1.65889e-13
-9.50228e-14
1.14675e-13
8.94504e-14
4.2168e-14
7.56242e-14
1.24844e-13
-2.88032e-13
5.18273e-12
-6.76636e-12
-2.45029e-12
-1.23012e-12
-1.8485e-12
-5.13229e-12
-1.88448e-12
-5.43387e-12
8.14994e-12
-4.65164e-12
9.23399e-12
-2.70829e-13
-1.13873e-11
7.9516e-13
-4.58555e-12
6.20538e-13
8.09153e-13
3.45832e-13
-2.73754e-14
2.18834e-13
2.86566e-13
1.83027e-13
4.10785e-13
1.75513e-13
3.91339e-13
1.71603e-13
3.78232e-13
1.65665e-13
3.72527e-13
1.43829e-13
5.82473e-13
1.12782e-13
8.33867e-13
1.40433e-13
2.39193e-13
2.69888e-13
-1.92858e-12
-2.75644e-13
8.62152e-14
1.69325e-12
1.43677e-11
7.21375e-13
-7.31283e-12
2.51099e-12
-9.08688e-12
3.42968e-14
-4.4442e-12
-1.09435e-13
-1.59424e-13
1.19643e-13
1.64167e-12
1.56591e-13
2.16583e-12
1.70285e-13
1.57998e-12
1.73185e-13
8.52356e-13
1.79437e-13
3.12027e-13
1.85751e-13
4.83593e-14
1.89049e-13
-3.34593e-14
1.86586e-13
-3.7994e-14
1.8e-13
-1.54403e-16
1.73203e-13
3.649e-14
1.68955e-13
1.96098e-14
1.67492e-13
-2.14604e-14
1.68937e-13
-6.01686e-14
1.70056e-13
-1.74171e-14
1.73452e-13
-1.75527e-14
1.6144e-13
-6.28635e-14
1.56301e-13
-8.98845e-14
1.11747e-13
1.34005e-13
3.02924e-14
1.57079e-13
-6.67142e-14
-1.91026e-13
-2.38152e-12
-4.45155e-12
-4.22277e-12
-7.46443e-13
-9.02056e-13
-4.23093e-12
1.6e-12
-4.5329e-12
8.4519e-12
-2.48302e-12
7.18411e-12
2.94347e-13
-1.41646e-11
4.07273e-13
-4.69848e-12
5.03634e-13
7.12791e-13
3.17136e-13
1.59123e-13
2.0615e-13
3.97552e-13
1.76203e-13
4.40731e-13
1.71758e-13
3.95784e-13
1.70605e-13
3.79385e-13
1.67052e-13
3.7608e-13
1.49157e-13
6.00369e-13
1.24512e-13
8.58511e-13
1.19091e-13
2.44614e-13
1.0859e-13
-1.91807e-12
-6.07918e-13
8.02723e-13
1.4473e-12
1.23125e-11
2.9314e-13
-6.15867e-12
3.30658e-13
-9.1244e-12
-2.57939e-13
-3.8556e-12
-1.21656e-13
-2.95707e-13
9.01299e-14
1.42989e-12
1.38655e-13
2.1173e-12
1.61195e-13
1.55744e-12
1.70078e-13
8.43473e-13
1.78303e-13
3.03803e-13
1.84432e-13
4.22296e-14
1.86909e-13
-3.59359e-14
1.84217e-13
-3.5302e-14
1.7851e-13
5.55231e-15
1.73251e-13
4.17489e-14
1.69975e-13
2.28866e-14
1.6844e-13
-1.99261e-14
1.68867e-13
-6.05951e-14
1.68473e-13
-1.70237e-14
1.71807e-13
-2.08861e-14
1.53513e-13
-4.45695e-14
1.49466e-13
-8.58377e-14
1.12049e-13
1.71421e-13
2.31385e-14
2.4599e-13
-1.52675e-13
-1.52119e-14
-2.59653e-12
-2.0077e-12
-6.45889e-12
3.01204e-13
1.98796e-13
2.52003e-13
4.92001e-14
1.30417e-13
1.21586e-13
4.83064e-14
8.2111e-14
1.0383e-13
-5.55236e-14
5.96794e-13
1.02002e-13
6.0608e-13
3.99135e-14
6.35653e-13
9.20137e-14
1.06976e-12
-3.51996e-13
-2.0101e-12
3.18369e-12
6.85386e-13
-8.33843e-14
7.2783e-13
-2.53025e-15
7.62373e-13
5.74713e-14
7.11334e-13
-3.00958e-13
-2.24009e-12
9.41331e-13
6.0273e-13
-1.86114e-13
6.23533e-13
-2.33337e-14
6.55092e-13
2.59126e-14
3.80144e-13
-2.601e-14
-9.63641e-13
-8.96308e-13
3.13886e-13
2.90552e-13
3.16465e-13
2.90455e-13
-6.73186e-13
-3.40097e-12
2.44339e-12
-3.68961e-12
1.88865e-12
1.77716e-12
2.98513e-12
6.1029e-12
2.85838e-12
2.59428e-12
-1.0656e-11
3.14065e-13
-2.41827e-12
1.26722e-12
-2.4036e-13
1.00761e-12
4.18731e-13
7.55675e-13
6.49485e-13
7.03121e-13
4.93285e-13
7.19209e-13
3.79696e-13
7.50232e-13
3.48361e-13
7.5873e-13
3.67582e-13
7.41788e-13
6.17311e-13
7.27281e-13
8.73018e-13
4.74452e-13
4.97443e-13
-6.59458e-13
-7.84165e-13
7.61069e-13
-6.17804e-13
6.63898e-12
6.43457e-12
-2.20466e-12
2.68496e-12
-9.93189e-12
-1.39717e-12
-1.05357e-12
-1.27339e-11
-2.6578e-13
-1.08349e-12
7.80157e-14
1.08609e-12
4.08506e-13
1.78681e-12
6.09123e-13
1.35682e-12
7.26175e-13
7.26421e-13
7.83937e-13
2.46041e-13
8.09523e-13
1.6643e-14
8.08477e-13
-3.48889e-14
7.9307e-13
-1.98956e-14
7.77814e-13
2.08088e-14
7.721e-13
4.74632e-14
7.67606e-13
2.73803e-14
7.61959e-13
-1.4279e-14
7.47772e-13
-4.64074e-14
7.33761e-13
-3.0126e-15
7.13261e-13
-3.86446e-16
7.03072e-13
-3.43807e-14
5.69066e-13
4.81683e-14
5.31251e-13
2.09236e-13
1.15889e-13
6.61353e-13
-6.06331e-13
7.07008e-13
-2.33777e-12
-2.76261e-13
-8.67186e-12
2.11096e-12
3.51612e-12
9.11432e-14
3.90846e-12
4.39161e-12
-1.31533e-12
8.07524e-12
-8.2526e-13
2.58307e-12
-5.16384e-12
4.82041e-13
-3.17238e-13
4.05885e-13
-1.64204e-13
3.78925e-13
4.45691e-13
4.45104e-13
5.83307e-13
5.22074e-13
4.16315e-13
5.95734e-13
3.06036e-13
6.73886e-13
2.7021e-13
7.47123e-13
2.94344e-13
8.44202e-13
5.20231e-13
9.72766e-13
7.44454e-13
8.36128e-13
6.3408e-13
1.41849e-14
3.77785e-14
1.72147e-12
-2.32509e-12
6.4747e-12
1.68134e-12
2.24725e-12
6.91241e-12
3.1716e-12
-2.32153e-12
-6.17544e-13
-8.94477e-12
-8.55843e-13
-8.45196e-13
-4.21426e-13
6.51676e-13
5.89427e-14
1.30645e-12
4.20595e-13
9.95169e-13
6.25271e-13
5.21745e-13
7.05387e-13
1.65926e-13
7.14508e-13
7.52155e-15
7.02245e-13
-2.26256e-14
6.90444e-13
-8.09377e-15
6.89055e-13
2.21976e-14
6.97934e-13
3.85846e-14
7.03221e-13
2.20928e-14
7.00045e-13
-1.11029e-14
6.75508e-13
-2.18695e-14
6.40072e-13
3.24236e-14
5.91953e-13
4.77314e-14
6.18031e-13
-6.04582e-14
6.60655e-13
5.54505e-15
5.29668e-13
3.40222e-13
2.42312e-13
9.48709e-13
-8.72205e-13
1.82152e-12
-4.37734e-12
3.22887e-12
-4.9383e-12
2.78598e-12
1.67147e-12
2.48892e-12
4.20553e-12
2.58016e-12
-1.40658e-12
2.12811e-12
-3.73208e-13
3.33422e-13
-3.36915e-12
-1.72458e-14
3.34303e-14
-1.16929e-13
-6.45207e-14
-4.0228e-14
3.6899e-13
1.67459e-13
3.7562e-13
3.17723e-13
2.66051e-13
4.33185e-13
1.90574e-13
5.42903e-13
1.60492e-13
6.61545e-13
1.75702e-13
8.49459e-13
3.32318e-13
1.10362e-12
4.90298e-13
1.25714e-12
4.80553e-13
1.11083e-12
1.84091e-13
1.06192e-12
-2.27618e-12
3.54418e-12
-8.00917e-13
3.15408e-12
7.30251e-12
4.70313e-12
-3.87058e-12
-2.19404e-13
-4.02224e-12
-9.53637e-13
-1.10963e-13
-6.89357e-13
3.87396e-13
-1.57633e-13
7.74722e-13
2.64332e-13
5.73203e-13
4.87822e-13
2.98255e-13
5.60825e-13
9.29232e-14
5.6427e-13
4.07769e-15
5.52772e-13
-1.11273e-14
5.46455e-13
-1.7771e-15
5.53499e-13
1.51539e-14
5.68908e-13
2.31759e-14
5.77598e-13
1.34031e-14
5.73532e-13
-7.03737e-15
5.58935e-13
-7.27221e-15
5.36868e-13
5.44907e-14
4.58961e-13
1.25638e-13
4.80289e-13
-8.17855e-14
5.10741e-13
-2.49075e-14
5.0472e-13
3.46243e-13
6.92744e-13
7.60685e-13
9.43116e-13
1.57115e-12
8.79293e-13
3.2927e-12
-3.30991e-12
4.57065e-13
3.18092e-13
3.66688e-12
9.9571e-13
3.51532e-12
-1.25502e-12
1.50848e-12
1.63363e-12
-6.12375e-13
-1.24829e-12
-3.63825e-13
-2.1512e-13
-4.78895e-13
5.05493e-14
-2.62607e-13
1.52702e-13
-3.49029e-14
1.47915e-13
1.32129e-13
9.90193e-14
2.52579e-13
7.01238e-14
3.57917e-13
5.51536e-14
4.75378e-13
5.82415e-14
6.8695e-13
1.20745e-13
9.89648e-13
1.876e-13
1.22995e-12
2.40253e-13
1.0819e-12
3.32136e-13
-5.25492e-13
-6.68783e-13
-4.33838e-13
-8.92569e-13
3.96e-12
2.90866e-12
2.03483e-12
-1.9454e-12
-4.43919e-13
-1.54349e-12
-9.61358e-13
4.06476e-13
-7.49295e-13
1.75333e-13
-2.62506e-13
2.87933e-13
1.12652e-13
1.98045e-13
3.04855e-13
1.06051e-13
3.66679e-13
3.11002e-14
3.69572e-13
1.1851e-15
3.61555e-13
-3.10974e-15
3.59742e-13
3.58642e-17
3.69357e-13
5.53895e-15
3.84746e-13
7.78718e-15
3.9341e-13
4.73972e-15
3.88016e-13
-1.64395e-15
3.85597e-13
-4.85222e-15
4.15662e-13
2.44255e-14
4.19574e-13
1.21726e-13
4.06254e-13
-6.84646e-14
4.02109e-13
-2.07633e-14
5.1978e-13
2.28572e-13
1.01126e-12
2.69208e-13
1.86819e-12
7.14222e-13
2.91007e-12
2.25082e-12
-1.62537e-12
-3.55093e-13
6.40617e-13
-6.14399e-13
1.01923e-12
-2.2906e-13
-4.44181e-13
-3.93631e-13
-2.40929e-13
-9.30137e-14
6.00562e-15
7.61293e-14
1.31283e-13
1.89524e-13
3.10269e-13
4.9787e-13
7.38123e-13
1.07026e-12
4.01475e-13
-4.9109e-13
2.41757e-12
4.72174e-13
-1.07131e-12
-6.64839e-13
-4.89506e-13
-2.01573e-13
-3.52757e-15
1.02524e-13
1.33625e-13
1.3481e-13
1.31701e-13
1.31737e-13
1.37275e-13
1.45062e-13
1.49803e-13
1.48159e-13
1.43307e-13
1.67732e-13
2.89458e-13
2.20994e-13
2.0023e-13
4.28803e-13
6.98011e-13
1.41223e-12
3.66305e-12
)
;

boundaryField
{
    AirInlet
    {
        type            calculated;
        value           nonuniform List<scalar> 5(-2e-13 -2e-13 -2e-13 -2e-13 -2e-13);
    }
    WaterInlet
    {
        type            calculated;
        value           nonuniform List<scalar> 10(-5e-13 -5e-13 -5e-13 -5e-13 -5e-13 -5e-13 -5e-13 -5e-13 -5e-13 -5e-13);
    }
    ChannelWall
    {
        type            calculated;
        value           uniform 0;
    }
    Outlet
    {
        type            calculated;
        value           nonuniform List<scalar> 
15
(
7.41093e-12
2.57535e-12
-4.84713e-12
8.68197e-14
6.48473e-12
1.56345e-12
1.26897e-12
-1.85207e-12
-6.09051e-13
-3.60406e-13
-1.24807e-13
-8.11089e-12
-7.49099e-13
1.22552e-12
2.03768e-12
)
;
    }
    FrontAndBack
    {
        type            empty;
        value           nonuniform 0();
    }
}


// ************************************************************************* //
