/*--------------------------------*- C++ -*----------------------------------*\
| =========                 |                                                 |
| \\      /  F ield         | OpenFOAM: The Open Source CFD Toolbox           |
|  \\    /   O peration     | Version:  2.3.0                                 |
|   \\  /    A nd           | Web:      www.OpenFOAM.org                      |
|    \\/     M anipulation  |                                                 |
\*---------------------------------------------------------------------------*/
FoamFile
{
    version     2.0;
    format      ascii;
    class       volScalarField;
    location    "1.1";
    object      alpha.water;
}
// * * * * * * * * * * * * * * * * * * * * * * * * * * * * * * * * * * * * * //

dimensions      [0 0 0 0 0 0 0];

internalField   nonuniform List<scalar> 
2268
(
1
1
1
1
1
1
1
1
1
1
1
0.999451
0.981825
0.972418
0.972418
0.972418
0.972425
0.973851
0.982408
0.984484
0.983341
0.982917
0.99661
1
1
1
1
1
1
1
1
1
1
0.999998
0.999976
0.999264
0.995134
0.990681
0.990224
0.995936
0.999942
0.999998
0.999998
0.999998
0.998891
0.99807
1
1
1
1
1
1
1
1
1
1
1
1
0.999999
0.999997
0.999993
0.999994
0.999998
0.999998
0.999998
0.999998
0.999994
0.999986
0.999509
1
1
1
1
1
1
1
1
1
1
1
1
1
1
0.999999
0.999997
0.999996
0.999997
0.999994
0.999985
0.999982
0.999888
0.999883
1
1
1
1
1
1
1
1
1
0.999999
0.999999
1
1
1
1
0.999999
0.999994
0.999955
0.999929
0.999836
0.997671
0.999436
0.999705
1
1
1
1
1
1
1
1
1
1
1
1
1
1
1
0.999998
0.999917
0.99909
0.995273
0.980424
0.993158
0.999685
0.99969
1
1
1
1
1
1
1
1
1
1
1
1
1
1
1
0.999989
0.999101
0.949421
0.87975
0.940511
0.999615
0.999672
0.999684
1
1
1
1
1
1
1
1
1
1
1
1
1
0.999999
0.999981
0.999766
0.971325
0.77699
0.787407
0.987432
0.999541
0.999615
0.999672
0.990315
0.992539
0.996423
0.996423
0.99589
0.984248
0.981346
0.989485
0.98968
0.98968
0.927043
0.907866
0.907856
0.907861
0.921869
0.935309
0.935332
0.935338
0.940164
0.990317
0.994941
0.996423
0.984652
0.710363
0.568902
0.60408
0.836669
0.98626
0.98968
0.9294
0.907931
0.907851
0.907856
0.907859
0.907965
0.912867
0.949611
0.950696
0.993453
0.994831
0.992141
0.700263
0.312243
0.311933
0.313715
0.370401
0.579671
0.963865
0.964272
0.958312
0.956777
0.947355
0.941305
0.953634
0.95274
0.952349
0.950722
0.993591
0.994269
0.947687
0.41306
0.311933
0.381264
0.548387
0.335889
0.268994
0.605314
0.957264
0.959841
0.959841
0.959841
0.959643
0.958974
0.958362
0.94708
0.930384
0.993474
0.993308
0.841817
0.346664
0.320162
0.757276
0.757127
0.756931
0.293221
0.230906
0.643372
0.9558
0.959841
0.959643
0.933118
0.819309
0.625726
0.503524
0.465072
0.993321
0.963507
0.499321
0.180327
0.546902
0.757343
0.757276
0.757131
0.743865
0.22915
0.239791
0.669967
0.839452
0.706026
0.458738
0.199348
0.07248
0.0580528
0.0582062
0.989855
0.957896
0.365587
0.110072
0.404385
0.757276
0.757502
0.75725
0.750325
0.351685
0.188457
0.185042
0.302892
0.221401
0.055514
0.0435418
0.0557997
0.0575621
0.0578841
0.993646
0.979111
0.521319
0.102149
0.427215
0.757291
0.757492
0.757383
0.506459
0.51329
0.421187
0.123492
0.0550307
0.0390044
0.0383434
0.0411982
0.109825
0.0932139
0.0582836
1
1
1
1
1
1
1
1
1
1
1
1
0.999999
0.99998
0.999737
0.906487
0.648531
0.645236
0.833641
0.998488
0.999154
0.999254
0.99958
1
1
1
1
1
1
1
1
1
1
0.990252
0.848211
0.681037
0.615586
0.531386
0.37875
0.479272
0.979816
0.996067
0.998057
0.9912
0.972209
0.998137
1
1
1
1
1
1
1
1
0.999993
0.779874
0.272846
0.132896
0.103009
0.0774924
0.0494897
0.0851016
0.583934
0.960575
0.993313
0.996067
0.988445
0.801676
0.687878
1
1
1
1
1
1
1
0.892956
0.342112
0.143903
0.0826646
0.0422191
0.0353289
0.0329731
0.0325195
0.038811
0.170566
0.318879
0.657504
0.911739
0.973564
0.743774
0.276042
1
1
1
1
0.999998
0.999921
0.785468
0.324725
0.155898
0.154056
0.151866
0.0515332
0.0332443
0.0315078
0.0302166
0.0285462
0.0283715
0.0236603
0.0207867
0.262889
0.632951
0.750101
0.499998
1
1
1
0.980186
0.888688
0.617338
0.291538
0.175892
0.162234
0.188785
0.187122
0.146596
0.0312879
0.0302356
0.0283006
0.0262724
0.024414
0.023769
0.0190834
0.0152159
0.0302518
0.35664
0.545899
0.533917
0.57937
0.546859
0.430274
0.243899
0.104179
0.120781
0.189401
0.190269
0.189401
0.190341
0.190985
0.0759735
0.0314791
0.0302671
0.0418466
0.046485
0.0271664
0.0157503
0.0124238
0.00914237
0.00336868
0.0322561
0.0114986
0.0162994
0.0161829
0.00884606
0.0111179
0.0321472
0.164406
0.190269
0.190808
0.132128
0.132812
0.164133
0.157466
0.139619
0.104178
0.109547
0.1098
0.0455854
0.0354687
0.0451436
0.0131143
0.00318884
0.0032683
0.00018943
0.000204237
0.000595173
0.00162877
0.00467834
0.0437456
0.0969613
0.0920762
0.0266739
0.00556271
0.00853877
0.027198
0.0488057
0.0600486
0.0819797
0.094143
0.0786972
0.0751935
0.0736625
0.0699989
0.0439606
0.00261751
0.00210034
3.60914e-05
6.23916e-05
0.000184406
0.000677554
0.00574456
0.0117444
0.00308456
0.00122424
0.000466347
0.000321313
0.000291016
0.000208093
0.000175286
6.18538e-05
0.000200233
3.06237e-05
5.22502e-13
1.00872e-12
0.0156999
0.0210109
0.00779322
0.00230633
0.00113187
7.35794e-06
1.68974e-05
6.56182e-05
0.000312015
0.000968889
0.00034029
0.000251375
0.000158895
7.68134e-05
5.56885e-05
4.5306e-05
3.04782e-05
1.5256e-05
3.20992e-06
-2.37633e-07
-1.08445e-08
-2.13424e-08
-2.55864e-08
-2.05074e-09
1.04027e-16
1.53449e-15
4.28162e-14
-4.5394e-11
1.63241e-06
4.54634e-06
1.79654e-05
5.21026e-05
7.08363e-05
7.97085e-05
6.7148e-05
3.78077e-05
1.78137e-05
1.01047e-05
7.22037e-06
4.02248e-06
1.38722e-06
6.43369e-08
-7.3833e-10
-5.90174e-08
-1.18827e-07
-2.01337e-07
-2.68522e-07
-2.52978e-07
-1.31189e-07
-9.41918e-09
-1.50281e-09
3.84526e-07
1.12426e-06
4.09154e-06
1.03946e-05
1.85204e-05
2.23057e-05
1.63291e-05
9.26822e-06
4.28726e-06
2.12031e-06
1.18663e-06
5.5407e-07
1.49531e-07
5.85896e-09
5.31143e-09
1.69016e-08
1.95317e-09
2.43726e-13
1.16385e-13
2.98409e-13
2.9074e-10
1.14364e-09
7.54287e-10
9.20192e-08
2.66645e-07
9.32458e-07
2.42907e-06
4.42589e-06
5.07544e-06
3.86303e-06
2.29283e-06
1.09318e-06
5.00884e-07
2.43027e-07
1.05323e-07
2.50442e-08
3.89335e-09
3.35444e-09
1.10746e-08
1.41138e-08
1.3962e-08
1.05741e-08
6.16559e-09
5.18026e-09
1.84756e-09
6.68801e-10
2.21895e-08
6.26503e-08
2.03958e-07
5.14875e-07
9.43467e-07
1.09823e-06
8.76913e-07
5.38731e-07
2.67482e-07
1.19005e-07
5.27485e-08
2.31206e-08
7.464e-09
3.34141e-09
2.99751e-09
2.92857e-09
3.42474e-09
3.28627e-09
1.68217e-09
1.27948e-09
8.94379e-10
4.89894e-10
2.37818e-10
5.59755e-09
1.4654e-08
4.34181e-08
1.0523e-07
1.90813e-07
2.23881e-07
1.8526e-07
1.17649e-07
6.09304e-08
2.76459e-08
1.21389e-08
6.03925e-09
6.61232e-09
5.23291e-09
3.17796e-09
2.30858e-09
1.79893e-09
1.22648e-09
7.76776e-10
5.38581e-10
3.50948e-10
2.23526e-10
1.41167e-10
1.73848e-09
3.77447e-09
9.45429e-09
2.11536e-08
3.70455e-08
4.32618e-08
3.66547e-08
2.39651e-08
1.30039e-08
6.34048e-09
3.36745e-09
2.54322e-09
4.01392e-09
4.06208e-09
3.07144e-09
2.01941e-09
1.34476e-09
8.97525e-10
6.21502e-10
4.23593e-10
2.70899e-10
1.67191e-10
9.47849e-11
7.30016e-10
1.26008e-09
2.37136e-09
4.48793e-09
7.23779e-09
8.24228e-09
7.0978e-09
4.84173e-09
2.85086e-09
1.71425e-09
1.61739e-09
1.68815e-09
1.9208e-09
1.96758e-09
1.72996e-09
1.23302e-09
7.78029e-10
4.84929e-10
3.07643e-10
1.92389e-10
1.15335e-10
6.56129e-11
3.69783e-11
5.12093e-10
6.3913e-10
7.6774e-10
1.14244e-09
1.60512e-09
1.7465e-09
1.51629e-09
1.10568e-09
7.99829e-10
8.96575e-10
1.0451e-09
1.05497e-09
9.5808e-10
8.30264e-10
6.7345e-10
4.83269e-10
3.06424e-10
1.8512e-10
1.12757e-10
6.7707e-11
3.83194e-11
2.21755e-11
1.9062e-11
2.94299e-10
4.09254e-10
4.02692e-10
3.51534e-10
4.19838e-10
4.40633e-10
3.86794e-10
3.9405e-10
4.613e-10
5.36864e-10
5.50719e-10
5.10618e-10
4.1656e-10
3.07319e-10
2.07872e-10
1.32176e-10
6.92769e-11
3.43567e-11
2.70033e-11
1.89248e-11
1.4781e-11
1.26429e-11
1.06985e-11
1.11132e-10
2.0667e-10
2.20969e-10
1.9741e-10
1.92873e-10
1.98262e-10
2.1248e-10
2.16986e-10
2.38895e-10
2.37279e-10
2.11229e-10
1.67221e-10
1.18428e-10
7.43738e-11
3.89832e-11
2.57121e-11
2.13699e-11
1.62344e-11
1.23061e-11
9.39529e-12
7.30753e-12
5.86216e-12
4.91417e-12
3.15005e-11
6.36996e-11
7.59345e-11
8.14381e-11
7.93185e-11
8.10682e-11
8.5717e-11
8.00107e-11
7.07575e-11
6.22368e-11
4.63937e-11
3.06718e-11
2.11618e-11
1.7988e-11
1.5385e-11
1.21825e-11
8.90692e-12
6.52201e-12
4.81941e-12
3.63201e-12
2.825e-12
2.29883e-12
1.98819e-12
2.18638e-11
2.10306e-11
2.14483e-11
1.89414e-11
1.86652e-11
1.64169e-11
1.65556e-11
1.62166e-11
1.57821e-11
1.46767e-11
1.40207e-11
1.34982e-11
1.13381e-11
8.53069e-12
6.30278e-12
4.49005e-12
3.10057e-12
2.17201e-12
1.5554e-12
1.15088e-12
8.91898e-13
7.36613e-13
6.62169e-13
1.07804e-11
1.47658e-11
1.52748e-11
1.46492e-11
1.2993e-11
1.31589e-11
1.21011e-11
1.08552e-11
9.57602e-12
8.2283e-12
6.87102e-12
5.44678e-12
4.07212e-12
2.91692e-12
2.0174e-12
1.34229e-12
8.66543e-13
5.75225e-13
3.95346e-13
2.85029e-13
2.19956e-13
1.871e-13
1.82437e-13
4.71849e-12
6.99307e-12
7.06125e-12
6.61051e-12
6.08517e-12
5.57589e-12
4.99662e-12
4.34673e-12
3.67474e-12
2.98452e-12
2.31971e-12
1.71114e-12
1.1995e-12
8.04659e-13
5.1748e-13
3.17851e-13
1.8967e-13
1.17828e-13
7.69957e-14
5.42234e-14
4.3241e-14
4.23901e-14
5.48247e-14
1.81914e-12
2.88495e-12
2.8445e-12
2.58683e-12
2.29677e-12
2.01727e-12
1.73734e-12
1.44698e-12
1.16041e-12
8.85573e-13
6.41422e-13
4.40241e-13
2.86979e-13
1.78144e-13
1.05101e-13
5.84359e-14
3.18284e-14
1.83154e-14
1.15255e-14
8.74729e-15
9.61754e-15
1.62539e-14
3.46655e-14
6.17511e-13
1.03766e-12
9.95611e-13
8.74896e-13
7.45142e-13
6.23015e-13
5.10343e-13
4.02852e-13
3.03965e-13
2.16833e-13
1.45885e-13
9.25928e-14
5.55137e-14
3.14135e-14
1.66597e-14
8.13334e-15
4.03033e-15
2.22623e-15
1.70626e-15
2.49129e-15
5.84838e-15
1.5299e-14
3.86286e-14
1.84774e-13
3.2575e-13
3.03023e-13
2.56104e-13
2.08273e-13
1.64991e-13
1.27561e-13
9.46434e-14
6.66855e-14
4.4159e-14
2.73928e-14
1.59085e-14
8.64058e-15
4.36547e-15
2.02257e-15
8.48219e-16
4.09674e-16
3.45627e-16
7.23534e-16
2.17076e-15
6.50833e-15
1.8126e-14
4.63809e-14
4.87779e-14
8.93093e-14
8.02642e-14
6.49913e-14
5.02883e-14
3.76163e-14
2.72905e-14
1.8897e-14
1.23408e-14
7.52109e-15
4.25567e-15
2.2285e-15
1.0744e-15
4.71269e-16
1.84642e-16
7.4415e-17
7.07427e-17
2.00967e-16
7.16294e-16
2.41335e-15
7.42839e-15
2.0841e-14
5.34214e-14
1.13592e-14
2.13923e-14
1.85128e-14
1.43153e-14
1.05099e-14
7.40276e-15
5.01667e-15
3.22167e-15
1.9351e-15
1.07456e-15
5.47158e-16
2.53532e-16
1.05679e-16
3.89818e-17
1.36969e-17
1.32727e-17
4.66941e-17
1.92978e-16
7.35199e-16
2.53467e-15
7.91486e-15
2.24671e-14
5.82018e-14
2.33091e-15
4.478e-15
3.72043e-15
2.74001e-15
1.90415e-15
1.25975e-15
7.9427e-16
4.70279e-16
2.57719e-16
1.28921e-16
5.81311e-17
2.32917e-17
8.14359e-18
2.6077e-18
2.06937e-18
8.32823e-18
3.98614e-17
1.74178e-16
6.84743e-16
2.42541e-15
7.77621e-15
2.26873e-14
6.04606e-14
4.20692e-16
8.19386e-16
6.52095e-16
4.56425e-16
2.99591e-16
1.8568e-16
1.08499e-16
5.88771e-17
2.91834e-17
1.29846e-17
5.08891e-18
1.71744e-18
5.02736e-19
2.73244e-19
1.07686e-18
5.95351e-18
3.02193e-17
1.38008e-16
5.66186e-16
2.09503e-15
7.03817e-15
2.16048e-14
6.07908e-14
6.66555e-17
1.31127e-16
9.984e-17
6.63146e-17
4.10295e-17
2.37549e-17
1.28111e-17
6.3308e-18
2.81118e-18
1.09673e-18
3.65874e-19
1.02031e-19
3.47051e-20
9.80976e-20
6.11945e-19
3.60878e-18
1.93785e-17
9.38665e-17
4.09634e-16
1.61922e-15
5.83752e-15
1.93221e-14
5.89433e-14
9.259e-18
1.83728e-17
1.33852e-17
8.43024e-18
4.90736e-18
2.64593e-18
1.3109e-18
5.85721e-19
2.30515e-19
7.76058e-20
2.15788e-20
5.37605e-21
6.60765e-21
4.23817e-20
2.82145e-19
1.76694e-18
1.01882e-17
5.33966e-17
2.53955e-16
1.09879e-15
4.33409e-15
1.56945e-14
5.26095e-14
1.12749e-18
2.25888e-18
1.57694e-18
9.4174e-19
5.14935e-19
2.57707e-19
1.16686e-19
4.67634e-20
1.61156e-20
4.60065e-21
1.06046e-21
4.28308e-22
2.04096e-21
1.44056e-20
9.94263e-20
6.66497e-19
4.19271e-18
2.44064e-17
1.30873e-16
6.31361e-16
2.74627e-15
1.08921e-14
4.00097e-14
1.20572e-19
2.44599e-19
1.64063e-19
9.29697e-20
4.76874e-20
2.2078e-20
9.08472e-21
3.23673e-21
9.63712e-22
2.29315e-22
4.88862e-23
7.6367e-23
5.20362e-22
3.56685e-21
2.52051e-20
1.79701e-19
1.25257e-18
8.53007e-18
5.22176e-17
2.82637e-16
1.36615e-15
5.97758e-15
2.40224e-14
1.13684e-20
2.34552e-20
1.5171e-20
8.16901e-21
3.92727e-21
1.67667e-21
6.23366e-22
1.95592e-22
4.95998e-23
9.78031e-24
3.27798e-24
1.51338e-23
9.69284e-23
6.1164e-22
4.1979e-21
3.07163e-20
2.50807e-19
2.03513e-18
1.44762e-17
8.98022e-17
4.92426e-16
2.42354e-15
1.08889e-14
9.51024e-22
2.00607e-21
1.25678e-21
6.4441e-22
2.90308e-22
1.13995e-22
3.80877e-23
1.04274e-23
2.22205e-24
3.85708e-25
4.02364e-25
2.37748e-24
1.28572e-23
6.94041e-23
4.08209e-22
2.76059e-21
2.83632e-20
2.81714e-19
2.40567e-18
1.76991e-17
1.13696e-16
6.4875e-16
3.35409e-15
7.11394e-23
1.5428e-22
9.41134e-23
4.60964e-23
1.94774e-23
7.02458e-24
2.10061e-24
4.97947e-25
8.85599e-26
1.82732e-26
5.56391e-26
2.8835e-25
1.22563e-24
5.13777e-24
2.06496e-23
1.01864e-22
1.39711e-21
1.77774e-20
1.91014e-19
1.74469e-18
1.37078e-17
9.4126e-17
5.7561e-16
4.7917e-24
1.07526e-23
6.43224e-24
3.02394e-24
1.20144e-24
3.98178e-25
1.06415e-25
2.17653e-26
3.29242e-27
1.42203e-27
6.73489e-27
2.76573e-26
8.76357e-26
2.56041e-25
5.26054e-25
1.17013e-24
1.96619e-23
3.40705e-22
4.94282e-21
6.03785e-20
6.26995e-19
5.60277e-18
4.37617e-17
2.90833e-25
6.83169e-25
4.05328e-25
1.84206e-25
6.91178e-26
2.11141e-26
5.05728e-27
8.97047e-28
1.27616e-28
1.52116e-28
7.06204e-28
2.21712e-27
5.01551e-27
9.27842e-27
7.70914e-27
3.05006e-27
2.95449e-26
8.06936e-25
1.84445e-23
3.52316e-22
5.67999e-21
7.8165e-20
9.29615e-19
1.56328e-26
3.97945e-26
2.38312e-26
1.05556e-26
3.76046e-27
1.06484e-27
2.3057e-28
3.61934e-29
6.3146e-30
1.70447e-29
6.85684e-29
1.63787e-28
2.55397e-28
2.73899e-28
7.66809e-29
7.97105e-30
4.98736e-31
2.33381e-30
1.42625e-28
7.32319e-27
3.1799e-25
1.18561e-23
3.85152e-22
0.999437
0.999402
0.999402
0.999402
0.999293
0.999393
0.999402
0.999372
0.902148
0.978409
0.992368
0.976118
0.266031
0.352298
0.47315
0.232011
0.255722
0.243331
0.227898
0.21657
0.552641
0.55357
0.55357
0.55357
0.208978
0.246381
0.233593
0.179509
0.0035552
0.00493598
0.00764519
0.0101977
0.0146505
0.0248687
0.0251877
0.0248687
0.0214925
0.0251501
0.0248749
0.018742
-2.0073e-07
0.000336852
0.00199272
1.20599e-12
-2.25147e-09
-7.35256e-09
-8.43073e-09
-6.61786e-09
7.34097e-10
7.50526e-10
4.8601e-10
4.0015e-12
7.39322e-10
7.65627e-10
7.207e-10
4.84462e-10
2.03063e-10
2.59581e-10
1.38554e-10
8.63943e-11
8.10446e-11
6.96364e-11
6.22283e-11
5.29719e-11
5.7115e-11
4.9996e-11
4.39494e-11
4.34016e-11
3.3698e-11
3.14631e-11
3.02946e-11
2.97374e-11
1.78936e-11
1.6881e-11
1.60355e-11
1.5405e-11
9.819e-12
9.07544e-12
8.47529e-12
8.02593e-12
4.55158e-12
4.29341e-12
4.12714e-12
4.04372e-12
1.88245e-12
1.82208e-12
1.80303e-12
1.82278e-12
6.43983e-13
6.43817e-13
6.61468e-13
6.97732e-13
1.871e-13
1.99348e-13
2.20245e-13
2.51529e-13
6.46582e-14
7.93257e-14
1.00228e-13
1.29292e-13
4.71768e-14
6.45744e-14
8.84634e-14
1.20953e-13
5.41012e-14
7.53237e-14
1.04148e-13
1.42985e-13
6.49515e-14
9.02862e-14
1.24524e-13
1.70485e-13
7.47257e-14
1.0373e-13
1.42903e-13
1.95627e-13
8.15433e-14
1.13402e-13
1.56705e-13
2.15711e-13
8.52628e-14
1.19509e-13
1.67025e-13
2.33778e-13
8.69182e-14
1.24073e-13
1.78176e-13
2.58991e-13
8.61319e-14
1.27093e-13
1.92139e-13
2.98683e-13
7.90752e-14
1.22768e-13
2.00687e-13
3.41482e-13
6.22595e-14
1.03897e-13
1.87792e-13
3.52111e-13
3.92332e-14
7.24268e-14
1.46959e-13
3.02064e-13
1.92254e-14
4.07387e-14
9.36685e-14
2.10483e-13
6.73677e-15
1.70348e-14
4.48022e-14
1.11621e-13
1.42479e-15
4.3534e-15
1.31284e-14
3.76049e-14
1.54506e-16
5.8941e-16
2.09824e-15
7.49919e-15
6.11527e-18
3.21431e-17
1.4932e-16
7.97422e-16
9.49527e-21
1.24407e-19
1.6012e-18
2.82029e-17
0.999364
0.969979
0.447178
0.100898
0.354737
0.750917
0.75929
0.470116
0.0604816
0.524485
0.522173
0.399579
0.0554921
0.0354432
0.0377481
0.0966945
0.191072
0.191166
0.065351
0.99887
0.806041
0.115205
0.100822
0.102208
0.665021
0.755309
0.246817
0.0323703
0.279045
0.518808
0.448039
0.0739
0.0347762
0.0354432
0.180657
0.191105
0.191266
0.0682184
0.678942
0.200151
0.100826
0.100848
0.100848
0.637849
0.587681
0.122513
0.0283446
0.0807868
0.229449
0.218457
0.0594098
0.0288424
0.10953
0.191026
0.191266
0.191333
0.102716
0.12711
0.103444
0.102243
0.100818
0.265957
0.452135
0.084251
0.0182362
0.0278437
0.0230734
0.0131128
0.0249817
0.0164031
0.0257004
0.186367
0.191187
0.191352
0.191594
0.191467
0.205223
0.184259
0.180094
0.387566
0.37824
0.0806865
0.0174889
0.0178626
0.0582361
0.0475438
0.0129609
0.010236
0.00979352
0.035236
0.183467
0.191041
0.179226
0.1916
0.191243
0.552774
0.550773
0.547091
0.458407
0.220126
0.0174889
0.0174889
0.0242769
0.0608978
0.061104
0.0610632
0.020523
0.00810927
0.0280312
0.117972
0.103554
0.0562058
0.14686
0.190271
0.116366
0.0620328
0.0236696
0.0185153
0.0187551
0.0188417
0.0174887
0.0451046
0.0593356
0.0608978
0.0609084
0.0386249
0.00678659
0.00840653
0.00407294
0.000847671
0.000596934
0.0478529
0.189711
0.0122338
0.0132251
0.018698
0.0229723
0.0204101
0.0304888
0.0290266
0.00634538
0.0140004
0.0132744
0.00204379
0.00630658
0.00503711
0.000540086
0.000615309
0.000711131
0.000280505
0.0106061
0.115143
0.0109959
0.0174868
0.0230243
0.0229407
0.0277429
0.0302448
0.0236338
0.000171618
3.82333e-05
6.88418e-05
9.14812e-05
0.000183232
0.000585726
0.000259756
0.000693631
0.000704673
0.00020607
0.00155523
0.00329504
0.00858376
0.00350612
0.00139313
0.000175039
0.00587605
0.00165062
1.1731e-05
3.54628e-05
2.95876e-05
0.0002758
0.000996089
0.00100563
0.000590177
0.000152639
0.000293488
0.000163962
0.00010016
0.000238716
0.000298219
9.91414e-19
4.36506e-10
6.58871e-09
5.7319e-08
4.25676e-07
2.75362e-06
7.26563e-06
2.87632e-05
1.76067e-05
0.000488504
0.000760642
0.00033942
0.000171615
4.42384e-05
5.2975e-05
7.56822e-05
9.32858e-05
0.000120693
0.000205896
-7.63677e-10
7.74574e-13
1.50689e-08
5.17716e-07
1.96281e-05
4.21021e-05
4.56872e-05
8.88024e-06
2.38088e-06
2.37915e-06
2.51636e-06
3.64914e-06
1.37711e-05
2.4368e-05
3.77776e-05
0.000289628
0.000374016
0.000353703
0.000149631
8.00751e-13
1.53661e-09
1.464e-08
2.43306e-06
4.58312e-05
4.90513e-05
4.90513e-05
6.60743e-06
2.38088e-06
2.41577e-06
2.45641e-06
2.74282e-06
4.37397e-06
0.000102154
0.000375351
0.000375351
0.000375351
0.0002583
2.14947e-05
9.78184e-11
-3.70036e-10
-6.15686e-10
4.09483e-08
4.13768e-06
3.27987e-05
2.8027e-05
6.28071e-06
2.98989e-06
2.45648e-06
2.47395e-06
2.36867e-06
4.5187e-06
0.000177412
0.000372278
0.000375351
6.49069e-05
2.08607e-05
2.10489e-05
9.1596e-11
1.32731e-10
7.44929e-10
8.74969e-09
9.57671e-08
3.82945e-06
3.31974e-05
4.2613e-05
3.60018e-05
2.48339e-06
2.20473e-06
1.43852e-06
1.70393e-05
7.15137e-05
8.31789e-05
2.70224e-05
9.53053e-06
5.90534e-05
0.000184916
4.2206e-11
4.61907e-11
1.41153e-10
8.63291e-09
5.40681e-07
2.98915e-05
4.2613e-05
4.27872e-05
4.27823e-05
4.27587e-05
2.3932e-05
1.24308e-06
2.19645e-06
1.8949e-06
8.85067e-07
5.64228e-07
7.81611e-06
0.000155022
0.000185301
3.73382e-11
2.01397e-11
-3.52366e-11
-6.78928e-10
6.96386e-08
1.09504e-05
2.41336e-05
2.72313e-05
3.72678e-05
4.16807e-05
2.6795e-05
1.22662e-06
1.09865e-06
9.48253e-07
8.06022e-07
3.75699e-07
8.54633e-07
7.90273e-05
0.000185301
2.72788e-11
1.95695e-11
1.63315e-11
1.74886e-11
1.63489e-11
5.46646e-11
5.66539e-10
5.72453e-09
4.1247e-08
1.77655e-06
3.74711e-06
2.83737e-06
1.24028e-06
2.57494e-06
2.37277e-06
6.1473e-08
1.33642e-07
2.58856e-05
0.000185299
1.44922e-11
1.49699e-11
1.63016e-11
1.65294e-11
1.95707e-11
5.94818e-11
9.71658e-10
3.95489e-07
1.18949e-06
2.09338e-07
2.09339e-07
5.13671e-07
2.57184e-06
2.57305e-06
2.07337e-06
1.27697e-08
2.92753e-08
2.84251e-05
0.000185288
7.84329e-12
8.55497e-12
1.02613e-11
1.43368e-11
1.57646e-11
1.99549e-11
1.28784e-10
1.57231e-07
1.42e-06
1.42e-06
2.46687e-07
2.1044e-09
3.53686e-07
7.87219e-07
2.4445e-07
4.51912e-09
2.94958e-07
0.000134771
0.000185232
4.24551e-12
4.94227e-12
6.41418e-12
9.30524e-12
1.422e-11
2.25102e-11
1.6853e-11
1.58853e-10
4.39432e-07
1.30933e-06
4.87366e-07
1.96877e-09
1.88707e-09
1.86785e-09
1.88493e-09
4.5222e-09
2.7524e-09
0.000183658
0.000184988
2.08189e-12
2.68132e-12
3.90449e-12
6.30359e-12
1.06902e-11
1.66107e-11
1.68644e-11
1.87955e-09
1.50434e-07
1.7209e-07
2.5823e-07
1.94025e-07
1.99673e-08
1.85693e-09
7.4896e-09
8.95868e-09
2.74831e-09
0.000120611
0.000184145
9.17188e-13
1.41059e-12
2.48714e-12
4.71004e-12
8.77934e-12
1.47914e-11
2.12927e-11
2.12946e-11
2.35938e-08
1.73631e-07
1.82481e-07
3.05427e-08
1.85799e-09
1.85292e-09
1.1676e-08
8.67003e-09
2.78636e-09
8.72801e-07
0.000118195
4.27371e-13
8.58877e-13
1.89799e-12
4.14306e-12
8.24634e-12
1.42805e-11
2.19197e-11
2.66107e-11
2.66188e-11
2.33958e-08
8.38571e-08
5.60683e-08
3.15787e-09
8.62778e-10
1.11576e-08
2.54484e-09
2.13168e-09
2.13305e-05
4.21827e-05
2.96362e-13
7.3918e-13
1.86863e-12
4.34093e-12
8.81472e-12
1.52861e-11
2.58981e-11
4.41e-11
5.93439e-11
6.05707e-11
1.08177e-10
1.23522e-10
1.74222e-10
2.34818e-10
4.24637e-09
1.2847e-09
1.37533e-09
0.000132093
0.000138246
3.10307e-13
8.23917e-13
2.13971e-12
4.97371e-12
9.99819e-12
1.72467e-11
2.79505e-11
4.92032e-11
9.52671e-11
1.61892e-10
2.3633e-10
3.73615e-10
3.90392e-10
6.48979e-10
1.21152e-09
1.23318e-09
1.28086e-09
0.000137567
0.000138246
3.73408e-13
9.97052e-13
2.55112e-12
5.77174e-12
1.1295e-11
1.9402e-11
3.10603e-11
5.03339e-11
8.60093e-11
1.39405e-10
2.28735e-10
3.68904e-10
3.76129e-10
1.2276e-09
1.26818e-09
1.2713e-09
1.29969e-09
0.00013773
0.0001177
4.51731e-13
1.20957e-12
3.0524e-12
6.73697e-12
1.27886e-11
2.16303e-11
3.46236e-11
5.57424e-11
9.15272e-11
1.43371e-10
2.33584e-10
2.94105e-10
4.41489e-10
1.39532e-09
1.27909e-09
1.30256e-09
2.94914e-05
0.000142291
7.3235e-05
5.29117e-13
1.40933e-12
3.50268e-12
7.6105e-12
1.41576e-11
2.34533e-11
3.65963e-11
5.668e-11
9.2889e-11
1.93869e-10
4.18247e-10
7.79562e-10
1.25542e-09
1.68494e-09
1.32253e-09
1.32269e-09
5.24558e-05
0.000143328
7.3346e-05
6.00086e-13
1.57185e-12
3.7965e-12
8.08936e-12
1.45844e-11
2.28134e-11
3.48601e-11
5.61458e-11
1.27906e-10
5.02261e-10
2.02318e-09
3.03268e-09
3.05266e-09
4.01526e-09
2.18479e-09
1.35278e-09
4.30213e-05
0.000144542
7.61962e-05
6.825e-13
1.73134e-12
3.94854e-12
8.18004e-12
1.44594e-11
2.18884e-11
3.0093e-11
4.57098e-11
3.11653e-10
2.0627e-09
3.04788e-09
3.02294e-09
3.93456e-09
1.06546e-08
4.15391e-09
1.40619e-09
4.25701e-05
0.000145347
5.54397e-05
8.29942e-13
2.03164e-12
4.25038e-12
8.94292e-12
1.61947e-11
2.54352e-11
3.59949e-11
7.00477e-11
5.34669e-10
1.93004e-09
1.80652e-09
2.84664e-09
1.362e-08
1.52748e-08
5.02654e-09
1.52767e-09
0.00010313
0.000145347
3.4176e-05
1.10559e-12
2.68155e-12
5.22688e-12
1.18004e-11
2.2175e-11
3.57683e-11
5.67378e-11
1.68843e-10
7.66266e-10
1.33994e-09
1.33634e-09
6.59276e-09
1.36325e-08
1.20343e-08
3.30879e-09
1.86794e-09
0.00013722
0.000145347
1.65868e-05
1.46904e-12
3.65805e-12
7.34778e-12
1.6504e-11
2.99719e-11
4.38541e-11
6.76664e-11
2.49611e-10
1.00196e-09
1.91367e-09
2.73195e-09
5.42879e-09
4.13407e-09
3.39203e-09
3.40007e-09
2.75938e-09
0.000129598
5.56945e-05
5.82218e-07
1.69845e-12
4.4421e-12
1.03011e-11
2.34002e-11
4.05036e-11
4.81693e-11
5.29288e-11
1.01914e-09
3.62416e-09
3.97586e-09
2.97245e-09
2.27185e-09
2.32276e-09
1.76687e-07
4.7314e-08
2.98454e-08
3.24675e-05
2.4054e-05
4.69699e-07
1.57074e-12
4.40212e-12
1.19148e-11
3.10744e-11
6.13342e-11
7.19805e-11
1.07273e-10
8.61864e-10
2.9632e-09
2.82108e-09
2.03177e-09
2.07392e-09
1.83357e-06
1.55846e-06
1.45278e-06
4.46943e-06
4.07764e-08
1.4342e-10
1.06652e-10
1.15831e-12
3.57457e-12
1.10962e-11
3.45779e-11
9.42073e-11
1.56101e-10
1.92201e-10
3.23248e-10
4.90073e-10
3.14093e-10
3.00873e-10
2.11162e-06
3.6843e-06
3.70092e-06
3.6843e-06
1.95655e-06
1.56964e-08
1.03295e-10
8.80375e-11
6.61175e-13
2.35568e-12
8.74398e-12
3.11993e-11
1.0133e-10
2.40289e-10
2.83608e-10
2.70621e-10
2.49831e-10
2.47969e-10
2.49101e-10
2.64292e-06
3.6979e-06
3.69645e-06
3.54932e-06
1.01507e-06
5.20947e-10
8.53467e-11
7.83911e-11
2.52676e-13
1.15933e-12
4.9855e-12
1.99538e-11
7.96161e-11
2.21164e-10
3.63175e-10
2.86065e-10
2.48296e-10
2.4838e-10
2.13797e-07
5.84564e-07
5.63474e-07
5.24297e-07
3.17122e-07
1.0863e-07
6.7075e-09
7.66671e-11
7.40853e-11
5.99991e-14
4.09276e-13
2.37864e-12
9.96915e-12
4.48809e-11
9.76592e-11
2.59948e-10
6.98122e-10
7.4684e-10
3.03971e-09
2.04819e-08
1.65897e-09
1.14811e-09
3.25877e-10
1.61753e-10
1.00259e-10
7.64893e-10
1.04706e-10
7.31681e-11
8.37884e-15
9.99717e-14
8.27593e-13
4.40059e-12
1.7073e-11
3.37617e-11
2.76769e-10
1.3536e-09
1.70138e-09
1.98697e-09
1.26253e-09
1.47201e-09
1.40881e-09
1.34405e-10
5.26221e-11
4.84471e-11
6.97467e-11
7.254e-11
1.60021e-07
6.05831e-16
1.47366e-14
1.81004e-13
1.30842e-12
6.34919e-12
1.74454e-11
1.23356e-10
5.21183e-10
1.13171e-09
1.21124e-09
1.18533e-09
9.90442e-10
3.9764e-10
5.67441e-11
4.87182e-11
4.63449e-11
4.58107e-11
7.43728e-11
4.3707e-07
)
;

boundaryField
{
    leftWall
    {
        type            zeroGradient;
    }
    rightWall
    {
        type            zeroGradient;
    }
    lowerWall
    {
        type            zeroGradient;
    }
    atmosphere
    {
        type            inletOutlet;
        inletValue      uniform 0;
        value           nonuniform List<scalar> 
46
(
1.56328e-26
3.97945e-26
2.38312e-26
1.05556e-26
3.76046e-27
1.06484e-27
2.3057e-28
3.61934e-29
6.3146e-30
1.70447e-29
6.85684e-29
0
0
0
0
0
0
0
0
0
0
0
0
0
0
0
0
0
0
0
0
0
0
0
0
0
1.21124e-09
1.18533e-09
9.90442e-10
3.9764e-10
5.67441e-11
4.87182e-11
4.63449e-11
4.58107e-11
7.43728e-11
4.3707e-07
)
;
    }
    defaultFaces
    {
        type            empty;
    }
}


// ************************************************************************* //
