/*--------------------------------*- C++ -*----------------------------------*\
| =========                 |                                                 |
| \\      /  F ield         | OpenFOAM: The Open Source CFD Toolbox           |
|  \\    /   O peration     | Version:  2.3.0                                 |
|   \\  /    A nd           | Web:      www.OpenFOAM.org                      |
|    \\/     M anipulation  |                                                 |
\*---------------------------------------------------------------------------*/
FoamFile
{
    version     2.0;
    format      ascii;
    class       volScalarField;
    location    "1.1";
    object      k;
}
// * * * * * * * * * * * * * * * * * * * * * * * * * * * * * * * * * * * * * //

dimensions      [0 2 -2 0 0 0 0];

internalField   nonuniform List<scalar> 
2268
(
0.00234224
0.004363
0.00653377
0.00843542
0.0103122
0.0124191
0.0148837
0.0177262
0.0208124
0.0238771
0.0265856
0.0287096
0.0301408
0.0310006
0.0316158
0.0322729
0.0331837
0.0348008
0.0359802
0.0346549
0.0288735
0.0181681
0.00676089
0.00472535
0.0112368
0.0160339
0.0202558
0.0244474
0.029133
0.0345926
0.0408134
0.0474677
0.0539817
0.0597031
0.0641776
0.0671953
0.0690098
0.0702523
0.0715413
0.0733368
0.0755048
0.0763917
0.072682
0.061333
0.040817
0.0134702
0.00688562
0.0159686
0.0220726
0.0275593
0.0331809
0.0395
0.0467981
0.0549809
0.0635798
0.0718786
0.0791388
0.084868
0.0889204
0.0916137
0.0936066
0.0955305
0.0977387
0.0998949
0.100009
0.0942325
0.0794727
0.0547335
0.0171483
0.00896496
0.0199573
0.0270542
0.0335964
0.0404866
0.0483092
0.0573025
0.0672506
0.0775167
0.0872408
0.0956292
0.102228
0.107018
0.110455
0.113276
0.116084
0.118988
0.121251
0.120512
0.112808
0.0953826
0.0670018
0.0219112
0.0108396
0.0235542
0.0315765
0.0391562
0.0473683
0.0568078
0.0676279
0.0794336
0.0913709
0.10242
0.111757
0.119026
0.124405
0.128557
0.132347
0.136306
0.140155
0.142575
0.140826
0.131193
0.111584
0.080358
0.0278124
0.0125387
0.0268826
0.0358618
0.0445628
0.0542559
0.065535
0.0784155
0.0922527
0.105925
0.118249
0.128407
0.136215
0.142115
0.14703
0.151954
0.157267
0.162154
0.164644
0.161636
0.149974
0.128636
0.0957775
0.0369452
0.0140926
0.0300104
0.0400382
0.0500186
0.0614301
0.0748433
0.0900648
0.106119
0.121577
0.135105
0.145955
0.154191
0.160588
0.166348
0.172537
0.179263
0.185074
0.187447
0.182798
0.168906
0.146378
0.113634
0.052488
0.015521
0.0329929
0.0442072
0.0556896
0.0691274
0.0850229
0.102879
0.121309
0.138552
0.15316
0.164536
0.173081
0.179958
0.186626
0.194101
0.202095
0.208468
0.210268
0.20351
0.187376
0.164346
0.133703
0.0805351
0.0143936
0.021464
0.0366575
0.0523031
0.0675624
0.0833134
0.0916891
0.0897186
0.0790271
0.071882
0.066498
0.0607612
0.0535145
0.0450754
0.0367055
0.0298718
0.0238982
0.0165895
0.00699821
0.0296179
0.0550578
0.0812179
0.109368
0.138674
0.16732
0.184699
0.183379
0.168372
0.156092
0.145908
0.134132
0.119441
0.102167
0.0843719
0.0693346
0.0556295
0.0386994
0.0121967
0.040755
0.075852
0.108148
0.142111
0.173382
0.205952
0.225931
0.225921
0.210804
0.197816
0.186981
0.173632
0.156352
0.135444
0.113088
0.0932927
0.0750881
0.0527222
0.0178946
0.0492776
0.0916575
0.127494
0.16373
0.19508
0.227851
0.247468
0.250528
0.238704
0.227172
0.217424
0.20424
0.186132
0.162955
0.137041
0.113628
0.0924561
0.0667172
0.0256605
0.0551685
0.104225
0.142162
0.178725
0.210442
0.241091
0.260329
0.266012
0.25858
0.250407
0.243044
0.231133
0.213323
0.188837
0.159682
0.133076
0.109769
0.08225
0.0345416
0.0595459
0.114458
0.153424
0.18976
0.22248
0.250455
0.269574
0.277748
0.273346
0.269799
0.265499
0.255639
0.239275
0.214679
0.182388
0.152488
0.12742
0.0994174
0.0444379
0.0638452
0.123664
0.162603
0.198491
0.23273
0.257785
0.276736
0.287217
0.285366
0.285585
0.284789
0.27733
0.264041
0.241488
0.205631
0.170269
0.144856
0.116986
0.0570062
0.0713642
0.133257
0.171917
0.207584
0.24224
0.264263
0.282629
0.295226
0.295497
0.297546
0.300057
0.294089
0.284668
0.268695
0.224605
0.18524
0.161592
0.132637
0.0683079
0.0176251
0.0375165
0.0508663
0.0651435
0.0823322
0.102706
0.125115
0.147422
0.167348
0.18334
0.195178
0.203956
0.211559
0.219741
0.229056
0.238136
0.24372
0.242439
0.231026
0.211654
0.18834
0.161163
0.127383
0.0196533
0.0430845
0.0604542
0.080232
0.10463
0.133033
0.162777
0.190484
0.213232
0.229384
0.239777
0.247249
0.254555
0.263389
0.272447
0.277492
0.278432
0.273987
0.260657
0.241772
0.220692
0.197937
0.172516
0.021395
0.0491192
0.0721633
0.0997907
0.133832
0.171778
0.209053
0.241431
0.265791
0.280067
0.286133
0.290404
0.295989
0.303243
0.307537
0.305846
0.306269
0.301739
0.290012
0.273131
0.255706
0.2397
0.224711
0.0230172
0.056489
0.0874936
0.12578
0.171638
0.219617
0.263438
0.299021
0.323694
0.333901
0.331404
0.327447
0.327501
0.330528
0.333851
0.338627
0.343205
0.339104
0.327119
0.308832
0.292628
0.281302
0.274559
0.0250633
0.0666627
0.108389
0.159982
0.218723
0.27563
0.323233
0.358826
0.378435
0.379328
0.369406
0.362267
0.361652
0.368594
0.382382
0.395165
0.396359
0.390635
0.373881
0.347181
0.328124
0.317672
0.314566
0.028889
0.0819319
0.137008
0.20345
0.274266
0.336214
0.378881
0.399182
0.403017
0.397794
0.389927
0.387064
0.395346
0.414372
0.439992
0.45792
0.452339
0.433361
0.410987
0.38242
0.359452
0.346967
0.343931
0.0373964
0.105467
0.175861
0.2573
0.336186
0.391476
0.404951
0.402303
0.400152
0.398233
0.396268
0.398363
0.410564
0.434613
0.461822
0.476305
0.472883
0.460212
0.437287
0.403861
0.38075
0.369756
0.365341
0.0522593
0.139747
0.226963
0.322991
0.389977
0.400252
0.393148
0.389541
0.390371
0.393346
0.395445
0.398927
0.408666
0.424754
0.440891
0.448891
0.448729
0.445524
0.432397
0.408549
0.390662
0.381258
0.379453
0.0690054
0.183626
0.274766
0.345166
0.373096
0.374649
0.374167
0.376785
0.382496
0.389724
0.392682
0.394523
0.400787
0.409791
0.416968
0.41925
0.417538
0.413711
0.406229
0.395379
0.38782
0.3856
0.384732
0.0831499
0.200172
0.275071
0.319905
0.340317
0.349201
0.357013
0.366817
0.376046
0.38193
0.384704
0.386984
0.391977
0.398485
0.401446
0.399891
0.396235
0.391952
0.387179
0.382958
0.38137
0.383318
0.383209
0.0844992
0.18929
0.25185
0.290514
0.311443
0.325773
0.340358
0.354348
0.364549
0.370115
0.372533
0.374804
0.377866
0.381239
0.382721
0.381582
0.378975
0.375628
0.37309
0.372371
0.372744
0.37529
0.376119
0.0779973
0.168142
0.222294
0.258525
0.281611
0.299427
0.316475
0.332088
0.344151
0.351471
0.354779
0.356975
0.359477
0.361962
0.363477
0.363455
0.36195
0.359918
0.35893
0.359392
0.360154
0.36126
0.361506
0.0681699
0.144201
0.191572
0.225871
0.249791
0.268478
0.285873
0.302034
0.315222
0.324008
0.328656
0.331382
0.333808
0.336374
0.33887
0.340682
0.341132
0.340976
0.341461
0.342697
0.344069
0.345348
0.346349
0.0574575
0.120988
0.162409
0.194465
0.218322
0.236739
0.253149
0.268366
0.281364
0.290875
0.296717
0.300228
0.302876
0.305513
0.308406
0.311313
0.313435
0.315146
0.317219
0.31985
0.322918
0.32631
0.329795
0.0473179
0.100022
0.136169
0.165492
0.188469
0.206318
0.221461
0.235089
0.246939
0.256236
0.262664
0.26686
0.269834
0.272436
0.275177
0.278265
0.281296
0.284362
0.287876
0.292135
0.297299
0.303392
0.310127
0.0389088
0.0819584
0.113159
0.139362
0.160929
0.178134
0.192334
0.204608
0.215183
0.223792
0.230241
0.234796
0.238057
0.240674
0.24319
0.246051
0.249355
0.253114
0.257582
0.263068
0.269848
0.278047
0.287507
0.0320346
0.0673172
0.0939754
0.116902
0.136574
0.152878
0.166383
0.1778
0.187493
0.195504
0.201808
0.206553
0.210089
0.212868
0.21535
0.218
0.221267
0.225173
0.229956
0.235922
0.2434
0.252619
0.263565
0.0266854
0.0561598
0.0789066
0.0986928
0.116184
0.131252
0.144039
0.154899
0.164116
0.171829
0.178108
0.183076
0.186958
0.190061
0.19274
0.195399
0.198532
0.20227
0.206862
0.21262
0.219901
0.229021
0.240107
0.0227838
0.048132
0.0677473
0.0848003
0.100122
0.113731
0.125638
0.135969
0.14488
0.152482
0.15886
0.164114
0.168396
0.171916
0.174935
0.177764
0.180809
0.184281
0.188432
0.193574
0.200078
0.208314
0.218518
0.0201098
0.0426083
0.0598578
0.0747207
0.0881281
0.100272
0.111177
0.120884
0.129453
0.136943
0.143407
0.148912
0.153555
0.157473
0.160844
0.163895
0.166923
0.170152
0.173822
0.17823
0.183738
0.190734
0.199521
0.0183452
0.0388905
0.0544016
0.0675989
0.079457
0.0902932
0.100199
0.109205
0.117334
0.124605
0.13104
0.136669
0.141545
0.14575
0.149396
0.152637
0.15568
0.158726
0.161984
0.165722
0.170273
0.176011
0.183266
0.0171702
0.0363635
0.0505862
0.0625329
0.0731899
0.0829442
0.0919454
0.100248
0.10787
0.114816
0.121086
0.126689
0.131644
0.135992
0.139797
0.143157
0.146212
0.149125
0.15207
0.155275
0.159033
0.163684
0.169552
0.0163355
0.0345643
0.0477946
0.0587793
0.0685065
0.0773917
0.0856205
0.0932724
0.100376
0.106937
0.112948
0.118406
0.123309
0.127673
0.131528
0.134933
0.13798
0.140795
0.143516
0.146332
0.149492
0.153292
0.158033
0.01568
0.033182
0.0456072
0.0558166
0.0648019
0.0729846
0.0805669
0.0876453
0.0942609
0.100425
0.106133
0.111376
0.116144
0.120435
0.124262
0.127654
0.130671
0.13341
0.135978
0.138528
0.141268
0.14445
0.148343
0.0151137
0.0320249
0.0437644
0.0533184
0.0616864
0.0692865
0.0763255
0.0829084
0.089085
0.0948733
0.100273
0.105274
0.109865
0.114035
0.117785
0.121128
0.124102
0.126783
0.129252
0.131633
0.134097
0.13686
0.140154
0.0145925
0.030985
0.0421197
0.0511011
0.0589374
0.0660408
0.0726168
0.078773
0.0845637
0.0900115
0.0951198
0.099881
0.104282
0.108311
0.11196
0.115235
0.118163
0.1208
0.12321
0.125494
0.127795
0.130295
0.133195
0.0140992
0.0300113
0.0406035
0.0490778
0.0564479
0.0631202
0.0692965
0.0750836
0.0805373
0.0856826
0.0905257
0.095061
0.0992768
0.10316
0.106701
0.109898
0.112784
0.11539
0.11777
0.12001
0.122229
0.124582
0.127241
0.0136327
0.0290938
0.0391994
0.047225
0.0541854
0.0604812
0.0663095
0.0717752
0.0769338
0.0818113
0.0864156
0.090743
0.0947837
0.0985256
0.101959
0.105082
0.107924
0.110508
0.112879
0.115108
0.117301
0.119587
0.122118
0.0132016
0.0282493
0.0379247
0.0455577
0.0521607
0.0581281
0.0636525
0.0688364
0.0737343
0.078373
0.0827613
0.0868977
0.0907742
0.0943808
0.0977097
0.100762
0.103561
0.106126
0.108497
0.110736
0.112934
0.115206
0.117681
0.0128198
0.0275097
0.0368139
0.0441094
0.050404
0.0560862
0.0613448
0.0662798
0.0709453
0.0753684
0.0795594
0.0835186
0.0872403
0.0907167
0.0939406
0.0969256
0.0996814
0.102227
0.104598
0.106853
0.109072
0.111356
0.113817
0.0125026
0.0269098
0.035904
0.0429153
0.0489471
0.054383
0.0594084
0.0641223
0.0685785
0.0728051
0.076814
0.0806077
0.0841829
0.0875347
0.09066
0.0935732
0.0962805
0.0988
0.101166
0.103431
0.105669
0.10797
0.110434
0.0122641
0.0264791
0.0352251
0.042002
0.0478122
0.0530356
0.0578561
0.0623724
0.0666393
0.0706862
0.0745272
0.0781669
0.0816043
0.0848366
0.0878684
0.0907068
0.0933586
0.0958416
0.0981886
0.10045
0.102692
0.104998
0.107456
0.0121146
0.0262374
0.0347942
0.0413818
0.0470058
0.0520456
0.0566852
0.0610246
0.0651207
0.0690052
0.0726941
0.076194
0.079506
0.082629
0.0855707
0.0883321
0.0909203
0.0933532
0.0956623
0.0978952
0.100115
0.102399
0.104828
0.0120602
0.0261923
0.0346138
0.0410501
0.0465172
0.051397
0.0558762
0.0600581
0.064003
0.0677454
0.0713034
0.0746843
0.0778897
0.0809203
0.0837778
0.0864614
0.0889776
0.0913438
0.0935909
0.0957654
0.0979281
0.100151
0.10251
0.0121018
0.026339
0.034671
0.0409864
0.0463191
0.0510579
0.055395
0.0594392
0.063256
0.0668836
0.0703413
0.0736355
0.0767643
0.0797252
0.0825109
0.0851183
0.0875529
0.0898326
0.0919892
0.0940689
0.0961316
0.0982464
0.100486
0.0122342
0.0266594
0.0349381
0.0411547
0.0463695
0.0509826
0.0551949
0.0591239
0.0628429
0.066395
0.0697998
0.0730576
0.0761568
0.0790801
0.0818113
0.0843437
0.0866839
0.0888524
0.0908843
0.0928278
0.0947429
0.0966971
0.0987601
0.0124443
0.0271208
0.0353722
0.041505
0.0466138
0.0511143
0.0552202
0.0590619
0.0627245
0.0662597
0.0696859
0.0729881
0.0761257
0.0790558
0.0817506
0.0842034
0.0864271
0.088451
0.0903172
0.0920786
0.0937963
0.0955363
0.0973652
0.01271
0.0276745
0.0359154
0.0419748
0.0469873
0.0513884
0.055409
0.0591983
0.0628622
0.0664694
0.0700381
0.0735178
0.0767926
0.0797791
0.0824435
0.0847925
0.0868594
0.0886911
0.0903422
0.0918721
0.0933431
0.0948188
0.0963613
0.0129994
0.0282565
0.0364972
0.0424919
0.0474184
0.0517349
0.0556945
0.0594741
0.0632166
0.0670309
0.0709482
0.0748426
0.0783891
0.0814608
0.0840572
0.0862364
0.0880743
0.089647
0.0910248
0.0922728
0.0934524
0.0946222
0.0958366
0.0132715
0.0287882
0.0370375
0.0429793
0.0478334
0.0520828
0.0560069
0.0598222
0.0637366
0.0679534
0.0725824
0.0773755
0.0813364
0.0844224
0.0868097
0.0886784
0.0901722
0.0913989
0.0924397
0.0933592
0.0942123
0.0950475
0.0959084
0.0134813
0.0291864
0.0374558
0.0433614
0.0481617
0.0523639
0.0562744
0.0601584
0.0643238
0.0691711
0.0751149
0.0819961
0.0863366
0.0890782
0.0909242
0.0922459
0.0932416
0.0940259
0.094671
0.0952273
0.095734
0.096224
0.0967255
0.0135786
0.0293936
0.037685
0.0435726
0.0483431
0.0525202
0.0564293
0.0603758
0.0647705
0.0702979
0.0781838
0.0907232
0.0943173
0.0957462
0.096505
0.096992
0.09734
0.0976056
0.0978188
0.097999
0.0981606
0.0983155
0.0984735
0.0780424
0.0564665
0.0542332
0.0685092
0.15083
0.140176
0.135069
0.137429
0.21436
0.20995
0.208408
0.209598
0.271319
0.270344
0.271389
0.274803
0.315749
0.317053
0.319281
0.322799
0.346364
0.348717
0.351666
0.355093
0.368641
0.371831
0.375605
0.379641
0.382504
0.386148
0.390051
0.393557
0.385788
0.387271
0.389167
0.390972
0.381695
0.381374
0.381614
0.382229
0.37397
0.372831
0.372351
0.372502
0.360844
0.360471
0.360289
0.36038
0.34697
0.347442
0.348034
0.348799
0.332497
0.334329
0.336285
0.338401
0.315522
0.319158
0.322933
0.326805
0.295345
0.300689
0.306192
0.311723
0.272842
0.27931
0.28596
0.292668
0.249706
0.256565
0.263683
0.27094
0.22754
0.234135
0.241075
0.248261
0.207439
0.213341
0.219644
0.226279
0.189903
0.194923
0.200359
0.206168
0.17497
0.179109
0.183639
0.188542
0.162419
0.165784
0.169496
0.17355
0.151922
0.154667
0.157706
0.161042
0.143141
0.145421
0.147944
0.150717
0.135772
0.137722
0.139871
0.142228
0.129553
0.131283
0.133176
0.135241
0.12427
0.125861
0.127588
0.129458
0.119748
0.121257
0.122882
0.124629
0.115843
0.117307
0.118871
0.120541
0.11244
0.113876
0.115401
0.117022
0.109444
0.110856
0.112349
0.113929
0.106783
0.108162
0.109616
0.111149
0.104404
0.105731
0.107128
0.108599
0.10228
0.10353
0.104844
0.106228
0.100409
0.101553
0.102755
0.104021
0.0988247
0.0998316
0.10089
0.102006
0.0975893
0.0984323
0.099319
0.100255
0.0968009
0.0974593
0.0981525
0.0988857
0.0965899
0.0970529
0.0975408
0.098058
0.0971213
0.0973889
0.0976714
0.0979718
0.0985983
0.0986823
0.0987714
0.0988668
0.10084
0.150796
0.189287
0.225985
0.257402
0.273534
0.289925
0.305282
0.307997
0.311154
0.316832
0.314179
0.306737
0.297029
0.245004
0.209466
0.184031
0.152577
0.0794031
0.150856
0.186281
0.223731
0.263797
0.283367
0.289235
0.30053
0.315784
0.319541
0.325473
0.33471
0.336252
0.325371
0.302336
0.268371
0.237932
0.209767
0.176102
0.0898045
0.215511
0.240954
0.276726
0.310045
0.311441
0.307789
0.313949
0.326097
0.331373
0.342578
0.360584
0.37029
0.352059
0.317013
0.294915
0.262941
0.233102
0.198103
0.101094
0.282779
0.302937
0.330241
0.342476
0.332812
0.325845
0.329553
0.338604
0.347865
0.361954
0.395592
0.425923
0.389312
0.342767
0.314994
0.282999
0.253158
0.214951
0.1108
0.329881
0.344371
0.357111
0.356904
0.348796
0.341134
0.341544
0.347103
0.359904
0.376432
0.408214
0.450802
0.414216
0.361018
0.330291
0.301463
0.271284
0.224404
0.114232
0.360931
0.369893
0.374932
0.371073
0.36206
0.353886
0.351783
0.355396
0.362557
0.374295
0.394942
0.423518
0.406127
0.37251
0.348351
0.324999
0.293176
0.227408
0.108653
0.385812
0.393297
0.394813
0.386469
0.374469
0.365608
0.361994
0.360627
0.36351
0.369754
0.380896
0.396059
0.39362
0.381952
0.373748
0.361604
0.318024
0.214047
0.0992484
0.39801
0.400448
0.397058
0.388728
0.379028
0.371192
0.367488
0.365859
0.366904
0.369613
0.373463
0.380695
0.387951
0.388907
0.378308
0.350613
0.299573
0.194116
0.0893403
0.393203
0.39256
0.388802
0.383238
0.376728
0.371026
0.368284
0.369837
0.371998
0.372343
0.368863
0.368643
0.376318
0.379768
0.357688
0.312807
0.259994
0.179817
0.0814856
0.383464
0.384043
0.382601
0.378985
0.373163
0.369009
0.367082
0.36829
0.370738
0.367129
0.359994
0.356022
0.357318
0.353479
0.325719
0.277646
0.227118
0.15582
0.0713779
0.37324
0.373819
0.373252
0.3719
0.368674
0.366172
0.364305
0.363222
0.362104
0.356318
0.348532
0.341524
0.33525
0.322805
0.292627
0.249697
0.204984
0.145158
0.0673445
0.360776
0.361484
0.362242
0.362895
0.362621
0.361119
0.35899
0.3563
0.352746
0.346417
0.337635
0.327142
0.315075
0.297913
0.270907
0.237228
0.199666
0.148319
0.0677724
0.350261
0.352858
0.355611
0.357988
0.358982
0.358014
0.355388
0.351388
0.346118
0.338871
0.329155
0.317126
0.302893
0.285155
0.26184
0.233195
0.197686
0.147797
0.0667359
0.341953
0.347213
0.352257
0.35645
0.358754
0.358448
0.355582
0.350575
0.343908
0.335521
0.325098
0.312562
0.297769
0.279764
0.256876
0.228265
0.191882
0.141481
0.0640979
0.333077
0.341513
0.349167
0.355405
0.359274
0.359992
0.357439
0.352033
0.344426
0.334954
0.323613
0.310327
0.294777
0.275931
0.252312
0.222882
0.185992
0.136937
0.0633337
0.320721
0.332437
0.342885
0.351422
0.357159
0.359318
0.357688
0.352541
0.344472
0.334084
0.32174
0.307518
0.291099
0.271623
0.247875
0.218821
0.183004
0.135502
0.0643109
0.303777
0.318339
0.331433
0.342328
0.35015
0.354121
0.353886
0.349533
0.341573
0.330745
0.317697
0.302766
0.285818
0.266275
0.243225
0.215739
0.182328
0.137197
0.0662654
0.283103
0.299374
0.314567
0.327561
0.337429
0.343351
0.344799
0.341692
0.334454
0.323851
0.310694
0.295582
0.278665
0.259654
0.237916
0.212772
0.182354
0.140453
0.0683991
0.260514
0.277206
0.293393
0.307918
0.319502
0.327225
0.330427
0.328873
0.322871
0.313161
0.300644
0.286079
0.26986
0.251955
0.232045
0.209398
0.182005
0.143427
0.0702286
0.2378
0.253885
0.269978
0.285017
0.297777
0.306968
0.311821
0.311966
0.30758
0.299329
0.288136
0.274837
0.259974
0.243716
0.225929
0.20573
0.181025
0.145087
0.0716671
0.216427
0.231135
0.246328
0.261014
0.274046
0.284242
0.290505
0.292345
0.289797
0.283406
0.274071
0.262607
0.249614
0.235457
0.219893
0.202006
0.179498
0.145336
0.0730474
0.197324
0.21023
0.223965
0.237677
0.250331
0.260807
0.268069
0.271451
0.270783
0.266475
0.259331
0.250089
0.239359
0.227457
0.214096
0.198335
0.177782
0.145286
0.0739601
0.180888
0.191899
0.203919
0.21627
0.228076
0.238338
0.246096
0.250644
0.251703
0.249517
0.244688
0.237837
0.229521
0.219949
0.208785
0.194968
0.175986
0.144684
0.0743139
0.16712
0.176382
0.186693
0.197549
0.208248
0.217951
0.225809
0.231147
0.233624
0.233399
0.23081
0.226342
0.220392
0.213047
0.203886
0.191741
0.173991
0.143396
0.0740484
0.155783
0.163571
0.172357
0.181783
0.191315
0.20028
0.207966
0.213758
0.217381
0.218792
0.21818
0.215864
0.212062
0.206712
0.199283
0.188518
0.17174
0.141709
0.0733086
0.14653
0.15316
0.160691
0.168877
0.177326
0.185518
0.192878
0.198919
0.203353
0.206039
0.207044
0.206522
0.20454
0.200867
0.194864
0.18521
0.169221
0.139844
0.0724522
0.138996
0.144767
0.151327
0.158513
0.166041
0.173522
0.180508
0.186638
0.191595
0.19521
0.197446
0.198322
0.197769
0.195417
0.190538
0.181766
0.166424
0.137734
0.0714179
0.132842
0.138003
0.14385
0.150271
0.157066
0.163948
0.170586
0.176676
0.181933
0.186168
0.189274
0.19116
0.191645
0.190263
0.186223
0.17814
0.163335
0.135305
0.0700291
0.127768
0.132516
0.137858
0.14372
0.149958
0.156358
0.162683
0.168663
0.174053
0.178658
0.18232
0.184867
0.186031
0.185304
0.18185
0.174288
0.159953
0.132572
0.0683627
0.123525
0.127998
0.132993
0.138456
0.144283
0.150313
0.156356
0.162189
0.167593
0.172372
0.176333
0.179249
0.180793
0.180455
0.177372
0.170189
0.156272
0.129615
0.0666516
0.119901
0.124189
0.128942
0.134121
0.139644
0.145386
0.151185
0.156851
0.162187
0.166994
0.171058
0.174118
0.175816
0.175642
0.17276
0.165847
0.152309
0.126509
0.0648987
0.116724
0.120872
0.125444
0.13041
0.1357
0.14121
0.146795
0.152285
0.157497
0.162231
0.166259
0.169299
0.17098
0.170794
0.167995
0.161288
0.148151
0.123271
0.0629104
0.113856
0.117871
0.122284
0.127067
0.132161
0.137471
0.14286
0.14817
0.153226
0.157824
0.161726
0.164639
0.166191
0.165894
0.163074
0.156534
0.143872
0.119858
0.0604731
0.111193
0.115051
0.119291
0.123889
0.128791
0.133908
0.139108
0.144239
0.149122
0.153553
0.157283
0.160012
0.161371
0.160899
0.157978
0.151569
0.139396
0.116103
0.0577073
0.108667
0.112319
0.116343
0.120721
0.125405
0.130313
0.13532
0.140268
0.144979
0.149239
0.152789
0.155315
0.156454
0.155774
0.152705
0.146327
0.13454
0.111851
0.0550223
0.106254
0.109629
0.113369
0.117465
0.121878
0.126535
0.131327
0.136087
0.140636
0.144749
0.148142
0.150483
0.151404
0.150496
0.147233
0.140751
0.129171
0.107159
0.0524052
0.103978
0.106993
0.110362
0.114087
0.118146
0.122485
0.127013
0.131572
0.135983
0.140003
0.143303
0.145507
0.146238
0.145106
0.141628
0.135002
0.123478
0.102195
0.0502432
0.101913
0.104482
0.107383
0.110631
0.114226
0.118143
0.122326
0.126656
0.130966
0.134993
0.138312
0.14047
0.141069
0.139744
0.136066
0.129318
0.117919
0.0974269
0.0481986
0.100188
0.102235
0.104572
0.107229
0.110229
0.113583
0.11729
0.121328
0.125582
0.129796
0.13332
0.135567
0.136123
0.134666
0.130834
0.12401
0.112792
0.0930873
0.0463391
0.0989794
0.100449
0.102147
0.10411
0.106376
0.108994
0.112039
0.115625
0.119853
0.124609
0.128625
0.131134
0.131754
0.130241
0.126315
0.119463
0.108452
0.0895118
0.0449182
0.0985092
0.0993791
0.100395
0.101588
0.102999
0.104693
0.106795
0.109583
0.113662
0.119802
0.12471
0.127644
0.128413
0.126909
0.122942
0.116089
0.105271
0.0870377
0.0442673
0.0990389
0.0993217
0.0996554
0.100052
0.100531
0.101129
0.101935
0.103227
0.10616
0.116144
0.122266
0.125642
0.126566
0.125097
0.121117
0.114261
0.103566
0.0859146
0.044578
)
;

boundaryField
{
    leftWall
    {
        type            kqRWallFunction;
        value           nonuniform List<scalar> 
50
(
0.00234224
0.00472535
0.00688562
0.00896496
0.0108396
0.0125387
0.0140926
0.015521
0.0176251
0.0196533
0.021395
0.0230172
0.0250633
0.028889
0.0373964
0.0522593
0.0690054
0.0831499
0.0844992
0.0779973
0.0681699
0.0574575
0.0473179
0.0389088
0.0320346
0.0266854
0.0227838
0.0201098
0.0183452
0.0171702
0.0163355
0.01568
0.0151137
0.0145925
0.0140992
0.0136327
0.0132016
0.0128198
0.0125026
0.0122641
0.0121146
0.0120602
0.0121018
0.0122342
0.0124443
0.01271
0.0129994
0.0132715
0.0134813
0.0135786
)
;
    }
    rightWall
    {
        type            kqRWallFunction;
        value           nonuniform List<scalar> 
50
(
0.00699821
0.0121967
0.0178946
0.0256605
0.0345416
0.0444379
0.0570062
0.0683079
0.0794031
0.0898045
0.101094
0.1108
0.114232
0.108653
0.0992484
0.0893403
0.0814856
0.0713779
0.0673445
0.0677724
0.0667359
0.0640979
0.0633337
0.0643109
0.0662654
0.0683991
0.0702286
0.0716671
0.0730474
0.0739601
0.0743139
0.0740484
0.0733086
0.0724522
0.0714179
0.0700291
0.0683627
0.0666516
0.0648987
0.0629104
0.0604731
0.0577073
0.0550223
0.0524052
0.0502432
0.0481986
0.0463391
0.0449182
0.0442673
0.044578
)
;
    }
    lowerWall
    {
        type            kqRWallFunction;
        value           nonuniform List<scalar> 
62
(
0.00234224
0.004363
0.00653377
0.00843542
0.0103122
0.0124191
0.0148837
0.0177262
0.0208124
0.0238771
0.0265856
0.0287096
0.0301408
0.0310006
0.0316158
0.0322729
0.0331837
0.0348008
0.0359802
0.0346549
0.0288735
0.0181681
0.00676089
0.00676089
0.0134702
0.0171483
0.0219112
0.0278124
0.0369452
0.052488
0.0805351
0.0780424
0.0564665
0.0542332
0.0685092
0.0143936
0.0296179
0.040755
0.0492776
0.0551685
0.0595459
0.0638452
0.0713642
0.0143936
0.021464
0.0366575
0.0523031
0.0675624
0.0833134
0.0916891
0.0897186
0.0790271
0.071882
0.066498
0.0607612
0.0535145
0.0450754
0.0367055
0.0298718
0.0238982
0.0165895
0.00699821
)
;
    }
    atmosphere
    {
        type            inletOutlet;
        inletValue      uniform 0.1;
        value           nonuniform List<scalar> 
46
(
0.0135786
0.0293936
0.037685
0.0435726
0.0483431
0.0525202
0.0564293
0.0603758
0.0647705
0.0702979
0.0781838
0.1
0.1
0.1
0.1
0.1
0.1
0.1
0.1
0.1
0.1
0.1
0.1
0.1
0.1
0.1
0.1
0.1
0.1
0.1
0.1
0.1
0.1
0.1
0.1
0.1
0.116144
0.122266
0.125642
0.126566
0.125097
0.121117
0.114261
0.103566
0.0859146
0.044578
)
;
    }
    defaultFaces
    {
        type            empty;
    }
}


// ************************************************************************* //
