/*--------------------------------*- C++ -*----------------------------------*\
| =========                 |                                                 |
| \\      /  F ield         | OpenFOAM: The Open Source CFD Toolbox           |
|  \\    /   O peration     | Version:  2.3.0                                 |
|   \\  /    A nd           | Web:      www.OpenFOAM.org                      |
|    \\/     M anipulation  |                                                 |
\*---------------------------------------------------------------------------*/
FoamFile
{
    version     2.0;
    format      ascii;
    class       volScalarField;
    location    "1.1";
    object      nut;
}
// * * * * * * * * * * * * * * * * * * * * * * * * * * * * * * * * * * * * * //

dimensions      [0 2 -1 0 0 0 0];

internalField   nonuniform List<scalar> 
2268
(
4.45478e-05
4.42082e-05
5.4051e-05
6.15784e-05
6.83364e-05
7.55341e-05
8.31983e-05
9.11254e-05
9.87374e-05
0.000105373
0.000110555
0.000114174
0.000116323
0.000117579
0.000118764
0.000120484
0.000123108
0.000127477
0.000130229
0.000127603
0.000115691
9.12496e-05
5.59272e-05
9.7932e-05
0.000357709
0.000468276
0.000556086
0.000646034
0.000744766
0.000849292
0.000950719
0.00103771
0.00110027
0.0011343
0.0011432
0.0011313
0.00111191
0.00110281
0.00111728
0.00116007
0.00120102
0.00120944
0.00115372
0.00100178
0.000717821
0.000166301
0.000117488
0.000623643
0.000878304
0.00107498
0.00127142
0.00147754
0.0016858
0.00188115
0.00204648
0.00216716
0.0022367
0.00225904
0.00224367
0.00221173
0.00219076
0.00220036
0.00223868
0.00226274
0.00222231
0.00205633
0.00171134
0.001146
0.000186823
0.00013399
0.000836775
0.00124041
0.00154114
0.00182479
0.00210648
0.00238038
0.00263381
0.00285086
0.00301604
0.00312055
0.00316596
0.00316231
0.00313159
0.00310234
0.0030939
0.00309986
0.00307566
0.0029631
0.00268735
0.00218016
0.00138784
0.000211123
0.000147422
0.00101599
0.00156391
0.0019571
0.00230543
0.00263466
0.0029474
0.00323713
0.00348999
0.00368962
0.00382508
0.00389543
0.00390921
0.00388589
0.00385113
0.00382269
0.00379354
0.00372152
0.0035447
0.00318033
0.00254516
0.0015693
0.000238007
0.000158593
0.00116989
0.00185278
0.002325
0.00271903
0.00307803
0.00341697
0.00373467
0.00401695
0.00424544
0.00440751
0.00450079
0.00453215
0.00451763
0.00447942
0.00443485
0.00437897
0.00427294
0.00405131
0.00362434
0.00289239
0.0017549
0.000274413
0.000168153
0.00130349
0.00210955
0.00264729
0.00307357
0.00345449
0.00381744
0.00416284
0.00447323
0.00472748
0.00491222
0.00502503
0.00507176
0.00506531
0.00502542
0.0049707
0.0048993
0.00477603
0.00453058
0.00406735
0.00327368
0.00199177
0.00033041
0.000176701
0.00142054
0.00233684
0.00292779
0.00337889
0.00378178
0.00417274
0.00454911
0.00488793
0.0051656
0.00536926
0.00549787
0.0055571
0.00555737
0.00551738
0.00545826
0.00538101
0.00525453
0.00500383
0.00453086
0.00372708
0.00235925
0.000415135
7.84785e-05
9.4117e-05
0.000124452
0.000150299
0.00017225
0.000192843
0.000202777
0.000199387
0.000184361
0.000176985
0.00017247
0.000166346
0.00015682
0.00014441
0.00012974
0.000115905
0.000102781
8.60989e-05
7.75916e-05
0.000260654
0.000573345
0.000756746
0.00102634
0.00138807
0.00169789
0.00185027
0.00185162
0.00175539
0.00170744
0.00168431
0.0016331
0.00154044
0.00139446
0.00121119
0.00106324
0.000926846
0.000693694
0.000174256
0.000304255
0.00100234
0.00142178
0.00197227
0.00261777
0.00317759
0.0034573
0.0034833
0.00333271
0.00324507
0.00319995
0.0031031
0.00292725
0.00265362
0.00230618
0.00198075
0.00164607
0.0011241
0.000210748
0.000334268
0.00137446
0.00202549
0.00277281
0.00360167
0.00430255
0.00466051
0.00472793
0.00457553
0.00446114
0.0043879
0.00424704
0.00400871
0.0036465
0.00318279
0.00270558
0.00218655
0.00142269
0.000249864
0.000354831
0.00169234
0.00255163
0.00342988
0.00439125
0.0051632
0.00557846
0.00568304
0.00555074
0.00542589
0.00532434
0.00514365
0.00485791
0.00443805
0.00389122
0.00329394
0.00262862
0.00168526
0.000287721
0.000368532
0.00196625
0.00300529
0.00397681
0.00503342
0.00583671
0.00629399
0.00643353
0.00632459
0.00620593
0.00608312
0.00586847
0.00554896
0.00509227
0.00448173
0.00378897
0.00301779
0.00194977
0.000323466
0.000382598
0.00222422
0.00341211
0.00444631
0.00555516
0.00637137
0.00685847
0.00703143
0.00694945
0.00684483
0.00671322
0.00647197
0.00613015
0.00565389
0.00498663
0.00420975
0.00337375
0.00218673
0.000366046
0.000410563
0.00251221
0.00381029
0.00487837
0.00599135
0.00680468
0.00731003
0.00751597
0.00746162
0.00737446
0.00724397
0.00698366
0.00662218
0.00614557
0.0054066
0.00458586
0.00371217
0.00240295
0.000397381
0.00018826
0.00158297
0.00265146
0.00331069
0.00380053
0.00424939
0.00469651
0.00512745
0.00550985
0.00581833
0.00604383
0.00619008
0.00626409
0.00627345
0.00623597
0.00617486
0.006094
0.00596172
0.00569593
0.00522144
0.00448919
0.00342569
0.00197547
0.00019962
0.00176652
0.00298354
0.00371171
0.00427473
0.00482224
0.00537095
0.00588265
0.00631503
0.00664526
0.00687633
0.00702515
0.00710255
0.00711465
0.00707726
0.00701061
0.00695127
0.00685486
0.00662112
0.00620833
0.00560792
0.00481544
0.00384541
0.000209946
0.00194712
0.00327389
0.00407622
0.00475276
0.00543018
0.00608807
0.00667143
0.00713647
0.00746467
0.00767354
0.00780544
0.00787674
0.00788961
0.00784517
0.00777692
0.00776849
0.0077121
0.00752793
0.00719629
0.00673003
0.00616121
0.00554201
0.000220995
0.00214747
0.00356323
0.00446905
0.0052918
0.00610375
0.00685603
0.00749191
0.00797273
0.00827938
0.00843507
0.00851106
0.00855004
0.00855275
0.00853519
0.00855113
0.00859716
0.0085638
0.00842287
0.00816216
0.00780984
0.0074099
0.00701855
0.00023633
0.00238617
0.00389232
0.00493419
0.00590743
0.00682998
0.00764468
0.00830504
0.00877107
0.00903202
0.00913544
0.0091694
0.00918922
0.00923013
0.00931295
0.00940148
0.00943856
0.00941798
0.00930104
0.009069
0.00879537
0.00851427
0.00826964
0.00026148
0.00267212
0.00429622
0.00548653
0.00658057
0.00756117
0.00837156
0.00896748
0.00935684
0.00957547
0.00966691
0.00969841
0.00975367
0.00987344
0.0100502
0.0101876
0.0102038
0.0101511
0.0100431
0.00985601
0.00963662
0.00943437
0.0092831
0.000303551
0.00301175
0.00480051
0.00612331
0.0072744
0.00820441
0.0088691
0.00933499
0.00967483
0.00989834
0.0100099
0.0100607
0.0101373
0.0103001
0.0105108
0.0106606
0.0107177
0.010722
0.0106375
0.0104567
0.0102858
0.0101566
0.0100702
0.000359882
0.00342027
0.00541053
0.00682805
0.00787888
0.00854942
0.00905929
0.00949273
0.00983362
0.0100758
0.010213
0.0102895
0.0103792
0.0105207
0.0106901
0.0108299
0.0109252
0.010983
0.0109605
0.0108495
0.0107427
0.0106695
0.0106549
0.000414483
0.00392052
0.00600447
0.00723995
0.00799524
0.00856501
0.00909041
0.00954004
0.00989262
0.0101511
0.010301
0.0103938
0.0104976
0.010626
0.0107578
0.0108676
0.0109463
0.0109983
0.0110185
0.011004
0.0109945
0.0110123
0.0110568
0.000454068
0.00406975
0.00611114
0.00715031
0.00784488
0.00845467
0.00901736
0.00949371
0.00985473
0.0100988
0.0102529
0.0103626
0.0104764
0.0106021
0.0107089
0.0107882
0.0108482
0.0109037
0.0109587
0.011019
0.0110961
0.0111961
0.0112927
0.000455469
0.00389667
0.00588195
0.00689632
0.00760239
0.00823988
0.00882862
0.00931806
0.00968045
0.00992262
0.0100772
0.0101919
0.0102958
0.0103994
0.0104895
0.0105617
0.0106299
0.0107068
0.0108045
0.010931
0.0110769
0.0112396
0.0113905
0.000436253
0.00359434
0.00551434
0.00652851
0.00725095
0.00789675
0.00848522
0.00897761
0.00935343
0.00961378
0.00978178
0.00990073
0.0100002
0.0100909
0.010173
0.0102501
0.0103332
0.0104361
0.010572
0.0107463
0.0109459
0.0111572
0.0113615
0.000407776
0.00325395
0.00509112
0.00609872
0.006818
0.0074469
0.00801908
0.00850888
0.00889565
0.00917558
0.00936541
0.00949974
0.00960733
0.00970376
0.00979554
0.00988768
0.00999002
0.0101173
0.0102832
0.0104921
0.0107348
0.0109952
0.011257
0.000375215
0.0029167
0.00466009
0.00565201
0.0063584
0.00695895
0.00750112
0.00797406
0.00836118
0.00865658
0.00887039
0.00902715
0.00915319
0.00926685
0.00937787
0.00949078
0.00961478
0.00976507
0.00995563
0.0101932
0.0104738
0.0107836
0.011104
0.000341329
0.00258637
0.00424457
0.00521838
0.00590953
0.00648302
0.00699172
0.00743923
0.00781663
0.00811924
0.00835284
0.00853421
0.00868423
0.00882086
0.00895594
0.00909488
0.00924359
0.00941686
0.00962907
0.00988999
0.0102009
0.0105525
0.0109253
0.000308946
0.00225022
0.00384046
0.00480816
0.00549321
0.00605071
0.00653545
0.00696072
0.00732608
0.00763076
0.00787941
0.00808357
0.00825896
0.00842122
0.00858273
0.0087504
0.00892728
0.00912587
0.00935943
0.00963892
0.00996863
0.0103424
0.010744
0.000278213
0.00195399
0.00347512
0.00444713
0.00513613
0.0056891
0.00616286
0.00657651
0.00693588
0.00724422
0.00750684
0.00773279
0.00793413
0.00812378
0.00831325
0.0085101
0.00871569
0.00893908
0.00919088
0.00948127
0.00981599
0.0101921
0.0105968
0.000250424
0.0017188
0.00317175
0.00415809
0.00486325
0.00542328
0.00589829
0.00631207
0.00667474
0.00699255
0.00727189
0.00752082
0.00774907
0.00796716
0.00818488
0.00840917
0.00864024
0.00888385
0.00914741
0.00943912
0.00976469
0.0101236
0.0105068
0.000227198
0.00154671
0.00293997
0.00395086
0.00468767
0.00526871
0.00575695
0.00618131
0.00655582
0.00688914
0.00718863
0.00746192
0.00771719
0.00796288
0.00820674
0.0084541
0.00870429
0.00896019
0.00922672
0.00950987
0.00981449
0.0101413
0.0104846
0.0002095
0.0014285
0.00277428
0.00381716
0.00460145
0.00522018
0.00573528
0.00618052
0.00657415
0.0069275
0.00724908
0.0075464
0.00782657
0.00809627
0.00836123
0.008625
0.00888601
0.00914488
0.00940509
0.00967101
0.00994646
0.0102326
0.010526
0.00019705
0.00135128
0.00266104
0.0037368
0.00457834
0.00524983
0.00580618
0.00628334
0.0067034
0.00708059
0.007425
0.0077445
0.00804559
0.00833364
0.00861277
0.00888499
0.00914816
0.00940125
0.00964717
0.00988938
0.010131
0.0103734
0.0106145
0.00018862
0.00130332
0.00258649
0.00368948
0.00458766
0.00531923
0.00592749
0.00644648
0.00690018
0.00730518
0.00767322
0.00801293
0.0083307
0.0086312
0.00891751
0.00919066
0.00944837
0.00968878
0.00991468
0.0101292
0.0103354
0.0105347
0.0107262
0.000182783
0.00127565
0.00253998
0.00366152
0.00460678
0.00539545
0.00605837
0.00662443
0.00711679
0.00755289
0.00794561
0.00830425
0.00863546
0.00894371
0.00923163
0.00949991
0.00974654
0.0099697
0.0101723
0.0103577
0.0105289
0.010688
0.0108352
0.000178417
0.00126169
0.00251342
0.00364507
0.00462384
0.0054589
0.00617101
0.00678275
0.00731439
0.00778253
0.00820007
0.00857662
0.00891902
0.00923182
0.00951765
0.00977732
0.0100095
0.0102131
0.0103913
0.0105477
0.010686
0.0108089
0.0109177
0.000174812
0.00125633
0.00249993
0.00363497
0.00463395
0.00550169
0.00625229
0.00690269
0.00746945
0.00796714
0.00840769
0.00880034
0.00915188
0.00946694
0.00974835
0.00999736
0.0102134
0.0103968
0.010551
0.0106801
0.0107883
0.0108793
0.0109555
0.00017158
0.00125531
0.00249332
0.00362689
0.00463524
0.00552261
0.00629944
0.00697852
0.00757291
0.00809467
0.00855416
0.00895976
0.00931783
0.00963298
0.00990828
0.0101455
0.010345
0.0105085
0.0106399
0.0107439
0.0108253
0.0108886
0.0109374
0.000168539
0.00125528
0.0024885
0.00361722
0.00462706
0.00552347
0.00631532
0.00701268
0.00762584
0.0081645
0.00863729
0.00905142
0.00941267
0.00972546
0.00999307
0.0102179
0.0104008
0.0105453
0.0106557
0.010737
0.0107947
0.0108342
0.0108602
0.000165635
0.00125415
0.00248217
0.00360378
0.00460983
0.00550753
0.00630535
0.0070118
0.00763516
0.00818324
0.00866308
0.00908076
0.00944137
0.00974909
0.0100073
0.0102188
0.0103857
0.0105123
0.0106034
0.0106646
0.0107019
0.0107212
0.0107283
0.000162901
0.0012514
0.00247337
0.00358643
0.00458536
0.00547905
0.00627613
0.0069843
0.00761055
0.00816129
0.00864227
0.00905862
0.00941483
0.00971481
0.00996205
0.0101597
0.010311
0.0104209
0.0104945
0.010538
0.0105577
0.0105603
0.010552
0.000160422
0.00124792
0.00246326
0.00356701
0.00455683
0.00544305
0.0062347
0.00693913
0.00756258
0.00811046
0.00858765
0.00899852
0.00934709
0.0096371
0.00987214
0.0100557
0.0101921
0.0102864
0.0103444
0.0103724
0.0103772
0.0103659
0.0103452
0.00015831
0.00124544
0.00245441
0.00354867
0.0045283
0.00540489
0.006188
0.00688493
0.00750148
0.00804251
0.00851224
0.00891456
0.00925316
0.00953167
0.0097538
0.00992359
0.0100458
0.0101259
0.01017
0.0101846
0.0101769
0.0101543
0.0101237
0.000156673
0.00124584
0.00244973
0.00353487
0.00450384
0.00536957
0.00614224
0.00682931
0.00743641
0.00796803
0.00842802
0.00881993
0.00914723
0.00941355
0.00962281
0.00977948
0.00988863
0.00995598
0.00998784
0.00999111
0.00997306
0.0099411
0.00990238
0.000155601
0.00125049
0.00245141
0.00352825
0.00448659
0.00534093
0.00610226
0.00677832
0.00737474
0.00789579
0.00834506
0.00872585
0.00904154
0.00929577
0.00949278
0.0096373
0.0097347
0.00979092
0.00981248
0.00980634
0.0097798
0.00974022
0.00969469
0.000155144
0.00125987
0.00246026
0.00352988
0.00447802
0.00532111
0.00607107
0.00673608
0.00732178
0.00783231
0.00827099
0.00864093
0.00894543
0.00918828
0.00937398
0.0095076
0.00959478
0.00964169
0.00965492
0.0096414
0.00960824
0.00956256
0.00951125
0.000155309
0.00127348
0.0024754
0.00353893
0.0044777
0.00531032
0.00604979
0.00670469
0.00728072
0.00778181
0.00821095
0.00857096
0.00886506
0.00909738
0.00927278
0.00939679
0.00947541
0.00951498
0.00952208
0.0095034
0.00946572
0.0094157
0.00935978
0.000156051
0.00128987
0.00249446
0.00355292
0.00448357
0.00530719
0.00603786
0.00668455
0.00725292
0.00774652
0.00816777
0.00851901
0.00880342
0.00902569
0.00919147
0.00930697
0.00937864
0.00941295
0.00941632
0.00939509
0.00935545
0.00930342
0.00924475
0.000157272
0.00130697
0.00251411
0.0035684
0.00449255
0.00530932
0.00603364
0.00667484
0.00723838
0.00772715
0.00814254
0.00848598
0.00876067
0.00897253
0.00912865
0.00923628
0.00930234
0.00933339
0.00933557
0.00931469
0.00927621
0.00922531
0.00916683
0.000158812
0.00132235
0.00253079
0.00358174
0.00450144
0.005314
0.00603502
0.00667405
0.00723629
0.00772358
0.00813555
0.00847176
0.00873543
0.0089351
0.00908042
0.00917997
0.00924118
0.00927054
0.00927383
0.00925621
0.00922234
0.00917641
0.00912221
0.000160464
0.0013336
0.00254147
0.0035901
0.00450768
0.0053189
0.00603981
0.00668027
0.00724527
0.00773535
0.00814721
0.00847682
0.00872678
0.00891079
0.00904259
0.00913253
0.00918843
0.00921663
0.00922244
0.00921036
0.0091842
0.00914713
0.00910188
0.000161975
0.00133846
0.0025443
0.00359214
0.00450999
0.00532246
0.00604602
0.00669113
0.00726303
0.007761
0.00817798
0.00850443
0.00873781
0.00890072
0.00901385
0.00909028
0.00913834
0.00916405
0.00917215
0.00916638
0.00914967
0.0091243
0.009092
0.000163087
0.00133571
0.00253987
0.00358893
0.00450892
0.00532417
0.00605176
0.00670318
0.00728454
0.00779471
0.00822536
0.0085682
0.00878259
0.00891375
0.00899805
0.00905322
0.00908797
0.00910751
0.00911551
0.00911465
0.00910693
0.00909377
0.00907609
0.000163531
0.00133005
0.0025338
0.00358474
0.00450691
0.00532452
0.00605522
0.00671146
0.00730027
0.00782128
0.00827614
0.00873658
0.00889914
0.00896624
0.00900189
0.0090237
0.00903732
0.00904526
0.00904905
0.00904977
0.00904816
0.00904474
0.00903981
0.000423564
0.000363576
0.000335556
0.000366976
0.00299184
0.00266623
0.00243027
0.00239481
0.00509658
0.00489333
0.00478182
0.00477419
0.00676575
0.00665451
0.00660217
0.00661102
0.00813345
0.00807806
0.00805732
0.00807286
0.00921918
0.00920093
0.00920478
0.00922964
0.0100596
0.0100695
0.0100944
0.0101316
0.0106863
0.0107203
0.0107613
0.0108045
0.0111189
0.0111637
0.0112104
0.0112557
0.0113782
0.0114346
0.0114905
0.0115438
0.0115043
0.0115761
0.0116455
0.0117102
0.0115151
0.011609
0.0116964
0.0117749
0.0114524
0.0115713
0.0116806
0.0117778
0.0113409
0.0114862
0.0116207
0.011741
0.0111995
0.0113693
0.0115283
0.0116719
0.0110431
0.0112311
0.0114088
0.0115708
0.0108997
0.0110931
0.0112769
0.0114469
0.0107936
0.0109783
0.011155
0.0113201
0.0107396
0.0109039
0.0110616
0.01121
0.0107404
0.0108773
0.0110082
0.0111315
0.0107862
0.0108936
0.0109951
0.01109
0.0108579
0.0109377
0.0110115
0.0110789
0.0109322
0.0109884
0.0110385
0.0110823
0.010986
0.011023
0.0110542
0.0110796
0.0110004
0.0110222
0.011039
0.0110507
0.0109633
0.0109733
0.0109792
0.0109811
0.0108709
0.0108716
0.0108693
0.0108639
0.0107267
0.0107202
0.0107115
0.0107011
0.0105406
0.0105284
0.0105151
0.0105009
0.0103262
0.0103097
0.0102929
0.0102761
0.0100985
0.0100788
0.0100593
0.0100407
0.00987214
0.00984981
0.00982828
0.00980803
0.00965995
0.00963529
0.00961177
0.00958989
0.00947233
0.00944541
0.00941976
0.0093959
0.00931706
0.00928797
0.00926006
0.00923385
0.00919915
0.00916832
0.00913835
0.00910972
0.00912027
0.0090888
0.00905765
0.0090273
0.00907779
0.0090476
0.00901715
0.00898678
0.00906359
0.00903733
0.00901029
0.00898272
0.00906371
0.00904409
0.00902347
0.00900197
0.00906003
0.00904874
0.00903665
0.0090238
0.00903516
0.00903185
0.00902824
0.00902435
0.00129465
0.00317225
0.00447289
0.00554698
0.00657639
0.00731903
0.00782794
0.00809144
0.00809642
0.00804454
0.00792428
0.0076626
0.00726626
0.00676739
0.00596064
0.00514396
0.00418852
0.00270957
0.000424547
0.00296017
0.00430346
0.00542351
0.00643357
0.00726192
0.00787547
0.00835742
0.00865659
0.00871489
0.008705
0.00859892
0.00834068
0.00788219
0.00722755
0.00651437
0.00572162
0.00468071
0.00303829
0.000453185
0.00494947
0.00570689
0.00655142
0.00736542
0.00795256
0.00841982
0.00883474
0.0091149
0.00920476
0.00921938
0.00913622
0.00890473
0.00841283
0.00765581
0.00697
0.00612704
0.00500974
0.00326863
0.000482492
0.00671815
0.00713634
0.00772218
0.00828417
0.00865691
0.00899369
0.00931036
0.00952957
0.00962478
0.0096289
0.00959558
0.00944569
0.0088903
0.00806702
0.00729732
0.00637599
0.00520431
0.00340458
0.000508067
0.00815466
0.00842521
0.00878501
0.00911468
0.00936145
0.00956305
0.00974802
0.00987354
0.00994177
0.00992806
0.00986908
0.00974946
0.00919551
0.00835252
0.00750637
0.00651069
0.00528596
0.00343935
0.000517953
0.00930229
0.00948097
0.00969174
0.00987349
0.00999824
0.0100806
0.0101362
0.0101557
0.0101276
0.010044
0.00991248
0.00971214
0.00922661
0.00848468
0.00759996
0.00655268
0.00525288
0.0033283
0.000505559
0.0102082
0.0103427
0.0104637
0.0105281
0.0105431
0.0105197
0.010454
0.0103428
0.0101946
0.0100062
0.00979018
0.00951755
0.00907376
0.00841398
0.00754695
0.0064955
0.00506697
0.00290155
0.000482937
0.0108736
0.0109591
0.0110123
0.0110145
0.01096
0.0108368
0.0106567
0.0104282
0.0101537
0.00984607
0.00952164
0.00915782
0.00871179
0.00806602
0.00718136
0.00609696
0.0046738
0.00254542
0.000457214
0.0113209
0.0113802
0.0113971
0.0113535
0.0112292
0.0110128
0.0107231
0.0103904
0.0100044
0.00957546
0.00911192
0.0086196
0.00809956
0.00742687
0.00650989
0.00539138
0.00408005
0.00238352
0.000442931
0.0116189
0.0116845
0.0116835
0.0115875
0.011378
0.0110676
0.0106684
0.0102157
0.0097141
0.00915732
0.00856632
0.00796421
0.00736387
0.00664351
0.00570695
0.00460883
0.00342706
0.00193326
0.0004058
0.0117976
0.0118613
0.0118344
0.0116927
0.0114151
0.0110195
0.0105225
0.00995951
0.00935127
0.00869121
0.00800473
0.0073224
0.00665157
0.00589849
0.00498186
0.00395791
0.00289842
0.00167554
0.000386037
0.011876
0.0119382
0.01189
0.011708
0.011383
0.0109231
0.0103547
0.00971138
0.00901893
0.00828964
0.00754998
0.00682947
0.00612324
0.00537192
0.00453204
0.00363756
0.00271646
0.00167287
0.000382022
0.0119047
0.0119833
0.0119311
0.0117294
0.0113743
0.010877
0.0102637
0.00956737
0.00882168
0.00805604
0.00730008
0.00657839
0.00587699
0.00516438
0.00441328
0.00362099
0.00276056
0.00172561
0.000380181
0.0119039
0.012015
0.0119805
0.0117864
0.0114319
0.0109296
0.0103042
0.00958899
0.00882349
0.00804743
0.00729567
0.00658401
0.00590334
0.00522993
0.00453115
0.00377206
0.00289128
0.00177428
0.000375731
0.0118744
0.0120292
0.0120297
0.0118658
0.0115398
0.0110643
0.0104618
0.00976376
0.00901017
0.00824392
0.00750173
0.00679856
0.00613242
0.00548125
0.00480406
0.00404167
0.00310974
0.0018631
0.000377529
0.0118076
0.012007
0.0120511
0.0119324
0.0116549
0.0112309
0.0106802
0.0100299
0.00931596
0.00857863
0.00785316
0.00715941
0.00650247
0.0058625
0.00519218
0.00441434
0.00340169
0.00200158
0.000384079
0.0117029
0.0119368
0.0120229
0.0119545
0.0117359
0.0113782
0.0108976
0.0103165
0.00966423
0.00897533
0.00828107
0.00760623
0.00696147
0.00632907
0.005657
0.00485253
0.00374953
0.00218913
0.000392588
0.0115741
0.0118231
0.0119404
0.0119176
0.0117581
0.0114708
0.0110683
0.0105675
0.00999152
0.00936778
0.00872224
0.00808097
0.00745677
0.00683273
0.00615344
0.00529483
0.0041085
0.00240912
0.000400684
0.0114421
0.0116828
0.0118157
0.011826
0.011717
0.0114952
0.011169
0.0107505
0.0102567
0.00970837
0.00912579
0.00853196
0.0079371
0.00732153
0.00661567
0.00570232
0.00443762
0.00262493
0.000407151
0.011327
0.011538
0.011667
0.0116978
0.011625
0.0114571
0.0111984
0.0108566
0.0104432
0.00997313
0.00946057
0.00892234
0.0083619
0.00775192
0.00701564
0.00605032
0.00471024
0.00279579
0.000412039
0.0112412
0.0114087
0.0115162
0.0115503
0.0115035
0.0113747
0.0111705
0.0108948
0.0105544
0.0101587
0.00971547
0.00923391
0.00870876
0.0080996
0.00733886
0.00632563
0.00491016
0.00289048
0.000416601
0.0111857
0.011305
0.0113811
0.0114044
0.0113679
0.0112685
0.0111068
0.0108837
0.0106048
0.0102745
0.00989399
0.0094638
0.00896759
0.00836183
0.00757867
0.0065224
0.00505121
0.00295918
0.000419661
0.0111504
0.011225
0.0112681
0.0112738
0.0112369
0.0111538
0.0110224
0.010842
0.0106134
0.0103364
0.0100078
0.00961944
0.00914673
0.00854604
0.00775059
0.00666551
0.00515245
0.00300359
0.000420826
0.0111172
0.0111561
0.0111713
0.0111597
0.0111181
0.0110434
0.0109328
0.0107837
0.0105941
0.0103586
0.0100705
0.00971468
0.00926197
0.00866746
0.00786551
0.00676283
0.00522134
0.00302867
0.000419857
0.0110662
0.0110799
0.0110759
0.0110525
0.0110076
0.0109388
0.010843
0.0107171
0.0105554
0.010351
0.0100931
0.00976166
0.0093249
0.00873737
0.00793448
0.00682409
0.00526735
0.00304693
0.000417837
0.0109812
0.0109792
0.010965
0.010937
0.0108934
0.0108317
0.0107488
0.0106403
0.0104995
0.0103182
0.0100823
0.00976916
0.00934545
0.00876608
0.00796728
0.00685732
0.00529577
0.00306082
0.000415692
0.0108537
0.0108429
0.0108255
0.0107994
0.0107622
0.0107107
0.010641
0.0105477
0.0104243
0.010261
0.010042
0.00974354
0.00933182
0.00876224
0.0079716
0.00686788
0.0053083
0.00306734
0.000412864
0.0106839
0.0106689
0.0106526
0.0106328
0.0106057
0.0105672
0.010512
0.0104344
0.0103273
0.0101798
0.00997544
0.00969024
0.00929082
0.00873277
0.00795321
0.00685957
0.00530645
0.00306586
0.000408884
0.0104792
0.0104626
0.0104499
0.0104382
0.0104232
0.0103992
0.0103601
0.0102993
0.0102086
0.0100765
0.00988635
0.00961444
0.0092281
0.00868296
0.00791638
0.0068352
0.00529204
0.00305722
0.000404175
0.0102515
0.0102347
0.0102262
0.010223
0.0102201
0.0102109
0.0101882
0.0101446
0.0100707
0.0099543
0.0097787
0.0095206
0.00914798
0.0086166
0.00786396
0.00679662
0.00526594
0.00304264
0.000399369
0.0100141
0.0099975
0.00999283
0.00999704
0.0100048
0.0100092
0.0100022
0.009975
0.00991749
0.00981682
0.00965601
0.00941201
0.00905325
0.00853591
0.0077976
0.00674493
0.00522875
0.00302361
0.000394321
0.00977979
0.00976275
0.00976039
0.00976985
0.00978591
0.00980141
0.00980771
0.00979522
0.00975286
0.00966715
0.00952075
0.00929064
0.00894553
0.00844199
0.00771805
0.00668091
0.00518196
0.00300048
0.00038837
0.00955952
0.0095404
0.00953787
0.00954943
0.00957019
0.00959321
0.0096095
0.00960886
0.0095795
0.00950724
0.00937428
0.00915741
0.0088254
0.00833519
0.0076254
0.00660442
0.00512597
0.00297293
0.00038088
0.00936242
0.00933877
0.00933266
0.00934222
0.00936316
0.00938905
0.00941101
0.00941853
0.00939923
0.00933831
0.00921737
0.00901277
0.00869317
0.00821563
0.00751935
0.00651443
0.00505823
0.00293626
0.000372164
0.00919616
0.00916514
0.00915156
0.00915433
0.00917008
0.00919321
0.00921563
0.00922675
0.00921392
0.00916176
0.00905116
0.00885778
0.00854986
0.00808438
0.00740087
0.00641078
0.00497634
0.0028873
0.000363634
0.00906721
0.00902649
0.00900175
0.00899284
0.00899759
0.00901166
0.00902832
0.00903759
0.00902692
0.00898052
0.0088784
0.00869523
0.00839843
0.00794456
0.0072732
0.00629673
0.00488215
0.00283007
0.000355359
0.00898058
0.00892948
0.00889126
0.00886675
0.00885512
0.00885369
0.00885751
0.00885838
0.00884456
0.00880026
0.00870455
0.00853064
0.00824466
0.00780232
0.00714298
0.00617978
0.00478309
0.00276447
0.000348502
0.00893837
0.00887919
0.00882818
0.00878676
0.00875533
0.00873293
0.00871674
0.00870148
0.00867762
0.00863052
0.00853848
0.00837269
0.0080973
0.00766667
0.00701946
0.00606909
0.0046887
0.00269995
0.000341882
0.00893723
0.00887619
0.00881764
0.00876285
0.00871269
0.00866736
0.00862591
0.00858589
0.00854258
0.008485
0.00839221
0.00823258
0.00796719
0.0075483
0.00691329
0.00597519
0.00460886
0.00264429
0.000335888
0.00896537
0.00891215
0.00885642
0.00879839
0.00873823
0.00867575
0.00860994
0.0085389
0.00846292
0.00838029
0.00827886
0.00812184
0.00786488
0.00745698
0.00683363
0.00590673
0.00455138
0.00260324
0.000331461
0.00900126
0.00896616
0.00892644
0.00888112
0.00882896
0.0087679
0.00869385
0.00859892
0.00847474
0.00833113
0.0082079
0.00804855
0.00779721
0.00739813
0.0067845
0.00586663
0.0045185
0.0025787
0.000329785
0.00901737
0.00900589
0.00899202
0.0089749
0.00895332
0.00892506
0.00888481
0.00881619
0.00866587
0.00833554
0.00817835
0.00801385
0.00776499
0.00737098
0.00676316
0.00585041
0.00450472
0.0025656
0.000331451
)
;

boundaryField
{
    leftWall
    {
        type            nutkWallFunction;
        Cmu             0.09;
        kappa           0.41;
        E               9.8;
        value           nonuniform List<scalar> 
50
(
8.31296e-06
1.16296e-05
1.38844e-05
1.57064e-05
1.71569e-05
1.83558e-05
1.93758e-05
2.026e-05
2.14841e-05
2.25899e-05
2.34903e-05
2.42932e-05
2.52627e-05
2.69648e-05
3.03808e-05
3.75413e-05
4.44322e-05
4.86189e-05
4.89242e-05
4.67777e-05
4.33681e-05
3.93243e-05
3.50837e-05
3.11577e-05
2.75739e-05
2.44704e-05
2.19764e-05
2.01235e-05
1.88228e-05
1.79168e-05
1.72515e-05
1.67154e-05
1.62419e-05
1.5797e-05
1.53676e-05
1.49535e-05
1.45636e-05
1.42122e-05
1.39157e-05
1.36899e-05
1.35471e-05
1.34949e-05
1.35349e-05
1.36614e-05
1.38607e-05
1.41101e-05
1.43783e-05
1.46273e-05
1.48174e-05
1.4905e-05
)
;
    }
    rightWall
    {
        type            nutkWallFunction;
        Cmu             0.09;
        kappa           0.41;
        E               9.8;
        value           nonuniform List<scalar> 
50
(
1.54381e-05
1.99781e-05
2.38391e-05
2.81299e-05
3.22706e-05
3.67798e-05
4.12214e-05
4.47667e-05
4.78634e-05
5.05948e-05
5.31279e-05
5.51147e-05
5.58859e-05
5.4628e-05
5.24226e-05
5.01618e-05
5.33757e-05
5.08893e-05
4.91637e-05
4.91798e-05
4.83077e-05
4.72428e-05
4.75209e-05
4.79144e-05
4.86893e-05
4.95207e-05
5.0222e-05
5.07661e-05
5.12821e-05
5.16186e-05
5.15741e-05
5.1218e-05
5.12578e-05
5.09371e-05
5.04858e-05
4.9806e-05
4.91596e-05
4.84969e-05
4.77155e-05
4.68157e-05
4.572e-05
4.44583e-05
4.32783e-05
4.20945e-05
4.10933e-05
4.01239e-05
3.92218e-05
3.85187e-05
3.81934e-05
3.83511e-05
)
;
    }
    lowerWall
    {
        type            nutkWallFunction;
        Cmu             0.09;
        kappa           0.41;
        E               9.8;
        value           nonuniform List<scalar> 
62
(
3.89667e-06
5.38485e-06
6.59341e-06
7.47698e-06
8.24543e-06
9.02019e-06
9.83856e-06
1.06936e-05
1.15395e-05
1.23131e-05
1.2952e-05
1.34282e-05
1.37384e-05
1.39208e-05
1.40495e-05
1.41855e-05
1.43714e-05
1.46947e-05
1.49252e-05
1.46658e-05
1.34643e-05
1.08196e-05
6.70591e-06
6.70591e-06
1.89751e-05
2.12141e-05
2.37493e-05
2.64991e-05
3.01819e-05
3.54386e-05
4.30833e-05
4.26723e-05
3.68156e-05
3.61435e-05
4.0211e-05
9.68222e-06
3.00378e-05
3.47587e-05
3.79071e-05
3.99114e-05
4.13258e-05
4.26607e-05
4.48812e-05
9.68222e-06
1.17091e-05
1.50555e-05
1.77631e-05
1.99979e-05
2.20284e-05
2.30221e-05
2.27928e-05
2.14984e-05
2.05787e-05
1.98533e-05
1.90424e-05
1.79545e-05
1.65792e-05
1.50659e-05
1.36813e-05
1.23189e-05
1.0362e-05
6.82129e-06
)
;
    }
    atmosphere
    {
        type            calculated;
        value           nonuniform List<scalar> 
46
(
0.000163531
0.00133005
0.0025338
0.00358474
0.00450691
0.00532452
0.00605522
0.00671146
0.00730027
0.00782128
0.00827614
0.009
0.009
0.009
0.009
0.009
0.009
0.009
0.009
0.009
0.009
0.009
0.009
0.009
0.009
0.009
0.009
0.009
0.009
0.009
0.009
0.009
0.009
0.009
0.009
0.009
0.00833554
0.00817835
0.00801385
0.00776499
0.00737098
0.00676316
0.00585041
0.00450472
0.0025656
0.000331451
)
;
    }
    defaultFaces
    {
        type            empty;
    }
}


// ************************************************************************* //
