/*--------------------------------*- C++ -*----------------------------------*\
| =========                 |                                                 |
| \\      /  F ield         | OpenFOAM: The Open Source CFD Toolbox           |
|  \\    /   O peration     | Version:  2.3.0                                 |
|   \\  /    A nd           | Web:      www.OpenFOAM.org                      |
|    \\/     M anipulation  |                                                 |
\*---------------------------------------------------------------------------*/
FoamFile
{
    version     2.0;
    format      ascii;
    class       volScalarField;
    location    "1.1";
    object      p_rgh;
}
// * * * * * * * * * * * * * * * * * * * * * * * * * * * * * * * * * * * * * //

dimensions      [1 -1 -2 0 0 0 0];

internalField   nonuniform List<scalar> 
2268
(
1115.95
1110.95
1102.72
1090.68
1075.3
1057.04
1036.52
1014.57
992.276
970.949
952.147
937.422
927.572
924.001
926.363
933.678
944.918
958.132
969.116
970.726
960.103
944.358
937.599
1116.49
1111.63
1104.19
1092.28
1076.85
1058.33
1037.43
1015.05
992.409
971.009
952.496
938.497
930.353
927.844
930.258
936.741
946.212
956.168
963.16
962.976
953.668
940.84
936.29
1118.12
1112.96
1106.09
1094.32
1078.78
1059.9
1038.46
1015.5
992.363
970.722
952.335
938.882
931.559
930.285
933.613
939.683
946.834
953.395
957.294
955.982
948.162
938.219
934.029
1120.75
1115.49
1108.52
1096.77
1081
1061.66
1039.58
1015.86
991.997
969.749
950.965
937.452
930.324
929.456
933.203
939.445
946.365
952.025
954.869
953.514
946.344
936.899
930.933
1124.5
1118.94
1111.63
1099.76
1083.67
1063.78
1040.92
1016.25
991.323
967.988
948.172
933.96
926.518
925.786
929.994
936.914
944.821
951.369
954.961
954.283
946.094
935.875
927.123
1129.25
1123.3
1115.55
1103.48
1087.01
1066.47
1042.67
1016.76
990.364
965.417
943.938
928.489
920.38
919.665
924.319
932.066
941.935
950.915
955.857
951.3
945.734
934.576
922.875
1134.87
1128.56
1120.35
1108.05
1091.15
1069.86
1044.91
1017.45
989.152
962.083
938.376
921.241
912.166
911.291
916.132
924.732
938.375
934.726
918.342
939.924
948.58
932.138
917.803
1141.3
1134.69
1126.02
1113.41
1096.02
1073.89
1047.63
1018.37
987.88
958.343
932.074
912.751
902.005
900.068
904.182
914.185
924.315
864.306
878.797
958.672
947.351
926.63
907.492
643.703
622.404
588.12
529.666
504.025
515.045
536.977
541.893
521.595
506.555
491.46
476.484
458.935
439.998
421.975
406.437
394.812
386.668
383.396
644.422
626.424
596.219
528.062
476.744
477.037
500.08
520.877
511.354
500.044
487.567
474.49
458.75
441.806
424.124
406.933
393.514
386.29
383.708
651.799
633.584
599.37
487.955
423.371
441.562
459.123
461.46
458.611
492.196
487.668
478.851
465.563
449.331
430.985
413.962
398.358
386.881
382.479
664.608
642.119
590.471
424.19
413.759
441.043
485.297
446.092
403.06
429.297
486.732
480.072
468.801
454.453
435.232
413.714
397.732
385.476
376.403
680.882
652.702
561.059
388.879
400.755
516.005
522.447
524.696
394.268
339.585
419.288
484.748
471.506
453.937
423.467
374.382
315.497
279.153
264.446
699.826
656.8
453.005
319.304
451.803
514.28
523.092
519.871
506.331
328.535
304.867
409.135
434.577
369.596
271.143
185.038
150.211
146.863
144.366
720.523
671.073
399.525
277.518
392.583
524.525
534.59
527.284
490.861
351.609
280.465
238.004
237.17
184.723
119.503
126.556
142.148
145.458
143.832
747.873
702.241
459.237
257.766
396.652
541.342
550.67
533.752
371.575
399.146
359.049
202.721
127.699
103.638
108.802
122.469
161.99
159.33
143.136
1152.52
1145.57
1136.12
1122.89
1104.63
1081.06
1052.56
1020.28
986.117
952.156
920.754
895.678
879.065
871.962
872.292
844.661
758.036
787.439
884.085
960.436
942.889
916.115
887.673
1171.09
1163.93
1153.99
1140.14
1120.73
1094.87
1062.44
1024.49
983.421
938.654
884.019
757.331
629.444
577.245
521.077
454.349
581.516
942.902
961.695
960.913
943.823
905.033
890.843
1193.16
1186.44
1176.8
1163.02
1142.91
1114.56
1076.93
1030.5
979.482
763.694
332.923
205.323
173.366
149.022
127.832
166.076
577.602
904.669
964.904
979.996
969.759
807.419
696.696
1218.44
1213.11
1204.94
1192.67
1173.16
1143.06
1100.09
956.759
427.718
232.095
163.583
116.339
103.648
97.8838
95.3392
97.7402
213.238
357.762
689.907
940.374
1002.67
790.679
363.331
1245.81
1243.42
1238.72
1230.18
1213.06
1184.36
929.675
436.304
259.995
251.121
235.556
121.836
96.8337
92.4363
88.3513
80.669
73.0194
64.554
59.4058
316.231
705.683
830.432
578.048
1274.23
1275.48
1275.69
1248.71
1131.43
802.798
417.159
283.823
266.738
292.22
284.466
231.087
92.4846
88.7681
84.8671
77.8015
67.4046
59.3016
49.2296
40.0571
51.281
431.922
648.199
720.369
781.192
741.252
589.77
348.494
173.611
203.918
294.003
293.996
290.05
290.949
292.69
145.29
86.1827
82.8875
94.1283
92.6575
61.3644
42.161
31.8792
22.2808
9.00463
43.7679
17.0458
23.7917
24.0635
14.7825
23.1724
59.2094
249.244
289.244
289.071
203.091
204.317
250.643
244.17
220.774
171.127
177.309
175.624
83.7563
66.6386
74.852
24.5866
7.73546
6.90388
0.306993
0.250177
0.920911
2.71855
7.8994
68.8052
152.89
146.209
43.1015
9.7719
14.696
43.9307
77.0288
94.0096
128.389
147.596
124.518
121.005
119.874
113.372
70.6967
5.67015
4.57948
0.0323827
0.0214178
0.192127
0.991523
9.37229
19.2893
4.7508
1.67267
0.433337
0.273266
0.267988
0.0384283
-0.270677
-0.628647
-0.365803
-0.546736
-0.459036
-0.109064
26.8991
36.1425
13.3808
4.09539
2.06185
-0.0414072
-0.0722804
-0.0219608
0.367559
1.37664
0.0889542
-0.0594207
-0.214396
-0.35336
-0.367249
-0.397895
-0.433906
-0.458504
-0.460873
-0.417856
-0.370474
-0.325015
-0.272143
-0.206544
-0.0556798
-0.0450968
-0.0359497
-0.0470377
-0.0916107
-0.130863
-0.149644
-0.150694
-0.231719
-0.303953
-0.353864
-0.408705
-0.434547
-0.440012
-0.463691
-0.491341
-0.49958
-0.486971
-0.457433
-0.409868
-0.35838
-0.310268
-0.246912
-0.165296
-0.0997143
-0.0557748
-0.0293761
-0.13464
-0.169479
-0.20456
-0.247928
-0.307117
-0.359757
-0.399522
-0.422938
-0.43429
-0.442385
-0.460374
-0.480476
-0.49023
-0.482618
-0.457673
-0.418945
-0.372341
-0.321875
-0.265295
-0.203398
-0.144893
-0.0958653
-0.0588521
-0.164422
-0.190246
-0.218937
-0.256993
-0.304207
-0.347415
-0.378008
-0.398208
-0.412595
-0.425576
-0.440947
-0.454925
-0.46109
-0.454755
-0.434688
-0.403465
-0.364103
-0.318882
-0.269435
-0.216608
-0.165437
-0.118663
-0.077788
-0.179231
-0.197969
-0.217367
-0.245827
-0.28095
-0.314798
-0.341452
-0.36162
-0.377796
-0.392231
-0.406171
-0.41707
-0.421199
-0.415769
-0.399868
-0.374645
-0.341948
-0.303333
-0.260283
-0.214229
-0.168551
-0.125341
-0.0855211
-0.183226
-0.195236
-0.207872
-0.228162
-0.253582
-0.279473
-0.302078
-0.320826
-0.336602
-0.350411
-0.362577
-0.371508
-0.374786
-0.370588
-0.358177
-0.337984
-0.311053
-0.27847
-0.241473
-0.201479
-0.160778
-0.121378
-0.0844107
-0.180585
-0.186327
-0.193803
-0.207845
-0.226157
-0.245767
-0.264227
-0.28056
-0.294747
-0.306993
-0.317179
-0.324284
-0.326807
-0.323501
-0.313751
-0.297619
-0.275616
-0.248419
-0.217002
-0.182574
-0.146776
-0.111408
-0.0776001
-0.173933
-0.17444
-0.177902
-0.187201
-0.200386
-0.215214
-0.229914
-0.24348
-0.255501
-0.265782
-0.274012
-0.279475
-0.281215
-0.278396
-0.270531
-0.25753
-0.239563
-0.217016
-0.190575
-0.161183
-0.130059
-0.0987028
-0.0681248
-0.164629
-0.161558
-0.162005
-0.16769
-0.177081
-0.188249
-0.199741
-0.210629
-0.220388
-0.228677
-0.235135
-0.239218
-0.240269
-0.237708
-0.231169
-0.220518
-0.205764
-0.187084
-0.16491
-0.139932
-0.113062
-0.0855127
-0.0581162
-0.153673
-0.148669
-0.14698
-0.149898
-0.156357
-0.164663
-0.173526
-0.182095
-0.189832
-0.196365
-0.201346
-0.204342
-0.204865
-0.202485
-0.196924
-0.18805
-0.175814
-0.160267
-0.141654
-0.120455
-0.0973526
-0.0733304
-0.0490495
-0.141974
-0.136201
-0.133127
-0.133955
-0.138077
-0.144093
-0.150853
-0.157558
-0.163668
-0.168808
-0.172656
-0.174857
-0.175026
-0.172822
-0.168025
-0.160523
-0.150259
-0.137227
-0.121559
-0.103576
-0.0837885
-0.0629973
-0.0417243
-0.130273
-0.124404
-0.120522
-0.11982
-0.122078
-0.126235
-0.131311
-0.136558
-0.141431
-0.145543
-0.148585
-0.150248
-0.150214
-0.148205
-0.144039
-0.137627
-0.128928
-0.117929
-0.104703
-0.0894624
-0.0725848
-0.0547188
-0.0362696
-0.11906
-0.113418
-0.109118
-0.107343
-0.108152
-0.110806
-0.114513
-0.1186
-0.122532
-0.125902
-0.128392
-0.129716
-0.129602
-0.127817
-0.124207
-0.118702
-0.111285
-0.101957
-0.0907725
-0.0778754
-0.063542
-0.0482897
-0.0324176
-0.10854
-0.103238
-0.0987693
-0.0962851
-0.0960214
-0.097487
-0.100072
-0.103204
-0.106382
-0.109191
-0.111297
-0.112424
-0.112327
-0.110803
-0.10772
-0.103022
-0.0967067
-0.0887965
-0.0793462
-0.0684619
-0.0563455
-0.0434062
-0.0298482
-0.0986999
-0.0937591
-0.0892844
-0.0863751
-0.0853659
-0.085928
-0.0876056
-0.089936
-0.0924746
-0.0948202
-0.0966377
-0.0976538
-0.0976405
-0.0964151
-0.093857
-0.0899167
-0.0845999
-0.0779406
-0.0699992
-0.0608606
-0.0506773
-0.0397753
-0.0282813
-0.0894554
-0.084875
-0.080504
-0.0773892
-0.0759016
-0.0758096
-0.0767743
-0.0784338
-0.0804108
-0.0823421
-0.0839101
-0.0848522
-0.0849527
-0.0840416
-0.0820042
-0.0787899
-0.0744014
-0.068875
-0.0622714
-0.0546622
-0.0461668
-0.03705
-0.0273826
-0.0807672
-0.0765425
-0.0723535
-0.0691966
-0.0674343
-0.0668917
-0.0673124
-0.0684157
-0.069894
-0.0714367
-0.0727607
-0.0736241
-0.073826
-0.0732067
-0.0716547
-0.0691137
-0.0655765
-0.0610736
-0.0556577
-0.0493879
-0.042359
-0.0347899
-0.0267165
-0.0726619
-0.0687842
-0.0648374
-0.0617544
-0.0598644
-0.0590257
-0.0590379
-0.0596832
-0.0607177
-0.0618882
-0.062955
-0.0637054
-0.0639582
-0.0635662
-0.0624213
-0.0604617
-0.0576689
-0.0540611
-0.0496773
-0.0445621
-0.0387896
-0.0325412
-0.0258337
-0.0651914
-0.0616499
-0.0579913
-0.0550616
-0.0531462
-0.0521224
-0.0518291
-0.0520965
-0.0527357
-0.0535476
-0.0543375
-0.0549264
-0.0551576
-0.0549
-0.0540522
-0.052549
-0.0503626
-0.0474977
-0.0439775
-0.0398312
-0.0351137
-0.0299731
-0.0244169
-0.0583862
-0.0551716
-0.0518302
-0.0491063
-0.0472353
-0.0461043
-0.0455818
-0.0455365
-0.0458248
-0.0462943
-0.0467925
-0.0471751
-0.0473123
-0.0470917
-0.0464221
-0.045239
-0.0435089
-0.0412253
-0.0383973
-0.0350398
-0.0311898
-0.0269651
-0.0223687
-0.0522326
-0.0493361
-0.0463232
-0.0438369
-0.0420564
-0.0408734
-0.0401809
-0.0398788
-0.0398603
-0.0400118
-0.040218
-0.0403675
-0.040357
-0.0400937
-0.039499
-0.0385126
-0.0371
-0.0352471
-0.0329528
-0.0302204
-0.0270717
-0.0235972
-0.0197974
-0.0466725
-0.0440813
-0.0413946
-0.0391608
-0.0374994
-0.0363055
-0.035492
-0.0349846
-0.034706
-0.0345748
-0.0345079
-0.0344229
-0.0342406
-0.0338863
-0.0332937
-0.032411
-0.031205
-0.0296591
-0.0277658
-0.0255209
-0.0229341
-0.0200728
-0.0169355
-0.0416116
-0.039309
-0.036938
-0.0349571
-0.033431
-0.0322572
-0.0313654
-0.0307017
-0.0302133
-0.0298456
-0.0295428
-0.0292474
-0.0288998
-0.0284401
-0.0278136
-0.0269777
-0.0259037
-0.0245755
-0.0229834
-0.021119
-0.0189838
-0.0166265
-0.0140444
-0.0369362
-0.0349053
-0.0328337
-0.0310957
-0.0297117
-0.0285822
-0.0276492
-0.0268758
-0.0262294
-0.0256785
-0.0251906
-0.0247291
-0.0242485
-0.0236992
-0.023036
-0.0222248
-0.0212431
-0.0200778
-0.0187197
-0.0171591
-0.0153927
-0.0134555
-0.0113433
-0.0325348
-0.0307613
-0.0289681
-0.0274564
-0.0262153
-0.0251478
-0.0242057
-0.0233652
-0.022611
-0.0219318
-0.0213158
-0.0207452
-0.0201833
-0.0195825
-0.0189049
-0.0181235
-0.0172227
-0.0161938
-0.01503
-0.0137222
-0.0122652
-0.0106843
-0.00897452
-0.0283134
-0.026784
-0.0252455
-0.0239416
-0.0228406
-0.0218483
-0.0209237
-0.0200531
-0.0192355
-0.0184776
-0.0177888
-0.0171725
-0.0165931
-0.0159949
-0.0153414
-0.0146128
-0.0138007
-0.0129016
-0.0119121
-0.0108254
-0.00963622
-0.00836329
-0.00700123
-0.0241972
-0.0228972
-0.0215902
-0.0204775
-0.0195132
-0.0186068
-0.0177218
-0.0168514
-0.0160053
-0.0152077
-0.014492
-0.0138955
-0.0133724
-0.0128394
-0.0122573
-0.0116139
-0.0109089
-0.010145
-0.00932297
-0.00843894
-0.00748878
-0.00648653
-0.00542671
-0.0201233
-0.0190361
-0.0179406
-0.0170073
-0.0161801
-0.0153713
-0.0145457
-0.013699
-0.0128483
-0.0120339
-0.0113197
-0.0108124
-0.0104322
-0.0100314
-0.00956985
-0.00904609
-0.00847051
-0.00785324
-0.00719961
-0.00650864
-0.00577743
-0.00501622
-0.00421924
-0.0160309
-0.0151406
-0.0142436
-0.0134901
-0.0128103
-0.0121154
-0.0113677
-0.0105605
-0.00971011
-0.00886802
-0.00814732
-0.00782065
-0.00771246
-0.00751966
-0.00722116
-0.00684447
-0.0064173
-0.00595815
-0.00547641
-0.00497316
-0.00444577
-0.0039004
-0.0033309
-0.0118553
-0.0111614
-0.0104741
-0.00992873
-0.00942429
-0.00886337
-0.00820243
-0.00742338
-0.0065179
-0.0055219
-0.0046627
-0.00466931
-0.00515167
-0.00529767
-0.00519356
-0.00497244
-0.00470013
-0.00440359
-0.00409393
-0.003772
-0.00343371
-0.00308014
-0.00270514
-0.00751816
-0.00707917
-0.00667142
-0.00640118
-0.00611022
-0.00569637
-0.0051111
-0.0043147
-0.00322966
-0.00175234
-0.000164535
-0.000774004
-0.00263834
-0.00335254
-0.00346068
-0.00338516
-0.0032642
-0.00313114
-0.00299405
-0.00284969
-0.0026898
-0.00250837
-0.00229268
-0.00301941
-0.00284175
-0.00274779
-0.00271894
-0.00262036
-0.00238615
-0.00197823
-0.00135037
-0.000379607
0.00128604
0.00403057
0.00361761
0.000146063
-0.00109081
-0.00148213
-0.00166453
-0.00180995
-0.00195246
-0.00209337
-0.00222052
-0.00231677
-0.00236616
-0.00235071
868.789
856.044
844.341
826.99
875.43
869.582
867.242
861.762
854.864
912.62
923.514
906.05
350.863
429.326
539.248
314.15
331.761
320.425
304.53
293.928
655.36
656.737
655.616
653.984
273.624
322.885
304.975
232.773
6.8785
8.40718
12.0518
15.5894
24.5944
40.9494
41.5378
40.4372
36.2443
42.5041
41.8828
31.3842
-0.0548101
0.615149
3.58649
-0.0404517
0.00946762
0.0204391
0.0195841
0.0267275
-0.0356225
-0.0253001
-0.0171735
-0.00913052
-0.0513271
-0.0364902
-0.0235641
-0.011622
-0.0576214
-0.0399963
-0.0234886
-0.00829256
-0.0570328
-0.0382417
-0.0194741
-0.00210743
-0.0511573
-0.0319199
-0.0121358
0.00600689
-0.0430698
-0.0241272
-0.00435902
0.0136313
-0.0347699
-0.0167311
0.00220154
0.0193011
-0.0277317
-0.0110688
0.00647643
0.0222428
-0.0226654
-0.00763999
0.00825214
0.0225154
-0.0195043
-0.00617759
0.00800291
0.0207614
-0.0178126
-0.0061137
0.00642279
0.0177603
-0.0172119
-0.00700618
0.00403032
0.0140865
-0.0174317
-0.00856708
0.00114453
0.0100858
-0.018153
-0.0104878
-0.00194404
0.00602764
-0.0189381
-0.0123538
-0.00487056
0.00221755
-0.0193298
-0.0137286
-0.007248
-0.00101947
-0.0190105
-0.0143055
-0.00879281
-0.00343187
-0.0178936
-0.0139982
-0.00941118
-0.00491848
-0.0161064
-0.0129286
-0.00919866
-0.00554094
-0.0139029
-0.0113452
-0.00837625
-0.00548056
-0.0115653
-0.00952967
-0.00720845
-0.00497243
-0.00933113
-0.00772573
-0.00593618
-0.00424497
-0.00735768
-0.00610243
-0.00473778
-0.00347983
-0.00572042
-0.00474911
-0.00371884
-0.00279638
-0.00443208
-0.0036914
-0.00292279
-0.00225587
-0.00346799
-0.00291496
-0.00235094
-0.00187615
-0.00278565
-0.00238488
-0.00197994
-0.00164561
-0.00233972
-0.00206375
-0.00177907
-0.0015362
-0.00204875
-0.00185888
-0.00165562
-0.0014707
-0.00224875
-0.002155
-0.0020422
-0.00192145
795.616
737.965
422.273
231.447
358.445
573.633
577.901
393.675
138.494
392.163
395.388
315.07
115.065
97.4208
104.963
144.033
200.027
207.443
144.075
843.42
687.574
219.362
210.816
203.365
571.901
612.232
243.659
91.261
252.473
416.419
360.256
110.079
88.0053
96.3687
193.541
205.072
214.02
140.998
660.935
276.937
203.453
203.149
190.07
588.465
520.755
138.511
67.5319
107.092
225.214
208.273
81.3191
69.5931
141.229
205.728
211.158
220.052
161.421
214.53
196.92
198.183
191.922
313.358
445.87
100.753
42.1157
56.7819
53.0516
40.6672
44.6267
34.8136
51.6545
204.119
213.395
217.374
223.659
234.564
284.995
263.686
256.395
454.853
417.794
96.2334
33.0664
36.8961
82.5763
71.6017
34.3003
28.1205
24.8389
52.2769
209.601
222.864
210.514
225.82
236.195
654.81
652.408
647.646
544.018
267.635
31.0858
31.3315
41.0927
84.9808
84.5668
83.278
34.91
18.2158
39.0944
145.436
130.599
73.0772
179.175
240.282
148.474
78.3262
30.4057
27.104
31.3792
32.7989
30.052
64.1111
82.6166
84.3532
82.5584
52.6541
11.2694
11.9538
6.23131
2.56532
2.15144
62.2677
252.496
18.2903
20.7514
29.9997
37.0306
34.0069
47.7034
44.2314
10.1083
20.8686
20.2032
3.5251
9.11973
7.41382
1.13964
1.40815
1.68044
1.04791
15.4409
168.242
18.2048
27.6694
36.0619
36.1293
44.0275
47.6767
37.1079
0.549987
0.271151
0.507855
0.513454
0.447299
1.09169
0.747766
1.46809
1.54183
0.814142
2.65343
5.3711
14.3148
5.71612
2.15097
0.220401
9.86854
2.83796
0.1357
0.277171
0.254333
0.689426
1.88137
1.85638
1.21794
0.554493
0.828926
0.667393
0.588055
0.702996
0.80763
-0.0722217
-0.0259796
0.0124618
0.0308007
0.0459054
0.139069
0.177983
0.225404
0.198645
1.02965
1.49981
0.749217
0.511704
0.353731
0.424231
0.519635
0.569053
0.560251
0.674027
0.0288872
0.040769
0.0507785
0.059582
0.130297
0.203509
0.227525
0.165727
0.150409
0.138539
0.135637
0.160038
0.230793
0.314049
0.394337
0.915299
1.08888
1.01446
0.58504
0.0117726
0.034613
0.052628
0.0753386
0.189705
0.218916
0.235809
0.162051
0.157119
0.156707
0.161984
0.182293
0.220583
0.462906
1.05692
1.08052
1.08856
0.839391
0.337028
0.00996842
0.0380889
0.0624987
0.0851655
0.115902
0.197858
0.204842
0.172267
0.173229
0.176862
0.184527
0.198549
0.223258
0.616478
1.05373
1.07829
0.425095
0.337849
0.330505
0.0156765
0.0461687
0.0734311
0.0978846
0.11999
0.147754
0.231142
0.265924
0.260011
0.190686
0.19709
0.203581
0.248139
0.376795
0.407528
0.292192
0.272838
0.398543
0.681335
0.0237135
0.0548498
0.0828842
0.107879
0.130826
0.21971
0.26455
0.2758
0.284064
0.291198
0.250916
0.199715
0.203856
0.202208
0.200432
0.205478
0.230728
0.591148
0.664915
0.0317327
0.0618522
0.0891235
0.11339
0.13432
0.177876
0.223109
0.239941
0.271781
0.287182
0.251861
0.187813
0.185768
0.18181
0.178413
0.176185
0.176118
0.37197
0.649079
0.0382219
0.0662864
0.0917534
0.114304
0.133257
0.147641
0.157895
0.165208
0.169623
0.175733
0.180608
0.176302
0.167793
0.16558
0.159525
0.148793
0.143846
0.20696
0.639388
0.0420839
0.0675926
0.0907663
0.111214
0.128209
0.141183
0.150314
0.157277
0.162296
0.159453
0.156823
0.153104
0.152635
0.145558
0.137399
0.125713
0.120156
0.194788
0.636985
0.0429184
0.0657329
0.0865136
0.104863
0.120066
0.131691
0.139684
0.14472
0.1498
0.148384
0.14108
0.134557
0.128444
0.122144
0.113397
0.106302
0.101849
0.490456
0.641283
0.0410722
0.0612911
0.0797751
0.0961669
0.10975
0.120122
0.127111
0.130751
0.132567
0.132984
0.126027
0.118445
0.111318
0.10396
0.0970032
0.0906329
0.0850852
0.640223
0.651225
0.0373227
0.0551785
0.071566
0.0861711
0.0983029
0.107572
0.113748
0.116794
0.117331
0.114904
0.110754
0.104749
0.0976717
0.0910624
0.0850174
0.0795148
0.0744484
0.453271
0.664204
0.0324884
0.0482596
0.0627929
0.0758036
0.0866394
0.0949486
0.100501
0.103223
0.103338
0.101578
0.0976385
0.0920736
0.0864797
0.0812191
0.076777
0.0733583
0.0713208
0.0756485
0.46936
0.0271757
0.0411375
0.0540581
0.0656754
0.0753846
0.0828815
0.0879707
0.0905846
0.0908516
0.0892099
0.0862374
0.0821232
0.07774
0.0740298
0.0715084
0.0707381
0.0730095
0.153411
0.233537
0.0217544
0.034153
0.045676
0.056091
0.0648504
0.0716947
0.0764729
0.0791395
0.079814
0.0788119
0.076609
0.0737808
0.070957
0.0687972
0.0679803
0.0692393
0.0737077
0.551053
0.585227
0.0164712
0.0275048
0.037803
0.047178
0.0551484
0.0614909
0.0660937
0.0689352
0.0701274
0.0699406
0.0687863
0.0671746
0.0656759
0.0648953
0.0654351
0.0679022
0.0728745
0.586284
0.60257
0.0115584
0.021364
0.0305603
0.0390152
0.0463174
0.0522726
0.0567988
0.0598906
0.0616468
0.06229
0.0621639
0.0617033
0.0614054
0.0618131
0.0634762
0.0669433
0.0726815
0.603546
0.541426
0.00725604
0.0159116
0.0240833
0.0316924
0.0383952
0.0440238
0.0485163
0.0518735
0.0541729
0.0555895
0.0563981
0.0569542
0.057679
0.0590496
0.0615824
0.0657717
0.187586
0.638784
0.383176
0.00376278
0.0113086
0.0185019
0.0253026
0.0314275
0.0367357
0.0411776
0.0447512
0.0475098
0.0495822
0.0511764
0.0525695
0.0541019
0.056179
0.0592531
0.0636276
0.281831
0.660097
0.39341
0.00117753
0.0076452
0.0138938
0.019903
0.0254415
0.0303948
0.0347212
0.038412
0.0414975
0.0440649
0.0462642
0.0482919
0.0504099
0.0529668
0.0563509
0.0607995
0.246166
0.680549
0.411903
-0.000524245
0.00491131
0.0102528
0.0154843
0.0204173
0.0249616
0.0290818
0.0327637
0.0360191
0.0389037
0.0415016
0.043949
0.0464491
0.0493065
0.052855
0.057541
0.246923
0.697953
0.327774
-0.00147223
0.00300152
0.00748666
0.0119632
0.0162772
0.0203589
0.0241797
0.0277232
0.0309892
0.0340038
0.0368062
0.0394844
0.0422012
0.0450902
0.0485211
0.0528767
0.514659
0.710626
0.235121
-0.00185777
0.00174733
0.00544284
0.00920183
0.0128974
0.0164769
0.0199185
0.0232085
0.026342
0.0293262
0.0321757
0.0349362
0.037639
0.0403565
0.0433179
0.0465144
0.674471
0.721048
0.152894
-0.00188501
0.000959504
0.00394498
0.00703795
0.0101328
0.0131897
0.0161932
0.0191366
0.0220199
0.0248532
0.0276364
0.0303497
0.032936
0.0354289
0.0378595
0.0398317
0.64752
0.314245
0.0739535
-0.00173215
0.000464946
0.00282685
0.00531558
0.00784193
0.0103744
0.012902
0.0154301
0.0179757
0.020559
0.023195
0.0258253
0.028367
0.03155
0.0330895
0.0348344
0.193202
0.165548
0.0677533
-0.00153015
0.000129402
0.00195516
0.00390689
0.00590749
0.00792835
0.00995847
0.012008
0.0141177
0.0163724
0.0188345
0.0214068
0.0328961
0.0338867
0.035641
0.0530258
0.0358896
0.0468355
0.0598626
-0.00135885
-0.000135023
0.00123957
0.00272378
0.00424834
0.00578122
0.0073023
0.00881737
0.0103879
0.0122352
0.0144931
0.0275838
0.0379236
0.0404027
0.0428139
0.0372225
0.0329097
0.042772
0.0540579
-0.00125398
-0.000371941
0.000634196
0.0017224
0.00282673
0.00390515
0.00491669
0.00584764
0.00676192
0.00810497
0.010159
0.0260838
0.0338741
0.0362863
0.0381644
0.028469
0.0286245
0.0375853
0.0477673
-0.00121447
-0.000582251
0.000140215
0.000910115
0.00166157
0.00233716
0.00285912
0.0031385
0.00313593
0.00375416
0.00688406
0.0111275
0.0133712
0.0155872
0.0170985
0.0192347
0.0235853
0.0315673
0.0407809
-0.00120462
-0.000724851
-0.000192672
0.000350291
0.000838781
0.00119983
0.00127844
0.000708729
-0.00105268
-0.00184345
0.000794919
0.00347908
0.00608063
0.00858057
0.0110795
0.0138555
0.0178331
0.0247084
0.0327947
-0.00120436
-0.000789491
-0.000346775
7.73905e-05
0.000422836
0.000607022
0.000330958
-0.0014962
-0.00702476
-0.0102861
-0.005734
-0.00169292
0.00151548
0.00431787
0.00681706
0.00905041
0.0116282
0.0167047
0.0236157
-0.00171728
-0.00134786
-0.000943791
-0.000557111
-0.000256602
-0.000158719
-0.000682378
-0.00351491
-0.0131138
-0.0144845
-0.00852589
-0.00447523
-0.00163931
0.000693569
0.00264043
0.00412488
0.00532098
0.00767758
0.0135312
)
;

boundaryField
{
    leftWall
    {
        type            fixedFluxPressure;
        gradient        uniform 0;
        value           nonuniform List<scalar> 
50
(
1115.95
1116.49
1118.12
1120.75
1124.5
1129.25
1134.87
1141.3
1152.52
1171.09
1193.16
1218.44
1245.81
1274.23
720.369
17.0458
0.306993
0.0323827
-0.0414072
-0.0916107
-0.13464
-0.164422
-0.179231
-0.183226
-0.180585
-0.173933
-0.164629
-0.153673
-0.141974
-0.130273
-0.11906
-0.10854
-0.0986999
-0.0894554
-0.0807672
-0.0726619
-0.0651914
-0.0583862
-0.0522326
-0.0466725
-0.0416116
-0.0369362
-0.0325348
-0.0283134
-0.0241972
-0.0201233
-0.0160309
-0.0118553
-0.00751816
-0.00301941
)
;
    }
    rightWall
    {
        type            fixedFluxPressure;
        gradient        uniform 0;
        value           nonuniform List<scalar> 
50
(
383.396
383.708
382.479
376.403
264.446
144.366
143.832
143.136
144.075
140.998
161.421
234.564
236.195
240.282
252.496
168.242
5.3711
0.80763
0.674027
0.58504
0.337028
0.330505
0.681335
0.664915
0.649079
0.639388
0.636985
0.641283
0.651225
0.664204
0.46936
0.233537
0.585227
0.60257
0.541426
0.383176
0.39341
0.411903
0.327774
0.235121
0.152894
0.0739535
0.0677533
0.0598626
0.0540579
0.0477673
0.0407809
0.0327947
0.0236157
0.0135312
)
;
    }
    lowerWall
    {
        type            fixedFluxPressure;
        gradient        uniform 0;
        value           nonuniform List<scalar> 
62
(
1115.95
1110.95
1102.72
1090.68
1075.3
1057.04
1036.52
1014.57
992.276
970.949
952.147
937.422
927.572
924.001
926.363
933.678
944.918
958.132
969.116
970.726
960.103
944.358
937.599
937.599
936.29
934.029
930.933
927.123
922.875
917.803
907.492
868.789
856.044
844.341
826.99
643.703
644.422
651.799
664.608
680.882
699.826
720.523
747.873
643.703
622.404
588.12
529.666
504.025
515.045
536.977
541.893
521.595
506.555
491.46
476.484
458.935
439.998
421.975
406.437
394.812
386.668
383.396
)
;
    }
    atmosphere
    {
        type            totalPressure;
        rho             rho;
        psi             none;
        gamma           1;
        p0              uniform 0;
        value           nonuniform List<scalar> 
46
(
0
0
0
0
0
0
0
0
0
0
0
-9.10261e-06
-7.12479e-05
-0.000209587
-0.000420141
-0.000693655
-0.00101575
-0.00136672
-0.00172269
-0.00205731
-0.00234419
-0.0025602
-0.0026892
-0.00271441
-0.00269751
-0.00264514
-0.00255773
-0.00236319
-0.00201729
-0.00161345
-0.00118576
-0.000781064
-0.00044469
-0.000206132
-6.52333e-05
-8.76729e-07
0
0
0
0
0
0
0
0
0
0
)
;
    }
    defaultFaces
    {
        type            empty;
    }
}


// ************************************************************************* //
