/*--------------------------------*- C++ -*----------------------------------*\
| =========                 |                                                 |
| \\      /  F ield         | OpenFOAM: The Open Source CFD Toolbox           |
|  \\    /   O peration     | Version:  2.3.0                                 |
|   \\  /    A nd           | Web:      www.OpenFOAM.org                      |
|    \\/     M anipulation  |                                                 |
\*---------------------------------------------------------------------------*/
FoamFile
{
    version     2.0;
    format      ascii;
    class       volVectorField;
    location    "1.1";
    object      U;
}
// * * * * * * * * * * * * * * * * * * * * * * * * * * * * * * * * * * * * * //

dimensions      [0 1 -1 0 0 0 0];

internalField   nonuniform List<vector> 
2268
(
(0.0245286 -0.0114491 0)
(0.0415312 0.000367665 0)
(0.0291369 0.0044595 0)
(0.017013 0.00508836 0)
(0.0035989 0.00504547 0)
(-0.00828 0.00452054 0)
(-0.0176653 0.00354343 0)
(-0.0240726 0.00234469 0)
(-0.0281935 0.00135374 0)
(-0.031952 0.00118439 0)
(-0.0382909 0.00223462 0)
(-0.0503546 0.00426802 0)
(-0.0701082 0.00736704 0)
(-0.0990007 0.0103578 0)
(-0.134534 0.0114343 0)
(-0.169534 0.00942314 0)
(-0.191886 0.00244765 0)
(-0.184899 -0.00913383 0)
(-0.141881 -0.0217107 0)
(-0.0724599 -0.0297816 0)
(0.00372003 -0.0270908 0)
(0.0598785 -0.00707333 0)
(0.0556454 0.0158199 0)
(0.00938955 -0.0225665 0)
(0.0182064 0.000638118 0)
(0.00573956 0.00817982 0)
(-0.00627412 0.00958565 0)
(-0.0183909 0.00897426 0)
(-0.0275981 0.00729384 0)
(-0.0335363 0.00516058 0)
(-0.0368257 0.00330354 0)
(-0.0390728 0.00254452 0)
(-0.0425839 0.00367923 0)
(-0.0500841 0.00706593 0)
(-0.0639581 0.0121369 0)
(-0.0854241 0.0184265 0)
(-0.114534 0.0240075 0)
(-0.148916 0.0258647 0)
(-0.181873 0.0209182 0)
(-0.201914 0.00615795 0)
(-0.197368 -0.0168578 0)
(-0.162811 -0.0406483 0)
(-0.104016 -0.0549472 0)
(-0.0373776 -0.0492934 0)
(0.0157023 -0.0170991 0)
(0.0417405 0.0361573 0)
(-0.00105252 -0.024934 0)
(0.00257379 0.00301588 0)
(-0.0090291 0.012956 0)
(-0.0194869 0.0146458 0)
(-0.0293647 0.0130912 0)
(-0.0363976 0.0100237 0)
(-0.0405739 0.00668007 0)
(-0.0427822 0.00422603 0)
(-0.0446622 0.00377848 0)
(-0.0483775 0.00630124 0)
(-0.0564402 0.0120963 0)
(-0.0708604 0.0202661 0)
(-0.0925482 0.02974 0)
(-0.121285 0.0378804 0)
(-0.154978 0.0405256 0)
(-0.188246 0.0327775 0)
(-0.210832 0.0103836 0)
(-0.210507 -0.0240787 0)
(-0.181459 -0.0593812 0)
(-0.129074 -0.0808892 0)
(-0.0677675 -0.0748969 0)
(-0.0157114 -0.0345901 0)
(0.0152556 0.0424813 0)
(-0.00758124 -0.023262 0)
(-0.0082994 0.00609885 0)
(-0.0189426 0.0173921 0)
(-0.0281143 0.0190685 0)
(-0.0361666 0.0165754 0)
(-0.0416032 0.0122769 0)
(-0.0446282 0.00793785 0)
(-0.0462092 0.00509091 0)
(-0.047915 0.00511101 0)
(-0.0517955 0.00915109 0)
(-0.0603308 0.0174991 0)
(-0.0753975 0.0288656 0)
(-0.0977936 0.0416656 0)
(-0.127372 0.0525886 0)
(-0.162437 0.056436 0)
(-0.19838 0.046456 0)
(-0.224849 0.0164877 0)
(-0.228315 -0.0300255 0)
(-0.202698 -0.0775922 0)
(-0.15356 -0.107085 0)
(-0.094184 -0.101667 0)
(-0.0407698 -0.0542304 0)
(-0.00583074 0.0365821 0)
(-0.0115679 -0.0186851 0)
(-0.0158187 0.0101828 0)
(-0.0257933 0.0215499 0)
(-0.0338833 0.0228548 0)
(-0.040386 0.0194066 0)
(-0.0444729 0.0140084 0)
(-0.0465316 0.00885539 0)
(-0.0475748 0.00579457 0)
(-0.049094 0.00643998 0)
(-0.0530845 0.0121661 0)
(-0.0621723 0.023273 0)
(-0.0782747 0.038009 0)
(-0.102183 0.0543528 0)
(-0.133935 0.0684066 0)
(-0.172253 0.0740145 0)
(-0.212943 0.0622865 0)
(-0.244471 0.0244503 0)
(-0.25104 -0.0348159 0)
(-0.226737 -0.0950807 0)
(-0.17842 -0.1329 0)
(-0.11872 -0.129082 0)
(-0.0619005 -0.0772015 0)
(-0.0188706 0.0218047 0)
(-0.014095 -0.012059 0)
(-0.0208513 0.0148887 0)
(-0.0302352 0.0254446 0)
(-0.0372885 0.0260405 0)
(-0.0423635 0.0216075 0)
(-0.0451862 0.0152262 0)
(-0.046326 0.00942853 0)
(-0.0468515 0.00631718 0)
(-0.0481814 0.00772538 0)
(-0.0523011 0.0153142 0)
(-0.0621545 0.0294547 0)
(-0.0798542 0.0478566 0)
(-0.106248 0.0681324 0)
(-0.141578 0.0858599 0)
(-0.18497 0.0939143 0)
(-0.232291 0.0807385 0)
(-0.269611 0.0342025 0)
(-0.277694 -0.0388685 0)
(-0.252332 -0.111677 0)
(-0.203778 -0.158447 0)
(-0.142945 -0.157361 0)
(-0.0826415 -0.103592 0)
(-0.0279217 0.0020102 0)
(-0.015675 -0.00409595 0)
(-0.0238636 0.0199194 0)
(-0.0325093 0.0290249 0)
(-0.0384474 0.0286366 0)
(-0.0421184 0.0231906 0)
(-0.0436959 0.0159353 0)
(-0.0439461 0.0096623 0)
(-0.0440137 0.00666637 0)
(-0.045233 0.00898364 0)
(-0.0495999 0.0186711 0)
(-0.0605404 0.0362757 0)
(-0.0805239 0.0588631 0)
(-0.110495 0.0837022 0)
(-0.150859 0.10585 0)
(-0.201095 0.117113 0)
(-0.256617 0.102563 0)
(-0.299736 0.0459474 0)
(-0.307681 -0.0421101 0)
(-0.280226 -0.128501 0)
(-0.229975 -0.185287 0)
(-0.16842 -0.186372 0)
(-0.106758 -0.133675 0)
(-0.0405273 -0.0223363 0)
(-0.0164983 0.0046124 0)
(-0.0250644 0.0249295 0)
(-0.0327404 0.0320948 0)
(-0.037473 0.0305047 0)
(-0.0397696 0.0240438 0)
(-0.0401594 0.0160567 0)
(-0.0396289 0.00954115 0)
(-0.039408 0.0069128 0)
(-0.0407016 0.0103676 0)
(-0.0454953 0.022544 0)
(-0.0578524 0.0443828 0)
(-0.0807952 0.0719721 0)
(-0.115428 0.102183 0)
(-0.162199 0.129491 0)
(-0.220793 0.144539 0)
(-0.285389 0.128162 0)
(-0.333494 0.0605327 0)
(-0.343651 -0.0457012 0)
(-0.310611 -0.149355 0)
(-0.256808 -0.212772 0)
(-0.196135 -0.216022 0)
(-0.133505 -0.169099 0)
(-0.0631543 -0.0754439 0)
(0.0811118 -0.0431084 0)
(0.0913152 0.0247233 0)
(-0.113472 0.0501814 0)
(-0.276772 0.0406106 0)
(-0.360444 0.00116224 0)
(-0.315515 -0.032686 0)
(-0.205988 -0.0450775 0)
(-0.0839262 -0.0442266 0)
(-0.00361963 -0.0204998 0)
(0.0288011 -0.0108636 0)
(0.0522782 -0.0063126 0)
(0.0700951 -0.00562785 0)
(0.0830389 -0.00340808 0)
(0.0812995 0.00331978 0)
(0.0547281 0.00909519 0)
(0.019175 0.00641085 0)
(0.00519903 -0.00135223 0)
(0.0100401 -0.00800872 0)
(0.0426636 0.00718707 0)
(0.00196928 -0.0455752 0)
(0.00034779 0.0697989 0)
(-0.172209 0.103264 0)
(-0.296842 0.0841572 0)
(-0.351613 0.0155301 0)
(-0.302092 -0.0472707 0)
(-0.17789 -0.073485 0)
(-0.0547648 -0.0678109 0)
(0.0167533 -0.033545 0)
(0.0450796 -0.0202379 0)
(0.0668186 -0.0149664 0)
(0.0855326 -0.010869 0)
(0.0931648 -0.00311717 0)
(0.0848417 0.0100389 0)
(0.0571038 0.021369 0)
(0.0201129 0.0183956 0)
(-0.00194506 0.00407109 0)
(-0.00838515 -0.00942105 0)
(0.0195702 0.0149909 0)
(-0.0400277 -0.0309684 0)
(-0.054296 0.100715 0)
(-0.164202 0.144576 0)
(-0.262125 0.12423 0)
(-0.333192 0.0239922 0)
(-0.272326 -0.0871689 0)
(-0.140178 -0.134697 0)
(-0.0156396 -0.104349 0)
(0.0486511 -0.0430679 0)
(0.0665383 -0.0264847 0)
(0.0835691 -0.0230613 0)
(0.0993324 -0.015503 0)
(0.101917 -0.00153194 0)
(0.087978 0.0181806 0)
(0.0580859 0.0345868 0)
(0.0208121 0.0312953 0)
(-0.00472277 0.0110023 0)
(-0.0177623 -0.00910465 0)
(-0.0107453 0.0111075 0)
(-0.058498 -0.00725421 0)
(-0.0703026 0.123178 0)
(-0.14083 0.177373 0)
(-0.230258 0.169537 0)
(-0.300016 0.0215715 0)
(-0.215894 -0.140371 0)
(-0.106185 -0.191584 0)
(0.00409949 -0.161844 0)
(0.079975 -0.0580174 0)
(0.0930069 -0.0285218 0)
(0.104893 -0.0286327 0)
(0.117198 -0.0188023 0)
(0.113916 0.00242889 0)
(0.0935625 0.02886 0)
(0.0600983 0.0494244 0)
(0.0219563 0.0447645 0)
(-0.0049654 0.0189054 0)
(-0.0216425 -0.00671993 0)
(-0.0289289 -0.0008686 0)
(-0.06257 0.0191546 0)
(-0.0667515 0.137721 0)
(-0.114773 0.20338 0)
(-0.198416 0.207634 0)
(-0.245409 0.00432905 0)
(-0.164591 -0.174716 0)
(-0.0760935 -0.228431 0)
(0.00920257 -0.195422 0)
(0.0808917 -0.0938455 0)
(0.119459 -0.0305433 0)
(0.131569 -0.0311714 0)
(0.139844 -0.0189616 0)
(0.129546 0.00931819 0)
(0.100813 0.0412633 0)
(0.0619971 0.0634131 0)
(0.0218731 0.0562649 0)
(-0.00425644 0.0270603 0)
(-0.0183266 -0.00275297 0)
(-0.0288354 -0.0133451 0)
(-0.0600725 0.0429486 0)
(-0.0565355 0.144212 0)
(-0.0812084 0.225225 0)
(-0.151421 0.246147 0)
(-0.184086 -0.00698469 0)
(-0.115001 -0.203236 0)
(-0.0430292 -0.260714 0)
(0.0247261 -0.219585 0)
(0.0702087 -0.114192 0)
(0.115193 -0.0502715 0)
(0.16495 -0.0340291 0)
(0.168953 -0.0151281 0)
(0.149141 0.0183021 0)
(0.109456 0.0535043 0)
(0.0609264 0.0775373 0)
(0.0115949 0.0712769 0)
(-0.0128039 0.0383122 0)
(-0.00801065 0.0023405 0)
(-0.00169139 -0.00988363 0)
(-0.0565349 0.0640452 0)
(-0.0501141 0.146358 0)
(-0.0544709 0.241014 0)
(-0.0967323 0.279694 0)
(-0.118436 -0.0213171 0)
(-0.0632418 -0.229819 0)
(-0.00469138 -0.288616 0)
(0.0479632 -0.240113 0)
(0.0653788 -0.124914 0)
(0.103679 -0.078578 0)
(0.18897 -0.0614824 0)
(0.21593 -0.00975094 0)
(0.180128 0.0323761 0)
(0.118601 0.0705795 0)
(0.040248 0.102444 0)
(-0.0550491 0.098275 0)
(-0.0530463 0.0312367 0)
(0.0129199 -0.0166413 0)
(0.0489503 -0.00775445 0)
(-0.0565008 0.0859685 0)
(-0.0464827 0.147396 0)
(-0.0472187 0.244285 0)
(-0.050101 0.288786 0)
(-0.0530727 -0.0345537 0)
(-0.00964629 -0.250498 0)
(0.0376457 -0.309689 0)
(0.0729831 -0.253745 0)
(0.073298 -0.130896 0)
(0.105927 -0.104807 0)
(0.182814 -0.0951034 0)
(0.26877 -0.0241324 0)
(0.242947 0.0647971 0)
(0.128465 0.116443 0)
(-0.036807 0.171493 0)
(-0.0970297 0.108851 0)
(-0.0253147 0.000729436 0)
(0.0396857 -0.0469872 0)
(0.070149 0.0211843 0)
(-0.016743 0.0181829 0)
(-0.0245547 0.0322428 0)
(-0.0306269 0.0357231 0)
(-0.0336523 0.031934 0)
(-0.0341783 0.0239182 0)
(-0.0331492 0.0150707 0)
(-0.0319029 0.00865324 0)
(-0.031771 0.00714176 0)
(-0.0335895 0.0128788 0)
(-0.0391883 0.0298568 0)
(-0.0538853 0.0601067 0)
(-0.0819398 0.0965561 0)
(-0.124828 0.134947 0)
(-0.182851 0.169298 0)
(-0.256039 0.190054 0)
(-0.336413 0.175642 0)
(-0.397519 0.0898165 0)
(-0.408033 -0.0642523 0)
(-0.357091 -0.190097 0)
(-0.30081 -0.256638 0)
(-0.242503 -0.264326 0)
(-0.178849 -0.223314 0)
(-0.110932 -0.147872 0)
(-0.0150233 0.0354452 0)
(-0.0213876 0.0414447 0)
(-0.0264549 0.0398918 0)
(-0.0290204 0.0330472 0)
(-0.029609 0.0231774 0)
(-0.0293045 0.013744 0)
(-0.0296621 0.00818744 0)
(-0.0318672 0.0086164 0)
(-0.035425 0.0169252 0)
(-0.0413039 0.0385086 0)
(-0.0579194 0.0778405 0)
(-0.0911089 0.124258 0)
(-0.14352 0.178582 0)
(-0.216322 0.228967 0)
(-0.310792 0.265961 0)
(-0.41723 0.254714 0)
(-0.475196 0.0956434 0)
(-0.44855 -0.103719 0)
(-0.403195 -0.238225 0)
(-0.356084 -0.311097 0)
(-0.308084 -0.323312 0)
(-0.25844 -0.278554 0)
(-0.215948 -0.188675 0)
(-0.0120076 0.05021 0)
(-0.0176277 0.0493468 0)
(-0.0231125 0.0440022 0)
(-0.0273359 0.0349538 0)
(-0.0306614 0.0239798 0)
(-0.0339518 0.0146315 0)
(-0.0386756 0.0103964 0)
(-0.0457177 0.0119535 0)
(-0.054069 0.0199825 0)
(-0.0638552 0.0427698 0)
(-0.0703781 0.103136 0)
(-0.104405 0.173444 0)
(-0.168604 0.245497 0)
(-0.248586 0.312072 0)
(-0.354623 0.372105 0)
(-0.435498 0.323121 0)
(-0.433636 0.082494 0)
(-0.414305 -0.127478 0)
(-0.401344 -0.270055 0)
(-0.379425 -0.346501 0)
(-0.353336 -0.361577 0)
(-0.323349 -0.31626 0)
(-0.292436 -0.21514 0)
(-0.0081291 0.0624509 0)
(-0.014993 0.0573173 0)
(-0.0225873 0.0502437 0)
(-0.0309038 0.0407059 0)
(-0.0402015 0.0299982 0)
(-0.0510221 0.0214388 0)
(-0.064906 0.0188608 0)
(-0.0815755 0.0234212 0)
(-0.0976248 0.0377623 0)
(-0.13185 0.0597899 0)
(-0.169398 0.133178 0)
(-0.167814 0.243949 0)
(-0.208048 0.349693 0)
(-0.260611 0.444665 0)
(-0.293181 0.506727 0)
(-0.297224 0.398273 0)
(-0.29614 0.102387 0)
(-0.319949 -0.127321 0)
(-0.356974 -0.276284 0)
(-0.371046 -0.35414 0)
(-0.369949 -0.375721 0)
(-0.359116 -0.344335 0)
(-0.335039 -0.254915 0)
(-0.00500099 0.0740455 0)
(-0.0158376 0.0680229 0)
(-0.0269632 0.0620526 0)
(-0.0415934 0.0549671 0)
(-0.0607391 0.046995 0)
(-0.085219 0.041596 0)
(-0.116709 0.0452511 0)
(-0.162875 0.0606885 0)
(-0.250583 0.0921898 0)
(-0.339549 0.111761 0)
(-0.381024 0.150715 0)
(-0.378571 0.234776 0)
(-0.340794 0.352922 0)
(-0.321109 0.42731 0)
(-0.267878 0.436931 0)
(-0.183024 0.34411 0)
(-0.115226 0.126293 0)
(-0.15461 -0.0737679 0)
(-0.285133 -0.244823 0)
(-0.342616 -0.341622 0)
(-0.363874 -0.372073 0)
(-0.362984 -0.352657 0)
(-0.340105 -0.28918 0)
(-0.00656758 0.0972073 0)
(-0.0204885 0.0869854 0)
(-0.035855 0.0831965 0)
(-0.0584486 0.0804024 0)
(-0.091946 0.0780217 0)
(-0.141465 0.0819963 0)
(-0.219762 0.107781 0)
(-0.34046 0.163846 0)
(-0.440483 0.187253 0)
(-0.509057 0.173033 0)
(-0.54917 0.16921 0)
(-0.567699 0.206926 0)
(-0.53187 0.299324 0)
(-0.455518 0.358786 0)
(-0.36723 0.335143 0)
(-0.266863 0.229158 0)
(-0.196022 0.10328 0)
(-0.17278 0.0230351 0)
(-0.196247 -0.0803408 0)
(-0.255296 -0.292441 0)
(-0.337707 -0.358641 0)
(-0.353746 -0.353941 0)
(-0.333166 -0.303369 0)
(-0.0239669 0.103713 0)
(-0.029793 0.0969359 0)
(-0.0488593 0.0975672 0)
(-0.0830651 0.102566 0)
(-0.145419 0.119453 0)
(-0.263944 0.160149 0)
(-0.431381 0.228783 0)
(-0.511277 0.260192 0)
(-0.56008 0.256424 0)
(-0.609334 0.226156 0)
(-0.655735 0.202178 0)
(-0.684361 0.208998 0)
(-0.687255 0.250372 0)
(-0.640086 0.276733 0)
(-0.555138 0.222477 0)
(-0.478459 0.118321 0)
(-0.421669 0.0318916 0)
(-0.349441 -0.0231493 0)
(-0.282026 -0.123718 0)
(-0.245853 -0.232928 0)
(-0.213774 -0.267695 0)
(-0.344455 -0.360434 0)
(-0.351783 -0.328965 0)
(-0.0727307 0.11293 0)
(-0.038811 0.0923972 0)
(-0.0704066 0.105045 0)
(-0.146954 0.131524 0)
(-0.328061 0.217762 0)
(-0.526057 0.336235 0)
(-0.560129 0.321647 0)
(-0.577226 0.305211 0)
(-0.597859 0.290788 0)
(-0.638369 0.264572 0)
(-0.692743 0.232679 0)
(-0.725018 0.219408 0)
(-0.72715 0.222466 0)
(-0.697037 0.201339 0)
(-0.645599 0.139644 0)
(-0.593553 0.0553479 0)
(-0.553127 -0.0206243 0)
(-0.50682 -0.103043 0)
(-0.435381 -0.227815 0)
(-0.384269 -0.302361 0)
(-0.338518 -0.291182 0)
(-0.281967 -0.241071 0)
(-0.347738 -0.337377 0)
(-0.0388593 0.205586 0)
(-0.0977641 0.124165 0)
(-0.227642 0.219033 0)
(-0.40475 0.405413 0)
(-0.537029 0.50101 0)
(-0.559891 0.422769 0)
(-0.555576 0.337959 0)
(-0.56331 0.308308 0)
(-0.574654 0.304032 0)
(-0.614892 0.300355 0)
(-0.685394 0.266436 0)
(-0.715019 0.236447 0)
(-0.70976 0.225572 0)
(-0.673516 0.195498 0)
(-0.628313 0.121111 0)
(-0.588818 0.029747 0)
(-0.553971 -0.0603513 0)
(-0.520688 -0.166048 0)
(-0.485485 -0.27695 0)
(-0.455127 -0.343844 0)
(-0.438529 -0.344164 0)
(-0.407556 -0.269879 0)
(-0.372713 -0.32764 0)
(-0.0534938 0.274676 0)
(-0.154335 0.290257 0)
(-0.289112 0.400192 0)
(-0.416678 0.522933 0)
(-0.464754 0.505523 0)
(-0.474877 0.404358 0)
(-0.484564 0.321407 0)
(-0.534658 0.307271 0)
(-0.568405 0.346163 0)
(-0.600974 0.410299 0)
(-0.635944 0.348186 0)
(-0.668802 0.248402 0)
(-0.674966 0.209791 0)
(-0.623968 0.174953 0)
(-0.558437 0.106167 0)
(-0.508951 0.0192626 0)
(-0.471033 -0.0572005 0)
(-0.441773 -0.156323 0)
(-0.446845 -0.284079 0)
(-0.451594 -0.357964 0)
(-0.458682 -0.366655 0)
(-0.426593 -0.317634 0)
(-0.347916 -0.350527 0)
(-0.0648293 0.362265 0)
(-0.147021 0.408435 0)
(-0.23668 0.489611 0)
(-0.297812 0.548128 0)
(-0.337565 0.497186 0)
(-0.356179 0.401084 0)
(-0.397237 0.363867 0)
(-0.445268 0.368553 0)
(-0.473943 0.396282 0)
(-0.483803 0.419948 0)
(-0.486242 0.378725 0)
(-0.497034 0.285053 0)
(-0.504754 0.17268 0)
(-0.491736 0.065229 0)
(-0.468093 -0.0199807 0)
(-0.445921 -0.0868897 0)
(-0.42739 -0.135653 0)
(-0.408823 -0.178891 0)
(-0.379071 -0.279928 0)
(-0.414999 -0.349706 0)
(-0.445101 -0.364627 0)
(-0.413008 -0.355196 0)
(-0.351117 -0.38845 0)
(-0.055712 0.447766 0)
(-0.107908 0.489387 0)
(-0.154266 0.543333 0)
(-0.176092 0.574276 0)
(-0.191651 0.529248 0)
(-0.216433 0.457754 0)
(-0.260322 0.417568 0)
(-0.30035 0.402112 0)
(-0.321713 0.399188 0)
(-0.321413 0.394289 0)
(-0.309666 0.352924 0)
(-0.305209 0.278129 0)
(-0.307265 0.186835 0)
(-0.30957 0.0942942 0)
(-0.312904 0.0124638 0)
(-0.316206 -0.0598183 0)
(-0.316532 -0.125182 0)
(-0.316153 -0.192213 0)
(-0.322329 -0.26427 0)
(-0.341201 -0.317629 0)
(-0.351833 -0.37019 0)
(-0.343216 -0.410749 0)
(-0.325478 -0.448329 0)
(-0.0379779 0.50806 0)
(-0.0637458 0.533787 0)
(-0.0828305 0.564929 0)
(-0.083154 0.58015 0)
(-0.0815702 0.549394 0)
(-0.0956442 0.495168 0)
(-0.123701 0.451861 0)
(-0.148322 0.424304 0)
(-0.159841 0.404709 0)
(-0.154893 0.381997 0)
(-0.140157 0.337865 0)
(-0.129204 0.270836 0)
(-0.127029 0.190146 0)
(-0.132401 0.104888 0)
(-0.143152 0.0234448 0)
(-0.155386 -0.0496185 0)
(-0.166133 -0.116792 0)
(-0.176879 -0.183127 0)
(-0.191793 -0.249345 0)
(-0.210314 -0.306699 0)
(-0.226328 -0.359773 0)
(-0.236908 -0.406368 0)
(-0.244272 -0.446278 0)
(-0.0192662 0.540972 0)
(-0.0252908 0.551611 0)
(-0.0276346 0.564612 0)
(-0.015286 0.569373 0)
(-0.00101831 0.547831 0)
(0.00208086 0.507897 0)
(-0.00509705 0.468551 0)
(-0.012369 0.435341 0)
(-0.0127705 0.405436 0)
(-0.00368269 0.372161 0)
(0.0113865 0.325435 0)
(0.0243448 0.263435 0)
(0.0299603 0.190429 0)
(0.0271022 0.112551 0)
(0.0172699 0.0358091 0)
(0.00353674 -0.0358394 0)
(-0.0113975 -0.102779 0)
(-0.0274399 -0.167295 0)
(-0.0465853 -0.229629 0)
(-0.0688056 -0.287006 0)
(-0.0921871 -0.340122 0)
(-0.115892 -0.387909 0)
(-0.139368 -0.429592 0)
(-0.000488253 0.548325 0)
(0.00722128 0.552567 0)
(0.0147127 0.552432 0)
(0.035315 0.549206 0)
(0.0590108 0.531821 0)
(0.0768848 0.501507 0)
(0.0877051 0.46685 0)
(0.0962655 0.432274 0)
(0.106817 0.397268 0)
(0.121205 0.358537 0)
(0.137767 0.311176 0)
(0.152055 0.253569 0)
(0.160351 0.187732 0)
(0.161021 0.117385 0)
(0.154471 0.0466109 0)
(0.142523 -0.0215481 0)
(0.127139 -0.0861347 0)
(0.108847 -0.147786 0)
(0.0870096 -0.20672 0)
(0.0615197 -0.261696 0)
(0.0328957 -0.312497 0)
(0.00130094 -0.358346 0)
(-0.0326741 -0.399239 0)
(0.0159704 0.529103 0)
(0.0337424 0.544549 0)
(0.0477767 0.533545 0)
(0.0732447 0.523308 0)
(0.102608 0.506178 0)
(0.130076 0.480644 0)
(0.153374 0.449926 0)
(0.173909 0.41646 0)
(0.193673 0.380434 0)
(0.213642 0.340453 0)
(0.232955 0.294281 0)
(0.249181 0.241065 0)
(0.259936 0.181796 0)
(0.263849 0.118707 0)
(0.260772 0.0544736 0)
(0.251579 -0.00859432 0)
(0.237511 -0.0691673 0)
(0.219141 -0.126943 0)
(0.196419 -0.181752 0)
(0.169335 -0.232907 0)
(0.138055 -0.279966 0)
(0.102628 -0.322383 0)
(0.0632426 -0.360289 0)
(0.0268455 0.492228 0)
(0.0525247 0.527621 0)
(0.0724287 0.510118 0)
(0.100667 0.4939 0)
(0.132721 0.475027 0)
(0.164953 0.451251 0)
(0.195149 0.42317 0)
(0.223032 0.391699 0)
(0.249063 0.35696 0)
(0.273427 0.318334 0)
(0.295477 0.274846 0)
(0.313776 0.226165 0)
(0.326799 0.172955 0)
(0.333505 0.116641 0)
(0.333564 0.0590259 0)
(0.327312 0.00184374 0)
(0.315459 -0.0535859 0)
(0.298496 -0.106554 0)
(0.276601 -0.156604 0)
(0.249896 -0.203161 0)
(0.218516 -0.245715 0)
(0.182464 -0.283815 0)
(0.141626 -0.317615 0)
(0.030486 0.446966 0)
(0.0623532 0.501755 0)
(0.0882778 0.482873 0)
(0.118554 0.462623 0)
(0.151587 0.441661 0)
(0.185342 0.418152 0)
(0.218186 0.391629 0)
(0.249319 0.362116 0)
(0.278425 0.329483 0)
(0.305182 0.293362 0)
(0.328947 0.253318 0)
(0.348724 0.209286 0)
(0.363463 0.161773 0)
(0.372371 0.111775 0)
(0.375079 0.0605696 0)
(0.371648 0.00947591 0)
(0.362465 -0.0403373 0)
(0.34791 -0.0880301 0)
(0.328222 -0.132998 0)
(0.303601 -0.174648 0)
(0.274208 -0.21242 0)
(0.24004 -0.245851 0)
(0.200781 -0.274953 0)
(0.0283822 0.400586 0)
(0.064214 0.46847 0)
(0.0955951 0.451938 0)
(0.127737 0.430168 0)
(0.161027 0.407943 0)
(0.194603 0.384397 0)
(0.227529 0.358882 0)
(0.259081 0.331052 0)
(0.288722 0.300616 0)
(0.315937 0.267278 0)
(0.340086 0.230813 0)
(0.360387 0.191257 0)
(0.376054 0.149009 0)
(0.386456 0.104798 0)
(0.391234 0.0595681 0)
(0.390323 0.0143413 0)
(0.383912 -0.0298888 0)
(0.372274 -0.0722889 0)
(0.355636 -0.112194 0)
(0.334214 -0.148973 0)
(0.308176 -0.182011 0)
(0.27752 -0.21078 0)
(0.241842 -0.235116 0)
(0.023778 0.357766 0)
(0.0608693 0.430593 0)
(0.0960117 0.417875 0)
(0.129628 0.396769 0)
(0.16285 0.374575 0)
(0.195534 0.351418 0)
(0.227314 0.326878 0)
(0.257749 0.300585 0)
(0.28638 0.272231 0)
(0.312707 0.24157 0)
(0.336163 0.208468 0)
(0.356119 0.172989 0)
(0.371957 0.135447 0)
(0.383166 0.096391 0)
(0.389419 0.0565355 0)
(0.390592 0.0166864 0)
(0.386754 -0.0223244 0)
(0.378087 -0.0597251 0)
(0.364771 -0.0948412 0)
(0.346998 -0.127014 0)
(0.324929 -0.155581 0)
(0.298567 -0.179936 0)
(0.267515 -0.199748 0)
(0.0193009 0.32025 0)
(0.0553239 0.39117 0)
(0.091987 0.38199 0)
(0.126222 0.362861 0)
(0.159018 0.34184 0)
(0.19052 0.319729 0)
(0.220711 0.296425 0)
(0.249414 0.2717 0)
(0.276335 0.245331 0)
(0.301094 0.217146 0)
(0.323239 0.187073 0)
(0.342281 0.155189 0)
(0.357738 0.121747 0)
(0.369203 0.0871694 0)
(0.376388 0.0520134 0)
(0.379149 0.0169247 0)
(0.377489 -0.0173992 0)
(0.371512 -0.0502633 0)
(0.361349 -0.0810111 0)
(0.347159 -0.108974 0)
(0.329083 -0.133458 0)
(0.307138 -0.153796 0)
(0.281 -0.16953 0)
(0.0160145 0.287696 0)
(0.0496242 0.352597 0)
(0.0857922 0.345925 0)
(0.11956 0.329208 0)
(0.151439 0.310041 0)
(0.18157 0.289506 0)
(0.210064 0.267747 0)
(0.236905 0.244704 0)
(0.261944 0.220276 0)
(0.284927 0.194385 0)
(0.305532 0.167019 0)
(0.323394 0.138271 0)
(0.338153 0.108357 0)
(0.349492 0.0776179 0)
(0.357171 0.0465015 0)
(0.361052 0.0155384 0)
(0.3611 -0.0146789 0)
(0.357371 -0.0435299 0)
(0.349952 -0.0703893 0)
(0.338971 -0.0945958 0)
(0.324556 -0.115446 0)
(0.306742 -0.132243 0)
(0.285298 -0.144454 0)
(0.0138438 0.2591 0)
(0.0445821 0.316306 0)
(0.078892 0.311102 0)
(0.111232 0.29666 0)
(0.141685 0.279557 0)
(0.170255 0.260865 0)
(0.197037 0.240852 0)
(0.22207 0.219586 0)
(0.245289 0.197078 0)
(0.266542 0.173334 0)
(0.285607 0.148404 0)
(0.302231 0.1224 0)
(0.316153 0.0955241 0)
(0.327136 0.0680658 0)
(0.334992 0.0403996 0)
(0.339601 0.0129752 0)
(0.340917 -0.0136937 0)
(0.338964 -0.0390511 0)
(0.333806 -0.0625084 0)
(0.325546 -0.0834249 0)
(0.314302 -0.101109 0)
(0.300131 -0.114862 0)
(0.282893 -0.124124 0)
(0.0123284 0.233619 0)
(0.0402015 0.282898 0)
(0.0719647 0.278423 0)
(0.102249 0.265883 0)
(0.130884 0.25074 0)
(0.157719 0.233916 0)
(0.182778 0.215703 0)
(0.206086 0.196239 0)
(0.227612 0.175609 0)
(0.247258 0.153888 0)
(0.264882 0.131169 0)
(0.280311 0.107593 0)
(0.293364 0.0833539 0)
(0.30387 0.058713 0)
(0.311691 0.0339975 0)
(0.316731 0.00960095 0)
(0.318948 -0.0140213 0)
(0.318353 -0.0363661 0)
(0.314996 -0.0568821 0)
(0.308966 -0.0749577 0)
(0.30038 -0.0899277 0)
(0.289313 -0.101118 0)
(0.275702 -0.107971 0)
(0.0111007 0.210742 0)
(0.0362536 0.25248 0)
(0.0652539 0.248285 0)
(0.0931925 0.237253 0)
(0.119783 0.223828 0)
(0.144761 0.208747 0)
(0.168077 0.192272 0)
(0.189719 0.17456 0)
(0.209653 0.155734 0)
(0.227815 0.13591 0)
(0.244106 0.115215 0)
(0.258412 0.0938052 0)
(0.27061 0.071878 0)
(0.280582 0.049677 0)
(0.288231 0.0274991 0)
(0.293487 0.00569923 0)
(0.296321 -0.0153107 0)
(0.29674 -0.0350699 0)
(0.294791 -0.0530627 0)
(0.290559 -0.068711 0)
(0.284159 -0.0813861 0)
(0.275683 -0.0904526 0)
(0.265134 -0.0953804 0)
(0.0100157 0.190183 0)
(0.0326131 0.22495 0)
(0.0588834 0.220761 0)
(0.0844147 0.210906 0)
(0.108871 0.198935 0)
(0.131927 0.185414 0)
(0.153477 0.170548 0)
(0.173479 0.154484 0)
(0.191887 0.137355 0)
(0.208645 0.119294 0)
(0.223687 0.100448 0)
(0.236931 0.0809846 0)
(0.248297 0.0611007 0)
(0.257706 0.0410297 0)
(0.265093 0.0210488 0)
(0.270411 0.0014853 0)
(0.273646 -0.0172818 0)
(0.274809 -0.034826 0)
(0.273949 -0.0506649 0)
(0.271149 -0.0642556 0)
(0.266529 -0.0750114 0)
(0.260193 -0.0823442 0)
(0.252196 -0.0857665 0)
(0.0090803 0.171713 0)
(0.0293061 0.200138 0)
(0.0529813 0.195778 0)
(0.0761554 0.186841 0)
(0.0984716 0.176096 0)
(0.119578 0.163944 0)
(0.139348 0.150532 0)
(0.157714 0.13598 0)
(0.174624 0.120415 0)
(0.190026 0.103974 0)
(0.203866 0.0868102 0)
(0.216089 0.0690945 0)
(0.226638 0.0510227 0)
(0.235463 0.0328207 0)
(0.242521 0.0147512 0)
(0.247787 -0.00287908 0)
(0.251257 -0.0197177 0)
(0.252953 -0.0353667 0)
(0.252924 -0.0493739 0)
(0.251257 -0.0612324 0)
(0.248075 -0.0703993 0)
(0.243492 -0.076338 0)
(0.237603 -0.078611 0)
(0.00833713 0.155068 0)
(0.0264128 0.177844 0)
(0.0476613 0.173216 0)
(0.0685677 0.165007 0)
(0.0887739 0.155302 0)
(0.107933 0.144347 0)
(0.125915 0.13223 0)
(0.142647 0.119042 0)
(0.15807 0.104894 0)
(0.172137 0.0899196 0)
(0.184802 0.0742703 0)
(0.196023 0.0581163 0)
(0.205759 0.0416498 0)
(0.213978 0.0250892 0)
(0.220654 0.00868525 0)
(0.225777 -0.00727176 0)
(0.229353 -0.0224522 0)
(0.23141 -0.0364827 0)
(0.232005 -0.0489391 0)
(0.231225 -0.0593496 0)
(0.229196 -0.0672148 0)
(0.226037 -0.0720497 0)
(0.221871 -0.0734693 0)
(0.00779158 0.139947 0)
(0.0239661 0.157848 0)
(0.0429663 0.152946 0)
(0.0617071 0.145341 0)
(0.079854 0.136529 0)
(0.0970894 0.12662 0)
(0.113294 0.115644 0)
(0.128399 0.103666 0)
(0.142347 0.0907812 0)
(0.155093 0.0771151 0)
(0.166597 0.0628141 0)
(0.176825 0.0480442 0)
(0.185746 0.0329923 0)
(0.193338 0.0178691 0)
(0.199587 0.00291415 0)
(0.204491 -0.0115968 0)
(0.208066 -0.0253548 0)
(0.210348 -0.0380081 0)
(0.211394 -0.0491589 0)
(0.211296 -0.058369 0)
(0.21018 -0.0651803 0)
(0.208165 -0.069157 0)
(0.205394 -0.0699645 0)
(0.00739735 0.126065 0)
(0.021914 0.139922 0)
(0.0388451 0.134834 0)
(0.0555322 0.127766 0)
(0.0716904 0.119735 0)
(0.0870488 0.110736 0)
(0.10151 0.100758 0)
(0.115013 0.0898395 0)
(0.127508 0.078064 0)
(0.138954 0.0655479 0)
(0.149315 0.0524318 0)
(0.158559 0.0388763 0)
(0.166664 0.025062 0)
(0.173611 0.0111909 0)
(0.179394 -0.00250812 0)
(0.184017 -0.0157744 0)
(0.187503 -0.0283175 0)
(0.189892 -0.0398054 0)
(0.191246 -0.0498653 0)
(0.191656 -0.0580905 0)
(0.191246 -0.0640613 0)
(0.19014 -0.0673866 0)
(0.188482 -0.0677774 0)
(0.00707899 0.113209 0)
(0.020141 0.123853 0)
(0.0351754 0.118738 0)
(0.0499327 0.112186 0)
(0.0641955 0.10485 0)
(0.0777506 0.0966468 0)
(0.0905274 0.0875321 0)
(0.102479 0.0775301 0)
(0.113564 0.0667147 0)
(0.123745 0.0551955 0)
(0.132989 0.0431078 0)
(0.141269 0.0306071 0)
(0.148561 0.0178669 0)
(0.154852 0.00508006 0)
(0.160138 -0.00753557 0)
(0.164428 -0.0197361 0)
(0.16775 -0.0312472 0)
(0.170147 -0.041756 0)
(0.171684 -0.0509133 0)
(0.172453 -0.0583415 0)
(0.172574 -0.0636555 0)
(0.172171 -0.0665039 0)
(0.171388 -0.0666376 0)
(0.00676302 0.101262 0)
(0.018516 0.109462 0)
(0.0318114 0.104515 0)
(0.0447727 0.0984868 0)
(0.057255 0.0917814 0)
(0.0691061 0.0842716 0)
(0.0802842 0.0758997 0)
(0.0907576 0.0666817 0)
(0.100494 0.0566864 0)
(0.109462 0.0460199 0)
(0.117632 0.0348145 0)
(0.124977 0.0232214 0)
(0.131473 0.0114072 0)
(0.137106 -0.000445182 0)
(0.141873 -0.0121308 0)
(0.145788 -0.0234228 0)
(0.148881 -0.0340624 0)
(0.151201 -0.0437555 0)
(0.152812 -0.0521748 0)
(0.153807 -0.0589693 0)
(0.154306 -0.0637851 0)
(0.154427 -0.0663053 0)
(0.154314 -0.0663139 0)
(0.00639889 0.0901939 0)
(0.0169332 0.0966147 0)
(0.0286278 0.0920197 0)
(0.0399308 0.0865347 0)
(0.0507637 0.080409 0)
(0.0610302 0.0735064 0)
(0.0707152 0.0657699 0)
(0.0798024 0.0572156 0)
(0.0882702 0.0479123 0)
(0.0960941 0.037966 0)
(0.103247 0.0275091 0)
(0.109699 0.0166912 0)
(0.115425 0.00567244 0)
(0.120405 -0.00537555 0)
(0.124638 -0.0162643 0)
(0.128143 -0.0267837 0)
(0.130952 -0.0366912 0)
(0.133117 -0.0457105 0)
(0.134707 -0.0535349 0)
(0.135812 -0.0598374 0)
(0.13655 -0.0642921 0)
(0.137038 -0.0666113 0)
(0.137415 -0.0666066 0)
(0.00596407 0.0800278 0)
(0.0153311 0.0852146 0)
(0.0255451 0.0811169 0)
(0.0353278 0.0761882 0)
(0.0446513 0.0705989 0)
(0.0534637 0.0642294 0)
(0.0617729 0.0570348 0)
(0.0695777 0.0490377 0)
(0.0768676 0.0403108 0)
(0.0836259 0.0309645 0)
(0.089828 0.0211361 0)
(0.0954401 0.0109776 0)
(0.100427 0.000643369 0)
(0.104766 -0.00970956 0)
(0.108456 -0.0199131 0)
(0.11152 -0.0297748 0)
(0.113996 -0.0390692 0)
(0.115939 -0.0475371 0)
(0.11742 -0.0548902 0)
(0.118532 -0.0608231 0)
(0.119386 -0.0650341 0)
(0.120099 -0.0672615 0)
(0.120804 -0.0673387 0)
(0.00545825 0.0708119 0)
(0.013694 0.0751899 0)
(0.0225385 0.0716775 0)
(0.0309379 0.0673032 0)
(0.0388939 0.0622104 0)
(0.0463861 0.0563114 0)
(0.0534397 0.0495794 0)
(0.0600676 0.0420467 0)
(0.0662723 0.0337934 0)
(0.0720466 0.0249387 0)
(0.077369 0.0156316 0)
(0.0821974 0.00603459 0)
(0.0864815 -0.00370371 0)
(0.0901904 -0.0134486 0)
(0.0933273 -0.0230568 0)
(0.0959204 -0.0323564 0)
(0.0980166 -0.0411389 0)
(0.0996766 -0.0491605 0)
(0.100974 -0.0561485 0)
(0.101999 -0.0618164 0)
(0.10286 -0.0658839 0)
(0.103671 -0.0681114 0)
(0.10456 -0.0683501 0)
(0.00489658 0.0625888 0)
(0.0120471 0.0664715 0)
(0.0196369 0.0635744 0)
(0.0267901 0.0597366 0)
(0.0335184 0.0551038 0)
(0.0398198 0.0496243 0)
(0.0457322 0.0432905 0)
(0.0512821 0.0361441 0)
(0.0564863 0.0282736 0)
(0.0613516 0.0198119 0)
(0.0658622 0.0109302 0)
(0.0699614 0.00181584 0)
(0.0735718 -0.00739038 0)
(0.0766533 -0.0165903 0)
(0.0792182 -0.0256734 0)
(0.0813091 -0.0344908 0)
(0.082984 -0.0428491 0)
(0.0843092 -0.0505158 0)
(0.0853593 -0.0572307 0)
(0.0862205 -0.0627222 0)
(0.0869957 -0.0667287 0)
(0.0877921 -0.0690306 0)
(0.0887313 -0.0694935 0)
(0.00430865 0.0553691 0)
(0.0104553 0.0589721 0)
(0.0169197 0.0566753 0)
(0.0229659 0.0533469 0)
(0.0286002 0.0491451 0)
(0.0338308 0.0440493 0)
(0.0387042 0.0380661 0)
(0.0432589 0.0312437 0)
(0.0475294 0.0236771 0)
(0.0515425 0.0155167 0)
(0.055297 0.00697158 0)
(0.0587101 -0.00171702 0)
(0.0616571 -0.0104247 0)
(0.0640912 -0.0191193 0)
(0.0660513 -0.0277339 0)
(0.0676052 -0.0361412 0)
(0.0688242 -0.0441566 0)
(0.0697777 -0.0515521 0)
(0.0705361 -0.0580742 0)
(0.0711776 -0.0634632 0)
(0.0717941 -0.0674739 0)
(0.0724838 -0.0699047 0)
(0.0733585 -0.0706343 0)
(0.00374428 0.0491016 0)
(0.00902732 0.0525696 0)
(0.0145156 0.0508381 0)
(0.0195945 0.0479978 0)
(0.0242595 0.0442128 0)
(0.0285262 0.0394828 0)
(0.0324459 0.0338227 0)
(0.0360665 0.027281 0)
(0.0394408 0.0199522 0)
(0.0426258 0.0120038 0)
(0.045654 0.00370503 0)
(0.048397 -0.00458543 0)
(0.0506517 -0.0127864 0)
(0.0523802 -0.0209961 0)
(0.0536851 -0.0291986 0)
(0.0546699 -0.0372747 0)
(0.055416 -0.0450328 0)
(0.0559863 -0.052239 0)
(0.0564379 -0.0586407 0)
(0.056833 -0.0639872 0)
(0.0572472 -0.0680487 0)
(0.0577648 -0.070641 0)
(0.0584838 -0.0716553 0)
(0.00329022 0.0436529 0)
(0.00793331 0.0471062 0)
(0.0126056 0.0459209 0)
(0.0168471 0.0435691 0)
(0.0206517 0.0402052 0)
(0.0240466 0.0358422 0)
(0.0270824 0.0305007 0)
(0.0298057 0.0242219 0)
(0.032281 0.0170846 0)
(0.0346061 0.00925846 0)
(0.0368895 0.00109698 0)
(0.0389177 -0.00678192 0)
(0.040383 -0.01441 0)
(0.0412973 -0.0221532 0)
(0.0418896 -0.0300265 0)
(0.0422984 -0.0378768 0)
(0.0425931 -0.0454789 0)
(0.0428104 -0.0525805 0)