/*--------------------------------*- C++ -*----------------------------------*\
| =========                 |                                                 |
| \\      /  F ield         | OpenFOAM: The Open Source CFD Toolbox           |
|  \\    /   O peration     | Version:  2.3.0                                 |
|   \\  /    A nd           | Web:      www.OpenFOAM.org                      |
|    \\/     M anipulation  |                                                 |
\*---------------------------------------------------------------------------*/
FoamFile
{
    version     2.0;
    format      ascii;
    class       volScalarField;
    location    "0.036";
    object      alpha.water;
}
// * * * * * * * * * * * * * * * * * * * * * * * * * * * * * * * * * * * * * //

dimensions      [0 0 0 0 0 0 0];

internalField   nonuniform List<scalar> 
725
(
1
1
1
0.999955
0.999963
1
1
1.00001
0.999855
0.999912
1
1
1.00001
0.999961
0.999891
1
1
1.00001
0.999983
0.999993
1
1
1
0.999985
0.999993
0.941266
0.62357
0.291977
0.297551
0.662109
0.998238
0.999817
0.999529
0.999644
0.999849
0.999987
1.00002
1.00002
1.00002
1.00002
1.00001
1.00002
1.00002
1.00001
0.946291
0.199933
0.000614929
0.000618064
0.000621749
0.0323137
0.713241
1.00001
1.00002
1.00001
1.00002
1.00003
1.00003
1.00003
1.00003
1.00002
1.00002
1.00001
0.999988
0.999972
0.999962
0.999923
0.999834
0.999981
0.798607
0.0321695
0.949499
0.613301
0.28172
0.284628
0.591193
0.997532
0.999979
0.999813
0.999721
0.999661
0.99966
0.999751
0.999889
1.00001
1.00001
0.999989
0.999969
0.999997
1
0.937566
0.19575
0.000615101
0.000616229
0.000619545
0.0308359
0.726569
1
0.999952
0.999789
0.999757
0.999746
0.999748
0.999757
0.999769
0.999784
0.999804
0.999819
0.999836
0.999838
0.999834
0.999785
0.999685
0.999977
0.904966
0.113483
0.999863
0.228598
0.178279
0.282964
0.664507
0.999841
0.999982
0.999877
0.999833
0.999798
0.999771
0.999766
0.999795
0.999832
0.999865
0.999888
0.999912
1.00002
1
0.917448
0.191898
0.000622177
0.000619589
0.000623853
0.0242337
0.731553
1
0.999878
0.999853
0.999804
0.999744
0.99968
0.999616
0.999554
0.999502
0.999468
0.999445
0.999443
0.999444
0.999462
0.999444
0.999427
0.999973
0.99034
0.293928
0.665887
0.0202188
0.0396507
0.168025
0.693179
0.999973
0.999976
0.999912
0.999871
0.999835
0.999806
0.99979
0.99979
0.999806
0.999832
0.999853
0.999885
1.00003
1.00001
0.890918
0.186923
0.000635355
0.000623544
0.00063294
0.0367316
0.756271
1.00001
1.00003
0.999949
0.999884
0.999823
0.999754
0.999674
0.999586
0.999489
0.999392
0.999298
0.999219
0.999158
0.999131
0.999072
0.999172
0.999973
0.988022
0.291226
0.0155383
0.0012188
0.00235442
0.193878
0.704042
0.999935
0.999967
0.999934
0.999913
0.999873
0.999828
0.999797
0.999784
0.999788
0.999922
0.999889
0.999907
1.00005
1.00001
0.873045
0.180451
0.000681009
0.000638467
0.000643101
0.0491371
0.738187
1
1.00001
0.999906
0.999868
0.999842
0.999808
0.999764
0.999708
0.999635
0.999541
0.999436
0.999324
0.999211
0.999113
0.998948
0.999087
0.999983
0.991635
0.282939
2.13968e-06
0.000109283
0.00124103
0.197411
0.761703
0.999957
0.999979
0.99995
0.999962
0.99993
0.999875
0.999826
0.999806
0.999816
0.999831
0.999841
0.999878
1.00005
1.00004
0.862756
0.163265
0.00112734
0.00126171
0.00063841
0.06946
0.782767
0.9999
0.999733
0.999817
0.999826
0.999811
0.999779
0.999734
0.999678
0.999607
0.999517
0.999408
0.999291
0.999166
0.999059
0.998945
0.998877
1
0.927446
0.152171
2.01166e-05
0.000132733
0.00288717
0.143913
0.758532
0.999939
0.999977
0.999948
0.999969
0.999943
0.999887
0.999838
0.999816
0.999815
0.999822
0.999826
0.999879
0.999965
1.00002
0.860072
0.156517
0.00159737
0.0026814
0.001373
0.10343
0.816346
0.999839
0.999783
0.999867
0.999841
0.99981
0.999766
0.999713
0.999649
0.999574
0.999481
0.999372
0.999254
0.999134
0.999019
0.99892
0.998866
1.00002
0.921106
0.124824
4.12004e-05
0.000135361
0.000382325
0.121554
0.758154
0.999936
0.999982
0.999953
0.999976
0.999952
0.999897
0.999839
0.999816
0.999809
0.99981
0.999812
0.999856
1.00003
1.00002
0.861113
0.160918
0.00198786
0.00383093
0.00167814
0.095587
0.81247
0.999799
0.999693
0.999766
0.9998
0.999781
0.999741
0.999689
0.999627
0.999554
0.999464
0.99936
0.999242
0.999124
0.999004
0.998908
0.998849
1
0.896266
0.108266
3.7738e-05
0.000142253
0.00245628
0.140393
0.754714
0.999973
1.00001
0.99996
0.99998
0.999956
0.999903
0.999901
0.999835
0.999814
0.999807
0.999802
0.999859
0.999838
1.00001
0.861784
0.167708
0.00193412
0.00277546
0.000870703
0.0631178
0.752967
0.999754
0.999732
0.99983
0.99981
0.999781
0.999737
0.999687
0.999629
0.999557
0.999469
0.999365
0.999245
0.999124
0.998998
0.998901
0.998842
1.00002
0.884797
0.101742
2.23024e-05
0.000189308
0.00183001
0.19029
0.788677
1.00001
1.00003
0.999957
0.999974
0.999956
0.999904
0.999854
0.999823
0.999807
0.999798
0.99979
0.999849
0.999934
1
0.857421
0.164258
0.001333
0.00145755
0.000664207
0.0621355
0.767001
0.999815
0.999673
0.999725
0.999774
0.999766
0.999736
0.999695
0.999644
0.999573
0.999484
0.999375
0.999253
0.999123
0.998997
0.998897
0.998854
1
0.880276
0.0759587
1
1
1
1.00005
1.00002
1
1
1
1.00001
1
1
1
1
0.999954
1
1
1
1
0.999941
1
1
1
1
1.00008
1
0.00194237
0.000946646
0.00155081
0.177113
0.752223
0.999999
1.00001
0.999988
0.99998
0.999957
0.99999
0.999861
0.999817
0.999793
0.999781
0.999776
0.999817
1.00006
1.00001
0.850125
0.153129
0.000784241
0.000698512
0.000651406
0.0844328
0.777576
0.999902
0.999904
0.999836
0.999798
0.999778
0.999755
0.999723
0.999681
0.99963
0.999554
0.999448
0.999312
0.999163
0.999023
0.998898
0.999046
0.999999
0.841761
0.0682793
0.583136
0.0060531
0.0419965
0.286244
0.766124
1
1.00001
0.999978
0.999972
0.999952
0.999913
0.99987
0.999833
0.999805
0.999785
0.999776
0.999802
1.00003
1
0.853317
0.140838
0.000697053
0.000657261
0.000647394
0.101482
0.810889
0.9999
0.999902
0.999893
0.999826
0.999766
0.999699
0.999612
0.99951
0.999398
0.999282
0.999173
0.999085
0.999015
0.998984
0.998979
0.999108
0.999998
0.811943
0.0682806
0.999864
0.279074
0.297448
0.403035
0.771347
1
1.00004
1.00001
0.999975
0.999945
0.999906
0.99986
0.999817
0.999781
0.999763
0.999775
0.999836
0.999957
1
0.864972
0.133462
0.000656679
0.000648504
0.000643532
0.102496
0.793082
0.999871
0.999891
0.999784
0.999749
0.999685
0.999609
0.999531
0.999456
0.999386
0.999347
0.999336
0.999344
0.99935
0.999371
0.999406
0.999395
0.999998
0.869828
0.0820579
0.867612
0.559869
0.449518
0.357948
0.67675
0.999913
0.999993
0.999885
0.999864
0.999836
0.999805
0.999777
0.999757
0.99975
0.999767
0.999806
0.999881
0.999962
1
0.870265
0.133068
0.000642966
0.000642816
0.000642819
0.101079
0.817337
0.999894
0.99991
0.999761
0.99971
0.999683
0.999678
0.999687
0.999702
0.99972
0.99975
0.999774
0.999792
0.999789
0.99978
0.999757
0.999666
0.999993
0.975913
0.274631
0.908179
0.784899
0.361396
0.357947
0.776326
0.999975
0.999966
0.999865
0.999832
0.999852
0.999908
0.999943
0.999946
0.999937
0.999941
0.999939
0.999985
0.999992
1
0.871249
0.137032
0.000643216
0.000646705
0.00064686
0.0988729
0.820697
0.999923
0.999929
0.999974
1.00002
1.00003
1.00003
1.00003
1.00003
1.00003
1.00003
1.00003
1.00003
1.00003
1.00005
0.999936
0.999891
0.999984
0.996126
0.323413
)
;

boundaryField
{
    AirInlet
    {
        type            fixedValue;
        value           uniform 0;
    }
    WaterInlet
    {
        type            fixedValue;
        value           uniform 1;
    }
    ChannelWall
    {
        type            zeroGradient;
    }
    Outlet
    {
        type            inletOutlet;
        inletValue      uniform 0;
        value           nonuniform List<scalar> 
15
(
0.0321695
0.113483
0
0.291226
0.282939
0
0
0
0
0
0.0682793
0.0682806
0
0
0.323413
)
;
    }
    FrontAndBack
    {
        type            empty;
    }
}


// ************************************************************************* //
