/*--------------------------------*- C++ -*----------------------------------*\
| =========                 |                                                 |
| \\      /  F ield         | OpenFOAM: The Open Source CFD Toolbox           |
|  \\    /   O peration     | Version:  2.3.0                                 |
|   \\  /    A nd           | Web:      www.OpenFOAM.org                      |
|    \\/     M anipulation  |                                                 |
\*---------------------------------------------------------------------------*/
FoamFile
{
    version     2.0;
    format      ascii;
    class       volScalarField;
    location    "0.036";
    object      alpha.water;
}
// * * * * * * * * * * * * * * * * * * * * * * * * * * * * * * * * * * * * * //

dimensions      [0 0 0 0 0 0 0];

internalField   nonuniform List<scalar> 
725
(
1
1
1
1.00001
0.97957
1
1
1
1.00002
1
1
1
1
1.00001
1
1
1
1
1.00002
1
1
1
1
1.00001
0.939379
0.946922
0.869908
0.944025
0.992023
0.999719
0.99969
0.999723
0.999781
0.999889
0.999988
0.995126
0.9924
0.992595
0.997789
0.998238
0.998139
0.998111
0.998161
0.998171
0.998483
0.998719
0.998813
0.998773
0.99888
0.999566
0.999625
0.999731
0.999865
0.999949
0.999985
0.999999
1.00001
1.00001
1.00002
1.00002
1.00001
0.967275
0.844559
0.844463
0.844463
0.911056
0.999605
0.999807
0.999882
0.999815
0.922653
0.831561
0.925487
0.985183
0.999818
0.999818
0.999815
0.999857
0.99984
0.99997
0.999987
0.998083
0.992496
0.992322
0.992972
0.998684
0.998316
0.997561
0.9983
0.999569
0.999502
0.999218
0.999345
0.999642
0.999645
0.999302
0.999249
0.99941
0.999652
0.999808
0.999872
0.999889
0.999891
0.999893
0.999913
1
0.982205
0.844492
0.844463
0.844463
0.914759
0.999482
0.999613
0.999713
0.999756
0.544865
0.752398
0.923836
0.982155
0.999732
0.996353
0.998625
0.999851
0.999765
0.999446
0.999903
0.999901
0.998776
0.997104
0.997203
0.998732
0.998721
0.997551
0.997537
0.998282
0.998128
0.999342
0.999541
0.99964
0.999644
0.999626
0.999389
0.999339
0.999546
0.999687
0.999763
0.999931
0.999907
0.999891
0.999893
0.999993
0.999999
0.852743
0.844464
0.84446
0.923317
0.99967
0.999822
0.999753
0.999766
0.243242
0.692023
0.914138
0.98622
0.989111
0.986461
0.987639
0.998548
0.999921
0.999556
0.997454
0.998026
0.999391
0.99978
0.99978
0.999779
0.999778
0.999694
0.998147
0.997659
0.998238
0.999371
0.999526
0.945513
0.964617
0.99859
0.999344
0.999646
0.999581
0.999657
0.999746
0.999805
0.999839
0.99986
0.999875
0.999961
1
0.888837
0.844495
0.844459
0.959352
0.999823
0.999823
0.999767
0.999776
0.0857387
0.537468
0.861909
0.993138
0.993007
0.990198
0.989486
0.995292
0.999995
0.999994
0.995654
0.987651
0.992284
0.996836
0.992225
0.993072
0.999002
0.999078
0.999391
0.998724
0.999999
0.997731
0.91398
0.481516
0.554035
0.833056
0.993897
0.999951
0.99995
0.999944
0.999934
0.999934
0.999935
0.99993
0.999909
0.999984
1
0.967302
0.845532
0.875689
0.97907
0.999823
0.999821
0.99978
0.999789
0.0185245
0.469227
0.829131
0.998943
0.999253
0.999245
0.999242
0.998626
0.999738
0.999992
0.99033
0.981315
0.981309
0.981325
0.981301
0.981256
0.983964
0.99615
0.999905
0.999931
0.999998
0.957779
0.557816
0.223901
0.251975
0.596224
0.967386
0.999964
0.999965
0.999885
0.999916
0.999927
0.999927
0.999917
0.999898
0.99996
1.00011
1.00003
0.848329
0.908177
0.993444
0.999825
0.999782
0.999822
0.999837
0.0150929
0.442477
0.801206
0.998899
0.999229
0.999181
0.999117
0.999186
0.999504
0.999991
0.988648
0.981413
0.981322
0.981306
0.981293
0.981245
0.981249
0.995508
0.999938
0.99991
0.999997
0.923684
0.445847
0.19103
0.190025
0.469729
0.94634
0.999949
0.999965
0.999849
0.999878
0.999902
0.999909
0.999901
0.999882
0.999895
1.00009
1.00001
0.851587
0.918433
0.995825
0.999831
0.999782
0.999836
0.999859
0.00919816
0.379518
0.77412
0.999003
0.999328
0.99878
0.998523
0.998517
0.999411
0.999985
0.98759
0.981551
0.989044
0.987076
0.986227
0.981427
0.981272
0.986002
0.997585
1.00002
0.999999
0.853156
0.304878
0.19761
0.148086
0.385431
0.918994
0.999827
0.999792
0.999717
0.99982
0.999873
0.999888
0.99988
0.999862
0.999858
1.00006
1
0.859416
0.935575
0.99739
0.999828
0.999771
0.999842
0.999871
0.0145082
0.409709
0.822175
0.999134
0.999881
0.999973
0.998522
0.998672
0.999928
0.99272
0.986177
0.9862
0.991342
0.991349
0.991353
0.991324
0.981296
0.981417
0.991077
0.999901
0.999997
0.780498
0.19984
0.183629
0.0786144
0.303969
0.877031
0.999741
0.999773
0.999744
0.999815
0.999854
0.999865
0.999857
0.999841
0.999841
1.00005
1
0.8758
0.957805
0.999079
0.999895
0.999858
0.999875
0.999886
0.0140826
0.421676
0.888358
0.999859
1.00003
1.00005
0.998586
0.999592
0.999936
0.99642
0.986184
0.986878
0.991339
0.983506
0.976048
0.987899
0.982511
0.985878
0.987596
0.998849
0.999993
0.736467
0.159869
0.147977
0.0529041
0.217889
0.839972
0.99974
0.999765
0.999746
0.999794
0.999825
0.999836
0.99983
0.99982
0.999827
1.00009
1.00002
0.91544
0.982104
0.99997
0.999825
0.999881
0.999893
0.999895
1
1
1
1.00001
0.93237
1
1
1
1.00007
1
1
1
1
1.00002
1
1
1
1
1.00007
1
1
1
1.00002
0.999686
0.94161
0.073459
0.387628
0.978036
0.999953
0.999964
0.999957
0.999226
0.999187
0.99985
0.999782
0.993081
0.996959
0.98435
0.970509
0.970507
0.970507
0.98551
0.999417
0.999973
0.999563
0.999974
0.593114
0.0874765
0.0478652
0.0124644
0.0593198
0.700634
0.999711
0.999795
0.999795
0.999788
0.9998
0.999804
0.999804
0.999805
0.999816
0.999914
0.99968
0.999907
0.99996
0.999959
0.999915
0.9999
0.999896
0.999894
0.248864
0.47176
0.898937
0.999957
0.999959
0.99988
0.999568
0.999497
0.999763
0.999677
0.999955
1
0.998513
0.971903
0.970506
0.979859
0.99692
0.99998
0.999972
0.999975
0.999976
0.322087
0.0037603
0.00306804
0.00296024
0.0110966
0.461676
0.989556
0.999793
0.999772
0.999782
0.999794
0.9998
0.999805
0.999811
0.999819
0.999826
0.999904
0.999912
0.999892
0.999876
0.999866
0.999863
0.999863
0.999859
0.322414
0.597029
0.825371
0.999945
0.999878
0.999826
0.999854
0.999964
0.999884
0.999829
0.999909
1
0.99727
0.970712
0.970513
0.987005
0.999718
0.999846
0.999749
0.999975
0.990551
0.107081
0.00303821
0.00295838
0.00295169
0.00294708
0.224347
0.989516
0.999805
0.999726
0.999778
0.999802
0.999815
0.999829
0.999843
0.999855
0.999863
0.999887
0.999889
0.999882
0.999876
0.999873
0.99987
0.999862
0.999847
0.494727
0.675248
0.868324
0.987191
0.999882
0.999727
0.999863
0.999895
1.00003
1.00028
1.00029
1.00005
0.99059
0.970983
0.97566
0.996184
0.999421
0.999357
0.999457
0.999973
0.921538
0.0703185
0.002962
0.00295571
0.00295303
0.0029501
0.161963
0.999049
0.999799
0.999815
0.999855
0.999889
0.999928
0.999935
0.999924
0.999906
0.999891
0.999885
0.99988
0.999872
0.999874
0.999876
0.999877
0.999858
0.999835
0.905584
0.904729
0.894422
0.967366
0.99988
0.999062
0.99856
0.998313
0.998115
0.998347
0.99728
0.992163
0.988847
0.990353
0.997343
0.999516
0.999509
0.99955
0.999704
0.999968
0.854582
0.0474443
0.00295764
0.00295649
0.0029544
0.00295287
0.125075
0.959722
0.999595
0.999441
0.999452
0.999494
0.99956
0.999637
0.99971
0.99977
0.99982
0.99983
0.999832
0.999838
0.999929
0.999992
1.00014
0.999926
0.999132
)
;

boundaryField
{
    AirInlet
    {
        type            fixedValue;
        value           uniform 0;
    }
    WaterInlet
    {
        type            fixedValue;
        value           uniform 1;
    }
    ChannelWall
    {
        type            zeroGradient;
    }
    Outlet
    {
        type            inletOutlet;
        inletValue      uniform 0;
        value           nonuniform List<scalar> 
15
(
0.999815
0.999756
0.999766
0.999776
0.999789
0.999837
0.999859
0.999871
0.999886
0.999895
0.999894
0.999859
0.999847
0.999835
0.999132
)
;
    }
    FrontAndBack
    {
        type            empty;
    }
}


// ************************************************************************* //
