/*--------------------------------*- C++ -*----------------------------------*\
| =========                 |                                                 |
| \\      /  F ield         | OpenFOAM: The Open Source CFD Toolbox           |
|  \\    /   O peration     | Version:  2.3.0                                 |
|   \\  /    A nd           | Web:      www.OpenFOAM.org                      |
|    \\/     M anipulation  |                                                 |
\*---------------------------------------------------------------------------*/
FoamFile
{
    version     2.0;
    format      ascii;
    class       volScalarField;
    location    "0.036";
    object      p;
}
// * * * * * * * * * * * * * * * * * * * * * * * * * * * * * * * * * * * * * //

dimensions      [1 -1 -2 0 0 0 0];

internalField   nonuniform List<scalar> 
725
(
-58.1927
-93.3299
-118.762
-95.3779
-191.367
-63.516
-92.7498
-117.146
-84.7926
-186.826
-66.1469
-93.1257
-117.965
-88.762
-214.428
-65.7952
-94.6341
-119.934
-106.355
-252.156
-62.8136
-96.6434
-120.527
-111.71
-210.31
-151.631
-510.027
-949.675
-910.55
-1116.18
-1174.82
-1179.54
-1150.09
-1142.56
-1137.52
-1133.83
-1133.7
-1133.98
-1133.73
-1132.13
-1128.89
-1120.87
-1108.04
-1084.43
-1014
-1130.46
-1137.62
-1136.15
-1136.92
-1134.76
-1178.6
-1222.88
-1248.96
-1241.52
-1239.61
-1239.81
-1242
-1245.07
-1248.36
-1251.93
-1256.44
-1261.78
-1270.97
-1277.84
-1310.4
-1329.48
-1477.01
-1618.65
-2906.96
181.649
-144.781
-527.909
-964.317
-860.702
-1116.63
-1240.43
-1190.43
-1150.65
-1142.34
-1136.76
-1134.86
-1134.62
-1134.52
-1133.96
-1132.54
-1129.74
-1122.95
-1112.33
-1087.33
-1034.17
-1131.01
-1137.14
-1136.11
-1136.93
-1138.52
-1210.31
-1236.67
-1254.6
-1242.62
-1240.56
-1240.93
-1243.14
-1246.18
-1249.38
-1252.82
-1257.15
-1262.18
-1270.66
-1276.75
-1306.16
-1315.32
-1424.45
-1449.4
-1815.31
-219.054
-48.1106
-600.447
-973.742
-892.246
-1157.58
-1186.77
-1170.15
-1145.81
-1140.53
-1137.2
-1135.43
-1134.77
-1134.72
-1134.38
-1133.24
-1131.1
-1125.95
-1118.71
-1099.13
-1070.21
-1128.2
-1137.1
-1136.21
-1136.72
-1141.14
-1254.81
-1263.67
-1262.75
-1244.22
-1240.67
-1240.75
-1242.61
-1245.29
-1248.6
-1252.33
-1256.7
-1261.4
-1269.11
-1273.57
-1298.25
-1293.83
-1357.09
-1235.89
-653.115
-319.591
-478.38
-277.93
-412.293
-671.838
-1149.45
-1162.87
-1150.09
-1140
-1137.96
-1136.15
-1135.26
-1134.97
-1134.85
-1134.74
-1134.08
-1132.97
-1129.89
-1127.02
-1115.24
-1093.73
-1114.95
-1137.8
-1136.53
-1135.77
-1147.55
-1444.48
-1318.11
-1263.56
-1243.2
-1239.88
-1240.68
-1242.89
-1245.69
-1248.77
-1252
-1255.73
-1259.52
-1266.38
-1269.29
-1289.34
-1273.51
-1305.31
-1123.67
-453.136
-382.375
-185.575
-232.056
-197.96
-628.127
-965.106
-1131.08
-1128.4
-1132.02
-1135.01
-1134.92
-1134.79
-1134.97
-1135.02
-1135.12
-1134.94
-1135.14
-1134.21
-1136.06
-1134.39
-1126.18
-1121.63
-1138.49
-1137.22
-1133.94
-1157.89
-1751.2
-1353.01
-1258.47
-1239.97
-1238.29
-1239.71
-1242.15
-1245.02
-1248.19
-1251.5
-1255.14
-1258.47
-1264.41
-1265.27
-1281.57
-1261.42
-1293.88
-1162.44
-965.406
-475.152
-231.747
-218.692
-194.481
-588.27
-939.114
-1128.9
-1120.9
-1128.95
-1133.76
-1134.24
-1134.55
-1135.04
-1135.19
-1135.42
-1135.68
-1136.42
-1136.41
-1141.83
-1146.84
-1216.24
-1163.31
-1136.5
-1142.86
-1139.64
-1159.57
-889.347
-1260.68
-1245.76
-1239.98
-1237.31
-1239.25
-1241.98
-1244.94
-1248.15
-1251.37
-1254.96
-1257.55
-1263.58
-1261.51
-1278.82
-1253.32
-1299.38
-1162.08
-1275.94
-104.302
-230.934
-219.054
-186.8
-603.65
-1098.43
-1138.75
-1119.35
-1127.87
-1133.32
-1134.03
-1134.47
-1135.08
-1135.25
-1135.53
-1135.87
-1136.82
-1137.11
-1144.06
-1149.13
-1222.47
-1143.3
-1136.21
-1153.06
-1142.13
-873.511
-245.505
-1237.26
-1241.93
-1237
-1236.78
-1239.05
-1241.88
-1244.88
-1248.09
-1251.29
-1254.86
-1257.22
-1263.16
-1260.34
-1277.59
-1250.89
-1301.65
-1164.09
-1380.69
25.457
-231.003
-218.626
-180.061
-259.876
-1240.39
-1152.08
-1118.16
-1126.8
-1132.88
-1133.83
-1134.41
-1135.12
-1135.3
-1135.75
-1136.03
-1137.16
-1137.84
-1145.21
-1148.79
-1167.67
-1127.78
-1137.5
-1120.83
-1139.72
-978.47
-504.713
-1246.54
-1240.24
-1235.77
-1236.34
-1238.84
-1241.73
-1244.66
-1247.7
-1250.84
-1254.4
-1256.72
-1262.51
-1259.33
-1276
-1248.96
-1303.63
-1169.09
-1419.34
82.2797
-230.979
-218.577
-188.551
-570.705
-1131.36
-1145.35
-1116.31
-1125.65
-1132.3
-1133.66
-1134.39
-1133.17
-1134.86
-1135.82
-1136.17
-1137.47
-1138.51
-1141.35
-1148.6
-1108.77
-1091.96
-1138.83
-1150.54
-1135.81
-1009.09
-1041.62
-1271.18
-1240.28
-1234.43
-1235.83
-1238.62
-1241.56
-1244.5
-1247.63
-1250.84
-1254.4
-1256.63
-1262.11
-1258.53
-1274.31
-1247.38
-1305.44
-1177.14
-1431.75
68.1405
-231.121
-219.609
-196.666
-618.576
-1006.84
-1124.56
-1114.33
-1124.58
-1132.07
-1133.53
-1134.37
-1134.75
-1135.27
-1135.89
-1136.31
-1137.74
-1139.2
-1145.53
-1151.26
-1116.48
-1099.32
-1138.47
-1141.65
-1133.94
-997.904
-1411.68
-1275.27
-1236.63
-1233.1
-1235.33
-1238.43
-1241.39
-1244.62
-1247.81
-1250.96
-1254.4
-1256.53
-1261.61
-1257.92
-1272.48
-1246.46
-1307.03
-1186.7
-1489.95
81.2172
-317.885
-351.824
-374.404
-366.58
-404.477
-320.954
-350.061
-374.409
-366.051
-509.044
-321.433
-348.606
-371.933
-348.07
-452.64
-318.945
-348.546
-371.598
-352.012
-422.282
-313.716
-349.139
-372.012
-357.23
-408.803
-224.543
-229.058
-199.677
-745.865
-912.519
-1071.41
-1110.02
-1121.94
-1130.71
-1133.22
-1134.04
-1134.89
-1135.43
-1136.06
-1136.76
-1138.45
-1140.99
-1148.51
-1164.3
-1207.92
-1151.02
-1135.94
-1136.37
-1137.89
-1164.48
-1175.63
-1222.53
-1227.47
-1229.66
-1233.8
-1237.8
-1241.26
-1244.36
-1247.47
-1250.53
-1253.63
-1255.81
-1259.53
-1256.67
-1267.04
-1245.16
-1309.89
-1219.45
-1777.59
104.229
-687.411
-249.7
-394.703
-871.251
-1021.63
-1065.01
-1110.28
-1120.1
-1129.77
-1132.84
-1134.35
-1134.96
-1135.63
-1136.44
-1137.48
-1139.61
-1143.02
-1151.41
-1169.7
-1223.43
-1151.61
-1135.94
-1136.79
-1138.85
-1124.74
-1028.29
-1174.37
-1211.76
-1223.38
-1231.39
-1236.87
-1241.07
-1244.69
-1247.92
-1250.68
-1253.08
-1254.44
-1256.55
-1252.12
-1259.71
-1235.22
-1295.18
-1210.83
-1819.28
108.403
-87.2812
-715.859
-1197.13
-902.589
-1066.06
-1069.82
-1122.26
-1121.3
-1129.87
-1132.64
-1134.28
-1135.01
-1135.71
-1136.56
-1137.74
-1140.38
-1144.06
-1152.28
-1163.53
-1195.93
-1150.67
-1136.4
-1137.09
-1137.87
-1125.2
-1075.6
-1158.67
-1201.14
-1218.85
-1229.28
-1235.62
-1240.13
-1243.81
-1247.22
-1250.28
-1253.04
-1254.51
-1256.09
-1249.28
-1252.07
-1218.93
-1244.63
-1118.5
-1273.61
-18.129
-456.737
-935.7
-964.049
-927.407
-1075.08
-1137.82
-1144.81
-1124.71
-1130.37
-1132.65
-1133.62
-1134.35
-1135.35
-1136.53
-1138.11
-1140.84
-1144.42
-1151.52
-1157.63
-1168.4
-1147.88
-1136.99
-1137.24
-1137.25
-1133
-1086.16
-1149.52
-1194.94
-1215.85
-1227.88
-1235.19
-1240.44
-1244.8
-1248.34
-1250.93
-1252.98
-1253.87
-1254.58
-1246.28
-1245.12
-1202.08
-1196
-1014.34
-650.857
-171.142
-364.371
-235.384
-1015.77
-912.195
-1196.89
-1137.88
-1142.02
-1125.79
-1130.63
-1132.76
-1133.9
-1134.45
-1134.91
-1135.98
-1137.66
-1140.61
-1144.03
-1150.68
-1154.27
-1151
-1141.41
-1137.53
-1137.42
-1137.16
-1136.06
-1082.8
-1145.34
-1192.82
-1214.8
-1226.68
-1233.88
-1239.13
-1243.52
-1247.11
-1249.73
-1251.77
-1252.52
-1252.95
-1243.54
-1239.94
-1189.98
-1165.18
-950.083
-415.031
-191.408
)
;

boundaryField
{
    AirInlet
    {
        type            calculated;
        value           nonuniform List<scalar> 5(-231.757 -229.567 -232.271 -229.565 -231.264);
    }
    WaterInlet
    {
        type            calculated;
        value           nonuniform List<scalar> 10(-58.1907 -63.51 -66.1368 -65.7812 -62.7956 -317.903 -320.968 -321.443 -318.951 -313.718);
    }
    ChannelWall
    {
        type            calculated;
        value           nonuniform List<scalar> 
110
(
-62.8397
-96.6734
-120.561
-111.748
-210.352
-317.859
-351.794
-374.37
-366.542
-404.435
-313.742
-349.17
-372.046
-357.269
-408.845
-364.411
-235.419
-1015.78
-912.211
-1196.92
-1137.93
-1142.06
-1125.83
-1130.67
-1132.8
-1133.94
-1134.49
-1134.96
-1136.02
-1137.71
-1140.66
-1144.08
-1150.72
-1154.31
-1151.04
-1141.41
-1137.53
-1137.42
-1137.16
-1136.06
-1082.83
-1145.38
-1192.86
-1214.84
-1226.73
-1233.92
-1239.18
-1243.57
-1247.16
-1249.77
-1251.81
-1252.57
-1253
-1243.58
-1239.99
-1190.02
-1165.22
-950.127
-415.075
-191.422
-58.1662
-93.2995
-118.727
-95.3396
-191.325
-151.59
-509.999
-949.662
-910.537
-1116.15
-1174.78
-1179.5
-1150.04
-1142.52
-1137.47
-1133.78
-1133.66
-1133.94
-1133.68
-1132.08
-1128.84
-1120.83
-1107.99
-1084.39
-1013.95
-1130.45
-1137.62
-1136.15
-1136.92
-1134.76
-1178.57
-1222.83
-1248.92
-1241.48
-1239.57
-1239.77
-1241.96
-1245.03
-1248.31
-1251.89
-1256.4
-1261.73
-1270.92
-1277.8
-1310.36
-1329.43
-1476.97
-1618.6
-2906.92
181.651
)
;
    }
    Outlet
    {
        type            calculated;
        value           nonuniform List<scalar> 
15
(
-0.00146285
-0.0607673
-0.11273
-7.81593
-3.0273
-0.00351522
-0.0106449
-0.171954
-0.135072
-0.00052974
-0.0403981
-0.0465096
-0.000760275
-0.114992
-1.19911
)
;
    }
    FrontAndBack
    {
        type            empty;
    }
}


// ************************************************************************* //
