/*--------------------------------*- C++ -*----------------------------------*\
| =========                 |                                                 |
| \\      /  F ield         | OpenFOAM: The Open Source CFD Toolbox           |
|  \\    /   O peration     | Version:  2.3.0                                 |
|   \\  /    A nd           | Web:      www.OpenFOAM.org                      |
|    \\/     M anipulation  |                                                 |
\*---------------------------------------------------------------------------*/
FoamFile
{
    version     2.0;
    format      ascii;
    class       volScalarField;
    location    "0.036";
    object      p;
}
// * * * * * * * * * * * * * * * * * * * * * * * * * * * * * * * * * * * * * //

dimensions      [1 -1 -2 0 0 0 0];

internalField   nonuniform List<scalar> 
725
(
635.784
459.87
406.041
400.844
396.209
608.755
461.994
408.236
393.973
355.9
594.164
463.027
407.721
379.141
350.1
591.983
459.709
405.688
361.457
330.088
600.461
454.625
405.109
364.379
312.623
740.07
191.268
285.42
230.135
172.185
157.721
150.524
140.585
131.205
117.787
125.443
84.557
-4.89339
-53.6327
-31.6641
16.8282
65.8239
101.548
140.688
115.903
103.959
127.411
104.312
93.2463
113.582
105.965
122.76
111.407
99.524
95.5069
92.7481
89.4741
85.5207
80.4414
72.9595
64.2972
63.4284
180.232
223.438
213.524
104.281
21.004
14.7855
11.1576
5.75017
599.493
182.407
313.097
212.314
166.255
154.063
149.641
141.564
133.16
119.716
109.108
62.027
-11.0045
-35.5509
-19.534
15.1228
69.3727
108.911
146.634
122.48
103.141
117.885
97.7645
86.0003
119.737
106.882
126.501
111.392
98.4282
95.268
92.6452
89.2333
85.1538
80.0352
72.6165
65.5279
47.5775
173.514
224.456
220.528
97.1758
14.1009
12.8667
9.3495
5.12219
1029.78
314.377
368.317
209.741
154.322
142.379
147.043
140.589
136.585
124.447
117.958
79.9831
-22.2403
-101.174
-65.9732
20.4476
78.5505
112.952
166.171
114.677
89.3207
104.125
92.3017
64.1613
128.176
104.947
136.65
110.826
97.7727
96.6464
93.8673
89.681
85.6464
80.6471
73.7844
67.6822
57.3536
135.733
230.287
233.767
72.1123
9.6161
10.5879
8.27362
4.51459
1941.33
402.349
437.915
196.931
169.929
215.241
224.532
140.853
141.967
128.903
118.505
76.8179
-41.6848
-120.331
-70.5697
31.9717
99.7347
132.778
188.678
120.739
79.7143
76.7461
88.5059
32.5959
150.364
98.3057
153.431
103.01
95.4625
98.3262
95.175
91.5163
87.0363
82.0953
75.8528
70.0053
57.4579
25.4401
239.121
247.794
25.8461
8.68605
9.85635
7.34771
3.68058
2734.87
807.72
443.592
162.519
140.746
173.433
199.638
162.396
148.8
141.568
148.099
107.445
-118.275
-206.835
-153.043
36.5556
110.314
132.05
232.434
106.361
80.587
33.302
151.345
291.042
434.608
175.077
169.12
88.0697
95.4938
102.202
97.4672
93.0773
88.739
84.0624
78.3712
74.3455
60.6276
-19.4109
257.602
171.592
5.64436
6.93772
9.15218
6.42943
2.63753
3610.88
843.518
389.135
85.5455
161.591
174.466
188.565
148.8
150.708
146.268
182.704
193.211
471.891
619.576
432.523
69.5319
142.87
119.677
302.267
97.7424
84.6628
-29.7146
256.269
781.523
779.922
314.159
188.52
69.7035
99.5082
103.629
98.2359
94.0587
89.629
85.1842
79.9356
79.5692
73.631
251.812
251.429
94.3729
21.1883
8.90527
9.0424
6.0336
1.92429
3663.03
862.82
531.928
40.1945
162.858
174.932
182.616
166.026
156.112
148.712
194.302
203.832
456.647
603.175
419.058
76.354
156.695
117.118
320.111
92.7363
85.5141
-94.8914
269.145
1006.98
849.403
416.875
175.716
62.1726
100.338
104.176
98.5726
94.4221
89.9662
85.5945
80.5358
81.4568
74.9881
233.735
215.969
67.5928
24.4218
9.32875
8.94959
5.89168
1.66814
3726.14
1738.58
1172.11
7.88729
166.121
175.053
161.625
164.907
159.915
149.631
205.271
209.553
441.808
591.651
509.89
73.2072
161.113
111.024
334.984
92.8468
86.2368
-104.744
307.815
982.54
888.718
518.09
151.31
54.0759
100.085
104.744
98.9751
94.7785
90.3092
85.9847
81.161
82.9537
76.0824
215.887
153.075
24.4314
22.1052
9.58948
9.13418
5.73769
1.41028
3667.97
1306.07
255.68
9.64496
173.143
176.886
160.434
157.788
162.075
328.011
250.418
212.034
498.616
734.618
679.233
418.463
163.696
271.718
358.472
87.3807
90.8395
44.8054
504.326
908.313
956.052
617.115
155.763
45.7974
100.059
104.391
99.3374
95.1274
90.6519
86.3602
81.7924
84.0162
76.9795
201.169
105.214
-7.72815
16.605
10.5915
9.12029
5.53243
1.15466
3652.7
1303.61
254.189
17.809
179.45
180.012
156.793
156.423
163.618
206.051
256.188
220.464
481.202
451.888
449.949
297.959
162.941
112.62
499.653
82.994
101.04
149.336
672.336
894.51
996.712
727.652
177.638
38.1699
99.7266
105.001
99.7159
95.4615
90.9946
86.721
82.4365
84.5438
79.7373
187.39
65.8358
-26.1671
14.8766
9.37159
8.87591
5.30155
0.900822
701.566
559.039
497.216
460.901
370.272
692.889
564.14
499.394
469.359
442.292
694.867
567.589
500.768
484.975
421.062
709.248
566.76
501.66
512.265
375.907
736.047
564.961
501.902
555.656
528.108
2690.84
1063.02
614.355
58.7978
187.425
183.538
151.876
152.589
165.53
170.611
186.843
236.294
426.056
454.12
426.468
320.885
157.741
98.3726
-73.9627
77.6897
132.246
419.638
983.738
1012.91
1076.79
987.452
246.464
18.7747
95.7351
106.954
101.01
96.3977
91.9432
87.6857
84.1431
84.7332
80.6943
152.308
29.4316
-19.9184
13.5509
12.1644
8.30565
4.58912
0.245989
1910.11
744.241
91.8624
81.49
184.281
181.498
150.265
152.93
172.557
184.087
206.133
265.639
349.885
403.652
397.267
257.223
174.339
109.152
-1.72632
84.2294
161.096
630.967
1101.74
1107.1
1106.31
1090.54
409.112
10.528
99.1556
109.059
103.007
97.9541
93.285
88.95
85.7068
85.4266
84.4813
122.556
51.6216
5.25689
13.6518
13.0132
7.76132
3.52429
-0.808793
1491.25
246.762
131.247
88.4697
162.363
172.326
153.073
161.053
179.392
193.736
218.83
276.433
328.932
380.558
369.305
235.797
183.628
115.255
36.533
85.5634
143.082
895.802
1107.23
1106.84
1105.93
1101.88
766.343
57.6982
109.663
111.596
104.97
99.2653
94.2473
89.845
86.9271
85.7791
85.9668
107.01
64.1288
23.0631
16.3857
12.9569
7.28397
2.78036
-1.33573
730.738
57.7573
-1.79985
88.537
145.657
164.925
154.104
165.534
185.426
202.612
229.847
277.753
298.951
361.719
328.891
237.065
179.544
116.732
52.171
80.9471
121.544
1017.42
1105.35
1106.25
1105.7
1102.45
917.696
149.115
121.922
115.281
107.3
100.929
95.6862
91.1339
88.077
86.5199
87.5849
99.2643
69.939
32.5138
17.8812
11.968
6.43679
2.04928
-1.71466
1609.11
569.868
48.3155
128.693
140.966
160.413
159.926
175.065
195.81
210.983
242.26
300.549
304.407
369.351
376.962
252.802
182.071
118.919
58.0302
72.4963
100.977
1070.89
1105.33
1105.94
1105.49
1101
1004.56
166.83
128.151
118.374
110.079
103.052
97.3159
92.3646
88.9922
86.6031
88.7795
97.4408
72.7562
35.5912
17.6578
10.9222
6.82837
1.50022
1.26929
)
;

boundaryField
{
    AirInlet
    {
        type            calculated;
        value           nonuniform List<scalar> 5(3878.37 3807.64 3779.72 3796.95 3911.34);
    }
    WaterInlet
    {
        type            calculated;
        value           nonuniform List<scalar> 10(635.786 608.761 594.174 591.997 600.478 701.548 692.874 694.857 709.242 736.045);
    }
    ChannelWall
    {
        type            calculated;
        value           nonuniform List<scalar> 
110
(
600.435
454.595
405.075
364.341
312.583
701.592
559.069
497.25
460.939
370.311
736.02
564.931
501.868
555.618
528.068
1609.07
569.828
48.276
128.65
140.922
160.369
159.882
175.021
195.766
210.939
242.216
300.505
304.364
369.308
376.918
252.758
182.027
118.875
57.986
72.4522
100.939
1070.89
1105.33
1105.94
1105.49
1101
1004.55
166.787
128.106
118.33
110.035
103.008
97.2718
92.3205
88.948
86.559
88.7354
97.3966
72.7121
35.5471
17.6137
10.8781
6.78422
1.45608
1.22518
635.811
459.901
406.076
400.882
396.251
740.112
191.306
285.461
230.179
172.229
157.765
150.569
140.629
131.25
117.831
125.486
84.6009
-4.84957
-53.5886
-31.6201
16.8722
65.8679
101.592
140.732
115.947
104.004
127.455
104.356
93.2904
113.626
106.009
122.804
111.451
99.5682
95.5511
92.7922
89.5183
85.5648
80.4856
73.0037
64.3414
63.4711
180.269
223.475
213.562
104.321
21.0481
14.8296
11.2017
5.79431
)
;
    }
    Outlet
    {
        type            calculated;
        value           nonuniform List<scalar> 
15
(
-0.0441368
-0.132403
-0.220673
-0.308946
-0.397221
-0.451186
-0.470814
-0.490437
-0.510062
-0.529685
-0.583633
-0.67189
-0.760159
-0.848425
-0.936043
)
;
    }
    FrontAndBack
    {
        type            empty;
    }
}


// ************************************************************************* //
