/*--------------------------------*- C++ -*----------------------------------*\
| =========                 |                                                 |
| \\      /  F ield         | OpenFOAM: The Open Source CFD Toolbox           |
|  \\    /   O peration     | Version:  2.3.0                                 |
|   \\  /    A nd           | Web:      www.OpenFOAM.org                      |
|    \\/     M anipulation  |                                                 |
\*---------------------------------------------------------------------------*/
FoamFile
{
    version     2.0;
    format      ascii;
    class       volScalarField;
    location    "0.036";
    object      p_rgh;
}
// * * * * * * * * * * * * * * * * * * * * * * * * * * * * * * * * * * * * * //

dimensions      [1 -1 -2 0 0 0 0];

internalField   nonuniform List<scalar> 
725
(
635.811
459.901
406.076
400.882
396.251
608.835
462.086
408.339
394.088
356.026
594.297
463.179
407.893
379.333
350.311
592.169
459.923
405.928
361.725
330.383
600.7
454.9
405.419
364.723
312.979
740.112
191.306
285.461
230.179
172.229
157.765
150.569
140.629
131.25
117.831
125.486
84.6009
-4.84957
-53.5886
-31.6201
16.8722
65.8679
101.592
140.732
115.947
104.004
127.455
104.356
93.2904
113.626
106.009
122.804
111.451
99.5682
95.5511
92.7922
89.5183
85.5648
80.4856
73.0037
64.3414
63.4711
180.269
223.475
213.562
104.321
21.0481
14.8296
11.2017
5.79431
599.616
182.517
313.219
212.444
166.388
154.195
149.773
141.697
133.293
119.849
109.241
62.1592
-10.873
-35.4195
-19.4025
15.2551
69.5049
109.043
146.766
122.612
103.274
118.017
97.8968
86.1327
119.87
107.014
126.633
111.525
98.5606
95.4004
92.7776
89.3657
85.2862
80.1676
72.7489
65.6603
47.7076
173.626
224.568
220.64
97.297
14.2332
12.9991
9.4819
5.25459
1029.9
314.543
368.521
209.958
154.542
142.599
147.263
140.81
136.806
124.668
118.178
80.2038
-22.0198
-100.954
-65.7531
20.668
78.771
113.172
166.392
114.897
89.541
104.345
92.5223
64.382
128.396
105.168
136.871
111.046
97.9934
96.8671
94.088
89.9017
85.8671
80.8678
74.0051
67.9029
57.5743
135.921
230.473
233.953
72.3161
9.83675
10.8086
8.49429
4.73526
1941.41
402.563
438.197
197.236
170.234
215.546
224.838
141.161
142.276
129.212
118.813
77.1263
-41.376
-120.022
-70.2608
32.2807
100.044
133.087
188.987
121.047
80.0228
77.0549
88.8148
32.8881
150.662
98.6143
153.74
103.319
95.7714
98.6351
95.4839
91.8253
87.3453
82.4043
76.1618
70.3143
57.7669
25.7148
239.382
248.055
26.1426
8.99501
10.1653
7.65666
3.98952
2734.91
807.933
443.934
162.913
141.141
173.826
200.031
162.792
149.197
141.965
148.495
107.837
-117.881
-206.439
-152.649
36.9501
110.711
132.447
232.831
106.758
80.9843
33.6984
151.708
291.233
434.829
175.408
169.515
88.467
95.8911
102.599
97.8645
93.4746
89.1363
84.4597
78.7685
74.7428
61.0249
-19.0266
257.938
171.94
6.03336
7.33495
9.54941
6.82664
3.03475
3610.89
843.73
389.509
85.9963
162.041
174.916
189.016
149.25
151.159
146.719
183.151
193.653
472.333
620.019
432.966
69.9747
143.314
120.126
302.718
98.1936
85.114
-29.2824
256.521
781.625
780.036
314.429
188.957
70.1547
99.9595
104.08
98.6871
94.5099
90.0802
85.6354
80.3868
80.0205
74.0823
252.264
251.812
94.7828
21.6366
9.35645
9.49356
6.48478
2.37548
3663.04
863.029
532.305
40.6648
163.328
175.403
183.087
166.497
156.583
149.183
194.768
204.294
457.109
603.637
419.52
76.816
157.157
117.586
320.582
93.2071
85.985
-94.4564
269.355
1007.07
849.493
417.096
176.161
62.6434
100.809
104.646
99.0434
94.8929
90.437
86.0653
81.0066
81.9277
75.4591
234.206
216.37
68.0254
24.8907
9.79955
9.42037
6.36249
2.13895
3726.15
1738.77
1172.49
8.3773
166.612
175.543
162.115
165.397
160.405
150.121
205.756
210.034
442.293
592.135
510.374
73.6886
161.594
111.508
335.474
93.3373
86.7273
-104.325
307.965
982.638
888.791
518.279
151.761
54.5663
100.575
105.234
99.4655
95.2689
90.7996
86.4752
81.6514
83.4441
76.5729
216.378
153.496
24.8904
22.5944
10.0799
9.62456
6.22811
1.90072
3667.98
1306.28
256.1
10.1546
173.653
177.396
160.944
158.298
162.585
328.517
250.921
212.537
499.122
735.123
679.738
418.969
164.196
272.218
358.978
87.8908
91.3496
45.2037
504.428
908.407
956.092
617.271
156.211
46.3074
100.569
104.901
99.8474
95.6375
91.162
86.8702
82.3024
84.5262
77.4897
201.679
105.66
-7.23953
17.1147
11.1015
9.63034
6.04248
1.66472
3652.71
1303.83
254.66
18.3387
179.979
180.542
157.322
156.953
164.148
206.579
256.711
220.987
481.727
452.409
450.466
298.482
163.461
113.142
500.177
83.5232
101.569
149.726
672.422
894.589
996.74
727.767
178.084
38.6995
100.256
105.531
100.246
95.9911
91.5243
87.2507
82.9662
85.0734
80.2671
187.92
66.3208
-25.6469
15.4063
9.90124
9.40559
5.83124
1.43051
702.308
559.746
497.888
461.537
370.833
693.684
564.908
500.134
470.072
442.977
695.715
568.417
501.577
485.764
421.832
710.15
567.65
502.538
513.132
376.761
737.001
565.912
502.849
556.598
528.992
2690.89
1063.24
614.926
59.3815
188.009
184.122
152.459
153.172
166.114
171.194
187.423
236.876
426.631
454.686
427.034
321.451
158.317
98.956
-73.379
78.2731
132.83
419.984
983.79
1012.94
1076.8
987.487
246.873
19.3582
96.3187
107.538
101.594
96.9813
92.5268
88.2693
84.7266
85.3168
81.2779
152.892
30.0152
-19.3347
14.1346
12.7481
8.88929
5.17275
0.829622
1910.28
744.559
92.4665
82.1619
184.952
182.17
150.936
153.602
173.229
184.759
206.805
266.311
350.556
404.305
397.919
257.881
175.009
109.824
-1.05435
84.9013
161.768
631.184
1101.75
1107.1
1106.31
1090.55
409.423
11.193
99.8275
109.731
103.679
98.6259
93.9568
89.6218
86.3786
86.0985
85.1532
123.228
52.2935
5.92881
14.3237
13.6851
8.43322
4.19619
-0.136903
1491.49
247.216
131.875
89.2299
163.123
173.086
153.833
161.814
180.152
194.496
219.59
277.194
329.691
381.296
370.042
236.548
184.388
116.015
37.2931
86.3237
143.836
895.884
1107.23
1106.85
1105.93
1101.89
766.514
58.4505
110.423
112.356
105.73
100.025
95.0075
90.6051
87.6873
86.5392
86.7269
107.771
64.889
23.8233
17.1459
13.717
8.04415
3.54053
-0.575571
731.158
58.3306
-1.06291
89.3747
146.506
165.773
154.953
166.382
186.274
203.46
230.696
278.602
299.791
362.543
329.719
237.91
180.392
117.58
53.0191
81.7957
122.326
1017.48
1105.35
1106.26
1105.71
1102.45
917.834
149.963
122.77
116.129
108.149
101.777
96.5347
91.9824
88.9255
87.3684
88.4334
100.113
70.7875
33.3622
18.7297
12.8164
7.28525
2.89773
-0.866234
1609.96
570.716
49.1535
129.599
141.902
161.349
160.861
176.001
196.745
211.919
243.194
301.478
305.334
370.279
377.896
253.738
183.008
119.855
58.9668
73.4332
101.777
1070.94
1105.34
1105.95
1105.49
1101
1004.68
167.729
129.087
119.311
111.016
103.988
98.2524
93.3011
89.9287
87.5398
89.7162
98.3775
73.6929
36.5279
18.5946
11.8591
7.76535
2.43701
2.20533
)
;

boundaryField
{
    AirInlet
    {
        type            fixedFluxPressure;
        gradient        nonuniform List<scalar> 5(2.67485e+07 1.44601e+07 5.35786e+06 1.28973e+07 2.58636e+07);
        value           nonuniform List<scalar> 5(3878.38 3807.64 3779.72 3796.95 3911.34);
    }
    WaterInlet
    {
        type            fixedFluxPressure;
        gradient        nonuniform List<scalar> 10(-0.119658 -23.7781 -14.3619 -3.46437 -70.1883 0.105732 -34.223 -0.0105284 -29.4357 -6.07091);
        value           nonuniform List<scalar> 10(635.811 608.835 594.297 592.169 600.699 702.308 693.684 695.715 710.149 737.001);
    }
    ChannelWall
    {
        type            fixedFluxPressure;
        gradient        uniform 0;
        value           nonuniform List<scalar> 
110
(
600.7
454.9
405.419
364.723
312.979
702.308
559.746
497.888
461.537
370.833
737.001
565.912
502.849
556.598
528.992
1609.96
570.716
49.1535
129.599
141.902
161.349
160.861
176.001
196.745
211.919
243.194
301.478
305.334
370.279
377.896
253.738
183.008
119.855
58.9668
73.4332
101.777
1070.94
1105.34
1105.95
1105.49
1101
1004.68
167.729
129.087
119.311
111.016
103.988
98.2524
93.3011
89.9287
87.5398
89.7162
98.3775
73.6929
36.5279
18.5946
11.8591
7.76535
2.43701
2.20533
635.811
459.901
406.076
400.882
396.251
740.112
191.306
285.461
230.179
172.229
157.765
150.569
140.629
131.25
117.831
125.486
84.6009
-4.84957
-53.5886
-31.6201
16.8722
65.8679
101.592
140.732
115.947
104.004
127.455
104.356
93.2904
113.626
106.009
122.804
111.451
99.5682
95.5511
92.7922
89.5183
85.5648
80.4856
73.0037
64.3414
63.4711
180.269
223.475
213.562
104.321
21.0481
14.8296
11.2017
5.79431
)
;
    }
    Outlet
    {
        type            totalPressure;
        rho             rho;
        psi             none;
        gamma           1;
        p0              uniform 0;
        value           uniform 0;
    }
    FrontAndBack
    {
        type            empty;
    }
}


// ************************************************************************* //
