/*--------------------------------*- C++ -*----------------------------------*\
| =========                 |                                                 |
| \\      /  F ield         | OpenFOAM: The Open Source CFD Toolbox           |
|  \\    /   O peration     | Version:  2.3.0                                 |
|   \\  /    A nd           | Web:      www.OpenFOAM.org                      |
|    \\/     M anipulation  |                                                 |
\*---------------------------------------------------------------------------*/
FoamFile
{
    version     2.0;
    format      ascii;
    class       volScalarField;
    location    "0.036";
    object      p_rgh;
}
// * * * * * * * * * * * * * * * * * * * * * * * * * * * * * * * * * * * * * //

dimensions      [1 -1 -2 0 0 0 0];

internalField   nonuniform List<scalar> 
725
(
-58.1662
-93.2995
-118.727
-95.3396
-191.325
-63.4364
-92.6584
-117.043
-84.6778
-186.699
-66.0142
-92.9735
-117.793
-88.5706
-214.217
-65.6095
-94.4209
-119.693
-106.087
-251.861
-62.5748
-96.3693
-120.218
-111.365
-209.93
-151.59
-509.999
-949.662
-910.537
-1116.15
-1174.78
-1179.5
-1150.04
-1142.52
-1137.47
-1133.78
-1133.66
-1133.94
-1133.68
-1132.08
-1128.84
-1120.83
-1107.99
-1084.39
-1013.95
-1130.45
-1137.62
-1136.15
-1136.92
-1134.76
-1178.57
-1222.83
-1248.92
-1241.48
-1239.57
-1239.77
-1241.96
-1245.03
-1248.31
-1251.89
-1256.4
-1261.73
-1270.92
-1277.8
-1310.36
-1329.43
-1476.97
-1618.6
-2906.92
181.651
-144.655
-527.828
-964.28
-860.664
-1116.55
-1240.3
-1190.3
-1150.52
-1142.21
-1136.63
-1134.73
-1134.49
-1134.39
-1133.82
-1132.41
-1129.61
-1122.82
-1112.2
-1087.2
-1034.04
-1130.98
-1137.14
-1136.11
-1136.93
-1138.51
-1210.21
-1236.54
-1254.47
-1242.49
-1240.43
-1240.8
-1243.01
-1246.05
-1249.25
-1252.69
-1257.02
-1262.04
-1270.53
-1276.62
-1306.02
-1315.19
-1424.32
-1449.26
-1815.19
-219.039
-47.8899
-600.396
-973.702
-892.184
-1157.43
-1186.55
-1169.93
-1145.59
-1140.31
-1136.98
-1135.21
-1134.55
-1134.5
-1134.16
-1133.02
-1130.88
-1125.73
-1118.49
-1098.91
-1070.01
-1128.16
-1137.1
-1136.21
-1136.72
-1141.14
-1254.65
-1263.45
-1262.53
-1244
-1240.45
-1240.53
-1242.39
-1245.07
-1248.38
-1252.11
-1256.48
-1261.18
-1268.89
-1273.35
-1298.03
-1293.61
-1356.87
-1235.67
-652.897
-319.526
-478.174
-277.924
-412.281
-671.786
-1149.23
-1162.56
-1149.78
-1139.69
-1137.65
-1135.84
-1134.95
-1134.66
-1134.54
-1134.43
-1133.77
-1132.66
-1129.58
-1126.71
-1114.93
-1093.45
-1114.89
-1137.8
-1136.53
-1135.77
-1147.53
-1444.24
-1317.8
-1263.25
-1242.89
-1239.57
-1240.37
-1242.58
-1245.38
-1248.46
-1251.69
-1255.42
-1259.21
-1266.08
-1268.98
-1289.03
-1273.2
-1305
-1123.36
-452.831
-382.285
-185.568
-232.055
-197.958
-628.05
-964.827
-1130.69
-1128
-1131.62
-1134.62
-1134.53
-1134.39
-1134.57
-1134.62
-1134.72
-1134.55
-1134.75
-1133.81
-1135.66
-1133.99
-1125.83
-1121.56
-1138.49
-1137.22
-1133.94
-1157.87
-1750.91
-1352.61
-1258.07
-1239.57
-1237.89
-1239.31
-1241.76
-1244.62
-1247.79
-1251.1
-1254.74
-1258.08
-1264.01
-1264.87
-1281.18
-1261.02
-1293.48
-1162.04
-965.012
-475.039
-231.746
-218.691
-194.48
-588.181
-938.771
-1128.45
-1120.44
-1128.5
-1133.31
-1133.79
-1134.09
-1134.58
-1134.74
-1134.97
-1135.23
-1135.97
-1135.96
-1141.38
-1146.39
-1215.85
-1163.24
-1136.5
-1142.86
-1139.64
-1159.54
-888.994
-1260.23
-1245.31
-1239.53
-1236.86
-1238.8
-1241.52
-1244.49
-1247.7
-1250.92
-1254.51
-1257.1
-1263.13
-1261.06
-1278.37
-1252.87
-1298.93
-1161.63
-1275.52
-104.233
-230.933
-219.053
-186.798
-603.582
-1098.08
-1138.28
-1118.88
-1127.4
-1132.85
-1133.56
-1134
-1134.61
-1134.78
-1135.06
-1135.4
-1136.35
-1136.64
-1143.59
-1148.66
-1222.06
-1143.22
-1136.21
-1153.06
-1142.13
-873.461
-245.12
-1236.79
-1241.46
-1236.53
-1236.31
-1238.58
-1241.41
-1244.41
-1247.61
-1250.82
-1254.39
-1256.75
-1262.69
-1259.87
-1277.12
-1250.42
-1301.18
-1163.62
-1380.26
25.5162
-231.002
-218.625
-180.061
-259.816
-1240.02
-1151.59
-1117.67
-1126.31
-1132.39
-1133.34
-1133.92
-1134.63
-1134.81
-1135.26
-1135.54
-1136.67
-1137.35
-1144.72
-1148.3
-1167.25
-1127.7
-1137.5
-1120.83
-1139.72
-978.423
-504.314
-1246.05
-1239.75
-1235.28
-1235.85
-1238.35
-1241.24
-1244.17
-1247.21
-1250.35
-1253.91
-1256.23
-1262.02
-1258.84
-1275.51
-1248.47
-1303.14
-1168.59
-1418.9
82.3333
-230.978
-218.576
-188.55
-570.633
-1130.97
-1144.84
-1115.8
-1125.14
-1131.79
-1133.15
-1133.88
-1132.66
-1134.35
-1135.31
-1135.66
-1136.96
-1138
-1140.84
-1148.09
-1108.33
-1091.88
-1138.83
-1150.54
-1135.81
-1009.05
-1041.24
-1270.67
-1239.77
-1233.92
-1235.32
-1238.11
-1241.05
-1243.99
-1247.12
-1250.33
-1253.89
-1256.12
-1261.6
-1258.02
-1273.8
-1246.87
-1304.93
-1176.63
-1431.3
68.1928
-231.121
-219.608
-196.665
-618.475
-1006.42
-1124.03
-1113.8
-1124.05
-1131.54
-1133
-1133.84
-1134.22
-1134.74
-1135.36
-1135.78
-1137.21
-1138.67
-1145
-1150.73
-1116.03
-1099.23
-1138.47
-1141.65
-1133.94
-997.871
-1411.28
-1274.74
-1236.1
-1232.57
-1234.81
-1237.9
-1240.86
-1244.09
-1247.28
-1250.43
-1253.87
-1256
-1261.08
-1257.39
-1271.95
-1245.93
-1306.5
-1186.17
-1489.49
81.2579
-317.143
-351.117
-373.732
-365.944
-403.876
-320.159
-349.293
-373.668
-365.338
-508.359
-320.584
-347.777
-371.124
-347.28
-451.87
-318.043
-347.656
-370.72
-351.146
-421.428
-312.761
-348.189
-371.065
-356.288
-407.864
-224.541
-229.056
-199.675
-745.761
-912.08
-1070.83
-1109.44
-1121.35
-1130.13
-1132.64
-1133.45
-1134.31
-1134.84
-1135.48
-1136.17
-1137.86
-1140.41
-1147.92
-1163.71
-1207.43
-1150.93
-1135.94
-1136.37
-1137.89
-1164.43
-1175.17
-1221.95
-1226.89
-1229.08
-1233.22
-1237.21
-1240.68
-1243.78
-1246.89
-1249.95
-1253.05
-1255.23
-1258.95
-1256.09
-1266.45
-1244.58
-1309.31
-1218.87
-1777.1
104.27
-687.019
-249.695
-394.674
-871.058
-1021.11
-1064.34
-1109.61
-1119.43
-1129.1
-1132.16
-1133.68
-1134.29
-1134.96
-1135.77
-1136.8
-1138.94
-1142.34
-1150.73
-1169.02
-1222.86
-1151.51
-1135.94
-1136.79
-1138.85
-1124.67
-1027.74
-1173.7
-1211.08
-1222.71
-1230.72
-1236.2
-1240.4
-1244.02
-1247.25
-1250
-1252.41
-1253.77
-1255.88
-1251.45
-1259.04
-1234.55
-1294.51
-1210.16
-1818.74
108.449
-86.5211
-715.646
-1196.9
-902.282
-1065.48
-1069.06
-1121.5
-1120.54
-1129.11
-1131.88
-1133.52
-1134.25
-1134.95
-1135.8
-1136.98
-1139.62
-1143.3
-1151.52
-1162.77
-1195.28
-1150.57
-1136.4
-1137.09
-1137.87
-1125.12
-1075
-1157.91
-1200.38
-1218.09
-1228.52
-1234.86
-1239.37
-1243.05
-1246.46
-1249.52
-1252.28
-1253.75
-1255.33
-1248.52
-1251.31
-1218.17
-1243.87
-1117.74
-1272.95
-18.0659
-456.001
-935.225
-963.667
-927.102
-1074.5
-1136.98
-1143.96
-1123.86
-1129.52
-1131.8
-1132.77
-1133.51
-1134.5
-1135.68
-1137.26
-1139.99
-1143.57
-1150.67
-1156.79
-1167.66
-1147.77
-1136.99
-1137.24
-1137.25
-1132.91
-1085.47
-1148.67
-1194.09
-1215
-1227.03
-1234.34
-1239.6
-1243.95
-1247.5
-1250.09
-1252.13
-1253.02
-1253.74
-1245.44
-1244.27
-1201.23
-1195.15
-1013.49
-650.029
-170.908
-363.52
-234.649
-1015.43
-911.859
-1196.16
-1136.95
-1141.08
-1124.85
-1129.69
-1131.82
-1132.96
-1133.51
-1133.98
-1135.04
-1136.73
-1139.68
-1143.1
-1149.74
-1153.33
-1150.19
-1141.28
-1137.53
-1137.42
-1137.16
-1135.96
-1082.03
-1144.4
-1191.88
-1213.86
-1225.74
-1232.94
-1238.2
-1242.58
-1246.18
-1248.79
-1250.83
-1251.59
-1252.02
-1242.6
-1239.01
-1189.04
-1164.24
-949.146
-414.098
-191.104
)
;

boundaryField
{
    AirInlet
    {
        type            fixedFluxPressure;
        gradient        nonuniform List<scalar> 5(-974.837 136728 -126885 141421 -14242.7);
        value           nonuniform List<scalar> 5(-231.756 -229.566 -232.271 -229.564 -231.263);
    }
    WaterInlet
    {
        type            fixedFluxPressure;
        gradient        nonuniform List<scalar> 10(-0.0027262 0.205966 -0.262145 -2.81172 -3.50834 0.00837102 -6.13954 -3.60321 -0.0216461 -16.0029);
        value           nonuniform List<scalar> 10(-58.1662 -63.4364 -66.0142 -65.6095 -62.5748 -317.143 -320.159 -320.584 -318.043 -312.761);
    }
    ChannelWall
    {
        type            fixedFluxPressure;
        gradient        uniform 0;
        value           nonuniform List<scalar> 
110
(
-62.5748
-96.3693
-120.218
-111.365
-209.93
-317.143
-351.117
-373.732
-365.944
-403.876
-312.761
-348.189
-371.065
-356.288
-407.864
-363.52
-234.649
-1015.43
-911.859
-1196.16
-1136.95
-1141.08
-1124.85
-1129.69
-1131.82
-1132.96
-1133.51
-1133.98
-1135.04
-1136.73
-1139.68
-1143.1
-1149.74
-1153.33
-1150.19
-1141.28
-1137.53
-1137.42
-1137.16
-1135.96
-1082.03
-1144.4
-1191.88
-1213.86
-1225.74
-1232.94
-1238.2
-1242.58
-1246.18
-1248.79
-1250.83
-1251.59
-1252.02
-1242.6
-1239.01
-1189.04
-1164.24
-949.146
-414.098
-191.104
-58.1662
-93.2995
-118.727
-95.3396
-191.325
-151.59
-509.999
-949.662
-910.537
-1116.15
-1174.78
-1179.5
-1150.04
-1142.52
-1137.47
-1133.78
-1133.66
-1133.94
-1133.68
-1132.08
-1128.84
-1120.83
-1107.99
-1084.39
-1013.95
-1130.45
-1137.62
-1136.15
-1136.92
-1134.76
-1178.57
-1222.83
-1248.92
-1241.48
-1239.57
-1239.77
-1241.96
-1245.03
-1248.31
-1251.89
-1256.4
-1261.73
-1270.92
-1277.8
-1310.36
-1329.43
-1476.97
-1618.6
-2906.92
181.651
)
;
    }
    Outlet
    {
        type            totalPressure;
        rho             rho;
        psi             none;
        gamma           1;
        p0              uniform 0;
        value           nonuniform List<scalar> 
15
(
0
-0.0456208
-0.11251
-7.72572
-2.9146
-0.00306396
-0.010174
-0.171464
-0.134562
0
0
0
0
-0.114144
-0.89549
)
;
    }
    FrontAndBack
    {
        type            empty;
    }
}


// ************************************************************************* //
