/*--------------------------------*- C++ -*----------------------------------*\
| =========                 |                                                 |
| \\      /  F ield         | OpenFOAM: The Open Source CFD Toolbox           |
|  \\    /   O peration     | Version:  2.3.0                                 |
|   \\  /    A nd           | Web:      www.OpenFOAM.org                      |
|    \\/     M anipulation  |                                                 |
\*---------------------------------------------------------------------------*/
FoamFile
{
    version     2.0;
    format      ascii;
    class       surfaceScalarField;
    location    "0.036";
    object      phi;
}
// * * * * * * * * * * * * * * * * * * * * * * * * * * * * * * * * * * * * * //

dimensions      [0 3 -1 0 0 0 0];

internalField   nonuniform List<scalar> 
1380
(
1.32822e-12
6.71776e-13
1.10611e-12
2.22112e-13
1.0703e-12
3.58116e-14
6.92657e-13
3.77644e-13
6.80609e-14
6.24596e-13
2.40769e-12
2.6409e-13
2.48658e-12
1.43222e-13
2.53733e-12
-1.49388e-14
2.34707e-12
5.67907e-13
-9.64525e-14
2.51158e-12
2.67482e-12
-4.10729e-13
2.93163e-12
-1.13585e-13
3.059e-12
-1.42313e-13
3.08649e-12
5.40419e-13
-9.48215e-13
3.93825e-12
2.34956e-12
-7.60292e-13
2.43647e-12
-2.0049e-13
2.46844e-12
-1.74286e-13
2.89023e-12
1.18632e-13
-2.544e-12
4.48601e-12
1.23971e-12
1.03922e-12
8.64932e-13
9.83563e-13
-1.56044e-12
4.28672e-12
-3.66212e-12
4.3712e-12
-8.44789e-14
2.74456e-12
1.62664e-12
9.85574e-13
1.75898e-12
4.12066e-13
5.73509e-13
5.03085e-13
-9.10193e-14
5.56904e-13
-5.38186e-14
4.58243e-13
9.86603e-14
3.23119e-13
1.35124e-13
3.38566e-13
-1.54457e-14
7.44665e-13
-4.06099e-13
8.71437e-13
-1.26772e-13
7.24662e-13
1.46775e-13
5.07897e-13
2.16764e-13
3.92925e-13
1.14973e-13
3.088e-13
8.41251e-14
1.88321e-13
1.20479e-13
1.37404e-13
5.09165e-14
1.87392e-13
-4.99876e-14
7.62179e-14
1.11174e-13
3.6294e-13
-2.86722e-13
1.08766e-12
-7.24718e-13
1.24419e-12
-1.5653e-13
1.36479e-12
-1.20605e-13
1.27536e-12
8.94314e-14
8.60289e-13
4.15073e-13
7.8452e-13
7.57691e-14
6.99998e-13
8.4522e-14
5.92186e-13
1.07813e-13
5.26173e-13
6.60135e-14
4.9278e-13
3.3393e-14
4.83102e-13
9.67737e-15
4.96454e-13
-1.33518e-14
5.40224e-13
-4.37702e-14
6.82743e-13
-1.42519e-13
1.04227e-12
-3.59531e-13
9.23297e-13
1.18976e-13
3.27131e-13
5.96166e-13
5.55086e-13
-2.27955e-13
8.76738e-13
-3.21652e-13
5.26093e-13
3.50645e-13
3.23415e-13
2.02678e-13
3.68924e-13
-4.55089e-14
4.54484e-13
-8.55604e-14
-6.73268e-14
7.0125e-12
-8.16304e-12
3.80538e-12
3.12264e-12
2.39327e-12
3.03874e-12
1.26021e-12
2.89204e-12
1.00507e-12
8.28655e-13
1.38727e-12
-4.73224e-13
1.54157e-12
-2.08118e-13
1.31076e-12
3.29475e-13
9.79038e-13
4.66841e-13
9.03669e-13
5.99227e-14
1.33415e-12
-8.3658e-13
1.55805e-12
-3.50671e-13
1.40256e-12
3.02267e-13
1.21886e-12
4.00465e-13
1.04458e-12
2.89248e-13
1.01486e-12
1.13846e-13
7.88548e-13
3.46792e-13
6.11714e-13
2.2775e-13
6.65782e-13
-1.04055e-13
4.58253e-13
3.18703e-13
1.01553e-12
-8.43998e-13
2.27155e-12
-1.98074e-12
2.74789e-12
-6.32863e-13
3.14436e-12
-5.17073e-13
3.07583e-12
1.57956e-13
2.43554e-12
1.05536e-12
2.16501e-12
3.46301e-13
1.83751e-12
4.12016e-13
1.56157e-12
3.83755e-13
1.40375e-12
2.2384e-13
1.31859e-12
1.18548e-13
1.28562e-12
4.26526e-14
1.29903e-12
-2.6764e-14
1.3537e-12
-9.84408e-14
1.49806e-12
-2.86882e-13
1.7269e-12
-5.88371e-13
1.23796e-12
6.07915e-13
5.37239e-13
1.29689e-12
8.80788e-13
-5.71504e-13
1.09607e-12
-5.36938e-13
7.26475e-13
7.20244e-13
7.897e-13
1.39453e-13
9.87323e-13
-2.43131e-13
1.18906e-12
-2.87293e-13
-1.90531e-13
5.92056e-12
-1.01453e-11
2.19659e-12
6.84661e-12
1.2193e-12
4.01602e-12
1.46702e-12
2.64433e-12
1.66705e-12
6.28623e-13
2.13947e-12
-9.45643e-13
2.40096e-12
-4.69612e-13
2.14105e-12
5.89387e-13
1.72502e-12
8.82878e-13
1.47504e-12
3.09894e-13
1.70007e-12
-1.06161e-12
2.17881e-12
-8.29407e-13
2.38884e-12
9.22354e-14
1.95307e-12
8.36233e-13
1.86971e-12
3.72613e-13
1.69046e-12
2.93093e-13
1.33871e-12
6.98543e-13
1.1412e-12
4.25261e-13
1.27892e-12
-2.41774e-13
9.46088e-13
6.51535e-13
1.34334e-12
-1.24125e-12
2.73426e-12
-3.37166e-12
3.31252e-12
-1.21112e-12
3.79604e-12
-1.0006e-12
3.80519e-12
1.48807e-13
3.19285e-12
1.66771e-12
3.12994e-12
4.09204e-13
2.69352e-12
8.48438e-13
2.32402e-12
7.53257e-13
2.11102e-12
4.36836e-13
1.99027e-12
2.39299e-13
1.93392e-12
9.90015e-14
1.93206e-12
-2.49022e-14
1.9636e-12
-1.29981e-13
2.02438e-12
-3.47658e-13
2.01738e-12
-5.81376e-13
1.67119e-12
9.54105e-13
7.30591e-13
2.23749e-12
8.69348e-13
-7.10261e-13
9.85352e-13
-6.52943e-13
1.01128e-12
6.94315e-13
1.27089e-12
-1.20155e-13
1.54811e-12
-5.20355e-13
1.78387e-12
-5.23046e-13
-3.2688e-13
4.31448e-12
-9.97381e-12
5.74558e-13
1.05865e-11
9.34205e-13
3.65638e-12
1.8684e-12
1.71013e-12
2.34606e-12
1.50958e-13
2.68907e-12
-1.28865e-12
3.04591e-12
-8.26452e-13
2.9078e-12
7.27495e-13
2.44677e-12
1.34391e-12
2.18685e-12
5.69813e-13
2.09694e-12
-9.71699e-13
2.49169e-12
-1.22416e-12
2.7811e-12
-1.97173e-13
2.4079e-12
1.20943e-12
2.3091e-12
4.71416e-13
2.17265e-12
4.29541e-13
1.82201e-12
1.04918e-12
1.65981e-12
5.8747e-13
1.98322e-12
-5.65186e-13
1.48989e-12
1.14486e-12
1.60342e-12
-1.35478e-12
2.84343e-12
-4.61167e-12
3.33036e-12
-1.69805e-12
3.34317e-12
-1.01341e-12
3.15535e-12
3.36625e-13
2.81301e-12
2.01005e-12
3.54114e-12
-3.18929e-13
3.22809e-12
1.16149e-12
2.86223e-12
1.11912e-12
2.63242e-12
6.66645e-13
2.49054e-12
3.81176e-13
2.4198e-12
1.69747e-13
2.39501e-12
-1.13943e-16
2.39883e-12
-1.33806e-13
2.39157e-12
-3.40397e-13
2.33364e-12
-5.23438e-13
2.22862e-12
1.05912e-12
1.09629e-12
3.36982e-12
8.74597e-13
-4.88571e-13
1.15279e-12
-9.31132e-13
1.4796e-12
3.67501e-13
1.79845e-12
-4.39001e-13
2.0674e-12
-7.89309e-13
2.26873e-12
-7.24379e-13
-4.36212e-13
-2.2551e-12
-9.27916e-12
7.92244e-13
7.5392e-12
3.90734e-12
5.41282e-13
3.55731e-12
2.06016e-12
3.18506e-12
5.23216e-13
3.54127e-12
-1.64486e-12
3.84865e-12
-1.13383e-12
3.64095e-12
9.35196e-13
3.14812e-12
1.83674e-12
2.68361e-12
1.03432e-12
2.44389e-12
-7.31973e-13
2.55641e-12
-1.33669e-12
2.64057e-12
-2.81332e-13
2.62832e-12
1.22168e-12
2.38594e-12
7.13795e-13
2.54237e-12
2.73113e-13
2.14099e-12
1.45057e-12
2.0133e-12
7.15155e-13
2.72696e-12
-1.27884e-12
2.1234e-12
1.74842e-12
1.9606e-12
-1.19198e-12
2.79797e-12
-5.44904e-12
3.14188e-12
-2.04196e-12
1.5849e-12
5.43578e-13
1.02732e-12
8.94204e-13
1.47992e-12
1.55744e-12
3.62726e-12
-2.46627e-12
3.4513e-12
1.33745e-12
3.11733e-12
1.45309e-12
2.91202e-12
8.71952e-13
2.79696e-12
4.96242e-13
2.72649e-12
2.40213e-13
2.6862e-12
4.01733e-14
2.66547e-12
-1.13074e-13
2.62346e-12
-2.98391e-13
2.56789e-12
-4.6786e-13
2.9016e-12
7.25405e-13
2.00932e-12
4.26211e-12
1.0238e-12
4.96943e-13
1.07885e-12
-9.86176e-13
1.72847e-12
-2.82122e-13
2.25486e-12
-9.65394e-13
2.50303e-12
-1.03747e-12
2.63209e-12
-8.53445e-13
-4.90815e-13
-1.50985e-13
-8.96817e-12
1.02198e-12
6.36624e-12
1.74764e-12
-1.8438e-13
1.22422e-12
2.58358e-12
8.77263e-13
8.70172e-13
8.47422e-13
-1.61502e-12
8.84425e-13
-1.17083e-12
8.38638e-13
9.80982e-13
7.56454e-13
1.91892e-12
6.99045e-13
1.09173e-12
5.4388e-13
-5.76807e-13
2.53204e-13
-1.04601e-12
4.02248e-13
-4.30377e-13
6.74256e-13
9.49669e-13
8.29449e-13
5.58602e-13
6.45617e-13
4.56944e-13
5.24322e-13
1.57186e-12
4.92687e-13
7.4679e-13
6.37658e-13
-1.42381e-12
5.80775e-13
1.8053e-12
5.08831e-13
-1.12004e-12
2.62489e-13
-5.2027e-12
6.81444e-13
-2.46092e-12
8.08613e-13
4.1641e-13
4.55585e-13
1.24723e-12
3.5318e-13
1.65985e-12
7.53473e-13
-2.86656e-12
7.59977e-13
1.33094e-12
6.77522e-13
1.53555e-12
6.44695e-13
9.04779e-13
6.30852e-13
5.10086e-13
6.19711e-13
2.51355e-13
6.11662e-13
4.82221e-14
6.04907e-13
-1.06319e-13
5.94048e-13
-2.87532e-13
5.5768e-13
-4.31492e-13
5.42914e-13
7.4017e-13
5.33304e-13
4.27172e-12
1.84806e-13
8.4544e-13
2.84694e-13
-1.08606e-12
4.78432e-13
-4.7586e-13
5.64811e-13
-1.05177e-12
6.00895e-13
-1.07356e-12
6.14143e-13
-8.66692e-13
-4.93483e-13
-2.88339e-12
-5.92478e-12
2.54941e-13
3.22791e-12
1.55456e-12
-1.484e-12
1.29033e-12
2.84781e-12
9.1087e-13
1.24963e-12
8.60934e-13
-1.56509e-12
8.75479e-13
-1.18538e-12
8.35462e-13
1.021e-12
7.76854e-13
1.97753e-12
7.11752e-13
1.15683e-12
5.7754e-13
-4.42596e-13
2.27026e-13
-6.95495e-13
3.6543e-13
-5.68781e-13
6.73798e-13
6.41301e-13
8.3337e-13
3.9903e-13
6.73333e-13
6.16981e-13
5.15351e-13
1.72984e-12
4.68602e-13
7.93539e-13
6.44009e-13
-1.59922e-12
6.26996e-13
1.82232e-12
5.96795e-13
-1.08983e-12
2.0959e-13
-4.81549e-12
8.61387e-13
-3.11272e-12
8.8951e-13
3.88287e-13
5.27926e-13
1.60882e-12
4.63853e-13
1.72392e-12
7.53888e-13
-3.1566e-12
7.48867e-13
1.33596e-12
6.66079e-13
1.61834e-12
6.4029e-13
9.30568e-13
6.31229e-13
5.19146e-13
6.22305e-13
2.6028e-13
6.14922e-13
5.56055e-14
6.07771e-13
-9.91682e-14
5.95337e-13
-2.75098e-13
5.43851e-13
-3.80006e-13
5.52442e-13
7.31579e-13
5.52584e-13
4.27158e-12
2.24723e-13
1.1733e-12
3.03377e-13
-1.16472e-12
5.01359e-13
-6.73843e-13
5.86597e-13
-1.13701e-12
6.15236e-13
-1.1022e-12
6.22558e-13
-8.74014e-13
-4.92803e-13
-7.48104e-12
1.71626e-12
-1.36729e-12
-2.88584e-12
1.21227e-12
-4.06357e-12
1.25735e-12
2.80273e-12
9.24614e-13
1.58237e-12
8.66628e-13
-1.5071e-12
8.54366e-13
-1.17312e-12
8.12296e-13
1.06307e-12
7.95023e-13
1.9948e-12
7.90602e-13
1.16126e-12
5.75058e-13
-2.27052e-13
2.31299e-13
-3.51735e-13
3.57012e-13
-6.94494e-13
6.2898e-13
3.69334e-13
8.05639e-13
2.2237e-13
6.68979e-13
7.53641e-13
4.9585e-13
1.90297e-12
4.45184e-13
8.44205e-13
6.47835e-13
-1.80187e-12
6.65981e-13
1.80417e-12
7.63312e-13
-1.18717e-12
3.95924e-13
-4.44811e-12
-2.29552e-13
-2.48724e-12
5.44492e-13
-3.85757e-13
5.73363e-13
1.57994e-12
5.08077e-13
1.7892e-12
7.49339e-13
-3.39786e-12
7.32264e-13
1.35304e-12
6.52223e-13
1.69838e-12
6.3357e-13
9.49221e-13
6.29116e-13
5.236e-13
6.22701e-13
2.66695e-13
6.16149e-13
6.21575e-14
6.08895e-13
-9.19143e-14
5.95204e-13
-2.61407e-13
5.37937e-13
-3.22739e-13
5.61798e-13
7.07718e-13
6.84908e-13
4.14847e-12
3.46052e-13
1.51216e-12
3.29596e-13
-1.14826e-12
5.25043e-13
-8.6929e-13
6.05012e-13
-1.21698e-12
6.28129e-13
-1.12532e-12
6.28707e-13
-8.74592e-13
-4.88832e-13
-5.59565e-12
7.47191e-12
4.3243e-13
-8.91392e-12
1.42254e-12
-5.05367e-12
1.19718e-12
3.02809e-12
9.21389e-13
1.85816e-12
8.60325e-13
-1.44604e-12
8.24967e-13
-1.13776e-12
7.93418e-13
1.09462e-12
7.89224e-13
1.999e-12
9.0502e-13
1.04546e-12
6.02098e-13
7.58695e-14
2.78653e-13
-2.82911e-14
3.6024e-13
-7.76081e-13
5.91573e-13
1.38001e-13
7.35748e-13
7.81949e-14
6.56771e-13
8.32618e-13
5.16887e-13
2.04286e-12
4.15251e-13
9.45841e-13
6.36694e-13
-2.02331e-12
6.89434e-13
1.75143e-12
9.11174e-13
-1.40891e-12
9.76467e-13
-4.5134e-12
-2.33268e-13
-1.27751e-12
7.59191e-14
-6.94944e-13
5.43076e-13
1.11279e-12
4.97201e-13
1.83508e-12
7.26185e-13
-3.62684e-12
7.13372e-13
1.36585e-12
6.37113e-13
1.77464e-12
6.24053e-13
9.62281e-13
6.24727e-13
5.22927e-13
6.20908e-13
2.70514e-13
6.15353e-13
6.77125e-14
6.08188e-13
-8.47494e-14
5.93634e-13
-2.46854e-13
5.36573e-13
-2.65677e-13
5.8051e-13
6.6378e-13
7.21619e-13
4.00736e-12
4.86596e-13
1.74718e-12
4.14153e-13
-1.07582e-12
5.55639e-13
-1.01078e-12
6.22282e-13
-1.28362e-12
6.38472e-13
-1.14151e-12
6.32558e-13
-8.68679e-13
-4.81576e-13
-9.75634e-13
8.60754e-12
1.56185e-12
-1.14514e-11
1.3673e-12
-4.85913e-12
1.12682e-12
3.26857e-12
9.0566e-13
2.07932e-12
8.2736e-13
-1.36774e-12
7.88492e-13
-1.09889e-12
7.61889e-13
1.12122e-12
7.80294e-13
1.98059e-12
8.60363e-13
9.6539e-13
6.38388e-13
2.97845e-13
3.18695e-13
2.91402e-13
4.37899e-13
-8.95286e-13
5.60243e-13
1.5658e-14
6.38691e-13
-2.53203e-16
6.78916e-13
7.92393e-13
5.96487e-13
2.12529e-12
4.41517e-13
1.10081e-12
6.11785e-13
-2.19358e-12
6.88283e-13
1.67493e-12
9.44584e-13
-1.66521e-12
1.46133e-12
-5.03014e-12
2.38563e-14
1.59963e-13
8.85916e-14
-7.5968e-13
3.27369e-13
8.74009e-13
4.2613e-13
1.73632e-12
7.04525e-13
-3.90524e-12
6.85658e-13
1.38472e-12
6.20908e-13
1.83939e-12
6.13636e-13
9.69552e-13
6.1804e-13
5.18523e-13
6.17003e-13
2.71551e-13
6.12561e-13
7.21541e-14
6.05785e-13
-7.79733e-14
5.90327e-13
-2.31396e-13
5.39635e-13
-2.14985e-13
5.78422e-13
6.24993e-13
7.51965e-13
3.83382e-12
5.86869e-13
1.91228e-12
5.06271e-13
-9.9522e-13
5.92351e-13
-1.09686e-12
6.39351e-13
-1.33062e-12
6.46513e-13
-1.14867e-12
6.33981e-13
-8.56147e-13
-4.71097e-13
1.23889e-12
7.61105e-13
1.04644e-12
1.92459e-13
8.67901e-13
1.78535e-13
9.48155e-13
-8.02527e-14
1.15347e-12
-2.05312e-13
2.35049e-12
4.10616e-13
2.44153e-12
1.01421e-13
2.43235e-12
1.87708e-13
2.84001e-12
-4.87905e-13
6.65437e-13
3.32803e-12
2.67653e-12
-2.65914e-13
2.93484e-12
-1.56893e-13
3.10649e-12
1.60579e-14
3.72002e-12
-1.10143e-12
-4.80236e-13
4.86569e-12
2.40843e-12
-6.74345e-13
2.48066e-12
-2.29117e-13
2.58224e-12
-8.55254e-14
2.73104e-12
-1.25023e-12
-9.96036e-13
3.24684e-12
1.32565e-12
1.09654e-12
1.01101e-12
-2.39219e-13
-1.23525e-12
8.65106e-13
7.53713e-12
2.73733e-12
-1.33236e-11
2.644e-12
-4.7658e-12
3.40119e-12
2.51139e-12
3.75016e-12
1.73035e-12
3.30323e-12
-9.20813e-13
2.92261e-12
-7.18271e-13
2.94569e-12
1.09815e-12
3.17821e-12
1.74806e-12
3.28005e-12
8.63553e-13
2.89404e-12
6.83852e-13
2.53538e-12
6.50068e-13
2.54764e-12
-9.07548e-13
2.25917e-12
3.04124e-13
2.02609e-12
2.32831e-13
2.82379e-12
-5.31086e-15
3.49688e-12
1.4522e-12
3.64084e-12
9.56847e-13
2.47336e-12
-1.0261e-12
2.85029e-12
1.298e-12
4.03703e-12
-2.85195e-12
4.12908e-12
-5.12219e-12
2.14254e-12
2.1465e-12
5.37366e-13
8.45498e-13
-5.21569e-13
1.93294e-12
1.54035e-13
1.06071e-12
2.63297e-12
-6.38417e-12
2.56947e-12
1.44821e-12
2.58207e-12
1.82679e-12
2.61819e-12
9.33429e-13
2.67312e-12
4.63601e-13
2.70204e-12
2.42623e-13
2.69827e-12
7.59303e-14
2.67291e-12
-5.26136e-14
2.595e-12
-1.53491e-13
2.48368e-12
-1.03659e-13
2.44507e-12
6.63605e-13
3.57837e-12
2.70051e-12
3.60836e-12
1.88229e-12
3.10592e-12
-4.92783e-13
3.14617e-12
-1.13711e-12
3.07022e-12
-1.25467e-12
2.96287e-12
-1.04132e-12
2.83443e-12
-7.27709e-13
-3.84256e-13
1.51212e-12
9.35304e-12
-2.31639e-12
-9.49512e-12
-9.1672e-13
-6.16547e-12
1.74675e-12
-1.52084e-13
2.51491e-12
9.62187e-13
2.06194e-12
-4.67841e-13
1.67069e-12
-3.27017e-13
1.89227e-12
8.7657e-13
2.3775e-12
1.26283e-12
2.5095e-12
7.31556e-13
2.44549e-12
7.47859e-13
2.53377e-12
5.61788e-13
2.24583e-12
-6.19604e-13
2.02509e-12
5.24862e-13
1.44881e-12
8.09113e-13
1.88862e-12
-4.45127e-13
3.01021e-12
3.30618e-13
3.45869e-12
5.08364e-13
2.71581e-12
-2.83223e-13
2.67325e-12
1.34056e-12
1.94026e-12
-2.11896e-12
-1.96236e-13
-2.98569e-12
2.40406e-12
-4.53796e-13
7.19806e-13
2.52975e-12
-2.14426e-12
4.79701e-12
-8.19042e-13
-2.64506e-13
4.11936e-13
-7.61515e-12
1.59821e-12
2.61945e-13
2.05885e-12
1.36614e-12
2.22816e-12
7.64121e-13
2.33938e-12
3.5238e-13
2.40571e-12
1.76292e-13
2.42314e-12
5.84986e-14
2.40547e-12
-3.49442e-14
2.34344e-12
-9.14605e-14
2.29068e-12
-5.08956e-14
2.39124e-12
5.63045e-13
3.35826e-12
1.73349e-12
3.85245e-12
1.3881e-12
3.62818e-12
-2.68515e-13
3.41092e-12
-9.19851e-13
3.10024e-12
-9.43977e-13
2.80322e-12
-7.44304e-13
2.5711e-12
-4.95584e-13
-2.52598e-13
3.59257e-12
1.06262e-11
-1.52783e-12
-4.37472e-12
-1.4389e-12
-6.2544e-12
5.40918e-13
-2.1319e-12
1.13606e-12
3.67046e-13
8.51523e-13
-1.83305e-13
6.59883e-13
-1.35377e-13
1.03288e-12
5.03572e-13
1.58299e-12
7.12716e-13
1.83554e-12
4.7901e-13
1.94762e-12
6.35778e-13
2.02121e-12
4.882e-13
1.99461e-12
-5.93009e-13
1.94488e-12
5.74596e-13
2.08352e-12
6.70471e-13
2.17475e-12
-5.36356e-13
2.55387e-12
-4.84988e-14
2.85426e-12
2.07968e-13
2.5703e-12
7.40088e-16
2.62853e-12
1.28234e-12
1.37813e-12
-8.68555e-13
8.71389e-12
-1.03215e-11
4.13081e-12
4.12929e-12
2.02962e-12
4.63095e-12
2.28787e-12
4.53876e-12
1.56128e-12
4.62092e-13
-7.11848e-13
-5.34203e-12
7.07431e-13
-1.15733e-12
1.42187e-12
6.51705e-13
1.72404e-12
4.61947e-13
1.86807e-12
2.08351e-13
1.9461e-12
9.82677e-14
1.97141e-12
3.31899e-14
1.95711e-12
-2.0653e-14
1.91159e-12
-4.59319e-14
1.89192e-12
-3.12254e-14
2.09858e-12
3.56383e-13
2.88304e-12
9.49029e-13
3.48249e-12
7.88644e-13
3.4092e-12
-1.95221e-13
3.08464e-12
-5.9529e-13
2.67675e-12
-5.36089e-13
2.32256e-12
-3.9011e-13
2.07082e-12
-2.43841e-13
-1.17187e-13
6.3464e-12
7.5266e-12
2.78325e-12
-8.11563e-13
6.97918e-13
-4.16907e-12
1.03366e-13
-1.53735e-12
3.14781e-13
1.5563e-13
1.26103e-13
5.3733e-15
5.66477e-14
-6.59225e-14
4.00528e-13
1.59691e-13
8.77725e-13
2.3552e-13
1.16013e-12
1.96602e-13
1.46315e-12
3.32765e-13
1.79612e-12
1.55222e-13
1.65394e-12
-4.50825e-13
1.69476e-12
5.33782e-13
1.93073e-12
4.34494e-13
1.82785e-12
-4.33471e-13
1.88987e-12
-1.10517e-13
2.05983e-12
3.80046e-14
2.05915e-12
1.41642e-15
2.68401e-12
6.57482e-13
1.77849e-12
3.69604e-14
-2.42048e-12
-6.12249e-12
-4.92772e-13
2.20158e-12
1.29763e-12
2.84054e-12
3.18999e-12
2.6464e-12
1.23568e-12
2.4164e-12
3.62977e-13
-4.46933e-12
2.47602e-13
-1.04196e-12
7.876e-13
1.11707e-13
1.10121e-12
1.48338e-13
1.2387e-12
7.08558e-14
1.30657e-12
3.04009e-14
1.32964e-12
1.01193e-14
1.3181e-12
-9.11648e-15
1.28551e-12
-1.33364e-14
1.27399e-12
-1.97082e-14
1.50692e-12
1.23454e-13
2.11969e-12
3.36258e-13
2.63952e-12
2.68813e-13
2.55979e-12
-1.1549e-13
2.19521e-12
-2.3071e-13
1.82515e-12
-1.66031e-13
1.54532e-12
-1.1028e-13
1.36468e-12
-6.31961e-14
-1.72821e-14
6.29134e-12
5.47978e-12
1.31071e-12
-2.26638e-13
-7.10076e-14
-6.56341e-14
-1.31556e-13
2.81345e-14
2.63655e-13
4.60257e-13
7.93022e-13
9.48244e-13
4.97419e-13
1.0312e-12
1.4657e-12
1.03222e-12
9.21707e-13
9.59712e-13
9.61128e-13
1.61861e-12
1.65557e-12
-4.46692e-12
-2.26534e-12
5.75205e-13
3.22161e-12
5.63801e-12
1.16868e-12
1.26722e-13
2.38429e-13
3.86767e-13
4.57623e-13
4.88023e-13
4.98143e-13
4.89026e-13
4.7569e-13
4.55982e-13
5.79436e-13
9.15694e-13
1.18451e-12
1.06902e-12
8.38307e-13
6.72276e-13
5.61996e-13
4.98799e-13
)
;

boundaryField
{
    AirInlet
    {
        type            calculated;
        value           nonuniform List<scalar> 5(-1.6e-13 -1.6e-13 -1.6e-13 -1.6e-13 -1.6e-13);
    }
    WaterInlet
    {
        type            calculated;
        value           nonuniform List<scalar> 10(-2e-12 -2e-12 -2e-12 -2e-12 -2e-12 -2e-12 -2e-12 -2e-12 -2e-12 -2e-12);
    }
    ChannelWall
    {
        type            calculated;
        value           uniform 0;
    }
    Outlet
    {
        type            calculated;
        value           nonuniform List<scalar> 
15
(
5.21811e-13
1.31226e-12
1.92021e-12
2.37807e-12
2.6867e-12
6.1681e-13
6.21878e-13
6.24736e-13
6.25302e-13
6.23502e-13
2.74759e-12
2.43944e-12
1.9354e-12
1.26477e-12
4.81517e-13
)
;
    }
    FrontAndBack
    {
        type            empty;
        value           nonuniform 0();
    }
}


// ************************************************************************* //
