/*--------------------------------*- C++ -*----------------------------------*\
| =========                 |                                                 |
| \\      /  F ield         | OpenFOAM: The Open Source CFD Toolbox           |
|  \\    /   O peration     | Version:  2.3.0                                 |
|   \\  /    A nd           | Web:      www.OpenFOAM.org                      |
|    \\/     M anipulation  |                                                 |
\*---------------------------------------------------------------------------*/
FoamFile
{
    version     2.0;
    format      ascii;
    class       surfaceScalarField;
    location    "0.036";
    object      phi;
}
// * * * * * * * * * * * * * * * * * * * * * * * * * * * * * * * * * * * * * //

dimensions      [0 3 -1 0 0 0 0];

internalField   nonuniform List<scalar> 
1380
(
3.10258e-13
1.89742e-13
2.73446e-13
3.68118e-14
1.92011e-13
8.14351e-14
-4.35413e-14
2.35553e-13
1.48363e-12
-1.52717e-12
5.96917e-13
9.28253e-14
5.79197e-13
5.4531e-14
4.12232e-13
2.484e-13
-4.5984e-13
1.10763e-12
3.7613e-12
-2.73751e-12
6.82917e-13
-9.00914e-14
7.03919e-13
3.35284e-14
6.70441e-13
2.81878e-13
1.45662e-13
1.6324e-12
3.80636e-12
1.00604e-13
6.01372e-13
-1.91463e-13
6.36029e-13
-1.12902e-15
8.06951e-13
1.10956e-13
1.72057e-12
7.18781e-13
5.30728e-13
4.9962e-12
3.08537e-13
3.07408e-13
4.18364e-13
1.13715e-12
1.66787e-12
-2.5481e-12
1.02093e-12
-7.44877e-13
-1.80322e-12
2.46356e-13
-9.91233e-13
2.51175e-12
-2.2654e-12
1.69183e-12
8.19926e-13
5.21758e-13
1.17007e-12
1.20305e-13
4.01453e-13
7.17216e-14
4.85838e-14
1.11015e-13
-3.92937e-14
1.44921e-13
-3.39062e-14
1.71226e-13
-2.63042e-14
1.67271e-13
3.95421e-15
1.52993e-13
1.42783e-14
1.34772e-13
1.82209e-14
1.17869e-13
1.6903e-14
9.14899e-14
2.63791e-14
5.95845e-14
3.19055e-14
4.70171e-14
1.25674e-14
-1.29728e-14
5.99899e-14
-4.38868e-13
4.25895e-13
-1.22453e-12
7.85658e-13
-9.25059e-13
-2.99467e-13
-2.44957e-13
-6.80101e-13
-1.45156e-12
1.20661e-12
-1.78319e-12
3.31624e-13
-9.17131e-13
-8.66054e-13
-4.37591e-13
-4.79541e-13
-1.93924e-13
-2.43666e-13
-3.42404e-14
-1.59684e-13
6.33277e-14
-9.75681e-14
1.08656e-13
-4.53281e-14
1.26227e-13
-1.75708e-14
1.30687e-13
-4.46016e-15
1.3316e-13
-2.47312e-15
1.37126e-13
-3.96642e-15
1.34833e-13
2.29364e-15
1.32859e-13
1.97333e-15
1.24353e-13
8.50649e-15
1.18537e-13
5.8158e-15
1.11338e-13
7.19869e-15
1.06402e-13
4.93663e-15
8.3216e-14
2.31858e-14
5.39534e-13
-4.56318e-13
3.74488e-12
-3.20535e-12
-2.86777e-12
-1.55192e-12
-1.64665e-13
2.68947e-12
-6.04461e-12
2.0639e-12
-3.65662e-13
-7.48116e-13
5.46621e-13
-7.75961e-13
8.47772e-13
6.89767e-14
3.25129e-13
2.47029e-13
2.23401e-13
2.53747e-13
4.18657e-14
3.2574e-13
-1.11286e-13
4.01199e-13
-1.09366e-13
4.3369e-13
-5.87951e-14
4.25848e-13
1.17963e-14
4.03115e-13
3.70115e-14
3.79437e-13
4.18987e-14
3.61027e-13
3.53134e-14
3.44388e-13
4.30174e-14
3.44351e-13
3.19431e-14
3.56734e-13
1.83556e-16
2.06302e-13
2.10422e-13
-5.65265e-13
1.19746e-12
-3.1886e-13
5.39253e-13
-3.2308e-13
-2.95245e-13
-1.25293e-13
-8.77888e-13
-1.58885e-12
2.67016e-12
-1.35217e-12
9.49421e-14
-6.81749e-13
-1.53647e-12
-3.09166e-13
-8.52124e-13
-2.41317e-14
-5.287e-13
1.70816e-13
-3.54632e-13
2.88089e-13
-2.14841e-13
3.41565e-13
-9.88041e-14
3.61321e-13
-3.73264e-14
3.65373e-13
-8.51208e-15
3.67954e-13
-5.05443e-15
3.71692e-13
-7.70504e-15
3.6839e-13
5.59533e-15
3.61664e-13
8.69966e-15
3.50199e-13
1.99717e-14
3.44433e-13
1.15821e-14
3.38327e-13
1.33044e-14
3.32623e-13
1.06412e-14
4.82707e-13
-1.26898e-13
7.30395e-13
-7.04006e-13
4.56755e-13
-2.93171e-12
-2.13476e-12
3.58735e-12
-3.65141e-12
1.22563e-11
-1.47135e-11
4.5853e-12
7.30531e-12
1.74932e-12
3.3826e-12
4.20762e-14
2.55502e-12
2.44932e-13
1.22273e-13
3.70768e-13
9.75655e-14
4.06758e-13
5.87574e-15
5.05272e-13
-2.098e-13
5.85541e-13
-1.89635e-13
6.16623e-13
-8.98768e-14
6.11675e-13
1.67443e-14
5.91079e-13
5.76069e-14
5.6734e-13
6.56376e-14
5.51875e-13
5.07788e-14
5.40796e-13
5.4096e-14
5.46743e-13
2.59967e-14
4.85665e-13
6.12607e-14
2.85738e-13
4.10349e-13
-2.10182e-13
1.69338e-12
6.68504e-13
-3.39433e-13
2.73307e-13
9.99529e-14
7.20472e-14
-6.7663e-13
-1.63571e-12
4.37791e-12
-1.06608e-12
-4.74686e-13
-1.53986e-13
-2.44856e-12
-3.18253e-14
-9.74285e-13
2.03566e-13
-7.64092e-13
3.85701e-13
-5.36767e-13
4.89124e-13
-3.18264e-13
5.33547e-13
-1.43227e-13
5.50596e-13
-5.43752e-14
5.58695e-13
-1.6612e-14
5.62069e-13
-8.42791e-15
5.62536e-13
-8.17223e-15
5.57997e-13
1.0134e-14
5.51536e-13
1.51606e-14
5.38948e-13
3.25596e-14
5.42052e-13
8.4788e-15
5.2947e-13
2.58864e-14
5.54289e-13
-1.4178e-14
5.94622e-13
-1.67232e-13
4.83367e-13
-5.92751e-13
-2.26367e-12
-1.84667e-13
-1.15775e-13
7.09723e-12
-5.75244e-12
7.60241e-12
-1.52187e-11
-1.16187e-12
1.60696e-11
-1.09974e-12
3.32047e-12
5.55036e-13
9.0024e-13
6.11515e-13
6.57936e-14
5.44649e-13
1.64431e-13
5.70816e-13
-2.02913e-14
6.5092e-13
-2.89904e-13
7.14573e-13
-2.53287e-13
7.37601e-13
-1.12905e-13
7.31913e-13
2.24319e-14
7.14351e-13
7.5169e-14
6.96766e-13
8.32228e-14
6.87447e-13
6.00979e-14
6.77521e-13
6.40219e-14
6.71953e-13
3.15654e-14
5.54865e-13
1.78348e-13
4.35506e-13
5.29708e-13
4.98411e-13
1.63048e-12
9.30074e-13
-7.71096e-13
4.4259e-13
5.87437e-13
7.44845e-13
-9.78884e-13
6.94129e-13
4.42863e-12
8.08848e-13
-5.89406e-13
1.89241e-13
-1.82896e-12
2.53916e-13
-1.03896e-12
4.12585e-13
-9.22761e-13
5.5805e-13
-6.82232e-13
6.29681e-13
-3.89895e-13
6.55616e-13
-1.69162e-13
6.67255e-13
-6.60134e-14
6.80673e-13
-3.00306e-14
6.93302e-13
-2.10568e-14
6.98884e-13
-1.37549e-14
6.97203e-13
1.1815e-14
6.98901e-13
1.34624e-14
6.86516e-13
4.49449e-14
6.95125e-13
-1.29635e-16
6.63803e-13
5.7208e-14
6.80644e-13
-3.10197e-14
4.89458e-13
2.3955e-14
-1.06111e-13
2.81742e-15
-2.05899e-12
1.76821e-12
-5.966e-14
7.08139e-12
-1.1166e-11
-6.05546e-12
-2.08186e-12
3.99201e-12
6.02213e-12
2.97167e-12
4.34081e-12
2.07033e-12
1.80158e-12
1.57956e-12
5.56569e-13
9.24233e-13
8.19754e-13
7.76124e-13
1.27817e-13
7.70882e-13
-2.84663e-13
7.91284e-13
-2.73689e-13
7.98419e-13
-1.2004e-13
7.90378e-13
3.04726e-14
7.82815e-13
8.27324e-14
7.75509e-13
9.05281e-14
7.70734e-13
6.48737e-14
7.64238e-13
7.0517e-14
7.53247e-13
4.25572e-14
6.83069e-13
2.48526e-13
7.87945e-13
4.24833e-13
1.09958e-12
1.31884e-12
3.20991e-13
7.49196e-15
1.65243e-12
-7.44002e-13
1.08507e-12
-4.1153e-13
-4.16188e-12
9.67558e-12
-4.40953e-12
-3.41755e-13
1.3378e-13
-6.37227e-12
4.5854e-13
-1.36372e-12
6.20442e-13
-1.08466e-12
7.10337e-13
-7.72128e-13
7.31129e-13
-4.10686e-13
7.30993e-13
-1.69026e-13
7.34291e-13
-6.9312e-14
7.4391e-13
-3.96497e-14
7.52432e-13
-2.95783e-14
7.54599e-13
-1.5922e-14
7.59038e-13
7.3756e-15
7.72406e-13
9.42786e-17
7.77873e-13
3.94785e-14
7.91145e-13
-1.34021e-14
7.59845e-13
8.85086e-14
7.74036e-13
-4.52109e-14
5.86497e-13
2.11494e-13
5.19204e-13
7.01101e-14
4.00619e-13
1.8868e-12
1.6511e-12
-1.70352e-12
-9.26244e-12
-2.31633e-12
-1.46906e-12
2.70709e-12
9.9871e-13
5.95841e-13
6.45206e-12
6.41608e-13
1.75581e-12
4.09099e-13
7.89079e-13
2.3364e-13
9.95213e-13
1.88538e-13
1.72919e-13
1.81531e-13
-2.77656e-13
1.78784e-13
-2.70942e-13
1.77374e-13
-1.1863e-13
1.75869e-13
3.19775e-14
1.75397e-13
8.3204e-14
1.7635e-13
8.95757e-14
1.75312e-13
6.59118e-14
1.77369e-13
6.84595e-14
1.70143e-13
4.9783e-14
1.73575e-13
2.45094e-13
2.2699e-13
3.71417e-13
7.0623e-13
8.39604e-13
1.9159e-12
-1.20218e-12
6.44489e-13
5.27413e-13
9.16839e-13
-6.8388e-13
2.2235e-12
8.36892e-12
1.4815e-12
4.00241e-13
2.94145e-13
-5.18491e-12
1.46957e-13
-1.21653e-12
1.64916e-13
-1.10262e-12
1.68987e-13
-7.76199e-13
1.70435e-13
-4.12133e-13
1.69259e-13
-1.67851e-13
1.70103e-13
-7.01564e-14
1.72413e-13
-4.19594e-14
1.74982e-13
-3.21472e-14
1.75511e-13
-1.64508e-14
1.78182e-13
4.70403e-15
1.7699e-13
1.28693e-15
1.866e-13
2.98685e-14
1.73333e-13
-1.34967e-16
1.89768e-13
7.2073e-14
1.56531e-13
-1.19738e-14
1.447e-13
2.23325e-13
-1.00768e-15
2.15818e-13
-5.49935e-13
2.43572e-12
1.22267e-12
-2.33176e-12
-6.73068e-12
-3.37585e-12
-4.24963e-13
-6.1857e-13
-1.75857e-12
-2.37601e-13
6.07109e-12
6.61513e-13
8.567e-13
4.22834e-13
1.02776e-12
2.40203e-13
1.17784e-12
1.93871e-13
2.19251e-13
1.84491e-13
-2.68276e-13
1.79272e-13
-2.65723e-13
1.76838e-13
-1.16196e-13
1.75343e-13
3.34727e-14
1.75431e-13
8.31157e-14
1.77001e-13
8.80055e-14
1.76284e-13
6.66291e-14
1.78529e-13
6.62138e-14
1.70854e-13
5.74589e-14
1.78455e-13
2.37493e-13
2.36309e-13
3.13563e-13
1.06789e-12
8.02565e-15
2.42111e-12
-2.5554e-12
4.58022e-13
2.4905e-12
7.7216e-13
-9.98018e-13
4.31511e-12
4.82597e-12
6.16364e-12
-1.44829e-12
4.30504e-13
5.48224e-13
1.53608e-13
-9.39634e-13
1.7174e-13
-1.12075e-12
1.73579e-13
-7.78038e-13
1.72916e-13
-4.11469e-13
1.71211e-13
-1.66146e-13
1.72085e-13
-7.103e-14
1.74478e-13
-4.43522e-14
1.77195e-13
-3.4865e-14
1.77813e-13
-1.70681e-14
1.80666e-13
1.85085e-15
1.79087e-13
2.86601e-15
1.89483e-13
1.94723e-14
1.74459e-13
1.48894e-14
1.94097e-13
5.2435e-14
1.54714e-13
2.74089e-14
1.57183e-13
2.20856e-13
-3.58729e-14
4.08874e-13
-6.62257e-13
3.06211e-12
7.73391e-13
-2.51664e-12
-4.01404e-12
-3.03293e-12
9.13178e-14
-1.04198e-11
5.62832e-12
-2.47238e-12
-1.87635e-12
4.79841e-13
-2.09552e-12
4.06707e-13
1.10089e-12
2.42914e-13
1.34164e-12
1.98104e-13
2.64061e-13
1.86667e-13
-2.5684e-13
1.79182e-13
-2.58238e-13
1.75716e-13
-1.1273e-13
1.74242e-13
3.49468e-14
1.74935e-13
8.24229e-14
1.76923e-13
8.60175e-14
1.76567e-13
6.69856e-14
1.78745e-13
6.40355e-14
1.71065e-13
6.51387e-14
1.81461e-13
2.27097e-13
2.24495e-13
2.70529e-13
5.15114e-13
-2.82593e-13
1.90377e-13
-2.23066e-12
4.97159e-13
2.18372e-12
1.25165e-13
-6.26023e-13
3.43177e-12
1.51937e-12
4.11044e-12
-2.12696e-12
2.5904e-13
4.39963e-12
1.51932e-13
-8.32526e-13
1.78631e-13
-1.14745e-12
1.77491e-13
-7.76898e-13
1.75045e-13
-4.09024e-13
1.72753e-13
-1.63855e-13
1.73561e-13
-7.18381e-14
1.75975e-13
-4.67656e-14
1.78795e-13
-3.76854e-14
1.79485e-13
-1.77584e-14
1.82321e-13
-9.84613e-16
1.80653e-13
4.53419e-15
1.91041e-13
9.08371e-15
1.76148e-13
2.97823e-14
1.95941e-13
3.26422e-14
1.57083e-13
6.62671e-14
1.69103e-13
2.08836e-13
1.0557e-14
5.6742e-13
-9.81006e-13
4.05367e-12
9.04453e-13
-2.53114e-12
-1.28289e-12
-4.00897e-12
1.56914e-12
-1.9708e-12
3.59016e-12
-1.48413e-12
-2.36303e-12
3.2875e-13
-3.9084e-12
3.69624e-13
1.06002e-12
2.41945e-13
1.46932e-12
2.0152e-13
3.04486e-13
1.8823e-13
-2.4355e-13
1.78846e-13
-2.48854e-13
1.74067e-13
-1.07951e-13
1.7264e-13
3.63738e-14
1.74128e-13
8.09356e-14
1.76478e-13
8.36673e-14
1.76414e-13
6.70493e-14
1.78743e-13
6.17067e-14
1.70526e-13
7.33556e-14
1.84488e-13
2.13134e-13
2.09141e-13
2.45877e-13
-1.13541e-13
4.00881e-14
-1.55168e-12
-7.92526e-13
1.40902e-16
6.31898e-13
-7.18901e-14
-5.53993e-13
-1.28499e-12
2.73246e-12
-3.35271e-12
-5.92442e-14
-4.01477e-14
1.08707e-12
1.48383e-13
-1.02106e-12
1.84829e-13
-1.1839e-12
1.80821e-13
-7.7289e-13
1.76401e-13
-4.04603e-13
1.73497e-13
-1.60951e-13
1.74188e-13
-7.25286e-14
1.76288e-13
-4.88656e-14
1.78653e-13
-4.00511e-14
1.79026e-13
-1.81306e-14
1.81589e-13
-3.54835e-15
1.79857e-13
6.26616e-15
1.90604e-13
-1.66328e-15
1.7628e-13
4.41061e-14
1.9673e-13
1.21922e-14
1.58953e-13
1.04045e-13
1.80033e-13
1.87757e-13
8.53083e-14
6.62144e-13
-8.63657e-13
5.00264e-12
1.0486e-12
-2.27518e-12
1.19229e-12
-3.44722e-12
2.74118e-12
4.13769e-13
-2.70826e-13
-2.2623e-13
-1.72303e-12
2.83054e-13
-4.41769e-12
3.16113e-13
1.02696e-12
2.37893e-13
1.54754e-12
2.03483e-13
3.38896e-13
1.8924e-13
-2.29306e-13
1.77951e-13
-2.37566e-13
1.72592e-13
-1.02592e-13
1.71395e-13
3.75708e-14
1.72825e-13
7.9506e-14
1.75412e-13
8.10801e-14
1.75612e-13
6.68489e-14
1.77884e-13
5.94349e-14
1.70829e-13
8.04109e-14
1.85641e-13
1.98322e-13
2.07916e-13
2.23603e-13
8.91451e-14
1.58859e-13
-8.66959e-13
1.63578e-13
-1.48337e-13
-8.6723e-14
-1.36774e-13
-5.65558e-13
-3.50461e-12
6.1003e-12
-3.71782e-12
1.53965e-13
-9.88032e-14
-2.53195e-12
1.5368e-13
-1.27354e-12
1.92516e-13
-1.22274e-12
1.83619e-13
-7.63993e-13
1.77254e-13
-3.98238e-13
1.7353e-13
-1.57227e-13
1.73599e-13
-7.25984e-14
1.75023e-13
-5.0289e-14
1.76981e-13
-4.20088e-14
1.77088e-13
-1.82377e-14
1.79254e-13
-5.71439e-15
1.77754e-13
7.76625e-15
1.88101e-13
-1.20103e-14
1.76112e-13
5.60943e-14
1.94108e-13
-5.80327e-15
1.63816e-13
1.34337e-13
1.82435e-13
1.69137e-13
1.02992e-13
7.41587e-13
-8.78147e-13
5.98378e-12
-3.99529e-14
3.05602e-13
1.94398e-13
2.896e-13
1.60019e-14
3.56894e-13
-6.72937e-14
8.63574e-13
-5.0668e-13
-1.83143e-14
8.81888e-13
5.98157e-13
9.62408e-14
6.11569e-13
2.58982e-15
7.16352e-13
-1.72076e-13
1.29379e-12
-1.08412e-12
-2.76589e-12
4.04136e-12
6.8252e-13
-8.6279e-14
6.98312e-13
-1.32025e-14
5.99862e-13
-7.36267e-14
-2.59901e-13
-2.24352e-13
-1.94842e-12
-1.07737e-12
6.00488e-13
-1.86767e-13
6.04999e-13
-1.77139e-14
5.37239e-13
-5.86659e-15
3.96726e-14
2.73214e-13
-6.58161e-13
-1.25059e-12
3.13233e-13
2.9552e-13
2.89653e-13
5.62867e-13
-9.52943e-14
-3.15832e-12
5.23249e-12
-1.21127e-11
1.16955e-11
-1.65442e-12
-1.07291e-11
1.63362e-12
-5.01107e-12
1.10437e-12
-3.88844e-12
9.13873e-13
1.21746e-12
9.70352e-13
1.49106e-12
9.42287e-13
3.66961e-13
8.48079e-13
-1.35098e-13
7.81952e-13
-1.71439e-13
7.50868e-13
-7.15071e-14
7.49278e-13
3.91601e-14
7.56301e-13
7.24831e-14
7.67646e-13
6.97352e-14
7.73941e-13
6.05537e-14
7.75905e-13
5.74716e-14
7.65494e-13
9.08218e-14
8.0101e-13
1.62805e-13
9.40962e-13
8.36511e-14
2.10381e-12
-1.00399e-12
3.38139e-12
-1.114e-12
1.70706e-12
1.5876e-12
1.30737e-12
-1.6587e-13
4.21502e-12
3.19266e-12
2.70605e-12
1.66293e-12
9.94123e-13
-8.20018e-13
9.50642e-13
-1.23006e-12
9.2199e-13
-1.19408e-12
8.54669e-13
-6.96673e-13
7.97601e-13
-3.41169e-13
7.73379e-13
-1.33005e-13
7.63818e-13
-6.30381e-14
7.64705e-13
-5.1175e-14
7.6826e-13
-4.55638e-14
7.66246e-13
-1.62237e-14
7.65267e-13
-4.73585e-15
7.75062e-13
-2.02847e-15
7.88676e-13
-2.56245e-14
8.12035e-13
3.2735e-14
7.88576e-13
1.76565e-14
8.26402e-13
9.65099e-14
7.98141e-13
1.97398e-13
1.0671e-12
4.72624e-13
5.30787e-12
1.74301e-12
-8.23276e-13
3.82326e-12
5.4506e-12
6.4459e-12
9.07287e-12
2.50083e-12
-6.78398e-12
3.14666e-13
-2.82491e-12
-2.88652e-13
-3.28512e-12
1.91164e-13
7.37642e-13
7.15211e-13
9.6701e-13
8.25272e-13
2.569e-13
7.55068e-13
-6.48942e-14
6.85986e-13
-1.02357e-13
6.46574e-13
-3.20944e-14
6.51996e-13
3.37379e-14
6.70255e-13
5.42238e-14
6.88384e-13
5.16067e-14
7.01468e-13
4.74695e-14
7.10679e-13
4.82608e-14
7.26583e-13
7.49175e-14
7.42781e-13
1.46607e-13
7.56249e-13
7.01832e-14
1.18853e-12
-1.43627e-12
2.64108e-12
-2.56654e-12
2.30293e-12
1.92575e-12
2.35155e-12
-2.14487e-13
4.15772e-12
1.3865e-12
2.35638e-12
3.46426e-12
1.39922e-12
1.37149e-13
1.21477e-12
-1.04561e-12
9.8146e-13
-9.60775e-13
8.30119e-13
-5.45332e-13
7.54481e-13
-2.65531e-13
7.26795e-13
-1.05319e-13
7.15668e-13
-5.19106e-14
7.1199e-13
-4.74977e-14
7.12653e-13
-4.62267e-14
7.14104e-13
-1.76744e-14
7.12528e-13
-3.15973e-15
7.13857e-13
-3.35768e-15
7.11531e-13
-2.32984e-14
7.24361e-13
1.99048e-14
7.06115e-13
3.59033e-14
7.48291e-13
5.43338e-14
7.58898e-13
1.8679e-13
1.21843e-12
1.30975e-14
8.60394e-12
-5.6425e-12
9.23337e-13
3.07027e-12
1.30295e-12
9.70566e-12
2.43748e-12
3.5434e-12
-6.21713e-13
1.97645e-12
-1.25796e-12
-9.03747e-13
-4.04929e-13
-3.28141e-13
1.62036e-13
4.40595e-13
1.98273e-13
6.12485e-13
8.50101e-14
5.83501e-13
-3.59098e-14
5.33359e-13
-5.22152e-14
5.08447e-13
-7.18317e-15
5.23006e-13
1.91794e-14
5.45608e-13
3.16213e-14
5.6436e-13
3.2855e-14
5.7994e-13
3.189e-14
5.96939e-13
3.1261e-14
6.23575e-13
4.82821e-14
6.57074e-13
1.13108e-13
6.31648e-13
9.56084e-14
3.10707e-13
-1.11533e-12
1.15029e-12
-3.40612e-12
1.0354e-12
2.04064e-12
4.68465e-13
3.52438e-13
5.44247e-13
1.31072e-12
9.84364e-13
3.02415e-12
1.46001e-12
-3.38501e-13
1.28139e-12
-8.66989e-13
9.52339e-13
-6.31721e-13
7.57848e-13
-3.50841e-13
6.64098e-13
-1.71781e-13
6.29825e-13
-7.1046e-14
6.13993e-13
-3.60784e-14
6.01649e-13
-3.51534e-14
5.87746e-13
-3.23243e-14
5.79502e-13
-9.42981e-15
5.75755e-13
5.86946e-16
5.72603e-13
-2.05394e-16
5.63642e-13
-1.43378e-14
5.71073e-13
1.24744e-14
5.81934e-13
2.50424e-14
6.05561e-13
3.07069e-14
6.65535e-13
1.26816e-13
8.27858e-13
-1.49226e-13
-8.77184e-13
-3.93746e-12
-1.59628e-12
9.62733e-13
-9.10366e-13
7.16163e-13
2.68405e-12
4.43191e-14
5.01313e-14
5.55011e-13
-1.76865e-12
-3.81764e-13
5.31846e-13
-3.17134e-14
-1.88015e-13
3.26893e-13
-1.60334e-13
3.99101e-13
1.28029e-14
3.74277e-13
-1.10861e-14
3.3863e-13
-1.65677e-14
3.34166e-13
-2.71979e-15
3.48971e-13
4.37425e-15
3.68189e-13
1.24034e-14
3.87889e-13
1.31548e-14
4.0601e-13
1.37698e-14
4.24253e-13
1.30181e-14
4.52781e-13
1.97538e-14
5.1851e-13
4.73795e-14
5.46603e-13
6.75152e-14
-9.10117e-14
-4.77716e-13
-1.31163e-12
-2.18551e-12
-6.49718e-13
1.37873e-12
-5.95322e-13
2.9804e-13
3.35191e-13
3.80204e-13
1.71516e-12
1.64418e-12
1.60989e-12
-2.33236e-13
1.1673e-12
-4.24396e-13
8.00662e-13
-2.65085e-13
5.91677e-13
-1.41857e-13
4.90067e-13
-7.01713e-14
4.49618e-13
-3.05963e-14
4.29445e-13
-1.59054e-14
4.08888e-13
-1.45969e-14
3.89508e-13
-1.29438e-14
3.83018e-13
-2.94004e-15
3.83562e-13
4.3143e-17
3.81879e-13
1.47759e-15
3.75115e-13
-7.57401e-15
3.7975e-13
7.83951e-15
4.06005e-13
-1.21258e-15
4.22176e-13
1.45364e-14
5.71295e-13
-2.23036e-14
5.93764e-13
-1.71694e-13
-2.99733e-12
-3.46367e-13
-2.90286e-13
-1.00566e-12
1.67839e-12
1.72852e-12
-4.01277e-14
4.91718e-13
3.03703e-13
1.4337e-13
1.56173e-13
1.45087e-13
1.28519e-13
1.25799e-13
1.30174e-13
1.42577e-13
1.55732e-13
1.69502e-13
1.8252e-13
2.02273e-13
2.49653e-13
3.17168e-13
-1.60548e-13
-2.34606e-12
-9.67328e-13
-6.69288e-13
-2.89086e-13
1.3551e-12
1.12186e-12
6.97465e-13
4.3238e-13
2.90523e-13
2.20352e-13
1.89756e-13
1.7385e-13
1.59254e-13
1.4631e-13
1.4337e-13
1.43413e-13
1.44891e-13
1.37317e-13
1.45156e-13
1.43944e-13
1.5848e-13
1.36176e-13
-3.55173e-14
-3.81885e-13
)
;

boundaryField
{
    AirInlet
    {
        type            calculated;
        value           nonuniform List<scalar> 5(-2e-13 -2e-13 -2e-13 -2e-13 -2e-13);
    }
    WaterInlet
    {
        type            calculated;
        value           nonuniform List<scalar> 10(-5e-13 -5e-13 -5e-13 -5e-13 -5e-13 -5e-13 -5e-13 -5e-13 -5e-13 -5e-13);
    }
    ChannelWall
    {
        type            calculated;
        value           uniform 0;
    }
    Outlet
    {
        type            calculated;
        value           nonuniform List<scalar> 
15
(
6.61265e-12
-2.76253e-13
-4.28266e-12
-2.11511e-12
-1.31014e-12
-1.21514e-13
-2.12974e-13
-1.11207e-12
-1.00781e-12
2.10408e-13
6.09119e-12
6.85733e-12
1.64243e-12
-4.30332e-12
-6.7217e-13
)
;
    }
    FrontAndBack
    {
        type            empty;
        value           nonuniform 0();
    }
}


// ************************************************************************* //
