/*--------------------------------*- C++ -*----------------------------------*\
| =========                 |                                                 |
| \\      /  F ield         | OpenFOAM: The Open Source CFD Toolbox           |
|  \\    /   O peration     | Version:  2.3.0                                 |
|   \\  /    A nd           | Web:      www.OpenFOAM.org                      |
|    \\/     M anipulation  |                                                 |
\*---------------------------------------------------------------------------*/
FoamFile
{
    version     2.0;
    format      ascii;
    class       volVectorField;
    location    "0.036";
    object      U;
}
// * * * * * * * * * * * * * * * * * * * * * * * * * * * * * * * * * * * * * //

dimensions      [0 1 -1 0 0 0 0];

internalField   nonuniform List<vector> 
725
(
(0.216846 0.0245763 -2.49306e-30)
(0.196561 0.00985742 4.35736e-31)
(0.154089 0.00280087 2.49741e-31)
(0.162873 0.00875146 0)
(-0.0459418 -0.000768232 1.48405e-30)
(0.379098 0.0518507 -1.20054e-29)
(0.405466 0.0384233 1.98326e-30)
(0.362759 0.0227072 8.1007e-31)
(0.35228 0.0481955 0)
(0.150657 0.0101429 7.37665e-30)
(0.416402 0.0378188 -5.35107e-30)
(0.465264 0.0473244 3.95425e-31)
(0.434961 0.0394611 7.02285e-32)
(0.41376 0.0707162 0)
(0.314639 0.0171832 7.85635e-30)
(0.375133 0.0173359 7.37593e-30)
(0.393039 0.0429802 1.27837e-31)
(0.361011 0.0411428 1.01565e-30)
(0.31933 0.0656033 0)
(0.438982 -0.0389084 3.86114e-29)
(0.20975 0.0109708 9.22617e-30)
(0.179788 0.0277042 -4.95716e-31)
(0.149196 0.0250622 4.76738e-31)
(0.052037 0.00862473 -4.40204e-31)
(0.236504 -0.0628817 2.98489e-29)
(0.260113 -0.0853759 0)
(0.55521 -0.0214999 0)
(0.44261 0.0234198 0)
(0.176258 0.0348407 0)
(0.0493873 0.0130907 0)
(0.0513011 0.000482305 0)
(0.0633456 -0.000193699 0)
(0.058814 0.0010313 0)
(0.0416528 0.00144253 0)
(0.0272057 -0.00030666 0)
(0.0586891 -0.00842098 0)
(0.0963326 -0.00178239 0)
(0.089848 0.00274179 0)
(0.0672143 0.00560252 0)
(0.0501998 0.0025228 0)
(0.0399282 0.00202217 0)
(0.0294361 0.00172614 0)
(0.0129395 2.77949e-05 0)
(0.0258613 -0.0022544 0)
(0.00599462 0.0022403 0)
(0.00924121 -0.00198194 0)
(0.0861067 -0.010256 0)
(0.135804 0.00145829 0)
(0.147796 -0.000464768 0)
(0.152862 0.0025196 0)
(0.119765 0.00774739 0)
(0.0874922 -0.00198187 0)
(0.0804328 -0.000377561 0)
(0.0710615 0.00124557 0)
(0.0615434 0.000705195 0)
(0.056033 0.000294677 0)
(0.0537521 2.26252e-05 0)
(0.0538705 -0.000254755 0)
(0.057228 -0.00087155 0)
(0.0618115 -0.00231155 0)
(0.100628 -0.00838864 0)
(0.121225 -0.000786207 0)
(0.0573237 0.0118596 0)
(0.0367992 -0.00440015 0)
(0.0912598 -0.0081775 0)
(0.0800413 0.00805111 0)
(0.0414551 0.00534085 0)
(0.0370398 -3.78324e-05 0)
(0.0455605 -0.000819151 0)
(0.0577264 -0.000930222 0)
(0.549493 -0.332289 0)
(0.714515 0.0284917 0)
(0.327977 0.122102 0)
(0.149925 0.129229 0)
(0.100497 0.0418537 0)
(0.13738 -0.0112523 0)
(0.174332 -0.00466174 0)
(0.165936 0.0101407 0)
(0.122902 0.0130734 0)
(0.0913624 -0.00125542 0)
(0.121313 -0.0336894 0)
(0.167789 -0.00986688 0)
(0.169256 0.0138147 0)
(0.143481 0.0142129 0)
(0.124845 0.0106805 0)
(0.118115 0.0044013 0)
(0.103936 0.0107263 0)
(0.0685787 0.00603244 0)
(0.0845035 -0.0032855 0)
(0.044017 0.00972434 0)
(0.0582707 -0.0289474 0)
(0.189027 -0.0635873 0)
(0.290205 -0.016569 0)
(0.333665 -0.0124262 0)
(0.357105 0.00838423 0)
(0.313974 0.0372382 0)
(0.252757 0.0097356 0)
(0.217454 0.0102403 0)
(0.18587 0.0102816 0)
(0.162899 0.00616193 0)
(0.149736 0.00317786 0)
(0.143503 0.000943794 0)
(0.142428 -0.00119696 0)
(0.14707 -0.00378256 0)
(0.151503 -0.0118555 0)
(0.19017 -0.0265621 0)
(0.182738 0.0155375 0)
(0.0763589 0.0468238 0)
(0.0670396 -0.0208554 0)
(0.12181 -0.0231719 0)
(0.0983528 0.0292306 0)
(0.0777556 0.0118152 0)
(0.0982287 -0.00551427 0)
(0.121057 -0.00837267 0)
(0.145568 -0.00598089 0)
(0.605823 -0.510677 0)
(0.539117 0.209829 0)
(0.0789631 0.204703 0)
(0.131312 0.15156 0)
(0.172285 0.0387109 0)
(0.216212 -0.0358852 0)
(0.264597 -0.0155976 0)
(0.264999 0.0239151 0)
(0.210131 0.0325839 0)
(0.166286 0.00784298 0)
(0.172186 -0.0506421 0)
(0.215202 -0.0283265 0)
(0.260724 0.0130822 0)
(0.24305 0.0307104 0)
(0.210981 0.0166598 0)
(0.203279 0.00936278 0)
(0.172861 0.0250803 0)
(0.126759 0.0160307 0)
(0.149504 -0.00781236 0)
(0.106661 0.0229805 0)
(0.101005 -0.0571665 0)
(0.225373 -0.131705 0)
(0.35162 -0.0477583 0)
(0.402316 -0.0404265 0)
(0.430995 0.00676991 0)
(0.397324 0.0684707 0)
(0.350381 0.0224469 0)
(0.321402 0.0327837 0)
(0.275718 0.027704 0)
(0.243527 0.0159239 0)
(0.225825 0.00851214 0)
(0.216484 0.00319942 0)
(0.213444 -0.00157674 0)
(0.216251 -0.00601215 0)
(0.217837 -0.0166933 0)
(0.235372 -0.0307947 0)
(0.220611 0.0401077 0)
(0.117778 0.0877612 0)
(0.073772 -0.0371028 0)
(0.104809 -0.0269068 0)
(0.108622 0.0390227 0)
(0.124132 0.00159109 0)
(0.157242 -0.0187012 0)
(0.1857 -0.0201459 0)
(0.213135 -0.0129338 0)
(0.567141 -0.495853 0)
(0.222209 0.465986 0)
(-0.0442895 0.224132 0)
(0.191884 0.11704 0)
(0.239067 0.018849 0)
(0.281426 -0.0569467 0)
(0.328309 -0.0312615 0)
(0.345473 0.0342193 0)
(0.294526 0.0551606 0)
(0.249664 0.0203842 0)
(0.233732 -0.0537585 0)
(0.247509 -0.0545781 0)
(0.296141 -0.00320934 0)
(0.293854 0.0532978 0)
(0.261851 0.0175119 0)
(0.253273 0.0204078 0)
(0.226795 0.0449171 0)
(0.181045 0.0259923 0)
(0.218183 -0.0173329 0)
(0.182464 0.0446765 0)
(0.145765 -0.0705199 0)
(0.237882 -0.206421 0)
(0.369772 -0.078005 0)
(0.379216 -0.0656904 0)
(0.355709 0.00248432 0)
(0.327633 0.106763 0)
(0.354681 0.0220727 0)
(0.38501 0.0549298 0)
(0.338425 0.0468362 0)
(0.301865 0.0277522 0)
(0.282604 0.0155896 0)
(0.27135 0.00662362 0)
(0.2663 -0.000919933 0)
(0.266176 -0.00687514 0)
(0.265092 -0.0176622 0)
(0.270211 -0.0281793 0)
(0.262529 0.0540166 0)
(0.186108 0.142493 0)
(0.0973133 -0.0411467 0)
(0.0909784 -0.0407123 0)
(0.150885 0.0311487 0)
(0.18635 -0.0115394 0)
(0.216584 -0.0326099 0)
(0.241611 -0.031927 0)
(0.264067 -0.0196768 0)
(-0.46266 -0.504948 0)
(-0.129442 0.592024 0)
(0.321432 0.102825 0)
(0.429405 0.0695623 0)
(0.355875 -0.0056616 0)
(0.36955 -0.0807558 0)
(0.417069 -0.0521411 0)
(0.433106 0.0412487 0)
(0.374358 0.0813289 0)
(0.318846 0.0413046 0)
(0.294942 -0.0467301 0)
(0.263074 -0.0811901 0)
(0.271538 -0.00836231 0)
(0.301755 0.0713359 0)
(0.286676 0.0381202 0)
(0.27771 0.0109563 0)
(0.264976 0.0618638 0)
(0.212714 0.0321703 0)
(0.279432 -0.0439036 0)
(0.266762 0.0757061 0)
(0.212391 -0.0654903 0)
(0.24752 -0.274812 0)
(0.34759 -0.0769112 0)
(0.322901 -0.0165725 0)
(0.0810438 0.0304093 0)
(0.0945596 0.0798313 0)
(0.304636 -0.0625592 0)
(0.424294 0.0655303 0)
(0.36574 0.0647766 0)
(0.329583 0.0396564 0)
(0.3158 0.0228642 0)
(0.306074 0.0106579 0)
(0.299955 0.00101959 0)
(0.297204 -0.00631229 0)
(0.294279 -0.016123 0)
(0.293232 -0.0258348 0)
(0.298683 0.0432114 0)
(0.297275 0.196566 0)
(0.17496 -0.00489696 0)
(0.0620528 -0.0456965 0)
(0.163692 0.00591068 0)
(0.230333 -0.0360417 0)
(0.267749 -0.0469487 0)
(0.286987 -0.0407425 0)
(0.298437 -0.0240672 0)
(-0.419343 -0.5004 0)
(0.031507 0.381838 0)
(0.928369 0.0162286 0)
(0.804574 0.114787 0)
(0.459015 0.0339321 0)
(0.414202 -0.0817397 0)
(0.435785 -0.0579249 0)
(0.444542 0.0478461 0)
(0.395815 0.0941875 0)
(0.35745 0.0534588 0)
(0.348713 -0.0330475 0)
(0.168644 -0.0598443 0)
(0.115046 -0.0177926 0)
(0.283294 0.0547376 0)
(0.395949 0.0322073 0)
(0.387963 0.0182981 0)
(0.293115 0.0751923 0)
(0.218163 0.03645 0)
(0.296064 -0.0669587 0)
(0.315387 0.0890633 0)
(0.277688 -0.0574185 0)
(0.196885 -0.268211 0)
(0.14028 -0.11301 0)
(0.492128 0.0285095 0)
(0.340348 0.0525522 0)
(0.0654069 0.0794551 0)
(0.311492 -0.134582 0)
(0.420113 0.0665398 0)
(0.35154 0.0748095 0)
(0.325263 0.0445084 0)
(0.318665 0.0252219 0)
(0.3123 0.0123192 0)
(0.307396 0.0022172 0)
(0.304322 -0.00548684 0)
(0.300228 -0.014666 0)
(0.294545 -0.0226021 0)
(0.250973 0.036849 0)
(0.31668 0.213875 0)
(0.177988 0.0335445 0)
(0.0502061 -0.0521408 0)
(0.20876 -0.0188329 0)
(0.271257 -0.0504283 0)
(0.295036 -0.0528673 0)
(0.305729 -0.0430838 0)
(0.308389 -0.0246521 0)
(-3.02001 -0.351507 0)
(-0.201991 0.242846 0)
(0.717168 -0.0401928 0)
(0.796622 0.134833 0)
(0.479186 0.0532237 0)
(0.426826 -0.0797915 0)
(0.435267 -0.0591712 0)
(0.438772 0.0500843 0)
(0.396856 0.0977017 0)
(0.369664 0.05682 0)
(0.372473 -0.0261622 0)
(0.16266 -0.0442415 0)
(0.0921718 -0.0247743 0)
(0.273817 0.040186 0)
(0.401177 0.0244164 0)
(0.40052 0.0265418 0)
(0.297016 0.0824144 0)
(0.206365 0.0382418 0)
(0.28811 -0.0752991 0)
(0.329229 0.0911853 0)
(0.312609 -0.0546172 0)
(0.239313 -0.251003 0)
(0.0767486 -0.140648 0)
(0.546534 0.0253655 0)
(0.452524 0.0720879 0)
(0.108303 0.0841507 0)
(0.333986 -0.151802 0)
(0.415784 0.0665563 0)
(0.343264 0.0788378 0)
(0.321744 0.0459504 0)
(0.318062 0.0257905 0)
(0.313258 0.0128191 0)
(0.309029 0.00260673 0)
(0.30593 -0.00514113 0)
(0.30154 -0.0140773 0)
(0.294496 -0.0203733 0)
(0.241059 0.0366612 0)
(0.326147 0.214432 0)
(0.198237 0.0502725 0)
(0.0641706 -0.0566594 0)
(0.218254 -0.0288442 0)
(0.283196 -0.0548297 0)
(0.303919 -0.0544807 0)
(0.311484 -0.0435974 0)
(0.310939 -0.0246994 0)
(-4.44922 -0.029215 0)
(-1.01809 0.0118321 0)
(0.279714 -0.141969 0)
(0.695042 0.141875 0)
(0.483267 0.071587 0)
(0.43547 -0.0769976 0)
(0.42923 -0.059224 0)
(0.424897 0.0521576 0)
(0.390787 0.0997245 0)
(0.398314 0.0583989 0)
(0.399716 -0.0170607 0)
(0.157985 -0.0264291 0)
(0.0926347 -0.0317487 0)
(0.260684 0.0248438 0)
(0.378662 0.0153253 0)
(0.390962 0.0348121 0)
(0.29774 0.0910305 0)
(0.1945 0.0406423 0)
(0.276752 -0.0852965 0)
(0.338307 0.0911987 0)
(0.355309 -0.055817 0)
(0.368246 -0.230697 0)
(-0.0469539 -0.14514 0)
(0.00160139 0.00262529 0)
(0.399647 0.0866871 0)
(0.153175 0.0885205 0)
(0.340866 -0.164146 0)
(0.406552 0.0670534 0)
(0.333916 0.0829847 0)
(0.316918 0.0470704 0)
(0.316147 0.0261253 0)
(0.313062 0.0132076 0)
(0.309618 0.00295646 0)
(0.306562 -0.00477761 0)
(0.302012 -0.013426 0)
(0.293736 -0.0175936 0)
(0.237281 0.0360197 0)
(0.357171 0.211254 0)
(0.269661 0.0677081 0)
(0.109972 -0.0584724 0)
(0.224804 -0.0389611 0)
(0.293359 -0.0589931 0)
(0.311759 -0.0557718 0)
(0.316268 -0.0437903 0)
(0.312379 -0.0245826 0)
(-4.60438 0.0659404 0)
(-0.163794 -0.28953 0)
(0.685299 -0.235359 0)
(0.708786 0.145597 0)
(0.478449 0.0872367 0)
(0.43736 -0.0739154 0)
(0.418151 -0.0580543 0)
(0.409903 0.0540196 0)
(0.381437 0.100158 0)
(0.430213 0.0556023 0)
(0.43564 -0.00383809 0)
(0.174609 -0.00896366 0)
(0.114363 -0.037402 0)
(0.253357 0.0116756 0)
(0.342151 0.00687638 0)
(0.363999 0.0406317 0)
(0.308744 0.0993881 0)
(0.196111 0.044605 0)
(0.260553 -0.0971213 0)
(0.335564 0.0892464 0)
(0.387414 -0.0636828 0)
(0.520904 -0.224383 0)
(0.210588 -0.100196 0)
(-0.192653 -0.0275146 0)
(0.273188 0.0733005 0)
(0.170698 0.0906601 0)
(0.329361 -0.174688 0)
(0.39519 0.0679125 0)
(0.324205 0.0869762 0)
(0.310952 0.0478588 0)
(0.312936 0.0262112 0)
(0.311729 0.0134648 0)
(0.30916 0.00326022 0)
(0.306214 -0.00441369 0)
(0.301655 -0.0127168 0)
(0.292633 -0.0146544 0)
(0.237554 0.0342349 0)
(0.367266 0.204538 0)
(0.320394 0.0823938 0)
(0.178027 -0.0562371 0)
(0.245845 -0.0475256 0)
(0.304331 -0.062735 0)
(0.318557 -0.0567627 0)
(0.319803 -0.0436512 0)
(0.312674 -0.0243008 0)
(-1.51899 0.520478 0)
(0.398312 -0.537063 0)
(0.811614 -0.254463 0)
(0.683906 0.158317 0)
(0.466085 0.0997893 0)
(0.428611 -0.0702553 0)
(0.398623 -0.0561718 0)
(0.390236 0.0554221 0)
(0.369552 0.0996402 0)
(0.421583 0.0505569 0)
(0.425915 0.00952981 0)
(0.196375 0.00705178 0)
(0.156402 -0.0424278 0)
(0.262407 0.00286148 0)
(0.302434 0.00107681 0)
(0.334782 0.041542 0)
(0.337247 0.105093 0)
(0.233881 0.0506483 0)
(0.2611 -0.106053 0)
(0.318555 0.0856012 0)
(0.395621 -0.0763882 0)
(0.580495 -0.234289 0)
(0.471323 -0.0325897 0)
(-0.170097 -0.0436833 0)
(0.201703 0.0524794 0)
(0.142056 0.0889634 0)
(0.30152 -0.188049 0)
(0.385214 0.0686434 0)
(0.314194 0.090405 0)
(0.304107 0.0483809 0)
(0.308813 0.0260886 0)
(0.309307 0.0135859 0)
(0.307673 0.00351378 0)
(0.304899 -0.00406129 0)
(0.30048 -0.0119572 0)
(0.290981 -0.0119672 0)
(0.240235 0.0322948 0)
(0.365506 0.196208 0)
(0.352991 0.0926665 0)
(0.242576 -0.0519295 0)
(0.273263 -0.053449 0)
(0.315366 -0.0656904 0)
(0.324337 -0.0574285 0)
(0.322039 -0.0432271 0)
(0.31179 -0.0238653 0)
(0.208536 -0.0106561 0)
(0.183013 -0.0286891 -1.05184e-31)
(0.139789 -0.0227853 -1.70154e-31)
(0.0733407 -0.0119972 1.40391e-30)
(0.190018 0.0168248 0)
(0.372756 -0.0169718 0)
(0.399095 -0.0443395 0)
(0.341977 -0.0369715 0)
(0.333631 -0.0616054 3.11673e-30)
(0.401262 0.000571925 0)
(0.413455 -0.0375588 0)
(0.472833 -0.0487973 0)
(0.412507 -0.0357136 0)
(0.475457 -0.0895808 5.9681e-30)
(0.432284 -0.0440669 0)
(0.376166 -0.0517874 0)
(0.412503 -0.0395163 0)
(0.33355 -0.0223255 0)
(0.429406 -0.0957504 -5.12009e-30)
(0.173764 -0.0674318 0)
(0.215015 -0.0247073 0)
(0.2 -0.00962303 0)
(0.126656 -0.00524629 0)
(0.203523 -0.0332772 -3.02167e-30)
(-0.334529 -0.00312956 0)
(-0.0781681 0.413348 0)
(0.193177 -0.746707 0)
(0.189159 -0.188608 0)
(0.450411 0.199366 0)
(0.410999 0.115591 0)
(0.386339 -0.0572993 0)
(0.33497 -0.0480758 0)
(0.325501 0.057917 0)
(0.333688 0.0962627 0)
(0.369392 0.0423122 0)
(0.363116 0.0343332 0)
(0.287221 0.0407186 0)
(0.276379 -0.0499865 0)
(0.280079 -0.00136399 0)
(0.225055 -0.0039674 0)
(0.24462 0.0225078 0)
(0.367829 0.103656 0)
(0.404064 0.0647548 0)
(0.343558 -0.0903338 0)
(0.275621 0.0733852 0)
(0.378277 -0.114394 0)
(0.452954 -0.241107 0)
(0.394756 0.0915396 0)
(0.059546 -0.0360182 0)
(-0.0268104 -0.00621425 0)
(-0.0608825 0.0820402 0)
(0.171911 -0.254469 0)
(0.339078 0.0693486 0)
(0.284525 0.0957544 0)
(0.282779 0.0491201 0)
(0.29454 0.0253802 0)
(0.29974 0.0135321 0)
(0.300789 0.00408216 0)
(0.29853 -0.00312746 0)
(0.29472 -0.00964288 0)
(0.283366 -0.00653072 0)
(0.250376 0.0307589 0)
(0.343744 0.1676 0)
(0.403783 0.108443 0)
(0.378682 -0.0347525 0)
(0.346773 -0.0613144 0)
(0.344073 -0.0692953 0)
(0.335525 -0.057457 0)
(0.323179 -0.0411088 0)
(0.305386 -0.0221624 0)
(0.34336 0.393939 0)
(-0.0736848 -0.610332 0)
(-0.393516 -0.299656 0)
(0.16337 0.0580709 0)
(0.279756 0.060808 0)
(0.248808 -0.0359415 0)
(0.189539 -0.0225175 0)
(0.19236 0.0547494 0)
(0.23949 0.0777164 0)
(0.279546 0.0403808 0)
(0.279749 0.0393512 0)
(0.275949 0.0314693 0)
(0.269411 -0.0370315 0)
(0.248863 0.0250507 0)
(0.178483 0.0297032 0)
(0.162203 -0.0203248 0)
(0.272671 0.0399827 0)
(0.372311 0.037449 0)
(0.354517 -0.0247434 0)
(0.289796 0.0680609 0)
(0.29965 -0.137 0)
(0.18094 -0.239721 0)
(0.0473715 0.0804658 0)
(0.197002 0.1063 0)
(-0.178892 0.156639 0)
(-0.134205 -0.0288661 0)
(-0.0669514 -0.378755 0)
(0.178311 0.0511675 0)
(0.205242 0.0845913 0)
(0.234489 0.043659 0)
(0.254851 0.0208101 0)
(0.265049 0.0107736 0)
(0.269539 0.00357305 0)
(0.268414 -0.00210412 0)
(0.266141 -0.00597748 0)
(0.253678 -0.00344226 0)
(0.248086 0.0312956 0)
(0.314791 0.111323 0)
(0.406943 0.0853791 0)
(0.42968 -0.0157249 0)
(0.39867 -0.0511619 0)
(0.360536 -0.0567601 0)
(0.32529 -0.0460956 0)
(0.29787 -0.0314185 0)
(0.271222 -0.0162499 0)
(0.524978 0.499768 0)
(0.174449 -0.334019 0)
(-0.368193 -0.337869 0)
(-0.023466 -0.0783036 0)
(0.127892 0.0263139 0)
(0.106728 -0.0156104 0)
(0.0670675 -0.00855366 0)
(0.0867917 0.036812 0)
(0.150456 0.0489358 0)
(0.194696 0.0308121 0)
(0.212274 0.036927 0)
(0.222851 0.0274685 0)
(0.22597 -0.0295316 0)
(0.222204 0.0297459 0)
(0.217897 0.0426959 0)
(0.23356 -0.0258796 0)
(0.25595 -0.000625405 0)
(0.302446 0.0141725 0)
(0.304394 -0.00449452 0)
(0.289294 0.0699821 0)
(0.289507 -0.0741184 0)
(0.0969038 -0.319706 0)
(1.12579 0.0310544 0)
(0.358425 0.207747 0)
(0.17319 0.25809 0)
(0.375408 0.0206635 0)
(-0.144198 -0.341786 0)
(0.0393848 -0.0218531 0)
(0.123169 0.0527424 0)
(0.17619 0.0316223 0)
(0.201514 0.0141473 0)
(0.213321 0.00680046 0)
(0.219046 0.00226682 0)
(0.218342 -0.00137806 0)
(0.217251 -0.00328724 0)
(0.205421 -0.00184823 0)
(0.213728 0.0235741 0)
(0.270478 0.0662141 0)
(0.359902 0.0531675 0)
(0.397687 -0.0114989 0)
(0.370388 -0.0380461 0)
(0.319332 -0.0374656 0)
(0.273889 -0.0281985 0)
(0.242321 -0.0180409 0)
(0.215248 -0.00888327 0)
(0.588011 0.538465 0)
(0.638182 -0.0645123 0)
(0.152792 -0.279471 0)
(-0.0307028 -0.117806 0)
(0.0391925 0.0104619 0)
(0.0245449 -0.00233146 0)
(-0.00292941 -0.0046902 0)
(0.0178223 0.0153369 0)
(0.0756186 0.0216294 0)
(0.113575 0.0171333 0)
(0.146984 0.0263141 0)
(0.190659 0.0159139 0)
(0.190808 -0.0289935 0)
(0.182281 0.0321832 0)
(0.205891 0.0300859 0)
(0.213882 -0.0279648 0)
(0.197151 -0.00642173 0)
(0.216311 0.00477296 0)
(0.221186 0.00159474 0)
(0.267368 0.0520466 0)
(0.30217 -0.0140255 0)
(0.0891696 -0.401884 0)
(-0.367076 0.203483 0)
(0.0803441 0.230499 0)
(0.254133 0.210896 0)
(0.309348 0.0860695 0)
(0.0459178 -0.247134 0)
(0.00314871 -0.0703243 0)
(0.0600489 0.0147566 0)
(0.109144 0.0145346 0)
(0.132161 0.00668455 0)
(0.142569 0.00294786 0)
(0.14761 0.000935673 0)
(0.147044 -0.000745755 0)
(0.146639 -0.00134879 0)
(0.13645 -0.0011883 0)
(0.148507 0.011839 0)
(0.196713 0.0305007 0)
(0.271063 0.0236283 0)
(0.301544 -0.00937481 0)
(0.270987 -0.0207877 0)
(0.221789 -0.0163305 0)
(0.183704 -0.0109017 0)
(0.159823 -0.00633591 0)
(0.140737 -0.00235418 0)
(0.249234 0.23812 0)
(0.814167 0.00760377 0)
(0.416638 -0.087755 0)
(-0.0407235 -0.0306521 0)
(-0.0165587 0.00608041 0)
(-0.00292875 0.00263388 0)
(-0.0160061 -0.00178055 0)
(-0.00991901 0.0012581 0)
(0.0176998 0.00285572 0)
(0.0383002 0.00247786 0)
(0.0697011 0.00593615 0)
(0.112076 0.0010703 0)
(0.0690776 -0.0119027 0)
(0.067972 0.0160605 0)
(0.149297 0.0101591 0)
(0.14508 -0.0104694 0)
(0.100691 -0.00210273 0)
(0.102285 -5.93283e-05 0)
(0.097019 -0.00249476 0)
(0.146892 0.0149113 0)
(0.176907 0.00417571 0)
(0.073515 -0.13992 0)
(-0.682731 0.076089 0)
(-0.0275146 0.0485465 0)
(0.195383 0.0514133 0)
(0.742628 0.0539054 0)
(0.193038 -0.118463 0)
(0.0178402 -0.0343032 0)
(0.0148789 -0.00150797 0)
(0.0372803 0.00155008 0)
(0.0479173 0.000820874 0)
(0.0530291 0.000282723 0)
(0.0552777 8.25528e-05 0)
(0.0547766 -0.00024537 0)
(0.0545787 -8.93379e-05 0)
(0.0488368 -0.000636259 0)
(0.0546789 0.00158695 0)
(0.0811148 0.00519896 0)
(0.121015 0.00344034 0)
(0.131254 -0.0037234 0)
(0.10776 -0.00384215 0)
(0.0825707 -0.00155593 0)
(0.0671356 -0.00094769 0)
(0.0582862 -0.000439324 0)
(0.0534688 0.000267324 0)
)
;

boundaryField
{
    AirInlet
    {
        type            fixedValue;
        value           uniform (0.08 0 0);
    }
    WaterInlet
    {
        type            fixedValue;
        value           uniform (0.4 0 0);
    }
    ChannelWall
    {
        type            fixedValue;
        value           uniform (0 0 0);
    }
    Outlet
    {
        type            pressureInletOutletVelocity;
        value           nonuniform List<vector> 
15
(
(0.0577264 -0.000930222 0)
(0.145568 -0.00598089 0)
(0.213135 -0.0129338 0)
(0.264067 -0.0196768 0)
(0.298437 -0.0240672 0)
(0.308389 -0.0246521 0)
(0.310939 -0.0246994 0)
(0.312379 -0.0245826 0)
(0.312674 -0.0243008 0)
(0.31179 -0.0238653 0)
(0.305386 -0.0221624 0)
(0.271222 -0.0162499 0)
(0.215248 -0.00888327 0)
(0.140737 -0.00235418 0)
(0.0534688 0.000267324 0)
)
;
    }
    FrontAndBack
    {
        type            empty;
    }
}


// ************************************************************************* //
