/*--------------------------------*- C++ -*----------------------------------*\
| =========                 |                                                 |
| \\      /  F ield         | OpenFOAM: The Open Source CFD Toolbox           |
|  \\    /   O peration     | Version:  2.3.0                                 |
|   \\  /    A nd           | Web:      www.OpenFOAM.org                      |
|    \\/     M anipulation  |                                                 |
\*---------------------------------------------------------------------------*/
FoamFile
{
    version     2.0;
    format      ascii;
    class       volScalarField;
    location    "1.9";
    object      epsilon;
}
// * * * * * * * * * * * * * * * * * * * * * * * * * * * * * * * * * * * * * //

dimensions      [0 2 -3 0 0 0 0];

internalField   nonuniform List<scalar> 
2268
(
0.0102075
0.0528912
0.0973842
0.137238
0.173323
0.206965
0.238771
0.268932
0.297289
0.323398
0.346631
0.366172
0.381117
0.390823
0.394454
0.390752
0.378413
0.3555
0.315831
0.264572
0.202458
0.124205
0.0480989
0.0171533
0.0336461
0.0524266
0.0697343
0.0857324
0.100854
0.115267
0.128971
0.141813
0.153519
0.16375
0.172147
0.178408
0.182434
0.184206
0.183639
0.180488
0.174108
0.163325
0.145817
0.11963
0.0867659
0.0722339
0.027616
0.0349065
0.0479291
0.0606452
0.0727085
0.0842077
0.0951963
0.105641
0.115404
0.124269
0.131973
0.138269
0.14299
0.146127
0.1478
0.148154
0.147224
0.144751
0.139984
0.131378
0.117836
0.102694
0.124232
0.0393476
0.0393073
0.0493681
0.0600402
0.0704558
0.0804871
0.0901087
0.0992659
0.107834
0.115622
0.12241
0.128006
0.13231
0.13537
0.137391
0.138645
0.139333
0.139413
0.138412
0.135486
0.130773
0.130013
0.193603
0.0511284
0.0449879
0.0529722
0.0623886
0.0718768
0.0811321
0.0900619
0.0985934
0.106608
0.113932
0.120374
0.125775
0.130084
0.133409
0.13604
0.138374
0.140772
0.143394
0.146088
0.148708
0.152842
0.168122
0.28437
0.0627401
0.0513014
0.0577008
0.0662468
0.0751465
0.0839499
0.0925093
0.100738
0.10852
0.115696
0.122093
0.127583
0.132156
0.13599
0.139487
0.143196
0.147662
0.153278
0.160268
0.169286
0.183955
0.221011
0.411561
0.0738292
0.0578936
0.0630894
0.0710298
0.079554
0.0880992
0.0964793
0.104599
0.11235
0.119582
0.126138
0.131924
0.136972
0.141553
0.146214
0.151704
0.158802
0.168176
0.180465
0.197222
0.224941
0.294915
0.649354
0.0846641
0.0645418
0.068857
0.0764199
0.0847362
0.0931638
0.101498
0.109646
0.117509
0.124949
0.131827
0.138088
0.143814
0.149401
0.155592
0.163402
0.173917
0.188126
0.207073
0.23313
0.275737
0.389996
1.33074
0.14294
0.455416
0.893955
1.13384
1.17622
1.12321
1.02599
0.901724
0.752688
0.613691
0.487043
0.367851
0.264395
0.185062
0.137516
0.112095
0.0881569
0.0578948
0.0223149
0.150533
0.296036
0.472152
0.552186
0.552793
0.520615
0.476021
0.424572
0.368862
0.317944
0.270578
0.224632
0.180705
0.139554
0.10556
0.0819406
0.0621179
0.0416233
0.031315
0.189454
0.313798
0.439842
0.479754
0.466186
0.432031
0.392455
0.350594
0.307579
0.26804
0.232088
0.198366
0.166509
0.134435
0.103546
0.0804049
0.0632379
0.0479712
0.0503302
0.215396
0.377427
0.468351
0.481783
0.45506
0.414917
0.37322
0.33178
0.290791
0.253379
0.220133
0.189875
0.161879
0.133523
0.104894
0.0828983
0.0677906
0.057159
0.07512
0.278433
0.481759
0.529281
0.512717
0.470665
0.422115
0.375048
0.330216
0.287541
0.24931
0.215962
0.186464
0.159741
0.133381
0.10716
0.0868921
0.0738266
0.0675343
0.103268
0.462977
0.644233
0.614334
0.559689
0.50026
0.441648
0.386861
0.336077
0.289655
0.249357
0.214794
0.185071
0.158792
0.133796
0.109976
0.0918102
0.0808485
0.0787432
0.133646
1.10215
0.871708
0.711193
0.613515
0.537212
0.468008
0.403688
0.345037
0.293662
0.250935
0.215098
0.184886
0.158797
0.134908
0.113301
0.09733
0.0885752
0.0906412
0.167198
2.17452
1.08027
0.791325
0.663867
0.576143
0.497123
0.422004
0.354334
0.297671
0.252797
0.216346
0.185843
0.159817
0.136807
0.117072
0.103127
0.0966442
0.102972
0.200894
0.0990568
0.0740286
0.077701
0.0851121
0.0934056
0.101889
0.110371
0.118779
0.12704
0.135039
0.142671
0.149947
0.157069
0.164693
0.173984
0.186527
0.204044
0.228095
0.26022
0.30337
0.36712
0.489326
0.844923
0.115728
0.0856095
0.0896695
0.0977445
0.10657
0.115522
0.124542
0.133653
0.142857
0.152097
0.161345
0.170731
0.180793
0.192807
0.209013
0.232547
0.266715
0.313983
0.375474
0.451719
0.544063
0.663013
0.837582
0.127468
0.0953969
0.101159
0.110553
0.120235
0.129799
0.139487
0.149458
0.159831
0.170647
0.182033
0.194305
0.208532
0.227072
0.254395
0.297345
0.362734
0.453326
0.567034
0.695936
0.820915
0.932616
1.02753
0.137797
0.104628
0.112281
0.122994
0.133519
0.14355
0.153827
0.164633
0.176111
0.188518
0.202407
0.218387
0.237907
0.265009
0.309115
0.38629
0.511614
0.685828
0.898002
1.12265
1.28175
1.35651
1.35608
0.156312
0.116424
0.123285
0.133748
0.144347
0.154877
0.165838
0.177679
0.189908
0.202521
0.217125
0.235025
0.257784
0.292457
0.358025
0.49927
0.741305
1.01118
1.21686
1.32168
1.42453
1.41922
1.30603
0.175827
0.134569
0.136457
0.144719
0.154116
0.163921
0.174583
0.185649
0.196282
0.207547
0.221404
0.239675
0.265141
0.306467
0.38663
0.543166
0.792542
1.02141
1.07836
1.05784
1.04824
1.01441
0.95469
0.219852
0.158853
0.149849
0.152638
0.159473
0.167942
0.177208
0.186776
0.196917
0.208291
0.222946
0.242965
0.271167
0.315157
0.391262
0.51612
0.696735
0.863559
0.907533
0.895204
0.860803
0.814179
0.770466
0.269888
0.175963
0.160195
0.159104
0.163232
0.169677
0.177359
0.185857
0.195518
0.207363
0.22316
0.244556
0.273776
0.318044
0.385675
0.482883
0.608415
0.720107
0.770161
0.780347
0.763966
0.715687
0.675023
0.312564
0.185582
0.165585
0.162763
0.165553
0.170718
0.177177
0.18474
0.193823
0.205413
0.221034
0.242547
0.272294
0.315038
0.374445
0.451428
0.542518
0.624396
0.67301
0.68405
0.687813
0.668047
0.627971
0.349494
0.191207
0.166975
0.162617
0.164522
0.168946
0.174621
0.181359
0.189661
0.200555
0.215592
0.236782
0.266714
0.307631
0.359878
0.422873
0.49299
0.557234
0.594321
0.601386
0.603394
0.606142
0.588718
0.38256
0.195755
0.166391
0.159858
0.160546
0.164199
0.169323
0.175624
0.183529
0.193952
0.208215
0.228104
0.25587
0.292892
0.338719
0.391716
0.44763
0.495603
0.520777
0.527397
0.529866
0.533064
0.52692
0.401935
0.197283
0.164128
0.15553
0.154819
0.157543
0.162108
0.16811
0.175824
0.185956
0.199524
0.217885
0.242633
0.274842
0.314112
0.358272
0.402765
0.438887
0.457438
0.464726
0.468044
0.470619
0.465936
0.407768
0.195568
0.160308
0.150158
0.148192
0.149996
0.153983
0.159678
0.167206
0.17706
0.189981
0.206943
0.228973
0.256703
0.289634
0.325606
0.360532
0.388352
0.403574
0.410568
0.414098
0.415831
0.411343
0.401051
0.190529
0.154875
0.1439
0.141058
0.142123
0.145581
0.150924
0.158165
0.16762
0.179799
0.19534
0.214828
0.238487
0.265669
0.294443
0.321562
0.343039
0.355857
0.362311
0.365553
0.366644
0.363072
0.383286
0.182202
0.147734
0.136716
0.133474
0.13407
0.137099
0.142058
0.148879
0.157744
0.168975
0.182941
0.199904
0.2198
0.24192
0.264673
0.285678
0.302385
0.313177
0.319124
0.322063
0.322781
0.320264
0.355839
0.170721
0.138872
0.128541
0.125364
0.125767
0.128486
0.133045
0.139332
0.147426
0.157507
0.169749
0.184206
0.200661
0.218448
0.23634
0.252687
0.265875
0.275016
0.280458
0.283238
0.283894
0.282139
0.323223
0.156531
0.128386
0.119373
0.116651
0.1171
0.119623
0.123796
0.129483
0.136696
0.145517
0.156
0.16808
0.181496
0.195685
0.209753
0.22259
0.233172
0.240948
0.245951
0.24868
0.249468
0.248238
0.285928
0.140777
0.116637
0.109296
0.10733
0.10801
0.11044
0.114264
0.119349
0.125669
0.133242
0.142064
0.152022
0.162868
0.174165
0.185285
0.195494
0.20413
0.210803
0.215429
0.218172
0.219198
0.218459
0.245823
0.124072
0.104204
0.09858
0.0974694
0.0985213
0.10095
0.104488
0.109024
0.114516
0.120956
0.128315
0.136479
0.145242
0.154283
0.163173
0.171428
0.178607
0.184419
0.188728
0.191529
0.192876
0.19273
0.205506
0.106993
0.0914636
0.0875856
0.0873183
0.0887483
0.0912556
0.0945814
0.0986506
0.10343
0.108902
0.115045
0.121758
0.12889
0.136213
0.143439
0.150248
0.156339
0.161487
0.165532
0.168402
0.170079
0.17051
0.165786
0.0900751
0.0788439
0.0766487
0.0771853
0.0789713
0.0815403
0.0847141
0.088408
0.0926037
0.097291
0.102455
0.108032
0.113913
0.119945
0.125935
0.13167
0.13694
0.141563
0.145377
0.148294
0.150249
0.151171
0.128158
0.0741657
0.066817
0.0661297
0.0673702
0.0694613
0.0720784
0.0751058
0.0784961
0.0822254
0.0862917
0.0906884
0.0953872
0.100317
0.105376
0.110439
0.115364
0.119989
0.124165
0.127766
0.130689
0.132844
0.13415
0.0958275
0.0598524
0.0557845
0.0563495
0.0581597
0.0604811
0.063117
0.0660101
0.0691368
0.0724906
0.0760684
0.0798723
0.0838892
0.0880894
0.0924068
0.0967508
0.101023
0.105113
0.108906
0.112292
0.11517
0.117445
0.119031
0.0702361
0.0474964
0.0461022
0.0476321
0.049854
0.0523169
0.0549281
0.057676
0.0605646
0.0636004
0.0667875
0.0701281
0.0736172
0.0772365
0.0809519
0.0847123
0.0884496
0.0920839
0.0955263
0.0986849
0.101469
0.103789
0.105563
0.0532265
0.0381149
0.0383194
0.0403603
0.0427548
0.0452316
0.0477553
0.0503393
0.053001
0.0557548
0.058609
0.0615677
0.0646306
0.0677883
0.0710207
0.0742961
0.0775706
0.0807898
0.0838906
0.0868026
0.0894487
0.091749
0.0936277
0.0442185
0.0320073
0.0326794
0.0347561
0.0370752
0.0394297
0.0417952
0.0441854
0.0466185
0.0491086
0.0516653
0.0542942
0.056996
0.0597669
0.0625956
0.0654626
0.0683394
0.0711883
0.0739632
0.0766104
0.0790704
0.0812817
0.0831878
0.0406215
0.0285421
0.0289509
0.0307585
0.0328418
0.0349829
0.0371399
0.0393135
0.0415139
0.0437511
0.0460338
0.0483663
0.0507496
0.0531827
0.0556598
0.0581692
0.0606925
0.0632041
0.0656712
0.0680545
0.0703092
0.072388
0.0742459
0.0401303
0.026899
0.0267261
0.0281457
0.0299374
0.0318352
0.0337684
0.035721
0.0376932
0.0396896
0.0417184
0.0437799
0.0458758
0.0480068
0.0501704
0.0523599
0.0545637
0.056765
0.0589411
0.0610641
0.0631017
0.0650187
0.0667811
0.0415927
0.0265247
0.0256774
0.0266977
0.028204
0.029868
0.031588
0.0333312
0.0350892
0.0368638
0.0386575
0.0404709
0.0423064
0.0441654
0.0460473
0.0479487
0.0498628
0.0517787
0.0536813
0.0555517
0.0573671
0.0591024
0.0607323
0.0446164
0.0271574
0.0256232
0.0262703
0.0275155
0.0289653
0.0304889
0.0320389
0.0336005
0.0351706
0.0367488
0.0383369
0.0399374
0.0415522
0.0431817
0.0448246
0.0464768
0.048132
0.0497804
0.0514094
0.0530038
0.054546
0.0560178
0.0490566
0.0287288
0.0265054
0.0268016
0.027802
0.0290481
0.0303835
0.0317494
0.0331246
0.0345027
0.0358828
0.0372663
0.0386555
0.0400517
0.041456
0.0428677
0.0442849
0.0457037
0.0471182
0.0485204
0.0499
0.0512452
0.052543
0.0549157
0.0312644
0.0283422
0.0282921
0.0290431
0.0300761
0.0312143
0.0323908
0.03358
0.0347729
0.0359671
0.0371626
0.0383601
0.0395602
0.0407633
0.041969
0.0431759
0.0443818
0.0455829
0.0467742
0.0479489
0.049099
0.050215
0.062446
0.0349033
0.031217
0.0307873
0.031256
0.0320442
0.0329589
0.0339274
0.0349206
0.0359267
0.03694
0.0379579
0.0389785
0.0400005
0.0410228
0.042044
0.0430628
0.0440772
0.0450846
0.0460815
0.0470633
0.048024
0.0489564
0.0720956
0.0398921
0.0353008
0.0344
0.0345082
0.0349869
0.035629
0.0363555
0.0371323
0.0379416
0.0387728
0.0396182
0.040472
0.0413295
0.0421872
0.0430422
0.0438919
0.044734
0.0455659
0.0463846
0.0471863
0.0479661
0.0487174
0.0845847
0.046591
0.0408318
0.0392819
0.0388909
0.038957
0.0392548
0.0396929
0.0402255
0.040824
0.0414683
0.0421432
0.0428371
0.0435407
0.0442471
0.044951
0.0456479
0.0463346
0.0470076
0.0476638
0.0482991
0.0489084
0.0494848
0.101046
0.0555347
0.048127
0.04561
0.0444976
0.0440055
0.0438697
0.0439682
0.0442294
0.0446046
0.0450589
0.045566
0.0461064
0.0466655
0.0472321
0.0477979
0.0483565
0.0489029
0.0494327
0.0499418
0.0504253
0.0508771
0.0512887
0.123334
0.067549
0.0575943
0.0535566
0.0513905
0.0501577
0.0494967
0.0492143
0.0491891
0.0493391
0.0496075
0.0499541
0.0503502
0.0507749
0.051213
0.0516532
0.052087
0.0525076
0.0529095
0.0532874
0.0536354
0.0539458
0.0542078
0.154845
0.0839928
0.0697109
0.0632111
0.0595422
0.0573835
0.0561378
0.0554684
0.05517
0.0551129
0.0552131
0.0554151
0.055681
0.0559845
0.0563068
0.0566343
0.0569567
0.057266
0.0575558
0.0578196
0.0580508
0.0582401
0.0583744
0.203184
0.107229
0.0848312
0.0743794
0.0687339
0.0655642
0.0637735
0.062783
0.0622718
0.0620552
0.0620232
0.0621073
0.0622637
0.0624628
0.0626841
0.0629128
0.0631379
0.0633511
0.0635453
0.063714
0.0638498
0.0639432
0.0639796
0.290101
0.141093
0.102349
0.0861384
0.0784196
0.074483
0.0723899
0.0712579
0.0706564
0.070362
0.0702524
0.0702564
0.07033
0.070445
0.0705818
0.0707267
0.0708694
0.0710021
0.0711183
0.0712121
0.0712768
0.0713039
0.0712794
0.507063
0.1875
0.117909
0.096138
0.0876894
0.0839162
0.0820655
0.0811034
0.0805927
0.0803298
0.0802109
0.080179
0.0802
0.0802526
0.0803221
0.0803982
0.0804731
0.0805411
0.0805973
0.0806374
0.0806569
0.0806497
0.0806057
1.592
0.213195
0.117557
0.100625
0.0957829
0.0939638
0.0931453
0.0927332
0.0925136
0.0923959
0.0923367
0.0923127
0.0923101
0.0923205
0.0923379
0.0923582
0.0923784
0.092396
0.0924094
0.0924168
0.0924167
0.0924072
0.0923846
2.81492
2.60108
2.625
2.85987
1.04251
1.119
1.15805
1.16493
1.07393
1.08995
1.09012
1.07648
1.30043
1.24973
1.19909
1.15186
1.18562
1.10925
1.04267
0.988875
0.898495
0.862313
0.826747
0.791791
0.743492
0.727349
0.708796
0.680093
0.660818
0.657954
0.642014
0.607702
0.606473
0.595772
0.575674
0.545869
0.560903
0.541471
0.517605
0.490759
0.50733
0.489279
0.468126
0.444777
0.450606
0.436919
0.420572
0.402119
0.399558
0.389445
0.37735
0.36319
0.35456
0.347309
0.338364
0.327434
0.3143
0.309054
0.302323
0.293983
0.27795
0.274117
0.269045
0.262817
0.245237
0.242469
0.238813
0.234337
0.216392
0.214484
0.211958
0.208845
0.191401
0.190136
0.188454
0.186356
0.169832
0.169075
0.167997
0.166609
0.151029
0.150678
0.150071
0.149217
0.134434
0.134407
0.13417
0.133733
0.119646
0.119875
0.119933
0.119827
0.106426
0.106853
0.107143
0.107298
0.0946643
0.0952381
0.0957022
0.0960585
0.0843308
0.085002
0.085588
0.0860892
0.0754253
0.0761467
0.0768055
0.0773994
0.0679443
0.068673
0.0693568
0.0699946
0.061839
0.0625439
0.0632172
0.0638576
0.0570376
0.0576945
0.0583296
0.0589415
0.0534548
0.0540463
0.0546227
0.055183
0.0510051
0.0515193
0.0520225
0.0525141
0.0496169
0.0500462
0.0504664
0.050877
0.0492448
0.049585
0.049916
0.0502372
0.0498792
0.050129
0.0503677
0.0505946
0.0515542
0.0517156
0.0518624
0.0519934
0.0543542
0.0544331
0.0544928
0.0545316
0.0584187
0.0584267
0.058411
0.0583687
0.0639477
0.0639036
0.0638328
0.0637313
0.0712064
0.0711366
0.0710405
0.0709138
0.0805328
0.0804686
0.0803844
0.0802768
0.0923528
0.0923257
0.0922911
0.0922481
1.50964
1.04013
0.836336
0.721844
0.631926
0.540417
0.447544
0.36606
0.302478
0.255456
0.219022
0.189009
0.163448
0.141506
0.12376
0.112113
0.109007
0.12229
0.256183
1.06316
0.944814
0.852553
0.781648
0.699546
0.585476
0.466603
0.372306
0.304831
0.257661
0.222613
0.194673
0.170916
0.150525
0.133941
0.122447
0.120857
0.14027
0.304381
1.03244
0.967181
0.898866
0.831445
0.744768
0.602933
0.468706
0.37099
0.30371
0.257502
0.224076
0.198424
0.177306
0.159576
0.145066
0.132637
0.12858
0.14943
0.325738
1.0828
0.978626
0.857403
0.760877
0.688837
0.588158
0.463325
0.36558
0.299741
0.255476
0.224127
0.200606
0.181795
0.167024
0.155631
0.141626
0.130992
0.145647
0.320434
0.916315
0.818407
0.735269
0.684606
0.642308
0.555261
0.441532
0.352463
0.292446
0.253176
0.225591
0.204937
0.187368
0.172699
0.160785
0.144047
0.130779
0.140628
0.27799
0.740719
0.676121
0.62479
0.586337
0.544541
0.476409
0.395552
0.327298
0.279433
0.248818
0.230764
0.218628
0.203021
0.180144
0.159284
0.140708
0.129862
0.138924
0.230369
0.631035
0.577314
0.534857
0.496653
0.453592
0.400028
0.343666
0.29544
0.260089
0.237821
0.227217
0.228947
0.237419
0.19642
0.160299
0.138471
0.12903
0.13757
0.190939
0.559193
0.509047
0.465543
0.425173
0.384811
0.341902
0.299638
0.263646
0.237091
0.220752
0.214784
0.219285
0.240389
0.216186
0.167825
0.14005
0.130652
0.140321
0.16504
0.500003
0.448077
0.406271
0.369861
0.334845
0.299438
0.265291
0.236438
0.215431
0.202628
0.198958
0.203732
0.209979
0.195508
0.166042
0.142145
0.130045
0.140158
0.154913
0.447794
0.394889
0.353235
0.319119
0.288881
0.260679
0.23448
0.212269
0.196003
0.186873
0.185928
0.19165
0.195376
0.181027
0.158141
0.13907
0.126279
0.12453
0.158938
0.406088
0.35576
0.314693
0.281465
0.25353
0.229184
0.208163
0.191049
0.178597
0.171855
0.172085
0.177888
0.181647
0.171681
0.15393
0.137168
0.123266
0.11809
0.161939
0.369818
0.324751
0.286432
0.254978
0.22896
0.206979
0.188668
0.174255
0.163958
0.15812
0.15725
0.160774
0.163997
0.158486
0.146345
0.133199
0.119578
0.11044
0.145896
0.337195
0.298663
0.264452
0.235683
0.211842
0.191892
0.175388
0.162556
0.153263
0.147214
0.144518
0.145295
0.146524
0.14244
0.133652
0.123361
0.111242
0.100282
0.114823
0.30687
0.275142
0.245749
0.220338
0.199104
0.181466
0.16678
0.15518
0.146253
0.139268
0.134342
0.131925
0.130234
0.125771
0.118324
0.109454
0.0987856
0.0867289
0.0819332
0.278138
0.252888
0.228524
0.206826
0.188439
0.173283
0.160737
0.150386
0.141581
0.133648
0.126837
0.121545
0.117046
0.111545
0.104519
0.0966944
0.0881768
0.07809
0.0743081
0.250969
0.231527
0.212007
0.194054
0.178532
0.165728
0.155288
0.146251
0.137686
0.12935
0.12158
0.114718
0.108554
0.102307
0.0956003
0.0889486
0.0828979
0.0776304
0.086956
0.225742
0.211211
0.196043
0.181612
0.168801
0.158062
0.149252
0.141391
0.133452
0.125355
0.117458
0.110175
0.103538
0.0972807
0.0912072
0.0856416
0.0814547
0.0812794
0.105923
0.202777
0.192185
0.180712
0.169405
0.159041
0.150076
0.142471
0.135512
0.128342
0.120836
0.113303
0.106164
0.0996119
0.0936705
0.0883511
0.0839832
0.0818085
0.0858756
0.124213
0.182177
0.174613
0.166128
0.157463
0.149221
0.141789
0.135172
0.128909
0.122424
0.115578
0.108599
0.101839
0.0955694
0.0899998
0.0853709
0.0822165
0.082053
0.0894347
0.137856
0.163809
0.158532
0.152369
0.145852
0.139398
0.133296
0.127566
0.121927
0.116049
0.109832
0.103461
0.0971954
0.0913441
0.0862343
0.0822812
0.0802005
0.0816646
0.0916606
0.14686
0.147403
0.143824
0.139462
0.134654
0.129669
0.124722
0.119824
0.11482
0.109541
0.103968
0.0982243
0.0925406
0.0872372
0.0827027
0.0794395
0.0782761
0.0808916
0.092702
0.15376
0.132687
0.130361
0.127374
0.123913
0.120155
0.116221
0.112112
0.107773
0.103148
0.0982396
0.0931597
0.088133
0.0834784
0.079604
0.0770432
0.0766411
0.080089
0.0931644
0.160596
0.119388
0.118044
0.116107
0.113709
0.110954
0.107907
0.104585
0.100963
0.0970216
0.0927947
0.0884086
0.0840877
0.080137
0.0769583
0.0750879
0.0753547
0.0795187
0.0938211
0.168241
0.107344
0.106781
0.105689
0.104153
0.102236
0.0999749
0.0973828
0.0944544
0.0911984
0.0876721
0.0840062
0.080412
0.0771817
0.0746967
0.0734692
0.0743152
0.0790933
0.0945388
0.175084
0.0964807
0.0965318
0.0961187
0.0952891
0.0940772
0.0925039
0.0905783
0.0883078
0.0857193
0.082882
0.0799247
0.0770443
0.0745106
0.0726763
0.0720285
0.0733752
0.0786501
0.0949682
0.180048
0.086789
0.0873064
0.0874235
0.0871623
0.0865373
0.0855569
0.0842281
0.0825652
0.0806041
0.0784179
0.0761293
0.0739184
0.0720293
0.0707854
0.0706504
0.0724242
0.0780829
0.0950033
0.183576
0.0782851
0.0791345
0.0796468
0.0798266
0.0796747
0.079191
0.0783802
0.0772587
0.0758654
0.0742717
0.0725907
0.0709846
0.0696719
0.0689487
0.0692568
0.0713859
0.077323
0.0945854
0.18569
0.0709826
0.0720425
0.0728268
0.0733285
0.0735395
0.0734539
0.0730738
0.072415
0.0715149
0.0704397
0.0692911
0.0682128
0.0673996
0.0671218
0.0677985
0.0702106
0.0763311
0.0937121
0.186296
0.0648742
0.0660384
0.0669843
0.0676981
0.0681664
0.06838
0.0683383
0.0680552
0.0675641
0.0669239
0.0662241
0.0655906
0.065196
0.0652864
0.0662563
0.0688777
0.0750979
0.0924418
0.185547
0.0599267
0.0611068
0.0621184
0.0629453
0.0635722
0.0639883
0.0641917
0.0641934
0.0640225
0.0637296
0.0633917
0.063118
0.0630612
0.0634449
0.0646401
0.0673951
0.0736433
0.0908518
0.183924
0.0560935
0.0572151
0.0582103
0.0590627
0.0597574
0.0602842
0.060641
0.060837
0.0608967
0.0608628
0.0608005
0.0608037
0.061007
0.0616141
0.0629735
0.0658036
0.0720114
0.0889925
0.181947
0.053317
0.0543212
0.0552312
0.0560321
0.0567117
0.0572626
0.0576846
0.0579865
0.0581893
0.0583285
0.0584587
0.0586601
0.0590514
0.0598184
0.0612895
0.0641538
0.0702561
0.0869125
0.17961
0.0515477
0.0523876
0.0531541
0.0538347
0.0544221
0.0549144
0.055316
0.0556379
0.0558992
0.0561295
0.0563741
0.0567007
0.0572138
0.0580835
0.0596195
0.062483
0.0684499
0.0846375
0.175753
0.0507579
0.051397
0.0519672
0.0524628
0.0528827
0.0532336
0.0535288
0.0537852
0.0540226
0.0542663
0.0545526
0.0549381
0.0555137
0.0564353
0.0579948
0.0608251
0.0666362
0.0822663
0.170626
0.0509532
0.0513611
0.0516872
0.0519333
0.0521062
0.052226
0.052322
0.0524235
0.0525545
0.0527369
0.0529982
0.0533833
0.0539704
0.0549018
0.0564529
0.0592318
0.064902
0.0801714
0.167032
0.0521841
0.0523378
0.0523765
0.0523045
0.0521388
0.0519193
0.0517058
0.0515512
0.0514888
0.0515368
0.051712
0.0520453
0.0526018
0.0535107
0.0550343
0.0577606
0.0633147
0.0783286
0.164324
0.0545577
0.054446
0.0541626
0.0536982
0.0530794
0.0523752
0.0517055
0.05117
0.0508173
0.0506579
0.0506914
0.0509303
0.0514231
0.0522868
0.0537729
0.0564525
0.0619038
0.0766181
0.161094
0.0582476
0.0578824
0.0572609
0.0563333
0.055112
0.0537043
0.0523622
0.05128
0.0505244
0.0500847
0.0499285
0.0500401
0.0504469
0.0512521
0.0526983
0.0553409
0.0607038
0.0751089
0.157988
0.0635015
0.0629359
0.0620091
0.0605808
0.0585641
0.0560915
0.0537235
0.0518631
0.0505757
0.0497877
0.0494062
0.0493713
0.0496823
0.050427
0.0518416
0.0544683
0.0597738
0.0739337
0.155719
0.0706406
0.0699911
0.0688897
0.0670338
0.0640413
0.0598743
0.0558182
0.0528491
0.0508972
0.0497142
0.0490938
0.0489113
0.0491314
0.0498267
0.0512318
0.0538789
0.059179
0.0732069
0.154591
0.0800488
0.079505
0.0785189
0.0766058
0.0727929
0.0659691
0.0586014
0.0540494
0.0513463
0.0497769
0.0489426
0.0486359
0.048785
0.0494518
0.0508782
0.0535786
0.0589129
0.0729494
0.154382
0.0921585
0.0919445
0.0915205
0.0904937
0.0875458
0.078563
0.0617149
0.0550431
0.0516901
0.0498545
0.0488881
0.048509
0.04862
0.0492792
0.0507433
0.0534518
0.0586924
0.0723419
0.152236
)
;

boundaryField
{
    leftWall
    {
        type            epsilonWallFunction;
        value           nonuniform List<scalar> 
50
(
0.0102075
0.0171533
0.027616
0.0393476
0.0511284
0.0627401
0.0738292
0.0846641
0.0990568
0.115728
0.127468
0.137797
0.156312
0.175827
0.219852
0.269888
0.312564
0.349494
0.38256
0.401935
0.407768
0.401051
0.383286
0.355839
0.323223
0.285928
0.245823
0.205506
0.165786
0.128158
0.0958275
0.0702361
0.0532265
0.0442185
0.0406215
0.0401303
0.0415927
0.0446164
0.0490566
0.0549157
0.062446
0.0720956
0.0845847
0.101046
0.123334
0.154845
0.203184
0.290101
0.507063
1.592
)
;
        Cmu             0.09;
        kappa           0.41;
        E               9.8;
        value           nonuniform List<scalar> 
50
(
0.0102075
0.0171533
0.027616
0.0393476
0.0511284
0.0627401
0.0738292
0.0846641
0.0990568
0.115728
0.127468
0.137797
0.156312
0.175827
0.219852
0.269888
0.312564
0.349494
0.38256
0.401935
0.407768
0.401051
0.383286
0.355839
0.323223
0.285928
0.245823
0.205506
0.165786
0.128158
0.0958275
0.0702361
0.0532265
0.0442185
0.0406215
0.0401303
0.0415927
0.0446164
0.0490566
0.0549157
0.062446
0.0720956
0.0845847
0.101046
0.123334
0.154845
0.203184
0.290101
0.507063
1.592
)
;
    }
    rightWall
    {
        type            epsilonWallFunction;
        value           nonuniform List<scalar> 
50
(
0.0223149
0.031315
0.0503302
0.07512
0.103268
0.133646
0.167198
0.200894
0.256183
0.304381
0.325738
0.320434
0.27799
0.230369
0.190939
0.16504
0.154913
0.158938
0.161939
0.145896
0.114823
0.0819332
0.0743081
0.086956
0.105923
0.124213
0.137856
0.14686
0.15376
0.160596
0.168241
0.175084
0.180048
0.183576
0.18569
0.186296
0.185547
0.183924
0.181947
0.17961
0.175753
0.170626
0.167032
0.164324
0.161094
0.157988
0.155719
0.154591
0.154382
0.152236
)
;
        Cmu             0.09;
        kappa           0.41;
        E               9.8;
        value           nonuniform List<scalar> 
50
(
0.0223149
0.031315
0.0503302
0.07512
0.103268
0.133646
0.167198
0.200894
0.256183
0.304381
0.325738
0.320434
0.27799
0.230369
0.190939
0.16504
0.154913
0.158938
0.161939
0.145896
0.114823
0.0819332
0.0743081
0.086956
0.105923
0.124213
0.137856
0.14686
0.15376
0.160596
0.168241
0.175084
0.180048
0.183576
0.18569
0.186296
0.185547
0.183924
0.181947
0.17961
0.175753
0.170626
0.167032
0.164324
0.161094
0.157988
0.155719
0.154591
0.154382
0.152236
)
;
    }
    lowerWall
    {
        type            epsilonWallFunction;
        value           nonuniform List<scalar> 
62
(
0.0102075
0.0528912
0.0973842
0.137238
0.173323
0.206965
0.238771
0.268932
0.297289
0.323398
0.346631
0.366172
0.381117
0.390823
0.394454
0.390752
0.378413
0.3555
0.315831
0.264572
0.202458
0.124205
0.0480989
0.0480989
0.0722339
0.124232
0.193603
0.28437
0.411561
0.649354
1.33074
2.81492
2.60108
2.625
2.85987
0.14294
0.150533
0.189454
0.215396
0.278433
0.462977
1.10215
2.17452
0.14294
0.455416
0.893955
1.13384
1.17622
1.12321
1.02599
0.901724
0.752688
0.613691
0.487043
0.367851
0.264395
0.185062
0.137516
0.112095
0.0881569
0.0578948
0.0223149
)
;
        Cmu             0.09;
        kappa           0.41;
        E               9.8;
        value           nonuniform List<scalar> 
62
(
0.0102075
0.0528912
0.0973842
0.137238
0.173323
0.206965
0.238771
0.268932
0.297289
0.323398
0.346631
0.366172
0.381117
0.390823
0.394454
0.390752
0.378413
0.3555
0.315831
0.264572
0.202458
0.124205
0.0480989
0.0480989
0.0722339
0.124232
0.193603
0.28437
0.411561
0.649354
1.33074
2.81492
2.60108
2.625
2.85987
0.14294
0.150533
0.189454
0.215396
0.278433
0.462977
1.10215
2.17452
0.14294
0.455416
0.893955
1.13384
1.17622
1.12321
1.02599
0.901724
0.752688
0.613691
0.487043
0.367851
0.264395
0.185062
0.137516
0.112095
0.0881569
0.0578948
0.0223149
)
;
    }
    atmosphere
    {
        type            inletOutlet;
        inletValue      uniform 0.1;
        value           nonuniform List<scalar> 
46
(
0.1
0.1
0.1
0.1
0.1
0.1
0.1
0.1
0.1
0.1
0.1
0.1
0.1
0.1
0.1
0.1
0.1
0.1
0.1
0.1
0.1
0.1
0.1
0.1
0.1
0.1
0.1
0.1
0.1
0.1
0.1
0.1
0.1
0.0617149
0.0550431
0.0516901
0.0498545
0.0488881
0.048509
0.04862
0.0492792
0.0507433
0.0534518
0.0586924
0.0723419
0.152236
)
;
    }
    defaultFaces
    {
        type            empty;
    }
}


// ************************************************************************* //
