/*--------------------------------*- C++ -*----------------------------------*\
| =========                 |                                                 |
| \\      /  F ield         | OpenFOAM: The Open Source CFD Toolbox           |
|  \\    /   O peration     | Version:  2.3.0                                 |
|   \\  /    A nd           | Web:      www.OpenFOAM.org                      |
|    \\/     M anipulation  |                                                 |
\*---------------------------------------------------------------------------*/
FoamFile
{
    version     2.0;
    format      ascii;
    class       volScalarField;
    location    "1.9";
    object      p;
}
// * * * * * * * * * * * * * * * * * * * * * * * * * * * * * * * * * * * * * //

dimensions      [1 -1 -2 0 0 0 0];

internalField   nonuniform List<scalar> 
2268
(
689.538
690.347
692.317
694.852
697.574
700.393
703.286
706.265
709.361
712.622
716.099
719.841
723.884
728.23
732.914
737.92
743.26
748.969
754.725
760.731
766.519
771.76
775.906
630.577
631.09
632.84
635.261
637.983
640.867
643.858
646.945
650.145
653.495
657.045
660.847
664.947
669.409
674.239
679.489
685.191
691.459
698.569
705.119
709.548
712.325
716.654
571.436
572.034
573.473
575.675
578.322
581.233
584.312
587.512
590.829
594.287
597.933
601.819
606.012
610.588
615.599
621.121
627.2
633.992
642.046
648.822
652.597
653.228
658.048
512.108
512.973
514.261
516.27
518.824
521.728
524.856
528.135
531.539
535.08
538.799
542.757
547.028
551.703
556.855
562.559
568.865
575.866
584
591.016
594.652
594.932
600.372
452.606
453.745
455.051
456.957
459.45
462.349
465.509
468.839
472.298
475.886
479.648
483.647
487.973
492.723
497.968
503.764
510.142
517.104
524.815
531.8
535.543
537.139
543.608
392.948
394.302
395.718
397.608
400.093
403.013
406.214
409.585
413.079
416.684
420.458
424.47
428.825
433.634
438.944
444.779
451.135
457.948
465.193
471.728
475.637
479.513
487.709
333.152
334.656
336.208
338.144
340.673
343.653
346.916
350.335
353.853
357.453
361.213
365.209
369.573
374.428
379.79
385.628
391.895
398.496
405.277
411.266
415.094
421.012
432.143
273.222
274.788
276.467
278.504
281.129
284.213
287.57
291.052
294.591
298.172
301.901
305.849
310.206
315.103
320.497
326.269
332.329
338.585
344.805
350.085
353.287
358.462
374.191
628.837
630.653
654.752
682.331
700.324
709.926
716.137
721.794
728.692
738.973
754.037
771.56
789.666
804.23
812.263
819.713
827.935
837.526
846.648
569.642
567.656
590.76
616.74
635.279
647.223
655.605
662.49
669.651
680.021
696.147
714.926
734.466
750.946
761.016
768.064
774.639
781.444
790.037
509.133
507.727
527.71
550.267
568.255
582.519
594.681
605.161
613.81
623.123
638.775
658.26
678.85
696.382
708.889
715.914
722.205
727.268
734.752
448.723
449.484
467.818
486.561
502.894
517.954
533.328
547.121
558.538
566.285
580.581
600.357
621.7
639.708
653.849
662.703
669.179
673.808
680.916
389.196
394.053
410.92
425.972
440.321
455.402
472.178
488.639
503.2
509.902
521.721
540.774
563.045
581.503
596.092
607.85
615.933
620.62
628.374
329.818
341.538
355.906
366.389
378.678
393.691
412.183
431.051
448.361
458.565
471.884
486.91
504.634
521.779
536.847
551.3
561.332
567.291
576.883
264.913
290.363
301.494
306.425
316.748
332.053
352.942
375.052
396.207
415.251
430.895
442.896
455.187
467.556
478.708
493.632
505.782
513.977
525.995
199.333
236.736
244.189
242.748
251.574
268.717
293.964
320.409
346.273
374.536
390.78
401.916
413.895
423.094
429.1
441.384
451.143
460.856
475.22
179.293
180.795
182.678
185.036
187.97
191.312
194.847
198.409
201.934
205.417
209.054
212.863
217.192
222.2
227.679
233.274
238.799
244.274
249.401
253.241
254.676
253.83
249.328
62.8601
64.0781
65.6594
67.9889
70.7896
73.737
76.6437
79.4181
82.1437
84.7848
87.4904
90.4965
94.0349
98.5211
103.569
108.615
113.497
118.47
122.881
125.509
124.605
120.18
111.161
5.81056
6.30768
6.88334
7.90843
9.1205
10.3087
11.4061
12.4407
13.6117
14.9301
16.3629
17.7588
19.1757
20.6978
22.1239
23.9965
26.56
29.2733
31.856
34.0231
35.4504
35.7166
32.5479
-0.0934947
-0.0212421
0.101536
0.332867
0.588361
0.771232
0.931501
1.06443
1.41638
2.02652
2.70001
3.1716
3.2193
2.64637
1.23176
0.241042
0.0357612
0.0060716
0.185661
1.24799
4.61733
8.98316
10.4674
-0.603495
-0.56306
-0.492093
-0.364606
-0.203971
-0.0225959
0.123162
0.424795
0.706895
1.02351
1.44305
1.78396
1.78131
1.23041
0.470084
0.240083
0.240056
0.329497
0.582262
1.22216
2.69573
5.70117
8.70475
-0.968833
-0.971339
-0.976693
-0.984524
-0.991011
-0.96842
-0.888666
-0.632579
-0.475072
-0.45665
-0.373222
-0.156345
-0.0133818
-0.120422
-0.20362
-0.061117
0.0307526
0.0647886
0.158475
0.356622
0.523644
1.67687
3.75898
-1.10785
-1.10843
-1.11174
-1.11842
-1.12579
-1.13864
-1.15449
-1.19848
-1.22271
-1.22163
-1.20222
-1.14328
-1.0241
-0.882282
-0.668209
-0.443498
-0.316279
-0.326968
-0.342649
-0.501291
-0.540048
0.484119
1.90319
-1.24819
-1.24856
-1.24986
-1.25455
-1.26154
-1.27039
-1.27999
-1.29164
-1.30166
-1.30345
-1.29377
-1.2706
-1.22967
-1.169
-1.06332
-0.90598
-0.816305
-0.806299
-0.875131
-1.15962
-1.40717
-0.953962
0.0138804
-1.38732
-1.38892
-1.39009
-1.39363
-1.39954
-1.4074
-1.41617
-1.42564
-1.43312
-1.4354
-1.43281
-1.42904
-1.42635
-1.41999
-1.38774
-1.33484
-1.30238
-1.24675
-1.29715
-1.45136
-1.58173
-1.5971
-1.64077
-1.52371
-1.52717
-1.52927
-1.5326
-1.53771
-1.54467
-1.55285
-1.56131
-1.56822
-1.57288
-1.5776
-1.58797
-1.60383
-1.61294
-1.60818
-1.599
-1.58108
-1.53716
-1.55889
-1.62421
-1.68849
-1.73182
-1.7239
-1.65768
-1.66243
-1.66622
-1.66997
-1.67466
-1.68073
-1.68775
-1.69499
-1.70141
-1.70728
-1.71389
-1.72346
-1.73522
-1.74358
-1.74273
-1.73835
-1.73186
-1.72334
-1.74731
-1.78693
-1.80056
-1.8149
-1.8093
-1.7896
-1.79577
-1.80113
-1.80547
-1.80999
-1.81527
-1.8212
-1.82736
-1.83329
-1.83906
-1.84521
-1.85259
-1.86065
-1.8665
-1.86752
-1.86683
-1.86862
-1.8774
-1.90529
-1.92714
-1.93019
-1.92197
-1.91342
-1.92052
-1.92779
-1.93436
-1.93921
-1.94363
-1.94837
-1.95351
-1.95885
-1.96413
-1.96934
-1.97465
-1.98031
-1.98595
-1.99034
-1.99265
-1.9946
-1.99914
-2.01017
-2.02848
-2.03914
-2.04438
-2.03968
-2.03173
-2.05124
-2.05905
-2.06629
-2.07143
-2.07573
-2.08006
-2.08458
-2.08922
-2.09385
-2.09843
-2.10296
-2.10747
-2.11176
-2.11539
-2.11825
-2.1213
-2.12605
-2.13397
-2.1441
-2.15348
-2.15865
-2.15785
-2.15467
-2.18223
-2.19002
-2.19735
-2.2025
-2.20663
-2.21058
-2.21458
-2.21862
-2.22264
-2.22661
-2.23049
-2.23424
-2.23778
-2.24101
-2.24408
-2.24753
-2.25208
-2.25831
-2.26603
-2.2731
-2.27761
-2.2788
-2.27929
-2.31371
-2.32096
-2.32786
-2.33278
-2.33667
-2.34028
-2.34383
-2.34734
-2.35082
-2.35426
-2.35761
-2.36084
-2.36392
-2.36691
-2.37003
-2.3736
-2.37794
-2.38327
-2.38938
-2.39503
-2.39929
-2.40196
-2.40435
-2.44545
-2.45186
-2.45796
-2.4625
-2.46613
-2.46944
-2.4726
-2.47568
-2.4787
-2.48169
-2.48463
-2.48749
-2.49027
-2.49309
-2.49616
-2.49968
-2.50377
-2.50846
-2.51355
-2.51839
-2.52251
-2.52587
-2.52887
-2.5772
-2.58248
-2.58766
-2.59181
-2.59521
-2.59825
-2.60108
-2.6038
-2.60644
-2.60907
-2.61169
-2.61429
-2.61688
-2.61956
-2.62251
-2.62589
-2.62973
-2.63396
-2.6384
-2.64271
-2.6466
-2.64995
-2.65271
-2.70857
-2.71256
-2.71701
-2.72086
-2.72404
-2.72682
-2.72936
-2.73176
-2.73409
-2.73643
-2.73879
-2.74121
-2.74367
-2.74624
-2.74907
-2.75226
-2.75584
-2.75971
-2.7637
-2.7676
-2.7712
-2.77432
-2.77685
-2.84082
-2.84352
-2.84648
-2.84992
-2.85278
-2.85523
-2.85747
-2.85959
-2.86166
-2.86375
-2.86591
-2.86816
-2.87052
-2.87302
-2.87573
-2.87874
-2.88207
-2.88561
-2.88925
-2.89282
-2.89615
-2.89908
-2.90155
-2.97436
-2.97583
-2.97699
-2.9793
-2.9815
-2.98351
-2.98541
-2.98726
-2.98911
-2.991
-2.99298
-2.9951
-2.99736
-2.99978
-3.00239
-3.00525
-3.00835
-3.01163
-3.01498
-3.01829
-3.02143
-3.02424
-3.02672
-3.10726
-3.10768
-3.10796
-3.10873
-3.11002
-3.11152
-3.1131
-3.11473
-3.11641
-3.11815
-3.12
-3.122
-3.12416
-3.1265
-3.12902
-3.13174
-3.13467
-3.13774
-3.14089
-3.14402
-3.14703
-3.14981
-3.15234
-3.23742
-3.23735
-3.2371
-3.23721
-3.23796
-3.23912
-3.24048
-3.24195
-3.24352
-3.24518
-3.24694
-3.24885
-3.25093
-3.25318
-3.25562
-3.25824
-3.26103
-3.26395
-3.26696
-3.26997
-3.27291
-3.2757
-3.27832
-3.36554
-3.3649
-3.36437
-3.36459
-3.3653
-3.36632
-3.36756
-3.36895
-3.37046
-3.37208
-3.3738
-3.37566
-3.37767
-3.37985
-3.38221
-3.38473
-3.38742
-3.39023
-3.39312
-3.39606
-3.39896
-3.40177
-3.40447
-3.49341
-3.49225
-3.49163
-3.49178
-3.49241
-3.49334
-3.49449
-3.49582
-3.4973
-3.49888
-3.50058
-3.50241
-3.50437
-3.5065
-3.50878
-3.51122
-3.5138
-3.51652
-3.51932
-3.52218
-3.52505
-3.52787
-3.53062
-3.62135
-3.62008
-3.61926
-3.61918
-3.61962
-3.6204
-3.62145
-3.6227
-3.62411
-3.62566
-3.62733
-3.62913
-3.63105
-3.63312
-3.63532
-3.63768
-3.64017
-3.64278
-3.64549
-3.64827
-3.65107
-3.65386
-3.65661
-3.74931
-3.74804
-3.74708
-3.74679
-3.74702
-3.74763
-3.74854
-3.74968
-3.75101
-3.75249
-3.75411
-3.75586
-3.75773
-3.75973
-3.76186
-3.76412
-3.7665
-3.769
-3.7716
-3.77427
-3.77699
-3.7797
-3.78242
-3.87723
-3.87601
-3.87499
-3.87454
-3.87461
-3.87506
-3.87582
-3.87683
-3.87805
-3.87945
-3.88099
-3.88266
-3.88446
-3.88637
-3.8884
-3.89056
-3.89282
-3.89519
-3.89766
-3.90021
-3.9028
-3.90542
-3.90804
-4.00514
-4.00399
-4.00295
-4.00241
-4.00236
-4.00267
-4.0033
-4.00418
-4.00528
-4.00656
-4.008
-4.00957
-4.01127
-4.01308
-4.015
-4.01703
-4.01916
-4.02139
-4.02372
-4.02612
-4.02857
-4.03106
-4.03357
-4.13303
-4.13196
-4.13094
-4.13036
-4.13022
-4.13043
-4.13094
-4.1317
-4.13268
-4.13384
-4.13516
-4.13662
-4.1382
-4.13988
-4.14168
-4.14357
-4.14556
-4.14764
-4.14981
-4.15205
-4.15435
-4.15668
-4.15905
-4.26089
-4.25991
-4.25894
-4.25834
-4.25815
-4.25828
-4.2587
-4.25935
-4.26021
-4.26126
-4.26246
-4.26379
-4.26524
-4.2668
-4.26845
-4.2702
-4.27204
-4.27396
-4.27596
-4.27804
-4.28017
-4.28234
-4.28455
-4.38871
-4.38783
-4.38691
-4.38632
-4.3861
-4.38618
-4.38652
-4.38709
-4.38785
-4.38878
-4.38986
-4.39107
-4.39239
-4.39381
-4.39532
-4.39692
-4.3986
-4.40036
-4.40219
-4.4041
-4.40606
-4.40806
-4.4101
-4.51648
-4.5157
-4.51485
-4.51429
-4.51405
-4.5141
-4.51438
-4.51487
-4.51555
-4.51638
-4.51735
-4.51843
-4.51962
-4.5209
-4.52227
-4.52372
-4.52524
-4.52683
-4.5285
-4.53023
-4.53202
-4.53384
-4.53572
-4.64418
-4.64351
-4.64274
-4.64221
-4.64198
-4.642
-4.64224
-4.64268
-4.64328
-4.64402
-4.64488
-4.64585
-4.64691
-4.64805
-4.64927
-4.65057
-4.65193
-4.65336
-4.65486
-4.65642
-4.65803
-4.65968
-4.66139
-4.77183
-4.77125
-4.77057
-4.77009
-4.76987
-4.76988
-4.77009
-4.77048
-4.77101
-4.77167
-4.77243
-4.77328
-4.77422
-4.77523
-4.77631
-4.77745
-4.77866
-4.77992
-4.78125
-4.78264
-4.78408
-4.78556
-4.78709
-4.8994
-4.89894
-4.89835
-4.89792
-4.89772
-4.89773
-4.89792
-4.89826
-4.89873
-4.8993
-4.89997
-4.90071
-4.90153
-4.9024
-4.90334
-4.90434
-4.90539
-4.9065
-4.90766
-4.90887
-4.91014
-4.91144
-4.9128
-5.02692
-5.02658
-5.02608
-5.02571
-5.02553
-5.02554
-5.02571
-5.02601
-5.02642
-5.02692
-5.02749
-5.02812
-5.02882
-5.02957
-5.03036
-5.03121
-5.03211
-5.03306
-5.03405
-5.0351
-5.03619
-5.03732
-5.0385
-5.15438
-5.15417
-5.15379
-5.15346
-5.15331
-5.15332
-5.15348
-5.15374
-5.15409
-5.1545
-5.15497
-5.1555
-5.15608
-5.1567
-5.15736
-5.15807
-5.15881
-5.1596
-5.16043
-5.16131
-5.16222
-5.16317
-5.16416
-5.28184
-5.28178
-5.28148
-5.28118
-5.28104
-5.28106
-5.2812
-5.28142
-5.2817
-5.28204
-5.28241
-5.28284
-5.28329
-5.28379
-5.28432
-5.28488
-5.28548
-5.28611
-5.28678
-5.28748
-5.28821
-5.28897
-5.28978
-5.40938
-5.40947
-5.40923
-5.40884
-5.40869
-5.40872
-5.40884
-5.40901
-5.40923
-5.40949
-5.40977
-5.41009
-5.41044
-5.41081
-5.41121
-5.41163
-5.41208
-5.41256
-5.41306
-5.41358
-5.41414
-5.41471
-5.41532
-5.537
-5.53762
-5.53722
-5.53642
-5.53624
-5.53628
-5.53639
-5.53652
-5.53668
-5.53686
-5.53705
-5.53727
-5.53751
-5.53777
-5.53804
-5.53833
-5.53863
-5.53895
-5.53929
-5.53964
-5.54
-5.54038
-5.54079
-5.66405
-5.6673
-5.66601
-5.66494
-5.66472
-5.66472
-5.66475
-5.6648
-5.66486
-5.66493
-5.66502
-5.66511
-5.66521
-5.66532
-5.66544
-5.66556
-5.66569
-5.66582
-5.66596
-5.66609
-5.66622
-5.66636
-5.66649
226.173
216.965
209.128
194.521
96.9412
87.2507
78.8491
68.9791
27.9727
24.258
20.3484
16.471
9.61711
8.99236
8.77134
9.26338
9.07495
8.75136
8.33448
8.09311
4.4004
4.58333
4.23627
3.84023
2.01094
1.1926
0.106773
-0.202321
-0.482429
-0.814232
-0.924565
-0.987597
-1.5472
-1.457
-1.37032
-1.34486
-1.70796
-1.6711
-1.6099
-1.57363
-1.78805
-1.76914
-1.74486
-1.72537
-1.90104
-1.88981
-1.87434
-1.86188
-2.02498
-2.01789
-2.01009
-1.99916
-2.1518
-2.14651
-2.1418
-2.13342
-2.27951
-2.27658
-2.2711
-2.26529
-2.40563
-2.40409
-2.3999
-2.39671
-2.52943
-2.52854
-2.52716
-2.52587
-2.65335
-2.65351
-2.65354
-2.65353
-2.77802
-2.77881
-2.77969
-2.78048
-2.90305
-2.90423
-2.90561
-2.9069
-3.02844
-3.02984
-3.03148
-3.03304
-3.15423
-3.15574
-3.15747
-3.15912
-3.28035
-3.2819
-3.28361
-3.28523
-3.40661
-3.40817
-3.40981
-3.41134
-3.53282
-3.53436
-3.53594
-3.53739
-3.65883
-3.66036
-3.66189
-3.66328
-3.7846
-3.78611
-3.78762
-3.78898
-3.91017
-3.91165
-3.91314
-3.91449
-4.0356
-4.03704
-4.03851
-4.03986
-4.16098
-4.16237
-4.1638
-4.16514
-4.28637
-4.28769
-4.28907
-4.29037
-4.41179
-4.41304
-4.41436
-4.41561
-4.53728
-4.53844
-4.53968
-4.54087
-4.66282
-4.66389
-4.66504
-4.66614
-4.78839
-4.78936
-4.79041
-4.79142
-4.91396
-4.91484
-4.91578
-4.91669
-5.03951
-5.04029
-5.04112
-5.04192
-5.16503
-5.16569
-5.1664
-5.16709
-5.29048
-5.29102
-5.2916
-5.29217
-5.41586
-5.41627
-5.41671
-5.41715
-5.54112
-5.54139
-5.54168
-5.54197
-5.6666
-5.66669
-5.66679
-5.6669
147.385
149.17
145.011
137.32
147.376
168.903
201.252
235.332
265.89
296.13
319.428
336.779
349
358.016
362.85
362.993
366.97
377.51
395.196
52.9241
46.4315
38.2787
33.478
38.6259
54.78
86.7679
122.455
156.288
187.416
214.559
237.036
250.42
257.977
259.884
252.656
248.032
255.561
281.845
10.3731
9.85252
10.8893
11.8699
12.7454
15.772
26.1691
43.7383
65.348
88.0413
111.552
132.271
146.013
151.886
151.412
146.178
140.151
144.388
169.437
9.52313
9.35382
9.56386
10.0181
10.4344
10.8378
11.5215
14.2943
18.698
26.0921
38.9308
54.2108
65.9801
71.5817
75.3779
77.9085
78.7971
81.6288
87.5613
8.10842
8.57892
8.94874
9.38008
9.66514
9.59101
9.4018
9.59302
9.63881
9.35826
10.3634
16.3363
24.2593
30.0035
38.0015
46.0034
50.0075
50.4867
47.9654
4.42064
5.80413
6.8572
7.59303
7.91638
7.75082
7.58356
7.67887
7.7585
7.84135
7.16252
6.41521
8.03961
11.0643
17.1694
23.7707
28.5304
29.0433
26.876
-0.0876664
0.516159
1.70544
2.87302
3.38593
3.47546
3.57398
3.86924
4.20123
4.48367
4.19062
2.93022
1.13495
1.38824
3.58875
7.26578
11.0091
11.5423
10.0684
-1.16713
-1.36148
-1.19316
-0.78508
-0.497138
-0.358739
-0.238621
-0.0341713
0.291435
0.68003
0.810141
-0.00069426
-0.713827
-1.07429
-1.20356
-0.616522
0.47422
0.761654
0.528142
-1.35914
-1.39487
-1.45972
-1.53712
-1.53998
-1.50398
-1.47433
-1.46647
-1.46422
-1.37867
-1.21761
-1.34148
-1.45843
-1.53216
-1.58564
-1.62201
-1.7107
-1.78528
-1.63495
-1.54673
-1.54266
-1.54075
-1.54894
-1.54867
-1.54563
-1.55495
-1.57482
-1.60063
-1.64386
-1.72102
-1.79689
-1.74057
-1.72739
-1.75283
-1.77878
-1.78959
-1.78545
-1.76973
-1.70468
-1.69956
-1.6979
-1.70025
-1.69943
-1.70019
-1.71049
-1.72835
-1.75401
-1.78774
-1.82909
-1.86652
-1.86175
-1.85569
-1.8738
-1.89391
-1.90549
-1.90816
-1.89754
-1.84805
-1.84524
-1.84625
-1.85072
-1.85624
-1.86111
-1.87032
-1.88418
-1.90495
-1.93097
-1.95619
-1.97519
-1.97524
-1.97864
-1.99061
-2.00149
-2.01172
-2.0172
-2.01549
-1.98793
-1.98553
-1.98728
-1.99345
-2.00433
-2.01404
-2.02081
-2.03356
-2.05305
-2.07233
-2.08436
-2.09285
-2.09465
-2.10222
-2.11097
-2.11572
-2.12156
-2.12706
-2.13143
-2.12565
-2.12338
-2.12523
-2.13173
-2.14308
-2.15784
-2.16696
-2.17881
-2.19488
-2.20788
-2.2153
-2.21634
-2.21845
-2.22611
-2.23352
-2.23858
-2.24151
-2.24603
-2.25235
-2.26065
-2.2594
-2.26157
-2.26735
-2.27744
-2.29167
-2.30673
-2.31801
-2.32549
-2.33269
-2.34083
-2.34502
-2.34798
-2.35156
-2.35629
-2.36226
-2.36609
-2.37262
-2.37998
-2.39381
-2.39378
-2.39627
-2.40113
-2.40929
-2.42113
-2.43585
-2.44591
-2.44961
-2.45476
-2.46272
-2.47006
-2.47446
-2.47636
-2.47996
-2.48654
-2.49421
-2.50386
-2.51112
-2.5248
-2.52618
-2.5288
-2.53326
-2.53972
-2.54879
-2.55916
-2.56744
-2.57238
-2.57741
-2.58385
-2.5905
-2.59561
-2.59929
-2.60503
-2.61425
-2.62481
-2.63313
-2.63653
-2.65395
-2.65642
-2.65973
-2.66381
-2.66936
-2.67623
-2.68353
-2.69018
-2.69539
-2.70061
-2.70641
-2.71226
-2.71757
-2.72286
-2.72998
-2.73993
-2.74968
-2.75468
-2.75485
-2.78184
-2.78482
-2.78889
-2.79331
-2.79826
-2.8038
-2.80944
-2.81462
-2.81943
-2.82449
-2.82992
-2.83551
-2.841
-2.84676
-2.85367
-2.8617
-2.86855
-2.87219
-2.87186
-2.90887
-2.91209
-2.9162
-2.92097
-2.92581
-2.93075
-2.93541
-2.93958
-2.94398
-2.94878
-2.95392
-2.95924
-2.96464
-2.97026
-2.97635
-2.98256
-2.98752
-2.99009
-2.98889
-3.03536
-3.0387
-3.04262
-3.04701
-3.05164
-3.05624
-3.06044
-3.06438
-3.06858
-3.07313
-3.07797
-3.083
-3.08809
-3.09326
-3.0985
-3.10342
-3.10714
-3.10918
-3.10784
-3.16157
-3.16493
-3.16868
-3.17274
-3.17692
-3.18108
-3.18506
-3.18896
-3.19303
-3.19733
-3.20185
-3.20649
-3.21117
-3.21581
-3.22029
-3.22427
-3.22718
-3.22888
-3.22807
-3.28764
-3.29094
-3.29451
-3.29829
-3.30213
-3.30595
-3.30969
-3.31342
-3.31728
-3.32131
-3.32546
-3.32968
-3.3339
-3.33801
-3.34185
-3.34511
-3.34741
-3.34848
-3.34781
-3.41364
-3.41682
-3.4202
-3.42371
-3.42725
-3.43077
-3.43426
-3.43776
-3.44135
-3.44506
-3.44886
-3.45266
-3.45641
-3.46001
-3.46327
-3.46597
-3.46777
-3.46833
-3.46719
-3.53956
-3.5426
-3.54577
-3.54904
-3.5523
-3.55555
-3.55878
-3.56202
-3.56532
-3.56869
-3.57211
-3.57552
-3.57882
-3.58192
-3.58467
-3.58686
-3.58822
-3.58835
-3.58652
-3.66536
-3.66826
-3.67125
-3.67428
-3.6773
-3.68029
-3.68327
-3.68625
-3.68925
-3.6923
-3.69535
-3.69836
-3.70124
-3.70388
-3.70613
-3.70782
-3.70864
-3.70816
-3.70587
-3.79101
-3.79379
-3.79661
-3.79945
-3.80225
-3.80501
-3.80776
-3.81049
-3.81322
-3.81596
-3.81866
-3.82129
-3.82376
-3.82597
-3.82776
-3.82893
-3.82914
-3.82785
-3.82531
-3.9165
-3.91918
-3.92187
-3.92453
-3.92715
-3.92972
-3.93226
-3.93476
-3.93724
-3.93969
-3.94208
-3.94437
-3.94646
-3.94827
-3.94963
-3.95034
-3.94998
-3.94798
-3.94515
-4.04185
-4.04444
-4.04701
-4.04954
-4.052
-4.05441
-4.05676
-4.05906
-4.06132
-4.06351
-4.06562
-4.06759
-4.06935
-4.0708
-4.0718
-4.07215
-4.0714
-4.06897
-4.06569
-4.1671
-4.1696
-4.17206
-4.17446
-4.17679
-4.17905
-4.18124
-4.18336
-4.18541
-4.18738
-4.18923
-4.19092
-4.1924
-4.19355
-4.19426
-4.19434
-4.1934
-4.19082
-4.18695
-4.29228
-4.29469
-4.29703
-4.29932
-4.30153
-4.30365
-4.30569
-4.30764
-4.3095
-4.31126
-4.31289
-4.31434
-4.31556
-4.31646
-4.31694
-4.31681
-4.31573
-4.31306
-4.30885
-4.41744
-4.41973
-4.42195
-4.42412
-4.42621
-4.42821
-4.4301
-4.43189
-4.43357
-4.43513
-4.43656
-4.4378
-4.4388
-4.43949
-4.43976
-4.43943
-4.43812
-4.43516
-4.43136
-4.5426
-4.54474
-4.54685
-4.5489
-4.55086
-4.55272
-4.55447
-4.55609
-4.5576
-4.55898
-4.56021
-4.56126
-4.56209
-4.5626
-4.5627
-4.56219
-4.5606
-4.55715
-4.55354
-4.66775
-4.66975
-4.67172
-4.67365
-4.67549
-4.67721
-4.6788
-4.68025
-4.68158
-4.68277
-4.68383
-4.68472
-4.68539
-4.68577
-4.68577
-4.68518
-4.68353
-4.67989
-4.67582
-4.7929
-4.79475
-4.79658
-4.79838
-4.8001
-4.80169
-4.80311
-4.80438
-4.80551
-4.80652
-4.8074
-4.80814
-4.80869
-4.80899
-4.80894
-4.8084
-4.80696
-4.80385
-4.79975
-4.91802
-4.91972
-4.92142
-4.92311
-4.92473
-4.92618
-4.92741
-4.92848
-4.9294
-4.93022
-4.93092
-4.93151
-4.93196
-4.9322
-4.93214
-4.93165
-4.93028
-4.9274
-4.92353
-5.04311
-5.04465
-5.04623
-5.04783
-5.04938
-5.05071
-5.05173
-5.05256
-5.05325
-5.05385
-5.05438
-5.05483
-5.05518
-5.05537
-5.05532
-5.05483
-5.05335
-5.05019
-5.04621
-5.16813
-5.16951
-5.17097
-5.17251
-5.17406
-5.17532
-5.17608
-5.17663
-5.17705
-5.17742
-5.17775
-5.17805
-5.17832
-5.17851
-5.17852
-5.17812
-5.17656
-5.17323
-5.16914
-5.29305
-5.29426
-5.29561
-5.29713
-5.29884
-5.30015
-5.30056
-5.30072
-5.30083
-5.30092
-5.30103
-5.30119
-5.30139
-5.30162
-5.30179
-5.30169
-5.30028
-5.297
-5.29288
-5.41784
-5.41883
-5.42004
-5.42168
-5.42407
-5.42591
-5.42559
-5.4251
-5.42474
-5.42448
-5.42432
-5.42428
-5.42437
-5.42466
-5.42509
-5.4255
-5.4245
-5.42151
-5.4173
-5.54246
-5.54317
-5.54419
-5.54618
-5.55041
-5.55348
-5.55152
-5.54994
-5.54894
-5.54821
-5.54769
-5.54735
-5.54724
-5.54745
-5.54821
-5.54938
-5.54923
-5.54676
-5.54232
-5.66709
-5.66741
-5.6681
-5.67024
-5.67676
-5.6776
-5.67435
-5.67246
-5.67136
-5.67059
-5.67001
-5.66958
-5.6693
-5.6692
-5.67009
-5.67499
-5.67631
-5.67428
-5.66727
)
;

boundaryField
{
    leftWall
    {
        type            calculated;
        value           nonuniform List<scalar> 
50
(
689.538
630.577
571.436
512.108
452.606
392.948
333.152
273.222
179.293
62.8601
5.81056
-0.0934947
-0.603495
-0.968833
-1.10785
-1.24819
-1.38732
-1.52371
-1.65768
-1.7896
-1.92052
-2.05124
-2.18223
-2.31371
-2.44545
-2.5772
-2.70857
-2.84082
-2.97436
-3.10726
-3.23742
-3.36554
-3.49341
-3.62135
-3.74931
-3.87723
-4.00514
-4.13303
-4.26089
-4.38871
-4.51648
-4.64418
-4.77183
-4.8994
-5.02692
-5.15438
-5.28184
-5.40938
-5.537
-5.66405
)
;
    }
    rightWall
    {
        type            calculated;
        value           nonuniform List<scalar> 
50
(
846.648
790.037
734.752
680.916
628.374
576.883
525.995
475.22
395.196
281.845
169.437
87.5613
47.9654
26.876
10.0684
0.528142
-1.63495
-1.76973
-1.89754
-2.01549
-2.13143
-2.25235
-2.37998
-2.51112
-2.63653
-2.75485
-2.87186
-2.98889
-3.10784
-3.22807
-3.34781
-3.46719
-3.58652
-3.70587
-3.82531
-3.94515
-4.06569
-4.18695
-4.30885
-4.43136
-4.55354
-4.67582
-4.79975
-4.92353
-5.04621
-5.16914
-5.29288
-5.4173
-5.54232
-5.66727
)
;
    }
    lowerWall
    {
        type            calculated;
        value           nonuniform List<scalar> 
62
(
718.967
719.777
721.747
724.281
727.004
729.822
732.716
735.694
738.791
742.051
745.529
749.27
753.313
757.659
762.343
767.35
772.689
778.398
783.804
789.519
795.717
801.004
805.003
775.906
716.654
658.048
600.372
543.608
487.709
432.143
374.191
288.539
279.271
271.312
256.523
628.837
569.642
509.133
448.723
389.196
329.818
264.913
199.333
657.975
659.706
682.857
710.101
728.031
737.762
744.176
750.316
757.79
768.269
783.337
800.86
818.966
832.309
838.956
846.398
855.483
865.85
874.975
)
;
    }
    atmosphere
    {
        type            calculated;
        value           nonuniform List<scalar> 
46
(
-5.72919
-5.72989
-5.72983
-5.72973
-5.72966
-5.72961
-5.72957
-5.72954
-5.72952
-5.72951
-5.72951
-5.72952
-5.72953
-5.72955
-5.72957
-5.72959
-5.7296
-5.72961
-5.72962
-5.72961
-5.7296
-5.72957
-5.72954
-5.72951
-5.72948
-5.72945
-5.72942
-5.72936
-5.72927
-5.7292
-5.72913
-5.72908
-5.72904
-5.72904
-5.72904
-5.72904
-5.72904
-5.72904
-5.72904
-5.72904
-5.72904
-5.72904
-5.7427
-5.74574
-5.74574
-5.7302
)
;
    }
    defaultFaces
    {
        type            empty;
    }
}


// ************************************************************************* //
