/*--------------------------------*- C++ -*----------------------------------*\
| =========                 |                                                 |
| \\      /  F ield         | OpenFOAM: The Open Source CFD Toolbox           |
|  \\    /   O peration     | Version:  2.3.0                                 |
|   \\  /    A nd           | Web:      www.OpenFOAM.org                      |
|    \\/     M anipulation  |                                                 |
\*---------------------------------------------------------------------------*/
FoamFile
{
    version     2.0;
    format      ascii;
    class       volVectorField;
    location    "1.9";
    object      U;
}
// * * * * * * * * * * * * * * * * * * * * * * * * * * * * * * * * * * * * * //

dimensions      [0 1 -1 0 0 0 0];

internalField   nonuniform List<vector> 
2268
(
(-0.0163741 0.00504362 0)
(-0.0156845 -0.00158146 0)
(-0.00797202 -0.00399575 0)
(0.0013213 -0.00381876 0)
(0.0102946 -0.00324653 0)
(0.0178916 -0.00258413 0)
(0.023955 -0.00197245 0)
(0.0285424 -0.00145109 0)
(0.0318225 -0.0010268 0)
(0.0340008 -0.000695391 0)
(0.0353127 -0.000452598 0)
(0.0359797 -0.000266465 0)
(0.0361375 -7.52497e-05 0)
(0.0357088 0.00018361 0)
(0.0342996 0.000697285 0)
(0.0311846 0.00163698 0)
(0.0251644 0.00309804 0)
(0.0158585 0.00498944 0)
(-0.00133947 0.00980197 0)
(-0.0296901 0.0132465 0)
(-0.0631713 0.00917709 0)
(-0.0758827 -0.0067202 0)
(-0.0339455 -0.0222992 0)
(-0.00906944 0.0101381 0)
(-0.005147 -0.00227543 0)
(0.00105721 -0.00625609 0)
(0.00868261 -0.00668621 0)
(0.0163954 -0.0060528 0)
(0.0233633 -0.00505199 0)
(0.0292093 -0.00397891 0)
(0.0337884 -0.00296033 0)
(0.0371188 -0.00205963 0)
(0.0393145 -0.00130971 0)
(0.0405629 -0.000727704 0)
(0.0410698 -0.000274461 0)
(0.0409727 0.000146598 0)
(0.0402955 0.000695693 0)
(0.0388289 0.00165816 0)
(0.0360619 0.00329013 0)
(0.0311468 0.00575535 0)
(0.0233132 0.00931737 0)
(0.0112428 0.0159266 0)
(-0.00569198 0.020718 0)
(-0.0250803 0.0157472 0)
(-0.0387547 -0.00548206 0)
(-0.0203028 -0.0400377 0)
(-0.00051125 0.0110162 0)
(0.00203068 -0.00418474 0)
(0.00739215 -0.00899017 0)
(0.0139618 -0.00977535 0)
(0.0208743 -0.00907395 0)
(0.0273706 -0.00775624 0)
(0.0329706 -0.00621828 0)
(0.0374179 -0.0046731 0)
(0.0406459 -0.00325161 0)
(0.0427164 -0.00203333 0)
(0.0437919 -0.00106462 0)
(0.044077 -0.000304853 0)
(0.0437404 0.000372167 0)
(0.0428675 0.00121457 0)
(0.0413576 0.00257074 0)
(0.038877 0.00480589 0)
(0.0348706 0.00817806 0)
(0.0287223 0.0129925 0)
(0.0208386 0.0203568 0)
(0.0116343 0.0257093 0)
(0.00124998 0.0207234 0)
(-0.0115248 -0.00265186 0)
(-0.00410065 -0.0481941 0)
(0.004696 0.0091733 0)
(0.00728879 -0.00612984 0)
(0.0123108 -0.011622 0)
(0.0183227 -0.0127844 0)
(0.0247473 -0.012091 0)
(0.0309185 -0.010502 0)
(0.0363094 -0.00850977 0)
(0.0405977 -0.00642006 0)
(0.043663 -0.00444201 0)
(0.0455344 -0.00271289 0)
(0.046365 -0.00131953 0)
(0.0463735 -0.000228086 0)
(0.0457729 0.00070832 0)
(0.0447278 0.00179103 0)
(0.0432502 0.00345857 0)
(0.0411598 0.00615359 0)
(0.0381428 0.010182 0)
(0.0338606 0.0157798 0)
(0.0291804 0.0232702 0)
(0.0249402 0.0288097 0)
(0.0202065 0.0244145 0)
(0.0105874 0.00105452 0)
(0.0109194 -0.0477632 0)
(0.00704748 0.00570433 0)
(0.0108876 -0.00842324 0)
(0.0160607 -0.0141883 0)
(0.0219045 -0.0156731 0)
(0.0280904 -0.0150218 0)
(0.0340671 -0.0131975 0)
(0.0392992 -0.0107646 0)
(0.0434271 -0.0081213 0)
(0.0462983 -0.00556267 0)
(0.0479228 -0.00329259 0)
(0.0484562 -0.00145039 0)
(0.0481427 -1.98594e-05 0)
(0.0472496 0.00115062 0)
(0.046037 0.00239932 0)
(0.0446398 0.00424487 0)
(0.0430202 0.00719214 0)
(0.0410653 0.0115594 0)
(0.0387091 0.0174526 0)
(0.0367836 0.0246746 0)
(0.0362175 0.0299684 0)
(0.0353701 0.0264849 0)
(0.0292299 0.00561011 0)
(0.0236247 -0.040253 0)
(0.00788483 0.00135042 0)
(0.0131531 -0.0111643 0)
(0.0187409 -0.0168101 0)
(0.0246613 -0.0185024 0)
(0.0307876 -0.0178794 0)
(0.0366758 -0.0158257 0)
(0.0418015 -0.0129505 0)
(0.0457858 -0.00973845 0)
(0.0484584 -0.00657495 0)
(0.0498203 -0.00373701 0)
(0.0500377 -0.00142878 0)
(0.0493863 0.000339045 0)
(0.0481921 0.00170349 0)
(0.0468223 0.00302372 0)
(0.0455425 0.00489006 0)
(0.0444489 0.00786016 0)
(0.0435919 0.0122406 0)
(0.043123 0.0180046 0)
(0.0438014 0.0246641 0)
(0.0463356 0.0294805 0)
(0.0486513 0.0271504 0)
(0.0463829 0.0109907 0)
(0.0357578 -0.0258494 0)
(0.00810669 -0.00343954 0)
(0.0144254 -0.01432 0)
(0.0204202 -0.0195681 0)
(0.0264967 -0.021351 0)
(0.0326514 -0.0207197 0)
(0.0385124 -0.0184195 0)
(0.0435716 -0.0150821 0)
(0.0474395 -0.0112741 0)
(0.049937 -0.0074751 0)
(0.0510621 -0.00403996 0)
(0.0509964 -0.00124924 0)
(0.0500442 0.000851754 0)
(0.0485846 0.00236546 0)
(0.0470979 0.00365262 0)
(0.0459832 0.00537243 0)
(0.0454624 0.00813504 0)
(0.0457211 0.0122246 0)
(0.0470838 0.0174962 0)
(0.0502858 0.0233258 0)
(0.0558276 0.0275143 0)
(0.0614853 0.0263021 0)
(0.0639055 0.0165628 0)
(0.0516723 -0.000921215 0)
(0.00819199 -0.00843912 0)
(0.0149711 -0.0177966 0)
(0.021165 -0.0224971 0)
(0.0273394 -0.024291 0)
(0.0335235 -0.0236215 0)
(0.0393664 -0.0210523 0)
(0.0443718 -0.0172231 0)
(0.0481462 -0.0127822 0)
(0.05051 -0.00831145 0)
(0.0514635 -0.00424353 0)
(0.0512048 -0.000949214 0)
(0.0500551 0.00148425 0)
(0.0484293 0.00310628 0)
(0.0469152 0.00425282 0)
(0.0460403 0.00564993 0)
(0.0461446 0.00796296 0)
(0.047533 0.0114477 0)
(0.0506822 0.0158552 0)
(0.0563708 0.0205099 0)
(0.0650565 0.0237185 0)
(0.0749016 0.0230008 0)
(0.0825763 0.0187997 0)
(0.0858437 0.0345618 0)
(-0.0958005 0.0266191 0)
(-0.132694 0.00344502 0)
(-0.0790151 -0.0303343 0)
(0.00936649 -0.0364624 0)
(0.0983443 -0.0318201 0)
(0.173854 -0.024852 0)
(0.232515 -0.0184539 0)
(0.275588 -0.0127538 0)
(0.301033 -0.00486705 0)
(0.300071 0.00289613 0)
(0.275732 0.00959419 0)
(0.232859 0.015987 0)
(0.1741 0.0181788 0)
(0.107192 0.0174378 0)
(0.0443044 0.0178647 0)
(-0.00766928 0.0149666 0)
(-0.0562147 0.0109729 0)
(-0.077003 -0.00406672 0)
(-0.0376243 -0.0205198 0)
(-0.0935368 0.0608647 0)
(-0.0628321 0.00223034 0)
(-0.00260401 -0.050308 0)
(0.0733393 -0.0614627 0)
(0.142123 -0.0537248 0)
(0.197434 -0.0422243 0)
(0.240479 -0.0316909 0)
(0.274577 -0.0219053 0)
(0.296237 -0.00756843 0)
(0.299868 0.00748722 0)
(0.285943 0.0199235 0)
(0.257645 0.0322373 0)
(0.20943 0.039957 0)
(0.142913 0.0413876 0)
(0.0754995 0.0409306 0)
(0.0237064 0.0332448 0)
(-0.0177029 0.0237092 0)
(-0.0421753 -0.000248144 0)
(-0.0259396 -0.0386853 0)
(-0.0610174 0.080296 0)
(-0.00268239 -0.0165338 0)
(0.0597643 -0.0770091 0)
(0.121914 -0.0861173 0)
(0.171832 -0.0733796 0)
(0.209096 -0.0575687 0)
(0.238198 -0.0445127 0)
(0.264182 -0.0321916 0)
(0.2837 -0.0126527 0)
(0.287138 0.00976925 0)
(0.272682 0.0280166 0)
(0.245944 0.0464998 0)
(0.204475 0.0611418 0)
(0.146888 0.0659771 0)
(0.0890224 0.0631221 0)
(0.0465626 0.0502538 0)
(0.0141907 0.0354995 0)
(-0.0116698 0.00543309 0)
(-0.00778738 -0.0492664 0)
(-0.0241095 0.0851239 0)
(0.054564 -0.0407956 0)
(0.117907 -0.103226 0)
(0.16554 -0.106474 0)
(0.196617 -0.0877164 0)
(0.216423 -0.0679599 0)
(0.23227 -0.0537163 0)
(0.249551 -0.0406575 0)
(0.266497 -0.0178403 0)
(0.271541 0.012252 0)
(0.25805 0.0367462 0)
(0.232744 0.0606047 0)
(0.196281 0.0806501 0)
(0.147085 0.0884486 0)
(0.0986114 0.0820976 0)
(0.0648746 0.0647082 0)
(0.0398886 0.0464112 0)
(0.0152595 0.0127312 0)
(0.0090611 -0.0489628 0)
(0.0134934 0.0704253 0)
(0.113141 -0.0703869 0)
(0.174488 -0.126673 0)
(0.205596 -0.12007 0)
(0.21703 -0.0949432 0)
(0.219346 -0.0723805 0)
(0.221926 -0.0585029 0)
(0.230686 -0.0465942 0)
(0.244243 -0.0229576 0)
(0.250895 0.0140117 0)
(0.240972 0.0442402 0)
(0.219451 0.0726211 0)
(0.188866 0.0971497 0)
(0.148663 0.107648 0)
(0.108482 0.0979381 0)
(0.081588 0.0758614 0)
(0.0624655 0.0558982 0)
(0.0385115 0.0220895 0)
(0.0222779 -0.0406757 0)
(0.0568329 0.0372059 0)
(0.176592 -0.105742 0)
(0.228241 -0.144695 0)
(0.23991 -0.125029 0)
(0.231406 -0.0938954 0)
(0.216618 -0.0701451 0)
(0.206409 -0.0587617 0)
(0.207141 -0.049966 0)
(0.216654 -0.0273423 0)
(0.22367 0.014762 0)
(0.21985 0.0501276 0)
(0.205952 0.0825169 0)
(0.183173 0.109957 0)
(0.152481 0.122377 0)
(0.120461 0.110881 0)
(0.0990621 0.0843743 0)
(0.0833357 0.0641262 0)
(0.058447 0.0338826 0)
(0.0328137 -0.0261492 0)
(0.128959 -0.0390838 0)
(0.243698 -0.144999 0)
(0.274012 -0.153913 0)
(0.265292 -0.120548 0)
(0.237995 -0.0845748 0)
(0.207362 -0.0613215 0)
(0.185448 -0.0545405 0)
(0.178928 -0.0506987 0)
(0.183978 -0.0305115 0)
(0.190819 0.013596 0)
(0.196072 0.0520354 0)
(0.19331 0.0891241 0)
(0.179916 0.119712 0)
(0.158818 0.133811 0)
(0.135262 0.121139 0)
(0.118552 0.0911514 0)
(0.103674 0.0721836 0)
(0.0760184 0.0482908 0)
(0.0420591 -0.00582986 0)
(0.239408 -0.144465 0)
(0.303712 -0.178326 0)
(0.305421 -0.15295 0)
(0.279232 -0.108252 0)
(0.235707 -0.068703 0)
(0.191449 -0.0468765 0)
(0.159734 -0.0462364 0)
(0.147518 -0.0490541 0)
(0.149274 -0.0324713 0)
(0.156473 0.00935803 0)
(0.170471 0.0488971 0)
(0.177752 0.0905219 0)
(0.17613 0.125039 0)
(0.167204 0.141432 0)
(0.15283 0.129317 0)
(0.140789 0.0972816 0)
(0.124789 0.0817182 0)
(0.0924774 0.0659053 0)
(0.0511068 0.0198561 0)
(0.00834866 -0.0170938 0)
(0.0149225 -0.0237718 0)
(0.0209994 -0.0273849 0)
(0.0271742 -0.0290531 0)
(0.0333583 -0.028261 0)
(0.0391644 -0.0252334 0)
(0.0440979 -0.0205962 0)
(0.0477684 -0.0151217 0)
(0.0500145 -0.00956634 0)
(0.0508584 -0.00446867 0)
(0.0505275 -0.000354495 0)
(0.0493394 0.00257836 0)
(0.0477212 0.00431328 0)
(0.0463941 0.00507759 0)
(0.0460466 0.00568469 0)
(0.0472003 0.00687496 0)
(0.0503493 0.00886326 0)
(0.0562027 0.0112555 0)
(0.0656961 0.0133577 0)
(0.0794793 0.0140821 0)
(0.0971978 0.0123666 0)
(0.119112 0.00958204 0)
(0.156143 0.0151296 0)
(0.00885497 -0.0314277 0)
(0.0127088 -0.0331546 0)
(0.0182589 -0.0347011 0)
(0.0241261 -0.0356014 0)
(0.0302747 -0.0341716 0)
(0.0360897 -0.0303121 0)
(0.0409955 -0.0246002 0)
(0.0446332 -0.0178937 0)
(0.0469734 -0.0111519 0)
(0.0482244 -0.00497543 0)
(0.048629 -5.40523e-05 0)
(0.0484236 0.00337723 0)
(0.0479063 0.0051553 0)
(0.0476753 0.00529407 0)
(0.0483522 0.00466325 0)
(0.0507631 0.00388345 0)
(0.0559039 0.00294717 0)
(0.0648691 0.00136104 0)
(0.0786695 -0.00159133 0)
(0.0979366 -0.00661808 0)
(0.122833 -0.0142537 0)
(0.154197 -0.0265424 0)
(0.196608 -0.0462001 0)
(0.0105086 -0.0352338 0)
(0.00482206 -0.0337715 0)
(0.0101697 -0.0366211 0)
(0.0153997 -0.0388763 0)
(0.0217242 -0.0379476 0)
(0.0278454 -0.033843 0)
(0.0328542 -0.0275275 0)
(0.0363886 -0.0198731 0)
(0.0387255 -0.0123842 0)
(0.0408345 -0.00547777 0)
(0.0433188 -1.50596e-05 0)
(0.0460832 0.00394916 0)
(0.0489038 0.0059188 0)
(0.0516549 0.00514778 0)
(0.053357 0.00303237 0)
(0.0559421 0.000342793 0)
(0.062317 -0.00305777 0)
(0.0737635 -0.00776116 0)
(0.0900419 -0.0144154 0)
(0.110747 -0.0234864 0)
(0.136857 -0.0351984 0)
(0.170599 -0.051545 0)
(0.214943 -0.075892 0)
(0.00104612 -0.0276724 0)
(-0.0129001 -0.0326983 0)
(-0.0075305 -0.0387279 0)
(-0.00280585 -0.043983 0)
(0.00622049 -0.0448328 0)
(0.0146274 -0.0393199 0)
(0.0203024 -0.0319875 0)
(0.0225226 -0.0205003 0)
(0.0219073 -0.0125835 0)
(0.024551 -0.00713209 0)
(0.0328037 -0.00328847 0)
(0.0447687 0.000457594 0)
(0.0587969 0.00262832 0)
(0.0720991 0.00301518 0)
(0.0704216 0.00353011 0)
(0.064523 -0.00163807 0)
(0.0669837 -0.00756783 0)
(0.0780733 -0.0142984 0)
(0.0931315 -0.0221628 0)
(0.108554 -0.0316218 0)
(0.127803 -0.0425726 0)
(0.160224 -0.0660785 0)
(0.215594 -0.104677 0)
(-0.0111604 -0.0410508 0)
(-0.0231349 -0.0377245 0)
(-0.0212928 -0.0510745 0)
(-0.0181524 -0.0646563 0)
(-0.013228 -0.0665082 0)
(-0.00737952 -0.0562111 0)
(-0.00290874 -0.0432067 0)
(0.00113737 -0.0293926 0)
(0.0214731 -0.0232955 0)
(0.0437843 -0.0239604 0)
(0.065412 -0.0280207 0)
(0.0924344 -0.031559 0)
(0.125564 -0.0320736 0)
(0.152962 -0.0266195 0)
(0.167919 0.00334382 0)
(0.140009 0.0227487 0)
(-0.0103628 0.0088416 0)
(-0.175514 8.60429e-05 0)
(-0.375168 -0.00333834 0)
(-0.5512 -0.0348421 0)
(-0.487051 -0.170153 0)
(-0.339511 -0.259341 0)
(-0.224088 -0.280449 0)
(0.0219009 0.0124957 0)
(0.0188528 -0.0238053 0)
(0.0219906 -0.0377322 0)
(0.0106553 -0.0505648 0)
(-0.00462468 -0.0538386 0)
(-0.00777857 -0.0508797 0)
(0.00221641 -0.0402927 0)
(0.0254315 -0.0440244 0)
(0.0474713 -0.0439239 0)
(0.0660084 -0.042502 0)
(0.0813488 -0.0455062 0)
(0.0964689 -0.0514064 0)
(0.111183 -0.050883 0)
(0.117311 -0.0317567 0)
(0.110911 0.0392237 0)
(0.0571222 0.154598 0)
(-0.04579 0.201599 0)
(-0.191252 0.225076 0)
(-0.32673 0.190721 0)
(-0.366136 0.0332825 0)
(-0.348583 -0.190731 0)
(-0.313257 -0.292355 0)
(-0.272266 -0.313597 0)
(0.0291833 -0.0526836 0)
(0.0547384 -0.0417723 0)
(0.0610085 -0.0366251 0)
(0.0583597 -0.0375557 0)
(0.0534898 -0.0430999 0)
(0.04635 -0.0552837 0)
(0.0477464 -0.0546754 0)
(0.0490885 -0.0628115 0)
(0.0568009 -0.0573062 0)
(0.0677345 -0.0515599 0)
(0.0756464 -0.0520398 0)
(0.0757413 -0.058415 0)
(0.0660734 -0.0567695 0)
(0.0414602 -0.0302736 0)
(0.0117961 0.074423 0)
(-0.014966 0.199236 0)
(-0.0455666 0.281706 0)
(-0.125198 0.350111 0)
(-0.204702 0.266637 0)
(-0.249121 0.031852 0)
(-0.254393 -0.19236 0)
(-0.265106 -0.304594 0)
(-0.257839 -0.340342 0)
(0.0148586 -0.0896379 0)
(0.0405633 -0.0631552 0)
(0.0529524 -0.046481 0)
(0.0601303 -0.0414571 0)
(0.0638447 -0.0434616 0)
(0.0644153 -0.0514199 0)
(0.0647237 -0.0598511 0)
(0.0633297 -0.0718107 0)
(0.0591615 -0.0729591 0)
(0.0518159 -0.0649905 0)
(0.0391439 -0.0545326 0)
(0.0198804 -0.0480995 0)
(-0.00225211 -0.0359225 0)
(-0.0226126 0.00646076 0)
(-0.0449553 0.099626 0)
(-0.0557398 0.211103 0)
(-0.0622812 0.303972 0)
(-0.0784448 0.39889 0)
(-0.0945277 0.289214 0)
(-0.101666 0.0911973 0)
(-0.139256 -0.174347 0)
(-0.205613 -0.304823 0)
(-0.223692 -0.346497 0)
(0.00421518 -0.108151 0)
(0.0201931 -0.077045 0)
(0.0305603 -0.0579632 0)
(0.0399248 -0.0496431 0)
(0.0468267 -0.0484492 0)
(0.0504543 -0.0521108 0)
(0.0510087 -0.0567448 0)
(0.0477082 -0.0594025 0)
(0.0400002 -0.0548984 0)
(0.028601 -0.0436219 0)
(0.0132447 -0.0301668 0)
(-0.00725403 -0.0203489 0)
(-0.0298749 -0.00906555 0)
(-0.0563392 0.0287703 0)
(-0.0794377 0.114932 0)
(-0.0877041 0.214951 0)
(-0.0887835 0.307976 0)
(-0.063417 0.387894 0)
(-0.0250131 0.272638 0)
(-0.00951461 0.0957999 0)
(-0.0361874 -0.0717887 0)
(-0.101356 -0.256906 0)
(-0.192828 -0.341322 0)
(-0.00562255 -0.113309 0)
(0.00103012 -0.0844233 0)
(0.0061154 -0.0666988 0)
(0.0125862 -0.0574473 0)
(0.0182276 -0.0540334 0)
(0.0215557 -0.0543375 0)
(0.0216641 -0.0551679 0)
(0.0180213 -0.0529923 0)
(0.0112175 -0.0447086 0)
(0.00267277 -0.0307504 0)
(-0.00720237 -0.0140727 0)
(-0.0211768 -0.000171659 0)
(-0.0443938 0.0143822 0)
(-0.076384 0.0532651 0)
(-0.100877 0.129118 0)
(-0.10853 0.216029 0)
(-0.09767 0.297419 0)
(-0.0462931 0.335372 0)
(0.00810467 0.232806 0)
(0.0291494 0.0915413 0)
(0.0132527 -0.0343372 0)
(-0.032781 -0.152332 0)
(-0.112183 -0.246913 0)
(-0.0135965 -0.105319 0)
(-0.0152192 -0.0845423 0)
(-0.0160728 -0.0700759 0)
(-0.014577 -0.0616862 0)
(-0.0124628 -0.0574081 0)
(-0.011385 -0.0554134 0)
(-0.0125073 -0.0531986 0)
(-0.0161836 -0.0480753 0)
(-0.0216948 -0.0379325 0)
(-0.027874 -0.0229683 0)
(-0.0346211 -0.00449442 0)
(-0.0440076 0.0161879 0)
(-0.0592466 0.0424153 0)
(-0.0790013 0.0831866 0)
(-0.0921528 0.143412 0)
(-0.0897817 0.208987 0)
(-0.0668385 0.26273 0)
(-0.0148784 0.272484 0)
(0.0305269 0.194229 0)
(0.0495614 0.0891373 0)
(0.0385504 -0.0138451 0)
(0.00577235 -0.104067 0)
(-0.0521043 -0.17734 0)
(-0.01901 -0.088628 0)
(-0.0274855 -0.0768426 0)
(-0.0341098 -0.0673432 0)
(-0.0377991 -0.0611997 0)
(-0.0398085 -0.0573173 0)
(-0.0416649 -0.0543059 0)
(-0.0444403 -0.0503669 0)
(-0.0484292 -0.0436435 0)
(-0.0531686 -0.0327655 0)
(-0.0579909 -0.0175331 0)
(-0.0628244 0.00165293 0)
(-0.0686106 0.0247408 0)
(-0.0762997 0.0539293 0)
(-0.0837505 0.0930108 0)
(-0.0839691 0.141708 0)
(-0.0704397 0.190051 0)
(-0.0401377 0.223793 0)
(0.00728625 0.222103 0)
(0.0463422 0.166305 0)
(0.0618859 0.0874151 0)
(0.0540108 0.00208586 0)
(0.0253433 -0.0686304 0)
(-0.0187326 -0.123793 0)
(-0.0223642 -0.0653965 0)
(-0.0357502 -0.0630321 0)
(-0.0470327 -0.0591853 0)
(-0.0551518 -0.0561842 0)
(-0.060884 -0.0536729 0)
(-0.0655085 -0.0507872 0)
(-0.069957 -0.0463555 0)
(-0.0745244 -0.0391602 0)
(-0.0789695 -0.0282808 0)
(-0.082875 -0.0133853 0)
(-0.0860407 0.00554369 0)
(-0.0885826 0.0286946 0)
(-0.0902159 0.0570366 0)
(-0.0888208 0.0914809 0)
(-0.0800123 0.129962 0)
(-0.0600032 0.164929 0)
(-0.0280419 0.185701 0)
(0.0116449 0.180216 0)
(0.0453847 0.1406 0)
(0.0588049 0.083114 0)
(0.0544796 0.0199282 0)
(0.0330426 -0.0367653 0)
(0.000232323 -0.083034 0)
(-0.023946 -0.038362 0)
(-0.0402148 -0.0450016 0)
(-0.0546611 -0.0469396 0)
(-0.0660089 -0.0475381 0)
(-0.074606 -0.0470793 0)
(-0.0814512 -0.045201 0)
(-0.0873199 -0.0412443 0)
(-0.0924863 -0.0344712 0)
(-0.0968208 -0.0242923 0)
(-0.100003 -0.0104189 0)
(-0.101707 0.00722857 0)
(-0.1016 0.0287025 0)
(-0.098937 0.0541238 0)
(-0.0920157 0.0830282 0)
(-0.0782944 0.112888 0)
(-0.0560267 0.138094 0)
(-0.0260101 0.151316 0)
(0.0072553 0.145557 0)
(0.0349707 0.118149 0)
(0.0492525 0.0774921 0)
(0.0488788 0.0309689 0)
(0.0353318 -0.01362 0)
(0.0118066 -0.052935 0)
(-0.0239043 -0.00988715 0)
(-0.0411943 -0.0247006 0)
(-0.0572536 -0.0321429 0)
(-0.070518 -0.0364107 0)
(-0.0809854 -0.0383554 0)
(-0.0893674 -0.0380531 0)
(-0.0962645 -0.0352492 0)
(-0.101894 -0.0295687 0)
(-0.10616 -0.0206918 0)
(-0.108778 -0.00846069 0)
(-0.10936 0.00711595 0)
(-0.107416 0.0258886 0)
(-0.102169 0.0475005 0)
(-0.0924242 0.0709528 0)
(-0.0768347 0.0938977 0)
(-0.054883 0.112323 0)
(-0.0279252 0.121436 0)
(0.000323281 0.117212 0)
(0.0240594 0.0986831 0)
(0.0383101 0.0697773 0)
(0.0413869 0.0355899 0)
(0.0340171 0.00109735 0)
(0.0175076 -0.0310482 0)
(-0.0223491 0.017977 0)
(-0.0390541 -0.00398134 0)
(-0.0553223 -0.0162858 0)
(-0.0692826 -0.0239502 0)
(-0.0806793 -0.0283485 0)
(-0.0899271 -0.0299075 0)
(-0.0974332 -0.0286699 0)
(-0.103333 -0.0245285 0)
(-0.107532 -0.0173789 0)
(-0.109767 -0.00721199 0)
(-0.109656 0.00584145 0)
(-0.106717 0.0214745 0)
(-0.100315 0.0391156 0)
(-0.089698 0.0576701 0)
(-0.0742486 0.0751982 0)
(-0.0540686 0.0888833 0)
(-0.0305597 0.0956273 0)
(-0.00659938 0.0930465 0)
(0.0138941 0.0806324 0)
(0.027591 0.0605455 0)
(0.0329136 0.0359719 0)
(0.0298247 0.0101499 0)
(0.0188296 -0.0146483 0)
(-0.0194089 0.0433593 0)
(-0.0341835 0.0155201 0)
(-0.0495175 -0.000652887 0)
(-0.0631685 -0.0111447 0)
(-0.0747097 -0.0178025 0)
(-0.0842439 -0.0212798 0)
(-0.0919771 -0.0218025 0)
(-0.0979575 -0.0194415 0)
(-0.102079 -0.0142516 0)
(-0.104107 -0.00634972 0)
(-0.103708 0.00403155 0)
(-0.100483 0.0164951 0)
(-0.0939743 0.0304109 0)
(-0.0837582 0.0447777 0)
(-0.0696343 0.0580868 0)
(-0.0519669 0.0683811 0)
(-0.0319967 0.0736462 0)
(-0.0118781 0.0724188 0)
(0.00568693 0.0644089 0)
(0.0183546 0.0508377 0)
(0.0247526 0.0336899 0)
(0.0244263 0.0151668 0)
(0.0172873 -0.0026619 0)
(-0.0151923 0.0646901 0)
(-0.0271398 0.0325258 0)
(-0.0406326 0.013781 0)
(-0.0532286 0.00125157 0)
(-0.0643137 -0.00730967 0)
(-0.0736601 -0.0126023 0)
(-0.0812876 -0.0149106 0)
(-0.0871675 -0.0143988 0)
(-0.0911856 -0.0112257 0)
(-0.0931402 -0.00559906 0)
(-0.0927614 0.00218222 0)
(-0.0897468 0.0116862 0)
(-0.0837983 0.0223063 0)
(-0.0747079 0.0331948 0)
(-0.0624949 0.0432164 0)
(-0.0475961 0.0510174 0)
(-0.0310297 0.055279 0)
(-0.0143834 0.0550799 0)
(0.00044664 0.0502377 0)
(0.0117584 0.041458 0)
(0.0183964 0.0300052 0)
(0.0197914 0.0174296 0)
(0.0157056 0.00550939 0)
(-0.0104606 0.0808019 0)
(-0.0189024 0.0460361 0)
(-0.029796 0.0262952 0)
(-0.0407456 0.0126851 0)
(-0.0508865 0.00265597 0)
(-0.0596234 -0.00424942 0)
(-0.0668321 -0.00824138 0)
(-0.0724244 -0.00950838 0)
(-0.0762796 -0.00826753 0)
(-0.0782243 -0.0047829 0)
(-0.0780464 0.00061256 0)
(-0.0755272 0.00748918 0)
(-0.0704847 0.0152991 0)
(-0.0628405 0.0233506 0)
(-0.0527134 0.0308013 0)
(-0.0405229 0.036717 0)
(-0.0270685 0.0402271 0)
(-0.0135085 0.0407419 0)
(-0.00118801 0.0381399 0)
(0.00864783 0.0328402 0)
(0.0150763 0.0256596 0)
(0.0176061 0.0176688 0)
(0.0161028 0.010117 0)
(-0.00664081 0.0908391 0)
(-0.0114511 0.0553365 0)
(-0.0189869 0.0358757 0)
(-0.0273577 0.0225294 0)
(-0.0359393 0.011591 0)
(-0.0435933 0.00338834 0)
(-0.0500452 -0.0020607 0)
(-0.0551399 -0.0049134 0)
(-0.0587323 -0.00540776 0)
(-0.0606583 -0.00383348 0)
(-0.0607433 -0.000530936 0)
(-0.0588266 0.00409557 0)
(-0.054799 0.00956852 0)
(-0.0486504 0.0153325 0)
(-0.0405296 0.0207638 0)
(-0.0307994 0.0252148 0)
(-0.0200707 0.0281072 0)
(-0.00918064 0.0290577 0)
(0.000915647 0.0279833 0)
(0.00931723 0.0251363 0)
(0.0153267 0.0210347 0)
(0.0185822 0.0163641 0)
(0.0190176 0.0118446 0)
(-0.0034176 0.096877 0)
(-0.00455965 0.060842 0)
(-0.00910198 0.0418265 0)
(-0.0144757 0.0299621 0)
(-0.0207852 0.0188757 0)
(-0.0268559 0.00987304 0)
(-0.0322183 0.00334216 0)
(-0.0366054 -0.000785086 0)
(-0.039813 -0.00272827 0)
(-0.0416586 -0.00276952 0)
(-0.0419796 -0.00123184 0)
(-0.0406462 0.00152145 0)
(-0.0375862 0.00508514 0)
(-0.0328174 0.00901721 0)
(-0.0264815 0.0128535 0)
(-0.0188718 0.0161401 0)
(-0.0104448 0.018489 0)
(-0.00179967 0.0196472 0)
(0.00638966 0.0195554 0)
(0.0134823 0.0183623 0)
(0.018972 0.0163774 0)
(0.0226036 0.0139956 0)
(0.0243272 0.0115609 0)
(0.00184306 0.0980227 0)
(0.00392156 0.0634974 0)
(0.000912451 0.0453321 0)
(-0.00226692 0.0346409 0)
(-0.00611089 0.0240537 0)
(-0.0103431 0.0148613 0)
(-0.0144207 0.00773325 0)
(-0.0179574 0.00272269 0)
(-0.0206738 -0.00032843 0)
(-0.0223539 -0.00166015 0)
(-0.0228298 -0.0015539 0)
(-0.0219822 -0.00032034 0)
(-0.0197521 0.00170625 0)
(-0.0161597 0.00417737 0)
(-0.0113221 0.00674551 0)
(-0.00546442 0.00908823 0)
(0.00107991 0.0109406 0)
(0.00788635 0.0121328 0)
(0.014485 0.0126194 0)
(0.0204274 0.0124798 0)
(0.0253521 0.0118825 0)
(0.0290771 0.011023 0)
(0.0315475 0.0100066 0)
(0.00964796 0.0906933 0)
(0.0134501 0.0640861 0)
(0.011435 0.0476749 0)
(0.00983304 0.0371813 0)
(0.00786293 0.027237 0)
(0.00526261 0.0183194 0)
(0.00243641 0.0110358 0)
(-0.00020939 0.00552346 0)
(-0.00236222 0.00170408 0)
(-0.00378615 -0.000598028 0)
(-0.00430601 -0.0016069 0)
(-0.0038032 -0.00157402 0)
(-0.00221887 -0.000766469 0)
(0.000437793 0.000544848 0)
(0.0040811 0.00209957 0)
(0.00854687 0.00366576 0)
(0.0135978 0.00505949 0)
(0.0189382 0.00616362 0)
(0.0242435 0.00694024 0)
(0.0292017 0.00742399 0)
(0.033556 0.00769189 0)
(0.0371708 0.00781289 0)
(0.0399822 0.0077539 0)
(0.0140949 0.074886 0)
(0.0201028 0.0615251 0)
(0.0206128 0.0483044 0)
(0.0208108 0.0381774 0)
(0.0203123 0.0288579 0)
(0.0190781 0.0204339 0)
(0.0174186 0.0132885 0)
(0.0156814 0.00757752 0)
(0.0141629 0.00328652 0)
(0.0130995 0.000304396 0)
(0.0126685 -0.00153309 0)
(0.0129916 -0.00241869 0)
(0.0141349 -0.00255844 0)
(0.016106 -0.00215852 0)
(0.0188518 -0.0014125 0)
(0.0222605 -0.000488122 0)
(0.0261688 0.000484839 0)
(0.0303739 0.00142378 0)
(0.0346535 0.00229613 0)
(0.0387912 0.00310929 0)
(0.0426033 0.00388486 0)
(0.045983 0.00461817 0)
(0.0488603 0.00520491 0)
(0.0128466 0.0570897 0)
(0.0217431 0.055184 0)
(0.0259777 0.0461877 0)
(0.0285313 0.0374043 0)
(0.029771 0.0289942 0)
(0.0300042 0.0212489 0)
(0.0295861 0.0144689 0)
(0.028847 0.00881337 0)
(0.0280736 0.00431342 0)
(0.0275017 0.000913708 0)
(0.0273128 -0.00149398 0)
(0.0276357 -0.00304767 0)
(0.0285485 -0.00389907 0)
(0.0300787 -0.0042004 0)
(0.0322037 -0.0040927 0)
(0.0348554 -0.00369596 0)
(0.0379272 -0.00310135 0)
(0.0412837 -0.00236717 0)
(0.0447746 -0.00152046 0)
(0.0482499 -0.00056797 0)
(0.0515766 0.000481968 0)
(0.0546663 0.00158692 0)
(0.0574479 0.00261381 0)
(0.0097161 0.0421969 0)
(0.0200676 0.0459669 0)
(0.027288 0.0410249 0)
(0.0322805 0.0343788 0)
(0.0354896 0.0273643 0)
(0.0373626 0.0205989 0)
(0.0383142 0.014445 0)
(0.0386919 0.0091004 0)
(0.0387891 0.00464468 0)
(0.0388474 0.00107501 0)
(0.0390566 -0.00166406 0)
(0.0395562 -0.00365953 0)
(0.0404395 -0.00501409 0)
(0.0417542 -0.00583346 0)
(0.043506 -0.00621567 0)
(0.0456626 -0.00624306 0)
(0.048161 -0.00597702 0)
(0.0509153 -0.00545652 0)
(0.0538261 -0.00470149 0)
(0.05679 -0.00372329 0)
(0.0597095 -0.00254287 0)
(0.0625101 -0.00121726 0)
(0.0651238 0.000116878 0)
(0.00737644 0.0300082 0)
(0.0174635 0.0355072 0)
(0.026123 0.03359 0)
(0.0328619 0.0292295 0)
(0.0377802 0.0239125 0)
(0.0412066 0.0183984 0)
(0.0435193 0.0131208 0)
(0.0450519 0.00832991 0)
(0.0460919 0.00415572 0)
(0.0468806 0.000645979 0)
(0.0476126 -0.00220524 0)
(0.0484374 -0.00443739 0)
(0.0494621 -0.00610842 0)
(0.0507535 -0.00728274 0)
(0.0523411 -0.00802135 0)
(0.054222 -0.00837494 0)
(0.0563668 -0.00838001 0)
(0.0587263 -0.00805831 0)
(0.0612377 -0.00742074 0)
(0.0638307 -0.00647653 0)
(0.0664339 -0.00524804 0)
(0.0689849 -0.00379258 0)
(0.071422 -0.00223649 0)
(0.00605794 0.0196983 0)
(0.0151458 0.0252041 0)
(0.0239887 0.0251619 0)
(0.0315313 0.0226923 0)
(0.037553 0.0190154 0)
(0.0421657 0.0148311 0)
(0.045628 0.0105705 0)
(0.0482082 0.00650602 0)
(0.0501561 0.00280123 0)
(0.0516934 -0.000456411 0)
(0.0530076 -0.0032312 0)
(0.0542502 -0.00552114 0)
(0.0555368 -0.00734459 0)
(0.0569479 -0.00872932 0)
(0.0585317 -0.00970376 0)
(0.060308 -0.0102908 0)
(0.062273 -0.0105049 0)
(0.0644044 -0.0103512 0)
(0.0666664 -0.00983001 0)
(0.069013 -0.00894379 0)
(0.0713926 -0.00770946 0)
(0.0737545 -0.00617642 0)
(0.0760459 -0.00445393 0)
(0.00527611 0.0107577 0)
(0.0133184 0.01571 0)
(0.0216761 0.0167072 0)
(0.0292844 0.0155846 0)
(0.0357752 0.0132597 0)
(0.0410898 0.0102896 0)
(0.0453553 0.00704268 0)
(0.0487489 0.00377201 0)
(0.0514589 0.000646776 0)
(0.0536681 -0.00222522 0)
(0.0555424 -0.00478024 0)
(0.0572242 -0.00698476 0)
(0.0588287 -0.00882489 0)
(0.0604432 -0.0102974 0)
(0.0621275 -0.0114024 0)
(0.0639172 -0.0121384 0)
(0.065827 -0.0124996 0)
(0.0678543 -0.0124754 0)
(0.0699829 -0.0120539 0)
(0.072185 -0.0112283 0)
(0.0744251 -0.010006 0)
(0.0766636 -0.00842455 0)
(0.0788585 -0.00657373 0)
(0.00468861 0.002841 0)
(0.0118107 0.00716815 0)
(0.0194286 0.00871998 0)
(0.0266772 0.00849215 0)
(0.0331645 0.00718236 0)
(0.0387435 0.00521318 0)
(0.0434445 0.00287234 0)
(0.0473616 0.000368454 0)
(0.050618 -0.00214699 0)
(0.0533491 -0.00456564 0)
(0.0556902 -0.00681105 0)
(0.0577651 -0.00883009 0)
(0.0596803 -0.0105855 0)
(0.0615217 -0.0120498 0)
(0.0633543 -0.0131998 0)
(0.0652226 -0.0140128 0)
(0.0671531 -0.014465 0)
(0.0691571 -0.0145309 0)
(0.0712326 -0.0141861 0)
(0.0733656 -0.0134129 0)
(0.0755333 -0.0122078 0)
(0.0777072 -0.0105948 0)
(0.0798563 -0.00864447 0)
(0.00413832 -0.00419237 0)
(0.0104414 -0.000432798 0)
(0.017262 0.00139831 0)
(0.0239541 0.00174557 0)
(0.0301508 0.00116173 0)
(0.0356756 -3.03428e-05 0)
(0.0405029 -0.00161574 0)
(0.0446672 -0.00343668 0)
(0.048238 -0.00537192 0)
(0.0513079 -0.00732592 0)
(0.0539792 -0.00922236 0)
(0.056353 -0.0109992 0)
(0.0585217 -0.0126048 0)
(0.0605643 -0.0139941 0)
(0.0625442 -0.0151259 0)
(0.0645095 -0.0159602 0)
(0.0664933 -0.0164577 0)
(0.0685155 -0.0165791 0)
(0.070584 -0.0162883 0)
(0.0726951 -0.0155564 0)
(0.0748366 -0.0143689 0)
(0.07699 -0.0127363 0)
(0.0791349 -0.0107115 0)
(0.00357911 -0.0103841 0)
(0.00912046 -0.00713368 0)
(0.0151541 -0.00519789 0)
(0.0212147 -0.00449519 0)
(0.0269671 -0.00457305 0)
(0.0322335 -0.00517965 0)
(0.0369602 -0.0061594 0)
(0.0411454 -0.00740194 0)
(0.0448221 -0.00881936 0)
(0.0480495 -0.0103358 0)
(0.0509017 -0.0118828 0)
(0.0534575 -0.0133973 0)
(0.0557931 -0.0148203 0)
(0.0579773 -0.0160953 0)
(0.0600685 -0.0171682 0)
(0.0621137 -0.0179856 0)
(0.0641485 -0.0184952 0)
(0.0661975 -0.0186463 0)
(0.0682752 -0.0183919 0)
(0.0703857 -0.0176928 0)
(0.0725251 -0.016524 0)
(0.074684 -0.0148838 0)
(0.076852 -0.0128091 0)
(0.00301523 -0.0157395 0)
(0.00783057 -0.012976 0)
(0.0131036 -0.0110631 0)
(0.0185104 -0.0101603 0)
(0.0237416 -0.00989317 0)
(0.0286265 -0.0100645 0)
(0.0330982 -0.0105677 0)
(0.0371355 -0.0113342 0)
(0.0407495 -0.012308 0)
(0.0439769 -0.0134344 0)
(0.0468699 -0.0146567 0)
(0.0494885 -0.0159151 0)
(0.0518937 -0.0171479 0)
(0.0541433 -0.0182924 0)
(0.0562885 -0.0192854 0)
(0.0583729 -0.0200638 0)
(0.0604315 -0.0205656 0)
(0.0624912 -0.0207304 0)
(0.0645704 -0.0205023 0)
(0.0666791 -0.0198332 0)
(0.0688203 -0.0186883 0)
(0.0709926 -0.0170554 0)
(0.073195 -0.0149569 0)
(0.00246688 -0.0202745 0)
(0.00658719 -0.0179956 0)
(0.011127 -0.0162074 0)
(0.0158795 -0.0152204 0)
(0.0205529 -0.0147265 0)
(0.0249838 -0.0145768 0)
(0.0290992 -0.014708 0)
(0.0328687 -0.015089 0)
(0.0362923 -0.0156927 0)
(0.0393926 -0.0164848 0)
(0.0422068 -0.0174205 0)
(0.0447802 -0.0184454 0)
(0.0471606 -0.0194982 0)
(0.0493954 -0.0205127 0)
(0.0515283 -0.0214202 0)
(0.0535981 -0.0221513 0)
(0.0556377 -0.0226366 0)
(0.0576745 -0.0228088 0)
(0.0597296 -0.0226046 0)
(0.0618172 -0.0219687 0)
(0.0639464 -0.0208583 0)
(0.0661234 -0.0192518 0)
(0.0683554 -0.0171592 0)
(0.00194964 -0.0240331 0)
(0.00540453 -0.0222294 0)
(0.00924074 -0.0206472 0)
(0.0133509 -0.0196661 0)
(0.0174534 -0.0190339 0)
(0.0213894 -0.0186488 0)
(0.0250834 -0.0184902 0)
(0.0285028 -0.0185619 0)
(0.0316431 -0.0188629 0)
(0.0345194 -0.0193768 0)
(0.0371588 -0.0200697 0)
(0.0395955 -0.0208928 0)
(0.041867 -0.021786 0)
(0.0440112 -0.0226821 0)
(0.0460645 -0.0235095 0)
(0.0480607 -0.0241946 0)
(0.0500301 -0.0246637 0)
(0.0519996 -0.0248443 0)
(0.0539919 -0.0246683 0)
(0.0560249 -0.0240746 0)
(0.0581135 -0.0230143 0)
(0.0602704 -0.0214581 0)
(0.0625114 -0.0194051 0)
(0.00145688 -0.0270551 0)
(0.00427201 -0.0257135 0)
(0.00744541 -0.0244074 0)
(0.01094 -0.0235042 0)
(0.0144774 -0.0227988 0)
(0.0179002 -0.0222409 0)
(0.0211338 -0.0218554 0)
(0.0241485 -0.0216803 0)
(0.0269406 -0.0217379 0)
(0.0295215 -0.0220264 0)
(0.0319122 -0.0225208 0)
(0.0341388 -0.0231767 0)
(0.03623 -0.023936 0)
(0.038216 -0.0247315 0)
(0.0401265 -0.0254904 0)
(0.0419904 -0.0261372 0)
(0.0438352 -0.0265957 0)
(0.0456868 -0.0267909 0)
(0.0475689 -0.0266515 0)
(0.0495028 -0.026113 0)
(0.0515083 -0.0251222 0)
(0.0536054 -0.0236441 0)
(0.0558178 -0.0216685 0)
(0.000928761 -0.0293172 0)
(0.00314202 -0.0284836 0)
(0.00571914 -0.0275303 0)
(0.00864815 -0.0267628 0)
(0.0116465 -0.0260262 0)
(0.0145563 -0.0253359 0)
(0.0173102 -0.024769 0)
(0.0198868 -0.024397 0)