/*--------------------------------*- C++ -*----------------------------------*\
| =========                 |                                                 |
| \\      /  F ield         | OpenFOAM: The Open Source CFD Toolbox           |
|  \\    /   O peration     | Version:  2.3.0                                 |
|   \\  /    A nd           | Web:      www.OpenFOAM.org                      |
|    \\/     M anipulation  |                                                 |
\*---------------------------------------------------------------------------*/
FoamFile
{
    version     2.0;
    format      ascii;
    class       volScalarField;
    location    "0.09";
    object      p;
}
// * * * * * * * * * * * * * * * * * * * * * * * * * * * * * * * * * * * * * //

dimensions      [1 -1 -2 0 0 0 0];

internalField   nonuniform List<scalar> 
725
(
-97.4584
-138.336
-150.216
-154.464
-156.099
-103.123
-138.067
-150.017
-155.647
-160.731
-105.811
-138.449
-150.886
-161.346
-168.917
-105.481
-139.635
-152.707
-171.086
-185.928
-102.364
-141.498
-154.726
-181.525
-209.278
-70.3387
-84.21
-196.932
-460.111
-702.519
-700.341
-701.543
-699.336
-706.497
-855.642
-803.114
-766.625
-732.019
-730.631
-729.644
-728.964
-730.414
-727.718
-735.993
-738.057
-741.292
-744.45
-747.26
-749.586
-751.518
-753.179
-754.597
-755.807
-756.649
-757.03
-756.497
-755.247
-751.026
-749.39
-753.488
-830.654
-769.986
-757.847
-757.085
-763.481
-755.401
-563.189
-286.671
-216.658
54.0177
-70.5206
-84.5532
-240.886
-592.745
-706.339
-699.974
-700.448
-699.22
-705.684
-850.301
-797.606
-762.626
-744.602
-735.71
-735.825
-723.466
-719.664
-735.752
-736.464
-738.477
-741.966
-745.189
-747.977
-750.32
-752.278
-753.913
-755.274
-756.459
-757.3
-757.713
-757.191
-755.814
-751.03
-746.781
-739.888
-772.153
-766.991
-757.689
-757.304
-761.77
-799.441
-565.673
-339.6
-523.732
32.4193
-66.8094
-70.8072
-278.099
-884.384
-696.823
-699.655
-700.186
-699.315
-704.315
-831.562
-785.11
-753.701
-739.925
-732.977
-725.336
-736.944
-731.85
-730.288
-737.39
-735.862
-740.752
-744.84
-748.118
-750.469
-752.454
-754.09
-755.435
-756.666
-757.583
-758.132
-757.76
-756.509
-751.143
-743.941
-723.273
-702.872
-757.162
-757.899
-757.656
-760.462
-754.313
-526.874
-437.125
-815.443
-16.7102
17.4551
-82.9408
-298.418
-772.467
-706.785
-699.77
-698.857
-699.209
-702.934
-800.143
-765.988
-743.482
-733.203
-729.566
-725.057
-733.139
-733.989
-729.148
-729.937
-733.209
-740.39
-744.925
-748.36
-750.68
-752.698
-754.311
-755.627
-756.936
-757.956
-758.749
-758.758
-757.87
-752.194
-743.039
-709.423
-645.437
-745.516
-758.191
-757.838
-758.385
-769.8
-568.195
-547.677
-956.496
109.52
815.223
-45.7248
-527.222
-750.312
-687.577
-699.371
-698.648
-699.116
-702.352
-761.13
-741.622
-730.884
-725.015
-724.734
-723.842
-745.971
-728.145
-727.369
-732.187
-726.336
-739.123
-744.725
-748.778
-750.921
-753.004
-754.564
-755.829
-757.298
-758.414
-759.483
-760.001
-759.984
-755.578
-746.002
-705.51
-605.715
-752.13
-758.105
-760.41
-755.544
-902.579
-709.881
-566.088
-1591.83
236.916
4876.67
-116.006
-563.497
-796.961
-654.561
-699.46
-699.65
-699.096
-702.558
-733.829
-724.866
-723.282
-719.28
-721.775
-725.803
-730.03
-731.537
-727.312
-733.108
-698.886
-741.161
-745.398
-749.355
-751.07
-753.166
-754.698
-755.914
-757.556
-758.679
-760.015
-760.78
-761.704
-757.735
-747.886
-715.666
-627.272
-730.842
-757.646
-760.58
-761.094
-536.229
-496.597
-540.173
-1787.01
434.476
4253.28
-108.523
-625.143
-813.018
-681.094
-699.245
-699.554
-699.103
-702.592
-723.519
-718.898
-719.506
-717.319
-719.65
-724.473
-681.892
-732.202
-727.164
-731.976
-695.857
-742.063
-745.694
-749.527
-750.76
-752.208
-754.109
-755.914
-757.646
-758.776
-760.198
-761.071
-762.278
-758.757
-751.212
-720
-634.651
-725.565
-757.245
-764.061
-757.378
-338.025
-417.168
-538.775
-1741.02
442.826
4835.99
110.609
-458.248
-740.825
-709.069
-698.826
-699.702
-699.091
-702.277
-713.72
-713.016
-714.619
-703.839
-716.044
-723.786
-713.604
-670.939
-727.954
-730.264
-696.534
-742.652
-745.502
-748.278
-750.665
-753.091
-754.577
-755.828
-757.288
-758.713
-760.251
-761.257
-762.788
-759.968
-753.661
-724.626
-637.979
-726.634
-758.205
-754.451
-760.38
-163.702
-374.067
-489.705
-1077.87
165.086
3542.5
580.835
-572.571
-825.071
-693.276
-698.555
-699.234
-699.101
-701.572
-704.738
-707.192
-712.402
-702.994
-712.531
-728.751
-715.504
-695.658
-634.624
-731.656
-670.24
-731.416
-742.391
-748.481
-752.201
-753.21
-754.672
-756.379
-757.497
-758.76
-760.354
-761.552
-763.463
-761.304
-756.187
-730.327
-649.147
-730.931
-759.269
-776.188
-778.867
199.869
-657.201
-448.412
-3.20503
910.788
4874.2
-165.749
-495.663
-852.106
-668.511
-698.488
-699.158
-699.13
-700.989
-695.416
-701.51
-709.755
-709.175
-707.103
-728.569
-716.467
-704.652
-726.306
-734.146
-675.701
-744.102
-745.636
-750.035
-752.225
-753.263
-754.721
-756.412
-757.627
-759.302
-760.919
-762.17
-764.236
-762.75
-760.064
-737.478
-663.151
-736.34
-760.465
-768.936
-774.102
-2.21823
-425.726
-455.915
-628.115
230.861
-914.41
-953.852
-968.235
-990.404
-1092.05
-917.495
-951.611
-964.575
-976.507
-1038.4
-917.809
-950.181
-961.736
-966.47
-1002.8
-915.113
-949.627
-960.023
-961.742
-976.914
-909.453
-949.844
-959.707
-960.005
-969.277
-988.574
-490.597
-469.443
-634.623
-692.375
-698.998
-699.46
-699.267
-699.509
-668.411
-686.135
-700.065
-696.712
-706.418
-723.277
-714.133
-707.688
-724.383
-738.208
-763.957
-751.414
-749.63
-750.834
-752.273
-753.426
-754.872
-756.498
-757.908
-759.638
-761.493
-763.339
-766.05
-767.056
-769.571
-760.026
-696.627
-750.668
-761.675
-766.771
-767.745
-858.403
-1271.46
-521.796
-1447.47
51.0839
-921.573
-804.187
-419.756
-331.406
-699.507
-700.694
-699.712
-699.678
-692.284
-625.165
-663.815
-690.143
-701.084
-706.431
-717.478
-727.996
-710.422
-726.129
-744.259
-755.048
-751.265
-750.567
-751.285
-752.453
-753.668
-755.105
-756.714
-758.279
-760.166
-762.375
-764.991
-769.171
-773.476
-783.426
-794.288
-787.88
-763.662
-762.494
-764.823
-767.171
-839.743
-1074.68
-429.34
-673.872
-381.451
-862.396
-840.378
-423.11
-506.883
-704.363
-701.029
-700.267
-700.013
-680.345
-586.995
-646.395
-680.082
-689.341
-691.991
-721.915
-725.763
-729.878
-732.436
-744.713
-751.71
-751.602
-751.194
-751.624
-752.646
-753.885
-755.32
-756.918
-758.579
-760.591
-763.098
-766.36
-771.869
-779.22
-795.687
-825.966
-886.96
-768.983
-762.198
-763.58
-766.063
-795.091
-1155.85
-376.458
-278.211
-21.6337
-854.032
-803.304
-482.41
-842.586
-700.038
-700.527
-700.379
-700.237
-661.301
-551.295
-635.709
-670.006
-704.195
-719.345
-702.379
-729.687
-730.703
-733.204
-744.438
-750.457
-751.559
-751.455
-751.842
-752.811
-754.062
-755.488
-757.078
-758.798
-760.902
-763.617
-767.34
-773.771
-783.313
-804.881
-850.207
-946.58
-765.104
-761.947
-762.721
-765.015
-763.311
-1138.7
-405.285
-489.52
-76.2446
-843.982
-769.995
-525.567
-844.289
-701.613
-701.111
-700.406
-699.789
-645.424
-529.662
-631.591
-671.076
-676.499
-716.675
-719.082
-722.774
-727.19
-730.832
-742.885
-748.905
-751.02
-751.149
-751.549
-752.56
-753.879
-755.338
-756.949
-758.691
-760.83
-763.626
-767.544
-774.416
-784.95
-809.379
-863.604
-968.902
-763.09
-761.97
-762.283
-764.406
-749.218
-1344.94
-475.668
-967.094
514.98
)
;

boundaryField
{
    AirInlet
    {
        type            calculated;
        value           nonuniform List<scalar> 5(6361.05 5358.66 5365.25 8255.99 5672.54);
    }
    WaterInlet
    {
        type            calculated;
        value           nonuniform List<scalar> 10(-97.4564 -103.117 -105.801 -105.467 -102.346 -914.428 -917.51 -917.819 -915.119 -909.455);
    }
    ChannelWall
    {
        type            calculated;
        value           nonuniform List<scalar> 
110
(
-102.39
-141.528
-154.76
-181.563
-209.32
-914.384
-953.822
-968.201
-990.366
-1092.01
-909.479
-949.875
-959.741
-960.043
-969.319
-844.026
-770.04
-525.611
-844.316
-701.613
-701.112
-700.407
-699.789
-645.436
-529.702
-631.635
-671.119
-676.543
-716.719
-719.126
-722.818
-727.234
-730.876
-742.93
-748.949
-751.064
-751.193
-751.593
-752.604
-753.924
-755.383
-756.993
-758.736
-760.874
-763.67
-767.588
-774.46
-784.994
-809.423
-863.648
-968.935
-763.091
-761.97
-762.283
-764.407
-749.218
-1344.97
-475.711
-967.135
514.97
-97.4319
-138.305
-150.181
-154.425
-156.056
-70.2946
-84.1658
-196.888
-460.082
-702.517
-700.34
-701.543
-699.336
-706.494
-855.607
-803.069
-766.581
-731.976
-730.587
-729.6
-728.92
-730.37
-727.674
-735.949
-738.013
-741.248
-744.406
-747.215
-749.542
-751.473
-753.135
-754.553
-755.763
-756.605
-756.986
-756.453
-755.203
-750.982
-749.345
-753.444
-830.617
-769.983
-757.847
-757.085
-763.481
-755.389
-563.145
-286.627
-216.619
54.0262
)
;
    }
    Outlet
    {
        type            calculated;
        value           nonuniform List<scalar> 
15
(
-0.421309
-0.208538
-0.0289385
-0.0293375
-0.0301243
-0.0307723
-0.0321164
-0.0507194
-0.0816006
-0.0564707
-0.0226648
-0.529302
-0.380986
-0.322526
-0.215458
)
;
    }
    FrontAndBack
    {
        type            empty;
    }
}


// ************************************************************************* //
