/*--------------------------------*- C++ -*----------------------------------*\
| =========                 |                                                 |
| \\      /  F ield         | OpenFOAM: The Open Source CFD Toolbox           |
|  \\    /   O peration     | Version:  2.3.0                                 |
|   \\  /    A nd           | Web:      www.OpenFOAM.org                      |
|    \\/     M anipulation  |                                                 |
\*---------------------------------------------------------------------------*/
FoamFile
{
    version     2.0;
    format      ascii;
    class       volScalarField;
    location    "0.09";
    object      p_rgh;
}
// * * * * * * * * * * * * * * * * * * * * * * * * * * * * * * * * * * * * * //

dimensions      [1 -1 -2 0 0 0 0];

internalField   nonuniform List<scalar> 
725
(
-97.4319
-138.305
-150.181
-154.425
-156.056
-103.044
-137.975
-149.914
-155.532
-160.604
-105.679
-138.296
-150.714
-161.154
-168.706
-105.295
-139.422
-152.467
-170.818
-185.633
-102.125
-141.224
-154.417
-181.18
-208.898
-70.2946
-84.1658
-196.888
-460.082
-702.517
-700.34
-701.543
-699.336
-706.494
-855.607
-803.069
-766.581
-731.976
-730.587
-729.6
-728.92
-730.37
-727.674
-735.949
-738.013
-741.248
-744.406
-747.215
-749.542
-751.473
-753.135
-754.553
-755.763
-756.605
-756.986
-756.453
-755.203
-750.982
-749.345
-753.444
-830.617
-769.983
-757.847
-757.085
-763.481
-755.389
-563.145
-286.627
-216.619
54.0262
-70.3881
-84.4208
-240.753
-592.656
-706.337
-699.974
-700.447
-699.219
-705.674
-850.197
-797.474
-762.494
-744.47
-735.578
-735.693
-723.334
-719.533
-735.62
-736.331
-738.344
-741.834
-745.056
-747.845
-750.188
-752.145
-753.781
-755.141
-756.326
-757.167
-757.581
-757.058
-755.682
-750.898
-746.649
-739.755
-772.04
-766.979
-757.689
-757.303
-761.77
-799.408
-565.541
-339.468
-523.622
32.4327
-66.5887
-70.5865
-277.879
-884.255
-696.823
-699.654
-700.186
-699.314
-704.295
-831.388
-784.889
-753.48
-739.704
-732.756
-725.115
-736.724
-731.63
-730.069
-737.169
-735.642
-740.531
-744.619
-747.897
-750.248
-752.234
-753.869
-755.214
-756.445
-757.362
-757.911
-757.54
-756.288
-750.923
-743.72
-723.053
-702.684
-757.138
-757.899
-757.656
-760.462
-754.256
-526.654
-436.905
-815.248
-16.6813
17.7191
-82.6406
-298.111
-772.278
-706.778
-699.769
-698.856
-699.208
-702.901
-799.895
-765.679
-743.173
-732.894
-729.257
-724.748
-732.83
-733.681
-728.841
-729.63
-732.9
-740.081
-744.616
-748.051
-750.371
-752.389
-754.002
-755.318
-756.627
-757.647
-758.44
-758.449
-757.561
-751.885
-742.73
-709.114
-645.18
-745.477
-758.19
-757.838
-758.385
-769.718
-567.892
-547.369
-956.224
109.549
815.413
-45.3604
-526.859
-750.12
-687.561
-699.369
-698.647
-699.115
-702.301
-760.801
-741.224
-730.487
-724.618
-724.337
-723.446
-745.574
-727.75
-726.974
-731.791
-725.939
-738.726
-744.327
-748.381
-750.524
-752.607
-754.167
-755.432
-756.901
-758.017
-759.086
-759.603
-759.587
-755.181
-745.604
-705.113
-605.386
-752.081
-758.104
-760.41
-755.543
-902.482
-709.516
-565.693
-1591.48
236.946
4876.72
-115.618
-563.089
-796.737
-654.539
-699.458
-699.648
-699.095
-702.494
-733.448
-724.414
-722.831
-718.828
-721.324
-725.354
-729.581
-731.088
-726.863
-732.659
-698.436
-740.711
-744.947
-748.904
-750.619
-752.715
-754.247
-755.463
-757.105
-758.228
-759.564
-760.329
-761.253
-757.284
-747.434
-715.215
-626.903
-730.787
-757.645
-760.579
-761.093
-536.108
-496.211
-539.724
-1786.64
434.507
4253.36
-108.12
-624.725
-812.78
-681.073
-699.243
-699.553
-699.101
-702.524
-723.118
-718.427
-719.035
-716.848
-719.181
-724.005
-681.422
-731.733
-726.696
-731.507
-695.387
-741.592
-745.224
-749.057
-750.289
-751.738
-753.638
-755.444
-757.175
-758.305
-759.728
-760.6
-761.807
-758.286
-750.741
-719.529
-634.269
-725.51
-757.244
-764.059
-757.375
-337.898
-416.772
-538.308
-1740.61
442.858
4836.03
111.011
-457.819
-740.558
-709.051
-698.825
-699.7
-699.09
-702.204
-713.3
-712.526
-714.129
-703.349
-715.556
-723.298
-713.115
-670.449
-727.466
-729.776
-696.045
-742.162
-745.012
-747.788
-750.175
-752.601
-754.087
-755.337
-756.798
-758.222
-759.761
-760.766
-762.298
-759.478
-753.17
-724.135
-637.582
-726.578
-758.204
-754.449
-760.377
-163.566
-373.657
-489.221
-1077.43
165.136
3542.58
581.286
-572.116
-824.797
-693.261
-698.554
-699.232
-699.099
-701.493
-704.299
-706.681
-711.892
-702.484
-712.024
-728.242
-714.995
-695.149
-634.115
-731.149
-669.732
-730.907
-741.882
-747.971
-751.691
-752.7
-754.162
-755.87
-756.988
-758.25
-759.844
-761.042
-762.953
-760.794
-755.676
-729.817
-648.737
-730.873
-759.268
-776.187
-778.866
200.022
-656.793
-447.91
-2.72179
910.87
4874.25
-165.33
-495.186
-851.807
-668.499
-698.487
-699.156
-699.128
-700.904
-694.957
-700.981
-709.225
-708.646
-706.577
-728.041
-715.94
-704.124
-725.78
-733.619
-675.174
-743.573
-745.107
-749.506
-751.695
-752.734
-754.192
-755.882
-757.097
-758.772
-760.389
-761.641
-763.707
-762.22
-759.534
-736.948
-662.728
-736.28
-760.464
-768.935
-774.101
-2.06682
-425.343
-455.395
-627.631
230.918
-913.668
-953.145
-967.563
-989.767
-1091.45
-916.7
-950.843
-963.835
-975.794
-1037.71
-916.96
-949.352
-960.927
-965.68
-1002.03
-914.212
-948.738
-959.145
-960.876
-976.061
-908.498
-948.894
-958.76
-959.062
-968.338
-988.058
-490.072
-468.916
-634.285
-692.36
-698.996
-699.459
-699.265
-699.407
-667.897
-685.551
-699.481
-696.132
-705.837
-722.695
-713.552
-707.108
-723.802
-737.627
-763.373
-750.83
-749.047
-750.251
-751.689
-752.843
-754.289
-755.914
-757.324
-759.055
-760.909
-762.756
-765.467
-766.472
-768.987
-759.442
-696.172
-750.605
-761.674
-766.771
-767.744
-858.287
-1271
-521.225
-1446.92
51.1499
-920.901
-803.525
-419.114
-330.972
-699.487
-700.691
-699.709
-699.676
-692.149
-624.562
-663.143
-689.472
-700.414
-705.761
-716.807
-727.327
-709.754
-725.461
-743.589
-754.376
-750.593
-749.895
-750.613
-751.782
-752.996
-754.434
-756.042
-757.607
-759.494
-761.704
-764.319
-768.499
-772.804
-782.754
-793.616
-787.37
-763.605
-762.493
-764.822
-767.17
-839.666
-1074.16
-428.683
-673.217
-381.217
-861.64
-839.642
-422.366
-506.396
-704.346
-701.026
-700.264
-700.01
-680.175
-586.302
-645.635
-679.322
-688.581
-691.231
-721.156
-725.006
-729.12
-731.677
-743.953
-750.95
-750.842
-750.434
-750.864
-751.886
-753.125
-754.56
-756.158
-757.819
-759.831
-762.338
-765.599
-771.109
-778.459
-794.927
-825.206
-886.38
-768.945
-762.197
-763.579
-766.062
-795.039
-1155.3
-375.715
-277.467
-21.3259
-853.183
-802.461
-481.568
-842.059
-700.034
-700.524
-700.376
-700.234
-661.093
-550.516
-634.861
-669.158
-703.349
-718.503
-701.535
-728.84
-729.855
-732.356
-743.59
-749.609
-750.711
-750.606
-750.993
-751.963
-753.214
-754.64
-756.229
-757.95
-760.054
-762.769
-766.492
-772.923
-782.464
-804.032
-849.358
-945.938
-765.079
-761.946
-762.72
-765.013
-763.296
-1138.08
-404.454
-488.69
-75.9221
-843.046
-769.059
-524.643
-843.715
-701.605
-701.108
-700.403
-699.786
-645.184
-528.799
-630.654
-670.145
-675.571
-715.746
-718.146
-721.838
-726.254
-729.895
-741.949
-747.968
-750.083
-750.212
-750.612
-751.623
-752.943
-754.402
-756.012
-757.755
-759.893
-762.689
-766.607
-773.479
-784.013
-808.442
-862.667
-968.203
-763.067
-761.969
-762.282
-764.405
-749.216
-1344.3
-474.752
-966.222
515.196
)
;

boundaryField
{
    AirInlet
    {
        type            fixedFluxPressure;
        gradient        nonuniform List<scalar> 5(1.48433e+08 1.1053e+08 5.29217e+07 4.71341e+08 7.98291e+07);
        value           nonuniform List<scalar> 5(6361.05 5358.66 5365.25 8255.99 5672.54);
    }
    WaterInlet
    {
        type            fixedFluxPressure;
        gradient        nonuniform List<scalar> 10(0.000657471 0.0712829 -3.18063 0.378857 -3.70955 0.0103473 -0.11811 -8.14844 0.949364 -20.346);
        value           nonuniform List<scalar> 10(-97.4319 -103.044 -105.679 -105.295 -102.125 -913.668 -916.7 -916.96 -914.212 -908.498);
    }
    ChannelWall
    {
        type            fixedFluxPressure;
        gradient        uniform 0;
        value           nonuniform List<scalar> 
110
(
-102.125
-141.224
-154.417
-181.18
-208.898
-913.668
-953.145
-967.563
-989.767
-1091.45
-908.498
-948.894
-958.76
-959.062
-968.338
-843.046
-769.059
-524.643
-843.715
-701.605
-701.108
-700.403
-699.786
-645.184
-528.799
-630.654
-670.145
-675.571
-715.746
-718.146
-721.838
-726.254
-729.895
-741.949
-747.968
-750.083
-750.212
-750.612
-751.623
-752.943
-754.402
-756.012
-757.755
-759.893
-762.689
-766.607
-773.479
-784.013
-808.442
-862.667
-968.203
-763.067
-761.969
-762.282
-764.405
-749.216
-1344.3
-474.752
-966.222
515.196
-97.4319
-138.305
-150.181
-154.425
-156.056
-70.2946
-84.1658
-196.888
-460.082
-702.517
-700.34
-701.543
-699.336
-706.494
-855.607
-803.069
-766.581
-731.976
-730.587
-729.6
-728.92
-730.37
-727.674
-735.949
-738.013
-741.248
-744.406
-747.215
-749.542
-751.473
-753.135
-754.553
-755.763
-756.605
-756.986
-756.453
-755.203
-750.982
-749.345
-753.444
-830.617
-769.983
-757.847
-757.085
-763.481
-755.389
-563.145
-286.627
-216.619
54.0262
)
;
    }
    Outlet
    {
        type            totalPressure;
        rho             rho;
        psi             none;
        gamma           1;
        p0              uniform 0;
        value           nonuniform List<scalar> 
15
(
-0.421265
-0.208405
0
0
0
0
0
0
0
0
-0.0220811
-0.52863
-0.380226
0
0
)
;
    }
    FrontAndBack
    {
        type            empty;
    }
}


// ************************************************************************* //
