/*--------------------------------*- C++ -*----------------------------------*\
| =========                 |                                                 |
| \\      /  F ield         | OpenFOAM: The Open Source CFD Toolbox           |
|  \\    /   O peration     | Version:  2.3.0                                 |
|   \\  /    A nd           | Web:      www.OpenFOAM.org                      |
|    \\/     M anipulation  |                                                 |
\*---------------------------------------------------------------------------*/
FoamFile
{
    version     2.0;
    format      ascii;
    class       surfaceScalarField;
    location    "0.09";
    object      phi;
}
// * * * * * * * * * * * * * * * * * * * * * * * * * * * * * * * * * * * * * //

dimensions      [0 3 -1 0 0 0 0];

internalField   nonuniform List<scalar> 
1380
(
3.10886e-13
1.89114e-13
2.67664e-13
4.32223e-14
2.25331e-13
4.23332e-14
-2.21165e-14
2.47447e-13
1.57148e-13
-1.79265e-13
5.98632e-13
9.04819e-14
6.02308e-13
3.95466e-14
5.49523e-13
9.51177e-14
1.89352e-13
6.07619e-13
3.60031e-13
-1.35312e-14
6.83611e-13
-9.31289e-14
7.21137e-13
2.02045e-15
6.99067e-13
1.17187e-13
4.59563e-13
8.47124e-13
6.96938e-13
1.22656e-13
5.98892e-13
-1.92021e-13
6.18375e-13
-1.74628e-14
6.55584e-13
7.99783e-14
8.75475e-13
6.27233e-13
6.1858e-13
9.53832e-13
3.07979e-13
2.90517e-13
3.70495e-13
9.97728e-13
1.61631e-12
7.74551e-13
-9.53816e-13
2.14339e-12
-1.36884e-12
3.56844e-12
-1.42505e-12
1.14842e-12
2.42003e-12
-3.86113e-13
1.53453e-12
-4.95604e-13
1.09493e-13
-8.22416e-13
3.26813e-13
-7.34787e-15
-8.15068e-13
1.27939e-12
-1.28674e-12
5.30459e-13
7.48928e-13
2.5552e-13
2.74939e-13
1.06265e-13
1.49256e-13
1.19367e-13
-1.3102e-14
2.06283e-13
-8.69158e-14
2.30175e-13
-2.38927e-14
3.20381e-13
-9.02066e-14
4.27745e-13
-1.07363e-13
4.06717e-13
2.10281e-14
2.782e-13
1.28517e-13
2.09084e-13
6.91155e-14
1.80576e-13
2.85083e-14
1.66315e-13
1.42604e-14
1.54881e-13
1.14337e-14
1.47206e-13
7.67531e-15
1.44466e-13
2.73975e-15
1.43188e-13
1.27869e-15
1.42533e-13
6.54777e-16
1.41118e-13
1.41503e-15
1.38997e-13
2.1209e-15
1.33185e-13
5.81143e-15
1.22687e-13
1.04988e-14
1.00978e-13
2.17083e-14
7.23404e-14
2.86381e-14
9.50613e-14
-2.27207e-14
1.74128e-13
-7.90672e-14
-5.45755e-13
7.19883e-13
-1.43975e-12
8.93998e-13
1.55487e-12
-2.99463e-12
5.4546e-12
-3.89973e-12
6.64403e-12
-1.18942e-12
-4.57276e-13
7.1013e-12
-3.18317e-12
2.7259e-12
-4.1745e-12
9.91328e-13
-6.82869e-12
2.65419e-12
1.3466e-12
1.28024e-12
-2.24759e-12
3.1373e-12
-3.2259e-12
4.85414e-12
-3.1419e-12
1.57751e-12
5.69666e-12
-9.30977e-13
4.04302e-12
-1.03389e-12
2.1241e-13
3.6899e-14
-7.43978e-13
8.85194e-13
-1.66336e-12
1.14464e-12
-1.54619e-12
1.04713e-12
8.46438e-13
7.29092e-13
5.92979e-13
4.90219e-13
3.88129e-13
4.57804e-13
1.93124e-14
5.8913e-13
-2.18242e-13
6.85474e-13
-1.20237e-13
8.27603e-13
-2.32334e-13
8.34021e-13
-1.13781e-13
7.53774e-13
1.01275e-13
6.12762e-13
2.69529e-13
5.00496e-13
1.81382e-13
4.56095e-13
7.29098e-14
4.28097e-13
4.22579e-14
4.01841e-13
3.76897e-14
3.84835e-13
2.4682e-14
3.79423e-13
8.15061e-15
3.78319e-13
2.38278e-15
3.78971e-13
2.6247e-18
3.79769e-13
6.17252e-16
3.81986e-13
-9.62615e-17
3.83599e-13
4.19841e-15
3.86106e-13
7.99215e-15
3.86492e-13
2.13227e-14
3.98803e-13
1.6327e-14
4.12824e-13
-3.67418e-14
4.032e-13
-6.9443e-14
-5.15664e-13
1.63875e-12
6.84587e-14
3.09875e-13
3.29831e-12
-6.22448e-12
6.81064e-12
-7.41207e-12
3.79523e-12
1.82599e-12
-1.79892e-12
1.26954e-11
-4.07614e-12
5.00311e-12
-4.39148e-12
1.30667e-12
-4.76942e-12
3.03212e-12
2.22303e-12
9.51676e-13
-3.0766e-12
2.26158e-12
-4.5358e-12
2.58045e-12
-3.46077e-12
2.44148e-13
8.03296e-12
-6.31598e-13
4.91877e-12
-6.96437e-14
-3.4954e-13
1.09817e-12
-1.91179e-12
1.99075e-12
-2.55594e-12
1.09426e-12
-6.49696e-13
1.12637e-12
8.14324e-13
9.66613e-13
7.52739e-13
7.36587e-13
6.18155e-13
6.52412e-13
1.03488e-13
7.4676e-13
-3.1259e-13
9.97546e-13
-3.71023e-13
9.58396e-13
-1.93185e-13
9.43636e-13
-9.90209e-14
8.56751e-13
1.88161e-13
7.37952e-13
3.88328e-13
6.76005e-13
2.43328e-13
6.542e-13
9.47151e-14
6.2696e-13
6.9498e-14
5.89943e-13
7.47067e-14
5.6723e-13
4.73947e-14
5.60815e-13
1.45654e-14
5.60327e-13
2.87148e-15
5.62429e-13
-2.10004e-15
5.64405e-13
-1.35911e-15
5.68672e-13
-4.363e-15
5.73294e-13
-4.23189e-16
5.80002e-13
1.28433e-15
5.82019e-13
1.93056e-14
5.97224e-13
1.12164e-15
4.78712e-13
8.17707e-14
3.90579e-13
1.86895e-14
-6.08184e-13
2.63751e-12
-6.2463e-13
3.26321e-13
2.11367e-12
-8.96278e-12
3.05831e-12
-8.35672e-12
-2.05786e-12
6.94217e-12
-2.00027e-12
1.26379e-11
-2.66648e-12
5.66933e-12
-1.59602e-12
2.36209e-13
2.86422e-12
-1.42812e-12
2.28236e-12
1.51621e-13
-2.27439e-12
-2.73215e-13
-4.11097e-12
2.0276e-13
-3.93675e-12
8.29507e-13
7.40622e-12
1.59984e-12
4.14843e-12
1.41471e-12
-1.64406e-13
1.99618e-12
-2.49326e-12
1.85675e-12
-2.41651e-12
9.70147e-13
2.36904e-13
1.06866e-12
7.15814e-13
1.03315e-12
7.88246e-13
8.2582e-13
8.25485e-13
7.40244e-13
1.89064e-13
8.03584e-13
-3.7593e-13
9.31941e-13
-4.9938e-13
6.50009e-13
8.87477e-14
7.51633e-13
-2.00645e-13
7.23984e-13
2.1581e-13
8.5534e-13
2.56972e-13
8.16897e-13
2.81771e-13
7.86593e-13
1.25019e-13
7.57075e-13
9.90155e-14
7.1614e-13
1.15641e-13
6.93398e-13
7.01372e-14
6.8843e-13
1.95333e-14
6.89148e-13
2.15359e-15
6.9283e-13
-5.78213e-15
6.93716e-13
-2.2447e-15
6.974e-13
-8.04703e-15
7.00408e-13
-3.432e-15
7.03267e-13
-1.57369e-15
6.92587e-13
2.99858e-14
6.79163e-13
1.45451e-14
4.71483e-13
2.89451e-13
3.04466e-13
1.85706e-13
7.12849e-14
2.87069e-12
-9.06607e-13
1.30421e-12
2.68633e-13
-1.0138e-11
-1.40955e-12
-6.67854e-12
-2.87111e-12
8.40373e-12
-3.96279e-15
9.77072e-12
-1.27049e-13
5.79241e-12
4.24717e-13
-3.15556e-13
2.69878e-12
-3.70218e-12
-2.44263e-12
-1.71867e-12
1.06058e-12
-2.53641e-12
-3.29322e-12
-3.17972e-12
-3.29344e-12
7.57077e-12
-3.34428e-12
3.77322e-12
7.94598e-12
1.32129e-12
2.28752e-12
2.23349e-12
-3.40546e-12
1.5269e-12
-1.70993e-12
8.8411e-13
8.79692e-13
8.63925e-13
7.36e-13
9.41068e-13
7.11102e-13
8.43083e-13
9.2347e-13
7.92952e-13
2.39194e-13
7.63983e-13
-3.4696e-13
8.03986e-13
-5.39384e-13
9.00366e-13
-7.63244e-15
7.39026e-13
-3.93039e-14
6.07122e-13
3.47714e-13
7.62776e-13
1.01317e-13
7.73852e-13
2.70695e-13
8.01258e-13
9.7613e-14
7.97912e-13
1.02361e-13
7.72505e-13
1.41048e-13
7.62224e-13
8.04194e-14
7.62797e-13
1.89595e-14
7.6598e-13
-1.02839e-15
7.71185e-13
-1.09876e-14
7.69142e-13
-2.02431e-16
7.70178e-13
-9.08267e-15
7.69511e-13
-2.76547e-15
7.6662e-13
1.31743e-15
7.58563e-13
3.80437e-14
7.43469e-13
2.96382e-14
7.47132e-13
2.85788e-13
6.77571e-13
2.55267e-13
1.00656e-12
2.5417e-12
1.68934e-12
6.21428e-13
-1.8683e-12
-6.58039e-12
-4.64352e-12
-3.9033e-12
-3.47775e-12
7.23796e-12
3.89256e-12
2.40041e-12
3.43898e-12
6.246e-12
2.77628e-12
3.47141e-13
5.72244e-12
-6.64834e-12
-8.31707e-12
4.15816e-13
8.44766e-13
-3.14293e-13
-2.56311e-12
-7.6405e-13
-2.84368e-12
1.08002e-12
-5.18835e-12
-3.77134e-13
9.40314e-12
-2.37209e-13
2.1476e-12
4.49408e-13
-4.09207e-12
2.36976e-13
-1.4975e-12
1.80973e-13
9.35695e-13
1.59532e-13
7.57441e-13
1.82984e-13
6.8765e-13
1.82952e-13
9.23502e-13
1.72585e-13
2.49561e-13
1.52499e-13
-3.26875e-13
1.4609e-13
-5.32975e-13
1.42526e-13
-4.06792e-15
1.11831e-13
-8.60953e-15
9.34557e-14
3.66089e-13
1.03947e-13
9.08255e-14
1.51201e-13
2.23442e-13
1.60789e-13
8.80253e-14
1.67532e-13
9.56182e-14
1.6904e-13
1.3954e-13
1.70414e-13
7.90453e-14
1.72253e-13
1.71205e-14
1.7389e-13
-2.66585e-15
1.74742e-13
-1.18391e-14
1.74369e-13
1.69665e-16
1.73766e-13
-8.47943e-15
1.73553e-13
-2.55184e-15
1.70841e-13
4.02952e-15
1.72883e-13
3.60019e-14
1.6093e-13
4.15911e-14
1.97268e-13
2.4945e-13
2.03255e-13
2.49281e-13
2.96809e-13
2.44815e-12
2.79186e-14
8.90319e-13
-2.0931e-12
-4.45936e-12
-5.64153e-12
-3.54867e-13
-5.74697e-12
7.34339e-12
5.51223e-13
-3.89778e-12
1.0386e-12
5.75862e-12
8.32346e-13
5.53401e-13
4.71107e-12
-1.05271e-11
-4.73431e-12
-4.55403e-13
1.50017e-12
-1.55251e-13
-2.86326e-12
-3.56877e-13
-2.64206e-12
-5.0696e-13
-5.03827e-12
-9.24091e-13
9.82027e-12
-2.74431e-13
1.49794e-12
4.00569e-13
-4.76707e-12
2.09591e-13
-1.30652e-12
1.75193e-13
9.70093e-13
1.44365e-13
7.8827e-13
1.75398e-13
6.56617e-13
1.79725e-13
9.19175e-13
1.66297e-13
2.6299e-13
1.52186e-13
-3.12764e-13
1.22776e-13
-5.03565e-13
1.29131e-13
-1.04227e-14
9.75206e-14
2.30005e-14
6.6383e-14
3.97227e-13
9.06411e-14
6.65674e-14
1.39137e-13
1.74946e-13
1.53354e-13
7.38082e-14
1.62636e-13
8.63364e-14
1.67196e-13
1.3498e-13
1.69919e-13
7.63225e-14
1.72538e-13
1.45012e-14
1.74712e-13
-4.8396e-15
1.75476e-13
-1.26035e-14
1.7501e-13
6.35529e-16
1.74188e-13
-7.65705e-15
1.73766e-13
-2.12985e-15
1.70719e-13
7.07657e-15
1.72959e-13
3.37615e-14
1.60772e-13
5.37781e-14
2.02382e-13
2.0784e-13
2.22363e-13
2.293e-13
4.07967e-13
2.26255e-12
-3.35327e-13
1.63361e-12
-2.58764e-12
-2.20705e-12
-6.08176e-12
3.13925e-12
-5.06055e-12
6.32218e-12
4.38504e-13
-9.39683e-12
1.07005e-12
5.12707e-12
9.05936e-13
7.17517e-13
2.79182e-12
-1.24129e-11
-1.50267e-12
8.18252e-13
8.81917e-13
-1.59305e-14
-2.02908e-12
-4.36534e-14
-2.61433e-12
-1.8098e-12
-3.27213e-12
-7.07999e-13
8.71847e-12
-4.74654e-14
8.37403e-13
4.35378e-13
-5.24992e-12
1.8554e-13
-1.05668e-12
1.59671e-13
9.95963e-13
1.34376e-13
8.13565e-13
1.68039e-13
6.22953e-13
1.8252e-13
9.04695e-13
1.47964e-13
2.97546e-13
1.45396e-13
-3.10197e-13
1.24203e-13
-4.82372e-13
1.14671e-13
-8.90064e-16
5.38083e-14
8.3863e-14
5.65813e-14
3.94454e-13
7.25772e-14
5.05715e-14
1.24092e-13
1.23431e-13
1.43403e-13
5.44963e-14
1.56405e-13
7.3335e-14
1.64575e-13
1.2681e-13
1.70219e-13
7.06787e-14
1.73595e-13
1.11247e-14
1.75171e-13
-6.41539e-15
1.75589e-13
-1.30216e-14
1.751e-13
1.1245e-15
1.74088e-13
-6.64506e-15
1.73396e-13
-1.43823e-15
1.70176e-13
1.02969e-14
1.72589e-13
3.13489e-14
1.60489e-13
6.58778e-14
2.03661e-13
1.64668e-13
2.27584e-13
2.05377e-13
4.20582e-13
2.06955e-12
-3.39222e-13
2.39342e-12
-2.492e-12
-5.42677e-14
-4.23132e-12
4.87857e-12
-3.16734e-12
5.2582e-12
1.15308e-12
-1.37172e-11
1.10411e-12
5.17604e-12
8.19305e-13
1.00232e-12
-5.92201e-13
-1.10014e-11
-3.44619e-12
-6.02953e-13
1.68487e-12
1.17132e-13
-2.74917e-12
-6.27132e-13
-1.87007e-12
-3.59391e-13
-3.53987e-12
-1.75805e-13
8.53489e-12
3.45954e-13
3.15643e-13
4.41382e-13
-5.34534e-12
1.97782e-13
-8.13083e-13
1.42895e-13
1.05085e-12
1.27477e-13
8.28983e-13
1.6133e-13
5.89099e-13
1.84391e-13
8.81635e-13
1.78048e-13
3.03888e-13
1.45863e-13
-2.78012e-13
1.16139e-13
-4.52648e-13
1.00205e-13
1.5044e-14
3.80598e-14
1.46008e-13
6.00209e-14
3.72493e-13
6.60992e-14
4.44933e-14
1.04132e-13
8.53986e-14
1.32402e-13
2.62262e-14
1.51958e-13
5.37794e-14
1.64743e-13
1.14025e-13
1.70733e-13
6.46878e-14
1.73988e-13
7.87018e-15
1.75484e-13
-7.91117e-15
1.7556e-13
-1.30976e-14
1.74957e-13
1.72741e-15
1.73603e-13
-5.29131e-15
1.72726e-13
-5.60654e-16
1.69579e-13
1.3444e-14
1.7207e-13
2.88575e-14
1.60712e-13
7.72356e-14
2.00386e-13
1.24994e-13
2.24286e-13
1.81478e-13
4.23785e-13
1.87005e-12
-6.33675e-14
2.88057e-12
-1.62484e-12
1.50721e-12
-3.93224e-12
7.18597e-12
2.81577e-12
-1.48982e-12
1.22979e-12
-1.21313e-11
8.03848e-13
5.60198e-12
6.55807e-13
1.15036e-12
-2.40008e-12
-7.94555e-12
-8.53839e-12
9.66249e-13
9.18622e-13
1.51638e-13
-1.93456e-12
-1.01275e-12
-7.05683e-13
2.08857e-13
-4.76147e-12
3.37208e-13
8.40654e-12
6.58706e-13
-5.85548e-15
4.42302e-13
-5.12894e-12
1.87971e-13
-5.58752e-13
1.29934e-13
1.10889e-12
1.17277e-13
8.4164e-13
1.55758e-13
5.50619e-13
1.81919e-13
8.55474e-13
2.267e-13
2.59106e-13
1.32869e-13
-1.84181e-13
1.15276e-13
-4.35055e-13
9.53753e-14
3.49449e-14
6.41344e-14
1.77249e-13
5.91811e-14
3.77446e-13
6.34382e-14
4.02362e-14
1.12778e-13
3.60585e-14
1.35152e-13
3.85234e-15
1.53236e-13
3.56952e-14
1.64821e-13
1.0244e-13
1.70864e-13
5.86448e-14
1.73921e-13
4.81301e-15
1.75137e-13
-9.127e-15
1.7501e-13
-1.29708e-14
1.74514e-13
2.22354e-15
1.73203e-13
-3.98042e-15
1.7228e-13
3.62321e-16
1.69167e-13
1.65571e-14
1.71273e-13
2.67512e-14
1.60091e-13
8.84175e-14
1.92404e-13
9.2681e-14
2.17363e-13
1.56519e-13
4.45254e-13
1.64216e-12
3.15497e-13
3.01033e-12
-1.11867e-12
2.94137e-12
-1.05837e-12
7.12567e-12
2.62798e-12
-5.17616e-12
8.83741e-14
-9.59166e-12
5.0771e-13
5.18264e-12
6.40498e-13
1.01758e-12
1.55882e-13
-7.46094e-12
-9.48622e-12
3.066e-13
1.934e-13
2.79949e-13
2.66518e-14
3.49145e-13
-6.91963e-14
7.65355e-13
-4.1621e-13
-1.92513e-12
2.69049e-12
5.97894e-13
9.55057e-14
6.10495e-13
1.4051e-14
6.31127e-13
-8.98289e-14
6.95876e-13
-4.80959e-13
-1.94882e-12
7.19566e-13
6.83896e-13
-8.83904e-14
7.23545e-13
-2.55983e-14
7.04775e-13
-7.10584e-14
5.4065e-13
-3.16834e-13
-1.35207e-12
-5.60999e-14
5.99766e-13
-1.88157e-13
6.10796e-13
-3.66285e-14
5.69671e-13
-2.99328e-14
3.71551e-13
-1.18715e-13
-5.36527e-13
-4.43995e-13
3.11843e-13
2.75215e-13
2.45282e-13
1.26567e-13
-4.09959e-13
2.9026e-12
7.06506e-13
1.47005e-12
-5.02004e-13
-2.30734e-12
3.0717e-12
-3.44701e-12
-3.62179e-12
4.6288e-12
3.30729e-13
4.8757e-12
-2.52762e-13
1.83385e-12
-2.08709e-12
6.04396e-13
6.70702e-13
4.14965e-13
1.29832e-12
3.91697e-13
8.64908e-13
6.23524e-13
3.18791e-13
8.56032e-13
6.22966e-13
9.44651e-13
1.70487e-13
8.55244e-13
-9.47734e-14
6.29707e-13
-2.09518e-13
4.81758e-13
1.82893e-13
4.31106e-13
2.27901e-13
3.39186e-13
4.69366e-13
4.80596e-13
-1.01174e-13
5.51025e-13
-3.43709e-14
6.44228e-13
-8.93501e-14
6.97517e-13
-1.75941e-14
7.4101e-13
5.89476e-14
7.64523e-13
3.51313e-14
7.73971e-13
-4.63423e-15
7.76923e-13
-1.20789e-14
7.73359e-13
-9.40704e-15
7.72826e-13
2.75629e-15
7.67236e-13
1.61014e-15
7.60717e-13
6.88074e-15
7.52901e-13
2.43737e-14
7.41393e-13
3.82587e-14
7.06438e-13
1.23373e-13
6.88556e-13
1.10562e-13
8.0839e-13
3.66852e-14
2.20472e-12
2.45825e-13
2.40052e-12
2.81453e-12
7.64004e-13
4.57788e-12
4.04441e-12
3.84526e-12
6.4388e-12
-7.57053e-12
-2.20763e-12
-9.45234e-13
9.38591e-13
2.03642e-12
2.55827e-12
-6.02099e-13
1.50792e-12
-6.41059e-12
-6.27877e-12
1.59605e-12
-1.6998e-13
8.74195e-13
2.19853e-13
5.08745e-13
3.43715e-12
1.45066e-12
-4.56371e-12
4.36509e-12
-2.5837e-12
3.53519e-12
5.77134e-13
8.20006e-13
6.281e-13
3.60552e-13
1.13015e-12
9.22688e-14
1.5666e-12
2.27393e-13
7.29783e-13
4.06542e-13
1.39642e-13
6.43627e-13
3.85881e-13
6.61556e-13
1.52558e-13
7.42e-13
-1.75217e-13
4.90781e-13
4.17016e-14
4.99001e-13
1.74673e-13
5.68621e-13
1.58282e-13
6.16117e-13
4.21869e-13
6.27561e-13
-1.12617e-13
6.42838e-13
-4.96482e-14
6.47267e-13
-9.378e-14
6.55438e-13
-2.57644e-14
6.83149e-13
3.12369e-14
7.01055e-13
1.72249e-14
7.04099e-13
-7.67852e-15
7.02216e-13
-1.01959e-14
6.98334e-13
-5.52498e-15
6.97882e-13
3.20856e-15
6.949e-13
4.59235e-15
6.91362e-13
1.04189e-14
6.88452e-13
2.72834e-14
6.77792e-13
4.89186e-14
6.5695e-13
1.44215e-13
4.9619e-13
2.71322e-13
3.59319e-13
1.73557e-13
1.69637e-12
-1.09122e-12
6.53294e-13
3.8576e-12
2.90903e-12
2.32216e-12
6.67399e-12
8.02966e-14
9.06762e-12
-9.96418e-12
3.12057e-12
5.00182e-12
2.43544e-12
2.72156e-12
2.13369e-12
-3.00356e-13
-3.77138e-12
-5.05518e-13
-9.36887e-13
1.0655e-13
-3.3263e-13
3.15333e-13
1.10705e-14
8.58394e-13
2.89409e-12
-4.56058e-13
-3.24926e-12
8.76644e-13
-3.9164e-12
2.833e-13
1.17048e-12
-5.40588e-13
1.45199e-12
-2.4651e-13
8.36072e-13
-1.01972e-13
1.42207e-12
5.45492e-14
5.73263e-13
1.15367e-13
7.88243e-14
2.59301e-13
2.41948e-13
3.76848e-13
3.50114e-14
5.20471e-13
-3.1884e-13
4.14852e-13
1.47321e-13
4.0876e-13
1.80766e-13
4.53699e-13
1.13343e-13
6.23446e-13
2.52122e-13
5.86859e-13
-7.60303e-14
5.8528e-13
-4.8069e-14
5.57145e-13
-6.56451e-14
5.49801e-13
-1.84209e-14
5.67561e-13
1.34772e-14
5.7855e-13
6.23625e-15
5.76837e-13
-5.96565e-15
5.72504e-13
-5.86306e-15
5.69173e-13
-2.19379e-15
5.69238e-13
3.14394e-15
5.68709e-13
5.12146e-15
5.69149e-13
9.97816e-15
5.73413e-13
2.30194e-14
5.80426e-13
4.19055e-14
6.06058e-13
1.18583e-13
5.55636e-13
3.21744e-13
4.07078e-13
3.22115e-13
7.91265e-13
-1.47541e-12
2.25822e-12
2.39064e-12
3.41052e-12
1.16986e-12
5.36874e-12
-1.87792e-12
3.27683e-12
-7.87227e-12
8.48531e-14
8.1938e-12
1.99813e-12
8.08285e-13
1.30067e-12
3.97101e-13
-3.87136e-12
4.66651e-12
2.93506e-12
-5.46001e-13
-2.30624e-13
-3.96119e-13
-1.38811e-13
9.85045e-13
1.51293e-12
1.97529e-12
-4.2395e-12
-1.35494e-12
-5.86172e-13
-2.20506e-12
2.02059e-12
-1.49072e-12
7.37658e-13
-8.09447e-13
1.54795e-13
-2.19869e-13
8.32488e-13
-1.31308e-14
3.66525e-13
9.59736e-15
5.60962e-14
2.01315e-13
5.023e-14
2.16028e-13
2.0299e-14
1.90926e-14
-1.21905e-13
1.21271e-13
4.51422e-14
2.45441e-13
5.6596e-14
3.30958e-13
2.7825e-14
4.96069e-13
8.7011e-14
4.58906e-13
-3.88671e-14
4.31456e-13
-2.06185e-14
3.92085e-13
-2.62742e-14
3.81172e-13
-7.50783e-15
3.91015e-13
3.63393e-15
3.95932e-13
1.31909e-15
3.92233e-13
-2.2671e-15
3.88098e-13
-1.72724e-15
3.86104e-13
-2.0011e-16
3.8723e-13
2.01848e-15
3.88983e-13
3.36849e-15
3.93027e-13
5.93354e-15
4.03232e-13
1.28148e-14
4.25139e-13
1.9998e-14
4.88487e-13
5.52348e-14
6.47227e-13
1.63004e-13
7.32264e-13
2.37079e-13
1.0405e-13
-8.47195e-13
1.92748e-12
5.67211e-13
2.60762e-12
4.89715e-13
2.04915e-12
-1.31946e-12
-1.24303e-12
-4.58009e-12
1.85161e-12
5.09916e-12
1.75151e-12
9.08376e-13
1.97932e-12
1.69298e-13
9.10878e-13
5.73495e-12
3.43347e-12
-6.40584e-13
-7.79395e-13
7.33533e-13
-3.50597e-12
-4.09214e-12
-2.07155e-12
-1.33389e-12
-1.17909e-12
-3.46606e-13
1.9919e-14
7.60153e-14
1.26245e-13
1.46544e-13
2.46392e-14
6.97813e-14
1.26377e-13
1.54202e-13
2.41213e-13
2.02346e-13
1.81728e-13
1.55454e-13
1.47946e-13
1.5158e-13
1.52899e-13
1.50632e-13
1.48904e-13
1.48704e-13
1.50723e-13
1.54092e-13
1.60025e-13
1.7284e-13
1.92838e-13
2.48072e-13
4.11076e-13
6.48155e-13
-1.9904e-13
3.6817e-13
8.57891e-13
-4.61559e-13
-5.04165e-12
5.74983e-14
9.65874e-13
1.13517e-12
6.87012e-12
)
;

boundaryField
{
    AirInlet
    {
        type            calculated;
        value           nonuniform List<scalar> 5(-2e-13 -2e-13 -2e-13 -2e-13 -2e-13);
    }
    WaterInlet
    {
        type            calculated;
        value           nonuniform List<scalar> 10(-5e-13 -5e-13 -5e-13 -5e-13 -5e-13 -5e-13 -5e-13 -5e-13 -5e-13 -5e-13);
    }
    ChannelWall
    {
        type            calculated;
        value           uniform 0;
    }
    Outlet
    {
        type            calculated;
        value           nonuniform List<scalar> 
15
(
-8.17529e-12
-5.64584e-12
2.80489e-12
7.42377e-12
1.15969e-11
1.12831e-12
-4.39825e-13
1.35132e-12
2.69211e-12
1.10372e-12
-1.69953e-12
-9.11326e-12
-7.74331e-12
4.12467e-13
1.03036e-11
)
;
    }
    FrontAndBack
    {
        type            empty;
        value           nonuniform 0();
    }
}


// ************************************************************************* //
