/*--------------------------------*- C++ -*----------------------------------*\
| =========                 |                                                 |
| \\      /  F ield         | OpenFOAM: The Open Source CFD Toolbox           |
|  \\    /   O peration     | Version:  2.3.0                                 |
|   \\  /    A nd           | Web:      www.OpenFOAM.org                      |
|    \\/     M anipulation  |                                                 |
\*---------------------------------------------------------------------------*/
FoamFile
{
    version     2.0;
    format      ascii;
    class       volScalarField;
    location    "2.5";
    object      epsilon;
}
// * * * * * * * * * * * * * * * * * * * * * * * * * * * * * * * * * * * * * //

dimensions      [0 2 -3 0 0 0 0];

internalField   nonuniform List<scalar> 
2268
(
0.00422313
0.0215743
0.0396356
0.0571631
0.0744795
0.091944
0.109756
0.128119
0.147208
0.167114
0.187652
0.208153
0.227401
0.243823
0.25581
0.261798
0.259901
0.247949
0.22758
0.204375
0.168844
0.108617
0.0273257
0.00813418
0.014318
0.0219681
0.02975
0.0376384
0.0457552
0.0541849
0.0630114
0.0722989
0.0820572
0.0921688
0.102298
0.111845
0.119993
0.125852
0.128612
0.127718
0.123219
0.115424
0.105365
0.0915227
0.0708014
0.0467897
0.0133973
0.0149462
0.02025
0.0260302
0.0320559
0.0383629
0.0450155
0.0520832
0.0596176
0.0676154
0.075959
0.0843542
0.0923084
0.0991858
0.10433
0.107213
0.107587
0.105684
0.102091
0.0974067
0.0910105
0.081034
0.0760994
0.0185697
0.016684
0.0207958
0.0257128
0.0310112
0.0366652
0.0427237
0.0492519
0.0562985
0.0638507
0.0717737
0.0797624
0.0873465
0.0939682
0.0991102
0.10243
0.103884
0.103888
0.103333
0.102947
0.10241
0.0999238
0.106539
0.0237548
0.0188445
0.0221405
0.0265749
0.0315331
0.0369379
0.0428254
0.049258
0.0562838
0.0638784
0.071877
0.079938
0.087579
0.0942859
0.0996524
0.103502
0.105986
0.107727
0.109916
0.11366
0.119095
0.12476
0.141654
0.0290282
0.0212742
0.0239381
0.0280819
0.0329004
0.0382729
0.0442231
0.0508119
0.0580869
0.0660078
0.0743644
0.0827548
0.0906624
0.097602
0.103272
0.107662
0.111122
0.11449
0.119204
0.126897
0.138681
0.155675
0.191962
0.0344479
0.0239443
0.026092
0.03007
0.0348853
0.0403792
0.0465634
0.0534962
0.0612255
0.0696885
0.0786077
0.0874927
0.0957735
0.102988
0.108945
0.113802
0.118103
0.122862
0.129663
0.140588
0.158338
0.191455
0.28074
0.0401575
0.0268823
0.0285979
0.032506
0.0374294
0.0431771
0.0497457
0.0571881
0.0655548
0.0747512
0.0844005
0.093887
0.102569
0.110011
0.116141
0.121292
0.126173
0.13188
0.139949
0.152448
0.173218
0.221596
0.438325
0.0235548
0.0835196
0.144192
0.185048
0.208697
0.214889
0.200383
0.165609
0.124099
0.0918615
0.0796815
0.0711856
0.0537277
0.0510237
0.0581751
0.0632677
0.0630736
0.0444547
0.0129739
0.0338099
0.0531967
0.0743486
0.0888031
0.0971058
0.0990558
0.094652
0.0852682
0.0740502
0.0590317
0.0470912
0.0399351
0.0346385
0.0336809
0.0343577
0.0331478
0.0310919
0.0253129
0.0175848
0.0514709
0.0555504
0.067182
0.075485
0.079865
0.0799487
0.0762923
0.0702916
0.0630585
0.0528754
0.0434249
0.0370878
0.0330647
0.0317887
0.03165
0.0307109
0.0294157
0.0265753
0.0258541
0.0684902
0.0625908
0.0685859
0.0732979
0.0753177
0.0740781
0.0702931
0.0652517
0.0590627
0.0512687
0.0438225
0.0384433
0.0349688
0.0332428
0.032609
0.0320523
0.0313724
0.0300748
0.0345214
0.0878456
0.0719625
0.0728266
0.0745158
0.0746469
0.0723712
0.0683601
0.0637045
0.0580562
0.0517851
0.0458904
0.0415075
0.0385319
0.0364735
0.0353068
0.0347364
0.0343866
0.034181
0.0443506
0.113892
0.0832604
0.0783442
0.0771411
0.0756471
0.0725822
0.0684245
0.0640316
0.0589398
0.0538508
0.0491806
0.0456913
0.0431698
0.0408718
0.039121
0.038203
0.0379244
0.0386752
0.0563785
0.159416
0.0962277
0.0843133
0.0803544
0.0774916
0.0738888
0.0697485
0.0656823
0.0613164
0.0572498
0.0535279
0.050731
0.0485285
0.0460166
0.0436733
0.0422176
0.0418557
0.0437234
0.071874
0.277987
0.109237
0.089959
0.0837052
0.0797873
0.0759165
0.0720233
0.0684617
0.065008
0.0618212
0.0587795
0.0564103
0.0543221
0.0515778
0.0486814
0.04662
0.0461006
0.0490887
0.0882466
0.0499276
0.0320134
0.0331437
0.0370636
0.0423137
0.0486589
0.0560584
0.0645468
0.0741874
0.08482
0.0958363
0.106346
0.115578
0.123157
0.129226
0.134405
0.139593
0.145798
0.153936
0.164768
0.179387
0.20377
0.267151
0.066558
0.0412771
0.0416598
0.0458185
0.0519246
0.0596821
0.0688788
0.0794547
0.0915853
0.104987
0.118336
0.130047
0.139236
0.145795
0.1503
0.153849
0.157476
0.161709
0.166408
0.170586
0.17313
0.174069
0.177934
0.0960307
0.0559063
0.054296
0.0584991
0.0658748
0.0759417
0.0878518
0.10121
0.116796
0.13435
0.15059
0.162632
0.170141
0.173796
0.174757
0.174929
0.175583
0.176562
0.177296
0.176935
0.174495
0.169225
0.162589
0.169431
0.0810629
0.0733348
0.0766451
0.0856599
0.0994967
0.115241
0.131504
0.151577
0.17614
0.195791
0.205731
0.208927
0.207763
0.203597
0.198789
0.196087
0.193728
0.191174
0.188539
0.184832
0.177176
0.165594
0.255291
0.109452
0.0944346
0.0952737
0.104667
0.121299
0.13959
0.157129
0.17956
0.207108
0.224024
0.230549
0.234619
0.236773
0.232397
0.224866
0.218518
0.213977
0.208337
0.204418
0.200882
0.190233
0.174363
0.271728
0.141575
0.11626
0.109461
0.115371
0.129407
0.146777
0.164232
0.183475
0.200459
0.212032
0.219653
0.22679
0.23321
0.235677
0.23583
0.237544
0.233809
0.221889
0.213225
0.206992
0.194654
0.179401
0.291677
0.150951
0.130782
0.123764
0.126988
0.13708
0.15161
0.165487
0.178352
0.190171
0.199999
0.208304
0.215574
0.22135
0.22516
0.22891
0.235999
0.237625
0.226554
0.213829
0.20315
0.191854
0.17578
0.305147
0.141461
0.12965
0.134139
0.138925
0.142873
0.149907
0.160242
0.173056
0.18396
0.192197
0.202033
0.210178
0.214133
0.216033
0.218354
0.222648
0.224641
0.221642
0.216007
0.204556
0.191157
0.172932
0.292087
0.130707
0.121486
0.131032
0.139412
0.141691
0.144874
0.153523
0.165226
0.175607
0.184289
0.194615
0.20402
0.209128
0.210738
0.210003
0.211091
0.212452
0.212636
0.210976
0.205645
0.191906
0.169741
0.269819
0.120119
0.110665
0.119136
0.12838
0.132966
0.136828
0.144294
0.154183
0.163991
0.173284
0.182863
0.19134
0.196483
0.198801
0.198303
0.199254
0.201942
0.203855
0.202068
0.195056
0.18054
0.159908
0.241604
0.108978
0.0990262
0.105313
0.113833
0.120131
0.125997
0.133874
0.142986
0.152083
0.161118
0.169995
0.177279
0.180997
0.181818
0.18166
0.182863
0.185638
0.18724
0.183323
0.172871
0.15929
0.145448
0.211205
0.0980629
0.0881598
0.0925013
0.0997779
0.106466
0.113145
0.12146
0.130714
0.139855
0.148666
0.156963
0.163558
0.166441
0.165987
0.16488
0.164773
0.165733
0.165714
0.161537
0.152995
0.143068
0.13317
0.184111
0.088848
0.0790392
0.08183
0.0877955
0.0940705
0.100469
0.107986
0.116591
0.125504
0.134279
0.142428
0.148722
0.151319
0.150464
0.148806
0.147973
0.147876
0.147031
0.143341
0.137071
0.129931
0.12262
0.16281
0.0815271
0.0718918
0.0734492
0.0781657
0.0836608
0.0894031
0.0957839
0.102979
0.110682
0.118508
0.125867
0.131652
0.134519
0.134514
0.133518
0.132948
0.132638
0.13143
0.128277
0.123675
0.118526
0.113077
0.146501
0.0757089
0.0664059
0.067016
0.0706358
0.0752511
0.0802223
0.0855786
0.0914383
0.097699
0.10409
0.110146
0.115109
0.118165
0.119233
0.119298
0.119278
0.118996
0.11779
0.115337
0.112014
0.108295
0.104235
0.134466
0.071137
0.0622177
0.0621095
0.0648048
0.0685724
0.0727732
0.0772578
0.0820389
0.087064
0.092158
0.0970069
0.101148
0.104111
0.10577
0.106519
0.106862
0.10669
0.105756
0.103998
0.101646
0.0989511
0.0959448
0.125717
0.0675214
0.0589465
0.0582952
0.0602315
0.0632422
0.0667305
0.0704742
0.0744076
0.0784733
0.0825524
0.0864441
0.0898723
0.0925577
0.0943698
0.0954196
0.0959414
0.0959159
0.0952857
0.0940731
0.0924127
0.0904385
0.0881699
0.119101
0.0645256
0.0562302
0.0551692
0.0564952
0.0588611
0.0617227
0.0648372
0.0680957
0.0714261
0.0747368
0.0778953
0.0807303
0.0830654
0.0847865
0.0858948
0.0864889
0.0865927
0.0862102
0.0853846
0.0841973
0.0827217
0.0809706
0.113512
0.0618201
0.0537646
0.0523988
0.0532435
0.055079
0.0574103
0.0599961
0.0627088
0.0654654
0.0681871
0.0707789
0.0731271
0.0751136
0.076648
0.0776987
0.0782999
0.0784974
0.0782955
0.0777367
0.0768731
0.0757491
0.0743765
0.108065
0.0591337
0.051326
0.0497436
0.0502181
0.0516316
0.0535291
0.0556786
0.0579468
0.0602471
0.0625075
0.0646545
0.0666073
0.0682837
0.0696157
0.0705687
0.0711501
0.0714017
0.0713257
0.0709544
0.0703224
0.0694604
0.0683816
0.102188
0.0562781
0.0487731
0.0470557
0.0472584
0.0483493
0.0499037
0.0517
0.0536075
0.055541
0.057435
0.0592299
0.0608657
0.0622833
0.0634333
0.0642862
0.0648401
0.065121
0.0651356
0.0649039
0.0644498
0.0637966
0.0629586
0.095643
0.0531444
0.0460345
0.0442654
0.0442882
0.0451466
0.0464389
0.0479548
0.0495713
0.0512094
0.0528114
0.0543282
0.0557141
0.0569258
0.057927
0.0586944
0.0592223
0.0595246
0.059611
0.059492
0.0591846
0.0587071
0.0580738
0.0884606
0.0496855
0.043088
0.0413625
0.0412955
0.0420015
0.0431
0.0443963
0.04578
0.0471819
0.0485528
0.0498529
0.0510464
0.0521009
0.0529892
0.0536925
0.0542039
0.054529
0.0546787
0.0546573
0.0544771
0.0541527
0.0536968
0.0808656
0.0459237
0.039942
0.0383755
0.0383089
0.0389301
0.0398893
0.0410155
0.0422156
0.0434322
0.0446246
0.0457605
0.0468115
0.0477523
0.0485614
0.0492237
0.0497313
0.0500852
0.0502952
0.0503625
0.0502961
0.050107
0.0498059
0.0732584
0.0419158
0.0366475
0.0353532
0.0353696
0.0359602
0.0368243
0.037824
0.0388858
0.039964
0.0410256
0.042044
0.0429959
0.0438607
0.044621
0.0452635
0.0457805
0.0461704
0.0464395
0.0465893
0.0466254
0.046556
0.0463898
0.0659998
0.0378142
0.0333213
0.0323635
0.0325164
0.0331189
0.0339301
0.0348478
0.0358172
0.0368029
0.0377782
0.0387209
0.0396115
0.0404326
0.0411695
0.0418105
0.0423478
0.0427788
0.0431067
0.0433332
0.0434613
0.043497
0.043447
0.0591675
0.0339017
0.0301301
0.0295021
0.0298024
0.030448
0.0312497
0.0321324
0.033056
0.0339931
0.0349224
0.0358257
0.0366865
0.0374901
0.0382238
0.0388771
0.0394429
0.0399177
0.0403029
0.0405995
0.040809
0.0409354
0.0409839
0.0529514
0.0304113
0.0272466
0.0268882
0.0273189
0.0280289
0.028859
0.0297487
0.0306669
0.0315927
0.0325092
0.0334018
0.034257
0.0350625
0.0358074
0.0364827
0.0370816
0.0376006
0.0380398
0.0383993
0.0386794
0.0388824
0.0390127
0.0477282
0.0274911
0.0248185
0.024659
0.0251975
0.0259803
0.0268613
0.0277852
0.0287254
0.0296651
0.0305913
0.0314926
0.0323582
0.0331782
0.0339435
0.0346462
0.0352803
0.0358421
0.0363311
0.0367461
0.0370861
0.0373527
0.0375494
0.0438817
0.0252948
0.0229741
0.0229544
0.0235771
0.024426
0.0253612
0.0263279
0.0273009
0.0282659
0.0292127
0.0301326
0.0310172
0.0318587
0.0326494
0.0333825
0.0340525
0.0346554
0.0351904
0.0356542
0.036045
0.0363639
0.0366135
0.0416526
0.0239382
0.0218199
0.0218854
0.0225642
0.0234608
0.0244379
0.02544
0.0264422
0.0274316
0.0284
0.0293408
0.0302476
0.0311141
0.0319338
0.0327003
0.033408
0.0340526
0.0346314
0.0351396
0.0355748
0.0359369
0.0362287
0.0411245
0.0234971
0.021428
0.0215203
0.0222199
0.0231363
0.0241321
0.0251511
0.0261687
0.027173
0.0281575
0.0291172
0.0300474
0.0309426
0.0317965
0.0326025
0.0333539
0.0340453
0.0346703
0.0352228
0.0356993
0.0360994
0.0364256
0.0422804
0.0240046
0.0218326
0.0218854
0.0225618
0.0234617
0.0244451
0.0254553
0.0264681
0.0274732
0.0284656
0.029442
0.0303985
0.0313301
0.0322297
0.0330889
0.0338982
0.034649
0.0353299
0.0359326
0.0364526
0.0368892
0.0372455
0.0450576
0.025458
0.0230324
0.0229702
0.0235694
0.0244084
0.0253418
0.0263126
0.0272977
0.0282883
0.0292814
0.0302753
0.0312673
0.0322519
0.0332201
0.0341592
0.0350543
0.0358891
0.0366457
0.0373125
0.0378837
0.0383595
0.0387447
0.0493603
0.0278246
0.0249941
0.0247305
0.0251876
0.0259128
0.0267534
0.0276514
0.0285849
0.0295472
0.0305377
0.0315569
0.0326036
0.0336722
0.0347501
0.035817
0.0368472
0.0378085
0.0386744
0.0394283
0.0400644
0.0405856
0.0410007
0.0550258
0.0310312
0.0276457
0.0270835
0.0273238
0.0278759
0.0285775
0.0293687
0.0302284
0.0311523
0.0321427
0.0332043
0.0343394
0.0355436
0.0367998
0.0380747
0.0393208
0.0404786
0.0415054
0.0423793
0.0430979
0.0436715
0.0441175
0.0617685
0.0349409
0.0308615
0.0298994
0.0298433
0.0301611
0.0306785
0.0313318
0.0320996
0.0329798
0.0339798
0.0351115
0.0363859
0.0378047
0.0393482
0.0409626
0.0425575
0.0440202
0.0452798
0.0463127
0.0471298
0.0477591
0.048233
0.0691323
0.0393266
0.0344463
0.0329915
0.0325659
0.0325955
0.0328911
0.0333826
0.0340468
0.0348839
0.035909
0.0371474
0.0386288
0.0403741
0.0423712
0.0445407
0.0467057
0.0486357
0.0502166
0.0514421
0.052361
0.0530363
0.0535256
0.0764813
0.0438582
0.0381256
0.0361136
0.0352678
0.0349747
0.0350274
0.035346
0.0359035
0.036703
0.0377707
0.0391545
0.0409197
0.0431339
0.0458258
0.0489027
0.052034
0.0546669
0.0566517
0.0580691
0.0590588
0.0597454
0.0602216
0.0830395
0.0481107
0.0415479
0.0389649
0.0376905
0.0370744
0.036889
0.0370417
0.0375
0.03827
0.0393926
0.0409482
0.0430607
0.0458926
0.0495984
0.0541695
0.059061
0.0626959
0.065083
0.0665976
0.0675623
0.0681882
0.0686028
0.0879982
0.0515797
0.0442943
0.0412046
0.0395571
0.0386663
0.0382826
0.0382993
0.038678
0.0394272
0.0406034
0.0423238
0.0447897
0.0483175
0.0533518
0.0603378
0.0689135
0.0737096
0.0761937
0.0775207
0.0782738
0.0787282
0.0790166
0.090597
0.0536377
0.0458887
0.0424755
0.0405968
0.0395401
0.0390386
0.0389757
0.0393081
0.0400457
0.0412553
0.0430811
0.0457895
0.0498587
0.0561695
0.066461
0.0845427
0.0892407
0.0907461
0.0913451
0.0916345
0.0917958
0.0918946
0.465979
0.442917
0.468178
0.546348
0.186798
0.185405
0.181611
0.172869
0.157635
0.153847
0.149302
0.143657
0.157362
0.152688
0.148096
0.143309
0.163679
0.15752
0.151651
0.146166
0.166263
0.158385
0.151564
0.145551
0.162608
0.155027
0.148163
0.141792
0.158668
0.150769
0.143937
0.137373
0.154177
0.146069
0.138592
0.131376
0.146536
0.138602
0.131003
0.124442
0.135553
0.129183
0.123092
0.117516
0.125665
0.120789
0.115945
0.111293
0.11688
0.113096
0.109251
0.105444
0.108666
0.105728
0.102699
0.0996323
0.100862
0.0985794
0.0961879
0.0937279
0.0933873
0.0916113
0.0897149
0.0877431
0.0862117
0.0848247
0.0833315
0.0817665
0.0794393
0.0783453
0.0771688
0.0759305
0.073166
0.0722979
0.0713672
0.0703861
0.0674249
0.0667366
0.0659995
0.0652214
0.0622098
0.0616686
0.0610882
0.0604737
0.0574995
0.0570814
0.056631
0.0561512
0.0532713
0.0529579
0.0526169
0.0522502
0.0495082
0.0492843
0.0490364
0.0487654
0.0462016
0.0460542
0.0458855
0.0456957
0.0433518
0.0432692
0.0431673
0.0430457
0.0409664
0.0409377
0.0408913
0.0408264
0.0390588
0.039074
0.0390725
0.0390535
0.0376463
0.0376963
0.0377303
0.0377471
0.0367499
0.0368266
0.0368876
0.0369317
0.0363953
0.036492
0.0365728
0.0366367
0.0366153
0.0367266
0.0368215
0.0368992
0.0374532
0.0375753
0.0376802
0.037767
0.0389677
0.039098
0.0392099
0.0393027
0.0412372
0.0413741
0.041491
0.0415875
0.0443661
0.044508
0.0446282
0.0447266
0.0484901
0.0486345
0.0487556
0.048854
0.0537831
0.0539254
0.0540435
0.0541387
0.0604646
0.0605968
0.0607055
0.0607927
0.0688085
0.068919
0.0690094
0.0690818
0.079157
0.0792317
0.079293
0.0793423
0.0919421
0.0919674
0.0919884
0.0920054
0.177443
0.11564
0.096752
0.0885283
0.0835855
0.0797146
0.0767491
0.0744992
0.0726494
0.0705629
0.0681247
0.0659485
0.063693
0.0605476
0.0568881
0.0539002
0.053033
0.0571411
0.108232
0.141449
0.116749
0.102767
0.0945801
0.0895705
0.0865673
0.0856412
0.0863242
0.0865818
0.0851591
0.0826133
0.0797602
0.0764415
0.0723434
0.0677411
0.0639794
0.063346
0.0690744
0.133904
0.133601
0.1198
0.108914
0.101289
0.0966251
0.0946852
0.0957489
0.0991622
0.101367
0.100442
0.0972718
0.0933956
0.0889446
0.0838006
0.0782034
0.0738596
0.0737936
0.0787398
0.134171
0.135944
0.125307
0.116042
0.109062
0.10479
0.103615
0.106089
0.111297
0.115143
0.115099
0.111709
0.107118
0.101761
0.0953828
0.0887989
0.083671
0.0834436
0.0871414
0.158898
0.138609
0.129667
0.122486
0.117024
0.113482
0.112399
0.114994
0.121283
0.126533
0.126642
0.122774
0.11682
0.108901
0.104512
0.100307
0.0920672
0.0839641
0.0831509
0.126508
0.137412
0.129345
0.124364
0.121114
0.118648
0.117018
0.116992
0.118968
0.120149
0.11815
0.11473
0.110889
0.1075
0.108239
0.104999
0.0914053
0.0780436
0.0733996
0.101295
0.133214
0.125617
0.121554
0.119383
0.117821
0.116286
0.114652
0.112988
0.110809
0.108951
0.109209
0.108231
0.103889
0.101931
0.0968678
0.0837243
0.0711851
0.0649322
0.0860466
0.128094
0.12036
0.116275
0.114222
0.11325
0.112549
0.111299
0.108612
0.104368
0.101134
0.100208
0.0981007
0.0933294
0.0899129
0.0848424
0.0755657
0.0663148
0.0596219
0.0835488
0.122248
0.114044
0.108893
0.105946
0.10434
0.103108
0.101392
0.0982627
0.0935497
0.0893639
0.0867298
0.0841809
0.0806922
0.0781105
0.0751787
0.0694805
0.0622448
0.0550378
0.0753379
0.115898
0.107415
0.101276
0.0969162
0.0937537
0.0911557
0.0885672
0.0853306
0.0813488
0.0776915
0.0749209
0.0724173
0.0699634
0.068424
0.0665915
0.0623555
0.0562179
0.0507426
0.0656583
0.109777
0.101428
0.095015
0.0899894
0.0859099
0.0824251
0.0792235
0.0759885
0.0726641
0.0696517
0.0670215
0.0644476
0.0620345
0.0600899
0.0577459
0.0539478
0.0495982
0.0472237
0.0563128
0.104466
0.0966266
0.0903635
0.0852302
0.080881
0.0770722
0.073634
0.0704681
0.0675109
0.0648236
0.0622534
0.0594017
0.0563493
0.0533811
0.0503723
0.0472409
0.0451812
0.0458762
0.05224
0.0995965
0.0925244
0.0866708
0.0817586
0.0775303
0.0737595
0.0703209
0.0672028
0.0643527
0.061685
0.0590092
0.0559162
0.0524275
0.048964
0.0459291
0.0437081
0.0433642
0.0464005
0.0564778
0.0947404
0.0885623
0.0832572
0.0787059
0.0747405
0.0711637
0.067839
0.0647385
0.0618563
0.0591115
0.0563311
0.0532147
0.0497624
0.0464186
0.0437781
0.0422925
0.0427992
0.0473166
0.0641505
0.0896858
0.0844205
0.0797445
0.0756216
0.0719525
0.0685998
0.0654226
0.0623583
0.0594388
0.0566541
0.0538607
0.0508653
0.0477031
0.0447683
0.0425911
0.0416179
0.0426484
0.0485176
0.0727639
0.0844301
0.0800222
0.0759987
0.0723448
0.0690045
0.0658862
0.0628656
0.0598806
0.0569779
0.0541899
0.0514353
0.0486107
0.0457902
0.0432912
0.0415414
0.0409871
0.0425012
0.0494376
0.0809168
0.0790944
0.0754459
0.0720424
0.0688702
0.0658895
0.0630312
0.0601939
0.057337
0.0545149
0.0517747
0.049093
0.0464453
0.0439284
0.0417999
0.0404179
0.0402432
0.0422244
0.0498671
0.087662
0.0737943
0.0708311
0.067982
0.0652661
0.0626567
0.0600862
0.0574729
0.0547982
0.0521197
0.0494903
0.0469274
0.0444602
0.0422006
0.0403715
0.0392946
0.0394506
0.0418726
0.0501761
0.0925962
0.0686821
0.0662863
0.0639327
0.0616406
0.0593807
0.0571094
0.0547552
0.0523134
0.0498352
0.047376
0.0449803
0.0427099
0.0406859
0.0391126
0.0382931
0.0387241
0.0415129
0.0504877
0.0952079
0.0638633
0.0619322
0.059997
0.0580776
0.0561536
0.0541751
0.0520958
0.049918
0.0476803
0.0454387
0.0432523
0.0412006
0.0394095
0.0380726
0.0374815
0.0381379
0.0411886
0.0506358
0.096262
0.0593955
0.0578452
0.0562626
0.0546651
0.0530382
0.0513446
0.0495477
0.0476432
0.0456647
0.0436695
0.0417204
0.0399047
0.0383492
0.0372402
0.0368595
0.0377065
0.0409458
0.0506964
0.0980416
0.0553035
0.0540682
0.0527839
0.0514647
0.0501011
0.0486665
0.0471345
0.0455013
0.0437916
0.042054
0.0403539
0.0387807
0.0374597
0.0365704
0.0363867
0.0374038
0.0408039
0.0508618
0.10086
0.0515954
0.0506236
0.0495927
0.0485147
0.0473837
0.0461818
0.044891
0.0435085
0.0420541
0.0405698
0.0391179
0.037785
0.0366915
0.0360087
0.0360021
0.0371652
0.0407084
0.0511126
0.103836
0.0482739
0.0475242
0.0467091
0.0458391
0.0449118
0.0439156
0.0428391
0.0416815
0.0404597
0.0392105
0.0379912
0.0368832
0.0359999
0.035504
0.0356532
0.0369402
0.0406025
0.0512931
0.106324
0.0453425
0.04478
0.044148
0.0434559
0.0427041
0.0418862
0.0409956
0.0400339
0.0390165
0.037976
0.0369647
0.0360577
0.0353607
0.0350279
0.0353099
0.0366974
0.0404459
0.0513361
0.108264
0.0428088
0.042403
0.0419245
0.0413821
0.0407783
0.0401107
0.0393769
0.0385805
0.0377362
0.0368737
0.0360403
0.0353051
0.0347664
0.0345705
0.0349605
0.036423
0.0402195
0.0512151
0.109715
0.0406857
0.0404088
0.0400563
0.0396367
0.0391541
0.0386091
0.0380026
0.0373401
0.0366362
0.0359184
0.0352299
0.0346341
0.034223
0.0341356
0.0346081
0.0361197
0.0399255
0.0509287
0.110661
0.0389906
0.038817
0.038565
0.0382426
0.0378551
0.0374055
0.0368972
0.0363374
0.0357408
0.0351331
0.0345545
0.0340637
0.0337474
0.0337387
0.0342673
0.0358038
0.0395868
0.0505037
0.110882
0.0377451
0.0376515
0.0374763
0.0372272
0.0369102
0.03653
0.0360919
0.0356043
0.035082
0.0345496
0.0340447
0.0336227
0.0333659
0.0334034
0.0339596
0.0354968
0.0392306
0.0499655
0.109871
0.0369754
0.036941
0.0368214
0.0366238
0.0363547
0.0360198
0.0356254
0.035181
0.0347013
0.0342097
0.0337418
0.0333503
0.0331146
0.0331606
0.0337093
0.0352152
0.0388664
0.0493219
0.107548
0.0367132
0.0367201
0.0366377
0.0364726
0.0362314
0.0359202
0.0355461
0.0351184
0.0346515
0.0341676
0.0337001
0.0332994
0.0330424
0.0330527
0.0335483
0.0349764
0.0384987
0.0486413
0.105265
0.0369981
0.0370315
0.0369711
0.0368228
0.036593
0.0362877
0.0359137
0.0354801
0.0349998
0.0344932
0.033991
0.033541
0.0332172
0.0331412
0.0335286
0.0348217
0.0381669
0.048048
0.104232
0.0378802
0.037929
0.037879
0.0377356
0.0375047
0.0371919
0.036803
0.0363457
0.0358309
0.0352759
0.0347077
0.03417
0.0337334
0.0335168
0.033735
0.0348302
0.0379514
0.0476191
0.10417
0.0394244
0.0394805
0.039433
0.0392869
0.0390473
0.0387189
0.0383061
0.0378143
0.0372511
0.0366292
0.0359703
0.0353117
0.0347184
0.0343059
0.0342896
0.0351188
0.0379599
0.0474021
0.104501
0.0417138
0.0417723
0.0417232
0.041571
0.0413204
0.0409745
0.0405361
0.0400074
0.0393916
0.0386951
0.0379313
0.0371279
0.0363402
0.035677
0.0353552
0.0358381
0.0383228
0.0474702
0.104977
0.0448547
0.0449131
0.0448614
0.0447044
0.0444457
0.0440875
0.0436302
0.0430725
0.0424121
0.0416473
0.04078
0.0398231
0.0388148
0.0378495
0.0371414
0.0371754
0.0391977
0.0479342
0.105407
0.0489811
0.0490384
0.0489861
0.0488292
0.0485709
0.0482123
0.0477515
0.0471839
0.0465014
0.0456926
0.0447449
0.0436493
0.0424152
0.0411056
0.0399179
0.0393665
0.0407955
0.0490628
0.106924
0.054261
0.0543166
0.0542676
0.054119
0.053874
0.0535328
0.0530922
0.0525448
0.0518772
0.0510692
0.0500914
0.0489062
0.0474768
0.0458031
0.0440264
0.042695
0.0433623
0.0512393
0.111457
0.0609044
0.0609569
0.0609156
0.0607855
0.0605695
0.0602678
0.0598767
0.0593877
0.0587849
0.0580415
0.0571136
0.055932
0.0543956
0.0523874
0.0498896
0.047404
0.0470217
0.0545868
0.119059
0.0691749
0.069221
0.069191
0.0690894
0.0689189
0.06868
0.0683697
0.0679808
0.0674983
0.0668951
0.0661213
0.0650848
0.063615
0.0614119
0.058065
0.0536156
0.0516843
0.058973
0.129329
0.0794062
0.0794401
0.079423
0.0793582
0.079248
0.0790932
0.0788926
0.0786418
0.078331
0.0779406
0.0774306
0.0767148
0.0755927
0.073572
0.0694533
0.0610406
0.0567377
0.0637224
0.141002
0.0920275
0.0920393
0.0920328
0.0920097
0.0919712
0.0919178
0.0918497
0.091766
0.0916639
0.0915375
0.0913731
0.0911351
0.0907135
0.0896921
0.0861377
0.0680784
0.0606312
0.0672838
0.150338
)
;

boundaryField
{
    leftWall
    {
        type            epsilonWallFunction;
        value           nonuniform List<scalar> 
50
(
0.00422313
0.00813418
0.0133973
0.0185697
0.0237548
0.0290282
0.0344479
0.0401575
0.0499276
0.066558
0.0960307
0.169431
0.255291
0.271728
0.291677
0.305147
0.292087
0.269819
0.241604
0.211205
0.184111
0.16281
0.146501
0.134466
0.125717
0.119101
0.113512
0.108065
0.102188
0.095643
0.0884606
0.0808656
0.0732584
0.0659998
0.0591675
0.0529514
0.0477282
0.0438817
0.0416526
0.0411245
0.0422804
0.0450576
0.0493603
0.0550258
0.0617685
0.0691323
0.0764813
0.0830395
0.0879982
0.090597
)
;
        Cmu             0.09;
        kappa           0.41;
        E               9.8;
        value           nonuniform List<scalar> 
50
(
0.00422313
0.00813418
0.0133973
0.0185697
0.0237548
0.0290282
0.0344479
0.0401575
0.0499276
0.066558
0.0960307
0.169431
0.255291
0.271728
0.291677
0.305147
0.292087
0.269819
0.241604
0.211205
0.184111
0.16281
0.146501
0.134466
0.125717
0.119101
0.113512
0.108065
0.102188
0.095643
0.0884606
0.0808656
0.0732584
0.0659998
0.0591675
0.0529514
0.0477282
0.0438817
0.0416526
0.0411245
0.0422804
0.0450576
0.0493603
0.0550258
0.0617685
0.0691323
0.0764813
0.0830395
0.0879982
0.090597
)
;
    }
    rightWall
    {
        type            epsilonWallFunction;
        value           nonuniform List<scalar> 
50
(
0.0129739
0.0175848
0.0258541
0.0345214
0.0443506
0.0563785
0.071874
0.0882466
0.108232
0.133904
0.134171
0.158898
0.126508
0.101295
0.0860466
0.0835488
0.0753379
0.0656583
0.0563128
0.05224
0.0564778
0.0641505
0.0727639
0.0809168
0.087662
0.0925962
0.0952079
0.096262
0.0980416
0.10086
0.103836
0.106324
0.108264
0.109715
0.110661
0.110882
0.109871
0.107548
0.105265
0.104232
0.10417
0.104501
0.104977
0.105407
0.106924
0.111457
0.119059
0.129329
0.141002
0.150338
)
;
        Cmu             0.09;
        kappa           0.41;
        E               9.8;
        value           nonuniform List<scalar> 
50
(
0.0129739
0.0175848
0.0258541
0.0345214
0.0443506
0.0563785
0.071874
0.0882466
0.108232
0.133904
0.134171
0.158898
0.126508
0.101295
0.0860466
0.0835488
0.0753379
0.0656583
0.0563128
0.05224
0.0564778
0.0641505
0.0727639
0.0809168
0.087662
0.0925962
0.0952079
0.096262
0.0980416
0.10086
0.103836
0.106324
0.108264
0.109715
0.110661
0.110882
0.109871
0.107548
0.105265
0.104232
0.10417
0.104501
0.104977
0.105407
0.106924
0.111457
0.119059
0.129329
0.141002
0.150338
)
;
    }
    lowerWall
    {
        type            epsilonWallFunction;
        value           nonuniform List<scalar> 
62
(
0.00422313
0.0215743
0.0396356
0.0571631
0.0744795
0.091944
0.109756
0.128119
0.147208
0.167114
0.187652
0.208153
0.227401
0.243823
0.25581
0.261798
0.259901
0.247949
0.22758
0.204375
0.168844
0.108617
0.0273257
0.0273257
0.0467897
0.0760994
0.106539
0.141654
0.191962
0.28074
0.438325
0.465979
0.442917
0.468178
0.546348
0.0235548
0.0338099
0.0514709
0.0684902
0.0878456
0.113892
0.159416
0.277987
0.0235548
0.0835196
0.144192
0.185048
0.208697
0.214889
0.200383
0.165609
0.124099
0.0918615
0.0796815
0.0711856
0.0537277
0.0510237
0.0581751
0.0632677
0.0630736
0.0444547
0.0129739
)
;
        Cmu             0.09;
        kappa           0.41;
        E               9.8;
        value           nonuniform List<scalar> 
62
(
0.00422313
0.0215743
0.0396356
0.0571631
0.0744795
0.091944
0.109756
0.128119
0.147208
0.167114
0.187652
0.208153
0.227401
0.243823
0.25581
0.261798
0.259901
0.247949
0.22758
0.204375
0.168844
0.108617
0.0273257
0.0273257
0.0467897
0.0760994
0.106539
0.141654
0.191962
0.28074
0.438325
0.465979
0.442917
0.468178
0.546348
0.0235548
0.0338099
0.0514709
0.0684902
0.0878456
0.113892
0.159416
0.277987
0.0235548
0.0835196
0.144192
0.185048
0.208697
0.214889
0.200383
0.165609
0.124099
0.0918615
0.0796815
0.0711856
0.0537277
0.0510237
0.0581751
0.0632677
0.0630736
0.0444547
0.0129739
)
;
    }
    atmosphere
    {
        type            inletOutlet;
        inletValue      uniform 0.1;
        value           nonuniform List<scalar> 
46
(
0.090597
0.0536377
0.0458887
0.0424755
0.0405968
0.0395401
0.0390386
0.0389757
0.0393081
0.0400457
0.0412553
0.0430811
0.0457895
0.0498587
0.0561695
0.066461
0.1
0.1
0.1
0.1
0.1
0.1
0.1
0.1
0.1
0.1
0.1
0.1
0.1
0.1
0.1
0.1
0.1
0.1
0.1
0.1
0.1
0.1
0.1
0.1
0.1
0.1
0.0680784
0.0606312
0.0672838
0.150338
)
;
    }
    defaultFaces
    {
        type            empty;
    }
}


// ************************************************************************* //
