/*--------------------------------*- C++ -*----------------------------------*\
| =========                 |                                                 |
| \\      /  F ield         | OpenFOAM: The Open Source CFD Toolbox           |
|  \\    /   O peration     | Version:  2.3.0                                 |
|   \\  /    A nd           | Web:      www.OpenFOAM.org                      |
|    \\/     M anipulation  |                                                 |
\*---------------------------------------------------------------------------*/
FoamFile
{
    version     2.0;
    format      ascii;
    class       volScalarField;
    location    "2.5";
    object      k;
}
// * * * * * * * * * * * * * * * * * * * * * * * * * * * * * * * * * * * * * //

dimensions      [0 2 -2 0 0 0 0];

internalField   nonuniform List<scalar> 
2268
(
0.00121532
0.00295162
0.00442897
0.00565644
0.00675062
0.00776977
0.00874434
0.00969533
0.0106368
0.0115749
0.0125006
0.0133847
0.0141801
0.0148322
0.0152905
0.0155059
0.0154128
0.014937
0.0141434
0.0131991
0.0116202
0.00864052
0.00338186
0.00253465
0.00693447
0.0100574
0.0127075
0.0150885
0.0173092
0.0194357
0.0215114
0.0235631
0.0255977
0.0275891
0.0294712
0.0311448
0.0325003
0.0334403
0.0338784
0.0337075
0.0327876
0.031202
0.0289458
0.0253685
0.019247
0.00802625
0.00353956
0.00928118
0.0131811
0.0165162
0.0195431
0.0223877
0.0251285
0.0278168
0.0304823
0.033125
0.0357018
0.0381204
0.0402524
0.0419601
0.0431229
0.04364
0.0434107
0.0423437
0.0404912
0.0377209
0.0333173
0.0257909
0.011096
0.00440354
0.0111844
0.0156506
0.0194699
0.0229593
0.026259
0.0294556
0.0326053
0.0357376
0.0388443
0.0418647
0.0446832
0.0471483
0.0491058
0.0504269
0.051013
0.0507809
0.0496753
0.0477368
0.0447583
0.0399176
0.0314332
0.0138719
0.00518958
0.0129005
0.0178695
0.022102
0.025984
0.0296737
0.0332653
0.036819
0.0403632
0.0438804
0.0472904
0.050453
0.0531959
0.0553548
0.056803
0.0574553
0.0572527
0.056166
0.054222
0.0511657
0.0460193
0.0366584
0.0167655
0.00593141
0.0145309
0.0199874
0.0246086
0.0288557
0.0329093
0.0368725
0.0408088
0.0447455
0.0486543
0.0524317
0.0559095
0.0588952
0.061219
0.0627651
0.0634711
0.0633069
0.062266
0.0603431
0.0572501
0.0518341
0.04166
0.0205761
0.00665118
0.0161404
0.0220906
0.0270977
0.0317034
0.0361152
0.0404457
0.0447617
0.0490897
0.0533884
0.0575254
0.0612985
0.064494
0.0669423
0.0685466
0.0692758
0.0691315
0.0681242
0.0662128
0.0630777
0.0574531
0.0468128
0.0266743
0.00737249
0.0177844
0.0242462
0.0296482
0.0346178
0.0393943
0.0440998
0.0488033
0.053532
0.0582293
0.0627238
0.0667708
0.0701354
0.072654
0.0742585
0.0749568
0.0747841
0.0737598
0.0718152
0.068618
0.0629599
0.0526952
0.0361445
0.00307198
0.0072843
0.0104777
0.0123419
0.0133568
0.0136023
0.012975
0.0114478
0.00946075
0.00776349
0.0070901
0.00659841
0.00545896
0.0052615
0.00574051
0.00606013
0.00603397
0.00475039
0.00260639
0.00692462
0.0166879
0.0225142
0.0258977
0.0276249
0.0278004
0.0264973
0.0240102
0.0201711
0.0175169
0.0165185
0.0153497
0.0131114
0.012205
0.0127
0.0130379
0.012199
0.00939059
0.00452228
0.00916209
0.0222058
0.0289121
0.0327644
0.0346295
0.0346584
0.0330634
0.0303576
0.0265931
0.0237264
0.022333
0.0208249
0.0185795
0.017401
0.017465
0.0173644
0.0159902
0.0123095
0.00586696
0.011107
0.0268691
0.0339878
0.0379049
0.0396771
0.0395222
0.0377621
0.035027
0.0314884
0.028739
0.0271866
0.0255843
0.0234904
0.0220507
0.0215675
0.0210824
0.0193354
0.0150967
0.0071352
0.0131534
0.0314362
0.0386642
0.0423851
0.0439343
0.0435966
0.0417555
0.039091
0.0358422
0.0333322
0.0317649
0.0302139
0.0282958
0.0266237
0.0255856
0.0246438
0.0225695
0.0179562
0.00845338
0.0156789
0.0363178
0.0432477
0.0465507
0.047797
0.0473051
0.0454606
0.0429439
0.0400549
0.0378449
0.0363445
0.034892
0.0331177
0.031234
0.0296542
0.0281712
0.0257376
0.0208507
0.00994163
0.0197808
0.0417505
0.0478502
0.0505351
0.0514376
0.0508401
0.0490771
0.0467865
0.0443328
0.0424502
0.0410387
0.0396596
0.0379521
0.035857
0.0337673
0.0317071
0.028852
0.0236274
0.0116911
0.0290516
0.0478764
0.0524663
0.0543956
0.0549429
0.0542981
0.0527144
0.050744
0.0487899
0.0472174
0.0458671
0.0444874
0.0427405
0.0404222
0.0378688
0.0352388
0.031937
0.0263315
0.0133974
0.0085381
0.0204942
0.0277965
0.0338382
0.039396
0.0447663
0.0500821
0.0554133
0.060793
0.0661369
0.0711886
0.0756175
0.0791588
0.081673
0.083153
0.0836834
0.0833535
0.0821795
0.0800043
0.0764769
0.0707385
0.0615559
0.0487272
0.0103807
0.0249124
0.0335092
0.0404859
0.0469102
0.0531841
0.0594131
0.0656475
0.0719764
0.0782751
0.0840406
0.0887453
0.0921355
0.0941843
0.095031
0.0949288
0.0940748
0.0925076
0.0901338
0.0867476
0.0823364
0.0770247
0.0720507
0.0133202
0.0309493
0.0408974
0.0487847
0.0561518
0.0635376
0.0708432
0.0780168
0.0854166
0.0929436
0.0994203
0.103983
0.106636
0.107629
0.107285
0.106136
0.104527
0.102419
0.099802
0.09673
0.0932892
0.0894703
0.085775
0.0194308
0.0398169
0.0508016
0.0593129
0.0676347
0.0765072
0.0850644
0.092936
0.101504
0.111002
0.118164
0.121739
0.122873
0.122313
0.120407
0.117827
0.115442
0.112768
0.109861
0.107066
0.104316
0.100883
0.0967272
0.02591
0.0504466
0.0617164
0.069855
0.0782563
0.087943
0.0970847
0.104989
0.113947
0.124076
0.130155
0.132632
0.13412
0.134736
0.132939
0.12973
0.126515
0.123603
0.120206
0.117515
0.115312
0.111416
0.106278
0.0274657
0.0612367
0.0717123
0.0777483
0.0847761
0.0932336
0.101863
0.109662
0.117468
0.124008
0.128533
0.131581
0.134248
0.136423
0.136966
0.13637
0.135978
0.133652
0.128636
0.124787
0.122037
0.11779
0.112943
0.0288178
0.0644201
0.0781053
0.0848349
0.091026
0.0978614
0.105314
0.111762
0.117314
0.122196
0.126329
0.129799
0.132684
0.134821
0.135997
0.136823
0.138499
0.138232
0.133749
0.128766
0.12469
0.120823
0.115461
0.0296074
0.0615461
0.0782362
0.0895962
0.0967004
0.101227
0.105767
0.110938
0.116653
0.121388
0.125051
0.129169
0.132469
0.134126
0.134854
0.135489
0.136641
0.136866
0.135275
0.132738
0.128417
0.123731
0.11734
0.028695
0.0580237
0.0751273
0.0884019
0.0970892
0.101169
0.104374
0.109096
0.1146
0.119317
0.123235
0.127619
0.131457
0.133621
0.134401
0.134193
0.134522
0.134823
0.134592
0.133647
0.131435
0.12645
0.118384
0.0271752
0.0542713
0.0703907
0.0830621
0.0921977
0.0974332
0.101214
0.105767
0.110831
0.115549
0.119851
0.12407
0.127679
0.129942
0.131084
0.131087
0.131536
0.132512
0.13311
0.132295
0.129555
0.124095
0.116306
0.0252102
0.050135
0.0648724
0.0763967
0.0852977
0.0914591
0.0963874
0.101449
0.106508
0.111198
0.115592
0.119685
0.122958
0.12475
0.125408
0.125658
0.126342
0.127507
0.128121
0.126586
0.122535
0.117257
0.111818
0.0230017
0.0459163
0.0593622
0.0697936
0.0782123
0.0847249
0.0902653
0.0958352
0.101272
0.106252
0.110772
0.114809
0.117942
0.119478
0.119695
0.119667
0.119961
0.120556
0.120635
0.118994
0.115605
0.111646
0.107639
0.0209386
0.0419301
0.0543488
0.0639005
0.0717969
0.0782786
0.0838904
0.0893631
0.0948111
0.0999709
0.10472
0.1089
0.112066
0.113582
0.113688
0.113496
0.113575
0.113834
0.113648
0.112204
0.109673
0.106774
0.103752
0.0192082
0.0385017
0.0500925
0.0589327
0.0663139
0.072567
0.0780337
0.083175
0.0882096
0.0930737
0.0976484
0.101713
0.104852
0.106608
0.107127
0.107241
0.107477
0.107708
0.107422
0.106211
0.104347
0.102237
0.0999573
0.0178031
0.0357357
0.0466283
0.0548767
0.0617787
0.067718
0.0729439
0.077743
0.0823161
0.0866973
0.0908143
0.0944966
0.0974613
0.0994394
0.100493
0.10109
0.101588
0.101866
0.101614
0.100722
0.0994007
0.0978845
0.0961831
0.0167126
0.0336057
0.0438907
0.0516283
0.0580906
0.0636882
0.0686329
0.073115
0.0772874
0.081213
0.0848663
0.0881461
0.0908898
0.0929502
0.0943392
0.095267
0.0959385
0.0962815
0.0961738
0.0956092
0.0947249
0.0936553
0.0924071
0.0158911
0.0319944
0.0417408
0.0490256
0.0550855
0.0603424
0.0649947
0.0691844
0.0730244
0.076577
0.0798465
0.0827848
0.085308
0.0873358
0.0888557
0.0899462
0.0907098
0.0911285
0.0911757
0.0908775
0.0903193
0.0895774
0.0886569
0.0152622
0.0307399
0.0400025
0.0468793
0.0525716
0.0575039
0.0618705
0.0657904
0.06935
0.0726039
0.0755701
0.0782327
0.0805515
0.0824826
0.084007
0.0851481
0.0859575
0.0864459
0.0866222
0.0865198
0.086193
0.0856857
0.085001
0.0147383
0.0296768
0.0384994
0.0450053
0.0503635
0.0549962
0.0590956
0.062769
0.066087
0.0690965
0.0718203
0.0742589
0.076396
0.0782079
0.0796792
0.0808149
0.0816422
0.0821879
0.0824642
0.0825028
0.0823401
0.0820034
0.0814962
0.0142405
0.0286647
0.0370827
0.043251
0.0483088
0.0526725
0.0565307
0.0599832
0.0630915
0.0658964
0.0684221
0.0706773
0.0726583
0.0743546
0.075757
0.0768675
0.0777026
0.0782913
0.0786447
0.0787886
0.0787487
0.0785441
0.07818
0.0137116
0.0276061
0.0356474
0.0415094
0.0463017
0.0504308
0.0540782
0.0573373
0.0602642
0.0628965
0.0652588
0.0673643
0.0692168
0.0708141
0.0721537
0.0732383
0.0740809
0.0747044
0.0751212
0.0753504
0.0754107
0.0753172
0.0750763
0.0131212
0.0264535
0.0341392
0.0397256
0.0442885
0.0482185
0.051686
0.0547786
0.0575503
0.0600377
0.0622662
0.064252
0.0660037
0.0675246
0.0688167
0.0698846
0.0707388
0.0713968
0.0718715
0.0721764
0.0723256
0.0723317
0.0722019
0.0124627
0.0252008
0.0325504
0.0378933
0.0422627
0.0460262
0.049341
0.0522914
0.0549314
0.057299
0.0594207
0.0613148
0.0629926
0.064461
0.0657246
0.066789
0.0676629
0.0683594
0.0688913
0.0692679
0.0695003
0.0695991
0.0695715
0.0117478
0.0238632
0.0309083
0.0360454
0.040253
0.0438748
0.0470576
0.0498859
0.0524161
0.0546875
0.0567281
0.058557
0.0601869
0.061626
0.0628802
0.0639553
0.0648584
0.0655991
0.0661896
0.0666363
0.0669482
0.0671342
0.067201
0.0110079
0.0225086
0.0292624
0.0342264
0.0382982
0.0417956
0.0448628
0.0475882
0.0500307
0.0522307
0.0542158
0.056005
0.057611
0.0590421
0.0603044
0.0614031
0.0623441
0.0631348
0.0637849
0.0643002
0.0646879
0.0649552
0.0651084
0.0102786
0.0211964
0.027656
0.0324669
0.036424
0.039815
0.0427876
0.0454346
0.0478159
0.049971
0.0519265
0.0537001
0.0553038
0.0567452
0.0580299
0.0591625
0.0601478
0.0609916
0.0617014
0.0622828
0.0627412
0.0630829
0.0633136
0.00956838
0.0199104
0.0261185
0.0307938
0.0346542
0.0379648
0.040874
0.0434746
0.0458251
0.0479632
0.0499137
0.051693
0.053312
0.0547777
0.0560952
0.0572683
0.0583012
0.0591983
0.0599659
0.0606087
0.0611314
0.0615391
0.0618373
0.00889642
0.0186994
0.024701
0.0292583
0.0330427
0.0363055
0.0391872
0.041775
0.0441241
0.0462699
0.0482357
0.0500368
0.0516835
0.0531824
0.0545381
0.0557544
0.0568345
0.0577825
0.0586035
0.0593015
0.0598804
0.0603448
0.0606999
0.00830689
0.0176765
0.0234948
0.0279536
0.0316865
0.0349308
0.037814
0.0404147
0.0427835
0.0449537
0.0469475
0.0487797
0.0504601
0.0519955
0.0533906
0.0546487
0.0557732
0.0567674
0.0576357
0.0583814
0.0590077
0.0595189
0.0599201
0.00785332
0.0169264
0.0226055
0.0269934
0.0306973
0.0339416
0.0368415
0.0394673
0.0418651
0.0440662
0.0460918
0.0479567
0.0496711
0.0512419
0.0526738
0.0539704
0.0551346
0.0561694
0.0570787
0.0578644
0.0585295
0.0590781
0.0595153
0.00757787
0.0165164
0.0221174
0.0264671
0.0301605
0.0334133
0.0363329
0.0389837
0.0414086
0.0436373
0.045691
0.0475848
0.0493292
0.0509315
0.0523966
0.0537279
0.0549279
0.0559991
0.0569439
0.0577633
0.0584599
0.0590377
0.059502
0.00750209
0.0164843
0.0220756
0.0264204
0.030117
0.0333799
0.036314
0.0389813
0.0414237
0.0436707
0.0457441
0.0476598
0.0494291
0.0510594
0.0525557
0.0539207
0.0551557
0.0562621
0.05724
0.0580896
0.0588129
0.0594137
0.0598978
0.00762786
0.0168368
0.0224858
0.026855
0.0305639
0.0338337
0.0367721
0.0394429
0.0418892
0.0441426
0.0462262
0.0481575
0.0499486
0.0516074
0.0531379
0.0545412
0.0558166
0.0569628
0.0579766
0.0588568
0.0596051
0.0602253
0.060724
0.00794275
0.0175537
0.0233199
0.0277362
0.0314611
0.0347306
0.0376605
0.0403199
0.0427563
0.0450045
0.0470909
0.049035
0.0508505
0.0525453
0.0541221
0.0555785
0.0569097
0.0581087
0.0591681
0.0600847
0.0608597
0.0614981
0.0620079
0.00842395
0.0185912
0.0245217
0.0289993
0.0327383
0.0359972
0.0389044
0.0415379
0.0439518
0.0461862
0.0482719
0.0502324
0.0520835
0.0538334
0.0554821
0.0570216
0.0584387
0.0597157
0.0608395
0.0618039
0.0626107
0.0632674
0.0637858
0.00903877
0.0198827
0.0260097
0.0305539
0.0343
0.0375356
0.0404059
0.0430006
0.0453823
0.0475983
0.0496861
0.0516745
0.0535835
0.0554229
0.0571889
0.0588636
0.0604178
0.0618157
0.0630333
0.0640621
0.0649069
0.0655819
0.0661053
0.00974342
0.0213397
0.0276791
0.032287
0.0360295
0.0392286
0.0420495
0.0445953
0.0469389
0.0491368
0.0512351
0.0532714
0.0552737
0.0572563
0.0592125
0.0611082
0.062884
0.0644683
0.06582
0.0669309
0.0678171
0.0685059
0.0690271
0.0104828
0.0228536
0.029405
0.0340678
0.0377948
0.040946
0.0437083
0.0461991
0.0485029
0.0506868
0.0528086
0.0549194
0.0570621
0.0592638
0.0615201
0.0637761
0.065912
0.0677793
0.0693111
0.0705145
0.0714336
0.0721213
0.0726256
0.0111928
0.0242992
0.0310484
0.0357545
0.0394561
0.0425524
0.0452519
0.0476865
0.0499524
0.0521286
0.0542877
0.0565008
0.0588366
0.0613522
0.0640658
0.0669059
0.0696465
0.0719312
0.0736773
0.0749552
0.0758732
0.0765268
0.0769883
0.0118048
0.025543
0.0324654
0.0372032
0.0408748
0.0439158
0.046555
0.0489375
0.0511703
0.0533446
0.0555501
0.0578836
0.060455
0.0633814
0.0667556
0.070547
0.0743767
0.0772374
0.0791657
0.0804333
0.0812714
0.0818332
0.0822136
0.0122542
0.0264571
0.0335189
0.0382786
0.0419219
0.0449157
0.0475052
0.0498457
0.0520528
0.0542282
0.0564775
0.058926
0.0617352
0.0651199
0.0693498
0.0746611
0.0807514
0.084228
0.0860977
0.0871436
0.0877652
0.0881548
0.0884079
0.012483
0.0269475
0.0340923
0.038862
0.0424861
0.0454507
0.0480105
0.0503263
0.0525185
0.0546948
0.0569711
0.0594926
0.0624639
0.0662015
0.0712441
0.0786147
0.0905242
0.0937057
0.0947763
0.0952305
0.0954641
0.0956005
0.0956861
0.0382175
0.0369864
0.0383591
0.0425069
0.0695356
0.0686198
0.0683196
0.0684302
0.0835879
0.0824755
0.0815734
0.080768
0.0941014
0.0927187
0.0914654
0.0902331
0.102915
0.100951
0.0990495
0.0972638
0.108615
0.10593
0.103542
0.101392
0.11091
0.108206
0.105677
0.103264
0.112187
0.109252
0.106634
0.104046
0.112555
0.109436
0.106467
0.103524
0.111118
0.107952
0.104832
0.102078
0.107824
0.105189
0.10261
0.100197
0.104515
0.10244
0.100333
0.0982677
0.101306
0.0996592
0.0979502
0.0962234
0.0980444
0.096743
0.095373
0.0939578
0.0947049
0.0936821
0.0925856
0.0914332
0.0912836
0.0904828
0.0896048
0.0886696
0.0877999
0.0871739
0.0864784
0.0857291
0.0843377
0.0838462
0.0832978
0.0827021
0.0809822
0.0805969
0.0801655
0.0796933
0.0777886
0.0774905
0.0771536
0.0767814
0.0747899
0.0745659
0.0743082
0.0740188
0.0720082
0.071849
0.0716595
0.0714407
0.0694611
0.0693596
0.0692301
0.0690729
0.0671658
0.067116
0.0670396
0.0669366
0.0651406
0.0651368
0.0651073
0.0650518
0.0634052
0.0634416
0.063453
0.0634386
0.0619798
0.0620506
0.0620966
0.0621171
0.0608847
0.0609838
0.0610583
0.0611073
0.0601386
0.0602601
0.060357
0.0604284
0.0597595
0.0598979
0.0600115
0.0600994
0.0597648
0.059915
0.0600403
0.0601397
0.0601734
0.0603313
0.0604639
0.0605704
0.0610076
0.0611699
0.0613064
0.0614165
0.062296
0.06246
0.0625979
0.0627089
0.0640754
0.064239
0.0643759
0.0644858
0.066393
0.0665539
0.0666876
0.0667943
0.0693076
0.0694626
0.0695904
0.0696916
0.0728902
0.0730346
0.0731524
0.0732451
0.0772239
0.0773506
0.0774532
0.0775333
0.0824025
0.0825028
0.0825834
0.0826461
0.0885308
0.0885954
0.0886471
0.0886873
0.0957271
0.0957485
0.0957657
0.0957791
0.0517379
0.0575039
0.0593091
0.0600261
0.0600704
0.0594751
0.0584617
0.0572493
0.0561195
0.0549376
0.0535712
0.0520261
0.050047
0.0473612
0.044163
0.0406982
0.0366648
0.0302543
0.0153514
0.0686804
0.0684741
0.0678736
0.0673311
0.0669179
0.0666002
0.066583
0.0668021
0.0666381
0.0656314
0.0639692
0.0618569
0.0591658
0.0557954
0.0518259
0.0475158
0.0427807
0.0352998
0.0177033
0.0795604
0.0776693
0.075868
0.0745193
0.0738028
0.0737879
0.0746662
0.076173
0.0768272
0.0758671
0.0736817
0.0708675
0.0674459
0.0633422
0.0585734
0.053499
0.0481756
0.0391331
0.0177937
0.0883632
0.085738
0.0833947
0.0816448
0.0807342
0.0808792
0.0823176
0.084564
0.0858094
0.0850498
0.0825631
0.0792087
0.0751304
0.070178
0.0645717
0.0586079
0.0523853
0.0417219
0.0199599
0.0947715
0.0920122
0.0898966
0.0883535
0.087476
0.087492
0.088867
0.0914503
0.0931164
0.0922502
0.0893775
0.0852188
0.0797773
0.0752772
0.0701057
0.0623799
0.0527127
0.0402048
0.0172566
0.0983905
0.0955427
0.0939422
0.0930077
0.092337
0.0919304
0.0920362
0.0926814
0.0925585
0.0906417
0.087683
0.0840468
0.0800708
0.0771439
0.0718623
0.0617831
0.0499885
0.0365737
0.0149349
0.0999023
0.0969738
0.0955019
0.0947822
0.0942543
0.0936406
0.0927999
0.0916372
0.0898484
0.0877382
0.0860275
0.0831818
0.0783819
0.0740445
0.0678809
0.0578401
0.0465649
0.0340125
0.013413
0.100256
0.0970842
0.0954139
0.0945456
0.0940588
0.0935655
0.0926113
0.0906825
0.0876416
0.0845694
0.081972
0.0783229
0.0730865
0.0680249
0.061895
0.0534982
0.0438638
0.0319917
0.0131438
0.0996729
0.0961272
0.0938033
0.0923426
0.0913583
0.0903767
0.08893
0.0864759
0.0828491
0.0789859
0.0753729
0.0713627
0.0665563
0.0618565
0.0567074
0.0498465
0.0412185
0.0297927
0.0122095
0.098359
0.0945236
0.0915781
0.0892765
0.0873539
0.0854896
0.0833664
0.0805814
0.0770118
0.0731622
0.0693306
0.0652464
0.060856
0.0566262
0.0519314
0.0455763
0.0372437
0.0263959
0.0110495
0.0967229
0.0928047
0.0895954
0.0868335
0.0843019
0.0818133
0.079181
0.0761938
0.0727748
0.0691206
0.0652821
0.0611126
0.056697
0.0522139
0.0471293
0.0406649
0.0326608
0.0229213
0.00988037
0.0951293
0.0913486
0.088119
0.0852112
0.0824405
0.0796682
0.0767883
0.0737222
0.0704087
0.0668768
0.0630527
0.0587277
0.0539545
0.0488708
0.0432561
0.0367265
0.0292823
0.0207176
0.00929736
0.0934871
0.0900074
0.0869202
0.0840695
0.0813063
0.0784962
0.0755584
0.0724729
0.0691961
0.0656797
0.0618219
0.0573923
0.0523963
0.0470046
0.041249
0.0349676
0.0281127
0.0203743
0.00978441
0.0916364
0.0885463
0.085695
0.0829981
0.0803481
0.0776224
0.0747336
0.0716568
0.068382
0.0648624
0.0610002
0.0566185
0.0516995
0.046416
0.0409086
0.0350732
0.0287086
0.0212435
0.0106789
0.0894914
0.086818
0.0842595
0.0817677
0.0792664
0.0766637
0.0738677
0.0708351
0.0675818
0.0641022
0.0603104
0.0560858
0.0514239
0.0464768
0.0413721
0.0360132
0.0300856
0.0228176
0.0116416
0.0870602
0.0847882
0.0825459
0.0802917
0.0779685
0.0755067
0.0728217
0.0698711
0.0666819
0.0632737
0.0595946
0.0555714
0.0512201
0.046655
0.0419596
0.0370411
0.0315606
0.0246243
0.0125137
0.0844168
0.0825065
0.0805718
0.0785706
0.0764508
0.0741521
0.0716012
0.0687678
0.0656849
0.0623806
0.0588355
0.0550207
0.0509627
0.0467413
0.0424032
0.0378592
0.0327755
0.0261728
0.0132043
0.0816439
0.0800636
0.0784083
0.0766525
0.0747488
0.0726351
0.0702471
0.0675673
0.0646302
0.0614663
0.0580794
0.0544702
0.0506704
0.0467345
0.0426818
0.0384173
0.0336049
0.0271661
0.0136831
0.0788445
0.0775436
0.0761414
0.0746165
0.0729205
0.0710023
0.0688021
0.0663095
0.0635534
0.0605644
0.0573606
0.0539597
0.0503936
0.0466981
0.0428692
0.0387953
0.0341161
0.0276641
0.0139229
0.0761039
0.0750372
0.073853
0.0725343
0.0710406
0.0693168
0.0673165
0.0650322
0.0624821
0.0596955
0.0566969
0.0535111
0.0501671
0.0466856
0.0430424
0.039105
0.0344846
0.0279776
0.0140468
0.0734836
0.0726139
0.0716178
0.0704805
0.0691685
0.0676361
0.0658426
0.0637728
0.0614399
0.058872
0.0560926
0.0531271
0.0499991
0.0467168
0.0432392
0.0394161
0.0348418
0.0283151
0.0142383
0.0710264
0.0703244
0.0694915
0.0685149
0.0673666
0.0660101
0.0644114
0.0625547
0.060445
0.0581008
0.0555441
0.0527975
0.0498781
0.0467829
0.0434577
0.0397402
0.0352203
0.0287064
0.0145256
0.0687633
0.0682059
0.0675155
0.0666812
0.0656805
0.064484
0.063064
0.0614047
0.0595057
0.0573784
0.0550396
0.0525061
0.0497871
0.0468687
0.0436856
0.0400664
0.0355981
0.0290903
0.0148198
0.0667187
0.0662868
0.0657209
0.0650122
0.064143
0.0630898
0.06183
0.0603486
0.0586417
0.0567148
0.0545787
0.0522431
0.0497086
0.0469513
0.0438962
0.0403651
0.035943
0.0294356
0.0150628
0.0649141
0.064591
0.0641332
0.063534
0.0627797
0.061852
0.0607323
0.0594066
0.057869
0.0561202
0.0541648
0.0520054
0.0496341
0.047018
0.0440741
0.0406186
0.0362335
0.0297184
0.0152526
0.0633702
0.0631401
0.0627745
0.0622688
0.0616126
0.0607917
0.0597908
0.0585974
0.0572039
0.0556072
0.0538064
0.0517973
0.0495645
0.0470671
0.0442153
0.04082
0.0364595
0.029926
0.0153955
0.0621071
0.0619548
0.061666
0.0612376
0.0606624
0.0599292
0.0590256
0.0579403
0.0566644
0.0551921
0.0535175
0.0516306
0.0495093
0.0471063
0.0443255
0.0409734
0.0366225
0.0300559
0.0154894
0.0611449
0.0610555
0.0608282
0.0604615
0.0599503
0.059286
0.0584584
0.057457
0.0562724
0.0548961
0.0533183
0.0515242
0.0494861
0.0471514
0.0444194
0.0410921
0.0367351
0.0301177
0.0155109
0.0605033
0.0604625
0.0602823
0.0599623
0.0594989
0.0588856
0.0581136
0.0571732
0.0560542
0.054746
0.0532356
0.0515041
0.0495197
0.0472257
0.0445181
0.0411954
0.0368159
0.0301255
0.015411
0.0602018
0.0601966
0.0600503
0.0597632
0.059333
0.0587544
0.0580196
0.0571191
0.0560418
0.0547753
0.0533036
0.0516045
0.0496428
0.047359
0.0446473
0.0413038
0.0368804
0.0300953
0.0151919
0.0602609
0.0602797
0.0601559
0.0598901
0.0594807
0.0589231
0.0582099
0.0573311
0.0562746
0.0550258
0.0535659
0.0518693
0.0498981
0.0475907
0.0448402
0.0414421
0.0369459
0.0300554
0.0149898
0.0607032
0.0607366
0.060626
0.0603723
0.0599742
0.0594273
0.0587237
0.0578527
0.0568003
0.0555492
0.0540774
0.0523557
0.0503428
0.0479751
0.0451457
0.0416519
0.0370479
0.0300472
0.0149087
0.0615552
0.0615959
0.0614918
0.0612441
0.0608514
0.0603087
0.0596076
0.0587357
0.0576766
0.0564093
0.0549074
0.053137
0.0510524
0.0485875
0.0456356
0.0419994
0.0372455
0.030114
0.0149174
0.0628489
0.0628919
0.0627904
0.0625458
0.0621562
0.0616164
0.0609164
0.0600417
0.0589725
0.0576831
0.0561413
0.054306
0.0521252
0.049528
0.046408
0.0425755
0.0376151
0.0302955
0.0149643
0.0646238
0.0646659
0.0645657
0.0643245
0.0639404
0.0634071
0.0627133
0.0618418
0.0607686
0.0594622
0.0578821
0.0559774
0.0536849
0.0509249
0.0475883
0.0434946
0.038249
0.0306403
0.0150254
0.0669276
0.0669673
0.0668693
0.0666351
0.0662629
0.0657454
0.0650699
0.0642164
0.0631565
0.0618517
0.0602508
0.0582885
0.0558835
0.0529382
0.0493332
0.0448959
0.0392589
0.0312223
0.0150859
0.0698172
0.0698539
0.0697609
0.0695403
0.0691901
0.0687029
0.0680646
0.0672531
0.0662361
0.0649673
0.0633835
0.0613991
0.0589043
0.0557662
0.0518367
0.0469469
0.0407799
0.0321542
0.0152599
0.0733595
0.0733929
0.0733089
0.0731103
0.0727954
0.0723567
0.0717802
0.071043
0.0701098
0.0689288
0.0674239
0.0654853
0.0629603
0.0596513
0.055339
0.0498403
0.0429512
0.0335515
0.0157217
0.0776318
0.077661
0.0775906
0.0774234
0.0771583
0.0767887
0.0763018
0.0756759
0.0748765
0.0738496
0.0725108
0.0707264
0.0682883
0.0648887
0.0601382
0.0537397
0.0458322
0.0354384
0.016456
0.082723
0.0827468
0.0826938
0.082567
0.0823657
0.0820852
0.0817152
0.0812379
0.0806241
0.0798252
0.0787588
0.0772808
0.0751308
0.0718417
0.0666488
0.0587315
0.049348
0.037729
0.0174088
0.0887367
0.0887527
0.08872
0.0886408
0.088515
0.0883399
0.0881092
0.0878118
0.0874281
0.0869244
0.0862388
0.0852494
0.0836942
0.0809649
0.0756022
0.0646163
0.0530778
0.0400825
0.0184497
0.0957955
0.0958004
0.0957887
0.0957613
0.0957185
0.0956595
0.0955824
0.0954838
0.0953574
0.0951917
0.0949645
0.0946263
0.094043
0.0927576
0.0887824
0.0701953
0.0559414
0.0417796
0.0192548
)
;

boundaryField
{
    leftWall
    {
        type            kqRWallFunction;
        value           nonuniform List<scalar> 
50
(
0.00121532
0.00253465
0.00353956
0.00440354
0.00518958
0.00593141
0.00665118
0.00737249
0.0085381
0.0103807
0.0133202
0.0194308
0.02591
0.0274657
0.0288178
0.0296074
0.028695
0.0271752
0.0252102
0.0230017
0.0209386
0.0192082
0.0178031
0.0167126
0.0158911
0.0152622
0.0147383
0.0142405
0.0137116
0.0131212
0.0124627
0.0117478
0.0110079
0.0102786
0.00956838
0.00889642
0.00830689
0.00785332
0.00757787
0.00750209
0.00762786
0.00794275
0.00842395
0.00903877
0.00974342
0.0104828
0.0111928
0.0118048
0.0122542
0.012483
)
;
    }
    rightWall
    {
        type            kqRWallFunction;
        value           nonuniform List<scalar> 
50
(
0.00260639
0.00452228
0.00586696
0.0071352
0.00845338
0.00994163
0.0116911
0.0133974
0.0153514
0.0177033
0.0177937
0.0199599
0.0172566
0.0149349
0.013413
0.0131438
0.0122095
0.0110495
0.00988037
0.00929736
0.00978441
0.0106789
0.0116416
0.0125137
0.0132043
0.0136831
0.0139229
0.0140468
0.0142383
0.0145256
0.0148198
0.0150628
0.0152526
0.0153955
0.0154894
0.0155109
0.015411
0.0151919
0.0149898
0.0149087
0.0149174
0.0149643
0.0150254
0.0150859
0.0152599
0.0157217
0.016456
0.0174088
0.0184497
0.0192548
)
;
    }
    lowerWall
    {
        type            kqRWallFunction;
        value           nonuniform List<scalar> 
62
(
0.00121532
0.00295162
0.00442897
0.00565644
0.00675062
0.00776977
0.00874434
0.00969533
0.0106368
0.0115749
0.0125006
0.0133847
0.0141801
0.0148322
0.0152905
0.0155059
0.0154128
0.014937
0.0141434
0.0131991
0.0116202
0.00864052
0.00338186
0.00338186
0.00802625
0.011096
0.0138719
0.0167655
0.0205761
0.0266743
0.0361445
0.0382175
0.0369864
0.0383591
0.0425069
0.00307198
0.00692462
0.00916209
0.011107
0.0131534
0.0156789
0.0197808
0.0290516
0.00307198
0.0072843
0.0104777
0.0123419
0.0133568
0.0136023
0.012975
0.0114478
0.00946075
0.00776349
0.0070901
0.00659841
0.00545896
0.0052615
0.00574051
0.00606013
0.00603397
0.00475039
0.00260639
)
;
    }
    atmosphere
    {
        type            inletOutlet;
        inletValue      uniform 0.1;
        value           nonuniform List<scalar> 
46
(
0.012483
0.0269475
0.0340923
0.038862
0.0424861
0.0454507
0.0480105
0.0503263
0.0525185
0.0546948
0.0569711
0.0594926
0.0624639
0.0662015
0.0712441
0.0786147
0.1
0.1
0.1
0.1
0.1
0.1
0.1
0.1
0.1
0.1
0.1
0.1
0.1
0.1
0.1
0.1
0.1
0.1
0.1
0.1
0.1
0.1
0.1
0.1
0.1
0.1
0.0701953
0.0559414
0.0417796
0.0192548
)
;
    }
    defaultFaces
    {
        type            empty;
    }
}


// ************************************************************************* //
