/*--------------------------------*- C++ -*----------------------------------*\
| =========                 |                                                 |
| \\      /  F ield         | OpenFOAM: The Open Source CFD Toolbox           |
|  \\    /   O peration     | Version:  2.3.0                                 |
|   \\  /    A nd           | Web:      www.OpenFOAM.org                      |
|    \\/     M anipulation  |                                                 |
\*---------------------------------------------------------------------------*/
FoamFile
{
    version     2.0;
    format      ascii;
    class       volScalarField;
    location    "2.5";
    object      nut;
}
// * * * * * * * * * * * * * * * * * * * * * * * * * * * * * * * * * * * * * //

dimensions      [0 2 -1 0 0 0 0];

internalField   nonuniform List<scalar> 
2268
(
3.14768e-05
3.63435e-05
4.45412e-05
5.03748e-05
5.50672e-05
5.90928e-05
6.27001e-05
6.6032e-05
6.91729e-05
7.21545e-05
7.49461e-05
7.74597e-05
7.95802e-05
8.12041e-05
8.22561e-05
8.26557e-05
8.22613e-05
8.09854e-05
7.91075e-05
7.67187e-05
7.19755e-05
6.1862e-05
3.76689e-05
7.10827e-05
0.000302264
0.000414405
0.000488514
0.00054438
0.000589324
0.000627431
0.000660935
0.000691155
0.000718665
0.000743249
0.000764133
0.000780543
0.000792252
0.000799694
0.000803165
0.00080065
0.000785207
0.000759122
0.000715673
0.000632852
0.000470897
0.000123913
8.41633e-05
0.000518702
0.000772184
0.00094316
0.00107231
0.00117585
0.00126245
0.00133709
0.0014027
0.00146053
0.00151023
0.00155043
0.00157973
0.00159759
0.00160416
0.00159869
0.00157644
0.0015269
0.00144536
0.00131467
0.00109772
0.000738767
0.000145612
9.39815e-05
0.000674788
0.00106005
0.00132685
0.00152982
0.00169257
0.00182772
0.00194265
0.00204172
0.00212682
0.00219773
0.00225285
0.00229049
0.00230955
0.00230913
0.00228653
0.00223406
0.00213776
0.00198478
0.00175137
0.00140032
0.000889917
0.000162556
0.000102037
0.000794831
0.00129801
0.00165438
0.00192703
0.00214542
0.00232554
0.0024769
0.00260514
0.00271288
0.00280026
0.00286591
0.00290803
0.00292487
0.00291405
0.00287048
0.00278348
0.00263552
0.00240732
0.00207296
0.0016004
0.00096942
0.000178585
0.000109078
0.00089325
0.00150198
0.00194084
0.00227774
0.00254676
0.00276693
0.00294975
0.00310216
0.00322767
0.00332709
0.00339955
0.0034433
0.00345586
0.00343317
0.0033677
0.00324597
0.00304775
0.00274921
0.00232458
0.00174364
0.00100338
0.000198497
0.000115578
0.000979199
0.00168325
0.00219774
0.00259306
0.00290712
0.00316186
0.00337081
0.00354235
0.00368109
0.00378876
0.00386518
0.00390873
0.00391612
0.00388159
0.00379539
0.00364195
0.0033996
0.00304306
0.0025471
0.00187622
0.00103016
0.000228098
0.000121816
0.0010589
0.00185011
0.00243375
0.00288157
0.00323487
0.00351852
0.00374831
0.00393427
0.00408232
0.00419529
0.00427376
0.00431618
0.00431842
0.00427318
0.004169
0.00398929
0.00371281
0.00331671
0.00277969
0.00205958
0.00112778
0.000268245
3.60579e-05
5.71781e-05
6.85222e-05
7.40841e-05
7.69362e-05
7.74915e-05
7.56134e-05
7.12207e-05
6.49121e-05
5.90504e-05
5.67792e-05
5.50464e-05
4.99188e-05
4.88304e-05
5.09808e-05
5.22425e-05
5.19519e-05
4.56861e-05
4.71248e-05
0.000127641
0.000471154
0.000613595
0.000679732
0.000707293
0.000702205
0.000667598
0.000608481
0.00049451
0.000467815
0.000521487
0.00053099
0.000446662
0.000398049
0.000422502
0.000461535
0.00043077
0.000313536
0.000104669
0.000146781
0.000798893
0.00111982
0.00127993
0.00135139
0.00135222
0.0012896
0.00117998
0.00100934
0.000958195
0.0010337
0.00105239
0.000939604
0.000857267
0.000867369
0.000883628
0.000782292
0.000513148
0.000119823
0.000162108
0.0010381
0.00151584
0.00176418
0.00188116
0.00189773
0.00182576
0.00169222
0.00151088
0.00144988
0.00151794
0.00153239
0.00142018
0.00131641
0.00128383
0.00124802
0.00107251
0.000682034
0.000132729
0.000177255
0.00123593
0.00184744
0.00216981
0.00232722
0.00236364
0.00229544
0.00215887
0.00199151
0.00193093
0.00197886
0.00197938
0.00187011
0.00174905
0.00166869
0.00157352
0.00133321
0.000848954
0.000145012
0.000194259
0.00142575
0.00214863
0.00252818
0.00271801
0.00277478
0.00271832
0.0025921
0.00244989
0.00239367
0.00241728
0.00239807
0.00228656
0.0021482
0.00202304
0.00186964
0.00157202
0.0010117
0.000157777
0.0002209
0.0016303
0.00244408
0.00286035
0.00307291
0.0031483
0.00310788
0.00299941
0.0028848
0.00283288
0.00283171
0.0027904
0.00267126
0.00251464
0.00234973
0.0021432
0.00178995
0.00114911
0.000171151
0.000273249
0.00188849
0.00275396
0.00318139
0.00340511
0.00349523
0.00347239
0.00338504
0.0032956
0.00324571
0.00322121
0.00315761
0.00302653
0.00285114
0.00265121
0.00239724
0.00199125
0.00127119
0.000183058
0.000131409
0.00118079
0.00209807
0.00278042
0.00330115
0.00370667
0.00402686
0.0042815
0.00448352
0.00464121
0.0047592
0.00483913
0.00487938
0.00487461
0.00481559
0.00468928
0.00447948
0.00416886
0.00374222
0.0031947
0.00251052
0.00167356
0.000799887
0.000145711
0.00135321
0.00242579
0.00321966
0.0038142
0.00426542
0.00461234
0.00488157
0.00509094
0.00525238
0.00537161
0.00545048
0.00548712
0.00547592
0.00540771
0.00527161
0.00505796
0.00476282
0.00439382
0.00397021
0.00352415
0.00306748
0.00262579
0.000166284
0.00154199
0.00277246
0.00366152
0.00430775
0.00478436
0.00514148
0.00541248
0.0056221
0.00578686
0.00590739
0.00598357
0.00601513
0.00599878
0.00592772
0.00579573
0.00560035
0.00534692
0.00505617
0.00475939
0.00448871
0.00425732
0.00407262
0.000200553
0.00176017
0.00316729
0.00413101
0.00480623
0.00529466
0.00565109
0.00591116
0.00611753
0.00629573
0.00641831
0.00648343
0.00650372
0.0064807
0.00640881
0.00628555
0.00611677
0.00590771
0.005682
0.00547196
0.00529863
0.00516976
0.00508504
0.00023667
0.00209258
0.00363005
0.00460961
0.00526588
0.00573837
0.00607699
0.00631361
0.00650786
0.0066899
0.00680566
0.00686719
0.00690025
0.00690043
0.00684406
0.006736
0.00659237
0.00642586
0.00624209
0.00608006
0.00595729
0.00587288
0.00583006
0.000249856
0.00238385
0.00398105
0.00497008
0.00560648
0.00604547
0.00636233
0.00659022
0.00676872
0.00690424
0.00701252
0.00709401
0.00715214
0.00718238
0.00716394
0.00709708
0.00700543
0.00687595
0.00671172
0.00657269
0.00647547
0.00641503
0.0063994
0.00025625
0.00247428
0.00419814
0.00523356
0.00587235
0.00628769
0.00658389
0.00679315
0.0069449
0.00706668
0.00718166
0.00727933
0.0073499
0.00739058
0.00739287
0.0073603
0.00731514
0.0072371
0.00710638
0.00697875
0.00688794
0.00684814
0.00682566
0.000258544
0.00240994
0.00424899
0.005386
0.00605785
0.00645484
0.0067162
0.00691232
0.007077
0.00720895
0.00732272
0.00743251
0.00751424
0.00756114
0.00757619
0.00756638
0.00754718
0.00750488
0.0074306
0.00734117
0.00725567
0.00720795
0.00716576
0.000253713
0.00231822
0.00418129
0.00536772
0.00608534
0.00650118
0.00676756
0.00697723
0.00715378
0.00729629
0.00741677
0.00753179
0.00762324
0.00768384
0.00771449
0.00771751
0.00771547
0.00770039
0.00766731
0.00761946
0.00756047
0.00749878
0.00743097
0.000246329
0.00220684
0.0040296
0.00521203
0.00595913
0.00642562
0.00673822
0.00697742
0.00717012
0.00732749
0.00746051
0.00757617
0.00766793
0.00773421
0.00777897
0.00779885
0.00781489
0.00782577
0.00782244
0.00779529
0.00774443
0.00767674
0.00761332
0.000236751
0.00207581
0.00382483
0.00498783
0.00575241
0.00626676
0.00663625
0.006919
0.00714019
0.00731734
0.00746367
0.00758379
0.00767533
0.00773836
0.00778502
0.00782276
0.00785614
0.00788215
0.00789013
0.00786678
0.00781698
0.00776839
0.00773673
0.000225455
0.00193496
0.00359743
0.00473943
0.0055177
0.0060681
0.00648111
0.00680549
0.00706161
0.00726497
0.00742831
0.00755785
0.00765429
0.00771892
0.00776822
0.00781667
0.00786029
0.00789243
0.00790369
0.00788906
0.00786166
0.0078413
0.00783024
0.000214318
0.00178093
0.00336341
0.00449095
0.00528423
0.00586239
0.00630426
0.00665569
0.00693899
0.00716691
0.00735007
0.00749379
0.00759996
0.00767304
0.00773108
0.00779075
0.00784559
0.0078866
0.00790604
0.00790474
0.00789767
0.00789694
0.00790087
0.000203956
0.00163644
0.00314129
0.00425567
0.00506333
0.00566499
0.00612991
0.00650034
0.00680022
0.00704402
0.00724143
0.00739743
0.00751562
0.00760395
0.0076785
0.0077522
0.00781963
0.00787172
0.00790195
0.00791469
0.0079236
0.00793683
0.00795238
0.000194712
0.0015181
0.00294669
0.00404427
0.00486291
0.0054845
0.00596933
0.00635624
0.00666935
0.00692411
0.00713084
0.00729633
0.00742672
0.00753131
0.00762283
0.00770945
0.00778684
0.00784813
0.00788942
0.00791626
0.00793872
0.00796275
0.00798776
0.000186947
0.00142881
0.00278659
0.00386243
0.00468649
0.00532367
0.00582554
0.00622749
0.006553
0.00681797
0.00703364
0.00720852
0.00735048
0.00746873
0.0075729
0.0076683
0.00775183
0.00781994
0.0078714
0.00791073
0.00794479
0.00797787
0.00800999
0.000180783
0.00136442
0.00266015
0.00371071
0.00453412
0.00518181
0.00569736
0.00611265
0.00645002
0.00672539
0.00695063
0.00713524
0.00728778
0.00741676
0.00752974
0.0076308
0.00771872
0.00779221
0.00785187
0.00790114
0.0079446
0.00798521
0.00802318
0.000176021
0.001318
0.00256122
0.00358516
0.00440284
0.00505602
0.00558168
0.00600819
0.00635646
0.0066421
0.00687715
0.00707144
0.00723358
0.00737135
0.00749112
0.00759671
0.00768864
0.00776694
0.00783325
0.00789031
0.00794124
0.00798803
0.00803089
0.000172225
0.00128217
0.00248115
0.00347896
0.00428754
0.00494223
0.00547474
0.00591029
0.00626826
0.00656361
0.00680823
0.00701191
0.00718299
0.00732867
0.00745472
0.00756504
0.00766145
0.00774467
0.00781693
0.0078805
0.00793763
0.00798967
0.00803676
0.000168892
0.00125055
0.00241127
0.00338452
0.00418248
0.00483609
0.00537305
0.00581585
0.00618235
0.00648679
0.00674066
0.0069535
0.00713332
0.00728687
0.00741962
0.00753556
0.00763727
0.00772611
0.00780431
0.00787391
0.00793662
0.00799342
0.00804441
0.000165585
0.00121874
0.00234486
0.00329552
0.0040828
0.00473418
0.00527418
0.00572303
0.00609727
0.00641036
0.00667336
0.00689543
0.00708424
0.0072462
0.00738655
0.00750933
0.00761747
0.00771283
0.00779739
0.00787305
0.00794122
0.00800264
0.00805737
0.000162008
0.00118509
0.00227858
0.00320862
0.00398599
0.00463495
0.00517733
0.00563161
0.00601322
0.00633491
0.00660724
0.00683897
0.00703743
0.00720871
0.00735782
0.00748874
0.00760454
0.00770732
0.00779884
0.00788088
0.0079546
0.00802064
0.00807903
0.000158022
0.00115038
0.00221309
0.00312436
0.00389273
0.00453929
0.00508371
0.00554314
0.00593211
0.00626269
0.0065449
0.00678707
0.00699612
0.00717781
0.00733688
0.00747719
0.00760175
0.00771278
0.00781185
0.00790057
0.00797999
0.00805062
0.00811254
0.000153601
0.001116
0.0021526
0.00304711
0.00380662
0.00445029
0.00499628
0.00546073
0.00585731
0.00619737
0.0064903
0.00674387
0.00696456
0.00715776
0.00732789
0.00747861
0.0076128
0.00773266
0.00783963
0.00793517
0.00802022
0.00809527
0.00816043
0.000148865
0.00108783
0.00210289
0.0029822
0.00373224
0.00437202
0.00491905
0.00538857
0.00579329
0.00614363
0.00644821
0.00671417
0.00694746
0.00715304
0.00733502
0.00749678
0.00764105
0.00776991
0.00788479
0.00798695
0.00807729
0.00815632
0.0082242
0.000144067
0.00106933
0.00206585
0.00293136
0.0036721
0.00430785
0.00485617
0.0053314
0.00574506
0.00610655
0.00642361
0.00670268
0.00694914
0.00716751
0.00736157
0.00753444
0.00768867
0.00782625
0.00794855
0.00805672
0.00815165
0.00823392
0.0083038
0.000139263
0.0010524
0.00203769
0.00289279
0.00362662
0.00426035
0.00481162
0.00529384
0.00571741
0.00609071
0.00642062
0.00671292
0.00697246
0.00720333
0.007409
0.00759237
0.00775582
0.00790124
0.00802999
0.00814315
0.00824166
0.00832619
0.00839713
0.000134523
0.00103481
0.00201539
0.00286536
0.00359691
0.00423234
0.00478905
0.00527968
0.00571378
0.00609892
0.00644129
0.00674609
0.00701774
0.00725999
0.00747602
0.00766856
0.00783986
0.00799173
0.00812553
0.00824235
0.00834319
0.00842886
0.00849988
0.00013012
0.00102292
0.00200175
0.00285195
0.00358618
0.00422684
0.00479093
0.00529062
0.00573495
0.00613096
0.0064844
0.00680004
0.00708197
0.00733368
0.00755815
0.00775796
0.00793526
0.00809183
0.00822901
0.00834797
0.00844983
0.00853551
0.00860567
0.000126493
0.00101939
0.00200185
0.00285687
0.00359711
0.00424477
0.00481667
0.00532477
0.00577791
0.00618288
0.00654512
0.00686918
0.00715891
0.00741762
0.00764815
0.00785297
0.00803418
0.00819353
0.00833232
0.00845192
0.00855355
0.00863824
0.00870679
0.000124078
0.00102561
0.0020177
0.00288072
0.00362826
0.0042829
0.00486159
0.00537641
0.00583615
0.00624752
0.00661585
0.00694555
0.00724033
0.00750338
0.00773745
0.00794494
0.00812791
0.00828809
0.00842686
0.00854573
0.00864604
0.00872892
0.00879533
0.00012317
0.0010408
0.00204685
0.00291926
0.00367386
0.00433431
0.00491808
0.00543749
0.00590143
0.00631662
0.00668836
0.00702098
0.00731814
0.00758296
0.00781815
0.00802606
0.00820874
0.00836794
0.00850519
0.00862213
0.00872021
0.00880067
0.00886456
0.000123854
0.00106284
0.00208428
0.00296579
0.00372637
0.0043912
0.00497837
0.00550049
0.00596656
0.00638334
0.00675615
0.00708931
0.00738648
0.00765077
0.00788487
0.00809114
0.00827166
0.00842821
0.0085626
0.00867656
0.00877163
0.00884915
0.00891024
0.000126013
0.00108932
0.00212499
0.00301419
0.00377956
0.00444764
0.00503705
0.00556056
0.00602723
0.00644389
0.00681591
0.00714769
0.00744291
0.0077047
0.00793579
0.00813857
0.0083152
0.00846763
0.00859794
0.00870797
0.00879933
0.00887344
0.00893149
0.000129389
0.00111796
0.00216524
0.00306044
0.00382973
0.00450055
0.00509167
0.00561585
0.00608218
0.00649755
0.00686746
0.00719641
0.00748819
0.00774595
0.00797246
0.00817017
0.00834139
0.00848848
0.00861371
0.008719
0.00880604
0.00887629
0.00893099
0.000133627
0.00114655
0.00220236
0.0031022
0.00387516
0.00454883
0.00514173
0.00566641
0.00613196
0.00654541
0.00691242
0.0072377
0.0075251
0.00777786
0.00799873
0.00819029
0.00835508
0.00849599
0.00861545
0.00871546
0.00879769
0.00886364
0.00891465
0.000138324
0.00117297
0.00223424
0.00313788
0.00391482
0.00459197
0.00518716
0.00571263
0.00617744
0.00658883
0.00695275
0.00727412
0.00755696
0.00780448
0.00801944
0.00820453
0.00836268
0.00849735
0.00861101
0.00870556
0.00878265
0.00884387
0.00889073
0.000143059
0.00119526
0.00225913
0.00316613
0.00394769
0.00462921
0.00522746
0.00575426
0.00621872
0.00662837
0.00698953
0.00730743
0.00758625
0.00782921
0.00803907
0.00821866
0.00837148
0.00850123
0.00860996
0.00869923
0.00877081
0.00882667
0.00886871
0.000147422
0.00121164
0.00227565
0.0031859
0.00397277
0.00465946
0.00526148
0.0057902
0.00625486
0.00666336
0.00702249
0.00733787
0.00761388
0.00785389
0.00806093
0.00823832
0.00838985
0.0085183
0.00862376
0.00870766
0.00877273
0.00882198
0.00885809
0.000151035
0.00122052
0.00228316
0.0031969
0.00398953
0.00468176
0.00528784
0.00581883
0.00628415
0.00669215
0.00705012
0.00736409
0.0076388
0.00787812
0.00808631
0.00826885
0.00842975
0.00856365
0.00866661
0.0087429
0.0087986
0.0088388
0.00886723
0.000153582
0.00122137
0.00228284
0.00320043
0.00399853
0.00469575
0.00530547
0.00583857
0.00630473
0.00671268
0.00707018
0.00738366
0.00765827
0.00789889
0.00811305
0.00831461
0.00851605
0.00866226
0.008756
0.00881649
0.00885668
0.00888392
0.00890238
0.000154799
0.00121845
0.00227956
0.00320002
0.00400169
0.00470203
0.00531399
0.00584842
0.00631517
0.00672324
0.00708064
0.00739405
0.00766892
0.0079111
0.00813279
0.00836919
0.0087236
0.00885547
0.00890869
0.00893531
0.00895083
0.00896066
0.00896707
0.000282099
0.000277975
0.000282857
0.000297641
0.00232963
0.0022857
0.00231308
0.00243793
0.00398911
0.00397927
0.00401121
0.00408689
0.00506448
0.00506726
0.00508407
0.0051133
0.00582383
0.00582273
0.00582239
0.00582502
0.00638593
0.00637631
0.00636622
0.0063567
0.00680837
0.00679736
0.00678364
0.00676841
0.00713898
0.00712504
0.00710978
0.0070924
0.00739528
0.00737912
0.00736099
0.00734191
0.00758349
0.0075671
0.00755004
0.00753604
0.00771909
0.0077086
0.00769817
0.00768871
0.00782323
0.00781907
0.00781416
0.00780898
0.00790265
0.00790366
0.00790362
0.00790279
0.00796148
0.00796697
0.00797131
0.00797459
0.00800316
0.00801253
0.00802065
0.00802752
0.00803045
0.00804314
0.00805453
0.00806453
0.00804756
0.00806294
0.00807697
0.00808953
0.00805842
0.00807599
0.00809222
0.00810697
0.00806701
0.00808637
0.00810436
0.00812081
0.00807708
0.00809795
0.00811735
0.00813512
0.00809226
0.00811444
0.00813501
0.00815379
0.008116
0.00813933
0.00816085
0.00818041
0.00815141
0.0081757
0.00819797
0.00821807
0.00820091
0.00822595
0.00824872
0.00826908
0.00826588
0.00829136
0.00831431
0.00833463
0.00834612
0.00837167
0.00839444
0.00841433
0.00843947
0.00846468
0.00848688
0.00850598
0.00854161
0.00856609
0.00858736
0.00860535
0.00864625
0.0086697
0.00868978
0.00870644
0.00874583
0.00876805
0.0087868
0.00880205
0.0088326
0.00885353
0.00887094
0.00888482
0.00889997
0.00891963
0.00893578
0.00894842
0.00894377
0.0089622
0.0089772
0.00898878
0.00896309
0.00898033
0.00899426
0.00900491
0.00896056
0.0089766
0.00898949
0.00899927
0.00894202
0.00895677
0.00896858
0.00897749
0.00891561
0.00892894
0.00893955
0.00894752
0.0088907
0.00890237
0.00891161
0.0089185
0.00887658
0.00888629
0.00889391
0.00889954
0.0088814
0.00888875
0.00889447
0.00889864
0.00891132
0.0089159
0.00891942
0.00892197
0.00897011
0.00897165
0.00897283
0.00897368
0.00135769
0.00257353
0.00327209
0.00366303
0.00388537
0.0039937
0.00400786
0.00395942
0.00390155
0.00384951
0.00379141
0.00369386
0.00353921
0.0033342
0.00308559
0.00276568
0.00228136
0.00144168
0.000195966
0.00300129
0.00361445
0.00403451
0.00431394
0.00449948
0.00461147
0.00465893
0.00465255
0.00461596
0.00455234
0.00445794
0.0043175
0.0041215
0.00387293
0.00356848
0.00317599
0.00260027
0.00162357
0.000210647
0.0042641
0.00453195
0.0047564
0.0049342
0.00507338
0.00517525
0.0052403
0.00526621
0.00524055
0.00515742
0.00502314
0.00483961
0.00460293
0.00430905
0.00394838
0.0034876
0.0028306
0.00175039
0.000212381
0.00516922
0.00527975
0.00539394
0.00550083
0.00559807
0.00568192
0.00574857
0.00578268
0.00575537
0.00565609
0.00549195
0.0052714
0.00499219
0.00464702
0.0042259
0.00369471
0.00295984
0.00179782
0.000225653
0.00583184
0.00587632
0.00593804
0.00600365
0.00606867
0.00612937
0.00618087
0.00620602
0.00616724
0.00604782
0.00585591
0.00559494
0.00525979
0.00487981
0.00440977
0.00380389
0.00297837
0.00174957
0.000211853
0.00634053
0.00635168
0.00638658
0.00642815
0.00646746
0.00649992
0.00651636
0.00649828
0.00641733
0.00625839
0.0060311
0.00573321
0.00536764
0.00494839
0.00442647
0.00375846
0.00288168
0.00164016
0.00019818
0.00674287
0.00673758
0.00675302
0.00677256
0.00678615
0.00678648
0.00676012
0.00668885
0.00655676
0.00635902
0.00609899
0.00575371
0.00532236
0.00484088
0.00428113
0.00359624
0.00274139
0.00160347
0.000188173
0.00706205
0.00704787
0.00704658
0.00704327
0.00703075
0.00700056
0.00693555
0.00681412
0.00662365
0.00636458
0.00603494
0.00562792
0.00515108
0.00463186
0.00406387
0.00340875
0.00261123
0.00154494
0.0001861
0.007314
0.00729229
0.0072724
0.00724373
0.00719925
0.00712953
0.00701995
0.00684927
0.00660352
0.00628317
0.00589528
0.00544466
0.00494072
0.00440863
0.00384971
0.00321847
0.00245654
0.00145145
0.000178083
0.00751269
0.00748613
0.00745276
0.00740151
0.00732519
0.00721582
0.00706239
0.00684868
0.00656153
0.00620073
0.00577418
0.0052907
0.00476407
0.00421763
0.00364488
0.00299809
0.00222062
0.00123579
0.000167356
0.0076699
0.00764232
0.00760365
0.00754094
0.00744516
0.00730854
0.00712247
0.00687597
0.00655971
0.00617341
0.00572291
0.00521552
0.00466368
0.00408332
0.00346181
0.00275872
0.00193567
0.00100129
0.000156021
0.0077964
0.0077723
0.00773373
0.0076673
0.0075627
0.00741165
0.00720698
0.00694139
0.00660878
0.00620956
0.00574761
0.00522553
0.00464953
0.00402674
0.00334307
0.0025697
0.00170803
0.000842038
0.000148922
0.00789773
0.0078803
0.00784534
0.00778011
0.00767396
0.00751833
0.00730674
0.00703407
0.00669636
0.00629397
0.00582918
0.00530165
0.00471286
0.00406112
0.00333413
0.00251774
0.00164027
0.000805165
0.000152558
0.00797707
0.00796774
0.00793838
0.0078772
0.00777387
0.00762005
0.0074096
0.0071383
0.00680366
0.00640554
0.00594508
0.0054216
0.00483409
0.00417721
0.00344045
0.00261777
0.00173314
0.000858381
0.000159992
0.00803677
0.00803552
0.0080127
0.00795719
0.00785915
0.00771079
0.00750626
0.00724178
0.00691564
0.00652764
0.00607792
0.0055658
0.00498915
0.00434255
0.00361692
0.0028047
0.0019101
0.000965788
0.000167631
0.0080795
0.00808542
0.00806913
0.00802004
0.00792873
0.00778787
0.00759192
0.00733756
0.00702347
0.00664923
0.00621433
0.00571759
0.00515645
0.0045252
0.00381438
0.00301275
0.00210928
0.00110386
0.000174169
0.00810877
0.0081205
0.00811
0.00806735
0.00798344
0.00785117
0.00766532
0.00742297
0.00712292
0.00676432
0.00634603
0.00586615
0.00532111
0.00470401
0.00400375
0.00320548
0.0022897
0.00123631
0.000179005
0.00812956
0.00814494
0.00813904
0.00810227
0.00802571
0.00790243
0.00772745
0.00749808
0.00721292
0.00687064
0.00646934
0.00600606
0.00547561
0.00486904
0.0041725
0.003367
0.00242727
0.00132373
0.000181978
0.00814596
0.00816414
0.00816134
0.00812916
0.00805928
0.00794473
0.00778074
0.00756453
0.00729431
0.00696817
0.00658336
0.00613555
0.00561759
0.00501793
0.0043193
0.003498
0.00252335
0.00136424
0.000183242
0.00816216
0.00818238
0.00818181
0.00815305
0.00808869
0.00798214
0.00782859
0.00762503
0.0073691
0.0070583
0.00668887
0.00625501
0.00574752
0.00515224
0.00444856
0.0036087
0.00259846
0.00139125
0.000184477
0.0081822
0.0082038
0.00820473
0.00817844
0.0081184
0.00801871
0.00787468
0.00768268
0.00743981
0.00714302
0.00678742
0.00636576
0.00586693
0.00527445
0.00456508
0.00370828
0.00266829
0.00142332
0.000186102
0.00820976
0.00823215
0.00823389
0.00820923
0.00815239
0.00805811
0.00792189
0.00773997
0.00750883
0.00722435
0.0068807
0.00646924
0.00597721
0.00538625
0.00467125
0.00380002
0.00273607
0.00145816
0.000188276
0.00824794
0.00827052
0.00827239
0.00824852
0.00819382
0.00810356
0.00797345
0.00779959
0.00757794
0.0073036
0.00696976
0.00656664
0.00608011
0.00549038
0.00477079
0.00388746
0.00280164
0.00149009
0.000190361
0.008299
0.00832112
0.00832239
0.00829844
0.00824482
0.00815722
0.00803157
0.00786381
0.00764949
0.00738302
0.00705677
0.00665996
0.00617738
0.00558805
0.00486403
0.00396968
0.00286364
0.0015203
0.000192054
0.00836404
0.00838498
0.00838488
0.00835998
0.00830638
0.00822015
0.00809736
0.00793385
0.00772479
0.00746401
0.00714315
0.00675058
0.0062702
0.00568011
0.00495122
0.00404628
0.00292138
0.00154835
0.000193395
0.00844265
0.00846166
0.00845944
0.00843277
0.00837823
0.00829221
0.00817089
0.00800999
0.00780433
0.00754724
0.00722971
0.00683941
0.00635951
0.00576731
0.00503279
0.00411731
0.0029746
0.00157377
0.000194431
0.00853263
0.00854901
0.00854403
0.00851494
0.00845872
0.00837202
0.00825108
0.00809149
0.00788775
0.00763272
0.00731683
0.00692712
0.00644612
0.00585048
0.00510942
0.00418314
0.00302334
0.00159639
0.000195126
0.00862985
0.00864311
0.00863495
0.00860308
0.00854478
0.00845691
0.00833571
0.00817664
0.00797387
0.00771984
0.00740443
0.00701412
0.00653084
0.00593066
0.00518213
0.00424453
0.003068
0.00161645
0.000195279
0.0087285
0.00873841
0.00872702
0.00869238
0.00863204
0.00854299
0.00842147
0.00826276
0.00806072
0.00780734
0.007492
0.00710059
0.00661448
0.00600909
0.00525236
0.0043028
0.00310948
0.00163471
0.000194546
0.00882163
0.0088283
0.00881398
0.00877701
0.00871515
0.00862547
0.00850418
0.00834636
0.00814557
0.00789336
0.00757858
0.00718651
0.00669784
0.00608731
0.00532211
0.00436006
0.00314963
0.00165272
0.000193137
0.00890208
0.00890597
0.00888936
0.00885087
0.0087884
0.00869911
0.00857915
0.00842342
0.00822518
0.00797554
0.0076628
0.00727156
0.00678171
0.0061671
0.00539397
0.00441928
0.00319103
0.00167141
0.00019211
0.00896369
0.00896544
0.00894741
0.00890843
0.00884656
0.008759
0.00864188
0.00848995
0.00829618
0.00805129
0.00774301
0.0073552
0.00686678
0.00625039
0.00547091
0.00448398
0.00323656
0.00169113
0.000191919
0.00900243
0.00900274
0.0089842
0.00894582
0.00888581
0.00880145
0.00868886
0.00854268
0.00835572
0.00811832
0.00781769
0.00743689
0.00695368
0.00633912
0.00555609
0.00455798
0.00328974
0.00171395
0.000192258
0.00901724
0.00901673
0.00899849
0.0089617
0.00890472
0.00882494
0.00871852
0.00858011
0.00840238
0.00817546
0.0078861
0.00751658
0.00704333
0.0064354
0.00565281
0.00464539
0.00335461
0.00174262
0.000192855
0.00901048
0.00900959
0.00899226
0.00895786
0.00890489
0.00883088
0.00873211
0.00860331
0.00843716
0.00822371
0.00794937
0.00759569
0.00713771
0.00654205
0.00576488
0.00475083
0.00343579
0.00177994
0.000193553
0.00898763
0.00898659
0.00897062
0.00893921
0.00889106
0.00882385
0.00873405
0.00861658
0.00846427
0.00826721
0.00801163
0.00767845
0.00724124
0.00666378
0.00589742
0.00487978
0.00353881
0.00183032
0.000194321
0.00895652
0.00895546
0.00894115
0.00891325
0.00887063
0.00881119
0.00873168
0.00862727
0.00849114
0.00831356
0.00808073
0.007773
0.00736231
0.00680899
0.00605829
0.00503882
0.00366879
0.00189656
0.000196006
0.00892622
0.00892519
0.00891283
0.00888894
0.00885259
0.00880198
0.00873417
0.0086448
0.00852753
0.00837308
0.00816783
0.00789162
0.0075144
0.00699178
0.00626026
0.00523633
0.00382895
0.00197725
0.000199588
0.00890579
0.00890483
0.00889471
0.00887539
0.00884613
0.00880546
0.00875094
0.00867883
0.00858355
0.00845669
0.0082853
0.00804906
0.00771564
0.00723359
0.0065243
0.005483
0.00402055
0.00207064
0.000204706
0.00890322
0.00890239
0.00889485
0.00888063
0.00885925
0.00882962
0.0087899
0.00873724
0.00866721
0.00857291
0.00844306
0.00825859
0.00798581
0.00756387
0.00688514
0.00579021
0.00424056
0.0021724
0.000210904
0.00892472
0.00892413
0.00891948
0.00891083
0.00889791
0.00888008
0.00885624
0.0088246
0.00878236
0.00872494
0.00864441
0.00852601
0.00833976
0.00801905
0.00740661
0.00615614
0.00446886
0.00226913
0.000217269
0.00897459
0.00897438
0.00897281
0.00896993
0.00896566
0.00895981
0.00895201
0.00894171
0.00892797
0.00890925
0.00888274
0.00884261
0.00877452
0.00863352
0.00823574
0.00651402
0.00464528
0.00233486
0.000221949
)
;

boundaryField
{
    leftWall
    {
        type            nutkWallFunction;
        Cmu             0.09;
        kappa           0.41;
        E               9.8;
        value           nonuniform List<scalar> 
50
(
6.01921e-06
8.63658e-06
1.01381e-05
1.12476e-05
1.2156e-05
1.29455e-05
1.36608e-05
1.43357e-05
1.53532e-05
1.68188e-05
1.90195e-05
2.40677e-05
2.7707e-05
2.86114e-05
2.86507e-05
2.63041e-05
2.56936e-05
2.47727e-05
2.35543e-05
2.2122e-05
2.07121e-05
1.94675e-05
1.84091e-05
1.75546e-05
1.68899e-05
1.63675e-05
1.59228e-05
1.54919e-05
1.50246e-05
1.44903e-05
1.38782e-05
1.31925e-05
1.26747e-05
1.1958e-05
1.111e-05
1.01927e-05
9.50169e-06
8.9536e-06
8.6119e-06
8.51664e-06
8.67443e-06
9.06306e-06
9.64027e-06
1.0351e-05
1.11323e-05
1.19182e-05
1.26435e-05
1.3248e-05
1.36806e-05
1.38973e-05
)
;
    }
    rightWall
    {
        type            nutkWallFunction;
        Cmu             0.09;
        kappa           0.41;
        E               9.8;
        value           nonuniform List<scalar> 
50
(
9.68611e-06
1.25814e-05
1.42167e-05
1.55775e-05
1.68563e-05
1.81739e-05
1.95899e-05
2.08623e-05
2.22139e-05
2.37264e-05
2.38369e-05
2.57666e-05
2.23354e-05
2.00983e-05
1.90319e-05
1.87138e-05
1.68146e-05
1.51014e-05
1.37626e-05
1.32857e-05
1.40183e-05
1.50444e-05
1.60953e-05
1.7005e-05
1.76913e-05
1.77842e-05
1.79295e-05
1.81636e-05
1.85091e-05
1.87813e-05
1.90566e-05
1.9281e-05
1.94545e-05
1.95845e-05
1.96678e-05
1.96442e-05
1.93559e-05
1.91295e-05
1.90466e-05
1.90292e-05
1.90372e-05
1.90807e-05
1.90219e-05
1.90314e-05
1.9192e-05
1.96134e-05
2.02692e-05
2.10958e-05
2.197e-05
2.26282e-05
)
;
    }
    lowerWall
    {
        type            nutkWallFunction;
        Cmu             0.09;
        kappa           0.41;
        E               9.8;
        value           nonuniform List<scalar> 
62
(
2.70999e-06
4.40305e-06
5.42602e-06
6.13699e-06
6.70086e-06
7.18171e-06
7.60959e-06
8.00218e-06
8.37023e-06
8.71928e-06
9.04861e-06
9.35071e-06
9.61313e-06
9.82224e-06
9.96616e-06
1.0033e-05
1.00042e-05
9.85542e-06
9.60133e-06
9.28825e-06
8.73574e-06
7.56534e-06
4.72592e-06
4.72592e-06
1.49166e-05
1.73442e-05
1.92348e-05
2.09943e-05
2.30722e-05
2.59957e-05
2.98807e-05
3.08005e-05
3.03426e-05
3.08522e-05
3.23358e-05
4.49575e-06
1.53621e-05
1.74993e-05
1.91319e-05
2.06871e-05
2.2432e-05
2.49617e-05
2.97733e-05
4.49575e-06
6.95744e-06
8.30945e-06
8.9933e-06
9.34154e-06
9.42356e-06
9.21239e-06
8.6733e-06
7.90766e-06
7.17894e-06
6.86528e-06
6.62565e-06
6.02888e-06
5.91859e-06
6.18237e-06
6.3516e-06
6.33793e-06
5.62184e-06
4.12418e-06
)
;
    }
    atmosphere
    {
        type            calculated;
        value           nonuniform List<scalar> 
46
(
0.000154799
0.00121845
0.00227956
0.00320002
0.00400169
0.00470203
0.00531399
0.00584842
0.00631517
0.00672324
0.00708064
0.00739405
0.00766892
0.0079111
0.00813279
0.00836919
0.009
0.009
0.009
0.009
0.009
0.009
0.009
0.009
0.009
0.009
0.009
0.009
0.009
0.009
0.009
0.009
0.009
0.009
0.009
0.009
0.009
0.009
0.009
0.009
0.009
0.009
0.00651402
0.00464528
0.00233486
0.000221949
)
;
    }
    defaultFaces
    {
        type            empty;
    }
}


// ************************************************************************* //
