/*--------------------------------*- C++ -*----------------------------------*\
| =========                 |                                                 |
| \\      /  F ield         | OpenFOAM: The Open Source CFD Toolbox           |
|  \\    /   O peration     | Version:  2.3.0                                 |
|   \\  /    A nd           | Web:      www.OpenFOAM.org                      |
|    \\/     M anipulation  |                                                 |
\*---------------------------------------------------------------------------*/
FoamFile
{
    version     2.0;
    format      ascii;
    class       volScalarField;
    location    "2.5";
    object      p;
}
// * * * * * * * * * * * * * * * * * * * * * * * * * * * * * * * * * * * * * //

dimensions      [1 -1 -2 0 0 0 0];

internalField   nonuniform List<scalar> 
2268
(
696.743
697.13
698.239
699.982
702.314
705.194
708.601
712.518
716.919
721.769
727.018
732.608
738.461
744.467
750.456
756.195
761.302
765.161
768.023
770.131
770.448
768.218
763.769
637.821
638.199
639.31
641.085
643.475
646.436
649.939
653.964
658.479
663.44
668.791
674.468
680.383
686.412
692.362
697.976
702.986
707.167
710.031
710.909
710.287
708.015
703.908
578.751
579.169
580.291
582.107
584.567
587.623
591.244
595.405
600.066
605.173
610.664
616.463
622.48
628.575
634.536
640.09
645.039
649.432
652.06
652.258
650.728
647.784
643.45
519.533
520.017
521.156
523.008
525.524
528.66
532.383
536.664
541.458
546.705
552.334
558.267
564.412
570.625
576.692
582.334
587.338
591.756
594.445
594.516
592.568
588.17
582.585
460.167
460.73
461.893
463.774
466.333
469.53
473.333
477.711
482.62
487.991
493.751
499.82
506.115
512.499
518.762
524.625
529.817
534.253
537.196
537.494
535.138
529.25
521.477
400.643
401.301
402.492
404.398
406.993
410.24
414.107
418.569
423.58
429.069
434.958
441.171
447.639
454.241
460.781
466.985
472.516
477.142
480.285
480.956
478.733
471.635
459.716
340.966
341.708
342.946
344.878
347.507
350.802
354.729
359.271
364.386
369.999
376.026
382.394
389.061
395.927
402.821
409.476
415.498
420.514
423.956
425.128
423.893
415.849
396.126
281.115
281.953
283.252
285.225
287.904
291.26
295.257
299.891
305.131
310.895
317.084
323.628
330.511
337.668
344.972
352.164
358.788
364.339
368.272
370.219
370.151
361.341
334.353
782.596
782.37
779.584
773.657
764.634
753.103
740.294
728.944
720.323
716.876
713.907
708.708
702.926
697.441
693.081
694.279
699.853
703.491
703.252
727.085
725.316
720.748
713.964
704.709
693.385
681.39
671.902
666.206
661.661
656.861
651.108
646.36
641.766
636.403
636.001
640.508
644.25
645.178
671.501
667.719
661.596
653.952
644.263
633.129
622.002
614.171
611.157
606.466
599.786
594.085
591.71
588.223
581.624
579.109
581.156
584.669
586.482
616.079
610.407
603.283
594.919
584.851
573.785
563.185
556.294
554.905
551.328
543.754
539.022
537.87
533.952
527.187
522.954
522.51
525.267
527.556
560.977
553.864
545.475
536.517
526.23
515.198
504.536
498.168
498.295
495.434
489.329
483.992
483.217
478.755
471.977
466.127
464.03
465.963
468.712
506.193
497.562
487.737
478.326
468.035
457.281
445.833
439.404
440.426
438.845
432.699
427.472
427.675
422.901
416.253
408.304
405.41
406.806
410.084
450.666
440.67
429.683
420.145
410.142
399.805
387.69
379.574
380.962
380.682
374.524
369.471
369.498
365.342
358.364
349.471
346.614
347.945
351.797
393.403
381.271
370.905
361.852
352.601
343.136
331.631
320.472
319.992
320.231
315.713
311.092
309.31
305.584
298.211
289.938
287.819
289.432
293.848
187.231
188.2
189.616
191.686
194.465
197.922
202.01
206.765
212.189
218.192
224.636
231.445
238.655
246.264
254.247
262.391
270.061
276.56
281.364
284.339
284.603
277.287
265.77
68.7923
69.4649
70.6963
72.4987
74.8552
77.7108
81.0016
84.7542
89.1222
94.2571
99.8774
105.813
112.344
119.503
127.259
136.261
145.946
154.095
159.862
162.998
162.406
157.138
153.032
8.2722
8.34335
8.81779
9.48721
10.3175
11.4115
12.855
14.5306
16.2404
18.3143
21.0468
24.0516
27.469
31.4733
35.6
39.4394
44.3668
49.9097
54.2087
56.523
55.7448
53.7617
52.5384
0.873394
0.919542
1.0168
1.0793
1.05774
1.21791
1.68079
2.34608
2.73168
3.07033
4.06781
5.28941
6.43136
7.63032
8.40823
7.09924
5.31169
5.46325
6.05985
6.25816
5.91405
5.87169
6.24792
0.168743
0.135124
0.209548
0.322762
0.384057
0.483528
0.729617
1.01413
1.27873
1.70224
2.60897
3.52418
4.21653
4.72909
4.70387
3.77688
2.82836
2.41553
2.19663
2.10982
2.32341
2.70286
3.03149
-0.532387
-0.622402
-0.610857
-0.486933
-0.341912
-0.285448
-0.206174
-0.0977579
0.0480329
0.445749
1.02605
1.75034
2.19302
2.47857
2.58037
2.33916
1.96831
1.75804
1.61144
1.48011
1.52268
1.7843
2.10891
-0.955204
-0.975114
-0.994703
-1.00013
-0.951696
-0.910735
-0.89366
-0.826061
-0.660843
-0.462964
-0.362344
-0.153856
-0.0868314
0.174515
0.687059
1.0362
1.17943
1.09872
0.969872
0.730866
0.622129
0.746794
0.815561
-1.16422
-1.17048
-1.19136
-1.21992
-1.22589
-1.19959
-1.15041
-1.08332
-1.00554
-0.98333
-1.13499
-1.23291
-1.25296
-1.21413
-0.9833
-0.654465
-0.229659
-0.0536953
-0.0645757
-0.222275
-0.517362
-0.667575
-0.563226
-1.31985
-1.33129
-1.34879
-1.36801
-1.3755
-1.37116
-1.34805
-1.30673
-1.278
-1.31909
-1.3715
-1.42316
-1.45754
-1.49212
-1.53755
-1.54482
-1.41262
-1.22119
-1.17659
-1.25152
-1.48593
-1.60382
-1.55268
-1.47788
-1.48778
-1.50156
-1.51628
-1.52667
-1.53678
-1.55199
-1.55891
-1.55716
-1.5626
-1.57549
-1.58816
-1.61056
-1.65211
-1.67949
-1.67714
-1.70288
-1.75535
-1.8012
-1.83153
-1.78608
-1.77291
-1.77355
-1.63457
-1.64302
-1.6544
-1.66785
-1.68204
-1.70153
-1.73907
-1.77509
-1.79532
-1.80704
-1.80623
-1.79115
-1.79165
-1.8133
-1.82971
-1.83146
-1.83274
-1.83691
-1.85049
-1.86652
-1.87708
-1.8834
-1.87668
-1.78729
-1.79429
-1.80374
-1.8166
-1.833
-1.8559
-1.891
-1.92705
-1.95623
-1.97975
-1.99454
-1.99815
-1.99497
-1.99125
-1.99443
-1.99988
-2.00325
-1.99724
-1.9979
-2.00139
-2.00184
-2.00046
-1.99356
-1.93558
-1.94081
-1.94834
-1.95998
-1.97584
-1.99709
-2.02449
-2.05273
-2.07717
-2.09876
-2.12003
-2.13837
-2.14873
-2.14737
-2.15066
-2.16088
-2.16285
-2.16032
-2.15356
-2.14045
-2.13224
-2.12698
-2.11829
-2.07987
-2.08323
-2.089
-2.09898
-2.11289
-2.13089
-2.1527
-2.17565
-2.19697
-2.21644
-2.23413
-2.24887
-2.26004
-2.26832
-2.27859
-2.29346
-2.30056
-2.29813
-2.28442
-2.26838
-2.25835
-2.25264
-2.24512
-2.22077
-2.22248
-2.22674
-2.235
-2.24677
-2.26173
-2.27937
-2.29817
-2.31648
-2.3337
-2.34942
-2.36278
-2.37357
-2.38262
-2.3924
-2.40276
-2.40917
-2.40683
-2.3978
-2.38744
-2.37936
-2.37354
-2.3685
-2.3588
-2.35928
-2.36231
-2.36896
-2.37875
-2.39118
-2.40569
-2.42128
-2.43687
-2.45182
-2.46565
-2.47782
-2.4881
-2.49687
-2.50515
-2.51258
-2.51667
-2.51577
-2.51068
-2.50406
-2.498
-2.49276
-2.48791
-2.4944
-2.49413
-2.4962
-2.50144
-2.50947
-2.51978
-2.53183
-2.5449
-2.55819
-2.57111
-2.5832
-2.59407
-2.6035
-2.61158
-2.61863
-2.62434
-2.62753
-2.62745
-2.62457
-2.62025
-2.61565
-2.61113
-2.60658
-2.62795
-2.62729
-2.62865
-2.63274
-2.63929
-2.64783
-2.65789
-2.66888
-2.68021
-2.69136
-2.70191
-2.71151
-2.71997
-2.72722
-2.73331
-2.738
-2.74073
-2.74116
-2.73957
-2.73667
-2.73312
-2.72929
-2.72522
-2.75973
-2.75892
-2.75975
-2.76294
-2.76831
-2.77541
-2.78383
-2.79311
-2.80276
-2.81236
-2.82153
-2.82998
-2.83748
-2.84393
-2.84926
-2.8533
-2.85576
-2.8565
-2.85569
-2.85371
-2.85097
-2.84777
-2.8442
-2.89001
-2.88914
-2.8896
-2.8921
-2.89653
-2.90248
-2.90958
-2.91744
-2.92567
-2.93393
-2.9419
-2.9493
-2.95593
-2.96166
-2.96638
-2.96997
-2.97227
-2.97321
-2.9729
-2.97157
-2.96946
-2.96683
-2.96377
-3.01903
-3.01812
-3.01829
-3.0203
-3.02402
-3.02906
-3.03508
-3.04176
-3.04881
-3.05593
-3.06285
-3.06934
-3.0752
-3.0803
-3.08452
-3.08778
-3.08996
-3.09105
-3.09109
-3.09024
-3.08865
-3.08651
-3.08392
-3.14705
-3.14605
-3.14602
-3.14771
-3.15092
-3.15523
-3.16036
-3.16606
-3.1721
-3.17824
-3.18426
-3.18995
-3.19514
-3.19969
-3.20351
-3.2065
-3.2086
-3.20979
-3.2101
-3.20962
-3.20846
-3.20677
-3.20461
-3.27429
-3.27311
-3.27296
-3.27456
-3.27743
-3.28114
-3.28552
-3.29038
-3.29554
-3.30083
-3.30606
-3.31104
-3.31564
-3.31972
-3.32319
-3.32597
-3.328
-3.32926
-3.32978
-3.32961
-3.32881
-3.3275
-3.32575
-3.40102
-3.39979
-3.39958
-3.40119
-3.40384
-3.40702
-3.41069
-3.41479
-3.41918
-3.42371
-3.42823
-3.43259
-3.43665
-3.44031
-3.44346
-3.44604
-3.448
-3.44932
-3.45
-3.45007
-3.44958
-3.44862
-3.44724
-3.52897
-3.52775
-3.52733
-3.52845
-3.53054
-3.53303
-3.53598
-3.53936
-3.54304
-3.54689
-3.55077
-3.55456
-3.55813
-3.5614
-3.56425
-3.56665
-3.56852
-3.56986
-3.57066
-3.57092
-3.57069
-3.57003
-3.56897
-3.65831
-3.65697
-3.65632
-3.65654
-3.65752
-3.65917
-3.66141
-3.66411
-3.66714
-3.67037
-3.67368
-3.67694
-3.68007
-3.68295
-3.68552
-3.68772
-3.68949
-3.69082
-3.69168
-3.69208
-3.69205
-3.69163
-3.69086
-3.78707
-3.78584
-3.7849
-3.78431
-3.78432
-3.78526
-3.78688
-3.78899
-3.79145
-3.79414
-3.79692
-3.79971
-3.80242
-3.80494
-3.80723
-3.80922
-3.81086
-3.81214
-3.81302
-3.81351
-3.81362
-3.81338
-3.81283
-3.91396
-3.91302
-3.91184
-3.91086
-3.91056
-3.91111
-3.91228
-3.91394
-3.91593
-3.91814
-3.92048
-3.92284
-3.92515
-3.92734
-3.92934
-3.93111
-3.93261
-3.9338
-3.93466
-3.93519
-3.93538
-3.93528
-3.93489
-4.03958
-4.03855
-4.03737
-4.03658
-4.03635
-4.03672
-4.03761
-4.03892
-4.04053
-4.04235
-4.04429
-4.04628
-4.04823
-4.05011
-4.05184
-4.05339
-4.05471
-4.05579
-4.0566
-4.05712
-4.05736
-4.05734
-4.05707
-4.16508
-4.16391
-4.1628
-4.16211
-4.16192
-4.16221
-4.16291
-4.16396
-4.16526
-4.16675
-4.16835
-4.17
-4.17163
-4.17321
-4.17468
-4.17601
-4.17717
-4.17812
-4.17885
-4.17934
-4.17958
-4.17961
-4.17943
-4.29056
-4.28934
-4.28823
-4.2876
-4.28743
-4.28765
-4.28821
-4.28905
-4.2901
-4.29131
-4.29261
-4.29396
-4.29531
-4.29662
-4.29785
-4.29897
-4.29996
-4.30078
-4.30142
-4.30186
-4.30209
-4.30214
-4.30201
-4.41604
-4.4148
-4.41371
-4.4131
-4.41293
-4.41309
-4.41353
-4.41419
-4.41503
-4.416
-4.41705
-4.41814
-4.41923
-4.4203
-4.42131
-4.42224
-4.42306
-4.42376
-4.4243
-4.42469
-4.4249
-4.42497
-4.42488
-4.54149
-4.54027
-4.53922
-4.53863
-4.53844
-4.53854
-4.53887
-4.53939
-4.54004
-4.5408
-4.54163
-4.54249
-4.54336
-4.54422
-4.54503
-4.54579
-4.54646
-4.54704
-4.5475
-4.54784
-4.54803
-4.5481
-4.54804
-4.6669
-4.66574
-4.66475
-4.66417
-4.66397
-4.66401
-4.66424
-4.66463
-4.66512
-4.6657
-4.66634
-4.667
-4.66767
-4.66834
-4.66898
-4.66958
-4.67013
-4.67061
-4.671
-4.67128
-4.67146
-4.67153
-4.67149
-4.79227
-4.79119
-4.79026
-4.78972
-4.78949
-4.78948
-4.78963
-4.7899
-4.79026
-4.79069
-4.79115
-4.79164
-4.79213
-4.79262
-4.7931
-4.79357
-4.79401
-4.79441
-4.79475
-4.79501
-4.79517
-4.79524
-4.79523
-4.91758
-4.9166
-4.91575
-4.91524
-4.91501
-4.91496
-4.91503
-4.91521
-4.91545
-4.91574
-4.91605
-4.91638
-4.91671
-4.91704
-4.91737
-4.91772
-4.91807
-4.91842
-4.91873
-4.91897
-4.91913
-4.91922
-4.91923
-5.04281
-5.04194
-5.04119
-5.04072
-5.04049
-5.04041
-5.04044
-5.04053
-5.04067
-5.04084
-5.04102
-5.04119
-5.04137
-5.04155
-5.04174
-5.04197
-5.04227
-5.0426
-5.0429
-5.04314
-5.04331
-5.04341
-5.04344
-5.16797
-5.16722
-5.16656
-5.16615
-5.16594
-5.16585
-5.16583
-5.16586
-5.16592
-5.16598
-5.16603
-5.16607
-5.1661
-5.16612
-5.16617
-5.16628
-5.16655
-5.16691
-5.16724
-5.1675
-5.16768
-5.1678
-5.16785
-5.29303
-5.29239
-5.29184
-5.29151
-5.29134
-5.29125
-5.29121
-5.2912
-5.29118
-5.29115
-5.2911
-5.29101
-5.29088
-5.29074
-5.2906
-5.29056
-5.29087
-5.29134
-5.29174
-5.29203
-5.29223
-5.29236
-5.29243
-5.41796
-5.41745
-5.41702
-5.4168
-5.4167
-5.41665
-5.41661
-5.41656
-5.41649
-5.41638
-5.41621
-5.41597
-5.41567
-5.41529
-5.41484
-5.41448
-5.41499
-5.41585
-5.41641
-5.41673
-5.41694
-5.41707
-5.41714
-5.54274
-5.5424
-5.54215
-5.5421
-5.54211
-5.54211
-5.54208
-5.542
-5.54187
-5.54166
-5.54137
-5.54097
-5.54044
-5.53971
-5.53869
-5.53751
-5.53843
-5.54037
-5.54126
-5.54162
-5.5418
-5.54191
-5.54197
-5.66733
-5.66719
-5.66715
-5.66721
-5.66727
-5.66728
-5.66726
-5.66718
-5.66704
-5.66683
-5.66654
-5.66615
-5.66562
-5.66487
-5.6636
-5.66155
-5.66187
-5.66501
-5.66615
-5.66652
-5.66668
-5.66677
-5.66683
279.343
282.302
282.544
284.15
157.204
158.759
158.998
159.706
52.2005
51.7375
51.4232
51.5168
6.199
6.08919
6.09976
6.04212
3.11118
3.07776
2.9483
2.7651
2.06234
1.99985
1.89833
1.80106
0.626408
0.418952
0.133306
-0.107015
-0.62215
-0.933619
-1.20873
-1.3009
-1.49418
-1.5319
-1.52269
-1.52129
-1.73779
-1.70967
-1.69496
-1.68687
-1.86004
-1.84858
-1.83722
-1.82885
-1.98112
-1.97289
-1.96553
-1.95965
-2.10724
-2.09965
-2.09335
-2.08833
-2.23523
-2.22764
-2.22093
-2.21569
-2.36075
-2.35436
-2.34762
-2.34191
-2.48297
-2.47784
-2.47183
-2.46626
-2.60209
-2.59804
-2.59305
-2.58841
-2.72103
-2.71742
-2.71335
-2.70958
-2.84051
-2.83739
-2.83391
-2.83072
-2.96057
-2.95786
-2.95484
-2.95207
-3.08115
-3.07879
-3.07614
-3.07372
-3.20223
-3.20017
-3.19784
-3.1957
-3.32374
-3.32196
-3.31991
-3.31801
-3.44559
-3.44406
-3.44227
-3.44058
-3.56764
-3.56636
-3.5648
-3.56332
-3.6898
-3.68873
-3.68739
-3.68611
-3.81199
-3.81111
-3.80997
-3.80888
-3.93422
-3.93349
-3.93254
-3.93163
-4.05652
-4.05591
-4.05512
-4.05438
-4.17897
-4.17845
-4.17779
-4.17719
-4.30162
-4.30117
-4.30062
-4.30014
-4.42454
-4.42415
-4.42367
-4.42328
-4.54774
-4.5474
-4.54699
-4.54667
-4.67124
-4.67093
-4.67058
-4.67031
-4.79502
-4.79475
-4.79444
-4.79421
-4.91905
-4.91882
-4.91855
-4.91836
-5.0433
-5.04311
-5.04289
-5.04273
-5.16775
-5.1676
-5.16741
-5.16729
-5.29236
-5.29224
-5.2921
-5.292
-5.4171
-5.41702
-5.41692
-5.41686
-5.54196
-5.54191
-5.54185
-5.54182
-5.66684
-5.66684
-5.66682
-5.66682
290.805
285.17
278.004
270.516
263.117
256.26
249.849
243.855
239.784
235.478
229.242
222.9
217.226
211.569
205.745
199.98
197.02
198.262
203.274
160.992
157.706
152.827
147.263
143.084
141.399
143.994
146.662
143.692
136.316
127.437
118.337
109.651
101.552
93.573
85.8198
81.539
83.9263
89.3262
52.6692
52.2471
50.6737
48.4001
46.9644
47.2166
52.3579
57.7947
56.765
51.2221
43.5672
36.676
30.739
25.6761
20.1251
15.2092
13.0514
15.4399
18.2657
5.93985
6.19104
6.67666
6.92999
6.79614
6.71982
8.31151
10.4906
9.87591
6.71615
2.65614
0.45928
-0.642145
-0.765627
-0.757264
-0.680968
-0.568977
-0.594522
-0.603296
2.51734
2.55276
2.65231
2.70768
2.72516
2.6068
2.08806
1.22938
0.559259
0.0809397
-0.23175
-0.571679
-0.745569
-0.812519
-0.838913
-0.844209
-0.839558
-0.831088
-0.809307
1.69717
1.64893
1.64149
1.60674
1.51887
1.37997
1.17189
0.873219
0.44512
-0.125562
-0.583941
-0.836866
-0.919677
-0.963306
-0.978212
-0.977554
-0.970988
-0.963411
-0.9581
-0.197671
-0.210377
-0.154959
-0.158419
-0.248428
-0.387136
-0.552277
-0.719693
-0.91447
-1.14615
-1.20933
-1.18915
-1.13692
-1.13285
-1.12636
-1.11658
-1.10744
-1.10432
-1.10923
-1.37794
-1.36178
-1.29886
-1.27987
-1.31554
-1.3715
-1.42389
-1.42138
-1.39183
-1.35904
-1.34592
-1.33633
-1.31932
-1.29324
-1.27117
-1.25816
-1.25345
-1.25832
-1.26717
-1.53082
-1.54958
-1.56461
-1.56611
-1.555
-1.53488
-1.51297
-1.50248
-1.4967
-1.48836
-1.47949
-1.46896
-1.45433
-1.42931
-1.40976
-1.40138
-1.40244
-1.41254
-1.41702
-1.67896
-1.67755
-1.67399
-1.6678
-1.6597
-1.6508
-1.64421
-1.63769
-1.62974
-1.6193
-1.6087
-1.59692
-1.5816
-1.56303
-1.55009
-1.54691
-1.55001
-1.55343
-1.55345
-1.8193
-1.81492
-1.81176
-1.80624
-1.79828
-1.79088
-1.78497
-1.77716
-1.76521
-1.75134
-1.73799
-1.72687
-1.7153
-1.70213
-1.69428
-1.69127
-1.68912
-1.68564
-1.68526
-1.95181
-1.94681
-1.94366
-1.93842
-1.93141
-1.92374
-1.91594
-1.90853
-1.8976
-1.88174
-1.86731
-1.85803
-1.852
-1.84425
-1.83704
-1.83139
-1.82375
-1.81816
-1.81871
-2.08139
-2.07466
-2.06873
-2.06234
-2.05592
-2.04794
-2.03986
-2.03232
-2.02405
-2.01106
-1.99842
-1.99083
-1.98569
-1.98184
-1.97556
-1.96743
-1.95997
-1.95555
-1.95602
-2.20927
-2.20193
-2.19443
-2.18685
-2.17915
-2.17126
-2.16392
-2.15658
-2.14894
-2.14084
-2.13171
-2.12353
-2.11691
-2.11293
-2.10799
-2.10197
-2.09822
-2.09671
-2.09551
-2.33512
-2.32831
-2.32069
-2.31269
-2.3044
-2.29614
-2.28884
-2.28189
-2.27507
-2.26881
-2.26156
-2.25339
-2.24731
-2.2431
-2.23926
-2.23604
-2.23518
-2.23636
-2.23407
-2.45942
-2.453
-2.44622
-2.43864
-2.43052
-2.42241
-2.41483
-2.40802
-2.4015
-2.3952
-2.38872
-2.38246
-2.37747
-2.37382
-2.371
-2.36932
-2.36982
-2.37214
-2.37059
-2.58238
-2.57626
-2.57024
-2.56375
-2.55661
-2.54907
-2.5416
-2.53465
-2.52834
-2.52243
-2.51674
-2.51154
-2.50741
-2.50438
-2.50228
-2.5014
-2.50241
-2.50499
-2.50518
-2.70455
-2.69902
-2.69336
-2.68757
-2.68159
-2.67499
-2.66797
-2.66127
-2.65535
-2.64996
-2.64497
-2.64055
-2.637
-2.63441
-2.63271
-2.63211
-2.63291
-2.63475
-2.63592
-2.82646
-2.82154
-2.81636
-2.81095
-2.80543
-2.79965
-2.79346
-2.78759
-2.7823
-2.7775
-2.77314
-2.76931
-2.76621
-2.76389
-2.76234
-2.76164
-2.76177
-2.76232
-2.76237
-2.94841
-2.94404
-2.93935
-2.93442
-2.92935
-2.92414
-2.91883
-2.91376
-2.90911
-2.90489
-2.90107
-2.89773
-2.89497
-2.89283
-2.89131
-2.89038
-2.88988
-2.88955
-2.88846
-3.07052
-3.06666
-3.06248
-3.05803
-3.05348
-3.04886
-3.04424
-3.03982
-3.03574
-3.03203
-3.02869
-3.02575
-3.02325
-3.02126
-3.01976
-3.01866
-3.01777
-3.01719
-3.01565
-3.19289
-3.18949
-3.18579
-3.18183
-3.17778
-3.1737
-3.16966
-3.16579
-3.16219
-3.1589
-3.15594
-3.15332
-3.15107
-3.14922
-3.14775
-3.14658
-3.14558
-3.14472
-3.14338
-3.31552
-3.31255
-3.30929
-3.3058
-3.30222
-3.29862
-3.29506
-3.29165
-3.28845
-3.28551
-3.28286
-3.2805
-3.27846
-3.27674
-3.27531
-3.2741
-3.273
-3.2719
-3.27044
-3.43838
-3.4358
-3.43295
-3.42988
-3.42672
-3.42354
-3.4204
-3.41737
-3.41451
-3.41187
-3.40947
-3.40732
-3.40545
-3.40383
-3.40244
-3.40122
-3.40003
-3.39869
-3.39697
-3.56138
-3.55916
-3.55669
-3.554
-3.55122
-3.54841
-3.54562
-3.54292
-3.54035
-3.53796
-3.53578
-3.53381
-3.53207
-3.53055
-3.5292
-3.52798
-3.52671
-3.52515
-3.52315
-3.68443
-3.68254
-3.68042
-3.67808
-3.67564
-3.67316
-3.67068
-3.66827
-3.66596
-3.6638
-3.6618
-3.66
-3.65838
-3.65694
-3.65564
-3.65442
-3.6531
-3.65137
-3.64914
-3.80747
-3.80589
-3.80409
-3.80207
-3.79994
-3.79776
-3.79557
-3.79342
-3.79135
-3.78939
-3.78758
-3.78592
-3.78441
-3.78305
-3.78179
-3.78058
-3.77924
-3.77739
-3.77514
-3.93048
-3.92919
-3.92767
-3.92595
-3.92411
-3.92221
-3.92028
-3.91838
-3.91653
-3.91478
-3.91314
-3.91162
-3.91023
-3.90893
-3.90769
-3.90646
-3.90506
-3.90312
-3.90116
-4.05347
-4.05245
-4.0512
-4.04974
-4.04817
-4.04653
-4.04486
-4.04319
-4.04156
-4.04001
-4.03854
-4.03717
-4.03587
-4.03464
-4.0334
-4.03209
-4.03047
-4.02823
-4.02613
-4.1765
-4.17571
-4.17469
-4.17348
-4.17216
-4.17077
-4.16934
-4.1679
-4.16649
-4.16513
-4.16383
-4.1626
-4.16142
-4.16024
-4.159
-4.15756
-4.15564
-4.15289
-4.14996
-4.29962
-4.29903
-4.29823
-4.29724
-4.29615
-4.29498
-4.29377
-4.29256
-4.29135
-4.29019
-4.28907
-4.28799
-4.28693
-4.28583
-4.28462
-4.28312
-4.28099
-4.27796
-4.27466
-4.4229
-4.42248
-4.42186
-4.42107
-4.42018
-4.41922
-4.41822
-4.41721
-4.41621
-4.41523
-4.41428
-4.41336
-4.41244
-4.41146
-4.41034
-4.40889
-4.40678
-4.40377
-4.40059
-4.54639
-4.5461
-4.54563
-4.54501
-4.5443
-4.54353
-4.54272
-4.5419
-4.54108
-4.54028
-4.53951
-4.53875
-4.53798
-4.53715
-4.53616
-4.53487
-4.53297
-4.53019
-4.52715
-4.67011
-4.66992
-4.66958
-4.6691
-4.66855
-4.66795
-4.66731
-4.66665
-4.666
-4.66537
-4.66476
-4.66416
-4.66355
-4.66288
-4.66206
-4.66096
-4.65931
-4.65678
-4.654
-4.79407
-4.79396
-4.79372
-4.79336
-4.79294
-4.79248
-4.79198
-4.79147
-4.79097
-4.79049
-4.79002
-4.78958
-4.78912
-4.78861
-4.78796
-4.78703
-4.78553
-4.78309
-4.78053
-4.91826
-4.9182
-4.91804
-4.91779
-4.91747
-4.91713
-4.91675
-4.91637
-4.91599
-4.91564
-4.9153
-4.915
-4.91469
-4.91433
-4.91383
-4.91303
-4.91157
-4.90906
-4.90635
-5.04265
-5.04264
-5.04254
-5.04236
-5.04214
-5.04188
-5.04161
-5.04133
-5.04106
-5.0408
-5.04058
-5.04039
-5.04022
-5.04001
-5.03967
-5.03899
-5.03757
-5.03505
-5.03228
-5.16724
-5.16725
-5.16719
-5.16708
-5.16692
-5.16674
-5.16654
-5.16634
-5.16615
-5.16598
-5.16585
-5.16576
-5.1657
-5.16564
-5.16548
-5.16495
-5.16364
-5.16121
-5.15854
-5.29197
-5.292
-5.29198
-5.29191
-5.2918
-5.29168
-5.29154
-5.2914
-5.29126
-5.29115
-5.29108
-5.29106
-5.29111
-5.2912
-5.29126
-5.29095
-5.28978
-5.28754
-5.28505
-5.41684
-5.41688
-5.41687
-5.41683
-5.41677
-5.41668
-5.41659
-5.41649
-5.41639
-5.41631
-5.41627
-5.41629
-5.4164
-5.41666
-5.41709
-5.41713
-5.41603
-5.41401
-5.41177
-5.54181
-5.54184
-5.54184
-5.54183
-5.54179
-5.54174
-5.54168
-5.54161
-5.54154
-5.54147
-5.54143
-5.54144
-5.54156
-5.54205
-5.54326
-5.54379
-5.54242
-5.54059
-5.53869
-5.66683
-5.66686
-5.66687
-5.66687
-5.66686
-5.66683
-5.66679
-5.66675
-5.66669
-5.66664
-5.66661
-5.6666
-5.66672
-5.66735
-5.66953
-5.66963
-5.66869
-5.66744
-5.6658
)
;

boundaryField
{
    leftWall
    {
        type            calculated;
        value           nonuniform List<scalar> 
50
(
696.743
637.821
578.751
519.533
460.167
400.643
340.966
281.115
187.231
68.7923
8.2722
0.873394
0.168743
-0.532387
-0.955204
-1.16422
-1.31985
-1.47788
-1.63457
-1.78729
-1.93558
-2.07987
-2.22077
-2.3588
-2.4944
-2.62795
-2.75973
-2.89001
-3.01903
-3.14705
-3.27429
-3.40102
-3.52897
-3.65831
-3.78707
-3.91396
-4.03958
-4.16508
-4.29056
-4.41604
-4.54149
-4.6669
-4.79227
-4.91758
-5.04281
-5.16797
-5.29303
-5.41796
-5.54274
-5.66733
)
;
    }
    rightWall
    {
        type            calculated;
        value           nonuniform List<scalar> 
50
(
703.252
645.178
586.482
527.556
468.712
410.084
351.797
293.848
203.274
89.3262
18.2657
-0.603296
-0.809307
-0.9581
-1.10923
-1.26717
-1.41702
-1.55345
-1.68526
-1.81871
-1.95602
-2.09551
-2.23407
-2.37059
-2.50518
-2.63592
-2.76237
-2.88846
-3.01565
-3.14338
-3.27044
-3.39697
-3.52315
-3.64914
-3.77514
-3.90116
-4.02613
-4.14996
-4.27466
-4.40059
-4.52715
-4.654
-4.78053
-4.90635
-5.03228
-5.15854
-5.28505
-5.41177
-5.53869
-5.6658
)
;
    }
    lowerWall
    {
        type            calculated;
        value           nonuniform List<scalar> 
62
(
726.173
726.559
727.668
729.411
731.744
734.623
738.031
741.947
746.349
751.198
756.447
762.037
767.891
773.896
779.885
785.625
790.731
794.388
796.896
799.422
799.846
797.513
793.052
763.769
703.908
643.45
582.585
521.477
459.716
396.126
334.353
340.654
343.224
344.56
346.404
782.596
727.085
671.501
616.079
560.977
506.193
450.666
393.403
810.45
810.224
807.943
802.244
793.017
781.399
768.447
756.065
747.402
745.142
743.17
737.971
732.018
726.498
721.597
722.573
728.268
732.082
731.724
)
;
    }
    atmosphere
    {
        type            calculated;
        value           nonuniform List<scalar> 
46
(
-5.72904
-5.72904
-5.72904
-5.72904
-5.72904
-5.72904
-5.72904
-5.72904
-5.72904
-5.72904
-5.72904
-5.72904
-5.72904
-5.72904
-5.72904
-5.72904
-5.72904
-5.72905
-5.72908
-5.72911
-5.72916
-5.72921
-5.72925
-5.72928
-5.7293
-5.72931
-5.72933
-5.72936
-5.72938
-5.7294
-5.72941
-5.7294
-5.72938
-5.72935
-5.72932
-5.72927
-5.72923
-5.72918
-5.72914
-5.7291
-5.72906
-5.72904
-5.72969
-5.73157
-5.73157
-5.72992
)
;
    }
    defaultFaces
    {
        type            empty;
    }
}


// ************************************************************************* //
