/*--------------------------------*- C++ -*----------------------------------*\
| =========                 |                                                 |
| \\      /  F ield         | OpenFOAM: The Open Source CFD Toolbox           |
|  \\    /   O peration     | Version:  2.3.0                                 |
|   \\  /    A nd           | Web:      www.OpenFOAM.org                      |
|    \\/     M anipulation  |                                                 |
\*---------------------------------------------------------------------------*/
FoamFile
{
    version     2.0;
    format      ascii;
    class       volScalarField;
    location    "2.5";
    object      p_rgh;
}
// * * * * * * * * * * * * * * * * * * * * * * * * * * * * * * * * * * * * * //

dimensions      [1 -1 -2 0 0 0 0];

internalField   nonuniform List<scalar> 
2268
(
726.173
726.559
727.668
729.411
731.744
734.623
738.031
741.947
746.349
751.198
756.447
762.037
767.891
773.896
779.885
785.625
790.731
794.388
796.896
799.422
799.846
797.513
793.052
726.109
726.487
727.598
729.373
731.763
734.723
738.227
742.252
746.767
751.728
757.079
762.755
768.671
774.7
780.649
786.263
791.239
794.228
796.533
798.142
798.492
796.22
792.106
725.898
726.316
727.438
729.254
731.714
734.77
738.391
742.552
747.212
752.32
757.81
763.61
769.627
775.722
781.683
787.237
792.136
794.723
796.235
796.43
795.778
794.761
790.596
725.538
726.022
727.162
729.013
731.53
734.666
738.388
742.669
747.463
752.711
758.34
764.273
770.417
776.631
782.698
788.339
793.342
797.231
797.096
796.365
794.428
793.009
788.589
725.031
725.595
726.757
728.638
731.197
734.395
738.197
742.576
747.484
752.855
758.615
764.685
770.979
777.363
783.626
789.489
794.681
799.085
800.268
797.842
797.344
793.974
786.339
724.366
725.024
726.215
728.121
730.716
733.963
737.83
742.292
747.303
752.792
758.681
764.893
771.362
777.964
784.504
790.708
796.238
800.85
803.983
804.679
802.456
795.357
783.437
723.547
724.29
725.528
727.46
730.089
733.384
737.311
741.853
746.967
752.581
758.607
764.976
771.642
778.508
785.403
792.058
798.08
803.095
806.538
807.71
806.474
798.429
778.703
722.555
723.393
724.693
726.665
729.344
732.701
736.697
741.331
746.571
752.335
758.524
765.069
771.951
779.108
786.412
793.605
800.228
805.779
809.712
811.659
811.587
802.762
775.692
810.45
810.224
807.943
802.244
793.017
781.399
768.447
756.065
747.402
745.142
743.17
737.971
732.018
726.498
721.597
722.573
728.268
732.082
731.724
810.646
811.706
808.81
802.026
792.771
781.446
769.451
759.131
747.444
747.095
744.65
738.897
732.231
722.706
720.114
721.794
728.236
731.979
732.173
811.449
814.49
808.366
800.712
791
779.898
768.769
760.934
750.723
742.408
746.027
739.171
724.33
720.846
714.26
717.749
727.37
730.883
732.696
811.956
815.887
808.757
800.034
789.966
779.252
768.654
761.754
749.605
741.594
737.036
731.719
723.523
719.655
712.909
717.828
727.209
729.966
732.25
812.8
818.052
809.562
800.507
790.048
778.433
768.692
762.205
748.562
740.041
733.958
738.575
721.966
717.512
710.755
722.139
727.163
729.132
731.833
815.309
820.515
810.76
801.48
791.188
777.508
766.226
761.975
755.406
737.828
749.77
749.129
722.476
714.74
708.123
726.892
727.084
728.491
731.694
829.911
822.009
811.592
802.054
792.051
779.615
754.824
760.761
761.799
757.61
754.997
749.948
748.14
723.228
725.646
729.372
726.788
728.118
731.97
833.17
821.159
811.56
802.516
793.26
782.286
731.741
727.273
759.08
759.238
754.723
750.099
748.321
744.522
736.47
724.288
725.897
728.093
732.497
720.698
721.667
723.083
725.153
727.932
731.389
735.477
740.232
745.656
751.659
758.103
764.913
772.122
779.731
787.714
795.858
803.528
810.027
814.831
817.802
818.039
810.631
797.855
619.204
623.772
628.297
633.744
640.168
647.979
657.352
668.893
681.712
694.537
708.15
722.755
738.582
756.034
775.876
794.851
804.607
812.757
818.518
821.428
820.801
815.096
809.034
96.4478
95.8802
100.815
108.195
117.635
128.098
139.084
149.292
162.104
181.978
201.776
222.565
250.622
285.9
321.722
385.552
471.187
537.685
586.026
615.148
621.466
611.971
619.761
5.00672
5.04839
5.15013
5.20859
5.31803
5.67595
6.53307
9.02012
11.9051
11.262
12.4094
13.6363
15.3545
18.1315
27.6104
26.5869
24.5755
40.4153
55.7407
61.6367
48.0301
39.0836
44.17
5.65926
8.34663
8.42785
8.32898
5.45678
5.31562
5.80234
12.4032
15.1949
10.8225
11.7503
12.9251
13.7489
15.4032
29.8605
20.0921
9.44373
7.63172
7.34977
7.24974
7.44009
7.79931
8.14983
4.04691
3.0163
3.49839
6.49835
6.43426
4.90089
8.00284
11.3571
7.4501
4.60495
17.1802
27.3042
28.1434
29.2175
30.3729
25.5798
8.58358
7.50959
7.40419
7.25049
7.28376
7.52457
7.90144
1.45719
0.330273
0.370015
1.97714
3.26664
2.28189
1.54628
1.54685
1.79822
3.1085
14.8707
23.4513
21.2794
25.3969
30.3132
24.1057
7.72842
7.59943
7.43729
7.14905
6.8138
8.53333
25.2733
0.264715
0.243537
0.225118
0.202444
0.223511
0.369876
0.501746
0.674147
1.46757
4.44244
2.61709
1.67107
1.28447
2.64432
11.7262
20.2614
20.6149
20.1736
19.9041
6.6199
5.98948
15.8002
24.9191
0.219128
0.205064
0.189513
0.172062
0.17327
0.200603
1.19838
2.46135
2.48718
2.01574
0.527961
0.3706
0.259398
0.213675
0.214296
0.713101
8.22822
17.4684
19.4797
16.9796
3.82956
0.3615
4.24193
0.18327
0.173045
0.161167
0.146679
0.138346
0.140921
1.29393
2.51335
2.51632
2.50801
2.07559
0.577161
0.220673
0.16944
0.0960124
0.0557238
-0.0144811
-0.0769267
-0.131241
-0.170161
0.132359
0.219871
-0.112574
0.15105
0.142902
0.134884
0.119154
0.105571
0.104431
0.445546
1.04562
1.56099
2.07369
2.3064
2.32147
1.5792
0.15083
0.119405
0.895975
1.2606
0.306898
-0.0413843
-0.0799698
-0.090432
-0.0962146
-0.0877307
0.12337
0.116783
0.109179
0.09414
0.0797111
0.0766223
0.0309494
-0.00911221
-0.0215373
0.0776062
0.728082
1.44277
1.46693
0.492624
0.391737
1.31705
1.31368
1.31969
0.704031
-0.0898802
-0.0838807
0.00148411
0.0482734
0.100242
0.0952542
0.0875614
0.0758434
0.0613136
0.0456903
0.0122077
-0.0159536
-0.0405328
-0.0619839
-0.0823674
-0.0744851
-0.0240173
0.0747885
0.168143
1.00489
1.37142
1.33348
0.411524
-0.103927
-0.0855541
0.0755901
0.0979755
0.0811428
0.0777772
0.0720149
0.0620241
0.0484821
0.0302494
0.00843652
-0.0145226
-0.0358667
-0.0553461
-0.0729844
-0.087678
-0.0988274
-0.107063
-0.104387
-0.0573797
0.186019
0.0450337
-0.105873
-0.106628
-0.0973424
-0.0734786
0.107026
0.0654348
0.0637176
0.0594585
0.0511957
0.0394274
0.0244876
0.00684104
-0.0119587
-0.0302764
-0.0474971
-0.0632126
-0.0765699
-0.0873658
-0.0964211
-0.106202
-0.116566
-0.122975
-0.120642
-0.111603
-0.101202
-0.0931608
-0.0873448
-0.0530756
0.0526289
0.0521082
0.0490769
0.0424295
0.0326428
0.0202133
0.00570091
-0.00988799
-0.0254795
-0.0404276
-0.0542654
-0.0664341
-0.0767108
-0.0854863
-0.0937614
-0.101194
-0.105284
-0.104384
-0.0992884
-0.0926769
-0.0866128
-0.081375
-0.0765258
0.0423097
0.0424592
0.0403832
0.0351435
0.0271124
0.0168019
0.0047496
-0.00831456
-0.0216046
-0.0345261
-0.0466225
-0.0574902
-0.0669176
-0.075004
-0.0820466
-0.0877625
-0.0909519
-0.0908717
-0.0879862
-0.0836721
-0.079067
-0.0744573
-0.0668535
0.0339681
0.0344937
0.0331305
0.0290423
0.0224885
0.0139443
0.00389279
-0.00710083
-0.0184314
-0.0295825
-0.0401324
-0.0497383
-0.0581917
-0.06545
-0.071537
-0.0762271
-0.0789557
-0.0793846
-0.0777937
-0.0748976
-0.0713466
-0.0671962
-0.0629338
0.0273869
0.0280682
0.0272185
0.0240304
0.0186671
0.0115614
0.00314196
-0.0061341
-0.0157878
-0.0253875
-0.0345629
-0.0430074
-0.0505092
-0.0569607
-0.0622916
-0.06633
-0.0687918
-0.0695322
-0.0687203
-0.0667444
-0.0640002
-0.0605895
-0.0567769
0.0223123
0.0230916
0.0225779
0.0200663
0.0156362
0.00968404
0.00258825
-0.00527097
-0.0135082
-0.0217683
-0.0297354
-0.0371382
-0.0437702
-0.0494971
-0.0542198
-0.0578082
-0.0601053
-0.061047
-0.0607388
-0.0594051
-0.0572984
-0.0546686
-0.0515886
0.0184901
0.019312
0.0190775
0.0170568
0.0133386
0.00830404
0.0022852
-0.00440342
-0.0114519
-0.0185695
-0.0254902
-0.0319781
-0.0378408
-0.0429382
-0.0471652
-0.0504199
-0.0526059
-0.0536894
-0.0537358
-0.0528805
-0.0512875
-0.0491561
-0.0465646
0.0155795
0.0165262
0.01654
0.0148419
0.0116375
0.00733045
0.00220051
-0.00350638
-0.00954755
-0.0156872
-0.0217033
-0.0273936
-0.0325842
-0.0371393
-0.0409557
-0.0439487
-0.0460513
-0.0472403
-0.0475526
-0.0470718
-0.0459082
-0.0442135
-0.0420561
0.0134581
0.014641
0.0147902
0.0131946
0.0103245
0.00660616
0.00223517
-0.00262579
-0.00779532
-0.0130844
-0.0183091
-0.0232974
-0.0278957
-0.0319769
-0.0354428
-0.0382182
-0.0402497
-0.0415162
-0.042036
-0.0418587
-0.0410583
-0.0397541
-0.0380008
0.0119336
0.033877
0.0297828
0.0126184
0.00910187
0.00592913
0.00225713
-0.00184183
-0.00623435
-0.0107672
-0.0152866
-0.0196462
-0.0237115
-0.0273668
-0.0305196
-0.0331004
-0.035061
-0.036379
-0.0370593
-0.0371292
-0.0366374
-0.0356795
-0.0342984
0.0953549
0.110252
0.110688
0.0426728
0.00762024
0.00511378
0.00215568
-0.00122321
-0.00490406
-0.00875221
-0.0126341
-0.0164223
-0.0199987
-0.0232592
-0.0261182
-0.0285097
-0.0303877
-0.0317268
-0.0325223
-0.0327863
-0.0325496
-0.0318893
-0.030839
0.108419
0.109776
0.110428
0.0614424
0.00587941
0.00416214
0.00192104
-0.00078143
-0.00381213
-0.00704123
-0.010346
-0.013612
-0.0167344
-0.0196208
-0.0221926
-0.024388
-0.0261619
-0.0274865
-0.0283502
-0.0287543
-0.0287163
-0.0282986
-0.0275271
0.0710045
0.109617
0.0873278
0.0301316
0.00431244
0.0032697
0.00164829
-0.000465976
-0.00292775
-0.00561023
-0.00839863
-0.0111894
-0.0138902
-0.016419
-0.0187056
-0.0206929
-0.0223378
-0.023611
-0.0244961
-0.0249866
-0.0250902
-0.0248573
-0.0243068
0.0013078
0.0231681
0.00723314
0.00356053
0.00348586
0.00263633
0.00143547
-0.000216053
-0.00220701
-0.00442135
-0.00675567
-0.00911887
-0.0114308
-0.0136202
-0.0156252
-0.0173948
-0.0188884
-0.0200769
-0.0209409
-0.0214684
-0.0216603
-0.021557
-0.0211721
-0.000637682
0.000454516
0.00157752
0.00234636
0.00261813
0.00221141
0.00130144
-7.53413e-06
-0.00161999
-0.00344034
-0.00538066
-0.00736355
-0.00932094
-0.0111923
-0.0129244
-0.0144723
-0.0157993
-0.0168774
-0.0176856
-0.0182092
-0.0184445
-0.0184241
-0.0181572
-0.000965818
0.000201461
0.00131609
0.0020023
0.0021913
0.00190524
0.00119924
0.000152724
-0.00115348
-0.00264222
-0.00424184
-0.00588856
-0.00752597
-0.00910353
-0.0105763
-0.0119056
-0.0130591
-0.0140108
-0.0147397
-0.01523
-0.0154756
-0.015503
-0.0153178
-0.00125849
-3.41531e-05
0.00106863
0.00170552
0.00187671
0.00165327
0.00109404
0.000257037
-0.000795803
-0.00200314
-0.00330792
-0.00465875
-0.00600975
-0.00731954
-0.008551
-0.00967174
-0.0106539
-0.0114741
-0.0121123
-0.0125525
-0.0127878
-0.0128398
-0.0127109
-0.00153918
-0.000297397
0.000785065
0.00139506
0.00156838
0.00140591
0.000968845
0.000306179
-0.000532616
-0.00149916
-0.00254845
-0.0036397
-0.00473632
-0.00580525
-0.0068168
-0.00774473
-0.0085658
-0.00925919
-0.00980588
-0.0101905
-0.0104055
-0.0104686
-0.0103794
-0.00179682
-0.000578027
0.000469775
0.00106105
0.00124896
0.0011472
0.000818115
0.000305405
-0.000349935
-0.00110917
-0.00193678
-0.00280074
-0.00367257
-0.00452691
-0.00534127
-0.0060956
-0.0067713
-0.0073497
-0.00781231
-0.00814385
-0.00833649
-0.00840434
-0.00834507
-0.00201827
-0.000855078
0.000141065
0.000712525
0.000919401
0.000876015
0.000643192
0.000260806
-0.000236175
-0.000816069
-0.00145058
-0.00211486
-0.00278762
-0.00345087
-0.00408947
-0.00469005
-0.00523912
-0.0057192
-0.00611062
-0.00639733
-0.00657097
-0.00664258
-0.00660818
-0.0021902
-0.00110819
-0.000179676
0.000365612
0.000588729
0.000597404
0.000448736
0.000179162
-0.000180828
-0.000604646
-0.00106946
-0.00155632
-0.00205054
-0.00254148
-0.00302207
-0.00348708
-0.00393011
-0.00433229
-0.00466982
-0.00492418
-0.00508606
-0.00516385
-0.00515251
-0.00230159
-0.00131947
-0.000471917
3.81301e-05
0.000269538
0.000320168
0.000242219
6.88674e-05
-0.000172802
-0.000459858
-0.000773577
-0.00109996
-0.00143038
-0.00176175
-0.00209634
-0.00244009
-0.0027988
-0.00314906
-0.00345465
-0.00369247
-0.00385218
-0.00394025
-0.00395152
-0.00234275
-0.00147278
-0.000716237
-0.000251918
-2.38991e-05
5.54371e-05
3.32522e-05
-6.02374e-05
-0.000200548
-0.000367378
-0.000545055
-0.000723512
-0.000899477
-0.00107731
-0.00127041
-0.00150074
-0.00179966
-0.00213117
-0.00243161
-0.00267094
-0.00283866
-0.00294092
-0.00297412
-0.00230305
-0.00155122
-0.000892444
-0.000485819
-0.000276207
-0.000184294
-0.000167306
-0.000197642
-0.000252931
-0.000314833
-0.000369763
-0.000410247
-0.000436848
-0.000460267
-0.000506265
-0.000619973
-0.000890028
-0.00124871
-0.00157521
-0.00183398
-0.00201796
-0.00213619
-0.00218905
-0.00216652
-0.00153334
-0.000978626
-0.000647176
-0.000476688
-0.000392053
-0.000354241
-0.000338433
-0.000324416
-0.00029545
-0.000238932
-0.000147886
-2.33814e-05
0.000122984
0.000256793
0.000295072
-8.72319e-06
-0.000484104
-0.000877544
-0.00116856
-0.00137011
-0.00150103
-0.00156821
-0.00190783
-0.0013993
-0.000970001
-0.000749735
-0.000650883
-0.000598366
-0.000558351
-0.000510302
-0.000436807
-0.000322339
-0.000153469
7.99298e-05
0.000383576
0.000764238
0.00121007
0.00157178
0.00106565
0.00020018
-0.000351485
-0.00067877
-0.000884546
-0.00101606
-0.00108775
-0.00148823
-0.00115003
-0.0009067
-0.000853704
-0.000861509
-0.000861298
-0.000830269
-0.000754917
-0.000621645
-0.000415758
-0.000120791
0.000281222
0.000812956
0.00153581
0.00256001
0.00373425
0.00281451
0.000877369
-1.16067e-05
-0.000367126
-0.000547471
-0.000658816
-0.000722963
-0.000891639
-0.000747599
-0.000710064
-0.000769296
-0.000825007
-0.000842145
-0.000813085
-0.000732692
-0.000593756
-0.000386372
-9.65928e-05
0.000294987
0.000820172
0.00157684
0.00284202
0.00489711
0.00457466
0.00142959
0.00029119
-7.84451e-05
-0.000235819
-0.000326708
-0.000383834
801.847
801.49
811.058
814.691
806.436
806.524
811.258
815.026
647.79
661.963
673.762
679.396
48.4458
51.079
61.2883
67.5469
8.33285
8.63994
9.03984
8.67436
13.9545
19.4851
18.2219
12.8632
25.0978
24.8767
24.1882
21.2638
26.2844
17.384
1.45832
0.109664
6.50281
0.00375279
0.0129663
0.0143922
-0.0768763
-0.0487731
-0.0340447
-0.0258498
-0.0738149
-0.0624161
-0.0509556
-0.0424781
-0.0624454
-0.0613642
-0.0538434
-0.0470471
0.0931139
-0.0503124
-0.0561467
-0.0499194
0.118026
0.111489
-0.0588476
-0.0544451
0.128838
0.13074
-0.0188592
-0.0554977
-0.0235831
0.0333187
-0.035758
-0.054644
-0.0654685
-0.0614246
-0.0549242
-0.0499161
-0.0590471
-0.0556238
-0.0515736
-0.0478062
-0.0530914
-0.0501468
-0.0469331
-0.0437464
-0.0483784
-0.0456747
-0.0426686
-0.0399113
-0.0437946
-0.0414314
-0.0387872
-0.0363654
-0.0396793
-0.0376201
-0.0352922
-0.0331507
-0.0359952
-0.0342143
-0.032165
-0.0302635
-0.0326441
-0.0311231
-0.0293283
-0.0276415
-0.0295045
-0.0282231
-0.0266655
-0.0251807
-0.0264667
-0.0253989
-0.0240626
-0.0227752
-0.023467
-0.0225819
-0.0214497
-0.0203563
-0.0205003
-0.0197659
-0.0188167
-0.0179084
-0.017609
-0.016995
-0.016204
-0.0154636
-0.0148596
-0.0143397
-0.0136796
-0.0130828
-0.0123192
-0.0118719
-0.0113162
-0.0108359
-0.0100394
-0.00964848
-0.0091745
-0.00878488
-0.0080484
-0.00770343
-0.00729401
-0.00697332
-0.00635118
-0.00604658
-0.0056903
-0.00542219
-0.00493429
-0.00466774
-0.00435789
-0.00413138
-0.00377217
-0.00354305
-0.0032763
-0.00308498
-0.0028334
-0.00264184
-0.00241708
-0.00225786
-0.00208581
-0.001932
-0.00174924
-0.00162106
-0.00149984
-0.00138352
-0.00124296
-0.00114544
-0.00104812
-0.000967776
-0.000869192
-0.000802146
-0.00071018
-0.000664701
-0.000606602
-0.000567322
-0.000398549
-0.000392833
-0.00038191
-0.000376854
823.021
817.579
810.514
803.029
795.599
788.196
706.459
612.479
636.343
684.922
717.008
726.977
726.466
715.042
697.397
694.889
716.233
728.331
733.317
817.927
814.944
810.184
801.282
787.594
785.516
702.857
598.029
592.832
589.246
599.049
604.025
589.233
591.218
620.321
620.434
610.11
603.382
621.988
683.737
661.88
606.874
543.025
515.001
524.966
581.811
598.396
597.798
590.489
578.408
516.98
448.99
377.785
288.54
201.514
157.375
196.775
251.239
70.5195
70.3716
71.5524
69.2581
61.9245
61.3113
112.782
191.95
195.193
137.108
52.2298
16.5134
0.309763
0.168869
0.175674
0.25474
0.697712
0.864961
0.845507
8.06365
7.63418
7.29169
6.9743
6.66283
6.21583
5.29545
3.93861
2.70007
1.68146
0.998224
0.525957
0.317613
0.249117
0.222543
0.216026
0.255778
0.33044
0.447711
12.1049
15.7674
16.241
15.4617
15.2156
14.973
14.8847
15.2678
14.9002
14.112
9.33377
4.26556
0.293386
0.227137
0.210091
0.209297
0.220205
0.276992
0.405323
20.9594
20.5377
19.9771
19.5073
19.0583
18.6202
18.1533
15.0424
10.2265
2.46115
0.0906815
0.121672
1.0742
0.513932
0.184787
0.196036
0.207068
0.314319
0.48846
0.0531971
2.11856
5.35548
6.3385
5.21221
3.37999
0.941674
0.0121098
0.0353493
0.0676638
0.080716
0.109507
0.427317
0.197632
0.165823
0.180491
0.25593
0.476652
0.470416
0.00500553
-0.0132292
-0.0248222
-0.0153677
0.0100714
0.0423374
0.0743003
0.151175
0.167177
0.0677649
0.0739097
0.084731
0.102178
0.128245
0.152477
0.322526
0.415254
0.402709
0.235318
-0.017502
0.0232834
0.138733
0.176541
0.164005
0.142876
0.222577
0.289114
0.297072
0.175593
0.0713311
0.0831854
0.10983
0.232378
0.376612
0.383957
0.382827
0.1852
0.133878
-0.0322463
0.0392817
0.173239
0.188001
0.195959
0.20336
0.18401
0.294949
0.301669
0.173171
0.0688051
0.0807384
0.210661
0.365664
0.3751
0.380581
0.193693
0.125889
0.127812
-0.027212
-0.0146059
-0.0113153
0.00407661
0.0809125
0.0226752
-0.00471174
0.027476
0.1956
0.136992
0.0682112
0.0799603
0.146564
0.3663
0.375756
0.213134
0.103358
0.119206
0.170861
-0.00816038
0.0161373
-0.0112666
-0.0214898
-0.0192229
-0.0114785
-0.00347721
0.00392738
0.0225133
0.17746
0.192293
0.136671
0.0531229
0.150154
0.17583
0.0881947
0.0911586
0.186952
0.201824
-0.0284742
0.0174741
0.0249789
0.033118
0.00703943
-0.00896771
-0.00253379
0.00458194
0.0257054
0.146664
0.176116
0.0444333
0.0443233
0.0483056
0.0531896
0.0590734
0.0780851
0.193301
0.195028
-0.0479917
0.00416946
0.0278293
0.0358323
0.0441184
0.0381089
-0.00247267
0.00447795
0.0113009
0.017563
0.0248148
0.0333846
0.042755
0.0450365
0.0481887
0.0501576
0.0510629
0.0905087
0.189159
-0.0480229
-0.0416159
0.00574221
0.0384801
0.0464133
0.0543311
0.0154414
0.00355218
0.0100682
0.0163771
0.0228818
0.0291841
0.0361435
0.0418038
0.0444322
0.0420665
0.0415688
0.0527042
0.185226
-0.0457976
-0.0396802
-0.0336605
-0.00249325
0.0484214
0.0549485
0.025958
0.00212333
0.00858018
0.0154886
0.02107
0.0252705
0.0293676
0.0336917
0.0361487
0.0351835
0.0341718
0.0347881
0.180197
-0.0427778
-0.0372443
-0.0315877
-0.0257955
-0.0127309
0.0125898
-0.00380419
0.000716703
0.00734637
0.0148228
0.0198204
0.0231774
0.0248206
0.027367
0.0290632
0.0296671
0.0288671
0.0270277
0.0538859
-0.0394945
-0.0345697
-0.0293886
-0.0239829
-0.0184572
-0.0126861
-0.00649318
-0.000226498
0.00550353
0.0126277
0.0169918
0.0208179
0.0217973
0.0230836
0.0246296
0.0253344
0.0251967
0.0246447
0.0246022
-0.0362418
-0.0318749
-0.0271912
-0.0222528
-0.0171856
-0.0119808
-0.00666825
-0.00146692
0.00313801
0.00937978
0.0143975
0.0177078
0.0184566
0.0193367
0.0208515
0.0217875
0.0222843
0.0226619
0.0637453
-0.0331623
-0.0293054
-0.0251183
-0.0206754
-0.01612
-0.0114984
-0.00687999
-0.0024656
0.0016204
0.00532987
0.0107458
0.0136062
0.014567
0.016302
0.017729
0.0187121
0.0195887
0.0204501
0.12516
-0.0303332
-0.0269422
-0.0232346
-0.0192818
-0.0152306
-0.0111488
-0.00710892
-0.00324126
0.000362907
0.00365524
0.00661083
0.0092288
0.0117541
0.0137708
0.0152289
0.0159915
0.0169704
0.0197874
0.126893
-0.0277721
-0.0248057
-0.0215468
-0.0180558
-0.0144728
-0.0108705
-0.00731747
-0.00390556
-0.00070686
0.0022329
0.00488858
0.00724586
0.00932284
0.0114253
0.0127105
0.0136657
0.0147436
0.0209005
0.12914
-0.0254365
-0.0228572
-0.0200106
-0.0169431
-0.0137828
-0.0106006
-0.00745901
-0.00442934
-0.00157177
0.00107108
0.00347258
0.005617
0.00749464
0.00911539
0.0104967
0.0117219
0.0129131
0.020846
0.131632
-0.0232429
-0.0210198
-0.0185501
-0.015867
-0.0130858
-0.0102727
-0.00748442
-0.00478111
-0.00221532
0.000173181
0.0023577
0.00432286
0.00606319
0.00758831
0.0089313
0.010158
0.0114282
0.0190664
0.134373
-0.0211012
-0.0192108
-0.0170864
-0.0147525
-0.0123132
-0.0098295
-0.00735315
-0.00493725
-0.00262922
-0.000466328
0.00152568
0.00333241
0.00495117
0.00639419
0.00769313
0.00891275
0.0102294
0.0140869
0.137483
-0.0189473
-0.0173696
-0.0155622
-0.0135471
-0.0114201
-0.00923689
-0.00704472
-0.00489147
-0.00282052
-0.000866598
0.000946269
0.00260561
0.00411164
0.00547895
0.00673772
0.0079478
0.00928564
0.0111351
0.139866
-0.0167592
-0.0154723
-0.0139556
-0.012233
-0.0103947
-0.00849094
-0.00656474
-0.00465934
-0.00281427
-0.00106131
0.000578166
0.00209486
0.00349317
0.00479229
0.00602564
0.0072565
0.00865849
0.0105968
0.121247
-0.0145564
-0.0135341
-0.0122817
-0.0108279
-0.00925777
-0.00761677
-0.0059433
-0.00427616
-0.00265086
-0.00109561
0.000371777
0.00174648
0.00303914
0.00427793
0.00551057
0.00682793
0.00844359
0.0106874
0.0250966
-0.0123884
-0.0115997
-0.0105848
-0.00937636
-0.00805485
-0.00666052
-0.00522744
-0.00379001
-0.00237955
-0.00102027
0.000274084
0.00150378
0.0026869
0.00386361
0.00510405
0.00654385
0.00847175
0.0112141
0.0142292
-0.0103179
-0.00972913
-0.00892402
-0.00793699
-0.00684313
-0.00567787
-0.00447112
-0.00325304
-0.00205085
-0.00088491
0.000234891
0.00131323
0.00237439
0.00346838
0.004683
0.00618696
0.00831554
0.0113411
0.0691905
-0.00840574
-0.00798266
-0.00735888
-0.00656808
-0.00567914
-0.00472298
-0.00372564
-0.0027134
-0.00170975
-0.000731809
0.000213394
0.00113325
0.00205531
0.00303379
0.00416138
0.00561088
0.00771633
0.0174148
0.101944
-0.00669862
-0.00640853
-0.00593782
-0.00531742
-0.00460927
-0.00384015
-0.00303254
-0.00220925
-0.00139069
-0.000591572
0.000182636
0.000940146
0.00170879
0.00254214
0.00352782
0.00482045
0.00672159
0.0255207
0.103073
-0.00522342
-0.00503677
-0.00469224
-0.00421673
-0.00366476
-0.00305934
-0.00241967
-0.0017656
-0.00111512
-0.000481441
0.000130369
0.000727869
0.00133744
0.00201018
0.00282711
0.00392543
0.005581
0.0159843
0.103879
-0.00398705
-0.0038785
-0.00363564
-0.00328077
-0.00286084
-0.00239531
-0.00190055
-0.00139389
-0.000891595
-0.000406178
5.67832e-05
0.000503262
0.000957625
0.00146969
0.00212023
0.00305074
0.00455473
0.0069912
0.0365737
-0.00298028
-0.00292898
-0.00276618
-0.00250957
-0.00219864
-0.00184962
-0.00147636
-0.00109416
-0.000718124
-0.000360807
-2.91868e-05
0.000280154
0.000588949
0.000947197
0.00144396
0.0022481
0.00370458
0.00769849
0.00892652
-0.00218325
-0.00217229
-0.00207082
-0.0018923
-0.00166903
-0.00141429
-0.0011397
-0.000858814
-0.000585998
-0.000334463
-0.000113666
7.5549e-05
0.000249985
0.000458197
0.000799281
0.00148456
0.00290067
0.00542708
0.00819623
-0.00157042
-0.00158595
-0.00152969
-0.00141146
-0.00125673
-0.00107602
-0.000878836
-0.000677043
-0.000484276
-0.000314726
-0.000181332
-9.15594e-05
-3.80011e-05
2.05134e-05
0.000186345
0.000717043
0.00203278
0.00446282
0.00713162
-0.00111433
-0.00114463
-0.00111981
-0.00104663
-0.000944062
-0.000819893
-0.000681455
-0.000538602
-0.000403771
-0.000291655
-0.000218677
-0.000200604
-0.000246258
-0.000337664
-0.000395063
-8.40635e-05
0.00107992
0.00331707
0.00581713
-0.000787505
-0.000822136
-0.000817112
-0.000776471
-0.000712822
-0.000631094
-0.000536203
-0.000435461
-0.000339053
-0.000260521
-0.000217452
-0.000232506
-0.000342002
-0.000601492
-0.00103552
-0.00107635
2.8038e-05
0.0020434
0.0042861
-0.000561699
-0.0005909
-0.000596123
-0.000578254
-0.000543389
-0.000493504
-0.000430943
-0.000359996
-0.000287379
-0.00022302
-0.000181237
-0.000185412
-0.000310658
-0.000794659
-0.00200423
-0.00254188
-0.000487353
0.00108674
0.00256113
-0.00038902
-0.000416209
-0.000429504
-0.000428622
-0.000414632
-0.000387997
-0.000349999
-0.000303091
-0.000251101
-0.000200172
-0.000161266
-0.000157182
-0.000279833
-0.000902963
-0.00309121
-0.00254468
0.00025188
0.00150183
0.00151842
)
;

boundaryField
{
    leftWall
    {
        type            fixedFluxPressure;
        gradient        uniform 0;
        value           nonuniform List<scalar> 
50
(
726.173
726.109
725.898
725.538
725.031
724.366
723.547
722.555
720.698
619.204
96.4478
5.00672
5.65926
4.04691
1.45719
0.264715
0.219128
0.18327
0.15105
0.12337
0.100242
0.0811428
0.0654348
0.0526289
0.0423097
0.0339681
0.0273869
0.0223123
0.0184901
0.0155795
0.0134581
0.0119336
0.0953549
0.108419
0.0710045
0.0013078
-0.000637682
-0.000965818
-0.00125849
-0.00153918
-0.00179682
-0.00201827
-0.0021902
-0.00230159
-0.00234275
-0.00230305
-0.00216652
-0.00190783
-0.00148823
-0.000891639
)
;
    }
    rightWall
    {
        type            fixedFluxPressure;
        gradient        uniform 0;
        value           nonuniform List<scalar> 
50
(
731.724
732.173
732.696
732.25
731.833
731.694
731.97
732.497
733.317
621.988
251.239
0.845507
0.447711
0.405323
0.48846
0.470416
0.235318
0.133878
0.127812
0.170861
0.201824
0.195028
0.189159
0.185226
0.180197
0.0538859
0.0246022
0.0637453
0.12516
0.126893
0.12914
0.131632
0.134373
0.137483
0.139866
0.121247
0.0250966
0.0142292
0.0691905
0.101944
0.103073
0.103879
0.0365737
0.00892652
0.00819623
0.00713162
0.00581713
0.0042861
0.00256113
0.00151842
)
;
    }
    lowerWall
    {
        type            fixedFluxPressure;
        gradient        uniform 0;
        value           nonuniform List<scalar> 
62
(
726.173
726.559
727.668
729.411
731.744
734.623
738.031
741.947
746.349
751.198
756.447
762.037
767.891
773.896
779.885
785.625
790.731
794.388
796.896
799.422
799.846
797.513
793.052
793.052
792.106
790.596
788.589
786.339
783.437
778.703
775.692
801.847
801.49
811.058
814.691
810.45
810.646
811.449
811.956
812.8
815.309
829.911
833.17
810.45
810.224
807.943
802.244
793.017
781.399
768.447
756.065
747.402
745.142
743.17
737.971
732.018
726.498
721.597
722.573
728.268
732.082
731.724
)
;
    }
    atmosphere
    {
        type            totalPressure;
        rho             rho;
        psi             none;
        gamma           1;
        p0              uniform 0;
        value           nonuniform List<scalar> 
46
(
0
0
0
0
0
0
0
0
0
0
0
0
0
0
0
0
-9.4914e-08
-8.89373e-06
-3.51722e-05
-7.38479e-05
-0.000118945
-0.00016576
-0.000210354
-0.000238826
-0.000256354
-0.000273138
-0.000289296
-0.000315489
-0.000344728
-0.00036317
-0.00036891
-0.000361695
-0.000342562
-0.000313414
-0.000276592
-0.000234511
-0.000189439
-0.000143443
-9.85267e-05
-5.71193e-05
-2.23983e-05
-9.33391e-07
0
0
0
0
)
;
    }
    defaultFaces
    {
        type            empty;
    }
}


// ************************************************************************* //
