/*--------------------------------*- C++ -*----------------------------------*\
| =========                 |                                                 |
| \\      /  F ield         | OpenFOAM: The Open Source CFD Toolbox           |
|  \\    /   O peration     | Version:  2.3.0                                 |
|   \\  /    A nd           | Web:      www.OpenFOAM.org                      |
|    \\/     M anipulation  |                                                 |
\*---------------------------------------------------------------------------*/
FoamFile
{
    version     2.0;
    format      ascii;
    class       volScalarField;
    location    "1.5e-05";
    object      alpha.fuel;
}
// * * * * * * * * * * * * * * * * * * * * * * * * * * * * * * * * * * * * * //

dimensions      [0 0 0 0 0 0 0];

internalField   nonuniform List<scalar> 
7500
(
1
1
1
1
1
1
1
1
1
1
1
1
1
1
1
1
1
1
1
1
1
1
1
1
1
1
1
1
1
1
1
1
1
1
1
1
1
1
1
1
1
1
1
1
1
1
1
1
1
1
1
1
1
1
1
1
1
1
1
1
1
1
1
1
1
1
1
1
1
1
1
1
1
1
1
1
1
1
1
1
1
1
1
1
1
1
1
1
1
1
1
1
1
1
1
1
1
1
1
1
1
1
1
1
1
1
1
1
1
1
1
1
1
1
1
1
1
1
1
1
1
1
1
1
1
1
1
1
1
1
1
1
1
1
1
1
1
1
1
1
1
1
1
1
1
1
1
1
1
1
1
1
1
1
1
1
1
1
1
1
1
1
1
1
1
1
1
1
1
1
1
1
1
1
1
1
1
1
1
1
1
1
1
1
1
1
1
1
1
1
1
1
1
1
1
1
1
1
1
1
1
1
1
1
1
1
1
1
1
1
1
1
1
1
1
1
1
1
1
1
1
1
1
1
1
1
1
1
1
1
1
1
1
1
1
1
1
1
1
1
1
1
1
1
1
1
1
1
1
1
1
1
1
1
1
1
1
1
1
1
1
1
1
1
1
1
1
1
1
1
1
1
1
1
1
1
1
1
1
1
1
1
1
1
1
1
1
1
1
1
1
1
1
1
1
1
1
1
1
1
1
1
1
1
1
1
1
1
1
1
1
1
1
1
1
1
1
1
1
1
1
1
1
1
1
1
1
1
1
1
1
1
1
1
1
1
1
1
1
1
1
1
1
1
1
1
1
1
1
1
1
1
1
1
1
1
1
1
1
1
1
1
1
1
1
1
1
1
1
1
1
1
1
1
1
1
1
1
1
1
1
1
1
1
1
1
1
1
1
1
1
1
1
1
1
1
1
1
1
1
1
1
1
1
1
1
1
1
1
1
1
1
1
1
1
1
1
1
1
1
1
1
1
1
1
1
1
1
1
1
1
1
1
1
1
1
1
1
1
1
1
1
1
1
1
1
1
1
1
1
1
1
1
1
1
1
1
1
1
1
1
1
1
1
1
1
1
1
1
1
1
1
1
1
1
1
1
1
1
1
1
1
1
1
1
1
1
1
1
1
1
1
1
1
1
1
1
1
1
1
1
1
1
1
1
1
1
1
1
1
1
1
1
1
1
1
1
1
1
1
1
1
1
1
1
1
1
1
1
1
1
1
1
1
1
1
1
1
1
1
1
1
1
1
1
1
1
1
1
1
1
1
1
1
1
1
1
1
1
1
1
1
1
1
1
1
1
1
1
1
1
1
1
1
1
1
1
1
1
1
1
1
1
1
1
1
1
1
1
1
1
1
1
1
1
1
1
1
1
1
1
1
1
1
1
1
1
1
1
1
1
1
1
1
1
1
1
1
1
1
1
1
1
1
1
1
1
1
1
1
1
1
1
1
1
1
1
1
1
1
1
1
1
1
1
1
1
1
1
1
1
1
1
1
1
1
1
1
1
1
1
1
1
1
1
1
1
1
1
1
1
1
1
1
1
1
1
1
1
1
1
1
1
1
1
1
1
1
1
1
1
1
1
1
1
1
1
1
1
1
1
1
1
1
1
1
1
1
1
1
1
1
1
1
1
1
1
1
1
1
1
1
1
1
1
1
1
1
1
1
1
1
1
1
1
1
1
1
1
1
1
1
1
0.99909691
0.9976019
0.9955303
0.99230698
0.98732515
0.97712728
0.93635368
1
1
1
1
1
1
1
1
1
1
1
1
1
1
1
1
1
1
1
1
1
1
1
1
1
1
1
1
1
1
1
1
1
1
1
1
1
1
1
1
1
1
1
1
1
1
1
1
1
1
1
1
0.99967488
0.99508973
0.9862545
0.97232377
0.95147047
0.92419968
0.88154686
0.81971085
0.75604989
0.69903799
0.64873238
0.59398538
0.53490081
0.47427454
0.40998028
0.35067902
0.30571857
0.27723314
0.25968103
0.24167765
0.21890443
0.17751676
0.073252484
1
1
1
1
1
1
1
1
1
1
1
1
1
1
1
1
1
1
1
1
1
1
1
1
1
1
1
1
1
1
1
1
1
1
1
1
1
1
1
1
1
1
0.99156889
0.97442774
0.94746476
0.9098613
0.8427366
0.75690644
0.66746204
0.580903
0.48882557
0.40476303
0.32695055
0.26429717
0.20270797
0.14838861
0.09806375
0.040127624
8.7858671e-10
3.6404617e-10
3.6404616e-10
3.6404616e-10
3.6404618e-10
3.6404632e-10
3.6404632e-10
3.6404817e-10
3.6404673e-10
3.6404363e-10
3.6404301e-10
3.6404301e-10
3.6404328e-10
3.6404351e-10
3.6404374e-10
3.640438e-10
3.6404392e-10
1
1
1
1
1
1
1
1
1
1
1
1
1
1
1
1
1
1
1
1
1
1
1
1
1
1
1
1
1
1
1
1
1
1
0.98891623
0.95997881
0.91383315
0.8139486
0.69389932
0.57871641
0.46100708
0.34753094
0.24171302
0.1560373
0.091776598
0.0044444738
8.3547599e-10
7.5543277e-10
7.5543277e-10
7.5543277e-10
7.5543277e-10
7.5543278e-10
7.5543279e-10
7.554328e-10
7.5543282e-10
7.5543284e-10
7.5543289e-10
7.5543291e-10
1.6091445e-09
2.1569623e-09
2.0549517e-09
1.9295814e-09
1.555005e-08
6.5648787e-08
4.6436185e-10
4.5153868e-07
6.6544462e-07
2.7659021e-07
7.3364414e-10
7.7004656e-10
9.1579988e-08
8.0076677e-08
8.0156331e-08
3.1748304e-08
1.7919096e-08
1
1
1
1
1
1
1
1
1
1
1
1
1
1
1
1
1
1
1
1
1
1
1
1
1
1
1
1
0.98242162
0.93160972
0.8169587
0.67690474
0.52470805
0.36535937
0.23264085
0.12336078
0.00077581945
3.1378461e-09
3.1256985e-09
3.1256985e-09
3.1256988e-09
3.1256988e-09
3.1256989e-09
3.1256989e-09
3.1256989e-09
3.1256997e-09
3.3885158e-09
3.6920952e-09
4.1199515e-09
4.3989469e-09
5.196142e-09
5.3202265e-09
6.778759e-09
6.6902391e-09
7.4142759e-09
7.528437e-09
7.8522218e-09
8.2320986e-09
8.4931066e-09
7.7835097e-09
5.5300934e-09
9.1252328e-10
6.0642885e-06
3.8548047e-06
1.9405194e-08
9.7870077e-10
8.8816393e-10
2.7427888e-05
2.8878583e-05
2.4662847e-05
2.2174533e-06
1.58838e-05
6.5288638e-06
1.8413202e-08
1.8187509e-08
1
1
1
1
1
1
1
1
1
1
1
1
1
1
1
1
1
1
1
1
1
1
1
0.9767103
0.90030025
0.74007402
0.5598945
0.36731067
0.2063076
0.031630599
3.9560219e-09
3.6297912e-09
3.6297912e-09
3.6297913e-09
3.6297913e-09
3.6297914e-09
3.6297986e-09
4.7612107e-09
5.5564123e-09
5.4769576e-09
9.7653886e-08
2.7425977e-08
1.1012041e-08
8.6693099e-09
8.0876248e-09
7.9532775e-09
7.9090511e-09
8.0214894e-09
7.1562917e-09
7.3848084e-09
9.6219844e-09
1.5088457e-08
2.1556531e-08
1.1447927e-08
1.8423861e-08
7.8919237e-09
8.1149835e-09
8.5880824e-09
8.5214832e-09
6.856458e-09
3.3775186e-09
1.239586e-09
1.6189122e-07
8.3139178e-06
1.6479021e-09
1.3354256e-09
1.2341215e-09
1.5147568e-09
0.00011215476
5.1661418e-05
2.8015254e-09
2.4135644e-09
2.4134887e-09
6.3008111e-05
0.003958151
1
1
1
1
1
1
1
1
1
1
1
1
1
1
1
1
1
1
1
0.9643354
0.84785044
0.63868427
0.40451279
0.19257348
4.9610262e-09
3.7402399e-09
3.7402399e-09
3.7402585e-09
3.7402983e-09
3.7403012e-09
3.8233799e-09
5.772601e-09
9.1318438e-09
1.204081e-08
1.5422757e-08
1.6835128e-08
1.5427485e-08
1.3519705e-08
1.1419319e-08
5.4786318e-09
3.2704485e-06
9.1861387e-07
7.8108688e-07
4.1355746e-07
7.3519903e-09
7.7412077e-09
8.214422e-09
8.3085806e-09
6.0078486e-09
5.4415562e-09
5.7376697e-09
5.7439787e-09
6.9021501e-08
3.875683e-09
1.2688641e-06
2.7164973e-06
6.4445949e-09
6.0298982e-09
6.0626598e-09
5.6588225e-09
1.9349631e-07
3.9805949e-05
4.7787858e-09
0.0023536845
0.016898096
0.036928111
0.023216829
0.001177562
4.5279785e-09
9.0911407e-07
5.7112007e-09
2.6932345e-09
2.687803e-09
0.0015058542
0.0059161632
1
1
1
1
1
1
1
1
1
1
1
1
1
1
1
1
0.92090864
0.72278705
0.45971006
0.16036861
4.9580898e-09
3.9406949e-09
3.9406948e-09
3.9406948e-09
4.6437053e-09
4.6731403e-09
4.6447049e-09
4.9267552e-06
3.9892554e-06
1.274597e-07
5.9614827e-09
2.0587324e-08
2.4942525e-08
1.2600103e-08
1.28023e-08
1.4018123e-08
1.2043494e-08
1.3646732e-08
1.2456847e-08
9.0855583e-09
6.4168785e-09
2.643721e-06
7.7352361e-09
7.2084493e-09
6.7786642e-09
5.9576591e-09
5.5636075e-09
5.6073313e-09
5.5948347e-09
5.219672e-09
7.3985456e-09
4.9045373e-07
6.2011546e-07
3.8565201e-09
3.287222e-09
2.621976e-05
8.797448e-05
0.00030236122
0.00068086956
0.00017627522
9.7921933e-09
0.0011909769
4.9265264e-09
5.1444132e-09
0.059791602
0.06294004
0.062962386
0.050695941
0.00670153
0.00012507701
2.3977667e-09
0.0023456032
0.0040490243
0.00090314454
3.5588344e-09
1
1
1
1
1
1
1
1
1
1
1
1
1
0.92938128
0.7146099
0.40659698
0.047743831
4.1323559e-09
3.8886054e-09
3.8905771e-09
4.3092443e-09
2.1929004e-08
4.6737496e-09
4.6640719e-09
8.6243327e-05
0.0018974884
0.0019116615
0.00048635301
2.5135125e-08
2.5439137e-08
5.582915e-08
1.2831362e-08
1.306221e-06
1.1665662e-06
4.1631575e-07
7.3099054e-09
6.756131e-09
6.1783569e-09
5.6705638e-09
6.1997156e-09
6.6608802e-09
7.2251061e-09
0.027896274
0.005587143
7.1387607e-09
2.2944761e-05
3.6576909e-05
9.2133297e-07
6.2269246e-09
5.6134543e-09
8.588492e-06
5.8772213e-07
1.9874181e-08
1.7356111e-06
5.4674615e-07
3.2865964e-09
0.00025531647
0.001388597
0.0013866328
0.00077151769
6.1365197e-06
7.8660171e-09
0.011668271
0.0018313133
1.2086749e-09
1.2643292e-09
0.042700397
0.05211265
0.017195562
1.2509637e-08
0.003814947
0.0094263479
0.0094263478
0.0060196745
3.7985674e-09
1
1
1
1
1
1
1
1
1
1
1
0.8692377
0.54481925
0.10112871
4.2166264e-09
3.510509e-09
3.5105091e-09
3.7239156e-09
3.8866875e-09
4.7295411e-09
5.1370229e-09
7.7730717e-08
5.9708374e-05
0.00040269855
0.0024450089
0.0032926623
0.0032926623
3.1377385e-05
2.4477616e-08
4.0409459e-08
1.3512408e-08
1.2755823e-08
3.1491068e-09
1.77972e-05
2.3508692e-07
0.0003412445
0.00047501688
0.00018513133
0.00030349645
6.7237084e-09
0.0085133683
0.036039222
0.069112839
0.069112839
0.023485773
0.00037522591
1.9792979e-08
6.1731397e-09
0.028520149
0.0082807592
3.1448905e-08
5.5589926e-08
1.9711765e-08
4.590053e-06
3.1813294e-06
3.7419518e-09
4.0422713e-09
8.7440904e-06
2.0385991e-09
0.0010732357
8.1702346e-09
7.865627e-09
1.5920932e-05
1.2201553e-09
1.1992641e-09
1.1568845e-09
0.0053091537
1.9466386e-09
1.9447122e-09
0.00019798835
8.2589889e-05
0.0026730671
0.004238458
0.0019395795
0.0001936967
1
1
1
1
1
1
1
1
1
0.84891666
0.45661494
0.0037347618
4.3754222e-09
4.3369418e-09
6.1270474e-09
9.3404641e-09
1.1374728e-08
4.5922129e-09
5.0038097e-09
0.00070173684
6.1802228e-06
3.3458928e-09
0.0028210228
0.0028779406
3.3446058e-09
0.0026673059
0.00086223805
8.3447679e-08
1.0787164e-07
4.1422671e-08
3.4820806e-05
3.9634948e-09
3.1465307e-09
3.1465451e-09
0.00027347568
0.0011489196
0.0011427406
0.00077755776
2.1205371e-05
6.0202385e-09
0.038787574
0.063306308
0.041561314
0.066104647
0.071331905
0.01530352
1.0867618e-08
0.0015846642
0.031377699
0.027443076
0.0016658619
2.1486501e-08
7.9933431e-07
1.5480203e-07
4.4764932e-09
4.1692393e-09
0.00032971996
3.6872831e-05
2.0346556e-09
1.5345465e-09
0.0026506583
0.0028318129
0.0017945829
2.9042104e-06
1.4393475e-09
1.3959853e-09
1.6224568e-09
1.8423231e-09
1.4722313e-06
5.8129197e-06
1.1654366e-09
9.3857093e-10
8.6878279e-10
8.7941324e-10
0.00043199403
1
1
1
1
1
1
1
0.89466248
0.51212199
0.0092453231
5.6821374e-09
5.5822474e-09
5.5673265e-09
1.575667e-06
6.7958093e-06
1.102732e-08
1.1964138e-08
0.00010370897
0.0031653108
0.005162932
0.00097860425
3.3445617e-09
3.3445617e-09
4.1027909e-06
3.4501541e-09
0.00032494962
3.3856874e-09
2.3626872e-05
5.7617446e-06
0.00027347923
7.9066222e-05
0.010705436
0.0012216484
3.8297497e-09
0.00011973999
3.1359937e-05
3.622332e-09
4.8018939e-06
3.6353515e-09
0.0088984229
1.2049343e-07
4.2362282e-08
4.2679114e-08
4.2756311e-08
0.021377515
0.015110006
0.00097488899
0.00036738842
1.8583901e-08
0.03610882
0.036638347
0.0017645206
1.9236554e-09
1.8059374e-09
0.00013319093
0.00095392238
0.0011144404
0.00072247895
1.9058365e-09
1.5345475e-09
0.00074762967
0.0028341754
0.0015873878
2.0486457e-09
1.7424813e-09
1.6466453e-09
1.6227373e-09
0.00035095912
0.00013880185
1.4610519e-09
1.1046214e-09
0.0052496947
0.0024909974
2.9059502e-05
9.7818995e-10
1
1
1
1
1
1
0.73827767
0.10817333
3.3849509e-08
3.3094707e-08
4.3050142e-05
3.6482878e-05
2.3988901e-06
0.00028096203
1.5634529e-06
0.012453831
0.0010050535
0.0011860382
0.0053782299
0.0042979659
0.0027573974
3.3445617e-09
3.3445617e-09
3.3487414e-09
3.2600339e-08
2.0803891e-09
2.7025707e-09
3.6209547e-05
0.0005212975
0.00052227276
8.0009603e-05
0.013944451
0.0024471973
4.6015545e-09
3.9115314e-09
3.8743316e-09
3.6147798e-09
3.6250368e-09
3.6334513e-09
0.0035898643
0.0043710738
0.027887283
0.062798551
0.033883805
1.4761199e-06
5.0043917e-08
8.5059996e-06
1.8806872e-08
1.8777134e-08
0.030610544
0.036638347
0.023236798
0.0083457159
4.5637444e-05
0.00075983745
0.0012997652
0.00029396809
2.6307712e-05
6.6990411e-08
1.7337122e-09
1.4777329e-09
2.5734315e-05
2.7389258e-09
0.0024420223
0.00897905
0.0024029087
0.0033424004
0.0030944802
1.8639296e-09
0.00066023582
0.011862321
0.011963005
0.0091436119
4.3668093e-09
4.0384248e-09
1
1
1
1
0.96844895
0.48456588
2.7688702e-08
2.5407711e-08
0.00017375559
0.00021719208
0.00021879792
0.00021837695
3.058978e-05
0.00017144722
0.0043310673
0.013502735
0.0088668685
0.00029688699
0.0010102097
3.3446482e-09
3.3446488e-09
3.3447036e-09
0.00074464157
0.00074274787
2.00447e-08
2.0802987e-09
2.0802527e-09
2.1970944e-09
2.2084211e-09
0.00013485044
0.0057302888
3.2962124e-05
0.0076318231
0.00017229923
1.4045032e-06
9.6833449e-06
3.7446962e-09
0.00018983467
5.1604245e-05
3.9921078e-09
3.5335656e-09
0.076419734
0.080837492
0.081153992
0.0050783798
0.00042671097
9.4409487e-06
0.0071968744
0.00165928
0.0092689036
0.036638347
0.036638347
0.036638347
0.015774256
1.5854085e-06
7.5651879e-10
1.061557e-09
1.0762895e-09
1.3446577e-09
1.4844917e-09
1.2151641e-09
1.2299285e-09
0.0014680806
0.014217883
0.014735574
0.0071071638
5.0798804e-06
1.4258781e-09
1.557218e-09
1.5771438e-09
0.0039668587
0.0099906249
0.0034344479
4.7917935e-06
4.285927e-09
1
1
1
0.95673703
0.26448443
3.1699589e-08
3.0105646e-08
0.00025310071
0.0009246278
0.00092349866
6.4511989e-05
6.4818464e-09
8.171762e-09
0.0015806763
0.00718394
0.0014591794
0.00065501161
0.00027265441
4.4209863e-09
4.3389338e-09
4.2353911e-09
4.6719445e-09
5.974723e-06
0.00038192058
0.0022850589
0.0031946816
0.00029300936
0.00078090366
2.0661999e-06
2.1358437e-09
0.0084617579
0.00018669449
0.0089432934
0.00054200949
3.4297026e-09
4.8911278e-05
5.4460856e-06
3.1551863e-05
4.7996831e-08
1.2479034e-05
0.00075367902
1.0656362e-08
1.0739174e-08
0.03523938
0.0022112961
0.0045954819
0.0045756041
0.0038469182
3.3084016e-08
0.0016025876
0.010992904
0.00091104035
0.0052255312
0.015368634
0.0027898323
7.5624771e-10
0.0018668273
0.0013294965
0.0022624495
0.0025119875
0.00012320223
1.2344623e-09
0.0093878433
0.011143154
0.0010382996
9.9802949e-10
1.0938423e-09
5.983024e-08
1.7491413e-09
1.5618617e-09
1.4882343e-09
1.2965621e-09
1.0306262e-09
2.576187e-07
4.5526995e-09
1
1
0.98669118
0.24979539
3.2221665e-08
3.0216026e-08
0.00051228402
0.0019964362
0.00054450955
5.2044702e-09
5.1436865e-09
6.3109133e-09
0.00010459736
0.001007539
3.0298462e-09
3.0298467e-09
4.136472e-09
3.6101883e-05
2.0232863e-05
4.718503e-09
0.0014875755
5.0658962e-09
3.8863917e-09
3.8753219e-09
3.5961621e-09
0.0019671229
0.00011489932
0.00026158233
2.7300874e-09
2.1280614e-09
2.0112479e-09
2.0045995e-09
0.0089412052
0.00064078578
2.8926366e-09
2.4441277e-09
2.1577134e-05
9.2901969e-09
0.00093536629
5.1313026e-09
0.070580115
0.0021281846
0.010663249
0.011513925
0.036331886
0.0054233422
1.8102847e-09
1.57095e-09
2.5314607e-06
7.2056619e-10
7.039614e-10
6.0577104e-10
4.8154119e-10
4.8154113e-10
4.9353254e-10
4.941419e-10
0.0068941661
0.0069491392
0.0069109633
0.0067989649
0.0028572016
1.480164e-09
0.00052509512
1.27859e-09
9.9865784e-10
9.3894118e-10
8.9163471e-10
8.0710976e-08
6.0329389e-06
1.7578901e-09
2.8655374e-08
2.3805035e-09
7.9585053e-10
7.3475783e-10
0.0031388967
1
1
0.31509163
3.5319261e-08
3.2795249e-08
3.0215662e-08
0.0014869813
3.3260926e-08
3.3312305e-08
7.7759061e-06
6.999837e-09
1.2252628e-05
0.00012543695
0.00097891822
3.0298465e-09
3.3537221e-09
5.7669542e-05
0.00076943469
0.00034482986
0.0029177325
0.0038256029
0.0072171596
0.00045409193
0.0027444907
3.5961621e-09
3.5961623e-09
0.0024480973
2.4520006e-05
0.00078768333
2.331227e-09
4.375734e-05
2.0380356e-09
0.0063757781
0.0075960303
0.00047793516
2.4376615e-09
0.00063871291
0.0015636383
0.0016972438
0.0012611967
0.0038680531
0.034618362
0.051378718
0.010719544
0.023381376
0.0012974969
1.5976776e-09
1.1929843e-09
1.0999841e-09
0.016553378
0.0055064544
0.00043415216
9.5756014e-10
4.8155421e-10
3.4233399e-05
7.5971692e-10
9.1907071e-10
0.00010527832
8.2163327e-10
8.1879914e-10
0.00012202534
1.4881067e-09
0.00017934527
0.00041332882
8.9634699e-05
1.1398527e-09
1.0787615e-09
1.0874407e-09
0.00031317156
0.00010715251
7.4245037e-10
7.3497152e-10
7.3497142e-10
7.7750362e-10
0.012651295
1
0.64646164
0.025085414
0.00031599373
4.7360639e-07
3.2124635e-08
3.2078555e-08
3.2982141e-08
6.0918723e-08
4.5194791e-05
0.0003393541
1.0147272e-05
4.2360923e-06
0.00095522915
3.0587885e-09
1.153026e-06
8.9580859e-06
6.5308821e-09
6.530884e-09
0.0011868203
0.0010237938
0.0084091463
0.006166208
0.0014370552
3.5962053e-09
3.9302114e-09
0.0024589866
0.0024600276
0.0026040464
0.0026170494
0.00024233724
2.5638886e-09
7.5829203e-07
0.0075960302
0.0053206087
2.1691198e-09
1.4990572e-09
4.52489e-05
1.3808218e-09
1.1034836e-05
1.0403281e-08
0.04400207
0.051378719
0.017749946
1.5278836e-09
1.0792774e-09
4.2188447e-05
1.1878521e-09
1.4410619e-09
0.013875095
0.014182717
0.010008256
1.0614447e-09
7.4680929e-10
1.0039768e-09
0.005373831
0.0062742339
0.0021699258
1.1633e-09
8.7184538e-10
8.197754e-10
0.011490138
0.018770716
0.01032223
7.4518853e-09
1.2265638e-05
0.0001055618
9.855855e-05
4.9985866e-09
0.0012361828
0.0047201827
0.0047212414
0.0021217388
0.0034748765
0.015731925
0.97059112
0.081103482
1.3041216e-07
1.2762098e-07
0.00039660815
0.00011699586
3.3410878e-08
3.7154937e-08
1.6319966e-08
3.8233516e-05
0.0005379921
2.3823087e-05
0.00052312935
0.00042717677
1.3830671e-07
4.0513124e-06
8.0227711e-09
6.9445756e-09
6.9879391e-09
7.9227429e-09
0.0024490263
0.0084091472
4.2262903e-05
5.1346813e-09
4.2895827e-09
0.00028403328
4.0811176e-05
5.3276823e-05
1.9669381e-07
0.00056157181
3.8431376e-09
3.2360535e-09
3.1986889e-09
0.00093150685
2.192839e-09
2.1787546e-09
1.4990659e-09
1.5452231e-09
1.4568298e-09
1.4494334e-09
0.00063457841
0.00010073657
0.010558456
0.0048749672
4.2351037e-05
1.3689683e-09
1.0792981e-09
0.0077603956
0.007463024
0.0019668774
1.5767447e-05
6.8237566e-10
0.0023906258
0.0055374812
0.0064907203
0.01836927
0.018298473
0.0032575602
1.1722936e-09
9.5400978e-10
8.1904611e-10
0.0034955911
0.007056678
0.0018695407
2.1528514e-05
6.2709474e-10
0.00063993049
0.00080845366
0.00028326551
1.3348774e-05
0.0022790646
0.0019254183
6.8818028e-10
0.011514088
0.015731925
0.3225391
1.4715876e-08
1.2953854e-07
1.3482816e-05
4.5329872e-06
0.0004325839
5.7059801e-06
1.2802855e-08
1.495967e-08
5.4221443e-05
0.00038140494
9.3222968e-06
0.00019934496
6.9957826e-09
5.6440153e-09
2.9336611e-06
6.9711964e-09
7.7662922e-09
7.8734739e-09
1.7389441e-06
0.0016243834
0.0016854719
5.1662411e-08
2.468752e-05
0.0027576359
0.0016140023
1.6878793e-05
0.00073082986
8.7276512e-05
2.8357347e-09
6.5077452e-05
0.0037590717
3.1633936e-09
2.8739423e-09
2.5516056e-09
0.0018897953
8.6387765e-05
0.00023250886
1.5685327e-09
0.0083727013
0.01191282
0.00073553309
9.6711892e-10
9.8489378e-10
6.2889089e-06
1.6497705e-09
1.4346201e-09
5.7328352e-05
4.6486328e-09
4.7977994e-09
4.6290925e-06
6.8363103e-10
0.011096048
0.018176238
0.018209615
0.010407032
1.2558965e-09
1.0247331e-06
3.5995915e-09
1.1966939e-09
1.0304612e-09
1.1095046e-09
9.0693835e-10
7.0135544e-10
2.0713346e-07
2.222139e-09
5.4798543e-10
2.1070968e-05
1.8016168e-05
1.0216658e-06
6.6025232e-10
6.5108957e-10
6.280103e-10
0.0065929116
0.0044703023
0.10236627
1.0630079e-08
4.4009713e-06
5.9181265e-05
1.7299139e-05
2.3316984e-05
1.7035525e-08
5.170393e-08
3.1331709e-07
1.472605e-05
8.0639776e-09
0.00026058684
8.2800074e-09
6.7302754e-09
5.4881847e-09
1.3405924e-07
0.0074160892
0.00019912522
0.00085333331
1.0650504e-08
0.0006188313
4.6477848e-09
8.3729264e-07
3.5444393e-05
0.0084362128
2.044834e-08
2.0261032e-08
0.0033567288
0.00024109913
2.2967933e-09
0.0046025348
0.0053834536
0.0019820954
0.0013824836
6.9843096e-05
0.0021490148
0.00088861343
0.00025351307
2.5268788e-09
0.00055298045
9.8789188e-10
9.5693657e-10
9.5694593e-10
8.4731961e-05
1.6592408e-05
0.00032160208
0.0037897177
0.0024113798
0.0028020202
1.068935e-05
0.00011519195
3.1942529e-06
6.6277422e-10
7.0545175e-10
7.7438739e-10
8.7607938e-10
1.2059288e-09
1.4482769e-09
1.6363391e-09
0.00043127734
0.00019176267
1.7521572e-06
1.051403e-09
1.1091661e-08
2.3458832e-06
2.1783835e-07
7.1371133e-10
8.7285932e-10
8.9141526e-08
1.2629888e-07
4.7849357e-10
4.7598477e-10
0.0016766642
0.00020667821
7.6694712e-10
2.220148e-09
4.7388928e-09
2.0819737e-09
2.0820837e-09
2.083231e-09
3.8875522e-09
1.4236108e-08
5.8893555e-08
5.4735843e-07
1.0438306e-08
8.6228412e-09
0.00031277953
3.2320202e-06
5.7186826e-09
4.7966124e-09
3.054242e-09
0.013237527
0.0093858739
0.0049312943
0.0044537099
0.0053790853
4.7604673e-09
4.7650649e-09
0.00018641266
0.0084366904
0.00043258146
0.0022012392
0.00067368218
2.4758225e-09
2.2562954e-09
1.7602226e-09
1.7602225e-09
0.011668688
0.0058039279
0.0014670662
0.00037422039
0.00014181938
6.6143193e-07
4.6356954e-08
1.5472346e-09
1.1961805e-09
1.0566185e-09
1.3359542e-09
1.6642745e-09
1.6681565e-09
0.0042010306
0.0071666149
0.010461571
0.010849626
0.001872814
7.6119156e-10
4.122065e-10
6.974276e-10
0.0015702547
0.0026523452
0.0019492276
0.008432908
0.0050460891
0.00086773435
0.00085480197
0.00059106724
1.1283349e-09
8.3927503e-10
8.1236036e-10
7.2579018e-06
1.2087843e-05
4.5450219e-06
1.0846217e-08
2.8349201e-09
6.1199914e-10
0.00010401399
0.00011164753
9.6094318e-05
1.5181036e-05
1.1182975e-06
4.3106261e-06
7.0841071e-06
2.2398604e-09
1.1540803e-08
1.5309308e-08
2.243577e-08
2.5357016e-08
6.0072667e-08
9.6386138e-07
3.0247352e-05
4.0067747e-07
9.0061669e-09
5.1828491e-05
1.8449929e-07
0.00026233395
2.8227682e-06
0.013238089
1.0464586e-08
1.0462551e-08
1.1771422e-08
0.0037177448
1.9993171e-05
0.00057419602
0.0084329446
0.0030605633
0.0020711224
0.0038539822
0.00064907977
2.7534451e-09
2.2703061e-09
1.9006379e-09
1.773155e-09
0.0086108696
1.0961228e-09
8.1747007e-10
8.1738724e-10
9.4820547e-10
4.8473898e-06
2.4702633e-07
1.3241923e-09
1.5530494e-09
1.4792071e-09
0.017946694
0.012255974
1.9562158e-09
2.1057028e-09
2.1431995e-09
0.0066092408
0.010849626
0.0064790774
6.377538e-05
4.4413798e-10
0.0071435551
0.0083866443
0.011016235
0.010985315
0.010964175
0.010957547
0.010762813
3.3181452e-05
1.1630469e-09
1.111312e-09
7.2815078e-08
1.5288119e-07
2.7026857e-09
1.1363079e-05
3.6667371e-05
4.7142254e-06
1.4715111e-09
7.4853079e-05
0.0003654092
0.00036582827
0.00014125231
2.3528556e-10
6.318395e-11
8.849022e-05
9.2113559e-05
2.2751078e-09
1.5261512e-08
1.1077637e-08
1.108183e-08
1.3013619e-08
1.5141549e-08
1.7521042e-08
3.023345e-05
3.4761837e-07
6.8344583e-07
4.2447562e-05
1.7336173e-07
0.00028289793
6.9461566e-05
0.0034363459
1.0882863e-06
9.1328182e-07
4.9759106e-08
1.0194488e-08
9.2657949e-09
0.0084447258
0.0084455992
0.0004180516
5.0209118e-09
0.0038539818
0.00048317927
2.2222589e-09
2.1631036e-09
2.299721e-09
2.7809664e-06
1.0650093e-06
6.2286424e-06
8.052778e-08
1.3374479e-09
0.0014563206
1.9272571e-05
1.3186582e-09
1.0180402e-09
0.019536997
0.032805384
0.032957763
0.032957763
0.011223928
0.0025422223
0.00064083451
0.0085181631
0.0042700073
0.0071428954
0.0019250144
5.6918927e-10
0.013179413
0.0039211275
0.0033724323
6.4960749e-10
5.9783942e-10
5.9783941e-10
5.9788845e-10
6.2939958e-10
3.3590562e-05
9.571347e-05
5.3944407e-05
5.2070569e-05
2.5858193e-05
5.6975612e-09
5.6760631e-09
3.1267264e-05
4.896554e-06
4.9253415e-06
5.0490742e-10
4.9860894e-10
2.8078222e-06
1.0978231e-06
2.0727212e-10
1.1382084e-08
9.1824115e-05
2.618704e-08
2.6138376e-08
1.3396883e-08
5.0992518e-06
1.2185426e-05
1.7458988e-05
1.3144084e-05
5.4750296e-09
1.1829908e-08
3.0500926e-07
5.6357981e-09
4.1696889e-09
3.7575135e-05
4.097738e-05
0.0035848828
1.9585013e-05
3.135031e-06
9.2659931e-09
9.2657988e-09
9.2657956e-09
0.0024923766
0.0084456056
0.0084456118
7.8614864e-08
0.00065254161
7.029375e-06
2.1328509e-07
0.00025951473
0.00023510935
3.8252649e-05
2.3883672e-05
3.5010508e-05
1.8957999e-08
0.017313973
0.0010497432
0.00031683274
0.0025872408
1.0362248e-09
0.048290223
0.048103743
0.028369453
0.00010808847
0.0010403187
0.0072097454
0.0071964699
0.0017625715
1.8848719e-09
0.0038647672
0.0023332514
8.8005198e-07
6.8065565e-10
0.015442931
0.0013208654
9.2255293e-10
7.9095047e-10
6.0075331e-10
1.0958581e-06
1.2343184e-06
8.6588621e-08
4.9672823e-06
4.7027564e-09
2.968305e-10
0.0034565267
0.0085544166
0.0078011533
0.00021231468
8.2460815e-10
6.5057836e-10
7.0541094e-10
1.2523036e-09
2.8149396e-10
4.1972652e-10
8.6549926e-06
1.1201389e-08
1.0829807e-08
1.002846e-08
8.272589e-09
4.4357938e-06
2.3887612e-05
2.3680067e-05
2.3550811e-05
2.3486416e-05
5.4783921e-09
7.0534697e-09
6.4073066e-09
5.3534131e-09
6.8131699e-05
1.5214284e-08
4.2549941e-05
0.0016804414
6.6616225e-05
2.940624e-09
0.0033353416
0.00035765506
9.2976545e-09
0.00032648015
0.0071294698
0.0084456057
0.0046170547
1.979279e-09
1.9430333e-09
1.6053801e-09
0.010707988
0.003954792
5.1497894e-09
4.7164657e-09
0.0021593514
0.014522911
0.030425625
0.0041433195
1.2113689e-08
0.04715404
0.065953796
2.4140989e-05
3.7027251e-10
3.7020108e-10
6.6449506e-10
5.8152792e-10
5.4425436e-10
3.9671347e-10
3.9126039e-10
1.8416952e-09
6.5486111e-10
3.9169483e-10
0.00044489465
3.0207136e-06
0.017067341
0.017067341
0.0058833132
8.9744852e-10
6.022671e-10
4.0192056e-06
3.9698069e-06
6.1983446e-07
6.021413e-10
4.4820417e-10
2.9750122e-10
0.0021248648
0.010353396
0.010554068
0.0044294291
9.245019e-10
0.00052878391
1.1231153e-05
2.9022042e-10
1.6874653e-10
7.6748295e-05
0.00023608641
1.3532827e-08
3.9179692e-05
2.0472995e-05
6.5577029e-09
7.352246e-09
2.12431e-06
5.5039838e-09
5.504153e-09
5.5043993e-09
5.582959e-09
1.248818e-06
6.9252331e-05
1.2555662e-06
1.166693e-05
1.5346658e-08
0.00012038963
3.7007803e-09
2.865426e-09
2.8653937e-09
0.0024880591
0.00020461226
5.9309285e-07
0.00024361817
2.1841764e-09
0.0017677638
0.0063010882
1.5275282e-09
1.5275283e-09
1.9122316e-09
0.00017663653
2.103537e-08
1.0299641e-06
4.5778494e-09
0.001401257
0.025543652
0.015567847
0.007436196
1.2042441e-08
1.1995439e-08
0.034074953
0.0075515591
5.9751258e-10
3.7020117e-10
0.0095593894
0.015127648
0.0064790547
5.3575905e-05
5.9013782e-10
5.4009759e-09
1.1567364e-09
3.9169601e-10
0.00047668216
0.0062641539
0.0075158325
0.0071150549
0.0083793781
0.00067680101
1.9139778e-09
1.0675665e-07
3.5290188e-10
3.3366903e-06
8.057699e-10
5.159847e-05
6.9363868e-06
1.3919846e-10
1.3045607e-10
0.0023492589
0.0084644259
0.0056883298
1.5238663e-06
4.0394815e-05
2.2265186e-05
1.9249234e-10
0.0002491537
0.00026195155
1.0376056e-05
0.00028022637
0.00027656119
6.9257685e-09
3.1035364e-05
3.1499989e-05
5.7252045e-09
7.5342686e-09
8.5329959e-09
5.6256547e-09
2.9644472e-06
0.00023348483
5.9552995e-06
9.9203942e-06
4.1336591e-07
4.1126985e-05
9.4868594e-07
3.9429302e-09
3.4533375e-09
2.4046241e-09
1.577554e-09
1.2914352e-09
1.291995e-09
1.3965046e-09
1.3809921e-09
1.4078129e-09
0.0023699774
0.00091407383
0.00019313997
2.8517712e-08
3.1353067e-07
2.2239523e-06
6.5020856e-09
4.6000414e-09
4.4314369e-09
4.4310277e-09
0.012117287
0.0120759
0.0013856672
6.6680859e-10
3.2559088e-10
3.2559086e-10
3.7703046e-10
0.022158557
0.025511156
0.017012137
1.9199691e-09
3.0500623e-09
3.1841646e-09
2.8123953e-09
7.8559602e-10
3.9202973e-10
0.015096161
1.0806984e-05
5.6179607e-10
5.6160312e-10
5.8428795e-10
9.9853903e-06
1.4345728e-06
4.2969362e-10
2.4029899e-10
9.2644678e-05
0.00037030271
0.00034576175
3.6435147e-05
2.4919226e-10
9.3489172e-11
0.003577347
0.0016504631
8.6475658e-05
7.9817613e-05
4.8403621e-05
1.8595654e-10
2.6857013e-11
0.00024212713
0.00014397983
0.0002782162
0.00028020577
0.00026648807
5.1971571e-07
1.1105173e-06
5.6291892e-07
2.7082657e-06
7.3553869e-09
6.4497742e-09
3.2738124e-06
0.00021652337
5.0517915e-07
1.504031e-05
3.4940555e-07
1.5338776e-08
1.5123131e-08
0.00028948284
0.00030197657
2.6628833e-09
0.00063504926
1.3078635e-09
1.1498233e-07
1.295479e-09
1.0011728e-05
2.9501262e-05
0.00053312704
3.0421187e-05
0.0032604259
0.00019326347
1.7766241e-09
1.0225835e-06
4.5978561e-09
0.00068153992
1.7151856e-05
5.0275131e-09
0.0078385786
0.0056450033
0.003413628
0.00030710928
5.7429657e-10
3.2559113e-10
0.0019161488
1.202011e-05
0.01002229
1.3411682e-09
1.5339726e-09
1.7833606e-09
0.030727805
1.2928983e-09
9.5729668e-10
7.0208036e-10
0.011768951
0.0016866528
7.2913062e-10
6.640147e-10
5.8827087e-06
5.2324172e-06
1.9860641e-06
4.4819154e-10
3.0260124e-10
0.00019015321
0.00023488808
0.00030323436
0.00010844426
3.7475572e-10
2.1985578e-10
3.6092702e-10
4.8833651e-10
4.2016277e-06
9.4475692e-05
3.9436284e-05
1.4594587e-10
8.1435835e-12
0.0039782947
4.8352679e-09
5.0612791e-09
0.00012742381
4.8498886e-05
5.1697218e-07
7.8708376e-09
7.6364751e-09
2.9388794e-06
2.5293808e-06
3.7159943e-06
1.6095745e-06
8.5270164e-07
9.9438804e-05
0.00020840335
1.2504349e-07
9.6602899e-06
0.00029215995
0.00032117762
0.00032103379
0.00013411105
0.0084010582
1.348669e-09
1.2862314e-09
0.0044218075
0.0023501532
7.5686009e-05
5.307818e-08
5.273565e-08
0.0032603279
0.0010093581
1.3158673e-09
9.2285527e-10
0.005228886
0.0052645415
9.2956081e-05
0.00088019534
3.322954e-09
3.6365361e-09
3.5938755e-09
0.00013224827
1.1518972e-05
4.0672318e-10
0.00034593247
5.5366738e-05
8.4844027e-10
1.1641648e-09
3.0337604e-05
0.012715601
0.032113905
0.014314
0.020718196
0.0095066468
5.4833363e-10
3.7597168e-10
6.3256317e-10
5.8069089e-07
6.5847665e-11
2.3841252e-11
4.3894595e-06
0.0033750503
2.8976301e-05
3.8167392e-11
2.4262953e-11
1.9603797e-11
1.9603907e-11
1.1176165e-05
0.00070742432
4.9865007e-10
4.2813345e-10
4.38095e-10
7.3434901e-05
3.0633734e-05
1.8111808e-10
8.1436206e-12
0.0025709331
6.4072783e-09
6.3863836e-09
4.6771456e-09
5.6123437e-09
6.1466445e-09
6.1797536e-07
1.2900341e-08
8.7488746e-09
6.8220909e-05
0.00014121503
8.6225394e-07
1.9520647e-06
0.0002845794
0.00028457922
0.00020788056
0.0001044481
3.721839e-09
2.707981e-09
2.9695895e-09
0.0010188066
0.0084011346
1.3136006e-06
1.2862333e-09
0.0032673751
0.0015604059
0.0027918615
0.00038500483
5.2810894e-08
0.00070015281
0.0004692365
3.9362013e-06
1.4345876e-09
0.0041763727
0.00013049893
5.324981e-05
0.0015051913
1.4807122e-07
3.8851479e-09
3.9918461e-09
0.00053461166
8.091936e-05
5.0519892e-10
0.00068209845
0.00051270696
6.0586381e-10
0.0089749842
0.015937188
0.024468314
0.0026126241
0.03211391
0.032039519
0.0034604378
5.915694e-10
3.7628273e-10
2.4269009e-06
2.4157447e-06
2.6336256e-07
2.3401405e-11
2.31581e-06
0.013193648
0.0011522893
1.7989132e-10
2.2890059e-06
1.4835202e-10
1.3244324e-10
1.3580103e-11
0.0036801897
0.00061494821
4.2466356e-10
4.1221436e-10
7.3880057e-05
5.4194463e-06
3.1506698e-10
2.965141e-09
3.1087904e-09
8.4826138e-06
7.7896438e-05
3.2705651e-09
4.4796231e-09
4.3468357e-06
1.2256756e-05
3.4879576e-07
7.7387251e-05
9.9030587e-10
0.00014103782
3.0473418e-07
3.0427495e-07
0.00021123187
0.00028457902
0.00028362468
3.0458869e-08
3.141488e-08
3.3348981e-09
3.6401323e-09
0.0001860307
0.0060594231
0.0021223983
1.501314e-09
1.0200801e-09
4.531488e-10
0.0027889982
0.002783672
0.0016134653
4.7570281e-09
4.8222412e-09