/*--------------------------------*- C++ -*----------------------------------*\
| =========                 |                                                 |
| \\      /  F ield         | OpenFOAM: The Open Source CFD Toolbox           |
|  \\    /   O peration     | Version:  2.3.0                                 |
|   \\  /    A nd           | Web:      www.OpenFOAM.org                      |
|    \\/     M anipulation  |                                                 |
\*---------------------------------------------------------------------------*/
FoamFile
{
    version     2.0;
    format      ascii;
    class       volScalarField;
    location    "1.5e-05";
    object      p_rgh;
}
// * * * * * * * * * * * * * * * * * * * * * * * * * * * * * * * * * * * * * //

dimensions      [1 -1 -2 0 0 0 0];

internalField   nonuniform List<scalar> 
7500
(
-19929.491
7864.0911
-12719.17
-2724.4886
8326.3245
4577.776
-6440.5286
2503.9066
19733.72
-1863.3231
5080.2439
2828.411
6031.1706
11410.014
-2411.0062
13869.626
-7606.4797
16383.016
4826.1214
-431.68854
19054.951
-10747.176
20519.414
-2284.2989
3034.3827
22287.974
-3492.7838
20863.377
3487.8849
3485.3508
31665.212
5342.4595
25694.006
34403.624
14808.039
21675.904
32744.808
-5039.709
13201.452
12653.247
19614.664
32058.203
33408.343
29339.208
9845.0871
39532.765
23571.016
17181.752
31677.57
54469.786
43555.988
49588.454
45277.855
9933.9168
58227.03
65597.686
31753.391
30013.821
26227.3
12833.957
28181.205
8757.1545
-51754.874
-16284.623
421.93518
-50385.268
-41435.372
-14855.264
-34233.687
-19532.767
5686.1
-20433.692
-18381.016
8841.566
8657.8602
-19734.442
6067.647
-11237.573
-2206.0443
7808.8732
4060.031
-5585.2537
2115.6385
19106.897
-523.22392
4073.7947
3480.4818
5586.8489
11528.037
-2444.2023
13520.373
-6810.8619
15358.047
6405.2532
-1851.4917
19047.334
-9107.0095
18744.082
-1273.5078
2972.4394
21301.749
-1484.1051
18276.054
5033.8252
4010.4707
29483.638
8912.512
22771.259
34535.492
17690.268
18824.959
32937.325
-4043.3055
11862.343
14590.102
18083.762
32326.295
33775.656
29069.476
12222.467
35710.435
24005.993
20519.389
30204.61
51277.591
45285.407
50485.31
44347.818
12573.718
55898.183
64195.892
34530.245
30607.912
24336.119
14575.851
28770.707
7190.4839
-50921.76
-18328.556
343.14167
-48807.926
-42146.619
-15015.082
-32869.15
-21632.45
5418.1751
-18895.221
-18159.487
9215.1599
8039.6283
-18297.98
4080.1288
-10357.922
-2542.5279
8536.4727
3459.2906
-6856.9117
4296.243
17470.845
-148.32439
4121.5108
4030.4538
4863.199
11837.098
-2064.997
11741.712
-4178.9667
12972.119
7988.8964
-1446.496
16886.636
-6789.4563
17261.22
-1032.2605
4233.8606
18716.122
1147.3332
16319.037
4778.0323
7055.5125
24883.193
13228.598
21625.651
31516.966
22754.865
16719.273
29444.827
88.389069
9826.0379
16588.436
17418.21
30553.788
35110.391
27602.571
16577.111
32256.424
21956.413
23725.94
32028.851
46928.303
45985.132
53194.775
39818.435
17528.45
55981.183
59171.103
37260.564
33390.214
21872.142
15213.831
29815.529
3924.2575
-48084.709
-18979.562
-2545.962
-45963.782
-43195.66
-17509.735
-28242.713
-23330.509
1821.7463
-16327.214
-17179.094
9515.8621
7475.548
-16449.096
977.57795
-8741.3064
-2355.3708
8229.7623
3312.4425
-7304.9029
4938.7131
16536.442
1326.939
2346.4912
5670.1098
4318.4939
10862.002
-48.546984
8984.819
-1624.686
11528.776
8173.5179
-302.92712
15042.256
-5280.1581
16539.383
-1190.1477
5412.1578
16200.768
3975.0547
13990.674
4321.2697
11042.82
19191.535
18012.773
21406.448
27092.493
28701.234
15940.883
23725.24
5086.532
7537.4114
18794.803
18128.322
27861.676
35486.943
26358.946
21982.436
28015.412
20518.401
26243.624
34380.284
43551.318
45733.205
54532.259
37535.49
21930.698
54208.643
55732.949
39719.429
35275.018
20936.816
15680.456
29551.653
952.39912
-44984.092
-19602.632
-5356.6206
-40719.848
-45126.79
-24082.882
-22543.548
-23179.262
-3116.6588
-12624.426
-15503.189
8089.5121
6888.4393
-14817.925
-2643.1396
-6485.2127
-1880.538
7752.8937
2813.4625
-7209.7045
5692.1145
14529.285
3730.1228
826.64646
6353.7306
4613.8437
9483.3179
1491.9019
7275.7962
202.75484
10128.767
9239.0897
-993.38117
14612.213
-3429.2114
14427.205
120.82909
5754.8142
13627.93
7322.4953
11245.254
3702.691
15371.141
13893.191
21849.826
21525.459
23589.247
32967.288
15248.377
19697.827
8713.8405
4644.7337
22060.275
18427.156
25778.937
35901.717
24159.302
27355.9
23463.291
19097.681
29534.928
36366.416
40226.686
46834.053
53674.821
37033.561
28048.259
49171.892
52622.96
44248.848
35312.651
20620.949
17559.851
26359.089
-1764.9471
-40414.269
-20591.324
-9667.6895
-34915.62
-44661.98
-30959.61
-18735.093
-22353.318
-9167.0635
-9969.791
-12830.18
6811.2862
6384.9581
-13441.353
-5816.7037
-4604.883
-1344.0113
7631.8013
2156.9743
-7477.0216
6997.7389
12868.931
4746.6199
960.34439
6321.1231
4614.2592
8843.0384
2118.9897
5697.7194
2768.4351
8064.8508
10710.671
-1506.1934
13090.374
-546.28492
12200.562
1220.5583
6095.0294
12017.985
8565.7745
10189.191
3586.9662
17088.232
11314.473
24111.302
21336.741
22431.24
35836.231
12810.295
16777.438
13338.591
1179.5831
24567.975
20414.48
23098.269
35930.049
24251.49
29434.379
19625.108
19506.4
31647.545
38062.913
37449.592
48722.927
51946.538
37208.222
35037.059
43488.944
48430.801
49659.124
35204.172
20974.091
20276.362
20674.029
-5005.8382
-35280.386
-19544.599
-14465.842
-32622.141
-42860.827
-35987.819
-15451.29
-20046.136
-15038.388
-9223.3775
-10204.1
5038.3763
5957.5114
-12308.946
-8344.7623
-3091.1949
-743.84121
7210.1299
1793.3369
-7390.1152
7221.98
12612.98
4862.0617
996.98007
6852.9668
4518.7585
7893.5753
2983.1121
4237.3526
4378.6759
7640.9455
10639.957
-960.99196
12031.372
249.80718
11854.597
2054.0934
4944.5276
12887.827
7970.1877
8993.0075
5364.4569
16353.575
10683.188
25399.312
20855.253
23175.971
36627.631
11233.049
13288.997
16765.476
1201.1213
23646.934
22451.179
23212.887
33105.669
26585.954
30956.057
13998.14
21511.571
33608.461
38451.019
37203.197
48715.988
48646.68
40453.649
41056.305
37884.17
45159.187
54027.621
34006.776
23662.994
23711.67
13300.458
-8360.5321
-33245.092
-17466.114
-15335.851
-33348.976
-41818.495
-39436.818
-14837.448
-16962.107
-18769.152
-8787.6947
-6502.0292
2582.5063
4499.1182
-11551.403
-10134.891
-1840.0401
-136.8445
6652.6315
1140.2812
-6547.8398
6978.5671
12052.104
5621.3503
722.40953
6777.0287
5361.59
6585.0505
3380.4635
4280.4407
3955.6011
8575.6482
10398.213
-1586.6526
13256.241
-601.09953
11420.045
3777.6865
3192.3828
14001.679
7369.1229
7922.1886
6882.003
15405.931
10906.854
26095.429
20417.189
25136.525
34978.694
10577.283
11880.221
17063.701
2872.5931
23440.231
21499.453
25066.411
32708.036
25892.709
32346.427
11045.206
21711.426
35373.006
37578.122
39772.363
48498.082
43230.598
45471.627
45559.294
33513.448
43355.59
56685.903
32451.39
28738.065
25866.595
5992.7208
-10576.131
-33340.047
-17427.761
-14394.498
-33988.004
-40598.252
-40304.33
-16348.07
-15551.057
-21744.87
-8503.209
-2215.7271
1273.1603
3086.6126
-11251.239
-11207.714
-834.5918
266.83222
6384.4299
315.47767
-5940.0269
7495.6813
10872.411
6244.3023
1351.3505
5785.8087
6146.613
6008.8489
3054.8003
4902.1675
3707.2991
8625.2496
10818.626
-2329.0906
14086.102
-629.48091
10773.892
4319.7648
2861.254
14675.394
5792.3711
8644.8113
6933.0785
14900.051
11427.877
26089.41
22066.837
26275.752
31705.012
10826.283
10502.942
17554.171
4803.0852
22353.064
21705.795
24453.201
35173.502
25410.862
28954.642
13278.441
21077.795
35103.832
37551.371
42413.533
47657.893
40054.35
50024.857
46806.619
32478.34
43632.883
55552.358
30575.65
38985.439
25535.115
-2278.3597
-13339.458
-33462.007
-16670.814
-16009.106
-35670.771
-38049.555
-39956.854
-17189.62
-13483.05
-25562.873
-8491.8534
1659.4869
-630.97045
2677.8223
-11377.892
-11692.177
117.94245
317.64068
6030.2421
153.94437
-6066.4695
8188.4645
10438.822
5897.0831
2466.4822
5269.4298
6165.8206
5362.3627
3456.3203
4637.8309
4465.1145
8458.3482
9961.5848
-1152.8152
13568.18
-377.41859
10891.1
3994.56
2562.4236
15546.408
4026.4626
9782.535
6768.4353
14071.547
12478.967
24821.044
25612.965
27855.382
25618.382
13400.721
8554.7913
16100.796
10014.393
19334.836
21383.581
25697.179
36288.726
25373.942
24430.294
16934.381
20944.178
32613.033
39427.333
45405.292
43126.356
40235.479
54644.118
44901.989
34222.712
46510.011
52783.826
25414.833
52565.384
27116.192
-9866.1272
-18560.69
-36284.143
-13280.285
-17454.515
-40913.528
-35089.14
-39214.22
-19512.574
-9171.0963
-27601.987
-11259.567
4682.9052
-552.24729
2502.4104
-11765.094
-11771.663
985.83283
411.32412
5006.9338
582.9895
-5938.8645
8123.4838
10682.798
5429.5641
3127.0087
5182.8339
6573.5298
3809.8198
4327.4211
4572.2261
4468.1719
9467.7795
8008.7454
605.9396
12838.366
330.64971
10102.981
4750.381
2367.7154
14497.48
4187.8329
9977.1399
7339.1324
12521.155
13319.224
24846.429
28076.867
30205.612
19204.724
15353.392
8586.3095
12917.637
14577.329
18823.949
17932.167
27997.898
39668.762
21211.982
21941.781
21757.308
19042.648
30401.776
41026.913
48661.658
39508.342
39655.819
56821.555
42308.855
37935.294
49491.172
52445.47
21455.482
61786.313
30232.35
-13141.279
-22485.023
-39781.914
-13991.76
-16594.367
-45629.222
-35436.157
-36373.327
-24071.954
-6944.0771
-24018.869
-16341.651
1081.2409
1458.8626
4408.7842
-12308.574
-11560.652
1572.5207
911.16305
3578.356
739.08135
-5090.1292
7806.9688
10626.775
5332.4566
3780.3492
4472.1905
7489.1107
2783.8155
3972.4842
5870.6623
3620.0156
9963.9646
7257.0971
1906.8347
11252.101
2320.6437
8470.7376
5488.5142
3837.0641
11290.875
5507.5411
9555.4695
8096.3773
11628.87
12559.316
26397.182
31534.353
29348.348
15203.361
17360.156
7020.3688
12285.94
16612.561
18687.851
15867.779
28172.147
43809.17
16325.307
19260.053
27830.036
15230.995
28564.199
42981.79
46049.543
40295.934
40061.395
53032.48
40760.01
39128.636
50341.543
50499.197
26845.013
65181.086
29536.702
-15083.474
-24135.669
-37948.847
-14953.155
-17982.319
-45611.575
-36275.494
-36247.685
-24594.923
-8553.4184
-18106.654
-15089.886
-1718.0584
1517.8707
5704.1708
-12958.252
-11000.635
1754.6737
1529.9484
2551.4938
352.02286
-4286.0567
8075.2819
10184.274
5079.3835
4956.7472
3479.8576
7580.5675
3192.2229
2751.1089
7354.5828
3604.8804
8670.3197
7610.568
3507.3246
9195.378
3917.4838
7135.4129
6016.2957
6094.1022
7847.1954
6504.7049
9352.2
8157.0943
10840.369
12515.641
25363.999
37124.666
27303.736
10222.629
22123.231
3480.2197
11391.252
19905.269
15423.225
15885.598
28887.809
43102.192
13987.996
19165.702
29573.696
16321.227
29266.202
42767.4
43726.803
40010.88
42054.514
46956.278
39999.118
37897.947
49582.836
48497.421
22877.074
70278.957
31147.922
-15369.607
-25907.054
-38029.597
-12345.417
-18047.521
-45088.433
-35649.084
-37696.19
-24704.332
-9217.8452
-22640.912
-14427.062
137.20767
2269.7696
5847.3935
-13689.755
-10073.192
1646.6241
1825.1958
2028.5842
69.431758
-3999.5437
8674.2549
9815.1952
4642.6359
5967.9673
3261.6283
6726.2904
3622.8811
2264.045
8321.4578
4146.0145
6830.8843
8057.5873
4710.9242
8315.2154
4770.5054
4927.5953
6875.8076
8363.2289
5158.5826
6566.2371
9140.4946
8281.4414
8324.4671
14703.73
22569.766
39943.132
26235.75
6595.0528
23456.3
3558.8147
12789.819
19719.854
14426.136
15811.229
30318.846
41441.475
11739.279
18509.713
29547.34
17148.408
31299.256
42808.144
46609.361
38791.925
42937.015
53489.275
39701.252
39932.209
49287.353
46232.57
24793.437
68352.449
31041.201
-12514.145
-26911.912
-36570.753
-17606.584
-20907.07
-43976.878
-35558.245
-35636.699
-25173.867
-9765.2806
-16915.646
-16478.558
249.0952
4261.3525
5358.508
-14542.923
-8902.0462
1555.893
1750.7949
1429.263
210.63069
-3719.8481
9179.0211
9308.2283
4710.8483
6237.0523
3437.7392
6376.5158
2869.3674
2311.3808
9748.2904
4262.1517
4929.4563
8902.2084
5098.4905
7607.9564
6320.8922
1936.5901
6778.6756
10606.269
3470.523
6234.0508
8204.851
7629.6699
7689.8641
16267.777
22884.407
40913.029
24893.867
6340.5709
21993.676
2846.8533
15282.371
20056.832
14068.591
15971.602
31423.332
43476.739
11221.059
18787.952
29132.252
16093.41
31291.626
41356.95
43422.871
43049.267
40771.146
45810.578
40510.232
39095.674
47733.395
47369.242
23159.778
68215.885
33390.626
-14691.058
-28855.257
-33497.941
-22004.05
-25242.04
-44287.858
-35224.002
-38369.532
-31104.944
-12801.663
-16027.139
-16662.261
-448.36862
5650.0194
5485.6775
-15447.97
-7666.4495
1618.4754
1659.3413
502.56674
224.00622
-3057.9837
9930.6874
8201.2184
5362.4069
6527.0396
2768.3052
7097.6277
1638.9598
1716.5083
11435.648
4731.3993
2609.893
9033.6117
6109.7209
6071.4299
7567.5435
-458.13145
5904.6047
11835.274
3790.0279
6423.3691
8107.7157
6653.4139
7275.3514
16958.766
24068.102
42075.282
25084.449
6967.3303
21844.013
1975.9734
16261.291
19915.097
13012.005
15742.677
29895.96
41332.396
11119.775
18519.67
30032.503
18327.276
29159.935
40830.964
41135.857
40454.418
42101.151
42787.457
40269.645
38702.408
46738.906
46294.087
22168.819
65237.167
32708.442
-14305.534
-28522.316
-35945.683
-32707.229
-35651.816
-46290.555
-35390.38
-41801.136
-34762.369
-20123.1
-20603.5
-18062.937
-2848.8134
5459.9405
5488.5536
-16303.723
-6498.8903
1698.4909
1820.4212
-374.02714
-284.93512
-2496.5496
11236.954
6781.6839
5768.3813
7670.5999
1414.4919
7622.3545
974.3749
946.23989
11255.325
6064.9252
915.32135
7586.7471
6127.9837
6852.4793
8144.9633
-933.28254
5127.2953
12535.504
4736.7863
6946.0389
8684.525
6555.9621
7124.2057
16732.186
23974.099
41101.149
23619.739
5921.5377
22035.789
2221.6328
16284.065
20218.781
13032.769
16346.963
30324.12
40854.416
10792.98
18281.018
27327.997
18211.646
27104.344
37204.437
38815.748
40348.256
40128.142
41620.332
40525.484
37073.576
47720.82
46896.89
20499.738
63907.269
28798.593
-15836.648
-25329.45
-33454.162
-28217.15
-45730.773
-52172.78
-56289.338
-39970.608
-38825.175
-28039.806
-24281.182
-18785.811
-2898.1085
5625.908
5610.6419
-17076.504
-5413.7601
1612.5812
2084.3366
-791.37613
-946.15559
-2344.4842
12455.016
5859.9334
5320.33
8955.2043
856.24314
6599.83
592.72412
1195.1534
9132.5423
6926.8075
1439.1716
7688.7497
5483.5446
7528.3906
9042.5497
-636.28345
5158.5479
12691.521
4385.3862
6325.3929
7672.5189
6438.611
7526.0674
16889.201
24662.339
40382.199
21497.404
6937.6329
22069.528
371.05601
15465.625
20349.824
10974.675
16140.167
29584.09
37500.973
8928.1325
18160.066
26476.395
17447.868
24741.143
35171.689
39991.607
40142.482
41649.96
41874.044
36284.72
33960.476
48184.892
44095.161
18442.549
65409.073
29601.919
-19192.561
-28795.595
-34789.617
-20356.749
-47448.268
-59170.955
-55746.45
-35526.68
-36614.797
-30939.267
-29014.673
-14141.045
692.59981
6523.74
6044.0205
-17821.138
-4336.5021
1318.5447
2186.0069
-961.033
-1273.2292
-1965.7961
12649.569
5733.1056
4301.2114
8964.9034
1513.3789
4665.4402
335.27739
2145.4327
8847.1971
7078.0526
2269.746
8288.484
5451.5566
7442.3117
8389.1647
-1489.1548
4821.2111
12445.466
4714.1635
6817.1929
8124.3239
6740.0444
7454.6452
16235.653
24261.451
39537.59
17581.327
6572.227
21784.697
-2318.3809
15610.018
20381.833
8743.1467
13965.625
28675.834
32098.42
4312.9922
18707.446
27498.034
17403.713
22907.274
31446.916
38455.109
40152.947
43760.025
43309.925
31916.251
27777.308
47746.69
38182.472
16207.176
71621.227
29609.023
-26448.293
-29622.847
-35162.299
-23163.135
-47227.947
-63259.902
-55154.494
-35548.043
-35486.055
-31720.196
-26195.427
-9543.4088
2412.6127
6619.9839
5939.9379
-18561.542
-3186.9044
886.23116
2186.0615
-1531.5067
-1358.6243
-821.19371
12030.978
5566.3981
3535.275
7659.9463
2499.1476
4622.4776
118.6411
3148.1363
9301.7321
6925.1742
1802.5062
7566.3425
5254.5307
7391.8893
8637.1194
-915.72488
4610.8255
11646.459
4803.7825
6019.1426
7250.1076
6879.3722
6961.5774
15198.054
23865.469
36709.483
14796.148
8559.3235
22554.955
-3921.2251
14256.186
20477.357
7208.5201
13073.728
28337.628
28856.534
-3042.3999
15486.851
29149.295
16896.083
22661.305
28644.979
35320.769
40756.255
46209.085
45060.715
29307.331
22775.074
47794.152
34572.989
13109.108
75591.933
26066.608
-30197.538
-30813.913
-33328.573
-29665.111
-48743.185
-66220.243
-58128.97
-38980.981
-38229.642
-32045.245
-25881.84
-7465.4991
5866.6734
7178.5846
5431.3206
-19233.818
-1942.1832
386.52792
2371.1277
-2668.8296
-1830.0207
548.35307
11568.214
4559.6336
4461.4898
7233.054
3505.836
5217.2482
-104.8459
2655.7426
8834.6011
6754.9277
2319.5892
7816.4521
5353.5565
7324.017
7808.3053
-986.86412
4064.3159
11027.441
5671.3032
6069.3466
7083.9912
7298.4646
6838.7614
14518.035
21992.544
33363.716
15266.847
11529.329
21164.953
-4720.6672
14900.81
19889.119
6565.184
12664.015
29699.785
26807.809
-4746.1844
16545.86
30682.915
14975.042
23386.667
30010.124
34661.907
42331.808
46557.666
43855.528
28000.317
19031.314
47449.212
34056.433
10206.522
77334.483
18640.41
-34013.226
-32857.366
-34979.363
-27278.589
-49321.818
-69596.276
-62020.311
-39087.362
-39583.734
-36027.777
-26591.441
-4042.9095
5976.7674
4322.8445
4299.1444
-19782.811
-635.25726
-81.75193
2771.9107
-3646.2297
-3094.3555
1228.7929
11535.743
4397.506
5698.6872
7505.3089
3181.994
4837.6493
-287.06995
2893.7838
8976.4491
6730.0505
2240.4183
7516.2844
5399.9462
7405.9133
6706.7096
-908.62188
3320.6608
10176.626
6253.958
5882.8932
6579.5027
7467.7698
7081.9706
14209.468
16389.964
27565.949
16946.882
13030.523
21510.059
-5613.5717
14859.635
18589.511
6016.7099
18684.121
28443.442
23260.6
-6637.2177
15698.808
30156.947
12257.204
20935.641
30175.98
35841.386
43586.394
47263.649
42813.304
27725.978
17106.849
47447.124
33579.242
8585.3508
80943.007
8316.8491
-43107.973
-32881.184
-31386.17
-31590.851
-54753.181
-69722.483
-62734.076
-40852.228
-39219.808
-38079.275
-26455.876
-6170.1472
1571.4928
3011.8119
4470.7833
-20249.789
665.5474
-242.87696
2969.2667
-3640.958
-4582.0648
2183.7797
11713.544
4695.3616
5373.5069
7292.6543
3108.312
4975.2003
-323.73591
2788.7199
8790.4113
6831.8938
2517.1146
7405.4216
5443.6345
7187.2184
5691.378
-887.87866
2640.4645
8282.7702
6613.3535
5542.9466
5897.5682
7514.0929
6721.6126
13655.57
13518.094
19080.322
16276.291
12602.502
20386.613
-5845.0757
13972.81
18036.786
3872.7126
17877.069
22934.403
17848.962
-8738.541
11158.921
28501.407
12924.204
18092.368
28357.517
35256.828
44065.169
47228.489
39028.306
27467.836
17000.845
47422.742
30512.333
9639.8954
83962.332
763.70301
-54543.776
-36364.662
-36534.13
-37206.179
-59705.537
-65622.014
-61103.648
-43578.1
-37266.939
-39309.328
-26019.613
-7228.7487
1197.5218
4767.6866
5610.764
-20995.305
1856.3657
397.44573
2522.3669
-2981.7307
-4897.946
3456.4971
11424.17
4325.7102
5337.2337
7314.9629
3027.7409
4934.6385
-424.40582
2787.8599
8657.672
6683.4949
2571.7553
7299.3934
5455.9825
6955.2966
5029.2909
-247.59663
1796.8073
5301.182
6739.0346
4863.8315
6098.9796
7403.2049
6431.6307
13036.548
11905.01
14776.508
16418.624
12226.177
18627.205
-6070.9147
13882.002
15563.584
1114.3959
19724.852
18701.087
14593.596
-9545.3598
3813.3766
27004.235
13034.571
16734.317
26819.355
32840.059
41377.198
40175.868
34440.493
25516.525
16285.97
45473.098
26039.238
12409.861
84341.181
-2335.8293
-59854.691
-38304.314
-38999.775
-45724.93
-62005.556
-61872.996
-58368.724
-45062.634
-35980.068
-39265.383
-24817.949
-8039.4303
-70.44514
5503.5929
6490.2043
-22701.663
2817.5738
2017.1564
1887.3208
-2545.9162
-5060.0833
3354.6944
11429.606
4452.9225
5303.6112
7114.3761
2980.3047
4963.088
-536.19452
2610.7752
8638.6694
6501.2235
2647.4643
7202.0599
5416.0405
6778.1729
4713.327
-10.868668
704.457
1387.2967
6521.2928
3445.3521
6534.1576
6584.1392
5401.4009
12907.318
10626.502
12934.567
16848.038
12338.696
17459.815
-6280.5401
13370.887
10387.142
-1463.3374
21864.458
19575.034
12749.175
-11252.5
-3367.9518
27119.107
13563.282
18431.438
26830.923
29318.861
37088.853
31913.389
31119.65
23524.677
14845.208
42254.408
24032.846
14432.95
80866.962
-4511.2219
-56411.376
-37305.904
-42654.919
-47407.829
-62745.33
-63185.61
-57718.08
-44026.452
-34338.417
-38205.233
-24520.712
-8563.1508
-1869.5402
4418.8259
6053.2305
-25164.448
3278.3796
3319.9251
1941.6573
-2428.3364
-5298.8985
3411.6244
11399.399
4429.4205
5308.162
6866.6979
2934.63
4854.0527
-718.09665
2439.4844
8614.9018
6160.1487
2627.7093
7043.8238
5357.8817
6363.6719
4590.1587
578.9003
-543.2028
-2744.662
5917.6713
1336.449
6801.887
5882.2484
4249.84
12991.949
9966.882
10391.626
15708.076
11951.542
15781.762
-3396.7789
10813.842
3025.4792
-2002.5899
21072.537
18539.728
10395.54
-14050.129
-7086.0911
27530.839
14670.07
21437.185
26453.037
26771.889
33810.907
27115.135
28208.326
21392.186
14046.223
41783.365
25061.2
15786.886
72612.126
-13379.382
-50007.604
-37531.688
-42035.02
-37345.391
-59579.5
-64704.374
-59768.655
-44808.873
-33338.682
-34784.025
-22145.273
-7625.4563
-3241.0489
3099.7291
4130.2938
-24952.217
2347.4139
2960.8471
2231.7711
-2429.5375
-5386.5669
3359.6117
11371.059
4403.8886
5300.2438
6587.6935
2889.8324
4750.6893
-942.39582
2184.0972
8510.9962
5627.7882
2611.9343
6823.9712
5237.1414
5981.7827
4397.6553
1264.1729
-1854.6699
-6471.1862
5370.1559
-406.17382
7375.6939
5544.0788
3088.9197
12594.64
9293.7897
8237.9432
14767.486
11747.81
13130.268
-3091.1226
8290.7858
-3802.1048
-1282.0988
24490.746
16075.148
8889.3073
-13478.64
-7588.6664
26529.085
15737.119
24815.744
24087.563
24607.949
34468.952
27599.565
27318.948
19021.923
14089.266
41950.232
27056.697
14101.564
62105.335
-23944.096
-45663.576
-38508.73
-41227.55
-51764.685
-58737.164
-62961.187
-60133.459
-45522.773
-32140.859
-30567.271
-17614.516
-6614.1167
-3366.7498
3896.3378
3629.8508
-15837.487
-47.117373
2477.3025
2360.4509
-2398.5691
-5393.8112
3357.6922
11265.798
4370.0827
5287.4125
6295.9509
2849.629
4594.6897
-1145.9212
1849.2529
8297.9445
4951.5879
2639.0985
6548.6933
5061.0105
5536.1435
4180.2229
2034.1554
-2830.2901
-8778.997
5063.336
-1573.2017
7665.3171
4630.5428
1949.0006
12612.563
8009.9426
6704.3748
15762.976
11502.07
10503.131
-3270.756
6192.8481
-8609.5359
109.11391
25195.451
15507.177
11333.686
-8777.4996
-6343.4686
23872.753
16304.257
27982.697
23225.5
21898.108
37221.959
30105.128
27852.851
19523.786
15767.347
41561.898
28748.32
10754.808
47915.83
-34306.234
-44389.44
-39084.475
-43184.234
-53965.069
-60296.073
-64626.247
-61981.044
-45151.225
-31144.171
-27231.354
-12942.614
-6087.0562
-1534.9771
5394.0336
4997.5677
1724.8678
-967.06755
2399.0581
2230.9006
-2408.7686
-5389.4654
3372.8409
11127.177
4328.2543
5283.3003
6013.357
2822.9829
4411.8557
-1308.1623
1427.6407
7981.9815
4242.1046
2711.7813
6254.0321
4827.1038
4987.3979
3896.4034
2866.5746
-3547.471
-9010.3617
5178.6097
-1951.5515
7385.7101
3741.2859
1459.956
12791.795
5737.3694
5079.5893
16637.079
10926.679
8418.0987
-3653.0435
3840.9614
-10425.529
2113.7204
26019.229
15431.578
12861.112
-3538.3164
-2888.0913
21523.62
16503.913
28697.512
25059.129
20260.889
36146.176
32384.325
29248.376
22835.55
20555.805
36995.132
28190.367
9273.1766
38800.818
-40581.851
-43056.784
-41831.384
-45558.858
-54170.736
-61672.446
-67533.196
-65840.011
-48057.316
-29824.567
-24529.076
-9933.3245
-5774.941
374.36162
7698.7382
6045.5212
5542.9321
601.43406
2337.3902
2188.2609
-2397.9539
-5400.0496
3318.2564
11006.755
4284.9827
5278.6611
5795.858
2810.5606
4225.5949
-1392.3326
993.42058
7609.5861
3505.915
2790.8659
5891.3205
4593.6471
4532.0294
3622.2658
3751.757
-3983.5332
-7492.3444
5807.8072
-1064.4472
7729.8479
3507.7515
1449.3373
13114.98
3291.3083
2901.3661
17795.658
10649.038
8904.5081
-3602.2777
1283.8671
-10270.234
6166.6721
23081.723
14904.056
12447.495
17.266709
1341.994
19058.853
17108.346
27626.975
25739.338
21864.162
37123.726
34338.522
29731.043
25071.398
23949.445
36751.245
26030.292
13616.228
35653.727
-39953.808
-39466.187
-43387.711
-47879.22
-56633.789
-62421.987
-67887.378
-66850.97
-47216.141
-29699.527
-21954.778
-7361.7808
-5406.9728
1317.3497
8568.3301
6238.0171
-3755.3616
1572.5937
2410.8179
2187.4538
-2387.1343
-5410.3294
3224.0925
10892.475
4232.0966
5274.0989
5640.1503
2812.7283
4038.0864
-1400.5703
592.75161
7205.4758
2625.8465
2944.7216
5474.7581
4334.1606
4055.2502
3260.232
4649.4011
-4101.6463
-5087.754
6693.9707
1247.7709
8785.2404
3425.2589
1758.4685
13373.251
1728.9016
1435.0755
18982.057
10463.22
10424.283
-3513.5572
2403.4121
-8041.8475
7205.6579
23568.738
15682.275
12399.306
2068.2025
5060.1719
17707.975
16977.518
25053.788
25475.204
23751.22
39563.443
35206.925
28466.823
25493.296
25359.737
38224.141
25255.981
15676.907
29267.182
-36339.036
-37535.222
-43022.652
-49868.123
-59484.501
-63655.248
-66942.624
-66220.46
-46965.169
-27043.077
-18683.194
-6455.5422
-6050.1124
1177.1647
8776.3295
5584.9804
-3766.435
1388.805
2488.6286
2210.6686
-2375.5652
-5435.4136
3101.8216
10779.405
4158.7244
5272.0071
5523.7076
2822.2696
3848.9262
-1357.2378
193.29524
6756.8179
1437.496
2901.6416
4929.6056
3940.8558
3501.1414
2615.4856
5330.4495
-4021.9308
-2906.4583
7420.0584
4133.1607
8944.0815
3028.8859
2510.3721
13659.217
396.51957
680.59557
19534.5
10034.553
11294.823
-4407.3495
5211.7605
-5589.1452
7697.1178
24851.029
15493.585
12082.758
3596.5264
8139.8068
18303.256
15469.066
24098.491
25715.534
22502.69
42070.089
35767.271
27446.288
24918.419
25556.541
40882.915
28471.848
16753.284
19669.634
-34248.981
-40166.469
-43059.768
-51485.384
-62033.227
-66046.993
-69787.777
-68853.98
-47279.839
-26198.76
-17568.561
-6039.0032
-4933.8933
1207.9225
7729.8796
4970.6697
-3481.3389
1570.6006
2590.7566
2239.3559
-2380.2091
-5480.6557
2942.1602
10655.826
4069.5135
5264.2601
5413.8387
2841.6166
3642.9157
-1305.706
-222.37659
6233.7006
210.12575
2881.6474
4282.9704
3561.0763
2934.4838
1581.0832
5873.2139
-3650.0611
-1198.7673
7465.8166
5638.1276
8656.0542
2478.9347
3391.038
13800.497
-157.23558
79.22457
19616.556
9418.2782
10208.066
-5960.589
4029.0991
-3839.8296
8947.902
25175.832
14617.771
11053.871
4502.0161
8844.2244
18952.696
14593.679
25401.864
25633.897
22091.23
42684.613
35172.779
28100.454
25731.35
26885.856
41440.416
28955.949
18362.773
15880.309
-34955.776
-45058.873
-43932.326
-53313.189
-64889.451
-68960.386
-73659.618
-73938.062
-50678.511
-26910.83
-18500.393
-6306.3631
-6368.6068
-528.37518
8924.3049
4379.2377
-3015.862
1693.1888
2693.5121
2268.6644
-2402.6744
-5551.136
2739.7513
10514.725
3967.315
5242.0341
5286.0582
2854.321
3397.108
-1259.7189
-618.17959
5650.5114
-844.77764
2902.1675
3484.0289
3172.7843
2283.736
57.638659
6036.4824
-3284.938
123.33561
7312.7165
6024.5212
8070.9338
2355.4837
4103.0997
13656.38
-21.569301
-551.88458
18768.308
9108.7838
8099.4895
-8498.5868
3586.6254
-2446.4512
9672.653
25007.938
13266.434
7770.6763
4069.2413
9164.3301
20350.272
14700.761
24456.569
24720.814
21885.349
44841.736
33489.148
26239.965
27909.558
28655.797
38520.08
27127.275
22646.459
14918.364
-36720.893
-46102.189
-44065.475
-55155.266
-66392.296
-71062.304
-77990.714
-80608.916
-56765.56
-29412.72
-16616.654
-3242.4302
-6007.1591
-1903.014
7903.9308
3747.4259
-2527.1021
1881.2023
2797.5653
2291.1856
-2443.2486
-5649.3293
2489.9509
10354.651
3855.5661
5209.346
5135.6424
2847.203
3115.7752
-1196.1012
-908.22368
5061.0579
-1687.7077
3061.2752
2688.0609
2770.7144
1599.5616
-1444.8603
5599.8057
-3221.4263
1428.1243
7340.6582
6130.2391
7638.7501
2762.3827
4862.8453
13385.093
459.15422
-1053.7621
17602.651
8825.1137
7106.4109
-9650.8859
4234.9503
-1428.6153
7785.6265
24577.993
12118.613
6580.6053
3652.2078
10247.102
21664.77
14975.735
23614.136
23683.644
20901.865
45287.248
31832.263
22931.451
28656.448
30907.508
37078.63
25317.944
30042.861
16423.021
-38709.143
-47547.697
-43587.895
-55989.322
-68438.326
-74609.824
-84156.077
-89489.112
-66115.666
-31587.267
-11514.04
1935.8256
-3742.1968
-1858.083
4899.0889
3091.6149
-1985.4787
2009.0427
2897.9399
2311.5388
-2503.8734
-5774.717
2191.8116
10178.3
3736.7281
5166.6508
4983.521
2835.6797
2840.194
-1091.5998
-1049.1897
4522.3451
-2182.4052
3327.3749
1971.1841
2329.1185
935.44572
-2113.6901
5122.6875
-3082.69
2597.8449
7485.1656
6314.1696
7544.4292
3645.6969
5256.3011
12872.509
1173.7038
-1386.9502
15860.863
7450.9105
6754.4769
-10364.948
5002.9035
-324.09674
7781.8879
26295.684
11138.926
6147.8521
3630.5946
10262.39
22223.238
15291.859
24028.29
22751.332
18938.436
44511.028
30643.386
21775.03
27477.32
32737
37726.692
24621.489
36202.319
18180.188
-39237.297
-50674.906
-44916.847
-57680.117
-70109.256
-78830.969
-89666.826
-100327.78
-77585.999
-32803.569
-8478.7623
5109.6801
-2006.1528
-702.92046
3628.0936
2475.8023
-1464.0277
2237.6715
2989.8821
2325.6776
-2582.21
-5923.9587
1850.2023
9990.9721
3614.0938
5122.5229
4861.5729
2847.4606
2619.3073
-1002.7428
-1033.6791
4069.4967
-2321.833
3638.9577
1391.9759
2100.4247
149.48222
-2283.9648
4883.7307
-2020.9388
3788.6336
7633.4868
6519.7189
7616.5569
4420.4597
5447.3914
12599.816
1298.3264
-1736.7333
14795.241
6660.7257
6656.5559
-9787.617
5540.0448
1805.2785
10632.148
25851.83
9065.6812
5587.4306
3233.9948
9482.6347
22570.748
15553.771
23686.637
22191.059
19116.067
43921.875
30389.031
22576.137
27690.591
33221.687
37426.855
24707.807
40535.735
19209.226
-39345.219
-51039.683
-46069.626
-59971.779
-71574.011
-82111.993
-93914.083
-107935.5
-85051.761
-34374.622
-3563.3728
10027.119
-3157.3416
-705.90409
3764.6555
2234.5784
-900.24249
2330.5088
3102.4663
2334.1773
-2679.8212
-6094.5543
1474.2964
9794.683
3491.5342
5083.1401
4815.0305
2903.2449
2500.6155
-955.19608
-845.59465
3710.4777
-2145.292
3950.3251
978.51409
1988.7387
-649.87134
-2393.5202
4411.8967
-173.91274
4862.3492
7772.6775
6690.6329
7749.2699
4761.9646
5524.4904
12326.2
1219.8289
-1886.8111
14341.939
6532.1489
7204.0229
-8924.4316
6004.9883
4400.0556
8192.0207
23720.988
7769.2113
5988.8308
3123.3409
9220.9507
22520.941
15485.882
23416.732
21549.187
20648.277
43129.462
29871.67
25715.678
29770.169
33061.975
35930.052
26078.198
44273.334
24175.293
-37910.244
-50763.72
-46778.13
-61560.975
-73489.961
-86660.621
-100684.62
-113305.19
-88803.875
-35092.396
-1957.7595
10949.895
-2391.1138
-947.03733
3630.5343
2481.3141
-390.21055
2608.2911
3148.1728
2332.8472
-2794.1344
-6281.9336
1081.3396
9589.8041
3372.3425
5040.8566
4844.1484
3032.5614
2581.1064
-819.73691
-490.24729
3392.6316
-1743.4808
4279.7201
858.50164