/*--------------------------------*- C++ -*----------------------------------*\
| =========                 |                                                 |
| \\      /  F ield         | OpenFOAM: The Open Source CFD Toolbox           |
|  \\    /   O peration     | Version:  2.3.0                                 |
|   \\  /    A nd           | Web:      www.OpenFOAM.org                      |
|    \\/     M anipulation  |                                                 |
\*---------------------------------------------------------------------------*/
FoamFile
{
    version     2.0;
    format      ascii;
    class       surfaceScalarField;
    location    "1.5e-05";
    object      phi;
}
// * * * * * * * * * * * * * * * * * * * * * * * * * * * * * * * * * * * * * //

dimensions      [0 3 -1 0 0 0 0];

internalField   nonuniform List<scalar> 
14825
(
1.0344122e-09
-2.0650794e-11
1.0546323e-09
-2.0220148e-11
1.0737686e-09
-1.9136261e-11
1.0951698e-09
-2.1401271e-11
1.1138984e-09
-1.8728587e-11
1.1359792e-09
-2.2080812e-11
1.1543108e-09
-1.833156e-11
1.1762132e-09
-2.1902419e-11
1.1954017e-09
-1.9188454e-11
1.2157618e-09
-2.0360146e-11
1.2359318e-09
-2.016997e-11
1.2551294e-09
-1.9197572e-11
1.2751726e-09
-2.0043226e-11
1.2942515e-09
-1.9078907e-11
1.3131502e-09
-1.8898676e-11
1.3330587e-09
-1.9908545e-11
1.3506921e-09
-1.7633369e-11
1.3709481e-09
-2.0255964e-11
1.3877735e-09
-1.682545e-11
1.4077332e-09
-1.9959688e-11
1.4241804e-09
-1.6447251e-11
1.4431914e-09
-1.901098e-11
1.4604465e-09
-1.7255079e-11
1.4778196e-09
-1.7373104e-11
1.4955819e-09
-1.7762298e-11
1.5125804e-09
-1.699846e-11
1.5286744e-09
-1.6094071e-11
1.5474347e-09
-1.8760247e-11
1.5608321e-09
-1.3397412e-11
1.5798532e-09
-1.9021099e-11
1.5944795e-09
-1.4626327e-11
1.6095662e-09
-1.508667e-11
1.6274927e-09
-1.792654e-11
1.6402906e-09
-1.2797819e-11
1.656314e-09
-1.6023469e-11
1.6718841e-09
-1.5570052e-11
1.6855662e-09
-1.3682148e-11
1.6992987e-09
-1.3732443e-11
1.7145818e-09
-1.5283164e-11
1.7260296e-09
-1.1447767e-11
1.7423437e-09
-1.6314104e-11
1.7527409e-09
-1.0397243e-11
1.767702e-09
-1.496104e-11
1.7782551e-09
-1.0553085e-11
1.7917522e-09
-1.3497088e-11
1.8042602e-09
-1.250803e-11
1.8142098e-09
-9.9495831e-12
1.8262552e-09
-1.2045413e-11
1.8371636e-09
-1.0908416e-11
1.8486041e-09
-1.1440497e-11
1.8569898e-09
-8.3857303e-12
1.8687504e-09
-1.1760546e-11
1.8769052e-09
-8.1547802e-12
1.88628e-09
-9.3748263e-12
1.8972974e-09
-1.1017394e-11
1.9042491e-09
-6.9517413e-12
1.9128228e-09
-8.57372e-12
1.9214588e-09
-8.6359248e-12
1.9302247e-09
-8.7659536e-12
1.9366828e-09
-6.4581199e-12
1.9460566e-09
-9.3737925e-12
1.952052e-09
-5.9953879e-12
1.9582985e-09
-6.2464494e-12
1.9658005e-09
-7.502064e-12
1.9706221e-09
-4.8216118e-12
1.975588e-09
-4.9658313e-12
1.9818147e-09
-6.2267059e-12
1.9859982e-09
-4.1835448e-12
1.9893512e-09
-3.3529558e-12
1.9947786e-09
-5.4274027e-12
1.9962315e-09
-1.4528872e-12
1.9993361e-09
-3.1046651e-12
2.0019945e-09
-2.6584084e-12
2.0052587e-09
-3.2641497e-12
-2.5161924e-12
2.8624877e-09
-8.117257e-11
2.9216205e-09
-7.9352918e-11
2.9785936e-09
-7.6109431e-11
3.0408766e-09
-8.368418e-11
3.0970642e-09
-7.4916259e-11
3.1614337e-09
-8.6450329e-11
3.2168984e-09
-7.3796261e-11
3.2810667e-09
-8.6070654e-11
3.3389091e-09
-7.7030871e-11
3.3993963e-09
-8.0847374e-11
3.4596214e-09
-8.0395072e-11
3.5175952e-09
-7.7171359e-11
3.5771723e-09
-7.9620331e-11
3.6352134e-09
-7.712e-11
3.691587e-09
-7.5272286e-11
3.7521058e-09
-8.0427355e-11
3.8053729e-09
-7.0900435e-11
3.8666e-09
-8.1483054e-11
3.9185058e-09
-6.873124e-11
3.9783423e-09
-7.9796162e-11
4.0296769e-09
-6.7781927e-11
4.0872989e-09
-7.6632913e-11
4.1402809e-09
-7.0237068e-11
4.1943133e-09
-7.1405588e-11
4.2484391e-09
-7.1888012e-11
4.3015616e-09
-7.0120989e-11
4.3517955e-09
-6.6327996e-11
4.4088381e-09
-7.5802834e-11
4.4531552e-09
-5.7714556e-11
4.5102167e-09
-7.6082602e-11
4.5580196e-09
-6.2429197e-11
4.6056281e-09
-6.2695167e-11
4.6604422e-09
-7.2740605e-11
4.7038255e-09
-5.6181133e-11
4.7535028e-09
-6.5700799e-11
4.8029949e-09
-6.5062096e-11
4.8478436e-09
-5.8530842e-11
4.8918892e-09
-5.7778097e-11
4.9414585e-09
-6.4852428e-11
4.979645e-09
-4.9634298e-11
5.0316135e-09
-6.8282563e-11
5.0681881e-09
-4.6971893e-11
5.1158137e-09
-6.2586583e-11
5.1526014e-09
-4.7340858e-11
5.1963022e-09
-5.7197903e-11
5.2368396e-09
-5.3045414e-11
5.2728246e-09
-4.5934561e-11
5.3128142e-09
-5.203501e-11
5.350166e-09
-4.8260174e-11
5.3899427e-09
-5.1217265e-11
5.4217112e-09
-4.0154169e-11
5.4611244e-09
-5.1173819e-11
5.4908148e-09
-3.7845146e-11
5.5252603e-09
-4.3820293e-11
5.562331e-09
-4.8088143e-11
5.5904395e-09
-3.506023e-11
5.6217397e-09
-3.9873899e-11
5.6535337e-09
-4.0429947e-11
5.6844876e-09
-3.9719817e-11
5.7114047e-09
-3.3375281e-11
5.742479e-09
-4.0448092e-11
5.7668104e-09
-3.0326715e-11
5.7903155e-09
-2.9751626e-11
5.8191356e-09
-3.6322148e-11
5.8409063e-09
-2.6592327e-11
5.8631814e-09
-2.7240936e-11
5.8888139e-09
-3.1859206e-11
5.9080314e-09
-2.3401013e-11
5.9243652e-09
-1.9686739e-11
5.9463959e-09
-2.7458091e-11
5.959955e-09
-1.5012026e-11
5.975232e-09
-1.838163e-11
5.9919348e-09
-1.9361258e-11
6.008424e-09
-1.9753348e-11
-1.7419754e-11
4.3660859e-09
-1.7914897e-10
4.4616242e-09
-1.7489123e-10
4.5563056e-09
-1.707908e-10
4.6560489e-09
-1.8342745e-10
4.7502113e-09
-1.6907866e-10
4.8535442e-09
-1.897833e-10
4.9469219e-09
-1.6717388e-10
5.0511261e-09
-1.9027485e-10
5.1473861e-09
-1.7329091e-10
5.2475838e-09
-1.8104509e-10
5.34662e-09
-1.7943128e-10
5.4441809e-09
-1.7473222e-10
5.5418076e-09
-1.7724708e-10
5.6402025e-09
-1.7551483e-10
5.7331032e-09
-1.6817299e-10
5.834856e-09
-1.8218023e-10
5.924471e-09
-1.6051537e-10
6.0261339e-09
-1.8314595e-10
6.1157057e-09
-1.5830302e-10
6.2149909e-09
-1.7908136e-10
6.3036964e-09
-1.5648751e-10
6.4011881e-09
-1.7412462e-10
6.4910259e-09
-1.6007482e-10
6.5839671e-09
-1.6434678e-10
6.6758651e-09
-1.6378604e-10
6.7664261e-09
-1.6068196e-10
6.8547298e-09
-1.5463172e-10
6.9494854e-09
-1.7055845e-10
7.0311026e-09
-1.3933167e-10
7.1265329e-09
-1.7151292e-10
7.2112071e-09
-1.4710348e-10
7.296423e-09
-1.4791104e-10
7.3877549e-09
-1.640725e-10
7.4686822e-09
-1.3710843e-10
7.5549056e-09
-1.5192415e-10
7.6410689e-09
-1.5122543e-10
7.7216554e-09
-1.3911732e-10
7.8017214e-09
-1.3784412e-10
7.88804e-09
-1.5117106e-10
7.9607027e-09
-1.2229695e-10
8.0493082e-09
-1.5688808e-10
8.1191323e-09
-1.1679601e-10
8.2010746e-09
-1.4452887e-10
8.2718354e-09
-1.1810164e-10
8.3518073e-09
-1.3716987e-10
8.4250492e-09
-1.2628723e-10
8.4953821e-09
-1.1626747e-10
8.5683031e-09
-1.2495605e-10
8.6381634e-09
-1.1812047e-10
8.7115752e-09
-1.2462905e-10
8.7765447e-09
-1.0512365e-10
8.8483012e-09
-1.2293033e-10
8.9058757e-09
-9.5419675e-11
8.9752805e-09
-1.1322512e-10
9.0418943e-09
-1.1470196e-10
9.1008413e-09
-9.4007178e-11
9.1623877e-09
-1.0142031e-10
9.2261448e-09
-1.0418707e-10
9.2849799e-09
-9.8554901e-11
9.3439732e-09
-9.2368568e-11
9.4034855e-09
-9.9960426e-11
9.4561273e-09
-8.2968467e-11
9.5071033e-09
-8.0727616e-11
9.5655948e-09
-9.4813659e-11
9.6148968e-09
-7.5894316e-11
9.6624319e-09
-7.4776048e-11
9.7147826e-09
-8.4209972e-11
9.7593031e-09
-6.7921465e-11
9.7992107e-09
-5.9594353e-11
9.8460084e-09
-7.4255809e-11
9.8849875e-09
-5.3991141e-11
9.9225976e-09
-5.5991641e-11
9.9632714e-09
-6.0035133e-11
1.0001208e-08
-5.7690012e-11
-5.5204314e-11
5.5891855e-09
-3.1186375e-10
5.7191121e-09
-3.0481788e-10
5.8512884e-09
-3.0296705e-10
5.984988e-09
-3.1712708e-10
6.1178903e-09
-3.0198097e-10
6.2562471e-09
-3.2814005e-10
6.3886163e-09
-2.9954304e-10
6.5298286e-09
-3.3148723e-10
6.6648075e-09
-3.0826979e-10
6.8033496e-09
-3.195872e-10
6.9405709e-09
-3.1665256e-10
7.0779023e-09
-3.1206358e-10
7.212218e-09
-3.1156279e-10
7.3514529e-09
-3.1474973e-10
7.4795282e-09
-2.9624834e-10
7.622395e-09
-3.2504698e-10
7.7493696e-09
-2.8749003e-10
7.8909534e-09
-3.2472971e-10
8.0206067e-09
-2.879564e-10
8.1584515e-09
-3.1692613e-10
8.2861336e-09
-2.8416962e-10
8.424692e-09
-3.1268301e-10
8.552104e-09
-2.8748679e-10
8.6856037e-09
-2.9784647e-10
8.8166022e-09
-2.9478458e-10
8.9451376e-09
-2.8921732e-10
9.0759912e-09
-2.8548533e-10
9.2062997e-09
-3.0086696e-10
9.3308881e-09
-2.6392005e-10
9.4644901e-09
-3.0511493e-10
9.5889272e-09
-2.7154062e-10
9.7155112e-09
-2.7449505e-10
9.8437885e-09
-2.923498e-10
9.9666704e-09
-2.5999033e-10
1.009262e-08
-2.7787379e-10
1.0217626e-08
-2.7623106e-10
1.0337611e-08
-2.5910215e-10
1.0459493e-08
-2.5972627e-10
1.0583595e-08
-2.7527356e-10
1.0698407e-08
-2.3710852e-10
1.0825097e-08
-2.8357792e-10
1.0937176e-08
-2.2887502e-10
1.1056575e-08
-2.6392822e-10
1.1166768e-08
-2.282947e-10
1.1283513e-08
-2.5391462e-10
1.1389711e-08
-2.3248503e-10
1.1501998e-08
-2.2855477e-10
1.1615336e-08
-2.3829384e-10
1.1724779e-08
-2.2756404e-10
1.1834714e-08
-2.3456335e-10
1.1940492e-08
-2.109019e-10
1.2049208e-08
-2.3164647e-10
1.2143486e-08
-1.896978e-10
1.2253633e-08
-2.2337225e-10
1.2354937e-08
-2.1600572e-10
1.2451983e-08
-1.9105355e-10
1.255208e-08
-2.0151706e-10
1.2654311e-08
-2.0641758e-10
1.2748363e-08
-1.9260743e-10
1.2848072e-08
-1.92077e-10
1.2942965e-08
-1.9485363e-10
1.3030632e-08
-1.7063562e-10
1.3117406e-08
-1.675019e-10
1.3210345e-08
-1.8775212e-10
1.329663e-08
-1.6217968e-10
1.337923e-08
-1.5737627e-10
1.3466407e-08
-1.7138676e-10
1.3546883e-08
-1.4839781e-10
1.3619123e-08
-1.3183381e-10
1.369631e-08
-1.5144261e-10
1.3769265e-08
-1.269467e-10
1.3836942e-08
-1.2366817e-10
1.3909738e-08
-1.3283136e-10
1.3984035e-08
-1.3198727e-10
-1.2605871e-10
6.5701438e-09
-4.7623625e-10
6.734532e-09
-4.6920609e-10
6.9024341e-09
-4.7086917e-10
7.0682986e-09
-4.8299158e-10
7.2398977e-09
-4.7358006e-10
7.4087397e-09
-4.9698202e-10
7.5817266e-09
-4.7252995e-10
7.7551773e-09
-5.0493795e-10
7.9299699e-09
-4.8306239e-10
8.1039417e-09
-4.9355895e-10
8.279417e-09
-4.9212789e-10
8.4551483e-09
-4.8779482e-10
8.6255987e-09
-4.8201323e-10
8.8053943e-09
-4.9454532e-10
8.9681145e-09
-4.5896859e-10
9.1512885e-09
-5.0822097e-10
9.3158092e-09
-4.5201067e-10
9.4954904e-09
-5.0441092e-10
9.6673106e-09
-4.5977661e-10
9.8439925e-09
-4.9360802e-10
1.001348e-08
-4.5365673e-10
1.0191762e-08
-4.9096523e-10
1.0357249e-08
-4.5297415e-10
1.0532752e-08
-4.7334967e-10
1.0703642e-08
-4.6567429e-10
1.0870548e-08
-4.5612335e-10
1.1045776e-08
-4.6071333e-10
1.1211579e-08
-4.6666981e-10
1.1382006e-08
-4.3434678e-10
1.1554653e-08
-4.7776183e-10
1.1721024e-08
-4.3791241e-10
1.1890845e-08
-4.4431611e-10
1.2059516e-08
-4.6102074e-10
1.2226323e-08
-4.2679713e-10
1.2395869e-08
-4.4741927e-10
1.2560355e-08
-4.4071733e-10
1.2723459e-08
-4.2220576e-10
1.2889714e-08
-4.2598205e-10
1.3053406e-08
-4.3896507e-10
1.3215889e-08
-3.9959182e-10
1.3382568e-08
-4.5025716e-10
1.3542094e-08
-3.8840082e-10
1.3701972e-08
-4.2380597e-10
1.385837e-08
-3.8469297e-10
1.4020495e-08
-4.1603898e-10
1.4166005e-08
-3.7799545e-10
1.4323469e-08
-3.860191e-10
1.447197e-08
-3.8679433e-10
1.462277e-08
-3.783638e-10
1.4774998e-08
-3.8679194e-10
1.4935464e-08
-3.7136731e-10
1.5081712e-08
-3.778953e-10
1.5219464e-08
-3.2744932e-10
1.5374422e-08
-3.7833029e-10
1.5519291e-08
-3.6087483e-10
1.5659395e-08
-3.311576e-10
1.5805552e-08
-3.4767417e-10
1.5949653e-08
-3.5051794e-10
1.6088819e-08
-3.3177405e-10
1.6233536e-08
-3.3679347e-10
1.6371667e-08
-3.3298492e-10
1.6500422e-08
-2.993903e-10
1.6631961e-08
-2.9904112e-10
1.6764527e-08
-3.2031813e-10
1.6896896e-08
-2.9454854e-10
1.7018758e-08
-2.7923836e-10
1.7144532e-08
-2.9716051e-10
1.7264886e-08
-2.6875223e-10
1.7382222e-08
-2.4916968e-10
1.7499322e-08
-2.6854308e-10
1.761894e-08
-2.4656438e-10
1.7726155e-08
-2.3088302e-10
1.7840289e-08
-2.4696595e-10
1.7956623e-08
-2.4832068e-10
-2.3986776e-10
7.3431714e-09
-6.695611e-10
7.5453024e-09
-6.7133711e-10
7.7441663e-09
-6.6973302e-10
7.9447997e-09
-6.83625e-10
8.1518512e-09
-6.8063157e-10
8.348123e-09
-6.9325374e-10
8.5620724e-09
-6.8647945e-10
8.7605736e-09
-7.0343914e-10
8.9770649e-09
-6.9955362e-10
9.180551e-09
-6.9704508e-10
9.3952596e-09
-7.0683645e-10
9.6064486e-09
-6.9898386e-10
9.8135893e-09
-6.8915394e-10
1.0032803e-08
-7.1375925e-10
1.0230926e-08
-6.5709184e-10
1.0452932e-08
-7.3022684e-10
1.0656436e-08
-6.5551447e-10
1.0872785e-08
-7.2076005e-10
1.10872e-08
-6.7419165e-10
1.1301181e-08
-7.0758901e-10
1.1513069e-08
-6.6554461e-10
1.1732576e-08
-7.1047214e-10
1.193865e-08
-6.5904828e-10
1.2154184e-08
-6.888835e-10
1.2366547e-08
-6.7803753e-10
1.2573481e-08
-6.6305667e-10
1.2791671e-08
-6.7890336e-10
1.2996713e-08
-6.7171209e-10
1.3211209e-08
-6.4884315e-10
1.3425439e-08
-6.9199177e-10
1.3634604e-08
-6.4707723e-10
1.3848804e-08
-6.5851603e-10
1.4060665e-08
-6.7288216e-10
1.4274037e-08
-6.4016883e-10
1.4489661e-08
-6.6304324e-10
1.4697415e-08
-6.4847132e-10
1.4908208e-08
-6.3299885e-10
1.51218e-08
-6.395738e-10
1.5327632e-08
-6.4479756e-10
1.5539284e-08
-6.1124299e-10
1.5744371e-08
-6.5534459e-10
1.5953064e-08
-5.9709374e-10
1.6156216e-08
-6.2695831e-10
1.6363612e-08
-5.9208883e-10
1.6571587e-08
-6.2401361e-10
1.6763573e-08
-5.6998122e-10
1.6971981e-08
-5.9442805e-10
1.7170383e-08
-5.8519567e-10
1.737145e-08
-5.7943054e-10
1.756211e-08
-5.7745254e-10
1.7768467e-08
-5.7772432e-10
1.7954681e-08
-5.641087e-10
1.815128e-08
-5.2404844e-10
1.8352934e-08
-5.7998427e-10
1.8545317e-08
-5.5325852e-10
1.8737658e-08
-5.234979e-10
1.8933972e-08
-5.4398872e-10
1.9124377e-08
-5.4092228e-10
1.9315651e-08
-5.2304881e-10
1.9511344e-08
-5.3248572e-10
1.9696131e-08
-5.1777207e-10
1.9875583e-08
-4.7884218e-10
2.0051957e-08
-4.754155e-10
2.023245e-08
-5.0081139e-10
2.0417198e-08
-4.792967e-10
2.059192e-08
-4.539599e-10
2.0765439e-08
-4.706796e-10
2.0937709e-08
-4.4102194e-10
2.1102468e-08
-4.1392895e-10
2.1256159e-08
-4.2223445e-10
2.1418391e-08
-4.0879578e-10
2.1579513e-08
-3.9200547e-10
2.1752118e-08
-4.1957058e-10
2.1917597e-08
-4.1379953e-10
-4.0526264e-10
7.9399233e-09
-8.9124791e-10
8.1814515e-09
-9.1286527e-10
8.4062782e-09
-8.9455972e-10
8.64555e-09
-9.228968e-10
8.88109e-09
-9.1617156e-10
9.1065338e-09
-9.1869754e-10
9.3572128e-09
-9.3715848e-10
9.5768869e-09
-9.2311325e-10
9.8352283e-09
-9.5789499e-10
1.006227e-08
-9.2408678e-10
1.0317633e-08
-9.6219985e-10
1.0560637e-08
-9.4198715e-10
1.0805815e-08
-9.343322e-10
1.1062347e-08
-9.7029106e-10
1.1299435e-08
-8.941801e-10
1.1556843e-08
-9.8763489e-10
1.1801545e-08
-9.0021628e-10
1.2052306e-08
-9.715212e-10
1.2306636e-08
-9.285216e-10
1.2559101e-08
-9.6005408e-10
1.2811927e-08
-9.183707e-10
1.3071336e-08
-9.6988066e-10
1.3322049e-08
-9.0976134e-10
1.3576149e-08
-9.4298346e-10
1.3832277e-08
-9.3416565e-10
1.408104e-08
-9.1182009e-10
1.4340151e-08
-9.3801425e-10
1.459148e-08
-9.2304139e-10
1.4847527e-08
-9.048894e-10
1.5105055e-08
-9.4952053e-10
1.5360477e-08
-9.0249872e-10
1.5617613e-08
-9.1565229e-10
1.5875998e-08
-9.3126737e-10
1.6138965e-08
-9.031351e-10
1.6398635e-08
-9.2271387e-10
1.665276e-08
-9.0259623e-10
1.6913003e-08
-8.9324139e-10
1.7170594e-08
-8.9716478e-10
1.7424185e-08
-8.9838861e-10
1.7687579e-08
-8.7463742e-10
1.7938355e-08
-9.0612014e-10
1.8201211e-08
-8.5994951e-10
1.8450183e-08
-8.7593124e-10
1.870949e-08
-8.5139543e-10
1.8961342e-08
-8.7586585e-10
1.9199203e-08
-8.0784177e-10
1.9456762e-08
-8.5198715e-10
1.9703838e-08
-8.3227132e-10
1.9960185e-08
-8.3577777e-10
2.0205796e-08
-8.2306353e-10
2.0473023e-08
-8.449512e-10
2.0702942e-08
-7.9402798e-10
2.0950538e-08
-7.7164413e-10
2.1191535e-08
-8.2098121e-10
2.1439994e-08
-8.0171796e-10
2.1688379e-08
-7.7188257e-10
2.194571e-08
-8.0132036e-10
2.2187655e-08
-7.8286653e-10
2.2436903e-08
-7.722968e-10
2.2686145e-08
-7.8172796e-10
2.2922351e-08
-7.539781e-10
2.3161695e-08
-7.1818586e-10
2.3387104e-08
-7.0082535e-10
2.361766e-08
-7.3136659e-10
2.3846884e-08
-7.0852157e-10
2.4078712e-08
-6.8578788e-10
2.430487e-08
-6.9683701e-10
2.4542678e-08
-6.7883035e-10
2.4773326e-08
-6.4457627e-10
2.499137e-08
-6.4027862e-10
2.5209064e-08
-6.2649036e-10
2.5420087e-08
-6.0302841e-10
2.5632839e-08
-6.3232278e-10
2.5859513e-08
-6.4047306e-10
-6.2793961e-10
8.3878803e-09
-1.1424213e-09
8.6609491e-09
-1.1859341e-09
8.9129162e-09
-1.1465268e-09
9.1863612e-09
-1.1963417e-09
9.4473155e-09
-1.1771259e-09
9.7067254e-09
-1.1781074e-09
9.9853655e-09
-1.2157986e-09
1.0235706e-08
-1.1734537e-09
1.0527403e-08
-1.2495917e-09
1.078281e-08
-1.1794946e-09
1.1074412e-08
-1.2538013e-09
1.1348705e-08
-1.2162804e-09
1.1632054e-08
-1.2176814e-09
1.1920981e-08
-1.2592175e-09
1.2201031e-08
-1.1742308e-09
1.2489307e-08
-1.2759105e-09
1.2777116e-08
-1.1880249e-09
1.3062453e-08
-1.2568583e-09
1.3353542e-08
-1.2196111e-09
1.3644266e-08
-1.2507778e-09
1.3937998e-08
-1.2121023e-09
1.4232457e-08
-1.2643397e-09
1.453387e-08
-1.211175e-09
1.4823154e-08
-1.2322673e-09
1.5128238e-08
-1.2392494e-09
1.5422941e-08
-1.2065232e-09
1.5718869e-08
-1.233942e-09
1.6021114e-08
-1.2252869e-09
1.6321286e-08
-1.2050608e-09
1.6620533e-08
-1.248768e-09
1.692631e-08
-1.2082755e-09
1.7227192e-08
-1.2165341e-09
1.7530224e-08
-1.2342997e-09
1.7846636e-08
-1.2195474e-09
1.8145789e-08
-1.2218665e-09
1.8449267e-08
-1.2060746e-09
1.8759172e-08
-1.2031456e-09
1.9059689e-08
-1.1976824e-09
1.9365206e-08
-1.2039049e-09
1.9676676e-08
-1.1861082e-09
1.997584e-08
-1.2052838e-09
2.0292442e-08
-1.1765511e-09
2.0593472e-08
-1.1769618e-09
2.0905971e-08
-1.1638947e-09
2.1209092e-08
-1.1789868e-09
2.150719e-08
-1.1059393e-09
2.181493e-08
-1.1597275e-09
2.2106093e-08
-1.1234338e-09
2.241478e-08
-1.1444654e-09
2.2712979e-08
-1.1212625e-09
2.3032197e-08
-1.1641689e-09
2.3327863e-08
-1.0896939e-09
2.3647395e-08
-1.0911766e-09
2.3929536e-08
-1.1031223e-09
2.4235399e-08
-1.1075801e-09
2.452798e-08
-1.0644636e-09
2.4834899e-08
-1.10824e-09
2.5124775e-08
-1.072742e-09
2.5448049e-08
-1.0955715e-09
2.5750347e-08
-1.0840254e-09
2.6045031e-08
-1.0486627e-09
2.634591e-08
-1.019064e-09
2.6623599e-08
-9.7851499e-10
2.6920062e-08
-1.027829e-09
2.7218032e-08
-1.006492e-09
2.7502064e-08
-9.6981995e-10
2.7782437e-08
-9.7720974e-10
2.8070946e-08
-9.6733973e-10
2.8360226e-08
-9.3385632e-10
2.8639138e-08
-9.1919084e-10
2.8920103e-08
-9.0745516e-10
2.9207569e-08
-8.9049465e-10
2.9482335e-08
-9.0708837e-10
2.97464e-08
-9.0453768e-10
-9.1085341e-10
8.7075925e-09
-1.4223057e-09
9.0003565e-09
-1.4786981e-09
9.284931e-09
-1.4311013e-09
9.5814876e-09
-1.4928983e-09
9.8729194e-09
-1.4685577e-09
1.0166142e-08
-1.4713297e-09
1.0468402e-08
-1.518059e-09
1.0761147e-08
-1.4661988e-09
1.1073504e-08
-1.5619487e-09
1.1370051e-08
-1.4760411e-09
1.1686764e-08
-1.5705149e-09
1.1996468e-08
-1.5259841e-09
1.2313254e-08
-1.5344675e-09
1.2632371e-08
-1.5783341e-09
1.2954862e-08
-1.4967224e-09
1.3272482e-08
-1.5935301e-09
1.3603176e-08
-1.518719e-09
1.3924252e-08
-1.577934e-09
1.4253541e-08
-1.5489007e-09
1.4581287e-08
-1.5785232e-09
1.4920236e-08
-1.5510518e-09
1.524478e-08
-1.5888832e-09
1.5598524e-08
-1.5649194e-09
1.5922362e-08
-1.5561053e-09
1.6273604e-08
-1.5904907e-09
1.66166e-08
-1.5495194e-09
1.6953083e-08
-1.5704254e-09
1.7303037e-08
-1.5752405e-09
1.7649722e-08
-1.5517457e-09
1.7990162e-08
-1.5892089e-09
1.8344095e-08
-1.5622082e-09
1.8691061e-08
-1.5634999e-09
1.9035814e-08
-1.5790531e-09
1.9407544e-08
-1.5912765e-09
1.9742786e-08
-1.5571092e-09
2.0102456e-08
-1.5657439e-09
2.045679e-08
-1.5574799e-09
2.0804472e-08
-1.5453641e-09
2.1165039e-08
-1.5644719e-09
2.1520791e-08
-1.5418607e-09
2.1873342e-08
-1.5578346e-09
2.2238085e-08
-1.5412943e-09
2.2591705e-08
-1.5305812e-09
2.2955408e-08
-1.5275978e-09
2.3306037e-08
-1.5296159e-09
2.3672442e-08
-1.4723446e-09
2.4028115e-08
-1.5154005e-09
2.4383927e-08
-1.4792458e-09
2.4749282e-08
-1.5098205e-09
2.5101658e-08
-1.4736383e-09
2.5458537e-08
-1.5210479e-09
2.5815178e-08
-1.4463344e-09
2.6185801e-08
-1.4617996e-09
2.6521773e-08
-1.4390946e-09
2.6895984e-08
-1.4817916e-09
2.7245596e-08
-1.4140751e-09
2.7594412e-08
-1.4570566e-09
2.7927037e-08
-1.4053665e-09
2.8303756e-08
-1.4722907e-09
2.8670194e-08
-1.4504628e-09
2.9030429e-08
-1.408898e-09
2.9388413e-08
-1.3770479e-09
2.971823e-08
-1.3083324e-09
3.0077486e-08
-1.3870843e-09
3.0437833e-08
-1.3668392e-09
3.0788383e-08
-1.3203706e-09
3.11259e-08
-1.3147264e-09
3.1465657e-08
-1.3070971e-09
3.1814418e-08
-1.2826173e-09
3.2152041e-08
-1.2568137e-09
3.2470596e-08
-1.2260101e-09
3.28113e-08
-1.2311988e-09
3.3136865e-08
-1.2326528e-09
3.3473508e-08
-1.2411805e-09
-1.2555103e-09
8.9160878e-09
-1.7276134e-09
9.2265143e-09
-1.7891246e-09
9.5424945e-09
-1.7470816e-09
9.8591556e-09
-1.8095594e-09
1.0182507e-08
-1.7919092e-09
1.0504072e-08
-1.7928946e-09
1.0833003e-08
-1.84699e-09
1.1163138e-08
-1.7963341e-09
1.1496337e-08
-1.8951473e-09
1.1833788e-08
-1.8134923e-09
1.2172697e-08
-1.9094243e-09
1.2519898e-08
-1.8731848e-09
1.2867207e-08
-1.8817766e-09
1.3219003e-08
-1.93013e-09
1.3580097e-08
-1.857816e-09
1.3929558e-08
-1.9429918e-09
1.4300942e-08
-1.8901028e-09
1.4657792e-08
-1.934784e-09
1.5025093e-08
-1.9162013e-09
1.5391929e-08
-1.9453589e-09
1.5770447e-08
-1.9295704e-09
1.613368e-08
-1.952116e-09
1.6529835e-08
-1.9610743e-09
1.6894244e-08
-1.9205141e-09
1.7287221e-08
-1.9834683e-09
1.7671297e-08
-1.9335945e-09
1.8053904e-08
-1.9530329e-09
1.8443327e-08
-1.9646632e-09
1.8840203e-08
-1.9486217e-09
1.9216176e-08
-1.9651825e-09
1.9621032e-08
-1.9670642e-09
2.0010356e-08
-1.9528242e-09
2.0401041e-08
-1.9697377e-09
2.0822732e-08
-2.0129679e-09
2.1194091e-08
-1.9284682e-09
2.1616168e-08
-1.9878207e-09
2.2008401e-08
-1.9497127e-09
2.2404833e-08
-1.9417961e-09
2.2825265e-08
-1.9849037e-09
2.3212342e-08
-1.9289382e-09
2.3628501e-08
-1.9739939e-09
2.4032453e-08
-1.9452462e-09
2.4441749e-08
-1.939877e-09
2.4848981e-08
-1.9348302e-09
2.5245768e-08
-1.9264025e-09
2.5677603e-08
-1.9041798e-09
2.6063147e-08
-1.9009437e-09
2.647586e-08
-1.8919597e-09
2.6892218e-08
-1.926178e-09
2.730221e-08
-1.8836302e-09
2.7710212e-08
-1.9290503e-09
2.812598e-08
-1.8621025e-09
2.8530086e-08
-1.8659051e-09
2.8898901e-08
-1.8079095e-09
2.9322308e-08
-1.9051987e-09
2.9722374e-08
-1.8141413e-09
3.0140274e-08
-1.8749562e-09
3.051427e-08
-1.7793633e-09
3.0935677e-08
-1.8936972e-09
3.1340271e-08
-1.8550567e-09
3.1766102e-08
-1.8347295e-09
3.2171212e-08
-1.7821571e-09
3.2555031e-08
-1.692152e-09
3.2966831e-08
-1.7988845e-09
3.3381039e-08
-1.7810465e-09
3.3781475e-08
-1.7208071e-09
3.4199786e-08
-1.7330371e-09
3.4603992e-08
-1.7113031e-09
3.4985337e-08
-1.6639626e-09
3.5366862e-08
-1.6383388e-09
3.5730625e-08
-1.589773e-09
3.6111422e-08
-1.6119959e-09
3.6467026e-08
-1.5882567e-09
3.686443e-08
-1.6385844e-09
-1.6554908e-09
9.0309752e-09
-2.0556803e-09
9.3616288e-09
-2.1197783e-09
9.7041754e-09
-2.0896282e-09
1.0042792e-08
-2.1481759e-09
1.0393178e-08
-2.1422955e-09
1.0741066e-08
-2.1407824e-09
1.109646e-08
-2.2023835e-09
1.1456026e-08
-2.1559008e-09
1.1816926e-08
-2.2560473e-09
1.2185869e-08
-2.1824347e-09
1.255505e-08
-2.2786055e-09
1.2933817e-08
-2.2519516e-09
1.3316768e-08
-2.2647279e-09
1.3697636e-08
-2.3109981e-09
1.4098222e-08
-2.258402e-09
1.4477305e-08
-2.3220754e-09
1.4887004e-08
-2.299801e-09
1.5278589e-08
-2.3263695e-09
1.5678413e-08
-2.3160249e-09
1.6090562e-08
-2.3575082e-09
1.6494866e-08
-2.3338741e-09
1.6911055e-08
-2.3683056e-09
1.7331765e-08
-2.3817844e-09
1.7749181e-08
-2.3379301e-09
1.81745e-08
-2.4087869e-09
1.8599599e-08
-2.3586935e-09
1.9027336e-08
-2.38077e-09
1.9450045e-08
-2.3873727e-09
1.9897964e-08
-2.3965404e-09
2.0307652e-08
-2.3748698e-09
2.0760185e-08
-2.4195978e-09
2.1188516e-08
-2.3811546e-09
2.1628143e-08
-2.4093649e-09
2.2091581e-08
-2.4764062e-09
2.2500217e-08
-2.3371046e-09
2.2982466e-08
-2.4700689e-09
2.3401197e-08
-2.3684439e-09
2.3838093e-08
-2.3786926e-09
2.4314127e-08
-2.4609378e-09
2.4726598e-08
-2.3414086e-09
2.519851e-08
-2.4459062e-09
2.5628339e-08
-2.3750753e-09
2.6097823e-08
-2.4093609e-09
2.653152e-08
-2.3685266e-09
2.6967066e-08
-2.361949e-09
2.7457585e-08
-2.3946986e-09
2.7845397e-08
-2.2887556e-09
2.8321077e-08
-2.3676403e-09
2.8769953e-08
-2.375053e-09
2.918964e-08
-2.3033177e-09
2.9659272e-08
-2.3986819e-09
3.0114017e-08
-2.3168485e-09
3.0566722e-08
-2.3186092e-09
3.0975619e-08
-2.2168072e-09
3.1418812e-08
-2.3483913e-09
3.1847216e-08
-2.2425452e-09
3.2291155e-08
-2.3188958e-09
3.2699276e-08
-2.1874843e-09
3.318415e-08
-2.3785711e-09
3.3649515e-08
-2.3204209e-09
3.4130071e-08
-2.3152864e-09
3.4549769e-08
-2.2018542e-09
3.4999628e-08
-2.1420111e-09
3.5469713e-08
-2.2689696e-09
3.5920822e-08
-2.2321553e-09
3.6309824e-08
-2.1098093e-09
3.679709e-08
-2.2203038e-09
3.7255106e-08
-2.1693181e-09
3.7635715e-08
-2.0445719e-09
3.8009362e-08
-2.0119858e-09
3.8411863e-08
-1.9922744e-09
3.8884868e-08
-2.0850007e-09
3.9146321e-08
-1.8497098e-09
3.9236949e-08
-1.7292126e-09
-1.927615e-09
9.0672082e-09
-2.4040504e-09
9.4181327e-09
-2.4707028e-09
9.7850899e-09
-2.4565854e-09
1.0143873e-08
-2.5069588e-09
1.0521478e-08
-2.5199011e-09
1.0893118e-08
-2.5124216e-09
1.1274261e-08
-2.5835275e-09
1.1662815e-08
-2.5444541e-09
1.2049361e-08
-2.642594e-09
1.2449842e-08
-2.5829149e-09
1.2847429e-08
-2.6761924e-09
1.3256568e-08
-2.661091e-09
1.3672544e-08
-2.6807039e-09
1.4080919e-08
-2.7193728e-09
1.4516961e-08
-2.6944447e-09
1.4924518e-08
-2.7296315e-09
1.5370264e-08
-2.745548e-09
1.5792634e-08
-2.7487389e-09
1.6228949e-08
-2.7523398e-09
1.667848e-08
-2.8070394e-09
1.7114981e-08
-2.7703751e-09
1.7576009e-08
-2.8293334e-09
1.8023419e-08
-2.8291943e-09
1.8490323e-08
-2.8048345e-09
1.8942832e-08
-2.8612955e-09
1.9412564e-08
-2.8284256e-09
1.9873323e-08
-2.8415292e-09
2.0336679e-08
-2.8507282e-09
2.0819844e-08
-2.8797062e-09
2.1264171e-08
-2.819196e-09
2.1755521e-08
-2.9109479e-09
2.2213648e-08
-2.839282e-09
2.2690377e-08
-2.8860942e-09
2.3184943e-08
-2.9709721e-09
2.3617908e-08
-2.7700694e-09
2.4144309e-08
-2.9964697e-09
2.4579476e-08
-2.8036113e-09
2.5042363e-08
-2.8415797e-09
2.5546981e-08
-2.9655559e-09
2.5998403e-08
-2.7928303e-09
2.6483969e-08
-2.9314723e-09
2.6940953e-08
-2.8320595e-09
2.7461071e-08
-2.9294784e-09
2.7881587e-08
-2.7890431e-09
2.8362319e-08
-2.8426807e-09
2.8856467e-08
-2.8888467e-09
2.9263506e-08
-2.6957945e-09
2.9808453e-08
-2.9125874e-09
3.0279221e-08
-2.8458212e-09
3.0692344e-08
-2.71644e-09
3.1233134e-08
-2.939472e-09
3.1662208e-08
-2.7459226e-09
3.2131606e-08
-2.7880072e-09
3.2395657e-08
-2.4808585e-09
3.2862183e-08
-2.8149172e-09
3.3109826e-08
-2.4901874e-09
3.3435201e-08
-2.644271e-09
3.2578534e-08
-1.3308178e-09
3.3413914e-08
-3.2139506e-09
3.4178568e-08
-3.0850751e-09
3.4627702e-08
-2.7644205e-09
3.5114746e-08
-2.6888979e-09
3.4759226e-08
-1.7864913e-09
3.5299085e-08
-2.8088292e-09
3.5566135e-08
-2.4992043e-09
3.5658529e-08
-2.202204e-09
3.5932934e-08
-2.4947087e-09
3.5917736e-08
-2.1541196e-09
3.5862529e-08
-1.9893652e-09
3.5993984e-08
-2.1434413e-09
3.6047783e-08
-2.0460728e-09
3.605359e-08
-2.0908075e-09
3.5883913e-08
-1.6800334e-09
3.5157832e-08
-1.003131e-09
-1.5080568e-09
9.0377682e-09
-2.7704682e-09
9.4096914e-09
-2.8426261e-09
9.797299e-09
-2.8441929e-09
1.0177897e-08
-2.8875569e-09
1.0581219e-08
-2.9232232e-09
1.0972404e-08
-2.9036065e-09
1.1382867e-08
-2.9939908e-09
1.1792272e-08
-2.9538589e-09
1.2207788e-08
-3.0581101e-09
1.263545e-08
-3.0105769e-09
1.3058197e-08
-3.098939e-09
1.3500324e-08
-3.1032176e-09
1.3938597e-08
-3.1189772e-09
1.4383952e-08
-3.1647273e-09
1.484058e-08
-3.1510736e-09
1.5288436e-08
-3.1774869e-09
1.5760402e-08
-3.2175145e-09
1.6218106e-08
-3.2064428e-09
1.6691103e-08
-3.2253367e-09
1.7170652e-08
-3.2865887e-09
1.7646533e-08
-3.2462558e-09
1.8133733e-08
-3.3165338e-09
1.8618134e-08
-3.3135946e-09
1.9110181e-08
-3.2968821e-09
1.9598791e-08
-3.3499053e-09
2.0088836e-08
-3.3184708e-09
2.0579794e-08
-3.3324868e-09
2.1070512e-08
-3.3414468e-09
2.1571516e-08
-3.3807101e-09
2.2033576e-08
-3.2812555e-09
2.255162e-08
-3.4289924e-09
2.3010481e-08
-3.2981427e-09
2.3517892e-08
-3.3935047e-09
2.4022868e-08
-3.4759485e-09
2.4452775e-08
-3.1999767e-09
2.5019525e-08
-3.5632195e-09
2.5406016e-08
-3.1901019e-09
2.5927353e-08
-3.3629172e-09
2.6453144e-08
-3.4913467e-09
2.6937486e-08
-3.2771721e-09
2.736648e-08
-3.3604661e-09
2.7837654e-08
-3.3032339e-09
2.8293508e-08
-3.385332e-09
2.8484765e-08
-2.9803004e-09
2.8408019e-08
-2.7659345e-09
2.8467111e-08
-2.9479391e-09
2.8550801e-08
-2.7794845e-09
2.8684805e-08
-3.0465918e-09
2.9266949e-08
-3.4279652e-09
2.9137226e-08
-2.5867168e-09
2.9293534e-08
-3.09578e-09
2.9189283e-08
-2.6416717e-09
2.9299838e-08
-2.8985624e-09
2.8613964e-08
-1.7949844e-09
2.8517916e-08
-2.7188691e-09
2.8102589e-08
-2.0748605e-09
2.8285459e-08
-2.8271402e-09
2.7135051e-08
-1.8041019e-10
2.6832014e-08
-2.9109133e-09
2.7235274e-08
-3.4883351e-09
2.6263024e-08
-1.7921713e-09
2.59338e-08
-2.3596736e-09
2.4392109e-08
-2.4479993e-10
2.2679753e-08
-1.0964735e-09
2.323258e-08
-3.0520314e-09
2.2884289e-08
-1.8539131e-09
2.2512805e-08
-2.1232248e-09
2.2197804e-08
-1.8391182e-09
1.9971183e-08
2.3725581e-10
2.0475683e-08
-2.6479418e-09
2.0487424e-08
-2.0578135e-09
1.8417506e-08
-2.0888942e-11
1.8390091e-08
-1.6526187e-09
1.8283897e-08
-8.9693744e-10
-1.5422342e-09
8.9563588e-09
-3.1553215e-09
9.3474278e-09
-3.2336952e-09
9.7530163e-09
-3.2497814e-09
1.0156973e-08
-3.2915137e-09
1.0577777e-08
-3.3440276e-09
1.0991762e-08
-3.3175914e-09
1.1425571e-08
-3.4277996e-09
1.1854393e-08
-3.3826809e-09
1.2302697e-08
-3.5064136e-09
1.274756e-08
-3.4554402e-09
1.3206322e-08
-3.5577013e-09
1.3668883e-08
-3.5657778e-09
1.4139162e-08
-3.5892569e-09
1.4613583e-08
-3.6391477e-09
1.5094336e-08
-3.6318274e-09
1.5581289e-08
-3.6644394e-09
1.6074277e-08
-3.7105028e-09
1.6570026e-08
-3.7021918e-09
1.7062596e-08
-3.7179061e-09
1.7576313e-08
-3.8003063e-09
1.8063343e-08
-3.7332852e-09
1.8580719e-08
-3.8339097e-09
1.9068472e-08
-3.8013478e-09
1.9583452e-08
-3.8118619e-09
2.0079967e-08
-3.846421e-09
2.0572968e-08
-3.8114716e-09
2.1078905e-08
-3.8384237e-09
2.1573974e-08
-3.8365159e-09
2.2074501e-08
-3.8812368e-09
2.2519887e-08
-3.7266414e-09
2.3068311e-08
-3.9774169e-09
2.349324e-08
-3.7230714e-09
2.4051311e-08
-3.9515763e-09
2.4481548e-08
-3.906185e-09
2.4714422e-08
-3.4328509e-09
2.5038372e-08
-3.8871697e-09
2.4484206e-08
-2.6359357e-09
2.4918901e-08
-3.7976117e-09
2.5286597e-08
-3.8590429e-09
2.5228404e-08
-3.2189791e-09
2.5029126e-08
-3.1611885e-09
2.4654684e-08
-2.9287919e-09
2.4603439e-08
-3.3340864e-09
2.3793883e-08