/*--------------------------------*- C++ -*----------------------------------*\
| =========                 |                                                 |
| \\      /  F ield         | OpenFOAM: The Open Source CFD Toolbox           |
|  \\    /   O peration     | Version:  2.3.0                                 |
|   \\  /    A nd           | Web:      www.OpenFOAM.org                      |
|    \\/     M anipulation  |                                                 |
\*---------------------------------------------------------------------------*/
FoamFile
{
    version     2.0;
    format      ascii;
    class       volVectorField;
    location    "1.5e-05";
    object      U;
}
// * * * * * * * * * * * * * * * * * * * * * * * * * * * * * * * * * * * * * //

dimensions      [0 1 -1 0 0 0 0];

internalField   nonuniform List<vector> 
7500
(
(461.43123 -0.017431109 -3.144305e-16)
(458.90699 0.027155296 2.4133668e-15)
(460.29819 0.06072051 3.0138216e-15)
(459.36621 -0.047064179 -8.6709575e-16)
(459.52302 0.025790204 2.7464325e-15)
(459.42736 -0.015945211 5.8439321e-15)
(459.71893 0.034937803 1.9343276e-15)
(459.41011 -0.086459324 6.1819627e-15)
(459.93132 0.07946985 4.7529576e-15)
(459.70201 -0.057515344 1.2198229e-15)
(460.02642 -0.0025009004 1.1957992e-15)
(460.12201 0.021176992 -1.3707169e-15)
(459.8784 -0.035651292 1.3867685e-15)
(460.23882 0.026063868 1.488113e-15)
(460.00554 -0.0086552742 8.9999972e-16)
(459.98318 -0.0073365575 1.2580002e-15)
(460.42537 0.013505651 1.2781997e-15)
(459.86994 -0.016093246 -1.2820529e-15)
(460.2673 0.017660566 1.0341203e-15)
(460.28261 -0.036048847 7.2982044e-16)
(459.72117 0.058391587 -1.1318353e-15)
(460.4714 -0.03848096 6.3005538e-16)
(459.75556 0.010173997 6.3741953e-16)
(460.12128 0.014300234 -1.2983502e-15)
(460.08998 -0.022822344 1.5645035e-15)
(459.82774 0.026018568 6.4032518e-16)
(460.10602 -0.0035779052 9.6374578e-16)
(459.86414 -0.037733165 -1.4268153e-15)
(460.12584 0.089668728 -1.3863897e-15)
(459.73479 -0.10299516 3.0129577e-15)
(460.29911 0.076156532 -1.0455264e-15)
(459.597 -0.018399303 1.0463309e-15)
(460.20748 -0.062082222 1.1344855e-15)
(459.8632 0.092841753 -1.3624798e-15)
(459.85861 -0.057707256 -1.1169651e-15)
(460.15897 -0.0099200394 9.966796e-16)
(459.78014 0.042543402 -8.5898444e-16)
(460.0251 -0.021128988 1.1258148e-15)
(460.11364 -0.0046122022 7.5433127e-16)
(459.81456 0.042933929 6.7431837e-16)
(460.10269 -0.071820888 7.0991696e-16)
(459.91408 0.073925204 5.3329035e-16)
(459.95445 -0.059013327 2.6488641e-15)
(459.91636 0.05947437 2.9996589e-15)
(460.05931 -0.058136213 3.6444281e-16)
(459.94097 0.0018945355 -1.163992e-15)
(459.82954 0.064322845 -4.3639735e-16)
(460.02467 -0.037135601 -1.1000939e-15)
(459.8322 -0.016015772 2.7448748e-16)
(459.83617 0.0043368361 4.2148539e-16)
(459.81066 0.049062837 6.5827961e-16)
(459.93249 -0.032985642 2.2583869e-15)
(459.7029 0.05904974 4.6037378e-16)
(459.8561 -0.039155572 2.7575581e-16)
(459.83489 -0.034905075 5.1584611e-16)
(459.57172 0.069070741 -1.1836772e-15)
(459.90411 -0.021163255 2.2227237e-16)
(459.73185 -0.015142408 3.2245075e-16)
(460.01375 -0.014121094 3.8242665e-16)
(459.87056 0.029212342 6.6235967e-16)
(459.97519 -0.063130449 4.5958813e-16)
(459.86599 0.021377735 2.1399338e-15)
(460.21551 -0.022081547 4.2580814e-16)
(459.89502 -0.012607645 -1.163434e-15)
(460.01897 0.039537882 -1.5615837e-15)
(460.1736 -0.0071140972 2.6391784e-16)
(460.11644 -0.024549122 2.6306916e-16)
(460.14706 0.018309345 5.7121162e-16)
(460.00836 0.0093097692 4.5490975e-16)
(460.0674 -0.022820117 -1.2306452e-15)
(459.77266 0.060373671 -1.4460621e-15)
(459.84085 -0.010805085 3.2682083e-16)
(459.85251 0.0025622401 2.0746356e-15)
(459.65876 -0.016820589 4.6422582e-16)
(459.85367 -0.0056942212 1.8132984e-15)
(461.5208 0.00082479412 -5.2297397e-17)
(458.78291 0.017557297 -1.105328e-16)
(460.35208 0.060440017 -2.2681271e-18)
(459.23257 -0.048267735 1.1227314e-16)
(459.53803 0.095029741 -1.1219415e-16)
(459.32639 -0.13281123 1.2830698e-16)
(459.69225 0.12288897 1.8672974e-17)
(459.37946 -0.097310945 2.9988938e-16)
(459.88613 0.0015910964 3.5348047e-17)
(459.72486 0.0063719846 3.5916576e-16)
(459.99654 -0.038747477 -1.0680654e-17)
(460.1567 0.0036876214 2.135733e-16)
(459.88779 -0.0076372712 4.8689759e-18)
(460.2667 -0.0083657538 -5.4511883e-16)
(460.0206 0.015526004 -4.4198157e-16)
(460.02034 -0.03441971 -4.2134687e-16)
(460.41287 0.046876496 1.0887789e-16)
(459.92857 -0.074585722 4.9493059e-16)
(460.24399 0.094543116 2.9450953e-17)
(460.34098 -0.10486362 1.3308935e-16)
(459.72752 0.10626016 -2.1994877e-16)
(460.48113 -0.065293196 7.7781892e-17)
(459.78379 0.029771068 9.9974126e-17)
(460.12551 0.016171371 7.3745838e-16)
(460.08621 -0.03007015 -1.4880858e-17)
(459.85159 0.011265787 3.9076308e-16)
(460.0875 0.047424982 -8.9853301e-16)
(459.87296 -0.1076173 -3.7908371e-16)
(460.12469 0.15159476 1.5015719e-15)
(459.73176 -0.12596213 2.3305576e-16)
(460.29002 0.045666559 -5.93387e-17)
(459.61215 0.050305587 1.8017425e-16)
(460.19461 -0.12125511 8.0225041e-17)
(459.87844 0.11104395 3.1411216e-16)
(459.84971 -0.040761716 1.8613159e-16)
(460.16988 -0.036691315 2.5184564e-16)
(459.77103 0.0459923 3.4961976e-16)
(460.03851 0.0189617 -4.4928353e-16)
(460.11459 -0.062948834 1.8847376e-17)
(459.813 0.093859504 2.2430465e-16)
(460.12687 -0.13568345 1.4645178e-16)
(459.91809 0.13627838 -4.9937436e-16)
(459.94922 -0.10057194 1.4507243e-16)
(459.92581 0.084487437 4.0730832e-16)
(460.03482 -0.044147855 2.4765847e-16)
(459.93838 -0.035285538 -2.5072049e-16)
(459.81482 0.07035703 2.3896556e-16)
(460.00493 -0.010228144 -4.7028404e-16)
(459.82134 -0.013560211 3.1942598e-16)
(459.85051 -0.041236721 2.6809083e-16)
(459.80307 0.10073804 9.5783069e-17)
(459.93837 -0.083980574 -4.6819772e-16)
(459.70673 0.060996508 3.0538956e-16)
(459.85039 0.028345781 -5.7199459e-16)
(459.83596 -0.098741218 1.8314737e-16)
(459.57447 0.066383647 7.8870585e-17)
(459.88459 0.013410845 1.6891306e-16)
(459.72403 -0.035178699 1.9648205e-16)
(460.00429 -0.041737406 -3.0583862e-18)
(459.8697 0.051236789 -6.268762e-16)
(459.96568 -0.076993 6.8002947e-17)
(459.87205 0.032565774 1.2405941e-16)
(460.20577 0.023397456 3.0626051e-16)
(459.912 -0.080082532 1.9440495e-16)
(460.02333 0.033634988 -5.2450426e-16)
(460.17006 0.022077762 3.3512557e-16)
(460.12285 -0.034750278 -2.6876737e-16)
(460.16037 0.031996062 2.2641793e-16)
(460.00868 0.035397418 2.0579527e-16)
(460.07687 -0.063640707 1.3529852e-16)
(459.77223 0.083624521 8.2512893e-16)
(459.8361 0.016642308 -3.8833455e-16)
(459.84945 0.012424079 2.2621937e-16)
(459.65769 -0.019479741 7.4607624e-17)
(459.85421 -0.016394403 1.6452457e-16)
(461.68173 0.0094957713 1.9962493e-17)
(458.50429 0.017550023 -1.0016451e-15)
(460.51921 0.095763151 -6.2564332e-18)
(458.96437 -0.06299676 1.2107213e-16)
(459.6223 0.11954754 -3.4082452e-17)
(459.14858 -0.14945699 6.5056389e-16)
(459.71094 0.12326046 1.1733405e-16)
(459.31053 -0.12654833 6.5055048e-17)
(459.85294 0.024684092 -7.6635085e-17)
(459.7608 -0.050021827 7.3942531e-17)
(459.95314 -0.026785373 -2.3306949e-16)
(460.21712 0.010964851 -7.6870493e-16)
(459.88709 -0.040789621 -5.2730809e-16)
(460.32799 0.0094671322 7.0189975e-16)
(460.01493 0.032944408 4.8675392e-16)
(460.08146 -0.10272344 -7.5278346e-16)
(460.36703 0.14240586 6.4436269e-16)
(459.99989 -0.17132658 1.2294288e-16)
(460.20595 0.16331753 7.3413528e-17)
(460.41407 -0.11979084 -1.5023444e-16)
(459.74466 0.090009144 -5.1500534e-18)
(460.50877 -0.038967833 4.2829532e-16)
(459.82403 0.019924301 6.167657e-16)
(460.12904 0.0051235792 -8.7918364e-17)
(460.0959 0.0040458937 -2.1454426e-17)
(459.8632 -0.02761473 -1.3720255e-16)
(460.0654 0.086258881 -4.2486083e-16)
(459.87628 -0.13667765 -5.9318084e-17)
(460.09994 0.17929263 -4.3621595e-16)
(459.73047 -0.14655318 5.2022972e-16)
(460.26952 0.053247652 1.1989032e-16)
(459.62124 0.073537565 -9.7906065e-17)
(460.1706 -0.1571686 -3.5294987e-16)
(459.90132 0.12168034 -5.3897093e-17)
(459.80987 -0.020621164 2.0811068e-16)
(460.18694 -0.082632387 6.3189676e-17)
(459.75208 0.054794134 -1.561289e-16)
(460.03509 0.066572704 -5.9223348e-16)
(460.12994 -0.13781092 1.4121663e-16)
(459.80156 0.18631869 2.3019236e-17)
(460.16601 -0.22618759 5.5302868e-17)
(459.93911 0.16837275 5.4005709e-17)
(459.93925 -0.1047691 -3.2541599e-16)
(459.9367 0.10326319 4.9858819e-17)
(459.99932 -0.060486614 2.9095164e-17)
(459.91365 -0.01125129 1.0013407e-16)
(459.7929 0.057391036 5.3520426e-16)
(459.97525 -0.0189562 2.5049298e-16)
(459.78656 0.028267221 -4.3526846e-16)
(459.86655 -0.094971588 8.4016472e-18)
(459.7942 0.10715944 5.4612253e-16)
(459.93261 -0.079424619 7.7694972e-16)
(459.72567 0.087307134 -9.1675793e-18)
(459.82444 0.0011577573 -3.0940387e-17)
(459.81188 -0.083763072 6.8326328e-17)
(459.58417 0.061217783 3.7659155e-16)
(459.85253 0.0040150909 -6.7936363e-16)
(459.71227 -0.027864581 1.1149859e-16)
(460.00967 -0.05845132 9.2647455e-17)
(459.88948 0.036281832 -2.4011658e-16)
(459.96786 -0.071588098 -3.5471241e-16)
(459.91249 0.032568626 -3.7413999e-16)
(460.19294 0.055225785 6.0277283e-17)
(459.92685 -0.10583035 1.0576599e-16)
(460.05453 0.034991946 -3.2184795e-16)
(460.16991 0.021491141 -6.92425e-16)
(460.13076 -0.094666221 8.257558e-17)
(460.17263 0.060485802 6.4817178e-17)
(459.99992 0.10178065 4.5181687e-17)
(460.08233 -0.090274312 1.6753327e-17)
(459.77482 0.1032665 5.0583307e-17)
(459.81741 0.04317486 4.1265891e-17)
(459.83402 -0.017105542 -4.1357449e-17)
(459.65076 -0.015145045 2.9315461e-16)
(459.85967 -0.014603432 3.7129337e-16)
(461.94182 0.011438401 -5.0323161e-17)
(458.04072 0.048413286 -3.5441166e-17)
(460.8857 0.13610664 -6.6057566e-16)
(458.49132 -0.087356525 -5.6219641e-16)
(459.91472 0.13849724 1.086378e-18)
(458.82989 -0.16624446 -5.326222e-16)
(459.83741 0.14006933 8.1362879e-17)
(459.18382 -0.20057863 6.0832448e-17)
(459.87396 0.074043554 -1.4552363e-16)
(459.759 -0.084439635 -3.8590389e-16)
(459.9442 -0.058398747 -4.8873391e-16)
(460.29125 0.034625902 6.025825e-16)
(459.86123 -0.054860683 5.1207144e-16)
(460.44634 -0.013405709 4.7405876e-16)
(459.9606 0.093804855 5.6694827e-16)
(460.14258 -0.16877979 7.8982072e-17)
(460.28778 0.17772673 -1.1646453e-16)
(460.01738 -0.17354027 1.060202e-17)
(460.15246 0.13402713 -5.4631188e-16)
(460.47715 -0.099323352 -6.5959983e-17)
(459.75736 0.11864422 5.8522531e-17)
(460.57021 -0.097024884 4.7323136e-16)
(459.86984 0.086208728 -1.9197492e-16)
(460.13372 -0.024510224 5.3764856e-17)
(460.141 0.0056232845 2.1693993e-16)
(459.82522 0.0017647834 1.3580196e-18)
(460.04966 0.077521619 -3.1003174e-16)
(459.86264 -0.1649829 -2.5253753e-17)
(460.02165 0.23991165 3.1837682e-16)
(459.7276 -0.19810211 -2.2580512e-16)
(460.22594 0.063981103 4.2444242e-16)
(459.59191 0.085151263 -4.0990458e-17)
(460.13514 -0.16856569 2.106988e-17)
(459.90403 0.11955965 3.5563479e-16)
(459.72184 -0.0061341468 -9.8525857e-17)
(460.19247 -0.076945888 2.9743941e-17)
(459.72244 0.030861042 -5.0287864e-17)
(459.9987 0.072120631 -3.1136722e-16)
(460.16479 -0.12787899 3.0307398e-16)
(459.77799 0.18436328 2.3633678e-17)
(460.19571 -0.23344138 1.2046852e-18)
(459.99575 0.17969098 -4.2436156e-17)
(459.94852 -0.13931432 -8.5863488e-17)
(459.94579 0.15451722 -2.9788109e-17)
(459.99195 -0.080195233 -2.0204841e-17)
(459.89605 -0.0048045719 3.421627e-17)
(459.75358 0.087547994 7.1222465e-17)
(459.95147 -0.03727485 5.6629913e-17)
(459.74376 0.028722731 -3.970819e-17)
(459.85524 -0.093256766 3.8519104e-16)
(459.7909 0.09136744 1.8396907e-17)
(459.92556 -0.098568531 1.7373321e-17)
(459.72051 0.17047792 2.411412e-16)
(459.79076 -0.092535192 1.4734815e-17)
(459.795 -0.057404459 2.3292496e-17)
(459.57404 0.086137804 8.0463401e-17)
(459.82758 -0.023422907 -2.7244997e-16)
(459.73245 -0.052474448 5.2858679e-17)
(460.02809 -0.022336272 2.3761291e-16)
(459.94409 -0.02040606 -5.0422204e-17)
(460.00258 -0.06498135 2.0928628e-17)
(459.979 0.051942937 -8.4288992e-17)
(460.19982 0.056366204 -2.7857309e-16)
(459.94232 -0.12247648 -2.5780205e-16)
(460.08567 0.06078582 2.9487542e-16)
(460.1489 0.031461077 -4.4900154e-17)
(460.13386 -0.13445779 1.5188536e-16)
(460.18463 0.03253776 4.2975003e-17)
(459.95681 0.13983465 -1.9792265e-16)
(460.04873 -0.068824489 -2.406117e-16)
(459.74438 0.11038419 2.6491525e-16)
(459.75374 0.084502603 3.125521e-17)
(459.79245 -0.027346697 4.7751344e-18)
(459.63459 -0.024708674 -3.5925178e-17)
(459.86954 -0.019964422 -2.6937603e-16)
(462.26477 0.034030372 -8.7056207e-17)
(457.41065 0.075700719 -3.8110291e-18)
(461.61463 0.13051039 2.9213174e-16)
(457.70088 -0.051985386 -7.659546e-17)
(460.73785 0.12345926 -1.9152509e-17)
(458.19265 -0.17457001 -1.5002537e-17)
(460.33955 0.14776986 -5.5064355e-17)
(458.86444 -0.21184725 -4.7994834e-16)
(460.03886 0.022897339 -2.3881494e-17)
(459.68665 -0.05173287 6.7321566e-17)
(459.91447 -0.092190598 -4.7247505e-16)
(460.39359 -0.00037404835 -5.7540426e-17)
(459.7385 -0.010789321 3.437624e-18)
(460.60081 -0.065175082 3.7686361e-17)
(459.83434 0.13811314 8.1676415e-18)
(460.17407 -0.17757136 3.3600404e-17)
(460.14685 0.18122421 4.2751255e-16)
(459.99826 -0.19013873 -6.8963668e-17)
(460.00095 0.15423003 3.0986403e-17)
(460.54684 -0.15939929 2.92328e-16)
(459.70669 0.19425106 2.8229458e-16)
(460.641 -0.15184447 -3.877314e-17)
(459.92729 0.11016649 -2.1420402e-17)
(460.10885 -0.0042797438 -1.5360717e-17)
(460.20503 -0.021377305 4.9416325e-17)
(459.76498 0.037984302 2.995506e-16)
(459.98602 0.054767488 3.9901652e-17)
(459.83945 -0.12472799 -2.9656862e-17)
(459.88324 0.19595969 1.8249106e-17)
(459.66087 -0.17037565 -3.3760669e-16)
(460.13348 0.067416222 2.2170792e-16)
(459.50417 0.056888074 3.2127661e-16)
(460.02787 -0.14163247 2.7918641e-16)
(459.86319 0.12424539 -3.6195311e-16)
(459.58666 -0.055900033 -3.0650636e-16)
(460.15791 -0.038326993 -3.3701625e-16)
(459.66901 0.059831574 -2.0138947e-16)
(459.93485 -0.0066449219 6.210991e-17)
(460.19161 -0.086011027 5.4121495e-17)
(459.73445 0.18023579 -7.7816124e-17)
(460.21207 -0.26590704 -2.3957109e-17)
(460.0439 0.20696132 2.2319559e-16)
(459.977 -0.13194018 3.0840806e-17)
(459.97925 0.12697874 2.1154999e-16)
(459.99679 -0.057489344 -2.8859026e-16)
(459.92486 0.043505125 -3.754039e-18)
(459.72868 0.045496418 3.0810369e-16)
(459.91574 -0.0065798563 2.7045948e-16)
(459.71162 0.0075557824 2.0439838e-16)
(459.8325 -0.079939745 -1.6226855e-16)
(459.76206 0.075725765 3.0268253e-16)
(459.92834 -0.11702525 2.6685604e-16)
(459.70865 0.21356674 -3.0594511e-17)
(459.73749 -0.1217442 1.4095205e-16)
(459.79872 -0.080458321 7.0049975e-17)
(459.56966 0.10645923 -1.7713495e-16)
(459.78769 -0.02065392 -2.0010016e-16)
(459.76372 -0.10747716 2.3062383e-16)
(460.0477 -0.0089837549 4.4776549e-17)
(459.9883 -0.048029511 2.303348e-16)
(460.04279 -0.084675246 3.65307e-17)
(460.03663 0.095929455 5.4066007e-17)
(460.20216 0.067678473 1.481767e-16)
(459.94043 -0.1536988 -3.8595132e-17)
(460.11241 0.036438612 2.4829926e-16)
(460.10067 0.083159057 -2.2211705e-16)
(460.09854 -0.10772975 -4.767157e-17)
(460.15815 0.023330438 3.4827397e-17)
(459.87984 0.12470965 -1.1771424e-16)
(459.97046 -0.050517639 2.3265571e-17)
(459.66852 0.090319576 2.4214458e-17)
(459.64794 0.11557711 1.7204657e-16)
(459.70615 -0.0073631697 -2.1912409e-16)
(459.58108 -0.024718925 -3.3111942e-18)
(459.86599 -0.030229224 6.0113095e-18)
(462.36013 0.072221262 2.9007183e-18)
(456.97684 0.065595855 -2.9645602e-16)
(462.66367 0.12814169 9.1153104e-17)
(456.73462 -0.016291163 -1.1196139e-16)
(462.3935 0.088608818 -7.1698704e-17)
(457.09875 -0.11924523 4.3074093e-16)
(461.62871 0.081371992 -2.7700811e-16)
(458.14394 -0.15529249 -2.3535761e-16)
(460.50777 -0.028313974 -1.1646135e-17)
(459.43227 -0.067662504 4.574924e-16)
(459.80209 -0.067718753 -3.2547872e-16)
(460.41508 -0.054464379 3.5464418e-16)
(459.44724 0.021620651 -5.66951e-17)
(460.69182 -0.10427931 -2.5623319e-16)
(459.60618 0.19211307 1.6890546e-17)
(460.21327 -0.21957552 2.9697371e-17)
(459.8984 0.23906517 -4.4079476e-17)
(460.04433 -0.2363682 1.8767778e-17)
(459.68385 0.15919756 8.1143306e-18)
(460.60249 -0.16744287 7.6432939e-18)
(459.53326 0.15573776 3.7156528e-16)
(460.62375 -0.1175205 -2.8877777e-17)
(459.92949 0.10588955 -7.6231005e-18)
(460.0552 -0.012615319 8.1852124e-17)
(460.18103 0.0022819422 -2.4504651e-17)
(459.75172 0.072135586 2.9701468e-17)
(459.85 -0.01921078 3.50891e-16)
(459.81005 -0.005097126 3.0816063e-17)
(459.70657 0.11042972 -2.4700228e-16)
(459.55883 -0.15561607 1.7092674e-17)
(459.94274 0.10494069 1.6333726e-17)
(459.4044 0.00083096292 -2.4875123e-16)
(459.8143 -0.10065954 2.8655329e-17)
(459.82735 0.10214856 4.4588935e-17)
(459.41833 -0.076279224 2.9407776e-16)
(460.12081 -0.050278858 1.0271488e-18)
(459.64488 0.086397941 3.904802e-17)
(459.82019 0.0020296439 9.004053e-17)
(460.20669 -0.11978564 2.2593858e-16)
(459.67649 0.16509502 -2.4360289e-16)
(460.14365 -0.20878047 -1.8367607e-16)
(460.04934 0.1021327 7.302228e-17)
(459.96977 -0.047638225 1.9499621e-17)
(459.98497 0.11424884 2.3798653e-16)
(459.99249 -0.1360479 -8.0992159e-18)
(459.99498 0.16706188 2.3598713e-16)
(459.70205 0.0079115101 7.4253759e-17)
(459.8908 -0.009192437 8.5932725e-17)
(459.6856 0.005669431 6.4922874e-17)
(459.79553 -0.056973251 7.5698827e-17)
(459.6891 0.013080003 2.549441e-16)
(459.90163 -0.059414709 6.4704342e-18)
(459.68252 0.20521728 -1.2971274e-16)
(459.66298 -0.12599953 9.0801547e-17)
(459.78011 -0.086445816 2.2837498e-16)
(459.58471 0.095284984 -1.6771097e-16)
(459.72934 -0.04015175 6.2270559e-17)
(459.75515 -0.10928114 2.3351922e-16)
(460.02707 -0.034197397 2.0710095e-17)
(460.00162 -0.093801512 -1.1310769e-16)
(460.03503 -0.1014287 -1.017508e-16)
(460.04313 0.11582647 2.5914396e-17)
(460.17122 0.080464682 2.4224209e-16)
(459.87707 -0.10444923 2.4632811e-17)
(460.10451 -0.029266767 -3.5070763e-16)
(460.03197 0.085439912 2.529436e-16)
(460.03157 -0.063814192 -8.6649661e-17)
(460.09201 0.046486406 5.0592677e-17)
(459.77442 0.14242188 1.8355608e-16)
(459.8821 0.0046347767 7.4268543e-17)
(459.60106 0.053108971 8.3504938e-17)
(459.54088 0.10982655 1.0313599e-16)
(459.60741 -0.03525366 9.0422613e-17)
(459.49027 -0.053692485 -1.0314667e-16)
(459.80154 -0.038871222 3.7067483e-17)
(461.87319 0.11589063 -1.8745363e-17)
(457.3351 -0.0011438121 -2.5459647e-16)
(463.34559 0.16194294 2.3106753e-17)
(456.3038 -0.044661376 2.3490781e-16)
(464.13869 0.081495513 3.4348586e-17)
(456.02077 -0.03804008 -1.2908991e-17)
(463.36121 0.0089829773 1.9129733e-17)
(457.09364 -0.067462443 -1.2320702e-17)
(461.36023 -0.066484755 -1.4317476e-16)
(458.83623 -0.039933154 1.9785142e-16)
(459.83537 -0.094583346 1.4779128e-17)
(460.15859 -0.044344564 5.7940356e-17)
(459.23213 0.024292223 3.6722782e-16)
(460.57591 -0.15829254 -3.9807078e-16)
(459.45964 0.27017576 4.4173106e-17)
(460.25856 -0.28129138 1.5426866e-17)
(459.63926 0.26347953 5.7693256e-17)
(460.2321 -0.1877466 1.8942437e-17)
(459.26259 0.065747949 -2.2231896e-16)
(460.65251 -0.087646342 4.8884979e-18)
(459.24248 0.097114052 5.4438139e-17)
(460.49508 -0.15215459 8.537207e-18)
(459.77538 0.18088274 5.9354111e-17)
(460.03772 -0.063762617 2.9129624e-17)
(459.95718 0.013364567 -2.9436911e-16)
(459.90449 0.13898093 3.6352248e-16)
(459.63797 -0.084854065 3.8624477e-17)
(459.88178 0.054929429 -2.3435578e-16)
(459.60816 0.11091874 -1.817876e-16)
(459.54353 -0.17215833 -1.6044163e-16)
(459.77655 0.1409394 2.9969099e-16)
(459.52415 -0.04776879 1.6333628e-17)
(459.53853 -0.060026017 3.3462865e-17)
(460.00503 0.061013111 3.6923092e-17)
(459.32671 -0.08973023 7.8112388e-17)
(460.10376 -0.013443286 -1.0713697e-16)
(459.76331 0.024133307 2.5151411e-16)
(459.72892 0.005619682 1.5268382e-16)
(460.14081 -0.049945019 -1.4209395e-17)
(459.72127 0.034396191 1.4697737e-16)
(459.97214 -0.10096638 2.5103371e-17)
(459.99704 0.068566867 -1.3824651e-16)
(459.94683 -0.084427066 2.5801331e-16)
(459.96594 0.15326777 2.4326344e-16)
(459.89021 -0.15249273 4.4224569e-17)
(460.13973 0.16341883 1.6177698e-16)
(459.64675 0.039443566 2.1267967e-17)
(459.84643 -0.003996068 2.4717922e-16)
(459.66382 0.0069471969 2.4970806e-16)
(459.75704 0.00051657454 -1.8147544e-16)
(459.58372 -0.098361828 1.8250574e-17)
(459.85636 0.029140504 -2.5325206e-17)
(459.65892 0.19720388 5.8027141e-17)
(459.60964 -0.15075791 2.6469366e-16)
(459.74548 -0.067769854 -1.2480475e-16)
(459.64466 0.082684356 -1.9776978e-16)
(459.66926 -0.077662201 9.0061737e-18)
(459.73262 -0.10226241 4.5309301e-17)
(459.89585 -0.031100661 2.6755166e-17)
(459.96788 -0.13273967 -1.4429816e-16)
(459.90652 -0.10151585 1.2807276e-17)
(459.92508 0.09141724 5.164985e-18)
(460.0389 0.076699517 -1.0708128e-16)
(459.6765 -0.047447384 4.5305811e-17)
(459.94051 -0.018645642 3.601131e-17)
(459.90294 0.039503097 1.6659344e-16)
(459.88261 -0.027817568 -1.148491e-16)
(459.98121 0.024197453 1.4001751e-16)
(459.65309 0.12918531 -1.5180304e-16)
(459.76949 0.099550542 -9.4083867e-17)
(459.52901 0.07752148 4.8927416e-17)
(459.39118 0.12067468 4.7167214e-17)
(459.42708 -0.029026501 -6.0219238e-17)
(459.27523 -0.10679578 4.3435098e-17)
(459.52184 -0.078612572 1.447981e-16)
(460.93634 0.1370369 1.1437255e-17)
(458.4932 -0.091289511 -1.9333964e-16)
(462.75722 0.20348606 2.5103583e-16)
(457.14288 -0.096668957 1.5754233e-17)
(464.12838 0.098446917 -1.4383942e-16)
(456.23581 0.019322029 7.5128543e-17)
(463.87368 -0.024795706 9.5836948e-17)
(456.70175 0.049865569 6.5444825e-17)
(462.07131 -0.16267736 1.9954552e-16)
(458.18249 0.10328912 7.7645779e-17)
(460.39707 -0.19908486 2.5657674e-16)
(459.4882 -0.0017211547 5.725271e-17)
(459.67445 0.028442355 2.379307e-17)
(460.01078 -0.20966636 -1.9865608e-16)
(459.76857 0.2908336 8.1202149e-17)
(460.07728 -0.26422897 -2.5858246e-18)
(459.61511 0.20157302 1.0896177e-16)
(460.34379 -0.092119493 4.3231123e-17)
(459.06236 0.006438388 -1.909929e-16)
(460.59702 -0.069780096 2.7536973e-18)
(459.06929 0.12148985 5.6222677e-17)
(460.37482 -0.2019256 3.0089862e-16)
(459.46574 0.17385194 5.5204125e-17)
(460.26585 -0.02128858 -2.2169248e-16)
(459.50459 -0.026060877 -2.1761546e-16)
(460.32553 0.14744543 7.1603332e-17)
(459.47033 -0.049165884 -4.3061752e-19)
(460.08113 0.041761058 2.3868336e-16)
(459.76111 0.10562611 2.3898513e-16)
(459.78492 -0.1232932 -2.0979028e-16)
(459.70338 0.096847399 4.27739e-17)
(460.09495 -0.015269932 1.2879274e-18)
(459.2991 -0.08970013 6.359243e-18)
(460.43882 0.044716271 -1.494068e-16)
(459.37744 -0.097503253 4.2285223e-17)
(460.15919 0.0051185364 -1.4365211e-16)
(459.91556 0.035374536 2.4272479e-17)
(459.76644 -0.035338461 -1.6349971e-16)
(460.02533 -0.026006544 6.6566227e-17)
(459.87214 0.046931991 3.888555e-16)
(459.7744 -0.14004397 1.5244544e-17)
(460.02966 0.098253733 1.0950663e-17)
(459.79499 -0.043862494 3.6010398e-17)
(460.05672 0.03262091 1.9959299e-16)
(459.61857 -0.052285157 -1.4162071e-16)
(460.27309 0.17071131 3.8086453e-17)
(459.53421 -0.013572744 -1.1879947e-16)
(459.81731 0.050467235 4.2067916e-17)
(459.59461 -0.029072045 -1.5586584e-17)
(459.76248 0.095243964 9.9652255e-18)
(459.49982 -0.18959509 -1.1222756e-17)
(459.84844 0.07747039 -1.0577998e-16)
(459.62167 0.1535166 -7.3646309e-19)
(459.56362 -0.096023712 5.0556038e-17)
(459.59887 -0.079327522 3.8907437e-17)
(459.63238 0.060237958 1.6862342e-17)
(459.4046 -0.097858587 -1.3437122e-16)
(459.54781 -0.041732211 -1.0022193e-16)
(459.45622 -0.11358581 1.1482044e-16)
(459.68318 -0.13832669 6.0458095e-18)
(459.41283 -0.048328418 1.3975285e-16)
(459.47575 0.059742163 -9.6741967e-17)
(459.55741 0.10275031 3.2786549e-17)
(459.11151 -0.071668225 -2.9144448e-17)
(459.3576 0.015986685 -9.7744037e-17)
(459.45973 0.048826808 -7.8250885e-17)
(459.32012 0.00073359376 -4.3266041e-17)
(459.52459 0.02251145 -1.6667182e-16)
(459.13891 0.084813486 -1.0184723e-16)
(459.30486 0.099082038 -7.0517654e-17)
(459.03513 0.11248845 4.0822248e-18)
(458.76558 0.15049879 9.9538882e-17)
(458.68935 0.011684867 7.9705195e-18)
(458.43347 -0.068335301 4.2110342e-17)
(458.52179 -0.085338832 1.5184654e-16)
(460.04708 0.12976199 2.4756084e-17)
(459.70242 -0.13682932 1.3997119e-16)
(461.12995 0.2087661 -5.0575732e-17)
(458.86341 -0.12372451 1.3091176e-16)
(462.06055 0.11100709 1.2204531e-16)
(458.11442 0.046064646 -8.6188552e-17)
(462.32067 -0.053651038 9.3199055e-17)
(457.87686 0.15882282 8.5887579e-18)
(461.74144 -0.24671959 6.0536809e-17)
(458.24179 0.20209435 2.4486437e-16)
(460.99963 -0.23177694 -8.7283037e-17)
(458.7581 -0.0022539399 8.4182869e-18)
(460.59014 0.029063572 1.5944739e-16)
(459.06496 -0.2010987 1.1150491e-16)
(460.51054 0.24683009 4.4936901e-17)
(459.46358 -0.21709697 -6.0264874e-18)
(460.02673 0.16983126 5.2941221e-17)
(460.03308 -0.093609024 -8.1015153e-17)
(459.40951 0.055492779 2.3346892e-16)
(460.29122 -0.096223808 -3.0696962e-17)
(459.2956 0.10864942 6.6739478e-18)
(460.33046 -0.14395658 -5.1683428e-18)
(459.27988 0.081649225 4.2144997e-17)
(460.64473 0.010312612 -1.605147e-17)
(459.22525 -0.015232771 2.1930673e-16)
(460.67993 0.087324176 -1.2776158e-17)
(459.60402 0.00050151242 -1.9706291e-16)
(460.22198 0.025935171 2.4589147e-16)
(460.05747 0.074133589 2.1637017e-17)
(460.1476 -0.043137768 -1.9076807e-16)
(459.62837 0.0072137656 2.5198561e-17)
(460.77285 0.058805276 -5.0753277e-17)
(459.00741 -0.078673187 1.9650844e-16)
(460.90013 -0.067128715 2.0635007e-17)
(459.29935 0.013700545 -1.3399997e-16)
(460.23688 -0.041579951 -1.8039377e-16)
(459.93278 0.027565657 -7.8082125e-18)
(459.74586 0.051911245 1.4686865e-16)
(459.86445 -0.091966991 4.4374134e-17)
(459.99906 0.039693496 2.7209967e-17)
(459.35663 -0.051028978 2.9891619e-17)
(460.16951 -0.041247529 8.3690467e-18)
(459.27005 0.075185045 4.641173e-17)
(460.13417 -0.024851401 -1.5441167e-17)
(459.04533 -0.071699002 3.8417743e-17)
(460.20912 0.24728963 -2.679926e-18)
(459.12707 -0.065643798 4.9462323e-18)
(459.64952 0.094219608 9.8248694e-18)
(459.15711 -0.051191624 -9.8358495e-17)
(459.57565 0.086525675 -1.0219387e-17)
(459.05245 -0.17780262 -3.3788634e-18)
(459.4736 0.13316157 1.5322362e-16)
(459.08319 0.043308253 -1.2851967e-16)
(459.06922 0.0065615024 -1.3921153e-17)
(458.71244 -0.076012152 1.1831269e-17)
(458.96933 0.050061549 4.1117179e-18)
(458.33095 -0.15777729 -1.5788917e-16)
(458.59525 0.073669197 -1.8265998e-16)
(458.10182 -0.16109002 -1.2600785e-16)
(458.55346 -0.19976841 2.3270119e-17)
(458.07701 -0.030743921 -6.3871857e-18)
(458.07171 0.012875197 -1.1325038e-17)
(458.09384 0.19107363 -1.4691175e-16)
(457.51784 -0.099904809 -1.3459644e-16)
(457.61453 -0.052808919 -1.7033367e-18)
(457.84874 0.08641943 1.0394614e-18)
(457.38639 0.024784987 3.6820816e-18)
(457.79537 0.026976538 -1.4338471e-16)
(457.08531 0.11333777 -1.7656569e-16)
(457.36354 0.10151143 4.9446007e-18)
(456.96871 0.11837137 -3.2433576e-17)
(456.51261 0.17314485 -1.7050298e-16)
(456.20268 0.03469534 -1.2170409e-17)
(455.77257 -0.039596502 6.6476445e-18)
(455.62428 -0.076678633 4.2703864e-18)
(459.47256 0.11077093 -4.8830633e-17)
(460.4268 -0.12030422 -1.5166915e-16)
(459.82165 0.16142822 -1.8027186e-16)
(460.15386 -0.10180052 -2.3729462e-16)
(460.18622 0.078279094 5.0816099e-17)
(459.86603 0.08546527 -7.7525498e-17)
(460.50685 -0.094973173 -8.9211851e-17)
(459.46275 0.1993799 1.2198128e-16)
(460.64509 -0.24045581 7.4167061e-17)
(459.01426 0.19497408 -1.9201447e-16)
(460.79045 -0.19188729 -5.8983757e-18)
(458.69626 -0.0026559345 -3.5557539e-17)
(460.89864 0.01077437 1.2323235e-16)
(458.6736 -0.17626617 1.2490518e-16)
(460.90082 0.22728136 8.1822605e-18)
(459.16064 -0.21210153 8.9518031e-19)
(460.37828 0.17673048 3.8233401e-17)
(459.84461 -0.10885813 -6.8981772e-18)
(459.82833 0.060175406 2.0558273e-17)
(460.07613 -0.046944463 2.6956064e-18)
(459.75786 0.025899088 6.535059e-17)
(460.12015 -0.054901484 -3.4743717e-18)
(459.74078 -0.0082528182 4.3454332e-17)
(460.33859 0.062606771 2.060175e-17)
(459.87937 -0.07243376 -1.7235957e-16)
(460.14457 0.097240596 3.8773532e-17)
(460.34697 0.017913048 5.2381266e-17)
(459.75254 -0.003883921 2.0203854e-16)
(460.46607 0.060571749 4.4799638e-17)
(459.97624 0.0011718056 3.7255502e-17)
(459.60147 -0.022350627 4.6112102e-17)
(460.77718 0.061762857 3.6548601e-17)
(458.71315 -0.0048345872 -1.9940236e-16)
(460.8467 -0.16075728 1.916309e-16)
(459.00327 0.069323376 5.1896836e-17)
(459.98847 -0.027440212 3.6005323e-17)
(459.67493 -0.0076369033 5.9185425e-17)
(459.34509 0.067710338 -1.1979442e-17)
(459.40211 -0.043622908 1.7947312e-16)
(459.73314 -0.018894815 1.3019113e-18)
(458.32771 -0.0076159021 3.8594013e-17)
(460.09518 -0.0097216301 1.6178496e-16)
(457.83579 -0.0081575197 1.440548e-17)
(459.89935 0.03988752 1.7106326e-17)
(457.57145 -0.060179949 -7.0563796e-19)
(459.49685 0.19485136 1.0303591e-17)
(457.79691 -0.030175725 1.5948796e-16)
(458.54129 0.073835354 1.1717769e-16)
(457.5517 -0.0019081704 -1.2507452e-18)
(458.18649 0.041747625 -3.0896053e-16)
(457.14295 -0.18580422 -1.7948984e-16)
(457.74936 0.19995414 -5.3208005e-17)
(456.78063 -0.004770468 1.5809319e-16)
(457.12825 0.12445626 -7.1871845e-18)
(455.90673 -0.081895515 1.7645203e-17)
(456.56266 0.086501009 8.3719731e-17)
(455.25524 -0.16242609 -1.7727081e-16)
(455.69536 0.088625553 -1.7285503e-16)
(454.71934 -0.15693587 1.1940089e-16)
(455.09677 -0.18008673 3.7736416e-17)
(454.77519 -0.058048028 -1.9270815e-16)
(454.25355 -0.07445687 -2.0498679e-16)
(454.25685 0.20132205 -1.5615186e-16)
(453.43373 -0.040366714 1.1367659e-16)
(453.12716 -0.14799003 -1.5073546e-17)
(453.54942 0.029964296 -5.0391065e-17)
(452.53229 0.03070786 -8.9473071e-17)
(453.24716 -0.0032168859 -1.0981903e-16)
(452.05847 0.097517435 -4.8726873e-17)
(452.27499 0.12711024 8.6121331e-17)
(451.7772 0.16601605 -2.1059786e-16)
(451.04296 0.16670906 5.4028589e-17)
(450.31046 0.17805753 -3.7224311e-17)
(449.7503 0.0091826555 -3.6203445e-17)
(449.20688 -0.1193397 -5.5635292e-17)
(459.44407 0.10428935 -3.4259404e-17)
(460.50145 -0.11046152 2.6007575e-16)
(459.50416 0.13361535 5.0904038e-16)
(460.46593 -0.087375883 2.391039e-16)
(459.63156 0.038226453 -5.073865e-17)
(460.3332 0.12983618 1.9199793e-16)
(459.90818 -0.11814024 9.3729454e-17)
(459.93681 0.1872439 1.7813444e-16)
(460.14473 -0.19155358 7.7113789e-17)
(459.38832 0.16429814 1.3450741e-16)