/*--------------------------------*- C++ -*----------------------------------*\
| =========                 |                                                 |
| \\      /  F ield         | OpenFOAM: The Open Source CFD Toolbox           |
|  \\    /   O peration     | Version:  2.3.0                                 |
|   \\  /    A nd           | Web:      www.OpenFOAM.org                      |
|    \\/     M anipulation  |                                                 |
\*---------------------------------------------------------------------------*/
FoamFile
{
    version     2.0;
    format      ascii;
    class       volScalarField;
    location    "0.004";
    object      p;
}
// * * * * * * * * * * * * * * * * * * * * * * * * * * * * * * * * * * * * * //

dimensions      [1 -1 -2 0 0 0 0];

internalField   nonuniform List<scalar> 
725
(
1398.42
1216
1150.87
1155.31
905.589
1369.71
1218.3
1151.34
1114.51
817.603
1355.08
1220.15
1156.27
1125.91
948.564
1352.96
1218.01
1165.48
1187.46
1169.81
1362.5
1214.12
1171.57
1223.38
1451.36
1737.12
1130.4
385.135
307.526
243.66
294.73
308.935
268.369
261.436
401.868
499.435
309.606
213.323
183.454
172.982
159.903
157.936
163.386
163.373
158.157
150.59
144.314
120.788
101.812
66.5092
41.8897
26.7082
62.5493
88.5923
101.836
95.588
77.4608
69.7004
67.9387
69.8377
89.5282
126.469
99.9813
56.7087
33.7745
23.9164
17.3787
12.073
7.32127
2.63249
1124.91
561.096
232.62
274.15
227.41
292.719
315.348
277.391
220.47
381.44
495.42
260.671
199.794
181.589
173.565
160.153
156.89
163.091
163.627
158.246
150.061
148.575
122.392
99.5313
66.7819
39.7789
21.5687
61.3298
88.9412
101.953
97.0749
78.2515
69.2665
66.2997
70.9529
78.6019
93.8596
83.9445
54.0943
33.3882
23.7749
17.278
11.9233
7.18624
2.53757
1767.94
820.134
145.843
209.306
188.852
301.041
329.166
292.157
214.688
375.669
457.051
280.046
187.709
179.213
175.065
159.469
155.657
164.245
165.759
160.998
150.874
143.27
127.18
119.673
70.0619
34.9633
8.49396
62.684
92.0834
103.144
97.0379
72.8357
68.1417
66.1153
62.0393
108.386
132.294
105.379
54.8943
31.8729
23.7822
17.1758
11.7608
7.08047
2.47163
2351.99
1862.43
369.458
233.692
164.642
339.91
355.208
309.763
239.911
360.505
377.531
306.824
176.238
178.437
176.746
157.253
153.526
166.476
166.327
160.178
149.925
146.077
135.032
129.58
83.5493
26.1934
-15.2899
69.0583
98.6488
106.961
99.4252
65.9199
67.3537
66.0199
65.0485
82.1738
139.235
109.292
52.6724
28.3047
23.8651
16.8842
11.6529
7.0309
2.44266
2394.26
1743.55
872.484
356.642
147.227
419.257
383.3
298.131
78.2923
571.946
267.392
422.076
121.698
174.139
179.248
153.654
150.764
171.061
169.136
161.645
150.107
149.492
179.8
149.973
84.7309
90.8408
5.56984
81.0639
109.729
118.056
105.212
53.6743
67.9968
65.1437
61.4627
104.532
140.476
109.183
106.928
24.9132
23.4635
16.4601
11.471
7.00342
2.47314
3491.74
1472.21
-142.216
245.386
66.9414
491.476
417.02
342.023
-93.757
582.11
-41.76
881.795
85.8066
186.887
188.858
211.915
230.3
178.315
171.22
163.395
148.251
140.801
180.286
135.366
83.1026
53.4262
127.476
105.309
139.278
132.183
114.717
38.6898
76.3212
64.3948
91.4418
121.589
203.202
104.11
94.2212
33.9681
24.314
16.2565
11.4298
6.95699
2.54362
3447.41
2302.65
-405.448
217.567
17.7803
522.619
435.254
344.695
427.504
525.876
-214.117
833.605
199.225
191.618
197.234
191.28
235.696
184.421
171.799
163.971
174.743
215.375
185.854
371.838
440.775
235.318
117.584
113.943
141.719
134.709
123.768
473.487
137.55
65.6656
80.3719
181.664
485.636
102.785
88.1356
28.3836
22.9097
16.192
11.401
6.94343
2.56302
3468.18
2475.16
2983.43
190.153
989.373
618.402
428.218
416.589
969.723
543.423
2442.27
1093.51
177.562
195.705
194.607
189.346
185.942
186.195
172.523
164.399
173.85
155.775
197.77
365.673
139.767
136.606
108.004
122.235
144.229
136.718
127.478
138.26
64.5445
65.4083
85.4135
121.023
49.1656
102.578
84.8787
37.517
22.1049
16.2001
11.3487
6.95046
2.58057
3440.12
2273.61
1436.36
243.772
830.795
647.175
429.188
340.839
858.099
723.635
1225.21
1489.77
243.932
208.697
194.661
189.318
186.303
165.983
172.962
164.27
172.484
157.992
150.575
226.315
199.716
400.188
369.322
132.229
146.685
138.448
127.429
133.077
67.4972
82.5685
77.3152
469.035
55.4489
102.715
81.7202
35.9729
22.3607
24.7827
19.7053
12.4524
5.52634
3445.52
1706.71
1108.56
283.22
623.307
316.573
406.913
357.368
755.495
401.694
950.772
-68.8511
244.096
192.073
197.283
189.28
188.101
168.118
173.213
165.392
173.911
165.101
163.839
227.913
202.752
271.928
302.754
138.924
149.02
144.219
122.83
129.169
70.1693
70.1995
73.4507
252.174
56.1737
101.638
74.1817
30.0238
22.8779
17.9747
12.7584
6.79144
1.117
938.45
785.844
739.706
642.525
1086.39
929.235
791.707
739.868
668.313
587.493
931.56
795.725
742.887
702.516
659.019
946.281
794.717
744.927
724.582
735.857
975.053
792.441
744.878
734.257
756.097
2900.43
877.785
1098.59
350.35
565.612
354.516
385.33
399.267
622.394
675.328
763.609
309.269
42.247
171.992
175.154
185.773
187.849
170.692
172.419
167.084
172.864
164.326
185.446
228.348
213.875
252.747
255.732
156.504
152.43
141.052
124.072
121.506
76.329
70.4805
60.0049
6.49825
38.2733
61.6136
63.6773
32.1696
22.9626
17.9844
12.5468
6.81073
1.32678
1988.87
-180.938
1079.07
351.334
482.42
401.98
411.87
433.259
507.315
331.289
502.611
-53.6328
165.224
182.196
176.977
183.799
183.976
171.921
168.841
166.771
170.266
167.086
171.153
195.012
222.155
231.242
231.862
164.332
142.089
132.02
122.933
115.007
82.2554
71.067
54.6016
25.2133
37.862
49.5782
51.5304
34.7558
23.6346
18.1098
12.4026
6.82952
1.38521
1414.03
-12.9487
595.532
408.957
459.569
433.831
436.655
448.877
460.09
344.375
340.176
51.6188
148.917
178.308
175.367
183.132
182.822
173.142
169.608
168.96
169.786
174.166
167.655
182.204
216.655
218.667
212.089
169.323
145.521
131.007
122.053
112.011
85.0235
67.8924
53.2593
34.3973
39.5043
46.8689
47.5789
33.321
24.0315
17.7945
12.2486
6.79751
1.39789
1408.02
1048.43
810.217
501.602
493.707
459.003
456.992
460.132
443.505
353.526
298.266
107.881
154.035
175.58
176.506
183.908
182.477
174.392
170.175
167.495
168.982
163.918
164.577
181.166
213.03
210.536
204.863
172.269
148.999
132.866
122.521
109.681
85.6737
67.606
52.8663
39.4666
40.9907
45.7459
45.3497
33.5446
23.8146
17.6214
12.1339
6.72726
1.37067
1356.55
766.111
938.959
422.561
463.179
470.867
465.534
461.995
425.988
358.73
282.007
125.308
158.361
175.015
177.109
184.95
182.673
175.308
171.104
168.34
169.144
164.096
168.803
182.81
212.11
206.159
201.593
174.069
151.466
134.282
123.614
109.168
85.5487
67.1073
53.119
42.2873
42.5408
46.0258
44.6025
33.1499
23.6785
17.488
12.0352
6.63451
1.30098
)
;

boundaryField
{
    AirInlet
    {
        type            calculated;
        value           nonuniform List<scalar> 5(3491.82 3502.71 3467.32 3446.87 3446.03);
    }
    WaterInlet
    {
        type            calculated;
        value           nonuniform List<scalar> 10(1398.42 1369.72 1355.09 1352.98 1362.51 938.432 929.22 931.55 946.275 975.051);
    }
    ChannelWall
    {
        type            calculated;
        value           nonuniform List<scalar> 
110
(
1362.47
1214.09
1171.54
1223.34
1451.32
938.476
785.874
739.74
642.563
1086.43
975.026
792.41
744.844
734.219
756.055
1356.51
766.073
938.923
422.518
463.134
470.823
465.489
461.951
425.944
358.686
281.963
125.264
158.316
174.971
177.065
184.906
182.629
175.264
171.06
168.296
169.1
164.052
168.759
182.766
212.066
206.115
201.549
174.025
151.421
134.238
123.569
109.124
85.5046
67.0631
53.0748
42.2431
42.4967
45.9817
44.5584
33.1057
23.6343
17.4438
11.991
6.59036
1.25683
1398.45
1216.03
1150.9
1155.34
905.63
1737.16
1130.44
385.175
307.569
243.704
294.774
308.979
268.413
261.477
401.905
499.472
309.648
213.368
183.498
173.026
159.947
157.981
163.43
163.417
158.201
150.634
144.358
120.832
101.856
66.5534
41.9339
26.7523
62.5935
88.6365
101.881
95.6321
77.5049
69.7445
67.9828
69.8818
89.5724
126.514
100.025
56.7528
33.8187
23.9605
17.4229
12.1171
7.36541
2.67663
)
;
    }
    Outlet
    {
        type            calculated;
        value           nonuniform List<scalar> 
15
(
-0.044145
-0.132435
-0.220706
-0.308945
-0.397199
-0.451082
-0.470648
-0.490231
-0.509796
-0.529474
-0.583566
-0.671907
-0.760219
-0.848562
-0.936855
)
;
    }
    FrontAndBack
    {
        type            empty;
    }
}


// ************************************************************************* //
