/*--------------------------------*- C++ -*----------------------------------*\
| =========                 |                                                 |
| \\      /  F ield         | OpenFOAM: The Open Source CFD Toolbox           |
|  \\    /   O peration     | Version:  2.3.0                                 |
|   \\  /    A nd           | Web:      www.OpenFOAM.org                      |
|    \\/     M anipulation  |                                                 |
\*---------------------------------------------------------------------------*/
FoamFile
{
    version     2.0;
    format      ascii;
    class       volScalarField;
    location    "0.004";
    object      p;
}
// * * * * * * * * * * * * * * * * * * * * * * * * * * * * * * * * * * * * * //

dimensions      [1 -1 -2 0 0 0 0];

internalField   nonuniform List<scalar> 
725
(
98.6817
62.8193
43.5668
65.0628
24.7052
93.2307
63.01
43.7177
65.6948
-15.4942
90.4711
62.0603
39.5747
49.6836
-76.5534
90.7026
59.9744
33.6321
19.8346
-122.68
93.7063
57.9568
32.884
26.456
-35.3481
211.751
21.6982
253.259
234.124
144.106
98.6084
68.7465
59.1481
55.7124
53.5588
51.6599
49.7189
47.7667
45.9552
44.3113
42.7884
41.3753
39.9201
38.4239
36.8896
35.3386
33.7899
32.2559
30.7414
29.2468
27.7688
26.3045
24.8511
23.4052
21.9666
20.533
19.1033
17.6757
16.2497
14.8251
13.4019
11.9802
10.5594
9.13965
7.72087
6.30226
4.88339
3.46294
2.03784
0.977332
422.492
-18.1894
285.178
230.496
138.321
97.762
69.2129
58.0597
54.6422
52.6274
50.8004
48.9759
47.1951
45.547
44.0192
42.5673
41.2007
39.7781
38.3068
36.7884
35.2464
33.7023
32.1697
30.6556
29.16
27.6816
26.2166
24.7626
23.3173
21.8787
20.4452
19.0154
17.5879
16.1618
14.7372
13.3139
11.8919
10.4713
9.05163
7.63271
6.21393
4.79516
3.37491
1.95366
0.537606
188.716
-110.143
361.301
207.088
109.199
87.5469
61.7783
55.958
53.4891
51.9783
50.4219
48.7021
46.9926
45.4019
43.9047
42.4618
41.1109
39.6864
38.2176
36.6999
35.1583
33.6142
32.081
30.5664
29.0703
27.5917
26.1269
24.6732
23.2282
21.7898
20.3565
18.9268
17.4994
16.0736
14.6491
13.226
11.8043
10.3836
8.96372
7.54459
6.12578
4.70715
3.28747
1.86987
0.453973
720.508
-81.4997
575.569
166.29
74.4318
62.5093
51.5693
52.0719
52.0677
51.3857
50.064
48.4026
46.7535
45.2431
43.7956
42.3689
41.0475
39.6142
38.1443
36.6205
35.0744
33.5271
31.9914
30.4752
28.9784
27.4996
26.0352
24.5821
23.1378
21.6999
20.267
18.8377
17.4105
15.9849
14.5606
13.1377
11.7161
10.2956
8.87583
7.45669
6.03777
4.61932
3.20034
1.78549
0.367157
1495.46
146.513
1813.46
220.385
48.4277
33.1071
40.4132
48.4352
50.8335
50.86
49.7666
48.2003
46.6266
45.1363
43.7042
42.2906
41.0207
39.5599
38.0939
36.5605
35.0082
33.4541
31.9116
30.3899
28.8894
27.4087
25.9438
24.4909
23.047
21.6097
20.1773
18.7483
17.3214
15.896
14.4719
13.0493
11.6278
10.2073
8.78765
7.36864
5.94976
4.53162
3.11286
1.70042
0.278771
1558.94
1641.89
696.396
343.46
15.221
7.93957
41.1428
47.4536
50.296
50.6233
49.7324
48.3826
46.62
44.9955
43.6265
42.2168
41.0409
39.5328
38.0834
36.5409
34.9901
33.4353
31.8904
30.3662
28.863
27.3798
25.9118
24.4551
23.0079
21.5671
20.1315
18.7001
17.2715
15.8451
14.4203
12.9967
11.5744
10.1536
8.73384
7.31489
5.89606
4.47791
3.05833
1.64937
0.222594
1566.73
1527.78
1110.76
278.308
14.302
-0.618566
40.2658
47.1188
50.0539
50.4632
49.5924
48.2583
46.537
44.9249
43.5965
42.1975
41.0514
39.5283
38.0932
36.5662
35.0338
33.4895
31.9469
30.4187
28.9072
27.413
25.9334
24.4661
23.0099
21.5622
20.1217
18.6869
17.256
15.828
14.4022
12.978
11.5553
10.1343
8.71445
7.2954
5.87644
4.45839
3.03858
1.63033
0.202552
1560.74
1517.16
975.53
219.884
143.711
-7.31223
46.8497
46.8184
49.8332
50.316
49.5779
48.1082
46.3789
44.8502
43.5624
42.1798
41.0598
39.5303
38.1857
36.7034
35.154
33.5794
32.0071
30.4534
28.9226
27.4152
25.9275
24.4559
22.9972
21.5481
20.1066
18.6708
17.2391
15.8103
14.3839
12.9593
11.5364
10.1152
8.69513
7.27596
5.85689
4.43884
3.01899
1.61087
0.182818
1520.95
1498.38
861.626
122.678
-65.1979
-11.4187
39.718
46.6126
49.63
50.3978
49.4782
48.1652
46.3671
44.818
43.552
42.1843
41.1022
39.6964
38.2346
36.6753
35.084
33.4876
31.9072
30.3553
28.8335
27.3389
25.8646
24.4047
22.9556
21.5137
20.0772
18.645
17.2156
15.7884
14.363
12.939
11.5165
10.0956
8.67565
7.25649
5.83738
4.41929
2.99944
1.59114
0.163263
1521.76
1502.27
1038.83
-195.811
-52.2878
-13.7129
39.8242
46.7023
49.4808
50.2335
49.3305
47.9114
46.2621
44.7845
43.536
42.179
41.1171
39.5283
38.0386
36.5126
34.9499
33.3767
31.817
30.2833
28.7761
27.2922
25.8255
24.3709
22.9254
21.4861
20.0517
18.621
17.1929
15.7667
14.3419
12.9185
11.4963
10.0756
8.6559
7.23688
5.81781
4.39966
2.97997
1.57095
0.144083
1137.1
1107.82
1077.71
1129.68
1086.89
1134.06
1109.94
1074.72
1124.91
880.832
1133.6
1111.6
1075.61
1140.98
884.971
1136.05
1111.59
1075.11
1126.78
941.543
1141.12
1109.57
1069.02
1086.67
860.94
1373.47
1363.44
1050.43
-415.595
-195.275
-13.2505
43.0203
48.0689
49.3277
50.2732
49.1916
47.6701
46.0622
44.6737
43.4359
42.1094
40.7186
39.3595
37.8838
36.3549
34.8034
33.2505
31.7126
30.1969
28.7022
27.2258
25.7634
24.3111
22.8668
21.4285
19.9948
18.5646
17.137
15.7112
14.2867
12.8634
11.4414
10.0208
8.60116
7.18217
5.76332
4.34503
2.92635
1.51397
0.0922602
939.72
1325.43
1187.46
-174.836
-216.746
-10.4827
43.0586
48.9228
49.8065
49.1544
48.0709
47.117
46.0752
45.014
43.961
42.3742
40.7066
39.254
37.7629
36.2334
34.6896
33.1476
31.6189
30.1092
28.6179
27.1426
25.68
24.227
22.7819
21.3428
19.9085
18.4779
17.0499
15.6238
14.1991
12.7757
11.3536
9.93289
8.51316
7.09403
5.67501
4.25632
2.83728
1.42243
0.00390781
1122.72
1072.14
1014.95
-181.861
-68.1406
18.2655
44.9376
50.6126
49.5372
48.719
47.6344
46.9049
46.016
44.7729
43.3472
42.043
40.5776
39.1228
37.6332
36.1132
34.5801
33.0476
31.5259
30.0205
28.5315
27.0571
25.5946
24.1414
22.6957
21.2563
19.8216
18.3907
16.9624
15.536
14.1111
12.6875
11.2655
9.84474
8.42499
7.00579
5.58664
4.16762
2.74785
1.33021
-0.0856624
745.551
726.333
822
111.728
4.22377
45.1034
50.9553
52.7109
50.0085
48.4756
47.1883
46.2025
45.454
44.5256
43.2219
41.9268
40.4843
39.0271
37.5389
36.0216
34.4904
32.9591
31.4381
29.933
28.4443
26.97
25.5075
24.0543
22.6087
21.1686
19.7336
18.3025
16.8741
15.4476
14.0226
12.5992
11.1772
9.75648
8.33675
6.91752
5.49835
4.07922
2.65892
1.23762
-0.178709
728.022
772.696
717.285
498.371
105.041
67.4991
56.0788
53.743
50.8184
49.1798
47.9432
46.9778
46.1471
45.0415
43.5337
42.073
40.5149
38.9933
37.4748
35.943
34.4049
32.8703
31.3481
29.8433
28.3551
26.881
25.4184
23.9651
22.5195
21.0798
19.645
18.214
16.7856
15.3591
13.9341
12.5107
11.0887
9.66805
8.24835
6.82914
5.40998
3.99079
2.57014
1.14714
0.0816803
)
;

boundaryField
{
    AirInlet
    {
        type            calculated;
        value           nonuniform List<scalar> 5(1558.93 1568.16 1474.32 1521 1523.11);
    }
    WaterInlet
    {
        type            calculated;
        value           nonuniform List<scalar> 10(98.6837 93.2363 90.481 90.7166 93.7237 1137.09 1134.04 1133.59 1136.05 1141.12);
    }
    ChannelWall
    {
        type            calculated;
        value           nonuniform List<scalar> 
110
(
93.6803
57.9268
32.85
26.4181
-35.3858
1137.13
1107.85
1077.75
1129.72
1086.93
1141.1
1109.54
1068.98
1086.63
860.899
727.994
772.682
717.277
498.337
104.997
67.4549
56.0346
53.6989
50.7743
49.1357
47.8991
46.9336
46.1029
44.9973
43.4895
42.0289
40.4707
38.9492
37.4306
35.8988
34.3608
32.8262
31.304
29.7992
28.311
26.8368
25.3742
23.921
22.4754
21.0356
19.6008
18.1698
16.7414
15.3149
13.89
12.4665
11.0445
9.6239
8.2042
6.78499
5.36584
3.94665
2.526
1.103
0.0375386
98.7082
62.8497
43.6012
65.101
24.7474
211.791
21.7322
253.295
234.166
144.151
98.6525
68.7907
59.1923
55.7566
53.603
51.704
49.763
47.8109
45.9994
44.3554
42.8326
41.4195
39.9642
38.468
36.9337
35.3828
33.8341
32.3001
30.7856
29.2909
27.813
26.3486
24.8952
23.4493
22.0107
20.5772
19.1475
17.7198
16.2939
14.8692
13.4461
12.0243
10.6036
9.18379
7.76502
6.3464
4.92753
3.50708
2.08199
1.02147
)
;
    }
    Outlet
    {
        type            calculated;
        value           nonuniform List<scalar> 
15
(
-0.0441416
-0.132435
-0.220725
-0.309015
-0.397305
-0.45126
-0.47088
-0.4905
-0.51012
-0.52974
-0.583695
-0.671985
-0.760275
-0.848565
-0.936783
)
;
    }
    FrontAndBack
    {
        type            empty;
    }
}


// ************************************************************************* //
