/*--------------------------------*- C++ -*----------------------------------*\
| =========                 |                                                 |
| \\      /  F ield         | OpenFOAM: The Open Source CFD Toolbox           |
|  \\    /   O peration     | Version:  2.3.0                                 |
|   \\  /    A nd           | Web:      www.OpenFOAM.org                      |
|    \\/     M anipulation  |                                                 |
\*---------------------------------------------------------------------------*/
FoamFile
{
    version     2.0;
    format      ascii;
    class       surfaceScalarField;
    location    "0.004";
    object      phi;
}
// * * * * * * * * * * * * * * * * * * * * * * * * * * * * * * * * * * * * * //

dimensions      [0 3 -1 0 0 0 0];

internalField   nonuniform List<scalar> 
1380
(
3.07754e-13
1.92246e-13
2.52901e-13
5.48533e-14
1.00597e-13
1.52303e-13
-6.4976e-13
7.50357e-13
1.84996e-12
-2.49972e-12
5.95186e-13
9.70597e-14
5.68624e-13
8.14153e-14
3.59524e-13
3.61403e-13
-7.64555e-13
1.87444e-12
3.30968e-12
-2.22428e-12
6.84063e-13
-8.70034e-14
7.19731e-13
4.57475e-14
7.75738e-13
3.05397e-13
6.56467e-13
1.99371e-12
2.78806e-12
1.17809e-12
6.04351e-13
-1.91355e-13
6.59079e-13
-8.97956e-15
9.31191e-13
3.32838e-14
2.298e-12
6.26902e-13
1.20072e-12
3.88533e-12
3.08645e-13
2.99666e-13
3.3295e-13
9.59851e-13
2.16058e-12
-1.00606e-12
-1.49366e-12
-7.10554e-13
-2.95507e-13
1.31531e-12
-2.02587e-12
1.60195e-12
-2.86641e-13
7.97261e-13
8.04692e-13
2.71997e-13
5.25264e-13
6.9982e-14
2.02015e-13
4.09066e-14
2.90754e-14
6.88523e-14
-2.79457e-14
1.00468e-13
-3.16159e-14
1.2509e-13
-2.46224e-14
1.39435e-13
-1.43445e-14
1.44093e-13
-4.65851e-15
1.4381e-13
2.83282e-16
1.42487e-13
1.32277e-15
1.41755e-13
7.31836e-16
1.43463e-13
-1.70837e-15
1.45396e-13
-1.93235e-15
1.46821e-13
-1.4253e-15
1.47419e-13
-5.97687e-16
1.47349e-13
7.00285e-17
1.46902e-13
4.46706e-16
1.46317e-13
5.85704e-16
1.45768e-13
5.48878e-16
1.45307e-13
4.61022e-16
1.44957e-13
3.49858e-16
1.44703e-13
2.53479e-16
1.4451e-13
1.93902e-16
1.44359e-13
1.51036e-16
1.44233e-13
1.25695e-16
1.44142e-13
9.0751e-17
1.44067e-13
7.54951e-17
1.44003e-13
6.37812e-17
1.43943e-13
6.03069e-17
1.43883e-13
6.0194e-17
1.43824e-13
5.85527e-17
1.43769e-13
5.42257e-17
1.43726e-13
4.33919e-17
1.43696e-13
3.01069e-17
1.4368e-13
1.60119e-17
1.43687e-13
-6.83633e-18
1.43763e-13
-7.67284e-17
1.44031e-13
-2.68139e-16
1.45092e-13
-1.06045e-15
-3.18556e-15
-7.38357e-13
-2.97958e-12
-7.82319e-13
-2.51545e-13
1.1732e-12
-3.98138e-12
2.72568e-12
-1.83912e-12
1.59819e-12
1.93218e-12
6.42487e-13
1.48096e-12
2.46767e-13
5.97736e-13
1.94022e-13
8.18206e-14
2.3533e-13
-6.92551e-14
2.91208e-13
-8.74936e-14
3.38034e-13
-7.14483e-14
3.67272e-13
-4.35829e-14
3.78124e-13
-1.55108e-14
3.78486e-13
-7.78167e-17
3.76186e-13
3.62252e-15
3.75151e-13
1.76593e-15
3.78498e-13
-5.05502e-15
3.82511e-13
-5.94515e-15
3.85534e-13
-4.44748e-15
3.86883e-13
-1.94737e-15
3.86856e-13
9.69618e-17
3.86022e-13
1.28106e-15
3.84889e-13
1.7188e-15
3.83767e-13
1.67021e-15
3.82811e-13
1.41736e-15
3.82055e-13
1.10655e-15
3.81475e-13
8.33234e-16
3.81026e-13
6.42203e-16
3.80672e-13
5.06028e-16
3.80395e-13
4.02258e-16
3.8017e-13
3.16138e-16
3.79987e-13
2.58258e-16
3.79836e-13
2.1539e-16
3.79703e-13
1.92732e-16
3.79585e-13
1.77818e-16
3.79484e-13
1.59721e-16
3.79403e-13
1.3506e-16
3.79344e-13
1.02475e-16
3.79309e-13
6.49824e-17
3.79298e-13
2.65162e-17
3.79315e-13
-2.37664e-17
3.79403e-13
-1.64335e-16
3.79678e-13
-5.4395e-16
3.80461e-13
-1.84376e-15
-3.23574e-15
2.37875e-12
-4.18024e-12
7.34584e-13
1.39262e-12
3.09489e-12
-6.34169e-12
2.29336e-12
-1.03759e-12
1.16487e-12
3.06067e-12
5.65578e-13
2.08026e-12
3.7867e-13
7.84643e-13
3.58003e-13
1.02489e-13
4.0133e-13
-1.12582e-13
4.60659e-13
-1.46823e-13
5.1354e-13
-1.2433e-13
5.47636e-13
-7.7679e-14
5.60723e-13
-2.85973e-14
5.61423e-13
-7.7804e-16
5.58793e-13
6.25288e-15
5.57285e-13
3.27319e-15
5.61152e-13
-8.92192e-15
5.65506e-13
-1.02982e-14
5.68733e-13
-7.67493e-15
5.70146e-13
-3.36076e-15
5.70148e-13
9.56249e-17
5.69354e-13
2.07524e-15
5.68277e-13
2.79496e-15
5.67227e-13
2.72107e-15
5.66337e-13
2.30632e-15
5.65639e-13
1.80546e-15
5.65109e-13
1.36306e-15
5.64704e-13
1.04685e-15
5.64387e-13
8.23149e-16
5.64143e-13
6.46728e-16
5.63953e-13
5.05862e-16
5.63804e-13
4.07782e-16
5.63677e-13
3.42015e-16
5.63563e-13
3.07121e-16
5.63458e-13
2.82249e-16
5.6337e-13
2.47304e-16
5.63301e-13
2.04067e-16
5.63252e-13
1.51954e-16
5.63223e-13
9.3503e-17
5.63215e-13
3.4061e-17
5.63225e-13
-3.36491e-17
5.63263e-13
-2.02058e-16
5.63311e-13
-5.92215e-16
5.63246e-13
-1.77903e-15
-2.62231e-15
3.34513e-12
-3.64004e-12
1.08142e-12
3.65633e-12
2.50015e-12
-7.76042e-12
1.43081e-12
3.175e-14
4.84151e-13
4.00733e-12
4.16405e-13
2.148e-12
5.207e-13
6.80348e-13
5.35853e-13
8.73361e-14
5.60273e-13
-1.37003e-13
6.07144e-13
-1.93693e-13
6.52811e-13
-1.69997e-13
6.82334e-13
-1.07202e-13
6.92927e-13
-3.91903e-14
6.9294e-13
-7.91527e-16
6.90329e-13
8.86452e-15
6.88102e-13
5.49977e-15
6.91727e-13
-1.25459e-14
6.94691e-13
-1.32624e-14
6.96641e-13
-9.62506e-15
6.973e-13
-4.01937e-15
6.97229e-13
1.66307e-16
6.96856e-13
2.44823e-15
6.96445e-13
3.20615e-15
6.96108e-13
3.05775e-15
6.95868e-13
2.54632e-15
6.9571e-13
1.9631e-15
6.95616e-13
1.45712e-15
6.95561e-13
1.10216e-15
6.95526e-13
8.57563e-16
6.95515e-13
6.58402e-16
6.9552e-13
5.00582e-16
6.95534e-13
3.94414e-16
6.95542e-13
3.33994e-16
6.95536e-13
3.13085e-16
6.95516e-13
3.01857e-16
6.95492e-13
2.71401e-16
6.95472e-13
2.242e-16
6.95455e-13
1.68754e-16
6.95442e-13
1.05859e-16
6.95437e-13
3.93565e-17
6.95431e-13
-2.81581e-17
6.95402e-13
-1.72809e-16
6.95256e-13
-4.46077e-16
6.9478e-13
-1.30358e-15
-1.65613e-15
1.0718e-11
-1.21974e-11
-4.00945e-12
1.83838e-11
-3.47319e-13
-1.14225e-11
1.26571e-12
-1.58127e-12
4.0734e-13
4.8657e-12
5.78376e-13
1.97697e-12
7.29592e-13
5.29132e-13
7.22383e-13
9.45457e-14
7.06983e-13
-1.21603e-13
7.25002e-13
-2.11713e-13
7.52142e-13
-1.97138e-13
7.70595e-13
-1.25655e-13
7.76203e-13
-4.47989e-14
7.73962e-13
1.44955e-15
7.717e-13
1.11277e-14
7.69046e-13
8.15329e-15
7.71552e-13
-1.50515e-14
7.71019e-13
-1.27294e-14
7.69997e-13
-8.60314e-15
7.68972e-13
-2.99409e-15
7.6872e-13
4.17554e-16
7.69175e-13
1.99379e-15
7.70036e-13
2.34508e-15
7.7101e-13
2.0842e-15
7.7191e-13
1.64511e-15
7.72669e-13
1.20438e-15
7.7329e-13
8.36052e-16
7.73797e-13
5.95027e-16
7.74215e-13
4.4005e-16
7.7457e-13
3.03078e-16
7.74874e-13
1.97212e-16
7.75132e-13
1.36299e-16
7.75349e-13
1.16884e-16
7.75529e-13
1.32866e-16
7.75677e-13
1.53768e-16
7.75799e-13
1.4997e-16
7.75895e-13
1.27603e-16
7.75963e-13
1.01212e-16
7.76002e-13
6.64957e-17
7.76017e-13
2.45497e-17
7.75998e-13
-9.62131e-18
7.75911e-13
-8.54352e-17
7.75634e-13
-1.6914e-16
7.74922e-13
-5.92097e-16
-5.49008e-16
-3.61433e-12
-8.3831e-12
2.07993e-12
1.26895e-11
1.14175e-12
-1.04844e-11
1.48867e-13
-5.88391e-13
1.78553e-13
4.83601e-12
2.49642e-13
1.90588e-12
2.07158e-13
5.71616e-13
1.83288e-13
1.18416e-13
1.72636e-13
-1.10951e-13
1.7132e-13
-2.10396e-13
1.73961e-13
-1.99779e-13
1.76139e-13
-1.27834e-13
1.76394e-13
-4.50535e-14
1.75961e-13
1.88302e-15
1.75756e-13
1.13326e-14
1.75575e-13
8.33445e-15
1.75472e-13
-1.49491e-14
1.74715e-13
-1.19723e-14
1.73792e-13
-7.68049e-15
1.7325e-13
-2.45209e-15
1.73158e-13
5.09688e-16
1.73419e-13
1.73288e-15
1.73852e-13
1.91207e-15
1.74313e-13
1.62305e-15
1.74725e-13
1.23329e-15
1.75061e-13
8.68224e-16
1.75326e-13
5.71464e-16
1.75533e-13
3.87484e-16
1.75698e-13
2.75842e-16
1.75827e-13
1.73301e-16
1.75929e-13
9.56831e-17
1.7601e-13
5.59146e-17
1.76076e-13
4.99513e-17
1.76136e-13
7.28722e-17
1.76193e-13
9.7422e-17
1.76245e-13
9.79766e-17
1.76289e-13
8.26027e-17
1.76325e-13
6.60132e-17
1.76349e-13
4.25303e-17
1.7636e-13
1.27294e-17
1.76361e-13
-1.04332e-17
1.76336e-13
-5.98077e-17
1.76279e-13
-1.12958e-16
1.76061e-13
-3.73503e-16
-3.38371e-16
-6.26224e-12
-1.92086e-12
-4.45736e-12
1.08846e-11
1.90829e-13
-1.51326e-11
-1.14058e-13
-2.83505e-13
2.36069e-13
4.48588e-12
3.0663e-13
1.83532e-12
2.23259e-13
6.54986e-13
1.91064e-13
1.50611e-13
1.7789e-13
-9.77766e-14
1.7482e-13
-2.07326e-13
1.76147e-13
-2.01106e-13
1.77527e-13
-1.29213e-13
1.77353e-13
-4.48802e-14
1.76836e-13
2.40027e-15
1.76779e-13
1.139e-14
1.76676e-13
8.43664e-15
1.76388e-13
-1.46608e-14
1.75334e-13
-1.09179e-14
1.74153e-13
-6.49965e-15
1.73484e-13
-1.78358e-15
1.73376e-13
6.18031e-16
1.73696e-13
1.41306e-15
1.74222e-13
1.38631e-15
1.74781e-13
1.06386e-15
1.7528e-13
7.33872e-16
1.75688e-13
4.6024e-16
1.76009e-13
2.50965e-16
1.76258e-13
1.37976e-16
1.76454e-13
8.03705e-17
1.76606e-13
2.07169e-17
1.76724e-13
-2.14967e-17
1.76815e-13
-3.52284e-17
1.7689e-13
-2.50946e-17
1.76957e-13
5.59654e-18
1.77021e-13
3.3715e-17
1.7708e-13
3.87728e-17
1.77131e-13
3.11804e-17
1.77172e-13
2.54868e-17
1.772e-13
1.45293e-17
1.77214e-13
-1.61603e-18
1.77216e-13
-1.23757e-17
1.7719e-13
-3.3405e-17
1.77133e-13
-5.62565e-17
1.7691e-13
-1.50021e-16
-1.284e-16
-2.81076e-12
1.08989e-12
-1.10997e-12
9.18382e-12
-5.85113e-13
-1.56574e-11
-2.56996e-13
-6.11622e-13
3.45664e-13
3.88322e-12
3.63532e-13
1.81745e-12
2.37652e-13
7.80866e-13
1.97724e-13
1.90539e-13
1.82476e-13
-8.25287e-14
1.77852e-13
-2.02702e-13
1.77881e-13
-2.01136e-13
1.78427e-13
-1.29758e-13
1.77879e-13
-4.43326e-14
1.77217e-13
3.06216e-15
1.77274e-13
1.13336e-14
1.77225e-13
8.4857e-15
1.76745e-13
-1.4181e-14
1.75368e-13
-9.54151e-15
1.73917e-13
-5.04817e-15
1.73141e-13
-1.00771e-15
1.73075e-13
6.84209e-16
1.73494e-13
9.93669e-16
1.74134e-13
7.46791e-16
1.74798e-13
4.00089e-16
1.75382e-13
1.49878e-16
1.7585e-13
-8.69356e-18
1.7621e-13
-1.08887e-16
1.76485e-13
-1.36671e-16
1.76696e-13
-1.30385e-16
1.76857e-13
-1.4084e-16
1.76981e-13
-1.44747e-16
1.77077e-13
-1.3125e-16
1.77156e-13
-1.04621e-16
1.77227e-13
-6.57374e-17
1.77294e-13
-3.31694e-17
1.77356e-13
-2.29847e-17
1.7741e-13
-2.29934e-17
1.77453e-13
-1.77128e-17
1.77483e-13
-1.54723e-17
1.77499e-13
-1.7092e-17
1.77501e-13
-1.46595e-17
1.77475e-13
-6.7787e-18
1.77417e-13
9.17147e-19
1.77193e-13
7.42143e-17
8.22976e-17
-3.36683e-12
4.65673e-12
-6.52043e-12
1.23374e-11
-1.34772e-12
-2.08301e-11
3.49816e-13
-2.30916e-12
5.21163e-13
3.71188e-12
4.14709e-13
1.9239e-12
2.4728e-13
9.48295e-13
2.03297e-13
2.34522e-13
1.86483e-13
-6.5714e-14
1.80191e-13
-1.96411e-13
1.78865e-13
-1.9981e-13
1.78776e-13
-1.29669e-13
1.77804e-13
-4.33602e-14
1.7706e-13
3.8056e-15
1.77235e-13
1.11591e-14
1.77239e-13
8.48119e-15
1.76576e-13
-1.35177e-14
1.74855e-13
-7.82047e-15
1.73512e-13
-3.70508e-15
1.72989e-13
-4.85136e-16
1.73074e-13
5.99546e-16
1.73556e-13
5.11181e-16
1.74198e-13
1.05495e-16
1.74825e-13
-2.27541e-16
1.75356e-13
-3.80572e-16
1.75769e-13
-4.22379e-16
1.76081e-13
-4.20137e-16
1.76315e-13
-3.71267e-16
1.76495e-13
-3.10205e-16
1.76633e-13
-2.79091e-16
1.76739e-13
-2.50759e-16
1.76823e-13
-2.14795e-16
1.76893e-13
-1.75245e-16
1.76958e-13
-1.30756e-16
1.77021e-13
-9.55144e-17
1.77079e-13
-8.11969e-17
1.7713e-13
-7.4102e-17
1.77171e-13
-5.86075e-17
1.772e-13
-4.40997e-17
1.77214e-13
-3.18245e-17
1.77216e-13
-1.65627e-17
1.7719e-13
1.98038e-17
1.77133e-13
5.77466e-17
1.76909e-13
2.97836e-16
2.92404e-16
-4.27148e-12
9.12821e-12
-5.18454e-12
1.32505e-11
3.22064e-13
-2.63367e-11
5.55623e-13
-2.54272e-12
6.54269e-13
3.61323e-12
4.394e-13
2.13877e-12
2.53153e-13
1.13454e-12
2.07564e-13
2.8011e-13
1.89411e-13
-4.75611e-14
1.81668e-13
-1.88668e-13
1.78997e-13
-1.97139e-13
1.78118e-13
-1.2879e-13
1.77039e-13
-4.22812e-14
1.76273e-13
4.57194e-15
1.7658e-13
1.08521e-14
1.76742e-13
8.31916e-15
1.75822e-13
-1.25974e-14
1.74343e-13
-6.34183e-15
1.73163e-13
-2.52504e-15
1.72714e-13
-3.57439e-17
1.72815e-13
4.9795e-16
1.73251e-13
7.49333e-17
1.73811e-13
-4.53845e-16
1.74348e-13
-7.64434e-16
1.74795e-13
-8.27793e-16
1.7514e-13
-7.67384e-16
1.75398e-13
-6.77871e-16
1.75592e-13
-5.65354e-16
1.75741e-13
-4.59937e-16
1.75857e-13
-3.95203e-16
1.75947e-13
-3.40737e-16
1.76019e-13
-2.86584e-16
1.76081e-13
-2.36688e-16
1.76138e-13
-1.87944e-16
1.76193e-13
-1.50605e-16
1.76244e-13
-1.3248e-16
1.76289e-13
-1.18798e-16
1.76324e-13
-9.41043e-17
1.76349e-13
-6.86793e-17
1.76361e-13
-4.40199e-17
1.76362e-13
-1.71172e-17
1.76336e-13
4.59394e-17
1.76279e-13
1.1429e-16
1.7606e-13
5.16769e-16
5.03297e-16
3.07396e-13
1.92604e-13
3.11267e-13
-3.87098e-15
4.41714e-13
-1.30447e-13
1.29599e-12
-8.54277e-13
4.55994e-13
8.39996e-13
6.00844e-13
9.17604e-14
6.29525e-13
-3.25515e-14
8.72203e-13
-3.73126e-13
2.0817e-12
-2.06377e-12
-3.32231e-12
5.86e-12
6.8134e-13
-8.95791e-14
6.77198e-13
-2.84099e-14
5.52395e-13
-2.48322e-13
-6.48252e-13
-8.63124e-13
-3.31868e-12
-6.51884e-13
5.96963e-13
-1.86542e-13
5.69488e-13
-9.35324e-16
2.92945e-13
2.82205e-14
-1.12405e-12
5.53871e-13
-2.96766e-13
-4.14596e-12
3.13458e-13
3.12523e-13
3.40744e-13
8.94615e-13
5.97848e-13
-5.93334e-12
1.59015e-11
-3.41828e-12
1.07354e-11
-6.54718e-12
-2.32078e-11
7.37744e-13
-9.82764e-12
2.84378e-12
1.5072e-12
1.86945e-12
3.1131e-12
1.17361e-12
1.83039e-12
9.67327e-13
4.8639e-13
8.79758e-13
4.00086e-14
8.23274e-13
-1.32184e-13
7.98928e-13
-1.72793e-13
7.86834e-13
-1.16696e-13
7.77711e-13
-3.31584e-14
7.74255e-13
8.02814e-15
7.7984e-13
5.26665e-15
7.8019e-13
7.96915e-15
7.74205e-13
-6.61224e-15
7.70551e-13
-2.68825e-15
7.67619e-13
4.07517e-16
7.66672e-13
9.11567e-16
7.6713e-13
3.95947e-17
7.68322e-13
-1.1174e-15
7.69736e-13
-1.86749e-15
7.71043e-13
-2.07188e-15
7.72115e-13
-1.89959e-15
7.7294e-13
-1.59246e-15
7.73558e-13
-1.29611e-15
7.74032e-13
-1.03918e-15
7.74412e-13
-8.39554e-16
7.7472e-13
-7.032e-16
7.74973e-13
-5.93632e-16
7.75185e-13
-4.98871e-16
7.75369e-13
-4.20432e-16
7.75534e-13
-3.53607e-16
7.75683e-13
-2.99049e-16
7.75806e-13
-2.55663e-16
7.75902e-13
-2.14651e-16
7.75972e-13
-1.63985e-16
7.76014e-13
-1.11097e-16
7.76028e-13
-5.76806e-17
7.76006e-13
4.42858e-18
7.75912e-13
1.40883e-16
7.75631e-13
3.94909e-16
7.74918e-13
1.23042e-15
1.61407e-15
1.1077e-11
1.06846e-11
1.19841e-11
9.82833e-12
6.47157e-13
-1.18709e-11
-1.11157e-12
-8.06892e-12
2.5871e-13
1.36921e-13
6.84203e-13
2.6876e-12
8.87328e-13
1.62726e-12
8.88969e-13
4.84749e-13
8.39781e-13
8.91968e-14
7.85238e-13
-7.76406e-14
7.3725e-13
-1.24805e-13
7.10803e-13
-9.02496e-14
7.02216e-13
-2.45713e-14
7.00164e-13
1.00799e-14
7.04111e-13
1.32032e-15
7.03672e-13
8.40724e-15
6.98466e-13
-1.40575e-15
6.96114e-13
-3.3581e-16
6.9533e-13
1.19084e-15
6.95321e-13
9.21128e-16
6.95567e-13
-2.07125e-16
6.95786e-13
-1.336e-15
6.95896e-13
-1.9777e-15
6.95918e-13
-2.09408e-15
6.95896e-13
-1.87692e-15
6.95853e-13
-1.54957e-15
6.95799e-13
-1.24283e-15
6.95746e-13
-9.86295e-16
6.95701e-13
-7.94017e-16
6.95661e-13
-6.63671e-16
6.95626e-13
-5.58783e-16
6.95597e-13
-4.69307e-16
6.95572e-13
-3.95328e-16
6.95551e-13
-3.32638e-16
6.95532e-13
-2.80161e-16
6.95512e-13
-2.35894e-16
6.95492e-13
-1.9401e-16
6.95474e-13
-1.46682e-16
6.95461e-13
-9.85043e-17
6.95452e-13
-4.79811e-17
6.95439e-13
1.78291e-17
6.95401e-13
1.79404e-16
6.95248e-13
5.47691e-16
6.9477e-13
1.70833e-15
2.58892e-15
6.34454e-12
3.68814e-12
9.45904e-12
6.71384e-12
3.22033e-12
-5.63222e-12
-1.08409e-12
-3.7645e-12
-1.0239e-12
7.67349e-14
-8.96604e-14
1.75336e-12
5.38596e-13
9.99005e-13
6.88868e-13
3.34476e-13
7.03862e-13
7.42026e-14
6.66071e-13
-3.985e-14
6.14337e-13
-7.30698e-14
5.77466e-13
-5.33785e-14
5.64745e-13
-1.1851e-14
5.66216e-13
8.6087e-15
5.6653e-13
1.007e-15
5.70137e-13
4.79999e-15
5.68689e-13
4.22179e-17
5.6806e-13
2.93443e-16
5.68332e-13
9.1877e-16
5.68687e-13
5.65675e-16
5.68705e-13
-2.25169e-16
5.68316e-13
-9.46323e-16
5.67664e-13
-1.32585e-15
5.66936e-13
-1.36644e-15
5.66261e-13
-1.20161e-15
5.65686e-13
-9.75455e-16
5.65215e-13
-7.7138e-16
5.64832e-13
-6.03604e-16
5.6452e-13
-4.81438e-16
5.64261e-13
-4.04903e-16
5.64043e-13
-3.4041e-16
5.63859e-13
-2.86117e-16
5.63707e-13
-2.4247e-16
5.6358e-13
-2.06305e-16
5.63477e-13
-1.76485e-16
5.63392e-13
-1.51005e-16
5.63323e-13
-1.25729e-16
5.63273e-13
-9.6633e-17
5.63241e-13
-6.66684e-17
5.63227e-13
-3.32145e-17
5.6323e-13
1.5164e-17
5.63259e-13
1.50919e-16
5.63298e-13
5.08194e-16
5.63225e-13
1.78223e-15
3.21048e-15
-5.82846e-13
1.25023e-13
6.13913e-12
-8.13134e-15
5.11761e-13
-4.85112e-15
-1.90039e-12
-1.35234e-12
-1.56397e-12
-2.59687e-13
-4.15365e-13
6.04756e-13
2.2684e-13
3.568e-13
4.39453e-13
1.21864e-13
4.88782e-13
2.48734e-14
4.6562e-13
-1.66884e-14
4.18625e-13
-2.60742e-14
3.83324e-13
-1.80775e-14
3.74678e-13
-3.20545e-15
3.79698e-13
3.58804e-15
3.8097e-13
-2.64918e-16
3.84349e-13
1.42146e-15
3.84639e-13
-2.48084e-16
3.84915e-13
1.78598e-17
3.85545e-13
2.89274e-16
3.85946e-13
1.6444e-16
3.85836e-13
-1.16132e-16
3.85251e-13
-3.60631e-16
3.84402e-13
-4.76862e-16
3.83509e-13
-4.73478e-16
3.82708e-13
-4.00637e-16
3.82044e-13
-3.12026e-16
3.81511e-13
-2.38234e-16
3.81086e-13
-1.78909e-16
3.80747e-13
-1.42271e-16
3.80462e-13
-1.19798e-16
3.80222e-13
-1.00038e-16
3.8002e-13
-8.44689e-17
3.79851e-13
-7.35884e-17
3.79711e-13
-6.57257e-17
3.79594e-13
-5.97508e-17
3.79497e-13
-5.43662e-17
3.7942e-13
-4.83928e-17
3.79363e-13
-3.95896e-17
3.79325e-13
-2.92163e-17
3.79309e-13
-1.62618e-17
3.7932e-13
4.31366e-18
3.79398e-13
7.31295e-17
3.79661e-13
2.45941e-16
3.80427e-13
1.01532e-15
3.17485e-15
7.22872e-13
7.1474e-13
7.0989e-13
-6.42451e-13
-9.02138e-13
-2.97383e-13
5.94171e-14
1.81281e-13
2.06155e-13
1.89466e-13
1.63392e-13
1.45315e-13
1.42109e-13
1.45697e-13
1.45432e-13
1.46854e-13
1.46606e-13
1.46623e-13
1.46913e-13
1.47077e-13
1.46961e-13
1.466e-13
1.46123e-13
1.4565e-13
1.45249e-13
1.44937e-13
1.44699e-13
1.4452e-13
1.44378e-13
1.44258e-13
1.44158e-13
1.44073e-13
1.44e-13
1.43934e-13
1.43874e-13
1.4382e-13
1.43772e-13
1.43732e-13
1.43703e-13
1.43687e-13
1.43691e-13
1.43765e-13
1.44011e-13
1.45026e-13
)
;

boundaryField
{
    AirInlet
    {
        type            calculated;
        value           nonuniform List<scalar> 5(-2e-13 -2e-13 -2e-13 -2e-13 -2e-13);
    }
    WaterInlet
    {
        type            calculated;
        value           nonuniform List<scalar> 10(-5e-13 -5e-13 -5e-13 -5e-13 -5e-13 -5e-13 -5e-13 -5e-13 -5e-13 -5e-13);
    }
    ChannelWall
    {
        type            calculated;
        value           uniform 0;
    }
    Outlet
    {
        type            calculated;
        value           nonuniform List<scalar> 
15
(
1.48277e-13
3.80511e-13
5.62633e-13
6.93814e-13
7.73815e-13
1.7585e-13
1.767e-13
1.76982e-13
1.76699e-13
1.75849e-13
7.73807e-13
6.93795e-13
5.62603e-13
3.80463e-13
1.48201e-13
)
;
    }
    FrontAndBack
    {
        type            empty;
        value           nonuniform 0();
    }
}


// ************************************************************************* //
