/*--------------------------------*- C++ -*----------------------------------*\
| =========                 |                                                 |
| \\      /  F ield         | OpenFOAM: The Open Source CFD Toolbox           |
|  \\    /   O peration     | Version:  2.3.0                                 |
|   \\  /    A nd           | Web:      www.OpenFOAM.org                      |
|    \\/     M anipulation  |                                                 |
\*---------------------------------------------------------------------------*/
FoamFile
{
    version     2.0;
    format      ascii;
    class       volVectorField;
    location    "0.004";
    object      U;
}
// * * * * * * * * * * * * * * * * * * * * * * * * * * * * * * * * * * * * * //

dimensions      [0 1 -1 0 0 0 0];

internalField   nonuniform List<vector> 
725
(
(0.0444222 0.00685101 -5.32104e-31)
(0.0532547 0.00209318 8.30987e-32)
(0.016152 0.00313679 6.4799e-33)
(0.0209536 0.0122079 0)
(-0.232222 0.0411154 3.25883e-30)
(0.0858956 0.0140176 -2.51782e-30)
(0.110629 0.0106615 7.90293e-32)
(0.0497413 0.0168154 -1.10796e-30)
(0.068097 0.0748248 0)
(-0.323536 0.108142 2.33114e-29)
(0.0982901 0.010117 -7.27965e-31)
(0.130185 0.016669 -3.66083e-31)
(0.076702 0.02717 -3.51295e-30)
(0.163421 0.125362 0)
(-0.051062 0.176219 1.68877e-29)
(0.0873922 0.00359741 3.06391e-30)
(0.113275 0.0164696 -6.11147e-31)
(0.081366 0.0183067 -2.97358e-30)
(0.207958 0.0985439 0)
(0.329723 0.14071 3.30995e-29)
(0.0452048 0.00170016 3.19972e-30)
(0.0534241 0.00937318 -5.43708e-31)
(0.0340632 0.00460037 -7.78965e-32)
(0.0664243 0.0165459 -6.50679e-31)
(0.177035 0.0377032 2.09717e-29)
(-0.206095 -0.0238098 0)
(-0.103812 -0.00867452 0)
(0.010139 -0.0388834 0)
(0.220008 0.0152505 0)
(0.150782 0.0202641 0)
(0.0419885 0.00568601 0)
(0.0134848 0.00224286 0)
(0.00411156 0.000222201 0)
(0.00561179 -0.00052916 0)
(0.00938553 -0.000479125 0)
(0.0126672 -0.000342711 0)
(0.0148883 -0.000185058 0)
(0.0159002 -4.96327e-05 0)
(0.0160523 8.02589e-06 0)
(0.0159012 1.67912e-05 0)
(0.0157555 1.24589e-05 0)
(0.0158205 -2.71739e-05 0)
(0.0160502 -2.4969e-05 0)
(0.0162489 -1.80593e-05 0)
(0.0163622 -7.11333e-06 0)
(0.0163864 1.80424e-06 0)
(0.0163527 6.57134e-06 0)
(0.0162916 8.14097e-06 0)
(0.0162263 7.20907e-06 0)
(0.0161692 6.01844e-06 0)
(0.0161239 4.45538e-06 0)
(0.0160905 3.1123e-06 0)
(0.016066 2.41787e-06 0)
(0.0160471 1.87952e-06 0)
(0.016032 1.65693e-06 0)
(0.0160203 1.08029e-06 0)
(0.0160111 9.1075e-07 0)
(0.0160034 7.36924e-07 0)
(0.0159966 7.14389e-07 0)
(0.0159899 7.56023e-07 0)
(0.0159833 7.84023e-07 0)
(0.0159771 7.78249e-07 0)
(0.0159717 6.43265e-07 0)
(0.0159677 4.61072e-07 0)
(0.0159651 2.60392e-07 0)
(0.0159642 -7.92514e-08 0)
(0.0159673 -1.29131e-06 0)
(0.0159822 -3.92929e-06 0)
(0.0160593 -1.53446e-05 0)
(0.0164533 -8.13124e-05 0)
(-0.0609981 -0.132483 0)
(-0.127062 -0.027902 0)
(-0.034036 -0.160059 0)
(0.27769 -0.0548366 0)
(0.287615 0.0662227 0)
(0.0979898 0.0518995 0)
(0.0363903 0.0202523 0)
(0.0209132 0.0028194 0)
(0.0229124 -0.00239409 0)
(0.0291342 -0.00285705 0)
(0.0352284 -0.00225512 0)
(0.0396317 -0.00132951 0)
(0.0417765 -0.000443222 0)
(0.042182 1.94639e-05 0)
(0.0419205 0.000120628 0)
(0.0416546 5.76155e-05 0)
(0.0418085 -0.000159843 0)
(0.0422853 -0.000184746 0)
(0.0427039 -0.000136931 0)
(0.0429481 -5.86275e-05 0)
(0.0430092 5.6184e-06 0)
(0.0429497 4.24696e-05 0)
(0.0428321 5.58595e-05 0)
(0.0427019 5.33229e-05 0)
(0.0425842 4.49809e-05 0)
(0.0424884 3.47185e-05 0)
(0.0424144 2.57866e-05 0)
(0.0423579 1.98967e-05 0)
(0.042314 1.57163e-05 0)
(0.0422795 1.27864e-05 0)
(0.0422522 9.86359e-06 0)
(0.0422299 8.15411e-06 0)
(0.0422115 6.86044e-06 0)
(0.0421957 6.24941e-06 0)
(0.0421818 5.91797e-06 0)
(0.0421696 5.48157e-06 0)
(0.0421597 4.81613e-06 0)
(0.0421521 3.746e-06 0)
(0.042147 2.46879e-06 0)
(0.0421446 1.13298e-06 0)
(0.0421444 -8.22193e-07 0)
(0.0421495 -6.64718e-06 0)
(0.0421623 -2.34316e-05 0)
(0.042206 -8.65475e-05 0)
(0.0422821 -0.000194346 0)
(0.387152 -0.198847 0)
(0.0590597 0.0128201 0)
(0.205391 -0.272322 0)
(0.352013 -0.0900323 0)
(0.213801 0.122495 0)
(0.065269 0.095429 0)
(0.0499207 0.0373353 0)
(0.0387329 0.00499285 0)
(0.0410891 -0.00467218 0)
(0.0476071 -0.00593109 0)
(0.0543962 -0.00489595 0)
(0.0594903 -0.00301225 0)
(0.062031 -0.0010896 0)
(0.0625281 -2.08102e-05 0)
(0.062234 0.000244637 0)
(0.0618993 0.000118036 0)
(0.0620606 -0.000351021 0)
(0.0626057 -0.000410382 0)
(0.0630534 -0.000308316 0)
(0.0633098 -0.000135473 0)
(0.0633736 5.28217e-06 0)
(0.063317 8.69823e-05 0)
(0.0632049 0.00011733 0)
(0.0630822 0.000114557 0)
(0.0629724 9.75596e-05 0)
(0.0628836 7.66316e-05 0)
(0.0628156 5.80507e-05 0)
(0.0627643 4.47914e-05 0)
(0.0627248 3.53104e-05 0)
(0.0626942 2.79721e-05 0)
(0.0626708 2.19941e-05 0)
(0.0626523 1.78706e-05 0)
(0.0626371 1.49174e-05 0)
(0.0626237 1.32462e-05 0)
(0.0626114 1.20553e-05 0)
(0.0626007 1.05821e-05 0)
(0.0625922 8.78073e-06 0)
(0.0625859 6.56657e-06 0)
(0.0625817 4.07825e-06 0)
(0.0625798 1.54184e-06 0)
(0.0625795 -1.58873e-06 0)
(0.062583 -9.86895e-06 0)
(0.0625846 -3.05943e-05 0)
(0.0625962 -9.62953e-05 0)
(0.0625174 -0.000155561 0)
(0.523757 -0.153841 0)
(0.107209 0.120803 0)
(0.201974 -0.347094 0)
(0.294674 -0.0107793 0)
(0.0713054 0.1818 0)
(0.0225799 0.112368 0)
(0.060891 0.0393079 0)
(0.058723 0.00482799 0)
(0.0596558 -0.00665599 0)
(0.064308 -0.00881384 0)
(0.0701382 -0.00751797 0)
(0.0746537 -0.00471455 0)
(0.0768353 -0.00174082 0)
(0.077155 -7.19573e-05 0)
(0.0768451 0.000375738 0)
(0.0764833 0.000211866 0)
(0.0765949 -0.000552841 0)
(0.0770512 -0.000614371 0)
(0.0773248 -0.000460161 0)
(0.0774603 -0.000199112 0)
(0.0774809 4.93972e-06 0)
(0.0774506 0.000120719 0)
(0.0774054 0.000162363 0)
(0.0773636 0.000157637 0)
(0.0773314 0.000133219 0)
(0.0773091 0.000104107 0)
(0.0772949 7.84149e-05 0)
(0.0772866 6.00382e-05 0)
(0.0772817 4.7145e-05 0)
(0.0772794 3.68457e-05 0)
(0.0772795 2.86638e-05 0)
(0.0772807 2.29864e-05 0)
(0.077282 1.93346e-05 0)
(0.077282 1.75029e-05 0)
(0.0772804 1.62097e-05 0)
(0.0772779 1.41952e-05 0)
(0.0772756 1.15629e-05 0)
(0.0772737 8.55934e-06 0)
(0.0772721 5.25847e-06 0)
(0.0772714 1.86181e-06 0)
(0.0772705 -1.75577e-06 0)
(0.0772709 -1.01652e-05 0)
(0.0772597 -2.75316e-05 0)
(0.0772477 -8.13843e-05 0)
(0.0770931 -0.00010955 0)
(0.803786 -0.186085 0)
(0.271899 0.177506 0)
(-0.392735 -0.382038 0)
(0.132492 -0.014293 0)
(0.0659238 0.243502 0)
(0.0448359 0.0996444 0)
(0.0804773 0.0242293 0)
(0.0810308 0.00292318 0)
(0.0779176 -0.0070554 0)
(0.0786704 -0.010558 0)
(0.0819889 -0.00943862 0)
(0.0849283 -0.00596915 0)
(0.0862447 -0.00216717 0)
(0.0861862 2.20079e-05 0)
(0.0858641 0.000535766 0)
(0.0855436 0.000373144 0)
(0.085575 -0.000732449 0)
(0.0857551 -0.000706814 0)
(0.0856092 -0.00051696 0)
(0.085475 -0.000206656 0)
(0.0854002 9.65252e-06 0)
(0.085421 0.000124661 0)
(0.085506 0.000160614 0)
(0.0856157 0.000150841 0)
(0.0857229 0.000123824 0)
(0.0858151 9.40682e-05 0)
(0.0858906 6.85284e-05 0)
(0.085952 5.09321e-05 0)
(0.0860026 3.90396e-05 0)
(0.0860453 2.90106e-05 0)
(0.0860817 2.10886e-05 0)
(0.0861126 1.60413e-05 0)
(0.0861386 1.37112e-05 0)
(0.0861603 1.368e-05 0)
(0.0861784 1.41346e-05 0)
(0.0861935 1.32616e-05 0)
(0.0862059 1.12005e-05 0)
(0.0862153 8.64693e-06 0)
(0.0862212 5.58793e-06 0)
(0.0862244 2.18752e-06 0)
(0.0862238 -7.97999e-07 0)
(0.0862214 -7.18427e-06 0)
(0.0861994 -1.56143e-05 0)
(0.0861734 -5.19076e-05 0)
(0.0859822 -5.33908e-05 0)
(-1.59555 -0.545246 0)
(0.0494885 0.906251 0)
(0.534854 -0.535691 0)
(0.171596 -0.052546 0)
(0.0729327 0.245546 0)
(0.143375 0.0966246 0)
(0.109996 0.0270216 0)
(0.0956079 0.00523074 0)
(0.0874573 -0.00583645 0)
(0.0851053 -0.0105681 0)
(0.0861847 -0.00993578 0)
(0.0877587 -0.00634547 0)
(0.0883572 -0.00225037 0)
(0.0880411 8.2305e-05 0)
(0.087915 0.000563405 0)
(0.087815 0.000412913 0)
(0.0877998 -0.000751559 0)
(0.0876438 -0.00062157 0)
(0.0870818 -0.000410186 0)
(0.0867043 -0.000137617 0)
(0.0865462 2.31977e-05 0)
(0.0866117 9.40228e-05 0)
(0.0868074 0.000107627 0)
(0.0870448 9.3875e-05 0)
(0.0872689 7.29791e-05 0)
(0.0874565 5.26087e-05 0)
(0.087605 3.57735e-05 0)
(0.087721 2.49934e-05 0)
(0.0878124 1.8212e-05 0)
(0.0878852 1.21365e-05 0)
(0.0879423 7.48351e-06 0)
(0.0879868 4.9238e-06 0)
(0.0880227 4.26947e-06 0)
(0.0880537 5.23826e-06 0)
(0.0880826 6.37507e-06 0)
(0.08811 6.29023e-06 0)
(0.0881346 5.33745e-06 0)
(0.0881549 4.24707e-06 0)
(0.0881697 2.77182e-06 0)
(0.0881789 9.56959e-07 0)
(0.0881815 -4.96146e-07 0)
(0.08818 -3.64451e-06 0)
(0.0881548 -7.08108e-06 0)
(0.0881267 -2.41862e-05 0)
(0.0879272 -2.22134e-05 0)
(-3.09289 -0.286212 0)
(-2.76238 0.476014 0)
(-0.051834 -0.63316 0)
(-0.027557 -0.0209635 0)
(0.0248932 0.234134 0)
(0.185826 0.0933585 0)
(0.121145 0.030145 0)
(0.100433 0.00662152 0)
(0.0905905 -0.00524323 0)
(0.0872494 -0.0104632 0)
(0.0875407 -0.0100381 0)
(0.0885946 -0.00643598 0)
(0.0889064 -0.00225416 0)
(0.088461 0.000105787 0)
(0.0883816 0.000568965 0)
(0.088373 0.00042029 0)
(0.0883332 -0.00074346 0)
(0.0880313 -0.000576086 0)
(0.0873085 -0.00035695 0)
(0.0868371 -0.000106443 0)
(0.0866479 2.85903e-05 0)
(0.0867303 7.95522e-05 0)
(0.0869682 8.34751e-05 0)
(0.0872556 6.80883e-05 0)
(0.0875269 4.99136e-05 0)
(0.0877544 3.37534e-05 0)
(0.0879344 2.09346e-05 0)
(0.0880742 1.33861e-05 0)
(0.0881837 9.06897e-06 0)
(0.0882696 4.94796e-06 0)
(0.0883361 1.9062e-06 0)
(0.0883869 5.42371e-07 0)
(0.0884274 6.39038e-07 0)
(0.0884622 1.98497e-06 0)
(0.0884948 3.31211e-06 0)
(0.0885258 3.46054e-06 0)
(0.0885539 2.89062e-06 0)
(0.0885773 2.33426e-06 0)
(0.0885945 1.46814e-06 0)
(0.0886054 3.07259e-07 0)
(0.0886088 -5.48948e-07 0)
(0.0886075 -2.33321e-06 0)
(0.0885816 -4.20752e-06 0)
(0.088553 -1.32032e-05 0)
(0.0883516 -1.15871e-05 0)
(-0.89462 -0.0447664 0)
(-1.62665 0.554184 0)
(-0.399034 -0.752323 0)
(-0.168673 -0.0141927 0)
(0.051984 0.210311 0)
(0.23186 0.0900927 0)
(0.130761 0.0353069 0)
(0.104472 0.00842091 0)
(0.0933224 -0.00453712 0)
(0.0891309 -0.0102768 0)
(0.0886612 -0.010075 0)
(0.0891903 -0.00648522 0)
(0.0892288 -0.00223581 0)
(0.0886502 0.000135064 0)
(0.0885856 0.000569909 0)
(0.0886671 0.000423938 0)
(0.0885886 -0.000724323 0)
(0.0881155 -0.000513617 0)
(0.0872334 -0.000289586 0)
(0.0866826 -6.92342e-05 0)
(0.0864867 3.3433e-05 0)
(0.0866061 6.08947e-05 0)
(0.0868979 5.38053e-05 0)
(0.0872398 3.68453e-05 0)
(0.0875579 2.21699e-05 0)
(0.0878212 1.12566e-05 0)
(0.0880258 3.46053e-06 0)
(0.0881815 -7.91406e-08 0)
(0.0883009 -1.36041e-06 0)
(0.0883929 -3.10515e-06 0)
(0.0884631 -4.24485e-06 0)
(0.0885166 -4.23397e-06 0)
(0.0885593 -3.29665e-06 0)
(0.0885962 -1.53887e-06 0)
(0.0886307 -5.37352e-09 0)
(0.0886633 3.89275e-07 0)
(0.0886927 2.09745e-07 0)
(0.0887175 2.07428e-07 0)
(0.0887358 -7.17175e-09 0)
(0.0887475 -4.52817e-07 0)
(0.0887513 -6.64617e-07 0)
(0.08875 -9.97227e-07 0)
(0.0887239 -1.37868e-06 0)
(0.0886951 -1.89277e-06 0)
(0.0884931 -1.15261e-06 0)
(-1.16462 0.157058 0)
(-3.92881 0.537506 0)
(-0.997223 -0.913588 0)
(-0.0642215 -0.060826 0)
(0.275723 0.18996 0)
(0.281514 0.0919997 0)
(0.137614 0.042739 0)
(0.107611 0.0105406 0)
(0.0957046 -0.00372929 0)
(0.0907133 -0.0100048 0)
(0.0894298 -0.0100432 0)
(0.0894503 -0.00649793 0)
(0.0892567 -0.00219919 0)
(0.088565 0.000169141 0)
(0.0885185 0.000564517 0)
(0.0886976 0.000424026 0)
(0.0885644 -0.000695304 0)
(0.0879238 -0.000434337 0)
(0.0869997 -0.000217751 0)
(0.0865394 -3.58771e-05 0)
(0.086448 3.30148e-05 0)
(0.0866225 3.78144e-05 0)
(0.0869307 2.0992e-05 0)
(0.0872636 3.73041e-06 0)
(0.0875589 -6.43057e-06 0)
(0.0877949 -1.14075e-05 0)
(0.0879733 -1.37724e-05 0)
(0.0881066 -1.31442e-05 0)
(0.0882082 -1.13672e-05 0)
(0.0882866 -1.07732e-05 0)
(0.0883465 -1.00975e-05 0)
(0.0883927 -8.8095e-06 0)
(0.0884301 -7.11621e-06 0)
(0.0884633 -5.00303e-06 0)
(0.0884951 -3.28629e-06 0)
(0.0885256 -2.6556e-06 0)
(0.0885533 -2.46303e-06 0)
(0.0885768 -1.92932e-06 0)
(0.0885942 -1.49862e-06 0)
(0.0886054 -1.22206e-06 0)
(0.0886089 -7.77042e-07 0)
(0.0886075 3.46021e-07 0)
(0.0885815 1.45593e-06 0)
(0.0885529 9.42346e-06 0)
(0.0883514 9.28584e-06 0)
(-1.0377 0.370977 0)
(-3.68448 0.674788 0)
(-0.39557 -1.20049 0)
(0.122426 -0.130293 0)
(0.406901 0.180046 0)
(0.304479 0.100892 0)
(0.140144 0.0519081 0)
(0.109969 0.0128731 0)
(0.0975777 -0.00284595 0)
(0.0918326 -0.00964241 0)
(0.0897565 -0.00994202 0)
(0.0892487 -0.00647195 0)
(0.0888577 -0.00214429 0)
(0.0881489 0.000208871 0)
(0.0881492 0.000550846 0)
(0.0884431 0.000421244 0)
(0.0882554 -0.000654453 0)
(0.0875776 -0.000354007 0)
(0.0867769 -0.000153768 0)
(0.0863886 -1.15811e-05 0)
(0.0863254 2.78859e-05 0)
(0.086489 1.4337e-05 0)
(0.0867614 -9.44967e-06 0)
(0.0870485 -2.56681e-05 0)
(0.0872987 -3.1022e-05 0)
(0.087496 -3.04176e-05 0)
(0.0876438 -2.79726e-05 0)
(0.0877538 -2.38105e-05 0)
(0.0878379 -1.95449e-05 0)
(0.0879034 -1.70669e-05 0)
(0.087954 -1.4933e-05 0)
(0.0879934 -1.2636e-05 0)
(0.0880258 -1.0377e-05 0)
(0.0880549 -8.04144e-06 0)
(0.088083 -6.23344e-06 0)
(0.08811 -5.43158e-06 0)
(0.0881343 -4.91383e-06 0)
(0.0881547 -3.89911e-06 0)
(0.0881697 -2.8825e-06 0)
(0.0881793 -1.93844e-06 0)
(0.0881818 -8.65344e-07 0)
(0.0881801 1.64226e-06 0)
(0.0881547 4.32021e-06 0)
(0.0881265 2.04059e-05 0)
(0.0879268 1.99188e-05 0)
(0.0427188 -0.00108942 0)
(0.0585625 -0.010967 -4.30808e-32)
(0.0217343 -0.00551514 -1.08054e-30)
(0.125208 -0.0378615 -3.02051e-30)
(0.153499 0.0606695 0)
(0.0821425 -0.00275218 0)
(0.122933 -0.0182944 0)
(0.0464445 -0.0211341 0)
(0.246733 -0.12094 7.38551e-31)
(0.275121 -0.117015 0)
(0.0921791 -0.00918339 0)
(0.142221 -0.0161314 0)
(0.0372442 -0.0227403 0)
(0.160213 -0.107023 -1.06469e-30)
(-0.408049 -0.145924 0)
(0.0807458 -0.0133096 0)
(0.122912 -0.00764122 0)
(0.0271652 -0.00386914 0)
(0.083614 0.00221864 4.69804e-30)
(-0.455433 -0.0568187 0)
(0.0421479 -0.00683569 0)
(0.0621006 -0.000338525 0)
(0.020243 0.00310551 0)
(0.103261 0.0289709 3.46304e-30)
(0.0996823 0.0160683 0)
(-0.117418 0.747388 0)
(-0.745896 0.319556 0)
(-0.649874 -1.43972 0)
(-0.151389 -0.361931 0)
(0.33869 0.108113 0)
(0.268942 0.138832 0)
(0.135289 0.0827194 0)
(0.114544 0.0207378 0)
(0.101524 -9.47465e-05 0)
(0.0938987 -0.0082807 0)
(0.0896816 -0.00946635 0)
(0.0877904 -0.00629471 0)
(0.0868195 -0.00194439 0)
(0.0860725 0.00032953 0)
(0.0862699 0.000459586 0)
(0.0867993 0.000412908 0)
(0.0864589 -0.000505022 0)
(0.0858047 -0.000179422 0)
(0.0853764 -1.17893e-05 0)
(0.0851843 3.87524e-05 0)
(0.0851763 1.06618e-05 0)
(0.0852879 -4.22114e-05 0)
(0.0854479 -7.87636e-05 0)
(0.0856065 -9.01268e-05 0)
(0.0857403 -8.31843e-05 0)
(0.0858443 -6.95627e-05 0)
(0.0859219 -5.65027e-05 0)
(0.0859804 -4.49768e-05 0)
(0.0860267 -3.58129e-05 0)
(0.0860645 -2.9637e-05 0)
(0.0860953 -2.46351e-05 0)
(0.0861207 -2.04094e-05 0)
(0.0861422 -1.72024e-05 0)
(0.0861614 -1.47313e-05 0)
(0.0861789 -1.30824e-05 0)
(0.0861943 -1.2187e-05 0)
(0.0862067 -1.1061e-05 0)
(0.0862161 -8.96752e-06 0)
(0.0862223 -6.53474e-06 0)
(0.0862257 -3.93811e-06 0)
(0.0862249 -1.16743e-06 0)
(0.0862219 4.78617e-06 0)
(0.0861992 1.25908e-05 0)
(0.086173 4.79874e-05 0)
(0.0859813 5.1097e-05 0)
(0.787361 0.467944 0)
(1.49367 0.621442 0)
(0.785436 -0.907414 0)
(-0.209948 -0.478623 0)
(0.0100592 0.043452 0)
(0.0438534 0.160164 0)
(0.0899443 0.0940694 0)
(0.100327 0.0267531 0)
(0.0958703 0.00414308 0)
(0.0904545 -0.00501818 0)
(0.0843675 -0.00753515 0)
(0.0799265 -0.00531247 0)
(0.0781246 -0.00147562 0)
(0.0777405 0.000476653 0)
(0.0779747 0.000127116 0)
(0.0783374 0.000419495 0)
(0.0779716 -0.000169766 0)
(0.077435 -5.48492e-05 0)
(0.0772574 5.6711e-05 0)
(0.0772379 5.37666e-05 0)
(0.077264 -6.34724e-06 0)
(0.0772976 -7.12138e-05 0)
(0.0773195 -0.000108958 0)
(0.0773273 -0.000116983 0)
(0.0773262 -0.000105786 0)
(0.0773211 -8.79855e-05 0)
(0.0773145 -7.10976e-05 0)
(0.0773077 -5.67834e-05 0)
(0.0773021 -4.58484e-05 0)
(0.0772975 -3.82792e-05 0)
(0.0772935 -3.21685e-05 0)
(0.0772899 -2.69649e-05 0)
(0.0772867 -2.26323e-05 0)
(0.0772841 -1.88982e-05 0)
(0.077282 -1.58659e-05 0)
(0.07728 -1.35392e-05 0)
(0.0772779 -1.12035e-05 0)
(0.0772759 -8.42504e-06 0)
(0.0772743 -5.66726e-06 0)
(0.0772733 -2.87484e-06 0)
(0.0772718 5.59752e-07 0)
(0.0772712 8.58921e-06 0)
(0.0772591 2.50598e-05 0)
(0.0772467 7.77163e-05 0)
(0.077091 0.000107615 0)
(0.355982 0.420774 0)
(1.00297 0.548828 0)
(0.966907 -0.342365 0)
(-0.158901 -0.275308 0)
(-0.120929 -0.00736073 0)
(-0.0715967 0.117461 0)
(0.046827 0.0674988 0)
(0.0712955 0.0218535 0)
(0.0791172 0.00485125 0)
(0.0772694 -0.00269077 0)
(0.0711533 -0.00492419 0)
(0.0655536 -0.00360662 0)
(0.062932 -0.000896426 0)
(0.0626979 0.000500782 0)
(0.0629375 4.49744e-05 0)
(0.0632377 0.00035379 0)
(0.0633067 3.68383e-06 0)
(0.063124 1.74334e-05 0)
(0.0631117 6.13907e-05 0)
(0.0631666 3.93729e-05 0)
(0.0631953 -1.32647e-05 0)
(0.0631755 -6.21221e-05 0)
(0.0631154 -8.84687e-05 0)
(0.0630356 -9.2165e-05 0)
(0.0629552 -8.1901e-05 0)
(0.0628844 -6.72112e-05 0)
(0.0628256 -5.36392e-05 0)
(0.062778 -4.23535e-05 0)
(0.0627398 -3.39886e-05 0)
(0.0627086 -2.84162e-05 0)
(0.0626824 -2.38647e-05 0)
(0.0626601 -2.002e-05 0)
(0.0626415 -1.68681e-05 0)
(0.062626 -1.42025e-05 0)
(0.0626134 -1.19726e-05 0)
(0.0626031 -1.00809e-05 0)
(0.0625947 -8.26056e-06 0)
(0.0625883 -6.23905e-06 0)
(0.0625839 -4.21301e-06 0)
(0.0625815 -2.03393e-06 0)
(0.0625804 9.96325e-07 0)
(0.062583 8.98113e-06 0)
(0.0625837 2.85435e-05 0)
(0.0625944 9.28538e-05 0)
(0.0625141 0.000154014 0)
(-0.371197 0.0513597 0)
(0.347695 0.127627 0)
(0.526934 -0.147518 0)
(-0.273479 -0.111357 0)
(-0.20746 -0.00372695 0)
(-0.112352 0.0552153 0)
(0.0106976 0.032907 0)
(0.0402164 0.0113285 0)
(0.0546808 0.00258434 0)
(0.0544191 -0.00133614 0)
(0.0492152 -0.00235558 0)
(0.044 -0.00167176 0)
(0.0416225 -0.000307142 0)
(0.0418275 0.000327458 0)
(0.0422837 1.93737e-05 0)
(0.042552 0.000147271 0)
(0.0427576 -2.50731e-06 0)
(0.0427434 1.04069e-05 0)
(0.0427963 3.08945e-05 0)
(0.042866 1.7413e-05 0)
(0.0428867 -9.9376e-06 0)
(0.0428466 -3.36019e-05 0)
(0.0427632 -4.51797e-05 0)
(0.0426628 -4.54641e-05 0)
(0.0425662 -3.91547e-05 0)
(0.0424837 -3.11599e-05 0)
(0.0424168 -2.4259e-05 0)
(0.0423638 -1.87047e-05 0)
(0.0423219 -1.49469e-05 0)
(0.0422878 -1.26467e-05 0)
(0.0422589 -1.0671e-05 0)
(0.0422345 -9.03244e-06 0)
(0.0422139 -7.76459e-06 0)
(0.0421968 -6.74277e-06 0)
(0.0421826 -5.89314e-06 0)
(0.042171 -5.12709e-06 0)
(0.0421615 -4.34484e-06 0)
(0.0421542 -3.40235e-06 0)
(0.042149 -2.39396e-06 0)
(0.0421461 -1.21169e-06 0)
(0.0421452 6.23486e-07 0)
(0.0421496 6.25427e-06 0)
(0.0421613 2.18599e-05 0)
(0.0422031 8.35756e-05 0)
(0.0422768 0.000193373 0)
(0.00821177 -0.065871 0)
(0.138681 -0.113456 0)
(0.168593 0.0463308 0)
(-0.116532 0.0192398 0)
(-0.0827947 -0.0105043 0)
(-0.0705527 0.00729763 0)
(-0.000684243 0.00419269 0)
(0.015263 0.00141825 0)
(0.0235383 3.38114e-05 0)
(0.0226181 -0.000361264 0)
(0.0196472 -0.000400518 0)
(0.0169066 -0.000251851 0)
(0.0157461 -2.00256e-05 0)
(0.0159672 6.69627e-05 0)
(0.0161951 -3.08111e-05 0)
(0.0162477 1.94519e-05 0)
(0.0163187 -1.28643e-05 0)
(0.0162892 -1.30075e-06 0)
(0.0163066 4.29428e-06 0)
(0.0163363 2.10161e-06 0)
(0.0163403 -2.2072e-06 0)
(0.0163128 -5.59094e-06 0)
(0.0162643 -6.91231e-06 0)
(0.0162098 -6.57695e-06 0)
(0.0161602 -5.3682e-06 0)
(0.0161202 -4.06848e-06 0)
(0.0160895 -3.09442e-06 0)
(0.0160665 -2.29188e-06 0)
(0.016049 -1.85678e-06 0)
(0.0160347 -1.59899e-06 0)
(0.0160225 -1.31951e-06 0)
(0.0160123 -1.11417e-06 0)
(0.0160036 -9.92942e-07 0)
(0.0159959 -9.14454e-07 0)
(0.0159889 -8.51278e-07 0)
(0.0159827 -7.77959e-07 0)
(0.015977 -6.91486e-07 0)
(0.0159722 -5.55636e-07 0)
(0.0159684 -4.01302e-07 0)
(0.0159659 -1.9815e-07 0)
(0.0159649 9.92283e-08 0)
(0.0159678 1.30416e-06 0)
(0.0159812 3.55842e-06 0)
(0.0160544 1.44239e-05 0)
(0.0164448 8.12108e-05 0)
)
;

boundaryField
{
    AirInlet
    {
        type            fixedValue;
        value           uniform (0.1 0 0);
    }
    WaterInlet
    {
        type            fixedValue;
        value           uniform (0.1 0 0);
    }
    ChannelWall
    {
        type            fixedValue;
        value           uniform (0 0 0);
    }
    Outlet
    {
        type            pressureInletOutletVelocity;
        value           nonuniform List<vector> 
15
(
(0.0164533 -8.13124e-05 0)
(0.0422821 -0.000194346 0)
(0.0625174 -0.000155561 0)
(0.0770931 -0.00010955 0)
(0.0859822 -5.33908e-05 0)
(0.0879272 -2.22134e-05 0)
(0.0883516 -1.15871e-05 0)
(0.0884931 -1.15261e-06 0)
(0.0883514 9.28584e-06 0)
(0.0879268 1.99188e-05 0)
(0.0859813 5.1097e-05 0)
(0.077091 0.000107615 0)
(0.0625141 0.000154014 0)
(0.0422768 0.000193373 0)
(0.0164448 8.12108e-05 0)
)
;
    }
    FrontAndBack
    {
        type            empty;
    }
}


// ************************************************************************* //
