/*--------------------------------*- C++ -*----------------------------------*\
| =========                 |                                                 |
| \\      /  F ield         | OpenFOAM: The Open Source CFD Toolbox           |
|  \\    /   O peration     | Version:  2.3.0                                 |
|   \\  /    A nd           | Web:      www.OpenFOAM.org                      |
|    \\/     M anipulation  |                                                 |
\*---------------------------------------------------------------------------*/
FoamFile
{
    version     2.0;
    format      ascii;
    class       volVectorField;
    location    "0.004";
    object      U;
}
// * * * * * * * * * * * * * * * * * * * * * * * * * * * * * * * * * * * * * //

dimensions      [0 1 -1 0 0 0 0];

internalField   nonuniform List<vector> 
725
(
(0.216156 0.0255202 -1.83088e-30)
(0.196967 0.0104781 3.15858e-31)
(0.13005 0.00953219 7.17795e-32)
(0.123804 0.0484087 0)
(-0.458756 -0.0161023 7.71573e-31)
(0.377517 0.0531565 -8.53479e-30)
(0.409039 0.0410817 1.54187e-30)
(0.347645 0.0347737 1.17492e-30)
(0.399587 0.115499 0)
(0.319714 0.0777747 -1.47065e-29)
(0.414816 0.0384158 -3.63648e-30)
(0.471379 0.0503805 4.89604e-31)
(0.428957 0.0455945 3.50512e-30)
(0.478998 0.0769988 0)
(0.60142 -0.0484476 -2.82577e-29)
(0.374211 0.0172858 5.4956e-30)
(0.399417 0.0454428 5.33473e-31)
(0.350933 0.0441214 5.1544e-30)
(0.346683 0.0503354 0)
(0.243211 -0.0751918 -8.62193e-29)
(0.209846 0.0106831 6.93796e-30)
(0.184355 0.0291244 2.68938e-32)
(0.145082 0.0256936 1.22153e-30)
(0.109513 0.0243817 5.42649e-30)
(0.133954 0.027556 -5.00806e-29)
(0.246504 -0.334684 0)
(0.977749 -0.0583789 0)
(0.717691 0.0853141 0)
(0.176231 0.0531995 0)
(0.0283708 0.0206 0)
(0.000983755 0.00208635 0)
(0.0553853 -0.00912678 0)
(0.1579 -0.0199321 0)
(0.23813 -0.00819444 0)
(0.155718 0.0139744 0)
(0.264891 -0.0444392 0)
(0.360535 0.0185921 0)
(0.229298 0.0242059 0)
(0.121392 0.0107176 0)
(0.0897332 0.0036553 0)
(0.0685496 0.00479553 0)
(0.0504589 0.00172451 0)
(0.0517399 -0.000850314 0)
(0.059597 -0.000635191 0)
(0.0653534 -0.000425658 0)
(0.0718135 -0.000376482 0)
(0.0841717 -0.00196781 0)
(0.0857401 0.00118564 0)
(0.0848491 -0.00172149 0)
(0.0793192 0.00288328 0)
(0.056128 0.00209072 0)
(0.0313612 0.00375899 0)
(0.0261836 -0.000976659 0)
(0.0426702 -0.00273566 0)
(0.0717811 -0.00389792 0)
(0.0905977 -0.000545199 0)
(0.0858289 0.0019418 0)
(0.0750742 0.00132257 0)
(0.0673453 0.00247084 0)
(0.0457551 0.00510585 0)
(0.0310296 -0.00413568 0)
(0.0653882 -0.0107299 0)
(0.107915 -0.00240769 0)
(0.103662 0.00439428 0)
(0.077073 0.00296623 0)
(0.0613316 0.000949739 0)
(0.0562657 0.000330346 0)
(0.054698 8.77926e-05 0)
(0.0544959 -2.94623e-05 0)
(0.0550823 -7.31235e-05 0)
(0.610537 -0.511997 0)
(0.673743 -0.0496816 0)
(0.525318 0.257621 0)
(0.159366 0.211121 0)
(0.0448327 0.0701661 0)
(0.0577454 -0.018382 0)
(0.145103 -0.0582339 0)
(0.243099 -0.0682834 0)
(0.267087 -0.0146923 0)
(0.179227 0.037859 0)
(0.289764 -0.123365 0)
(0.398934 0.036945 0)
(0.318803 0.0841683 0)
(0.20666 0.0461616 0)
(0.173922 0.0148266 0)
(0.152061 0.017667 0)
(0.129941 0.00565479 0)
(0.136736 -0.00604955 0)
(0.154069 -0.00596781 0)
(0.167999 -0.00512886 0)
(0.182815 -0.00679661 0)
(0.207081 -0.0101736 0)
(0.214036 0.00680151 0)
(0.211202 -0.00312493 0)
(0.194082 0.0162588 0)
(0.149076 0.0162248 0)
(0.10352 0.0173348 0)
(0.0961621 -0.00756893 0)
(0.126014 -0.0183042 0)
(0.177334 -0.0222241 0)
(0.21235 -0.00577595 0)
(0.207293 0.00850954 0)
(0.192469 0.0062902 0)
(0.190005 0.00627517 0)
(0.188246 0.0124229 0)
(0.176958 0.00149051 0)
(0.186964 -0.0335781 0)
(0.218737 -0.0143795 0)
(0.219117 0.0153053 0)
(0.184185 0.0169478 0)
(0.157108 0.0075114 0)
(0.147609 0.0025698 0)
(0.144844 0.000651653 0)
(0.144462 -0.00014741 0)
(0.145408 -0.000333543 0)
(0.523845 -0.359225 0)
(-0.0904305 0.112156 0)
(0.014229 0.262094 0)
(0.110956 0.228057 0)
(0.152956 0.0683631 0)
(0.17872 -0.0508099 0)
(0.220665 -0.0943128 0)
(0.239548 -0.0797987 0)
(0.182725 0.0199367 0)
(0.117993 0.0407577 0)
(0.280106 -0.204842 0)
(0.414396 0.0320035 0)
(0.35346 0.12989 0)
(0.256222 0.0753786 0)
(0.237256 0.0209422 0)
(0.219333 0.0302293 0)
(0.193621 0.00836283 0)
(0.201869 -0.0143089 0)
(0.223728 -0.0146432 0)
(0.241714 -0.0125143 0)
(0.253641 -0.0143964 0)
(0.273054 -0.0222094 0)
(0.294737 0.00609172 0)
(0.309321 -0.00195049 0)
(0.280406 0.0379333 0)
(0.223428 0.0344414 0)
(0.172993 0.0380495 0)
(0.161053 -0.0158948 0)
(0.192896 -0.0376864 0)
(0.244522 -0.0458588 0)
(0.281955 -0.01456 0)
(0.276186 0.0149255 0)
(0.261926 0.00978529 0)
(0.262362 0.00464338 0)
(0.267635 0.00664245 0)
(0.282862 0.00838618 0)
(0.295694 -0.036865 0)
(0.297412 -0.0209696 0)
(0.284561 0.0261044 0)
(0.24875 0.0331039 0)
(0.224576 0.0157948 0)
(0.217614 0.00557319 0)
(0.215497 0.00140744 0)
(0.215069 -0.000259942 0)
(0.2161 -0.00064398 0)
(-0.0728089 -0.173086 0)
(0.00923244 0.10211 0)
(0.356894 0.168277 0)
(0.5042 0.226693 0)
(0.453494 0.0847443 0)
(0.358229 -0.0503773 0)
(0.292537 -0.0883418 0)
(0.178836 -0.0553509 0)
(0.110787 0.097344 0)
(0.0920794 -0.0429374 0)
(0.141956 -0.302915 0)
(0.448791 -0.00516944 0)
(0.417078 0.181078 0)
(0.312304 0.10172 0)
(0.302524 0.0240677 0)
(0.282516 0.0457374 0)
(0.248332 0.0124036 0)
(0.252493 -0.0232512 0)
(0.271146 -0.0232591 0)
(0.284688 -0.0196458 0)
(0.287342 -0.0173126 0)
(0.29432 -0.0357368 0)
(0.318848 0.0002299 0)
(0.355541 -0.00789654 0)
(0.32325 0.0651665 0)
(0.263981 0.0507561 0)
(0.234307 0.0656266 0)
(0.224572 -0.0257603 0)
(0.25092 -0.0542921 0)
(0.281204 -0.0673195 0)
(0.303954 -0.0220262 0)
(0.28867 0.0229911 0)
(0.277561 0.010204 0)
(0.291564 0.00299367 0)
(0.297761 0.00283959 0)
(0.309751 -0.0106716 0)
(0.317727 -0.034046 0)
(0.300686 -0.0197674 0)
(0.277159 0.0375571 0)
(0.257955 0.0467799 0)
(0.259651 0.0205356 0)
(0.265687 0.00703008 0)
(0.266406 0.00176234 0)
(0.266091 -0.000376381 0)
(0.267152 -0.000973972 0)
(0.079483 -0.264099 0)
(1.57226 -0.166015 0)
(1.04764 0.150338 0)
(0.800917 0.268455 0)
(0.620024 0.158435 0)
(0.466378 0.0064786 0)
(0.320221 -0.0194457 0)
(-0.000400572 -0.0305327 0)
(0.169316 0.0431017 0)
(0.281939 0.0407711 0)
(-0.220417 -0.298108 0)
(0.15233 -0.0736009 0)
(0.364793 0.193512 0)
(0.363573 0.101808 0)
(0.353891 0.0174751 0)
(0.33428 0.06983 0)
(0.308178 0.0193634 0)
(0.300991 -0.0300339 0)
(0.302008 -0.0276692 0)
(0.301866 -0.023106 0)
(0.28966 -0.0115803 0)
(0.27075 -0.0433073 0)
(0.271103 -0.0174547 0)
(0.319534 -0.0201116 0)
(0.267931 0.114824 0)
(0.230701 0.0459871 0)
(0.298113 0.0777274 0)
(0.308889 -0.0421977 0)
(0.307714 -0.0599199 0)
(0.289142 -0.0734327 0)
(0.264671 -0.0242317 0)
(0.231599 0.0373212 0)
(0.242097 0.00731528 0)
(0.285113 -0.00572222 0)
(0.29371 0.00392773 0)
(0.25021 -0.00944573 0)
(0.234774 -0.0296038 0)
(0.2345 -0.000801654 0)
(0.19065 0.0562445 0)
(0.208122 0.0285961 0)
(0.269671 0.00808175 0)
(0.293769 0.00249035 0)
(0.297246 0.000994283 0)
(0.296974 -0.000473835 0)
(0.298321 -0.00132342 0)
(-2.39115 -0.567209 0)
(1.15232 -0.38641 0)
(0.918565 0.428891 0)
(0.584502 0.33236 0)
(0.522372 0.183894 0)
(0.382692 0.0368824 0)
(0.265763 0.0576048 0)
(-0.208975 0.0233533 0)
(-0.31511 -7.42413e-05 0)
(-0.156819 0.0818946 0)
(-0.148171 -0.28617 0)
(0.247927 -0.221668 0)
(0.481789 0.169664 0)
(0.415606 0.109722 0)
(0.342596 0.0244672 0)
(0.342637 0.0732179 0)
(0.362967 0.0217431 0)
(0.340491 -0.0252712 0)
(0.313443 -0.0232212 0)
(0.297885 -0.0194107 0)
(0.277054 -0.00309108 0)
(0.238211 -0.0323775 0)
(0.171168 -0.0174433 0)
(0.196341 -0.0279121 0)
(0.213017 0.12325 0)
(0.286372 0.0192627 0)
(0.403937 0.071136 0)
(0.38579 -0.0418283 0)
(0.340278 -0.0483985 0)
(0.283064 -0.0557165 0)
(0.182149 -0.00910035 0)
(0.127636 0.0406038 0)
(0.19844 -0.0108238 0)
(0.266303 -0.0145928 0)
(0.27412 0.0117443 0)
(0.198003 0.0100384 0)
(0.173598 -0.0370905 0)
(0.209543 0.000928454 0)
(0.200514 0.0593727 0)
(0.237406 0.0101399 0)
(0.283052 -0.00159576 0)
(0.300303 -0.000771108 0)
(0.303378 0.000472988 0)
(0.303449 -0.000658594 0)
(0.305165 -0.00159214 0)
(-7.35112 -0.26266 0)
(-1.08368 -0.761611 0)
(0.356829 0.445899 0)
(0.406003 0.338048 0)
(0.485262 0.194496 0)
(0.352915 0.0466578 0)
(0.235909 0.0867702 0)
(-0.198482 0.0500809 0)
(-0.27138 0.00812345 0)
(-0.239125 0.0613146 0)
(-0.0525104 -0.306016 0)
(0.31976 -0.258277 0)
(0.532705 0.164996 0)
(0.432045 0.117257 0)
(0.333964 0.0290883 0)
(0.339045 0.0712646 0)
(0.374699 0.0216004 0)
(0.349691 -0.0223581 0)
(0.316099 -0.0208471 0)
(0.294772 -0.0173736 0)
(0.270441 0.000173454 0)
(0.227234 -0.0264051 0)
(0.136341 -0.0138401 0)
(0.145936 -0.030711 0)
(0.185962 0.117012 0)
(0.300514 0.00767571 0)
(0.438321 0.0669913 0)
(0.414033 -0.0389862 0)
(0.349642 -0.0421925 0)
(0.279891 -0.0469109 0)
(0.141403 0.00100008 0)
(0.0765321 0.0395293 0)
(0.184992 -0.0206735 0)
(0.261516 -0.0180754 0)
(0.269919 0.0146347 0)
(0.193132 0.0180895 0)
(0.166602 -0.0406108 0)
(0.19764 -0.000550087 0)
(0.213199 0.0574959 0)
(0.255841 0.00591667 0)
(0.287516 -0.00420138 0)
(0.30161 -0.00169373 0)
(0.304609 0.00030907 0)
(0.304848 -0.000751097 0)
(0.306681 -0.00169008 0)
(-7.82683 0.180167 0)
(-3.62075 -1.2394 0)
(-0.925565 0.275317 0)
(0.114684 0.293526 0)
(0.477973 0.197222 0)
(0.365629 0.059573 0)
(0.223277 0.112179 0)
(-0.059796 0.0657882 0)
(0.0305407 0.0195338 0)
(-0.144221 0.0506037 0)
(0.0540675 -0.340693 0)
(0.423339 -0.290005 0)
(0.632265 0.164215 0)
(0.443701 0.129578 0)
(0.327764 0.0346605 0)
(0.334446 0.0685832 0)
(0.374477 0.0207046 0)
(0.351899 -0.0190509 0)
(0.316621 -0.0180574 0)
(0.292405 -0.0149396 0)
(0.269609 0.00346469 0)
(0.225968 -0.0196738 0)
(0.130893 -0.0079994 0)
(0.139847 -0.0339288 0)
(0.162713 0.108643 0)
(0.288483 -0.00647479 0)
(0.456623 0.0613553 0)
(0.429417 -0.0343532 0)
(0.347294 -0.0347626 0)
(0.276782 -0.0370019 0)
(0.137846 0.0131138 0)
(0.101275 0.0351931 0)
(0.213795 -0.0300122 0)
(0.25927 -0.0214678 0)
(0.276064 0.0160799 0)
(0.267122 0.0229884 0)
(0.238659 -0.0399717 0)
(0.194388 -0.00134238 0)
(0.219151 0.0536016 0)
(0.268286 0.00304256 0)
(0.290455 -0.00628528 0)
(0.301912 -0.00247765 0)
(0.304885 0.000144457 0)
(0.305312 -0.00085914 0)
(0.307233 -0.00179654 0)
(1.06349 1.08642 0)
(-2.1473 -1.1515 0)
(-0.83927 0.0685008 0)
(0.02078 0.218582 0)
(0.444468 0.184188 0)
(0.343002 0.0774873 0)
(0.215318 0.129004 0)
(0.00254807 0.0704517 0)
(0.164774 0.0216669 0)
(0.0256244 0.0552196 0)
(0.128971 -0.370375 0)
(0.307189 -0.318869 0)
(0.622933 0.166404 0)
(0.420169 0.144033 0)
(0.318952 0.0399596 0)
(0.328626 0.0661441 0)
(0.366824 0.0195474 0)
(0.346212 -0.015984 0)
(0.314701 -0.0152496 0)
(0.290449 -0.0124348 0)
(0.268781 0.00656147 0)
(0.224945 -0.0131666 0)
(0.150952 -0.00296128 0)
(0.156101 -0.0358871 0)
(0.142578 0.102894 0)
(0.276489 -0.0236874 0)
(0.468995 0.0534958 0)
(0.44419 -0.0275486 0)
(0.342349 -0.0268291 0)
(0.274035 -0.0276158 0)
(0.166862 0.0222495 0)
(0.152544 0.029719 0)
(0.237546 -0.0360806 0)
(0.259309 -0.0242921 0)
(0.287047 0.0140986 0)
(0.345995 0.0211393 0)
(0.309409 -0.0317037 0)
(0.195879 0.00113073 0)
(0.211564 0.0492553 0)
(0.265495 -0.000169937 0)
(0.290608 -0.00816107 0)
(0.301276 -0.00315675 0)
(0.304231 -3.15218e-05 0)
(0.304867 -0.000972171 0)
(0.306833 -0.00192427 0)
(-2.75855 0.377627 0)
(-1.95115 -1.1437 0)
(-0.821469 -0.0445217 0)
(0.0731327 0.150214 0)
(0.441149 0.162977 0)
(0.379405 0.0943506 0)
(0.271213 0.139787 0)
(0.0864741 0.0749972 0)
(0.233145 0.0123465 0)
(0.194754 0.0627727 0)
(0.148796 -0.372742 0)
(-0.0149389 -0.333346 0)
(0.44116 0.159751 0)
(0.372474 0.154039 0)
(0.308183 0.0439334 0)
(0.321459 0.0635787 0)
(0.357599 0.0186337 0)
(0.339495 -0.0134599 0)
(0.311442 -0.0126636 0)
(0.288504 -0.0099929 0)
(0.267806 0.00947467 0)
(0.225353 -0.00744652 0)
(0.172753 -0.000246897 0)
(0.173558 -0.0352057 0)
(0.15021 0.0982993 0)
(0.280311 -0.040964 0)
(0.450658 0.0441591 0)
(0.434371 -0.019963 0)
(0.333382 -0.0187391 0)
(0.271488 -0.0200804 0)
(0.192501 0.0278047 0)
(0.191264 0.0255591 0)
(0.254054 -0.0398025 0)
(0.260831 -0.0264411 0)
(0.289674 0.00972383 0)
(0.364097 0.0164652 0)
(0.325473 -0.0203922 0)
(0.207566 0.00547506 0)
(0.219326 0.0455112 0)
(0.270377 -0.00384306 0)
(0.292486 -0.00990135 0)
(0.300597 -0.00375475 0)
(0.303574 -0.000219758 0)
(0.304371 -0.0010703 0)
(0.305325 -0.00201911 0)
(0.210003 -0.0105408 0)
(0.179923 -0.0273584 -6.00334e-32)
(0.144979 -0.0219711 -1.14642e-30)
(0.0176615 0.00471881 6.14078e-30)
(0.207821 0.106114 0)
(0.375172 -0.0166666 0)
(0.394298 -0.0416659 0)
(0.356711 -0.0358512 0)
(0.307954 -0.0402713 6.3064e-30)
(0.353693 0.102638 0)
(0.416393 -0.0375723 0)
(0.467725 -0.0459013 0)
(0.434983 -0.0356277 0)
(0.416673 -0.0529462 5.18348e-30)
(0.331654 -0.0160975 0)
(0.379304 -0.0524952 0)
(0.408341 -0.0373759 0)
(0.365244 -0.0212649 0)
(0.352056 -0.0356642 -1.52293e-30)
(0.224495 -0.0581771 0)
(0.217373 -0.02529 0)
(0.19837 -0.00955222 0)
(0.157587 -0.00246284 0)
(0.148956 -0.00610775 -4.566e-31)
(0.031166 -0.0189172 0)
(-0.991848 1.2783 0)
(-0.634072 -1.30141 0)
(-0.89073 -0.370095 0)
(0.193301 -0.0367023 0)
(0.481642 0.113407 0)
(0.421076 0.124737 0)
(0.363613 0.165649 0)
(0.311978 0.0883728 0)
(0.29816 -0.0113754 0)
(0.472417 0.0740828 0)
(0.186575 -0.264987 0)
(-0.385984 -0.304241 0)
(-0.0427075 0.0724875 0)
(0.206697 0.143734 0)
(0.275842 0.0467558 0)
(0.302011 0.0547072 0)
(0.330315 0.0171974 0)
(0.319919 -0.00849669 0)
(0.299741 -0.00624735 0)
(0.28241 -0.00340352 0)
(0.266501 0.0164989 0)
(0.250404 0.00292822 0)
(0.244737 0.00184592 0)
(0.215156 -0.0252793 0)
(0.227773 0.0829882 0)
(0.306291 -0.0693567 0)
(0.35442 0.0192286 0)
(0.371441 -0.00206919 0)
(0.315763 0.000618556 0)
(0.275188 -0.00637409 0)
(0.247538 0.0359089 0)
(0.271625 0.0171167 0)
(0.286671 -0.0426753 0)
(0.266702 -0.0298905 0)
(0.279443 -0.00345251 0)
(0.318907 0.00887268 0)
(0.296861 0.00346329 0)
(0.235706 0.0170799 0)
(0.24822 0.0351159 0)
(0.287685 -0.0110771 0)
(0.294289 -0.013805 0)
(0.296109 -0.00518093 0)
(0.298733 -0.000760745 0)
(0.299773 -0.00125354 0)
(0.298844 -0.00203693 0)
(1.0134 0.867357 0)
(1.12834 -0.626509 0)
(-0.106842 -0.552043 0)
(0.161779 -0.244931 0)
(0.285012 0.0813523 0)
(0.274866 0.150143 0)
(0.313977 0.163323 0)
(0.377441 0.089325 0)
(0.346171 -0.00715252 0)
(0.417922 0.0478318 0)
(0.299617 -0.0663703 0)
(0.0666901 -0.232195 0)
(0.0197008 -0.0976255 0)
(0.160015 0.0466505 0)
(0.235268 0.0239466 0)
(0.257917 0.0366919 0)
(0.278223 0.0166233 0)
(0.273099 -0.00294922 0)
(0.259478 -0.00062174 0)
(0.251083 0.00292471 0)
(0.251861 0.0182105 0)
(0.258801 -0.000352546 0)
(0.266023 -0.00344015 0)
(0.243566 -0.00668509 0)
(0.277723 0.039427 0)
(0.294041 -0.0511582 0)
(0.269785 -0.0014417 0)
(0.28133 0.00759333 0)
(0.270524 0.0104411 0)
(0.247802 -0.000623379 0)
(0.250957 0.0271001 0)
(0.283146 0.00867568 0)
(0.279164 -0.0308977 0)
(0.250574 -0.0240596 0)
(0.244253 -0.00651454 0)
(0.257788 0.00737574 0)
(0.25437 0.0113534 0)
(0.242787 0.020992 0)
(0.260755 0.0194875 0)
(0.278068 -0.011393 0)
(0.273701 -0.0136617 0)
(0.269554 -0.00556038 0)
(0.269974 -0.0013772 0)
(0.27032 -0.0012195 0)
(0.268684 -0.00144699 0)
(1.0757 0.375481 0)
(1.21726 -0.247793 0)
(0.257118 -0.251617 0)
(-0.10022 -0.188686 0)
(0.0397664 0.0386667 0)
(0.0967318 0.120245 0)
(0.223402 0.120106 0)
(0.327803 0.0681555 0)
(0.320611 -0.00969337 0)
(0.340908 0.0399319 0)
(0.342607 -0.0307689 0)
(0.229534 -0.150048 0)
(0.0902212 -0.0525398 0)
(0.132534 0.0201012 0)
(0.17287 0.0148758 0)
(0.189658 0.0252263 0)
(0.207597 0.0133905 0)
(0.208863 0.00143255 0)
(0.203888 0.00188714 0)
(0.202664 0.00298547 0)
(0.21458 0.0105611 0)
(0.227968 -0.00388791 0)
(0.22927 -0.000201962 0)
(0.2128 -0.0010984 0)
(0.234044 0.0194738 0)
(0.228721 -0.0315041 0)
(0.199403 -0.00113799 0)
(0.206571 0.00818659 0)
(0.21736 0.011885 0)
(0.215713 0.00385163 0)
(0.225466 0.015913 0)
(0.246227 0.00326048 0)
(0.234804 -0.0200021 0)
(0.208434 -0.015644 0)
(0.19698 -0.00637585 0)
(0.200231 0.00463379 0)
(0.205835 0.0108388 0)
(0.216062 0.0156364 0)
(0.236272 0.0106743 0)
(0.241522 -0.00973243 0)
(0.229457 -0.0104038 0)
(0.22174 -0.00408446 0)
(0.220259 -0.00111833 0)
(0.219842 -0.000891639 0)
(0.218161 -0.000930252 0)
(0.532482 0.103735 0)
(0.637782 -0.0917172 0)
(0.436648 -0.0897585 0)
(0.0408323 -0.0480795 0)
(-0.0762637 0.00778179 0)
(0.00472381 0.0629155 0)
(0.146789 0.0630873 0)
(0.252564 0.0360458 0)
(0.256962 -0.00466217 0)
(0.267857 0.0231431 0)
(0.317185 -0.0189197 0)
(0.224735 -0.0863208 0)
(0.0712244 -0.0356872 0)
(0.0672195 0.00971524 0)
(0.0887087 0.0106884 0)
(0.10667 0.0154286 0)
(0.12714 0.00863282 0)
(0.133894 0.00174904 0)
(0.134934 0.00141877 0)
(0.136341 0.00102218 0)
(0.146473 0.00368549 0)
(0.145556 -0.00632629 0)
(0.142299 0.0032704 0)
(0.1442 0.00153835 0)
(0.161619 0.00998524 0)
(0.151814 -0.0146201 0)
(0.125058 -0.00123031 0)
(0.131151 0.00450404 0)
(0.148178 0.00586423 0)
(0.15328 0.00136855 0)
(0.164234 0.00809394 0)
(0.177767 0.00176325 0)
(0.165633 -0.00940545 0)
(0.143983 -0.0077342 0)
(0.131786 -0.00353398 0)
(0.131826 0.00233348 0)
(0.141295 0.00575807 0)
(0.15729 0.00751729 0)
(0.173663 0.00434128 0)
(0.172811 -0.00534365 0)
(0.159379 -0.00522841 0)
(0.151321 -0.001829 0)
(0.149402 -0.000522404 0)
(0.148687 -0.00045751 0)
(0.147215 -0.000468373 0)
(0.068725 0.0176672 0)
(0.173625 -0.0306808 0)
(-0.0337483 -0.0360577 0)
(-0.142534 0.0498983 0)
(-0.0796019 0.0126339 0)
(-0.0300373 0.0129605 0)
(0.0697308 0.0128137 0)
(0.138114 0.00761185 0)
(0.145196 -0.00162421 0)
(0.152293 0.00300065 0)
(0.175195 -0.0105223 0)
(0.0863647 -0.0226927 0)
(-0.0178341 -0.00409381 0)
(-0.0129558 0.00453137 0)
(0.00686018 0.00354697 0)
(0.0237032 0.00404517 0)
(0.0413253 0.00202391 0)
(0.0477248 0.000276429 0)
(0.0491728 0.000216094 0)
(0.0501545 -4.31715e-06 0)
(0.0551691 0.00100117 0)
(0.0518779 -0.0013403 0)
(0.0486286 0.000331189 0)
(0.0518943 -0.00042925 0)
(0.063056 0.00298301 0)
(0.0592956 -0.00288019 0)
(0.0449825 0.000455691 0)
(0.0488819 0.000606301 0)
(0.0579117 0.000720752 0)
(0.0599934 -0.000240596 0)
(0.0665882 0.00188947 0)
(0.0753798 0.000617155 0)
(0.0695011 -0.00171084 0)
(0.0575715 -0.0013517 0)
(0.0497872 -0.00068554 0)
(0.0488461 0.000217669 0)
(0.0541364 0.000646216 0)
(0.0630971 0.00111022 0)
(0.0714911 0.000877218 0)
(0.07018 -0.00103273 0)
(0.0624884 -0.000817769 0)
(0.0582144 -0.000187769 0)
(0.0571926 -6.04199e-05 0)
(0.0567314 -7.31425e-05 0)
(0.055854 -9.88781e-05 0)
)
;

boundaryField
{
    AirInlet
    {
        type            fixedValue;
        value           uniform (0.08 0 0);
    }
    WaterInlet
    {
        type            fixedValue;
        value           uniform (0.4 0 0);
    }
    ChannelWall
    {
        type            fixedValue;
        value           uniform (0 0 0);
    }
    Outlet
    {
        type            pressureInletOutletVelocity;
        value           nonuniform List<vector> 
15
(
(0.0550823 -7.31235e-05 0)
(0.145408 -0.000333543 0)
(0.2161 -0.00064398 0)
(0.267152 -0.000973972 0)
(0.298321 -0.00132342 0)
(0.305165 -0.00159214 0)
(0.306681 -0.00169008 0)
(0.307233 -0.00179654 0)
(0.306833 -0.00192427 0)
(0.305325 -0.00201911 0)
(0.298844 -0.00203693 0)
(0.268684 -0.00144699 0)
(0.218161 -0.000930252 0)
(0.147215 -0.000468373 0)
(0.055854 -9.88781e-05 0)
)
;
    }
    FrontAndBack
    {
        type            empty;
    }
}


// ************************************************************************* //
