/*--------------------------------*- C++ -*----------------------------------*\
| =========                 |                                                 |
| \\      /  F ield         | OpenFOAM: The Open Source CFD Toolbox           |
|  \\    /   O peration     | Version:  2.3.0                                 |
|   \\  /    A nd           | Web:      www.OpenFOAM.org                      |
|    \\/     M anipulation  |                                                 |
\*---------------------------------------------------------------------------*/
FoamFile
{
    version     2.0;
    format      ascii;
    class       volScalarField;
    location    "2.25";
    object      alpha.water;
}
// * * * * * * * * * * * * * * * * * * * * * * * * * * * * * * * * * * * * * //

dimensions      [0 0 0 0 0 0 0];

internalField   nonuniform List<scalar> 
2268
(
0.999153
0.999842
0.976379
0.975002
0.966962
0.975857
1
1
1
1
1
1
0.999994
0.998135
0.989148
0.989344
0.998439
0.999717
0.999708
0.999675
0.999799
0.999799
0.999799
0.978059
0.944943
0.931166
0.921912
0.958823
0.986209
1
1
1
1
1
0.999999
0.999992
0.997463
0.989178
0.989148
0.994613
0.999727
0.999234
0.998977
0.999429
0.9998
0.999799
0.970118
0.91879
0.882603
0.868285
0.949798
0.994239
1
1
0.999999
0.999985
0.999966
0.999973
0.999998
0.999807
0.993993
0.989233
0.993807
0.999733
0.999747
0.999061
0.999042
0.9998
0.9998
0.975961
0.975914
0.970539
0.867719
0.861875
0.977222
1
1
0.999999
0.999927
0.999882
0.999935
0.999998
0.999999
0.999524
0.9964
0.998784
0.999709
0.999877
0.999346
0.998031
0.999795
0.999802
0.988609
0.987499
0.992631
0.966788
0.85641
0.858044
1
1
1
1
0.999995
0.999998
0.999999
0.999999
0.999999
0.999998
0.999997
0.999997
0.999979
0.99898
0.994595
0.999606
0.999788
0.992345
0.99265
0.993308
0.993433
0.85641
0.889677
0.99978
1
1
0.99828
0.996602
0.999906
0.999998
0.999999
0.999998
0.999998
0.999998
0.999662
0.984619
0.977824
0.992134
0.973337
0.990456
0.991742
0.991978
0.987158
0.997286
0.985938
0.988899
0.999522
0.999998
0.996155
0.916005
0.953759
0.99913
0.999989
0.999916
0.999898
0.999996
0.99984
0.980973
0.972557
0.97522
0.958581
0.946438
0.980014
0.938668
0.915263
0.977125
0.999335
0.999558
0.999939
0.99999
0.999993
0.970213
0.884186
0.920667
0.998089
0.994057
0.998106
0.998766
0.99991
0.998923
0.975154
0.971246
0.962193
0.946352
0.946228
0.982027
0.989314
0.982977
0.933713
0.933713
0.985894
0.999125
0.999125
0.999123
0.99912
0.999119
0.999117
0.892419
0.88118
0.893537
0.901987
0.901896
0.899158
0.907331
0.909042
0.974543
0.935036
0.933713
0.964406
0.999127
0.999127
0.999123
0.999121
0.999119
0.999117
0.999113
0.939022
0.880656
0.880461
0.880523
0.880471
0.880452
0.882718
0.97364
0.934812
0.934812
0.934546
0.997864
0.999101
0.999125
0.9991
0.999098
0.99863
0.998961
0.999109
0.995833
0.880459
0.880459
0.880459
0.880452
0.880452
0.880452
0.973631
0.944711
0.935043
0.948326
0.995651
0.997808
0.999043
0.996541
0.992477
0.982259
0.961426
0.971545
0.995043
0.960492
0.898744
0.930891
0.948074
0.885955
0.880554
0.967134
0.981427
0.93556
0.987431
0.993226
0.996167
0.997391
0.984952
0.979896
0.971348
0.93529
0.935041
0.939818
0.970141
0.976824
0.979033
0.98296
0.960931
0.916736
0.972954
0.993693
0.970395
0.997861
0.998046
0.998128
0.997597
0.992484
0.989709
0.994229
0.955696
0.935057
0.935029
0.935125
0.937762
0.942464
0.983012
0.982805
0.982611
0.982607
0.994078
0.995062
0.995534
0.998128
0.998127
0.998127
0.998074
0.996481
0.99679
0.989646
0.942855
0.935125
0.938674
0.947267
0.969371
0.983123
0.983018
0.982798
0.982553
0.993809
0.978819
0.977144
0.998049
0.998127
0.995772
0.998065
0.998028
0.997091
0.996542
0.995178
0.990749
0.985759
0.984161
0.984731
0.983774
0.972316
0.960997
0.978449
0.793378
0.863286
0.950041
0.976964
0.992111
0.99948
0.997751
0.97268
0.873658
0.923952
0.984013
0.984521
0.949515
0.999495
0.999948
0.999948
0.999944
0.998549
0.983447
0.945132
0.945033
0.973245
0.980683
0.683194
0.68907
0.656937
0.695618
0.758048
0.814861
0.833015
0.826543
0.833941
0.943993
0.980564
0.960437
0.952869
0.999273
0.999947
0.999949
0.999947
0.999939
0.999871
0.996967
0.977572
0.973554
0.979998
0.0873173
0.0449645
0.0576802
0.0724388
0.0825181
0.0867142
0.196893
0.3735
0.481696
0.492413
0.41415
0.375459
0.537875
0.805212
0.999158
0.999947
0.999939
0.999871
0.999361
0.961467
0.933193
0.973562
0.970046
0.00676792
0.00115696
0.000779937
0.00202956
0.00408992
0.00844775
0.0120572
0.0142537
0.0148064
0.00775323
0.00170723
0.000518376
0.000638384
0.0350868
0.581507
0.954587
0.987875
0.755949
0.432284
0.300444
0.52181
0.761453
0.829949
0.00102819
0.000893199
0.000468533
5.61978e-05
8.27399e-05
0.00097473
0.0011923
0.000715131
0.000203364
0.000193923
0.000127617
0.000139402
0.000213023
0.000629267
0.00173875
0.188719
0.329697
0.114022
0.00285134
0.000901256
0.00103588
0.00115375
0.0975031
0.00110381
0.00109934
0.000340932
1.96122e-05
1.88816e-05
2.00909e-05
3.37195e-05
5.40865e-05
6.17387e-05
9.84433e-05
0.000144614
0.000152696
0.000158908
0.000649645
0.00191293
0.00613502
0.00168251
0.00162549
0.00093831
0.000932736
0.000972104
0.00103951
0.00116156
0.00126082
0.00124557
5.96337e-05
1.36216e-05
1.28578e-05
1.56119e-05
2.04004e-05
2.90801e-05
6.31294e-05
0.000112503
0.00014468
0.000145686
0.000152561
0.00021378
0.00116169
0.000925226
0.000790321
0.000782244
0.000853525
0.000893993
0.00093353
0.00108955
0.00130332
0.00126082
0.0012224
1.29861e-05
1.22412e-05
1.26485e-05
1.2663e-05
1.47546e-05
1.97932e-05
0.000207569
0.000663139
0.000682296
0.000201133
0.00016627
0.000252759
0.00102358
0.000839457
0.0006835
0.000671691
0.000839034
0.00160922
0.00135232
0.00138598
0.00233926
0.00126082
0.000813783
1.12761e-05
1.19729e-05
1.23039e-05
1.27926e-05
1.28884e-05
1.36902e-05
0.000200266
0.000697005
0.000741988
0.000725825
0.000193665
0.000626709
0.00128904
0.00124359
0.000667672
0.000658881
0.000953894
0.00368488
0.00369044
0.00172266
0.00232772
0.00115152
0.000139131
1.19063e-05
1.25523e-05
1.25937e-05
1.24778e-05
1.24895e-05
1.2016e-05
1.24162e-05
0.000197932
0.000791822
0.000839524
0.000524412
0.000845409
0.00115956
0.00151187
0.000662165
0.000662165
0.00174289
0.00369352
0.00367675
0.00220884
0.00203016
0.000359879
1.46686e-05
1.25855e-05
1.25855e-05
1.24267e-05
2.27238e-05
1.52695e-05
1.18766e-05
1.18987e-05
1.51725e-05
0.000347244
0.000880859
0.000880859
0.000845887
0.00102385
0.00403939
0.00202795
0.000660019
0.00071807
0.00278697
0.00288492
0.00206831
0.00259549
4.12377e-05
1.92867e-05
1.25554e-05
1.25855e-05
1.7081e-05
2.47147e-05
2.44994e-05
1.19185e-05
1.1703e-05
1.15846e-05
4.66605e-05
0.000544739
0.000729233
0.000194321
0.00035452
0.00414373
0.00425991
0.001343
0.000780796
0.000801796
0.00318887
0.00359064
0.0032314
2.63105e-05
1.52875e-05
1.2074e-05
1.25183e-05
2.2586e-05
2.48724e-05
2.48387e-05
1.50343e-05
1.11787e-05
1.05448e-05
5.20657e-05
0.000108439
7.23647e-05
0.000116062
0.000162882
0.000790994
0.00432168
0.00269339
0.000801796
0.000803461
0.00369344
0.00448162
0.00240897
2.69514e-05
1.29285e-05
1.17496e-05
1.23419e-05
1.28084e-05
2.47674e-05
2.48624e-05
1.39295e-05
1.05402e-05
1.0154e-05
2.73758e-05
1.44917e-05
1.892e-05
8.42961e-05
0.000249029
0.000303937
0.00357376
0.00525986
0.0019906
0.00301042
0.00547377
0.00426128
0.000590831
7.40643e-05
3.28977e-05
1.14492e-05
1.17293e-05
1.21666e-05
1.40386e-05
1.48075e-05
1.16377e-05
1.03031e-05
1.02052e-05
1.02304e-05
1.06098e-05
3.48636e-05
0.000462288
0.0011899
0.00126202
0.00180755
0.00537567
0.00546719
0.00549624
0.0054822
0.00170993
3.49882e-05
7.74101e-05
7.73115e-05
1.16364e-05
1.16901e-05
1.10932e-05
1.0435e-05
1.13709e-05
1.04305e-05
1.02904e-05
1.03117e-05
9.99439e-06
1.04155e-05
0.000838
0.00126486
0.00126486
0.000737612
0.000981062
0.00206854
0.00550056
0.0055113
0.0054986
3.58918e-05
2.35873e-05
4.42631e-05
9.21753e-05
1.1964e-05
1.1258e-05
1.13851e-05
1.08086e-05
1.10534e-05
1.09214e-05
1.03167e-05
9.99439e-06
9.77465e-06
0.000329365
0.00130941
0.00128321
0.00126574
0.000353934
2.95246e-05
0.0019018
0.00550473
0.00550055
0.00160344
2.71878e-05
2.48689e-05
4.33136e-05
0.000136131
0.000174576
0.00018981
0.000154789
6.19289e-05
1.07765e-05
1.13756e-05
1.10523e-05
1.05578e-05
0.000228459
0.0013815
0.00133734
0.00092349
1.42917e-05
1.6622e-06
1.57286e-05
0.00182524
0.00550325
0.00550403
0.000256142
2.49155e-05
2.41939e-05
4.28253e-05
0.00043583
0.00043583
0.00043583
0.000428488
0.000160625
1.4897e-05
1.25289e-05
1.22271e-05
0.000752052
0.00145893
0.00136997
0.000448378
1.63866e-07
1.49634e-07
3.09117e-07
1.34321e-05
0.000331408
0.00310657
0.00538105
0.0024808
2.40067e-05
2.32998e-05
4.20102e-05
6.15387e-05
0.000408146
0.000227276
9.93942e-05
6.00353e-05
2.94106e-05
0.000451441
0.00175564
0.00178043
0.0014985
5.69967e-05
2.78105e-08
8.15417e-08
1.4512e-07
1.93296e-07
9.98135e-06
1.03044e-06
0.000226712
0.00360608
0.0031733
0.000419949
2.2809e-05
4.20102e-05
5.65407e-05
7.00155e-05
7.3904e-05
0.00031396
0.00110221
0.00160392
0.00161556
0.00132033
0.000118937
1.00452e-07
2.82202e-08
8.64914e-09
1.10504e-07
7.01915e-08
3.812e-08
3.32377e-07
8.39801e-08
2.36386e-07
7.40424e-05
0.000374981
0.000479972
0.000284089
0.000208767
6.31038e-05
7.00937e-05
0.000606095
0.00184402
0.00184402
0.00142321
0.000364578
0.000178548
0.00012951
0.000117585
8.70548e-09
8.70539e-09
8.66525e-09
9.64474e-09
1.29038e-08
1.4048e-08
1.84004e-08
2.31004e-08
2.27127e-07
8.2162e-07
2.95044e-05
5.5005e-05
0.00288695
0.000358867
8.61857e-05
0.00126224
0.0018378
0.000909656
0.000187154
0.000194997
0.000230059
0.000232152
0.000148157
4.67062e-08
8.70538e-09
9.34207e-09
9.70196e-09
1.60227e-08
1.92258e-08
2.09532e-08
1.45078e-08
1.36352e-08
3.77241e-08
6.13817e-08
5.50969e-08
0.00312152
0.00153507
0.000105677
0.000809259
0.00143077
6.57792e-05
0.000128726
0.000218227
0.000217425
1.08657e-05
5.05684e-06
3.69555e-06
3.45886e-06
6.09662e-08
3.2544e-08
4.55278e-08
2.07067e-07
3.17611e-08
1.43548e-08
1.24313e-08
1.10002e-08
1.13215e-08
1.0662e-08
0.00312152
0.00120097
0.000131678
0.000812215
0.0011004
4.94055e-05
0.00012515
0.000223426
3.47439e-05
1.65009e-05
3.36347e-05
7.56924e-05
6.52841e-05
3.00428e-05
1.84783e-05
1.28938e-05
2.11008e-06
2.5864e-08
1.25661e-08
1.15108e-08
1.10875e-08
1.06607e-08
1.06606e-08
0.00311386
0.000468916
0.000155938
0.000989309
0.000643032
3.98481e-05
0.00011578
0.000157684
1.39961e-05
4.58105e-05
7.59986e-05
7.61031e-05
7.56924e-05
7.45702e-05
4.59897e-05
2.57543e-05
3.53006e-07
4.81541e-08
2.67189e-08
3.13386e-07
7.65642e-07
1.24504e-06
1.12366e-06
0.0023793
0.000919544
0.000159238
0.000994768
0.000347313
2.76167e-05
3.22429e-05
1.69947e-05
1.12755e-05
7.13666e-05
7.51881e-05
7.58347e-05
7.464e-05
1.62097e-05
4.09325e-06
6.8696e-06
1.40358e-06
9.74872e-08
4.89814e-08
8.91051e-08
8.16914e-06
1.47002e-05
6.56426e-06
0.00267258
0.00202207
0.000188356
0.000997425
0.00041952
1.36508e-05
5.54362e-06
2.5368e-06
2.31144e-06
6.3099e-06
1.77264e-06
5.3507e-06
3.56627e-05
2.99636e-06
3.70539e-06
3.88935e-06
1.07811e-05
3.90858e-06
8.91063e-08
5.68241e-07
1.38931e-05
1.48323e-05
1.16412e-05
0.00304864
0.00302978
0.00021297
0.000994768
0.000552763
0.000112336
5.94188e-05
1.96578e-06
1.80852e-06
1.77264e-06
1.77264e-06
1.77264e-06
1.78026e-06
2.09087e-06
3.92599e-06
1.31031e-05
1.38629e-05
9.95368e-06
4.53535e-07
7.13003e-07
1.31901e-05
1.48919e-05
9.62795e-06
0.00304864
0.00194005
0.00040512
0.000452118
0.000315059
0.000208376
0.000187943
0.000134202
1.27331e-05
2.65002e-06
1.81021e-06
1.78027e-06
1.94027e-06
3.85077e-06
6.75982e-06
1.38629e-05
1.38629e-05
7.75083e-06
8.1078e-07
9.083e-07
1.41255e-05
1.48888e-05
5.18648e-06
0.0030395
0.000728443
0.000902136
0.000970213
0.00011347
4.42933e-05
0.000185281
0.000187483
0.000171772
1.95026e-05
1.98337e-06
2.05172e-06
1.94084e-05
1.60009e-05
4.62082e-06
1.38424e-05
1.38629e-05
2.43199e-06
9.2746e-07
6.3777e-06
1.50631e-05
1.29089e-05
7.51126e-07
0.0030008
0.000659271
0.00100269
0.00101421
0.000132984
1.58961e-05
0.000182523
0.000186744
0.000143254
7.56039e-06
1.82213e-06
1.3517e-05
2.37456e-05
1.92933e-05
8.6209e-07
1.38219e-05
1.2831e-05
3.36228e-06
8.97339e-06
1.49033e-05
1.50249e-05
1.17543e-06
8.10443e-11
0.00298562
0.000638512
0.000543803
0.00101426
0.000151706
9.18072e-06
3.13717e-05
5.3113e-05
2.04075e-05
1.83583e-06
1.64595e-06
1.63704e-05
2.37456e-05
8.5083e-06
4.72764e-07
1.37233e-05
1.35546e-05
1.38375e-05
1.45783e-05
1.47308e-05
5.45296e-06
9.87306e-12
1.14476e-11
0.00282662
0.00140065
0.000461798
0.000427457
0.000132303
6.06412e-06
4.467e-06
2.78191e-06
1.84104e-06
1.64677e-06
1.64676e-06
1.58165e-05
2.37456e-05
3.2165e-06
1.12925e-07
6.26962e-06
1.32812e-05
1.14414e-05
8.56126e-06
2.30488e-06
7.98288e-12
9.59333e-12
1.45938e-11
0.000455515
0.00266591
0.00269965
0.00046983
1.85656e-05
5.43588e-06
5.52003e-06
0.000169069
0.000130448
4.54087e-05
6.71086e-06
2.39512e-05
1.13183e-05
1.36461e-08
2.57463e-09
8.16142e-11
4.88472e-06
2.54444e-07
8.23159e-12
7.62423e-12
7.57392e-12
1.06663e-11
1.3719e-11
4.4089e-05
0.00159929
0.00270952
0.00133009
6.41514e-06
5.92077e-06
0.000505125
0.00265118
0.00175462
7.52961e-05
1.73978e-05
2.12134e-05
1.00763e-06
2.56684e-09
8.28508e-11
4.22794e-11
2.43441e-11
2.43439e-11
3.72794e-11
3.74916e-11
7.57268e-12
9.75326e-12
1.06994e-11
3.39955e-05
9.82108e-08
0.00220262
0.00217396
6.71503e-06
6.41539e-06
0.00234854
0.00265908
0.00204667
0.000102229
3.82273e-05
5.92474e-06
1.71458e-08
7.33996e-10
1.0591e-10
3.79342e-10
3.99589e-10
3.40133e-11
9.02789e-11
8.95778e-11
5.90208e-12
7.21841e-12
6.72478e-12
9.37996e-08
9.41595e-08
4.33648e-05
0.00169554
0.00129791
0.00214878
0.00269222
0.00267677
0.00121361
6.38846e-05
2.64591e-05
4.14784e-08
1.90782e-09
8.83192e-11
2.9354e-11
1.19465e-09
3.21339e-09
3.45346e-11
1.1308e-10
1.30911e-10
3.66192e-12
4.19651e-12
3.09848e-12
9.41602e-08
9.82112e-08
2.27289e-07
0.000590332
0.00267129
0.00269242
0.00268758
0.00220643
0.00033032
0.000102318
1.29182e-05
1.25146e-08
4.46745e-10
1.531e-11
4.39821e-12
1.47877e-09
4.83422e-09
8.62601e-11
7.40464e-11
9.55989e-11
1.89594e-12
1.87333e-12
1.07801e-12
1.88925e-07
5.77559e-06
3.14462e-06
3.72127e-06
0.00227688
0.002672
0.00261329
0.000496591
9.78896e-05
6.44556e-05
1.68802e-06
8.86317e-10
6.73236e-12
4.22598e-12
2.11801e-12
7.48657e-10
4.75094e-09
9.19106e-11
1.41373e-11
3.63279e-11
7.6991e-13
5.1953e-13
1.79566e-13
7.52851e-07
1.23114e-05
3.73017e-06
3.72218e-06
0.000423453
0.00175043
0.000419208
1.31767e-06
2.55026e-05
8.79084e-06
1.7632e-08
1.22405e-12
1.47062e-12
2.61957e-12
5.08041e-13
6.28504e-11
1.85023e-09
2.92262e-11
4.04433e-13
4.34569e-13
2.23383e-13
5.91657e-14
1.57926e-14
7.56653e-07
1.02254e-05
3.81978e-06
3.81781e-06
4.60901e-06
3.39777e-05
1.31767e-06
4.26418e-07
1.13391e-12
2.2866e-10
1.06694e-12
3.14032e-13
3.51614e-15
7.60046e-18
3.12792e-14
2.02162e-14
5.45536e-18
5.56981e-15
1.17089e-13
1.47133e-13
1.74151e-14
1.58587e-15
9.24686e-16
0.96444
0.96444
0.982787
0.993572
0.982048
0.982816
0.988
0.993339
0.855815
0.841293
0.867461
0.871864
0.393429
0.180528
0.177712
0.185254
0.17778
0.0645845
0.000488944
0.000488944
0.00134018
0.00111197
0.000585033
0.000538404
0.00180988
0.00157716
0.000879945
0.000598623
0.00143197
0.0010525
0.000966155
0.000947877
0.00115603
0.00108071
0.0010606
0.00127366
0.0011779
0.00113263
0.00108028
0.00216527
0.00285684
0.00274324
0.00266114
0.00239306
0.00309392
0.00276433
0.00202708
0.00109133
0.00162413
0.000775208
0.000193255
3.21676e-05
6.0335e-05
2.94876e-05
2.96384e-05
2.7699e-05
2.5395e-05
2.71669e-05
2.71623e-05
2.56507e-05
2.51097e-05
2.69951e-05
2.88285e-05
2.80158e-05
2.33656e-05
2.4273e-05
2.98249e-05
0.000120508
2.41936e-05
2.41808e-05
4.06879e-05
0.000143597
2.41679e-05
2.29735e-05
2.8016e-05
6.10468e-05
2.3792e-05
2.61429e-05
2.00953e-05
9.77821e-06
0.000113168
2.8752e-05
1.04762e-05
3.28357e-06
6.90064e-05
4.92704e-05
1.90731e-05
9.95696e-08
2.65303e-07
1.01658e-06
6.15591e-07
6.7337e-08
1.23517e-08
6.98232e-09
3.03626e-09
2.23611e-09
1.31581e-08
1.01369e-08
8.92227e-09
3.79928e-09
4.53074e-07
2.1943e-08
1.50957e-08
2.98973e-09
2.53508e-07
3.49737e-08
6.77753e-09
1.17872e-09
1.87835e-06
4.71533e-08
6.85014e-09
6.62567e-10
6.78124e-07
1.58355e-08
2.02876e-09
1.84577e-10
2.52261e-08
1.78961e-09
1.4146e-10
6.39296e-11
4.3569e-10
3.15119e-11
2.91476e-11
5.32984e-11
1.3532e-11
1.49327e-11
2.55667e-11
4.26824e-11
1.18384e-11
1.19346e-11
1.54152e-11
2.97172e-11
1.09946e-11
8.34499e-12
9.09956e-12
1.65348e-11
8.3122e-12
5.51374e-12
4.8396e-12
8.214e-12
5.67356e-12
3.14764e-12
2.16594e-12
3.76946e-12
3.27226e-12
1.5413e-12
7.08427e-13
6.11864e-13
1.42943e-12
6.02038e-13
2.27814e-13
1.42689e-13
4.00833e-13
1.5392e-13
5.51532e-14
3.72527e-14
5.85129e-14
2.11811e-14
7.31549e-15
5.29345e-15
5.68309e-15
2.22935e-15
6.98273e-16
3.59293e-16
4.96989e-16
1.9307e-16
4.16974e-17
5.96835e-18
0.993809
0.96422
0.879878
0.845262
0.962427
0.926398
0.997375
0.997847
0.989712
0.941167
0.857371
0.802893
0.780561
0.761852
0.709064
0.585454
0.447562
0.39617
0.497234
0.930601
0.806215
0.806199
0.806215
0.863183
0.996852
0.997362
0.993666
0.681256
0.307492
0.139488
0.075103
0.0501195
0.0324597
0.0142106
0.00047705
0.00047572
0.000476813
0.000479047
0.870253
0.893035
0.920315
0.923821
0.955619
0.992682
0.814148
0.39438
0.156672
0.0361105
0.00121233
0.000711522
0.000690167
0.00059895
0.000496057
0.00047572
0.000469982
0.00047572
0.000476813
0.173535
0.24917
0.398449
0.481889
0.408455
0.194199
0.0427152
0.00102388
0.00102228
0.000951999
0.000837788
0.000761471
0.00196001
0.00160781
0.00200103
0.00181848
0.000483214
0.000470971
0.000479089
0.000506562
0.000395143
0.000291204
0.000266222
0.000200565
0.00026633
0.000318275
0.00138027
0.00245174
0.00247688
0.00151916
0.000807806
0.00197588
0.00288004
0.00296585
0.00295519
0.00224313
0.000476414
0.000477607
0.000538404
0.00176521
0.00151815
0.000442116
0.000141331
0.000817173
0.00188331
0.00191289
0.00193828
0.00144755
0.00120805
0.000894514
0.000487456
0.000554036
0.000813444
0.00278463
0.00301604
0.00182354
0.000485365
0.00134258
0.00236463
0.00236995
0.00179048
6.28088e-05
6.25146e-05
6.25519e-05
6.62393e-05
6.46128e-05
6.53265e-05
6.79602e-05
0.000209941
0.00048148
0.000692042
0.000436617
0.000395428
0.002821
0.00287406
0.00102415
0.00223386
0.00236995
0.00235895
0.000722477
6.25148e-05
6.25147e-05
6.25148e-05
6.25519e-05
6.32034e-05
6.46082e-05
6.64889e-05
7.05857e-05
0.000609294
0.00108208
0.000917802
0.000393567
0.000654502
0.00287406
0.000963529
0.00233893
0.00235895
0.00103068
6.30299e-05
6.28091e-05
6.25142e-05
7.91827e-05
0.000108609
9.64864e-05
8.46906e-05
7.1048e-05
7.04399e-05
0.000238042
0.00112313
0.0011397
0.000379059
0.000364149
0.00058876
0.000402152
0.0023307
0.00139985
7.45468e-05
7.27118e-05
7.26433e-05
0.000207776
0.000210349
0.000210804
0.000210874
0.000208272
0.000182802
4.18844e-05
3.14307e-05
0.000288859
0.00118958
0.000956374
0.000366
0.00036369
0.000365165
0.00213052
4.25182e-05
6.30931e-05
0.000125998
0.000208318
0.000209489
0.000210867
0.000210033
0.000204934
6.8217e-05
1.88893e-05
2.40158e-05
8.69296e-06
0.000105906
0.00119819
0.00127178
0.000363554
0.000363238
0.000365248
0.000342771
2.98046e-05
5.89217e-05
0.000202237
0.000205207
0.000205728
0.000184499
0.000153685
4.8212e-05
3.15928e-06
2.76124e-06
2.4869e-06
3.79699e-06
6.43891e-06
0.000698408
0.00128819
0.000504386
0.000363267
0.00055139
2.97992e-05
2.50153e-05
3.18534e-05
8.53903e-05
6.999e-05
3.46777e-05
2.58229e-05
1.54702e-05
7.41374e-06
3.38627e-06
2.4869e-06
2.12365e-06
1.9386e-06
1.67958e-05
0.00109739
0.00128843
0.00128819
0.000363999
0.00115069
2.53896e-05
2.4559e-05
2.54179e-05
2.72067e-05
2.98248e-05
3.6358e-05
7.26708e-05
9.99871e-05
5.12301e-05
1.66881e-05
1.04592e-05
1.69785e-06
1.39319e-06
1.34215e-06
0.000569521
0.00128819
0.00128843
0.000997994
0.00125888
2.45646e-05
2.48965e-05
2.47905e-05
9.06729e-05
0.000246154
0.000424064
0.000654046
0.000696262
0.000572023
0.000239019
1.5098e-05
1.94383e-06
1.34204e-06
1.17606e-06
9.15844e-07
0.00124775
0.00118448
0.00124845
0.00125888
2.52702e-05
0.000105815
0.000403104
0.000705324
0.000707591
0.000707216
0.000705247
0.00070089
0.000696514
0.000473716
2.23384e-05
1.92952e-06
1.01417e-06
7.77097e-07
7.65411e-07
0.000400056
0.00108377
0.000768263
0.00125888
0.000406761
0.000644128
0.000674439
0.000702794
0.000705335
0.000705336
0.000696326
0.000666313
0.000510728
0.000113756
4.44668e-07
4.64008e-07
4.42833e-07
5.31401e-07
7.4613e-07
3.68465e-05
0.00106972
0.000807995
0.00125092
0.000247937
0.000132956
0.00012263
0.000255771
0.000350603
0.000220197
2.25757e-05
4.74889e-07
3.41818e-07
3.68666e-07
3.82911e-07
3.89085e-07
3.93934e-07
5.06222e-07
5.64602e-07
6.47112e-07
0.00100086
0.000813282
0.000562463
2.20396e-05
2.44648e-06
1.5985e-06
1.24271e-06
9.37027e-07
6.67709e-07
4.83868e-07
4.16983e-07
3.93733e-07
3.86705e-07
3.93155e-07
3.9154e-07
3.92762e-07
1.55456e-06
6.09409e-07
7.78623e-07
0.00110579
0.000486602
0.000364519
1.09988e-05
1.32296e-06
1.26641e-06
1.57755e-06
1.22912e-06
9.26331e-07
6.31034e-07
4.30847e-07
4.18091e-07
3.96459e-07
3.9344e-07
3.93156e-07
5.77175e-07
2.58899e-06
5.39591e-07
7.6307e-07
0.00119562
0.000664835
0.000364519
1.09041e-06
2.80096e-07
8.86371e-07
1.17296e-06
1.81634e-06
1.65108e-06
1.9813e-06
9.9766e-07
4.68153e-07
4.27699e-07
4.03096e-07
3.98307e-07
5.00204e-07
5.15788e-07
5.28582e-07
0.000279649
0.00133681
0.00137672
0.000365912
1.25236e-08
4.81733e-08
2.79642e-07
4.14549e-06
3.0069e-05
2.12609e-05
6.89661e-06
1.3004e-06
7.74896e-07
5.68534e-07
4.77225e-07
4.86105e-07
5.01273e-07
5.20039e-07
5.29758e-07
0.00071293
0.00137825
0.00138592
0.000425396
1.67361e-09
2.23746e-08
4.77301e-08
0.000143151
0.00025883
8.44934e-05
8.22349e-06
6.16169e-06
3.08521e-05
4.62573e-05
3.09324e-05
9.75475e-06
3.48068e-05
8.86009e-06
5.29758e-07
0.000924511
0.00139915
0.00137901
0.000342773
2.08017e-09
2.13144e-09
0.000131416
0.000258881
0.00025883
0.000161862
8.85932e-05
0.00011536
0.000120457
0.000129519
0.000169728
0.00019721
0.000268122
0.000163735
6.27964e-05
0.00139073
0.00139915
0.000879215
0.000187072
1.71396e-09
1.94579e-09
0.000252291
0.000256731
0.00025883
0.000254747
0.00022713
0.000142093
6.50419e-08
0.000243442
0.000264879
0.000268291
0.000267634
9.02703e-05
8.63853e-05
0.00128597
0.00139915
0.000195544
0.000187072
1.1765e-09
8.64794e-06
0.000150897
0.000252539
0.000167379
8.91236e-05
3.44643e-05
1.06969e-08
1.16109e-08
0.000259748
0.000263852
0.000110413
7.00591e-05
6.98521e-05
7.07093e-05
0.000612256
0.00138824
0.000222276
0.000211348
6.60221e-10
8.65128e-07
2.47359e-08
1.53915e-05
2.26888e-09
1.35433e-09
8.82149e-10
5.11258e-09
7.83336e-07
0.000255327
0.000164746
8.13503e-05
8.22371e-05
0.000235488
0.000240109
0.000330637
0.00134456
0.000363712
0.000212716
2.04396e-10
6.59972e-10
4.59135e-09
2.47359e-08
4.18461e-08
9.75547e-09
4.65894e-10
8.82864e-10
3.93634e-06
0.000121795
0.000223671
0.000110862
0.00057895
0.000769752
0.000582321
0.000250353
0.000720933
0.00069535
0.000151597
9.91163e-11
7.67733e-08
6.80229e-07
5.63716e-07
3.07703e-07
7.00226e-08
4.65431e-10
2.32786e-10
9.46826e-09
3.69426e-05
0.000237084
0.000263843
0.000769752
0.000771779
0.000769752
0.00024046
0.000106374
0.000668066
0.000149271
8.36963e-11
2.45827e-07
9.81269e-07
9.83768e-07
1.31284e-07
1.02163e-07
3.76517e-10
5.3077e-11
-5.89652e-10
4.20311e-05
0.000266858
0.000207711
0.000667056
0.00077235
0.000771779
0.000536907
6.31746e-05
0.00058114
0.000149271
9.49295e-11
6.44186e-11
6.76892e-11
7.96754e-09
8.16396e-08
6.01608e-08
2.93825e-10
9.48944e-11
2.5496e-11
2.39512e-11
9.79382e-05
0.000138631
0.000242851
0.000773973
0.000768014
0.000755394
5.89252e-05
9.22622e-05
0.00029497
1.08714e-10
6.22198e-11
6.48695e-11
4.87577e-08
9.36829e-08
1.04973e-08
1.02716e-10
1.01415e-10
1.03046e-10
9.2771e-11
1.42371e-10
3.58583e-05
7.96942e-05
0.000467434
0.000411058
0.000686643
5.89515e-05
5.9191e-05
0.000301023
4.65458e-11
4.6986e-11
4.36068e-09
6.47708e-08
6.27546e-08
1.65805e-10
1.10476e-10
1.18596e-10
1.5693e-10
3.65279e-10
3.1869e-10
2.8054e-09
4.48874e-05
1.36334e-05
5.6611e-06
0.000330608
6.3343e-05
0.000100022
0.000301023
2.73855e-11
1.26264e-10
6.31429e-09
9.53535e-09
4.232e-10
4.86394e-10
1.65208e-10
1.25503e-10
3.0788e-10
4.36696e-09
3.28496e-08
5.532e-08
1.40924e-07
1.68574e-06
4.33893e-06
0.000429693
0.000443041
3.41055e-05
0.000301023
1.52803e-11
2.8912e-10
1.74361e-09
5.49431e-11
4.45058e-10
1.06018e-09
2.36434e-10
1.62963e-10
1.98227e-10
3.93416e-09
2.9066e-07
1.03147e-06
9.6305e-07
1.45394e-05
0.000385144
0.000525939
0.000525939
6.08565e-06
3.50295e-05
1.09786e-11
4.54407e-11
2.97175e-12
5.43036e-11
7.71162e-10
1.06583e-09
2.62726e-10
2.15134e-10
3.45903e-10
3.61917e-09
6.0632e-08
7.7208e-07
0.000127687
0.000521255
0.000523476
0.000525939
0.000281229
3.79066e-07
1.10453e-08
9.45756e-13
1.91644e-12
2.95108e-12
2.40334e-11
2.82164e-10
6.90773e-10
1.83575e-10
1.34146e-10
3.76561e-10
6.12297e-09
1.07175e-07
1.34235e-06
0.000169937
0.000510031
0.000521014
0.000275007
3.69247e-07
1.22312e-08
1.11569e-08
2.08178e-13
5.85812e-13
1.47657e-12
4.47296e-12
1.15536e-11
3.51653e-11
6.26856e-11
1.98215e-11
8.79105e-11
1.99561e-09
3.09396e-08
3.75143e-06
4.53193e-05
0.000109456
0.000131103
4.67173e-06
2.70761e-08
1.10221e-08
1.11704e-08
6.54376e-14
2.29738e-13
6.47017e-13
1.36464e-12
2.21688e-12
3.21191e-12
6.15386e-12
9.17805e-12
1.62419e-11
9.58922e-11
1.43656e-08
2.69282e-07
2.33906e-07
6.00158e-07
9.98657e-07
3.34868e-07
1.76139e-08
2.06296e-08
1.25842e-08
1.18538e-14
5.61712e-14
2.10801e-13
5.86991e-13
1.24144e-12
2.11779e-12
3.38197e-12
6.84353e-12
1.12495e-11
1.66074e-11
1.54718e-10
1.49851e-09
1.30718e-08
5.80919e-08
1.0302e-07
4.5326e-08
5.86542e-08
8.60022e-08
1.71891e-08
9.6464e-16
6.54938e-15
3.33247e-14
1.21946e-13
3.34153e-13
7.40349e-13
1.38705e-12
2.68855e-12
7.4575e-12
1.45271e-11
2.23854e-11
1.12913e-10
1.03043e-09
5.59379e-09
1.52614e-08
1.74969e-08
5.21407e-08
8.60019e-08
1.23704e-08
8.10551e-18
1.2786e-16
1.34667e-15
8.44526e-15
3.25948e-14
9.25674e-14
2.19346e-13
6.86661e-13
1.81612e-12
8.13912e-12
1.72207e-11
2.74774e-11
1.76376e-10
1.37844e-09
7.03283e-09
1.49058e-08
1.74959e-08
2.38179e-08
1.78313e-09
)
;

boundaryField
{
    leftWall
    {
        type            zeroGradient;
    }
    rightWall
    {
        type            zeroGradient;
    }
    lowerWall
    {
        type            zeroGradient;
    }
    atmosphere
    {
        type            inletOutlet;
        inletValue      uniform 0;
        value           nonuniform List<scalar> 
46
(
0
0
3.81978e-06
3.81781e-06
4.60901e-06
3.39777e-05
1.31767e-06
4.26418e-07
0
2.2866e-10
0
0
0
0
0
0
0
0
0
0
0
0
0
0
0
0
0
0
0
0
0
0
0
0
0
1.81612e-12
8.13912e-12
1.72207e-11
2.74774e-11
1.76376e-10
1.37844e-09
7.03283e-09
1.49058e-08
1.74959e-08
2.38179e-08
0
)
;
    }
    defaultFaces
    {
        type            empty;
    }
}


// ************************************************************************* //
