/*--------------------------------*- C++ -*----------------------------------*\
| =========                 |                                                 |
| \\      /  F ield         | OpenFOAM: The Open Source CFD Toolbox           |
|  \\    /   O peration     | Version:  2.3.0                                 |
|   \\  /    A nd           | Web:      www.OpenFOAM.org                      |
|    \\/     M anipulation  |                                                 |
\*---------------------------------------------------------------------------*/
FoamFile
{
    version     2.0;
    format      ascii;
    class       surfaceScalarField;
    location    "2.25";
    object      phi;
}
// * * * * * * * * * * * * * * * * * * * * * * * * * * * * * * * * * * * * * //

dimensions      [0 3 -1 0 0 0 0];

internalField   nonuniform List<scalar> 
4432
(
2.32141e-06
-2.32141e-06
3.22906e-07
1.99852e-06
3.15326e-06
-2.83036e-06
5.55845e-06
-2.40519e-06
-2.5897e-07
5.81742e-06
-5.96067e-06
5.70169e-06
-8.62949e-06
2.66881e-06
-1.22974e-05
3.66795e-06
-1.60673e-05
3.76984e-06
-1.96624e-05
3.59508e-06
-2.12156e-05
1.55327e-06
-1.99097e-05
-1.30591e-06
-1.65625e-05
-3.34722e-06
-1.30782e-05
-3.48433e-06
-1.20514e-05
-1.02677e-06
-1.39939e-05
1.94248e-06
-1.61417e-05
2.14782e-06
-1.5507e-05
-6.34703e-07
-1.34747e-05
-2.03231e-06
-1.28451e-05
-6.29597e-07
-1.16262e-05
-1.21888e-06
-6.79998e-06
-4.82623e-06
-6.79999e-06
-3.21742e-06
8.96005e-07
-4.47923e-06
3.26035e-06
-7.28846e-07
-6.58075e-06
3.70402e-06
-6.83809e-06
7.73371e-07
8.74807e-06
-6.57329e-06
1.30483e-05
-1.09659e-05
7.06141e-06
-1.50866e-05
7.7887e-06
-1.91827e-05
7.86597e-06
-2.17387e-05
6.15105e-06
-2.15578e-05
1.37243e-06
-1.96126e-05
-3.25118e-06
-1.69274e-05
-6.0324e-06
-1.46902e-05
-5.7215e-06
-1.44255e-05
-1.29147e-06
-1.5616e-05
3.133e-06
-1.54561e-05
1.98784e-06
-1.38003e-05
-2.29044e-06
-1.24536e-05
-3.37902e-06
-1.24986e-05
-5.84648e-07
-1.08135e-05
-2.90396e-06
-5.50853e-06
-1.01312e-05
-1.23085e-05
-6.2385e-06
7.13451e-06
-7.92475e-06
4.9466e-06
-5.10385e-06
-9.40165e-06
2.03451e-07
-1.21454e-05
5.72592e-07
8.37893e-06
-5.94776e-06
1.95687e-05
-1.00736e-05
1.11873e-05
-1.39103e-05
1.16254e-05
-1.76955e-05
1.16512e-05
-1.95119e-05
7.96748e-06
-1.84365e-05
2.97052e-07
-1.60434e-05
-5.6443e-06
-1.38927e-05
-8.18311e-06
-1.25614e-05
-7.05275e-06
-1.17421e-05
-2.11074e-06
-1.14072e-05
2.79815e-06
-1.04998e-05
1.08039e-06
-9.50001e-06
-3.29021e-06
-9.44957e-06
-3.42945e-06
-9.69465e-06
-3.3956e-07
-6.56906e-06
-6.02953e-06
-1.43436e-06
-1.52659e-05
-1.37429e-05
-7.67268e-06
1.48072e-05
-1.1408e-05
8.68189e-06
-1.00634e-05
-1.07462e-05
-3.12434e-06
-1.90845e-05
-5.77894e-08
5.31238e-06
-5.38334e-06
2.48942e-05
-8.92703e-06
1.4731e-05
-1.25713e-05
1.52696e-05
-1.59775e-05
1.50573e-05
-1.70535e-05
9.04352e-06
-1.47041e-05
-2.05236e-06
-1.1315e-05
-9.03337e-06
-8.96936e-06
-1.05287e-05
-8.19995e-06
-7.82216e-06
-7.78475e-06
-2.52593e-06
-6.58158e-06
1.59499e-06
-5.21618e-06
-2.84999e-07
-4.84585e-06
-3.66052e-06
-5.60232e-06
-2.67297e-06
-5.70572e-06
-2.36144e-07
-8.54034e-07
-1.08812e-05
3.07003e-06
-1.91899e-05
-1.06728e-05
-6.60683e-06
2.1414e-05
-1.01836e-05
1.22587e-05
-1.05915e-05
-1.03383e-05
-6.04386e-06
-2.36322e-05
-1.35632e-06
6.24842e-07
-3.9327e-06
2.74706e-05
-7.48461e-06
1.82829e-05
-1.11882e-05
1.89732e-05
-1.42703e-05
1.81395e-05
-1.44973e-05
9.27051e-06
-1.0728e-05
-5.82164e-06
-6.6467e-06
-1.31147e-05
-4.40451e-06
-1.27709e-05
-3.5271e-06
-8.69958e-06
-3.81091e-06
-2.24212e-06
-3.42407e-06
1.20813e-06
-2.04662e-06
-1.66244e-06
-1.82028e-06
-3.88686e-06
-2.77118e-06
-1.72208e-06
-1.28056e-06
-1.72677e-06
4.40017e-06
-1.6562e-05
5.68798e-06
-2.04778e-05
-4.98487e-06
-3.58697e-06
2.5001e-05
-4.37707e-06
1.30487e-05
-5.22149e-06
-9.49386e-06
-7.10732e-06
-2.17464e-05
-2.47066e-06
-4.01181e-06
-7.83982e-07
2.57839e-05
-4.30105e-06
2.17999e-05
-7.37226e-06
2.20444e-05
-9.59981e-06
2.0367e-05
-8.41535e-06
8.08604e-06
-4.29845e-06
-9.93854e-06
-1.74969e-06
-1.56635e-05
-1.1666e-06
-1.3354e-05
-7.60808e-07
-9.10538e-06
-1.03326e-06
-1.96969e-06
-1.47244e-06
1.64731e-06
-1.30429e-06
-1.83059e-06
-1.50827e-06
-3.6829e-06
-1.9641e-06
-1.26626e-06
2.43139e-06
-6.12227e-06
7.42882e-06
-2.15594e-05
5.39687e-06
-1.84458e-05
4.12e-07
1.51292e-07
2.48497e-05
3.20697e-06
9.99305e-06
4.30093e-06
-1.05878e-05
-2.85887e-07
-1.71596e-05
-3.43718e-07
-3.95397e-06
3.29208e-06
2.21481e-05
8.57479e-07
2.42345e-05
-1.21806e-06
2.41199e-05
-1.99743e-06
2.11464e-05
8.28521e-07
5.26008e-06
3.08038e-06
-1.21904e-05
1.76551e-06
-1.43486e-05
-6.15602e-07
-1.09729e-05
-7.922e-07
-8.92878e-06
-5.7923e-07
-2.18267e-06
-1.24469e-06
2.31276e-06
-2.53304e-06
-5.42223e-07
-4.05424e-06
-2.16169e-06
-3.56108e-06
-1.75942e-06
2.30167e-06
-1.1985e-05
3.88305e-06
-2.31408e-05
1.32326e-06
-1.5886e-05
1.73528e-06
5.95491e-06
1.88948e-05
1.0824e-05
5.12394e-06
1.3045e-05
-1.28088e-05
8.83104e-06
-1.29456e-05
6.16154e-06
-1.28448e-06
7.36022e-06
2.09495e-05
7.81852e-06
2.37762e-05
7.74905e-06
2.41894e-05
7.06073e-06
2.18347e-05
8.22298e-06
4.09782e-06
6.22248e-06
-1.01899e-05
1.51718e-07
-8.27785e-06
-4.10612e-06
-6.71506e-06
-3.8865e-06
-9.1484e-06
-2.52097e-06
-3.54818e-06
-3.03489e-06
2.82668e-06
-5.68303e-06
2.10589e-06
-6.913e-06
-9.31739e-07
-4.11703e-06
-4.55536e-06
-2.28341e-06
-1.38186e-05
-5.32203e-06
-2.01022e-05
-4.8608e-06
-1.63472e-05
-3.12557e-06
6.50687e-06
-6.50687e-06
3.41773e-06
3.08913e-06
-6.00972e-06
9.42745e-06
-1.94933e-05
1.34836e-05
-2.95239e-05
1.00306e-05
-2.53925e-05
-4.1314e-06
-1.01495e-05
-1.5243e-05
2.9483e-06
-1.30978e-05
9.4048e-06
-6.45648e-06
1.1368e-05
-1.9632e-06
1.21036e-05
-7.35594e-07
8.11686e-06
3.98674e-06
3.59786e-07
7.75708e-06
-7.53121e-06
7.89099e-06
-1.30507e-05
5.51946e-06
-1.34712e-05
4.20546e-07
-1.16703e-05
-1.8009e-06
-8.8188e-06
-2.85151e-06
-8.81879e-06
-2.50591e-06
-4.00095e-06
-1.3714e-05
1.42972e-05
-2.57128e-05
2.14262e-05
-3.27238e-05
2.04946e-05
-3.03303e-05
7.63704e-06
-2.02611e-05
-1.42006e-05
-6.41379e-06
-2.90903e-05
4.62049e-06
-2.41321e-05
9.86892e-06
-1.17049e-05
1.00233e-05
-2.11752e-06
8.19301e-06
1.09462e-06
5.34469e-06
6.83505e-06
-1.96966e-06
1.50714e-05
-8.21869e-06
1.414e-05
-8.88865e-06
6.18943e-06
-7.39282e-06
-1.0753e-06
-6.8286e-06
-2.3651e-06
-5.69169e-06
-3.98843e-06
-1.45105e-05
-9.31333e-06
5.31238e-06
-2.22296e-05
2.72135e-05
-3.03281e-05
2.95247e-05
-2.99894e-05
2.0156e-05
-2.43138e-05
1.96138e-06
-1.61483e-05
-2.2366e-05
-5.16568e-06
-4.00729e-05
2.78009e-06
-3.20779e-05
7.0738e-06
-1.59986e-05
7.41431e-06
-2.45802e-06
4.7795e-06
3.72943e-06
2.73957e-06
8.87497e-06
5.02109e-07
1.73089e-05
-5.82593e-07
1.52247e-05
2.30326e-06
3.3036e-06
4.30029e-06
-3.07235e-06
1.56056e-06
3.74644e-07
-3.52746e-07
-2.07513e-06
-1.48632e-05
-9.63745e-06
1.49498e-05
-1.95389e-05
3.71149e-05
-2.39117e-05
3.38975e-05
-2.26694e-05
1.89137e-05
-1.86361e-05
-2.07191e-06
-1.24996e-05
-2.85025e-05
-4.74052e-06
-4.78319e-05
-6.93772e-07
-3.61246e-05
2.21062e-06
-1.8903e-05
3.63872e-06
-3.88611e-06
2.26358e-06
5.10456e-06
1.1156e-06
1.00229e-05
2.50021e-06
1.59243e-05
4.7125e-06
1.30124e-05
5.79002e-06
2.22609e-06
6.34401e-06
-3.62635e-06
5.98527e-06
7.33403e-07
3.35658e-06
5.53548e-07
-1.15066e-05
-6.50049e-06
2.14503e-05
-9.74849e-06
4.03629e-05
-9.06447e-06
3.32135e-05
-1.02286e-05
2.00778e-05
-1.16193e-05
-6.81147e-07
-8.25473e-06
-3.18672e-05
-4.53968e-06
-5.15469e-05
-4.15876e-06
-3.65056e-05
-2.76438e-06
-2.02974e-05
-9.87301e-07
-5.66318e-06
-7.31725e-07
4.849e-06
-6.72917e-07
9.96413e-06
1.58954e-06
1.36619e-05
3.61528e-06
1.09866e-05
2.641e-06
3.20038e-06
1.7387e-06
-2.72405e-06
2.72204e-06
-2.49928e-07
3.47758e-06
-2.02002e-07
-8.02905e-06
-3.17592e-06
2.46262e-05
1.06059e-06
3.61264e-05
8.38939e-06
2.58847e-05
7.6722e-06
2.07949e-05
4.75463e-07
6.5156e-06
-2.9034e-06
-2.84883e-05
-4.3807e-06
-5.00697e-05
-7.76565e-06
-3.31206e-05
-9.06423e-06
-1.89988e-05
-8.13234e-06
-6.59506e-06
-6.59952e-06
3.31618e-06
-4.64588e-06
8.01048e-06
-1.51484e-06
1.05308e-05
3.56077e-07
9.11572e-06
-4.10844e-07
3.96731e-06
-1.67376e-06
-1.46114e-06
-1.49019e-07
-1.77467e-06
2.31965e-06
-2.67068e-06
-5.7094e-06
7.05706e-09
2.46192e-05
1.04738e-05
2.56597e-05
2.04298e-05
1.59286e-05
2.10158e-05
2.02089e-05
1.25165e-05
1.50149e-05
2.53879e-06
-1.85106e-05
-4.59747e-06
-4.29334e-05
-1.12841e-05
-2.6434e-05
-1.55546e-05
-1.47283e-05
-1.68208e-05
-5.32891e-06
-1.51181e-05
1.61347e-06
-1.18548e-05
4.74724e-06
-7.93755e-06
6.61355e-06
-5.14286e-06
6.32103e-06
-4.44005e-06
3.26452e-06
-5.14006e-06
-7.61139e-07
-3.54662e-06
-3.36812e-06
-4.26767e-07
-5.79053e-06
-6.13617e-06
5.39664e-06
1.92225e-05
1.992e-05
1.11364e-05
2.65121e-05
9.33653e-06
2.51183e-05
2.16027e-05
1.63163e-05
2.3817e-05
5.04241e-06
-7.23671e-06
-5.64617e-06
-3.22448e-05
-1.42414e-05
-1.78387e-05
-2.07741e-05
-8.19569e-06
-2.49028e-05
-1.20021e-06
-2.44225e-05
1.13325e-06
-2.12958e-05
1.62054e-06
-1.70213e-05
2.33903e-06
-1.31487e-05
2.44847e-06
-1.12469e-05
1.3627e-06
-1.07778e-05
-1.23022e-06
-8.85575e-06
-5.29022e-06
-4.63373e-06
-1.00126e-05
-1.07699e-05
2.46308e-05
-5.736e-06
3.83338e-05
-8.57908e-06
3.61146e-05
-1.05896e-05
2.54919e-05
-2.32285e-06
1.39807e-05
1.02267e-05
1.69317e-05
1.79985e-05
2.91853e-05
1.15226e-05
3.69858e-05
1.63888e-05
3.43552e-05
2.44653e-05
2.17702e-05
1.66828e-05
-3.5613e-06
1.51416e-05
-2.43555e-05
1.25164e-05
-2.90053e-05
-2.06532e-06
-2.36945e-05
-1.44592e-05
-1.67867e-05
-1.0456e-05
-1.212e-05
-1.83997e-06
-1.25765e-05
2.56237e-06
-1.71141e-05
3.60585e-06
-2.55336e-05
3.86416e-06
-3.87612e-05
-5.91018e-07
-4.54867e-05
-1.33767e-05
-4.43663e-05
-1.74677e-05
-1.04672e-05
-3.70246e-05
2.0545e-05
-2.6281e-05
1.61936e-05
-4.22766e-06
2.66513e-06
2.93887e-06
-5.68694e-06
6.02921e-06
-4.60919e-06
9.14889e-06
3.64465e-06
9.74465e-06
7.31888e-06
7.84841e-06
1.63106e-06
2.20767e-05
-1.41279e-05
4.02242e-05
-3.4874e-05
3.7429e-05
-5.32748e-05
3.35424e-05
-6.18869e-05
2.11285e-05
-5.67783e-05
-7.17389e-06
-4.74716e-05
-2.37659e-05
-3.69618e-05
-2.09658e-05
-3.37031e-05
-5.09864e-06
-4.25653e-05
1.14245e-05
-6.18941e-05
2.29346e-05
-8.07203e-05
2.26904e-05
-8.87888e-05
7.47748e-06
-8.92067e-05
-1.29589e-05
-8.51243e-05
-2.155e-05
-1.87351e-05
-7.68565e-05
-1.30279e-05
-1.32532e-05
-4.56595e-05
2.84039e-05
-6.93244e-05
2.66037e-05
-6.77876e-05
4.49243e-06
-6.72095e-05
8.57083e-06
-6.59982e-05
8.53325e-06
-6.676e-05
8.61032e-06
-6.89899e-05
2.43065e-05
-7.726e-05
4.84943e-05
-9.04725e-05
5.06415e-05
-0.000101752
4.48224e-05
-0.000108747
2.81234e-05
-9.90697e-05
-1.68514e-05
-8.27253e-05
-4.01103e-05
-7.00035e-05
-3.36876e-05
-7.4555e-05
-5.47121e-07
-8.51089e-05
2.19784e-05
-9.99755e-05
3.78013e-05
-0.000112215
3.49294e-05
-0.000114518
9.78067e-06
-0.000107299
-2.01779e-05
-9.91983e-05
-2.96504e-05
-2.09015e-05
-9.70319e-05
-2.34424e-05
1.01893e-05
-7.12895e-05
7.62508e-05
-0.0001182
7.35139e-05
-0.000158703
4.4996e-05
-0.000165247
1.51154e-05
-0.00014675
-9.96395e-06
-0.000131174
-6.96579e-06
-0.000127952
2.10839e-05
-0.00012717
4.77122e-05
-0.000131911
5.53827e-05
-0.000134943
4.78551e-05
-0.000125976
1.91561e-05
-0.000117926
-2.49018e-05
-0.000112729
-4.53074e-05
-9.00254e-05
-5.63909e-05
-9.20231e-05
1.45058e-06
-0.000103025
3.29802e-05
-0.000118
5.27759e-05
-0.000129421
4.63505e-05
-0.000133996
1.43555e-05
-0.000121551
-3.26221e-05
-0.000105422
-4.57793e-05
-2.91926e-05
-9.71313e-05
-3.22204e-05
4.24097e-05
-6.06172e-05
0.000104648
-9.79585e-05
0.000110855
-0.000146962
9.39993e-05
-0.000183512
5.16658e-05
-0.000212955
1.94782e-05
-0.000229557
9.63639e-06
-0.000229561
2.10881e-05
-0.000216689
3.48404e-05
-0.000195444
3.41386e-05
-0.000164865
1.72753e-05
-0.000127474
-1.82346e-05
-0.00010158
-5.07957e-05
-8.31145e-05
-6.3773e-05
-0.000113935
-2.55705e-05
-0.000106679
-5.80557e-06
-9.96588e-05
2.596e-05
-0.000106316
5.94333e-05
-0.000112754
5.27888e-05
-9.5e-05
-3.39893e-06
-7.91531e-05
-4.84692e-05
-8.3835e-05
-4.10971e-05
-6.21032e-05
-5.09245e-05
-5.75694e-05
9.99792e-05
-8.54873e-05
0.000132566
-0.000111955
0.000137323
-0.000153645
0.00013569
-0.000199281
9.7302e-05
-0.000242374
6.25706e-05
-0.000271498
3.87609e-05
-0.000277424
2.70143e-05
-0.000258726
1.61424e-05
-0.000219028
-5.55954e-06
-0.000168187
-3.35655e-05
-0.000127377
-5.90437e-05
-9.52983e-05
-8.28744e-05
-6.68801e-05
-9.21913e-05
-5.5842e-05
-3.66085e-05
-8.32964e-05
2.16489e-05
-0.000109069
5.17331e-05
-0.000110341
6.07057e-05
-8.96049e-05
3.20523e-05
-6.92307e-05
-2.37727e-05
-6.4175e-05
-5.35253e-05
-6.16753e-05
-4.35966e-05
-4.22811e-05
-8.14974e-05
-6.59503e-05
0.00016593
-9.90423e-05
0.000165658
-0.000130002
0.000168282
-0.000158863
0.000164552
-0.000187462
0.000125901
-0.000210446
8.55551e-05
-0.000224689
5.30037e-05
-0.000225388
2.77135e-05
-0.000207674
-1.57173e-06
-0.000174829
-3.84051e-05
-0.000139252
-6.91421e-05
-0.00011512
-8.31756e-05
-9.69439e-05
-0.00010105
-7.74502e-05
-0.000111685
-5.07778e-05
-6.32809e-05
-7.28157e-05
4.36869e-05
-7.79024e-05
5.68199e-05
-7.55195e-05
5.83229e-05
-6.65745e-05
2.31072e-05
-5.39453e-05
-3.64016e-05
-5.0828e-05
-5.66431e-05
-5.58917e-05
-3.85327e-05
-8.86114e-06
-8.93114e-05
-6.44659e-05
0.000230395
-0.000103458
0.000204649
-0.000133418
0.000198242
-0.000149004
0.000180138
-0.000159328
0.000136226
-0.000166578
9.28043e-05
-0.000170917
5.73436e-05
-0.000168001
2.47983e-05
-0.000153917
-1.56551e-05
-0.000130794
-6.15285e-05
-0.000109924
-9.00119e-05
-9.72647e-05
-9.5835e-05
-9.50165e-05
-0.000103298
-8.10464e-05
-0.000125655
-4.97307e-05
-9.45965e-05
-2.81858e-05
2.21422e-05
-3.59365e-05
6.4571e-05
-3.02476e-05
5.26346e-05
-2.45709e-05
1.74305e-05
-2.2642e-05
-3.83304e-05
-2.10519e-05
-5.82325e-05
-2.48984e-05
-3.46863e-05
-6.8748e-06
-2.68851e-05
-5.61733e-05
0.000286569
-9.73604e-05
0.000245837
-0.000119293
0.000220174
-0.000126462
0.000187307
-0.000128827
0.000138591
-0.000130073
9.40503e-05
-0.000129244
5.65147e-05
-0.000122678
1.82314e-05
-0.000110598
-2.77345e-05
-9.62734e-05
-7.58529e-05
-8.1341e-05
-0.000104944
-7.12231e-05
-0.000105953
-7.40877e-05
-0.000100434
-7.77055e-05
-0.000122037
-5.97186e-05
-0.000112584
-3.2459e-06
-3.43304e-05
1.35447e-05
4.7781e-05
1.42164e-05
5.19627e-05
1.36169e-05
1.80304e-05
1.59415e-05
-4.06549e-05
2.06988e-05
-6.299e-05
1.81469e-05
-3.21343e-05
-5.11486e-06
1.63872e-05
-4.08436e-05
0.000327412
-7.76403e-05
0.000282634
-9.26061e-05
0.00023514
-9.85606e-05
0.000193262
-0.000102999
0.00014303
-0.000106792
9.78431e-05
-0.00010661
5.6334e-05
-9.72643e-05
8.88552e-06
-8.23533e-05
-4.26463e-05
-6.70529e-05
-9.11532e-05
-5.11565e-05
-0.000120841
-3.8045e-05
-0.000119064
-3.51696e-05
-0.000103309
-5.50763e-05
-0.00010213
-6.4269e-05
-0.00010339
-3.36734e-06
-9.5232e-05
6.10331e-05
-1.66194e-05
6.22843e-05
5.07118e-05
4.05846e-05
3.97302e-05
3.03025e-05
-3.03729e-05
3.29555e-05
-6.56431e-05
3.41661e-05
-3.33448e-05
5.34757e-07
2.85166e-05
-1.25704e-05
0.000339983
-4.41312e-05
0.000314195
-5.60869e-05
0.000247096
-6.30898e-05
0.000200265
-7.20453e-05
0.000151986
-8.07344e-05
0.000106532
-8.39552e-05
5.95547e-05
-7.51267e-05
5.71647e-08
-5.5375e-05
-6.23975e-05
-3.2554e-05
-0.000113974
-1.41799e-05
-0.000139215
-9.00201e-07
-0.000132344
4.76092e-06
-0.000108969
-9.27544e-06
-8.80941e-05
-2.58034e-05
-8.68627e-05
-1.23778e-05
-0.000108658
5.17562e-05
-8.07536e-05
8.9975e-05
1.24929e-05
7.59814e-05
5.3724e-05
4.92861e-05
-3.67741e-06
4.05878e-05
-5.69447e-05
3.51226e-05
-2.78798e-05
1.49582e-05
2.06992e-05
3.49947e-05
0.000304988
9.38829e-06
0.000339801
-8.41759e-06
0.000264903
-1.58769e-05
0.000207724
-2.42368e-05
0.000160346
-3.16841e-05
0.00011398
-3.40505e-05
6.1921e-05
-2.84926e-05
-5.50107e-06
-1.19631e-05
-7.89268e-05
8.17511e-06
-0.000134112
2.31955e-05
-0.000154235
3.34032e-05
-0.000142551
3.74255e-05
-0.000112991
3.18711e-05
-8.25393e-05
2.29598e-05
-7.79513e-05
1.0427e-05
-9.61248e-05
2.52912e-05
-9.56177e-05
7.3307e-05
-3.55228e-05
9.50346e-05
3.19966e-05
7.35329e-05
1.78243e-05
5.12379e-05
-3.46496e-05
2.93586e-05
-6.0003e-06
2.86846e-05
1.56324e-05
7.47245e-05
0.000230264
8.02122e-05
0.000334314
5.81966e-05
0.000286919
4.40524e-05
0.000221869
3.68482e-05
0.00016755
3.35071e-05
0.000117321
3.47009e-05
6.07273e-05
4.09722e-05
-1.17726e-05
5.07209e-05
-8.86754e-05
5.95429e-05
-0.000142934
6.37632e-05
-0.000158455
6.31102e-05
-0.000141897
6.14411e-05
-0.000111323
6.20746e-05
-8.31734e-05
6.22181e-05
-7.80946e-05
4.80075e-05
-8.19141e-05
3.23845e-05
-7.99945e-05
5.45219e-05
-5.76604e-05
7.9782e-05
6.73653e-06
7.94203e-05
1.8186e-05
5.33235e-05
-8.55282e-06
3.18992e-05
1.54241e-05
4.66725e-05
1.39112e-05
9.46772e-05
0.000135587
0.000144221
0.000284771
0.000142104
0.000289035
0.000126292
0.000237681
0.000115193
0.000178649
0.00011198
0.000120534
0.000115798
5.69095e-05
0.000121609
-1.75828e-05
0.000123566
-9.06326e-05
0.000117915
-0.000137282
0.00010642
-0.00014696
9.43419e-05
-0.000129819
8.74336e-05
-0.000104414
8.86704e-05
-8.44101e-05
8.98147e-05
-7.9239e-05
7.86517e-05
-7.07512e-05
4.99002e-05
-5.12427e-05
3.86407e-05
-4.64009e-05
5.75691e-05
-1.21916e-05
6.69069e-05
8.8482e-06
4.81851e-05
1.0169e-05
2.73496e-05
3.62597e-05
8.37651e-05
-9.74309e-06
8.23796e-05
5.32074e-05
0.000167702
0.000199448
0.000207602
0.000249135
0.000214711
0.000230573
0.000210342
0.000183018
0.000206642
0.000124234
0.000206154
5.73977e-05
0.000203295
-1.47235e-05
0.000192231
-7.95683e-05
0.000171136
-0.000116187
0.000146506
-0.00012233
0.000124733
-0.000108045
0.000114117
-9.37978e-05
0.000112221
-8.25141e-05
0.000110706
-7.77237e-05
9.72427e-05
-5.72878e-05
5.93055e-05
-1.33054e-05
3.71658e-05
-2.42613e-05
4.30806e-05
-1.81065e-05
4.6614e-05
5.3148e-06
3.32421e-05
2.35409e-05
-4.94407e-09
6.95067e-05
0.0001285
-4.47404e-05
4.27521e-05
1.04557e-05
0.000137222
0.000104977
0.000213416
0.000172941
0.000256498
0.000187491
0.000274303
0.000165213
0.000278217
0.00012032
0.000274221
6.13936e-05
0.00025979
-2.92745e-07
0.000233605
-5.3383e-05
0.00019984
-8.24217e-05
0.000166351
-8.88408e-05
0.000140243
-8.19371e-05
0.000124734
-7.82889e-05
0.000118628
-7.64078e-05
0.000110793
-6.98883e-05
8.72304e-05
-3.37253e-05
4.52155e-05
2.87092e-05
2.93828e-05
-8.42894e-06
2.63964e-05
-1.51202e-05
1.78182e-05
1.3893e-05
-3.07567e-09
4.13621e-05
-3.61853e-05
0.000105689
0.000161688
-6.93731e-05
3.82061e-06
6.63476e-06
7.21734e-05
3.6625e-05
0.000157931
8.7184e-05
0.000224914
0.000120507
0.000264004
0.000126124
0.000279679
0.000104646
0.000277038
6.40341e-05
0.0002586
1.81456e-05
0.000225845
-2.06281e-05
0.000189446
-4.60222e-05
0.000156305
-5.56999e-05
0.00013344
-5.90727e-05
0.000118992
-6.38408e-05
0.000108697
-6.6112e-05
9.11047e-05
-5.22963e-05
5.70013e-05
3.7787e-07
1.69375e-05
6.87728e-05
1.01157e-05
-1.60734e-06
3.13879e-06
-8.14336e-06
-8.74193e-06
2.57737e-05
-3.01942e-05
6.28145e-05
-5.31131e-05
0.000128608
0.000174758
-6.61825e-05
-2.23692e-05
2.90039e-05
9.32248e-06
4.93389e-06
7.47058e-05
2.18006e-05
0.000138757
5.64561e-05
0.00018588
7.90011e-05
0.000211101
7.94255e-05
0.000215341
5.97947e-05
0.000202025
3.14612e-05
0.000175386
6.011e-06
0.000148515
-1.91516e-05
0.000126383
-3.35678e-05
0.000111197
-4.38863e-05
9.7541e-05
-5.01852e-05
8.02081e-05
-4.87789e-05
5.22966e-05
-2.43847e-05
1.99499e-05
3.27243e-05
-1.27815e-06
9.00007e-05
-1.08818e-05
7.99621e-06
-1.51941e-05
-3.831e-06
-2.76419e-05
3.82216e-05
-3.54165e-05
7.05892e-05
-3.92916e-05
0.000132483
0.000165493
-3.00267e-05
-1.54606e-06
3.05505e-05
1.51947e-05
-1.18068e-05
4.1671e-05
-4.67562e-06
6.96993e-05
2.84282e-05
9.97521e-05
4.89486e-05
0.000122567
5.6611e-05
0.000131048
5.13136e-05
0.000126202
3.63075e-05
0.000111488
2.07257e-05
9.66584e-05
-4.32237e-06
8.97099e-05
-2.66191e-05
7.84317e-05
-3.2608e-05
5.57365e-05
-2.74898e-05
3.41749e-05
-2.72171e-05
1.53392e-05
-5.54902e-06
1.40225e-07
4.7923e-05
-4.11703e-06
9.42577e-05
-2.16323e-05
2.55114e-05
-2.2054e-05
-3.40936e-06
-1.86602e-05
3.48278e-05
-1.31058e-05
6.50349e-05
2.43547e-06
0.000116942
0.000138986
2.89424e-05
2.04592e-05
1.00916e-05
2.87598e-05
-2.01077e-05
1.85813e-05
5.50319e-06
1.47494e-05
3.22601e-05
2.26069e-05
4.1091e-05
4.05645e-05
3.86532e-05
5.22567e-05
3.96213e-05
6.24107e-05
2.61533e-05
7.07849e-05
1.23512e-05
6.95258e-05
-3.06341e-06
5.45707e-05
-1.1664e-05
2.80604e-05
-6.09738e-06
9.85301e-06
-9.28214e-06
1.91155e-07
-1.75551e-05
-5.94362e-06
5.85748e-07
-4.80437e-06
4.67835e-05
9.33781e-06
8.01153e-05
-1.83219e-06
3.66814e-05
-1.88158e-05
1.35742e-05
-5.11287e-06
2.11249e-05
1.33876e-05
4.65346e-05
4.42103e-05
8.61195e-05
0.000100413
8.27838e-05
2.50224e-05
-1.49312e-05
6.86302e-06
-1.94829e-06
-2.48818e-05
3.72483e-05
-3.94291e-05
4.68071e-05
-1.49679e-05
1.66293e-05
1.70665e-05
6.61899e-06
4.04071e-05
1.62811e-05
5.07609e-05
1.57998e-05
4.60946e-05
1.70176e-05
2.86734e-05
1.43577e-05
7.97789e-06
9.03145e-06
-4.06647e-06
5.94716e-06
-8.83533e-06
-4.51305e-06
-1.53313e-05
-1.10591e-05
-1.47597e-05
1.42045e-08
1.18126e-06
3.08424e-05
2.56026e-05
5.56938e-05
2.76409e-05
3.46431e-05
1.86512e-05
2.25639e-05
1.62769e-05
2.3499e-05
2.9169e-05
3.36423e-05
6.3446e-05
5.18424e-05
5.87063e-05
0.000105153
3.00712e-05
-4.50027e-05
9.20732e-06
1.89161e-05
-2.89183e-05
7.53739e-05
-2.45909e-05
4.24793e-05
1.60224e-05
-2.39843e-05
2.7973e-05
-5.33172e-06
1.99075e-05
2.43468e-05
1.9573e-06
3.37502e-05
-7.04445e-06
2.60194e-05
-8.0778e-06
1.53912e-05
-8.53765e-06
9.49148e-06
-1.32679e-05
1.06776e-05
-1.75885e-05
-1.92098e-07
-2.0537e-05
-8.11035e-06
-1.60294e-05
-4.49331e-06
3.76436e-06
1.10486e-05
3.113e-05
2.83282e-05
4.24653e-05
2.33078e-05
4.47233e-05
2.03059e-05
4.66437e-05
2.15785e-05
5.42394e-05
2.60464e-05
7.41515e-05
3.19298e-05
3.1128e-05
0.000101729
2.5524e-05
-7.05267e-05
2.58387e-05
1.86015e-05
-7.05742e-06
0.00010827
3.0247e-08
3.53915e-05
9.42332e-06
-3.33773e-05
-1.92293e-05
2.33209e-05
-3.8601e-05
4.3719e-05
-4.0939e-05
3.60883e-05
-4.20812e-05
2.71616e-05
-4.8749e-05
2.20589e-05
-5.25956e-05
1.33384e-05
-4.52252e-05
3.3076e-06
-3.37038e-05
-1.17132e-05
-2.21793e-05
-1.96346e-05
-1.00151e-05
-1.66575e-05
6.35681e-06
-5.32347e-06
2.78135e-05
6.8713e-06
3.98156e-05
1.13055e-05
4.62457e-05
1.38755e-05
5.09656e-05
1.68585e-05
5.76465e-05
1.93655e-05
6.94314e-05
2.01448e-05
1.61301e-05
8.44293e-05
1.69533e-05
-8.74799e-05
2.33827e-05
1.2172e-05
5.70537e-06
0.000125947
2.08707e-06
3.90096e-05
-2.32172e-05
-8.07271e-06
-5.46792e-05
5.4783e-05
-6.40599e-05
5.30998e-05
-7.1849e-05
4.38776e-05
-8.80681e-05
4.33806e-05
-9.89121e-05
3.29031e-05
-9.5383e-05
9.80948e-06
-7.62869e-05
-1.57882e-05
-5.14434e-05
-3.65564e-05
-2.54591e-05
-4.56189e-05
-7.10041e-07
-4.14067e-05
2.03141e-05
-2.63477e-05
3.7276e-05
-1.00908e-05
4.63407e-05
2.24071e-06
5.02901e-05
9.92602e-06
5.2591e-05
1.45574e-05
5.61297e-05
1.58267e-05
6.2428e-05
1.38464e-05
7.8245e-06
7.07336e-05
9.85448e-06
-9.73344e-05
7.14442e-06
1.48818e-05
6.22105e-07
0.000132469
-3.19578e-06
4.28274e-05
-3.96815e-05
2.84133e-05
-6.43603e-05
7.94618e-05
-7.97808e-05
6.85201e-05
-0.000101782
6.58791e-05
-0.000120941
6.25395e-05
-0.000122398
3.43601e-05
-0.000108935
-3.65379e-06
-8.60936e-05
-3.86294e-05
-5.67199e-05
-6.59301e-05
-2.49131e-05
-7.74257e-05
5.64087e-06
-7.19608e-05
3.27205e-05
-5.34273e-05
5.21602e-05
-2.95304e-05
6.22112e-05
-7.81026e-06
6.45925e-05
7.54473e-06
6.36032e-05
1.55468e-05
6.26042e-05
1.68257e-05
6.33571e-05
1.30933e-05
5.64501e-06
6.55364e-05
-6.29093e-07
-9.67053e-05
-1.12171e-05
2.54696e-05
-9.11077e-06
0.000130362
-8.97464e-06
4.26914e-05
-4.42786e-05
6.37174e-05
-6.71217e-05
0.000102305
-8.86931e-05
9.00912e-05
-0.000111957
8.91429e-05
-0.00012179
7.23722e-05
-0.000115698
2.82687e-05
-0.000100251
-1.91017e-05
-7.81577e-05
-6.07223e-05
-5.04176e-05
-9.36702e-05
-2.03578e-05
-0.000107486
1.00674e-05
-0.000102386
3.84352e-05
-8.1795e-05
5.99988e-05
-5.10938e-05
7.17099e-05
-1.95211e-05
7.4425e-05
4.82971e-06
7.16062e-05
1.83657e-05
6.73934e-05
2.10384e-05
6.38663e-05
1.66204e-05
8.4211e-06
6.109e-05
-6.4248e-06
-9.02804e-05
-1.83468e-05
3.73916e-05
-1.03554e-05
0.000122371
-1.27623e-05
4.50986e-05
-4.07469e-05
9.17019e-05
-6.18107e-05
0.000123368
-8.12704e-05
0.000109551
-9.62532e-05
0.000104126
-9.74124e-05
7.35315e-05
-8.81202e-05
1.89768e-05
-7.29629e-05
-3.42589e-05
-5.44641e-05
-7.92211e-05
-3.32842e-05
-0.00011485
-1.02085e-05
-0.000130561
1.47742e-05
-0.000127369
3.90861e-05
-0.000106107
5.91355e-05
-7.1143e-05
7.11349e-05
-3.15204e-05
7.47371e-05
1.22749e-06
7.1359e-05
2.17437e-05
6.5596e-05
2.68012e-05
5.98106e-05
2.24058e-05
1.35719e-05
5.46597e-05
-7.83157e-06
-8.24487e-05
-1.69096e-05
4.64697e-05
-7.01899e-06
0.00011248
-1.23063e-05
5.03858e-05
-3.37948e-05
0.00011319
-4.96526e-05
0.000139226
-6.06601e-05
0.000120558
-6.44109e-05
0.000107877
-5.92956e-05
6.84163e-05
-4.87134e-05
8.3947e-06
-3.54988e-05
-4.74734e-05
-2.31172e-05
-9.16028e-05
-1.14564e-05
-0.000126511
2.44225e-06
-0.00014446
1.85006e-05
-0.000143427
3.5086e-05
-0.000122692
4.97131e-05
-8.57701e-05
5.95545e-05
-4.13616e-05
6.29709e-05
-2.18879e-06
6.09192e-05
2.37954e-05
5.59527e-05
3.17676e-05
5.0424e-05
2.79345e-05
1.83956e-05
4.56004e-05
-6.12985e-06
-7.63188e-05
-1.52427e-05
5.55826e-05
-5.96729e-07
9.78343e-05
-5.37011e-06
5.5159e-05
-2.21222e-05
0.000129942
-3.41159e-05
0.00015122
-3.70234e-05
0.000123466
-2.9926e-05
0.00010078
-1.99551e-05
5.84455e-05
-8.78828e-06
-2.7723e-06
1.4834e-06
-5.77452e-05
6.19711e-06
-9.63167e-05
8.03674e-06
-0.000128351
1.16616e-05
-0.000148085
1.7108e-05
-0.000148873
2.44009e-05
-0.000129985
3.18363e-05
-9.32054e-05
3.77296e-05
-4.72548e-05
4.05605e-05
-5.01955e-06
4.07816e-05
2.35745e-05
3.89635e-05
3.35857e-05
3.64131e-05
3.0485e-05
2.05529e-05
3.42559e-05
-6.82317e-06
-6.94956e-05
-1.5953e-05
6.47124e-05
5.39497e-06
7.64861e-05
8.71432e-06
5.18396e-05
-2.29834e-06
0.000140955
-1.2262e-05
0.000161183
-1.32554e-05
0.000124459
-1.64456e-06
8.91688e-05
1.44396e-05
4.23613e-05
2.52854e-05
-1.36185e-05
3.01161e-05
-6.2576e-05
2.8165e-05
-9.43656e-05
2.15158e-05
-0.000121701
1.51045e-05
-0.000141673
1.02742e-05
-0.000144043
8.11646e-06
-0.000127827
8.13409e-06
-9.32229e-05
9.84424e-06
-4.89648e-05
1.24403e-05
-7.61548e-06
1.55478e-05
2.0467e-05
1.81874e-05
3.09462e-05
2.02521e-05
2.84204e-05
1.85752e-05
2.22298e-05
-8.3627e-06
-6.1133e-05
-1.57489e-05
7.20986e-05
1.78812e-06
5.8949e-05
1.81173e-05
3.55105e-05
2.50658e-05
0.000134006
2.09055e-05
0.000165344
1.91263e-05
0.000126239
3.04318e-05
7.78633e-05
4.67079e-05
2.60852e-05
5.60965e-05
-2.30073e-05
5.42213e-05
-6.07008e-05
4.35901e-05
-8.37345e-05
2.94663e-05
-0.000107577
1.43507e-05
-0.000126558
7.16797e-07
-0.000130409
-9.67828e-06
-0.000117431
-1.58246e-05
-8.70764e-05
-1.70409e-05
-4.77484e-05
-1.38399e-05
-1.08164e-05
-7.71012e-06
1.43373e-05
-9.44387e-07
2.41804e-05
5.77086e-06
2.17051e-05
1.23733e-05
1.19727e-05
-7.80366e-06
-5.33293e-05
-4.62428e-06
6.89194e-05
-1.39286e-06
5.57178e-05
1.4931e-05
1.91869e-05
3.86677e-05
0.00011027
5.07874e-05
0.000153225
5.68763e-05
0.00012015
6.8998e-05
6.57416e-05
8.09787e-05
1.41045e-05
8.31053e-05
-2.5134e-05
7.14338e-05
-4.90294e-05
5.26138e-05
-6.49143e-05
3.29565e-05
-8.792e-05
1.21222e-05
-0.000105723
-7.16034e-06
-0.000111126
-2.27064e-05
-0.000101885
-3.2985e-05
-7.67976e-05
-3.65079e-05
-4.42254e-05
-3.3109e-05
-1.42153e-05
-2.48395e-05
6.0678e-06
-1.42896e-05
1.36305e-05
-3.77734e-06
1.11927e-05
3.89877e-06
4.69708e-06
-9.77528e-06
-4.35539e-05
1.08135e-05
4.8331e-05
8.76356e-06
5.7768e-05
7.27368e-06
2.06773e-05
3.2151e-05
8.53931e-05
5.88498e-05
0.000126526
7.93967e-05
9.96032e-05
9.76953e-05
4.7443e-05
0.000106296
5.50406e-06
9.90072e-05
-1.78456e-05
7.87049e-05
-2.87272e-05
5.55095e-05
-4.17189e-05
3.39529e-05
-6.63633e-05
1.10398e-05
-8.28102e-05
-1.0403e-05
-8.9683e-05
-2.8255e-05
-8.40331e-05
-3.98537e-05
-6.51989e-05
-4.37211e-05
-4.03579e-05
-3.98806e-05
-1.80558e-05
-3.05328e-05
-3.27994e-06
-1.84745e-05
1.57218e-06
-7.21045e-06
-7.13424e-08
-3.44449e-06
1.3278e-07
-1.49894e-05
-2.85644e-05
1.32889e-05
2.0053e-05
2.41263e-05
4.69309e-05
6.37142e-06
3.84324e-05
1.74782e-05
7.42867e-05
4.4445e-05
9.95597e-05
7.38863e-05
7.01617e-05
0.000102731
1.85985e-05
0.000114174
-5.93897e-06
0.000102135
-5.80728e-06
7.73952e-05
-3.98691e-06
5.43999e-05
-1.87235e-05
3.40976e-05
-4.60608e-05
1.23379e-05
-6.10504e-05
-8.18082e-06
-6.91642e-05
-2.52757e-05
-6.69382e-05
-3.60424e-05
-5.44321e-05
-3.92486e-05
-3.71516e-05
-3.53027e-05
-2.20016e-05
-2.61385e-05
-1.2444e-05
-1.56313e-05
-8.9349e-06
-7.25956e-06
-8.44306e-06
-8.69867e-06
-2.00536e-06
-2.25931e-05
-5.97113e-06
3.09616e-06
-5.63592e-06
2.33942e-05
2.6633e-05
1.58939e-05
4.59328e-05
1.11199e-05
7.90607e-05
2.39139e-05
8.67658e-05
5.43046e-05
3.97708e-05
9.11074e-05
-1.82044e-05
0.000106101
-2.09328e-05
9.18409e-05
8.45304e-06
6.74026e-05
2.04515e-05
4.94e-05
-7.20858e-07
3.32481e-05
-2.99089e-05
1.52106e-05
-4.3013e-05
-2.08599e-06
-5.18676e-05
-1.63969e-05
-5.26271e-05
-2.53096e-05
-4.55193e-05
-2.77824e-05
-3.46785e-05
-2.46492e-05
-2.51346e-05
-1.81814e-05
-1.89116e-05
-1.15773e-05
-1.55388e-05
-6.60191e-06
-1.34184e-05
-1.24617e-05
-2.83897e-06
-6.14601e-06
1.74709e-07
-2.171e-06
-9.6107e-06
1.15369e-05
1.29251e-05
1.43241e-05
4.31456e-05
1.04775e-05
8.29072e-05
1.87958e-05
7.84475e-05
4.22525e-05
1.63143e-05
5.82452e-05
-3.41973e-05
6.88025e-05
-3.14902e-05
5.76571e-05
1.95985e-05
4.60609e-05
3.20477e-05
4.01538e-05
5.18627e-06
3.09407e-05
-2.06959e-05
1.80113e-05
-3.00836e-05
4.8429e-06
-3.86992e-05
-6.15651e-06
-4.16276e-05
-1.33677e-05
-3.83079e-05
-1.58054e-05
-3.22405e-05
-1.45445e-05
-2.6395e-05
-1.15044e-05
-2.19513e-05
-8.40898e-06
-1.86341e-05
-5.59908e-06
-1.62283e-05
-1.50848e-05
-2.97615e-06
1.57778e-05
-1.56034e-05
6.25768e-06
-9.06738e-08
2.82586e-06
1.63569e-05
1.6754e-06
4.4296e-05
1.10786e-05
7.35041e-05
3.06471e-05
5.88788e-05
4.1992e-05
4.96954e-06
4.58105e-05
-3.80158e-05
4.09248e-05
-2.66044e-05
3.0068e-05
3.04553e-05
3.05562e-05
3.15595e-05
3.27419e-05
3.00052e-06
2.78429e-05
-1.5797e-05
1.93217e-05
-2.15625e-05
1.00537e-05
-2.94311e-05
1.62855e-06
-3.32022e-05
-4.24735e-06
-3.24316e-05
-7.12245e-06
-2.93651e-05
-7.79281e-06
-2.57244e-05
-7.26986e-06