/*--------------------------------*- C++ -*----------------------------------*\
| =========                 |                                                 |
| \\      /  F ield         | OpenFOAM: The Open Source CFD Toolbox           |
|  \\    /   O peration     | Version:  2.3.0                                 |
|   \\  /    A nd           | Web:      www.OpenFOAM.org                      |
|    \\/     M anipulation  |                                                 |
\*---------------------------------------------------------------------------*/
FoamFile
{
    version     2.0;
    format      ascii;
    class       volScalarField;
    location    "0.006";
    object      alpha.water;
}
// * * * * * * * * * * * * * * * * * * * * * * * * * * * * * * * * * * * * * //

dimensions      [0 0 0 0 0 0 0];

internalField   nonuniform List<scalar> 
725
(
1
1
1
1.00009
1.00001
1
1
1
0.999902
0.999973
1
1
1
1.00003
1
1
1
1
1.00002
1
1
1
1
1.00004
0.992898
0.893122
0.713367
0.472984
0.485987
0.848376
0.999816
0.99982
0.999793
0.999811
0.999864
0.999913
0.999945
0.999966
0.99998
0.99999
0.999995
0.999998
0.999999
1
1
1
1
1
1
1
1
1
1
1
1
1
1
1
1
1
1
1
1
1
1
1
1
1
1
0.999985
0.939636
0.612657
0.273531
0.396109
0.842667
0.999849
0.999875
0.99979
0.999784
0.999786
0.999799
0.999817
0.999832
0.999842
0.999853
0.999869
0.999891
0.999914
0.999936
0.999954
0.999968
0.999978
0.999986
0.99999
0.999994
0.999996
0.999998
0.999999
1
1
1
1
1
1
1
1
1
1
1
1
1
1
1
1
1
0.987888
0.126134
0.231836
0.338823
0.845314
0.999903
0.99993
0.999811
0.999795
0.999788
0.999792
0.999804
0.999818
0.999826
0.999825
0.999818
0.99981
0.999806
0.999807
0.999814
0.999825
0.999841
0.99986
0.999881
0.999904
0.999925
0.999945
0.999962
0.999975
0.999984
0.999991
0.999994
0.999997
0.999998
0.999999
1
1
1
1
1
1
1
1
1
1
0.481956
0.0143835
0.0994403
0.207802
0.766553
0.999955
0.999971
0.99982
0.99981
0.999799
0.999797
0.999804
0.999817
0.999827
0.999829
0.999821
0.999806
0.999789
0.999772
0.999757
0.999745
0.999738
0.999737
0.999743
0.999757
0.999778
0.999806
0.999837
0.999869
0.999898
0.999924
0.999945
0.999961
0.999974
0.999983
0.999989
0.999993
0.999996
0.999997
0.999998
0.999999
1
1
1
1
2.76548e-05
0.000539802
0.00105167
0.171605
0.759495
0.999987
0.999995
0.999997
0.999866
0.999823
0.999815
0.999826
0.999844
0.999858
0.999858
0.999845
0.999823
0.999799
0.999773
0.999748
0.999725
0.999704
0.999686
0.999674
0.999669
0.999674
0.999689
0.999713
0.999744
0.999779
0.999815
0.99985
0.999882
0.99991
0.999933
0.999951
0.999965
0.999976
0.999983
0.999989
0.999993
0.999995
0.999997
0.999998
0.999999
8.30654e-06
5.06135e-05
0.00253885
0.263369
0.744067
0.994124
1
0.999789
0.999819
0.99982
0.999823
0.999829
0.999892
0.999884
0.999871
0.999848
0.999822
0.999797
0.999772
0.999747
0.999722
0.999698
0.999675
0.999655
0.999643
0.99964
0.999649
0.99967
0.9997
0.999736
0.999775
0.999813
0.999849
0.999881
0.999908
0.99993
0.999948
0.999962
0.999972
0.99998
0.999986
0.999991
0.999994
0.999996
0.999997
2.35853e-05
5.51924e-05
0.00270609
0.161114
0.736738
0.994282
0.999972
0.999741
0.999786
0.999822
0.999834
0.999842
0.999849
0.999867
0.999859
0.999839
0.999816
0.999791
0.999767
0.999743
0.999717
0.999691
0.999666
0.999645
0.99963
0.999626
0.999634
0.999653
0.999683
0.999719
0.999758
0.999798
0.999836
0.999869
0.999898
0.999923
0.999942
0.999957
0.999969
0.999978
0.999985
0.999989
0.999993
0.999995
0.999997
2.45847e-05
8.57529e-05
0.00206053
0.103258
0.680331
0.989636
0.999949
0.999688
0.999774
0.999829
0.999843
0.999865
0.999882
0.999876
0.999861
0.999837
0.999811
0.999786
0.999762
0.999737
0.999711
0.999684
0.999659
0.999637
0.999622
0.999618
0.999626
0.999646
0.999676
0.999713
0.999754
0.999794
0.999833
0.999867
0.999897
0.999921
0.999941
0.999957
0.999969
0.999978
0.999984
0.999989
0.999993
0.999995
0.999997
2.62966e-05
8.46917e-05
0.00084167
0.0606984
0.687837
0.996253
0.999803
0.999672
0.999781
0.99984
0.999853
0.999866
0.999874
0.999869
0.999851
0.999826
0.999801
0.999777
0.999754
0.999729
0.999702
0.999676
0.999651
0.99963
0.999616
0.999613
0.999623
0.999644
0.999675
0.999713
0.999755
0.999796
0.999834
0.999869
0.999898
0.999923
0.999942
0.999958
0.99997
0.999978
0.999985
0.99999
0.999993
0.999995
0.999997
1.94398e-07
4.85019e-05
0.000888714
0.0645721
0.703442
0.999389
0.999864
0.999692
0.999728
0.999855
0.99987
0.999872
0.999872
0.999863
0.999843
0.999816
0.99979
0.999766
0.999744
0.999721
0.999696
0.99967
0.999647
0.999628
0.999617
0.999617
0.999628
0.999651
0.999683
0.999722
0.999764
0.999805
0.999843
0.999877
0.999906
0.999929
0.999948
0.999962
0.999973
0.999981
0.999987
0.999991
0.999994
0.999996
0.999997
1
1
1
1.00002
1
1
1
1
1.00002
1
1
1
1
1.00005
1
1
1
1
1.00002
1
1
1
1
0.999955
1.00001
0.161388
0.000808191
0.00149666
0.0387287
0.668085
0.999987
0.999863
0.999888
0.999961
0.999926
0.999898
0.999882
0.999871
0.999855
0.999832
0.999804
0.999777
0.999753
0.99973
0.999708
0.999683
0.99966
0.999641
0.999627
0.999623
0.99963
0.999649
0.999678
0.999716
0.999758
0.999801
0.999842
0.999878
0.999908
0.999933
0.999952
0.999967
0.999977
0.999985
0.99999
0.999994
0.999996
0.999997
0.999998
0.999999
0.899182
0.085037
0.0111127
0.0232465
0.538523
0.999989
0.999907
0.999915
0.999922
0.999908
0.999888
0.999871
0.99985
0.999823
0.999788
0.99975
0.999714
0.99968
0.999651
0.999624
0.999603
0.99959
0.999586
0.999596
0.99962
0.999657
0.999702
0.999752
0.999801
0.999847
0.999887
0.999919
0.999944
0.999962
0.999976
0.999985
0.999991
0.999994
0.999997
0.999998
0.999999
0.999999
1
1
1
0.909657
0.347873
0.107677
0.0537245
0.645033
0.999989
0.999953
0.999837
0.999851
0.999937
0.99989
0.999864
0.999836
0.999802
0.999765
0.999729
0.999693
0.999663
0.999647
0.999649
0.999671
0.999703
0.999742
0.99979
0.999838
0.99988
0.999916
0.999943
0.999963
0.999977
0.999986
0.999992
0.999996
0.999998
0.999999
0.999999
1
1
1
1
1
1
1
1
1
0.953912
0.712784
0.155658
0.0935364
0.690836
0.999989
0.999978
0.999745
0.999809
0.999824
0.999833
0.99981
0.999784
0.999765
0.999761
0.999773
0.999796
0.999827
0.999865
0.999905
0.999938
0.999961
0.999976
0.999987
0.999993
0.999997
0.999998
0.999999
1
1
1
1
1
1
1
1
1
1
1
1
1
1
1
1
1
0.933505
0.768495
0.15541
0.126121
0.753227
0.998057
0.999985
0.999787
0.999813
0.999825
0.999854
0.999896
0.999936
0.999967
0.999985
0.999993
0.999996
0.999997
0.999998
1
1
1
1
1
1
1
1
1
1
1
1
1
1
1
1
1
1
1
1
1
1
1
1
1
0.999985
)
;

boundaryField
{
    AirInlet
    {
        type            fixedValue;
        value           uniform 0;
    }
    WaterInlet
    {
        type            fixedValue;
        value           uniform 1;
    }
    ChannelWall
    {
        type            zeroGradient;
    }
    Outlet
    {
        type            inletOutlet;
        inletValue      uniform 0;
        value           nonuniform List<scalar> 
15
(
0.999985
1
1
1
0.999999
0.999997
0.999997
0.999997
0.999997
0.999997
0.999999
1
1
1
0.999985
)
;
    }
    FrontAndBack
    {
        type            empty;
    }
}


// ************************************************************************* //
