/*--------------------------------*- C++ -*----------------------------------*\
| =========                 |                                                 |
| \\      /  F ield         | OpenFOAM: The Open Source CFD Toolbox           |
|  \\    /   O peration     | Version:  2.3.0                                 |
|   \\  /    A nd           | Web:      www.OpenFOAM.org                      |
|    \\/     M anipulation  |                                                 |
\*---------------------------------------------------------------------------*/
FoamFile
{
    version     2.0;
    format      ascii;
    class       volScalarField;
    location    "0.006";
    object      alpha.water;
}
// * * * * * * * * * * * * * * * * * * * * * * * * * * * * * * * * * * * * * //

dimensions      [0 0 0 0 0 0 0];

internalField   nonuniform List<scalar> 
725
(
1
1
1
1.00001
1.00001
1
1
1
1.00002
1.00001
1
1
1
1.00001
1
1
1
1
1.00001
1
1
1
1
1
1
0.940562
0.463352
0.13668
0.315156
0.940204
0.999689
0.9995
0.999575
0.999624
0.999627
0.999434
0.999425
0.999489
0.999595
0.999684
0.999758
0.999834
0.999908
0.999958
0.99998
0.999988
1.00001
1
0.950513
0.829525
0.829521
0.829521
0.829521
0.937501
0.999799
0.999765
0.999818
0.999823
0.999822
0.999819
0.999815
0.99981
0.999806
0.999787
0.999745
0.999689
0.999632
0.999553
0.999473
0.999378
1
0.283983
0.136025
0.274282
0.936627
0.999884
0.999884
0.999907
0.997467
0.981982
0.990406
0.999281
0.9996
0.999765
0.999687
0.999777
0.999799
0.999744
0.999746
0.999789
0.999863
0.999943
1
0.987168
0.835156
0.829522
0.829521
0.829521
0.947099
0.999882
0.999824
0.999809
0.999793
0.999776
0.999755
0.999739
0.999734
0.999753
0.999777
0.999789
0.99978
0.999761
0.999838
0.999786
0.999686
1
0.26483
0.136025
0.469672
0.98447
0.99989
0.999887
0.999909
0.999445
0.959321
0.955789
0.991859
1
1
0.998583
0.992345
0.993378
0.998446
0.99983
0.999751
0.999787
0.99989
1
0.995457
0.8615
0.829522
0.829521
0.829522
0.957555
0.999954
0.999951
0.999943
0.999913
0.999882
0.999847
0.999812
0.999793
0.999799
0.999826
0.999822
0.999806
0.9998
0.999793
0.999759
0.999729
0.746692
0.170501
0.136025
0.695065
0.999886
0.999881
0.999898
0.999904
0.999905
0.962171
0.946565
0.984604
1
1.00001
1
0.978631
0.973972
0.993196
0.999963
0.999962
0.999919
0.999916
0.999989
0.999998
0.949151
0.830083
0.829522
0.890326
0.982702
0.999886
0.999844
0.999855
0.999789
0.999699
0.999845
0.999895
0.999914
0.99999
0.999985
0.999905
0.999748
0.999729
0.999729
0.999917
0.999799
0.294141
0.140076
0.266585
0.593326
0.99989
0.999894
0.999853
0.999889
0.999905
0.960825
0.946479
0.977006
1
1
0.999379
0.972281
0.970035
0.989757
0.999913
0.999845
0.999816
0.9998
1.00001
0.999374
0.99434
0.969284
0.92887
0.981438
0.990073
0.992078
0.99939
0.999864
0.999863
0.996955
0.996613
0.997011
0.998319
0.999259
0.996832
0.993836
0.996292
0.999569
0.999758
0.999779
0.999767
7.6256e-06
0.0568279
0.330241
0.715303
0.981424
0.999898
0.999487
0.999787
0.998305
0.965063
0.946455
0.982703
0.999381
0.999529
0.982565
0.97002
0.970032
0.986952
0.999842
0.999783
0.999742
0.999565
0.999076
0.99916
0.999675
0.999549
0.99933
0.999341
0.999342
0.997079
0.997362
0.999192
0.999504
0.998638
0.993446
0.991092
0.991096
0.991103
0.991111
0.991131
0.992668
0.998866
0.999347
0.999581
0.999635
0.000869309
0.0974491
0.397609
0.935186
0.996853
0.999681
0.99967
0.9998
0.977335
0.983109
0.946477
0.946462
0.981615
0.997381
0.973362
0.970016
0.980059
0.992234
0.999688
0.999693
0.999631
0.999429
0.998758
0.999156
0.999663
0.998491
0.998626
0.998677
0.998286
0.998748
0.999102
0.999081
0.999127
0.996991
0.991128
0.991071
0.99108
0.991094
0.991233
0.991138
0.991152
0.997393
0.998878
0.999158
0.9994
0.00107597
0.1527
0.730366
0.927995
0.98241
0.999631
0.999662
0.999421
0.972705
0.984214
0.96341
0.957443
0.963973
0.991954
0.991099
0.970021
0.981906
0.998748
0.998699
0.999428
0.999485
0.999239
0.997922
0.999292
0.997833
0.996784
0.996751
0.996784
0.996756
0.999052
1.00022
0.999407
0.996368
0.991508
0.991073
0.99107
0.992431
0.994244
0.993962
0.991861
0.991169
0.991561
0.994383
0.998954
0.998979
1.4587e-06
0.126412
0.75679
0.714521
0.967699
0.999651
0.99965
0.999144
0.972668
0.987445
0.989863
0.990248
0.993942
0.999824
0.997469
0.971756
0.97119
0.995403
0.999513
0.999497
0.999471
1.00009
0.997753
0.997946
0.995564
0.995554
0.997481
0.999718
0.999035
0.998894
0.999158
0.999127
0.995758
0.991079
0.991068
0.991063
0.995294
0.997249
0.997254
0.994793
0.99118
0.991192
0.996716
0.998401
0.998888
6.56093e-06
0.109727
0.762152
0.712102
0.971738
0.999642
0.999639
0.999276
0.972701
0.986049
0.94204
0.985874
0.994661
0.999953
0.9944
0.971401
0.971146
0.988228
0.999909
0.999539
0.999445
0.999712
0.998406
0.99532
0.995292
0.997489
0.999341
0.999711
0.999431
0.999164
0.999298
0.99933
0.999891
0.995876
0.991077
0.991522
0.99622
0.997248
0.997259
0.993795
0.991212
0.99535
0.998855
0.999007
0.999246
1
1
1
1
0.855699
1
1
1
1.00002
1
1
1
1
1
1
1
1
1
1.00001
1
1
1
1
1.00015
0.99907
0.00335932
0.080727
0.767724
0.767845
0.925563
0.999607
0.999632
0.999281
0.995527
0.951372
0.926466
0.937217
0.993095
0.999995
0.99192
0.971451
0.977195
0.993712
1
0.999853
0.999797
1
0.997545
0.99533
0.995326
0.998907
0.999908
0.999824
0.999737
0.999666
0.999733
0.999783
0.99988
0.999887
0.999056
0.999425
0.999469
0.996627
0.993817
0.9938
0.995848
0.99931
0.99955
0.999778
0.999775
0.318994
0.309578
0.729482
0.818208
0.89952
0.98647
0.999615
0.999376
0.999375
0.946413
0.926443
0.949647
0.998996
0.999999
0.99858
0.983144
0.990913
0.998767
1
1.00004
1.00004
1.00002
0.997423
0.995349
0.995334
0.998241
0.999983
0.999979
0.999884
0.999948
0.99988
0.999856
0.999827
0.999803
0.999705
0.99982
0.999797
0.999756
0.99905
0.998905
0.999531
0.999546
0.999642
0.999735
0.999733
0.826858
0.423004
0.76601
0.880769
0.896147
0.991974
0.992012
0.999209
0.999364
0.928221
0.926447
0.958277
0.999232
1
1.00013
0.999908
1
1.00001
0.999957
0.999896
0.999931
0.999777
0.998043
0.997512
0.99839
0.999395
0.999767
0.999732
0.999767
0.999774
0.99977
0.999764
0.999756
0.999747
0.999734
0.999723
0.999682
0.999627
0.999542
0.999478
0.999573
0.999874
0.999812
0.999742
0.999642
0.979458
0.681381
0.913178
0.929448
0.947653
0.986591
0.969155
0.973124
0.977499
0.932181
0.931297
0.987347
0.99981
0.999807
0.99988
0.999891
0.999865
0.999845
0.999826
0.999773
0.999679
0.999557
0.999493
0.999469
0.999619
0.999695
0.999726
0.999741
0.999738
0.999733
0.999732
0.999737
0.999746
0.999758
0.999773
0.999796
0.999818
0.999834
0.999825
0.999803
0.999807
0.999794
0.999746
0.999701
0.999675
0.998221
0.987153
0.990906
0.91835
0.954903
0.974644
0.961041
0.96392
0.990368
0.987132
0.993038
0.999604
0.999702
0.999747
0.999741
0.999726
0.999692
0.99968
0.99968
0.999678
0.999678
0.999692
0.999718
0.999744
0.999775
0.999798
0.999813
0.999826
0.999841
0.999852
0.999859
0.999868
0.99988
0.999895
0.99991
0.999928
0.999939
0.99994
0.999928
0.999917
0.999916
0.999926
0.99994
0.999945
0.99943
)
;

boundaryField
{
    AirInlet
    {
        type            fixedValue;
        value           uniform 0;
    }
    WaterInlet
    {
        type            fixedValue;
        value           uniform 1;
    }
    ChannelWall
    {
        type            zeroGradient;
    }
    Outlet
    {
        type            inletOutlet;
        inletValue      uniform 0;
        value           nonuniform List<scalar> 
15
(
0.999378
0.999686
0.999729
0.999799
0.999767
0.999635
0.9994
0.998979
0.998888
0.999246
0.999775
0.999733
0.999642
0.999675
0.99943
)
;
    }
    FrontAndBack
    {
        type            empty;
    }
}


// ************************************************************************* //
