/*--------------------------------*- C++ -*----------------------------------*\
| =========                 |                                                 |
| \\      /  F ield         | OpenFOAM: The Open Source CFD Toolbox           |
|  \\    /   O peration     | Version:  2.3.0                                 |
|   \\  /    A nd           | Web:      www.OpenFOAM.org                      |
|    \\/     M anipulation  |                                                 |
\*---------------------------------------------------------------------------*/
FoamFile
{
    version     2.0;
    format      ascii;
    class       volScalarField;
    location    "0.006";
    object      p;
}
// * * * * * * * * * * * * * * * * * * * * * * * * * * * * * * * * * * * * * //

dimensions      [1 -1 -2 0 0 0 0];

internalField   nonuniform List<scalar> 
725
(
2208.26
2028.98
1968.55
1986
1886.37
2179.16
2031.77
1973.09
1995.79
1854.48
2164.58
2032.84
1970.94
1978
1806.38
2162.1
2027.72
1965.1
1949.26
1748.92
2171.66
2021.7
1960.92
1948.07
1947.04
2269.76
1250.2
1631.89
691.105
428.394
371.638
333.726
371.955
379.95
488.692
524.196
498.964
477.913
411.219
349.249
307.672
294.543
224.999
194.677
181.011
171.149
164.631
161.532
200.272
400.26
373.67
342.012
351.104
114.699
61.1767
61.2821
62.8907
67.3426
71.2769
61.3278
44.8639
22.6116
-4.18899
-8.76467
12.7116
29.2307
31.5459
19.5254
10.0453
3.88868
2254.23
978.561
1601.93
704.47
418.32
356.337
333.747
363.054
376.812
437.301
510.255
509.381
478.657
407.354
346.92
302.822
295.97
221.741
194.002
180.445
170.517
164.751
165.642
159.202
370.885
372.497
347.667
359.31
84.8071
57.0601
61.8146
63.8151
67.6012
72.7652
62.8089
46.4537
23.2593
-9.53555
-11.9194
12.67
30.1439
33.2852
18.6223
8.86854
2.79229
2260.38
861.313
1637.2
245.746
474.349
373.767
342.282
354.986
365.344
520.404
585.397
550.192
495.388
402.58
345.344
301.105
305.011
211.293
190.586
179.957
170.331
163.889
167.451
170.733
301.626
373.446
342.56
359.612
59.6194
60.4918
65.7267
66.0542
68.6728
77.6761
65.5374
49.3963
24.933
-23.2546
-18.1699
15.221
33.7649
38.492
17.3333
8.33234
3.18682
1731.88
524.2
1755.55
484.237
535.601
416.784
353.577
342.625
366.154
475.258
657.509
611.269
503.64
389.598
344.232
313.714
351.847
201.088
186.626
179.387
169.307
162.645
166.915
165.784
207.395
369.258
334.158
224.787
-12.6666
49.1725
67.5884
66.4663
68.3842
84.6924
69.1737
55.5277
32.456
-49.0713
-26.7911
21.6415
38.5928
46.6869
13.5141
8.73893
4.32513
1769.78
315.329
1401.55
979.513
121.93
333.941
345.026
320.997
358.851
423.186
665.605
689.981
529.397
365.383
335.736
319.26
425.543
190.154
179.081
175.445
167.594
160.648
167.607
166.063
167.4
212.322
205.47
139.141
-45.153
104.253
71.7316
67.6171
67.0482
101.19
74.7187
64.9217
51.154
-105.586
-33.9172
36.9644
46.2574
61.82
5.99277
6.16603
5.18889
2273.06
2114.05
1380.09
1380.5
-58.2396
402.858
341.04
301.251
351.266
374.02
696.715
787.049
507.954
332.166
417.946
284.713
432.877
204.65
185.495
176.079
167.417
157.462
168.296
168.315
180.224
213.8
196.654
165.83
352.339
101.056
96.4791
74.6653
62.0631
121.755
76.008
73.4135
84.3279
295.036
285.555
69.2803
52.309
78.357
-6.11146
5.64976
5.99576
2265.39
1533.43
1339
5743.51
239.109
412.285
335.71
293.153
298.454
311.914
710.697
2073.95
512.428
308.111
743.569
277.575
514.604
171.621
184.772
176.003
167.292
160.523
168.806
166.322
182.508
179.114
171.324
151.444
297.216
104.521
95.2157
78.0875
59.7903
122.976
76.2821
75.6586
94.4789
273.694
280.802
74.6936
53.0049
83.2372
-10.8118
5.88985
6.18019
2259.98
2459.93
1338.44
5837.67
61.1594
406.094
326.554
284.345
299.456
291.87
717.457
1726.13
1132.74
462.417
184.996
264.327
582.783
368.386
209.74
176.67
167.11
165.794
170.982
167.429
122.187
122.118
168.667
159.362
331.141
108.739
140.58
75.643
110.96
143.033
76.0445
77.1959
55.2937
254.083
281.905
55.1474
52.645
95.6732
130.949
6.73609
6.23878
2270.51
1812.99
1589.3
2527.52
151.496
393.87
316.921
274.434
295.517
377.321
1651.14
1904.14
96.5129
197.142
315.021
275.354
342.784
240.54
185.487
173.834
167.373
168.08
176.793
165.534
124.506
167.422
141.413
64.3179
235.771
111.08
101.456
77.2643
130.746
164.064
75.0695
78.5213
63.139
237.981
286.638
80.2002
51.253
115.141
44.7511
25.7455
9.49295
2279.31
1715.2
1296.75
2725.36
33.6143
382.801
308.531
269.921
280.663
296.12
13.174
1812
93.514
185.676
213.943
268.088
360.26
234.874
185.903
171.758
167.879
155.138
160.09
165.606
128.012
102.554
138.691
72.1405
221.673
111.273
98.9298
74.4126
64.2179
15.7724
72.7281
76.5912
67.712
222.718
288.511
51.9659
48.1038
-19.7406
35.6001
7.73387
-2.04566
674.665
524.978
467.934
470.548
583.991
665.076
531.242
470.084
455.306
379.527
667.367
535.48
473.14
470.797
362.358
681.746
533.942
472.838
463.984
390.297
710.999
531.705
473.154
471.079
441.822
2174.03
1979.82
387.895
133.79
-146.226
351.084
290.312
262.33
259.487
303.487
70.3463
-263.956
-20.2077
141.32
145.554
260.376
83.7903
189.166
172.821
169.685
164.5
163.597
153.449
160.856
131.737
111.245
133.149
93.4981
185.175
116.255
80.8872
71.6077
63.1302
30.8323
63.1926
69.4988
75.6405
151.149
113.566
61.6391
33.4282
-3.84363
26.3933
9.09799
-0.773666
1376.53
344.567
432.826
352.302
-114.18
319.998
217.512
244.766
242.49
226.215
137.157
-209.654
-63.5897
85.9125
97.5408
160.718
83.4661
153.674
169.113
169.134
165.519
160.66
154.566
156.998
138.179
117.743
129.652
110.446
154.659
120.102
88.6574
74.8685
62.316
42.7824
62.8878
72.7241
82.5642
101.965
63.287
31.6785
29.9209
9.37588
20.2262
9.26489
-0.27831
718.697
308.379
281.331
476.462
-149.678
350.918
172.721
228.395
215.207
295.543
149.05
-152.895
-47.6026
59.648
86.9169
132.712
94.519
141.426
162.18
165.172
163.006
158.262
151.793
148.432
134.291
120.001
125.486
114.578
136.979
117.322
91.679
76.2595
63.4811
50.6697
64.3009
74.4396
82.5062
87.4181
60.2033
36.624
30.3191
16.8068
18.1305
9.02493
-0.236552
570.947
-16.9349
-182.215
494.228
-326.745
337.072
139.438
171.735
237.488
261.849
137.477
-104.135
-40.4363
44.3082
79.052
124.769
101.853
137.634
157.88
163.28
161.794
157.923
148.788
146.193
134.759
122.353
124.142
117.037
128.946
116.097
93.7602
77.5413
64.252
55.0164
65.8816
75.3783
81.457
78.8429
57.8492
39.4986
31.4802
20.5178
17.1144
8.85848
-0.111431
613.973
979.167
136.238
507.559
-289.862
309.666
181.528
219.358
256.181
328.549
288.265
-27.5089
-30.8057
38.697
74.9721
121.54
103.112
135.12
156.679
162.772
161.415
157.056
149.833
147.295
135.591
123.257
123.098
116.874
125.46
114.898
93.5368
77.3729
64.928
57.8195
67.9178
76.4007
80.476
74.4498
56.6195
41.6684
33.2008
22.8042
17.4247
9.70258
1.40899
)
;

boundaryField
{
    AirInlet
    {
        type            calculated;
        value           nonuniform List<scalar> 5(2273.07 2296.17 2259 2270.51 2279.54);
    }
    WaterInlet
    {
        type            calculated;
        value           nonuniform List<scalar> 10(2208.26 2179.16 2164.59 2162.12 2171.68 674.647 665.062 667.357 681.74 710.997);
    }
    ChannelWall
    {
        type            calculated;
        value           nonuniform List<scalar> 
110
(
2171.64
2021.67
1960.88
1948.03
1947
674.691
525.008
467.968
470.586
584.027
710.973
531.674
473.12
471.04
441.78
613.929
979.124
136.195
507.519
-289.905
309.623
181.485
219.316
256.138
328.505
288.221
-27.553
-30.8499
38.6528
74.928
121.496
103.068
135.076
156.635
162.728
161.371
157.012
149.789
147.251
135.546
123.212
123.054
116.829
125.416
114.854
93.4926
77.3287
64.8838
57.7754
67.8736
76.3566
80.4319
74.4057
56.5753
41.6243
33.1567
22.7601
17.3805
9.65844
1.36487
2208.29
2029.01
1968.59
1986.03
1886.41
2269.8
1250.22
1631.89
691.118
428.435
371.682
333.77
371.999
379.994
488.736
524.24
499.008
477.957
411.263
349.294
307.716
294.587
225.043
194.721
181.055
171.193
164.675
161.576
200.314
400.297
373.706
342.048
351.14
114.741
61.2208
61.3262
62.9348
67.3868
71.321
61.372
44.908
22.6557
-4.14485
-8.72053
12.7557
29.2748
31.59
19.5695
10.0894
3.9328
)
;
    }
    Outlet
    {
        type            calculated;
        value           nonuniform List<scalar> 
15
(
-0.0441176
-0.132393
-0.220665
-0.308953
-0.397213
-0.451096
-0.470598
-0.49
-0.509553
-0.529341
-0.583564
-0.671806
-0.760003
-0.84829
-0.936321
)
;
    }
    FrontAndBack
    {
        type            empty;
    }
}


// ************************************************************************* //
