/*--------------------------------*- C++ -*----------------------------------*\
| =========                 |                                                 |
| \\      /  F ield         | OpenFOAM: The Open Source CFD Toolbox           |
|  \\    /   O peration     | Version:  2.3.0                                 |
|   \\  /    A nd           | Web:      www.OpenFOAM.org                      |
|    \\/     M anipulation  |                                                 |
\*---------------------------------------------------------------------------*/
FoamFile
{
    version     2.0;
    format      ascii;
    class       volScalarField;
    location    "0.006";
    object      p;
}
// * * * * * * * * * * * * * * * * * * * * * * * * * * * * * * * * * * * * * //

dimensions      [1 -1 -2 0 0 0 0];

internalField   nonuniform List<scalar> 
725
(
666.65
632.422
600.06
627.2
543.905
661.054
633.308
601.83
647.417
559.76
658.448
632.874
600.558
643.849
515.578
658.782
630.843
597.089
618.593
441.903
662
628.729
597.996
623.331
532.643
574.14
557.407
-3.94866
38.2535
-81.1995
-2.13746
29.063
35.0539
41.047
43.3958
43.9762
43.8925
43.4915
43.0175
42.4399
41.7438
40.7309
39.4746
38.1248
36.7526
35.3712
33.9793
32.5608
31.1673
29.793
28.3768
26.9453
25.4838
23.9986
22.5012
20.9991
19.4993
18.0055
16.5197
15.0433
13.5769
12.1199
10.6711
9.22905
7.79238
6.36003
4.93111
3.50453
2.07908
0.726956
596.085
151.204
-112.027
74.1346
-139.721
6.92578
38.2274
39.834
42.5547
43.5713
43.7205
43.4928
43.0254
42.4919
41.8785
41.1979
40.2411
39.0655
37.7964
36.4908
35.1588
33.805
32.4143
31.0377
29.6779
28.2693
26.8444
25.3886
23.9072
22.4119
20.9112
19.4121
17.9183
16.4325
14.9563
13.4898
12.0327
10.5838
9.1415
7.70445
6.27183
4.84269
3.41596
1.99134
0.569517
740.631
627.385
-8.13179
128.241
-172.919
29.0654
43.7145
42.5325
44.099
44.1213
44.0181
43.694
43.1674
42.6256
42.0345
41.2343
40.2103
39.0033
37.7211
36.4093
35.0734
33.7192
32.3233
30.9476
29.5959
28.1809
26.7568
25.3006
23.8187
22.3235
20.8229
19.3238
17.8298
16.3438
14.8674
13.4009
11.9436
10.4944
9.05221
7.61554
6.18316
4.75412
3.32761
1.9039
0.482587
390.579
866.728
455.581
483.244
-200.634
62.1703
41.1037
44.1832
45.9893
44.5696
44.2485
43.8633
43.2578
42.682
42.0307
41.2116
40.2012
39.0154
37.7105
36.3652
35.012
33.6496
32.2382
30.8643
29.5286
28.1007
26.6782
25.2194
23.7341
22.2373
20.7356
19.2353
17.7405
16.2539
14.7772
13.3105
11.8532
10.4041
8.962
7.52551
6.09336
4.66463
3.23853
1.81559
0.394167
924.019
904.491
955.868
490.783
166.075
150.733
39.1305
47.5089
48.5583
44.9039
44.534
44.0235
43.5027
43.0016
42.2993
41.3152
40.1868
38.9126
37.6079
36.2945
34.9608
33.6026
32.1628
30.7916
29.4822
28.0259
26.6121
25.1493
23.6602
22.1613
20.6573
19.1543
17.6567
16.1678
14.6894
13.2216
11.7635
10.314
8.87178
7.43536
6.00339
4.57498
3.14919
1.72683
0.305324
928.421
913.866
948.112
1098.24
68.2223
125.206
31.0083
49.1402
50.2042
44.787
44.8697
44.2032
43.8157
43.2129
42.4218
41.3372
40.1658
38.8639
37.554
36.2389
34.901
33.5526
32.0831
30.7278
29.4697
27.97
26.5804
25.1138
23.6251
22.1276
20.6241
19.1201
17.6209
16.1299
14.6494
13.1796
11.7198
10.2686
8.82472
7.38672
5.9535
4.52434
3.09784
1.67506
0.250306
928.251
913.723
948.511
494.198
-27.9884
92.4262
29.7486
49.7178
50.8751
44.7732
44.9847
44.2305
45.2192
43.18
42.3713
41.2945
40.1227
38.8155
37.5073
36.1984
34.8688
33.5314
32.0561
30.7085
29.4671
27.9527
26.5722
25.1096
23.6286
22.1399
20.6433
19.1433
17.6451
16.1526
14.6687
13.1943
11.7292
10.2726
8.82358
7.38111
5.94423
4.51219
3.08341
1.65894
0.231632
928.138
914.184
947.657
572.438
196.777
75.8505
31.1893
50.0752
51.4896
44.7886
45.083
44.2696
44.1108
43.1689
42.3469
41.266
40.0851
38.7694
37.4627
36.1607
34.84
33.5116
32.0301
30.6909
29.4647
27.9377
26.5853
25.1781
23.7275
22.2425
20.7368
19.2222
17.7076
16.199
14.7006
13.2138
11.7386
10.2743
8.81943
7.37274
5.93275
4.49841
3.0679
1.64226
0.213985
928.018
914.634
949.427
956.484
89.0371
33.6356
34.9917
51.0497
51.9663
44.8391
45.1705
44.3053
43.8097
43.13
42.3069
41.2223
40.0377
38.7186
37.4176
36.126
34.8161
33.4964
32.0112
30.6847
29.5029
28.084
26.6692
25.2118
23.7216
22.2083
20.6831
19.1559
17.6345
16.1241
14.6279
13.1463
11.6781
10.2213
8.77365
7.33327
5.89855
4.46845
3.04121
1.61788
0.191199
928.827
914.682
952.458
853.011
268.484
33.9698
36.4081
50.5017
54.3606
44.9308
45.2541
44.3557
43.7544
43.099
42.2643
41.1826
39.994
38.6737
37.3772
36.0946
34.7937
33.4747
31.9857
30.6655
29.4631
27.9338
26.4805
25.0326
23.5697
22.078
20.5703
19.0588
17.5519
16.0548
14.57
13.0976
11.6367
10.1855
8.74197
7.30472
5.87239
4.44409
3.01825
1.59595
0.171351
1537.99
1504.23
1470.92
1491.33
1342.68
1534.78
1506.93
1473.25
1507.58
1371.78
1534.35
1508.35
1475.97
1514.85
1420.89
1536.88
1508.57
1478.1
1516.92
1454.4
1542.46
1508.29
1479.12
1523.15
1475.81
1019.44
906.96
959.366
910.621
446.256
1.04979
34.1138
49.0968
47.076
45.2376
45.4726
44.5697
43.7861
43.0539
42.1699
41.0899
39.8866
38.5692
37.2804
36.0162
34.7345
33.3977
31.9229
30.6023
29.1855
27.8298
26.3824
24.921
23.4489
21.9587
20.4584
18.9572
17.4612
15.9737
14.4966
13.0299
11.5729
10.1243
8.68258
7.24666
5.81536
4.3878
2.96275
1.54073
0.118733
1379.75
904.353
896.098
972.285
-1.71916
-82.6851
18.2362
44.2143
47.8491
45.0464
45.6357
44.6721
43.8491
43.0509
42.146
41.1127
40.0408
38.9076
37.7411
36.5296
35.2561
33.9527
32.2117
30.6799
29.1371
27.7246
26.2769
24.8128
23.3391
21.8517
20.3561
18.8597
17.3678
15.8836
14.4087
12.9432
11.4866
10.0378
8.59591
7.15974
5.72825
4.30047
2.87526
1.45276
0.0309455
1435.81
765.478
689.663
894.638
-183.824
-76.395
19.1346
39.6398
47.6712
45.2455
45.9705
44.8039
43.9762
43.1752
42.2533
41.2549
40.1729
38.9457
37.6283
36.2075
34.6647
33.0895
31.9216
30.5492
29.0488
27.6177
26.17
24.7084
23.2371
21.7535
20.2617
18.7683
17.2786
15.7959
14.3218
12.8567
11.4
9.95101
8.50883
7.07247
5.64084
4.21288
2.78741
1.36427
-0.0570559
1589.5
1261.44
652.685
770.9
-150.405
-20.394
27.4196
38.8933
48.164
45.3225
46.2283
45.3507
44.4491
43.4146
42.2087
40.8707
39.6409
38.601
37.4451
36.0807
34.57
33.0334
31.8128
30.4452
28.9648
27.5256
26.0776
24.6176
23.147
21.6643
20.1731
18.6801
17.1908
15.7083
14.2343
12.769
11.3121
9.86301
8.42076
6.98439
5.55277
4.12479
2.69926
1.27549
-0.146069
1615.18
1523.86
653.47
650.197
-58.021
-18.1552
32.0481
38.9176
48.5634
45.8462
46.5109
45.2983
44.8094
44.1025
42.9842
41.6144
40.306
39.158
37.8681
36.3601
34.7168
33.0897
31.8156
30.4087
28.9053
27.4503
25.9956
24.5327
23.0604
21.5765
20.0848
18.5914
17.1018
15.6191
14.145
12.6799
11.2232
9.77427
8.33218
6.8959
5.46433
4.03635
2.61071
1.18676
-0.166307
)
;

boundaryField
{
    AirInlet
    {
        type            calculated;
        value           nonuniform List<scalar> 5(928.901 928.156 926.929 929.622 928.827);
    }
    WaterInlet
    {
        type            calculated;
        value           nonuniform List<scalar> 10(666.652 661.06 658.458 658.796 662.018 1537.98 1534.77 1534.34 1536.88 1542.46);
    }
    ChannelWall
    {
        type            calculated;
        value           nonuniform List<scalar> 
110
(
661.974
628.699
597.962
623.293
532.602
1538.02
1504.26
1470.95
1491.36
1342.72
1542.44
1508.26
1479.08
1523.12
1475.76
1615.14
1523.82
653.463
650.191
-58.0543
-18.1993
32.0039
38.8735
48.5193
45.802
46.4667
45.2541
44.7652
44.0584
42.94
41.5702
40.2619
39.1138
37.824
36.3159
34.6727
33.0456
31.7714
30.3645
28.8612
27.4061
25.9514
24.4885
23.0162
21.5323
20.0406
18.5473
17.0576
15.5749
14.1009
12.6357
11.179
9.73013
8.28803
6.85176
5.42018
3.9922
2.56657
1.14261
-0.210451
666.676
632.452
600.095
627.239
543.947
574.179
557.438
-3.92775
38.275
-81.162
-2.09333
29.1071
35.0981
41.0911
43.44
44.0203
43.9367
43.5356
43.0616
42.4841
41.788
40.7751
39.5187
38.169
36.7968
35.4153
34.0235
32.6049
31.2115
29.8371
28.4209
26.9895
25.528
24.0427
22.5454
21.0432
19.5434
18.0496
16.5638
15.0875
13.621
12.1641
10.7153
9.27319
7.83652
6.40417
4.97526
3.54867
2.12322
0.7711
)
;
    }
    Outlet
    {
        type            calculated;
        value           nonuniform List<scalar> 
15
(
-0.0441443
-0.132435
-0.220725
-0.309015
-0.397305
-0.451259
-0.470879
-0.490498
-0.510118
-0.529739
-0.583694
-0.671985
-0.760275
-0.848565
-0.936841
)
;
    }
    FrontAndBack
    {
        type            empty;
    }
}


// ************************************************************************* //
