/*--------------------------------*- C++ -*----------------------------------*\
| =========                 |                                                 |
| \\      /  F ield         | OpenFOAM: The Open Source CFD Toolbox           |
|  \\    /   O peration     | Version:  2.3.0                                 |
|   \\  /    A nd           | Web:      www.OpenFOAM.org                      |
|    \\/     M anipulation  |                                                 |
\*---------------------------------------------------------------------------*/
FoamFile
{
    version     2.0;
    format      ascii;
    class       volScalarField;
    location    "0.006";
    object      p_rgh;
}
// * * * * * * * * * * * * * * * * * * * * * * * * * * * * * * * * * * * * * //

dimensions      [1 -1 -2 0 0 0 0];

internalField   nonuniform List<scalar> 
725
(
666.676
632.452
600.095
627.239
543.947
661.134
633.399
601.933
647.531
559.887
658.581
633.027
600.729
644.041
515.789
658.968
631.057
597.33
618.861
442.199
662.239
629.004
598.305
623.676
533.02
574.179
557.438
-3.92775
38.275
-81.162
-2.09333
29.1071
35.0981
41.0911
43.44
44.0203
43.9367
43.5356
43.0616
42.4841
41.788
40.7751
39.5187
38.169
36.7968
35.4153
34.0235
32.6049
31.2115
29.8371
28.4209
26.9895
25.528
24.0427
22.5454
21.0432
19.5434
18.0496
16.5638
15.0875
13.621
12.1641
10.7153
9.27319
7.83652
6.40417
4.97526
3.54867
2.12322
0.7711
596.209
151.285
-111.99
74.1872
-139.609
7.0582
38.3599
39.9664
42.6871
43.7037
43.8529
43.6252
43.1579
42.6243
42.0109
41.3303
40.3735
39.1979
37.9289
36.6233
35.2912
33.9375
32.5468
31.1701
29.8103
28.4017
26.9769
25.521
24.0396
22.5443
21.0436
19.5445
18.0507
16.5649
15.0887
13.6223
12.1652
10.7163
9.27393
7.83688
6.40426
4.97512
3.54839
2.12377
0.701952
740.849
627.413
-8.08045
128.316
-172.732
29.2861
43.9352
42.7532
44.3197
44.342
44.2388
43.9147
43.3881
42.8463
42.2552
41.455
40.431
39.2239
37.9418
36.63
35.2941
33.9399
32.544
31.1683
29.8167
28.4016
26.9775
25.5213
24.0394
22.5443
21.0436
19.5445
18.0505
16.5645
15.0882
13.6216
12.1643
10.7152
9.27294
7.83627
6.40388
4.97484
3.54833
2.12463
0.703312
390.728
866.733
455.612
483.309
-200.397
62.4793
41.4127
44.4922
46.2983
44.8785
44.5574
44.1722
43.5668
42.991
42.3397
41.5205
40.5102
39.3244
38.0195
36.6741
35.3209
33.9586
32.5471
31.1732
29.8376
28.4096
26.9872
25.5284
24.0431
22.5463
21.0446
19.5443
18.0495
16.5629
15.0862
13.6195
12.1622
10.7131
9.27101
7.83452
6.40237
4.97365
3.54755
2.1246
0.703182
924.02
904.492
955.868
490.851
166.377
151.131
39.5278
47.9062
48.9555
45.3011
44.9312
44.4207
43.8999
43.3988
42.6966
41.7125
40.5841
39.3098
38.0051
36.6917
35.358
33.9998
32.56
31.1888
29.8794
28.4231
27.0093
25.5465
24.0574
22.5585
21.0545
19.5515
18.054
16.5651
15.0867
13.6189
12.1608
10.7113
9.26908
7.83266
6.4007
4.97228
3.54649
2.12413
0.702629
928.422
913.867
948.113
1098.36
68.5582
125.654
31.4596
49.5914
50.6554
45.2382
45.3209
44.6544
44.2669
43.6641
42.873
41.7884
40.617
39.315
38.0051
36.6901
35.3521
34.0038
32.5342
31.1789
29.9208
28.4211
27.0315
25.5649
24.0762
22.5788
21.0752
19.5713
18.0721
16.5812
15.1006
13.6308
12.171
10.7199
9.27597
7.83797
6.40475
4.9756
3.5491
2.12632
0.701565
928.251
913.724
948.513
494.274
-27.6414
92.8943
30.2194
50.1886
51.3459
45.244
45.4555
44.7013
45.69
43.6508
42.8421
41.7653
40.5935
39.2863
37.978
36.6691
35.3396
34.0021
32.5268
31.1792
29.9378
28.4234
27.0429
25.5803
24.0994
22.6106
21.1141
19.6141
18.1159
16.6234
15.1395
13.6651
12.2
10.7435
9.29444
7.85198
6.4151
4.98307
3.55429
2.12982
0.702511
928.138
914.185
947.659
572.489
197.111
76.3359
31.6797
50.5656
51.98
45.279
45.5735
44.76
44.6013
43.6593
42.8373
41.7564
40.5755
39.2598
37.9531
36.6511
35.3304
34.0019
32.5205
31.1812
29.9551
28.428
27.0756
25.6684
24.2179
22.7329
21.2272
19.7126
18.198
16.6895
15.191
13.7042
12.2291
10.7647
9.30991
7.86323
6.42324
4.9889
3.5584
2.13275
0.704483
928.018
914.634
949.428
956.515
89.3881
34.1438
35.5017
51.5596
52.4763
45.3491
45.6805
44.8154
44.3198
43.64
42.817
41.7324
40.5478
39.2286
37.9276
36.6359
35.3261
34.0064
32.5212
31.1946
30.0128
28.5939
27.1791
25.7217
24.2316
22.7183
21.1931
19.6659
18.1445
16.6342
15.138
13.6563
12.1882
10.7314
9.28376
7.84338
6.40866
4.97856
3.55133
2.128
0.701318
928.828
914.683
952.459
853.046
268.857
34.4992
36.9378
51.0313
54.8902
45.4605
45.7838
44.8854
44.284
43.6286
42.794
41.7123
40.5236
39.2034
37.9068
36.6242
35.3233
34.0042
32.5153
31.1951
29.9926
28.4634
27.01
25.5621
24.0992
22.6076
21.0999
19.5884
18.0816
16.5845
15.0996
13.6273
12.1664
10.7152
9.27169
7.83445
6.40213
4.97383
3.54799
2.12568
0.701089
1538.74
1504.93
1471.59
1491.96
1343.28
1535.58
1507.7
1473.99
1508.3
1372.46
1535.2
1509.18
1476.78
1515.64
1421.66
1537.78
1509.46
1478.98
1517.79
1455.26
1543.42
1509.24
1480.06
1524.1
1476.74
1019.54
906.961
959.367
910.644
446.646
1.63347
34.6974
49.6804
47.6597
45.8213
46.0562
45.1533
44.3697
43.6375
42.7535
41.6734
40.4702
39.1528
37.8639
36.5997
35.318
33.9812
32.5064
31.1858
29.769
28.4133
26.9659
25.5045
24.0325
22.5423
21.042
19.5408
18.0448
16.5574
15.0802
13.6136
12.1566
10.7079
9.26627
7.83034
6.39905
4.97149
3.54645
2.12442
0.702427
1380.35
904.411
896.106
972.301
-1.35697
-82.0132
18.9081
44.8862
48.521
45.7183
46.3076
45.344
44.521
43.7228
42.8178
41.7845
40.7126
39.5794
38.4128
37.2013
35.9278
34.6244
32.8834
31.3516
29.8089
28.3963
26.9487
25.4846
24.011
22.5236
21.028
19.5316
18.0398
16.5556
15.0806
13.6152
12.1586
10.7098
9.2679
7.83172
6.40023
4.97245
3.54724
2.12474
0.70293
1436.5
765.743
689.745
894.679
-183.333
-75.6347
19.8949
40.4
48.4313
46.0058
46.7307
45.564
44.7364
43.9353
43.0134
42.015
40.933
39.7057
38.3883
36.9676
35.4248
33.8496
32.6817
31.3094
29.8089
28.3779
26.9302
25.4687
23.9974
22.5138
21.022
19.5286
18.0389
16.5562
15.0821
13.6169
12.1603
10.7113
9.2691
7.83274
6.40111
4.97316
3.54769
2.12454
0.703219
1590.31
1262.04
652.817
770.98
-149.819
-19.5454
28.2681
39.7417
49.0124
46.1709
47.0767
46.1991
45.2975
44.263
43.0571
41.719
40.4892
39.4495
38.2935
36.9291
35.4185
33.8819
32.6613
31.2938
29.8134
28.3741
26.9262
25.4662
23.9956
22.5128
21.0217
19.5287
18.0393
16.5568
15.0828
13.6176
12.1607
10.7116
9.26933
7.83296
6.40134
4.97336
3.54782
2.12406
0.702496
1616.06
1524.58
653.616
650.316
-57.3151
-17.2202
32.9849
39.8543
49.5001
46.7828
47.4476
46.235
45.7462
45.0393
43.921
42.5512
41.2429
40.0948
38.805
37.2969
35.6537
34.0266
32.7524
31.3455
29.8422
28.3871
26.9324
25.4695
23.9972
22.5133
21.0216
19.5283
18.0386
16.5559
15.0819
13.6167
12.16
10.7111
9.26903
7.83276
6.40118
4.9732
3.54757
2.12361
0.770534
)
;

boundaryField
{
    AirInlet
    {
        type            fixedFluxPressure;
        gradient        nonuniform List<scalar> 5(47948.8 -9503.85 -120895 160426 -13.9788);
        value           nonuniform List<scalar> 5(928.901 928.156 926.93 929.622 928.828);
    }
    WaterInlet
    {
        type            fixedFluxPressure;
        gradient        nonuniform List<scalar> 10(-0.00226146 -0.232659 -0.354545 0.0287367 0.00627165 0.00773709 -0.967991 0.543185 -2.57447 -4.53814);
        value           nonuniform List<scalar> 10(666.676 661.134 658.581 658.968 662.239 1538.74 1535.58 1535.2 1537.78 1543.42);
    }
    ChannelWall
    {
        type            fixedFluxPressure;
        gradient        uniform 0;
        value           nonuniform List<scalar> 
110
(
662.239
629.004
598.305
623.676
533.02
1538.74
1504.93
1471.59
1491.96
1343.28
1543.42
1509.24
1480.06
1524.1
1476.74
1616.06
1524.58
653.616
650.316
-57.3151
-17.2202
32.9849
39.8543
49.5001
46.7828
47.4476
46.235
45.7462
45.0393
43.921
42.5512
41.2429
40.0948
38.805
37.2969
35.6537
34.0266
32.7524
31.3455
29.8422
28.3871
26.9324
25.4695
23.9972
22.5133
21.0216
19.5283
18.0386
16.5559
15.0819
13.6167
12.16
10.7111
9.26903
7.83276
6.40118
4.9732
3.54757
2.12361
0.770534
666.676
632.452
600.095
627.239
543.947
574.179
557.438
-3.92775
38.275
-81.162
-2.09333
29.1071
35.0981
41.0911
43.44
44.0203
43.9367
43.5356
43.0616
42.4841
41.788
40.7751
39.5187
38.169
36.7968
35.4153
34.0235
32.6049
31.2115
29.8371
28.4209
26.9895
25.528
24.0427
22.5454
21.0432
19.5434
18.0496
16.5638
15.0875
13.621
12.1641
10.7153
9.27319
7.83652
6.40417
4.97526
3.54867
2.12322
0.7711
)
;
    }
    Outlet
    {
        type            totalPressure;
        rho             rho;
        psi             none;
        gamma           1;
        p0              uniform 0;
        value           uniform 0;
    }
    FrontAndBack
    {
        type            empty;
    }
}


// ************************************************************************* //
