/*--------------------------------*- C++ -*----------------------------------*\
| =========                 |                                                 |
| \\      /  F ield         | OpenFOAM: The Open Source CFD Toolbox           |
|  \\    /   O peration     | Version:  2.3.0                                 |
|   \\  /    A nd           | Web:      www.OpenFOAM.org                      |
|    \\/     M anipulation  |                                                 |
\*---------------------------------------------------------------------------*/
FoamFile
{
    version     2.0;
    format      ascii;
    class       volVectorField;
    location    "0.006";
    object      U;
}
// * * * * * * * * * * * * * * * * * * * * * * * * * * * * * * * * * * * * * //

dimensions      [0 1 -1 0 0 0 0];

internalField   nonuniform List<vector> 
725
(
(0.043639 0.00697451 -3.8513e-31)
(0.0580509 0.00119227 1.15993e-31)
(0.0204987 0.000314331 1.07979e-31)
(0.0667086 -0.0142017 0)
(0.0491057 0.000763997 -9.26494e-31)
(0.0840272 0.0137737 -1.7453e-30)
(0.117228 0.00837255 3.63491e-31)
(0.0434159 0.00650313 5.04242e-32)
(0.101564 0.00422376 0)
(-0.248788 0.06778 4.23566e-30)
(0.0959294 0.0095366 -4.374e-31)
(0.135398 0.0150592 -1.28459e-31)
(0.0563415 0.0182358 -1.21303e-30)
(0.143721 0.0793813 0)
(-0.205662 0.155548 1.06304e-29)
(0.0853118 0.00300149 2.23901e-30)
(0.116766 0.0165453 -3.05302e-31)
(0.0587044 0.0171592 -8.63742e-31)
(0.195706 0.0823968 0)
(0.267722 0.102035 -7.86853e-30)
(0.0442498 0.0013207 2.35814e-30)
(0.0557751 0.0100765 -3.11907e-31)
(0.0254345 0.0048943 2.66922e-31)
(0.0939891 0.020961 1.74641e-30)
(0.0766814 -0.0606168 -1.94349e-29)
(-0.0889714 0.0679344 0)
(-0.222965 0.101486 0)
(-0.00238958 -0.126204 0)
(0.336909 -0.0545982 0)
(0.368611 0.0509133 0)
(0.169145 0.02216 0)
(0.0562581 0.00453153 0)
(0.0331743 0.00100348 0)
(0.0241701 0.000113087 0)
(0.0211601 -9.24133e-05 0)
(0.0197665 -2.8095e-05 0)
(0.0184883 2.27402e-05 0)
(0.0172022 7.09065e-05 0)
(0.0161263 4.79484e-05 0)
(0.0155502 1.80891e-05 0)
(0.0155525 -4.98297e-05 0)
(0.0158451 -3.63469e-05 0)
(0.0159865 -2.92441e-06 0)
(0.0159449 8.65512e-06 0)
(0.0158721 5.08731e-06 0)
(0.0158532 -2.25187e-07 0)
(0.0158871 -3.67733e-06 0)
(0.015876 1.04816e-05 0)
(0.0158387 5.17811e-06 0)
(0.0158847 -9.14805e-06 0)
(0.0159764 -6.94436e-06 0)
(0.0160722 -1.04774e-05 0)
(0.0161633 -8.32021e-06 0)
(0.0162204 -4.41819e-06 0)
(0.0162428 -1.15664e-06 0)
(0.0162409 1.28966e-06 0)
(0.0162227 2.93987e-06 0)
(0.0161939 3.98521e-06 0)
(0.0161599 4.3421e-06 0)
(0.0161255 4.14102e-06 0)
(0.0160938 3.70237e-06 0)
(0.0160661 3.22164e-06 0)
(0.0160429 2.6089e-06 0)
(0.0160242 2.13488e-06 0)
(0.0160091 1.75523e-06 0)
(0.0159972 1.34059e-06 0)
(0.0159888 8.14003e-07 0)
(0.0159845 1.01133e-07 0)
(0.015994 -1.85206e-06 0)
(0.0160664 -1.53864e-05 0)
(-0.356028 0.0383313 0)
(0.340214 -0.118188 0)
(0.770486 -0.11838 0)
(0.230557 -0.127049 0)
(0.46575 0.0942651 0)
(0.374961 0.0932796 0)
(0.165556 0.0589292 0)
(0.0888703 0.0198912 0)
(0.0673212 0.00503714 0)
(0.0581567 0.00204089 0)
(0.0530186 0.00141957 0)
(0.0491001 0.00123857 0)
(0.0456399 0.00114916 0)
(0.0428668 0.000758528 0)
(0.0413559 0.000322638 0)
(0.0411543 -0.000158654 0)
(0.0415856 -0.000179924 0)
(0.0418175 -2.09349e-05 0)
(0.0417284 5.58837e-05 0)
(0.0415895 3.49287e-05 0)
(0.0415799 -1.1333e-05 0)
(0.0416993 -3.09071e-05 0)
(0.0417384 2.60107e-05 0)
(0.0417262 -4.75081e-06 0)
(0.0418722 -7.87553e-05 0)
(0.0420986 -7.91403e-05 0)
(0.0423221 -8.7356e-05 0)
(0.0425228 -6.65688e-05 0)
(0.0426444 -3.45804e-05 0)
(0.0426899 -8.62736e-06 0)
(0.0426847 9.19982e-06 0)
(0.0426475 2.07558e-05 0)
(0.0425911 2.74865e-05 0)
(0.0425256 2.97694e-05 0)
(0.0424594 2.86011e-05 0)
(0.0423982 2.55814e-05 0)
(0.0423447 2.19511e-05 0)
(0.0422998 1.80032e-05 0)
(0.0422631 1.45656e-05 0)
(0.0422339 1.16155e-05 0)
(0.0422112 8.81503e-06 0)
(0.0421946 5.71026e-06 0)
(0.0421833 1.00455e-06 0)
(0.0421811 -1.17049e-05 0)
(0.0421865 -3.5928e-05 0)
(0.1598 -0.170424 0)
(0.816455 -0.53617 0)
(0.547724 0.146145 0)
(0.314665 -0.17721 0)
(0.445109 0.0920586 0)
(0.332081 0.134925 0)
(0.187417 0.117876 0)
(0.116671 0.0470834 0)
(0.0928077 0.0124969 0)
(0.0822316 0.00568509 0)
(0.0754876 0.00388456 0)
(0.0707515 0.00318837 0)
(0.0667567 0.00285411 0)
(0.0634786 0.00189362 0)
(0.0617485 0.000783447 0)
(0.061511 -0.000200932 0)
(0.0619036 -0.000332853 0)
(0.0621364 -3.81502e-05 0)
(0.0620137 0.000121816 0)
(0.0618268 7.25732e-05 0)
(0.0618134 -4.12704e-05 0)
(0.0619916 -9.21083e-05 0)
(0.0620603 2.73691e-05 0)
(0.0620258 -3.30573e-05 0)
(0.0621964 -0.000192638 0)
(0.062462 -0.000188872 0)
(0.0627043 -0.000200831 0)
(0.0629233 -0.000150048 0)
(0.0630494 -7.61595e-05 0)
(0.0630907 -1.80756e-05 0)
(0.0630812 2.00894e-05 0)
(0.0630428 4.40115e-05 0)
(0.0629882 5.74374e-05 0)
(0.0629265 6.18975e-05 0)
(0.0628654 5.95503e-05 0)
(0.0628096 5.33284e-05 0)
(0.0627614 4.56941e-05 0)
(0.0627211 3.77331e-05 0)
(0.0626882 3.05117e-05 0)
(0.0626621 2.41401e-05 0)
(0.0626418 1.84031e-05 0)
(0.0626265 1.26861e-05 0)
(0.0626141 5.65069e-06 0)
(0.0626062 -9.12263e-06 0)
(0.0625826 -2.64478e-05 0)
(0.724098 -0.208927 0)
(1.16691 -0.55872 0)
(0.587399 0.42317 0)
(0.30016 -0.218986 0)
(0.24325 0.21693 0)
(0.183711 0.158142 0)
(0.171494 0.154979 0)
(0.12498 0.0671245 0)
(0.105038 0.0188592 0)
(0.0957076 0.00977629 0)
(0.0885998 0.00650859 0)
(0.0843095 0.00507585 0)
(0.0810015 0.00453173 0)
(0.0780894 0.0030665 0)
(0.0764067 0.00122925 0)
(0.0761735 -0.000263666 0)
(0.0765911 -0.000490434 0)
(0.0768621 -4.45841e-05 0)
(0.0767529 0.000217589 0)
(0.0765381 0.000128946 0)
(0.0765165 -7.55897e-05 0)
(0.0767524 -0.000174339 0)
(0.0768422 3.97235e-05 0)
(0.0767299 -4.26076e-05 0)
(0.0768616 -0.000314041 0)
(0.0770833 -0.000283631 0)
(0.0772333 -0.000305525 0)
(0.0773772 -0.00022367 0)
(0.0774425 -0.000108853 0)
(0.0774472 -2.27171e-05 0)
(0.0774292 3.07208e-05 0)
(0.0774054 6.26535e-05 0)
(0.077381 7.97871e-05 0)
(0.0773583 8.48085e-05 0)
(0.077339 8.08324e-05 0)
(0.0773237 7.18637e-05 0)
(0.0773121 6.12096e-05 0)
(0.0773032 5.04897e-05 0)
(0.0772962 4.07463e-05 0)
(0.077291 3.21579e-05 0)
(0.0772868 2.46692e-05 0)
(0.0772836 1.76797e-05 0)
(0.0772783 1.0392e-05 0)
(0.0772731 -2.84432e-06 0)
(0.0772402 -1.55643e-05 0)
(0.230644 -0.338129 0)
(-1.81813 -0.443949 0)
(0.943459 0.423718 0)
(0.331593 -0.124292 0)
(0.422754 0.355572 0)
(0.0589753 0.150201 0)
(0.158058 0.157785 0)
(0.124311 0.0766875 0)
(0.107764 0.0232738 0)
(0.100667 0.014352 0)
(0.0935596 0.00902156 0)
(0.0902446 0.00658575 0)
(0.08829 0.00580288 0)
(0.0865418 0.00404121 0)
(0.0852528 0.00167486 0)
(0.0848588 -0.000250817 0)
(0.0850623 -0.000659393 0)
(0.0853837 -0.000136874 0)
(0.0854562 0.000242495 0)
(0.0854149 0.000152904 0)
(0.0854979 -0.000130377 0)
(0.0858622 -0.000285496 0)
(0.0860212 8.43379e-05 0)
(0.085819 -1.66788e-06 0)
(0.0858905 -0.000425612 0)
(0.0860068 -0.000315266 0)
(0.0859509 -0.000359668 0)
(0.0859173 -0.000251201 0)
(0.0858462 -0.000109896 0)
(0.0857757 -1.3821e-05 0)
(0.0857416 3.88244e-05 0)
(0.0857471 6.69572e-05 0)
(0.0857819 8.05255e-05 0)
(0.0858341 8.27638e-05 0)
(0.0858937 7.68923e-05 0)
(0.0859532 6.70073e-05 0)
(0.0860076 5.6289e-05 0)
(0.0860546 4.60729e-05 0)
(0.0860934 3.69673e-05 0)
(0.0861249 2.90616e-05 0)
(0.0861494 2.2435e-05 0)
(0.086168 1.65506e-05 0)
(0.0861785 1.15421e-05 0)
(0.0861848 2.44905e-06 0)
(0.086157 -4.57771e-06 0)
(0.208326 -0.208134 0)
(-2.50951 -0.182321 0)
(2.22773 -0.638198 0)
(-1.24859 0.0307673 0)
(0.461498 0.399404 0)
(0.120009 0.17008 0)
(0.16231 0.161781 0)
(0.123349 0.0821413 0)
(0.104259 0.0261728 0)
(0.0988564 0.016433 0)
(0.0922767 0.0101249 0)
(0.0896268 0.00708957 0)
(0.088511 0.00605308 0)
(0.0878213 0.00427658 0)
(0.0870649 0.00182303 0)
(0.0868397 -0.000214486 0)
(0.0869441 -0.000711417 0)
(0.0870649 -0.000172724 0)
(0.0869646 0.000242231 0)
(0.0868631 0.000137981 0)
(0.0869876 -0.000211205 0)
(0.0875206 -0.000393843 0)
(0.0878608 8.55652e-05 0)
(0.0877262 2.58592e-05 0)
(0.0878402 -0.000455119 0)
(0.0879016 -0.000280878 0)
(0.0876827 -0.000312868 0)
(0.0874879 -0.000202135 0)
(0.0872921 -6.7555e-05 0)
(0.0871561 1.03178e-05 0)
(0.0871078 4.20909e-05 0)
(0.0871389 5.31989e-05 0)
(0.0872267 5.56648e-05 0)
(0.087347 5.23913e-05 0)
(0.0874791 4.54387e-05 0)
(0.0876081 3.74642e-05 0)
(0.0877248 3.02755e-05 0)
(0.0878251 2.41724e-05 0)
(0.087908 1.90885e-05 0)
(0.0879749 1.48458e-05 0)
(0.0880271 1.14366e-05 0)
(0.0880673 8.56704e-06 0)
(0.0880943 6.29151e-06 0)
(0.0881145 1.95058e-06 0)
(0.0880998 -1.38173e-06 0)
(0.239182 -0.0858135 0)
(-2.47448 -0.143064 0)
(1.96705 -0.782311 0)
(-1.49051 0.205159 0)
(0.226242 0.341927 0)
(0.104726 0.173395 0)
(0.162233 0.162164 0)
(0.122425 0.084659 0)
(0.102182 0.0273812 0)
(0.0976488 0.0170654 0)
(0.0914129 0.0105353 0)
(0.0890798 0.00726737 0)
(0.088326 0.00610805 0)
(0.0880533 0.00433815 0)
(0.0874981 0.00186333 0)
(0.0873526 -0.000208688 0)
(0.0874341 -0.000722134 0)
(0.0874949 -0.000172105 0)
(0.0873406 0.000252996 0)
(0.0872141 0.000136632 0)
(0.0873376 -0.00024462 0)
(0.0879103 -0.000440346 0)
(0.0882985 7.54956e-05 0)
(0.0881788 2.82791e-05 0)
(0.0882899 -0.000465025 0)
(0.0883134 -0.000267875 0)
(0.0880253 -0.000289236 0)
(0.0877615 -0.000178955 0)
(0.0875162 -4.85994e-05 0)
(0.0873553 2.05791e-05 0)
(0.087302 4.29615e-05 0)
(0.0873432 4.6505e-05 0)
(0.0874516 4.4024e-05 0)
(0.0875983 3.82871e-05 0)
(0.0877587 3.08566e-05 0)
(0.087915 2.37488e-05 0)
(0.0880564 1.81606e-05 0)
(0.0881779 1.39365e-05 0)
(0.0882785 1.07157e-05 0)
(0.0883595 8.18503e-06 0)
(0.0884229 6.26725e-06 0)
(0.0884718 4.77788e-06 0)
(0.0885054 3.63447e-06 0)
(0.0885309 1.27101e-06 0)
(0.088522 -7.24055e-07 0)
(0.314779 0.033126 0)
(-2.46131 -0.0865409 0)
(-1.04702 -1.00853 0)
(-2.64157 0.354249 0)
(0.113163 0.197669 0)
(0.169443 0.169839 0)
(0.159466 0.165451 0)
(0.119972 0.0874902 0)
(0.0993192 0.0286137 0)
(0.0959288 0.0176177 0)
(0.0901697 0.0109248 0)
(0.0883748 0.0074173 0)
(0.0879589 0.00613299 0)
(0.0879667 0.00437185 0)
(0.087691 0.00188739 0)
(0.0876423 -0.000207622 0)
(0.0877186 -0.000728504 0)
(0.0877373 -0.000164996 0)
(0.087545 0.000268853 0)
(0.0873979 0.000137727 0)
(0.0875106 -0.000279288 0)
(0.0881025 -0.000490126 0)
(0.0885181 6.16559e-05 0)
(0.0884007 2.98202e-05 0)
(0.0884848 -0.000472059 0)
(0.0884487 -0.000249472 0)
(0.0880829 -0.000257821 0)
(0.0877424 -0.000149261 0)
(0.0874504 -2.5819e-05 0)
(0.0872723 3.20712e-05 0)
(0.0872221 4.31618e-05 0)
(0.0872801 3.7833e-05 0)
(0.0874134 2.96225e-05 0)
(0.0875885 2.10965e-05 0)
(0.0877774 1.32106e-05 0)
(0.0879598 7.21445e-06 0)
(0.0881239 3.59767e-06 0)
(0.0882641 1.67543e-06 0)
(0.0883793 7.2901e-07 0)
(0.0884715 2.64258e-07 0)
(0.0885434 1.16816e-07 0)
(0.0885989 2.39004e-07 0)
(0.0886374 3.94926e-07 0)
(0.0886662 1.991e-07 0)
(0.0886611 -4.9314e-07 0)
(0.392164 0.140556 0)
(-2.48184 0.0904637 0)
(-4.21119 -1.05795 0)
(-3.85036 0.369749 0)
(0.302997 -0.0783178 0)
(0.379715 0.169429 0)
(0.154497 0.177207 0)
(0.115777 0.0904777 0)
(0.0956477 0.0297326 0)
(0.0937028 0.0180761 0)
(0.088584 0.0112498 0)
(0.0874184 0.00750721 0)
(0.0873707 0.00613343 0)
(0.0876567 0.00437152 0)
(0.087682 0.00189181 0)
(0.0877352 -0.000212357 0)
(0.0878109 -0.000733738 0)
(0.0877937 -0.00015527 0)
(0.0875708 0.000286428 0)
(0.0874043 0.000139788 0)
(0.0874973 -0.000314232 0)
(0.0880902 -0.000541471 0)
(0.0885151 4.70119e-05 0)
(0.0883917 3.33815e-05 0)
(0.0884238 -0.000473933 0)
(0.0883104 -0.000223096 0)
(0.0878926 -0.000220169 0)
(0.0875439 -0.000117673 0)
(0.0873012 -4.44282e-06 0)
(0.0871819 4.11806e-05 0)
(0.0871744 4.10069e-05 0)
(0.0872569 2.71228e-05 0)
(0.0873993 1.3613e-05 0)
(0.0875715 2.76125e-06 0)
(0.087749 -5.16511e-06 0)
(0.0879155 -9.73098e-06 0)
(0.0880622 -1.11545e-05 0)
(0.0881856 -1.06289e-05 0)
(0.0882861 -9.2162e-06 0)
(0.088366 -7.58333e-06 0)
(0.088428 -5.96603e-06 0)
(0.0884758 -4.24921e-06 0)
(0.0885086 -2.80159e-06 0)
(0.0885333 -8.06736e-07 0)
(0.0885227 -2.00119e-07 0)
(0.512425 0.265013 0)
(-2.33735 0.315679 0)
(-4.30039 -0.901801 0)
(-1.99053 0.147834 0)
(0.379309 -0.320287 0)
(0.470037 0.184741 0)
(0.139476 0.193652 0)
(0.109922 0.0932186 0)
(0.091563 0.0307076 0)
(0.0909763 0.0184702 0)
(0.0866399 0.0115089 0)
(0.0861279 0.0075526 0)
(0.0865117 0.00610743 0)
(0.0871286 0.00434196 0)
(0.0874376 0.00187884 0)
(0.0875996 -0.000219906 0)
(0.0876866 -0.000735723 0)
(0.0876482 -0.000139727 0)
(0.0874097 0.000307983 0)
(0.0872296 0.000144783 0)
(0.0872968 -0.000347223 0)
(0.0878721 -0.000595364 0)
(0.088286 3.35731e-05 0)
(0.0881454 3.93365e-05 0)
(0.0881024 -0.00046875 0)
(0.0879523 -0.000195475 0)
(0.0875854 -0.00018351 0)
(0.0872704 -8.98111e-05 0)
(0.0870601 1.1973e-05 0)
(0.0869654 4.65545e-05 0)
(0.0869671 3.70037e-05 0)
(0.0870435 1.6234e-05 0)
(0.0871685 -1.32741e-06 0)
(0.0873166 -1.36858e-05 0)
(0.0874673 -2.12323e-05 0)
(0.0876071 -2.42777e-05 0)
(0.0877292 -2.36545e-05 0)
(0.0878316 -2.09632e-05 0)
(0.0879145 -1.75214e-05 0)
(0.0879804 -1.41117e-05 0)
(0.0880314 -1.10127e-05 0)
(0.0880707 -7.95116e-06 0)
(0.0880971 -5.39038e-06 0)
(0.0881168 -1.37158e-06 0)
(0.0881004 5.74063e-07 0)
(0.0438195 -0.00119984 0)
(0.0556781 -0.0101328 2.17729e-31)
(0.0217988 -0.00651492 5.45473e-31)
(0.111839 -0.0394593 2.54973e-30)
(0.090016 -0.10839 0)
(0.084293 -0.00267154 0)
(0.116275 -0.0150017 0)
(0.0447361 -0.014721 0)
(0.155195 -0.0444275 2.06451e-30)
(-0.129171 -0.129244 0)
(0.0950436 -0.00919991 0)
(0.136757 -0.0126483 0)
(0.0608694 -0.0127259 0)
(0.148856 -0.00103215 7.12608e-31)
(-0.112176 -0.0934514 0)
(0.0834355 -0.0136734 0)
(0.11865 -0.00768756 0)
(0.0543329 -0.0072299 0)
(0.126404 0.00765006 -4.5119e-31)
(0.0226915 -0.0559967 0)
(0.0433857 -0.00699804 0)
(0.0578474 -0.00140958 0)
(0.0207969 -0.00195027 0)
(0.0582788 0.001278 -3.30092e-31)
(0.00498055 -0.016694 0)
(0.544915 0.320596 0)
(-0.955228 0.960721 0)
(-2.02748 -0.993331 0)
(0.418599 -0.396897 0)
(-0.177579 -0.353861 0)
(0.0638433 0.243493 0)
(0.0432222 0.21338 0)
(0.0883895 0.0972021 0)
(0.0789501 0.0332427 0)
(0.0820686 0.0195649 0)
(0.0803819 0.0120092 0)
(0.0817797 0.00760423 0)
(0.0834698 0.00596351 0)
(0.0850556 0.00418676 0)
(0.086117 0.00178292 0)
(0.0865771 -0.000265399 0)
(0.0867077 -0.000750262 0)
(0.0866493 -8.12352e-05 0)
(0.0864092 0.000377536 0)
(0.086211 0.000166458 0)
(0.0861932 -0.0004308 0)
(0.0866766 -0.000770442 0)
(0.0870183 3.24412e-06 0)
(0.0867395 6.64954e-05 0)
(0.0864197 -0.000430101 0)
(0.0861756 -0.000143583 0)
(0.0859556 -0.000100958 0)
(0.0857365 -2.58634e-05 0)
(0.0856086 4.70264e-05 0)
(0.0855717 5.59566e-05 0)
(0.0855904 2.58019e-05 0)
(0.0856441 -9.69774e-06 0)
(0.0857179 -3.56684e-05 0)
(0.0857992 -5.07427e-05 0)
(0.0858778 -5.68554e-05 0)
(0.085948 -5.60977e-05 0)
(0.0860076 -5.07207e-05 0)
(0.0860567 -4.31817e-05 0)
(0.086096 -3.52943e-05 0)
(0.086127 -2.8041e-05 0)
(0.0861508 -2.17444e-05 0)
(0.086169 -1.57799e-05 0)
(0.0861797 -1.05642e-05 0)
(0.0861866 -1.69492e-06 0)
(0.0861575 4.08178e-06 0)
(0.28538 0.346215 0)
(0.652327 0.630271 0)
(1.99147 -0.399749 0)
(-0.123001 -0.825435 0)
(-0.390761 -0.195877 0)
(-0.274219 0.0881999 0)
(-0.0699023 0.161895 0)
(0.0447664 0.0775481 0)
(0.04664 0.0296745 0)
(0.0628483 0.0191929 0)
(0.0654562 0.0104525 0)
(0.0700269 0.00638679 0)
(0.0734798 0.00480448 0)
(0.0762557 0.00328402 0)
(0.077964 0.00128057 0)
(0.0785267 -0.000435861 0)
(0.0785578 -0.000813702 0)
(0.0785262 -3.60135e-05 0)
(0.0784783 0.000460359 0)
(0.0783934 0.000247048 0)
(0.0782055 -0.000428915 0)
(0.0782291 -0.00103216 0)
(0.0782787 0.000179881 0)
(0.0780314 0.000227588 0)
(0.0777221 -0.000205869 0)
(0.0774567 -7.43662e-05 0)
(0.0773417 -2.26218e-05 0)
(0.0772546 2.50063e-05 0)
(0.0772299 5.99353e-05 0)
(0.0772523 4.89557e-05 0)
(0.077282 1.18883e-05 0)
(0.0773033 -2.50086e-05 0)
(0.0773151 -5.03834e-05 0)
(0.0773195 -6.36529e-05 0)
(0.0773181 -6.73508e-05 0)
(0.0773131 -6.43265e-05 0)
(0.0773065 -5.72069e-05 0)
(0.0773001 -4.832e-05 0)
(0.0772943 -3.93139e-05 0)
(0.0772896 -3.10902e-05 0)
(0.0772856 -2.38992e-05 0)
(0.0772826 -1.70089e-05 0)
(0.077278 -9.7294e-06 0)
(0.0772739 3.22851e-06 0)
(0.0772402 1.55874e-05 0)
(-0.0558932 0.167274 0)
(0.600839 0.296819 0)
(0.847692 -0.0241045 0)
(0.0862292 -0.337993 0)
(-0.265905 -0.0822835 0)
(-0.267138 -0.000707225 0)
(-0.123123 0.087852 0)
(0.00783854 0.0487014 0)
(0.0131169 0.0213818 0)
(0.0419166 0.0145947 0)
(0.0476161 0.00708178 0)
(0.0544271 0.00428806 0)
(0.058957 0.00307186 0)
(0.0623953 0.00208237 0)
(0.0642778 0.00073979 0)
(0.0645405 -0.000480234 0)
(0.0639703 -0.000709347 0)
(0.063543 2.43565e-05 0)
(0.0636122 0.000433339 0)
(0.0638756 0.000257243 0)
(0.0638246 -0.000318998 0)
(0.0631407 -0.00089556 0)
(0.0628429 0.000222365 0)
(0.0630899 0.000227138 0)
(0.0630617 -7.42151e-05 0)
(0.062907 -2.95862e-05 0)
(0.0628604 3.19199e-06 0)
(0.0628502 2.99618e-05 0)
(0.062881 4.5463e-05 0)
(0.0629284 3.19561e-05 0)
(0.0629566 3.36609e-06 0)
(0.0629551 -2.34188e-05 0)
(0.06293 -4.13307e-05 0)
(0.0628905 -5.02108e-05 0)
(0.0628443 -5.20761e-05 0)
(0.0627972 -4.91617e-05 0)
(0.0627536 -4.34439e-05 0)
(0.0627157 -3.65669e-05 0)
(0.0626843 -2.96836e-05 0)
(0.0626591 -2.342e-05 0)
(0.0626394 -1.79007e-05 0)
(0.0626246 -1.23641e-05 0)
(0.062613 -5.47995e-06 0)
(0.0626059 9.08462e-06 0)
(0.0625822 2.68231e-05 0)
(-0.00667582 0.011935 0)
(0.279706 0.132178 0)
(0.421753 0.013559 0)
(0.199297 -0.250609 0)
(-0.112735 -0.000132962 0)
(-0.153964 -0.00746545 0)
(-0.126176 0.0388076 0)
(-0.0164943 0.0227567 0)
(-0.00852618 0.0111632 0)
(0.0234223 0.00718003 0)
(0.0284579 0.00307651 0)
(0.0353731 0.0017433 0)
(0.0393754 0.00126329 0)
(0.0421753 0.000896268 0)
(0.0436941 0.000291218 0)
(0.0436737 -0.000305548 0)
(0.0428173 -0.000372749 0)
(0.042414 8.74817e-05 0)
(0.0427743 0.000264076 0)
(0.0432596 0.000135903 0)
(0.0432654 -0.000176497 0)
(0.0424743 -0.000452925 0)
(0.0421141 8.84921e-05 0)
(0.0424615 0.000116582 0)
(0.0425491 -3.16513e-05 0)
(0.0424745 -1.24273e-05 0)
(0.0424639 3.92834e-06 0)
(0.0424842 1.60606e-05 0)
(0.0425301 2.19656e-05 0)
(0.042577 1.42381e-05 0)
(0.0425975 -1.94903e-08 0)
(0.0425857 -1.29271e-05 0)
(0.0425495 -2.13428e-05 0)
(0.0424992 -2.52712e-05 0)
(0.0424434 -2.57725e-05 0)
(0.0423883 -2.40379e-05 0)
(0.0423381 -2.10663e-05 0)
(0.042295 -1.76444e-05 0)
(0.0422594 -1.42954e-05 0)
(0.042231 -1.12697e-05 0)
(0.0422089 -8.57109e-06 0)
(0.0421927 -5.60877e-06 0)
(0.0421816 -1.13813e-06 0)
(0.0421798 1.14491e-05 0)
(0.0421859 3.61026e-05 0)
(-0.09861 -0.00244398 0)
(0.045455 0.059337 0)
(0.383502 0.011522 0)
(-0.11445 -0.0349623 0)
(-0.141019 0.0476106 0)
(-0.0842492 0.00488349 0)
(-0.0750243 0.00760462 0)
(-0.0141042 0.00261148 0)
(-0.00849065 0.00174631 0)
(0.00897749 0.000698952 0)
(0.010328 0.000321816 0)
(0.0136536 2.09842e-05 0)
(0.0150365 0.000107795 0)
(0.0162776 9.94384e-05 0)
(0.0169814 2.35634e-05 0)
(0.016887 -6.6297e-05 0)
(0.016361 -6.98382e-05 0)
(0.0161624 2.18894e-05 0)
(0.0164289 4.80565e-05 0)
(0.0167235 2.14396e-05 0)
(0.0167076 -2.98609e-05 0)
(0.0162104 -9.64744e-05 0)
(0.0159664 2.78836e-05 0)
(0.0161622 1.94346e-05 0)
(0.0162038 -1.19915e-05 0)
(0.0161536 -2.21453e-06 0)
(0.0161434 4.53436e-07 0)
(0.0161527 2.33326e-06 0)
(0.0161756 3.37234e-06 0)
(0.0161981 2.05951e-06 0)
(0.0162065 -2.03231e-07 0)
(0.0161982 -2.14618e-06 0)
(0.0161772 -3.35343e-06 0)
(0.0161491 -3.86415e-06 0)
(0.0161188 -3.86295e-06 0)
(0.0160894 -3.55824e-06 0)
(0.016063 -3.09915e-06 0)
(0.0160405 -2.60023e-06 0)
(0.0160221 -2.12694e-06 0)
(0.0160074 -1.69471e-06 0)
(0.0159959 -1.3004e-06 0)
(0.0159877 -7.97781e-07 0)
(0.0159833 -1.77301e-07 0)
(0.0159924 1.73234e-06 0)
(0.0160646 1.53497e-05 0)
)
;

boundaryField
{
    AirInlet
    {
        type            fixedValue;
        value           uniform (0.1 0 0);
    }
    WaterInlet
    {
        type            fixedValue;
        value           uniform (0.1 0 0);
    }
    ChannelWall
    {
        type            fixedValue;
        value           uniform (0 0 0);
    }
    Outlet
    {
        type            pressureInletOutletVelocity;
        value           nonuniform List<vector> 
15
(
(0.0160664 -1.53864e-05 0)
(0.0421865 -3.5928e-05 0)
(0.0625826 -2.64478e-05 0)
(0.0772402 -1.55643e-05 0)
(0.086157 -4.57771e-06 0)
(0.0880998 -1.38173e-06 0)
(0.088522 -7.24055e-07 0)
(0.0886611 -4.9314e-07 0)
(0.0885227 -2.00119e-07 0)
(0.0881004 5.74063e-07 0)
(0.0861575 4.08178e-06 0)
(0.0772402 1.55874e-05 0)
(0.0625822 2.68231e-05 0)
(0.0421859 3.61026e-05 0)
(0.0160646 1.53497e-05 0)
)
;
    }
    FrontAndBack
    {
        type            empty;
    }
}


// ************************************************************************* //
