/*--------------------------------*- C++ -*----------------------------------*\
| =========                 |                                                 |
| \\      /  F ield         | OpenFOAM: The Open Source CFD Toolbox           |
|  \\    /   O peration     | Version:  2.3.0                                 |
|   \\  /    A nd           | Web:      www.OpenFOAM.org                      |
|    \\/     M anipulation  |                                                 |
\*---------------------------------------------------------------------------*/
FoamFile
{
    version     2.0;
    format      ascii;
    class       volVectorField;
    location    "0.006";
    object      U;
}
// * * * * * * * * * * * * * * * * * * * * * * * * * * * * * * * * * * * * * //

dimensions      [0 1 -1 0 0 0 0];

internalField   nonuniform List<vector> 
725
(
(0.216651 0.0265435 -1.28654e-30)
(0.201701 0.00948544 2.3411e-31)
(0.131843 0.00324323 1.88699e-31)
(0.154989 0.000178371 0)
(-0.0306574 -0.0062842 1.17887e-30)
(0.377836 0.0545072 -5.91285e-30)
(0.413966 0.0403367 1.00585e-30)
(0.319329 0.0290235 3.45877e-31)
(0.341644 0.0570315 0)
(-0.0613071 0.057372 8.47612e-30)
(0.414965 0.0386564 -2.55993e-30)
(0.476424 0.0521831 3.23549e-32)
(0.399111 0.0529718 -9.92708e-31)
(0.441121 0.11807 0)
(0.140645 0.174583 6.41461e-30)
(0.374836 0.0166492 3.69552e-30)
(0.405748 0.0485903 -3.65686e-31)
(0.342606 0.0552454 -1.62713e-30)
(0.397783 0.11634 0)
(0.435222 0.175599 -2.07911e-29)
(0.210609 0.0101702 4.83833e-30)
(0.18906 0.0309293 -5.01034e-31)
(0.148364 0.0289811 -4.53643e-31)
(0.178685 0.047183 3.18997e-31)
(0.271659 0.052927 -2.69182e-29)
(0.103059 -0.167469 0)
(0.902442 -0.147245 0)
(1.60421 -0.116295 0)
(1.31675 0.117109 0)
(0.537496 0.0977756 0)
(0.113241 0.0468035 0)
(0.075022 0.00736616 0)
(0.0894204 0.00134525 0)
(0.0439391 0.00594439 0)
(0.0722372 -0.0155141 0)
(0.139748 -0.00104848 0)
(0.0758987 0.0124636 0)
(0.0318343 0.000547032 0)
(0.0597147 -0.00311452 0)
(0.0697061 0.00031653 0)
(0.0771102 -0.00201834 0)
(0.106668 -0.00527458 0)
(0.10549 0.00416007 0)
(0.0729757 0.00280616 0)
(0.0558578 0.000691178 0)
(0.0512043 -0.000160508 0)
(0.0552767 -0.00363247 0)
(0.102033 -0.0140668 0)
(0.169317 -0.0094962 0)
(0.153754 0.0154272 0)
(0.0917311 0.00528326 0)
(0.0516188 -0.00523033 0)
(0.123901 -0.0224377 0)
(0.163292 0.0169964 0)
(0.096365 0.00979813 0)
(0.0664028 0.00363496 0)
(0.0495467 0.00155686 0)
(0.0429987 -0.000220068 0)
(0.0477708 -0.00124904 0)
(0.0520686 -3.88829e-05 0)
(0.0539793 -0.000224607 0)
(0.0591036 -0.000908799 0)
(0.0584837 -0.000415524 0)
(0.0532762 0.00136737 0)
(0.0561415 -0.000580117 0)
(0.0664444 -0.00133072 0)
(0.0724801 -0.000249968 0)
(0.07004 0.000752151 0)
(0.0636085 0.00072006 0)
(0.059104 -2.48326e-05 0)
(0.00293463 -0.373677 0)
(0.402609 -0.385626 0)
(0.804545 -0.317846 0)
(0.931332 0.487215 0)
(0.326037 0.304995 0)
(0.169617 0.155544 0)
(0.183054 0.0171428 0)
(0.237847 -0.0032863 0)
(0.231668 0.0147164 0)
(0.250073 -0.0365743 0)
(0.262753 0.000532777 0)
(0.180165 0.0481987 0)
(0.123813 -0.00108653 0)
(0.160288 -0.0153043 0)
(0.184381 -0.00277284 0)
(0.202057 -0.0125736 0)
(0.244822 -0.0206146 0)
(0.238215 0.0220518 0)
(0.178126 0.0197721 0)
(0.14197 0.00817733 0)
(0.129244 0.000745339 0)
(0.129616 -0.013747 0)
(0.150698 -0.0397253 0)
(0.164523 -0.0222488 0)
(0.171197 0.0355582 0)
(0.16886 0.0271472 0)
(0.0928866 0.00620798 0)
(0.060081 -0.0493085 0)
(0.140732 0.0174237 0)
(0.178038 0.0220871 0)
(0.163806 0.0160268 0)
(0.138933 0.00981943 0)
(0.126006 0.000738794 0)
(0.132043 -0.005115 0)
(0.138231 -0.00141905 0)
(0.142137 -0.00207999 0)
(0.151506 -0.00240494 0)
(0.148393 0.000985971 0)
(0.137929 0.00388273 0)
(0.144691 -0.00640216 0)
(0.165169 -0.00813583 0)
(0.177087 -0.00150536 0)
(0.173224 0.0045654 0)
(0.160841 0.00497965 0)
(0.150272 0.0015769 0)
(0.377357 -0.416917 0)
(0.20665 -0.510834 0)
(0.452903 -0.402433 0)
(0.427484 0.699398 0)
(0.03561 0.33362 0)
(0.211166 0.157767 0)
(0.269645 -0.000716961 0)
(0.333796 -0.0329141 0)
(0.370717 -0.000222204 0)
(0.389907 -0.0330667 0)
(0.364607 0.0270362 0)
(0.24532 0.0873398 0)
(0.183222 -0.000183422 0)
(0.223573 -0.0291414 0)
(0.257555 -0.0139857 0)
(0.269215 -0.0195346 0)
(0.307759 -0.0379363 0)
(0.310306 0.0471293 0)
(0.246241 0.0424317 0)
(0.207073 0.020433 0)
(0.191282 0.00515792 0)
(0.184171 -0.0130701 0)
(0.1795 -0.0380403 0)
(0.14581 -0.011537 0)
(0.16103 0.00497386 0)
(0.213727 0.0419742 0)
(0.118922 0.0479867 0)
(0.0909201 -0.0576396 0)
(0.1736 -0.0372453 0)
(0.236344 0.0126706 0)
(0.228484 0.0234346 0)
(0.20604 0.0199897 0)
(0.193794 0.00251265 0)
(0.201485 -0.00953616 0)
(0.205846 -0.00238591 0)
(0.206523 -0.00465431 0)
(0.21891 -0.00535574 0)
(0.22322 0.00157102 0)
(0.211736 0.00961326 0)
(0.212783 -0.0135461 0)
(0.233806 -0.0178081 0)
(0.248214 -0.00446746 0)
(0.244781 0.00975839 0)
(0.2309 0.0106766 0)
(0.221322 0.0040961 0)
(0.818386 -0.363379 0)
(0.268932 -0.380731 0)
(-0.0525277 -0.318182 0)
(-0.135945 0.700706 0)
(-0.182141 0.373914 0)
(0.276029 0.106376 0)
(0.361202 -0.0276005 0)
(0.390576 -0.0590619 0)
(0.417099 -0.00745063 0)
(0.407267 -0.0353257 0)
(0.355051 0.0853595 0)
(0.223119 0.12561 0)
(0.195975 -0.0122003 0)
(0.262543 -0.0423256 0)
(0.275463 -0.0221776 0)
(0.244538 -0.0274739 0)
(0.278723 -0.0708295 0)
(0.318165 0.0680201 0)
(0.276005 0.0635873 0)
(0.252079 0.0324803 0)
(0.240777 0.011213 0)
(0.229014 -0.00726049 0)
(0.213745 -0.029904 0)
(0.189911 0.000237805 0)
(0.16839 -0.0109796 0)
(0.20255 0.0440989 0)
(0.199677 0.0721377 0)
(0.224667 -0.0629748 0)
(0.21206 -0.0655561 0)
(0.217813 0.000507687 0)
(0.239726 0.0252874 0)
(0.244525 0.0272308 0)
(0.245329 0.00280821 0)
(0.260145 -0.0138462 0)
(0.260372 -0.000593487 0)
(0.247932 -0.00632465 0)
(0.253918 -0.0109163 0)
(0.275697 -0.00215849 0)
(0.27806 0.0168689 0)
(0.27076 -0.0194982 0)
(0.280035 -0.0260206 0)
(0.287528 -0.00840358 0)
(0.282875 0.0156322 0)
(0.27127 0.0153208 0)
(0.270837 0.0051542 0)
(0.569807 -0.360336 0)
(-0.560025 0.0230586 0)
(-0.167726 -0.264079 0)
(-0.475848 0.763737 0)
(-0.377788 -0.0107996 0)
(0.311283 -0.114205 0)
(0.438695 -0.0609007 0)
(0.432107 -0.0664081 0)
(0.438205 0.0027423 0)
(0.353983 -0.0525606 0)
(0.308326 0.132272 0)
(0.228183 0.156033 0)
(0.23974 -0.0192503 0)
(0.309892 -0.0566168 0)
(0.355254 0.00741334 0)
(0.257659 -0.0044258 0)
(0.202496 -0.082267 0)
(0.25069 0.0635015 0)
(0.26982 0.0548318 0)
(0.279147 0.0320507 0)
(0.277089 0.015075 0)
(0.266027 0.00236587 0)
(0.244252 -0.0196356 0)
(0.207841 0.00910953 0)
(0.166996 0.00548792 0)
(0.203384 0.0139957 0)
(0.284831 0.047001 0)
(0.372979 -0.0768343 0)
(0.308652 -0.00953137 0)
(0.194051 0.00130292 0)
(0.223349 0.00537619 0)
(0.265486 0.0212681 0)
(0.285016 -0.00507285 0)
(0.312684 -0.0256222 0)
(0.310278 0.00929177 0)
(0.27161 0.000822355 0)
(0.248755 -0.0187099 0)
(0.280004 -0.0251711 0)
(0.330595 0.0341958 0)
(0.333125 -0.0223366 0)
(0.305624 -0.0280626 0)
(0.291254 -0.0103086 0)
(0.28383 0.0243667 0)
(0.28094 0.0159696 0)
(0.298798 0.00249344 0)
(-6.22455 -0.149994 0)
(-6.50041 0.345079 0)
(-2.48878 -0.664671 0)
(-0.290918 0.751434 0)
(0.807301 -0.019124 0)
(0.538988 -0.181419 0)
(0.465834 -0.0650985 0)
(0.451354 -0.0616652 0)
(0.446118 0.0298352 0)
(0.180951 -0.0206176 0)
(0.0106453 0.171667 0)
(0.0236407 0.135558 0)
(0.239229 -0.0467199 0)
(0.280325 -0.0769491 0)
(0.403457 0.00193602 0)
(0.321573 0.0262118 0)
(0.306693 -0.0899858 0)
(0.386604 0.0564663 0)
(0.322329 0.0567054 0)
(0.29564 0.0339979 0)
(0.290855 0.0162784 0)
(0.284038 0.00717224 0)
(0.265799 -0.0113934 0)
(0.221461 0.0209895 0)
(0.190109 0.00494917 0)
(0.228477 -0.00680482 0)
(0.312248 0.0268538 0)
(0.344398 -0.0862014 0)
(0.322132 0.0186736 0)
(0.280832 0.0115779 0)
(0.270149 -0.00380097 0)
(0.298845 0.0134916 0)
(0.323549 -0.0100331 0)
(0.347165 -0.031982 0)
(0.331355 0.0195885 0)
(0.283028 0.0142403 0)
(0.227153 -0.0142974 0)
(0.212762 -0.0411766 0)
(0.342904 0.0169893 0)
(0.404764 -0.0174339 0)
(0.306294 -0.0121138 0)
(0.259512 -0.00823956 0)
(0.259945 0.0273161 0)
(0.272367 0.0101335 0)
(0.302701 -0.00185441 0)
(-5.71085 0.376118 0)
(-4.04632 -0.0173496 0)
(-0.408171 -1.15608 0)
(0.541966 0.627902 0)
(1.26176 -0.00260477 0)
(0.606392 -0.158858 0)
(0.470673 -0.0584557 0)
(0.460818 -0.0605143 0)
(0.453099 0.0462039 0)
(0.0703752 0.00414524 0)
(-0.152098 0.183592 0)
(-0.0299214 0.113566 0)
(0.259097 -0.0591747 0)
(0.265755 -0.0852391 0)
(0.416833 -0.00464496 0)
(0.325983 0.0360229 0)
(0.339405 -0.0998048 0)
(0.447002 0.0585064 0)
(0.34002 0.0620585 0)
(0.300516 0.0358905 0)
(0.294754 0.0167577 0)
(0.290424 0.00841029 0)
(0.27442 -0.00841351 0)
(0.231485 0.0246903 0)
(0.204351 0.00499986 0)
(0.237767 -0.0132477 0)
(0.318727 0.0209575 0)
(0.341644 -0.0852057 0)
(0.32403 0.0178076 0)
(0.299158 0.0155177 0)
(0.284557 -0.0048859 0)
(0.310918 0.0106629 0)
(0.341397 -0.0119757 0)
(0.362702 -0.0329829 0)
(0.337228 0.0235613 0)
(0.287616 0.0194488 0)
(0.228254 -0.0099417 0)
(0.201417 -0.0466971 0)
(0.338588 0.00477 0)
(0.414637 -0.0141703 0)
(0.303239 -0.00414055 0)
(0.242664 -0.00666871 0)
(0.246515 0.0272017 0)
(0.269127 0.00733993 0)
(0.303196 -0.0035185 0)
(1.52143 0.819816 0)
(-0.218443 -0.115943 0)
(0.0143964 -1.19937 0)
(0.63273 0.511751 0)
(1.11713 0.0206341 0)
(0.613006 -0.131369 0)
(0.471375 -0.0500052 0)
(0.468125 -0.0608698 0)
(0.461833 0.0690818 0)
(-0.0388068 0.0387507 0)
(-0.241646 0.18732 0)
(0.0455976 0.0828122 0)
(0.299546 -0.0653093 0)
(0.211901 -0.0944247 0)
(0.335842 -0.00794642 0)
(0.285309 0.040465 0)
(0.36364 -0.114568 0)
(0.485635 0.0634078 0)
(0.353559 0.0698301 0)
(0.304189 0.0384195 0)
(0.297363 0.0172831 0)
(0.294218 0.00929761 0)
(0.280369 -0.00556302 0)
(0.243068 0.0276015 0)
(0.225937 0.00509549 0)
(0.250106 -0.0187215 0)
(0.322351 0.015675 0)
(0.340773 -0.0835144 0)
(0.319149 0.0168661 0)
(0.305909 0.018675 0)
(0.295563 -0.00584003 0)
(0.321063 0.00767192 0)
(0.362904 -0.0147747 0)
(0.38056 -0.032633 0)
(0.339963 0.0280383 0)
(0.293147 0.0245759 0)
(0.235615 -0.0048293 0)
(0.199418 -0.0513094 0)
(0.328658 -0.00828455 0)
(0.411116 -0.0109158 0)
(0.297572 0.00510334 0)
(0.219685 -0.00371313 0)
(0.226869 0.0254989 0)
(0.266709 0.00382344 0)
(0.302785 -0.00529741 0)
(1.98169 0.50035 0)
(1.97172 0.187732 0)
(0.370237 -1.0821 0)
(0.081879 0.430397 0)
(0.849496 0.0166979 0)
(0.615257 -0.112921 0)
(0.462991 -0.0409566 0)
(0.467423 -0.0644439 0)
(0.46795 0.0982884 0)
(-0.110727 0.0778326 0)
(-0.256365 0.177342 0)
(0.233586 0.0426917 0)
(0.473413 -0.0589677 0)
(0.235494 -0.0951956 0)
(0.246368 -0.00519837 0)
(0.233315 0.0372688 0)
(0.271808 -0.127882 0)
(0.407049 0.0657313 0)
(0.346491 0.0769933 0)
(0.306193 0.0409566 0)
(0.299639 0.0178536 0)
(0.297943 0.00986932 0)
(0.286122 -0.00294723 0)
(0.254349 0.029651 0)
(0.244465 0.00510881 0)
(0.262872 -0.0231996 0)
(0.330446 0.0105952 0)
(0.343231 -0.081162 0)
(0.312268 0.0164547 0)
(0.305998 0.020841 0)
(0.301786 -0.00716305 0)
(0.329314 0.00435476 0)
(0.37733 -0.0184359 0)
(0.385615 -0.0306396 0)
(0.336091 0.0327666 0)
(0.29716 0.0291246 0)
(0.246632 0.000274549 0)
(0.209042 -0.0547076 0)
(0.315676 -0.0204258 0)
(0.394645 -0.00829392 0)
(0.293853 0.0145347 0)
(0.214407 0.000277946 0)
(0.223745 0.0223566 0)
(0.268441 -4.124e-05 0)
(0.301334 -0.00707803 0)
(-2.7623 0.435813 0)
(0.889319 -0.0279056 0)
(0.27995 -0.978635 0)
(-0.413239 0.398984 0)
(0.715134 -0.0223703 0)
(0.598677 -0.0976494 0)
(0.442045 -0.0301797 0)
(0.394355 -0.066241 0)
(0.387922 0.127901 0)
(-0.0788213 0.110573 0)
(-0.182542 0.158066 0)
(0.331049 -0.00663642 0)
(0.536056 -0.0463471 0)
(0.256728 -0.0853469 0)
(0.230243 -0.00137033 0)
(0.234304 0.0344563 0)
(0.190226 -0.132335 0)
(0.309148 0.0598256 0)
(0.328865 0.0804883 0)
(0.305645 0.0426903 0)
(0.303 0.0182554 0)
(0.298823 0.0105726 0)
(0.286779 -0.00093564 0)
(0.264897 0.0308381 0)
(0.265058 0.00485679 0)
(0.279888 -0.0268425 0)
(0.336162 0.00576836 0)
(0.343076 -0.0778184 0)
(0.307108 0.0161372 0)
(0.305416 0.0223328 0)
(0.305755 -0.00869553 0)
(0.330471 0.00109771 0)
(0.368954 -0.021536 0)
(0.364494 -0.0275255 0)
(0.322278 0.0365021 0)
(0.29973 0.0326491 0)
(0.260981 0.0044496 0)
(0.229289 -0.0567656 0)
(0.30367 -0.0302486 0)
(0.365038 -0.00628315 0)
(0.290759 0.0221014 0)
(0.227531 0.00427096 0)
(0.235383 0.018947 0)
(0.275688 -0.0033975 0)
(0.299589 -0.00854848 0)
(0.210271 -0.0097896 0)
(0.183931 -0.0285604 -3.56479e-32)
(0.125718 -0.0180378 -1.4979e-31)
(0.0937461 -0.0104399 2.13662e-31)
(0.0668681 0.00719193 0)
(0.375277 -0.0155772 0)
(0.401353 -0.0423661 0)
(0.32688 -0.0322655 0)
(0.358912 -0.0354668 9.97131e-31)
(0.162833 -0.0318479 0)
(0.416265 -0.0374266 0)
(0.476288 -0.0454744 0)
(0.407826 -0.0322193 0)
(0.453217 -0.0270145 1.50421e-31)
(0.211405 -0.0284317 0)
(0.379431 -0.0537895 0)
(0.417014 -0.0367578 0)
(0.346331 -0.0200256 0)
(0.402189 -0.0168062 9.77643e-32)
(0.312523 -0.0756169 0)
(0.217615 -0.0263902 0)
(0.203592 -0.00903418 0)
(0.144433 -0.00344784 0)
(0.164184 -0.00714322 -1.79488e-31)
(0.0851595 -0.0538714 0)
(-0.940957 0.797686 0)
(-0.114215 -0.839541 0)
(0.00607238 -0.913937 0)
(-0.104451 0.237673 0)
(0.775428 -0.0720962 0)
(0.410938 -0.0533917 0)
(0.354418 0.00698279 0)
(0.25844 -0.0482719 0)
(0.157845 0.191184 0)
(-0.0269184 0.160051 0)
(0.0135891 0.0949337 0)
(0.265343 -0.0855134 0)
(0.354516 -0.0329462 0)
(0.265867 -0.0604077 0)
(0.269211 -0.0077872 0)
(0.316257 0.041876 0)
(0.14216 -0.109182 0)
(0.135402 0.0326355 0)
(0.254303 0.0739521 0)
(0.29706 0.0427383 0)
(0.307098 0.0187187 0)
(0.309875 0.0123877 0)
(0.307148 0.00295208 0)
(0.29886 0.0315593 0)
(0.31444 0.00208144 0)
(0.320129 -0.0326862 0)
(0.345543 -0.00696448 0)
(0.334312 -0.0645202 0)
(0.296208 0.0137964 0)
(0.306047 0.0245051 0)
(0.312486 -0.0115305 0)
(0.324196 -0.00719518 0)
(0.337234 -0.0254197 0)
(0.315009 -0.0170454 0)
(0.293994 0.0414582 0)
(0.301818 0.038242 0)
(0.29977 0.0101571 0)
(0.296539 -0.058225 0)
(0.308816 -0.0470382 0)
(0.31782 -0.000960604 0)
(0.283968 0.035053 0)
(0.257081 0.0147367 0)
(0.267228 0.00972504 0)
(0.287459 -0.00978054 0)
(0.292978 -0.0110311 0)
(0.557486 0.811284 0)
(1.61156 -0.304347 0)
(-0.0304184 -0.739337 0)
(-0.436463 0.187187 0)
(0.17208 -0.120864 0)
(-0.0312268 -0.0402658 0)
(0.183827 0.0158161 0)
(0.152608 0.0110349 0)
(0.0105644 0.237955 0)
(0.118436 0.135708 0)
(0.0574646 0.0659147 0)
(0.0768187 -0.103145 0)
(0.186442 -0.0712198 0)
(0.229795 -0.052072 0)
(0.217771 -0.0343082 0)
(0.253299 0.0637395 0)
(0.203494 -0.0413389 0)
(0.166418 -0.00703373 0)
(0.227245 0.0314858 0)
(0.274262 0.0251796 0)
(0.293428 0.01349 0)
(0.303829 0.00863711 0)
(0.307454 0.00327978 0)
(0.312915 0.0243132 0)
(0.327249 -0.00260889 0)
(0.320246 -0.0278332 0)
(0.316294 -0.0128414 0)
(0.292131 -0.0387789 0)
(0.265983 0.00824693 0)
(0.281483 0.0184075 0)
(0.288514 -0.00851826 0)
(0.285698 -0.0111188 0)
(0.278333 -0.0174206 0)
(0.258582 -0.00469808 0)
(0.259733 0.0327188 0)
(0.285213 0.0289916 0)
(0.304034 0.000908263 0)
(0.294786 -0.0477108 0)
(0.259865 -0.0390958 0)
(0.242511 0.00628929 0)
(0.246511 0.0339125 0)
(0.259376 0.015464 0)
(0.268441 0.00234176 0)
(0.270919 -0.00891328 0)
(0.263989 -0.0094099 0)
(0.72474 0.38779 0)
(1.21761 -0.107064 0)
(0.0467019 -0.513989 0)
(-0.162605 0.0989668 0)
(0.13235 -0.168211 0)
(-0.124139 -0.0873568 0)
(0.0794931 -0.034755 0)
(0.0542543 0.0240849 0)
(0.121907 0.21327 0)
(0.319417 0.120024 0)
(0.258066 0.0902606 0)
(0.264967 -0.096354 0)
(0.246038 -0.103371 0)
(0.215405 -0.0541322 0)
(0.169126 -0.0230105 0)
(0.197882 0.0433244 0)
(0.209432 -0.023739 0)
(0.18008 -0.00385506 0)
(0.201445 0.0166352 0)
(0.233114 0.0135802 0)
(0.249835 0.00693224 0)
(0.259243 0.00352994 0)
(0.261858 0.00205282 0)
(0.272583 0.0169736 0)
(0.284377 -0.00143093 0)
(0.270059 -0.0192745 0)
(0.254783 -0.00937092 0)
(0.231798 -0.0211693 0)
(0.215956 0.00532688 0)
(0.231183 0.0120566 0)
(0.236756 -0.00588028 0)
(0.227407 -0.00871862 0)
(0.214696 -0.0105208 0)
(0.203058 -0.000462986 0)
(0.215278 0.0212975 0)
(0.243596 0.0174836 0)
(0.259117 -0.00176153 0)
(0.241276 -0.0305464 0)
(0.198279 -0.0248569 0)
(0.182197 0.00665784 0)
(0.20236 0.0230374 0)
(0.224802 0.0103752 0)
(0.230446 -0.000327536 0)
(0.227312 -0.00588578 0)
(0.215687 -0.00634006 0)
(0.612071 0.100878 0)
(0.884935 0.161839 0)
(0.281409 -0.226521 0)
(0.0726237 0.0685716 0)
(0.275793 -0.09635 0)
(-0.0455389 -0.0590076 0)
(-0.00599115 -0.0449487 0)
(-0.0979805 -0.0154848 0)
(0.134746 0.0908404 0)
(0.365826 0.103604 0)
(0.342458 0.0944429 0)
(0.338928 -0.0695055 0)
(0.238212 -0.0718901 0)
(0.165691 -0.0323941 0)
(0.114259 -0.011009 0)
(0.14282 0.0203926 0)
(0.164423 -0.0139155 0)
(0.137984 -0.00686649 0)
(0.143648 0.00659698 0)
(0.163178 0.0058501 0)
(0.174522 0.00237281 0)
(0.179447 0.000822484 0)
(0.180086 0.00141962 0)
(0.191999 0.00926002 0)
(0.203715 -0.00016772 0)
(0.189676 -0.00940724 0)
(0.172811 -0.00409738 0)
(0.154729 -0.00934192 0)
(0.145589 0.00282552 0)
(0.158387 0.00617054 0)
(0.162272 -0.00278007 0)
(0.152198 -0.00448275 0)
(0.140474 -0.00508985 0)
(0.133985 -0.000275335 0)
(0.148422 0.0100608 0)
(0.172341 0.00810772 0)
(0.181203 -0.00130578 0)
(0.162015 -0.0145281 0)
(0.125244 -0.011874 0)
(0.115345 0.00365037 0)
(0.137918 0.0110705 0)
(0.158096 0.00496141 0)
(0.161117 -0.000282119 0)
(0.156665 -0.00242157 0)
(0.145836 -0.00258715 0)
(-0.159475 0.0169672 0)
(0.389364 0.136251 0)
(0.336796 -0.0631176 0)
(0.0214611 0.0213176 0)
(0.240539 -0.0226422 0)
(-0.0114577 -0.00764765 0)
(0.00842682 -0.0130407 0)
(-0.107832 -0.0197016 0)
(-0.0946333 -0.00192638 0)
(0.0700043 0.0450719 0)
(0.271655 0.0403144 0)
(0.306924 -0.0243907 0)
(0.152152 -0.0186625 0)
(0.0789968 -0.00565543 0)
(0.0476618 -0.00242857 0)
(0.0651742 0.0038116 0)
(0.0739438 -0.00511108 0)
(0.0500148 -0.00143484 0)
(0.0511862 0.00167115 0)
(0.0617853 0.000998237 0)
(0.0669374 0.000244148 0)
(0.0682673 0.000135962 0)
(0.0683785 0.000185822 0)
(0.0769076 0.00208087 0)
(0.0847785 -7.32688e-05 0)
(0.0768243 -0.00174055 0)
(0.0684485 -8.64397e-05 0)
(0.0593202 -0.00194149 0)
(0.0545866 0.00083747 0)
(0.0630407 0.00159299 0)
(0.066028 -0.00045105 0)
(0.0601994 -0.000732562 0)
(0.0531392 -0.00123362 0)
(0.0481824 -0.000743706 0)
(0.0553658 0.00168401 0)
(0.0689309 0.00164671 0)
(0.0744691 0.000195977 0)
(0.0639225 -0.00261161 0)
(0.0426226 -0.00234431 0)
(0.0368212 0.000467624 0)
(0.0499223 0.00185782 0)
(0.0610725 0.00081679 0)
(0.0631211 8.97671e-05 0)
(0.0613672 -0.0001335 0)
(0.0569849 -0.000264618 0)
)
;

boundaryField
{
    AirInlet
    {
        type            fixedValue;
        value           uniform (0.08 0 0);
    }
    WaterInlet
    {
        type            fixedValue;
        value           uniform (0.4 0 0);
    }
    ChannelWall
    {
        type            fixedValue;
        value           uniform (0 0 0);
    }
    Outlet
    {
        type            pressureInletOutletVelocity;
        value           nonuniform List<vector> 
15
(
(0.059104 -2.48326e-05 0)
(0.150272 0.0015769 0)
(0.221322 0.0040961 0)
(0.270837 0.0051542 0)
(0.298798 0.00249344 0)
(0.302701 -0.00185441 0)
(0.303196 -0.0035185 0)
(0.302785 -0.00529741 0)
(0.301334 -0.00707803 0)
(0.299589 -0.00854848 0)
(0.292978 -0.0110311 0)
(0.263989 -0.0094099 0)
(0.215687 -0.00634006 0)
(0.145836 -0.00258715 0)
(0.0569849 -0.000264618 0)
)
;
    }
    FrontAndBack
    {
        type            empty;
    }
}


// ************************************************************************* //
