/*--------------------------------*- C++ -*----------------------------------*\
| =========                 |                                                 |
| \\      /  F ield         | OpenFOAM: The Open Source CFD Toolbox           |
|  \\    /   O peration     | Version:  2.3.0                                 |
|   \\  /    A nd           | Web:      www.OpenFOAM.org                      |
|    \\/     M anipulation  |                                                 |
\*---------------------------------------------------------------------------*/
FoamFile
{
    version     2.0;
    format      ascii;
    class       volScalarField;
    location    "1.05";
    object      alpha.water;
}
// * * * * * * * * * * * * * * * * * * * * * * * * * * * * * * * * * * * * * //

dimensions      [0 0 0 0 0 0 0];

internalField   nonuniform List<scalar> 
2268
(
1
1
1
1
1
1
1
1
1
1
1
1
0.998364
0.990083
0.987465
0.986905
0.980952
0.975769
0.975769
0.985814
0.999999
0.999999
0.99999
1
1
1
1
1
1
1
1
1
1
1
0.999993
0.98319
0.952915
0.955915
0.974425
0.973088
0.985024
0.983364
0.992647
0.998092
0.999999
0.999989
1
1
1
1
1
1
1
1
1
1
1
0.999984
0.976272
0.952933
0.95291
0.952983
0.973067
0.999999
0.999999
0.999998
0.999999
0.999999
0.999993
1
1
1
1
1
1
1
1
1
1
1
0.999998
0.992828
0.961148
0.952983
0.97776
0.999998
0.999999
0.999998
0.999998
0.999998
0.999999
0.999993
1
1
1
1
0.999999
0.999994
1
1
1
1
1
0.999996
0.999975
0.997472
0.993702
0.999713
0.999998
0.999997
0.999993
0.999988
0.999987
0.999991
0.999776
0.999999
1
1
1
1
0.999759
0.999653
0.999988
1
1
1
1
0.999999
0.999995
0.999986
0.999984
0.999993
0.999967
0.999877
0.99431
0.981123
0.965573
0.997386
0.997434
0.999883
1
1
1
0.999676
0.999247
0.999723
1
1
1
1
1
0.999999
0.999993
0.999986
0.999904
0.99363
0.944496
0.871454
0.864651
0.88412
0.995662
0.932259
0.958637
0.998315
1
1
1
0.999338
0.999394
0.999985
1
1
1
1
1
0.999994
0.994824
0.937229
0.814417
0.784416
0.78718
0.843612
0.968539
0.995668
0.983794
0.98375
0.933723
0.836459
0.847834
0.971061
0.988138
0.988227
0.988227
0.988227
0.752466
0.706939
0.706939
0.710271
0.890614
0.890614
0.889407
0.791059
0.763454
0.984121
0.953879
0.778286
0.779334
0.809767
0.980329
0.988022
0.988137
0.987112
0.88192
0.755393
0.722201
0.706939
0.707247
0.86117
0.890614
0.770244
0.690734
0.690291
0.984636
0.907556
0.757851
0.821265
0.89608
0.967549
0.987942
0.98802
0.908206
0.857276
0.864892
0.846125
0.707247
0.768342
0.878988
0.879093
0.75812
0.712362
0.69243
0.984708
0.907262
0.757645
0.97953
0.985213
0.91322
0.948583
0.987937
0.962076
0.921944
0.86776
0.865846
0.843945
0.837691
0.817906
0.638662
0.653501
0.706565
0.742798
0.991577
0.812198
0.758373
0.976982
0.985372
0.913185
0.95893
0.986984
0.986186
0.854043
0.744255
0.8468
0.845493
0.768269
0.253611
0.139822
0.152661
0.246277
0.735688
0.99394
0.811598
0.931025
0.98606
0.98575
0.942574
0.982089
0.98619
0.806265
0.297477
0.255249
0.503305
0.56331
0.194459
0.0500608
0.0497775
0.050918
0.051537
0.199659
0.993956
0.874702
0.983332
0.98606
0.98606
0.983082
0.981816
0.821172
0.116152
0.0158503
0.0224402
0.06563
0.0861855
0.0500891
0.0491838
0.0497775
0.0497822
0.0509507
0.0521328
0.993956
0.982995
0.987241
0.985951
0.939099
0.981816
0.79519
0.175305
0.0158503
0.0146231
0.0146231
0.0142928
0.0455748
0.0559511
0.050462
0.0511728
0.0628468
0.0667315
0.052133
0.873911
0.88489
0.953095
0.999886
0.999998
0.999999
0.999996
0.999964
0.999997
1
1
1
1
0.999994
0.9975
0.758161
0.674701
0.674848
0.754169
0.98495
0.991458
0.995196
0.995652
0.834522
0.839261
0.882649
0.981483
0.999966
0.999992
0.999994
1
1
1
1
1
0.977571
0.872166
0.818894
0.930124
0.929976
0.928172
0.918351
0.821838
0.761869
0.717261
0.752993
0.755935
0.459727
0.627717
0.955554
0.999963
0.999986
0.999995
1
0.994457
0.882004
0.78357
0.576535
0.355845
0.429604
0.798243
0.930124
0.91904
0.881627
0.526599
0.093306
0.00868288
0.00082345
0.000796721
0.612086
0.0332256
0.0326933
0.213717
0.855611
0.999963
0.999988
0.721428
0.377699
0.339051
0.407773
0.336972
0.179658
0.158314
0.364247
0.371215
0.260491
0.247459
0.157904
0.00104874
0.000823457
0.000796808
0.000790842
0.373252
0.0327601
0.0326933
0.422597
0.971073
0.977565
0.379381
0.0384028
0.0114962
0.0605877
0.292285
0.359884
0.219248
0.0275397
0.00171017
0.00197758
0.00525036
0.0183022
0.218887
0.205465
0.00104897
0.000797527
0.000791431
0.241369
0.0318749
0.0469455
0.537747
0.758342
0.230582
0.00686282
0.0063205
0.00643901
0.00941845
0.13332
0.228358
0.182573
0.0178364
0.000261873
0.000338355
0.00136843
0.0426905
0.316646
0.350959
0.269108
0.0216478
0.00107466
0.250284
0.0305914
0.0712431
0.2412
0.0898986
0.00686385
0.00633074
0.00633074
0.00546502
0.00362411
0.00217011
0.00974202
0.0162565
0.00225743
7.61443e-05
6.80112e-05
9.40912e-05
0.000671565
0.124477
0.364843
0.365543
0.37325
0.129755
0.339958
0.0303279
0.0330379
0.047406
0.00920317
0.00802308
0.00739175
0.0151205
0.00578631
0.00399294
0.00011695
0.000129468
0.000129701
5.20994e-05
5.75713e-05
5.31015e-05
3.39157e-05
4.20969e-06
0.000145919
0.0636169
0.352785
0.380256
0.380256
0.495681
0.0305918
0.0303256
0.0559277
0.0323364
0.032765
0.0405308
0.0399491
0.039694
9.88607e-05
2.30712e-05
1.42202e-05
1.43784e-05
1.90508e-05
5.67658e-05
5.82269e-05
4.0849e-05
6.71137e-07
-5.40712e-07
1.00789e-05
5.7198e-05
0.194912
0.371357
0.69452
0.0345458
0.0486649
0.0584266
0.058699
0.0575464
0.0422144
0.0307578
0.0125577
1.34068e-05
3.86075e-06
2.26152e-06
1.36897e-06
1.61404e-05
9.29588e-05
9.33767e-05
7.25074e-05
-5.96397e-09
2.3763e-08
-1.06468e-06
-1.91383e-07
-2.97077e-05
-1.23516e-05
0.701903
0.0613878
0.0290645
0.0337328
0.0225275
0.0103759
0.00485896
0.00173568
6.5328e-06
1.65055e-06
6.08123e-07
1.85229e-07
1.54039e-07
8.66292e-06
2.1047e-05
1.18999e-05
5.05514e-09
8.22285e-09
2.4969e-08
2.17887e-08
-5.87259e-09
-5.16754e-08
-3.04525e-09
0.701903
0.0759028
0.00368819
0.0007946
0.000102394
2.91667e-05
2.13976e-05
2.15432e-05
6.58546e-07
1.82888e-07
3.83318e-08
2.34438e-08
1.14015e-08
1.10639e-07
2.69892e-09
2.86245e-09
3.14532e-09
4.08457e-08
9.01497e-08
7.75149e-08
6.86505e-09
6.95214e-09
5.04269e-09
0.504408
0.0635322
0.000447016
8.28154e-05
1.18839e-05
3.63362e-06
3.19179e-06
3.36204e-06
3.72671e-07
6.87922e-08
1.39361e-08
5.67816e-09
3.41596e-09
2.57977e-09
2.69866e-09
2.6972e-09
2.8632e-09
3.80571e-09
6.9777e-09
7.00594e-09
6.91153e-09
9.47397e-09
8.35226e-09
0.269007
0.0412923
8.14776e-05
1.37014e-05
2.01186e-06
5.56375e-07
5.90738e-07
5.55223e-07
5.86823e-08
1.61215e-08
7.17585e-09
3.96328e-09
3.51599e-09
3.10583e-09
2.69924e-09
2.8634e-09
3.44993e-09
4.64484e-09
6.86494e-09
7.34193e-09
6.34087e-09
1.18628e-08
1.54006e-08
0.420559
0.0206708
1.22393e-05
2.11323e-06
4.72593e-07
1.37e-07
1.32444e-07
1.02466e-07
1.95203e-08
8.76692e-09
5.26185e-09
4.42012e-09
3.96313e-09
3.54271e-09
8.72674e-09
5.26906e-09
9.92438e-09
1.30703e-08
1.5667e-08
1.08635e-08
5.59381e-09
3.85549e-09
6.36957e-09
0.511112
0.0149109
3.81643e-06
-4.84638e-08
1.31126e-07
5.95579e-08
5.23162e-08
3.59271e-08
8.62493e-09
7.05107e-09
5.83299e-09
3.94293e-09
4.3359e-09
5.92081e-09
4.41895e-08
3.12133e-08
4.99759e-08
7.78632e-08
8.16469e-08
4.74327e-08
9.04636e-09
1.02734e-09
4.08942e-10
0.511112
0.0176952
1.18008e-05
-6.98913e-07
3.93829e-08
4.22197e-08
3.81406e-08
2.94469e-08
1.83942e-08
8.34771e-09
7.72812e-10
6.98754e-10
1.41452e-06
3.27994e-06
2.39399e-06
5.15808e-07
5.07591e-07
5.22695e-07
5.12871e-07
2.84235e-07
5.43933e-08
5.0025e-09
6.63044e-10
0.417653
0.0331137
5.6233e-05
5.86049e-07
3.62762e-08
3.79377e-08
3.97456e-08
3.73738e-08
2.94635e-08
1.80193e-08
4.39149e-08
1.34864e-07
4.91984e-06
3.07768e-05
3.96712e-05
3.33745e-05
1.72405e-05
1.43229e-05
1.84137e-05
8.64025e-06
3.23766e-07
3.23257e-08
4.72978e-09
0.0294154
0.0329314
0.00171752
7.37794e-07
3.82837e-08
3.80312e-08
3.8671e-08
3.97441e-08
3.7084e-08
5.77107e-08
2.60767e-07
1.23821e-06
2.40422e-05
0.000105905
0.000152633
0.000105861
5.85807e-05
5.91411e-05
5.55558e-05
4.85306e-05
1.33547e-05
2.05984e-07
4.91877e-08
0.00103885
0.0322899
0.00246739
2.9793e-05
2.21926e-07
3.7923e-08
3.80003e-08
3.70194e-08
5.67913e-08
2.37232e-07
1.24749e-06
0.000106961
0.000153079
0.000153079
0.000152466
0.000153636
0.000131571
7.20127e-05
5.79155e-05
5.60029e-05
5.81372e-05
1.13144e-05
5.06779e-07
0.000978451
0.0308739
0.00154438
1.51509e-08
5.85875e-08
3.79125e-08
3.79996e-08
4.01013e-08
1.30803e-07
9.47942e-06
0.00011477
0.000151689
0.000152749
0.00015241
0.000153776
0.000152016
0.000129832
3.22846e-05
3.25484e-05
4.64294e-05
5.90701e-05
4.58935e-05
4.63161e-06
0.000903606
0.0212673
0.000270145
2.68762e-08
3.73263e-08
3.77861e-08
3.79041e-08
4.50692e-08
1.73057e-07
5.4816e-05
0.000149663
0.00015195
0.000151667
0.000151964
0.000152868
0.000152941
4.15987e-05
3.22867e-05
3.25346e-05
3.27604e-05
6.04964e-05
6.65261e-05
1.44874e-05
8.29141e-05
0.00324039
4.50855e-05
-5.93349e-09
3.76944e-08
3.77753e-08
3.7781e-08
7.5803e-08
1.36021e-06
5.50395e-05
7.53882e-05
3.31032e-05
0.000120424
0.000152393
0.000156438
4.66759e-05
3.063e-05
3.18523e-05
3.23901e-05
3.25113e-05
6.5384e-05
6.71502e-05
2.00243e-05
7.4e-05
3.65757e-05
-3.30191e-06
2.48504e-08
3.91591e-08
3.77932e-08
1.36563e-07
1.22013e-07
9.49722e-07
4.40235e-06
8.14194e-06
1.44202e-05
9.55521e-05
0.000150103
3.2253e-05
2.80442e-05
2.97349e-05
3.14255e-05
3.1795e-05
3.82336e-05
7.31279e-05
6.96036e-05
1.6411e-05
0.00200118
1.16313e-05
-6.72529e-07
-3.32166e-08
4.6269e-08
6.39218e-08
2.05483e-07
1.42195e-07
1.42331e-06
1.726e-06
1.63072e-05
9.59781e-05
9.98362e-05
3.49688e-05
2.2723e-05
2.53836e-05
2.80442e-05
3.0548e-05
4.07539e-05
7.35831e-05
7.36338e-05
6.73314e-05
6.98037e-06
0.136836
3.84877e-06
-7.44753e-08
3.60276e-08
4.56289e-08
8.86006e-08
1.22179e-07
6.05738e-07
5.58278e-07
2.00426e-05
9.14665e-05
9.57486e-05
8.02189e-05
1.37162e-05
1.85743e-05
2.2723e-05
4.04659e-05
7.16245e-05
7.3459e-05
7.36338e-05
7.35754e-05
4.90588e-05
1.44165e-06
0.258152
0.000224329
7.58599e-09
4.40675e-08
4.56285e-08
4.99029e-08
6.11108e-08
9.99925e-07
5.39017e-07
3.51326e-06
4.57847e-05
9.22772e-05
2.16905e-05
7.40014e-06
1.51022e-05
6.55199e-05
7.24391e-05
7.26264e-05
7.2993e-05
7.3459e-05
7.04247e-05
1.20247e-05
2.15959e-09
0.259188
0.00459212
-2.9404e-07
3.03902e-08
4.56461e-08
5.00877e-08
5.37632e-08
3.01277e-07
3.27339e-07
9.92292e-07
4.57185e-05
2.86482e-05
1.04857e-06
4.04265e-06
6.54316e-05
6.89975e-05
7.09285e-05
7.21753e-05
7.26333e-05
6.65862e-05
1.46774e-05
1.52204e-10
6.29208e-12
0.259307
0.00858446
1.31763e-05
6.73879e-08
4.80174e-08
5.37643e-08
5.44144e-08
5.55798e-08
1.03832e-05
3.44215e-05
3.31759e-05
3.31482e-06
2.72617e-07
1.01447e-05
4.99894e-05
6.44193e-05
6.44149e-05
5.28809e-05
3.25294e-05
2.17243e-06
6.02202e-12
6.3274e-12
5.93037e-12
0.259307
0.0152245
4.07277e-07
1.98155e-08
5.48792e-08
5.44145e-08
5.51023e-08
5.49074e-06
3.44215e-05
3.44215e-05
1.50544e-05
2.74098e-07
5.84521e-08
7.73606e-07
2.86681e-06
2.42522e-06
1.55431e-06
6.08798e-12
6.05009e-12
6.02197e-12
6.00598e-12
5.8748e-12
5.91628e-12
0.107421
0.0444026
4.25114e-06
1.34566e-07
6.62495e-08
5.51078e-08
5.50749e-08
4.94208e-06
3.22521e-05
2.3951e-05
1.73685e-06
5.10715e-08
6.79895e-09
5.63176e-10
3.39403e-11
7.51714e-12
6.93529e-12
6.93529e-12
6.94381e-12
7.25121e-12
7.54751e-12
5.86418e-12
5.10869e-12
0.000662201
0.043042
0.0211967
2.64382e-05
9.08918e-07
7.21408e-08
5.5688e-08
6.35165e-06
1.53819e-05
6.14607e-06
2.07464e-07
2.0698e-08
2.31741e-09
2.66873e-10
2.65577e-11
1.01696e-11
1.04841e-11
7.18785e-12
7.1822e-12
9.41746e-12
1.52418e-11
5.23595e-12
3.21499e-12
6.87896e-05
0.010975
0.0223534
0.0213389
0.00797382
0.00538754
0.00248935
3.70382e-05
1.23335e-05
4.6214e-06
4.53172e-07
4.8615e-08
4.42484e-09
4.00013e-10
3.98452e-11
1.3935e-11
1.18748e-11
7.59912e-12
7.1648e-12
1.266e-11
4.90425e-12
2.6763e-12
9.83922e-13
1.15422e-05
6.84309e-05
0.008688
0.0139419
0.0128564
0.0114179
0.00770718
0.000346639
2.00186e-05
3.17507e-06
4.44416e-07
5.37159e-08
5.31556e-09
3.52838e-10
2.62886e-11
1.30032e-11
1.07623e-11
7.18123e-12
6.46049e-12
3.84944e-12
2.16861e-12
7.47942e-13
2.01871e-13
1.12095e-06
7.13635e-06
0.000156392
0.000917858
0.0068261
0.00654407
0.00338901
0.000414115
1.15559e-05
1.63246e-06
2.05469e-07
2.25651e-08
2.12296e-09
1.73661e-10
2.22822e-11
8.81203e-12
7.20722e-12
4.98264e-12
3.67121e-12
1.84909e-12
6.16986e-13
1.54671e-13
3.2643e-14
1.54524e-07
1.23732e-06
2.28955e-05
8.60086e-05
0.000315745
0.000219671
6.20485e-05
0.000107427
1.79533e-05
3.47415e-07
3.87196e-08
3.80752e-09
3.30182e-10
3.4354e-11
8.82218e-12
5.71113e-12
4.73504e-12
3.10006e-12
1.49508e-12
5.02229e-13
1.24026e-13
2.44232e-14
4.59678e-15
2.03372e-08
1.94297e-07
4.23806e-06
1.4418e-05
2.35786e-05
1.52999e-05
5.67859e-06
1.49603e-06
7.33002e-07
6.09202e-08
4.39793e-09
3.94681e-10
4.06383e-11
8.99506e-12
5.0356e-12
4.29166e-12
2.49647e-12
1.13775e-12
3.83905e-13
9.73234e-14
1.91695e-14
3.20588e-15
7.91199e-16
3.41739e-09
2.67174e-08
6.26632e-07
2.1466e-06
3.26075e-06
1.96571e-06
6.87065e-07
1.68882e-07
3.0507e-08
4.68016e-09
4.92197e-10
4.88658e-11
9.11046e-12
5.64524e-12
3.41805e-12
1.6408e-12
7.31406e-13
2.57569e-13
6.9502e-14
1.44752e-14
2.41091e-15
4.19254e-16
2.52696e-16
7.62274e-10
3.31582e-09
8.91403e-08
2.88547e-07
4.03441e-07
2.30757e-07
7.6749e-08
1.7941e-08
3.13177e-09
4.56387e-10
5.69389e-11
1.13717e-11
3.99463e-12
2.3502e-12
9.84335e-13
4.19229e-13
1.51685e-13
4.37287e-14
9.85647e-15
1.7467e-15
2.70577e-16
8.67582e-17
1.19525e-16
1.66948e-10
4.76565e-10
1.25993e-08
3.7522e-08
4.81652e-08
2.58245e-08
8.1383e-09
1.79344e-09
3.36007e-10
5.08438e-11
1.14392e-11
3.1618e-12
1.73695e-12
5.6834e-13
2.26308e-13
8.16179e-14
2.45481e-14
5.94838e-15
1.14501e-15
1.80965e-16
3.732e-17
3.36298e-17
5.9241e-17
3.41745e-11
7.47806e-11
1.81642e-09
6.0344e-09
7.96067e-09
3.37906e-09
9.206e-10
2.06121e-10
3.76435e-11
1.01767e-11
2.61781e-12
1.41746e-12
3.78814e-13
1.3107e-13
4.36855e-14
1.30943e-14
3.33669e-15
6.99796e-16
1.1989e-16
2.02068e-17
1.02298e-17
1.60956e-17
2.81133e-17
3.35468e-11
3.45592e-11
3.07932e-10
2.50079e-09
3.37935e-09
9.86428e-10
2.04529e-10
3.38083e-11
6.10473e-12
2.91533e-12
1.15182e-12
2.44074e-13
7.71172e-14
2.45917e-14
6.33015e-15
1.5228e-15
3.15819e-16
5.44271e-17
8.48877e-18
2.92872e-18
4.16138e-18
7.56725e-18
1.23703e-17
0.995143
0.994447
0.993401
0.991999
0.775164
0.761715
0.736882
0.699382
0.00214296
0.00593998
0.00442978
0.00120894
0.000790801
0.000791392
0.000788801
0.000805186
0.000789578
0.000787879
0.000816142
0.000848986
0.000865359
0.000818808
0.000833929
0.000771699
0.0440433
0.00391103
0.00154703
0.00105048
0.380256
0.235063
0.158617
0.0831209
0.375635
0.37116
0.37116
0.371163
0.215231
0.279016
0.295949
0.361793
-1.29906e-05
-5.02805e-07
2.1315e-06
0.0279908
2.02327e-10
1.32769e-10
-5.16573e-08
-6.23454e-07
1.41941e-10
7.85981e-11
2.73018e-11
3.99924e-12
5.83604e-09
1.99288e-10
7.21256e-10
5.28855e-10
8.85422e-10
7.92954e-10
1.10185e-09
9.19945e-10
3.20983e-10
5.66978e-10
5.34404e-10
1.13858e-10
1.28712e-10
3.96842e-11
2.68303e-11
2.33749e-11
7.01905e-10
1.74106e-10
6.10677e-11
2.39859e-11
7.14057e-09
2.33402e-09
4.65356e-10
1.00757e-10
2.91123e-08
9.0388e-09
1.15506e-09
2.07891e-10
1.17163e-07
1.65664e-08
2.31826e-09
1.88399e-10
3.25186e-07
4.90077e-08
6.43565e-09
3.5729e-10
4.93446e-07
7.67452e-08
9.78067e-09
5.19454e-10
4.21742e-07
6.50645e-08
7.91881e-09
4.1203e-10
1.63248e-07
2.13506e-08
2.24304e-09
1.21044e-10
7.90509e-09
7.63215e-10
1.29453e-10
2.31337e-11
7.45612e-12
4.18268e-11
2.61349e-11
1.58706e-11
8.79634e-12
2.13159e-11
2.26174e-11
1.52474e-11
8.10939e-12
1.99126e-11
1.88107e-11
1.27704e-11
7.80484e-12
7.1445e-12
5.593e-12
3.6384e-12
5.26895e-12
3.90467e-12
2.25047e-12
1.08491e-12
2.06203e-12
1.08349e-12
4.89089e-13
1.99593e-13
4.7712e-13
2.01211e-13
7.84149e-14
3.2001e-14
7.98091e-14
2.96099e-14
1.22149e-14
7.55428e-15
1.14066e-14
4.76591e-15
3.23675e-15
3.44481e-15
1.90592e-15
1.39347e-15
1.54469e-15
2.01564e-15
5.97415e-16
6.78338e-16
8.75572e-16
1.24719e-15
2.89963e-16
3.69344e-16
5.07157e-16
8.04772e-16
1.5084e-16
1.98351e-16
2.97077e-16
5.4048e-16
7.51958e-17
1.04045e-16
1.78203e-16
3.6539e-16
3.56501e-17
5.48117e-17
1.07996e-16
2.30517e-16
1.52829e-17
2.64614e-17
5.38626e-17
1.05266e-16
0.99378
0.989782
0.987164
0.986838
0.876609
0.499815
0.119144
0.0228444
0.0199609
0.0393945
0.0376325
0.0104709
0.0105772
0.0181128
0.0224941
0.0379418
0.144102
0.199439
0.0542614
0.679421
0.904738
0.885155
0.945151
0.840208
0.140151
0.0239652
0.0234048
0.0236783
0.148784
0.152999
0.13261
0.00791211
0.00335237
0.00412846
0.00498646
0.115454
0.206229
0.178665
0.106109
0.441446
0.93366
0.939988
0.908753
0.432153
0.0637893
0.0239652
0.109078
0.152948
0.152948
0.0913031
0.00336655
0.00344415
0.00344415
0.00950948
0.188001
0.207519
0.207448
0.000907402
0.00202492
0.491183
0.939112
0.936561
0.627711
0.200097
0.0801571
0.0754406
0.0286568
0.023639
0.00534195
0.00427461
0.0373437
0.0742268
0.19999
0.206995
0.207785
0.207623
0.000786889
0.000696416
0.0168914
0.502279
0.723734
0.281111
0.104961
0.022199
0.00627327
0.00738646
0.0111611
0.0480155
0.135733
0.197325
0.196742
0.199765
0.197439
0.203109
0.207448
0.000700544
0.000662762
0.000625474
0.000632315
0.0351492
0.00677507
0.00400932
0.0013535
0.000978666
0.00132992
0.094357
0.183618
0.197246
0.197523
0.197246
0.158826
0.0298599
0.0251215
0.206952
0.000764009
0.000624796
0.000625474
0.000625155
0.000632315
0.000700428
0.000928146
0.000862148
0.00080362
0.00104267
0.0369745
0.195126
0.197523
0.195668
0.0809498
0.00015273
0.00011538
0.000129312
0.105515
0.0182796
0.000701569
0.000623695
0.000632315
0.00065666
0.000686598
0.000733781
0.000789601
0.000805426
0.000805426
0.0503628
0.184844
0.174242
0.0149921
0.000104933
6.03884e-05
8.79509e-05
0.00011538
0.0679303
0.296221
0.106357
0.00144972
0.00067285
0.00069354
0.00722807
0.00164493
0.000869968
0.000798905
0.0198023
0.145447
0.126486
0.0125711
4.76091e-05
1.94212e-05
4.21443e-05
6.05219e-05
0.00242694
0.117596
0.351433
0.340678
0.21613
0.132275
0.0948895
0.221868
0.015709
0.0151479
0.073813
0.173837
0.146329
0.0144281
-1.30081e-07
-1.04821e-07
1.60729e-05
2.11409e-05
0.000111668
0.0255664
0.119133
0.173621
0.250645
0.295404
0.29677
0.29677
0.29677
0.23762
0.230298
0.221688
0.173651
0.0157151
6.64629e-08
2.25284e-08
6.56132e-08
8.67071e-07
1.2396e-05
0.000138808
0.0233047
0.0869425
-2.83699e-08
-1.19363e-09
0.0728847
0.129145
0.142704
0.129127
0.153596
0.140094
0.0348469
2.15194e-09
2.38429e-08
8.69564e-09
6.8433e-09
1.38193e-08
2.43433e-07
5.28092e-06
0.00042735
0.00263166
0.00341259
-7.47656e-19
-6.36968e-10
-4.34501e-09
3.57483e-21
2.00561e-11
1.61454e-10
5.72512e-10
6.52261e-10
4.55686e-10
2.49521e-10
4.28314e-10
-6.57264e-11
3.59672e-10
6.98946e-10
4.18173e-06
2.96411e-05
2.07516e-05
6.4326e-05
3.54817e-06
3.50815e-10
2.50898e-10
1.41495e-10
1.6754e-10
2.18687e-09
8.05735e-09
1.3421e-08
1.17045e-08
1.49416e-09
2.49519e-10
2.67634e-10
4.43746e-10
4.53831e-10
5.04891e-10
4.6697e-10
4.65025e-10
1.41581e-09
2.45342e-08
6.27912e-07
6.28542e-10
4.4246e-10
1.41112e-10
9.55487e-11
8.49698e-09
5.08632e-08
5.27968e-08
5.27971e-08
7.23327e-09
2.4961e-10
1.0446e-09
7.38723e-10
7.6606e-10
7.62336e-10
6.78872e-10
6.4041e-10
1.20269e-09
2.42366e-06
4.52222e-05
1.19307e-10
3.51195e-10
8.03223e-11
3.58601e-11
3.68076e-09
2.31574e-08
4.1984e-08
2.73775e-08
8.30803e-09
2.80173e-10
1.39403e-09
8.47158e-10
9.93363e-10
1.6668e-09
1.07397e-09
9.33463e-10
1.91788e-09
1.60704e-05
0.000143962
1.90977e-11
4.41386e-11
2.2235e-11
3.51561e-11
3.50337e-11
3.67136e-11
3.89518e-11
4.26017e-11
6.63832e-11
1.85906e-09
1.59399e-09
1.08483e-09
1.17987e-09
2.26459e-09
1.16036e-09
1.11943e-09
9.72803e-07
0.000101125
0.000143962
1.35473e-11
9.4966e-12
1.30498e-11
2.18469e-11
4.40855e-11
5.5592e-11
8.0723e-11
3.98373e-10
6.07969e-10
7.56276e-10
1.58359e-09
3.52974e-09
2.85723e-09
2.28015e-09
1.11362e-09
1.11883e-09
1.39609e-05
0.000143205
0.000143888
1.42509e-11
7.97007e-12
8.72543e-12
1.45928e-11
3.07707e-11
6.9631e-11
9.4491e-11
7.85139e-10
3.93237e-09
1.96825e-09
1.91162e-09
1.19058e-08
5.77129e-09
1.98829e-09
1.11131e-09
1.11385e-09
3.26981e-05
0.00011013
0.000143205
4.99733e-11
7.61895e-12
6.19486e-12
1.02554e-11
2.19909e-11
5.69792e-11
6.09717e-11
3.75291e-10
7.55056e-09
4.21921e-08
1.47749e-07
2.51211e-08
4.72958e-09
1.11147e-09
1.11335e-09
1.15902e-06
6.5684e-05
4.82328e-06
4.6737e-05
1.05329e-10
8.88863e-12
5.27863e-12
7.7206e-12
1.64838e-11
5.02981e-11
5.10829e-11
7.07914e-11
2.32823e-08
7.53665e-06
1.32333e-06
1.37797e-09
1.11648e-09
1.11373e-09
1.1122e-09
3.77791e-06
7.7825e-05
4.78553e-06
4.82594e-06
8.17022e-11
8.78178e-12
5.66547e-12
6.40627e-12
1.29951e-11
4.70099e-11
4.86609e-11
1.55987e-10
1.84237e-06
1.31477e-05
1.80926e-06
3.27856e-09
1.37798e-09
1.11632e-09
1.53024e-09
8.02074e-06
7.7825e-05
4.98788e-06
4.92173e-05
4.07805e-11
7.36721e-12
6.15608e-12
5.56097e-12
1.05506e-11
4.36612e-11
4.65919e-11
3.64702e-08
7.30816e-06
1.31939e-05
1.79819e-06
1.22542e-08
3.22892e-07
1.53294e-09
2.79289e-06
2.9213e-05
2.59036e-05
8.41324e-07
7.43203e-05
3.39239e-11
7.20098e-12
6.00379e-12
4.8576e-12
8.57216e-12
4.19952e-11
3.98502e-11
1.09755e-07
1.0409e-05
1.31349e-05
5.46434e-06
2.17012e-08
1.45985e-06
1.26411e-05
2.51326e-05
2.42371e-05
6.46814e-08
6.46868e-08
7.43161e-05
2.25399e-11
5.68377e-12
4.83714e-12
4.16507e-12
6.93487e-12
4.59554e-11
4.77076e-11
1.77432e-09
5.66744e-06
1.30115e-05
9.10924e-06
3.27751e-07
1.82476e-05
2.52759e-05
2.52792e-05
6.66846e-06
6.79616e-08
6.46814e-08
7.41592e-05
4.36948e-11
6.74437e-12
3.14122e-12
3.47293e-12
5.62445e-12
4.47211e-11
4.57267e-11
1.14687e-10
1.27928e-06
1.29238e-05
1.00429e-05
1.40085e-06
2.18699e-05
2.52824e-05
9.4342e-06
4.55979e-06
3.88808e-06
8.227e-08
7.4104e-05
1.2944e-11
5.99388e-12
2.38699e-12
2.86778e-12
4.64063e-12
3.76085e-11
1.80994e-10
1.54295e-10
4.68363e-10
4.48442e-06
1.03317e-05
4.79183e-06
1.18138e-05
1.35108e-05
9.81289e-06
1.611e-05
9.4873e-06
9.73888e-08
7.38191e-05
7.72801e-12
2.85607e-12
1.46103e-12
2.30222e-12
3.78817e-12
2.68451e-11
1.71162e-10
1.50859e-10
1.53662e-10
2.6165e-10
9.99705e-06
1.25186e-05
7.32446e-06
7.27446e-06
1.60658e-05
1.61331e-05
6.23526e-06
1.75538e-08
3.40356e-05
4.47251e-12
1.35654e-12
9.53721e-13
1.81441e-12
3.03603e-12
1.4744e-11
7.92474e-11
1.16948e-10
2.18522e-10
2.20133e-10
5.01175e-07
1.1184e-05
1.15929e-05
1.58023e-05
1.60085e-05
1.17218e-05
4.47794e-07
1.01156e-08
9.64177e-09
1.14874e-12
4.48991e-13
6.46976e-13
1.38417e-12
2.35276e-12
8.80657e-12
2.75609e-11
4.30354e-11
4.3443e-10
2.7016e-10
8.36515e-11
5.53465e-08
3.98587e-06
1.15965e-05
7.00145e-06
3.16513e-12
2.79341e-08
2.59482e-08
9.64184e-09
2.83004e-13
2.08329e-13
4.73713e-13
1.01367e-12
1.73076e-12
5.52798e-12
1.58798e-11
2.41987e-11
2.92387e-10
2.93343e-10
8.19882e-11
8.00616e-12
5.6326e-12
3.87335e-12
2.9808e-12
2.9808e-12
1.5225e-07
1.65615e-07
1.11514e-08
7.1258e-14
1.32311e-13
3.4346e-13
7.07401e-13
1.20108e-12
3.49963e-12
9.85652e-12
1.66512e-11
4.2338e-11
7.21266e-11
9.29933e-11
6.15789e-11
9.66083e-11
6.20462e-11
4.09598e-11
2.83622e-12
2.36178e-07
2.36184e-07
1.42435e-08
3.10279e-14
9.35042e-14
2.39834e-13
4.69336e-13
7.85351e-13
2.18501e-12
5.75791e-12
9.59729e-12
9.60031e-12
2.82918e-11
3.83474e-11
7.03173e-11
1.58933e-10
1.68611e-10
1.13116e-10
1.92921e-12
2.36002e-07
1.66603e-07
4.87117e-09
1.99094e-14
6.60678e-14
1.60759e-13
2.94363e-13
4.78071e-13
1.23894e-12
2.83144e-12
4.473e-12
5.42855e-12
1.72202e-11
2.04427e-11
2.88708e-11
9.38471e-11
1.57312e-10
8.64511e-11
1.81583e-12
5.01249e-08
3.96303e-13
2.8732e-10
1.40321e-14
4.57996e-14
1.02847e-13
1.71825e-13
2.62023e-13
6.12424e-13
1.16573e-12
1.74547e-12
2.39689e-12
6.58742e-12
8.33977e-12
1.08211e-11
2.04935e-11
5.89548e-11
2.09683e-11
1.80204e-12
1.30156e-14
3.88951e-13
1.06691e-10
1.00688e-14
3.074e-14
6.15494e-14
9.08453e-14
1.23039e-13
2.80159e-13
4.81167e-13
7.10856e-13
1.03227e-12
2.68666e-12
3.27393e-12
3.39564e-12
5.40668e-12
7.7356e-12
4.63405e-12
5.69175e-13
1.30152e-14
4.66951e-12
4.44111e-11
7.14037e-15
1.9372e-14
3.33372e-14
4.20814e-14
4.76231e-14
1.15085e-13
1.86289e-13
2.65491e-13
3.6753e-13
8.45285e-13
8.95959e-13
6.28783e-13
7.89874e-13
6.94768e-13
3.85681e-13
5.23364e-14
1.12348e-15
7.58966e-12
9.06329e-12
4.79323e-15
1.09979e-14
1.57665e-14
1.65413e-14
1.50977e-14
3.82148e-14
5.49663e-14
7.07704e-14
8.56009e-14
1.24396e-13
1.01243e-13
3.45961e-14
-8.87762e-15
-2.25097e-14
-1.87575e-14
-6.49764e-15
-8.8652e-16
7.49066e-12
1.12169e-12
2.90579e-15
5.41124e-15
6.29902e-15
5.34374e-15
3.82405e-15
9.72702e-15
1.15695e-14
1.10532e-14
8.53576e-15
3.70104e-15
7.27346e-16
-1.36103e-15
-2.94184e-15
-3.11608e-15
-2.08734e-15
-6.53166e-16
-8.946e-17
3.11264e-12
2.1195e-13
1.53133e-15
2.22083e-15
2.03703e-15
1.34789e-15
7.30382e-16
1.7967e-15
1.58842e-15
4.59105e-16
-2.22806e-16
-3.14606e-16
-1.96286e-16
-9.66686e-17
-4.17963e-17
-1.64471e-17
-5.62573e-18
-1.19415e-18
-1.3267e-19
1.0835e-12
7.35083e-14
6.60978e-16
7.01231e-16
4.83369e-16
2.35406e-16
9.12322e-17
2.29516e-16
1.26502e-16
-3.73671e-17
-6.62987e-17
-3.61775e-17
-1.29173e-17
-3.86866e-18
-1.07296e-18
-2.87956e-19
-6.9395e-20
-1.04684e-20
-7.98518e-22
1.9283e-13
1.15883e-14
1.83333e-16
1.28735e-16
6.22219e-17
2.01321e-17
5.01072e-18
1.73227e-17
4.00467e-18
2.3512e-20
-6.32417e-20
-8.44393e-21
-6.02739e-22
-2.85921e-23
-1.04582e-24
-3.66332e-26
-1.76023e-27
-1.23424e-28
-1.69513e-29
-2.3818e-30
-6.21858e-31
)
;

boundaryField
{
    leftWall
    {
        type            zeroGradient;
    }
    rightWall
    {
        type            zeroGradient;
    }
    lowerWall
    {
        type            zeroGradient;
    }
    atmosphere
    {
        type            inletOutlet;
        inletValue      uniform 0;
        value           nonuniform List<scalar> 
46
(
3.35468e-11
3.45592e-11
3.07932e-10
2.50079e-09
3.37935e-09
9.86428e-10
2.04529e-10
3.38083e-11
6.10473e-12
2.91533e-12
1.15182e-12
2.44074e-13
7.71172e-14
2.45917e-14
0
0
0
0
0
0
0
0
0
0
0
0
0
0
0
0
0
0
0
0
0
0
0
0
0
0
0
0
0
0
0
0
)
;
    }
    defaultFaces
    {
        type            empty;
    }
}


// ************************************************************************* //
