/*--------------------------------*- C++ -*----------------------------------*\
| =========                 |                                                 |
| \\      /  F ield         | OpenFOAM: The Open Source CFD Toolbox           |
|  \\    /   O peration     | Version:  2.3.0                                 |
|   \\  /    A nd           | Web:      www.OpenFOAM.org                      |
|    \\/     M anipulation  |                                                 |
\*---------------------------------------------------------------------------*/
FoamFile
{
    version     2.0;
    format      ascii;
    class       volScalarField;
    location    "1.05";
    object      p;
}
// * * * * * * * * * * * * * * * * * * * * * * * * * * * * * * * * * * * * * //

dimensions      [1 -1 -2 0 0 0 0];

internalField   nonuniform List<scalar> 
2268
(
964.033
961.845
960.969
962.574
965.763
973.443
984.76
996.981
1011.96
1028.67
1046.55
1064.32
1078.11
1087.78
1093.11
1089.4
1076.63
1057.01
1025.43
987.252
952.206
926.645
910.733
904.707
902.019
901.061
902.532
905.487
913.459
925.17
937.73
952.669
969.395
987.332
1005.72
1021.3
1031.96
1035.65
1029.48
1017.73
998.646
965.739
926.1
889.845
863.9
848.635
845.799
844.514
842.973
841.582
843.172
852.115
864.997
877.968
892.526
908.879
926.84
946.27
965.215
978.084
980.719
975.596
963.811
941.172
904.783
862.789
824.875
797.715
784.113
786.994
786.792
784.641
780.091
779.355
789.428
804.438
817.93
831.756
847.325
864.997
885.07
906.661
923.907
930.277
927.236
913.38
884.912
843.05
797.224
756.77
728.607
716.509
728.087
728.546
725.38
718.246
715.051
726.062
743.744
757.7
770.459
784.908
801.891
822.27
846.406
870.854
885.121
884.353
866.198
829.699
780.119
728.873
684.107
656.948
647.624
669.038
669.875
664.778
655.852
651.302
662.918
683.066
697.517
708.523
721.625
737.494
758.08
785.698
820.064
843.627
845.394
822.412
775.952
716.978
658.768
609.281
582.697
574.297
609.829
608.548
601.826
592.708
588.661
600.565
621.267
635.516
645.512
657.168
671.579
692.157
723.647
770.511
805.497
811.588
784.465
729.349
657.958
591.328
537.13
510.688
496.87
549.921
543.959
535.458
528.715
526.963
538.963
557.751
570.265
579.629
590.59
603.036
622.809
658.82
722.848
770.498
781.918
757.168
691.239
600.939
523.845
461.059
431.318
415.977
685.046
675.408
631.855
677.513
652.544
535.321
462.218
465.214
471.422
444.976
397.836
378.571
401.254
410.438
390.853
391.138
412.622
443.967
459.746
629.721
614.9
572.747
616.297
583.403
450.992
387.5
405.186
420.702
394.681
344.427
321.758
352.235
362.143
331.369
331.476
360.278
397.191
414.701
577.952
560.309
525.485
550.643
497.133
351.102
311.372
344.721
370.626
350.61
292.741
261.222
294.95
303.145
270.526
274.094
311.721
355.363
371.879
525.495
510.146
481.996
486.368
401.57
251.74
240.578
282.689
315.686
295.328
235.696
207.113
238.272
243.401
209.058
216.438
259.439
312.158
328.696
473.814
467.077
444.601
432.915
315.756
168.861
180.33
221.616
246.266
216.666
174.103
158.131
181.754
183.193
166.05
181.55
222.537
273.67
287.567
422.159
428.128
407.375
394.941
257.261
114.662
134.269
163.631
156.472
132.539
128.932
122.835
136.087
144.634
149.313
164.43
203.297
253.004
261.355
368.612
387.646
368.284
368.799
235.642
99.1661
103.084
113.666
103.829
109.286
118.079
120.028
123.644
131.907
136.719
147.324
183.047
239.867
252.199
308.226
341.455
332.55
347.905
252.707
124.801
102.568
90.8373
89.7705
99.1405
113.996
120.677
121.43
124.547
124.032
127.949
155.373
220.949
245.49
451.606
430.017
423.378
426.505
433.54
445.936
458.642
464.5
471.098
482.952
493.112
508.112
546.927
651.103
763.423
765.156
705.162
615.578
495.802
381.661
313.482
278.952
272.36
309.473
250.927
255.87
281.723
307.122
325.311
323.282
311.971
311.886
328.893
325.621
319.022
374.296
482.627
574.061
615.116
550.494
431.873
270.795
140.731
101.886
98.9509
101.841
194.488
137.737
133.879
160.243
188.237
202.831
188.208
151.624
151.416
184.921
171.404
125.292
144.889
209.727
238.519
241.711
242.026
188.677
107.476
66.6104
57.7746
56.0752
55.1809
111.874
91.4953
89.4285
92.53
112.984
127.795
81.3805
34.5033
38.8125
68.1463
78.3869
67.0677
58.33
51.4744
36.6017
27.8305
33.9142
47.9716
53.5412
56.4073
56.1911
55.6951
55.1577
83.0225
77.9725
80.5463
74.7964
69.6659
62.2847
22.8417
7.17535
10.3816
17.0004
26.5727
33.4365
23.3131
11.4296
5.17664
2.55883
4.51125
11.6334
28.5058
45.6404
55.2245
55.3118
54.8254
82.2744
75.4067
72.3684
60.7676
49.2927
18.5092
7.41118
6.52676
5.26337
4.63298
8.02342
10.7554
7.39256
0.601469
-0.121897
-0.477202
-0.225571
1.77124
11.2275
29.9226
41.1809
53.2749
54.2176
79.8021
71.5802
60.7301
39.8052
18.1745
8.56845
6.52995
6.09434
3.5755
1.41218
0.0558374
-0.697595
-0.907691
-1.22091
-1.45992
-1.66578
-1.69612
-1.36026
2.10695
17.3273
29.7691
37.4649
46.2432
65.5837
60.0689
43.857
25.0144
15.4463
9.25236
6.01677
5.46112
2.8875
-0.0831058
-0.628083
-1.07396
-1.40837
-1.47508
-1.62855
-1.82024
-1.89436
-1.84467
-1.8332
1.6655
14.6035
24.0456
31.2983
55.4075
50.7387
39.6517
24.6834
13.4925
7.99445
4.6454
2.46015
-0.895067
-1.33683
-1.21473
-1.42174
-1.57267
-1.62498
-1.707
-1.82275
-1.90632
-1.93595
-1.93424
-1.98058
-1.6244
8.39657
15.6792
62.9067
45.1674
30.5671
17.7565
9.70954
5.1058
0.929714
-1.62306
-2.68093
-2.05684
-1.73596
-1.79143
-1.83874
-1.84398
-1.86982
-1.9294
-1.98363
-2.02001
-2.04906
-2.06224
-2.01468
-2.17006
-1.6054
48.3546
29.1383
12.8054
3.73479
0.266208
-1.12525
-2.21985
-2.93891
-2.90301
-2.37841
-2.14893
-2.11316
-2.09584
-2.07709
-2.07433
-2.09082
-2.11427
-2.13303
-2.14522
-2.14833
-2.15971
-2.15362
-2.0643
18.2008
2.03818
1.13703
-0.765086
-1.59262
-1.98844
-2.4349
-2.79874
-2.80993
-2.57608
-2.47221
-2.4153
-2.36323
-2.31793
-2.28843
-2.27808
-2.27717
-2.27646
-2.2707
-2.25942
-2.24807
-2.22108
-2.20812
1.22197
-4.85755
-1.86155
-1.88045
-1.98929
-2.21866
-2.5245
-2.78741
-2.87287
-2.81452
-2.77839
-2.7273
-2.66694
-2.60683
-2.55508
-2.51433
-2.48072
-2.45029
-2.42072
-2.39175
-2.36143
-2.32645
-2.29651
-2.20962
-2.46842
-2.00207
-2.32805
-2.37496
-2.54506
-2.7616
-2.96544
-3.07927
-3.10882
-3.11088
-3.08116
-3.03054
-2.96365
-2.88816
-2.81054
-2.7346
-2.66224
-2.59574
-2.53696
-2.48531
-2.43961
-2.39901
6.20453
-1.67833
-2.28168
-2.69211
-2.73624
-2.8996
-3.07068
-3.24865
-3.37588
-3.45131
-3.49579
-3.50822
-3.48378
-3.41815
-3.31817
-3.19548
-3.06091
-2.92672
-2.80453
-2.7016
-2.61887
-2.55344
-2.501
9.89343
-1.66384
-2.62635
-3.04418
-3.08709
-3.25564
-3.40309
-3.5717
-3.71987
-3.85033
-3.96759
-4.05628
-4.08877
-4.04497
-3.9239
-3.73771
-3.51048
-3.27523
-3.06223
-2.89036
-2.7631
-2.67264
-2.60796
9.26896
-1.75306
-2.95942
-3.3822
-3.44034
-3.62032
-3.7524
-3.92897
-4.12158
-4.34296
-4.58416
-4.8064
-4.94587
-4.94575
-4.79152
-4.50253
-4.13119
-3.74048
-3.38836
-3.11125
-2.91835
-2.79475
-2.71659
16.3657
-3.37734
-3.5275
-3.75665
-3.83899
-4.01338
-4.13782
-4.34393
-4.61465
-4.97839
-5.40808
-5.8222
-6.09838
-6.12999
-5.90548
-5.45769
-4.88831
-4.29781
-3.77012
-3.35848
-3.08054
-2.9166
-2.82692
-5.06921
-7.48704
-4.56171
-4.3549
-4.3353
-4.45502
-4.57597
-4.82817
-5.20929
-5.7575
-6.40634
-7.00945
-7.39589
-7.4362
-7.11411
-6.45772
-5.64462
-4.84214
-4.14267
-3.60252
-3.23878
-3.03255
-2.94421
-7.5243
-8.35446
-5.88557
-5.07891
-4.87847
-4.92453
-5.04587
-5.34996
-5.85311
-6.58317
-7.42589
-8.17955
-8.61127
-8.60025
-8.13311
-7.28345
-6.25069
-5.26729
-4.44449
-3.81899
-3.39892
-3.16633
-3.06409
-7.45408
-8.21884
-6.30289
-5.53169
-5.31783
-5.33771
-5.47436
-5.82886
-6.43459
-7.29897
-8.279
-9.08439
-9.44549
-9.32094
-8.72868
-7.76808
-6.63187
-5.56179
-4.68542
-4.0278
-3.58508
-3.33233
-3.21725
-6.5983
-6.15153
-5.92541
-5.66831
-5.55778
-5.61095
-5.77757
-6.1716
-6.83152
-7.74793
-8.74703
-9.48018
-9.7371
-9.53346
-8.8765
-7.89461
-6.79003
-5.76947
-4.93187
-4.29418
-3.84563
-3.56901
-3.42534
-5.98
-5.89725
-5.74147
-5.67028
-5.63084
-5.73179
-5.91643
-6.31691
-6.9549
-7.8085
-8.69496
-9.29405
-9.4686
-9.21727
-8.58305
-7.71924
-6.80435
-5.96692
-5.2606
-4.6843
-4.22795
-3.90276
-3.70287
-5.87164
-5.97382
-5.71862
-5.659
-5.61918
-5.74107
-5.90355
-6.25688
-6.79134
-7.47418
-8.15385
-8.60194
-8.71018
-8.47009
-7.98101
-7.37632
-6.76185
-6.20189
-5.69284
-5.19844
-4.72059
-4.31737
-4.03432
-6.05728
-5.99259
-5.66355
-5.60223
-5.54649
-5.66355
-5.7802
-6.03391
-6.40207
-6.86409
-7.32064
-7.63061
-7.70171
-7.54744
-7.27172
-6.96565
-6.68968
-6.43517
-6.13248
-5.7176
-5.21446
-4.73239
-4.3644
-6.17873
-5.64232
-5.38406
-5.47499
-5.42244
-5.52572
-5.58732
-5.73288
-5.93432
-6.19192
-6.45342
-6.63494
-6.70043
-6.65516
-6.57699
-6.53595
-6.54619
-6.53227
-6.38353
-6.03942
-5.54681
-5.04751
-4.65362
-1.10621
-4.68807
-4.70212
-5.30815
-5.26569
-5.372
-5.38809
-5.44622
-5.52273
-5.62886
-5.74933
-5.84324
-5.8967
-5.91984
-5.97598
-6.10345
-6.26827
-6.37235
-6.31088
-6.04052
-5.61737
-5.17674
-4.81754
9.60933
-4.71316
-4.78564
-5.17348
-5.16627
-5.25462
-5.23281
-5.22852
-5.2281
-5.2467
-5.2847
-5.32589
-5.35308
-5.39718
-5.50516
-5.68695
-5.8844
-6.00995
-5.98974
-5.79791
-5.49621
-5.18269
-4.89775
10.645
-5.8881
-4.9458
-5.22683
-5.13426
-5.19418
-5.13981
-5.10113
-5.0695
-5.05037
-5.04411
-5.03836
-5.03978
-5.07902
-5.18243
-5.34233
-5.50685
-5.61617
-5.62003
-5.51076
-5.32519
-5.10985
-4.92862
10.5189
-5.81092
-4.81542
-5.29092
-5.11991
-5.17829
-5.11695
-5.07564
-5.03437
-4.98628
-4.94489
-4.90762
-4.89288
-4.9212
-5.00187
-5.12272
-5.24759
-5.33601
-5.35811
-5.30911
-5.20759
-5.08066
-4.955
1.51482
-7.25183
-4.72165
-5.07824
-5.14851
-5.21286
-5.16421
-5.1242
-5.06411
-4.98747
-4.91317
-4.86207
-4.84337
-4.8652
-4.9276
-5.01822
-5.1128
-5.18386
-5.21314
-5.19686
-5.14373
-5.06721
-4.98131
-5.24459
-5.65821
-4.76036
-5.04234
-5.20492
-5.2286
-5.19072
-5.15827
-5.07047
-4.97599
-4.89765
-4.85116
-4.83943
-4.86165
-4.91377
-4.98448
-5.05711
-5.1146
-5.14499
-5.14523
-5.11847
-5.0718
-5.01295
-5.23206
-5.05238
-4.56298
-5.21479
-5.69106
-5.48198
-5.14246
-5.0717
-5.00266
-4.93615
-4.88067
-4.85386
-4.85597
-4.8827
-4.92952
-4.98803
-5.04673
-5.0948
-5.12452
-5.13305
-5.1209
-5.09309
-5.05201
-5.22418
-5.1902
-4.86606
-4.59781
-5.27601
-5.47435
-5.00384
-4.91247
-4.90685
-4.88956
-4.87163
-4.87047
-4.88737
-4.91968
-4.96419
-5.01523
-5.0652
-5.10682
-5.13498
-5.14742
-5.14412
-5.1275
-5.10034
-5.20874
-5.21752
-5.11173
-5.02051
-4.9063
-4.76933
-4.7511
-4.79343
-4.8507
-4.87332
-4.88791
-4.90755
-4.9356
-4.9721
-5.01514
-5.06094
-5.10452
-5.14111
-5.1673
-5.18137
-5.18325
-5.17426
-5.15643
-5.21753
-5.22573
-5.14019
-5.04716
-4.91372
-4.79462
-4.81312
-4.84757
-4.87953
-4.91005
-4.93876
-4.96808
-5.00161
-5.03949
-5.08031
-5.1215
-5.15975
-5.19195
-5.21582
-5.23019
-5.23499
-5.23101
-5.21966
-5.23544
-5.22128
-5.1651
-5.07526
-4.94517
-4.88746
-4.90737
-4.93609
-4.96041
-4.98891
-5.01895
-5.05043
-5.08408
-5.12035
-5.15773
-5.19413
-5.22737
-5.25539
-5.2767
-5.29051
-5.29676
-5.296
-5.28918
-5.2808
-5.26464
-5.22241
-5.16062
-5.08979
-5.05003
-5.04436
-5.05458
-5.07229
-5.09497
-5.121
-5.14964
-5.18042
-5.21279
-5.24543
-5.27665
-5.30488
-5.32875
-5.34723
-5.35983
-5.36653
-5.36771
-5.36405
-5.35688
-5.34488
-5.31277
-5.26824
-5.22346
-5.19534
-5.18676
-5.19074
-5.20179
-5.21811
-5.23861
-5.26219
-5.28792
-5.31478
-5.34171
-5.36732
-5.39039
-5.40997
-5.42538
-5.43628
-5.44268
-5.44488
-5.44336
-5.45129
-5.44221
-5.42022
-5.39111
-5.36334
-5.34487
-5.3369
-5.33673
-5.34242
-5.35301
-5.36752
-5.38497
-5.40438
-5.42476
-5.44522
-5.46475
-5.48242
-5.49751
-5.50956
-5.51834
-5.52388
-5.52639
-5.52623
-5.55681
-5.55023
-5.53733
-5.52166
-5.50707
-5.4963
-5.49013
-5.48838
-5.49065
-5.49644
-5.50511
-5.51599
-5.52831
-5.54133
-5.55443
-5.56709
-5.57887
-5.58921
-5.59768
-5.60408
-5.60842
-5.61086
-5.61162
-5.67158
-5.6699
-5.66547
-5.65981
-5.65461
-5.65044
-5.64754
-5.64611
-5.64626
-5.64794
-5.6509
-5.65479
-5.65921
-5.66368
-5.66777
-5.67258
-5.67834
-5.6839
-5.68864
-5.69238
-5.69514
-5.69706
-5.69833
247.755
244.052
245.284
248.123
103.274
102.655
105.521
111.574
54.6737
54.3514
54.903
56.8237
54.819
54.6428
54.5789
54.5694
54.4803
54.2925
54.1146
53.9058
54.009
53.783
53.5592
53.3218
51.6378
52.701
52.813
52.7299
35.6782
38.5704
43.3255
47.579
21.4878
25.4265
30.6653
34.4624
10.4483
14.4103
16.5855
19.0094
-2.1505
-2.10897
-1.76773
0.071279
-2.20328
-2.17582
-2.13436
-2.10481
-2.26177
-2.2388
-2.22808
-2.22477
-2.36806
-2.34876
-2.33066
-2.31336
-2.46814
-2.44886
-2.43094
-2.41327
-2.57134
-2.55017
-2.53095
-2.51309
-2.67696
-2.65509
-2.63597
-2.61876
-2.78561
-2.76415
-2.74628
-2.7307
-2.90174
-2.88119
-2.86526
-2.85185
-3.02862
-3.01149
-2.99823
-2.98722
-3.18348
-3.16774
-3.1545
-3.14329
-3.38104
-3.36067
-3.34197
-3.32561
-3.62917
-3.59414
-3.5622
-3.53435
-3.91552
-3.85683
-3.80513
-3.76093
-4.20278
-4.1201
-4.04864
-3.98819
-4.45629
-4.35438
-4.26895
-4.19716
-4.63086
-4.53068
-4.44541
-4.3722
-4.74554
-4.65735
-4.58046
-4.51258
-4.81374
-4.74591
-4.68245
-4.62411
-4.86857
-4.81533
-4.7647
-4.71655
-4.91717
-4.87644
-4.83657
-4.79782
-4.96585
-4.93511
-4.90425
-4.87361
-5.01798
-4.99509
-4.97153
-4.94763
-5.07557
-5.05856
-5.0407
-5.02224
-5.13868
-5.1262
-5.11282
-5.09873
-5.20719
-5.19817
-5.18829
-5.17771
-5.28065
-5.2743
-5.26716
-5.25937
-5.35848
-5.35417
-5.34919
-5.34364
-5.44
-5.43727
-5.43399
-5.43025
-5.52451
-5.523
-5.52109
-5.51884
-5.61119
-5.61068
-5.60994
-5.60897
-5.69895
-5.69928
-5.69952
-5.69967
247.982
261.537
273.304
306.09
272.528
165.695
109.818
84.214
75.9518
83.2331
111.028
123.328
120.278
116.034
110.862
106.931
110.122
182.634
235.616
137.206
146.243
136.275
179.929
178.21
132.336
101.642
81.0317
72.5406
72.0667
95.8958
113.36
115.259
112.84
107.8
105.003
106.681
164.266
237.404
61.0495
69.705
67.6835
93.8371
120.543
103.854
89.4714
80.5419
74.8674
58.538
50.8356
88.0358
108.017
112.667
108.389
106.582
109.922
167.175
242.044
54.3113
53.4694
56.9456
67.4368
88.5814
77.7739
67.5544
70.6931
63.7277
48.5285
49.8253
80.7516
103.534
109.742
104.269
95.7506
96.8161
140.61
217.341
53.5274
52.8976
52.4606
80.016
83.8541
60.4189
52.5013
51.5109
47.1275
41.0718
45.7934
67.3276
96.3134
85.3856
69.7937
52.6606
40.165
54.2573
123.393
52.8956
52.1067
51.2267
50.3618
50.2875
46.8608
46.0294
44.9287
41.9337
37.9401
33.2861
40.1258
55.621
47.1116
28.3854
11.7957
3.9597
3.74104
28.7129
52.4168
51.6598
50.8267
49.9707
49.1117
48.3751
46.9284
43.9418
40.9556
38.0472
34.0606
25.1225
24.9074
13.4839
3.87668
0.497844
0.619258
0.654961
2.1129
51.2561
51.5643
50.7976
50.1375
49.8701
49.8007
48.3234
44.8732
42.0369
40.4325
39.3307
21.6004
4.28815
0.115006
-0.106653
-0.199222
-0.220221
-0.105242
1.15135
37.4348
46.1377
50.0163
50.0396
49.8148
50.2406
48.176
45.918
43.9558
42.5433
32.8038
6.0594
-0.255574
-0.151171
-0.130536
-0.664696
-1.12531
-1.7692
1.7713
23.0972
31.6608
36.7605
41.237
42.4497
39.5121
45.6778
44.9242
39.1294
30.5633
9.55708
0.204995
-0.361154
-0.317842
-0.435668
-1.04306
-2.19044
-5.89302
5.01092
8.32633
12.759
20.0146
23.3632
26.3433
22.5965
29.9173
28.4121
19.0703
8.72571
-0.381478
-0.763269
-0.70744
-0.693423
-0.775219
-1.22256
-2.25433
-3.50994
4.39591
-2.14961
-1.90734
2.38848
6.05524
7.03497
6.10047
7.98522
7.1712
0.446962
-1.36097
-1.35904
-1.14863
-1.01561
-0.985354
-1.03054
-1.20908
-1.40823
-0.796103
0.79893
-2.20612
-2.13974
-2.13564
-2.06643
-1.99184
-1.9538
-1.85372
-1.79709
-1.74747
-1.65523
-1.48155
-1.32787
-1.22838
-1.18617
-1.16979
-1.13046
-0.910403
-0.348301
0.238479
-2.285
-2.24626
-2.2199
-2.15978
-2.09935
-2.03933
-1.97076
-1.90141
-1.79751
-1.67279
-1.58876
-1.48874
-1.40699
-1.34607
-1.28805
-1.19585
-0.992089
-0.613323
-0.26005
-2.38361
-2.34583
-2.30576
-2.25724
-2.20039
-2.13967
-2.07318
-2.00325
-1.92043
-1.82899
-1.74109
-1.65619
-1.57941
-1.50876
-1.42923
-1.34375
-1.18534
-0.9594
-0.732934
-2.48544
-2.44949
-2.41038
-2.36537
-2.31354
-2.25758
-2.19641
-2.12893
-2.05212
-1.97198
-1.89484
-1.82118
-1.75169
-1.68224
-1.60502
-1.52966
-1.41562
-1.27485
-1.14646
-2.59272
-2.55881
-2.52264
-2.48174
-2.43473
-2.38262
-2.32534
-2.26273
-2.19444
-2.12318
-2.05422
-1.98871
-1.92821
-1.86476
-1.79643
-1.73307
-1.65668
-1.56624
-1.49769
-2.7076
-2.67734
-2.64442
-2.60698
-2.56406
-2.51601
-2.46327
-2.40619
-2.34488
-2.2809
-2.21987
-2.16304
-2.1085
-2.0523
-1.99522
-1.94157
-1.8939
-1.84288
-1.79525
-2.83216
-2.80553
-2.7755
-2.74079
-2.70102
-2.65658
-2.60813
-2.55631
-2.50147
-2.44479
-2.39294
-2.34487
-2.29614
-2.24422
-2.19207
-2.14305
-2.11578
-2.0944
-2.05469
-2.9699
-2.945
-2.91633
-2.88283
-2.84481
-2.80294
-2.75802
-2.71108
-2.66262
-2.61458
-2.57504
-2.53719
-2.4927
-2.44129
-2.3904
-2.34146
-2.3169
-2.30904
-2.27958
-3.12494
-3.09749
-3.06708
-3.03243
-2.99426
-2.95347
-2.91092
-2.86792
-2.82548
-2.78844
-2.76426
-2.73699
-2.69441
-2.63973
-2.58429
-2.53374
-2.5029
-2.50188
-2.47419
-3.29956
-3.26352
-3.2272
-3.18854
-3.14803
-3.10649
-3.06469
-3.02389
-2.98568
-2.95986
-2.95046
-2.93201
-2.89083
-2.83066
-2.77012
-2.71511
-2.68064
-2.68534
-2.65879
-3.49249
-3.44144
-3.39498
-3.34951
-3.30462
-3.26053
-3.21774
-3.17697
-3.1407
-3.12159
-3.1175
-3.1035
-3.06469
-3.00412
-2.9408
-2.88846
-2.85818
-2.85929
-2.84043
-3.69724
-3.62674
-3.56721
-3.51303
-3.4624
-3.4146
-3.36937
-3.32667
-3.2891
-3.26685
-3.25894
-3.24493
-3.21103
-3.1548
-3.0966
-3.05575
-3.03616
-3.02936
-3.01788
-3.9025
-3.81229
-3.73936
-3.67625
-3.61969
-3.56791
-3.51974
-3.47439
-3.43331
-3.40158
-3.38086
-3.36045
-3.32924
-3.29075
-3.25234
-3.22531
-3.21161
-3.19929
-3.19033
-4.09547
-3.99013
-3.90646
-3.83604
-3.7746
-3.71956
-3.66916
-3.62194
-3.57805
-3.53852
-3.50507
-3.47827
-3.45494
-3.43635
-3.41759
-3.39684
-3.37882
-3.36491
-3.35691
-4.26606
-4.15393
-4.06442
-3.9897
-3.92531
-3.86831
-3.81715
-3.76949
-3.7252
-3.68394
-3.64603
-3.61741
-3.60093
-3.59058
-3.57673
-3.55825
-3.53882
-3.52543
-3.5188
-4.41155
-4.30099
-4.21102
-4.13549
-4.07051
-4.01339
-3.96226
-3.91567
-3.87275
-3.83332
-3.79726
-3.76883
-3.75162
-3.74036
-3.72731
-3.71051
-3.69371
-3.68233
-3.67696
-4.53456
-4.43191
-4.346
-4.27282
-4.20946
-4.15373
-4.10402
-4.05915
-4.01844
-3.9818
-3.94873
-3.92153
-3.90174
-3.88763
-3.87413
-3.8595
-3.84612
-3.83664
-3.83096
-4.6406
-4.54934
-4.47055
-4.4021
-4.34214
-4.28913
-4.24184
-4.19936
-4.16111
-4.12685
-4.0965
-4.07107
-4.05063
-4.03496
-4.02107
-4.00791
-3.99715
-3.98903
-3.98313
-4.73524
-4.6566
-4.58656
-4.52436
-4.4691
-4.41982
-4.37571
-4.3361
-4.30054
-4.26879
-4.24075
-4.21689
-4.19718
-4.18143
-4.16776
-4.1556
-4.14662
-4.13954
-4.13442
-4.82306
-4.75685
-4.69609
-4.64093
-4.59114
-4.54627
-4.50587
-4.46951
-4.43685
-4.40773
-4.38203
-4.35997
-4.34136
-4.32615
-4.31317
-4.3021
-4.29422
-4.28801
-4.2839
-4.90744
-4.8527
-4.80104
-4.75312
-4.70916
-4.66908
-4.63273
-4.59986
-4.57028
-4.54387
-4.52054
-4.50041
-4.48319
-4.46897
-4.45691
-4.44691
-4.43988
-4.43444
-4.43126
-4.99068
-4.94614
-4.90298
-4.86211
-4.82401
-4.78887
-4.75673
-4.7275
-4.70111
-4.67749
-4.65658
-4.63845
-4.62281
-4.60983
-4.59885
-4.58993
-4.58364
-4.57879
-4.57638
-5.07425
-5.03856
-5.00311
-4.96888
-4.93648
-4.90624
-4.87834
-4.85281
-4.82966
-4.80888
-4.79044
-4.77438
-4.76047
-4.74886
-4.73907
-4.73125
-4.72573
-4.72115
-4.71939
-5.159
-5.13089
-5.1023
-5.0742
-5.0472
-5.02171
-4.998
-4.97616
-4.95628
-4.93837
-4.92243
-4.9085
-4.8964
-4.88626
-4.87771
-4.87094
-4.86593
-4.86235
-4.86065
-5.24537
-5.2237
-5.20118
-5.17864
-5.15669
-5.13576
-5.11612
-5.09793
-5.08129
-5.06625
-5.05284
-5.04107
-5.03083
-5.02222
-5.01496
-5.00926
-5.00492
-5.00205
-5.00048
-5.3335
-5.31729
-5.3001
-5.28261
-5.26536
-5.24875
-5.23305
-5.21843
-5.205
-5.19282
-5.18194
-5.17235
-5.16401
-5.15696
-5.15103
-5.14638
-5.14279
-5.14051
-5.1392
-5.42327
-5.41176
-5.39929
-5.3864
-5.37353
-5.36102
-5.34912
-5.33798
-5.3277
-5.31836
-5.30999
-5.30259
-5.29616
-5.29071
-5.28612
-5.28254
-5.27972
-5.27798
-5.27697
-5.51452
-5.50713
-5.4989
-5.49024
-5.48147
-5.47287
-5.46462
-5.45686
-5.44967
-5.44313
-5.43725
-5.43205
-5.42753
-5.42368
-5.42045
-5.41792
-5.4159
-5.41469
-5.41395
-5.60699
-5.60328
-5.59894
-5.59422
-5.58933
-5.58446
-5.57975
-5.57529
-5.57115
-5.56737
-5.56398
-5.56098
-5.55837
-5.55615
-5.55428
-5.5528
-5.55158
-5.5509
-5.55036
-5.69978
-5.69949
-5.69884
-5.6979
-5.6968
-5.69563
-5.69444
-5.6933
-5.69224
-5.69128
-5.69042
-5.68967
-5.68902
-5.68848
-5.68802
-5.68765
-5.68726
-5.6871
-5.68661
)
;

boundaryField
{
    leftWall
    {
        type            calculated;
        value           nonuniform List<scalar> 
50
(
964.033
904.707
845.799
786.994
728.087
669.038
609.829
549.921
451.606
309.473
194.488
111.874
83.0225
82.2744
79.8021
65.5837
55.4075
62.9067
48.3546
18.2008
1.22197
-2.20962
6.20453
9.89343
9.26896
16.3657
-5.06921
-7.5243
-7.45408
-6.5983
-5.98
-5.87164
-6.05728
-6.17873
-1.10621
9.60933
10.645
10.5189
1.51482
-5.24459
-5.23206
-5.22418
-5.20874
-5.21753
-5.23544
-5.2808
-5.35688
-5.45129
-5.55681
-5.67158
)
;
    }
    rightWall
    {
        type            calculated;
        value           nonuniform List<scalar> 
50
(
459.746
414.701
371.879
328.696
287.567
261.355
252.199
245.49
235.616
237.404
242.044
217.341
123.393
28.7129
2.1129
1.15135
1.7713
5.01092
4.39591
0.79893
0.238479
-0.26005
-0.732934
-1.14646
-1.49769
-1.79525
-2.05469
-2.27958
-2.47419
-2.65879
-2.84043
-3.01788
-3.19033
-3.35691
-3.5188
-3.67696
-3.83096
-3.98313
-4.13442
-4.2839
-4.43126
-4.57638
-4.71939
-4.86065
-5.00048
-5.1392
-5.27697
-5.41395
-5.55036
-5.68661
)
;
    }
    lowerWall
    {
        type            calculated;
        value           nonuniform List<scalar> 
62
(
993.463
991.274
990.398
992.004
995.193
1002.87
1014.19
1026.41
1041.39
1058.1
1075.98
1093.75
1107.49
1116.91
1122.17
1118.44
1105.5
1085.73
1054.15
1016.26
981.635
956.074
940.163
910.733
848.635
784.113
716.509
647.624
574.297
496.87
415.977
310.048
306.302
307.469
310.22
685.046
629.721
577.952
525.495
473.814
422.159
368.612
308.226
713.999
704.36
659.336
702.134
677.5
563.9
491.299
494.297
500.505
474.059
419.988
399.384
422.067
431.35
417.066
417.352
438.8
467.254
482.221
)
;
    }
    atmosphere
    {
        type            calculated;
        value           nonuniform List<scalar> 
46
(
-5.72904
-5.72904
-5.72904
-5.72905
-5.72906
-5.72905
-5.72904
-5.72904
-5.72904
-5.72904
-5.72904
-5.72904
-5.72904
-5.72904
-5.72904
-5.72994
-5.73177
-5.73386
-5.73582
-5.73748
-5.73886
-5.74007
-5.7413
-5.74237
-5.74315
-5.74395
-5.74474
-5.74589
-5.74731
-5.74848
-5.74943
-5.75022
-5.75091
-5.75152
-5.75209
-5.75261
-5.7531
-5.75356
-5.75398
-5.75436
-5.7547
-5.75497
-5.7552
-5.75527
-5.7554
-5.75476
)
;
    }
    defaultFaces
    {
        type            empty;
    }
}


// ************************************************************************* //
