/*--------------------------------*- C++ -*----------------------------------*\
| =========                 |                                                 |
| \\      /  F ield         | OpenFOAM: The Open Source CFD Toolbox           |
|  \\    /   O peration     | Version:  2.3.0                                 |
|   \\  /    A nd           | Web:      www.OpenFOAM.org                      |
|    \\/     M anipulation  |                                                 |
\*---------------------------------------------------------------------------*/
FoamFile
{
    version     2.0;
    format      ascii;
    class       volScalarField;
    location    "1.05";
    object      p_rgh;
}
// * * * * * * * * * * * * * * * * * * * * * * * * * * * * * * * * * * * * * //

dimensions      [1 -1 -2 0 0 0 0];

internalField   nonuniform List<scalar> 
2268
(
993.463
991.274
990.398
992.004
995.193
1002.87
1014.19
1026.41
1041.39
1058.1
1075.98
1093.75
1107.49
1116.91
1122.17
1118.44
1105.5
1085.73
1054.15
1016.26
981.635
956.074
940.163
992.995
990.307
989.349
990.82
993.775
1001.75
1013.46
1026.02
1040.96
1057.68
1075.62
1094.01
1108.11
1116.1
1120.05
1115.51
1103.65
1085.61
1052.56
1013.74
977.965
952.188
936.923
992.946
991.661
990.12
988.729
990.319
999.262
1012.14
1025.11
1039.67
1056.03
1073.99
1093.41
1108.87
1118.31
1120.94
1115.83
1107
1088.32
1051.93
1009.94
972.022
944.862
931.259
993
992.797
990.647
986.096
985.36
995.433
1010.44
1023.94
1037.76
1053.33
1071
1091.08
1111.19
1121.92
1126.61
1128.66
1119.39
1090.92
1049.06
1003.23
962.775
934.612
922.513
992.951
993.41
990.244
983.11
979.915
990.924
1008.61
1022.56
1035.32
1049.77
1066.76
1087.13
1111.26
1135.05
1148.32
1149.14
1131.06
1094.56
1044.98
993.734
948.968
921.81
912.429
992.76
993.598
988.501
979.575
975.025
986.564
1006.68
1021.24
1032.25
1045.35
1061.22
1081.8
1109.42
1143.79
1167.34
1169.11
1146.13
1099.66
1040.66
980.651
926.9
895.286
897.174
991.43
991.085
984.408
975.29
971.243
983.023
1003.56
1017.99
1028.09
1039.75
1054.16
1074.74
1106.23
1153.09
1188.08
1194.16
1167.01
1109.5
1019.33
924.78
867.981
848.98
877.794
961.487
967.158
976.156
970.156
968.404
980.403
998.9
1011.44
1021.06
1032.03
1044.48
1064.25
1100.26
1164.29
1211.94
1221.08
1170.93
1050.84
947.307
871.432
833.532
858.884
855.507
713.999
704.36
659.336
702.134
677.5
563.9
491.299
494.297
500.505
474.059
419.988
399.384
422.067
431.35
417.066
417.352
438.8
467.254
482.221
716.609
699.12
641.48
685.122
654.912
537.545
474.732
492.428
507.853
472.554
411.141
385.544
414.675
424.611
407.412
410.116
428.302
458.202
475.672
722.84
693.867
637.036
671.516
629.004
493.479
456.746
490.107
504.279
476.777
420.026
385.75
399.062
416.238
399.884
403.468
423.312
460.227
473.813
728.354
697.066
638.125
688.161
604.532
439.887
436.002
486.212
513.887
485.27
414.487
385.51
412.162
416.003
377.589
348.081
394.135
457.774
481.77
736.45
682.249
645.531
691.688
576.749
410.755
434.327
483.036
507.475
442.91
371.298
382.458
405.736
386.741
233.421
218.812
263.196
339.099
482.495
743.922
690.922
708.792
714.156
576.376
419.813
452.2
482.888
417.542
229.066
211.803
285.927
318.584
207.846
165.827
180.852
220.088
269.995
326.248
748.884
722.339
744.495
746.053
612.895
475.282
478.716
427.9
148.605
115.727
127.038
145.494
156.966
151.433
155.899
166.731
202.457
259.722
272.507
747.001
775.396
768.364
783.15
667.29
558.222
453.687
168.588
97.2018
106.031
120.886
127.421
141.97
149.663
146.727
150.958
183.53
250.819
268.922
917.876
902.138
931.848
959.911
967.006
979.402
992.107
997.948
1004.56
1016.42
1026.58
1041.58
1080.39
1184.57
1295.56
1169.74
1065.27
975.761
898.258
907.107
842.397
809.859
803.51
859.25
803.822
837.314
928.201
965.761
983.967
981.94
970.632
970.548
987.555
984.282
977.683
1018.2
1057.17
1113.55
1227.8
1163.08
1043.27
875.731
682.161
603.856
571.57
597.972
787.223
498.52
626.21
909.295
972.064
986.675
972.06
935.48
930.931
876.378
785.78
577.545
424.325
546.922
864.385
970.849
962.485
879.839
520.624
140.46
65.3577
57.5039
56.5887
668.644
122.578
120.028
287.524
890.908
1036.81
990.42
690.571
382.726
376.962
449.612
373.995
222.394
196.155
368.299
365.855
271.386
273.609
197.849
58.2688
57.848
57.3278
56.7849
469.704
112.855
115.36
512.463
1074.02
1073.35
415.856
47.8878
23.2939
80.6346
329.599
406.307
250.877
40.9182
7.97786
5.63633
10.9702
31.5777
255.696
258.963
57.3425
57.1701
56.6773
363.007
113.486
127.904
684.789
928.825
286.747
16.5197
15.0071
13.881
16.7016
163.604
276.418
220.023
22.4205
1.34087
1.07415
2.5189
52.3783
379.151
437.591
354.042
79.5086
56.6218
402.288
112.124
153.445
350.634
134.83
18.6618
15.9391
15.5035
11.8737
7.34781
4.12548
13.0895
21.2397
2.9608
-0.0775612
-0.293861
-0.290734
0.786228
163.139
486.832
500.174
517.76
214.049
545.796
104.193
91.7981
93.1917
29.818
21.962
17.8373
28.167
12.4469
6.95046
0.946461
0.51821
0.184131
0.00812198
-0.137641
-0.335624
-0.436764
-0.428908
-0.217853
92.6745
512.882
561.015
568.267
817.064
99.1858
87.6906
111.983
64.6149
59.7742
68.334
65.2567
61.5103
0.349798
0.355672
0.135086
-0.0155998
-0.0607418
-0.0849261
-0.198441
-0.308651
-0.399896
-0.40005
-0.430104
-0.00166804
308.827
586.685
1216.47
104.124
112.941
116.321
108.725
102.21
72.605
51.0508
19.807
-0.374382
-0.0693343
-0.12746
-0.176248
-0.15699
-0.0554257
-0.114311
-0.203153
-0.359799
-0.388805
-0.403791
-0.354783
-0.559115
0.0343326
1302.07
140.417
66.4311
65.687
42.2323
19.1668
8.23214
1.94231
-1.10595
-0.590058
-0.362428
-0.327414
-0.310157
-0.276228
-0.251373
-0.284182
-0.328849
-0.347605
-0.359764
-0.362881
-0.374308
-0.368305
-0.278893
1359.83
148.824
10.0873
2.66217
0.513429
-0.0221595
-0.483456
-0.847018
-0.898069
-0.665125
-0.561533
-0.504651
-0.452598
-0.407111
-0.377815
-0.367469
-0.366561
-0.365772
-0.35992
-0.348669
-0.337446
-0.310459
-0.297505
1029.11
126.388
1.08337
0.323781
0.070684
-0.175467
-0.482206
-0.744767
-0.836315
-0.778576
-0.742565
-0.691483
-0.631133
-0.571021
-0.519271
-0.478524
-0.444915
-0.41448
-0.384909
-0.355934
-0.325619
-0.290627
-0.26069
580.694
88.8359
0.334821
-0.137478
-0.209622
-0.382861
-0.599324
-0.80325
-0.918148
-0.947788
-0.949864
-0.920153
-0.869541
-0.802646
-0.727162
-0.649535
-0.573594
-0.501237
-0.434731
-0.375953
-0.324304
-0.278592
-0.237977
969.006
47.818
0.032459
-0.401093
-0.448972
-0.613095
-0.784188
-0.962224
-1.08965
-1.16509
-1.20959
-1.22202
-1.19758
-1.13195
-1.03196
-0.909273
-0.774692
-0.640504
-0.518308
-0.415386
-0.332671
-0.26724
-0.214798
1243.56
36.6675
-0.20577
-0.63291
-0.675393
-0.844108
-0.991581
-1.16023
-1.30846
-1.43893
-1.55619
-1.64488
-1.67737
-1.63357
-1.51241
-1.32625
-1.09898
-0.863654
-0.650648
-0.478858
-0.351696
-0.261249
-0.196574
1306.98
45.624
-0.392939
-0.847389
-0.903662
-1.08364
-1.21573
-1.39231
-1.58495
-1.80636
-2.04757
-2.26982
-2.4057
-2.40086
-2.24887
-1.96464
-1.59332
-1.20258
-0.850483
-0.573953
-0.381638
-0.258155
-0.180011
1129.61
87.3375
-0.7162
-1.09331
-1.17712
-1.3515
-1.47594
-1.68206
-1.9528
-2.31656
-2.74619
-3.16007
-3.42352
-3.38637
-3.13821
-2.70717
-2.18069
-1.59795
-1.05938
-0.673727
-0.417905
-0.254738
-0.165128
79.6156
86.9868
3.00714
-1.56588
-1.54823
-1.66794
-1.78889
-2.04109
-2.42221
-2.97037
-3.61864
-4.21904
-4.54198
-4.35437
-3.90219
-3.37601
-2.69455
-1.89051
-1.20102
-0.680431
-0.414633
-0.245003
-0.157105
-1.58985
88.4972
4.20486
-2.08007
-1.96566
-2.01226
-2.1336
-2.43769
-2.94078
-3.67032
-4.5101
-4.95621
-5.25376
-5.24274
-4.77739
-3.92432
-2.95575
-2.14562
-1.36384
-0.743901
-0.317625
-0.221248
-0.150448
-1.44779
88.4997
1.42061
-2.49428
-2.28029
-2.30024
-2.43688
-2.79138
-3.39684
-4.23285
-4.89339
-5.58676
-5.94464
-5.82112
-5.22471
-4.26945
-3.20056
-2.42647
-1.5493
-0.849559
-0.368481
-0.155714
-0.165843
-0.580901
64.2026
-1.90936
-2.50567
-2.39511
-2.44827
-2.61489
-3.00891
-3.66842
-4.41219
-5.11163
-5.83756
-6.09537
-5.8908
-5.23098
-4.24885
-3.49605
-2.50491
-1.66653
-1.02813
-0.491951
-0.196276
-0.217012
-2.41992
8.03341
-2.30565
-2.38255
-2.34297
-2.44392
-2.62856
-3.02892
-3.66269
-4.33997
-5.1596
-5.89758
-5.78533
-5.42899
-4.78149
-4.27819
-3.416
-2.57455
-1.86647
-1.28977
-0.72545
-0.394459
-0.349353
-2.20639
-2.43617
-2.31694
-2.24598
-2.2061
-2.328
-2.49014
-2.84353
-3.37516
-4.04623
-4.71315
-5.13984
-4.97145
-4.54537
-4.4581
-3.86777
-3.24753
-2.6818
-2.17149
-1.65514
-1.05832
-0.667109
-0.565424
4.55423
-2.41334
-2.12779
-2.06421
-2.00819
-2.12519
-2.24134
-2.49527
-2.8589
-3.31985
-3.72486
-3.75323
-3.8107
-3.88571
-3.65326
-3.3378
-3.05242
-2.78906
-2.4503
-1.91938
-1.41606
-0.956266
-0.801593
498.259
-1.9649
-1.721
-1.81152
-1.75895
-1.86207
-1.92354
-2.06733
-2.26894
-2.45524
-2.45535
-2.6212
-2.74352
-2.94164
-2.84568
-2.78946
-2.73477
-2.60682
-2.45136
-2.10661
-1.61422
-1.20464
-0.985013
979.719
-0.0505218
-0.913567
-1.51946
-1.47699
-1.58329
-1.59934
-1.65391
-1.73216
-1.82704
-1.78752
-1.70547
-2.02608
-2.10331
-2.1303
-2.06695
-2.20558
-2.30896
-2.2461
-1.97397
-1.56231
-1.3427
-1.029
1026.9
17.1548
-0.873068
-1.25964
-1.25237
-1.3407
-1.31888
-1.31362
-1.3131
-1.3291
-1.19223
-1.30016
-1.43526
-1.46766
-1.33562
-1.50347
-1.69336
-1.81404
-1.79204
-1.62385
-1.5251
-1.26897
-0.984031
1060.96
32.788
-0.85372
-1.18765
-1.09515
-1.15505
-1.10068
-1.06199
-0.988694
-0.872573
-0.871332
-0.986074
-0.999768
-0.99917
-0.941816
-1.04349
-1.20803
-1.36389
-1.44987
-1.46308
-1.28628
-1.07093
-0.889706
1093.39
61.6863
-0.649618
-1.12672
-0.955577
-1.01396
-0.952614
-0.88869
-0.727073
-0.678981
-0.718155
-0.742373
-0.728533
-0.753871
-0.825836
-0.948526
-1.07702
-1.1719
-1.194
-1.14501
-1.04349
-0.916548
-0.790894
466.103
187.303
-0.414132
-0.788361
-0.85892
-0.923323
-0.874668
-0.813724
-0.636604
-0.595535
-0.616424
-0.572546
-0.554038
-0.575895
-0.638295
-0.728912
-0.8235
-0.89456
-0.923838
-0.907561
-0.854425
-0.777904
-0.692003
2.09027
188.575
93.1335
-0.511249
-0.786418
-0.813787
-0.775972
-0.715764
-0.588141
-0.534392
-0.482233
-0.436567
-0.424924
-0.447147
-0.499275
-0.569983
-0.642612
-0.700105
-0.73049
-0.730734
-0.70397
-0.657303
-0.59845
-0.380396
49.2607
101.353
96.1
35.0111
23.491
10.6868
-0.364036
-0.407038
-0.375501
-0.338926
-0.313946
-0.316256
-0.343006
-0.389828
-0.448337
-0.507036
-0.555112
-0.584829
-0.593361
-0.581205
-0.553401
-0.51232
-0.505508
-0.206409
40.2868
65.0396
59.3028
52.4005
35.5782
1.36783
-0.148673
-0.209875
-0.204676
-0.205336
-0.222457
-0.25479
-0.299302
-0.350348
-0.400309
-0.441929
-0.47009
-0.482533
-0.47923
-0.462615
-0.435458
-0.413291
-0.393287
0.42673
4.16179
32.5487
31.336
16.2564
1.97831
-0.00531936
-0.0754223
-0.0968503
-0.117362
-0.14551
-0.182015
-0.225056
-0.270861
-0.314434
-0.351033
-0.377216
-0.391289
-0.393167
-0.384175
-0.366344
-0.301498
-0.304376
-0.112491
0.290445
1.55198
1.19932
0.406833
0.595214
0.123901
0.00693646
-0.0232986
-0.0527844
-0.086332
-0.12421
-0.165039
-0.206223
-0.244475
-0.276672
-0.30054
-0.314912
-0.31971
-0.315739
-0.304386
-0.194872
-0.179834
-0.103288
0.0378137
0.214031
0.230048
0.16169
0.111915
0.0837558
0.0518648
0.0215386
-0.00995669
-0.0436089
-0.0798848
-0.117258
-0.153664
-0.186899
-0.214923
-0.23623
-0.250038
-0.256291
-0.255529
-0.248711
-0.11512
-0.0988392
-0.0535159
0.0161264
0.0927056
0.125781
0.124845
0.111955
0.0935292
0.070718
0.0446629
0.01602
-0.014751
-0.0471273
-0.0797617
-0.110989
-0.13922
-0.163081
-0.181567
-0.194168
-0.200864
-0.202046
-0.198386
-0.0660195
-0.0540017
-0.0214445
0.0241396
0.0695354
0.0967432
0.104509
0.100219
0.0890835
0.0727469
0.0522527
0.0286738
0.00294178
-0.0239248
-0.0508526
-0.0764568
-0.0995348
-0.119116
-0.13452
-0.145416
-0.151816
-0.154018
-0.152499
-0.0352348
-0.026151
-0.00409939
0.0251434
0.0529752
0.0713264
0.0792011
0.0793375
0.0736329
0.0630445
0.0485312
0.0310821
0.0116709
-0.00870496
-0.029165
-0.0486951
-0.0663693
-0.0814588
-0.093502
-0.102283
-0.107823
-0.11034
-0.110176
-0.0155659
-0.00898168
0.00393318
0.0196244
0.034225
0.0449685
0.0511229
0.0528698
0.0505965
0.0448111
0.0361338
0.0252597
0.012941
-7.89052e-05
-0.0131793
-0.0258386
-0.0376208
-0.0479596
-0.0564315
-0.0628368
-0.0671759
-0.0696081
-0.0703674
-0.00513463
-0.00345859
0.000971681
0.00665135
0.0118473
0.0160053
0.0189048
0.020335
0.0201823
0.0185062
0.0155446
0.0116497
0.00723189
0.00276464
-0.00132692
-0.0061342
-0.0118943
-0.0174535
-0.0221978
-0.0259412
-0.0286998
-0.0306169
-0.031888
778.633
774.56
775.234
777.326
613.993
604.524
591.05
572.427
57.1356
59.7866
59.1557
58.5542
56.4462
56.2705
56.2043
56.2097
56.3303
56.1408
55.9921
55.8172
56.1708
55.8908
55.6846
55.3751
109.445
59.0049
56.0831
55.3627
572.647
371.047
268.134
166.058
599.055
596.131
601.37
605.171
369.081
478.834
509.095
620.725
-0.388254
-0.324452
0.0214813
51.7818
-0.29267
-0.265209
-0.223849
-0.195396
-0.225972
-0.203
-0.192276
-0.188967
-0.207056
-0.187768
-0.169664
-0.152365
-0.181944
-0.16267
-0.144746
-0.127082
-0.159953
-0.138786
-0.11956
-0.101705
-0.140383
-0.118511
-0.099387
-0.0821783
-0.123834
-0.102377
-0.0845079
-0.0689297
-0.114751
-0.0942157
-0.0782929
-0.0648836
-0.116373
-0.0992971
-0.0860679
-0.0750528
-0.14577
-0.130329
-0.117133
-0.105931
-0.217457
-0.197959
-0.179395
-0.163054
-0.339802
-0.306136
-0.274422
-0.246604
-0.501145
-0.443669
-0.392161
-0.347988
-0.66407
-0.581894
-0.510494
-0.450057
-0.792927
-0.691047
-0.605614
-0.533829
-0.842337
-0.742158
-0.656889
-0.583674
-0.831819
-0.743632
-0.666736
-0.598856
-0.774823
-0.706992
-0.643531
-0.585199
-0.704463
-0.651219
-0.60059
-0.552442
-0.627867
-0.587133
-0.547267
-0.508519
-0.551352
-0.52061
-0.489755
-0.459109
-0.478287
-0.455398
-0.431838
-0.407934
-0.410684
-0.393677
-0.375817
-0.357358
-0.348602
-0.336121
-0.322736
-0.30865
-0.291911
-0.282898
-0.273019
-0.262429
-0.24018
-0.233825
-0.22669
-0.218896
-0.192815
-0.188502
-0.183524
-0.177973
-0.149144
-0.146409
-0.143135
-0.139391
-0.108456
-0.106944
-0.10504
-0.102782
-0.0699427
-0.0694325
-0.0686875
-0.0677171
-0.0325101
-0.0328328
-0.0330747
-0.0332315
778.134
789.558
799.93
832.542
740.236
432.596
173.848
96.9221
87.1231
104.761
131.617
129.442
126.448
126.221
123.383
127.685
187.452
289.456
265.067
584.926
742.222
719.368
802.501
731.728
225.214
118.07
97.0908
88.7796
170.626
197.228
201.277
121.124
115.704
111.176
108.943
183.309
300.624
355.625
144.925
416.173
799.59
830.7
832.946
443.045
140.207
100.092
161.067
179.091
171.389
160.317
111.437
116.148
111.87
114.812
257.925
330.461
405.274
56.0444
56.2174
503.918
921.192
940.021
648.734
250.18
144.396
133.147
75.462
72.202
86.5119
108.325
144.564
172.586
278.279
285.706
330.217
406.802
55.3747
54.6513
70.9472
600.01
832.658
351.901
161.983
75.4814
54.6433
49.7378
58.3594
117.972
237.589
290.299
274.104
260.094
245.196
265.146
338.764
54.8665
54.0338
53.1106
52.2537
92.1596
55.8677
51.8327
47.6559
44.2267
40.64
143.737
253.966
285.247
277.058
258.011
196.92
39.7052
33.9982
269.581
54.6819
53.7463
52.9141
52.0577
51.2078
50.5586
49.4042
46.3328
43.2715
40.6699
82.7965
276.822
279.683
265.879
109.048
1.97849
2.05196
2.10555
138.81
78.4112
53.9622
53.0859
52.4379
52.2047
52.1775
50.7667
47.3951
44.5811
42.9767
111.672
283.348
251.104
22.64
1.45097
1.29566
1.31348
1.46709
98.2354
493.221
210.769
53.7744
52.6065
52.4134
62.8598
52.2335
48.7871
46.7159
74.445
257.379
201.559
20.5571
1.45686
1.43427
0.934955
0.502524
3.48751
183.639
607.629
598.355
396.884
262.282
201.49
409.154
73.3923
71.7081
163.213
320.542
253.913
25.795
1.29885
1.3422
1.25121
0.652221
-0.345015
38.1706
204.26
319.787
461.602
548.69
554.475
557.455
553.709
455.528
440.964
416.264
320.239
29.4339
1.02226
1.07801
1.09211
1.01174
0.584963
-0.221334
39.8424
161.254
-0.23906
0.00326761
143.414
254.464
281.323
254.476
303.064
276.478
68.8697
0.54964
0.551614
0.761994
0.895011
0.92528
0.880536
0.711605
1.31806
6.13755
9.22313
-0.170322
-0.103936
-0.0998445
-0.0306259
0.0439567
0.0820066
0.18208
0.238716
0.288329
0.380567
0.554248
0.70793
0.807427
0.849633
0.874512
0.965623
1.1676
1.81832
2.2815
-0.124
-0.0852623
-0.0589007
0.0012149
0.0616504
0.121683
0.190268
0.259607
0.36349
0.488204
0.572236
0.672261
0.754008
0.814932
0.872947
0.965145
1.16891
1.54773
1.9023
-0.0974152
-0.0596351
-0.0195652
0.0289511
0.0858194
0.146633
0.21313
0.283058
0.36578
0.4572
0.545104
0.630004
0.706786
0.777437
0.856963
0.942439
1.10085
1.33233
1.65654
-0.0740524
-0.0381017
0.00100907
0.0460195
0.0978555
0.153858
0.215074
0.28252
0.359287
0.43941
0.51655
0.59021
0.659695
0.729153
0.80637
0.88173
0.995774
1.17525
1.61172
-0.0561402
-0.0222269
0.0139364
0.0548401
0.101854
0.153961
0.211243
0.273848
0.342143
0.413406
0.48236
0.547877
0.608375
0.67183
0.740154
0.803512
0.882367
1.22659
1.4037
-0.0458212
-0.0155619
0.0173495
0.0547987
0.0977179
0.145765
0.198501
0.255582
0.316892
0.380875
0.441913
0.498748
0.553282
0.609483
0.666562
0.720209
0.804997
1.19969
1.24914
-0.0451949
-0.0185587
0.0114728
0.046174
0.0859528
0.130385
0.17884
0.230663
0.285511
0.34218
0.394034
0.442129
0.490844
0.542753
0.594906
0.643922
0.762224
0.999195
1.13099
-0.0577339
-0.0328378
-0.00416747
0.0293356
0.067349
0.109221
0.154145
0.201087
0.249566
0.297702
0.337554
0.375043
0.419472
0.470878
0.52177
0.574073
0.786359
0.617154
0.768552
-0.0875778
-0.0601331
-0.0297264
0.00492299
0.0430941
0.0838862
0.126439
0.169433
0.211945
0.271785
0.277112
0.300371
0.342947
0.397628
0.453068
0.515086
0.770605
0.549996
0.577811
-0.137005
-0.100964
-0.064645
-0.0259927
0.0145192
0.0560647
0.0978659
0.138667
0.182697
0.244228
0.217809
0.230549
0.271728
0.331896
0.392433
0.472783
0.727787
0.492975
0.659264
-0.20474
-0.153695
-0.107232
-0.061763
-0.0168684
0.0272215
0.0700104
0.110899
0.171047
0.209493
0.176151
0.184284
0.224122
0.283628
0.356117
0.49523
0.514642
0.43122
0.691414
-0.284302
-0.213801
-0.154268
-0.100092
-0.0494562
-0.00166164
0.043575
0.086643
0.159335
0.190878
0.172636
0.168087
0.206894
0.301246
0.402034
0.439828
0.377006
0.383806
0.648449
-0.364362
-0.274157
-0.201223
-0.138112
-0.0815506
-0.0297762
0.0183918
0.0637479
0.124862
0.182544
0.18947
0.178844
0.273397
0.33673
0.375148
0.3364
0.326764
0.339074
0.609927
-0.432142
-0.326803
-0.243132
-0.172714
-0.111269
-0.0562285
-0.00582874
0.0413904
0.0899594
0.172112
0.195017
0.190188
0.288422
0.319508
0.280266
0.283175
0.298741
0.298717
0.577611
-0.477533
-0.365405
-0.275896
-0.201179
-0.136789
-0.0797864
-0.0286276
0.019036
0.0633271
0.121552
0.181595
0.18925
0.232304
0.249081
0.24893
0.291245
0.285614
0.263468
0.549108
-0.497834
-0.387271
-0.2973
-0.221772
-0.156795
-0.0996691
-0.0485366
-0.00194921
0.0409695
0.0803991
0.155548
0.193839
0.190733
0.201802
0.249222
0.26629
0.244385
0.231454
0.369835
-0.495645
-0.392997
-0.307089
-0.233905
-0.170543
-0.114813
-0.0651041
-0.0202363
0.0204709
0.0571103
0.0922085
0.162512
0.183945
0.215039
0.229377
0.226711
0.194603
0.202319
0.207997
-0.476492
-0.385236
-0.306441
-0.237988
-0.178035
-0.125024
-0.0777344
-0.0352471
0.00300439
0.0372605
0.0676089
0.0932683
0.130055
0.177386
0.172164
0.156201
0.16707
0.175185
0.181015
-0.445935
-0.367298
-0.297254
-0.235061
-0.179798
-0.130518
-0.0864066
-0.0467983
-0.0112343
0.020515
0.0485483
0.0724085
0.0921268
0.107871
0.121548
0.133703
0.143336
0.150474
0.154933
-0.408563
-0.342351
-0.281592
-0.226434
-0.176642
-0.131773
-0.0913757
-0.0550124
-0.0223561
0.00677109
0.032468
0.0545235
0.0731424
0.0883448
0.10133
0.112398
0.121314
0.127526
0.130659
-0.367743
-0.313012
-0.261349
-0.213427
-0.169464
-0.129389
-0.0930386
-0.0601695
-0.0305888
-0.00417916
0.0191473
0.0392806
0.0565068
0.0707198
0.0827833
0.092782
0.100886
0.106008
0.108455
-0.325789
-0.281257
-0.238091
-0.197222
-0.159128
-0.123988
-0.0918466
-0.0626161
-0.0362216
-0.0126006
0.00830691
0.0264381
0.0420764
0.0550611
0.0660376
0.0749548
0.0814847
0.0860973
0.0885083
-0.284164
-0.24848
-0.213024
-0.178797
-0.146399
-0.116159
-0.0882595
-0.0627276
-0.0395793
-0.0187979
-0.000360404
0.0156991
0.0296117
0.0412192
0.0510132
0.0588341
0.0643471
0.0689261
0.0706965
-0.243726
-0.215611
-0.187027
-0.158921
-0.131922
-0.106438
-0.0827239
-0.0608873
-0.0410031
-0.0230902
-0.00715826
0.00677777
0.0188783
0.0290172
0.0375687
0.0443337
0.049348
0.0529298
0.0546262
-0.204905
-0.183226
-0.160705
-0.138169
-0.116221
-0.0952875
-0.0756488
-0.0574583
-0.0408218
-0.0257832
-0.0123739
-0.000597744
0.00963836
0.0182489
0.0255081
0.0312106
0.0355489
0.0384206
0.0399891
-0.167831
-0.151628
-0.134436
-0.116947
-0.099698
-0.0830887
-0.0673886
-0.0527667
-0.0393373
-0.0271597
-0.0162746
-0.00668261
0.00165881
0.00870312
0.0146378
0.0192817
0.0228733
0.0251531
0.0264657
-0.132412
-0.120902
-0.108429
-0.0955365
-0.0826678
-0.0701639
-0.0582598
-0.047116
-0.0368407
-0.0274981
-0.0191283
-0.011734
-0.00530211
0.000150481
0.00473754
0.00832364
0.0111343
0.0128788
0.0138887
-0.0984673
-0.0910718
-0.0828489
-0.0741848
-0.0654188
-0.0568159
-0.0485652
-0.0408022
-0.0336187
-0.0270727
-0.0211979
-0.016
-0.0114779
-0.00763087
-0.00440051
-0.00186668
0.000151302
0.00136301
0.00210867
-0.0657383
-0.0620338
-0.0576966
-0.0529708
-0.0480837
-0.0432164
-0.0385041
-0.0340446
-0.0299045
-0.0261267
-0.0227341
-0.0197329
-0.0171232
-0.0148976
-0.0130311
-0.011555
-0.0103295
-0.00965425
-0.00910941
-0.0333386
-0.0330481
-0.0323935
-0.0314618
-0.0303616
-0.0291847
-0.0280008
-0.0268606
-0.0257978
-0.024833
-0.0239755
-0.0232257
-0.0225818
-0.0220345
-0.0215725
-0.0212122
-0.0208197
-0.0206574
-0.020167
)
;

boundaryField
{
    leftWall
    {
        type            fixedFluxPressure;
        gradient        uniform 0;
        value           nonuniform List<scalar> 
50
(
993.463
992.995
992.946
993
992.951
992.76
991.43
961.487
917.876
859.25
787.223
668.644
469.704
363.007
402.288
545.796
817.064
1216.47
1302.07
1359.83
1029.11
580.694
969.006
1243.56
1306.98
1129.61
79.6156
-1.58985
-1.44779
-0.580901
-2.41992
-2.20639
4.55423
498.259
979.719
1026.9
1060.96
1093.39
466.103
2.09027
-0.380396
-0.505508
-0.413291
-0.301498
-0.194872
-0.11512
-0.0660195
-0.0352348
-0.0155659
-0.00513463
)
;
    }
    rightWall
    {
        type            fixedFluxPressure;
        gradient        uniform 0;
        value           nonuniform List<scalar> 
50
(
482.221
475.672
473.813
481.77
482.495
326.248
272.507
268.922
265.067
355.625
405.274
406.802
338.764
269.581
138.81
98.2354
183.639
204.26
161.254
9.22313
2.2815
1.9023
1.65654
1.61172
1.4037
1.24914
1.13099
0.768552
0.577811
0.659264
0.691414
0.648449
0.609927
0.577611
0.549108
0.369835
0.207997
0.181015
0.154933
0.130659
0.108455
0.0885083
0.0706965
0.0546262
0.0399891
0.0264657
0.0138887
0.00210867
-0.00910941
-0.020167
)
;
    }
    lowerWall
    {
        type            fixedFluxPressure;
        gradient        uniform 0;
        value           nonuniform List<scalar> 
62
(
993.463
991.274
990.398
992.004
995.193
1002.87
1014.19
1026.41
1041.39
1058.1
1075.98
1093.75
1107.49
1116.91
1122.17
1118.44
1105.5
1085.73
1054.15
1016.26
981.635
956.074
940.163
940.163
936.923
931.259
922.513
912.429
897.174
877.794
855.507
778.633
774.56
775.234
777.326
713.999
716.609
722.84
728.354
736.45
743.922
748.884
747.001
713.999
704.36
659.336
702.134
677.5
563.9
491.299
494.297
500.505
474.059
419.988
399.384
422.067
431.35
417.066
417.352
438.8
467.254
482.221
)
;
    }
    atmosphere
    {
        type            totalPressure;
        rho             rho;
        psi             none;
        gamma           1;
        p0              uniform 0;
        value           nonuniform List<scalar> 
46
(
0
0
0
0
0
0
0
0
0
0
0
0
0
0
-3.43685e-06
-0.00089977
-0.00273464
-0.00482469
-0.00677734
-0.00843981
-0.00981894
-0.0110292
-0.012259
-0.0133306
-0.0141068
-0.0149086
-0.0157006
-0.0168504
-0.0182673
-0.0194359
-0.0203856
-0.0211821
-0.0218711
-0.0224846
-0.0230455
-0.0235678
-0.0240586
-0.0245181
-0.0249411
-0.025325
-0.0256597
-0.0259319
-0.0261632
-0.0262321
-0.0263555
-0.0257162
)
;
    }
    defaultFaces
    {
        type            empty;
    }
}


// ************************************************************************* //
