/*--------------------------------*- C++ -*----------------------------------*\
| =========                 |                                                 |
| \\      /  F ield         | OpenFOAM: The Open Source CFD Toolbox           |
|  \\    /   O peration     | Version:  2.3.0                                 |
|   \\  /    A nd           | Web:      www.OpenFOAM.org                      |
|    \\/     M anipulation  |                                                 |
\*---------------------------------------------------------------------------*/
FoamFile
{
    version     2.0;
    format      ascii;
    class       surfaceScalarField;
    location    "1.05";
    object      phi;
}
// * * * * * * * * * * * * * * * * * * * * * * * * * * * * * * * * * * * * * //

dimensions      [0 3 -1 0 0 0 0];

internalField   nonuniform List<scalar> 
4432
(
4.81296e-06
-4.81296e-06
7.16205e-06
-2.34908e-06
4.68541e-06
2.47664e-06
-6.55812e-07
5.34122e-06
-3.31667e-06
2.66085e-06
-1.85949e-06
-1.45718e-06
-7.28393e-08
-1.78665e-06
-3.50693e-07
2.77848e-07
-2.20332e-06
1.85262e-06
-5.13078e-06
2.92746e-06
-8.46079e-06
3.33001e-06
-1.0511e-05
2.05017e-06
-1.13491e-05
8.38122e-07
-1.50909e-05
3.74186e-06
-2.3175e-05
8.08404e-06
-3.00733e-05
6.89835e-06
-2.86564e-05
-1.41689e-06
-2.14401e-05
-7.21628e-06
-1.43581e-05
-7.08203e-06
-8.97676e-06
-5.38137e-06
-4.50756e-06
-4.46919e-06
-1.01985e-06
-3.4877e-06
-1.01983e-06
7.46017e-07
-5.55897e-06
7.0607e-07
-2.30913e-06
-1.25158e-06
4.4343e-06
-4.19827e-06
8.28791e-06
-4.99637e-06
3.45895e-06
-2.94655e-06
-3.507e-06
-6.7214e-07
-4.06106e-06
-6.20686e-07
2.26389e-07
-2.89602e-06
4.12796e-06
-6.63999e-06
6.67144e-06
-1.09494e-05
7.63942e-06
-1.55365e-05
6.63721e-06
-2.13287e-05
6.63041e-06
-2.82988e-05
1.07119e-05
-3.23731e-05
1.21584e-05
-2.93313e-05
3.85656e-06
-2.14792e-05
-9.26897e-06
-1.41096e-05
-1.45859e-05
-8.81209e-06
-1.23796e-05
-4.88149e-06
-9.31197e-06
-2.08251e-06
-7.26815e-06
3.43585e-08
-5.60459e-06
-9.8545e-07
-1.24179e-06
-4.31718e-06
-2.75193e-06
-7.98984e-07
-4.3389e-06
6.02127e-06
-5.64104e-06
9.59004e-06
-5.85383e-06
3.67173e-06
-3.8449e-06
-5.51593e-06
-1.30118e-06
-6.60478e-06
-8.91163e-07
-1.83625e-07
-2.65756e-06
5.89436e-06
-5.8448e-06
9.85867e-06
-9.88618e-06
1.16808e-05
-1.53786e-05
1.21296e-05
-2.23441e-05
1.35959e-05
-2.74791e-05
1.58469e-05
-2.67162e-05
1.13955e-05
-2.06822e-05
-2.17742e-06
-1.46196e-05
-1.53316e-05
-1.02279e-05
-1.89776e-05
-6.09324e-06
-1.65142e-05
-2.73564e-06
-1.26696e-05
-6.84535e-07
-9.31925e-06
6.55266e-07
-6.9444e-06
-3.30187e-07
-6.50411e-07
-3.66677e-06
-1.87602e-06
4.26617e-07
-3.25359e-06
7.39883e-06
-4.45412e-06
1.07906e-05
-4.84399e-06
4.0616e-06
-3.31267e-06
-7.04726e-06
-1.43361e-06
-8.48384e-06
-1.0773e-06
-5.39936e-07
-2.54513e-06
7.36219e-06
-5.26991e-06
1.25834e-05
-8.68607e-06
1.5097e-05
-1.32295e-05
1.66731e-05
-1.84597e-05
1.88261e-05
-2.10099e-05
1.83971e-05
-1.86214e-05
9.00697e-06
-1.4529e-05
-6.26975e-06
-1.18347e-05
-1.8026e-05
-9.07335e-06
-2.1739e-05
-5.1978e-06
-2.03897e-05
-1.67391e-06
-1.61934e-05
5.16088e-07
-1.15093e-05
1.24005e-06
-7.66836e-06
9.09854e-07
1.41513e-06
-5.0819e-06
1.67142e-06
1.7032e-07
3.73141e-07
8.6971e-06
-1.15933e-06
1.2323e-05
-1.53717e-06
4.43943e-06
-6.88491e-07
-7.89594e-06
-4.8961e-07
-8.68272e-06
-9.76008e-07
-5.35437e-08
-2.70635e-06
9.09254e-06
-5.4537e-06
1.53308e-05
-8.47468e-06
1.81179e-05
-1.17472e-05
1.99456e-05
-1.48684e-05
2.19474e-05
-1.5882e-05
1.94107e-05
-1.429e-05
7.41504e-06
-1.28095e-05
-7.75024e-06
-1.14828e-05
-1.93527e-05
-8.22515e-06
-2.49966e-05
-4.08982e-06
-2.4525e-05
-3.9863e-07
-1.98847e-05
2.23935e-06
-1.41472e-05
2.30894e-06
-7.73797e-06
3.2188e-06
4.18496e-06
-9.26686e-06
6.73231e-06
-2.37705e-06
6.11901e-06
9.3104e-06
4.17915e-06
1.42629e-05
3.08814e-06
5.53046e-06
3.09899e-06
-7.90679e-06
2.34077e-06
-7.92451e-06
1.22395e-07
2.16483e-06
-2.58915e-06
1.18041e-05
-5.91167e-06
1.86533e-05
-8.97986e-06
2.11862e-05
-1.16694e-05
2.26351e-05
-1.41509e-05
2.44288e-05
-1.55867e-05
2.08466e-05
-1.52116e-05
7.03993e-06
-1.3993e-05
-8.96886e-06
-1.14053e-05
-2.19405e-05
-7.9858e-06
-2.84161e-05
-4.29338e-06
-2.82174e-05
-8.87063e-08
-2.40894e-05
3.39578e-06
-1.76317e-05
3.56885e-06
-7.91105e-06
6.78765e-06
7.88565e-06
-1.71525e-05
1.24561e-05
-6.9475e-06
1.22741e-05
9.49242e-06
1.00868e-05
1.64501e-05
8.14638e-06
7.4709e-06
7.49602e-06
-7.25642e-06
6.41191e-06
-6.8404e-06
2.98407e-06
5.59267e-06
-1.54036e-06
1.63285e-05
-5.95759e-06
2.30706e-05
-9.4243e-06
2.46529e-05
-1.21508e-05
2.53616e-05
-1.53753e-05
2.76533e-05
-1.82257e-05
2.3697e-05
-1.75074e-05
6.32165e-06
-1.46552e-05
-1.18211e-05
-1.30132e-05
-2.35824e-05
-1.13325e-05
-3.00968e-05
-6.50625e-06
-3.30437e-05
3.01237e-07
-3.08969e-05
5.02495e-06
-2.23554e-05
5.84403e-06
-8.73012e-06
1.26317e-05
1.13957e-05
-2.85482e-05
1.84256e-05
-1.39774e-05
1.85047e-05
9.41327e-06
1.57798e-05
1.91751e-05
1.283e-05
1.04207e-05
1.11043e-05
-5.53071e-06
1.00607e-05
-5.79677e-06
7.27821e-06
8.37511e-06
2.04715e-06
2.15596e-05
-3.72083e-06
2.88386e-05
-7.81227e-06
2.87443e-05
-1.09488e-05
2.84981e-05
-1.5559e-05
3.22635e-05
-1.92231e-05
2.73612e-05
-1.75283e-05
4.62685e-06
-1.96825e-05
-9.66699e-06
-2.25394e-05
-2.07255e-05
-1.77961e-05
-3.48401e-05
-8.23147e-06
-4.26083e-05
4.62223e-07
-3.95905e-05
5.55007e-06
-2.74433e-05
6.45523e-06
-9.63529e-06
1.90869e-05
5.05714e-06
-5.05714e-06
-7.9538e-06
1.30109e-05
-1.24459e-05
4.49208e-06
1.22002e-05
-2.46461e-05
4.04941e-05
-2.82939e-05
5.04674e-05
-9.97324e-06
4.46105e-05
5.85685e-06
3.51002e-05
9.51027e-06
3.11971e-05
3.90311e-06
3.50004e-05
-3.80325e-06
3.51854e-05
-1.85039e-07
2.18131e-05
1.33723e-05
1.2161e-06
2.0597e-05
-1.71522e-05
1.83683e-05
-2.71114e-05
9.95915e-06
-2.71468e-05
3.53721e-08
-2.22661e-05
-4.88069e-06
-1.22447e-05
-1.00214e-05
-1.22447e-05
-3.60224e-06
-1.45489e-06
-9.33233e-06
1.8741e-05
-1.92963e-06
-2.91063e-06
2.49943e-05
-5.15701e-05
4.73444e-05
-5.0644e-05
5.3844e-05
-1.64728e-05
5.18628e-05
7.83801e-06
4.57912e-05
1.5582e-05
3.8703e-05
1.09913e-05
3.16039e-05
3.29591e-06
2.35279e-05
7.89091e-06
1.2827e-05
2.40733e-05
-7.34012e-06
4.07641e-05
-2.24838e-05
3.3512e-05
-2.28636e-05
1.0339e-05
-2.11822e-05
-1.64605e-06
-1.90869e-05
-6.97596e-06
-8.77894e-06
-2.03294e-05
-2.10236e-05
-3.60656e-06
2.15167e-06
-4.14547e-06
1.92799e-05
7.74508e-06
-1.48012e-05
2.9777e-05
-7.3602e-05
4.52369e-05
-6.61038e-05
4.58513e-05
-1.70873e-05
4.17555e-05
1.19339e-05
3.51633e-05
2.21741e-05
2.15206e-05
2.4634e-05
4.25596e-06
2.05605e-05
-3.18794e-06
1.53348e-05
-6.90382e-06
2.77892e-05
-1.51651e-05
4.90253e-05
-1.81781e-05
3.6525e-05
-1.70503e-05
9.21126e-06
-2.01565e-05
1.46016e-06
-1.87538e-05
-8.37875e-06
-7.27751e-06
-3.18056e-05
-2.83011e-05
-6.09288e-07
2.76096e-06
3.65017e-06
1.50205e-05
1.51409e-05
-2.62919e-05
2.72222e-05
-8.56833e-05
3.50719e-05
-7.39536e-05
3.22428e-05
-1.42582e-05
2.70591e-05
1.71175e-05
1.51296e-05
3.41036e-05
-7.08519e-06
4.68488e-05
-2.46372e-05
3.81125e-05
-2.64272e-05
1.71248e-05
-2.40146e-05
2.53766e-05
-2.00656e-05
4.50763e-05
-1.80606e-05
3.452e-05
-2.70516e-05
1.82022e-05
-3.5304e-05
9.71258e-06
-2.77541e-05
-1.59286e-05
-9.88477e-06
-4.9675e-05
-3.81859e-05
2.88757e-06
-1.26616e-07
1.06342e-05
7.27382e-06
1.86411e-05
-3.42988e-05
1.93773e-05
-8.64195e-05
1.99805e-05
-7.45568e-05
1.57655e-05
-1.00431e-05
5.78192e-06
2.71011e-05
-1.67294e-05
5.66149e-05
-4.24864e-05
7.26058e-05
-5.31516e-05
4.87778e-05
-4.58951e-05
9.86834e-06
-3.59288e-05
1.54103e-05
-3.06913e-05
3.98388e-05
-4.00312e-05
4.386e-05
-6.26928e-05
4.08637e-05
-7.14683e-05
1.84881e-05
-5.14835e-05
-3.59133e-05
-1.52441e-05
-8.59145e-05
-5.34299e-05
4.8502e-06
-4.97681e-06
1.45549e-05
-2.43084e-06
1.76029e-05
-3.73468e-05
8.90587e-06
-7.77224e-05
1.50216e-06
-6.71531e-05
-4.46798e-06
-4.073e-06
-2.38993e-05
4.65324e-05
-4.8941e-05
8.16566e-05
-7.06962e-05
9.43611e-05
-7.98444e-05
5.79259e-05
-7.17132e-05
1.73708e-06
-6.28223e-05
6.51939e-06
-6.87925e-05
4.5809e-05
-9.77568e-05
7.28243e-05
-0.000122777
6.58837e-05
-0.000121759
1.74708e-05
-8.78535e-05
-6.98192e-05
-2.41492e-05
-0.000149619
-7.75792e-05
6.5591e-06
-1.15359e-05
1.74826e-05
-1.33544e-05
1.48627e-05
-3.47269e-05
-1.89284e-06
-6.09669e-05
-1.67004e-05
-5.23455e-05
-3.18614e-05
1.1088e-05
-5.08521e-05
6.5523e-05
-7.36921e-05
0.000104497
-0.000104999
0.000125668
-0.000132357
8.52842e-05
-0.000125514
-5.10611e-06
-0.000118026
-9.68926e-07
-0.00012639
5.41734e-05
-0.000132258
7.86919e-05
-0.000129221
6.28464e-05
-0.000121598
9.84786e-06
-9.19106e-05
-9.95062e-05
-4.18342e-05
-0.000199695
-0.000119413
1.39787e-05
-2.55147e-05
2.08447e-05
-2.02204e-05
1.24451e-05
-2.63273e-05
-9.72806e-06
-3.87937e-05
-3.54799e-05
-2.65936e-05
-5.73173e-05
3.29254e-05
-7.49073e-05
8.3113e-05
-0.000101809
0.000131399
-0.000131976
0.000155835
-0.000129919
8.3227e-05
-0.000111595
-2.34298e-05
-0.000107476
-5.08792e-06
-0.000111509
5.82064e-05
-0.00011236
7.95423e-05
-0.000112926
6.34124e-05
-0.000102096
-9.82373e-07
-7.14273e-05
-0.000130175
-4.20222e-05
-0.0002291
-0.000161436
2.67254e-05
-5.52736e-05
4.5694e-05
-3.2946e-05
5.52032e-05
-9.59715e-08
5.15953e-05
2.2783e-05
4.18536e-05
2.01623e-05
3.11321e-05
5.19082e-06
2.37711e-05
1.56423e-06
1.71804e-05
1.49658e-05
5.48831e-06
3.32517e-05
-8.39456e-06
4.27214e-05
-1.51938e-05
3.55436e-05
-1.60533e-05
2.93575e-05
-2.79077e-05
4.4118e-05
-6.19814e-05
6.14348e-05
-0.000105129
4.77743e-05
-0.000126278
1.1482e-05
-0.000102192
-4.48108e-05
-5.84831e-05
-7.85494e-05
-2.94642e-05
-7.16272e-05
-1.63474e-05
-5.27074e-05
-6.89578e-06
-3.68948e-05
5.53149e-06
-2.20626e-05
-3.1586e-06
2.7777e-05
1.94094e-05
-7.4683e-05
2.64849e-05
-4.00216e-05
3.86452e-05
-1.22563e-05
4.93634e-05
1.20648e-05
4.75358e-05
2.19899e-05
3.94094e-05
1.33172e-05
2.76849e-05
1.32888e-05
1.46964e-05
2.79543e-05
-3.4092e-07
4.8289e-05
-1.41448e-05
5.65254e-05
-2.56798e-05
4.70785e-05
-5.37501e-05
5.74279e-05
-0.000110342
0.00010071
-0.000175926
0.000127019
-0.000201236
7.30836e-05
-0.000171596
-1.81582e-05
-0.000128828
-8.75785e-05
-9.62325e-05
-0.000111145
-7.382e-05
-9.40397e-05
-6.89731e-05
-5.75543e-05
-6.8239e-05
-3.7629e-05
-5.76828e-05
-3.26187e-05
-1.82124e-05
-4.2629e-05
5.90646e-06
-8.05894e-05
8.13932e-06
-4.22544e-05
7.48026e-06
-1.15972e-05
2.11995e-05
-1.6544e-06
2.51262e-05
1.80632e-05
1.57647e-05
2.26787e-05
-5.59798e-06
3.46514e-05
-2.9983e-05
5.23393e-05
-5.74058e-05
7.57118e-05
-8.76877e-05
8.68073e-05
-0.000124981
8.43721e-05
-0.000174358
0.000106805
-0.000228029
0.00015438
-0.000247239
0.000146229
-0.000228595
5.44399e-05
-0.000202715
-4.40381e-05
-0.000182735
-0.000107558
-0.000163618
-0.000130262
-0.000145763
-0.000111895
-0.000154527
-4.87902e-05
-0.000191076
-1.07983e-06
-0.000217367
-6.32726e-06
-1.74985e-05
-0.000218081
1.44143e-05
-9.50037e-05
1.95815e-05
-4.74217e-05
-2.38442e-06
1.03687e-05
-2.34456e-05
1.94068e-05
-4.66407e-05
4.12583e-05
-8.04997e-05
5.65377e-05
-0.000107718
6.18694e-05
-0.000132177
7.67982e-05
-0.000169502
0.000113038
-0.000200839
0.000118144
-0.000215577
9.91103e-05
-0.000226589
0.000117817
-0.000228049
0.00015584
-0.000217114
0.000135294
-0.000216524
5.38498e-05
-0.00022376
-3.68014e-05
-0.000232345
-9.89735e-05
-0.000227407
-0.0001352
-0.000212315
-0.000126987
-0.000176536
-8.45689e-05
-0.000152506
-2.511e-05
-0.000129477
-2.93564e-05
-4.11598e-05
-0.000105815
4.26735e-07
-9.54304e-05
-2.13405e-05
-2.56544e-05
-6.69267e-05
5.5955e-05
-0.00012181
7.42904e-05
-0.000161683
8.11307e-05
-0.000184096
7.89507e-05
-0.000191098
6.8872e-05
-0.000218092
0.000103792
-0.000242541
0.000137487
-0.000234504
0.000110107
-0.000217067
8.16731e-05
-0.000196482
9.72319e-05
-0.000167212
0.00012657
-0.000159672
0.000127755
-0.000196073
9.02503e-05
-0.000239966
7.09203e-06
-0.000249871
-8.90683e-05
-0.000236396
-0.000148676
-0.000216203
-0.00014718
-0.000187284
-0.000113488
-0.000127197
-8.51969e-05
-9.57186e-05
-6.08345e-05
-5.88723e-05
-7.80065e-05
-2.3131e-05
-7.22994e-05
-9.67274e-05
4.79419e-05
-0.000155505
0.000114733
-0.000198065
0.00011685
-0.00021808
0.000101146
-0.000214382
7.52521e-05
-0.000226603
8.10932e-05
-0.000232437
0.000109625
-0.000224179
0.00012923
-0.00021933
0.000105257
-0.000201846
6.41891e-05
-0.000180082
7.54681e-05
-0.000158425
0.000104912
-0.000160814
0.000130144
-0.000189302
0.000118739
-0.000206242
2.40311e-05
-0.000210535
-8.47752e-05
-0.000209253
-0.000149957
-0.000196961
-0.000159471
-0.000174187
-0.000136263
-0.000150977
-0.000108407
-0.000116966
-9.48451e-05
-8.36305e-05
-9.22078e-05
-3.31911e-05
-3.91083e-05
-9.91616e-05
0.000113912
-0.000148896
0.000164467
-0.000183472
0.000151427
-0.000199361
0.000117035
-0.000203824
7.97143e-05
-0.000197293
7.45627e-05
-0.000163385
7.57169e-05
-0.000130335
9.61809e-05
-0.000129198
0.00010412
-0.000161456
9.64473e-05
-0.000169084
8.30958e-05
-0.000161595
9.74235e-05
-0.000161876
0.000130425
-0.000155948
0.000112811
-0.000150434
1.85171e-05
-0.000156209
-7.90002e-05
-0.000183182
-0.000122984
-0.000180611
-0.000162042
-0.000166242
-0.000150633
-0.000142872
-0.000131776
-0.000126012
-0.000111705
-9.62445e-05
-0.000113399
-3.0569e-05
-8.53928e-06
-4.98419e-05
0.000133185
-4.62779e-05
0.000160903
-3.62331e-05
0.000141382
-4.90735e-05
0.000129876
-5.24317e-05
8.30725e-05
-3.94888e-05
6.16201e-05
-2.35243e-05
5.97523e-05
-7.53079e-06
8.01873e-05
-4.7478e-05
0.000144067
-0.000108737
0.000157706
-0.000138818
0.000113177
-0.00015007
0.000108676
-0.000132062
0.000112416
-9.79047e-05
7.86539e-05
-7.93349e-05
-5.2669e-08
-9.53265e-05
-6.30087e-05
-0.000120806
-9.75054e-05
-0.000160338
-0.00012251
-0.000166299
-0.000144672
-0.000150139
-0.000147936
-0.000128734
-0.00013311
-0.000114857
-0.000110121
-2.56158e-05
1.70765e-05
-5.48917e-05
0.000162461
-5.59488e-05
0.00016196
-4.07863e-05
0.000126219
-2.03252e-05
0.000109415
-1.33686e-05
7.61158e-05
-1.05797e-05
5.88311e-05
-1.05602e-05
5.97328e-05
-1.18711e-05
8.14982e-05
-6.79644e-05
0.000200161
-0.000110543
0.000200285
-0.00013478
0.000137414
-0.000134353
0.00010825
-0.00010716
8.52225e-05
-6.92325e-05
4.0727e-05
-5.22667e-05
-1.70187e-05
-5.86081e-05
-5.66673e-05
-7.88276e-05
-7.72859e-05
-0.000104655
-9.66828e-05
-0.000132531
-0.000116796
-0.000155835
-0.000124632
-0.0001407
-0.000148245
-0.000133104
-0.000122453
-8.28522e-06
2.53617e-05
-5.67019e-05
0.000210878
-0.000101387
0.000206645
-9.59888e-05
0.000120821
-7.70751e-05
9.05012e-05
-6.38481e-05
6.28888e-05
-5.55269e-05
5.05098e-05
-5.77549e-05
6.19608e-05
-0.00010019
0.000123933
-0.000137886
0.000237857
-0.000144433
0.000206833
-0.000142983
0.000135964
-0.00013093
9.61974e-05
-0.000106055
6.03474e-05
-8.17542e-05
1.64261e-05
-7.21521e-05
-2.66206e-05
-7.13757e-05
-5.74436e-05
-7.13128e-05
-7.73491e-05
-7.49319e-05
-9.30637e-05
-8.96594e-05
-0.000102069
-9.8543e-05
-0.000115748
-0.000120765
-0.000126023
-0.000113309
-0.00014056
7.53929e-06
1.78224e-05
-1.24698e-05
0.000230887
-9.15255e-05
0.0002857
-0.000115182
0.000144478
-0.000102762
7.80809e-05
-9.31928e-05
5.332e-05
-9.82654e-05
5.55825e-05
-0.000139899
0.000103594
-0.000198218
0.000182252
-0.00019391
0.00023355
-0.000165908
0.00017883
-0.000145885
0.000115942
-0.000128396
7.87085e-05
-0.000110367
4.23185e-05
-9.87458e-05
4.80509e-06
-9.53123e-05
-3.0054e-05
-9.43853e-05
-5.83706e-05
-9.11668e-05
-8.05678e-05
-8.64482e-05
-9.77824e-05
-7.85653e-05
-0.000109952
-7.35343e-05
-0.000120779
-8.01588e-05
-0.000119399
-0.000118654
-7.48141e-05
7.35151e-06
1.04709e-05
-3.43709e-06
0.000241676
-3.42641e-05
0.000316527
-6.60474e-05
0.000176261
-9.61399e-05
0.000108173
-0.000127885
8.50656e-05
-0.000175593
0.00010329
-0.000223601
0.000151603
-0.000239271
0.000197921
-0.000205468
0.000199747
-0.000169515
0.000142878
-0.000152096
9.85236e-05
-0.00014147
6.80825e-05
-0.000133169
3.40167e-05
-0.00012738
-9.83368e-07
-0.000122652
-3.47821e-05
-0.000117029
-6.39943e-05
-0.000109995
-8.76013e-05
-0.000102185
-0.000105593
-9.35594e-05
-0.000118577
-8.7365e-05
-0.000126974
-7.78104e-05
-0.000128953
-0.000129441
-6.70233e-05
1.21211e-07
1.03497e-05
-3.66843e-05
0.000278482
-5.79458e-05
0.000337789
-8.71583e-05
0.000205474
-0.000123346
0.000144361
-0.000168821
0.000130541
-0.000211785
0.000146255
-0.000235746
0.000175564
-0.000226264
0.00018844
-0.000192888
0.000166371
-0.00017536
0.000125349
-0.000173368
9.65316e-05
-0.000172315
6.70299e-05
-0.000169161
3.08627e-05
-0.000163136
-7.00834e-06
-0.00015419
-4.37281e-05
-0.000142504
-7.56802e-05
-0.000128984
-0.000101122
-0.000115142
-0.000119434
-0.000102646
-0.000131073
-9.27852e-05
-0.000136835
-8.38691e-05
-0.000137869
-0.000135487
-7.78222e-05
-7.09006e-06
1.74398e-05
-4.81486e-05
0.00031954
-7.49806e-05
0.000364621
-0.00010632
0.000236813
-0.000139448
0.000177489
-0.000174251
0.000165344
-0.000200177
0.000172181
-0.000207621
0.000183008
-0.000197613
0.000178432
-0.000187901
0.00015666
-0.000194137
0.000131585
-0.000204292
0.000106687
-0.0002095
7.22373e-05
-0.000209081
3.04441e-05
-0.000202197
-1.38926e-05
-0.000189011
-5.6914e-05
-0.000170928
-9.37631e-05
-0.000150239
-0.000121811
-0.000129485
-0.000140188
-0.000110794
-0.000149764
-9.52838e-05
-0.000152345
-8.33095e-05
-0.000149843
-0.000143624
-7.51729e-05
-6.41726e-06
2.38571e-05
-2.96034e-05
0.000342726
-6.06997e-05
0.000395717
-8.94452e-05
0.000265559
-0.000120959
0.000209003
-0.000149118
0.000193502
-0.00016762
0.000190683
-0.000176591
0.000191979
-0.000183536
0.000185376
-0.000199179
0.000172302
-0.000222188
0.000154595
-0.000241921
0.00012642
-0.000254212
8.45269e-05
-0.000256944
3.31765e-05
-0.000248286
-2.25501e-05
-0.000229118
-7.60821e-05
-0.000202247
-0.000120634
-0.000171734
-0.000152324
-0.000141772
-0.00017015
-0.000115693
-0.000175843
-9.50168e-05
-0.000173021
-7.95323e-05
-0.000165328
-0.000154992
-6.81637e-05
7.69851e-07
2.30872e-05
1.93136e-05
0.000324183
-1.26328e-05
0.000427663
-5.54516e-05
0.000308378
-8.75871e-05
0.000241139
-0.000115362
0.000221277
-0.000137526
0.000212847
-0.000158969
0.000213422
-0.000186071
0.000212478
-0.000221075
0.000207306
-0.000257515
0.000191034
-0.000287692
0.000156597
-0.000306447
0.000103282
-0.000309514
3.62432e-05
-0.000296082
-3.59817e-05
-0.000268632
-0.000103533
-0.00023168
-0.000157586
-0.000190436
-0.000193569
-0.000150051
-0.000210534
-0.000115167
-0.000210727
-8.85918e-05
-0.000199596
-7.01691e-05
-0.000183751
-0.000167286
-5.78753e-05
2.16829e-06
2.09189e-05
6.23051e-05
0.000264046
4.13275e-05
0.000448641
-1.72919e-05
0.000366998
-5.55864e-05
0.000279433
-8.67052e-05
0.000252396
-0.000117598
0.00024374
-0.000153457
0.000249281
-0.000197556
0.000256577
-0.000247099
0.00025685
-0.000293848
0.000237782
-0.000329273
0.000192023
-0.00034673
0.000120739
-0.000342846
3.23593e-05
-0.000320338
-5.84901e-05
-0.000283914
-0.000139957
-0.000239414
-0.000202086
-0.000191853
-0.000241129
-0.000145722
-0.000256665
-0.000105344
-0.000251105
-7.44486e-05
-0.000230492
-5.40916e-05
-0.000204108
-0.000179434
-4.19434e-05
1.09427e-05
9.97615e-06
6.81318e-05
0.000206857
7.91526e-05
0.00043762
1.34411e-05
0.000432709
-3.15589e-05
0.000324433
-6.66588e-05
0.000287496
-0.000105995
0.000283076
-0.00015304
0.000296326
-0.000208145
0.000311682
-0.000264667
0.000313372
-0.000311902
0.000285017
-0.000340127
0.000220247
-0.000345191
0.000125804
-0.000327353
1.45211e-05
-0.000294143
-9.17005e-05
-0.000250599
-0.0001835
-0.000202941
-0.000249744
-0.000155952
-0.000288118
-0.000113225
-0.000299392
-7.66134e-05
-0.000287716
-4.80369e-05
-0.000259068
-2.96041e-05
-0.000222541
-0.000188626
-2.04126e-05
1.4995e-05
-5.01892e-06
4.74652e-05
0.000174386
6.94587e-05
0.000415626
1.88073e-05
0.000483361
-1.98714e-05
0.000363112
-5.51882e-05
0.000322812
-9.84938e-05
0.000326382
-0.000150095
0.000347926
-0.000206786
0.000368373
-0.000258285
0.000364872
-0.000292307
0.000319038
-0.000301084
0.000229024
-0.00028628
0.000111
-0.000255328
-1.64321e-05
-0.00021396
-0.000133068
-0.000166645
-0.000230815
-0.00011905
-0.000297339
-7.69399e-05
-0.000330228
-4.42573e-05
-0.000332075
-2.08759e-05
-0.000311098
-4.65267e-06
-0.000275292
4.34484e-06
-0.000231538
-0.000191224
6.94264e-06
3.64872e-05
-4.15059e-05
2.72508e-05
0.000183623
1.7307e-05
0.00042557
-1.25156e-06
0.000501919
-2.09015e-05
0.000382762
-5.02867e-05
0.000352197
-9.07107e-05
0.000366806
-0.000138278
0.000395494
-0.000185569
0.000415664
-0.000220092
0.000399394
-0.000231279
0.000330226
-0.000217269
0.000215014
-0.000185041
7.87723e-05
-0.000145358
-5.61158e-05
-9.83686e-05
-0.000180057
-4.91862e-05
-0.000279998
-3.70151e-06
-0.000342823
3.1312e-05
-0.000365241
5.20333e-05
-0.000352796
5.85293e-05
-0.000317594
5.58356e-05
-0.000272598
4.92088e-05
-0.000224911
-0.000181664
3.96488e-05
1.23719e-05
-5.38786e-05
-1.02588e-05
0.000206254
-3.29215e-05
0.000448233
-2.56043e-05
0.000494602
-2.66887e-05
0.000383846
-4.65293e-05
0.000372038
-7.78051e-05
0.000398081
-0.000113129
0.000430818
-0.000142438
0.000444973
-0.000154185
0.000411141
-0.000142405
0.000318447
-0.000110684
0.000183293
-6.8297e-05
3.63852e-05
-1.92541e-05
-0.000105158
3.23592e-05
-0.000231671
8.11578e-05
-0.000328796
0.000121355
-0.00038302
0.000147014
-0.000390901
0.000154937
-0.00036072
0.000145341
-0.000307997
0.000123368
-0.000250625
9.7411e-05
-0.000198955
-0.000156956
7.27034e-05
-7.47662e-06
-4.64022e-05
-2.58324e-05
0.00022461
-5.69379e-05
0.000479338
-3.54688e-05
0.000473133
-2.67885e-05
0.000375166
-3.77731e-05
0.000383023
-5.61832e-05
0.000416491
-7.35438e-05
0.000448179
-8.02012e-05
0.00045163
-6.97743e-05
0.000400714
-4.00503e-05
0.000288722
4.97911e-06
0.000138263
5.51436e-05
-1.37794e-05
0.000107963
-0.000157977
0.000159408
-0.000283116
0.000204556
-0.000373943
0.000236562
-0.000415027
0.000250288
-0.000404626
0.000243775
-0.000354207
0.000218773
-0.000282995
0.000180734
-0.000212586
0.000138385
-0.000156606
-0.000118251
9.96801e-05
-3.05687e-06
-4.33455e-05
-3.78981e-05
0.000259452
-5.49796e-05
0.00049642
-2.89865e-05
0.000447139
-1.86242e-05
0.000364804
-2.24296e-05
0.000386828
-2.67469e-05
0.000420809
-2.44283e-05
0.00044586
-8.67694e-06
0.000435878
2.37497e-05
0.000368287
6.937e-05
0.000243102
0.000119935
8.76979e-05
0.000172154
-6.59978e-05
0.000222647
-0.000208471
0.000269745
-0.000330214
0.00030568
-0.000409879
0.000323789
-0.000433135
0.000321193
-0.00040203
0.000298686
-0.0003317
0.000259983
-0.000244292
0.000210896
-0.000163499
0.000159015
-0.000104725
-7.17094e-05
0.000112473
-4.85777e-06
-3.84883e-05
-4.7e-05
0.000301594
-5.07382e-05
0.000500158
-2.00614e-05
0.000416463
-7.78847e-06
0.00035253
-3.81001e-06
0.000382849
4.83941e-06
0.000412159
2.51966e-05
0.000425503
6.14591e-05
0.000399616
0.000110772
0.000318974
0.000165244
0.00018863
0.000215082
3.786e-05
0.000262598
-0.000113514
0.000308584
-0.000254457
0.000345955
-0.000367585
0.000365079
-0.000429002
0.000362105
-0.000430161
0.000339541
-0.000379466
0.000302223
-0.000294382
0.000254964
-0.000197033
0.000202392
-0.000110928
0.000150168
-5.25001e-05
-2.67589e-05
0.000105218
-6.08255e-05
2.23371e-05
-8.36251e-05
0.000324394
-5.13033e-05
0.000467836
-1.52465e-05
0.000380405
4.45085e-07
0.000336839
1.14097e-05
0.000371885
3.08541e-05
0.000392715
6.42943e-05
0.000392062
0.000112857
0.000351053
0.000170341
0.00026149
0.000225186
0.000133785
0.000272214
-9.16793e-06
0.000316157
-0.000157458
0.000353648
-0.000291948
0.000372046
-0.000385982
0.000365064
-0.000422021
0.000336893
-0.00040199
0.000295939
-0.000338513
0.000249254
-0.000247696
0.000201105
-0.000148885
0.000154085
-6.39072e-05
0.000111681
-1.00964e-05
5.97983e-06
7.89426e-05
-0.000101163
0.0001235
-9.48384e-05
0.000318069
-4.32328e-05
0.000416231
-7.37958e-06
0.000344552
8.1393e-06
0.00032132
2.31974e-05
0.000356827
4.82604e-05
0.000367652
8.84122e-05
0.000351911
0.000141326
0.000298139
0.000198089
0.000204726
0.000249022
8.2852e-05
0.000294762
-5.49076e-05
0.000332746
-0.000195442
0.000350892
-0.000310095
0.000339621
-0.000374711
0.000303682
-0.000386082
0.000254682
-0.000352989
0.000202788
-0.000286619
0.000154297
-0.000199206
0.000112591
-0.000107179
7.93873e-05
-3.07034e-05
5.56198e-05
1.36711e-05
1.98121e-05
4.17876e-05
-8.99861e-06
0.000132499
4.41041e-06
0.00030466
-1.37751e-07
0.000420779
8.73186e-06
0.000335683
1.72349e-05
0.000312816
3.30895e-05
0.000340972
5.94335e-05
0.000341308
0.000100108
0.000311237
0.000150606
0.000247641
0.000201725
0.000153607
0.000249623
3.49534e-05
0.000291571
-9.68554e-05
0.000312808
-0.000216679
0.000301405
-0.000298691
0.000260984
-0.00033429
0.000205233
-0.000330332
0.000146237
-0.000293993
9.20171e-05
-0.000232399
4.79839e-05
-0.000155173
1.85912e-05
-7.77864e-05
2.77357e-06
-1.48858e-05
2.40107e-06
1.40436e-05
1.19176e-05
1.02957e-05
4.26973e-06
0.000128229
3.03377e-05
0.000278592
3.73386e-05
0.000413778
2.37335e-05
0.000349288
2.58569e-05
0.000310693
4.00066e-05
0.000326822
6.49921e-05
0.000316322
0.000101732
0.000274497
0.000146268
0.000203105
0.000194201
0.000105674
0.000240167
-1.10126e-05
0.000268128
-0.000124816
0.000262693
-0.000211244
0.000225062
-0.00026106
0.000169254
-0.000278483
0.000108363
-0.000269441
5.03398e-05
-0.00023597
1.28214e-06
-0.000183342
-3.29009e-05
-0.00012099
-4.93651e-05
-6.13223e-05
-4.50351e-05
-1.92158e-05
-2.67041e-05
-4.28734e-06
-7.80217e-06
-6.98422e-06
5.19863e-06
0.000123031
9.3256e-06
0.000274465
2.58303e-05
0.000397273
2.73765e-05
0.000347741
2.59248e-05
0.000312145
3.82458e-05
0.000314501
6.17831e-05
0.000292784
9.65599e-05
0.00023972
0.000141135
0.00015853
0.000189899
5.69101e-05
0.000225314
-4.64272e-05
0.000229823
-0.000129325
0.000202094
-0.000183516
0.000154215
-0.000213181
9.86003e-05
-0.000222868
4.29708e-05
-0.000213811
-7.08163e-06
-0.000185918
-4.50272e-05
-0.000145396
-6.64802e-05
-9.95368e-05
-6.68286e-05
-6.09739e-05
-4.96831e-05
-3.63614e-05
-2.77548e-05
-2.62156e-05
-2.47916e-05
-1.07653e-05
5.60955e-06
0.000117421
-8.37883e-06
0.000288453
1.5209e-05
0.000373685
2.62843e-05
0.000336666
1.90393e-05
0.00031939
3.06917e-05
0.000302849
5.82415e-05
0.000265235
9.92693e-05
0.000198691
0.000147928
0.000109871
0.00018903
1.58074e-05
0.000204242
-6.16384e-05
0.000189894
-0.000114978
0.000154948
-0.000148569
0.000110152
-0.000168386
6.24535e-05
-0.000175169
1.66055e-05
-0.000167963
-2.11393e-05
-0.000148173
-4.63592e-05
-0.000120176
-5.46312e-05
-9.12648e-05
-4.87294e-05
-6.68756e-05
-3.50778e-05
-5.0013e-05
-2.11303e-05
-4.0163e-05
-3.53913e-05
-1.05307e-05
9.9639e-06
0.000107457
2.90104e-05
0.000269407
5.6921e-05
0.000345774
3.84339e-05
0.000355153
2.34555e-05
0.000334368
3.76546e-05
0.000288649
7.44918e-05
0.000228397
0.000121103
0.00015208
0.000163639
6.73346e-05
0.000186346
-6.90015e-06
0.000183952
-5.92444e-05
0.000162148
-9.31733e-05
0.000129752
-0.000116173
9.26879e-05
-0.000131322
5.4865e-05
-0.000137346
2.01914e-05
-0.00013329
-6.86212e-06
-0.000121119
-2.30614e-05
-0.000103977
-2.87768e-05
-8.55493e-05
-2.66881e-05
-6.89642e-05
-2.07595e-05
-5.59415e-05
-1.39454e-05
-4.69773e-05
-4.14086e-05
-7.9284e-06
1.30852e-05
9.4372e-05
6.00696e-05
0.000222422
7.90021e-05
0.000326842
7.73183e-05
0.000356836
6.71435e-05
0.000344542
8.30932e-05
0.000272699
0.000120106
0.000191384
0.000154661
0.000117526
0.000177989
4.40069e-05
0.000182147
-1.10583e-05
0.00016954
-4.66376e-05
0.00014678
-7.04134e-05
0.000119141
-8.85339e-05
8.93586e-05
-0.00010154
5.99581e-05
-0.000107945
3.38489e-05
-0.00010718
1.3308e-05
-0.000100578
-5.80295e-07
-9.00885e-05
-8.0956e-06
-7.80339e-05
-1.05727e-05
-6.6487e-05
-9.7839e-06
-5.67304e-05
-7.29658e-06
-4.94647e-05
-4.43695e-05
-4.33589e-06
2.69075e-06
9.16808e-05
5.12779e-05
0.000173835
9.20495e-05
0.00028607
0.000119296
0.00032959
0.000137535
0.000326303
0.000153197
0.000257036
0.000168068
0.000176513
0.000180291
0.000105302
0.000184414
3.98848e-05
0.000175964
-2.60874e-06
0.000158537
-2.92109e-05
0.000136897
-4.87726e-05
0.000113439
-6.50757e-05
8.92568e-05
-7.73577e-05
6.56787e-05
-8.43671e-05
4.44627e-05
-8.59641e-05
2.69227e-05
-8.30381e-05
1.38635e-05
-7.70292e-05
5.2861e-06
-6.94565e-05
5.58144e-07
-6.17591e-05
-1.33083e-06
-5.48415e-05
-1.47546e-06
-4.93203e-05
-4.51908e-05
-6.54288e-07
1.84232e-06
8.98383e-05
3.09031e-05
0.000144775
7.58916e-05
0.000241082
0.000117372
0.000288109
0.000147829
0.000295847
0.000165228
0.000239637
0.000177709
0.000164032
0.000184797
9.82141e-05
0.00017918
4.55018e-05
0.00016459
1.1981e-05
0.000146272
-1.08924e-05
0.000126914
-2.94151e-05
0.000106948
-4.51096e-05
8.66632e-05
-5.70725e-05
6.69683e-05
-6.46721e-05
4.90213e-05
-6.80169e-05
3.37918e-05
-6.78085e-05
2.18565e-05
-6.50939e-05
1.33105e-05
-6.09105e-05
7.71806e-06
-5.61666e-05
4.54318e-06
-5.16667e-05
3.01706e-06
-4.77942e-05
-4.4709e-05
2.5352e-06
-5.84139e-07
9.04225e-05
7.97944e-06
0.000136211
4.61332e-05
0.000202927
8.96858e-05
0.000244557
0.00013095
0.000254583
0.000155951
0.000214636
0.000169209
0.000150774
0.00017178
9.56424e-05
0.00016188
5.54025e-05
0.000146821
2.70401e-05
0.000130782
5.14614e-06
0.000114563
-1.31959e-05
9.78665e-05
-2.84128e-05
8.09856e-05
-4.01916e-05
6.46101e-05
-4.82966e-05
4.96237e-05
-5.30304e-05
3.67182e-05
-5.4903e-05
2.62562e-05
-5.46318e-05
1.82895e-05
-5.29438e-05
1.26199e-05
-5.04969e-05
8.82211e-06
-4.78689e-05
6.43567e-06
-4.54078e-05
-4.33031e-05
5.0299e-06
-4.38202e-06
9.48044e-05
-9.85552e-06
0.000141685
1.28268e-05
0.000180245
5.14312e-05
0.000205952
9.39014e-05
0.000212113
0.000126627
0.000181909
0.000142405
0.000134997
0.000144499
9.35482e-05
0.000137166
6.27351e-05
0.000125984
3.82226e-05
0.000113588
1.75424e-05
0.000100677
-2.85233e-07
8.71196e-05
-1.48556e-05
7.33544e-05
-2.64263e-05
6.00527e-05
-3.49948e-05
4.77952e-05
-4.07728e-05
3.70554e-05
-4.41631e-05
2.80868e-05
-4.56629e-05
2.09414e-05
-4.57983e-05
1.5502e-05
-4.50575e-05
1.15112e-05
-4.3878e-05
8.6714e-06
-4.25679e-05
-4.13112e-05
6.67953e-06
-7.10749e-06
0.000101912
-1.28232e-05
0.0001474
6.05581e-08
0.000167361
2.90179e-05
0.000176995
6.78747e-05
0.000173256
9.86942e-05
0.00015109
0.000113671
0.00012002
0.000116244
9.09751e-05
0.000112374
6.66053e-05
0.000105268
4.53281e-05
9.64459e-05
2.63648e-05
8.63733e-05
9.78733e-06
7.57547e-05
-4.23692e-06
6.48809e-05
-1.55523e-05
5.42893e-05
-2.4403e-05
4.44152e-05
-3.08985e-05