/*--------------------------------*- C++ -*----------------------------------*\
| =========                 |                                                 |
| \\      /  F ield         | OpenFOAM: The Open Source CFD Toolbox           |
|  \\    /   O peration     | Version:  2.3.0                                 |
|   \\  /    A nd           | Web:      www.OpenFOAM.org                      |
|    \\/     M anipulation  |                                                 |
\*---------------------------------------------------------------------------*/
FoamFile
{
    version     2.0;
    format      ascii;
    class       volVectorField;
    location    "1.05";
    object      U;
}
// * * * * * * * * * * * * * * * * * * * * * * * * * * * * * * * * * * * * * //

dimensions      [0 1 -1 0 0 0 0];

internalField   nonuniform List<vector> 
2268
(
(0.0278175 -0.0219157 0)
(0.0760222 -0.0171086 0)
(0.0842742 0.000920455 0)
(0.0219223 0.0174825 0)
(-0.0388271 0.0123895 0)
(-0.0334492 -0.00217219 0)
(-0.00643904 -0.00411376 0)
(0.00368319 0.0010456 0)
(-0.0118618 0.004893 0)
(-0.0393437 0.00765778 0)
(-0.0785077 0.00875493 0)
(-0.112921 0.00223922 0)
(-0.126429 -0.00903195 0)
(-0.137447 -0.00257317 0)
(-0.204865 0.0234116 0)
(-0.322973 0.029767 0)
(-0.362969 0.0047831 0)
(-0.285586 -0.0221058 0)
(-0.199194 -0.0247883 0)
(-0.133989 -0.0199179 0)
(-0.076605 -0.0178663 0)
(-0.0278307 -0.0142141 0)
(-0.000984918 -0.00529065 0)
(0.00615387 -0.0324006 0)
(0.00824911 -0.0122854 0)
(0.00735946 0.0219455 0)
(-0.0370943 0.0396968 0)
(-0.0627952 0.0179779 0)
(-0.0467208 -0.0126707 0)
(-0.0170618 -0.0152714 0)
(0.000884744 0.00191356 0)
(-0.0153221 0.0160865 0)
(-0.0516824 0.0257995 0)
(-0.101042 0.0290676 0)
(-0.148841 0.021482 0)
(-0.204672 0.0196481 0)
(-0.283809 0.0446905 0)
(-0.359683 0.0629554 0)
(-0.381408 0.0364319 0)
(-0.290358 -0.0230261 0)
(-0.188285 -0.0608943 0)
(-0.129514 -0.0551737 0)
(-0.0788593 -0.0414491 0)
(-0.0396396 -0.0335504 0)
(-0.0108729 -0.0262496 0)
(0.0103248 -0.00730283 0)
(-0.00635873 -0.0259762 0)
(-0.0237802 -0.00916212 0)
(-0.0415997 0.0299807 0)
(-0.0627534 0.0481717 0)
(-0.0701671 0.017986 0)
(-0.0567734 -0.0253996 0)
(-0.0263592 -0.0298989 0)
(-0.00505674 0.000359464 0)
(-0.0155304 0.0271681 0)
(-0.046373 0.0447867 0)
(-0.0885137 0.0524737 0)
(-0.138484 0.0510113 0)
(-0.21095 0.055518 0)
(-0.296102 0.0741873 0)
(-0.332316 0.0650784 0)
(-0.281573 0.00124945 0)
(-0.187402 -0.0738891 0)
(-0.136284 -0.0947291 0)
(-0.094862 -0.0794898 0)
(-0.0506657 -0.0595386 0)
(-0.0181779 -0.0440154 0)
(-0.00134833 -0.0337136 0)
(0.015786 -0.0041372 0)
(-0.00110209 -0.0195733 0)
(-0.0123181 0.000802788 0)
(-0.0320558 0.0364461 0)
(-0.0487889 0.0537092 0)
(-0.0589767 0.0196137 0)
(-0.0438647 -0.0364669 0)
(-0.0258492 -0.042509 0)
(-0.00907452 -0.00250533 0)
(-0.0166832 0.0359832 0)
(-0.0431228 0.0609824 0)
(-0.0785656 0.0730059 0)
(-0.121502 0.0791244 0)
(-0.180079 0.089143 0)
(-0.237614 0.0931282 0)
(-0.242418 0.0544802 0)
(-0.185323 -0.0257083 0)
(-0.140374 -0.0901636 0)
(-0.122009 -0.107761 0)
(-0.0844267 -0.0972394 0)
(-0.040103 -0.0760781 0)
(-0.00410322 -0.0552453 0)
(0.0154914 -0.0401816 0)
(0.013655 0.000933781 0)
(0.0121645 -0.020028 0)
(0.0237416 0.00377322 0)
(0.0132739 0.0440576 0)
(-0.00734746 0.0616685 0)
(-0.0239136 0.0219432 0)
(-0.00655015 -0.0426442 0)
(-0.00631206 -0.0472533 0)
(-0.00555507 -0.00378316 0)
(-0.0182723 0.0438297 0)
(-0.0457626 0.0751123 0)
(-0.0799285 0.0899277 0)
(-0.115523 0.100193 0)
(-0.154388 0.112401 0)
(-0.183117 0.10432 0)
(-0.175556 0.0460359 0)
(-0.147576 -0.0387204 0)
(-0.139757 -0.100404 0)
(-0.116254 -0.125916 0)
(-0.0717055 -0.123584 0)
(-0.0274923 -0.100541 0)
(0.0127003 -0.071832 0)
(0.0371763 -0.0434078 0)
(0.0190327 0.00959179 0)
(0.0316087 -0.0350348 0)
(0.0712122 -0.000880681 0)
(0.0771932 0.0515025 0)
(0.0527068 0.0712193 0)
(0.0336979 0.0246364 0)
(0.0450091 -0.0425091 0)
(0.0357107 -0.0440216 0)
(0.0132131 0.00413713 0)
(-0.0128268 0.0569388 0)
(-0.048731 0.0920106 0)
(-0.0871504 0.106186 0)
(-0.120156 0.115083 0)
(-0.150276 0.125327 0)
(-0.172053 0.108895 0)
(-0.174079 0.0379563 0)
(-0.16787 -0.0479544 0)
(-0.146487 -0.113424 0)
(-0.109142 -0.152495 0)
(-0.074707 -0.149107 0)
(-0.0299465 -0.118749 0)
(0.0221376 -0.0827923 0)
(0.0533523 -0.0407224 0)
(0.0341663 0.0270459 0)
(0.057565 -0.0621899 0)
(0.129266 -0.0227125 0)
(0.147614 0.0516746 0)
(0.120615 0.0836947 0)
(0.099974 0.0359533 0)
(0.0983645 -0.0416974 0)
(0.0866193 -0.0389067 0)
(0.0542013 0.0217646 0)
(0.00784369 0.0745258 0)
(-0.0444439 0.111252 0)
(-0.0919175 0.123498 0)
(-0.125673 0.130789 0)
(-0.158249 0.140675 0)
(-0.193475 0.117511 0)
(-0.20742 0.0375866 0)
(-0.183311 -0.0424386 0)
(-0.146314 -0.121678 0)
(-0.144497 -0.153523 0)
(-0.11832 -0.148157 0)
(-0.03847 -0.129842 0)
(0.0394342 -0.0934163 0)
(0.0783176 -0.0344441 0)
(0.0538823 0.0422139 0)
(0.0703933 -0.111311 0)
(0.18932 -0.0419282 0)
(0.222289 0.0569281 0)
(0.190268 0.09422 0)
(0.16267 0.0422346 0)
(0.1446 -0.0401532 0)
(0.12249 -0.0396005 0)
(0.102901 0.0350953 0)
(0.0565077 0.103029 0)
(-0.0123863 0.139481 0)
(-0.072322 0.140132 0)
(-0.109119 0.139622 0)
(-0.150689 0.1607 0)
(-0.204406 0.14659 0)
(-0.208305 0.0205552 0)
(-0.195143 -0.0984606 0)
(-0.24274 -0.116584 0)
(-0.259654 -0.13718 0)
(-0.158586 -0.18288 0)
(-0.0394947 -0.185748 0)
(0.0454319 -0.134455 0)
(0.0849041 -0.0455164 0)
(0.0670023 0.106677 0)
(0.147043 -0.0386192 0)
(-0.0184195 0.0297669 0)
(-0.209057 0.0149426 0)
(-0.0101904 -0.0630452 0)
(0.30347 -0.0811273 0)
(0.541918 -0.0327138 0)
(0.595022 0.0156242 0)
(0.474731 0.028807 0)
(0.343676 0.00604727 0)
(0.349632 -0.0269003 0)
(0.413064 -0.0267321 0)
(0.365313 0.018147 0)
(0.16764 0.0452831 0)
(-0.132586 0.0487891 0)
(-0.298234 0.0349642 0)
(-0.329673 0.00636971 0)
(-0.286897 -0.015837 0)
(-0.204982 -0.0301056 0)
(-0.0604733 -0.0373262 0)
(0.0149542 -0.0136723 0)
(-0.0924759 0.0844873 0)
(-0.171136 0.0166537 0)
(0.156345 -0.195035 0)
(0.417715 -0.204619 0)
(0.584912 -0.0758743 0)
(0.645181 0.0299459 0)
(0.589499 0.0638126 0)
(0.475119 0.0395258 0)
(0.395491 -0.00479083 0)
(0.284653 0.0212126 0)
(0.224759 0.0916997 0)
(0.105556 0.146879 0)
(-0.253758 0.128805 0)
(-0.30788 0.0515015 0)
(-0.2241 -0.0081943 0)
(-0.241206 -0.0350523 0)
(-0.177642 -0.0768348 0)
(-0.0127885 -0.088992 0)
(-0.00474995 0.00234095 0)
(-0.0836186 0.0970573 0)
(-0.0401925 -0.0403424 0)
(0.261843 -0.320575 0)
(0.413944 -0.300942 0)
(0.537923 -0.0976359 0)
(0.536841 0.0407782 0)
(0.464452 0.0903715 0)
(0.359832 0.0730558 0)
(0.127433 0.0466129 0)
(-0.0433251 0.0593379 0)
(-0.0505913 0.130273 0)
(-0.0704595 0.227713 0)
(-0.255242 0.175802 0)
(-0.203973 0.0439912 0)
(-0.198435 -0.000994834 0)
(-0.238179 -0.0239969 0)
(-0.16618 -0.114503 0)
(0.00178502 -0.120141 0)
(0.0101361 0.014495 0)
(-0.0265788 0.0868573 0)
(0.0914125 -0.109984 0)
(0.302615 -0.404073 0)
(0.303576 -0.358467 0)
(0.41501 -0.0845366 0)
(0.375735 0.0669958 0)
(0.279744 0.123371 0)
(0.083399 0.181092 0)
(-0.256317 0.173334 0)
(-0.346828 0.103902 0)
(-0.28375 0.150881 0)
(-0.221943 0.251325 0)
(-0.216119 0.187295 0)
(-0.23842 0.0518507 0)
(-0.400756 0.0124465 0)
(-0.379101 -0.0580095 0)
(-0.223194 -0.18034 0)
(-0.00686992 -0.159115 0)
(0.0268741 0.0103293 0)
(0.0388193 0.0582857 0)
(0.184295 -0.149168 0)
(0.284584 -0.428908 0)
(0.129971 -0.376772 0)
(0.25496 -0.0714812 0)
(0.162553 0.0918802 0)
(-0.0173311 0.211917 0)
(-0.357732 0.28372 0)
(-0.635193 0.1798 0)
(-0.593671 0.0504819 0)
(-0.46023 0.0920981 0)
(-0.331475 0.187472 0)
(-0.356951 0.146666 0)
(-0.608829 0.108546 0)
(-0.847089 0.07399 0)
(-0.754529 -0.111734 0)
(-0.369928 -0.307485 0)
(0.00582579 -0.210044 0)
(0.0370606 -0.0112166 0)
(0.086259 0.0101751 0)
(0.223142 -0.177218 0)
(0.224349 -0.406359 0)
(-0.0528551 -0.358105 0)
(0.0684239 -0.039003 0)
(-0.127403 0.169916 0)
(-0.395274 0.335083 0)
(-0.741175 0.375009 0)
(-0.90445 0.204708 0)
(-0.886872 0.0208333 0)
(-0.758906 0.0521131 0)
(-0.670676 0.184398 0)
(-0.889854 0.259957 0)
(-1.37848 0.311568 0)
(-1.48629 0.128141 0)
(-1.25984 -0.211639 0)
(-0.605326 -0.545786 0)
(-0.0303062 -0.289331 0)
(0.0510566 -0.0308629 0)
(0.124902 -0.0314325 0)
(0.238654 -0.181987 0)
(0.15044 -0.340549 0)
(-0.21517 -0.291996 0)
(-0.222493 0.00239358 0)
(-0.443721 0.279644 0)
(-0.708236 0.450987 0)
(-1.01457 0.486851 0)
(-1.3783 0.334031 0)
(-1.57103 0.00703712 0)
(-1.3862 0.0453515 0)
(-1.33715 0.315525 0)
(-1.51447 0.45597 0)
(-1.52187 0.322968 0)
(-1.50917 0.0513477 0)
(-1.25323 -0.423644 0)
(-0.673618 -0.866151 0)
(-0.353809 -0.458914 0)
(0.155414 -0.104423 0)
(0.199867 -0.0977406 0)
(0.237458 -0.14719 0)
(0.0925784 -0.2346 0)
(-0.342018 -0.171315 0)
(-0.531746 0.141991 0)
(-0.737729 0.398946 0)
(-0.984714 0.584161 0)
(-1.3832 0.745866 0)
(-1.61517 0.542044 0)
(-1.18625 -0.100948 0)
(-1.36364 -0.0855704 0)
(-1.24848 0.182459 0)
(-1.2572 0.304785 0)
(-1.30894 0.261877 0)
(-1.35314 0.00608634 0)
(-1.0115 -0.600331 0)
(-0.438557 -1.09903 0)
(-0.528983 -0.725749 0)
(0.0632692 -0.248517 0)
(0.19794 -0.153886 0)
(0.292414 0.0412916 0)
(0.296697 0.13034 0)
(0.258958 0.0946385 0)
(0.203957 -0.00405313 0)
(0.143073 -0.0140312 0)
(0.106036 0.0595977 0)
(0.0685013 0.136109 0)
(-0.00837974 0.193066 0)
(-0.0767172 0.201177 0)
(-0.0884338 0.199697 0)
(-0.104384 0.196029 0)
(-0.198162 0.152711 0)
(-0.414567 0.0955935 0)
(-0.685734 0.0874919 0)
(-0.679233 -0.0806759 0)
(-0.417064 -0.314871 0)
(-0.218444 -0.344506 0)
(-0.124111 -0.288406 0)
(-0.0647146 -0.207387 0)
(-0.014084 -0.105614 0)
(0.0904177 0.058332 0)
(0.0245646 -0.386534 0)
(0.135697 -0.247195 0)
(0.179361 -0.0472653 0)
(0.252258 0.0977239 0)
(0.279854 0.123358 0)
(0.250823 0.065212 0)
(0.17432 0.028811 0)
(0.110181 0.102403 0)
(0.037307 0.215701 0)
(-0.0347368 0.25754 0)
(-0.105544 0.166764 0)
(-0.189523 0.0979692 0)
(-0.409408 0.272788 0)
(-0.783767 0.501754 0)
(-1.08295 0.388936 0)
(-1.04827 0.0162221 0)
(-0.788347 -0.407153 0)
(-0.592789 -0.552978 0)
(-0.457717 -0.48029 0)
(-0.37105 -0.349071 0)
(-0.371277 -0.256291 0)
(-0.351179 -0.17897 0)
(-0.258335 -0.111565 0)
(-0.0708541 -0.418417 0)
(0.106053 -0.18685 0)
(0.000851245 -0.0857794 0)
(0.0913864 0.0341129 0)
(0.139534 0.0949399 0)
(0.147195 0.0540211 0)
(0.0230167 0.106737 0)
(-0.105906 0.19588 0)
(-0.240462 0.302278 0)
(-0.356169 0.351385 0)
(-0.560725 0.343105 0)
(-0.818448 0.489356 0)
(-1.07356 0.742399 0)
(-1.33672 0.76496 0)
(-1.31905 0.298211 0)
(-1.14065 -0.245946 0)
(-1.01339 -0.5924 0)
(-0.940086 -0.682181 0)
(-0.837206 -0.556429 0)
(-0.761747 -0.277382 0)
(-0.901527 -0.109579 0)
(-1.13409 -0.0983267 0)
(-1.19162 -0.0438074 0)
(-0.137045 -0.462831 0)
(0.218819 -0.285704 0)
(0.0511255 -0.0330054 0)
(-0.0664686 -0.0606189 0)
(-0.135807 0.0899386 0)
(-0.322597 0.217378 0)
(-0.53902 0.292877 0)
(-0.659269 0.381654 0)
(-0.778171 0.515815 0)
(-1.00822 0.562728 0)
(-1.13412 0.544854 0)
(-1.19166 0.686883 0)
(-1.23322 0.951235 0)
(-1.19823 0.794479 0)
(-1.17271 0.248981 0)
(-1.15874 -0.264187 0)
(-1.23656 -0.627558 0)
(-1.24647 -0.74825 0)
(-1.19384 -0.63805 0)
(-1.06826 -0.296656 0)
(-0.834834 0.0752331 0)
(-0.781345 -0.00739397 0)
(-0.631324 -0.140396 0)
(-0.106718 -0.540627 0)
(0.0839473 -0.289986 0)
(-0.225006 0.138253 0)
(-0.579619 0.295332 0)
(-0.753474 0.375514 0)
(-0.944517 0.396301 0)
(-1.04784 0.37521 0)
(-1.04924 0.490084 0)
(-1.279 0.71022 0)
(-1.29849 0.617367 0)
(-1.20501 0.490535 0)
(-1.10935 0.576098 0)
(-0.985795 0.742713 0)
(-0.831164 0.691721 0)
(-0.941864 0.3028 0)
(-1.16323 -0.0759795 0)
(-1.38219 -0.485167 0)
(-1.29163 -0.74309 0)
(-1.20569 -0.744211 0)
(-1.08337 -0.55898 0)
(-0.825088 -0.373446 0)
(-0.605782 -0.261075 0)
(-0.4739 -0.288793 0)
(-0.0595682 -0.473962 0)
(-0.24229 0.0795742 0)
(-0.697874 0.484377 0)
(-0.99767 0.546818 0)
(-1.14852 0.558635 0)
(-1.20512 0.467848 0)
(-1.15374 0.402051 0)
(-1.22171 0.616706 0)
(-1.26697 0.737192 0)
(-1.1862 0.55337 0)
(-1.11583 0.41817 0)
(-1.01665 0.504505 0)
(-0.909317 0.641856 0)
(-0.819721 0.704907 0)
(-0.9156 0.554649 0)
(-1.12737 0.0465897 0)
(-1.11383 -0.495809 0)
(-1.11635 -0.827562 0)
(-1.08018 -0.819976 0)
(-1.0008 -0.665929 0)
(-0.86076 -0.513744 0)
(-0.687189 -0.465378 0)
(-0.572537 -0.412045 0)
(-0.041172 -0.309691 0)
(-0.330093 0.496877 0)
(-0.696091 0.779173 0)
(-0.91856 0.714054 0)
(-1.12252 0.553443 0)
(-1.10576 0.368778 0)
(-1.03506 0.413832 0)
(-0.946653 0.515609 0)
(-0.797194 0.678193 0)
(-0.659592 0.630641 0)
(-0.751761 0.33827 0)
(-0.918891 0.416316 0)
(-0.893623 0.576377 0)
(-0.847375 0.746328 0)
(-0.867148 0.819046 0)
(-0.848303 0.245124 0)
(-0.811228 -0.412946 0)
(-0.91655 -0.778116 0)
(-0.966055 -0.872856 0)
(-0.941834 -0.773695 0)
(-0.829645 -0.631991 0)
(-0.709597 -0.515584 0)
(-0.62146 -0.479455 0)
(-0.0167748 -0.151975 0)
(-0.24758 0.681884 0)
(-0.322329 0.940841 0)
(-0.243485 0.865628 0)
(-0.195706 0.678986 0)
(-0.362308 0.437947 0)
(-0.184425 0.383158 0)
(-0.143647 0.362834 0)
(-0.0950371 0.432175 0)
(-0.0511431 0.5902 0)
(-0.411871 0.658479 0)
(-0.716357 0.442916 0)
(-0.799787 0.500435 0)
(-0.769521 0.657876 0)
(-0.63751 0.567532 0)
(-0.452158 0.0817438 0)
(-0.419985 -0.327101 0)
(-0.573127 -0.581676 0)
(-0.786985 -0.817274 0)
(-0.887743 -0.826185 0)
(-0.859886 -0.761164 0)
(-0.746628 -0.649972 0)
(-0.636816 -0.535008 0)
(0.0228001 0.0593122 0)
(-0.289826 0.7725 0)
(-0.292882 0.872541 0)
(-0.339251 0.739099 0)
(-0.108577 0.707616 0)
(-0.0916943 0.494252 0)
(-0.0461499 0.350743 0)
(-0.0492513 0.304208 0)
(-0.0943114 0.389457 0)
(-0.0711097 0.896351 0)
(-0.551127 0.999153 0)
(-0.720759 0.690638 0)
(-0.751787 0.576792 0)
(-0.663777 0.520203 0)
(-0.467686 0.30358 0)
(-0.299065 -0.0424945 0)
(-0.283992 -0.279255 0)
(-0.340844 -0.401151 0)
(-0.479376 -0.572482 0)
(-0.670377 -0.735515 0)
(-0.792928 -0.794888 0)
(-0.802196 -0.764426 0)
(-0.715144 -0.661112 0)
(0.0166968 0.148554 0)
(-0.122938 1.04578 0)
(-0.484939 0.871236 0)
(-0.57748 0.597291 0)
(-0.434109 0.477268 0)
(-0.371552 0.330906 0)
(-0.316184 0.284658 0)
(-0.288487 0.344397 0)
(-0.357715 0.558952 0)
(-0.628744 1.25356 0)
(-0.831824 1.15823 0)
(-0.797346 0.779197 0)
(-0.75535 0.571501 0)
(-0.638125 0.381627 0)
(-0.487127 0.118035 0)
(-0.400944 -0.149581 0)
(-0.383318 -0.321132 0)
(-0.381813 -0.408002 0)
(-0.393668 -0.468842 0)
(-0.426959 -0.545747 0)
(-0.477138 -0.618618 0)
(-0.634491 -0.781861 0)
(-0.722035 -0.73588 0)
(-0.05888 0.112177 0)
(0.124598 1.15768 0)
(-0.306564 1.15656 0)
(-0.631172 0.565097 0)
(-0.569429 0.402013 0)
(-0.500631 0.271963 0)
(-0.505101 0.237437 0)
(-0.624545 0.392082 0)
(-0.895103 0.842342 0)
(-1.10617 1.35239 0)
(-0.99 1.08138 0)
(-0.831427 0.695214 0)
(-0.741677 0.47329 0)
(-0.633445 0.271818 0)
(-0.546689 0.0540561 0)
(-0.516741 -0.145531 0)
(-0.513076 -0.305895 0)
(-0.502343 -0.425645 0)
(-0.478078 -0.513967 0)
(-0.442166 -0.563153 0)
(-0.415636 -0.590729 0)
(-0.397142 -0.633746 0)
(-0.370754 -0.578562 0)
(-0.135404 0.0865922 0)
(0.183011 1.24192 0)
(-0.179297 1.63023 0)
(-0.305493 0.860684 0)
(-0.365829 0.491666 0)
(-0.570379 0.355743 0)
(-0.835749 0.415635 0)
(-1.10593 0.713131 0)
(-1.27194 1.07551 0)
(-1.23001 1.19905 0)
(-0.987026 0.86356 0)
(-0.844896 0.565372 0)
(-0.78581 0.385789 0)
(-0.729607 0.200617 0)
(-0.696294 0.0102743 0)
(-0.674355 -0.16656 0)
(-0.647349 -0.318928 0)
(-0.611814 -0.443107 0)
(-0.569602 -0.54313 0)
(-0.52495 -0.620836 0)
(-0.484311 -0.672396 0)
(-0.442786 -0.673607 0)
(-0.399336 -0.631002 0)
(-0.172872 0.0459517 0)
(0.163423 1.43432 0)
(-0.405039 1.86991 0)
(-0.35478 1.10038 0)
(-0.550893 0.685895 0)
(-0.787739 0.585009 0)
(-1.0544 0.689275 0)
(-1.24885 0.909436 0)
(-1.27474 1.05609 0)
(-1.1224 0.961243 0)
(-0.954296 0.69084 0)
(-0.927273 0.510858 0)
(-0.929656 0.359682 0)
(-0.917116 0.17486 0)
(-0.895854 -0.0186766 0)
(-0.856344 -0.20485 0)
(-0.800359 -0.367988 0)
(-0.730417 -0.499272 0)
(-0.654563 -0.596391 0)
(-0.582116 -0.662499 0)
(-0.520647 -0.704225 0)
(-0.472438 -0.724451 0)
(-0.437165 -0.727464 0)
(-0.187207 0.0388815 0)
(0.0999921 1.62883 0)
(-0.548415 1.91708 0)
(-0.364308 1.22391 0)
(-0.676247 0.87634 0)
(-0.84423 0.806743 0)
(-1.0371 0.86954 0)
(-1.13062 0.965064 0)
(-1.09888 0.963998 0)
(-1.01047 0.831377 0)
(-1.00672 0.669427 0)
(-1.07471 0.5412 0)
(-1.11664 0.373861 0)
(-1.12965 0.168092 0)
(-1.11129 -0.0487417 0)
(-1.05716 -0.258695 0)
(-0.970831 -0.442866 0)
(-0.86327 -0.588309 0)
(-0.748937 -0.689977 0)
(-0.641131 -0.749701 0)
(-0.54858 -0.772984 0)
(-0.475103 -0.767377 0)
(-0.421858 -0.743141 0)
(-0.251318 0.140837 0)
(0.146021 1.81961 0)
(-0.443829 2.01086 0)
(-0.238339 1.34902 0)
(-0.612882 1.0477 0)
(-0.720231 0.972962 0)
(-0.874623 0.976983 0)
(-0.939775 0.995495 0)
(-0.958463 0.952661 0)
(-1.00766 0.861586 0)
(-1.13061 0.759526 0)
(-1.25595 0.62263 0)
(-1.342 0.422362 0)
(-1.38465 0.179686 0)
(-1.36906 -0.0822921 0)
(-1.29198 -0.337513 0)
(-1.16367 -0.556156 0)
(-1.00426 -0.718619 0)
(-0.83737 -0.819525 0)
(-0.684241 -0.865755 0)
(-0.558459 -0.870871 0)
(-0.462817 -0.847703 0)
(-0.392547 -0.80497 0)
(-0.321651 0.136877 0)
(0.286996 1.86319 0)
(-0.0787733 2.25763 0)
(-0.0452934 1.52364 0)
(-0.455851 1.21596 0)
(-0.526513 1.11883 0)
(-0.693553 1.08097 0)
(-0.794483 1.07679 0)
(-0.913052 1.05221 0)
(-1.0846 1.00757 0)
(-1.29235 0.92246 0)
(-1.47819 0.760097 0)
(-1.61445 0.513262 0)
(-1.67469 0.201814 0)
(-1.64366 -0.140029 0)
(-1.52743 -0.466302 0)
(-1.34803 -0.733211 0)
(-1.13217 -0.916661 0)
(-0.907865 -1.01155 0)
(-0.702124 -1.02981 0)
(-0.536118 -0.996403 0)
(-0.41775 -0.937519 0)
(-0.338665 -0.868853 0)
(-0.340067 0.13857 0)
(0.329809 1.63105 0)
(0.321845 2.37516 0)
(0.167273 1.81091 0)
(-0.2945 1.39835 0)
(-0.345782 1.27473 0)
(-0.556292 1.22202 0)
(-0.715124 1.23273 0)
(-0.930708 1.2488 0)
(-1.19335 1.23998 0)
(-1.46727 1.1513 0)
(-1.69912 0.942116 0)
(-1.84643 0.610685 0)
(-1.8782 0.192798 0)
(-1.79684 -0.249764 0)
(-1.62891 -0.655136 0)
(-1.405 -0.971482 0)
(-1.15347 -1.17482 0)
(-0.898488 -1.26156 0)
(-0.663969 -1.24487 0)
(-0.470569 -1.15833 0)
(-0.334606 -1.04629 0)
(-0.252045 -0.936945 0)
(-0.288353 0.15169 0)
(0.331934 1.20157 0)
(0.514841 2.46137 0)
(0.312627 2.17863 0)
(-0.152332 1.62202 0)
(-0.215945 1.45146 0)
(-0.467485 1.41097 0)
(-0.676529 1.45887 0)
(-0.962271 1.52102 0)
(-1.27886 1.53061 0)
(-1.57692 1.40769 0)
(-1.79184 1.11326 0)
(-1.87884 0.664788 0)
(-1.82918 0.126687 0)
(-1.67562 -0.414838 0)
(-1.45991 -0.885695 0)
(-1.20962 -1.23524 0)
(-0.952213 -1.44664 0)
(-0.710887 -1.52058 0)
(-0.500711 -1.47153 0)
(-0.326999 -1.33221 0)
(-0.199174 -1.15801 0)
(-0.129204 -0.999004 0)
(-0.193511 0.00251867 0)
(0.296835 0.998186 0)
(0.367629 2.24284 0)
(0.267724 2.47117 0)
(-0.0800634 1.85939 0)
(-0.153897 1.6424 0)
(-0.412284 1.63631 0)
(-0.647261 1.73057 0)
(-0.959462 1.8313 0)
(-1.2731 1.83365 0)
(-1.52341 1.64272 0)
(-1.64318 1.23046 0)
(-1.61389 0.647767 0)
(-1.46594 -0.0072368 0)
(-1.25493 -0.630973 0)
(-1.00618 -1.13911 0)
(-0.751607 -1.49328 0)
(-0.505813 -1.68693 0)
(-0.306774 -1.72585 0)
(-0.162895 -1.641 0)
(-0.0664777 -1.465 0)
(0.00405772 -1.24094 0)
(0.0354728 -1.03567 0)
(0.00267836 -0.124803 0)
(0.264832 0.930497 0)
(0.116152 2.20602 0)
(0.0602357 2.68349 0)
(-0.101554 2.02853 0)
(-0.148427 1.82232 0)
(-0.37236 1.86915 0)
(-0.599353 2.0076 0)
(-0.883143 2.12381 0)
(-1.12789 2.07763 0)
(-1.26758 1.76632 0)
(-1.25572 1.19209 0)
(-1.1056 0.481991 0)
(-0.885461 -0.223085 0)
(-0.63965 -0.863724 0)
(-0.368138 -1.38956 0)
(-0.116428 -1.73638 0)
(0.0988747 -1.88609 0)
(0.247425 -1.86033 0)
(0.314306 -1.71456 0)
(0.309704 -1.50182 0)
(0.274781 -1.25358 0)
(0.233615 -1.02215 0)
(-0.134269 -0.277715 0)
(0.2029 1.07462 0)
(-0.233878 2.38304 0)
(-0.142601 2.73082 0)
(-0.14987 2.08955 0)
(-0.157143 1.96259 0)
(-0.324065 2.07269 0)
(-0.505968 2.24246 0)
(-0.709688 2.33935 0)
(-0.843361 2.20271 0)
(-0.861335 1.75474 0)
(-0.726943 1.06479 0)
(-0.490297 0.300453 0)
(-0.22147 -0.427752 0)
(0.0524048 -1.10465 0)
(0.336619 -1.63845 0)
(0.577573 -1.95923 0)
(0.747807 -2.04601 0)
(0.837792 -1.93524 0)
(0.826449 -1.70133 0)
(0.72853 -1.42975 0)
(0.581575 -1.16449 0)
(0.444332 -0.931227 0)
(-0.175898 -0.174876 0)
(0.139883 1.24893 0)
(-0.41238 2.52675 0)
(-0.19634 2.63467 0)
(-0.162321 2.06063 0)
(-0.138752 2.04984 0)
(-0.245442 2.21521 0)
(-0.35167 2.39413 0)
(-0.441427 2.44384 0)
(-0.451497 2.20931 0)
(-0.359957 1.64916 0)
(-0.125526 0.876909 0)
(0.169356 0.0718243 0)
(0.462938 -0.693153 0)
(0.742202 -1.37601 0)
(1.00952 -1.89079 0)
(1.21721 -2.15739 0)
(1.33689 -2.1573 0)
(1.35448 -1.94324 0)
(1.26321 -1.60921 0)
(1.08215 -1.2639 0)
(0.846894 -0.974029 0)
(0.622921 -0.755949 0)
(-0.125852 -0.226551 0)
(0.0976629 1.25512 0)
(-0.461084 2.62661 0)
(-0.152626 2.48623 0)
(-0.132238 1.99935 0)
(-0.0831869 2.08943 0)
(-0.133892 2.28023 0)
(-0.150203 2.43985 0)
(-0.115363 2.42721 0)
(0.0010417 2.1114 0)
(0.198246 1.47388 0)
(0.494534 0.651008 0)
(0.800758 -0.183524 0)
(1.07681 -0.964087 0)
(1.34499 -1.64454 0)
(1.57602 -2.12081 0)
(1.72221 -2.30631 0)
(1.76125 -2.19892 0)
(1.68893 -1.8717 0)
(1.5186 -1.43966 0)
(1.27367 -1.02667 0)
(0.984618 -0.713694 0)
(0.711478 -0.518932 0)
(-0.177345 -0.351248 0)
(0.0751376 1.39717 0)
(-0.492234 2.70368 0)
(-0.0953103 2.3306 0)
(-0.0912589 1.93882 0)
(-0.0120345 2.08824 0)
(-0.0119321 2.26805 0)
(0.0607514 2.37997 0)
(0.202504 2.29071 0)
(0.427327 1.89577 0)
(0.715011 1.20386 0)
(1.02308 0.365829 0)
(1.29457 -0.459072 0)
(1.5475 -1.23286 0)
(1.78348 -1.88877 0)
(1.94368 -2.28773 0)
(1.98308 -2.36162 0)
(1.90527 -2.14043 0)
(1.73783 -1.71548 0)
(1.5092 -1.20903 0)
(1.23704 -0.750795 0)
(0.938846 -0.427836 0)
(0.667308 -0.264355 0)
(-0.314613 -0.21906 0)
(-0.329685 1.77679 0)
(-0.535339 2.66163 0)
(-0.0690141 2.15887 0)
(-0.0626354 1.86919 0)
(0.0545354 2.04957 0)
(0.0912339 2.18953 0)
(0.234181 2.22985 0)
(0.451587 2.0521 0)
(0.740266 1.58968 0)
(1.05804 0.889563 0)
(1.33844 0.0976892 0)
(1.58811 -0.715676 0)
(1.82113 -1.4828 0)
(1.98651 -2.06311 0)
(2.01398 -2.33577 0)
(1.90429 -2.28401 0)
(1.70551 -1.96976 0)
(1.46537 -1.48755 0)
(1.21727 -0.949346 0)
(0.962956 -0.478378 0)
(0.706176 -0.164442 0)
(0.491826 -0.0411138 0)
(-0.642533 0.614536 0)
(-0.447441 1.80641 0)
(-0.541606 2.40929 0)
(0.00551809 1.95349 0)
(-0.0548393 1.78043 0)
(0.111207 1.97664 0)
(0.164974 2.06268 0)
(0.3472 2.01989 0)
(0.601684 1.76244 0)
(0.904505 1.26661 0)
(1.2032 0.597035 0)
(1.46124 -0.159348 0)
(1.70402 -0.954926 0)
(1.87809 -1.65329 0)
(1.89636 -2.09366 0)
(1.74984 -2.21799 0)
(1.50082 -2.06455 0)
(1.21925 -1.70536 0)
(0.95085 -1.21702 0)
(0.720477 -0.695914 0)
(0.526257 -0.248687 0)
(0.351857 0.028858 0)
(0.240182 0.0972488 0)
(-0.714929 0.748111 0)
(0.495504 1.68862 0)
(-0.284972 2.21206 0)
(0.193973 1.79934 0)
(-0.0198824 1.70135 0)
(0.162957 1.88495 0)
(0.222431 1.91577 0)
(0.410895 1.79021 0)
(0.666219 1.46994 0)
(0.946639 0.96308 0)
(1.20906 0.3203 0)
(1.4665 -0.418908 0)
(1.66564 -1.14317 0)
(1.69981 -1.68484 0)
(1.53883 -1.94612 0)
(1.2559 -1.94906 0)
(0.93148 -1.74825 0)
(0.621227 -1.3931 0)
(0.362706 -0.94103 0)
(0.181088 -0.473939 0)
(0.0658304 -0.091111 0)
(-0.0046517 0.115498 0)
(0.0192165 0.115465 0)
(-0.670209 0.700006 0)
(0.543011 1.52804 0)
(0.00462907 2.20223 0)
(0.288229 1.82611 0)
(0.0372166 1.67089 0)
(0.198569 1.79706 0)
(0.261821 1.7721 0)
(0.432984 1.57499 0)
(0.662284 1.20806 0)
(0.90788 0.695289 0)
(1.17182 0.0523718 0)
(1.40457 -0.632616 0)
(1.47962 -1.19807 0)
(1.34538 -1.53832 0)
(1.06809 -1.65931 0)
(0.735995 -1.60867 0)
(0.407846 -1.40887 0)
(0.117902 -1.08638 0)
(-0.100077 -0.693921 0)
(-0.229706 -0.312524 0)
(-0.267885 -0.0463997 0)
(-0.200066 0.0552264 0)
(-0.0901126 0.0209114 0)
(-0.589844 0.682733 0)
(0.515601 1.45242 0)
(-0.206561 2.22768 0)
(0.339313 1.89296 0)
(0.0372492 1.67488 0)
(0.191175 1.72548 0)
(0.25186 1.64112 0)
(0.408849 1.38491 0)
(0.628497 0.972883 0)
(0.889103 0.427875 0)
(1.14871 -0.19089 0)
(1.27342 -0.727605 0)
(1.19883 -1.09028 0)
(0.972203 -1.28251 0)
(0.676154 -1.3405 0)
(0.366469 -1.28062 0)
(0.0774411 -1.09996 0)
(-0.16191 -0.836065 0)
(-0.315043 -0.540587 0)
(-0.370897 -0.298325 0)
(-0.317007 -0.14051 0)
(-0.204365 -0.0894314 0)
(-0.0977899 -0.094154 0)
(-0.488611 0.678188 0)
(0.473372 1.52703 0)
(-0.39291 2.06548 0)
(0.384713 1.83733 0)
(0.0108072 1.6869 0)
(0.14347 1.65792 0)
(0.21623 1.50544 0)
(0.405086 1.18298 0)
(0.662589 0.714583 0)
(0.932042 0.166561 0)
(1.10061 -0.329198 0)
(1.09578 -0.682912 0)
(0.945265 -0.901232 0)
(0.715862 -1.02288 0)
(0.457419 -1.05924 0)
(0.198031 -1.00688 0)
(-0.0319078 -0.872398 0)
(-0.200631 -0.693641 0)
(-0.283255 -0.507535 0)
(-0.282041 -0.347958 0)
(-0.223567 -0.244779 0)
(-0.145356 -0.188715 0)
(-0.0811936 -0.165133 0)
(-0.391715 0.611768 0)
(0.448168 1.59579 0)
(0.0440365 1.91382 0)
(0.373854 1.82822 0)
(0.101094 1.73333 0)
(0.147756 1.57843 0)
(0.275909 1.32604 0)
(0.520046 0.935717 0)
(0.787336 0.450147 0)
(0.978141 -0.00891234 0)
(1.02743 -0.349325 0)
(0.94846 -0.56989 0)
(0.791387 -0.712838 0)
(0.596566 -0.802351 0)
(0.388273 -0.834766 0)
(0.187352 -0.805226 0)
(0.0207828 -0.725219 0)
(-0.0924102 -0.607918 0)
(-0.145584 -0.486223 0)
(-0.150306 -0.379563 0)
(-0.125826 -0.296052 0)
(-0.0906031 -0.2395 0)
(-0.0572789 -0.208776 0)
(-0.247166 0.472005 0)
(0.337078 1.40204 0)
(0.351986 1.885 0)
(0.470274 1.96941 0)
(0.358743 1.8721 0)
(0.363684 1.52828 0)
(0.534301 1.10949 0)
(0.747721 0.699413 0)
(0.921787 0.274718 0)
(0.997228 -0.0677845 0)
(0.962428 -0.29517 0)
(0.85656 -0.442816 0)
(0.715676 -0.549766 0)
(0.556991 -0.625081 0)
(0.393067 -0.660264 0)
(0.241016 -0.65021 0)
(0.115866 -0.602904 0)
(0.0253922 -0.532196 0)
(-0.0282286 -0.450932 0)
(-0.0523125 -0.372836 0)
(-0.0554593 -0.30873 0)
(-0.0453441 -0.262394 0)
(-0.030814 -0.232426 0)
(-0.166936 0.506604 0)
(0.202556 1.07895 0)
(0.39365 1.67268 0)
(0.578019 1.91585 0)
(0.687612 1.84465 0)
(0.795807 1.42516 0)
(0.870102 0.984404 0)
(0.927572 0.589904 0)
(0.996482 0.21674 0)
(0.9881 -0.0449383 0)
(0.905816 -0.207244 0)
(0.794138 -0.319954 0)
(0.671162 -0.411549 0)
(0.540812 -0.479814 0)
(0.409878 -0.517167 0)
(0.287984 -0.522606 0)
(0.184508 -0.499847 0)
(0.103774 -0.456162 0)
(0.0470059 -0.402492 0)
(0.0121372 -0.3497 0)
(-0.00472089 -0.303437 0)
(-0.00852616 -0.267814 0)
(-0.00592807 -0.242342 0)
(-0.0423468 0.5038 0)
(0.0369166 0.735915 0)
(0.320582 1.43344 0)
(0.520082 1.69739 0)
(0.720418 1.72199 0)
(0.859613 1.39119 0)
(0.934863 0.961158 0)
(0.974034 0.559995 0)
(0.993137 0.224947 0)
(0.934314 0.0233689 0)
(0.836083 -0.10578 0)
(0.732397 -0.207162 0)
(0.626617 -0.293663 0)
(0.517345 -0.359787 0)
(0.408649 -0.400396 0)
(0.306899 -0.415055 0)
(0.218085 -0.407756 0)
(0.145947 -0.384954 0)
(0.0918452 -0.353538 0)
(0.0548281 -0.32023 0)
(0.0320657 -0.288695 0)
(0.0200154 -0.262805 0)
(0.0148145 -0.243054 0)
(0.0187028 0.479652 0)
(-0.0358937 0.731819 0)
(0.1403 1.14843 0)
(0.356008 1.4188 0)
(0.619614 1.52051 0)
(0.781881 1.26664 0)
(0.882407 0.8596 0)
(0.930289 0.513602 0)
(0.909213 0.269638 0)
(0.832858 0.107531 0)
(0.745053 -0.0116286 0)
(0.657846 -0.111513 0)
(0.569296 -0.195366 0)
(0.47837 -0.259613 0)
(0.388149 -0.302645 0)
(0.303538 -0.325359 0)
(0.228841 -0.330776 0)
(0.166675 -0.323387 0)
(0.117829 -0.307904 0)
(0.081827 -0.288734 0)
(0.0569189 -0.269255 0)
(0.0406946 -0.251947 0)
(0.0306418 -0.237825 0)
(0.0110188 0.49721 0)
(-0.0764775 0.756832 0)
(-0.0192944 1.01666 0)
(0.162797 1.18372 0)
(0.413158 1.21857 0)
(0.598599 1.0237 0)
(0.734872 0.742598 0)
(0.790279 0.504904 0)
(0.763804 0.31994 0)
(0.708164 0.179158 0)
(0.6437 0.0646574 0)
(0.575022 -0.0326754 0)
(0.50323 -0.11366 0)
(0.429376 -0.177043 0)
(0.356173 -0.222636 0)
(0.287337 -0.251674 0)
(0.225795 -0.266559 0)
(0.173255 -0.270417 0)
(0.130411 -0.266564 0)
(0.097025 -0.25814 0)
(0.0720266 -0.24788 0)
(0.0539548 -0.23765 0)
(0.0410695 -0.22854 0)
(-0.0105046 0.53123 0)
(-0.0727905 0.781399 0)
(-0.0624795 0.930154 0)
(0.0675492 1.01857 0)
(0.266312 1.00647 0)
(0.458347 0.873218 0)
(0.586978 0.677126 0)
(0.629655 0.495329 0)
(0.618848 0.349619 0)
(0.586344 0.227487 0)
(0.542593 0.120663 0)
(0.490948 0.0284278 0)
(0.434573 -0.0487576 0)
(0.376329 -0.110967 0)
(0.318525 -0.158388 0)
(0.263557 -0.192029 0)
(0.213505 -0.213689 0)
(0.169767 -0.225573 0)
(0.132926 -0.23012 0)
(0.102919 -0.229701 0)
(0.0791274 -0.226371 0)
(0.0606171 -0.221687 0)
(0.0463018 -0.216797 0)
(-0.0149188 0.564576 0)
(-0.0411276 0.800521 0)
(-0.0194334 0.869745 0)
(0.0820006 0.884653 0)
(0.227904 0.848797 0)
(0.368402 0.747281 0)
(0.458274 0.610972 0)
(0.493131 0.480135 0)
(0.493891 0.363924 0)
(0.476518 0.257338 0)
(0.44757 0.160206 0)
(0.410231 0.0744338 0)
(0.367509 0.00134306 0)
(0.322566 -0.0593075 0)
(0.277727 -0.107658 0)
(0.234579 -0.144429 0)
(0.194622 -0.170743 0)
(0.158895 -0.188214 0)
(0.127855 -0.198662 0)
(0.101546 -0.203903 0)
(0.0796547 -0.205634 0)
(0.0616927 -0.205263 0)
(0.047172 -0.203934 0)
(-0.0106111 0.583311 0)
(-0.00985631 0.794746 0)
(0.0290692 0.811203 0)
(0.110307 0.77777 0)
(0.210024 0.725473 0)
(0.299594 0.650399 0)
(0.357451 0.5598 0)
(0.383942 0.464411 0)
(0.389117 0.368673 0)
(0.380344 0.275347 0)
(0.361221 0.187878 0)
(0.334493 0.1088 0)
(0.302845 0.0394361 0)
(0.269118 -0.0195354 0)
(0.235164 -0.0683843 0)
(0.202115 -0.107135 0)
(0.171033 -0.136483 0)
(0.142604 -0.157628 0)
(0.117155 -0.172001 0)
(0.094754 -0.181105 0)
(0.0753382 -0.186454 0)
(0.0587866 -0.189411 0)
(0.0451234 -0.191195 0)
(-0.00584067 0.585787 0)
(0.00922056 0.768054 0)
(0.0543978 0.752489 0)
(0.117231 0.701069 0)
(0.183 0.649431 0)
(0.238004 0.59311 0)
(0.274651 0.526512 0)
(0.293989 0.450258 0)
(0.29992 0.368474 0)
(0.295228 0.286007 0)
(0.282082 0.20681 0)
(0.262917 0.133402 0)
(0.240164 0.0673017 0)
(0.215487 0.00964802 0)
(0.190763 -0.0392202 0)
(0.167137 -0.0792216 0)
(0.144626 -0.110528 0)
(0.123374 -0.133911 0)
(0.103558 -0.150682 0)
(0.0853469 -0.162251 0)
(0.0688658 -0.170075 0)
(0.0542218 -0.175491 0)
(0.041676 -0.179817 0)
(-0.0025904 0.583109 0)
(0.0189778 0.740011 0)
(0.0631544 0.706604 0)
(0.11076 0.651016 0)
(0.153577 0.605155 0)
(0.186965 0.560377 0)
(0.209662 0.506313 0)
(0.222382 0.441269 0)
(0.226041 0.369152 0)
(0.221799 0.294717 0)
(0.211524 0.221499 0)
(0.197422 0.15187 0)
(0.181397 0.0876264 0)
(0.16475 0.0301326 0)