/*--------------------------------*- C++ -*----------------------------------*\
| =========                 |                                                 |
| \\      /  F ield         | OpenFOAM: The Open Source CFD Toolbox           |
|  \\    /   O peration     | Version:  2.3.0                                 |
|   \\  /    A nd           | Web:      www.OpenFOAM.org                      |
|    \\/     M anipulation  |                                                 |
\*---------------------------------------------------------------------------*/
FoamFile
{
    version     2.0;
    format      ascii;
    class       volScalarField;
    location    "1.8";
    object      alpha.water;
}
// * * * * * * * * * * * * * * * * * * * * * * * * * * * * * * * * * * * * * //

dimensions      [0 0 0 0 0 0 0];

internalField   nonuniform List<scalar> 
2268
(
1
1
1
1
1
1
1
1
1
1
1
1
0.999998
0.999998
0.999998
1
1
1
0.983631
0.977508
0.990212
0.992255
0.988618
1
1
1
1
1
1
1
1
1
1
0.999999
0.999998
0.999998
0.999999
1
1
1
1
0.977688
0.977508
0.985093
0.996411
0.988618
1
1
1
1
1
1
1
1
0.999999
0.999999
0.999999
0.999999
0.999999
1
1
1
1
1
0.983255
0.977508
0.977605
0.998597
0.989766
1
1
1
1
1
1
1
0.999999
0.999999
0.999999
0.999999
1
1
1
1
1
1
1
0.99769
0.980682
0.98618
0.998871
0.997376
1
1
1
1
1
1
1
1
1
0.999999
1
1
1
1
1
1
1
1
1
0.998433
0.99934
0.999682
0.998725
1
1
1
1
1
1
1
1
1
1
1
1
1
1
1
1
1
1
1
0.999996
0.999982
0.999847
0.999943
1
1
1
1
1
1
1
1
1
1
1
1
1
1
1
1
1
0.999989
0.999988
0.999987
0.99998
0.999975
0.999974
0.999999
0.999998
0.999998
0.999999
0.999999
0.999999
0.999999
0.999999
0.999999
0.999999
0.999999
1
1
1
1
1
1
0.999998
0.999977
0.999975
0.999975
0.999975
0.999974
0.99161
0.991452
0.989069
0.977107
0.979794
0.989543
0.995045
0.995617
0.995595
0.995612
0.995617
0.99562
0.981417
0.907344
0.907227
0.907187
0.915808
0.962138
0.962138
0.993303
0.983536
0.915462
0.887928
0.886046
0.89592
0.950416
0.991375
0.995637
0.995657
0.995617
0.99564
0.995649
0.9228
0.90719
0.907119
0.907031
0.91913
0.962138
0.99383
0.928464
0.906315
0.908804
0.885256
0.884164
0.884164
0.94577
0.99399
0.995523
0.995689
0.99565
0.995645
0.987973
0.90724
0.907123
0.907024
0.940668
0.961894
0.993886
0.954112
0.990137
0.995947
0.988219
0.922065
0.886047
0.902217
0.978838
0.994673
0.995519
0.995657
0.995631
0.995281
0.958018
0.929504
0.90683
0.955175
0.963032
0.993825
0.995811
0.996004
0.99604
0.996064
0.996048
0.967785
0.805459
0.829383
0.827419
0.760507
0.72652
0.789536
0.962605
0.964293
0.960475
0.958883
0.963259
0.963133
0.965806
0.992281
0.995815
0.995948
0.996039
0.996075
0.996003
0.79965
0.646866
0.644058
0.643205
0.643021
0.644233
0.667345
0.914762
0.963237
0.963329
0.963196
0.963053
0.995325
0.995447
0.995527
0.99562
0.995805
0.996002
0.995562
0.815817
0.643855
0.643234
0.642911
0.642588
0.64261
0.64425
0.877813
0.963083
0.963089
0.963131
0.963166
0.995448
0.995137
0.994276
0.995724
0.994989
0.995573
0.995451
0.886475
0.664768
0.644968
0.64261
0.64261
0.642598
0.699858
0.94511
0.96316
0.963367
0.96317
0.963166
0.999959
0.999952
0.999961
0.99997
0.999977
0.999982
0.999985
0.999986
0.999987
0.999987
0.999988
0.99999
0.999992
0.999996
0.999999
1
1
0.999998
0.999997
0.999996
0.995264
0.988582
0.995784
0.949483
0.959909
0.970897
0.974954
0.975415
0.971943
0.964428
0.95444
0.943868
0.934498
0.93216
0.935715
0.946691
0.963384
0.981342
0.99499
0.999837
0.999997
0.999996
0.999994
0.998404
0.956323
0.915811
0.283118
0.31034
0.350473
0.369948
0.365068
0.345828
0.315854
0.286665
0.262481
0.245897
0.243337
0.251364
0.276595
0.319427
0.3814
0.471282
0.58995
0.715317
0.820287
0.891736
0.910335
0.912385
0.903385
0.00534929
0.00387125
0.0031001
0.00248459
0.00186817
0.0013762
0.00115069
0.00100443
0.000807627
0.000537818
0.000254006
7.7744e-05
5.52378e-05
5.199e-05
4.93626e-05
4.78181e-05
4.80076e-05
0.0107508
0.0421804
0.0869325
0.139673
0.226159
0.221246
0.00974723
0.00777092
0.00924172
0.018639
0.0195709
0.0194279
0.00919212
0.00719068
0.00944762
0.0159058
0.0161817
0.0161569
0.00903849
0.000210059
5.19459e-05
4.93635e-05
4.78207e-05
4.83874e-05
4.84433e-05
5.5142e-05
0.0001415
0.000279229
0.000344248
1.93358e-06
0.00158708
0.00211595
1.94291e-07
0.00187635
0.00579421
0.0136658
0.0149466
0.0154037
0.0158763
0.0161569
0.0161955
0.014745
0.00203926
0.000212366
0.00163999
0.00123947
7.02163e-05
0.000234685
0.00253823
0.00263976
0.000365123
0.000423439
4.11547e-08
4.70044e-08
7.24942e-08
1.20223e-07
1.9429e-07
2.45313e-07
2.58246e-07
0.000112249
0.000369891
0.00372019
0.00706785
0.00528842
0.00203715
0.00181594
0.00190326
0.00202603
0.00202603
0.000309372
0.00065021
0.00358602
0.00358602
0.00150944
0.00302005
4.05494e-08
4.04599e-07
9.05074e-07
2.86228e-06
1.03619e-06
3.54863e-07
7.32396e-07
1.24367e-06
2.5551e-06
3.00457e-06
3.39269e-06
0.000307899
0.00198135
0.00201877
0.00204045
0.00148699
0.000973481
0.000122303
0.000125985
0.00121257
0.00231874
0.000727848
0.0112466
3.45158e-08
1.10097e-06
5.83788e-06
5.96092e-06
2.72317e-06
3.67245e-06
1.8827e-05
2.37363e-05
4.13768e-06
6.85276e-06
0.000126245
0.000525652
0.00116412
0.00123403
0.000487855
7.07015e-05
1.56691e-05
2.58763e-05
0.000149261
0.000985153
0.000778025
0.000288487
0.00305885
3.42417e-09
7.28398e-07
3.37696e-06
4.69899e-06
3.35938e-06
7.69309e-06
2.29995e-05
2.3943e-05
4.92892e-06
9.20295e-10
6.81041e-09
1.17881e-08
8.36837e-06
1.62945e-05
3.44705e-06
2.31693e-06
2.44068e-06
1.59074e-05
0.000560295
0.000970783
0.000859305
0.00019812
0.000121853
3.08736e-09
1.04237e-09
9.93645e-10
8.90331e-10
8.30424e-10
1.3512e-07
6.67008e-10
6.02838e-10
5.53905e-10
5.21352e-10
1.42648e-09
1.47293e-07
2.49137e-07
4.59201e-07
9.15761e-07
7.63239e-07
6.9658e-07
1.05776e-05
0.000334489
0.000622702
0.000655829
0.000226601
4.41608e-05
1.22815e-09
9.98279e-10
9.3149e-10
8.33801e-10
7.70162e-10
6.80432e-10
6.08026e-10
5.54036e-10
5.2383e-10
4.81469e-10
5.31563e-10
9.15474e-10
3.4539e-08
3.0705e-07
6.59211e-07
4.83299e-07
4.19745e-07
4.43466e-06
1.09948e-05
1.90504e-05
5.34288e-05
0.000105634
4.29428e-06
3.26367e-08
1.62132e-09
2.27708e-09
1.66969e-09
1.64906e-09
1.89975e-09
2.26303e-09
1.39575e-09
8.10908e-10
4.5798e-10
3.71046e-10
4.04681e-10
1.43778e-08
7.7067e-08
1.11575e-07
1.10771e-07
6.65677e-08
1.46878e-07
2.60042e-07
3.83833e-07
4.06248e-07
3.7969e-07
5.20193e-07
7.97852e-08
1.80071e-09
2.32806e-09
2.49945e-09
2.49864e-09
2.52803e-09
2.52822e-09
2.39766e-09
1.13468e-09
4.85064e-10
3.58823e-10
3.66032e-10
6.08974e-10
2.73163e-10
5.07205e-10
7.55575e-10
1.18688e-09
4.51589e-09
2.12413e-08
3.06011e-08
3.06916e-08
1.94237e-08
3.43817e-08
8.00698e-08
6.20268e-09
1.72982e-09
1.62425e-09
1.71206e-09
2.18406e-09
2.41019e-09
2.36823e-09
1.66977e-09
7.90434e-10
3.62045e-10
2.3667e-10
1.92621e-10
1.62822e-10
1.49594e-10
1.51808e-10
2.04872e-10
4.54407e-10
1.55357e-09
2.78639e-09
5.30857e-09
5.92955e-09
1.94206e-08
8.00697e-08
2.32772e-08
1.83227e-08
1.19626e-09
1.18168e-09
1.31517e-09
1.53057e-09
1.69533e-09
1.70475e-09
1.15181e-09
5.23915e-10
2.62976e-10
1.78633e-10
1.55809e-10
1.32372e-10
1.24166e-10
1.31565e-10
1.57186e-10
2.61317e-10
1.04665e-09
3.69608e-09
5.30388e-09
3.0569e-05
1.11644e-08
3.39599e-08
3.88456e-08
5.16292e-09
1.16971e-09
1.16025e-09
1.14989e-09
1.04467e-09
1.07363e-09
1.05267e-09
7.06874e-10
3.58869e-10
1.81814e-10
1.2491e-10
1.05853e-10
9.87824e-11
1.00556e-10
9.65851e-11
1.36747e-10
2.37682e-10
5.97183e-10
2.39474e-06
1.16987e-05
1.11347e-08
1.11348e-08
3.87915e-08
6.90562e-09
1.18105e-09
1.33785e-09
1.26329e-09
9.03436e-10
7.84894e-10
7.06922e-10
6.21582e-10
4.34375e-10
2.17833e-10
1.20036e-10
8.94121e-11
7.58292e-11
7.42559e-11
6.78976e-11
7.04702e-11
1.34478e-10
1.2381e-07
6.91223e-07
3.1474e-09
9.30811e-06
4.56237e-06
1.46735e-09
1.45325e-09
1.46406e-09
1.72724e-09
1.57707e-09
1.10387e-09
7.39521e-10
5.87257e-10
4.63275e-10
3.19425e-10
1.87837e-10
1.23429e-10
8.59156e-11
6.30869e-11
5.38458e-11
6.03295e-11
5.06434e-11
2.23513e-09
1.66911e-08
1.91269e-10
8.26588e-11
3.39639e-05
3.43404e-05
1.27581e-05
1.43971e-09
1.41632e-09
1.47855e-09
1.57652e-09
1.41832e-09
8.21685e-10
5.21935e-10
3.52234e-10
2.28918e-10
1.62996e-10
1.13774e-10
7.91466e-11
5.4453e-11
3.78796e-11
2.99901e-11
3.72731e-11
1.24802e-10
1.81407e-11
1.61061e-11
1.93324e-11
3.39588e-05
3.45337e-05
3.45337e-05
3.27887e-06
1.37799e-09
1.36737e-09
1.36861e-09
1.27928e-09
9.1144e-10
4.79992e-10
2.51428e-10
1.74658e-10
1.25643e-10
9.1346e-11
6.43347e-11
4.27922e-11
2.81289e-11
1.90853e-11
1.49613e-11
1.49179e-11
1.35347e-11
1.06827e-11
1.53377e-11
7.26793e-06
3.3589e-05
2.79633e-05
6.12555e-06
2.38406e-07
1.67592e-09
9.61574e-10
8.97362e-10
7.30014e-10
3.74561e-10
2.13498e-10
1.43468e-10
9.45453e-11
6.52152e-11
4.41729e-11
2.76883e-11
1.87459e-11
1.32976e-11
9.65665e-12
7.32997e-12
6.37126e-12
6.89897e-12
8.97998e-12
9.84292e-09
4.58769e-06
2.39036e-06
7.99413e-07
1.90971e-07
4.33601e-08
8.5023e-10
8.48311e-10
5.23483e-10
2.75711e-10
1.56103e-10
1.06443e-10
6.3594e-11
3.98316e-11
2.59976e-11
1.74435e-11
1.19098e-11
8.21637e-12
5.71048e-12
3.99949e-12
2.92966e-12
2.43815e-12
2.60483e-12
3.04902e-10
2.15207e-09
6.83212e-10
1.92048e-10
1.49722e-09
2.43947e-10
1.02627e-09
8.48052e-10
4.23827e-10
2.01306e-10
1.06941e-10
6.08863e-11
3.7514e-11
2.40995e-11
1.57619e-11
1.04078e-11
6.90353e-12
4.58505e-12
3.05168e-12
2.03996e-12
1.37139e-12
9.77767e-13
8.23213e-13
4.23002e-11
8.10906e-11
6.6883e-11
1.01378e-10
1.65039e-10
2.32941e-10
2.69987e-10
2.39038e-10
1.66496e-10
1.02345e-10
5.98743e-11
3.58432e-11
2.23421e-11
1.42645e-11
9.16292e-12
5.86429e-12
3.72856e-12
2.35799e-12
1.48811e-12
9.40941e-13
5.98533e-13
3.8462e-13
2.77617e-13
3.45438e-11
3.93344e-11
5.38132e-11
1.03e-10
1.49529e-10
1.68416e-10
1.47488e-10
1.08139e-10
7.17281e-11
4.57114e-11
2.89346e-11
1.83553e-11
1.16272e-11
7.30996e-12
4.54229e-12
2.78566e-12
1.68757e-12
1.01255e-12
6.03996e-13
3.59735e-13
2.14916e-13
1.29522e-13
8.0291e-14
1.3237e-11
3.78622e-11
5.04683e-11
6.35987e-11
6.84459e-11
6.32193e-11
5.24332e-11
3.9804e-11
2.83166e-11
1.92215e-11
1.26036e-11
8.04114e-12
5.00981e-12
3.05287e-12
1.82161e-12
1.06595e-12
6.13218e-13
3.48001e-13
1.95632e-13
1.09459e-13
6.13118e-14
3.47623e-14
2.06381e-14
3.95985e-12
1.35971e-11
2.06158e-11
2.43549e-11
2.46228e-11
2.23233e-11
1.8411e-11
1.40309e-11
1.00302e-11
6.80868e-12
4.42786e-12
2.77481e-12
1.6819e-12
9.8869e-13
5.65053e-13
3.14869e-13
1.71672e-13
9.19606e-14
4.86302e-14
2.55381e-14
1.34739e-14
7.44381e-15
5.02323e-15
9.75306e-13
3.79112e-12
5.99951e-12
7.15348e-12
7.20935e-12
6.43456e-12
5.22385e-12
3.93016e-12
2.77641e-12
1.85822e-12
1.1854e-12
7.23758e-13
4.24327e-13
2.39607e-13
1.30738e-13
6.91881e-14
3.56653e-14
1.79954e-14
8.94115e-15
4.42845e-15
2.30105e-15
1.56524e-15
2.04204e-15
2.0697e-13
8.55169e-13
1.34771e-12
1.5833e-12
1.57202e-12
1.38599e-12
1.11416e-12
8.29765e-13
5.78328e-13
3.79761e-13
2.36072e-13
1.39461e-13
7.85736e-14
4.23745e-14
2.19626e-14
1.09892e-14
5.33507e-15
2.52853e-15
1.1851e-15
5.852e-16
4.16253e-16
6.77941e-16
1.76571e-15
3.84025e-14
1.60083e-13
2.45142e-13
2.80003e-13
2.71518e-13
2.34606e-13
1.84883e-13
1.34656e-13
9.13869e-14
5.81154e-14
3.4779e-14
1.96625e-14
1.05426e-14
5.38356e-15
2.63038e-15
1.23606e-15
5.62139e-16
2.50801e-16
1.18699e-16
9.14595e-17
1.89694e-16
5.95032e-16
1.86763e-15
6.21865e-15
2.52428e-14
3.68079e-14
4.03644e-14
3.7776e-14
3.15629e-14
2.40328e-14
1.68603e-14
1.09739e-14
6.6597e-15
3.78413e-15
2.02133e-15
1.01933e-15
4.87575e-16
2.22377e-16
9.73192e-17
4.14448e-17
1.88701e-17
1.60991e-17
4.21971e-17
1.56397e-16
5.67947e-16
1.92308e-15
8.70505e-16
3.37656e-15
4.60802e-15
4.77527e-15
4.25211e-15
3.38598e-15
2.45394e-15
1.63334e-15
1.00424e-15
5.72934e-16
3.04576e-16
1.51532e-16
7.08954e-17
3.13593e-17
1.31982e-17
5.35995e-18
2.33634e-18
2.18552e-18
7.03745e-18
3.04375e-17
1.27408e-16
4.9894e-16
1.82171e-15
1.04992e-16
3.84381e-16
4.84099e-16
4.6841e-16
3.9171e-16
2.93117e-16
1.9922e-16
1.23905e-16
7.08454e-17
3.73906e-17
1.82965e-17
8.34322e-18
3.56568e-18
1.43767e-18
5.5423e-19
2.27489e-19
2.19033e-19
8.25235e-19
4.14163e-18
2.00664e-17
9.09198e-17
3.8436e-16
1.51948e-15
1.08599e-17
3.7425e-17
4.31689e-17
3.86499e-17
3.00288e-17
2.08644e-17
1.31105e-17
7.49263e-18
3.91146e-18
1.87406e-18
8.28637e-19
3.40238e-19
1.30637e-19
4.74797e-20
1.79226e-20
1.57091e-20
6.35295e-20
3.65963e-19
2.07364e-18
1.0998e-17
5.41487e-17
2.48193e-16
1.06555e-15
9.60576e-19
3.12819e-18
3.30324e-18
2.72261e-18
1.94861e-18
1.2415e-18
7.10158e-19
3.66472e-19
1.71453e-19
7.31675e-20
2.86837e-20
1.04105e-20
3.5377e-21
1.20533e-21
8.27887e-22
3.06958e-21
1.91774e-20
1.27386e-19
8.07887e-19
4.72818e-18
2.55005e-17
1.27695e-16
5.99277e-16
7.29092e-20
2.26603e-19
2.20112e-19
1.66633e-19
1.09207e-19
6.31124e-20
3.23793e-20
1.48249e-20
6.09724e-21
2.27114e-21
7.73219e-22
2.43352e-22
7.42314e-23
3.65153e-23
9.85213e-23
5.63366e-22
4.06258e-21
3.12975e-20
2.25742e-19
1.48106e-18
8.88418e-18
4.928e-17
2.56012e-16
4.75729e-21
1.45054e-20
1.30194e-20
9.09245e-21
5.43375e-21
2.82464e-21
1.28146e-21
5.1074e-22
1.80596e-22
5.73118e-23
1.65355e-23
4.48699e-24
1.61105e-24
2.63477e-24
1.12422e-23
6.07565e-23
5.14343e-22
4.7578e-21
4.01504e-20
3.03527e-19
2.07643e-18
1.30407e-17
7.63793e-17
2.79568e-22
8.19324e-22
6.90829e-22
4.48649e-22
2.45795e-22
1.13989e-22
4.49903e-23
1.5256e-23
4.51015e-24
1.1821e-24
2.82356e-25
7.73943e-26
7.67975e-26
2.30534e-25
7.67998e-25
3.02957e-24
3.089e-23
3.60472e-22
3.73146e-21
3.4011e-20
2.76583e-19
2.03928e-18
1.38715e-17
1.58711e-23
4.01579e-23
3.32803e-23
2.04717e-23
1.03866e-23
4.27827e-24
1.43994e-24
4.02285e-25
9.54038e-26
1.97646e-26
4.16018e-27
2.6871e-27
6.05763e-27
1.51819e-26
2.94831e-26
5.62897e-26
5.81162e-25
9.09179e-24
1.24993e-22
1.4912e-21
1.56366e-20
1.46298e-19
1.24283e-18
8.88936e-25
1.6855e-24
1.44625e-24
8.94733e-25
4.21848e-25
1.52465e-25
4.23648e-26
9.23171e-27
1.63208e-27
2.58224e-28
1.03266e-28
2.12758e-28
4.35102e-28
7.27148e-28
6.87726e-28
3.99234e-28
1.30018e-27
3.00379e-26
6.49054e-25
1.20426e-23
1.94199e-22
2.75895e-21
3.50219e-20
4.7346e-26
5.02405e-26
5.41352e-26
3.53584e-26
1.5773e-26
4.9821e-27
1.1032e-27
1.70425e-28
1.9173e-29
3.50676e-30
7.25154e-30
1.63158e-29
2.4042e-29
2.44076e-29
8.86214e-30
1.65019e-30
2.03526e-31
1.40426e-31
7.15485e-30
3.58989e-28
1.5698e-26
6.0898e-25
2.13137e-23
0.995361
0.994847
0.994364
0.993779
0.947934
0.994523
0.993795
0.991849
0.885392
0.858764
0.830857
0.790985
0.198289
0.165381
0.111947
0.0153101
0.000423431
0.000646687
0.0011621
0.00201063
0.00328301
0.015839
0.0266076
0.0298217
0.0325538
0.040805
0.0407812
0.0407518
0.0397709
0.0404284
0.0408432
0.0404885
0.0356385
0.0397821
0.0402725
0.0375087
0.00112423
0.0241444
0.0379269
0.0113919
5.63225e-05
2.25446e-05
0.00185792
0.000743771
3.3459e-05
2.02322e-05
0.000540647
5.55945e-06
7.33993e-07
1.39923e-05
0.000739834
0.000107174
3.6882e-05
0.000334669
9.41692e-05
2.98041e-08
0.000183372
0.000294458
1.24188e-09
1.58131e-08
7.58746e-05
4.89118e-06
6.46631e-10
1.24348e-09
8.92727e-09
3.67581e-10
1.90289e-10
6.25911e-10
2.31928e-10
7.15897e-11
9.26134e-11
1.52607e-10
4.89529e-11
5.94115e-11
8.3068e-11
7.14622e-11
3.78904e-11
5.41026e-11
6.52529e-11
6.44403e-11
3.28142e-11
4.26507e-11
4.52261e-11
5.37182e-11
1.33393e-11
1.74441e-11
2.09554e-11
2.78636e-11
3.48756e-12
4.47225e-12
5.86681e-12
8.48856e-12
8.80349e-13
9.872e-13
1.21321e-12
1.7188e-12
2.56115e-13
2.48119e-13
2.58521e-13
3.09096e-13
6.8469e-14
6.19221e-14
5.92503e-14
6.16407e-14
1.64613e-14
1.43983e-14
1.38435e-14
1.45481e-14
4.51554e-15
4.56542e-15
5.21435e-15
6.47032e-15
2.52457e-15
3.30395e-15
4.44662e-15
6.05542e-15
2.49447e-15
3.52079e-15
4.94503e-15
6.89125e-15
2.71089e-15
3.90252e-15
5.57448e-15
7.8971e-15
2.83835e-15
4.15902e-15
6.0565e-15
8.77125e-15
2.73726e-15
4.09426e-15
6.10904e-15
9.11479e-15
2.32626e-15
3.56004e-15
5.47292e-15
8.50667e-15
1.66312e-15
2.61275e-15
4.17849e-15
6.89863e-15
9.55523e-16
1.55385e-15
2.64066e-15
4.79777e-15
4.19358e-16
7.20456e-16
1.35721e-15
2.85605e-15
1.30356e-16
2.47595e-16
5.52912e-16
1.41261e-15
2.56777e-17
5.92793e-17
1.69193e-16
5.36457e-16
2.83494e-18
9.32972e-18
3.5483e-17
1.43378e-16
1.43764e-19
7.7876e-19
4.02576e-18
2.38494e-17
4.50683e-22
6.36759e-21
8.8811e-20
1.70445e-18
0.994813
0.992819
0.990933
0.983182
0.98303
0.992147
0.994376
0.964347
0.863973
0.866252
0.851562
0.766599
0.82117
0.948014
0.959423
0.961248
0.942016
0.918465
0.954788
0.986128
0.923244
0.788803
0.530705
0.503288
0.661921
0.859454
0.903107
0.898014
0.892764
0.889651
0.858347
0.829078
0.848959
0.770528
0.578373
0.394378
0.287381
0.385848
0.597558
0.255531
0.0506831
0.0030085
0.00515578
0.129818
0.468964
0.688631
0.815703
0.832818
0.791246
0.670822
0.542219
0.430415
0.293282
0.205825
0.137838
0.127844
0.12924
0.00377452
0.00328506
0.00300592
0.0029265
0.00282733
0.0160784
0.149766
0.280389
0.306244
0.342535
0.401596
0.360107
0.259485
0.177314
0.184431
0.210506
0.152924
0.127844
0.127797
0.00291471
0.00362222
0.00292701
0.00282691
0.00282733
0.00282772
0.00284497
0.00678167
0.00806142
0.00997333
0.0603722
0.145291
0.165175
0.140808
0.185979
0.202386
0.201653
0.192735
0.180362
0.0273894
0.0268358
0.0251278
0.0215433
0.0170628
0.0119764
0.00946618
0.00919987
0.00903599
0.00954695
0.0107422
0.0407819
0.0803821
0.081718
0.116551
0.140332
0.19591
0.191398
0.187303
0.0406583
0.0397584
0.0385179
0.0384009
0.0384537
0.0384526
0.0371087
0.034702
0.0354821
0.0373427
0.0170447
0.00862992
0.00394037
0.00628802
0.0100668
0.0181428
0.0499398
0.0747925
0.0772335
0.0385185
0.0205729
0.0159503
0.0231331
0.0334505
0.0383661
0.0382189
0.0389304
0.0392259
0.0392259
0.0373164
0.00867131
0.000524194
0.000515316
0.00129632
0.00145481
0.00064898
0.000702516
0.000837533
0.00715093
6.02414e-07
6.45599e-07
8.05247e-07
1.2524e-06
0.00304491
0.00878764
0.0111274
0.012908
0.0166212
0.0108573
0.0046739
0.000239423
0.000170671
0.000893944
0.00105332
0.000187667
0.000181222
0.000186322
5.60337e-07
5.82426e-07
6.02964e-07
6.456e-07
8.01693e-07
1.22924e-06
2.89051e-06
6.84491e-06
1.14059e-05
1.58947e-05
4.76975e-05
0.000185248
0.000116467
0.00010728
0.000133078
0.000631977
0.000116936
0.000120195
0.000128128
5.5336e-07
5.62883e-07
5.81205e-07
8.21908e-07
1.28319e-06
2.22756e-05
6.76658e-05
9.73021e-05
9.98656e-05
0.000196778
0.000213249
9.93993e-05
9.58065e-05
9.00926e-05
8.95377e-05
0.000100177
0.000104318
0.000109743
0.000119159
5.56315e-07
5.6292e-07
1.95161e-06
2.77435e-06
2.72737e-06
4.4862e-05
0.000272842
0.000276305
0.00027156
0.000275302
0.000233623
9.59485e-05
9.03015e-05
8.58347e-05
8.58347e-05
8.64669e-05
0.000103198
0.000108782
0.000120154
4.84034e-07
1.64909e-06
2.88997e-06
3.09188e-06
3.67397e-06
4.68573e-05
0.000276305
0.000271633
0.00027156
0.000271276
0.000270774
0.000267773
0.000178376
8.57318e-05
8.43468e-05
8.2316e-05
0.000155376
0.000158349
0.000158521
4.01089e-07
4.76448e-06
5.7518e-06
3.86781e-06
4.21261e-06
8.30181e-06
0.000160117
0.000273365
0.000271276
0.000230508
0.000110925
0.000180382
0.000209978
0.000207076
8.5058e-05
2.70266e-05
0.000137555
0.000158537
0.000158521
6.02594e-08
7.23279e-06
1.54978e-05
9.32585e-06
5.27192e-06
6.12488e-06
4.62195e-05
0.000269683
0.000249077
1.65561e-05
2.70003e-07
1.83527e-05
0.000110319
0.000139207
6.26875e-05
1.51901e-05
2.74444e-05
6.14448e-05
0.000117262
1.29605e-08
1.13979e-05
2.79821e-05
2.79412e-05
1.11229e-05
7.50094e-06
1.25551e-05
0.000122017
0.000163132
2.69999e-07
4.11108e-08
1.11097e-07
9.34964e-07
3.63231e-06
3.30618e-06
1.15926e-05
9.70081e-05
0.000120455
0.000120455
1.59601e-08
1.38579e-05
2.80165e-05
2.79791e-05
2.79964e-05
1.63982e-05
1.5523e-05
2.61327e-05
1.84062e-05
2.79979e-06
2.75183e-08
3.03599e-08
4.93358e-08
4.99008e-08
1.08773e-07
6.26991e-06
8.80457e-05
0.000120298
0.000120456
1.80756e-09
4.39268e-06
2.69919e-05
2.7907e-05
2.79693e-05
2.79059e-05
2.77184e-05
9.83567e-06
3.27374e-08
3.27125e-08
2.75181e-08
2.75186e-08
2.75564e-08
1.97381e-08
7.41387e-09
1.16403e-06
1.25364e-05
2.21291e-05
3.32188e-05
7.0213e-11
6.10937e-10
7.88515e-06
2.78615e-05
2.79059e-05
2.7852e-05
2.78001e-05
9.30406e-06
3.31326e-08
8.32063e-08
7.48524e-07
1.12369e-06
2.33917e-07
1.06299e-08
1.27843e-09
1.18366e-09
4.46345e-10
7.92214e-10
1.11998e-09
4.83415e-11
3.71488e-11
1.73078e-08
2.89851e-06
9.36703e-06
1.57545e-05
1.51542e-05
2.69115e-06
3.02376e-07
1.34433e-07
1.12338e-06
1.27241e-06
1.25541e-06
4.73739e-08
8.0496e-10
5.6914e-10
4.61737e-10
1.16406e-09
3.30621e-09
4.62265e-11
3.13038e-11
2.69348e-11
5.70125e-11
1.35024e-10
4.39744e-08
1.30943e-07
7.29889e-08
7.98588e-07
8.09885e-07
7.62544e-07
1.24672e-06
7.27726e-07
4.40073e-08
1.15083e-09
2.84548e-09
3.77667e-10
3.52243e-08
8.88193e-06
3.86062e-11
2.88861e-11
2.54619e-11
2.50178e-11
3.10744e-11
3.8038e-11
5.62653e-11
9.27584e-11
2.95058e-07
8.15226e-07
7.87631e-07
1.59637e-07
2.42863e-08
4.97165e-09
3.53015e-09
2.23869e-09
2.2411e-10
2.75006e-07
5.94572e-05
1.48626e-11
1.9357e-11
2.08241e-11
2.29274e-11
2.66318e-11
3.06277e-11
3.67606e-11
4.33275e-11
3.64557e-10
4.43797e-07
7.64841e-07
3.69041e-07
4.49481e-09
1.80781e-09
1.80722e-09
6.82162e-10
2.20199e-10
3.80196e-06
6.0464e-05
3.52286e-12
6.57494e-12
1.24251e-11
1.74297e-11
2.32035e-11
2.91835e-11
3.60125e-11
3.93813e-11
3.44372e-11
2.76279e-09
1.93703e-07
3.54697e-07
2.57155e-07
7.33652e-08
2.38091e-10
2.29202e-10
2.18281e-10
1.45832e-05
6.0464e-05
6.23194e-13
1.52666e-12
4.21483e-12
8.1284e-12
1.54333e-11
2.5047e-11
2.88712e-11
3.26136e-11
2.89153e-11
3.31334e-11
1.27041e-10
3.16854e-08
1.04059e-07
7.71389e-08
1.60809e-08
2.20779e-10
2.13299e-10
1.89695e-05
6.04015e-05
1.04939e-13
2.98471e-13
1.06361e-12
2.87919e-12
6.82768e-12
1.28011e-11
1.70774e-11
2.12073e-11
2.62793e-11
2.87786e-11
3.67137e-11
5.78358e-11
1.07219e-10
8.2876e-09
3.94542e-09
4.76167e-10
2.08676e-10
1.17003e-05
6.0267e-05
2.62514e-14
7.41864e-14
2.72014e-13
9.09014e-13
2.49177e-12
5.34964e-12
8.64824e-12
1.24416e-11
1.80318e-11
2.97106e-11
3.29533e-11
3.9565e-11
6.97229e-11
9.67515e-11
2.27681e-10
2.09567e-10
2.0714e-10
5.17143e-06
5.97533e-05
1.61426e-14
4.30421e-14
1.23567e-13
3.7367e-13
1.02861e-12
2.39505e-12
4.55745e-12
7.64835e-12
1.25942e-11
2.15422e-11
3.19714e-11
5.11002e-11
7.77404e-11
1.10408e-10
2.02789e-10
2.04335e-10
2.05433e-10
6.68528e-06
5.93402e-05
1.69525e-14
4.4314e-14
1.11088e-13
2.77043e-13
6.71143e-13
1.51155e-12
3.05328e-12
5.59842e-12
9.85891e-12
1.71032e-11
2.71896e-11
4.31495e-11
6.71084e-11
1.02804e-10
2.01214e-10
2.03552e-10
2.05395e-10
1.82186e-05
5.91494e-05
2.00697e-14
5.28058e-14
1.28121e-13
2.95226e-13
6.51755e-13
1.3674e-12
2.6927e-12
4.97241e-12
8.81088e-12
1.51748e-11
2.48359e-11
3.98434e-11
6.17145e-11
9.45771e-11
2.54843e-10
2.65647e-10
2.08008e-10
2.14671e-05
5.88775e-05
2.48333e-14
6.74106e-14
1.61475e-13
3.56639e-13
7.44586e-13
1.47723e-12
2.78242e-12
4.98958e-12
8.62896e-12
1.4543e-11
2.38315e-11
3.86188e-11
6.02126e-11
8.99978e-11
4.10286e-10
4.63696e-10
2.10899e-10
1.73829e-05
5.86786e-05
3.24003e-14
9.39372e-14
2.23889e-13
4.73031e-13
9.32264e-13
1.74762e-12
3.12985e-12
5.37785e-12
8.95458e-12
1.46327e-11
2.37716e-11
3.98972e-11
6.21433e-11
1.03867e-10
6.71528e-10
7.00773e-10
2.17724e-10
8.83569e-06
5.81545e-05
4.41677e-14
1.41977e-13
3.43917e-13
7.04492e-13
1.31553e-12
2.32011e-12
3.9156e-12
6.36918e-12
1.00874e-11
1.58493e-11
2.59321e-11
4.55869e-11
6.63479e-11
1.74863e-10
8.36147e-10
7.58793e-10
2.29863e-10
1.62413e-05
3.36763e-05
5.84237e-14
2.14154e-13
5.46852e-13
1.13338e-12
2.07268e-12
3.49393e-12
5.56638e-12
8.52461e-12
1.27415e-11
1.90743e-11
3.13734e-11
5.393e-11
7.002e-11
3.33203e-10
1.2166e-09
9.08277e-10
2.44688e-10
3.01716e-05
3.81176e-05
6.82843e-14
2.89257e-13
8.09256e-13
1.79454e-12
3.38233e-12
5.62884e-12
8.5596e-12
1.23377e-11
1.75243e-11
2.52403e-11
4.05297e-11
6.3322e-11
7.99173e-11
6.22894e-10
1.84559e-09
1.12097e-09
2.62126e-10
2.18294e-05
3.81176e-05
6.71168e-14
3.22567e-13
1.02843e-12
2.58272e-12
5.33385e-12
9.18568e-12
1.37123e-11
1.87301e-11
2.54378e-11
3.67004e-11
5.836e-11
8.31288e-11
1.42839e-10
1.18842e-09
1.91927e-09
1.13523e-09
2.84308e-10
4.02769e-06
6.31943e-06
5.30763e-14
2.84618e-13
1.089e-12
3.26083e-12
7.89886e-12
1.50716e-11
2.34061e-11
3.13747e-11
4.01141e-11
5.76396e-11
9.7031e-11
2.17578e-10
5.532e-10
1.57664e-09
1.91817e-09
1.13815e-09
3.09282e-10
3.30473e-10
1.28945e-08
3.1739e-14
1.95655e-13
9.42572e-13
3.51332e-12
1.04083e-11
2.33268e-11
3.96647e-11
5.47909e-11
6.75009e-11
8.9437e-11
2.06377e-10
6.35244e-10
1.13073e-09
1.55862e-09
1.43624e-09
7.19848e-10
3.2943e-10
3.45251e-10
1.08521e-08
1.32709e-14
1.01291e-13
6.22413e-13
3.0069e-12
1.1318e-11
2.96891e-11
5.78156e-11
8.60684e-11
1.08807e-10
1.33984e-10
3.26261e-10
7.8389e-10
1.06782e-09
1.05714e-09
6.30679e-10
6.54809e-10
1.27272e-08
1.76573e-08
3.7693e-08
3.68872e-15
3.9499e-14
3.28619e-13
2.05752e-12
9.81565e-12
2.95588e-11
6.62437e-11
1.12308e-10
1.47271e-10
1.91119e-10
3.26659e-10
6.13166e-10
5.84532e-10
4.30797e-10
4.44429e-10
2.43773e-07
2.82845e-06
4.01134e-07
5.0333e-08
6.44782e-16
1.13509e-14
1.33785e-13
1.1255e-12
6.56171e-12
2.21519e-11
5.93995e-11
1.22229e-10
2.05943e-10
2.39652e-10
3.35083e-10
4.11854e-10
4.11145e-10
4.1085e-10
6.07839e-07
2.62683e-06
3.15692e-06
2.43488e-06
1.22798e-07
6.02001e-17
2.00026e-15
3.38422e-14
3.60421e-13
3.36575e-12
1.28207e-11
4.66125e-11
1.07241e-10
2.53436e-10
4.39194e-10
4.6168e-10
7.05821e-10
5.26451e-10
4.10287e-10
3.33416e-07
3.15692e-06
3.15692e-06
2.28054e-06
1.47949e-07
)
;

boundaryField
{
    leftWall
    {
        type            zeroGradient;
    }
    rightWall
    {
        type            zeroGradient;
    }
    lowerWall
    {
        type            zeroGradient;
    }
    atmosphere
    {
        type            inletOutlet;
        inletValue      uniform 0;
        value           nonuniform List<scalar> 
46
(
0
0
0
0
0
0
0
0
0
0
0
0
0
0
0
0
0
0
0
0
0
0
0
0
0
0
0
0
0
0
0
3.36575e-12
1.28207e-11
4.66125e-11
1.07241e-10
2.53436e-10
4.39194e-10
4.6168e-10
7.05821e-10
5.26451e-10
4.10287e-10
3.33416e-07
3.15692e-06
3.15692e-06
2.28054e-06
1.47949e-07
)
;
    }
    defaultFaces
    {
        type            empty;
    }
}


// ************************************************************************* //
