/*--------------------------------*- C++ -*----------------------------------*\
| =========                 |                                                 |
| \\      /  F ield         | OpenFOAM: The Open Source CFD Toolbox           |
|  \\    /   O peration     | Version:  2.3.0                                 |
|   \\  /    A nd           | Web:      www.OpenFOAM.org                      |
|    \\/     M anipulation  |                                                 |
\*---------------------------------------------------------------------------*/
FoamFile
{
    version     2.0;
    format      ascii;
    class       volScalarField;
    location    "1.8";
    object      epsilon;
}
// * * * * * * * * * * * * * * * * * * * * * * * * * * * * * * * * * * * * * //

dimensions      [0 2 -3 0 0 0 0];

internalField   nonuniform List<scalar> 
2268
(
0.0112621
0.0610067
0.114757
0.162923
0.20672
0.24828
0.288203
0.32627
0.361512
0.392523
0.417835
0.436176
0.446688
0.448862
0.442166
0.426867
0.403359
0.368783
0.320692
0.263213
0.197757
0.119531
0.0472793
0.0188451
0.0383868
0.0606225
0.0812096
0.100397
0.118622
0.135985
0.152304
0.167155
0.179994
0.190299
0.197676
0.201929
0.203034
0.201069
0.196636
0.190191
0.181119
0.169149
0.152147
0.126312
0.0902105
0.0727748
0.0313077
0.0401161
0.0554426
0.0704855
0.0848168
0.0984793
0.111442
0.123525
0.134411
0.143715
0.151084
0.156275
0.159215
0.159999
0.158866
0.156322
0.152877
0.148501
0.142937
0.13476
0.12174
0.105059
0.127255
0.0456146
0.0457627
0.0575423
0.0701217
0.0824504
0.0943186
0.105599
0.116094
0.12551
0.133507
0.139774
0.144111
0.146491
0.147083
0.146236
0.144491
0.142413
0.140208
0.137713
0.134148
0.128976
0.127455
0.198375
0.0608974
0.0531587
0.0623857
0.0734532
0.0846896
0.0956681
0.106174
0.115978
0.124781
0.132241
0.138041
0.14198
0.144051
0.14449
0.143758
0.142496
0.141371
0.140767
0.140728
0.141093
0.143001
0.156533
0.283053
0.0761767
0.0615697
0.0687785
0.0787824
0.0893509
0.0998694
0.110044
0.119612
0.128249
0.135581
0.141256
0.145041
0.146933
0.147232
0.146534
0.145638
0.145379
0.146343
0.148868
0.153483
0.163238
0.194948
0.398362
0.0913465
0.0706628
0.0762371
0.085457
0.0956069
0.10592
0.116038
0.125665
0.13444
0.141937
0.14774
0.151554
0.153359
0.15352
0.152803
0.152237
0.152901
0.155644
0.161166
0.170786
0.189928
0.246311
0.580115
0.106916
0.080268
0.0845012
0.0931491
0.103053
0.113338
0.1236
0.133515
0.14268
0.150599
0.15676
0.160778
0.162589
0.162618
0.161834
0.161596
0.163323
0.168208
0.177361
0.192928
0.222824
0.3113
1.05538
0.136177
0.49006
1.01647
1.3057
1.32854
1.22389
1.06592
0.90076
0.752235
0.617774
0.477622
0.343678
0.242652
0.189147
0.167407
0.142786
0.107607
0.0688404
0.0245755
0.145917
0.311786
0.523546
0.615078
0.610073
0.561119
0.496759
0.432618
0.374593
0.32334
0.273058
0.224699
0.179049
0.138743
0.11137
0.0915496
0.0707211
0.0479907
0.0341235
0.188118
0.341886
0.48945
0.535762
0.517692
0.471324
0.41669
0.364431
0.318071
0.276106
0.236754
0.201592
0.168166
0.132972
0.105627
0.0870082
0.0701988
0.0541073
0.0535465
0.223888
0.417063
0.521121
0.53784
0.507303
0.45729
0.402725
0.351552
0.306671
0.26543
0.227128
0.193905
0.163877
0.132592
0.107021
0.0895859
0.0750394
0.0636463
0.0791718
0.300708
0.529388
0.583155
0.568803
0.523732
0.466866
0.408837
0.355355
0.308787
0.265721
0.225771
0.191414
0.16193
0.133884
0.11077
0.0946643
0.0818991
0.074564
0.108698
0.500522
0.691534
0.665756
0.614885
0.553377
0.487413
0.423486
0.365735
0.315846
0.269974
0.2277
0.19157
0.161639
0.136089
0.11562
0.10091
0.0898121
0.0863518
0.142244
1.14827
0.908722
0.757991
0.668259
0.590367
0.513843
0.442082
0.378632
0.324442
0.275565
0.231297
0.19371
0.163082
0.139038
0.120971
0.107622
0.0981873
0.0986384
0.177545
2.26804
1.10688
0.837631
0.721921
0.631135
0.543241
0.462044
0.391941
0.333209
0.281645
0.235894
0.197317
0.166226
0.143102
0.12666
0.1144
0.106569
0.111031
0.212178
0.127877
0.0944702
0.0976064
0.105879
0.115749
0.1263
0.137107
0.147826
0.157993
0.166983
0.1741
0.178759
0.180778
0.180653
0.179732
0.180075
0.183778
0.192749
0.208801
0.235183
0.281205
0.379813
0.68615
0.155043
0.113952
0.116858
0.125473
0.135905
0.147423
0.159653
0.17232
0.184922
0.196652
0.206419
0.213162
0.216279
0.216136
0.214631
0.215598
0.223008
0.239926
0.26915
0.314624
0.384847
0.49775
0.684294
0.177707
0.132189
0.135823
0.145677
0.157325
0.170429
0.184628
0.199915
0.215975
0.231969
0.246287
0.25716
0.263207
0.264033
0.261193
0.262001
0.274379
0.303597
0.353396
0.427547
0.533652
0.679904
0.859913
0.19006
0.148957
0.152558
0.164377
0.177922
0.193259
0.20971
0.227709
0.247647
0.269401
0.290518
0.308173
0.320733
0.326861
0.321461
0.319465
0.338466
0.386683
0.46815
0.58374
0.743465
0.953838
1.18515
0.19923
0.163993
0.167363
0.179411
0.194286
0.211829
0.230938
0.250331
0.270337
0.291679
0.311666
0.327787
0.342077
0.351637
0.363517
0.375063
0.410929
0.490993
0.622036
0.79249
1.03165
1.36086
1.68881
0.241551
0.187948
0.184007
0.194166
0.207581
0.224138
0.241065
0.256759
0.271848
0.286666
0.298986
0.309024
0.320956
0.339252
0.369088
0.409276
0.486867
0.631425
0.790463
0.955585
1.22152
1.54959
1.71007
0.320984
0.220687
0.206217
0.209075
0.218573
0.231204
0.244829
0.257507
0.268765
0.278934
0.287555
0.296235
0.307893
0.326832
0.358709
0.410521
0.500279
0.654097
0.811177
0.94024
1.11307
1.25365
1.27406
0.401704
0.243484
0.223356
0.224276
0.229579
0.23744
0.246521
0.256243
0.265918
0.274992
0.282774
0.289055
0.29852
0.316794
0.348627
0.401007
0.482848
0.604257
0.738179
0.8541
0.966574
1.02694
1.01727
0.463579
0.253868
0.226679
0.22577
0.231183
0.238188
0.245594
0.253319
0.261306
0.268708
0.274352
0.279582
0.28917
0.307552
0.337766
0.384582
0.451161
0.539704
0.643565
0.746962
0.836824
0.871688
0.857723
0.515407
0.260592
0.223818
0.219166
0.223509
0.229993
0.236499
0.242764
0.248933
0.254787
0.260472
0.267855
0.279508
0.298127
0.325852
0.365213
0.418586
0.486682
0.565087
0.646922
0.719736
0.753769
0.755882
0.549743
0.263219
0.219009
0.209897
0.211389
0.21618
0.221583
0.226936
0.232387
0.238256
0.245251
0.254763
0.26837
0.287731
0.314115
0.348778
0.392889
0.445669
0.504263
0.567091
0.625249
0.661384
0.673794
0.564848
0.262084
0.213136
0.200164
0.198464
0.200999
0.205048
0.20975
0.21514
0.221633
0.229939
0.241069
0.256097
0.275979
0.301264
0.332339
0.36934
0.411103
0.455891
0.504115
0.550994
0.586702
0.606219
0.560867
0.256691
0.205895
0.190386
0.186151
0.186694
0.189504
0.193676
0.199112
0.206122
0.215251
0.227194
0.24264
0.262043
0.285554
0.313108
0.344381
0.378447
0.414426
0.452636
0.490387
0.52192
0.542255
0.539182
0.246667
0.196752
0.180245
0.174523
0.173725
0.175616
0.179324
0.184655
0.191769
0.20102
0.212848
0.227672
0.245643
0.266741
0.290763
0.317319
0.345772
0.37559
0.406753
0.436999
0.462463
0.479035
0.50244
0.23215
0.185419
0.169314
0.163141
0.161692
0.16302
0.166327
0.171362
0.178167
0.186935
0.197928
0.211404
0.227374
0.245774
0.266411
0.288963
0.312971
0.337935
0.363288
0.38719
0.406465
0.418111
0.454255
0.213751
0.171962
0.157361
0.151568
0.150042
0.151121
0.154105
0.158733
0.16497
0.172902
0.18268
0.194469
0.208275
0.224011
0.241531
0.260584
0.280774
0.301533
0.321977
0.34048
0.354595
0.362179
0.396714
0.192273
0.156729
0.144401
0.139565
0.138373
0.139449
0.142211
0.146418
0.152003
0.158995
0.167476
0.177547
0.189302
0.202607
0.217358
0.233341
0.250182
0.267272
0.283663
0.29793
0.30832
0.313389
0.340354
0.16905
0.14028
0.130641
0.127098
0.126496
0.127745
0.130389
0.13423
0.139202
0.145311
0.152606
0.161158
0.171049
0.182252
0.194625
0.207975
0.22195
0.235969
0.249167
0.260401
0.268431
0.272322
0.28448
0.145523
0.123161
0.116381
0.114283
0.114403
0.115932
0.118545
0.122103
0.126556
0.131909
0.138197
0.145474
0.153797
0.163201
0.173584
0.184739
0.196348
0.207907
0.218704
0.227862
0.234504
0.237973
0.230111
0.122529
0.106055
0.102005
0.101351
0.102222
0.104077
0.106717
0.110063
0.114096
0.118826
0.124288
0.130526
0.137581
0.145475
0.154182
0.163535
0.173233
0.182865
0.191873
0.199598
0.205395
0.208752
0.17675
0.10049
0.0897717
0.0879733
0.0886296
0.0901903
0.0923565
0.0950417
0.0982254
0.101915
0.106136
0.110922
0.116312
0.12234
0.129018
0.136319
0.144149
0.152302
0.160411
0.168051
0.174725
0.179937
0.183266
0.130355
0.0808862
0.0748128
0.0748614
0.0764779
0.0786023
0.0810209
0.0837399
0.0867838
0.0901853
0.0939798
0.098204
0.102894
0.108076
0.113761
0.119925
0.126493
0.13332
0.140184
0.146734
0.152573
0.157318
0.16061
0.0927994
0.0635839
0.0614173
0.0629471
0.0652508
0.0677723
0.0703615
0.0730876
0.0759961
0.0791424
0.0825704
0.0863179
0.0904177
0.0948939
0.0997548
0.104982
0.110521
0.116265
0.122058
0.127659
0.132787
0.137105
0.140338
0.0661536
0.0496059
0.0501753
0.0526708
0.0553867
0.0580806
0.0607275
0.0633944
0.0661524
0.0690598
0.072162
0.0754959
0.079091
0.0829688
0.0871371
0.091584
0.0962694
0.101117
0.10601
0.110785
0.115244
0.119173
0.122315
0.0512397
0.0400706
0.0416968
0.0444508
0.0472089
0.0498519
0.052422
0.054965
0.0575443
0.0602124
0.063011
0.065973
0.0691244
0.0724837
0.0760591
0.0798439
0.0838114
0.087909
0.0920551
0.096137
0.100016
0.103536
0.10654
0.0451007
0.034406
0.035815
0.0382959
0.040818
0.0432541
0.045635
0.0479911
0.0503607
0.0527833
0.0552921
0.057914
0.0606707
0.0635779
0.0666436
0.0698656
0.0732275
0.0766951
0.080214
0.0837083
0.0870827
0.0902278
0.0930299
0.0435517
0.0312365
0.0318789
0.0338753
0.0360581
0.038229
0.0403831
0.0425224
0.0446677
0.0468453
0.0490792
0.0513901
0.0537951
0.0563072
0.0589343
0.0616773
0.0645275
0.0674643
0.0704532
0.0734449
0.0763762
0.0791725
0.0817535
0.0440723
0.0295625
0.029339
0.0308359
0.0326888
0.0346165
0.0365516
0.0384792
0.0404085
0.0423558
0.0443375
0.0463691
0.048464
0.0506332
0.0528842
0.05522
0.0576376
0.060126
0.0626649
0.0652239
0.0677626
0.0702318
0.0725763
0.0457365
0.0289345
0.0279133
0.0289637
0.030528
0.0322356
0.0339751
0.0357146
0.0374517
0.0391941
0.0409532
0.0427405
0.0445668
0.0464416
0.0483724
0.0503637
0.0524162
0.0545254
0.0566809
0.0588654
0.0610546
0.0632171
0.0653162
0.0485019
0.0291702
0.0274437
0.0281148
0.0294261
0.0309386
0.0325071
0.0340823
0.035651
0.0372148
0.0387808
0.0403577
0.0419543
0.0435791
0.0452392
0.04694
0.0486845
0.0504729
0.052301
0.0541605
0.0560378
0.0579143
0.0597664
0.052545
0.030302
0.0279021
0.0282349
0.0293166
0.0306464
0.032053
0.0334736
0.034887
0.0362896
0.0376848
0.0390786
0.0404781
0.04189
0.0433209
0.0447765
0.046261
0.0477771
0.0493247
0.050901
0.0524999
0.0541111
0.0557203
0.0581259
0.0324706
0.0293698
0.0293628
0.0302064
0.0313393
0.0325702
0.0338267
0.0350817
0.0363271
0.0375625
0.0387907
0.0400161
0.0412434
0.0424778
0.0437242
0.0449872
0.0462702
0.0475757
0.0489042
0.0502537
0.0516197
0.0529941
0.065598
0.0358904
0.0319954
0.0315952
0.0321507
0.0330406
0.0340568
0.0351197
0.0361973
0.0372761
0.0383511
0.0394207
0.0404855
0.0415471
0.0426084
0.0436726
0.0447434
0.0458244
0.0469185
0.0480279
0.0491531
0.0502925
0.0514418
0.0754787
0.0408595
0.0359874
0.0350714
0.0352368
0.0358001
0.0365368
0.0373591
0.0382271
0.0391198
0.040025
0.0409347
0.0418442
0.0427511
0.0436546
0.0445556
0.0454561
0.0463584
0.0472652
0.0481788
0.0491004
0.0500299
0.0509647
0.0885629
0.0477927
0.0416162
0.0399607
0.0395653
0.0396763
0.0400451
0.0405667
0.0411858
0.0418681
0.0425898
0.0433341
0.044089
0.0448466
0.045602
0.0463528
0.0470986
0.0478398
0.048578
0.0493146
0.0500504
0.050785
0.051516
0.106098
0.0572809
0.0492175
0.0464402
0.0452236
0.0447136
0.0446099
0.0447679
0.0451011
0.0455516
0.0460783
0.0466521
0.0472521
0.0478638
0.0484778
0.0490878
0.0496906
0.0502845
0.0508693
0.0514447
0.0520106
0.052565
0.053104
0.130142
0.0702071
0.0591879
0.0546518
0.0522445
0.0509142
0.0502372
0.0499836
0.0500095
0.0502197
0.0505491
0.0509531
0.0514011
0.0518716
0.0523504
0.0528278
0.0532977
0.0537563
0.0542011
0.0546304
0.0550421
0.0554324
0.0557945
0.164544
0.0879817
0.0719348
0.0646072
0.0605411
0.0582059
0.0568992
0.056229
0.0559596
0.0559446
0.0560904
0.0563361
0.0566415
0.0569795
0.0573317
0.0576858
0.0580333
0.0583684
0.0586872
0.0589861
0.0592613
0.059507
0.059713
0.218236
0.112991
0.0876326
0.0759753
0.069808
0.0664138
0.0645364
0.0635255
0.0630255
0.0628338
0.0628308
0.0629431
0.0631243
0.0633441
0.0635823
0.063825
0.0640625
0.0642881
0.0644966
0.0646834
0.0648436
0.0649695
0.0650488
0.31564
0.148536
0.105298
0.0876496
0.0794069
0.0752634
0.0730906
0.0719348
0.0713345
0.0710516
0.0709564
0.0709737
0.071058
0.0711803
0.0713215
0.0714683
0.0716116
0.0717445
0.0718617
0.0719585
0.0720297
0.0720679
0.07206
0.554358
0.194726
0.119994
0.0971505
0.088379
0.0844901
0.0825963
0.0816206
0.0811089
0.0808493
0.0807343
0.0807049
0.0807263
0.0807769
0.0808423
0.0809126
0.0809807
0.0810413
0.0810902
0.0811237
0.0811378
0.0811269
0.081081
1.59876
0.213432
0.117845
0.100886
0.0960129
0.0941767
0.093351
0.0929368
0.0927171
0.0925999
0.0925407
0.0925157
0.0925112
0.0925186
0.0925322
0.092548
0.0925632
0.0925757
0.0925837
0.0925857
0.0925803
0.0925656
0.0925379
2.31997
2.23244
2.35294
2.71713
0.897896
1.00616
1.08954
1.1479
0.991811
1.07649
1.14525
1.1943
1.32546
1.40901
1.47034
1.50798
1.82165
1.87392
1.88137
1.82926
1.70218
1.6346
1.55109
1.45748
1.22927
1.18644
1.13727
1.084
0.965051
0.927173
0.888101
0.849112
0.809156
0.776147
0.743487
0.71258
0.718027
0.689578
0.661977
0.636329
0.663444
0.643889
0.619227
0.596724
0.60816
0.60136
0.584982
0.564584
0.546914
0.543362
0.532665
0.516763
0.482522
0.480341
0.473245
0.460688
0.419547
0.417525
0.412188
0.402778
0.362168
0.360165
0.355778
0.348928
0.312775
0.310954
0.307634
0.302828
0.271865
0.270525
0.26813
0.264727
0.237955
0.237142
0.235539
0.233194
0.2092
0.208855
0.207896
0.206368
0.184118
0.184165
0.183728
0.182845
0.161787
0.162155
0.162142
0.161776
0.141767
0.142391
0.142721
0.142774
0.123922
0.124741
0.125336
0.125718
0.10825
0.109203
0.109988
0.110612
0.0947658
0.0957914
0.0966965
0.0974829
0.0834405
0.0844802
0.0854406
0.0863172
0.0741708
0.075179
0.0761374
0.0770433
0.066787
0.067734
0.068651
0.0695361
0.0610931
0.0619582
0.0628071
0.0636381
0.0568914
0.0576616
0.0584244
0.0591783
0.0540046
0.0546724
0.0553378
0.0559997
0.0522909
0.0528528
0.0534143
0.0539746
0.0516537
0.0521085
0.0525625
0.053015
0.0520481
0.0523962
0.052741
0.0530818
0.0534845
0.0537282
0.0539644
0.0541917
0.0560323
0.0561768
0.0563079
0.0564235
0.0598234
0.0598788
0.0599143
0.0599261
0.0650569
0.065041
0.0649992
0.0649259
0.0720028
0.0719431
0.0718553
0.0717319
0.0810073
0.0809413
0.0808521
0.0807324
0.0925024
0.0924723
0.0924332
0.0923819
1.48452
1.0719
0.897333
0.791236
0.691668
0.587374
0.491256
0.411379
0.346378
0.291451
0.244013
0.204498
0.173395
0.151492
0.136423
0.125068
0.11941
0.130902
0.271358
1.12918
1.05639
0.974444
0.897707
0.786977
0.645302
0.522958
0.430445
0.359549
0.302223
0.253956
0.214401
0.184633
0.165323
0.152169
0.139876
0.133238
0.15078
0.328507
1.23431
1.18193
1.094
1.03932
0.896793
0.686224
0.539405
0.439367
0.366234
0.308792
0.261307
0.222921
0.195677
0.18102
0.171505
0.156289
0.142897
0.157573
0.352214
1.50792
1.36679
1.18819
1.03513
0.879477
0.692275
0.539267
0.437642
0.365669
0.31028
0.264921
0.227921
0.202115
0.189996
0.181512
0.165124
0.148189
0.158108
0.329278
1.65084
1.34283
1.10214
0.959809
0.827423
0.662175
0.525615
0.426052
0.358963
0.30836
0.266769
0.231278
0.204778
0.189407
0.179737
0.16618
0.149731
0.15609
0.275598
1.30614
1.08789
0.918609
0.802494
0.705213
0.592473
0.481094
0.401444
0.347538
0.305553
0.270286
0.239772
0.212799
0.192014
0.180684
0.170298
0.153287
0.153429
0.226843
0.997326
0.864145
0.748089
0.655795
0.577267
0.500158
0.427878
0.371541
0.330289
0.297242
0.267047
0.241287
0.225406
0.199731
0.186468
0.180233
0.162422
0.152229
0.190781
0.790284
0.702488
0.617332
0.544752
0.482079
0.425862
0.377077
0.338053
0.307024
0.279828
0.254526
0.232267
0.218948
0.200195
0.184551
0.17978
0.174484
0.157203
0.184485
0.668025
0.601417
0.528684
0.467693
0.415387
0.369698
0.332764
0.303636
0.279254
0.256712
0.236028
0.218834
0.206294
0.193163
0.17913
0.170813
0.166801
0.153969
0.211273
0.598784
0.53431
0.46399
0.407072
0.361537
0.324378
0.294861
0.271165
0.250926
0.232041
0.216014
0.205499
0.199975
0.190862
0.176011
0.163454
0.156525
0.151418
0.232964
0.557669
0.486241
0.419627
0.365658
0.322827
0.289119
0.262247
0.240426
0.222609
0.207794
0.197131
0.191852
0.190233
0.182806
0.168223
0.153909
0.146652
0.141839
0.204185
0.522337
0.450727
0.38725
0.336014
0.295168
0.262495
0.236177
0.21535
0.199364
0.187395
0.179459
0.175574
0.173468
0.166132
0.153009
0.140404
0.133379
0.127872
0.160416
0.48081
0.417161
0.359886
0.312712
0.274458
0.243295
0.217966
0.198077
0.183204
0.172061
0.163673
0.157744
0.152867
0.14514
0.13398
0.123765
0.116847
0.109181
0.113753
0.43196
0.380869
0.33279
0.291668
0.25737
0.228906
0.205513
0.186864
0.172717
0.161318
0.15116
0.142228
0.134266
0.125735
0.116321
0.108243
0.102018
0.0936389
0.0839115
0.381463
0.343022
0.305037
0.271045
0.241664
0.216712
0.195966
0.179085
0.165798
0.154255
0.142809
0.131886
0.121872
0.112615
0.104287
0.0980315
0.0943072
0.0903484
0.0888131
0.334034
0.306422
0.27769
0.250685
0.226381
0.205148
0.187257
0.172576
0.160426
0.149146
0.137518
0.126208
0.115827
0.106759
0.0993253
0.0942534
0.0926658
0.0947216
0.111222
0.292597
0.273174
0.251967
0.23102
0.211349
0.193609
0.178366
0.165765
0.154882
0.144243
0.133337
0.122738
0.113106
0.104972
0.098666
0.0945439
0.0938289
0.100356
0.137153
0.257614
0.243981
0.228452
0.212385
0.196666
0.182001
0.169042
0.15804
0.148253
0.138552
0.128761
0.11927
0.110701
0.103619
0.0984344
0.0955222
0.0961115
0.105771
0.16174
0.228202
0.218514
0.20713
0.194866
0.182406
0.170381
0.159381
0.149651
0.140756
0.132047
0.123356
0.114971
0.107423
0.101271
0.0970362
0.0953476
0.097675
0.109797
0.180042
0.202976
0.196063
0.187698
0.178386
0.168596
0.158829
0.149558
0.141001
0.132994
0.125198
0.117492
0.110102
0.10348
0.0981623
0.094754
0.0940866
0.0978875
0.112339
0.189836
0.180702
0.175942
0.169873
0.162866
0.155272
0.147456
0.13977
0.132406
0.125334
0.118417
0.111627
0.105167
0.0994263
0.0949183
0.0922753
0.0924147
0.0972325
0.113278
0.193737
0.160634
0.157589
0.153393
0.1483
0.142561
0.136434
0.130192
0.124008
0.117919
0.11191
0.106034
0.100488
0.0956257
0.091926
0.0900116
0.09081
0.096276
0.113227
0.19686
0.142439
0.140779
0.138114
0.134614
0.130453
0.125827
0.120928
0.115902
0.110825
0.105757
0.100807
0.0961753
0.0921855
0.0892817
0.0880563
0.0894219
0.0953436
0.112918
0.201614
0.126023
0.125468
0.124052
0.121876
0.119058
0.115736
0.112053
0.108135
0.104075
0.0999674
0.0959433
0.0922091
0.0890674
0.0869252
0.0863335
0.0881793
0.0945018
0.112891
0.207302
0.1114
0.111701
0.111279
0.110185
0.108491
0.10629
0.103688
0.10079
0.0976967
0.0945149
0.0913857
0.0885099
0.086165
0.0847202
0.0846904
0.0869541
0.09363
0.112721
0.211501
0.0986076
0.0995345
0.0998713
0.0996331
0.0988538
0.0975915
0.0959231
0.0939358
0.0917239
0.0893969
0.0870949
0.0850062
0.0833825
0.0825591
0.0830223
0.0856499
0.0926196
0.112229
0.214234
0.0876466
0.0889954
0.0898773
0.0902825
0.0902185
0.0897159
0.088827
0.0876212
0.0861825
0.0846142
0.0830481
0.0816564
0.0806656
0.0803823
0.0812692
0.0842011
0.0913929
0.111305
0.215774
0.0784654
0.0800609
0.0813
0.0821575
0.082623
0.0827071
0.0824421
0.0818804
0.0810932
0.0801727
0.0792378
0.0784431
0.0779917
0.0781644
0.0794031
0.0825712
0.0899029
0.109892
0.215938
0.0709616
0.0726605
0.0740982
0.0752418
0.07607
0.0765798
0.0767882
0.0767326
0.0764705
0.0760807
0.0756672
0.0753663
0.0753591
0.0759035
0.0774202
0.0807561
0.0881352
0.108014
0.214485
0.0649983
0.0666888
0.0681964
0.0694863
0.0705323
0.0713231
0.071865
0.0721831
0.0723219
0.0723465
0.0723452
0.0724364
0.0727811
0.0736154
0.0753383
0.0787725
0.0861028
0.105762
0.211861
0.0604248
0.0620234
0.0634998
0.0648215
0.0659622
0.0669073
0.0676564
0.0682256
0.0686482
0.0689761
0.069283
0.0696702
0.0702801
0.0713291
0.0731948
0.0766729
0.0838981
0.103224
0.208804
0.0571009
0.0585444
0.0599102
0.0611706
0.0623025
0.0632918
0.064136
0.0648453
0.0654441
0.0659729
0.0664917
0.0670864
0.0678828
0.0690793
0.0710338
0.0745126
0.081584
0.100439
0.205488
0.05491
0.05615
0.0573416
0.0584629
0.0594968
0.0604339
0.0612732
0.0620225
0.0627
0.0633367
0.0639805
0.0647033
0.065616
0.0669012
0.0688977
0.0723427
0.0792317
0.0974953
0.200524
0.0537694
0.0547684
0.055732
0.0566452
0.0574999
0.0582956
0.0590378
0.0597355
0.0604035
0.0610646
0.061756
0.0625371
0.063505
0.0648278
0.0668263
0.0702088
0.0769064
0.0945902
0.194368
0.0536445
0.0543711
0.0550554
0.055692
0.056285
0.0568497
0.0574041
0.0579633
0.0585402
0.0591509
0.0598221
0.0606011
0.0615727
0.0628914
0.0648618
0.0681656
0.0746867
0.0920006
0.190594
0.0545555
0.054982
0.0553333
0.055616
0.0558516
0.0560832
0.0563524
0.0566853
0.0570942
0.0575872
0.0581796
0.0589062
0.0598394
0.0611222
0.0630452
0.0662668
0.0726208
0.089574
0.186747
0.056587
0.0566893
0.0566499
0.0564816
0.0562319
0.0559984
0.0558665
0.055879
0.0560454
0.0563612
0.056826
0.05746
0.0583226
0.0595461
0.0614099
0.06455
0.0707361
0.087237
0.182024
0.059899
0.059666
0.0591794
0.0584276
0.0574995
0.0566086
0.0559258
0.0555134
0.0553659
0.0554544
0.0557548
0.0562677
0.0570382
0.0581881
0.0599874
0.0630494
0.069071
0.0850999
0.177519
0.0647387
0.0641934
0.0632213
0.0617144
0.0597871
0.0579262
0.0564884
0.0555361
0.0550125
0.0548386
0.0549533
0.0553315
0.0560013
0.0570748
0.0588152
0.0618153
0.0676944
0.0833092
0.173906
0.0714492
0.07069
0.0692793
0.0668495
0.0633598
0.0599398
0.0574587
0.0558544
0.0549173
0.0544719
0.0544013
0.0546484
0.0552238
0.0562319
0.0579346
0.0609072
0.0666855
0.0819875
0.171566
0.0804634
0.0797229
0.0781752
0.0749396
0.069012
0.0625708
0.0586307
0.056309
0.0549783
0.0542944
0.054068
0.0542081
0.0547099
0.0556756
0.0573737
0.0603538
0.0660632
0.0811875
0.170558
0.0922668
0.0919272
0.0910532
0.0884599
0.0805158
0.0654602
0.0595876
0.0566572
0.0550606
0.0542311
0.0539135
0.0539922
0.0544537
0.0554026
0.0571189
0.060056
0.0655936
0.0804801
0.16973
)
;

boundaryField
{
    leftWall
    {
        type            epsilonWallFunction;
        value           nonuniform List<scalar> 
50
(
0.0112621
0.0188451
0.0313077
0.0456146
0.0608974
0.0761767
0.0913465
0.106916
0.127877
0.155043
0.177707
0.19006
0.19923
0.241551
0.320984
0.401704
0.463579
0.515407
0.549743
0.564848
0.560867
0.539182
0.50244
0.454255
0.396714
0.340354
0.28448
0.230111
0.17675
0.130355
0.0927994
0.0661536
0.0512397
0.0451007
0.0435517
0.0440723
0.0457365
0.0485019
0.052545
0.0581259
0.065598
0.0754787
0.0885629
0.106098
0.130142
0.164544
0.218236
0.31564
0.554358
1.59876
)
;
        Cmu             0.09;
        kappa           0.41;
        E               9.8;
        value           nonuniform List<scalar> 
50
(
0.0112621
0.0188451
0.0313077
0.0456146
0.0608974
0.0761767
0.0913465
0.106916
0.127877
0.155043
0.177707
0.19006
0.19923
0.241551
0.320984
0.401704
0.463579
0.515407
0.549743
0.564848
0.560867
0.539182
0.50244
0.454255
0.396714
0.340354
0.28448
0.230111
0.17675
0.130355
0.0927994
0.0661536
0.0512397
0.0451007
0.0435517
0.0440723
0.0457365
0.0485019
0.052545
0.0581259
0.065598
0.0754787
0.0885629
0.106098
0.130142
0.164544
0.218236
0.31564
0.554358
1.59876
)
;
    }
    rightWall
    {
        type            epsilonWallFunction;
        value           nonuniform List<scalar> 
50
(
0.0245755
0.0341235
0.0535465
0.0791718
0.108698
0.142244
0.177545
0.212178
0.271358
0.328507
0.352214
0.329278
0.275598
0.226843
0.190781
0.184485
0.211273
0.232964
0.204185
0.160416
0.113753
0.0839115
0.0888131
0.111222
0.137153
0.16174
0.180042
0.189836
0.193737
0.19686
0.201614
0.207302
0.211501
0.214234
0.215774
0.215938
0.214485
0.211861
0.208804
0.205488
0.200524
0.194368
0.190594
0.186747
0.182024
0.177519
0.173906
0.171566
0.170558
0.16973
)
;
        Cmu             0.09;
        kappa           0.41;
        E               9.8;
        value           nonuniform List<scalar> 
50
(
0.0245755
0.0341235
0.0535465
0.0791718
0.108698
0.142244
0.177545
0.212178
0.271358
0.328507
0.352214
0.329278
0.275598
0.226843
0.190781
0.184485
0.211273
0.232964
0.204185
0.160416
0.113753
0.0839115
0.0888131
0.111222
0.137153
0.16174
0.180042
0.189836
0.193737
0.19686
0.201614
0.207302
0.211501
0.214234
0.215774
0.215938
0.214485
0.211861
0.208804
0.205488
0.200524
0.194368
0.190594
0.186747
0.182024
0.177519
0.173906
0.171566
0.170558
0.16973
)
;
    }
    lowerWall
    {
        type            epsilonWallFunction;
        value           nonuniform List<scalar> 
62
(
0.0112621
0.0610067
0.114757
0.162923
0.20672
0.24828
0.288203
0.32627
0.361512
0.392523
0.417835
0.436176
0.446688
0.448862
0.442166
0.426867
0.403359
0.368783
0.320692
0.263213
0.197757
0.119531
0.0472793
0.0472793
0.0727748
0.127255
0.198375
0.283053
0.398362
0.580115
1.05538
2.31997
2.23244
2.35294
2.71713
0.136177
0.145917
0.188118
0.223888
0.300708
0.500522
1.14827
2.26804
0.136177
0.49006
1.01647
1.3057
1.32854
1.22389
1.06592
0.90076
0.752235
0.617774
0.477622
0.343678
0.242652
0.189147
0.167407
0.142786
0.107607
0.0688404
0.0245755
)
;
        Cmu             0.09;
        kappa           0.41;
        E               9.8;
        value           nonuniform List<scalar> 
62
(
0.0112621
0.0610067
0.114757
0.162923
0.20672
0.24828
0.288203
0.32627
0.361512
0.392523
0.417835
0.436176
0.446688
0.448862
0.442166
0.426867
0.403359
0.368783
0.320692
0.263213
0.197757
0.119531
0.0472793
0.0472793
0.0727748
0.127255
0.198375
0.283053
0.398362
0.580115
1.05538
2.31997
2.23244
2.35294
2.71713
0.136177
0.145917
0.188118
0.223888
0.300708
0.500522
1.14827
2.26804
0.136177
0.49006
1.01647
1.3057
1.32854
1.22389
1.06592
0.90076
0.752235
0.617774
0.477622
0.343678
0.242652
0.189147
0.167407
0.142786
0.107607
0.0688404
0.0245755
)
;
    }
    atmosphere
    {
        type            inletOutlet;
        inletValue      uniform 0.1;
        value           nonuniform List<scalar> 
46
(
0.1
0.1
0.1
0.1
0.1
0.1
0.1
0.1
0.1
0.1
0.1
0.1
0.1
0.1
0.1
0.1
0.1
0.1
0.1
0.1
0.1
0.1
0.1
0.1
0.1
0.1
0.1
0.1
0.1
0.1
0.1
0.1
0.0654602
0.0595876
0.0566572
0.0550606
0.0542311
0.0539135
0.0539922
0.0544537
0.0554026
0.0571189
0.060056
0.0655936
0.0804801
0.16973
)
;
    }
    defaultFaces
    {
        type            empty;
    }
}


// ************************************************************************* //
