/*--------------------------------*- C++ -*----------------------------------*\
| =========                 |                                                 |
| \\      /  F ield         | OpenFOAM: The Open Source CFD Toolbox           |
|  \\    /   O peration     | Version:  2.3.0                                 |
|   \\  /    A nd           | Web:      www.OpenFOAM.org                      |
|    \\/     M anipulation  |                                                 |
\*---------------------------------------------------------------------------*/
FoamFile
{
    version     2.0;
    format      ascii;
    class       volScalarField;
    location    "1.8";
    object      k;
}
// * * * * * * * * * * * * * * * * * * * * * * * * * * * * * * * * * * * * * //

dimensions      [0 2 -2 0 0 0 0];

internalField   nonuniform List<scalar> 
2268
(
0.00234083
0.00588204
0.00894779
0.011295
0.0132312
0.0149435
0.0164991
0.0179175
0.0191854
0.0202731
0.0211472
0.0217782
0.0221462
0.0222382
0.0220367
0.0215577
0.0207831
0.0196052
0.0178756
0.015664
0.0129602
0.0092597
0.00502132
0.00443936
0.0133389
0.0195741
0.0245209
0.028717
0.0324267
0.0357731
0.0387919
0.0414619
0.043732
0.0455455
0.046857
0.0476432
0.047903
0.0476401
0.0468279
0.0454474
0.0433966
0.0404259
0.0366818
0.0316208
0.0238417
0.0109811
0.0062225
0.0175227
0.0251645
0.0313388
0.0366255
0.0413116
0.0455362
0.0493418
0.0527054
0.0555688
0.057866
0.0595452
0.0605845
0.0609953
0.0608064
0.0600322
0.058679
0.0566476
0.0536805
0.0496099
0.0437309
0.0343273
0.0158777
0.00798573
0.020884
0.0294858
0.0364665
0.0424866
0.0478443
0.0526833
0.0570477
0.060912
0.0642116
0.0668724
0.0688368
0.0700854
0.0706441
0.0705712
0.069923
0.0687399
0.0669416
0.064259
0.060306
0.0541938
0.0438868
0.0213569
0.00966567
0.0239466
0.0333119
0.0409146
0.0475106
0.05341
0.0587576
0.0635963
0.067896
0.0715837
0.0745752
0.0768052
0.0782554
0.0789688
0.0790379
0.0785659
0.0776356
0.0761968
0.0739816
0.0704752
0.0646109
0.0538552
0.0271019
0.0112017
0.026845
0.0368814
0.045012
0.0521014
0.0584776
0.0642864
0.0695684
0.0742867
0.0783572
0.0816815
0.0841831
0.0858428
0.0867218
0.0869539
0.0866994
0.0860967
0.085141
0.0835866
0.080868
0.07579
0.0652139
0.0340699
0.0126231
0.0296227
0.0402872
0.0488976
0.0564366
0.0632575
0.0695096
0.0752313
0.0803774
0.084849
0.0885291
0.0913242
0.093211
0.0942693
0.0946819
0.0946829
0.0944855
0.0941492
0.0934771
0.0919295
0.0883232
0.0791327
0.0441118
0.0139981
0.0322967
0.0435669
0.0526361
0.0606046
0.0678585
0.074554
0.0807288
0.0863284
0.091236
0.0953103
0.0984344
0.100575
0.101828
0.102435
0.102726
0.103015
0.103449
0.103905
0.103946
0.10262
0.0969854
0.0664205
0.0102433
0.0237904
0.0386195
0.0456764
0.0463283
0.0439729
0.0401723
0.0358814
0.0317553
0.0278551
0.0235386
0.0189762
0.0150132
0.0125334
0.0114432
0.0103063
0.00855109
0.00633559
0.00400353
0.0189356
0.0515975
0.0794417
0.091669
0.0926011
0.0876824
0.0801974
0.0721521
0.0645839
0.0567575
0.0482174
0.0399444
0.0334456
0.0288705
0.0264501
0.0241098
0.0204019
0.0152509
0.00704131
0.0223748
0.0676689
0.0988996
0.112794
0.114396
0.109114
0.100576
0.0911377
0.0821457
0.0729107
0.0629277
0.0530869
0.0450724
0.039206
0.0355373
0.0323146
0.0277894
0.0213847
0.00954117
0.0250133
0.080974
0.113248
0.127832
0.129797
0.124389
0.115289
0.104949
0.0949299
0.084638
0.0736543
0.0628208
0.0538224
0.0472219
0.0427558
0.0388842
0.0337931
0.0266269
0.0124253
0.0303437
0.0943022
0.127025
0.1415
0.143256
0.137393
0.127634
0.116436
0.105458
0.0942075
0.0823575
0.0707538
0.0610471
0.0540491
0.0491306
0.0447809
0.0392551
0.0315056
0.0153542
0.0426235
0.110824
0.142411
0.155726
0.156476
0.149573
0.138769
0.126539
0.114532
0.102371
0.089791
0.0776221
0.0673969
0.0601559
0.0550139
0.0502985
0.044425
0.0361738
0.0183808
0.0744697
0.132833
0.160586
0.171353
0.17017
0.161522
0.149168
0.135641
0.122505
0.109501
0.0963895
0.0838803
0.073289
0.065799
0.0605236
0.0554994
0.0493385
0.040658
0.0212759
0.117423
0.160101
0.181527
0.188437
0.184482
0.173385
0.158973
0.143895
0.129617
0.115887
0.102414
0.0897388
0.0789556
0.0712423
0.0657389
0.0603749
0.0539476
0.0449186
0.023947
0.0157418
0.0360399
0.0482929
0.0581087
0.0667712
0.0747298
0.0821565
0.089092
0.0954683
0.101138
0.105913
0.109631
0.112232
0.113836
0.114785
0.115605
0.116787
0.118673
0.121293
0.12446
0.127825
0.130475
0.126618
0.0178422
0.0404956
0.0540927
0.0650182
0.0747163
0.0837349
0.0922725
0.100401
0.108054
0.115046
0.121099
0.12594
0.129417
0.131617
0.132999
0.134552
0.137265
0.141733
0.148228
0.156878
0.168069
0.182498
0.199939
0.0194404
0.0437054
0.058825
0.0711847
0.0821642
0.0924294
0.102196
0.111643
0.120782
0.12944
0.137215
0.143681
0.148521
0.15164
0.15332
0.155384
0.159851
0.167768
0.17945
0.194891
0.214606
0.238888
0.265386
0.0202579
0.0445784
0.0618034
0.0762508
0.0888903
0.100629
0.111667
0.122383
0.133034
0.143673
0.15366
0.162321
0.169372
0.174601
0.176326
0.178103
0.184514
0.197018
0.215469
0.238751
0.267643
0.30229
0.33723
0.0210677
0.0451117
0.0635949
0.0798647
0.0942347
0.107489
0.119888
0.131423
0.142429
0.153245
0.163138
0.171497
0.179121
0.185413
0.192497
0.198696
0.209707
0.229342
0.257295
0.289096
0.328955
0.379179
0.424551
0.0241182
0.0492758
0.0672452
0.0840892
0.0992951
0.113006
0.125281
0.136107
0.145984
0.15518
0.163059
0.169766
0.176757
0.185568
0.197791
0.212014
0.233689
0.267406
0.297989
0.324577
0.365069
0.412027
0.433235
0.0290246
0.0573367
0.0757966
0.0910765
0.104921
0.117706
0.129293
0.139467
0.148329
0.156211
0.16302
0.169327
0.176185
0.18505
0.197552
0.214753
0.239394
0.275023
0.305274
0.325358
0.351405
0.371372
0.373293
0.0335887
0.0668075
0.0853065
0.0998473
0.112164
0.123293
0.133379
0.142549
0.150831
0.158246
0.164698
0.170168
0.176177
0.184548
0.196614
0.213531
0.235891
0.264098
0.290951
0.310713
0.328333
0.336701
0.334728
0.0368466
0.0727227
0.091401
0.105629
0.117598
0.127989
0.137146
0.145359
0.152828
0.159459
0.164973
0.169825
0.175575
0.183646
0.194796
0.209671
0.227825
0.2487
0.270455
0.289885
0.305441
0.310793
0.308661
0.0395647
0.0763639
0.0947245
0.108444
0.119948
0.129767
0.138185
0.145508
0.152008
0.157775
0.162933
0.168132
0.174247
0.18209
0.19215
0.204616
0.219341
0.235836
0.252861
0.269187
0.282938
0.289328
0.290744
0.0413338
0.0788555
0.0965919
0.109291
0.119835
0.128834
0.136514
0.14314
0.149018
0.154416
0.159664
0.165283
0.171812
0.179724
0.189231
0.200292
0.2127
0.225809
0.238864
0.251931
0.263675
0.271296
0.275024
0.0421237
0.0801362
0.0972078
0.108834
0.118238
0.126248
0.133164
0.139245
0.144794
0.150125
0.155585
0.161573
0.168454
0.176472
0.185619
0.195689
0.206352
0.217017
0.227271
0.23767
0.247687
0.255746
0.261022
0.0419712
0.0801148
0.0965791
0.107282
0.115673
0.122785
0.129031
0.134692
0.140049
0.145392
0.151015
0.157207
0.164194
0.172055
0.180679
0.189803
0.199081
0.208098
0.216684
0.225285
0.233759
0.241194
0.246567
0.0409374
0.0787411
0.094667
0.104682
0.112322
0.118759
0.124497
0.129839
0.135042
0.140344
0.145972
0.152118
0.158911
0.166334
0.174255
0.182437
0.190599
0.198473
0.205985
0.213385
0.2205
0.226705
0.231088
0.0391177
0.0760518
0.0914767
0.101028
0.108193
0.114196
0.119592
0.124697
0.129742
0.134918
0.140386
0.146273
0.152651
0.159468
0.166609
0.173895
0.181127
0.188127
0.194814
0.201214
0.207112
0.211951
0.215044
0.0366393
0.0721648
0.0870867
0.0963437
0.103255
0.109026
0.114223
0.119162
0.12405
0.129041
0.134251
0.139765
0.145628
0.151798
0.158181
0.164656
0.171085
0.177328
0.183268
0.188782
0.193602
0.197257
0.199262
0.0335484
0.0672394
0.081639
0.0907109
0.0975206
0.103204
0.10831
0.113145
0.117898
0.122697
0.127629
0.132753
0.138102
0.143678
0.149391
0.155164
0.160893
0.166457
0.171709
0.176456
0.180413
0.183217
0.184538
0.0303568
0.06144
0.0753165
0.0842623
0.0910583
0.0967434
0.101835
0.106622
0.111279
0.115915
0.120604
0.125393
0.13031
0.135369
0.140531
0.145723
0.150863
0.155838
0.160496
0.164631
0.167985
0.170282
0.171311
0.0269875
0.0551305
0.0683195
0.0771647
0.0839887
0.0897248
0.0948499
0.0996335
0.104236
0.108758
0.113262
0.117793
0.122378
0.127029
0.131748
0.136481
0.141146
0.145644
0.149831
0.15352
0.156496
0.158553
0.15954
0.023481
0.0485704
0.0609117
0.0696203
0.0764817
0.0822874
0.0874704
0.0922791
0.0968623
0.101313
0.105692
0.110039
0.114382
0.118738
0.123107
0.127474
0.131772
0.135899
0.139733
0.143117
0.145877
0.147851
0.148913
0.0197621
0.0418348
0.0533915
0.0618645
0.0687577
0.0746289
0.0798722
0.0847166
0.0892997
0.0937094
0.0980038
0.102223
0.106394
0.110534
0.114647
0.11872
0.122715
0.12656
0.130133
0.133309
0.135947
0.137914
0.1391
0.0161755
0.0349025
0.0459069
0.0542206
0.0610837
0.0669975
0.0722843
0.0771576
0.0817421
0.0861217
0.0903531
0.0944753
0.0985158
0.102491
0.106407
0.110254
0.114002
0.117599
0.12097
0.123997
0.126561
0.128552
0.12987
0.0129325
0.0286156
0.0390011
0.0470547
0.053791
0.0596872
0.0649805
0.0698632
0.0744316
0.0787726
0.0829413
0.0869755
0.0909015
0.0947363
0.0984862
0.102145
0.105691
0.109085
0.112269
0.11516
0.117667
0.119685
0.121132
0.0103311
0.0238531
0.0333091
0.0408964
0.0473731
0.0531163
0.0583248
0.0631366
0.067645
0.0719187
0.076006
0.0799413
0.0837493
0.0874462
0.0910393
0.0945255
0.0978891
0.1011
0.104115
0.106874
0.109308
0.111347
0.11291
0.0086935
0.0207924
0.0291992
0.0361265
0.0421794
0.047633
0.0526467
0.0573091
0.0616905
0.0658434
0.069807
0.0736107
0.077276
0.0808179
0.0842442
0.0875542
0.0907376
0.0937732
0.0966285
0.0992602
0.101617
0.103646
0.105293
0.0079532
0.019091
0.0265873
0.0328289
0.0383783
0.0434548
0.0481783
0.0526099
0.0567936
0.060766
0.0645562
0.0681872
0.0716768
0.0750382
0.0782788
0.0814
0.0843956
0.0872513
0.0899442
0.0924436
0.0947121
0.0967089
0.0983936
0.00774894
0.0182954
0.025148
0.0308276
0.0359091
0.040596
0.0449914
0.04914
0.0530726
0.0568144
0.0603865
0.0638061
0.0670874
0.0702413
0.073275
0.076191
0.0789864
0.0816522
0.0841732
0.0865278
0.0886897
0.0906286
0.092314
0.00780863
0.0180904
0.0245631
0.0298553
0.0345727
0.0389248
0.0430061
0.0468622
0.050522
0.0540065
0.0573323
0.0605136
0.0635622
0.0664877
0.0692968
0.0719931
0.0745762
0.0770412
0.0793783
0.0815735
0.0836082
0.0854609
0.0871086
0.00801277
0.0183061
0.0246144
0.029681
0.0341509
0.0382435
0.042058
0.0456471
0.0490433
0.0522689
0.0553411
0.0582738
0.0610785
0.0637645
0.0663393
0.0688072
0.0711699
0.0734256
0.075569
0.0775912
0.0794799
0.08122
0.0827942
0.0083447
0.0188654
0.0251684
0.0301382
0.0344612
0.0383714
0.0419774
0.0453403
0.0484993
0.051482
0.0543092
0.056997
0.0595588
0.0620051
0.0643443
0.0665822
0.0687224
0.0707654
0.0727093
0.0745491
0.076277
0.0778828
0.0793538
0.00881472
0.0197592
0.0261775
0.0311467
0.0354007
0.0391909
0.0426378
0.0458123
0.0487626
0.0515233
0.0541208
0.0565753
0.0589029
0.0611163
0.0632255
0.065238
0.0671588
0.0689906
0.070734
0.0723868
0.0739445
0.0754005
0.0767457
0.00943904
0.0210095
0.0276499
0.0326944
0.0369354
0.0406475
0.0439671
0.0469783
0.0497396
0.0522946
0.0546761
0.0569092
0.0590134
0.0610037
0.0628918
0.0646869
0.0663952
0.0680212
0.069567
0.0710327
0.0724161
0.0737129
0.0749166
0.0102392
0.0226611
0.0296309
0.0348147
0.0390801
0.0427356
0.0459403
0.048796
0.051375
0.0537308
0.0559033
0.0579227
0.0598118
0.0615879
0.0632642
0.0648508
0.0663552
0.0677827
0.0691366
0.0704183
0.0716272
0.0727605
0.0738132
0.011247
0.0247849
0.0321981
0.0375751
0.0418842
0.0454835
0.0485657
0.0512565
0.0536453
0.055797
0.0577591
0.0595664
0.0612445
0.0628124
0.0642842
0.0656705
0.0669793
0.0682164
0.0693855
0.0704886
0.0715259
0.0724952
0.0733924
0.012512
0.0274848
0.0354621
0.0410716
0.0454207
0.0489404
0.0518714
0.054371
0.0565486
0.0584814
0.060224
0.0618151
0.063282
0.0646446
0.065917
0.0671097
0.0682305
0.0692849
0.0702767
0.0712079
0.0720785
0.0728866
0.0736277
0.0141096
0.0309087
0.0395706
0.0454238
0.0497754
0.0531633
0.0558926
0.0581593
0.0600944
0.0617865
0.0632957
0.0646629
0.0659158
0.0670737
0.0681502
0.0691547
0.0700943
0.0709737
0.0717961
0.0725629
0.0732738
0.073926
0.0745143
0.0161603
0.0352732
0.0447182
0.0507715
0.055037
0.0582043
0.0606597
0.0626402
0.0642958
0.065723
0.0669839
0.068119
0.0691548
0.0701088
0.0709925
0.0718142
0.0725792
0.0732913
0.0739527
0.0745639
0.0751237
0.0756285
0.0760711
0.0188834
0.0409172
0.051165
0.0572679
0.0612818
0.0640976
0.0661883
0.0678239
0.069164
0.0703052
0.0713068
0.0722053
0.0730236
0.0737761
0.0744719
0.0751169
0.0757149
0.0762684
0.0767782
0.0772442
0.077664
0.078033
0.0783424
0.0227762
0.048406
0.0592508
0.0650541
0.0685468
0.0708415
0.0724702
0.0737087
0.0747076
0.0755522
0.0762919
0.076956
0.0775617
0.0781191
0.0786345
0.0791114
0.079552
0.079957
0.0803267
0.0806597
0.0809534
0.0812022
0.0813963
0.0291036
0.0587677
0.0693509
0.0741807
0.0767819
0.0783781
0.0794687
0.0802833
0.080937
0.0814912
0.0819794
0.0824206
0.0828254
0.0831995
0.083546
0.0838665
0.0841613
0.0844306
0.0846734
0.0848885
0.0850728
0.0852211
0.0853238
0.0423581
0.0737063
0.0815954
0.0844213
0.0857802
0.0865812
0.0871262
0.0875385
0.0878757
0.0881674
0.0884292
0.0886694
0.0888924
0.0891001
0.0892934
0.0894721
0.0896359
0.0897842
0.0899162
0.0900305
0.0901249
0.0901956
0.0902355
0.0862115
0.0941203
0.0947562
0.0949842
0.0951503
0.0952845
0.0953962
0.0954922
0.095578
0.0956568
0.0957306
0.0958005
0.0958668
0.0959294
0.095988
0.0960424
0.096092
0.0961366
0.0961757
0.0962087
0.0962348
0.0962528
0.09626
0.112916
0.110017
0.113786
0.124856
0.212997
0.22202
0.230925
0.239695
0.282761
0.293631
0.302611
0.309418
0.356836
0.367788
0.375398
0.379642
0.440506
0.445637
0.444587
0.435627
0.43097
0.420602
0.40765
0.392875
0.365715
0.358557
0.350183
0.340855
0.325656
0.318927
0.311771
0.30435
0.299935
0.293793
0.28748
0.281233
0.283874
0.278413
0.272865
0.26744
0.273756
0.270013
0.264896
0.259961
0.262243
0.261132
0.257657
0.252976
0.248166
0.247585
0.245185
0.241348
0.232207
0.231791
0.230074
0.226862
0.215499
0.214997
0.213578
0.211002
0.199235
0.198646
0.197361
0.19534
0.184271
0.183674
0.182613
0.181079
0.171052
0.170557
0.169722
0.16855
0.159414
0.159066
0.158449
0.157573
0.148967
0.148775
0.14836
0.147735
0.139343
0.139304
0.139077
0.138674
0.130299
0.130409
0.130357
0.130156
0.121738
0.121987
0.122099
0.122082
0.113673
0.114049
0.114308
0.114456
0.106187
0.106669
0.107052
0.10734
0.0993803
0.0999432
0.100423
0.100822
0.0933492
0.0939626
0.094509
0.0949876
0.0881554
0.08879
0.0893704
0.0898962
0.0838191
0.0844502
0.085037
0.0855791
0.0803282
0.0809345
0.0815047
0.0820382
0.0776471
0.0782116
0.0787464
0.0792508
0.0757285
0.0762384
0.0767234
0.0771827
0.0745242
0.0749706
0.0753953
0.0757976
0.0739954
0.0743722
0.0747293
0.0750659
0.0741191
0.0744231
0.074708
0.0749729
0.0748941
0.0751244
0.0753352
0.0755251
0.0763434
0.076502
0.0766399
0.076755
0.078516
0.0786089
0.0786794
0.0787243
0.0814866
0.0815249
0.0815393
0.081526
0.0853533
0.0853535
0.085331
0.0852809
0.0902323
0.0902162
0.0901829
0.0901278
0.0962536
0.0962442
0.0962284
0.0962042
0.169211
0.199486
0.212436
0.213994
0.205848
0.190629
0.172836
0.155513
0.139667
0.125018
0.111156
0.0984038
0.0876014
0.0796719
0.0736208
0.0675393
0.0606347
0.0512894
0.0281878
0.253065
0.259617
0.258501
0.252607
0.237044
0.212632
0.188653
0.168057
0.150413
0.134864
0.120655
0.107888
0.097354
0.089666
0.0832223
0.075658
0.0671021
0.0570515
0.0319067
0.316445
0.311178
0.299653
0.291502
0.267708
0.2297
0.200133
0.177261
0.158588
0.142631
0.128401
0.115826
0.105772
0.0988616
0.0924427
0.0826331
0.0706646
0.0583955
0.033437
0.378004
0.355991
0.327672
0.301932
0.274054
0.238704
0.206978
0.183084
0.164152
0.148273
0.13428
0.12179
0.111684
0.104703
0.0973313
0.0856672
0.0711843
0.0567735
0.0320875
0.408835
0.362777
0.323748
0.297914
0.272542
0.239617
0.209858
0.18569
0.167405
0.152278
0.138909
0.126448
0.11553
0.106608
0.0975973
0.0851944
0.069194
0.0529892
0.028596
0.368154
0.331103
0.300115
0.276852
0.256163
0.2316
0.2054
0.184495
0.168648
0.155255
0.143247
0.13192
0.120436
0.109052
0.0983937
0.0852895
0.0672266
0.0479902
0.0251885
0.32489
0.298899
0.274545
0.253767
0.235124
0.216109
0.197065
0.180689
0.167363
0.155817
0.144754
0.134491
0.126198
0.112864
0.100835
0.0877327
0.0682124
0.045891
0.0223974
0.292414
0.272957
0.252708
0.234385
0.217694
0.201939
0.187294
0.174438
0.163231
0.152782
0.142618
0.132908
0.125104
0.113924
0.101269
0.089002
0.0729719
0.0490272
0.0216944
0.271573
0.255358
0.236484
0.219625
0.204242
0.189947
0.177401
0.166482
0.156557
0.146947
0.137654
0.129052
0.121144
0.111782
0.100142
0.0878909
0.0742825
0.0529655
0.0233734
0.258907
0.242353
0.223085
0.206316
0.191825
0.179007
0.167804
0.157829
0.148568
0.139511
0.131157
0.124305
0.118553
0.110504
0.0988649
0.0859481
0.0724819
0.0544664
0.0250398
0.250714
0.231907
0.212987
0.196383
0.18202
0.169596
0.158619
0.148685
0.139654
0.131349
0.124224
0.118704
0.113991
0.106362
0.0948986
0.0817669
0.0688394
0.051821
0.0232865
0.242638
0.223438
0.204944
0.188678
0.174466
0.161924
0.150692
0.140662
0.131802
0.12397
0.117263
0.111741
0.106448
0.0985403
0.0874191
0.0749299
0.0623878
0.0460244
0.020057
0.232236
0.214704
0.197564
0.18216
0.168447
0.156107
0.144926
0.134935
0.126154
0.118238
0.110911
0.104142
0.0973477
0.0888533
0.0781133
0.0663925
0.0542118
0.0387922
0.0160683
0.219229
0.204608
0.189724
0.175862
0.16319
0.15158
0.140928
0.131239
0.122556
0.114302
0.105976
0.0976429
0.0892007
0.0799226
0.0694574
0.0584046
0.0467521
0.0326203
0.0129835
0.205007
0.193474
0.181215
0.169321
0.158095
0.147596
0.137843
0.128782
0.120383
0.11198
0.102985
0.0936243
0.0840601
0.0741541
0.0638249
0.0533158
0.0425197
0.0300072
0.0132096
0.190867
0.182117
0.17239
0.162533
0.152896
0.143659
0.134967
0.126795
0.118897
0.110639
0.101581
0.0920416
0.0822843
0.0724221
0.0624798
0.0525382
0.0425516
0.0313381
0.0153067
0.177778
0.171245
0.163681
0.155679
0.147564
0.13957
0.131915
0.124646
0.117382
0.10953
0.100921
0.0918419
0.0825981
0.0733922
0.0642786
0.0551819
0.0458754
0.0351663
0.0176211
0.166086
0.161204
0.155353
0.148915
0.142154
0.135298
0.128573
0.122049
0.115393
0.108137
0.100229
0.0918953
0.0834346
0.0750779
0.0669096
0.0588011
0.0502962
0.0397893
0.0196851
0.155715
0.152018
0.14748
0.142313
0.13671
0.130863
0.12496
0.119057
0.112939
0.106318
0.0991475
0.0915992
0.0839329
0.0763679
0.0689975
0.0616869
0.0538519
0.0433339
0.0211359
0.14637
0.143555
0.140018
0.135879
0.131258
0.126296
0.121133
0.115809
0.110215
0.104192
0.0977044
0.0908838
0.0839375
0.0770505
0.0702933
0.0634923
0.0559194
0.0452366
0.0218935
0.137731
0.135645
0.132907
0.129603
0.125815
0.121637
0.11716
0.112416
0.107354
0.101898
0.0960422
0.0898864
0.0835903
0.0772935
0.0710236
0.0645545
0.05707
0.0462114
0.0222327
0.129588
0.128128
0.126079
0.123497
0.120437
0.116954
0.113114
0.108944
0.104425
0.0995299
0.0942754
0.0887423
0.0830485
0.0772865
0.0714346
0.0652199
0.0578063
0.0468844
0.0225164
0.121854
0.120945
0.119497
0.117547
0.115129
0.112283
0.109048
0.105447
0.101476
0.097138
0.0924673
0.0875272
0.0824003
0.0771348
0.0716609
0.0656811
0.0583782
0.0475221
0.0229155
0.114529
0.114104
0.113185
0.111792
0.109947
0.107675
0.105004
0.101952
0.0985285
0.0947482
0.090644
0.0862679
0.0816742
0.0768749
0.0717679
0.0660245
0.0588457
0.0480464
0.0233731
0.107671
0.107659
0.107197
0.106293
0.104956
0.103203
0.101051
0.0985177
0.0956186
0.0923726
0.0888095
0.084967
0.080873
0.0765079
0.0717412
0.0662291
0.059189
0.0484684
0.0237063
0.101361
0.101687
0.101608
0.10112
0.100225
0.0989304
0.0972487
0.0951943
0.0927835
0.0900355
0.0869741
0.0836221
0.0799846
0.0760152
0.071562
0.0662735
0.0593773
0.048742
0.0239266
0.0956779
0.0962642
0.0964885
0.0963418
0.0958183
0.094919
0.0936507
0.0920248
0.0900551
0.0877577
0.0851485
0.0822362
0.0790061
0.0753907
0.0712219
0.0661439
0.0593882
0.0488289
0.0240542
0.0906834
0.0914505
0.0918998
0.0920173
0.0917921
0.0912198
0.0903022
0.0890462
0.0874618
0.0855594
0.0833462
0.0808178
0.077943
0.0746376
0.0707215
0.0658355
0.0592151
0.0487268
0.0240756
0.0864115
0.0872852
0.0878837
0.0881898
0.0881892
0.0878732
0.0872392
0.0862894
0.0850284
0.0834601
0.0815827
0.07938
0.0768069
0.0737664
0.0700695
0.065355
0.0588656
0.0484669
0.0239754
0.0828698
0.0837837
0.0844617
0.084885
0.0850375
0.0849074
0.0844885
0.0837783
0.082776
0.0814783
0.0798749
0.077939
0.0756144
0.0727941
0.0692824
0.0647179
0.0583511
0.0480742
0.0237877
0.0800437
0.0809414
0.0816372
0.0821126
0.0823507
0.0823385
0.0820671
0.08153
0.080721
0.0796304
0.0782397
0.0765132
0.0743857
0.0717425
0.0683841
0.0639497
0.0576976
0.0475505
0.0235668
0.0779077
0.0787414
0.0794015
0.0798702
0.0801316
0.080173
0.0799838
0.079555
0.0788757
0.0779305
0.0766936
0.0751217
0.0731427
0.0706365
0.0674014
0.0630785
0.0569303
0.046898
0.0233251
0.0764325
0.0771626
0.0777404
0.0781498
0.078377
0.0784108
0.0782417
0.077859
0.0772488
0.0763903
0.0752518
0.0737837
0.0719083
0.0695017
0.0663616
0.0621318
0.0560808
0.0461598
0.0229564
0.0755936
0.0761879
0.0766427
0.0769441
0.0770819
0.0770496
0.0768404
0.0764445
0.0758458
0.0750194
0.0739284
0.0725178
0.0707052
0.0683642
0.0652922
0.0611366
0.0551774
0.0453941
0.0224873
0.075381
0.0758129
0.0761071
0.0762529
0.0762458
0.0760875
0.0757782
0.0753114
0.07467
0.0738256
0.0727363
0.0713421
0.0695567
0.0672516
0.0642241
0.0601252
0.0542481
0.0446264
0.0221985
0.0758057
0.0760538
0.076151
0.0760906
0.0758768
0.0755265
0.0750536
0.0744579
0.0737224
0.0728147
0.071687
0.0702742
0.0684861
0.0661924
0.063191
0.0591349
0.0533242
0.0438366
0.0219103
0.0769056
0.0769541
0.0768192
0.0764942
0.0759963
0.0753729
0.0746639
0.0738793
0.073001
0.0719899
0.0707905
0.0693309
0.0675165
0.0652155
0.0622264
0.0582019
0.0524399
0.0430396
0.0215478
0.0787511
0.0785955
0.0781986
0.0775364
0.0766454
0.0756367
0.0746018
0.073564
0.0724977
0.0713505
0.0700545
0.0685281
0.0666714
0.0643507
0.0613652
0.0573656
0.0516392
0.0422979
0.0211982
0.0814486
0.0811079
0.0804363
0.0793524
0.077898
0.0763264
0.0748465
0.0734872
0.0721951
0.0708897
0.0694828
0.0678797
0.0659734
0.0636286
0.0606459
0.0566723
0.0509762
0.0416774
0.0209169
0.0851398
0.0846793
0.0837773
0.0822075
0.0799105
0.077441
0.0753471
0.0736004
0.0720605
0.0705915
0.0690734
0.0673949
0.0654413
0.0630765
0.0601049
0.0561675
0.0505004
0.0412236
0.0207353
0.0899879
0.0895497
0.0886117
0.0866785
0.0831603
0.0789484
0.0759901
0.0738157
0.0720404
0.070428
0.0688167
0.0670765
0.0650861
0.0627115
0.0597643
0.0558713
0.0502202
0.0409447
0.0206562
0.0961442
0.0959476
0.0954426
0.0940064
0.0897359
0.0806384
0.076533
0.0739932
0.0720589
0.0703596
0.0686941
0.0669188
0.0649087
0.0625333
0.0596141
0.0557281
0.0500207
0.0406792
0.0205712
)
;

boundaryField
{
    leftWall
    {
        type            kqRWallFunction;
        value           nonuniform List<scalar> 
50
(
0.00234083
0.00443936
0.0062225
0.00798573
0.00966567
0.0112017
0.0126231
0.0139981
0.0157418
0.0178422
0.0194404
0.0202579
0.0210677
0.0241182
0.0290246
0.0335887
0.0368466
0.0395647
0.0413338
0.0421237
0.0419712
0.0409374
0.0391177
0.0366393
0.0335484
0.0303568
0.0269875
0.023481
0.0197621
0.0161755
0.0129325
0.0103311
0.0086935
0.0079532
0.00774894
0.00780863
0.00801277
0.0083447
0.00881472
0.00943904
0.0102392
0.011247
0.012512
0.0141096
0.0161603
0.0188834
0.0227762
0.0291036
0.0423581
0.0862115
)
;
    }
    rightWall
    {
        type            kqRWallFunction;
        value           nonuniform List<scalar> 
50
(
0.00400353
0.00704131
0.00954117
0.0124253
0.0153542
0.0183808
0.0212759
0.023947
0.0281878
0.0319067
0.033437
0.0320875
0.028596
0.0251885
0.0223974
0.0216944
0.0233734
0.0250398
0.0232865
0.020057
0.0160683
0.0129835
0.0132096
0.0153067
0.0176211
0.0196851
0.0211359
0.0218935
0.0222327
0.0225164
0.0229155
0.0233731
0.0237063
0.0239266
0.0240542
0.0240756
0.0239754
0.0237877
0.0235668
0.0233251
0.0229564
0.0224873
0.0221985
0.0219103
0.0215478
0.0211982
0.0209169
0.0207353
0.0206562
0.0205712
)
;
    }
    lowerWall
    {
        type            kqRWallFunction;
        value           nonuniform List<scalar> 
62
(
0.00234083
0.00588204
0.00894779
0.011295
0.0132312
0.0149435
0.0164991
0.0179175
0.0191854
0.0202731
0.0211472
0.0217782
0.0221462
0.0222382
0.0220367
0.0215577
0.0207831
0.0196052
0.0178756
0.015664
0.0129602
0.0092597
0.00502132
0.00502132
0.0109811
0.0158777
0.0213569
0.0271019
0.0340699
0.0441118
0.0664205
0.112916
0.110017
0.113786
0.124856
0.0102433
0.0189356
0.0223748
0.0250133
0.0303437
0.0426235
0.0744697
0.117423
0.0102433
0.0237904
0.0386195
0.0456764
0.0463283
0.0439729
0.0401723
0.0358814
0.0317553
0.0278551
0.0235386
0.0189762
0.0150132
0.0125334
0.0114432
0.0103063
0.00855109
0.00633559
0.00400353
)
;
    }
    atmosphere
    {
        type            inletOutlet;
        inletValue      uniform 0.1;
        value           nonuniform List<scalar> 
46
(
0.1
0.1
0.1
0.1
0.1
0.1
0.1
0.1
0.1
0.1
0.1
0.1
0.1
0.1
0.1
0.1
0.1
0.1
0.1
0.1
0.1
0.1
0.1
0.1
0.1
0.1
0.1
0.1
0.1
0.1
0.1
0.1
0.0806384
0.076533
0.0739932
0.0720589
0.0703596
0.0686941
0.0669188
0.0649087
0.0625333
0.0596141
0.0557281
0.0500207
0.0406792
0.0205712
)
;
    }
    defaultFaces
    {
        type            empty;
    }
}


// ************************************************************************* //
