/*--------------------------------*- C++ -*----------------------------------*\
| =========                 |                                                 |
| \\      /  F ield         | OpenFOAM: The Open Source CFD Toolbox           |
|  \\    /   O peration     | Version:  2.3.0                                 |
|   \\  /    A nd           | Web:      www.OpenFOAM.org                      |
|    \\/     M anipulation  |                                                 |
\*---------------------------------------------------------------------------*/
FoamFile
{
    version     2.0;
    format      ascii;
    class       volScalarField;
    location    "1.8";
    object      p_rgh;
}
// * * * * * * * * * * * * * * * * * * * * * * * * * * * * * * * * * * * * * //

dimensions      [1 -1 -2 0 0 0 0];

internalField   nonuniform List<scalar> 
2268
(
757.062
757.669
759.032
760.281
761.172
761.782
762.292
762.907
763.835
765.262
767.336
770.154
773.762
778.175
783.414
789.517
796.556
804.563
812.481
821.263
830.018
837.184
843.261
757.021
757.277
758.362
759.509
760.396
761.033
761.557
762.158
763.047
764.427
766.469
769.292
772.964
777.519
782.992
789.481
797.043
805.856
814.017
823.713
831.886
837.384
842.768
756.89
757.229
757.944
758.837
759.608
760.185
760.653
761.181
761.983
763.279
765.266
768.093
771.852
776.597
782.381
789.31
797.482
807.106
816.1
825.505
832.732
838.267
843.635
756.652
757.341
757.884
758.523
759.108
759.536
759.859
760.24
760.896
762.066
763.973
766.788
770.621
775.533
781.579
788.853
797.462
807.532
818.895
826.155
834.49
839.918
847.163
756.318
757.392
757.99
758.474
758.876
759.11
759.226
759.396
759.849
760.847
762.639
765.419
769.305
774.345
780.583
788.094
796.96
807.187
818.814
829.327
837.032
842.058
851.024
755.913
757.325
758.125
758.566
758.815
758.84
758.703
758.602
758.79
759.558
761.195
763.913
767.833
772.977
779.363
787.045
796.066
806.34
817.691
828.394
836.238
844.209
855.669
755.449
757.165
758.247
758.73
758.863
758.673
758.245
757.819
757.678
758.156
759.592
762.228
766.176
771.41
777.91
785.713
794.836
805.113
816.234
826.715
834.742
845.359
859.901
754.923
756.895
758.28
758.874
758.924
758.528
757.801
757.026
756.518
756.67
757.887
760.448
764.441
769.755
776.304
784.124
793.244
803.404
814.232
824.368
832.099
841.79
859.032
705.131
711.627
739.768
766.801
775.303
770.523
760.358
750.689
744.807
742.585
743.729
747.603
749.344
743.326
738.522
736.575
736.784
741.29
745.65
703.723
703.63
724.482
748.184
757.241
754.534
751.203
747.352
743.67
742.591
744.913
751.048
755.134
747.194
740.304
737.746
736.797
738.317
745.476
700.76
692.479
714.02
736.995
743.948
743.346
738.126
739.573
743.648
743.871
746.835
753.918
758.935
757.692
741.489
738.502
736.807
740.37
745.744
697.857
693.827
723.712
744.16
752.706
742.233
734.154
729.739
740.982
744.655
747.297
753.656
759.04
760.142
750.726
742.332
735.814
742.776
746.578
696.033
704.365
725.492
740.597
749.146
754.951
751.3
705.026
704.631
704.942
690.472
686.893
706.834
750.702
752.15
749.147
746.465
744.216
747.42
686.146
708.423
728.813
739.299
746.032
752.6
760.38
701.596
649.537
650.224
654.07
658.44
659.566
661.002
737.802
749.719
746.057
743.117
748.064
688.894
717.224
733.663
738.915
744.058
751.88
763.038
707.2
646.598
649.396
652.861
655.42
655.221
649.488
726.554
749.875
743.849
741.087
748.012
682.1
724.25
737.897
739.373
742.653
752.234
767.047
738.123
653.374
650.077
652.178
652.611
651.445
668.877
756.379
749.992
740.859
737.379
746.497
753.962
756.257
758.181
759.085
759.063
758.346
757.118
755.752
754.622
754.223
755.102
757.591
761.723
767.184
773.74
781.432
790.323
799.926
809.986
819.194
823.457
823.235
822.161
722.363
731.876
741.931
746.14
746.31
742.765
735.754
726.986
718.149
710.963
709.795
714.129
725.022
740.868
758.721
775.138
786.915
796.325
805.24
812.871
817.173
791.684
762.65
241.589
264.268
297.439
313.875
310.136
294.432
269.75
245.738
226.098
213.057
211.433
218.29
238.717
273.048
323.724
397.705
495.135
598.046
684.454
743.303
759.871
764.438
756.26
6.6558
5.35239
4.58086
4.40288
4.21897
4.17128
4.16457
4.33606
4.75521
5.34906
5.55344
5.21115
3.98336
2.03001
1.07845
0.810978
0.711891
10.7813
40.1663
81.625
130.704
212.323
210.9
10.9055
8.97484
10.6237
20.5942
21.8482
21.9741
11.7428
9.9449
12.6176
19.7376
20.2532
19.8298
11.464
1.66735
1.1813
1.05608
0.963755
0.892669
0.870469
0.705366
0.630983
1.52074
4.23253
0.206663
2.10888
2.73773
0.21011
2.4127
7.09908
16.5728
18.2441
18.9131
19.7316
20.2703
20.1473
18.1379
3.35055
1.25226
2.84278
2.35428
1.06116
1.39094
4.28886
4.85444
2.80564
3.91225
0.170874
0.159723
0.154191
0.158124
0.141174
0.1109
0.0608714
0.192892
0.565946
5.01074
9.48726
7.21563
3.04854
2.94767
3.16706
3.2865
3.33307
1.21066
1.66259
5.5131
5.92989
3.76414
6.1653
0.148088
0.142961
0.143462
0.144987
0.134952
0.122504
0.109588
0.0961917
0.0831643
0.0630781
0.0846846
0.578851
3.01401
3.15125
3.23838
2.4735
1.82249
0.731391
0.735803
2.247
3.94184
1.92565
16.9487
0.132811
0.128427
0.135305
0.134031
0.122573
0.11374
0.125026
0.120046
0.0774838
0.0719821
0.252464
0.867713
1.85473
1.99998
0.902255
0.319812
0.305796
0.400922
0.596484
1.83312
1.50084
0.720038
4.8446
0.123118
0.117401
0.118244
0.117525
0.109225
0.106984
0.121025
0.111614
0.0699542
0.0515128
0.0405991
0.0301046
0.0418961
0.0800725
0.106615
0.153768
0.198192
0.258393
1.15421
1.78124
1.54285
0.366249
0.107405
0.117896
0.108892
0.102353
0.0976726
0.0918499
0.0840668
0.0743542
0.0652809
0.0570399
0.0486768
0.041151
0.0367544
0.0403039
0.059097
0.0885848
0.117543
0.139594
0.164345
0.71295
1.17662
1.1828
0.356776
-0.0646147
0.115064
0.104158
0.095228
0.0891878
0.0834994
0.0768752
0.0694685
0.062092
0.0552536
0.0491162
0.0445783
0.04294
0.0468676
0.0595072
0.077486
0.0934346
0.101941
0.102974
0.084177
0.0565555
0.0797259
0.139243
-0.11064
0.112902
0.100813
0.090338
0.0834253
0.0778255
0.0721149
0.0661156
0.0602107
0.0548228
0.0503234
0.0473756
0.0468062
0.0498699
0.0574489
0.0673538
0.0754412
0.0771048
0.0681807
0.0456626
0.0146465
-0.0179182
-0.0498463
-0.0835764
0.110154
0.0977824
0.0867502
0.0795182
0.0740915
0.069029
0.0640116
0.0592168
0.0549398
0.0514979
0.0493172
0.0488801
0.0506828
0.0547337
0.0595976
0.0626214
0.0608671
0.0518263
0.0343197
0.0112463
-0.0132018
-0.0367544
-0.0601014
0.106066
0.0943446
0.0836399
0.0765776
0.0714462
0.0669125
0.0626205
0.0586318
0.0551325
0.0523328
0.0504647
0.0497434
0.0502935
0.0518682
0.0534587
0.0533822
0.0497916
0.0412637
0.0273782
0.00981398
-0.00897743
-0.0271898
-0.0456516
0.100676
0.0902036
0.080515
0.0739397
0.0691911
0.065113
0.0613798
0.0579859
0.0550286
0.0526162
0.0508362
0.0497246
0.0492286
0.0490675
0.0485559
0.0466284
0.0421313
0.0342578
0.0229184
0.00907773
-0.00585288
-0.0207873
0.0376182
0.0937481
0.0853049
0.0771411
0.0712451
0.0669027
0.0632254
0.0599379
0.0569954
0.054427
0.0522625
0.0504915
0.0490441
0.0477872
0.0464786
0.0446699
0.0416978
0.0368451
0.0296485
0.0201383
0.00891752
-0.00315657
-0.00924067
0.00268881
0.0869828
0.0801479
0.0735464
0.0683719
0.0644207
0.0611015
0.0581841
0.0555944
0.0533113
0.0513116
0.0495324
0.0478522
0.046106
0.0440965
0.0415391
0.0380333
0.0331454
0.0266083
0.0184868
0.00919758
-0.000322327
-0.00847927
-0.018964
0.105762
0.0876258
0.0697264
0.0652551
0.0617162
0.0587548
0.0561748
0.053877
0.0518088
0.0499202
0.0481278
0.0462982
0.0442653
0.0418643
0.0389178
0.0351953
0.030445
0.0245188
0.0174854
0.00965382
0.00152282
-0.00636349
-0.0132998
0.170209
0.16829
0.102458
0.0618026
0.0588046
0.0562725
0.0540447
0.0520154
0.0501218
0.0483105
0.046501
0.0445717
0.0423762
0.039777
0.0366591
0.0328995
0.0283659
0.022984
0.0168167
0.0100872
0.00315576
-0.00345446
-0.00939504
0.165195
0.165774
0.164818
0.0678992
0.0558011
0.0538047
0.0519493
0.0501757
0.0484372
0.0466888
0.0448666
0.0428721
0.0405867
0.0379016
0.0347388
0.0310367
0.0267399
0.0218254
0.0163523
0.010484
0.0044885
-0.00123992
-0.00648286
0.0785078
0.161316
0.143382
0.0736533
0.0537812
0.0515553
0.0500287
0.0484744
0.0468684
0.0451785
0.0433575
0.0413311
0.0390088
0.0363076
0.0331743
0.0295816
0.0255186
0.0209972
0.0160769
0.0108805
0.00560347
0.000537487
-0.00418125
0.0518148
0.0669572
0.0599153
0.0543154
0.0514289
0.0497787
0.0483403
0.0469419
0.0454353
0.0437987
0.0419944
0.0399679
0.0376525
0.0349864
0.0319317
0.0284793
0.0246415
0.0204501
0.0159653
0.0112841
0.00654964
0.00197581
-0.002353
0.0488862
0.0498358
0.0502003
0.0497647
0.0489543
0.0479415
0.0467889
0.0454983
0.0440684
0.0424826
0.0407102
0.0387103
0.0364352
0.0338396
0.0308958
0.0276022
0.02398
0.0200692
0.0159282
0.0116373
0.00730546
0.00308924
-0.000960507
0.0459676
0.0471671
0.0477948
0.0476422
0.0470514
0.0462162
0.0451933
0.0440033
0.0426496
0.0411213
0.0393959
0.0374438
0.035232
0.0327288
0.0299138
0.0267877
0.0233724
0.0197081
0.0158492
0.0118633
0.00783571
0.00388167
3.15198e-05
0.0430101
0.044227
0.0450866
0.0452553
0.0449343
0.0442984
0.0434228
0.0423428
0.0410731
0.0396124
0.0379477
0.03606
0.0339282
0.031531
0.0288544
0.0258996
0.0226857
0.0192483
0.0156356
0.0119048
0.00812516
0.00438182
0.000692152
0.0401192
0.0413092
0.0422989
0.0426964
0.0425968
0.0421439
0.0414141
0.0404489
0.039271
0.0378882
0.0362971
0.0344881
0.0324495
0.0301688
0.0276373
0.0248566
0.0218423
0.0186239
0.015242
0.0117451
0.00819085
0.00464354
0.00111204
0.0372989
0.0384411
0.0394823
0.0400179
0.0400745
0.0397671
0.0391646
0.038308
0.0372236
0.0359257
0.0344186
0.0327007
0.0307673
0.0286127
0.0262329
0.0236302
0.0208171
0.0178175
0.0146647
0.0113994
0.00807048
0.00472762
0.00137436
0.034523
0.0356018
0.0366463
0.0372527
0.0374091
0.0372073
0.0367071
0.0359462
0.0349514
0.0337411
0.0323253
0.030708
0.0288899
0.02687
0.0246481
0.0222278
0.0196195
0.0168423
0.0139234
0.0108962
0.00780256
0.00468174
0.00153364
0.031777
0.0327791
0.0337965
0.0344283
0.0346416
0.0345121
0.0340909
0.0334113
0.0324997
0.0313767
0.0300559
0.0285452
0.0268494
0.0249708
0.022912
0.0206776
0.0182771
0.0157257
0.0130454
0.0102637
0.00741558
0.00453297
0.00161288
0.029058
0.0299714
0.0309406
0.0315686
0.03181
0.0317288
0.031368
0.0307572
0.029922
0.028884
0.0276593
0.0262586
0.024689
0.0229558
0.0210632
0.0190168
0.0168249
0.0145001
0.01206
0.00952659
0.00692935
0.00429429
0.00161599
0.0263726
0.0271869
0.0280911
0.0286962
0.0289482
0.0288993
0.0285855
0.0280335
0.0272686
0.0263131
0.0251842
0.0238946
0.0224533
0.0208673
0.0191421
0.0172834
0.0152986
0.0131979
0.0109951
0.00870806
0.00636079
0.00397492
0.00154294
0.0237299
0.0244376
0.0252639
0.0258332
0.0260846
0.026057
0.0257804
0.0252798
0.0245805
0.0237051
0.0226714
0.0214933
0.0201813
0.018743
0.0171847
0.0155117
0.0137302
0.0118485
0.00987728
0.00783043
0.00572756
0.00358669
0.00139853
0.0211374
0.0217344
0.0224739
0.0229985
0.0232412
0.0232265
0.0229793
0.0225245
0.0218874
0.0210905
0.020152
0.0190861
0.0179039
0.0166134
0.0152205
0.01373
0.0121469
0.0104775
0.00873018
0.00691541
0.00504889
0.00314552
0.00119451
0.0185987
0.0190839
0.0197309
0.0202055
0.0204329
0.0204237
0.0201998
0.0197865
0.0192095
0.0184909
0.0176485
0.0166964
0.0156451
0.0145022
0.0132729
0.0119611
0.0105708
0.00910673
0.00757514
0.00598384
0.00434496
0.00267046
0.000948107
0.0161156
0.0164867
0.0170377
0.0174598
0.0176669
0.0176572
0.0174519
0.0170776
0.0165601
0.0159209
0.0151767
0.0143404
0.0134214
0.012426
0.0113583
0.0102216
0.00901877
0.00775341
0.00643011
0.00505443
0.00363524
0.0021815
0.000679368
0.0136923
0.0139373
0.0143882
0.0147582
0.0149422
0.0149281
0.0147386
0.0144026
0.0139458
0.0133884
0.0127453
0.0120272
0.0112417
0.0103936
0.00948589
0.008521
0.00750118
0.00642918
0.00530827
0.00414207
0.00293651
0.00169735
0.000409103
0.0113235
0.0114132
0.0117659
0.01209
0.0122514
0.0122312
0.012057
0.011761
0.0113682
0.0108963
0.0103575
0.00975995
0.00910895
0.00840776
0.00765853
0.00686304
0.00602309
0.00514075
0.00421829
0.00325778
0.00226255
0.00123515
0.000158509
0.0089472
0.00885615
0.00913328
0.00944464
0.00959359
0.00956665
0.00940851
0.00915648
0.00883283
0.00845112
0.00801995
0.0075447
0.00702862
0.00647374
0.00588156
0.0052535
0.00459109
0.00389599
0.00316975
0.00241337
0.00162818
0.000813748
-4.83008e-05
0.00642447
0.00611952
0.0063661
0.00682429
0.00699403
0.00695351
0.00681046
0.00660786
0.00635946
0.00607246
0.00575145
0.00539919
0.00501736
0.00460718
0.00416988
0.00370686
0.00321961
0.00270969
0.00217836
0.00162612
0.0010529
0.0004561
-0.00018337
0.00394017
0.00255653
0.00317411
0.00418501
0.00442064
0.00436262
0.0042434
0.00410192
0.00393769
0.00375094
0.00354281
0.00331415
0.00306576
0.00279871
0.00251442
0.00221464
0.00190123
0.001576
0.00124032
0.000894651
0.000538344
0.000168416
-0.000226642
0.0025711
-0.00327411
-0.000909896
0.000637006
0.000949547
0.000990307
0.000986366
0.00096541
0.000928018
0.000875299
0.000808553
0.000729064
0.000638405
0.000538569
0.00043192
0.000321019
0.000208437
9.65809e-05
-1.25513e-05
-0.000117787
-0.000219217
-0.00031899
-0.000423736
790.902
784.681
782.467
771.706
772.072
793.67
785.112
773.483
734.019
708.87
684.318
653.306
194.65
166.661
116.545
26.2307
9.72289
13.593
16.3804
16.7985
8.33363
24.2018
38.5488
43.3842
43.5402
54.3939
55.5569
56.6313
57.4218
58.6645
59.7223
59.6336
55.364
62.2417
63.3588
59.0216
1.8229
40.5681
63.8641
19.1895
-0.0995545
-0.213258
3.05847
1.15165
-0.096802
-0.14715
0.844589
-0.14583
-0.106858
-0.100389
1.37325
0.104576
-0.000587747
0.631567
0.109873
-0.0791409
0.357786
0.606261
-0.0647257
-0.0598542
0.136337
-0.0377217
-0.0485984
-0.0487273
-0.0336565
-0.036927
-0.0394828
-0.0413615
-0.0243332
-0.0281629
-0.031825
-0.0347937
-0.0183101
-0.0222003
-0.0261648
-0.029505
-0.0140827
-0.0178087
-0.0216773
-0.0250039
-0.0108251
-0.014268
-0.0178696
-0.021021
-0.00816744
-0.0112959
-0.01459
-0.0175248
-0.00602441
-0.00887112
-0.0118763
-0.0145983
-0.00439547
-0.00702025
-0.00977873
-0.0123045
-0.00323962
-0.00569948
-0.00825691
-0.0106089
-0.00245627
-0.00479134
-0.00718702
-0.00939042
-0.00191958
-0.0041499
-0.00641269
-0.00849231
-0.0015226
-0.00365085
-0.00579822
-0.00777397
-0.00120288
-0.00322131
-0.00525991
-0.00714293
-0.000940898
-0.0028387
-0.00476653
-0.00655784
-0.000740925
-0.00250873
-0.00431875
-0.00601158
-0.000611106
-0.00224246
-0.00392646
-0.00551073
-0.000552621
-0.00204408
-0.00359542
-0.00506182
-0.000557366
-0.00190808
-0.00332275
-0.00466474
-0.000609711
-0.00182048
-0.00309658
-0.00431053
-0.000689361
-0.00176128
-0.00289773
-0.00398194
-0.000773363
-0.00170637
-0.00270142
-0.00365455
-0.000836565
-0.00162813
-0.00247792
-0.00329718
-0.000849848
-0.00149373
-0.0021906
-0.00286902
-0.000785848
-0.0012734
-0.00180348
-0.00232282
-0.000588474
-0.000893732
-0.00123403
-0.00157585
-0.000524271
-0.000624774
-0.000746784
-0.000871887
727.568
734.544
738.57
728.536
729.661
749.505
772.734
779.433
744.464
754.504
750.311
704.976
728.223
782.493
766.217
747.93
723.098
705.838
736.68
750.457
701.472
603.698
419.565
403.549
533.184
695.089
750.453
768.356
775.959
777.817
754.733
724.652
722.353
655.869
516.901
385.815
313.192
384.98
504.426
228.363
58.6272
18.1896
21.0185
128.613
415.541
608.197
722.385
745.603
718.914
623.55
516.717
423.616
316.347
249.179
195.134
187.793
191.967
14.9892
15.8422
16.2546
16.2758
16.1395
28.0216
153.762
278.802
304.823
341.857
402.268
370.291
282.219
211.336
225.272
254.211
204.355
182.766
185.72
15.5248
15.2968
14.8941
15.3255
15.0826
14.1542
13.1115
16.4386
17.5622
20.1859
74.1573
166.652
192.777
172.036
224.72
246.918
251.203
243.496
233.581
40.8214
40.0058
38.5089
35.1735
30.1456
23.5811
19.8501
19.0315
18.7062
19.3002
19.8301
53.7142
100.133
102.805
145.876
176.994
245.76
241.967
239.228
57.5561
55.9378
54.0922
54.5151
55.3268
55.5043
53.3943
50.0176
50.907
53.1628
26.5475
13.858
6.24862
9.04611
14.3105
25.5857
67.7336
100.419
104.096
56.892
30.3433
23.2332
33.4553
48.4413
55.8435
55.9288
57.0058
57.4282
57.3481
54.3582
13.069
1.13798
1.01523
2.1738
2.50984
1.18236
1.04348
1.32579
11.7186
0.110855
-0.081508
-0.184554
-0.191049
4.63036
13.6482
17.3091
20.113
25.9367
16.9086
7.31481
0.502774
0.399349
1.51151
1.77364
0.405887
0.366983
0.391148
0.00968995
-0.00620072
-0.0332836
-0.0577218
-0.0735074
-0.0952269
-0.11999
-0.130808
-0.130755
-0.111325
-0.0202337
0.264467
0.237433
0.254938
0.295282
1.12804
0.274325
0.275532
0.29531
-0.103345
-0.0553573
-0.0519465
-0.0597083
-0.0660056
-0.0286498
0.0548083
0.104301
0.107291
0.285968
0.331032
0.15595
0.193151
0.209307
0.214852
0.234621
0.253745
0.261419
0.281862
-0.101574
-0.0674435
-0.0580862
-0.0592843
-0.0627167
0.0173183
0.454307
0.459516
0.451292
0.463004
0.398163
0.163716
0.184846
0.195902
0.204855
0.21333
0.256481
0.269499
0.291814
-0.0794149
-0.0605654
-0.0544411
-0.055106
-0.0562427
0.0276486
0.49107
0.483369
0.487185
0.49155
0.501921
0.520541
0.365726
0.195263
0.20036
0.203959
0.365161
0.376294
0.374694
-0.0654134
-0.0486158
-0.0441411
-0.0487883
-0.0503263
-0.0467432
0.274319
0.522586
0.523427
0.437942
0.188695
0.355683
0.44299
0.455127
0.200782
0.0833941
0.330664
0.380673
0.378099
-0.0565696
-0.0373288
-0.0172528
-0.0320308
-0.0436459
-0.0460955
0.0382882
0.548515
0.506332
-0.0193938
-0.0454338
0.00801447
0.231946
0.311742
0.148947
0.0494336
0.0833412
0.162581
0.286272
-0.0494216
-0.0217287
0.0180235
0.0168596
-0.0256008
-0.0376549
-0.0308932
0.227777
0.32985
-0.0513446
-0.0399699
-0.0295214
-0.0189707
-0.00367556
0.00454197
0.030267
0.23843
0.293781
0.290276
-0.0436169
-0.0101826
0.0242638
0.022649
0.0211854
-0.0103987
-0.0159276
0.00675089
-0.0111263
-0.0400905
-0.03671
-0.028275
-0.021211
-0.0152284
-0.0108976
0.00475218
0.207642
0.28546
0.285382
-0.0384044
-0.0298823
0.027603
0.0282874
0.0269505
0.0254042
0.0232208
-0.0257521
-0.0491769
-0.0420521
-0.0345627
-0.028333
-0.0234156
-0.0198612
-0.0184883
-0.0179645
0.00550604
0.0256687
0.0559318
-0.0336334
-0.0374592
-0.0190501
0.0340804
0.0325755
0.031366
0.0305568
-0.0205299
-0.0434452
-0.0383354
-0.0313556
-0.0259669
-0.0251768
-0.0238314
-0.023714
-0.0262433
-0.0310533
-0.0351135
-0.0344622
-0.0291924
-0.033212
-0.0368454
-0.031593
-0.0148109
0.00258953
0.000535263
-0.0345775
-0.0389237
-0.035923
-0.0295937
-0.0262281
-0.0241392
-0.0265493
-0.0268834
-0.0285994
-0.0312185
-0.0330488
-0.0319752
-0.0250725
-0.029078
-0.0326116
-0.0356133
-0.0378676
-0.0391637
-0.0392863
-0.038533
-0.0345316
-0.0322038
-0.0300927
-0.0267152
-0.0269141
-0.0282922
-0.0285528
-0.0294022
-0.0303465
-0.0303251
-0.00137851
-0.0213787
-0.0252752
-0.0286658
-0.0315263
-0.0337151
-0.0351691
-0.0357854
-0.0354946
-0.0336137
-0.0306193
-0.0293014
-0.0300787
-0.0296201
-0.0292094
-0.0291918
-0.0294211
-0.0293911
-0.0278397
0.16167
-0.0182445
-0.0219988
-0.0252515
-0.0280052
-0.030168
-0.0317007
-0.0325579
-0.0327379
-0.0324026
-0.0302841
-0.0284372
-0.0289918
-0.0296203
-0.0292929
-0.0291568
-0.0290277
-0.0285493
-0.0150776
0.172742
-0.0157404
-0.0193425
-0.0224638
-0.0251174
-0.0272498
-0.0288432
-0.0298835
-0.0303901
-0.0304706
-0.0302533
-0.0292386
-0.0282775
-0.0282494
-0.0286118
-0.0286483
-0.0283355
-0.027655
0.0233284
0.181434
-0.0138376
-0.0172844
-0.0202779
-0.0228306
-0.0249143
-0.0265277
-0.0276753
-0.0283837
-0.0287271
-0.0288012
-0.0287065
-0.0284102
-0.0279358
-0.0278038
-0.0277537
-0.0273981
-0.0266383
0.0417834
0.190539
-0.0124262
-0.015718
-0.0185851
-0.0210364
-0.0230575
-0.0246575
-0.0258518
-0.0266698
-0.0271667
-0.0274121
-0.0274778
-0.0274223
-0.0272833
-0.0270373
-0.0267274
-0.0262191
-0.0253134
0.0191161
0.199803
-0.011358
-0.0144973
-0.01724
-0.0195914
-0.0215444
-0.0231129
-0.0243172
-0.0251876
-0.0257682
-0.0261113
-0.0262694
-0.0262835
-0.026175
-0.0259368
-0.0255247
-0.0248355
-0.0236188
-0.00188855
0.207914
-0.0104929
-0.0134827
-0.0161031
-0.0183576
-0.0202432
-0.0217736
-0.0229708
-0.0238636
-0.0244886
-0.0248868
-0.0250967
-0.0251459
-0.0250418
-0.0247639
-0.0242529
-0.0233703
-0.0217771
0.00719162
0.216385
-0.00973035
-0.0125714
-0.0150696
-0.0172297
-0.0190498
-0.0205413
-0.0217242
-0.0226251
-0.0232749
-0.0237061
-0.0239473
-0.0240156
-0.0239081
-0.023594
-0.0230041
-0.0219821
-0.0201483
0.0566151
0.225432
-0.00901657
-0.0117056
-0.0140791
-0.0161444
-0.0178989
-0.0193496
-0.0205135
-0.0214139
-0.0220773
-0.0225299
-0.0227928
-0.0228756
-0.0227683
-0.0224343
-0.0218032
-0.0207293
-0.0188493
0.0738034
0.233694
-0.00833417
-0.0108642
-0.0131085
-0.0150756
-0.0167603
-0.0181644
-0.0193016
-0.0201922
-0.020859
-0.0213239
-0.0216027
-0.021699
-0.0215983
-0.0212612
-0.0206182
-0.0195383
-0.0176761
0.0601501
0.241781
-0.0076849
-0.0100482
-0.012158
-0.0140216
-0.0156289
-0.0169762
-0.0180744
-0.0189417
-0.0195991
-0.0200655
-0.0203531
-0.0204618
-0.0203732
-0.0200455
-0.0194068
-0.0183176
-0.0163867
0.0260974
0.247847
-0.00707563
-0.00926686
-0.0112385
-0.0129935
-0.0145141
-0.0157907
-0.016833
-0.0176592
-0.0182903
-0.0187442
-0.0190315
-0.0191498
-0.0190786
-0.0187732
-0.0181577
-0.0170724
-0.0150364
0.0625261
0.145522
-0.00650982
-0.00852815
-0.0103618
-0.0120063
-0.013432
-0.0146216
-0.0155872
-0.0163503
-0.0169342
-0.0173582
-0.0176332
-0.0177573
-0.0177099
-0.0174461
-0.0168916
-0.0158974
-0.0139941
0.130445
0.171962
-0.00598324
-0.0078332
-0.00953521
-0.0110744
-0.0124013
-0.0134857
-0.0143498
-0.0150235
-0.0155355
-0.0159089
-0.0161571
-0.01628
-0.0162596
-0.0160526
-0.0155919
-0.0147594
-0.0131593
0.0944482
0.176805
-0.00548277
-0.00717393
-0.00875908
-0.0102105
-0.0114419
-0.0124
-0.0131327
-0.0136861
-0.0140981
-0.0143971
-0.0146006
-0.0147116
-0.0147136
-0.0145614
-0.0141899
-0.0134608
-0.0119383
0.0108244
0.0261948
-0.00498634
-0.00653149
-0.00802353
-0.00942238
-0.0105726
-0.0113763
-0.0119411
-0.0123389
-0.0126199
-0.0128193
-0.0129591
-0.0130457
-0.0130647
-0.0129708
-0.0126812
-0.0119924
-0.0103332
-0.00701372
-0.00272874
-0.00446181
-0.00587149
-0.00730057
-0.00871046
-0.00981421
-0.0104202
-0.0107708
-0.0109733
-0.0110911
-0.0111653
-0.0112223
-0.0112737
-0.0113148
-0.0113088
-0.0111582
-0.010593
-0.00887167
-0.00541909
-0.00119365
-0.00386025
-0.00513233
-0.0065421
-0.00812024
-0.00930393
-0.00961325
-0.00966005
-0.00960931
-0.00952301
-0.00943992
-0.00938934
-0.00939239
-0.00946347
-0.00959265
-0.00969975
-0.00947431
-0.00780446
-0.00439707
-0.000205625
-0.00310965
-0.00422258
-0.00573414
-0.00799148
-0.00968924
-0.00936757
-0.00886005
-0.00842576
-0.0080525
-0.00774554
-0.00753013
-0.00743589
-0.00750703
-0.00779617
-0.00827995
-0.00732336
0.00786404
-0.00204602
0.000132335
-0.00213542
-0.00305013
-0.00490235
-0.00900076
-0.0117811
-0.0100051
-0.00853661
-0.0075507
-0.00678905
-0.00617424
-0.00571116
-0.00542485
-0.00537304
-0.00572949
-0.00338461
0.00644767
0.009883
0.00883261
0.00027379
-0.00109732
-0.00169525
-0.00362991
-0.00957992
-0.0105708
-0.00764628
-0.00592753
-0.00490915
-0.00415625
-0.00354946
-0.00307087
-0.00271799
-0.00249732
-0.00260799
-0.00252951
0.00756402
0.00760265
0.00626841
0.000407765
)
;

boundaryField
{
    leftWall
    {
        type            fixedFluxPressure;
        gradient        uniform 0;
        value           nonuniform List<scalar> 
50
(
757.062
757.021
756.89
756.652
756.318
755.913
755.449
754.923
753.962
722.363
241.589
6.6558
10.9055
0.206663
0.170874
0.148088
0.132811
0.123118
0.117896
0.115064
0.112902
0.110154
0.106066
0.100676
0.0937481
0.0869828
0.105762
0.170209
0.165195
0.0785078
0.0518148
0.0488862
0.0459676
0.0430101
0.0401192
0.0372989
0.034523
0.031777
0.029058
0.0263726
0.0237299
0.0211374
0.0185987
0.0161156
0.0136923
0.0113235
0.0089472
0.00642447
0.00394017
0.0025711
)
;
    }
    rightWall
    {
        type            fixedFluxPressure;
        gradient        uniform 0;
        value           nonuniform List<scalar> 
50
(
745.65
745.476
745.744
746.578
747.42
748.064
748.012
746.497
736.68
384.98
191.967
185.72
233.581
239.228
104.096
1.32579
0.391148
0.29531
0.281862
0.291814
0.374694
0.378099
0.286272
0.290276
0.285382
0.0559318
-0.0344622
-0.0319752
-0.00137851
0.16167
0.172742
0.181434
0.190539
0.199803
0.207914
0.216385
0.225432
0.233694
0.241781
0.247847
0.145522
0.171962
0.176805
0.0261948
-0.00272874
-0.00119365
-0.000205625
0.000132335
0.00027379
0.000407765
)
;
    }
    lowerWall
    {
        type            fixedFluxPressure;
        gradient        uniform 0;
        value           nonuniform List<scalar> 
62
(
757.062
757.669
759.032
760.281
761.172
761.782
762.292
762.907
763.835
765.262
767.336
770.154
773.762
778.175
783.414
789.517
796.556
804.563
812.481
821.263
830.018
837.184
843.261
843.261
842.768
843.635
847.163
851.024
855.669
859.901
859.032
790.902
784.681
782.467
771.706
705.131
703.723
700.76
697.857
696.033
686.146
688.894
682.1
705.131
711.627
739.768
766.801
775.303
770.523
760.358
750.689
744.807
742.585
743.729
747.603
749.344
743.326
738.522
736.575
736.784
741.29
745.65
)
;
    }
    atmosphere
    {
        type            totalPressure;
        rho             rho;
        psi             none;
        gamma           1;
        p0              uniform 0;
        value           nonuniform List<scalar> 
46
(
-0.000579913
-0.0020355
-0.00178722
-0.00153726
-0.00136489
-0.00123572
-0.00113661
-0.0010615
-0.00100649
-0.000968322
-0.000943908
-0.000930225
-0.000924237
-0.000922859
-0.000922957
-0.000921361
-0.000914922
-0.000900627
-0.000875769
-0.00083819
-0.000786589
-0.000720938
-0.000642916
-0.000577339
-0.000531997
-0.000482992
-0.000431736
-0.00034733
-0.000234548
-0.000137974
-5.00936e-05
-1.03051e-09
0
0
0
0
0
0
0
0
0
0
0
0
0
0
)
;
    }
    defaultFaces
    {
        type            empty;
    }
}


// ************************************************************************* //
