/*--------------------------------*- C++ -*----------------------------------*\
| =========                 |                                                 |
| \\      /  F ield         | OpenFOAM: The Open Source CFD Toolbox           |
|  \\    /   O peration     | Version:  2.3.0                                 |
|   \\  /    A nd           | Web:      www.OpenFOAM.org                      |
|    \\/     M anipulation  |                                                 |
\*---------------------------------------------------------------------------*/
FoamFile
{
    version     2.0;
    format      ascii;
    class       surfaceScalarField;
    location    "1.8";
    object      phi;
}
// * * * * * * * * * * * * * * * * * * * * * * * * * * * * * * * * * * * * * //

dimensions      [0 3 -1 0 0 0 0];

internalField   nonuniform List<scalar> 
4432
(
-1.22124e-06
1.22124e-06
-6.53278e-07
-5.67976e-07
4.02169e-07
-1.05545e-06
1.38729e-06
-9.85119e-07
2.19927e-06
-8.11986e-07
2.85084e-06
-6.5157e-07
3.38571e-06
-5.34869e-07
3.85052e-06
-4.6481e-07
4.28174e-06
-4.3123e-07
4.70142e-06
-4.19674e-07
5.11652e-06
-4.15104e-07
5.51621e-06
-3.997e-07
5.87074e-06
-3.54527e-07
6.12853e-06
-2.57776e-07
6.20881e-06
-8.02741e-08
5.97687e-06
2.31938e-07
5.27795e-06
6.98926e-07
3.92597e-06
1.352e-06
1.35809e-06
2.56786e-06
-2.02277e-06
3.38086e-06
-5.10905e-06
3.08628e-06
-5.39495e-06
2.8589e-07
-5.39495e-06
-3.36896e-07
1.55812e-06
3.00664e-07
-1.20555e-06
1.09249e-06
-1.84729e-06
1.86571e-06
-1.75834e-06
2.55672e-06
-1.50299e-06
3.15716e-06
-1.25201e-06
3.68256e-06
-1.06028e-06
4.15681e-06
-9.39053e-07
4.60158e-06
-8.76008e-07
5.0312e-06
-8.49311e-07
5.44965e-06
-8.33547e-07
5.84661e-06
-7.96655e-07
6.19525e-06
-7.03166e-07
6.45136e-06
-5.13868e-07
6.55283e-06
-1.8174e-07
6.42398e-06
3.60801e-07
5.94474e-06
1.17816e-06
4.93888e-06
2.35786e-06
3.28773e-06
4.21899e-06
1.01589e-06
5.65269e-06
-1.28937e-06
5.39154e-06
-2.36829e-06
1.36482e-06
-7.76324e-06
3.91964e-07
1.16615e-06
9.30222e-07
-1.74381e-06
1.56869e-06
-2.48576e-06
2.22201e-06
-2.41167e-06
2.83855e-06
-2.11953e-06
3.39937e-06
-1.81284e-06
3.90543e-06
-1.56635e-06
4.3685e-06
-1.40212e-06
4.80237e-06
-1.30988e-06
5.21768e-06
-1.26462e-06
5.61805e-06
-1.23391e-06
5.99523e-06
-1.17382e-06
6.32641e-06
-1.03434e-06
6.57416e-06
-7.61615e-07
6.68801e-06
-2.95581e-07
6.60804e-06
4.40781e-07
6.25425e-06
1.53193e-06
5.53143e-06
3.08069e-06
4.51156e-06
5.23887e-06
3.10786e-06
7.05639e-06
1.48582e-06
7.0136e-06
1.3836e-07
2.71227e-06
-7.62487e-06
8.32713e-07
3.33436e-07
1.38668e-06
-2.29777e-06
1.95634e-06
-3.05541e-06
2.54625e-06
-3.00158e-06
3.11818e-06
-2.69146e-06
3.64959e-06
-2.34425e-06
4.13365e-06
-2.0504e-06
4.57543e-06
-1.8439e-06
4.98458e-06
-1.71903e-06
5.37064e-06
-1.65068e-06
5.73897e-06
-1.60224e-06
6.08496e-06
-1.51982e-06
6.39112e-06
-1.3405e-06
6.62773e-06
-9.98216e-07
6.75644e-06
-4.24291e-07
6.73434e-06
4.6288e-07
6.51288e-06
1.75338e-06
6.05757e-06
3.536e-06
5.46015e-06
5.83629e-06
4.65322e-06
7.86332e-06
3.51514e-06
8.15167e-06
1.87575e-06
4.35165e-06
-5.74912e-06
1.06586e-06
-7.32425e-07
1.71145e-06
-2.94335e-06
2.28558e-06
-3.62954e-06
2.85877e-06
-3.57477e-06
3.4115e-06
-3.24418e-06
3.92318e-06
-2.85593e-06
4.38382e-06
-2.51105e-06
4.79576e-06
-2.25584e-06
5.16738e-06
-2.09065e-06
5.50933e-06
-1.99263e-06
5.83077e-06
-1.92369e-06
6.13251e-06
-1.82157e-06
6.40374e-06
-1.61173e-06
6.62339e-06
-1.21787e-06
6.76575e-06
-5.66651e-07
6.80587e-06
4.2275e-07
6.72191e-06
1.83734e-06
6.51437e-06
3.74354e-06
6.25427e-06
6.09639e-06
5.88901e-06
8.22858e-06
5.13005e-06
8.91063e-06
3.41219e-06
6.0695e-06
-2.33692e-06
1.18089e-06
-1.91331e-06
1.94437e-06
-3.70682e-06
2.57268e-06
-4.25785e-06
3.16677e-06
-4.16886e-06
3.72276e-06
-3.80017e-06
4.22432e-06
-3.35748e-06
4.66119e-06
-2.94792e-06
5.036e-06
-2.63064e-06
5.35824e-06
-2.4129e-06
5.64162e-06
-2.27601e-06
5.90097e-06
-2.18305e-06
6.14421e-06
-2.0648e-06
6.36864e-06
-1.83615e-06
6.56274e-06
-1.41197e-06
6.71375e-06
-7.17672e-07
6.81443e-06
3.22072e-07
6.86526e-06
1.7865e-06
6.88527e-06
3.72353e-06
6.93039e-06
6.05128e-06
6.93256e-06
8.22641e-06
6.54864e-06
9.29455e-06
4.83716e-06
7.78098e-06
2.50024e-06
1.23703e-06
-3.15033e-06
2.11653e-06
-4.5863e-06
2.82611e-06
-4.96743e-06
3.46892e-06
-4.81168e-06
4.04725e-06
-4.37851e-06
4.54799e-06
-3.85821e-06
4.96205e-06
-3.36198e-06
5.29455e-06
-2.96313e-06
5.55799e-06
-2.67634e-06
5.77056e-06
-2.48859e-06
5.95417e-06
-2.36666e-06
6.12527e-06
-2.2359e-06
6.29064e-06
-2.00152e-06
6.44912e-06
-1.57044e-06
6.60118e-06
-8.69736e-07
6.75655e-06
1.66703e-07
6.93465e-06
1.6084e-06
7.16672e-06
3.49147e-06
7.4988e-06
5.71919e-06
7.86383e-06
7.86138e-06
7.93576e-06
9.22263e-06
6.38969e-06
9.32705e-06
8.88993e-06
1.26649e-06
-4.41682e-06
2.24462e-06
-5.56443e-06
3.04509e-06
-5.76789e-06
3.75381e-06
-5.5204e-06
4.36847e-06
-4.99317e-06
4.87638e-06
-4.36612e-06
5.26996e-06
-3.75556e-06
5.55849e-06
-3.25166e-06
5.75859e-06
-2.87643e-06
5.89362e-06
-2.62363e-06
5.99296e-06
-2.46599e-06
6.08232e-06
-2.32526e-06
6.17898e-06
-2.09818e-06
6.293e-06
-1.68446e-06
6.43829e-06
-1.01502e-06
6.6409e-06
-3.59013e-08
6.93782e-06
1.31149e-06
7.36817e-06
3.06111e-06
7.97884e-06
5.10852e-06
8.73076e-06
7.10945e-06
9.38385e-06
8.56955e-06
8.89916e-06
9.81174e-06
1.77891e-05
-8.95139e-06
8.95139e-06
-8.57654e-06
-3.74879e-07
1.3216e-07
-8.70869e-06
1.03987e-05
-1.02665e-05
1.93895e-05
-8.99085e-06
2.59699e-05
-6.58038e-06
3.00386e-05
-4.06875e-06
3.17195e-05
-1.68087e-06
3.15308e-05
1.88654e-07
2.94544e-05
2.07648e-06
2.49107e-05
4.54367e-06
1.81621e-05
6.74861e-06
1.1406e-05
6.75604e-06
5.59676e-06
5.80927e-06
1.77897e-06
3.8178e-06
-1.14045e-06
2.91939e-06
-3.81721e-06
2.67677e-06
-3.76661e-06
-5.05973e-08
-3.76662e-06
-5.68104e-06
1.46324e-05
-2.08116e-06
-3.97478e-06
5.72411e-06
-1.6514e-05
1.453e-05
-1.90724e-05
2.19999e-05
-1.64608e-05
2.73664e-05
-1.19469e-05
3.04055e-05
-7.10784e-06
3.12823e-05
-2.55768e-06
3.08418e-05
6.29191e-07
2.95325e-05
3.38571e-06
2.65918e-05
7.48448e-06
2.10171e-05
1.23233e-05
1.38468e-05
1.39263e-05
8.08295e-06
1.15731e-05
4.15863e-06
7.74213e-06
1.47323e-06
5.60474e-06
-7.46404e-07
4.89642e-06
-1.87419e-06
1.0772e-06
-5.64082e-06
-2.04064e-06
1.66731e-05
3.0594e-06
-9.07483e-06
1.05238e-05
-2.39784e-05
1.77068e-05
-2.62554e-05
2.36007e-05
-2.23548e-05
2.7846e-05
-1.61921e-05
3.0203e-05
-9.46483e-06
3.04452e-05
-2.79991e-06
2.94156e-05
1.65877e-06
2.76629e-05
5.13846e-06
2.48229e-05
1.03244e-05
2.01456e-05
1.70006e-05
1.40725e-05
1.99995e-05
9.12087e-06
1.65246e-05
5.92508e-06
1.09379e-05
3.66179e-06
7.86801e-06
1.6501e-06
6.90811e-06
1.21805e-07
2.60552e-06
-5.51901e-06
1.66606e-06
1.5007e-05
8.14186e-06
-1.55506e-05
1.49196e-05
-3.07561e-05
2.04892e-05
-3.1825e-05
2.47619e-05
-2.66274e-05
2.78613e-05
-1.92916e-05
2.96793e-05
-1.12828e-05
2.95341e-05
-2.65464e-06
2.80854e-05
3.10738e-06
2.6058e-05
7.16588e-06
2.32725e-05
1.31099e-05
1.92922e-05
2.09809e-05
1.43115e-05
2.49802e-05
1.00986e-05
2.07375e-05
7.50337e-06
1.35332e-05
5.57829e-06
9.79309e-06
3.79093e-06
8.69546e-06
1.64605e-06
4.7504e-06
-3.87298e-06
5.51627e-06
9.49074e-06
1.32274e-05
-2.32618e-05
1.90434e-05
-3.65721e-05
2.29678e-05
-3.57493e-05
2.56398e-05
-2.92994e-05
2.75138e-05
-2.11656e-05
2.86749e-05
-1.24439e-05
2.84167e-05
-2.39638e-06
2.67153e-05
4.80876e-06
2.45527e-05
9.32845e-06
2.19972e-05
1.56655e-05
1.88183e-05
2.41598e-05
1.50117e-05
2.87869e-05
1.137e-05
2.43792e-05
9.17785e-06
1.57254e-05
7.43418e-06
1.15368e-05
5.65682e-06
1.04728e-05
3.04036e-06
7.36688e-06
-8.32653e-07
9.96006e-06
-4.69322e-07
1.8431e-05
-3.17327e-05
2.28399e-05
-4.09809e-05
2.5044e-05
-3.79535e-05
2.61664e-05
-3.04219e-05
2.68161e-05
-2.18153e-05
2.71967e-05
-1.28245e-05
2.68733e-05
-2.07302e-06
2.51888e-05
6.49327e-06
2.31025e-05
1.14148e-05
2.10084e-05
1.77596e-05
1.87575e-05
2.64106e-05
1.61259e-05
3.14185e-05
1.31508e-05
2.73543e-05
1.1109e-05
1.77672e-05
9.34541e-06
1.33003e-05
7.35312e-06
1.24651e-05
4.27864e-06
1.04414e-05
3.44596e-06
1.57115e-05
-1.61808e-05
2.34976e-05
-3.95188e-05
2.59925e-05
-4.34758e-05
2.65296e-05
-3.84905e-05
2.62082e-05
-3.01005e-05
2.57375e-05
-2.13446e-05
2.53665e-05
-1.24535e-05
2.49032e-05
-1.60974e-06
2.35477e-05
7.84882e-06
2.18866e-05
1.30759e-05
2.03631e-05
1.9283e-05
1.88846e-05
2.78891e-05
1.72206e-05
3.30826e-05
1.5269e-05
2.93058e-05
1.32519e-05
1.97842e-05
1.12894e-05
1.52628e-05
8.99014e-06
1.47644e-05
5.41362e-06
1.40179e-05
8.85959e-06
2.29536e-05
-3.91345e-05
2.76893e-05
-4.42545e-05
2.8227e-05
-4.40135e-05
2.73196e-05
-3.75831e-05
2.56959e-05
-2.84768e-05
2.42478e-05
-1.98966e-05
2.3305e-05
-1.15107e-05
2.2731e-05
-1.03572e-06
2.18899e-05
8.68989e-06
2.08059e-05
1.41599e-05
1.99186e-05
2.01703e-05
1.90794e-05
2.87284e-05
1.82456e-05
3.39164e-05
1.72159e-05
3.03355e-05
1.52479e-05
2.17522e-05
1.31526e-05
1.73581e-05
1.0543e-05
1.7374e-05
6.38168e-06
1.81792e-05
1.52413e-05
2.66605e-06
-7.08287e-06
5.00094e-06
-7.89933e-06
7.02866e-06
-7.79561e-06
8.79481e-06
-7.28656e-06
1.02545e-05
-6.45282e-06
1.13839e-05
-5.49551e-06
1.21676e-05
-4.53932e-06
1.26492e-05
-3.73329e-06
1.28796e-05
-3.10679e-06
1.2923e-05
-2.66703e-06
1.28663e-05
-2.40934e-06
1.27899e-05
-2.24878e-06
1.27659e-05
-2.07426e-06
1.28528e-05
-1.77137e-06
1.31268e-05
-1.28901e-06
1.36971e-05
-6.06177e-07
1.47076e-05
3.00985e-07
1.62432e-05
1.52552e-06
1.84462e-05
2.90553e-06
2.13646e-05
4.19103e-06
2.49783e-05
4.9558e-06
2.99146e-05
4.8755e-06
3.30359e-06
4.44001e-05
2.38604e-06
-9.46891e-06
4.71352e-06
-1.02268e-05
7.09007e-06
-1.01722e-05
9.21276e-06
-9.40925e-06
1.08895e-05
-8.12956e-06
1.21285e-05
-6.73456e-06
1.29044e-05
-5.31515e-06
1.33168e-05
-4.14573e-06
1.34502e-05
-3.24019e-06
1.33933e-05
-2.61014e-06
1.32266e-05
-2.24259e-06
1.29963e-05
-2.01853e-06
1.27836e-05
-1.86153e-06
1.26972e-05
-1.68497e-06
1.29374e-05
-1.52919e-06
1.37297e-05
-1.39854e-06
1.52307e-05
-1.20002e-06
1.75884e-05
-8.32213e-07
2.08677e-05
-3.73701e-07
2.51343e-05
-7.55956e-08
3.05895e-05
-4.9935e-07
3.79896e-05
-2.52468e-06
-6.82772e-06
4.8121e-05
2.31058e-06
-1.17795e-05
4.02521e-06
-1.19414e-05
6.35407e-06
-1.2501e-05
8.63103e-06
-1.16862e-05
1.04667e-05
-9.9652e-06
1.19029e-05
-8.17084e-06
1.27552e-05
-6.16742e-06
1.31723e-05
-4.56286e-06
1.33938e-05
-3.46167e-06
1.36554e-05
-2.87177e-06
1.39097e-05
-2.49688e-06
1.39548e-05
-2.06362e-06
1.36348e-05
-1.54154e-06
1.31321e-05
-1.18222e-06
1.32337e-05
-1.6308e-06
1.42802e-05
-2.44508e-06
1.6332e-05
-3.2518e-06
1.94277e-05
-3.9279e-06
2.3599e-05
-4.54508e-06
2.8865e-05
-5.34157e-06
3.52568e-05
-6.89115e-06
4.33398e-05
-1.06077e-05
-1.62189e-05
5.2731e-05
6.56818e-06
-1.83477e-05
5.19366e-06
-1.05669e-05
4.08275e-06
-1.13902e-05
6.16714e-06
-1.37706e-05
8.02685e-06
-1.18249e-05
1.01503e-05
-1.02943e-05
1.10146e-05
-7.03162e-06
1.11073e-05
-4.65557e-06
1.16025e-05
-3.95686e-06
1.40747e-05
-5.34393e-06
1.69706e-05
-5.39275e-06
1.92246e-05
-4.3176e-06
1.87131e-05
-1.02996e-06
1.50744e-05
2.4564e-06
1.38163e-05
-3.72745e-07
1.45285e-05
-3.15724e-06
1.64025e-05
-5.12578e-06
1.98676e-05
-7.39301e-06
2.50141e-05
-9.6915e-06
3.14391e-05
-1.17666e-05
3.84931e-05
-1.39451e-05
4.62424e-05
-1.83569e-05
-2.33855e-05
5.3409e-05
7.09588e-06
-2.54436e-05
9.03506e-06
-1.2506e-05
7.34796e-06
-9.70301e-06
7.88817e-06
-1.43108e-05
9.09167e-06
-1.30284e-05
1.13316e-05
-1.25342e-05
1.53525e-05
-1.10525e-05
2.00242e-05
-9.32717e-06
2.59738e-05
-9.90644e-06
3.40324e-05
-1.34025e-05
4.32812e-05
-1.46415e-05
5.26924e-05
-1.37288e-05
6.07568e-05
-9.0944e-06
5.68781e-05
6.33513e-06
4.24526e-05
1.40528e-05
3.18835e-05
7.41225e-06
2.38146e-05
2.94313e-06
2.01044e-05
-3.68262e-06
2.47791e-05
-1.43661e-05
3.11944e-05
-1.81819e-05
3.81133e-05
-2.08639e-05
4.37014e-05
-2.39451e-05
-1.80209e-05
3.83367e-05
4.59227e-06
-3.00359e-05
1.37266e-05
-2.16403e-05
1.6911e-05
-1.28874e-05
1.05141e-05
-7.91378e-06
1.09737e-05
-1.34881e-05
1.45722e-05
-1.61327e-05
2.07404e-05
-1.72206e-05
2.60778e-05
-1.46646e-05
3.10471e-05
-1.48756e-05
3.68728e-05
-1.92282e-05
4.30701e-05
-2.08388e-05
4.68311e-05
-1.74898e-05
4.69376e-05
-9.20082e-06
4.29267e-05
1.0346e-05
3.59087e-05
2.10708e-05
2.60873e-05
1.7234e-05
1.33351e-05
1.56955e-05
-7.32217e-06
1.69747e-05
-2.29555e-05
1.26723e-06
-3.09428e-05
-1.01945e-05
-4.47689e-05
-7.0378e-06
-7.18083e-05
3.09447e-06
-1.52069e-05
-7.46221e-05
8.80834e-06
-3.88438e-05
1.26357e-05
-2.54678e-05
1.53807e-05
-1.56324e-05
1.92943e-05
-1.18274e-05
2.00166e-05
-1.42103e-05
2.13993e-05
-1.75152e-05
2.33141e-05
-1.91353e-05
2.77171e-05
-1.90676e-05
3.1183e-05
-1.83414e-05
3.39879e-05
-2.2033e-05
3.56239e-05
-2.24748e-05
3.42094e-05
-1.60753e-05
2.93507e-05
-4.34212e-06
2.73598e-05
1.23371e-05
2.54798e-05
2.2951e-05
1.80196e-05
2.46943e-05
6.52819e-06
2.7187e-05
-1.09461e-05
3.44492e-05
-2.87511e-05
1.90725e-05
-4.14229e-05
2.47744e-06
-5.4198e-05
5.73734e-06
-6.45404e-05
1.34365e-05
-1.85081e-05
-6.12393e-05
3.32604e-06
-4.21697e-05
7.45422e-06
-2.9596e-05
1.25085e-05
-2.06869e-05
1.73055e-05
-1.66244e-05
2.02525e-05
-1.71573e-05
2.20723e-05
-1.93349e-05
2.39551e-05
-2.10179e-05
2.61288e-05
-2.12412e-05
2.8667e-05
-2.08797e-05
2.70929e-05
-2.04589e-05
2.21371e-05
-1.75189e-05
1.74007e-05
-1.13388e-05
1.51949e-05
-2.13627e-06
1.51219e-05
1.24102e-05
1.41073e-05
2.39657e-05
8.29787e-06
3.05037e-05
-1.38471e-06
3.68696e-05
-1.1568e-05
4.46327e-05
-2.51159e-05
3.26205e-05
-3.8789e-05
1.61508e-05
-4.86687e-05
1.56171e-05
-5.31432e-05
1.79109e-05
-1.93511e-05
-5.23001e-05
-5.14254e-08
-4.21182e-05
2.24264e-06
-3.189e-05
6.08392e-06
-2.45283e-05
1.01293e-05
-2.06697e-05
1.29608e-05
-1.99887e-05
1.44568e-05
-2.08307e-05
1.51044e-05
-2.16654e-05
1.52207e-05
-2.13574e-05
1.42397e-05
-1.98985e-05
1.13776e-05
-1.75967e-05
7.60076e-06
-1.3742e-05
4.48675e-06
-8.22474e-06
2.29245e-06
5.80764e-08
1.95702e-06
1.27458e-05
5.01093e-07
2.54217e-05
-3.92298e-06
3.49278e-05
-9.72045e-06
4.26672e-05
-1.24246e-05
4.73366e-05
-1.71948e-05
3.73908e-05
-2.57056e-05
2.46615e-05
-3.27705e-05
2.26821e-05
-3.49313e-05
2.00716e-05
-1.44508e-05
-3.98316e-05
-2.61025e-06
-3.9508e-05
-2.57209e-06
-3.19284e-05
-8.13151e-07
-2.62869e-05
1.48932e-06
-2.29721e-05
3.20318e-06
-2.17023e-05
3.91265e-06
-2.15401e-05
3.66179e-06
-2.14146e-05
2.72121e-06
-2.04167e-05
1.13829e-06
-1.83155e-05
-1.17067e-06
-1.52877e-05
-3.96632e-06
-1.09463e-05
-7.10709e-06
-5.08387e-06
-1.01202e-05
3.07117e-06
-1.15202e-05
1.41459e-05
-1.16366e-05
2.55382e-05
-1.18422e-05
3.51335e-05
-1.15031e-05
4.23284e-05
-9.26661e-06
4.51003e-05
-9.05733e-06
3.71814e-05
-1.22572e-05
2.78614e-05
-1.39549e-05
2.43799e-05
-1.38009e-05
1.99176e-05
-5.47305e-06
-2.27787e-05
-4.79322e-06
-3.47148e-05
-6.76953e-06
-2.9952e-05
-7.04158e-06
-2.60148e-05
-6.56801e-06
-2.34458e-05
-6.20615e-06
-2.2064e-05
-6.43089e-06
-2.13153e-05
-7.35193e-06
-2.04937e-05
-8.7687e-06
-1.9e-05
-1.05024e-05
-1.65817e-05
-1.2586e-05
-1.32041e-05
-1.48862e-05
-8.64596e-06
-1.72388e-05
-2.73127e-06
-1.9062e-05
4.89447e-06
-1.91636e-05
1.42475e-05
-1.74546e-05
2.38292e-05
-1.44119e-05
3.20909e-05
-1.00703e-05
3.79868e-05
-4.83992e-06
3.98701e-05
-2.71173e-06
3.50531e-05
-3.17322e-06
2.83228e-05
-2.50616e-06
2.37128e-05
2.36332e-07
1.71753e-05
-2.15061e-06
-3.08618e-06
-6.33143e-06
-2.83835e-05
-9.97081e-06
-2.63124e-05
-1.1925e-05
-2.40607e-05
-1.2999e-05
-2.23717e-05
-1.38546e-05
-2.12085e-05
-1.49015e-05
-2.02686e-05
-1.62674e-05
-1.91278e-05
-1.78636e-05
-1.74038e-05
-1.95599e-05
-1.48852e-05
-2.12856e-05
-1.14783e-05
-2.28797e-05
-7.05198e-06
-2.41002e-05
-1.51096e-06
-2.44332e-05
5.22733e-06
-2.31164e-05
1.29307e-05
-1.99428e-05
2.0656e-05
-1.51568e-05
2.7305e-05
-9.12182e-06
3.1952e-05
-2.7592e-06
3.35074e-05
1.19927e-06
3.10947e-05
2.86187e-06
2.666e-05
4.62366e-06
2.19511e-05
7.34303e-06
1.44559e-05
-6.45147e-07
5.83773e-06
-7.22271e-06
-2.11608e-05
-1.19954e-05
-2.15396e-05
-1.51617e-05
-2.08945e-05
-1.73734e-05
-2.01599e-05
-1.91403e-05
-1.94417e-05
-2.07889e-05
-1.86201e-05
-2.24473e-05
-1.74694e-05
-2.40866e-05
-1.57646e-05
-2.5613e-05
-1.33589e-05
-2.6918e-05
-1.01733e-05
-2.78266e-05
-6.14331e-06
-2.80869e-05
-1.25079e-06
-2.73051e-05
4.44544e-06
-2.50343e-05
1.06596e-05
-2.1136e-05
1.67578e-05
-1.58255e-05
2.19944e-05
-9.56949e-06
2.56959e-05
-3.29231e-06
2.72302e-05
1.59135e-06
2.6211e-05
4.86012e-06
2.33913e-05
7.55524e-06
1.9256e-05
9.54484e-06
1.24662e-05
9.19882e-07
7.9798e-06
-7.51418e-06
-1.36464e-05
-1.28765e-05
-1.61773e-05
-1.67703e-05
-1.70004e-05
-1.97053e-05
-1.72248e-05
-2.20666e-05
-1.70804e-05
-2.41054e-05
-1.65815e-05
-2.59334e-05
-1.56414e-05
-2.7548e-05
-1.415e-05
-2.88797e-05
-1.20273e-05
-2.98211e-05
-9.23214e-06
-3.02133e-05
-5.75136e-06
-2.98435e-05
-1.6208e-06
-2.84423e-05
3.04417e-06
-2.57646e-05
7.98184e-06
-2.1764e-05
1.27575e-05
-1.66455e-05
1.68762e-05
-1.08343e-05
1.98847e-05
-5.00402e-06
2.13999e-05
2.2071e-09
2.12048e-05
3.89133e-06
1.95022e-05
6.86293e-06
1.62845e-05
8.51398e-06
1.08154e-05
2.37628e-06
7.05771e-06
-7.27826e-06
-6.36793e-06
-1.27465e-05
-1.07089e-05
-1.6937e-05
-1.28098e-05
-2.02342e-05
-1.39277e-05
-2.29162e-05
-1.43983e-05
-2.51655e-05
-1.43323e-05
-2.70693e-05
-1.37378e-05
-2.86334e-05
-1.2586e-05
-2.98072e-05
-1.08534e-05
-3.05013e-05
-8.53792e-06
-3.05889e-05
-5.66361e-06
-2.99134e-05
-2.29618e-06
-2.8306e-05
1.43689e-06
-2.5644e-05
5.31977e-06
-2.19388e-05
9.052e-06
-1.73695e-05
1.23068e-05
-1.22702e-05
1.47853e-05
-7.1117e-06
1.62414e-05
-2.42621e-06
1.65193e-05
1.47453e-06
1.56016e-05
4.40953e-06
1.33496e-05
5.84007e-06
9.38481e-06
3.49672e-06
4.71962e-06
-6.59306e-06
2.24921e-07
-1.17763e-05
-5.52564e-06
-1.59119e-05
-8.67415e-06
-1.92829e-05
-1.05569e-05
-2.20695e-05
-1.16116e-05
-2.43894e-05
-1.20125e-05
-2.63014e-05
-1.1826e-05
-2.7811e-05
-1.10765e-05
-2.88819e-05
-9.78263e-06
-2.94468e-05
-7.97325e-06
-2.94138e-05
-5.69687e-06
-2.86782e-05
-3.03214e-06
-2.71422e-05
-9.92415e-08
-2.47536e-05
2.93108e-06
-2.15499e-05
5.84832e-06
-1.76774e-05
8.4342e-06
-1.33832e-05
1.04909e-05
-8.9946e-06
1.1853e-05
-4.87153e-06
1.23964e-05
-1.30913e-06
1.20394e-05
1.39238e-06
1.06484e-05
2.72548e-06
8.0518e-06
4.33932e-06
1.88287e-06
-5.61302e-06
5.838e-06
-1.0149e-05
-9.89704e-07
-1.39579e-05
-4.86525e-06
-1.71888e-05
-7.32583e-06
-1.99201e-05
-8.88048e-06
-2.22065e-05
-9.7263e-06
-2.40774e-05
-9.95522e-06
-2.55331e-05
-9.62092e-06
-2.65472e-05
-8.76864e-06
-2.70721e-05
-7.44849e-06
-2.70459e-05
-5.72322e-06
-2.64032e-05
-3.67483e-06
-2.50925e-05
-1.41008e-06
-2.3099e-05
9.37574e-07
-2.04684e-05
3.21763e-06
-1.73153e-05
5.28115e-06
-1.38192e-05
6.99479e-06
-1.02106e-05
8.24445e-06
-6.74866e-06
8.93449e-06
-3.69338e-06
8.98402e-06
-1.34887e-06
8.30382e-06
-1.44485e-07
6.84744e-06
4.87063e-06
-6.75675e-07
-4.31757e-06
1.01558e-05
-8.02784e-06
2.72063e-06
-1.13351e-05
-1.55795e-06
-1.42793e-05
-4.38131e-06
-1.6842e-05
-6.31802e-06
-1.9017e-05
-7.55137e-06
-2.08066e-05
-8.16562e-06
-2.22037e-05
-8.2238e-06
-2.31872e-05
-7.78504e-06
-2.37241e-05
-6.91157e-06
-2.37744e-05
-5.67299e-06
-2.32997e-05
-4.14956e-06
-2.22755e-05
-2.43431e-06
-2.07058e-05
-6.32191e-07
-1.86346e-05
1.14648e-06
-1.61506e-05
2.79708e-06
-1.33838e-05
4.22792e-06
-1.04994e-05
5.36004e-06
-7.68922e-06
6.12439e-06
-5.16654e-06
6.46125e-06
-3.1863e-06
6.32347e-06
-2.06879e-06
5.72989e-06
4.8867e-06
-2.08485e-06
-3.02817e-06
1.31839e-05
-5.70563e-06
5.39827e-06
-8.33696e-06
1.07342e-06
-1.08847e-05
-1.83352e-06
-1.31865e-05
-4.01644e-06
-1.51837e-05
-5.55423e-06
-1.68529e-05
-6.49666e-06
-1.81769e-05
-6.89986e-06
-1.91356e-05
-6.82651e-06
-1.97038e-05
-6.34347e-06
-1.98552e-05
-5.52174e-06
-1.95676e-05
-4.43713e-06
-1.88315e-05
-3.17046e-06
-1.76581e-05
-1.8057e-06
-1.60858e-05
-4.25774e-07
-1.41821e-05
8.93585e-07
-1.20419e-05
2.08765e-06
-9.78373e-06
3.10186e-06
-7.54846e-06
3.88911e-06
-5.49795e-06
4.41071e-06
-3.81981e-06
4.64529e-06
-2.71081e-06
4.62087e-06
4.44959e-06
-2.27368e-06
-1.83824e-06
1.50221e-05
-3.53612e-06
7.09635e-06
-5.29887e-06
2.83625e-06
-7.32645e-06
1.93948e-07
-9.27707e-06
-2.06574e-06
-1.10308e-05
-3.80053e-06
-1.25372e-05
-4.99039e-06
-1.37649e-05
-5.67232e-06
-1.46881e-05
-5.90346e-06
-1.52835e-05
-5.74837e-06
-1.55306e-05
-5.27485e-06
-1.54155e-05
-4.55231e-06
-1.49352e-05
-3.65068e-06
-1.41024e-05
-2.63853e-06
-1.29483e-05
-1.58e-06
-1.15232e-05
-5.31422e-07
-9.89603e-06
4.60454e-07
-8.15154e-06
1.35742e-06
-6.39031e-06
2.12789e-06
-4.72742e-06
2.74777e-06
-3.28862e-06
3.20643e-06
-2.18788e-06
3.5201e-06
3.73254e-06
-1.47082e-06
-5.3449e-07
1.55568e-05
-1.32521e-06
7.88719e-06
-2.41487e-06
3.92613e-06
-3.85034e-06
1.62936e-06
-5.37742e-06
-5.38397e-07
-6.83324e-06
-2.34476e-06
-8.13886e-06
-3.68485e-06
-9.24375e-06
-4.56745e-06
-1.01119e-05
-5.03546e-06
-1.0716e-05
-5.14446e-06
-1.10363e-05
-4.95474e-06
-1.10611e-05
-4.52752e-06
-1.07892e-05
-3.92264e-06
-1.02312e-05
-3.19658e-06
-9.41102e-06
-2.40026e-06
-8.36555e-06
-1.57691e-06
-7.14394e-06
-7.61193e-07
-5.80622e-06
1.96915e-08
-4.42257e-06
7.4426e-07
-3.07154e-06
1.39674e-06
-1.83466e-06
1.96955e-06
-7.80593e-07
2.46606e-06
2.88901e-06
6.29961e-08
1.49641e-06
1.40606e-05
1.20864e-06
8.17493e-06
3.82795e-07
4.75211e-06
-5.66655e-07
2.57877e-06
-1.67266e-06
5.67656e-07
-2.81517e-06
-1.20251e-06
-3.89939e-06
-2.60078e-06
-4.85975e-06
-3.60711e-06
-5.65005e-06
-4.24525e-06
-6.23742e-06
-4.55725e-06
-6.59958e-06
-4.59263e-06
-6.72406e-06
-4.40297e-06
-6.6082e-06
-4.03847e-06
-6.25924e-06
-3.5456e-06
-5.6943e-06
-2.9653e-06
-4.93977e-06
-2.33154e-06
-4.03029e-06
-1.67077e-06
-3.00777e-06
-1.0029e-06
-1.92057e-06
-3.42959e-07
-8.21873e-07
2.98053e-07
2.34642e-07
9.13067e-07
1.20384e-06
1.49691e-06
2.03211e-06
2.0608e-06
3.33157e-06
1.0729e-05
3.54964e-06
7.95693e-06
3.04316e-06
5.2586e-06
2.42239e-06
3.19966e-06
1.66637e-06
1.32354e-06
8.18583e-07
-3.55028e-07
-3.81723e-08
-1.74417e-06
-8.35928e-07
-2.80945e-06
-1.52363e-06
-3.55769e-06
-2.06425e-06
-4.01677e-06
-2.43252e-06
-4.22443e-06
-2.61356e-06
-4.22192e-06
-2.60186e-06
-4.05011e-06
-2.4007e-06
-3.74677e-06
-2.02127e-06
-3.34482e-06
-1.48171e-06
-2.87123e-06
-8.06096e-07
-2.34653e-06
-2.3516e-08
-1.7856e-06
8.32622e-07
-1.19918e-06
1.7259e-06
-5.95285e-07
2.61951e-06
1.9395e-08
3.4804e-06
6.35957e-07
1.2299e-06
4.28254e-06
3.67811e-06
7.05083e-06
4.85831e-06
6.77707e-06
4.99835e-06
5.11845e-06
4.79428e-06
3.40395e-06
4.3893e-06
1.72836e-06
3.84581e-06
1.88275e-07
3.23639e-06
-1.13485e-06
2.62774e-06
-2.20096e-06
2.07358e-06
-3.00376e-06
1.61444e-06
-3.5578e-06
1.27887e-06
-3.88897e-06
1.08501e-06
-4.02815e-06
1.04193e-06
-4.00705e-06
1.15061e-06
-3.85545e-06
1.4051e-06
-3.59936e-06
1.79376e-06
-3.25997e-06
2.3003e-06
-2.85317e-06
2.90472e-06
-2.39009e-06
3.58383e-06
-1.87835e-06
4.31203e-06
-1.32357e-06
5.06261e-06
-7.31317e-07
5.80908e-06
-1.10655e-07
5.14176e-07
6.52466e-06
3.12741e-06
3.92342e-06
4.99507e-06
4.90971e-06
5.87683e-06
4.23654e-06
6.23565e-06
3.0451e-06
6.26617e-06
1.69759e-06
6.0775e-06
3.7679e-07
5.75607e-06
-8.13537e-07
5.37452e-06
-1.81963e-06
4.99145e-06
-2.62093e-06
4.65203e-06
-3.21851e-06
4.38916e-06
-3.62616e-06
4.22506e-06
-3.86416e-06
4.17301e-06
-3.95506e-06
4.23844e-06
-3.92088e-06
4.42028e-06
-3.7812e-06
4.71225e-06
-3.55194e-06
5.104e-06
-3.24493e-06
5.58199e-06
-2.86809e-06
6.12998e-06
-2.42635e-06
6.72947e-06
-1.92308e-06
7.36013e-06
-1.36203e-06
7.99984e-06
-7.50419e-07
-1.0883e-07
8.62282e-06
2.45283e-06
1.47079e-06
4.52848e-06
2.83405e-06
5.92675e-06
2.8382e-06
6.796e-06
2.17556e-06
7.27052e-06
1.22278e-06
7.45891e-06
1.88286e-07
7.45249e-06
-8.07227e-07
7.32802e-06
-1.6953e-06
7.14829e-06
-2.44127e-06
6.96275e-06
-3.03292e-06
6.80859e-06
-3.47192e-06
6.71236e-06
-3.76792e-06
6.69161e-06
-3.93433e-06
6.75618e-06
-3.98545e-06
6.9095e-06
-3.93451e-06
7.14992e-06
-3.79238e-06
7.47182e-06
-3.5669e-06
7.86655e-06
-3.26286e-06
8.32283e-06
-2.88266e-06
8.82708e-06
-2.42735e-06
9.36345e-06
-1.89841e-06
9.91343e-06
-1.30039e-06
-6.49003e-07
1.04536e-05
1.9708e-06
-4.99725e-07
3.95163e-06
8.53045e-07
5.55585e-06
1.23406e-06
6.74658e-06
9.8459e-07
7.56728e-06
4.01965e-07
8.08676e-06
-3.31155e-07
8.3787e-06
-1.09912e-06
8.51226e-06
-1.82879e-06
8.54785e-06
-2.4767e-06
8.53537e-06
-3.0202e-06
8.51415e-06
-3.4505e-06
8.51374e-06
-3.76747e-06
8.5552e-06
-3.97583e-06
8.65214e-06
-4.08245e-06
8.81191e-06
-4.09435e-06
9.03679e-06
-4.01736e-06
9.32509e-06
-3.85534e-06
9.67197e-06
-3.6099e-06
1.007e-05
-3.2808e-06
1.05092e-05
-2.86672e-06
1.09774e-05
-2.36669e-06
1.14593e-05
-1.78238e-06
-1.12457e-06
1.19348e-05
1.66667e-06
-2.16632e-06
3.45101e-06
-9.31323e-07
5.04936e-06
-3.64172e-07
6.36877e-06
-3.34874e-07
7.39333e-06
-6.22501e-07
8.14838e-06
-1.08608e-06
8.67901e-06
-1.62961e-06
9.03684e-06
-2.18641e-06
9.27224e-06
-2.71185e-06
9.43021e-06
-3.17791e-06
9.54845e-06
-3.56859e-06
9.65705e-06
-3.87606e-06
9.7788e-06
-4.09766e-06
9.92981e-06
-4.23356e-06
1.01204e-05
-4.285e-06
1.03559e-05
-4.25297e-06
1.06377e-05
-4.13736e-06
1.09643e-05
-3.9366e-06
1.1331e-05
-3.64772e-06
1.17311e-05
-3.26699e-06
1.21552e-05
-2.79098e-06
1.25911e-05
-2.21855e-06
-1.55612e-06
1.30225e-05
1.45933e-06
-3.62579e-06
3.03842e-06
-2.51021e-06
4.53148e-06
-1.85715e-06
5.84912e-06
-1.6524e-06
6.95274e-06
-1.72595e-06
7.83959e-06
-1.97286e-06
8.52964e-06
-2.31957e-06
9.05495e-06
-2.71157e-06
9.45214e-06
-3.10885e-06
9.7574e-06
-3.48302e-06
1.00035e-05
-3.81463e-06
1.02184e-05
-4.09093e-06
1.04244e-05
-4.30375e-06
1.06386e-05
-4.44781e-06
1.08729e-05
-4.51935e-06
1.11348e-05
-4.51495e-06
1.14281e-05
-4.43077e-06
1.17535e-05
-4.26209e-06
1.2109e-05
-4.00331e-06
1.24901e-05
-3.64828e-06
1.28902e-05
-3.19123e-06
1.33e-05
-2.62849e-06
-1.96281e-06
1.37066e-05
1.28859e-06
-4.91441e-06
2.67785e-06
-3.89913e-06
4.03231e-06
-3.21151e-06
5.27964e-06
-2.89947e-06
6.37858e-06
-2.82474e-06
7.31358e-06
-2.90787e-06
8.08829e-06
-3.09429e-06
8.7191e-06
-3.34232e-06
9.2296e-06
-3.61929e-06
9.64631e-06
-3.89969e-06
9.99546e-06
-4.16375e-06
1.03009e-05
-4.39636e-06
1.0583e-05
-4.58583e-06
1.08581e-05
-4.72291e-06
1.11385e-05
-4.79983e-06
1.14329e-05
-4.80943e-06
1.17466e-05
-4.74454e-06
1.2082e-05
-4.59757e-06
1.2439e-05
-4.36038e-06
1.28153e-05
-4.0246e-06
1.32063e-05
-3.58231e-06
1.36054e-05
-3.02762e-06
-2.36035e-06
1.40029e-05
1.1271e-06
-6.04128e-06
2.3418e-06
-5.11355e-06
3.55204e-06
-4.42156e-06
4.6991e-06
-4.04616e-06
5.74551e-06
-3.87103e-06
6.67175e-06
-3.83413e-06
7.47274e-06
-3.89529e-06
8.15446e-06
-4.02406e-06
8.73065e-06
-4.19552e-06
9.21946e-06
-4.38851e-06
9.64058e-06
-4.58488e-06
1.00133e-05
-4.76902e-06
1.03549e-05
-4.92742e-06
1.06802e-05
-5.0482e-06
1.10009e-05
-5.12063e-06
1.1326e-05
-5.13458e-06
1.16615e-05
-5.0801e-06
1.20109e-05
-4.94709e-06
1.23756e-05
-4.7252e-06
1.2755e-05
-4.40401e-06
1.31464e-05
-3.97373e-06
1.35453e-05
-3.42658e-06
-2.76004e-06
1.3945e-05
9.66959e-07
-7.00797e-06
2.01886e-06
-6.16534e-06
3.0883e-06
-5.49078e-06
4.12424e-06
-5.0818e-06
5.09337e-06
-4.84012e-06
5.97569e-06
-4.71641e-06
6.76198e-06
-4.68152e-06
7.45226e-06
-4.71434e-06
8.05375e-06
-4.79701e-06
8.57832e-06
-4.91307e-06
9.04028e-06
-5.0468e-06
9.45454e-06
-5.18324e-06
9.83534e-06
-5.30818e-06
1.01954e-05
-5.40822e-06
1.05453e-05
-5.47058e-06
1.08936e-05
-5.48294e-06
1.12466e-05
-5.43317e-06
1.16085e-05
-5.30911e-06
1.19818e-05
-5.09851e-06
1.23669e-05
-4.78928e-06
1.27631e-05
-4.36995e-06
1.31677e-05
-3.83119e-06
-3.16855e-06
1.35761e-05
8.09495e-07
-7.81737e-06
1.70813e-06
-7.06403e-06
2.64226e-06
-6.4247e-06
3.5645e-06
-6.00395e-06
4.4443e-06
-5.71992e-06
5.26191e-06
-5.5339e-06
6.00637e-06
-5.42584e-06
6.67463e-06
-5.38252e-06
7.27e-06
-5.39231e-06
7.80018e-06
-5.44312e-06
8.27538e-06
-5.52187e-06
8.70696e-06
-5.61473e-06
9.10632e-06
-5.7075e-06
9.48406e-06
-5.78595e-06
9.84952e-06
-5.83603e-06
1.02105e-05
-5.84391e-06
1.05731e-05
-5.79583e-06
1.0942e-05
-5.67809e-06
1.13204e-05
-5.47694e-06
1.171e-05
-5.17888e-06
1.21111e-05
-4.77112e-06
1.25227e-05
-4.24297e-06
-3.58838e-06
1.29424e-05
6.59215e-07
-8.47666e-06
1.41324e-06
-7.8181e-06
2.21756e-06
-7.22886e-06
3.0269e-06
-6.81337e-06
3.81187e-06
-6.50488e-06
4.55268e-06
-6.27456e-06
5.23777e-06
-6.11078e-06
5.86277e-06
-6.00741e-06
6.42892e-06
-5.9583e-06
6.94121e-06
-5.95523e-06
7.40704e-06
-5.98755e-06
7.83501e-06
-6.04264e-06
8.23414e-06
-6.10663e-06
8.61314e-06
-6.16498e-06
8.98e-06
-6.20292e-06
9.34171e-06
-6.20562e-06
9.70416e-06
-6.15829e-06
1.00722e-05
-6.0461e-06
1.04495e-05
-5.85425e-06
1.08387e-05
-5.56817e-06
1.12415e-05
-5.17402e-06
1.16584e-05
-4.65997e-06
-4.01853e-06
1.20884e-05
5.19734e-07
-8.9965e-06
1.13736e-06
-8.43565e-06
1.81754e-06
-7.90898e-06
2.51679e-06
-7.51275e-06
3.20518e-06
-7.19322e-06
3.86246e-06
-6.93174e-06
4.47708e-06
-6.72536e-06
5.04444e-06
-6.57474e-06
5.56484e-06
-6.47859e-06
6.04172e-06
-6.43198e-06
6.48053e-06
-6.42628e-06
6.88783e-06
-6.44997e-06
7.27072e-06
-6.48961e-06
7.63626e-06
-6.53063e-06
7.9912e-06
-6.55794e-06
8.34174e-06
-6.5562e-06
8.69345e-06
-6.51e-06
9.05123e-06
-6.40388e-06
9.41932e-06
-6.22235e-06
9.80126e-06
-5.95016e-06
1.01999e-05
-5.57271e-06
1.0617e-05
-5.07728e-06
-4.45506e-06
1.10534e-05
3.90786e-07
-9.38727e-06
8.79512e-07
-8.92422e-06
1.44301e-06
-8.47249e-06
2.03758e-06
-8.10733e-06
2.63067e-06
-7.78621e-06
3.20138e-06
-7.50245e-06
3.73885e-06
-7.26292e-06
4.23908e-06
-7.07501e-06
4.70224e-06
-6.94174e-06
5.13099e-06
-6.8607e-06
5.52946e-06
-6.82479e-06
5.90269e-06
-6.82332e-06
6.2562e-06
-6.84327e-06
6.59567e-06
-6.87024e-06
6.92674e-06
-6.88908e-06
7.25486e-06
-6.88435e-06
7.58523e-06
-6.84039e-06
7.92282e-06
-6.74148e-06
8.27231e-06
-6.57188e-06
8.63812e-06
-6.31602e-06
9.02427e-06
-5.95893e-06
9.43422e-06
-5.48731e-06
-4.89123e-06
9.87034e-06
2.64791e-07
-9.65195e-06
6.32056e-07
-9.29141e-06
1.09117e-06
-8.93161e-06
1.59069e-06
-8.60668e-06
2.09298e-06
-8.28838e-06
2.57706e-06
-7.9866e-06
3.0339e-06
-7.71987e-06
3.46103e-06
-7.5022e-06
3.85921e-06
-7.33995e-06
4.23083e-06
-7.23237e-06
4.57914e-06
-7.17321e-06
4.90801e-06
-7.15232e-06
5.22165e-06
-7.15704e-06
5.52456e-06
-7.17321e-06
5.82135e-06
-7.1859e-06
6.11676e-06
-7.17975e-06
6.41562e-06
-7.13925e-06
6.72287e-06
-7.04875e-06
7.04358e-06
-6.89263e-06
7.38293e-06
-6.65543e-06
7.74622e-06
-6.32226e-06