/*--------------------------------*- C++ -*----------------------------------*\
| =========                 |                                                 |
| \\      /  F ield         | OpenFOAM: The Open Source CFD Toolbox           |
|  \\    /   O peration     | Version:  2.3.0                                 |
|   \\  /    A nd           | Web:      www.OpenFOAM.org                      |
|    \\/     M anipulation  |                                                 |
\*---------------------------------------------------------------------------*/
FoamFile
{
    version     2.0;
    format      ascii;
    class       volVectorField;
    location    "1.8";
    object      U;
}
// * * * * * * * * * * * * * * * * * * * * * * * * * * * * * * * * * * * * * //

dimensions      [0 1 -1 0 0 0 0];

internalField   nonuniform List<vector> 
2268
(
(-0.0163678 0.00460673 0)
(-0.0123843 -0.00284013 0)
(-0.000937525 -0.00508035 0)
(0.0105466 -0.00452113 0)
(0.0207237 -0.00360679 0)
(0.0289924 -0.00282866 0)
(0.0356578 -0.0023026 0)
(0.0412795 -0.00202011 0)
(0.0463534 -0.00191551 0)
(0.0512121 -0.00190847 0)
(0.0560166 -0.00192362 0)
(0.0607425 -0.00188074 0)
(0.0651556 -0.00170229 0)
(0.0688016 -0.00129958 0)
(0.0709743 -0.000534727 0)
(0.0705809 0.000779451 0)
(0.0658133 0.00288612 0)
(0.0554766 0.00586271 0)
(0.0339238 0.0116907 0)
(-0.000950209 0.0155127 0)
(-0.0437601 0.0138634 0)
(-0.0739585 -0.00153862 0)
(-0.0383669 -0.0233181 0)
(-0.0079388 0.00894517 0)
(-0.000529856 -0.00478903 0)
(0.00810117 -0.00828702 0)
(0.0170912 -0.00790061 0)
(0.0254615 -0.00666472 0)
(0.0327964 -0.00546764 0)
(0.039154 -0.00457554 0)
(0.0447945 -0.00403005 0)
(0.0499988 -0.00376238 0)
(0.0549767 -0.00366347 0)
(0.0598393 -0.00361316 0)
(0.0645566 -0.00346597 0)
(0.0689154 -0.00306455 0)
(0.0725108 -0.00223171 0)
(0.0747291 -0.000740333 0)
(0.0748357 0.00171742 0)
(0.0717281 0.00548651 0)
(0.0640458 0.0109486 0)
(0.0495214 0.0199941 0)
(0.0266381 0.0267204 0)
(-0.00246561 0.0248457 0)
(-0.0298916 0.00382784 0)
(-0.01666 -0.0405174 0)
(0.00175565 0.00814264 0)
(0.00714177 -0.0077397 0)
(0.0142297 -0.0117001 0)
(0.0217256 -0.0113175 0)
(0.0290226 -0.00984293 0)
(0.0357457 -0.00833217 0)
(0.0418035 -0.00714691 0)
(0.0472933 -0.00637901 0)
(0.0523805 -0.00596602 0)
(0.0572116 -0.00577831 0)
(0.0618795 -0.00565637 0)
(0.0663684 -0.00539237 0)
(0.0705001 -0.00475292 0)
(0.0739274 -0.00348302 0)
(0.0761413 -0.00128826 0)
(0.0765246 0.00222318 0)
(0.0742818 0.00747629 0)
(0.0684209 0.0150132 0)
(0.0587338 0.026017 0)
(0.044882 0.0349405 0)
(0.0268357 0.0339509 0)
(0.00338764 0.0109583 0)
(0.00357724 -0.0438848 0)
(0.00743621 0.00440253 0)
(0.0125309 -0.0107236 0)
(0.0189811 -0.01489 0)
(0.0257339 -0.0145873 0)
(0.032425 -0.0129757 0)
(0.0387479 -0.0112186 0)
(0.0445348 -0.00976893 0)
(0.0497922 -0.00877806 0)
(0.0546222 -0.00820181 0)
(0.0591413 -0.00790289 0)
(0.0634491 -0.0076927 0)
(0.0675634 -0.00730598 0)
(0.0713571 -0.00643695 0)
(0.0745525 -0.00475991 0)
(0.0767507 -0.00192336 0)
(0.0774873 0.00250685 0)
(0.07624 0.00900981 0)
(0.0723972 0.0181051 0)
(0.0664809 0.0302181 0)
(0.058733 0.0406585 0)
(0.0478226 0.0412547 0)
(0.0295592 0.0189654 0)
(0.0209031 -0.037225 0)
(0.00979315 -0.00094859 0)
(0.0161063 -0.0140034 0)
(0.0227602 -0.0179631 0)
(0.0294028 -0.0177075 0)
(0.0358823 -0.015999 0)
(0.0419917 -0.0140302 0)
(0.0475436 -0.0123226 0)
(0.0525031 -0.0110923 0)
(0.0569483 -0.0103237 0)
(0.0609932 -0.0098851 0)
(0.0647674 -0.00957239 0)
(0.0683444 -0.00907088 0)
(0.0716657 -0.00800865 0)
(0.0745363 -0.00599937 0)
(0.076675 -0.00265554 0)
(0.0777845 0.00246672 0)
(0.0776003 0.00985061 0)
(0.0758624 0.0199102 0)
(0.0731977 0.0325542 0)
(0.0700781 0.0438496 0)
(0.0642607 0.046452 0)
(0.0510907 0.0281692 0)
(0.0354761 -0.023016 0)
(0.0104568 -0.00710089 0)
(0.0184008 -0.0177946 0)
(0.0258251 -0.0211716 0)
(0.0328483 -0.0208255 0)
(0.039454 -0.0189718 0)
(0.0455249 -0.0167592 0)
(0.0508857 -0.0147523 0)
(0.0554961 -0.0132334 0)
(0.0594419 -0.012222 0)
(0.0628579 -0.0116042 0)
(0.0659248 -0.0111744 0)
(0.0687927 -0.0105767 0)
(0.0714891 -0.0093787 0)
(0.0739158 -0.00714226 0)
(0.0759157 -0.00346391 0)
(0.0773638 0.00208187 0)
(0.0782295 0.00994468 0)
(0.078535 0.0204279 0)
(0.0788898 0.0331541 0)
(0.0796636 0.0448734 0)
(0.0781581 0.049686 0)
(0.0705661 0.038034 0)
(0.0492611 -0.000276677 0)
(0.0104491 -0.0136313 0)
(0.0198864 -0.0221935 0)
(0.0283462 -0.0247274 0)
(0.0360887 -0.024111 0)
(0.0430961 -0.0219921 0)
(0.0492874 -0.0194381 0)
(0.0545097 -0.0170382 0)
(0.0587407 -0.0151452 0)
(0.0620992 -0.0138166 0)
(0.0647591 -0.0129654 0)
(0.0669677 -0.0123991 0)
(0.0689674 -0.0117281 0)
(0.0708878 -0.0104643 0)
(0.0727407 -0.00812419 0)
(0.0744996 -0.00430391 0)
(0.0762136 0.00138064 0)
(0.0780655 0.00932943 0)
(0.080297 0.0197658 0)
(0.0834971 0.0321826 0)
(0.0879429 0.0439821 0)
(0.090903 0.0507823 0)
(0.0898864 0.0477168 0)
(0.0660897 0.0351874 0)
(0.0104478 -0.0204678 0)
(0.0208557 -0.0272843 0)
(0.0303827 -0.0288699 0)
(0.0390317 -0.027815 0)
(0.0466354 -0.0252604 0)
(0.0530723 -0.022196 0)
(0.0582103 -0.019237 0)
(0.0620606 -0.0168249 0)
(0.0647935 -0.0150602 0)
(0.066633 -0.0138883 0)
(0.0678978 -0.0131449 0)
(0.068927 -0.0124102 0)
(0.0699589 -0.0111509 0)
(0.0711279 -0.0088446 0)
(0.0725478 -0.00510838 0)
(0.074446 0.000391202 0)
(0.0772045 0.0080087 0)
(0.0812394 0.017918 0)
(0.0871513 0.0295791 0)
(0.0952463 0.0409326 0)
(0.10347 0.0488451 0)
(0.109529 0.0529909 0)
(0.104315 0.0809163 0)
(-0.0975861 0.0255017 0)
(-0.122323 -0.00236092 0)
(-0.0499505 -0.0381655 0)
(0.0599191 -0.0430692 0)
(0.171521 -0.0371154 0)
(0.262844 -0.027438 0)
(0.325468 -0.0178291 0)
(0.358138 -0.00878915 0)
(0.366055 -0.00155034 0)
(0.353361 0.0051756 0)
(0.319726 0.0148621 0)
(0.254425 0.0233911 0)
(0.164374 0.0227241 0)
(0.0872254 0.0187374 0)
(0.0382633 0.0124595 0)
(0.00389052 0.0101433 0)
(-0.0327126 0.00909526 0)
(-0.0509577 -0.00323701 0)
(-0.0253741 -0.0149034 0)
(-0.0899999 0.0596785 0)
(-0.0549072 -0.00776076 0)
(0.0186922 -0.0639202 0)
(0.117865 -0.0760537 0)
(0.212224 -0.0660494 0)
(0.286969 -0.0479902 0)
(0.335983 -0.028888 0)
(0.357357 -0.0111962 0)
(0.356954 0.00181852 0)
(0.346728 0.0135746 0)
(0.327378 0.0307481 0)
(0.282848 0.0492821 0)
(0.198763 0.0534077 0)
(0.115939 0.0445241 0)
(0.0644259 0.029522 0)
(0.0317868 0.0217838 0)
(0.00163291 0.0192867 0)
(-0.0201263 0.00195055 0)
(-0.016175 -0.0248181 0)
(-0.0564051 0.0779287 0)
(0.000500092 -0.0303617 0)
(0.0783789 -0.0988259 0)
(0.164263 -0.111761 0)
(0.239554 -0.0960467 0)
(0.297975 -0.0694317 0)
(0.336996 -0.0407278 0)
(0.351336 -0.0132824 0)
(0.344129 0.00532362 0)
(0.327281 0.0206698 0)
(0.303928 0.0437156 0)
(0.264808 0.0724524 0)
(0.196058 0.0840832 0)
(0.124889 0.069315 0)
(0.0813176 0.0458584 0)
(0.0540481 0.0329749 0)
(0.0296583 0.0286843 0)
(0.00636058 0.00855451 0)
(-0.00181828 -0.0289966 0)
(-0.0231404 0.0815994 0)
(0.0567625 -0.0586175 0)
(0.135672 -0.133296 0)
(0.205833 -0.142423 0)
(0.26153 -0.120581 0)
(0.303494 -0.0875327 0)
(0.332975 -0.0511812 0)
(0.342813 -0.0135463 0)
(0.331416 0.011262 0)
(0.310192 0.0296315 0)
(0.284294 0.0567046 0)
(0.248372 0.092232 0)
(0.192699 0.10972 0)
(0.133666 0.0913516 0)
(0.0966353 0.0597209 0)
(0.0740948 0.0429773 0)
(0.0537744 0.0378119 0)
(0.0300052 0.0174686 0)
(0.0121333 -0.024165 0)
(0.0106596 0.0672709 0)
(0.115855 -0.0926533 0)
(0.190872 -0.164398 0)
(0.243814 -0.165688 0)
(0.280032 -0.137378 0)
(0.305294 -0.0996013 0)
(0.323739 -0.0584976 0)
(0.330006 -0.0125538 0)
(0.317336 0.0187677 0)
(0.293407 0.0396353 0)
(0.267115 0.0696955 0)
(0.236295 0.109829 0)
(0.193967 0.130977 0)
(0.146677 0.109624 0)
(0.114404 0.0711351 0)
(0.0944339 0.0517656 0)
(0.075554 0.0463688 0)
(0.0506637 0.0289411 0)
(0.0247503 -0.0123315 0)
(0.0546754 0.0348567 0)
(0.180195 -0.132028 0)
(0.243438 -0.190154 0)
(0.277159 -0.181034 0)
(0.294187 -0.146814 0)
(0.303064 -0.105697 0)
(0.309875 -0.0621691 0)
(0.311619 -0.0111396 0)
(0.299786 0.0275842 0)
(0.275887 0.0505359 0)
(0.25199 0.0818506 0)
(0.228669 0.124068 0)
(0.200319 0.147629 0)
(0.165165 0.126195 0)
(0.136471 0.0813825 0)
(0.116687 0.0601695 0)
(0.0965303 0.0554334 0)
(0.0689408 0.0428069 0)
(0.0361879 0.00574982 0)
(0.129489 -0.0434373 0)
(0.247128 -0.174387 0)
(0.28876 -0.207213 0)
(0.303168 -0.187463 0)
(0.302247 -0.148518 0)
(0.296021 -0.106021 0)
(0.291884 -0.0620408 0)
(0.288703 -0.00905577 0)
(0.278491 0.0354111 0)
(0.259145 0.0602165 0)
(0.240756 0.0908226 0)
(0.224659 0.133026 0)
(0.207203 0.158064 0)
(0.185486 0.138941 0)
(0.161971 0.0914283 0)
(0.140291 0.0692631 0)
(0.117309 0.0659382 0)
(0.0858099 0.0591936 0)
(0.046645 0.0295391 0)
(0.240676 -0.149207 0)
(0.306753 -0.209799 0)
(0.322096 -0.214041 0)
(0.3202 -0.185207 0)
(0.303237 -0.142684 0)
(0.283435 -0.100666 0)
(0.270294 -0.0585393 0)
(0.263443 -0.00626533 0)
(0.25563 0.0407771 0)
(0.243302 0.0669065 0)
(0.231898 0.0964754 0)
(0.222745 0.138293 0)
(0.214074 0.163674 0)
(0.203427 0.145741 0)
(0.185717 0.101256 0)
(0.162811 0.0792565 0)
(0.137084 0.0778601 0)
(0.101116 0.0778408 0)
(0.0561419 0.0579041 0)
(0.0106748 -0.0314475 0)
(0.0214584 -0.0364675 0)
(0.0325103 -0.0365983 0)
(0.042755 -0.0345771 0)
(0.0515021 -0.030999 0)
(0.0584751 -0.0267936 0)
(0.0635797 -0.0226124 0)
(0.0669056 -0.0190968 0)
(0.0687327 -0.0164136 0)
(0.0693814 -0.0145638 0)
(0.0692697 -0.0134486 0)
(0.0688527 -0.0125922 0)
(0.0685097 -0.0114276 0)
(0.0685663 -0.00940134 0)
(0.0693883 -0.00619821 0)
(0.0715078 -0.00157861 0)
(0.0756117 0.00480963 0)
(0.0823299 0.0130414 0)
(0.0923106 0.0226635 0)
(0.106071 0.0321414 0)
(0.123587 0.0394931 0)
(0.146275 0.0460007 0)
(0.188806 0.0614018 0)
(0.00993942 -0.0452954 0)
(0.0194891 -0.0491683 0)
(0.0319259 -0.0478572 0)
(0.0441276 -0.0442387 0)
(0.0544339 -0.0387715 0)
(0.0622764 -0.0326963 0)
(0.067636 -0.0266719 0)
(0.0707232 -0.0216723 0)
(0.072049 -0.0178392 0)
(0.0721764 -0.0151622 0)
(0.0715457 -0.0135728 0)
(0.07046 -0.0125569 0)
(0.0691544 -0.0115559 0)
(0.0680634 -0.010073 0)
(0.068192 -0.00806546 0)
(0.0707492 -0.0055814 0)
(0.0767388 -0.00241971 0)
(0.086968 0.00156615 0)
(0.10202 0.00616148 0)
(0.122193 0.0101357 0)
(0.147793 0.0108944 0)
(0.181055 0.00412741 0)
(0.229033 -0.0163532 0)
(0.0123191 -0.056472 0)
(0.0164368 -0.0587141 0)
(0.0280452 -0.0581386 0)
(0.0404688 -0.0536907 0)
(0.0516565 -0.0459495 0)
(0.0605433 -0.0378526 0)
(0.066673 -0.0296046 0)
(0.0699296 -0.0228616 0)
(0.0713169 -0.0174506 0)
(0.0726251 -0.013597 0)
(0.0741454 -0.0112892 0)
(0.0752761 -0.0102759 0)
(0.0743773 -0.00997358 0)
(0.0713584 -0.00963709 0)
(0.069726 -0.00941822 0)
(0.0726484 -0.00949498 0)
(0.0809038 -0.00942575 0)
(0.0946369 -0.00902019 0)
(0.114051 -0.00893401 0)
(0.139123 -0.0104842 0)
(0.170345 -0.0166604 0)
(0.209282 -0.0331169 0)
(0.257114 -0.0605294 0)
(0.0494069 -0.073956 0)
(0.0251021 -0.0587629 0)
(0.0221203 -0.0640635 0)
(0.0275797 -0.0647469 0)
(0.0383581 -0.0544637 0)
(0.0494546 -0.0450289 0)
(0.057276 -0.0312356 0)
(0.0595932 -0.0218935 0)
(0.0600333 -0.0157848 0)
(0.0689035 -0.0144368 0)
(0.0838852 -0.0118503 0)
(0.100405 -0.00838101 0)
(0.103724 -0.00346561 0)
(0.0879525 -0.00466474 0)
(0.0760677 -0.00862751 0)
(0.074452 -0.0115934 0)
(0.0809009 -0.0139442 0)
(0.0954522 -0.0172846 0)
(0.118758 -0.0226528 0)
(0.149366 -0.0297911 0)
(0.187116 -0.0412959 0)
(0.227561 -0.0643971 0)
(0.266926 -0.095368 0)
(0.036775 -0.117317 0)
(0.0472195 -0.0681912 0)
(0.0431474 -0.0675529 0)
(0.0414333 -0.0856414 0)
(0.0440657 -0.0777851 0)
(0.0539984 -0.0698957 0)
(0.067957 -0.0529298 0)
(0.0927702 -0.0357343 0)
(0.123487 -0.0341879 0)
(0.161343 -0.0505228 0)
(0.208022 -0.0560257 0)
(0.255239 -0.051687 0)
(0.294621 -0.0304318 0)
(0.333976 0.0223791 0)
(0.281698 0.0266668 0)
(0.195972 -0.00734119 0)
(0.148014 -0.034886 0)
(0.105734 -0.0543445 0)
(0.117638 -0.0614214 0)
(0.144237 -0.0722382 0)
(0.182037 -0.0806749 0)
(0.223931 -0.0936005 0)
(0.227526 -0.112308 0)
(0.0224036 -0.150893 0)
(0.0593278 -0.0859626 0)
(0.0894584 -0.0557031 0)
(0.0668566 -0.0664532 0)
(0.0524129 -0.0677268 0)
(0.0685849 -0.0697128 0)
(0.0955624 -0.0694652 0)
(0.124461 -0.0660966 0)
(0.153379 -0.0713803 0)
(0.182935 -0.0892264 0)
(0.215932 -0.0966946 0)
(0.243017 -0.083378 0)
(0.254418 -0.0406148 0)
(0.253163 0.0507948 0)
(0.214267 0.102281 0)
(0.16237 0.069359 0)
(0.114732 0.0529861 0)
(0.0233962 0.0200249 0)
(-0.101844 -0.0827057 0)
(-0.143018 -0.129263 0)
(-0.185047 -0.127471 0)
(-0.325607 -0.104003 0)
(-0.443151 -0.106268 0)
(0.0260341 -0.189291 0)
(0.0577707 -0.125661 0)
(0.0797061 -0.0696149 0)
(0.0975018 -0.0387051 0)
(0.105052 -0.0720671 0)
(0.108747 -0.0907874 0)
(0.114646 -0.0923527 0)
(0.135302 -0.0800717 0)
(0.160607 -0.0829063 0)
(0.179441 -0.112937 0)
(0.189187 -0.118545 0)
(0.18918 -0.0935547 0)
(0.172234 -0.0427406 0)
(0.15365 0.0639947 0)
(0.142225 0.119586 0)
(0.119238 0.114275 0)
(0.0772659 0.116794 0)
(0.00059272 0.13851 0)
(-0.127773 0.0536235 0)
(-0.18936 -0.0207983 0)
(-0.245912 -0.00304169 0)
(-0.332126 0.0520347 0)
(-0.340323 -0.0892562 0)
(-0.000826888 -0.226997 0)
(0.0300986 -0.152979 0)
(0.0545516 -0.100142 0)
(0.0818703 -0.0760059 0)
(0.102649 -0.0857547 0)
(0.114036 -0.105485 0)
(0.122765 -0.121679 0)
(0.134169 -0.122422 0)
(0.146836 -0.114996 0)
(0.154567 -0.120831 0)
(0.137441 -0.117441 0)
(0.102952 -0.0821664 0)
(0.084729 -0.0176207 0)
(0.0807344 0.0680849 0)
(0.0812749 0.125851 0)
(0.0648041 0.148848 0)
(0.0252945 0.172591 0)
(-0.0288112 0.22015 0)
(-0.105405 0.147914 0)
(-0.175811 0.0490468 0)
(-0.234883 0.0555389 0)
(-0.285268 0.0651933 0)
(-0.283673 -0.105827 0)
(-0.0088619 -0.230289 0)
(0.00503071 -0.168044 0)
(0.0221897 -0.124899 0)
(0.0445408 -0.103022 0)
(0.0635901 -0.101861 0)
(0.0748824 -0.109894 0)
(0.080042 -0.117456 0)
(0.0820059 -0.117959 0)
(0.0806912 -0.11269 0)
(0.0714126 -0.105152 0)
(0.0513276 -0.0839029 0)
(0.0304136 -0.0505656 0)
(0.0157736 -0.00439735 0)
(0.0106581 0.0690015 0)
(0.0101203 0.134554 0)
(-0.00526956 0.179461 0)
(-0.0364907 0.221169 0)
(-0.0575852 0.258323 0)
(-0.0793197 0.201713 0)
(-0.113788 0.120052 0)
(-0.159046 0.110599 0)
(-0.184628 0.110674 0)
(-0.208525 -0.102469 0)
(-0.0182871 -0.222584 0)
(-0.0162396 -0.174884 0)
(-0.00974605 -0.139993 0)
(0.00222687 -0.120483 0)
(0.0137064 -0.114443 0)
(0.020249 -0.115595 0)
(0.021231 -0.117064 0)
(0.0179858 -0.113313 0)
(0.0114343 -0.103227 0)
(0.000812349 -0.088169 0)
(-0.013624 -0.0652991 0)
(-0.0303117 -0.0351877 0)
(-0.0483668 0.00739586 0)
(-0.0593563 0.0725612 0)
(-0.0613846 0.140421 0)
(-0.0628266 0.195776 0)
(-0.0640797 0.2377 0)
(-0.0544073 0.255066 0)
(-0.046442 0.205636 0)
(-0.0559185 0.147998 0)
(-0.0730659 0.134081 0)
(-0.0722017 0.118772 0)
(-0.0987102 -0.0538339 0)
(-0.0255839 -0.201502 0)
(-0.0340817 -0.169165 0)
(-0.0380047 -0.143517 0)
(-0.036559 -0.127475 0)
(-0.0337064 -0.119796 0)
(-0.0331347 -0.11671 0)
(-0.0362816 -0.113657 0)
(-0.0427063 -0.10663 0)
(-0.0512577 -0.0940815 0)
(-0.0616744 -0.0761344 0)
(-0.073786 -0.0514403 0)
(-0.0868639 -0.0191079 0)
(-0.0991235 0.023515 0)
(-0.104604 0.0783474 0)
(-0.0996734 0.135849 0)
(-0.0866471 0.185062 0)
(-0.0669288 0.220601 0)
(-0.0382726 0.232169 0)
(-0.0163777 0.197578 0)
(-0.0149468 0.154647 0)
(-0.0188582 0.133305 0)
(-0.00364282 0.104905 0)
(-0.000300445 -0.0106356 0)
(-0.0304417 -0.170711 0)
(-0.0472924 -0.153326 0)
(-0.0598681 -0.136875 0)
(-0.0672554 -0.125297 0)
(-0.0719566 -0.118096 0)
(-0.0768136 -0.113088 0)
(-0.0833056 -0.107343 0)
(-0.0914031 -0.098273 0)
(-0.100378 -0.0845994 0)
(-0.109738 -0.0659095 0)
(-0.118957 -0.0413061 0)
(-0.127049 -0.0100227 0)
(-0.131986 0.028978 0)
(-0.129754 0.0748663 0)
(-0.11747 0.121485 0)
(-0.0956778 0.161696 0)
(-0.0659495 0.190012 0)
(-0.0306456 0.199457 0)
(-0.000768533 0.181039 0)
(0.012381 0.150745 0)
(0.018011 0.124805 0)
(0.0341132 0.0864746 0)
(0.0428167 -0.00540945 0)
(-0.0330472 -0.133648 0)
(-0.0553298 -0.129956 0)
(-0.0740532 -0.122394 0)
(-0.0878873 -0.115838 0)
(-0.0982319 -0.110555 0)
(-0.107187 -0.105493 0)
(-0.116038 -0.0989801 0)
(-0.124987 -0.0894292 0)
(-0.133624 -0.0758704 0)
(-0.141417 -0.0578171 0)
(-0.147652 -0.0347648 0)
(-0.151225 -0.00642115 0)
(-0.150344 0.0271621 0)
(-0.142416 0.0644763 0)
(-0.125698 0.10142 0)
(-0.100529 0.133171 0)
(-0.0687007 0.155442 0)
(-0.0335954 0.163932 0)
(-0.00245953 0.155379 0)
(0.0186533 0.136487 0)
(0.0331989 0.111758 0)
(0.0484194 0.0721273 0)
(0.0536753 0.000972349 0)
(-0.0335545 -0.0936415 0)
(-0.0584288 -0.102031 0)
(-0.0807058 -0.102763 0)
(-0.0985646 -0.101444 0)
(-0.112572 -0.0990225 0)
(-0.124221 -0.0952715 0)
(-0.134559 -0.0894117 0)
(-0.143862 -0.0805863 0)
(-0.151891 -0.0681946 0)
(-0.158172 -0.0519081 0)
(-0.162 -0.0315379 0)
(-0.162378 -0.0071701 0)
(-0.157943 0.0206619 0)
(-0.147127 0.0504566 0)
(-0.12904 0.0794247 0)
(-0.104152 0.104339 0)
(-0.0741529 0.122243 0)
(-0.0419565 0.13056 0)
(-0.0121702 0.127847 0)
(0.0115876 0.116124 0)
(0.02984 0.0960295 0)
(0.0439876 0.0623858 0)
(0.048083 0.00909593 0)
(-0.0321601 -0.0536519 0)
(-0.0571679 -0.0723413 0)
(-0.0806931 -0.0804814 0)
(-0.100444 -0.08423 0)
(-0.116386 -0.0851142 0)
(-0.129513 -0.0835102 0)
(-0.140623 -0.0792543 0)
(-0.14997 -0.0720111 0)
(-0.157414 -0.061521 0)
(-0.162572 -0.0476765 0)
(-0.164859 -0.0305263 0)
(-0.163494 -0.0103721 0)
(-0.157546 0.0121025 0)
(-0.14613 0.035616 0)
(-0.128883 0.0582528 0)
(-0.106337 0.0778801 0)
(-0.0798932 0.092545 0)
(-0.0517452 0.100633 0)
(-0.0248305 0.101187 0)
(-0.00157311 0.0944254 0)
(0.0171443 0.079698 0)
(0.030329 0.0541751 0)
(0.032937 0.0155738 0)
(-0.0290764 -0.0158774 0)
(-0.0522483 -0.0432347 0)
(-0.0751574 -0.0576615 0)
(-0.0950799 -0.0659477 0)
(-0.111584 -0.0701445 0)
(-0.125229 -0.0710518 0)
(-0.136562 -0.0689103 0)
(-0.145772 -0.0637422 0)
(-0.152768 -0.0555552 0)
(-0.157263 -0.0444362 0)
(-0.158821 -0.030596 0)
(-0.156893 -0.0144394 0)
(-0.150888 0.00335677 0)
(-0.140348 0.0217647 0)
(-0.125197 0.039453 0)
(-0.105947 0.0550084 0)
(-0.0836779 0.0671429 0)
(-0.0599585 0.0747864 0)
(-0.0367294 0.0771802 0)
(-0.0157717 0.073943 0)
(0.00155209 0.0642578 0)
(0.0134548 0.0467521 0)
(0.015614 0.0217242 0)
(-0.0247174 0.0172683 0)
(-0.044505 -0.0167263 0)
(-0.065314 -0.0359614 0)
(-0.0841021 -0.0479293 0)
(-0.100151 -0.0551064 0)
(-0.113601 -0.0585318 0)
(-0.12475 -0.0586704 0)
(-0.133699 -0.0557617 0)
(-0.140377 -0.049997 0)
(-0.144578 -0.0416031 0)
(-0.146 -0.0308911 0)
(-0.144284 -0.0183019 0)
(-0.139084 -0.00444802 0)
(-0.130186 0.00986423 0)
(-0.117658 0.0236917 0)
(-0.101941 0.0360817 0)
(-0.0838479 0.0461745 0)
(-0.0644886 0.0532359 0)
(-0.0452022 0.0566678 0)
(-0.0273691 0.0559933 0)
(-0.0123972 0.0506167 0)
(-0.00217282 0.0400972 0)
(0.000299804 0.0256188 0)
(-0.0188656 0.0442105 0)
(-0.0345243 0.00574867 0)
(-0.0523287 -0.0165584 0)
(-0.0691023 -0.0311022 0)
(-0.0839923 -0.040707 0)
(-0.096729 -0.0464182 0)
(-0.107378 -0.0487579 0)
(-0.115952 -0.0480658 0)
(-0.122377 -0.0446395 0)
(-0.126503 -0.0387931 0)
(-0.12813 -0.030891 0)
(-0.127035 -0.0213744 0)
(-0.123028 -0.0107796 0)
(-0.11603 0.000261324 0)
(-0.106163 0.0110647 0)
(-0.093794 0.0209694 0)
(-0.0795235 0.0293897 0)
(-0.0641461 0.0358185 0)
(-0.0486179 0.0398135 0)
(-0.0340139 0.0409921 0)
(-0.0215633 0.0390169 0)
(-0.0127771 0.0339108 0)
(-0.00948233 0.0269306 0)
(-0.013303 0.064209 0)
(-0.023991 0.0231465 0)
(-0.0377676 -0.000379184 0)
(-0.0517608 -0.0161333 0)
(-0.0649426 -0.0274707 0)
(-0.0765422 -0.0350831 0)
(-0.0864125 -0.0393787 0)
(-0.0944722 -0.0407032 0)
(-0.100628 -0.0393986 0)
(-0.104758 -0.0358223 0)
(-0.106719 -0.0303589 0)
(-0.106377 -0.0234313 0)
(-0.103632 -0.0155054 0)
(-0.0984742 -0.00708237 0)
(-0.0910307 0.00132859 0)
(-0.0815947 0.00925532 0)
(-0.0706123 0.0162887 0)
(-0.0586546 0.0220791 0)
(-0.046411 0.0263206 0)
(-0.0346898 0.028757 0)
(-0.024434 0.0292295 0)
(-0.0166641 0.0278986 0)
(-0.0123217 0.0256025 0)
(-0.00856328 0.0772725 0)
(-0.0141675 0.0348065 0)
(-0.023449 0.0115056 0)
(-0.0338647 -0.00371673 0)
(-0.0447441 -0.0159024 0)
(-0.054784 -0.0248864 0)
(-0.0635907 -0.0307571 0)
(-0.0709676 -0.0337823 0)
(-0.0767723 -0.0342965 0)
(-0.0808746 -0.0326623 0)
(-0.0831561 -0.029259 0)
(-0.0835225 -0.0244799 0)
(-0.0819221 -0.0187292 0)
(-0.0783714 -0.0124127 0)
(-0.0729834 -0.0059191 0)
(-0.0659824 0.000403892 0)
(-0.0576962 0.00626417 0)
(-0.0485372 0.0114191 0)
(-0.0389968 0.0156648 0)
(-0.0296557 0.0188417 0)
(-0.0211751 0.0208778 0)
(-0.0141849 0.0218986 0)
(-0.00914178 0.0222934 0)
(-0.00307516 0.0851172 0)
(-0.00379941 0.0413281 0)
(-0.00967903 0.0190222 0)
(-0.0166577 0.00554374 0)
(-0.0247966 -0.00649603 0)
(-0.0329182 -0.0161792 0)
(-0.0404121 -0.0231257 0)
(-0.0469381 -0.0274496 0)
(-0.0522741 -0.0294266 0)
(-0.0562543 -0.0293873 0)
(-0.0587536 -0.0276817 0)
(-0.0596883 -0.0246635 0)
(-0.0590221 -0.0206816 0)
(-0.0567749 -0.0160696 0)
(-0.0530363 -0.0111327 0)
(-0.0479725 -0.00613398 0)
(-0.0418199 -0.00128784 0)
(-0.0348727 0.00323523 0)
(-0.0274779 0.00729833 0)
(-0.0200384 0.0108007 0)
(-0.0129977 0.0136989 0)
(-0.00673407 0.0160411 0)
(-0.00148119 0.0179222 0)
(0.00627968 0.0835865 0)
(0.00904173 0.0447804 0)
(0.00445886 0.0240508 0)
(-0.000329077 0.0118986 0)
(-0.0059371 0.000574933 0)
(-0.012077 -0.00916105 0)
(-0.0181464 -0.0166512 0)
(-0.0237043 -0.0218418 0)
(-0.0284533 -0.0249114 0)
(-0.032185 -0.026126 0)
(-0.0347542 -0.0257846 0)
(-0.0360697 -0.0241926 0)
(-0.0360917 -0.0216462 0)
(-0.0348308 -0.0184209 0)
(-0.0323509 -0.0147614 0)
(-0.02877 -0.0108725 0)
(-0.0242558 -0.00691586 0)
(-0.0190153 -0.00301492 0)
(-0.0132905 0.000736002 0)
(-0.00735771 0.00426827 0)
(-0.00151375 0.00754349 0)
(0.00400761 0.0105498 0)
(0.00906178 0.0132274 0)
(0.0155666 0.0692701 0)
(0.0207426 0.0450885 0)
(0.0178082 0.0277616 0)
(0.0147722 0.0162084 0)
(0.011106 0.00561266 0)
(0.00672047 -0.00377796 0)
(0.00205369 -0.0113864 0)
(-0.00246252 -0.0170601 0)
(-0.00650558 -0.0208792 0)
(-0.0098418 -0.0230324 0)
(-0.0123061 -0.0237561 0)
(-0.0137932 -0.0233014 0)
(-0.0142502 -0.0219136 0)
(-0.0136717 -0.019819 0)
(-0.0120959 -0.0172148 0)
(-0.00960271 -0.0142638 0)
(-0.00630778 -0.0110909 0)
(-0.00235534 -0.00778799 0)
(0.00208641 -0.00442243 0)
(0.00682661 -0.00104374 0)
(0.0116627 0.0023109 0)
(0.0164393 0.00559799 0)
(0.0210451 0.00869171 0)
(0.0166661 0.0473794 0)
(0.025393 0.0405026 0)
(0.026832 0.0288903 0)
(0.0264946 0.0185679 0)
(0.0248591 0.00883003 0)
(0.0222304 3.16538e-05 0)
(0.0190431 -0.00738026 0)
(0.0156955 -0.0132165 0)
(0.0125139 -0.017479 0)
(0.00974969 -0.0202831 0)
(0.0075868 -0.0218014 0)
(0.0061484 -0.0222291 0)
(0.00550523 -0.0217622 0)
(0.00568286 -0.0205825 0)
(0.0066674 -0.0188482 0)
(0.0084107 -0.0166884 0)
(0.0108361 -0.0142006 0)
(0.0138449 -0.0114541 0)
(0.0173204 -0.00849739 0)
(0.0211296 -0.00536684 0)
(0.0251288 -0.00209631 0)
(0.0292032 0.00126269 0)
(0.0332581 0.004573 0)
(0.0124993 0.0281859 0)
(0.0238775 0.0317496 0)
(0.0298665 0.026018 0)
(0.0329324 0.0181565 0)
(0.0338806 0.00988451 0)
(0.0333472 0.00205613 0)
(0.0318765 -0.00482073 0)
(0.0299051 -0.0104976 0)
(0.0277859 -0.014903 0)
(0.0257961 -0.0180801 0)
(0.0241436 -0.0201365 0)
(0.0229745 -0.0212108 0)
(0.0223817 -0.0214497 0)
(0.0224136 -0.0209931 0)
(0.0230806 -0.0199637 0)
(0.024362 -0.0184615 0)
(0.0262117 -0.0165613 0)
(0.0285647 -0.0143142 0)
(0.0313404 -0.011754 0)
(0.034444 -0.00890467 0)
(0.0377703 -0.00579189 0)
(0.0412268 -0.00246128 0)
(0.0447366 0.000964651 0)
(0.00869261 0.0137407 0)
(0.0201401 0.0208366 0)
(0.0287623 0.0195148 0)
(0.0346653 0.014643 0)
(0.0381668 0.00843099 0)
(0.0398311 0.00202586 0)
(0.0402136 -0.00393668 0)
(0.0397727 -0.00911599 0)
(0.0388838 -0.013358 0)
(0.037847 -0.0166302 0)
(0.0368935 -0.0189732 0)
(0.0361925 -0.0204671 0)
(0.0358603 -0.021209 0)
(0.0359684 -0.0212968 0)
(0.0365508 -0.020819 0)
(0.0376112 -0.0198479 0)
(0.0391289 -0.0184368 0)
(0.0410648 -0.0166202 0)
(0.0433646 -0.0144179 0)
(0.0459607 -0.011842 0)
(0.0487745 -0.00890671 0)
(0.0517286 -0.00564425 0)
(0.0547666 -0.00215229 0)
(0.00660129 0.00218566 0)
(0.0167436 0.00972155 0)
(0.0260412 0.0110702 0)
(0.0334829 0.00879942 0)
(0.0388346 0.00474476 0)
(0.0423473 -9.17546e-07 0)
(0.0444335 -0.00477296 0)
(0.0454915 -0.00917235 0)
(0.0458737 -0.0129778 0)
(0.0458773 -0.0160889 0)
(0.0457415 -0.0184826 0)
(0.04565 -0.0201823 0)
(0.0457372 -0.0212358 0)
(0.0460943 -0.0216995 0)
(0.0467761 -0.0216278 0)
(0.047807 -0.0210656 0)
(0.0491878 -0.0200446 0)
(0.0509 -0.0185823 0)
(0.0529102 -0.0166847 0)
(0.0551709 -0.0143511 0)
(0.0576242 -0.0115829 0)
(0.0602047 -0.00839671 0)
(0.062878 -0.00486286 0)
(0.00553337 -0.00745469 0)
(0.0142672 -0.00047763 0)
(0.0231513 0.00224058 0)
(0.0309894 0.001805 0)
(0.0372913 -0.000427712 0)
(0.0420276 -0.00358881 0)
(0.045415 -0.00709879 0)
(0.0477323 -0.010569 0)
(0.0492617 -0.013752 0)
(0.0502629 -0.0165037 0)
(0.0509592 -0.0187517 0)
(0.051533 -0.0204711 0)
(0.0521253 -0.0216652 0)
(0.0528395 -0.0223514 0)
(0.0537452 -0.0225512 0)
(0.0548833 -0.0222827 0)
(0.0562713 -0.0215556 0)
(0.0579076 -0.0203703 0)
(0.0597753 -0.0187181 0)
(0.0618431 -0.0165853 0)
(0.0640698 -0.0139599 0)
(0.0664021 -0.0108429 0)
(0.0688255 -0.00727951 0)
(0.00487931 -0.0158385 0)
(0.0124503 -0.00953949 0)
(0.0205233 -0.00616964 0)
(0.0280899 -0.00543251 0)
(0.0346295 -0.00630786 0)
(0.039966 -0.00814892 0)
(0.0441641 -0.0105021 0)
(0.0473801 -0.0130376 0)
(0.0498075 -0.0155219 0)
(0.0516468 -0.0177972 0)
(0.0530862 -0.0197629 0)
(0.0542898 -0.0213597 0)
(0.0553931 -0.0225556 0)
(0.0565014 -0.0233349 0)
(0.0576917 -0.0236895 0)
(0.0590153 -0.023612 0)
(0.0605017 -0.0230913 0)
(0.0621625 -0.0221102 0)
(0.0639935 -0.0206455 0)
(0.0659769 -0.0186702 0)
(0.0680854 -0.0161595 0)
(0.0702774 -0.0130998 0)
(0.0725554 -0.00951466 0)
(0.00432371 -0.0232479 0)
(0.0109497 -0.017532 0)
(0.0181358 -0.0138702 0)
(0.0251361 -0.0124081 0)
(0.0314829 -0.0123314 0)
(0.0369553 -0.0131561 0)
(0.0415312 -0.0145437 0)
(0.0452764 -0.0162366 0)
(0.0483059 -0.0180375 0)
(0.050759 -0.0197979 0)
(0.0527809 -0.0214088 0)
(0.054508 -0.0227919 0)
(0.05606 -0.0238912 0)
(0.0575359 -0.0246654 0)
(0.0590125 -0.025082 0)
(0.0605456 -0.0251114 0)
(0.062172 -0.0247231 0)
(0.0639119 -0.0238835 0)
(0.0657712 -0.0225553 0)
(0.0677427 -0.020699 0)
(0.0698107 -0.0182773 0)
(0.071945 -0.0152639 0)
(0.0741615 -0.0116649 0)
(0.00375845 -0.029768 0)
(0.00956631 -0.0245415 0)
(0.0158956 -0.0207878 0)
(0.0222309 -0.0188875 0)
(0.0281658 -0.018161 0)
(0.033482 -0.0182346 0)
(0.0381177 -0.0188586 0)
(0.0420836 -0.0198414 0)
(0.0454381 -0.0210281 0)
(0.0482709 -0.0222921 0)
(0.0506867 -0.0235294 0)
(0.0527925 -0.0246551 0)
(0.0546877 -0.0255993 0)
(0.0564596 -0.0263034 0)
(0.0581793 -0.0267161 0)
(0.0599023 -0.0267897 0)
(0.0616681 -0.0264771 0)
(0.0635024 -0.02573 0)
(0.0654182 -0.0244982 0)
(0.0674163 -0.0227305 0)
(0.0694909 -0.0203788 0)
(0.0716221 -0.0174059 0)
(0.0738357 -0.0138035 0)
(0.00317107 -0.0354149 0)
(0.00822645 -0.0306417 0)
(0.0137506 -0.0269293 0)
(0.019405 -0.0247802 0)
(0.0248294 -0.0236182 0)
(0.0298226 -0.0231468 0)
(0.0343075 -0.0231827 0)
(0.0382654 -0.0235891 0)
(0.0417194 -0.0242519 0)
(0.0447238 -0.0250697 0)
(0.0473517 -0.0259507 0)
(0.0496836 -0.0268113 0)
(0.0517991 -0.0275756 0)
(0.0537715 -0.0281741 0)
(0.0556638 -0.0285424 0)
(0.0575276 -0.0286188 0)
(0.0594022 -0.0283431 0)
(0.061316 -0.0276544 0)
(0.0632865 -0.0264913 0)
(0.0653212 -0.0247927 0)
(0.0674217 -0.0225008 0)
(0.0695778 -0.0195691 0)
(0.0718222 -0.0159781 0)
(0.00258187 -0.0401957 0)
(0.0069266 -0.0358899 0)
(0.011694 -0.0323242 0)
(0.0166796 -0.0300605 0)
(0.0215544 -0.0286146 0)
(0.026134 -0.027751 0)
(0.0303358 -0.0273385 0)
(0.034127 -0.027286 0)
(0.037511 -0.0275151 0)
(0.0405197 -0.0279493 0)
(0.0432033 -0.0285111 0)
(0.0456215 -0.0291224 0)
(0.0478367 -0.029706 0)
(0.0499087 -0.0301865 0)
(0.0518916 -0.0304908 0)
(0.0538315 -0.0305474 0)
(0.0557658 -0.0302857 0)
(0.0577235 -0.0296354 0)
(0.0597255 -0.0285258 0)
(0.0617841 -0.0268873 0)
(0.0639073 -0.0246542 0)
(0.0660935 -0.0217721 0)
(0.0683799 -0.0182123 0)
(0.00201762 -0.0441398 0)
(0.00569053 -0.0403347 0)
(0.00974137 -0.0370036 0)
(0.0140786 -0.0347275 0)
(0.0183924 -0.0331084 0)
(0.0225102 -0.0319647 0)
(0.0263476 -0.0312111 0)
(0.0298657 -0.0307962 0)
(0.0330584 -0.0306727 0)
(0.0359444 -0.0307868 0)
(0.0385587 -0.0310748 0)
(0.0409455 -0.0314654 0)
(0.0431533 -0.0318826 0)
(0.0452303 -0.0322484 0)
(0.0472218 -0.0324844 0)
(0.0491682 -0.0325126 0)
(0.0511042 -0.0322553 0)
(0.0530585 -0.031635 0)
(0.0550541 -0.0305741 0)
(0.0571076 -0.0289964 0)
(0.0592326 -0.0268296 0)
(0.0614352 -0.0240127 0)
(0.0637563 -0.0205089 0)
(0.00149836 -0.0473137 0)
(0.00453733 -0.0440223 0)
(0.00790863 -0.0409971 0)
(0.0116228 -0.038791 0)
(0.0153797 -0.0370817 0)
(0.0190129 -0.0357404 0)
(0.0224368 -0.034727 0)
(0.0256119 -0.0340268 0)
(0.0285288 -0.0336205 0)
(0.0311994 -0.0334734 0)
(0.0336489 -0.0335342 0)
(0.0359105 -0.033738 0)
(0.0380216 -0.0340112 0)
(0.0400209 -0.034275 0)
(0.0419456 -0.0344482 0)
(0.0438309 -0.0344491 0)
(0.0457082 -0.0341957 0)
(0.0476059 -0.0336055 0)
(0.0495484 -0.0325964 0)
(0.0515562 -0.0310874 0)
(0.0536483 -0.0290014 0)
(0.0558384 -0.0262717 0)
(0.058171 -0.0228541 0)
(0.00102345 -0.0497804 0)
(0.00345831 -0.0469938 0)
(0.00619458 -0.0443379 0)
(0.0093227 -0.0422706 0)
(0.0125417 -0.0405331 0)
(0.0156853 -0.0390535 0)
(0.0186688 -0.0378406 0)
(0.0214564 -0.0369159 0)
(0.0240402 -0.0362851 0)
(0.0264295 -0.0359295 0)
(0.0286435 -0.0358073 0)
(0.0307075 -0.035859 0)
(0.0326504 -0.0360135 0)
(0.0345026 -0.0361923 0)
(0.0362946 -0.0363136 0)
(0.0380563 -0.036294 0)
(0.0398165 -0.0360492 0)
(0.0416024 -0.0354945 0)
(0.04344 -0.0345451 0)
(0.0453533 -0.0331174 0)
(0.0473666 -0.031131 0)
(0.0495017 -0.0285153 0)
(0.0518068 -0.0252192 0)
(0.000530294 -0.0515158 0)
(0.00240242 -0.0492795 0)
(0.00457268 -0.0470727 0)
(0.0071765 -0.0452041 0)
(0.00989576 -0.0434783 0)
(0.0125604 -0.0418969 0)
(0.0150926 -0.0405259 0)
(0.0174662 -0.0394236 0)
(0.0196794 -0.0386167 0)
(0.0217418 -0.0380982 0)
(0.0236694 -0.037833 0)
(0.0254814 -0.0377653 0)
(0.0272 -0.0378261 0)
(0.0288485 -0.0379382 0)
(0.0304515 -0.0380202 0)
(0.0320342 -0.0379889 0)
(0.0336224 -0.0377596 0)