/*--------------------------------*- C++ -*----------------------------------*\
| =========                 |                                                 |
| \\      /  F ield         | OpenFOAM: The Open Source CFD Toolbox           |
|  \\    /   O peration     | Version:  2.3.0                                 |
|   \\  /    A nd           | Web:      www.OpenFOAM.org                      |
|    \\/     M anipulation  |                                                 |
\*---------------------------------------------------------------------------*/
FoamFile
{
    version     2.0;
    format      ascii;
    class       volVectorField;
    location    "80";
    object      D;
}
// * * * * * * * * * * * * * * * * * * * * * * * * * * * * * * * * * * * * * //

dimensions      [0 1 0 0 0 0 0];

internalField   nonuniform List<vector> 
1000
(
(5.91268e-08 -2.60994e-08 0)
(5.54613e-08 -2.35046e-08 0)
(5.32153e-08 -2.1865e-08 0)
(5.19045e-08 -2.0831e-08 0)
(5.12389e-08 -2.0199e-08 0)
(5.10327e-08 -1.9842e-08 0)
(5.11615e-08 -1.96764e-08 0)
(5.15382e-08 -1.96456e-08 0)
(5.21016e-08 -1.97107e-08 0)
(5.28146e-08 -1.98468e-08 0)
(5.35513e-08 -2.83677e-08 0)
(4.96822e-08 -2.62635e-08 0)
(4.73114e-08 -2.49201e-08 0)
(4.59161e-08 -2.40675e-08 0)
(4.51855e-08 -2.35476e-08 0)
(4.49223e-08 -2.326e-08 0)
(4.49957e-08 -2.3138e-08 0)
(4.5316e-08 -2.31353e-08 0)
(4.58218e-08 -2.32199e-08 0)
(4.64758e-08 -2.33696e-08 0)
(4.77337e-08 -3.05001e-08 0)
(4.38072e-08 -2.89556e-08 0)
(4.14016e-08 -2.79513e-08 0)
(3.99775e-08 -2.73074e-08 0)
(3.92158e-08 -2.69168e-08 0)
(3.89157e-08 -2.67095e-08 0)
(3.89448e-08 -2.66378e-08 0)
(3.92134e-08 -2.66674e-08 0)
(3.96597e-08 -2.67739e-08 0)
(4.02445e-08 -2.69394e-08 0)
(4.17157e-08 -3.24635e-08 0)
(3.78883e-08 -3.15139e-08 0)
(3.5544e-08 -3.08712e-08 0)
(3.41503e-08 -3.04504e-08 0)
(3.33935e-08 -3.01985e-08 0)
(3.30773e-08 -3.00779e-08 0)
(3.3073e-08 -3.00609e-08 0)
(3.32934e-08 -3.01259e-08 0)
(3.36785e-08 -3.02567e-08 0)
(3.41895e-08 -3.04405e-08 0)
(3.55355e-08 -3.42241e-08 0)
(3.19654e-08 -3.38697e-08 0)
(2.97796e-08 -3.35893e-08 0)
(2.84759e-08 -3.33926e-08 0)
(2.77601e-08 -3.32804e-08 0)
(2.74486e-08 -3.32477e-08 0)
(2.74214e-08 -3.32865e-08 0)
(2.75976e-08 -3.33881e-08 0)
(2.79212e-08 -3.35444e-08 0)
(2.8356e-08 -3.37478e-08 0)
(2.9227e-08 -3.57492e-08 0)
(2.60665e-08 -3.59554e-08 0)
(2.41319e-08 -3.60165e-08 0)
(2.29751e-08 -3.60316e-08 0)
(2.23345e-08 -3.60519e-08 0)
(2.20475e-08 -3.61028e-08 0)
(2.20079e-08 -3.61951e-08 0)
(2.21441e-08 -3.63322e-08 0)
(2.24069e-08 -3.65134e-08 0)
(2.27641e-08 -3.67364e-08 0)
(2.28203e-08 -3.7008e-08 0)
(2.02074e-08 -3.77076e-08 0)
(1.86076e-08 -3.80696e-08 0)
(1.76486e-08 -3.82716e-08 0)
(1.7114e-08 -3.84094e-08 0)
(1.68694e-08 -3.85346e-08 0)
(1.6827e-08 -3.86747e-08 0)
(1.69276e-08 -3.88437e-08 0)
(1.71306e-08 -3.90478e-08 0)
(1.74094e-08 -3.92889e-08 0)
(1.6342e-08 -3.79718e-08 0)
(1.43935e-08 -3.90692e-08 0)
(1.31977e-08 -3.96744e-08 0)
(1.24789e-08 -4.0028e-08 0)
(1.20761e-08 -4.02611e-08 0)
(1.1889e-08 -4.04467e-08 0)
(1.1852e-08 -4.06258e-08 0)
(1.19208e-08 -4.08209e-08 0)
(1.20652e-08 -4.10439e-08 0)
(1.22653e-08 -4.13006e-08 0)
(9.81724e-09 -3.86125e-08 0)
(8.62023e-09 -3.99902e-08 0)
(7.87981e-09 -4.07675e-08 0)
(7.43303e-09 -4.1228e-08 0)
(7.1819e-09 -4.15279e-08 0)
(7.06414e-09 -4.17556e-08 0)
(7.03894e-09 -4.19618e-08 0)
(7.07891e-09 -4.21752e-08 0)
(7.16538e-09 -4.24118e-08 0)
(7.28621e-09 -4.268e-08 0)
(3.27283e-09 -3.8901e-08 0)
(2.87596e-09 -4.04217e-08 0)
(2.62194e-09 -4.12855e-08 0)
(2.46805e-09 -4.17981e-08 0)
(2.38139e-09 -4.21298e-08 0)
(2.34031e-09 -4.23774e-08 0)
(2.33077e-09 -4.25963e-08 0)
(2.34341e-09 -4.28181e-08 0)
(2.37198e-09 -4.30611e-08 0)
(2.41259e-09 -4.33352e-08 0)
(9.1191e-08 -1.20724e-09 0)
(9.17223e-08 -8.65268e-10 0)
(9.20537e-08 -6.32961e-10 0)
(9.23886e-08 -4.86287e-10 0)
(9.28256e-08 -3.96651e-10 0)
(9.34077e-08 -3.44235e-10 0)
(9.41495e-08 -3.16307e-10 0)
(9.50509e-08 -3.04584e-10 0)
(9.6105e-08 -3.03588e-10 0)
(9.73018e-08 -3.09871e-10 0)
(9.06105e-08 -3.67775e-09 0)
(9.09997e-08 -2.60586e-09 0)
(9.12434e-08 -1.9318e-09 0)
(9.15256e-08 -1.50919e-09 0)
(9.19296e-08 -1.25011e-09 0)
(9.24898e-08 -1.09862e-09 0)
(9.32158e-08 -1.01837e-09 0)
(9.41046e-08 -9.85308e-10 0)
(9.5147e-08 -9.83204e-10 0)
(9.63314e-08 -1.00098e-09 0)
(8.93263e-08 -6.17105e-09 0)
(8.94457e-08 -4.41467e-09 0)
(8.95213e-08 -3.32739e-09 0)
(8.96967e-08 -2.64964e-09 0)
(9.00308e-08 -2.23447e-09 0)
(9.05429e-08 -1.99175e-09 0)
(9.12332e-08 -1.86346e-09 0)
(9.20926e-08 -1.81106e-09 0)
(9.31083e-08 -1.80822e-09 0)
(9.42654e-08 -1.83672e-09 0)
(8.7389e-08 -8.67943e-09 0)
(8.71267e-08 -6.3281e-09 0)
(8.69678e-08 -4.87691e-09 0)
(8.69933e-08 -3.9749e-09 0)
(8.72281e-08 -3.42324e-09 0)
(8.7671e-08 -3.10121e-09 0)
(8.83096e-08 -2.93167e-09 0)
(8.91266e-08 -2.86338e-09 0)
(9.01037e-08 -2.86131e-09 0)
(9.12225e-08 -2.90119e-09 0)
(8.48399e-08 -1.12006e-08 0)
(8.41057e-08 -8.37295e-09 0)
(8.36578e-08 -6.62648e-09 0)
(8.34992e-08 -5.54144e-09 0)
(8.36119e-08 -4.87853e-09 0)
(8.39696e-08 -4.49238e-09 0)
(8.4544e-08 -4.29027e-09 0)
(8.53081e-08 -4.21073e-09 0)
(8.62373e-08 -4.21171e-09 0)
(8.73088e-08 -4.26415e-09 0)
(8.17189e-08 -1.37309e-08 0)
(8.04514e-08 -1.0566e-08 0)
(7.96768e-08 -8.60733e-09 0)
(7.93104e-08 -7.38939e-09 0)
(7.92853e-08 -6.64545e-09 0)
(7.95463e-08 -6.21306e-09 0)
(8.00477e-08 -5.98851e-09 0)
(8.07514e-08 -5.90306e-09 0)
(8.16256e-08 -5.90965e-09 0)
(8.26428e-08 -5.97585e-09 0)
(7.80687e-08 -1.62632e-08 0)
(7.62397e-08 -1.29127e-08 0)
(7.51208e-08 -1.08341e-08 0)
(7.45352e-08 -9.53936e-09 0)
(7.43644e-08 -8.74829e-09 0)
(7.45228e-08 -8.28956e-09 0)
(7.4946e-08 -8.05361e-09 0)
(7.55844e-08 -7.96779e-09 0)
(7.63989e-08 -7.98239e-09 0)
(7.73567e-08 -8.06324e-09 0)
(7.39353e-08 -1.87854e-08 0)
(7.15519e-08 -1.54062e-08 0)
(7.00927e-08 -1.33035e-08 0)
(6.929e-08 -1.19909e-08 0)
(6.89741e-08 -1.11885e-08 0)
(6.90293e-08 -1.07244e-08 0)
(6.93731e-08 -1.04885e-08 0)
(6.99443e-08 -1.04077e-08 0)
(7.06965e-08 -1.04319e-08 0)
(7.15922e-08 -1.05275e-08 0)
(6.93675e-08 -2.12806e-08 0)
(6.64717e-08 -1.80265e-08 0)
(6.46979e-08 -1.5994e-08 0)
(6.36937e-08 -1.4722e-08 0)
(6.32418e-08 -1.39439e-08 0)
(6.31989e-08 -1.34958e-08 0)
(6.34653e-08 -1.32717e-08 0)
(6.39698e-08 -1.32009e-08 0)
(6.46597e-08 -1.32354e-08 0)
(6.54935e-08 -1.33437e-08 0)
(6.44149e-08 -2.37273e-08 0)
(6.10819e-08 -2.07408e-08 0)
(5.90398e-08 -1.88664e-08 0)
(5.78624e-08 -1.76894e-08 0)
(5.72917e-08 -1.69695e-08 0)
(5.71602e-08 -1.65578e-08 0)
(5.73543e-08 -1.63575e-08 0)
(5.77941e-08 -1.6303e-08 0)
(5.8422e-08 -1.6349e-08 0)
(5.91963e-08 -1.64653e-08 0)
(9.86291e-08 -3.13649e-10 0)
(1.00085e-07 -3.08883e-10 0)
(1.01647e-07 -3.03958e-10 0)
(1.03305e-07 -2.98261e-10 0)
(1.05048e-07 -2.91257e-10 0)
(1.06868e-07 -2.82467e-10 0)
(1.08758e-07 -2.71491e-10 0)
(1.10709e-07 -2.57994e-10 0)
(1.12716e-07 -2.41678e-10 0)
(1.14772e-07 -2.22256e-10 0)
(1.16871e-07 -1.99425e-10 0)
(1.19007e-07 -1.72849e-10 0)
(1.21173e-07 -1.42132e-10 0)
(1.23365e-07 -1.06812e-10 0)
(1.25575e-07 -6.63305e-11 0)
(1.27797e-07 -2.00265e-11 0)
(1.30025e-07 3.28431e-11 0)
(1.32249e-07 9.2815e-11 0)
(1.34462e-07 1.58957e-10 0)
(1.36655e-07 2.24829e-10 0)
(9.77006e-08 -1.00252e-09 0)
(9.92416e-08 -9.75102e-10 0)
(1.00875e-07 -9.51386e-10 0)
(1.02594e-07 -9.27891e-10 0)
(1.04391e-07 -9.01964e-10 0)
(1.06259e-07 -8.71676e-10 0)
(1.08191e-07 -8.3558e-10 0)
(1.1018e-07 -7.92525e-10 0)
(1.12221e-07 -7.41514e-10 0)
(1.14308e-07 -6.81606e-10 0)
(1.16435e-07 -6.11831e-10 0)
(1.18597e-07 -5.31126e-10 0)
(1.20788e-07 -4.38282e-10 0)
(1.23002e-07 -3.31887e-10 0)
(1.25234e-07 -2.10288e-10 0)
(1.27477e-07 -7.15745e-11 0)
(1.29725e-07 8.63835e-11 0)
(1.31971e-07 2.6579e-10 0)
(1.34205e-07 4.68975e-10 0)
(1.36419e-07 7.00276e-10 0)
(9.57161e-08 -1.82371e-09 0)
(9.74286e-08 -1.75404e-09 0)
(9.92111e-08 -1.69495e-09 0)
(1.0106e-07 -1.64017e-09 0)
(1.02971e-07 -1.5845e-09 0)
(1.0494e-07 -1.52406e-09 0)
(1.06962e-07 -1.45591e-09 0)
(1.09032e-07 -1.37775e-09 0)
(1.11147e-07 -1.28763e-09 0)
(1.13301e-07 -1.18375e-09 0)
(1.15489e-07 -1.06432e-09 0)
(1.17708e-07 -9.27428e-10 0)
(1.19952e-07 -7.70945e-10 0)
(1.22216e-07 -5.92439e-10 0)
(1.24496e-07 -3.89094e-10 0)
(1.26785e-07 -1.57639e-10 0)
(1.29077e-07 1.05738e-10 0)
(1.31365e-07 4.05657e-10 0)
(1.33642e-07 7.48567e-10 0)
(1.35896e-07 1.14617e-09 0)
(9.27902e-08 -2.85655e-09 0)
(9.47485e-08 -2.71505e-09 0)
(9.67463e-08 -2.5955e-09 0)
(9.87846e-08 -2.4885e-09 0)
(1.00863e-07 -2.38589e-09 0)
(1.02981e-07 -2.28128e-09 0)
(1.05136e-07 -2.16975e-09 0)
(1.07326e-07 -2.04737e-09 0)
(1.09549e-07 -1.91085e-09 0)
(1.11802e-07 -1.75722e-09 0)
(1.14082e-07 -1.58361e-09 0)
(1.16385e-07 -1.38706e-09 0)
(1.18708e-07 -1.16434e-09 0)
(1.21047e-07 -9.11856e-10 0)
(1.23397e-07 -6.25454e-10 0)
(1.25753e-07 -3.00303e-10 0)
(1.28109e-07 6.93588e-11 0)
(1.3046e-07 4.90729e-10 0)
(1.32797e-07 9.73769e-10 0)
(1.35111e-07 1.53512e-09 0)
(8.90226e-08 -4.16635e-09 0)
(9.12885e-08 -3.91543e-09 0)
(9.3558e-08 -3.70336e-09 0)
(9.58368e-08 -3.51726e-09 0)
(9.81292e-08 -3.34539e-09 0)
(1.00438e-07 -3.17826e-09 0)
(1.02764e-07 -3.00835e-09 0)
(1.0511e-07 -2.82959e-09 0)
(1.07473e-07 -2.63688e-09 0)
(1.09855e-07 -2.4257e-09 0)
(1.12253e-07 -2.19178e-09 0)
(1.14666e-07 -1.93083e-09 0)
(1.17091e-07 -1.63832e-09 0)
(1.19526e-07 -1.30924e-09 0)
(1.21966e-07 -9.3795e-10 0)
(1.24409e-07 -5.17853e-10 0)
(1.26848e-07 -4.11174e-11 0)
(1.29279e-07 5.01964e-10 0)
(1.31694e-07 1.12442e-09 0)
(1.34086e-07 1.84695e-09 0)
(8.45236e-08 -5.80074e-09 0)
(8.71444e-08 -5.39805e-09 0)
(8.97303e-08 -5.05686e-09 0)
(9.22915e-08 -4.7606e-09 0)
(9.48366e-08 -4.49343e-09 0)
(9.73721e-08 -4.24216e-09 0)
(9.99033e-08 -3.99607e-09 0)
(1.02434e-07 -3.74639e-09 0)
(1.04967e-07 -3.48574e-09 0)
(1.07503e-07 -3.20758e-09 0)
(1.10043e-07 -2.90591e-09 0)
(1.12588e-07 -2.5748e-09 0)
(1.15136e-07 -2.20815e-09 0)
(1.17686e-07 -1.79935e-09 0)
(1.20236e-07 -1.34105e-09 0)
(1.22782e-07 -8.24767e-10 0)
(1.25321e-07 -2.40501e-10 0)
(1.27848e-07 4.23941e-10 0)
(1.30357e-07 1.1845e-09 0)
(1.32843e-07 2.06554e-09 0)
(7.94166e-08 -7.78649e-09 0)
(8.24225e-08 -7.18904e-09 0)
(8.53564e-08 -6.6806e-09 0)
(8.82313e-08 -6.24127e-09 0)
(9.10595e-08 -5.85076e-09 0)
(9.3851e-08 -5.49176e-09 0)
(9.66143e-08 -5.14987e-09 0)
(9.93561e-08 -4.81313e-09 0)
(1.02082e-07 -4.47136e-09 0)
(1.04795e-07 -4.11564e-09 0)
(1.07499e-07 -3.73782e-09 0)
(1.10195e-07 -3.33003e-09 0)
(1.12884e-07 -2.88435e-09 0)
(1.15566e-07 -2.39236e-09 0)
(1.1824e-07 -1.84483e-09 0)
(1.20905e-07 -1.23126e-09 0)
(1.23558e-07 -5.39411e-10 0)
(1.26195e-07 2.45455e-10 0)
(1.28813e-07 1.14216e-09 0)
(1.31406e-07 2.17844e-09 0)
(7.38337e-08 -1.01273e-08 0)
(7.72376e-08 -9.29598e-09 0)
(8.05369e-08 -8.58424e-09 0)
(8.37455e-08 -7.96963e-09 0)
(8.68779e-08 -7.42769e-09 0)
(8.99469e-08 -6.93688e-09 0)
(9.29634e-08 -6.47891e-09 0)
(9.59368e-08 -6.0382e-09 0)
(9.88747e-08 -5.60144e-09 0)
(1.01783e-07 -5.1569e-09 0)
(1.04668e-07 -4.69396e-09 0)
(1.07531e-07 -4.20253e-09 0)
(1.10377e-07 -3.6726e-09 0)
(1.13205e-07 -3.09377e-09 0)
(1.16018e-07 -2.4548e-09 0)
(1.18814e-07 -1.74306e-09 0)
(1.21592e-07 -9.44021e-10 0)
(1.24351e-07 -4.03459e-11 0)
(1.27089e-07 9.897e-10 0)
(1.29801e-07 2.17702e-09 0)
(6.79124e-08 -1.28035e-08 0)
(7.17107e-08 -1.17074e-08 0)
(7.5379e-08 -1.07618e-08 0)
(7.89294e-08 -9.94321e-09 0)
(8.23773e-08 -9.22371e-09 0)
(8.57369e-08 -8.57814e-09 0)
(8.90208e-08 -7.98429e-09 0)
(9.22403e-08 -7.42294e-09 0)
(9.54051e-08 -6.87731e-09 0)
(9.85233e-08 -6.33265e-09 0)
(1.01602e-07 -5.77551e-09 0)
(1.04646e-07 -5.19337e-09 0)
(1.07659e-07 -4.5739e-09 0)
(1.10646e-07 -3.90458e-09 0)
(1.13607e-07 -3.17202e-09 0)
(1.16544e-07 -2.36149e-09 0)
(1.19458e-07 -1.45612e-09 0)
(1.22348e-07 -4.3608e-10 0)
(1.25213e-07 7.23392e-10 0)
(1.28054e-07 2.05629e-09 0)
(6.17969e-08 -1.57707e-08 0)
(6.59751e-08 -1.43888e-08 0)
(7.00025e-08 -1.31872e-08 0)
(7.38905e-08 -1.21415e-08 0)
(7.7654e-08 -1.12226e-08 0)
(8.13075e-08 -1.04024e-08 0)
(8.48644e-08 -9.65531e-09 0)
(8.83371e-08 -8.95837e-09 0)
(9.17367e-08 -8.29139e-09 0)
(9.50728e-08 -7.63628e-09 0)
(9.83538e-08 -6.97674e-09 0)
(1.01587e-07 -6.29745e-09 0)
(1.04777e-07 -5.58372e-09 0)
(1.07929e-07 -4.82068e-09 0)
(1.11046e-07 -3.99284e-09 0)
(1.14132e-07 -3.08329e-09 0)
(1.17188e-07 -2.0731e-09 0)
(1.20215e-07 -9.40031e-10 0)
(1.23215e-07 3.43251e-10 0)
(1.26191e-07 1.81455e-09 0)
(5.73078e-08 -1.8429e-08 0)
(6.17123e-08 -1.68336e-08 0)
(6.59507e-08 -1.54428e-08 0)
(7.00428e-08 -1.42222e-08 0)
(7.40025e-08 -1.31409e-08 0)
(7.78429e-08 -1.21704e-08 0)
(8.15762e-08 -1.12847e-08 0)
(8.52143e-08 -1.04601e-08 0)
(8.87679e-08 -9.67491e-09 0)
(9.2247e-08 -8.90986e-09 0)
(9.56601e-08 -8.14706e-09 0)
(9.90148e-08 -7.36977e-09 0)
(1.02317e-07 -6.56182e-09 0)
(1.05573e-07 -5.70705e-09 0)
(1.08787e-07 -4.78871e-09 0)
(1.11963e-07 -3.78887e-09 0)
(1.15104e-07 -2.68764e-09 0)
(1.18212e-07 -1.46218e-09 0)
(1.21293e-07 -8.46564e-11 0)
(1.2435e-07 1.48342e-09 0)
(5.47178e-08 -2.0484e-08 0)
(5.91344e-08 -1.88245e-08 0)
(6.34119e-08 -1.73432e-08 0)
(6.75566e-08 -1.60222e-08 0)
(7.15765e-08 -1.48354e-08 0)
(7.54806e-08 -1.37574e-08 0)
(7.92786e-08 -1.27643e-08 0)
(8.29798e-08 -1.18339e-08 0)
(8.65937e-08 -1.09461e-08 0)
(9.01288e-08 -1.00818e-08 0)
(9.35931e-08 -9.22344e-09 0)
(9.69939e-08 -8.35436e-09 0)
(1.00337e-07 -7.45822e-09 0)
(1.03629e-07 -6.51874e-09 0)
(1.06875e-07 -5.51913e-09 0)
(1.10078e-07 -4.44158e-09 0)
(1.13243e-07 -3.26661e-09 0)
(1.16375e-07 -1.9722e-09 0)
(1.19479e-07 -5.32097e-10 0)
(1.2256e-07 1.08944e-09 0)
(5.24129e-08 -2.24372e-08 0)
(5.67956e-08 -2.07449e-08 0)
(6.10685e-08 -1.92008e-08 0)
(6.5228e-08 -1.77991e-08 0)
(6.92753e-08 -1.65217e-08 0)
(7.32148e-08 -1.53475e-08 0)
(7.70528e-08 -1.42559e-08 0)
(8.07962e-08 -1.32269e-08 0)
(8.44523e-08 -1.22416e-08 0)
(8.80284e-08 -1.12822e-08 0)
(9.15314e-08 -1.03317e-08 0)
(9.49679e-08 -9.37384e-09 0)
(9.8344e-08 -8.39244e-09 0)
(1.01665e-07 -7.3715e-09 0)
(1.04937e-07 -6.29451e-09 0)
(1.08164e-07 -5.14413e-09 0)
(1.11351e-07 -3.90165e-09 0)
(1.14505e-07 -2.54628e-09 0)
(1.1763e-07 -1.0537e-09 0)
(1.20735e-07 6.08755e-10 0)
(5.03639e-08 -2.42923e-08 0)
(5.4688e-08 -2.25855e-08 0)
(5.89251e-08 -2.09998e-08 0)
(6.30682e-08 -1.95361e-08 0)
(6.71139e-08 -1.81833e-08 0)
(7.10626e-08 -1.69254e-08 0)
(7.49172e-08 -1.57454e-08 0)
(7.86822e-08 -1.46259e-08 0)
(8.23627e-08 -1.35499e-08 0)
(8.59645e-08 -1.2501e-08 0)
(8.94933e-08 -1.14631e-08 0)
(9.29548e-08 -1.04206e-08 0)
(9.63547e-08 -9.358e-09 0)
(9.96982e-08 -8.25981e-09 0)
(1.02991e-07 -7.11011e-09 0)
(1.06237e-07 -5.89233e-09 0)
(1.09444e-07 -4.58882e-09 0)
(1.12616e-07 -3.18033e-09 0)
(1.15761e-07 -1.64476e-09 0)
(1.18888e-07 4.7307e-11 0)
(4.8537e-08 -2.60499e-08 0)
(5.2786e-08 -2.43415e-08 0)
(5.69665e-08 -2.27299e-08 0)
(6.10702e-08 -2.12203e-08 0)
(6.50912e-08 -1.98066e-08 0)
(6.90272e-08 -1.84776e-08 0)
(7.28783e-08 -1.72199e-08 0)
(7.66465e-08 -1.60191e-08 0)
(8.03353e-08 -1.48602e-08 0)
(8.39486e-08 -1.37284e-08 0)
(8.7491e-08 -1.26089e-08 0)
(9.09673e-08 -1.14872e-08 0)
(9.43825e-08 -1.03485e-08 0)
(9.77414e-08 -9.17809e-09 0)
(1.01049e-07 -7.961e-09 0)
(1.04311e-07 -6.68164e-09 0)
(1.07534e-07 -5.32368e-09 0)
(1.10722e-07 -3.86962e-09 0)
(1.13885e-07 -2.2997e-09 0)
(1.17032e-07 -5.88078e-10 0)
(4.68993e-08 -2.77129e-08 0)
(5.10621e-08 -2.60121e-08 0)
(5.5172e-08 -2.43865e-08 0)
(5.922e-08 -2.28439e-08 0)
(6.31991e-08 -2.13821e-08 0)
(6.7105e-08 -1.99939e-08 0)
(7.0936e-08 -1.86693e-08 0)
(7.46922e-08 -1.73966e-08 0)
(7.83751e-08 -1.61631e-08 0)
(8.19876e-08 -1.49559e-08 0)
(8.55328e-08 -1.37616e-08 0)
(8.90146e-08 -1.25667e-08 0)
(9.24373e-08 -1.13577e-08 0)
(9.58052e-08 -1.01208e-08 0)
(9.91234e-08 -8.84209e-09 0)
(1.02397e-07 -7.50724e-09 0)
(1.05632e-07 -6.10136e-09 0)
(1.08834e-07 -4.60884e-09 0)
(1.12013e-07 -3.01245e-09 0)
(1.15177e-07 -1.28989e-09 0)
(4.54201e-08 -2.92856e-08 0)
(4.94899e-08 -2.75989e-08 0)
(5.35199e-08 -2.59681e-08 0)
(5.75011e-08 -2.44028e-08 0)
(6.14257e-08 -2.29039e-08 0)
(6.52885e-08 -2.14672e-08 0)
(6.90864e-08 -2.00858e-08 0)
(7.28181e-08 -1.87506e-08 0)
(7.64838e-08 -1.74511e-08 0)
(8.00848e-08 -1.61763e-08 0)
(8.36235e-08 -1.49142e-08 0)
(8.71027e-08 -1.36529e-08 0)
(9.0526e-08 -1.23799e-08 0)
(9.38972e-08 -1.10827e-08 0)
(9.72209e-08 -9.74843e-09 0)
(1.00502e-07 -8.36424e-09 0)
(1.03746e-07 -6.91682e-09 0)
(1.0696e-07 -5.39248e-09 0)
(1.10152e-07 -3.77651e-09 0)
(1.13332e-07 -2.05029e-09 0)
(4.40711e-08 -3.07736e-08 0)
(4.80445e-08 -2.91051e-08 0)
(5.19892e-08 -2.74756e-08 0)
(5.58961e-08 -2.58958e-08 0)
(5.97576e-08 -2.43687e-08 0)
(6.35679e-08 -2.2893e-08 0)
(6.73229e-08 -2.14641e-08 0)
(7.10205e-08 -2.00753e-08 0)
(7.46596e-08 -1.87183e-08 0)
(7.82408e-08 -1.73837e-08 0)
(8.17652e-08 -1.60613e-08 0)
(8.5235e-08 -1.47405e-08 0)
(8.8653e-08 -1.34101e-08 0)
(9.20225e-08 -1.20588e-08 0)
(9.53476e-08 -1.06753e-08 0)
(9.86328e-08 -9.24788e-09 0)
(1.01884e-07 -7.76499e-09 0)
(1.05107e-07 -6.21489e-09 0)
(1.0831e-07 -4.58538e-09 0)
(1.11503e-07 -2.8613e-09 0)
(4.28268e-08 -3.21832e-08 0)
(4.67029e-08 -3.05353e-08 0)
(5.05595e-08 -2.89116e-08 0)
(5.4388e-08 -2.73234e-08 0)
(5.81808e-08 -2.57757e-08 0)
(6.1932e-08 -2.42689e-08 0)
(6.56372e-08 -2.28008e-08 0)
(6.92934e-08 -2.13667e-08 0)
(7.2899e-08 -1.99602e-08 0)
(7.64536e-08 -1.85736e-08 0)
(7.99576e-08 -1.71983e-08 0)
(8.34125e-08 -1.58249e-08 0)
(8.68204e-08 -1.44438e-08 0)
(9.0184e-08 -1.3045e-08 0)
(9.35069e-08 -1.16183e-08 0)
(9.67934e-08 -1.01536e-08 0)
(1.00049e-07 -8.64096e-09 0)
(1.03279e-07 -7.07057e-09 0)
(1.06491e-07 -5.43256e-09 0)
(1.09695e-07 -3.71512e-09 0)
(4.16646e-08 -3.35211e-08 0)
(4.54443e-08 -3.18945e-08 0)
(4.92121e-08 -3.02795e-08 0)
(5.29599e-08 -2.86876e-08 0)
(5.66808e-08 -2.71251e-08 0)
(6.03689e-08 -2.55941e-08 0)
(6.40196e-08 -2.40942e-08 0)
(6.76295e-08 -2.26223e-08 0)
(7.11965e-08 -2.11739e-08 0)
(7.47196e-08 -1.97427e-08 0)
(7.81986e-08 -1.83216e-08 0)
(8.16343e-08 -1.69026e-08 0)
(8.50282e-08 -1.54774e-08 0)
(8.83826e-08 -1.40373e-08 0)
(9.17005e-08 -1.25734e-08 0)
(9.49857e-08 -1.10771e-08 0)
(9.82429e-08 -9.54006e-09 0)
(1.01478e-07 -7.95419e-09 0)
(1.04697e-07 -6.31188e-09 0)
(1.0791e-07 -4.60429e-09 0)
(4.0564e-08 -3.47937e-08 0)
(4.42492e-08 -3.31882e-08 0)
(4.79289e-08 -3.15834e-08 0)
(5.15958e-08 -2.99912e-08 0)
(5.52435e-08 -2.84186e-08 0)
(5.88663e-08 -2.68691e-08 0)
(6.24597e-08 -2.53437e-08 0)
(6.60202e-08 -2.38409e-08 0)
(6.95454e-08 -2.23575e-08 0)
(7.30336e-08 -2.08887e-08 0)
(7.64844e-08 -1.94287e-08 0)
(7.98979e-08 -1.79708e-08 0)
(8.32751e-08 -1.65079e-08 0)
(8.66177e-08 -1.50325e-08 0)
(8.99283e-08 -1.35372e-08 0)
(9.32102e-08 -1.20147e-08 0)
(9.64677e-08 -1.0458e-08 0)
(9.97058e-08 -8.86082e-09 0)
(1.02931e-07 -7.2175e-09 0)
(1.06151e-07 -5.5219e-09 0)
(3.95065e-08 -3.60071e-08 0)
(4.30999e-08 -3.44216e-08 0)
(4.66933e-08 -3.28278e-08 0)
(5.02802e-08 -3.12376e-08 0)
(5.38548e-08 -2.96585e-08 0)
(5.74118e-08 -2.80954e-08 0)
(6.09469e-08 -2.655e-08 0)
(6.44565e-08 -2.50224e-08 0)
(6.7938e-08 -2.35103e-08 0)
(7.13896e-08 -2.20104e-08 0)
(7.48101e-08 -2.0518e-08 0)
(7.81995e-08 -1.90274e-08 0)
(8.15581e-08 -1.75329e-08 0)
(8.48873e-08 -1.6028e-08 0)
(8.8189e-08 -1.45067e-08 0)
(9.14661e-08 -1.29628e-08 0)
(9.47223e-08 -1.13908e-08 0)
(9.79622e-08 -9.78589e-09 0)
(1.01191e-07 -8.14415e-09 0)
(1.04417e-07 -6.46166e-09 0)
(3.84749e-08 -3.71669e-08 0)
(4.19796e-08 -3.55998e-08 0)
(4.54892e-08 -3.4017e-08 0)
(4.89981e-08 -3.24303e-08 0)
(5.25009e-08 -3.08478e-08 0)
(5.59929e-08 -2.92749e-08 0)
(5.947e-08 -2.77145e-08 0)
(6.29287e-08 -2.61674e-08 0)
(6.63662e-08 -2.46325e-08 0)
(6.97804e-08 -2.31075e-08 0)
(7.317e-08 -2.15886e-08 0)
(7.65344e-08 -2.00714e-08 0)
(7.98736e-08 -1.85508e-08 0)
(8.31884e-08 -1.70219e-08 0)
(8.64802e-08 -1.54794e-08 0)
(8.97515e-08 -1.39185e-08 0)
(9.30052e-08 -1.2335e-08 0)
(9.62456e-08 -1.07254e-08 0)
(9.94774e-08 -9.08704e-09 0)
(1.02707e-07 -7.41807e-09 0)
(3.7453e-08 -3.82782e-08 0)
(4.08724e-08 -3.67276e-08 0)
(4.43013e-08 -3.51555e-08 0)
(4.77349e-08 -3.35734e-08 0)
(5.11683e-08 -3.19897e-08 0)
(5.45974e-08 -3.04103e-08 0)
(5.8018e-08 -2.8839e-08 0)
(6.14269e-08 -2.72773e-08 0)
(6.48213e-08 -2.5725e-08 0)
(6.81988e-08 -2.41803e-08 0)
(7.15578e-08 -2.26405e-08 0)
(7.48974e-08 -2.1102e-08 0)
(7.82171e-08 -1.95608e-08 0)
(8.15173e-08 -1.80126e-08 0)
(8.47988e-08 -1.64533e-08 0)
(8.80636e-08 -1.48794e-08 0)
(9.13141e-08 -1.32876e-08 0)
(9.45539e-08 -1.16756e-08 0)
(9.77872e-08 -1.00421e-08 0)
(1.01019e-07 -8.38639e-09 0)
(3.64249e-08 -3.93454e-08 0)
(3.97626e-08 -3.78096e-08 0)
(4.31145e-08 -3.62476e-08 0)
(4.64763e-08 -3.46707e-08 0)
(4.98437e-08 -3.30877e-08 0)
(5.32128e-08 -3.15048e-08 0)
(5.65798e-08 -2.99264e-08 0)
(5.99414e-08 -2.83544e-08 0)
(6.32946e-08 -2.67892e-08 0)
(6.66371e-08 -2.52299e-08 0)
(6.99669e-08 -2.36743e-08 0)
(7.32827e-08 -2.21196e-08 0)
(7.65837e-08 -2.05623e-08 0)
(7.98698e-08 -1.89992e-08 0)
(8.31413e-08 -1.74271e-08 0)
(8.63994e-08 -1.58434e-08 0)
(8.96462e-08 -1.4246e-08 0)
(9.28846e-08 -1.26336e-08 0)
(9.61184e-08 -1.10058e-08 0)
(9.93519e-08 -9.36282e-09 0)
(3.53746e-08 -4.03729e-08 0)
(3.86346e-08 -3.88501e-08 0)
(4.19136e-08 -3.72976e-08 0)
(4.52079e-08 -3.57265e-08 0)
(4.85136e-08 -3.41457e-08 0)
(5.1827e-08 -3.2562e-08 0)
(5.51443e-08 -3.09796e-08 0)
(5.84622e-08 -2.94012e-08 0)
(6.17775e-08 -2.78275e-08 0)
(6.50878e-08 -2.62581e-08 0)
(6.83907e-08 -2.46913e-08 0)
(7.16846e-08 -2.31248e-08 0)
(7.49684e-08 -2.15558e-08 0)
(7.82415e-08 -1.99817e-08 0)
(8.15038e-08 -1.84e-08 0)
(8.47558e-08 -1.68091e-08 0)
(8.79988e-08 -1.52079e-08 0)
(9.12352e-08 -1.35964e-08 0)
(9.44683e-08 -1.1975e-08 0)
(9.77024e-08 -1.03443e-08 0)
(3.42854e-08 -4.13644e-08 0)
(3.7472e-08 -3.98533e-08 0)
(4.06831e-08 -3.83098e-08 0)
(4.39152e-08 -3.67451e-08 0)
(4.71647e-08 -3.51682e-08 0)
(5.04279e-08 -3.35859e-08 0)
(5.37008e-08 -3.20026e-08 0)
(5.69799e-08 -3.04212e-08 0)
(6.02619e-08 -2.88428e-08 0)
(6.35437e-08 -2.72672e-08 0)
(6.68229e-08 -2.56932e-08 0)
(7.00977e-08 -2.4119e-08 0)
(7.33664e-08 -2.25421e-08 0)
(7.66281e-08 -2.09603e-08 0)
(7.98824e-08 -1.93718e-08 0)
(8.31293e-08 -1.77755e-08 0)
(8.63691e-08 -1.61717e-08 0)
(8.96033e-08 -1.45616e-08 0)
(9.28347e-08 -1.2947e-08 0)
(9.60682e-08 -1.13288e-08 0)
(3.3139e-08 -4.23238e-08 0)
(3.62572e-08 -4.08234e-08 0)
(3.94062e-08 -3.92889e-08 0)
(4.25829e-08 -3.77315e-08 0)
(4.57834e-08 -3.61601e-08 0)
(4.90035e-08 -3.45814e-08 0)
(5.22389e-08 -3.29999e-08 0)
(5.54857e-08 -3.14185e-08 0)
(5.87399e-08 -2.98386e-08 0)
(6.19983e-08 -2.82602e-08 0)
(6.5258e-08 -2.66826e-08 0)
(6.85168e-08 -2.51039e-08 0)
(7.1773e-08 -2.35223e-08 0)
(7.50253e-08 -2.19358e-08 0)
(7.82732e-08 -2.03428e-08 0)
(8.15162e-08 -1.87427e-08 0)
(8.47541e-08 -1.71365e-08 0)
(8.79872e-08 -1.55272e-08 0)
(9.12171e-08 -1.39192e-08 0)
(9.44484e-08 -1.23151e-08 0)
(3.19142e-08 -4.32552e-08 0)
(3.49697e-08 -4.1765e-08 0)
(3.80644e-08 -4.02401e-08 0)
(4.11944e-08 -3.86914e-08 0)
(4.43551e-08 -3.71274e-08 0)
(4.75415e-08 -3.55544e-08 0)
(5.07483e-08 -3.3977e-08 0)
(5.39709e-08 -3.23981e-08 0)
(5.72048e-08 -3.08193e-08 0)
(6.0446e-08 -2.92409e-08 0)
(6.36913e-08 -2.76622e-08 0)
(6.69381e-08 -2.60819e-08 0)
(7.01844e-08 -2.44981e-08 0)
(7.34291e-08 -2.29092e-08 0)
(7.66716e-08 -2.13137e-08 0)
(7.99118e-08 -1.97112e-08 0)
(8.31496e-08 -1.81026e-08 0)
(8.63846e-08 -1.64923e-08 0)
(8.96162e-08 -1.48888e-08 0)
(9.28468e-08 -1.33022e-08 0)
(3.05821e-08 -4.41618e-08 0)
(3.35828e-08 -4.26833e-08 0)
(3.66343e-08 -4.11702e-08 0)
(3.973e-08 -3.96324e-08 0)
(4.28635e-08 -3.80778e-08 0)
(4.60283e-08 -3.65124e-08 0)
(4.92183e-08 -3.49409e-08 0)
(5.24275e-08 -3.33663e-08 0)
(5.56504e-08 -3.17904e-08 0)
(5.88825e-08 -3.02136e-08 0)
(6.21197e-08 -2.86356e-08 0)
(6.5359e-08 -2.70552e-08 0)
(6.85983e-08 -2.54708e-08 0)
(7.18367e-08 -2.38811e-08 0)
(7.50738e-08 -2.22848e-08 0)
(7.83105e-08 -2.06813e-08 0)
(8.15481e-08 -1.90714e-08 0)
(8.47886e-08 -1.74594e-08 0)
(8.80333e-08 -1.58568e-08 0)
(9.12799e-08 -1.42878e-08 0)
(2.39676e-09 -4.36476e-08 0)
(7.23186e-09 -4.30235e-08 0)
(1.21619e-08 -4.17063e-08 0)
(1.72421e-08 -3.97825e-08 0)
(2.25143e-08 -3.73368e-08 0)
(2.80036e-08 -3.4466e-08 0)
(3.37153e-08 -3.12785e-08 0)
(3.9633e-08 -2.78902e-08 0)
(4.57182e-08 -2.44183e-08 0)
(5.19097e-08 -2.09777e-08 0)
(2.32212e-09 -4.39999e-08 0)
(6.99925e-09 -4.34353e-08 0)
(1.17549e-08 -4.22385e-08 0)
(1.6636e-08 -4.04846e-08 0)
(2.16784e-08 -3.82463e-08 0)
(2.69043e-08 -3.56063e-08 0)
(3.23205e-08 -3.26571e-08 0)
(3.79164e-08 -2.94978e-08 0)
(4.36635e-08 -2.62314e-08 0)
(4.95145e-08 -2.29648e-08 0)
(2.2557e-09 -4.43855e-08 0)
(6.79382e-09 -4.38713e-08 0)
(1.13967e-08 -4.27784e-08 0)
(1.61038e-08 -4.11727e-08 0)
(2.09456e-08 -3.91175e-08 0)
(2.59416e-08 -3.6684e-08 0)
(3.10985e-08 -3.39522e-08 0)
(3.64096e-08 -3.10079e-08 0)
(4.18534e-08 -2.79412e-08 0)
(4.73931e-08 -2.48481e-08 0)
(2.19596e-09 -4.48031e-08 0)
(6.61002e-09 -4.43321e-08 0)
(1.10775e-08 -4.3329e-08 0)
(1.56317e-08 -4.18526e-08 0)
(2.02983e-08 -3.99583e-08 0)
(2.50939e-08 -3.77086e-08 0)
(3.00248e-08 -3.51732e-08 0)
(3.50861e-08 -3.24272e-08 0)
(4.02616e-08 -2.95497e-08 0)
(4.55208e-08 -2.66264e-08 0)
(2.14132e-09 -4.52511e-08 0)
(6.44248e-09 -4.48173e-08 0)
(1.07881e-08 -4.38922e-08 0)
(1.5206e-08 -4.25286e-08 0)
(1.97179e-08 -4.07759e-08 0)
(2.43377e-08 -3.86892e-08 0)
(2.90709e-08 -3.63303e-08 0)
(3.39137e-08 -3.37654e-08 0)
(3.88529e-08 -3.10645e-08 0)
(4.38632e-08 -2.83038e-08 0)
(2.0904e-09 -4.57276e-08 0)
(6.28684e-09 -4.5326e-08 0)
(1.05205e-08 -4.44687e-08 0)
(1.48151e-08 -4.32038e-08 0)
(1.91886e-08 -4.15756e-08 0)
(2.36527e-08 -3.96333e-08 0)
(2.82119e-08 -3.74323e-08 0)
(3.28631e-08 -3.50315e-08 0)
(3.75949e-08 -3.24934e-08 0)
(4.23858e-08 -2.98859e-08 0)
(2.04211e-09 -4.62304e-08 0)
(6.13964e-09 -4.58569e-08 0)
(1.02688e-08 -4.50588e-08 0)
(1.44497e-08 -4.38804e-08 0)
(1.86975e-08 -4.23617e-08 0)
(2.30221e-08 -4.05473e-08 0)
(2.74269e-08 -3.8487e-08 0)
(3.19089e-08 -3.62342e-08 0)
(3.64584e-08 -3.38446e-08 0)
(4.10566e-08 -3.13793e-08 0)
(1.99554e-09 -4.67573e-08 0)
(5.9981e-09 -4.64083e-08 0)
(1.00279e-08 -4.56622e-08 0)
(1.41023e-08 -4.45597e-08 0)
(1.82343e-08 -4.31375e-08 0)
(2.2432e-08 -4.14363e-08 0)
(2.66982e-08 -3.95014e-08 0)
(3.10299e-08 -3.73812e-08 0)
(3.54184e-08 -3.51263e-08 0)
(3.98471e-08 -3.27914e-08 0)
(1.94997e-09 -4.73059e-08 0)
(5.85997e-09 -4.69784e-08 0)
(9.79393e-09 -4.6278e-08 0)
(1.3767e-08 -4.52425e-08 0)
(1.77904e-08 -4.39056e-08 0)
(2.18712e-08 -4.23047e-08 0)
(2.60114e-08 -4.04813e-08 0)
(3.0208e-08 -3.84797e-08 0)
(3.44531e-08 -3.63461e-08 0)
(3.87321e-08 -3.41297e-08 0)
(1.90479e-09 -4.78737e-08 0)
(5.72332e-09 -4.75651e-08 0)
(9.56338e-09 -4.69052e-08 0)
(1.34385e-08 -4.5929e-08 0)
(1.73587e-08 -4.46677e-08 0)
(2.133e-08 -4.31558e-08 0)
(2.53539e-08 -4.14316e-08 0)
(2.94277e-08 -3.95359e-08 0)
(3.3544e-08 -3.7511e-08 0)
(3.76896e-08 -3.54016e-08 0)
(1.85943e-09 -4.84581e-08 0)
(5.58646e-09 -4.81664e-08 0)
(9.3333e-09 -4.75424e-08 0)
(1.31123e-08 -4.66189e-08 0)
(1.69327e-08 -4.54248e-08 0)
(2.07998e-08 -4.39922e-08 0)
(2.4715e-08 -4.23563e-08 0)
(2.86754e-08 -4.0555e-08 0)
(3.26744e-08 -3.86274e-08 0)
(3.67001e-08 -3.66141e-08 0)
(1.81338e-09 -4.90565e-08 0)
(5.44779e-09 -4.87798e-08 0)
(9.10091e-09 -4.81879e-08 0)
(1.27844e-08 -4.73115e-08 0)
(1.65068e-08 -4.61775e-08 0)
(2.02732e-08 -4.48156e-08 0)
(2.40848e-08 -4.32585e-08 0)
(2.79391e-08 -4.15415e-08 0)
(3.18298e-08 -3.97007e-08 0)
(3.57463e-08 -3.77732e-08 0)
(1.76613e-09 -4.9666e-08 0)
(5.30576e-09 -4.94028e-08 0)
(8.86354e-09 -4.88399e-08 0)
(1.24507e-08 -4.80059e-08 0)
(1.60755e-08 -4.69258e-08 0)
(1.9743e-08 -4.56271e-08 0)
(2.34544e-08 -4.41406e-08 0)
(2.72074e-08 -4.24989e-08 0)
(3.09966e-08 -4.07355e-08 0)
(3.48121e-08 -3.88846e-08 0)
(1.71717e-09 -5.02836e-08 0)
(5.1588e-09 -5.00327e-08 0)
(8.61848e-09 -4.9496e-08 0)
(1.21073e-08 -4.87004e-08 0)
(1.56334e-08 -4.7669e-08 0)
(1.9202e-08 -4.64274e-08 0)
(2.28146e-08 -4.50042e-08 0)
(2.64696e-08 -4.34299e-08 0)
(3.01617e-08 -4.17356e-08 0)
(3.38823e-08 -3.99528e-08 0)
(1.66594e-09 -5.0906e-08 0)
(5.00526e-09 -5.06664e-08 0)
(8.36293e-09 -5.01539e-08 0)
(1.175e-08 -4.93932e-08 0)
(1.51749e-08 -4.8406e-08 0)
(1.86431e-08 -4.72161e-08 0)
(2.21567e-08 -4.58502e-08 0)
(2.57146e-08 -4.43365e-08 0)
(2.93123e-08 -4.27041e-08 0)
(3.2942e-08 -4.09821e-08 0)
(1.61184e-09 -5.15296e-08 0)
(4.84341e-09 -5.13006e-08 0)
(8.09389e-09 -5.08104e-08 0)
(1.13745e-08 -5.00819e-08 0)
(1.4694e-08 -4.91352e-08 0)
(1.80585e-08 -4.79926e-08 0)
(2.1471e-08 -4.66789e-08 0)
(2.49311e-08 -4.52203e-08 0)
(2.84351e-08 -4.36437e-08 0)
(3.1976e-08 -4.19759e-08 0)
(1.55426e-09 -5.21501e-08 0)
(4.67145e-09 -5.19314e-08 0)
(7.80821e-09 -5.14622e-08 0)
(1.0976e-08 -5.07636e-08 0)
(1.41842e-08 -4.98543e-08 0)
(1.744e-08 -4.87554e-08 0)
(2.07472e-08 -4.74899e-08 0)
(2.41067e-08 -4.60819e-08 0)
(2.75157e-08 -4.45563e-08 0)
(3.09682e-08 -4.29375e-08 0)
(1.49285e-09 -5.27629e-08 0)
(4.48786e-09 -5.25546e-08 0)
(7.50256e-09 -5.21054e-08 0)
(1.05492e-08 -5.14346e-08 0)
(1.36385e-08 -5.05603e-08 0)
(1.67785e-08 -4.95024e-08 0)
(1.99744e-08 -4.8282e-08 0)
(2.32281e-08 -4.69215e-08 0)
(2.65385e-08 -4.54434e-08 0)
(2.99009e-08 -4.38698e-08 0)
(1.42873e-09 -5.33631e-08 0)
(4.292e-09 -5.31656e-08 0)
(7.17392e-09 -5.2735e-08 0)
(1.00892e-08 -5.20905e-08 0)
(1.305e-08 -5.12495e-08 0)
(1.60654e-08 -5.02306e-08 0)
(1.91416e-08 -4.90534e-08 0)
(2.22819e-08 -4.77384e-08 0)
(2.54867e-08 -4.6306e-08 0)
(2.87539e-08 -4.47755e-08 0)
(1.36851e-09 -5.39467e-08 0)
(4.08554e-09 -5.37586e-08 0)
(6.82157e-09 -5.33455e-08 0)
(9.59431e-09 -5.27264e-08 0)
(1.24162e-08 -5.19178e-08 0)
(1.52968e-08 -5.09368e-08 0)
(1.8243e-08 -4.98015e-08 0)
(2.1259e-08 -4.85308e-08 0)
(2.43465e-08 -4.71433e-08 0)
(2.75055e-08 -4.5656e-08 0)
)
;

boundaryField
{
    left
    {
        type            symmetryPlane;
    }
    right
    {
        type            tractionDisplacement;
        traction        uniform (10000 0 0);
        pressure        uniform 0;
        value           nonuniform List<vector> 
30
(
(1.37747e-07 2.50616e-10 -7.48959e-26)
(1.37517e-07 8.31691e-10 -1.0661e-25)