/*--------------------------------*- C++ -*----------------------------------*\
| =========                 |                                                 |
| \\      /  F ield         | OpenFOAM: The Open Source CFD Toolbox           |
|  \\    /   O peration     | Version:  2.3.0                                 |
|   \\  /    A nd           | Web:      www.OpenFOAM.org                      |
|    \\/     M anipulation  |                                                 |
\*---------------------------------------------------------------------------*/
FoamFile
{
    version     2.0;
    format      ascii;
    class       volSymmTensorField;
    location    "80";
    object      sigma;
}
// * * * * * * * * * * * * * * * * * * * * * * * * * * * * * * * * * * * * * //

dimensions      [1 -1 -2 0 0 0 0];

internalField   nonuniform List<symmTensor> 
1000
(
(7759.68 -5587.23 3.85039e-13 4572.31 -2.50547e-13 2845.84)
(10945.5 -4254.96 1.77947e-14 1148.92 7.69543e-14 2791.02)
(12566 -3362.59 1.30493e-13 -706.765 6.67678e-14 2736.74)
(13393.1 -2728.88 2.16485e-14 -1723.08 -1.83336e-14 2693.07)
(13784.5 -2262.63 9.94571e-14 -2269.11 5.45767e-14 2657.41)
(13927.3 -1909.74 -9.388e-16 -2540.43 6.93413e-15 2627.74)
(13924.8 -1636.34 -7.8793e-14 -2647.33 -4.32102e-14 2602.49)
(13836.8 -1420.13 -1.19943e-13 -2656.3 -5.751e-14 2580.11)
(13708 -1242.1 0 -2610.69 0 2560.92)
(13538 -1014.45 1.29108e-14 -2532.43 -1.64547e-15 2539.75)
(10753.9 -6875.47 2.32253e-13 5146.78 -1.60835e-13 3669.39)
(13178.8 -4612 -5.80275e-14 1845.94 3.20721e-14 3467.25)
(14303.7 -3207.87 6.78834e-14 31.3154 3.23416e-14 3308.07)
(14778.8 -2294.78 2.45041e-14 -997.164 -1.58358e-14 3180.38)
(14910.9 -1679.36 -9.85507e-14 -1580.19 -5.58037e-14 3076.32)
(14856.9 -1252.36 -4.81933e-15 -1899.16 1.05829e-14 2990.25)
(14701.8 -948.346 8.6066e-14 -2057.25 4.68969e-14 2917.97)
(14494.6 -725.749 -8.18541e-14 -2116.8 -3.85306e-14 2856.41)
(14272.1 -553.99 -2.65275e-14 -2115.33 5.36541e-15 2805.41)
(14027.9 -360.751 -1.33292e-14 -2055.01 -1.64484e-14 2762.97)
(14065.7 -7836.23 1.76074e-13 5268.93 -1.50818e-13 4461.84)
(15469.7 -4804.33 -3.12066e-14 2374.83 1.25441e-14 4117.97)
(15957.8 -2982.3 -5.63454e-16 759.872 2.41917e-16 3857.93)
(16006.1 -1845.1 -1.32191e-14 -192.167 6.23388e-15 3649.36)
(15841.3 -1113.36 -9.77613e-14 -763.214 -5.44908e-14 3479.55)
(15574.5 -631.678 -8.19321e-14 -1104.32 -5.27578e-14 3339.27)
(15263.3 -308.7 -3.39767e-14 -1302.11 -2.15257e-14 3221.81)
(14939.5 -88.3577 3.3513e-14 -1409.37 1.98806e-14 3122.34)
(14627 66.8545 -1.57044e-14 -1457.7 4.18147e-15 3039.07)
(14317.1 224.542 -1.1002e-14 -1444.12 -1.50861e-14 2970.68)
(17550.9 -8358.88 2.99339e-13 5000.8 -1.34811e-13 5204.24)
(17740.9 -4798.45 -7.61196e-14 2744.4 -3.25438e-14 4727.39)
(17490.2 -2695.4 1.58696e-15 1458.44 -4.48061e-16 4372.76)
(17060.4 -1413.13 0 656.19 0 4088.43)
(16575.3 -611.051 8.15078e-14 138.316 5.68366e-14 3856.99)
(16088.1 -101.254 -6.40617e-15 -202.692 2.60954e-15 3665.86)
(15621.6 225.454 -7.32767e-14 -429.471 -4.23441e-14 3505.87)
(15185.8 435.135 5.25366e-14 -580.987 4.24327e-14 3370.35)
(14789.2 571.122 -1.36304e-14 -680.945 4.86506e-15 3255.74)
(14416.7 696.797 5.4313e-14 -723.065 3.09628e-14 3160.06)
(21037 -8367.4 -2.73891e-13 4437.22 4.64825e-14 5878.67)
(19907.6 -4573.91 -1.8161e-13 2975.1 -5.52643e-14 5280.61)
(18866.5 -2357.4 1.72043e-14 2106.78 -2.29519e-15 4839.98)
(17937.2 -1025.96 1.11093e-14 1505.55 -1.6361e-15 4486.78)
(17126.2 -208.442 0 1070.88 0 4199.33)
(16420.9 298.651 1.54622e-13 747.387 8.67063e-14 3961.91)
(15805.4 612.822 1.05599e-13 501.42 5.86337e-14 3763.12)
(15265.7 804.809 5.57815e-14 310.738 3.90304e-14 3594.55)
(14793.1 920.645 -4.05959e-14 161.152 -9.99996e-15 3450.99)
(14366.6 1017.21 -5.5665e-14 61.1316 -3.01974e-14 3329.48)
(24336 -7828.25 -4.36267e-13 3695.66 7.39292e-14 6468.85)
(21881.4 -4125.98 1.47444e-13 3095.92 2.90165e-14 5764)
(20056.5 -1979.12 9.39904e-14 2684.77 2.57758e-14 5247.99)
(18640.3 -702.274 0 2309.6 0 4834.58)
(17517.3 72.0414 -7.58796e-14 1974.74 -4.11888e-14 4498.17)
(16607.5 544.273 4.27228e-17 1680.28 2.02718e-17 4220.26)
(15855.6 829.708 1.36171e-13 1423.3 6.53429e-14 3987.43)
(15223.1 997.641 6.34738e-14 1199.37 2.83209e-14 3789.8)
(14685.3 1092.88 4.8827e-15 1004.47 -3.26766e-15 3620.72)
(14214.7 1164.01 -4.44685e-14 848.525 -1.57952e-14 3476.13)
(27257.8 -6754.97 -6.77979e-14 2902.67 4.02297e-15 6960.1)
(23576.8 -3467.74 1.74428e-13 3139.21 4.62914e-14 6165.23)
(21035.5 -1571.91 0 3173.08 0 5586.6)
(19179.5 -451.43 -1.16472e-13 3021.4 -4.19744e-14 5123.29)
(17778.2 222.738 -1.38603e-16 2789.06 -4.95243e-17 4746.28)
(16688.4 629.211 -1.3906e-13 2528.78 -5.5399e-14 4434.73)
(15818.5 870.635 -7.99397e-16 2266.92 4.57633e-15 4173.56)
(15107.9 1008.74 4.32271e-15 2016.08 -5.52238e-15 3951.69)
(14516.8 1083.26 3.34247e-14 1782.08 4.58859e-15 3761.27)
(14012 1133.25 -1.71086e-16 1575.93 1.43116e-16 3597.21)
(29622.2 -5208.44 -7.32347e-14 2179.59 -2.68639e-14 7338.87)
(24916.1 -2631.69 4.39207e-14 3135.17 2.40316e-14 6473.38)
(21784.4 -1149.3 -7.95812e-14 3553.54 -2.52253e-14 5847.21)
(19567.7 -275.293 -9.69335e-14 3598.03 -2.80074e-14 5345.95)
(17939.2 248.368 1.04973e-16 3458.16 7.75335e-17 4937.84)
(16703.9 561.773 -2.93801e-17 3231.08 -4.96723e-17 4600.39)
(15740.2 745.759 -6.2709e-14 2968.17 -1.57756e-14 4317.3)
(14968.6 849.101 -5.5674e-14 2696.79 -1.89864e-14 4076.64)
(14337.2 903.087 2.70483e-15 2431.39 -3.8869e-15 3869.67)
(13807.8 936.368 5.89939e-15 2183.95 1.98166e-15 3690.41)
(31264.4 -3294.24 3.0562e-13 1627.22 -1.44969e-14 7590.37)
(25836.1 -1674.95 1.40383e-13 3107.27 5.98039e-15 6679.23)
(22288.7 -735.81 -1.29005e-14 3812.63 -1.36758e-14 6023.38)
(19815.8 -179.669 9.10494e-14 4006.18 1.22196e-14 5497.38)
(18026 153.569 4.31666e-15 3937.28 6.39307e-15 5068.45)
(16688.5 352.536 7.07537e-14 3736.3 1.98296e-14 4713.41)
(15659.6 468.991 0 3473.7 0 4415.37)
(14846.7 534.265 0 3187.9 0 4161.84)
(14188.9 568.475 -2.45753e-14 2899.65 -5.03312e-15 3943.52)
(13644.6 589.271 1.88639e-14 2621.79 -1.20471e-14 3753.78)
(32062.4 -1159.42 7.70307e-15 1328.15 1.30749e-14 7705.5)
(26335.2 -713.381 -4.51237e-13 3108.19 -9.51014e-15 6794.64)
(22534.2 -410.892 5.40812e-14 3962.15 -1.19814e-14 6114.53)
(19902.7 -220.152 9.40483e-14 4229.49 3.90268e-15 5568.96)
(18016.8 -101.498 7.86922e-14 4192.71 3.48731e-15 5125.27)
(16620.7 -27.5605 0 4001.5 0 4758.97)
(15556.2 18.4319 0 3736.44 0 4452.14)
(14722.1 46.7809 3.04137e-16 3441.25 -3.56104e-15 4191.54)
(14052.6 64.2781 7.22884e-14 3139.19 3.25703e-15 3967.33)
(13504.8 76.7134 -1.0992e-15 2842.19 -2.51366e-16 3772.39)
(-490.861 433.145 -1.25878e-14 -11887.6 2.10739e-13 -2856.57)
(-515.3 173.933 1.65017e-15 -7784.14 -4.02765e-14 -1915.26)
(-127.686 -30.7326 0 -5207.18 0 -1231.12)
(581.842 -151.619 5.73832e-15 -3536.16 1.88779e-14 -681.765)
(1403.72 -213.758 -7.77479e-15 -2422.28 1.16628e-14 -235.053)
(2235.54 -240.671 -5.05721e-15 -1655.86 2.96302e-14 133.774)
(3030.22 -247.204 3.41025e-14 -1110.99 2.55771e-14 442.901)
(3768.43 -242.159 4.32235e-14 -710.238 2.99883e-16 705.736)
(4444.78 -231.02 -9.87088e-16 -404.837 -3.19837e-15 932.294)
(5060.48 -219.453 4.41784e-15 -164.088 6.00166e-15 1129.94)
(-570.443 1050.09 -2.61915e-15 -11483.7 -4.93984e-14 -2781.73)
(-330.532 -184.528 2.47748e-16 -7504.98 6.43804e-16 -1808.2)
(183.217 -838.055 -2.5989e-14 -5145.86 -3.81175e-14 -1145.22)
(949.237 -1171.26 -8.5586e-15 -3612.85 -8.07149e-15 -614.68)
(1786.74 -1326.28 1.16871e-14 -2576.83 4.82475e-15 -182.328)
(2613.55 -1380.07 -3.45108e-15 -1852.79 -8.82679e-15 175.558)
(3392.9 -1376.69 -1.80334e-14 -1329.69 -9.81153e-15 476.127)
(4110.52 -1341.86 -4.66106e-14 -938.259 -9.09978e-15 732.06)
(4762.96 -1290.99 -3.62365e-14 -634.183 2.14589e-16 952.794)
(5349.43 -1240.86 4.28246e-14 -388.139 2.74661e-16 1144.91)
(-653.325 1515.75 -4.5756e-15 -10303.1 -3.63061e-14 -2528.41)
(33.3675 -451.169 5.17598e-14 -6979.72 6.14809e-14 -1603.01)
(773.4 -1468.15 4.25792e-17 -4973.17 2.60635e-16 -969.178)
(1642.09 -1973.88 -8.9178e-14 -3648.82 -5.29185e-14 -463.092)
(2513.17 -2202.65 -7.74958e-14 -2736.88 -3.582e-14 -51.6266)
(3334.94 -2276.48 -3.51823e-14 -2085.02 -1.4574e-14 288.443)
(4088.23 -2263.2 -2.53663e-14 -1602.02 -1.57552e-14 573.741)
(4768.72 -2201.95 1.42967e-14 -1230.79 4.44493e-16 816.445)
(5378.11 -2115.99 -7.14074e-14 -934.589 -1.39357e-14 1025.43)
(5915.39 -2032.02 -8.9231e-14 -688.954 -8.94619e-15 1206.1)
(-682.879 1706.14 -2.28926e-14 -8599.86 4.14613e-14 -2142.17)
(610.709 -746.564 1.80142e-15 -6209.51 -1.7725e-14 -1292.03)
(1645.62 -2008.31 -3.34941e-14 -4709.36 5.47744e-15 -707.016)
(2638.39 -2626.03 3.46894e-15 -3676.61 1.72076e-14 -239.591)
(3544.21 -2896.9 5.20725e-16 -2936.42 6.45413e-16 140.259)
(4352.03 -2975.66 8.12063e-15 -2385.05 3.63442e-15 453.918)
(5065.05 -2947.32 -6.29241e-14 -1958.91 -1.87854e-14 716.802)
(5691.71 -2860.39 1.22101e-14 -1617.52 1.24955e-14 940.196)
(6240.7 -2743.52 1.71136e-14 -1334.81 6.09067e-15 1132.13)
(6710.39 -2632.84 3.86478e-14 -1093.34 1.29541e-14 1296.24)
(-578.041 1544.77 4.79777e-14 -6538.69 -1.52704e-13 -1642.32)
(1403.93 -1110.97 -4.9441e-14 -5244.45 -4.949e-15 -886.274)
(2769.1 -2468.63 -8.07601e-14 -4354.26 -4.17282e-14 -365.805)
(3892.63 -3121.06 7.32094e-14 -3673.6 1.24639e-14 50.5456)
(4825.94 -3394.52 6.52781e-14 -3140.54 2.61688e-14 388.941)
(5606.67 -3459.62 7.09734e-14 -2710.94 3.01201e-14 668.246)
(6264.01 -3409.85 7.83521e-14 -2354.78 2.90753e-14 902.13)
(6820.92 -3298.12 -2.46565e-14 -2051.53 -1.21273e-15 1100.63)
(7293.78 -3155.62 3.28237e-14 -1787.76 2.39071e-14 1270.62)
(7679.53 -3027.06 -1.48212e-14 -1554.48 -1.24021e-14 1413.47)
(-239.076 1000.68 -1.61862e-14 -4283.69 2.07267e-13 -1043.72)
(2423.11 -1555.67 -6.19063e-14 -4147.09 -3.24504e-15 -397.841)
(4107.38 -2844.89 1.00443e-13 -3910.9 3.00678e-14 45.3421)
(5346.26 -3445.26 4.00625e-15 -3612.39 -2.16628e-14 400.124)
(6289.88 -3677.08 7.631e-14 -3306.17 3.23272e-14 688.548)
(7026.42 -3708.23 -6.84111e-14 -3011.49 -2.76178e-14 926.523)
(7612.08 -3630.49 6.07033e-14 -2734.42 2.38547e-14 1125.61)
(8084.65 -3495.49 -2.38477e-14 -2475.98 -1.26952e-15 1294.31)
(8468.07 -3333.59 4.51256e-14 -2236.42 -1.58426e-15 1438.07)
(8757.47 -3196.86 -1.70184e-14 -2016.29 -3.14415e-14 1555.66)
(434.836 88.1678 2.77735e-13 -2001.02 -4.51381e-13 -361.426)
(3678.31 -2072.72 -2.6409e-14 -2983.77 4.90946e-14 160.28)
(5620.95 -3131.9 2.21045e-13 -3386.38 8.69665e-14 515.67)
(6934.77 -3593.85 8.46988e-15 -3466.77 -2.41864e-14 800.308)
(7860.04 -3739.89 1.14194e-16 -3389.25 1.5363e-14 1031.72)
(8531.17 -3716.93 -6.83566e-14 -3233.33 -2.37906e-14 1222.58)
(9028.94 -3605.03 -1.46095e-14 -3039.95 -4.44097e-15 1382.08)
(9404.45 -3448.77 0 -2831.09 0 1516.93)
(9688.23 -3274.25 -5.48355e-14 -2620.7 -2.29289e-14 1630.97)
(9873.32 -3139.19 8.21581e-14 -2419.63 2.5837e-14 1720.08)
(1530.17 -1135.32 1.1726e-13 149.384 -2.7156e-13 387.59)
(5172.77 -2639.48 1.01841e-13 -1819.29 -2.08932e-14 773.88)
(7267.85 -3326.3 -4.52609e-14 -2790.38 -4.77117e-14 1033.26)
(8592.83 -3573.88 9.05428e-14 -3214.96 7.34403e-14 1241.05)
(9460.24 -3595.31 -2.77923e-13 -3350.39 -1.13144e-13 1409.96)
(10041.1 -3500.67 8.15928e-14 -3327.75 3.74029e-14 1549.22)
(10435.1 -3349.31 -1.25791e-14 -3217.97 -4.3648e-15 1665.49)
(10703.4 -3173.83 0 -3061.38 0 1763.55)
(10881 -2993.35 1.30896e-14 -2884.33 -9.04811e-16 1845.38)
(10958.2 -2869.28 1.56378e-14 -2708.19 -2.14541e-15 1903.85)
(3106.95 -2574.42 0 2027.35 0 1184.84)
(6898.68 -3221.4 -2.0802e-14 -712.009 2.36534e-14 1427.69)
(9004.12 -3427.57 -2.15915e-13 -2135.11 -1.58308e-13 1585.16)
(10258 -3403.66 -2.50366e-14 -2842.34 3.57182e-14 1711.3)
(11019.6 -3271.85 -5.86305e-15 -3159.7 1.50194e-14 1813.83)
(11482.8 -3093.09 7.95358e-14 -3256.52 2.46627e-14 1898.37)
(11758.5 -2898.83 0 -3226.19 0 1969)
(11913.5 -2705.55 0 -3122.67 0 2028.65)
(11984.7 -2523.71 0 -2981.98 0 2077.54)
(11958.1 -2418.95 1.13054e-13 -2834.79 2.80374e-14 2105.37)
(5189.62 -4105.42 2.32352e-13 3524.56 -2.35209e-13 2010.97)
(8835.07 -3775.69 -5.38748e-14 289.279 4.88623e-14 2105.62)
(10785 -3438.12 -4.6272e-14 -1435.04 -4.90994e-14 2157.69)
(11873.9 -3110.76 -9.36595e-14 -2343.41 -7.82279e-14 2199.34)
(12477.1 -2811.05 1.98354e-13 -2800.03 1.02271e-13 2233.16)
(12794.2 -2543.33 0 -2996.27 0 2261.05)
(12938.2 -2306.72 -7.8532e-14 -3038.54 -4.08548e-14 2284.55)
(12977.1 -2098.12 0 -2988.17 0 2305.14)
(12951.8 -1914.49 1.11117e-14 -2885.5 -1.25564e-15 2322.99)
(12860.4 -1823.8 -2.6613e-14 -2774.79 -1.43918e-14 2327.44)
(5602.77 -189.495 6.69354e-14 25.105 -8.32763e-15 1298.74)
(6100.93 -158.967 -1.02162e-14 202.078 -2.783e-14 1454.54)
(6548.23 -134.293 -8.39697e-14 361.401 -1.12997e-14 1594.53)
(6952.97 -113.262 -9.54204e-17 510.108 -3.64624e-19 1722.25)
(7320.41 -95.2018 -5.87392e-15 653.486 -1.61106e-14 1840.13)
(7654.85 -79.625 -3.02358e-14 795.821 -1.62567e-16 1950.16)
(7959.89 -66.1722 0 940.632 0 2053.97)
(8238.54 -54.5358 0 1090.88 0 2152.94)
(8493.35 -44.4274 -6.29409e-14 1249.19 4.06541e-15 2248.28)
(8726.37 -35.5666 1.02054e-13 1418.01 1.38359e-14 2341.01)
(8939.22 -27.6768 9.64797e-14 1599.77 -1.62681e-14 2432.07)
(9133.09 -20.4786 -7.02387e-14 1796.98 -7.7152e-15 2522.32)
(9308.72 -13.6862 -3.5522e-14 2012.36 -4.75885e-15 2612.56)
(9466.41 -6.99447 -1.02888e-13 2248.89 -1.77215e-15 2703.53)
(9605.94 -0.0707498 3.67842e-14 2509.98 4.76217e-15 2795.98)
(9726.55 7.43008 6.75474e-14 2799.43 8.73674e-16 2890.61)
(9826.85 15.6599 1.05833e-15 3121.39 -6.34139e-16 2988.05)
(9905.04 23.6479 3.26235e-14 3479.4 3.7898e-15 3088.72)
(9959.78 26.2853 -3.36729e-14 3873.3 6.45432e-16 3192.25)
(10016.3 9.45661 7.68195e-14 4297.33 5.67818e-15 3303.14)
(5849.01 -1147.99 9.26491e-14 -177.793 1.04034e-14 1308.74)
(6303.41 -1023.25 4.34417e-14 31.5021 1.00426e-14 1461.9)
(6711.43 -921.21 -2.14383e-14 214.343 2.74428e-15 1598.25)
(7085.68 -830.673 6.79628e-14 382.306 6.94185e-15 1723.38)
(7428.5 -750.223 2.02358e-15 541.616 8.62432e-17 1839.26)
(7742.68 -678.652 -9.66078e-14 697.241 -4.5153e-15 1947.67)
(8030.83 -614.793 9.22332e-15 853.123 5.586e-15 2050.14)
(8295.31 -557.528 -6.39148e-14 1012.54 -1.49869e-15 2147.97)
(8538.13 -505.788 -1.71182e-15 1178.34 -9.80445e-17 2242.26)
(8760.98 -458.553 5.99163e-14 1353.18 -2.54968e-15 2334.04)
(8965.17 -414.842 4.26201e-14 1539.61 7.43616e-15 2424.18)
(9151.68 -373.694 -6.88445e-15 1740.25 -3.75621e-15 2513.52)
(9321.1 -334.152 -3.46574e-14 1957.88 -1.58374e-15 2602.84)
(9473.67 -295.234 0 2195.51 0 2692.89)
(9609.26 -255.942 -5.08537e-15 2456.51 -1.61019e-15 2784.41)
(9727.39 -215.269 -6.85792e-14 2744.64 -4.53186e-15 2878.16)
(9827.28 -172.314 -3.37836e-15 3064.26 1.28259e-16 2974.97)
(9907.58 -126.231 2.45579e-15 3421.07 -8.02858e-16 3075.84)
(9964.8 -74.9784 1.6311e-15 3824.87 -1.57845e-15 3182.23)
(10014.7 -9.91331 1.08642e-13 4306.47 3.95706e-14 3304.89)
(6343.78 -1885.66 -1.02272e-14 -463.03 -2.27205e-15 1357.1)
(6726.91 -1694.49 6.57296e-14 -218.535 5.98708e-15 1501.93)
(7062.53 -1536.49 -5.87057e-14 -8.16924 -1.92351e-15 1627.93)
(7376.83 -1394.31 1.81174e-14 184.763 -2.91399e-15 1744.98)
(7669.85 -1266.34 1.07205e-13 366.011 9.61566e-15 1854.43)
(7942.52 -1151.27 -1.00653e-13 540.522 -6.31831e-15 1957.63)
(8195.94 -1047.7 -3.39956e-14 712.424 -1.3224e-15 2055.78)
(8431.21 -954.134 6.48216e-14 885.241 2.61876e-15 2149.95)
(8649.37 -869.05 1.68464e-15 1062.07 1.67639e-16 2241.1)
(8851.32 -790.94 -6.56654e-15 1245.78 -2.68658e-15 2330.1)
(9037.77 -718.312 1.00323e-13 1439.1 5.84339e-15 2417.74)
(9209.24 -649.685 2.36259e-14 1644.78 -1.97965e-15 2504.77)
(9365.97 -583.569 -1.012e-13 1865.68 -7.49842e-15 2591.92)
(9507.96 -518.449 -3.40691e-14 2104.88 -2.8641e-15 2679.89)
(9634.93 -452.768 2.89667e-14 2365.79 2.13058e-15 2769.4)
(9746.25 -384.898 2.96927e-14 2652.3 3.09708e-15 2861.21)
(9840.79 -313.013 -4.16124e-14 2969.17 -4.17487e-15 2956.14)
(9916.35 -234.424 -3.7694e-14 3322.78 -4.13602e-15 3055.18)
(9968.66 -143.186 2.17677e-14 3722.6 9.45985e-15 3159.52)
(9997.16 -21.9622 -3.24392e-14 4185.14 -1.88205e-14 3272.84)
(7043.91 -2449.27 -4.693e-14 -850.153 -1.74284e-14 1429.33)
(7329.19 -2217.58 -1.49321e-14 -563.429 -5.05754e-15 1561.33)
(7567.15 -2024.9 3.2267e-14 -318.664 1.90832e-15 1672.73)
(7798.99 -1849.08 -2.21955e-14 -93.8736 -8.57542e-15 1778.1)
(8022.43 -1688.61 1.21654e-14 116.146 4.27229e-15 1878.13)
(8236.37 -1542.47 -2.0565e-14 316.005 2.43176e-15 1973.63)
(8440.15 -1409.49 -8.44461e-14 509.787 -2.08068e-14 2065.37)
(8633.38 -1288.22 -6.53826e-14 701.15 -3.85212e-15 2154.12)
(8815.81 -1177.08 2.09748e-14 893.401 -1.58247e-15 2240.59)
(8987.32 -1074.35 6.77761e-14 1089.61 4.96571e-15 2325.45)
(9147.79 -978.269 8.40501e-14 1292.71 1.1276e-14 2409.35)
(9297.03 -887.034 2.51747e-14 1505.6 7.98482e-15 2492.92)
(9434.78 -798.769 -7.84991e-14 1731.25 -3.48936e-15 2576.78)
(9560.6 -711.524 3.36475e-14 1972.82 3.86902e-15 2661.56)
(9673.83 -623.231 2.72949e-14 2233.75 2.96997e-15 2747.9)
(9773.45 -531.605 -2.69167e-14 2518.01 -3.94123e-15 2836.49)
(9857.93 -433.86 5.72517e-15 2830.34 3.54892e-16 2928.06)
(9924.88 -325.845 2.7631e-14 3176.64 6.67327e-15 3023.43)
(9970.82 -199.314 -4.88084e-14 3564.39 -4.25833e-15 3123.51)
(9974.33 -32.495 -9.08565e-15 3997.66 -1.05297e-14 3224.3)
(7902.31 -2825.4 8.55044e-14 -1295.13 4.16332e-15 1524.74)
(8068.98 -2583.28 -8.78946e-14 -968.699 -2.25583e-14 1638.53)
(8191.93 -2379.95 -1.72551e-14 -688.356 2.83523e-15 1731.59)
(8325.29 -2190.8 1.50304e-14 -429.756 5.40939e-15 1822.05)
(8464.78 -2014.78 4.5299e-14 -188.183 1.56886e-14 1909.98)
(8607.12 -1851.69 1.12294e-13 40.2601 1.20365e-14 1995.55)
(8749.81 -1701.02 3.24247e-14 259.29 1.01076e-14 2079.02)
(8890.83 -1561.83 -6.67448e-14 472.451 -5.28596e-15 2160.76)
(9028.6 -1432.81 -5.86253e-14 683.096 -2.02904e-14 2241.16)
(9161.79 -1312.39 -8.90737e-14 894.406 -5.60592e-15 2320.66)
(9289.31 -1198.82 2.00468e-14 1109.44 6.7895e-15 2399.71)
(9410.19 -1090.16 2.93529e-14 1331.19 9.30906e-15 2478.78)
(9523.51 -984.322 -3.22383e-14 1562.72 -9.04937e-15 2558.36)
(9628.29 -879.041 9.035e-14 1807.18 1.18663e-14 2638.95)
(9723.42 -771.806 2.71683e-14 2068.01 6.1052e-15 2721.1)
(9807.54 -659.737 -2.51668e-14 2349.03 -4.68069e-15 2805.36)
(9878.93 -539.261 4.88146e-14 2654.62 8.67911e-15 2892.36)
(9935.33 -405.201 1.05232e-13 2989.86 2.37186e-14 2982.74)
(9974.05 -247.924 -2.45455e-14 3360.64 -9.51495e-15 3077.24)
(9951.42 -43.0866 -3.38382e-14 3760.84 -3.00149e-14 3164.37)
(8864.02 -2997.03 1.22407e-14 -1746.51 7.21813e-15 1642.5)
(8899.97 -2777.34 -8.75158e-15 -1394.55 3.90551e-15 1732.02)
(8900.43 -2589.01 -1.0661e-13 -1084.47 -1.33014e-14 1803.68)
(8926.77 -2408.43 -6.93453e-14 -795.884 -7.70603e-15 1876.36)
(8973.92 -2235.29 -4.09371e-15 -524.572 -7.05062e-16 1949.85)
(9036.56 -2070.69 5.03508e-16 -267.947 4.97001e-17 2023.53)
(9110.49 -1915.27 4.24907e-14 -23.161 1.58412e-14 2097.08)
(9192.2 -1769 1.67416e-13 212.836 1.69346e-14 2170.39)
(9278.74 -1631.24 1.88272e-14 443.153 5.72707e-15 2243.51)
(9367.66 -1500.88 -1.6599e-13 670.879 -1.89953e-14 2316.59)
(9456.85 -1376.45 -2.79167e-14 899.039 -8.85485e-15 2389.82)
(9544.51 -1256.12 1.64572e-13 1130.63 2.25697e-14 2463.49)
(9629.01 -1137.78 1.19646e-15 1368.66 -4.72405e-15 2537.92)
(9708.84 -1018.99 -1.62442e-13 1616.2 -2.75913e-14 2613.47)
(9782.45 -896.928 -3.52243e-14 1876.52 -6.79625e-15 2690.53)
(9848.21 -768.267 -3.10896e-14 2153.14 -6.34214e-15 2769.54)
(9904.3 -628.843 -3.06693e-14 2449.9 -4.75859e-15 2850.97)
(9948.62 -472.787 7.26207e-14 2771.09 1.87867e-14 2935.32)
(9979.03 -289.618 5.6255e-14 3121.41 1.01821e-14 3023.18)
(9932.73 -53.7185 -3.36449e-14 3486.23 -3.50946e-14 3096.68)
(9868.49 -2959.47 -7.0147e-15 -2150.38 -4.57202e-15 1781.1)
(9771.77 -2794.2 -4.59719e-14 -1799.01 -9.03024e-15 1839.87)
(9652.96 -2645.54 0 -1472.48 0 1887.8)
(9571.99 -2495.14 0 -1163.8 0 1940.35)
(9524.84 -2343.4 -6.28335e-14 -869.389 -2.33306e-14 1997.41)
(9504.8 -2193.12 0 -588.807 0 2057.54)
(9506.4 -2046.4 -3.64388e-14 -320.778 -1.33166e-14 2119.76)
(9524.96 -1904.44 -5.74804e-14 -63.2658 -1.99006e-14 2183.47)
(9556.4 -1767.61 4.93969e-14 186.177 1.7487e-14 2248.29)
(9597.24 -1635.57 3.4563e-14 430.248 1.15943e-14 2314.03)
(9644.45 -1507.38 -2.98161e-14 671.702 -1.00728e-14 2380.65)
(9695.45 -1381.56 3.22668e-14 913.35 5.1187e-15 2448.18)
(9747.95 -1256.18 4.18646e-14 1157.99 1.29091e-14 2516.75)
(9799.91 -1128.81 1.27009e-14 1408.48 3.70911e-15 2586.55)
(9849.44 -996.484 3.23284e-14 1667.72 4.08588e-15 2657.81)
(9894.68 -855.581 5.32293e-14 1938.8 1.32197e-14 2730.8)
(9933.74 -701.528 -1.13719e-13 2224.94 -2.98589e-14 2805.85)
(9964.66 -527.971 -9.3338e-14 2529.63 -2.98691e-14 2883.3)
(9985.69 -323.949 3.08307e-14 2856.5 1.14375e-14 2963.58)
(9922.18 -63.7349 -3.0407e-14 3184.85 -3.97155e-14 3024.7)
(10854.8 -2722.97 2.1453e-14 -2455.87 -4.75916e-15 1938.21)
(10633.9 -2638.8 -3.03925e-14 -2141.64 -6.55742e-15 1959.75)
(10408.8 -2550.54 -1.16984e-13 -1818.65 -2.3962e-14 1982.35)
(10228.3 -2449.6 1.01395e-14 -1505.27 -3.74626e-15 2013)
(10091.3 -2336.56 2.97815e-15 -1198.88 7.09653e-16 2052.09)
(9990.72 -2215.85 -3.53126e-14 -902.299 -5.52859e-15 2097.33)
(9920.62 -2091.11 3.22549e-14 -616.504 -1.02856e-14 2147.1)
(9875.58 -1964.93 5.19555e-14 -341.203 1.77819e-14 2200.24)
(9850.8 -1838.89 -1.22452e-13 -75.0237 -9.88499e-15 2255.95)
(9842 -1713.65 -2.44259e-14 183.855 -8.04633e-15 2313.66)
(9845.45 -1589.04 6.90706e-15 437.701 -8.88052e-15 2373.04)
(9857.88 -1464.16 0 688.808 0 2433.85)
(9876.47 -1337.45 1.56676e-14 939.662 5.113e-15 2496.03)
(9898.69 -1206.68 1.25157e-13 1192.62 2.99399e-14 2559.53)
(9922.38 -1068.93 4.84799e-14 1450.19 1.24249e-14 2624.44)
(9945.51 -920.462 -5.06239e-14 1714.72 -1.4201e-14 2690.82)
(9966.26 -756.436 7.46806e-15 1988.74 -9.0144e-16 2758.85)
(9982.79 -570.15 0 2274.73 0 2828.66)
(9993.72 -350.403 1.83693e-14 2575.39 1.08187e-14 2900.57)
(9922.96 -72.2269 -1.90065e-14 2867.46 -4.12918e-14 2951.63)
(11770.5 -2306.13 1.9704e-14 -2616.37 2.21623e-16 2112.5)
(11443.8 -2318.84 -3.74311e-14 -2379.04 5.99863e-15 2091.86)
(11131.8 -2306.18 7.83288e-15 -2083.9 -3.88804e-15 2087.97)
(10865.5 -2270.61 -2.64764e-14 -1785.12 -1.15287e-14 2095.46)
(10648.4 -2211.85 4.70682e-14 -1482.21 2.68836e-14 2115.28)
(10474.1 -2135.25 1.60133e-13 -1181.6 4.1473e-14 2144.42)
(10336.7 -2045.64 -5.82919e-14 -887.281 -9.61629e-15 2180.63)
(10230.7 -1946.93 -1.28933e-13 -601.061 -1.33273e-14 2222.23)
(10151.2 -1841.94 1.94012e-14 -323.322 -1.14125e-14 2267.96)
(10093.3 -1732.45 1.19383e-13 -53.3521 1.3344e-14 2316.92)
(10053 -1619.23 -8.97191e-14 210.09 -2.73567e-14 2368.41)
(10026.5 -1502.11 -5.08592e-14 468.693 -3.85704e-15 2421.96)
(10010.5 -1380.1 -6.03276e-14 724.204 -1.29664e-14 2477.23)
(10002.1 -1251.39 -3.25117e-15 978.494 -9.30672e-16 2533.98)
(9998.96 -1113.28 9.01504e-14 1233.26 2.51167e-14 2592.05)
(9998.99 -962.128 1.51657e-14 1490.15 4.34457e-15 2651.34)
(10000.5 -793.035 0 1750.55 0 2711.77)
(10002 -599.055 1.49372e-14 2015.79 7.91328e-15 2773.33)
(10002.5 -368.835 -5.74101e-14 2287.09 -2.51975e-14 2836.06)
(9937.26 -78.3494 5.17668e-14 2543.91 7.41759e-14 2880.27)
(12598 -1723.97 5.90003e-14 -2599.9 3.9873e-14 2307.26)
(12190.6 -1837.94 9.43404e-15 -2443.15 -4.74073e-15 2249.42)
(11800 -1917.54 4.044e-14 -2204.19 1.34168e-14 2214.43)
(11456.7 -1963.46 -8.3209e-14 -1949.58 -1.33285e-14 2193.96)
(11166.5 -1975.07 -1.08853e-13 -1677.14 -2.87742e-14 2189.85)
(10924.1 -1957.6 4.32871e-14 -1394.57 -1.23463e-15 2199.13)
(10724.3 -1916.65 1.54101e-13 -1108.68 4.13373e-14 2218.99)
(10561.7 -1857.27 4.55133e-14 -824.205 -5.98198e-16 2247.11)
(10431 -1783.59 -8.19239e-14 -544.068 -2.29447e-14 2281.6)
(10327.3 -1698.64 2.6349e-17 -269.616 -8.12385e-16 2321)
(10246 -1604.28 4.72976e-15 -1.20061 1.4794e-14 2364.18)
(10182.9 -1501.35 -1.07858e-13 261.59 -2.81431e-14 2410.26)
(10134.3 -1389.6 5.82038e-14 519.467 1.35121e-14 2458.56)
(10097.1 -1267.82 -2.81167e-14 773.355 -1.28438e-14 2508.57)
(10068.6 -1133.8 -1.21474e-16 1024.02 8.68818e-17 2559.84)
(10046.7 -984.213 -4.52186e-14 1272.04 -1.41217e-14 2612.02)
(10029.8 -814.363 2.79678e-14 1517.49 9.8479e-15 2664.75)
(10016.9 -617.336 6.87647e-16 1759.95 1.08302e-17 2717.74)
(10008 -381.395 -1.38616e-14 1998.25 -9.83777e-15 2770.67)
(9964.74 -81.8887 -8.50945e-15 2217.81 -3.90246e-15 2811.36)
(13174.2 -1221.26 -2.9694e-14 -2536.63 -2.35875e-14 2454.82)
(12725.2 -1393.7 -3.47048e-14 -2324.29 -2.03793e-14 2400.21)
(12277.8 -1547.68 -2.28663e-14 -2155.67 -7.47591e-15 2335.88)
(11898.6 -1650.39 3.15456e-14 -1944.82 1.74363e-14 2297.03)
(11571.8 -1711.67 -4.80394e-14 -1706.62 -3.75515e-14 2276.59)
(11291.6 -1738.46 -3.43975e-14 -1451.05 -2.39199e-14 2270.89)
(11053.1 -1736.62 -5.74455e-14 -1185.98 -2.06741e-14 2277.02)
(10851.9 -1711.3 -4.09981e-15 -917.441 5.9224e-15 2292.57)
(10683.6 -1666.79 1.01832e-13 -649.438 4.09204e-14 2315.58)
(10543.9 -1606.42 -5.57945e-15 -384.58 -1.08641e-15 2344.45)
(10428.5 -1532.47 4.85183e-14 -124.224 2.02697e-14 2377.91)
(10333.6 -1446.17 -4.56007e-14 130.911 -1.84541e-14 2414.89)
(10255.7 -1347.77 0 380.665 0 2454.56)
(10191.8 -1236.51 -1.87014e-14 624.903 -7.18296e-15 2496.16)
(10139.3 -1110.61 1.77795e-14 863.527 6.4155e-15 2539.11)
(10096.1 -967.23 -1.53122e-15 1095.96 -5.06611e-16 2582.79)
(10061.2 -802.214 -2.57935e-14 1321.18 -9.59669e-15 2626.69)
(10033.8 -609.266 3.02214e-16 1537.04 2.70152e-16 2670.2)
(10014.8 -377.131 -1.47727e-14 1740.1 -3.37429e-15 2712.67)
(10012.4 -79.3423 -4.86518e-15 1926.86 -2.82362e-15 2755.21)
(13090.6 -863.566 4.2926e-14 -2316.51 2.0019e-14 2486.33)
(12784.5 -1056.56 0 -2215.16 0 2439.09)
(12400.6 -1237.44 -3.47706e-14 -2093.16 -1.15693e-14 2378.63)
(12054.9 -1372.64 6.3709e-28 -1916.73 2.25434e-28 2339.57)
(11745.9 -1465.12 7.64507e-29 -1706.02 7.95288e-29 2316.91)
(11472.6 -1521.28 4.80705e-28 -1472.94 2.35561e-28 2307.62)
(11232.8 -1546.9 5.57946e-28 -1226.32 1.94468e-28 2309.19)
(11024.1 -1546.86 -3.02e-14 -972.844 -7.50634e-15 2319.51)
(10843.6 -1525.17 0 -717.368 0 2336.83)
(10688.6 -1485.01 2.88967e-14 -463.26 7.11169e-15 2359.69)
(10555.9 -1428.66 -2.264e-28 -212.762 -3.85859e-29 2386.88)
(10442.6 -1357.48 -2.78431e-14 32.6604 -7.2876e-15 2417.37)
(10346 -1271.93 2.73938e-14 271.988 7.57821e-15 2450.31)
(10263.8 -1171.58 2.96612e-28 504.364 1.0231e-28 2484.96)
(10193.9 -1055.09 -2.66219e-14 728.811 -8.57538e-15 2520.62)
(10134.8 -920.137 -1.8236e-28 943.971 -6.45051e-29 2556.64)
(10085.8 -763.247 2.59982e-14 1147.79 1.01947e-14 2592.37)
(10047.1 -579.107 2.57431e-14 1337.11 1.12892e-14 2627.12)
(10019.8 -357.945 -1.20004e-28 1506.9 -7.2174e-29 2660)
(10010.3 -75.3587 -3.38521e-14 1650.05 -5.76057e-14 2690.84)
(13038.3 -517.865 1.83908e-14 -2011.22 -1.38385e-15 2544.7)
(12795.8 -719.898 -1.83567e-14 -1979.18 -1.55269e-14 2496.14)
(12469.5 -916.854 -5.33359e-14 -1915.57 -2.72575e-14 2435.52)
(12158.8 -1076.48 0 -1788.15 0 2393.22)
(11869.6 -1196.48 1.45495e-14 -1617.95 -3.70011e-15 2365.76)
(11605.5 -1280.51 -4.3699e-15 -1419 -1.68037e-14 2350.73)
(11367.4 -1333.12 -4.93045e-14 -1201.34 -2.10623e-14 2346.01)
(11154.7 -1358.51 -6.60334e-14 -972.48 -3.13685e-14 2349.75)
(10966.2 -1360.28 2.98576e-14 -738.056 8.02842e-15 2360.34)
(10800.1 -1341.34 -3.43842e-14 -502.259 -1.9975e-14 2376.43)
(10654.5 -1303.87 -1.6926e-14 -268.179 -9.24613e-15 2396.84)
(10527.1 -1249.29 -3.335e-14 -38.1418 -1.70604e-14 2420.53)
(10416 -1178.27 -3.28848e-14 185.988 -1.56862e-14 2446.61)
(10319.4 -1090.67 -1.62292e-14 402.508 -7.1879e-15 2474.28)
(10235.8 -985.575 -3.20687e-14 609.605 -1.31365e-14 2502.77)
(10164.2 -861.218 -3.17093e-14 805.059 -1.19786e-14 2531.36)
(10104.3 -714.838 -2.6177e-14 985.929 -1.0725e-14 2559.28)
(10056.7 -542.106 -1.55192e-14 1148.12 -4.98769e-15 2585.72)
(10023.3 -334.699 -1.53478e-14 1285.8 -4.59353e-15 2609.8)
(10008.5 -70.5408 -5.06501e-15 1390.46 -4.30236e-15 2630.53)
(12913.3 -229.641 1.60305e-13 -1737.11 7.61363e-14 2579.12)
(12719.2 -426.679 1.65535e-14 -1747.87 1.48482e-14 2531.83)
(12445.9 -626.255 -8.61289e-14 -1725.49 -3.97479e-14 2473.94)
(12175.5 -798.024 1.31788e-27 -1639.63 5.37984e-28 2431.35)
(11914.6 -936.071 4.87352e-14 -1507.08 7.99472e-15 2401.73)
(11668.7 -1041.03 0 -1341.32 0 2383.25)
(11441 -1115.54 1.72341e-14 -1152.78 1.22367e-14 2374.22)
(11232.7 -1162.66 -6.14762e-14 -949.459 -1.81279e-14 2373.06)
(11043.8 -1185.25 1.47519e-27 -737.549 5.10839e-28 2378.37)
(10873.8 -1185.77 5.88759e-14 -521.843 1.72306e-14 2388.92)
(10721.7 -1166.16 -1.66806e-14 -306.098 -9.40112e-15 2403.59)
(10586 -1127.8 -1.89095e-28 -93.3291 -5.6796e-29 2421.39)
(10465.6 -1071.42 -1.1475e-27 113.888 -3.67688e-28 2441.43)
(10359.3 -997.136 1.61993e-14 313.146 7.45837e-15 2462.88)
(10266.1 -904.412 -5.56373e-28 501.919 -2.01433e-28 2484.94)
(10185.6 -792.008 -5.32823e-14 677.281 -2.08179e-14 2506.82)
(10117.9 -657.881 4.5911e-28 835.587 1.89495e-28 2527.72)
(10064 -498.704 3.65463e-14 972.104 1.88454e-14 2546.79)
(10026.2 -307.572 -1.54593e-14 1080.4 -5.14403e-15 2563.06)
(10006.9 -64.9475 -7.38554e-14 1150.67 -1.23635e-13 2574.83)
(12735.6 5.38853 2.86377e-14 -1486.23 2.83262e-14 2596.01)
(12582 -181.98 4.97699e-14 -1526.13 2.7853e-14 2551.35)
(12355.3 -375.943 3.09887e-14 -1532.43 2.79639e-14 2497.59)
(12124.4 -550.248 1.68867e-28 -1479.51 3.34889e-29 2456.52)
(11894.9 -697.368 6.51738e-14 -1379.84 3.77351e-14 2426.54)
(11672.4 -815.682 -1.58095e-14 -1244.97 1.98927e-15 2406.33)
(11461.1 -905.975 -1.50195e-14 -1084.72 1.9212e-15 2394.54)
(11263.2 -969.958 3.29452e-14 -907.051 2.28771e-14 2389.89)
(11080.1 -1009.59 3.01459e-14 -718.395 9.45698e-15 2391.17)
(10912.1 -1026.71 4.59602e-14 -523.918 1.94291e-14 2397.28)
(10759.1 -1022.92 3.27012e-14 -327.84 1.89782e-14 2407.21)
(10620.4 -999.4 -1.21841e-14 -133.699 -4.72114e-16 2420.02)
(10495.6 -956.911 4.37904e-15 55.3761 6.97804e-15 2434.84)
(10384 -895.727 1.60718e-14 236.412 7.6829e-15 2450.86)
(10285.2 -815.629 5.90557e-14 406.32 2.46071e-14 2467.27)
(10199.2 -715.866 1.58553e-14 561.63 6.66701e-15 2483.26)
(10126.6 -595.072 5.87681e-30 698.191 2.57776e-30 2498.02)
(10068.6 -450.854 5.74475e-14 810.806 2.42793e-14 2510.64)