/*--------------------------------*- C++ -*----------------------------------*\
| =========                 |                                                 |
| \\      /  F ield         | OpenFOAM: The Open Source CFD Toolbox           |
|  \\    /   O peration     | Version:  2.3.0                                 |
|   \\  /    A nd           | Web:      www.OpenFOAM.org                      |
|    \\/     M anipulation  |                                                 |
\*---------------------------------------------------------------------------*/
FoamFile
{
    version     2.0;
    format      ascii;
    class       volScalarField;
    location    "1.45";
    object      alpha.water;
}
// * * * * * * * * * * * * * * * * * * * * * * * * * * * * * * * * * * * * * //

dimensions      [0 0 0 0 0 0 0];

internalField   nonuniform List<scalar> 
2268
(
1
1
1
0.999999
0.999999
1
1
0.999999
1
0.999999
1
1
1
1
0.984817
0.973838
0.973838
0.974333
0.992847
0.999717
0.999761
0.989073
0.987729
1
0.999999
1
0.999999
0.999999
1
1
0.999999
1
1
1
1
1
1
0.9798
0.974453
0.97945
0.994895
0.999691
0.99976
0.999755
0.998734
0.987729
1
1
1
1
0.999999
0.999999
1
0.999999
1
1
1
1
1
0.999161
0.98695
0.985468
0.994254
0.999509
0.999198
0.998939
0.999646
0.999843
0.988591
1
1
1
1
1
1
1
1
1
1
1
1
1
0.999865
0.999608
0.999846
0.999986
0.999932
0.998845
0.997535
0.999282
0.999859
0.997462
1
1
1
1
1
1
0.999999
0.999999
0.999999
1
1
1
1
1
1
1
0.999994
0.995835
0.990419
0.995054
0.999861
0.999878
0.999913
1
1
1
1
1
1
0.999999
0.999999
0.999999
1
1
1
1
1
1
1
0.999576
0.978432
0.972605
0.99342
0.99986
0.999875
0.999888
1
0.999999
0.999999
0.999999
0.999999
1
0.999999
0.999999
0.999999
1
1
1
1
1
1
1
0.991412
0.948949
0.9709
0.999219
0.999874
0.999888
0.999895
0.999997
0.999993
0.999993
0.999994
0.999997
0.999998
0.999999
0.999999
1
1
1
1
1
0.999999
1
1
0.952078
0.912028
0.96871
0.999552
0.999859
0.999896
0.999895
0.992067
0.992075
0.99216
0.994669
0.994889
0.994906
0.994906
0.94505
0.830415
0.844006
0.953058
0.958681
0.932862
0.907865
0.907862
0.907864
0.914227
0.924672
0.932976
0.992517
0.99482
0.994842
0.994874
0.994906
0.994929
0.994911
0.905911
0.623263
0.596378
0.682777
0.937982
0.956904
0.921755
0.907859
0.907863
0.907864
0.907907
0.951124
0.994563
0.994793
0.99485
0.994872
0.994898
0.994959
0.97649
0.66406
0.596378
0.596378
0.596378
0.78311
0.959367
0.960194
0.959453
0.945087
0.907907
0.908085
0.959777
0.994536
0.994673
0.994728
0.994836
0.994818
0.984124
0.792648
0.650456
0.665823
0.618226
0.597931
0.791692
0.960234
0.960543
0.960633
0.960724
0.947424
0.949949
0.960688
0.994084
0.993641
0.993794
0.994625
0.937388
0.741069
0.650456
0.649449
0.761238
0.787928
0.71408
0.768313
0.872598
0.96055
0.960723
0.960778
0.960867
0.960913
0.960901
0.909116
0.84581
0.905801
0.991817
0.804949
0.672549
0.664079
0.747997
0.809964
0.805808
0.795606
0.479572
0.35928
0.665595
0.920189
0.960863
0.96089
0.960895
0.960902
0.624253
0.335082
0.385657
0.787932
0.833842
0.765546
0.78976
0.81687
0.813463
0.8099
0.627923
0.335971
0.329444
0.327382
0.700381
0.943413
0.960888
0.960904
0.961133
0.615409
0.162278
0.124647
0.372677
0.809942
0.816245
0.816893
0.816238
0.816238
0.787389
0.5279
0.373058
0.413958
0.328171
0.334252
0.341109
0.737868
0.961133
0.961389
0.999961
0.999934
0.999933
0.999949
0.999971
0.999986
0.999995
0.999999
1
1
1
1
1
1
1
0.984047
0.912026
0.911898
0.926035
0.995488
0.999725
0.999875
0.999895
0.9998
0.999701
0.999682
0.99975
0.999861
0.999926
0.999973
0.999991
0.999996
0.999998
0.999999
1
0.999999
0.999999
1
0.960334
0.9119
0.911905
0.935522
0.988763
0.976866
0.990813
0.999874
0.949317
0.931595
0.948966
0.982758
0.998461
0.999063
0.999633
0.999874
0.999934
0.999959
0.999971
0.999982
0.999983
0.99998
0.999982
0.995781
0.990034
0.987931
0.973132
0.970637
0.930089
0.837822
0.772944
0.358561
0.288565
0.347034
0.553415
0.714172
0.763769
0.904404
0.990492
0.998925
0.999288
0.999475
0.999564
0.999584
0.999584
0.999553
0.996475
0.989364
0.979287
0.939289
0.773957
0.505112
0.311329
0.204614
0.0237167
0.0237769
0.0240727
0.138241
0.177898
0.142491
0.239756
0.501536
0.713767
0.834532
0.894391
0.915054
0.915631
0.903213
0.844126
0.736241
0.622164
0.422944
0.177842
0.0645649
0.0167643
0.00248967
0.00186597
0.0236692
0.0237167
0.0359868
0.031617
0.0325026
0.0341262
0.0104735
0.00437288
0.0449752
0.119579
0.192855
0.228775
0.231822
0.212297
0.128586
0.0377896
0.0369087
0.0358042
0.0365694
0.0167205
0.0016368
0.00102718
0.000875288
0.0236651
0.0340875
0.0567331
0.0125477
0.0119186
0.0471077
0.0153507
0.000313598
0.000251892
0.000334312
0.000509689
0.00179009
0.00392115
0.00590929
0.00913827
0.03594
0.0468439
0.0463803
0.0298281
0.00218835
0.00103147
0.000831755
0.000692474
0.0236651
0.0540356
0.0567173
0.011203
0.00879826
0.0468883
0.0283057
0.000257798
0.000182317
0.00187411
0.0175631
0.0241022
0.0261758
0.0254803
0.0231806
0.00816421
0.012389
0.0153105
0.0183369
0.00337826
0.000850612
0.000757998
0.000711303
0.0275365
0.0517074
0.0422711
0.00668122
0.00702427
0.00188541
0.00133366
0.000242175
0.000165888
0.00249275
0.0114546
0.00544994
0.000486612
1.34757e-08
5.88921e-08
3.92695e-07
1.08241e-06
2.45318e-06
0.0034123
0.00475998
0.0032195
0.00228549
0.00220176
0.0443894
0.0462638
0.0204358
0.00116955
2.9245e-05
7.97337e-07
1.51137e-05
0.000350797
0.000160631
1.59593e-09
1.59593e-09
1.64692e-09
2.21506e-09
5.207e-09
1.34554e-08
5.85605e-08
3.92705e-07
3.91204e-06
0.000866038
0.00306997
0.00317642
0.00286788
0.000863238
0.0149763
0.00154703
7.35667e-05
0.000586135
2.75004e-06
1.28257e-08
2.30918e-05
0.000125874
2.54328e-06
1.59594e-09
1.64765e-09
1.75983e-09
3.16665e-09
1.12546e-08
9.15229e-08
1.05577e-06
1.56153e-06
3.82555e-05
0.000141921
0.000513646
0.00105571
0.000560191
1.28494e-05
7.74181e-07
8.53813e-07
5.43358e-05
1.65126e-05
-1.81917e-09
7.70506e-10
8.65888e-10
8.63407e-10
8.88622e-10
2.37634e-09
1.82169e-09
2.15688e-09
3.12093e-08
6.93952e-08
8.12481e-09
3.01305e-07
3.5861e-06
5.3829e-06
9.608e-06
9.45663e-06
4.12775e-06
4.88686e-06
1.87628e-06
6.20999e-07
1.38185e-06
9.19613e-06
3.04313e-07
6.1058e-09
4.36169e-09
8.67479e-10
9.85238e-10
2.48548e-09
4.13743e-09
4.1311e-09
2.4975e-09
1.0389e-09
9.25211e-10
2.10958e-09
3.49858e-08
3.6381e-08
3.38326e-07
9.07647e-07
7.05118e-07
3.50445e-07
4.3956e-07
2.16371e-07
4.90501e-07
2.06655e-06
5.16193e-06
2.25108e-08
3.05356e-09
2.79497e-09
2.90438e-09
2.52414e-09
3.28487e-09
4.13577e-09
3.71746e-09
1.94877e-09
1.02174e-09
7.73402e-10
6.36863e-10
5.4001e-10
1.93114e-09
2.83323e-08
5.67183e-08
4.46861e-08
2.39729e-08
3.65657e-08
2.24393e-08
4.53518e-07
3.00881e-07
3.23495e-07
6.64221e-09
5.19231e-09
5.06352e-09
5.15337e-09
2.65257e-09
2.64642e-09
3.30995e-09
3.33794e-09
2.43961e-09
1.49359e-09
7.88303e-10
5.99957e-10
4.71392e-10
5.69777e-10
1.35592e-09
2.26615e-09
2.08294e-09
1.4447e-09
2.37946e-09
1.76182e-09
3.55917e-07
3.11849e-08
5.36312e-09
4.27928e-09
4.17376e-09
4.82004e-09
3.36886e-09
2.21136e-09
2.25435e-09
2.92888e-09
3.31016e-09
3.27892e-09
2.89298e-09
1.41035e-09
7.33022e-10
4.50453e-10
3.16125e-10
2.23981e-10
1.70441e-10
1.39943e-10
9.97769e-11
1.39709e-10
1.44478e-10
6.13952e-06
3.46314e-08
7.33524e-08
1.01634e-07
2.82223e-09
4.0567e-09
2.47143e-09
1.81549e-09
1.5971e-09
1.68902e-09
2.61308e-09
3.10849e-09
3.06596e-09
2.54123e-09
1.19048e-09
6.42699e-10
3.64304e-10
1.81347e-10
1.01442e-10
5.84418e-11
3.93533e-11
3.03089e-11
2.96207e-11
2.61481e-05
2.18254e-05
7.81666e-08
4.55943e-07
2.46143e-09
8.11766e-09
2.17286e-09
1.64872e-09
1.38029e-09
1.23703e-09
1.25217e-09
1.53864e-09
1.71688e-09
1.55504e-09
1.18331e-09
7.62103e-10
3.76701e-10
1.69295e-10
7.78742e-11
5.2657e-11
3.43408e-11
2.29605e-11
1.87405e-11
2.34019e-05
3.89426e-05
2.17841e-05
2.96844e-07
1.76856e-09
4.73102e-09
1.6653e-09
1.61871e-09
1.32802e-09
1.10726e-09
1.06077e-09
1.03499e-09
1.01479e-09
9.33137e-10
7.49233e-10
4.90243e-10
2.68126e-10
1.29519e-10
6.97438e-11
4.21114e-11
2.4977e-11
1.6454e-11
1.17884e-11
3.66021e-06
3.89426e-05
3.89426e-05
5.43034e-06
1.7454e-09
1.72762e-09
1.72489e-09
1.99255e-09
1.57307e-09
1.05346e-09
9.17227e-10
8.38539e-10
7.72348e-10
6.6182e-10
4.87913e-10
3.0092e-10
1.50334e-10
9.06261e-11
4.67209e-11
2.82589e-11
1.80898e-11
1.18801e-11
7.94655e-12
2.81481e-08
2.93181e-05
2.09276e-05
5.22438e-06
2.68907e-07
1.74661e-09
1.68627e-09
1.90044e-09
1.67417e-09
1.11808e-09
7.81073e-10
6.21784e-10
5.02429e-10
3.8044e-10
2.39712e-10
1.47727e-10
9.34371e-11
4.60056e-11
2.77739e-11
1.83419e-11
1.21861e-11
7.96202e-12
5.12312e-12
2.17244e-09
1.03836e-06
2.25421e-07
8.54277e-07
3.28069e-07
3.31319e-08
1.32106e-09
1.26031e-09
1.20659e-09
8.73194e-10
5.86087e-10
3.97859e-10
2.50828e-10
1.72752e-10
1.24633e-10
6.52391e-11
3.87794e-11
2.53821e-11
1.68755e-11
1.10508e-11
7.07808e-12
4.44346e-12
2.75608e-12
9.87968e-11
1.67124e-09
5.76086e-09
2.47856e-09
1.89819e-08
1.0949e-08
3.33862e-09
1.13897e-09
7.36293e-10
5.03486e-10
3.20723e-10
1.97605e-10
1.16542e-10
7.29719e-11
4.68494e-11
3.0617e-11
2.01319e-11
1.31428e-11
8.4561e-12
5.34512e-12
3.31705e-12
2.02438e-12
1.22246e-12
5.421e-11
7.97312e-11
4.15043e-10
3.40356e-10
4.71884e-10
6.77401e-10
9.62395e-10
6.94401e-10
4.02809e-10
2.34575e-10
1.00778e-10
7.07925e-11
4.75741e-11
3.21551e-11
2.16712e-11
1.44083e-11
9.37048e-12
5.93861e-12
3.66719e-12
2.21072e-12
1.30509e-12
7.58152e-13
4.3767e-13
4.96045e-11
5.24312e-11
9.9303e-11
2.14542e-10
4.34516e-10
4.66681e-10
4.07666e-10
2.69155e-10
1.06407e-10
6.87151e-11
4.70932e-11
3.25895e-11
2.24519e-11
1.51395e-11
9.91022e-12
6.27969e-12
3.85202e-12
2.29133e-12
1.32541e-12
7.48165e-13
4.13942e-13
2.26083e-13
1.24131e-13
3.6804e-11
4.00996e-11
6.53918e-11
1.68037e-10
2.11607e-10
1.64222e-10
9.71213e-11
6.5609e-11
4.58796e-11
3.22357e-11
2.23238e-11
1.5105e-11
9.9265e-12
6.30621e-12
3.86289e-12
2.2808e-12
1.3001e-12
7.17516e-13
3.84828e-13
2.01462e-13
1.03601e-13
5.31876e-14
2.90673e-14
1.94933e-11
4.56346e-11
5.61834e-11
6.11033e-11
6.00031e-11
5.28157e-11
4.23629e-11
3.01053e-11
2.07798e-11
1.4061e-11
9.2667e-12
5.91267e-12
3.63588e-12
2.14852e-12
1.21891e-12
6.64611e-13
3.49202e-13
1.77464e-13
8.76234e-14
4.22991e-14
2.03053e-14
1.04913e-14
7.84502e-15
7.25874e-12
2.18928e-11
2.74832e-11
2.87814e-11
2.68444e-11
2.25946e-11
1.69353e-11
1.1684e-11
7.7949e-12
5.02697e-12
3.12255e-12
1.86133e-12
1.06189e-12
5.79135e-13
3.02145e-13
1.51148e-13
7.27607e-14
3.38581e-14
1.53279e-14
6.87999e-15
3.39714e-15
2.77091e-15
4.96682e-15
2.15192e-12
7.76433e-12
1.06519e-11
1.10644e-11
9.79609e-12
7.68803e-12
5.44181e-12
3.63887e-12
2.32375e-12
1.41729e-12
8.24009e-13
4.55894e-13
2.39836e-13
1.20048e-13
5.72955e-14
2.61655e-14
1.14857e-14
4.87824e-15
2.04786e-15
9.74115e-16
9.02436e-16
1.97654e-15
5.44567e-15
5.43933e-13
2.11822e-12
2.92024e-12
3.0001e-12
2.5781e-12
1.95443e-12
1.35601e-12
8.77857e-13
5.34209e-13
3.06454e-13
1.65852e-13
8.47157e-14
4.0888e-14
1.86919e-14
8.12314e-15
3.37176e-15
1.34577e-15
5.28609e-16
2.42969e-16
2.60399e-16
6.878e-16
2.1384e-15
6.31764e-15
1.18861e-13
4.69186e-13
6.24861e-13
6.20721e-13
5.20496e-13
3.86487e-13
2.60367e-13
1.61595e-13
9.30429e-14
4.98907e-14
2.49878e-14
1.17186e-14
5.16184e-15
2.14452e-15
8.44699e-16
3.17651e-16
1.168e-16
5.15666e-17
6.32903e-17
1.97681e-16
6.9376e-16
2.29853e-15
7.06826e-15
2.23654e-14
8.56758e-14
1.08247e-13
1.03142e-13
8.33871e-14
5.96686e-14
3.84917e-14
2.26197e-14
1.22003e-14
6.06731e-15
2.79222e-15
1.1941e-15
4.76998e-16
1.79063e-16
6.36402e-17
2.19062e-17
9.10766e-18
1.22434e-17
4.43734e-17
1.76392e-16
6.6044e-16
2.30463e-15
7.48953e-15
3.573e-15
1.30111e-14
1.53551e-14
1.38076e-14
1.06162e-14
7.2104e-15
4.39068e-15
2.41441e-15
1.20657e-15
5.50578e-16
2.30515e-16
8.91012e-17
3.2027e-17
1.07939e-17
3.4797e-18
1.31957e-18
1.77953e-18
7.32961e-18
3.32056e-17
1.41858e-16
5.65568e-16
2.10473e-15
7.32193e-15
4.8276e-16
1.6501e-15
1.7961e-15
1.50811e-15
1.08777e-15
6.91283e-16
3.91969e-16
1.99249e-16
9.10726e-17
3.76207e-17
1.41513e-17
4.89042e-18
1.56735e-18
4.73677e-19
1.58552e-19
1.8537e-19
8.34772e-19
4.32334e-18
2.13382e-17
9.84658e-17
4.22764e-16
1.69119e-15
6.33254e-15
5.49265e-17
1.75929e-16
1.75608e-16
1.36627e-16
9.1516e-17
5.38568e-17
2.80268e-17
1.29372e-17
5.3169e-18
1.95949e-18
6.53958e-19
1.998e-19
5.66994e-20
1.65459e-20
1.37783e-20
6.16652e-20
3.59196e-19
2.06082e-18
1.12253e-17
5.66739e-17
2.64007e-16
1.14041e-15
4.60651e-15
5.24897e-18
1.58272e-17
1.45289e-17
1.04444e-17
6.44922e-18
3.47075e-18
1.63393e-18
6.74442e-19
2.45417e-19
7.95151e-20
2.32234e-20
6.20099e-21
1.60059e-21
8.13828e-22
2.90165e-21
1.77553e-20
1.14393e-19
7.46141e-19
4.56169e-18
2.54382e-17
1.29696e-16
6.10197e-16
2.67766e-15
4.23645e-19
1.21124e-18
1.03369e-18
6.86871e-19
3.89592e-19
1.89901e-19
7.98563e-20
2.90642e-20
9.22542e-21
2.58711e-21
6.50989e-22
1.51746e-22
4.8132e-23
9.74641e-23
5.32465e-22
3.35495e-21
2.46178e-20
1.8756e-19
1.30979e-18
8.21472e-18
4.66624e-17
2.43089e-16
1.1775e-15
2.87931e-20
8.04905e-20
6.46981e-20
4.01022e-20
2.08074e-20
9.1449e-21
3.39695e-21
1.07347e-21
2.9203e-22
6.9552e-23
1.48479e-23
3.37587e-24
3.0997e-24
1.22242e-23
6.05919e-23
3.48651e-22
3.07796e-21
2.83574e-20
2.33235e-19
1.69682e-18
1.10481e-17
6.53642e-17
3.57292e-16
1.66516e-21
4.67779e-21
3.62428e-21
2.11513e-21
1.01132e-21
3.97576e-22
1.29105e-22
3.48451e-23
7.95129e-24
1.56998e-24
2.88843e-25
1.19155e-25
2.998e-25
1.07995e-24
3.79436e-24
1.58463e-23
1.75374e-22
2.05128e-21
2.08632e-20
1.84582e-19
1.43918e-18
1.00479e-17
6.39315e-17
8.1907e-23
2.41071e-22
1.8504e-22
1.03474e-22
4.59079e-23
1.6158e-23
4.52867e-24
1.02068e-24
1.8916e-25
3.00707e-26
6.3059e-27
9.09844e-27
2.51759e-26
6.57704e-26
1.27869e-25
2.4947e-25
2.9936e-24
4.72239e-23
6.41274e-22
7.47731e-21
7.57446e-20
6.75835e-19
5.40005e-18
3.50246e-24
1.1186e-23
8.74542e-24
4.80381e-24
1.99048e-24
6.25098e-25
1.4864e-25
2.69444e-26
3.83564e-27
5.06202e-28
3.2046e-28
8.17925e-28
1.71466e-27
2.90389e-27
2.58813e-27
1.30902e-27
5.74602e-27
1.38078e-25
2.94309e-24
5.33595e-23
8.32428e-22
1.13146e-20
1.35772e-19
1.4993e-25
4.30817e-25
3.7987e-25
2.09121e-25
8.28395e-26
2.33502e-26
4.62547e-27
6.2982e-28
6.10232e-29
1.22293e-29
2.96674e-29
6.62121e-29
9.60539e-29
9.56497e-29
3.10688e-29
4.77702e-30
4.67939e-31
5.23642e-31
2.82443e-29
1.37609e-27
5.78117e-26
2.12942e-24
6.98575e-23
0.99989
0.999847
0.999809
0.999499
0.999885
0.993566
0.985705
0.884477
0.70696
0.569352
0.273628
0.0528244
0.121113
0.0764062
0.0546755
0.0455937
0.00149399
0.00328334
0.0301434
0.0337775
0.000692474
0.00239901
0.00696796
0.00498348
0.000498107
0.000208574
0.000130086
0.000166708
0.00062591
3.50008e-05
3.76566e-05
4.95882e-05
0.000444302
7.75212e-06
1.17804e-05
1.6411e-05
4.25574e-05
2.37771e-06
3.81851e-06
6.06339e-06
1.4273e-06
7.66522e-07
1.45089e-06
2.79783e-06
2.40235e-07
2.39812e-07
6.61225e-07
1.4685e-06
6.5974e-08
1.00652e-07
2.68264e-07
6.25531e-07
1.32072e-08
2.85537e-08
8.59641e-08
2.02901e-07
2.27317e-09
7.00807e-09
2.24088e-08
4.52753e-08
3.47347e-10
1.69347e-09
4.99056e-09
5.5021e-09
1.23073e-10
3.39968e-10
5.68976e-10
5.44673e-10
2.24591e-11
4.29234e-11
6.31628e-11
5.54581e-11
1.07163e-11
1.26023e-11
1.6042e-11
1.74885e-11
5.99218e-12
5.08649e-12
5.29808e-12
7.99912e-12
3.94498e-12
3.10134e-12
2.53617e-12
2.3155e-12
2.14036e-12
1.6631e-12
1.32545e-12
1.10763e-12
9.3438e-13
7.17347e-13
5.63609e-13
4.6336e-13
3.26506e-13
2.45055e-13
1.89703e-13
1.5505e-13
9.0538e-14
6.74439e-14
5.28633e-14
4.54625e-14
2.20184e-14
1.81846e-14
1.70228e-14
1.84013e-14
7.89132e-15
9.13612e-15
1.16519e-14
1.56607e-14
6.69135e-15
9.30041e-15
1.30649e-14
1.83491e-14
7.77054e-15
1.10767e-14
1.57233e-14
2.21767e-14
9.09379e-15
1.30364e-14
1.85891e-14
2.63332e-14
1.02627e-14
1.48442e-14
2.13777e-14
3.06386e-14
1.10152e-14
1.61639e-14
2.36916e-14
3.47433e-14
1.09427e-14
1.63719e-14
2.46441e-14
3.75503e-14
9.63236e-15
1.47655e-14
2.30969e-14
3.73174e-14
7.14285e-15
1.13095e-14
1.87415e-14
3.29961e-14
4.2523e-15
7.0783e-15
1.28382e-14
2.5435e-14
1.93806e-15
3.5125e-15
7.29582e-15
1.66908e-14
6.25759e-16
1.30952e-15
3.25509e-15
8.68421e-15
1.26813e-16
3.32926e-16
1.01358e-15
3.17605e-15
1.41754e-17
5.13402e-17
1.93531e-16
7.49508e-16
6.7156e-19
3.63559e-18
1.79328e-17
1.01662e-16
1.5582e-21
2.11047e-20
2.82322e-19
5.20353e-18
0.790416
0.132015
0.0599049
0.130866
0.322158
0.522617
0.430112
0.441248
0.496441
0.516566
0.484595
0.484982
0.483716
0.377655
0.119217
0.131388
0.162223
0.440316
0.634452
0.191607
0.0474933
0.0397612
0.0555452
0.138778
0.295127
0.251236
0.07366
0.0413398
0.276298
0.484982
0.483784
0.278094
0.119719
0.119217
0.185107
0.128215
0.0845194
0.0829543
0.0420188
0.0361889
0.0393547
0.0556982
0.0773008
0.168655
0.250381
0.0992106
0.0273178
0.0833407
0.2472
0.252649
0.131392
0.123744
0.189597
0.193138
0.165072
0.0810154
0.0805564
0.0195544
0.0148423
0.0159403
0.00392916
0.00209626
0.0748095
0.172095
0.0683011
0.0259579
0.0270076
0.0855508
0.199056
0.198116
0.19284
0.19284
0.193138
0.19259
0.0814556
0.0805564
0.00434652
0.0012912
0.0015763
0.00176609
0.0018385
0.00208566
0.0217572
0.0312923
0.0257071
0.0257502
0.0300535
0.146663
0.193244
0.193244
0.189179
0.17436
0.192484
0.165285
0.0998535
0.000612083
0.000559925
0.00111612
0.00157317
0.00231891
0.024172
0.0376213
0.03576
0.0257502
0.025709
0.0257502
0.0260164
0.0940053
0.135141
0.0284896
0.00597415
0.0359201
0.0729912
0.0701589
0.000165843
0.000236016
0.000554572
0.00243565
0.0363358
0.0471366
0.0471366
0.0471366
0.0467897
0.0337895
0.0264155
0.0301774
0.0319534
0.00161373
0.000785642
0.000679401
0.00201205
0.000471268
0.00246131
5.66175e-05
9.34149e-05
0.000354043
0.00186123
0.00707698
0.0259726
0.0470602
0.0470476
0.046745
0.0465294
0.0465275
0.0461307
0.029149
0.0206371
0.00538618
0.000402025
0.000334425
0.000359478
0.000115136
2.23905e-05
3.92294e-05
0.000196026
0.00115294
0.000380397
7.93941e-06
5.1651e-06
0.0126552
0.0299049
0.0344189
0.0263505
0.013123
0.0020138
3.60301e-05
0.00428037
0.000469434
9.08211e-05
0.000255534
0.000113069
1.03125e-05
1.74985e-05
3.60767e-05
4.74471e-05
7.60925e-06
5.18079e-06
4.85175e-06
5.15642e-06
9.43788e-06
2.27251e-05
3.2363e-05
3.2162e-05
3.2363e-05
3.36842e-05
3.61766e-05
0.000525685
9.01813e-05
8.64512e-05
8.6799e-05
5.86646e-06
1.04199e-05
1.74986e-05
1.64323e-05
5.83482e-06
4.84866e-06
4.83612e-06
0.000100274
0.000328595
0.000208092
3.21172e-05
3.2363e-05
3.3685e-05
3.716e-05
6.40461e-05
0.000172846
8.64339e-05
8.64037e-05
8.73339e-05
5.02679e-06
2.20286e-05
2.45309e-05
7.81118e-06
5.11857e-06
4.83949e-06
4.84534e-06
4.08975e-05
0.000163577
2.94378e-05
3.13381e-05
5.58906e-05
0.000205322
0.000249561
0.000257945
0.00012784
8.64038e-05
8.64496e-05
0.000149779
7.11013e-06
2.87493e-05
2.72468e-05
1.92846e-05
1.60607e-05
4.84742e-06
4.8359e-06
1.09941e-05
4.96017e-06
5.06297e-06
0.000128563
0.000262379
0.00026429
0.000263755
0.000262432
0.000253907
8.98066e-05
0.000168588
0.000184648
3.47869e-06
2.03966e-05
2.6637e-05
2.86721e-05
2.86004e-05
5.28876e-06
4.83898e-06
4.83685e-06
4.84047e-06
0.000138585
0.000265965
0.000266137
0.000265533
0.000234541
0.000142685
0.000126028
0.000179377
0.000182121
0.000184648
2.08606e-07
3.62524e-06
2.35339e-05
2.86181e-05
2.86338e-05
2.27246e-05
4.83662e-06
4.83521e-06
9.44448e-05
0.000265917
0.000266137
0.000265917
0.000124195
1.20295e-08
1.14747e-06
9.56777e-05
0.000163843
0.000134152
0.000117353
1.6021e-08
9.07733e-08
6.53214e-06
2.86308e-05
2.86331e-05
2.86762e-05
1.43406e-05
4.83666e-06
9.48847e-05
0.000263849
0.000264289
6.40541e-05
1.20293e-08
1.11491e-08
1.01532e-08
1.11472e-08
1.87061e-08
1.03035e-07
1.10531e-06
1.77333e-09
1.13847e-08
6.37839e-08
7.22254e-06
2.5151e-05
2.85404e-05
2.84504e-05
2.357e-05
3.30393e-05
7.46017e-05
4.80564e-05
8.82808e-07
1.16712e-08
1.04632e-08
9.26445e-09
2.57441e-08
3.45027e-08
1.9015e-06
8.86718e-05
1.73965e-10
9.10095e-10
5.66486e-09
3.91806e-08
2.54569e-06
1.55842e-05
2.23134e-05
1.47203e-05
1.16332e-06
2.53708e-07
2.50577e-07
2.31475e-07
2.12149e-07
7.55554e-08
3.34464e-09
2.70341e-07
3.16164e-07
1.02046e-05
0.000124148
1.71745e-11
8.21976e-11
4.28785e-10
3.0871e-09
1.45253e-08
1.55394e-07
1.32518e-06
1.20371e-06
1.06847e-06
3.80497e-07
6.88644e-07
1.35458e-06
1.39312e-06
9.76461e-07
1.65302e-09
1.15095e-09
6.47934e-10
4.03813e-05
0.000124148
6.92397e-12
1.27626e-11
4.12354e-11
2.17895e-10
1.05688e-09
3.68537e-09
9.68945e-09
6.07754e-07
1.16071e-06
3.85417e-07
3.80947e-07
1.34267e-06
1.39312e-06
2.09303e-07
1.6543e-09
2.12789e-09
6.21111e-10
0.000117289
0.00012412
2.91649e-12
6.35949e-12
9.94164e-12
2.51682e-11
8.65892e-11
2.60788e-10
7.69418e-10
3.47803e-07
9.76405e-07
8.40859e-07
1.99967e-07
1.94522e-07
1.37392e-07
8.98979e-09
4.31462e-09
4.22551e-09
5.58526e-10
0.000102612
0.00012397
9.88345e-13
1.86132e-12
6.14411e-12
7.54855e-12
1.74634e-11
3.43558e-11
1.88193e-10
5.7654e-09
1.81477e-07
8.05524e-07
4.11937e-07
4.61007e-08
3.99105e-09
3.86471e-09
4.60959e-09
3.40547e-09
5.02152e-10
8.57284e-06
0.000123713
3.97381e-13
5.50215e-13
1.37992e-12
5.18669e-12
7.79498e-12
1.27992e-11
1.80316e-11
6.00312e-11
3.76025e-10
1.00095e-07
3.92857e-07
2.49877e-07
1.92322e-08
3.38196e-09
3.31306e-09
1.25152e-09
4.82492e-10
5.02198e-10
0.000122952
1.43934e-13
2.24005e-13
5.08709e-13
1.47672e-12
4.37795e-12
1.01615e-11
1.2951e-11
1.81416e-11
4.01843e-11
1.86881e-10
6.40897e-08
1.83199e-07
1.11137e-07
8.2172e-09
5.07387e-10
4.81463e-10
4.76607e-10
4.82475e-10
0.000104498
5.84895e-14
1.242e-13
3.18436e-13
8.57012e-13
2.244e-12
5.27203e-12
1.1713e-11
1.50294e-11
2.14229e-11
3.73935e-11
1.08731e-10
1.06693e-08
2.07424e-08
1.05678e-08
1.22026e-09
4.67068e-10
4.69775e-10
3.27686e-07
3.39745e-05
4.08934e-14
1.06907e-13
2.85708e-13
7.46349e-13
1.82972e-12
4.05381e-12
8.5398e-12
1.61022e-11
2.92477e-11
3.26046e-11
4.3495e-11
7.12642e-11
1.18624e-10
3.10194e-10
4.63035e-10
4.61149e-10
4.64833e-10
2.81041e-05
2.78198e-05
4.40074e-14
1.18613e-13
3.10418e-13
7.78222e-13
1.81713e-12
3.86209e-12
7.58253e-12
1.39294e-11
2.49703e-11
4.06445e-11
5.38762e-11
7.06666e-11
1.29618e-10
2.36128e-10
4.75888e-10
4.65751e-10
4.69772e-10
4.08069e-05
6.5253e-05
5.29727e-14
1.4186e-13
3.63456e-13
8.81256e-13
1.97627e-12
4.04798e-12
7.62745e-12
1.35363e-11
2.33967e-11
3.89003e-11
6.18805e-11
9.80548e-11
1.41365e-10
2.12711e-10
4.77547e-10
4.71526e-10
4.74298e-10
3.09515e-05
7.57448e-05
6.4643e-14
1.72437e-13
4.34211e-13
1.02643e-12
2.23329e-12
4.43647e-12
8.11654e-12
1.39972e-11
2.34623e-11
3.85049e-11
6.13946e-11
9.40271e-11
1.25695e-10
2.62835e-10
6.69766e-10
4.78741e-10
4.79489e-10
3.55154e-05
7.58705e-05
7.95474e-14
2.12566e-13
5.22576e-13
1.19786e-12
2.52755e-12
4.86893e-12
8.65764e-12
1.45695e-11
2.38057e-11
3.80274e-11
5.91023e-11
8.95428e-11
1.51177e-10
6.3902e-10
1.54744e-09
5.93187e-10
4.92845e-10
5.54763e-05
7.58705e-05
1.01204e-13
2.74257e-13
6.49016e-13
1.41459e-12
2.85662e-12
5.29965e-12
9.0928e-12
1.47823e-11
2.33319e-11
3.67154e-11
5.87349e-11
1.37554e-10
4.02349e-10
1.59244e-09
2.25147e-09
6.17574e-10
6.05026e-10
6.15163e-05
7.58705e-05
1.35899e-13
3.84666e-13
8.76391e-13
1.8008e-12
3.45062e-12
6.13652e-12
1.01218e-11
1.57449e-11
2.37408e-11
3.69653e-11
7.8204e-11
3.09293e-10
5.45216e-10
3.29632e-09
3.45856e-09
6.72777e-10
1.95997e-05
6.45347e-05
4.75696e-05
1.8658e-13
5.73049e-13
1.30433e-12
2.61342e-12
4.85085e-12
8.33639e-12
1.33238e-11
2.00692e-11
2.94313e-11
4.66459e-11
1.63067e-10
3.40933e-10
9.45581e-10
4.54432e-09
4.44632e-09
7.72662e-10
2.11784e-05
6.45347e-05
3.12882e-05
2.42067e-13
8.18826e-13
1.97585e-12
4.07664e-12
7.50462e-12
1.24197e-11
1.89987e-11
2.76679e-11
3.93029e-11
6.07787e-11
1.99582e-10
3.45059e-10
1.58454e-09
4.5297e-09
4.22288e-09
9.16908e-10
2.00717e-06
6.28571e-05
2.31817e-05
2.73889e-13
1.00921e-12
2.72071e-12
6.17766e-12
1.17516e-11
1.86705e-11
2.60067e-11
3.54179e-11
5.53959e-11
1.26448e-10
4.08243e-10
8.78757e-10
2.01371e-09
4.04935e-09
2.32072e-09
1.05795e-09
1.58463e-06
1.62615e-05
9.63253e-06
2.56923e-13
1.01934e-12
3.14597e-12
8.36054e-12
1.79972e-11
2.93144e-11
3.92094e-11
4.79137e-11
9.54813e-11
4.79927e-10
1.45544e-09
1.8401e-09
1.98678e-09
1.5806e-09
1.1571e-09
1.13482e-09
6.11026e-07
6.30867e-08
2.21154e-08
1.93497e-13
8.38351e-13
3.00858e-12
9.66687e-12
2.60361e-11
5.01277e-11
7.28678e-11
8.70618e-11
1.53701e-10
7.60378e-10
1.59963e-09
1.6491e-09
1.33844e-09
1.22304e-09
1.21502e-09
1.22558e-06
1.04712e-06
3.5227e-08
1.25916e-08
1.10568e-13
5.47333e-13
2.35496e-12
9.17693e-12
3.07081e-11
7.47827e-11
1.21216e-10
1.53167e-10
2.01865e-10
6.12906e-10
9.11919e-10
4.96262e-10
2.9929e-10
2.85806e-08
2.05462e-06
3.46207e-06
3.07151e-06
2.0044e-07
9.97334e-09
4.36924e-14
2.70541e-13
1.43506e-12
6.5248e-12
2.74133e-11
7.33423e-11
1.56253e-10
2.11328e-10
2.50739e-10
3.28275e-10
3.2469e-10
2.9615e-10
2.94683e-10
2.60622e-06
3.46207e-06
3.46832e-06
3.46207e-06
2.99932e-07
7.68373e-09
1.12359e-14
9.96529e-14
7.19989e-13
3.70791e-12
1.81928e-11
5.24996e-11
1.28117e-10
2.48688e-10
2.92925e-10
3.03923e-10
2.96202e-10
2.9468e-10
2.94683e-10
1.83928e-06
3.46709e-06
3.46614e-06
2.35677e-06
1.01993e-07
6.84217e-09
1.7652e-15
2.63787e-14
2.69435e-13
1.75699e-12
8.69094e-12
2.56683e-11
8.74717e-11
3.65045e-10
6.83349e-10
4.89005e-10
5.75731e-10
5.50497e-09
2.00374e-08
8.07621e-08
1.27822e-06
1.67769e-06
2.91045e-07
8.47538e-09
6.84114e-09
1.44073e-16
4.15105e-15
6.12596e-14
5.34737e-13
3.27787e-12
1.21035e-11
7.31929e-11
2.70205e-10
7.17884e-10
9.3e-10
1.51384e-09
5.34259e-09
7.6292e-09
7.78464e-09
1.32316e-08
3.23956e-08
1.11332e-08
1.02233e-08
1.02052e-08
)
;

boundaryField
{
    leftWall
    {
        type            zeroGradient;
    }
    rightWall
    {
        type            zeroGradient;
    }
    lowerWall
    {
        type            zeroGradient;
    }
    atmosphere
    {
        type            inletOutlet;
        inletValue      uniform 0;
        value           nonuniform List<scalar> 
46
(
0
0
0
0
0
0
0
0
0
0
0
0
0
0
0
0
0
0
0
0
0
0
0
0
0
0
0
0
0
0
0
0
1.21035e-11
7.31929e-11
2.70205e-10
7.17884e-10
9.3e-10
1.51384e-09
5.34259e-09
7.6292e-09
7.78464e-09
1.32316e-08
3.23956e-08
1.11332e-08
1.02233e-08
1.02052e-08
)
;
    }
    defaultFaces
    {
        type            empty;
    }
}


// ************************************************************************* //
