/*--------------------------------*- C++ -*----------------------------------*\
| =========                 |                                                 |
| \\      /  F ield         | OpenFOAM: The Open Source CFD Toolbox           |
|  \\    /   O peration     | Version:  2.3.0                                 |
|   \\  /    A nd           | Web:      www.OpenFOAM.org                      |
|    \\/     M anipulation  |                                                 |
\*---------------------------------------------------------------------------*/
FoamFile
{
    version     2.0;
    format      ascii;
    class       volScalarField;
    location    "1.45";
    object      epsilon;
}
// * * * * * * * * * * * * * * * * * * * * * * * * * * * * * * * * * * * * * //

dimensions      [0 2 -3 0 0 0 0];

internalField   nonuniform List<scalar> 
2268
(
0.0106199
0.0753646
0.147037
0.207206
0.25534
0.292296
0.320027
0.340882
0.356719
0.368516
0.376546
0.381365
0.384795
0.390467
0.401883
0.424559
0.45903
0.4962
0.516008
0.493164
0.408288
0.260308
0.086516
0.0230902
0.0473298
0.0732216
0.0951786
0.11299
0.127158
0.138527
0.147995
0.156258
0.163721
0.170578
0.177063
0.183726
0.191853
0.203164
0.218204
0.236673
0.255091
0.266792
0.264381
0.239744
0.185004
0.125312
0.0419988
0.0545372
0.0718358
0.0864425
0.0981149
0.107335
0.114906
0.121615
0.128026
0.134459
0.141073
0.147996
0.155481
0.16412
0.174784
0.187792
0.202757
0.217458
0.227858
0.229326
0.216233
0.184222
0.192419
0.0627624
0.068248
0.0815246
0.0928046
0.101576
0.10828
0.113794
0.11894
0.124257
0.130029
0.136379
0.143375
0.151137
0.159969
0.170352
0.182465
0.195973
0.209398
0.220047
0.224649
0.218759
0.2014
0.258742
0.0861814
0.0854009
0.095924
0.105052
0.111808
0.116613
0.120501
0.124384
0.128797
0.133987
0.140038
0.146971
0.154828
0.163757
0.173992
0.185616
0.198391
0.211438
0.223091
0.231186
0.232505
0.230309
0.334573
0.113626
0.105213
0.113421
0.120946
0.126014
0.129074
0.131433
0.134133
0.137702
0.142338
0.14808
0.154905
0.162793
0.171778
0.181901
0.193192
0.205555
0.218624
0.23165
0.243611
0.253138
0.270308
0.434026
0.146759
0.127492
0.133425
0.139653
0.143132
0.144421
0.145231
0.146769
0.149537
0.153665
0.159132
0.165858
0.173754
0.182747
0.19275
0.2037
0.215748
0.228939
0.243314
0.259054
0.277497
0.319735
0.582274
0.187454
0.152136
0.155663
0.160751
0.162603
0.161998
0.161197
0.161592
0.163627
0.167334
0.172602
0.17927
0.187154
0.196076
0.205855
0.216379
0.228044
0.241176
0.256432
0.275019
0.301096
0.369938
0.883049
0.0656591
0.374135
0.63129
0.763964
0.751781
0.649947
0.591252
0.615628
0.704654
0.744701
0.707222
0.663626
0.614952
0.565382
0.524733
0.445247
0.313322
0.168984
0.0452963
0.1169
0.235565
0.312067
0.345805
0.340496
0.317475
0.31515
0.343043
0.379546
0.395845
0.390198
0.368955
0.344044
0.319117
0.289024
0.247287
0.191125
0.125502
0.0772744
0.209989
0.263069
0.296921
0.305773
0.294803
0.279308
0.280476
0.303118
0.328412
0.339959
0.336812
0.322928
0.303885
0.28222
0.255749
0.221917
0.179574
0.134024
0.126428
0.32652
0.324472
0.325805
0.315383
0.296962
0.280669
0.279403
0.29697
0.319357
0.330056
0.326461
0.313825
0.296516
0.275998
0.251304
0.220587
0.183714
0.148409
0.170747
0.492493
0.414431
0.374219
0.340803
0.313343
0.294317
0.289401
0.303248
0.325838
0.337052
0.332547
0.31836
0.300166
0.279917
0.256371
0.227245
0.193242
0.164206
0.205275
0.753973
0.546312
0.439455
0.374541
0.335792
0.313535
0.305145
0.316338
0.340755
0.353263
0.347509
0.330901
0.309665
0.288743
0.265978
0.237663
0.205466
0.18051
0.233806
1.17136
0.73748
0.523341
0.414869
0.361923
0.335618
0.324036
0.333415
0.36084
0.375129
0.367653
0.348724
0.323672
0.300212
0.278107
0.250209
0.219398
0.197353
0.262405
1.78277
0.945654
0.619971
0.461211
0.3915
0.359308
0.344488
0.352676
0.384017
0.400015
0.389974
0.36857
0.340729
0.314155
0.291426
0.263803
0.234761
0.215444
0.29888
0.245054
0.187485
0.189422
0.193744
0.193576
0.190353
0.187364
0.186317
0.187551
0.190923
0.19615
0.202899
0.210823
0.219582
0.228933
0.238824
0.249567
0.261986
0.277278
0.297455
0.32744
0.392037
0.619612
0.364873
0.250179
0.246316
0.248128
0.244012
0.236156
0.229517
0.226303
0.226551
0.229678
0.234967
0.241706
0.249278
0.257183
0.265237
0.273628
0.282464
0.29193
0.303588
0.319043
0.340656
0.379488
0.476924
0.552179
0.329874
0.312748
0.310522
0.302128
0.289062
0.277732
0.27145
0.270164
0.272684
0.277626
0.283767
0.290278
0.296628
0.302708
0.308965
0.315618
0.322416
0.330085
0.340463
0.355409
0.381341
0.432047
0.786219
0.423869
0.386895
0.38027
0.368495
0.350852
0.333009
0.321168
0.316537
0.317202
0.320724
0.325152
0.329603
0.333752
0.33765
0.341914
0.34693
0.352201
0.357758
0.36537
0.377657
0.400436
0.441798
1.02834
0.522686
0.467538
0.457613
0.444643
0.42489
0.397532
0.375724
0.365064
0.362285
0.363051
0.364292
0.365467
0.366916
0.368986
0.372167
0.376703
0.381767
0.386879
0.393168
0.405809
0.432908
0.481952
1.1696
0.61202
0.555431
0.55103
0.534008
0.510576
0.471671
0.434802
0.415616
0.408185
0.405161
0.401544
0.398045
0.396284
0.396877
0.399816
0.404455
0.409315
0.413331
0.417352
0.429427
0.459828
0.514563
1.09008
0.681302
0.64977
0.669639
0.645372
0.597787
0.545306
0.489627
0.46922
0.454041
0.44482
0.434264
0.425227
0.420293
0.419427
0.421805
0.426188
0.429878
0.431852
0.435551
0.451401
0.484717
0.533215
0.96744
0.729154
0.735013
0.796734
0.786755
0.701532
0.602377
0.532947
0.507363
0.486464
0.464832
0.449762
0.440809
0.437146
0.437332
0.440601
0.445614
0.448631
0.447269
0.449681
0.463069
0.48775
0.528211
0.840984
0.728838
0.778057
0.881202
0.919253
0.842217
0.673431
0.566086
0.522949
0.495626
0.469502
0.453866
0.448383
0.44898
0.45215
0.45862
0.466593
0.469516
0.460406
0.456468
0.46431
0.481312
0.511049
0.883703
0.736157
0.782605
0.885844
1.00015
0.962758
0.728547
0.588176
0.536916
0.505994
0.475478
0.455771
0.45027
0.452258
0.456383
0.461868
0.468332
0.469117
0.459705
0.453766
0.458659
0.471044
0.492191
1.10888
0.781248
0.806972
0.856953
0.960849
0.90016
0.70633
0.578751
0.523287
0.492607
0.466075
0.447205
0.440527
0.44037
0.441944
0.443807
0.445746
0.445625
0.443019
0.441879
0.4478
0.459753
0.479102
1.46231
0.842238
0.784159
0.785099
0.824434
0.761955
0.635184
0.538649
0.486047
0.45674
0.436432
0.422902
0.416621
0.414679
0.41455
0.415293
0.416795
0.418582
0.420826
0.425193
0.434581
0.449717
0.471855
1.83426
0.858714
0.719574
0.692301
0.688472
0.635945
0.553678
0.485254
0.442347
0.417536
0.402324
0.392991
0.388162
0.386294
0.386164
0.387322
0.389802
0.393735
0.399537
0.408142
0.420678
0.437716
0.459155
1.84367
0.814211
0.64829
0.597813
0.572109
0.528832
0.47479
0.429063
0.398531
0.380607
0.370476
0.364899
0.362235
0.361526
0.362237
0.364252
0.367739
0.372982
0.380332
0.39014
0.402498
0.417345
0.434269
1.63027
0.719077
0.563635
0.508779
0.476594
0.44191
0.406304
0.377386
0.358203
0.347447
0.3422
0.340051
0.339631
0.340316
0.341903
0.344453
0.348172
0.353294
0.359965
0.368112
0.377489
0.387882
0.399236
1.33183
0.602816
0.479216
0.430922
0.400643
0.373695
0.350201
0.332741
0.322133
0.317195
0.315884
0.316427
0.317776
0.319505
0.321551
0.324036
0.327143
0.331019
0.335687
0.340936
0.346558
0.35255
0.359326
1.05029
0.497365
0.404767
0.366166
0.34083
0.320328
0.304644
0.294359
0.289252
0.288101
0.289303
0.2915
0.293875
0.296101
0.298152
0.300143
0.302223
0.304495
0.306986
0.309588
0.312219
0.315162
0.319135
0.819349
0.409449
0.342054
0.312858
0.292861
0.277347
0.26652
0.260292
0.258104
0.258815
0.261124
0.263956
0.266644
0.268902
0.27069
0.272089
0.273218
0.274181
0.275062
0.275993
0.276971
0.278469
0.281315
0.599842
0.333298
0.288794
0.268073
0.25289
0.24107
0.233144
0.228915
0.227853
0.229016
0.231376
0.234082
0.23658
0.238597
0.240065
0.241027
0.241578
0.241838
0.241956
0.242179
0.242715
0.244027
0.246911
0.419083
0.269995
0.24292
0.229254
0.218178
0.209111
0.202904
0.199509
0.198559
0.199372
0.20119
0.203353
0.205403
0.207086
0.208306
0.209075
0.209468
0.209607
0.20967
0.209928
0.210782
0.212626
0.21613
0.289186
0.215519
0.202327
0.194691
0.187216
0.180365
0.175251
0.172184
0.170941
0.171127
0.172214
0.173716
0.175265
0.176632
0.177712
0.178491
0.179025
0.179428
0.179878
0.180637
0.182072
0.18467
0.188911
0.196961
0.16886
0.166481
0.163879
0.159465
0.154492
0.15023
0.147447
0.145944
0.14557
0.146008
0.146924
0.14804
0.149161
0.150181
0.151075
0.151881
0.152696
0.15368
0.155063
0.157158
0.160367
0.165154
0.13905
0.132479
0.136542
0.137282
0.13513
0.131711
0.128334
0.125838
0.124272
0.123586
0.123604
0.12411
0.124908
0.12585
0.126847
0.127868
0.128939
0.130137
0.131593
0.133499
0.136108
0.139731
0.144719
0.107298
0.105164
0.111892
0.114555
0.114057
0.111994
0.109568
0.107541
0.106167
0.105447
0.105298
0.105594
0.106209
0.10704
0.108022
0.10913
0.110383
0.11184
0.113607
0.115833
0.118717
0.122497
0.127434
0.0906088
0.0846212
0.0913697
0.095018
0.0958289
0.0950498
0.0936698
0.0923301
0.0913738
0.0908577
0.090763
0.0910302
0.0915887
0.0923766
0.0933533
0.0945053
0.0958492
0.0974338
0.0993417
0.10169
0.104632
0.108347
0.113034
0.0810441
0.0694039
0.0746789
0.0785516
0.0803059
0.0806544
0.0803072
0.0797643
0.0793675
0.0792182
0.0793401
0.0797198
0.080329
0.0811392
0.0821322
0.0833063
0.0846804
0.0862965
0.0882211
0.0905469
0.0933921
0.0968962
0.10121
0.0748887
0.0584506
0.061777
0.0653022
0.067549
0.0687183
0.0692284
0.0694303
0.0696261
0.0699129
0.0703388
0.07092
0.0716568
0.0725448
0.073583
0.0747801
0.0761578
0.0777545
0.0796259
0.081847
0.0845115
0.0877288
0.0916171
0.0706077
0.0506955
0.0522303
0.0551237
0.0574713
0.0591109
0.0602163
0.0610309
0.0617496
0.0624559
0.0632036
0.0640225
0.0649285
0.0659312
0.0670408
0.0682727
0.0696511
0.0712116
0.0730026
0.0750865
0.0775396
0.08045
0.0839131
0.0673239
0.0451389
0.0452818
0.0475162
0.0497316
0.0515665
0.0530564
0.0543182
0.0554446
0.0565045
0.0575453
0.058598
0.0596834
0.060817
0.0620139
0.0632927
0.0646782
0.0662037
0.067912
0.0698564
0.0721007
0.0747177
0.0777867
0.0647684
0.0412169
0.0402867
0.0419211
0.0439287
0.0458308
0.0475395
0.0490786
0.0504937
0.0518269
0.0531113
0.0543711
0.0556246
0.0568872
0.0581748
0.0595061
0.060905
0.062402
0.0640354
0.0658514
0.0679048
0.0702573
0.0729762
0.0628687
0.0384116
0.0367765
0.0379587
0.039749
0.0416202
0.0434232
0.045127
0.0467382
0.0482734
0.0497492
0.0511797
0.0525776
0.0539548
0.0553253
0.0567062
0.0581191
0.0595918
0.0611583
0.0628595
0.064743
0.0668624
0.0692761
0.061654
0.0364557
0.0343581
0.0352346
0.0368601
0.0386861
0.0405327
0.0423376
0.0440817
0.045762
0.0473811
0.0489435
0.0504553
0.0519242
0.0533608
0.0547797
0.0562
0.0576464
0.0591494
0.0607452
0.0624761
0.0643891
0.0665356
0.0612893
0.0352752
0.032887
0.0335905
0.0351227
0.0369222
0.0387951
0.0406639
0.0424949
0.0442727
0.0459899
0.0476436
0.0492339
0.0507645
0.0522427
0.0536803
0.0550937
0.0565048
0.0579407
0.059434
0.0610223
0.0627473
0.0646549
0.0621884
0.0350025
0.032448
0.033087
0.0345828
0.036368
0.0382486
0.0401443
0.0420163
0.0438427
0.04561
0.0473096
0.0489373
0.050493
0.0519812
0.0534108
0.0547959
0.0561555
0.0575139
0.0589001
0.0603478
0.0618945
0.0635808
0.0652795
0.036107
0.0334189
0.0340234
0.0354703
0.0372
0.0390326
0.0408937
0.0427442
0.0445585
0.0463183
0.0480105
0.049627
0.0511642
0.0526239
0.0540123
0.0553411
0.0566268
0.0578908
0.0591589
0.0604612
0.0618309
0.063304
0.0724958
0.0396417
0.0365622
0.0369436
0.0381696
0.0396956
0.0413561
0.0430786
0.0448182
0.0465419
0.0482241
0.0498459
0.0513945
0.0528627
0.0542492
0.0555577
0.0567973
0.0579818
0.0591299
0.0602641
0.0614106
0.0625987
0.0638598
0.0874936
0.0475166
0.0430439
0.0425593
0.0431255
0.0441521
0.045438
0.0468754
0.048391
0.0499311
0.0514559
0.052937
0.0543552
0.0556991
0.0569637
0.0581501
0.0592645
0.060318
0.0613261
0.0623078
0.0632856
0.0642842
0.06533
0.116729
0.0626618
0.0542469
0.0515083
0.0506519
0.0507579
0.051424
0.0524189
0.0535962
0.0548605
0.0561486
0.0574189
0.0586442
0.059808
0.0609019
0.0619238
0.0628771
0.0637698
0.0646141
0.0654252
0.0662213
0.0670223
0.0678493
0.172332
0.0890046
0.0711595
0.0638696
0.060647
0.0594406
0.0593085
0.0597598
0.0605242
0.061447
0.0624366
0.0634376
0.0644157
0.0653502
0.0662296
0.0670491
0.0678094
0.0685154
0.0691755
0.0698013
0.0704062
0.0710051
0.0716132
0.283765
0.130742
0.0928705
0.0784083
0.0723097
0.0697805
0.0689147
0.0688651
0.0692269
0.0697946
0.0704581
0.0711553
0.0718497
0.0725194
0.0731519
0.073741
0.074285
0.0747861
0.0752495
0.0756824
0.0760939
0.0764936
0.0768909
0.55891
0.187048
0.113314
0.0918309
0.0841331
0.0811325
0.0799999
0.0796882
0.0797625
0.0800249
0.0803774
0.0807681
0.0811673
0.0815573
0.0819279
0.0822733
0.0825911
0.0828815
0.0831467
0.0833904
0.0836173
0.0838325
0.0840402
1.6032
0.211966
0.116209
0.0993553
0.0946963
0.0931006
0.0925069
0.0923047
0.0922755
0.0923291
0.0924233
0.0925365
0.0926566
0.0927763
0.0928912
0.0929987
0.0930975
0.0931871
0.0932681
0.0933412
0.0934079
0.0934695
0.0935268
1.65073
1.4227
1.35797
1.53848
0.608558
0.638289
0.658886
0.705453
0.483679
0.523304
0.571819
0.644125
0.488432
0.527516
0.572114
0.633397
0.546627
0.583829
0.61134
0.65722
0.58101
0.629076
0.672479
0.732025
0.598871
0.661004
0.732933
0.799399
0.587663
0.640503
0.697819
0.741671
0.551808
0.583628
0.61778
0.64948
0.519192
0.540207
0.56436
0.589609
0.503356
0.521543
0.541623
0.562232
0.495167
0.51117
0.527643
0.543467
0.478809
0.491705
0.504339
0.515651
0.448941
0.458473
0.467585
0.475281
0.409238
0.415874
0.422221
0.427376
0.365928
0.370534
0.375047
0.378678
0.323816
0.327299
0.330852
0.333807
0.285284
0.288359
0.291613
0.294495
0.250919
0.254021
0.257365
0.260508
0.220496
0.223798
0.227373
0.23087
0.193641
0.197132
0.200904
0.204687
0.170078
0.173653
0.177506
0.181432
0.149598
0.153128
0.156918
0.160825
0.132073
0.135431
0.139031
0.142775
0.117317
0.120411
0.123734
0.12721
0.105075
0.107865
0.110859
0.114009
0.0950493
0.0975244
0.100178
0.102984
0.0869328
0.0891063
0.0914351
0.0939044
0.0804328
0.082332
0.0843644
0.0865219
0.0752949
0.0769524
0.0787234
0.0806039
0.0713115
0.0727594
0.0743032
0.0759417
0.0683253
0.069591
0.0709371
0.0723641
0.0662276
0.0673329
0.0685051
0.0697461
0.0649559
0.0659159
0.0669312
0.0680045
0.0644925
0.0653165
0.0661856
0.0671029
0.0648663
0.0655592
0.0662878
0.0670558
0.0661554
0.0667191
0.0673102
0.0679321
0.0684934
0.0689295
0.0693849
0.069863
0.072079
0.0723907
0.0727143
0.0730528
0.0771877
0.0773832
0.077584
0.0777925
0.0841891
0.0842844
0.0843804
0.0844788
0.0935653
0.0935886
0.0936113
0.0936343
1.04666
0.942416
0.729939
0.535073
0.44074
0.396789
0.377548
0.384283
0.422954
0.439665
0.424068
0.398193
0.367554
0.339967
0.314274
0.284831
0.25935
0.247201
0.381137
0.821971
0.8886
0.743409
0.632785
0.52752
0.45341
0.420848
0.423889
0.471688
0.481621
0.456199
0.424072
0.396067
0.377475
0.358216
0.323637
0.287907
0.280318
0.581464
0.809212
0.822574
0.779581
0.777797
0.660746
0.523012
0.460151
0.454214
0.489878
0.506508
0.46995
0.431096
0.40763
0.39544
0.370714
0.331751
0.297079
0.280015
0.536003
0.760825
0.830746
0.925787
1.08695
0.88834
0.605405
0.497529
0.479281
0.495352
0.500535
0.464216
0.423688
0.401829
0.38562
0.354951
0.316124
0.278312
0.261478
0.396521
0.777691
0.939442
1.16048
1.23204
0.945303
0.649321
0.521568
0.505332
0.511368
0.489599
0.452405
0.417147
0.396109
0.380018
0.355841
0.322672
0.27948
0.25394
0.300524
0.868085
0.998591
1.13375
1.06138
0.813672
0.597019
0.520602
0.514946
0.517058
0.491697
0.45322
0.418549
0.39643
0.386273
0.384933
0.376111
0.31786
0.281174
0.293447
0.859956
0.890273
0.927159
0.841632
0.664265
0.549362
0.506088
0.499998
0.498218
0.483217
0.455165
0.421215
0.39551
0.390874
0.41684
0.409832
0.381574
0.352052
0.402958
0.774837
0.779016
0.769247
0.716502
0.607688
0.535591
0.494676
0.479751
0.473474
0.462032
0.440833
0.412759
0.386871
0.374795
0.388593
0.386891
0.363094
0.357732
0.626956
0.68651
0.698956
0.678849
0.638529
0.602249
0.562124
0.501949
0.466817
0.452089
0.440363
0.422382
0.397677
0.372629
0.355252
0.348
0.348389
0.338362
0.345718
0.603988
0.625593
0.648405
0.631763
0.589791
0.565763
0.543806
0.497358
0.451359
0.431614
0.420615
0.401937
0.376675
0.355127
0.338784
0.322964
0.316583
0.317018
0.320368
0.459961
0.591877
0.612752
0.597383
0.554056
0.515624
0.484524
0.454349
0.421961
0.397329
0.382869
0.367466
0.350535
0.334508
0.318522
0.300706
0.287158
0.286001
0.288909
0.361327
0.564589
0.575968
0.558622
0.517663
0.474983
0.440391
0.414178
0.39365
0.37813
0.364643
0.349189
0.332247
0.314856
0.29636
0.275632
0.257369
0.249507
0.24513
0.265585
0.529111
0.531339
0.512691
0.477281
0.438771
0.40694
0.384382
0.369074
0.357013
0.342755
0.326745
0.310976
0.294213
0.274423
0.251387
0.230269
0.219049
0.212322
0.222883
0.483277
0.47993
0.461984
0.433156
0.402244
0.376274
0.357819
0.345441
0.334739
0.320448
0.304936
0.290076
0.273528
0.25317
0.22982
0.209381
0.198893
0.195927
0.222505
0.432059
0.426636
0.41102
0.388694
0.365504
0.345722
0.331145
0.320783
0.310962
0.298401
0.284417
0.270196
0.253569
0.233587
0.212676
0.19652
0.189744
0.194626
0.248946
0.381728
0.376632
0.364399
0.347992
0.331401
0.317043
0.305879
0.297272
0.288846
0.278531
0.266141
0.252297
0.235829
0.21768
0.201279
0.190543
0.188938
0.202882
0.28682
0.336485
0.333107
0.324656
0.313497
0.3022
0.292236
0.283983
0.276981
0.269936
0.261344
0.25035
0.236954
0.221773
0.206739
0.194709
0.188486
0.19159
0.213322
0.325403
0.297646
0.296685
0.29196
0.285266
0.278216
0.271684
0.265792
0.260181
0.25412
0.246619
0.236768
0.224661
0.211665
0.199651
0.190885
0.187813
0.194349
0.221573
0.360761
0.264566
0.266218
0.264916
0.261941
0.258307
0.254492
0.250521
0.24613
0.240883
0.234211
0.225579
0.215197
0.204335
0.194716
0.188256
0.18733
0.19629
0.227346
0.39222
0.23592
0.24
0.241667
0.24176
0.240888
0.23931
0.236999
0.233773
0.229389
0.223573
0.216141
0.207417
0.198448
0.190728
0.186005
0.186683
0.197539
0.232491
0.42141
0.210555
0.216607
0.22066
0.223214
0.224595
0.224909
0.224104
0.222053
0.218637
0.213778
0.207525
0.200287
0.192975
0.186885
0.183621
0.185573
0.1978
0.236105
0.443469
0.187789
0.195157
0.200972
0.205413
0.208591
0.210504
0.211069
0.210195
0.207838
0.204039
0.198987
0.193148
0.18735
0.18274
0.180787
0.183814
0.19696
0.237727
0.459869
0.167317
0.175387
0.182327
0.188086
0.192615
0.195824
0.197601
0.197864
0.196609
0.193943
0.19013
0.185664
0.181311
0.178107
0.177387
0.181357
0.195046
0.236929
0.47117
0.149106
0.157343
0.16483
0.171378
0.176825
0.181015
0.183805
0.18511
0.184939
0.183429
0.180873
0.177761
0.174807
0.172953
0.173405
0.178223
0.192219
0.234014
0.475125
0.133165
0.141166
0.148736
0.155619
0.16159
0.166448
0.170027
0.172231
0.173067
0.172673
0.171342
0.169539
0.167916
0.167331
0.168882
0.174473
0.188674
0.229604
0.47043
0.119458
0.126958
0.134277
0.141144
0.147309
0.15255
0.156688
0.159617
0.161334
0.161961
0.16177
0.161182
0.160779
0.161329
0.163877
0.170138
0.184444
0.223993
0.457476
0.107871
0.114727
0.121586
0.128191
0.134298
0.139685
0.144169
0.147639
0.150078
0.151589
0.152404
0.152894
0.153568
0.155106
0.158478
0.165247
0.179511
0.217552
0.441138
0.09823
0.104392
0.110682
0.116876
0.12275
0.128098
0.132745
0.136579
0.139573
0.141803
0.143461
0.144861
0.146439
0.148787
0.152782
0.159896
0.173985
0.21069
0.426866
0.0903208
0.0958004
0.101487
0.107195
0.11273
0.117909
0.122573
0.126616
0.13
0.132779
0.135104
0.137231
0.139525
0.142494
0.146907
0.154223
0.168043
0.203571
0.414892
0.0839255
0.088769
0.0938649
0.0990632
0.104204
0.10913
0.113703
0.117823
0.12145
0.124616
0.127434
0.130108
0.132937
0.136352
0.141043
0.148376
0.161879
0.196328
0.403145
0.0788398
0.0831078
0.0876493
0.0923476
0.0970735
0.101697
0.106101
0.110197
0.113941
0.117348
0.120501
0.123554
0.126751
0.13046
0.1353
0.142549
0.155697
0.189127
0.390648
0.0748877
0.0786425
0.0826746
0.0868964
0.0912069
0.0955015
0.0996834
0.103676
0.107434
0.110961
0.114309
0.117598
0.12102
0.124894
0.129788
0.136922
0.149645
0.181989
0.375759
0.0719403
0.0752299
0.078793
0.0825645
0.0864669
0.0904184
0.0943408
0.0981688
0.10186
0.105404
0.108834
0.112237
0.115768
0.119704
0.124576
0.131563
0.143896
0.174863
0.357602
0.0699017
0.0727631
0.0758887
0.0792303
0.0827302
0.0863269
0.08996
0.093575
0.097131
0.100611
0.10403
0.107449
0.110996
0.114914
0.1197
0.126487
0.138372
0.167768
0.338586
0.0687237
0.0711812
0.0738883
0.0768092
0.0799032
0.0831279
0.0864409
0.0897988
0.093163
0.09651
0.0998415
0.103199
0.106687
0.110523
0.115172
0.121708
0.133111
0.161375
0.324115
0.0684121
0.0704801
0.0727714
0.0752653
0.0779341
0.0807551
0.0837076
0.0867614
0.0898808
0.0930362
0.0962172
0.0994487
0.102816
0.106516
0.110983
0.117234
0.128118
0.155301
0.312083
0.0690297
0.0707121
0.0725794
0.0746231
0.0768245
0.0791838
0.0817148
0.0844069
0.0872274
0.0901388
0.0931173
0.0961716
0.0993696
0.102889
0.107138
0.113084
0.12345
0.149508
0.30041
0.0707058
0.0720017
0.0734328
0.0749843
0.0766431
0.0784357
0.080447
0.0827006
0.0851638
0.0877847
0.0905207
0.0933614
0.0963565
0.0996659
0.103677
0.109319
0.119211
0.144251
0.289706
0.0736479
0.0745613
0.075547
0.0765555
0.0775509
0.0785772
0.0799049
0.0816164
0.0836621
0.0859566
0.0884262
0.0910352
0.0938129
0.0969025
0.100675
0.106036
0.115544
0.13982
0.281163
0.0781575
0.0787111
0.0792664
0.0797016
0.0798586
0.0796974
0.0800665
0.0811083
0.0826879
0.0846426
0.0868465
0.0892298
0.0917988
0.0946805
0.0982336
0.103357
0.112602
0.136526
0.276254
0.0846498
0.0849026
0.0851049
0.0850411
0.0841939
0.081799
0.080785
0.0810527
0.0821703
0.0838192
0.0857963
0.0879916
0.0903879
0.0930968
0.0964678
0.101404
0.110515
0.134632
0.276647
0.0936748
0.0937345
0.0937541
0.0935195
0.0920492
0.084336
0.0815842
0.0811802
0.0819741
0.0834327
0.085276
0.0873613
0.089654
0.0922541
0.0955028
0.100309
0.109378
0.134124
0.282944
)
;

boundaryField
{
    leftWall
    {
        type            epsilonWallFunction;
        value           nonuniform List<scalar> 
50
(
0.0106199
0.0230902
0.0419988
0.0627624
0.0861814
0.113626
0.146759
0.187454
0.245054
0.364873
0.552179
0.786219
1.02834
1.1696
1.09008
0.96744
0.840984
0.883703
1.10888
1.46231
1.83426
1.84367
1.63027
1.33183
1.05029
0.819349
0.599842
0.419083
0.289186
0.196961
0.13905
0.107298
0.0906088
0.0810441
0.0748887
0.0706077
0.0673239
0.0647684
0.0628687
0.061654
0.0612893
0.0621884
0.0652795
0.0724958
0.0874936
0.116729
0.172332
0.283765
0.55891
1.6032
)
;
        Cmu             0.09;
        kappa           0.41;
        E               9.8;
        value           nonuniform List<scalar> 
50
(
0.0106199
0.0230902
0.0419988
0.0627624
0.0861814
0.113626
0.146759
0.187454
0.245054
0.364873
0.552179
0.786219
1.02834
1.1696
1.09008
0.96744
0.840984
0.883703
1.10888
1.46231
1.83426
1.84367
1.63027
1.33183
1.05029
0.819349
0.599842
0.419083
0.289186
0.196961
0.13905
0.107298
0.0906088
0.0810441
0.0748887
0.0706077
0.0673239
0.0647684
0.0628687
0.061654
0.0612893
0.0621884
0.0652795
0.0724958
0.0874936
0.116729
0.172332
0.283765
0.55891
1.6032
)
;
    }
    rightWall
    {
        type            epsilonWallFunction;
        value           nonuniform List<scalar> 
50
(
0.0452963
0.0772744
0.126428
0.170747
0.205275
0.233806
0.262405
0.29888
0.381137
0.581464
0.536003
0.396521
0.300524
0.293447
0.402958
0.626956
0.603988
0.459961
0.361327
0.265585
0.222883
0.222505
0.248946
0.28682
0.325403
0.360761
0.39222
0.42141
0.443469
0.459869
0.47117
0.475125
0.47043
0.457476
0.441138
0.426866
0.414892
0.403145
0.390648
0.375759
0.357602
0.338586
0.324115
0.312083
0.30041
0.289706
0.281163
0.276254
0.276647
0.282944
)
;
        Cmu             0.09;
        kappa           0.41;
        E               9.8;
        value           nonuniform List<scalar> 
50
(
0.0452963
0.0772744
0.126428
0.170747
0.205275
0.233806
0.262405
0.29888
0.381137
0.581464
0.536003
0.396521
0.300524
0.293447
0.402958
0.626956
0.603988
0.459961
0.361327
0.265585
0.222883
0.222505
0.248946
0.28682
0.325403
0.360761
0.39222
0.42141
0.443469
0.459869
0.47117
0.475125
0.47043
0.457476
0.441138
0.426866
0.414892
0.403145
0.390648
0.375759
0.357602
0.338586
0.324115
0.312083
0.30041
0.289706
0.281163
0.276254
0.276647
0.282944
)
;
    }
    lowerWall
    {
        type            epsilonWallFunction;
        value           nonuniform List<scalar> 
62
(
0.0106199
0.0753646
0.147037
0.207206
0.25534
0.292296
0.320027
0.340882
0.356719
0.368516
0.376546
0.381365
0.384795
0.390467
0.401883
0.424559
0.45903
0.4962
0.516008
0.493164
0.408288
0.260308
0.086516
0.086516
0.125312
0.192419
0.258742
0.334573
0.434026
0.582274
0.883049
1.65073
1.4227
1.35797
1.53848
0.0656591
0.1169
0.209989
0.32652
0.492493
0.753973
1.17136
1.78277
0.0656591
0.374135
0.63129
0.763964
0.751781
0.649947
0.591252
0.615628
0.704654
0.744701
0.707222
0.663626
0.614952
0.565382
0.524733
0.445247
0.313322
0.168984
0.0452963
)
;
        Cmu             0.09;
        kappa           0.41;
        E               9.8;
        value           nonuniform List<scalar> 
62
(
0.0106199
0.0753646
0.147037
0.207206
0.25534
0.292296
0.320027
0.340882
0.356719
0.368516
0.376546
0.381365
0.384795
0.390467
0.401883
0.424559
0.45903
0.4962
0.516008
0.493164
0.408288
0.260308
0.086516
0.086516
0.125312
0.192419
0.258742
0.334573
0.434026
0.582274
0.883049
1.65073
1.4227
1.35797
1.53848
0.0656591
0.1169
0.209989
0.32652
0.492493
0.753973
1.17136
1.78277
0.0656591
0.374135
0.63129
0.763964
0.751781
0.649947
0.591252
0.615628
0.704654
0.744701
0.707222
0.663626
0.614952
0.565382
0.524733
0.445247
0.313322
0.168984
0.0452963
)
;
    }
    atmosphere
    {
        type            inletOutlet;
        inletValue      uniform 0.1;
        value           nonuniform List<scalar> 
46
(
0.1
0.1
0.1
0.1
0.1
0.1
0.1
0.1
0.1
0.1
0.1
0.1
0.1
0.1
0.1
0.1
0.1
0.1
0.1
0.1
0.1
0.1
0.1
0.1
0.1
0.1
0.1
0.1
0.1
0.1
0.1
0.1
0.084336
0.0815842
0.0811802
0.0819741
0.0834327
0.085276
0.0873613
0.089654
0.0922541
0.0955028
0.100309
0.109378
0.134124
0.282944
)
;
    }
    defaultFaces
    {
        type            empty;
    }
}


// ************************************************************************* //
