/*--------------------------------*- C++ -*----------------------------------*\
| =========                 |                                                 |
| \\      /  F ield         | OpenFOAM: The Open Source CFD Toolbox           |
|  \\    /   O peration     | Version:  2.3.0                                 |
|   \\  /    A nd           | Web:      www.OpenFOAM.org                      |
|    \\/     M anipulation  |                                                 |
\*---------------------------------------------------------------------------*/
FoamFile
{
    version     2.0;
    format      ascii;
    class       volScalarField;
    location    "1.45";
    object      k;
}
// * * * * * * * * * * * * * * * * * * * * * * * * * * * * * * * * * * * * * //

dimensions      [0 2 -2 0 0 0 0];

internalField   nonuniform List<scalar> 
2268
(
0.00226675
0.0068357
0.0107021
0.0134458
0.0154467
0.0168928
0.017933
0.0186913
0.019254
0.0196679
0.0199509
0.0201208
0.0202227
0.0203544
0.0206711
0.0213155
0.0223069
0.0233813
0.0239669
0.0232965
0.0206221
0.0153532
0.00732579
0.00506704
0.015381
0.0227289
0.0281469
0.0321007
0.0349431
0.0369936
0.038518
0.0397027
0.0406615
0.0414619
0.0421604
0.042827
0.0435308
0.044491
0.046065
0.04822
0.0503894
0.0514984
0.0500871
0.0446515
0.0338037
0.015695
0.00757909
0.0206671
0.0297446
0.0364792
0.0414078
0.0449466
0.047508
0.0494393
0.0509814
0.0522834
0.0534405
0.0545318
0.0556455
0.0568816
0.0584254
0.0605072
0.0630415
0.0654509
0.0666501
0.0651243
0.0590132
0.0461052
0.0210647
0.00991047
0.0254546
0.0358612
0.0435271
0.049098
0.0530607
0.0559201
0.0580962
0.0598715
0.0614196
0.0628538
0.0642661
0.0657502
0.0674089
0.0693757
0.0717879
0.0745124
0.0770245
0.0783287
0.076943
0.0707567
0.0568342
0.0258637
0.0122406
0.030283
0.0419902
0.050474
0.0565318
0.0607615
0.063787
0.0661057
0.0680355
0.0697673
0.0714261
0.0731108
0.0749126
0.0769178
0.0792017
0.0818311
0.084655
0.0872331
0.088706
0.0876711
0.0818367
0.0676468
0.0309043
0.0147166
0.0353748
0.0484606
0.0577311
0.0641726
0.0685467
0.0716343
0.0740189
0.0760476
0.0779212
0.07977
0.081693
0.083771
0.0860638
0.0885816
0.0913392
0.0942036
0.0968311
0.0985254
0.0980127
0.0929463
0.0793675
0.0369101
0.0174542
0.0409171
0.0554473
0.0654758
0.0722061
0.0766137
0.0796763
0.0820697
0.0841618
0.0861542
0.0881741
0.0903114
0.0926272
0.0951467
0.097836
0.100629
0.103479
0.106128
0.108043
0.108131
0.104192
0.0922578
0.0448533
0.0205473
0.0470673
0.0630312
0.0737596
0.0806802
0.0850183
0.0879853
0.0903509
0.0924915
0.0945981
0.0967835
0.0991168
0.101629
0.104308
0.107082
0.109841
0.112614
0.11522
0.117272
0.117881
0.115183
0.105842
0.0585914
0.00613899
0.0193518
0.027803
0.0321227
0.0322765
0.0295491
0.0273516
0.0273572
0.0293894
0.0305236
0.0296278
0.0284984
0.0270967
0.0255126
0.0241933
0.0216636
0.0170944
0.0113466
0.0060634
0.015602
0.0409672
0.056708
0.0651379
0.0663069
0.0631304
0.0599658
0.0607452
0.0648389
0.067125
0.0658056
0.0640867
0.0613197
0.0578084
0.0544928
0.0488108
0.0393231
0.0274223
0.0120353
0.0231497
0.0530432
0.0727618
0.0835429
0.0855794
0.082771
0.0800637
0.0812311
0.0855105
0.0878528
0.0863353
0.0837303
0.0799564
0.0752608
0.0702074
0.0627664
0.0515648
0.0373228
0.0165795
0.0310904
0.0638112
0.0866212
0.0988248
0.101241
0.0985738
0.0958679
0.097072
0.101552
0.103936
0.102154
0.0985683
0.0938392
0.088174
0.0818339
0.073102
0.0607314
0.0448936
0.0201909
0.0410871
0.0752529
0.10073
0.113505
0.115765
0.112986
0.109924
0.110966
0.115689
0.118144
0.116049
0.111374
0.105528
0.098953
0.0915885
0.0817965
0.0684352
0.0511103
0.0228694
0.0550684
0.0891256
0.116288
0.128475
0.12988
0.126749
0.123139
0.123847
0.12886
0.131409
0.128907
0.123194
0.115988
0.10845
0.10022
0.0894935
0.0752649
0.0564611
0.0250368
0.0744548
0.10794
0.134465
0.144322
0.143951
0.140076
0.135743
0.135995
0.141375
0.144023
0.140975
0.134385
0.125786
0.116991
0.108031
0.0964777
0.0815391
0.0614522
0.0271637
0.0986673
0.132679
0.156121
0.161504
0.158297
0.153032
0.147751
0.147463
0.153282
0.15594
0.152136
0.144722
0.135042
0.124942
0.115088
0.102828
0.0874831
0.0666418
0.0298166
0.0245994
0.0563528
0.07463
0.0864793
0.0937088
0.0979564
0.100815
0.103195
0.105477
0.107823
0.110311
0.112964
0.11576
0.11863
0.121476
0.124192
0.126721
0.129103
0.131116
0.132149
0.130772
0.124398
0.0996782
0.032179
0.0721952
0.0929185
0.10582
0.113139
0.116969
0.11947
0.121755
0.124169
0.126788
0.129587
0.13249
0.135395
0.138187
0.140788
0.143174
0.145229
0.146773
0.147918
0.148312
0.14697
0.142993
0.137176
0.0422868
0.0893867
0.112095
0.125943
0.133452
0.136967
0.138986
0.140976
0.143338
0.14605
0.148944
0.151823
0.154539
0.156975
0.159084
0.160935
0.162477
0.163444
0.163781
0.16366
0.162886
0.1621
0.164045
0.0529471
0.106471
0.130823
0.145993
0.15429
0.157908
0.159229
0.160422
0.162289
0.164731
0.167375
0.169871
0.172081
0.17396
0.175515
0.176881
0.17808
0.178829
0.178969
0.1789
0.179216
0.181426
0.188104
0.0627919
0.121075
0.147729
0.165128
0.175333
0.180109
0.180397
0.179926
0.180742
0.182543
0.184584
0.186292
0.187663
0.188852
0.189963
0.191112
0.192306
0.193205
0.193595
0.193803
0.195442
0.200865
0.212212
0.0673117
0.130554
0.161795
0.183963
0.196505
0.202828
0.202194
0.199254
0.198664
0.199629
0.200843
0.201337
0.201496
0.201861
0.20263
0.203795
0.205143
0.206176
0.206559
0.206608
0.20884
0.216153
0.229939
0.0633608
0.132973
0.171812
0.20309
0.21859
0.223372
0.222236
0.216311
0.216438
0.2159
0.215708
0.214447
0.213149
0.212677
0.213086
0.214158
0.21553
0.216392
0.216434
0.216667
0.220215
0.228684
0.241352
0.0582806
0.125049
0.176619
0.220455
0.243453
0.245195
0.237436
0.230234
0.229724
0.228037
0.224752
0.222327
0.221037
0.220892
0.221578
0.222897
0.224475
0.225227
0.224493
0.224506
0.22752
0.233894
0.244776
0.0538076
0.118683
0.178528
0.231535
0.265481
0.272468
0.254575
0.240605
0.236355
0.233289
0.22894
0.226401
0.22605
0.227045
0.228523
0.230707
0.23308
0.233832
0.231104
0.229495
0.231118
0.235598
0.243867
0.0582563
0.1243
0.183892
0.236354
0.281171
0.29538
0.267614
0.247674
0.241932
0.238164
0.232748
0.229138
0.228779
0.23015
0.231889
0.233814
0.235814
0.236061
0.233305
0.231273
0.232295
0.235757
0.241985
0.0696941
0.140833
0.199399
0.241506
0.281165
0.288696
0.265418
0.247225
0.240177
0.236284
0.231755
0.228271
0.227584
0.228406
0.229493
0.230481
0.231313
0.231386
0.230578
0.230063
0.231652
0.235291
0.241346
0.0844374
0.168672
0.210141
0.237384
0.262575
0.266066
0.252019
0.238579
0.231277
0.227304
0.224221
0.222142
0.221629
0.222055
0.22277
0.223535
0.224338
0.225063
0.22579
0.227085
0.229959
0.23478
0.24189
0.0959391
0.175985
0.205456
0.224931
0.240007
0.24215
0.234166
0.22517
0.219268
0.216057
0.214258
0.213417
0.213456
0.214065
0.214942
0.215984
0.217233
0.218764
0.220752
0.223551
0.227616
0.2332
0.240236
0.0943106
0.170234
0.194238
0.207956
0.217105
0.218672
0.21455
0.209409
0.205864
0.204214
0.203838
0.204224
0.205103
0.206281
0.207637
0.209166
0.210949
0.213116
0.215825
0.219242
0.223468
0.228521
0.234236
0.0862638
0.156167
0.177608
0.188678
0.195036
0.196701
0.195272
0.193266
0.192207
0.192411
0.19353
0.195133
0.196938
0.19881
0.200711
0.202682
0.204813
0.207215
0.209972
0.213101
0.216566
0.220308
0.224279
0.0752984
0.138069
0.158839
0.169077
0.174553
0.176776
0.177321
0.177686
0.178727
0.180602
0.183041
0.185689
0.188304
0.190782
0.193114
0.195352
0.197573
0.199846
0.202203
0.204597
0.206979
0.209347
0.211806
0.0641562
0.119896
0.140108
0.150252
0.155762
0.158744
0.160747
0.162776
0.165327
0.168425
0.171819
0.175214
0.178402
0.181297
0.183894
0.186236
0.188377
0.190363
0.192209
0.193884
0.195369
0.19675
0.198245
0.0545151
0.10287
0.122184
0.132439
0.138344
0.142097
0.145159
0.148272
0.151761
0.155589
0.159532
0.163344
0.166852
0.169975
0.172703
0.175064
0.177097
0.178835
0.180303
0.181537
0.182538
0.183461
0.184577
0.0445224
0.0864909
0.105007
0.115484
0.121913
0.126369
0.130189
0.133963
0.137948
0.142105
0.146259
0.150218
0.153839
0.157051
0.159837
0.16221
0.164201
0.165843
0.167179
0.168282
0.16922
0.170152
0.171351
0.0350583
0.0700047
0.0883511
0.0992769
0.106301
0.111381
0.115748
0.119911
0.124106
0.128333
0.132476
0.136401
0.140003
0.143222
0.146036
0.148454
0.150499
0.152209
0.153637
0.154868
0.156037
0.157283
0.158847
0.0273788
0.0554048
0.0728762
0.0841307
0.0917249
0.0973376
0.10208
0.106471
0.110725
0.114888
0.118905
0.122703
0.126216
0.129398
0.132232
0.134724
0.136896
0.138786
0.140452
0.141982
0.143504
0.145194
0.147224
0.021154
0.0446646
0.0603397
0.0712449
0.0790148
0.0849015
0.0898006
0.0942809
0.0984729
0.102483
0.106319
0.109951
0.113346
0.116471
0.119313
0.121882
0.124201
0.126307
0.128255
0.13013
0.132044
0.134145
0.1366
0.0167079
0.0377173
0.0514084
0.0613907
0.0688517
0.0746768
0.0795387
0.0839136
0.0879584
0.0917764
0.0954048
0.0988459
0.102089
0.105123
0.107944
0.110562
0.112997
0.115286
0.117478
0.119647
0.121887
0.124314
0.127056
0.0140197
0.033344
0.0453868
0.0543401
0.0612536
0.0667965
0.0714676
0.0756321
0.0794745
0.0830797
0.0864946
0.0897389
0.0928181
0.0957342
0.098492
0.101104
0.10359
0.105983
0.108328
0.110685
0.113131
0.115754
0.11865
0.0125281
0.0303976
0.0411838
0.0492882
0.0556819
0.0609103
0.0653603
0.0693119
0.07295
0.0763532
0.0795704
0.082629
0.0855442
0.0883265
0.0909869
0.0935407
0.0960093
0.0984222
0.100818
0.103248
0.105771
0.108457
0.111375
0.011649
0.02822
0.0380523
0.0455156
0.0515102
0.056491
0.0607688
0.0645655
0.0680472
0.071293
0.074352
0.0772553
0.0800239
0.0826739
0.0852207
0.0876824
0.0900811
0.0924446
0.0948074
0.0972117
0.0997063
0.102345
0.105182
0.0110796
0.0265228
0.0356216
0.042593
0.0482893
0.0530948
0.057261
0.0609674
0.0643583
0.0675057
0.070458
0.0732486
0.0759016
0.0784366
0.0808725
0.0832291
0.0855294
0.0878005
0.0900739
0.0923863
0.0947787
0.097295
0.0999776
0.0106747
0.025175
0.0337076
0.0402904
0.0457528
0.0504296
0.0545259
0.0581947
0.0615467
0.0646466
0.0675401
0.0702601
0.0728321
0.0752775
0.077617
0.0798718
0.0820657
0.084225
0.0863797
0.088563
0.0908109
0.0931609
0.0956486
0.0103571
0.0240979
0.0321939
0.0384714
0.0437461
0.0483237
0.0523823
0.0560434
0.0593887
0.0624754
0.0653444
0.0680267
0.070547
0.0729271
0.0751883
0.0773525
0.0794435
0.0814877
0.0835138
0.0855529
0.087638
0.0898026
0.0920788
0.0101072
0.0232749
0.031027
0.0370654
0.0421983
0.0467094
0.0507481
0.0544108
0.0577639
0.0608547
0.0637186
0.0663827
0.0688703
0.0712024
0.0733999
0.0754847
0.0774808
0.0794139
0.0813121
0.0832052
0.0851242
0.0871004
0.0891639
0.00992215
0.0226775
0.0301943
0.0360702
0.0411059
0.0455713
0.0495983
0.0532667
0.0566309
0.05973
0.0625935
0.0652457
0.0677074
0.0699986
0.0721396
0.074152
0.0760591
0.0778864
0.0796611
0.0814121
0.0831693
0.0849624
0.0868204
0.00980954
0.0223118
0.029703
0.0354999
0.0404925
0.0449405
0.0489658
0.0526393
0.0560084
0.0591073
0.0619623
0.0645952
0.0670256
0.0692723
0.071355
0.0732946
0.0751139
0.0768376
0.0784924
0.0801061
0.0817077
0.083326
0.0849887
0.0097922
0.022235
0.0296346
0.0354477
0.0404547
0.0449115
0.0489382
0.0526054
0.0559603
0.0590369
0.0618612
0.0644545
0.0668359
0.0690236
0.0710366
0.0728952
0.0746214
0.0762392
0.0777742
0.0792534
0.0807046
0.0821556
0.0836331
0.0099212
0.0225811
0.0301613
0.0360935
0.0411638
0.0456385
0.0496502
0.0532802
0.0565834
0.0595988
0.0623552
0.0648752
0.0671779
0.0692816
0.0712045
0.0729662
0.0745877
0.0760918
0.077503
0.078847
0.0801503
0.0814394
0.0827398
0.0103009
0.0235967
0.031564
0.0377055
0.0428563
0.0473222
0.051269
0.0548022
0.0579929
0.0608892
0.0635248
0.0659245
0.0681081
0.0700935
0.071898
0.0735401
0.0750393
0.076417
0.0776962
0.078901
0.080056
0.0811859
0.0823148
0.0111222
0.0256588
0.0342213
0.0406148
0.0458038
0.0501796
0.0539677
0.0573116
0.0603042
0.063005
0.0654531
0.0676749
0.0696902
0.0715158
0.0731675
0.0746621
0.0760172
0.0772523
0.0783882
0.0794468
0.0804506
0.081422
0.0823826
0.0126847
0.0292466
0.0385662
0.0451634
0.0502611
0.0543993
0.0578897
0.0609224
0.0636125
0.0660293
0.0682146
0.0701947
0.0719878
0.0736083
0.0750698
0.0763863
0.0775733
0.0786474
0.0796268
0.0805308
0.081379
0.082191
0.0829856
0.0154022
0.0349069
0.0450307
0.051634
0.0564001
0.0600879
0.063109
0.0656943
0.0679729
0.0700165
0.0718648
0.0735408
0.0750589
0.07643
0.0776645
0.0787732
0.0797682
0.0806632
0.0814732
0.0822141
0.0829024
0.0835541
0.0841847
0.0198994
0.0433014
0.0539875
0.060161
0.0642348
0.0672189
0.0695973
0.0716124
0.0733872
0.0749841
0.0764346
0.0777547
0.0789537
0.0800381
0.0810142
0.0818893
0.0826721
0.0833726
0.0840024
0.0845736
0.0850991
0.0855912
0.0860614
0.0275576
0.0553347
0.0656328
0.0706096
0.0735535
0.0756034
0.0772149
0.0785857
0.0798054
0.0809149
0.081932
0.0828646
0.083716
0.0844885
0.0851849
0.0858089
0.0863658
0.0868621
0.0873055
0.0877044
0.0880678
0.0884041
0.0887207
0.042993
0.0722091
0.0796526
0.0824105
0.0838847
0.0849086
0.0857407
0.0864745
0.0871467
0.0877714
0.0883532
0.0888926
0.0893889
0.0898415
0.0902507
0.0906175
0.0909444
0.0912346
0.0914924
0.0917224
0.0919297
0.0921191
0.0922944
0.086401
0.0938942
0.0942758
0.0944015
0.0945639
0.0947517
0.094948
0.0951445
0.0953373
0.0955237
0.0957017
0.0958694
0.0960256
0.0961691
0.0962994
0.0964165
0.0965209
0.0966133
0.096695
0.0967674
0.0968321
0.0968904
0.0969435
0.0881662
0.0798185
0.0770706
0.0836076
0.13803
0.141193
0.147835
0.159488
0.17065
0.17779
0.187917
0.202751
0.198232
0.206889
0.216778
0.229927
0.228065
0.236973
0.243532
0.253965
0.246776
0.258723
0.269353
0.283072
0.258241
0.273568
0.290682
0.305864
0.260275
0.273503
0.287423
0.297757
0.254805
0.263089
0.271757
0.279626
0.249649
0.255466
0.261999
0.268688
0.248637
0.253984
0.259746
0.265513
0.249135
0.254024
0.258941
0.263539
0.246494
0.250532
0.254395
0.257752
0.239001
0.242027
0.244834
0.247107
0.227556
0.229656
0.231576
0.233025
0.213942
0.215356
0.216653
0.217571
0.199709
0.200731
0.201691
0.202361
0.185807
0.186701
0.187573
0.18823
0.172665
0.17362
0.174579
0.175381
0.160419
0.161537
0.162674
0.163698
0.149104
0.150409
0.151743
0.152996
0.138744
0.140212
0.141711
0.143157
0.129369
0.130947
0.132556
0.134134
0.121027
0.122648
0.124302
0.125941
0.113728
0.115331
0.11697
0.118607
0.107441
0.10898
0.110554
0.112137
0.102095
0.103538
0.105015
0.106508
0.0975999
0.0989288
0.10029
0.101671
0.093854
0.0950616
0.0962991
0.0975585
0.0907643
0.0918512
0.0929651
0.094101
0.0882532
0.0892238
0.0902183
0.091234
0.0862631
0.0871235
0.0880045
0.0889047
0.084758
0.0855144
0.0862882
0.087079
0.0837226
0.0843805
0.0850526
0.0857393
0.0831612
0.0837249
0.0842996
0.0848863
0.0830967
0.0835694
0.0840502
0.0845404
0.0835705
0.083955
0.0843449
0.0847414
0.0846436
0.0849428
0.0852448
0.0855509
0.0863987
0.0866165
0.0868348
0.0870548
0.0889437
0.0890856
0.0892266
0.0893673
0.0924146
0.0924896
0.092563
0.0926353
0.0969786
0.0969999
0.0970204
0.0970404
0.125971
0.171642
0.191904
0.189191
0.180477
0.172215
0.165575
0.164301
0.17092
0.173099
0.167746
0.158979
0.148036
0.136862
0.125283
0.11163
0.096137
0.0752951
0.0352639
0.189839
0.219167
0.225846
0.228719
0.21414
0.197466
0.186639
0.183081
0.19037
0.190315
0.182311
0.171645
0.160584
0.150472
0.138959
0.122929
0.104164
0.0830852
0.047274
0.235537
0.246507
0.259162
0.275416
0.255839
0.223528
0.204348
0.197566
0.201129
0.201699
0.190597
0.177851
0.167311
0.15804
0.144407
0.125568
0.105045
0.0814578
0.0451758
0.256485
0.276128
0.308325
0.349219
0.313609
0.250068
0.219667
0.209418
0.208055
0.205392
0.193551
0.179919
0.1694
0.158715
0.142649
0.121983
0.0983237
0.0735995
0.0373765
0.280358
0.317026
0.367104
0.385905
0.332088
0.26563
0.230219
0.220475
0.216811
0.20753
0.194838
0.181929
0.171266
0.160165
0.144546
0.123049
0.094941
0.0653606
0.0306704
0.31277
0.340235
0.369996
0.359109
0.30921
0.257425
0.233765
0.226827
0.22238
0.212057
0.198652
0.185478
0.174291
0.164385
0.153545
0.136026
0.102831
0.0675133
0.0292419
0.319131
0.323909
0.332265
0.317134
0.279005
0.248877
0.233279
0.226537
0.221261
0.213175
0.201856
0.18851
0.176246
0.167676
0.163496
0.147696
0.120622
0.0818211
0.0356029
0.305145
0.304355
0.301963
0.292853
0.268394
0.247902
0.232916
0.224059
0.217615
0.210084
0.199956
0.187564
0.17489
0.164454
0.15845
0.146098
0.124739
0.095533
0.0485227
0.288673
0.290789
0.285766
0.277794
0.269414
0.256552
0.236695
0.222569
0.213707
0.205681
0.195818
0.183684
0.170643
0.158474
0.147635
0.136781
0.119631
0.0945022
0.0475461
0.278141
0.283572
0.279112
0.268786
0.261998
0.253324
0.236755
0.219629
0.209152
0.200841
0.190161
0.177156
0.164265
0.151658
0.138059
0.125462
0.110866
0.0862157
0.0394262
0.273703
0.278862
0.274177
0.261922
0.249931
0.23847
0.226155
0.212452
0.200401
0.190693
0.180207
0.168631
0.156429
0.143218
0.1284
0.113159
0.0976424
0.0741901
0.0333591
0.269567
0.272132
0.266319
0.253553
0.239382
0.226477
0.215138
0.204699
0.195022
0.185184
0.174122
0.161952
0.14886
0.134521
0.118456
0.101525
0.0844657
0.0623721
0.0270138
0.26163
0.261495
0.254802
0.242764
0.229052
0.216513
0.206044
0.197072
0.188336
0.178175
0.166719
0.154639
0.141495
0.126618
0.109802
0.0921695
0.0749843
0.0546936
0.0241569
0.249307
0.247341
0.240415
0.229678
0.217675
0.206547
0.197152
0.189039
0.180772
0.170711
0.159468
0.147732
0.134759
0.119893
0.103278
0.0862893
0.0699883
0.0512296
0.0243118
0.234098
0.231261
0.224678
0.215464
0.205453
0.196016
0.187758
0.180343
0.172541
0.163254
0.152758
0.14154
0.12895
0.11471
0.0994484
0.084385
0.0695497
0.0519505
0.0263069
0.218017
0.215066
0.209282
0.201648
0.193519
0.185724
0.178601
0.171916
0.164837
0.156599
0.147028
0.136422
0.124489
0.111523
0.0983868
0.0856267
0.0724908
0.0557282
0.0289559
0.202617
0.200088
0.195389
0.189344
0.18289
0.176576
0.170547
0.164628
0.158331
0.151069
0.14245
0.132579
0.121727
0.110453
0.0993756
0.0885515
0.0768935
0.0608241
0.0315264
0.188643
0.186896
0.183426
0.178895
0.173941
0.168921
0.163893
0.158719
0.153104
0.146646
0.138963
0.130107
0.120589
0.110915
0.101439
0.0919804
0.0813817
0.0659635
0.0338096
0.176182
0.17542
0.17322
0.170091
0.166479
0.162597
0.158475
0.154011
0.149024
0.143269
0.136511
0.1288
0.12053
0.112145
0.103814
0.095245
0.0853089
0.0703305
0.0357786
0.164992
0.165271
0.164299
0.162459
0.160042
0.157186
0.153906
0.150139
0.14578
0.140698
0.134786
0.128109
0.120939
0.113556
0.106036
0.0980354
0.0884496
0.0734883
0.0375606
0.154782
0.156033
0.156182
0.155489
0.154139
0.152219
0.14974
0.146666
0.142947
0.13853
0.133386
0.127591
0.121328
0.114759
0.107865
0.100261
0.0908371
0.0758624
0.0388896
0.145352
0.147409
0.148513
0.148806
0.148392
0.147323
0.145602
0.143214
0.140144
0.136383
0.131953
0.12693
0.121438
0.115554
0.109179
0.10188
0.0925151
0.0774831
0.0398767
0.136615
0.139276
0.141129
0.142224
0.142604
0.142288
0.141271
0.139548
0.13712
0.134007
0.130254
0.125933
0.121126
0.115845
0.109929
0.102888
0.0935187
0.0782926
0.0405259
0.12858
0.131629
0.134015
0.135721
0.136742
0.137067
0.136682
0.135581
0.133774
0.131291
0.128184
0.124516
0.120335
0.115606
0.110112
0.103311
0.0939307
0.0784382
0.0407134
0.121283
0.124527
0.127244
0.129376
0.130881
0.131727
0.131886
0.131348
0.130121
0.128235
0.125737
0.122678
0.119074
0.114855
0.109758
0.103195
0.0938419
0.0781001
0.0403841
0.114755
0.118036
0.120913
0.123305
0.125149
0.126393
0.126999
0.126948
0.126242
0.124904
0.12297
0.120468
0.11739
0.113632
0.108906
0.10258
0.093302
0.0773941
0.0395924
0.108999
0.1122
0.115103
0.117619
0.119672
0.1212
0.122154
0.122508
0.122252
0.121398
0.119966
0.117963
0.115353
0.112005
0.10761
0.10151
0.092342
0.0764162
0.0386552
0.103992
0.107034
0.109867
0.112401
0.114557
0.116266
0.117474
0.118146
0.118262
0.117819
0.116819
0.115246
0.113039
0.110044
0.105934
0.100044
0.091014
0.0752082
0.0378504
0.0996873
0.102524
0.105222
0.107697
0.109871
0.111676
0.113054
0.113961
0.114368
0.114259
0.113615
0.112399
0.110528
0.107825
0.103949
0.0982586
0.0893916
0.0738039
0.0371599
0.0960298
0.0986363
0.101159
0.103522
0.105653
0.107484
0.108957
0.110023
0.110645
0.110792
0.110427
0.109496
0.107893
0.105427
0.101749
0.0962293
0.0875577
0.0722815
0.0364625
0.0929637
0.0953311
0.0976558
0.0998717
0.101912
0.103715
0.105221
0.106379
0.107145
0.107474
0.107317
0.1066
0.105202
0.102921
0.0994082
0.094045
0.0855919
0.0707049
0.0357092
0.0904405
0.0925691
0.0946839
0.0967289
0.0986454
0.100375
0.101863
0.103055
0.103901
0.104347
0.104331
0.103764
0.102515
0.100373
0.0969962
0.0917901
0.0835551
0.0690818
0.0348019
0.0884299
0.0903207
0.0922185
0.094076
0.0958417
0.0974633
0.0988883
0.100064
0.100934
0.101439
0.101504
0.101031
0.0998789
0.097836
0.0945687
0.0895098
0.0815074
0.0674035
0.0336766
0.0869133
0.0885685
0.0902445
0.0919008
0.093493
0.094975
0.0962987
0.0974123
0.0982576
0.098768
0.098862
0.0984332
0.0973351
0.0953547
0.0921671
0.0872267
0.079426
0.0656577
0.0324807
0.0858896
0.087311
0.0887609
0.0902028
0.091599
0.0929108
0.0940963
0.0951063
0.0958817
0.0963513
0.0964277
0.0959989
0.0949146
0.0929625
0.0898236
0.0849652
0.0773164
0.063899
0.0315542
0.085378
0.0865683
0.0877849
0.0889971
0.0901721
0.0912798
0.0922882
0.0931533
0.0938163
0.0942026
0.0942201
0.0937522
0.0926458
0.0906893
0.0875682
0.0827589
0.0752149
0.0620825
0.0307731
0.0854179
0.086379
0.0873549
0.0883191
0.0892413
0.0901021
0.0908875
0.0915636
0.0920729
0.0923377
0.0922604
0.0917197
0.09056
0.0885698
0.0854393
0.0806541
0.07319
0.0602995
0.0300049
0.0860713
0.0868062
0.0875367
0.0882314
0.0888582
0.0894102
0.0899118
0.0903483
0.0906637
0.0907737
0.090573
0.0899337
0.0886966
0.0866504
0.0834903
0.0787137
0.0713218
0.0586613
0.029292
0.0874267
0.0879432
0.0884302
0.0888355
0.0891084
0.0892474
0.0893757
0.0895131
0.0895969
0.0895275
0.0891854
0.0884325
0.0871043
0.0849889
0.0817873
0.0770113
0.0696935
0.0572642
0.0287168
0.0896032
0.0899197
0.0901808
0.0902947
0.0901391
0.0896566
0.0892719
0.0890433
0.0888689
0.088611
0.088125
0.0872578
0.085837
0.0836497
0.0804022
0.0756232
0.0683835
0.0561987
0.0283837
0.0927551
0.0929067
0.0929926
0.0928744
0.0922401
0.0906255
0.0895201
0.0888774
0.08845
0.088023
0.0874133
0.0864492
0.0849493
0.0826982
0.0794066
0.0746195
0.067453
0.0555329
0.0284114
0.0970735
0.0971135
0.0971178
0.0969618
0.096107
0.0918574
0.0898673
0.0888735
0.0882721
0.087741
0.0870586
0.0860374
0.084489
0.0821956
0.0788691
0.0740654
0.0669409
0.0552404
0.0288401
)
;

boundaryField
{
    leftWall
    {
        type            kqRWallFunction;
        value           nonuniform List<scalar> 
50
(
0.00226675
0.00506704
0.00757909
0.00991047
0.0122406
0.0147166
0.0174542
0.0205473
0.0245994
0.032179
0.0422868
0.0529471
0.0627919
0.0673117
0.0633608
0.0582806
0.0538076
0.0582563
0.0696941
0.0844374
0.0959391
0.0943106
0.0862638
0.0752984
0.0641562
0.0545151
0.0445224
0.0350583
0.0273788
0.021154
0.0167079
0.0140197
0.0125281
0.011649
0.0110796
0.0106747
0.0103571
0.0101072
0.00992215
0.00980954
0.0097922
0.0099212
0.0103009
0.0111222
0.0126847
0.0154022
0.0198994
0.0275576
0.042993
0.086401
)
;
    }
    rightWall
    {
        type            kqRWallFunction;
        value           nonuniform List<scalar> 
50
(
0.0060634
0.0120353
0.0165795
0.0201909
0.0228694
0.0250368
0.0271637
0.0298166
0.0352639
0.047274
0.0451758
0.0373765
0.0306704
0.0292419
0.0356029
0.0485227
0.0475461
0.0394262
0.0333591
0.0270138
0.0241569
0.0243118
0.0263069
0.0289559
0.0315264
0.0338096
0.0357786
0.0375606
0.0388896
0.0398767
0.0405259
0.0407134
0.0403841
0.0395924
0.0386552
0.0378504
0.0371599
0.0364625
0.0357092
0.0348019
0.0336766
0.0324807
0.0315542
0.0307731
0.0300049
0.029292
0.0287168
0.0283837
0.0284114
0.0288401
)
;
    }
    lowerWall
    {
        type            kqRWallFunction;
        value           nonuniform List<scalar> 
62
(
0.00226675
0.0068357
0.0107021
0.0134458
0.0154467
0.0168928
0.017933
0.0186913
0.019254
0.0196679
0.0199509
0.0201208
0.0202227
0.0203544
0.0206711
0.0213155
0.0223069
0.0233813
0.0239669
0.0232965
0.0206221
0.0153532
0.00732579
0.00732579
0.015695
0.0210647
0.0258637
0.0309043
0.0369101
0.0448533
0.0585914
0.0881662
0.0798185
0.0770706
0.0836076
0.00613899
0.015602
0.0231497
0.0310904
0.0410871
0.0550684
0.0744548
0.0986673
0.00613899
0.0193518
0.027803
0.0321227
0.0322765
0.0295491
0.0273516
0.0273572
0.0293894
0.0305236
0.0296278
0.0284984
0.0270967
0.0255126
0.0241933
0.0216636
0.0170944
0.0113466
0.0060634
)
;
    }
    atmosphere
    {
        type            inletOutlet;
        inletValue      uniform 0.1;
        value           nonuniform List<scalar> 
46
(
0.1
0.1
0.1
0.1
0.1
0.1
0.1
0.1
0.1
0.1
0.1
0.1
0.1
0.1
0.1
0.1
0.1
0.1
0.1
0.1
0.1
0.1
0.1
0.1
0.1
0.1
0.1
0.1
0.1
0.1
0.1
0.1
0.0918574
0.0898673
0.0888735
0.0882721
0.087741
0.0870586
0.0860374
0.084489
0.0821956
0.0788691
0.0740654
0.0669409
0.0552404
0.0288401
)
;
    }
    defaultFaces
    {
        type            empty;
    }
}


// ************************************************************************* //
