/*--------------------------------*- C++ -*----------------------------------*\
| =========                 |                                                 |
| \\      /  F ield         | OpenFOAM: The Open Source CFD Toolbox           |
|  \\    /   O peration     | Version:  2.3.0                                 |
|   \\  /    A nd           | Web:      www.OpenFOAM.org                      |
|    \\/     M anipulation  |                                                 |
\*---------------------------------------------------------------------------*/
FoamFile
{
    version     2.0;
    format      ascii;
    class       volScalarField;
    location    "1.45";
    object      nut;
}
// * * * * * * * * * * * * * * * * * * * * * * * * * * * * * * * * * * * * * //

dimensions      [0 2 -1 0 0 0 0];

internalField   nonuniform List<scalar> 
2268
(
4.35439e-05
5.58008e-05
7.01056e-05
7.85261e-05
8.41003e-05
8.78662e-05
9.04403e-05
9.22399e-05
9.35318e-05
9.44719e-05
9.51367e-05
9.55413e-05
9.56515e-05
9.54934e-05
9.56906e-05
9.63151e-05
9.75622e-05
9.91572e-05
0.000100187
9.90449e-05
9.37437e-05
8.14996e-05
5.58284e-05
0.000100074
0.000449863
0.000634982
0.000749143
0.000820791
0.000864216
0.000889119
0.00090224
0.000907907
0.000908876
0.000907021
0.000903491
0.00089848
0.00088893
0.00087688
0.000875227
0.000884195
0.000895829
0.000894657
0.000854012
0.000748457
0.000555892
0.000176919
0.000123095
0.000704871
0.00110846
0.0013855
0.00157279
0.00169392
0.00176779
0.00180884
0.00182712
0.0018297
0.00182197
0.00180839
0.00179235
0.00177429
0.0017577
0.00175461
0.00176409
0.00177296
0.0017546
0.00166447
0.0014495
0.00103849
0.000207541
0.000140842
0.000854445
0.00141972
0.00183735
0.00213589
0.00234012
0.00247319
0.00255395
0.00259635
0.00261106
0.0026071
0.00259258
0.00257435
0.00255648
0.0025428
0.00254194
0.00254979
0.00254992
0.0025094
0.00237179
0.00205973
0.00144345
0.000232679
0.000156472
0.000966443
0.00165429
0.0021826
0.0025725
0.00284941
0.00303891
0.00316196
0.0032345
0.00326952
0.00327878
0.00327321
0.00326214
0.00325159
0.00324476
0.00324687
0.00325107
0.00323908
0.00317444
0.00299223
0.00259243
0.00178824
0.000256915
0.000171546
0.00107044
0.0018635
0.0024801
0.0029412
0.00327625
0.00351384
0.00367614
0.00377983
0.00383913
0.00386746
0.00387745
0.00387967
0.00388077
0.00388235
0.00388658
0.00388553
0.00385988
0.00377143
0.00354904
0.0030715
0.00209734
0.0002825
0.000186826
0.00118187
0.00207379
0.00276283
0.00327834
0.00365783
0.00393405
0.00413022
0.00426309
0.00434731
0.00439712
0.0044258
0.00444412
0.00445841
0.00446936
0.00447407
0.00446688
0.00442777
0.00431787
0.00406211
0.0035209
0.00239584
0.00031096
0.0002027
0.00131054
0.00229704
0.00304598
0.00360288
0.00401568
0.0043222
0.0045466
0.00470534
0.00481309
0.00488425
0.00493208
0.00496685
0.00499403
0.00501316
0.00501828
0.00500503
0.00495407
0.00482682
0.00454748
0.00396567
0.00272538
0.000349885
5.16584e-05
9.00856e-05
0.000110204
0.000121561
0.000124717
0.000120907
0.000113876
0.000109412
0.000110319
0.000112598
0.000111709
0.000110144
0.000107457
0.000103612
0.000100391
9.48644e-05
8.3938e-05
6.85689e-05
7.30486e-05
0.000187409
0.000641216
0.000927435
0.00110428
0.00116211
0.00112982
0.00102691
0.000968094
0.000996894
0.00102444
0.00099881
0.00100186
0.000983624
0.000942484
0.00092467
0.000867105
0.000728151
0.000539262
0.000168703
0.000229686
0.000962569
0.00160475
0.00205429
0.00223588
0.00220757
0.00205693
0.00195918
0.00200384
0.00204328
0.00199174
0.0019539
0.00189339
0.00180631
0.00173458
0.00159774
0.00133262
0.000935425
0.000195678
0.000266432
0.00112943
0.00207269
0.00278699
0.00310637
0.00311581
0.00296045
0.00285574
0.00290634
0.00294569
0.0028769
0.00278631
0.00267278
0.00253523
0.00239833
0.00218032
0.00180687
0.00122223
0.000214883
0.000308499
0.00122981
0.00244027
0.00340229
0.00384928
0.00390369
0.00375776
0.00365449
0.0036968
0.00372707
0.00364479
0.00350666
0.00333898
0.00314827
0.0029448
0.00264983
0.00218122
0.00143176
0.000229306
0.000361987
0.0013086
0.00276949
0.00396623
0.00452126
0.00461157
0.00447226
0.00436377
0.00438568
0.00439943
0.0043036
0.00412783
0.00391
0.00366596
0.00339862
0.00303294
0.00248134
0.00158943
0.000241293
0.000425929
0.00142187
0.0031094
0.00451852
0.00515292
0.00526168
0.00511784
0.00499234
0.00498509
0.00497651
0.00486508
0.00466081
0.00439951
0.00410317
0.0037768
0.00334806
0.00272736
0.00172216
0.000253075
0.000491466
0.0016754
0.00353829
0.00508988
0.00576047
0.00586599
0.00570332
0.00554922
0.00550651
0.00547118
0.00534156
0.00511436
0.00481695
0.00447216
0.00409046
0.00360736
0.00293403
0.00185525
0.000267708
0.000222244
0.00152442
0.0026463
0.00347407
0.00408274
0.00453679
0.00488209
0.00514412
0.0053387
0.00548031
0.0055833
0.00566038
0.00572064
0.00576814
0.00580119
0.00581237
0.00579098
0.00572583
0.00558002
0.00528383
0.00470047
0.00355255
0.00144319
0.000255415
0.00187503
0.00315468
0.00406163
0.00472123
0.00521418
0.00559688
0.00589561
0.00612494
0.00629907
0.0064322
0.00653613
0.00661861
0.00668245
0.00672576
0.00674232
0.00672026
0.00664137
0.00648637
0.00620505
0.00570668
0.00484924
0.003551
0.000291456
0.00217992
0.00361592
0.00459723
0.00530519
0.00584095
0.0062598
0.00658933
0.00684447
0.00704025
0.00719166
0.00731063
0.00740464
0.00747635
0.00752441
0.00754462
0.00752777
0.00745703
0.00731383
0.00708041
0.00671866
0.00620145
0.00560581
0.00032091
0.00240697
0.00398123
0.00504444
0.00581413
0.0063963
0.0068522
0.00721173
0.00748855
0.00769942
0.00786122
0.00798714
0.00808568
0.00816047
0.00821117
0.00823546
0.00822684
0.00817202
0.00805764
0.00788373
0.00765421
0.00739789
0.007208
0.000345076
0.00252413
0.00420107
0.00536276
0.00622238
0.00687126
0.00736767
0.00775465
0.00805363
0.00827792
0.0084462
0.00857399
0.0086726
0.00874817
0.00880182
0.00883243
0.00883547
0.0088
0.00871878
0.00859777
0.00847141
0.00838789
0.00840963
0.000348647
0.00250644
0.00424174
0.00552747
0.00650789
0.00725164
0.00780083
0.00821801
0.00854648
0.00878685
0.00896045
0.00908569
0.00918003
0.00925421
0.00931093
0.00934912
0.00936451
0.00934676
0.00929038
0.00920523
0.00914068
0.0091447
0.00924764
0.000331455
0.00233578
0.00408876
0.00554342
0.00666338
0.00751193
0.00815141
0.00860069
0.00898527
0.00923958
0.00941438
0.00953075
0.00961583
0.00968567
0.00974308
0.00978588
0.0098097
0.0098035
0.00976247
0.00970039
0.00966885
0.00971011
0.00983203
0.000315985
0.00193011
0.00381965
0.00548995
0.00678003
0.00771293
0.00842303
0.00895152
0.00936132
0.00962062
0.0097803
0.00989111
0.00997526
0.0100456
0.0101038
0.0101486
0.010177
0.0101764
0.010141
0.0100877
0.0100608
0.0100944
0.0102088
0.000309843
0.00173937
0.00368675
0.00547521
0.0069004
0.00793323
0.00866128
0.00920383
0.00961422
0.00988274
0.0100473
0.0101642
0.0102565
0.0103333
0.0103949
0.0104451
0.0104789
0.010481
0.0104404
0.0103843
0.0103538
0.0103791
0.0104733
0.000345639
0.00188893
0.00388888
0.00567558
0.00711406
0.00815618
0.00884716
0.00938634
0.00981126
0.010089
0.0102538
0.0103678
0.0104617
0.0105409
0.0106041
0.0106529
0.0106863
0.0106908
0.0106564
0.0106086
0.0105885
0.0106196
0.0107074
0.000394232
0.00228489
0.00443437
0.00612551
0.00740475
0.00833307
0.0089763
0.00950465
0.00992121
0.0102003
0.0103716
0.0104866
0.0105816
0.010662
0.0107254
0.0107725
0.0108033
0.010813
0.0108008
0.0107803
0.0107853
0.0108375
0.0109419
0.000438806
0.00304013
0.00506828
0.00645982
0.0075265
0.00836167
0.00899928
0.00951043
0.00990437
0.0101809
0.0103676
0.0105019
0.010611
0.0107017
0.010774
0.0108288
0.0108674
0.010891
0.0109031
0.0109153
0.0109515
0.0110313
0.0111601
0.000451619
0.00324597
0.00527966
0.00657725
0.00753018
0.00829833
0.00891321
0.00940362
0.00978204
0.010062
0.0102693
0.0104309
0.0105644
0.0106762
0.0107674
0.0108396
0.0108955
0.0109393
0.0109773
0.0110201
0.011084
0.0111817
0.0113125
0.00043419
0.00320329
0.0052377
0.00651059
0.00741488
0.00813785
0.00872564
0.00919836
0.00957064
0.00986137
0.0100937
0.0102869
0.0104519
0.0105931
0.0107118
0.0108099
0.0108907
0.0109593
0.0110226
0.0110884
0.0111663
0.0112616
0.0113708
0.000410809
0.00305245
0.00503699
0.00629733
0.0071833
0.00787993
0.00844637
0.00890776
0.00928218
0.00958988
0.00985054
0.0100776
0.0102776
0.0104529
0.0106043
0.0107335
0.0108434
0.0109383
0.0110232
0.0111029
0.0111819
0.0112617
0.0113393
0.000383146
0.00284612
0.00473834
0.00597055
0.00684444
0.00752614
0.00808066
0.00853969
0.00892454
0.00925465
0.00954577
0.00980716
0.0100425
0.0102527
0.0104381
0.0105995
0.0107389
0.0108588
0.0109618
0.0110501
0.0111254
0.0111881
0.0112365
0.000352705
0.00260122
0.00436477
0.00554889
0.00640664
0.00708017
0.0076337
0.00810108
0.00850464
0.00886159
0.00918406
0.00947853
0.00974724
0.00999044
0.010208
0.0104001
0.0105675
0.010711
0.0108311
0.0109281
0.0110026
0.0110544
0.0110834
0.000326442
0.00232604
0.00392802
0.00504574
0.0058817
0.00655225
0.00711537
0.00760148
0.008031
0.00841803
0.00877186
0.00909743
0.00939664
0.00966983
0.00991682
0.0101374
0.0103313
0.0104981
0.0106369
0.0107467
0.0108272
0.0108781
0.0108995
0.000297415
0.00201999
0.00343632
0.0044775
0.00528947
0.00596183
0.00654289
0.0070557
0.00751651
0.0079359
0.00832092
0.00867593
0.00900325
0.00930382
0.00957785
0.00982505
0.0100447
0.0102356
0.0103961
0.0105241
0.0106182
0.0106777
0.0107023
0.000263952
0.00163359
0.00289204
0.0038692
0.00466127
0.00533934
0.00594266
0.00648636
0.00698138
0.00743452
0.00785076
0.00823436
0.00858841
0.00891476
0.00921425
0.00948687
0.00973183
0.00994759
0.010132
0.0102824
0.0103959
0.0104711
0.0105072
0.00023329
0.00128189
0.00236243
0.00327194
0.00404459
0.00472771
0.00535134
0.00592531
0.00645482
0.00694185
0.00738879
0.00780035
0.0081804
0.00853154
0.00885526
0.00915206
0.00942134
0.00966149
0.00987004
0.0100438
0.0101795
0.0102741
0.0103263
0.000204478
0.00106327
0.00196827
0.00278758
0.00352366
0.00419919
0.00483107
0.00542569
0.00597982
0.00649348
0.00696768
0.00740539
0.00781042
0.00818505
0.00853109
0.00884981
0.00914095
0.00940299
0.00963333
0.00982856
0.00998491
0.0100989
0.0101685
0.000180682
0.000966445
0.00174198
0.00247078
0.00315733
0.00381059
0.00443667
0.00503612
0.00560305
0.00613387
0.00662752
0.00708522
0.00750949
0.00790285
0.00826726
0.00860383
0.00891242
0.00919164
0.00943893
0.00965086
0.00982364
0.00995385
0.0100394
0.000164866
0.000951506
0.00165692
0.00231989
0.00296064
0.00358554
0.00419544
0.0047872
0.00535437
0.00589111
0.00639442
0.0068638
0.00730041
0.00770601
0.00808225
0.00843006
0.00874939
0.009039
0.00929658
0.00951897
0.00970264
0.00984442
0.00994238
0.000155898
0.000982751
0.00167068
0.00230104
0.00291189
0.00351296
0.0041046
0.0046829
0.00524169
0.00577478
0.00627822
0.00675028
0.00719088
0.00760085
0.00798124
0.00833273
0.00865527
0.00894785
0.00920853
0.0094346
0.00962301
0.00977096
0.00987668
0.000150696
0.0010327
0.00174504
0.00237361
0.00297359
0.00356101
0.00413856
0.00470365
0.00525073
0.00577446
0.00627097
0.00673803
0.0071748
0.00758138
0.00795828
0.00830595
0.00862435
0.00891276
0.0091697
0.00939302
0.00958026
0.00972908
0.0098379
0.000147527
0.00108316
0.0018486
0.0025003
0.00310689
0.0036921
0.00426261
0.00481825
0.00535402
0.00586632
0.00635197
0.00680883
0.0072358
0.00763263
0.00799956
0.00833694
0.00864488
0.008923
0.00917036
0.00938543
0.00956639
0.00971139
0.0098191
0.000145246
0.00112516
0.00195783
0.00265038
0.00327814
0.00387209
0.00444359
0.00499412
0.00552101
0.00602228
0.00649567
0.00693949
0.00735279
0.00773539
0.00808754
0.00840974
0.00870236
0.00896549
0.00919873
0.00940124
0.00957183
0.0097092
0.00981229
0.0001434
0.00115784
0.00205999
0.00280335
0.0034633
0.00407563
0.0046545
0.0052041
0.0057252
0.00621694
0.00667805
0.00710752
0.00750491
0.00787038
0.00820454
0.00850819
0.00878216
0.00902701
0.00924298
0.00942987
0.00958712
0.00971397
0.00980971
0.000141951
0.00118289
0.00215061
0.0029495
0.00364824
0.00428443
0.00487559
0.005429
0.00594727
0.00643096
0.00687998
0.00729432
0.00767432
0.00802079
0.00833486
0.00861786
0.0088711
0.00909571
0.0092925
0.00946189
0.00960391
0.00971833
0.00980481
0.000140935
0.00120496
0.00223111
0.00308481
0.00382582
0.00449078
0.00509863
0.00565872
0.00617558
0.00665149
0.00708787
0.00748597
0.0078472
0.00817318
0.00846577
0.00872686
0.00895831
0.00916176
0.00933855
0.00948964
0.00961558
0.0097166
0.0097927
0.000140468
0.00122898
0.00231108
0.00321906
0.00400345
0.00469855
0.00532382
0.0058903
0.00640458
0.00687099
0.00729277
0.00767269
0.00801341
0.0083175
0.00858755
0.00882607
0.00903539
0.00921761
0.00937449
0.00950741
0.00961735
0.0097049
0.00977037
0.000140805
0.00126139
0.00240334
0.00336667
0.00419365
0.00491666
0.00555599
0.00612483
0.00663232
0.00708522
0.00748887
0.00784775
0.00816578
0.00844651
0.00869323
0.00890893
0.00909636
0.00925794
0.00939572
0.00951138
0.00960619
0.00968102
0.00973638
0.00014245
0.0013111
0.00252322
0.00354358
0.00440974
0.0051545
0.00580055
0.00636428
0.00685808
0.00729156
0.00767235
0.00800664
0.00829957
0.00855553
0.00877832
0.00897133
0.00913753
0.00927952
0.00939954
0.00949941
0.00958057
0.00964405
0.00969048
0.000146289
0.00138788
0.00268308
0.00376075
0.00466023
0.00541789
0.00606073
0.00660971
0.00708132
0.00748844
0.00784109
0.00814703
0.00841245
0.00864234
0.00884085
0.00901151
0.00915739
0.00928113
0.00938498
0.00947081
0.00954012
0.00959398
0.00963311
0.000153572
0.00149472
0.00288273
0.00401857
0.00494684
0.00570894
0.00633827
0.00686225
0.00730269
0.00767625
0.00799538
0.00826929
0.00850491
0.00870756
0.0088815
0.00903022
0.0091567
0.00926347
0.0093527
0.0094262
0.00948544
0.00953148
0.00956502
0.000165512
0.00162012
0.00310989
0.00431342
0.00527197
0.00603222
0.00663784
0.00712609
0.00752597
0.0078586
0.00813885
0.00837708
0.00858062
0.00875482
0.00890377
0.00903074
0.00913844
0.0092292
0.009305
0.0093675
0.00941808
0.00945774
0.00948714
0.000182905
0.0017501
0.00336422
0.00465841
0.00565205
0.00640195
0.00697043
0.00740987
0.00775855
0.00804236
0.00827821
0.00847704
0.00864613
0.00879045
0.00891368
0.00901866
0.00910772
0.00918287
0.00924581
0.00929801
0.00934069
0.00937474
0.00940078
0.000206803
0.00189598
0.00368635
0.0051001
0.00612314
0.00684135
0.00735039
0.00772342
0.00800856
0.00823533
0.00842138
0.00857728
0.00870955
0.00882244
0.00891893
0.00900128
0.00907132
0.00913065
0.00918065
0.00922251
0.00925724
0.00928563
0.00930821
0.00024086
0.00210777
0.00417452
0.0057228
0.00673368
0.0073721
0.00778633
0.00807105
0.00828004
0.00844262
0.00857469
0.00868506
0.00877878
0.00885898
0.00892775
0.00898667
0.00903702
0.00907991
0.00911636
0.00914725
0.00917333
0.00919522
0.00921335
0.000297643
0.00250884
0.00503915
0.00665608
0.00752733
0.00799744
0.00827041
0.00844548
0.0085693
0.00866411
0.00874083
0.00880508
0.00885989
0.00890705
0.0089477
0.00898272
0.00901282
0.00903866
0.00906081
0.00907982
0.00909617
0.00911024
0.00912234
0.000419076
0.0037433
0.00688342
0.00807252
0.00849886
0.00867889
0.00877081
0.00882646
0.00886506
0.0088946
0.00891867
0.00893902
0.00895654
0.00897174
0.00898494
0.0089964
0.00900631
0.00901489
0.0090223
0.00902874
0.00903436
0.00903929
0.00904364
0.00042381
0.000403029
0.00039367
0.000408924
0.00281766
0.00281094
0.0029853
0.0032451
0.00541872
0.00543629
0.00555798
0.00574377
0.00724078
0.00730267
0.0073925
0.00751186
0.00856388
0.00865672
0.00873113
0.00883241
0.00943333
0.00957659
0.00970977
0.00985169
0.0100222
0.0101899
0.0103756
0.0105326
0.0103748
0.010511
0.0106548
0.0107586
0.0105894
0.0106736
0.010759
0.0108351
0.0108038
0.010873
0.0109468
0.0110198
0.0110535
0.0111318
0.011211
0.0112849
0.0112813
0.0113612
0.0114368
0.0115016
0.0114207
0.0114885
0.0115488
0.0115955
0.0114512
0.0114989
0.0115379
0.0115628
0.0113879
0.011414
0.0114311
0.011435
0.0112574
0.0112649
0.0112638
0.0112505
0.0110851
0.0110796
0.0110657
0.0110408
0.0108915
0.0108793
0.0108586
0.0108278
0.0106934
0.01068
0.010658
0.0106264
0.010504
0.0104937
0.0104747
0.0104463
0.0103329
0.0103285
0.010315
0.0102924
0.0101865
0.010189
0.0101822
0.0101661
0.0100688
0.0100781
0.0100779
0.0100685
0.00998138
0.00999647
0.010002
0.00999831
0.00992241
0.00994187
0.00995182
0.00995264
0.00988743
0.00990958
0.00992253
0.00992658
0.00986977
0.00989311
0.00990773
0.00991379
0.00986183
0.00988506
0.00990017
0.00990725
0.00985631
0.00987835
0.00989298
0.00990027
0.00984709
0.00986711
0.00988049
0.00988724
0.00982979
0.00984725
0.00985882
0.0098645
0.00980192
0.00981656
0.00982604
0.00983035
0.00976258
0.00977449
0.00978188
0.00978476
0.00971203
0.00972159
0.00972723
0.00972893
0.00965105
0.00965891
0.00966339
0.00966444
0.00958055
0.00958746
0.00959149
0.00959256
0.0095013
0.00950792
0.00951216
0.00951391
0.00941416
0.00942086
0.00942569
0.00942854
0.0093207
0.0093274
0.00933275
0.00933665
0.0092241
0.0092302
0.00923546
0.0092398
0.00912993
0.00913442
0.00913851
0.00914214
0.00904648
0.0090482
0.00904982
0.00905133
0.00136452
0.00281349
0.00454073
0.00602049
0.00665126
0.00672702
0.00653523
0.00632222
0.00621632
0.00613353
0.0059719
0.00571253
0.00536606
0.00495874
0.00449487
0.0039375
0.00320728
0.00206408
0.000293645
0.00394598
0.00486503
0.00617506
0.00744033
0.00782347
0.00773995
0.00744943
0.00711666
0.00691489
0.00676835
0.00655712
0.00625268
0.00585972
0.00539839
0.00485142
0.00420239
0.00339179
0.00221636
0.00034591
0.0061702
0.00664852
0.007754
0.00877715
0.00891543
0.00859791
0.00816741
0.00773401
0.00743197
0.00722873
0.006957
0.00660365
0.00618055
0.00568454
0.00506266
0.00427749
0.00334286
0.00213269
0.000342679
0.00778183
0.0082603
0.00924162
0.0100978
0.00996414
0.00929636
0.00872874
0.00823533
0.00786478
0.00758535
0.00726293
0.0068762
0.00642731
0.00587923
0.00515957
0.00423626
0.00312627
0.00186448
0.000317083
0.00909623
0.00962858
0.0104516
0.0108788
0.0104997
0.00978
0.00914566
0.0086573
0.00827319
0.0079171
0.00755202
0.00714098
0.00666458
0.00607538
0.00528441
0.00422316
0.00290268
0.00151406
0.000281711
0.0101422
0.0104331
0.0108673
0.0109352
0.0105755
0.00998981
0.00944706
0.00899234
0.00860783
0.00823091
0.00783644
0.00739745
0.00689642
0.00629609
0.00551228
0.00442765
0.00299403
0.00145897
0.000262255
0.0106587
0.0106063
0.0107166
0.0107549
0.0105469
0.0101473
0.00967761
0.0092375
0.00884371
0.00846395
0.00805673
0.00759289
0.0070684
0.0064736
0.00577145
0.00479042
0.00343176
0.00171146
0.000283109
0.0108154
0.0107018
0.010668
0.0107727
0.0106686
0.0103269
0.00987008
0.00941784
0.00900166
0.00859719
0.00816277
0.00767089
0.00711552
0.00649437
0.00581479
0.00496529
0.00385684
0.00229611
0.000337983
0.0109247
0.010888
0.0108266
0.010877
0.0108469
0.0105381
0.0100453
0.00955046
0.00909194
0.0086461
0.00817041
0.00763582
0.007033
0.00636244
0.00563696
0.00483315
0.00380668
0.0023249
0.000336856
0.0111297
0.0111615
0.011098
0.0110245
0.0109195
0.0106206
0.0101431
0.00961834
0.00912158
0.00863099
0.00809706
0.00749872
0.00683833
0.00611013
0.00531147
0.00447483
0.00348944
0.00208817
0.000304152
0.0113912
0.0114219
0.0113253
0.0111437
0.0109031
0.0105631
0.0101313
0.00962702
0.00909682
0.00854791
0.00795371
0.00730101
0.00658368
0.00579557
0.00493436
0.00401326
0.00300022
0.00171464
0.000277186
0.0115836
0.0115718
0.0114269
0.0111772
0.0108579
0.0104822
0.0100575
0.00958001
0.00905253
0.00846412
0.00781432
0.00710485
0.00633415
0.00549544
0.00458173
0.00360436
0.00257348
0.00142832
0.000247292
0.0116431
0.0115824
0.011397
0.0111131
0.0107615
0.0103677
0.00994028
0.00947066
0.00894177
0.0083359
0.00765605
0.00692075
0.00612439
0.00525787
0.00431642
0.00332033
0.00231016
0.001268
0.00023564
0.0115748
0.0114725
0.01126
0.0109607
0.0106016
0.0102041
0.00977644
0.00931043
0.00878611
0.00818476
0.00750557
0.0067714
0.00597528
0.00510995
0.00417708
0.0032005
0.00221653
0.00120556
0.000239076
0.0114155
0.0112821
0.0110535
0.0107494
0.0103938
0.0100022
0.0095812
0.00912492
0.00861625
0.00803838
0.00738409
0.00667303
0.00590182
0.00506984
0.00418524
0.00326111
0.00229438
0.00124802
0.000250194
0.0112065
0.0110527
0.0108175
0.0105162
0.0101703
0.00979177
0.00938555
0.00894794
0.00846615
0.00792408
0.00731027
0.00663894
0.00591438
0.00514226
0.0043283
0.00346312
0.00250316
0.00137768
0.000263092
0.0109807
0.0108168
0.0105833
0.0102923
0.00996154
0.00960225
0.00921808
0.00880645
0.00835824
0.0078592
0.00729489
0.00667618
0.00601324
0.00531094
0.00456473
0.00374416
0.00277746
0.00156084
0.000274896
0.0107603
0.0105962
0.0103715
0.0100969
0.00978733
0.00945245
0.00909535
0.00871408
0.00830191
0.00784793
0.00734033
0.00678137
0.00618316
0.00554566
0.00485156
0.00405423
0.00306699
0.00176739
0.00028517
0.0105591
0.0104031
0.0101936
0.0099403
0.00965659
0.00934965
0.0090223
0.00867323
0.00829754
0.00788745
0.00743494
0.00693802
0.00639864
0.005813
0.00515231
0.00435833
0.00333682
0.00195813
0.000293738
0.0103849
0.0102429
0.0100529
0.00982529
0.00956967
0.00929208
0.00899517
0.0086783
0.00833805
0.00796891
0.00756477
0.00712132
0.00663324
0.00608484
0.00544028
0.00463344
0.00356436
0.00209061
0.000301303
0.0102405
0.0101158
0.00994905
0.00974812
0.00952069
0.00927203
0.00900468
0.00871859
0.00841147
0.00807912
0.00771599
0.00731524
0.00686533
0.00634223
0.00570276
0.00487515
0.00375442
0.00219377
0.000306934
0.0101254
0.0100209
0.00987729
0.00970181
0.00950098
0.00927943
0.00903965
0.00878199
0.0085048
0.00820446
0.00787506
0.00750723
0.00708437
0.00657623
0.00593408
0.00508207
0.00391101
0.00227289
0.000311206
0.0100392
0.00995395
0.00983156
0.00967899
0.00950203
0.00930488
0.00908993
0.00885768
0.00860675
0.00833347
0.00803103
0.00768762
0.00728267
0.00678137
0.00613114
0.00525337
0.00403555
0.00232844
0.000313711
0.00997915
0.00991057
0.00980644
0.00967346
0.00951702
0.009341
0.00914764
0.0089374
0.00870877
0.00845761
0.00817593
0.00784971
0.00745531
0.00695472
0.00629291
0.0053898
0.00413107
0.00236623
0.000313985
0.0099415
0.00988643
0.00979718
0.00968025
0.00954077
0.0093824
0.00920714
0.00901525
0.00880481
0.00857094
0.00830438
0.00798919
0.00759948
0.00709524
0.0064199
0.00549325
0.00420072
0.00239093
0.00031201
0.00992131
0.00987664
0.00979907
0.00969488
0.009569
0.00942485
0.00926419
0.00908692
0.00889055
0.00866936
0.00841282
0.00810346
0.00771391
0.00720334
0.00651366
0.00556632
0.00424776
0.00240671
0.000308388
0.00991247
0.0098755
0.00980695
0.00971274
0.00959752
0.00946449
0.00931513
0.0091489
0.00896269
0.0087499
0.00849891
0.00819112
0.00779824
0.00727923
0.00657628
0.00561207
0.00427512
0.00241575
0.000304848
0.00990826
0.00987685
0.00981523
0.00972881
0.0096219
0.00949738
0.00935641
0.009198
0.00901844
0.00881032
0.00856119
0.00825168
0.00785317
0.007325
0.00661064
0.00563365
0.00428497
0.00241618
0.000302059
0.00990227
0.00987468
0.00981839
0.00973811
0.00963767
0.00951958
0.0093846
0.00923132
0.00905546
0.00884901
0.00859891
0.00828544
0.00788013
0.00734317
0.00661977
0.00563423
0.00427973
0.00240816
0.000299541
0.00988919
0.00986403
0.00981178
0.00973636
0.00964098
0.00952768
0.00939681
0.00924653
0.00907212
0.00886511
0.00861214
0.00829345
0.00788108
0.00733635
0.00660623
0.00561685
0.00426226
0.00239505
0.000296808
0.0098656
0.0098417
0.00979242
0.00972079
0.00962933
0.00951953
0.00939132
0.00924244
0.00906785
0.00885881
0.00860186
0.00827751
0.00785853
0.00730756
0.00657336
0.00558405
0.00423473
0.00237897
0.000293776
0.00983009
0.00980658
0.00975939
0.00969065
0.00960215
0.00949479
0.00936807
0.00921941
0.00904351
0.00883152
0.0085701
0.00824021
0.00781547
0.00725991
0.00652407
0.0055381
0.0041988
0.00236007
0.000290093
0.00978292
0.00975948
0.00971385
0.00964732
0.00956096
0.00945514
0.00932895
0.00917956
0.00900152
0.00878602
0.00851998
0.00818489
0.00775533
0.00719664
0.00646106
0.00548086
0.00415515
0.00233834
0.00028543
0.00972584
0.00970263
0.00965845
0.00959379
0.00950904
0.00940404
0.00927757
0.00912662
0.00894576
0.00872632
0.00845557
0.00811564
0.00768199
0.00712118
0.00638702
0.00541371
0.00410318
0.00231262
0.000280429
0.00966087
0.00963863
0.00959644
0.00953387
0.00945062
0.00934605
0.00921867
0.00906549
0.00888117
0.00865736
0.00838175
0.00803711
0.00759975
0.0070373
0.00630489
0.00533832
0.00404178
0.00227716
0.000276477
0.00958962
0.0095696
0.00953063
0.00947107
0.00938987
0.00928585
0.00915735
0.00900145
0.00881316
0.00858453
0.00830381
0.00795438
0.00751336
0.00694929
0.00621843
0.00525797
0.0039741
0.0022336
0.000273096
0.00951271
0.00949653
0.00946246
0.0094076
0.00932986
0.00922733
0.00909808
0.00893943
0.00874689
0.00851312
0.00822703
0.00787265
0.00742783
0.00686192
0.00613218
0.00517718
0.00390531
0.00218879
0.00026972
0.00942985
0.00941892
0.00939146
0.00934369
0.00927182
0.00917283
0.00904411
0.0088833
0.00868669
0.0084478
0.00815627
0.00779688
0.00734811
0.00678012
0.00605109
0.00510091
0.00384034
0.00214697
0.000266553
0.00934051
0.00933542
0.00931594
0.00927767
0.00921495
0.00912299
0.00899721
0.00883564
0.00863575
0.00839221
0.00809559
0.00773139
0.00727878
0.0067086
0.00597989
0.00503381
0.00378337
0.00211076
0.000263971
0.00924525
0.0092452
0.00923382
0.00920663
0.00915688
0.00907743
0.0089582
0.00879792
0.00859607
0.00834889
0.008048
0.00767964
0.00722361
0.00665137
0.00592268
0.00497982
0.00373766
0.00208199
0.000262466
0.00914728
0.00914989
0.00914502
0.00912862
0.00909498
0.0090364
0.00892798
0.00877117
0.00856886
0.00831938
0.00801548
0.00764405
0.00718541
0.0066115
0.00588265
0.00494189
0.00370531
0.00206156
0.000262604
0.00905359
0.00905529
0.0090542
0.00904776
0.00903094
0.00900446
0.00890923
0.00875663
0.00855485
0.00830445
0.00799906
0.00762603
0.00716595
0.00659103
0.00586192
0.00492188
0.00368718
0.00204763
0.000264566
)
;

boundaryField
{
    leftWall
    {
        type            nutkWallFunction;
        Cmu             0.09;
        kappa           0.41;
        E               9.8;
        value           nonuniform List<scalar> 
50
(
8.18196e-06
1.20197e-05
1.45223e-05
1.6457e-05
1.81523e-05
1.97678e-05
2.13878e-05
2.30573e-05
2.50468e-05
2.83317e-05
3.21076e-05
3.56548e-05
3.99088e-05
4.12048e-05
4.00769e-05
3.85678e-05
3.70267e-05
3.79882e-05
4.2483e-05
4.88742e-05
5.24116e-05
5.19252e-05
4.94519e-05
4.58621e-05
4.19301e-05
3.829e-05
3.39725e-05
2.92247e-05
2.48917e-05
2.08628e-05
1.75507e-05
1.52976e-05
1.39397e-05
1.30959e-05
1.25296e-05
1.2117e-05
1.17869e-05
1.1523e-05
1.13253e-05
1.12039e-05
1.11852e-05
1.13243e-05
1.17278e-05
1.25726e-05
1.40865e-05
1.64843e-05
1.99719e-05
2.4999e-05
3.31186e-05
4.9493e-05
)
;
    }
    rightWall
    {
        type            nutkWallFunction;
        Cmu             0.09;
        kappa           0.41;
        E               9.8;
        value           nonuniform List<scalar> 
50
(
1.44383e-05
1.98554e-05
2.30162e-05
2.51991e-05
2.6682e-05
2.78134e-05
2.88723e-05
3.0131e-05
3.25557e-05
3.76492e-05
3.68889e-05
3.3824e-05
3.08203e-05
3.02766e-05
3.61347e-05
4.08375e-05
4.03655e-05
3.61586e-05
3.27809e-05
2.91823e-05
2.74268e-05
2.75341e-05
2.85479e-05
2.95637e-05
3.16995e-05
3.32288e-05
3.43486e-05
3.53323e-05
3.60482e-05
3.65705e-05
3.69074e-05
3.69214e-05
3.63875e-05
3.59319e-05
3.56356e-05
3.52541e-05
3.48764e-05
3.44903e-05
3.40684e-05
3.33959e-05
3.26473e-05
3.18894e-05
3.12428e-05
3.06989e-05
3.02205e-05
2.97704e-05
2.94027e-05
2.91878e-05
2.92057e-05
2.94818e-05
)
;
    }
    lowerWall
    {
        type            nutkWallFunction;
        Cmu             0.09;
        kappa           0.41;
        E               9.8;
        value           nonuniform List<scalar> 
62
(
3.82899e-06
6.74249e-06
8.39504e-06
9.37117e-06
1.00147e-05
1.04513e-05
1.07527e-05
1.09663e-05
1.11218e-05
1.12345e-05
1.13108e-05
1.13563e-05
1.13835e-05
1.14186e-05
1.15025e-05
1.16709e-05
1.19243e-05
1.21921e-05
1.23349e-05
1.21709e-05
1.14894e-05
9.98575e-06
6.97687e-06
6.97687e-06
2.03648e-05
2.3323e-05
2.56301e-05
2.78116e-05
3.01688e-05
3.29824e-05
3.72641e-05
4.51118e-05
4.31123e-05
4.24292e-05
4.40334e-05
6.39256e-06
2.23803e-05
2.68305e-05
3.07123e-05
3.48878e-05
3.98829e-05
4.57899e-05
5.2057e-05
6.39256e-06
1.11486e-05
1.32275e-05
1.41542e-05
1.41859e-05
1.36111e-05
1.31261e-05
1.3128e-05
1.35788e-05
1.38219e-05
1.36286e-05
1.33822e-05
1.30692e-05
1.27045e-05
1.23906e-05
1.17613e-05
1.05112e-05
8.63615e-06
6.35331e-06
)
;
    }
    atmosphere
    {
        type            calculated;
        value           nonuniform List<scalar> 
46
(
0.009
0.009
0.009
0.009
0.009
0.009
0.009
0.009
0.009
0.009
0.009
0.009
0.009
0.009
0.009
0.009
0.009
0.009
0.009
0.009
0.009
0.009
0.009
0.009
0.009
0.009
0.009
0.009
0.009
0.009
0.009
0.009
0.00900446
0.00890923
0.00875663
0.00855485
0.00830445
0.00799906
0.00762603
0.00716595
0.00659103
0.00586192
0.00492188
0.00368718
0.00204763
0.000264566
)
;
    }
    defaultFaces
    {
        type            empty;
    }
}


// ************************************************************************* //
