/*--------------------------------*- C++ -*----------------------------------*\
| =========                 |                                                 |
| \\      /  F ield         | OpenFOAM: The Open Source CFD Toolbox           |
|  \\    /   O peration     | Version:  2.3.0                                 |
|   \\  /    A nd           | Web:      www.OpenFOAM.org                      |
|    \\/     M anipulation  |                                                 |
\*---------------------------------------------------------------------------*/
FoamFile
{
    version     2.0;
    format      ascii;
    class       volScalarField;
    location    "1.45";
    object      p;
}
// * * * * * * * * * * * * * * * * * * * * * * * * * * * * * * * * * * * * * //

dimensions      [1 -1 -2 0 0 0 0];

internalField   nonuniform List<scalar> 
2268
(
950.365
955.36
962.046
968.911
974.917
979.94
984.144
987.553
990.037
991.399
991.461
990.096
987.258
982.896
976.69
969.788
962.884
956.707
952.338
951.419
955.093
963.639
974.799
890.562
894.733
900.358
906.621
912.526
917.768
922.363
926.238
929.202
931.047
931.604
930.744
928.362
924.516
919.664
913.701
906.846
900.03
894.831
893.594
897.476
906.881
918.83
830.259
834.007
838.605
844.059
849.701
855.122
860.187
864.675
868.296
870.795
871.986
871.725
869.91
866.691
862.756
857.172
850.021
842.538
837.042
835.793
839.513
849.029
861.256
769.355
773.135
777.304
782.226
787.653
793.222
798.74
803.856
808.161
811.329
813.126
813.383
812
809.118
805.275
799.558
791.981
784.022
778.243
776.846
779.814
789.276
800.848
707.902
711.814
715.936
720.696
726.12
731.937
737.974
743.769
748.79
752.627
754.993
755.69
754.602
751.796
747.604
741.433
733.27
724.545
718.323
716.43
717.972
727.468
737.019
645.916
649.859
654.012
658.866
664.532
670.786
677.509
684.129
689.969
694.535
697.487
698.596
697.727
694.88
690.283
683.489
674.282
664.688
657.889
654.569
653.719
663.122
668.418
583.36
587.172
591.34
596.473
602.607
609.501
617.115
624.751
631.553
636.942
640.53
642.061
641.379
638.448
633.424
625.868
615.243
605.134
596.858
590.951
586.406
594.145
591.536
520.215
523.697
527.964
533.584
540.386
548.082
556.727
565.495
573.338
579.587
583.817
585.75
585.228
582.204
576.766
568.337
556.853
546.658
535.151
525.463
515.35
514.073
498.967
444.045
454.249
467.126
476.267
474.928
468.974
463.526
455.453
446.017
445.45
450.964
461.678
472.04
479.789
488.552
498.611
509.343
517.918
524.941
384.115
391.399
400.888
409.151
409.918
408.005
407.187
404.288
403.514
402.449
402.78
408.891
419.409
427.85
436.216
445.919
456.78
464.589
470.034
323.285
329.247
335.091
343.098
346.177
348.726
352.825
360.214
368.351
367.428
365.301
361.429
367.05
374.806
382.951
392.753
404.256
411.697
415.687
261.6
268.052
271.355
280.872
286.166
292.147
302.814
321.097
330.709
331.239
327.844
315.531
313.436
319.568
327.992
338.293
350.409
358.136
362.227
199.358
207.494
207.943
221.777
231.697
244.371
261.743
280.83
289.493
290.794
286.04
267.334
258.147
261.961
272.193
283.345
295.39
304.641
309.657
137.632
149.927
143.962
164.543
184.836
205.398
221.289
237.638
245.071
247.309
242.453
227.447
217.99
210.262
216.235
227.821
240.025
251.981
258.061
82.2621
107.355
94.4431
111.344
141.225
163.921
177.744
190.461
200.088
206.48
204.118
202.112
193.626
175.632
165.573
170.073
183.446
199.712
207.344
44.8114
82.3423
69.7534
73.5722
98.2637
123.384
130.492
138.914
153.31
168.509
175.941
178.892
167.375
151.063
130.328
127.553
131.601
146.36
157.138
420.758
423.378
427.978
434.785
442.914
451.988
462.283
472.821
482.233
489.714
494.812
497.246
496.883
493.708
487.729
478.735
468.067
455.905
440.366
422.318
400.685
370.733
293.36
282.036
282.44
287.915
298.431
309.397
320.308
333.216
346.738
358.6
367.869
374.175
377.283
377.132
373.749
367.177
358.102
347.636
333.013
312.9
286.388
254.395
216.711
176.177
140.938
137.325
145.078
163.122
178.026
188.529
204.154
221.849
236.714
247.908
255.428
259.174
259.206
255.507
248.048
238.041
225.994
209.305
186.133
155.749
120.744
88.0079
64.6702
43.954
41.6776
47.1863
62.3799
72.1725
75.2182
84.9441
103.89
121.454
134.042
142.148
146.079
146.332
142.714
134.384
122.872
110.206
93.1782
71.1317
48.8477
28.0639
14.381
8.89763
17.9982
18.5124
19.9867
22.2892
22.4974
20.7757
19.3566
25.8404
36.1682
44.7993
50.8861
53.6966
54.1668
52.0715
45.7658
38.3476
33.0464
24.2027
12.711
4.02785
0.0429848
-0.946436
-0.439003
14.0621
14.1869
14.6078
12.512
10.6807
9.5455
5.03137
0.882773
1.51136
4.70088
8.28153
9.83581
9.93689
8.90902
5.84319
3.91604
4.36338
4.40077
2.80895
0.470331
-0.370199
-0.478413
-0.317791
10.484
10.4155
9.9271
8.13652
6.7928
5.56268
1.87402
0.253649
-0.416239
-0.190309
0.511286
0.67013
0.54183
0.545461
0.938635
1.64044
2.44293
2.36995
0.689243
-0.442028
-0.635384
-0.653641
-0.606474
7.30447
7.25232
5.85694
4.31924
3.12223
2.16296
0.104824
-0.657403
-0.782919
-0.566306
0.0779802
0.189911
-0.129889
-0.321797
-0.595313
-1.11861
-0.944249
-0.576063
-0.54922
-0.802102
-0.87034
-0.883505
-0.852624
4.2915
4.13006
2.0307
0.523937
-0.206768
-0.979909
-1.30728
-1.25949
-1.27177
-1.34428
-1.23474
-1.48381
-1.74089
-1.80581
-1.7968
-1.747
-1.72152
-1.59889
-1.42187
-1.24444
-1.18384
-1.16364
-1.12314
0.988828
0.651786
-0.889065
-1.42934
-1.44791
-1.47822
-1.54687
-1.55408
-1.59585
-1.70018
-1.77158
-1.76543
-1.78579
-1.8158
-1.8303
-1.83478
-1.83118
-1.81874
-1.80302
-1.70419
-1.57352
-1.48468
-1.41051
-1.43249
-1.99187
-2.13469
-1.97325
-1.81822
-1.75227
-1.75068
-1.75541
-1.77198
-1.81578
-1.85124
-1.87252
-1.8989
-1.92175
-1.93525
-1.94088
-1.94292
-1.95076
-1.9594
-1.92776
-1.8395
-1.73351
-1.61906
-2.27652
-2.24303
-2.24163
-2.14224
-2.01071
-1.943
-1.92375
-1.91799
-1.92335
-1.9471
-1.97204
-1.9923
-2.01202
-2.02804
-2.03801
-2.04162
-2.04196
-2.0428
-2.03998
-2.01264
-1.95501
-1.8695
-1.7769
-2.28755
-2.32117
-2.31203
-2.24099
-2.15791
-2.10604
-2.08159
-2.07046
-2.0703
-2.08137
-2.09631
-2.11001
-2.12284
-2.13319
-2.13924
-2.14019
-2.13692
-2.13037
-2.11823
-2.0904
-2.04325
-1.98229
-1.91727
-2.32465
-2.36822
-2.37564
-2.33727
-2.28783
-2.25099
-2.22797
-2.21512
-2.21077
-2.21391
-2.22081
-2.22834
-2.23549
-2.24078
-2.24281
-2.24078
-2.23457
-2.22413
-2.20806
-2.18212
-2.14498
-2.09984
-2.05292
-2.39355
-2.43482
-2.45267
-2.43688
-2.40912
-2.38399
-2.36504
-2.35235
-2.34555
-2.34386
-2.34525
-2.34779
-2.35021
-2.35124
-2.34979
-2.34516
-2.337
-2.32498
-2.30825
-2.28523
-2.2558
-2.22218
-2.18817
-2.49106
-2.52575
-2.5454
-2.54119
-2.5261
-2.50946
-2.49479
-2.48338
-2.4756
-2.47116
-2.46893
-2.46769
-2.4664
-2.46409
-2.45996
-2.45348
-2.4443
-2.43212
-2.41647
-2.39682
-2.37357
-2.34838
-2.32355
-2.60742
-2.63352
-2.64961
-2.64978
-2.64159
-2.63061
-2.61955
-2.60978
-2.60193
-2.59602
-2.59149
-2.5876
-2.58366
-2.57899
-2.57309
-2.56557
-2.55615
-2.54461
-2.53072
-2.51438
-2.49608
-2.47708
-2.45881
-2.73212
-2.7498
-2.7601
-2.76134
-2.75678
-2.74943
-2.7411
-2.73291
-2.72546
-2.7189
-2.71303
-2.70749
-2.70187
-2.69579
-2.68891
-2.681
-2.67187
-2.66135
-2.64935
-2.63593
-2.62152
-2.6071
-2.59354
-2.85912
-2.86895
-2.87363
-2.87467
-2.87205
-2.86698
-2.86063
-2.85381
-2.84696
-2.84031
-2.83386
-2.82748
-2.82101
-2.81424
-2.80701
-2.79917
-2.79059
-2.78119
-2.77094
-2.75992
-2.74852
-2.73747
-2.72732
-2.9819
-2.98672
-2.98845
-2.9891
-2.98743
-2.98384
-2.97894
-2.97326
-2.96713
-2.96076
-2.95426
-2.94766
-2.94094
-2.93404
-2.92686
-2.91936
-2.91146
-2.90311
-2.89434
-2.88524
-2.87612
-2.86754
-2.85982
-3.10147
-3.10305
-3.1039
-3.1041
-3.10299
-3.10041
-3.09662
-3.09192
-3.08654
-3.08068
-3.07449
-3.06809
-3.06153
-3.05483
-3.04799
-3.04097
-3.03376
-3.02637
-3.01881
-3.0112
-3.00378
-2.99698
-2.99097
-3.22111
-3.22021
-3.21993
-3.21987
-3.21909
-3.21721
-3.21426
-3.21038
-3.20574
-3.20049
-3.1948
-3.18882
-3.18267
-3.1764
-3.17004
-3.16359
-3.15707
-3.1505
-3.14394
-3.13748
-3.13132
-3.1258
-3.12099
-3.34176
-3.33941
-3.33789
-3.33725
-3.33642
-3.33488
-3.33247
-3.32922
-3.32521
-3.32057
-3.31545
-3.31002
-3.30439
-3.29865
-3.29284
-3.28699
-3.28113
-3.2753
-3.26956
-3.26401
-3.2588
-3.2542
-3.25025
-3.46309
-3.4604
-3.45796
-3.45654
-3.45538
-3.45386
-3.45172
-3.44888
-3.44538
-3.44128
-3.43673
-3.43186
-3.42679
-3.4216
-3.41636
-3.4111
-3.40587
-3.40069
-3.39565
-3.39082
-3.38635
-3.38244
-3.37911
-3.58467
-3.58204
-3.57929
-3.57737
-3.57586
-3.57422
-3.57216
-3.56959
-3.56647
-3.56284
-3.55881
-3.55448
-3.54995
-3.54531
-3.54061
-3.5359
-3.53123
-3.52663
-3.52218
-3.51795
-3.51406
-3.51067
-3.50779
-3.70641
-3.70405
-3.70139
-3.69927
-3.69751
-3.69575
-3.69372
-3.69132
-3.68851
-3.68529
-3.68172
-3.67788
-3.67385
-3.66971
-3.66551
-3.66129
-3.65712
-3.65303
-3.64909
-3.64536
-3.64194
-3.63897
-3.63643
-3.82838
-3.82632
-3.82392
-3.8218
-3.81996
-3.81814
-3.81616
-3.81393
-3.81137
-3.80849
-3.80532
-3.80193
-3.79835
-3.79466
-3.7909
-3.78713
-3.78339
-3.77974
-3.77623
-3.77292
-3.7699
-3.76728
-3.76504
-3.95053
-3.94876
-3.94664
-3.94465
-3.94283
-3.94105
-3.93915
-3.93708
-3.93476
-3.9322
-3.9294
-3.92639
-3.92322
-3.91993
-3.91657
-3.91318
-3.90983
-3.90657
-3.90344
-3.9005
-3.89783
-3.89552
-3.89354
-4.07281
-4.07127
-4.06939
-4.06757
-4.06586
-4.06417
-4.0624
-4.0605
-4.05842
-4.05614
-4.05367
-4.05101
-4.0482
-4.04527
-4.04227
-4.03925
-4.03625
-4.03333
-4.03055
-4.02795
-4.0256
-4.02358
-4.02184
-4.19515
-4.19379
-4.1921
-4.19044
-4.18887
-4.1873
-4.18568
-4.18396
-4.1821
-4.18009
-4.17791
-4.17557
-4.17309
-4.1705
-4.16784
-4.16515
-4.16249
-4.1599
-4.15744
-4.15516
-4.15311
-4.15135
-4.14985
-4.31751
-4.31628
-4.31473
-4.3132
-4.31175
-4.31032
-4.30886
-4.30732
-4.30567
-4.3039
-4.30199
-4.29994
-4.29776
-4.29549
-4.29315
-4.29079
-4.28845
-4.28618
-4.28404
-4.28206
-4.28029
-4.27879
-4.27752
-4.43991
-4.43876
-4.43731
-4.43588
-4.43454
-4.43323
-4.43191
-4.43054
-4.42909
-4.42753
-4.42587
-4.42408
-4.42219
-4.42022
-4.41819
-4.41614
-4.41412
-4.41217
-4.41033
-4.40864
-4.40715
-4.40589
-4.40484
-4.56235
-4.56129
-4.5599
-4.55854
-4.55729
-4.55609
-4.55489
-4.55368
-4.5524
-4.55104
-4.5496
-4.54806
-4.54643
-4.54474
-4.54301
-4.54126
-4.53955
-4.5379
-4.53635
-4.53494
-4.5337
-4.53267
-4.53184
-4.68488
-4.68389
-4.68256
-4.68126
-4.68008
-4.67897
-4.67789
-4.67681
-4.67569
-4.67452
-4.67327
-4.67196
-4.67057
-4.66914
-4.66768
-4.66622
-4.66479
-4.66343
-4.66215
-4.661
-4.66
-4.65919
-4.65855
-4.80754
-4.80661
-4.80533
-4.80409
-4.80298
-4.80197
-4.801
-4.80004
-4.79907
-4.79805
-4.79699
-4.79588
-4.79472
-4.79353
-4.79232
-4.79112
-4.78995
-4.78884
-4.78782
-4.7869
-4.78612
-4.78549
-4.78502
-4.93032
-4.92947
-4.92826
-4.92709
-4.92607
-4.92515
-4.92429
-4.92345
-4.92261
-4.92174
-4.92084
-4.91991
-4.91895
-4.91798
-4.91699
-4.91603
-4.91509
-4.91421
-4.9134
-4.91269
-4.91209
-4.91163
-4.9113
-5.05324
-5.05248
-5.05135
-5.05028
-5.04936
-5.04855
-5.0478
-5.04708
-5.04637
-5.04564
-5.04489
-5.04413
-5.04335
-5.04256
-5.04177
-5.04101
-5.04027
-5.03958
-5.03896
-5.03842
-5.03798
-5.03765
-5.03743
-5.17627
-5.17564
-5.17463
-5.17369
-5.17288
-5.17219
-5.17156
-5.17096
-5.17037
-5.16977
-5.16916
-5.16854
-5.16792
-5.1673
-5.16668
-5.16609
-5.16552
-5.165
-5.16453
-5.16412
-5.1638
-5.16357
-5.16344
-5.29948
-5.29899
-5.29811
-5.2973
-5.29663
-5.29607
-5.29556
-5.29507
-5.2946
-5.29412
-5.29364
-5.29316
-5.29267
-5.2922
-5.29173
-5.29128
-5.29085
-5.29046
-5.29011
-5.28982
-5.28958
-5.28942
-5.28934
-5.42308
-5.42282
-5.42197
-5.42115
-5.42059
-5.42016
-5.41978
-5.4194
-5.41903
-5.41866
-5.4183
-5.41794
-5.41758
-5.41723
-5.41689
-5.41656
-5.41625
-5.41597
-5.41571
-5.41549
-5.41532
-5.41519
-5.41513
-5.54658
-5.54805
-5.54653
-5.54523
-5.54473
-5.54443
-5.54415
-5.54388
-5.5436
-5.54334
-5.54309
-5.54284
-5.5426
-5.54236
-5.54213
-5.54191
-5.5417
-5.5415
-5.54132
-5.54115
-5.54101
-5.5409
-5.54081
-5.6678
-5.6752
-5.67108
-5.66925
-5.66877
-5.66856
-5.66838
-5.66823
-5.66809
-5.66798
-5.66788
-5.66779
-5.6677
-5.66762
-5.66754
-5.66747
-5.66739
-5.66731
-5.66722
-5.66713
-5.66703
-5.66693
-5.66683
133.292
107.33
107.977
93.379
125.257
91.7665
62.7684
42.0494
41.2952
24.1329
13.1559
12.4073
7.73486
8.00031
8.18347
7.59046
1.63123
2.89434
2.79152
2.09104
-0.0801444
-0.057342
-0.0647716
0.0805572
-0.560872
-0.525464
-0.449802
-0.352865
-0.808599
-0.765479
-0.723873
-0.668699
-1.05388
-1.00195
-0.961539
-0.923336
-1.31841
-1.26853
-1.22804
-1.19265
-1.53934
-1.4958
-1.45888
-1.42777
-1.71679
-1.68246
-1.65295
-1.62829
-1.87319
-1.84751
-1.82543
-1.8068
-2.02095
-2.00179
-1.98506
-1.97089
-2.16458
-2.14986
-2.13673
-2.12564
-2.30577
-2.29412
-2.28351
-2.27461
-2.44518
-2.43576
-2.42695
-2.41963
-2.58299
-2.57523
-2.56774
-2.56157
-2.71904
-2.71256
-2.7061
-2.70079
-2.85322
-2.84774
-2.84213
-2.83754
-2.98558
-2.98093
-2.97607
-2.97212
-3.1165
-3.11251
-3.10834
-3.10497
-3.24642
-3.24298
-3.23939
-3.23654
-3.37577
-3.37276
-3.36965
-3.36722
-3.50483
-3.50216
-3.49943
-3.49732
-3.63379
-3.6314
-3.62896
-3.62708
-3.76268
-3.76053
-3.75834
-3.75664
-3.89145
-3.88954
-3.88757
-3.88602
-4.02002
-4.01834
-4.0166
-4.01521
-4.14829
-4.14686
-4.14536
-4.14414
-4.27622
-4.27503
-4.27377
-4.27275
-4.40379
-4.40283
-4.40182
-4.40099
-4.53102
-4.53027
-4.5295
-4.52886
-4.65793
-4.65738
-4.65682
-4.65637
-4.78459
-4.78421
-4.78384
-4.78355
-4.91102
-4.91079
-4.91057
-4.91042
-5.03727
-5.03715
-5.03706
-5.03702
-5.16336
-5.16333
-5.16333
-5.16336
-5.28932
-5.28933
-5.28938
-5.28946
-5.41514
-5.41517
-5.41523
-5.41531
-5.54076
-5.54076
-5.5408
-5.54085
-5.66673
-5.66668
-5.66666
-5.66664
41.6193
52.5513
50.2886
48.936
60.5221
76.8983
81.3166
79.499
91.5544
119.371
136.051
135.716
123.916
114.023
107.816
104.229
95.7391
91.7139
97.7301
25.6096
29.0231
31.5758
29.8251
34.3997
42.8148
45.151
41.1627
42.4129
60.0629
81.3566
87.5986
84.1932
84.6949
87.0402
80.2026
69.3109
57.2107
55.4228
13.4413
15.0626
16.0281
14.7329
18.7722
25.0554
28.2321
27.169
26.9703
29.7528
42.3581
55.7685
63.1243
67.2778
65.2383
58.1419
49.8814
43.3328
43.4554
6.04415
5.74941
6.04392
6.63134
8.04709
11.5891
16.0591
17.9228
19.052
18.9248
22.6692
33.4601
42.6341
44.7196
41.3857
36.9362
32.828
30.4309
30.874
1.81393
2.30794
3.23189
4.63513
5.46395
5.90049
8.23973
12.311
14.343
13.8352
13.8005
16.586
21.5383
23.1352
18.2017
14.3377
15.1877
16.2978
16.9066
0.464433
1.04555
1.78324
3.10616
4.00672
3.77355
5.9954
8.92508
10.5665
10.1354
9.20764
8.21121
8.79806
7.61416
2.69619
0.823855
1.9078
3.20526
3.72686
-0.156108
0.182863
0.446782
0.903323
1.1923
1.79125
3.12364
4.6305
5.92898
6.04917
5.47248
4.64998
2.945
0.792135
0.0902034
-0.333606
-0.698985
-1.05697
-1.01137
-0.543549
-0.41838
-0.48989
-0.771135
-0.841892
0.194984
0.435329
0.390969
1.00342
1.46947
1.29287
0.697232
0.0358502
-0.304715
-0.692306
-0.926928
-1.14198
-1.21129
-1.21608
-0.864485
-0.845697
-0.996475
-1.31307
-1.41774
-1.41533
-1.68079
-1.60695
-1.31132
-1.15813
-1.21469
-1.36247
-1.47341
-1.47722
-1.32891
-1.3233
-1.36529
-1.38226
-1.38065
-1.15025
-1.15613
-1.28363
-1.49092
-1.60456
-1.6525
-1.68555
-1.80569
-2.01449
-2.04094
-1.92982
-1.76205
-1.6364
-1.59863
-1.61077
-1.547
-1.52525
-1.52318
-1.51928
-1.39143
-1.39268
-1.47035
-1.59953
-1.70253
-1.76307
-1.79922
-1.83262
-1.85665
-1.85456
-1.82913
-1.78969
-1.75128
-1.72584
-1.71133
-1.68972
-1.66445
-1.65481
-1.6545
-1.59824
-1.59569
-1.64335
-1.72679
-1.80507
-1.86378
-1.90898
-1.94594
-1.9668
-1.96208
-1.93756
-1.90789
-1.8793
-1.85605
-1.83876
-1.8186
-1.79977
-1.79051
-1.79437
-1.78311
-1.78017
-1.81047
-1.86519
-1.92302
-1.97293
-2.01429
-2.04749
-2.06603
-2.06251
-2.04845
-2.0295
-2.0114
-1.99617
-1.98316
-1.96331
-1.94407
-1.93663
-1.94276
-1.95274
-1.95052
-1.97048
-2.00748
-2.04987
-2.08945
-2.12328
-2.14876
-2.16314
-2.1663
-2.16483
-2.1582
-2.15043
-2.14282
-2.13265
-2.11641
-2.09894
-2.09345
-2.09746
-2.11172
-2.11025
-2.12471
-2.15078
-2.1821
-2.21292
-2.24034
-2.26166
-2.27607
-2.28483
-2.29111
-2.2928
-2.2892
-2.28223
-2.27353
-2.26465
-2.25659
-2.25144
-2.25011
-2.26377
-2.26285
-2.27416
-2.29386
-2.31758
-2.34203
-2.36473
-2.38497
-2.40314
-2.41647
-2.42348
-2.42462
-2.41887
-2.41158
-2.40642
-2.40395
-2.40128
-2.39683
-2.38955
-2.4111
-2.41063
-2.41945
-2.43526
-2.45425
-2.47402
-2.49324
-2.51208
-2.53098
-2.54585
-2.55111
-2.54827
-2.54348
-2.53953
-2.53708
-2.53591
-2.53473
-2.53254
-2.52342
-2.55473
-2.55458
-2.56147
-2.57391
-2.58962
-2.60623
-2.62261
-2.63841
-2.65348
-2.66551
-2.67052
-2.66974
-2.66805
-2.66682
-2.66645
-2.66662
-2.66661
-2.66596
-2.65867
-2.69521
-2.69527
-2.70072
-2.71042
-2.72292
-2.73676
-2.75047
-2.76326
-2.77496
-2.78452
-2.78995
-2.79189
-2.79275
-2.79359
-2.79471
-2.79587
-2.79637
-2.79553
-2.79128
-2.83293
-2.83311
-2.83745
-2.84511
-2.85503
-2.86612
-2.87737
-2.88805
-2.89778
-2.9059
-2.91153
-2.91501
-2.91751
-2.91972
-2.92186
-2.92381
-2.92499
-2.92407
-2.91988
-2.96833
-2.96857
-2.97206
-2.97817
-2.98613
-2.99513
-3.00441
-3.0134
-3.02169
-3.02881
-3.03439
-3.03861
-3.04202
-3.04499
-3.04774
-3.05028
-3.05239
-3.05294
-3.04516
-3.10189
-3.10217
-3.105
-3.10992
-3.11638
-3.12376
-3.13149
-3.13911
-3.14627
-3.15262
-3.15795
-3.16235
-3.16609
-3.16934
-3.17223
-3.17479
-3.17672
-3.17665
-3.16794
-3.23404
-3.23434
-3.23667
-3.24066
-3.24595
-3.25206
-3.25856
-3.26505
-3.27126
-3.27694
-3.28189
-3.28614
-3.28979
-3.29291
-3.2955
-3.2975
-3.2983
-3.29616
-3.28907
-3.36518
-3.36548
-3.36739
-3.37066
-3.37503
-3.38013
-3.38561
-3.39117
-3.39656
-3.40157
-3.40607
-3.40997
-3.41329
-3.41599
-3.41799
-3.41909
-3.41867
-3.41524
-3.40954
-3.49561
-3.49587
-3.49744
-3.50013
-3.50375
-3.50804
-3.51268
-3.51745
-3.52211
-3.5265
-3.53047
-3.53392
-3.53677
-3.5389
-3.54015
-3.54019
-3.53828
-3.53301
-3.52745
-3.62558
-3.62578
-3.62705
-3.62926
-3.63227
-3.63587
-3.63982
-3.64389
-3.64792
-3.65173
-3.65517
-3.65812
-3.66045
-3.66198
-3.66247
-3.6615
-3.65819
-3.65099
-3.64314
-3.75527
-3.75538
-3.75639
-3.7582
-3.7607
-3.76372
-3.76706
-3.77055
-3.774
-3.77727
-3.7802
-3.78266
-3.78448
-3.78546
-3.78532
-3.7836
-3.77952
-3.77173
-3.76227
-3.88475
-3.88477
-3.88557
-3.88704
-3.88911
-3.89163
-3.89446
-3.89741
-3.90035
-3.90313
-3.90559
-3.90759
-3.90895
-3.90945
-3.90883
-3.90663
-3.90214
-3.89433
-3.88496
-4.01404
-4.014
-4.01462
-4.01581
-4.01752
-4.01962
-4.02199
-4.02448
-4.02695
-4.02927
-4.0313
-4.03288
-4.03384
-4.03396
-4.03298
-4.0305
-4.02578
-4.01774
-4.00908
-4.14309
-4.14301
-4.14351
-4.14448
-4.14589
-4.14763
-4.1496
-4.15167
-4.15372
-4.15563
-4.15726
-4.15847
-4.15909
-4.15893
-4.15773
-4.15514
-4.15052
-4.1427
-4.13425
-4.27184
-4.27178
-4.27218
-4.27299
-4.27415
-4.27559
-4.27721
-4.27891
-4.28058
-4.28211
-4.28338
-4.28426
-4.28461
-4.28425
-4.28297
-4.28041
-4.27593
-4.26898
-4.26096
-4.40026
-4.40023
-4.40059
-4.40128
-4.40225
-4.40343
-4.40475
-4.40612
-4.40744
-4.40862
-4.40957
-4.41017
-4.4103
-4.40982
-4.40856
-4.40625
-4.40217
-4.39555
-4.38806
-4.52831
-4.52834
-4.52868
-4.52929
-4.53011
-4.5311
-4.53216
-4.53323
-4.53424
-4.53511
-4.53576
-4.53611
-4.53607
-4.53552
-4.53436
-4.53246
-4.52919
-4.52219
-4.5145
-4.656
-4.65609
-4.65645
-4.65701
-4.65773
-4.65855
-4.65939
-4.6602
-4.66092
-4.66151
-4.6619
-4.66202
-4.66182
-4.6612
-4.6601
-4.65843
-4.65562
-4.64943
-4.64132
-4.78334
-4.78351
-4.78388
-4.78443
-4.7851
-4.78579
-4.78644
-4.78702
-4.78749
-4.78781
-4.78795
-4.78787
-4.7875
-4.78678
-4.78564
-4.78395
-4.7811
-4.7759
-4.76794
-4.91035
-4.91059
-4.91101
-4.91158
-4.91223
-4.91285
-4.91334
-4.91369
-4.91392
-4.914
-4.91392
-4.91364
-4.9131
-4.91225
-4.911
-4.90918
-4.90612
-4.90078
-4.8938
-5.03706
-5.03737
-5.03785
-5.03848
-5.03918
-5.03977
-5.0401
-5.04024
-5.04024
-5.04009
-5.0398
-5.03934
-5.03865
-5.03767
-5.0363
-5.03438
-5.03123
-5.02596
-5.0197
-5.16349
-5.16384
-5.16439
-5.16512
-5.16598
-5.16661
-5.16677
-5.16669
-5.16645
-5.16609
-5.16561
-5.165
-5.16419
-5.16312
-5.16176
-5.1599
-5.15685
-5.1519
-5.14621
-5.28963
-5.29001
-5.29062
-5.29151
-5.2927
-5.29356
-5.29347
-5.29311
-5.29261
-5.29203
-5.29137
-5.29063
-5.28977
-5.28872
-5.28748
-5.2858
-5.28305
-5.27849
-5.27334
-5.41546
-5.41581
-5.41644
-5.41763
-5.41978
-5.42139
-5.42071
-5.4198
-5.41893
-5.41806
-5.41718
-5.41628
-5.41535
-5.4144
-5.4133
-5.4119
-5.40967
-5.40569
-5.40115
-5.54097
-5.54121
-5.5418
-5.54354
-5.54798
-5.55108
-5.54887
-5.54698
-5.54556
-5.54431
-5.54312
-5.54197
-5.54088
-5.53986
-5.5389
-5.53791
-5.53651
-5.53359
-5.5302
-5.66664
-5.6667
-5.66719
-5.66919
-5.67565
-5.67691
-5.67367
-5.67166
-5.67035
-5.66926
-5.66824
-5.66728
-5.66636
-5.6655
-5.66478
-5.66422
-5.6636
-5.66224
-5.66008
)
;

boundaryField
{
    leftWall
    {
        type            calculated;
        value           nonuniform List<scalar> 
50
(
950.365
890.562
830.259
769.355
707.902
645.916
583.36
520.215
420.758
282.036
140.938
43.954
17.9982
14.0621
10.484
7.30447
4.2915
0.988828
-1.43249
-2.27652
-2.28755
-2.32465
-2.39355
-2.49106
-2.60742
-2.73212
-2.85912
-2.9819
-3.10147
-3.22111
-3.34176
-3.46309
-3.58467
-3.70641
-3.82838
-3.95053
-4.07281
-4.19515
-4.31751
-4.43991
-4.56235
-4.68488
-4.80754
-4.93032
-5.05324
-5.17627
-5.29948
-5.42308
-5.54658
-5.6678
)
;
    }
    rightWall
    {
        type            calculated;
        value           nonuniform List<scalar> 
50
(
524.941
470.034
415.687
362.227
309.657
258.061
207.344
157.138
97.7301
55.4228
43.4554
30.874
16.9066
3.72686
-1.01137
-1.21608
-1.38065
-1.51928
-1.6545
-1.79437
-1.94276
-2.09746
-2.25011
-2.38955
-2.52342
-2.65867
-2.79128
-2.91988
-3.04516
-3.16794
-3.28907
-3.40954
-3.52745
-3.64314
-3.76227
-3.88496
-4.00908
-4.13425
-4.26096
-4.38806
-4.5145
-4.64132
-4.76794
-4.8938
-5.0197
-5.14621
-5.27334
-5.40115
-5.5302
-5.66008
)
;
    }
    lowerWall
    {
        type            calculated;
        value           nonuniform List<scalar> 
62
(
979.794
984.79
991.475
998.34
1004.35
1009.37
1013.57
1016.98
1019.47
1020.83
1020.89
1019.53
1016.69
1012.33
1005.67
998.448
991.544
985.382
981.557
980.84
984.515
992.747
1003.87
974.799
918.83
861.256
800.848
737.019
668.418
591.536
498.967
195.883
169.918
170.562
155.945
444.045
384.115
323.285
261.6
199.358
137.632
82.2621
44.8114
473.241
483.445
496.324
505.54
504.207
498.253
492.805
483.267
470.461
470.293
479.014
489.893
499.496
506.51
515.272
525.332
536.251
545.132
552.4
)
;
    }
    atmosphere
    {
        type            calculated;
        value           nonuniform List<scalar> 
46
(
-5.73047
-5.7319
-5.7312
-5.7308
-5.73056
-5.73041
-5.73032
-5.73026
-5.73023
-5.73022
-5.73023
-5.73025
-5.73028
-5.73032
-5.73035
-5.73037
-5.73039
-5.73039
-5.73038
-5.73034
-5.73028
-5.7302
-5.7301
-5.73
-5.72993
-5.72984
-5.72974
-5.72957
-5.72935
-5.72919
-5.72909
-5.72904
-5.72904
-5.72904
-5.72904
-5.72904
-5.72905
-5.72905
-5.72907
-5.72908
-5.72908
-5.72912
-5.72923
-5.7291
-5.7291
-5.7291
)
;
    }
    defaultFaces
    {
        type            empty;
    }
}


// ************************************************************************* //
