/*--------------------------------*- C++ -*----------------------------------*\
| =========                 |                                                 |
| \\      /  F ield         | OpenFOAM: The Open Source CFD Toolbox           |
|  \\    /   O peration     | Version:  2.3.0                                 |
|   \\  /    A nd           | Web:      www.OpenFOAM.org                      |
|    \\/     M anipulation  |                                                 |
\*---------------------------------------------------------------------------*/
FoamFile
{
    version     2.0;
    format      ascii;
    class       volScalarField;
    location    "1.45";
    object      p_rgh;
}
// * * * * * * * * * * * * * * * * * * * * * * * * * * * * * * * * * * * * * //

dimensions      [1 -1 -2 0 0 0 0];

internalField   nonuniform List<scalar> 
2268
(
979.794
984.79
991.475
998.34
1004.35
1009.37
1013.57
1016.98
1019.47
1020.83
1020.89
1019.53
1016.69
1012.33
1005.67
998.448
991.544
985.382
981.557
980.84
984.515
992.747
1003.87
978.85
983.021
988.646
994.909
1000.81
1006.06
1010.65
1014.53
1017.49
1019.33
1019.89
1019.03
1016.65
1012.8
1006.17
999.735
993.322
987.868
983.092
981.861
985.742
995.057
1006.04
977.406
981.154
985.752
991.206
996.848
1002.27
1007.33
1011.82
1015.44
1017.94
1019.13
1018.87
1017.06
1013.71
1007.98
1002.18
996.324
989.613
984.071
982.783
986.608
996.152
1006.73
975.36
979.14
983.309
988.231
993.658
999.227
1004.75
1009.86
1014.17
1017.33
1019.13
1019.39
1018.01
1015.1
1011.2
1005.53
997.984
990.013
984.011
982.345
985.672
995.253
1006.33
972.766
976.678
980.8
985.56
990.984
996.802
1002.84
1008.63
1013.65
1017.49
1019.86
1020.55
1019.47
1016.66
1012.47
1006.3
998.132
988.308
980.652
979.985
982.8
992.3
1001.86
969.639
973.582
977.735
982.589
988.255
994.509
1001.23
1007.85
1013.69
1018.26
1021.21
1022.32
1021.45
1018.6
1014.01
1007.21
997.868
981.436
972.753
976.164
977.397
986.805
992.104
965.942
969.753
973.921
979.054
985.188
992.082
999.697
1007.33
1014.13
1019.52
1023.11
1024.64
1023.96
1021.03
1016.01
1008.45
994.543
968.204
968.318
973.234
968.94
976.684
974.077
961.654
965.135
969.401
975.022
981.825
989.521
998.167
1006.94
1014.78
1021.03
1025.26
1027.19
1026.67
1023.64
1018.21
1009.78
977.16
949.302
962.793
966.706
956.728
955.468
940.361
473.241
483.445
496.324
505.54
504.207
498.253
492.805
483.267
470.461
470.293
479.014
489.893
499.496
506.51
515.272
525.332
536.251
545.132
552.4
471.743
479.23
488.722
496.987
497.757
495.846
495.026
484.278
458.574
455.138
463.089
491.71
503.896
509.237
516.377
526.08
536.941
544.754
554.012
469.632
475.629
481.481
489.491
492.574
495.131
496.516
457.978
456.166
455.242
453.116
476.693
508.224
516.101
524.138
531.828
537.865
545.332
556.921
466.481
472.961
476.276
485.815
491.105
494.885
466.146
455.167
467.942
458.675
451.104
478.666
511.258
517.453
525.895
536.216
545.595
553.841
560.142
462.657
470.676
471.165
485.219
479.994
440.722
434.118
452.938
491.181
499.544
475.25
470.894
489.301
516.387
526.664
537.831
549.899
559.163
564.175
431.963
423.785
437.221
485.62
445.479
423.223
436.376
479.864
507.337
508.23
500.075
382.864
334.505
425.839
514.147
538.887
551.099
563.058
569.14
321.234
235.805
242.223
412.873
460.301
456.894
479.972
503.05
511.376
516.406
444.492
330.902
319.922
301.14
433.64
531.027
551.079
567.352
575.07
316.648
154.348
125.164
238.364
455.889
483.788
491.183
499.316
513.712
516.188
409.186
343.852
350.372
296.227
278.174
278.423
457.442
570.66
581.551
954.204
956.81
961.41
968.225
976.366
985.448
995.747
1006.29
1015.7
1023.18
1028.28
1030.71
1030.35
1027.17
1021.2
1003.7
954.649
942.42
934.414
953.381
934.005
904.133
826.771
940.566
940.905
946.367
956.928
967.967
978.92
991.86
1005.39
1017.26
1026.53
1032.84
1035.95
1035.79
1032.41
1025.84
990.664
948.328
933.708
929.135
937.656
897.834
869.328
834.756
885.106
867.616
888.97
933.476
960.678
971.651
987.722
1005.61
1020.52
1031.73
1039.26
1043.02
1043.05
1039.35
1031.89
1018.59
1002.05
983.71
948.949
916.612
849.855
744.867
670.725
370.487
304.645
363.251
565.868
721.65
769.737
907.18
1004.31
1029.53
1042.45
1050.72
1054.73
1055.01
1051.39
1043.03
1028.72
1009.6
983.418
925.048
752.619
487.686
298.021
195.625
43.5368
44.1132
45.893
166.156
207.338
169.033
268.109
545.067
774.674
908.081
976.015
1000.18
1001.24
986.315
918.961
800.074
676.907
462.227
197.494
71.7713
18.3983
2.66017
2.52318
42.6371
42.817
57.4501
50.2927
49.4872
50.2327
18.322
7.10724
54.7646
144.366
232.821
275.981
279.611
255.968
155.941
48.8464
48.2734
47.0315
46.326
20.9968
2.68511
1.87079
1.85548
42.1392
55.4463
84.0201
25.5242
23.3731
67.303
22.859
1.94074
1.19166
1.52336
2.45003
4.25207
6.85867
9.41379
13.9509
49.0487
63.8447
63.1768
40.2538
3.65102
1.97298
1.69843
1.56685
42.0447
84.7669
87.1484
21.5076
16.9237
69.6112
41.381
1.11551
0.883689
3.48305
26.224
35.5457
38.1464
36.975
33.4626
11.7898
17.9145
22.3973
26.6867
5.36573
1.73751
1.5939
1.55902
48.0534
84.9578
68.3879
12.3045
12.0999
3.44636
2.2729
0.646904
0.517642
4.01335
17.8658
8.40864
0.540347
-0.270762
-0.261684
-0.211378
-0.184834
-0.0601048
5.34587
7.58996
5.28825
3.87616
3.78826
76.2715
79.0432
34.6652
2.17064
0.260813
0.183324
0.13841
0.687953
0.330778
-0.0399611
-0.111357
-0.105212
-0.125569
-0.155571
-0.170064
-0.17447
-0.170313
-0.152035
1.29357
5.04775
5.35497
4.93207
1.68144
27.065
2.55287
-0.218067
0.857611
-0.0278991
0.0331604
0.0759191
0.254513
0.0179709
-0.0303607
-0.0658291
-0.0871004
-0.113483
-0.136315
-0.149679
-0.153586
-0.154723
-0.0971184
0.0791452
0.773806
1.82891
1.05108
0.189273
-0.364431
-0.330791
-0.227317
-0.200115
-0.100108
-0.0323872
-0.0131456
-0.00738014
-0.0127377
-0.0364925
-0.0614335
-0.0816851
-0.101358
-0.117303
-0.127387
-0.130443
-0.124508
-0.121922
-0.111033
-0.0839789
-0.0365223
0.0504302
0.137293
-0.250483
-0.282561
-0.257529
-0.204568
-0.122097
-0.0702321
-0.0457838
-0.0346585
-0.0344955
-0.0455631
-0.0604991
-0.0742038
-0.0870382
-0.0973907
-0.103434
-0.104318
-0.10104
-0.0938777
-0.0805835
-0.0531668
-0.00673222
0.0544061
0.118967
-0.162599
-0.20276
-0.203502
-0.176226
-0.126831
-0.0899929
-0.0669694
-0.0541161
-0.0497632
-0.052909
-0.0598044
-0.0673393
-0.0744914
-0.0797814
-0.0818109
-0.079782
-0.0735661
-0.063074
-0.0469381
-0.0210311
0.0160692
0.0612345
0.108126
-0.106327
-0.147943
-0.165746
-0.150675
-0.122915
-0.0977866
-0.0788377
-0.0661556
-0.0593491
-0.0576602
-0.0590548
-0.0615912
-0.0640129
-0.0650431
-0.0635986
-0.0589712
-0.0508069
-0.0387879
-0.0220543
0.000969412
0.0303949
0.0640209
0.0980285
-0.0788153
-0.114285
-0.134001
-0.129794
-0.114708
-0.0980603
-0.0833955
-0.0719853
-0.0642127
-0.0597645
-0.0575392
-0.056301
-0.0550078
-0.0526982
-0.0485754
-0.0420958
-0.032917
-0.0207375
-0.0050828
0.0145605
0.0378113
0.0630065
0.0878338
-0.0552851
-0.0968519
-0.112845
-0.112947
-0.105004
-0.0940228
-0.0829647
-0.0731958
-0.0653498
-0.0594318
-0.0548992
-0.0510153
-0.0470678
-0.0424077
-0.0365093
-0.028984
-0.0195648
-0.00802585
0.00586018
0.0221949
0.0404972
0.0594967
0.077773
-0.000814978
-0.0299936
-0.0981165
-0.0983487
-0.0949995
-0.0876326
-0.0793207
-0.0711352
-0.0636812
-0.0571191
-0.0512546
-0.0457161
-0.0400948
-0.0340073
-0.0271348
-0.0192267
-0.0100907
0.000425345
0.0124194
0.0258456
0.0402548
0.0546774
0.0682338
-0.00699472
0.0264414
-0.0260056
-0.0868794
-0.0850716
-0.0799973
-0.0736574
-0.0668331
-0.0599909
-0.0533398
-0.0468867
-0.0405124
-0.0340369
-0.0272687
-0.0200371
-0.0121958
-0.00362157
0.00577695
0.0160316
0.0270467
0.0384487
0.0494974
0.05965
-0.0590879
0.0387417
0.0370119
-0.0611388
-0.0752657
-0.071671
-0.0667711
-0.061091
-0.0549613
-0.0485926
-0.0420937
-0.0354984
-0.0287788
-0.0218703
-0.0146992
-0.00719428
0.000708253
0.00904992
0.0178223
0.0269203
0.036042
0.0446251
0.0523464
-0.0640265
0.023273
-0.00303772
-0.0508934
-0.0648117
-0.0630439
-0.0592548
-0.0545565
-0.0491817
-0.0433225
-0.0371328
-0.0307273
-0.0241701
-0.0174753
-0.0106298
-0.00361292
0.00359387
0.0109926
0.0185481
0.0261573
0.0335771
0.040381
0.0463884
-0.0585517
-0.0543745
-0.0566622
-0.0546216
-0.055498
-0.0545487
-0.0517002
-0.047827
-0.0431828
-0.0379307
-0.0322421
-0.0262678
-0.0201171
-0.0138479
-0.00748327
-0.00103462
0.00548574
0.0120533
0.0186157
0.0250738
0.0312292
0.0367559
0.0415583
-0.0540121
-0.0516597
-0.0501277
-0.0494946
-0.0486145
-0.0470943
-0.0447121
-0.0414685
-0.0374616
-0.0328205
-0.0277056
-0.022272
-0.0166435
-0.0109005
-0.00508968
0.000758934
0.00661709
0.0124457
0.0181838
0.023738
0.0289434
0.0335434
0.0374918
-0.0501527
-0.0474603
-0.045022
-0.0436018
-0.0424378
-0.0409158
-0.0387725
-0.0359377
-0.0324328
-0.0283388
-0.0237879
-0.0189181
-0.013848
-0.00866341
-0.00342137
0.00183737
0.00707531
0.0122468
0.0172893
0.0221167
0.0265892
0.0305015
0.0338359
-0.0465317
-0.043901
-0.0411526
-0.0392359
-0.0377203
-0.0360784
-0.034027
-0.0314505
-0.0283306
-0.0247051
-0.0206717
-0.0163407
-0.0118135
-0.0071706
-0.00247201
0.00223553
0.00690932
0.0115014
0.0159514
0.0201821
0.024074
0.0274619
0.0303461
-0.0430839
-0.0407146
-0.0380556
-0.0359342
-0.034182
-0.0324163
-0.0303937
-0.0279886
-0.0251805
-0.0219568
-0.0183851
-0.0145463
-0.0105203
-0.00637716
-0.00217535
0.00203562
0.00620967
0.0102978
0.0142427
0.0179752
0.0213934
0.0243639
0.026899
-0.0398514
-0.0377949
-0.0353914
-0.033276
-0.0314325
-0.0296127
-0.0276367
-0.0254064
-0.0228412
-0.0199631
-0.0167997
-0.0134009
-0.00982571
-0.00613217
-0.0023744
0.00139723
0.005134
0.00878563
0.0122969
0.0156055
0.0186234
0.0212435
0.0234866
-0.0368078
-0.0350394
-0.0329173
-0.0309266
-0.0291144
-0.0273259
-0.0254344
-0.0233581
-0.0210424
-0.0184786
-0.0156781
-0.0126708
-0.00949827
-0.0062071
-0.00284615
0.00053464
0.00388463
0.00715205
0.0102829
0.0132199
0.0158868
0.0181975
0.0201785
-0.0338937
-0.0323598
-0.0304803
-0.0286574
-0.0269506
-0.0252578
-0.0234905
-0.0215868
-0.0195057
-0.0172279
-0.0147526
-0.0120956
-0.00928521
-0.00635843
-0.00335886
-0.00033499
0.00266183
0.00557919
0.00836432
0.0109641
0.0133119
0.0153385
0.0170727
-0.03104
-0.0296789
-0.0279924
-0.0263322
-0.0247572
-0.0231917
-0.0215717
-0.0198509
-0.0179943
-0.0159795
-0.0137987
-0.0114588
-0.00897911
-0.00638915
-0.00372764
-0.00104062
0.00162166
0.00420786
0.0066674
0.00895106
0.0110005
0.0127593
0.0142559
-0.028211
-0.0269762
-0.0254286
-0.0239002
-0.0224516
-0.0210194
-0.0195526
-0.0180129
-0.016368
-0.0145946
-0.0126821
-0.0106324
-0.00845876
-0.00618542
-0.00384658
-0.00148473
0.000852911
0.00311809
0.00526368
0.00724469
0.00900995
0.0105128
0.0117791
-0.0254077
-0.0242673
-0.0228155
-0.0213842
-0.0200422
-0.0187337
-0.0174121
-0.0160415
-0.0145908
-0.0130372
-0.0113691
-0.00958577
-0.00769705
-0.00572305
-0.0036938
-0.00164733
0.000373826
0.00232614
0.00416716
0.00585652
0.0073497
0.00860782
0.00965284
-0.0226579
-0.0215933
-0.0202097
-0.0188492
-0.0175938
-0.016393
-0.0152017
-0.0139833
-0.0127074
-0.0113522
-0.00990596
-0.00836688
-0.00674257
-0.00505009
-0.0033154
-0.00157146
0.000144878
0.00179588
0.00334452
0.00475553
0.00599075
0.00701788
0.00785413
-0.0199977
-0.0190007
-0.0176719
-0.0163697
-0.0151887
-0.0140831
-0.0130076
-0.0119254
-0.0108065
-0.00963002
-0.00838484
-0.00706869
-0.00568783
-0.00425679
-0.00279755
-0.00133777
9.17581e-05
0.00145943
0.00273396
0.00388534
0.00488157
0.00569593
0.00634063
-0.0174557
-0.0165265
-0.0152508
-0.0140094
-0.0129023
-0.0118873
-0.0109196
-0.00996221
-0.00898632
-0.00797222
-0.00690944
-0.00579583
-0.00463675
-0.00344449
-0.00223718
-0.00103733
0.000130141
0.0012395
0.00226504
0.00318187
0.0039637
0.00458852
0.0050634
-0.015048
-0.0141928
-0.0129798
-0.0118139
-0.0107911
-0.00987138
-0.00901078
-0.00817314
-0.00733091
-0.00646601
-0.00556917
-0.00463869
-0.00367932
-0.00270125
-0.00171903
-0.000750459
0.000184802
0.00106632
0.00187347
0.00258603
0.00318277
0.00364546
0.00397626
-0.0127715
-0.0120081
-0.010881
-0.00981341
-0.00889119
-0.00807753
-0.00732895
-0.00661006
-0.00589531
-0.00516893
-0.00442345
-0.00365795
-0.00287665
-0.00208779
-0.00130269
-0.000535032
0.000200058
0.000886735
0.00150881
0.00205019
0.0024939
0.00282479
0.00304061
-0.0106059
-0.00997077
-0.00896327
-0.00802155
-0.00721897
-0.00652398
-0.0058934
-0.00529304
-0.0047005
-0.00410333
-0.00349633
-0.00287943
-0.00225628
-0.00163323
-0.0010187
-0.000422812
0.000143173
0.000667351
0.0011374
0.00154082
0.00186425
0.0020951
0.00222738
-0.00862575
-0.00812636
-0.00725036
-0.00644202
-0.00577263
-0.00520776
-0.00469886
-0.00421447
-0.00373786
-0.00326095
-0.00278091
-0.00229823
-0.0018157
-0.00133774
-0.000870121
-0.000419849
5.19388e-06
0.000396554
0.000745342
0.00104228
0.00127728
0.00143998
0.0015209
-0.00703131
-0.00676995
-0.00591673
-0.00509521
-0.00453755
-0.00411068
-0.00372214
-0.00334618
-0.00297654
-0.00261029
-0.00224626
-0.00188478
-0.00152734
-0.0011763
-0.00083491
-0.000507358
-0.000198501
8.636e-05
0.000341497
0.000560682
0.000736935
0.000862104
0.00092321
-0.00532809
-0.00679713
-0.00527696
-0.00398384
-0.00347913
-0.00318644
-0.00290656
-0.0026276
-0.00235649
-0.00209385
-0.00183859
-0.00158984
-0.00134721
-0.00111087
-0.000881567
-0.000660734
-0.000450291
-0.000252511
-7.00152e-05
9.40925e-05
0.000235837
0.000350406
0.000434375
-0.00135408
-0.00875743
-0.00463409
-0.00280308
-0.00233062
-0.00211664
-0.00193878
-0.00178422
-0.0016515
-0.00153629
-0.00143459
-0.00134309
-0.00125888
-0.00117931
-0.00110202
-0.00102493
-0.000946205
-0.000864275
-0.000777937
-0.000686554
-0.000590529
-0.000491153
-0.000386209
666.701
640.716
641.342
626.579
783.843
746.195
712.024
624.696
595.68
470.761
228.21
54.5565
118.631
78.297
58.7456
49.9051
4.20908
7.32096
34.9702
38.0246
1.88137
3.88082
9.16552
7.01226
1.36301
1.02684
1.00178
1.14571
1.48277
0.693645
0.738992
0.810971
1.16248
0.544957
0.591549
0.636854
0.41239
0.395635
0.438514
0.477623
0.248622
0.290978
0.329124
0.362635
0.194274
0.228608
0.258916
0.28512
0.162742
0.188492
0.210913
0.230275
0.140073
0.159266
0.176117
0.190548
0.121613
0.136348
0.149508
0.160651
0.105616
0.117268
0.127884
0.136785
0.0913975
0.100823
0.109631
0.116946
0.0787879
0.0865487
0.0940336
0.100205
0.067926
0.0744095
0.0808707
0.0861788
0.0589478
0.064423
0.0700299
0.0746248
0.0517736
0.0564324
0.0612827
0.065235
0.046054
0.0500429
0.0542164
0.0575804
0.0413259
0.0447703
0.0483587
0.0512078
0.037173
0.0401838
0.0432922
0.0457215
0.0333025
0.0359715
0.038703
0.0408124
0.0295422
0.0319326
0.0343699
0.0362467
0.0258487
0.0279944
0.0301879
0.0318894
0.0222705
0.0241828
0.026151
0.0276996
0.0188974
0.0205745
0.0223142
0.0237061
0.0158153
0.0172525
0.0187527
0.0199711
0.0130794
0.0142762
0.0155293
0.0165575
0.0107055
0.0116691
0.0126768
0.0135062
0.00867655
0.00942212
0.0101962
0.0108294
0.00695512
0.00750343
0.00806422
0.00851424
0.00549591
0.00587172
0.00624545
0.00653313
0.00425592
0.00448695
0.0047037
0.00485474
0.00319969
0.00331613
0.00340856
0.00345136
0.00230029
0.00233399
0.00233673
0.00230203
0.00154275
0.00152691
0.00147691
0.00139879
0.000918639
0.000883544
0.000820575
0.000741846
0.000486723
0.000485198
0.000452921
0.000398848
-0.000286636
-0.000241549
-0.000213337
-0.000197181
463.392
123.44
82.7474
119.212
232.744
355.952
311.071
315.188
356.658
395.2
394.842
394.712
382.239
315.821
171.884
174.784
182.726
326.906
436.385
152.347
60.9325
58.3974
67.0327
126.375
237.668
211.124
90.2899
70.2733
242.526
401.135
406.588
267.838
164.129
166.144
202.662
154.335
113.483
110.666
47.1289
44.185
47.6296
59.1325
80.0882
157.908
225.082
105.642
49.1459
95.7985
236.718
254.395
166.798
164.962
214.49
210.167
179.929
107.558
107.321
24.7114
20.1374
21.429
11.1086
10.8598
80.4358
173.254
80.859
43.5346
44.3606
101.271
215.14
223.46
220.755
217.421
213.242
208.636
105.313
104.94
7.33904
4.67627
5.89479
7.49412
8.39776
9.08966
31.7537
45.6768
41.9381
41.4748
45.8863
169.154
222.234
223.831
214.698
195.523
215.099
188.106
121.111
2.33284
2.85354
4.23545
6.08777
7.85211
32.9309
50.7308
51.5047
41.5519
41.0731
40.193
39.5049
118.842
165.305
36.8546
8.90304
44.6728
88.9089
86.1499
1.34136
1.77039
2.44313
5.31374
49.1085
63.5687
64.9011
66.4079
67.2612
50.6976
40.6575
44.6628
45.237
4.14774
2.38309
1.82294
3.16781
0.832463
3.43198
0.946021
1.12302
1.41858
3.26009
10.5353
38.1851
68.1256
68.0635
68.2498
68.4122
68.233
67.0785
42.4996
30.1708
8.30351
1.04912
0.73886
0.704836
0.355914
0.704874
0.749484
0.839152
1.98997
0.700612
0.13187
-0.137848
19.3347
46.0825
53.1578
40.7286
20.2966
3.14975
0.113058
6.77001
0.931593
0.309007
0.544617
0.327765
0.527076
0.533113
0.436422
0.247995
0.0682756
0.0163061
-0.017284
-0.136923
-0.338616
-0.343032
-0.215924
-0.0484879
0.077492
0.117453
0.109449
0.985095
0.284539
0.280421
0.2849
0.404444
0.411315
0.346275
0.21519
0.093287
0.0309917
-0.00517788
0.131643
0.514851
0.302009
0.013572
0.0534469
0.094212
0.125851
0.188319
0.40399
0.275125
0.284711
0.286688
0.321964
0.356966
0.314075
0.198728
0.115307
0.0560674
0.0108761
0.0427315
0.256029
0.0047116
0.0328643
0.109398
0.423202
0.530891
0.564181
0.336011
0.275751
0.285108
0.402119
0.267156
0.314097
0.280744
0.209832
0.145445
0.0727299
0.0313444
0.0106678
-0.0201369
-0.0164101
0.248814
0.539923
0.56191
0.576046
0.586364
0.588881
0.274376
0.442035
0.468572
0.215764
0.254506
0.248026
0.215416
0.172867
0.0829637
0.0481655
0.0226814
0.00830794
0.293876
0.570343
0.57734
0.583806
0.524511
0.336382
0.316658
0.449305
0.460713
0.46216
0.174944
0.184217
0.215226
0.200773
0.169486
0.125174
0.056894
0.0355751
0.225826
0.608687
0.602909
0.600723
0.280642
0.00398494
0.0152842
0.240056
0.403806
0.341142
0.304103
0.147656
0.148751
0.152957
0.186493
0.162783
0.138433
0.0812044
0.0380644
0.236819
0.63052
0.624567
0.141072
-0.00745529
-0.000168925
0.00498756
0.0074633
0.0101467
0.0148021
0.0244987
0.125481
0.125979
0.117287
0.119619
0.146063
0.134881
0.115439
0.0842253
0.0893221
0.179776
0.107245
-0.00945558
-0.00686963
-0.00292891
-0.000475677
0.000739744
0.00193999
0.00886294
0.237854
0.10704
0.107192
0.100317
0.0879635
0.0789249
0.096981
0.0985001
0.0625075
0.0113826
-0.00306367
-0.00808224
-0.00734972
-0.00571228
-0.00484686
-0.00466289
-0.00412453
-0.00399897
0.0229504
0.333227
0.0917595
0.0917004
0.086252
0.0765543
0.0640881
0.0506396
0.0401847
0.0270576
0.0149865
0.00350524
-0.00106572
-0.00114993
-0.00189947
-0.00390092
-0.00773659
-0.0088996
-0.00940109
0.103864
0.341337
0.0792299
0.0790575
0.0747118
0.0670502
0.0571322
0.0460539
0.0348228
0.0258821
0.0177609
0.00738363
0.00174332
0.00106407
-0.00129867
-0.00694645
-0.00968881
-0.0116437
-0.0128267
0.329318
0.35338
0.0690235
0.0687862
0.0652934
0.0591853
0.0512251
0.0422302
0.0329514
0.0250117
0.0186329
0.0110968
0.00357076
-0.000665321
-0.00424296
-0.00760155
-0.0103699
-0.0129119
-0.0150308
0.295772
0.368365
0.0606663
0.0603869
0.0575494
0.052633
0.0461771
0.0387962
0.0310662
0.0234615
0.0168581
0.0124744
0.00590178
0.000344405
-0.00352077
-0.00677302
-0.00966332
-0.0122316
-0.0141698
0.0129899
0.385467
0.0537075
0.0534032
0.0510797
0.0470853
0.0417964
0.0356818
0.0291915
0.0226962
0.0164874
0.0111387
0.00714737
0.00242739
-0.00198333
-0.00515016
-0.00774085
-0.00974561
-0.0105506
-0.0084092
0.402513
0.0477647
0.0474648
0.0455546
0.0422837
0.0379149
0.0328103
0.0273276
0.0217695
0.016382
0.0113674
0.00709285
0.00359374
3.19587e-05
-0.00301734
-0.00504211
-0.00614781
-0.00572329
-0.00229496
0.359694
0.0425271
0.0422651
0.0406985
0.0380094
0.0343824
0.0301002
0.0254514
0.0206882
0.0160229
0.0116338
0.00766327
0.00424926
0.00143927
-0.000728576
-0.00201292
-0.00205619
-0.000137811
0.00628006
0.130775
0.0377472
0.0375542
0.036283
0.0340738
0.031059
0.0274608
0.023515
0.0194356
0.0154109
0.0116054
0.00816293
0.00521127
0.0028854
0.00135625
0.000859724
0.00183143
0.0051396
0.115191
0.122
0.0332556
0.0331494
0.0321346
0.0303278
0.0278267
0.0248069
0.021463
0.0179794
0.0145259
0.0112584
0.00832268
0.00586329
0.00404339
0.00306808
0.00320981
0.00492185
0.00901048
0.171238
0.273216
0.0289686
0.0289468
0.0281495
0.0266794
0.0246118
0.0220858
0.0192637
0.0163055
0.0133651
0.0105905
0.00812781
0.00612926
0.00476965
0.00426595
0.00489596
0.007088
0.0115826
0.140406
0.324907
0.0248773
0.0249188
0.0242964
0.0231029
0.0213985
0.0192951
0.0169286
0.0144382
0.0119624
0.00963966
0.0076119
0.00603152
0.00507353
0.00495152
0.00593311
0.00841444
0.0131342
0.164476
0.335963
0.0210219
0.0210938
0.0206011
0.0196273
0.0182231
0.0164795
0.0145116
0.0124396
0.0103865
0.0084782
0.00684704
0.00563781
0.00501625
0.00518213
0.00638282
0.00896776
0.0135879
0.252189
0.345478
0.0174591
0.017526
0.0171192
0.0163127
0.0151511
0.0137111
0.0120905
0.0103925
0.00872374
0.0071949
0.0059234
0.00503931
0.00469115
0.00505571
0.00634688
0.00889834
0.0133722
0.283925
0.353452
0.0142366
0.0142678
0.0139082
0.0132224
0.0122518
0.0110643
0.00974427
0.00837891
0.00705804
0.00587488
0.00492818
0.00432769
0.00419642
0.00468779
0.00595168
0.00824821
0.0987653
0.303549
0.236222
0.0113787
0.0113528
0.0110091
0.0104037
0.00957813
0.00859659
0.00753471
0.00646388
0.00545627
0.00458643
0.00393298
0.00358118
0.00362896
0.00419483
0.0053564
0.0072358
0.106552
0.310174
0.167092
0.00888636
0.00879163
0.00843956
0.00787958
0.00715625
0.00633799
0.00549687
0.0046873
0.00396211
0.00337643
0.00298921
0.0028637
0.0030765
0.00370796
0.00480242
0.00645609
0.0186156
0.308385
0.131593
0.00674317
0.00657579
0.0061964
0.00564905
0.0049851
0.00428871
0.00363731
0.00306288
0.00259548
0.00227014
0.00212816
0.00221644
0.0025929
0.00332261
0.00444895
0.00613161
0.0165657
0.0919988
0.0682397
0.00492511
0.00468666
0.00426387
0.00369487
0.00304092
0.0024226
0.00193822
0.00158231
0.00135601
0.00127398
0.00136167
0.00164842
0.00218477
0.00303465
0.00427897
0.00610584
0.0121563
0.0148098
0.0215806
0.00340854
0.00310477
0.00262423
0.00199491
0.00128773
0.000696865
0.000368984
0.000226255
0.00023228
0.000379432
0.000674926
0.0011398
0.00182387
0.00280348
0.00417145
0.0122634
0.0145168
0.0146876
0.0208382
0.00217665
0.00182012
0.00127231
0.000540137
-0.000311046
-0.000945023
-0.00110635
-0.00102585
-0.000788199
-0.000424582
5.72772e-05
0.000671725
0.00147125
0.00269101
0.0145079
0.0236334
0.0246676
0.0147975
0.0195072
0.00122959
0.00084943
0.000240673
-0.000650844
-0.00184423
-0.00269608
-0.00261433
-0.00224693
-0.0017522
-0.00116975
-0.000510401
0.000233261
0.0010924
0.015912
0.0216821
0.02339
0.0261086
0.0139529
0.0175602
0.000591702
0.000246683
-0.000389143
-0.00157947
-0.00372752
-0.0053313
-0.00465169
-0.00374244
-0.0028739
-0.00200772
-0.00112477
-0.000222204
0.000703394
0.0116049
0.0215177
0.0229065
0.0191338
0.0109189
0.0149391
0.000274951
3.94202e-05
-0.000555263
-0.00229236
-0.00673276
-0.00982764
-0.0076182
-0.00572858
-0.00431197
-0.00306145
-0.00186869
-0.00069403
0.000483938
0.00183299
0.00942622
0.012624
0.0063482
0.00770131
0.0110855
-0.000195104
-0.000261837
-0.000745728
-0.00275187
-0.00920771
-0.0104623
-0.00722292
-0.00521856
-0.00390372
-0.002808
-0.00178872
-0.000804486
0.000129051
0.000985651
0.00174163
0.00241062
0.00290527
0.00425798
0.00641818
)
;

boundaryField
{
    leftWall
    {
        type            fixedFluxPressure;
        gradient        uniform 0;
        value           nonuniform List<scalar> 
50
(
979.794
978.85
977.406
975.36
972.766
969.639
965.942
961.654
954.204
940.566
885.106
370.487
43.5368
42.6371
42.1392
42.0447
48.0534
76.2715
27.065
-0.364431
-0.250483
-0.162599
-0.106327
-0.0788153
-0.0552851
-0.000814978
-0.00699472
-0.0590879
-0.0640265
-0.0585517
-0.0540121
-0.0501527
-0.0465317
-0.0430839
-0.0398514
-0.0368078
-0.0338937
-0.03104
-0.028211
-0.0254077
-0.0226579
-0.0199977
-0.0174557
-0.015048
-0.0127715
-0.0106059
-0.00862575
-0.00703131
-0.00532809
-0.00135408
)
;
    }
    rightWall
    {
        type            fixedFluxPressure;
        gradient        uniform 0;
        value           nonuniform List<scalar> 
50
(
552.4
554.012
556.921
560.142
564.175
569.14
575.07
581.551
436.385
110.666
107.321
104.94
121.111
86.1499
3.43198
0.355914
0.327765
0.2849
0.286688
0.402119
0.468572
0.46216
0.304103
0.0244987
0.237854
0.333227
0.341337
0.35338
0.368365
0.385467
0.402513
0.359694
0.130775
0.122
0.273216
0.324907
0.335963
0.345478
0.353452
0.236222
0.167092
0.131593
0.0682397
0.0215806
0.0208382
0.0195072
0.0175602
0.0149391
0.0110855
0.00641818
)
;
    }
    lowerWall
    {
        type            fixedFluxPressure;
        gradient        uniform 0;
        value           nonuniform List<scalar> 
62
(
979.794
984.79
991.475
998.34
1004.35
1009.37
1013.57
1016.98
1019.47
1020.83
1020.89
1019.53
1016.69
1012.33
1005.67
998.448
991.544
985.382
981.557
980.84
984.515
992.747
1003.87
1003.87
1006.04
1006.73
1006.33
1001.86
992.104
974.077
940.361
666.701
640.716
641.342
626.579
473.241
471.743
469.632
466.481
462.657
431.963
321.234
316.648
473.241
483.445
496.324
505.54
504.207
498.253
492.805
483.267
470.461
470.293
479.014
489.893
499.496
506.51
515.272
525.332
536.251
545.132
552.4
)
;
    }
    atmosphere
    {
        type            totalPressure;
        rho             rho;
        psi             none;
        gamma           1;
        p0              uniform 0;
        value           nonuniform List<scalar> 
46
(
-0.00142841
-0.00285513
-0.00215939
-0.00175625
-0.00152075
-0.00137133
-0.00127576
-0.00121853
-0.00118998
-0.00118323
-0.00119294
-0.00121451
-0.00124368
-0.00127619
-0.0013077
-0.00133381
-0.00135012
-0.00135249
-0.00133727
-0.00130155
-0.00124337
-0.00116194
-0.00105789
-0.000962346
-0.000888256
-0.000798783
-0.000697365
-0.000525714
-0.000313275
-0.000153794
-4.94791e-05
-2.03541e-07
0
0
0
0
0
0
0
0
0
0
0
0
0
0
)
;
    }
    defaultFaces
    {
        type            empty;
    }
}


// ************************************************************************* //
