/*--------------------------------*- C++ -*----------------------------------*\
| =========                 |                                                 |
| \\      /  F ield         | OpenFOAM: The Open Source CFD Toolbox           |
|  \\    /   O peration     | Version:  2.3.0                                 |
|   \\  /    A nd           | Web:      www.OpenFOAM.org                      |
|    \\/     M anipulation  |                                                 |
\*---------------------------------------------------------------------------*/
FoamFile
{
    version     2.0;
    format      ascii;
    class       volScalarField;
    location    "0.054";
    object      alpha.water;
}
// * * * * * * * * * * * * * * * * * * * * * * * * * * * * * * * * * * * * * //

dimensions      [0 0 0 0 0 0 0];

internalField   nonuniform List<scalar> 
725
(
1
1
1
0.999991
1.00001
1
1
1
0.999998
0.999982
1
1
1
1
0.999989
1
1
1
1.00003
0.998969
1
1
1
1.00005
0.992638
1
1
0.965496
0.38899
0.398364
0.999961
0.999961
0.99994
0.999872
0.999848
0.999847
0.999871
0.999909
0.99994
0.999969
1
1.00002
1.00003
1.00003
1.00003
1.00003
1.00002
1.00001
0.46036
0.00484674
0.00484538
0.0097819
0.511225
1
1.0001
1.00002
1.00002
1.00002
1.00002
1.00001
0.99999
0.99997
0.999941
0.999899
0.999838
0.999695
0.999578
0.999979
0.970985
0.208952
1
0.999995
0.952487
0.367148
0.34931
0.970512
0.999964
0.999924
0.999856
0.999911
0.999884
0.999864
0.999831
0.999804
0.99979
0.999793
0.999808
0.999842
0.999879
0.999962
1.00002
1.00001
1
0.453439
0.00484347
0.00484282
0.00483987
0.48859
1
1.00004
0.99991
0.999888
0.999867
0.999857
0.999858
0.999867
0.999875
0.999881
0.999878
0.999861
0.999802
0.999705
1
0.936489
0.126705
0.999996
0.999806
0.952149
0.263915
0.189311
0.808907
0.999965
0.999927
0.999828
0.99986
0.999958
0.999926
0.999906
0.999878
0.999848
0.999818
0.999796
0.999794
0.999808
0.99985
0.99998
1.00001
1
0.460811
0.00484102
0.00483978
0.00483936
0.418554
0.99898
0.999956
0.999935
0.999908
0.999871
0.999824
0.999781
0.999752
0.999737
0.999737
0.999741
0.999755
0.999746
0.999697
0.999999
0.927811
0.158917
0.925592
0.999273
0.650503
0.0756755
0.0756096
0.59475
0.999966
0.999931
0.999837
0.999824
0.999841
0.999974
0.999953
0.999932
0.999908
0.999879
0.999849
0.999827
0.999818
0.999822
0.999998
1.00002
0.998773
0.439746
0.00490812
0.00483922
0.00483961
0.400661
0.995764
0.999955
0.999998
0.999933
0.999895
0.999843
0.999779
0.999712
0.99965
0.999604
0.999568
0.999569
0.999576
0.999574
0.999998
0.899043
0.165401
0.281062
0.948934
0.366636
0.0756466
0.075703
0.223227
0.905721
0.999955
0.999957
0.999852
0.999851
0.999885
0.999918
0.999924
0.999912
0.999891
0.999866
0.999847
0.999841
0.999862
0.999927
1.00008
0.997163
0.466831
0.00636288
0.00484561
0.00484029
0.362267
0.979401
0.999953
0.999855
0.999943
0.999905
0.999862
0.999793
0.999707
0.999615
0.99953
0.999452
0.999416
0.999393
0.999393
0.999997
0.895221
0.163146
0.195613
0.934868
0.194214
0.0766445
0.0757816
0.345394
0.507144
0.994696
0.999982
0.999904
0.99987
0.999876
0.999903
0.999913
0.999907
0.99989
0.999868
0.99985
0.999843
0.999861
0.999905
1.00044
0.984943
0.454227
0.0076169
0.00858286
0.00505213
0.365155
0.969542
0.999926
0.999807
0.999836
0.999905
0.999864
0.999787
0.999688
0.999576
0.999468
0.999366
0.999339
0.999305
0.999321
0.999999
0.93354
0.157964
0.197536
0.90214
0.219343
0.0817839
0.0805346
0.375035
0.336035
0.95478
0.999991
0.999987
0.999893
0.999877
0.999892
0.999902
0.999899
0.999886
0.999868
0.999851
0.999844
0.999858
0.999893
1.00059
0.98518
0.457753
0.00870501
0.00866367
0.00635847
0.354742
0.960836
0.999862
0.999799
0.999855
0.999903
0.999862
0.999778
0.99967
0.99955
0.999428
0.99932
0.999273
0.999243
0.999266
1
0.946609
0.154775
0.150526
0.491282
0.4006
0.216268
0.0850178
0.310094
0.43774
0.944576
0.999953
0.999897
0.999893
0.99988
0.999888
0.999896
0.999894
0.999883
0.999867
0.999852
0.999845
0.999854
0.999911
1.00026
0.983004
0.454678
0.00827214
0.00524215
0.0058221
0.355084
0.956722
0.999834
0.999811
0.999821
0.999868
0.999844
0.999763
0.999654
0.999535
0.99941
0.9993
0.999231
0.9992
0.999229
1
0.95467
0.153758
0.140279
0.261687
0.4822
0.118022
0.0981631
0.16654
0.760204
0.981355
0.999955
0.999955
0.999901
0.999888
0.99989
0.999895
0.999893
0.999884
0.999869
0.999853
0.999846
0.99985
0.999946
1.00017
0.982903
0.463727
0.00702265
0.00522781
0.00522492
0.350113
0.948043
0.999849
0.999827
0.999819
0.999841
0.999819
0.999743
0.999639
0.999523
0.999403
0.999295
0.999212
0.999177
0.999213
1
0.952465
0.152091
0.149254
0.579196
0.493254
0.0409818
0.0506463
0.0618163
0.582339
0.963215
0.999947
0.99988
0.9999
0.999893
0.999896
0.9999
0.999899
0.99989
0.999874
0.999858
0.999848
0.99985
0.999974
1.00033
0.981264
0.460402
0.00664269
0.00522638
0.00522696
0.347691
0.94328
0.999865
0.999842
0.999829
0.99982
0.999791
0.99972
0.999622
0.999515
0.999406
0.999304
0.999218
0.999177
0.99922
1.00002
0.949856
0.150726
1
1
1
1.00007
0.996526
1
1
1
1.00006
0.999599
1
1
1
1.00002
0.99995
1
1
1
1.00001
1.00002
1
1
1
1.00001
1.00002
0.513052
0.756594
0.16895
0.040564
0.0402408
0.0924949
0.694005
0.999787
0.999936
0.99993
0.999913
0.999906
0.999917
0.999926
0.999925
0.999914
0.999896
0.999876
0.999861
0.999854
0.99998
1.00004
0.989645
0.475386
0.00774858
0.00522278
0.00522591
0.320066
0.941222
0.999919
0.999868
0.999841
0.999812
0.999761
0.999686
0.999596
0.999502
0.999413
0.999331
0.99927
0.999231
0.99925
0.999987
0.962289
0.178367
0.998473
0.982504
0.245453
0.0400744
0.0401077
0.0483206
0.58136
0.99905
0.99995
0.999941
0.999941
0.999961
0.99995
0.999941
0.999927
0.99991
0.999892
0.999876
0.999869
0.999866
0.999965
1
0.993807
0.449267
0.00607884
0.00521192
0.00521441
0.286363
0.934041
0.999964
0.999964
0.999838
0.999782
0.999716
0.999642
0.99957
0.999502
0.999451
0.999411
0.999374
0.999346
0.999378
0.999935
0.962749
0.168988
0.999988
0.924666
0.131156
0.0400348
0.0400762
0.0401224
0.482032
0.996593
0.999988
0.999958
0.999955
0.999953
0.999944
0.999931
0.999915
0.999898
0.999884
0.999875
0.999875
0.999872
0.999967
1.00001
1
0.480573
0.00673448
0.00519832
0.00520028
0.241191
0.89892
0.999924
0.99988
0.999758
0.999712
0.999663
0.999627
0.999608
0.999595
0.999594
0.999596
0.999546
0.999508
0.999512
0.999983
0.949725
0.146519
1
0.922123
0.135478
0.040072
0.0400743
0.0400762
0.544979
0.999096
0.999999
0.999967
0.999961
0.999953
0.999943
0.999931
0.99992
0.99991
0.999902
0.999897
0.9999
0.9999
0.999979
1
1
0.457048
0.00584857
0.00519652
0.00519661
0.257142
0.899625
0.999861
0.999836
0.999739
0.999729
0.999746
0.999768
0.999782
0.99978
0.999772
0.999747
0.999925
0.999802
0.999225
0.999982
0.929278
0.156619
1
0.890527
0.100013
0.0400725
0.0400725
0.0401061
0.538706
0.999085
1
1.00001
1.00001
1.00001
1.00001
1.00001
0.999997
0.999985
0.999979
0.999985
0.999995
1.00001
1.00007
1.00003
1
0.464748
0.00610195
0.00519603
0.00519766
0.208741
0.895537
0.999852
0.999849
0.999897
0.999913
0.999916
0.999902
0.999818
0.999725
0.999686
1.00041
0.999038
0.997955
0.997889
0.99998
0.897908
0.1763
)
;

boundaryField
{
    AirInlet
    {
        type            fixedValue;
        value           uniform 0;
    }
    WaterInlet
    {
        type            fixedValue;
        value           uniform 1;
    }
    ChannelWall
    {
        type            zeroGradient;
    }
    Outlet
    {
        type            inletOutlet;
        inletValue      uniform 0;
        value           nonuniform List<scalar> 
15
(
0
0
0.158917
0.165401
0.163146
0.157964
0.154775
0.153758
0.152091
0
0
0
0
0.156619
0.1763
)
;
    }
    FrontAndBack
    {
        type            empty;
    }
}


// ************************************************************************* //
