/*--------------------------------*- C++ -*----------------------------------*\
| =========                 |                                                 |
| \\      /  F ield         | OpenFOAM: The Open Source CFD Toolbox           |
|  \\    /   O peration     | Version:  2.3.0                                 |
|   \\  /    A nd           | Web:      www.OpenFOAM.org                      |
|    \\/     M anipulation  |                                                 |
\*---------------------------------------------------------------------------*/
FoamFile
{
    version     2.0;
    format      ascii;
    class       volScalarField;
    location    "0.054";
    object      p;
}
// * * * * * * * * * * * * * * * * * * * * * * * * * * * * * * * * * * * * * //

dimensions      [1 -1 -2 0 0 0 0];

internalField   nonuniform List<scalar> 
725
(
930.883
889.091
869.439
995.874
702.757
924.947
889.203
871.314
979.985
667.256
922.433
888.878
870.89
943.701
602.568
923.027
887.982
868.462
889.376
508.39
926.761
886.099
866.437
818.794
378.583
1532.47
890.822
838.606
99.7878
-135.006
115.581
-819.035
-180.905
-189.399
-97.9081
-61.4015
-33.5788
-26.048
-20.2428
-17.331
-16.3252
-17.3076
-19.5232
-22.8547
-27.8453
-35.576
-45.4429
-58.1822
-74.9663
-83.9702
-90.7883
-87.9964
180.949
136.069
22.0948
-12.8202
-32.3361
-43.4256
-50.1516
-54.4292
-57.8213
-59.2809
-65.722
-57.929
-85.8891
-42.8562
-105.535
1.85387
95.1288
132.351
1591.97
1004.8
1099.48
47.3021
-158.483
-184.968
-955.412
-189.509
-218.709
-96.0005
-59.7051
-33.1823
-24.7563
-19.2387
-17.0642
-16.8581
-17.8759
-19.952
-22.903
-27.3799
-34.7064
-45.1145
-62.1358
-79.2442
-83.0812
-94.4763
-84.4893
19.4255
65.2913
7.3631
-18.4108
-34.6772
-44.835
-51.2144
-55.2532
-58.4303
-59.8296
-65.8267
-58.5063
-85.7361
-46.0333
-121.109
-25.8477
-213.963
93.2647
1681.58
1115.27
1342.53
93.9602
310.965
-713.637
-1148.87
-200.645
-268.369
-85.0762
-54.6243
-30.3956
-23.122
-18.7101
-16.8708
-16.5858
-17.3739
-19.1132
-22.0456
-26.0099
-32.8671
-43.3134
-70.2943
-108.921
-79.4756
-100.009
-76.4259
-147.677
-24.3612
-13.7121
-26.4172
-38.1885
-46.4723
-51.8993
-55.5214
-58.5855
-59.9049
-65.6868
-58.8909
-86.3435
-50.7396
-141.769
-93.187
-533.873
42.6203
1683.43
1145.19
1316.11
589.082
801.853
-756.752
-1273.99
-327.797
-282.959
-58.0474
-44.4474
-24.8969
-19.4519
-16.9067
-16.0547
-16.3317
-17.2747
-18.8243
-21.1645
-24.3412
-30.0411
-38.1235
-67.0797
-128.835
-73.4198
-110.299
-67.5024
-168.041
-65.4491
-26.6019
-33.7124
-42.5155
-48.9909
-53.2917
-56.2002
-58.7993
-59.8664
-65.3655
-58.5761
-85.5581
-50.5875
-145.682
-106.338
-445.168
112.834
3049.35
217.233
1053.46
665.186
796.294
632.912
-1698.06
-710.937
-164.619
-40.4917
-28.903
-18.2776
-15.7277
-14.6591
-14.6885
-15.458
-16.6198
-18.1111
-20.2616
-22.6518
-27.2133
-32.7824
-47.2013
-75.1839
-64.2031
-118.17
-57.1242
-112.538
-35.2899
-31.3501
-42.3191
-47.4846
-51.7755
-54.7848
-56.9861
-59.2344
-59.9246
-64.8614
-57.8348
-82.0662
-45.3852
-135.475
-75.7513
-448.192
111.792
3589.79
521.799
6395.62
438.223
738.023
1721.67
-1783.18
-1449.47
-29.2041
-18.0506
-17.2631
-12.0044
-12.6867
-12.9153
-13.6779
-14.7992
-16.101
-17.5548
-19.5665
-21.4108
-25.3384
-32.6946
-48.3485
-19.6087
-52.0723
41.6988
-47.4523
6.62883
-33.2542
-41.3307
-48.2258
-50.5743
-53.7378
-55.781
-57.4928
-59.6353
-59.5471
-65.1725
-55.8836
-81.0989
-37.6894
-120.008
-16.3809
-304.818
80.3286
3654.18
1466.73
5707.55
193.987
647.624
2662.38
3946.63
-1403.37
18.0807
-5.55632
-12.9007
-9.84264
-11.4783
-12.213
-13.2766
-14.5602
-15.9073
-17.3468
-19.2908
-20.9732
-24.5151
-31.8097
-48.5628
-10.404
-46.9021
34.792
-42.4925
40.7933
-37.7159
-44.7362
-49.9362
-51.8369
-54.4735
-56.1834
-57.7266
-59.7651
-59.4547
-65.1305
-55.3123
-80.5248
-35.0821
-114.063
3.87221
-218.809
74.1671
3677.36
1606.38
4962.76
4351.11
676.064
827.747
529.657
-1060.14
47.1522
1.06657
-8.50563
-7.61383
-10.0425
-11.4568
-12.786
-14.2155
-15.6925
-17.1387
-18.9961
-20.476
-23.9308
-32.0423
-42.3334
0.950542
-43.3537
50.3106
-38.4969
64.7834
-39.7642
-48.1958
-52.1421
-53.2207
-55.2412
-56.6876
-57.9706
-59.8547
-59.4029
-64.9208
-54.8044
-79.6739
-32.8565
-107.485
22.1211
-150.546
58.7472
4086.48
9487.24
6660.31
953.826
1017.2
858.525
5903.71
-851.544
62.2871
10.0594
-4.11776
-5.34109
-8.75041
-10.65
-12.3143
-13.9519
-15.5129
-16.9407
-18.6975
-19.9301
-23.1352
-30.1351
-35.1586
7.92663
-40.0491
45.6235
-34.6634
83.7839
-34.7314
-51.6601
-53.8669
-54.4502
-55.9885
-57.1005
-58.1962
-59.9295
-59.3807
-64.6918
-54.4426
-78.2987
-30.848
-100.616
39.9549
-161.896
58.9863
3843.12
-869.295
6547.8
1095.17
907.324
1205.56
373.583
-543.444
62.8848
16.323
0.22097
-3.11862
-7.4255
-10.0846
-12.0298
-13.728
-15.3353
-16.75
-18.3947
-19.4304
-21.9454
-27.848
-26.3559
11.1668
-36.4245
41.0754
-31.0563
86.9302
-27.5265
-55.0011
-55.6511
-56.0804
-56.7213
-57.484
-58.4036
-59.9748
-59.4239
-64.479
-54.5766
-77.3898
-29.1858
-93.3194
59.07
-107.822
73.9129
2272.67
2235.97
2210.86
2325.2
2192.74
2268.99
2236.63
2207.92
2347.52
2125.72
2268.28
2236.24
2203.39
2340.8
2073.56
2270.59
2235.13
2199.61
2336.96
2021.01
2276.36
2234.3
2196.22
2334.74
1989.29
2110.83
-185.965
-536.598
1178.81
959.373
969.162
1405.1
144.688
40.889
31.8965
11.8754
2.73786
-3.9205
-8.12376
-10.9269
-13.0527
-14.823
-16.2415
-17.561
-18.0932
-19.1668
-20.0541
-16.0419
19.5068
-27.3592
29.7217
-21.0674
29.75
-26.3467
-65.0566
-61.013
-59.6836
-58.8188
-58.5152
-58.9591
-60.0184
-59.7474
-63.5381
-55.0683
-74.5828
-28.5858
-72.3167
110.478
163.875
94.1605
2280.02
1927.51
7.07395
1174.31
1034.47
983.432
550.076
285.944
137.145
63.3296
27.1605
10.7042
0.549171
-5.61581
-9.5625
-12.2518
-14.1783
-15.462
-16.2998
-15.7813
-14.964
-10.0305
3.51126
-11.1564
-16.4597
21.1648
-11.8496
-29.468
-69.0263
-79.8242
-68.9982
-65.27
-61.8086
-60.0246
-59.5447
-60.0804
-59.6138
-63.3846
-53.9867
-73.0289
-24.6302
-62.5518
98.5736
140.011
99.9849
2317.41
1771.09
736.214
1134.35
1058.7
1050.52
538.037
167.001
143.891
81.8558
38.997
17.2156
4.10205
-3.6922
-8.46753
-11.555
-13.5854
-14.7576
-15.1564
-13.6224
-11.0641
-2.13566
22.663
25.655
-10.4899
14.2154
-6.65954
-33.7619
-133.142
-102.611
-80.1003
-70.1759
-63.9019
-60.833
-60.0323
-60.551
-59.9791
-63.4051
-53.5798
-73.2132
-26.8313
-75.8885
55.5953
-96.2719
56.0023
2291.55
1323.85
964.601
1129.34
1076.77
1066.56
775.242
292.16
169.595
95.1699
46.8915
21.7364
6.58371
-2.33718
-7.75124
-11.1621
-13.2659
-14.2545
-14.2375
-11.9967
-8.05999
1.68315
16.0194
-8.60617
-6.57712
8.08752
-4.95576
2.32682
-105.103
-113.413
-87.3181
-73.7604
-65.7515
-62.2611
-60.7901
-60.7925
-59.8594
-62.9066
-53.4314
-71.7875
-30.8598
-102.219
-26.3636
-491.515
41.2153
2298.23
1196.95
1079.11
1118.22
1087.07
1060.23
937.71
379.043
187.653
102.305
50.8973
24.2735
8.08917
-1.36544
-7.10715
-10.6327
-12.7619
-13.582
-13.2422
-10.4351
-5.5763
3.82125
10.7055
-17.2441
-3.45363
6.97571
-1.07873
-53.7776
-228.536
-130.043
-91.8771
-75.6506
-65.9513
-62.0361
-60.4089
-60.8458
-60.0014
-63.7551
-49.9477
-76.0181
-25.7674
-111.454
-60.3193
-376.746
51.6446
)
;

boundaryField
{
    AirInlet
    {
        type            calculated;
        value           nonuniform List<scalar> 5(4924.43 1888.96 3454.93 10136.7 4616.41);
    }
    WaterInlet
    {
        type            calculated;
        value           nonuniform List<scalar> 10(930.885 924.953 922.443 923.041 926.779 2272.66 2268.97 2268.27 2270.59 2276.35);
    }
    ChannelWall
    {
        type            calculated;
        value           nonuniform List<scalar> 
110
(
926.735
886.069
866.403
818.756
378.541
2272.7
2236
2210.89
2325.24
2192.78
2276.33
2234.27
2196.19
2334.7
1989.25
2298.19
1196.91
1079.11
1118.22
1087.06
1060.22
937.686
378.999
187.609
102.261
50.8532
24.2293
8.04503
-1.40959
-7.1513
-10.6769
-12.806
-13.6261
-13.2864
-10.4792
-5.62045
3.7771
10.6613
-17.2647
-3.45394
6.97544
-1.079
-53.7869
-228.575
-130.087
-91.9212
-75.6948
-65.9954
-62.0802
-60.453
-60.8899
-60.0456
-63.7993
-49.9918
-76.0622
-25.8114
-111.498
-60.3634
-376.786
51.6368
930.91
889.122
869.473
995.913
702.799
1532.52
890.867
838.649
99.805
-134.989
115.626
-818.991
-180.86
-189.355
-97.864
-61.3573
-33.5346
-26.0039
-20.1987
-17.2869
-16.2811
-17.2634
-19.4791
-22.8105
-27.8011
-35.5319
-45.3987
-58.138
-74.946
-83.9699
-90.788
-87.9959
180.971
136.114
22.139
-12.776
-32.292
-43.3814
-50.1074
-54.385
-57.7772
-59.2368
-65.6779
-57.8849
-85.8449
-42.812
-105.491
1.89801
95.1716
132.361
)
;
    }
    Outlet
    {
        type            calculated;
        value           nonuniform List<scalar> 
15
(
-0.380545
-0.249908
-0.0352627
-0.0513692
-0.0651511
-0.0716629
-0.0732786
-0.0758334
-0.0780172
-0.107322
-1.14009
-0.728715
-0.407005
-0.133617
-0.165939
)
;
    }
    FrontAndBack
    {
        type            empty;
    }
}


// ************************************************************************* //
