/*--------------------------------*- C++ -*----------------------------------*\
| =========                 |                                                 |
| \\      /  F ield         | OpenFOAM: The Open Source CFD Toolbox           |
|  \\    /   O peration     | Version:  2.3.0                                 |
|   \\  /    A nd           | Web:      www.OpenFOAM.org                      |
|    \\/     M anipulation  |                                                 |
\*---------------------------------------------------------------------------*/
FoamFile
{
    version     2.0;
    format      ascii;
    class       volVectorField;
    location    "0.054";
    object      U;
}
// * * * * * * * * * * * * * * * * * * * * * * * * * * * * * * * * * * * * * //

dimensions      [0 1 -1 0 0 0 0];

internalField   nonuniform List<vector> 
725
(
(0.047835 0.00718752 -2.71647e-31)
(0.0499586 0.0020936 2.16318e-32)
(0.0210028 0.00210823 -1.059e-32)
(0.0526435 0.00821854 0)
(-0.115609 0.0133094 1.48801e-30)
(0.0929311 0.0148999 -1.20094e-30)
(0.103565 0.00903151 -2.7029e-32)
(0.06993 0.00928668 -2.99041e-31)
(0.108318 0.0307569 0)
(-0.099324 0.026847 1.17819e-29)
(0.106263 0.0107948 -2.7829e-31)
(0.120609 0.0132867 -1.61975e-31)
(0.0917796 0.0166666 -1.24834e-30)
(0.127545 0.0505324 0)
(-0.0921071 0.0472302 1.22127e-29)
(0.0939643 0.00417168 1.55695e-30)
(0.103655 0.014546 -4.9501e-31)
(0.0824782 0.0201322 -2.08869e-30)
(0.122986 0.0719535 0)
(-0.0388468 0.0199031 3.7196e-29)
(0.0485507 0.00220894 1.65171e-30)
(0.0510568 0.00943605 -7.09845e-31)
(0.0485378 0.0129198 -6.43035e-31)
(0.0821541 0.0427803 -8.02239e-30)
(0.243427 0.00197447 2.12071e-29)
(0.0457298 -0.0171375 0)
(0.0138757 0.0517453 0)
(-0.257875 -0.0542252 0)
(-0.038413 0.0424969 0)
(-0.396563 0.0174606 0)
(-0.55811 -0.0428561 0)
(-0.369365 0.0111215 0)
(-0.321413 -0.0353732 0)
(-0.126183 -0.016511 0)
(-0.0574564 -0.0107567 0)
(-0.00481098 -0.00430235 0)
(0.00364434 -0.00192972 0)
(0.0120801 -0.000826874 0)
(0.0135894 -0.000289811 0)
(0.0143322 -0.000212524 0)
(0.0150035 -0.000191941 0)
(0.0151716 -1.16912e-05 0)
(0.0142378 0.00019739 0)
(0.0123574 0.000284058 0)
(0.00976399 0.00055559 0)
(0.00467444 0.000802452 0)
(0.00138983 -0.000538575 0)
(0.00819899 -0.00260774 0)
(0.00842216 0.0120239 0)
(-0.0958414 -0.00129856 0)
(-0.142069 0.0626483 0)
(-0.311965 -0.0727671 0)
(-0.111619 -0.0557258 0)
(-0.0458727 -0.01202 0)
(-0.00128174 -0.0033197 0)
(0.0167134 -0.000985814 0)
(0.0221822 0.000390494 0)
(0.0212871 0.000574349 0)
(0.0190964 0.000451324 0)
(0.0175935 0.00023535 0)
(0.0156871 0.000271171 0)
(0.0172883 -2.55137e-05 0)
(0.0104923 0.00035107 0)
(0.0230657 -0.000100789 0)
(-0.00251171 0.000895487 0)
(0.0353911 0.00162477 0)
(-0.0329246 0.011161 0)
(-0.0259958 0.0174592 0)
(-0.221148 0.104342 0)
(-0.915457 0.073304 0)
(0.124092 -0.0968533 0)
(0.10428 0.196288 0)
(-0.410696 -0.00994963 0)
(-0.335588 0.119222 0)
(-0.25178 0.0941046 0)
(-0.514559 -0.0739687 0)
(-0.428324 0.0232579 0)
(-0.443534 -0.170554 0)
(-0.140476 -0.0879331 0)
(-0.0581257 -0.0494362 0)
(0.0214155 -0.0218179 0)
(0.0309781 -0.00702516 0)
(0.0401076 -0.00269553 0)
(0.0414102 -0.000647679 0)
(0.0417215 -0.000327306 0)
(0.0417482 -0.000238172 0)
(0.0410767 0.000383402 0)
(0.0391886 0.0012966 0)
(0.0358713 0.00181094 0)
(0.0316656 0.00295728 0)
(0.0235638 0.0034802 0)
(0.0202134 -0.00125879 0)
(0.0335227 -0.00200094 0)
(0.0289651 0.0497205 0)
(-0.129911 -0.0167157 0)
(0.0617562 0.147522 0)
(0.118088 -0.0207078 0)
(-0.0517018 -0.0740694 0)
(-0.0491448 -0.0340722 0)
(-0.00958407 -0.0205529 0)
(0.0279345 -0.0109609 0)
(0.0436069 -0.00219449 0)
(0.04587 0.000861292 0)
(0.0442906 0.00127629 0)
(0.0430279 0.000873114 0)
(0.0405535 0.000740958 0)
(0.0436283 0.000422286 0)
(0.0329488 0.000435733 0)
(0.0537211 0.000674981 0)
(0.0133844 0.000522095 0)
(0.0803555 0.00461089 0)
(-0.023949 0.0214534 0)
(0.111091 0.0542027 0)
(-0.164091 0.387449 0)
(-0.749568 0.0548671 0)
(0.227194 -0.172327 0)
(0.0917115 0.385392 0)
(-0.453209 0.0428245 0)
(-0.308723 -0.0138424 0)
(0.346179 0.19184 0)
(-0.0838731 -0.0226579 0)
(-0.150744 0.144311 0)
(-0.409046 -0.279021 0)
(-0.0782681 -0.160607 0)
(-0.0269473 -0.0878607 0)
(0.046985 -0.0404243 0)
(0.0554322 -0.0126375 0)
(0.0619444 -0.00385461 0)
(0.0625307 -0.000973396 0)
(0.0626454 -0.000342345 0)
(0.0624325 3.27523e-05 0)
(0.0613332 0.00106061 0)
(0.0594763 0.00246903 0)
(0.0560655 0.00357949 0)
(0.0516384 0.00547211 0)
(0.0425122 0.00609092 0)
(0.0390927 -0.00523745 0)
(0.0383509 -0.00676424 0)
(0.0186898 0.125142 0)
(-0.151109 -0.0850242 0)
(0.096244 0.115044 0)
(0.339361 -0.0985912 0)
(0.0498749 0.0339957 0)
(-0.00507845 -0.0310457 0)
(0.00104125 -0.0356289 0)
(0.0427704 -0.0243115 0)
(0.0617018 -0.0071848 0)
(0.0650972 0.000255947 0)
(0.0638984 0.0017975 0)
(0.0630395 0.00140756 0)
(0.0605886 0.00118495 0)
(0.0642926 0.000655084 0)
(0.0528155 0.000730332 0)
(0.0761737 0.000429811 0)
(0.0329584 0.000426947 0)
(0.110321 0.0024237 0)
(0.00568687 0.0113752 0)
(0.253519 0.0387884 0)
(0.132455 0.463852 0)
(1.05283 0.260641 0)
(0.553511 -0.295921 0)
(-0.0778487 0.720314 0)
(-1.11344 0.0743572 0)
(-0.0684218 -0.0452319 0)
(0.547493 -0.143769 0)
(0.37452 0.185533 0)
(0.17671 0.356989 0)
(-0.32648 -0.294627 0)
(0.0222212 -0.223318 0)
(0.0222992 -0.11609 0)
(0.0719181 -0.0527831 0)
(0.0743736 -0.016531 0)
(0.077397 -0.00425272 0)
(0.0775708 -0.00105071 0)
(0.0772685 -0.000242279 0)
(0.0766796 0.000407647 0)
(0.0756477 0.0017387 0)
(0.0743761 0.0034637 0)
(0.0712606 0.00550784 0)
(0.0670386 0.00844185 0)
(0.0546066 0.0105488 0)
(0.0439104 -0.000746958 0)
(-0.00487865 0.00962843 0)
(-0.0373975 0.161375 0)
(0.261405 -0.220223 0)
(0.117679 0.0710563 0)
(0.454667 -0.233794 0)
(0.15463 0.210807 0)
(0.0424746 -0.015387 0)
(0.0170314 -0.0449138 0)
(0.0565039 -0.037282 0)
(0.0752894 -0.0125812 0)
(0.0783203 -0.000435345 0)
(0.0771424 0.0021492 0)
(0.0770454 0.0017085 0)
(0.0753503 0.00151115 0)
(0.07974 0.000830425 0)
(0.0684465 0.000989999 0)
(0.0921428 9.1791e-05 0)
(0.0488141 -0.000220587 0)
(0.127055 -0.00148201 0)
(0.0208062 -0.00654359 0)
(0.269035 -0.00902449 0)
(0.139515 0.0712489 0)
(1.40954 -0.0160436 0)
(0.210242 -0.482652 0)
(-0.824578 1.28237 0)
(-1.74943 -0.414745 0)
(1.89743 -0.0480355 0)
(-0.789207 -0.0783827 0)
(0.773684 -0.265406 0)
(-0.0592065 0.507714 0)
(-0.333281 -0.319644 0)
(0.10278 -0.290448 0)
(0.078423 -0.123723 0)
(0.0924061 -0.0547243 0)
(0.0867275 -0.0174833 0)
(0.0865396 -0.00391774 0)
(0.0861241 -0.000773395 0)
(0.0856931 8.79575e-05 0)
(0.0852528 0.00075823 0)
(0.0847029 0.0021531 0)
(0.0842291 0.00418063 0)
(0.081846 0.00736927 0)
(0.0790246 0.0115681 0)
(0.066658 0.0172702 0)
(0.0518556 0.0175793 0)
(-0.0189595 0.0435585 0)
(-0.0639336 0.0919008 0)
(0.396404 -0.486717 0)
(0.065939 0.642561 0)
(-0.454871 -0.455573 0)
(0.284157 0.266677 0)
(0.144282 0.0470416 0)
(0.0436889 -0.044192 0)
(0.0685666 -0.0474631 0)
(0.0842958 -0.0173834 0)
(0.086117 -0.000874659 0)
(0.0845185 0.0024714 0)
(0.0848485 0.00163329 0)
(0.0839792 0.00148812 0)
(0.0894054 0.000239616 0)
(0.0790861 0.001861 0)
(0.102282 -0.00164923 0)
(0.0589495 0.00154362 0)
(0.13436 -0.00685667 0)
(0.0244417 -0.018027 0)
(0.26655 -0.0503201 0)
(0.151674 -0.281407 0)
(1.28931 -0.202764 0)
(-0.84081 -0.164036 0)
(-0.78459 1.59561 0)
(2.40466 -1.31866 0)
(7.18919 -0.254718 0)
(6.18165 0.206657 0)
(0.431062 -0.0890803 0)
(-0.834701 0.83436 0)
(0.218875 -0.447441 0)
(0.125778 -0.333767 0)
(0.115102 -0.118739 0)
(0.100275 -0.0518987 0)
(0.0892934 -0.0164439 0)
(0.0879692 -0.00365223 0)
(0.0876312 -0.000731343 0)
(0.0876008 0.000127625 0)
(0.0875186 0.000817656 0)
(0.0872631 0.00221518 0)
(0.0872496 0.00442657 0)
(0.0854775 0.00799211 0)
(0.0839828 0.013316 0)
(0.073297 0.0213841 0)
(0.0545457 0.0265986 0)
(0.0538056 0.054645 0)
(0.0499777 0.0673729 0)
(-0.140163 -0.53072 0)
(-0.198665 0.718988 0)
(-0.0856942 -0.589651 0)
(0.292745 0.170295 0)
(0.14501 0.0907587 0)
(0.0512125 -0.0318691 0)
(0.0732236 -0.0511717 0)
(0.0864761 -0.0194723 0)
(0.0875564 -0.00076053 0)
(0.0859415 0.00264163 0)
(0.0866429 0.00155824 0)
(0.0859769 0.00097827 0)
(0.0920183 0.000252584 0)
(0.0818864 0.00120704 0)
(0.10531 -0.00106429 0)
(0.0610145 0.00112326 0)
(0.132911 -0.0066235 0)
(0.0159495 -0.0268207 0)
(0.232441 -0.0767856 0)
(0.0951777 -0.426924 0)
(1.04859 -0.246768 0)
(-1.63261 0.0115827 0)
(-0.524294 1.55444 0)
(2.25858 -1.77106 0)
(6.24008 -0.218389 0)
(7.33367 0.369472 0)
(0.997457 0.324131 0)
(-1.55777 0.939545 0)
(0.53904 -0.547297 0)
(0.166698 -0.320182 0)
(0.125242 -0.114426 0)
(0.102721 -0.050385 0)
(0.090024 -0.0158221 0)
(0.0882906 -0.00353174 0)
(0.0879568 -0.000711561 0)
(0.0880592 0.000132244 0)
(0.0881157 0.000833998 0)
(0.0879574 0.00222731 0)
(0.0880734 0.00450488 0)
(0.08651 0.00815067 0)
(0.0855311 0.0138932 0)
(0.0755284 0.0227388 0)
(0.0582088 0.0278781 0)
(0.0790329 0.0519776 0)
(0.0909943 0.0744386 0)
(-0.16051 -0.496408 0)
(-0.0661571 0.699984 0)
(0.172566 -0.577197 0)
(0.21964 0.153357 0)
(0.103567 0.100828 0)
(0.0521212 -0.0292054 0)
(0.0749599 -0.0528207 0)
(0.0870369 -0.020183 0)
(0.0878519 -0.000718019 0)
(0.0863857 0.00268452 0)
(0.08719 0.00153826 0)
(0.0865295 0.000738923 0)
(0.0927348 0.000364913 0)
(0.0827217 0.000750168 0)
(0.106199 -0.000438612 0)
(0.0616136 0.000583336 0)
(0.132089 -0.00551569 0)
(0.0123375 -0.0293836 0)
(0.208122 -0.0813619 0)
(0.0264421 -0.463259 0)
(0.744158 -0.275166 0)
(-3.42408 0.211412 0)
(-0.546899 1.30648 0)
(0.961008 -2.1955 0)
(2.47084 -0.440447 0)
(5.30798 0.391245 0)
(1.708 0.754344 0)
(0.130581 0.964205 0)
(1.32004 -0.588648 0)
(0.225908 -0.278403 0)
(0.132159 -0.107362 0)
(0.104619 -0.0485489 0)
(0.0904203 -0.0150986 0)
(0.0882954 -0.0034227 0)
(0.0879598 -0.000716437 0)
(0.0881735 0.000108798 0)
(0.0883659 0.000826453 0)
(0.0883037 0.00222 0)
(0.0885495 0.00456234 0)
(0.0872377 0.00825901 0)
(0.086898 0.0144034 0)
(0.0779292 0.0239031 0)
(0.067082 0.0280979 0)
(0.0851131 0.0481136 0)
(0.0877341 0.0810425 0)
(-0.0839547 -0.469548 0)
(0.053256 0.690392 0)
(0.255556 -0.564061 0)
(0.195948 0.154954 0)
(0.0861847 0.107435 0)
(0.0539707 -0.0278788 0)
(0.0767526 -0.0544847 0)
(0.0875211 -0.0208101 0)
(0.0879159 -0.000671532 0)
(0.0866973 0.00271113 0)
(0.0875987 0.00152078 0)
(0.0869157 0.000480782 0)
(0.093215 0.000490398 0)
(0.0833851 0.000217775 0)
(0.106893 0.000306839 0)
(0.0621312 -3.2853e-05 0)
(0.131053 -0.00395413 0)
(0.00852248 -0.0310254 0)
(0.181435 -0.0827919 0)
(-0.01518 -0.489471 0)
(0.579932 -0.322773 0)
(-3.91045 0.331721 0)
(-0.961773 0.926616 0)
(0.225219 -2.18539 0)
(0.913689 -0.473493 0)
(3.761 0.204315 0)
(3.15015 0.980029 0)
(2.29047 0.980015 0)
(1.67477 -0.48338 0)
(0.264791 -0.216589 0)
(0.137104 -0.0982931 0)
(0.106001 -0.0464439 0)
(0.0906862 -0.0142686 0)
(0.088228 -0.00326498 0)
(0.0878664 -0.00070605 0)
(0.0880955 8.91611e-05 0)
(0.0883211 0.000819366 0)
(0.0883314 0.00220728 0)
(0.0887418 0.00460115 0)
(0.0877246 0.00831927 0)
(0.0881157 0.0148228 0)
(0.0803681 0.0247697 0)
(0.0750509 0.027724 0)
(0.0899019 0.046034 0)
(0.0834419 0.0832264 0)
(-0.0412321 -0.458527 0)
(0.180568 0.619855 0)
(0.524983 -0.556885 0)
(0.203264 0.165983 0)
(0.0732089 0.114057 0)
(0.0570177 -0.0276872 0)
(0.0788034 -0.0560403 0)
(0.0877907 -0.0213288 0)
(0.0877171 -0.000623786 0)
(0.086779 0.00271839 0)
(0.087789 0.00150005 0)
(0.0870848 0.000222273 0)
(0.0933553 0.000603642 0)
(0.083653 -0.000331125 0)
(0.107167 0.00104467 0)
(0.0624869 -0.000584031 0)
(0.129839 -0.00218423 0)
(0.00489941 -0.0314294 0)
(0.158203 -0.0813458 0)
(-0.0481039 -0.513838 0)
(0.398153 -0.384622 0)
(-1.84164 0.670673 0)
(-0.834118 0.728616 0)
(-0.0448862 -2.35923 0)
(-0.343705 -0.508197 0)
(2.5435 0.0814144 0)
(2.77683 1.05735 0)
(2.58089 1.1335 0)
(1.13868 -0.372099 0)
(0.246709 -0.164155 0)
(0.141079 -0.0896325 0)
(0.106752 -0.0440912 0)
(0.0906305 -0.0134067 0)
(0.0878727 -0.00311279 0)
(0.087465 -0.000704112 0)
(0.0876375 6.28509e-05 0)
(0.0878775 0.000804228 0)
(0.0879845 0.00218245 0)
(0.0885803 0.00461597 0)
(0.0879048 0.00833839 0)
(0.0891083 0.0151452 0)
(0.0825336 0.0253786 0)
(0.0793143 0.027393 0)
(0.0929663 0.044997 0)
(0.0897116 0.0854974 0)
(-0.108073 -0.440576 0)
(0.182397 0.54641 0)
(0.636581 -0.532871 0)
(0.160676 0.1879 0)
(0.0456219 0.11955 0)
(0.0647279 -0.0289485 0)
(0.0812743 -0.0574142 0)
(0.0879058 -0.0217272 0)
(0.087339 -0.000573193 0)
(0.0866344 0.00270903 0)
(0.087768 0.00147167 0)
(0.0870707 -1.72757e-05 0)
(0.0931738 0.000687622 0)
(0.0834051 -0.00081426 0)
(0.106675 0.00166425 0)
(0.0623521 -0.000957894 0)
(0.12842 -0.000412681 0)
(0.00172266 -0.0302938 0)
(0.132619 -0.07577 0)
(-0.162846 -0.505738 0)
(-0.421783 -0.300358 0)
(0.0469206 -0.00164914 0)
(0.0499305 -0.00835411 -1.44471e-31)
(0.018897 -0.00501839 2.78089e-31)
(0.0822893 -0.0247721 3.17847e-30)
(0.000826249 0.0405736 0)
(0.0908189 -0.00314226 0)
(0.105707 -0.0124723 0)
(0.0572998 -0.00869436 0)
(0.125384 -0.0138396 1.15367e-30)
(-0.133611 0.0689171 0)
(0.102725 -0.00978638 0)
(0.125305 -0.0112004 0)
(0.0799377 -0.00501619 0)
(0.15395 0.0124405 -9.78568e-31)
(-0.050515 0.0652094 0)
(0.0903194 -0.0142526 0)
(0.108912 -0.00733591 0)
(0.0679791 -0.00137428 0)
(0.149741 0.00862137 2.3023e-31)
(-0.000807195 0.0462343 0)
(0.0471593 -0.0070659 0)
(0.053806 -0.00155064 0)
(0.0240751 0.000434241 0)
(0.0964082 0.00415481 1.70782e-31)
(-0.0135391 0.00814952 0)
(-0.0847035 0.723395 0)
(-0.00141132 0.798498 0)
(0.915851 -2.23427 0)
(-1.70234 -0.835443 0)
(-0.257411 0.0956268 0)
(-3.01336 0.865748 0)
(0.0181348 0.420149 0)
(0.248887 -0.299228 0)
(0.21272 -0.108062 0)
(0.14251 -0.0715535 0)
(0.1066 -0.0364532 0)
(0.0896714 -0.0108088 0)
(0.086276 -0.00249686 0)
(0.0857805 -0.000600026 0)
(0.0857667 3.05352e-05 0)
(0.0859671 0.000759458 0)
(0.0862854 0.00208159 0)
(0.0873623 0.00454802 0)
(0.0876574 0.00828609 0)
(0.0911062 0.0157181 0)
(0.0867029 0.0266941 0)
(0.0906201 0.0293248 0)
(0.0692077 0.0449723 0)
(0.0680478 0.091465 0)
(0.00594128 -0.346716 0)
(0.213172 0.32894 0)
(0.568572 -0.396105 0)
(0.0840768 0.234514 0)
(0.037471 0.131517 0)
(0.10311 -0.0375715 0)
(0.0893615 -0.0599474 0)
(0.0874991 -0.0223817 0)
(0.0855965 -0.000536342 0)
(0.0855073 0.00261228 0)
(0.0869962 0.00132627 0)
(0.0863858 -0.000552021 0)
(0.0918396 0.00059279 0)
(0.0818146 -0.0014519 0)
(0.104247 0.00240861 0)
(0.0610359 -0.000376118 0)
(0.124048 0.00388249 0)
(-0.00604151 -0.0199644 0)
(0.0635441 -0.0434594 0)
(-0.329809 -0.304567 0)
(-1.52567 -0.184088 0)
(0.161325 0.596743 0)
(0.539659 0.321804 0)
(1.362 -1.06406 0)
(-0.189955 -0.679419 0)
(-0.576953 0.694477 0)
(-1.41177 1.38367 0)
(0.728932 -0.320553 0)
(0.409377 -0.291438 0)
(0.206535 -0.0880658 0)
(0.127224 -0.0472944 0)
(0.0943829 -0.0229495 0)
(0.080007 -0.007183 0)
(0.0773437 -0.0017229 0)
(0.0771302 -0.000492497 0)
(0.0771745 -3.56088e-05 0)
(0.0774889 0.000571778 0)
(0.0781659 0.00167284 0)
(0.0799503 0.00380798 0)
(0.081651 0.00734782 0)
(0.0882845 0.0141993 0)
(0.0884424 0.0261578 0)
(0.104194 0.0340795 0)
(0.0823231 0.0447839 0)
(0.115538 0.0109351 0)
(0.162371 -0.307711 0)
(0.0929297 0.0501373 0)
(0.0668609 -0.257698 0)
(0.11911 0.260006 0)
(0.132272 0.131201 0)
(0.161722 -0.0411799 0)
(0.104947 -0.0527246 0)
(0.0826929 -0.0177881 0)
(0.0773248 0.000132512 0)
(0.0776463 0.00212491 0)
(0.0795438 0.0007755 0)
(0.0784953 -0.000687996 0)
(0.0826022 -2.01464e-07 0)
(0.0714118 -0.000411048 0)
(0.0936279 0.000857549 0)
(0.0506848 0.00410194 0)
(0.114012 0.00796081 0)
(-0.0171606 0.00831455 0)
(0.0221655 0.0181547 0)
(-0.334799 0.0598932 0)
(-1.24312 0.0151555 0)
(0.21715 0.443169 0)
(0.514866 -0.0579747 0)
(0.736132 -1.27742 0)
(-0.824201 -0.408749 0)
(-0.84914 0.903265 0)
(0.47453 0.801847 0)
(0.387046 -0.327889 0)
(0.203357 -0.134328 0)
(0.157106 -0.0469135 0)
(0.0986234 -0.0281659 0)
(0.0758219 -0.0133459 0)
(0.0649441 -0.00462198 0)
(0.0632498 -0.00136759 0)
(0.0632834 -0.000552834 0)
(0.0634186 -0.000168135 0)
(0.0637439 0.000307759 0)
(0.0644489 0.00111221 0)
(0.066498 0.0027261 0)
(0.0691916 0.00547094 0)
(0.0783451 0.0110007 0)
(0.0839743 0.0219661 0)
(0.112232 0.0315042 0)
(0.102105 0.0433516 0)
(0.136153 -0.00768925 0)
(0.0262106 -0.174825 0)
(-0.0312614 0.0267879 0)
(-0.492645 -0.0997419 0)
(-0.22948 0.108962 0)
(0.0825501 0.0705567 0)
(0.159985 -0.0328033 0)
(0.0996529 -0.0328868 0)
(0.068094 -0.00803506 0)
(0.0626508 0.0016052 0)
(0.0633441 0.00161971 0)
(0.0646067 0.00056756 0)
(0.0628372 -0.000367139 0)
(0.0661482 0.000307267 0)
(0.0551146 7.23851e-05 0)
(0.0769429 0.000521889 0)
(0.0349587 0.00574033 0)
(0.105409 0.0120193 0)
(-0.0119833 0.030825 0)
(0.100275 0.0816285 0)
(-0.228487 0.378434 0)
(-0.940518 0.0666864 0)
(0.43135 0.248924 0)
(0.663971 -0.138232 0)
(0.656795 -0.55961 0)
(-0.895283 -0.138254 0)
(-0.785788 0.524365 0)
(0.719263 0.300118 0)
(0.302461 -0.187733 0)
(0.157072 -0.0781992 0)
(0.114483 -0.0249513 0)
(0.0675505 -0.0141402 0)
(0.054193 -0.0065449 0)
(0.0455642 -0.00283703 0)
(0.0440469 -0.00114861 0)
(0.0436028 -0.000612325 0)
(0.0434088 -0.000269559 0)
(0.0435615 6.54153e-05 0)
(0.0442072 0.000534794 0)
(0.0463088 0.00143356 0)
(0.0494626 0.00289494 0)
(0.059593 0.00623837 0)
(0.0695235 0.0132975 0)
(0.109691 0.0216955 0)
(0.127789 0.0342988 0)
(0.174733 0.0119508 0)
(0.121047 -0.132187 0)
(-0.0774157 0.0244047 0)
(0.171631 0.0402345 0)
(-0.0100731 0.0172667 0)
(0.134001 -0.025848 0)
(0.115831 -0.0308944 0)
(0.0569711 -0.00972935 0)
(0.0397389 0.00124961 0)
(0.0390543 0.00249163 0)
(0.0408161 0.00132648 0)
(0.0420852 0.000614337 0)
(0.0408075 9.28483e-05 0)
(0.0438626 0.000522093 0)
(0.0347487 0.000527152 0)
(0.0542665 0.000396353 0)
(0.0170005 0.00463642 0)
(0.093444 0.0105522 0)
(-0.00313204 0.027752 0)
(0.216689 0.0789184 0)
(0.0798292 0.506405 0)
(0.69311 0.223103 0)
(0.346407 0.0615675 0)
(0.368487 -0.0991351 0)
(-0.272714 -0.115171 0)
(-0.771942 -0.0401649 0)
(-0.524041 0.127823 0)
(0.575013 0.109773 0)
(0.235443 -0.0710187 0)
(0.125323 -0.026946 0)
(0.0775674 -0.00755479 0)
(0.0416191 -0.00412772 0)
(0.0315851 -0.00223149 0)
(0.0230465 -0.0012047 0)
(0.0201852 -0.000651874 0)
(0.0184914 -0.000374271 0)
(0.0175658 -0.000196611 0)
(0.0172218 -7.86027e-05 0)
(0.0173735 2.35824e-05 0)
(0.0184801 0.000203753 0)
(0.0202773 0.000341852 0)
(0.0262475 0.00104231 0)
(0.033553 0.0019646 0)
(0.0624378 0.0047076 0)
(0.0932267 0.0138147 0)
(0.142626 0.00205523 0)
(0.122068 0.0380867 0)
(-0.0315378 0.00203079 0)
(-0.0993086 -0.0485543 0)
(0.0772334 0.0466118 0)
(0.0905978 -0.0149349 0)
(0.0261538 -0.00622703 0)
(0.00182539 0.00148614 0)
(0.00510957 0.00177107 0)
(0.00937167 0.00108056 0)
(0.0125907 0.000511908 0)
(0.0142004 0.000269441 0)
(0.0140651 7.90473e-05 0)
(0.0166973 0.000374641 0)
(0.0122175 6.14637e-05 0)
(0.0255411 0.000615372 0)
(0.00263 0.000572847 0)
(0.057561 0.00479602 0)
(0.00895251 0.00876029 0)
(0.200976 0.0315985 0)
(0.22408 0.245411 0)
(1.36011 0.12796 0)
)
;

boundaryField
{
    AirInlet
    {
        type            fixedValue;
        value           uniform (0.1 0 0);
    }
    WaterInlet
    {
        type            fixedValue;
        value           uniform (0.1 0 0);
    }
    ChannelWall
    {
        type            fixedValue;
        value           uniform (0 0 0);
    }
    Outlet
    {
        type            pressureInletOutletVelocity;
        value           nonuniform List<vector> 
15
(
(-0.872343 0 0)
(-0.706796 0 0)
(1.05283 0.260641 0)
(1.40954 -0.0160436 0)
(1.28931 -0.202764 0)
(1.04859 -0.246768 0)
(0.744158 -0.275166 0)
(0.579932 -0.322773 0)
(0.398153 -0.384622 0)
(-0.460114 -0 0)
(-1.50951 -0 0)
(-1.20657 0 0)
(-0.901402 0 0)
(0.69311 0.223103 0)
(1.36011 0.12796 0)
)
;
    }
    FrontAndBack
    {
        type            empty;
    }
}


// ************************************************************************* //
