/*--------------------------------*- C++ -*----------------------------------*\
| =========                 |                                                 |
| \\      /  F ield         | OpenFOAM: The Open Source CFD Toolbox           |
|  \\    /   O peration     | Version:  2.3.0                                 |
|   \\  /    A nd           | Web:      www.OpenFOAM.org                      |
|    \\/     M anipulation  |                                                 |
\*---------------------------------------------------------------------------*/
FoamFile
{
    version     2.0;
    format      ascii;
    class       volScalarField;
    location    "2.3";
    object      p;
}
// * * * * * * * * * * * * * * * * * * * * * * * * * * * * * * * * * * * * * //

dimensions      [1 -1 -2 0 0 0 0];

internalField   nonuniform List<scalar> 
2268
(
699.528
698.88
703.717
711.23
731.143
751.974
765.634
776.895
785.991
796.47
810.957
825.778
838.112
845.064
847.839
849.194
850.92
851.858
849.178
842.443
837.657
837.379
838.5
641.064
639.61
646.276
653.966
672.902
694.214
707.495
718.348
726
735.153
749.482
766.408
779.491
787.47
790.701
790.856
791.436
793.002
790.817
783.521
777.553
776.358
778.346
584.328
584.467
590.768
597.646
613.619
634.953
648.611
659.003
665.152
673.69
689.613
707.786
721.478
730.046
733.34
733.094
733.294
734.744
732.813
724.574
716.941
714.451
717.373
525.74
523.081
529.612
541.444
556.476
574.419
589.289
599.424
604.239
612.165
630.117
649.814
663.692
672.128
675.473
675.705
676.121
677.027
674.997
665.937
656.64
652.261
655.642
462.528
453.91
461.391
482.915
503.954
513.408
530.116
540.191
543.501
550.209
570.729
592.174
605.652
613.482
617.09
618.562
619.631
619.873
617.558
608.554
595.988
588.767
592.499
395.398
382.719
391.12
424.419
453.295
457.221
471.379
481.523
483.346
488.484
512.358
535.104
547.46
554.272
558.48
561.685
563.628
563.647
561.174
552.271
535.389
523.748
527.031
328.082
315.236
324.007
365.352
398.371
403.644
413.208
423.732
425.738
432.311
458.223
479.736
490.129
495.249
499.986
505.101
508.167
508.984
506.001
495.987
476.111
458.68
463.282
262.425
251.644
262.426
301.072
335.039
347.67
354.88
367.024
371.75
383.294
410.761
427.568
435.317
438
442.086
448.458
452.794
454.929
452.797
441.283
418.11
397.939
401.401
736.274
724.092
717.153
708.987
699.616
710.301
724.352
693.346
646.462
607.078
581.068
561.87
543.388
526.455
505.838
491.465
480.753
475.492
483.222
679.197
665.079
658.122
645.142
632.746
644.381
659.498
629.14
583.671
545.857
520.798
503.472
488.972
472.445
451.344
437.734
427.295
418.668
425.625
628.243
614.707
597.704
574.813
563.408
576.297
591.347
562.935
519.341
483.082
460.104
444.349
432.557
415.998
396.676
384.311
374.938
364.898
367.316
581.056
564.61
536.175
505.343
493.323
506.604
524.047
498.788
456.894
421.555
399.308
384.238
374.646
360.574
344.078
330.462
319.782
311.47
310.507
530.044
511.024
474.361
438.95
426.45
440.487
460.891
438.516
397.256
362.662
339.971
324.649
316.088
305.638
289.539
273.099
261.882
255.675
252.851
475.02
456.181
417.143
382.478
373.732
387.796
403.862
382.506
340.275
305.636
282.248
267.017
258.194
248.902
232.721
214.632
201.78
196.181
192.623
418.07
403.25
367.698
339.656
334.934
347.13
353.179
329.325
287.053
250.76
225.618
209.139
200.097
190.632
174.744
154.033
140.098
133.839
129.777
362.005
352.816
322.665
300.027
299.402
310.108
303.806
278.165
236.976
198.965
170.054
150.685
140.505
130.497
114.276
93.4654
78.1069
72.0372
67.6859
168.341
170.06
177.416
199.09
228.88
252.307
265.673
280.167
293.987
314.716
337.101
349.594
354.147
351.639
352.968
359.749
366.193
370.766
370.753
356.595
329.597
309.814
305.95
49.371
57.2042
65.1311
73.3263
91.9645
119.63
144.427
163.818
194.409
218.928
232.035
243.657
239.777
230.448
230.943
243.404
252.486
252.733
244.908
228.796
206.737
191.448
183.957
5.88752
7.76019
8.77337
11.7076
18.8094
32.1881
45.8751
60.4905
83.6527
93.154
85.4989
76.5317
95.4089
106.854
115.52
127.324
135.77
128.618
113.847
95.3038
89.2326
85.1952
72.1747
1.92697
1.57492
1.16464
1.07114
1.47516
3.33688
8.05975
14.5983
17.7136
12.7693
7.13237
5.73059
12.9279
29.8328
48.1145
59.9755
53.226
29.9705
14.4566
12.3274
16.6423
19.8526
14.0037
1.11299
0.871495
0.63093
0.450095
0.255494
-0.0910788
-0.620745
-1.1892
-1.36044
-0.790277
0.024803
0.495826
0.333717
0.281103
16.9431
29.8883
12.8504
1.29954
0.970732
0.985747
0.969098
1.14136
2.47903
0.563781
0.383819
0.241968
0.0315051
-0.24512
-0.610176
-0.958755
-1.08899
-0.92535
-0.591251
-0.259689
-0.118582
-0.0844069
-0.00426209
0.00136034
-0.000853443
-0.141251
0.221248
0.454642
0.566142
0.684627
0.709564
0.53167
0.149204
-0.0186633
-0.108572
-0.316419
-0.601975
-0.910029
-1.15217
-1.21294
-1.04432
-0.769387
-0.537945
-0.390902
-0.306223
-0.251349
-0.209659
-0.201282
-0.16157
-0.0767092
-0.0636143
0.0933729
0.407112
0.498466
0.379678
-0.3098
-0.421485
-0.508506
-0.727351
-1.01283
-1.2968
-1.49887
-1.52892
-1.37867
-1.14067
-0.941202
-0.80201
-0.674192
-0.526784
-0.317052
-0.185059
-0.186481
-0.271191
-0.414328
-0.36792
0.0113694
0.248324
0.225212
-0.729638
-0.799711
-0.93297
-1.15697
-1.43257
-1.68766
-1.85533
-1.89514
-1.78443
-1.56403
-1.33569
-1.1792
-1.05719
-0.933437
-0.670679
-0.370871
-0.274342
-0.355607
-0.543688
-0.647452
-0.417581
-0.129055
-0.117086
-1.0346
-1.13394
-1.31259
-1.52296
-1.76928
-1.98268
-2.14021
-2.20974
-2.16165
-1.98475
-1.74342
-1.52478
-1.36751
-1.26966
-1.1776
-0.856075
-0.528614
-0.535088
-0.67203
-0.763603
-0.704682
-0.493543
-0.395557
-1.25767
-1.42411
-1.59694
-1.80738
-2.03944
-2.24308
-2.4208
-2.53157
-2.51922
-2.36033
-2.09104
-1.8089
-1.58577
-1.45246
-1.43494
-1.33338
-1.02457
-0.855433
-0.851596
-0.903327
-0.920202
-0.793951
-0.694943
-1.39264
-1.61902
-1.78142
-2.02848
-2.27073
-2.49257
-2.70685
-2.86409
-2.88372
-2.72391
-2.40009
-2.04038
-1.76047
-1.6003
-1.54666
-1.52129
-1.40297
-1.17508
-1.06794
-1.08261
-1.09231
-1.05671
-1.0636
-1.39652
-1.71762
-1.89093
-2.18903
-2.45206
-2.69542
-2.92884
-3.10567
-3.14041
-2.98753
-2.64004
-2.23573
-1.92123
-1.74402
-1.66382
-1.6217
-1.56757
-1.43432
-1.29153
-1.29288
-1.31939
-1.42247
-1.54543
-1.31147
-1.6832
-1.94888
-2.28129
-2.56459
-2.81901
-3.05104
-3.22163
-3.25983
-3.11369
-2.76968
-2.36579
-2.0596
-1.8891
-1.79661
-1.73976
-1.67431
-1.59577
-1.51773
-1.6599
-1.76681
-1.91823
-2.07017
-1.27653
-1.54445
-1.89924
-2.27749
-2.59224
-2.85418
-3.07196
-3.21993
-3.24327
-3.08809
-2.76195
-2.40764
-2.15731
-2.01661
-1.94244
-1.89356
-1.84836
-1.75445
-1.70224
-2.0195
-2.25009
-2.42787
-2.48612
-1.38777
-1.49538
-1.7798
-2.14494
-2.48575
-2.76294
-2.96756
-3.07996
-3.06232
-2.89156
-2.6187
-2.3678
-2.20726
-2.12282
-2.08442
-2.05324
-2.01082
-1.91068
-1.93779
-2.3304
-2.58798
-2.74015
-2.69165
-1.54462
-1.58429
-1.68748
-1.92314
-2.22607
-2.49209
-2.67112
-2.74197
-2.69889
-2.56365
-2.40328
-2.28772
-2.23306
-2.22574
-2.23599
-2.23705
-2.18649
-2.04046
-2.18453
-2.56134
-2.71188
-2.79754
-2.74779
-1.6789
-1.68691
-1.69665
-1.80887
-2.00626
-2.20046
-2.3329
-2.38155
-2.35846
-2.29713
-2.25056
-2.24036
-2.28863
-2.35044
-2.39728
-2.41123
-2.39322
-2.27995
-2.44416
-2.68146
-2.71687
-2.74108
-2.7091
-1.78349
-1.82434
-1.82756
-1.90347
-2.02235
-2.13929
-2.22284
-2.25907
-2.25937
-2.2348
-2.24577
-2.29908
-2.40701
-2.48212
-2.53202
-2.55801
-2.57537
-2.602
-2.65976
-2.68971
-2.70411
-2.67051
-2.6574
-1.88601
-1.97811
-2.04521
-2.10679
-2.16986
-2.24481
-2.29821
-2.31682
-2.31549
-2.33856
-2.40132
-2.47624
-2.53782
-2.58686
-2.64326
-2.68188
-2.71562
-2.77518
-2.79571
-2.67326
-2.62994
-2.62036
-2.64208
-2.01429
-2.14693
-2.24644
-2.29092
-2.29311
-2.37397
-2.45132
-2.50045
-2.53074
-2.57163
-2.59484
-2.62638
-2.65842
-2.70102
-2.74763
-2.77677
-2.80567
-2.86492
-2.87385
-2.84131
-2.75104
-2.69332
-2.6932
-2.30655
-2.46377
-2.52446
-2.50246
-2.55508
-2.64315
-2.72846
-2.76455
-2.78225
-2.78342
-2.77471
-2.76941
-2.78428
-2.81878
-2.85222
-2.86905
-2.88754
-2.93563
-2.95603
-2.94051
-2.89599
-2.84389
-2.82198
-2.71594
-2.87518
-2.85564
-2.78069
-2.93194
-3.02802
-3.05045
-3.03619
-2.99644
-2.96166
-2.93181
-2.9127
-2.9185
-2.94105
-2.96147
-2.97527
-2.99308
-3.03153
-3.05429
-3.04648
-3.02593
-2.99805
-2.98189
-3.1298
-3.29485
-3.18453
-3.03563
-3.17455
-3.22553
-3.22901
-3.21464
-3.18284
-3.14399
-3.10558
-3.07868
-3.07146
-3.07763
-3.08817
-3.10165
-3.12316
-3.1575
-3.18103
-3.18142
-3.16911
-3.15147
-3.13773
-3.43512
-3.59363
-3.40051
-3.25472
-3.32329
-3.33918
-3.3604
-3.37986
-3.37976
-3.36149
-3.32844
-3.29316
-3.26508
-3.24878
-3.24531
-3.25479
-3.27816
-3.30857
-3.32878
-3.33015
-3.31914
-3.30507
-3.29214
-3.5577
-3.63567
-3.51893
-3.43679
-3.45652
-3.47369
-3.52136
-3.57688
-3.61525
-3.62042
-3.59226
-3.54239
-3.49044
-3.45059
-3.43319
-3.43808
-3.46036
-3.48658
-3.50038
-3.49531
-3.47794
-3.45933
-3.44387
-3.58737
-3.59492
-3.60164
-3.58772
-3.59533
-3.62958
-3.70575
-3.79721
-3.86857
-3.88347
-3.84673
-3.78221
-3.71394
-3.65956
-3.6339
-3.6373
-3.66054
-3.68385
-3.68913
-3.67271
-3.64216
-3.61327
-3.59247
-3.66587
-3.66278
-3.72742
-3.72462
-3.72852
-3.79066
-3.88864
-4.00658
-4.09636
-4.11029
-4.06405
-3.98797
-3.9125
-3.85365
-3.82572
-3.83096
-3.85733
-3.87938
-3.87706
-3.8485
-3.80396
-3.76468
-3.73869
-3.80222
-3.84295
-3.87977
-3.86272
-3.85606
-3.94736
-4.05074
-4.17578
-4.26877
-4.28323
-4.2347
-4.1529
-4.07369
-4.01661
-3.98955
-3.99676
-4.02557
-4.04719
-4.04086
-4.00557
-3.95374
-3.91045
-3.88209
-3.94956
-4.02552
-3.99999
-3.986
-3.97523
-4.08915
-4.181
-4.29792
-4.38349
-4.4011
-4.35944
-4.27698
-4.19951
-4.14572
-4.12008
-4.12706
-4.15414
-4.17405
-4.16824
-4.13708
-4.08594
-4.04749
-4.02154
-4.10278
-4.17414
-4.0935
-4.1109
-4.10368
-4.2031
-4.29128
-4.38325
-4.45943
-4.48259
-4.44774
-4.36847
-4.29427
-4.24618
-4.22381
-4.22942
-4.25214
-4.2694
-4.26658
-4.24339
-4.20798
-4.17768
-4.15744
-4.25337
-4.27694
-4.22247
-4.26098
-4.25291
-4.3133
-4.38532
-4.45381
-4.5148
-4.53966
-4.50863
-4.43514
-4.36963
-4.3326
-4.31739
-4.32241
-4.33978
-4.35392
-4.35443
-4.34166
-4.32193
-4.30391
-4.29161
-4.40453
-4.3736
-4.36428
-4.42485
-4.40662
-4.42496
-4.45556
-4.48755
-4.52703
-4.55711
-4.54725
-4.4929
-4.44386
-4.42262
-4.41787
-4.4243
-4.4376
-4.44902
-4.45249
-4.44781
-4.43966
-4.43187
-4.4266
-4.54613
-4.47133
-4.48133
-4.54529
-4.54332
-4.52977
-4.49184
-4.45991
-4.48292
-4.56727
-4.61087
-4.58264
-4.54418
-4.53369
-4.53698
-4.54389
-4.55414
-4.56313
-4.56795
-4.56824
-4.56629
-4.56421
-4.56298
-4.71215
-4.66063
-4.64216
-4.66017
-4.67305
-4.63275
-4.54273
-4.45626
-4.5082
-4.6942
-4.77178
-4.73846
-4.68637
-4.673
-4.67569
-4.67962
-4.68587
-4.69199
-4.69645
-4.6987
-4.69953
-4.69979
-4.70022
-4.89735
-4.9035
-4.83761
-4.81862
-4.80189
-4.74552
-4.66776
-4.6404
-4.72874
-4.93074
-4.98448
-4.90989
-4.84967
-4.83106
-4.8255
-4.82378
-4.82566
-4.82889
-4.832
-4.83419
-4.83564
-4.83671
-4.83781
-5.03031
-5.04661
-5.01182
-4.95874
-4.91689
-4.87412
-4.81485
-4.89261
-5.00028
-5.13492
-5.13624
-5.05738
-5.00715
-4.98539
-4.97427
-4.96895
-4.96777
-4.96864
-4.97023
-4.97176
-4.97305
-4.97423
-4.97548
-5.15551
-5.15438
-5.15936
-5.07571
-5.01463
-4.98315
-4.99897
-5.09177
-5.21513
-5.27533
-5.23594
-5.18617
-5.15155
-5.13112
-5.11883
-5.1122
-5.10941
-5.10874
-5.10918
-5.10999
-5.11092
-5.11193
-5.11309
-5.2992
-5.30041
-5.30007
-5.28015
-5.17765
-5.15969
-5.20121
-5.30142
-5.379
-5.37332
-5.34204
-5.31021
-5.28658
-5.27015
-5.25921
-5.25285
-5.24963
-5.24827
-5.24801
-5.24829
-5.24885
-5.2496
-5.25053
-5.44979
-5.47313
-5.46243
-5.46162
-5.41656
-5.37421
-5.4081
-5.4988
-5.49227
-5.47555
-5.4507
-5.4325
-5.41659
-5.40453
-5.39613
-5.39104
-5.38821
-5.38681
-5.38631
-5.38632
-5.38661
-5.3871
-5.38776
-5.58374
-5.61541
-5.59934
-5.61004
-5.62254
-5.6606
-5.57951
-5.61384
-5.59194
-5.57678
-5.56165
-5.55168
-5.54271
-5.53557
-5.53049
-5.52733
-5.52548
-5.52451
-5.52411
-5.52404
-5.52418
-5.52443
-5.52482
-5.7142
-5.71599
-5.71096
-5.73705
-5.73164
-5.96086
-5.74688
-5.71681
-5.68933
-5.68047
-5.67561
-5.67075
-5.66755
-5.66514
-5.6636
-5.66266
-5.66215
-5.6619
-5.66179
-5.66176
-5.66178
-5.66183
-5.66194
296.356
288.932
280.968
274.517
176.292
169.821
164.19
161.227
58.1711
48.6718
43.199
42.8333
6.24023
2.71897
1.76688
1.64372
1.94401
1.06826
1.09725
1.06903
0.351826
0.463896
0.571293
0.599409
0.218638
0.143484
0.0718972
0.0744373
0.0602661
-0.064356
-0.155938
-0.186469
-0.192541
-0.241188
-0.277228
-0.297434
-0.43937
-0.463175
-0.462487
-0.451895
-0.74029
-0.756201
-0.772112
-0.775013
-1.13036
-1.18491
-1.23714
-1.27515
-1.61193
-1.66739
-1.71404
-1.73904
-2.08929
-2.08288
-2.0836
-2.08752
-2.40313
-2.37427
-2.35826
-2.36297
-2.62117
-2.5922
-2.57394
-2.58143
-2.70905
-2.69748
-2.69925
-2.72347
-2.71157
-2.72872
-2.7617
-2.81119
-2.69678
-2.73988
-2.79841
-2.86935
-2.70074
-2.7525
-2.81642
-2.88883
-2.73453
-2.77414
-2.82092
-2.87163
-2.83223
-2.84602
-2.86429
-2.8864
-2.97937
-2.97988
-2.98073
-2.98369
-3.13246
-3.13036
-3.12842
-3.12711
-3.28586
-3.28274
-3.28002
-3.27804
-3.43651
-3.43286
-3.42978
-3.42766
-3.58349
-3.57937
-3.57632
-3.57453
-3.72822
-3.72364
-3.72054
-3.71899
-3.87099
-3.86611
-3.86299
-3.86161
-4.01128
-4.00684
-4.00423
-4.00324
-4.1497
-4.14655
-4.14491
-4.14452
-4.28739
-4.28576
-4.28515
-4.28537
-4.42505
-4.42468
-4.42489
-4.42552
-4.56297
-4.56325
-4.56383
-4.56486
-4.70098
-4.70165
-4.70253
-4.70365
-4.8389
-4.83972
-4.84068
-4.84181
-4.97663
-4.97745
-4.97838
-4.97942
-5.11412
-5.11486
-5.11567
-5.11657
-5.25137
-5.25197
-5.25262
-5.25334
-5.38837
-5.38881
-5.38928
-5.38981
-5.52519
-5.52546
-5.52575
-5.52607
-5.66207
-5.66215
-5.66226
-5.66237
272.477
269.848
251.787
239.01
241.709
245.393
222.898
198.115
159.02
118.908
85.3794
64.5772
55.384
49.4585
40.755
30.1983
21.8249
18.2755
18.0102
160.421
156.373
144.691
139.371
145.594
142.339
109.216
88.3857
60.5969
34.7985
15.2232
5.98805
3.43611
2.46454
2.1087
1.99246
1.91107
1.8454
1.84066
47.7822
57.8058
62.2146
64.3521
63.0993
50.9592
29.3718
19.6987
11.749
4.84093
1.13519
1.58057
1.93389
1.72844
1.79412
1.72598
1.65804
1.60266
1.60422
2.1374
4.26273
7.8874
11.0251
7.45866
0.908251
0.287342
0.386781
0.263235
-0.248482
0.0520694
0.906732
1.35017
1.36816
1.38298
1.3646
1.38567
1.35719
1.39398
1.05732
0.81705
0.564761
0.487406
0.440737
0.270149
0.114063
0.0784992
-0.0804621
-0.19484
0.155515
0.580103
0.849283
0.897262
0.834224
0.833694
0.995497
1.05332
1.10313
0.659619
0.44108
0.227583
0.163924
0.151284
0.039845
-0.0796418
-0.171846
-0.267937
-0.204949
0.0768358
0.360568
0.460745
0.432318
0.371141
0.349925
0.512891
0.659449
0.745307
0.192841
0.0822051
-0.106278
-0.081644
-0.103128
-0.235326
-0.353287
-0.416217
-0.427089
-0.351319
-0.178487
-0.0018467
0.0929718
0.106744
0.0659415
0.0340152
0.0856734
0.24873
0.396318
-0.107385
-0.204189
-0.38191
-0.344754
-0.378894
-0.461795
-0.52893
-0.568274
-0.562038
-0.506292
-0.433901
-0.369257
-0.299808
-0.235747
-0.229436
-0.211358
-0.231086
-0.232232
0.0269022
-0.283638
-0.451112
-0.575229
-0.617591
-0.681408
-0.746973
-0.788247
-0.791694
-0.764119
-0.718396
-0.682659
-0.672415
-0.652788
-0.568217
-0.464446
-0.392552
-0.415523
-0.461976
-0.274283
-0.474715
-0.685099
-0.816707
-0.913443
-0.997828
-1.04977
-1.06115
-1.03518
-0.980176
-0.927967
-0.900835
-0.902321
-0.904821
-0.851499
-0.667567
-0.512376
-0.492066
-0.480788
-0.395919
-0.848515
-0.985721
-1.13707
-1.26345
-1.34381
-1.36793
-1.34354
-1.27675
-1.19386
-1.12391
-1.08648
-1.08047
-1.07858
-1.04735
-0.896159
-0.674016
-0.560291
-0.582699
-0.526998
-1.34473
-1.40356
-1.53759
-1.64868
-1.69411
-1.6727
-1.60256
-1.49709
-1.38807
-1.29806
-1.24266
-1.22456
-1.20828
-1.18122
-1.09978
-0.887613
-0.69924
-0.776656
-0.706659
-1.76468
-1.82969
-1.95047
-2.01484
-2.00692
-1.93886
-1.83636
-1.71712
-1.59151
-1.48166
-1.39694
-1.35629
-1.33709
-1.30035
-1.24347
-1.12611
-0.940042
-0.932444
-0.893258
-2.10745
-2.20176
-2.30717
-2.32386
-2.27227
-2.1801
-2.06434
-1.94333
-1.81451
-1.69004
-1.57979
-1.51139
-1.47691
-1.43476
-1.3789
-1.32901
-1.20447
-1.11023
-1.09249
-2.39877
-2.50143
-2.58813
-2.57615
-2.51348
-2.40766
-2.28348
-2.16232
-2.03914
-1.91572
-1.7999
-1.7075
-1.64113
-1.58524
-1.52392
-1.47841
-1.43279
-1.32548
-1.30937
-2.62429
-2.72735
-2.81344
-2.80475
-2.73193
-2.60962
-2.47595
-2.35967
-2.25182
-2.14325
-2.03089
-1.92282
-1.8294
-1.75521
-1.68527
-1.63545
-1.60746
-1.5347
-1.50628
-2.78723
-2.90288
-3.00216
-3.00175
-2.89624
-2.75951
-2.63802
-2.5382
-2.45046
-2.36056
-2.25696
-2.1446
-2.03969
-1.94732
-1.86415
-1.80542
-1.76782
-1.7299
-1.69126
-2.90728
-3.05107
-3.13112
-3.1014
-2.98923
-2.86889
-2.77975
-2.71235
-2.65024
-2.57976
-2.4922
-2.38748
-2.27456
-2.16452
-2.06515
-1.99526
-1.94998
-1.9155
-1.87226
-2.99391
-3.1309
-3.16889
-3.11541
-3.02348
-2.94962
-2.90612
-2.87732
-2.84586
-2.79846
-2.72917
-2.63582
-2.5226
-2.40093
-2.28701
-2.20517
-2.14788
-2.08833
-2.04427
-3.00816
-3.1152
-3.11686
-3.06644
-3.02108
-3.0068
-3.01401
-3.02225
-3.01612
-2.98635
-2.93386
-2.85614
-2.75339
-2.63442
-2.51671
-2.42821
-2.35763
-2.2659
-2.19711
-2.9507
-3.00312
-3.02089
-3.01198
-3.02319
-3.06366
-3.10958
-3.14002
-3.1466
-3.12441
-3.08539
-3.02658
-2.94325
-2.84063
-2.73407
-2.64921
-2.56935
-2.45158
-2.34699
-2.92604
-2.96655
-2.99115
-3.01239
-3.06091
-3.13152
-3.19582
-3.23345
-3.24269
-3.21854
-3.18683
-3.14516
-3.08802
-3.01118
-2.92823
-2.85484
-2.77195
-2.63316
-2.5087
-2.99667
-3.02457
-3.04755
-3.07707
-3.14262
-3.21808
-3.28084
-3.31918
-3.33286
-3.30836
-3.28514
-3.25076
-3.20442
-3.15739
-3.10474
-3.04307
-2.95677
-2.83693
-2.71743
-3.12938
-3.14348
-3.15968
-3.19297
-3.25791
-3.3267
-3.37942
-3.41505
-3.43299
-3.42819
-3.43689
-3.43311
-3.4066
-3.36726
-3.31799
-3.23744
-3.17524
-3.11737
-3.00774
-3.27726
-3.28589
-3.30186
-3.33784
-3.39241
-3.44559
-3.48673
-3.52037
-3.53859
-3.56165
-3.60736
-3.63617
-3.64119
-3.62019
-3.56711
-3.47191
-3.49825
-3.53266
-3.37818
-3.42679
-3.43466
-3.45125
-3.48423
-3.52521
-3.5637
-3.597
-3.62754
-3.64278
-3.67351
-3.71232
-3.73823
-3.75563
-3.76292
-3.74184
-3.73746
-3.87075
-3.98456
-3.65395
-3.57418
-3.58187
-3.59714
-3.62283
-3.65478
-3.68571
-3.71259
-3.73705
-3.74809
-3.76991
-3.79348
-3.82186
-3.84846
-3.87
-3.89627
-3.97672
-4.14035
-4.15869
-3.84495
-3.71906
-3.72662
-3.74052
-3.76128
-3.78651
-3.81124
-3.83339
-3.85241
-3.86228
-3.87155
-3.89283
-3.94187
-3.99258
-4.03056
-4.06268
-4.14441
-4.23437
-4.15655
-3.97432
-3.86198
-3.86918
-3.88162
-3.8989
-3.91962
-3.94092
-3.96085
-3.978
-3.98856
-3.99536
-4.01541
-4.09785
-4.16314
-4.17574
-4.16752
-4.21385
-4.22978
-4.17528
-4.1116
-4.00397
-4.01077
-4.02195
-4.03683
-4.05476
-4.07429
-4.09369
-4.11168
-4.12656
-4.14167
-4.16499
-4.25182
-4.3406
-4.31613
-4.22856
-4.19654
-4.25138
-4.26379
-4.25513
-4.14572
-4.15209
-4.16212
-4.17526
-4.19127
-4.20961
-4.22916
-4.24912
-4.26964
-4.29255
-4.32822
-4.39466
-4.46405
-4.43984
-4.33099
-4.21779
-4.31878
-4.36794
-4.37952
-4.28701
-4.29291
-4.30185
-4.31358
-4.32811
-4.3454
-4.36494
-4.38655
-4.41117
-4.44025
-4.4817
-4.52847
-4.57118
-4.56197
-4.48506
-4.37435
-4.43282
-4.47532
-4.48948
-4.4275
-4.43299
-4.44098
-4.45146
-4.4646
-4.48063
-4.49956
-4.52184
-4.5492
-4.58433
-4.6314
-4.67581
-4.70333
-4.69404
-4.64768
-4.59971
-4.57763
-4.59215
-4.60202
-4.56713
-4.57224
-4.57936
-4.58861
-4.60027
-4.61472
-4.63226
-4.65388
-4.68187
-4.72101
-4.77476
-4.82899
-4.85533
-4.843
-4.7993
-4.77576
-4.73344
-4.71744
-4.72161
-4.70595
-4.71063
-4.71688
-4.72488
-4.73495
-4.74751
-4.76288
-4.78241
-4.80846
-4.84777
-4.90517
-4.96735
-5.00061
-4.99895
-4.95916
-4.94783
-4.89152
-4.84102
-4.83884
-4.844
-4.84817
-4.85354
-4.86028
-4.86864
-4.87888
-4.89161
-4.9077
-4.92949
-4.96427
-5.0193
-5.08664
-5.14302
-5.15927
-5.13626
-5.12251
-5.03127
-4.962
-4.9548
-4.98139
-4.98497
-4.98945
-4.99492
-5.00149
-5.00944
-5.0191
-5.03103
-5.04688
-5.07187
-5.11455
-5.18068
-5.25423
-5.2846
-5.27497
-5.23357
-5.12525
-5.07006
-5.07452
-5.11824
-5.12118
-5.12475
-5.12899
-5.13391
-5.13964
-5.14633
-5.15426
-5.16426
-5.17888
-5.20446
-5.24696
-5.28693
-5.32229
-5.3217
-5.28031
-5.21024
-5.18322
-5.19913
-5.25466
-5.25693
-5.25963
-5.26273
-5.26617
-5.26993
-5.27405
-5.2787
-5.28435
-5.29184
-5.30413
-5.32459
-5.34802
-5.36462
-5.36675
-5.34809
-5.32506
-5.31587
-5.32219
-5.39076
-5.39236
-5.39422
-5.3963
-5.39847
-5.40063
-5.40271
-5.40485
-5.40754
-5.41117
-5.41672
-5.42555
-5.43662
-5.44629
-5.45203
-5.45278
-5.449
-5.44691
-5.44217
-5.52665
-5.5276
-5.52869
-5.52984
-5.53094
-5.53185
-5.53244
-5.53286
-5.53391
-5.53584
-5.53847
-5.54226
-5.54777
-5.55426
-5.56079
-5.56502
-5.56401
-5.56061
-5.55765
-5.66257
-5.66291
-5.66327
-5.66358
-5.66376
-5.6637
-5.66333
-5.66278
-5.66252
-5.66264
-5.66373
-5.66597
-5.66902
-5.6721
-5.67429
-5.67473
-5.67333
-5.67129
-5.67202
)
;

boundaryField
{
    leftWall
    {
        type            calculated;
        value           nonuniform List<scalar> 
50
(
699.528
641.064
584.328
525.74
462.528
395.398
328.082
262.425
168.341
49.371
5.88752
1.92697
1.11299
0.563781
0.149204
-0.3098
-0.729638
-1.0346
-1.25767
-1.39264
-1.39652
-1.31147
-1.27653
-1.38777
-1.54462
-1.6789
-1.78349
-1.88601
-2.01429
-2.30655
-2.71594
-3.1298
-3.43512
-3.5577
-3.58737
-3.66587
-3.80222
-3.94956
-4.10278
-4.25337
-4.40453
-4.54613
-4.71215
-4.89735
-5.03031
-5.15551
-5.2992
-5.44979
-5.58374
-5.7142
)
;
    }
    rightWall
    {
        type            calculated;
        value           nonuniform List<scalar> 
50
(
483.222
425.625
367.316
310.507
252.851
192.623
129.777
67.6859
18.0102
1.84066
1.60422
1.39398
1.10313
0.745307
0.396318
0.0269022
-0.274283
-0.395919
-0.526998
-0.706659
-0.893258
-1.09249
-1.30937
-1.50628
-1.69126
-1.87226
-2.04427
-2.19711
-2.34699
-2.5087
-2.71743
-3.00774
-3.37818
-3.65395
-3.84495
-3.97432
-4.1116
-4.25513
-4.37952
-4.48948
-4.60202
-4.72161
-4.83884
-4.9548
-5.07452
-5.19913
-5.32219
-5.44217
-5.55765
-5.67202
)
;
    }
    lowerWall
    {
        type            calculated;
        value           nonuniform List<scalar> 
62
(
728.921
728.295
732.51
739.955
759.634
780.981
795.063
806.325
815.42
825.899
840.387
855.207
867.522
874.236
876.964
878.452
880.343
881.281
878.598
871.864
867.08
866.802
867.924
838.5
778.346
717.373
655.642
592.499
527.031
463.282
401.401
357.221
350.455
343.093
336.692
736.274
679.197
628.243
581.056
530.044
475.02
418.07
362.005
765.289
753.106
744.783
736.963
729.019
739.705
753.755
722.749
675.866
636.481
610.472
589.944
569.394
552.739
532.367
517.865
507.049
502.531
510.81
)
;
    }
    atmosphere
    {
        type            calculated;
        value           nonuniform List<scalar> 
46
(
-5.78119
-5.74098
-5.73026
-5.74725
-5.74999
-6.5275
-5.7498
-5.7365
-5.73557
-5.73016
-5.72925
-5.72916
-5.72926
-5.72943
-5.7298
-5.73017
-5.73047
-5.73066
-5.73074
-5.73074
-5.7307
-5.73066
-5.73062
-5.73061
-5.73061
-5.73061
-5.73062
-5.73063
-5.73068
-5.73069
-5.73062
-5.73042
-5.73002
-5.72946
-5.72904
-5.72904
-5.72904
-5.72904
-5.72904
-5.72906
-5.72915
-5.72924
-5.7292
-5.7292
-5.7292
-5.73159
)
;
    }
    defaultFaces
    {
        type            empty;
    }
}


// ************************************************************************* //
