/*--------------------------------*- C++ -*----------------------------------*\
| =========                 |                                                 |
| \\      /  F ield         | OpenFOAM: The Open Source CFD Toolbox           |
|  \\    /   O peration     | Version:  2.3.0                                 |
|   \\  /    A nd           | Web:      www.OpenFOAM.org                      |
|    \\/     M anipulation  |                                                 |
\*---------------------------------------------------------------------------*/
FoamFile
{
    version     2.0;
    format      ascii;
    class       volScalarField;
    location    "2.3";
    object      p_rgh;
}
// * * * * * * * * * * * * * * * * * * * * * * * * * * * * * * * * * * * * * //

dimensions      [1 -1 -2 0 0 0 0];

internalField   nonuniform List<scalar> 
2268
(
728.921
728.295
732.51
739.955
759.634
780.981
795.063
806.325
815.42
825.899
840.387
855.207
867.522
874.236
876.964
878.452
880.343
881.281
878.598
871.864
867.08
866.802
867.924
727.334
724.104
727.148
734.353
758.353
781.695
795.783
806.636
814.288
823.441
837.77
854.695
867.689
874.979
878.077
878.288
879.704
881.276
879.035
871.73
865.814
864.629
866.616
726.529
713.765
720.065
726.943
756.407
781.905
795.758
806.15
812.298
820.835
836.756
854.931
868.623
876.925
879.167
878.832
880.061
881.869
879.911
871.589
863.996
861.569
864.491
724.274
720.359
724.246
722.514
741.753
780.424
795.295
805.43
810.238
818.151
836.108
855.818
869.696
878.133
881.198
880.996
881.988
883.004
880.972
871.778
862.416
858.222
861.607
724.263
716.777
724.153
736.077
732.469
775.065
794.98
805.056
808.364
815.055
835.586
857.037
870.515
878.345
881.953
883.425
884.494
884.736
882.355
873.042
859.572
850.685
857
716.707
704.027
712.402
740.521
732.761
737.549
795.102
805.246
807.069
812.203
834.299
858.726
871.181
877.994
882.202
885.406
887.315
886.133
879.856
870.483
846.495
831.075
846.461
707.823
694.965
702.855
746.958
772.228
751.814
795.652
806.313
805.15
787.857
816.22
861.019
872.463
877.642
882.525
887.68
889.997
882.742
877.309
862.797
839.264
821.833
837.383
700.588
685.707
690.863
741.415
776.088
788.166
796.064
808.456
811.013
780.986
809.625
863.506
869.951
879.053
883.264
889.886
893.285
885.571
872.15
860.668
837.133
822.015
834.61
765.289
753.106
744.783
736.963
729.019
739.705
753.755
722.749
675.866
636.481
610.472
589.944
569.394
552.739
532.367
517.865
507.049
502.531
510.81
764.186
747.789
741
732.957
720.956
732.591
747.706
717.35
671.882
634.067
609.009
588.737
566.713
550.162
529.088
515.47
505.035
497.53
511.547
765.861
752.325
738.534
721.823
710.424
723.146
737.679
709.598
665.903
629.963
607.121
591.362
562.085
545.523
526.202
513.844
504.489
494.464
510.361
773.721
757.282
738.012
711.138
699.137
711.771
726.34
700.648
657.555
619.299
601.466
589.957
570.441
541.912
531.038
528.453
504.088
492.867
506.629
779.858
759.136
735.845
703.28
690.962
704.69
724.929
699.913
656.174
610.719
587.81
578.578
570.26
551.659
547.209
533.416
517.643
496.382
510.745
795.388
759.953
739.828
705.302
696.817
710.87
726.915
705.547
663.319
612.643
585.162
569.93
561.686
555.242
539.273
532.892
520.039
514.274
510.878
798.348
773.799
749.18
721.459
716.746
728.679
734.875
711.104
668.828
624.565
583.607
570.79
567.173
562.08
547.875
530.159
516.223
509.964
505.9
800.918
791.99
762.02
740.551
739.944
736.882
741.823
718.675
677.465
639.181
605.966
582.847
574.01
564.18
548.084
527.458
499.775
478.893
477.649
633.628
619.165
655.931
714.885
762.171
785.744
799.119
813.613
816.443
797.031
860.021
871.496
876.074
885.072
886.402
893.185
899.625
902.593
884.882
863.396
847.731
832.792
828.659
439.363
475.058
493.773
581.608
690.509
755.488
765.138
792.551
815.891
866.116
879.782
892.522
891.904
889.058
889.562
902.022
911.103
911.327
901.631
878.662
853.947
837.785
829.662
49.0883
83.5635
106.02
139.559
222.14
347.593
540.391
725.551
803.703
823.17
698.707
613.839
739.625
889.007
899.316
911.127
919.546
912.185
847.241
778.178
777.308
779.387
692.352
4.21223
2.99315
4.69858
7.8392
11.0913
49.0701
150.644
275.523
327.521
216.018
85.8821
39.1011
167.694
673.46
949.476
968.819
871.621
444.533
212.313
173.189
242.143
294.592
181.39
2.60803
2.12373
1.87772
3.49428
4.41168
4.99972
5.53123
3.38775
1.03351
1.51437
1.7901
1.9254
1.60309
1.70882
297.949
514.94
259.184
7.55331
3.02847
3.03331
2.9233
3.00207
36.0496
1.94276
1.65607
1.4441
1.25384
1.24785
1.16193
1.13129
1.01225
0.775108
0.960274
1.26245
1.39844
1.43836
1.51161
1.52579
1.53476
1.42479
2.00948
2.7775
2.75742
2.77066
2.7775
2.5775
1.87674
1.31947
1.20331
1.00463
0.747293
0.476064
0.410964
0.943249
0.958508
0.936174
1.16744
1.29957
1.40313
1.94031
2.07836
2.26229
2.01906
2.11739
2.55407
4.2799
4.3873
2.80975
2.72986
2.33927
1.01985
0.924297
0.707877
0.435581
0.589184
0.804159
0.799162
0.931627
1.01141
0.930211
1.07356
2.79578
3.64825
3.63443
2.23548
2.23308
2.14552
2.5914
5.72417
6.09415
4.89866
4.9584
2.34942
0.773179
0.623518
0.399306
0.132176
0.0550798
0.328691
0.626927
0.708042
0.70751
0.941313
1.51865
2.67518
3.66579
3.99592
4.24625
2.38847
2.27429
2.09327
5.28937
6.23877
6.5194
5.25323
2.32529
1.02042
0.369106
0.158665
-0.0836517
-0.291212
-0.452461
-0.526065
-0.48495
-0.305428
0.409499
0.870034
0.589605
0.411219
3.62431
5.55847
5.93293
2.59813
2.17169
2.31064
5.60525
6.70419
4.37834
2.37779
1.65969
0.211755
0.00142272
-0.229613
-0.436196
-0.617389
-0.72838
-0.716009
-0.557386
-0.288256
-0.00611366
0.257637
0.352918
0.372696
3.68757
6.48528
6.81458
2.30214
2.31282
2.32034
4.49166
8.8433
2.51611
1.13444
0.154238
-0.0927088
-0.334817
-0.557264
-0.777205
-0.934483
-0.954251
-0.794533
-0.470828
-0.111053
0.16873
0.329221
0.383952
0.420158
4.96949
7.03276
3.76303
2.39138
2.37403
5.42445
9.80931
2.77375
0.541771
0.171689
-0.126401
-0.387857
-0.615185
-0.852477
-1.03577
-1.07703
-0.931595
-0.584227
-0.179909
0.134702
0.312124
0.398634
0.458188
0.583081
6.5526
8.31331
2.7102
2.40404
10.129
10.0423
3.11526
0.867645
0.241462
-0.0918231
-0.371318
-0.609727
-0.841249
-1.01167
-1.05003
-0.906085
-0.588368
-0.183437
0.122144
0.29535
1.21815
1.28694
0.941881
3.42267
11.8184
9.76043
12.2375
12.0264
8.65358
3.36538
2.083
0.430482
0.0389313
-0.2687
-0.516321
-0.733844
-0.881868
-0.905244
-0.767796
-0.452543
-0.0988844
0.151353
0.375835
2.46427
2.49171
1.85341
2.3145
12.9289
12.7962
12.5656
12.3902
3.29062
1.31081
1.65305
0.85727
0.299346
-0.0403742
-0.319318
-0.507635
-0.616208
-0.62542
-0.456752
-0.183248
0.0669151
0.22984
2.05376
2.54099
2.55133
1.32493
1.52239
11.3509
13.2377
13.039
4.97209
-0.0693004
1.14015
1.06464
0.944155
0.649093
0.342504
0.0732545
-0.107545
-0.180377
-0.137558
-0.00244116
0.157494
0.272018
1.34559
2.49887
2.55622
2.199
0.669483
3.22276
13.8848
13.6959
5.14254
-0.184292
-0.145828
1.1448
1.43978
1.33509
0.892848
0.690479
0.49406
0.363209
0.307295
0.329213
0.39009
0.436536
1.13279
2.75246
2.59246
1.56171
0.253431
0.365265
6.19696
14.2663
9.25481
0.0186072
-0.0214652
0.00930897
1.16431
1.88633
1.88706
1.76217
1.52751
1.24992
0.682746
0.558506
0.555659
0.579176
1.32043
3.7582
2.7801
0.68906
0.255852
0.229177
0.230852
2.23932
8.5384
9.99992
0.306102
0.173236
0.184908
1.19331
1.10217
1.51854
1.75083
1.69475
0.984207
0.686123
0.649424
0.645413
3.85703
4.26517
3.93625
0.559065
0.325444
0.268998
0.230368
0.236856
0.144001
1.94496
10.5779
8.28643
0.349629
0.326847
2.91948
1.26095
1.07213
1.02955
1.95338
2.8975
2.81583
2.90187
4.03055
3.90317
1.57293
0.412726
0.379052
0.336438
0.289815
0.260656
0.255032
0.17404
0.16361
0.651996
4.38003
1.94981
0.606889
10.5947
3.50465
0.930897
1.3388
5.82095
5.73465
5.64756
5.58379
2.56518
1.08958
0.659684
0.393272
0.378397
0.343868
0.310406
0.293573
0.275116
0.227086
0.206601
0.222115
0.266632
1.30147
1.30997
10.696
6.97093
0.831759
4.08187
5.7775
4.70337
3.30748
1.76162
0.995423
0.60683
0.356504
0.375402
0.369379
0.346836
0.326377
0.312556
0.294775
0.256311
0.233539
0.241344
0.261884
0.295876
0.510619
10.7928
9.08926
0.885359
4.08293
4.28436
0.459432
0.700729
0.810482
0.286357
0.310302
0.347175
0.41474
0.427762
0.369947
0.347058
0.334045
0.29737
0.255686
0.232006
0.231602
0.243918
0.2616
0.275971
10.9411
3.53879
0.848299
2.82518
2.58313
0.262298
0.385099
0.681308
0.245704
0.260111
0.436928
0.47237
0.499946
0.397256
0.381083
0.36971
0.298038
0.229949
0.209488
0.208085
0.219104
0.233194
0.246199
7.85489
1.23952
0.895612
3.38367
2.26067
0.228373
0.435721
0.440806
0.155884
0.274611
0.306514
0.325624
0.237543
0.22789
0.241908
0.275161
0.235064
0.178659
0.163246
0.16822
0.185751
0.20417
0.219673
10.621
1.19718
1.02405
3.48585
1.25744
0.182825
0.262571
0.175879
0.138691
0.130198
0.0297191
0.0144255
0.0826771
0.138131
0.165844
0.163697
0.178552
0.139647
0.101953
0.116088
0.146735
0.180073
0.228055
11.8922
3.01807
1.26745
3.59649
0.597596
0.143272
0.0427462
-0.0664643
-0.0401052
-0.166574
-0.141949
-0.0659133
0.00959629
0.0948864
0.101138
0.133823
0.108682
0.0865744
0.0574267
0.0657144
0.110205
0.185873
0.230682
12.2535
10.6854
0.966682
3.67835
0.721567
0.109187
0.00181289
-0.125766
-0.220727
-0.235428
-0.187181
-0.10534
0.00560121
0.0968033
0.0881661
0.0961459
0.0673503
0.0419466
0.00877449
0.0341812
0.0930901
0.186539
0.214527
12.6039
10.7086
0.99134
1.96927
1.41234
0.103565
-0.00406762
-0.121668
-0.208275
-0.215102
-0.178757
-0.103697
0.0413238
0.0953978
0.0526395
0.0927514
0.0636402
-0.00769843
-0.00214532
0.0280915
0.132327
0.1766
0.198706
12.9311
4.87415
1.04868
4.40982
2.45392
0.279486
0.013596
0.04762
0.253797
0.250996
-0.0241038
-0.0683125
0.0725606
0.122148
0.0735315
0.117164
0.0828551
0.0269582
0.0334784
0.0817588
0.143109
0.173354
0.145934
13.1786
2.19721
3.31248
4.50913
3.2259
0.582975
0.535024
0.631569
0.580426
0.545719
0.152397
-0.0015437
0.116554
0.13865
0.101379
0.147331
0.131694
0.110873
0.122281
0.135579
0.155777
0.126554
0.122896
12.9343
2.11791
2.06079
4.59398
3.1187
0.547068
0.632738
0.752176
0.708338
0.283834
0.0552638
0.10442
0.152876
0.127283
0.122341
0.124473
0.161677
0.153134
0.151168
0.139452
0.105968
0.107826
0.113089
6.00527
2.85836
2.14216
1.96148
1.89253
0.488828
0.24763
0.410044
0.40502
0.387203
0.534997
0.339068
0.168024
0.138393
0.128023
0.120997
0.129747
0.122522
0.101833
0.0969313
0.0985947
0.100674
0.101904
1.21394
12.366
12.4767
3.64847
0.452651
0.255788
0.29384
0.390667
4.59917
7.08914
2.94354
0.0847516
0.106357
0.117202
0.114392
0.110464
0.104214
0.0980866
0.0936324
0.0913766
0.0905498
0.0902904
0.0898593
0.217036
5.54616
12.7286
7.01712
0.163854
0.212096
0.293134
8.06584
12.062
11.7064
2.77504
0.0155826
0.0661878
0.0842445
0.0897792
0.0914984
0.0896186
0.086387
0.0832798
0.0810825
0.0796372
0.07857
0.0774675
0.117089
-0.00555711
10.5195
10.5428
0.174849
0.208609
2.23438
12.7135
12.412
7.03552
0.181201
-0.00803016
0.0333601
0.0550859
0.0661994
0.0715221
0.0727108
0.0718292
0.0702362
0.0687153
0.0674188
0.0662438
0.0649852
0.0107111
0.0118347
0.0331208
10.6387
0.194439
0.226143
11.3044
13.0269
11.2699
0.870517
0.0821286
-0.0203132
0.0141176
0.0345442
0.0468305
0.053473
0.0562741
0.0569211
0.0564808
0.0556704
0.0547414
0.0537335
0.0525781
-0.00777125
-0.00862892
-0.00727802
3.60125
5.07536
10.7554
13.5228
13.3335
2.45866
0.484027
0.0154165
-0.0193523
0.00428144
0.0207108
0.0316496
0.0380194
0.0412562
0.042593
0.0428515
0.0425653
0.0420047
0.0412601
0.0403332
-0.0324849
-0.0121313
-0.0401511
-0.0300842
13.8416
13.884
13.8501
3.13418
0.574234
0.187706
-0.0262234
-0.0164468
-0.000537601
0.0115231
0.0199283
0.0250149
0.0278632
0.0292416
0.029743
0.0297331
0.029441
0.0289558
0.0282969
-0.0378664
-0.0212099
-0.0438262
-0.0540455
4.4567
13.2202
0.855376
-0.0719903
0.0179237
0.0117712
-0.0202682
-0.0104312
-0.00145717
0.00568066
0.0107546
0.0139201
0.0157766
0.0167373
0.0171402
0.017206
0.0170663
0.0168158
0.016428
-0.0455299
-0.0177701
-0.0262573
-0.0526004
-0.0444751
0.495322
-0.0804328
-0.0497715
-0.0228897
-0.0140231
-0.0091678
-0.00430739
-0.00110507
0.00130077
0.00284594
0.00378093
0.00428808
0.00454
0.00465341
0.00468553
0.00466469
0.00460817
0.00449846
815.061
813.246
810.414
804.386
820.304
816.343
811.481
761.798
617.478
557.707
536.688
541.844
74.3222
40.606
17.4126
13.2719
62.4817
14.4317
2.55651
2.51562
2.26664
2.18369
2.2011
2.94951
2.45831
2.26506
2.9537
4.28219
3.06707
2.38396
2.28881
3.58277
2.50885
2.42454
2.38592
2.51319
2.47643
2.42502
2.42066
2.44609
5.71031
3.36225
4.28422
5.29819
9.27934
8.78076
7.70097
5.02953
8.07223
6.21098
4.88466
2.1677
2.03261
1.04658
0.550592
0.192339
0.010971
0.00967648
0.0219392
0.0240635
-0.148705
-0.116358
-0.081757
-0.0770702
-0.119136
-0.111013
-0.09377
-0.0939012
0.0034844
-0.0151889
-0.0430158
0.055986
0.14454
0.10103
0.0436115
0.150215
0.267873
0.215195
0.146928
0.105075
0.360685
0.316362
0.269764
0.202016
1.12062
0.91074
0.62506
0.301871
0.544146
0.649774
0.654612
0.463236
0.281606
0.284362
0.298237
0.304635
0.252625
0.256494
0.258625
0.260223
0.227066
0.232314
0.234287
0.235735
0.227443
0.213073
0.212375
0.214053
0.239714
0.213901
0.193518
0.194761
0.224763
0.184352
0.176059
0.177312
0.170768
0.157634
0.159884
0.16087
0.139629
0.142756
0.144391
0.14478
0.127104
0.128737
0.129352
0.129131
0.114641
0.115015
0.114801
0.114169
0.101918
0.101636
0.101057
0.100031
0.0890991
0.0884333
0.0875514
0.086429
0.0763767
0.0755574
0.0745923
0.073464
0.0638405
0.0630188
0.0620922
0.0610482
0.0515401
0.0508061
0.0499932
0.0490932
0.0394883
0.0388919
0.0382358
0.037516
0.0276815
0.0272465
0.0267688
0.026247
0.0160547
0.0157896
0.0154982
0.0151795
0.00437748
0.00428837
0.00418734
0.00407461
802.518
792.373
741.732
711.483
748.689
752.086
751.683
730.433
687.494
620.963
544.134
496.782
470.544
438.586
368.015
270.15
191.468
157.736
154.547
716.539
693.122
678.724
682.04
755.279
791.581
760.149
716.802
479.88
294.757
141.174
53.3264
22.9466
10.7159
3.20744
3.03563
2.88912
2.816
2.81126
583.831
651.527
713.011
741.482
749.038
666.876
393.768
262.049
153.646
72.0686
17.9746
2.95822
3.23161
3.03668
3.0915
3.01825
2.81409
2.75779
2.75931
12.8823
46.4345
112.517
164.572
109.632
8.85423
2.0998
2.20184
2.07788
1.43785
1.44794
2.32096
3.80056
3.21263
3.97636
4.75494
3.18573
2.69788
2.73361
2.39235
2.01506
1.72868
1.62524
1.60468
1.46718
2.6155
2.97099
2.823
2.01032
1.48719
2.08787
3.80919
4.33266
4.49247
4.72267
4.87623
2.88785
2.62885
3.87578
3.52992
2.47102
1.40165
1.98705
2.81008
2.70399
2.61402
1.671
1.45481
1.48465
2.0953
2.43592
2.19871
2.12596
3.18185
4.87262
4.47979
2.46927
4.3982
4.29292
3.60807
1.28282
1.26012
1.11627
0.992267
0.918579
0.894458
0.96256
1.22356
2.13207
2.65597
2.25288
1.94591
1.8455
3.9474
4.92368
2.35658
4.51393
4.40742
1.69888
1.15075
1.11184
1.02404
0.975718
0.924707
0.87969
0.915834
0.991586
1.57672
2.59761
2.65964
2.67737
1.76812
1.7493
4.89248
4.51031
4.73566
2.71081
1.05888
1.01409
0.946897
0.972026
1.03023
1.02502
0.832344
0.829059
0.8649
0.878024
1.22048
2.59994
2.7185
1.99056
1.73803
2.83608
2.55701
4.45803
1.2475
0.967531
0.854885
0.951576
0.917401
0.906051
0.931638
0.779984
0.745724
0.771385
0.768426
0.816962
2.16957
2.79386
2.97909
1.80374
1.79674
1.88577
4.09979
0.945076
0.79491
0.844646
0.772508
0.748385
0.736746
0.534698
0.610312
0.674408
0.710289
0.71468
0.714953
0.817075
2.88434
3.12579
1.93694
1.86703
1.92203
1.93897
0.652742
0.581732
0.615371
0.570609
0.514275
0.392721
0.474448
0.56879
0.647843
0.681059
0.694735
0.70943
0.735
1.483
3.18169
3.21299
1.8441
2.15103
0.370484
0.361646
0.436877
0.378904
0.205582
0.274458
0.413774
1.09447
1.45475
1.44765
1.05771
0.74031
0.704689
0.740127
0.794515
3.16534
3.52416
1.86397
3.49644
0.161347
0.0640276
0.0738833
0.0239174
0.0765614
0.54206
1.33286
1.53217
1.66285
1.78841
1.89933
1.26599
0.692042
0.728549
0.783741
0.969058
3.53427
3.07933
3.76743
-0.00630215
-0.105539
-0.188185
-0.0947997
0.683613
1.162
1.33857
1.51161
1.63771
1.76309
1.86173
1.44839
0.674947
0.702837
0.763171
0.808633
2.6219
3.816
3.83211
-0.106555
-0.203921
-0.219155
0.871785
0.964753
1.09347
0.924568
0.58698
0.707115
1.09152
1.03451
0.591402
0.582683
0.656984
0.726966
0.776784
0.984832
3.10894
3.91676
-0.148935
0.0529888
0.668588
0.859723
0.387777
-0.209084
-0.0934891
0.00160171
0.0877378
0.177098
0.28055
0.392877
0.497771
0.590154
0.673327
0.732051
1.1066
3.12086
4.00717
0.129361
0.283979
0.0875771
-0.412798
-0.312073
-0.195475
-0.110488
-0.0465354
0.013466
0.0831774
0.170579
0.275252
0.388153
0.498192
0.597564
0.667454
1.16426
2.70423
4.09468
0.484245
0.361005
-0.156258
-0.312707
-0.213424
-0.146876
-0.107062
-0.0801995
-0.044488
-0.00713397
0.0589499
0.152185
0.265366
0.387843
0.500945
0.582785
1.21312
2.19212
2.6632
0.222086
0.0395544
-0.185554
-0.143552
-0.092116
-0.0264368
0.00332791
0.00228595
-0.0709253
-0.0721155
-0.0203121
0.057251
0.160042
0.279703
0.396959
0.484984
0.999851
3.54424
2.45591
0.100448
0.0441309
0.0227346
0.0322652
0.0540042
0.520538
0.607996
0.0945965
-0.101943
-0.0838525
-0.0463843
0.0122057
0.0954742
0.198121
0.304451
0.389275
1.06406
3.92546
2.50606
0.242557
0.198644
0.176977
0.156381
0.728223
0.724784
0.664909
0.182284
-0.0409765
-0.048382
-0.0203217
0.0190718
0.0758902
0.152647
0.235552
0.30892
0.935629
4.13919
2.54439
0.293673
0.263514
0.242947
0.663736
0.862925
0.790286
0.732474
0.408413
0.161809
0.254324
0.446944
0.329845
0.209131
0.131756
0.184333
0.245953
0.814372
4.42926
2.61436
0.287457
0.269503
0.354064
0.943658
0.886964
0.832101
0.590606
0.365642
0.149662
0.831411
0.824546
0.829353
0.854843
0.879368
0.163132
0.176919
2.40771
4.5777
4.57224
0.260941
0.252292
0.365917
0.864445
0.676308
0.199682
0.0514122
0.0177778
-0.000368321
0.84049
0.808598
0.741779
0.775323
0.455025
0.0409058
1.4737
4.47909
4.46994
4.59916
0.236598
0.228726
0.212141
0.208878
0.138176
0.0996391
0.0663387
0.0357986
0.0205598
0.848891
0.707155
0.13594
0.0828905
0.0589115
-0.00377019
3.52433
4.41505
4.27988
1.74245
0.214399
0.207556
0.191595
0.165768
0.133768
0.102828
0.075948
0.0514817
0.0611588
0.275201
0.377566
0.67697
1.39601
0.845822
0.479268
2.96253
4.39488
2.91667
0.5653
0.194667
0.187104
0.173438
0.153508
0.12805
0.102754
0.080333
0.0613127
0.0520817
0.0437527
0.884098
2.65684
2.87752
2.74379
0.471614
3.01476
4.54806
0.517438
0.548902
0.176935
0.169741
0.159628
0.142894
0.121659
0.098412
0.0780652
0.0609121
0.0503578
0.107494
1.2373
2.99598
2.93218
2.91412
1.26602
2.60586
4.63827
0.492363
0.541086
0.160134
0.153377
0.144234
0.13012
0.110103
0.090123
0.0704167
0.0524312
0.0375503
0.101673
0.893898
2.40645
2.97139
2.99868
2.84207
1.55563
2.13067
0.532837
0.53975
0.143587
0.137217
0.127188
0.114041
0.0982427
0.0797664
0.0601497
0.0401871
0.0196615
-0.00324301
0.0936927
0.161164
1.91765
3.07747
3.16198
2.32792
0.357548
1.75705
0.55952
0.127486
0.121592
0.112643
0.101041
0.086621
0.0691217
0.0495606
0.0279482
0.00333106
-0.0257568
-0.0672042
-0.113964
-0.144484
1.41101
2.83869
2.82709
0.307934
1.9463
0.898685
0.112194
0.106703
0.0987284
0.0883974
0.0752007
0.0590655
0.0401372
0.0178552
-0.00950699
-0.0446207
-0.0916966
-0.136036
-0.130414
-0.0346108
0.0926867
1.71082
0.272511
2.00036
1.86165
0.097761
0.0926442
0.0855515
0.076308
0.0646163
0.050166
0.0326249
0.011011
-0.0169865
-0.0560061
-0.10948
-0.163553
-0.182701
-0.172754
-0.119604
0.0506963
0.196413
1.2965
1.35306
0.0841328
0.0794566
0.0732079
0.0651965
0.0551311
0.0425725
0.0271973
0.00767637
-0.0183811
-0.0572484
-0.104662
-0.17585
-0.207351
-0.204786
-0.163578
1.53721
0.254943
0.0155379
0.640635
0.0712754
0.0671095
0.0617343
0.0549934
0.0466422
0.0364002
0.0236708
0.00757965
-0.0142125
-0.0488911
-0.0818331
0.423227
1.19519
1.44208
1.85596
1.94634
1.13872
-0.0407122
-0.0394705
0.0590805
0.0555016
0.0510239
0.0455537
0.0389785
0.031032
0.0213666
0.00943646
-0.00640257
-0.0310459
-0.0117869
1.70328
2.16672
2.13991
2.12949
2.13288
0.421921
-0.0295351
-0.0339956
0.0474251
0.0444883
0.0409143
0.036677
0.0317522
0.0260289
0.019338
0.0114002
0.00140467
-0.0130394
-0.0355167
0.476833
2.29624
2.26607
1.8695
0.335215
-0.0437656
-0.0175217
-0.0334022
0.0361949
0.0339256
0.0312329
0.0281306
0.0246903
0.0209251
0.0168081
0.0121544
0.0065053
-0.00097423
-0.0130805
0.0392317
0.349299
0.583311
0.0685494
-0.0514289
-0.0341276
-0.0249477
-0.0312558
0.0252949
0.0236918
0.0218347
0.0197508
0.0175846
0.0154232
0.0133455
0.0112081
0.00851183
0.00488001
-0.000628476
-0.00926383
-0.0195614
-0.0277165
-0.0341403
-0.036092
-0.0327633
-0.0304527
-0.0260178
0.0146005
0.0136453
0.0125554
0.0114049
0.0103115
0.00940053
0.0088085
0.0083854
0.00734223
0.00540699
0.00277486
-0.00100227
-0.0064379
-0.0127202
-0.0192265
-0.0235798
-0.0226018
-0.018921
-0.0163135
0.003869
0.00353334
0.00317051
0.00285842
0.00268441
0.00274207
0.00310824
0.00366109
0.00392168
0.00380411
0.00271233
0.000477227
-0.00256288
-0.00554506
-0.00765058
-0.00812658
-0.00672788
-0.004682
-0.00557361
)
;

boundaryField
{
    leftWall
    {
        type            fixedFluxPressure;
        gradient        uniform 0;
        value           nonuniform List<scalar> 
50
(
728.921
727.334
726.529
724.274
724.263
716.707
707.823
700.588
633.628
439.363
49.0883
4.21223
2.60803
1.94276
1.87674
2.33927
2.34942
2.32529
2.37779
2.51611
2.77375
3.11526
3.36538
1.31081
1.14015
1.1448
1.16431
1.19331
2.91948
10.5947
10.696
10.7928
10.9411
7.85489
10.621
11.8922
12.2535
12.6039
12.9311
13.1786
12.9343
6.00527
1.21394
0.217036
0.117089
0.0107111
-0.00777125
-0.0324849
-0.0378664
-0.0455299
)
;
    }
    rightWall
    {
        type            fixedFluxPressure;
        gradient        uniform 0;
        value           nonuniform List<scalar> 
50
(
510.81
511.547
510.361
506.629
510.745
510.878
505.9
477.649
154.547
2.81126
2.75931
2.73361
2.62885
2.46927
2.35658
4.51031
2.55701
1.88577
1.92203
2.15103
3.49644
3.76743
3.83211
3.91676
4.00717
4.09468
2.6632
2.45591
2.50606
2.54439
2.61436
4.57224
4.59916
1.74245
0.5653
0.548902
0.541086
0.53975
0.55952
0.898685
1.86165
1.35306
0.640635
-0.0394705
-0.0339956
-0.0334022
-0.0312558
-0.0260178
-0.0163135
-0.00557361
)
;
    }
    lowerWall
    {
        type            fixedFluxPressure;
        gradient        uniform 0;
        value           nonuniform List<scalar> 
62
(
728.921
728.295
732.51
739.955
759.634
780.981
795.063
806.325
815.42
825.899
840.387
855.207
867.522
874.236
876.964
878.452
880.343
881.281
878.598
871.864
867.08
866.802
867.924
867.924
866.616
864.491
861.607
857
846.461
837.383
834.61
815.061
813.246
810.414
804.386
765.289
764.186
765.861
773.721
779.858
795.388
798.348
800.918
765.289
753.106
744.783
736.963
729.019
739.705
753.755
722.749
675.866
636.481
610.472
589.944
569.394
552.739
532.367
517.865
507.049
502.531
510.81
)
;
    }
    atmosphere
    {
        type            totalPressure;
        rho             rho;
        psi             none;
        gamma           1;
        p0              uniform 0;
        value           nonuniform List<scalar> 
46
(
-0.052151
-0.0119447
-0.00121599
0
0
0
-0.0207631
-0.00746261
-0.00652929
-0.00112344
-0.000206299
-0.000115262
-0.000215707
-0.000386194
-0.00076397
-0.00112745
-0.00142914
-0.00162333
-0.00169611
-0.00170059
-0.00166431
-0.00161627
-0.00157948
-0.00157001
-0.00156765
-0.00157027
-0.00157741
-0.00159448
-0.00163678
-0.00165062
-0.0015838
-0.00137781
-0.000984266
-0.000415763
-1.93563e-07
0
0
0
0
0
0
0
0
0
0
-0.00255029
)
;
    }
    defaultFaces
    {
        type            empty;
    }
}


// ************************************************************************* //
