/*--------------------------------*- C++ -*----------------------------------*\
| =========                 |                                                 |
| \\      /  F ield         | OpenFOAM: The Open Source CFD Toolbox           |
|  \\    /   O peration     | Version:  2.3.0                                 |
|   \\  /    A nd           | Web:      www.OpenFOAM.org                      |
|    \\/     M anipulation  |                                                 |
\*---------------------------------------------------------------------------*/
FoamFile
{
    version     2.0;
    format      ascii;
    class       volVectorField;
    location    "2.3";
    object      U;
}
// * * * * * * * * * * * * * * * * * * * * * * * * * * * * * * * * * * * * * //

dimensions      [0 1 -1 0 0 0 0];

internalField   nonuniform List<vector> 
2268
(
(0.0236273 -0.0168453 0)
(0.00882627 0.00111261 0)
(-0.0271535 0.0040808 0)
(0.0118554 0.00782123 0)
(-0.0306459 0.0207688 0)
(-0.12516 0.00864105 0)
(-0.137792 0.00427932 0)
(-0.169276 0.00920736 0)
(-0.221298 0.0138061 0)
(-0.274616 0.0134749 0)
(-0.299282 0.00291725 0)
(-0.271499 -0.0100474 0)
(-0.222769 -0.0150694 0)
(-0.178793 -0.0117164 0)
(-0.162149 -0.00169903 0)
(-0.180276 0.00707556 0)
(-0.19918 0.00327978 0)
(-0.18042 -0.00631045 0)
(-0.152315 -0.00777988 0)
(-0.144461 -0.00204234 0)
(-0.134054 -0.00259106 0)
(-0.0939458 -0.0112099 0)
(-0.031582 -0.0161862 0)
(-0.029744 -0.00447138 0)
(-0.0584475 0.0251518 0)
(-0.0567983 -0.00714995 0)
(-0.0467778 -0.00215223 0)
(-0.0153232 0.0460874 0)
(-0.141138 0.0350932 0)
(-0.179952 0.022515 0)
(-0.22882 0.0327923 0)
(-0.28721 0.0363483 0)
(-0.31672 0.0233247 0)
(-0.302151 -0.00530142 0)
(-0.265942 -0.0282258 0)
(-0.226841 -0.0322964 0)
(-0.197462 -0.0189137 0)
(-0.193362 0.00260484 0)
(-0.207639 0.0113609 0)
(-0.194216 -0.00175429 0)
(-0.155131 -0.0182844 0)
(-0.138343 -0.0166009 0)
(-0.137779 -0.00515596 0)
(-0.118146 -0.0156407 0)
(-0.0647372 -0.0419258 0)
(-0.00870622 -0.0481399 0)
(-0.0680824 0.0260016 0)
(-0.0991556 0.0371464 0)
(-0.121566 -0.0114516 0)
(-0.0950908 -0.0076364 0)
(-0.0136488 0.0637361 0)
(-0.128969 0.0686557 0)
(-0.173548 0.0450438 0)
(-0.215559 0.0552362 0)
(-0.266617 0.0539665 0)
(-0.284395 0.0268209 0)
(-0.264666 -0.0169725 0)
(-0.22478 -0.0444866 0)
(-0.188582 -0.0463197 0)
(-0.167981 -0.0273355 0)
(-0.159907 0.000812295 0)
(-0.156929 0.00795459 0)
(-0.137207 -0.0144632 0)
(-0.103427 -0.0302924 0)
(-0.0974227 -0.0232633 0)
(-0.101995 -0.0108641 0)
(-0.066134 -0.0326204 0)
(0.00131504 -0.0621433 0)
(0.0242174 -0.0540887 0)
(-0.0844062 0.0684789 0)
(-0.136452 0.0563411 0)
(-0.175635 -0.0265359 0)
(-0.130638 -0.0436472 0)
(-0.0262334 0.0718679 0)
(-0.114817 0.101614 0)
(-0.16066 0.0647705 0)
(-0.193078 0.0750009 0)
(-0.239385 0.0702785 0)
(-0.252773 0.029936 0)
(-0.224884 -0.0322507 0)
(-0.171514 -0.0655616 0)
(-0.132256 -0.0582768 0)
(-0.115809 -0.0332317 0)
(-0.114729 -0.00631978 0)
(-0.102733 0.00144138 0)
(-0.0794033 -0.0201853 0)
(-0.0528516 -0.0355776 0)
(-0.0486456 -0.0279776 0)
(-0.0547666 -0.0212042 0)
(0.00735098 -0.0555886 0)
(0.0638017 -0.0755037 0)
(0.052857 -0.0335138 0)
(-0.0782781 0.114146 0)
(-0.130497 0.0819727 0)
(-0.164589 -0.0321846 0)
(-0.140287 -0.0782613 0)
(-0.0628601 0.0593695 0)
(-0.101099 0.131366 0)
(-0.14562 0.0800808 0)
(-0.175837 0.0901013 0)
(-0.217129 0.0816563 0)
(-0.222413 0.0261129 0)
(-0.175197 -0.0587875 0)
(-0.115287 -0.0943908 0)
(-0.0840509 -0.0737655 0)
(-0.0675699 -0.0382844 0)
(-0.0675664 -0.00837775 0)
(-0.0700692 -0.00882562 0)
(-0.0465584 -0.0333048 0)
(-0.029209 -0.0434641 0)
(-0.0187353 -0.0315657 0)
(-0.0176746 -0.0336775 0)
(0.0889189 -0.0853475 0)
(0.0930467 -0.0734547 0)
(0.0670576 -0.00205729 0)
(-0.0581729 0.152767 0)
(-0.0834124 0.110825 0)
(-0.097001 -0.01598 0)
(-0.105145 -0.0801998 0)
(-0.129862 0.0442758 0)
(-0.0733992 0.150947 0)
(-0.116161 0.094841 0)
(-0.147042 0.103945 0)
(-0.180766 0.0880463 0)
(-0.16596 0.0173201 0)
(-0.0940157 -0.0877009 0)
(-0.0596143 -0.116397 0)
(-0.0553133 -0.0827417 0)
(-0.0475288 -0.0445203 0)
(-0.0389403 -0.00704902 0)
(-0.047547 -0.00822981 0)
(-0.0410593 -0.0385556 0)
(-0.0384334 -0.0473413 0)
(-0.0229028 -0.0387795 0)
(0.00847601 -0.0670456 0)
(0.106108 -0.113057 0)
(0.0746814 -0.0614148 0)
(0.0624828 0.0246782 0)
(-0.0341542 0.175921 0)
(-0.0174538 0.115521 0)
(-0.00279305 -0.00490372 0)
(-0.00230796 -0.0595103 0)
(-0.122533 0.0223254 0)
(-0.0229746 0.156822 0)
(-0.0672368 0.112647 0)
(-0.0952407 0.112291 0)
(-0.123143 0.0874311 0)
(-0.093604 0.00508772 0)
(-0.0101075 -0.114279 0)
(-0.0337473 -0.120012 0)
(-0.0621889 -0.0780828 0)
(-0.0618367 -0.0483311 0)
(-0.0415817 -0.00839137 0)
(-0.0453468 -0.0059106 0)
(-0.0599602 -0.0367343 0)
(-0.0725289 -0.0471154 0)
(-0.0441807 -0.0553045 0)
(0.0188893 -0.10536 0)
(0.0305273 -0.119321 0)
(-0.00466104 -0.0494708 0)
(0.0371708 0.0632047 0)
(-0.00520312 0.180083 0)
(0.0425419 0.106177 0)
(0.0982646 -0.0111714 0)
(0.0984067 -0.0350652 0)
(-0.00188121 0.0244245 0)
(0.015132 0.137136 0)
(-0.00361319 0.131356 0)
(-0.0196385 0.122065 0)
(-0.0424943 0.0915807 0)
(-0.00789304 -0.014763 0)
(0.0292808 -0.117533 0)
(-0.0641596 -0.0942626 0)
(-0.108298 -0.0638819 0)
(-0.100062 -0.0488286 0)
(-0.0699025 -0.0117454 0)
(-0.0669238 -0.00188478 0)
(-0.0950678 -0.0251129 0)
(-0.0985021 -0.0535449 0)
(-0.0571554 -0.0863071 0)
(-0.0427316 -0.11175 0)
(-0.096694 -0.0999056 0)
(-0.0839992 -0.0468629 0)
(-0.00768605 0.0268546 0)
(0.0631884 -0.0389537 0)
(0.12717 -0.0211974 0)
(0.0511453 0.0186176 0)
(-0.149345 0.0462249 0)
(-0.311351 0.0259185 0)
(-0.244191 -0.0238042 0)
(-0.0622277 -0.0504298 0)
(0.10226 -0.0345301 0)
(0.204643 -0.0145067 0)
(0.238791 -0.00283042 0)
(0.230468 -0.000954306 0)
(0.211499 0.00839746 0)
(0.142278 0.0192975 0)
(0.0216257 0.0250069 0)
(-0.0774911 0.0229658 0)
(-0.119371 0.00739913 0)
(-0.120367 -0.000784143 0)
(-0.113618 -0.00485767 0)
(-0.0475322 -0.0255124 0)
(0.023842 -0.0584744 0)
(-0.0185822 0.0268313 0)
(-0.15623 0.0935524 0)
(-0.316533 0.0968784 0)
(-0.327874 0.019276 0)
(-0.18118 -0.0782591 0)
(-0.0389748 -0.12725 0)
(0.104485 -0.0935543 0)
(0.199384 -0.0422284 0)
(0.237138 -0.00192552 0)
(0.206552 0.00814772 0)
(0.186016 0.0257494 0)
(0.138473 0.0601912 0)
(-0.0126803 0.0619753 0)
(-0.0705563 0.0378442 0)
(-0.0395607 0.00378688 0)
(-0.0491656 -0.00766456 0)
(-0.0701567 -0.0161298 0)
(-0.0107272 -0.0602617 0)
(-0.0350746 -0.0273119 0)
(-0.158433 0.0788212 0)
(-0.277551 0.141077 0)
(-0.318747 0.107535 0)
(-0.246276 -0.0100729 0)
(-0.148163 -0.130117 0)
(-0.020949 -0.192178 0)
(0.0787499 -0.139868 0)
(0.155118 -0.066854 0)
(0.195454 -0.000967384 0)
(0.169669 0.0242548 0)
(0.119228 0.0421118 0)
(0.104025 0.0947322 0)
(0.0100359 0.0956556 0)
(0.0260353 0.0393689 0)
(0.0884306 -0.00164547 0)
(0.0898726 0.00854868 0)
(0.00343545 0.000558885 0)
(0.0267439 -0.0645734 0)
(-0.0484513 0.0186076 0)
(-0.199567 0.125091 0)
(-0.276902 0.154637 0)
(-0.25002 0.0881449 0)
(-0.183043 -0.0426217 0)
(-0.0973403 -0.177259 0)
(-0.00191937 -0.241222 0)
(0.0457321 -0.168405 0)
(0.0991584 -0.0858222 0)
(0.141422 -0.00198941 0)
(0.129457 0.0389271 0)
(0.0742663 0.0562539 0)
(0.0733836 0.106972 0)
(0.0570969 0.105699 0)
(0.103882 0.0264329 0)
(0.102572 -0.0184367 0)
(0.116446 0.0143167 0)
(0.0704928 0.0216989 0)
(0.0470522 -0.0415895 0)
(-0.0326474 0.0643868 0)
(-0.153175 0.163142 0)
(-0.182304 0.15538 0)
(-0.125349 0.0629244 0)
(-0.0837565 -0.0744238 0)
(-0.0158102 -0.211905 0)
(0.0192756 -0.265212 0)
(0.0163234 -0.180573 0)
(0.0407189 -0.101847 0)
(0.0801491 -0.00939603 0)
(0.0871349 0.0483627 0)
(0.0489617 0.069003 0)
(0.0480803 0.101378 0)
(0.0771222 0.088036 0)
(0.100512 0.0205223 0)
(0.0605704 -0.0118999 0)
(0.0608506 0.0208167 0)
(0.0555017 0.0336533 0)
(0.0505058 -0.0202974 0)
(-0.0137422 0.0940766 0)
(-0.0636837 0.185801 0)
(-0.0284325 0.148644 0)
(0.071355 0.0581229 0)
(0.102615 -0.0651038 0)
(0.0896071 -0.205948 0)
(0.0450619 -0.258282 0)
(-0.00705343 -0.175344 0)
(-0.0223425 -0.106953 0)
(-0.00601752 -0.0181065 0)
(0.0198976 0.0503655 0)
(0.0113765 0.0747713 0)
(0.023386 0.0918208 0)
(0.0627871 0.0731011 0)
(0.0707855 0.0299085 0)
(0.0300876 0.00467544 0)
(0.0176231 0.0195886 0)
(0.0294723 0.0277138 0)
(0.0412224 -0.00113324 0)
(-0.00835902 0.0995729 0)
(0.0160781 0.172883 0)
(0.117528 0.112712 0)
(0.226653 0.0335398 0)
(0.261062 -0.0581216 0)
(0.174689 -0.166685 0)
(0.0641447 -0.225184 0)
(-0.0256666 -0.152592 0)
(-0.081602 -0.096574 0)
(-0.0983227 -0.0236044 0)
(-0.0711304 0.0411608 0)
(-0.0547613 0.0694711 0)
(-0.0267888 0.0782427 0)
(0.009192 0.0619558 0)
(0.0185855 0.0302986 0)
(-0.0047782 0.00751758 0)
(-0.018683 0.0197494 0)
(-0.0105058 0.0228242 0)
(0.0226847 0.00888278 0)
(-0.00861198 0.103907 0)
(0.0946773 0.132368 0)
(0.233511 0.0597005 0)
(0.321481 -0.00161813 0)
(0.323776 -0.0487443 0)
(0.181555 -0.119421 0)
(0.062886 -0.181628 0)
(-0.0413293 -0.116189 0)
(-0.126964 -0.0686715 0)
(-0.179162 -0.00930378 0)
(-0.176248 0.0428572 0)
(-0.155391 0.0656282 0)
(-0.121445 0.0669377 0)
(-0.0830733 0.0551982 0)
(-0.0633746 0.0403745 0)
(-0.072876 0.0294705 0)
(-0.0811349 0.0261999 0)
(-0.0621896 0.0109991 0)
(-0.00553323 0.00251821 0)
(0.0309735 0.150416 0)
(0.114882 0.0946593 0)
(0.163862 -0.00428981 0)
(0.135228 -0.0105788 0)
(0.049398 0.0550329 0)
(0.0151949 0.13861 0)
(0.0412213 0.150942 0)
(0.0754663 0.136926 0)
(0.0814496 0.0881927 0)
(0.102567 -0.0123484 0)
(-0.0230603 -0.0438037 0)
(-0.182076 -0.0194649 0)
(-0.204602 -0.0491823 0)
(-0.175071 -0.0570327 0)
(-0.134914 -0.0125764 0)
(-0.11045 0.00553437 0)
(-0.114141 -0.0289011 0)
(-0.136565 -0.0626042 0)
(-0.172993 -0.0593474 0)
(-0.239589 -0.0690647 0)
(-0.257859 -0.0910912 0)
(-0.220424 -0.0540378 0)
(-0.160219 0.0105142 0)
(-0.0128999 -0.0173648 0)
(0.0848725 -0.0700863 0)
(0.00564304 -0.0276103 0)
(-0.0503371 0.0657691 0)
(-0.0579466 0.11403 0)
(-0.0408143 0.115596 0)
(-0.00734639 0.0443127 0)
(-0.000459402 0.0481531 0)
(-0.0062998 0.0973154 0)
(-0.126888 0.0997291 0)
(-0.267442 0.131589 0)
(-0.345807 0.0657648 0)
(-0.352708 -0.0698488 0)
(-0.318358 -0.11816 0)
(-0.273135 -0.0757843 0)
(-0.254582 -0.0258007 0)
(-0.302013 0.00990547 0)
(-0.394303 0.0255962 0)
(-0.447314 -0.0120848 0)
(-0.447802 -0.0807966 0)
(-0.427856 -0.125668 0)
(-0.409959 -0.117033 0)
(-0.395267 -0.0852763 0)
(-0.266713 0.112517 0)
(-0.311864 0.107115 0)
(-0.391061 0.0988938 0)
(-0.338113 0.0743785 0)
(-0.338453 0.099965 0)
(-0.322092 0.113888 0)
(-0.319196 0.112086 0)
(-0.296799 0.14182 0)
(-0.320277 0.180568 0)
(-0.405067 0.181292 0)
(-0.497143 0.132221 0)
(-0.579155 -0.0121726 0)
(-0.57963 -0.142763 0)
(-0.510799 -0.157887 0)
(-0.474095 -0.0740538 0)
(-0.483827 0.0217091 0)
(-0.513348 0.0828675 0)
(-0.553306 0.0794871 0)
(-0.56399 -0.00874127 0)
(-0.543045 -0.106702 0)
(-0.508582 -0.126802 0)
(-0.493401 -0.0735138 0)
(-0.535865 -0.0286458 0)
(-0.152633 0.548893 0)
(-0.691666 0.153245 0)
(-0.870243 0.0160163 0)
(-0.865459 0.0519281 0)
(-0.806066 0.0649813 0)
(-0.677307 0.0460369 0)
(-0.571785 0.0657936 0)
(-0.510295 0.157843 0)
(-0.502712 0.232875 0)
(-0.546284 0.26275 0)
(-0.636459 0.252569 0)
(-0.759544 0.123186 0)
(-0.714623 -0.170679 0)
(-0.622518 -0.195818 0)
(-0.57157 -0.0476394 0)
(-0.56756 0.0570634 0)
(-0.592041 0.105608 0)
(-0.604666 0.0683626 0)
(-0.600908 -0.0522885 0)
(-0.566982 -0.154836 0)
(-0.490907 -0.177538 0)
(-0.409787 -0.0799388 0)
(-0.376273 0.0196074 0)
(-0.0041175 0.864424 0)
(-0.30312 0.64491 0)
(-0.605138 0.211726 0)
(-0.790661 -0.0113281 0)
(-0.870891 -0.0383415 0)
(-0.865216 -0.0932818 0)
(-0.826873 -0.0698527 0)
(-0.785785 0.0893989 0)
(-0.748246 0.253156 0)
(-0.744082 0.36081 0)
(-0.717419 0.36795 0)
(-0.654017 0.194582 0)
(-0.623265 -0.196708 0)
(-0.673051 -0.275587 0)
(-0.601825 -0.0941768 0)
(-0.528812 0.0633493 0)
(-0.445626 0.118955 0)
(-0.222768 0.0990217 0)
(-0.39536 0.0361825 0)
(-0.363175 -0.148895 0)
(-0.351673 -0.283494 0)
(-0.288415 -0.171888 0)
(-0.172958 -0.0581988 0)
(0.0410438 0.918591 0)
(-0.0511222 0.966158 0)
(-0.409487 0.555719 0)
(-0.70022 0.301943 0)
(-0.995173 0.122508 0)
(-1.20174 -0.0339585 0)
(-1.2891 -0.0862312 0)
(-1.23109 -0.0137329 0)
(-1.09567 0.126681 0)
(-0.9504 0.248891 0)
(-0.793439 0.268059 0)
(-0.618846 0.141087 0)
(-0.481722 -0.0752056 0)
(-0.363218 -0.219531 0)
(-0.365387 -0.3139 0)
(-0.490056 -0.215053 0)
(-0.5746 -0.239439 0)
(-0.54546 0.281965 0)
(-0.551934 0.0157019 0)
(-0.417137 -0.307325 0)
(-0.304888 -0.314472 0)
(-0.196856 -0.200608 0)
(-0.221383 -0.39216 0)
(-0.0139384 0.834043 0)
(0.0448392 1.16331 0)
(-0.298632 0.855736 0)
(-0.616061 0.621869 0)
(-0.930601 0.411367 0)
(-1.16555 0.197788 0)
(-1.30306 0.0314503 0)
(-1.30892 -0.045466 0)
(-1.2068 -0.040203 0)
(-1.0495 -0.0138 0)
(-0.876805 -0.0722072 0)
(-0.730139 -0.22403 0)
(-0.612512 -0.354307 0)
(-0.48269 -0.294334 0)
(-0.346751 -0.0467351 0)
(-0.419111 0.0431876 0)
(-0.482908 0.00910594 0)
(-0.452064 0.089774 0)
(-0.370743 -0.138615 0)
(-0.290688 -0.405807 0)
(-0.237843 -0.431314 0)
(-0.188063 -0.218515 0)
(-0.181492 -0.0471578 0)
(-0.0821903 0.813818 0)
(0.0391242 1.29605 0)
(-0.224792 1.12897 0)
(-0.505641 0.906507 0)
(-0.745483 0.636904 0)
(-0.925601 0.30319 0)
(-1.01594 0.0483464 0)
(-1.02502 -0.0762846 0)
(-0.979876 -0.107349 0)
(-0.874057 -0.109555 0)
(-0.747854 -0.135722 0)
(-0.641616 -0.257843 0)
(-0.576062 -0.440355 0)
(-0.535275 -0.455557 0)
(-0.389245 -0.226413 0)
(-0.179546 0.0289971 0)
(-0.14556 0.000342764 0)
(-0.0754661 0.0488409 0)
(-0.040726 -0.0886714 0)
(-0.0508784 -0.380509 0)
(-0.0711474 -0.481746 0)
(-0.0330823 -0.37064 0)
(0.0833974 -0.210632 0)
(-0.120998 0.861074 0)
(-0.0109848 1.35346 0)
(-0.16336 1.35589 0)
(-0.37769 1.1245 0)
(-0.510881 0.824916 0)
(-0.641646 0.472715 0)
(-0.774563 0.168213 0)
(-0.866714 -0.0382381 0)
(-0.868799 -0.164342 0)
(-0.771471 -0.24441 0)
(-0.613312 -0.306853 0)
(-0.45007 -0.349206 0)
(-0.353513 -0.405416 0)
(-0.436328 -0.453336 0)
(-0.441897 -0.447866 0)
(-0.188071 -0.32645 0)
(0.090921 -0.0991053 0)
(0.302334 0.0385755 0)
(0.356237 -0.0312292 0)
(0.220351 -0.281693 0)
(0.0980549 -0.473358 0)
(0.0985797 -0.443858 0)
(0.166159 -0.255011 0)
(-0.126349 0.947759 0)
(-0.072102 1.35123 0)
(-0.122284 1.50253 0)
(-0.26174 1.25294 0)
(-0.313701 0.937597 0)
(-0.419225 0.610155 0)
(-0.582111 0.321989 0)
(-0.740254 0.0702018 0)
(-0.797722 -0.160347 0)
(-0.72668 -0.36401 0)
(-0.555777 -0.515068 0)
(-0.360273 -0.548893 0)
(-0.204328 -0.467511 0)
(-0.173561 -0.318863 0)
(-0.285321 -0.496434 0)
(-0.165473 -0.593119 0)
(-0.0589776 -0.543705 0)
(0.258281 -0.28958 0)
(0.537289 0.0178333 0)
(0.499184 -0.0660799 0)
(0.28586 -0.341316 0)
(0.182727 -0.477483 0)
(0.16871 -0.347034 0)
(-0.113454 1.03846 0)
(-0.0868532 1.37116 0)
(-0.0953641 1.55644 0)
(-0.156458 1.30453 0)
(-0.166453 0.998686 0)
(-0.257783 0.718978 0)
(-0.405223 0.45602 0)
(-0.542883 0.160706 0)
(-0.605293 -0.166089 0)
(-0.592014 -0.466557 0)
(-0.501286 -0.678672 0)
(-0.3472 -0.734978 0)
(-0.187578 -0.623532 0)
(-0.0246744 -0.384246 0)
(0.0293669 -0.347729 0)
(0.0466361 -0.557873 0)
(0.00905081 -0.656973 0)
(0.100921 -0.590215 0)
(0.36532 -0.263219 0)
(0.568329 -0.0386647 0)
(0.481045 -0.128179 0)
(0.316414 -0.395276 0)
(0.20782 -0.338384 0)
(-0.0948039 1.11845 0)
(-0.0407096 1.38035 0)
(-0.0502506 1.54541 0)
(-0.033033 1.31641 0)
(-0.0302843 1.03473 0)
(-0.0939922 0.801994 0)
(-0.186995 0.564712 0)
(-0.266529 0.255792 0)
(-0.299621 -0.120806 0)
(-0.293306 -0.498523 0)
(-0.246864 -0.783048 0)
(-0.168455 -0.872343 0)
(-0.0600083 -0.77106 0)
(0.0587909 -0.572907 0)
(0.195367 -0.476227 0)
(0.262536 -0.508301 0)
(0.250507 -0.591759 0)
(0.159217 -0.636544 0)
(0.205614 -0.475194 0)
(0.402609 -0.152495 0)
(0.496867 -0.0573267 0)
(0.411132 -0.267219 0)
(0.271469 -0.21221 0)
(-0.0464993 1.15646 0)
(0.0728935 1.38266 0)
(0.0197255 1.48157 0)
(0.121083 1.30392 0)
(0.134064 1.05907 0)
(0.112621 0.850644 0)
(0.0828757 0.625581 0)
(0.0690155 0.3237 0)
(0.0787776 -0.0621584 0)
(0.103324 -0.488107 0)
(0.135071 -0.825363 0)
(0.170669 -0.953067 0)
(0.211906 -0.868145 0)
(0.264993 -0.687798 0)
(0.346771 -0.586309 0)
(0.400065 -0.551366 0)
(0.447184 -0.539717 0)
(0.317183 -0.556963 0)
(0.223554 -0.531816 0)
(0.302347 -0.286381 0)
(0.452389 -0.14798 0)
(0.424017 -0.189644 0)
(0.3266 -0.0868914 0)
(0.053291 1.06009 0)
(0.24617 1.4382 0)
(0.200947 1.41165 0)
(0.293256 1.24331 0)
(0.326847 1.03652 0)
(0.348514 0.840296 0)
(0.374187 0.614824 0)
(0.40944 0.317231 0)
(0.462984 -0.0679215 0)
(0.523673 -0.501002 0)
(0.551232 -0.84662 0)
(0.542743 -0.980776 0)
(0.518779 -0.900007 0)
(0.509738 -0.734352 0)
(0.53184 -0.62711 0)
(0.542546 -0.578628 0)
(0.550579 -0.504696 0)
(0.438001 -0.435031 0)
(0.280912 -0.453473 0)
(0.303093 -0.342561 0)
(0.389681 -0.19882 0)
(0.367091 -0.134533 0)
(0.316923 0.0134564 0)
(0.170075 0.776122 0)
(0.472421 1.37767 0)
(0.546809 1.40659 0)
(0.595527 1.21939 0)
(0.616083 0.993695 0)
(0.645321 0.775801 0)
(0.698436 0.53553 0)
(0.766711 0.236685 0)
(0.859374 -0.1366 0)
(0.936077 -0.538947 0)
(0.939547 -0.845853 0)
(0.869922 -0.949759 0)
(0.770184 -0.859824 0)
(0.700358 -0.708895 0)
(0.663584 -0.607431 0)
(0.626211 -0.55311 0)
(0.582804 -0.439781 0)
(0.448993 -0.315828 0)
(0.270823 -0.384153 0)
(0.299076 -0.336791 0)
(0.311379 -0.240749 0)
(0.270714 -0.113094 0)
(0.201049 0.149973 0)
(0.145702 0.302854 0)
(0.566185 1.03536 0)
(0.844507 1.29878 0)
(0.991153 1.21891 0)
(1.05577 1.00459 0)
(1.09626 0.755216 0)
(1.14859 0.483289 0)
(1.2146 0.170205 0)
(1.28694 -0.188202 0)
(1.30721 -0.539657 0)
(1.23194 -0.779971 0)
(1.0729 -0.836131 0)
(0.899371 -0.738097 0)
(0.7663 -0.606105 0)
(0.687803 -0.53902 0)
(0.605956 -0.4795 0)
(0.470204 -0.27704 0)
(0.294538 -0.160266 0)
(0.179067 -0.363809 0)
(0.213387 -0.354528 0)
(0.158075 -0.189915 0)
(0.114764 -0.0348317 0)
(-0.0715863 0.448542 0)
(-0.0603787 0.0451076 0)
(0.410283 0.597545 0)
(0.84514 0.967763 0)
(1.16277 1.04616 0)
(1.36977 0.936376 0)
(1.49362 0.727722 0)
(1.56617 0.463897 0)
(1.60644 0.159815 0)
(1.59786 -0.163607 0)
(1.50665 -0.447263 0)
(1.32243 -0.615786 0)
(1.07675 -0.632302 0)
(0.858809 -0.549154 0)
(0.72269 -0.48788 0)
(0.62646 -0.450003 0)
(0.503827 -0.344824 0)
(0.259489 -0.0489469 0)
(0.0654982 -0.080875 0)
(0.0627615 -0.341682 0)
(0.0588368 -0.282152 0)
(-0.0120552 -0.147617 0)
(-0.0784804 0.142905 0)
(-0.292696 0.684051 0)
(-0.150246 0.0323204 0)
(0.0749471 0.197039 0)
(0.490063 0.484691 0)
(0.909588 0.659887 0)
(1.24674 0.67604 0)
(1.4726 0.569674 0)
(1.59083 0.384859 0)
(1.61376 0.153505 0)
(1.54024 -0.0827225 0)
(1.37545 -0.27618 0)
(1.12871 -0.3763 0)
(0.86994 -0.38687 0)
(0.706963 -0.381278 0)
(0.597299 -0.375872 0)
(0.478343 -0.334578 0)
(0.335496 -0.146394 0)
(0.0667265 0.241539 0)
(-0.0360349 -0.0907229 0)
(-0.0588668 -0.305839 0)
(-0.0712048 -0.237309 0)
(-0.165259 -0.13382 0)
(-0.250396 0.35672 0)
(-0.3732 0.787655 0)
(-0.107321 0.1008 0)
(0.0570367 -0.0210273 0)
(0.166746 0.0587364 0)
(0.456372 0.210975 0)
(0.770958 0.306627 0)
(1.01721 0.317979 0)
(1.16833 0.256249 0)
(1.20877 0.14483 0)
(1.12941 0.0143433 0)
(0.975768 -0.101048 0)
(0.755294 -0.147749 0)
(0.613543 -0.222463 0)
(0.513619 -0.265953 0)
(0.406854 -0.272489 0)
(0.273738 -0.198308 0)
(0.182983 0.0528826 0)
(0.0442317 0.415006 0)
(-0.0473974 -0.0657561 0)
(-0.1541 -0.279952 0)
(-0.133531 -0.144261 0)
(-0.246875 -0.0435952 0)
(-0.287134 0.435028 0)
(-0.307321 0.787091 0)
(0.0414249 0.0580959 0)
(0.281273 -0.00884783 0)
(0.293396 -0.00877539 0)
(0.269453 0.064159 0)
(0.382676 0.118011 0)
(0.550295 0.151959 0)
(0.655457 0.17153 0)
(0.678364 0.182801 0)
(0.617901 0.169555 0)
(0.53487 0.0882626 0)
(0.493204 -0.0309623 0)
(0.425855 -0.143185 0)
(0.302134 -0.158589 0)
(0.167241 -0.156465 0)
(0.117478 -0.106289 0)
(0.101579 0.139588 0)
(0.0693086 0.468487 0)
(0.0878327 0.100551 0)
(-0.142256 -0.219847 0)
(-0.126955 -0.086568 0)
(-0.0888673 0.138447 0)
(-0.160919 0.419537 0)
(-0.119241 0.706944 0)
(0.0909151 -0.285252 0)
(0.360961 -0.149309 0)
(0.265448 0.095338 0)
(0.0397395 0.206257 0)
(0.0193616 0.111112 0)
(0.140927 0.122043 0)
(0.246743 0.164479 0)
(0.32882 0.167685 0)
(0.384103 0.119623 0)
(0.402821 0.0376559 0)
(0.342447 0.00848836 0)
(0.179846 0.000866569 0)
(0.0845563 -0.0458739 0)
(0.0471698 -0.113723 0)
(0.0141001 -0.079075 0)
(0.0475912 0.125465 0)
(0.102517 0.40327 0)
(0.193689 0.204983 0)
(0.114607 -0.0384336 0)
(-0.0795604 -0.264236 0)
(-0.0795026 0.00895816 0)
(-0.0177784 0.380069 0)
(0.093159 0.586834 0)
(0.0153027 -0.458711 0)
(0.280002 -0.216438 0)
(0.169477 0.308117 0)
(-0.0792655 0.258748 0)
(0.0936224 -0.0813821 0)
(0.199274 -0.0926645 0)
(0.24695 -0.00557766 0)
(0.230166 0.107541 0)
(0.184666 0.146441 0)
(0.0993252 0.130161 0)
(0.0372705 0.119675 0)
(0.00568704 0.0889365 0)
(-0.0111866 -0.0103923 0)
(-0.0244166 -0.0845374 0)
(-0.0280406 -0.0845525 0)
(0.0145319 0.035835 0)
(0.130934 0.244035 0)
(0.250175 0.166517 0)
(0.266156 0.0616398 0)
(0.176295 0.0277204 0)
(0.0313321 0.011604 0)
(0.054977 0.253428 0)
(0.196993 0.411641 0)
(-0.00301454 -0.610493 0)
(0.200991 -0.275291 0)
(0.114608 0.475352 0)
(-0.0530246 0.241867 0)
(0.165435 -0.211903 0)
(0.115445 -0.0453315 0)
(0.00259817 0.140875 0)
(-0.0761646 0.203172 0)
(-0.148893 0.210121 0)
(-0.216919 0.194855 0)
(-0.237641 0.162754 0)
(-0.207591 0.0859095 0)
(-0.155483 -0.0257126 0)
(-0.0792872 -0.0911314 0)
(-0.0132713 -0.0953019 0)
(0.040881 -0.0367209 0)
(0.146929 0.0743911 0)
(0.248851 0.0756588 0)
(0.278092 0.056223 0)
(0.243322 0.0670838 0)
(0.179076 0.107712 0)
(0.158623 0.192479 0)
(0.239522 0.269312 0)
(0.0151183 -0.733981 0)
(0.130197 -0.272638 0)
(0.0406026 0.582647 0)
(0.0116033 0.198375 0)
(0.0409992 -0.144864 0)
(-0.138201 0.155548 0)
(-0.271462 0.23547 0)
(-0.351936 0.270314 0)
(-0.439111 0.298429 0)
(-0.499 0.243901 0)
(-0.470042 0.125544 0)
(-0.375473 -0.020657 0)
(-0.25711 -0.143306 0)
(-0.132232 -0.199996 0)
(-0.00925465 -0.189312 0)
(0.108468 -0.108492 0)
(0.210075 -0.0075632 0)
(0.283441 0.0498118 0)
(0.302959 0.0780926 0)
(0.27671 0.103704 0)
(0.238941 0.138575 0)
(0.223218 0.179152 0)
(0.257056 0.203385 0)
(0.0188185 -0.803677 0)
(0.0160321 -0.248105 0)
(-0.092105 0.657884 0)
(-0.0115183 0.123124 0)
(-0.074402 -0.01086 0)
(-0.287588 0.293882 0)
(-0.401801 0.325264 0)
(-0.525036 0.371511 0)
(-0.617127 0.36176 0)
(-0.619937 0.215849 0)
(-0.539339 0.0212396 0)
(-0.423293 -0.159762 0)
(-0.295373 -0.29398 0)
(-0.161289 -0.353328 0)
(-0.0202584 -0.344162 0)
(0.119205 -0.260488 0)
(0.248896 -0.124436 0)
(0.34254 0.00371109 0)
(0.373772 0.091852 0)
(0.349653 0.142628 0)
(0.305311 0.16811 0)
(0.275712 0.180637 0)
(0.278263 0.176796 0)
(0.00271833 -0.803731 0)
(-0.105347 -0.00725922 0)
(-0.173424 0.615232 0)
(-0.0469466 0.0836121 0)
(-0.153731 0.172635 0)
(-0.339865 0.426912 0)
(-0.450449 0.448583 0)
(-0.582834 0.474342 0)
(-0.630367 0.377208 0)
(-0.5818 0.153575 0)
(-0.489917 -0.0813119 0)
(-0.382674 -0.283563 0)
(-0.266281 -0.427402 0)
(-0.147999 -0.496485 0)
(-0.0163573 -0.493755 0)
(0.113424 -0.408507 0)
(0.237149 -0.253179 0)
(0.33958 -0.0741744 0)
(0.396153 0.0772 0)
(0.394258 0.171394 0)
(0.356257 0.207694 0)
(0.318044 0.204683 0)
(0.301083 0.178839 0)
(-0.0126962 -0.741025 0)
(-0.11252 0.0565766 0)
(-0.158782 0.550513 0)
(-0.0343997 0.0741422 0)
(-0.168366 0.329527 0)
(-0.311895 0.55188 0)
(-0.412226 0.566249 0)
(-0.517324 0.541454 0)
(-0.519538 0.356074 0)
(-0.451561 0.0800807 0)
(-0.367662 -0.174079 0)
(-0.276934 -0.383856 0)
(-0.185145 -0.532726 0)
(-0.0973007 -0.612961 0)
(-0.00211657 -0.615956 0)
(0.0981259 -0.531342 0)
(0.195455 -0.365232 0)
(0.283316 -0.156513 0)
(0.347928 0.0416259 0)
(0.368034 0.180059 0)
(0.347366 0.239008 0)
(0.315321 0.233756 0)
(0.293496 0.19482 0)
(-0.0253306 -0.680886 0)
(-0.0752829 0.077836 0)
(-0.09633 0.517992 0)
(-0.00877322 0.0860598 0)
(-0.128881 0.44471 0)
(-0.221792 0.655711 0)
(-0.297693 0.652002 0)
(-0.365886 0.575765 0)
(-0.342828 0.331343 0)
(-0.278129 0.026765 0)
(-0.207939 -0.246485 0)
(-0.144804 -0.459079 0)
(-0.0867794 -0.602284 0)
(-0.039269 -0.684918 0)
(0.00458401 -0.6925 0)
(0.0611814 -0.614495 0)
(0.120299 -0.444438 0)
(0.182034 -0.221771 0)
(0.238988 0.00326892 0)
(0.272177 0.172003 0)
(0.271956 0.251625 0)
(0.257983 0.252591 0)
(0.245183 0.21109 0)
(-0.0469209 -0.626823 0)
(-0.0639591 0.108609 0)
(-0.0575633 0.522412 0)
(0.0142605 0.117531 0)
(-0.0760245 0.505633 0)
(-0.10166 0.730704 0)
(-0.144705 0.700353 0)
(-0.176284 0.588765 0)
(-0.142276 0.311879 0)
(-0.0908134 -0.0157462 0)
(-0.0385703 -0.300289 0)
(-0.0100098 -0.502991 0)
(0.00606572 -0.62904 0)
(0.00876783 -0.704361 0)
(0.000435123 -0.715839 0)
(0.00593286 -0.647399 0)
(0.0201455 -0.481316 0)
(0.0505496 -0.258282 0)
(0.0920406 -0.0264473 0)
(0.130261 0.152682 0)
(0.150409 0.242126 0)
(0.160506 0.252506 0)
(0.166381 0.21534 0)
(-0.0735168 -0.577308 0)
(-0.0534429 0.118243 0)
(-0.0712795 0.499003 0)
(0.0613814 0.0913606 0)
(-0.0218648 0.524797 0)
(0.0115471 0.762223 0)
(-0.00451629 0.707015 0)
(0.00337525 0.576485 0)
(0.0469903 0.29104 0)
(0.0863522 -0.0358026 0)
(0.123288 -0.325377 0)
(0.12134 -0.513952 0)
(0.0921619 -0.614706 0)
(0.0494425 -0.674441 0)
(-0.00557758 -0.688095 0)
(-0.0502902 -0.630216 0)
(-0.0799867 -0.475248 0)
(-0.081947 -0.264418 0)
(-0.0583517 -0.0483811 0)
(-0.020312 0.12507 0)
(0.0185149 0.214917 0)
(0.0522676 0.230575 0)
(0.0796258 0.199873 0)
(-0.100356 -0.523806 0)
(-0.0666304 0.142859 0)
(-0.108594 0.385307 0)
(0.109447 0.095337 0)
(0.0634072 0.51121 0)
(0.0965394 0.759666 0)
(0.09644 0.683348 0)
(0.126483 0.521977 0)
(0.182932 0.239681 0)
(0.23714 -0.0689619 0)
(0.275436 -0.331956 0)
(0.24893 -0.489382 0)
(0.17483 -0.558917 0)
(0.091242 -0.601641 0)
(-0.00155933 -0.617757 0)
(-0.0873621 -0.572095 0)
(-0.151347 -0.437046 0)
(-0.179782 -0.25104 0)
(-0.171418 -0.0626033 0)
(-0.136284 0.0891756 0)
(-0.0884132 0.171222 0)
(-0.038249 0.188175 0)
(0.0105689 0.161539 0)
(-0.123296 -0.455767 0)
(-0.0691352 0.191402 0)
(-0.0907763 0.225566 0)
(0.0745259 -0.0239649 0)
(0.145144 0.450851 0)
(0.179541 0.75189 0)
(0.187466 0.668581 0)
(0.225226 0.45997 0)
(0.300806 0.176522 0)
(0.389665 -0.107897 0)
(0.43443 -0.324294 0)
(0.37776 -0.428583 0)
(0.25536 -0.462365 0)
(0.136379 -0.493591 0)
(0.0182643 -0.515822 0)
(-0.0932898 -0.485325 0)
(-0.177148 -0.378007 0)
(-0.221809 -0.227135 0)
(-0.22412 -0.0757599 0)
(-0.194206 0.0452653 0)
(-0.143615 0.113635 0)
(-0.083628 0.127703 0)
(-0.0212082 0.101718 0)
(-0.144192 -0.347745 0)
(-0.0263098 0.18992 0)
(-0.00341561 0.157054 0)
(0.0541825 -0.0903158 0)
(0.152697 0.35949 0)
(0.235724 0.718395 0)
(0.274134 0.659765 0)
(0.332739 0.410999 0)
(0.440947 0.0978802 0)
(0.561052 -0.162523 0)
(0.602858 -0.29525 0)
(0.501034 -0.319793 0)
(0.323417 -0.324431 0)
(0.177531 -0.360488 0)
(0.0502696 -0.396946 0)
(-0.0691397 -0.386055 0)
(-0.157181 -0.310555 0)
(-0.206966 -0.198534 0)
(-0.214983 -0.0868602 0)
(-0.189046 -0.000284406 0)
(-0.139815 0.047329 0)
(-0.0802949 0.0559752 0)
(-0.0250782 0.0431386 0)
(-0.167782 -0.222254 0)
(-0.0296924 0.0585415 0)
(0.103667 0.071666 0)
(0.146401 -0.0860477 0)
(0.0856094 0.25819 0)
(0.201296 0.638373 0)
(0.274918 0.602245 0)
(0.361619 0.31754 0)
(0.508407 -0.0473918 0)
(0.656456 -0.243745 0)
(0.70238 -0.241334 0)
(0.564655 -0.166017 0)
(0.344529 -0.155763 0)
(0.196071 -0.218949 0)
(0.0805405 -0.278778 0)
(-0.0290652 -0.290457 0)
(-0.107368 -0.24638 0)
(-0.152305 -0.171817 0)
(-0.159654 -0.0978157 0)
(-0.137919 -0.0422911 0)
(-0.0983708 -0.011018 0)
(-0.0554694 0.00199335 0)
(-0.021811 0.0069077 0)
(-0.167399 -0.130793 0)
(-0.0984705 -0.129067 0)
(0.0886897 -0.000745036 0)
(0.139015 -0.017316 0)
(-0.00199682 0.242112 0)
(0.0902691 0.55599 0)
(0.14417 0.505063 0)
(0.254194 0.103312 0)
(0.413562 -0.267806 0)
(0.547108 -0.356174 0)
(0.605354 -0.211034 0)
(0.46659 -0.0164909 0)
(0.271504 0.00434364 0)
(0.176582 -0.0970878 0)
(0.0955035 -0.179425 0)
(0.00915693 -0.209756 0)
(-0.0517157 -0.192106 0)
(-0.088295 -0.148813 0)
(-0.095161 -0.103438 0)
(-0.0828172 -0.0672477 0)
(-0.0605377 -0.0423547 0)
(-0.0380445 -0.0251766 0)
(-0.01745 -0.0166339 0)
(-0.0213177 0.0384064 0)
(-0.0652316 -0.222443 0)
(-0.0231148 -0.164142 0)
(0.0649016 -0.0211953 0)
(-0.0516648 0.29834 0)
(-0.0401509 0.505656 0)
(0.0196761 0.393035 0)
(0.245281 -0.109953 0)
(0.352899 -0.363131 0)
(0.392466 -0.343365 0)
(0.373311 -0.111362 0)
(0.215378 0.127658 0)
(0.138838 0.0864364 0)
(0.134739 -0.0349955 0)
(0.0937342 -0.112086 0)
(0.0356458 -0.148836 0)
(-0.00766351 -0.149169 0)
(-0.0373014 -0.127516 0)
(-0.0463479 -0.101191 0)
(-0.0447926 -0.0769523 0)
(-0.0369727 -0.0563228 0)
(-0.0262675 -0.0406577 0)
(-0.0130384 -0.0330352 0)
(0.067826 -0.013846 0)
(0.0752064 -0.111414 0)
(-0.0495192 -0.136639 0)
(-0.0235854 0.00347374 0)
(-0.0997481 0.373987 0)
(-0.093366 0.468607 0)
(0.109454 0.189592 0)
(0.304655 -0.226678 0)
(0.329153 -0.399737 0)
(0.264523 -0.289718 0)
(0.130532 0.0563324 0)
(0.0431559 0.174815 0)
(0.0856194 0.0711543 0)
(0.106688 -0.0198309 0)
(0.0856298 -0.0728506 0)
(0.0494382 -0.106587 0)
(0.0185506 -0.115725 0)
(-0.00578313 -0.107145 0)
(-0.0177984 -0.0918069 0)
(-0.0233353 -0.0754532 0)
(-0.0230293 -0.0604415 0)
(-0.0176928 -0.049438 0)
(-0.00952708 -0.0438456 0)
(0.0435196 -0.136406 0)
(0.16439 -0.0699769 0)
(0.0267122 -0.0529101 0)
(-0.0840537 0.0536094 0)
(-0.143553 0.36535 0)
(-0.00362884 0.339226 0)
(0.221069 0.00363917 0)
(0.320125 -0.285281 0)
(0.265698 -0.334745 0)
(0.0977208 -0.106293 0)
(-0.0429163 0.150466 0)
(0.00710346 0.118675 0)
(0.0681676 0.0261349 0)
(0.079633 -0.0171154 0)
(0.0707272 -0.0511906 0)
(0.0497448 -0.0790265 0)
(0.0277645 -0.0897087 0)
(0.00840425 -0.088428 0)
(-0.00413881 -0.0800363 0)
(-0.0114486 -0.0700849 0)
(-0.0134333 -0.061076 0)
(-0.0109926 -0.0543421 0)
(-0.00650291 -0.050424 0)
(0.0618007 -0.251802 0)
(0.125204 -0.164755 0)
(0.145317 0.105505 0)
(-0.0750226 0.156599 0)
(-0.0780487 0.249857 0)
(0.0972085 0.141438 0)
(0.244188 -0.128194 0)
(0.263289 -0.278326 0)
(0.123052 -0.200958 0)
(-0.0828293 0.0805815 0)
(-0.0539683 0.113594 0)
(0.0186242 0.0451112 0)
(0.0448544 0.0018547 0)
(0.0512711 -0.0154823 0)
(0.0500464 -0.0416919 0)
(0.0387617 -0.0620287 0)
(0.0249457 -0.0710945 0)
(0.0115094 -0.0732246 0)