/*--------------------------------*- C++ -*----------------------------------*\
| =========                 |                                                 |
| \\      /  F ield         | OpenFOAM: The Open Source CFD Toolbox           |
|  \\    /   O peration     | Version:  2.3.0                                 |
|   \\  /    A nd           | Web:      www.OpenFOAM.org                      |
|    \\/     M anipulation  |                                                 |
\*---------------------------------------------------------------------------*/
FoamFile
{
    version     2.0;
    format      ascii;
    class       volScalarField;
    location    "2.55";
    object      alpha.water;
}
// * * * * * * * * * * * * * * * * * * * * * * * * * * * * * * * * * * * * * //

dimensions      [0 0 0 0 0 0 0];

internalField   nonuniform List<scalar> 
2268
(
1
1
1
1
1
1
0.999999
0.999999
1
1
0.999998
0.999998
0.999999
0.999998
0.999998
0.999996
0.999788
0.989567
0.980552
0.998568
0.998817
0.995586
0.99515
1
1
1
1
1
0.999998
0.999998
0.999999
0.999998
0.999999
0.999998
0.999996
0.999996
0.999997
0.999997
0.99999
0.997766
0.982009
0.980121
0.989398
0.998988
0.999047
0.999047
1
1
1
1
1
0.999999
0.999999
0.999999
0.999998
0.999998
0.999997
0.999997
0.999999
1
0.999999
0.999993
0.99778
0.982538
0.980121
0.980121
0.985666
0.998925
0.999992
1
1
1
1
0.999999
0.999999
1
0.999999
0.999998
0.999998
0.999999
0.999999
1
1
1
0.999999
0.99996
0.994004
0.98032
0.980232
0.980829
0.997122
0.999992
1
1
1
1
0.999999
1
1
1
0.999999
0.999998
1
1
1
1
1
1
0.999997
0.999079
0.992876
0.988572
0.99847
0.999993
0.999992
1
1
1
0.999999
1
1
1
1
0.999999
0.999998
0.999999
1
1
1
1
0.999999
0.999986
0.999981
1
1
0.999999
0.999996
0.999992
1
1
0.999999
0.999999
1
1
1
1
0.999999
0.999999
1
1
1
1
1
1
1
1
1
0.999999
0.999996
0.999986
0.999984
1
1
1
1
1
1
1
0.999999
1
1
1
1
1
1
1
1
1
1
1
0.999995
0.999974
0.999893
0.998814
0.946422
0.946422
0.965246
0.974421
0.969642
0.968481
0.965721
0.928003
0.922797
0.945501
0.994132
0.994261
0.991081
0.990902
0.968982
0.963676
0.969442
0.974077
0.969116
0.946422
0.982654
0.997419
0.997424
0.997428
0.997428
0.997428
0.994412
0.922797
0.965061
0.994261
0.994261
0.984873
0.931314
0.961598
0.982718
0.993887
0.993876
0.986459
0.950879
0.997416
0.997416
0.99738
0.997303
0.997428
0.997428
0.997428
0.962181
0.925401
0.992367
0.991898
0.907663
0.901443
0.901298
0.958036
0.993876
0.993862
0.993863
0.950719
0.9968
0.997089
0.995886
0.995886
0.997401
0.997427
0.99742
0.956498
0.925099
0.941614
0.931959
0.901443
0.901377
0.901382
0.948601
0.993862
0.993863
0.993817
0.950719
0.996259
0.997521
0.997308
0.996782
0.992715
0.99742
0.997421
0.941757
0.925099
0.925099
0.955508
0.901377
0.901373
0.90137
0.961858
0.993514
0.99386
0.993453
0.953538
0.997064
0.998235
0.998235
0.998235
0.989458
0.989747
0.997023
0.967186
0.925099
0.960476
0.994135
0.901377
0.901371
0.901377
0.972775
0.993655
0.993758
0.993556
0.990779
0.996801
0.998233
0.998235
0.998235
0.993999
0.959726
0.996892
0.996536
0.965455
0.994852
0.994953
0.98168
0.914211
0.931177
0.990171
0.993686
0.993686
0.993689
0.996306
0.996875
0.998231
0.998232
0.998229
0.995516
0.903816
0.963314
0.995831
0.995554
0.99525
0.995012
0.994953
0.992148
0.990874
0.988532
0.991356
0.993686
0.993689
1
1
1
1
1
1
1
1
1
1
1
1
1
1
1
1
1
0.999999
0.999994
0.99996
0.999828
0.99864
0.983182
0.867321
0.870987
0.875521
0.883181
0.893472
0.906527
0.922234
0.94023
0.957661
0.97247
0.986861
0.99932
1
1
1
1
0.999999
0.999993
0.999746
0.998557
0.992015
0.980367
0.972796
0.146492
0.140481
0.145869
0.161273
0.182661
0.205682
0.232173
0.25861
0.298728
0.344259
0.385934
0.434972
0.498611
0.558179
0.615029
0.683985
0.721167
0.721192
0.688686
0.615543
0.502626
0.431225
0.429718
0.00550337
0.00648036
0.00670888
0.00497024
0.00362196
0.0040781
0.00513175
0.00998774
0.0106435
0.00921841
0.00920315
0.00950614
0.0134491
0.0271429
0.0459381
0.0606088
0.0654179
0.0666719
0.0521921
0.020041
0.00377907
0.00387615
0.00394634
0.00532396
0.00767395
0.00806809
0.00557323
0.00333162
0.00362196
0.00493381
0.0141896
0.0116833
0.00921837
0.00921706
0.00925388
0.00966149
0.0112361
0.0195679
0.00449916
0.00381136
0.00372851
0.00364614
0.0036037
0.0036595
0.00377545
0.00422257
0.00372544
0.00357943
0.0047252
0.00554106
0.0025926
0.00655968
0.00770043
0.00710799
0.00282329
0.0141201
0.0219107
0.0220172
0.0220026
0.0220149
0.0207685
0.00373694
0.00372764
0.00368461
0.00360383
0.00351166
0.00360376
0.0051622
0.014699
0.0010641
6.76754e-05
0.000961482
0.00256185
0.00246885
0.00200077
0.00203932
0.000713018
0.00142797
0.0114489
0.0216881
0.0219399
0.0204123
0.0220026
0.0143459
0.00403092
0.00401595
0.0045566
0.00372335
0.00342295
0.00432025
0.0159603
0.0159603
3.39617e-05
1.0566e-05
1.56607e-05
4.457e-05
0.000268095
0.000235656
0.000346305
0.000486256
0.00254095
0.00399774
0.00194185
0.00146485
0.00185542
0.00750512
0.0131723
0.0131226
0.0128852
0.0128586
0.00753242
0.00343409
0.00343429
0.0115872
0.012848
8.19958e-06
2.92079e-06
4.63979e-06
9.26933e-06
2.72267e-05
0.000124035
0.00118686
0.00147666
0.00148511
0.000316912
9.07277e-05
7.37435e-05
6.90056e-05
5.78002e-05
5.07643e-05
0.00255399
0.00818264
0.0109331
0.00917959
0.003758
3.13496e-06
5.31567e-07
4.76596e-07
2.20548e-06
9.33358e-07
2.40873e-06
2.43185e-06
7.9756e-06
0.000423309
0.00146975
0.00146975
0.00147666
0.00114245
0.000264698
6.69792e-05
6.42043e-05
6.311e-05
4.96085e-05
3.6937e-05
1.29781e-05
7.73635e-06
4.31469e-06
8.93087e-07
0.000106042
5.46977e-05
5.05097e-07
5.59111e-07
3.75107e-07
1.75075e-06
5.61559e-07
2.17424e-06
0.000195702
0.000921083
0.00129465
0.00133643
0.0013181
0.00129175
0.00111515
0.000257216
6.35945e-05
0.000176547
0.000709551
0.000601734
0.000123583
2.70757e-05
8.09015e-07
9.18923e-07
8.62977e-06
9.808e-06
1.44556e-07
2.59619e-07
1.15102e-06
1.12663e-07
3.77205e-06
4.404e-05
3.13921e-05
0.000103219
0.000134868
0.000317597
0.000792125
0.00109906
0.00067471
0.000113006
0.000421412
0.000718995
0.000718995
0.000718995
0.000248241
4.68623e-07
9.26549e-06
7.806e-05
7.84703e-05
3.98687e-08
2.15012e-07
1.55449e-07
3.11211e-08
2.04723e-06
9.99631e-07
1.09006e-06
9.10935e-07
5.73285e-07
5.00266e-07
1.12837e-05
6.92642e-05
0.000119031
0.000108506
0.000180522
0.000561666
0.000718995
0.000520534
7.77804e-05
2.06467e-07
8.67701e-06
7.98056e-05
8.24935e-05
1.49821e-08
4.01376e-08
1.45355e-08
9.40616e-09
2.13168e-07
1.58293e-07
1.6067e-07
1.18259e-07
6.7959e-08
3.74991e-08
3.44428e-08
4.29631e-08
4.40207e-08
1.47817e-06
7.50724e-06
1.80286e-06
3.03707e-05
6.98466e-10
7.28807e-10
1.99741e-07
2.75187e-10
4.63039e-07
7.75936e-05
9.02437e-09
7.44422e-09
4.83831e-09
2.774e-09
6.75144e-09
2.55272e-08
2.5271e-08
1.78323e-08
9.36833e-09
5.21562e-09
3.86166e-09
2.35883e-09
1.65353e-09
6.89396e-10
1.93538e-10
2.29961e-10
2.92372e-10
6.72754e-10
6.15461e-10
7.87081e-11
7.23372e-11
2.76586e-10
7.60862e-07
7.44352e-09
5.28723e-09
2.54946e-09
1.85533e-09
2.69148e-09
5.25586e-09
4.99027e-09
3.5135e-09
1.98012e-09
1.09921e-09
7.57165e-10
5.67563e-10
3.08842e-10
1.95762e-10
1.64399e-10
2.35772e-10
7.62452e-10
1.70541e-09
8.70733e-10
8.05613e-11
7.20675e-11
8.46202e-10
4.13195e-08
2.06158e-08
5.45068e-09
1.81451e-09
1.63349e-09
1.8748e-09
2.21614e-09
2.06075e-09
1.59153e-09
1.03445e-09
6.33637e-10
4.67601e-10
3.55693e-10
2.55186e-10
1.87109e-10
1.50821e-10
1.43366e-10
1.47805e-10
1.666e-10
1.25298e-10
9.60454e-11
7.20692e-11
4.81887e-08
8.10935e-07
5.25617e-08
6.24022e-09
1.55598e-09
1.57286e-09
1.6474e-09
1.68007e-09
1.58506e-09
1.27028e-09
8.87379e-10
5.62516e-10
4.28931e-10
3.34119e-10
2.48583e-10
1.84557e-10
1.65055e-10
1.41818e-10
1.2606e-10
1.1604e-10
1.08604e-10
9.02521e-11
7.23199e-11
7.93722e-08
2.34066e-07
5.33558e-08
6.41778e-09
1.44749e-09
1.43518e-09
1.6096e-09
1.59052e-09
1.51901e-09
1.2853e-09
9.31941e-10
5.91789e-10
4.21206e-10
3.03448e-10
2.20059e-10
1.92548e-10
1.68322e-10
1.44128e-10
1.24064e-10
1.12391e-10
1.06719e-10
8.96925e-11
7.27603e-11
2.5899e-08
8.61973e-08
5.34231e-08
1.3128e-08
1.93264e-09
1.29579e-09
1.45496e-09
1.42758e-09
1.35217e-09
1.17497e-09
8.83688e-10
6.00276e-10
4.1501e-10
2.84204e-10
2.25526e-10
1.89159e-10
1.57469e-10
1.32871e-10
1.15741e-10
1.0572e-10
9.82404e-11
8.09821e-11
1.33731e-10
5.61554e-11
5.60943e-11
5.34229e-08
3.02005e-08
4.1965e-09
1.18651e-09
1.19457e-09
1.25446e-09
1.22107e-09
1.06103e-09
8.17753e-10
5.84381e-10
4.03404e-10
2.70811e-10
2.23528e-10
1.80025e-10
1.44159e-10
1.17476e-10
9.83098e-11
8.53584e-11
7.5557e-11
5.83303e-11
4.29674e-10
2.97963e-10
6.92296e-11
5.20511e-08
1.97048e-08
2.9339e-09
1.13408e-09
1.13269e-09
1.17954e-09
1.14667e-09
1.05827e-09
8.21947e-10
5.69385e-10
3.86826e-10
2.59487e-10
2.15944e-10
1.6908e-10
1.31431e-10
1.03001e-10
8.17375e-11
6.61438e-11
5.4408e-11
4.68787e-11
8.15217e-11
1.10205e-10
1.01374e-10
8.31561e-09
2.15528e-09
1.12924e-09
1.10543e-09
1.10315e-09
1.10634e-09
1.14584e-09
1.09173e-09
8.6706e-10
5.84272e-10
3.74905e-10
2.47696e-10
2.04299e-10
1.567e-10
1.18073e-10
8.87147e-11
6.66967e-11
5.04059e-11
3.83604e-11
3.08333e-11
2.8304e-11
2.59985e-11
2.21107e-11
1.35552e-09
1.13806e-09
1.10483e-09
1.10037e-09
1.10071e-09
1.10077e-09
1.10304e-09
1.07769e-09
9.17528e-10
6.20072e-10
3.78107e-10
2.38437e-10
1.93489e-10
1.44029e-10
1.04203e-10
7.45321e-11
5.30254e-11
3.76808e-11
2.68173e-11
1.95715e-11
1.4939e-11
1.16626e-11
8.93857e-12
1.08401e-05
1.82364e-05
1.86891e-05
3.63198e-06
1.05297e-09
1.03012e-09
1.03597e-09
1.01447e-09
8.83037e-10
6.41452e-10
4.06603e-10
2.34446e-10
1.64776e-10
1.24582e-10
8.75821e-11
6.01116e-11
4.07687e-11
2.75104e-11
1.85391e-11
1.25683e-11
8.61903e-12
5.94899e-12
4.08367e-12
2.7235e-05
2.76796e-05
2.76904e-05
1.86506e-05
2.60613e-07
1.5359e-09
8.52028e-10
8.28105e-10
7.65484e-10
6.0613e-10
4.04941e-10
2.1509e-10
1.34332e-10
1.00762e-10
6.86554e-11
4.53481e-11
2.94679e-11
1.89886e-11
1.21865e-11
7.80539e-12
4.99125e-12
3.18145e-12
2.01641e-12
2.59335e-05
2.7691e-05
2.76808e-05
1.45731e-05
7.73486e-08
1.07039e-09
5.84748e-10
5.60085e-10
5.4383e-10
4.63055e-10
3.1945e-10
1.52912e-10
1.06842e-10
7.34906e-11
4.79689e-11
3.04155e-11
1.89234e-11
1.16291e-11
7.09342e-12
4.29813e-12
2.58646e-12
1.54497e-12
9.1607e-13
4.08009e-06
1.84676e-05
1.05524e-05
2.00379e-06
1.18182e-07
4.91576e-10
2.71073e-10
2.5385e-10
2.46142e-10
2.10374e-10
1.40697e-10
9.97788e-11
6.95772e-11
4.54831e-11
2.84742e-11
1.72608e-11
1.02182e-11
5.93853e-12
3.41343e-12
1.94167e-12
1.09332e-12
6.09709e-13
3.3716e-13
2.00464e-08
3.54068e-07
3.67869e-08
9.78499e-09
4.68993e-08
6.81187e-09
4.90876e-10
1.22284e-10
1.1427e-10
9.63708e-11
7.93781e-11
5.70459e-11
3.77104e-11
2.35154e-11
1.39943e-11
8.02787e-12
4.46549e-12
2.41914e-12
1.29174e-12
6.80374e-13
3.53911e-13
1.82094e-13
9.28985e-14
1.5486e-09
5.64621e-09
2.78645e-09
7.62555e-10
2.06026e-10
2.06262e-09
5.98114e-10
1.01492e-10
7.94323e-11
5.76677e-11
4.10811e-11
2.73569e-11
1.70462e-11
1.00139e-11
5.59601e-12
2.99453e-12
1.5384e-12
7.62484e-13
3.71405e-13
1.77909e-13
8.39809e-14
3.91758e-14
1.81497e-14
1.73072e-10
4.27327e-10
2.61433e-10
1.06361e-10
4.6622e-11
1.15792e-10
1.32794e-10
5.81706e-11
3.89629e-11
2.65585e-11
1.7544e-11
1.08977e-11
6.33973e-12
3.46926e-12
1.79546e-12
8.81263e-13
4.09733e-13
1.82123e-13
7.92872e-14
3.38289e-14
1.41826e-14
5.87431e-15
2.45241e-15
3.96771e-11
6.34159e-11
4.6424e-11
3.39926e-11
3.05736e-11
3.00966e-11
2.70917e-11
2.30915e-11
1.54081e-11
1.00155e-11
6.1791e-12
3.56604e-12
1.92055e-12
9.67477e-13
4.56741e-13
2.01833e-13
8.30045e-14
3.24535e-14
1.23621e-14
4.59535e-15
1.67415e-15
6.12271e-16
2.68288e-16
2.73131e-11
2.57546e-11
2.51721e-11
2.66118e-11
2.124e-11
1.57772e-11
1.14676e-11
7.85452e-12
5.07795e-12
3.11369e-12
1.78658e-12
9.51842e-13
4.70057e-13
2.15171e-13
9.11425e-14
3.55205e-14
1.25776e-14
4.25487e-15
1.39042e-15
4.41441e-16
1.39506e-16
5.56375e-17
6.78363e-17
1.46899e-11
2.32249e-11
1.66728e-11
1.11185e-11
7.24286e-12
5.08346e-12
3.48243e-12
2.26778e-12
1.39075e-12
7.96846e-13
4.22479e-13
2.06146e-13
9.23339e-14
3.78547e-14
1.4122e-14
4.73998e-15
1.41207e-15
4.05025e-16
1.11697e-16
3.02437e-17
1.04076e-17
1.37473e-17
4.82973e-17
4.19375e-12
6.71789e-12
4.85969e-12
3.15424e-12
2.03286e-12
1.36191e-12
8.87263e-13
5.47574e-13
3.15343e-13
1.67607e-13
8.1534e-14
3.61037e-14
1.44849e-14
5.231e-15
1.68168e-15
4.72373e-16
1.16451e-16
2.76827e-17
6.39043e-18
1.76332e-18
2.09673e-18
8.23611e-18
3.54035e-17
9.52329e-13
1.6145e-12
1.16028e-12
7.43501e-13
4.72703e-13
3.04428e-13
1.88994e-13
1.10113e-13
5.91831e-14
2.90013e-14
1.28473e-14
5.10951e-15
1.81011e-15
5.64698e-16
1.52369e-16
3.45487e-17
6.97386e-18
1.35184e-18
2.82941e-19
2.27187e-19
9.51409e-19
4.62314e-18
2.16037e-17
1.75499e-13
3.19225e-13
2.29046e-13
1.46172e-13
9.16421e-14
5.69593e-14
3.37002e-14
1.84812e-14
9.2294e-15
4.14623e-15
1.65955e-15
5.86131e-16
1.80409e-16
4.75198e-17
1.04195e-17
1.81883e-18
2.97535e-19
4.77813e-20
1.77202e-20
6.72603e-20
3.77349e-19
2.02313e-18
1.03361e-17
2.65274e-14
5.21907e-14
3.77449e-14
2.41177e-14
1.49284e-14
8.97655e-15
5.06095e-15
2.6071e-15
1.20562e-15
4.94036e-16
1.773e-16
5.49694e-17
1.44483e-17
3.13171e-18
5.37115e-19
7.07619e-20
9.00492e-21
1.40167e-21
2.48821e-21
1.64394e-20
1.0547e-19
6.32872e-19
3.59988e-18
3.31571e-15
7.11627e-15
5.24095e-15
3.36959e-15
2.0638e-15
1.20307e-15
6.46576e-16
3.12565e-16
1.33549e-16
4.97259e-17
1.58998e-17
4.28374e-18
9.46282e-19
1.64577e-19
2.12206e-20
2.1157e-21
2.03516e-22
4.87648e-23
2.85316e-22
2.36141e-21
1.78263e-20
1.24128e-19
8.11389e-19
3.44307e-16
8.15457e-16
6.19095e-16
4.03074e-16
2.45095e-16
1.38846e-16
7.12123e-17
3.23126e-17
1.27489e-17
4.30643e-18
1.22301e-18
2.84768e-19
5.23727e-20
7.19094e-21
6.78647e-22
4.99753e-23
3.53783e-24
1.30089e-24
1.32925e-23
1.43771e-22
1.38438e-21
1.20798e-20
9.74532e-20
2.95111e-17
7.8911e-17
6.28787e-17
4.18235e-17
2.53566e-17
1.39983e-17
6.865e-18
2.92879e-18
1.06892e-18
3.2821e-19
8.3e-20
1.67638e-20
2.58164e-21
2.82481e-22
1.98339e-23
1.03058e-24
4.86759e-26
7.38083e-27
1.04473e-25
1.75763e-24
2.59077e-23
3.4051e-22
4.05792e-21
2.01438e-18
6.483e-18
5.56712e-18
3.81946e-18
2.31799e-18
1.25045e-18
5.87958e-19
2.36642e-19
8.02658e-20
2.2557e-20
5.13381e-21
9.1524e-22
1.21657e-22
1.12181e-23
6.49399e-25
2.36107e-26
6.16824e-28
1.09147e-29
2.00991e-30
8.48388e-29
3.40398e-27
1.2293e-25
4.07141e-24
0.985081
0.99634
0.996669
0.996964
0.977298
0.99222
0.995623
0.996217
0.499772
0.520367
0.539725
0.557016
0.0040568
0.00430114
0.00450567
0.00455065
0.00719071
0.00680327
0.0045948
0.00457289
0.0159519
0.0159435
0.0145363
0.00503974
0.0159603
0.0132546
0.00655608
0.00595567
0.00309506
4.78564e-07
4.86379e-07
5.49518e-07
4.78107e-07
4.76677e-07
4.78566e-07
5.01055e-07
4.76654e-07
4.78554e-07
4.97299e-07
5.52104e-07
5.03309e-07
4.97328e-07
5.43584e-07
6.65664e-07
3.64928e-06
5.50228e-07
7.02917e-07
2.95972e-06
7.8997e-05
8.4113e-07
8.41465e-07
3.28262e-06
8.09906e-05
6.59681e-05
4.1215e-07
6.62879e-08
8.09906e-05
7.50132e-05
4.04788e-06
3.33235e-08
3.89025e-06
1.42025e-05
5.96141e-06
1.19968e-08
1.96316e-08
1.15566e-08
1.81432e-09
5.14911e-07
1.03675e-07
2.46411e-08
8.39756e-10
8.56651e-10
1.19252e-07
1.18758e-07
1.18381e-08
7.99061e-11
4.22451e-09
7.89336e-10
1.65051e-09
3.33985e-10
4.09524e-11
3.95328e-11
3.86979e-11
3.82404e-11
8.42878e-11
6.41753e-11
4.70113e-11
3.47364e-11
1.98076e-11
1.72705e-11
1.46967e-11
1.22861e-11
7.70098e-12
6.54004e-12
5.46526e-12
4.50228e-12
3.33566e-12
2.71115e-12
2.18828e-12
1.75281e-12
1.5763e-12
1.22992e-12
9.56324e-13
7.3996e-13
6.88532e-13
5.16728e-13
3.8672e-13
2.88222e-13
2.42907e-13
1.7476e-13
1.25446e-13
8.97557e-14
6.36671e-14
4.36081e-14
2.98521e-14
2.04371e-14
1.17118e-14
7.5879e-15
4.96359e-15
3.31776e-15
1.50333e-15
9.65489e-16
6.82835e-16
5.67283e-16
1.99876e-16
1.9153e-16
2.28472e-16
3.08763e-16
9.06161e-17
1.31359e-16
1.95176e-16
2.91504e-16
7.38825e-17
1.12884e-16
1.71799e-16
2.60759e-16
5.50942e-17
8.5177e-17
1.31163e-16
2.02138e-16
3.39801e-17
5.31134e-17
8.30193e-17
1.31202e-16
1.64417e-17
2.60704e-17
4.1836e-17
6.97497e-17
5.80497e-18
9.44493e-18
1.61219e-17
3.05583e-17
1.3387e-18
2.33445e-18
4.71944e-18
1.18429e-17
1.72418e-19
3.81231e-19
1.14771e-18
4.38412e-18
1.01431e-20
4.33286e-20
2.19929e-19
1.3414e-18
6.1903e-23
8.67795e-22
1.19875e-20
2.26232e-19
0.997234
0.997666
0.998208
0.998179
0.99815
0.99663
0.8449
0.711978
0.799634
0.873286
0.922772
0.948808
0.966373
0.965708
0.946093
0.938394
0.968269
0.993641
0.99368
0.996692
0.996571
0.99382
0.979783
0.96612
0.96601
0.835792
0.658859
0.659002
0.676588
0.717822
0.745297
0.733725
0.751214
0.804364
0.843394
0.855562
0.846783
0.856965
0.569642
0.552519
0.505867
0.460628
0.445944
0.492258
0.60826
0.664548
0.665751
0.662693
0.643507
0.590886
0.532866
0.472224
0.398308
0.32016
0.280426
0.324913
0.389842
0.00457199
0.00448547
0.00417697
0.00684382
0.00790275
0.0147244
0.0638563
0.122694
0.132358
0.0931209
0.0321775
0.000213363
0.000125328
0.000682795
0.000461815
0.000213467
0.00053646
0.000747545
0.00305118
0.00456313
0.00456644
0.00396726
0.00322497
0.00309415
0.00288301
0.00183955
0.00147468
0.00109322
0.000780531
0.000662503
0.000646116
0.000123647
4.0228e-05
2.73819e-05
3.33868e-05
7.5337e-05
0.000153349
0.000232019
0.00809828
0.011141
0.0111417
0.0110276
0.0107503
0.0105631
0.010562
0.0105204
0.010399
0.00901456
0.00502048
0.00230275
3.92747e-05
2.73842e-05
2.47448e-05
2.08492e-05
2.57851e-05
6.74355e-05
0.000174616
0.00797192
0.00978764
0.0106052
0.00992321
0.0102079
0.00943062
0.00767154
0.0052533
0.00290189
1.24484e-05
1.24169e-05
1.63909e-05
0.000616447
0.000338407
1.94351e-05
1.97143e-05
2.08515e-05
3.99995e-05
0.000234139
9.58296e-07
3.20464e-06
0.000218539
0.00129571
0.000504148
2.51493e-05
2.22944e-05
1.58849e-05
1.25541e-05
1.24169e-05
1.2179e-05
4.11115e-05
0.000240325
8.62524e-05
1.89928e-05
1.94405e-05
3.59237e-05
0.000233468
0.000238764
5.90412e-07
9.97085e-07
6.69291e-06
9.5225e-06
1.60283e-05
2.10679e-05
6.27028e-05
0.000102703
7.55752e-05
1.2179e-05
1.2179e-05
1.22725e-05
1.37809e-05
1.4844e-05
1.72028e-05
9.95673e-05
0.000195656
0.000198451
0.000103182
1.16278e-06
4.33158e-05
8.27981e-05
8.26033e-05
5.42335e-05
0.000100743
0.000149881
0.000149882
0.000149881
4.07139e-05
1.2179e-05
1.22696e-05
1.9695e-05
0.000109402
0.000159045
0.000160597
0.000158777
3.99893e-05
1.61129e-05
3.54542e-06
5.41149e-05
7.78364e-05
7.79593e-05
7.73708e-05
3.95299e-05
6.28849e-05
0.000149882
0.000142545
1.70312e-05
1.22696e-05
2.03368e-05
0.000146977
0.000158373
0.000158373
0.000157954
2.80505e-05
1.59591e-05
1.61129e-05
1.38333e-05
1.84952e-05
7.18899e-06
6.01233e-06
1.96739e-05
6.13491e-07
4.44276e-07
2.80529e-06
5.77275e-05
3.70089e-05
1.34105e-05
1.93712e-05
0.000125899
0.000157895
0.000153226
2.69958e-05
1.4859e-05
1.5829e-05
4.33993e-05
1.96566e-05
2.57995e-05
9.66233e-06
5.27656e-06
6.14026e-07
4.44268e-07
3.25289e-07
3.20787e-07
2.7142e-05
6.70928e-05
6.70016e-05
2.20642e-05
1.61031e-05
5.54279e-05
4.12406e-05
3.37601e-06
1.8496e-05
6.00016e-05
6.00016e-05
5.85136e-06
2.63275e-05
2.63337e-05
2.63398e-05
1.60946e-05
1.34352e-06
2.02037e-07
7.66036e-08
1.38294e-05
5.64272e-05
2.59962e-05
1.94869e-07
1.90975e-07
1.94871e-07
1.63647e-07
2.46563e-08
1.8804e-05
5.99892e-05
6.00016e-05
1.18028e-08
1.18823e-05
2.63398e-05
2.63398e-05
2.63398e-05
2.16914e-05
7.88006e-08
7.87995e-08
7.87995e-08
7.93917e-08
8.27422e-08
6.36981e-07
1.35312e-06
9.36547e-07
2.75723e-07
3.13625e-09
2.51096e-08
2.03849e-05
5.99892e-05
7.30624e-09
7.10811e-10
8.41947e-06
2.61905e-05
2.62292e-05
2.59911e-05
4.59771e-06
7.87996e-08
7.93927e-08
8.35854e-08
1.0213e-07
1.79005e-07
1.34815e-06
1.5767e-06
1.35458e-06
7.75916e-10
2.89329e-09
4.98467e-06
5.98302e-05
9.46751e-09
4.26748e-11
3.64436e-11
2.08091e-06
2.08498e-05
2.29816e-05
4.22694e-06
7.86153e-08
2.7475e-07
8.55938e-07
4.93744e-07
1.00227e-07
9.13827e-08
5.41778e-07
4.26858e-07
5.3369e-10
3.28242e-10
8.32366e-07
3.24204e-05
1.28688e-10
3.99554e-11
3.12242e-11
2.89111e-11
2.83861e-11
7.10853e-07
1.58048e-09
7.73049e-08
6.30453e-07
1.12473e-06
1.12604e-06
6.90016e-07
4.95865e-10
4.94842e-10
4.94653e-10
7.21597e-10
3.30937e-10
3.31755e-10
2.70012e-09
6.60009e-11
6.1451e-11
3.24658e-11
2.86351e-11
2.78343e-11
2.73794e-11
6.01387e-11
1.12072e-07
3.36722e-07
1.12609e-06
1.12604e-06
1.12604e-06
2.85813e-07
4.94768e-10
4.9972e-10
9.07375e-10
3.32183e-10
4.01953e-08
2.64926e-06
7.19317e-11
5.44276e-11
4.12408e-11
3.32663e-11
2.78324e-11
2.54246e-11
1.00505e-09
1.645e-08
5.64508e-09
5.89476e-07
1.12604e-06
1.11067e-06
3.32081e-07
5.61892e-10
9.93547e-10
2.78519e-09
2.43001e-10
2.27721e-07
3.22476e-05
3.5962e-11
3.3275e-11
2.98452e-11
2.73719e-11
2.50471e-11
2.39179e-11
2.17389e-11
2.19594e-11
2.26432e-11
2.57233e-11
4.67668e-07
3.89701e-07
1.25434e-07
8.52566e-08
6.95333e-08
5.60108e-09
9.45197e-11
4.03586e-07
3.40484e-05
2.29925e-11
1.86817e-11
1.74441e-11
1.71251e-11
1.73129e-11
1.85708e-11
2.11519e-11
2.47535e-11
2.76896e-11
2.6816e-11
2.66727e-11
2.65813e-11
5.28822e-08
1.32956e-07
1.32957e-07
8.576e-09
7.0699e-11
9.53437e-07
3.40484e-05
8.89151e-12
7.46949e-12
7.41086e-12
8.14956e-12
9.54323e-12
1.18676e-11
1.53858e-11
2.01275e-11
2.4701e-11
2.78445e-11
2.71223e-11
2.65094e-11
1.66402e-09
9.94204e-08
5.95617e-08
5.24993e-09
4.99928e-11
1.27931e-06
3.39843e-05
3.09737e-12
2.43949e-12
2.40808e-12
2.93538e-12
4.10254e-12
6.15314e-12
9.32434e-12
1.3554e-11
1.85395e-11
2.20883e-11
2.49275e-11
2.64556e-11
2.64689e-11
2.6544e-11
2.66766e-11
3.21068e-10
4.8332e-11
1.26286e-06
3.34346e-05
1.11926e-12
7.7473e-13
6.79045e-13
8.49296e-13
1.40261e-12
2.59139e-12
4.70217e-12
7.81685e-12
1.16458e-11
1.57103e-11
1.96529e-11
2.34125e-11
2.65942e-11
2.79963e-11
3.30687e-11
4.7857e-11
4.8331e-11
6.04552e-07
3.33604e-05
4.36787e-13
2.64694e-13
1.9215e-13
2.2286e-13
4.20163e-13
9.40071e-13
2.00583e-12
3.79165e-12
6.32059e-12
9.57413e-12
1.36416e-11
1.85769e-11
2.45585e-11
3.22507e-11
4.74208e-11
7.28454e-11
4.83361e-11
2.87548e-08
3.32616e-05
1.58496e-13
8.77416e-14
5.61103e-14
6.11282e-14
1.28653e-13
3.34396e-13
8.12849e-13
1.72748e-12
3.22824e-12
5.51102e-12
8.89468e-12
1.38035e-11
2.1084e-11
3.17827e-11
5.30669e-11
8.33681e-11
7.0288e-11
6.94945e-11
3.26661e-05
4.63141e-14
2.48022e-14
1.71749e-14
2.31724e-14
5.48928e-14
1.48822e-13
3.80413e-13
8.69652e-13
1.78035e-12
3.35836e-12
5.97581e-12
1.02369e-11
1.71899e-11
2.82316e-11
5.17539e-11
8.73203e-11
7.84411e-11
6.94948e-11
1.15825e-05
1.0239e-14
6.53728e-15
7.98784e-15
1.6943e-14
4.21079e-14
1.05599e-13
2.54955e-13
5.77396e-13
1.2166e-12
2.40876e-12
4.53076e-12
8.19098e-12
1.4402e-11
2.48501e-11
4.94591e-11
9.21268e-11
7.86418e-11
7.63432e-11
1.55807e-10
2.14974e-15
3.1545e-15
7.68184e-15
1.97234e-14
4.81194e-14
1.11431e-13
2.4712e-13
5.25826e-13
1.07236e-12
2.10165e-12
3.97304e-12
7.28934e-12
1.30722e-11
2.3083e-11
4.97017e-11
1.01387e-10
7.87797e-11
7.94654e-11
1.10401e-06
1.12089e-15
3.48263e-15
1.04411e-14
2.78417e-14
6.6565e-14
1.46248e-13
3.0255e-13
5.99846e-13
1.15182e-12
2.15616e-12
3.95329e-12
7.14706e-12
1.27968e-11
2.28129e-11
5.24748e-11
1.12337e-10
7.87541e-11
6.79146e-11
1.71814e-05
1.26001e-15
4.91389e-15
1.61012e-14
4.4175e-14
1.04604e-13
2.21391e-13
4.32448e-13
8.00617e-13
1.43326e-12
2.51614e-12
4.37895e-12
7.65055e-12
1.34517e-11
2.39747e-11
5.95734e-11
1.22047e-10
7.9276e-11
1.73908e-06
1.90949e-05
1.58072e-15
7.34874e-15
2.62786e-14
7.48131e-14
1.78213e-13
3.70334e-13
6.95022e-13
1.21429e-12
2.02816e-12
3.31176e-12
5.39753e-12
8.97597e-12
1.52245e-11
2.67726e-11
7.81409e-11
1.33419e-10
7.98717e-11
3.10046e-06
1.90949e-05
1.95875e-15
1.0811e-14
4.20947e-14
1.25922e-13
3.08678e-13
6.47052e-13
1.19796e-12
2.01797e-12
3.18679e-12
4.86085e-12
7.39317e-12
1.15699e-11
1.85539e-11
3.15042e-11
9.40614e-11
1.66342e-10
8.07709e-11
8.03562e-07
1.90675e-05
2.28976e-15
1.46076e-14
6.18892e-14
1.98442e-13
5.15506e-13
1.1245e-12
2.1144e-12
3.52114e-12
5.3608e-12
7.7411e-12
1.1068e-11
1.62698e-11
2.4366e-11
3.92384e-11
1.10276e-10
2.47702e-10
8.39687e-11
8.78691e-11
3.28058e-06
2.41151e-15
1.71785e-14
7.99804e-14
2.83477e-13
8.09512e-13
1.89928e-12
3.72983e-12
6.28879e-12
9.41677e-12
1.30837e-11
1.78321e-11
2.49291e-11
3.51738e-11
5.40519e-11
1.45988e-10
2.70005e-10
4.58036e-10
2.71263e-07
5.13334e-10
2.16604e-15
1.6902e-14
8.88669e-14
3.62964e-13
1.18708e-12
3.08661e-12
6.47929e-12
1.12927e-11
1.69618e-11
2.30731e-11
3.04775e-11
4.15596e-11
5.74287e-11
8.74885e-11
1.86601e-10
7.42079e-10
8.52753e-10
6.0538e-10
5.07542e-10
1.55848e-15
1.35281e-14
8.38538e-14
4.12403e-13
1.60416e-12
4.70733e-12
1.0709e-11
1.95775e-11
3.00073e-11
4.06578e-11
5.2886e-11
7.22014e-11
1.03519e-10
1.66914e-10
3.95062e-10
1.03199e-09
1.08781e-09
7.16544e-10
1.00976e-09
8.43629e-16
8.65324e-15
6.66012e-14
4.08137e-13
1.94417e-12
6.45079e-12
1.60081e-11
3.1022e-11
4.92842e-11
6.76719e-11
8.79189e-11
1.20485e-10
1.83429e-10
3.28895e-10
7.72494e-10
1.08779e-09
9.1389e-10
5.11086e-10
1.71323e-09
3.25962e-16
4.41631e-15
4.47085e-14
3.45075e-13
2.04129e-12
7.56747e-12
2.06766e-11
4.30159e-11
7.2388e-11
1.03046e-10
1.35977e-10
1.84545e-10
2.71052e-10
4.90174e-10
8.11539e-10
7.49611e-10
4.76296e-10
4.78566e-10
8.38041e-10
8.35837e-17
1.71995e-15
2.34614e-14
2.26443e-13
1.70199e-12
6.97489e-12
2.15515e-11
4.88728e-11
9.03314e-11
1.389e-10
1.8832e-10
2.5872e-10
3.21528e-10
4.24557e-10
1.87039e-09
7.51379e-10
1.09957e-07
6.8165e-08
8.49911e-10
1.15505e-17
4.01529e-16
7.28393e-15
8.42833e-14
8.73941e-13
3.96102e-12
1.43805e-11
3.55054e-11
7.38248e-11
1.31508e-10
1.89063e-10
2.62291e-10
3.31566e-10
3.38896e-10
2.70124e-14
1.06118e-07
4.07503e-07
4.07503e-07
1.38289e-07
)
;

boundaryField
{
    leftWall
    {
        type            zeroGradient;
    }
    rightWall
    {
        type            zeroGradient;
    }
    lowerWall
    {
        type            zeroGradient;
    }
    atmosphere
    {
        type            inletOutlet;
        inletValue      uniform 0;
        value           nonuniform List<scalar> 
46
(
2.01438e-18
6.483e-18
5.56712e-18
3.81946e-18
2.31799e-18
1.25045e-18
5.87958e-19
2.36642e-19
8.02658e-20
2.2557e-20
5.13381e-21
9.1524e-22
1.21657e-22
1.12181e-23
6.49399e-25
2.36107e-26
0
0
0
0
0
0
0
0
0
0
0
0
0
0
0
0
0
0
0
0
0
0
0
0
0
0
1.06118e-07
4.07503e-07
4.07503e-07
1.38289e-07
)
;
    }
    defaultFaces
    {
        type            empty;
    }
}


// ************************************************************************* //
