/*--------------------------------*- C++ -*----------------------------------*\
| =========                 |                                                 |
| \\      /  F ield         | OpenFOAM: The Open Source CFD Toolbox           |
|  \\    /   O peration     | Version:  2.3.0                                 |
|   \\  /    A nd           | Web:      www.OpenFOAM.org                      |
|    \\/     M anipulation  |                                                 |
\*---------------------------------------------------------------------------*/
FoamFile
{
    version     2.0;
    format      ascii;
    class       volScalarField;
    location    "2.55";
    object      epsilon;
}
// * * * * * * * * * * * * * * * * * * * * * * * * * * * * * * * * * * * * * //

dimensions      [0 2 -3 0 0 0 0];

internalField   nonuniform List<scalar> 
2268
(
0.00398932
0.0209432
0.038585
0.0558794
0.0730556
0.0903648
0.108028
0.126229
0.145064
0.164408
0.183757
0.202174
0.218452
0.231397
0.240002
0.243314
0.2409
0.230664
0.215423
0.19623
0.161558
0.101623
0.0218812
0.00781979
0.0138656
0.0213939
0.0290857
0.0369171
0.0449765
0.0533531
0.06212
0.0713
0.0808079
0.0903784
0.0995275
0.107599
0.113888
0.117779
0.118899
0.117532
0.113609
0.107682
0.0998437
0.0873636
0.0664242
0.0397767
0.013005
0.0143995
0.0196338
0.0253685
0.0313819
0.0376985
0.0443783
0.0514714
0.0589814
0.066816
0.0747372
0.0823418
0.0891057
0.0944885
0.0980628
0.09965
0.0995023
0.0980303
0.0957491
0.0926311
0.0869884
0.0755405
0.0647022
0.018136
0.0160554
0.0201443
0.0250633
0.0303991
0.036123
0.0422737
0.0488866
0.0559487
0.0633488
0.070839
0.0780348
0.084473
0.0897139
0.0934592
0.0956617
0.0966335
0.0970219
0.0975137
0.0982049
0.0977697
0.0928053
0.0899253
0.0232537
0.0181512
0.021485
0.0259808
0.031037
0.036576
0.0426166
0.0491794
0.0562328
0.0636376
0.0711176
0.0782839
0.0847094
0.0900343
0.0940716
0.0968927
0.098904
0.100916
0.10384
0.108083
0.112875
0.115341
0.119094
0.0284685
0.020542
0.0233229
0.0276032
0.0325943
0.038173
0.0443367
0.0510898
0.0583777
0.066022
0.0737019
0.0810086
0.0875415
0.093014
0.0973437
0.100716
0.103638
0.107019
0.11199
0.1194
0.129699
0.143166
0.16422
0.0339173
0.0232173
0.0255779
0.0297844
0.0348622
0.0406435
0.0471005
0.0542179
0.0619132
0.0699535
0.0779529
0.0854711
0.0921314
0.0977207
0.102259
0.106038
0.109646
0.114026
0.120427
0.13013
0.145645
0.175659
0.251856
0.039808
0.0262352
0.0282668
0.0325101
0.0378014
0.0439255
0.0508212
0.0584492
0.066694
0.075247
0.0836293
0.0913599
0.0980914
0.103691
0.108282
0.112247
0.116219
0.121103
0.128073
0.138533
0.156795
0.203676
0.413687
0.0200613
0.0825184
0.140483
0.176529
0.19724
0.20135
0.187159
0.156943
0.119409
0.0901273
0.0804207
0.0736855
0.0554154
0.0510106
0.057776
0.0621654
0.0607651
0.0412568
0.0116365
0.0288856
0.050082
0.0695216
0.0824662
0.089935
0.09154
0.087638
0.0796539
0.0699108
0.05694
0.0464332
0.0400891
0.0348599
0.0339657
0.0345357
0.0325176
0.029717
0.0234776
0.016275
0.0441854
0.0516717
0.0620546
0.0693997
0.0733552
0.0734761
0.0704542
0.0654804
0.0592879
0.0505984
0.0423401
0.0367222
0.0329428
0.0318324
0.0315425
0.0299203
0.0280219
0.0248774
0.0245306
0.0604847
0.0582969
0.0632804
0.0672591
0.0690592
0.0680502
0.0649723
0.0608542
0.0555826
0.0489379
0.042501
0.0377563
0.034538
0.0328905
0.032038
0.0309914
0.029871
0.0284233
0.0334304
0.0795552
0.0674703
0.0673872
0.0684851
0.0685486
0.0666343
0.0633641
0.0595844
0.0548028
0.0494509
0.0443709
0.0404926
0.0376984
0.0356081
0.0341868
0.0333135
0.0327185
0.0325316
0.0436277
0.106081
0.0787135
0.0727755
0.071117
0.0696921
0.0670873
0.0636776
0.060123
0.055842
0.0514917
0.0474287
0.0442815
0.041822
0.0393961
0.037397
0.0363575
0.0360421
0.0370091
0.0561072
0.155914
0.0916297
0.0785722
0.0743324
0.0716789
0.06862
0.0652194
0.0619442
0.0582925
0.0547922
0.0514694
0.0488372
0.0465743
0.0438671
0.0413222
0.0399247
0.0397304
0.0419969
0.0714424
0.296281
0.104685
0.0840146
0.0776846
0.0741223
0.0708658
0.067702
0.0648594
0.0619663
0.0591664
0.0563262
0.0539587
0.0517118
0.0487371
0.045713
0.0438827
0.0437304
0.0472773
0.0873263
0.0503468
0.0316799
0.0332649
0.0377014
0.0435075
0.0503766
0.058169
0.0668011
0.0761037
0.0856017
0.0946094
0.102576
0.109229
0.114579
0.118918
0.122753
0.126703
0.131423
0.137646
0.146191
0.159666
0.187123
0.259469
0.0690177
0.0418875
0.0428863
0.0478563
0.0548694
0.0633598
0.0729182
0.0834017
0.094633
0.105683
0.115285
0.122873
0.128488
0.132451
0.135325
0.137782
0.14033
0.143185
0.146389
0.149862
0.153664
0.158612
0.167542
0.102234
0.0585145
0.0574475
0.0627716
0.071675
0.0826619
0.0945692
0.107343
0.121274
0.134302
0.14376
0.149582
0.152762
0.154016
0.154214
0.154285
0.154687
0.155281
0.156002
0.15666
0.156423
0.153756
0.149604
0.178246
0.0874097
0.0793946
0.0840555
0.0962438
0.111007
0.12547
0.140523
0.158911
0.174961
0.182499
0.184159
0.183264
0.180501
0.176817
0.173572
0.171556
0.169872
0.168938
0.169347
0.169091
0.162077
0.151797
0.292143
0.12476
0.105114
0.106366
0.1197
0.136344
0.151176
0.167242
0.188146
0.203445
0.209392
0.211193
0.212486
0.209761
0.202054
0.195547
0.191595
0.186621
0.184074
0.185706
0.180757
0.171507
0.161462
0.354145
0.163297
0.128497
0.12103
0.127916
0.14121
0.155463
0.17138
0.18501
0.194352
0.200687
0.206207
0.211471
0.214007
0.212092
0.212405
0.210056
0.199901
0.192209
0.189086
0.18049
0.173158
0.159077
0.390194
0.188347
0.149648
0.135375
0.135939
0.145125
0.156198
0.166845
0.17514
0.1825
0.188372
0.193946
0.198926
0.202756
0.205689
0.211288
0.213048
0.205553
0.197241
0.189056
0.180208
0.17024
0.154445
0.401019
0.183274
0.158212
0.149064
0.144189
0.145765
0.151508
0.160428
0.168456
0.173631
0.180246
0.186739
0.190619
0.193129
0.195432
0.199099
0.201489
0.200638
0.199848
0.195234
0.185327
0.171003
0.152272
0.378321
0.168548
0.150662
0.149419
0.145226
0.142123
0.145251
0.153172
0.160048
0.165243
0.17277
0.180679
0.185391
0.187651
0.187151
0.187597
0.189127
0.190931
0.193503
0.195748
0.193765
0.174733
0.151125
0.34514
0.152662
0.135874
0.136836
0.136173
0.13424
0.136454
0.142439
0.14876
0.154872
0.162093
0.169563
0.174906
0.177652
0.176434
0.17536
0.176998
0.180446
0.183056
0.182206
0.176255
0.158278
0.13928
0.305521
0.136273
0.119603
0.120512
0.122299
0.123295
0.126424
0.131771
0.137793
0.144043
0.150655
0.157011
0.16148
0.162992
0.162109
0.161309
0.162718
0.165816
0.166756
0.161587
0.151387
0.138846
0.126337
0.263304
0.120734
0.104779
0.105109
0.107866
0.110701
0.115171
0.121055
0.127339
0.133544
0.139594
0.14517
0.148844
0.149316
0.147971
0.146922
0.14731
0.148474
0.147652
0.142339
0.134077
0.125106
0.116271
0.226347
0.108176
0.0927414
0.0923498
0.0951548
0.0985202
0.103024
0.108806
0.115178
0.121581
0.127702
0.133026
0.136203
0.136272
0.134616
0.133434
0.13328
0.133438
0.131933
0.127384
0.121091
0.114475
0.107895
0.194829
0.0974591
0.0831198
0.0821454
0.0845671
0.0878247
0.0917868
0.0966842
0.10227
0.108152
0.113925
0.118882
0.121922
0.122455
0.121521
0.120933
0.120978
0.120786
0.118979
0.115223
0.110445
0.105484
0.100472
0.168787
0.088176
0.0753344
0.0739857
0.0759091
0.0788139
0.0822224
0.0862161
0.0907512
0.0955985
0.100407
0.104621
0.107529
0.108779
0.108967
0.109124
0.109398
0.109113
0.10751
0.104638
0.101089
0.0973748
0.0935555
0.148197
0.0802407
0.0689745
0.0674361
0.0688901
0.0713738
0.0742938
0.0775786
0.0812104
0.0850637
0.0888959
0.092345
0.0949997
0.096651
0.0975545
0.098158
0.0985157
0.098279
0.0971118
0.0950818
0.0925466
0.0898129
0.0869243
0.132576
0.0736203
0.0637469
0.0621364
0.0631926
0.0652607
0.0677492
0.0704928
0.0734428
0.0765189
0.0795694
0.0823777
0.0847097
0.0864267
0.0875959
0.0883872
0.0887833
0.0886455
0.0878539
0.0864722
0.0847009
0.0827132
0.0805432
0.120977
0.0681799
0.0593937
0.0577611
0.0584896
0.0601777
0.0622814
0.0645951
0.0670375
0.0695409
0.0720079
0.0743087
0.0763042
0.0778932
0.0790602
0.0798705
0.0802765
0.0802357
0.0797237
0.0787938
0.0775568
0.0761073
0.0744646
0.112192
0.0636681
0.055666
0.0540176
0.0544752
0.0558294
0.0575936
0.0595523
0.0616038
0.0636801
0.0657108
0.0676123
0.0692952
0.0706841
0.0717417
0.072483
0.0728787
0.0729139
0.0725971
0.0719698
0.071095
0.0700247
0.0687689
0.105028
0.0597766
0.0523348
0.0506619
0.0508952
0.0519661
0.0534382
0.0550996
0.0568387
0.0585852
0.0602808
0.0618657
0.0632783
0.0644628
0.065382
0.0660312
0.0664093
0.0664989
0.066317
0.0658943
0.0652685
0.0644696
0.0635038
0.0985177
0.0562127
0.0492102
0.0475116
0.0475644
0.0484057
0.0496359
0.0510505
0.0525352
0.0540193
0.055451
0.0567843
0.0579745
0.0589809
0.0597737
0.0603427
0.0607003
0.0608295
0.060745
0.0604682
0.0600228
0.0594277
0.0586878
0.0920408
0.0527457
0.0461541
0.0444483
0.0443694
0.0450372
0.0460767
0.0472909
0.0485679
0.0498403
0.0510622
0.0521969
0.0532113
0.054076
0.0547689
0.0552812
0.0556225
0.0557855
0.0557784
0.0556147
0.0553101
0.0548776
0.0543218
0.0853266
0.0492198
0.0430789
0.0414111
0.0412593
0.0418113
0.0427085
0.0437632
0.0448717
0.0459736
0.0470297
0.0480109
0.0488922
0.0496522
0.0502747
0.0507522
0.0510899
0.0512885
0.0513495
0.0512816
0.0510952
0.0507996
0.0503991
0.0783636
0.0455523
0.0399365
0.0383862
0.0382312
0.0387219
0.0395177
0.0404473
0.0414211
0.0423885
0.0433175
0.044185
0.0449719
0.0456616
0.0462418
0.0467056
0.0470541
0.0472933
0.0474195
0.047438
0.0473558
0.0471797
0.0469136
0.0713757
0.0417335
0.0367148
0.0353885
0.0353065
0.0357822
0.0365091
0.0373438
0.0382147
0.039082
0.0399203
0.0407109
0.0414382
0.0420887
0.0426519
0.0431212
0.0434955
0.0437797
0.0439701
0.0440694
0.0440816
0.0440116
0.0438628
0.0647198
0.037842
0.0334748
0.0324513
0.032505
0.0330033
0.0336921
0.0344643
0.0352672
0.0360707
0.0368543
0.0376024
0.0383014
0.0389395
0.0395074
0.0399982
0.0404095
0.0407435
0.0409982
0.0411736
0.0412719
0.0412964
0.04125
0.0585166
0.034064
0.0303454
0.0296412
0.029853
0.0304012
0.031087
0.0318355
0.0326098
0.0333872
0.0341511
0.0348879
0.0355857
0.0362339
0.0368236
0.0373482
0.0378042
0.038192
0.03851
0.0387569
0.0389333
0.0390414
0.0390836
0.0528235
0.0306469
0.0274842
0.0270568
0.027409
0.0280247
0.0287433
0.0295084
0.0302925
0.0310786
0.0318531
0.0326046
0.0333227
0.0339979
0.0346221
0.0351889
0.0356944
0.0361377
0.0365172
0.0368306
0.0370772
0.0372585
0.0373765
0.047878
0.0277457
0.0250348
0.0248125
0.0252764
0.0259685
0.0267456
0.0275569
0.0283796
0.0291996
0.0300065
0.0307907
0.0315436
0.032257
0.0329239
0.0335381
0.0340957
0.0345949
0.0350336
0.0354083
0.035718
0.035963
0.0361453
0.0440253
0.0254829
0.0231137
0.0230323
0.0235831
0.0243484
0.0251914
0.026061
0.0269351
0.0278014
0.0286513
0.0294775
0.030273
0.031031
0.0317453
0.0324104
0.0330218
0.0335774
0.0340734
0.0345058
0.0348725
0.0351735
0.0354103
0.0415473
0.0239747
0.0218186
0.0218263
0.0224385
0.0232616
0.024161
0.0250837
0.0260068
0.0269189
0.0278128
0.0286828
0.0295237
0.0303297
0.0310953
0.031815
0.0324838
0.0330982
0.0336524
0.0341413
0.0345617
0.034913
0.0351968
0.0405912
0.0233003
0.0212227
0.0212674
0.0219096
0.022765
0.0236989
0.0246569
0.0256153
0.0265634
0.0274954
0.0284069
0.0292941
0.0301521
0.0309752
0.0317571
0.0324914
0.033172
0.0337899
0.0343382
0.0348127
0.0352122
0.0355382
0.0411817
0.0235014
0.0213637
0.0213856
0.0220176
0.0228709
0.0238091
0.0247767
0.0257502
0.0267197
0.0276809
0.0286313
0.0295679
0.0304862
0.0313796
0.0322397
0.0330566
0.0338187
0.0345132
0.0351301
0.0356638
0.0361125
0.0364789
0.0432592
0.0245761
0.0222398
0.0221699
0.0227421
0.0235517
0.0244582
0.0254053
0.0263706
0.0273459
0.0283287
0.0293187
0.0303141
0.0313106
0.0322992
0.033267
0.0341976
0.0350696
0.0358639
0.0365663
0.0371694
0.0376724
0.0380795
0.0466994
0.0264777
0.023809
0.023571
0.0240258
0.024744
0.025579
0.026474
0.027408
0.028375
0.029376
0.0304133
0.0314878
0.0325951
0.0337229
0.0348497
0.0359464
0.0369755
0.0379067
0.0387203
0.0394082
0.0399724
0.0404219
0.0513031
0.0291118
0.0259872
0.0255008
0.0257754
0.0263512
0.0270739
0.0278858
0.0287676
0.0297167
0.0307384
0.0318407
0.0330291
0.0343014
0.0356408
0.0370116
0.0383598
0.0396196
0.0407421
0.0417009
0.0424913
0.0431234
0.0436153
0.0567678
0.0323249
0.0286417
0.0278295
0.0278613
0.028245
0.0288174
0.0295191
0.0303324
0.031259
0.0323114
0.033507
0.034862
0.0363815
0.0380463
0.039799
0.0415363
0.0431384
0.0445249
0.0456669
0.0465738
0.0472741
0.0478026
0.0626669
0.0358951
0.0315854
0.0303831
0.0301188
0.0302692
0.0306613
0.0312331
0.0319679
0.032873
0.0339716
0.0352978
0.0368889
0.0387712
0.040933
0.0432883
0.0456444
0.047754
0.0494911
0.0508453
0.0518659
0.0526193
0.0531669
0.068455
0.0395331
0.0345774
0.0329465
0.032353
0.0322462
0.0324426
0.0328756
0.0335294
0.0344181
0.0355801
0.0370755
0.0389811
0.0413725
0.0442797
0.0476001
0.0509794
0.0538317
0.0559946
0.0575499
0.0586433
0.0594063
0.0599378
0.0735046
0.0428972
0.0373301
0.0352709
0.034348
0.0339872
0.0339933
0.0342936
0.0348721
0.0357507
0.0369865
0.0386763
0.0409599
0.044012
0.0479914
0.0528788
0.0580911
0.0619788
0.064549
0.0661931
0.0672491
0.0679392
0.0683985
0.0771959
0.0456069
0.0395181
0.037085
0.0358791
0.0353044
0.0351526
0.0353443
0.0358624
0.0367354
0.0380398
0.0399131
0.042577
0.0463661
0.0517376
0.0591339
0.0681465
0.0732054
0.0758443
0.0772672
0.0780827
0.0785786
0.078895
0.0789759
0.0471894
0.040777
0.0381088
0.0367292
0.0360259
0.0357807
0.0359088
0.0363916
0.0372618
0.0386081
0.0405978
0.0435209
0.0478797
0.0545807
0.0653928
0.0841669
0.0890522
0.0906286
0.0912629
0.0915732
0.0917476
0.0918548
0.472947
0.453254
0.478033
0.558739
0.179579
0.17934
0.175869
0.16691
0.146247
0.143094
0.138811
0.13324
0.144679
0.140054
0.135103
0.130021
0.150067
0.142849
0.136027
0.12973
0.1468
0.139878
0.133693
0.127867
0.14341
0.137146
0.131232
0.125315
0.14069
0.134457
0.127925
0.121513
0.136951
0.128686
0.121632
0.115934
0.127092
0.120296
0.114487
0.109521
0.117667
0.112504
0.107759
0.103457
0.109776
0.10573
0.10184
0.0981663
0.102888
0.0996916
0.0965263
0.0934468
0.0965702
0.0940424
0.0914905
0.0889498
0.0905303
0.088539
0.086491
0.0844131
0.0846018
0.0830396
0.0814021
0.0797198
0.078759
0.077535
0.0762397
0.0748947
0.0730827
0.072121
0.0711004
0.0700352
0.0676918
0.0669334
0.0661268
0.0652813
0.0626626
0.0620646
0.0614267
0.0607556
0.0580342
0.0575655
0.0570636
0.0565332
0.0538218
0.0534598
0.0530698
0.052655
0.0500282
0.0497561
0.04946
0.049142
0.0466529
0.0464574
0.0462411
0.0460051
0.0436968
0.0435672
0.043419
0.0432526
0.0411652
0.0410919
0.0410015
0.0408942
0.0390678
0.039042
0.0390004
0.0389426
0.0374186
0.0374325
0.0374311
0.037414
0.0362353
0.0362816
0.0363129
0.0363288
0.0355396
0.035612
0.0356695
0.0357113
0.0353585
0.035452
0.03553
0.0355919
0.0357272
0.0358376
0.0359319
0.0360092
0.0366918
0.0368165
0.0369236
0.0370127
0.0383144
0.0384514
0.0385691
0.0386672
0.0406775
0.0408251
0.0409514
0.0410564
0.0438892
0.0440454
0.044178
0.0442877
0.0480894
0.0482505
0.0483859
0.0484971
0.0534554
0.0536149
0.0537477
0.0538558
0.0602094
0.060357
0.0604788
0.0605772
0.0686265
0.0687486
0.0688485
0.068929
0.0790484
0.0791296
0.079196
0.0792494
0.091906
0.0919328
0.0919548
0.0919726
0.170442
0.109138
0.0903263
0.0824628
0.0781124
0.0750001
0.0727757
0.0710421
0.0694414
0.0674315
0.0649334
0.0625704
0.0600573
0.0566757
0.0530308
0.0505201
0.0503346
0.055277
0.107034
0.133303
0.108922
0.0957246
0.0883721
0.0842569
0.0821842
0.0820456
0.0829152
0.0828566
0.0810568
0.0781907
0.075031
0.0714821
0.0672819
0.062926
0.0598197
0.0597878
0.0665584
0.133093
0.123068
0.110366
0.100896
0.0946108
0.091185
0.0903395
0.0922105
0.095532
0.0969813
0.0954308
0.0919879
0.0879862
0.0833436
0.0780939
0.0728792
0.0691847
0.0692411
0.075695
0.13819
0.12269
0.113883
0.106639
0.101462
0.0987952
0.0988589
0.102025
0.10685
0.109662
0.109008
0.105983
0.102233
0.0967109
0.0899683
0.0833813
0.078763
0.0789524
0.085457
0.163535
0.121782
0.115032
0.110862
0.107965
0.106206
0.105869
0.108575
0.114168
0.118241
0.118573
0.117052
0.110748
0.102743
0.098131
0.0936664
0.0874401
0.0825336
0.0841096
0.137217
0.12021
0.113924
0.111053
0.11007
0.109434
0.108807
0.109085
0.110726
0.111391
0.110099
0.107837
0.103837
0.100164
0.0989578
0.0959912
0.0870752
0.0778831
0.0758286
0.112823
0.1175
0.111348
0.108596
0.107959
0.107677
0.107219
0.106462
0.105308
0.103594
0.102795
0.102505
0.0996769
0.0954857
0.0929845
0.0891176
0.0803541
0.0710644
0.0673622
0.096577
0.113719
0.107395
0.104032
0.102855
0.102791
0.103
0.102262
0.100018
0.0967488
0.0948887
0.0937307
0.090656
0.0864174
0.0834539
0.0796949
0.0729801
0.0658168
0.0617023
0.0929211
0.108787
0.102195
0.0978338
0.0952789
0.0941429
0.0936479
0.0925049
0.0899129
0.0864514
0.0836692
0.0817013
0.0789778
0.0758908
0.0738776
0.0717934
0.0674599
0.0616956
0.0565993
0.0821946
0.102938
0.0962372
0.0912914
0.0877369
0.085276
0.0834546
0.0815533
0.0789501
0.075855
0.0731436
0.0708845
0.0685474
0.0664598
0.0653662
0.0641397
0.0608416
0.0558256
0.0514405
0.0683194
0.0974622
0.0909244
0.0858527
0.0818928
0.078745
0.0761258
0.0736748
0.0710601
0.06831
0.0657491
0.0633501
0.06097
0.0589107
0.057421
0.0556631
0.0526251
0.0490111
0.0466152
0.0549428
0.0928196
0.0866969
0.0817951
0.0777953
0.0744355
0.0715149
0.0688628
0.0663103
0.0637644
0.0612785
0.0587314
0.055961
0.0532344
0.050806
0.0483759
0.0457987
0.0439506
0.0437377
0.0467678
0.0887934
0.0832389
0.0786582
0.0748248
0.0715308
0.0685988
0.0659202
0.0633997
0.0609265
0.0584185
0.0557248
0.0526601
0.0494676
0.0465591
0.0440523
0.0421461
0.0416343
0.0434537
0.0495603
0.08498
0.0800652
0.0758856
0.072309
0.0691827
0.0663553
0.0637142
0.0611773
0.0586872
0.0561482
0.0534143
0.0503435
0.047154
0.0443017
0.0421097
0.0407654
0.040878
0.0441643
0.0572741
0.0810708
0.0768135
0.0730879
0.0698146
0.0668861
0.0641872
0.0615999
0.0590464
0.0565259
0.053988
0.0513062
0.0484017
0.0454669
0.0429046
0.0410563
0.0401387
0.0407333
0.0453769
0.0660907
0.0769423
0.0733168
0.0700654
0.06713
0.0644295
0.0618754
0.0593567
0.0568184
0.0542908
0.0517648
0.0491646
0.0464654
0.0438323
0.041586
0.0400415
0.0394882
0.0406072
0.0463137
0.074269
0.0726208
0.0695754
0.0667807
0.0641991
0.0617589
0.0593804
0.0569677
0.054495
0.0520059
0.049517
0.0470075
0.0444962
0.0421271
0.0401559
0.038876
0.0386514
0.0402834
0.0467779
0.0806357
0.0682081
0.0656881
0.0633104
0.061068
0.0589029
0.0567321
0.0544758
0.0521286
0.0497365
0.0473333
0.0449383
0.0426024
0.0404582
0.0387219
0.0376749
0.0377347
0.0398202
0.0471054
0.0846738
0.0638196
0.0617704
0.0597792
0.057846
0.0559438
0.0539964
0.0519404
0.0497732
0.047536
0.0452736
0.043031
0.0408795
0.0389469
0.0374279
0.0365963
0.0368993
0.0393456
0.0474035
0.0868534
0.0595885
0.0579312
0.0562812
0.0546444
0.0529914
0.0512687
0.0494343
0.0474806
0.0454428
0.0433685
0.0413161
0.0393686
0.0376514
0.0363474
0.0357236
0.0362382
0.0389469
0.047541
0.088651
0.0556052
0.0542715
0.0529143
0.0515395
0.0501255
0.0486326
0.0470249
0.0452976
0.0434837
0.0416276
0.0397923
0.0380651
0.0365694
0.0354801
0.0350575
0.0357612
0.0386686
0.0476113
0.0910964
0.051924
0.0508588
0.0497517
0.0486074
0.0474107
0.0461334
0.0447499
0.0432557
0.0416741
0.0400482
0.0384414
0.0369407
0.0356665
0.0347873
0.034558
0.0354395
0.038538
0.0478692
0.0943804
0.0485758
0.0477352
0.0468419
0.0458996
0.0448982
0.0438183
0.0426424
0.0413674
0.040012
0.0386153
0.0372373
0.0359616
0.0349028
0.0342225
0.0341696
0.0352075
0.0384778
0.0482101
0.0975954
0.0455783
0.0449272
0.0442165
0.0434499
0.0426213
0.0417181
0.0407289
0.0396529
0.0385061
0.0373237
0.0361607
0.0350955
0.0342358
0.0337354
0.0338376
0.0350074
0.0384154
0.0484645
0.100277
0.0429443
0.0424531
0.0418979
0.0412825
0.040604
0.0398549
0.0390289
0.0381272
0.0371649
0.0361734
0.0352028
0.0343252
0.0336412
0.0332973
0.0335307
0.0348057
0.0383109
0.0485771
0.102454
0.040686
0.0403292
0.0399049
0.0394173
0.0388661
0.0382478
0.0375598
0.0368058
0.0360001
0.0351712
0.0343648
0.0336469
0.0331114
0.0328977
0.0332368
0.0345897
0.0381502
0.0485329
0.104163
0.0388181
0.0385726
0.0382567
0.0378746
0.037428
0.0369167
0.0363412
0.035707
0.0350282
0.0343313
0.0336578
0.0330687
0.0326519
0.0325404
0.0329594
0.0343641
0.0379424
0.0483441
0.105292
0.0373583
0.0372033
0.0369745
0.0366767
0.036313
0.0358854
0.0353969
0.0348545
0.0342725
0.0336756
0.0331022
0.032609
0.0322791
0.0322404
0.032713
0.0341454
0.0377119
0.0480379
0.105454
0.0363281
0.0362445
0.0360837
0.0358504
0.0355487
0.0351825
0.0347565
0.0342788
0.0337637
0.0332347
0.0327278
0.0322961
0.032019
0.0320208
0.0325176
0.0339516
0.0374766
0.0476218
0.104181
0.0357537
0.0357247
0.0356144
0.0354275
0.0351689
0.0348435
0.0344571
0.0340185
0.0335419
0.0330495
0.032575
0.0321689
0.0319076
0.0319126
0.0323969
0.0337963
0.0372409
0.0471262
0.102046
0.0356672
0.0356783
0.0356036
0.0354475
0.0352152
0.0349123
0.0345452
0.0341226
0.0336582
0.0331726
0.0326973
0.03228
0.0319945
0.0319596
0.0323858
0.0337027
0.0370219
0.0466583
0.100638
0.036109
0.0361484
0.0360967
0.0359584
0.0357388
0.0354434
0.0350785
0.0346525
0.0341774
0.0336718
0.0331644
0.0326998
0.0323483
0.0322264
0.0325421
0.0337228
0.0368756
0.0463308
0.100512
0.0371305
0.037189
0.0371509
0.0370206
0.0368033
0.0365043
0.036129
0.0356846
0.035181
0.0346335
0.0340669
0.0335212
0.0330629
0.0328052
0.0329555
0.0339438
0.0368902
0.0462038
0.101171
0.0387982
0.038869
0.0388377
0.0387089
0.0384876
0.0381783
0.0377855
0.037314
0.0367706
0.0361662
0.0355199
0.0348653
0.0342626
0.0338211
0.0337491
0.0344854
0.0371758
0.0463322
0.102264
0.0411967
0.0412749
0.0412465
0.0411162
0.0408889
0.0405682
0.0401568
0.0396569
0.0390712
0.0384045
0.0376679
0.0368854
0.0361074
0.0354365
0.0350818
0.035498
0.0378678
0.0468037
0.103519
0.0444336
0.0445159
0.0444886
0.0443574
0.0441264
0.0437986
0.0433748
0.0428542
0.0422342
0.0415123
0.0406889
0.0397735
0.0388002
0.0378574
0.0371527
0.0371638
0.0391296
0.0477598
0.104913
0.0486443
0.0487277
0.0487019
0.048573
0.0483452
0.0480203
0.0475977
0.0470732
0.0464393
0.045685
0.0447966
0.0437639
0.0425933
0.0413443
0.0402107
0.0397052
0.041176
0.0495194
0.107899
0.053998
0.0540794
0.0540564
0.0539357
0.0537212
0.0534143
0.053013
0.0525109
0.0518959
0.0511488
0.050241
0.0491354
0.0477957
0.0462228
0.0445619
0.0433713
0.044207
0.0523941
0.114025
0.0607062
0.0607812
0.0607628
0.0606575
0.0604691
0.0601986
0.0598436
0.059397
0.0588443
0.0581605
0.0573039
0.0562079
0.0547751
0.0528948
0.0505678
0.0483425
0.0482997
0.056439
0.123019
0.0690344
0.0690972
0.0690847
0.0690023
0.0688534
0.0686391
0.0683576
0.0680025
0.0675605
0.0670064
0.0662929
0.0653312
0.0639521
0.0618501
0.0586248
0.0546657
0.0532996
0.0614401
0.134438
0.0793197
0.079363
0.0793563
0.0793034
0.0792067
0.0790673
0.0788847
0.078655
0.0783695
0.0780101
0.0775383
0.0768673
0.0757785
0.0736685
0.0689812
0.0618864
0.0585261
0.0666249
0.146844
0.0919962
0.0920107
0.0920076
0.0919884
0.0919543
0.0919061
0.0918438
0.0917667
0.0916726
0.0915559
0.0914027
0.0911718
0.0906979
0.089088
0.0802136
0.0681083
0.0623996
0.0703792
0.156425
)
;

boundaryField
{
    leftWall
    {
        type            epsilonWallFunction;
        value           nonuniform List<scalar> 
50
(
0.00398932
0.00781979
0.013005
0.018136
0.0232537
0.0284685
0.0339173
0.039808
0.0503468
0.0690177
0.102234
0.178246
0.292143
0.354145
0.390194
0.401019
0.378321
0.34514
0.305521
0.263304
0.226347
0.194829
0.168787
0.148197
0.132576
0.120977
0.112192
0.105028
0.0985177
0.0920408
0.0853266
0.0783636
0.0713757
0.0647198
0.0585166
0.0528235
0.047878
0.0440253
0.0415473
0.0405912
0.0411817
0.0432592
0.0466994
0.0513031
0.0567678
0.0626669
0.068455
0.0735046
0.0771959
0.0789759
)
;
        Cmu             0.09;
        kappa           0.41;
        E               9.8;
        value           nonuniform List<scalar> 
50
(
0.00398932
0.00781979
0.013005
0.018136
0.0232537
0.0284685
0.0339173
0.039808
0.0503468
0.0690177
0.102234
0.178246
0.292143
0.354145
0.390194
0.401019
0.378321
0.34514
0.305521
0.263304
0.226347
0.194829
0.168787
0.148197
0.132576
0.120977
0.112192
0.105028
0.0985177
0.0920408
0.0853266
0.0783636
0.0713757
0.0647198
0.0585166
0.0528235
0.047878
0.0440253
0.0415473
0.0405912
0.0411817
0.0432592
0.0466994
0.0513031
0.0567678
0.0626669
0.068455
0.0735046
0.0771959
0.0789759
)
;
    }
    rightWall
    {
        type            epsilonWallFunction;
        value           nonuniform List<scalar> 
50
(
0.0116365
0.016275
0.0245306
0.0334304
0.0436277
0.0561072
0.0714424
0.0873263
0.107034
0.133093
0.13819
0.163535
0.137217
0.112823
0.096577
0.0929211
0.0821946
0.0683194
0.0549428
0.0467678
0.0495603
0.0572741
0.0660907
0.074269
0.0806357
0.0846738
0.0868534
0.088651
0.0910964
0.0943804
0.0975954
0.100277
0.102454
0.104163
0.105292
0.105454
0.104181
0.102046
0.100638
0.100512
0.101171
0.102264
0.103519
0.104913
0.107899
0.114025
0.123019
0.134438
0.146844
0.156425
)
;
        Cmu             0.09;
        kappa           0.41;
        E               9.8;
        value           nonuniform List<scalar> 
50
(
0.0116365
0.016275
0.0245306
0.0334304
0.0436277
0.0561072
0.0714424
0.0873263
0.107034
0.133093
0.13819
0.163535
0.137217
0.112823
0.096577
0.0929211
0.0821946
0.0683194
0.0549428
0.0467678
0.0495603
0.0572741
0.0660907
0.074269
0.0806357
0.0846738
0.0868534
0.088651
0.0910964
0.0943804
0.0975954
0.100277
0.102454
0.104163
0.105292
0.105454
0.104181
0.102046
0.100638
0.100512
0.101171
0.102264
0.103519
0.104913
0.107899
0.114025
0.123019
0.134438
0.146844
0.156425
)
;
    }
    lowerWall
    {
        type            epsilonWallFunction;
        value           nonuniform List<scalar> 
62
(
0.00398932
0.0209432
0.038585
0.0558794
0.0730556
0.0903648
0.108028
0.126229
0.145064
0.164408
0.183757
0.202174
0.218452
0.231397
0.240002
0.243314
0.2409
0.230664
0.215423
0.19623
0.161558
0.101623
0.0218812
0.0218812
0.0397767
0.0647022
0.0899253
0.119094
0.16422
0.251856
0.413687
0.472947
0.453254
0.478033
0.558739
0.0200613
0.0288856
0.0441854
0.0604847
0.0795552
0.106081
0.155914
0.296281
0.0200613
0.0825184
0.140483
0.176529
0.19724
0.20135
0.187159
0.156943
0.119409
0.0901273
0.0804207
0.0736855
0.0554154
0.0510106
0.057776
0.0621654
0.0607651
0.0412568
0.0116365
)
;
        Cmu             0.09;
        kappa           0.41;
        E               9.8;
        value           nonuniform List<scalar> 
62
(
0.00398932
0.0209432
0.038585
0.0558794
0.0730556
0.0903648
0.108028
0.126229
0.145064
0.164408
0.183757
0.202174
0.218452
0.231397
0.240002
0.243314
0.2409
0.230664
0.215423
0.19623
0.161558
0.101623
0.0218812
0.0218812
0.0397767
0.0647022
0.0899253
0.119094
0.16422
0.251856
0.413687
0.472947
0.453254
0.478033
0.558739
0.0200613
0.0288856
0.0441854
0.0604847
0.0795552
0.106081
0.155914
0.296281
0.0200613
0.0825184
0.140483
0.176529
0.19724
0.20135
0.187159
0.156943
0.119409
0.0901273
0.0804207
0.0736855
0.0554154
0.0510106
0.057776
0.0621654
0.0607651
0.0412568
0.0116365
)
;
    }
    atmosphere
    {
        type            inletOutlet;
        inletValue      uniform 0.1;
        value           nonuniform List<scalar> 
46
(
0.0789759
0.0471894
0.040777
0.0381088
0.0367292
0.0360259
0.0357807
0.0359088
0.0363916
0.0372618
0.0386081
0.0405978
0.0435209
0.0478797
0.0545807
0.0653928
0.1
0.1
0.1
0.1
0.1
0.1
0.1
0.1
0.1
0.1
0.1
0.1
0.1
0.1
0.1
0.1
0.1
0.1
0.1
0.1
0.1
0.1
0.1
0.1
0.1
0.0802136
0.0681083
0.0623996
0.0703792
0.156425
)
;
    }
    defaultFaces
    {
        type            empty;
    }
}


// ************************************************************************* //
