/*--------------------------------*- C++ -*----------------------------------*\
| =========                 |                                                 |
| \\      /  F ield         | OpenFOAM: The Open Source CFD Toolbox           |
|  \\    /   O peration     | Version:  2.3.0                                 |
|   \\  /    A nd           | Web:      www.OpenFOAM.org                      |
|    \\/     M anipulation  |                                                 |
\*---------------------------------------------------------------------------*/
FoamFile
{
    version     2.0;
    format      ascii;
    class       volScalarField;
    location    "2.55";
    object      k;
}
// * * * * * * * * * * * * * * * * * * * * * * * * * * * * * * * * * * * * * //

dimensions      [0 2 -2 0 0 0 0];

internalField   nonuniform List<scalar> 
2268
(
0.00117365
0.00289904
0.00435871
0.00558296
0.00667895
0.00769932
0.00867499
0.00962507
0.0105585
0.0114709
0.0123409
0.0131324
0.0138042
0.0143201
0.0146522
0.0147727
0.0146862
0.0142731
0.0136629
0.012853
0.0112789
0.00824558
0.00289359
0.00247598
0.00678446
0.0098646
0.0124978
0.0148736
0.0170937
0.0192189
0.0212851
0.0233055
0.0252647
0.0271142
0.0287789
0.030176
0.0312351
0.0319067
0.0321425
0.0318566
0.0310217
0.0296986
0.0277131
0.0243288
0.0183213
0.00717699
0.00348022
0.00910788
0.012972
0.0163024
0.019339
0.0221971
0.0249456
0.0276234
0.0302391
0.0327647
0.0351323
0.0372451
0.0389991
0.0403062
0.0411035
0.0413399
0.040954
0.039962
0.0383655
0.0358832
0.0316907
0.024316
0.00993271
0.00434813
0.0110106
0.0154564
0.0192914
0.0228112
0.0261422
0.0293571
0.032494
0.0355554
0.0385002
0.0412435
0.0436722
0.0456701
0.0471423
0.0480245
0.0482732
0.0478505
0.0467959
0.0450844
0.0423522
0.0376714
0.0293326
0.0123591
0.00513509
0.0127487
0.0177211
0.0219962
0.0259339
0.0296744
0.0332937
0.0368285
0.0402741
0.0435752
0.0466295
0.0493097
0.0514933
0.053086
0.0540306
0.0542973
0.053869
0.0527914
0.0510267
0.0481411
0.0430734
0.0338727
0.0148925
0.00588064
0.014427
0.0199206
0.024618
0.0289501
0.033075
0.0370727
0.0409781
0.0447785
0.0484024
0.0517278
0.0546145
0.0569378
0.0586109
0.0595903
0.0598643
0.0594372
0.0583446
0.056544
0.0535424
0.0481535
0.0382427
0.0184884
0.00661523
0.016115
0.0221467
0.0272704
0.0319944
0.0364981
0.0408657
0.0451304
0.0492713
0.0531968
0.0567613
0.0598119
0.0622268
0.0639332
0.0649075
0.0651597
0.0647139
0.0635954
0.061758
0.0586783
0.0531457
0.0430528
0.0247366
0.00737029
0.0178732
0.0244716
0.0300367
0.0351615
0.0400497
0.0447884
0.0494096
0.0538841
0.0580947
0.0618653
0.0650316
0.0674813
0.0691627
0.0700784
0.0702631
0.0697582
0.0685917
0.0667169
0.0636343
0.0583075
0.0490823
0.0346627
0.00277441
0.00725906
0.0103101
0.011975
0.0128772
0.0130426
0.0124194
0.0110658
0.00924403
0.00768021
0.00714018
0.00675776
0.00559724
0.00526589
0.00571253
0.00599246
0.00588464
0.00452971
0.00243263
0.00624342
0.0163491
0.0218022
0.0249204
0.0264771
0.0265664
0.0253363
0.0231344
0.0196329
0.0172049
0.0165022
0.0155657
0.0134137
0.0123595
0.0127278
0.0129924
0.0119689
0.00906601
0.00430889
0.00831451
0.0215135
0.0279312
0.0315491
0.0332545
0.0332224
0.0317457
0.0293536
0.025954
0.0233683
0.0222818
0.0210292
0.018871
0.0175382
0.0174542
0.0172716
0.0157323
0.0120019
0.00568218
0.0102919
0.0258895
0.0328624
0.03658
0.0382112
0.0380202
0.0364038
0.0339889
0.0308122
0.0283489
0.0270823
0.0257042
0.0236695
0.0220823
0.021428
0.0208705
0.0190304
0.01481
0.00700049
0.0124134
0.0303615
0.0375053
0.0410395
0.0424606
0.0421041
0.0404137
0.038062
0.0351554
0.0329094
0.0315766
0.0301905
0.0282862
0.0264624
0.0252508
0.0242685
0.0221826
0.0176547
0.00837208
0.0151236
0.0353337
0.0421477
0.0452488
0.0463719
0.0458705
0.0441689
0.0419442
0.039361
0.0373721
0.0360336
0.0346714
0.0328576
0.0308138
0.0290758
0.0276026
0.0252311
0.0204928
0.00990666
0.0196764
0.0410479
0.0468531
0.0493131
0.0500952
0.0494932
0.0478561
0.045824
0.0436186
0.0418951
0.0405631
0.0391937
0.0373967
0.0351365
0.0329198
0.0309307
0.0282129
0.0231996
0.0116316
0.0302853
0.0474272
0.0515527
0.0532472
0.0536915
0.053053
0.0515775
0.0498179
0.0480297
0.0465399
0.0451866
0.0437439
0.0418701
0.0393887
0.0367488
0.0342531
0.031164
0.0258299
0.013289
0.00864529
0.0208286
0.0283646
0.0346499
0.0404263
0.0459358
0.0512642
0.0564433
0.0614345
0.0660669
0.0701
0.0733567
0.0757549
0.0772893
0.0780136
0.0780075
0.0773337
0.0759959
0.073947
0.0708204
0.0659772
0.0585438
0.0479662
0.0107028
0.0257035
0.0346996
0.0420595
0.0488242
0.0552625
0.0614134
0.0673298
0.0730032
0.0781189
0.0822636
0.0852883
0.0872397
0.0882254
0.0884032
0.0879457
0.0869642
0.0854796
0.0834939
0.0809536
0.0777471
0.0739194
0.0702129
0.0139321
0.0324153
0.0429172
0.0513728
0.0593248
0.0668724
0.0738641
0.0804689
0.0869111
0.0924969
0.096392
0.0986689
0.0997088
0.0997531
0.0990722
0.0979589
0.0965772
0.0949344
0.093112
0.0911719
0.088958
0.0861334
0.0831835
0.0201638
0.042229
0.0537631
0.0630918
0.0726897
0.0816141
0.0892659
0.0963161
0.103948
0.110197
0.113199
0.113974
0.113635
0.112389
0.11053
0.108514
0.106653
0.10473
0.103014
0.101826
0.100629
0.0976263
0.0939003
0.0281584
0.0547034
0.066039
0.0748723
0.0848666
0.094179
0.101579
0.10862
0.116789
0.122588
0.125058
0.125952
0.126434
0.125335
0.122331
0.119466
0.117254
0.114562
0.112684
0.112364
0.110158
0.107035
0.103782
0.0324962
0.0665793
0.0763747
0.0827863
0.0902224
0.0981285
0.105238
0.11223
0.117871
0.121823
0.124593
0.126871
0.128838
0.129643
0.128664
0.128205
0.126766
0.12263
0.119308
0.117635
0.114432
0.112151
0.107368
0.0349428
0.073672
0.0848235
0.0897017
0.0948769
0.101187
0.107076
0.112172
0.116025
0.119473
0.12225
0.124702
0.12672
0.128118
0.128956
0.130552
0.13076
0.127731
0.124356
0.121065
0.11785
0.114528
0.108884
0.0355908
0.0722636
0.0882773
0.0955331
0.0989773
0.102446
0.106339
0.110908
0.114837
0.117577
0.120727
0.123624
0.125382
0.126477
0.127312
0.128527
0.129224
0.128684
0.128092
0.126111
0.122521
0.117438
0.110475
0.0342013
0.0679291
0.085565
0.0956206
0.0995389
0.101387
0.10446
0.108844
0.112484
0.115307
0.118877
0.122399
0.12457
0.125705
0.125696
0.125963
0.126561
0.127167
0.127961
0.128564
0.127713
0.120805
0.111842
0.0321226
0.0628154
0.0795604
0.0901332
0.0954704
0.0980133
0.101014
0.104886
0.108514
0.111823
0.115379
0.118849
0.121358
0.122775
0.122598
0.122436
0.123228
0.124616
0.125582
0.125163
0.122832
0.115947
0.10838
0.0295695
0.0572296
0.0724184
0.082572
0.088886
0.0928411
0.0965311
0.100441
0.10419
0.10773
0.111179
0.114332
0.116587
0.117601
0.117636
0.117679
0.118518
0.119915
0.120332
0.118252
0.114159
0.109099
0.103896
0.026736
0.0516714
0.0654166
0.0749398
0.0816408
0.0865383
0.0910777
0.0955137
0.0996283
0.103352
0.106734
0.109698
0.111717
0.112362
0.112278
0.112305
0.112846
0.113578
0.113345
0.11117
0.107747
0.103998
0.100211
0.0241449
0.0464677
0.059153
0.0681192
0.0748581
0.0801039
0.0848579
0.0895105
0.0939244
0.097959
0.101558
0.104562
0.106476
0.107007
0.10684
0.106875
0.107273
0.107666
0.107195
0.105319
0.102654
0.0998251
0.0969502
0.02179
0.0419226
0.0538011
0.0622885
0.0688795
0.0741738
0.0788215
0.0832568
0.0875271
0.0915457
0.0951933
0.0982107
0.100193
0.101
0.101179
0.101509
0.102053
0.102355
0.10179
0.100255
0.0982183
0.0960746
0.0938625
0.0197197
0.0381135
0.0493247
0.0573883
0.0637529
0.0689597
0.0734521
0.0775914
0.0815226
0.0852304
0.0886108
0.0914611
0.0935265
0.0947454
0.095463
0.0961487
0.096823
0.0971205
0.0966794
0.0955563
0.0940656
0.0924687
0.0907857
0.0179826
0.0350398
0.0456556
0.0533278
0.0594354
0.0644899
0.0688239
0.0727124
0.076315
0.0796681
0.0827186
0.0853473
0.0874216
0.0889165
0.0900082
0.0909149
0.0916373
0.0919754
0.0917606
0.0910465
0.090035
0.0888927
0.087641
0.0165937
0.0326315
0.0426937
0.0499924
0.0558304
0.0606977
0.0648694
0.0685553
0.0718963
0.0749532
0.0777182
0.0801393
0.0821563
0.0837572
0.0850163
0.0860256
0.0867693
0.087163
0.0871442
0.0867584
0.0861257
0.085346
0.0844377
0.0155204
0.0307629
0.040302
0.0472379
0.052801
0.0574617
0.0614638
0.064975
0.0681127
0.0709426
0.0734845
0.075727
0.0776483
0.0792419
0.0805329
0.0815649
0.0823166
0.0827631
0.0828936
0.0827453
0.0823885
0.0818808
0.0812329
0.0146898
0.0292786
0.0383223
0.0449047
0.0501928
0.0546382
0.058466
0.0618169
0.0647882
0.0674421
0.0698103
0.0719022
0.0737155
0.0752487
0.0765104
0.0775221
0.078275
0.0787661
0.0790051
0.079022
0.0788591
0.0785495
0.0780982
0.0140112
0.0280232
0.0365998
0.0428405
0.0478599
0.052092
0.0557468
0.0589473
0.0617751
0.0642859
0.0665148
0.0684805
0.0701911
0.0716499
0.0728626
0.0738422
0.0745965
0.0751253
0.0754448
0.0755787
0.0755541
0.0753908
0.0750914
0.0134002
0.0268656
0.035005
0.040921
0.0456861
0.0497164
0.0532078
0.0562687
0.0589693
0.0613594
0.0634738
0.0653354
0.066958
0.0683495
0.0695172
0.070472
0.0712307
0.0717939
0.0721778
0.0724008
0.0724811
0.0724319
0.0722548
0.0127954
0.0257165
0.0334484
0.0390627
0.0435959
0.0474447
0.0507882
0.0537227
0.0563105
0.0585973
0.0606176
0.0623961
0.0639498
0.0652904
0.0664275
0.0673724
0.0681416
0.0687405
0.0691819
0.0694796
0.0696468
0.0696929
0.0696196
0.012164
0.0245326
0.0318863
0.037228
0.0415585
0.0452503
0.0484639
0.0512858
0.0537742
0.0559736
0.0579183
0.059634
0.0611397
0.062449
0.0635729
0.0645228
0.0653129
0.0659524
0.06645
0.0668163
0.0670612
0.0671918
0.0672103
0.0114972
0.0233027
0.0303146
0.0354217
0.0395816
0.0431398
0.0462388
0.0489603
0.0513625
0.05349
0.0553774
0.0570508
0.0585292
0.059827
0.0609554
0.0619249
0.062747
0.0634331
0.0639883
0.0644209
0.0647385
0.0649469
0.0650485
0.0108092
0.0220513
0.0287578
0.0336755
0.0376948
0.0411357
0.044131
0.0467637
0.0490939
0.0511669
0.0530166
0.054668
0.0561395
0.0574446
0.0585936
0.0595957
0.0604604
0.0611978
0.0618123
0.0623099
0.0626967
0.0629774
0.0631547
0.0101329
0.0208407
0.0272544
0.0320134
0.0359185
0.0392564
0.0421609
0.0447207
0.0469981
0.0490374
0.0508705
0.0525206
0.0540041
0.0553329
0.056516
0.0575612
0.0584759
0.0592684
0.0599429
0.0605039
0.060956
0.0613034
0.0615489
0.00948362
0.0196838
0.0258295
0.03045
0.0342606
0.0375148
0.0403518
0.0428645
0.0451147
0.0471445
0.0489832
0.0506512
0.052163
0.0535288
0.0547561
0.0558512
0.0568201
0.0576694
0.058403
0.0590243
0.0595369
0.0599448
0.0602508
0.00886773
0.0185755
0.0245106
0.0290136
0.0327446
0.0359424
0.0387451
0.0412428
0.0434943
0.0455388
0.0474028
0.0491047
0.050657
0.0520687
0.0533462
0.0544946
0.0555189
0.0564243
0.0572144
0.0578916
0.0584592
0.0589205
0.059279
0.00831196
0.0176011
0.0233613
0.027764
0.0314357
0.0346072
0.0374074
0.0399186
0.042195
0.0442726
0.046176
0.0479218
0.0495217
0.0509837
0.0523134
0.0535155
0.054594
0.0555531
0.0563958
0.0571239
0.0577401
0.0582478
0.0586506
0.00786153
0.0168525
0.0224692
0.0267948
0.0304303
0.0335981
0.0364159
0.0389573
0.0412712
0.0433911
0.0453397
0.047133
0.0487822
0.0502947
0.0516761
0.0529302
0.0540605
0.0550704
0.0559617
0.0567357
0.0573949
0.0579423
0.058382
0.00755973
0.016392
0.0219179
0.0261957
0.0298149
0.0329908
0.0358329
0.0384079
0.0407605
0.0429219
0.0449142
0.046753
0.0484492
0.0500105
0.0514418
0.0527465
0.0539272
0.0549862
0.0559236
0.0567403
0.0574379
0.0580196
0.0584897
0.00743448
0.0162645
0.02176
0.0260209
0.029638
0.0328254
0.0356885
0.0382907
0.0406743
0.0428699
0.0448992
0.0467783
0.0485185
0.050127
0.0516085
0.0529653
0.0541984
0.0553079
0.0562921
0.0571506
0.0578844
0.0584968
0.0589924
0.00749424
0.0164849
0.0220101
0.0262809
0.029905
0.0331011
0.0359761
0.0385934
0.040996
0.0432149
0.0452732
0.0471878
0.0489706
0.0506288
0.052166
0.0535824
0.0548762
0.0560435
0.0570801
0.0579835
0.0587541
0.0593954
0.0599131
0.00772999
0.0170382
0.0226464
0.026948
0.0305827
0.033781
0.0366556
0.0392741
0.0416823
0.043914
0.0459947
0.0479434
0.049773
0.0514909
0.0530983
0.0545918
0.0559645
0.0572057
0.0583069
0.0592632
0.0600742
0.0607446
0.0612818
0.00811911
0.0178833
0.0236176
0.0279637
0.0316078
0.0347989
0.03766
0.0402658
0.0426677
0.0449041
0.0470048
0.0489923
0.0508817
0.0526804
0.0543865
0.0559899
0.0574741
0.0588176
0.0600044
0.0610264
0.0618837
0.0625837
0.0631382
0.00862807
0.0189563
0.0248474
0.0292445
0.032893
0.036066
0.0389009
0.041482
0.0438684
0.0461056
0.0482294
0.0502683
0.0522416
0.0541578
0.056011
0.0577799
0.0594299
0.0609206
0.0622237
0.0633281
0.0642375
0.0649663
0.0655333
0.0092137
0.0201739
0.0262387
0.0306872
0.0343325
0.0374769
0.0402747
0.0428219
0.0451875
0.0474257
0.0495816
0.0516926
0.0537866
0.0558766
0.0579531
0.0599775
0.0618807
0.0635857
0.0650452
0.0662484
0.0672109
0.0679613
0.0685313
0.00982482
0.0214366
0.0276788
0.0321744
0.0358088
0.0389161
0.0416691
0.0441771
0.04652
0.048763
0.0509637
0.0531739
0.0554369
0.0577789
0.0601924
0.062615
0.0649151
0.0669321
0.0685919
0.0699001
0.0709026
0.0716554
0.0722097
0.010405
0.022634
0.0290456
0.0335821
0.0371999
0.0402653
0.0429703
0.0454376
0.0477589
0.050012
0.0522702
0.0546066
0.0570919
0.0597833
0.0626955
0.0657474
0.0686947
0.0711574
0.0730458
0.0744333
0.0754342
0.0761501
0.0766579
0.0108962
0.0236522
0.0302167
0.0347879
0.038387
0.0414111
0.0440701
0.0464994
0.0488019
0.0510685
0.053391
0.0558699
0.0586188
0.0617574
0.0653773
0.0694368
0.0735284
0.0765913
0.0786639
0.0800331
0.0809433
0.0815569
0.0819745
0.0112459
0.0243866
0.0310798
0.0356795
0.039262
0.0422513
0.0448724
0.0472708
0.0495585
0.0518378
0.0542179
0.0568293
0.0598398
0.0634709
0.0679969
0.0736501
0.0800938
0.0837801
0.0857721
0.0868934
0.0875644
0.0879877
0.0882642
0.0114095
0.0247714
0.0315453
0.0361611
0.0397326
0.0427005
0.0452989
0.0476789
0.0499578
0.0522446
0.0546592
0.0573536
0.0605405
0.0645477
0.0699285
0.0777293
0.0902024
0.0935368
0.094665
0.0951477
0.0953982
0.0955456
0.0956387
0.0383526
0.0373114
0.0386576
0.0429279
0.0683274
0.0676791
0.0674991
0.0676471
0.0814577
0.0805035
0.0796397
0.0788231
0.0915039
0.0900157
0.0884998
0.0870385
0.099842
0.097273
0.0947978
0.0925025
0.102927
0.100335
0.0979497
0.0956615
0.104732
0.102299
0.0999296
0.0975099
0.105971
0.103477
0.100786
0.098089
0.106166
0.102752
0.0997687
0.0973174
0.103313
0.100419
0.0978951
0.0956978
0.100179
0.0979196
0.0958025
0.0938457
0.0973571
0.0955439
0.0937671
0.0920563
0.0947074
0.0932484
0.0917756
0.0903147
0.0920924
0.0909239
0.0897207
0.0884986
0.0894066
0.0884804
0.0875069
0.0864974
0.0865881
0.0858621
0.0850812
0.0842591
0.0836407
0.083077
0.0824617
0.0818042
0.0806316
0.0801969
0.0797173
0.0791991
0.0776493
0.0773167
0.0769451
0.0765385
0.0747637
0.0745136
0.074229
0.0739127
0.0720266
0.0718449
0.0716321
0.0713903
0.069476
0.0693525
0.0692007
0.0690217
0.0671407
0.0670681
0.0669691
0.0668443
0.0650447
0.0650172
0.0649646
0.064887
0.0632096
0.0632221
0.0632103
0.0631741
0.0616558
0.0617035
0.0617272
0.0617268
0.0604029
0.0604808
0.060535
0.0605651
0.0594693
0.0595726
0.0596523
0.0597078
0.0588725
0.0589967
0.0590969
0.0591727
0.0586294
0.05877
0.0588864
0.0589779
0.0587572
0.0589104
0.0590389
0.0591422
0.0592756
0.0594382
0.0595755
0.059687
0.0602085
0.0603778
0.0605211
0.060638
0.0615865
0.0617604
0.0619073
0.0620272
0.0634492
0.0636253
0.0637736
0.0638943
0.0658463
0.066022
0.066169
0.066288
0.0688396
0.0690106
0.0691526
0.0692668
0.0725023
0.0726624
0.0727942
0.0728995
0.0769187
0.0770593
0.0771741
0.0772651
0.082183
0.0822939
0.0823837
0.0824544
0.088399
0.0884698
0.0885268
0.0885717
0.0956832
0.0957064
0.0957251
0.0957397
0.0532304
0.0570827
0.0584202
0.0589485
0.0589395
0.0583933
0.0574854
0.0563635
0.0552413
0.0540031
0.052523
0.0508332
0.0486931
0.0458611
0.0426472
0.0394065
0.0357061
0.0296744
0.0152135
0.0679395
0.0674821
0.066773
0.0662106
0.0658535
0.0656551
0.0657611
0.0659064
0.0654877
0.0642257
0.0623462
0.0600456
0.057216
0.0537673
0.0498803
0.045857
0.0414259
0.0344599
0.0175984
0.0775893
0.0758504
0.0742628
0.0731294
0.07263
0.0728171
0.073827
0.0751203
0.0753238
0.0740279
0.0716809
0.0687813
0.0652425
0.0610702
0.0564555
0.0516725
0.0465104
0.038202
0.0181374
0.0850397
0.0828745
0.081049
0.0797509
0.0792414
0.0796638
0.0811822
0.0830802
0.0837693
0.0827057
0.0803489
0.0773281
0.0731702
0.0680911
0.0625252
0.0568395
0.0509484
0.0413451
0.0201844
0.089632
0.0875163
0.0864061
0.0857026
0.0853348
0.0854122
0.0865992
0.0887119
0.0897998
0.0889926
0.0870585
0.0827316
0.0773113
0.0728441
0.0677478
0.0609449
0.0525882
0.0409669
0.018176
0.0926112
0.0902881
0.0894061
0.0892753
0.0891874
0.0889598
0.0889332
0.0892249
0.0887485
0.0870623
0.0845579
0.0808668
0.0769108
0.0735016
0.0686978
0.0606003
0.05046
0.0375307
0.0159777
0.0942362
0.091735
0.0906944
0.0905292
0.0904042
0.0900537
0.0893598
0.0882009
0.0864447
0.0846998
0.0827064
0.0791257
0.0745953
0.0703938
0.0650972
0.057022
0.047025
0.0349257
0.0144151
0.0947245
0.0919824
0.0904999
0.0899242
0.0897218
0.0894759
0.0885463
0.0866117
0.0838296
0.0812674
0.0785432
0.0745541
0.0697508
0.0652001
0.0599383
0.0528002
0.0440807
0.0328547
0.0140312
0.0941476
0.0911439
0.0890426
0.0876393
0.0867477
0.0859745
0.0846234
0.082241
0.0790465
0.0757563
0.0724426
0.0684131
0.0639417
0.0597349
0.05521
0.0491427
0.0412762
0.0305078
0.0129245
0.0926837
0.0894915
0.0869673
0.0849257
0.0832182
0.081607
0.0796798
0.0770568
0.0737965
0.0703333
0.0667228
0.06274
0.0586152
0.0547437
0.0505112
0.0447814
0.0371552
0.0268879
0.0113837
0.091021
0.087793
0.0850957
0.0827396
0.0805614
0.0784001
0.0760346
0.0732433
0.0700081
0.0664998
0.0627226
0.0586296
0.0544185
0.0502225
0.045527
0.0395921
0.0322174
0.0228864
0.00977823
0.0894798
0.0863759
0.0836921
0.0812462
0.0788833
0.0764788
0.0739173
0.071076
0.0678821
0.0643678
0.0604786
0.0561402
0.0515087
0.0466942
0.0414012
0.0352741
0.0282814
0.020031
0.00868114
0.0880354
0.0851661
0.0826056
0.0802116
0.077851
0.0754069
0.0728001
0.0699563
0.0667993
0.0632849
0.0593343
0.0548475
0.0499507
0.0448037
0.0393042
0.0332707
0.0266472
0.019146
0.00897678
0.0865314
0.0839574
0.0815842
0.0793136
0.0770378
0.0746518
0.0720738
0.0692416
0.0661137
0.0626349
0.0587233
0.0542961
0.0494584
0.0443877
0.0390934
0.0334034
0.0271345
0.0198848
0.00990378
0.0848277
0.0825734
0.0804297
0.0783218
0.0761632
0.0738675
0.0713493
0.0685511
0.0654678
0.0620687
0.0582789
0.0540474
0.0494643
0.0446912
0.0397681
0.0345324
0.0286816
0.0215758
0.0109197
0.0828646
0.0809262
0.079031
0.0771129
0.0750971
0.0729104
0.0704705
0.067735
0.0647196
0.0614177
0.0577805
0.0537858
0.0495087
0.045073
0.0405177
0.0357112
0.0303206
0.0235295
0.0118185
0.0806605
0.079017
0.0773653
0.0756503
0.0738003
0.0717449
0.0694092
0.0667698
0.0638509
0.0606607
0.0571817
0.053415
0.0494211
0.0452874
0.0410414
0.0365789
0.0315781
0.0251005
0.0124879
0.0782804
0.0769077
0.0754809
0.0739626
0.0722889
0.0703855
0.0681859
0.0656787
0.0628895
0.0598358
0.0565229
0.0529683
0.0492213
0.0453411
0.0413394
0.0371172
0.0323501
0.0259984
0.0128962
0.075807
0.0746791
0.0734624
0.0721251
0.0706209
0.0688789
0.0668422
0.0644998
0.0618729
0.0589843
0.0558531
0.0525058
0.0489832
0.0453235
0.0415201
0.0374617
0.0327991
0.0264104
0.01312
0.0733347
0.0724143
0.071385
0.0702219
0.0688792
0.0672991
0.0654377
0.0632795
0.0608398
0.0581414
0.0552092
0.0520727
0.0487655
0.0453099
0.0416823
0.0377544
0.0331541
0.026732
0.0133145
0.0709394
0.0701936
0.0693276
0.06832
0.0671325
0.0657176
0.0640339
0.0620658
0.0598262
0.0573333
0.0546116
0.0516894
0.0485932
0.0453328
0.04187
0.0380632
0.0335312
0.0271417
0.0135723
0.068678
0.0680801
0.0673561
0.0664872
0.0654418
0.0641815
0.0626723
0.0608976
0.058861
0.0565775
0.0540687
0.0513586
0.0484664
0.0453912
0.0420832
0.0383911
0.0339317
0.0275877
0.0139078
0.0665926
0.0661214
0.0655211
0.0647756
0.0638592
0.062741
0.061393
0.0597988
0.0579571
0.0558776
0.0535772
0.0510735
0.0483774
0.0454777
0.0423145
0.0387286
0.034334
0.0280088
0.014229
0.0647153
0.0643533
0.0638608
0.0632244
0.0624234
0.0614331
0.0602304
0.0587999
0.0571372
0.0552473
0.0531409
0.0508287
0.048313
0.0455731
0.04254
0.0390477
0.0347058
0.0283822
0.0144946
0.0630719
0.0628042
0.062405
0.0618636
0.0611637
0.0602857
0.0592105
0.0579241
0.05642
0.0546989
0.0527656
0.0506238
0.0482674
0.0456672
0.042746
0.0393317
0.0350282
0.0286908
0.0147099
0.0616848
0.0614975
0.0611779
0.0607176
0.0601042
0.059322
0.0583553
0.0571915
0.0558228
0.0542462
0.0524611
0.0504646
0.048243
0.0457594
0.0429297
0.0395756
0.0352942
0.028927
0.0148787
0.0605741
0.0604542
0.060201
0.0598082
0.0592661
0.0585629
0.0576854
0.0566221
0.0553643
0.053906
0.0522421
0.0503635
0.0482502
0.0458583
0.043098
0.0397852
0.0355088
0.0290937
0.0149889
0.0597588
0.059694
0.0594944
0.0591555
0.0586703
0.0580294
0.0572218
0.0562371
0.0550658
0.0536993
0.0521285
0.0503395
0.0483065
0.0459805
0.0432664
0.039975
0.0356863
0.0292017
0.0150003
0.0592574
0.0592359
0.0590779
0.0587803
0.0583381
0.0577438
0.0569882
0.0560613
0.0549528
0.0536521
0.0521466
0.0504182
0.0484367
0.0461487
0.0434555
0.0401633
0.0358428
0.0292636
0.0148729
0.0590884
0.0590995
0.0589722
0.0587046
0.058293
0.0577313
0.0570113
0.0561232
0.0550559
0.0537966
0.0523296
0.0506331
0.0486731
0.0463928
0.0436906
0.0403696
0.0359929
0.0293009
0.0146743
0.0592715
0.059306
0.0592001
0.0589528
0.0585614
0.0580206
0.0573227
0.0564574
0.0554125
0.0541728
0.0527195
0.051027
0.0490578
0.0467522
0.0440065
0.040622
0.0361592
0.0293492
0.0145548
0.0598294
0.0598795
0.0597875
0.059553
0.0591739
0.0586453
0.0579593
0.0571049
0.0560678
0.0548301
0.0533692
0.0516554
0.0496473
0.0472819
0.0444543
0.0409668
0.0363846
0.029451
0.0145591
0.0607887
0.0608484
0.0607648
0.0605382
0.0601666
0.0596452
0.0589654
0.0581147
0.0570763
0.0558288
0.0543447
0.052589
0.050515
0.0480562
0.0451067
0.0414729
0.0367308
0.0296464
0.0146359
0.0621822
0.0622471
0.0621686
0.0619474
0.0615819
0.0610669
0.0603926
0.0595447
0.0585031
0.0572416
0.0557266
0.0539158
0.051755
0.049172
0.0460595
0.0422296
0.0372729
0.0299745
0.0147555
0.0640502
0.0641171
0.0640421
0.0638268
0.0634695
0.0629645
0.062301
0.0614621
0.0604239
0.0591543
0.0576116
0.0557432
0.0534835
0.0507501
0.0474316
0.0433464
0.0381007
0.0304869
0.0148901
0.0664413
0.0665078
0.0664365
0.0662299
0.0658864
0.0654
0.0647585
0.0639427
0.0629244
0.0616648
0.060112
0.0581989
0.0558417
0.0529392
0.0493684
0.044953
0.0393205
0.0312599
0.0150403
0.0694133
0.0694772
0.0694112
0.0692183
0.0688975
0.0684424
0.0678401
0.0670693
0.0660982
0.0648811
0.063354
0.0614303
0.0589979
0.0559207
0.0520468
0.0472021
0.0410587
0.0324069
0.01535
0.0730337
0.0730928
0.0730341
0.0728617
0.0725748
0.0721672
0.071626
0.0709292
0.0700429
0.0689156
0.0674715
0.0656004
0.0631481
0.059915
0.0556805
0.0502611
0.043421
0.0340048
0.0159475
0.0773807
0.0774319
0.0773832
0.0772387
0.076998
0.0766558
0.0762003
0.0756109
0.0748543
0.0738775
0.0725964
0.0708776
0.0685113
0.0651868
0.0605211
0.0542541
0.0464479
0.0360644
0.0167902
0.0825439
0.0825841
0.0825477
0.0824381
0.0822557
0.0819964
0.0816509
0.0812023
0.0806224
0.0798634
0.0788435
0.0774169
0.0753153
0.0720472
0.0668367
0.0592111
0.050037
0.0384763
0.0178211
0.0886282
0.088654
0.0886314
0.0885628
0.0884488
0.0882869
0.0880716
0.087792
0.0874295
0.0869506
0.0862929
0.0853286
0.0837632
0.0808463
0.074743
0.0647836
0.0537403
0.0408871
0.0189012
0.0957581
0.0957662
0.0957578
0.095734
0.0956951
0.0956405
0.0955685
0.0954757
0.0953561
0.0951982
0.0949787
0.0946391
0.09398
0.0920568
0.0830298
0.0695177
0.0564786
0.0425859
0.01971
)
;

boundaryField
{
    leftWall
    {
        type            kqRWallFunction;
        value           nonuniform List<scalar> 
50
(
0.00117365
0.00247598
0.00348022
0.00434813
0.00513509
0.00588064
0.00661523
0.00737029
0.00864529
0.0107028
0.0139321
0.0201638
0.0281584
0.0324962
0.0349428
0.0355908
0.0342013
0.0321226
0.0295695
0.026736
0.0241449
0.02179
0.0197197
0.0179826
0.0165937
0.0155204
0.0146898
0.0140112
0.0134002
0.0127954
0.012164
0.0114972
0.0108092
0.0101329
0.00948362
0.00886773
0.00831196
0.00786153
0.00755973
0.00743448
0.00749424
0.00772999
0.00811911
0.00862807
0.0092137
0.00982482
0.010405
0.0108962
0.0112459
0.0114095
)
;
    }
    rightWall
    {
        type            kqRWallFunction;
        value           nonuniform List<scalar> 
50
(
0.00243263
0.00430889
0.00568218
0.00700049
0.00837208
0.00990666
0.0116316
0.013289
0.0152135
0.0175984
0.0181374
0.0201844
0.018176
0.0159777
0.0144151
0.0140312
0.0129245
0.0113837
0.00977823
0.00868114
0.00897678
0.00990378
0.0109197
0.0118185
0.0124879
0.0128962
0.01312
0.0133145
0.0135723
0.0139078
0.014229
0.0144946
0.0147099
0.0148787
0.0149889
0.0150003
0.0148729
0.0146743
0.0145548
0.0145591
0.0146359
0.0147555
0.0148901
0.0150403
0.01535
0.0159475
0.0167902
0.0178211
0.0189012
0.01971
)
;
    }
    lowerWall
    {
        type            kqRWallFunction;
        value           nonuniform List<scalar> 
62
(
0.00117365
0.00289904
0.00435871
0.00558296
0.00667895
0.00769932
0.00867499
0.00962507
0.0105585
0.0114709
0.0123409
0.0131324
0.0138042
0.0143201
0.0146522
0.0147727
0.0146862
0.0142731
0.0136629
0.012853
0.0112789
0.00824558
0.00289359
0.00289359
0.00717699
0.00993271
0.0123591
0.0148925
0.0184884
0.0247366
0.0346627
0.0383526
0.0373114
0.0386576
0.0429279
0.00277441
0.00624342
0.00831451
0.0102919
0.0124134
0.0151236
0.0196764
0.0302853
0.00277441
0.00725906
0.0103101
0.011975
0.0128772
0.0130426
0.0124194
0.0110658
0.00924403
0.00768021
0.00714018
0.00675776
0.00559724
0.00526589
0.00571253
0.00599246
0.00588464
0.00452971
0.00243263
)
;
    }
    atmosphere
    {
        type            inletOutlet;
        inletValue      uniform 0.1;
        value           nonuniform List<scalar> 
46
(
0.0114095
0.0247714
0.0315453
0.0361611
0.0397326
0.0427005
0.0452989
0.0476789
0.0499578
0.0522446
0.0546592
0.0573536
0.0605405
0.0645477
0.0699285
0.0777293
0.1
0.1
0.1
0.1
0.1
0.1
0.1
0.1
0.1
0.1
0.1
0.1
0.1
0.1
0.1
0.1
0.1
0.1
0.1
0.1
0.1
0.1
0.1
0.1
0.1
0.0830298
0.0695177
0.0564786
0.0425859
0.01971
)
;
    }
    defaultFaces
    {
        type            empty;
    }
}


// ************************************************************************* //
