/*--------------------------------*- C++ -*----------------------------------*\
| =========                 |                                                 |
| \\      /  F ield         | OpenFOAM: The Open Source CFD Toolbox           |
|  \\    /   O peration     | Version:  2.3.0                                 |
|   \\  /    A nd           | Web:      www.OpenFOAM.org                      |
|    \\/     M anipulation  |                                                 |
\*---------------------------------------------------------------------------*/
FoamFile
{
    version     2.0;
    format      ascii;
    class       volScalarField;
    location    "2.55";
    object      p_rgh;
}
// * * * * * * * * * * * * * * * * * * * * * * * * * * * * * * * * * * * * * //

dimensions      [1 -1 -2 0 0 0 0];

internalField   nonuniform List<scalar> 
2268
(
739.997
740.359
741.621
743.766
746.712
750.352
754.575
759.258
764.263
769.441
774.635
779.687
784.433
788.7
792.3
795.021
796.54
796.18
795.055
794.005
790.767
786.221
779.961
739.939
740.321
741.614
743.819
746.844
750.582
754.915
759.714
764.836
770.123
775.408
780.522
785.287
789.505
792.959
795.45
796.596
795.437
794.077
791.963
788.931
784.655
779.084
739.698
740.14
741.481
743.772
746.909
750.78
755.265
760.23
765.521
770.968
776.395
781.62
786.445
790.65
793.996
796.277
797.154
795.23
793.13
789.494
785.679
782.791
777.585
739.259
739.757
741.142
743.522
746.775
750.788
755.438
760.586
766.069
771.706
777.31
782.688
787.63
791.899
795.245
797.454
798.528
797.48
792.798
788.852
783.878
780.834
775.379
738.615
739.162
740.588
743.052
746.421
750.581
755.403
760.745
766.437
772.289
778.1
783.674
788.791
793.204
796.655
798.914
799.916
799.604
796.118
790.879
787.777
780.345
772.798
737.75
738.346
739.816
742.364
745.857
750.173
755.182
760.737
766.664
772.762
778.817
784.633
789.982
794.614
798.26
800.662
801.67
801.37
799.341
795.189
789.292
780.338
769.694
736.647
737.299
738.824
741.464
745.098
749.591
754.808
760.605
766.803
773.187
779.526
785.63
791.266
796.18
800.1
802.722
803.816
803.363
801.091
796.922
791.538
781.658
764.916
735.28
736.001
737.617
740.384
744.201
748.91
754.368
760.443
766.954
773.661
780.316
786.733
792.675
797.897
802.126
805.006
806.22
805.662
803.205
799.085
794.184
783.543
760.277
781.645
783.256
782.857
779.085
772.06
763.099
753.31
744.203
738.219
737.509
738.716
736.4
733.65
730.775
727.703
730.551
737.154
741.806
742.159
781.538
784.587
783.291
778.489
771.471
762.823
753.924
747.353
738.276
740.123
740.293
737.312
734.571
727.923
727.247
730.536
737.123
741.779
742.689
781.913
786.615
782.442
776.875
769.565
761.256
753.253
748.443
743.122
735.873
741.485
738.314
726.068
724.627
720.006
727.422
736.499
740.921
743.295
781.906
787.749
782.4
775.878
768.307
760.476
753.052
749.253
741.83
735.04
733.274
729.286
724.299
723.615
718.819
725.795
736.651
740.303
743.133
782.216
789.348
782.975
776.029
768.194
759.162
752.935
749.826
737.618
733.551
729.687
735.625
722.767
721.591
717.008
728.875
737.036
739.903
743.088
783.61
791.187
783.608
776.338
768.726
758.345
750.214
749.713
743.73
731.496
739.431
748.01
720.751
719.051
714.697
732.156
737.573
739.791
743.516
797.871
791.526
783.555
776.361
769.138
760.457
738.493
748.675
752.811
743.248
751.392
748.902
746.97
720.501
722.492
738.389
738.011
740.128
744.427
801.856
790.024
782.731
776.205
769.875
762.543
713.718
732.476
750.383
753.829
751.063
749.073
750.866
749.48
744.984
737.293
737.418
740.953
745.726
732.681
733.45
735.25
738.284
742.463
747.57
753.447
760.004
767.064
774.335
781.521
788.455
794.859
800.544
805.266
808.59
810.03
809.337
806.588
802.272
796.686
786.572
768.088
648.324
651.175
655.716
663.574
674.275
687.585
703.31
721.156
739.412
756.422
773.015
788.381
796.096
802.764
808.562
813.108
815.178
814.187
810.194
803.003
790.288
773.657
763.54
126.746
122.013
126.744
139.684
157.828
177.882
201.253
224.905
259.508
299.006
335.624
378.133
432.694
484.021
532.423
589.226
619.896
619.259
590.439
527.109
432.13
372.164
369.682
7.36565
8.29958
8.56752
6.84458
5.51274
6.22841
7.85668
13.1103
14.1827
13.8063
14.9971
16.1654
20.422
33.5292
50.5454
62.4858
66.6353
67.531
53.3741
22.665
7.54808
8.28008
8.74708
7.04645
9.4235
9.88471
7.34584
5.06091
5.57288
7.17551
17.0697
15.0347
13.5146
14.4134
14.9977
15.6302
17.0745
24.7924
8.04786
7.02299
6.79803
6.66693
6.76065
7.0706
7.54229
8.30514
5.11852
4.85415
6.22899
7.32713
4.01334
8.68736
10.0729
9.43962
4.88514
18.7156
28.5241
29.0573
29.1809
29.154
27.1978
7.15397
6.97381
6.82477
6.61388
6.48979
6.75737
8.82431
19.8189
1.75936
0.440021
1.56835
3.6606
3.6121
3.00679
3.10599
1.50954
2.64239
15.6626
29.1137
29.5275
27.6752
30.0461
20.4288
7.36575
7.27914
7.87552
6.63562
6.05472
7.12871
22.1688
22.041
0.316477
0.264386
0.236244
0.251731
0.574939
0.556759
0.78061
1.06089
3.98328
5.91807
2.89715
2.18439
2.7722
10.9329
19.211
19.4547
19.2813
19.2749
11.6329
5.58806
5.27138
16.7956
18.6422
0.23393
0.205592
0.180632
0.166757
0.186524
0.347359
2.01256
2.49343
2.46407
0.59513
0.207178
0.153776
0.121203
0.0608403
0.0237783
3.94459
12.764
17.0922
14.3359
5.84432
-0.035846
-0.0998154
-0.0216887
0.18057
0.162933
0.144651
0.125565
0.118759
0.79479
2.52402
2.5244
2.51911
1.94473
0.479192
0.139028
0.102128
0.0699125
0.0428494
0.0194031
-0.0409047
-0.0697865
-0.0962792
-0.0818748
0.124784
0.0395357
-0.0277899
0.136674
0.123745
0.109849
0.0888772
0.0689402
0.378856
1.63429
2.28063
2.33929
2.30231
2.27184
1.96693
0.425397
0.0603845
0.258416
1.21553
1.03298
0.188806
0.0116284
-0.0407229
-0.0449548
-0.0272264
-0.0105584
0.101988
0.0913012
0.0800006
0.0595755
0.0411983
0.080238
0.0112725
0.116046
0.155914
0.494282
1.4019
1.99755
1.19669
0.126733
0.712031
1.28002
1.29042
1.30662
0.413521
-0.0546784
-0.0339363
0.10424
0.11746
0.0751175
0.0675554
0.0572283
0.0405316
0.021489
-0.0115475
-0.0442894
-0.0718789
-0.0924996
-0.108322
-0.100682
0.00800285
0.114006
0.102388
0.244729
1.01662
1.34374
0.951526
0.0688223
-0.0708144
-0.0428567
0.109763
0.127175
0.0548795
0.0499856
0.0423904
0.0288811
0.0102689
-0.0137456
-0.0393731
-0.0620135
-0.0803939
-0.0951814
-0.106882
-0.115159
-0.118239
-0.115856
-0.107924
-0.127488
-0.0639125
-0.116897
-0.0954697
-0.0765937
-0.0650497
-0.0560979
0.119805
0.0395853
0.0372429
0.0319041
0.0212228
0.0060044
-0.01262
-0.0326825
-0.0514281
-0.067659
-0.0812755
-0.0921566
-0.0999072
-0.104302
-0.107323
-0.111199
-0.11385
-0.111398
-0.101941
-0.088193
-0.0749465
-0.0645708
-0.0565219
-0.0480528
0.0280101
0.0276363
0.0240379
0.0157663
0.00368968
-0.0110525
-0.0270168
-0.0425211
-0.0565459
-0.0686992
-0.0787165
-0.0862682
-0.0913106
-0.0947905
-0.0976099
-0.0986941
-0.0961004
-0.0893516
-0.0798544
-0.0701919
-0.0616573
-0.0542934
-0.0475685
0.0193039
0.0201478
0.0178983
0.0116498
0.00215659
-0.00957272
-0.0224477
-0.0353142
-0.0473303
-0.0580062
-0.0670258
-0.0741374
-0.0792896
-0.0828406
-0.0851194
-0.085634
-0.0835191
-0.0786499
-0.0718691
-0.0645595
-0.0575294
-0.050925
-0.042921
0.0128451
0.0142505
0.0130132
0.00841298
0.00102231
-0.00831732
-0.0187568
-0.0294464
-0.0396922
-0.0490053
-0.0570452
-0.0635777
-0.0685178
-0.0719688
-0.074017
-0.0744349
-0.0728804
-0.0693639
-0.0643999
-0.0587477
-0.0529559
-0.0471421
-0.0413275
0.00806105
0.00969605
0.00918481
0.00587026
0.000147197
-0.0072914
-0.0157725
-0.0246448
-0.0333388
-0.0414097
-0.0485234
-0.0544434
-0.0590471
-0.062326
-0.0642824
-0.0648059
-0.0637721
-0.0612463
-0.0575508
-0.0531353
-0.0483835
-0.0435319
-0.0386197
0.00470518
0.00636629
0.0063369
0.00398068
-0.000457259
-0.00639979
-0.0133076
-0.0206692
-0.0280196
-0.0349725
-0.041221
-0.0465334
-0.0507639
-0.0538504
-0.0557632
-0.0564469
-0.0558636
-0.0540888
-0.0513328
-0.0478797
-0.0440016
-0.0399621
-0.0358415
0.00249588
0.00413323
0.00439287
0.00271077
-0.000768216
-0.00555189
-0.0112032
-0.0173165
-0.0235164
-0.0294783
-0.0349315
-0.0396603
-0.0435121
-0.0464
-0.048279
-0.049116
-0.0489067
-0.0477173
-0.045688
-0.0430054
-0.0398632
-0.0364807
-0.0329355
0.00116428
0.00271194
0.00321173
0.00197743
-0.000820306
-0.00472323
-0.00937425
-0.0144576
-0.0196781
-0.0247697
-0.0295016
-0.0336816
-0.0371622
-0.0398478
-0.0416848
-0.0426466
-0.042737
-0.0420077
-0.0405533
-0.0384984
-0.035983
-0.0331835
-0.0301683
0.000342117
0.00197728
0.00264832
0.00164773
-0.000713661
-0.00395715
-0.00780516
-0.0120328
-0.0164176
-0.0207474
-0.0248301
-0.0284995
-0.031621
-0.0340993
-0.0358764
-0.0369252
-0.0372474
-0.0368785
-0.0358826
-0.0343427
-0.0323597
-0.0300765
-0.0275494
7.3805e-05
0.00183464
0.00255975
0.00150881
-0.000629894
-0.00335447
-0.00652777
-0.0100254
-0.0136874
-0.0173463
-0.0208442
-0.0240402
-0.0268152
-0.0290796
-0.0307746
-0.0318701
-0.0323615
-0.0322695
-0.0316358
-0.0305148
-0.028979
-0.0271449
-0.0250577
0.0376323
0.0654559
0.0678417
0.0138436
-0.000873158
-0.00306193
-0.00559639
-0.00843481
-0.0114533
-0.0145133
-0.017482
-0.0202389
-0.0226801
-0.0247235
-0.0263122
-0.0274128
-0.0280137
-0.0281232
-0.0277658
-0.0269763
-0.0258062
-0.0243517
-0.0226486
0.0967446
0.0999156
0.100879
0.0676632
-0.000722122
-0.00313321
-0.00501259
-0.00723197
-0.00966625
-0.0121872
-0.0146762
-0.0170267
-0.0191468
-0.0209629
-0.0224205
-0.0234847
-0.024138
-0.0243791
-0.0242203
-0.0236821
-0.022801
-0.0216567
-0.0202771
0.0921682
0.10046
0.101483
0.0523658
-0.00241755
-0.00339464
-0.00466187
-0.0063258
-0.00824234
-0.0102856
-0.0123444
-0.0143218
-0.0161359
-0.017721
-0.0190266
-0.0200175
-0.0206729
-0.020985
-0.0209571
-0.0206002
-0.019939
-0.0190397
-0.0179235
0.00836329
0.0658434
0.0361449
0.00382426
-0.00290652
-0.00356988
-0.00437766
-0.0055959
-0.0070821
-0.00871722
-0.0103985
-0.0120388
-0.0135666
-0.0149237
-0.0160644
-0.0169549
-0.0175732
-0.0179078
-0.017956
-0.0177216
-0.0172212
-0.0165093
-0.0156016
-0.00751944
-0.00518114
-0.00511842
-0.00408446
-0.00332946
-0.00351073
-0.00406147
-0.00495884
-0.00610721
-0.0074048
-0.00876216
-0.0101045
-0.0113704
-0.0125096
-0.0134817
-0.0142559
-0.0148104
-0.0151319
-0.0152141
-0.0150561
-0.0146683
-0.0140964
-0.0133512
-0.00720571
-0.0060135
-0.0047913
-0.00387461
-0.00338474
-0.00334542
-0.00371451
-0.00438618
-0.00527344
-0.00629521
-0.00737814
-0.00846037
-0.00949091
-0.0104274
-0.0112352
-0.0118868
-0.0123621
-0.0126475
-0.0127345
-0.0126194
-0.0123089
-0.011841
-0.011223
-0.00681465
-0.00558118
-0.00439049
-0.0035727
-0.00316042
-0.00311138
-0.00336966
-0.003873
-0.00455429
-0.00534918
-0.00619966
-0.00705632
-0.00787795
-0.00862984
-0.00928291
-0.0098139
-0.0102049
-0.0104427
-0.010518
-0.0104255
-0.0101691
-0.00978101
-0.00926539
-0.00645352
-0.00520139
-0.00404702
-0.0032965
-0.00293121
-0.00286601
-0.00304386
-0.00341525
-0.00392881
-0.00453451
-0.00518739
-0.00584896
-0.00648685
-0.00707347
-0.00758554
-0.00800419
-0.00831421
-0.00850326
-0.00856136
-0.00848202
-0.00826731
-0.00794431
-0.00751432
-0.0061145
-0.00487942
-0.0037708
-0.00306891
-0.00272663
-0.00263868
-0.00274672
-0.00300806
-0.00338123
-0.00382713
-0.00431126
-0.00480427
-0.00528153
-0.0057222
-0.0061089
-0.00642753
-0.00666605
-0.00681234
-0.0068557
-0.00678814
-0.00660998
-0.00634364
-0.00598794
-0.00577835
-0.00459341
-0.00354481
-0.00288381
-0.00255073
-0.00243569
-0.00248092
-0.00264777
-0.00290155
-0.00321126
-0.00355047
-0.00389723
-0.00423377
-0.00454575
-0.00482206
-0.00505405
-0.0052335
-0.00534808
-0.00538441
-0.00533235
-0.00519024
-0.00497623
-0.00468716
-0.00542649
-0.00431986
-0.00334533
-0.002725
-0.00239693
-0.00225559
-0.00224558
-0.00233131
-0.00248307
-0.00267583
-0.00288922
-0.00310732
-0.00331844
-0.00351485
-0.00369251
-0.00384988
-0.00398465
-0.00408236
-0.00412352
-0.00409436
-0.00399104
-0.00382789
-0.00360045
-0.00504564
-0.00403871
-0.00314912
-0.00257412
-0.00225438
-0.00209254
-0.00203672
-0.0020542
-0.0021191
-0.00221069
-0.00231308
-0.00241513
-0.00251071
-0.00259887
-0.00268419
-0.0027754
-0.00288187
-0.00298299
-0.00304562
-0.00305022
-0.00299083
-0.00287889
-0.00270975
-0.00462479
-0.00373029
-0.00293329
-0.00241176
-0.00210926
-0.00193701
-0.00184712
-0.00180967
-0.00180179
-0.00180577
-0.00180878
-0.00180328
-0.00178792
-0.00176865
-0.00176069
-0.00178839
-0.00188601
-0.00201917
-0.0021256
-0.00217771
-0.00216853
-0.00210847
-0.00199451
-0.00414907
-0.00337141
-0.00267272
-0.0022162
-0.00194471
-0.00177619
-0.00166663
-0.00158892
-0.00152257
-0.00145186
-0.00136578
-0.00125887
-0.00113315
-0.00100056
-0.000888645
-0.000844917
-0.000961166
-0.00116894
-0.00134672
-0.00146058
-0.00150641
-0.001497
-0.00143362
-0.00359487
-0.00293283
-0.00233964
-0.00196668
-0.00174684
-0.00160099
-0.00148903
-0.00138698
-0.00127657
-0.00114336
-0.000976768
-0.000771311
-0.000529214
-0.000263247
-9.75541e-06
0.000145688
-5.17105e-05
-0.00042284
-0.00070975
-0.000894289
-0.00099272
-0.00102741
-0.00100652
-0.00292872
-0.00238826
-0.00192426
-0.00167266
-0.00153729
-0.0014385
-0.00134208
-0.00122867
-0.00108255
-0.000889858
-0.00063852
-0.000319526
7.16248e-05
0.000540357
0.00107437
0.0015263
0.00106635
0.000250638
-0.000234933
-0.00048941
-0.000622395
-0.000685148
-0.00069369
-0.00210632
-0.00173718
-0.0014661
-0.00139367
-0.00137769
-0.00134532
-0.00127446
-0.00115292
-0.000968227
-0.000706613
-0.000352427
0.000111315
0.000705876
0.00149129
0.00258161
0.00384999
0.00288457
0.000921751
5.81126e-05
-0.000253021
-0.000385813
-0.000451935
-0.000474272
-0.00113135
-0.000956539
-0.000900958
-0.000951164
-0.0009956
-0.000996744
-0.000947615
-0.000843725
-0.000678274
-0.000441753
-0.0001207
0.000303722
0.000862872
0.0016552
0.00295551
0.0050147
0.00469006
0.00146963
0.000318681
-3.93283e-05
-0.000179428
-0.000252929
-0.000293601
779.362
787.601
788.091
788.852
769.118
779.513
781.451
782.027
425.574
441.612
456.496
470.015
8.39679
8.16568
7.84199
7.45054
11.272
10.7092
8.2203
7.96904
21.0798
20.855
18.9706
7.82221
21.726
17.9577
9.08198
8.25391
4.61272
0.157085
0.117739
0.0908869
0.0304219
0.0439768
0.0477308
0.047688
-0.00552804
0.00664345
0.0158959
0.0214273
-0.0125799
-0.0041644
0.00224321
0.00694534
-0.0141154
-0.013625
-0.00802084
0.00058328
0.130937
-0.021282
-0.0158838
-0.00660293
0.137197
0.111948
-0.0234632
-0.019401
0.143175
0.135682
-0.0200037
-0.0237949
-0.0328181
-0.00294317
-0.0168444
-0.0259665
-0.0395975
-0.0352574
-0.0303776
-0.0246053
-0.0368024
-0.0330583
-0.0288186
-0.0249376
-0.0341965
-0.0306668
-0.0271226
-0.0236948
-0.0320052
-0.0288722
-0.025436
-0.0223407
-0.0295761
-0.026791
-0.02373
-0.0209555
-0.027245
-0.0247937
-0.0220725
-0.0195913
-0.0250383
-0.0228975
-0.0204866
-0.0182708
-0.0229294
-0.0210742
-0.0189477
-0.0169746
-0.0208621
-0.0192647
-0.0173992
-0.0156528
-0.0187825
-0.0174119
-0.0157852
-0.0142542
-0.0166681
-0.0154915
-0.0140809
-0.0127551
-0.0145367
-0.0135222
-0.0123039
-0.0111699
-0.0124362
-0.0115559
-0.0105051
-0.00954419
-0.0104279
-0.00965847
-0.00875061
-0.00793998
-0.00856968
-0.00789283
-0.00710492
-0.00642031
-0.0069045
-0.00630653
-0.0056191
-0.00503803
-0.00545531
-0.00492686
-0.00432521
-0.00382925
-0.00422632
-0.00376188
-0.00323617
-0.00281174
-0.00320838
-0.00280519
-0.00234946
-0.00198729
-0.00238481
-0.00204141
-0.00165211
-0.00134606
-0.00173514
-0.00145035
-0.00112509
-0.000871035
-0.00123714
-0.00100937
-0.000746215
-0.000541325
-0.00086801
-0.000695062
-0.000492255
-0.000334442
-0.000604958
-0.000483889
-0.000339667
-0.000227221
-0.000427653
-0.000354918
-0.000266424
-0.000196903
-0.000293986
-0.000277215
-0.000253921
-0.000236452
789.9
785.272
780.573
775.777
771.523
767.326
683.274
608.239
654.223
692.227
716.25
727.409
734.808
732.662
719.305
712.075
727.068
742.802
747.94
782.985
781.309
776.845
765.043
755.114
757.216
677.833
565.992
564.936
572.544
594.525
607.067
594.098
600.465
631.014
652.49
658.647
655.749
667.983
480.218
466.511
428.88
392.59
381.319
420.176
518.151
568.521
569.992
564.462
544.301
498.119
449.11
398.188
336.592
271.882
239.461
276.675
330.524
7.08483
7.1607
7.19979
9.90774
11.0508
17.4562
63.4932
118.455
127.188
89.6566
31.5249
0.741954
0.346774
0.770791
0.55694
0.37634
0.766032
0.976104
3.17558
7.71668
7.71117
7.11156
6.33335
6.16856
5.84856
4.31805
3.22177
2.2989
1.64405
1.25095
1.07009
0.386448
0.225925
0.181471
0.181908
0.231521
0.322603
0.419445
11.2998
14.8429
14.8592
14.7246
14.3553
14.0196
13.8422
13.5358
13.0823
11.1123
6.19978
2.89761
0.237325
0.19313
0.171578
0.166256
0.178709
0.234948
0.364789
10.8408
13.1679
14.2307
13.3576
13.6572
12.578
10.2423
7.03325
3.88726
0.0839119
0.0771867
0.101776
0.914477
0.558159
0.15028
0.158293
0.168518
0.19845
0.444282
0.0565258
0.0382785
0.347495
1.87973
0.733407
0.041635
0.0498961
0.0602624
0.0672661
0.0783802
0.0746741
0.123973
0.416639
0.215949
0.13834
0.149518
0.177998
0.453442
0.452898
0.0454871
0.0438606
0.0517424
0.048892
0.0668324
0.0821493
0.149158
0.211844
0.170137
0.0727291
0.0741139
0.0805703
0.0927567
0.112066
0.130049
0.26223
0.408677
0.403078
0.252982
0.0279298
0.100542
0.167625
0.168773
0.124542
0.20345
0.287452
0.290778
0.29419
0.116636
0.0741546
0.0819186
0.105927
0.266194
0.356904
0.3604
0.35289
0.152766
0.113431
0.0177188
0.110716
0.154572
0.15721
0.159514
0.0932081
0.13676
0.296217
0.290034
0.0749171
0.073347
0.0943563
0.329008
0.356344
0.360647
0.36062
0.131076
0.11267
0.113041
0.0272059
0.0397479
0.0209348
0.0219392
0.051689
0.0190376
0.0213004
0.0285658
0.140289
0.111728
0.074045
0.0892557
0.295115
0.36133
0.357117
0.120592
0.10492
0.111106
0.162395
0.032587
0.0508435
0.0231535
0.0189387
0.013698
0.0175542
0.0208499
0.0245082
0.083935
0.173442
0.179332
0.0909925
0.0797658
0.162738
0.139083
0.069454
0.105996
0.193773
0.192392
-0.000942665
0.0496665
0.0561865
0.0620869
0.0454315
0.0184481
0.0197939
0.023365
0.0569449
0.153589
0.0926702
0.0415814
0.0443077
0.046718
0.0508998
0.0551793
0.0977577
0.187289
0.187889
-0.0173873
0.015797
0.0551734
0.061618
0.0678074
0.0628906
0.0178629
0.0218315
0.025423
0.0288425
0.0335047
0.0392209
0.043776
0.0452132
0.0462269
0.047578
0.0469894
0.0916146
0.183747
-0.0194698
-0.013527
0.0123901
0.0611387
0.067457
0.0727428
0.0262547
0.0197019
0.0235686
0.0273118
0.0312458
0.0348915
0.0402138
0.0426845
0.0436533
0.0408726
0.0392412
0.0481797
0.180832
-0.02008
-0.014364
-0.00907915
0.00130196
0.0542457
0.0651407
0.0230852
0.0172856
0.021773
0.0268698
0.0293639
0.0312595
0.0333326
0.0359462
0.0365279
0.0352961
0.0335164
0.0327108
0.111684
-0.0198596
-0.014556
-0.00949018
-0.00461467
-8.08119e-06
0.00678724
0.010159
0.0149485
0.020273
0.0249705
0.027997
0.0293433
0.0293355
0.03054
0.0311314
0.0308933
0.029639
0.027858
0.026929
-0.0191907
-0.014346
-0.00961247
-0.00497791
-0.000488863
0.00402408
0.00855073
0.0129396
0.0170876
0.0223606
0.0250432
0.0272482
0.0265435
0.0268311
0.027374
0.0273388
0.0268101
0.0263616
0.0340166
-0.0183188
-0.0139229
-0.00955939
-0.00523966
-0.00104421
0.00307151
0.00705824
0.0107229
0.0138677
0.0183188
0.0222595
0.0241675
0.0233964
0.023459
0.0240415
0.0242392
0.0242068
0.0248686
0.119128
-0.0173593
-0.0133969
-0.00942174
-0.00545915
-0.00161156
0.00211052
0.00565328
0.00888482
0.0117446
0.0142179
0.0177467
0.0192585
0.0198339
0.0206986
0.0212773
0.0214324
0.0216368
0.0230003
0.12608
-0.0163784
-0.0128309
-0.00924516
-0.00565022
-0.00215674
0.00119852
0.00436673
0.00726498
0.00984499
0.012088
0.0139933
0.0155795
0.0170112
0.0182084
0.0188699
0.0189335
0.01928
0.0226712
0.12824
-0.0154031
-0.0122489
-0.00904019
-0.00580377
-0.00265122
0.000369725
0.00321467
0.00582577
0.0081632
0.0102071
0.0119547
0.013413
0.0145943
0.0158268
0.0163883
0.0167557
0.0172609
0.022123
0.130734
-0.0144219
-0.0116374
-0.00878637
-0.00589106
-0.00305949
-0.000342436
0.00221955
0.0045814
0.00670879
0.008582
0.0101955
0.0115539
0.0126682
0.0135614
0.0142823
0.0149029
0.0155663
0.0208049
0.131971
-0.0133961
-0.0109594
-0.00844563
-0.0058726
-0.00334202
-0.000903591
0.00140533
0.00354635
0.00548849
0.00721236
0.00871077
0.00998718
0.0110543
0.011938
0.0126829
0.0133616
0.0141421
0.0174578
0.134992
-0.0122844
-0.0101772
-0.00798156
-0.00571278
-0.00346543
-0.00128628
0.000789961
0.00272875
0.0045013
0.00608853
0.00748243
0.00868582
0.00971244
0.0105888
0.0113562
0.0120824
0.0129412
0.0144129
0.137957
-0.0110658
-0.00927101
-0.00737484
-0.00539271
-0.00341292
-0.00147876
0.000377493
0.00212412
0.0037342
0.00518934
0.0064816
0.00761435
0.00860307
0.00947593
0.0102727
0.011056
0.0119905
0.0134679
0.138846
-0.00974943
-0.00824731
-0.00663048
-0.00491704
-0.00319039
-0.00149024
0.000153696
0.00171242
0.00316115
0.00448298
0.00567126
0.00673153
0.00768295
0.00855903
0.00940628
0.0102999
0.0114182
0.0131212
0.0600573
-0.00837182
-0.00713743
-0.00577749
-0.00431405
-0.00282635
-0.00135037
8.70308e-05
0.0014598
0.00274577
0.00393034
0.00500933
0.00599182
0.00690274
0.0077852
0.00870371
0.0097708
0.0112288
0.0134169
0.0156814
-0.0069864
-0.00599024
-0.00486289
-0.00362981
-0.00236589
-0.00110326
0.000134384
0.00132404
0.00244645
0.00348973
0.00445266
0.00534815
0.00620712
0.00708305
0.00806133
0.00929715
0.0110997
0.0137629
0.0213237
-0.00565173
-0.00486201
-0.0039419
-0.00291835
-0.00186113
-0.000798434
0.000249102
0.00126146
0.00222216
0.00312191
0.003962
0.00475804
0.00554477
0.00638199
0.00736668
0.00867554
0.0106431
0.0135014
0.0902956
-0.00442086
-0.00380598
-0.00306731
-0.00223112
-0.00136121
-0.00048209
0.000388419
0.00123293
0.00203736
0.00279437
0.00350669
0.00419083
0.00488217
0.00564102
0.00656345
0.00781975
0.00972923
0.0201796
0.0996468
-0.00333368
-0.00286387
-0.00228106
-0.00160914
-0.000905393
-0.000191096
0.000518351
0.00120779
0.00186499
0.00248381
0.00306725
0.00363103
0.00420871
0.00485721
0.00566414
0.00677795
0.00848501
0.0251142
0.100512
-0.00241347
-0.00206183
-0.00161029
-0.00107952
-0.000520148
4.93524e-05
0.000615638
0.00116539
0.00168769
0.00217687
0.00263529
0.00307682
0.00353213
0.00405395
0.00472159
0.00566665
0.00715707
0.013248
0.100957
-0.00166757
-0.00141056
-0.00106758
-0.000655916
-0.000219609
0.000225367
0.000667447
0.00109482
0.00149739
0.00186932
0.00221159
0.00253575
0.00286969
0.00326388
0.00379653
0.00460386
0.00597518
0.00827604
0.0263801
-0.00109081
-0.000908406
-0.000653772
-0.000340997
-7.67034e-06
0.000332569
0.000669777
0.000993395
0.00129371
0.00156404
0.0018033
0.00201998
0.00223904
0.00251053
0.00291967
0.00362711
0.00496926
0.00867661
0.00995294
-0.00066972
-0.0005452
-0.000361356
-0.000129408
0.000119405
0.000373726
0.000625148
0.000864188
0.00108121
0.00126816
0.00142085
0.00154321
0.00165527
0.00180544
0.00208721
0.00269725
0.00400351
0.0063783
0.00899787
-0.000386092
-0.000305466
-0.000177317
-1.02996e-05
0.000170592
0.000356294
0.000539939
0.000713128
0.000866276
0.000989689
0.00107517
0.00111989
0.00113492
0.00116196
0.00129695
0.00177548
0.00298532
0.00524533
0.00774502
-0.000219217
-0.00017038
-8.48868e-05
3.09639e-05
0.000158348
0.000290576
0.000422422
0.000546817
0.000654667
0.000735098
0.000775923
0.000765996
0.000700982
0.000601359
0.000543732
0.000829904
0.00189873
0.00395498
0.00626322
-0.000146821
-0.000118523
-6.42505e-05
1.2082e-05
9.7882e-05
0.000188996
0.000282064
0.000371851
0.00045072
0.000508146
0.000530058
0.000498163
0.000381902
0.000132381
-0.000268922
-0.000287364
0.000728792
0.00255623
0.0045873
-0.000147945
-0.000130929
-9.85519e-05
-5.27025e-05
4.84418e-07
5.96023e-05
0.000123372
0.000188885
0.000251096
0.000302068
0.000329814
0.00031415
0.000187655
-0.000267536
-0.00138907
-0.0018367
3.50196e-05
0.00143521
0.0027396
-0.000230889
-0.000236355
-0.000231723
-0.000217549
-0.000194775
-0.000163444
-0.000124259
-7.90022e-05
-3.07633e-05
1.51978e-05
4.91117e-05
5.01869e-05
-6.46975e-05
-0.000626821
-0.00256124
-0.00207772
0.000470772
0.00157943
0.00149395
)
;

boundaryField
{
    leftWall
    {
        type            fixedFluxPressure;
        gradient        uniform 0;
        value           nonuniform List<scalar> 
50
(
739.997
739.939
739.698
739.259
738.615
737.75
736.647
735.28
732.681
648.324
126.746
7.36565
7.04645
5.11852
1.75936
0.316477
0.23393
0.18057
0.136674
0.101988
0.0751175
0.0548795
0.0395853
0.0280101
0.0193039
0.0128451
0.00806105
0.00470518
0.00249588
0.00116428
0.000342117
7.3805e-05
0.0376323
0.0967446
0.0921682
0.00836329
-0.00751944
-0.00720571
-0.00681465
-0.00645352
-0.0061145
-0.00577835
-0.00542649
-0.00504564
-0.00462479
-0.00414907
-0.00359487
-0.00292872
-0.00210632
-0.00113135
)
;
    }
    rightWall
    {
        type            fixedFluxPressure;
        gradient        uniform 0;
        value           nonuniform List<scalar> 
50
(
742.159
742.689
743.295
743.133
743.088
743.516
744.427
745.726
747.94
667.983
330.524
3.17558
0.419445
0.364789
0.444282
0.452898
0.252982
0.113431
0.113041
0.162395
0.192392
0.187889
0.183747
0.180832
0.111684
0.026929
0.0340166
0.119128
0.12608
0.12824
0.130734
0.131971
0.134992
0.137957
0.138846
0.0600573
0.0156814
0.0213237
0.0902956
0.0996468
0.100512
0.100957
0.0263801
0.00995294
0.00899787
0.00774502
0.00626322
0.0045873
0.0027396
0.00149395
)
;
    }
    lowerWall
    {
        type            fixedFluxPressure;
        gradient        uniform 0;
        value           nonuniform List<scalar> 
62
(
739.997
740.359
741.621
743.766
746.712
750.352
754.575
759.258
764.263
769.441
774.635
779.687
784.433
788.7
792.3
795.021
796.54
796.18
795.055
794.005
790.767
786.221
779.961
779.961
779.084
777.585
775.379
772.798
769.694
764.916
760.277
779.362
787.601
788.091
788.852
781.645
781.538
781.913
781.906
782.216
783.61
797.871
801.856
781.645
783.256
782.857
779.085
772.06
763.099
753.31
744.203
738.219
737.509
738.716
736.4
733.65
730.775
727.703
730.551
737.154
741.806
742.159
)
;
    }
    atmosphere
    {
        type            totalPressure;
        rho             rho;
        psi             none;
        gamma           1;
        p0              uniform 0;
        value           nonuniform List<scalar> 
46
(
0
0
0
0
0
0
0
0
0
0
0
0
0
0
0
0
-3.00831e-07
-1.02412e-05
-3.76399e-05
-7.70205e-05
-0.000122283
-0.000168791
-0.000212868
-0.000240988
-0.000257954
-0.000273633
-0.000288087
-0.00031078
-0.000336298
-0.00035243
-0.00035707
-0.000349661
-0.00033088
-0.000302298
-0.000265993
-0.000224227
-0.00017924
-0.00013322
-8.847e-05
-4.79302e-05
-1.56664e-05
-2.86707e-09
0
0
0
0
)
;
    }
    defaultFaces
    {
        type            empty;
    }
}


// ************************************************************************* //
