/*--------------------------------*- C++ -*----------------------------------*\
| =========                 |                                                 |
| \\      /  F ield         | OpenFOAM: The Open Source CFD Toolbox           |
|  \\    /   O peration     | Version:  2.3.0                                 |
|   \\  /    A nd           | Web:      www.OpenFOAM.org                      |
|    \\/     M anipulation  |                                                 |
\*---------------------------------------------------------------------------*/
FoamFile
{
    version     2.0;
    format      ascii;
    class       volVectorField;
    location    "2.55";
    object      U;
}
// * * * * * * * * * * * * * * * * * * * * * * * * * * * * * * * * * * * * * //

dimensions      [0 1 -1 0 0 0 0];

internalField   nonuniform List<vector> 
2268
(
(-0.00561624 0.00227328 0)
(-0.00962358 0.00145555 0)
(-0.0144193 0.00108841 0)
(-0.0184586 0.00110906 0)
(-0.0228495 0.00133557 0)
(-0.0277747 0.00161866 0)
(-0.0333545 0.00190878 0)
(-0.0396149 0.00218624 0)
(-0.0465118 0.00242752 0)
(-0.053923 0.00260898 0)
(-0.0616694 0.00271512 0)
(-0.0695204 0.00272466 0)
(-0.0771511 0.00259365 0)
(-0.0840644 0.0022263 0)
(-0.0894035 0.00145148 0)
(-0.0917105 0.000131228 0)
(-0.0898106 -0.00122378 0)
(-0.085443 -0.00127906 0)
(-0.0786855 -0.00262373 0)
(-0.0636643 -0.00696861 0)
(-0.0382633 -0.0103705 0)
(-0.00812948 -0.00904328 0)
(0.00351674 -0.000681308 0)
(-0.00509171 0.00496652 0)
(-0.00886981 0.00359144 0)
(-0.0131631 0.00311992 0)
(-0.0173519 0.00310752 0)
(-0.0217776 0.0034207 0)
(-0.0266217 0.00386932 0)
(-0.0320386 0.00437321 0)
(-0.0381021 0.00487397 0)
(-0.0448015 0.00531447 0)
(-0.0520504 0.00564643 0)
(-0.059712 0.00583382 0)
(-0.0675908 0.00581751 0)
(-0.0753707 0.00548709 0)
(-0.0825452 0.00465009 0)
(-0.0883471 0.00303009 0)
(-0.0917345 0.000468141 0)
(-0.0917846 -0.00246511 0)
(-0.0878466 -0.00434456 0)
(-0.0786755 -0.00815722 0)
(-0.0627059 -0.0150375 0)
(-0.0395067 -0.0199737 0)
(-0.0120653 -0.0166057 0)
(-0.000239557 -0.000947213 0)
(-0.00392551 0.00789232 0)
(-0.00805834 0.00557287 0)
(-0.0120845 0.00499326 0)
(-0.0161836 0.00502131 0)
(-0.0204469 0.00544875 0)
(-0.0250639 0.00609069 0)
(-0.0302054 0.00684459 0)
(-0.0359719 0.00761645 0)
(-0.042378 0.00831487 0)
(-0.04937 0.00886719 0)
(-0.0568551 0.00921659 0)
(-0.0646859 0.00926267 0)
(-0.0725951 0.00882629 0)
(-0.0801441 0.00762492 0)
(-0.0866927 0.00529348 0)
(-0.0914139 0.00162693 0)
(-0.0932578 -0.0029211 0)
(-0.090468 -0.00725668 0)
(-0.0815284 -0.0139042 0)
(-0.0660028 -0.0235388 0)
(-0.0432288 -0.0307967 0)
(-0.0150797 -0.0267723 0)
(0.00082115 -0.00358681 0)
(-0.00288512 0.0104957 0)
(-0.00723311 0.00758224 0)
(-0.0111305 0.00688493 0)
(-0.0151278 0.006943 0)
(-0.0192476 0.00748103 0)
(-0.0236922 0.00831886 0)
(-0.0286468 0.0093353 0)
(-0.0342318 0.0104004 0)
(-0.0404799 0.0113885 0)
(-0.0473619 0.0122048 0)
(-0.054823 0.0127743 0)
(-0.0627599 0.0129548 0)
(-0.0709479 0.0125001 0)
(-0.0790025 0.0110436 0)
(-0.0863555 0.00812831 0)
(-0.092256 0.00345748 0)
(-0.095642 -0.00270586 0)
(-0.0945062 -0.00971868 0)
(-0.0871032 -0.0194318 0)
(-0.0729131 -0.0323759 0)
(-0.0504699 -0.04317 0)
(-0.0201672 -0.0393901 0)
(0.00329397 -0.00576209 0)
(-0.00210743 0.0126845 0)
(-0.00648789 0.0095519 0)
(-0.0103385 0.00875521 0)
(-0.0142845 0.00883654 0)
(-0.0183335 0.00947994 0)
(-0.0226965 0.010514 0)
(-0.0275735 0.0118021 0)
(-0.0331013 0.0131777 0)
(-0.0393259 0.0144808 0)
(-0.0462359 0.0155988 0)
(-0.0538118 0.016444 0)
(-0.061993 0.016831 0)
(-0.0705908 0.0164479 0)
(-0.0792613 0.0148462 0)
(-0.0874757 0.0114745 0)
(-0.0944986 0.00592565 0)
(-0.0992919 -0.00174904 0)
(-0.100024 -0.0113158 0)
(-0.094956 -0.0241389 0)
(-0.0832031 -0.0407021 0)
(-0.0626325 -0.0560638 0)
(-0.0318532 -0.0543695 0)
(0.000490232 -0.00761201 0)
(-0.00159239 0.0145812 0)
(-0.00595921 0.0114753 0)
(-0.00984326 0.0106084 0)
(-0.0138305 0.0107101 0)
(-0.0179182 0.0114549 0)
(-0.0223186 0.0126869 0)
(-0.0272464 0.0142566 0)
(-0.032852 0.0159587 0)
(-0.0391892 0.0175996 0)
(-0.0462582 0.0190534 0)
(-0.0540722 0.0202274 0)
(-0.0626109 0.0208921 0)
(-0.0717128 0.0206678 0)
(-0.0810608 0.0190263 0)
(-0.0901456 0.015314 0)
(-0.098229 0.00900839 0)
(-0.104321 -1.78104e-05 0)
(-0.106911 -0.0118062 0)
(-0.104573 -0.0274667 0)
(-0.0965068 -0.0474689 0)
(-0.0804868 -0.0677847 0)
(-0.0540484 -0.0710809 0)
(-0.0168935 -0.0155934 0)
(-0.00133813 0.0163277 0)
(-0.00578657 0.0134142 0)
(-0.00981975 0.0125067 0)
(-0.0139816 0.0126296 0)
(-0.0182526 0.013473 0)
(-0.0228374 0.0149054 0)
(-0.0279637 0.0167669 0)
(-0.0337921 0.0188105 0)
(-0.0403781 0.0208068 0)
(-0.0477249 0.0226233 0)
(-0.055874 0.0241714 0)
(-0.0648401 0.0251728 0)
(-0.0744761 0.0251792 0)
(-0.0844782 0.023577 0)
(-0.0943432 0.0196075 0)
(-0.103325 0.0126409 0)
(-0.110509 0.00243773 0)
(-0.114761 -0.0111668 0)
(-0.115175 -0.0290935 0)
(-0.111492 -0.0517037 0)
(-0.102388 -0.0759374 0)
(-0.0873071 -0.0879858 0)
(-0.0597091 -0.0468017 0)
(-0.00136625 0.0181012 0)
(-0.00607088 0.0154901 0)
(-0.0104085 0.0145963 0)
(-0.0149041 0.0147566 0)
(-0.0195275 0.0157051 0)
(-0.0244663 0.017345 0)
(-0.0299536 0.0195068 0)
(-0.0361543 0.0219006 0)
(-0.0431183 0.0242566 0)
(-0.0508409 0.0264415 0)
(-0.0593822 0.0283844 0)
(-0.0687818 0.0297457 0)
(-0.0788932 0.0300065 0)
(-0.0894079 0.0284711 0)
(-0.0998157 0.0242668 0)
(-0.109372 0.0166748 0)
(-0.117256 0.00543902 0)
(-0.122722 -0.00958327 0)
(-0.125453 -0.029057 0)
(-0.125812 -0.0529241 0)
(-0.123885 -0.0785671 0)
(-0.124959 -0.100217 0)
(-0.12395 -0.092439 0)
(-0.0188576 0.00571887 0)
(-0.00984909 -0.00667003 0)
(0.0211244 -0.0110893 0)
(0.0523553 -0.0114392 0)
(0.0839279 -0.0110471 0)
(0.11353 -0.0100567 0)
(0.135921 -0.00746602 0)
(0.147314 -0.00108107 0)
(0.127858 0.0127366 0)
(0.0726523 0.0151373 0)
(0.0341069 0.00467517 0)
(0.0333873 0.00234562 0)
(0.0151077 0.0137448 0)
(-0.0502258 0.0179308 0)
(-0.105535 0.010519 0)
(-0.12007 -0.0028659 0)
(-0.0927838 -0.0153874 0)
(-0.0511186 -0.0165763 0)
(-0.0115489 -0.00674011 0)
(-0.0140075 0.00913072 0)
(0.0045439 -0.0148836 0)
(0.0268672 -0.0194709 0)
(0.0485971 -0.0199316 0)
(0.0717364 -0.0193997 0)
(0.093563 -0.0166044 0)
(0.107213 -0.00937955 0)
(0.108161 0.00256317 0)
(0.100981 0.0245598 0)
(0.0669541 0.02845 0)
(0.03518 0.0118342 0)
(0.0256449 0.00799493 0)
(0.00943917 0.0263913 0)
(-0.0350928 0.0356221 0)
(-0.0719451 0.0239526 0)
(-0.081557 -0.00055479 0)
(-0.0730204 -0.0210137 0)
(-0.0537048 -0.0273514 0)
(-0.0250785 -0.0194923 0)
(-0.00384157 0.00879786 0)
(0.0124492 -0.0220907 0)
(0.0276768 -0.0262975 0)
(0.0431441 -0.0272018 0)
(0.0606951 -0.0268212 0)
(0.0773125 -0.022259 0)
(0.0856837 -0.0104876 0)
(0.0802195 0.00543191 0)
(0.0698947 0.0304211 0)
(0.0513896 0.0375811 0)
(0.0313892 0.0191393 0)
(0.0203181 0.0136378 0)
(0.008341 0.0349464 0)
(-0.0132028 0.0456548 0)
(-0.03478 0.0327568 0)
(-0.047399 0.00180194 0)
(-0.0490582 -0.0231615 0)
(-0.0444812 -0.0347178 0)
(-0.0264327 -0.0366361 0)
(0.00502523 0.00525827 0)
(0.0157675 -0.0273226 0)
(0.0251407 -0.0314785 0)
(0.0359565 -0.0332027 0)
(0.0493747 -0.0331269 0)
(0.0624455 -0.0267663 0)
(0.0675457 -0.0101966 0)
(0.0588316 0.0099813 0)
(0.0474395 0.0351355 0)
(0.0379412 0.042989 0)
(0.0272429 0.0248379 0)
(0.018198 0.0181423 0)
(0.0119042 0.0395813 0)
(0.00470608 0.0508267 0)
(-0.0057556 0.0389892 0)
(-0.0165212 0.0058981 0)
(-0.0238077 -0.0218625 0)
(-0.0286939 -0.0375014 0)
(-0.0197154 -0.0504001 0)
(0.009981 -0.000472528 0)
(0.0145932 -0.0300173 0)
(0.0195642 -0.0347355 0)
(0.0269718 -0.0377093 0)
(0.0373229 -0.0381951 0)
(0.048175 -0.0302945 0)
(0.0516815 -0.00888535 0)
(0.0415102 0.0149698 0)
(0.0306946 0.0386312 0)
(0.0274232 0.0452479 0)
(0.0240783 0.0282501 0)
(0.0190477 0.0208398 0)
(0.0179969 0.0406008 0)
(0.0198618 0.0521974 0)
(0.0179323 0.0422742 0)
(0.010676 0.0100618 0)
(0.000361215 -0.0180431 0)
(-0.0105105 -0.0363761 0)
(-0.00904028 -0.0584009 0)
(0.010465 -0.00667678 0)
(0.00876642 -0.0302498 0)
(0.011109 -0.0365078 0)
(0.0163708 -0.0410215 0)
(0.0245113 -0.0422919 0)
(0.0340559 -0.0333848 0)
(0.0375631 -0.00719229 0)
(0.0276471 0.0198353 0)
(0.0185656 0.0406458 0)
(0.020498 0.0449206 0)
(0.0234943 0.0290565 0)
(0.0223388 0.0217219 0)
(0.025546 0.0386844 0)
(0.0333837 0.0506463 0)
(0.0378175 0.0430091 0)
(0.0336816 0.0139704 0)
(0.0217476 -0.0127355 0)
(0.00732753 -0.0327214 0)
(0.00280571 -0.0598304 0)
(0.00140944 -0.00903604 0)
(-0.00208739 -0.0292595 0)
(-9.27011e-06 -0.0376566 0)
(0.00443647 -0.0435805 0)
(0.0110551 -0.0457074 0)
(0.019634 -0.0364954 0)
(0.0245281 -0.00595411 0)
(0.0171261 0.0239444 0)
(0.0110615 0.0411489 0)
(0.0173696 0.0422743 0)
(0.0254417 0.0277098 0)
(0.0280922 0.0211324 0)
(0.0341492 0.034958 0)
(0.0455521 0.0468571 0)
(0.0542602 0.0417664 0)
(0.0523799 0.0176098 0)
(0.0397683 -0.0067074 0)
(0.0233534 -0.0273291 0)
(0.013889 -0.0547446 0)
(-0.0256166 -0.000275729 0)
(-0.0169874 -0.0294648 0)
(-0.0132135 -0.039314 0)
(-0.00840346 -0.0459128 0)
(-0.00288381 -0.0486181 0)
(0.00449388 -0.0397462 0)
(0.0114951 -0.00624285 0)
(0.00904477 0.0265325 0)
(0.00772989 0.0400851 0)
(0.0178953 0.037968 0)
(0.0295415 0.0246655 0)
(0.0359255 0.0190281 0)
(0.0439578 0.0305662 0)
(0.0565459 0.0419553 0)
(0.0670747 0.0393821 0)
(0.0668345 0.0209135 0)
(0.0544634 -0.000294001 0)
(0.0369465 -0.0200111 0)
(0.0232603 -0.0445882 0)
(-0.00179443 0.0215118 0)
(-0.00706538 0.0191 0)
(-0.0121357 0.0183304 0)
(-0.0173589 0.0186123 0)
(-0.0227399 0.0197678 0)
(-0.0284445 0.0217619 0)
(-0.0346909 0.0244152 0)
(-0.0416436 0.0273772 0)
(-0.0493412 0.0302975 0)
(-0.057744 0.0330444 0)
(-0.0669185 0.0356088 0)
(-0.0769225 0.0375067 0)
(-0.0875702 0.0381055 0)
(-0.0985269 0.0365892 0)
(-0.109277 0.0319314 0)
(-0.119096 0.0232979 0)
(-0.12731 0.0105954 0)
(-0.133699 -0.00604585 0)
(-0.138643 -0.0267601 0)
(-0.143088 -0.050561 0)
(-0.148785 -0.0745933 0)
(-0.163265 -0.0954423 0)
(-0.190764 -0.0963518 0)
(-0.00331914 0.0186945 0)
(-0.009692 0.0201014 0)
(-0.015679 0.0207923 0)
(-0.0217871 0.0219104 0)
(-0.0282302 0.0237598 0)
(-0.0351015 0.0265263 0)
(-0.0424109 0.0300544 0)
(-0.0503341 0.0339667 0)
(-0.058986 0.0378306 0)
(-0.0682079 0.0414738 0)
(-0.0779786 0.0450365 0)
(-0.0883703 0.0478209 0)
(-0.0990008 0.0489424 0)
(-0.109354 0.0475262 0)
(-0.119005 0.0423719 0)
(-0.127385 0.0324674 0)
(-0.133861 0.018066 0)
(-0.138445 1.37576e-05 0)
(-0.141981 -0.0210734 0)
(-0.146138 -0.0432731 0)
(-0.153454 -0.063992 0)
(-0.165534 -0.0810757 0)
(-0.174756 -0.0867522 0)
(-0.00998736 0.0304284 0)
(-0.0157951 0.0284156 0)
(-0.0222584 0.0275272 0)
(-0.0290808 0.0280319 0)
(-0.037622 0.0294753 0)
(-0.0471651 0.032189 0)
(-0.0562065 0.0360736 0)
(-0.0649049 0.0403596 0)
(-0.0740226 0.0445286 0)
(-0.0836039 0.0483055 0)
(-0.0930004 0.0525733 0)
(-0.102183 0.0559598 0)
(-0.110709 0.0571688 0)
(-0.117521 0.0556134 0)
(-0.122647 0.0496791 0)
(-0.126935 0.0385633 0)
(-0.130063 0.0228726 0)
(-0.131025 0.00402331 0)
(-0.130967 -0.0172229 0)
(-0.133257 -0.0385783 0)
(-0.142664 -0.0582649 0)
(-0.159207 -0.0760618 0)
(-0.170695 -0.0858016 0)
(-0.0399648 0.0655676 0)
(-0.0318756 0.0372491 0)
(-0.0315728 0.0332797 0)
(-0.0339098 0.0366442 0)
(-0.0488148 0.0399938 0)
(-0.0687095 0.0421096 0)
(-0.0836607 0.0458187 0)
(-0.0935812 0.0476482 0)
(-0.100729 0.0533935 0)
(-0.110585 0.0558406 0)
(-0.116763 0.059513 0)
(-0.119071 0.0627342 0)
(-0.12173 0.0621377 0)
(-0.120394 0.0579194 0)
(-0.114982 0.0493606 0)
(-0.112951 0.0389843 0)
(-0.114316 0.0210041 0)
(-0.111535 0.000504365 0)
(-0.107049 -0.0201718 0)
(-0.108369 -0.0360313 0)
(-0.125471 -0.0474993 0)
(-0.15505 -0.0626104 0)
(-0.167689 -0.0786373 0)
(-0.0792527 0.100213 0)
(-0.100822 0.0415507 0)
(-0.119708 0.0356217 0)
(-0.135185 0.0571568 0)
(-0.167909 0.0910814 0)
(-0.208075 0.0838121 0)
(-0.231486 0.0677009 0)
(-0.238567 0.0628504 0)
(-0.269008 0.0895794 0)
(-0.299644 0.0824736 0)
(-0.292208 0.0602005 0)
(-0.260258 0.0577953 0)
(-0.219292 0.0520412 0)
(-0.166369 0.0360451 0)
(-0.13217 0.0275658 0)
(-0.0999101 0.0462726 0)
(-0.0976526 0.0202403 0)
(-0.0980654 -0.00358914 0)
(-0.107871 -0.0181881 0)
(-0.151028 -0.00394145 0)
(-0.213655 0.0198296 0)
(-0.226929 -0.0222226 0)
(-0.183373 -0.105039 0)
(-0.0492444 0.191778 0)
(-0.121551 0.0916601 0)
(-0.175837 0.0576884 0)
(-0.20263 0.0710932 0)
(-0.229701 0.114467 0)
(-0.2524 0.0973048 0)
(-0.272682 0.0831557 0)
(-0.30098 0.0872502 0)
(-0.354473 0.114224 0)
(-0.356901 0.0634511 0)
(-0.337533 0.0255672 0)
(-0.312162 0.011684 0)
(-0.28292 -0.000964617 0)
(-0.250169 -0.0163346 0)
(-0.219797 -0.00974186 0)
(-0.191317 0.0354029 0)
(-0.158092 0.0123112 0)
(-0.140968 0.00106714 0)
(-0.140209 0.0235119 0)
(-0.174331 0.0584655 0)
(-0.212651 0.0385526 0)
(-0.198573 -0.0807645 0)
(-0.155688 -0.157175 0)
(-0.0241119 0.271099 0)
(-0.105965 0.187286 0)
(-0.187873 0.107569 0)
(-0.228451 0.0953985 0)
(-0.251108 0.131653 0)
(-0.270835 0.120249 0)
(-0.300361 0.105328 0)
(-0.342578 0.128908 0)
(-0.350488 0.143495 0)
(-0.331657 0.0594045 0)
(-0.321364 0.0143273 0)
(-0.315237 -0.00319992 0)
(-0.30813 -0.0169622 0)
(-0.300935 -0.0349625 0)
(-0.293103 -0.0334529 0)
(-0.274706 -0.0103043 0)
(-0.229958 -0.0346464 0)
(-0.190746 -0.0360903 0)
(-0.156233 0.0166304 0)
(-0.149536 0.0788462 0)
(-0.156011 0.0352495 0)
(-0.149676 -0.101813 0)
(-0.127508 -0.177482 0)
(-0.0295747 0.325941 0)
(-0.0783562 0.28164 0)
(-0.142319 0.188356 0)
(-0.212815 0.142008 0)
(-0.262049 0.158826 0)
(-0.294106 0.15614 0)
(-0.317136 0.136862 0)
(-0.311657 0.148009 0)
(-0.284195 0.119156 0)
(-0.267009 0.051892 0)
(-0.274666 0.00597936 0)
(-0.292962 -0.00527531 0)
(-0.305917 -0.0146316 0)
(-0.311824 -0.0399658 0)
(-0.312018 -0.0432166 0)
(-0.293889 -0.0418299 0)
(-0.262785 -0.0656623 0)
(-0.229704 -0.0687763 0)
(-0.191402 -0.0264436 0)
(-0.141655 0.0477859 0)
(-0.107291 0.0320178 0)
(-0.096275 -0.108899 0)
(-0.0976483 -0.186321 0)
(-0.025562 0.360767 0)
(-0.0558741 0.320824 0)
(-0.105205 0.255589 0)
(-0.168381 0.21735 0)
(-0.226384 0.207084 0)
(-0.262506 0.185206 0)
(-0.268642 0.136965 0)
(-0.251943 0.113681 0)
(-0.226633 0.0838848 0)
(-0.206289 0.0433559 0)
(-0.210764 0.0231635 0)
(-0.226199 0.0147909 0)
(-0.241226 0.00482026 0)
(-0.269999 -0.0339531 0)
(-0.295375 -0.043768 0)
(-0.280112 -0.054548 0)
(-0.257221 -0.0861889 0)
(-0.237788 -0.090929 0)
(-0.213305 -0.0577721 0)
(-0.175396 -0.00173267 0)
(-0.108437 0.0213483 0)
(-0.0405413 -0.119068 0)
(-0.084303 -0.18748 0)
(-0.0200054 0.390669 0)
(-0.0383398 0.350668 0)
(-0.07242 0.301617 0)
(-0.117273 0.269746 0)
(-0.160658 0.248959 0)
(-0.188733 0.201709 0)
(-0.1981 0.132758 0)
(-0.193428 0.094075 0)
(-0.181394 0.0627797 0)
(-0.170984 0.038255 0)
(-0.164775 0.028892 0)
(-0.161054 0.0255179 0)
(-0.167582 0.0282778 0)
(-0.190461 0.00683795 0)
(-0.214352 -0.0295777 0)
(-0.222285 -0.0749359 0)
(-0.220046 -0.108571 0)
(-0.226229 -0.11224 0)
(-0.224286 -0.0835652 0)
(-0.193111 -0.0470021 0)
(-0.141609 -0.0663478 0)
(-0.113671 -0.125491 0)
(-0.129328 -0.14147 0)
(-0.0123548 0.412386 0)
(-0.019759 0.37307 0)
(-0.0386944 0.332646 0)
(-0.0624518 0.303533 0)
(-0.0833334 0.276153 0)
(-0.101076 0.220027 0)
(-0.11736 0.142343 0)
(-0.127724 0.0936906 0)
(-0.132471 0.0601777 0)
(-0.135842 0.0368914 0)
(-0.134941 0.0253376 0)
(-0.129957 0.0210772 0)
(-0.126472 0.0310758 0)
(-0.134479 0.0264514 0)
(-0.147527 -0.0126607 0)
(-0.151184 -0.0688184 0)
(-0.149252 -0.109062 0)
(-0.146457 -0.121489 0)
(-0.144572 -0.108727 0)
(-0.135676 -0.0897244 0)
(-0.120445 -0.0926834 0)
(-0.117193 -0.120203 0)
(-0.127438 -0.132582 0)
(-0.00261095 0.420893 0)
(0.000151617 0.382663 0)
(-0.00607505 0.346293 0)
(-0.0122703 0.317203 0)
(-0.0153435 0.285861 0)
(-0.018333 0.23261 0)
(-0.0319374 0.159729 0)
(-0.053517 0.105143 0)
(-0.0716179 0.069103 0)
(-0.0866104 0.0430923 0)
(-0.0950868 0.0256783 0)
(-0.0980716 0.0186241 0)
(-0.095492 0.0278053 0)
(-0.0916396 0.0294133 0)
(-0.0907199 -0.00913057 0)
(-0.0924419 -0.0653388 0)
(-0.0954235 -0.101815 0)
(-0.0969006 -0.112293 0)
(-0.0993877 -0.0997153 0)
(-0.0995221 -0.0863099 0)
(-0.0974083 -0.0930386 0)
(-0.100304 -0.113203 0)
(-0.108239 -0.125333 0)
(0.00662017 0.413255 0)
(0.0177913 0.381809 0)
(0.0211749 0.345875 0)
(0.0262376 0.315637 0)
(0.0329683 0.282526 0)
(0.0375482 0.236231 0)
(0.0317651 0.17947 0)
(0.0158264 0.128721 0)
(-0.00216888 0.0897142 0)
(-0.0194592 0.0581117 0)
(-0.0361722 0.0330317 0)
(-0.0500165 0.0209015 0)
(-0.0534242 0.0248059 0)
(-0.0457999 0.0227604 0)
(-0.0393922 -0.0109348 0)
(-0.0417152 -0.0609537 0)
(-0.0503785 -0.0962013 0)
(-0.0609991 -0.107673 0)
(-0.0696272 -0.0946638 0)
(-0.0719899 -0.0842504 0)
(-0.0718739 -0.0905987 0)
(-0.0758859 -0.106789 0)
(-0.0834775 -0.118985 0)
(0.0136396 0.39336 0)
(0.030783 0.372643 0)
(0.0408611 0.336755 0)
(0.0521859 0.305927 0)
(0.063459 0.273209 0)
(0.0717127 0.23314 0)
(0.0717766 0.187181 0)
(0.0632108 0.143565 0)
(0.0504672 0.106625 0)
(0.0365773 0.0758788 0)
(0.0223378 0.0506951 0)
(0.00930949 0.0331924 0)
(0.00242429 0.0247288 0)
(0.00478568 0.0146011 0)
(0.00883369 -0.0132727 0)
(0.0041328 -0.0540869 0)
(-0.0106326 -0.0853578 0)
(-0.028326 -0.0953539 0)
(-0.0391965 -0.0877142 0)
(-0.0425594 -0.0832634 0)
(-0.043633 -0.088442 0)
(-0.0481617 -0.100316 0)
(-0.0561336 -0.11193 0)
(0.0175614 0.366523 0)
(0.0384113 0.357146 0)
(0.0530567 0.322775 0)
(0.0676686 0.29264 0)
(0.0809976 0.261703 0)
(0.0911016 0.226781 0)
(0.0950689 0.188503 0)
(0.0923139 0.151041 0)
(0.0850459 0.117312 0)
(0.0754657 0.0879995 0)
(0.064856 0.0632265 0)
(0.0547719 0.043694 0)
(0.0481734 0.0287833 0)
(0.0466721 0.0128566 0)
(0.0460246 -0.0113804 0)
(0.0393046 -0.0415489 0)
(0.0249969 -0.066637 0)
(0.00827471 -0.0786481 0)
(-0.00412725 -0.0800539 0)
(-0.010514 -0.0803177 0)
(-0.0144206 -0.0849892 0)
(-0.0197827 -0.0937283 0)
(-0.0282252 -0.103553 0)
(0.0184857 0.337115 0)
(0.0412093 0.337268 0)
(0.0588666 0.306014 0)
(0.0751407 0.277706 0)
(0.089396 0.249211 0)
(0.100501 0.218554 0)
(0.106923 0.185977 0)
(0.108206 0.153606 0)
(0.105395 0.1233 0)
(0.0999074 0.0959391 0)
(0.0929223 0.0718854 0)
(0.0857482 0.0513355 0)
(0.0801047 0.0334646 0)
(0.0767092 0.0152378 0)
(0.073191 -0.00663134 0)
(0.0656808 -0.0307774 0)
(0.0531723 -0.0514969 0)
(0.0388045 -0.064397 0)
(0.0267932 -0.0703398 0)
(0.0185737 -0.0741494 0)
(0.0123914 -0.0793989 0)
(0.00576775 -0.08658 0)
(-0.00268669 -0.0944437 0)
(0.0172989 0.308206 0)
(0.0404329 0.314949 0)
(0.0597721 0.287696 0)
(0.0768122 0.261933 0)
(0.0914521 0.236136 0)
(0.103119 0.209092 0)
(0.111058 0.180897 0)
(0.114999 0.152672 0)
(0.115453 0.125582 0)
(0.113293 0.100372 0)
(0.109414 0.0774249 0)
(0.104776 0.0568169 0)
(0.10037 0.0379508 0)
(0.0965024 0.0192618 0)
(0.0919134 -0.000694193 0)
(0.0846049 -0.0210835 0)
(0.0740818 -0.0389366 0)
(0.0621145 -0.0518832 0)
(0.0511954 -0.0602047 0)
(0.0424109 -0.0663138 0)
(0.0349981 -0.0723071 0)
(0.0275011 -0.0787669 0)
(0.0188548 -0.0851813 0)
(0.0151314 0.281633 0)
(0.037548 0.291931 0)
(0.0573998 0.268753 0)
(0.0746121 0.245839 0)
(0.0893235 0.222766 0)
(0.101275 0.198841 0)
(0.110137 0.174138 0)
(0.115791 0.149297 0)
(0.118515 0.125064 0)
(0.118848 0.102002 0)
(0.117413 0.0804443 0)
(0.114862 0.0604641 0)
(0.11177 0.0417336 0)
(0.108283 0.0235014 0)
(0.103775 0.00517414 0)
(0.0972851 -0.0127184 0)
(0.0886247 -0.0286149 0)
(0.0787998 -0.0412425 0)
(0.0692504 -0.0506538 0)
(0.0607334 -0.0580345 0)
(0.0529856 -0.0645506 0)
(0.0452021 -0.0706442 0)
(0.036652 -0.0761277 0)
(0.0128709 0.258117 0)
(0.0338459 0.269531 0)
(0.0533045 0.249933 0)
(0.0702406 0.229826 0)
(0.0847735 0.209364 0)
(0.0967789 0.188176 0)
(0.10615 0.166353 0)
(0.112871 0.144311 0)
(0.117122 0.122555 0)
(0.119243 0.101513 0)
(0.119649 0.0814678 0)
(0.118765 0.0625178 0)
(0.116937 0.0445323 0)
(0.114253 0.0271955 0)
(0.11043 0.0103088 0)
(0.105045 -0.00578056 0)
(0.0980747 -0.0202304 0)
(0.0901101 -0.032347 0)
(0.0819854 -0.0420989 0)
(0.0742115 -0.050047 0)
(0.0667519 -0.0568035 0)
(0.059192 -0.0626452 0)
(0.0510847 -0.0675186 0)
(0.0110075 0.237538 0)
(0.0302564 0.24851 0)
(0.0487643 0.231758 0)
(0.0650976 0.214204 0)
(0.0792202 0.196155 0)
(0.0910522 0.177387 0)
(0.100605 0.158003 0)
(0.10793 0.138313 0)
(0.113163 0.118696 0)
(0.116525 0.0994951 0)
(0.118285 0.0809602 0)
(0.118715 0.063219 0)
(0.118027 0.0462652 0)
(0.116291 0.0300064 0)
(0.1134 0.0144212 0)
(0.109197 -0.000249508 0)
(0.103734 -0.0135332 0)
(0.097377 -0.0250359 0)
(0.0906233 -0.0346976 0)
(0.0838183 -0.0427623 0)
(0.0770182 -0.0495268 0)
(0.0700317 -0.055138 0)
(0.0626115 -0.0595943 0)
(0.00972422 0.219322 0)
(0.0273211 0.229116 0)
(0.0446687 0.214515 0)
(0.0601985 0.19921 0)
(0.0736987 0.183357 0)
(0.0851293 0.166731 0)
(0.0945887 0.149432 0)
(0.102171 0.131731 0)
(0.107987 0.113953 0)
(0.11218 0.0963982 0)
(0.114919 0.0792989 0)
(0.116369 0.0628042 0)
(0.116664 0.0469796 0)
(0.115863 0.0318433 0)
(0.113944 0.0174489 0)
(0.110875 0.00397204 0)
(0.106735 -0.00830563 0)
(0.101764 -0.019144 0)
(0.0962734 -0.0284743 0)
(0.0905033 -0.0363822 0)
(0.0845431 -0.0429903 0)
(0.0783251 -0.0483588 0)
(0.0717285 -0.0525002 0)
(0.00898017 0.202763 0)
(0.025224 0.211205 0)
(0.0414868 0.198282 0)
(0.0561237 0.18502 0)
(0.0688154 0.171187 0)
(0.0796327 0.156445 0)
(0.088775 0.140913 0)
(0.0963643 0.124881 0)
(0.102483 0.108668 0)
(0.107212 0.0925581 0)
(0.110645 0.0767784 0)
(0.112878 0.0614885 0)
(0.11399 0.0467893 0)
(0.11403 0.0327493 0)
(0.113014 0.0194493 0)
(0.110963 0.00702362 0)
(0.107961 -0.00434728 0)
(0.104176 -0.0145035 0)
(0.0998149 -0.023375 0)
(0.0950514 -0.0309687 0)
(0.089984 -0.0373146 0)
(0.0846102 -0.0424209 0)
(0.0788877 -0.0463003 0)
(0.0085174 0.187332 0)
(0.023835 0.194389 0)
(0.0392499 0.182964 0)
(0.0529841 0.171763 0)
(0.0647189 0.159844 0)
(0.0747665 0.146725 0)
(0.0834568 0.132643 0)
(0.09091 0.117977 0)
(0.09716 0.103072 0)
(0.10223 0.0882155 0)
(0.106153 0.0736251 0)
(0.108976 0.0594607 0)
(0.110744 0.0458352 0)
(0.111496 0.0328341 0)
(0.111263 0.0205427 0)
(0.110086 0.0090672 0)
(0.108043 -0.00146724 0)
(0.105259 -0.0109452 0)
(0.101882 -0.0192978 0)
(0.0980442 -0.0264944 0)
(0.0938438 -0.0325174 0)
(0.0893106 -0.0373464 0)
(0.0844503 -0.0409914 0)
(0.00829079 0.172641 0)
(0.0227797 0.178243 0)
(0.0374845 0.168327 0)
(0.0503361 0.159497 0)
(0.0610756 0.149459 0)
(0.0703513 0.137659 0)
(0.0786137 0.1247 0)
(0.0859217 0.111118 0)
(0.092241 0.0973018 0)
(0.097541 0.0835306 0)
(0.101815 0.0700087 0)
(0.105078 0.0568839 0)
(0.107357 0.0442643 0)
(0.108683 0.0322352 0)
(0.109093 0.0208756 0)
(0.108636 0.0102712 0)
(0.107381 0.000514979 0)
(0.105429 -0.00830369 0)
(0.10289 -0.0161184 0)
(0.0998728 -0.0228817 0)
(0.0964696 -0.0285535 0)
(0.0927253 -0.033099 0)
(0.0886745 -0.0365268 0)
(0.0082791 0.158369 0)
(0.0214507 0.162934 0)
(0.0349069 0.154549 0)
(0.0468974 0.148046 0)
(0.0570803 0.13986 0)
(0.0659575 0.129074 0)
(0.0740541 0.11697 0)
(0.0813524 0.104274 0)
(0.0877695 0.0913959 0)
(0.0932529 0.0785964 0)
(0.0977834 0.0660539 0)
(0.101367 0.0538958 0)
(0.104026 0.0422173 0)
(0.105792 0.0310949 0)
(0.106707 0.0205979 0)
(0.106821 0.0107967 0)
(0.106199 0.00176497 0)
(0.104924 -0.00642413 0)
(0.103085 -0.0137074 0)
(0.100774 -0.020031 0)
(0.098077 -0.0253454 0)
(0.0950446 -0.0296102 0)
(0.0917268 -0.032834 0)
(0.00734958 0.145284 0)
(0.0191349 0.149093 0)
(0.0311293 0.142117 0)
(0.0421806 0.137164 0)
(0.0522643 0.130463 0)
(0.0613824 0.120498 0)
(0.0696924 0.109174 0)
(0.0771583 0.0973187 0)
(0.0837223 0.0853383 0)
(0.0893583 0.0734668 0)
(0.0940666 0.061856 0)
(0.0978661 0.0506137 0)
(0.100788 0.0398214 0)
(0.102871 0.0295462 0)
(0.104162 0.019849 0)
(0.104713 0.0107897 0)
(0.104586 0.00242992 0)
(0.103851 -0.00516676 0)
(0.102586 -0.0119406 0)
(0.10087 -0.0178367 0)
(0.0987833 -0.0228024 0)
(0.0963755 -0.0267966 0)
(0.0937037 -0.0298285 0)
(0.00583336 0.134258 0)
(0.0163401 0.136766 0)
(0.0270168 0.131074 0)
(0.0372548 0.126771 0)
(0.0474339 0.120666 0)
(0.0570641 0.111516 0)
(0.0657257 0.101091 0)
(0.0733913 0.0901704 0)
(0.0800716 0.0791357 0)
(0.0857923 0.0682018 0)
(0.0905888 0.0575057 0)
(0.0945026 0.0471442 0)
(0.0975798 0.0371913 0)
(0.0998697 0.027709 0)
(0.101424 0.0187529 0)
(0.102296 0.0103774 0)
(0.102545 0.00263783 0)
(0.102235 -0.00440837 0)
(0.101433 -0.0107044 0)
(0.100211 -0.0161963 0)
(0.0986399 -0.0208319 0)
(0.0967691 -0.024571 0)
(0.0946553 -0.0274232 0)
(0.00578074 0.12465 0)
(0.0147029 0.126224 0)
(0.0239625 0.121149 0)
(0.0337407 0.116625 0)
(0.0439345 0.110493 0)
(0.0536897 0.102197 0)
(0.06243 0.0928016 0)
(0.0701075 0.0829176 0)
(0.0767601 0.0728832 0)
(0.0824444 0.0629014 0)
(0.08722 0.0531056 0)
(0.0911463 0.0435911 0)
(0.0942818 0.0344314 0)
(0.0966829 0.025688 0)
(0.098405 0.0174159 0)
(0.099503 0.00966783 0)
(0.100032 0.00249636 0)
(0.100051 -0.00404404 0)
(0.0996189 -0.00989922 0)
(0.0987999 -0.0150168 0)
(0.0976602 -0.0193463 0)
(0.0962443 -0.0228493 0)
(0.0946056 -0.0255348 0)
(0.00629135 0.115064 0)
(0.0143174 0.117186 0)
(0.0228631 0.111842 0)
(0.0323118 0.106694 0)
(0.0420784 0.100522 0)
(0.0513902 0.0930139 0)
(0.0598009 0.0846362 0)
(0.0672135 0.0757895 0)
(0.0736462 0.0667477 0)
(0.0791525 0.0576961 0)
(0.0837961 0.048765 0)
(0.0876421 0.0400513 0)
(0.0907531 0.0316315 0)
(0.0931884 0.0235699 0)
(0.0950037 0.0159238 0)
(0.0962522 0.00874696 0)
(0.0969855 0.00209193 0)
(0.0972557 -0.00398818 0)
(0.0971165 -0.00944125 0)
(0.0966249 -0.0142169 0)
(0.0958411 -0.0182668 0)
(0.0948061 -0.021554 0)
(0.0935674 -0.0240866 0)
(0.00632813 0.105262 0)
(0.0144468 0.108453 0)
(0.0230192 0.102792 0)
(0.0320465 0.0972575 0)
(0.0411023 0.0912253 0)
(0.0496933 0.0843956 0)
(0.0575115 0.0769159 0)
(0.0644526 0.069015 0)
(0.0705104 0.0608932 0)
(0.0757226 0.0527074 0)
(0.0801445 0.0445791 0)
(0.0838369 0.0366044 0)
(0.0868604 0.0288623 0)
(0.0892718 0.021421 0)
(0.0911244 0.0143414 0)
(0.092467 0.00768018 0)
(0.0933462 0.00149129 0)
(0.0938076 -0.00417261 0)
(0.0938987 -0.0092614 0)
(0.0936704 -0.0137269 0)
(0.0931772 -0.0175234 0)
(0.0924574 -0.0206156 0)
(0.0915522 -0.0230094 0)
(0.00623155 0.095549 0)
(0.0145892 0.099301 0)
(0.0232362 0.0938787 0)
(0.031835 0.0884284 0)
(0.0401814 0.0827224 0)
(0.0480102 0.0765078 0)
(0.0551506 0.0698035 0)
(0.0615264 0.0627307 0)
(0.0671254 0.0554274 0)
(0.0719734 0.0480195 0)
(0.0761156 0.0406152 0)
(0.0796056 0.0333065 0)
(0.0824981 0.0261736 0)
(0.0848454 0.0192882 0)
(0.0866955 0.0127155 0)
(0.0880914 0.00651604 0)
(0.0890726 0.000745851 0)
(0.0896779 -0.0045427 0)
(0.0899482 -0.00930196 0)
(0.0899286 -0.0134867 0)
(0.0896691 -0.0170542 0)
(0.0892059 -0.0199714 0)
(0.0885747 -0.0222411 0)
(0.00604947 0.0860084 0)
(0.0144233 0.0899246 0)
(0.0229743 0.0851671 0)
(0.0311273 0.0801751 0)
(0.0388196 0.074955 0)
(0.0459371 0.069344 0)
(0.0524123 0.0633304 0)
(0.058209 0.0569826 0)
(0.0633232 0.0503977 0)
(0.0677772 0.0436761 0)
(0.07161 0.0369122 0)
(0.0748689 0.030193 0)
(0.0776028 0.0235987 0)
(0.0798587 0.0172042 0)
(0.0816783 0.01108 0)
(0.0830975 0.00529108 0)
(0.0841474 -0.000103861 0)
(0.0848581 -0.00505337 0)
(0.0852638 -0.00951343 0)
(0.0854048 -0.0134431 0)
(0.0853273 -0.0168038 0)
(0.0850669 -0.0195644 0)
(0.0846551 -0.0217251 0)
(0.00578801 0.0767771 0)
(0.0138763 0.0806933 0)
(0.0221051 0.076804 0)
(0.0297584 0.0724786 0)
(0.036835 0.067851 0)
(0.0433009 0.0628478 0)
(0.0491545 0.0574692 0)
(0.0543936 0.051766 0)
(0.0590277 0.0458131 0)
(0.0630816 0.0396931 0)
(0.0665922 0.0334898 0)
(0.0696032 0.0272853 0)
(0.0721596 0.0211599 0)
(0.0743036 0.0151927 0)
(0.0760711 0.00946025 0)
(0.0774897 0.0040338 0)
(0.07858 -0.00102458 0)
(0.0793621 -0.00566566 0)
(0.0798627 -0.00985145 0)
(0.0801184 -0.0135476 0)
(0.0801735 -0.0167206 0)
(0.0800643 -0.019342 0)
(0.0798205 -0.0214087 0)
(0.00544552 0.0680522 0)
(0.0129944 0.0719102 0)
(0.0207019 0.0689384 0)
(0.0277866 0.0653582 0)
(0.0342567 0.0613684 0)
(0.0401113 0.0569681 0)
(0.0453825 0.052182 0)
(0.0500908 0.0470601 0)
(0.0542576 0.0416668 0)
(0.0579126 0.0360745 0)
(0.0610934 0.0303589 0)
(0.0638426 0.0245986 0)
(0.0662035 0.0188753 0)
(0.0682155 0.0132733 0)
(0.0699096 0.00787759 0)
(0.0713048 0.00276857 0)
(0.0724086 -0.00198643 0)
(0.0732276 -0.00634274 0)
(0.0737809 -0.0102728 0)
(0.0741036 -0.0137523 0)
(0.0742409 -0.0167543 0)
(0.0742318 -0.019253 0)
(0.0741059 -0.0212412 0)
(0.00502537 0.0599931 0)
(0.0118741 0.0637928 0)
(0.0189209 0.0616934 0)
(0.0253771 0.0588494 0)
(0.0312333 0.0554927 0)
(0.0364959 0.0516739 0)
(0.0412089 0.0474404 0)
(0.045405 0.0428463 0)
(0.0491136 0.0379522 0)
(0.0523683 0.0328235 0)
(0.0552085 0.0275308 0)
(0.0576775 0.0221502 0)
(0.0598192 0.0167654 0)
(0.0616729 0.0114679 0)
(0.063267 0.00635475 0)
(0.0646124 0.00152048 0)
(0.0656993 -0.00295797 0)
(0.0665154 -0.00704456 0)
(0.0670726 -0.0107306 0)
(0.0674088 -0.0140064 0)
(0.0675741 -0.0168531 0)
(0.0676125 -0.0192461 0)
(0.0675549 -0.0211729 0)
(0.004546 0.0527056 0)
(0.010629 0.05647 0)
(0.0169446 0.0551473 0)
(0.0227374 0.0529824 0)
(0.0279713 0.050223 0)
(0.0326488 0.0469511 0)
(0.0368157 0.0432293 0)
(0.0405085 0.0391157 0)
(0.0437606 0.0346687 0)
(0.0466075 0.0299494 0)
(0.0490895 0.0250236 0)
(0.0512513 0.0199654 0)
(0.053139 0.0148601 0)
(0.0547957 0.00980774 0)
(0.0562518 0.00492215 0)
(0.0575124 0.000320586 0)
(0.0585441 -0.00390058 0)
(0.0593063 -0.00772174 0)
(0.059806 -0.0111685 0)
(0.0600924 -0.0142524 0)
(0.0602264 -0.0169615 0)
(0.0602587 -0.0192693 0)
(0.0602216 -0.0211553 0)
(0.00404291 0.0462285 0)
(0.00938343 0.0499822 0)
(0.0149627 0.0493266 0)
(0.0200881 0.0477693 0)
(0.0246997 0.0455594 0)
(0.0287971 0.0427937 0)
(0.0324242 0.0395426 0)
(0.035618 0.0358667 0)
(0.0384116 0.0318229 0)
(0.0408391 0.0274685 0)
(0.0429393 0.0228647 0)
(0.0447569 0.0180814 0)
(0.0463413 0.0132039 0)
(0.0477434 0.00833969 0)
(0.0490032 0.0036236 0)
(0.0501292 -0.000790363 0)
(0.0510537 -0.00476335 0)
(0.0516925 -0.00830886 0)
(0.0520541 -0.0115164 0)
(0.0522157 -0.014424 0)
(0.0522557 -0.0170212 0)
(0.0522308 -0.0192721 0)
(0.0521719 -0.0211432 0)
(0.00357466 0.040517 0)
(0.00827964 0.0442902 0)
(0.0131696 0.0442118 0)
(0.01765 0.0432026 0)
(0.0216502 0.0414978 0)
(0.0251765 0.0391979 0)
(0.0282732 0.0363777 0)
(0.0309754 0.0331007 0)
(0.0333117 0.0294239 0)