/*--------------------------------*- C++ -*----------------------------------*\
| =========                 |                                                 |
| \\      /  F ield         | OpenFOAM: The Open Source CFD Toolbox           |
|  \\    /   O peration     | Version:  2.3.0                                 |
|   \\  /    A nd           | Web:      www.OpenFOAM.org                      |
|    \\/     M anipulation  |                                                 |
\*---------------------------------------------------------------------------*/
FoamFile
{
    version     2.0;
    format      ascii;
    class       volScalarField;
    location    "0.096";
    object      alpha.water;
}
// * * * * * * * * * * * * * * * * * * * * * * * * * * * * * * * * * * * * * //

dimensions      [0 0 0 0 0 0 0];

internalField   nonuniform List<scalar> 
725
(
1
1
1
1.00005
1.00003
1
1
1
0.999976
1.00003
1
1
1.00001
0.999983
0.999948
1
1
1
0.999984
1.00003
1
1
1
0.99999
1.00004
1.00002
1
0.655197
0.551757
0.999937
0.999936
0.999916
0.999871
0.999892
0.999922
0.999953
0.999992
1
1
1.00001
1.00002
1.00004
1.00004
1.00003
1.00003
1.00001
0.654771
0.00716519
0.00039957
0.000403412
0.000399953
0.0640383
0.816857
0.999753
0.999724
0.999846
1.00001
1.00009
1.00015
1.0002
0.999864
0.999558
0.999825
0.999901
1.00006
1.00005
1.0001
1
0.816457
0.0337944
1
0.951437
0.540153
0.51252
0.974315
0.99995
0.999813
0.999701
0.999785
0.999874
0.999848
0.999852
0.999864
0.99988
0.999897
0.99991
0.999924
0.999967
1.00002
1.00004
1
0.684973
0.00823369
0.000400685
0.000400162
0.000399984
0.0573039
0.805526
0.999793
0.999655
0.999605
0.999508
0.999344
0.999114
0.998704
0.998353
0.997711
0.998105
0.998904
0.999233
0.999503
0.999607
1
0.911856
0.118973
0.999976
0.964165
0.562526
0.5052
0.928313
0.99995
0.999595
0.999225
0.99967
0.99991
0.999831
0.999828
0.999825
0.999825
0.999828
0.999835
0.999844
0.999867
0.999977
1.00009
1
0.635291
0.00815675
0.000402532
0.000400862
0.000401646
0.0532597
0.796411
0.999842
0.99984
0.999804
0.999938
1.00014
1.00039
1.00048
0.999185
0.995006
0.99516
0.996706
0.99926
0.999323
0.999454
1
0.984067
0.27868
1
0.335749
0.40877
0.486367
0.82698
0.99995
0.999615
0.998223
0.999573
0.999648
0.999765
0.999804
0.999815
0.999813
0.999809
0.999806
0.999806
0.999818
0.99998
0.999999
0.991365
0.684271
0.058161
0.000402923
0.000401933
0.00040379
0.060526
0.797612
0.999823
0.999797
0.999771
0.999793
0.999839
1.00021
1.00003
0.996126
0.994824
0.994823
0.994823
0.996132
0.999431
0.999539
1
0.988652
0.295112
0.363932
0.00610431
0.0718868
0.378872
0.622161
0.990283
0.999768
0.998662
0.999456
0.999709
0.999737
0.999754
0.999771
0.999778
0.999781
0.999783
0.999793
0.999819
0.999912
1
0.955822
0.598378
0.0413569
0.000404393
0.000406389
0.000411978
0.0986104
0.813494
0.99974
0.999673
0.999696
0.999714
0.999734
1.00005
1.00001
0.997119
0.994824
0.994823
0.994823
0.995509
0.9994
0.999467
1
0.985797
0.298506
1.85595e-06
0.00281591
0.0113987
0.272863
0.544931
0.931407
0.999774
0.999282
0.999657
0.999821
0.999781
0.999738
0.999743
0.999758
0.999768
0.999775
0.999787
0.999801
0.99997
1.00009
0.993357
0.647665
0.0440125
0.000417895
0.00247226
0.000418564
0.120976
0.82659
0.999517
0.999265
0.999469
0.999565
0.999534
0.999258
0.999108
0.996981
0.997465
0.996785
0.994831
0.994847
0.99887
0.999248
1
0.948418
0.179558
5.16456e-06
0.00400741
0.00930352
0.12957
0.474509
0.900596
0.999555
0.999432
0.999953
0.99986
0.999795
0.999732
0.999718
0.999731
0.99975
0.999765
0.999779
0.999785
1.00001
1.00005
0.987392
0.605234
0.048912
0.000426061
0.00327881
0.000421831
0.130409
0.832923
0.999397
0.999294
0.999466
0.999478
0.999493
0.999323
0.998914
0.997459
0.997505
0.998111
0.997322
0.994907
0.99642
0.997548
1.00002
0.936685
0.141343
0.0772719
0.0235867
0.00619125
0.0414515
0.457267
0.883489
0.999639
0.999629
0.999821
0.999849
0.999803
0.999735
0.999699
0.999697
0.999714
0.999738
0.999762
0.999771
1.00001
1.00004
0.98361
0.659803
0.0294083
0.000430017
0.00328061
0.000424291
0.138013
0.838519
0.999567
0.999493
0.999589
0.999779
0.999685
0.999465
0.998949
0.998027
0.997581
0.995564
0.997317
0.995133
0.994926
0.994973
0.999988
0.923547
0.121171
0.285119
0.0230586
0.00590138
0.0287938
0.357467
0.89134
0.99962
0.999588
0.999807
0.999853
0.99981
0.999743
0.999697
0.999686
0.999698
0.999723
0.99975
0.999759
1.00001
1.00003
0.970319
0.658327
0.000514991
0.000433566
0.00128037
0.000421959
0.147233
0.845377
0.999711
0.999639
0.999687
0.999716
0.999676
0.999495
0.998989
0.999766
0.999643
0.995535
0.997191
0.995102
0.994923
0.998512
1.00001
0.904572
0.100387
0.414997
0.0264008
0.00566346
0.00843631
0.212394
0.89307
0.999772
0.999551
0.99981
0.999861
0.999815
0.99975
0.999703
0.999691
0.999697
0.999708
0.999744
0.999753
1.00001
1.00006
0.980062
0.638466
0.0269977
0.000433645
0.000423059
0.000421422
0.153712
0.851702
0.999832
0.999755
0.999749
0.999751
0.999741
0.99957
0.999054
0.99951
0.997989
0.995501
0.995683
0.995615
0.994923
0.998947
1.00001
0.892804
0.0852959
1
1
1
1.00002
1
1
1
1
1.00002
1
1
1
1
1.00001
1
1
1
1
1.00001
1
1
1
1
1.00004
1
0.839479
0.102385
0.00536936
0.00566474
0.0807929
0.767216
0.999973
0.999974
0.999972
0.999878
0.999819
0.999758
0.999711
0.999694
0.999759
0.999835
0.999816
0.999812
0.999942
1
0.982041
0.555973
0.018193
0.00042552
0.000422118
0.000421408
0.177568
0.869091
0.999902
0.999896
0.999858
0.999835
0.999853
1.00002
0.999831
1.00007
0.997192
0.995488
0.995489
0.998745
0.998955
0.999425
1
0.858328
0.0491399
0.866682
0.247357
0.00532102
0.00532176
0.0286352
0.466378
0.994956
0.999973
0.999908
0.999875
0.999826
0.999789
0.999779
0.999787
0.999799
0.999811
0.999821
0.999849
0.999898
1.00002
1
0.605041
0.0242392
0.000446336
0.000449006
0.00042141
0.203988
0.878204
0.999938
0.999904
0.999878
0.999867
0.999872
0.999898
1.00008
1.00026
0.999904
0.995888
0.996583
0.999245
0.999407
0.999405
0.999999
0.815635
0.0392725
0.904408
0.316902
0.00531854
0.00530709
0.00529808
0.296258
0.982899
0.999967
0.999893
0.999871
0.999837
0.999823
0.999826
0.999832
0.999838
0.999847
0.999861
0.999886
0.999918
1.00006
1
0.467979
0.000719987
0.000490635
0.000485072
0.000422095
0.215988
0.911611
0.999968
0.999967
0.99988
0.999796
0.999649
0.999471
0.999449
0.999433
0.998585
0.998227
0.998898
0.998963
0.999202
0.99937
0.999996
0.878229
0.076067
0.9245
0.374984
0.00530927
0.00530148
0.0053013
0.22224
0.958828
0.999974
0.999972
0.999858
0.999847
0.999846
0.999857
0.999873
0.999888
0.999905
0.999929
0.999948
0.999967
1.00001
1
0.449778
0.000700531
0.00048303
0.000481408
0.000428958
0.206282
0.919123
0.999918
0.999775
0.99965
0.999484
0.999331
0.999183
0.99902
0.998916
0.998891
0.999025
0.999065
0.999575
0.999668
0.999511
0.999994
0.966348
0.229451
0.918246
0.404056
0.00531411
0.0053013
0.00530129
0.169106
0.959072
0.999916
0.999852
0.999882
0.999922
0.999952
0.999979
1.00001
1.00002
1
1
1.00001
1.00001
1.00001
1
0.399802
0.000483849
0.000483721
0.000481288
0.000442096
0.212433
0.944281
0.999992
0.99999
1.00006
1.00005
0.99996
0.999861
0.999769
0.999853
0.999889
0.999768
0.999505
0.998973
0.998914
0.999032
0.99999
0.984601
0.296216
)
;

boundaryField
{
    AirInlet
    {
        type            fixedValue;
        value           uniform 0;
    }
    WaterInlet
    {
        type            fixedValue;
        value           uniform 1;
    }
    ChannelWall
    {
        type            zeroGradient;
    }
    Outlet
    {
        type            inletOutlet;
        inletValue      uniform 0;
        value           nonuniform List<scalar> 
15
(
0.0337944
0.118973
0
0
0.298506
0
0
0
0
0
0.0491399
0.0392725
0.076067
0
0
)
;
    }
    FrontAndBack
    {
        type            empty;
    }
}


// ************************************************************************* //
