/*--------------------------------*- C++ -*----------------------------------*\
| =========                 |                                                 |
| \\      /  F ield         | OpenFOAM: The Open Source CFD Toolbox           |
|  \\    /   O peration     | Version:  2.3.0                                 |
|   \\  /    A nd           | Web:      www.OpenFOAM.org                      |
|    \\/     M anipulation  |                                                 |
\*---------------------------------------------------------------------------*/
FoamFile
{
    version     2.0;
    format      ascii;
    class       volScalarField;
    location    "0.096";
    object      p;
}
// * * * * * * * * * * * * * * * * * * * * * * * * * * * * * * * * * * * * * //

dimensions      [1 -1 -2 0 0 0 0];

internalField   nonuniform List<scalar> 
725
(
-197.853
-241.587
-257.106
-338.226
-66.7539
-204.183
-241.33
-259.015
-329.276
-63.0565
-206.839
-241.483
-258.452
-319.402
-55.3397
-206.534
-242.299
-256.682
-309.634
-61.4073
-202.942
-243.908
-254.533
-296.206
12.2793
-526.382
-316.765
-1325.34
-911.127
-989.3
-928.127
-1022.18
-1086.35
-1125.63
-1147.8
-1162.78
-1172.69
-1179.09
-1182.84
-1184.84
-1185.36
-1184.41
-1182.59
-1176.08
-1171.48
-1191.12
-1253.98
-1200.67
-1203.2
-1201.81
-1203.02
-1203.33
-1176.84
-1237.64
-1249.72
-1235.9
-1237.67
-1231.86
-1226.82
-1224.34
-1228.32
-1220.05
-1229.7
-1214.6
-1264.08
-1223.83
-1389.35
-1343.68
-2681.01
222.255
-486.978
-540.354
-1269.18
-790.769
-1019.99
-904.132
-1024.23
-1090.19
-1129.42
-1150.92
-1165.15
-1174.34
-1180.18
-1183.67
-1185.56
-1186.07
-1185.16
-1183.01
-1176.78
-1170.31
-1188.57
-1311.83
-1201.82
-1202.87
-1201.86
-1202.59
-1207.36
-1284.84
-1250.05
-1265.2
-1237.03
-1236.13
-1229.33
-1223.67
-1220.5
-1229.25
-1225.01
-1234.3
-1218.15
-1264.01
-1214.31
-1336.71
-1226.61
-1505.61
-175.825
-394.582
-596.74
-1315.67
-792.488
-1039.64
-851.901
-1025.94
-1098.1
-1136.07
-1156.04
-1168.2
-1176.07
-1181.19
-1184.33
-1186.1
-1186.61
-1185.79
-1183.51
-1174.01
-1151.44
-1160.72
-1249.61
-1199.43
-1202.88
-1202.25
-1202.09
-1211.33
-1436.54
-1261.09
-1273.01
-1239.61
-1237.58
-1232.72
-1231.19
-1226.31
-1232.26
-1220.97
-1229.12
-1216.38
-1259.82
-1201.06
-1277.14
-1076.47
-487.465
-235.153
-270.252
-959.804
-1505.63
-727.769
-1116.46
-779.63
-1029.12
-1101.44
-1147.12
-1162.59
-1172.34
-1178.53
-1182.66
-1185.3
-1186.9
-1187.45
-1186.91
-1185.38
-1178.86
-1168.23
-1166.71
-956.841
-1190.05
-1203.17
-1203.24
-1201.82
-1214.2
-1473.4
-1265.43
-1271.76
-1238.89
-1237.04
-1234.41
-1232.28
-1227.41
-1226.56
-1219.96
-1222.68
-1214.46
-1254.35
-1194.54
-1252.69
-1030.17
-242.843
-201.995
131.787
-559.202
-760.928
-862.236
-1113.82
-726.687
-1041.15
-1128.79
-1160.55
-1171.61
-1177.33
-1181.64
-1184.48
-1186.51
-1187.93
-1188.5
-1188.41
-1187.36
-1177.69
-1162.29
-1142.87
-948.512
-1205.84
-1202.97
-1205.09
-1201.9
-1220.88
-1381.93
-1249.38
-1259.81
-1235.16
-1234.84
-1233.67
-1234.67
-1228.96
-1230.14
-1221.08
-1217.58
-1213.74
-1253.87
-1195.11
-1267.83
-1113.72
-754.434
-395.049
134.882
-377.668
-487.182
-860.723
-968.556
-687.606
-1105.15
-1148.15
-1171.32
-1177.64
-1180.93
-1183.66
-1185.68
-1187.33
-1188.67
-1189.26
-1189.53
-1189.59
-1177.85
-1157.87
-960.035
-1262.06
-1195.52
-1202.83
-1222.02
-1201.48
-1215.69
-1310.27
-1230.33
-1229.76
-1220.72
-1224.68
-1223.56
-1217.03
-1227.58
-1228.95
-1224.65
-1211.79
-1211.58
-1240.37
-1197.59
-1290.57
-1172.04
-1141.27
-249.655
151.649
-428.306
-486.872
-840.42
-849.45
-529.273
-1127.66
-1155.16
-1171.55
-1179.67
-1182.21
-1184.29
-1186.11
-1187.63
-1188.94
-1189.53
-1189.99
-1190.39
-1177.92
-1158.65
-1036.88
-915.032
-1150.26
-1202.37
-1201.14
-1201.28
-1210
-1284.72
-1222.97
-1227.49
-1219.04
-1220.99
-1221.77
-1219.34
-1224.76
-1230.99
-1225.46
-1163.5
-1211.76
-1242.75
-1199.36
-1303.88
-1194.47
-1301.53
-139.646
-2500.9
-293.236
-502.672
-627.027
-864.844
-276.728
-1140.59
-1161.74
-1180.14
-1182.02
-1183.53
-1185.15
-1186.48
-1187.93
-1189.21
-1189.79
-1190.47
-1191.2
-1179.28
-1162.2
-1072.81
-1115.97
-1241.75
-1200.36
-1204.32
-1200.69
-1202.21
-1259.26
-1215.47
-1223.26
-1218.39
-1220.14
-1222.4
-1221.66
-1225.48
-1231.45
-1226.49
-1247.17
-1211.33
-1246.32
-1197.07
-1234.84
-1217.45
-1444.17
-76.3814
-2166.32
-313.446
-502.088
-574.397
-1075.49
-257.278
-1142.22
-1169.88
-1184.14
-1184.37
-1184.86
-1185.98
-1186.87
-1187.99
-1189.05
-1189.75
-1190.74
-1191.92
-1180.97
-1166.92
-998.01
-1118.27
-926.027
-1198.73
-1196.96
-1200.29
-1192.74
-1234.22
-1207.85
-1219.07
-1216.89
-1219.45
-1221.99
-1221.55
-1226.07
-1230.91
-1155.7
-1244.43
-1216.27
-1246.57
-1198.07
-1346.33
-1239.79
-1571.27
-31.2166
-1780.33
-317.556
-497.783
-535.47
-973.132
-189.963
-1162.15
-1179.91
-1188.45
-1186.75
-1186.19
-1186.74
-1187.49
-1188.49
-1189.3
-1189.49
-1191.13
-1192.7
-1182.97
-1172.08
-1117.4
-1275.82
-1225.5
-1199.07
-1193.69
-1199.99
-1186.38
-1209.41
-1200.45
-1214.92
-1215.38
-1218.62
-1221.58
-1221.56
-1226.06
-1236.01
-1214.65
-1241.47
-1217.76
-1249.64
-1199.8
-1350.38
-1262.75
-1686.87
-7.07895
269.56
235.142
208.976
229.698
220.116
265.869
237.319
210.138
236.269
218.086
265.333
238.327
210.721
229.841
188.265
267.715
238.28
211.129
225.575
180.245
273.798
237.618
211.589
225.123
182.428
-718.05
-486.791
-495.213
-528.781
-780.196
-1267.67
-1249.1
-1213.99
-1201.71
-1193.35
-1189.88
-1188.81
-1188.77
-1189.48
-1190.93
-1193.17
-1194.48
-1196.62
-1190.4
-1188.13
-1174.88
-1115.07
-1195.16
-1200.04
-1195.81
-1199.58
-1172.3
-1150.04
-1181.19
-1204.14
-1211.24
-1216.47
-1220.23
-1221.5
-1224.64
-1223.85
-1216.84
-1233.62
-1217
-1257.16
-1215.66
-1364.81
-1332.91
-2032.46
74.5934
-27.7918
-409.345
-508.127
-542.145
-644.007
-1230.38
-1341.91
-1264.83
-1223.17
-1203.85
-1195.74
-1192.14
-1190.76
-1190.85
-1192.11
-1194.5
-1197.28
-1202.23
-1202.38
-1214.64
-1167.94
-1101.81
-1197.32
-1198.26
-1197.7
-1199.48
-1146.48
-1110.06
-1158.98
-1190.43
-1204.77
-1213.18
-1218.53
-1221.65
-1222.31
-1221.16
-1228.58
-1233.67
-1225.91
-1255.23
-1211
-1365.31
-1345.73
-2259.26
144.611
31.2199
-375.382
-515.219
-547.242
-597.593
-953.601
-1423.1
-1307.37
-1240.19
-1212.76
-1200.69
-1194.86
-1192.3
-1191.91
-1193.09
-1195.73
-1199.77
-1207.34
-1214.72
-1241.14
-1243.37
-1285.64
-1201.07
-1198.28
-1198.84
-1198.72
-1165.6
-1098.94
-1143.06
-1180.01
-1199.86
-1211.03
-1217.88
-1223.05
-1226.76
-1227.54
-1229.01
-1234.43
-1228.67
-1251.75
-1198.24
-1313.52
-1217.22
-1557.98
-24.1867
92.9659
-352.329
-518.497
-543.822
-584.219
-774.153
-1410.58
-1304.91
-1247.64
-1218.74
-1204.12
-1196.69
-1193.34
-1192.62
-1193.75
-1196.62
-1201.61
-1211.35
-1225.15
-1271.85
-1348.71
-1479.83
-1200.41
-1197.97
-1199.05
-1197.47
-1191.76
-1095.05
-1135.11
-1174.11
-1195.05
-1207.14
-1214.73
-1220.36
-1223.15
-1223.74
-1229.24
-1234.34
-1227.35
-1244.25
-1177.15
-1229.91
-1011.37
-502.594
-209.91
103.638
-320.004
-519.321
-539.998
-577.25
-698.333
-1418.8
-1314.07
-1253.55
-1222.34
-1205.74
-1197.22
-1193.38
-1192.4
-1193.56
-1196.72
-1202.27
-1213.16
-1229.99
-1282.51
-1395.74
-1426.65
-1201.35
-1198.16
-1199.19
-1197.23
-1179.12
-1032.57
-1128.87
-1171.71
-1194.28
-1207.5
-1216.11
-1222.65
-1226.23
-1226.81
-1227.61
-1230.1
-1224.7
-1241.95
-1164.98
-1193.07
-928.976
-168.842
-70.9558
)
;

boundaryField
{
    AirInlet
    {
        type            calculated;
        value           nonuniform List<scalar> 5(134.881 152.011 -2532.08 -2527.36 -2434.99);
    }
    WaterInlet
    {
        type            calculated;
        value           nonuniform List<scalar> 10(-197.851 -204.177 -206.829 -206.52 -202.924 269.542 265.855 265.323 267.709 273.795);
    }
    ChannelWall
    {
        type            calculated;
        value           nonuniform List<scalar> 
110
(
-202.968
-243.938
-254.567
-296.244
12.2374
269.586
235.172
209.01
229.736
220.157
273.771
237.588
211.554
225.085
182.385
103.598
-320.021
-519.322
-539.999
-577.25
-698.341
-1418.84
-1314.11
-1253.59
-1222.38
-1205.79
-1197.27
-1193.43
-1192.44
-1193.61
-1196.77
-1202.31
-1213.2
-1230.04
-1282.55
-1395.79
-1426.67
-1201.35
-1198.16
-1199.19
-1197.23
-1179.13
-1032.61
-1128.92
-1171.75
-1194.32
-1207.54
-1216.15
-1222.7
-1226.27
-1226.86
-1227.65
-1230.14
-1224.75
-1241.99
-1165.03
-1193.11
-929.02
-168.885
-70.9689
-197.827
-241.556
-257.071
-338.188
-66.7117
-526.338
-316.721
-1325.31
-911.102
-989.256
-928.083
-1022.13
-1086.31
-1125.58
-1147.75
-1162.73
-1172.65
-1179.04
-1182.8
-1184.79
-1185.32
-1184.37
-1182.55
-1176.03
-1171.44
-1191.08
-1253.95
-1200.67
-1203.2
-1201.81
-1203.02
-1203.33
-1176.81
-1237.6
-1249.67
-1235.85
-1237.63
-1231.82
-1226.78
-1224.29
-1228.28
-1220
-1229.65
-1214.55
-1264.04
-1223.79
-1389.31
-1343.63
-2680.97
222.257
)
;
    }
    Outlet
    {
        type            calculated;
        value           nonuniform List<scalar> 
15
(
-0.00153451
-0.0158729
-0.0360773
-0.0202412
-0.604319
-0.0717128
-0.0127844
-0.0145121
-0.0364036
-0.01616
-0.0292377
-0.0270362
-0.0585343
-0.130104
-0.0102208
)
;
    }
    FrontAndBack
    {
        type            empty;
    }
}


// ************************************************************************* //
