/*--------------------------------*- C++ -*----------------------------------*\
| =========                 |                                                 |
| \\      /  F ield         | OpenFOAM: The Open Source CFD Toolbox           |
|  \\    /   O peration     | Version:  2.3.0                                 |
|   \\  /    A nd           | Web:      www.OpenFOAM.org                      |
|    \\/     M anipulation  |                                                 |
\*---------------------------------------------------------------------------*/
FoamFile
{
    version     2.0;
    format      ascii;
    class       volScalarField;
    location    "0.096";
    object      p_rgh;
}
// * * * * * * * * * * * * * * * * * * * * * * * * * * * * * * * * * * * * * //

dimensions      [1 -1 -2 0 0 0 0];

internalField   nonuniform List<scalar> 
725
(
-197.827
-241.556
-257.071
-338.188
-66.7117
-204.104
-241.239
-258.912
-329.161
-62.9299
-206.707
-241.331
-258.281
-319.211
-55.1286
-206.348
-242.086
-256.441
-309.365
-61.1118
-202.704
-243.634
-254.223
-295.861
12.6593
-526.338
-316.721
-1325.31
-911.102
-989.256
-928.083
-1022.13
-1086.31
-1125.58
-1147.75
-1162.73
-1172.65
-1179.04
-1182.8
-1184.79
-1185.32
-1184.37
-1182.55
-1176.03
-1171.44
-1191.08
-1253.95
-1200.67
-1203.2
-1201.81
-1203.02
-1203.33
-1176.81
-1237.6
-1249.67
-1235.85
-1237.63
-1231.82
-1226.78
-1224.29
-1228.28
-1220
-1229.65
-1214.55
-1264.04
-1223.79
-1389.31
-1343.63
-2680.97
222.257
-486.845
-540.228
-1269.11
-790.702
-1019.87
-904
-1024.1
-1090.05
-1129.29
-1150.79
-1165.02
-1174.21
-1180.05
-1183.54
-1185.43
-1185.94
-1185.02
-1182.88
-1176.65
-1170.18
-1188.44
-1311.74
-1201.81
-1202.87
-1201.86
-1202.59
-1207.36
-1284.74
-1249.92
-1265.06
-1236.89
-1236
-1229.2
-1223.54
-1220.37
-1229.11
-1224.88
-1234.17
-1218.02
-1263.88
-1214.18
-1336.57
-1226.48
-1505.49
-175.809
-394.362
-596.528
-1315.54
-792.376
-1039.43
-851.68
-1025.72
-1097.88
-1135.85
-1155.82
-1167.97
-1175.85
-1180.97
-1184.11
-1185.88
-1186.39
-1185.57
-1183.29
-1173.79
-1151.22
-1160.5
-1249.47
-1199.43
-1202.88
-1202.25
-1202.09
-1211.31
-1436.37
-1260.87
-1272.79
-1239.39
-1237.36
-1232.5
-1230.97
-1226.09
-1232.04
-1220.75
-1228.9
-1216.16
-1259.6
-1200.83
-1276.91
-1076.25
-487.248
-235.091
-269.943
-959.7
-1505.5
-727.619
-1116.21
-779.321
-1028.81
-1101.13
-1146.81
-1162.28
-1172.03
-1178.22
-1182.35
-1184.99
-1186.59
-1187.14
-1186.6
-1185.07
-1178.55
-1167.92
-1166.41
-956.63
-1190.04
-1203.17
-1203.24
-1201.82
-1214.18
-1473.16
-1265.12
-1271.45
-1238.59
-1236.73
-1234.1
-1231.97
-1227.1
-1226.25
-1219.65
-1222.37
-1214.15
-1254.04
-1194.23
-1252.38
-1029.86
-242.538
-201.904
131.932
-559.199
-760.899
-862.085
-1113.58
-726.294
-1040.75
-1128.4
-1160.15
-1171.21
-1176.93
-1181.24
-1184.08
-1186.11
-1187.53
-1188.1
-1188.01
-1186.97
-1177.3
-1161.89
-1142.49
-948.274
-1205.82
-1202.96
-1205.09
-1201.9
-1220.84
-1381.6
-1248.98
-1259.41
-1234.77
-1234.45
-1233.27
-1234.28
-1228.57
-1229.75
-1220.68
-1217.19
-1213.34
-1253.48
-1194.71
-1267.44
-1113.32
-754.042
-394.93
134.882
-377.666
-487.176
-860.6
-968.31
-687.186
-1104.7
-1147.7
-1170.87
-1177.19
-1180.47
-1183.21
-1185.23
-1186.88
-1188.22
-1188.81
-1189.08
-1189.14
-1177.4
-1157.42
-959.587
-1261.77
-1195.5
-1202.83
-1222.02
-1201.48
-1215.63
-1309.9
-1229.88
-1229.31
-1220.27
-1224.23
-1223.11
-1216.58
-1227.13
-1228.5
-1224.2
-1211.34
-1211.13
-1239.92
-1197.14
-1290.12
-1171.59
-1140.85
-249.574
151.65
-428.303
-486.867
-840.359
-849.226
-528.849
-1127.19
-1154.69
-1171.08
-1179.2
-1181.74
-1183.82
-1185.64
-1187.16
-1188.47
-1189.06
-1189.52
-1189.92
-1177.45
-1158.18
-1036.41
-914.746
-1150.23
-1202.37
-1201.14
-1201.27
-1209.94
-1284.32
-1222.5
-1227.02
-1218.57
-1220.52
-1221.3
-1218.87
-1224.29
-1230.52
-1224.99
-1163.03
-1211.29
-1242.28
-1198.89
-1303.41
-1194
-1301.09
-139.579
-2500.86
-293.224
-502.669
-627.006
-864.62
-276.295
-1140.09
-1161.25
-1179.65
-1181.53
-1183.04
-1184.66
-1185.99
-1187.44
-1188.72
-1189.3
-1189.98
-1190.71
-1178.79
-1161.71
-1072.33
-1115.65
-1241.73
-1200.35
-1204.32
-1200.68
-1202.14
-1258.85
-1214.98
-1222.77
-1217.9
-1219.65
-1221.91
-1221.17
-1224.99
-1230.96
-1226
-1246.68
-1210.84
-1245.83
-1196.58
-1234.35
-1216.96
-1443.71
-76.3215
-2166.18
-313.434
-502.085
-574.382
-1075.31
-256.823
-1141.71
-1169.37
-1183.63
-1183.86
-1184.35
-1185.47
-1186.36
-1187.48
-1188.54
-1189.24
-1190.23
-1191.41
-1180.46
-1166.41
-997.515
-1117.94
-926.026
-1198.73
-1196.96
-1200.29
-1192.67
-1233.79
-1207.34
-1218.56
-1216.38
-1218.94
-1221.48
-1221.04
-1225.56
-1230.4
-1155.19
-1243.92
-1215.76
-1246.07
-1197.56
-1345.82
-1239.28
-1570.81
-31.1649
-1780.11
-317.541
-497.78
-535.465
-973.02
-189.49
-1161.62
-1179.38
-1187.92
-1186.22
-1185.66
-1186.21
-1186.96
-1187.96
-1188.77
-1188.96
-1190.6
-1192.17
-1182.44
-1171.55
-1116.88
-1275.48
-1225.48
-1199.07
-1193.68
-1199.99
-1186.29
-1208.96
-1199.92
-1214.39
-1214.85
-1218.09
-1221.05
-1221.03
-1225.53
-1235.48
-1214.12
-1240.94
-1217.23
-1249.11
-1199.27
-1349.85
-1262.22
-1686.4
-7.03328
270.302
235.849
209.647
230.335
220.717
266.664
238.087
210.878
236.982
218.771
266.181
239.156
211.531
230.63
189.035
268.616
239.17
212.007
226.441
181.099
274.752
238.569
212.535
226.066
183.366
-717.56
-486.73
-495.209
-528.777
-780.149
-1267.22
-1248.52
-1213.4
-1201.13
-1192.77
-1189.29
-1188.23
-1188.18
-1188.89
-1190.35
-1192.59
-1193.9
-1196.04
-1189.82
-1187.55
-1174.31
-1114.75
-1195.14
-1200.04
-1195.81
-1199.58
-1172.19
-1149.54
-1180.61
-1203.55
-1210.66
-1215.89
-1219.65
-1220.91
-1224.06
-1223.27
-1216.26
-1233.04
-1216.42
-1256.57
-1215.07
-1364.22
-1332.33
-2031.96
74.6227
-27.2093
-409.178
-508.122
-542.141
-643.987
-1230.07
-1341.24
-1264.15
-1222.49
-1203.18
-1195.07
-1191.47
-1190.09
-1190.18
-1191.44
-1193.83
-1196.61
-1201.56
-1201.71
-1213.97
-1167.27
-1101.4
-1197.3
-1198.26
-1197.7
-1199.48
-1146.34
-1109.47
-1158.31
-1189.76
-1204.1
-1212.51
-1217.86
-1220.98
-1221.64
-1220.49
-1227.91
-1233
-1225.24
-1254.56
-1210.33
-1364.64
-1345.05
-2258.71
144.638
31.9076
-375.141
-515.214
-547.237
-597.588
-953.375
-1422.35
-1306.61
-1239.43
-1212
-1199.93
-1194.1
-1191.54
-1191.15
-1192.33
-1194.97
-1199.01
-1206.58
-1213.96
-1240.38
-1242.61
-1285.29
-1201.07
-1198.28
-1198.84
-1198.72
-1165.44
-1098.25
-1142.3
-1179.25
-1199.1
-1210.27
-1217.12
-1222.29
-1226
-1226.78
-1228.25
-1233.67
-1227.91
-1250.99
-1197.48
-1312.76
-1216.46
-1557.31
-24.1281
93.7504
-352.011
-518.491
-543.816
-584.214
-773.964
-1409.77
-1304.06
-1246.79
-1217.89
-1203.27
-1195.84
-1192.49
-1191.78
-1192.9
-1195.77
-1200.76
-1210.5
-1224.3
-1271
-1347.86
-1479.45
-1200.41
-1197.97
-1199.05
-1197.47
-1191.58
-1094.27
-1134.27
-1173.27
-1194.2
-1206.29
-1213.88
-1219.51
-1222.3
-1222.89
-1228.39
-1233.49
-1226.51
-1243.41
-1176.31
-1229.06
-1010.52
-501.774
-209.714
104.499
-319.625
-519.315
-539.993
-577.244
-698.174
-1417.9
-1313.13
-1252.61
-1221.4
-1204.81
-1196.29
-1192.45
-1191.46
-1192.63
-1195.79
-1201.33
-1212.22
-1229.05
-1281.57
-1394.81
-1426.28
-1201.35
-1198.16
-1199.19
-1197.23
-1178.92
-1031.68
-1127.94
-1170.77
-1193.34
-1206.56
-1215.17
-1221.72
-1225.29
-1225.88
-1226.67
-1229.16
-1223.77
-1241.01
-1164.05
-1192.13
-928.039
-167.919
-70.6776
)
;

boundaryField
{
    AirInlet
    {
        type            fixedFluxPressure;
        gradient        nonuniform List<scalar> 5(-34.0241 36167.2 -3.12203e+06 -3.61177e+07 -6.54873e+07);
        value           nonuniform List<scalar> 5(134.882 152.011 -2532.08 -2527.36 -2434.98);
    }
    WaterInlet
    {
        type            fixedFluxPressure;
        gradient        nonuniform List<scalar> 10(-0.014932 -3.11455 0.00959559 -1.52057 -3.56081 -0.0260684 -0.640401 -0.428333 -1.05533 -2.07582);
        value           nonuniform List<scalar> 10(-197.827 -204.104 -206.707 -206.348 -202.704 270.302 266.664 266.181 268.616 274.752);
    }
    ChannelWall
    {
        type            fixedFluxPressure;
        gradient        uniform 0;
        value           nonuniform List<scalar> 
110
(
-202.704
-243.634
-254.223
-295.861
12.6593
270.302
235.849
209.647
230.335
220.717
274.752
238.569
212.535
226.066
183.366
104.499
-319.625
-519.315
-539.993
-577.244
-698.174
-1417.9
-1313.13
-1252.61
-1221.4
-1204.81
-1196.29
-1192.45
-1191.46
-1192.63
-1195.79
-1201.33
-1212.22
-1229.05
-1281.57
-1394.81
-1426.28
-1201.35
-1198.16
-1199.19
-1197.23
-1178.92
-1031.68
-1127.94
-1170.77
-1193.34
-1206.56
-1215.17
-1221.72
-1225.29
-1225.88
-1226.67
-1229.16
-1223.77
-1241.01
-1164.05
-1192.13
-928.039
-167.919
-70.6776
-197.827
-241.556
-257.071
-338.188
-66.7117
-526.338
-316.721
-1325.31
-911.102
-989.256
-928.083
-1022.13
-1086.31
-1125.58
-1147.75
-1162.73
-1172.65
-1179.04
-1182.8
-1184.79
-1185.32
-1184.37
-1182.55
-1176.03
-1171.44
-1191.08
-1253.95
-1200.67
-1203.2
-1201.81
-1203.02
-1203.33
-1176.81
-1237.6
-1249.67
-1235.85
-1237.63
-1231.82
-1226.78
-1224.29
-1228.28
-1220
-1229.65
-1214.55
-1264.04
-1223.79
-1389.31
-1343.63
-2680.97
222.257
)
;
    }
    Outlet
    {
        type            totalPressure;
        rho             rho;
        psi             none;
        gamma           1;
        p0              uniform 0;
        value           nonuniform List<scalar> 
15
(
0
0
-0.0358565
-0.0199322
-0.485442
-0.0712616
-0.0123135
-0.0140216
-0.0358935
-0.0156303
0
0
0
-0.129255
-0.00928399
)
;
    }
    FrontAndBack
    {
        type            empty;
    }
}


// ************************************************************************* //
