/*--------------------------------*- C++ -*----------------------------------*\
| =========                 |                                                 |
| \\      /  F ield         | OpenFOAM: The Open Source CFD Toolbox           |
|  \\    /   O peration     | Version:  2.3.0                                 |
|   \\  /    A nd           | Web:      www.OpenFOAM.org                      |
|    \\/     M anipulation  |                                                 |
\*---------------------------------------------------------------------------*/
FoamFile
{
    version     2.0;
    format      ascii;
    class       surfaceScalarField;
    location    "0.096";
    object      phi;
}
// * * * * * * * * * * * * * * * * * * * * * * * * * * * * * * * * * * * * * //

dimensions      [0 3 -1 0 0 0 0];

internalField   nonuniform List<scalar> 
1380
(
3.09912e-13
1.90088e-13
2.70745e-13
3.91671e-14
2.19689e-13
5.1056e-14
1.18529e-13
1.0116e-13
1.4928e-13
-3.07509e-14
5.99079e-13
9.1009e-14
6.08757e-13
2.94886e-14
5.72771e-13
8.7042e-14
3.60997e-13
3.12934e-13
5.76193e-13
-6.59153e-14
6.84786e-13
-9.3777e-14
7.23232e-13
-8.95702e-15
7.02753e-13
1.07521e-13
5.02394e-13
5.13293e-13
1.28198e-12
-2.03389e-13
5.98761e-13
-1.92538e-13
6.12097e-13
-2.22923e-14
6.45673e-13
7.39445e-14
7.56331e-13
4.02635e-13
9.22468e-13
1.11584e-12
3.07462e-13
2.8517e-13
3.59114e-13
7.61749e-13
1.68422e-12
-8.26855e-13
7.96104e-13
8.65261e-13
-1.69212e-12
9.38531e-14
7.71408e-13
-1.03703e-12
1.13088e-12
-1.68873e-13
-8.68156e-13
4.22208e-13
-5.91081e-13
1.58284e-13
2.63924e-13
4.14332e-14
1.16851e-13
3.22839e-14
9.14941e-15
1.11767e-13
-7.94836e-14
1.66299e-13
-5.45312e-14
1.75629e-13
-9.32975e-15
1.66364e-13
9.26436e-15
1.54766e-13
1.1598e-14
1.42038e-13
1.27288e-14
1.28475e-13
1.35625e-14
1.10202e-13
1.82725e-14
8.52405e-14
2.49619e-14
9.84553e-14
-1.32148e-14
3.16341e-13
-2.17886e-13
8.25429e-13
-5.09088e-13
-4.73478e-13
1.29891e-12
-6.00484e-13
1.27006e-13
-8.42069e-13
2.41588e-13
1.01829e-12
-1.86036e-12
2.26275e-12
-1.24446e-12
1.61485e-12
6.47897e-13
2.50362e-13
1.36449e-12
-2.74402e-15
2.53106e-13
1.31727e-14
-1.59169e-14
3.98595e-14
-2.66866e-14
6.20066e-14
-2.21471e-14
7.26544e-14
-1.06478e-14
1.24531e-13
-5.1877e-14
1.28556e-13
-4.02458e-15
9.16703e-14
3.68855e-14
9.55599e-14
-3.88968e-15
1.0702e-13
-1.14596e-14
2.18474e-13
-1.11454e-13
2.13184e-13
5.28914e-15
2.13125e-13
5.98639e-17
2.86037e-13
-7.29125e-14
2.79533e-13
6.50467e-15
3.61398e-12
-3.33445e-12
-3.3296e-12
-1.47265e-12
2.20284e-12
4.43415e-13
-3.60819e-12
6.21944e-13
5.92879e-13
-4.53154e-13
2.20598e-12
-3.69157e-13
-9.52154e-13
1.55455e-13
-1.11569e-12
-4.52507e-14
4.64629e-13
-1.40375e-13
2.11974e-13
-3.39876e-14
-9.72372e-14
1.9352e-13
-3.06991e-13
3.48516e-13
-2.09527e-13
4.03184e-13
-6.39977e-14
4.07027e-13
5.42219e-15
3.96556e-13
2.20687e-14
3.8084e-13
2.8444e-14
3.63751e-13
3.06517e-14
3.42404e-13
3.96199e-14
3.11079e-13
5.62862e-14
3.39112e-13
-4.1248e-14
5.00507e-13
-3.7928e-13
9.94567e-13
-1.00315e-12
1.8628e-12
4.30678e-13
1.07242e-12
9.17386e-13
-7.58574e-13
2.07257e-12
6.72197e-13
-3.29113e-12
7.12573e-13
-1.28483e-12
3.04474e-13
1.05599e-12
1.13899e-13
1.55506e-12
1.01573e-13
2.65433e-13
1.82488e-13
-9.68323e-14
2.48077e-13
-9.22753e-14
2.79969e-13
-5.40397e-14
3.10799e-13
-4.14769e-14
4.0657e-13
-1.47648e-13
4.52219e-13
-4.96742e-14
3.53754e-13
1.35351e-13
2.78931e-13
7.09328e-14
2.68326e-13
-8.54885e-16
4.67331e-13
-3.10458e-13
4.9336e-13
-2.07397e-14
4.45201e-13
4.8219e-14
6.31655e-13
-2.59366e-13
9.51204e-13
-3.13045e-13
7.16792e-13
-3.10003e-12
-3.09786e-12
-1.58673e-12
3.58618e-12
-6.14957e-13
-4.57996e-12
-9.05741e-13
8.83663e-13
-1.14534e-12
2.44558e-12
-1.61523e-12
-4.82267e-13
-4.01263e-13
-2.32966e-12
-6.95118e-14
1.32878e-13
-1.18743e-13
2.61207e-13
5.2523e-14
-2.68503e-13
3.12577e-13
-5.67045e-13
4.95818e-13
-3.92768e-13
5.70161e-13
-1.38341e-13
5.84255e-13
-8.67128e-15
5.78419e-13
2.79046e-14
5.63639e-13
4.32244e-14
5.46282e-13
4.80079e-14
5.22975e-13
6.29267e-14
4.73527e-13
1.05734e-13
4.36054e-13
-3.77514e-15
8.48474e-14
-2.80732e-14
-1.02005e-13
-8.16296e-13
1.97353e-12
-1.64485e-12
1.09754e-12
1.79337e-12
-7.96084e-13
3.9662e-12
-1.01416e-12
-3.07305e-12
-3.02703e-12
7.28048e-13
-1.53162e-12
-4.3942e-13
4.45641e-14
-2.11186e-14
2.78246e-13
3.17507e-14
3.60084e-13
-1.7867e-13
4.3677e-13
-1.68962e-13
4.71345e-13
-8.86145e-14
4.94349e-13
-6.44806e-14
4.85416e-13
-1.38715e-13
5.13528e-13
-7.77868e-14
4.92381e-13
1.56499e-13
4.30388e-13
1.32926e-13
4.11105e-13
1.84283e-14
6.48813e-13
-5.48166e-13
6.73334e-13
-4.52607e-14
6.13965e-13
1.07587e-13
6.7379e-13
-3.19191e-13
8.61413e-13
-5.00668e-13
-1.10057e-12
-1.13805e-12
-1.78765e-12
1.20318e-12
3.49884e-12
3.25043e-12
-6.6272e-12
5.71885e-13
3.5622e-12
-1.2655e-12
4.28296e-12
-1.8566e-12
1.0884e-13
-2.69987e-13
-3.91627e-12
2.33392e-13
-3.70501e-13
1.61661e-13
3.32938e-13
3.08065e-13
-4.14908e-13
5.02199e-13
-7.61178e-13
6.37096e-13
-5.27665e-13
6.95946e-13
-1.9719e-13
7.08507e-13
-2.12328e-14
7.05082e-13
3.13304e-14
6.9161e-13
5.66959e-14
6.75842e-13
6.37759e-14
6.5488e-13
8.3889e-14
6.04221e-13
1.56393e-13
5.48725e-13
5.17213e-14
1.60217e-13
3.60435e-13
2.02485e-13
-8.58564e-13
2.64497e-12
-4.08734e-12
-2.40638e-13
4.67898e-12
-1.4574e-12
5.18297e-12
-1.12223e-12
-3.40823e-12
-3.5783e-12
3.18411e-12
-1.43791e-12
-2.57981e-12
2.12894e-13
-1.67192e-12
4.80178e-13
-2.35533e-13
5.03036e-13
-2.01528e-13
5.86528e-13
-2.52453e-13
6.20856e-13
-1.22942e-13
6.44235e-13
-8.78599e-14
5.67767e-13
-6.2247e-14
5.55802e-13
-6.58218e-14
6.40544e-13
7.17564e-14
5.31377e-13
2.42093e-13
5.2254e-13
2.72654e-14
7.62329e-13
-7.87955e-13
7.74114e-13
-5.70456e-14
6.72872e-13
2.08828e-13
5.43585e-13
-1.89904e-13
4.06004e-13
-3.63087e-13
-8.53589e-13
1.21546e-13
-8.41839e-13
2.0421e-11
-1.52379e-11
4.47135e-12
9.32241e-12
-3.90176e-12
1.19353e-11
4.39184e-13
-5.79868e-14
6.25404e-13
-7.73797e-14
1.27306e-12
-4.56392e-12
9.44957e-13
-4.23998e-14
7.10865e-13
5.6703e-13
7.04645e-13
-4.08688e-13
7.35948e-13
-7.92481e-13
7.67821e-13
-5.59538e-13
7.81746e-13
-2.11114e-13
7.83358e-13
-2.28454e-14
7.79056e-13
3.5633e-14
7.66924e-13
6.8828e-14
7.55574e-13
7.51252e-14
7.39303e-13
1.0016e-13
6.80655e-13
2.15041e-13
4.98778e-13
2.33598e-13
7.14966e-14
7.87716e-13
-8.52109e-13
6.50416e-14
2.76776e-12
-7.70721e-12
1.20982e-12
6.23692e-12
-1.02756e-12
7.42035e-12
1.61416e-12
-6.04996e-12
9.40385e-13
3.85789e-12
-9.13842e-14
-1.54804e-12
4.79603e-13
-2.24291e-12
6.0779e-13
-3.6372e-13
6.00529e-13
-1.94267e-13
6.81817e-13
-3.33741e-13
7.11817e-13
-1.52943e-13
7.36173e-13
-1.12215e-13
7.40207e-13
-6.62817e-14
8.00125e-13
-1.2574e-13
7.05952e-13
1.6593e-13
5.60316e-13
3.87729e-13
6.34171e-13
-4.65901e-14
8.17604e-13
-9.71388e-13
7.8187e-13
-2.1312e-14
6.39315e-13
3.51384e-13
5.65696e-13
-1.16284e-13
6.8645e-13
-4.83841e-13
-2.38439e-14
8.3184e-13
-3.48906e-13
4.28092e-12
-1.93188e-11
-4.22124e-16
1.36038e-11
-1.16658e-12
1.31015e-11
-1.45353e-13
-1.07921e-12
7.03467e-14
-2.93079e-13
4.05414e-13
-4.89899e-12
3.09901e-13
5.31135e-14
2.39881e-13
6.3705e-13
2.12631e-13
-3.81438e-13
1.91675e-13
-7.71525e-13
1.82499e-13
-5.50363e-13
1.79191e-13
-2.07806e-13
1.77417e-13
-2.10722e-14
1.75795e-13
3.72553e-14
1.73665e-13
7.09584e-14
1.72585e-13
7.62044e-14
1.6877e-13
1.03975e-13
1.67813e-13
2.15998e-13
1.05179e-13
2.96232e-13
5.2699e-14
8.40197e-13
-3.10135e-13
4.27875e-13
6.52774e-13
-8.67012e-12
-6.99641e-13
7.58933e-12
-3.5585e-13
7.07656e-12
3.71783e-13
-6.77759e-12
3.95092e-13
3.83458e-12
8.11058e-14
-1.23406e-12
1.02229e-13
-2.26403e-12
1.24137e-13
-3.85627e-13
1.48799e-13
-2.18929e-13
1.57985e-13
-3.42926e-13
1.677e-13
-1.62659e-13
1.76631e-13
-1.21146e-13
1.95403e-13
-8.50538e-14
1.81108e-13
-1.11444e-13
1.36534e-13
2.10504e-13
1.21594e-13
4.02668e-13
1.68426e-13
-9.34216e-14
1.71727e-13
-9.7469e-13
1.49486e-13
9.2899e-16
9.66539e-14
4.04216e-13
8.68019e-14
-1.06432e-13
-1.2799e-14
-3.8424e-13
-6.0583e-13
1.42487e-12
-2.01854e-13
1.15477e-12
-2.02736e-11
6.62674e-13
1.40959e-11
3.27187e-13
1.3437e-11
-3.17593e-13
-4.34431e-13
-2.44757e-13
-3.65916e-13
3.4142e-13
-5.48517e-12
3.37174e-13
5.7359e-14
2.66112e-13
7.08112e-13
2.30417e-13
-3.45743e-13
2.00853e-13
-7.41961e-13
1.86452e-13
-5.35962e-13
1.80655e-13
-2.02008e-13
1.78044e-13
-1.84609e-14
1.76244e-13
3.90546e-14
1.74286e-13
7.2917e-14
1.73718e-13
7.67724e-14
1.70355e-13
1.07338e-13
1.7273e-13
2.13623e-13
1.11026e-13
3.57936e-13
1.10786e-13
8.40437e-13
-2.96251e-13
8.34912e-13
7.87561e-15
-8.97425e-12
-1.82114e-12
9.41835e-12
5.0478e-13
4.75064e-12
-2.69005e-14
-6.24591e-12
4.66512e-13
3.34117e-12
1.29748e-13
-8.97291e-13
1.03719e-13
-2.238e-12
1.23274e-13
-4.05182e-13
1.5577e-13
-2.51425e-13
1.62304e-13
-3.4946e-13
1.70088e-13
-1.70443e-13
1.7926e-13
-1.30318e-13
2.00935e-13
-1.06729e-13
1.8359e-13
-9.40977e-14
1.31891e-13
2.62203e-13
1.21682e-13
4.12877e-13
1.7914e-13
-1.50879e-13
1.70175e-13
-9.65726e-13
1.4751e-13
2.35946e-14
8.13168e-14
4.70409e-13
7.51024e-14
-1.00218e-13
-3.79146e-14
-2.71223e-13
-4.61844e-13
1.8488e-12
-3.56375e-13
-5.90386e-12
-1.41697e-11
-1.02661e-12
9.21861e-12
8.7499e-13
1.15354e-11
-3.65557e-13
8.06117e-13
-5.25289e-13
-2.06183e-13
3.35477e-13
-6.34593e-12
3.70129e-13
2.27069e-14
2.88169e-13
7.90071e-13
2.4488e-13
-3.02453e-13
2.08876e-13
-7.05957e-13
1.89312e-13
-5.16398e-13
1.81411e-13
-1.94108e-13
1.7813e-13
-1.51799e-14
1.76157e-13
4.1028e-14
1.74409e-13
7.46645e-14
1.74344e-13
7.68379e-14
1.71641e-13
1.10041e-13
1.76643e-13
2.08621e-13
1.2781e-13
4.06769e-13
1.91589e-13
7.76658e-13
-3.67118e-13
1.39362e-12
-1.58555e-12
-7.75582e-12
-9.67909e-14
7.92959e-12
7.85812e-13
3.86804e-12
7.07959e-13
-6.16805e-12
4.45992e-13
3.60314e-12
1.5973e-13
-6.11029e-13
1.13143e-13
-2.19142e-12
1.26694e-13
-4.18733e-13
1.61671e-13
-2.86402e-13
1.66257e-13
-3.54046e-13
1.72262e-13
-1.76449e-13
1.79984e-13
-1.38039e-13
2.01361e-13
-1.28107e-13
1.80457e-13
-7.31931e-14
1.27253e-13
3.15407e-13
1.37708e-13
4.02422e-13
1.86758e-13
-1.99929e-13
1.52545e-13
-9.31514e-13
1.43933e-13
3.22071e-14
6.48001e-14
5.49541e-13
6.51689e-14
-1.00587e-13
-2.98371e-14
-1.76218e-13
-5.82097e-13
2.40106e-12
-6.08651e-13
-7.09279e-12
-6.87695e-12
-1.50505e-12
3.63086e-12
-4.72158e-13
1.05025e-11
-1.1319e-12
1.46586e-12
1.69623e-13
-1.50771e-12
5.77201e-13
-6.75351e-12
3.99889e-13
2.00018e-13
3.0398e-13
8.85981e-13
2.5725e-13
-2.55724e-13
2.15441e-13
-6.64148e-13
1.91286e-13
-4.92242e-13
1.81569e-13
-1.8439e-13
1.77663e-13
-1.12739e-14
1.7549e-13
4.32004e-14
1.74038e-13
7.61164e-14
1.74439e-13
7.64376e-14
1.72501e-13
1.11979e-13
1.78716e-13
2.02405e-13
1.43764e-13
4.41722e-13
2.42816e-13
6.77605e-13
-2.89215e-13
1.92565e-12
-1.15442e-12
-6.89061e-12
2.77122e-12
4.00395e-12
1.50337e-12
5.13589e-12
7.88645e-13
-5.45333e-12
4.92439e-13
3.89935e-12
2.03837e-13
-3.22427e-13
1.25396e-13
-2.11298e-12
1.3091e-13
-4.24247e-13
1.66976e-13
-3.22468e-13
1.69828e-13
-3.56897e-13
1.73635e-13
-1.80256e-13
1.79963e-13
-1.44367e-13
1.98422e-13
-1.46566e-13
1.74366e-13
-4.91372e-14
1.19199e-13
3.70573e-13
1.49825e-13
3.71796e-13
1.81555e-13
-2.31658e-13
1.61229e-13
-9.11188e-13
1.42884e-13
5.05527e-14
6.98016e-14
6.22624e-13
8.25542e-14
-1.1334e-13
-1.33579e-14
-8.03056e-14
-5.87489e-13
2.97519e-12
-6.70273e-13
-4.23046e-12
-2.4465e-12
4.6937e-13
-1.06896e-12
5.78926e-13
1.03929e-11
-6.49572e-14
2.10974e-12
7.2492e-13
-2.29759e-12
6.69035e-13
-6.69763e-12
4.07332e-13
4.61721e-13
3.15944e-13
9.77369e-13
2.67291e-13
-2.0707e-13
2.20599e-13
-6.17456e-13
1.92469e-13
-4.64112e-13
1.80755e-13
-1.72677e-13
1.76536e-13
-7.05511e-15
1.74576e-13
4.51609e-14
1.73612e-13
7.70804e-14
1.7445e-13
7.55996e-14
1.73178e-13
1.13251e-13
1.79766e-13
1.95817e-13
1.56055e-13
4.65433e-13
2.47144e-13
5.86516e-13
-7.85771e-14
2.25137e-12
-1.26016e-13
-6.84318e-12
1.41682e-12
2.46111e-12
1.86641e-12
4.6863e-12
8.22051e-13
-4.40897e-12
4.03883e-13
4.31752e-12
2.27626e-13
-1.4617e-13
1.29958e-13
-2.01531e-12
1.34432e-13
-4.2872e-13
1.71783e-13
-3.5982e-13
1.72803e-13
-3.57917e-13
1.74666e-13
-1.82119e-13
1.7881e-13
-1.48511e-13
1.93327e-13
-1.61083e-13
1.76172e-13
-3.19822e-14
1.31202e-13
4.15543e-13
1.7136e-13
3.31638e-13
1.9129e-13
-2.51588e-13
1.602e-13
-8.80099e-13
1.42213e-13
6.85399e-14
1.01916e-13
6.6292e-13
1.01408e-13
-1.12831e-13
1.36723e-14
7.42966e-15
-5.78401e-13
3.56727e-12
-9.0101e-13
2.97118e-13
2.02882e-13
2.47332e-13
4.97866e-14
2.21034e-13
2.62982e-14
1.68652e-13
5.23812e-14
1.69199e-13
-5.47232e-16
5.92448e-13
1.10434e-13
5.64525e-13
7.77104e-14
5.0024e-13
9.05828e-14
4.5272e-14
5.07349e-13
9.9861e-13
-7.84139e-13
6.86088e-13
-7.56543e-14
7.10939e-13
5.28591e-14
6.59381e-13
1.4214e-13
3.62201e-13
8.04529e-13
1.15796e-12
2.02855e-13
6.07707e-13
-1.83361e-13
6.50238e-13
1.0328e-14
7.12273e-13
8.01062e-14
9.94151e-13
5.2265e-13
6.34466e-13
1.51764e-12
3.16639e-13
3.26967e-13
4.07073e-13
9.29723e-13
1.56419e-12
-3.55601e-12
1.10897e-12
5.78731e-12
-1.04123e-11
6.11176e-13
1.55691e-11
-1.4353e-11
1.70739e-11
7.94382e-14
-1.673e-11
1.35348e-12
-7.97167e-12
1.43862e-12
3.76583e-13
1.48006e-12
9.3592e-13
1.27736e-12
-4.36804e-15
1.03749e-12
-3.7759e-13
8.70744e-13
-2.97361e-13
7.96541e-13
-9.84742e-14
7.73576e-13
1.59101e-14
7.68935e-13
4.98023e-14
7.7535e-13
7.06654e-14
7.78395e-13
7.2554e-14
7.86849e-13
1.04797e-13
7.98366e-13
1.84299e-13
7.7366e-13
4.90139e-13
8.36567e-13
5.2361e-13
5.8858e-13
2.49936e-12
-2.89769e-12
-3.3569e-12
2.41889e-13
-6.78466e-13
5.07175e-12
-1.43561e-13
2.8996e-12
-2.23681e-12
1.65678e-12
5.56034e-12
8.49047e-13
6.61556e-13
5.22911e-13
-1.68917e-12
6.50968e-13
-5.56778e-13
8.15845e-13
-5.24696e-13
8.04133e-13
-3.46205e-13
7.93649e-13
-1.71635e-13
7.86567e-13
-1.41429e-13
8.06869e-13
-1.81385e-13
7.72955e-13
1.93144e-15
8.87904e-13
3.00595e-13
1.07821e-12
1.41335e-13
9.29744e-13
-1.03125e-13
6.99022e-13
-6.49377e-13
6.358e-13
1.31762e-13
6.70879e-13
6.27841e-13
6.18588e-13
-6.05398e-14
4.54551e-13
1.71467e-13
1.99259e-12
2.02923e-12
-2.02644e-12
-1.45334e-12
1.77816e-12
-2.32071e-12
-9.54492e-12
-5.05329e-12
1.83016e-11
-7.38279e-12
1.94034e-11
9.36552e-13
-2.50494e-11
1.26912e-13
-7.16203e-12
8.27551e-13
-3.24056e-13
1.253e-12
5.10466e-13
1.16771e-12
8.0926e-14
9.41489e-13
-1.51368e-13
7.72439e-13
-1.28311e-13
6.98748e-13
-2.47833e-14
6.81686e-13
3.29715e-14
6.85368e-13
4.612e-14
6.99917e-13
5.61165e-14
7.13203e-13
5.9268e-14
7.32822e-13
8.51786e-14
7.66335e-13
1.50786e-13
8.66998e-13
3.89477e-13
9.21656e-13
4.68952e-13
1.61094e-12
1.81007e-12
3.05254e-12
-4.7985e-12
4.36988e-12
-1.99581e-12
3.95582e-12
2.70494e-13
2.29669e-12
-5.77679e-13
3.52611e-12
4.33093e-12
9.27713e-13
3.25995e-12
5.13585e-13
-1.27504e-12
8.37264e-13
-8.80458e-13
8.69385e-13
-5.56817e-13
7.97259e-13
-2.74079e-13
7.61567e-13
-1.35943e-13
7.28557e-13
-1.0842e-13
7.08448e-13
-1.61276e-13
7.28685e-13
-1.8306e-14
8.39162e-13
1.90118e-13
9.04143e-13
7.63542e-14
8.30983e-13
-2.99658e-14
6.24669e-13
-4.43062e-13
6.18929e-13
1.37502e-13
7.69644e-13
4.77126e-13
6.87193e-13
2.19108e-14
5.58412e-13
3.00248e-13
5.64883e-12
-3.06119e-12
-3.41398e-12
1.44905e-12
5.31967e-13
-4.97596e-12
-3.1199e-12
-2.51361e-12
1.58393e-11
2.25296e-12
1.46368e-11
-1.01978e-12
-2.17766e-11
-6.29892e-13
-7.55192e-12
2.25204e-13
-1.17915e-12
8.06086e-13
-7.04159e-14
8.38722e-13
4.82898e-14
6.97776e-13
-1.04227e-14
5.82247e-13
-1.27812e-14
5.38842e-13
1.86213e-14
5.3768e-13
3.41327e-14
5.50212e-13
3.35878e-14
5.69842e-13
3.64873e-14
5.89873e-13
3.92362e-14
6.18672e-13
5.63799e-14
6.6891e-13
1.00548e-13
8.05619e-13
2.52769e-13
9.15676e-13
3.58894e-13
1.55576e-12
1.16999e-12
6.58306e-13
-3.90105e-12
5.083e-13
-1.8458e-12
2.5512e-13
5.23675e-13
1.13683e-12
-1.45939e-12
3.98282e-12
1.48495e-12
1.74811e-12
5.49465e-12
1.01436e-12
-5.41294e-13
9.55267e-13
-8.21366e-13
8.21377e-13
-4.22927e-13
7.26257e-13
-1.78959e-13
6.82387e-13
-9.20736e-14
6.45325e-13
-7.13573e-14
5.90028e-13
-1.05979e-13
5.9234e-13
-2.06182e-14
6.89089e-13
9.33693e-14
7.38251e-13
2.71922e-14
7.0548e-13
2.80505e-15
4.98993e-13
-2.36575e-13
5.45364e-13
9.11312e-14
7.49178e-13
2.73312e-13
7.95128e-13
-2.40382e-14
9.51632e-13
1.43743e-13
1.74242e-12
-3.85198e-12
-2.87974e-12
2.26847e-12
-2.18864e-13
3.8957e-13
-1.241e-12
7.39357e-12
8.83529e-12
1.48008e-11
7.22959e-12
3.75979e-12
-1.07356e-11
1.03457e-12
-4.8267e-12
4.45829e-13
-5.90409e-13
4.24981e-13
-4.95683e-14
4.24035e-13
4.92349e-14
3.73612e-13
4.00008e-14
3.35817e-13
2.50132e-14
3.32646e-13
2.17924e-14
3.47576e-13
1.92022e-14
3.66123e-13
1.5041e-14
3.87467e-13
1.51438e-14
4.09795e-13
1.69074e-14
4.42115e-13
2.40601e-14
5.01698e-13
4.09657e-14
6.5778e-13
9.66875e-14
9.07968e-13
1.08705e-13
1.78553e-12
2.92423e-13
1.76337e-12
-3.87888e-12
-1.07854e-12
9.9612e-13
-1.42984e-12
8.74968e-13
-1.91225e-12
-9.76995e-13
-1.88611e-13
-2.38689e-13
1.76443e-12
3.54161e-12
1.33971e-12
-1.16576e-13
8.89575e-13
-3.71227e-13
6.5795e-13
-1.91303e-13
5.69361e-13
-9.03708e-14
5.26358e-13
-4.90702e-14
4.8719e-13
-3.21897e-14
4.24537e-13
-4.33254e-14
4.14888e-13
-1.0969e-14
4.92443e-13
1.58139e-14
5.01916e-13
1.77187e-14
4.93389e-13
1.13323e-14
3.34205e-13
-7.73905e-14
3.95703e-13
2.96324e-14
5.74811e-13
9.42042e-14
6.32868e-13
-8.2095e-14
7.17786e-13
5.88261e-14
-2.44761e-12
-6.86585e-13
-7.52434e-13
1.34532e-12
1.04327e-13
8.93962e-12
1.61692e-11
5.43362e-12
6.06914e-13
1.65053e-14
-3.3063e-14
1.61717e-14
5.61722e-14
8.11853e-14
1.02978e-13
1.2218e-13
1.37221e-13
1.52365e-13
1.69272e-13
1.93332e-13
2.34298e-13
3.30985e-13
4.39691e-13
7.32114e-13
-3.14677e-12
-2.15064e-12
-1.27568e-12
-2.25267e-12
-2.49137e-12
1.05024e-12
9.33664e-13
5.62437e-13
3.71134e-13
2.80763e-13
2.31693e-13
1.99503e-13
1.56177e-13
1.45208e-13
1.61022e-13
1.78741e-13
1.90074e-13
1.12683e-13
1.42315e-13
2.3652e-13
1.54425e-13
2.13251e-13
-4.73334e-13
)
;

boundaryField
{
    AirInlet
    {
        type            calculated;
        value           nonuniform List<scalar> 5(-2e-13 -2e-13 -2e-13 -2e-13 -2e-13);
    }
    WaterInlet
    {
        type            calculated;
        value           nonuniform List<scalar> 10(-5e-13 -5e-13 -5e-13 -5e-13 -5e-13 -5e-13 -5e-13 -5e-13 -5e-13 -5e-13);
    }
    ChannelWall
    {
        type            calculated;
        value           uniform 0;
    }
    Outlet
    {
        type            calculated;
        value           nonuniform List<scalar> 
15
(
6.94357e-12
4.85055e-13
-2.41078e-12
-1.7994e-12
-5.16777e-13
-7.52883e-13
-3.07325e-13
-3.29821e-13
-5.25867e-13
-3.47665e-13
3.11802e-12
7.03637e-12
1.20819e-12
-4.57492e-12
-1.22577e-12
)
;
    }
    FrontAndBack
    {
        type            empty;
        value           nonuniform 0();
    }
}


// ************************************************************************* //
