/*--------------------------------*- C++ -*----------------------------------*\
| =========                 |                                                 |
| \\      /  F ield         | OpenFOAM: The Open Source CFD Toolbox           |
|  \\    /   O peration     | Version:  2.3.0                                 |
|   \\  /    A nd           | Web:      www.OpenFOAM.org                      |
|    \\/     M anipulation  |                                                 |
\*---------------------------------------------------------------------------*/
FoamFile
{
    version     2.0;
    format      ascii;
    class       volVectorField;
    location    "0.096";
    object      U;
}
// * * * * * * * * * * * * * * * * * * * * * * * * * * * * * * * * * * * * * //

dimensions      [0 1 -1 0 0 0 0];

internalField   nonuniform List<vector> 
725
(
(0.0473877 0.00723905 -2.15913e-31)
(0.0516216 0.00195372 3.38321e-32)
(0.0316343 0.00151926 -1.3011e-32)
(0.010519 0.00179609 0)
(0.038146 0.00328509 -1.79185e-31)
(0.0910364 0.0146843 -9.27573e-31)
(0.106383 0.00860861 1.3466e-31)
(0.0773289 0.00789534 8.09178e-32)
(0.0583966 0.0126761 0)
(0.0638956 0.0155641 -1.15091e-30)
(0.103702 0.0103129 -1.89428e-31)
(0.123514 0.0128457 2.86401e-32)
(0.0947279 0.0145157 6.30722e-31)
(0.0754831 0.0291976 0)
(0.0864073 0.0585789 -2.01682e-31)
(0.0917999 0.00357404 1.25755e-30)
(0.105663 0.0137167 1.65642e-32)
(0.0814754 0.0169765 1.35644e-30)
(0.0732046 0.0370388 0)
(0.160146 0.0891202 -1.50708e-30)
(0.0475878 0.00182991 1.34591e-30)
(0.0509807 0.00882852 -9.23114e-32)
(0.0391657 0.00938179 4.24808e-31)
(0.0384413 0.0179216 4.4106e-31)
(0.191945 0.0663692 -2.11285e-30)
(-0.0634639 0.0159544 0)
(-0.0582753 -0.0384613 0)
(0.181389 0.0346654 0)
(-0.136882 0.0193771 0)
(-0.097826 -0.0335009 0)
(0.0614915 -0.0159422 0)
(0.0237236 0.00494986 0)
(0.0098478 0.00314405 0)
(-0.00014565 0.00153065 0)
(0.00793151 -0.000103143 0)
(0.0169976 -0.000131001 0)
(0.0198463 0.000265934 0)
(0.0193071 0.000329707 0)
(0.0179263 0.000259646 0)
(0.0164935 0.000259703 0)
(0.0150217 0.000279943 0)
(0.0133896 0.00039845 0)
(0.0101295 0.000696079 0)
(0.0100917 0.000204885 0)
(0.012039 -0.00353637 0)
(0.0605364 -0.0113307 0)
(0.10802 0.0445377 0)
(-0.158275 -0.0707577 0)
(-0.0623992 -0.00400836 0)
(-0.0292747 -0.0387424 0)
(0.285007 -0.02016 0)
(0.208449 0.0180476 0)
(0.0576875 0.0385941 0)
(-0.00474253 0.00651324 0)
(0.00544476 0.000198273 0)
(-0.00124244 -0.000425134 0)
(0.00835011 -0.000442696 0)
(0.00649634 -3.42423e-05 0)
(0.0103547 -0.000539316 0)
(0.0169896 0.000323491 0)
(0.00934608 0.000110963 0)
(0.0139235 -0.00117681 0)
(0.00375949 -0.0002709 0)
(0.0251046 -0.00196606 0)
(0.014031 0.000895553 0)
(0.046228 -0.00108146 0)
(-0.0136266 4.2362e-05 0)
(0.111169 0.00291526 0)
(-0.0841557 -0.0697529 0)
(0.843324 -0.0979726 0)
(-0.0946894 0.0645049 0)
(-0.155744 -0.14799 0)
(0.205663 0.0294133 0)
(-0.00849089 0.0918849 0)
(-0.101879 -0.0540734 0)
(0.0209218 -0.0404519 0)
(0.00397603 0.0225176 0)
(-0.0131832 0.00926584 0)
(-0.015863 -0.000654545 0)
(0.00955199 -0.00833774 0)
(0.0335287 -0.00566522 0)
(0.0437779 -0.0013085 0)
(0.0458005 0.00057757 0)
(0.0449094 0.000915185 0)
(0.0432392 0.00104245 0)
(0.0413684 0.0010977 0)
(0.0392867 0.00144256 0)
(0.0354388 0.00194247 0)
(0.0353246 -0.00188845 0)
(0.0407614 -0.0205786 0)
(0.0672324 -0.0440399 0)
(0.151848 0.0491871 0)
(0.208712 0.0699568 0)
(-0.0288992 0.0460502 0)
(-0.0428319 -0.138409 0)
(0.153223 -0.0889234 0)
(0.00633685 0.040797 0)
(0.0422591 0.0838832 0)
(-0.01044 0.0156162 0)
(0.027782 -0.00305558 0)
(0.0189238 -0.00275175 0)
(0.0313988 -0.00184767 0)
(0.0318853 -0.00120838 0)
(0.0388639 -0.00528042 0)
(0.0527047 -0.00085899 0)
(0.042605 0.00411102 0)
(0.040922 0.001008 0)
(0.0157482 -0.000715794 0)
(0.051772 -0.00970268 0)
(0.0382384 -0.000206081 0)
(0.0902691 0.0017032 0)
(-0.0133457 -0.00549855 0)
(0.18709 0.000753474 0)
(-0.0212211 -0.166189 0)
(0.0914355 -0.201339 0)
(-0.155603 0.166877 0)
(-0.142359 -0.17533 0)
(-0.0190886 0.04048 0)
(-0.117211 0.10295 0)
(-0.208365 -0.0302976 0)
(-0.109975 -0.0732771 0)
(0.00141073 0.0218149 0)
(-0.0148567 0.0122788 0)
(-0.00872209 -0.00913253 0)
(0.0211749 -0.0222522 0)
(0.0484101 -0.0151706 0)
(0.0615161 -0.00503504 0)
(0.0650965 -3.37025e-05 0)
(0.064961 0.00128146 0)
(0.0635534 0.00178909 0)
(0.0616931 0.00194785 0)
(0.0595616 0.00252534 0)
(0.0549258 0.00384314 0)
(0.0507154 -0.00110863 0)
(0.0523536 -0.00981774 0)
(-0.0404963 -0.0432578 0)
(0.0287719 -0.00164164 0)
(0.280945 0.0535699 0)
(-0.0534255 0.150873 0)
(-0.0282272 -0.161253 0)
(-0.29172 -0.0233686 0)
(-0.269755 0.0426871 0)
(0.0191955 0.0442177 0)
(-0.00161443 0.00831331 0)
(0.047934 -0.00781773 0)
(0.040075 -0.00665018 0)
(0.051481 -0.00353352 0)
(0.05415 -0.00277062 0)
(0.0536536 -0.00849221 0)
(0.0572777 -0.00445743 0)
(0.0536546 0.00886048 0)
(0.0597771 0.00536233 0)
(0.0298571 0.000539681 0)
(0.0706171 -0.0209564 0)
(0.0573598 -0.00156529 0)
(0.112972 0.0038473 0)
(-0.00293757 -0.0163068 0)
(0.163675 -0.0245493 0)
(0.0284465 -0.115778 0)
(-0.264953 -0.0641601 0)
(0.0522468 0.153718 0)
(0.1749 -0.347989 0)
(0.423789 0.0308711 0)
(-0.193714 0.177003 0)
(-0.209285 -0.0192242 0)
(-0.120644 -0.16168 0)
(0.0385957 -0.00680266 0)
(0.0154494 0.0147281 0)
(0.0241873 -0.0186725 0)
(0.0459477 -0.035154 0)
(0.0654555 -0.024157 0)
(0.0757479 -0.00886806 0)
(0.0787702 -0.000884373 0)
(0.0788721 0.00146995 0)
(0.0777235 0.00249167 0)
(0.0759922 0.00279242 0)
(0.074265 0.00364941 0)
(0.0696952 0.00624365 0)
(0.0680682 0.000264041 0)
(0.0596615 0.00487186 0)
(-0.0280503 -0.0479003 0)
(0.0729195 -0.118173 0)
(0.462945 0.152505 0)
(-0.445906 0.2104 0)
(0.0406095 -0.138048 0)
(-0.381946 0.103579 0)
(-0.26734 -0.0941017 0)
(0.0402839 -0.0452121 0)
(0.0236093 -0.00621065 0)
(0.0628442 -0.00965921 0)
(0.0568683 -0.01022 0)
(0.0678286 -0.00524576 0)
(0.0720149 -0.00384492 0)
(0.0667443 -0.00474082 0)
(0.0626555 -0.00226512 0)
(0.0647514 0.00521219 0)
(0.0735192 0.00856797 0)
(0.0409825 0.00095978 0)
(0.0834348 -0.0339447 0)
(0.0694207 -0.00262701 0)
(0.123877 0.00752064 0)
(-0.00167517 -0.0142937 0)
(0.122003 -0.0223598 0)
(-0.0185348 -0.0120977 0)
(-0.18029 -0.0802793 0)
(0.193819 0.253585 0)
(2.703 -0.035339 0)
(-0.778931 0.30851 0)
(-0.00178202 0.178729 0)
(0.051348 0.0335943 0)
(0.129155 -0.219854 0)
(0.128972 -0.0211729 0)
(0.0840786 0.0193843 0)
(0.0809143 -0.0230869 0)
(0.0799422 -0.0414006 0)
(0.0834405 -0.0287488 0)
(0.0865539 -0.0108773 0)
(0.0872136 -0.00132642 0)
(0.0869904 0.00160688 0)
(0.0859847 0.00315992 0)
(0.084525 0.00355506 0)
(0.0836133 0.00464072 0)
(0.0781855 0.0101235 0)
(0.0767773 0.00601079 0)
(0.039994 0.0365691 0)
(-0.0267891 -0.029089 0)
(-0.142516 -0.332546 0)
(0.635383 0.260767 0)
(-0.414667 0.355495 0)
(0.214865 -0.180862 0)
(0.191764 0.200711 0)
(-0.0845515 -0.119638 0)
(0.0799918 -0.0981583 0)
(0.0449283 -0.0151485 0)
(0.072801 -0.00856291 0)
(0.0683872 -0.0151094 0)
(0.0780014 -0.00672796 0)
(0.0812412 -0.00467959 0)
(0.080123 -0.00186549 0)
(0.089752 -0.00558867 0)
(0.0827667 0.00321162 0)
(0.0737316 0.0164895 0)
(0.0507673 0.00224168 0)
(0.0963962 -0.0466674 0)
(0.0703801 -0.00323614 0)
(0.123748 0.0120999 0)
(-0.00669568 -0.00721295 0)
(0.143374 -0.0251382 0)
(0.0209179 -0.00139259 0)
(-0.0538681 -0.0494933 0)
(0.319357 -0.957997 0)
(2.13032 0.620102 0)
(-1.1212 0.604529 0)
(-0.155641 -0.0360488 0)
(-0.037703 -0.011177 0)
(0.162126 -0.234172 0)
(0.190712 0.000665158 0)
(0.127329 0.0299478 0)
(0.114047 -0.0198653 0)
(0.099528 -0.0392069 0)
(0.0922867 -0.0278211 0)
(0.0901695 -0.0105056 0)
(0.0890513 -0.00110893 0)
(0.0883703 0.00181916 0)
(0.0873956 0.00349558 0)
(0.0862806 0.00378835 0)
(0.0863432 0.0051105 0)
(0.0816023 0.0108131 0)
(0.0867097 0.0132608 0)
(0.00851008 0.0415382 0)
(0.0471366 0.0103562 0)
(-0.317183 -0.420346 0)
(0.765876 0.328133 0)
(-1.0918 0.357149 0)
(0.341849 -0.327495 0)
(0.225793 0.191559 0)
(0.00398099 -0.0700794 0)
(0.0744941 -0.112965 0)
(0.0401362 -0.0186592 0)
(0.0760765 -0.0102092 0)
(0.0750761 -0.0169232 0)
(0.0819309 -0.00790717 0)
(0.0858294 -0.00582909 0)
(0.090985 -0.00375435 0)
(0.103633 -0.00599628 0)
(0.0767619 0.00928392 0)
(0.0603364 0.0198893 0)
(0.0626119 -0.00341567 0)
(0.106438 -0.0488189 0)
(0.0570737 -0.000513413 0)
(0.106908 0.0187237 0)
(-0.0261238 -0.00564956 0)
(0.124679 -0.0222384 0)
(-0.140212 0.052502 0)
(-0.394567 -0.0111922 0)
(-0.832116 -1.21669 0)
(1.08016 0.751498 0)
(0.179125 0.686952 0)
(-0.0871428 -0.049054 0)
(-0.223238 -0.0164372 0)
(0.0742697 -0.258409 0)
(0.196383 0.00366516 0)
(0.141517 0.0336725 0)
(0.125025 -0.0182709 0)
(0.105968 -0.0379374 0)
(0.0951236 -0.0272235 0)
(0.091211 -0.0102716 0)
(0.0894702 -0.000996844 0)
(0.088594 0.00190513 0)
(0.0876271 0.00360023 0)
(0.086674 0.0038316 0)
(0.0870639 0.00528748 0)
(0.0827086 0.010786 0)
(0.0902525 0.016424 0)
(0.0138092 0.0425223 0)
(0.110663 0.030433 0)
(-0.403947 -0.44915 0)
(0.291072 0.431555 0)
(-0.953961 0.315639 0)
(0.38934 -0.341113 0)
(0.0953632 0.180469 0)
(0.0392629 -0.0534296 0)
(0.0762444 -0.113013 0)
(0.0395148 -0.0197422 0)
(0.0782731 -0.01164 0)
(0.078357 -0.0173423 0)
(0.0834199 -0.0083393 0)
(0.0867674 -0.00629091 0)
(0.0931762 -0.00476534 0)
(0.107321 -0.00524834 0)
(0.0745414 0.011771 0)
(0.0570844 0.0205765 0)
(0.068799 -0.00611606 0)
(0.108967 -0.0486465 0)
(0.0549641 0.00060828 0)
(0.103093 0.0217774 0)
(-0.0341042 -0.00518954 0)
(0.120593 -0.0168129 0)
(-0.157765 0.080571 0)
(-0.197024 -0.0128165 0)
(-1.55164 -0.74399 0)
(-2.42099 0.543088 0)
(0.637754 0.662176 0)
(-0.108845 -0.000344853 0)
(-0.364371 -0.00972599 0)
(0.0447848 -0.296544 0)
(0.206192 0.00141283 0)
(0.153797 0.037461 0)
(0.134304 -0.0162747 0)
(0.111472 -0.0362782 0)
(0.0974484 -0.0263687 0)
(0.0918211 -0.00992945 0)
(0.0895925 -0.000848907 0)
(0.0885427 0.00200068 0)
(0.0875912 0.00369406 0)
(0.0868405 0.00384582 0)
(0.0875191 0.00544302 0)
(0.0835897 0.0105832 0)
(0.0932443 0.0192659 0)
(0.0318912 0.0407984 0)
(0.145881 0.0554051 0)
(-0.516767 -0.414153 0)
(-0.663102 0.487446 0)
(0.37259 0.218104 0)
(0.435991 -0.333434 0)
(0.307669 0.171605 0)
(0.0602997 -0.037137 0)
(0.0810643 -0.110959 0)
(0.0422536 -0.0206218 0)
(0.0809504 -0.0133897 0)
(0.0813254 -0.0176139 0)
(0.0847189 -0.00869177 0)
(0.0873376 -0.00672582 0)
(0.0934903 -0.00588227 0)
(0.107707 -0.00423004 0)
(0.0708191 0.0144862 0)
(0.0589587 0.0205623 0)
(0.0777774 -0.00887389 0)
(0.10574 -0.0475505 0)
(0.0494097 0.00142208 0)
(0.0982246 0.0255194 0)
(-0.0432059 -0.00503794 0)
(0.123652 -0.0112539 0)
(-0.170625 0.106903 0)
(-0.24519 -0.0237948 0)
(-0.984315 -0.416411 0)
(-3.94842 0.336915 0)
(0.937824 0.552415 0)
(-0.862519 0.0570155 0)
(-0.128189 -0.0257843 0)
(0.253608 -0.327116 0)
(0.268753 0.00391572 0)
(0.16365 0.041941 0)
(0.141593 -0.0139916 0)
(0.116135 -0.0343127 0)
(0.0992478 -0.0252712 0)
(0.0920661 -0.00948802 0)
(0.0894202 -0.000668565 0)
(0.0882085 0.00210628 0)
(0.087296 0.0037764 0)
(0.0867876 0.00383477 0)
(0.0877084 0.00556319 0)
(0.0840803 0.0102824 0)
(0.0951851 0.0213691 0)
(0.0496165 0.0364746 0)
(0.171799 0.083893 0)
(-0.450955 -0.366287 0)
(-0.181846 0.299073 0)
(1.80954 0.21811 0)
(0.467725 -0.293923 0)
(0.35077 0.187768 0)
(0.0832093 -0.0220878 0)
(0.088318 -0.107512 0)
(0.0461341 -0.021157 0)
(0.0836919 -0.0152053 0)
(0.08389 -0.0177912 0)
(0.0857784 -0.0089402 0)
(0.0877119 -0.00708515 0)
(0.0926902 -0.00690213 0)
(0.105226 -0.00306101 0)
(0.0655199 0.0173175 0)
(0.060622 0.019523 0)
(0.0829141 -0.0110336 0)
(0.104814 -0.0461818 0)
(0.0494597 0.00208801 0)
(0.099721 0.0294186 0)
(-0.0380032 -0.00538621 0)
(0.137382 -0.00624767 0)
(-0.163142 0.137129 0)
(-0.302187 -0.0332748 0)
(-0.567464 -0.199649 0)
(-2.46179 0.0409679 0)
(1.84036 0.51144 0)
(-0.494296 0.081808 0)
(0.189763 -0.0885256 0)
(0.335535 -0.336993 0)
(0.292739 0.015764 0)
(0.169687 0.0468259 0)
(0.147967 -0.0115715 0)
(0.120025 -0.0321118 0)
(0.100534 -0.0239657 0)
(0.0919015 -0.0089522 0)
(0.0888387 -0.000464272 0)
(0.0876357 0.00220958 0)
(0.0869397 0.0038348 0)
(0.0867363 0.00380651 0)
(0.0877541 0.00563698 0)
(0.0844822 0.00996073 0)
(0.0962313 0.0227826 0)
(0.0572073 0.0314929 0)
(0.186954 0.106257 0)
(-0.264108 -0.337287 0)
(-0.120239 0.131435 0)
(1.60809 0.23403 0)
(0.46285 -0.23481 0)
(0.318571 0.204244 0)
(0.0905778 -0.0106049 0)
(0.0906201 -0.103443 0)
(0.0485616 -0.0213436 0)
(0.0864196 -0.017015 0)
(0.0860914 -0.0178897 0)
(0.0866063 -0.00908264 0)
(0.0878515 -0.00734529 0)
(0.0914289 -0.00773758 0)
(0.102638 -0.00196325 0)
(0.0682703 0.0197578 0)
(0.0710447 0.0177294 0)
(0.0924331 -0.0122972 0)
(0.105349 -0.0448477 0)
(0.0472467 0.00295275 0)
(0.108469 0.0323576 0)
(-0.0240983 -0.00581612 0)
(0.149875 -0.00180761 0)
(-0.151406 0.165775 0)
(-0.242766 -0.0404307 0)
(0.0436283 -0.000724822 0)
(0.0534449 -0.00892989 6.39506e-32)
(0.0152303 -0.00235797 1.42006e-31)
(0.0542962 -0.0122284 7.51868e-31)
(-2.32441e-05 -0.00941757 0)
(0.0843187 -0.00182335 0)
(0.114926 -0.0125379 0)
(0.0454782 -0.00451599 0)
(0.104819 -0.00618636 2.26887e-32)
(-0.101481 0.0424202 0)
(0.0953457 -0.00860352 0)
(0.137325 -0.0100778 0)
(0.067307 -0.000292217 0)
(0.127311 0.0246031 -6.09704e-31)
(-0.0498508 0.0673563 0)
(0.0839248 -0.0136482 0)
(0.121031 -0.00558854 0)
(0.0667127 0.00329582 0)
(0.142249 0.0337997 1.39416e-31)
(0.0941666 0.0460274 0)
(0.0438211 -0.00723625 0)
(0.0599516 -0.000850534 0)
(0.0338146 0.000995106 0)
(0.0879721 0.0113925 2.91247e-32)
(0.135548 0.0127816 0)
(-0.0428591 0.128014 0)
(-0.411317 -0.385966 0)
(1.49087 0.443837 0)
(-1.91526 0.413873 0)
(-0.158184 -0.406354 0)
(0.12039 -0.368818 0)
(0.158178 0.0365014 0)
(0.171667 0.0537485 0)
(0.160521 -0.00502518 0)
(0.127089 -0.0255081 0)
(0.102166 -0.0197757 0)
(0.0904619 -0.00719071 0)
(0.0864436 0.000148274 0)
(0.0854292 0.00242846 0)
(0.0856476 0.00385304 0)
(0.0862973 0.00375025 0)
(0.0872365 0.00559447 0)
(0.085259 0.00917353 0)
(0.0968294 0.0247551 0)
(0.0653153 0.0195284 0)
(0.12974 0.133213 0)
(-0.0102353 -0.223207 0)
(-0.421673 0.0622167 0)
(0.527944 0.132231 0)
(0.343106 -0.138916 0)
(0.245297 0.24977 0)
(0.0742293 0.00357732 0)
(0.0744024 -0.0966568 0)
(0.0495393 -0.020882 0)
(0.0937915 -0.0217694 0)
(0.0910304 -0.0179108 0)
(0.0881543 -0.00916654 0)
(0.0875791 -0.00768352 0)
(0.0872822 -0.00936789 0)
(0.0911235 0.000402275 0)
(0.0860084 0.0219805 0)
(0.110828 0.0113191 0)
(0.115631 -0.0107814 0)
(0.10413 -0.0394656 0)
(0.0389537 0.00527805 0)
(0.12201 0.0360532 0)
(0.00111298 -0.00729368 0)
(0.175833 0.000617889 0)
(-0.106561 0.15081 0)
(0.415942 -0.0500376 0)
(-0.0966626 0.045875 0)
(-0.0983936 -0.593645 0)
(-0.198292 0.948822 0)
(-1.40328 0.891492 0)
(0.107505 -1.10246 0)
(0.0249498 -0.404244 0)
(0.0243574 0.00152642 0)
(0.136985 0.0389676 0)
(0.144227 0.00388036 0)
(0.116002 -0.0127292 0)
(0.0911555 -0.0104499 0)
(0.0793412 -0.00292387 0)
(0.0757945 0.00137181 0)
(0.0756059 0.00248568 0)
(0.0768048 0.00323826 0)
(0.0786002 0.00335666 0)
(0.0803086 0.00484958 0)
(0.0808852 0.00857685 0)
(0.0955828 0.0229042 0)
(0.0877222 0.0290126 0)
(0.131254 0.114543 0)
(0.204682 -0.186562 0)
(0.446547 -0.177952 0)
(0.574327 -0.0606737 0)
(0.192862 -0.0470025 0)
(0.449052 0.254658 0)
(0.123339 0.0817497 0)
(0.0417278 -0.0740426 0)
(0.0822664 -0.036781 0)
(0.103442 -0.0294736 0)
(0.0920122 -0.0159804 0)
(0.0860287 -0.00775856 0)
(0.083072 -0.00636813 0)
(0.0791403 -0.00892584 0)
(0.0783163 -0.00036438 0)
(0.0852282 0.0108266 0)
(0.100146 0.00429605 0)
(0.0981246 -0.00121283 0)
(0.095423 -0.026583 0)
(0.0305455 0.00744294 0)
(0.127392 0.0286165 0)
(0.0159888 -3.41911e-05 0)
(0.184323 0.0137501 0)
(-0.0948673 -0.0194588 0)
(0.96679 -0.129327 0)
(0.0939359 0.0684013 0)
(0.18858 -0.271021 0)
(-0.896746 0.96945 0)
(0.0766635 0.976401 0)
(0.0769796 -1.35363 0)
(-0.0614114 -0.368626 0)
(-0.0442109 -0.043891 0)
(0.0823669 0.00585113 0)
(0.0995828 0.00341868 0)
(0.0843917 -0.00303964 0)
(0.0678988 -0.00268801 0)
(0.0603847 0.000321462 0)
(0.0591096 0.00188593 0)
(0.060176 0.00207755 0)
(0.062099 0.00234529 0)
(0.0645268 0.00249587 0)
(0.0669184 0.0036071 0)
(0.0696842 0.00645427 0)
(0.0843381 0.0163649 0)
(0.0884455 0.0205017 0)
(0.129588 0.0711584 0)
(0.180017 -0.251814 0)
(0.0298366 -0.0682698 0)
(0.0862308 0.0414416 0)
(-0.0652949 -0.0309017 0)
(0.441379 0.169882 0)
(0.205371 0.243399 0)
(0.126659 -0.0469668 0)
(0.11465 -0.0491361 0)
(0.100712 -0.0258908 0)
(0.0847193 -0.0110348 0)
(0.0781728 -0.00558123 0)
(0.0744124 -0.00448984 0)
(0.0681959 -0.00686927 0)
(0.0630003 -0.00125945 0)
(0.0708648 0.0070235 0)
(0.0817558 0.00239943 0)
(0.0808958 -0.00120361 0)
(0.0812348 -0.0166713 0)
(0.0186075 0.00616469 0)
(0.121212 0.0190126 0)
(0.0176243 0.00334482 0)
(0.199118 0.0201081 0)
(-0.0235484 -0.206958 0)
(0.235769 -0.206354 0)
(0.266042 -0.0168666 0)
(0.184109 -0.0849044 0)
(-0.027396 0.67193 0)
(1.61793 0.669873 0)
(1.00159 -0.766332 0)
(0.167557 -0.340066 0)
(0.0585225 -0.0550525 0)
(0.0472815 -0.0089936 0)
(0.0490175 0.00212575 0)
(0.0433586 0.00209119 0)
(0.0375797 0.00139097 0)
(0.0360819 0.00153688 0)
(0.0374378 0.00152619 0)
(0.0395288 0.00126739 0)
(0.0417898 0.0012892 0)
(0.0443549 0.00140489 0)
(0.0470317 0.00199609 0)
(0.050784 0.00350365 0)
(0.0658656 0.00832058 0)
(0.0774857 0.0117254 0)
(0.146172 0.0325308 0)
(0.182448 -0.202427 0)
(0.101037 -0.0425233 0)
(-0.1893 0.038567 0)
(-0.242248 -0.0762555 0)
(-0.194257 0.0312933 0)
(0.206178 0.253393 0)
(0.167882 -0.0123999 0)
(0.120764 -0.0322574 0)
(0.0828509 -0.015761 0)
(0.0669111 -0.00684032 0)
(0.0609987 -0.00367855 0)
(0.0570127 -0.00262858 0)
(0.0504644 -0.00373292 0)
(0.0441654 -0.000894527 0)
(0.0503467 0.00202359 0)
(0.0568208 0.000832378 0)
(0.0550861 0.00118525 0)
(0.059421 -0.00721761 0)
(0.00521468 0.00327835 0)
(0.0978609 0.00876017 0)
(0.00456418 -0.00231797 0)
(0.147958 0.00785353 0)
(-0.0110538 -0.100746 0)
(-0.515706 -0.0500166 0)
(0.215472 -0.00231522 0)
(0.0384067 -0.0158766 0)
(0.0594488 0.212632 0)
(1.73856 0.13937 0)
(1.35994 -0.295 0)
(0.130657 -0.142168 0)
(0.013393 -0.0100406 0)
(-0.00622207 0.0022118 0)
(-0.0015426 0.00219145 0)
(0.00405357 0.00169008 0)
(0.00735537 0.00101791 0)
(0.0100167 0.000631732 0)
(0.0124555 0.000433363 0)
(0.0143999 0.000290847 0)
(0.0160706 0.000279884 0)
(0.017893 0.000328964 0)
(0.019996 0.000472113 0)
(0.0226061 0.000668709 0)
(0.0330419 0.00174703 0)
(0.0395346 0.000561276 0)
(0.0623881 -1.40162e-05 0)
(0.0605696 -0.110576 0)
(-0.468854 0.0853792 0)
(-0.192596 0.0215536 0)
(-0.197907 -0.0256054 0)
(-0.455702 -0.0701917 0)
(0.117187 0.100751 0)
(0.115464 0.00582766 0)
(0.0802028 -0.00717053 0)
(0.048469 -0.00412126 0)
(0.0354996 -0.00217501 0)
(0.0283565 -0.00116101 0)
(0.0242006 -0.000602543 0)
(0.0196576 -0.000787569 0)
(0.0156896 -0.000250978 0)
(0.0169849 -0.000194538 0)
(0.0192788 0.000632721 0)
(0.0199624 0.000191057 0)
(0.0257737 -0.000772223 0)
(-0.00678838 -0.000113381 0)
(0.0475435 0.0018532 0)
(-0.0116873 -0.00564609 0)
(0.0452976 -0.00167811 0)
(0.0186781 0.0189753 0)
(-0.134839 -0.0180728 0)
)
;

boundaryField
{
    AirInlet
    {
        type            fixedValue;
        value           uniform (0.1 0 0);
    }
    WaterInlet
    {
        type            fixedValue;
        value           uniform (0.1 0 0);
    }
    ChannelWall
    {
        type            fixedValue;
        value           uniform (0 0 0);
    }
    Outlet
    {
        type            pressureInletOutletVelocity;
        value           nonuniform List<vector> 
15
(
(0.843324 -0.0979726 0)
(0.0914355 -0.201339 0)
(-0.267864 -0 0)
(-0.199934 -0 0)
(-0.0574197 -0 0)
(-0.376441 -0 0)
(-0.153662 -0 0)
(-0.16491 -0 0)
(-0.262933 -0 0)
(-0.173832 -0 0)
(0.415942 -0.0500376 0)
(0.96679 -0.129327 0)
(0.235769 -0.206354 0)
(-0.508324 -0 0)
(-0.136196 -0 0)
)
;
    }
    FrontAndBack
    {
        type            empty;
    }
}


// ************************************************************************* //
