/*--------------------------------*- C++ -*----------------------------------*\
| =========                 |                                                 |
| \\      /  F ield         | OpenFOAM: The Open Source CFD Toolbox           |
|  \\    /   O peration     | Version:  2.3.0                                 |
|   \\  /    A nd           | Web:      www.OpenFOAM.org                      |
|    \\/     M anipulation  |                                                 |
\*---------------------------------------------------------------------------*/
FoamFile
{
    version     2.0;
    format      ascii;
    class       volScalarField;
    location    "2.75";
    object      alpha.water;
}
// * * * * * * * * * * * * * * * * * * * * * * * * * * * * * * * * * * * * * //

dimensions      [0 0 0 0 0 0 0];

internalField   nonuniform List<scalar> 
2268
(
1
0.999999
1
1
1
0.999999
0.999999
0.999999
1
1
0.999999
0.999998
0.999998
0.999998
0.999998
0.999843
0.99309
0.980772
0.986608
0.998318
0.998324
0.996366
0.995409
0.999999
1
1
1
0.999999
0.999997
0.999998
0.999999
0.999999
0.999998
0.999998
0.999997
0.999997
0.999998
0.999997
0.996891
0.980461
0.98046
0.980461
0.987994
0.995782
0.999223
0.997285
1
1
1
1
0.999999
0.999997
0.999999
0.999999
0.999997
0.999997
0.999997
0.999999
0.999999
1
0.999999
0.997782
0.985115
0.980461
0.98046
0.980539
0.983013
0.999252
0.999974
1
1
1
1
0.999999
0.999999
1
0.999998
0.999997
0.999999
1
1
0.999999
1
1
0.999999
0.998556
0.989514
0.986474
0.993214
0.999831
0.999411
0.999989
1
1
1
1
0.999999
1
1
1
0.999999
1
1
1
1
1
0.999997
0.999995
1
1
1
1
1
0.999999
0.999992
1
1
1
1
1
1
1
0.999999
0.999999
0.999999
1
1
1
0.999999
0.999998
0.999999
1
1
1
1
1
0.999998
0.999994
1
1
0.999999
0.999999
1
1
1
0.999999
0.999999
0.999999
0.999999
1
1
1
0.999999
0.999999
0.999999
0.999999
1
0.999999
0.999999
0.999997
0.999993
1
0.999999
0.999999
0.999999
1
1
0.999999
0.999999
0.999999
1
1
1
1
0.999999
0.999998
0.999997
0.999997
0.999996
0.999997
0.999998
0.999999
0.999997
0.999997
0.946919
0.949576
0.968512
0.981672
0.980694
0.981939
0.98731
0.968785
0.930921
0.930921
0.968617
0.993725
0.993728
0.987823
0.969876
0.971062
0.982537
0.98082
0.976579
0.947162
0.995888
0.99797
0.99797
0.997966
0.997963
0.997944
0.997915
0.956367
0.948821
0.990549
0.993728
0.993724
0.993718
0.990843
0.994256
0.994254
0.994261
0.990214
0.947186
0.994208
0.998026
0.997998
0.99797
0.997949
0.997921
0.997824
0.997736
0.961823
0.992478
0.993726
0.992813
0.944845
0.976026
0.991413
0.99425
0.99424
0.994225
0.947214
0.98513
0.998123
0.998023
0.996885
0.995911
0.997335
0.997752
0.997734
0.941766
0.96262
0.974524
0.910641
0.899962
0.902331
0.975241
0.994236
0.994222
0.994137
0.947252
0.985659
0.998215
0.998216
0.998216
0.992528
0.996449
0.99773
0.969206
0.916166
0.909391
0.907058
0.899836
0.899841
0.899809
0.955402
0.994247
0.994197
0.993622
0.96432
0.994792
0.998216
0.998216
0.998216
0.993266
0.990465
0.997645
0.947202
0.917757
0.923967
0.972081
0.899821
0.899786
0.899733
0.934761
0.994035
0.994175
0.993638
0.998094
0.998111
0.998211
0.998216
0.998216
0.99821
0.967169
0.995393
0.98758
0.925538
0.969571
0.994447
0.917744
0.899743
0.899664
0.93936
0.994153
0.994189
0.994116
0.997997
0.998129
0.99821
0.998211
0.998219
0.996496
0.912832
0.995296
0.995158
0.991123
0.994447
0.994447
0.992768
0.918394
0.8995
0.968513
0.993841
0.994174
0.994104
1
1
1
1
1
1
1
1
1
1
1
0.999999
0.999998
0.999992
0.999981
0.999964
0.999946
0.999935
0.999945
0.999974
0.999998
0.999997
0.99889
1
1
1
1
1
1
1
1
1
0.999988
0.999987
0.999965
0.999898
0.998321
0.99148
0.97629
0.951833
0.919298
0.879202
0.83912
0.812444
0.797213
0.776531
0.912394
0.882659
0.85403
0.831138
0.80909
0.786842
0.769086
0.757732
0.743487
0.720487
0.69133
0.65255
0.603441
0.540086
0.452502
0.365016
0.288353
0.229305
0.190513
0.17017
0.153181
0.125056
0.0862485
0.250955
0.211599
0.17476
0.147603
0.122154
0.104729
0.0909995
0.0745595
0.0576553
0.0481605
0.0373986
0.0270097
0.0153631
0.00273214
0.00266916
0.00261562
0.00258161
0.00256291
0.00258161
0.00262023
0.00443484
0.0060812
0.00425942
0.00921916
0.00565858
0.00311387
0.00316092
0.00948403
0.0135161
0.0147213
0.0154767
0.0173164
0.01756
0.0179616
0.0151812
0.00766932
0.00280008
0.00270522
0.00260784
0.00256291
0.0025553
0.00256291
0.00373442
0.0109306
0.0123931
0.0106486
0.0102172
0.0055837
0.0021535
0.00170926
0.0136536
0.0204455
0.0204455
0.0204682
0.0204455
0.0203352
0.020134
0.0142752
0.0033977
0.00288844
0.00386557
0.0059345
0.00448642
0.00255658
0.0025927
0.0112583
0.0124887
0.0124887
0.0121249
0.00963861
0.0055274
0.00171714
0.000750732
0.00534485
0.0154746
0.0204644
0.0179334
0.0106726
0.00949824
0.00866674
0.00456257
0.00372727
0.00477868
0.00764166
0.00764211
0.00763967
0.0038226
0.00214721
0.00660914
0.00985033
0.00405755
6.53484e-07
0.00338671
0.0031237
0.00210447
0.000332188
0.0010611
0.0017536
0.000451472
8.23161e-05
8.08454e-05
7.79115e-05
7.74479e-05
0.0003195
0.00510948
0.00707367
0.00752562
0.00761675
0.0065858
0.00395844
0.000645727
0.000808337
5.58354e-07
5.49297e-07
5.31415e-07
0.000213701
0.000229424
0.000711847
0.000248694
0.000345717
0.00128172
0.00144899
8.15802e-05
7.79187e-05
7.73738e-05
7.74557e-05
7.74366e-05
7.81313e-05
8.53991e-05
0.000313401
0.000335835
3.76029e-06
1.54605e-06
8.76129e-05
1.04173e-06
5.66264e-07
5.31415e-07
5.31414e-07
9.78057e-05
4.43909e-05
4.23036e-05
0.000191671
0.00145361
0.00197035
0.00196867
0.000996147
0.000177171
0.00010127
7.74622e-05
7.77921e-05
8.0093e-05
9.22527e-05
3.99321e-05
3.76029e-06
1.54605e-06
1.14889e-06
3.44532e-06
2.69252e-05
3.43043e-05
1.88184e-06
5.09537e-07
4.67332e-05
1.89013e-05
1.29412e-05
9.92064e-05
0.00138174
0.00197133
0.00195716
0.00184772
0.00120289
0.000307519
8.94941e-05
9.88877e-05
0.000197408
0.000394109
0.000393939
0.000306289
3.33308e-05
2.98267e-07
2.48299e-06
4.80879e-05
5.78019e-05
4.10289e-05
4.31909e-07
1.91144e-05
8.18857e-06
4.62533e-06
6.38719e-05
0.000695374
0.000880018
8.40473e-05
2.16308e-09
2.63509e-08
0.00047131
0.000576997
0.000565413
2.86025e-05
0.0001958
0.000394137
0.000385979
0.000177025
3.56259e-08
1.25523e-06
4.41902e-05
5.78019e-05
5.78019e-05
2.32995e-05
7.27635e-06
3.70862e-06
1.82586e-06
2.50925e-05
0.000100796
4.95859e-06
1.5193e-09
3.09114e-10
2.26079e-10
-2.04362e-08
8.36994e-06
1.666e-10
2.12013e-05
1.98094e-06
4.85311e-05
5.56007e-05
2.13429e-10
6.77514e-10
5.50356e-09
5.12915e-06
4.84362e-05
5.65629e-05
4.17161e-05
2.50136e-06
1.66344e-06
6.58151e-07
1.02433e-06
6.72494e-07
7.88391e-07
5.52113e-08
2.2608e-10
2.03447e-10
1.74207e-10
1.66169e-10
1.62822e-10
1.62719e-10
1.62789e-10
1.62788e-10
1.62969e-10
1.68067e-10
2.14528e-10
-1.39628e-10
2.60133e-10
5.61758e-10
2.27637e-05
3.41611e-05
7.60681e-07
5.80588e-07
1.57341e-07
1.17128e-07
1.37274e-07
3.77717e-07
1.11827e-07
9.92635e-09
2.01055e-09
1.3384e-09
4.85005e-10
3.33937e-10
1.66467e-10
1.63521e-10
1.63382e-10
1.67806e-10
3.63738e-10
4.51379e-10
2.67401e-10
1.98998e-10
2.70994e-10
1.31994e-09
2.02725e-08
2.02375e-07
1.53984e-07
5.98678e-08
2.6985e-08
2.34818e-08
7.09398e-08
6.27368e-08
1.81109e-08
2.57323e-09
1.16441e-09
6.707e-10
4.57893e-10
3.01113e-10
2.1353e-10
1.78976e-10
2.08468e-10
3.72305e-10
5.4126e-10
3.1517e-10
1.55694e-10
1.09409e-09
1.60444e-08
2.84524e-08
5.4222e-08
4.48882e-08
1.97905e-08
8.01338e-09
5.26154e-09
3.43337e-09
6.0655e-09
6.30063e-09
3.0856e-09
1.23551e-09
7.0615e-10
4.64954e-10
3.23951e-10
2.49407e-10
1.94275e-10
1.60686e-10
1.42991e-10
1.35737e-10
1.19889e-10
1.02632e-10
4.69499e-10
9.82602e-08
1.75666e-07
2.08855e-08
1.42696e-08
7.09655e-09
3.26569e-09
2.22927e-09
1.76255e-09
1.67019e-09
1.79635e-09
1.71874e-09
1.21218e-09
7.50921e-10
5.10747e-10
3.23715e-10
2.62626e-10
2.1004e-10
1.71758e-10
1.43439e-10
1.23393e-10
1.10513e-10
9.79455e-11
1.01955e-10
1.7848e-08
1.25674e-07
1.23015e-08
6.32741e-09
3.64726e-09
1.93662e-09
1.59416e-09
1.63418e-09
1.63803e-09
1.64687e-09
1.55658e-09
1.23958e-09
8.28246e-10
5.47082e-10
3.19417e-10
2.61184e-10
2.13378e-10
1.76135e-10
1.45705e-10
1.22782e-10
1.07473e-10
9.18084e-11
1.01307e-10
6.85912e-11
6.86131e-11
1.53135e-08
6.25967e-09
1.9878e-09
1.55063e-09
1.47307e-09
1.525e-09
1.59638e-09
1.60404e-09
1.52232e-09
1.2451e-09
8.63819e-10
5.66452e-10
3.19774e-10
2.62206e-10
2.12961e-10
1.7295e-10
1.40431e-10
1.15852e-10
9.81743e-11
8.16265e-11
1.40702e-10
8.84672e-11
7.4736e-11
4.8255e-08
8.23586e-09
1.50781e-09
1.45051e-09
1.45151e-09
1.49067e-09
1.52799e-09
1.5186e-09
1.42728e-09
1.18022e-09
8.43985e-10
5.63148e-10
3.16702e-10
2.59139e-10
2.08391e-10
1.6594e-10
1.30845e-10
1.03512e-10
8.3097e-11
6.61362e-11
1.22001e-10
1.95478e-10
1.34105e-10
5.25598e-08
2.05025e-08
2.70474e-09
1.32054e-09
1.35337e-09
1.39482e-09
1.41059e-09
1.38554e-09
1.27972e-09
1.0606e-09
7.87556e-10
5.40431e-10
3.06631e-10
2.50548e-10
2.00054e-10
1.56724e-10
1.2022e-10
9.11552e-11
6.90451e-11
5.30579e-11
4.81962e-11
4.49016e-11
5.62184e-11
5.25605e-08
5.25606e-08
9.49619e-09
1.13283e-09
1.10884e-09
1.20775e-09
1.24609e-09
1.23044e-09
1.16812e-09
1.01382e-09
7.72285e-10
5.21314e-10
2.9101e-10
2.37942e-10
1.88678e-10
1.45346e-10
1.08452e-10
7.90077e-11
5.67475e-11
4.08191e-11
3.0432e-11
2.39597e-11
1.9355e-11
4.63824e-08
3.35817e-08
6.03911e-09
1.09189e-09
1.07563e-09
1.09322e-09
1.1176e-09
1.11894e-09
1.09659e-09
1.02472e-09
7.95291e-10
5.18796e-10
2.78259e-10
2.26374e-10
1.76838e-10
1.32842e-10
9.5815e-11
6.69522e-11
4.5794e-11
3.10168e-11
2.11165e-11
1.46351e-11
1.03197e-11
5.84513e-09
2.24071e-09
1.19402e-09
1.05372e-09
1.02126e-09
1.0132e-09
1.06734e-09
1.09407e-09
1.07982e-09
1.01402e-09
7.99214e-10
5.33538e-10
2.84639e-10
1.98922e-10
1.57073e-10
1.14865e-10
8.03828e-11
5.42248e-11
3.56046e-11
2.29853e-11
1.47267e-11
9.43221e-12
6.05597e-12
1.95222e-09
1.27058e-09
1.06639e-09
1.01818e-09
1.00552e-09
1.00463e-09
1.00717e-09
1.00818e-09
1.00607e-09
9.4109e-10
7.64693e-10
5.30369e-10
2.85895e-10
1.68397e-10
1.31895e-10
9.3669e-11
6.32564e-11
4.10609e-11
2.58718e-11
1.59711e-11
9.73365e-12
5.88793e-12
3.54497e-12
1.56315e-05
1.54021e-05
2.13518e-05
1.6494e-05
2.98277e-06
1.00712e-09
8.63429e-10
8.24301e-10
7.83562e-10
7.52007e-10
6.51251e-10
4.76261e-10
2.45304e-10
1.38852e-10
1.03322e-10
6.96461e-11
4.48112e-11
2.77504e-11
1.66773e-11
9.80574e-12
5.67796e-12
3.25281e-12
1.84877e-12
2.46966e-05
2.50844e-05
2.51259e-05
2.49929e-05
8.37228e-06
8.21235e-09
9.15246e-10
5.26383e-10
4.96171e-10
4.96623e-10
4.31069e-10
2.98969e-10
1.45506e-10
1.04282e-10
6.98522e-11
4.4537e-11
2.71245e-11
1.59003e-11
9.04369e-12
5.02689e-12
2.74633e-12
1.48092e-12
7.90496e-13
1.58367e-05
2.51123e-05
2.50844e-05
1.76687e-05
3.49221e-06
3.80051e-09
4.32229e-10
2.53713e-10
2.36357e-10
2.01617e-10
1.65173e-10
1.23901e-10
9.09665e-11
6.20258e-11
3.95723e-11
2.3731e-11
1.35727e-11
7.46402e-12
3.97737e-12
2.06728e-12
1.05361e-12
5.28739e-13
2.62123e-13
3.48427e-07
8.7321e-06
7.15211e-06
9.15021e-07
1.16591e-07
1.68633e-08
1.63561e-09
2.08324e-10
1.22175e-10
1.24188e-10
9.99602e-11
7.29554e-11
4.99865e-11
3.18856e-11
1.89037e-11
1.04723e-11
5.54009e-12
2.81747e-12
1.38666e-12
6.64281e-13
3.11226e-13
1.43187e-13
6.49291e-14
1.95327e-09
1.55463e-08
1.17031e-08
2.96281e-09
6.10052e-10
3.95438e-09
1.67901e-09
4.22451e-10
9.98374e-11
7.99052e-11
5.58725e-11
3.73918e-11
2.35238e-11
1.37639e-11
7.46202e-12
3.76163e-12
1.81434e-12
8.41056e-13
3.76693e-13
1.63793e-13
6.9431e-14
2.88032e-14
1.17508e-14
1.40903e-10
8.28463e-10
6.10821e-10
1.8356e-10
6.7905e-11
7.09003e-11
3.48227e-10
2.00347e-10
6.88941e-11
4.2755e-11
2.64506e-11
1.60359e-11
9.18094e-12
4.88024e-12
2.39027e-12
1.08254e-12
4.69702e-13
1.95746e-13
7.86444e-14
3.05777e-14
1.15463e-14
4.2526e-15
1.55031e-15
5.06013e-11
8.5366e-11
6.7003e-11
4.49003e-11
3.86709e-11
4.17035e-11
4.08088e-11
4.30097e-11
2.93868e-11
1.72918e-11
1.00578e-11
5.6107e-12
2.92343e-12
1.4015e-12
6.12457e-13
2.46287e-13
9.4856e-14
3.50562e-14
1.24602e-14
4.27137e-15
1.41714e-15
4.60865e-16
1.65184e-16
4.07953e-11
3.80389e-11
3.22639e-11
3.21135e-11
3.61972e-11
2.6639e-11
2.11638e-11
1.60574e-11
9.91381e-12
5.70264e-12
3.12436e-12
1.60193e-12
7.5505e-13
3.22921e-13
1.23943e-13
4.3758e-14
1.47588e-14
4.76945e-15
1.47905e-15
4.41105e-16
1.27689e-16
3.98872e-17
2.92618e-17
2.3507e-11
3.71687e-11
2.96361e-11
2.04103e-11
1.43677e-11
1.01591e-11
7.22355e-12
4.83501e-12
2.86527e-12
1.5714e-12
8.00355e-13
3.73591e-13
1.57528e-13
5.92133e-14
1.95533e-14
5.99555e-15
1.74711e-15
4.864e-16
1.29665e-16
3.3271e-17
8.85983e-18
5.29794e-18
1.53087e-17
8.02966e-12
1.27859e-11
1.03985e-11
7.18996e-12
4.73352e-12
3.14592e-12
2.05924e-12
1.26489e-12
7.07545e-13
3.62832e-13
1.69498e-13
7.11775e-14
2.64747e-14
8.58511e-15
2.38537e-15
6.25981e-16
1.55397e-16
3.66897e-17
8.27724e-18
1.85586e-18
7.66356e-19
2.04082e-18
9.30628e-18
2.12343e-12
3.68682e-12
2.97922e-12
2.01188e-12
1.27819e-12
8.07308e-13
4.94947e-13
2.83527e-13
1.48305e-13
7.02473e-14
2.97663e-14
1.11095e-14
3.58808e-15
9.82124e-16
2.26867e-16
4.96768e-17
1.02974e-17
2.02367e-18
3.82185e-19
9.65062e-20
1.78727e-19
8.99468e-19
4.60604e-18
4.45184e-13
8.55862e-13
6.89849e-13
4.59563e-13
2.8594e-13
1.73667e-13
1.00845e-13
5.42214e-14
2.63999e-14
1.14653e-14
4.36913e-15
1.4333e-15
3.95671e-16
8.93267e-17
1.69341e-17
3.01992e-18
5.09241e-19
8.12797e-20
1.33328e-20
9.54364e-21
4.99238e-20
2.96632e-19
1.68476e-18
7.38541e-14
1.59283e-13
1.30355e-13
8.70598e-14
5.36493e-14
3.16481e-14
1.75486e-14
8.89076e-15
4.02372e-15
1.59641e-15
5.44246e-16
1.55713e-16
3.62951e-17
6.63005e-18
1.01446e-18
1.43725e-19
1.91011e-20
2.39543e-21
4.25651e-22
1.24923e-21
9.07771e-21
6.24927e-20
4.05487e-19
9.51945e-15
2.37507e-14
2.02975e-14
1.38488e-14
8.55252e-15
4.94616e-15
2.63765e-15
1.26443e-15
5.32724e-16
1.9318e-16
5.89209e-17
1.46929e-17
2.88583e-18
4.2466e-19
5.13366e-20
5.60369e-21
5.6291e-22
5.24419e-23
1.21196e-23
8.28206e-23
7.78097e-22
6.6635e-21
5.29632e-20
8.99821e-16
2.81964e-15
2.62867e-15
1.87475e-15
1.17537e-15
6.72491e-16
3.47319e-16
1.58392e-16
6.24238e-17
2.08078e-17
5.72275e-18
1.2583e-18
2.11932e-19
2.57882e-20
2.41584e-21
1.94869e-22
1.3779e-23
8.41801e-25
1.13987e-25
1.15126e-24
1.64617e-23
2.10516e-22
2.44923e-21
5.10824e-17
2.66007e-16
2.87536e-16
2.19427e-16
1.4134e-16
8.06671e-17
4.06371e-17
1.77565e-17
6.60232e-18
2.04711e-18
5.16789e-19
1.03029e-19
1.55704e-20
1.68593e-21
1.26116e-22
7.28965e-24
2.92625e-25
7.92864e-27
1.58295e-28
6.68885e-29
2.48712e-27
8.67872e-26
2.79164e-24
0.992754
0.991678
0.993526
0.996029
0.759823
0.742618
0.734501
0.73561
0.0545275
0.0440562
0.0388515
0.0373115
0.00375248
0.00355817
0.00344018
0.00343784
0.00610216
0.00372485
0.00345163
0.00344018
0.0120844
0.00814687
0.00413523
0.00428257
5.73908e-05
0.000638274
0.0012328
0.002643
7.67199e-07
7.0909e-07
1.61441e-06
1.12206e-05
5.09531e-07
5.67517e-07
7.75961e-07
8.92009e-06
4.31918e-07
5.89184e-07
6.76182e-06
5.32889e-05
2.88929e-07
3.50603e-07
4.08725e-06
3.1882e-05
2.03294e-07
1.88391e-07
6.45403e-06
1.60748e-05
1.88343e-07
1.48378e-07
9.37271e-08
2.02651e-06
1.51673e-07
1.34825e-07
4.56453e-08
3.67196e-08
8.78631e-06
9.31692e-07
3.74125e-08
2.87919e-08
2.47714e-07
4.47857e-07
4.40982e-07
5.89607e-08
3.04356e-08
2.02338e-08
5.76698e-08
6.35003e-08
8.72507e-08
1.88154e-08
6.34906e-10
6.26417e-10
7.78058e-09
4.1393e-08
1.7972e-08
7.43841e-11
5.18821e-11
5.18216e-11
4.58411e-11
1.65449e-10
9.70599e-11
6.86058e-11
5.08289e-11
3.95863e-11
5.6647e-11
5.203e-11
4.39915e-11
3.49384e-11
1.73054e-11
1.53368e-11
1.33807e-11
1.14488e-11
8.60807e-12
7.18876e-12
5.98435e-12
4.94527e-12
4.77702e-12
3.77419e-12
2.98277e-12
2.35364e-12
2.68785e-12
2.0388e-12
1.54683e-12
1.17302e-12
1.35287e-12
9.89562e-13
7.23617e-13
5.28841e-13
5.56187e-13
3.90927e-13
2.74589e-13
1.92746e-13
1.75893e-13
1.17847e-13
7.8891e-14
5.2796e-14
4.10765e-14
2.59366e-14
1.63736e-14
1.03612e-14
6.92175e-15
4.08004e-15
2.42765e-15
1.48594e-15
8.55699e-16
4.92302e-16
3.15983e-16
2.49812e-16
1.04122e-16
8.7226e-17
9.86218e-17
1.33542e-16
3.4896e-17
4.94468e-17
7.41822e-17
1.12893e-16
2.3498e-17
3.64591e-17
5.65182e-17
8.7544e-17
1.47234e-17
2.31664e-17
3.63506e-17
5.73509e-17
7.37029e-18
1.17277e-17
1.87516e-17
3.07906e-17
2.72774e-18
4.42206e-18
7.4007e-18
1.34953e-17
6.68296e-19
1.14025e-18
2.192e-18
5.20834e-18
9.19767e-20
1.90797e-19
5.37568e-19
2.01859e-18
5.65541e-21
2.23289e-20
1.11885e-19
6.98053e-19
3.89438e-23
5.41247e-22
7.42326e-21
1.38907e-19
0.99799
0.998033
0.998125
0.998134
0.998076
0.986006
0.830338
0.858398
0.947299
0.967812
0.977985
0.987584
0.993869
0.993869
0.990569
0.981325
0.968775
0.987695
0.993855
0.737997
0.73179
0.725277
0.72491
0.758049
0.800367
0.745668
0.580091
0.650864
0.692592
0.732557
0.78255
0.842919
0.887843
0.920472
0.928882
0.93523
0.914581
0.885834
0.0404673
0.0445066
0.0526084
0.0643844
0.0899534
0.192304
0.394834
0.544484
0.566636
0.571658
0.580761
0.579597
0.576335
0.581741
0.585274
0.57419
0.553139
0.552821
0.586816
0.00316111
0.00292909
0.00271994
0.00254151
0.00231228
0.00230879
0.00230733
0.00222805
0.00535297
0.0103993
0.00358968
0.0049876
0.016308
0.0282807
0.0319301
0.0302375
0.0304941
0.0441403
0.0607565
0.00386524
0.00547054
0.00506277
0.00473403
0.00474022
0.00449858
0.00361339
0.00215868
0.00145723
0.00144133
0.00143763
0.00146525
0.000987901
2.9051e-05
2.6146e-05
2.44789e-05
2.68266e-05
3.6199e-05
6.45949e-05
0.00760388
0.00760637
0.00760021
0.00755876
0.00747957
0.00736912
0.00719604
0.00663913
0.00404256
0.00209109
0.00126659
0.00112494
0.000359523
2.64244e-05
2.48146e-05
2.40609e-05
2.0368e-05
2.21464e-05
7.14112e-05
0.00315995
0.00259593
0.00200358
0.00188351
0.00168042
0.0012095
0.000186615
1.27113e-05
1.24188e-05
1.24085e-05
1.24085e-05
1.2408e-05
0.000308357
0.000378009
0.000173838
1.95057e-05
1.99743e-05
2.0368e-05
0.000181622
4.25111e-06
4.2267e-06
4.61139e-06
5.11444e-06
5.41024e-06
6.36945e-06
8.5529e-06
3.88371e-05
1.39778e-05
1.24086e-05
1.24084e-05
3.814e-05
0.000237268
0.000186673
4.19084e-05
1.85461e-05
1.92188e-05
3.27184e-05
0.000220943
3.40028e-05
4.79738e-05
2.89746e-05
1.86951e-05
4.18929e-05
6.59188e-05
8.72333e-05
0.000101694
5.78629e-05
1.24144e-05
1.24086e-05
1.24671e-05
1.27286e-05
1.31559e-05
1.32043e-05
1.50677e-05
9.5006e-05
0.000220943
0.000220943
6.08698e-05
6.10652e-05
5.44487e-05
4.95054e-05
7.6365e-05
9.77043e-05
0.000100046
0.000101694
4.74684e-05
1.24244e-05
1.69733e-05
4.63065e-05
9.28022e-05
0.000131124
0.000125203
0.000144586
0.000151746
0.000150444
6.82767e-05
5.42481e-05
1.94308e-05
8.60796e-07
8.20927e-07
7.40132e-07
6.75906e-07
3.67551e-05
5.22924e-05
1.69264e-05
1.80719e-05
0.000133738
0.000153083
0.000153083
0.000153083
0.000153016
0.00012616
4.43151e-05
1.94566e-05
2.14738e-05
1.58471e-05
5.71859e-06
5.08913e-06
1.02022e-06
6.76051e-07
6.49046e-07
6.7605e-07
2.041e-06
2.68528e-05
4.21321e-05
0.00011045
0.000153083
0.000153083
0.000135264
2.93839e-05
1.83366e-05
1.83366e-05
1.83373e-05
4.66726e-05
1.48068e-05
2.29757e-05
2.29757e-05
1.75038e-05
2.03863e-06
4.29987e-07
2.35289e-06
3.40963e-05
3.596e-05
3.17164e-05
7.22719e-06
1.84469e-05
4.01231e-05
2.25871e-05
2.53222e-06
2.52217e-05
5.97096e-05
5.976e-05
5.976e-05
4.72468e-06
2.29791e-05
2.28689e-05
2.27563e-05
1.97561e-05
2.01961e-07
6.27103e-08
4.21905e-06
1.29822e-05
2.27599e-06
1.76992e-07
1.66456e-07
1.53791e-07
1.36438e-07
1.36408e-07
1.82207e-05
5.75926e-05
5.976e-05
5.97594e-05
2.09925e-09
8.45194e-07
1.9903e-05
2.26804e-05
2.2556e-05
6.36922e-06
5.07449e-08
5.29531e-08
5.82858e-08
6.73898e-08
5.21694e-07
1.08884e-06
9.35501e-07
1.3651e-07
1.36438e-07
1.91073e-07
1.38808e-09
1.39045e-05
4.56017e-05
1.08014e-09
2.95347e-11
2.9965e-11
1.19431e-05
1.65996e-05
2.49971e-06
4.13528e-08
1.22998e-07
3.14727e-07
2.262e-07
3.28929e-07
1.10249e-06
1.10694e-06
1.10606e-06
2.68097e-07
8.88772e-10
8.88948e-10
1.38716e-09
2.15833e-08
3.80234e-09
2.86732e-11
2.86721e-11
2.86721e-11
3.02303e-11
7.49098e-11
3.02862e-08
5.40348e-07
1.08594e-06
1.0869e-06
2.86024e-07
1.94716e-07
1.94809e-07
2.36957e-07
2.98423e-08
7.82923e-10
9.13881e-10
5.24564e-07
5.50732e-06
3.97155e-11
3.91657e-11
3.0611e-11
3.06463e-11
3.23445e-11
4.00831e-11
2.2312e-10
3.87249e-07
1.0869e-06
1.0869e-06
1.0869e-06
2.40666e-07
6.55868e-10
6.57598e-10
6.56054e-10
6.66541e-10
7.86242e-10
2.19589e-06
3.40088e-05
7.42212e-11
5.13811e-11
3.39326e-11
2.94505e-11
3.28755e-11
3.64555e-11
4.46982e-11
2.8458e-09
3.06809e-07
1.0869e-06
1.08559e-06
1.06813e-06
6.69206e-10
6.58902e-10
6.6665e-10
1.02133e-09
6.87918e-10
2.63224e-06
3.40088e-05
8.0628e-11
4.22498e-11
3.12259e-11
2.64099e-11
2.76535e-11
7.85337e-11
2.81893e-10
2.13344e-11
2.14109e-11
2.55591e-07
1.00309e-06
5.63088e-07
8.38084e-08
2.64819e-08
3.76306e-08
4.47972e-09
1.0269e-10
1.21288e-06
3.40088e-05
2.99684e-11
2.41322e-11
2.08105e-11
1.91208e-11
1.8316e-11
1.86635e-11
1.84618e-11
2.03568e-11
2.03784e-11
2.04397e-11
2.05265e-11
2.15054e-11
6.94145e-08
1.09674e-07
1.09674e-07
8.0925e-09
7.83328e-11
3.30341e-07
3.40011e-05
2.1178e-11
1.42034e-11
1.15108e-11
1.09024e-11
1.13752e-11
1.29448e-11
1.58655e-11
2.00415e-11
2.44324e-11
2.38552e-11
2.39839e-11
2.38649e-11
4.28693e-10
1.08904e-07
1.02523e-07
9.78473e-09
5.27819e-11
4.99236e-11
3.35179e-05
7.95341e-12
5.73548e-12
4.77258e-12
4.78124e-12
5.57773e-12
7.26913e-12
1.01126e-11
1.42173e-11
1.87035e-11
2.28481e-11
2.46078e-11
2.54701e-11
2.51039e-11
2.55776e-08
7.92072e-09
1.35654e-09
5.41562e-11
4.98445e-11
3.07674e-05
3.26129e-12
2.19588e-12
1.68686e-12
1.66825e-12
2.15141e-12
3.29268e-12
5.3482e-12
8.46407e-12
1.25113e-11
1.64567e-11
2.00619e-11
2.30099e-11
2.50988e-11
2.50998e-11
2.51951e-11
2.59962e-11
4.98721e-11
4.98445e-11
3.07199e-05
1.44113e-12
8.8488e-13
5.90849e-13
5.16612e-13
6.87722e-13
1.23243e-12
2.37351e-12
4.31383e-12
7.06781e-12
1.0446e-11
1.42301e-11
1.83404e-11
2.27716e-11
2.75572e-11
3.7133e-11
5.62053e-11
5.67861e-11
4.98445e-11
2.79697e-05
6.69985e-13
3.79177e-13
2.22288e-13
1.62497e-13
2.04914e-13
4.15011e-13
9.30235e-13
1.9262e-12
3.54371e-12
5.88052e-12
9.06806e-12
1.32914e-11
1.8937e-11
2.68239e-11
4.17172e-11
6.74169e-11
6.67549e-11
4.99082e-11
4.27855e-06
2.83127e-13
1.49958e-13
8.11642e-14
5.37983e-14
6.65914e-14
1.48337e-13
3.71472e-13
8.55027e-13
1.75025e-12
3.24966e-12
5.63077e-12
9.3051e-12
1.49993e-11
2.38355e-11
4.11874e-11
7.08114e-11
7.60134e-11
5.60214e-11
5.67059e-11
9.65026e-14
4.83183e-14
2.59284e-14
1.98978e-14
3.11043e-14
7.48537e-14
1.91008e-13
4.56118e-13
9.93957e-13
1.99764e-12
3.76803e-12
6.79032e-12
1.18926e-11
2.04032e-11
3.84465e-11
7.19508e-11
7.86125e-11
5.72831e-11
6.96844e-11
2.46506e-14
1.2204e-14
8.3746e-15
1.17249e-14
2.60213e-14
6.31638e-14
1.50411e-13
3.42324e-13
7.37688e-13
1.5074e-12
2.93847e-12
5.51192e-12
1.00507e-11
1.79977e-11
3.64955e-11
7.47488e-11
7.53444e-11
6.59781e-11
2.31142e-06
4.70075e-15
3.19336e-15
5.17491e-15
1.28658e-14
3.22534e-14
7.56516e-14
1.67125e-13
3.52526e-13
7.16324e-13
1.41005e-12
2.69962e-12
5.05255e-12
9.297e-12
1.69422e-11
3.65369e-11
7.98482e-11
7.61744e-11
7.57867e-11
1.59746e-05
1.00201e-15
2.08802e-15
6.5073e-15
1.8836e-14
4.79232e-14
1.09009e-13
2.27655e-13
4.47802e-13
8.47107e-13
1.56445e-12
2.84933e-12
5.16253e-12
9.35101e-12
1.70348e-11
3.87766e-11
8.64799e-11
7.66343e-11
5.03997e-07
1.62466e-05
6.49852e-16
2.72973e-15
1.00636e-14
3.06291e-14
7.87095e-14
1.76182e-13
3.54084e-13
6.57764e-13
1.16056e-12
1.99164e-12
3.39053e-12
5.82779e-12
1.01857e-11
1.82608e-11
4.43162e-11
9.50304e-11
7.7359e-11
1.57991e-06
1.62466e-05
7.59365e-16
3.99086e-15
1.61378e-14
5.14349e-14
1.35144e-13
3.03437e-13
5.99561e-13
1.0721e-12
1.78612e-12
2.85605e-12
4.51584e-12
7.26759e-12
1.20352e-11
2.08586e-11
5.46591e-11
1.09247e-10
7.80856e-11
1.43967e-06
1.62428e-05
9.22928e-16
5.71398e-15
2.50506e-14
8.42345e-14
2.30461e-13
5.3113e-13
1.05691e-12
1.86093e-12
2.98313e-12
4.50153e-12
6.64394e-12
9.96963e-12
1.54225e-11
2.53312e-11
6.49384e-11
1.3607e-10
9.78425e-11
9.78426e-11
1.30944e-05
1.06872e-15
7.56293e-15
3.58242e-14
1.29177e-13
3.77389e-13
9.16079e-13
1.87987e-12
3.32965e-12
5.23489e-12
7.57633e-12
1.05679e-11
1.48778e-11
2.1429e-11
3.295e-11
6.77575e-11
1.93663e-10
1.02573e-10
9.60755e-10
9.60826e-10
1.1287e-15
8.846e-15
4.56735e-14
1.81535e-13
5.84861e-13
1.53528e-12
3.3173e-12
6.01786e-12
9.43787e-12
1.33137e-11
1.78286e-11
2.39362e-11
3.25812e-11
4.73367e-11
1.07242e-10
1.12085e-10
4.7398e-10
1.94273e-07
1.56367e-08
1.0324e-15
8.81816e-15
5.0922e-14
2.31577e-13
8.52362e-13
2.47133e-12
5.70522e-12
1.07419e-11
1.70522e-11
2.38209e-11
3.11622e-11
4.08789e-11
5.4552e-11
7.78974e-11
1.47994e-10
4.79795e-10
7.35365e-10
1.69224e-08
1.89376e-09
7.70665e-16
7.28598e-15
4.90764e-14
2.65573e-13
1.15251e-12
3.7263e-12
9.25635e-12
1.8243e-11
2.96743e-11
4.16611e-11
5.41278e-11
7.09784e-11
9.72772e-11
1.46428e-10
2.95987e-10
7.89123e-10
1.02638e-09
5.37146e-10
9.03148e-10
4.41866e-16
4.89867e-15
4.05596e-14
2.68879e-13
1.40714e-12
5.05525e-12
1.35648e-11
2.81832e-11
4.75874e-11
6.82093e-11
8.93372e-11
1.18107e-10
1.68845e-10
2.82651e-10
6.17324e-10
9.61569e-10
8.81059e-10
5.32508e-10
1.35572e-09
1.83802e-16
2.65084e-15
2.83645e-14
2.3171e-13
1.47981e-12
5.83306e-12
1.70565e-11
3.77064e-11
6.73811e-11
1.00938e-10
1.35571e-10
1.8122e-10
2.52711e-10
4.30265e-10
7.12503e-10
7.18571e-10
5.30437e-10
5.31637e-10
7.57942e-10
5.1088e-17
1.08776e-15
1.52762e-14
1.51606e-13
1.2049e-12
5.15382e-12
1.67586e-11
3.97885e-11
7.72652e-11
1.25583e-10
1.76274e-10
2.44201e-10
3.0926e-10
3.83235e-10
1.45634e-09
7.21261e-10
6.77478e-08
3.12347e-08
7.68107e-10
7.58705e-18
2.61712e-16
4.73505e-15
5.49406e-14
5.73748e-13
2.65159e-12
9.83285e-12
2.50406e-11
5.38344e-11
9.97138e-11
1.50338e-10
2.18679e-10
2.92787e-10
3.24697e-10
1.76402e-10
7.55829e-08
2.82472e-07
2.82472e-07
8.19278e-08
)
;

boundaryField
{
    leftWall
    {
        type            zeroGradient;
    }
    rightWall
    {
        type            zeroGradient;
    }
    lowerWall
    {
        type            zeroGradient;
    }
    atmosphere
    {
        type            inletOutlet;
        inletValue      uniform 0;
        value           nonuniform List<scalar> 
46
(
0
2.66007e-16
2.87536e-16
2.19427e-16
1.4134e-16
8.06671e-17
4.06371e-17
1.77565e-17
6.60232e-18
2.04711e-18
5.16789e-19
1.03029e-19
1.55704e-20
1.68593e-21
1.26116e-22
0
0
0
0
0
0
0
0
0
0
0
0
0
0
0
0
0
0
0
0
0
0
0
0
0
3.24697e-10
1.76402e-10
7.55829e-08
2.82472e-07
2.82472e-07
8.19278e-08
)
;
    }
    defaultFaces
    {
        type            empty;
    }
}


// ************************************************************************* //
