/*--------------------------------*- C++ -*----------------------------------*\
| =========                 |                                                 |
| \\      /  F ield         | OpenFOAM: The Open Source CFD Toolbox           |
|  \\    /   O peration     | Version:  2.3.0                                 |
|   \\  /    A nd           | Web:      www.OpenFOAM.org                      |
|    \\/     M anipulation  |                                                 |
\*---------------------------------------------------------------------------*/
FoamFile
{
    version     2.0;
    format      ascii;
    class       volScalarField;
    location    "2.75";
    object      epsilon;
}
// * * * * * * * * * * * * * * * * * * * * * * * * * * * * * * * * * * * * * //

dimensions      [0 2 -3 0 0 0 0];

internalField   nonuniform List<scalar> 
2268
(
0.00344722
0.0202915
0.0387986
0.05804
0.0774162
0.0963402
0.114279
0.130783
0.145495
0.158178
0.168943
0.17837
0.186196
0.19235
0.196293
0.196446
0.189898
0.179601
0.166542
0.147033
0.113454
0.0659457
0.0179755
0.00761291
0.0137033
0.0219974
0.0306537
0.0393041
0.0477403
0.0557732
0.0632194
0.0699109
0.0757192
0.0806478
0.0848116
0.0881528
0.0906563
0.0922067
0.0924781
0.0909838
0.0879632
0.0833187
0.0758428
0.0631716
0.0445513
0.0261344
0.0136781
0.0145
0.0204451
0.0270429
0.0337359
0.0403072
0.0465996
0.0524692
0.0577846
0.0624435
0.0664157
0.0697341
0.0723884
0.0743844
0.0756854
0.0761845
0.0757478
0.0743462
0.0718016
0.0673149
0.059279
0.04637
0.0387168
0.020248
0.016542
0.0213473
0.0271828
0.033218
0.039169
0.044867
0.0501791
0.0549949
0.0592333
0.0628667
0.0659106
0.0683687
0.0702551
0.0715629
0.072263
0.0723295
0.0717195
0.0703073
0.0676073
0.0623113
0.0525174
0.0485337
0.0273151
0.0192388
0.0233033
0.0288108
0.034612
0.0403353
0.0457881
0.050844
0.0554127
0.0594369
0.0629039
0.0658281
0.0682191
0.0700949
0.0714628
0.072329
0.0727148
0.0726248
0.0720533
0.0708245
0.0680466
0.0614576
0.0577874
0.0350994
0.0225083
0.0260138
0.0314051
0.0371693
0.0428332
0.0481787
0.0530895
0.0575002
0.0613814
0.064742
0.0675968
0.0699577
0.0718437
0.0732681
0.074256
0.0748601
0.0751525
0.0752839
0.0754459
0.0754484
0.0737164
0.0735267
0.0439005
0.0263998
0.0294309
0.0348319
0.0406669
0.0463473
0.0516334
0.0564288
0.0607021
0.0644566
0.0677265
0.070521
0.0728507
0.074733
0.0761829
0.0772383
0.0779832
0.078562
0.079283
0.0807437
0.0839115
0.0905418
0.107943
0.0540895
0.0310296
0.0336053
0.0391006
0.0450674
0.050786
0.0560058
0.0606668
0.0647827
0.0683947
0.0715651
0.0742836
0.0765562
0.0783985
0.0798254
0.0808879
0.081705
0.0824843
0.0836475
0.0861211
0.0921325
0.110467
0.204013
0.0165755
0.0780303
0.126812
0.152902
0.165397
0.164898
0.151684
0.132667
0.107056
0.0829167
0.0766789
0.0736279
0.0584726
0.0514769
0.054811
0.0577382
0.0532065
0.0354022
0.00991996
0.0197469
0.0431687
0.0594085
0.0687364
0.073589
0.0740347
0.0707739
0.0653625
0.0584459
0.0501271
0.0436155
0.0394035
0.0351507
0.033354
0.03206
0.0289294
0.025382
0.0200991
0.0148261
0.0314807
0.0426496
0.0511064
0.0561742
0.0587454
0.0586717
0.056617
0.0533343
0.0488705
0.043497
0.0384644
0.034701
0.0318276
0.0303669
0.0286978
0.0259724
0.0237662
0.0217863
0.0233253
0.0471036
0.0482112
0.0514329
0.0537027
0.0547586
0.054081
0.0521884
0.0495467
0.0458774
0.0416482
0.0376038
0.0342738
0.0317556
0.030007
0.0282954
0.0263585
0.0251282
0.0250554
0.0322683
0.0683433
0.0568394
0.0546244
0.05439
0.0541863
0.0529495
0.0509836
0.0485868
0.0453362
0.0417573
0.0383398
0.0353562
0.0329714
0.0309471
0.029124
0.0277263
0.0272145
0.0285289
0.0417629
0.0996452
0.0672488
0.0588714
0.0563398
0.0550897
0.0534042
0.0513341
0.0490606
0.046139
0.0430393
0.0400155
0.0372672
0.0349346
0.0327282
0.0307684
0.0296087
0.0296024
0.032078
0.0520779
0.152231
0.0780828
0.0631505
0.0587274
0.0567004
0.0547332
0.0526184
0.0504709
0.0478824
0.0451559
0.0423634
0.0397357
0.0374096
0.0350919
0.0330169
0.0318951
0.0322393
0.0358858
0.06385
0.272771
0.0873628
0.0667456
0.061116
0.0586405
0.0565945
0.0545781
0.0526207
0.050357
0.0478982
0.0452109
0.0426078
0.0402458
0.0378528
0.0356814
0.0344947
0.0350868
0.0399234
0.0760823
0.0738365
0.0396913
0.0414888
0.047232
0.0534487
0.0591914
0.0642239
0.0685798
0.072366
0.0756882
0.0786209
0.0811175
0.0831871
0.08485
0.0861255
0.0870911
0.0879224
0.0888847
0.0904415
0.0936661
0.100992
0.118404
0.164201
0.103833
0.0546529
0.0561284
0.0627438
0.0693785
0.0748614
0.0791823
0.0826731
0.085648
0.0883048
0.0906191
0.0925209
0.0940373
0.0952287
0.0961126
0.0967908
0.0975051
0.0984562
0.099709
0.101765
0.105798
0.112942
0.124488
0.144238
0.0760415
0.0778904
0.0858486
0.0922888
0.0963134
0.0986464
0.100197
0.101573
0.103016
0.104289
0.105219
0.105912
0.106535
0.10699
0.107342
0.108005
0.109128
0.1099
0.110322
0.111712
0.113356
0.113908
0.195836
0.107532
0.111594
0.121328
0.125078
0.124783
0.12273
0.120572
0.119235
0.11883
0.118655
0.118227
0.118037
0.118416
0.118584
0.118529
0.119383
0.121723
0.12226
0.120495
0.121289
0.120149
0.114587
0.273207
0.155376
0.165115
0.174348
0.164784
0.155307
0.146824
0.13969
0.135162
0.132885
0.131135
0.129489
0.129664
0.131079
0.130963
0.129824
0.130279
0.134382
0.132876
0.128552
0.127303
0.122214
0.114205
0.433184
0.203511
0.205879
0.203808
0.17993
0.162207
0.150956
0.142984
0.138153
0.136064
0.134895
0.13496
0.137891
0.141175
0.140556
0.13753
0.136797
0.137476
0.134411
0.130374
0.125131
0.118277
0.110779
0.592963
0.22695
0.192045
0.186103
0.170945
0.151848
0.140477
0.134112
0.13092
0.130072
0.130742
0.132757
0.136264
0.140336
0.139474
0.137462
0.138254
0.139782
0.137229
0.133941
0.125331
0.116423
0.10931
0.687263
0.243489
0.184586
0.177562
0.169679
0.146785
0.132551
0.126143
0.12346
0.123183
0.124611
0.125885
0.128511
0.130994
0.131301
0.131573
0.13442
0.139116
0.142362
0.138918
0.127161
0.114726
0.104579
0.725602
0.260604
0.183867
0.171454
0.163756
0.140465
0.125424
0.119448
0.11714
0.116894
0.117676
0.1183
0.119805
0.121293
0.122026
0.123557
0.127188
0.131928
0.135608
0.130482
0.119138
0.106947
0.0981403
0.712
0.265414
0.181844
0.159718
0.146428
0.128134
0.117316
0.113004
0.111204
0.110574
0.11062
0.110997
0.111794
0.112719
0.113477
0.115246
0.117949
0.119707
0.119064
0.114033
0.105733
0.0972817
0.0906851
0.658376
0.255128
0.176176
0.150422
0.134661
0.120222
0.112677
0.108923
0.106558
0.105181
0.104498
0.104125
0.104283
0.104906
0.105699
0.107226
0.108703
0.108298
0.105671
0.100952
0.0948773
0.0888172
0.0835914
0.581862
0.241724
0.170835
0.145675
0.130094
0.118067
0.111899
0.107449
0.103511
0.100761
0.0990635
0.0979099
0.0974429
0.0978224
0.0987191
0.0999915
0.100608
0.0992822
0.0960574
0.0916374
0.0867115
0.0818878
0.0774555
0.50545
0.233062
0.168528
0.143702
0.128765
0.117583
0.110157
0.104375
0.0997591
0.096365
0.0939693
0.0922627
0.091306
0.0914282
0.0924716
0.093637
0.093754
0.0920516
0.0888026
0.0847292
0.0804376
0.0762792
0.072376
0.43217
0.222374
0.166648
0.141019
0.125008
0.11327
0.104502
0.0984257
0.0940594
0.0908868
0.0884924
0.0866848
0.0855578
0.0855124
0.0864546
0.0874296
0.0873226
0.0856399
0.0826818
0.0790589
0.0752785
0.0716122
0.0681617
0.36157
0.205905
0.160803
0.135475
0.118229
0.105736
0.0969148
0.0910438
0.0870388
0.0842572
0.0821973
0.0806459
0.0796958
0.0796206
0.0803055
0.0809891
0.0807963
0.079364
0.0768982
0.0738544
0.0706349
0.0674774
0.0644939
0.295769
0.184466
0.150006
0.126949
0.109869
0.0974582
0.0888636
0.0831949
0.0795751
0.0771707
0.0754927
0.0743103
0.0736387
0.0735917
0.0740375
0.0744527
0.0742394
0.0731222
0.0712084
0.0687974
0.0661846
0.0635732
0.0610808
0.237481
0.160421
0.135402
0.116036
0.100573
0.0890871
0.0810733
0.0757536
0.0723562
0.0702615
0.0689049
0.0680396
0.0675964
0.0675749
0.0678479
0.0680764
0.0678804
0.0670619
0.0656584
0.0638472
0.0618287
0.0597614
0.0577548
0.188768
0.136105
0.118769
0.103623
0.0907073
0.0808099
0.0737525
0.0689749
0.0658747
0.063949
0.0628156
0.0621537
0.061847
0.0618289
0.0619824
0.0620962
0.0619371
0.061366
0.0603834
0.0590838
0.0575924
0.0560223
0.0544637
0.15039
0.11338
0.10183
0.0907281
0.0807006
0.0727442
0.0669064
0.062845
0.0601396
0.0584167
0.0573915
0.0568446
0.0565961
0.0565575
0.0566277
0.0566712
0.0565475
0.056164
0.0555028
0.0546068
0.0535473
0.0523976
0.0512259
0.121717
0.0935241
0.085984
0.078319
0.0710416
0.0650556
0.0605228
0.0572708
0.0550357
0.0535645
0.0526521
0.0521511
0.0519214
0.0518528
0.0518636
0.0518646
0.0517689
0.0515154
0.0510824
0.0504843
0.0497571
0.0489446
0.0480913
0.101101
0.0771729
0.072153
0.067125
0.0621596
0.0579297
0.0546235
0.052176
0.0504377
0.0492511
0.0484808
0.0480223
0.0477987
0.0477062
0.0476792
0.047657
0.0475842
0.04742
0.0471441
0.0467568
0.0462732
0.0457159
0.0451114
0.0864712
0.0643424
0.0607306
0.0575352
0.0543238
0.0515089
0.0492464
0.047522
0.0462572
0.0453615
0.0447534
0.0443664
0.044149
0.0440547
0.0440132
0.0439856
0.0439362
0.043837
0.0436708
0.0434318
0.0431232
0.0427544
0.0423385
0.075871
0.0545767
0.0516506
0.0496107
0.0476189
0.0458572
0.0444176
0.0432944
0.0424456
0.0418229
0.0413826
0.0410884
0.0409107
0.0408264
0.0407933
0.0407785
0.0407584
0.0407134
0.0406293
0.0404982
0.0403173
0.0400881
0.039815
0.0677906
0.0471865
0.0445554
0.0431848
0.0419855
0.040965
0.0401392
0.0394871
0.0389811
0.038598
0.038319
0.0381288
0.0380139
0.037962
0.0379598
0.0379757
0.0379945
0.038002
0.0379868
0.0379404
0.0378573
0.0377347
0.0375717
0.0612434
0.0414713
0.0389775
0.0379849
0.0372877
0.036775
0.036391
0.0360917
0.035855
0.0356726
0.0355415
0.0354597
0.035424
0.0354304
0.0354743
0.035537
0.0356058
0.0356698
0.0357192
0.0357458
0.0357432
0.0357064
0.035632
0.0556925
0.0368595
0.0344702
0.0337255
0.0333687
0.0332085
0.0331359
0.0330923
0.0330613
0.0330443
0.0330471
0.0330746
0.0331292
0.0332106
0.033317
0.033442
0.0335721
0.0336987
0.0338134
0.0339085
0.0339774
0.0340143
0.0340144
0.0509425
0.0329779
0.030701
0.0301658
0.0300807
0.0301781
0.0303245
0.0304657
0.030594
0.0307168
0.0308435
0.0309814
0.0311344
0.0313038
0.0314887
0.0316869
0.0318878
0.0320838
0.0322669
0.0324299
0.0325663
0.0326702
0.0327362
0.0469471
0.0296398
0.0274986
0.0271569
0.0273022
0.0275962
0.0279039
0.0281879
0.0284495
0.0286989
0.0289454
0.0291958
0.0294538
0.0297206
0.0299954
0.0302768
0.0305573
0.0308292
0.0310851
0.0313179
0.0315209
0.0316886
0.0318154
0.0435235
0.0268209
0.0248105
0.0246412
0.0249624
0.0254034
0.0258402
0.0262487
0.0266341
0.0270057
0.0273716
0.0277372
0.0281052
0.0284763
0.0288495
0.029223
0.0295911
0.029946
0.0302801
0.0305859
0.030857
0.0310876
0.0312725
0.0406176
0.0245678
0.0226543
0.0226082
0.023042
0.023589
0.0241363
0.0246612
0.0251661
0.0256578
0.0261426
0.0266246
0.0271059
0.0275865
0.0280653
0.0285396
0.029004
0.0294501
0.0298692
0.0302535
0.030596
0.0308907
0.0311329
0.0383769
0.0228803
0.0210472
0.0210638
0.0215585
0.0221812
0.0228223
0.0234525
0.0240688
0.0246747
0.0252748
0.0258722
0.0264687
0.0270642
0.0276565
0.0282421
0.0288141
0.0293623
0.0298765
0.0303472
0.0307667
0.0311289
0.0314293
0.0369314
0.0217814
0.0199866
0.0200192
0.020541
0.021214
0.0219271
0.0226445
0.0233574
0.0240665
0.0247748
0.0254855
0.0262001
0.026918
0.0276359
0.0283481
0.0290442
0.0297108
0.0303345
0.0309035
0.0314086
0.0318434
0.032204
0.036361
0.0212801
0.0194638
0.0194783
0.0200006
0.020698
0.0214575
0.0222386
0.0230288
0.023827
0.024636
0.0254592
0.0262984
0.0271524
0.0280157
0.0288787
0.0297246
0.0305343
0.0312889
0.0319729
0.0325752
0.0330895
0.0335134
0.036682
0.0213626
0.0194601
0.0194231
0.0199186
0.0206129
0.0213912
0.0222108
0.0230581
0.0239318
0.0248361
0.0257759
0.0267541
0.0277687
0.0288106
0.0298632
0.030899
0.0318886
0.0328046
0.033626
0.0343401
0.0349418
0.0354318
0.0378319
0.0219857
0.0199323
0.0198078
0.0202466
0.0209089
0.0216787
0.0225131
0.0233992
0.0243383
0.025338
0.0264068
0.0275505
0.0287667
0.0300415
0.0313447
0.0326321
0.0338559
0.0349751
0.035962
0.0368037
0.0374996
0.038056
0.039666
0.0230661
0.0208056
0.0205577
0.0209095
0.0215123
0.0222488
0.0230774
0.0239883
0.0249879
0.0260902
0.0273113
0.0286632
0.0301461
0.031739
0.03339
0.0350233
0.0365591
0.0379355
0.039119
0.0401018
0.0408932
0.0415112
0.0419646
0.0244818
0.0219748
0.0215732
0.0218115
0.0223312
0.0230141
0.0238211
0.0247478
0.0258083
0.0270279
0.0284363
0.0300601
0.0319082
0.0339532
0.0361068
0.0382301
0.040185
0.0418819
0.0432885
0.0444145
0.0452912
0.0459557
0.044447
0.0260837
0.0233132
0.0227373
0.0228426
0.0232622
0.0238773
0.0246525
0.0255902
0.0267162
0.0280729
0.0297142
0.0316965
0.034056
0.0367667
0.0396779
0.0425119
0.0450234
0.0470976
0.0487306
0.0499765
0.0509066
0.0515871
0.0468037
0.0277492
0.0247036
0.0239308
0.0238882
0.0241979
0.0247383
0.0254767
0.0264238
0.0276202
0.0291331
0.0310564
0.0335052
0.0365871
0.0403143
0.0444311
0.0483148
0.0515272
0.0539852
0.0557877
0.0570817
0.0580008
0.058647
0.0500025
0.0299916
0.0262223
0.0250817
0.0248445
0.0250351
0.0255001
0.0262016
0.0271571
0.0284239
0.0301013
0.032343
0.0353708
0.0394587
0.0447859
0.0509688
0.0564264
0.060393
0.0630881
0.0648835
0.0660805
0.0668848
0.0674272
0.123223
0.0416671
0.0292507
0.0263276
0.0256446
0.0256826
0.0260753
0.0267442
0.0277058
0.0290321
0.0308571
0.033409
0.0370725
0.0424534
0.0502541
0.0602451
0.0681999
0.0726004
0.0750526
0.0764853
0.0773619
0.0779187
0.0782802
1.34667
0.136998
0.0392999
0.0280533
0.0262297
0.0260568
0.0263896
0.0270367
0.0280011
0.0293625
0.031279
0.0340411
0.038198
0.0448005
0.0556462
0.0721289
0.0857862
0.0892171
0.0904418
0.0910149
0.0913303
0.0915203
0.0916398
0.325958
0.312266
0.338284
0.416405
0.137273
0.138514
0.136879
0.130813
0.1131
0.111246
0.1078
0.102632
0.109575
0.10651
0.103297
0.0991079
0.10823
0.104474
0.101004
0.0975353
0.105149
0.101674
0.0984005
0.0955403
0.103727
0.100345
0.0974961
0.0947786
0.0995406
0.0971415
0.0950232
0.0923961
0.0939333
0.0916278
0.0893962
0.0869145
0.0868223
0.0845278
0.0822836
0.0799978
0.0800609
0.077898
0.075793
0.0737248
0.0742572
0.0722815
0.0703744
0.0685371
0.069534
0.0677798
0.0660962
0.0644855
0.0656887
0.0641693
0.0627148
0.0613212
0.0623886
0.0611013
0.0598694
0.0586826
0.0593371
0.0582715
0.0572489
0.0562565
0.056352
0.0554914
0.0546604
0.0538462
0.0533661
0.052687
0.052025
0.0513692
0.0503877
0.0498628
0.0493448
0.0488251
0.0474652
0.0470655
0.0466657
0.0462592
0.044653
0.0443536
0.044049
0.0437344
0.0420105
0.0417906
0.0415625
0.0413228
0.0395879
0.0394312
0.0392647
0.0390861
0.0374242
0.0373182
0.0372019
0.0370735
0.0355489
0.0354847
0.03541
0.0353234
0.0339855
0.0339567
0.0339171
0.0338659
0.0327544
0.0327564
0.0327473
0.0327266
0.031876
0.0319054
0.0319233
0.0319292
0.0313723
0.0314269
0.031469
0.0314986
0.0312702
0.0313481
0.0314125
0.0314633
0.0316029
0.0317031
0.0317881
0.0318582
0.0324138
0.0325354
0.0326399
0.0327276
0.0337593
0.0339017
0.0340244
0.0341282
0.0357131
0.0358753
0.0360147
0.0361326
0.0383706
0.0385503
0.038704
0.0388333
0.0418533
0.0420464
0.0422101
0.042347
0.0463143
0.0465137
0.0466809
0.0468193
0.0519435
0.0521383
0.0522997
0.0524316
0.0589745
0.0591502
0.0592936
0.0594093
0.0676932
0.0678329
0.0679452
0.0680345
0.078452
0.0785403
0.0786099
0.0786643
0.0916946
0.0917218
0.0917427
0.0917587
0.138028
0.0861993
0.070288
0.0644368
0.0617997
0.059968
0.0584723
0.0569761
0.0551583
0.0529231
0.0502371
0.0475515
0.0450554
0.0425311
0.0402113
0.0388595
0.0395749
0.0455407
0.0896119
0.102692
0.0824065
0.072668
0.0683019
0.0663991
0.065472
0.0653521
0.0648739
0.063283
0.060796
0.0577593
0.0546805
0.0517509
0.0488989
0.0463817
0.044937
0.045889
0.0531707
0.106377
0.0922317
0.0811958
0.0749905
0.0721876
0.0712101
0.0713695
0.072944
0.073764
0.0719979
0.0688419
0.0652021
0.0616014
0.0582046
0.0550578
0.0523522
0.0508132
0.0519905
0.0598838
0.115251
0.0907865
0.0819326
0.077503
0.0759173
0.0758906
0.0773132
0.0807576
0.0834588
0.0809394
0.0764686
0.0720989
0.0679439
0.0640444
0.0605914
0.0576894
0.0560919
0.0577975
0.0659793
0.114405
0.0906306
0.0826745
0.0791412
0.0782065
0.0781989
0.0786896
0.0806192
0.0828838
0.0821281
0.0788753
0.0749926
0.0710941
0.0673839
0.0640127
0.0613814
0.0602521
0.0621588
0.0709643
0.132931
0.0900466
0.0827711
0.0790034
0.0778439
0.0776175
0.0770821
0.0765568
0.0763273
0.0755903
0.0741128
0.071959
0.0693873
0.0666407
0.064105
0.0626266
0.062277
0.0628449
0.0691737
0.112995
0.0892687
0.0819881
0.0777885
0.07613
0.075548
0.0746726
0.0733515
0.0719842
0.0709268
0.0701144
0.069057
0.0673895
0.0650626
0.062633
0.061087
0.0600864
0.0594785
0.0638259
0.0998157
0.0870903
0.0801321
0.0757773
0.0736349
0.0724855
0.0711714
0.0695333
0.0677932
0.0665486
0.0658888
0.0651935
0.0638998
0.061676
0.0591784
0.0573224
0.0559295
0.0551371
0.058808
0.0973626
0.0824839
0.0765264
0.0723452
0.0697509
0.067958
0.0662663
0.0644908
0.0627874
0.0615206
0.060759
0.0600377
0.0588048
0.0567038
0.0544289
0.052835
0.0517398
0.0512545
0.0543077
0.0915831
0.0763184
0.0715022
0.0677599
0.0650532
0.062977
0.0611483
0.0593838
0.0577151
0.0563382
0.0552831
0.0542563
0.052868
0.0510027
0.049256
0.048209
0.047614
0.0472902
0.0484953
0.0713993
0.0705532
0.0665603
0.063288
0.0607
0.0585964
0.0567614
0.0550278
0.0533472
0.0517919
0.050368
0.0489375
0.0473538
0.0456593
0.0442138
0.0433406
0.0428717
0.0425168
0.0424274
0.0531223
0.0657774
0.0623732
0.0595093
0.0571373
0.0551415
0.0533787
0.0517011
0.0500183
0.0483291
0.0466229
0.0448761
0.0431028
0.0413847
0.0398975
0.0387787
0.0379694
0.0373092
0.0361199
0.0372313
0.0620695
0.0590971
0.056567
0.0544263
0.0525826
0.0509183
0.049302
0.04764
0.0458941
0.0440505
0.042152
0.0402892
0.038546
0.0369891
0.0356204
0.0344301
0.033516
0.0325579
0.034069
0.059207
0.0565804
0.0543258
0.0523933
0.0506956
0.0491223
0.0475601
0.045934
0.0441984
0.0423439
0.040435
0.0385953
0.0369279
0.0354627
0.0341369
0.0328955
0.0320407
0.0325019
0.039783
0.0568502
0.0545329
0.0525187
0.050768
0.0491976
0.0477012
0.0461859
0.044602
0.0429148
0.0411179
0.0392727
0.0375008
0.0359141
0.0345543
0.0333854
0.0324034
0.0320321
0.0338492
0.0475139
0.054692
0.0526678
0.0508771
0.0492927
0.047838
0.0464138
0.0449467
0.0434064
0.0417729
0.0400458
0.0382762
0.0365652
0.0350153
0.0336894
0.0326232
0.0319438
0.0321945
0.0352569
0.0542956
0.0525335
0.0507893
0.0492105
0.0477831
0.0464399
0.0450929
0.0436843
0.0421935
0.0406123
0.0389482
0.0372445
0.0355817
0.0340512
0.0327366
0.0317403
0.0312985
0.0320889
0.0363312
0.0590765
0.050287
0.0488075
0.0474302
0.0461515
0.0449177
0.0436566
0.0423206
0.0408928
0.0393722
0.0377729
0.0361351
0.0345273
0.0330353
0.0317604
0.0308511
0.0306096
0.0318009
0.0369495
0.0626628
0.0479477
0.0467122
0.0455259
0.0443907
0.043267
0.0420998
0.0408498
0.039502
0.0380588
0.0365389
0.0349824
0.0334529
0.0320357
0.0308446
0.0300545
0.030001
0.0314955
0.0373042
0.0660906
0.0455593
0.0445434
0.0435356
0.0425404
0.04153
0.0404637
0.0393112
0.0380594
0.0367127
0.0352923
0.033839
0.0324155
0.0311081
0.0300378
0.0293929
0.0295263
0.0312821
0.0376305
0.0696956
0.0431842
0.0423644
0.041522
0.0406624
0.0397673
0.038807
0.0377606
0.0366175
0.0353832
0.0340804
0.0327504
0.0314555
0.030283
0.0293572
0.0288733
0.0291995
0.031222
0.0381314
0.0737257
0.0408968
0.0402442
0.03955
0.0388186
0.0380382
0.0371888
0.0362541
0.0352273
0.0341155
0.032942
0.0317482
0.0305957
0.0295717
0.0288017
0.0284841
0.0289948
0.0312607
0.0387027
0.0776303
0.0387627
0.0382512
0.0376872
0.0370738
0.0364032
0.0356621
0.0348389
0.0339303
0.0329446
0.0319055
0.0308531
0.0298476
0.0289744
0.0283574
0.028195
0.0288681
0.0313324
0.0391841
0.0809414
0.0368352
0.0364422
0.0359912
0.0354837
0.0349148
0.0342757
0.033559
0.0327643
0.0319012
0.0309927
0.0300777
0.0292138
0.0284834
0.0280076
0.0279829
0.0287916
0.0314056
0.0395425
0.083743
0.0351563
0.0348628
0.0345085
0.0340943
0.0336166
0.0330701
0.032451
0.031761
0.0310107
0.0302225
0.0294335
0.0286983
0.0280961
0.0277442
0.0278365
0.0287547
0.0314767
0.0397958
0.0859936
0.0337591
0.0335491
0.0332771
0.032943
0.0325447
0.0320794
0.0315459
0.0309478
0.0302963
0.0296132
0.0289336
0.0283093
0.027816
0.0275678
0.0277555
0.0287589
0.0315545
0.0399574
0.0872709
0.0326713
0.0325317
0.0323288
0.0320622
0.0317309
0.031334
0.0308723
0.0303508
0.0297812
0.0291847
0.0285945
0.0280598
0.0276531
0.0274856
0.0277456
0.0288096
0.0316443
0.040018
0.0871681
0.0319184
0.0318381
0.0316926
0.0314816
0.0312049
0.0308631
0.0304585
0.0299972
0.0294911
0.0289607
0.0284374
0.0279682
0.027623
0.0275102
0.0278159
0.0289121
0.0317502
0.0400126
0.0862123
0.0315266
0.0314962
0.0313978
0.0312313
0.0309974
0.0306977
0.0303355
0.0299176
0.029456
0.0289701
0.0284899
0.0280601
0.0277483
0.0276606
0.0279806
0.0290763
0.0318864
0.0400301
0.0854239
0.0315254
0.031537
0.0314767
0.0313448
0.0311427
0.0308727
0.0305389
0.0301482
0.0297123
0.0292495
0.0287879
0.0283702
0.0280615
0.0279659
0.0282651
0.0293249
0.0320827
0.0401666
0.0856348
0.0319506
0.0319975
0.0319674
0.0318613
0.0316813
0.03143
0.0311119
0.0307336
0.0303058
0.0298455
0.0293785
0.028945
0.0286079
0.0284696
0.028711
0.0297003
0.0323888
0.0404942
0.0869921
0.0328469
0.0329233
0.0329167
0.032829
0.0326627
0.0324209
0.0321076
0.0317289
0.0312939
0.0308171
0.030322
0.0298457
0.0294486
0.0292323
0.0293791
0.0302648
0.0328679
0.0410393
0.0889586
0.0342713
0.0343719
0.034383
0.0343075
0.0341484
0.0339088
0.0335921
0.033203
0.0327482
0.0322393
0.0316957
0.0311509
0.0306629
0.0303329
0.0303481
0.0310968
0.0335932
0.041835
0.0913317
0.0362959
0.0364157
0.0364394
0.0363712
0.0362147
0.0359727
0.0356476
0.0352418
0.0347589
0.0342059
0.0335969
0.03296
0.0323499
0.0318691
0.0317132
0.0322899
0.0346547
0.0429567
0.0941741
0.0390123
0.0391456
0.0391772
0.0391129
0.0389566
0.0387106
0.0383757
0.0379517
0.0374377
0.0368341
0.0361471
0.0353967
0.0346318
0.0339575
0.0335844
0.0339496
0.0361581
0.0444872
0.0970379
0.0425352
0.0426755
0.0427107
0.042648
0.0424918
0.0422436
0.0419025
0.0414644
0.0409229
0.0402696
0.0394985
0.0386152
0.0376579
0.036734
0.0360817
0.0361815
0.0382022
0.0465774
0.100566
0.0470081
0.0471474
0.047182
0.0471203
0.0469666
0.0467218
0.0463828
0.0459417
0.0453852
0.044693
0.0438404
0.0428081
0.0416098
0.0403516
0.0393142
0.039049
0.0408407
0.0493592
0.105776
0.0526096
0.0527388
0.052769
0.052709
0.0525629
0.0523307
0.0520076
0.0515821
0.0510333
0.0503264
0.0494092
0.0482167
0.046707
0.0449673
0.0433585
0.0425805
0.0440788
0.0528416
0.112498
0.0595635
0.059673
0.0596956
0.0596396
0.0595086
0.0593017
0.0590131
0.058629
0.0581224
0.0574427
0.0564996
0.0551479
0.053214
0.0506951
0.04821
0.0466945
0.0478018
0.0568954
0.120454
0.0681519
0.0682332
0.0682465
0.0681986
0.0680918
0.0679252
0.0676932
0.0673822
0.0669632
0.0663739
0.0654814
0.064011
0.0614838
0.0575167
0.0536425
0.051094
0.0516966
0.0611865
0.129114
0.078735
0.0787826
0.0787875
0.0787533
0.0786815
0.0785712
0.0784187
0.0782143
0.0779345
0.0775212
0.0768198
0.0754066
0.0721714
0.0650027
0.0589694
0.0551309
0.0551721
0.0650854
0.13743
0.0917794
0.091793
0.0917928
0.0917797
0.0917541
0.0917159
0.0916642
0.091596
0.0915028
0.0913587
0.0910723
0.0902671
0.0871597
0.0715702
0.0627376
0.0577404
0.0573616
0.0676253
0.143217
)
;

boundaryField
{
    leftWall
    {
        type            epsilonWallFunction;
        value           nonuniform List<scalar> 
50
(
0.00344722
0.00761291
0.0136781
0.020248
0.0273151
0.0350994
0.0439005
0.0540895
0.0738365
0.103833
0.144238
0.195836
0.273207
0.433184
0.592963
0.687263
0.725602
0.712
0.658376
0.581862
0.50545
0.43217
0.36157
0.295769
0.237481
0.188768
0.15039
0.121717
0.101101
0.0864712
0.075871
0.0677906
0.0612434
0.0556925
0.0509425
0.0469471
0.0435235
0.0406176
0.0383769
0.0369314
0.036361
0.036682
0.0378319
0.039666
0.0419646
0.044447
0.0468037
0.0500025
0.123223
1.34667
)
;
        Cmu             0.09;
        kappa           0.41;
        E               9.8;
        value           nonuniform List<scalar> 
50
(
0.00344722
0.00761291
0.0136781
0.020248
0.0273151
0.0350994
0.0439005
0.0540895
0.0738365
0.103833
0.144238
0.195836
0.273207
0.433184
0.592963
0.687263
0.725602
0.712
0.658376
0.581862
0.50545
0.43217
0.36157
0.295769
0.237481
0.188768
0.15039
0.121717
0.101101
0.0864712
0.075871
0.0677906
0.0612434
0.0556925
0.0509425
0.0469471
0.0435235
0.0406176
0.0383769
0.0369314
0.036361
0.036682
0.0378319
0.039666
0.0419646
0.044447
0.0468037
0.0500025
0.123223
1.34667
)
;
    }
    rightWall
    {
        type            epsilonWallFunction;
        value           nonuniform List<scalar> 
50
(
0.00991996
0.0148261
0.0233253
0.0322683
0.0417629
0.0520779
0.06385
0.0760823
0.0896119
0.106377
0.115251
0.114405
0.132931
0.112995
0.0998157
0.0973626
0.0915831
0.0713993
0.0531223
0.0372313
0.034069
0.039783
0.0475139
0.0542956
0.0590765
0.0626628
0.0660906
0.0696956
0.0737257
0.0776303
0.0809414
0.083743
0.0859936
0.0872709
0.0871681
0.0862123
0.0854239
0.0856348
0.0869921
0.0889586
0.0913317
0.0941741
0.0970379
0.100566
0.105776
0.112498
0.120454
0.129114
0.13743
0.143217
)
;
        Cmu             0.09;
        kappa           0.41;
        E               9.8;
        value           nonuniform List<scalar> 
50
(
0.00991996
0.0148261
0.0233253
0.0322683
0.0417629
0.0520779
0.06385
0.0760823
0.0896119
0.106377
0.115251
0.114405
0.132931
0.112995
0.0998157
0.0973626
0.0915831
0.0713993
0.0531223
0.0372313
0.034069
0.039783
0.0475139
0.0542956
0.0590765
0.0626628
0.0660906
0.0696956
0.0737257
0.0776303
0.0809414
0.083743
0.0859936
0.0872709
0.0871681
0.0862123
0.0854239
0.0856348
0.0869921
0.0889586
0.0913317
0.0941741
0.0970379
0.100566
0.105776
0.112498
0.120454
0.129114
0.13743
0.143217
)
;
    }
    lowerWall
    {
        type            epsilonWallFunction;
        value           nonuniform List<scalar> 
62
(
0.00344722
0.0202915
0.0387986
0.05804
0.0774162
0.0963402
0.114279
0.130783
0.145495
0.158178
0.168943
0.17837
0.186196
0.19235
0.196293
0.196446
0.189898
0.179601
0.166542
0.147033
0.113454
0.0659457
0.0179755
0.0179755
0.0261344
0.0387168
0.0485337
0.0577874
0.0735267
0.107943
0.204013
0.325958
0.312266
0.338284
0.416405
0.0165755
0.0197469
0.0314807
0.0471036
0.0683433
0.0996452
0.152231
0.272771
0.0165755
0.0780303
0.126812
0.152902
0.165397
0.164898
0.151684
0.132667
0.107056
0.0829167
0.0766789
0.0736279
0.0584726
0.0514769
0.054811
0.0577382
0.0532065
0.0354022
0.00991996
)
;
        Cmu             0.09;
        kappa           0.41;
        E               9.8;
        value           nonuniform List<scalar> 
62
(
0.00344722
0.0202915
0.0387986
0.05804
0.0774162
0.0963402
0.114279
0.130783
0.145495
0.158178
0.168943
0.17837
0.186196
0.19235
0.196293
0.196446
0.189898
0.179601
0.166542
0.147033
0.113454
0.0659457
0.0179755
0.0179755
0.0261344
0.0387168
0.0485337
0.0577874
0.0735267
0.107943
0.204013
0.325958
0.312266
0.338284
0.416405
0.0165755
0.0197469
0.0314807
0.0471036
0.0683433
0.0996452
0.152231
0.272771
0.0165755
0.0780303
0.126812
0.152902
0.165397
0.164898
0.151684
0.132667
0.107056
0.0829167
0.0766789
0.0736279
0.0584726
0.0514769
0.054811
0.0577382
0.0532065
0.0354022
0.00991996
)
;
    }
    atmosphere
    {
        type            inletOutlet;
        inletValue      uniform 0.1;
        value           nonuniform List<scalar> 
46
(
0.1
0.136998
0.0392999
0.0280533
0.0262297
0.0260568
0.0263896
0.0270367
0.0280011
0.0293625
0.031279
0.0340411
0.038198
0.0448005
0.0556462
0.0721289
0.1
0.1
0.1
0.1
0.1
0.1
0.1
0.1
0.1
0.1
0.1
0.1
0.1
0.1
0.1
0.1
0.1
0.1
0.1
0.1
0.1
0.1
0.1
0.1
0.0715702
0.0627376
0.0577404
0.0573616
0.0676253
0.143217
)
;
    }
    defaultFaces
    {
        type            empty;
    }
}


// ************************************************************************* //
