/*--------------------------------*- C++ -*----------------------------------*\
| =========                 |                                                 |
| \\      /  F ield         | OpenFOAM: The Open Source CFD Toolbox           |
|  \\    /   O peration     | Version:  2.3.0                                 |
|   \\  /    A nd           | Web:      www.OpenFOAM.org                      |
|    \\/     M anipulation  |                                                 |
\*---------------------------------------------------------------------------*/
FoamFile
{
    version     2.0;
    format      ascii;
    class       volScalarField;
    location    "2.75";
    object      nut;
}
// * * * * * * * * * * * * * * * * * * * * * * * * * * * * * * * * * * * * * //

dimensions      [0 2 -1 0 0 0 0];

internalField   nonuniform List<scalar> 
2268
(
2.93394e-05
3.58811e-05
4.47506e-05
5.12788e-05
5.64487e-05
6.06355e-05
6.4043e-05
6.68093e-05
6.90388e-05
7.08238e-05
7.23342e-05
7.36017e-05
7.46105e-05
7.53736e-05
7.58175e-05
7.57162e-05
7.46431e-05
7.31202e-05
7.11372e-05
6.78945e-05
6.19212e-05
5.18556e-05
3.43843e-05
7.00526e-05
0.000308764
0.000421699
0.000499612
0.000558761
0.000604817
0.000640929
0.000669404
0.000692055
0.000710302
0.000724737
0.000735462
0.000743621
0.000749114
0.000750813
0.000746475
0.000733153
0.00070915
0.000669251
0.000607186
0.000513842
0.000369174
0.000104625
8.59897e-05
0.000561186
0.000829744
0.00100712
0.00113664
0.00123363
0.00130648
0.00136125
0.00140266
0.00143434
0.00145856
0.00147647
0.001489
0.00149512
0.00149169
0.00147349
0.00143406
0.00136773
0.00126518
0.00111337
0.000897848
0.000598303
0.000118688
9.864e-05
0.000761748
0.00118331
0.00145691
0.00165193
0.00179461
0.00189919
0.00197571
0.00203181
0.00207328
0.00210398
0.00212577
0.00213909
0.00214183
0.00212906
0.00209317
0.00202474
0.0019138
0.00174654
0.00150489
0.00117073
0.000734733
0.000127429
0.000109513
0.00092745
0.00148894
0.00184997
0.00210286
0.00228493
0.00241636
0.00251097
0.00257909
0.00262837
0.00266395
0.00268791
0.00270025
0.00269797
0.00267479
0.0026214
0.00252602
0.00237468
0.00214844
0.00182343
0.00137899
0.000818431
0.000133847
0.000119491
0.00106968
0.00175658
0.00219564
0.00249905
0.00271485
0.00286896
0.00297878
0.00305703
0.00311296
0.00315269
0.00317825
0.00318925
0.00318205
0.00314949
0.00308116
0.00296354
0.0027793
0.00250438
0.00210758
0.00156021
0.000872206
0.00014364
0.000129071
0.00119524
0.00199432
0.00250283
0.00285033
0.00309508
0.00326842
0.00339108
0.00347797
0.00353972
0.0035833
0.00361049
0.00362061
0.00360962
0.00356987
0.00349036
0.00335654
0.00314872
0.00283871
0.00238783
0.00175393
0.000938015
0.000160862
0.000138565
0.00130819
0.00220847
0.00277913
0.00316537
0.00343508
0.00362474
0.00375818
0.00385237
0.00391919
0.00396648
0.0039956
0.00400567
0.00399248
0.00394818
0.00386164
0.00371798
0.00349655
0.0031671
0.00268669
0.00200139
0.00107857
0.000196414
3.37831e-05
5.57609e-05
6.54269e-05
6.96001e-05
7.13392e-05
7.11591e-05
6.91399e-05
6.62685e-05
6.1815e-05
5.67519e-05
5.54367e-05
5.47069e-05
5.08274e-05
4.89165e-05
4.98311e-05
5.06476e-05
4.92e-05
4.30445e-05
4.44829e-05
0.000110513
0.000457739
0.000602213
0.000666632
0.000688567
0.000680596
0.000650955
0.000612389
0.000532108
0.000475137
0.000517884
0.000532721
0.000465397
0.00040003
0.000407095
0.00045329
0.000421956
0.00030898
0.000101195
0.000127904
0.000773226
0.00113261
0.00130566
0.00137079
0.00136337
0.00130458
0.00122425
0.00110062
0.00100905
0.00105307
0.00106547
0.000958024
0.000839892
0.000832707
0.000867219
0.000771763
0.000503098
0.00011757
0.00014624
0.000988227
0.00155126
0.00183719
0.00195329
0.00195778
0.00188531
0.00177983
0.00164066
0.00153621
0.00155646
0.00154928
0.00142324
0.00127625
0.00123065
0.00121899
0.00105185
0.000659548
0.000130742
0.000165046
0.00116847
0.00190255
0.00228598
0.0024492
0.00247058
0.00239653
0.00228012
0.00213964
0.00203187
0.0020214
0.00198771
0.00185154
0.00168923
0.00159938
0.00152788
0.00129505
0.000806885
0.000142127
0.00018655
0.00135311
0.00222508
0.00268142
0.00288124
0.00291915
0.00284904
0.00273203
0.00259707
0.00248849
0.00244781
0.00238661
0.00224215
0.00206933
0.00193851
0.00180555
0.00151215
0.000945005
0.000152544
0.000213531
0.00156784
0.00254316
0.00304359
0.00326669
0.00331784
0.00325418
0.0031422
0.0030149
0.00290458
0.0028369
0.00274969
0.00259643
0.00241361
0.00224661
0.00205513
0.00170383
0.0010632
0.000162671
0.000258929
0.00183095
0.00287214
0.00338575
0.00361796
0.00367741
0.00362092
0.00351627
0.00339555
0.00328176
0.00319062
0.00308001
0.0029168
0.00272308
0.00252417
0.00228032
0.00187289
0.00116093
0.000172118
0.000153691
0.00147099
0.0025158
0.00317378
0.00361333
0.00391654
0.00412755
0.00427486
0.00437847
0.00445203
0.00450332
0.00453388
0.00454319
0.00452721
0.00447835
0.00438602
0.00423609
0.00400875
0.00367506
0.00319582
0.00253237
0.00169195
0.000820091
0.00017197
0.00166497
0.00287329
0.00363077
0.00412876
0.00446577
0.00469609
0.00485489
0.00496637
0.00504626
0.00510139
0.00513513
0.00514757
0.00513525
0.00509122
0.00500641
0.00487012
0.00466959
0.00438942
0.00401567
0.00354664
0.0029946
0.00243174
0.000190987
0.00184846
0.00321557
0.00406536
0.00460965
0.00496588
0.00520155
0.00536018
0.00547061
0.00555033
0.00560646
0.00564281
0.00566047
0.00565652
0.00562412
0.0055553
0.00544324
0.0052836
0.00507415
0.00481972
0.00453189
0.00421324
0.00390093
0.000208513
0.00202759
0.00358464
0.00452925
0.00510177
0.00545428
0.00567478
0.00581738
0.00591594
0.00598891
0.00604246
0.0060794
0.00610301
0.00611045
0.0060927
0.00604182
0.00595514
0.0058368
0.00569002
0.00552898
0.00537906
0.00520576
0.00501356
0.000228059
0.00217113
0.0040346
0.00506898
0.00561536
0.0059334
0.00611991
0.00623228
0.00630973
0.00637129
0.00641895
0.00645522
0.00648834
0.00651186
0.00650809
0.00647111
0.00640259
0.00631707
0.00620971
0.0061131
0.00603267
0.00592033
0.00578973
0.000261136
0.00245092
0.00443031
0.00548734
0.0059983
0.00628598
0.00645784
0.00655385
0.00661597
0.00667037
0.00671737
0.00675978
0.00680783
0.00684987
0.00685562
0.00682318
0.00676654
0.00668768
0.00660641
0.00655804
0.00650291
0.00642552
0.0063369
0.000297544
0.00250776
0.00443447
0.00555858
0.00616122
0.00646052
0.00663837
0.00674408
0.00681236
0.00687068
0.00692491
0.00697533
0.00703384
0.00708845
0.00710183
0.00708209
0.00704442
0.00698825
0.00693277
0.00690513
0.00685693
0.00679915
0.00673985
0.00031553
0.00250761
0.0043998
0.00558596
0.00625037
0.0065448
0.0067297
0.00685179
0.00693299
0.00699973
0.00706278
0.00711804
0.00718394
0.00723845
0.00726253
0.00725916
0.00724054
0.00721613
0.00719471
0.0071695
0.00711889
0.00706616
0.00701976
0.000324276
0.00248009
0.00433492
0.00554114
0.00622504
0.00653869
0.00674557
0.00689382
0.00699498
0.00707397
0.00714435
0.00721048
0.00728129
0.00733969
0.00737239
0.00738111
0.00737446
0.00736211
0.00735058
0.00732415
0.007284
0.00724818
0.0072297
0.000324879
0.00237906
0.00416335
0.00534157
0.00603329
0.00641869
0.00668495
0.00687584
0.00700735
0.00710353
0.00718478
0.00726253
0.00733936
0.00740519
0.00744817
0.00747004
0.00747375
0.00746151
0.00744192
0.00742063
0.00740133
0.00739185
0.00739232
0.00031841
0.00220535
0.00389638
0.00505293
0.00577562
0.00623942
0.00657626
0.00681572
0.00698024
0.00709801
0.00719309
0.00727903
0.00736228
0.00743866
0.00749667
0.00753473
0.00755098
0.00754544
0.00753037
0.00751781
0.00751249
0.00751523
0.00752159
0.000307072
0.00199516
0.00357438
0.00471182
0.0054752
0.00601937
0.00642913
0.00671777
0.00691408
0.00705476
0.00716641
0.00726416
0.00735713
0.00744611
0.00752159
0.00757763
0.00760925
0.007617
0.00761259
0.00760837
0.00760997
0.00761649
0.00762302
0.000292873
0.00170567
0.00319558
0.00431302
0.00511759
0.00573909
0.00621204
0.00655267
0.00679256
0.00696651
0.00710233
0.00721865
0.0073264
0.00742964
0.00752272
0.00759644
0.00764381
0.00766631
0.00767419
0.00767845
0.0076849
0.0076932
0.00769963
0.000278437
0.00143688
0.00279291
0.0038742
0.0047046
0.00537373
0.00591535
0.00631977
0.00661489
0.00683254
0.00700139
0.00714294
0.00727041
0.00738981
0.00749808
0.0075866
0.00764884
0.0076864
0.00770765
0.00772184
0.00773445
0.00774617
0.00775481
0.000262855
0.00123186
0.00243644
0.00345817
0.00429035
0.00498755
0.00557078
0.00603797
0.00639372
0.00666032
0.00686775
0.00703921
0.00718975
0.00732645
0.00744813
0.00754904
0.00762498
0.00767756
0.00771323
0.00773932
0.00776066
0.00777874
0.0077926
0.000246041
0.00108835
0.00215484
0.00310641
0.0039208
0.00462813
0.0052379
0.00574453
0.00614853
0.00646238
0.00671011
0.00691356
0.00708811
0.00724224
0.00737699
0.00748966
0.00757868
0.007646
0.00769659
0.00773601
0.00776834
0.00779541
0.00781712
0.000228464
0.000993622
0.00195046
0.00283575
0.00362279
0.00432548
0.00494524
0.00547438
0.00591037
0.00626128
0.00654307
0.00677495
0.00697197
0.00714311
0.00729131
0.00741607
0.00751812
0.00759987
0.0076653
0.00771867
0.00776332
0.00780109
0.0078324
0.000210968
0.000935449
0.00181357
0.00264453
0.00340293
0.00409244
0.00470953
0.00524626
0.00569931
0.00607386
0.00638141
0.00663652
0.00685263
0.00703872
0.00719928
0.0073362
0.00745136
0.0075472
0.00762697
0.00769415
0.00775146
0.00780065
0.00784232
0.000194543
0.000904133
0.00173103
0.00252161
0.00325431
0.00392686
0.00453339
0.00506698
0.00552508
0.00591163
0.00623551
0.00650758
0.00673896
0.00693813
0.00711039
0.00725893
0.00738629
0.00749516
0.00758838
0.00766868
0.00773829
0.00779878
0.00785071
0.00018004
0.000892066
0.00168974
0.00245218
0.00316294
0.00381735
0.00440924
0.00493344
0.00538882
0.00577906
0.00611152
0.00639491
0.00663788
0.00684813
0.00703111
0.00719059
0.00732949
0.00745046
0.00755599
0.00764831
0.00772924
0.00780005
0.00786129
0.000167951
0.00089249
0.001677
0.00242037
0.00311241
0.0037489
0.00432491
0.00483724
0.00528613
0.00567547
0.00601169
0.00630222
0.00655401
0.00677366
0.00696639
0.00713607
0.00728569
0.00741777
0.00753447
0.00763764
0.00772876
0.00780883
0.00787826
0.000158292
0.000898747
0.00168037
0.00241086
0.00308704
0.00370714
0.00426828
0.00476903
0.00521079
0.00559767
0.00593558
0.00623101
0.00649007
0.00671796
0.00691969
0.00709892
0.00725849
0.00740071
0.00752747
0.00764029
0.00774036
0.00782846
0.00790489
0.000150684
0.000905005
0.00168901
0.00241098
0.00307449
0.00368113
0.0042301
0.00472143
0.0051574
0.00554234
0.00588179
0.0061816
0.00644717
0.00668302
0.00689332
0.00708158
0.00725042
0.00740187
0.00753758
0.00765883
0.00776658
0.00786144
0.0079436
0.000144572
0.000907961
0.00169601
0.00241294
0.00306764
0.00366478
0.00420524
0.00469021
0.00512272
0.0055073
0.00584925
0.0061539
0.00642609
0.00666989
0.00688855
0.00708546
0.0072629
0.00742269
0.00756627
0.00769471
0.00780883
0.00790911
0.00799571
0.000139448
0.000907654
0.00170003
0.00241514
0.00306514
0.0036569
0.00419251
0.00467421
0.00510571
0.0054918
0.00583757
0.0061479
0.00642712
0.00667883
0.00690582
0.00711093
0.00729624
0.00746339
0.00761365
0.00774799
0.0078671
0.00797145
0.00806116
0.000134972
0.00090659
0.00170455
0.00242131
0.00307026
0.00365993
0.00419348
0.00467428
0.00510682
0.00549605
0.00584681
0.00616355
0.00645009
0.0067096
0.00694458
0.00715714
0.00734937
0.00752272
0.00767834
0.00781716
0.00793984
0.00804683
0.00813831
0.000131003
0.000908978
0.00171534
0.00243733
0.00308807
0.00367744
0.00421045
0.00469186
0.00512682
0.00552029
0.00587676
0.00620017
0.00649389
0.00676066
0.00700271
0.00722176
0.00741967
0.00759781
0.0077573
0.00789906
0.00802378
0.00813197
0.0082239
0.000127553
0.000917971
0.00173622
0.00246616
0.00312071
0.00371088
0.0042443
0.00472735
0.00516559
0.0055638
0.00592606
0.00625582
0.006556
0.006829
0.00707679
0.00730089
0.00750291
0.0076842
0.00784588
0.00798894
0.00811415
0.00822211
0.00831321
0.000124517
0.000927562
0.00176451
0.00250578
0.00316584
0.00375824
0.00429342
0.00477911
0.00522114
0.00562407
0.00599159
0.00632678
0.00663218
0.00690993
0.00716178
0.00738916
0.00759348
0.00777609
0.00793821
0.00808091
0.00820508
0.00831147
0.00840058
0.000121823
0.000934635
0.00179538
0.00255109
0.00321862
0.0038154
0.00435408
0.00484336
0.00528934
0.00569649
0.00606831
0.00640761
0.00671668
0.00699744
0.00725151
0.00748023
0.00768493
0.00786703
0.00802785
0.00816861
0.00829035
0.00839397
0.00848012
0.000119638
0.000945218
0.00182712
0.00259763
0.00327449
0.00387764
0.00442116
0.00491453
0.00536424
0.00577486
0.00614985
0.00649185
0.00680301
0.00708507
0.00733953
0.00756771
0.00777096
0.0079508
0.00810874
0.00824616
0.00836429
0.00846418
0.00854664
0.00011814
0.000958154
0.00185827
0.00264274
0.00332953
0.00393981
0.00448863
0.00498612
0.00543915
0.00585254
0.00622972
0.00657326
0.00688516
0.00716702
0.00742026
0.00764622
0.00784638
0.00802245
0.00817615
0.0083091
0.00842271
0.00851821
0.00859655
0.00011745
0.000971632
0.00188731
0.00268384
0.00337968
0.00399676
0.0045507
0.00505212
0.00550823
0.00592396
0.00630275
0.00664707
0.00695874
0.00723925
0.00748996
0.00771228
0.00790797
0.00807904
0.00822749
0.00835518
0.00846374
0.00855451
0.00862855
0.00011762
0.000985177
0.0019127
0.0027184
0.00342155
0.00404452
0.00460326
0.00510857
0.00556779
0.00598586
0.00636613
0.00671087
0.00702172
0.00730004
0.00754719
0.00776478
0.00795497
0.00812019
0.00826279
0.00838488
0.00848822
0.00857425
0.00864409
0.000118592
0.000998465
0.00193346
0.00274503
0.00345355
0.00408153
0.00464484
0.00515422
0.00561687
0.00603758
0.00641947
0.00676458
0.00707434
0.00734997
0.00759289
0.00780506
0.00798918
0.00814821
0.0082849
0.00840152
0.00849988
0.00858144
0.00864734
0.000120197
0.00101113
0.00194943
0.0027639
0.00347615
0.00410847
0.00467632
0.00519006
0.00565658
0.00608035
0.0064642
0.00680988
0.00711858
0.00739146
0.00763003
0.00783672
0.00801489
0.00816813
0.00829948
0.00841125
0.00850515
0.00858259
0.00864478
0.000122187
0.00102255
0.00196089
0.00277611
0.00349101
0.00412731
0.00469976
0.00521816
0.00568894
0.0061162
0.00650243
0.00684911
0.00715728
0.00742809
0.00766318
0.00786544
0.00803888
0.00818769
0.00831497
0.00842278
0.00851269
0.00858614
0.00864451
0.000124272
0.00103163
0.00196774
0.00278264
0.00349982
0.00414005
0.0047172
0.00524045
0.00571575
0.00614684
0.00653593
0.00688438
0.00719328
0.00746393
0.00769814
0.00789895
0.0080708
0.00821784
0.00834267
0.00844707
0.00853274
0.00860151
0.00865527
0.000126218
0.00103595
0.00196825
0.00278342
0.00350356
0.00414804
0.00473
0.0052581
0.00573795
0.00617303
0.00656547
0.00691679
0.00722852
0.00750259
0.00774124
0.00794724
0.00812427
0.00827354
0.00839679
0.00849662
0.00857601
0.00863797
0.00868524
0.000130382
0.00102063
0.001951
0.00277466
0.0035019
0.00415193
0.00473879
0.00527145
0.00575552
0.00619445
0.00659053
0.0069458
0.00726285
0.00754525
0.00779726
0.00802202
0.00821923
0.00837509
0.00849395
0.00858404
0.00865211
0.00870316
0.00874092
0.000182106
0.000850518
0.00184632
0.00273828
0.00349196
0.0041518
0.00474381
0.00528034
0.00576781
0.00620992
0.00660932
0.00696878
0.00729234
0.00758667
0.00786296
0.00813259
0.00838772
0.00854877
0.00865051
0.00871902
0.00876715
0.00880157
0.0088262
0.00043697
0.000466119
0.00149774
0.00264148
0.00347144
0.00414857
0.00474555
0.00528463
0.00577408
0.00621804
0.00661946
0.00698162
0.00730938
0.00761207
0.00791322
0.00825925
0.00869365
0.00882342
0.0088752
0.00890325
0.00892117
0.00893341
0.00894192
0.000238137
0.000233338
0.000240325
0.000259529
0.00206832
0.00200381
0.00202595
0.002155
0.00375013
0.003716
0.00374466
0.00384194
0.00491493
0.00488805
0.00490149
0.00495063
0.00571212
0.00568192
0.00567801
0.0057004
0.00628144
0.00625497
0.0062443
0.00625397
0.00670404
0.00668632
0.00667931
0.00668304
0.0070031
0.00699938
0.00700013
0.00700204
0.00722864
0.00723019
0.0072321
0.00723254
0.00739742
0.00740001
0.00740038
0.00739791
0.00752668
0.0075283
0.0075269
0.00752208
0.00762634
0.00762661
0.00762375
0.00761737
0.00770215
0.00770191
0.00769864
0.0076919
0.00775858
0.00775919
0.0077569
0.00775124
0.0077997
0.0078025
0.00780253
0.00779927
0.00782928
0.0078353
0.00783864
0.00783875
0.00785071
0.00786059
0.00786779
0.00787181
0.00786724
0.00788121
0.00789247
0.00790054
0.00788217
0.00790017
0.00791538
0.00792735
0.00789881
0.00792065
0.00793954
0.00795511
0.00792106
0.00794628
0.00796841
0.00798714
0.00795211
0.00798015
0.00800495
0.00802626
0.00799435
0.00802458
0.00805145
0.00807473
0.00804906
0.00808088
0.00810919
0.00813383
0.00811619
0.00814897
0.00817812
0.00820351
0.0081941
0.00822724
0.00825664
0.0082822
0.00827957
0.00831249
0.00834158
0.00836679
0.00836794
0.00840012
0.00842843
0.00845282
0.00845366
0.00848468
0.00851181
0.00853503
0.00853101
0.00856053
0.0085862
0.00860802
0.00859496
0.00862278
0.00864684
0.00866715
0.0086421
0.00866815
0.00869057
0.00870937
0.00867133
0.00869565
0.00871649
0.00873388
0.00868423
0.00870693
0.00872632
0.00874244
0.00868501
0.00870623
0.0087243
0.00873929
0.0086801
0.00869991
0.00871675
0.00873069
0.00867736
0.00869569
0.00871122
0.00872405
0.00868508
0.00870161
0.00871556
0.00872704
0.00871094
0.00872507
0.00873692
0.00874664
0.00876099
0.0087719
0.00878099
0.0087884
0.00883898
0.00884585
0.00885153
0.00885614
0.00894624
0.00894855
0.00895044
0.00895197
0.00135993
0.002589
0.00342713
0.00389404
0.00411839
0.00418516
0.00414579
0.00405315
0.00393877
0.00381625
0.00369303
0.00354985
0.00336918
0.00315634
0.00291289
0.00259682
0.00210402
0.00128789
0.000181215
0.0028422
0.00363318
0.00419643
0.00453852
0.00471355
0.00477023
0.00474565
0.00466088
0.00454325
0.00440103
0.0042426
0.00406329
0.003855
0.00361195
0.00332006
0.00293194
0.00234882
0.00141931
0.000190966
0.00412647
0.00455679
0.00489744
0.00511946
0.0052361
0.00527364
0.00525558
0.00518111
0.00505177
0.00488298
0.00468998
0.00447709
0.00423961
0.00396596
0.00363228
0.00318709
0.0025342
0.00151954
0.000195303
0.00507929
0.00530158
0.00549492
0.00562551
0.00569159
0.00570695
0.00568681
0.00561656
0.00546989
0.00527021
0.00504471
0.00480087
0.00453411
0.0042303
0.00385987
0.00336881
0.00266405
0.00159
0.000193898
0.00576731
0.00588481
0.00598788
0.00605276
0.00607545
0.00605836
0.00600755
0.00591359
0.00575247
0.00553838
0.00529479
0.00503079
0.0047406
0.00440939
0.00400783
0.00348188
0.0027342
0.00161208
0.000204452
0.00628937
0.00634713
0.00638906
0.0064043
0.00638557
0.00632735
0.00622864
0.00608883
0.00590341
0.00568244
0.00543184
0.00515347
0.00484267
0.00449012
0.00407122
0.00352702
0.00275208
0.00159236
0.00019478
0.00669609
0.00671133
0.00671124
0.00668796
0.00663257
0.00653665
0.00639637
0.00621439
0.00599694
0.0057542
0.00548598
0.00518559
0.00484578
0.00446344
0.00401934
0.0034586
0.00268118
0.00154041
0.00018767
0.00700353
0.00699141
0.00696273
0.00690852
0.00681931
0.00668692
0.00650938
0.00628932
0.00603699
0.00576299
0.00546497
0.00513329
0.00475908
0.00434137
0.00386972
0.0033016
0.0025495
0.0014833
0.000187154
0.00722666
0.0071982
0.00714787
0.00706705
0.00694799
0.00678488
0.00657595
0.00632392
0.00603778
0.00572701
0.00539037
0.00501813
0.00460151
0.0041451
0.00365025
0.00308692
0.00238135
0.00139535
0.000184191
0.00738582
0.00734678
0.00728094
0.00718067
0.00703965
0.00685348
0.00662021
0.00634123
0.00602308
0.00567319
0.00529177
0.00487141
0.00440792
0.00391003
0.00338819
0.00282283
0.00215309
0.00127236
0.000169167
0.00750534
0.00745847
0.00738242
0.00726975
0.00711467
0.00691312
0.00666269
0.00636337
0.006019
0.00563402
0.00520877
0.00473955
0.00422609
0.00367863
0.00311102
0.00251372
0.0018431
0.00102397
0.000152667
0.00759793
0.00754667
0.0074654
0.0073468
0.00718506
0.00697589
0.0067163
0.00640519
0.00604386
0.00563373
0.00517417
0.00466389
0.00410438
0.00350458
0.00287869
0.00223037
0.00155074
0.000823075
0.000135131
0.00767208
0.00762023
0.00753852
0.00741977
0.00725789
0.00704813
0.00678708
0.00647279
0.00610462
0.00568211
0.00520427
0.00467029
0.00408179
0.00344614
0.00277768
0.00208782
0.00139148
0.000713748
0.000131379
0.00773355
0.00768492
0.007607
0.00749281
0.00733604
0.00713152
0.00687557
0.00656571
0.00620036
0.00577838
0.00529902
0.00476196
0.00416918
0.00352798
0.00285016
0.00214825
0.00143687
0.000737661
0.000138209
0.00778602
0.00774385
0.00767305
0.00756689
0.00741904
0.00722413
0.00697836
0.00667914
0.00632459
0.00591351
0.00544539
0.00492056
0.00434149
0.00371473
0.00304949
0.00235385
0.00162547
0.000858436
0.00014656
0.0078316
0.00779819
0.0077367
0.0076408
0.00750431
0.00732192
0.00708984
0.00680547
0.00646691
0.00607296
0.00562314
0.00511774
0.00455848
0.00394927
0.0032945
0.0025936
0.00183325
0.000987322
0.000153119
0.00787167
0.00784821
0.00779713
0.00771257
0.00758865
0.00742029
0.00720377
0.00693646
0.00661637
0.00624213
0.00581289
0.00532807
0.00478745
0.00419095
0.00353653
0.00281499
0.00200363
0.00107141
0.000157573
0.00790761
0.00789436
0.00785389
0.00778078
0.00766962
0.00751561
0.00731512
0.00706538
0.0067642
0.00640982
0.0060006
0.00553461
0.00500916
0.00442003
0.00375915
0.00301036
0.00214568
0.00113741
0.000161077
0.00794132
0.0079378
0.00790742
0.00784523
0.00774626
0.00760604
0.00742097
0.00718813
0.00690501
0.00656923
0.00617815
0.00572831
0.00521458
0.00462911
0.00395913
0.00318407
0.00227433
0.0012064
0.000164379
0.00797527
0.00798045
0.00795916
0.0079069
0.00781907
0.00769148
0.00752056
0.00730321
0.00703649
0.00671732
0.00634203
0.00590557
0.00540065
0.00481643
0.00413668
0.00333808
0.0023911
0.00127478
0.000167636
0.00801252
0.00802484
0.00801125
0.0079676
0.00788957
0.00777308
0.00761465
0.00741093
0.00715854
0.00685371
0.00649166
0.00606594
0.00556732
0.00498256
0.00429232
0.00347111
0.00248961
0.00132846
0.000171132
0.00805586
0.00807384
0.00806636
0.00802962
0.00795965
0.00785257
0.00770477
0.00751264
0.00727237
0.00697944
0.00662811
0.00621057
0.00571598
0.00512919
0.00442933
0.00358899
0.00257584
0.00136958
0.00017414
0.00810751
0.00812971
0.00812678
0.00809531
0.00803162
0.007932
0.00779276
0.00761007
0.00737967
0.00709641
0.00675367
0.00634251
0.00585074
0.00526171
0.00455295
0.0036952
0.0026534
0.00140541
0.000176582
0.00816876
0.00819376
0.00819392
0.00816616
0.00810708
0.00801311
0.00788053
0.00770528
0.0074827
0.00720708
0.00687102
0.00646463
0.00597459
0.00538297
0.00466588
0.00379228
0.00272458
0.00143808
0.000178578
0.00823958
0.00826606
0.00826794
0.00824248
0.00818652
0.00809662
0.00796901
0.00779947
0.00758297
0.00731327
0.00698228
0.00657929
0.00609002
0.00549539
0.00477023
0.00388185
0.00279032
0.00146811
0.00018007
0.00831845
0.0083452
0.00834762
0.00832325
0.00826916
0.00818202
0.00805805
0.00789283
0.00768102
0.0074159
0.00708877
0.00668817
0.0061989
0.00560087
0.00486766
0.00396506
0.0028511
0.00149572
0.000180677
0.00840238
0.00842835
0.00843033
0.00840609
0.00835292
0.0082676
0.0081463
0.00798445
0.00777641
0.00751502
0.00719099
0.00679217
0.00630251
0.00570089
0.00495966
0.00404318
0.00290783
0.00152202
0.000180336
0.00848704
0.00851143
0.00851225
0.00848751
0.00843467
0.00835059
0.00823144
0.00807248
0.00786779
0.00760979
0.00728867
0.00689157
0.00640159
0.00579659
0.00504767
0.00411779
0.00296202
0.00154808
0.000179688
0.00856735
0.00858961
0.00858886
0.00856331
0.00851057
0.00842758
0.00831048
0.0081544
0.00795315
0.00769878
0.00738093
0.00698608
0.00649647
0.00588888
0.00513312
0.00419065
0.0030152
0.00157406
0.000179348
0.00863811
0.00865798
0.00865555
0.00862919
0.00857667
0.00849498
0.00838025
0.00822749
0.00803026
0.00778025
0.00746659
0.0070751
0.00658715
0.0059784
0.00521724
0.00426339
0.00306874
0.00159986
0.000179803
0.00869489
0.00871237
0.00870841
0.00868155
0.00862964
0.00854976
0.00843804
0.00828937
0.00809712
0.00785261
0.00754453
0.007158
0.00667353
0.00606558
0.00530096
0.00433728
0.00312386
0.00162586
0.000181003
0.00873482
0.00875015
0.00874503
0.00871812
0.00866743
0.00859008
0.00848222
0.00833866
0.00815258
0.007915
0.00761414
0.00723449
0.00675564
0.00615078
0.00538494
0.00441324
0.00318174
0.0016536
0.000182503
0.00875725
0.00877079
0.00876499
0.00873864
0.00868986
0.00861587
0.00851284
0.00837552
0.00819694
0.00796784
0.00767598
0.0073052
0.00683416
0.00623468
0.00546983
0.00449195
0.00324327
0.00168418
0.000184245
0.008764
0.00877619
0.00877022
0.00874505
0.00869892
0.00862916
0.00853196
0.00840208
0.00823239
0.00801336
0.00773228
0.0073723
0.00691104
0.00631888
0.00555678
0.00457406
0.00330889
0.00171787
0.000186245
0.0087593
0.00877052
0.00876487
0.00874146
0.0086987
0.00863404
0.00854375
0.00842257
0.00826325
0.00805596
0.00778745
0.00744003
0.00699017
0.00640659
0.00564804
0.0046608
0.00337916
0.00175583
0.000188213
0.00874928
0.00875978
0.00875481
0.00873369
0.00869498
0.00863632
0.00855408
0.00844302
0.00829577
0.00810213
0.00784816
0.00751506
0.00707775
0.00650308
0.00574748
0.00475423
0.00345413
0.00179694
0.000190599
0.00874115
0.00875097
0.00874692
0.00872851
0.00869453
0.00864281
0.0085699
0.00847065
0.00833757
0.00816003
0.0079231
0.00760631
0.00718229
0.00661555
0.00586053
0.00485765
0.00353438
0.00183892
0.000193799
0.00874233
0.00875127
0.0087482
0.00873284
0.00870424
0.00866046
0.00859832
0.00851287
0.00839665
0.00823853
0.00802222
0.00772447
0.00731402
0.00675197
0.0059929
0.0049746
0.00362158
0.00188261
0.00019766
0.00875954
0.0087672
0.00876505
0.00875301
0.00873036
0.00869549
0.00864564
0.00857628
0.00848024
0.00834611
0.00815583
0.0078817
0.0074846
0.00691873
0.00614672
0.00510539
0.00371544
0.00192779
0.000201967
0.00879821
0.0088041
0.00880273
0.00879417
0.00877791
0.00875278
0.00871659
0.00866563
0.00859356
0.00848945
0.00833385
0.00809257
0.00770979
0.00711728
0.00631545
0.00524227
0.00381034
0.00197169
0.000206407
0.00886222
0.00886589
0.00886515
0.0088601
0.00885047
0.00883553
0.00881392
0.00878315
0.0087387
0.00867188
0.00856464
0.00837743
0.00802263
0.00733887
0.00647776
0.00536522
0.00389276
0.00200827
0.000210473
0.00895398
0.0089552
0.00895497
0.00895334
0.00895022
0.00894538
0.00893838
0.00892837
0.00891371
0.0088908
0.00885052
0.00876419
0.0085188
0.00754253
0.0065911
0.00544248
0.00394271
0.00202926
0.000213201
)
;

boundaryField
{
    leftWall
    {
        type            nutkWallFunction;
        Cmu             0.09;
        kappa           0.41;
        E               9.8;
        value           nonuniform List<scalar> 
50
(
5.61949e-06
8.4695e-06
1.02406e-05
1.16126e-05
1.27736e-05
1.38284e-05
1.48368e-05
1.58369e-05
1.74403e-05
1.93713e-05
2.14132e-05
2.35176e-05
2.74293e-05
3.14604e-05
3.49714e-05
3.79219e-05
3.77269e-05
3.70758e-05
3.57739e-05
3.39617e-05
3.20103e-05
2.99968e-05
2.7833e-05
2.55231e-05
2.31354e-05
2.07801e-05
1.85832e-05
1.66527e-05
1.5046e-05
1.37552e-05
1.2722e-05
1.18691e-05
1.113e-05
1.04642e-05
1.00058e-05
9.55274e-06
8.98862e-06
8.40964e-06
8.05697e-06
7.82211e-06
7.72424e-06
7.77094e-06
7.95031e-06
8.23221e-06
8.57443e-06
8.9299e-06
9.25596e-06
9.74273e-06
1.68064e-05
4.77152e-05
)
;
    }
    rightWall
    {
        type            nutkWallFunction;
        Cmu             0.09;
        kappa           0.41;
        E               9.8;
        value           nonuniform List<scalar> 
50
(
8.95673e-06
1.19893e-05
1.38165e-05
1.52804e-05
1.6545e-05
1.77036e-05
1.88381e-05
1.98751e-05
2.08875e-05
2.19972e-05
2.25371e-05
2.27747e-05
2.15511e-05
2.00795e-05
1.96612e-05
1.96885e-05
1.91802e-05
1.60972e-05
1.33533e-05
1.09829e-05
1.05004e-05
1.15522e-05
1.2703e-05
1.33056e-05
1.40131e-05
1.47367e-05
1.51796e-05
1.56244e-05
1.6102e-05
1.6534e-05
1.68684e-05
1.7161e-05
1.73665e-05
1.72905e-05
1.72339e-05
1.71376e-05
1.70845e-05
1.72318e-05
1.73811e-05
1.75834e-05
1.78219e-05
1.80744e-05
1.82401e-05
1.85713e-05
1.90371e-05
1.96105e-05
2.0256e-05
2.09237e-05
2.15349e-05
2.19453e-05
)
;
    }
    lowerWall
    {
        type            nutkWallFunction;
        Cmu             0.09;
        kappa           0.41;
        E               9.8;
        value           nonuniform List<scalar> 
62
(
2.50276e-06
4.31841e-06
5.40314e-06
6.18777e-06
6.80676e-06
7.31056e-06
7.72481e-06
8.0652e-06
8.34261e-06
8.56575e-06
8.74745e-06
8.89991e-06
9.02193e-06
9.11505e-06
9.17256e-06
9.17133e-06
9.06574e-06
8.90066e-06
8.68232e-06
8.33009e-06
7.64804e-06
6.40555e-06
4.13614e-06
4.13614e-06
1.25063e-05
1.41274e-05
1.51431e-05
1.59535e-05
1.71519e-05
1.92465e-05
2.3341e-05
2.72992e-05
2.6906e-05
2.75903e-05
2.94495e-05
4.02924e-06
1.3096e-05
1.51156e-05
1.71281e-05
1.92021e-05
2.15495e-05
2.45066e-05
2.92813e-05
4.02924e-06
6.7995e-06
7.96451e-06
8.46012e-06
8.67383e-06
8.66222e-06
8.4302e-06
8.0774e-06
7.53738e-06
6.93226e-06
6.76045e-06
6.67099e-06
6.18559e-06
5.93435e-06
6.05641e-06
6.16065e-06
5.99238e-06
5.22674e-06
3.7811e-06
)
;
    }
    atmosphere
    {
        type            calculated;
        value           nonuniform List<scalar> 
46
(
0.009
0.000466119
0.00149774
0.00264148
0.00347144
0.00414857
0.00474555
0.00528463
0.00577408
0.00621804
0.00661946
0.00698162
0.00730938
0.00761207
0.00791322
0.00825925
0.009
0.009
0.009
0.009
0.009
0.009
0.009
0.009
0.009
0.009
0.009
0.009
0.009
0.009
0.009
0.009
0.009
0.009
0.009
0.009
0.009
0.009
0.009
0.009
0.00754253
0.0065911
0.00544248
0.00394271
0.00202926
0.000213201
)
;
    }
    defaultFaces
    {
        type            empty;
    }
}


// ************************************************************************* //
