/*--------------------------------*- C++ -*----------------------------------*\
| =========                 |                                                 |
| \\      /  F ield         | OpenFOAM: The Open Source CFD Toolbox           |
|  \\    /   O peration     | Version:  2.3.0                                 |
|   \\  /    A nd           | Web:      www.OpenFOAM.org                      |
|    \\/     M anipulation  |                                                 |
\*---------------------------------------------------------------------------*/
FoamFile
{
    version     2.0;
    format      ascii;
    class       volScalarField;
    location    "2.75";
    object      p;
}
// * * * * * * * * * * * * * * * * * * * * * * * * * * * * * * * * * * * * * //

dimensions      [1 -1 -2 0 0 0 0];

internalField   nonuniform List<scalar> 
2268
(
819.404
817.256
814.523
810.974
806.89
802.416
797.625
792.553
787.206
781.57
775.632
769.357
762.731
755.722
748.278
740.29
731.771
723.568
716.061
709.468
703.749
700.209
699.487
760.974
758.971
756.291
752.779
748.681
744.151
739.276
734.098
728.63
722.862
716.77
710.329
703.5
696.255
688.584
680.553
672.581
664.625
656.895
649.723
643.965
640.914
640.586
702.744
700.844
698.223
694.771
690.666
686.077
681.104
675.8
670.182
664.246
657.965
651.307
644.231
636.722
628.825
620.812
613.268
605.419
597.724
590.62
584.867
581.383
580.996
644.798
642.842
640.17
636.742
632.625
627.983
622.927
617.518
611.776
605.692
599.243
592.392
585.106
577.385
569.316
561.221
553.673
546.063
538.476
531.341
525.496
521.579
520.886
587.087
584.965
582.129
578.667
574.519
569.827
564.707
559.221
553.385
547.19
540.606
533.599
526.14
518.245
510.018
501.755
493.94
486.347
478.87
471.809
465.973
461.617
460.633
529.563
527.209
524.137
520.596
516.397
511.652
506.475
500.931
495.028
488.748
482.057
474.917
467.305
459.239
450.829
442.356
434.246
426.436
418.962
412.145
406.603
401.966
400.187
472.186
469.554
466.215
462.569
458.301
453.489
448.256
442.664
436.708
430.363
423.579
416.319
408.56
400.312
391.683
382.963
374.56
366.548
359.052
352.455
347.365
342.726
339.358
414.929
411.997
408.383
404.601
400.242
395.341
390.03
384.376
378.363
371.954
365.072
357.695
349.797
341.372
332.524
323.572
314.925
306.748
299.194
292.711
287.983
283.493
277.807
674.41
678.45
682.132
684.463
685.547
686.133
687.082
689.445
692.703
697.066
703.563
708.839
714.029
717.515
720.24
726.221
734.294
739.979
741.046
618.163
620.011
622.631
624.502
625.659
626.591
628.129
631.674
637.399
642.524
647.26
651.47
657.165
660.706
662.796
667.355
674.692
680.51
682.531
561.6
561.554
562.893
564.267
565.413
566.782
569.077
573.677
580.88
586.75
590.262
594.301
599.866
604.27
605.034
608.777
615.371
620.802
623.657
504.795
503.953
503.885
504.617
505.722
507.414
510.156
515.66
522.919
529.998
533.218
537.615
544.023
549.486
549.551
551.313
556.854
561.394
564.8
447.723
446.333
444.971
445.234
446.395
448.507
451.142
457.523
465.372
474.257
478.714
483.999
490.322
495.417
495.63
495.155
499.021
502.451
506.252
389.666
387.517
385.548
385.759
387.195
389.743
391.867
399.184
409.246
418.782
424.275
429.315
436.586
441.191
441.628
440.21
441.796
444.18
448.196
330.236
327.073
325.407
326.095
328.113
331.103
332.639
340.402
351.901
362.529
368.212
372.896
382.297
386.869
387.609
385.697
385.023
386.667
390.718
269.749
265.371
264.685
266.317
269.348
273.058
274.68
280.798
293.28
304.824
310.427
315.518
325.61
331.866
333.529
330.478
328.451
329.865
333.848
325.579
322.153
318.113
314.044
309.484
304.373
298.892
293.126
287.024
280.52
273.491
265.969
257.922
249.306
240.185
230.926
221.975
213.544
205.745
199.081
194.249
189.845
184.687
204.514
200.062
195.403
190.907
185.868
180.329
174.693
169.067
163.185
156.851
150.067
142.706
134.798
126.245
116.947
107.584
98.9058
91.2734
84.7663
79.4809
74.8746
70.376
64.6206
89.2229
84.4445
80.3003
76.5767
72.6075
68.6351
64.847
61.0694
57.1683
53.3098
49.0612
44.2751
39.209
34.1932
29.3159
24.5275
20.2486
16.8596
14.6242
13.4916
12.534
10.7121
8.11443
17.9726
15.2019
13.1648
12.2176
12.0959
11.9481
11.3405
10.2206
8.92453
7.7137
6.26116
4.40576
2.69258
1.77373
1.80623
1.82656
1.66259
1.48896
1.60148
2.13616
2.64413
2.63549
2.28283
1.59522
0.988606
0.646309
1.23835
2.73571
3.95051
4.52899
4.55778
4.2598
3.82574
3.17012
2.21554
1.51675
1.38997
1.36831
1.30886
1.15683
0.999989
1.0167
1.33285
1.57391
1.58181
1.29612
0.49999
0.0921343
-0.0972222
-0.007197
0.486243
1.45635
2.03531
1.97082
1.58864
1.33151
1.02146
0.660494
0.642047
0.754566
0.750444
0.651744
0.530208
0.374613
0.251871
0.307781
0.314644
0.122075
-0.119451
-0.400252
-0.635255
-0.710302
-0.785759
-0.748953
-0.317682
-0.0981361
-0.272647
-0.549625
-0.612205
-0.622979
-0.556023
-0.201938
-0.0682005
-0.0851985
-0.186273
-0.295254
-0.451488
-0.654336
-0.769709
-0.737778
-0.926954
-1.06551
-1.1448
-1.2332
-1.22243
-1.24146
-1.25722
-1.20174
-1.21635
-1.28779
-1.30259
-1.29968
-1.27155
-1.18977
-1.06096
-0.986647
-0.98489
-1.00339
-1.09005
-1.18062
-1.2511
-1.33066
-1.33233
-1.30046
-1.27829
-1.51596
-1.57889
-1.56564
-1.50924
-1.47056
-1.41287
-1.36902
-1.38854
-1.42189
-1.43814
-1.43993
-1.44162
-1.48596
-1.5027
-1.49138
-1.49117
-1.51131
-1.50509
-1.47391
-1.47253
-1.45754
-1.44505
-1.42842
-1.7117
-1.76072
-1.77213
-1.74254
-1.70763
-1.66276
-1.61628
-1.58459
-1.58371
-1.5941
-1.59716
-1.59958
-1.60807
-1.61113
-1.61311
-1.61424
-1.61496
-1.60923
-1.60207
-1.5969
-1.5892
-1.57973
-1.56915
-1.88699
-1.92412
-1.94297
-1.95115
-1.94381
-1.90291
-1.87015
-1.83462
-1.80546
-1.77761
-1.76013
-1.75575
-1.76556
-1.76393
-1.75768
-1.75263
-1.74976
-1.74492
-1.73822
-1.7327
-1.72481
-1.71567
-1.708
-2.04317
-2.07385
-2.092
-2.11277
-2.12286
-2.09963
-2.07596
-2.05176
-2.01862
-1.97552
-1.94368
-1.93189
-1.93022
-1.92918
-1.91992
-1.90867
-1.89652
-1.88543
-1.87662
-1.8705
-1.86239
-1.85381
-1.84662
-2.17929
-2.20439
-2.21666
-2.23373
-2.2428
-2.226
-2.19611
-2.17012
-2.14471
-2.12675
-2.11092
-2.09515
-2.07767
-2.07154
-2.06584
-2.05506
-2.03919
-2.02338
-2.01278
-2.0061
-1.99946
-1.992
-1.98508
-2.29995
-2.31669
-2.32408
-2.33297
-2.33544
-2.32343
-2.30441
-2.28457
-2.26497
-2.24802
-2.23336
-2.21974
-2.20784
-2.19895
-2.1911
-2.18064
-2.16715
-2.15477
-2.14527
-2.13844
-2.13313
-2.12761
-2.12183
-2.4126
-2.42042
-2.42518
-2.42987
-2.43055
-2.42332
-2.41073
-2.3965
-2.38179
-2.36795
-2.35518
-2.34339
-2.33268
-2.32353
-2.31466
-2.30474
-2.29395
-2.28398
-2.2758
-2.26933
-2.26399
-2.25949
-2.2551
-2.52302
-2.52387
-2.52681
-2.52996
-2.53045
-2.52612
-2.51796
-2.50794
-2.49705
-2.48614
-2.47553
-2.46539
-2.45585
-2.44709
-2.43852
-2.42962
-2.4206
-2.41229
-2.40519
-2.39925
-2.3942
-2.38981
-2.38584
-2.63404
-2.63045
-2.63144
-2.63361
-2.63425
-2.63189
-2.62679
-2.61988
-2.61188
-2.60341
-2.59481
-2.58631
-2.57806
-2.57016
-2.56242
-2.55465
-2.54702
-2.53997
-2.53374
-2.52834
-2.52365
-2.51956
-2.51593
-2.74649
-2.74066
-2.7398
-2.74101
-2.74169
-2.74057
-2.73747
-2.7328
-2.72701
-2.72054
-2.71371
-2.70675
-2.69981
-2.69298
-2.68624
-2.67956
-2.67309
-2.66704
-2.66156
-2.65669
-2.65237
-2.64859
-2.64523
-2.86049
-2.85402
-2.85179
-2.85206
-2.85255
-2.85206
-2.85021
-2.84707
-2.84293
-2.83806
-2.83274
-2.82715
-2.82143
-2.81569
-2.80996
-2.80428
-2.79877
-2.79356
-2.78875
-2.78436
-2.78041
-2.7769
-2.77379
-2.97599
-2.96981
-2.96682
-2.96628
-2.96643
-2.96616
-2.965
-2.96289
-2.95993
-2.95631
-2.9522
-2.94777
-2.94313
-2.93838
-2.93358
-2.92879
-2.92409
-2.91959
-2.91536
-2.91143
-2.90782
-2.90459
-2.90168
-3.09284
-3.08737
-3.08411
-3.08299
-3.08277
-3.08249
-3.0817
-3.08023
-3.0781
-3.0754
-3.07225
-3.06876
-3.06503
-3.06113
-3.05713
-3.0531
-3.04909
-3.0452
-3.04147
-3.03796
-3.03468
-3.0317
-3.02899
-3.21084
-3.20619
-3.20299
-3.20153
-3.20101
-3.20065
-3.20004
-3.19897
-3.1974
-3.19537
-3.19294
-3.19019
-3.18718
-3.18398
-3.18066
-3.17725
-3.17383
-3.17045
-3.16716
-3.16401
-3.16104
-3.15831
-3.1558
-3.32982
-3.32592
-3.32295
-3.32136
-3.32066
-3.32023
-3.3197
-3.31889
-3.3177
-3.31615
-3.31425
-3.31206
-3.30962
-3.30698
-3.30419
-3.30129
-3.29835
-3.2954
-3.2925
-3.28968
-3.28699
-3.2845
-3.28218
-3.44961
-3.44633
-3.44364
-3.44207
-3.44133
-3.4409
-3.44043
-3.43977
-3.43884
-3.43762
-3.43611
-3.43433
-3.43232
-3.43012
-3.42776
-3.42528
-3.42273
-3.42014
-3.41757
-3.41505
-3.41262
-3.41035
-3.40822
-3.5701
-3.56727
-3.56485
-3.56341
-3.56278
-3.56241
-3.562
-3.56144
-3.56068
-3.55968
-3.55844
-3.55696
-3.55527
-3.5534
-3.55138
-3.54924
-3.54701
-3.54473
-3.54245
-3.54019
-3.538
-3.53594
-3.53399
-3.69118
-3.68868
-3.68645
-3.68524
-3.68491
-3.68466
-3.68428
-3.68376
-3.68308
-3.68222
-3.68116
-3.67989
-3.67845
-3.67683
-3.67507
-3.6732
-3.67124
-3.66923
-3.66719
-3.66517
-3.6632
-3.66134
-3.65958
-3.81375
-3.8115
-3.80954
-3.80835
-3.80799
-3.80768
-3.80719
-3.80662
-3.80596
-3.80515
-3.8042
-3.80308
-3.80181
-3.80039
-3.79884
-3.79719
-3.79546
-3.79367
-3.79186
-3.79005
-3.78829
-3.78661
-3.78503
-3.93821
-3.93614
-3.93442
-3.93311
-3.93219
-3.93137
-3.93063
-3.92992
-3.9292
-3.92841
-3.92751
-3.92649
-3.92534
-3.92407
-3.9227
-3.92123
-3.91969
-3.91811
-3.9165
-3.91489
-3.91331
-3.91182
-3.91041
-4.06312
-4.06142
-4.05978
-4.05832
-4.05673
-4.05536
-4.05435
-4.0535
-4.05271
-4.0519
-4.05102
-4.05007
-4.04902
-4.04788
-4.04664
-4.04534
-4.04397
-4.04256
-4.04114
-4.03971
-4.03832
-4.03699
-4.03574
-4.18685
-4.18571
-4.18419
-4.1825
-4.18072
-4.17926
-4.17815
-4.17722
-4.17638
-4.17556
-4.17471
-4.1738
-4.17283
-4.17179
-4.17068
-4.16952
-4.1683
-4.16706
-4.1658
-4.16455
-4.16332
-4.16216
-4.16107
-4.30981
-4.30877
-4.30735
-4.30579
-4.3043
-4.30301
-4.30194
-4.30101
-4.30017
-4.29935
-4.29853
-4.29767
-4.29677
-4.29582
-4.29482
-4.29378
-4.29271
-4.29162
-4.29052
-4.28942
-4.28835
-4.28735
-4.2864
-4.43281
-4.4317
-4.43038
-4.42907
-4.42783
-4.42672
-4.42574
-4.42486
-4.42404
-4.42325
-4.42246
-4.42165
-4.42082
-4.41995
-4.41905
-4.41813
-4.41719
-4.41624
-4.41529
-4.41434
-4.41342
-4.41256
-4.41174
-4.55596
-4.55485
-4.55362
-4.55247
-4.55142
-4.55047
-4.54959
-4.54878
-4.548
-4.54725
-4.5465
-4.54574
-4.54496
-4.54417
-4.54337
-4.54256
-4.54175
-4.54093
-4.54011
-4.53931
-4.53853
-4.53779
-4.5371
-4.67928
-4.67819
-4.67704
-4.67602
-4.67513
-4.67429
-4.67351
-4.67277
-4.67205
-4.67134
-4.67063
-4.66992
-4.6692
-4.66848
-4.66777
-4.66706
-4.66637
-4.66568
-4.665
-4.66433
-4.66367
-4.66306
-4.66248
-4.80272
-4.80169
-4.80063
-4.79973
-4.79894
-4.79822
-4.79752
-4.79685
-4.79618
-4.79552
-4.79485
-4.79418
-4.79351
-4.79286
-4.79223
-4.79163
-4.79105
-4.79049
-4.78994
-4.78939
-4.78886
-4.78836
-4.78789
-4.92627
-4.92532
-4.92436
-4.92355
-4.92287
-4.92223
-4.92162
-4.92101
-4.9204
-4.91977
-4.91915
-4.91851
-4.91789
-4.91729
-4.91673
-4.91623
-4.91578
-4.91535
-4.91493
-4.9145
-4.91408
-4.91369
-4.91331
-5.0499
-5.04904
-5.04818
-5.04748
-5.04689
-5.04633
-5.04579
-5.04525
-5.04469
-5.04411
-5.04351
-5.04291
-5.04231
-5.04174
-5.04125
-5.04086
-5.04055
-5.04026
-5.03997
-5.03966
-5.03935
-5.03905
-5.03875
-5.17354
-5.1728
-5.17205
-5.17146
-5.17096
-5.1705
-5.17003
-5.16955
-5.16904
-5.1685
-5.16793
-5.16734
-5.16675
-5.1662
-5.16574
-5.16548
-5.16535
-5.16523
-5.16507
-5.16487
-5.16466
-5.16444
-5.16422
-5.29715
-5.29655
-5.29594
-5.29547
-5.29508
-5.29471
-5.29433
-5.29391
-5.29346
-5.29296
-5.29241
-5.29181
-5.2912
-5.2906
-5.29013
-5.29006
-5.2902
-5.29027
-5.29024
-5.29015
-5.29002
-5.28987
-5.28971
-5.42066
-5.42024
-5.41983
-5.41951
-5.41925
-5.41899
-5.41869
-5.41835
-5.41794
-5.41747
-5.41691
-5.41628
-5.41556
-5.41477
-5.41406
-5.41436
-5.41506
-5.41542
-5.41552
-5.4155
-5.41543
-5.41533
-5.41522
-5.54405
-5.54396
-5.54382
-5.54366
-5.54353
-5.54338
-5.54317
-5.54288
-5.54251
-5.54204
-5.54144
-5.54071
-5.53976
-5.53846
-5.53695
-5.53788
-5.5399
-5.54072
-5.54094
-5.54095
-5.54089
-5.54082
-5.54074
-5.66782
-5.66805
-5.66789
-5.66774
-5.66768
-5.66761
-5.66749
-5.6673
-5.66704
-5.66669
-5.66623
-5.66562
-5.66475
-5.66331
-5.66102
-5.66135
-5.66481
-5.66598
-5.66629
-5.66637
-5.66638
-5.66637
-5.66635
177.882
174.109
171.416
169.967
59.7692
57.1778
55.2889
54.3233
6.21444
5.41686
4.89287
4.56005
1.98996
1.82262
1.69057
1.5914
1.07987
0.974402
0.887947
0.841486
-0.171529
-0.210347
-0.196227
-0.161296
-1.09248
-1.08849
-1.05422
-1.01653
-1.27646
-1.28192
-1.28915
-1.29436
-1.42118
-1.41882
-1.41812
-1.41794
-1.56513
-1.56395
-1.5635
-1.56306
-1.70566
-1.70503
-1.70489
-1.70489
-1.84455
-1.84378
-1.84335
-1.84299
-1.98222
-1.98086
-1.97979
-1.97885
-2.11814
-2.11615
-2.11451
-2.11316
-2.25149
-2.2494
-2.24746
-2.24581
-2.38298
-2.38091
-2.37885
-2.37703
-2.51321
-2.51118
-2.50907
-2.50716
-2.64262
-2.64058
-2.63841
-2.63646
-2.77127
-2.76925
-2.76707
-2.7651
-2.89926
-2.89728
-2.89513
-2.89319
-3.02669
-3.02478
-3.0227
-3.02082
-3.15363
-3.15182
-3.14983
-3.14804
-3.28015
-3.27845
-3.27658
-3.27491
-3.40633
-3.40475
-3.40302
-3.40147
-3.53225
-3.53079
-3.5292
-3.52778
-3.65798
-3.65663
-3.65518
-3.65389
-3.78357
-3.78234
-3.78102
-3.77985
-3.90908
-3.90797
-3.90676
-3.90571
-4.03455
-4.03354
-4.03245
-4.03151
-4.16001
-4.1591
-4.15811
-4.15727
-4.28546
-4.28465
-4.28376
-4.28301
-4.41092
-4.4102
-4.40941
-4.40874
-4.53639
-4.53576
-4.53505
-4.53447
-4.66188
-4.66132
-4.66071
-4.66019
-4.78737
-4.78689
-4.78636
-4.78592
-4.91288
-4.91248
-4.91202
-4.91164
-5.03841
-5.03807
-5.03769
-5.03737
-5.16395
-5.16368
-5.16337
-5.16311
-5.28951
-5.28929
-5.28905
-5.28885
-5.41508
-5.41492
-5.41475
-5.4146
-5.54064
-5.54054
-5.54043
-5.54033
-5.66632
-5.66628
-5.66624
-5.66621
169.35
168.158
169.311
172.443
177.726
184.616
191.005
194.624
203.431
212.704
219.374
225.573
234.086
241.063
243.981
242.629
241.58
242.433
245.641
54.0795
54.4413
56.1895
59.2257
65.1205
76.153
90.3092
98.6756
103.594
108.561
112.754
116.358
120.225
123.997
126.455
127.135
127.614
128.95
132.279
4.39273
4.66398
5.37611
6.41967
8.33295
13.5891
22.4631
29.6817
31.6028
32.8213
33.5894
34.215
35.0888
36.3074
37.2942
37.9424
38.5264
40.5315
43.3507
1.47521
1.46381
1.48748
1.52155
1.50897
1.20061
0.541596
0.0888899
-0.0135402
0.0293043
-0.319427
-0.269532
0.19296
0.669763
0.917564
1.02185
1.28779
2.15762
2.97156
0.79699
0.733993
0.701629
0.658184
0.572855
0.414761
0.202097
-0.0102972
-0.257223
-0.505879
-0.635275
-0.697864
-0.809565
-0.939308
-0.985807
-0.972801
-0.942616
-0.940371
-0.951386
-0.160085
-0.222084
-0.276876
-0.324151
-0.395617
-0.499624
-0.603925
-0.680123
-0.796865
-0.900214
-0.962699
-0.993976
-1.02268
-1.05061
-1.07795
-1.09105
-1.09114
-1.08638
-1.0785
-0.999626
-1.01075
-1.04062
-1.06942
-1.1012
-1.14312
-1.18672
-1.20447
-1.19519
-1.18856
-1.1897
-1.19301
-1.18974
-1.19769
-1.21207
-1.21636
-1.21396
-1.20964
-1.2055
-1.29257
-1.28686
-1.28969
-1.29857
-1.30552
-1.31008
-1.31269
-1.32172
-1.32489
-1.32534
-1.32609
-1.33008
-1.33823
-1.34526
-1.34724
-1.34447
-1.34091
-1.33892
-1.34169
-1.41926
-1.42116
-1.42443
-1.42906
-1.43399
-1.4396
-1.44619
-1.45297
-1.45615
-1.45688
-1.45739
-1.46137
-1.469
-1.47242
-1.47271
-1.47224
-1.47329
-1.47622
-1.48258
-1.56262
-1.56434
-1.56662
-1.57014
-1.57507
-1.58038
-1.58489
-1.58862
-1.58956
-1.58805
-1.58652
-1.58927
-1.59487
-1.59978
-1.60264
-1.60496
-1.60982
-1.61526
-1.61802
-1.70454
-1.70471
-1.70558
-1.70827
-1.71266
-1.71719
-1.72075
-1.72277
-1.72173
-1.72073
-1.72064
-1.72363
-1.72918
-1.73466
-1.73887
-1.74061
-1.74134
-1.74216
-1.74296
-1.84212
-1.84007
-1.83957
-1.8411
-1.84418
-1.84767
-1.85107
-1.8527
-1.85309
-1.855
-1.85989
-1.86366
-1.86702
-1.87006
-1.87131
-1.86922
-1.86568
-1.86515
-1.86784
-1.97717
-1.97468
-1.97359
-1.97384
-1.97541
-1.97804
-1.98061
-1.98272
-1.98474
-1.98802
-1.99301
-1.99709
-1.99946
-1.99989
-1.99772
-1.99579
-1.99401
-1.99463
-1.9972
-2.11129
-2.10926
-2.10762
-2.10684
-2.10701
-2.10853
-2.11057
-2.1131
-2.11522
-2.1175
-2.12016
-2.12307
-2.12518
-2.12542
-2.12482
-2.12556
-2.12704
-2.12845
-2.12938
-2.24365
-2.24195
-2.24055
-2.2394
-2.23885
-2.23914
-2.24018
-2.24179
-2.24352
-2.24512
-2.24711
-2.24919
-2.25083
-2.25172
-2.25262
-2.25492
-2.2581
-2.26049
-2.26109
-2.37463
-2.37268
-2.3716
-2.37068
-2.36993
-2.36936
-2.36949
-2.37032
-2.37146
-2.37277
-2.37437
-2.37608
-2.3776
-2.37884
-2.3803
-2.38258
-2.38539
-2.38793
-2.38882
-2.50467
-2.50256
-2.50113
-2.50025
-2.49948
-2.49862
-2.49839
-2.4988
-2.49957
-2.50059
-2.50189
-2.50336
-2.50481
-2.50621
-2.50779
-2.50981
-2.51199
-2.51364
-2.5135
-2.63395
-2.63175
-2.63013
-2.62893
-2.62798
-2.62724
-2.62694
-2.62715
-2.6277
-2.62851
-2.62956
-2.63081
-2.63217
-2.63359
-2.63514
-2.63689
-2.63859
-2.63987
-2.63934
-2.76261
-2.7604
-2.75868
-2.75735
-2.75632
-2.75558
-2.75524
-2.75531
-2.75573
-2.75639
-2.75728
-2.75836
-2.75959
-2.76093
-2.76239
-2.76393
-2.76538
-2.76665
-2.76625
-2.89076
-2.88859
-2.88686
-2.88548
-2.88443
-2.88369
-2.8833
-2.88328
-2.88358
-2.88415
-2.88493
-2.88589
-2.88697
-2.88819
-2.88951
-2.89086
-2.89211
-2.89326
-2.89275
-3.01848
-3.01639
-3.0147
-3.01333
-3.01228
-3.01155
-3.01114
-3.01105
-3.01126
-3.01173
-3.01242
-3.01326
-3.01422
-3.01531
-3.01647
-3.01764
-3.01867
-3.01941
-3.01891
-3.14583
-3.14386
-3.14223
-3.1409
-3.13988
-3.13917
-3.13875
-3.13862
-3.13876
-3.13914
-3.13972
-3.14045
-3.14131
-3.14226
-3.14326
-3.14423
-3.14502
-3.14536
-3.14475
-3.27286
-3.27101
-3.26948
-3.26822
-3.26725
-3.26656
-3.26614
-3.26598
-3.26607
-3.26638
-3.26687
-3.2675
-3.26824
-3.26905
-3.26988
-3.27066
-3.27122
-3.27121
-3.27035
-3.39959
-3.39789
-3.39647
-3.3953
-3.39438
-3.39373
-3.39332
-3.39316
-3.3932
-3.39345
-3.39385
-3.39438
-3.395
-3.39567
-3.39633
-3.39693
-3.3973
-3.39701
-3.39592
-3.52607
-3.52454
-3.52324
-3.52216
-3.52131
-3.5207
-3.52032
-3.52014
-3.52016
-3.52035
-3.52068
-3.52111
-3.52161
-3.52213
-3.52262
-3.52303
-3.52321
-3.52271
-3.52174
-3.65236
-3.65099
-3.64982
-3.64883
-3.64806
-3.6475
-3.64714
-3.64697
-3.64697
-3.64711
-3.64737
-3.64771
-3.64808
-3.64845
-3.64874
-3.64891
-3.64878
-3.64793
-3.64682
-3.77849
-3.77728
-3.77623
-3.77535
-3.77466
-3.77415
-3.77382
-3.77366
-3.77364
-3.77374
-3.77394
-3.77419
-3.77444
-3.77464
-3.77473
-3.7746
-3.77404
-3.77265
-3.77089
-3.90451
-3.90345
-3.90253
-3.90174
-3.90113
-3.90068
-3.90038
-3.90023
-3.9002
-3.90027
-3.90041
-3.90058
-3.90072
-3.90078
-3.90066
-3.90022
-3.89921
-3.89736
-3.89519
-4.03045
-4.02953
-4.02873
-4.02804
-4.0275
-4.0271
-4.02684
-4.0267
-4.02667
-4.02672
-4.02681
-4.02692
-4.02697
-4.02691
-4.02662
-4.02594
-4.02459
-4.0224
-4.01987
-4.15634
-4.15555
-4.15486
-4.15426
-4.15379
-4.15345
-4.15322
-4.1531
-4.15307
-4.1531
-4.15317
-4.15322
-4.15322
-4.15307
-4.15268
-4.15187
-4.15037
-4.14807
-4.14545
-4.28219
-4.28153
-4.28094
-4.28042
-4.28002
-4.27972
-4.27953
-4.27943
-4.27941
-4.27943
-4.27948
-4.27951
-4.27947
-4.27929
-4.27886
-4.27804
-4.27655
-4.2743
-4.27192
-4.40803
-4.40747
-4.40697
-4.40653
-4.40619
-4.40594
-4.40579
-4.40571
-4.40569
-4.40572
-4.40577
-4.40579
-4.40574
-4.40555
-4.40514
-4.40437
-4.403
-4.40084
-4.3985
-4.53385
-4.53338
-4.53296
-4.5326
-4.53231
-4.53211
-4.53199
-4.53193
-4.53193
-4.53197
-4.53202
-4.53205
-4.53201
-4.53184
-4.53147
-4.53079
-4.52958
-4.52757
-4.52527
-4.65967
-4.65928
-4.65893
-4.65863
-4.65839
-4.65823
-4.65814
-4.65811
-4.65813
-4.65818
-4.65824
-4.65828
-4.65826
-4.65812
-4.6578
-4.65721
-4.65613
-4.65426
-4.65221
-4.78547
-4.78516
-4.78487
-4.78462
-4.78443
-4.78431
-4.78425
-4.78424
-4.78427
-4.78434
-4.78442
-4.78448
-4.78448
-4.78437
-4.78408
-4.78353
-4.7825
-4.78064
-4.77864
-4.91127
-4.91102
-4.91079
-4.91059
-4.91044
-4.91034
-4.9103
-4.91031
-4.91036
-4.91045
-4.91055
-4.91063
-4.91066
-4.91058
-4.9103
-4.90977
-4.90873
-4.90682
-4.90469
-5.03707
-5.03687
-5.03668
-5.03652
-5.03641
-5.03634
-5.03632
-5.03634
-5.03641
-5.0365
-5.03663
-5.03674
-5.03681
-5.03675
-5.03649
-5.03596
-5.03493
-5.03309
-5.03104
-5.16286
-5.16271
-5.16256
-5.16244
-5.16235
-5.1623
-5.16229
-5.16232
-5.16239
-5.1625
-5.16265
-5.1628
-5.16293
-5.16291
-5.16265
-5.16214
-5.16118
-5.15948
-5.1576
-5.28866
-5.28853
-5.28842
-5.28832
-5.28826
-5.28822
-5.28822
-5.28825
-5.28832
-5.28844
-5.2886
-5.28881
-5.28903
-5.28908
-5.28879
-5.28831
-5.28747
-5.28598
-5.28433
-5.41445
-5.41435
-5.41426
-5.41419
-5.41413
-5.4141
-5.4141
-5.41413
-5.41419
-5.4143
-5.41447
-5.41476
-5.41522
-5.41544
-5.41501
-5.4145
-5.41381
-5.41258
-5.41119
-5.54023
-5.54016
-5.54009
-5.54003
-5.53998
-5.53996
-5.53995
-5.53996
-5.54
-5.54008
-5.54024
-5.54069
-5.54176
-5.54229
-5.54137
-5.54073
-5.54019
-5.53928
-5.53821
-5.66618
-5.66614
-5.66611
-5.66608
-5.66605
-5.66603
-5.66601
-5.666
-5.66601
-5.66604
-5.66618
-5.66671
-5.66844
-5.66844
-5.66723
-5.66678
-5.66679
-5.6663
-5.66541
)
;

boundaryField
{
    leftWall
    {
        type            calculated;
        value           nonuniform List<scalar> 
50
(
819.404
760.974
702.744
644.798
587.087
529.563
472.186
414.929
325.579
204.514
89.2229
17.9726
1.59522
0.49999
-0.400252
-1.1448
-1.51596
-1.7117
-1.88699
-2.04317
-2.17929
-2.29995
-2.4126
-2.52302
-2.63404
-2.74649
-2.86049
-2.97599
-3.09284
-3.21084
-3.32982
-3.44961
-3.5701
-3.69118
-3.81375
-3.93821
-4.06312
-4.18685
-4.30981
-4.43281
-4.55596
-4.67928
-4.80272
-4.92627
-5.0499
-5.17354
-5.29715
-5.42066
-5.54405
-5.66782
)
;
    }
    rightWall
    {
        type            calculated;
        value           nonuniform List<scalar> 
50
(
741.046
682.531
623.657
564.8
506.252
448.196
390.718
333.848
245.641
132.279
43.3507
2.97156
-0.951386
-1.0785
-1.2055
-1.34169
-1.48258
-1.61802
-1.74296
-1.86784
-1.9972
-2.12938
-2.26109
-2.38882
-2.5135
-2.63934
-2.76625
-2.89275
-3.01891
-3.14475
-3.27035
-3.39592
-3.52174
-3.64682
-3.77089
-3.89519
-4.01987
-4.14545
-4.27192
-4.3985
-4.52527
-4.65221
-4.77864
-4.90469
-5.03104
-5.1576
-5.28433
-5.41119
-5.53821
-5.66541
)
;
    }
    lowerWall
    {
        type            calculated;
        value           nonuniform List<scalar> 
62
(
848.833
846.686
843.952
840.403
836.319
831.845
827.054
821.982
816.635
811
805.061
798.786
792.161
785.151
777.708
769.715
760.997
752.432
745.097
738.848
733.13
729.532
728.782
699.487
640.586
580.996
520.886
460.633
400.187
339.358
277.807
240.027
236.186
233.609
232.316
674.41
618.163
561.6
504.795
447.723
389.666
330.236
269.749
702.279
706.397
710.636
713.354
714.408
715.031
716.139
717.957
720.101
724.465
732.069
738.084
743.274
746.586
748.784
754.8
763.21
768.845
769.787
)
;
    }
    atmosphere
    {
        type            calculated;
        value           nonuniform List<scalar> 
46
(
-5.72905
-5.72904
-5.72904
-5.72904
-5.72904
-5.72904
-5.72904
-5.72904
-5.72904
-5.72904
-5.72904
-5.72904
-5.72904
-5.72904
-5.72904
-5.72904
-5.72904
-5.72906
-5.72908
-5.72911
-5.72915
-5.72918
-5.72921
-5.72923
-5.72924
-5.72925
-5.72925
-5.72926
-5.72926
-5.72926
-5.72925
-5.72924
-5.72922
-5.7292
-5.72917
-5.72915
-5.72912
-5.72909
-5.72906
-5.72904
-5.72904
-5.72904
-5.72947
-5.73066
-5.73066
-5.72951
)
;
    }
    defaultFaces
    {
        type            empty;
    }
}


// ************************************************************************* //
