/*--------------------------------*- C++ -*----------------------------------*\
| =========                 |                                                 |
| \\      /  F ield         | OpenFOAM: The Open Source CFD Toolbox           |
|  \\    /   O peration     | Version:  2.3.0                                 |
|   \\  /    A nd           | Web:      www.OpenFOAM.org                      |
|    \\/     M anipulation  |                                                 |
\*---------------------------------------------------------------------------*/
FoamFile
{
    version     2.0;
    format      ascii;
    class       volScalarField;
    location    "2.75";
    object      p_rgh;
}
// * * * * * * * * * * * * * * * * * * * * * * * * * * * * * * * * * * * * * //

dimensions      [1 -1 -2 0 0 0 0];

internalField   nonuniform List<scalar> 
2268
(
848.833
846.686
843.952
840.403
836.319
831.845
827.054
821.982
816.635
811
805.061
798.786
792.161
785.151
777.708
769.715
760.997
752.432
745.097
738.848
733.13
729.532
728.782
849.262
847.259
844.579
841.068
836.969
832.439
827.564
822.386
816.918
811.15
805.058
798.616
791.788
784.543
776.872
768.567
759.145
751.19
743.459
736.952
731.881
729.133
728.634
849.891
847.991
845.37
841.918
837.813
833.223
828.25
822.946
817.329
811.392
805.111
798.453
791.378
783.869
775.972
767.633
758.227
749.693
741.998
734.906
729.517
728.42
728.139
850.804
848.848
846.176
842.748
838.63
833.988
828.933
823.524
817.781
811.698
805.249
798.398
791.111
783.391
775.322
767.226
759.382
749.91
741.698
735.95
731.466
727.463
726.889
851.951
849.83
846.993
843.531
839.383
834.692
829.571
824.085
818.249
812.054
805.471
798.463
791.004
783.109
774.882
766.618
758.804
751.212
743.734
736.673
730.837
726.481
725.495
853.286
850.932
847.86
844.319
840.12
835.375
830.198
824.654
818.75
812.471
805.78
798.64
791.028
782.962
774.551
766.079
757.969
750.159
742.685
735.868
730.326
725.689
723.908
854.768
852.136
848.797
845.15
840.883
836.071
830.838
825.245
819.289
812.944
806.16
798.901
791.141
782.894
774.264
765.544
757.141
749.13
741.634
735.037
729.946
725.307
721.937
856.369
853.437
849.823
846.041
841.683
836.781
831.47
825.816
819.804
813.394
806.512
799.136
791.237
782.812
773.964
765.011
756.364
748.186
740.634
734.151
729.423
724.933
719.246
702.279
706.397
710.636
713.354
714.408
715.031
716.139
717.957
720.101
724.465
732.069
738.084
743.274
746.586
748.784
754.8
763.21
768.845
769.787
701.79
707.937
710.74
712.612
713.767
714.699
716.236
719.778
721.838
726.298
734.715
739.204
744.9
748.44
750.277
755.136
762.473
768.291
769.956
700.983
707.849
709.75
711.119
712.262
713.628
715.919
720.504
727.694
728.285
736.303
740.526
745.956
743.309
748.657
754.662
761.673
767.102
769.955
699.937
706.898
709.505
710.216
711.086
712.578
715.613
721.203
728.458
724.019
731.531
738.378
731.638
734.903
735.457
752.224
761.673
766.21
769.599
698.63
707.402
709.363
709.626
710.787
711.394
715.067
721.787
722.089
716.939
719.604
724.271
728.682
733.78
733.984
748.218
762.363
765.78
769.429
701.85
709.556
708.694
708.905
710.341
711.288
712.506
722.145
715.894
715.907
723.408
744.008
727.911
732.505
732.924
742.835
763.59
766.019
769.862
712.089
708.932
707.305
707.995
710.012
713.001
702.673
721.222
729.736
716.651
739.164
753.355
733.441
731.132
731.842
745.102
765.37
767.027
771.05
710.306
705.986
705.336
706.968
710.003
712.953
677.68
720.164
732.585
742.349
749.418
754.509
763.861
737.319
730.649
758.032
767.176
768.736
772.688
859.046
855.62
851.58
847.511
842.951
837.841
832.359
826.593
820.491
813.987
806.958
799.435
791.388
782.769
773.642
764.374
755.413
746.977
739.183
732.534
727.715
723.311
717.562
863.175
858.724
854.065
849.568
844.53
838.991
833.355
827.729
821.846
815.505
808.72
801.345
793.393
783.802
770.002
750.644
725.873
696.833
663.943
632.283
610.123
595.603
576.239
804.477
776.414
749.852
728.202
706.967
685.573
667.881
655.212
640.156
618.287
591.207
556.053
512.53
457.904
384.442
311.145
246.834
197.206
164.594
147.531
133.269
109.424
76.4371
246.785
208.273
172.781
147.171
123.938
107.966
94.89
78.8402
62.1928
52.3593
41.1334
29.8434
17.5535
5.16395
5.13926
5.11096
4.91611
4.7255
4.855
5.42475
7.58064
9.06714
7.06004
12.1548
7.86936
4.89784
5.5385
13.569
18.9497
20.7734
21.5827
23.1856
23.0032
22.7624
18.9351
10.475
5.31729
5.19762
5.03755
4.8391
4.6744
4.69897
6.22554
13.9018
15.4208
13.3326
13.4938
7.71907
3.55657
3.13204
17.4603
26.2974
26.8764
26.8381
26.4297
26.0448
25.5017
18.3546
5.73697
5.25963
6.3873
8.68499
6.88617
4.49529
4.41438
14.5075
15.9395
15.7469
15.084
13.2541
7.74297
2.77803
1.46233
7.395
20.8263
27.4495
24.0268
14.4317
12.862
11.7841
6.58398
5.86609
7.34916
11.0064
10.9059
10.7937
5.73888
3.38592
8.99676
13.1883
5.56494
0.21996
5.03493
4.5761
3.15139
0.636227
1.64709
2.6779
0.829342
0.237978
0.221107
0.219886
0.247357
0.670051
7.54516
10.3859
11.0242
11.134
9.59535
5.80436
1.06819
1.21765
0.0782859
0.110138
0.132287
0.346773
0.307956
1.061
0.407154
0.59462
2.08766
2.38802
0.271581
0.23262
0.215539
0.213875
0.212155
0.168874
0.16328
0.524238
0.558855
0.02948
0.032301
0.195465
0.0640892
0.0783526
0.0907855
0.107416
0.11073
-0.0268732
-0.0417468
0.23557
2.36349
3.26539
3.30909
1.7278
0.370358
0.234079
0.19153
0.189656
0.184991
0.202096
0.113337
0.052219
0.0478262
0.0528983
0.0638599
0.107977
0.127917
0.0836098
0.091914
-0.0182234
-0.104992
-0.134473
0.011212
2.30612
3.39862
3.4061
3.24643
2.12546
0.556298
0.184903
0.206037
0.371958
0.724421
0.730371
0.579091
0.0950983
0.0410257
0.051621
0.138486
0.163702
0.142919
0.0781877
-0.0960828
-0.147613
-0.17256
-0.0802479
1.115
1.49066
-0.00493098
-0.141148
-0.10796
0.834678
1.06824
1.05792
0.0349842
0.35515
0.74298
0.738653
0.351977
0.025244
0.0363808
0.124453
0.158542
0.167121
0.108461
-0.12869
-0.161045
-0.177145
-0.146899
-0.00199953
-0.180115
-0.160309
-0.13432
-0.108908
-0.0909861
-0.0580977
-0.0593517
0.00124919
-0.0317085
0.0686594
0.0938161
-0.00338435
0.0124249
0.023036
0.040137
0.134853
0.15884
0.13556
-0.133553
-0.1521
-0.161661
-0.169759
-0.172997
-0.160732
-0.14329
-0.123578
-0.103974
-0.0870248
-0.0723661
-0.0587472
-0.0468486
-0.0379507
-0.0301079
-0.0196467
-0.00615701
0.00622316
0.0157281
0.022561
0.0278699
0.0825278
0.112919
-0.124671
-0.1329
-0.138633
-0.143407
-0.144045
-0.136262
-0.124282
-0.110283
-0.0955976
-0.0817566
-0.0689919
-0.0571999
-0.0464886
-0.037344
-0.028467
-0.0185528
-0.00776072
0.00221635
0.0103917
0.0168648
0.0221973
0.0267083
0.0311373
-0.111145
-0.112118
-0.115282
-0.118508
-0.119012
-0.114565
-0.106426
-0.0965162
-0.085661
-0.07475
-0.0641413
-0.0540067
-0.0444612
-0.0357024
-0.0271353
-0.0182331
-0.00921767
-0.000908096
0.00619527
0.0121343
0.0171834
0.0216092
0.025611
-0.0973279
-0.0937565
-0.094809
-0.0970097
-0.0976551
-0.0953051
-0.0901916
-0.0832819
-0.0752937
-0.066825
-0.0582285
-0.0497274
-0.0414772
-0.0335813
-0.0258355
-0.0180657
-0.0104423
-0.00338757
0.00283893
0.00823593
0.0129285
0.0172673
0.0210917
-0.0846568
-0.0788493
-0.0780043
-0.079224
-0.0799097
-0.0787926
-0.0756956
-0.0710194
-0.0652279
-0.058759
-0.0519341
-0.0449726
-0.0380305
-0.0312041
-0.0244624
-0.0177884
-0.0113121
-0.00526281
0.000209356
0.00508279
0.00940157
0.0132362
0.0168733
-0.0734826
-0.0670332
-0.0648119
-0.0650846
-0.0655791
-0.0650908
-0.0632319
-0.0600991
-0.0559536
-0.0510913
-0.0457666
-0.0401752
-0.0344597
-0.0287174
-0.0229884
-0.0173155
-0.0118018
-0.00658883
-0.00177629
0.00260582
0.00655943
0.0100648
0.0131796
-0.0637794
-0.057628
-0.0546482
-0.0541119
-0.0542581
-0.0539889
-0.0528328
-0.0507192
-0.0477608
-0.0441383
-0.0400335
-0.0356018
-0.0309658
-0.0262163
-0.0214157
-0.0166257
-0.0119308
-0.00742928
-0.00319562
0.000734377
0.00433967
0.00757499
0.0104858
-0.055332
-0.0499873
-0.0467499
-0.0456307
-0.0454037
-0.0451315
-0.044339
-0.0428713
-0.0407419
-0.038043
-0.0348916
-0.0314005
-0.0276674
-0.0237707
-0.0197738
-0.0157387
-0.0117365
-0.00784189
-0.00411599
-0.000597526
0.00267972
0.0056576
0.00836748
-0.0481216
-0.0435743
-0.0404325
-0.0389775
-0.0384519
-0.0380976
-0.0374797
-0.0364118
-0.0348483
-0.0328192
-0.0303898
-0.0276351
-0.0246276
-0.0214312
-0.0181025
-0.0146964
-0.0112729
-0.00789291
-0.00460912
-0.00146129
0.00151022
0.00424131
0.00675356
-0.0418969
-0.0380005
-0.0351719
-0.0336081
-0.032908
-0.0324833
-0.0319536
-0.0311346
-0.0299526
-0.0283994
-0.026503
-0.0243087
-0.0218674
-0.0192284
-0.0164395
-0.0135474
-0.0106021
-0.00765539
-0.00475413
-0.00193747
0.000751811
0.00324816
0.00556577
-0.0365127
-0.0332707
-0.0306778
-0.0291259
-0.0283885
-0.0279531
-0.0274858
-0.0268266
-0.0258995
-0.0246773
-0.0231655
-0.0213881
-0.0193787
-0.0171742
-0.0148137
-0.0123365
-0.00978424
-0.00720153
-0.00463062
-0.00210894
0.000320902
0.00259471
0.00472165
-0.0319405
-0.0291244
-0.026709
-0.0252742
-0.0246405
-0.0242701
-0.023861
-0.0233032
-0.0225397
-0.02154
-0.0202976
-0.0188231
-0.0171375
-0.0152675
-0.0132444
-0.0111009
-0.00887205
-0.00659641
-0.00431199
-0.00205372
0.000137581
0.00220076
0.00414171
-0.0278405
-0.0253418
-0.0231159
-0.021911
-0.0215756
-0.0213275
-0.0209442
-0.0204259
-0.0197489
-0.0188853
-0.0178223
-0.0165616
-0.0151149
-0.0135008
-0.0117434
-0.00986977
-0.00790947
-0.0058957
-0.00386228
-0.00184106
0.00012996
0.00199355
0.00375367
0.0339355
0.0353179
0.0597978
0.042604
-0.00817593
-0.0191474
-0.0186661
-0.0180966
-0.017428
-0.0166264
-0.0156713
-0.0145559
-0.0132835
-0.0118652
-0.0103191
-0.00866682
-0.00693312
-0.00514623
-0.00333576
-0.00153009
0.000236199
0.00191018
0.00349494
0.0720693
0.0756548
0.0775382
0.0783271
0.0142646
-0.0176191
-0.0169046
-0.0162026
-0.0154791
-0.0146839
-0.013785
-0.0127654
-0.0116202
-0.0103538
-0.00897889
-0.00751217
-0.00597361
-0.00438681
-0.00277721
-0.00116951
0.00040539
0.00189901
0.00331431
0.0396902
0.0788221
0.0803507
0.0518881
-0.00372164
-0.016435
-0.0154364
-0.0145895
-0.013793
-0.0129804
-0.0121094
-0.0111549
-0.0101058
-0.00896146
-0.00772953
-0.00642233
-0.00505547
-0.00364821
-0.00222188
-0.000797468
0.000597916
0.00192019
0.00317274
-0.021294
0.0147264
0.00966607
-0.0145843
-0.0161218
-0.0150846
-0.0140343
-0.0131146
-0.0122732
-0.0114493
-0.0105994
-0.00969602
-0.0087253
-0.00768373
-0.00657542
-0.0054091
-0.00419651
-0.00295286
-0.00169549
-0.000441703
0.00078516
0.00194533
0.00304291
-0.020499
-0.0194003
-0.017999
-0.0164716
-0.0149936
-0.0136916
-0.0126276
-0.0117074
-0.0108641
-0.0100483
-0.00922425
-0.00836787
-0.00746632
-0.0065155
-0.00551769
-0.00447893
-0.00340759
-0.00231508
-0.00121483
-0.00012045
0.000948391
0.00195614
0.00290773
-0.0183141
-0.0171966
-0.0158804
-0.014571
-0.0133333
-0.0122204
-0.0112393
-0.0103615
-0.00954532
-0.00875508
-0.00796426
-0.00715508
-0.00631805
-0.00545035
-0.00455394
-0.00363312
-0.00269332
-0.00174219
-0.000789088
0.000155969
0.00107695
0.00194239
0.00275801
-0.0162723
-0.0151597
-0.0139251
-0.0127782
-0.0117321
-0.0107737
-0.00989656
-0.00908364
-0.0083118
-0.00755873
-0.00680714
-0.00604604
-0.00527041
-0.00448013
-0.00367822
-0.00286829
-0.00205303
-0.0012358
-0.000421612
0.000383201
0.00116608
0.00189952
0.00258981
-0.0143887
-0.0133024
-0.0121521
-0.0111372
-0.0102385
-0.00940746
-0.00862648
-0.00788323
-0.00716343
-0.0064537
-0.00574442
-0.00503081
-0.00431284
-0.00359422
-0.00288067
-0.00217661
-0.0014816
-0.000793329
-0.000111655
0.000560816
0.00121475
0.00182633
0.00240198
-0.0126407
-0.0116081
-0.0105476
-0.0096447
-0.00886249
-0.00813632
-0.00744152
-0.0067662
-0.00610024
-0.00543568
-0.00476844
-0.00409905
-0.00343263
-0.00277815
-0.00214639
-0.00154532
-0.00097022
-0.000409411
0.00014371
0.000690268
0.00122358
0.00172295
0.00219434
-0.0109984
-0.0100437
-0.0090797
-0.00827824
-0.00759482
-0.00695928
-0.00634281
-0.00573245
-0.00511956
-0.00449907
-0.00387048
-0.00323859
-0.00261385
-0.00201225
-0.00145373
-0.000956417
-0.00050744
-7.79117e-05
0.000347532
0.000772857
0.00119304
0.00158937
0.00196649
-0.00942568
-0.00856721
-0.00770774
-0.00700649
-0.0064157
-0.00586489
-0.00532316
-0.00477615
-0.00421518
-0.00363621
-0.00304058
-0.00243604
-0.00183829
-0.0012727
-0.000775016
-0.000387728
-8.22039e-05
0.0002053
0.000500301
0.000807945
0.00112213
0.00142465
0.0017174
-0.00787814
-0.00713316
-0.0063886
-0.0057942
-0.00529932
-0.0048349
-0.00436925
-0.00388677
-0.00337799
-0.0028384
-0.00226927
-0.00167938
-0.00108888
-0.000534607
-7.65788e-05
0.000182767
0.000309977
0.0004362
0.000596601
0.000790668
0.0010077
0.00122667
0.00144547
-0.00629498
-0.00568905
-0.00508153
-0.00461012
-0.0042227
-0.00385288
-0.0034691
-0.00305505
-0.00260016
-0.0020981
-0.00154756
-0.00095515
-0.000339841
0.000254782
0.000729032
0.000802097
0.000660861
0.000593227
0.000617122
0.000709794
0.000843969
0.000993447
0.0011502
-0.00460441
-0.00418603
-0.00377931
-0.00345987
-0.00319768
-0.00293442
-0.0026384
-0.00229351
-0.00188815
-0.00141225
-0.00085844
-0.000223577
0.00049494
0.00128754
0.00199529
0.00169509
0.000990623
0.000636144
0.000530699
0.000548708
0.000626155
0.000725414
0.000834385
-0.00280452
-0.00270815
-0.0025732
-0.00241202
-0.00228165
-0.002129
-0.00191739
-0.00163218
-0.00126116
-0.0007886
-0.000195386
0.00054181
0.00149099
0.00278704
0.00430051
0.00336445
0.00134696
0.000523251
0.000308461
0.000301932
0.000356432
0.000427802
0.000504721
-0.0013731
-0.00160864
-0.00144277
-0.00130213
-0.00124152
-0.00117071
-0.00104682
-0.000859051
-0.000597883
-0.000247977
0.00021322
0.000823472
0.00169303
0.00313493
0.00541785
0.0050933
0.00163009
0.000463813
0.000148229
7.38985e-05
6.51988e-05
7.50566e-05
9.16435e-05
707.488
703.141
701.433
701.318
560.394
546.481
539.251
539.015
49.6973
40.6999
36.1002
34.5615
6.3068
5.96299
5.72378
5.62249
8.41894
5.85721
5.48845
5.43016
14.985
10.3854
5.75296
5.95856
0.265811
1.01528
1.81253
3.66
0.134446
0.128908
0.122949
0.131275
0.114626
0.11707
0.11809
0.130758
0.0958012
0.0972401
0.107938
0.18554
0.0802637
0.0810041
0.0878092
0.137384
0.0664447
0.0671863
0.0795785
0.0983007
0.0539601
0.0552425
0.0562064
0.0610768
0.0431852
0.045134
0.0465802
0.0479189
0.0547638
0.0389185
0.0388134
0.0404443
0.0289974
0.0315515
0.0335998
0.0344984
0.023446
0.0254463
0.0276589
0.0295821
0.0193894
0.0212432
0.0233623
0.0253172
0.0157233
0.0178382
0.0199529
0.0218698
0.0129041
0.0148816
0.0170328
0.0189736
0.010669
0.0125751
0.0146593
0.0165392
0.00892585
0.0107368
0.0127213
0.01451
0.00759948
0.00929959
0.011162
0.0128369
0.00661181
0.00819328
0.00992162
0.0114695
0.00588705
0.00734799
0.00893892
0.0103549
0.00535524
0.00669751
0.00815364
0.00943962
0.00495509
0.00618246
0.00750978
0.00867169
0.00463616
0.00575323
0.00695917
0.00800519
0.00436018
0.00537177
0.00646397
0.00740304
0.00410078
0.0050118
0.00599746
0.00683826
0.00384194
0.0046573
0.00554286
0.00629315
0.0035754
0.00429995
0.005091
0.00575736
0.00329786
0.0039363
0.00463763
0.00522553
0.00300837
0.00356523
0.004181
0.00469503
0.00270651
0.0031861
0.00372008
0.00416424
0.00239144
0.00279786
0.00325359
0.00363158
0.00206185
0.00239905
0.00277997
0.00309531
0.00171609
0.00198801
0.00229749
0.00255361
0.00135404
0.00156463
0.00180606
0.00200637
0.000976916
0.00112896
0.00130546
0.00145437
0.000603676
0.000705177
0.000820869
0.000917591
0.000124965
0.000160685
0.000201533
0.000235465
701.745
700.577
701.778
704.915
710.168
710.625
634.053
652.627
708.812
729.017
741.109
752.423
764.285
771.263
772.422
766.143
758.406
769.342
775.833
540.342
536.62
534.082
536.877
564.577
603.455
581.619
481.035
532.523
564.948
595.437
631.937
675.527
708.859
732.787
739
743.657
731.405
715.819
36.8654
40.2997
47.3562
57.6212
79.5568
164.961
332.43
456.836
476.103
481.255
489.151
488.865
487.185
492.636
496.39
488.359
472.458
474.214
503.654
5.25499
5.03289
4.86662
4.73865
4.5179
4.20637
3.54603
3.02132
5.75677
10.3824
3.84956
5.16896
15.912
27.2617
30.8237
29.3908
29.8898
43.1524
59.0561
5.82484
7.42046
6.96679
6.58368
6.50475
6.09699
4.96974
3.25432
2.28265
2.01756
1.88435
1.85029
1.24539
0.124953
0.0754529
0.0867357
0.119347
0.131275
0.149599
9.80678
9.74766
9.68574
9.59045
9.42726
9.19532
8.89055
8.16929
5.045
2.68129
1.66381
1.46846
0.553186
0.13944
0.110231
0.0962632
0.0918932
0.0987096
0.163653
4.34033
3.60537
2.81532
2.63241
2.34
1.69373
0.337408
0.0964788
0.105377
0.111998
0.11086
0.107546
0.490621
0.572064
0.295663
0.0933055
0.0963096
0.101132
0.312223
0.123244
0.128919
0.126636
0.11846
0.111929
0.108717
0.109188
0.142804
0.104622
0.10197
0.101215
0.133463
0.405775
0.327483
0.12161
0.0914783
0.0959823
0.116986
0.379315
0.167909
0.187431
0.155029
0.134628
0.165275
0.196505
0.222601
0.237997
0.167601
0.0971837
0.0966663
0.0927694
0.0855468
0.0827769
0.082559
0.0858898
0.207427
0.397612
0.391261
0.198552
0.197158
0.183908
0.172189
0.211805
0.241888
0.241257
0.240265
0.14939
0.0927783
0.101848
0.147748
0.219265
0.277913
0.265231
0.295062
0.302073
0.294476
0.15544
0.177636
0.115363
0.0813682
0.0786046
0.0740741
0.0694303
0.130218
0.155908
0.0938685
0.096915
0.30331
0.334825
0.32928
0.323794
0.319463
0.269825
0.123119
0.0779546
0.0807567
0.0987377
0.0814569
0.0807528
0.0714579
0.0677173
0.0641725
0.0608252
0.0618054
0.108771
0.136023
0.26153
0.339139
0.335775
0.298727
0.0953852
0.0763892
0.0799214
0.0804577
0.13185
0.0887403
0.107849
0.108938
0.0975581
0.0645333
0.058635
0.0599762
0.122422
0.124194
0.112281
0.0574947
0.0762239
0.117943
0.0818475
0.0432286
0.091303
0.163229
0.162705
0.16014
0.0599014
0.10134
0.102748
0.103279
0.0966338
0.0528986
0.0505581
0.057
0.0738004
0.0484078
0.0412202
0.0382902
0.0361493
0.0358746
0.0364739
0.0747706
0.158291
0.161556
0.160623
0.0425423
0.0461722
0.0910932
0.0985928
0.0988574
0.0615965
0.0461256
0.0445171
0.0428005
0.0412235
0.0402729
0.0394851
0.0375009
0.0347849
0.033883
0.0317109
0.0280948
0.0574618
0.129253
0.0367561
0.0387003
0.039789
0.0694742
0.0814415
0.0480422
0.041992
0.0413592
0.0406874
0.0391649
0.0378056
0.0379586
0.0364565
0.0352051
0.0317281
0.0288118
0.0260007
0.023455
0.0226152
0.0319168
0.0340212
0.0354516
0.036326
0.0370968
0.0379629
0.0382631
0.0391517
0.0397657
0.0387408
0.0354187
0.0337165
0.0322638
0.0309666
0.0288614
0.0267707
0.0245926
0.024273
0.037033
0.0278253
0.0300209
0.0316449
0.0328437
0.0337903
0.0345388
0.0348299
0.0356585
0.0369639
0.0361552
0.035106
0.0316042
0.0296034
0.0281891
0.026635
0.0248828
0.023183
0.0277384
0.112864
0.024359
0.0265687
0.0282853
0.0296184
0.0306447
0.0313854
0.0317289
0.0316654
0.0320967
0.0336003
0.0327094
0.0315787
0.0273759
0.0260381
0.0245833
0.0230407
0.0215912
0.0276483
0.115408
0.0214024
0.0235707
0.0253036
0.0266803
0.0277336
0.0284754
0.0288603
0.0288836
0.0285826
0.0287532
0.0301471
0.0279116
0.0254351
0.0240519
0.0227667
0.0213131
0.0200544
0.0224343
0.118354
0.0188732
0.020963
0.0226598
0.024028
0.0250756
0.0258104
0.0262192
0.0263062
0.0260966
0.0256254
0.0249381
0.0241015
0.0233458
0.0223837
0.0212224
0.0197455
0.0186879
0.0189472
0.121617
0.0167172
0.018696
0.0203222
0.0216482
0.0226673
0.0233857
0.0238048
0.0239331
0.0237917
0.0234118
0.0228326
0.022098
0.0212403
0.0206314
0.0196145
0.018352
0.0175287
0.0171886
0.123701
0.0148917
0.0167355
0.0182664
0.0195262
0.0204993
0.0211907
0.0216079
0.0217623
0.0216729
0.0213672
0.0208796
0.0202481
0.0195076
0.0187791
0.0178909
0.0170927
0.0165253
0.0165389
0.118449
0.0133553
0.0150482
0.0164671
0.0176443
0.0185582
0.0192125
0.0196177
0.0197862
0.0197363
0.0194932
0.0190885
0.0185579
0.0179384
0.0172713
0.016607
0.0160096
0.0156378
0.0159275
0.12176
0.0120647
0.0135979
0.0148945
0.0159785
0.0168238
0.0174332
0.017818
0.0179914
0.0179713
0.017782
0.0174535
0.0170211
0.0165238
0.0160054
0.0155133
0.0151059
0.0149292
0.015424
0.115253
0.0109741
0.0123451
0.0135144
0.0144992
0.0152701
0.0158291
0.0161876
0.0163589
0.0163611
0.016218
0.0159597
0.0156222
0.0152477
0.0148849
0.0145864
0.0144204
0.0145486
0.0153984
0.0321702
0.0100378
0.0112492
0.012291
0.0131748
0.0138686
0.0143741
0.0147022
0.0148663
0.0148845
0.0147807
0.0145858
0.0143378
0.0140836
0.0138802
0.0137951
0.013927
0.0144886
0.0158719
0.0176342
0.00921392
0.0102728
0.0111906
0.0119746
0.0125915
0.0130423
0.0133376
0.0134906
0.0135192
0.0134475
0.0133073
0.013139
0.0129945
0.01294
0.0130618
0.0134966
0.0145076
0.0163639
0.0185282
0.00846746
0.00938391
0.0101842
0.0108722
0.0114143
0.0118109
0.0120721
0.0122107
0.012244
0.0121962
0.0120996
0.0119961
0.0119411
0.0120077
0.0122966
0.0129717
0.0143232
0.0165156
0.0283732
0.00777186
0.00855787
0.00924884
0.00984651
0.0103173
0.0106612
0.0108875
0.0110086
0.011041
0.0110083
0.0109422
0.0108848
0.0108921
0.0110389
0.0114303
0.0122352
0.0137384
0.0160435
0.0851118
0.00710875
0.00777701
0.00836791
0.00888166
0.00928543
0.00957871
0.00977015
0.00987101
0.00989702
0.00987041
0.00982145
0.00979056
0.00983157
0.010016
0.0104424
0.0112669
0.0127539
0.0171648
0.0870022
0.00646644
0.00702951
0.00752984
0.00796659
0.0083082
0.00855363
0.00871058
0.00878925
0.00880398
0.00877522
0.00873108
0.00870921
0.00875953
0.00894722
0.00935865
0.0101281
0.0115018
0.0206267
0.087651
0.00583809
0.00630792
0.0067271
0.00709398
0.00737865
0.00757953
0.00770322
0.00775861
0.00775841
0.0077209
0.0076716
0.00764505
0.00768688
0.00785548
0.00822346
0.0089007
0.0101141
0.0186496
0.0880847
0.00521978
0.0056076
0.00595481
0.00625905
0.00649238
0.00665263
0.00674515
0.00677737
0.00676011
0.00670927
0.00664768
0.00660704
0.0066299
0.00677011
0.00708962
0.00768
0.00875693
0.0106228
0.0736971
0.004609
0.00492538
0.00520954
0.00545844
0.00564635
0.00577051
0.00583493
0.00584538
0.00581061
0.00574391
0.00566537
0.00560456
0.0056032
0.00571601
0.00600232
0.00654811
0.00757918
0.00944442
0.0114412
0.00400363
0.00425855
0.00448823
0.00468903
0.00483772
0.00493099
0.00497138
0.00496287
0.0049118
0.00482849
0.00472987
0.00464368
0.00461302
0.00470074
0.00497121
0.00550734
0.00655278
0.00940691
0.0106592
0.00340141
0.00360415
0.00378747
0.0039473
0.0040631
0.00413117
0.00415262
0.00412942
0.00406506
0.00396609
0.00384518
0.00372745
0.00365832
0.00371823
0.00398044
0.00451042
0.00554218
0.00746414
0.00944041
0.0028002
0.00295941
0.00310396
0.0032296
0.00331884
0.0033678
0.00337627
0.00334413
0.00327156
0.00316016
0.00301639
0.0028602
0.00273653
0.00275948
0.00301999
0.0035285
0.00449234
0.00618544
0.00806668
0.00219998
0.00232429
0.0024373
0.00253528
0.00260412
0.00264018
0.00264227
0.0026084
0.00253529
0.00241878
0.00225563
0.00205062
0.00183052
0.00178465
0.00207132
0.00255097
0.00339334
0.0048778
0.0065406
0.00160479
0.00170321
0.00179197
0.00186867
0.00192303
0.00195222
0.00195474
0.0019275
0.00186479
0.00175743
0.00158459
0.00129626
0.000831871
0.000611255
0.00105139
0.00155369
0.00225022
0.00347491
0.00487084
0.00101406
0.00108977
0.00115996
0.00122035
0.00126483
0.00129209
0.00130123
0.00128935
0.00125051
0.00117299
0.00100746
0.000563477
-0.000512296
-0.00104078
-0.000113252
0.000523763
0.00143577
0.00214266
0.00304413
0.000267291
0.000300714
0.000334848
0.000366129
0.000392976
0.000415322
0.000432529
0.000441904
0.000436728
0.000400956
0.000265661
-0.000262492
-0.00199886
-0.00199211
-0.000781326
9.14743e-05
0.00125317
0.00173883
0.00149309
)
;

boundaryField
{
    leftWall
    {
        type            fixedFluxPressure;
        gradient        uniform 0;
        value           nonuniform List<scalar> 
50
(
848.833
849.262
849.891
850.804
851.951
853.286
854.768
856.369
859.046
863.175
804.477
246.785
12.1548
13.4938
13.2541
5.03493
0.346773
0.11073
-0.0182234
-0.0960828
-0.12869
-0.133553
-0.124671
-0.111145
-0.0973279
-0.0846568
-0.0734826
-0.0637794
-0.055332
-0.0481216
-0.0418969
-0.0365127
-0.0319405
-0.0278405
0.0339355
0.0720693
0.0396902
-0.021294
-0.020499
-0.0183141
-0.0162723
-0.0143887
-0.0126407
-0.0109984
-0.00942568
-0.00787814
-0.00629498
-0.00460441
-0.00280452
-0.0013731
)
;
    }
    rightWall
    {
        type            fixedFluxPressure;
        gradient        uniform 0;
        value           nonuniform List<scalar> 
50
(
769.787
769.956
769.955
769.599
769.429
769.862
771.05
772.688
775.833
715.819
503.654
59.0561
0.149599
0.163653
0.312223
0.379315
0.391261
0.15544
0.0807567
0.13185
0.16014
0.160623
0.129253
0.0226152
0.037033
0.112864
0.115408
0.118354
0.121617
0.123701
0.118449
0.12176
0.115253
0.0321702
0.0176342
0.0185282
0.0283732
0.0851118
0.0870022
0.087651
0.0880847
0.0736971
0.0114412
0.0106592
0.00944041
0.00806668
0.0065406
0.00487084
0.00304413
0.00149309
)
;
    }
    lowerWall
    {
        type            fixedFluxPressure;
        gradient        uniform 0;
        value           nonuniform List<scalar> 
62
(
848.833
846.686
843.952
840.403
836.319
831.845
827.054
821.982
816.635
811
805.061
798.786
792.161
785.151
777.708
769.715
760.997
752.432
745.097
738.848
733.13
729.532
728.782
728.782
728.634
728.139
726.889
725.495
723.908
721.937
719.246
707.488
703.141
701.433
701.318
702.279
701.79
700.983
699.937
698.63
701.85
712.089
710.306
702.279
706.397
710.636
713.354
714.408
715.031
716.139
717.957
720.101
724.465
732.069
738.084
743.274
746.586
748.784
754.8
763.21
768.845
769.787
)
;
    }
    atmosphere
    {
        type            totalPressure;
        rho             rho;
        psi             none;
        gamma           1;
        p0              uniform 0;
        value           nonuniform List<scalar> 
46
(
-1.19947e-05
0
0
0
0
0
0
0
0
0
0
0
0
0
0
0
-3.98675e-06
-1.93402e-05
-4.40393e-05
-7.4753e-05
-0.00010802
-0.000141161
-0.000172064
-0.000191235
-0.000201347
-0.000208489
-0.000212625
-0.000216008
-0.000218077
-0.000216663
-0.000210543
-0.000199046
-0.000182079
-0.000160114
-0.000134123
-0.000105515
-7.60967e-05
-4.80926e-05
-2.37614e-05
-4.84025e-06
0
0
0
0
0
0
)
;
    }
    defaultFaces
    {
        type            empty;
    }
}


// ************************************************************************* //
