/*--------------------------------*- C++ -*----------------------------------*\
| =========                 |                                                 |
| \\      /  F ield         | OpenFOAM: The Open Source CFD Toolbox           |
|  \\    /   O peration     | Version:  2.3.0                                 |
|   \\  /    A nd           | Web:      www.OpenFOAM.org                      |
|    \\/     M anipulation  |                                                 |
\*---------------------------------------------------------------------------*/
FoamFile
{
    version     2.0;
    format      ascii;
    class       volScalarField;
    location    "2.85";
    object      epsilon;
}
// * * * * * * * * * * * * * * * * * * * * * * * * * * * * * * * * * * * * * //

dimensions      [0 2 -3 0 0 0 0];

internalField   nonuniform List<scalar> 
2268
(
0.00330126
0.0203346
0.0396734
0.0595506
0.078656
0.0963206
0.112186
0.126113
0.138214
0.148792
0.158371
0.166616
0.173495
0.178882
0.182182
0.181483
0.173611
0.161417
0.14518
0.123275
0.0917349
0.0544321
0.0165029
0.00754588
0.0133901
0.021682
0.0305602
0.0392406
0.0473132
0.0545672
0.0609216
0.0663894
0.071098
0.0752557
0.0787576
0.081586
0.0836692
0.0848064
0.0845382
0.0822481
0.0782249
0.072376
0.0640414
0.0520612
0.0370985
0.023212
0.0140915
0.0147862
0.020588
0.0272054
0.0337922
0.0399614
0.045529
0.0504269
0.054666
0.0583238
0.0614999
0.0641644
0.0662965
0.0678358
0.068662
0.0685732
0.0673455
0.0649792
0.061332
0.0559275
0.0479377
0.0374123
0.0339847
0.0215094
0.0174595
0.0219599
0.0276194
0.0333662
0.0387712
0.0436597
0.0479745
0.0517298
0.0549876
0.0578035
0.060164
0.0620453
0.0633959
0.0641349
0.0641624
0.0633828
0.0617553
0.0591576
0.0552325
0.0492731
0.0409626
0.0423712
0.0297
0.0208157
0.0243549
0.0294657
0.0347618
0.0397618
0.0442806
0.0482725
0.0517631
0.0548105
0.0574455
0.0596553
0.0614113
0.0626697
0.0633775
0.0634922
0.0629793
0.061815
0.0599319
0.0571063
0.0527932
0.046383
0.0494756
0.0387805
0.0247764
0.0274688
0.0322038
0.037219
0.0419552
0.0462204
0.049985
0.05329
0.0561949
0.058712
0.0608239
0.0624973
0.0636937
0.0643839
0.0645647
0.0642407
0.0634218
0.0621121
0.060261
0.0576476
0.0539348
0.058899
0.0488009
0.0293679
0.0312462
0.0356912
0.040497
0.0450186
0.0490634
0.0526248
0.0557638
0.0585421
0.0609559
0.0629813
0.0645815
0.0657205
0.0663909
0.0666195
0.0664425
0.0659031
0.0650783
0.0641239
0.0633533
0.0642046
0.0809303
0.0599746
0.0346572
0.0357222
0.039917
0.0445297
0.0488296
0.0526355
0.0559729
0.0589297
0.0615661
0.0638645
0.0657934
0.0673133
0.0683893
0.0690322
0.0692942
0.069237
0.0689279
0.0685009
0.0683074
0.0692644
0.0763046
0.151365
0.0171997
0.0714099
0.113993
0.136539
0.145885
0.143507
0.1315
0.117298
0.0954212
0.0736838
0.0717899
0.0676247
0.055077
0.0502896
0.0530368
0.0555811
0.0504364
0.0340411
0.0099076
0.0191486
0.0392993
0.0543018
0.0626892
0.0665964
0.0665285
0.0633722
0.0585773
0.0520889
0.0443775
0.0394738
0.036055
0.0326405
0.0309207
0.0293286
0.0268417
0.0238735
0.0194798
0.0146687
0.0280671
0.0382735
0.0464098
0.0510592
0.0531984
0.0530128
0.0511563
0.0480162
0.0435823
0.0385966
0.0345379
0.03156
0.0292654
0.0277984
0.0259445
0.0238202
0.0222755
0.0210928
0.0227613
0.0411657
0.0424948
0.0461205
0.0483856
0.0493059
0.0487465
0.0471782
0.0445865
0.0409641
0.0370997
0.0336778
0.0309372
0.0288761
0.0272803
0.0255721
0.0240591
0.0234278
0.0240419
0.0309559
0.0582522
0.0491958
0.048391
0.0485847
0.0484718
0.0475033
0.045961
0.0436411
0.0404923
0.0372447
0.0342388
0.0316736
0.0296829
0.0279597
0.0263291
0.0252404
0.0252016
0.027036
0.0393335
0.0817402
0.0572601
0.0516721
0.0500002
0.0490123
0.047677
0.0460897
0.0439473
0.0411507
0.0383114
0.0355728
0.0331383
0.0311894
0.0294139
0.0277855
0.0268863
0.0272051
0.029973
0.0480964
0.12132
0.0658975
0.0551515
0.0519224
0.0502642
0.0486546
0.0470309
0.0450475
0.0425607
0.0400216
0.0374355
0.0350751
0.0331703
0.0314019
0.0297552
0.0288779
0.0293931
0.0330184
0.0576703
0.215002
0.0737465
0.0582268
0.0539762
0.0519042
0.0501496
0.048557
0.0467596
0.044556
0.042217
0.0396886
0.0373461
0.0354668
0.0337248
0.032057
0.0311333
0.0317614
0.0362508
0.0678095
0.0795026
0.0441281
0.043938
0.0477613
0.0520284
0.0558964
0.0592314
0.0621289
0.0647251
0.0670606
0.0691137
0.0708436
0.0722087
0.0731717
0.0737606
0.0740637
0.0741748
0.0741736
0.0742377
0.0748937
0.077349
0.0851898
0.112961
0.109682
0.0607558
0.0592469
0.0624767
0.0658563
0.0685983
0.070772
0.0726414
0.0744147
0.0760919
0.0776402
0.0790187
0.0801567
0.080955
0.0814436
0.0817802
0.0820945
0.0823633
0.0825489
0.0831386
0.0850801
0.089736
0.100073
0.148467
0.0840297
0.08155
0.083305
0.0845012
0.0848301
0.0847443
0.0847857
0.0852067
0.0859446
0.0868657
0.0879316
0.088962
0.0896236
0.0899477
0.0903064
0.0909778
0.0916067
0.0914571
0.0913151
0.092114
0.0936544
0.0959898
0.194343
0.119554
0.116106
0.113113
0.109179
0.104719
0.100545
0.097609
0.0961588
0.0958072
0.0961292
0.0972338
0.0985931
0.0991277
0.0989911
0.0992194
0.100569
0.102235
0.101086
0.0995334
0.0994079
0.0983054
0.0965219
0.272342
0.184499
0.173199
0.15418
0.139723
0.127019
0.11618
0.109187
0.105844
0.104668
0.10489
0.106752
0.108709
0.108873
0.108195
0.107528
0.108453
0.111149
0.108343
0.105618
0.103337
0.0996582
0.0958974
0.417093
0.283415
0.24229
0.190088
0.160895
0.140586
0.124948
0.115155
0.110889
0.11004
0.11132
0.11415
0.116033
0.116073
0.113509
0.111754
0.111884
0.11191
0.110385
0.107571
0.103244
0.0988039
0.0942055
0.539253
0.289033
0.246965
0.204179
0.165988
0.141282
0.125011
0.115057
0.111174
0.111352
0.112352
0.113169
0.114945
0.114379
0.111996
0.11099
0.112498
0.113764
0.113851
0.110775
0.104339
0.0992977
0.0938447
0.657839
0.285036
0.249159
0.228756
0.174819
0.140347
0.121829
0.111714
0.108017
0.10755
0.107681
0.108946
0.109398
0.108269
0.106877
0.107031
0.109836
0.114292
0.117602
0.113993
0.104503
0.0958961
0.0895465
0.793902
0.288566
0.251133
0.22861
0.171864
0.135141
0.116581
0.107053
0.103119
0.102118
0.103077
0.10459
0.103897
0.102063
0.100953
0.10141
0.103831
0.108016
0.110666
0.106418
0.0975142
0.0896692
0.0843388
0.817592
0.281764
0.226478
0.193234
0.151623
0.124463
0.110018
0.102258
0.0985634
0.097633
0.0982348
0.0985559
0.0974446
0.0956165
0.0945808
0.0948531
0.0960966
0.0976907
0.0977925
0.0940748
0.0881007
0.08272
0.0785357
0.764619
0.270801
0.204962
0.169003
0.137561
0.117745
0.106125
0.0988303
0.0948578
0.0930794
0.0921024
0.0911293
0.0900575
0.0888944
0.0882715
0.0883998
0.0886742
0.0884955
0.0871714
0.0840602
0.0800075
0.0761622
0.0727263
0.686566
0.261601
0.196088
0.160155
0.133127
0.116106
0.104556
0.0965675
0.0915371
0.088357
0.0861683
0.0845966
0.0835795
0.0829396
0.0827417
0.0827862
0.0824629
0.0814051
0.0794588
0.0766815
0.0735258
0.0704232
0.0674095
0.59669
0.253591
0.19324
0.158218
0.131769
0.114165
0.102192
0.0939235
0.0880546
0.0839295
0.0810804
0.0792341
0.0782305
0.0779166
0.0780196
0.0780103
0.0773749
0.0759338
0.0737829
0.0711733
0.068392
0.0656162
0.0628633
0.506477
0.244309
0.188854
0.153969
0.127753
0.110034
0.0983933
0.090233
0.084221
0.0798349
0.0767696
0.0748045
0.073787
0.0735535
0.0737074
0.0736259
0.072865
0.0713385
0.0692171
0.0667622
0.0641916
0.061619
0.0590814
0.424898
0.230653
0.181795
0.147367
0.121778
0.104696
0.093463
0.0856009
0.0798192
0.0755787
0.0725969
0.0706758
0.069667
0.0693792
0.0694149
0.0692339
0.0684635
0.0670352
0.0650964
0.0628653
0.06052
0.0581646
0.0558599
0.348174
0.209225
0.170159
0.13936
0.115392
0.0986789
0.087736
0.0802193
0.0748167
0.0709125
0.0681789
0.0664072
0.0654378
0.065069
0.0649601
0.0646954
0.0639817
0.062745
0.0610796
0.0591449
0.0570856
0.0550036
0.0529759
0.277685
0.183496
0.154808
0.1293
0.107941
0.092349
0.0817048
0.0744704
0.0694492
0.0659157
0.0634763
0.0618922
0.0609864
0.0605628
0.0603505
0.060046
0.0594271
0.0584173
0.057062
0.0554664
0.0537412
0.0519794
0.0502624
0.216309
0.156875
0.137328
0.117529
0.0993694
0.0853655
0.0754589
0.0686615
0.0640377
0.0608473
0.0586751
0.0572678
0.0564344
0.0559908
0.0557262
0.0554228
0.0549153
0.0541309
0.0530812
0.0518282
0.0504507
0.049026
0.047629
0.166567
0.131534
0.119235
0.104602
0.0898932
0.0779085
0.0691162
0.0629628
0.0587468
0.0559086
0.0539948
0.0527491
0.0519866
0.0515464
0.0512663
0.050989
0.0505916
0.050009
0.0492328
0.0482943
0.0472447
0.0461425
0.0450496
0.12914
0.108649
0.101581
0.0912259
0.0798921
0.0701788
0.0627877
0.0574798
0.0537809
0.0512604
0.0495929
0.048498
0.0478095
0.0473914
0.047119
0.0468782
0.0465782
0.0461633
0.0456148
0.0449437
0.04418
0.0433639
0.0425413
0.102558
0.0887973
0.0851127
0.0781462
0.0698833
0.0624607
0.0566023
0.052268
0.0491734
0.0470194
0.045563
0.0446165
0.044006
0.0436226
0.0433715
0.0431698
0.0429501
0.0426668
0.042298
0.0418422
0.0413135
0.0407367
0.0401431
0.084208
0.0722697
0.0704748
0.0660737
0.0604132
0.0550841
0.0507175
0.0473797
0.044926
0.0431709
0.04195
0.0411328
0.0406089
0.0402722
0.0400532
0.0398918
0.0397384
0.0395568
0.0393249
0.0390351
0.0386908
0.0383049
0.0378964
0.0714923
0.0591109
0.0581479
0.0555513
0.0519236
0.0483393
0.0452876
0.0428727
0.0410386
0.0396854
0.0387148
0.0380437
0.0376041
0.0373265
0.0371501
0.0370326
0.0369377
0.0368366
0.0367099
0.0365464
0.0363437
0.036106
0.0358431
0.0623958
0.0490401
0.048275
0.0468276
0.044656
0.0424099
0.0404251
0.0387969
0.0375159
0.036539
0.0358169
0.0353044
0.0349613
0.0347521
0.0346293
0.034562
0.0345236
0.0344916
0.0344491
0.0343843
0.0342911
0.0341684
0.0340194
0.055565
0.0415018
0.0406402
0.0398506
0.0386441
0.0373569
0.0361825
0.0351817
0.0343631
0.0337173
0.033228
0.0328769
0.0326446
0.0325116
0.0324554
0.0324473
0.0324685
0.0325017
0.0325323
0.0325489
0.0325437
0.0325124
0.0324541
0.0501887
0.0358478
0.0348064
0.0343675
0.0337739
0.0331447
0.0325569
0.0320309
0.0315798
0.0312125
0.0309328
0.0307391
0.0306257
0.030584
0.0306032
0.0306635
0.0307504
0.03085
0.0309497
0.0310388
0.0311089
0.0311541
0.0311707
0.0458586
0.0315059
0.0302969
0.0300541
0.0298623
0.0296814
0.0295049
0.0293255
0.0291576
0.0290197
0.0289254
0.0288822
0.0288917
0.0289517
0.0290569
0.0291958
0.0293565
0.0295272
0.0296969
0.0298557
0.0299949
0.0301079
0.0301897
0.0424013
0.0280702
0.0267384
0.0266262
0.0267197
0.0268512
0.0269601
0.0270312
0.0270821
0.0271348
0.0272063
0.0273069
0.0274417
0.0276111
0.0278126
0.0280403
0.0282836
0.0285322
0.0287761
0.0290058
0.0292127
0.0293897
0.0295313
0.0396252
0.0253073
0.0239045
0.0238954
0.0241939
0.0245432
0.0248531
0.0251121
0.0253397
0.0255571
0.0257803
0.0260201
0.0262819
0.0265675
0.0268753
0.0272015
0.027537
0.0278721
0.0281968
0.0285017
0.0287783
0.0290191
0.0292183
0.0373053
0.0231493
0.0216884
0.0217587
0.022189
0.0226807
0.0231367
0.0235461
0.0239246
0.0242899
0.0246557
0.0250314
0.0254224
0.0258305
0.0262543
0.0266901
0.0271293
0.0275615
0.0279763
0.0283636
0.0287145
0.0290215
0.0292787
0.0354774
0.0215577
0.0200484
0.0201545
0.0206514
0.0212307
0.0217957
0.0223293
0.0228398
0.0233399
0.0238408
0.0243505
0.0248738
0.0254121
0.0259635
0.026523
0.0270804
0.0276238
0.0281411
0.0286208
0.0290533
0.0294309
0.0297479
0.0342539
0.0204763
0.0189377
0.0190373
0.0195555
0.0201861
0.020831
0.0214652
0.0220894
0.0227115
0.0233406
0.0239838
0.0246453
0.0253255
0.0260208
0.0267233
0.0274192
0.028093
0.0287294
0.0293148
0.0298385
0.0302927
0.0306725
0.0336588
0.0198971
0.0183073
0.0183726
0.0188841
0.0195393
0.0202382
0.0209495
0.0216685
0.0224002
0.0231526
0.0239324
0.0247434
0.0255848
0.0264496
0.0273237
0.0281871
0.029018
0.0297959
0.0305041
0.0311306
0.0316683
0.0321138
0.0336911
0.0197885
0.0181146
0.0181246
0.018609
0.0192661
0.0199949
0.0207611
0.0215577
0.0223893
0.0232643
0.0241908
0.0251729
0.0262074
0.027282
0.0283717
0.0294453
0.0304703
0.0314187
0.0322699
0.0330116
0.0336389
0.0341516
0.0343164
0.0201058
0.0183127
0.018247
0.0186846
0.0193225
0.0200595
0.0208615
0.0217222
0.0226487
0.0236531
0.0247474
0.0259377
0.027218
0.028566
0.0299389
0.0312848
0.0325542
0.0337086
0.0347245
0.0355921
0.0363115
0.0368891
0.0354403
0.0207824
0.0188396
0.0186779
0.0190492
0.019648
0.0203743
0.0211965
0.0221126
0.0231357
0.0242863
0.0255848
0.0270432
0.0286532
0.0303755
0.0321355
0.0338438
0.0354228
0.0368227
0.0380215
0.0390183
0.0398246
0.0404576
0.0368984
0.0217327
0.019625
0.0193487
0.0196327
0.020172
0.0208705
0.0217009
0.0226684
0.0237967
0.025121
0.0266788
0.0284961
0.0305663
0.032823
0.0351333
0.0373326
0.0393004
0.0409805
0.0423665
0.0434799
0.0443537
0.0450216
0.0384682
0.0229085
0.0206422
0.0202165
0.0203747
0.0208249
0.0214755
0.0223031
0.0233206
0.0245671
0.0261013
0.0279921
0.0302973
0.0330252
0.0360751
0.0392007
0.0420726
0.0445106
0.0464807
0.0480262
0.0492153
0.0501154
0.0507829
0.0400152
0.0246816
0.0221266
0.0213573
0.0212604
0.0215517
0.02212
0.0229294
0.0239942
0.0253707
0.027152
0.0294599
0.032419
0.0360929
0.0403608
0.0447647
0.0485539
0.0515085
0.0537131
0.055331
0.0565121
0.05737
0.0579859
0.0455129
0.0309366
0.0254849
0.0231873
0.0223647
0.0223194
0.0227402
0.0235069
0.02461
0.0261177
0.028167
0.0309602
0.0347476
0.03975
0.0459385
0.0525414
0.0575259
0.0609048
0.0631511
0.0646635
0.0657014
0.0664232
0.0669245
0.153337
0.0726492
0.0369006
0.0267866
0.0238152
0.0230828
0.0232654
0.0239622
0.0250871
0.0267065
0.0290015
0.0322763
0.0369785
0.0436824
0.0528805
0.0639097
0.0701244
0.0734399
0.0753027
0.0764276
0.0771494
0.0776307
0.0779555
1.55198
0.191974
0.0688538
0.0328684
0.0253556
0.0236622
0.0235911
0.0242202
0.0253511
0.0270359
0.0294853
0.0330874
0.0384951
0.0468154
0.0600439
0.0822161
0.0879208
0.089801
0.0905958
0.0910102
0.0912582
0.091418
0.0915232
0.256539
0.227148
0.244493
0.314066
0.116184
0.118386
0.118612
0.115502
0.0979296
0.09788
0.0962455
0.0926375
0.0951362
0.0939758
0.0919698
0.0886048
0.0938858
0.0920627
0.0893154
0.086069
0.0912099
0.0892063
0.0869511
0.084766
0.0900254
0.0881464
0.0863558
0.0841467
0.0862719
0.0848629
0.0835101
0.0815227
0.081495
0.079961
0.0784528
0.0766836
0.0758961
0.0742819
0.0726678
0.0710086
0.0702623
0.0687001
0.0671393
0.0655921
0.0651092
0.0636483
0.0622089
0.0608082
0.060755
0.0594266
0.0581297
0.0568749
0.0571791
0.0559932
0.0548435
0.0537311
0.0541789
0.0531414
0.0521406
0.0511705
0.0515297
0.0506428
0.0497896
0.0489601
0.0490559
0.0483176
0.0476071
0.046913
0.0466541
0.0460567
0.0454795
0.0449118
0.0442866
0.0438166
0.0433593
0.0429053
0.0419625
0.0416028
0.0412491
0.0408939
0.0397179
0.0394494
0.0391819
0.0389093
0.0375954
0.0374012
0.0372042
0.0369996
0.0356409
0.0355066
0.035367
0.0352182
0.0338953
0.0338094
0.0337163
0.0336134
0.0323927
0.0323462
0.0322914
0.0322263
0.0311612
0.0311475
0.0311247
0.0310912
0.0302247
0.0302393
0.030244
0.0302377
0.0296064
0.0296464
0.0296755
0.029693
0.0293312
0.0293946
0.0294461
0.0294851
0.0294281
0.0295141
0.0295865
0.0296452
0.0299339
0.0300418
0.0301342
0.0302114
0.0308953
0.0310248
0.0311365
0.0312309
0.0323735
0.032524
0.0326539
0.0327641
0.034447
0.0346171
0.0347635
0.0348876
0.0372166
0.0374034
0.0375633
0.0376981
0.0408094
0.0410078
0.0411761
0.0413168
0.0453841
0.0455857
0.0457548
0.0458949
0.0511357
0.0513287
0.0514886
0.0516193
0.0583021
0.0584721
0.0586108
0.0587225
0.0671744
0.0673061
0.0674117
0.0674952
0.0781127
0.0781935
0.0782569
0.0783058
0.0915723
0.0915966
0.0916149
0.0916285
0.116681
0.0740883
0.0616482
0.0570821
0.0547745
0.0530483
0.0517156
0.0502916
0.0484512
0.046245
0.0436784
0.0412752
0.0393452
0.0375835
0.0358785
0.0347885
0.0353627
0.0405626
0.0783315
0.0907195
0.0727099
0.0646617
0.0611222
0.0592283
0.0580746
0.0577424
0.0570975
0.055431
0.0528991
0.0499198
0.047102
0.0447368
0.0426743
0.0408459
0.0396207
0.0402994
0.0462683
0.0897616
0.0834136
0.0731353
0.067724
0.0652793
0.0639271
0.0637635
0.0651671
0.0657187
0.0640809
0.0607701
0.0568261
0.0531337
0.0500132
0.0474648
0.0453394
0.0440374
0.0449608
0.0511454
0.0933041
0.0816618
0.0738839
0.0700964
0.0687779
0.0684734
0.0697373
0.0735453
0.0762805
0.0747803
0.0701691
0.064442
0.0593635
0.055104
0.0518302
0.0493413
0.0480477
0.0496379
0.0559556
0.0923917
0.0801943
0.0739216
0.0709022
0.0697624
0.0692658
0.07003
0.0729811
0.0760786
0.0756148
0.0718002
0.0664691
0.0613937
0.057155
0.0538169
0.0518648
0.0515439
0.0530878
0.0598097
0.102476
0.0800183
0.0741122
0.0708611
0.0695272
0.0687769
0.0680766
0.0679468
0.0678637
0.0669039
0.065059
0.0626738
0.0596554
0.056317
0.0536872
0.0524748
0.0526232
0.0534308
0.0593917
0.093877
0.0795604
0.0738395
0.0704235
0.068888
0.0680119
0.0668026
0.0652317
0.0633897
0.0616535
0.0603484
0.0592678
0.0575265
0.0548304
0.052313
0.0509105
0.0505675
0.0509651
0.0558108
0.0877469
0.0775082
0.0724628
0.0692609
0.0675736
0.066333
0.0646982
0.0624215
0.0597754
0.0575997
0.0563881
0.0557821
0.0545943
0.0522745
0.0497661
0.0480997
0.0472971
0.0475324
0.0521781
0.0894152
0.0734932
0.0692855
0.0662843
0.0642178
0.0624424
0.0604554
0.0580923
0.0555449
0.0535087
0.0523746
0.051792
0.0507163
0.0486185
0.0462551
0.0445926
0.0438689
0.0442723
0.0483834
0.0851386
0.0683161
0.0648065
0.061998
0.05974
0.0577012
0.0556302
0.0534212
0.0512082
0.0494022
0.0482292
0.0473851
0.0461633
0.0442754
0.0422909
0.0409378
0.040481
0.0408235
0.0428396
0.0649307
0.0631976
0.0601673
0.0575762
0.0553109
0.0532273
0.0512214
0.0492216
0.0472867
0.0456186
0.0443081
0.0431315
0.0417399
0.0400374
0.0383867
0.0372288
0.0367842
0.0367728
0.0368755
0.0459531
0.0586773
0.0559933
0.0536117
0.0514615
0.0494805
0.0476212
0.0458253
0.0440951
0.042502
0.0410545
0.0396364
0.0381174
0.0364929
0.0349476
0.0336781
0.0328363
0.0321671
0.030791
0.0325115
0.0549661
0.0525441
0.0503689
0.0483965
0.0465851
0.0448949
0.0432717
0.0416846
0.0401363
0.0386156
0.0370914
0.0355328
0.0339575
0.0324262
0.0310066
0.0298078
0.0288161
0.0278937
0.0306199
0.0520237
0.0498326
0.047859
0.0460762
0.0444407
0.0429031
0.0414112
0.0399255
0.0384236
0.0368986
0.0353662
0.0338514
0.0323816
0.0309706
0.0296275
0.0284398
0.0276891
0.0280526
0.0354085
0.0496621
0.0476988
0.0459215
0.0443161
0.0428367
0.0414255
0.0400342
0.0386296
0.037187
0.0357053
0.0342177
0.0327728
0.0314079
0.0301383
0.0289779
0.0280452
0.0277882
0.0294761
0.041887
0.0476509
0.0459188
0.0443345
0.0428929
0.0415493
0.0402449
0.0389376
0.037603
0.0362232
0.0348011
0.0333714
0.0319843
0.0306823
0.0294976
0.0284849
0.0278327
0.0281112
0.0310156
0.0476349
0.0457988
0.0442964
0.0429001
0.0416107
0.0403887
0.0391808
0.0379513
0.0366821
0.0353624
0.0339987
0.032622
0.0312775
0.0300121
0.0288793
0.0279775
0.0275557
0.0282771
0.0322082
0.0523056
0.0439832
0.0427025
0.041486
0.0403386
0.039229
0.0381135
0.0369616
0.0357587
0.0344995
0.0331932
0.0318679
0.0305658
0.0293393
0.0282619
0.0274648
0.0272352
0.0282923
0.0330071
0.0565658
0.0421475
0.0410747
0.0400283
0.0390153
0.0380133
0.036989
0.0359173
0.0347859
0.033593
0.0323499
0.0310841
0.0298379
0.02867
0.0276688
0.0269869
0.0269338
0.0282687
0.0336159
0.0607279
0.040288
0.0394051
0.0385176
0.037633
0.0367366
0.0358043
0.0348166
0.0337636
0.032646
0.0314772
0.0302854
0.0291145
0.0280288
0.0271268
0.0265745
0.0266984
0.0283032
0.0342287
0.0650187
0.0384351
0.0377221
0.0369807
0.0362183
0.0354259
0.0345866
0.0336867
0.032719
0.0316863
0.0306037
0.0295007
0.0284231
0.0274389
0.0266544
0.0262444
0.026549
0.0284137
0.0349282
0.0693814
0.0366367
0.0360718
0.0354622
0.0348143
0.0341231
0.0333777
0.0325684
0.0316909
0.0307504
0.0297634
0.0287606
0.0277895
0.0269209
0.0262627
0.0259939
0.0264627
0.0285449
0.0355172
0.0730456
0.0349479
0.0345094
0.0340162
0.0334734
0.0328784
0.0322245
0.0315055
0.0307203
0.0298755
0.0289891
0.0280922
0.027233
0.0264826
0.0259493
0.0258125
0.0264241
0.0286766
0.0359686
0.0760685
0.0334199
0.0330876
0.0326955
0.0322471
0.0317411
0.0311738
0.0305419
0.0298465
0.0290962
0.0283095
0.0275175
0.0267679
0.0261312
0.0257143
0.0256958
0.026428
0.0288102
0.0363135
0.078435
0.0320965
0.0318532
0.0315477
0.0311823
0.0307564
0.0302682
0.0297169
0.0291055
0.0284437
0.0277503
0.0270562
0.0264081
0.0258747
0.0255613
0.0256448
0.026476
0.0289529
0.0365673
0.0797978
0.0310149
0.030846
0.030614
0.0303201
0.0299641
0.0295458
0.0290661
0.0285294
0.0279463
0.0273358
0.026728
0.0261681
0.0257233
0.0254969
0.0256637
0.0265712
0.0291076
0.036725
0.0799161
0.030207
0.0301006
0.0299303
0.0296967
0.0294002
0.0290413
0.0286223
0.0281488
0.0276318
0.0270901
0.0265531
0.0260646
0.0256899
0.0255304
0.0257585
0.0267171
0.0292794
0.0368248
0.0793007
0.0297018
0.0296483
0.0295295
0.0293459
0.0290981
0.0287876
0.0284175
0.027994
0.0275285
0.0270393
0.0265548
0.0261175
0.025791
0.0256745
0.0259381
0.0269205
0.0294821
0.036943
0.078705
0.0295288
0.0295203
0.0294442
0.029301
0.0290918
0.0288186
0.028485
0.0280978
0.0276679
0.0272133
0.0267611
0.0263524
0.0260488
0.0259481
0.0262183
0.0271955
0.029737
0.0371543
0.0787387
0.0297205
0.0297505
0.0297094
0.0295979
0.0294178
0.0291713
0.0288623
0.0284974
0.0280872
0.0276485
0.0272072
0.0268026
0.0264948
0.02638
0.0266257
0.0275691
0.0300774
0.0375283
0.0798496
0.0303153
0.0303784
0.0303655
0.0302782
0.0301184
0.0298888
0.0295932
0.0292375
0.0288313
0.0283901
0.0279378
0.027512
0.0271714
0.0270115
0.027201
0.028083
0.0305483
0.0380954
0.0817614
0.0313609
0.0314522
0.0314616
0.0313916
0.0312447
0.0310235
0.0307312
0.0303729
0.0299564
0.0294949
0.0290102
0.0285374
0.0281344
0.0278974
0.0279986
0.028792
0.0312002
0.0388588
0.0839909
0.0329173
0.033032
0.0330581
0.0329996
0.0328593
0.0326395
0.0323427
0.0319719
0.0315325
0.0310346
0.0304964
0.0299505
0.0294541
0.029106
0.0290857
0.0297619
0.0320936
0.0398583
0.0865799
0.0350603
0.0351929
0.0352306
0.0351786
0.03504
0.0348168
0.0345098
0.0341196
0.0336476
0.0330991
0.0324871
0.0318407
0.0312165
0.0307191
0.0305402
0.0310695
0.0333055
0.0411659
0.0895433
0.0378851
0.0380294
0.0380734
0.0380238
0.037884
0.0376551
0.0373357
0.0369227
0.0364121
0.0358016
0.0350962
0.0343182
0.0335242
0.0328295
0.0324468
0.0327896
0.0349045
0.042841
0.0926004
0.0415108
0.0416591
0.0417043
0.0416541
0.0415121
0.0412783
0.0409484
0.0405144
0.0399646
0.039285
0.0384667
0.0375192
0.0364974
0.0355351
0.0348702
0.0349665
0.0369295
0.0449495
0.0962072
0.0460859
0.0462293
0.0462704
0.046218
0.0460755
0.0458413
0.0455079
0.0450614
0.0444792
0.0437302
0.0427803
0.041613
0.0402747
0.0389217
0.0378606
0.037627
0.0394043
0.0475685
0.100921
0.0517955
0.051924
0.0519565
0.051902
0.0517633
0.0515373
0.0512135
0.0507713
0.0501748
0.0493674
0.048271
0.0468109
0.0450011
0.0430609
0.0414251
0.0407417
0.0422901
0.0506686
0.106633
0.0588708
0.0589748
0.0589955
0.0589411
0.0588135
0.0586086
0.0583136
0.0579026
0.0573255
0.0564907
0.0552449
0.0533835
0.0508123
0.0479535
0.0454748
0.044181
0.0454501
0.0541162
0.113125
0.067604
0.0676762
0.0676843
0.0676347
0.0675284
0.0673608
0.0671194
0.0667765
0.0662721
0.0654765
0.0641172
0.0616985
0.0577348
0.0534098
0.0497357
0.0476574
0.0486051
0.0576295
0.119982
0.0783681
0.0784062
0.0784048
0.0783674
0.0782944
0.0781823
0.0780219
0.0777909
0.0774338
0.0768032
0.07549
0.0724005
0.065386
0.0587959
0.0536184
0.0506714
0.0513049
0.0607298
0.126457
0.0916456
0.0916548
0.0916516
0.091637
0.091611
0.0915725
0.0915185
0.0914407
0.0913145
0.0910521
0.0902889
0.0872746
0.0721183
0.0626491
0.0561261
0.0525227
0.0529539
0.0627172
0.130955
)
;

boundaryField
{
    leftWall
    {
        type            epsilonWallFunction;
        value           nonuniform List<scalar> 
50
(
0.00330126
0.00754588
0.0140915
0.0215094
0.0297
0.0387805
0.0488009
0.0599746
0.0795026
0.109682
0.148467
0.194343
0.272342
0.417093
0.539253
0.657839
0.793902
0.817592
0.764619
0.686566
0.59669
0.506477
0.424898
0.348174
0.277685
0.216309
0.166567
0.12914
0.102558
0.084208
0.0714923
0.0623958
0.055565
0.0501887
0.0458586
0.0424013
0.0396252
0.0373053
0.0354774
0.0342539
0.0336588
0.0336911
0.0343164
0.0354403
0.0368984
0.0384682
0.0400152
0.0455129
0.153337
1.55198
)
;
        Cmu             0.09;
        kappa           0.41;
        E               9.8;
        value           nonuniform List<scalar> 
50
(
0.00330126
0.00754588
0.0140915
0.0215094
0.0297
0.0387805
0.0488009
0.0599746
0.0795026
0.109682
0.148467
0.194343
0.272342
0.417093
0.539253
0.657839
0.793902
0.817592
0.764619
0.686566
0.59669
0.506477
0.424898
0.348174
0.277685
0.216309
0.166567
0.12914
0.102558
0.084208
0.0714923
0.0623958
0.055565
0.0501887
0.0458586
0.0424013
0.0396252
0.0373053
0.0354774
0.0342539
0.0336588
0.0336911
0.0343164
0.0354403
0.0368984
0.0384682
0.0400152
0.0455129
0.153337
1.55198
)
;
    }
    rightWall
    {
        type            epsilonWallFunction;
        value           nonuniform List<scalar> 
50
(
0.0099076
0.0146687
0.0227613
0.0309559
0.0393335
0.0480964
0.0576703
0.0678095
0.0783315
0.0897616
0.0933041
0.0923917
0.102476
0.093877
0.0877469
0.0894152
0.0851386
0.0649307
0.0459531
0.0325115
0.0306199
0.0354085
0.041887
0.0476349
0.0523056
0.0565658
0.0607279
0.0650187
0.0693814
0.0730456
0.0760685
0.078435
0.0797978
0.0799161
0.0793007
0.078705
0.0787387
0.0798496
0.0817614
0.0839909
0.0865799
0.0895433
0.0926004
0.0962072
0.100921
0.106633
0.113125
0.119982
0.126457
0.130955
)
;
        Cmu             0.09;
        kappa           0.41;
        E               9.8;
        value           nonuniform List<scalar> 
50
(
0.0099076
0.0146687
0.0227613
0.0309559
0.0393335
0.0480964
0.0576703
0.0678095
0.0783315
0.0897616
0.0933041
0.0923917
0.102476
0.093877
0.0877469
0.0894152
0.0851386
0.0649307
0.0459531
0.0325115
0.0306199
0.0354085
0.041887
0.0476349
0.0523056
0.0565658
0.0607279
0.0650187
0.0693814
0.0730456
0.0760685
0.078435
0.0797978
0.0799161
0.0793007
0.078705
0.0787387
0.0798496
0.0817614
0.0839909
0.0865799
0.0895433
0.0926004
0.0962072
0.100921
0.106633
0.113125
0.119982
0.126457
0.130955
)
;
    }
    lowerWall
    {
        type            epsilonWallFunction;
        value           nonuniform List<scalar> 
62
(
0.00330126
0.0203346
0.0396734
0.0595506
0.078656
0.0963206
0.112186
0.126113
0.138214
0.148792
0.158371
0.166616
0.173495
0.178882
0.182182
0.181483
0.173611
0.161417
0.14518
0.123275
0.0917349
0.0544321
0.0165029
0.0165029
0.023212
0.0339847
0.0423712
0.0494756
0.058899
0.0809303
0.151365
0.256539
0.227148
0.244493
0.314066
0.0171997
0.0191486
0.0280671
0.0411657
0.0582522
0.0817402
0.12132
0.215002
0.0171997
0.0714099
0.113993
0.136539
0.145885
0.143507
0.1315
0.117298
0.0954212
0.0736838
0.0717899
0.0676247
0.055077
0.0502896
0.0530368
0.0555811
0.0504364
0.0340411
0.0099076
)
;
        Cmu             0.09;
        kappa           0.41;
        E               9.8;
        value           nonuniform List<scalar> 
62
(
0.00330126
0.0203346
0.0396734
0.0595506
0.078656
0.0963206
0.112186
0.126113
0.138214
0.148792
0.158371
0.166616
0.173495
0.178882
0.182182
0.181483
0.173611
0.161417
0.14518
0.123275
0.0917349
0.0544321
0.0165029
0.0165029
0.023212
0.0339847
0.0423712
0.0494756
0.058899
0.0809303
0.151365
0.256539
0.227148
0.244493
0.314066
0.0171997
0.0191486
0.0280671
0.0411657
0.0582522
0.0817402
0.12132
0.215002
0.0171997
0.0714099
0.113993
0.136539
0.145885
0.143507
0.1315
0.117298
0.0954212
0.0736838
0.0717899
0.0676247
0.055077
0.0502896
0.0530368
0.0555811
0.0504364
0.0340411
0.0099076
)
;
    }
    atmosphere
    {
        type            inletOutlet;
        inletValue      uniform 0.1;
        value           nonuniform List<scalar> 
46
(
0.1
0.1
0.0688538
0.0328684
0.0253556
0.0236622
0.0235911
0.0242202
0.0253511
0.0270359
0.0294853
0.0330874
0.0384951
0.0468154
0.0600439
0.1
0.1
0.1
0.1
0.1
0.1
0.1
0.1
0.1
0.1
0.1
0.1
0.1
0.1
0.1
0.1
0.1
0.1
0.1
0.1
0.1
0.1
0.1
0.1
0.0721183
0.0626491
0.0561261
0.0525227
0.0529539
0.0627172
0.130955
)
;
    }
    defaultFaces
    {
        type            empty;
    }
}


// ************************************************************************* //
