/*--------------------------------*- C++ -*----------------------------------*\
| =========                 |                                                 |
| \\      /  F ield         | OpenFOAM: The Open Source CFD Toolbox           |
|  \\    /   O peration     | Version:  2.3.0                                 |
|   \\  /    A nd           | Web:      www.OpenFOAM.org                      |
|    \\/     M anipulation  |                                                 |
\*---------------------------------------------------------------------------*/
FoamFile
{
    version     2.0;
    format      ascii;
    class       volScalarField;
    location    "2.85";
    object      p;
}
// * * * * * * * * * * * * * * * * * * * * * * * * * * * * * * * * * * * * * //

dimensions      [1 -1 -2 0 0 0 0];

internalField   nonuniform List<scalar> 
2268
(
833.282
831.761
828.598
823.932
818.017
811.106
803.418
795.156
786.493
777.627
768.697
759.85
751.209
742.872
734.893
727.264
719.993
713.765
708.841
705.376
703.116
702.694
703.924
774.643
773.129
770.183
765.551
759.629
752.668
744.896
736.522
727.733
718.721
709.637
700.629
691.824
683.334
675.251
667.72
661.133
655.325
650.415
646.502
644.13
643.956
645.48
716.349
714.774
711.939
707.37
701.438
694.409
686.514
677.976
669.002
659.783
650.483
641.256
632.246
623.592
615.444
608.119
602.139
596.693
591.967
588.238
585.83
585.138
586.58
658.458
656.768
653.96
649.394
643.42
636.278
628.222
619.486
610.289
600.833
591.294
581.836
572.625
563.835
555.658
548.429
542.62
537.575
533.132
529.45
527.024
526.122
527.245
600.986
599.11
596.271
591.653
585.577
578.275
570.016
561.046
551.599
541.883
532.089
522.392
512.98
504.055
495.84
488.62
482.74
477.861
473.685
470.203
467.912
466.974
467.801
543.86
541.889
538.919
534.196
527.957
520.44
511.928
502.68
492.944
482.936
472.862
462.902
453.265
444.178
435.887
428.652
422.735
417.886
413.89
410.735
408.802
407.885
408.354
487.113
485.047
481.928
477.055
470.593
462.798
453.974
444.399
434.33
423.99
413.602
403.351
393.457
384.173
375.77
368.507
362.583
357.81
354
351.14
349.586
348.923
348.727
430.758
428.565
425.266
420.181
413.424
405.286
396.099
386.155
375.721
365.023
354.309
343.764
333.606
324.107
315.573
308.28
302.384
297.712
294.059
291.365
289.969
289.406
288.501
677.312
680.077
682.824
684.622
685.64
686.588
688.209
690.659
693.17
696.179
701.54
705.824
709.504
711.499
713.45
718.448
725.05
729.279
729.408
621.005
621.759
623.691
625.17
626.289
627.562
629.631
632.867
637.779
641.998
645.058
648.385
652.537
654.718
655.612
659.176
665.098
669.573
670.636
564.499
563.499
564.507
565.571
566.7
568.313
571.027
575.037
580.975
586.424
588.069
591.002
595.039
596.876
597.256
600.105
605.359
609.533
611.441
507.882
506.468
505.967
506.448
507.521
509.331
512.463
517.171
522.907
528.427
530.46
533.574
538.061
540.443
539.764
541.65
546.248
549.66
552.122
451.039
449.382
447.503
447.507
448.573
450.594
453.755
459.222
464.908
472.086
475.025
479.654
483.42
486.159
484.732
484.376
487.699
490.102
492.941
393.542
391.05
388.591
388.465
389.66
391.777
394.73
401.344
409.183
417.368
421.665
425.72
429.895
432.152
430.904
428.731
429.725
431.056
434.061
334.428
331.247
329.089
329.29
330.808
332.832
335.427
343.289
353.183
362.361
366.133
370.25
376.168
378.117
377.025
373.997
372.229
372.626
375.553
274.026
270.509
269.234
270.143
272.323
274.218
276.338
284.579
295.802
305.285
309.079
313.288
320.605
323.864
323.04
318.706
314.966
314.858
317.47
343.249
340.844
337.175
331.593
324.217
315.43
305.612
295.063
284.034
272.795
261.604
250.625
240.039
230.141
221.312
213.912
208.085
203.634
200.203
197.57
196.031
194.866
192.716
225.791
223.503
219.397
212.737
204
193.954
183.088
171.642
159.791
147.746
135.914
124.434
113.659
103.912
95.6448
89.2412
84.811
82.0997
80.0557
78.8746
77.7988
76.2576
73.7673
112.822
110.35
106.43
98.9917
89.8883
80.6327
71.4989
62.5088
53.9806
45.8493
38.3002
31.7239
26.1495
21.617
18.14
15.5792
13.871
12.9939
13.0669
13.5508
13.5192
12.5195
10.9831
33.1713
30.9179
27.4189
23.6673
19.8888
16.2255
12.6601
9.54422
7.07373
5.1729
3.53774
2.45847
1.90048
1.84648
1.95463
1.87048
1.59082
1.3956
1.54354
2.09084
2.48048
2.38437
2.07599
1.9079
1.25363
1.03633
2.37734
3.54996
3.92275
3.70773
3.37543
3.114
2.74101
2.11677
1.48694
1.3076
1.29046
1.29034
1.16972
0.980878
0.831781
0.898834
1.16937
1.34014
1.25663
1.029
0.481477
0.0609175
0.0625281
0.458847
1.30804
1.57046
1.21226
0.806075
0.617826
0.468811
0.325427
0.387974
0.593997
0.611002
0.536338
0.424977
0.311505
0.163068
0.0811783
0.089248
-0.0109473
-0.223164
-0.28287
-0.466049
-0.673365
-0.708797
-0.72336
-0.331306
-0.282894
-0.650824
-0.90193
-0.956752
-0.925038
-0.802481
-0.504804
-0.296182
-0.298227
-0.419784
-0.481912
-0.543669
-0.663484
-0.827492
-0.908245
-0.975307
-1.07382
-1.11691
-1.03351
-1.13038
-1.14025
-1.20039
-1.22285
-1.26225
-1.30768
-1.31973
-1.31012
-1.28319
-1.24142
-1.17727
-1.11601
-1.11066
-1.14408
-1.16914
-1.21517
-1.24425
-1.29252
-1.32175
-1.30338
-1.28409
-1.28988
-1.39831
-1.43531
-1.38647
-1.36793
-1.3694
-1.38362
-1.41454
-1.45698
-1.46436
-1.45635
-1.45133
-1.47121
-1.48179
-1.46716
-1.4609
-1.47072
-1.47781
-1.4647
-1.4466
-1.44663
-1.4437
-1.43469
-1.43298
-1.70332
-1.71793
-1.67159
-1.6357
-1.63032
-1.6273
-1.6273
-1.6302
-1.62275
-1.61069
-1.60206
-1.6004
-1.59988
-1.59543
-1.59434
-1.59844
-1.59842
-1.58948
-1.58172
-1.58007
-1.57701
-1.57212
-1.57068
-1.86801
-1.91795
-1.92739
-1.90639
-1.87802
-1.86728
-1.85775
-1.81822
-1.78618
-1.76653
-1.75708
-1.75882
-1.75933
-1.75077
-1.74298
-1.74133
-1.73654
-1.72862
-1.72191
-1.71781
-1.71292
-1.70866
-1.70771
-2.03734
-2.07928
-2.10475
-2.10341
-2.0762
-2.05302
-2.02151
-1.98644
-1.95547
-1.93394
-1.92382
-1.92142
-1.91575
-1.90739
-1.89726
-1.88692
-1.87569
-1.86731
-1.86149
-1.8561
-1.85065
-1.84585
-1.84432
-2.18559
-2.21685
-2.23122
-2.22722
-2.20243
-2.17376
-2.14674
-2.12155
-2.10564
-2.09145
-2.07777
-2.06337
-2.05225
-2.04589
-2.03669
-2.02266
-2.011
-2.00275
-1.9974
-1.99288
-1.98806
-1.98333
-1.98021
-2.31162
-2.33602
-2.33714
-2.32956
-2.31135
-2.28975
-2.26787
-2.24746
-2.23089
-2.21674
-2.20383
-2.19192
-2.18168
-2.17281
-2.16321
-2.1525
-2.14291
-2.13542
-2.12999
-2.12615
-2.12248
-2.11855
-2.1147
-2.42612
-2.44266
-2.44138
-2.43361
-2.41968
-2.40316
-2.38602
-2.36953
-2.35493
-2.34185
-2.32988
-2.31885
-2.30887
-2.29973
-2.29059
-2.28142
-2.27322
-2.26648
-2.26119
-2.25698
-2.25343
-2.2502
-2.24711
-2.53597
-2.54508
-2.54464
-2.53868
-2.52827
-2.51565
-2.50233
-2.48915
-2.47679
-2.46525
-2.45445
-2.44435
-2.43498
-2.42625
-2.41783
-2.40976
-2.40253
-2.39639
-2.39131
-2.38711
-2.38353
-2.3804
-2.37773
-2.64528
-2.64768
-2.64791
-2.64429
-2.63712
-2.62784
-2.61768
-2.60729
-2.5971
-2.58725
-2.5778
-2.5688
-2.5603
-2.55228
-2.54465
-2.53748
-2.53101
-2.52537
-2.52056
-2.51648
-2.51298
-2.51
-2.50751
-2.75603
-2.7536
-2.7533
-2.75133
-2.74677
-2.74033
-2.73284
-2.72482
-2.71662
-2.70843
-2.70038
-2.69255
-2.68502
-2.67784
-2.67102
-2.66464
-2.65881
-2.65363
-2.64911
-2.64521
-2.64184
-2.639
-2.63663
-2.86876
-2.86381
-2.86221
-2.86088
-2.85808
-2.8538
-2.84845
-2.84241
-2.83595
-2.82928
-2.82254
-2.81586
-2.80933
-2.80302
-2.79699
-2.79131
-2.78607
-2.78133
-2.77712
-2.77343
-2.77022
-2.7675
-2.76523
-2.9832
-2.97756
-2.97479
-2.97342
-2.97158
-2.96876
-2.965
-2.96051
-2.9555
-2.95014
-2.94459
-2.93897
-2.93337
-2.92789
-2.92261
-2.91758
-2.91288
-2.90857
-2.90469
-2.90122
-2.89819
-2.89561
-2.89343
-3.09904
-3.09372
-3.09038
-3.08875
-3.08733
-3.08538
-3.08271
-3.07937
-3.0755
-3.07123
-3.06669
-3.06201
-3.05726
-3.05255
-3.04795
-3.04352
-3.03933
-3.03543
-3.03187
-3.02866
-3.02582
-3.02338
-3.02131
-3.21612
-3.21152
-3.20814
-3.20632
-3.20504
-3.20356
-3.20158
-3.19907
-3.19606
-3.19266
-3.18896
-3.18507
-3.18107
-3.17704
-3.17305
-3.16917
-3.16545
-3.16195
-3.15871
-3.15576
-3.15312
-3.15083
-3.14887
-3.33434
-3.33051
-3.32738
-3.32551
-3.32427
-3.32304
-3.3215
-3.31954
-3.31718
-3.31445
-3.31143
-3.3082
-3.30483
-3.3014
-3.29795
-3.29456
-3.29128
-3.28816
-3.28523
-3.28254
-3.28011
-3.27798
-3.27613
-3.45356
-3.45038
-3.44761
-3.44579
-3.44461
-3.44354
-3.44228
-3.44071
-3.43881
-3.4366
-3.43412
-3.43143
-3.42859
-3.42566
-3.42269
-3.41974
-3.41685
-3.41408
-3.41146
-3.40902
-3.4068
-3.40483
-3.40311
-3.5736
-3.57094
-3.56849
-3.56681
-3.56573
-3.56481
-3.56377
-3.56248
-3.56092
-3.55909
-3.55703
-3.55477
-3.55236
-3.54986
-3.5473
-3.54474
-3.54221
-3.53976
-3.53742
-3.53523
-3.53321
-3.53141
-3.52982
-3.6943
-3.69205
-3.68985
-3.68833
-3.68745
-3.68673
-3.68586
-3.68476
-3.68344
-3.6819
-3.68016
-3.67824
-3.67619
-3.67404
-3.67183
-3.6696
-3.66739
-3.66523
-3.66315
-3.66119
-3.65938
-3.65775
-3.6563
-3.81575
-3.81369
-3.81171
-3.81037
-3.80976
-3.80929
-3.80852
-3.80753
-3.80635
-3.80501
-3.8035
-3.80185
-3.80008
-3.79822
-3.7963
-3.79436
-3.79243
-3.79054
-3.78871
-3.78697
-3.78534
-3.78388
-3.78256
-3.93894
-3.93702
-3.93527
-3.93397
-3.93325
-3.93262
-3.93174
-3.93073
-3.92962
-3.92839
-3.92705
-3.92559
-3.92405
-3.92243
-3.92076
-3.91907
-3.91739
-3.91573
-3.91412
-3.91258
-3.91113
-3.90983
-3.90865
-4.06375
-4.06195
-4.06039
-4.0591
-4.05785
-4.05654
-4.05538
-4.05428
-4.05316
-4.052
-4.05077
-4.04947
-4.0481
-4.04668
-4.04522
-4.04375
-4.04228
-4.04083
-4.03942
-4.03807
-4.03679
-4.03564
-4.03458
-4.18804
-4.1868
-4.18536
-4.18391
-4.18221
-4.18053
-4.17919
-4.17801
-4.17689
-4.17577
-4.17463
-4.17345
-4.17223
-4.17098
-4.1697
-4.16842
-4.16714
-4.16587
-4.16464
-4.16346
-4.16234
-4.16133
-4.1604
-4.31114
-4.31036
-4.30911
-4.30755
-4.30585
-4.3043
-4.30298
-4.30182
-4.30073
-4.29967
-4.29861
-4.29754
-4.29644
-4.29533
-4.29421
-4.29309
-4.29198
-4.29088
-4.28981
-4.28878
-4.28781
-4.28692
-4.28611
-4.43401
-4.43311
-4.43193
-4.43062
-4.42925
-4.42794
-4.42675
-4.42566
-4.42464
-4.42365
-4.42267
-4.4217
-4.42072
-4.41973
-4.41875
-4.41777
-4.41681
-4.41586
-4.41494
-4.41405
-4.41321
-4.41245
-4.41174
-4.55698
-4.55605
-4.55495
-4.55382
-4.55268
-4.55158
-4.55053
-4.54955
-4.54862
-4.54771
-4.54681
-4.54592
-4.54504
-4.54417
-4.54331
-4.54246
-4.54163
-4.54082
-4.54004
-4.53928
-4.53857
-4.53791
-4.53731
-4.6801
-4.67918
-4.67815
-4.67716
-4.6762
-4.67527
-4.67437
-4.6735
-4.67265
-4.67182
-4.67101
-4.6702
-4.66941
-4.66863
-4.66788
-4.66715
-4.66645
-4.66577
-4.66512
-4.66449
-4.66388
-4.66334
-4.66283
-4.80336
-4.80247
-4.80152
-4.80065
-4.79984
-4.79905
-4.79827
-4.7975
-4.79675
-4.796
-4.79525
-4.79452
-4.79381
-4.79312
-4.79246
-4.79185
-4.79127
-4.79072
-4.79018
-4.78967
-4.78918
-4.78873
-4.78831
-4.92673
-4.9259
-4.92503
-4.92428
-4.92359
-4.92292
-4.92225
-4.92158
-4.9209
-4.92022
-4.91955
-4.91888
-4.91823
-4.91761
-4.91704
-4.91654
-4.91608
-4.91566
-4.91525
-4.91485
-4.91446
-4.9141
-4.91376
-5.05018
-5.04942
-5.04866
-5.04802
-5.04744
-5.04687
-5.0463
-5.04571
-5.04511
-5.0445
-5.04388
-5.04326
-5.04266
-5.04209
-5.0416
-5.0412
-5.04089
-5.0406
-5.04031
-5.04002
-5.03973
-5.03945
-5.03919
-5.17367
-5.17298
-5.17234
-5.17183
-5.17136
-5.1709
-5.17041
-5.1699
-5.16937
-5.16882
-5.16824
-5.16766
-5.16708
-5.16655
-5.1661
-5.16584
-5.1657
-5.16556
-5.16539
-5.16521
-5.16501
-5.16481
-5.16461
-5.29714
-5.29648
-5.29602
-5.29568
-5.29534
-5.29497
-5.29458
-5.29415
-5.29368
-5.29317
-5.29263
-5.29206
-5.29148
-5.29093
-5.2905
-5.29042
-5.29051
-5.29055
-5.29051
-5.29042
-5.2903
-5.29017
-5.29003
-5.42061
-5.41988
-5.4197
-5.4196
-5.41939
-5.41912
-5.41881
-5.41845
-5.41803
-5.41755
-5.41702
-5.41642
-5.41577
-5.41509
-5.41447
-5.41475
-5.41534
-5.41562
-5.4157
-5.41568
-5.41562
-5.41553
-5.41544
-5.54417
-5.54366
-5.54382
-5.54382
-5.54363
-5.5434
-5.54315
-5.54283
-5.54244
-5.54196
-5.54138
-5.54069
-5.53987
-5.53886
-5.53752
-5.5384
-5.54013
-5.54081
-5.54098
-5.541
-5.54096
-5.54091
-5.54084
-5.66721
-5.66917
-5.66869
-5.66825
-5.66785
-5.66761
-5.66741
-5.66718
-5.66689
-5.66653
-5.66607
-5.66549
-5.6647
-5.66344
-5.66172
-5.66205
-5.66501
-5.66602
-5.66629
-5.66636
-5.66637
-5.66637
-5.66635
183.786
181.323
179.415
178.083
69.4569
67.4046
65.8256
64.5644
9.40573
8.54182
7.85155
7.3351
1.74321
1.55993
1.45252
1.41514
0.824527
0.734746
0.679365
0.665347
-0.245526
-0.228966
-0.162637
-0.162457
-1.10022
-1.06148
-1.01016
-0.977439
-1.30576
-1.31608
-1.31974
-1.32433
-1.43435
-1.43633
-1.43905
-1.43972
-1.57205
-1.57369
-1.5753
-1.57652
-1.70899
-1.71062
-1.71225
-1.71335
-1.84486
-1.84585
-1.84702
-1.84787
-1.97981
-1.98012
-1.98061
-1.98081
-2.1135
-2.11319
-2.11306
-2.11295
-2.24556
-2.24486
-2.24432
-2.24386
-2.37623
-2.37532
-2.3745
-2.3738
-2.50594
-2.50489
-2.50389
-2.50304
-2.63499
-2.63384
-2.63271
-2.63176
-2.76357
-2.76234
-2.76112
-2.7601
-2.89177
-2.8905
-2.88922
-2.88815
-3.01966
-3.01838
-3.01705
-3.01594
-3.14727
-3.14599
-3.14464
-3.14351
-3.27459
-3.27333
-3.272
-3.27086
-3.40165
-3.40043
-3.39912
-3.398
-3.52844
-3.52728
-3.52602
-3.52494
-3.65501
-3.65391
-3.65272
-3.65168
-3.78137
-3.78035
-3.77922
-3.77825
-3.90756
-3.90661
-3.90556
-3.90465
-4.03359
-4.03272
-4.03175
-4.03092
-4.1595
-4.15871
-4.15782
-4.15706
-4.28531
-4.28459
-4.28379
-4.28309
-4.41104
-4.41039
-4.40966
-4.40904
-4.53669
-4.53612
-4.53547
-4.53491
-4.6623
-4.66179
-4.66122
-4.66073
-4.78786
-4.78742
-4.78692
-4.78649
-4.91338
-4.91301
-4.91258
-4.91222
-5.03888
-5.03857
-5.03822
-5.03791
-5.16437
-5.16412
-5.16383
-5.16358
-5.28985
-5.28965
-5.28943
-5.28924
-5.41532
-5.41518
-5.41501
-5.41487
-5.54076
-5.54066
-5.54056
-5.54047
-5.66632
-5.66628
-5.66625
-5.66621
178.102
175.409
175.132
177.169
181.379
186.606
190.744
195.284
204.569
213.195
218.031
223.247
229.796
233.87
233.88
230.361
226.768
225.518
227.136
62.9319
60.8402
61.0127
63.359
69.6541
80.9065
91.3627
96.503
100.948
105.216
108.964
112.202
115.058
116.944
116.77
114.514
111.853
110.906
112.861
6.76303
6.44733
6.835
7.75171
10.1201
16.4307
24.3705
28.7929
29.7239
30.523
31.3012
31.6825
31.8533
31.9532
31.2121
29.6557
28.4443
29.4936
31.4552
1.40503
1.46014
1.46005
1.41228
1.26918
0.890292
0.393192
0.116217
-0.148859
-0.406405
-0.561258
-0.626445
-0.584224
-0.474844
-0.638008
-0.802715
-0.370934
0.631039
0.856948
0.656845
0.602968
0.554823
0.491122
0.392274
0.251443
0.0913434
-0.117561
-0.358871
-0.564067
-0.694837
-0.767574
-0.843783
-0.919606
-0.942106
-0.936836
-0.930218
-0.933327
-0.939327
-0.148647
-0.245328
-0.316425
-0.382888
-0.47814
-0.595401
-0.683662
-0.775591
-0.867557
-0.94985
-0.998166
-1.01983
-1.03017
-1.04401
-1.05874
-1.06707
-1.0673
-1.06614
-1.06078
-0.964668
-1.01473
-1.05543
-1.09325
-1.14016
-1.18705
-1.20842
-1.21553
-1.21499
-1.20605
-1.20183
-1.20476
-1.19855
-1.19334
-1.1992
-1.20133
-1.1986
-1.19648
-1.19253
-1.32411
-1.31395
-1.31276
-1.31541
-1.31563
-1.317
-1.32555
-1.33462
-1.3383
-1.33674
-1.33464
-1.33618
-1.33949
-1.34164
-1.34156
-1.33538
-1.33125
-1.3296
-1.33177
-1.44018
-1.44062
-1.44163
-1.44394
-1.44608
-1.4509
-1.45803
-1.4645
-1.46702
-1.4652
-1.46303
-1.46415
-1.4685
-1.4704
-1.46933
-1.46617
-1.46536
-1.46771
-1.47338
-1.57766
-1.57927
-1.58012
-1.58212
-1.58571
-1.59036
-1.59524
-1.59841
-1.59787
-1.59437
-1.59199
-1.59352
-1.59701
-1.59982
-1.60067
-1.60075
-1.60348
-1.60845
-1.61156
-1.71442
-1.7147
-1.71502
-1.71722
-1.72114
-1.72529
-1.72878
-1.73043
-1.72904
-1.7276
-1.72712
-1.72969
-1.73368
-1.73757
-1.73853
-1.73801
-1.73849
-1.73928
-1.74039
-1.84816
-1.84653
-1.84651
-1.8482
-1.85129
-1.85457
-1.8575
-1.85941
-1.86103
-1.86406
-1.86759
-1.86992
-1.87195
-1.8732
-1.87197
-1.86845
-1.86538
-1.86535
-1.86778
-1.98033
-1.97886
-1.9785
-1.9793
-1.98136
-1.98415
-1.98683
-1.98917
-1.99216
-1.99622
-2.00045
-2.00284
-2.00357
-2.00178
-1.99933
-1.99709
-1.99553
-1.99621
-1.99872
-2.11253
-2.11148
-2.11074
-2.11077
-2.11173
-2.11382
-2.11629
-2.11878
-2.12112
-2.12348
-2.12603
-2.12807
-2.12879
-2.12812
-2.1277
-2.12845
-2.12909
-2.13029
-2.13148
-2.24322
-2.24262
-2.24222
-2.24202
-2.24231
-2.24323
-2.24478
-2.24665
-2.24849
-2.25032
-2.25225
-2.25379
-2.25466
-2.25497
-2.25575
-2.25772
-2.25959
-2.26091
-2.26142
-2.37284
-2.37215
-2.37207
-2.37203
-2.37202
-2.37215
-2.37305
-2.37436
-2.37581
-2.37735
-2.37895
-2.38033
-2.38135
-2.38217
-2.38331
-2.38498
-2.38658
-2.38765
-2.38737
-2.50194
-2.50106
-2.50066
-2.50057
-2.50048
-2.50055
-2.50117
-2.50215
-2.50332
-2.50461
-2.50598
-2.50728
-2.50843
-2.5095
-2.51075
-2.51227
-2.51367
-2.51466
-2.51395
-2.63058
-2.6296
-2.62901
-2.6287
-2.62856
-2.62867
-2.62915
-2.62996
-2.63095
-2.63206
-2.63324
-2.63445
-2.63565
-2.63684
-2.63814
-2.63958
-2.64091
-2.64211
-2.64156
-2.75887
-2.75782
-2.75713
-2.75672
-2.75654
-2.75662
-2.75702
-2.7577
-2.75857
-2.75957
-2.76064
-2.76177
-2.76293
-2.76414
-2.76542
-2.76677
-2.76804
-2.76927
-2.76867
-2.88687
-2.8858
-2.88505
-2.88458
-2.88437
-2.88443
-2.88475
-2.88533
-2.8861
-2.88702
-2.88802
-2.88907
-2.89016
-2.89131
-2.89252
-2.89375
-2.89487
-2.89581
-2.89523
-3.01463
-3.01355
-3.01277
-3.01227
-3.01203
-3.01206
-3.01233
-3.01282
-3.0135
-3.01432
-3.01524
-3.01621
-3.01723
-3.0183
-3.0194
-3.02048
-3.02141
-3.02193
-3.02131
-3.14218
-3.1411
-3.14031
-3.13978
-3.13952
-3.13951
-3.13973
-3.14015
-3.14074
-3.14147
-3.14229
-3.14318
-3.14411
-3.14507
-3.14604
-3.14696
-3.1477
-3.14789
-3.14715
-3.26954
-3.26846
-3.26767
-3.26713
-3.26684
-3.26679
-3.26695
-3.2673
-3.26781
-3.26845
-3.26918
-3.26996
-3.27079
-3.27162
-3.27244
-3.27319
-3.27376
-3.27372
-3.273
-3.3967
-3.39565
-3.39487
-3.39431
-3.394
-3.39391
-3.39402
-3.3943
-3.39472
-3.39527
-3.39589
-3.39657
-3.39726
-3.39795
-3.3986
-3.39916
-3.39951
-3.39921
-3.3985
-3.52369
-3.52268
-3.52191
-3.52135
-3.52101
-3.52088
-3.52093
-3.52114
-3.52149
-3.52194
-3.52245
-3.52301
-3.52357
-3.5241
-3.52455
-3.52486
-3.52487
-3.52414
-3.52297
-3.65049
-3.64954
-3.6488
-3.64824
-3.64789
-3.64772
-3.64772
-3.64787
-3.64813
-3.64849
-3.6489
-3.64934
-3.64976
-3.65011
-3.65034
-3.65035
-3.64994
-3.64871
-3.64701
-3.77714
-3.77624
-3.77554
-3.77499
-3.77463
-3.77444
-3.7744
-3.77448
-3.77467
-3.77494
-3.77526
-3.77559
-3.77587
-3.77606
-3.77607
-3.77578
-3.77495
-3.77331
-3.77134
-3.90362
-3.90281
-3.90214
-3.90162
-3.90126
-3.90105
-3.90097
-3.90101
-3.90114
-3.90133
-3.90156
-3.90179
-3.90195
-3.90199
-3.90181
-3.90127
-3.90009
-3.89814
-3.89591
-4.02998
-4.02923
-4.02863
-4.02813
-4.02778
-4.02756
-4.02746
-4.02746
-4.02754
-4.02767
-4.02783
-4.02797
-4.02804
-4.02797
-4.02766
-4.02694
-4.02557
-4.02345
-4.02105
-4.15621
-4.15554
-4.15499
-4.15454
-4.1542
-4.15398
-4.15387
-4.15384
-4.15388
-4.15397
-4.15407
-4.15415
-4.15416
-4.15401
-4.15363
-4.15285
-4.15143
-4.14932
-4.14704
-4.28233
-4.28175
-4.28125
-4.28084
-4.28053
-4.28032
-4.2802
-4.28016
-4.28018
-4.28023
-4.2803
-4.28034
-4.2803
-4.28012
-4.27972
-4.27896
-4.27761
-4.27556
-4.2734
-4.40837
-4.40786
-4.40742
-4.40705
-4.40677
-4.40657
-4.40646
-4.40641
-4.40642
-4.40646
-4.4065
-4.40652
-4.40647
-4.40628
-4.4059
-4.4052
-4.40397
-4.40202
-4.39986
-4.53432
-4.53389
-4.53351
-4.53318
-4.53293
-4.53275
-4.53265
-4.53261
-4.53261
-4.53264
-4.53268
-4.53269
-4.53264
-4.53246
-4.53212
-4.53151
-4.53042
-4.5286
-4.52652
-4.66022
-4.65984
-4.65952
-4.65923
-4.65902
-4.65887
-4.65878
-4.65874
-4.65875
-4.65879
-4.65883
-4.65885
-4.6588
-4.65864
-4.65833
-4.65779
-4.65682
-4.65512
-4.65327
-4.78605
-4.78574
-4.78547
-4.78523
-4.78504
-4.78491
-4.78484
-4.78482
-4.78484
-4.78489
-4.78494
-4.78497
-4.78493
-4.78478
-4.78449
-4.78398
-4.78304
-4.78135
-4.77952
-4.91185
-4.91159
-4.91136
-4.91116
-4.911
-4.9109
-4.91085
-4.91085
-4.91088
-4.91094
-4.91102
-4.91106
-4.91103
-4.91089
-4.91059
-4.91008
-4.90913
-4.90742
-4.9055
-5.03761
-5.0374
-5.03721
-5.03704
-5.03692
-5.03684
-5.0368
-5.03681
-5.03686
-5.03695
-5.03705
-5.03712
-5.03711
-5.03696
-5.03666
-5.03614
-5.03521
-5.03357
-5.03174
-5.16334
-5.16317
-5.16302
-5.16288
-5.16278
-5.16272
-5.1627
-5.16272
-5.16279
-5.1629
-5.16304
-5.16316
-5.16318
-5.16301
-5.1627
-5.1622
-5.16133
-5.15983
-5.15818
-5.28904
-5.28891
-5.28879
-5.28868
-5.2886
-5.28855
-5.28854
-5.28858
-5.28866
-5.28879
-5.28897
-5.28919
-5.28927
-5.28905
-5.28872
-5.28826
-5.2875
-5.2862
-5.28475
-5.41472
-5.41461
-5.41451
-5.41443
-5.41437
-5.41433
-5.41433
-5.41436
-5.41444
-5.4146
-5.41487
-5.41533
-5.41558
-5.41519
-5.41476
-5.41434
-5.41374
-5.41267
-5.41145
-5.54037
-5.54029
-5.54021
-5.54015
-5.5401
-5.54007
-5.54006
-5.54008
-5.54015
-5.54031
-5.54074
-5.5418
-5.54238
-5.5415
-5.54086
-5.54044
-5.54003
-5.53925
-5.53832
-5.66618
-5.66614
-5.6661
-5.66607
-5.66604
-5.66602
-5.666
-5.66601
-5.66605
-5.66619
-5.66671
-5.66841
-5.66848
-5.6673
-5.66666
-5.66647
-5.66652
-5.66612
-5.66536
)
;

boundaryField
{
    leftWall
    {
        type            calculated;
        value           nonuniform List<scalar> 
50
(
833.282
774.643
716.349
658.458
600.986
543.86
487.113
430.758
343.249
225.791
112.822
33.1713
1.9079
0.481477
-0.466049
-1.03351
-1.39831
-1.70332
-1.86801
-2.03734
-2.18559
-2.31162
-2.42612
-2.53597
-2.64528
-2.75603
-2.86876
-2.9832
-3.09904
-3.21612
-3.33434
-3.45356
-3.5736
-3.6943
-3.81575
-3.93894
-4.06375
-4.18804
-4.31114
-4.43401
-4.55698
-4.6801
-4.80336
-4.92673
-5.05018
-5.17367
-5.29714
-5.42061
-5.54417
-5.66721
)
;
    }
    rightWall
    {
        type            calculated;
        value           nonuniform List<scalar> 
50
(
729.408
670.636
611.441
552.122
492.941
434.061
375.553
317.47
227.136
112.861
31.4552
0.856948
-0.939327
-1.06078
-1.19253
-1.33177
-1.47338
-1.61156
-1.74039
-1.86778
-1.99872
-2.13148
-2.26142
-2.38737
-2.51395
-2.64156
-2.76867
-2.89523
-3.02131
-3.14715
-3.273
-3.3985
-3.52297
-3.64701
-3.77134
-3.89591
-4.02105
-4.14704
-4.2734
-4.39986
-4.52652
-4.65327
-4.77952
-4.9055
-5.03174
-5.15818
-5.28475
-5.41145
-5.53832
-5.66536
)
;
    }
    lowerWall
    {
        type            calculated;
        value           nonuniform List<scalar> 
62
(
862.712
861.19
858.028
853.361
847.447
840.535
832.848
824.586
815.922
807.056
798.126
789.279
780.638
772.301
764.322
756.689
749.242
742.62
737.803
734.727
732.488
732.033
733.228
703.924
645.48
586.58
527.245
467.801
408.354
348.727
288.501
246.384
243.86
241.925
240.568
677.312
621.005
564.499
507.882
451.039
393.542
334.428
274.026
705.217
708.163
711.472
713.568
714.566
715.512
717.352
719.59
720.621
723.63
730.028
735.069
738.747
740.217
742.086
747.185
754.138
758.18
758.25
)
;
    }
    atmosphere
    {
        type            calculated;
        value           nonuniform List<scalar> 
46
(
-5.72912
-5.72906
-5.72904
-5.72904
-5.72904
-5.72904
-5.72904
-5.72904
-5.72904
-5.72904
-5.72904
-5.72904
-5.72904
-5.72904
-5.72904
-5.72904
-5.72905
-5.72906
-5.72908
-5.72911
-5.72913
-5.72916
-5.72918
-5.72919
-5.7292
-5.7292
-5.7292
-5.7292
-5.72919
-5.72919
-5.72918
-5.72916
-5.72915
-5.72913
-5.72911
-5.72909
-5.72907
-5.72906
-5.72904
-5.72904
-5.72904
-5.72904
-5.72939
-5.73034
-5.73034
-5.72939
)
;
    }
    defaultFaces
    {
        type            empty;
    }
}


// ************************************************************************* //
