/*--------------------------------*- C++ -*----------------------------------*\
| =========                 |                                                 |
| \\      /  F ield         | OpenFOAM: The Open Source CFD Toolbox           |
|  \\    /   O peration     | Version:  2.3.0                                 |
|   \\  /    A nd           | Web:      www.OpenFOAM.org                      |
|    \\/     M anipulation  |                                                 |
\*---------------------------------------------------------------------------*/
FoamFile
{
    version     2.0;
    format      ascii;
    class       volScalarField;
    location    "2.85";
    object      p_rgh;
}
// * * * * * * * * * * * * * * * * * * * * * * * * * * * * * * * * * * * * * //

dimensions      [1 -1 -2 0 0 0 0];

internalField   nonuniform List<scalar> 
2268
(
862.712
861.19
858.028
853.361
847.447
840.535
832.848
824.586
815.922
807.056
798.126
789.279
780.638
772.301
764.322
756.689
749.242
742.62
737.803
734.727
732.488
732.033
733.228
862.931
861.417
858.471
853.839
847.917
840.956
833.184
824.81
816.021
807.008
797.925
788.917
780.111
771.622
763.539
755.699
747.699
741.891
736.981
733.413
731.968
732.075
733.428
863.496
861.921
859.086
854.517
848.584
841.555
833.66
825.123
816.148
806.929
797.629
788.402
779.393
770.739
762.591
754.979
747.362
740.968
736.243
732.52
730.308
731.984
733.669
864.464
862.774
859.966
855.399
849.425
842.284
834.227
825.491
816.294
806.839
797.3
787.841
778.631
769.84
761.664
754.434
748.626
742.26
737.079
734.35
733.001
731.975
733.248
865.851
863.974
861.135
856.517
850.441
843.139
834.88
825.91
816.463
806.747
796.953
787.256
777.844
768.919
760.703
753.484
747.604
742.725
738.549
735.068
732.776
731.838
732.663
867.584
865.612
862.643
857.919
851.68
844.163
835.651
826.403
816.666
806.659
796.585
786.625
776.988
767.901
759.609
752.375
746.458
741.609
737.613
734.458
732.525
731.608
732.076
869.695
867.629
864.51
859.637
853.175
845.379
836.556
826.98
816.91
806.571
796.184
785.932
776.039
766.754
758.351
751.089
745.165
740.392
736.582
733.722
732.167
731.503
731.308
872.198
870.005
866.706
861.621
854.864
846.726
837.539
827.595
817.161
806.463
795.749
785.204
775.047
765.547
757.012
749.72
743.824
739.153
735.5
732.806
731.409
730.845
729.94
705.217
708.163
711.472
713.568
714.566
715.512
717.352
719.59
720.621
723.63
730.028
735.069
738.747
740.217
742.086
747.185
754.138
758.18
758.25
704.972
709.889
711.822
713.301
714.419
715.689
717.758
720.993
722.621
724.351
732.301
736.119
740.27
742.451
743.17
746.976
752.898
757.374
758.142
703.884
709.393
711.392
712.456
713.584
715.196
717.893
721.911
727.753
730.481
734.295
737.226
741.265
743.113
743.52
746.387
751.692
755.862
757.767
703.021
708.067
711.606
712.087
712.936
714.282
717.869
722.744
728.479
729.225
734.777
737.477
733.457
728.137
735.865
745.291
751.107
754.516
756.962
701.931
709.773
711.897
711.9
712.955
713.608
717.767
723.527
726.008
712.719
715.793
717.897
721.268
724.105
722.576
740.596
751.09
753.485
756.139
704.069
713.344
711.739
711.612
712.806
713.473
716.424
723.808
709.688
711.476
715.773
732.614
720.665
722.994
721.72
731.817
751.639
752.967
755.754
716.07
713.148
710.991
711.191
712.709
713.741
710.485
724.356
720.441
709.943
735.001
748.107
719.759
721.766
720.745
730.525
752.669
753.062
755.975
714.682
711.165
709.89
710.799
712.98
708.655
694.446
724.174
735.401
735.913
747.673
751.966
746.56
720.467
719.71
741.035
753.866
753.82
756.396
876.716
874.311
870.642
865.06
857.684
848.896
839.079
828.53
817.501
806.261
795.071
784.091
773.503
763.602
754.77
747.37
741.545
737.101
733.67
731.037
729.498
728.333
726.183
884.453
882.165
878.059
871.399
862.662
852.615
841.75
830.303
818.452
806.401
794.025
778.407
758.439
734.739
709.381
685.34
665.392
650.453
638.483
633.259
638.738
646.261
639.211
896.678
887.914
871.211
849.299
819.69
780.919
734.936
682.824
620.553
549.001
475.275
394.114
320.999
258.139
208.571
173.383
151.859
143.25
146.218
152.064
150.571
140.716
120.807
481.724
457.877
405.853
328.592
252.994
189.221
135.239
88.0465
50.9403
25.354
6.85755
5.71168
5.14455
5.0912
5.1987
5.1152
4.83663
4.65511
4.90431
6.29405
9.90855
10.3105
9.31423
15.4526
15.278
7.0596
14.3859
19.8171
23.3006
23.4526
23.0159
22.7475
23.561
21.6404
14.5267
6.92064
4.9813
5.10451
5.47723
4.68191
4.53873
4.61416
9.37706
14.49
14.4176
14.1789
13.8457
4.74316
3.10094
20.1295
25.5832
25.8396
25.4949
25.0136
24.4241
22.5122
16.3629
6.18859
5.28082
5.80262
9.72478
9.61846
6.51714
4.32788
6.11334
14.6729
14.7323
12.8248
13.9413
13.2601
3.26476
1.27305
8.54933
23.1743
25.4631
14.6004
6.75094
4.73117
3.82085
3.55522
5.07836
9.59458
9.74679
9.76661
9.69869
9.52134
4.81188
4.66472
7.56029
5.35722
0.307992
0.207135
12.519
2.05339
0.939096
0.910264
0.357519
0.253804
0.197822
0.184785
0.194301
0.221922
0.26688
3.63941
7.21512
6.5554
4.86517
5.04706
4.34547
2.64914
0.593676
0.0889311
0.107281
0.126575
0.122623
6.46885
2.12411
0.90262
0.911175
2.01128
2.44287
0.472421
0.181033
0.17361
0.181708
0.184891
0.158255
0.0728352
0.0770133
0.0789648
0.0672754
0.0583234
0.101531
0.120904
0.0892984
0.0922104
0.10119
0.102895
0.319028
0.928444
0.879536
3.0876
3.09336
3.09638
2.7153
0.141398
0.148866
0.160885
0.169731
0.200256
0.38234
0.410517
0.214802
0.0858519
0.0627831
0.0719332
0.111233
0.153297
0.0994171
0.0889401
0.0902023
-0.00324693
-0.063792
0.548336
3.07501
3.20187
2.76157
1.08404
0.406871
0.118968
0.139151
0.221173
0.529602
0.560839
0.569399
0.577189
0.287997
0.0493353
0.0626682
0.151419
0.162292
0.161159
0.0811071
0.0782964
-0.0892395
-0.142796
0.212315
1.14092
0.80633
-0.142399
-0.110895
-0.0495709
0.629654
0.746041
0.754125
0.294262
0.0270667
0.411863
0.51366
0.0953489
0.0349566
0.0454738
0.124785
0.155835
0.161287
0.133288
0.0667757
-0.133201
-0.164591
-0.0935347
-0.0593171
-0.111815
-0.137953
-0.110932
-0.0857455
-0.0698427
-0.0548488
-0.0419654
-0.0275638
-0.014449
-0.0100844
-0.000888069
0.0131377
0.0247992
0.0330543
0.0425357
0.117703
0.15451
0.154611
0.0583313
-0.144088
-0.169598
-0.173957
-0.168403
-0.150249
-0.127553
-0.106867
-0.0864665
-0.0698963
-0.0557463
-0.0428326
-0.0309272
-0.0206839
-0.0118171
-0.00221654
0.00849388
0.0180882
0.0255774
0.0310076
0.0348421
0.0545648
0.082033
0.0670286
-0.137674
-0.154913
-0.154534
-0.147345
-0.133391
-0.115734
-0.0996916
-0.0833411
-0.068739
-0.0556555
-0.0436846
-0.0326564
-0.0226817
-0.0135433
-0.00440293
0.00476644
0.0129673
0.0197064
0.025006
0.0292096
0.0327569
0.0359957
0.0397155
-0.123916
-0.133159
-0.133065
-0.127251
-0.116844
-0.104056
-0.0907474
-0.0777196
-0.0653975
-0.053859
-0.0430622
-0.0329607
-0.0235901
-0.0148649
-0.00644496
0.00162398
0.00885668
0.0150005
0.0200752
0.0242751
0.0278638
0.031041
0.0340142
-0.108533
-0.110939
-0.111269
-0.107682
-0.100526
-0.0912554
-0.0810778
-0.07069
-0.0605135
-0.0506699
-0.0412217
-0.0322202
-0.0237149
-0.0156971
-0.00807097
-0.000903095
0.00557042
0.0112101
0.0160205
0.0201037
0.0236565
0.0268602
0.0293417
-0.0942059
-0.0917769
-0.091486
-0.0895423
-0.0849947
-0.0785548
-0.0710594
-0.0630374
-0.0548421
-0.046656
-0.0385994
-0.0307699
-0.0232449
-0.0160673
-0.00924893
-0.00286161
0.00296357
0.00814052
0.0126599
0.0165689
0.0199326
0.0228321
0.02539
-0.0817622
-0.0768207
-0.0752153
-0.0739007
-0.0711076
-0.0668263
-0.0614775
-0.0554334
-0.0489781
-0.0423096
-0.0355735
-0.0288895
-0.0223566
-0.0160472
-0.0100167
-0.00433716
0.00090185
0.00563637
0.00984563
0.0135433
0.0167523
0.0194681
0.0217389
-0.0710166
-0.0653839
-0.0626122
-0.0612456
-0.0594133
-0.0565879
-0.0528302
-0.0483421
-0.0433313
-0.0379754
-0.032424
-0.0268005
-0.0212078
-0.0157308
-0.0104416
-0.00541307
-0.000717474
0.00358925
0.00747711
0.0109386
0.0139723
0.0165545
0.018729
-0.0616554
-0.0563504
-0.0530148
-0.0513879
-0.0499707
-0.0480159
-0.0453441
-0.04201
-0.0381396
-0.0338706
-0.0293339
-0.0246459
-0.0199045
-0.0151931
-0.0105873
-0.00615753
-0.00196898
0.00192483
0.00548739
0.00869833
0.0115408
0.0139797
0.0160527
-0.0534259
-0.0489536
-0.0455845
-0.0437674
-0.0424863
-0.0410035
-0.0390265
-0.0365082
-0.0335027
-0.0301012
-0.0264052
-0.0225136
-0.018515
-0.0144855
-0.010496
-0.00661285
-0.00289654
0.000600965
0.00383986
0.00679257
0.00943341
0.0117196
0.0136828
-0.0464279
-0.0426603
-0.0396181
-0.0377619
-0.0365238
-0.035292
-0.0337488
-0.031793
-0.0294263
-0.0266985
-0.0236809
-0.0204512
-0.0170843
-0.0136476
-0.0102038
-0.0068134
-0.00353231
-0.000409987
0.00251326
0.00520673
0.00764021
0.00976667
0.0116121
-0.0404414
-0.0372667
-0.0346068
-0.0328501
-0.0316632
-0.0305934
-0.0293348
-0.0277686
-0.0258683
-0.0236546
-0.0211739
-0.0184841
-0.0156452
-0.0127145
-0.00974686
-0.00679526
-0.00391039
-0.00113807
0.00148299
0.00392172
0.00614629
0.00810807
0.00982837
-0.0353544
-0.0327104
-0.0303259
-0.0286687
-0.0275883
-0.0266734
-0.0256263
-0.0243372
-0.0227762
-0.0209498
-0.0188874
-0.0166308
-0.0142265
-0.0117221
-0.00916424
-0.00659888
-0.00407034
-0.00161988
0.000716683
0.00290968
0.00492759
0.00672214
0.00831104
-0.0309548
-0.0287161
-0.0265115
-0.0249951
-0.0241162
-0.0233969
-0.0225219
-0.0214273
-0.0201068
-0.018565
-0.0168215
-0.0149062
-0.0128546
-0.0107048
-0.00849584
-0.00626669
-0.00405496
-0.00189674
0.000175851
0.00213559
0.00395252
0.00558004
0.00703334
-0.0129086
-0.0251543
-0.0118128
-0.0111886
-0.0191244
-0.0207599
-0.0199889
-0.0189973
-0.0178261
-0.0164805
-0.0149715
-0.0133193
-0.0115498
-0.00969223
-0.00777802
-0.00583928
-0.00390697
-0.00201171
-0.000181425
0.00155974
0.00318423
0.00464803
0.00596467
0.0566728
0.0571242
0.0735663
0.0750499
0.026234
-0.0188294
-0.0180158
-0.0170092
-0.0158966
-0.0146685
-0.0133236
-0.0118704
-0.0103248
-0.00870682
-0.00704115
-0.00535262
-0.00366592
-0.00200606
-0.00039652
0.00114202
0.00258495
0.00389135
0.00507372
0.0708839
0.075289
0.0768759
0.0781611
0.0314016
-0.01755
-0.0164633
-0.0153618
-0.0142472
-0.0130832
-0.0118523
-0.0105506
-0.00918356
-0.0077639
-0.00630863
-0.00483607
-0.00336505
-0.00191519
-0.000505463
0.00084705
0.0021209
0.0032785
0.00433162
-0.00642727
0.062969
0.0662445
0.0299761
-0.00724429
-0.0163266
-0.0150772
-0.0139024
-0.0127827
-0.0116655
-0.0105234
-0.00934354
-0.00812408
-0.00687116
-0.00559571
-0.00431044
-0.00302897
-0.00176604
-0.000536353
0.000646527
0.00176428
0.00278263
0.00371274
-0.0218152
-0.0147346
-0.0143624
-0.0180115
-0.0165381
-0.0149309
-0.0136694
-0.0125148
-0.0114269
-0.0103662
-0.00930626
-0.00823221
-0.00713915
-0.00602931
-0.00490938
-0.00378773
-0.00267363
-0.0015775
-0.000510136
0.000518163
0.00149204
0.0023805
0.00319415
-0.0195146
-0.0186002
-0.0174274
-0.016121
-0.0147559
-0.0134424
-0.0122501
-0.0111652
-0.0101439
-0.00915434
-0.00817691
-0.0071997
-0.00621822
-0.00523349
-0.00424988
-0.00327289
-0.00230827
-0.00136252
-0.000442751
0.000443788
0.00128455
0.00205177
0.00275564
-0.0172914
-0.0163603
-0.0152545
-0.0141239
-0.0129887
-0.0118829
-0.0108412
-0.00986019
-0.0089234
-0.00801368
-0.00711869
-0.00623142
-0.00534985
-0.00447584
-0.00361334
-0.00276641
-0.00193786
-0.00113013
-0.000346577
0.000408554
0.00112542
0.0017795
0.00238057
-0.0152149
-0.0142939
-0.0132608
-0.0122706
-0.0113159
-0.0103826
-0.00948002
-0.00860906
-0.00776339
-0.00693554
-0.00612024
-0.00531561
-0.00452321
-0.00374741
-0.00299358
-0.00226609
-0.00156465
-0.000886641
-0.000231138
0.000400731
0.00100171
0.00155035
0.00205584
-0.0132787
-0.0123906
-0.0114368
-0.0105689
-0.00975932
-0.00896782
-0.0081886
-0.00742142
-0.00666421
-0.00591492
-0.00517347
-0.00444256
-0.00372793
-0.003038
-0.00238189
-0.00176704
-0.00118876
-0.000636484
-0.000103957
0.000410865
0.000902928
0.00135348
0.00177056
-0.0114577
-0.0106253
-0.0097591
-0.00900334
-0.00831592
-0.00764385
-0.00697283
-0.00630017
-0.00562483
-0.00494747
-0.00427136
-0.00360302
-0.0029527
-0.00233464
-0.00176512
-0.00126055
-0.000808248
-0.000383143
2.80772e-05
0.000430228
0.000819482
0.00117886
0.00151451
-0.00971462
-0.00895438
-0.00818831
-0.00754541
-0.00696953
-0.0064032
-0.00582901
-0.00524227
-0.0046415
-0.00402812
-0.00340716
-0.00278796
-0.0021853
-0.0016215
-0.00112523
-0.000734501
-0.000420901
-0.000131104
0.000156908
0.000449263
0.000741383
0.00101653
0.00127784
-0.00800308
-0.00731759
-0.00667577
-0.00616157
-0.00569741
-0.00523069
-0.00474683
-0.00424032
-0.00370836
-0.00315173
-0.00257554
-0.00199041
-0.0014148
-0.000881468
-0.00043979
-0.000177392
-3.0431e-05
0.00010927
0.000270377
0.000456198
0.00065793
0.000856892
0.00105184
-0.00627942
-0.00562387
-0.00516145
-0.00482083
-0.00448004
-0.00411276
-0.00371709
-0.00328779
-0.00282013
-0.00231298
-0.0017696
-0.00119937
-0.000620675
-7.34069e-05
0.000359642
0.000441171
0.000348071
0.000312125
0.000346863
0.00043575
0.000558628
0.000692537
0.000830828
-0.00456085
-0.00382937
-0.00364797
-0.00355051
-0.00333904
-0.00306704
-0.00275454
-0.00239405
-0.00197767
-0.00150078
-0.000961847
-0.000364453
0.000283338
0.000962459
0.00158015
0.00130621
0.000718362
0.00043416
0.000353627
0.000370717
0.000435723
0.000520662
0.000614206
-0.00291837
-0.00241665
-0.00256831
-0.00257112
-0.0023782
-0.00215362
-0.00189935
-0.0015842
-0.00119194
-0.000711612
-0.000132932
0.000554545
0.00137553
0.00238322
0.00372628
0.00284574
0.00111927
0.000435101
0.00026401
0.000250098
0.000285784
0.000340481
0.000404468
-0.000764447
-0.00272524
-0.00224234
-0.00181053
-0.00140892
-0.00116285
-0.000964353
-0.000735574
-0.000447487
-8.37312e-05
0.000372536
0.000948353
0.00174007
0.00300174
0.00472306
0.00438955
0.00143026
0.000422744
0.000154245
8.45209e-05
7.04214e-05
7.66575e-05
9.18186e-05
717.253
714.273
712.133
710.601
608.406
591.534
583.054
580.515
96.9279
85.8744
76.5411
68.9181
7.39259
5.53065
5.19567
5.34664
8.25569
5.01796
4.7509
4.924
13.1924
6.40332
3.41652
7.32393
2.4679
3.10318
2.78778
5.75221
0.106376
0.103127
0.394597
0.474499
0.101743
0.10221
0.102021
0.111101
0.0890847
0.127953
0.182463
0.181335
0.0770095
0.0763027
0.115216
0.167545
0.0660459
0.0677053
0.095289
0.106977
0.056258
0.0559053
0.0555152
0.0719486
0.0477362
0.0480107
0.0479498
0.0481066
0.0454445
0.042056
0.0418853
0.0423376
0.0360802
0.0368104
0.0368888
0.0375888
0.0306584
0.0317018
0.03276
0.0336035
0.0268586
0.0279485
0.0290659
0.0300094
0.0234168
0.0246982
0.0258734
0.0268638
0.0203926
0.0216589
0.0229437
0.0240166
0.017694
0.0189794
0.020306
0.0214196
0.0152819
0.0165645
0.0179086
0.0190464
0.0131526
0.0144123
0.0157489
0.0168896
0.011296
0.0125146
0.0138211
0.0149438
0.00969349
0.0108561
0.0121138
0.0132005
0.00832151
0.00941772
0.0106128
0.0116494
0.00715348
0.00817745
0.00930059
0.0102769
0.00616189
0.00711071
0.00815664
0.0090662
0.00532029
0.00619279
0.007159
0.00799814
0.00460407
0.00540024
0.00628595
0.00705316
0.00399071
0.00471152
0.00551709
0.00621249
0.00346056
0.00410773
0.00483433
0.00545923
0.00299771
0.00357328
0.00422255
0.00477893
0.00258951
0.00309554
0.0036692
0.0041592
0.002225
0.00266349
0.00316326
0.00358895
0.00189379
0.00226689
0.00269463
0.00305816
0.00158616
0.00189634
0.00225421
0.00255797
0.00129388
0.00154385
0.00183434
0.00208107
0.00101223
0.00120507
0.00143096
0.0016237
0.000738665
0.000876482
0.00104063
0.0011838
0.000492507
0.000584
0.000690438
0.00078226
0.000124572
0.00015802
0.000196696
0.000230123
710.62
707.928
707.651
709.686
713.43
686.82
638.879
697.922
729.205
742.239
748.155
753.368
759.928
760.69
757.922
754.264
746.123
755.549
757.34
577.152
552.769
538.276
536.6
563.697
586.784
528.75
478.801
555.84
590.86
614.667
648.848
688.15
710.971
726.614
725.968
717.521
694.301
672.178
62.903
56.1152
59.2637
69.909
103.092
211.775
357.892
428.68
439.247
450.114
460.542
465.676
468.463
467.802
453.636
419.972
378.319
364.396
392.773
5.45693
6.13406
6.04016
4.79175
3.49898
3.08432
2.53031
2.20826
1.91169
1.62143
1.42935
1.31662
3.85945
7.64997
4.31968
0.254524
5.49137
21.2956
26.1469
5.16407
6.43504
5.89831
5.51531
5.41153
5.96435
5.47703
4.37661
2.55686
1.96824
1.58107
1.41776
0.528145
0.132234
0.108864
0.113847
0.120296
0.117341
0.111577
9.27996
9.187
9.13558
9.10421
9.02803
8.91077
8.14663
6.53411
4.43445
2.27458
1.23054
1.26708
0.821643
0.175651
0.130654
0.120263
0.110033
0.114501
0.177116
6.23038
4.25781
3.15748
2.66509
1.78597
0.50203
0.0942018
0.0853821
0.0856925
0.0946263
0.0987909
0.0960236
0.339202
0.495952
0.464935
0.121053
0.105549
0.111214
0.3475
0.180653
0.148596
0.119973
0.107759
0.107659
0.106166
0.11134
0.148343
0.0996177
0.0906331
0.0927288
0.0913505
0.307443
0.337991
0.158026
0.0953474
0.0998723
0.101663
0.384515
0.152147
0.173068
0.127073
0.120574
0.158371
0.182742
0.223844
0.217374
0.149033
0.0890057
0.0910892
0.0902517
0.0867428
0.0863817
0.0883905
0.0915473
0.152828
0.356025
0.395405
0.1801
0.177562
0.14044
0.137973
0.18584
0.218178
0.223813
0.215789
0.0983029
0.0867289
0.133873
0.197217
0.262115
0.2888
0.244964
0.257549
0.318657
0.314236
0.194726
0.173907
0.0718742
0.0714656
0.0692242
0.0652705
0.0611071
0.0902061
0.0872276
0.096357
0.184258
0.330313
0.327745
0.323762
0.319793
0.318044
0.261576
0.111903
0.0892229
0.0887872
0.0875772
0.0760945
0.0759754
0.0645469
0.060379
0.057012
0.0542646
0.0582603
0.101992
0.184068
0.312063
0.33179
0.328652
0.167483
0.0727667
0.0846315
0.0881154
0.0910401
0.143419
0.0992043
0.102871
0.103234
0.0889713
0.0552903
0.0520619
0.0787858
0.102099
0.0991173
0.055475
0.0356512
0.0653424
0.0697807
0.0470394
0.0464845
0.147747
0.160315
0.159641
0.157021
0.0684566
0.098269
0.098837
0.0986401
0.0787203
0.0472278
0.0458914
0.0535565
0.0500526
0.0376937
0.0352706
0.0332427
0.0325075
0.0331151
0.035841
0.105667
0.153372
0.147751
0.155447
0.0429771
0.0495805
0.0895356
0.0949256
0.0865122
0.0429865
0.0414967
0.0396339
0.0378154
0.0360574
0.0359687
0.0346224
0.0329679
0.031461
0.0306378
0.0284756
0.0266029
0.0252923
0.0425376
0.0385415
0.0392307
0.0394904
0.0573691
0.0516971
0.0392381
0.0384467
0.0377067
0.036611
0.0346285
0.0341732
0.0334004
0.032377
0.0314194
0.028079
0.0264067
0.0248064
0.0243637
0.0279726
0.0346414
0.0355147
0.0359214
0.0360079
0.0361019
0.0360295
0.0356056
0.0369325
0.0359789
0.034689
0.0310972
0.0296889
0.0285745
0.027337
0.0258482
0.0243094
0.0229106
0.0302905
0.105847
0.0311945
0.0321777
0.0327672
0.0330779
0.0332103
0.0331074
0.0326219
0.0330156
0.0336786
0.0325722
0.0313557
0.0276343
0.0261295
0.024938
0.023632
0.0221994
0.020862
0.0320868
0.110628
0.0281018
0.0291453
0.0298377
0.03025
0.030425
0.0303441
0.0299481
0.0292714
0.0292266
0.0303907
0.0292999
0.0277709
0.0240414
0.0228356
0.0215505
0.0202002
0.0189306
0.0243086
0.112972
0.0252936
0.0263676
0.0271153
0.0275824
0.0277891
0.0277363
0.0274097
0.0268365
0.0260647
0.025625
0.0264968
0.0239885
0.0221899
0.021002
0.0198339
0.018429
0.0172888
0.0173788
0.115846
0.0227253
0.0238124
0.0245888
0.02509
0.0253233
0.0253008
0.0250305
0.0245381
0.0238614
0.0230382
0.0221128
0.021143
0.0202845
0.0193842
0.0182859
0.0169126
0.0159451
0.0154314
0.11871
0.0203685
0.0214564
0.0222467
0.0227719
0.0230316
0.0230436
0.0228262
0.0224048
0.0218129
0.0210852
0.0202594
0.0193723
0.0184405
0.0177748
0.0167789
0.0156262
0.0148512
0.0146583
0.121662
0.0182087
0.0192842
0.0200779
0.0206207
0.0209075
0.0209581
0.0207946
0.0204426
0.0199332
0.0192982
0.0185711
0.0177842
0.0169617
0.0161406
0.0153116
0.0145571
0.013987
0.0140222
0.11962
0.0162381
0.0172868
0.0180741
0.0186286
0.018942
0.0190333
0.0189254
0.0186436
0.0182172
0.0176761
0.0170516
0.0163756
0.0156781
0.01499
0.0143447
0.0137832
0.0134324
0.0137315
0.0750302
0.0144497
0.0154578
0.0162284
0.0167878
0.0171247
0.0172556
0.017203
0.0169912
0.0166475
0.0162006
0.0156814
0.0151231
0.0145615
0.0140363
0.0135901
0.0132804
0.013264
0.0140004
0.022915
0.0128366
0.0137914
0.0145349
0.0150909
0.0154449
0.0156108
0.0156097
0.0154644
0.0152002
0.0148449
0.0144298
0.0139908
0.0135698
0.0132168
0.0129906
0.0129793
0.013386
0.0146205
0.0163239
0.0113893
0.01228
0.0129865
0.0135299
0.0138925
0.0140858
0.014129
0.014043
0.0138512
0.0135809
0.013264
0.0129391
0.0126538
0.0124681
0.0124591
0.0127487
0.0135778
0.0152179
0.0171873
0.0100947
0.0109133
0.0115745
0.0120958
0.0124578
0.0126691
0.012747
0.0127102
0.0125807
0.012385
0.0121553
0.0119319
0.0117668
0.0117275
0.0119059
0.0124506
0.013625
0.015578
0.0183053
0.00893764
0.00967919
0.0102883
0.0107796
0.0111319
0.0113515
0.0114534
0.0114543
0.0113748
0.0112404
0.0110827
0.0109424
0.0108731
0.0109456
0.0112585
0.0119709
0.0133468
0.0154621
0.0563932
0.00790186
0.00856435
0.00911718
0.00957219
0.00990694
0.0101256
0.0102409
0.0102677
0.0102252
0.0101372
0.010034
0.00995507
0.00995269
0.010096
0.0104805
0.0112579
0.0126756
0.0150047
0.0800995
0.00697143
0.00755556
0.0080502
0.00846463
0.00877558
0.00898526
0.00910426
0.00914594
0.0091275
0.00907099
0.00900465
0.00896554
0.00900256
0.0091794
0.0095814
0.0103433
0.0116965
0.016367
0.080823
0.0061315
0.00664014
0.00707676
0.0074481
0.00773057
0.00792473
0.00803933
0.00808591
0.00807979
0.00804099
0.00799552
0.00797753
0.0080316
0.0082142
0.00859755
0.00929563
0.0105285
0.0181093
0.0814284
0.00536867
0.00580623
0.00618643
0.00651366
0.00676457
0.00693846
0.00704221
0.00708551
0.00708168
0.00704881
0.00701087
0.00699944
0.00705516
0.00722716
0.00757372
0.00818731
0.00927421
0.0149068
0.0818006
0.00467094
0.00504262
0.005369
0.00565243
0.00587035
0.00602096
0.00610934
0.00614314
0.00613374
0.00609742
0.00605664
0.0060415
0.00609065
0.00624779
0.00655934
0.00710171
0.00807185
0.00976644
0.0608185
0.00402738
0.00433881
0.0046148
0.004856
0.00504109
0.00516722
0.00523762
0.00525789
0.0052373
0.00519037
0.00513857
0.00511219
0.00515169
0.00529941
0.0055938
0.00610669
0.00704233
0.00873212
0.0105615
0.0034281
0.0036852
0.00391504
0.00411686
0.00427072
0.00437284
0.00442457
0.00442935
0.00439402
0.00433088
0.00426043
0.00421485
0.00424246
0.00438883
0.00468345
0.00519699
0.00614769
0.00864084
0.00991429
0.00286438
0.00307336
0.00326198
0.00342814
0.00355357
0.00363358
0.00366775
0.00365709
0.00360525
0.00352118
0.0034235
0.00334737
0.00335846
0.00351087
0.00381264
0.0043269
0.00526438
0.00707222
0.00875716
0.00232921
0.00249658
0.00264918
0.00278389
0.0028844
0.0029454
0.00296473
0.00294062
0.00287251
0.002764
0.00262948
0.00250474
0.00248925
0.00265847
0.00297036
0.00346681
0.00434094
0.00583613
0.00749326
0.00181923
0.00195201
0.00207392
0.00218157
0.00226117
0.00230722
0.00231604
0.00228294
0.00220228
0.00206923
0.00188467
0.00166715
0.0015909
0.00180775
0.00214374
0.00260207
0.00335866
0.00466261
0.00611611
0.00133658
0.00144238
0.00153905
0.00162425
0.00168736
0.00172335
0.00172765
0.00169346
0.00161068
0.00145908
0.00118805
0.000729193
0.000476866
0.000865347
0.00129226
0.00171514
0.00231736
0.00338701
0.00460541
0.000878162
0.000958441
0.00103395
0.00110035
0.00115074
0.00118151
0.00118841
0.00116438
0.00109707
0.000940076
0.000509971
-0.000550922
-0.00112871
-0.000253529
0.000398296
0.000809188
0.00150773
0.00209269
0.00293571
0.000263587
0.000301971
0.000340551
0.000375658
0.000405023
0.000427123
0.000438889
0.000433372
0.000394555
0.000256644
-0.000264371
-0.00196829
-0.00203537
-0.000852382
-0.000219275
0.000315468
0.00120492
0.00160826
0.00142605
)
;

boundaryField
{
    leftWall
    {
        type            fixedFluxPressure;
        gradient        uniform 0;
        value           nonuniform List<scalar> 
50
(
862.712
862.931
863.496
864.464
865.851
867.584
869.695
872.198
876.716
884.453
896.678
481.724
15.4526
13.8457
13.2601
12.519
6.46885
0.319028
-0.00324693
-0.0892395
-0.133201
-0.144088
-0.137674
-0.123916
-0.108533
-0.0942059
-0.0817622
-0.0710166
-0.0616554
-0.0534259
-0.0464279
-0.0404414
-0.0353544
-0.0309548
-0.0129086
0.0566728
0.0708839
-0.00642727
-0.0218152
-0.0195146
-0.0172914
-0.0152149
-0.0132787
-0.0114577
-0.00971462
-0.00800308
-0.00627942
-0.00456085
-0.00291837
-0.000764447
)
;
    }
    rightWall
    {
        type            fixedFluxPressure;
        gradient        uniform 0;
        value           nonuniform List<scalar> 
50
(
758.25
758.142
757.767
756.962
756.139
755.754
755.975
756.396
757.34
672.178
392.773
26.1469
0.111577
0.177116
0.3475
0.384515
0.395405
0.194726
0.0887872
0.143419
0.157021
0.155447
0.0425376
0.0279726
0.105847
0.110628
0.112972
0.115846
0.11871
0.121662
0.11962
0.0750302
0.022915
0.0163239
0.0171873
0.0183053
0.0563932
0.0800995
0.080823
0.0814284
0.0818006
0.0608185
0.0105615
0.00991429
0.00875716
0.00749326
0.00611611
0.00460541
0.00293571
0.00142605
)
;
    }
    lowerWall
    {
        type            fixedFluxPressure;
        gradient        uniform 0;
        value           nonuniform List<scalar> 
62
(
862.712
861.19
858.028
853.361
847.447
840.535
832.848
824.586
815.922
807.056
798.126
789.279
780.638
772.301
764.322
756.689
749.242
742.62
737.803
734.727
732.488
732.033
733.228
733.228
733.428
733.669
733.248
732.663
732.076
731.308
729.94
717.253
714.273
712.133
710.601
705.217
704.972
703.884
703.021
701.931
704.069
716.07
714.682
705.217
708.163
711.472
713.568
714.566
715.512
717.352
719.59
720.621
723.63
730.028
735.069
738.747
740.217
742.086
747.185
754.138
758.18
758.25
)
;
    }
    atmosphere
    {
        type            totalPressure;
        rho             rho;
        psi             none;
        gamma           1;
        p0              uniform 0;
        value           nonuniform List<scalar> 
46
(
-7.9713e-05
-1.87467e-05
0
0
0
0
0
0
0
0
0
0
0
0
0
-4.95635e-07
-6.21917e-06
-2.10826e-05
-4.20911e-05
-6.61542e-05
-9.11323e-05
-0.000115339
-0.0001374
-0.00015067
-0.000156949
-0.000160312
-0.000160773
-0.000158118
-0.000152906
-0.000145932
-0.000136555
-0.000124409
-0.000109436
-9.19468e-05
-7.26563e-05
-5.26942e-05
-3.3609e-05
-1.70543e-05
-3.81762e-06
0
0
0
0
0
0
0
)
;
    }
    defaultFaces
    {
        type            empty;
    }
}


// ************************************************************************* //
