/*--------------------------------*- C++ -*----------------------------------*\
| =========                 |                                                 |
| \\      /  F ield         | OpenFOAM: The Open Source CFD Toolbox           |
|  \\    /   O peration     | Version:  2.3.0                                 |
|   \\  /    A nd           | Web:      www.OpenFOAM.org                      |
|    \\/     M anipulation  |                                                 |
\*---------------------------------------------------------------------------*/
FoamFile
{
    version     2.0;
    format      ascii;
    class       surfaceScalarField;
    location    "2.85";
    object      phi;
}
// * * * * * * * * * * * * * * * * * * * * * * * * * * * * * * * * * * * * * //

dimensions      [0 3 -1 0 0 0 0];

internalField   nonuniform List<scalar> 
4432
(
1.08988e-06
-1.08988e-06
1.46423e-06
-3.74353e-07
1.44247e-06
2.17598e-08
1.26826e-06
1.74208e-07
1.04036e-06
2.27886e-07
8.17526e-07
2.22844e-07
6.33281e-07
1.84239e-07
5.09538e-07
1.23748e-07
4.63554e-07
4.5984e-08
5.06339e-07
-4.2794e-08
6.48374e-07
-1.42025e-07
8.99946e-07
-2.5158e-07
1.27497e-06
-3.75037e-07
1.7911e-06
-5.1613e-07
2.46379e-06
-6.72699e-07
3.20789e-06
-7.44089e-07
3.69262e-06
-4.84716e-07
3.96798e-06
-2.75358e-07
4.17264e-06
-2.04659e-07
4.37727e-06
-2.0462e-07
4.17661e-06
2.00667e-07
2.79183e-06
1.38478e-06
2.79186e-06
7.43525e-07
-1.8334e-06
9.72698e-07
-6.03536e-07
9.27781e-07
6.66748e-08
7.39397e-07
3.6259e-07
5.03714e-07
4.63551e-07
2.73295e-07
4.5327e-07
8.41731e-08
3.73363e-07
-3.75529e-08
2.45471e-07
-7.52829e-08
8.37272e-08
-1.72013e-08
-1.00893e-07
1.439e-07
-3.03128e-07
4.11001e-07
-5.18688e-07
7.80584e-07
-7.44634e-07
1.24039e-06
-9.75909e-07
1.76163e-06
-1.19391e-06
2.2902e-06
-1.27266e-06
2.74393e-06
-9.38443e-07
3.10567e-06
-6.37079e-07
3.35325e-06
-4.52225e-07
3.43625e-06
-2.87615e-07
3.2561e-06
3.80819e-07
2.52787e-06
2.11305e-06
5.31971e-06
4.88081e-07
-2.32148e-06
6.05604e-07
-7.21072e-07
5.21326e-07
1.50946e-07
3.28478e-07
5.55438e-07
9.26064e-08
6.99417e-07
-1.38078e-07
6.83954e-07
-3.24847e-07
5.60142e-07
-4.39883e-07
3.60493e-07
-4.65121e-07
1.08977e-07
-3.9006e-07
-1.75961e-07
-2.10678e-07
-4.82504e-07
6.86546e-08
-7.98e-07
4.31932e-07
-1.10791e-06
8.49955e-07
-1.39392e-06
1.27755e-06
-1.6215e-06
1.67771e-06
-1.67282e-06
2.09668e-06
-1.35742e-06
2.43139e-06
-9.71785e-07
2.63318e-06
-6.5402e-07
2.66634e-06
-3.20776e-07
2.50618e-06
5.4099e-07
1.94006e-06
2.67917e-06
7.25977e-06
2.73126e-07
-2.59461e-06
3.01221e-07
-7.49181e-07
1.85562e-07
2.66592e-07
-1.5749e-08
7.56749e-07
-2.52474e-07
9.36147e-07
-4.79511e-07
9.10989e-07
-6.58836e-07
7.39478e-07
-7.6146e-07
4.63128e-07
-7.69155e-07
1.16692e-07
-6.73189e-07
-2.7193e-07
-4.73207e-07
-6.82487e-07
-1.80459e-07
-1.09074e-06
1.79483e-07
-1.46785e-06
5.67368e-07
-1.7818e-06
9.36102e-07
-1.99023e-06
1.26152e-06
-1.99825e-06
1.5923e-06
-1.68821e-06
1.86452e-06
-1.244e-06
2.00406e-06
-7.93569e-07
1.96275e-06
-2.79476e-07
1.77948e-06
7.2427e-07
1.34037e-06
3.11828e-06
8.60016e-06
8.49068e-08
-2.67953e-06
4.69555e-08
-7.11238e-07
-9.34425e-08
4.06981e-07
-2.96745e-07
9.60048e-07
-5.26976e-07
1.16638e-06
-7.43814e-07
1.12784e-06
-9.08635e-07
9.04299e-07
-9.91736e-07
5.46224e-07
-9.75729e-07
1.00687e-07
-8.5442e-07
-3.93239e-07
-6.31372e-07
-9.05531e-07
-3.2435e-07
-1.39776e-06
3.31501e-08
-1.82535e-06
3.95755e-07
-2.14441e-06
7.18233e-07
-2.31271e-06
9.83729e-07
-2.26375e-06
1.22034e-06
-1.92483e-06
1.39584e-06
-1.41951e-06
1.44031e-06
-8.38045e-07
1.30177e-06
-1.40939e-07
1.03052e-06
9.95509e-07
7.05814e-07
3.44297e-06
9.30596e-06
-3.82736e-08
-2.64126e-06
-1.50029e-07
-5.99476e-07
-3.01495e-07
5.58447e-07
-4.95145e-07
1.1537e-06
-7.0951e-07
1.38074e-06
-9.07404e-07
1.32574e-06
-1.04932e-06
1.04621e-06
-1.10526e-06
6.02153e-07
-1.05961e-06
5.50322e-08
-9.09518e-07
-5.43321e-07
-6.62686e-07
-1.15236e-06
-3.43239e-07
-1.71719e-06
8.35857e-09
-2.17695e-06
3.42344e-07
-2.47839e-06
6.15323e-07
-2.58569e-06
8.12861e-07
-2.46129e-06
9.55354e-07
-2.06732e-06
1.02044e-06
-1.4846e-06
9.50134e-07
-7.67743e-07
7.00034e-07
1.09161e-07
3.22039e-07
1.37349e-06
3.57269e-08
3.72929e-06
9.34168e-06
-1.40341e-07
-2.50093e-06
-2.80126e-07
-4.59692e-07
-4.19528e-07
6.97848e-07
-5.87477e-07
1.32165e-06
-7.73323e-07
1.56659e-06
-9.41361e-07
1.49377e-06
-1.05085e-06
1.1557e-06
-1.07206e-06
6.23368e-07
-9.9206e-07
-2.4952e-08
-8.12297e-07
-7.2307e-07
-5.44817e-07
-1.41983e-06
-2.19887e-07
-2.04212e-06
1.15904e-07
-2.51273e-06
4.09464e-07
-2.77194e-06
6.19566e-07
-2.79579e-06
7.35032e-07
-2.57675e-06
7.7378e-07
-2.10607e-06
7.2495e-07
-1.43577e-06
5.45737e-07
-5.88526e-07
2.01015e-07
4.53878e-07
-2.76686e-07
1.85119e-06
-6.5173e-07
4.10432e-06
8.68995e-06
-1.99604e-07
-2.30133e-06
-3.30926e-07
-3.28378e-07
-4.33544e-07
8.00461e-07
-5.58159e-07
1.44627e-06
-7.01334e-07
1.70978e-06
-8.27502e-07
1.61994e-06
-8.94743e-07
1.22295e-06
-8.74616e-07
6.03241e-07
-7.57865e-07
-1.41704e-07
-5.5136e-07
-9.29571e-07
-2.71501e-07
-1.69969e-06
4.60127e-08
-2.35963e-06
3.49749e-07
-2.81647e-06
5.84981e-07
-3.00717e-06
7.1346e-07
-2.92426e-06
7.2932e-07
-2.5926e-06
6.5473e-07
-2.03147e-06
4.9432e-07
-1.27536e-06
2.26965e-07
-3.21165e-07
-1.66341e-07
8.47176e-07
-6.50279e-07
2.33513e-06
-1.03901e-06
4.49304e-06
7.65095e-06
-3.33752e-06
3.33752e-06
-1.67361e-06
-1.66389e-06
4.36764e-07
-2.11038e-06
2.13495e-06
-1.69818e-06
3.41596e-06
-1.28101e-06
4.15479e-06
-7.38837e-07
4.2368e-06
-8.20054e-08
4.02305e-06
2.13758e-07
2.00331e-06
2.01974e-06
-1.77567e-06
3.77898e-06
-3.27176e-06
1.49609e-06
-4.28657e-06
1.01481e-06
-6.90736e-06
2.62081e-06
-1.04591e-05
3.55174e-06
-1.24983e-05
2.03915e-06
-1.13155e-05
-1.1828e-06
-7.82352e-06
-3.49196e-06
-3.37642e-06
-4.44712e-06
-3.3764e-06
-1.55685e-06
4.89436e-06
-4.92323e-07
-2.7284e-06
5.23453e-07
-3.12615e-06
1.41724e-06
-2.59196e-06
2.15158e-06
-2.01534e-06
2.46904e-06
-1.05629e-06
2.17896e-06
2.08074e-07
1.4865e-06
9.06229e-07
3.93341e-07
3.11289e-06
-1.46359e-06
5.63592e-06
-2.87673e-06
2.90924e-06
-4.13591e-06
2.27395e-06
-6.24316e-06
4.7281e-06
-8.65332e-06
5.96185e-06
-9.76952e-06
3.15535e-06
-9.2008e-06
-1.75155e-06
-7.30003e-06
-5.39271e-06
-4.2234e-06
-7.52378e-06
-7.59978e-06
-8.89274e-08
4.98329e-06
4.82951e-08
-2.86561e-06
3.51712e-07
-3.42957e-06
7.53738e-07
-2.99398e-06
1.13028e-06
-2.39188e-06
1.17026e-06
-1.09627e-06
6.89207e-07
6.89126e-07
-6.86638e-08
1.66412e-06
-8.48726e-07
3.89295e-06
-1.64474e-06
6.43194e-06
-2.7144e-06
3.97891e-06
-3.63991e-06
3.19943e-06
-4.8653e-06
5.9535e-06
-6.29102e-06
7.38754e-06
-7.23863e-06
4.10296e-06
-7.14539e-06
-1.84481e-06
-6.03573e-06
-6.50236e-06
-3.93343e-06
-9.62609e-06
-1.15332e-05
7.01374e-07
4.28192e-06
2.19019e-07
-2.38325e-06
-1.10626e-08
-3.19949e-06
2.64799e-08
-3.03153e-06
1.54498e-07
-2.5199e-06
2.02133e-08
-9.61972e-07
-5.66433e-07
1.27577e-06
-1.25546e-06
2.35314e-06
-1.78874e-06
4.42623e-06
-2.13331e-06
6.77651e-06
-2.7362e-06
4.58182e-06
-3.31295e-06
3.77616e-06
-3.83408e-06
6.47466e-06
-4.37141e-06
7.92486e-06
-4.99789e-06
4.72946e-06
-5.09159e-06
-1.7511e-06
-4.41104e-06
-7.18289e-06
-3.0266e-06
-1.10106e-05
-1.45598e-05
8.40524e-07
3.4414e-06
2.12724e-08
-1.564e-06
-5.76443e-07
-2.60177e-06
-8.01245e-07
-2.80672e-06
-8.49734e-07
-2.47141e-06
-1.0784e-06
-7.33309e-07
-1.72425e-06
1.92161e-06
-2.31874e-06
2.94763e-06
-2.68899e-06
4.79647e-06
-2.65573e-06
6.74324e-06
-2.90144e-06
4.82754e-06
-3.00785e-06
3.88256e-06
-3.01339e-06
6.48021e-06
-2.82872e-06
7.7402e-06
-2.95355e-06
4.8543e-06
-3.0731e-06
-1.63155e-06
-2.68163e-06
-7.57436e-06
-1.89502e-06
-1.17972e-05
-1.64548e-05
5.39014e-07
2.90239e-06
-5.34196e-07
-4.90801e-07
-1.3268e-06
-1.80915e-06
-1.73108e-06
-2.40245e-06
-1.90255e-06
-2.29993e-06
-2.16422e-06
-4.71647e-07
-2.83131e-06
2.5887e-06
-3.3616e-06
3.47793e-06
-3.46609e-06
4.90096e-06
-3.13998e-06
6.41713e-06
-2.99214e-06
4.67971e-06
-2.81087e-06
3.70127e-06
-2.3502e-06
6.01955e-06
-1.67013e-06
7.06013e-06
-1.26331e-06
4.4475e-06
-1.20092e-06
-1.69393e-06
-1.0405e-06
-7.73477e-06
-7.23136e-07
-1.21146e-05
-1.71779e-05
-2.56097e-07
3.1585e-06
-1.35312e-06
6.06209e-07
-2.20896e-06
-9.53306e-07
-2.74325e-06
-1.86816e-06
-2.99962e-06
-2.04356e-06
-3.2554e-06
-2.15863e-07
-3.86718e-06
3.20049e-06
-4.29057e-06
3.90133e-06
-4.11903e-06
4.72942e-06
-3.45976e-06
5.75785e-06
-3.05909e-06
4.27905e-06
-2.74681e-06
3.38898e-06
-1.8771e-06
5.14984e-06
-8.14016e-07
5.99705e-06
3.05755e-08
3.60291e-06
3.92772e-07
-2.05614e-06
3.82977e-07
-7.72497e-06
3.58179e-07
-1.20898e-05
-1.68197e-05
-1.34307e-06
4.50158e-06
-2.25874e-06
1.52187e-06
-3.13614e-06
-7.59079e-08
-3.80072e-06
-1.20359e-06
-4.14577e-06
-1.69852e-06
-4.34383e-06
-1.78171e-08
-4.79779e-06
3.65444e-06
-5.0029e-06
4.10644e-06
-4.59488e-06
4.32139e-06
-3.69322e-06
4.85619e-06
-3.12035e-06
3.70617e-06
-2.6758e-06
2.94443e-06
-1.58403e-06
4.05809e-06
-2.08263e-07
4.62129e-06
1.00603e-06
2.38862e-06
1.5919e-06
-2.64202e-06
1.50453e-06
-7.6376e-06
1.20258e-06
-1.17878e-05
-1.56172e-05
-4.67175e-07
-1.83415e-06
-6.32415e-07
-1.63172e-07
-6.79138e-07
8.47162e-07
-7.656e-07
1.53274e-06
-9.04508e-07
1.8487e-06
-1.01368e-06
1.72912e-06
-9.99667e-07
1.20893e-06
-8.10587e-07
4.14155e-07
-4.46241e-07
-5.06047e-07
5.86465e-08
-1.43445e-06
6.56038e-07
-2.29708e-06
1.25563e-06
-2.95922e-06
1.73964e-06
-3.30049e-06
1.99184e-06
-3.25937e-06
1.94405e-06
-2.87648e-06
1.60573e-06
-2.25429e-06
1.05581e-06
-1.48156e-06
3.75274e-07
-5.94826e-07
-3.88888e-07
4.42994e-07
-1.19054e-06
1.64882e-06
-1.73834e-06
2.88294e-06
-1.48435e-06
4.23904e-06
5.31909e-06
8.47505e-07
-4.01365e-07
-1.43279e-06
-3.06003e-07
-2.58529e-07
-1.18217e-07
6.59381e-07
-2.9004e-08
1.44353e-06
-1.11277e-08
1.83082e-06
4.98012e-08
1.66819e-06
2.40962e-07
1.01776e-06
5.85304e-07
6.98055e-08
1.05506e-06
-9.758e-07
1.57082e-06
-1.95021e-06
2.07217e-06
-2.79843e-06
2.44374e-06
-3.33078e-06
2.60581e-06
-3.46254e-06
2.47108e-06
-3.12463e-06
1.99827e-06
-2.40367e-06
1.1997e-06
-1.45572e-06
1.63992e-07
-4.45841e-07
-8.68195e-07
4.37367e-07
-1.74002e-06
1.31481e-06
-2.14357e-06
2.05239e-06
-1.9042e-06
2.64356e-06
-1.04632e-06
3.38117e-06
4.52326e-06
-2.50489e-07
-2.18421e-07
-1.2144e-06
9.88328e-08
-5.75795e-07
4.18051e-07
3.40154e-07
5.6331e-07
1.29827e-06
7.20635e-07
1.67349e-06
1.01976e-06
1.36906e-06
1.44743e-06
5.90081e-07
1.92785e-06
-4.10626e-07
2.49703e-06
-1.54499e-06
3.06196e-06
-2.51515e-06
3.42668e-06
-3.16316e-06
3.51711e-06
-3.42122e-06
3.30167e-06
-3.24711e-06
2.81246e-06
-2.63544e-06
2.08306e-06
-1.67427e-06
9.75625e-07
-3.48284e-07
-5.80288e-07
1.11008e-06
-2.36768e-06
2.22476e-06
-3.52141e-06
2.46856e-06
-3.30136e-06
1.83235e-06
-1.83492e-06
1.17712e-06
1.53085e-07
1.39317e-06
2.91504e-06
1.7613e-06
1.63267e-06
-2.84709e-06
1.23633e-06
-1.7949e-07
4.91408e-07
1.08508e-06
5.22072e-07
1.26757e-06
1.29419e-06
9.0137e-07
2.44452e-06
2.18724e-07
3.48213e-06
-4.47521e-07
4.24004e-06
-1.16851e-06
4.87541e-06
-2.18035e-06
5.69183e-06
-3.33157e-06
5.56272e-06
-3.03404e-06
4.53884e-06
-2.39731e-06
2.78307e-06
-1.49131e-06
1.44917e-06
-1.30155e-06
1.24189e-06
-1.46705e-06
1.10652e-06
-2.12972e-07
-7.02909e-07
2.9195e-06
-4.20932e-06
5.73116e-06
-7.29331e-06
5.55258e-06
-6.04566e-06
5.84717e-07
-2.06525e-06
-2.80329e-06
1.58709e-06
-2.25915e-06
-7.60962e-08
4.57821e-06
8.75083e-06
-1.1598e-05
1.52461e-06
7.04676e-06
-5.84624e-06
8.45591e-06
-6.28864e-06
1.70992e-06
-3.34088e-06
-2.04642e-06
-1.88299e-07
-2.9339e-06
1.40945e-06
-2.04528e-06
1.71117e-06
-1.47016e-06
2.12448e-06
-2.59361e-06
3.16095e-06
-4.36804e-06
3.80782e-06
-3.68093e-06
1.11521e-06
2.9531e-07
-1.97602e-06
1.6e-06
-2.73692e-06
-5.40601e-07
1.48112e-06
-5.68514e-06
5.27552e-06
-4.00738e-06
3.49713e-06
4.69793e-06
-5.0744e-06
1.43027e-05
-1.08735e-05
1.13518e-05
-6.66644e-06
-3.62231e-06
-1.27608e-06
-8.19362e-06
2.38168e-06
-5.91687e-06
-2.73924e-06
5.04489e-06
1.47251e-05
-2.63231e-05
-7.85898e-06
2.96308e-05
-2.8299e-05
2.8896e-05
-2.567e-05
-9.18816e-07
-1.80501e-05
-9.66634e-06
-1.05469e-05
-1.04371e-05
-6.32671e-06
-6.26541e-06
-5.19865e-06
-2.59825e-06
-5.04293e-06
-2.74934e-06
-5.88932e-06
-3.52162e-06
-8.98277e-06
-5.87365e-07
-1.36557e-05
4.96831e-06
-1.16472e-05
-4.08725e-07
-7.30901e-06
-4.87891e-06
-3.70674e-06
-9.28739e-06
-4.28347e-07
-7.28573e-06
2.26594e-06
2.00366e-06
1.20157e-07
1.64485e-05
-1.90156e-06
1.33735e-05
-1.17145e-06
-4.35238e-06
-1.44027e-07
-9.22103e-06
-1.75343e-06
-4.30751e-06
-9.67433e-07
-3.52519e-06
-1.99574e-06
-2.43273e-05
-1.14633e-05
3.90979e-05
-2.12998e-05
3.87322e-05
-2.43899e-05
2.17139e-06
-2.03546e-05
-1.37017e-05
-1.53261e-05
-1.54655e-05
-1.13442e-05
-1.02474e-05
-9.96718e-06
-3.97531e-06
-1.11445e-05
-1.57208e-06
-1.58388e-05
1.17272e-06
-2.26835e-05
6.2574e-06
-2.18154e-05
4.10008e-06
-1.70385e-05
-5.18571e-06
-1.20423e-05
-9.8752e-06
-9.27998e-06
-1.20497e-05
-6.46874e-06
-1.0097e-05
-2.67397e-06
-1.79112e-06
2.02977e-06
1.17449e-05
3.13373e-06
1.22696e-05
2.34475e-06
-3.56341e-06
8.22037e-07
-7.69829e-06
-4.86904e-06
1.38361e-06
4.70168e-06
-1.05382e-05
-1.41441e-05
-1.0183e-05
-1.72799e-05
4.22335e-05
-1.56636e-05
3.71155e-05
-1.76507e-05
4.15826e-06
-1.92878e-05
-1.20645e-05
-1.82883e-05
-1.6465e-05
-1.67988e-05
-1.17371e-05
-1.66956e-05
-4.07872e-06
-1.95411e-05
1.27326e-06
-2.34375e-05
5.06905e-06
-2.47094e-05
7.52924e-06
-2.14487e-05
8.39254e-07
-1.81493e-05
-8.48512e-06
-1.5472e-05
-1.25526e-05
-1.42119e-05
-1.33099e-05
-1.27929e-05
-1.15159e-05
-1.01466e-05
-4.43748e-06
-3.29166e-06
4.88995e-06
2.34759e-06
6.63044e-06
-6.00211e-07
-6.15543e-07
-6.69238e-06
-1.606e-06
-9.13683e-06
3.82819e-06
6.17606e-06
-1.0611e-05
-2.87312e-05
1.8548e-05
-3.34216e-05
4.69241e-05
-3.26641e-05
3.6358e-05
-3.23233e-05
3.81741e-06
-3.01913e-05
-1.41966e-05
-2.63755e-05
-2.02809e-05
-2.29617e-05
-1.51508e-05
-2.41244e-05
-2.9159e-06
-2.57297e-05
2.87839e-06
-2.58265e-05
5.16571e-06
-2.22546e-05
3.95732e-06
-1.92749e-05
-2.14057e-06
-1.8629e-05
-9.13093e-06
-1.84293e-05
-1.27522e-05
-1.86287e-05
-1.31104e-05
-1.97005e-05
-1.04439e-05
-1.91964e-05
-4.94152e-06
-1.54541e-05
1.14774e-06
-1.14307e-05
2.60707e-06
-1.23958e-05
3.49778e-07
-1.47934e-05
7.91697e-07
-1.48641e-05
3.89891e-06
5.26891e-06
-1.39569e-05
-3.50307e-05
5.35785e-05
-4.1332e-05
5.32248e-05
-3.7835e-05
3.28612e-05
-3.51246e-05
1.1071e-06
-3.34925e-05
-1.58286e-05
-3.26453e-05
-2.11281e-05
-3.19789e-05
-1.58173e-05
-3.16042e-05
-3.29054e-06
-3.10583e-05
2.33245e-06
-2.91806e-05
3.28796e-06
-2.64451e-05
1.22177e-06
-2.46975e-05
-3.88833e-06
-2.43918e-05
-9.4366e-06
-2.42354e-05
-1.29084e-05
-2.4226e-05
-1.31196e-05
-2.47966e-05
-9.87316e-06
-2.46997e-05
-5.03837e-06
-2.25534e-05
-9.98416e-07
-2.02819e-05
3.35515e-07
-1.98954e-05
-3.67012e-08
-1.99213e-05
8.17866e-07
-1.88052e-05
2.78302e-06
3.51538e-06
-1.70516e-05
-2.49575e-05
7.85363e-05
-3.28507e-05
6.11176e-05
-3.14824e-05
3.14929e-05
-3.11972e-05
8.22123e-07
-3.2394e-05
-1.46319e-05
-3.50522e-05
-1.847e-05
-3.80305e-05
-1.28393e-05
-3.7299e-05
-4.02238e-06
-3.46651e-05
-3.01528e-07
-3.13547e-05
-2.26086e-08
-2.82065e-05
-1.92649e-06
-2.68999e-05
-5.19492e-06
-2.72964e-05
-9.03994e-06
-2.76865e-05
-1.25182e-05
-2.78605e-05
-1.29456e-05
-2.82185e-05
-9.51515e-06
-2.7917e-05
-5.3398e-06
-2.6518e-05
-2.39738e-06
-2.49055e-05
-1.27697e-06
-2.39659e-05
-9.76369e-07
-2.29155e-05
-2.32418e-07
-2.11622e-05
1.02974e-06
1.49808e-06
-1.91448e-05
-1.45201e-05
9.30565e-05
-1.93739e-05
6.59712e-05
-2.08855e-05
3.30042e-05
-2.44923e-05
4.42903e-06
-2.9583e-05
-9.54137e-06
-3.58323e-05
-1.22208e-05
-3.88267e-05
-9.84492e-06
-3.76812e-05
-5.16813e-06
-3.46236e-05
-3.35923e-06
-3.14703e-05
-3.17601e-06
-2.89482e-05
-4.44855e-06
-2.78466e-05
-6.29636e-06
-2.80524e-05
-8.834e-06
-2.87847e-05
-1.17858e-05
-2.96041e-05
-1.21262e-05
-2.98425e-05
-9.27702e-06
-2.9103e-05
-6.0795e-06
-2.77768e-05
-3.72356e-06
-2.64719e-05
-2.58189e-06
-2.53159e-05
-2.13241e-06
-2.39775e-05
-1.57073e-06
-2.20863e-05
-8.61399e-07
-5.01959e-07
-2.00862e-05
-5.643e-06
9.87e-05
-8.92746e-06
6.92558e-05
-1.25518e-05
3.66288e-05
-1.91734e-05
1.10506e-05
-2.61305e-05
-2.58404e-06
-3.12041e-05
-7.14709e-06
-3.36687e-05
-7.38038e-06
-3.30473e-05
-5.78963e-06
-3.14631e-05
-4.94333e-06
-2.95436e-05
-5.0954e-06
-2.80296e-05
-5.96245e-06
-2.70109e-05
-7.31491e-06
-2.67241e-05
-9.12081e-06
-2.76584e-05
-1.08516e-05
-2.8786e-05
-1.09985e-05
-2.8847e-05
-9.21595e-06
-2.80668e-05
-6.85964e-06
-2.68461e-05
-4.9442e-06
-2.56439e-05
-3.78397e-06
-2.45344e-05
-3.24174e-06
-2.32786e-05
-2.8266e-06
-2.16698e-05
-2.47023e-06
-2.33771e-06
-1.98342e-05
1.68216e-06
9.70179e-05
-1.23246e-06
7.21705e-05
-5.86047e-06
4.12573e-05
-1.25077e-05
1.76976e-05
-1.89007e-05
3.80918e-06
-2.33948e-05
-2.65304e-06
-2.57909e-05
-4.98449e-06
-2.6233e-05
-5.34746e-06
-2.56829e-05
-5.49334e-06
-2.48352e-05
-5.94286e-06
-2.40726e-05
-6.72492e-06
-2.36134e-05
-7.77397e-06
-2.37188e-05
-9.01529e-06
-2.45034e-05
-1.00671e-05
-2.53821e-05
-1.01197e-05
-2.56127e-05
-8.98529e-06
-2.51274e-05
-7.34488e-06
-2.42182e-05
-5.85318e-06
-2.31866e-05
-4.81553e-06
-2.22136e-05
-4.21471e-06
-2.11679e-05
-3.87227e-06
-1.99231e-05
-3.71504e-06
-3.83386e-06
-1.84269e-05
7.84001e-06
8.91774e-05
5.61375e-06
7.43973e-05
1.39882e-06
4.54722e-05
-4.33968e-06
2.3436e-05
-9.89956e-06
9.36891e-06
-1.41427e-05
1.58979e-06
-1.68438e-05
-2.28346e-06
-1.81448e-05
-4.04633e-06
-1.85949e-05
-5.04306e-06
-1.86666e-05
-5.87107e-06
-1.86661e-05
-6.72535e-06
-1.87971e-05
-7.64299e-06
-1.92419e-05
-8.57058e-06
-2.00378e-05
-9.27121e-06
-2.08361e-05
-9.32137e-06
-2.12018e-05
-8.61939e-06
-2.10333e-05
-7.5133e-06
-2.04777e-05
-6.40874e-06
-1.97422e-05
-5.55101e-06
-1.89539e-05
-5.0031e-06
-1.81121e-05
-4.71408e-06
-1.71654e-05
-4.66171e-06
-4.91622e-06
-1.6083e-05
1.15469e-05
7.76301e-05
1.1921e-05
7.40234e-05
8.6291e-06
4.87637e-05
3.9069e-06
2.81583e-05
-9.14391e-07
1.41899e-05
-4.9577e-06
5.63287e-06
-7.93724e-06
6.96059e-07
-9.89676e-06
-2.08664e-06
-1.11399e-05
-3.79978e-06
-1.19731e-05
-5.03776e-06
-1.26297e-05
-6.06881e-06
-1.32783e-05
-6.9943e-06
-1.40427e-05
-7.80621e-06
-1.49386e-05
-8.37533e-06
-1.5768e-05
-8.49197e-06
-1.628e-05
-8.10739e-06
-1.63879e-05
-7.40533e-06
-1.61601e-05
-6.63657e-06
-1.57243e-05
-5.98682e-06
-1.51834e-05
-5.54408e-06
-1.45735e-05
-5.32398e-06
-1.38928e-05
-5.34238e-06
-5.65008e-06
-1.3159e-05
1.28111e-05
6.48193e-05
1.6255e-05
7.0579e-05
1.46036e-05
5.04152e-05
1.10452e-05
3.17166e-05
6.98109e-06
1.82537e-05
3.21981e-06
9.39408e-06
1.13826e-07
3.80212e-06
-2.26942e-06
2.96734e-07
-4.06582e-06
-2.00333e-06
-5.4623e-06
-3.64128e-06
-6.62331e-06
-4.90783e-06
-7.67729e-06
-5.94035e-06
-8.71127e-06
-6.77224e-06
-9.73543e-06
-7.35115e-06
-1.06435e-05
-7.58386e-06
-1.12955e-05
-7.45536e-06
-1.16294e-05
-7.07141e-06
-1.16757e-05
-6.5903e-06
-1.15131e-05
-6.14947e-06
-1.12203e-05
-5.83692e-06
-1.08468e-05
-5.69764e-06
-1.04221e-05
-5.7672e-06
-6.08741e-06
-9.98485e-06
1.19596e-05
5.286e-05
1.78822e-05
6.46559e-05
1.8307e-05
4.99906e-05
1.61695e-05
3.38538e-05
1.30309e-05
2.13921e-05
9.74764e-06
1.26773e-05
6.75362e-06
6.79619e-06
4.21417e-06
2.83623e-06
2.11715e-06
9.36629e-08
3.73741e-07
-1.89796e-06
-1.11789e-06
-3.41628e-06
-2.44652e-06
-4.61182e-06
-3.67264e-06
-5.54618e-06
-4.80654e-06
-6.21726e-06
-5.79444e-06
-6.59593e-06
-6.56073e-06
-6.68902e-06
-7.06652e-06
-6.56559e-06
-7.32654e-06
-6.33031e-06
-7.39116e-06
-6.08494e-06
-7.32016e-06
-5.90807e-06
-7.16425e-06
-5.85371e-06
-6.96649e-06
-5.96512e-06
-6.28002e-06
-6.77403e-06
9.81211e-06
4.30476e-05
1.70855e-05
5.73823e-05
1.94942e-05
4.75818e-05
1.89261e-05
3.44215e-05
1.68911e-05
2.34268e-05
1.43039e-05
1.52645e-05
1.16737e-05
9.42626e-06
9.2475e-06
5.2624e-06
7.10401e-06
2.23704e-06
5.23338e-06
-2.74609e-08
3.59049e-06
-1.77352e-06
2.12439e-06
-3.14584e-06
7.97677e-07
-4.21951e-06
-3.98009e-07
-5.02154e-06
-1.4363e-06
-5.55761e-06
-2.27784e-06
-5.84746e-06
-2.90082e-06
-5.94263e-06
-3.31446e-06
-5.91674e-06
-3.55292e-06
-5.84657e-06
-3.66207e-06
-5.79902e-06
-3.68835e-06
-5.82751e-06
-3.67706e-06
-5.97646e-06
-6.28066e-06
-3.67646e-06
7.35996e-06
3.56872e-05
1.48724e-05
4.98701e-05
1.87061e-05
4.37477e-05
1.95723e-05
3.35551e-05
1.86868e-05
2.43123e-05
1.69345e-05
1.70168e-05
1.48597e-05
1.15011e-05
1.27635e-05
7.35854e-06
1.07884e-05
4.2121e-06
8.98422e-06
1.77669e-06
7.35379e-06
-1.43084e-07
5.88082e-06
-1.67284e-06
4.54877e-06
-2.88741e-06
3.35425e-06
-3.82694e-06
2.31116e-06
-4.51447e-06
1.44034e-06
-4.97665e-06
7.53142e-07
-5.25547e-06
2.42526e-07
-5.40617e-06
-1.15949e-07
-5.48813e-06
-3.57712e-07
-5.55726e-06
-5.22757e-07
-5.66243e-06
-6.53224e-07
-5.84594e-06
-6.1405e-06
-7.93342e-07
5.3165e-06
3.03708e-05
1.22996e-05
4.2887e-05
1.68278e-05
3.92194e-05
1.87507e-05
3.16324e-05
1.8881e-05
2.41822e-05
1.79705e-05
1.79276e-05
1.65381e-05
1.29337e-05
1.49027e-05
8.9941e-06
1.32429e-05
5.87194e-06
1.16488e-05
3.3709e-06
1.01591e-05
1.34679e-06
8.78594e-06
-2.99544e-07
7.53173e-06
-1.63305e-06
6.40028e-06
-2.69537e-06
5.40173e-06
-3.51585e-06
4.54839e-06
-4.12328e-06
3.84647e-06
-4.55355e-06
3.29043e-06
-4.8501e-06
2.86242e-06
-5.06007e-06
2.53519e-06
-5.22999e-06
2.27584e-06
-5.40305e-06
2.04806e-06
-5.61816e-06
-5.90583e-06
1.81335e-06
3.91829e-06
2.64527e-05
1.00182e-05
3.67868e-05
1.46284e-05
3.46094e-05
1.716e-05
2.91011e-05
1.80544e-05
2.32879e-05
1.78749e-05
1.81072e-05
1.70661e-05
1.37427e-05
1.59303e-05
1.013e-05
1.46569e-05
7.14546e-06
1.33567e-05
4.67103e-06
1.20915e-05
2.61217e-06
1.08932e-05
8.98856e-07
9.77911e-06
-5.18872e-07
8.76082e-06
-1.677e-06
7.84913e-06
-2.6041e-06
7.05355e-06
-3.32769e-06
6.37861e-06
-3.87856e-06
5.82054e-06
-4.29196e-06
5.36658e-06
-4.60604e-06
4.99623e-06
-4.85959e-06
4.68342e-06
-5.09024e-06
4.3983e-06
-5.33309e-06
-5.61658e-06
4.10897e-06
3.07266e-06
2.33799e-05
8.24463e-06
3.16146e-05
1.25696e-05
3.02847e-05
1.53378e-05
2.63329e-05
1.67207e-05
2.19049e-05
1.70969e-05
1.77309e-05
1.6818e-05
1.40215e-05
1.61481e-05
1.07998e-05
1.5267e-05
8.02633e-06
1.42906e-05
5.64735e-06
1.32902e-05
3.61251e-06
1.23091e-05
1.87991e-06
1.13741e-05
4.16153e-07
1.05029e-05
-8.05792e-07
9.70861e-06
-1.80986e-06
9.0009e-06
-2.61997e-06
8.38456e-06
-3.26217e-06
7.858e-06
-3.76532e-06
7.41273e-06
-4.16068e-06
7.03394e-06
-4.48072e-06
6.70174e-06
-4.75798e-06
6.39255e-06
-5.02388e-06
-5.30477e-06
6.08076e-06
2.58263e-06
2.07968e-05
6.94225e-06
2.72552e-05
1.08382e-05
2.63888e-05
1.36023e-05
2.35687e-05
1.52385e-05
2.02685e-05
1.59838e-05
1.69856e-05
1.61068e-05
1.38984e-05
1.58269e-05
1.10796e-05
1.53022e-05
8.55099e-06
1.46398e-05
6.30961e-06
1.39108e-05
4.34153e-06
1.31614e-05
2.62925e-06
1.24227e-05
1.15486e-06
1.1716e-05
-9.91834e-08
1.10569e-05
-1.15072e-06
1.0456e-05
-2.019e-06
9.91928e-06
-2.72541e-06
9.44762e-06
-3.29356e-06
9.03619e-06
-3.74914e-06
8.67496e-06
-4.1194e-06
8.34946e-06
-4.43238e-06
8.04175e-06
-4.71607e-06
-4.99479e-06
7.73188e-06
2.27698e-06
1.85198e-05
5.98437e-06
2.35485e-05
9.44755e-06
2.29255e-05
1.20831e-05
2.09331e-05
1.38004e-05
1.85513e-05
1.47512e-05
1.6035e-05
1.51496e-05
1.35002e-05
1.51731e-05
1.10562e-05
1.49503e-05
8.77392e-06
1.45712e-05
6.68885e-06
1.40983e-05
4.81456e-06
1.35753e-05
3.15241e-06
1.30331e-05
1.69707e-06
1.24946e-05
4.39374e-07
1.19765e-05
-6.32566e-07
1.14908e-05
-1.53324e-06
1.1045e-05
-2.27958e-06
1.06423e-05
-2.89068e-06
1.02809e-05
-3.38764e-06
9.95482e-06
-3.79326e-06
9.65423e-06
-4.13169e-06
9.36602e-06
-4.42775e-06
-4.70377e-06
9.07514e-06
2.05327e-06
1.6467e-05
5.22435e-06
2.03779e-05
8.31344e-06
1.98364e-05
1.07709e-05
1.84758e-05
1.24554e-05
1.68671e-05
1.34917e-05
1.4999e-05
1.40679e-05
1.29242e-05
1.43224e-05
1.0802e-05
1.43494e-05
8.74724e-06
1.42166e-05
6.82183e-06
1.39743e-05
5.05704e-06
1.36601e-05
3.46665e-06
1.33031e-05
2.05417e-06
1.29255e-05
8.16909e-07
1.2545e-05
-2.51955e-07
1.21744e-05
-1.16255e-06
1.18227e-05
-1.92777e-06
1.14948e-05
-2.56275e-06
1.1192e-05
-3.08464e-06
1.09113e-05
-3.51252e-06
1.06468e-05
-3.86709e-06
1.03895e-05
-4.17028e-06
-4.44241e-06
1.01282e-05
1.7872e-06
1.46804e-05
4.57857e-06
1.75866e-05
7.29158e-06
1.71233e-05
9.53821e-06
1.62294e-05
1.11424e-05
1.52632e-05
1.22031e-05
1.39384e-05
1.29124e-05
1.2215e-05
1.33563e-05
1.03582e-05
1.35945e-05
8.50917e-06
1.36741e-05
6.74239e-06
1.36334e-05
5.09769e-06
1.35045e-05
3.59548e-06
1.33138e-05
2.24482e-06
1.3083e-05
1.04771e-06
1.28296e-05
1.43509e-09
1.25674e-05
-9.00294e-07
1.23065e-05
-1.66673e-06
1.20534e-05
-2.30954e-06
1.18114e-05
-2.84249e-06
1.15804e-05
-3.2814e-06
1.13574e-05
-3.64397e-06
1.11367e-05
-3.94944e-06
-4.21617e-06
1.09105e-05
1.4647e-06
1.32159e-05
3.92882e-06
1.51222e-05
6.24077e-06
1.48114e-05
8.20745e-06
1.42628e-05
9.72805e-06
1.37427e-05
1.0858e-05
1.28084e-05
1.17129e-05
1.13601e-05
1.23331e-05
9.738e-06
1.27561e-05
8.08608e-06
1.3017e-05
6.48146e-06
1.31477e-05
4.96689e-06
1.31768e-05
3.56626e-06
1.31292e-05
2.29233e-06
1.30261e-05
1.15081e-06
1.2885e-05
1.42564e-07
1.272e-05
-7.35288e-07
1.25422e-05
-1.48874e-06
1.23591e-05
-2.12635e-06
1.21757e-05
-2.65897e-06
1.1994e-05
-3.0996e-06
1.18133e-05
-3.46327e-06
1.16307e-05
-3.76676e-06
-4.02645e-06
1.14409e-05
1.14228e-06
1.20735e-05
3.24828e-06
1.30159e-05
5.20349e-06
1.28563e-05
6.84574e-06
1.26206e-05
8.28862e-06
1.22998e-05
9.5404e-06
1.15567e-05
1.05447e-05
1.03557e-05
1.13206e-05
8.96212e-06
1.18963e-05
7.51026e-06
1.23032e-05
6.07456e-06
1.25711e-05
4.69883e-06
1.27277e-05
3.40962e-06
1.2797e-05
2.22298e-06
1.27997e-05
1.14807e-06
1.27533e-05
1.89089e-07
1.26717e-05
-6.53662e-07
1.25663e-05
-1.38323e-06
1.24455e-05
-2.00547e-06
1.23152e-05
-2.52871e-06
1.21791e-05
-2.96353e-06
1.20385e-05
-3.32263e-06
1.18921e-05
-3.62053e-06
-3.87166e-06
1.17373e-05
1.16396e-06
1.09094e-05
2.74275e-06
1.14371e-05
4.28889e-06
1.13103e-05
5.71507e-06
1.11945e-05
7.11566e-06
1.08993e-05
8.42254e-06
1.02498e-05
9.51541e-06
9.2629e-06
1.03901e-05
8.08743e-06
1.10676e-05
6.83286e-06
1.15754e-05
5.56673e-06
1.19418e-05
4.33245e-06
1.21927e-05
3.15871e-06
1.23511e-05
2.06457e-06
1.24368e-05
1.06246e-06
1.24661e-05
1.59766e-07
1.24528e-05
-6.40277e-07
1.24076e-05
-1.33812e-06
1.23395e-05
-1.93733e-06
1.22549e-05
-2.44418e-06
1.21585e-05
-2.86728e-06
1.20531e-05
-3.21731e-06
1.19391e-05
-3.50674e-06
-3.74806e-06
1.18154e-05
1.29108e-06
9.6181e-06
2.46653e-06
1.02617e-05
3.70205e-06
1.00749e-05
5.00643e-06
9.89024e-06
6.33754e-06
9.56828e-06
7.59146e-06
8.996e-06
8.67931e-06
8.17517e-06
9.57788e-06
7.18899e-06
1.02968e-05
6.114e-06
1.08569e-05
5.00671e-06
1.12816e-05
3.90778e-06
1.15938e-05
2.84658e-06
1.1814e-05
1.84441e-06
1.19599e-05
9.16501e-07
1.20465e-05
7.31329e-08
1.2086e-05
-6.79827e-07
1.20885e-05
-1.34069e-06
1.20625e-05
-1.91135e-06
1.20147e-05
-2.39656e-06
1.19507e-05
-2.80342e-06
1.18743e-05
-3.14097e-06
1.17873e-05
-3.41983e-06
-3.65058e-06
1.16898e-05
1.18987e-06
8.42819e-06
2.32463e-06
9.12718e-06
3.46314e-06
8.93644e-06
4.65156e-06
8.70193e-06
5.85407e-06
8.36587e-06
6.99583e-06
7.85435e-06
8.01063e-06
7.16053e-06
8.87251e-06
6.32725e-06
9.58184e-06
5.40477e-06
1.01514e-05
4.43723e-06
1.05987e-05
3.46047e-06
1.09423e-05
2.503e-06
1.11994e-05
1.58731e-06
1.1385e-05
7.30865e-07
1.15115e-05
-5.34948e-08
1.15892e-05
-7.57628e-07
1.16267e-05
-1.37832e-06
1.16318e-05
-1.91652e-06
1.16114e-05
-2.37624e-06
1.15715e-05
-2.76359e-06
1.15168e-05
-3.08632e-06
1.14503e-05
-3.35336e-06
-3.57342e-06
1.13731e-05
1.14238e-06
7.28593e-06
2.26977e-06
8.00001e-06
3.35947e-06
7.84687e-06
4.4471e-06
7.61441e-06
5.51976e-06
7.2933e-06
6.5336e-06
6.84063e-06
7.44658e-06
6.24768e-06
8.23766e-06
5.53628e-06
8.90334e-06
4.73915e-06
9.45083e-06
3.88976e-06
9.89266e-06
3.01864e-06
1.02431e-05
2.15251e-06
1.05161e-05
1.31436e-06
1.07233e-05
5.23562e-07
1.08744e-05
-2.04633e-07
1.09767e-05
-8.6004e-07
1.1037e-05
-1.43867e-06
1.10621e-05
-1.94166e-06
1.10589e-05
-2.37313e-06
1.10341e-05
-2.73883e-06
1.09932e-05
-3.04547e-06
1.09402e-05
-3.3004e-06
-3.5104e-06
1.08771e-05
1.12801e-06
6.15811e-06
2.24154e-06
6.88666e-06
3.28235e-06
6.80619e-06
4.27939e-06
6.61747e-06
5.23389e-06
6.33889e-06
6.12561e-06
5.949e-06
6.93137e-06
5.44201e-06
7.63737e-06
4.83032e-06
8.24045e-06
4.13609e-06
8.74528e-06
3.38492e-06
9.16123e-06
2.60269e-06
9.49953e-06
1.8142e-06
9.77109e-06
1.0428e-06
9.98484e-06
3.09815e-07
1.01469e-05
-3.66742e-07
1.02613e-05
-9.74485e-07
1.03323e-05
-1.50969e-06
1.03659e-05
-1.97527e-06
1.03693e-05
-2.37664e-06
1.03502e-05
-2.7197e-06
1.03149e-05
-3.01024e-06
1.02683e-05
-3.25392e-06
-3.45543e-06
1.02132e-05
1.1107e-06
5.04757e-06
2.19584e-06
5.80161e-06
3.1825e-06
5.81963e-06
4.09609e-06
5.70393e-06
4.94648e-06
5.48855e-06
5.72828e-06
5.16724e-06
6.43138e-06
4.73892e-06
7.04903e-06
4.21264e-06
7.58037e-06
3.60472e-06
8.02978e-06
2.93549e-06
8.40529e-06
2.22718e-06
8.71648e-06
1.50303e-06
8.97242e-06
7.86893e-07
9.1796e-06
1.02671e-07
9.34072e-06
-5.27835e-07
9.45528e-06
-1.08904e-06
9.52464e-06
-1.57907e-06
9.55454e-06
-2.00522e-06
9.55341e-06
-2.37558e-06
9.53009e-06
-2.69648e-06
9.49225e-06
-2.9725e-06
9.44545e-06
-3.20724e-06
-3.40296e-06
9.39287e-06
1.0818e-06
3.96585e-06
2.12558e-06
4.75782e-06
3.05324e-06
4.89196e-06
3.88827e-06
4.86889e-06
4.64567e-06
4.73115e-06
5.3289e-06
4.48398e-06
5.93635e-06
4.13142e-06
6.46689e-06
3.68205e-06
6.92235e-06
3.14922e-06
7.308e-06
2.54982e-06
7.6318e-06
1.90337e-06
7.90308e-06
1.23176e-06
8.13039e-06
5.59615e-07
8.31881e-06
-8.57275e-08
8.46764e-06
-6.76664e-07
8.57024e-06
-1.19165e-06
8.62456e-06
-1.63344e-06
8.6375e-06
-2.01824e-06
8.62003e-06
-2.3582e-06
8.58307e-06
-2.65962e-06
8.53537e-06
-2.92491e-06
8.48283e-06
-3.1548e-06
-3.34869e-06
8.42849e-06
1.05631e-06
2.90951e-06
2.05369e-06
3.76034e-06
2.91722e-06
4.02835e-06
3.6743e-06
4.11175e-06
4.34473e-06
4.06065e-06
4.93713e-06
3.89151e-06
5.45483e-06
3.61365e-06
5.90036e-06
3.23648e-06
6.27765e-06
2.7719e-06
6.59294e-06
2.23453e-06
6.85478e-06
1.64153e-06
7.07324e-06
1.01329e-06
7.25797e-06
3.74868e-07
7.41441e-06
-2.42203e-07
7.53914e-06
-8.01448e-07
7.61632e-06
-1.2689e-06
7.64004e-06
-1.65725e-06
7.62134e-06
-1.99964e-06
7.57585e-06
-2.3128e-06
7.51702e-06
-2.60088e-06
7.45416e-06
-2.86211e-06
7.39255e-06
-3.09323e-06