/*--------------------------------*- C++ -*----------------------------------*\
| =========                 |                                                 |
| \\      /  F ield         | OpenFOAM: The Open Source CFD Toolbox           |
|  \\    /   O peration     | Version:  2.3.0                                 |
|   \\  /    A nd           | Web:      www.OpenFOAM.org                      |
|    \\/     M anipulation  |                                                 |
\*---------------------------------------------------------------------------*/
FoamFile
{
    version     2.0;
    format      ascii;
    class       volScalarField;
    location    "6";
    object      p;
}
// * * * * * * * * * * * * * * * * * * * * * * * * * * * * * * * * * * * * * //

dimensions      [0 2 -2 0 0 0 0];

internalField   nonuniform List<scalar> 
1720
(
0.000746189
0.000733976
0.000435272
0.000254761
0.000253416
0.000329614
0.000387357
0.000397824
0.000376081
0.000343514
0.00031057
0.000275493
0.000233773
0.000181773
0.000120919
5.28749e-05
-1.6297e-05
-8.45278e-05
-0.000150464
-0.000206965
-0.000250948
-0.000280791
-0.000298114
-0.000305899
-0.000308113
-0.000309035
-0.000306185
-0.000305728
-0.000301384
-0.000297625
-0.000306955
-0.000306097
-0.000380502
-0.000557943
-0.000881828
-0.00115644
-0.00235821
-0.00371138
-0.00496004
-0.00622082
-0.00756162
-0.00895813
-0.0103691
-0.0117521
-0.0130684
-0.0142701
-0.0153061
-0.016122
-0.0166797
-0.0169273
-0.0168655
-0.016476
-0.0157751
-0.0147576
-0.013474
-0.0119028
-0.0100622
-0.00792737
-0.0053625
-0.00235759
0.00233075
0.00202781
0.00116109
0.000761509
0.00081565
0.00101487
0.00114656
0.00116347
0.0011057
0.00102038
0.000929008
0.000826662
0.000702118
0.000547367
0.000363923
0.000159337
-5.3822e-05
-0.00026475
-0.000461202
-0.000629043
-0.00075849
-0.000846069
-0.000896236
-0.000920326
-0.000928902
-0.000931333
-0.000928752
-0.000921604
-0.000912655
-0.000903005
-0.000907295
-0.000930897
-0.00100918
-0.00115976
-0.00128386
-0.00129269
-0.00130763
-0.00134068
-0.00149284
-0.00160843
-0.0016971
-0.00178208
-0.00185238
-0.00188807
-0.0018805
-0.0018216
-0.00170704
-0.00153349
-0.00130775
-0.00102803
-0.00071022
-0.000359562
-8.36465e-06
0.000330663
0.000633364
0.000880427
0.00104452
0.00108743
0.000963067
0.000514489
0.00404956
0.0031676
0.00178242
0.00129056
0.00143823
0.00173209
0.00190508
0.00191713
0.00183034
0.00170419
0.00156356
0.00139772
0.00119121
0.000931414
0.000620391
0.000268884
-0.000104155
-0.000473884
-0.00081403
-0.00110052
-0.00131565
-0.00145518
-0.00153229
-0.00156896
-0.00158298
-0.00158669
-0.00158249
-0.00156902
-0.00155055
-0.00152877
-0.00152099
-0.00153922
-0.0015855
-0.00168335
-0.00179955
-0.00195132
-0.00235398
-0.00293929
-0.00341624
-0.00384018
-0.00430708
-0.00477687
-0.00519943
-0.00555287
-0.00582124
-0.00599126
-0.00605045
-0.00600056
-0.00581567
-0.00553806
-0.0052306
-0.0048984
-0.00450332
-0.00409782
-0.00366763
-0.00319644
-0.00267536
-0.00213411
-0.00151511
-0.000739974
0.0054777
0.00425571
0.00241974
0.00184711
0.00209555
0.00246777
0.00266506
0.00266837
0.00256101
0.0024067
0.00222787
0.00200425
0.00171723
0.00134799
0.000901131
0.000386473
-0.000170645
-0.000730842
-0.00124529
-0.00166687
-0.00196486
-0.00214006
-0.00222556
-0.00226347
-0.00227807
-0.00227783
-0.0022646
-0.00223843
-0.00220402
-0.00216459
-0.0021329
-0.00212003
-0.00213644
-0.00220004
-0.00231286
-0.00249009
-0.0027311
-0.00300771
-0.00336268
-0.00383891
-0.00435811
-0.00484811
-0.00531486
-0.00573797
-0.0060861
-0.00633615
-0.00647493
-0.00648416
-0.00637333
-0.00613043
-0.00575187
-0.00524713
-0.00465664
-0.00400303
-0.00329647
-0.00262395
-0.00195908
-0.00131498
-0.00070256
-0.000189022
0.006923
0.00528076
0.00303245
0.00239912
0.00275827
0.00320688
0.00342711
0.00342715
0.00331146
0.00314405
0.00294019
0.00266677
0.00230118
0.00181522
0.00121942
0.000518419
-0.000254716
-0.00105331
-0.00179473
-0.00238295
-0.0027582
-0.00294285
-0.00300561
-0.00301921
-0.00302605
-0.00302186
-0.00299676
-0.00294637
-0.00287692
-0.00279781
-0.00272058
-0.00266266
-0.00263582
-0.0026563
-0.0027394
-0.00288281
-0.00310192
-0.00345117
-0.00390698
-0.00442837
-0.00494519
-0.00548629
-0.00602007
-0.00649395
-0.00687539
-0.00713958
-0.00725549
-0.00720303
-0.00699717
-0.00662527
-0.00606009
-0.00536249
-0.0046013
-0.00380671
-0.00302354
-0.00231979
-0.00166938
-0.00110789
-0.000620249
-0.000245501
0.00833489
0.00621666
0.00360542
0.00294119
0.00341946
0.00394599
0.00419448
0.0042037
0.00409644
0.00393477
0.00372134
0.00341003
0.00296867
0.00235688
0.00158847
0.000660178
-0.0003699
-0.0014634
-0.00249902
-0.00329615
-0.00372715
-0.00388077
-0.00389955
-0.00387692
-0.00385259
-0.00381891
-0.00375983
-0.00366616
-0.003543
-0.00340347
-0.00326194
-0.00313867
-0.00304894
-0.00301036
-0.00304685
-0.00316763
-0.00339055
-0.00375239
-0.00423065
-0.00478541
-0.00540877
-0.00607859
-0.00675947
-0.00736662
-0.00785328
-0.0081707
-0.00828733
-0.00818964
-0.00788804
-0.00738991
-0.00668431
-0.00583462
-0.00493174
-0.00403722
-0.00319641
-0.00243061
-0.00174524
-0.00117127
-0.000682314
-0.000281126
0.00968007
0.00706865
0.00414453
0.00348765
0.00408367
0.00468156
0.00496308
0.00499936
0.0049246
0.00479468
0.00459326
0.00426342
0.00375276
0.00301168
0.00203061
0.000795724
-0.000583304
-0.00203019
-0.00341042
-0.00437553
-0.00483156
-0.00493545
-0.00486131
-0.00476835
-0.00469812
-0.00462488
-0.0045176
-0.00436485
-0.00417262
-0.00395409
-0.00372623
-0.00351409
-0.00333945
-0.00322484
-0.00320762
-0.00329113
-0.00347797
-0.00383686
-0.00435339
-0.00499354
-0.00574222
-0.00656921
-0.00739124
-0.00816024
-0.00880822
-0.00926202
-0.0094564
-0.00937148
-0.00901991
-0.00841544
-0.00759092
-0.00660108
-0.00553608
-0.00447792
-0.00347755
-0.0025726
-0.00178377
-0.00112875
-0.000594073
-0.000195901
0.0109322
0.00781965
0.00463157
0.00405441
0.00476547
0.00541085
0.00572505
0.00581018
0.0058004
0.00573725
0.00558288
0.00526418
0.00470056
0.00383671
0.00259588
0.00092942
-0.00106197
-0.00305936
-0.00469609
-0.00564611
-0.00595638
-0.00588454
-0.00569159
-0.00555016
-0.00544805
-0.0053288
-0.00516507
-0.00494996
-0.00468828
-0.0043912
-0.00407675
-0.00377259
-0.00350448
-0.00330765
-0.00322655
-0.00325511
-0.00342256
-0.00378236
-0.00432574
-0.00503348
-0.00588354
-0.00683501
-0.00781808
-0.00875468
-0.00956126
-0.0101752
-0.0105375
-0.0105817
-0.0102635
-0.00960162
-0.00866262
-0.00751386
-0.00623911
-0.00494549
-0.00372284
-0.00263801
-0.0017195
-0.0009923
-0.000453177
-0.000127241
0.0120849
0.00853099
0.00492053
0.00463763
0.00548142
0.00613396
0.00647805
0.00663366
0.0067237
0.00676938
0.00671683
0.00645856
0.00588582
0.00490375
0.00336447
0.00110221
-0.00189479
-0.00540843
-0.00727405
-0.00766494
-0.00726611
-0.00666929
-0.00623683
-0.0061054
-0.00594376
-0.00575598
-0.00554588
-0.00529815
-0.00500693
-0.00467528
-0.00432086
-0.00397277
-0.00366094
-0.0034166
-0.0032831
-0.00327722
-0.00341763
-0.00375091
-0.00429408
-0.00503988
-0.00596375
-0.00701826
-0.00812932
-0.00920864
-0.0101668
-0.0109303
-0.0114223
-0.0115805
-0.0113542
-0.0107357
-0.00974551
-0.00844916
-0.00695532
-0.00541196
-0.00395628
-0.00269893
-0.00165105
-0.000860756
-0.000331555
-7.1824e-05
0.0131222
0.00914909
0.00523755
0.00514341
0.00611552
0.00681953
0.0072139
0.00745892
0.00767756
0.00787873
0.00799757
0.00788849
0.00741632
0.00633851
0.00449479
0.00116917
-0.00277512
-0.0102638
-0.0128716
-0.0120785
-0.00972447
-0.00774933
-0.00663703
-0.00659167
-0.00630837
-0.00604358
-0.00579734
-0.00553344
-0.00523305
-0.00490205
-0.00455534
-0.0042168
-0.00390647
-0.00364962
-0.00348335
-0.00343666
-0.00354242
-0.00384425
-0.00437136
-0.00512955
-0.00609963
-0.00722912
-0.0084371
-0.00962386
-0.010688
-0.0115465
-0.0121239
-0.0123863
-0.0122479
-0.0116794
-0.010671
-0.00928024
-0.00761951
-0.00587415
-0.00422584
-0.00280571
-0.00160936
-0.000735244
-0.000205643
1.1975e-05
0.0140293
0.00967293
0.00556019
0.00556622
0.00665607
0.00744012
0.0079053
0.0082562
0.00862397
0.00902643
0.00938369
0.009555
0.00936356
0.00843115
0.00651722
0.000422134
-0.00410738
-0.00991759
-0.00679042
-0.0064861
-0.00624028
-0.00607286
-0.00588768
-0.0056916
-0.00545802
-0.00518575
-0.00488807
-0.00458312
-0.00429005
-0.00403345
-0.00384646
-0.0037645
-0.00382835
-0.00408513
-0.00457262
-0.00531086
-0.00629318
-0.0074609
-0.00872868
-0.00998729
-0.0111229
-0.0120392
-0.0126368
-0.0129889
-0.0129014
-0.0123632
-0.0113572
-0.00992678
-0.00817532
-0.00629151
-0.00448687
-0.00290915
-0.00156842
-0.000592028
-5.10701e-05
0.000124909
0.0147845
0.0100988
0.00583758
0.00591419
0.0071069
0.00797398
0.00851821
0.00898146
0.00950888
0.0101404
0.0107863
0.01137
0.0116348
0.0113408
0.00960994
0.00467676
-0.00620276
-0.00611695
-0.00601181
-0.00588755
-0.00572653
-0.00552713
-0.00529679
-0.00504778
-0.00479572
-0.00456214
-0.00437636
-0.00427447
-0.0042958
-0.00449485
-0.0049115
-0.00557949
-0.00652631
-0.00766697
-0.00893281
-0.0102119
-0.0113846
-0.0123541
-0.0130733
-0.0133433
-0.0132567
-0.0127345
-0.0117425
-0.01031
-0.00852461
-0.00656447
-0.00467365
-0.00296232
-0.00150038
-0.000440766
0.000132973
0.000247795
0.0153669
0.0104207
0.00605374
0.00618569
0.00746138
0.00839783
0.00901645
0.00958197
0.0102656
0.011116
0.0120755
0.0130928
0.0139613
0.014568
0.013368
0.0103731
-0.00615148
-0.00620405
-0.00616632
-0.00611814
-0.00603643
-0.00592174
-0.00577609
-0.0056075
-0.0054254
-0.0052457
-0.00509112
-0.00499223
-0.004985
-0.00511583
-0.00542093
-0.0059347
-0.00681181
-0.00781352
-0.00898154
-0.0101999
-0.0113409
-0.012291
-0.0129668
-0.0132761
-0.0132077
-0.012706
-0.0117429
-0.0103416
-0.00857961
-0.00662736
-0.00472356
-0.00294762
-0.0014241
-0.000301333
0.000327732
0.000374068
0.0157605
0.0106355
0.00620082
0.00637229
0.00770488
0.00869071
0.00936585
0.0100102
0.0108182
0.0118452
0.0130762
0.0144645
0.0159239
0.0172414
0.0176072
-0.00633697
-0.0063807
-0.00639918
-0.00639528
-0.00637138
-0.00632892
-0.00626728
-0.00618845
-0.00609771
-0.00600482
-0.00592898
-0.00589443
-0.00593809
-0.0061177
-0.00648329
-0.00707843
-0.00787705
-0.00883046
-0.00989415
-0.0109166
-0.0117869
-0.0124152
-0.0127276
-0.0126605
-0.0121875
-0.0112807
-0.00995767
-0.00828929
-0.00643618
-0.00460454
-0.00287878
-0.00134817
-0.00020687
0.000468685
0.00051437
0.0159549
0.0107406
0.00627347
0.00646532
0.00782559
0.00883698
0.00954131
0.0102289
0.0111028
0.0122302
0.0136111
0.0152335
0.0170603
0.0189546
0.0203665
-0.00662153
-0.00667755
-0.00674117
-0.00681026
-0.00688309
-0.00695453
-0.00701615
-0.00706117
-0.00708359
-0.00707601
-0.0070363
-0.00698529
-0.00695073
-0.00697275
-0.00709934
-0.00737316
-0.00782899
-0.00847672
-0.00927552
-0.0100795
-0.0108015
-0.0113404
-0.0116083
-0.0115528
-0.0111218
-0.0103027
-0.00911196
-0.00761627
-0.00595724
-0.00429758
-0.00273099
-0.00127513
-0.000170356
0.000506253
0.000611011
0.0159448
0.0107348
0.006269
0.00645954
0.00781813
0.00882793
0.00953053
0.0102159
0.0110869
0.0122105
0.0135867
0.0152026
0.0170208
0.0189
0.020291
-0.00699787
-0.00703532
-0.00712875
-0.00726639
-0.0074356
-0.00762476
-0.00781842
-0.00799546
-0.00814153
-0.00823413
-0.00825285
-0.00819262
-0.00806577
-0.00790323
-0.00774529
-0.00766317
-0.00773095
-0.00797205
-0.00833865
-0.00882499
-0.00934948
-0.00974719
-0.00994793
-0.00990189
-0.00952519
-0.00882841
-0.00782622
-0.00657899
-0.00520038
-0.00380672
-0.00248009
-0.00121194
-0.000202236
0.000436229
0.000535703
0.0157305
0.0106181
0.00618756
0.00635518
0.00768285
0.00866393
0.009334
0.00997171
0.0107713
0.0117871
0.0130044
0.0143735
0.0158071
0.0170821
0.0173632
-0.00738969
-0.00739328
-0.0075192
-0.0077268
-0.00799341
-0.00830293
-0.00863369
-0.00895655
-0.00922866
-0.00942946
-0.00951125
-0.0094376
-0.00919977
-0.0088187
-0.00836044
-0.00789876
-0.0074973
-0.00726297
-0.00718851
-0.00727537
-0.00747525
-0.00768598
-0.00781605
-0.00775083
-0.00749126
-0.00696315
-0.00620314
-0.0052597
-0.00421544
-0.00314311
-0.00209874
-0.00112407
-0.000324728
0.00022556
0.0003051
0.0153183
0.0103923
0.00603219
0.00615806
0.00742567
0.00835445
0.00896484
0.00951977
0.0101896
0.0110222
0.0119586
0.0129454
0.0137691
0.0143138
0.0129786
0.00982101
-0.00767881
-0.00756476
-0.00765928
-0.00785021
-0.0081373
-0.00850482
-0.00893454
-0.00939936
-0.00985956
-0.0102628
-0.0105618
-0.0106876
-0.0105859
-0.0102275
-0.00960686
-0.0088113
-0.00792604
-0.00705729
-0.00630723
-0.0057718
-0.00546174
-0.00532163
-0.00531024
-0.00532054
-0.00527732
-0.00512642
-0.00478986
-0.00429909
-0.00367605
-0.00298464
-0.00226217
-0.00157797
-0.000980662
-0.00050585
-0.000116363
2.42711e-05
0.0147194
0.0100602
0.00580855
0.00587731
0.00705898
0.00791582
0.00844899
0.0088983
0.00940717
0.0100152
0.01063
0.0111737
0.0113805
0.011006
0.00914586
0.00397505
-0.00786744
-0.00774007
-0.00783615
-0.00808527
-0.00845276
-0.00891686
-0.0094545
-0.010032
-0.0106001
-0.0110997
-0.0114497
-0.0115721
-0.0114008
-0.0109094
-0.0100141
-0.00892282
-0.00767034
-0.00638223
-0.00517801
-0.00417839
-0.00344564
-0.00297982
-0.00275014
-0.00264705
-0.00258301
-0.00251235
-0.00237043
-0.00214859
-0.00186135
-0.0015498
-0.00125579
-0.00099126
-0.000787554
-0.000659997
-0.000464909
-0.000222718
0.0139506
0.00962524
0.00552481
0.00552171
0.006598
0.0073696
0.00782146
0.00815569
0.00850145
0.00887586
0.0091968
0.00932032
0.00906392
0.00803871
0.00599774
-0.000398991
-0.00516934
-0.0112778
-0.00840635
-0.0081104
-0.00780857
-0.00777062
-0.00790583
-0.0082103
-0.00864867
-0.00919263
-0.00981054
-0.0104605
-0.0110823
-0.0116074
-0.0119409
-0.0119947
-0.0116962
-0.0110085
-0.00993267
-0.00857231
-0.00702811
-0.00542844
-0.00389927
-0.00255695
-0.00148447
-0.000716819
-0.00023569
6.62807e-07
8.10028e-05
6.85511e-05
5.9255e-05
4.35083e-05
1.89506e-05
-3.0514e-05
-0.000135248
-0.000288753
-0.000490983
-0.00068701
-0.000738179
-0.000441294
0.0130331
0.00909393
0.00519713
0.00509317
0.00604983
0.00673966
0.00711905
0.00734559
0.00753995
0.00771035
0.0077897
0.00763021
0.00709022
0.00592379
0.0039543
0.00044237
-0.00376814
-0.0116489
-0.0146259
-0.0140915
-0.0116921
-0.00947164
-0.00815559
-0.00814875
-0.00790224
-0.00778013
-0.00793232
-0.00827548
-0.00875173
-0.0093362
-0.00998205
-0.0106404
-0.011242
-0.0117179
-0.0119644
-0.0118948
-0.0114431
-0.0105829
-0.00933875
-0.00779647
-0.00606911
-0.00428423
-0.00256538
-0.00101932
0.000272904
0.00126316
0.00193848
0.0023223
0.00247884
0.00249053
0.00231441
0.00208782
0.00180255
0.00145108
0.00102449
0.000499513
-9.03862e-05
-0.00060287
-0.000875309
-0.000580293
0.0119891
0.0084705
0.00487644
0.00458372
0.00541095
0.00604824
0.00637632
0.00651266
0.00657731
0.00659153
0.00649843
0.00619108
0.00555316
0.00449274
0.00284609
0.00044456
-0.0027454
-0.00648817
-0.00859829
-0.00914658
-0.00880541
-0.0081997
-0.00776558
-0.00768661
-0.00760245
-0.00760152
-0.00782008
-0.00822503
-0.00873827
-0.00931816
-0.00993255
-0.0105248
-0.0110289
-0.0113723
-0.0114765
-0.0112547
-0.0106527
-0.00966585
-0.00833508
-0.00673926
-0.00498176
-0.00317268
-0.00141391
0.000204282
0.00160526
0.00273286
0.00355763
0.00407975
0.00432623
0.00434714
0.00414288
0.00378813
0.00331089
0.00271462
0.00198548
0.00114829
0.000286095
-0.000409302
-0.000790735
-0.000569095
0.0108333
0.0077569
0.004585
0.00399892
0.0046933
0.005323
0.00562085
0.0056868
0.0056519
0.005558
0.00536474
0.00500004
0.00437844
0.00344509
0.00211819
0.000339193
-0.00177641
-0.00392693
-0.00572946
-0.00684274
-0.00727633
-0.00728216
-0.00714697
-0.00708693
-0.00713009
-0.00726859
-0.00753041
-0.00791238
-0.00838055
-0.00889583
-0.00942634
-0.00991607
-0.0102884
-0.0104898
-0.0104486
-0.0101002
-0.00941307
-0.00840031
-0.00710584
-0.00559046
-0.00393851
-0.00224227
-0.000584343
0.000967984
0.00235896
0.00353676
0.00445343
0.00508033
0.00540733
0.00545729
0.0052715
0.00487181
0.00428257
0.00352773
0.00260844
0.00160387
0.000614664
-0.000171897
-0.000600181
-0.000475561
0.00958267
0.00700533
0.00409779
0.0034332
0.00401293
0.00459519
0.0048608
0.00487874
0.00478044
0.00462164
0.00438497
0.00401332
0.0034531
0.00265193
0.00160092
0.0002788
-0.00119483
-0.00275379
-0.00425603
-0.00536633
-0.00595095
-0.00615772
-0.00617333
-0.006196
-0.00630606
-0.00650127
-0.0067736
-0.00712009
-0.00752466
-0.00795907
-0.00838715
-0.00876479
-0.0090405
-0.00914509
-0.00902294
-0.00863729
-0.00797718
-0.00705354
-0.00589246
-0.004547
-0.00308824
-0.00158651
-0.000104032
0.00130422
0.00258883
0.00370715
0.00462294
0.00531052
0.00569614
0.00580747
0.00564642
0.00524344
0.00461466
0.00380389
0.00282915
0.00179042
0.00080997
2.72502e-05
-0.000405359
-0.000353239
0.00824317
0.00615517
0.00356079
0.00289031
0.00335314
0.00386466
0.00409839
0.00409081
0.00396257
0.00377493
0.00353076
0.00318291
0.00269985
0.0020379
0.00121278
0.00021703
-0.000888912
-0.00206854
-0.00320164
-0.00411086
-0.00465871
-0.00491141
-0.00502898
-0.00513559
-0.00529054
-0.00550196
-0.00575998
-0.00606047
-0.00639575
-0.00674724
-0.00708775
-0.00738479
-0.00760214
-0.00767055
-0.00754359
-0.00719904
-0.00662939
-0.00583682
-0.00484391
-0.00370053
-0.00246182
-0.00118202
8.81791e-05
0.00130478
0.00243082
0.00343415
0.00428514
0.00487358
0.00529204
0.00545238
0.00534113
0.00498474
0.00439264
0.00361302
0.00269292
0.00172904
0.000846182
0.000131944
-0.000267106
-0.000249887
0.0068414
0.00522372
0.00299188
0.002354
0.0026992
0.00313406
0.00334122
0.00332668
0.00319314
0.00300356
0.00277384
0.00246997
0.00207017
0.00154413
0.000903211
0.000150112
-0.000682229
-0.00154763
-0.00236459
-0.0030373
-0.0035012
-0.00377877
-0.00394354
-0.00407816
-0.00423635
-0.00443417
-0.00466596
-0.00492349
-0.00520177
-0.00549282
-0.00578032
-0.00603914
-0.006232
-0.00630705
-0.00622363
-0.00595447
-0.00548738
-0.00482994
-0.00400782
-0.00305913
-0.00202496
-0.000949611
0.00012428
0.00115196
0.00208862
0.00290888
0.00357541
0.00415234
0.00452057
0.00466779
0.00458149
0.00427884
0.00377268
0.00308581
0.002308
0.00148809
0.000737721
0.000141635
-0.000191743
-0.000177081
0.00540968
0.00420599
0.00238525
0.00180972
0.00204639
0.00240668
0.00259302
0.00258447
0.0024628
0.00229074
0.00209126
0.00184371
0.00153001
0.00113032
0.000649236
9.56965e-05
-0.000505454
-0.00111507
-0.0016849
-0.0021677
-0.00253372
-0.00278402
-0.00295199
-0.00308693
-0.00322665
-0.00338826
-0.0035749
-0.0037835
-0.00401117
-0.00425349
-0.00450691
-0.00476048
-0.00497081
-0.00509521
-0.00509156
-0.00492499
-0.00458439
-0.00408071
-0.00343641
-0.00268057
-0.00183834
-0.000949423
-4.49595e-05
0.000843506
0.001679
0.00241997
0.00289566
0.00331135
0.0035866
0.0036977
0.00362373
0.00337192
0.00296163
0.00240594
0.00179463
0.00115823
0.000568642
0.000116291
-0.000135299
-0.000114806
0.00399751
0.0031283
0.00175593
0.00126277
0.00140138
0.00168562
0.00185008
0.00185336
0.00175611
0.00161701
0.00146126
0.0012782
0.00105263
0.00077154
0.000436809
5.86644e-05
-0.000344561
-0.000748096
-0.00112558
-0.00145354
-0.00171588
-0.00190888
-0.00204643
-0.00215449
-0.00225775
-0.00237282
-0.00250783
-0.00266922
-0.00285734
-0.00306537
-0.00328662
-0.00354783
-0.0037903
-0.00397388
-0.00405878
-0.00400904
-0.00382527
-0.00351491
-0.00308677
-0.00255785
-0.00195817
-0.00129766
-0.000611896
6.49698e-05
0.000733699
0.00132318
0.00196209
0.00233191
0.00254627
0.00263686
0.00258517
0.00239741
0.00209636
0.00169788
0.00125915
0.000820309
0.000405977
0.000102507
-6.51528e-05
-5.68646e-05
0.00229804
0.00200173
0.00114425
0.000744644
0.000792813
0.000985373
0.00111145
0.00112294
0.00105881
0.000965535
0.000864877
0.000752058
0.000616054
0.000448783
0.000251507
3.2248e-05
-0.000198013
-0.000429575
-0.000647046
-0.00083803
-0.000994371
-0.00111325
-0.00119993
-0.00126667
-0.00132749
-0.00139412
-0.00147459
-0.0015819
-0.00173341
-0.00194507
-0.00217354
-0.00237763
-0.0025309
-0.00257017
-0.0024563
-0.00221769
-0.00189582
-0.00150773
-0.00107918
-0.000635792
-0.000200628
0.000199141
0.000557944
0.000857595
0.00105588
0.00119494
0.00125829
0.00138872
0.00153178
0.00159682
0.00156103
0.00143798
0.00125128
0.00100992
0.000752593
0.00049623
0.000248883
7.64853e-05
-1.52271e-05
-4.49458e-06
0.000734983
0.000724095
0.000429158
0.000249108
0.000245538
0.000319067
0.000374671
0.000383272
0.000359331
0.000324037
0.000287765
0.000249171
0.000203363
0.000147444
8.15064e-05
9.46966e-06
-6.34967e-05
-0.000140412
-0.000212806
-0.000276078
-0.000328179
-0.000368184
-0.000397255
-0.000419053
-0.000437747
-0.00045884
-0.000481958
-0.000517673
-0.000589236
-0.00078136
-0.00143315
-0.00256116
-0.00372163
-0.00476082
-0.00561691
-0.00622858
-0.00656668
-0.00661875
-0.00637387
-0.00583939
-0.00504625
-0.00404526
-0.00291854
-0.00174742
-0.000610078
0.000118885
0.000437478
0.000409281
0.000459542
0.000503564
0.000501605
0.000463324
0.000403625
0.000321278
0.000239479
0.000157854
7.28353e-05
1.63706e-05
-1.71552e-05
-9.44129e-06
)
;

boundaryField
{
    upstream
    {
        type            fixedValue;
        value           uniform 0;
    }
    downstream
    {
        type            fixedValue;
        value           uniform 0;
    }
    upANDdown
    {
        type            fixedValue;
        value           uniform 0;
    }
    frontAndBack
    {
        type            empty;
    }
    cylinder
    {
        type            zeroGradient;
    }
}


// ************************************************************************* //
