/*--------------------------------*- C++ -*----------------------------------*\
| =========                 |                                                 |
| \\      /  F ield         | OpenFOAM: The Open Source CFD Toolbox           |
|  \\    /   O peration     | Version:  2.3.0                                 |
|   \\  /    A nd           | Web:      www.OpenFOAM.org                      |
|    \\/     M anipulation  |                                                 |
\*---------------------------------------------------------------------------*/
FoamFile
{
    version     2.0;
    format      ascii;
    class       surfaceScalarField;
    location    "6";
    object      phi;
}
// * * * * * * * * * * * * * * * * * * * * * * * * * * * * * * * * * * * * * //

dimensions      [0 3 -1 0 0 0 0];

internalField   nonuniform List<scalar> 
3330
(
1.99198e-07
-4.05344e-09
1.99043e-07
-1.19965e-08
1.98302e-07
-1.63537e-08
1.97626e-07
-1.88963e-08
1.9728e-07
-2.14917e-08
1.97058e-07
-2.46776e-08
1.9681e-07
-2.84353e-08
1.96502e-07
-3.23561e-08
1.9619e-07
-3.61898e-08
1.95895e-07
-3.97484e-08
1.95655e-07
-4.30532e-08
1.9548e-07
-4.60758e-08
1.954e-07
-4.87703e-08
1.95431e-07
-5.10607e-08
1.95605e-07
-5.28085e-08
1.95924e-07
-5.39863e-08
1.96436e-07
-5.44629e-08
1.97044e-07
-5.42103e-08
1.9776e-07
-5.33422e-08
1.98562e-07
-5.17902e-08
1.9938e-07
-4.97076e-08
2.0019e-07
-4.72276e-08
2.00973e-07
-4.45137e-08
2.01706e-07
-4.17119e-08
2.02444e-07
-3.8823e-08
2.03137e-07
-3.59907e-08
2.03805e-07
-3.30441e-08
2.04432e-07
-3.00936e-08
2.04992e-07
-2.72477e-08
2.05504e-07
-2.40981e-08
2.05869e-07
-2.12166e-08
2.06237e-07
-1.80287e-08
2.0661e-07
-1.47516e-08
2.07571e-07
-1.18317e-08
2.10709e-07
-8.08701e-09
2.16708e-07
-3.79828e-09
2.20794e-07
3.94289e-10
2.24209e-07
3.61751e-09
2.26948e-07
6.63532e-09
2.28997e-07
9.6782e-09
2.30452e-07
1.27626e-08
2.31344e-07
1.59054e-08
2.31563e-07
1.91711e-08
2.31103e-07
2.23775e-08
2.29857e-07
2.55547e-08
2.27838e-07
2.85012e-08
2.25001e-07
3.11837e-08
2.21432e-07
3.33757e-08
2.17025e-07
3.52075e-08
2.12184e-07
3.60804e-08
2.06705e-07
3.66003e-08
2.01032e-07
3.60944e-08
1.94888e-07
3.53003e-08
1.88974e-07
3.32395e-08
1.82405e-07
3.15652e-08
1.76461e-07
2.80913e-08
1.69479e-07
2.57549e-08
1.62686e-07
2.16383e-08
1.53235e-07
1.94297e-08
1.54519e-08
1.98273e-07
-6.37925e-09
1.97665e-07
-1.13886e-08
1.96311e-07
-1.49995e-08
1.9531e-07
-1.78953e-08
1.94773e-07
-2.09551e-08
1.94452e-07
-2.43565e-08
1.94198e-07
-2.81807e-08
1.93873e-07
-3.20311e-08
1.93569e-07
-3.58865e-08
1.93314e-07
-3.94933e-08
1.93232e-07
-4.29711e-08
1.93323e-07
-4.61664e-08
1.93655e-07
-4.91031e-08
1.94242e-07
-5.16475e-08
1.95078e-07
-5.36445e-08
1.96156e-07
-5.50644e-08
1.97427e-07
-5.57334e-08
1.98871e-07
-5.56539e-08
2.00365e-07
-5.48363e-08
2.01821e-07
-5.32461e-08
2.03132e-07
-5.10191e-08
2.04299e-07
-4.83947e-08
2.05348e-07
-4.55626e-08
2.06291e-07
-4.26543e-08
2.07135e-07
-3.9667e-08
2.07893e-07
-3.67494e-08
2.08576e-07
-3.37263e-08
2.09199e-07
-3.07175e-08
2.09772e-07
-2.78202e-08
2.10385e-07
-2.47109e-08
2.11004e-07
-2.18357e-08
2.11833e-07
-1.88582e-08
2.1265e-07
-1.55678e-08
2.13541e-07
-1.27228e-08
2.14283e-07
-8.82885e-09
2.14904e-07
-4.41983e-09
2.16678e-07
-1.38004e-09
2.18906e-07
1.39039e-09
2.20991e-07
4.54995e-09
2.23203e-07
7.46569e-09
2.2526e-07
1.07059e-08
2.27025e-07
1.41405e-08
2.28372e-07
1.78236e-08
2.29201e-07
2.15487e-08
2.29358e-07
2.53976e-08
2.28765e-07
2.90942e-08
2.27314e-07
3.26351e-08
2.25045e-07
3.56442e-08
2.21906e-07
3.83465e-08
2.17954e-07
4.00324e-08
2.13311e-07
4.12435e-08
2.08302e-07
4.11037e-08
2.02947e-07
4.06548e-08
1.97651e-07
3.85356e-08
1.92315e-07
3.69018e-08
1.87513e-07
3.28932e-08
1.82955e-07
3.03131e-08
1.79155e-07
2.54384e-08
1.76668e-07
2.19163e-08
1.5979e-08
1.93922e-07
-6.81346e-09
1.9343e-07
-1.08961e-08
1.93043e-07
-1.46128e-08
1.92463e-07
-1.73156e-08
1.91917e-07
-2.04091e-08
1.91534e-07
-2.39736e-08
1.91277e-07
-2.79231e-08
1.90989e-07
-3.17436e-08
1.90812e-07
-3.57097e-08
1.90716e-07
-3.9397e-08
1.90907e-07
-4.31618e-08
1.91351e-07
-4.6611e-08
1.92153e-07
-4.99052e-08
1.93285e-07
-5.27792e-08
1.94807e-07
-5.51662e-08
1.96611e-07
-5.68685e-08
1.98679e-07
-5.78015e-08
2.00878e-07
-5.78534e-08
2.02994e-07
-5.69517e-08
2.04901e-07
-5.51531e-08
2.06487e-07
-5.26055e-08
2.07822e-07
-4.97298e-08
2.08928e-07
-4.66681e-08
2.09913e-07
-4.36398e-08
2.10882e-07
-4.06361e-08
2.11718e-07
-3.75849e-08
2.12495e-07
-3.45033e-08
2.13165e-07
-3.13875e-08
2.13644e-07
-2.82991e-08
2.14133e-07
-2.51998e-08
2.14535e-07
-2.22377e-08
2.15e-07
-1.93238e-08
2.15736e-07
-1.63038e-08
2.16522e-07
-1.35083e-08
2.18255e-07
-1.05618e-08
2.21392e-07
-7.55692e-09
2.24492e-07
-4.48066e-09
2.26798e-07
-9.15389e-10
2.29471e-07
1.87729e-09
2.31928e-07
5.00816e-09
2.33996e-07
8.63861e-09
2.3562e-07
1.25159e-08
2.36741e-07
1.67032e-08
2.37179e-07
2.11101e-08
2.36938e-07
2.56393e-08
2.35912e-07
3.01196e-08
2.34021e-07
3.45259e-08
2.31273e-07
3.83923e-08
2.2763e-07
4.19893e-08
2.23208e-07
4.44551e-08
2.1819e-07
4.6261e-08
2.12743e-07
4.65509e-08
2.07398e-07
4.60001e-08
2.01847e-07
4.40863e-08
1.9633e-07
4.24184e-08
1.90558e-07
3.86653e-08
1.85036e-07
3.58348e-08
1.79642e-07
3.08333e-08
1.73427e-07
2.81313e-08
2.23099e-08
1.91291e-07
-6.93047e-09
1.90998e-07
-1.0603e-08
1.90209e-07
-1.38242e-08
1.89702e-07
-1.68091e-08
1.89153e-07
-1.98592e-08
1.88686e-07
-2.35075e-08
1.88377e-07
-2.76135e-08
1.88059e-07
-3.1426e-08
1.87945e-07
-3.55958e-08
1.87925e-07
-3.93764e-08
1.88354e-07
-4.35916e-08
1.89018e-07
-4.72749e-08
1.90299e-07
-5.11855e-08
1.91935e-07
-5.44153e-08
1.94147e-07
-5.7378e-08
1.96849e-07
-5.95706e-08
1.99822e-07
-6.07748e-08
2.02843e-07
-6.08748e-08
2.05696e-07
-5.98045e-08
2.081e-07
-5.75567e-08
2.1e-07
-5.45055e-08
2.11569e-07
-5.12987e-08
2.13018e-07
-4.81173e-08
2.14263e-07
-4.4885e-08
2.15145e-07
-4.15177e-08
2.15668e-07
-3.81082e-08
2.15857e-07
-3.4692e-08
2.15817e-07
-3.13481e-08
2.157e-07
-2.81819e-08
2.15614e-07
-2.51139e-08
2.15613e-07
-2.22367e-08
2.15807e-07
-1.95172e-08
2.16341e-07
-1.68381e-08
2.17231e-07
-1.43978e-08
2.18671e-07
-1.20024e-08
2.20383e-07
-9.26837e-09
2.22388e-07
-6.48602e-09
2.25474e-07
-4.00142e-09
2.28886e-07
-1.53425e-09
2.3218e-07
1.71341e-09
2.35365e-07
5.45411e-09
2.3819e-07
9.69079e-09
2.4037e-07
1.45231e-08
2.41777e-07
1.97036e-08
2.42228e-07
2.51877e-08
2.41609e-07
3.07383e-08
2.39919e-07
3.62159e-08
2.37005e-07
4.1307e-08
2.33145e-07
4.58495e-08
2.28573e-07
4.90264e-08
2.23168e-07
5.16663e-08
2.17127e-07
5.25921e-08
2.10528e-07
5.25988e-08
2.03838e-07
5.07761e-08
1.97164e-07
4.90924e-08
1.90789e-07
4.50405e-08
1.8438e-07
4.22438e-08
1.78766e-07
3.64468e-08
1.73189e-07
3.37088e-08
2.57377e-08
1.88727e-07
-6.83463e-09
1.88423e-07
-1.02987e-08
1.8759e-07
-1.29916e-08
1.8702e-07
-1.62385e-08
1.86383e-07
-1.92227e-08
1.85804e-07
-2.29281e-08
1.85368e-07
-2.7178e-08
1.84945e-07
-3.10034e-08
1.84793e-07
-3.54434e-08
1.84776e-07
-3.93597e-08
1.85341e-07
-4.41564e-08
1.86212e-07
-4.81453e-08
1.87977e-07
-5.29514e-08
1.90146e-07
-5.65842e-08
1.93259e-07
-6.04907e-08
1.96852e-07
-6.31641e-08
2.01039e-07
-6.49613e-08
2.05313e-07
-6.51486e-08
2.09069e-07
-6.35604e-08
2.11959e-07
-6.04471e-08
2.1442e-07
-5.69667e-08
2.16287e-07
-5.31659e-08
2.17344e-07
-4.91739e-08
2.17735e-07
-4.52759e-08
2.17621e-07
-4.14043e-08
2.1722e-07
-3.77071e-08
2.16609e-07
-3.40804e-08
2.15867e-07
-3.06064e-08
2.1499e-07
-2.73048e-08
2.14103e-07
-2.42265e-08
2.13279e-07
-2.14129e-08
2.12656e-07
-1.88945e-08
2.1241e-07
-1.65917e-08
2.12608e-07
-1.45957e-08
2.13304e-07
-1.26989e-08
2.14765e-07
-1.07291e-08
2.17183e-07
-8.90428e-09
2.20239e-07
-7.0575e-09
2.2355e-07
-4.84554e-09
2.27277e-07
-2.01307e-09
2.31158e-07
1.57328e-09
2.34897e-07
5.95157e-09
2.38201e-07
1.12194e-08
2.40786e-07
1.71177e-08
2.42404e-07
2.35699e-08
2.42908e-07
3.0235e-08
2.42206e-07
3.69171e-08
2.40281e-07
4.32329e-08
2.3689e-07
4.92399e-08
2.32052e-07
5.38643e-08
2.26176e-07
5.75428e-08
2.19534e-07
5.92337e-08
2.12112e-07
6.0021e-08
2.04692e-07
5.81959e-08
1.97539e-07
5.62456e-08
1.9092e-07
5.16594e-08
1.84775e-07
4.83891e-08
1.79346e-07
4.18761e-08
1.74705e-07
3.83496e-08
2.97781e-08
1.86258e-07
-6.57533e-09
1.8584e-07
-9.8809e-09
1.85051e-07
-1.22026e-08
1.84312e-07
-1.54994e-08
1.83539e-07
-1.84499e-08
1.8283e-07
-2.22191e-08
1.82177e-07
-2.65249e-08
1.81579e-07
-3.0405e-08
1.81256e-07
-3.51207e-08
1.81167e-07
-3.92709e-08
1.81776e-07
-4.4765e-08
1.8281e-07
-4.91797e-08
1.85105e-07
-5.52457e-08
1.87858e-07
-5.93379e-08
1.9212e-07
-6.47527e-08
1.96641e-07
-6.76846e-08
2.02436e-07
-7.07563e-08
2.08366e-07
-7.10787e-08
2.13393e-07
-6.85871e-08
2.16895e-07
-6.39495e-08
2.18893e-07
-5.89648e-08
2.19437e-07
-5.37098e-08
2.19168e-07
-4.89048e-08
2.18492e-07
-4.46e-08
2.17232e-07
-4.01443e-08
2.15333e-07
-3.5808e-08
2.12974e-07
-3.17219e-08
2.10348e-07
-2.79801e-08
2.07585e-07
-2.45414e-08
2.04831e-07
-2.14724e-08
2.02231e-07
-1.88137e-08
1.99951e-07
-1.66139e-08
1.98178e-07
-1.48193e-08
1.97087e-07
-1.35042e-08
1.96836e-07
-1.24483e-08
1.97622e-07
-1.15152e-08
1.99557e-07
-1.08393e-08
2.0243e-07
-9.92958e-09
2.06164e-07
-8.57974e-09
2.10784e-07
-6.6334e-09
2.16158e-07
-3.80064e-09
2.21906e-07
2.03317e-10
2.27537e-07
5.58844e-09
2.3257e-07
1.20847e-08
2.36499e-07
1.96406e-08
2.38907e-07
2.78275e-08
2.39563e-07
3.62612e-08
2.38603e-07
4.41928e-08
2.36059e-07
5.17834e-08
2.3184e-07
5.80834e-08
2.26202e-07
6.31812e-08
2.19534e-07
6.59018e-08
2.12199e-07
6.73556e-08
2.04662e-07
6.57333e-08
1.97221e-07
6.36859e-08
1.90377e-07
5.85039e-08
1.84043e-07
5.47227e-08
1.78596e-07
4.7324e-08
1.73454e-07
4.34907e-08
3.39343e-08
1.83923e-07
-6.18538e-09
1.83294e-07
-9.25236e-09
1.8248e-07
-1.13885e-08
1.81512e-07
-1.4532e-08
1.80608e-07
-1.75459e-08
1.79755e-07
-2.13654e-08
1.78778e-07
-2.5548e-08
1.77923e-07
-2.95502e-08
1.77246e-07
-3.44433e-08
1.77033e-07
-3.90581e-08
1.77448e-07
-4.51805e-08
1.78671e-07
-5.04027e-08
1.81276e-07
-5.78498e-08
1.84919e-07
-6.2981e-08
1.90851e-07
-7.06846e-08
1.96802e-07
-7.36365e-08
2.04118e-07
-7.80722e-08
2.12529e-07
-7.94895e-08
2.17825e-07
-7.38825e-08
2.20014e-07
-6.61391e-08
2.20316e-07
-5.92666e-08
2.18811e-07
-5.22045e-08
2.16336e-07
-4.64298e-08
2.12997e-07
-4.12609e-08
2.08451e-07
-3.55989e-08
2.03049e-07
-3.04057e-08
1.97251e-07
-2.59242e-08
1.91322e-07
-2.20505e-08
1.85435e-07
-1.86545e-08
1.79786e-07
-1.58231e-08
1.7456e-07
-1.35886e-08
1.69991e-07
-1.20446e-08
1.66229e-07
-1.10575e-08
1.63534e-07
-1.08093e-08
1.62322e-07
-1.12363e-08
1.6251e-07
-1.17023e-08
1.64002e-07
-1.23318e-08
1.67197e-07
-1.31242e-08
1.72094e-07
-1.34775e-08
1.7834e-07
-1.28785e-08
1.85583e-07
-1.1044e-08
1.9353e-07
-7.74384e-09
2.01871e-07
-2.75228e-09
2.10142e-07
3.81368e-09
2.17959e-07
1.18237e-08
2.24572e-07
2.12142e-08
2.29019e-07
3.1814e-08
2.30844e-07
4.23685e-08
2.30254e-07
5.23733e-08
2.27517e-07
6.08196e-08
2.22812e-07
6.78869e-08
2.16549e-07
7.21642e-08
2.09318e-07
7.4587e-08
2.01659e-07
7.33924e-08
1.94001e-07
7.13435e-08
1.86855e-07
6.565e-08
1.80193e-07
6.1385e-08
1.74553e-07
5.29639e-08
1.69328e-07
4.87156e-08
3.75871e-08
1.81794e-07
-5.72592e-09
1.80994e-07
-8.45308e-09
1.79619e-07
-1.0013e-08
1.78555e-07
-1.34676e-08
1.77692e-07
-1.66833e-08
1.76612e-07
-2.02858e-08
1.75198e-07
-2.41341e-08
1.73955e-07
-2.83068e-08
1.72764e-07
-3.32523e-08
1.72227e-07
-3.8521e-08
1.72198e-07
-4.51512e-08
1.73511e-07
-5.17165e-08
1.76055e-07
-6.03938e-08
1.80833e-07
-6.77588e-08
1.88667e-07
-7.85188e-08
1.98342e-07
-8.33115e-08
2.08401e-07
-8.81306e-08
2.1641e-07
-8.74985e-08
2.19186e-07
-7.66593e-08
2.17706e-07
-6.46588e-08
2.13284e-07
-5.4844e-08
2.06604e-07
-4.55246e-08
1.98359e-07
-3.81848e-08
1.89053e-07
-3.19555e-08
1.78599e-07
-2.51449e-08
1.67963e-07
-1.97698e-08
1.57654e-07
-1.5615e-08
1.47888e-07
-1.22845e-08
1.3885e-07
-9.61677e-09
1.30682e-07
-7.65432e-09
1.2355e-07
-6.45749e-09
1.17728e-07
-6.22254e-09
1.13422e-07
-6.75132e-09
1.10937e-07
-8.32374e-09
1.1041e-07
-1.07095e-08
1.11882e-07
-1.31741e-08
1.15436e-07
-1.58863e-08
1.21001e-07
-1.86891e-08
1.28321e-07
-2.07979e-08
1.37081e-07
-2.16385e-08
1.46878e-07
-2.08411e-08
1.57283e-07
-1.81488e-08
1.67888e-07
-1.33575e-08
1.78204e-07
-6.50194e-09
1.87995e-07
2.03313e-09
1.97204e-07
1.20052e-08
2.05574e-07
2.34439e-08
2.12133e-07
3.58096e-08
2.15926e-07
4.85803e-08
2.16585e-07
6.01603e-08
2.14296e-07
7.01755e-08
2.09591e-07
7.68696e-08
2.03103e-07
8.10749e-08
1.95647e-07
8.08482e-08
1.87907e-07
7.90838e-08
1.80454e-07
7.31028e-08
1.73672e-07
6.81667e-08
1.68048e-07
5.8588e-08
1.63257e-07
5.35066e-08
4.08108e-08
1.79793e-07
-5.16814e-09
1.78368e-07
-7.02808e-09
1.78582e-07
-1.02274e-08
1.77154e-07
-1.2039e-08
1.75201e-07
-1.47299e-08
1.7343e-07
-1.85148e-08
1.71525e-07
-2.22294e-08
1.69743e-07
-2.65249e-08
1.67842e-07
-3.13513e-08
1.66597e-07
-3.72761e-08
1.65774e-07
-4.43277e-08
1.66712e-07
-5.26551e-08
1.68988e-07
-6.26698e-08
1.74654e-07
-7.3424e-08
1.84847e-07
-8.87125e-08
1.99554e-07
-9.80181e-08
2.13901e-07
-1.02478e-07
2.13025e-07
-8.66229e-08
2.07594e-07
-7.12275e-08
1.95386e-07
-5.24511e-08
1.80457e-07
-3.99148e-08
1.61912e-07
-2.69796e-08
1.43695e-07
-1.99682e-08
1.25644e-07
-1.39047e-08
1.09932e-07
-9.43216e-09
9.68498e-08
-6.68784e-09
8.59698e-08
-4.73502e-09
7.70303e-08
-3.34498e-09
6.982e-08
-2.40646e-09
6.42444e-08
-2.07878e-09
6.03557e-08
-2.56875e-09
5.81914e-08
-4.05824e-09
5.78568e-08
-6.41673e-09
5.93109e-08
-9.7779e-09
6.25426e-08
-1.39412e-08
6.77542e-08
-1.83856e-08
7.47829e-08
-2.2915e-08
8.32922e-08
-2.71985e-08
9.30802e-08
-3.05858e-08
1.03881e-07
-3.24394e-08
1.15316e-07
-3.22757e-08
1.26946e-07
-2.97793e-08
1.38415e-07
-2.48259e-08
1.49462e-07
-1.75495e-08
1.59784e-07
-8.28902e-09
1.69287e-07
2.50289e-09
1.78014e-07
1.47167e-08
1.85801e-07
2.80225e-08
1.92074e-07
4.23073e-08
1.96024e-07
5.62105e-08
1.97109e-07
6.909e-08
1.95253e-07
7.87265e-08
1.90893e-07
8.54344e-08
1.84817e-07
8.69245e-08
1.77931e-07
8.59691e-08
1.70898e-07
8.01358e-08
1.64523e-07
7.45425e-08
1.59221e-07
6.38893e-08
1.54898e-07
5.78298e-08
4.34697e-08
1.78004e-07
-4.53862e-09
1.76912e-07
-5.93602e-09
1.75845e-07
-9.16018e-09
1.74425e-07
-1.0619e-08
1.72501e-07
-1.28057e-08
1.7029e-07
-1.63042e-08
1.67808e-07
-1.97476e-08
1.65277e-07
-2.39933e-08
1.62511e-07
-2.85858e-08
1.60115e-07
-3.48799e-08
1.57936e-07
-4.2149e-08
1.57394e-07
-5.21126e-08
1.58922e-07
-6.41981e-08
1.6446e-07
-7.89626e-08
1.80442e-07
-1.04694e-07
1.91246e-07
-1.08823e-07
1.9753e-07
-1.08761e-07
2.53973e-07
-1.43066e-07
1.82746e-07
1.30294e-07
9.03795e-08
6.33999e-08
3.98544e-08
3.57739e-09
3.17765e-08
-5.82687e-09
2.75785e-08
-5.2342e-09
2.52941e-08
-4.40342e-09
2.37468e-08
-3.18767e-09
2.24867e-08
-2.08497e-09
2.16028e-08
-1.52249e-09
2.1216e-08
-1.69198e-09
2.15811e-08
-2.93387e-09
2.29325e-08
-5.40964e-09
2.54986e-08
-8.98284e-09
2.93191e-08
-1.35984e-08
3.44179e-08
-1.904e-08
4.0945e-08
-2.49127e-08
4.88756e-08
-3.08457e-08
5.80444e-08
-3.63673e-08
6.83157e-08
-4.08571e-08
7.94932e-08
-4.36169e-08
9.12387e-08
-4.40212e-08
1.03098e-07
-4.16383e-08
1.14618e-07
-3.63466e-08
1.25471e-07
-2.8402e-08
1.35455e-07
-1.82729e-08
1.44524e-07
-6.56645e-09
1.52694e-07
6.54716e-09
1.60036e-07
2.06805e-08
1.66477e-07
3.58662e-08
1.71464e-07
5.12232e-08
1.74419e-07
6.61347e-08
1.74788e-07
7.83579e-08
1.7283e-07
8.73924e-08
1.68801e-07
9.09534e-08
1.63723e-07
9.10473e-08
1.57721e-07
8.61374e-08
1.52063e-07
8.02002e-08
1.4738e-07
6.85733e-08
1.43756e-07
6.14537e-08
4.53462e-08
1.76384e-07
-3.79523e-09
1.75299e-07
-4.85052e-09
1.73781e-07
-7.64239e-09
1.72066e-07
-8.90412e-09
1.69968e-07
-1.07075e-08
1.67341e-07
-1.36773e-08
1.643e-07
-1.67064e-08
1.60882e-07
-2.05757e-08
1.57096e-07
-2.4799e-08
1.53128e-07
-3.09123e-08
1.48999e-07
-3.802e-08
1.4564e-07
-4.87535e-08
1.43544e-07
-6.21024e-08
1.45669e-07
-8.10869e-08
1.61121e-07
-1.20147e-07
2.51827e-07
-1.99528e-07
1.43066e-07
3.57739e-09
-2.24948e-09
-1.25048e-09
-6.23321e-09
-1.00204e-09
-4.65187e-09
-7.23261e-10
-3.46645e-09
-3.40553e-10
-2.46769e-09
1.0434e-10
-1.96739e-09
8.64917e-10
-2.45256e-09
2.11469e-09
-4.18364e-09
3.93158e-09
-7.22653e-09
6.4566e-09
-1.15079e-08
9.81473e-09
-1.69565e-08
1.41365e-08
-2.33618e-08
1.96171e-08
-3.03933e-08
2.64008e-08
-3.76294e-08
3.45129e-08
-4.44794e-08
4.39582e-08
-5.03024e-08
5.46092e-08
-5.42679e-08
6.6137e-08
-5.5549e-08
7.80667e-08
-5.35679e-08
8.98388e-08
-4.81188e-08
1.00959e-07
-3.9522e-08
1.11094e-07
-2.84082e-08
1.20045e-07
-1.5517e-08
1.28072e-07
-1.48043e-09
1.34858e-07
1.38949e-08
1.40803e-07
2.99205e-08
1.45686e-07
4.63404e-08
1.49231e-07
6.25902e-08
1.5085e-07
7.67385e-08
1.50613e-07
8.763e-08
1.48355e-07
9.32107e-08
1.4525e-07
9.41521e-08
1.4057e-07
9.08177e-08
1.35894e-07
8.4876e-08
1.32185e-07
7.22831e-08
1.29498e-07
6.41405e-08
4.64436e-08
1.75014e-07
-2.93888e-09
1.73872e-07
-3.70822e-09
1.72128e-07
-5.89787e-09
1.70113e-07
-6.88933e-09
1.67742e-07
-8.33718e-09
1.6471e-07
-1.06449e-08
1.61112e-07
-1.31083e-08
1.56822e-07
-1.62856e-08
1.51904e-07
-1.98815e-08
1.4619e-07
-2.51978e-08
1.39634e-07
-3.14639e-08
1.32432e-07
-4.15523e-08
1.23795e-07
-5.34651e-08
1.15933e-07
-7.32246e-08
1.02051e-07
-1.06265e-07
-9.74773e-08
-4.22544e-09
-2.00777e-09
-6.60284e-09
-2.27448e-09
-8.01568e-09
-2.05361e-09
-8.9689e-09
-1.51447e-09
-9.60467e-09
-1.33162e-09
-9.93946e-09
-2.11777e-09
-9.9628e-09
-4.16031e-09
-9.63469e-09
-7.55465e-09
-8.82913e-09
-1.23134e-08
-7.38242e-09
-1.84032e-08
-5.0747e-09
-2.56695e-08
-1.65361e-09
-3.38144e-08
3.11072e-09
-4.23937e-08
9.44862e-09
-5.08173e-08
1.74279e-08
-5.82817e-08
2.69998e-08
-6.38398e-08
3.78511e-08
-6.64003e-08
4.95963e-08
-6.53131e-08
6.15839e-08
-6.01064e-08
7.31961e-08
-5.11341e-08
8.39209e-08
-3.9133e-08
9.34615e-08
-2.50577e-08
1.01636e-07
-9.65479e-09
1.08629e-07
6.90215e-09
1.14477e-07
2.40721e-08
1.19216e-07
4.16016e-08
1.22866e-07
5.89396e-08
1.25075e-07
7.45302e-08
1.25779e-07
8.69255e-08
1.24999e-07
9.39908e-08
1.23526e-07
9.5625e-08
1.20464e-07
9.38796e-08
1.17028e-07
8.83121e-08
1.14087e-07
7.52239e-08
1.11942e-07
6.62856e-08
4.67521e-08
1.73954e-07
-1.99333e-09
1.72743e-07
-2.49755e-09
1.70837e-07
-3.99149e-09
1.68614e-07
-4.66641e-09
1.65959e-07
-5.68202e-09
1.6257e-07
-7.25643e-09
1.58452e-07
-8.99041e-09
1.534e-07
-1.12329e-08
1.4738e-07
-1.38619e-08
1.3998e-07
-1.77971e-08
1.31048e-07
-2.25325e-08
1.20068e-07
-3.05723e-08
1.06108e-07
-3.95049e-08
9.10039e-08
-5.81204e-08
9.74773e-08
-1.12739e-07
-2.00777e-09
-6.31014e-09
2.02789e-09
-9.82688e-09
1.46313e-09
-1.27125e-08
1.37112e-09
-1.51983e-08
1.15421e-09
-1.73748e-08
5.87307e-11
-1.9299e-08
-2.23613e-09
-2.09612e-08
-5.89243e-09
-2.226e-08
-1.10146e-08
-2.30036e-08
-1.76597e-08
-2.29152e-08
-2.57579e-08
-2.16945e-08
-3.50351e-08
-1.90347e-08
-4.50535e-08
-1.47645e-08
-5.50875e-08
-8.77938e-09
-6.42668e-08
-1.01747e-09
-7.16017e-08
8.65682e-09
-7.60746e-08
1.97215e-08
-7.63778e-08
3.1528e-08
-7.19129e-08
4.3387e-08
-6.29931e-08
5.46256e-08
-5.03716e-08
6.47423e-08
-3.51743e-08
7.34898e-08
-1.84023e-08
8.09702e-08
-5.78335e-10
8.71433e-08
1.7899e-08
9.21183e-08
3.66266e-08
9.60286e-08
5.50294e-08
9.88006e-08
7.17582e-08
1.00413e-07
8.53129e-08
1.00772e-07
9.36322e-08
1.00109e-07
9.62876e-08
9.84932e-08
9.54955e-08
9.64198e-08
9.03854e-08
9.34398e-08
7.8204e-08
9.11716e-08
6.85538e-08
4.57874e-08
1.73235e-07
-9.86589e-10
1.71969e-07
-1.23183e-09
1.6995e-07
-1.97211e-09
1.67591e-07
-2.30735e-09
1.64726e-07
-2.81676e-09
1.61067e-07
-3.59806e-09
1.56556e-07
-4.47884e-09
1.5093e-07
-5.60736e-09
1.44053e-07
-6.98432e-09
1.3525e-07
-8.99492e-09
1.24319e-07
-1.16012e-08
1.09621e-07
-1.58737e-08
9.13817e-08
-2.12659e-08
6.6153e-08
-3.28918e-08
-4.65855e-08
-4.9788e-09
7.00668e-09
-1.01082e-08
6.59252e-09
-1.46436e-08
5.9065e-09
-1.86878e-08
5.1984e-09
-2.24089e-08
3.77983e-09
-2.58822e-08
1.23716e-09
-2.91157e-08
-2.65886e-09
-3.20064e-08
-8.1239e-09
-3.43786e-08
-1.52876e-08
-3.6035e-08
-2.41015e-08
-3.67682e-08
-3.43019e-08
-3.63288e-08
-4.54929e-08
-3.44783e-08
-5.6938e-08
-3.09463e-08
-6.77988e-08
-2.55625e-08
-7.69855e-08
-1.82674e-08
-8.33697e-08
-8.9291e-09
-8.57162e-08
2.16687e-09
-8.30089e-08
1.38944e-08
-7.47206e-08
2.53642e-08
-6.18415e-08
3.58637e-08
-4.56739e-08
4.50898e-08
-2.76284e-08
5.29608e-08
-8.44932e-09
5.95399e-08
1.13199e-08
6.49202e-08
3.12463e-08
6.92868e-08
5.06629e-08
7.26563e-08
6.83886e-08
7.50382e-08
8.2931e-08
7.62671e-08
9.24033e-08
7.63548e-08
9.61999e-08
7.58309e-08
9.60194e-08
7.44966e-08
9.17197e-08
7.08121e-08
8.18885e-08
6.85364e-08
7.08295e-08
4.28994e-08
1.7288e-07
5.04515e-11
1.71585e-07
6.2673e-11
1.69509e-07
1.04282e-10
1.67078e-07
1.23334e-10
1.64109e-07
1.5289e-10
1.60314e-07
1.96394e-10
1.55588e-07
2.47151e-10
1.49673e-07
3.07555e-10
1.42307e-07
3.82259e-10
1.32838e-07
4.74059e-10
1.20645e-07
5.91735e-10
1.04039e-07
7.32408e-10
8.1854e-08
9.18874e-10
4.78302e-08
1.13203e-09
1.24465e-09
-4.40083e-09
1.14075e-08
-1.00335e-08
1.22252e-08
-1.52625e-08
1.11355e-08
-2.00472e-08
9.98315e-09
-2.44814e-08
8.21401e-09
-2.86133e-08
5.36905e-09
-3.23744e-08
1.10226e-09
-3.58093e-08
-4.68905e-09
-3.88104e-08
-1.22865e-08
-4.12649e-08
-2.1647e-08
-4.29912e-08
-3.25757e-08
-4.39135e-08
-4.45706e-08
-4.38974e-08
-5.69541e-08
-4.28335e-08
-6.88627e-08
-4.05179e-08
-7.93012e-08
-3.67933e-08
-8.70943e-08
-3.13664e-08
-9.11431e-08
-2.32428e-08
-9.11325e-08
-1.29293e-08
-8.50342e-08
-1.73352e-09
-7.30372e-08
9.04464e-09
-5.6452e-08
1.85497e-08
-3.71335e-08
2.66838e-08
-1.65834e-08
3.34963e-08
4.50732e-09
3.91588e-08
2.55838e-08
4.38819e-08
4.59398e-08
4.77727e-08
6.44978e-08
5.09719e-08
7.97319e-08
5.33383e-08
9.00368e-08
5.45279e-08
9.50103e-08
5.44383e-08
9.6109e-08
5.23605e-08
9.37975e-08
4.79546e-08
8.62943e-08
4.69562e-08
7.1828e-08
3.85226e-08
1.72899e-07
1.08512e-09
1.71607e-07
1.35455e-09
1.69535e-07
2.17643e-09
1.6711e-07
2.54892e-09
1.64147e-07
3.11599e-09
1.60361e-07
3.98237e-09
1.55645e-07
4.96241e-09
1.49744e-07
6.20873e-09
1.42395e-07
7.73152e-09
1.32947e-07
9.92183e-09
1.20785e-07
1.27538e-08
1.0421e-07
1.73078e-08
8.20981e-08
2.30305e-08
4.80905e-08
3.51397e-08
4.93351e-08
-4.68458e-09
1.60921e-08
-9.61345e-09
1.7154e-08
-1.4446e-08
1.59681e-08
-1.89981e-08
1.45352e-08
-2.33277e-08
1.25436e-08
-2.74858e-08
9.5271e-09
-3.14768e-08
5.09324e-09
-3.52313e-08
-9.34497e-10
-3.87258e-08
-8.79204e-09
-4.17622e-08
-1.86106e-08
-4.41684e-08
-3.01694e-08
-4.58658e-08
-4.28731e-08
-4.67466e-08
-5.60733e-08
-4.68275e-08
-6.87819e-08
-4.61328e-08
-7.99959e-08
-4.45415e-08
-8.86855e-08
-4.21433e-08
-9.35413e-08
-3.82798e-08
-9.4996e-08
-3.23088e-08
-9.10052e-08
-2.38705e-08
-8.14756e-08
-1.38865e-08
-6.6436e-08
-4.15186e-09
-4.68681e-08
4.2699e-09
-2.50051e-08
1.13794e-08
-2.60214e-09
1.75153e-08
1.94478e-08
2.2855e-08
4.06001e-08
2.75587e-08
5.97941e-08
3.17023e-08
7.55883e-08
3.47939e-08
8.69452e-08
3.58081e-08
9.39961e-08
3.43276e-08
9.75895e-08
3.0972e-08
9.71532e-08
2.75973e-08
8.9669e-08
2.90807e-08
7.03446e-08
3.46847e-08
1.73292e-07
2.08489e-09
1.72034e-07
2.61248e-09
1.70028e-07
4.18323e-09
1.67684e-07
4.89289e-09
1.64838e-07
5.96209e-09
1.61205e-07
7.61508e-09
1.56725e-07
9.44222e-09
1.51137e-07
1.17969e-08
1.44311e-07
1.45571e-08
1.3557e-07
1.86633e-08
1.24721e-07
2.36029e-08
1.10102e-07
3.19265e-08
9.19903e-08
4.11421e-08
6.6852e-08
6.02781e-08
1.16187e-07
-5.90383e-09
2.19959e-08
-8.59058e-09
1.98408e-08
-1.18649e-08
1.92424e-08
-1.52808e-08
1.7951e-08
-1.87772e-08
1.604e-08
-2.23624e-08
1.31124e-08
-2.60381e-08
8.76891e-09
-2.95999e-08
2.62726e-09
-3.32248e-08
-5.16711e-09
-3.67117e-08
-1.51236e-08
-3.99223e-08
-2.69589e-08
-4.26476e-08
-4.01478e-08
-4.4768e-08
-5.39529e-08
-4.61251e-08
-6.74248e-08
-4.66316e-08
-7.94895e-08
-4.62449e-08
-8.90722e-08
-4.50709e-08
-9.47153e-08
-4.32164e-08
-9.68505e-08
-4.03323e-08
-9.38893e-08
-3.60723e-08
-8.57355e-08
-2.98725e-08
-7.26358e-08
-2.18137e-08
-5.4927e-08
-1.34771e-08
-3.33417e-08
-6.05433e-09
-1.00249e-08
7.47956e-10
1.26455e-08
6.74105e-09
3.4607e-08
1.20108e-08
5.45243e-08
1.62329e-08
7.13662e-08
1.86036e-08
8.45744e-08
1.83791e-08
9.42207e-08
1.6217e-08
9.97517e-08
1.38601e-08
9.951e-08
1.33262e-08
9.02029e-08
1.61951e-08
6.74757e-08
3.29849e-08
1.74046e-07
3.01924e-09
1.72848e-07
3.81049e-09
1.70962e-07
6.06914e-09
1.68764e-07
7.09163e-09
1.6614e-07
8.58591e-09
1.62792e-07
1.09632e-08
1.58725e-07
1.35089e-08
1.53736e-07
1.67857e-08
1.47798e-07
2.04949e-08
1.40492e-07
2.59693e-08
1.31695e-07
3.24008e-08
1.20867e-07
4.27544e-08
1.07108e-07
5.49012e-08
9.22846e-08
7.5101e-08
9.98534e-08
1.08618e-07
9.98534e-08
-7.85791e-09
7.8579e-09
-4.53524e-09
1.86732e-08
-5.34838e-09
2.06539e-08
-6.5457e-09
2.04398e-08
-8.12126e-09
1.95266e-08
-9.98465e-09
1.79034e-08
-1.20661e-08
1.51939e-08
-1.42921e-08
1.09949e-08
-1.65813e-08
4.91637e-09
-1.88442e-08
-2.90419e-09
-2.11517e-08
-1.28161e-08
-2.35181e-08
-2.45925e-08
-2.60678e-08
-3.75982e-08
-2.89166e-08
-5.11041e-08
-3.21029e-08
-6.42384e-08
-3.5529e-08
-7.60633e-08
-3.87202e-08
-8.5881e-08
-4.08806e-08
-9.25549e-08
-4.19177e-08
-9.58133e-08
-4.13274e-08
-9.44797e-08
-3.91461e-08
-8.79168e-08
-3.58116e-08
-7.59703e-08
-3.12633e-08
-5.94753e-08
-2.52163e-08
-3.93886e-08
-1.85582e-08
-1.66831e-08
-1.21451e-08
6.23246e-09
-6.12963e-09
2.85915e-08
-9.54718e-10
4.93494e-08
2.84089e-09
6.75706e-08
4.86507e-09
8.25502e-08
5.48574e-09
9.36e-08
5.61402e-09
9.96234e-08
6.16002e-09
9.8964e-08
7.77541e-09
8.85875e-08
9.47339e-09
6.57777e-08
3.34481e-08
1.75138e-07
3.86083e-09
1.74012e-07
4.93572e-09
1.72295e-07
7.78614e-09
1.70313e-07
9.07433e-09
1.67985e-07
1.09134e-08
1.65005e-07
1.3943e-08
1.61477e-07
1.70374e-08
1.5727e-07
2.09922e-08
1.5246e-07
2.53049e-08
1.46878e-07
3.15515e-08
1.40495e-07
3.87838e-08
1.33508e-07
4.97416e-08
1.2512e-07
6.32892e-08
1.17587e-07
8.26343e-08
1.03887e-07
1.22318e-07
2.03741e-07
-2.96918e-09
1.08271e-08
-1.0109e-09
1.67149e-08
9.99453e-10
1.86436e-08
2.44859e-09
1.89906e-08
3.3212e-09
1.8654e-08
3.78618e-09
1.74384e-08
4.01336e-09
1.49667e-08
4.1413e-09
1.0867e-08
4.23114e-09
4.82653e-09
4.32376e-09
-2.99682e-09
4.33016e-09
-1.28225e-08
4.03692e-09
-2.42992e-08
3.21813e-09
-3.67794e-08
1.46908e-09
-4.93551e-08
-1.63438e-09
-6.1135e-08
-6.26133e-09
-7.14364e-08
-1.24271e-08
-7.97153e-08
-1.93183e-08
-8.56637e-08
-2.61075e-08
-8.90242e-08
-3.14497e-08
-8.91374e-08
-3.43415e-08
-8.50251e-08
-3.45146e-08
-7.57972e-08
-3.25755e-08
-6.14145e-08
-2.90192e-08
-4.29449e-08
-2.41902e-08
-2.15122e-08
-1.90399e-08
1.08218e-09
-1.36989e-08
2.32505e-08
-8.71676e-09
4.43673e-08
-4.3862e-09
6.32401e-08
-7.90082e-10
7.89541e-08
2.04704e-09
9.07629e-08
4.31658e-09
9.73539e-08
6.34107e-09
9.69396e-08
8.54637e-09
8.63822e-08
9.02926e-09
6.52948e-08
3.51295e-08
1.76533e-07
4.58676e-09
1.75468e-07
6.0003e-09
1.73984e-07
9.27054e-09
1.72308e-07
1.07497e-08
1.70261e-07
1.29609e-08
1.67698e-07
1.6506e-08
1.6474e-07
1.99957e-08
1.61422e-07
2.43095e-08
1.57766e-07
2.89613e-08
1.53959e-07
3.53585e-08
1.50031e-07
4.27123e-08
1.46942e-07
5.28305e-08
1.45189e-07
6.50423e-08
1.47793e-07
8.00296e-08
1.64002e-07
1.06109e-07
2.57333e-07
1.1041e-07
1.46735e-07
1.10598e-07
1.46735e-07
5.5284e-09
-5.5284e-09
-1.48133e-10
5.67652e-09
3.51394e-09
7.16499e-09
8.55889e-09
1.167e-08
1.3555e-08
1.36474e-08
1.76865e-08
1.48591e-08
2.11876e-08
1.51528e-08
2.42864e-08
1.43397e-08
2.71854e-08
1.20676e-08
3.00039e-08
8.04842e-09
3.27324e-08
2.09806e-09
3.52511e-08
-5.51557e-09
3.7433e-08
-1.50044e-08
3.89688e-08
-2.58351e-08
3.95152e-08
-3.73258e-08
3.87532e-08
-4.8593e-08
3.6335e-08
-5.87168e-08
3.19048e-08
-6.70061e-08
2.52412e-08
-7.30517e-08
1.64104e-08
-7.68329e-08
5.95485e-09
-7.85687e-08
-4.87128e-09
-7.83113e-08
-1.43399e-08
-7.55564e-08
-2.09219e-08
-6.92152e-08
-2.39964e-08
-5.834e-08
-2.40144e-08
-4.29269e-08
-2.1699e-08
-2.38275e-08
-1.81696e-08
-2.44723e-09
-1.36355e-08
1.87163e-08
-8.84901e-09
3.95808e-08
-4.1142e-09
5.85053e-08
1.99068e-10
7.46408e-08
3.87205e-09
8.70899e-08
7.28599e-09
9.39399e-08
1.07459e-08
9.34797e-08
1.43596e-08
8.27685e-08
1.48044e-08
6.485e-08
3.72486e-08
1.78171e-07
5.19743e-09
1.77104e-07
7.06774e-09
1.76074e-07
1.03001e-08
1.747e-07
1.21242e-08
1.7283e-07
1.48302e-08
1.70694e-07
1.86425e-08
1.68301e-07
2.23879e-08
1.65888e-07
2.67232e-08
1.63258e-07
3.15907e-08
1.6105e-07
3.75666e-08
1.59082e-07
4.468e-08
1.58851e-07
5.3062e-08
1.60718e-07
6.31753e-08
1.6681e-07
7.39372e-08
1.83437e-07
8.94819e-08
1.95336e-07
9.85114e-08
2.02469e-07
1.03465e-07
2.61716e-07
8.7488e-08
1.90456e-07
7.12591e-08
1.38499e-07
5.19574e-08
9.92635e-08
3.92356e-08
7.30504e-08
2.62131e-08
4.75201e-08
2.00019e-08
3.94215e-08
1.37751e-08
3.65644e-08
1.00221e-08
3.84711e-08
9.76322e-09
4.20075e-08
1.01111e-08
4.61816e-08
1.0685e-08
5.0624e-08
1.07104e-08
5.52953e-08
9.66831e-09
6.01572e-08
7.2057e-09
6.51459e-08
3.0598e-09
6.98683e-08
-2.62434e-09
7.43788e-08
-1.00262e-08
7.82996e-08
-1.89251e-08
8.12446e-08
-2.87801e-08
8.27758e-08
-3.8857e-08
8.2486e-08
-4.83032e-08
8.00616e-08
-5.62925e-08
7.52857e-08
-6.22303e-08
6.80627e-08
-6.58287e-08
5.83538e-08
-6.7124e-08
4.63023e-08
-6.65171e-08
3.2524e-08
-6.4533e-08
1.83458e-08
-6.13783e-08
5.65687e-09
-5.65263e-08
-3.80032e-09
-4.88828e-08
-9.28353e-09
-3.74437e-08
-1.10669e-08
-2.20441e-08
-1.01395e-08
-3.37466e-09
-7.28201e-09
1.58588e-08
-3.29269e-09
3.55915e-08
1.20979e-09
5.40028e-08
5.96467e-09
6.9886e-08
1.09306e-08
8.21239e-08
1.68416e-08
8.8029e-08
2.31502e-08
8.7171e-08
2.93759e-08
7.65428e-08
3.09518e-08
6.32741e-08
3.92805e-08
1.7997e-07
5.73686e-09
1.78575e-07
8.46258e-09
1.78828e-07
1.00471e-08
1.77447e-07
1.35048e-08
1.75552e-07
1.67253e-08
1.73862e-07
2.0333e-08
1.72051e-07
2.4199e-08
1.70396e-07
2.83773e-08
1.68636e-07
3.33516e-08
1.67591e-07
3.8611e-08
1.6698e-07
4.52914e-08
1.68237e-07
5.18044e-08
1.7084e-07
6.0573e-08
1.77e-07
6.77772e-08
1.87706e-07
7.8776e-08
2.03174e-07
8.30427e-08
2.18667e-07
8.79727e-08
2.18932e-07
8.72232e-08
2.14148e-07
7.60429e-08
2.02842e-07
6.32635e-08
1.89104e-07
5.29735e-08
1.7215e-07
4.31665e-08
1.56179e-07
3.59731e-08
1.39702e-07
3.02519e-08
1.25699e-07
2.40255e-08
1.15675e-07
1.97872e-08
1.09113e-07
1.66733e-08
1.05815e-07
1.39821e-08
1.05249e-07
1.12766e-08
1.06747e-07
8.17075e-09
1.09702e-07