/*--------------------------------*- C++ -*----------------------------------*\
| =========                 |                                                 |
| \\      /  F ield         | OpenFOAM: The Open Source CFD Toolbox           |
|  \\    /   O peration     | Version:  2.3.0                                 |
|   \\  /    A nd           | Web:      www.OpenFOAM.org                      |
|    \\/     M anipulation  |                                                 |
\*---------------------------------------------------------------------------*/
FoamFile
{
    version     2.0;
    format      ascii;
    class       volScalarField;
    location    "1.3";
    object      epsilon;
}
// * * * * * * * * * * * * * * * * * * * * * * * * * * * * * * * * * * * * * //

dimensions      [0 2 -3 0 0 0 0];

internalField   nonuniform List<scalar> 
2268
(
0.0127447
0.053689
0.100154
0.149945
0.201052
0.251724
0.300122
0.344263
0.383684
0.421048
0.451969
0.47642
0.496277
0.529456
0.600952
0.713106
0.834887
0.958202
0.988081
0.892884
0.670279
0.368337
0.109336
0.0224943
0.033764
0.0501731
0.0690697
0.089665
0.111566
0.134473
0.158175
0.182927
0.209632
0.236359
0.261871
0.286732
0.314295
0.349731
0.390614
0.427665
0.462751
0.468304
0.431776
0.349256
0.234072
0.134602
0.0382335
0.0405979
0.0519448
0.0658245
0.081198
0.0978791
0.115993
0.135856
0.157977
0.182645
0.208706
0.234787
0.259989
0.285308
0.312688
0.340529
0.364773
0.384171
0.386271
0.363188
0.310139
0.228944
0.181565
0.0558447
0.0517289
0.0613261
0.0736739
0.087324
0.10214
0.118482
0.136962
0.158226
0.182228
0.207983
0.233999
0.258845
0.282809
0.307158
0.330827
0.351146
0.365875
0.368389
0.353852
0.318203
0.256763
0.218555
0.0755998
0.0655948
0.0744465
0.0862571
0.0991656
0.113063
0.128503
0.146316
0.167192
0.190801
0.21612
0.24159
0.265742
0.28878
0.311867
0.33424
0.353685
0.367796
0.373017
0.367009
0.348312
0.311064
0.285339
0.0984112
0.0824247
0.0907418
0.102282
0.114728
0.127978
0.142764
0.160101
0.180653
0.203804
0.228433
0.253012
0.276309
0.298706
0.321362
0.343723
0.363872
0.379604
0.389241
0.39281
0.394598
0.398291
0.413022
0.125887
0.102877
0.110282
0.121416
0.133334
0.14589
0.159975
0.176776
0.196882
0.219383
0.24307
0.266554
0.288981
0.310984
0.333699
0.356742
0.378519
0.397333
0.412362
0.42569
0.450865
0.525356
0.732106
0.160529
0.1277
0.133259
0.143559
0.154665
0.16628
0.179426
0.195465
0.21492
0.236547
0.259099
0.281424
0.303097
0.324958
0.348073
0.372206
0.396259
0.418969
0.439421
0.460523
0.504382
0.666014
1.6331
0.118544
0.326681
0.375277
0.376543
0.496649
0.90803
1.50806
1.86589
1.74058
1.41328
1.17781
1.06199
1.02777
1.01311
0.941967
0.749075
0.523662
0.295097
0.0580973
0.157372
0.231883
0.242464
0.261468
0.36939
0.553927
0.716783
0.815851
0.795694
0.717277
0.647887
0.588951
0.547808
0.514859
0.469739
0.393817
0.307597
0.211105
0.118573
0.275712
0.304654
0.288792
0.289868
0.362062
0.476787
0.569412
0.627527
0.627289
0.589349
0.549193
0.50822
0.473243
0.44314
0.406073
0.350281
0.284198
0.215414
0.203426
0.452031
0.409553
0.357898
0.337294
0.376281
0.453217
0.519959
0.563586
0.570758
0.547536
0.518267
0.487227
0.458346
0.43282
0.400884
0.351779
0.29148
0.234766
0.285262
0.718366
0.53304
0.431317
0.388937
0.400484
0.451823
0.50472
0.542411
0.553837
0.537003
0.513062
0.488515
0.464498
0.444025
0.416628
0.369593
0.309924
0.259602
0.360946
1.11706
0.664197
0.498853
0.438528
0.431563
0.464149
0.507038
0.543077
0.558637
0.544224
0.522559
0.503426
0.482489
0.466961
0.444563
0.396773
0.334274
0.287263
0.430969
1.70664
0.781435
0.551486
0.482305
0.467431
0.486673
0.520087
0.557184
0.578479
0.563829
0.540942
0.526831
0.509115
0.49829
0.482288
0.430936
0.362353
0.317049
0.503549
2.57664
0.840993
0.582882
0.519964
0.506756
0.517289
0.5398
0.579768
0.609661
0.592474
0.56531
0.553893
0.540347
0.536343
0.529224
0.470343
0.392931
0.348399
0.586832
0.210123
0.165399
0.169272
0.178917
0.189217
0.199735
0.211735
0.226854
0.245012
0.264969
0.285592
0.306215
0.327034
0.34906
0.373176
0.399446
0.4276
0.456767
0.48429
0.511578
0.557321
0.673129
0.994223
0.317567
0.237661
0.233663
0.239548
0.246533
0.253491
0.261903
0.273573
0.287994
0.304354
0.322071
0.341116
0.362012
0.385464
0.411974
0.442144
0.476911
0.515714
0.550009
0.570914
0.595667
0.648413
0.753241
0.47412
0.330955
0.313
0.311943
0.313021
0.314037
0.316755
0.32332
0.333322
0.346427
0.362554
0.381853
0.404437
0.430256
0.459458
0.493064
0.533848
0.584041
0.62965
0.638797
0.642923
0.657566
0.690579
0.69283
0.446012
0.406922
0.395044
0.387275
0.380022
0.375266
0.375773
0.381639
0.393092
0.410047
0.431968
0.457696
0.486066
0.516813
0.551664
0.596214
0.658824
0.729942
0.721751
0.708969
0.694716
0.683005
0.99945
0.586766
0.515564
0.48753
0.467755
0.45056
0.437288
0.431612
0.434444
0.446845
0.467602
0.494284
0.523798
0.554098
0.583831
0.614209
0.654896
0.719902
0.762391
0.797112
0.797779
0.754052
0.699131
1.47756
0.76547
0.63621
0.584383
0.549578
0.523994
0.504398
0.493131
0.493721
0.510096
0.537513
0.570133
0.602205
0.632277
0.657536
0.673198
0.690136
0.726111
0.762189
0.797934
0.833058
0.794796
0.732888
2.12986
0.955886
0.742804
0.661221
0.613069
0.588457
0.579269
0.564549
0.560945
0.585006
0.621387
0.659045
0.686324
0.704993
0.713753
0.709698
0.705004
0.71756
0.74719
0.792759
0.842123
0.824558
0.762399
2.87771
1.11711
0.816299
0.713632
0.659598
0.63319
0.634004
0.635551
0.634216
0.668025
0.700235
0.726083
0.735269
0.732408
0.724932
0.71395
0.706418
0.712511
0.738668
0.78782
0.843108
0.823924
0.760406
2.97575
1.19405
0.899034
0.797755
0.719674
0.670852
0.659421
0.67033
0.701141
0.729528
0.741481
0.739907
0.734279
0.725368
0.715622
0.708663
0.706984
0.706749
0.728073
0.773901
0.813149
0.791136
0.737531
2.85499
1.32374
1.04552
0.961058
0.819381
0.717592
0.69011
0.708499
0.768286
0.813757
0.791026
0.754385
0.729953
0.718113
0.710976
0.70742
0.701894
0.690733
0.707027
0.74909
0.770333
0.744868
0.694322
2.60275
1.46414
1.22381
1.05382
0.892401
0.772814
0.714487
0.719368
0.770866
0.850755
0.842522
0.769258
0.725579
0.707245
0.689911
0.668987
0.651618
0.647574
0.663155
0.690943
0.695997
0.669291
0.626977
2.39473
1.47852
1.25356
0.997924
0.849176
0.773813
0.716294
0.692749
0.705547
0.730468
0.725592
0.689549
0.659079
0.63905
0.618528
0.599814
0.589488
0.589606
0.599311
0.608991
0.603431
0.581199
0.551375
2.19544
1.39643
1.14653
0.907223
0.78015
0.711724
0.668503
0.640842
0.630015
0.627629
0.618982
0.600839
0.58191
0.566007
0.552183
0.541464
0.535437
0.533932
0.534746
0.532017
0.52097
0.503063
0.482894
2.12555
1.22237
0.980496
0.798449
0.697577
0.639765
0.606496
0.585744
0.573643
0.566295
0.558225
0.546227
0.532556
0.519404
0.507811
0.498155
0.490394
0.483778
0.476715
0.46684
0.453657
0.4394
0.427802
1.94116
1.07169
0.837984
0.6991
0.618653
0.572405
0.546772
0.53213
0.523264
0.517907
0.512749
0.504993
0.494572
0.482729
0.470699
0.459146
0.44779
0.436322
0.424228
0.411248
0.398469
0.388527
0.384155
1.61178
0.916237
0.723036
0.612993
0.548216
0.510815
0.490062
0.479042
0.472755
0.469137
0.465862
0.46057
0.4523
0.441466
0.429073
0.415975
0.402472
0.388665
0.374912
0.362069
0.351903
0.346517
0.347813
1.26554
0.776307
0.625384
0.536804
0.48371
0.452385
0.43439
0.424393
0.419061
0.415788
0.41287
0.408474
0.401485
0.391838
0.380174
0.367296
0.353862
0.340523
0.328109
0.317782
0.311098
0.309754
0.3153
0.96769
0.650754
0.538318
0.467077
0.422587
0.395414
0.37897
0.369063
0.363285
0.359501
0.356094
0.351767
0.345597
0.337348
0.327379
0.316344
0.304971
0.294054
0.284524
0.277499
0.274287
0.276253
0.28467
0.710728
0.52825
0.454058
0.400332
0.363752
0.340201
0.32519
0.315424
0.308864
0.30438
0.300399
0.296003
0.290549
0.283806
0.275968
0.267507
0.259038
0.251272
0.245037
0.241273
0.241027
0.245368
0.255336
0.503633
0.416255
0.373493
0.336367
0.307996
0.288379
0.275156
0.266033
0.259413
0.254353
0.250175
0.245948
0.241288
0.236042
0.230313
0.224413
0.218791
0.213996
0.210669
0.20954
0.211414
0.217141
0.227557
0.35187
0.320036
0.300175
0.277251
0.257065
0.241839
0.230909
0.222965
0.216913
0.212041
0.207966
0.204207
0.200433
0.196553
0.192626
0.188843
0.185503
0.182993
0.181785
0.182429
0.185544
0.191799
0.201869
0.249552
0.241337
0.236284
0.224604
0.211973
0.201337
0.193108
0.186793
0.181794
0.177662
0.174128
0.171071
0.168209
0.165496
0.162965
0.160734
0.158996
0.158019
0.158146
0.159788
0.163421
0.169575
0.17879
0.184432
0.180238
0.18311
0.179439
0.173086
0.166749
0.161335
0.156903
0.153252
0.150175
0.147531
0.145277
0.1433
0.141559
0.140075
0.138924
0.138236
0.138201
0.13907
0.141156
0.144828
0.150502
0.158613
0.144409
0.135485
0.141195
0.142355
0.140548
0.137734
0.134877
0.132308
0.13008
0.128158
0.126501
0.125105
0.123953
0.123024
0.122336
0.121943
0.121939
0.122464
0.12371
0.125915
0.129371
0.134406
0.141369
0.11995
0.104389
0.109892
0.113289
0.114271
0.113958
0.113124
0.112157
0.111223
0.110385
0.109664
0.10908
0.108662
0.108411
0.108344
0.108506
0.108969
0.109841
0.11127
0.113445
0.116594
0.120981
0.126886
0.104486
0.0835263
0.0874895
0.0914136
0.0937681
0.0949785
0.0955435
0.0957886
0.095896
0.0959608
0.0960337
0.0961479
0.0963517
0.0966583
0.0970873
0.0976747
0.098479
0.0995862
0.101113
0.103211
0.106061
0.109875
0.11488
0.0940422
0.0696546
0.071826
0.0753896
0.0781842
0.0801621
0.081572
0.0826331
0.0834931
0.0842424
0.0849351
0.0856064
0.0863139
0.0870705
0.0878951
0.0888183
0.0898876
0.0911722
0.092766
0.09479
0.0973914
0.10074
0.105022
0.0864495
0.0602563
0.060881
0.0637648
0.0664965
0.0687531
0.0705993
0.0721525
0.0735102
0.0747403
0.0758871
0.0769834
0.0780826
0.0791937
0.0803325
0.081524
0.0828066
0.084236
0.0858883
0.0878615
0.0902754
0.0932684
0.0969931
0.0805777
0.0536387
0.0530948
0.0552837
0.0577439
0.0600123
0.0620353
0.0638525
0.0655148
0.0670631
0.0685247
0.0699406
0.071338
0.0727243
0.0741113
0.0755183
0.0769755
0.0785278
0.080237
0.0821833
0.0844651
0.0871966
0.0905041
0.0758577
0.0487857
0.0474161
0.0490158
0.051158
0.0533178
0.0553736
0.0573119
0.0591476
0.0608986
0.0625803
0.0642305
0.0658532
0.0674525
0.0690355
0.0706158
0.0722166
0.0738736
0.0756372
0.077574
0.0797658
0.082308
0.0853068
0.0720356
0.04514
0.0432012
0.0443385
0.0461865
0.048199
0.0502176
0.0521965
0.0541252
0.056002
0.05785
0.0596721
0.0614667
0.0632326
0.0649714
0.0666912
0.0684087
0.0701525
0.071964
0.073899
0.0760271
0.0784292
0.0811961
0.0690319
0.0424131
0.0400751
0.0408571
0.0424554
0.0443206
0.0462764
0.0482578
0.0502368
0.052214
0.0541846
0.05614
0.0580711
0.0599704
0.0618342
0.063665
0.0654746
0.0672853
0.069132
0.0710628
0.0731375
0.0754267
0.0780093
0.066848
0.0404515
0.0378147
0.0383204
0.0397144
0.0414513
0.0433458
0.045324
0.0473557
0.0494185
0.0514934
0.0535625
0.0556088
0.0576184
0.0595822
0.0614984
0.0633745
0.0652287
0.0670913
0.0690045
0.0710215
0.0732052
0.0756255
0.0655271
0.0391552
0.0362726
0.0365607
0.0377965
0.0394406
0.0413074
0.0433138
0.0454123
0.0475672
0.0497475
0.0519248
0.0540741
0.0561757
0.0582163
0.060191
0.0621049
0.0639738
0.0658251
0.0676974
0.0696393
0.0717078
0.0739664
0.065067
0.0384557
0.0353564
0.035484
0.0366244
0.0382393
0.0401352
0.0422165
0.0444194
0.0466923
0.0489909
0.0512766
0.053518
0.055691
0.0577806
0.0597813
0.0616976
0.0635452
0.0653501
0.067149
0.0689872
0.0709175
0.0729979
0.06538
0.0382885
0.0350338
0.0350937
0.0362355
0.0379149
0.0399253
0.0421516
0.0445095
0.04693
0.0493561
0.0517421
0.054053
0.0562648
0.0583639
0.0603469
0.0622208
0.0640022
0.0657179
0.0674031
0.069101
0.0708604
0.0727347
0.0664691
0.038727
0.035501
0.0356604
0.0369398
0.0387948
0.0410055
0.0434346
0.045976
0.0485454
0.0510776
0.053525
0.0558552
0.0580489
0.060098
0.0620041
0.0637783
0.06544
0.0670166
0.0685427
0.0700588
0.0716099
0.0732442
0.0690914
0.0406179
0.0377774
0.038161
0.0396089
0.0416402
0.0440337
0.0466282
0.0492949
0.051937
0.0544868
0.0569012
0.0591558
0.06124
0.0631538
0.0649056
0.0665108
0.0679914
0.069375
0.0706945
0.0719871
0.0732926
0.074653
0.0782385
0.0480422
0.0449247
0.0447638
0.0458315
0.0476664
0.0499647
0.0524903
0.0550695
0.0575863
0.0599709
0.0621866
0.0642185
0.0660651
0.0677339
0.0692384
0.0705969
0.0718315
0.0729683
0.0740365
0.0750681
0.0760963
0.0771551
0.122181
0.0734601
0.0621107
0.0579953
0.0571711
0.0580106
0.0596803
0.0617152
0.0638482
0.0659304
0.0678857
0.0696806
0.0713056
0.072764
0.0740658
0.0752251
0.076259
0.0771864
0.0780287
0.0788088
0.0795513
0.080281
0.0810223
0.35199
0.136254
0.0901909
0.0771061
0.0732772
0.0726824
0.0733555
0.0745293
0.0758629
0.077196
0.0784548
0.0796091
0.0806499
0.081579
0.0824032
0.0831319
0.0837759
0.0843477
0.0848606
0.0853292
0.0857687
0.086194
0.0866192
1.58591
0.205583
0.110657
0.0948823
0.0911172
0.090232
0.0902214
0.0905146
0.0909121
0.0913322
0.0917394
0.0921183
0.0924631
0.0927727
0.0930479
0.0932911
0.0935053
0.0936943
0.0938623
0.0940143
0.094155
0.0942895
0.0944217
2.45304
2.27557
2.40753
2.77444
0.898448
0.931836
0.942609
0.925326
0.721587
0.729646
0.717387
0.695099
0.682586
0.673068
0.654672
0.63714
0.675343
0.659059
0.642095
0.626514
0.700771
0.67797
0.653741
0.628958
0.723692
0.695003
0.660851
0.630309
0.717108
0.686392
0.652001
0.620436
0.692053
0.659864
0.62643
0.596395
0.649184
0.618575
0.588564
0.562265
0.58996
0.565096
0.541719
0.522132
0.52538
0.508884
0.49433
0.482989
0.468328
0.46005
0.45378
0.44995
0.422724
0.421059
0.421303
0.42333
0.386209
0.389356
0.394258
0.400479
0.354825
0.361194
0.369163
0.378166
0.325424
0.33371
0.343454
0.354075
0.296391
0.305559
0.316049
0.327337
0.267448
0.276716
0.287179
0.298389
0.239208
0.248064
0.257965
0.26858
0.21254
0.220639
0.229651
0.239345
0.188207
0.195356
0.203296
0.21187
0.166695
0.172835
0.17965
0.18704
0.148176
0.153349
0.15909
0.165338
0.132566
0.136878
0.141661
0.146882
0.119618
0.123204
0.127178
0.131523
0.109006
0.112008
0.115326
0.118955
0.100394
0.102939
0.105741
0.108803
0.0934636
0.0956587
0.0980651
0.100687
0.0879352
0.0898659
0.0919705
0.0942554
0.0835738
0.0853026
0.0871756
0.0892005
0.0801893
0.0817584
0.0834482
0.0852672
0.0776373
0.0790712
0.0806072
0.082254
0.0758193
0.0771282
0.0785239
0.0800152
0.0746861
0.0758687
0.0771251
0.0784642
0.0742413
0.0752884
0.0763978
0.0775783
0.0745464
0.0754448
0.0763946
0.0774046
0.0757277
0.0764635
0.0772403
0.0780663
0.0779833
0.078546
0.0791391
0.0797702
0.0815949
0.0819802
0.0823856
0.0828176
0.0869415
0.0871557
0.0873801
0.0876198
0.0945193
0.0945829
0.0946493
0.0947208
1.21415
0.734336
0.598051
0.569643
0.571783
0.573633
0.575848
0.619119
0.668198
0.647971
0.611778
0.599675
0.590715
0.599104
0.603463
0.530856
0.442707
0.395402
0.664067
0.77688
0.647281
0.604699
0.618456
0.641037
0.632424
0.617404
0.647757
0.72637
0.739986
0.691986
0.668519
0.655824
0.660036
0.637633
0.557041
0.469588
0.419228
0.549737
0.65111
0.609186
0.602874
0.625515
0.64215
0.635053
0.62879
0.653232
0.72111
0.773751
0.781433
0.74623
0.706975
0.661272
0.615776
0.540674
0.465586
0.437104
0.472989
0.610815
0.589875
0.590372
0.604131
0.614838
0.618686
0.629165
0.654673
0.692643
0.738157
0.788953
0.803741
0.730395
0.646677
0.590442
0.528091
0.475384
0.458654
0.458532
0.599864
0.578457
0.576087
0.583943
0.594992
0.611393
0.637242
0.647229
0.66651
0.697587
0.72876
0.762443
0.719018
0.64539
0.594591
0.54967
0.512329
0.50636
0.560953
0.594635
0.570876
0.566229
0.572863
0.588999
0.604421
0.615752
0.625926
0.640505
0.66052
0.684164
0.708888
0.69563
0.65211
0.619039
0.591027
0.55882
0.553681
0.68623
0.589982
0.564844
0.560513
0.567696
0.576433
0.583229
0.594186
0.605522
0.615795
0.631318
0.654002
0.680204
0.685224
0.6601
0.643909
0.631468
0.604698
0.6092
0.840427
0.578169
0.550842
0.544207
0.548774
0.556838
0.565891
0.576208
0.587854
0.598204
0.610676
0.630018
0.656138
0.673173
0.665189
0.658688
0.661974
0.642018
0.669597
1.03562
0.556514
0.529289
0.520753
0.524704
0.534885
0.547478
0.559725
0.57369
0.587269
0.597339
0.609758
0.630169
0.648462
0.652607
0.655649
0.667144
0.661801
0.698101
1.22978
0.528654
0.506088
0.498907
0.502212
0.51166
0.522948
0.534804
0.546707
0.559512
0.571402
0.5844
0.603632
0.622022
0.632047
0.643303
0.662898
0.663052
0.673653
1.13751
0.498535
0.484518
0.481668
0.485713
0.493582
0.502307
0.510445
0.518297
0.52721
0.538746
0.554825
0.575531
0.593795
0.607814
0.62311
0.640695
0.631358
0.602044
0.878127
0.470596
0.466163
0.468655
0.474446
0.481254
0.487403
0.492286
0.496821
0.502701
0.511973
0.526003
0.544004
0.561884
0.576702
0.589352
0.595045
0.565502
0.500558
0.592989
0.447414
0.451494
0.458974
0.466836
0.473189
0.477101
0.47881
0.479836
0.482087
0.487034
0.495336
0.506025
0.516957
0.526337
0.53206
0.523954
0.478956
0.401784
0.412899
0.428489
0.439455
0.451263
0.461398
0.468093
0.470637
0.469592
0.466675
0.463972
0.462702
0.463215
0.465232
0.467233
0.467272
0.461514
0.441154
0.395672
0.33542
0.346426
0.411333
0.427753
0.443377
0.456068
0.464057
0.46653
0.463907
0.457703
0.449928
0.442148
0.434987
0.428424
0.421377
0.41189
0.396757
0.371968
0.339483
0.309613
0.359838
0.393059
0.413743
0.432744
0.448185
0.458264
0.461906
0.45918
0.45125
0.439938
0.427243
0.414232
0.401137
0.387505
0.372307
0.354272
0.332976
0.314622
0.308924
0.40798
0.371595
0.395411
0.41722
0.435298
0.447834
0.453478
0.45194
0.444017
0.431326
0.416066
0.399763
0.383014
0.366049
0.348918
0.331725
0.315929
0.307029
0.317088
0.464174
0.34622
0.371964
0.395796
0.416058
0.430925
0.438892
0.439437
0.432943
0.420756
0.404984
0.387458
0.369223
0.351025
0.333614
0.31797
0.306705
0.30449
0.325952
0.516408
0.317505
0.343891
0.368773
0.390515
0.40725
0.417449
0.420429
0.41623
0.405854
0.391108
0.373864
0.355543
0.337327
0.320475
0.306643
0.298881
0.302108
0.33253
0.559468
0.2869
0.312611
0.3375
0.35988
0.377813
0.389936
0.395316
0.393732
0.385861
0.373154
0.357357
0.340089
0.322864
0.30729
0.295593
0.290874
0.298518
0.336118
0.590446
0.256245
0.280283
0.304081
0.326084
0.344515
0.358052
0.365551
0.366551
0.361445
0.351365
0.337861
0.322602
0.307316
0.293856
0.284615
0.282556
0.29327
0.335515
0.609716
0.226959
0.248698
0.270689
0.291505
0.309745
0.323993
0.333072
0.336374
0.334021
0.32685
0.316214
0.303733
0.291169
0.280417
0.273739
0.274004
0.287029
0.332495
0.622833
0.200155
0.219287
0.239038
0.258204
0.275631
0.289962
0.300055
0.305219
0.305385
0.301141
0.293616
0.284286
0.274825
0.26704
0.262971
0.265394
0.280311
0.328432
0.629491
0.176506
0.192994
0.210327
0.227605
0.243798
0.257716
0.268302
0.27485
0.277168
0.275639
0.271168
0.265032
0.258734
0.253927
0.252419
0.256871
0.273331
0.323543
0.6316
0.156268
0.170278
0.18526
0.200565
0.215296
0.228453
0.239106
0.246582
0.25062
0.251447
0.249757
0.246609
0.243298
0.24129
0.242177
0.248471
0.266071
0.31728
0.630833
0.139368
0.151193
0.164043
0.177431
0.190631
0.202827
0.213231
0.221239
0.226562
0.229311
0.23
0.229473
0.228811
0.229282
0.232286
0.24015
0.258493
0.309444
0.625816
0.125524
0.135507
0.146505
0.158147
0.169872
0.181032
0.190984
0.199205
0.205412
0.209639
0.212248
0.213892
0.215445
0.217967
0.222746
0.231861
0.25066
0.3006
0.614029
0.114351
0.122834
0.132278
0.142402
0.152786
0.162928
0.172315
0.180515
0.187268
0.192556
0.196627
0.19997
0.203272
0.207408
0.213565
0.223604
0.242619
0.291198
0.595194
0.105436
0.112725
0.120899
0.129748
0.138962
0.148161
0.156944
0.164963
0.17199
0.177981
0.183093
0.187685
0.192288
0.197621
0.204741
0.215375
0.234323
0.281384
0.573555
0.0983867
0.104738
0.111891
0.119693
0.127915
0.136272
0.144458
0.152196
0.159294
0.165692
0.171485
0.176925
0.182416
0.188545
0.19622
0.207169
0.225781
0.27136
0.553021
0.0928525
0.0984696
0.104806
0.111755
0.119147
0.126771
0.134393
0.141795
0.148818
0.155395
0.161573
0.167525
0.173553
0.180136
0.188081
0.199037
0.217166
0.261336
0.532707
0.0885384
0.0935695
0.0992473
0.105498
0.112198
0.119186
0.126287
0.133328
0.140176
0.146763
0.1531
0.159297
0.165578
0.172339
0.180311
0.191053
0.208728
0.251456
0.510662
0.0852074
0.0897521
0.0948801
0.100547
0.106658
0.113092
0.119712
0.126385
0.132996
0.139473
0.145804
0.152049
0.158373
0.165109
0.172939
0.183389
0.20054
0.241597
0.484959
0.0826839
0.0867987
0.0914433
0.0965992
0.10219
0.108125
0.114299
0.120604
0.126939
0.133229
0.139439
0.145594
0.151815
0.15839
0.165956
0.175988
0.192422
0.231433
0.455593
0.080857
0.0845623
0.0887548
0.0934298
0.0985349
0.104002
0.109749
0.115686
0.121723
0.127776
0.133792
0.139766
0.145784
0.152102
0.159315
0.168819
0.184372
0.221174
0.431578
0.0796867
0.0829737
0.0867102
0.0909028
0.0955251
0.100526
0.105845
0.11141
0.117133
0.122921
0.128698
0.134432
0.140183
0.146177
0.152972
0.161883
0.176498
0.211522
0.413575
0.0792092
0.0820497
0.085302
0.0889831
0.0930951
0.0976043
0.102473
0.107648
0.113043
0.118549
0.124061
0.129522
0.134967
0.140598
0.146942
0.155253
0.168974
0.202378
0.396532
0.0795443
0.0819003
0.0846261
0.0877506
0.0912947
0.0952556
0.0996235
0.104374
0.109423
0.114633
0.119871
0.125046
0.130171
0.135429
0.141327
0.149078
0.16203
0.194059
0.38091
0.0809026
0.0827368
0.0848893
0.0873987
0.0902998
0.0936241
0.0973996
0.101666
0.106336
0.111242
0.116204
0.1211
0.125917
0.130821
0.136306
0.143574
0.155933
0.186991
0.368425
0.0835959
0.0848828
0.0864227
0.0882583
0.0904305
0.0929847
0.09599
0.09967
0.103922
0.108515
0.113213
0.117853
0.122395
0.12699
0.132124
0.139007
0.150987
0.181686
0.361221
0.0880547
0.088794
0.0897028
0.0908192
0.0921737
0.0937677
0.0955721
0.0985125
0.102317
0.106612
0.111082
0.115514
0.119841
0.124196
0.129059
0.135662
0.147475
0.178576
0.361607
0.0948528
0.0950864
0.0953847
0.095767
0.096236
0.0966723
0.0960151
0.098103
0.101537
0.10563
0.109962
0.114277
0.118481
0.122694
0.127388
0.133818
0.145617
0.177778
0.370338
)
;

boundaryField
{
    leftWall
    {
        type            epsilonWallFunction;
        value           nonuniform List<scalar> 
50
(
0.0127447
0.0224943
0.0382335
0.0558447
0.0755998
0.0984112
0.125887
0.160529
0.210123
0.317567
0.47412
0.69283
0.99945
1.47756
2.12986
2.87771
2.97575
2.85499
2.60275
2.39473
2.19544
2.12555
1.94116
1.61178
1.26554
0.96769
0.710728
0.503633
0.35187
0.249552
0.184432
0.144409
0.11995
0.104486
0.0940422
0.0864495
0.0805777
0.0758577
0.0720356
0.0690319
0.066848
0.0655271
0.065067
0.06538
0.0664691
0.0690914
0.0782385
0.122181
0.35199
1.58591
)
;
        Cmu             0.09;
        kappa           0.41;
        E               9.8;
        value           nonuniform List<scalar> 
50
(
0.0127447
0.0224943
0.0382335
0.0558447
0.0755998
0.0984112
0.125887
0.160529
0.210123
0.317567
0.47412
0.69283
0.99945
1.47756
2.12986
2.87771
2.97575
2.85499
2.60275
2.39473
2.19544
2.12555
1.94116
1.61178
1.26554
0.96769
0.710728
0.503633
0.35187
0.249552
0.184432
0.144409
0.11995
0.104486
0.0940422
0.0864495
0.0805777
0.0758577
0.0720356
0.0690319
0.066848
0.0655271
0.065067
0.06538
0.0664691
0.0690914
0.0782385
0.122181
0.35199
1.58591
)
;
    }
    rightWall
    {
        type            epsilonWallFunction;
        value           nonuniform List<scalar> 
50
(
0.0580973
0.118573
0.203426
0.285262
0.360946
0.430969
0.503549
0.586832
0.664067
0.549737
0.472989
0.458532
0.560953
0.68623
0.840427
1.03562
1.22978
1.13751
0.878127
0.592989
0.412899
0.346426
0.359838
0.40798
0.464174
0.516408
0.559468
0.590446
0.609716
0.622833
0.629491
0.6316
0.630833
0.625816
0.614029
0.595194
0.573555
0.553021
0.532707
0.510662
0.484959
0.455593
0.431578
0.413575
0.396532
0.38091
0.368425
0.361221
0.361607
0.370338
)
;
        Cmu             0.09;
        kappa           0.41;
        E               9.8;
        value           nonuniform List<scalar> 
50
(
0.0580973
0.118573
0.203426
0.285262
0.360946
0.430969
0.503549
0.586832
0.664067
0.549737
0.472989
0.458532
0.560953
0.68623
0.840427
1.03562
1.22978
1.13751
0.878127
0.592989
0.412899
0.346426
0.359838
0.40798
0.464174
0.516408
0.559468
0.590446
0.609716
0.622833
0.629491
0.6316
0.630833
0.625816
0.614029
0.595194
0.573555
0.553021
0.532707
0.510662
0.484959
0.455593
0.431578
0.413575
0.396532
0.38091
0.368425
0.361221
0.361607
0.370338
)
;
    }
    lowerWall
    {
        type            epsilonWallFunction;
        value           nonuniform List<scalar> 
62
(
0.0127447
0.053689
0.100154
0.149945
0.201052
0.251724
0.300122
0.344263
0.383684
0.421048
0.451969
0.47642
0.496277
0.529456
0.600952
0.713106
0.834887
0.958202
0.988081
0.892884
0.670279
0.368337
0.109336
0.109336
0.134602
0.181565
0.218555
0.285339
0.413022
0.732106
1.6331
2.45304
2.27557
2.40753
2.77444
0.118544
0.157372
0.275712
0.452031
0.718366
1.11706
1.70664
2.57664
0.118544
0.326681
0.375277
0.376543
0.496649
0.90803
1.50806
1.86589
1.74058
1.41328
1.17781
1.06199
1.02777
1.01311
0.941967
0.749075
0.523662
0.295097
0.0580973
)
;
        Cmu             0.09;
        kappa           0.41;
        E               9.8;
        value           nonuniform List<scalar> 
62
(
0.0127447
0.053689
0.100154
0.149945
0.201052
0.251724
0.300122
0.344263
0.383684
0.421048
0.451969
0.47642
0.496277
0.529456
0.600952
0.713106
0.834887
0.958202
0.988081
0.892884
0.670279
0.368337
0.109336
0.109336
0.134602
0.181565
0.218555
0.285339
0.413022
0.732106
1.6331
2.45304
2.27557
2.40753
2.77444
0.118544
0.157372
0.275712
0.452031
0.718366
1.11706
1.70664
2.57664
0.118544
0.326681
0.375277
0.376543
0.496649
0.90803
1.50806
1.86589
1.74058
1.41328
1.17781
1.06199
1.02777
1.01311
0.941967
0.749075
0.523662
0.295097
0.0580973
)
;
    }
    atmosphere
    {
        type            inletOutlet;
        inletValue      uniform 0.1;
        value           nonuniform List<scalar> 
46
(
0.1
0.1
0.1
0.1
0.1
0.1
0.1
0.1
0.1
0.1
0.1
0.1
0.1
0.1
0.1
0.1
0.1
0.1
0.1
0.1
0.1
0.1
0.1
0.1
0.1
0.1
0.1
0.1
0.1
0.1
0.1
0.1
0.1
0.0960151
0.098103
0.101537
0.10563
0.109962
0.114277
0.118481
0.122694
0.127388
0.133818
0.145617
0.177778
0.370338
)
;
    }
    defaultFaces
    {
        type            empty;
    }
}


// ************************************************************************* //
