/*--------------------------------*- C++ -*----------------------------------*\
| =========                 |                                                 |
| \\      /  F ield         | OpenFOAM: The Open Source CFD Toolbox           |
|  \\    /   O peration     | Version:  2.3.0                                 |
|   \\  /    A nd           | Web:      www.OpenFOAM.org                      |
|    \\/     M anipulation  |                                                 |
\*---------------------------------------------------------------------------*/
FoamFile
{
    version     2.0;
    format      ascii;
    class       volScalarField;
    location    "1.3";
    object      k;
}
// * * * * * * * * * * * * * * * * * * * * * * * * * * * * * * * * * * * * * //

dimensions      [0 2 -2 0 0 0 0];

internalField   nonuniform List<scalar> 
2268
(
0.00255621
0.00554732
0.00843473
0.011006
0.0133124
0.0153755
0.0171972
0.0187637
0.020081
0.0212973
0.0222913
0.0230685
0.0236889
0.0246799
0.0267379
0.0298574
0.0331261
0.0363158
0.037104
0.0347152
0.0287413
0.0194403
0.00873576
0.0050483
0.0127532
0.0188612
0.0240839
0.0286875
0.032829
0.0366141
0.0401165
0.0433873
0.0463535
0.0489807
0.0513316
0.0535076
0.0564724
0.0612138
0.0674482
0.0736423
0.077697
0.0777326
0.0722353
0.060295
0.040929
0.0165496
0.00721073
0.0178473
0.0257132
0.032267
0.037966
0.043071
0.0477784
0.0522418
0.0565695
0.060643
0.064389
0.0678209
0.0711372
0.0752499
0.0810195
0.0879331
0.0943174
0.0980862
0.0973666
0.0904671
0.0761202
0.0530659
0.0202068
0.00930225
0.0226357
0.0319227
0.0394548
0.0458999
0.0516249
0.0569192
0.0620141
0.0670531
0.0718873
0.0764067
0.0806015
0.0847216
0.0896148
0.0959768
0.103169
0.109514
0.112972
0.111752
0.104119
0.0885131
0.0629296
0.0227233
0.0114076
0.0274645
0.0381343
0.0465486
0.0536064
0.0597945
0.0655043
0.0710476
0.0765917
0.0819537
0.0869979
0.091714
0.0963993
0.101848
0.108611
0.116001
0.122384
0.125773
0.124444
0.116613
0.100439
0.0728903
0.0269149
0.0136309
0.0324856
0.0445674
0.0538357
0.0614347
0.0679844
0.0739878
0.0798421
0.0857319
0.0914401
0.0968175
0.101875
0.10696
0.112821
0.119889
0.127478
0.134052
0.137698
0.136732
0.129323
0.113519
0.0853676
0.0341162
0.0160995
0.037826
0.0513467
0.061447
0.0695267
0.0763476
0.0825331
0.0885742
0.0946731
0.100579
0.106144
0.111418
0.1168
0.122991
0.130322
0.138145
0.145062
0.149307
0.14916
0.142781
0.128527
0.102481
0.0491334
0.0189687
0.043619
0.0585669
0.0694586
0.0779477
0.0849414
0.0911909
0.0972913
0.103482
0.109468
0.115117
0.120533
0.126161
0.132644
0.140227
0.148326
0.155735
0.160855
0.161864
0.156948
0.145296
0.125112
0.0829722
0.00911613
0.0187321
0.0208428
0.0202362
0.0230602
0.0333483
0.0471686
0.055567
0.0538654
0.0472314
0.0418954
0.0390194
0.0381304
0.0377874
0.0362595
0.0312831
0.0246647
0.0168289
0.00713784
0.0198113
0.041437
0.0478817
0.0481752
0.054514
0.0744141
0.097293
0.110304
0.109915
0.100781
0.0917764
0.0868963
0.084817
0.0828535
0.0782218
0.0686892
0.054972
0.0390537
0.016292
0.0289735
0.0581722
0.067817
0.0699942
0.0774455
0.0978745
0.120693
0.134599
0.135984
0.12807
0.119001
0.113212
0.10979
0.106374
0.10008
0.0885737
0.0722657
0.0527921
0.0233362
0.0403345
0.0751286
0.087106
0.0903978
0.0974059
0.116265
0.137604
0.151336
0.154013
0.147569
0.138909
0.132825
0.128496
0.124064
0.116582
0.103592
0.0854024
0.063439
0.0291585
0.0547748
0.0932446
0.106652
0.110477
0.116287
0.1327
0.152151
0.165509
0.169198
0.163905
0.155744
0.149585
0.144516
0.13934
0.130972
0.116518
0.096474
0.0722971
0.0339829
0.0731417
0.112793
0.126355
0.130261
0.134891
0.14851
0.165745
0.178797
0.183462
0.17887
0.171078
0.165062
0.159186
0.153383
0.144385
0.128281
0.106145
0.0798345
0.0380602
0.0964711
0.133673
0.145776
0.149469
0.153449
0.164339
0.178917
0.191835
0.197692
0.193301
0.185369
0.179629
0.17312
0.16672
0.1574
0.139279
0.114649
0.0863117
0.0419535
0.12633
0.155122
0.164285
0.167923
0.171923
0.180437
0.191795
0.204727
0.212228
0.207518
0.198842
0.193008
0.186136
0.179553
0.170311
0.149551
0.122034
0.0918506
0.0462111
0.0227212
0.0519373
0.0693285
0.0816232
0.0908724
0.0982235
0.104638
0.110881
0.117084
0.123058
0.128739
0.134333
0.140323
0.147244
0.155228
0.163825
0.172151
0.178858
0.181899
0.179537
0.172187
0.161947
0.146875
0.0299311
0.0660528
0.0866637
0.100531
0.110337
0.117596
0.12359
0.129292
0.134849
0.140293
0.145741
0.151507
0.158029
0.16564
0.174345
0.183909
0.193874
0.203218
0.209163
0.208954
0.205123
0.201018
0.197469
0.0390142
0.0833891
0.107047
0.122026
0.131809
0.138338
0.143302
0.14797
0.152663
0.157611
0.163059
0.169293
0.17654
0.184874
0.19423
0.204537
0.215868
0.227996
0.237424
0.237594
0.234776
0.232081
0.230765
0.0500888
0.10446
0.130648
0.146076
0.155184
0.160386
0.163821
0.167163
0.171003
0.175759
0.181646
0.188704
0.196779
0.205661
0.215247
0.225703
0.237771
0.252579
0.26768
0.266322
0.263179
0.258862
0.254341
0.0638715
0.129501
0.15708
0.172164
0.180052
0.183564
0.1852
0.187131
0.190295
0.195337
0.20215
0.210265
0.219055
0.22814
0.23727
0.246595
0.257765
0.273107
0.282821
0.290838
0.291901
0.283757
0.27285
0.0825491
0.157627
0.184829
0.198659
0.204884
0.207215
0.207633
0.208254
0.210835
0.216683
0.224828
0.234005
0.243034
0.251725
0.259617
0.26569
0.271853
0.281316
0.290014
0.298599
0.307217
0.301022
0.289721
0.104138
0.184858
0.208845
0.220499
0.225399
0.228483
0.231282
0.231084
0.232608
0.239918
0.249687
0.259553
0.267208
0.273222
0.277503
0.279328
0.280801
0.285339
0.292896
0.303709
0.31557
0.314051
0.30299
0.124103
0.202634
0.224397
0.235922
0.241108
0.244407
0.249581
0.252876
0.254735
0.263844
0.27238
0.279508
0.283262
0.284762
0.285554
0.285642
0.286195
0.289124
0.29593
0.307623
0.320912
0.319251
0.307729
0.125406
0.210231
0.239069
0.254923
0.257579
0.257073
0.259837
0.265208
0.274008
0.281855
0.285992
0.287376
0.288007
0.288124
0.288214
0.288844
0.290307
0.291582
0.297244
0.308414
0.318596
0.316206
0.306294
0.120826
0.219912
0.259811
0.284712
0.27948
0.269686
0.269405
0.276377
0.291284
0.302541
0.299483
0.293651
0.290384
0.289863
0.290357
0.291471
0.291815
0.290405
0.294939
0.30557
0.312062
0.308518
0.298555
0.113596
0.225184
0.280032
0.297223
0.292722
0.281903
0.275922
0.280122
0.293114
0.311423
0.311415
0.298385
0.291159
0.289215
0.287318
0.284306
0.281607
0.281658
0.286217
0.293946
0.296827
0.292385
0.283492
0.107281
0.217659
0.276986
0.283532
0.281966
0.280714
0.275803
0.274508
0.279752
0.287248
0.288135
0.282185
0.277253
0.274503
0.271434
0.268433
0.267122
0.268182
0.271603
0.275243
0.275398
0.271342
0.2647
0.101256
0.208185
0.259235
0.264227
0.264982
0.264777
0.263138
0.261475
0.26204
0.263916
0.264041
0.261741
0.259034
0.256856
0.254989
0.253674
0.253366
0.254125
0.255495
0.256054
0.254508
0.250936
0.24614
0.100517
0.200129
0.234288
0.241383
0.24414
0.245121
0.24561
0.245838
0.246532
0.247578
0.247992
0.247131
0.245597
0.243973
0.242555
0.241473
0.240765
0.240289
0.239665
0.238259
0.235839
0.232805
0.229942
0.0962973
0.183223
0.209292
0.218285
0.222497
0.224996
0.2271
0.228994
0.23077
0.232564
0.233884
0.234187
0.233532
0.232284
0.230797
0.229279
0.22769
0.225969
0.223984
0.221628
0.219123
0.217084
0.216192
0.0859634
0.159988
0.184791
0.195351
0.201064
0.204915
0.208111
0.21109
0.213749
0.216204
0.218187
0.219261
0.219268
0.218365
0.216851
0.21498
0.212855
0.210515
0.208056
0.205693
0.203887
0.2032
0.204146
0.0728327
0.134224
0.160081
0.172378
0.179615
0.184595
0.188519
0.19193
0.195043
0.197773
0.200009
0.201446
0.201887
0.20137
0.2001
0.198322
0.196236
0.194041
0.19198
0.190388
0.189713
0.19044
0.192991
0.0610129
0.108983
0.135474
0.149468
0.158061
0.163976
0.168431
0.172026
0.175183
0.177919
0.180147
0.181703
0.182443
0.18236
0.181593
0.180355
0.178878
0.177418
0.176269
0.17578
0.176349
0.178377
0.182198
0.0498689
0.08867
0.113261
0.127885
0.137274
0.143793
0.14859
0.152296
0.155329
0.157978
0.160145
0.161759
0.162759
0.163148
0.163026
0.162567
0.161984
0.161525
0.16147
0.16213
0.163833
0.166895
0.171579
0.0397676
0.0733676
0.0951616
0.109207
0.118623
0.125298
0.130225
0.133984
0.136968
0.13946
0.141599
0.143303
0.144576
0.145445
0.145988
0.146339
0.146672
0.147195
0.148142
0.149766
0.152327
0.156075
0.161211
0.0313457
0.0618739
0.0810903
0.0940006
0.102951
0.109444
0.114321
0.118084
0.121078
0.123554
0.125698
0.127542
0.129095
0.130399
0.131518
0.132554
0.133639
0.134935
0.136625
0.138908
0.141992
0.14607
0.151306
0.0249193
0.0529574
0.0700897
0.0818815
0.0902693
0.0964886
0.101261
0.105029
0.108088
0.110656
0.112893
0.114915
0.116731
0.118387
0.11994
0.121467
0.123067
0.124862
0.126997
0.129628
0.132918
0.137027
0.142084
0.0203555
0.0458942
0.061323
0.0721916
0.0801223
0.0861343
0.0908533
0.094671
0.0978495
0.100575
0.102985
0.10519
0.107231
0.10915
0.110995
0.112826
0.114721
0.116776
0.119103
0.12183
0.12509
0.129012
0.133708
0.0172811
0.0403448
0.0543119
0.0644136
0.0719986
0.0778922
0.0826259
0.086544
0.0898771
0.0927862
0.0953877
0.0977722
0.0999978
0.102103
0.104129
0.106127
0.10816
0.110305
0.112655
0.115315
0.118396
0.122007
0.126245
0.0152621
0.0360698
0.0487685
0.0581952
0.0654886
0.071306
0.0760857
0.0801216
0.0836131
0.0866986
0.089477
0.0920224
0.0943933
0.0966272
0.0987618
0.100841
0.102917
0.105056
0.107336
0.109845
0.112678
0.115931
0.119687
0.0139145
0.0328223
0.0444444
0.0532599
0.0602721
0.0660079
0.0708218
0.0749571
0.0785825
0.0818154
0.0847392
0.0874157
0.0898985
0.092223
0.094423
0.0965366
0.0986099
0.100699
0.102871
0.105201
0.107774
0.110672
0.113971
0.0129666
0.0303614
0.0410908
0.0493542
0.0560808
0.0617073
0.0665195
0.0707161
0.0744364
0.0777783
0.0808117
0.0835875
0.0861551
0.0885447
0.0907862
0.0929131
0.0949653
0.0969915
0.0990502
0.101208
0.103539
0.106116
0.109011
0.0122556
0.0284777
0.0384738
0.0462457
0.0526867
0.0581758
0.0629481
0.067165
0.0709401
0.0743538
0.0774635
0.0803123
0.0829429
0.0853804
0.0876504
0.0897818
0.0918094
0.0937759
0.0957326
0.0977389
0.0998602
0.102164
0.104716
0.0116921
0.0270072
0.0364006
0.0437422
0.0499083
0.0552432
0.0599463
0.0641502
0.0679471
0.071402
0.0745604
0.0774633
0.0801411
0.0826148
0.0849058
0.0870388
0.0890441
0.0909593
0.0928301
0.0947097
0.0966572
0.0987345
0.101003
0.0112301
0.0258372
0.0347344
0.0417049
0.0476169
0.052794
0.0574114
0.0615804
0.0653761
0.0688506
0.0720408
0.0749829
0.0776963
0.0801977
0.0825047
0.0846381
0.0866244
0.0884968
0.0902965
0.0920718
0.0938769
0.0957688
0.0978049
0.0108496
0.0249025
0.0333924
0.0400481
0.0457334
0.0507601
0.0552874
0.0594111
0.063193
0.0666738
0.0698895
0.0728604
0.0756008
0.0781232
0.0804415
0.0825733
0.0845417
0.0863767
0.0881157
0.0898034
0.0914898
0.0932283
0.0950729
0.0105464
0.0241732
0.0323333
0.0387271
0.0442177
0.0491106
0.0535547
0.0576343
0.0614002
0.0648899
0.0681249
0.0711182
0.073879
0.0764158
0.0787395
0.080865
0.0828128
0.0846107
0.0862936
0.0879029
0.0894858
0.0910925
0.0927742
0.0103256
0.0236394
0.0315399
0.0377242
0.0430583
0.0478447
0.0522246
0.0562742
0.0600382
0.0635406
0.0667942
0.0698058
0.0725804
0.0751233
0.077443
0.079553
0.0814725
0.0832277
0.0848518
0.0863844
0.0878702
0.0893566
0.0908926
0.0101955
0.0232971
0.0310078
0.0370421
0.0422707
0.0469943
0.0513481
0.0553982
0.0591774
0.0627007
0.0659737
0.0689984
0.0717766
0.0743121
0.0766128
0.0786918
0.0805683
0.0822684
0.0838242
0.0852741
0.0866607
0.0880296
0.0894268
0.0101533
0.0231484
0.0307556
0.0367242
0.0419258
0.0466542
0.0510337
0.0551195
0.0589343
0.0624852
0.0657732
0.0687978
0.0715604
0.0740656
0.0763227
0.0783465
0.0801575
0.0817822
0.083253
0.0846072
0.0858859
0.087132
0.0883894
0.0101926
0.0232151
0.0308678
0.0369133
0.0422056
0.0470251
0.0514863
0.0556368
0.0594937
0.0630615
0.066341
0.0693336
0.072044
0.0744806
0.0766566
0.0785898
0.0803033
0.081825
0.0831874
0.084427
0.0855831
0.086696
0.0878066
0.010324
0.0236452
0.0316618
0.0380212
0.0435439
0.0485185
0.0530741
0.0572684
0.0611252
0.0646545
0.0678633
0.0707596
0.0733546
0.0756632
0.0777039
0.0794987
0.0810733
0.082457
0.0836822
0.084784
0.0857993
0.0867651
0.0877184
0.0106644
0.0250789
0.0340943
0.0410225
0.0467945
0.0518339
0.0563532
0.0604508
0.0641694
0.0675299
0.0705477
0.073239
0.0756226
0.0777198
0.0795539
0.0811504
0.0825367
0.0837423
0.0847982
0.0857371
0.0865921
0.0873962
0.0881812
0.0118323
0.0295195
0.0402177
0.0475446
0.0531535
0.0578365
0.0619518
0.0656434
0.0689648
0.0719388
0.074583
0.0769169
0.0789629
0.0807451
0.0822887
0.0836197
0.0847645
0.0857503
0.0866049
0.0873566
0.0880334
0.0886627
0.0892703
0.0164339
0.0407938
0.0524448
0.0589665
0.0634495
0.0670673
0.0702452
0.0731147
0.0757059
0.0780248
0.0800789
0.0818818
0.0834519
0.0848101
0.085978
0.0869775
0.0878304
0.0885586
0.0891841
0.0897287
0.0902138
0.0906597
0.0910853
0.0327554
0.0621988
0.0710094
0.0747583
0.0771597
0.0791575
0.0809967
0.0827161
0.0843016
0.0857363
0.0870135
0.088136
0.0891126
0.0899555
0.0906779
0.0912933
0.0918157
0.0922587
0.0926362
0.0929618
0.0932489
0.0935098
0.0937555
0.0858364
0.0921341
0.0919954
0.0920825
0.0924114
0.0928617
0.0933631
0.0938733
0.0943648
0.094821
0.0952339
0.0956008
0.0959224
0.0962012
0.0964406
0.0966446
0.0968174
0.0969632
0.0970868
0.0971926
0.0972851
0.0973683
0.0974457
0.112437
0.107305
0.111971
0.123381
0.196692
0.198316
0.200981
0.203565
0.2321
0.232979
0.231879
0.230257
0.253768
0.252108
0.249052
0.246409
0.268453
0.265429
0.262166
0.259144
0.283764
0.279294
0.274249
0.268815
0.295524
0.289617
0.282128
0.275114
0.298923
0.292268
0.284391
0.276795
0.296511
0.289152
0.281095
0.273468
0.288311
0.280938
0.273297
0.266206
0.274594
0.268221
0.26185
0.256138
0.257987
0.253402
0.249038
0.245288
0.24202
0.239431
0.237178
0.235416
0.228288
0.227504
0.227098
0.227047
0.216662
0.217358
0.218426
0.219737
0.206316
0.208146
0.210321
0.212658
0.196428
0.199065
0.202014
0.205077
0.186483
0.189636
0.193068
0.196593
0.176326
0.179746
0.183417
0.187172
0.166097
0.169587
0.173298
0.177095
0.15608
0.15948
0.163078
0.16677
0.146568
0.149759
0.153128
0.156598
0.13779
0.140697
0.143764
0.146936
0.129879
0.132468
0.135199
0.138037
0.122874
0.125144
0.12754
0.130039
0.116745
0.118718
0.120803
0.122984
0.111423
0.113135
0.114944
0.11684
0.106821
0.108311
0.109885
0.111537
0.102855
0.104161
0.105538
0.106986
0.0994504
0.100604
0.10182
0.103098
0.0965476
0.0975759
0.098657
0.0997932
0.0941044
0.0950263
0.0959933
0.0970088
0.092095
0.0929231
0.0937896
0.0946986
0.0905099
0.091251
0.0920247
0.0928354
0.089355
0.0900115
0.0906952
0.091411
0.0886517
0.0892225
0.0898158
0.0904366
0.0884375
0.08892
0.0894206
0.0899442
0.088768
0.0891592
0.0895643
0.0899882
0.08972
0.0900178
0.0903257
0.0906481
0.0913965
0.091601
0.091812
0.0920334
0.0939324
0.0940474
0.0941658
0.0942904
0.0975001
0.0975349
0.0975708
0.0976089
0.164444
0.18171
0.188699
0.194592
0.200276
0.205684
0.211201
0.223656
0.234742
0.229568
0.219128
0.212177
0.204446
0.197933
0.188268
0.163214
0.131686
0.0985597
0.0509878
0.207691
0.210486
0.215289
0.223756
0.23135
0.232698
0.232481
0.240568
0.256585
0.257718
0.244623
0.234053
0.223356
0.21342
0.196903
0.1677
0.132844
0.096998
0.0451429
0.228619
0.228917
0.232859
0.240166
0.245214
0.245227
0.244917
0.250031
0.262741
0.270943
0.26779
0.253702
0.236587
0.216377
0.194207
0.162967
0.125703
0.0885662
0.0404379
0.242937
0.24114
0.242954
0.24675
0.249462
0.250456
0.252277
0.256256
0.26172
0.26784
0.272569
0.267208
0.243648
0.216441
0.191708
0.16122
0.125299
0.0871137
0.0389305
0.253803
0.249336
0.248759
0.250211
0.252121
0.254824
0.258879
0.258587
0.259648
0.262341
0.263036
0.261839
0.244447
0.219912
0.196662
0.16946
0.135755
0.0968191
0.0443009
0.260971
0.254798
0.25272
0.253089
0.255392
0.257034
0.257252
0.256685
0.25659
0.256737
0.256075
0.253886
0.243159
0.22534
0.206413
0.183236
0.151427
0.11123
0.0513308
0.265368
0.258128
0.255451
0.255326
0.255278
0.254446
0.254279
0.253868
0.252757
0.251935
0.251405
0.250263
0.243841
0.230361
0.215577
0.196279
0.167422
0.127255
0.0591012
0.266031
0.257566
0.253732
0.252478
0.251904
0.25133
0.250821
0.250413
0.249326
0.247935
0.246984
0.246338
0.242684
0.232914
0.220718
0.205481
0.179071
0.143123
0.0677013
0.26267
0.253614
0.248847
0.24709
0.246766
0.246833
0.246581
0.24656
0.246152
0.244273
0.241971
0.240377
0.237238
0.229964
0.219953
0.207248
0.184286
0.148893
0.0751697
0.256426
0.248087
0.243344
0.241168
0.240442
0.239981
0.239427
0.238665
0.237848
0.236299
0.2342
0.232484
0.229466
0.223274
0.214862
0.20404
0.182978
0.14549
0.0706196
0.248542
0.242163
0.238374
0.236203
0.234847
0.233479
0.231693
0.22957
0.227402
0.225436
0.223883
0.222398
0.219254
0.213648
0.20586
0.194806
0.173171
0.13384
0.0595168
0.240489
0.236615
0.234206
0.232375
0.230519
0.228176
0.225165
0.221719
0.218231
0.215154
0.212648
0.210193
0.206553
0.200692
0.192209
0.179324
0.155382
0.115143
0.0464894
0.233342
0.231918
0.23093
0.229601
0.227436
0.224195
0.219945
0.215083
0.210085
0.205321
0.200868
0.19626
0.190707
0.18345
0.173568
0.158409
0.132764
0.093905
0.0368862
0.227313
0.228056
0.228417
0.227729
0.225541
0.221697
0.216387
0.210085
0.203355
0.196545
0.189724
0.182695
0.174877
0.165546
0.153489
0.136409
0.111467
0.0775786
0.032947
0.221908
0.22453
0.226191
0.226322
0.224483
0.220518
0.214614
0.207233
0.198957
0.19025
0.181302
0.172069
0.162169
0.150973
0.137479
0.120344
0.0987999
0.0711269
0.0338029
0.216339
0.22059
0.223522
0.224641
0.223514
0.219937
0.214036
0.206212
0.197037
0.187111
0.176775
0.166115
0.154993
0.143082
0.129866
0.114686
0.0968576
0.0730451
0.036741
0.209909
0.21554
0.219679
0.221881
0.22172
0.218939
0.213584
0.20599
0.196705
0.186414
0.1756
0.164482
0.153149
0.141569
0.129527
0.116527
0.101166
0.0789605
0.0400299
0.202233
0.208959
0.214171
0.217445
0.218357
0.216619
0.212218
0.2054
0.196669
0.186711
0.176111
0.165219
0.154261
0.143353
0.132407
0.120764
0.106754
0.0854722
0.0429619
0.19329
0.200777
0.206852
0.21109
0.213057
0.212454
0.209224
0.203531
0.195802
0.18666
0.176712
0.166402
0.156035
0.145777
0.135527
0.124584
0.111178
0.0904845
0.045261
0.183359
0.191226
0.197896
0.202913
0.20582
0.206339
0.204344
0.199931
0.193439
0.185401
0.176389
0.166878
0.157216
0.147575
0.1378
0.127197
0.114068
0.0933901
0.0468992
0.172921
0.180812
0.187746
0.193276
0.196953
0.198488
0.197686
0.194573
0.189405
0.182618
0.174717
0.166167
0.157322
0.148343
0.139066
0.128809
0.115818
0.0950049
0.0479709
0.162435
0.170064
0.176981
0.182746
0.186978
0.189335
0.189593
0.187712
0.183859
0.178378
0.171704
0.164262
0.156377
0.148173
0.139465
0.129564
0.116749
0.0959208
0.0486925
0.152317
0.159476
0.166148
0.171933
0.176487
0.179457
0.180595
0.179811
0.177196
0.173006
0.167598
0.161334
0.154491
0.147151
0.139093
0.129621
0.117071
0.0964472
0.0490551
0.142886
0.149445
0.155709
0.161345
0.166021
0.169399
0.171224
0.17137
0.169867
0.166891
0.162716
0.157634
0.151858
0.145425
0.138075
0.129099
0.116871
0.0965613
0.0491899
0.134338
0.140243
0.14601
0.15137
0.156008
0.159616
0.161944
0.162844
0.162297
0.160411
0.157381
0.153422
0.148684
0.143154
0.136527
0.128079
0.116173
0.0961093
0.0491682
0.126757
0.132015
0.137257
0.142261
0.146747
0.150442
0.153109
0.15459
0.154832
0.153884
0.151871
0.148933
0.145155
0.140475
0.134548
0.126619
0.115026
0.0951129
0.0489017
0.120138
0.124794
0.129524
0.134139
0.138405
0.14208
0.144951
0.146858
0.147724
0.147552
0.146403
0.144353
0.141423
0.1375
0.132216
0.124778
0.113515
0.0937872
0.0482554
0.114421
0.118543
0.122798
0.127027
0.131037
0.134623
0.137591
0.139791
0.141128
0.14157
0.141128
0.139817
0.137603
0.134327
0.129606
0.122618
0.111702
0.092254
0.0472331
0.10952
0.11318
0.117008
0.120876
0.124622
0.128073
0.131062
0.133444
0.135119
0.136026
0.136136
0.135414
0.13378
0.131035
0.126782
0.12019
0.109608
0.0905214
0.0460741
0.105338
0.108605
0.112059
0.115596
0.119084
0.122378
0.125331
0.12781
0.129709
0.130949
0.131469
0.131196
0.130007
0.127677
0.123786
0.117541
0.107267
0.0886265
0.0449721
0.101788
0.104718
0.107846
0.111084
0.114328
0.117452
0.120328
0.122836
0.124868
0.126331
0.127138
0.127186
0.126324
0.124301
0.120693
0.114729
0.104762
0.0866471
0.0438748
0.0987926
0.101432
0.104269
0.107238
0.110248
0.113196
0.115968
0.118453
0.120544
0.122138
0.12313
0.123393
0.122753
0.120946
0.117549
0.111813
0.102186
0.084625
0.0426616
0.0962959
0.0986744
0.101248
0.103965
0.106752
0.109517
0.112162
0.114583
0.116675
0.118328
0.119422
0.119813
0.119312
0.117646
0.114403
0.108871
0.0995731
0.0825424
0.0412242
0.0942602
0.0963959
0.0987185
0.101195
0.103759
0.106333
0.108831
0.111155
0.113202
0.114856
0.115987
0.116438
0.116009
0.114426
0.111284
0.105904
0.0968707
0.0803272
0.0395524
0.0926692
0.0945687
0.0966468
0.0988804
0.101215
0.103586
0.105915
0.108113
0.110076
0.111685
0.112801
0.113258
0.112849
0.111299
0.10821
0.102921
0.0940689
0.0779057
0.0381739
0.0915283
0.0931896
0.0950189
0.0970003
0.0990941
0.101243
0.10338
0.105422
0.107268
0.108795
0.109855
0.110274
0.109841
0.108281
0.105203
0.0999568
0.091222
0.0754241
0.0371156
0.090866
0.0922819
0.0938523
0.0955669
0.0974007
0.099304
0.10122
0.103077
0.104776
0.106188
0.107159
0.107505
0.107013
0.105408
0.102308
0.0970779
0.0884404
0.0729971
0.0360967
0.0907356
0.0918966
0.0931959
0.0946283
0.0961766
0.0978034
0.0994637
0.101102
0.102623
0.103893
0.104747
0.104995
0.104419
0.102748
0.0996065
0.0943811
0.0858457
0.0707591
0.0351499
0.0912181
0.0921158
0.0931318
0.0942647
0.0955007
0.0968129
0.0981688
0.0995467
0.100859
0.101963
0.102681
0.102816
0.102143
0.100393
0.0972025
0.091982
0.0835624
0.0688404
0.0343847
0.0924264
0.0930563
0.0937801
0.0945983
0.0954965
0.0964432
0.0974077
0.098469
0.0995424
0.100464
0.10104
0.101058
0.100287
0.0984597
0.0952199
0.0900071
0.081715
0.0673723
0.0339406
0.0945131
0.0948788
0.0953079
0.0958019
0.0963415
0.0968587
0.097221
0.0978885
0.0987077
0.0994545
0.0999006
0.0998168
0.0989634
0.0970692
0.0937856
0.0885776
0.0804066
0.0664525
0.0339673
0.0976782
0.0977961
0.0979389
0.0981085
0.0982855
0.0983435
0.0974795
0.0977035
0.0983191
0.0989482
0.0993153
0.0991719
0.0982693
0.0963328
0.093016
0.0878004
0.0797055
0.0660747
0.034511
)
;

boundaryField
{
    leftWall
    {
        type            kqRWallFunction;
        value           nonuniform List<scalar> 
50
(
0.00255621
0.0050483
0.00721073
0.00930225
0.0114076
0.0136309
0.0160995
0.0189687
0.0227212
0.0299311
0.0390142
0.0500888
0.0638715
0.0825491
0.104138
0.124103
0.125406
0.120826
0.113596
0.107281
0.101256
0.100517
0.0962973
0.0859634
0.0728327
0.0610129
0.0498689
0.0397676
0.0313457
0.0249193
0.0203555
0.0172811
0.0152621
0.0139145
0.0129666
0.0122556
0.0116921
0.0112301
0.0108496
0.0105464
0.0103256
0.0101955
0.0101533
0.0101926
0.010324
0.0106644
0.0118323
0.0164339
0.0327554
0.0858364
)
;
    }
    rightWall
    {
        type            kqRWallFunction;
        value           nonuniform List<scalar> 
50
(
0.00713784
0.016292
0.0233362
0.0291585
0.0339829
0.0380602
0.0419535
0.0462111
0.0509878
0.0451429
0.0404379
0.0389305
0.0443009
0.0513308
0.0591012
0.0677013
0.0751697
0.0706196
0.0595168
0.0464894
0.0368862
0.032947
0.0338029
0.036741
0.0400299
0.0429619
0.045261
0.0468992
0.0479709
0.0486925
0.0490551
0.0491899
0.0491682
0.0489017
0.0482554
0.0472331
0.0460741
0.0449721
0.0438748
0.0426616
0.0412242
0.0395524
0.0381739
0.0371156
0.0360967
0.0351499
0.0343847
0.0339406
0.0339673
0.034511
)
;
    }
    lowerWall
    {
        type            kqRWallFunction;
        value           nonuniform List<scalar> 
62
(
0.00255621
0.00554732
0.00843473
0.011006
0.0133124
0.0153755
0.0171972
0.0187637
0.020081
0.0212973
0.0222913
0.0230685
0.0236889
0.0246799
0.0267379
0.0298574
0.0331261
0.0363158
0.037104
0.0347152
0.0287413
0.0194403
0.00873576
0.00873576
0.0165496
0.0202068
0.0227233
0.0269149
0.0341162
0.0491334
0.0829722
0.112437
0.107305
0.111971
0.123381
0.00911613
0.0198113
0.0289735
0.0403345
0.0547748
0.0731417
0.0964711
0.12633
0.00911613
0.0187321
0.0208428
0.0202362
0.0230602
0.0333483
0.0471686
0.055567
0.0538654
0.0472314
0.0418954
0.0390194
0.0381304
0.0377874
0.0362595
0.0312831
0.0246647
0.0168289
0.00713784
)
;
    }
    atmosphere
    {
        type            inletOutlet;
        inletValue      uniform 0.1;
        value           nonuniform List<scalar> 
46
(
0.1
0.1
0.1
0.1
0.1
0.1
0.1
0.1
0.1
0.1
0.1
0.1
0.1
0.1
0.1
0.1
0.1
0.1
0.1
0.1
0.1
0.1
0.1
0.1
0.1
0.1
0.1
0.1
0.1
0.1
0.1
0.1
0.1
0.0974795
0.0977035
0.0983191
0.0989482
0.0993153
0.0991719
0.0982693
0.0963328
0.093016
0.0878004
0.0797055
0.0660747
0.034511
)
;
    }
    defaultFaces
    {
        type            empty;
    }
}


// ************************************************************************* //
