/*--------------------------------*- C++ -*----------------------------------*\
| =========                 |                                                 |
| \\      /  F ield         | OpenFOAM: The Open Source CFD Toolbox           |
|  \\    /   O peration     | Version:  2.3.0                                 |
|   \\  /    A nd           | Web:      www.OpenFOAM.org                      |
|    \\/     M anipulation  |                                                 |
\*---------------------------------------------------------------------------*/
FoamFile
{
    version     2.0;
    format      ascii;
    class       volScalarField;
    location    "1.3";
    object      nut;
}
// * * * * * * * * * * * * * * * * * * * * * * * * * * * * * * * * * * * * * //

dimensions      [0 2 -1 0 0 0 0];

internalField   nonuniform List<scalar> 
2268
(
4.61431e-05
5.1585e-05
6.39315e-05
7.27063e-05
7.93318e-05
8.45235e-05
8.86866e-05
9.20427e-05
9.45883e-05
9.69527e-05
9.8948e-05
0.000100529
0.000101768
0.000103538
0.000107067
0.00011251
0.000118292
0.000123873
0.000125398
0.000121475
0.000110918
9.2343e-05
6.28176e-05
0.000101967
0.000433537
0.000638134
0.000755801
0.000826047
0.000869418
0.000897231
0.000915692
0.00092617
0.000922462
0.000913526
0.000905575
0.000898665
0.000913223
0.000964287
0.00104818
0.00114128
0.0011741
0.00116124
0.00108763
0.000936833
0.000644102
0.000183132
0.000122393
0.000706127
0.00114555
0.00142355
0.00159767
0.00170577
0.00177123
0.001808
0.00182311
0.00181215
0.00178785
0.00176318
0.00175178
0.00178624
0.00188934
0.00204359
0.00219484
0.00225389
0.00220887
0.00202811
0.00168146
0.00110699
0.000202397
0.000139456
0.00089145
0.00149553
0.00190164
0.00217136
0.00234837
0.00246098
0.00252711
0.00255742
0.0025523
0.00252626
0.00249871
0.0024957
0.0025557
0.00269906
0.00289559
0.00307392
0.00313941
0.00305104
0.00275729
0.00221592
0.0013881
0.00021263
0.00015492
0.00103495
0.00175804
0.0022608
0.00260804
0.00284606
0.00300516
0.00310492
0.00315784
0.0031681
0.00315185
0.00313353
0.00314724
0.00323279
0.00340426
0.00362332
0.00381133
0.00387089
0.00373648
0.00333473
0.00260662
0.00153721
0.00022849
0.000169921
0.0011523
0.00197001
0.00255025
0.00296075
0.00325031
0.00345099
0.00358354
0.00366169
0.00369234
0.00369311
0.00369175
0.00372642
0.00383513
0.00402541
0.00425508
0.00444467
0.00449538
0.00432281
0.0038319
0.00293917
0.00164675
0.000253623
0.000185305
0.00125172
0.0021516
0.00279878
0.0032629
0.00359589
0.0038322
0.00399423
0.00409723
0.00415009
0.00417163
0.00419148
0.00424875
0.00437776
0.00458058
0.00481456
0.00500336
0.00504948
0.00485591
0.00431012
0.0032975
0.00179917
0.000296772
0.000201727
0.00134092
0.0023166
0.00302457
0.00353554
0.00390518
0.0041712
0.00435834
0.00448432
0.00455932
0.00460316
0.00464618
0.00472621
0.00487292
0.00508438
0.00531979
0.00550855
0.00555814
0.00536617
0.00481397
0.00376693
0.00211524
0.000379397
6.30931e-05
9.66706e-05
0.000104184
9.78777e-05
9.6365e-05
0.000110227
0.000132779
0.000148933
0.000150027
0.000142061
0.000134122
0.000129028
0.000127317
0.000126846
0.000125618
0.000117581
0.000104555
8.63753e-05
7.8926e-05
0.000224462
0.000666424
0.000851008
0.00079886
0.000724059
0.000899705
0.00118855
0.00134219
0.00136651
0.00127442
0.00117005
0.0011539
0.0011819
0.00119999
0.00117231
0.00107827
0.000884186
0.000650232
0.000201467
0.000274023
0.000999694
0.00143329
0.00152113
0.00149091
0.00180825
0.0023024
0.00259834
0.0026531
0.00250475
0.00232069
0.00226974
0.00229236
0.00229813
0.00221989
0.00201574
0.00165381
0.00116441
0.000240934
0.000323913
0.00124035
0.00190801
0.00218046
0.00226934
0.00268433
0.00327743
0.00365734
0.00374028
0.00357947
0.0033508
0.00325888
0.0032421
0.00320055
0.00305132
0.00274552
0.00225203
0.00154284
0.000268244
0.000375889
0.00146801
0.00237349
0.00282428
0.0030389
0.00350764
0.004128
0.00454523
0.00465215
0.00450246
0.00425497
0.0041223
0.00404661
0.00393537
0.00370554
0.003306
0.00270276
0.00181208
0.000287952
0.000431018
0.0017239
0.00288042
0.00348238
0.00379457
0.00427655
0.00487621
0.00529787
0.00542258
0.00529101
0.00504076
0.00487084
0.00472675
0.00453435
0.00422041
0.0037327
0.00303347
0.00199684
0.000302509
0.000490788
0.00205796
0.00346803
0.0041689
0.0045337
0.00499445
0.00553946
0.00594431
0.00608044
0.00596435
0.00571697
0.00551221
0.00529813
0.00502036
0.00462323
0.00405135
0.00326475
0.00211473
0.000314585
0.000557441
0.00257512
0.00416731
0.00488077
0.0052494
0.00566446
0.00613315
0.00650638
0.00664908
0.0065416
0.00629467
0.00605295
0.00577075
0.00540985
0.00493272
0.00427964
0.00341106
0.00217936
0.000327507
0.000221122
0.00146781
0.00255554
0.00335134
0.00392777
0.00434729
0.00465404
0.00487763
0.00503563
0.00514358
0.00522299
0.0053037
0.00541884
0.00559007
0.00581126
0.0060471
0.00623772
0.00630325
0.00614888
0.00567075
0.00478781
0.00350665
0.00195278
0.000253895
0.00165222
0.00289286
0.00379706
0.00444439
0.0049098
0.00524889
0.00549939
0.00568273
0.00582017
0.00593547
0.00605625
0.00620859
0.00640601
0.00664037
0.00688467
0.00709321
0.00720707
0.0071588
0.00688296
0.0063572
0.00560867
0.00465913
0.000288934
0.001891
0.00329495
0.00429607
0.00499525
0.00548462
0.00583473
0.00609479
0.00629285
0.00645363
0.00660026
0.00675499
0.00693554
0.00714939
0.00738973
0.00763632
0.00785603
0.0080104
0.00805737
0.00795338
0.00771601
0.00737197
0.00694015
0.000325909
0.00220189
0.0037752
0.00486133
0.00559648
0.00609212
0.00643642
0.00669267
0.00689597
0.00707266
0.00724203
0.00741912
0.00761417
0.00783161
0.00806836
0.00831078
0.00853409
0.00871497
0.00883455
0.00884441
0.00879259
0.00868105
0.00852416
0.000367364
0.00257233
0.00430727
0.00547177
0.00623762
0.00673078
0.00705921
0.00730197
0.00750176
0.00768519
0.00786528
0.0080501
0.0082449
0.00845394
0.0086784
0.00891032
0.00913097
0.00932466
0.00944256
0.00955047
0.00961241
0.00961026
0.00958365
0.000415069
0.0029213
0.00483261
0.00607803
0.00687432
0.00737493
0.00769239
0.0079153
0.00810301
0.00828401
0.00846359
0.00864406
0.0088274
0.00901961
0.00922546
0.00943738
0.00963775
0.00980909
0.00993159
0.0100566
0.0101966
0.0102608
0.0103078
0.000458256
0.00321746
0.00528466
0.00661771
0.00745822
0.00798427
0.00831088
0.00851299
0.00868103
0.00885537
0.00902965
0.00919983
0.00936295
0.00952989
0.00971021
0.00989461
0.0100658
0.0102119
0.0103333
0.0104717
0.0106429
0.0107652
0.0108372
0.000481683
0.00330806
0.0055517
0.00701946
0.00793208
0.00849055
0.00884244
0.00905539
0.0092084
0.00937871
0.00953562
0.0096838
0.00982142
0.00996448
0.0101233
0.0102854
0.0104353
0.0105589
0.0106702
0.0108107
0.0109934
0.0111332
0.0112082
0.000475642
0.00333129
0.00572156
0.00733146
0.00829713
0.00886603
0.00921473
0.00944336
0.00963748
0.00980056
0.00992776
0.0100454
0.0101669
0.0103002
0.0104469
0.0105957
0.0107288
0.0108268
0.0109218
0.0110618
0.0112345
0.0113745
0.0114483
0.000460212
0.00328804
0.00581065
0.00759111
0.00857944
0.00912184
0.00946529
0.00970303
0.00993924
0.0101232
0.0102046
0.0102875
0.0103967
0.0105302
0.0106722
0.0108083
0.0109191
0.0109885
0.0110731
0.0112184
0.0113775
0.0115007
0.011554
0.000446209
0.00311698
0.00576694
0.00754468
0.00864159
0.0092548
0.00959007
0.00981716
0.0100308
0.0102598
0.0103596
0.0104166
0.0105152
0.0106442
0.010769
0.0108742
0.0109531
0.0110254
0.0111178
0.0112548
0.0113931
0.0114957
0.0115365
0.000432542
0.00288382
0.00550824
0.00725018
0.00842631
0.00916504
0.00955761
0.00978988
0.00998305
0.0101661
0.0102978
0.0103931
0.0104968
0.0106121
0.0107204
0.0108118
0.010894
0.0109784
0.0110779
0.011196
0.011312
0.0114012
0.0114368
0.000420303
0.00279332
0.00527529
0.00692601
0.00810025
0.00886525
0.00932192
0.00960178
0.00980907
0.00998781
0.0101369
0.0102619
0.0103777
0.0104906
0.0105975
0.0106961
0.0107903
0.0108855
0.0109865
0.0110912
0.01119
0.0112654
0.0112916
0.000427813
0.0029489
0.00503844
0.00656764
0.00769007
0.00845246
0.00895175
0.00928609
0.00953559
0.00974144
0.0099154
0.0100629
0.0101935
0.0103139
0.010427
0.0105345
0.0106386
0.0107414
0.010844
0.0109439
0.0110343
0.0111011
0.0111233
0.000429942
0.00281925
0.0047045
0.00613411
0.00720186
0.00795958
0.00848924
0.00886901
0.0091597
0.0093989
0.0096015
0.00977421
0.00992447
0.0100595
0.0101849
0.0103044
0.0104197
0.0105326
0.0106433
0.0107495
0.0108448
0.0109164
0.01095
0.000412632
0.00251424
0.00425055
0.00560295
0.00663679
0.00739817
0.00795392
0.00837148
0.00869788
0.00896747
0.00919694
0.00939443
0.00956676
0.00972099
0.00986357
0.00999937
0.0101315
0.010262
0.0103914
0.0105169
0.0106316
0.0107243
0.010784
0.000377243
0.00208867
0.00368785
0.00498186
0.00600262
0.00677913
0.00736328
0.00781198
0.0081701
0.0084665
0.00872021
0.00894121
0.00913675
0.00931377
0.00947884
0.00963756
0.00979416
0.0099514
0.0101097
0.0102658
0.0104122
0.0105376
0.0106315
0.000346219
0.00164265
0.00306843
0.00430475
0.0053208
0.00612001
0.00673722
0.00721655
0.00760287
0.0079248
0.00820221
0.00844722
0.00866813
0.00887203
0.00906546
0.00925415
0.00944273
0.00963411
0.00982828
0.0100213
0.0102044
0.010366
0.0104952
0.000314919
0.00133954
0.00254266
0.00367674
0.00466244
0.00546997
0.00611061
0.00661795
0.0070304
0.0073794
0.00768376
0.00795584
0.00820564
0.0084408
0.00866759
0.00889138
0.00911639
0.009345
0.00957621
0.00980532
0.0100226
0.0102167
0.0103767
0.00028261
0.00116384
0.00218215
0.003191
0.00411183
0.00489964
0.00554688
0.00607314
0.00650863
0.00688187
0.00721307
0.00751462
0.0077965
0.00806589
0.00832837
0.00858842
0.00884928
0.00911227
0.00937561
0.0096339
0.00987789
0.0100964
0.0102789
0.000251313
0.00107661
0.00197154
0.00286834
0.00371072
0.00445761
0.00509392
0.00562847
0.00608257
0.0064794
0.00683769
0.00716935
0.00748332
0.00778588
0.00808161
0.00837389
0.00866484
0.00895481
0.00924147
0.00951928
0.00977959
0.010012
0.0102067
0.000223951
0.00104586
0.00187118
0.00268656
0.00345973
0.00416169
0.00477891
0.00531491
0.00578383
0.0062029
0.00658725
0.00694741
0.00729061
0.00762191
0.00794472
0.00826138
0.00857312
0.00887965
0.00917847
0.00946443
0.0097298
0.00996538
0.0101623
0.000202195
0.00105175
0.00184832
0.00261397
0.00333801
0.00400433
0.00460462
0.00514098
0.00562282
0.00606214
0.00647009
0.00685473
0.00722161
0.00757442
0.00791562
0.00824678
0.00856857
0.0088805
0.0091803
0.00946358
0.00972382
0.00995323
0.0101442
0.00018612
0.00108125
0.00188024
0.00262317
0.00331944
0.0039645
0.00455551
0.00509484
0.00558895
0.00604594
0.00647339
0.00687701
0.00726048
0.00762651
0.00797683
0.00831261
0.00863438
0.00894174
0.00923298
0.00950469
0.00975171
0.00996777
0.0101465
0.00017477
0.00112169
0.00194785
0.00269048
0.00337784
0.00401559
0.0046057
0.00515129
0.00565711
0.00612853
0.00657054
0.00698691
0.00737985
0.00775122
0.00810243
0.00843452
0.00874811
0.00904319
0.00931872
0.00957238
0.00980046
0.0099982
0.0101606
0.000166771
0.0011608
0.00203198
0.00279276
0.00348674
0.00412866
0.0047247
0.00527903
0.00579554
0.00627796
0.00672958
0.00715289
0.00754898
0.0079192
0.00826486
0.00858706
0.00888668
0.00916417
0.00941927
0.00965076
0.0098563
0.0100327
0.0101763
0.000160907
0.00119107
0.00211568
0.0029079
0.00362036
0.0042751
0.00488202
0.0054466
0.00597259
0.00646293
0.00691996
0.00734546
0.00773969
0.00810395
0.00843953
0.0087477
0.00902968
0.00928641
0.00951842
0.00972551
0.00990666
0.0100601
0.0101837
0.000156369
0.0012113
0.00218822
0.0030186
0.00375704
0.00443032
0.00505135
0.005627
0.00616138
0.00665724
0.00711654
0.00754066
0.00792952
0.00828455
0.00860716
0.00889885
0.00916119
0.00939566
0.00960347
0.00978541
0.00994164
0.0100717
0.0101748
0.000152691
0.00122384
0.00224599
0.00311492
0.00388224
0.00457678
0.00521349
0.00580043
0.00634228
0.00684194
0.0073015
0.00772156
0.00810274
0.00844652
0.00875452
0.00902851
0.00927044
0.0094823
0.00966597
0.00982308
0.00995483
0.0100619
0.0101447
0.000149627
0.00123152
0.00229
0.0031936
0.00398889
0.00470478
0.00535719
0.00595501
0.00650344
0.00700568
0.00746383
0.00787819
0.00825024
0.00858161
0.00887416
0.00913004
0.0093516
0.00954133
0.00970172
0.00983512
0.00994359
0.0100288
0.0100921
0.000147069
0.00123642
0.00232296
0.00325556
0.00407563
0.00481115
0.0054782
0.00608605
0.00664019
0.00714413
0.00759913
0.00800672
0.00836864
0.00868684
0.00896357
0.0092014
0.00940314
0.00957178
0.00971034
0.00982176
0.00990877
0.00997379
0.0100189
0.00014501
0.00123997
0.00234784
0.00330374
0.0041448
0.00489766
0.00557799
0.00619493
0.00675398
0.00725787
0.00770865
0.00810834
0.0084591
0.00876339
0.00902401
0.00924405
0.00942682
0.00957577
0.00969438
0.00978604
0.00985396
0.00990108
0.00993004
0.000143544
0.00124332
0.00236756
0.00334236
0.00420153
0.00497018
0.005663
0.0062883
0.00685056
0.00735285
0.00779773
0.00818776
0.00852584
0.00881516
0.00905922
0.00926172
0.00942649
0.00955739
0.00965825
0.00973277
0.00978442
0.00981645
0.00983176
0.000142771
0.00124755
0.00238564
0.00337768
0.00425471
0.00503952
0.00574464
0.00637686
0.00694034
0.00743839
0.00787431
0.00825175
0.0085747
0.00884735
0.00907404
0.00925912
0.00940689
0.00952152
0.00960704
0.00966729
0.00970584
0.00972598
0.00973069
0.000142592
0.00125408
0.00240782
0.00342069
0.00431951
0.00512287
0.00584024
0.00647696
0.0070373
0.00752577
0.00794739
0.00830754
0.00861169
0.00886524
0.00907336
0.00924095
0.00937265
0.00947279
0.00954545
0.0095944
0.00962315
0.00963484
0.00963235
0.00014301
0.00126682
0.00244774
0.00349445
0.00442433
0.00524918
0.00597556
0.00660927
0.00715702
0.00762642
0.00802537
0.00836155
0.00864209
0.00887345
0.00906145
0.00921128
0.0093277
0.00941498
0.00947708
0.00951756
0.00953968
0.00954635
0.00954014
0.000144318
0.00129931
0.0025414
0.00364845
0.00461959
0.00546115
0.00618253
0.00679574
0.00731393
0.00774983
0.00811488
0.00841892
0.00867029
0.00887602
0.00904208
0.00917364
0.00927523
0.00935091
0.00940429
0.00943863
0.00945685
0.0094615
0.00945478
0.000148148
0.00139361
0.00276933
0.00396888
0.00497553
0.00580708
0.00649073
0.00705338
0.00751789
0.00790239
0.00822086
0.00848411
0.00870059
0.00887708
0.00901915
0.00913148
0.00921817
0.00928278
0.00932853
0.00935824
0.00937442
0.00937923
0.00937448
0.00016105
0.00163244
0.00324035
0.00454482
0.00554808
0.00631589
0.00691332
0.00738832
0.00777295
0.00808816
0.00834799
0.00856228
0.00873834
0.00888184
0.0089974
0.00908892
0.00915978
0.00921295
0.0092511
0.00927657
0.00929141
0.00929738
0.00929591
0.000198938
0.00203882
0.00398548
0.00539586
0.00633756
0.00697842
0.00744123
0.00779578
0.00807892
0.00831041
0.0085016
0.00865975
0.00879006
0.00889655
0.00898255
0.00905093
0.00910419
0.00914457
0.0091741
0.00919455
0.00920749
0.00921422
0.00921582
0.000274334
0.00255538
0.00503165
0.00652337
0.00731231
0.00775886
0.00804904
0.00826219
0.00843111
0.00856993
0.00868552
0.00878186
0.00886171
0.00892729
0.00898051
0.00902305
0.00905643
0.00908205
0.00910118
0.00911494
0.00912433
0.00913018
0.00913318
0.000418125
0.00371618
0.00688332
0.00804288
0.00843517
0.00860112
0.00869528
0.00876209
0.00881537
0.00885989
0.00889755
0.00892935
0.008956
0.00897808
0.00899613
0.00901068
0.0090222
0.00903116
0.00903798
0.00904306
0.00904673
0.00904929
0.00905098
0.000463828
0.000455404
0.000468685
0.000493813
0.00387547
0.00379854
0.00385674
0.00403047
0.00671897
0.00669521
0.00674546
0.00686472
0.00849101
0.00849875
0.00852704
0.00857671
0.00960408
0.00962091
0.00963375
0.00964702
0.0103415
0.0103551
0.0103545
0.0103402
0.0108611
0.0108618
0.01084
0.0108072
0.0112144
0.0112004
0.0111642
0.0111138
0.0114336
0.0114036
0.0113521
0.0112855
0.0115239
0.0114834
0.0114214
0.0113432
0.0115028
0.0114579
0.0113914
0.0113086
0.0114016
0.0113564
0.0112916
0.0112113
0.0112563
0.0112149
0.011157
0.0110853
0.0110957
0.0110631
0.0110173
0.0109596
0.0109392
0.0109206
0.0108911
0.0108509
0.0107968
0.0107954
0.0107842
0.0107627
0.0106708
0.0106872
0.0106939
0.0106901
0.0105598
0.0105923
0.0106147
0.0106263
0.0104625
0.0105081
0.0105431
0.0105667
0.0103798
0.0104343
0.0104777
0.0105096
0.0103156
0.0103747
0.0104223
0.0104581
0.0102727
0.0103325
0.0103806
0.0104171
0.0102508
0.0103082
0.0103542
0.0103888
0.0102458
0.0102987
0.0103407
0.0103719
0.0102502
0.0102974
0.0103345
0.0103615
0.0102548
0.0102957
0.0103273
0.0103499
0.0102504
0.0102846
0.0103107
0.0103287
0.0102294
0.0102567
0.0102771
0.0102906
0.0101871
0.0102076
0.0102223
0.0102311
0.0101226
0.0101363
0.0101451
0.0101493
0.0100382
0.0100454
0.0100486
0.0100479
0.00993906
0.00994026
0.00993819
0.00993305
0.00983205
0.00982815
0.0098215
0.00981235
0.00972422
0.00971639
0.00970621
0.00969388
0.00962144
0.00961116
0.00959876
0.00958446
0.00952732
0.0095162
0.00950315
0.00948835
0.00944253
0.00943219
0.0094201
0.00940638
0.00936484
0.00935665
0.00934693
0.00933577
0.00929008
0.00928485
0.00927842
0.00927084
0.00921381
0.00921156
0.00920853
0.00920473
0.00913369
0.00913356
0.00913306
0.00913219
0.00905174
0.00905212
0.00905242
0.00905265
0.00200449
0.00404673
0.00535848
0.00598258
0.00631346
0.00663755
0.0069715
0.00727158
0.00742194
0.00731996
0.0070639
0.00675655
0.00636826
0.0058854
0.00528623
0.0045163
0.00352538
0.00221107
0.000352341
0.00499714
0.00616024
0.00689836
0.00728587
0.00751445
0.00770581
0.00787859
0.00804092
0.0081573
0.00807808
0.0077829
0.00737491
0.00684623
0.00621077
0.0054724
0.00454381
0.00338226
0.00201984
0.00033363
0.0072246
0.00774192
0.00809474
0.00829902
0.00842743
0.00852253
0.00858568
0.00861317
0.00861582
0.00853883
0.00825921
0.00776281
0.0071256
0.00637215
0.0055125
0.00442088
0.00305444
0.00161508
0.00031115
0.00869604
0.00887197
0.00899836
0.00907042
0.00910941
0.00912507
0.00910404
0.00902748
0.00890031
0.00874669
0.0084751
0.00799514
0.00731492
0.00651983
0.00560202
0.00442968
0.0029723
0.00148912
0.000297477
0.0096646
0.00967256
0.00966748
0.00964905
0.00961501
0.00955877
0.00946528
0.00929816
0.00910344
0.00887928
0.00854453
0.00809289
0.00747949
0.00674397
0.00585415
0.00470189
0.00323745
0.00166612
0.000314876
0.0103081
0.0102351
0.0101515
0.0100633
0.00996648
0.00983752
0.00967283
0.00947369
0.00925123
0.00898121
0.00862618
0.00818353
0.00764971
0.0070081
0.00619441
0.00511275
0.00369297
0.00201106
0.000345565
0.0107424
0.0106166
0.0104778
0.0103351
0.0101747
0.00999067
0.00979356
0.00957921
0.00933714
0.00904842
0.00869783
0.00828697
0.00780948
0.00723521
0.00649563
0.00549083
0.00417184
0.00239239
0.000374055
0.0110167
0.0108391
0.0106471
0.0104543
0.0102561
0.0100461
0.00982629
0.00960033
0.00935252
0.00905955
0.0087142
0.00832356
0.00787405
0.0073399
0.00665638
0.00574044
0.00449517
0.00275327
0.000398326
0.011158
0.0109369
0.0107022
0.0104722
0.0102459
0.0100157
0.00977656
0.00953698
0.00928562
0.00899023
0.00864195
0.00825219
0.00781135
0.00729309
0.00664095
0.00579432
0.00461849
0.00285808
0.000413523
0.0111943
0.0109452
0.0106823
0.010423
0.0101691
0.00991146
0.00964705
0.00937706
0.00909981
0.00879481
0.00844706
0.00805856
0.00761857
0.00709856
0.00645873
0.00565234
0.00454457
0.00282794
0.000394581
0.0111519
0.0108931
0.0106173
0.0103379
0.0100567
0.00976716
0.00946498
0.00915153
0.0088277
0.00848996
0.00813072
0.00773457
0.00728617
0.00675879
0.00612098
0.00533085
0.0042748
0.00267785
0.000363048
0.0110607
0.0108091
0.0105338
0.0102432
0.00993763
0.00961375
0.00926888
0.00890534
0.00852641
0.00813752
0.00773707
0.0073093
0.00683375
0.00628566
0.00564178
0.00486372
0.00384247
0.00238378
0.000328022
0.0109526
0.0107216
0.0104572
0.0101631
0.00983845
0.00948162
0.00909302
0.00867681
0.0082396
0.00779022
0.00733103
0.00685068
0.0063317
0.0057546
0.00509589
0.00431033
0.00331213
0.00197527
0.000296569
0.010853
0.0106515
0.0104056
0.0101159
0.00978049
0.00939887
0.00897394
0.00851175
0.00802157
0.00751393
0.00699364
0.00645692
0.00589077
0.00527846
0.00459422
0.00379608
0.0028262
0.00161487
0.000282008
0.0107744
0.0106072
0.0103853
0.010108
0.00977324
0.00938105
0.00893573
0.00844456
0.007918
0.00736758
0.00680099
0.00621973
0.00561702
0.00498033
0.00428737
0.00350415
0.00258784
0.00147059
0.000285788
0.0107165
0.0105848
0.0103909
0.0101336
0.00981152
0.00942513
0.00897907
0.00848112
0.0079423
0.0073751
0.00678957
0.00619107
0.00557943
0.00494891
0.00428449
0.00355511
0.00268362
0.00155444
0.000297787
0.0106717
0.0105742
0.0104101
0.0101788
0.00987947
0.00951333
0.00908449
0.00860073
0.00807364
0.0075169
0.00694207
0.00635717
0.00576677
0.00516962
0.00455179
0.00386815
0.00300006
0.00176963
0.000310692
0.0106315
0.0105648
0.0104302
0.0102279
0.00995808
0.0096223
0.00922384
0.0087703
0.00827337
0.00774716
0.00720426
0.00665387
0.00610123
0.00554386
0.00496222
0.00427956
0.00336851
0.00201716
0.000321674
0.0105904
0.0105499
0.0104424
0.0102693
0.0100317
0.0097313
0.00937072
0.00895719
0.0085017
0.00801763
0.00751727
0.00700917
0.00649586
0.00596797
0.00539091
0.0046738
0.00368226
0.00221595
0.000329546
0.0105467
0.0105276
0.0104434
0.0102969
0.0100912
0.00982676
0.0095065
0.00913694
0.00872773
0.0082905
0.00783579
0.0073697
0.00688995
0.00637855
0.00578155
0.00500603
0.00392283
0.00233535
0.00033527
0.0105023
0.0104979
0.0104326
0.0103102
0.0101335
0.00990291
0.00962154
0.00929549
0.00893268
0.0085422
0.00813161
0.00770308
0.00724829
0.00673971
0.00611541
0.0052848
0.00411652
0.00242115
0.00033968
0.0104629
0.0104663
0.0104141
0.0103108
0.0101582
0.00995796
0.00971293
0.0094277
0.00910836
0.00876144
0.00839116
0.00799513
0.00755858
0.00704651
0.00639499
0.00551387
0.00427388
0.00249048
0.000342607
0.0104321
0.010438
0.0103936
0.0103038
0.0101705
0.00999591
0.00978256
0.00953371
0.00925341
0.00894532
0.00860994
0.00824026
0.00781619
0.00729778
0.00662132
0.00569772
0.00440053
0.00254903
0.00034405
0.0104103
0.0104151
0.0103746
0.0102937
0.010175
0.0100213
0.00983441
0.0096165
0.00936955
0.00909429
0.00878751
0.00843804
0.00802167
0.00749572
0.00679749
0.00583948
0.00449747
0.00259368
0.000344788
0.0103937
0.0103956
0.0103568
0.0102817
0.0101742
0.0100369
0.00987151
0.00967886
0.00945906
0.00921008
0.00892538
0.00859029
0.00817772
0.00764378
0.00692706
0.00594186
0.00456515
0.00262018
0.000344903
0.0103758
0.0103742
0.0103361
0.0102656
0.0101669
0.0100428
0.00989446
0.00972178
0.00952313
0.00929409
0.00902532
0.00869947
0.00828767
0.00774593
0.00701411
0.0060084
0.00460667
0.00263111
0.000343909
0.0103484
0.0103435
0.010306
0.0102399
0.010149
0.0100359
0.00990118
0.00974405
0.00956135
0.00934671
0.00908866
0.008768
0.00835504
0.00780652
0.00706317
0.00604354
0.00462665
0.00263354
0.000341307
0.0103042
0.0102962
0.0102597
0.0101981
0.0101146
0.0100111
0.00988781
0.00974289
0.00957211
0.00936761
0.00911642
0.00879831
0.00838344
0.00782966
0.00707885
0.0060516
0.00462848
0.00263042
0.000337347
0.0102385
0.0102273
0.0101919
0.0101349
0.0100585
0.00996381
0.00985028
0.00971533
0.00955371
0.00935653
0.00910988
0.0087931
0.00837667
0.00781964
0.00706565
0.00603651
0.00461433
0.00262087
0.000333105
0.0101503
0.0101352
0.0101005
0.0100476
0.00997773
0.00989108
0.00978622
0.00965975
0.00950564
0.00931425
0.00907119
0.00875575
0.00833902
0.00778135
0.00702813
0.00600205
0.00458661
0.00260509
0.000329146
0.0100424
0.0100227
0.00998755
0.00993765
0.00987325
0.00979353
0.00969621
0.00957712
0.00942952
0.00924328
0.00900376
0.00869047
0.00827523
0.0077196
0.00697049
0.00595196
0.00454837
0.00258554
0.000325225
0.00992109
0.00989591
0.0098591
0.00981061
0.00974998
0.00967558
0.00958436
0.00947144
0.00932952
0.0091481
0.00891244
0.00860234
0.00819034
0.00763912
0.00689698
0.00588948
0.0045024
0.00256317
0.000320762
0.00979446
0.00976354
0.00972382
0.009675
0.0096161
0.00954493
0.00945788
0.00934954
0.00921216
0.00903498
0.00880325
0.00849706
0.00808958
0.00754443
0.00681115
0.0058169
0.00444964
0.00253808
0.000315385
0.00967116
0.00963488
0.00959153
0.00954093
0.00948171
0.00941141
0.00932614
0.00922019
0.00908561
0.00891148
0.00868311
0.00838082
0.00797827
0.00743984
0.00671608
0.00573561
0.00438906
0.00250925
0.000309038
0.00955863
0.00951832
0.00947164
0.00941841
0.0093572
0.00928549
0.00919937
0.00909315
0.00895892
0.00878585
0.00855937
0.00826003
0.00786186
0.00732972
0.0066149
0.00564719
0.00431956
0.00246972
0.000303889
0.00946167
0.0094197
0.00937113
0.00931562
0.00925168
0.00917686
0.00908741
0.00897799
0.00884111
0.00866634
0.00843945
0.00814124
0.00774598
0.00721882
0.00651155
0.00555476
0.00424329
0.00242051
0.000299779
0.00938144
0.00934111
0.00929337
0.0092374
0.00917149
0.00909299
0.00899839
0.00888298
0.0087402
0.0085605
0.0083303
0.00803078
0.00763637
0.00711239
0.00641088
0.00546314
0.00416604
0.00236969
0.000295732
0.00931513
0.00928017
0.00923702
0.00918406
0.00911875
0.00903774
0.00893738
0.00881388
0.00866218
0.00847432
0.00823779
0.00793432
0.00753854
0.00701576
0.00631818
0.00537772
0.0040934
0.00232206
0.000291923
0.00925639
0.00923021
0.00919571
0.00915031
0.0090901
0.00900994
0.00890496
0.00877247
0.00860976
0.00841119
0.00816586
0.00785625
0.00745717
0.00693386
0.00623852
0.00530363
0.00403021
0.00228091
0.000288818
0.00919707
0.00918153
0.00915875
0.00912544
0.00907616
0.00900273
0.00889617
0.00875542
0.00858122
0.008371
0.0081158
0.007799
0.00739553
0.00687053
0.00617612
0.00524516
0.00398021
0.00224845
0.000287017
0.00913007
0.00912426
0.00911369
0.00909522
0.0090628
0.00900464
0.00890086
0.00875417
0.00857033
0.00834997
0.00808605
0.00776271
0.00735506
0.00682808
0.00613377
0.00520513
0.00394555
0.00222557
0.000287163
0.00905289
0.00905247
0.00905054
0.00904566
0.00903408
0.00900393
0.00890696
0.0087575
0.00856827
0.00834202
0.00807296
0.00774573
0.0073355
0.00680717
0.00611263
0.00518468
0.00392651
0.00221022
0.000289441
)
;

boundaryField
{
    leftWall
    {
        type            nutkWallFunction;
        Cmu             0.09;
        kappa           0.41;
        E               9.8;
        value           nonuniform List<scalar> 
50
(
8.67199e-06
1.19986e-05
1.41877e-05
1.5979e-05
1.75685e-05
1.90795e-05
2.06052e-05
2.2224e-05
2.41491e-05
2.74066e-05
3.09441e-05
3.46893e-05
3.8765e-05
4.3713e-05
5.06252e-05
5.48544e-05
5.43989e-05
5.32772e-05
5.21357e-05
5.10757e-05
5.08803e-05
5.46332e-05
5.25924e-05
4.94843e-05
4.51105e-05
4.07369e-05
3.62008e-05
3.15799e-05
2.71917e-05
2.3369e-05
2.02994e-05
1.80038e-05
1.63669e-05
1.52046e-05
1.43481e-05
1.36819e-05
1.3138e-05
1.26809e-05
1.22963e-05
1.19842e-05
1.17538e-05
1.16167e-05
1.1572e-05
1.16136e-05
1.17521e-05
1.21063e-05
1.32747e-05
1.73309e-05
2.7969e-05
4.93149e-05
)
;
    }
    rightWall
    {
        type            nutkWallFunction;
        Cmu             0.09;
        kappa           0.41;
        E               9.8;
        value           nonuniform List<scalar> 
50
(
1.55812e-05
2.28317e-05
2.69306e-05
2.98248e-05
3.19895e-05
3.36904e-05
3.52234e-05
3.6828e-05
3.88398e-05
3.69137e-05
3.51049e-05
3.44995e-05
3.62883e-05
3.88319e-05
4.54768e-05
4.89453e-05
5.1786e-05
5.00711e-05
4.56107e-05
3.97298e-05
3.50906e-05
3.30186e-05
3.35149e-05
3.51605e-05
3.69103e-05
3.79424e-05
3.86954e-05
3.98363e-05
4.06253e-05
4.09663e-05
4.11364e-05
4.11995e-05
4.11879e-05
4.10594e-05
4.05713e-05
3.99641e-05
3.94015e-05
3.89296e-05
3.83517e-05
3.76555e-05
3.68025e-05
3.58097e-05
3.5026e-05
3.44135e-05
3.38418e-05
3.3303e-05
3.28615e-05
3.26027e-05
3.26184e-05
3.29351e-05
)
;
    }
    lowerWall
    {
        type            nutkWallFunction;
        Cmu             0.09;
        kappa           0.41;
        E               9.8;
        value           nonuniform List<scalar> 
62
(
4.08209e-06
6.07752e-06
7.47668e-06
8.50957e-06
9.32644e-06
9.9926e-06
1.05405e-05
1.09865e-05
1.13457e-05
1.16659e-05
1.19202e-05
1.21146e-05
1.22674e-05
1.25067e-05
1.29871e-05
1.36778e-05
1.43596e-05
1.49898e-05
1.51408e-05
1.46775e-05
1.34352e-05
1.11728e-05
7.60598e-06
7.60598e-06
2.08693e-05
2.28807e-05
2.41501e-05
2.61031e-05
2.91007e-05
3.43853e-05
4.36728e-05
5.03985e-05
4.93392e-05
5.03062e-05
5.25802e-05
7.7658e-06
2.49794e-05
2.97367e-05
3.45943e-05
3.97812e-05
4.53872e-05
5.14872e-05
5.82138e-05
7.7658e-06
1.09778e-05
1.15475e-05
1.13872e-05
1.21126e-05
1.44067e-05
1.69341e-05
1.82717e-05
1.801e-05
1.69423e-05
1.60232e-05
1.55012e-05
1.53363e-05
1.52717e-05
1.49803e-05
1.3981e-05
1.25037e-05
1.0433e-05
6.88814e-06
)
;
    }
    atmosphere
    {
        type            calculated;
        value           nonuniform List<scalar> 
46
(
0.009
0.009
0.009
0.009
0.009
0.009
0.009
0.009
0.009
0.009
0.009
0.009
0.009
0.009
0.009
0.009
0.009
0.009
0.009
0.009
0.009
0.009
0.009
0.009
0.009
0.009
0.009
0.009
0.009
0.009
0.009
0.009
0.009
0.00890696
0.0087575
0.00856827
0.00834202
0.00807296
0.00774573
0.0073355
0.00680717
0.00611263
0.00518468
0.00392651
0.00221022
0.000289441
)
;
    }
    defaultFaces
    {
        type            empty;
    }
}


// ************************************************************************* //
