/*--------------------------------*- C++ -*----------------------------------*\
| =========                 |                                                 |
| \\      /  F ield         | OpenFOAM: The Open Source CFD Toolbox           |
|  \\    /   O peration     | Version:  2.3.0                                 |
|   \\  /    A nd           | Web:      www.OpenFOAM.org                      |
|    \\/     M anipulation  |                                                 |
\*---------------------------------------------------------------------------*/
FoamFile
{
    version     2.0;
    format      ascii;
    class       volScalarField;
    location    "1.3";
    object      p;
}
// * * * * * * * * * * * * * * * * * * * * * * * * * * * * * * * * * * * * * //

dimensions      [1 -1 -2 0 0 0 0];

internalField   nonuniform List<scalar> 
2268
(
1113.11
1115.5
1114.73
1110.01
1101.84
1090.91
1077.83
1063.12
1047.16
1029.97
1011.3
990.746
967.813
942.521
914.807
885.138
854.774
827.019
799.231
772.597
749.752
735.993
736.138
1053.11
1054.81
1053.69
1048.88
1040.87
1030.31
1017.8
1003.83
988.706
972.47
954.898
935.469
914.2
889.829
861.463
829.373
796.112
765.225
736.019
709.252
687.204
675.182
677.198
993.061
994.282
992.725
987.684
979.796
969.698
957.937
944.966
931.01
916.014
899.666
881.352
861.011
836.982
807.311
772.753
737.009
703.643
673.22
646.664
625.979
614.256
616.061
933.053
934.328
932.707
927.543
919.759
910.06
898.985
886.943
874.059
860.153
844.775
827.155
806.836
782.23
751.094
714.867
677.522
643.128
612.231
585.629
565.847
553.628
553.7
873.203
874.843
873.466
868.367
860.728
851.377
840.887
829.652
817.694
804.682
790.005
772.715
751.986
726.272
693.755
656.051
617.968
583.952
551.955
525.077
506.001
493.804
490.598
813.607
815.776
814.757
809.82
802.37
793.357
783.411
772.931
761.833
749.621
735.508
718.377
697.119
670.245
636.175
597.072
560.253
525.57
491.367
463.769
445.298
433.469
426.522
754.33
757.118
756.458
751.699
744.457
735.788
726.386
716.659
706.424
694.996
681.41
664.393
642.625
614.619
578.97
539.19
503.749
466.572
430.037
400.781
382.373
371.142
360.302
695.423
698.741
698.385
693.8
686.759
678.424
669.56
660.596
651.197
640.526
627.429
610.513
588.322
559.323
522.029
484.224
447.395
407.621
368.27
335.131
315.122
304.583
289.866
549.141
554.055
537.942
512.074
478.932
436.413
421.532
417.522
412.62
411.385
419.213
428.831
437.335
447.35
458.559
467.061
475.109
484.267
496.788
486.47
488.876
473.781
453.731
426.122
393.355
373.216
365.722
363.147
361.053
366.151
376.749
384.856
393.782
404.243
413.114
422.382
432.612
443.489
423.273
425.175
411.622
396.685
376.898
357.646
336.56
325.172
324.472
323.078
317.945
323.959
331.556
339.669
349.739
359.05
368.833
378.974
389.461
360.08
364.097
352.406
340.569
329.887
318.934
292.996
280.279
279.277
284.805
273.798
270.033
275.518
284.629
295.738
304.417
312.872
322.498
335.209
296.445
304.612
295.292
285.505
285.137
274.068
245.049
234.839
233.566
242.569
234.904
229.154
226.51
230.394
243.476
250.282
255.44
264.557
280.831
230.43
246.053
239.428
238.012
241.985
223.107
195.282
191.538
189.332
199.71
206.274
205.568
195.719
184.654
192.796
197.227
197.691
205.151
226.537
161.625
188.859
185.253
187.47
193.958
168.92
143.921
145.587
142.647
157.319
180.783
184.588
173.434
150.241
145.926
149.468
148.713
149.674
172.506
101.803
134.508
134.656
136.359
142.584
122.828
106.9
103.711
102.947
117.12
151.894
159.284
147.823
128.041
119.281
123.762
124.463
117.352
124.89
603.788
607.439
607.444
603.135
596.392
588.54
580.468
572.633
564.493
554.905
542.465
525.668
503.024
473.426
437.735
401.283
361.246
317.086
272.318
233.365
208.384
194.004
175.087
479.673
482.953
483.091
479.028
472.753
465.55
458.537
452.472
446.405
438.707
427.655
411.686
389.467
360.608
327.787
290.006
244.839
191.866
144.945
114.653
94.3978
73.0484
52.1241
356.036
357.499
357.379
353.956
348.701
342.245
336.302
332.763
329.868
325.09
316.302
301.934
280.748
252.649
219.911
180.249
129.848
79.0905
46.7331
39.2834
33.0143
18.3897
11.5459
233.386
231.769
231.074
230.05
227.201
220.517
213.865
213.678
215.832
215.397
209.805
197.772
178.102
150.527
116.928
80.6311
41.8437
16.9267
7.93589
7.5686
7.37063
5.37042
5.95269
116.826
112.869
114.415
121.831
125.259
116.763
102.333
100.986
106.812
112.566
112.037
104.377
88.3527
64.6937
41.0858
23.1721
9.1682
4.96479
3.57808
2.14689
1.10457
0.975578
1.3956
45.0559
43.1008
47.4214
58.4184
64.5561
55.4947
36.5557
28.8386
29.8318
36.3247
40.0962
39.8521
33.5078
21.4473
12.2488
8.12018
4.94178
2.64804
1.85024
1.07532
0.629967
0.406719
0.0470166
26.606
27.365
29.9695
34.5987
37.3644
29.2263
16.7924
7.54663
2.49921
2.64019
5.55364
8.95494
11.1709
12.0869
11.0529
7.8492
4.04352
1.44028
0.740077
0.464825
0.30118
0.130096
-0.172436
23.2174
21.6727
18.924
17.5875
19.0346
16.9264
10.3763
3.831
0.0756201
-0.140614
2.48988
6.0486
8.20019
8.14432
5.29914
2.62654
1.30408
0.0611849
-0.343957
-0.192215
-0.128395
-0.294222
-0.510673
15.437
11.4784
6.21059
1.90018
4.00459
6.4074
6.58287
0.48743
-1.60014
-1.68751
-0.422992
1.86117
1.93596
0.458906
-0.27975
-1.16248
-1.51872
-1.21704
-1.19078
-0.966354
-0.804572
-0.865705
-0.830444
4.14339
0.790772
-0.833506
-1.16755
-1.35845
-0.0701106
3.09921
-0.770946
-2.22549
-2.40153
-2.20432
-0.839005
-0.651581
-1.93491
-2.07371
-1.74769
-1.64304
-1.62363
-1.51992
-1.39884
-1.29216
-1.1718
-1.05286
-0.678338
-2.02099
-1.71511
-1.69705
-1.8121
-1.99302
-2.34372
-2.23961
-2.28668
-2.53392
-2.61166
-2.47012
-2.20134
-1.99757
-1.92605
-1.87415
-1.81471
-1.76625
-1.6764
-1.58272
-1.48326
-1.37046
-1.29028
-1.702
-2.16109
-1.96583
-1.93677
-2.04386
-2.17451
-2.25121
-2.33743
-2.46323
-2.45757
-2.41277
-2.31387
-2.21543
-2.13392
-2.07466
-2.01455
-1.95021
-1.88707
-1.80832
-1.72704
-1.64551
-1.57122
-1.51508
-2.004
-2.31457
-2.16871
-2.1616
-2.22931
-2.30668
-2.35647
-2.39298
-2.42541
-2.45783
-2.43722
-2.3847
-2.3212
-2.257
-2.19675
-2.13518
-2.07347
-2.0125
-1.94645
-1.88028
-1.81705
-1.76087
-1.71632
-2.55041
-2.53793
-2.40038
-2.3837
-2.40608
-2.44191
-2.47303
-2.49513
-2.50794
-2.51452
-2.49719
-2.4597
-2.41075
-2.35744
-2.30407
-2.24984
-2.19578
-2.14214
-2.08721
-2.03328
-1.98248
-1.93744
-1.90089
-2.6227
-2.63874
-2.58191
-2.56225
-2.56036
-2.57122
-2.58462
-2.59425
-2.59682
-2.5906
-2.57147
-2.54015
-2.5005
-2.4567
-2.41151
-2.36546
-2.31922
-2.27319
-2.22722
-2.18263
-2.14088
-2.10389
-2.07318
-2.73287
-2.74123
-2.71351
-2.69935
-2.69172
-2.69158
-2.69378
-2.69425
-2.6899
-2.67854
-2.65872
-2.63114
-2.59792
-2.56127
-2.52287
-2.48348
-2.44378
-2.40432
-2.36543
-2.32798
-2.29302
-2.26196
-2.23557
-2.83301
-2.83988
-2.82395
-2.81512
-2.80788
-2.80381
-2.80062
-2.79593
-2.78766
-2.77431
-2.75512
-2.73057
-2.70194
-2.67054
-2.63744
-2.60337
-2.56901
-2.53491
-2.50154
-2.46955
-2.4397
-2.41306
-2.38998
-2.92805
-2.9338
-2.92605
-2.92037
-2.91478
-2.91001
-2.90495
-2.89818
-2.88842
-2.87478
-2.85687
-2.83502
-2.81003
-2.78276
-2.75396
-2.72427
-2.69429
-2.66455
-2.63554
-2.60777
-2.58186
-2.55863
-2.53822
-3.02611
-3.0273
-3.0241
-3.02064
-3.01683
-3.01268
-3.00752
-3.00045
-2.99071
-2.9778
-2.96156
-2.94223
-2.92037
-2.89656
-2.87139
-2.8454
-2.8191
-2.793
-2.76755
-2.74319
-2.72044
-2.69999
-2.68185
-3.1284
-3.12438
-3.12208
-3.12012
-3.11759
-3.11427
-3.10963
-3.10306
-3.09407
-3.08238
-3.06794
-3.05098
-3.03187
-3.01108
-2.98907
-2.96629
-2.94319
-2.92022
-2.8978
-2.87633
-2.85626
-2.83819
-2.82209
-3.23362
-3.22707
-3.22345
-3.22158
-3.21956
-3.21676
-3.21265
-3.20674
-3.19868
-3.1883
-3.17561
-3.16078
-3.14413
-3.12599
-3.10676
-3.08682
-3.06655
-3.04635
-3.0266
-3.00767
-2.98993
-2.97394
-2.95967
-3.3408
-3.33366
-3.32871
-3.32612
-3.32399
-3.32131
-3.31752
-3.31216
-3.30496
-3.29578
-3.28464
-3.2717
-3.25718
-3.24137
-3.22458
-3.20715
-3.18939
-3.17166
-3.15428
-3.13757
-3.12189
-3.10771
-3.09506
-3.4496
-3.44281
-3.43718
-3.43379
-3.43121
-3.42838
-3.42469
-3.41972
-3.41321
-3.40504
-3.39523
-3.3839
-3.37122
-3.35741
-3.34276
-3.32751
-3.31197
-3.29641
-3.28112
-3.26639
-3.25252
-3.23994
-3.2287
-3.55988
-3.55385
-3.54814
-3.54416
-3.54108
-3.53797
-3.53424
-3.52951
-3.52353
-3.51619
-3.50749
-3.49751
-3.48639
-3.47431
-3.46148
-3.44814
-3.43453
-3.42088
-3.40744
-3.39445
-3.38218
-3.37102
-3.36102
-3.6715
-3.66633
-3.6609
-3.65664
-3.65318
-3.64979
-3.64598
-3.64141
-3.63584
-3.62917
-3.62138
-3.61254
-3.60274
-3.59212
-3.58088
-3.56919
-3.55725
-3.54528
-3.53347
-3.52203
-3.51118
-3.50128
-3.49237
-3.78431
-3.77991
-3.77496
-3.77068
-3.76701
-3.76344
-3.75958
-3.75513
-3.7499
-3.74379
-3.73678
-3.72889
-3.72022
-3.71087
-3.70098
-3.69072
-3.68026
-3.66975
-3.65939
-3.64932
-3.63975
-3.63098
-3.62306
-3.89818
-3.89443
-3.88998
-3.88585
-3.88214
-3.87852
-3.87466
-3.87035
-3.86543
-3.85982
-3.85347
-3.84642
-3.83872
-3.83046
-3.82176
-3.81276
-3.80358
-3.79438
-3.78528
-3.77644
-3.76802
-3.76028
-3.75324
-4.01298
-4.00974
-4.00576
-4.00187
-3.99826
-3.99468
-3.99091
-3.98678
-3.98217
-3.97701
-3.97127
-3.96496
-3.95812
-3.95082
-3.94316
-3.93526
-3.92722
-3.91916
-3.9112
-3.90345
-3.89606
-3.88925
-3.88304
-4.12857
-4.12575
-4.12219
-4.11858
-4.11514
-4.11169
-4.10808
-4.10417
-4.09989
-4.09517
-4.08999
-4.08434
-4.07826
-4.07182
-4.06508
-4.05815
-4.05111
-4.04407
-4.03712
-4.03035
-4.02389
-4.01792
-4.01246
-4.24486
-4.24237
-4.23918
-4.23587
-4.23265
-4.22939
-4.22599
-4.22235
-4.21841
-4.21412
-4.20945
-4.20441
-4.19903
-4.19335
-4.18743
-4.18136
-4.17522
-4.16907
-4.16302
-4.15713
-4.1515
-4.14629
-4.14152
-4.36175
-4.35955
-4.35669
-4.35368
-4.35071
-4.34768
-4.34453
-4.34118
-4.33759
-4.33371
-4.32954
-4.32506
-4.3203
-4.31531
-4.31013
-4.30483
-4.29947
-4.29413
-4.28887
-4.28376
-4.27887
-4.27436
-4.27021
-4.47919
-4.47723
-4.47467
-4.47196
-4.46925
-4.46649
-4.46361
-4.46057
-4.45733
-4.45386
-4.45014
-4.44618
-4.442
-4.43762
-4.4331
-4.42848
-4.42383
-4.4192
-4.41464
-4.41023
-4.40601
-4.40211
-4.39853
-4.59712
-4.59537
-4.5931
-4.59068
-4.58824
-4.58575
-4.58315
-4.58043
-4.57754
-4.57446
-4.57118
-4.5677
-4.56404
-4.56022
-4.55629
-4.55228
-4.54825
-4.54425
-4.54033
-4.53653
-4.53291
-4.52956
-4.52649
-4.7155
-4.71394
-4.71192
-4.70978
-4.70762
-4.70541
-4.70311
-4.70071
-4.69816
-4.69546
-4.69259
-4.68956
-4.68637
-4.68306
-4.67965
-4.67619
-4.67272
-4.66928
-4.66592
-4.66267
-4.65958
-4.65673
-4.65412
-4.83427
-4.83288
-4.8311
-4.82922
-4.82733
-4.82541
-4.82342
-4.82134
-4.81914
-4.8168
-4.81431
-4.81168
-4.80893
-4.80608
-4.80315
-4.80018
-4.79721
-4.79428
-4.79141
-4.78866
-4.78604
-4.78364
-4.78144
-4.95339
-4.95215
-4.95058
-4.94895
-4.94734
-4.94571
-4.94403
-4.94227
-4.9404
-4.9384
-4.93628
-4.93403
-4.93167
-4.92924
-4.92674
-4.92422
-4.92171
-4.91923
-4.91682
-4.91451
-4.91232
-4.91031
-4.90849
-5.07281
-5.0717
-5.07031
-5.06892
-5.06759
-5.06628
-5.06491
-5.06346
-5.06191
-5.06023
-5.05844
-5.05654
-5.05455
-5.0525
-5.05041
-5.0483
-5.0462
-5.04414
-5.04215
-5.04023
-5.03843
-5.03679
-5.0353
-5.19247
-5.19147
-5.19024
-5.1891
-5.18808
-5.18707
-5.18601
-5.18486
-5.18359
-5.18221
-5.18073
-5.17916
-5.17753
-5.17584
-5.17412
-5.1724
-5.17069
-5.16902
-5.1674
-5.16586
-5.16441
-5.16308
-5.1619
-5.31232
-5.31139
-5.31033
-5.30949
-5.30879
-5.30809
-5.3073
-5.30641
-5.30541
-5.30431
-5.30312
-5.30187
-5.30057
-5.29923
-5.29787
-5.29651
-5.29517
-5.29386
-5.2926
-5.29139
-5.29026
-5.28923
-5.28831
-5.43239
-5.43154
-5.43068
-5.43016
-5.42977
-5.42933
-5.42877
-5.4281
-5.42734
-5.4265
-5.4256
-5.42465
-5.42367
-5.42266
-5.42165
-5.42065
-5.41965
-5.41868
-5.41775
-5.41686
-5.41601
-5.41524
-5.41455
-5.55255
-5.55256
-5.55171
-5.55123
-5.551
-5.5507
-5.55031
-5.54983
-5.5493
-5.54872
-5.5481
-5.54746
-5.5468
-5.54613
-5.54546
-5.54479
-5.54413
-5.54349
-5.54287
-5.54226
-5.54169
-5.54115
-5.54065
-5.67054
-5.67444
-5.67185
-5.67106
-5.67082
-5.67064
-5.67044
-5.67024
-5.67003
-5.66982
-5.66961
-5.6694
-5.66919
-5.66899
-5.66879
-5.66859
-5.6684
-5.6682
-5.668
-5.6678
-5.66758
-5.66735
-5.66711
157.18
148.368
140.479
125.039
43.4919
42.4672
41.5372
35.5027
12.6884
13.6573
13.9284
12.8846
6.16771
5.7211
4.76205
3.16663
1.09571
0.803448
0.217657
0.178885
-0.164978
-0.192824
-0.159797
-0.189269
-0.328626
-0.367114
-0.384743
-0.405116
-0.555103
-0.565475
-0.584707
-0.607002
-0.775967
-0.777421
-0.797845
-0.817866
-1.02009
-1.02265
-1.03162
-1.0407
-1.26881
-1.26253
-1.25981
-1.2595
-1.49121
-1.47965
-1.47118
-1.46573
-1.69282
-1.67935
-1.66799
-1.65938
-1.87884
-1.86472
-1.85178
-1.84134
-2.05262
-2.03838
-2.02468
-2.0133
-2.2164
-2.20243
-2.1886
-2.17694
-2.37219
-2.35878
-2.34523
-2.33373
-2.52182
-2.50912
-2.49612
-2.48506
-2.66684
-2.65497
-2.64266
-2.6322
-2.80852
-2.79757
-2.78607
-2.77628
-2.94753
-2.9376
-2.92706
-2.91803
-3.08427
-3.07538
-3.06587
-3.05771
-3.21911
-3.21121
-3.20275
-3.19548
-3.35248
-3.34547
-3.33799
-3.33159
-3.48475
-3.47854
-3.47192
-3.4663
-3.61625
-3.61073
-3.60487
-3.59992
-3.74719
-3.74228
-3.73708
-3.7327
-3.87767
-3.87332
-3.86871
-3.86481
-4.00773
-4.0039
-3.99982
-3.99636
-4.13739
-4.13404
-4.13045
-4.12739
-4.26663
-4.26372
-4.26059
-4.2579
-4.39545
-4.39294
-4.39025
-4.38791
-4.52386
-4.52173
-4.51943
-4.51742
-4.6519
-4.65011
-4.64817
-4.64647
-4.77959
-4.7781
-4.7765
-4.77508
-4.90697
-4.90576
-4.90445
-4.90329
-5.03407
-5.0331
-5.03206
-5.03114
-5.16093
-5.16017
-5.15937
-5.15866
-5.28757
-5.287
-5.28639
-5.28586
-5.41401
-5.41361
-5.41317
-5.41278
-5.54023
-5.53993
-5.53963
-5.53935
-5.66686
-5.66669
-5.66652
-5.66636
69.6324
73.4388
76.7496
79.1302
85.298
87.6974
81.9645
73.0068
69.8436
75.7128
103.484
116.858
111.581
106.287
109.69
112.382
107.644
98.3858
95.3052
26.2495
27.143
31.3333
39.6313
52.0053
59.7446
56.6011
50.7397
44.8089
42.5653
51.5076
70.6471
78.8814
86.1432
94.9987
94.7648
89.2835
81.7424
81.3284
11.7916
12.1811
15.3019
23.4977
31.2293
34.7293
33.8863
31.1613
30.1855
30.2704
29.1665
35.4836
48.7805
66.7633
73.9256
74.7475
73.9157
72.26
71.1914
2.42191
2.75218
4.24804
7.84661
10.7645
13.4062
15.2861
16.2859
21.6499
23.6788
22.4563
22.8061
27.4516
41.008
49.6573
53.6756
56.6259
59.7857
60.3461
0.0526636
-0.132748
-0.308077
0.10158
1.04072
1.61895
4.01427
8.8118
14.9124
18.3026
18.3057
17.6916
17.9709
21.4487
28.1395
31.7569
33.0998
37.8799
40.5412
-0.245454
-0.317157
-0.391082
-0.474365
-0.401468
0.25239
1.59761
4.40225
8.82054
12.1446
13.4458
13.6418
12.6064
11.0411
12.9534
12.673
11.6547
13.0578
11.8693
-0.440893
-0.489665
-0.530828
-0.541782
-0.506618
-0.366851
0.217328
1.35195
2.9363
4.98452
6.9511
8.21561
7.77096
4.68938
3.12198
1.60867
1.48016
0.360253
-0.591152
-0.638733
-0.677045
-0.708348
-0.718888
-0.701312
-0.744708
-0.75988
-0.806522
-0.651058
0.0194009
1.13923
2.36581
2.83619
0.938753
-0.769292
-1.09281
-0.942866
-1.04223
-1.06565
-0.844505
-0.875465
-0.905106
-0.932999
-0.961181
-1.00385
-1.10656
-1.25174
-1.36388
-1.40134
-1.3011
-0.841391
-0.290626
-0.510837
-1.18335
-1.34062
-1.34508
-1.27059
-1.24101
-1.05455
-1.07559
-1.10097
-1.13036
-1.16375
-1.20688
-1.26555
-1.32126
-1.35484
-1.40764
-1.54686
-1.69878
-1.66322
-1.49744
-1.42959
-1.46976
-1.47493
-1.43481
-1.40537
-1.26227
-1.27387
-1.29249
-1.31712
-1.34769
-1.38721
-1.43527
-1.48127
-1.5217
-1.56774
-1.62065
-1.68277
-1.73371
-1.7142
-1.66415
-1.60849
-1.59307
-1.57242
-1.55825
-1.46145
-1.46585
-1.47847
-1.49723
-1.52287
-1.55594
-1.59668
-1.64219
-1.69173
-1.72888
-1.75521
-1.78099
-1.79466
-1.79396
-1.77554
-1.74522
-1.72328
-1.70611
-1.70321
-1.65035
-1.64913
-1.65687
-1.67069
-1.69091
-1.71723
-1.75022
-1.78707
-1.82297
-1.84916
-1.87081
-1.89476
-1.91112
-1.91539
-1.90537
-1.8845
-1.85919
-1.84309
-1.8476
-1.82948
-1.82435
-1.82789
-1.83807
-1.85336
-1.8737
-1.8992
-1.92769
-1.954
-1.9746
-1.99831
-2.02288
-2.04276
-2.05127
-2.04648
-2.02785
-2.00427
-1.99101
-1.99821
-1.99997
-1.99234
-1.99266
-1.9999
-2.01164
-2.0275
-2.04726
-2.07023
-2.09413
-2.11685
-2.14163
-2.16435
-2.18256
-2.1901
-2.18702
-2.17579
-2.16136
-2.15114
-2.15392
-2.16309
-2.15408
-2.15209
-2.15655
-2.16612
-2.17917
-2.19525
-2.21454
-2.23811
-2.26529
-2.28813
-2.30685
-2.31908
-2.323
-2.3219
-2.32137
-2.32021
-2.31486
-2.31068
-2.32005
-2.31049
-2.30705
-2.30923
-2.31661
-2.32785
-2.34202
-2.35877
-2.37916
-2.4034
-2.42533
-2.43993
-2.44759
-2.45244
-2.45643
-2.46165
-2.46844
-2.47262
-2.4645
-2.47198
-2.46247
-2.45824
-2.45891
-2.46413
-2.47337
-2.48589
-2.50059
-2.51722
-2.536
-2.55352
-2.56686
-2.57621
-2.58342
-2.58995
-2.59727
-2.60573
-2.61369
-2.60628
-2.61996
-2.61086
-2.6063
-2.60598
-2.60968
-2.61693
-2.62717
-2.63967
-2.6539
-2.6693
-2.68392
-2.6962
-2.70601
-2.71413
-2.72129
-2.72816
-2.73436
-2.7384
-2.73093
-2.76494
-2.75643
-2.75182
-2.75086
-2.75343
-2.75915
-2.76755
-2.77804
-2.79004
-2.80291
-2.81543
-2.82656
-2.836
-2.84394
-2.85058
-2.85591
-2.8591
-2.85887
-2.85084
-2.90761
-2.89975
-2.89524
-2.89387
-2.89557
-2.90005
-2.90695
-2.91569
-2.92576
-2.93653
-2.94719
-2.95701
-2.9656
-2.97281
-2.97855
-2.98235
-2.98316
-2.97978
-2.97396
-3.04828
-3.0411
-3.0368
-3.03516
-3.03621
-3.03969
-3.04525
-3.05247
-3.06086
-3.06985
-3.07883
-3.08727
-3.09477
-3.10107
-3.1059
-3.10871
-3.10853
-3.10398
-3.09887
-3.18709
-3.18062
-3.17657
-3.17479
-3.17534
-3.17799
-3.18243
-3.1883
-3.1952
-3.20264
-3.21013
-3.21723
-3.22359
-3.22892
-3.23293
-3.23523
-3.23528
-3.23144
-3.22301
-3.3242
-3.31841
-3.31464
-3.3128
-3.31296
-3.31492
-3.31842
-3.32315
-3.32874
-3.33482
-3.34097
-3.34683
-3.35207
-3.35641
-3.35959
-3.36136
-3.36141
-3.35815
-3.34675
-3.45983
-3.45466
-3.45117
-3.4493
-3.44914
-3.45054
-3.45324
-3.45699
-3.46147
-3.46637
-3.47134
-3.47605
-3.48021
-3.48354
-3.48578
-3.48666
-3.48563
-3.48089
-3.47
-3.59424
-3.58961
-3.58636
-3.58448
-3.58406
-3.58497
-3.587
-3.58991
-3.59345
-3.59733
-3.60127
-3.60495
-3.60811
-3.61046
-3.6117
-3.61145
-3.60887
-3.60204
-3.59352
-3.72768
-3.7235
-3.72048
-3.71858
-3.71793
-3.71842
-3.71986
-3.72206
-3.72479
-3.7278
-3.73084
-3.73362
-3.73588
-3.73734
-3.73768
-3.73645
-3.73283
-3.72498
-3.71707
-3.86035
-3.85656
-3.85372
-3.85182
-3.85098
-3.8511
-3.85204
-3.85362
-3.85565
-3.85791
-3.86016
-3.86217
-3.86366
-3.86436
-3.86395
-3.86198
-3.85773
-3.84934
-3.83969
-3.99237
-3.98893
-3.98626
-3.98438
-3.98337
-3.98318
-3.98369
-3.98474
-3.98616
-3.98777
-3.98936
-3.9907
-3.99156
-3.99164
-3.99063
-3.98811
-3.98334
-3.97451
-3.96343
-4.12383
-4.12069
-4.11821
-4.11636
-4.11523
-4.1148
-4.11494
-4.11554
-4.11645
-4.1175
-4.11853
-4.11932
-4.11966
-4.11928
-4.11785
-4.11494
-4.10976
-4.10096
-4.09001
-4.25474
-4.25191
-4.24961
-4.24783
-4.24664
-4.24602
-4.24588
-4.24611
-4.24658
-4.24717
-4.24773
-4.24808
-4.24803
-4.24734
-4.24571
-4.24265
-4.23725
-4.22936
-4.21927
-4.38513
-4.3826
-4.38051
-4.37883
-4.37764
-4.3769
-4.37654
-4.37648
-4.3766
-4.37681
-4.37699
-4.37699
-4.37667
-4.37584
-4.37425
-4.37158
-4.36684
-4.35926
-4.34971
-4.51501
-4.51278
-4.51091
-4.50937
-4.50823
-4.50745
-4.50695
-4.50667
-4.50653
-4.50643
-4.5063
-4.50604
-4.50553
-4.50465
-4.50327
-4.50131
-4.49788
-4.49018
-4.48036
-4.64441
-4.64248
-4.64084
-4.63948
-4.63844
-4.63767
-4.63712
-4.63669
-4.63634
-4.63601
-4.63563
-4.63515
-4.63448
-4.63355
-4.63231
-4.63072
-4.62802
-4.62094
-4.61051
-4.77335
-4.77172
-4.77033
-4.76917
-4.76828
-4.76759
-4.76704
-4.76654
-4.76604
-4.76552
-4.76494
-4.76426
-4.76343
-4.76238
-4.76107
-4.75936
-4.75638
-4.74974
-4.73995
-4.90187
-4.90053
-4.8994
-4.89847
-4.89777
-4.89723
-4.89676
-4.89623
-4.89563
-4.89496
-4.89421
-4.89335
-4.89234
-4.89112
-4.88962
-4.88763
-4.88417
-4.87754
-4.86915
-5.03001
-5.02894
-5.02806
-5.02739
-5.02693
-5.02663
-5.0263
-5.02577
-5.02509
-5.0243
-5.02341
-5.02242
-5.02125
-5.0199
-5.0183
-5.01612
-5.01245
-5.00608
-4.9986
-5.15778
-5.15696
-5.15634
-5.15594
-5.15578
-5.1558
-5.1557
-5.15519
-5.15443
-5.15354
-5.15255
-5.15146
-5.15025
-5.14887
-5.14728
-5.14506
-5.14143
-5.13546
-5.12866
-5.2852
-5.28461
-5.28421
-5.28408
-5.28427
-5.28481
-5.28514
-5.2846
-5.28372
-5.28271
-5.28162
-5.28048
-5.2793
-5.278
-5.27644
-5.27435
-5.27099
-5.26552
-5.25934
-5.41227
-5.41183
-5.41161
-5.41171
-5.41237
-5.41396
-5.41537
-5.41452
-5.41331
-5.41207
-5.41081
-5.40953
-5.40828
-5.407
-5.40555
-5.40376
-5.40098
-5.39624
-5.39077
-5.539
-5.53866
-5.53852
-5.53878
-5.54011
-5.54392
-5.5474
-5.5454
-5.54347
-5.54182
-5.54025
-5.53871
-5.53722
-5.53578
-5.53441
-5.53305
-5.5313
-5.5278
-5.52363
-5.66613
-5.66586
-5.66575
-5.6661
-5.668
-5.6746
-5.67597
-5.67284
-5.67092
-5.6695
-5.6682
-5.66693
-5.66568
-5.6645
-5.66345
-5.6626
-5.66184
-5.66015
-5.65744
)
;

boundaryField
{
    leftWall
    {
        type            calculated;
        value           nonuniform List<scalar> 
50
(
1113.11
1053.11
993.061
933.053
873.203
813.607
754.33
695.423
603.788
479.673
356.036
233.386
116.826
45.0559
26.606
23.2174
15.437
4.14339
-0.678338
-1.702
-2.004
-2.55041
-2.6227
-2.73287
-2.83301
-2.92805
-3.02611
-3.1284
-3.23362
-3.3408
-3.4496
-3.55988
-3.6715
-3.78431
-3.89818
-4.01298
-4.12857
-4.24486
-4.36175
-4.47919
-4.59712
-4.7155
-4.83427
-4.95339
-5.07281
-5.19247
-5.31232
-5.43239
-5.55255
-5.67054
)
;
    }
    rightWall
    {
        type            calculated;
        value           nonuniform List<scalar> 
50
(
496.788
443.489
389.461
335.209
280.831
226.537
172.506
124.89
95.3052
81.3284
71.1914
60.3461
40.5412
11.8693
-0.591152
-1.06565
-1.24101
-1.40537
-1.55825
-1.70321
-1.8476
-1.99821
-2.15392
-2.31068
-2.4645
-2.60628
-2.73093
-2.85084
-2.97396
-3.09887
-3.22301
-3.34675
-3.47
-3.59352
-3.71707
-3.83969
-3.96343
-4.09001
-4.21927
-4.34971
-4.48036
-4.61051
-4.73995
-4.86915
-4.9986
-5.12866
-5.25934
-5.39077
-5.52363
-5.65744
)
;
    }
    lowerWall
    {
        type            calculated;
        value           nonuniform List<scalar> 
62
(
1142.54
1144.93
1144.16
1139.44
1131.27
1120.34
1107.26
1092.55
1076.59
1059.4
1040.73
1020.18
996.634
971.142
943.429
913.759
883.777
856.365
828.566
801.9
778.985
765.037
765.182
736.138
677.198
616.061
553.7
490.598
426.522
360.302
289.866
217.452
207.211
198.135
181.521
549.141
486.47
423.273
360.08
296.445
230.43
161.625
101.803
578.327
583.241
567.211
541.347
508.046
461.287
446.446
442.675
437.992
439.553
447.874
457.001
464.059
474.073
485.282
493.784
502.318
511.629
524.149
)
;
    }
    atmosphere
    {
        type            calculated;
        value           nonuniform List<scalar> 
46
(
-5.72964
-5.72983
-5.72959
-5.72948
-5.72943
-5.72942
-5.72943
-5.72945
-5.7295
-5.72956
-5.72965
-5.72974
-5.72986
-5.72999
-5.73012
-5.73026
-5.7304
-5.73051
-5.73061
-5.73068
-5.73071
-5.7307
-5.73064
-5.73057
-5.73049
-5.73039
-5.73027
-5.73004
-5.72974
-5.72948
-5.72928
-5.72915
-5.72906
-5.72904
-5.72904
-5.72905
-5.72905
-5.72905
-5.72905
-5.72905
-5.72905
-5.72905
-5.72904
-5.72904
-5.72904
-5.7293
)
;
    }
    defaultFaces
    {
        type            empty;
    }
}


// ************************************************************************* //
