/*--------------------------------*- C++ -*----------------------------------*\
| =========                 |                                                 |
| \\      /  F ield         | OpenFOAM: The Open Source CFD Toolbox           |
|  \\    /   O peration     | Version:  2.3.0                                 |
|   \\  /    A nd           | Web:      www.OpenFOAM.org                      |
|    \\/     M anipulation  |                                                 |
\*---------------------------------------------------------------------------*/
FoamFile
{
    version     2.0;
    format      ascii;
    class       volScalarField;
    location    "1.3";
    object      p_rgh;
}
// * * * * * * * * * * * * * * * * * * * * * * * * * * * * * * * * * * * * * //

dimensions      [1 -1 -2 0 0 0 0];

internalField   nonuniform List<scalar> 
2268
(
1142.54
1144.93
1144.16
1139.44
1131.27
1120.34
1107.26
1092.55
1076.59
1059.4
1040.73
1020.18
996.634
971.142
943.429
913.759
883.777
856.365
828.566
801.9
778.985
765.037
765.182
1141.4
1143.1
1141.97
1137.17
1129.16
1118.6
1106.08
1092.12
1076.99
1060.76
1043.19
1023.76
1001.03
975.713
947.901
917.441
884.396
853.51
824.303
797.535
775.487
763.385
764.568
1140.21
1141.43
1139.87
1134.83
1126.94
1116.84
1105.08
1092.11
1078.16
1063.16
1046.81
1028.5
1007.77
981.968
954.225
919.894
884.15
850.784
820.028
793.71
773.116
761.395
763.109
1139.06
1140.33
1138.71
1133.55
1125.76
1116.07
1104.99
1092.95
1080.06
1066.16
1050.78
1033.16
1012.84
988.213
957.084
920.858
883.47
848.3
817.205
791.475
771.841
759.622
759.694
1138.07
1139.71
1138.33
1133.23
1125.59
1116.24
1105.75
1094.52
1082.56
1069.55
1054.87
1037.58
1016.85
991.134
958.601
920.865
877.474
840.396
816.591
789.926
770.85
758.654
755.447
1137.33
1139.5
1138.48
1133.54
1126.09
1117.08
1107.13
1096.65
1085.56
1073.34
1059.23
1042.1
1020.84
993.968
959.895
917.692
856.23
836.439
815.071
787.474
769.003
757.172
750.196
1136.91
1139.7
1139.04
1134.28
1127.04
1118.37
1108.97
1099.24
1089.01
1077.58
1063.99
1046.97
1025.21
997.201
961.092
900.162
853.54
843.028
812.596
783.341
764.933
753.699
742.803
1136.86
1140.18
1139.83
1135.24
1128.2
1119.86
1111
1102.04
1092.64
1081.97
1068.87
1051.95
1029.76
1000.76
963.419
869.488
852.275
848.974
809.678
776.536
756.533
745.992
731.243
578.327
583.241
567.211
541.347
508.046
461.287
446.446
442.675
437.992
439.553
447.874
457.001
464.059
474.073
485.282
493.784
502.318
511.629
524.149
574.151
576.671
561.597
541.551
511.253
445.423
429.622
422.421
413.792
418.275
450.219
461.96
467.145
473.955
484.41
493.282
502.554
512.8
527.742
569.629
571.536
557.984
543.046
496.305
440.921
419.836
411.605
408.379
406.945
427.62
465.977
473.399
481.04
490.454
495.701
504.145
519.093
530.517
564.977
569.003
557.323
545.475
480.431
437.033
451.11
441.3
440.373
402.556
406.858
447.34
473.858
482.455
493.432
501.866
510.307
519.944
532.687
559.853
568.071
558.77
540.578
448.614
450.516
452.044
441.878
440.638
449.631
364.21
334.091
393.71
471.111
497.502
504.174
509.268
518.399
534.644
552.269
567.99
561.414
471.247
440.815
466.618
448.123
444.531
442.379
452.679
322.255
306.41
295.783
377.597
495.113
507.44
507.931
515.391
537.05
540.811
568.399
565.453
543.85
459.367
416.899
409.887
444.214
402.393
446.592
331.767
302.846
291.692
306.41
419.94
431.269
393.712
440.541
540.391
525.116
563.571
571.212
558.092
559.637
380.991
232.336
294.322
242.865
315.103
361.468
365.674
356.424
255.344
189.725
173.87
180.759
207.034
444.609
1137.25
1140.9
1140.91
1136.6
1129.86
1122.01
1113.94
1106.1
1097.96
1088.37
1075.93
1059.14
1036.49
1005.16
924.066
866.863
847.104
850.173
792.388
711.492
686.457
717.738
706.318
1138.32
1141.6
1141.74
1137.68
1131.41
1124.21
1117.2
1111.13
1105.07
1097.37
1086.32
1070.35
1048.13
1017.18
918.398
871.67
883.396
839.197
656.704
433.363
368.391
448.436
412.004
1139.76
1141.21
1141.13
1137.75
1132.52
1126.09
1120.14
1116.62
1113.72
1108.95
1100.16
1085.79
1064.6
1036.04
985.544
913.497
850.133
554.639
317.104
249.427
221.279
139.794
24.1762
1141.07
1139.32
1138.92
1138.19
1135.68
1129.32
1122.87
1122.73
1124.88
1124.45
1118.86
1106.82
1087.15
1059.58
1025.94
925.581
551.107
91.0366
15.0509
56.7482
83.6827
50.5475
20.4581
1065.7
1004.2
995.163
989.33
981.243
953.698
963.743
1050.91
1126.68
1146.81
1146.28
1138.62
1122.6
1071.21
795.475
427.906
101.872
12.6309
8.30303
4.5666
2.96947
3.45385
19.3181
357.054
267.024
270.807
330.395
450.395
442.434
317.234
430.878
559.464
769.502
874.906
913.397
801.46
427.299
97.9685
40.7253
37.1732
19.4046
6.75968
3.16573
2.56904
2.31058
1.95034
52.9239
53.6828
58.3314
181.224
401.569
382.058
83.2709
45.1995
38.9083
83.2799
109.382
123.039
91.9016
57.8805
57.7307
53.8048
45.1542
34.6808
20.0013
4.69057
2.45507
2.26731
1.98521
52.1001
54.0063
143.782
353.8
398.893
406.325
112.955
22.6774
12.7606
15.185
22.6614
30.5761
55.0877
105.045
102.113
99.5324
93.3705
34.181
14.7012
6.4474
2.37605
5.32319
5.14019
63.5395
172.133
153.873
43.0511
106.808
210.403
245.654
172.585
1.44814
0.873026
28.1307
105.705
106.491
105.694
88.578
25.2361
0.107542
8.22722
2.83997
2.75384
4.85837
5.20894
1.85387
64.6282
87.4706
11.2386
0.505597
0.358785
53.553
255.005
94.4433
0.388086
-0.63684
12.9032
81.8195
90.463
12.3635
-0.41311
-0.086796
0.0998881
0.0480463
0.162008
0.544208
1.67562
1.03859
0.607334
50.1527
32.9127
0.0790671
0.0923914
-0.0254287
-0.22216
-0.571219
10.6898
14.7227
-0.627964
-0.56235
-0.670133
-0.415919
-0.212144
-0.140588
-0.0840204
-0.0210155
0.0201462
0.111014
0.205312
0.305627
0.415363
0.495127
43.4747
20.3483
-0.0509166
-0.0234468
-0.132317
-0.263752
-0.340598
-0.426824
-0.548036
-0.526527
-0.502158
-0.403262
-0.304822
-0.223311
-0.1639
-0.103669
-0.039568
0.0236124
0.102387
0.183701
0.265236
0.339385
0.395531
24.1682
7.25039
-0.129308
-0.117995
-0.185444
-0.264211
-0.320666
-0.357175
-0.389613
-0.422036
-0.401413
-0.348894
-0.285389
-0.221196
-0.160932
-0.0993672
-0.0376678
0.023305
0.0893496
0.155527
0.218755
0.274935
0.319478
0.515047
-0.373112
-0.236787
-0.220335
-0.243626
-0.280564
-0.311922
-0.334072
-0.34692
-0.35352
-0.33619
-0.298698
-0.249746
-0.196435
-0.143055
-0.0888297
-0.0347793
0.0188522
0.0737872
0.127719
0.178513
0.223554
0.260105
-0.293675
-0.347956
-0.291559
-0.272158
-0.274136
-0.285009
-0.298369
-0.30802
-0.310623
-0.304401
-0.285272
-0.253954
-0.214301
-0.170503
-0.125317
-0.0792649
-0.0330244
0.0130049
0.0589748
0.103564
0.145314
0.182302
0.213006
-0.250759
-0.261174
-0.290788
-0.279082
-0.280313
-0.28017
-0.282377
-0.282852
-0.278509
-0.267147
-0.247326
-0.219746
-0.186522
-0.14988
-0.111483
-0.0720927
-0.0323962
0.00707155
0.0459595
0.0834057
0.11837
0.149428
0.175817
-0.246906
-0.149073
-0.233868
-0.267037
-0.270178
-0.267125
-0.264022
-0.259343
-0.251073
-0.237727
-0.218532
-0.193983
-0.165347
-0.133949
-0.100848
-0.0667868
-0.0324261
0.00167331
0.0350376
0.0670307
0.0968804
0.123518
0.146602
-0.253129
-0.113783
-0.180938
-0.246263
-0.252107
-0.248136
-0.243168
-0.236402
-0.226641
-0.212999
-0.195088
-0.17324
-0.148253
-0.120978
-0.0921784
-0.0624911
-0.0325106
-0.00277373
0.0262382
0.0540053
0.0799192
0.103145
0.123556
-0.236585
-0.216061
-0.204108
-0.222662
-0.229251
-0.225682
-0.220541
-0.213478
-0.203737
-0.190823
-0.174587
-0.155255
-0.133395
-0.109587
-0.0844185
-0.0584272
-0.0321338
-0.00603074
0.019424
0.0437797
0.0665287
0.0869816
0.105115
-0.215972
-0.211412
-0.209326
-0.206114
-0.204971
-0.202075
-0.197454
-0.19089
-0.181904
-0.170211
-0.155778
-0.138811
-0.119703
-0.098912
-0.0769024
-0.0541245
-0.0310267
-0.00805328
0.0143673
0.0358309
0.0558999
0.0739762
0.0900688
-0.196227
-0.189579
-0.185996
-0.18418
-0.182166
-0.17939
-0.175282
-0.169376
-0.161321
-0.150941
-0.138249
-0.123424
-0.106766
-0.0886314
-0.0694028
-0.0494619
-0.0291956
-0.00899567
0.0107531
0.0296888
0.0474241
0.0634223
0.0776873
-0.178244
-0.171086
-0.166136
-0.16356
-0.161429
-0.158755
-0.15496
-0.149607
-0.142405
-0.133224
-0.122088
-0.109143
-0.0946248
-0.0788146
-0.06203
-0.044595
-0.02684
-0.00910394
0.00827637
0.0249809
0.0406643
0.0548385
0.0674909
-0.161852
-0.155055
-0.149426
-0.146039
-0.143458
-0.140631
-0.13694
-0.131971
-0.125461
-0.117295
-0.107486
-0.0961496
-0.0834693
-0.0696677
-0.055009
-0.0397668
-0.0242213
-0.00866075
0.00662525
0.0213581
0.0352313
0.0478025
0.0590427
-0.146938
-0.14091
-0.135194
-0.131219
-0.128135
-0.125026
-0.1213
-0.116569
-0.110592
-0.103253
-0.0945495
-0.0845677
-0.0734466
-0.0613643
-0.0485388
-0.0352002
-0.0215845
-0.00793463
0.00550404
0.018493
0.0307641
0.0419203
0.051923
-0.133361
-0.128191
-0.122766
-0.118507
-0.11504
-0.111656
-0.107847
-0.10327
-0.0977041
-0.0910359
-0.0832488
-0.074403
-0.0646025
-0.0539881
-0.0427394
-0.0310492
-0.0191153
-0.00714106
0.00466785
0.0161105
0.0269561
0.0368534
0.0457614
-0.120977
-0.116583
-0.111629
-0.107349
-0.103679
-0.100114
-0.0962478
-0.0917969
-0.0865695
-0.0804609
-0.0734457
-0.065563
-0.0568893
-0.0475351
-0.0376488
-0.0273905
-0.0169254
-0.00642329
0.00394493
0.014012
0.0235823
0.0323489
0.0402744
-0.109654
-0.1059
-0.101452
-0.0973246
-0.0936188
-0.0899911
-0.0861351
-0.0818268
-0.0769095
-0.0712925
-0.0649481
-0.0578998
-0.0502001
-0.0419398
-0.0332401
-0.0242332
-0.0150565
-0.00585133
0.00324055
0.0120809
0.0205053
0.0282485
0.03528
-0.0992572
-0.0960173
-0.0920398
-0.0881553
-0.0845382
-0.0809576
-0.0771886
-0.0730618
-0.068455
-0.0632943
-0.0575529
-0.0512423
-0.0444003
-0.0371014
-0.0294442
-0.0215377
-0.0134958
-0.00543646
0.00252253
0.0102669
0.0176595
0.0244726
0.0306838
-0.0896584
-0.0868322
-0.0832716
-0.0796697
-0.0762229
-0.0727749
-0.0691624
-0.0652609
-0.0609785
-0.056257
-0.0510723
-0.045427
-0.0393507
-0.0329052
-0.0261706
-0.0192367
-0.0121982
-0.00515381
0.00179811
0.00856292
0.0150264
0.0209943
0.0264523
-0.0807495
-0.0782623
-0.0750712
-0.0717654
-0.0685394
-0.0652843
-0.0618821
-0.0582434
-0.0543007
-0.0500086
-0.0453445
-0.0403065
-0.0349211
-0.0292391
-0.0233259
-0.0172554
-0.0111068
-0.00496315
0.00109299
0.006983
0.0126119
0.0178149
0.0225847
-0.0724476
-0.0702449
-0.0673858
-0.0643788
-0.0614035
-0.0583811
-0.055227
-0.0518783
-0.0482855
-0.044412
-0.0402365
-0.0357583
-0.0310007
-0.0260054
-0.0208262
-0.0155244
-0.0101666
-0.0048229
0.000436941
0.00554739
0.0104296
0.0149441
0.0190888
-0.0646899
-0.0627319
-0.0601755
-0.0574648
-0.0547563
-0.0519913
-0.0491101
-0.0460689
-0.0428294
-0.039361
-0.035646
-0.0316859
-0.0275006
-0.0231244
-0.0186021
-0.0139855
-0.0093308
-0.00469766
-0.000145093
0.00427202
0.00848806
0.0123852
0.0159648
-0.0574252
-0.0556823
-0.0534048
-0.0509833
-0.0485485
-0.0460557
-0.0434629
-0.0407382
-0.0378499
-0.0347721
-0.0314921
-0.028012
-0.0243486
-0.0205309
-0.0165973
-0.0125918
-0.00856279
-0.00456115
-0.000637025
0.00316345
0.00678554
0.0101298
0.0131993
-0.0506179
-0.0490561
-0.047035
-0.0448914
-0.0427311
-0.0405194
-0.0382249
-0.03582
-0.033278
-0.0305772
-0.0277073
-0.024671
-0.0214834
-0.0181701
-0.0147648
-0.0113059
-0.00783517
-0.00439646
-0.00103237
0.00221829
0.00530986
0.00815859
0.0107678
-0.0441913
-0.0428017
-0.0410182
-0.0391388
-0.037252
-0.0353284
-0.0333391
-0.0312566
-0.029055
-0.0267155
-0.0242303
-0.0216037
-0.0188504
-0.0159943
-0.0130655
-0.0100982
-0.00712882
-0.00419494
-0.00133264
0.0014256
0.00404179
0.0064457
0.00863998
-0.0381137
-0.0368742
-0.0353028
-0.0336736
-0.0320622
-0.030436
-0.0287587
-0.0269974
-0.025126
-0.023129
-0.0210027
-0.0187543
-0.0163993
-0.0139607
-0.0114661
-0.00894561
-0.00643084
-0.00395369
-0.00154431
0.000770435
0.00295913
0.00496342
0.00678448
-0.032339
-0.0312258
-0.0298397
-0.0284516
-0.0271241
-0.0258054
-0.0244416
-0.0229929
-0.0214351
-0.0197589
-0.0179666
-0.0160691
-0.0140834
-0.0120313
-0.00993788
-0.00782926
-0.00573213
-0.00367285
-0.00167607
0.000236444
0.0020391
0.00368404
0.00517062
-0.0268102
-0.0258017
-0.0245776
-0.0234387
-0.0224133
-0.021408
-0.0203479
-0.0191921
-0.017925
-0.0165469
-0.0150669
-0.0134992
-0.0118613
-0.0101733
-0.00845709
-0.00673434
-0.00502656
-0.00335463
-0.00173785
-0.00019328
0.00125885
0.00258022
0.00376842
-0.021457
-0.0205307
-0.0194706
-0.0186283
-0.017931
-0.0172301
-0.0164454
-0.0155514
-0.014549
-0.0134485
-0.0122641
-0.0110112
-0.00970633
-0.00836683
-0.00701037
-0.00565383
-0.00431332
-0.00300419
-0.00174057
-0.000534928
0.000597762
0.00162821
0.00255182
-0.0163324
-0.0154818
-0.0146308
-0.0141084
-0.0137208
-0.0132755
-0.0127153
-0.0120455
-0.0112834
-0.0104451
-0.00954501
-0.00859693
-0.00761441
-0.006611
-0.00559968
-0.00459218
-0.00359918
-0.00263062
-0.00169546
-0.000801605
4.11309e-05
0.000812301
0.00150419
-0.0113066
-0.0113072
-0.0104598
-0.00998047
-0.00974932
-0.00945592
-0.00905735
-0.00858156
-0.00804855
-0.00746966
-0.0068541
-0.0062111
-0.00554984
-0.00487921
-0.00420721
-0.00354027
-0.00288361
-0.00224171
-0.00161832
-0.00101664
-0.00044139
9.68658e-05
0.000600419
-0.00410073
-0.0079991
-0.00540436
-0.0046178
-0.00438163
-0.00419578
-0.00399818
-0.00379581
-0.00358988
-0.00338027
-0.00316836
-0.0029567
-0.00274785
-0.00254363
-0.00234461
-0.00214965
-0.00195635
-0.0017616
-0.001562
-0.00135417
-0.00113598
-0.000907815
-0.000662467
670.83
649.837
631.834
606.388
301.876
270.231
295.423
275.087
25.4427
26.6556
75.6337
84.4258
20.4633
32.018
69.0518
35.6709
17.3473
27.7101
1.25285
1.2141
1.00076
0.968077
1.00079
0.971238
1.14391
0.918838
0.901511
0.883728
1.3168
0.844586
0.827598
0.814028
0.759059
0.757837
0.741057
0.720787
0.640129
0.637589
0.628621
0.619541
0.516604
0.522888
0.525607
0.525937
0.419396
0.430956
0.439426
0.444883
0.342978
0.356456
0.367815
0.376423
0.282151
0.296278
0.309219
0.319662
0.23357
0.247813
0.261508
0.272887
0.194983
0.208953
0.222785
0.234448
0.164386
0.177805
0.191354
0.202851
0.139958
0.152652
0.165658
0.176713
0.120129
0.132001
0.144309
0.154769
0.103643
0.114593
0.12609
0.135885
0.0898233
0.0997532
0.110297
0.119328
0.0782839
0.0871731
0.0966775
0.104847
0.0686337
0.0765322
0.0849923
0.0922618
0.0604629
0.0674664
0.0749492
0.0813528
0.0533827
0.0595988
0.0662113
0.0718359
0.0470783
0.0526034
0.0584586
0.0634127
0.0413393
0.0462488
0.0514435
0.0558285
0.0360531
0.0404035
0.0450114
0.0489067
0.0311793
0.0350141
0.0390891
0.0425496
0.0267165
0.0300731
0.0336556
0.0367178
0.0226735
0.0255871
0.0287108
0.0313998
0.0190501
0.0215552
0.0242516
0.0265885
0.0158307
0.0179622
0.020263
0.0222688
0.0129886
0.0147807
0.0167186
0.0184161
0.0104911
0.0119775
0.0135855
0.0149987
0.00830472
0.00951738
0.0108278
0.0119813
0.00639684
0.00736597
0.00840983
0.0093288
0.00473562
0.00549008
0.00629794
0.00700836
0.003293
0.00386145
0.00446498
0.00499611
0.00203937
0.00244639
0.00288024
0.00327225
0.00101613
0.00131466
0.00162139
0.00189513
-0.000421447
-0.000251967
-7.85951e-05
8.43409e-05
374.454
391.979
449.077
410.071
312.739
196.265
161.343
148.525
156.256
202.971
357.284
370.696
365.402
257.961
165.074
167.765
194.051
172.715
156.869
114.933
113.17
164.04
144.656
157.879
203.138
174.194
96.7227
81.0892
62.2145
207.105
384.009
366.077
159.17
163.964
218.694
212.633
160.023
130.977
75.098
70.7616
110.115
135.478
191.417
201.549
196.578
174.686
49.1411
47.1034
48.1912
147.101
213.813
156.13
197.666
226.308
210.749
131.345
129.709
28.1719
40.1891
83.7793
158.472
173.841
200.306
180.507
86.6774
41.1714
43.2003
41.9778
42.861
70.2566
213.477
225.575
229.545
232.393
215.753
128.21
1.08786
0.903635
1.12029
16.3647
33.5479
26.8493
14.9188
21.1556
43.3978
48.2506
40.9088
40.1981
48.1425
215.939
227.956
231.731
232.187
235.251
236.285
0.915132
0.843917
0.772435
0.691935
0.777012
1.49201
11.736
31.7879
69.8929
73.1933
64.7184
40.0903
39.7289
131.522
236.841
198.819
126.42
226.664
215.138
0.85904
0.817671
0.815494
0.85412
0.866856
8.73738
25.8419
51.8112
70.6452
72.6513
74.5918
69.3826
43.9627
56.8689
101.93
51.3631
42.5749
26.1958
6.17798
0.793857
0.764844
0.777304
1.10016
1.95448
2.30768
8.53468
15.5211
26.965
48.9584
74.635
75.1694
74.4772
54.345
8.90775
1.33003
11.7859
0.48919
0.464806
0.690698
0.659812
0.634814
0.607454
0.579855
0.53976
0.448515
0.356239
0.496259
2.34938
13.1849
40.1812
65.6739
57.8354
12.1591
0.912013
2.19671
0.843699
0.423581
0.60574
0.597429
0.596616
0.564509
0.506354
0.462953
0.405027
0.360698
0.599783
1.12681
0.569324
0.292237
6.75902
9.75237
6.88829
0.866663
0.369588
0.474499
0.39417
0.523296
0.536228
0.54556
0.521115
0.482035
0.408541
0.358974
0.427186
1.31275
1.40182
0.700317
0.193413
0.151336
0.18103
0.298465
0.408947
0.385358
0.366262
0.376988
0.449193
0.446679
0.477656
0.4699
0.443833
0.365083
0.321693
0.332214
0.462015
0.429722
0.25682
0.218252
0.213086
0.225389
0.26935
0.651015
0.492119
0.396325
0.367731
0.385468
0.386753
0.397148
0.425393
0.405299
0.33858
0.293792
0.257005
0.222309
0.201469
0.187207
0.225411
0.53583
0.666842
0.671718
0.684267
0.557723
0.405355
0.498709
0.331526
0.336672
0.337356
0.382365
0.371831
0.34194
0.270573
0.242015
0.21627
0.348678
0.704189
0.719774
0.699791
0.691236
0.696035
0.454658
0.481581
0.528327
0.570857
0.286221
0.293855
0.293693
0.316311
0.342378
0.326603
0.291062
0.225776
0.278085
0.784765
0.759988
0.737277
0.718992
0.489579
0.174142
0.274214
0.557112
0.568073
0.564708
0.248293
0.257308
0.259297
0.255373
0.290966
0.303769
0.287638
0.231619
0.224091
0.473694
0.719993
0.569968
0.192129
0.0923303
0.0896604
0.0937984
0.27975
0.552531
0.555824
0.216531
0.226088
0.229534
0.227352
0.21997
0.239135
0.269434
0.24905
0.170625
0.146004
0.143134
0.116436
0.0894805
0.0843452
0.0802538
0.0750966
0.103236
0.521961
0.545331
0.189792
0.199307
0.203536
0.202867
0.197648
0.188449
0.179262
0.170812
0.155186
0.132652
0.110561
0.0965635
0.0870839
0.0788463
0.071879
0.0647502
0.0916384
0.0922218
0.257673
0.167008
0.176109
0.180666
0.180984
0.177285
0.170035
0.160261
0.149857
0.136509
0.120374
0.105772
0.095641
0.0858461
0.0766246
0.0656818
0.0588679
0.0535753
0.0499634
0.0588344
0.147224
0.155733
0.160338
0.161299
0.158735
0.153014
0.145267
0.137394
0.125472
0.110067
0.0975205
0.0884124
0.0795601
0.0689319
0.0615953
0.0562645
0.0530687
0.0532924
0.248804
0.129748
0.137609
0.142114
0.143492
0.14179
0.137305
0.130462
0.122574
0.114447
0.103375
0.0903919
0.0804305
0.0718052
0.0645498
0.0588244
0.0550209
0.0541975
0.104781
0.449288
0.114276
0.121448
0.125755
0.127392
0.126346
0.122866
0.117302
0.110087
0.102407
0.0944009
0.0847135
0.0756372
0.0678192
0.0614854
0.056676
0.053858
0.0540211
0.375137
0.465581
0.100658
0.107129
0.111178
0.112956
0.112409
0.109758
0.105316
0.099443
0.09255
0.0853603
0.0785677
0.0709812
0.0641625
0.0588278
0.0548311
0.0525196
0.052469
0.472852
0.482546
0.0887387
0.0945338
0.0983005
0.100143
0.0999848
0.0980179
0.0945184
0.0897962
0.0842015
0.078123
0.072167
0.066449
0.061022
0.0565376
0.0533606
0.051584
0.051536
0.321595
0.49991
0.0783015
0.0834787
0.0869699
0.0888404
0.0889954
0.0875997
0.0848952
0.08115
0.0766641
0.0717664
0.0667965
0.0621069
0.0579396
0.0545945
0.0523575
0.0514818
0.0525109
0.111705
0.5164
0.0690862
0.0737248
0.0769669
0.0788517
0.0792716
0.0783626
0.0763346
0.0734206
0.0698805
0.0659973
0.0620654
0.0583781
0.0552193
0.0528722
0.0516312
0.0518818
0.0544577
0.149716
0.530595
0.060842
0.0650233
0.0680492
0.0699442
0.0705937
0.0701062
0.0686611
0.0664604
0.0637311
0.0607205
0.0576892
0.0549053
0.0526415
0.0511839
0.050846
0.0520819
0.0556956
0.319021
0.384443
0.0533697
0.0571616
0.0599984
0.0618975
0.062744
0.0626219
0.0616819
0.0600981
0.0580685
0.0558105
0.0535565
0.0515522
0.0500591
0.049361
0.0497735
0.0517433
0.0559886
0.372397
0.299098
0.0465389
0.0499888
0.0526502
0.0545387
0.0555448
0.0557324
0.0552265
0.0541753
0.05275
0.0511406
0.0495531
0.0482106
0.0473597
0.0472795
0.0482834
0.0508015
0.0555721
0.378212
0.307753
0.0402803
0.0434147
0.0459003
0.0477531
0.0488737
0.0493107
0.0491674
0.0485687
0.0476602
0.0466049
0.0455819
0.0447899
0.0444545
0.0448425
0.046267
0.0491708
0.0543494
0.394468
0.373159
0.0345624
0.0373925
0.0396911
0.041475
0.0426582
0.0432791
0.043424
0.0431976
0.0427214
0.0421309
0.0415773
0.0412309
0.0412826
0.0419775
0.043613
0.0466587
0.0939146
0.468721
0.351002
0.0293684
0.0318972
0.0339922
0.0356703
0.0368608
0.0375973
0.0379539
0.0380196
0.0378932
0.0376832
0.0375113
0.0375086
0.0378313
0.0386913
0.0402782
0.0429176
0.248112
0.475948
0.28354
0.0246812
0.0269089
0.0287831
0.0303192
0.0314626
0.0322465
0.0327392
0.0330189
0.0331649
0.0332593
0.0333918
0.0336562
0.0341813
0.0350788
0.0364554
0.0383853
0.249992
0.482153
0.192373
0.0204777
0.0224056
0.0240437
0.0254049
0.0264497
0.0272153
0.0277715
0.0281934
0.0285429
0.0288767
0.029255
0.0297435
0.0304266
0.0313672
0.0325957
0.0341694
0.131873
0.332176
0.104554
0.0167286
0.0183609
0.0197511
0.0209081
0.0218056
0.0224884
0.0230389
0.0235406
0.0240377
0.0245621
0.0251467
0.0258302
0.0266681
0.0277103
0.0290146
0.0307271
0.0607436
0.0958407
0.0725563
0.0134013
0.0147461
0.0158802
0.0168068
0.0175088
0.0180412
0.0185181
0.0190493
0.019653
0.0203287
0.0210786
0.0219332
0.0229406
0.0241624
0.02566
0.0327085
0.0377902
0.0379088
0.0465995
0.0104632
0.0115333
0.0124082
0.013081
0.0135374
0.0138428
0.0141749
0.0147025
0.0153847
0.0161777
0.0170622
0.0180568
0.0192228
0.0252549
0.0378054
0.0424218
0.035819
0.0344236
0.0418784
0.00788615
0.00870215
0.00932307
0.00972512
0.00988546
0.00986556
0.00996509
0.0104792
0.0112344
0.0121265
0.013117
0.0142028
0.0238111
0.0352649
0.0369147
0.0391148
0.0329953
0.0302152
0.0370124
0.00565616
0.00625382
0.00664422
0.00677723
0.00658628
0.00605064
0.00571637
0.00626182
0.00713734
0.00814729
0.00923632
0.010378
0.0178645
0.0317931
0.0333556
0.0340357
0.0234233
0.0253472
0.0315176
0.00378303
0.00422198
0.00443981
0.00433958
0.00368429
0.00209467
0.000684917
0.00153426
0.00274506
0.00398536
0.00525262
0.00685947
0.00836756
0.0118528
0.0162499
0.014558
0.0152941
0.0198209
0.0252847
0.00224636
0.0025893
0.00272906
0.00246914
0.00113328
-0.00267058
-0.00615226
-0.00414993
-0.00221521
-0.000570392
0.00102606
0.00260594
0.0040451
0.00548279
0.0068623
0.00820785
0.0099472
0.0134477
0.0176953
0.000313769
0.000587112
0.000688428
0.00034081
-0.00155395
-0.00815271
-0.00952746
-0.00639802
-0.00447024
-0.00305388
-0.0017485
-0.000471204
0.000776237
0.00195747
0.00300879
0.00384717
0.00460428
0.00629217
0.00926083
)
;

boundaryField
{
    leftWall
    {
        type            fixedFluxPressure;
        gradient        uniform 0;
        value           nonuniform List<scalar> 
50
(
1142.54
1141.4
1140.21
1139.06
1138.07
1137.33
1136.91
1136.86
1137.25
1138.32
1139.76
1141.07
1065.7
357.054
52.9239
52.1001
63.5395
64.6282
50.1527
43.4747
24.1682
0.515047
-0.293675
-0.250759
-0.246906
-0.253129
-0.236585
-0.215972
-0.196227
-0.178244
-0.161852
-0.146938
-0.133361
-0.120977
-0.109654
-0.0992572
-0.0896584
-0.0807495
-0.0724476
-0.0646899
-0.0574252
-0.0506179
-0.0441913
-0.0381137
-0.032339
-0.0268102
-0.021457
-0.0163324
-0.0113066
-0.00410073
)
;
    }
    rightWall
    {
        type            fixedFluxPressure;
        gradient        uniform 0;
        value           nonuniform List<scalar> 
50
(
524.149
527.742
530.517
532.687
534.644
537.05
540.391
444.609
156.869
130.977
129.709
128.21
236.285
215.138
6.17798
0.464806
0.423581
0.39417
0.376988
0.367731
0.498709
0.570857
0.564708
0.555824
0.545331
0.257673
0.0588344
0.248804
0.449288
0.465581
0.482546
0.49991
0.5164
0.530595
0.384443
0.299098
0.307753
0.373159
0.351002
0.28354
0.192373
0.104554
0.0725563
0.0465995
0.0418784
0.0370124
0.0315176
0.0252847
0.0176953
0.00926083
)
;
    }
    lowerWall
    {
        type            fixedFluxPressure;
        gradient        uniform 0;
        value           nonuniform List<scalar> 
62
(
1142.54
1144.93
1144.16
1139.44
1131.27
1120.34
1107.26
1092.55
1076.59
1059.4
1040.73
1020.18
996.634
971.142
943.429
913.759
883.777
856.365
828.566
801.9
778.985
765.037
765.182
765.182
764.568
763.109
759.694
755.447
750.196
742.803
731.243
670.83
649.837
631.834
606.388
578.327
574.151
569.629
564.977
559.853
552.269
540.811
525.116
578.327
583.241
567.211
541.347
508.046
461.287
446.446
442.675
437.992
439.553
447.874
457.001
464.059
474.073
485.282
493.784
502.318
511.629
524.149
)
;
    }
    atmosphere
    {
        type            totalPressure;
        rho             rho;
        psi             none;
        gamma           1;
        p0              uniform 0;
        value           nonuniform List<scalar> 
46
(
-0.000602831
-0.000791836
-0.000547274
-0.000438863
-0.00039101
-0.000377144
-0.000386464
-0.000414622
-0.000460415
-0.000523965
-0.000605501
-0.000704601
-0.00081969
-0.000947718
-0.00108402
-0.00122238
-0.00135528
-0.00147437
-0.00157114
-0.00163776
-0.00166786
-0.00165705
-0.00160298
-0.00152625
-0.0014539
-0.00135359
-0.00122824
-0.000999978
-0.000698367
-0.000441874
-0.000242545
-0.000105315
-1.73784e-05
0
0
0
0
0
0
0
0
0
0
0
0
0
)
;
    }
    defaultFaces
    {
        type            empty;
    }
}


// ************************************************************************* //
