/*--------------------------------*- C++ -*----------------------------------*\
| =========                 |                                                 |
| \\      /  F ield         | OpenFOAM: The Open Source CFD Toolbox           |
|  \\    /   O peration     | Version:  2.3.0                                 |
|   \\  /    A nd           | Web:      www.OpenFOAM.org                      |
|    \\/     M anipulation  |                                                 |
\*---------------------------------------------------------------------------*/
FoamFile
{
    version     2.0;
    format      ascii;
    class       surfaceScalarField;
    location    "1.3";
    object      phi;
}
// * * * * * * * * * * * * * * * * * * * * * * * * * * * * * * * * * * * * * //

dimensions      [0 3 -1 0 0 0 0];

internalField   nonuniform List<scalar> 
4432
(
2.49787e-06
-2.49787e-06
5.78458e-06
-3.28673e-06
8.82125e-06
-3.03668e-06
1.14577e-05
-2.63648e-06
1.36941e-05
-2.23634e-06
1.55068e-05
-1.81276e-06
1.6841e-05
-1.33414e-06
1.76103e-05
-7.69326e-07
1.76881e-05
-7.77969e-08
1.70056e-05
6.82464e-07
1.55861e-05
1.41948e-06
1.35147e-05
2.07147e-06
1.05173e-05
2.99738e-06
6.93049e-06
3.58682e-06
3.62145e-06
3.30902e-06
1.5252e-06
2.09623e-06
1.42494e-06
1.00283e-07
3.23004e-06
-1.8051e-06
6.08307e-06
-2.85302e-06
8.81976e-06
-2.73673e-06
1.00852e-05
-1.26546e-06
7.15591e-06
2.92932e-06
7.1559e-06
2.72e-06
-5.21787e-06
5.69077e-06
-6.25751e-06
8.49212e-06
-5.83804e-06
1.1003e-05
-5.14739e-06
1.31233e-05
-4.35658e-06
1.47726e-05
-3.46206e-06
1.58825e-05
-2.44406e-06
1.63982e-05
-1.28504e-06
1.62861e-05
3.43019e-08
1.54857e-05
1.48285e-06
1.3932e-05
2.97322e-06
1.16057e-05
4.39773e-06
8.68727e-06
5.91582e-06
5.44837e-06
6.82571e-06
2.62407e-06
6.13331e-06
8.59748e-07
3.86055e-06
4.28082e-07
5.31984e-07
1.32891e-06
-2.70596e-06
2.95488e-06
-4.47897e-06
4.60219e-06
-4.38403e-06
5.72098e-06
-2.38425e-06
5.40407e-06
3.24624e-06
1.256e-05
2.79416e-06
-8.01203e-06
5.67204e-06
-9.1354e-06
8.34173e-06
-8.50773e-06
1.07155e-05
-7.52114e-06
1.26828e-05
-6.32387e-06
1.41497e-05
-4.92905e-06
1.50427e-05
-3.33704e-06
1.53103e-05
-1.55265e-06
1.49214e-05
4.23218e-07
1.38522e-05
2.55207e-06
1.20959e-05
4.72955e-06
9.69859e-06
6.79507e-06
6.95485e-06
8.65955e-06
4.2227e-06
9.55786e-06
1.88811e-06
8.46791e-06
2.99748e-07
5.44891e-06
-3.44214e-07
1.17599e-06
-4.45228e-08
-3.00565e-06
7.78137e-07
-5.3016e-06
1.64625e-06
-5.25212e-06
2.3771e-06
-3.11507e-06
2.73789e-06
2.88547e-06
1.52979e-05
2.75328e-06
-1.07653e-05
5.63656e-06
-1.20187e-05
8.2591e-06
-1.11303e-05
1.05373e-05
-9.7993e-06
1.23728e-05
-8.15941e-06
1.36734e-05
-6.22962e-06
1.43675e-05
-4.03116e-06
1.44133e-05
-1.59844e-06
1.37976e-05
1.03893e-06
1.25333e-05
3.81635e-06
1.06653e-05
6.59753e-06
8.30875e-06
9.15163e-06
5.77557e-06
1.11927e-05
3.41331e-06
1.19201e-05
1.38877e-06
1.04925e-05
-1.05075e-07
6.94274e-06
-9.40764e-07
2.01168e-06
-1.10344e-06
-2.84298e-06
-9.2533e-07
-5.47968e-06
-7.44999e-07
-5.43245e-06
-4.37457e-07
-3.42261e-06
2.32338e-07
2.21569e-06
1.55302e-05
2.71574e-06
-1.34811e-05
5.63551e-06
-1.49385e-05
8.24872e-06
-1.37435e-05
1.04619e-05
-1.20125e-05
1.21881e-05
-9.88556e-06
1.334e-05
-7.38159e-06
1.38529e-05
-4.54403e-06
1.37006e-05
-1.44615e-06
1.28964e-05
1.84309e-06
1.1492e-05
5.2208e-06
9.5803e-06
8.50921e-06
7.3256e-06
1.14063e-05
5.02958e-06
1.34887e-05
2.96132e-06
1.39884e-05
1.18199e-06
1.22718e-05
-2.41594e-07
8.36631e-06
-1.24036e-06
3.01044e-06
-1.75902e-06
-2.32433e-06
-2.16603e-06
-5.07267e-06
-2.66341e-06
-4.93509e-06
-2.87624e-06
-3.20978e-06
-2.14919e-06
1.48862e-06
1.3381e-05
2.74708e-06
-1.62281e-05
5.71858e-06
-1.791e-05
8.33083e-06
-1.63557e-05
1.04923e-05
-1.4174e-05
1.21243e-05
-1.15176e-05
1.31437e-05
-8.40094e-06
1.34937e-05
-4.894e-06
1.31687e-05
-1.12119e-06
1.2214e-05
2.79774e-06
1.07205e-05
6.71436e-06
8.82304e-06
1.04066e-05
6.71748e-06
1.35119e-05
4.67847e-06
1.55277e-05
2.89822e-06
1.57686e-05
1.34714e-06
1.38229e-05
-3.22188e-08
9.74567e-06
-1.11245e-06
4.0907e-06
-1.90803e-06
-1.52875e-06
-2.84369e-06
-4.13702e-06
-3.99913e-06
-3.77965e-06
-4.80476e-06
-2.40415e-06
-3.90648e-06
5.90349e-07
9.47452e-06
2.87859e-06
-1.91067e-05
5.90199e-06
-2.09334e-05
8.50238e-06
-1.89561e-05
1.06123e-05
-1.62839e-05
1.21594e-05
-1.30646e-05
1.30613e-05
-9.30287e-06
1.32696e-05
-5.10229e-06
1.2803e-05
-6.54588e-07
1.17422e-05
3.85859e-06
1.02156e-05
8.24097e-06
8.3923e-06
1.22299e-05
6.48461e-06
1.54196e-05
4.73329e-06
1.72791e-05
3.25627e-06
1.72456e-05
1.94326e-06
1.51359e-05
6.43213e-07
1.10457e-05
-4.27728e-07
5.16166e-06
-1.45292e-06
-5.03542e-07
-2.82956e-06
-2.76039e-06
-4.57487e-06
-2.03433e-06
-6.00081e-06
-9.78216e-07
-5.22128e-06
-1.89165e-07
4.25324e-06
3.09845e-06
-2.22052e-05
6.15698e-06
-2.39919e-05
8.72286e-06
-2.1522e-05
1.07731e-05
-1.83342e-05
1.22421e-05
-1.45337e-05
1.3044e-05
-1.01047e-05
1.31366e-05
-5.19484e-06
1.25672e-05
-8.52358e-08
1.1453e-05
4.97284e-06
9.95745e-06
9.73646e-06
8.27433e-06
1.39131e-05
6.61787e-06
1.7076e-05
5.18902e-06
1.87079e-05
4.05988e-06
1.83748e-05
2.9803e-06
1.62155e-05
1.90437e-06
1.21216e-05
8.76868e-07
6.18917e-06
-3.43655e-07
7.16956e-07
-2.05075e-06
-1.0533e-06
-4.25656e-06
1.71483e-07
-6.1649e-06
9.30112e-07
-5.91296e-06
-4.411e-07
-1.65973e-06
6.08712e-06
-6.08713e-06
1.62667e-05
-1.01796e-05
2.19023e-05
-5.63563e-06
1.9716e-05
2.18634e-06
1.05911e-05
9.12492e-06
3.18291e-06
7.40814e-06
5.47726e-06
-2.29436e-06
1.22951e-05
-6.81781e-06
1.63112e-05
-4.01612e-06
1.50747e-05
1.2365e-06
1.11356e-05
3.93909e-06
7.89126e-06
3.2443e-06
6.31251e-06
1.5787e-06
6.78468e-06
-4.72157e-07
8.44198e-06
-1.65728e-06
8.71195e-06
-2.6998e-07
5.9737e-06
2.73828e-06
1.31316e-06
4.66054e-06
1.31316e-06
6.66883e-06
-1.2756e-05
1.49566e-05
-1.84674e-05
2.04093e-05
-1.10883e-05
2.07633e-05
1.83236e-06
1.50318e-05
1.48564e-05
9.37389e-06
1.3066e-05
9.41474e-06
-2.33525e-06
1.31361e-05
-1.05392e-05
1.64085e-05
-7.28846e-06
1.59652e-05
1.67972e-06
1.2813e-05
7.09128e-06
9.83303e-06
6.2243e-06
8.23214e-06
3.1796e-06
8.04584e-06
-2.85857e-07
8.86442e-06
-2.47585e-06
9.17261e-06
-5.78201e-07
7.42013e-06
4.49076e-06
3.50121e-06
8.57945e-06
4.81436e-06
6.82426e-06
-1.95803e-05
1.41266e-05
-2.57697e-05
1.87067e-05
-1.56685e-05
1.95009e-05
1.03824e-06
1.5713e-05
1.86444e-05
1.21352e-05
1.66438e-05
1.15508e-05
-1.7509e-06
1.35088e-05
-1.24972e-05
1.57139e-05
-9.49363e-06
1.59038e-05
1.48986e-06
1.33234e-05
9.67161e-06
1.07925e-05
8.75527e-06
9.2856e-06
4.68649e-06
8.74355e-06
2.56174e-07
9.06548e-06
-2.79776e-06
9.25921e-06
-7.71938e-07
8.04191e-06
5.70807e-06
4.76755e-06
1.18538e-05
9.58191e-06
6.94552e-06
-2.65258e-05
1.35132e-05
-3.23374e-05
1.73804e-05
-1.95357e-05
1.80722e-05
3.46361e-07
1.58698e-05
2.08468e-05
1.3808e-05
1.87056e-05
1.29015e-05
-8.44439e-07
1.36027e-05
-1.31984e-05
1.44701e-05
-1.0361e-05
1.51427e-05
8.17216e-07
1.35191e-05
1.12952e-05
1.1491e-05
1.07834e-05
1.00642e-05
6.11325e-06
9.21927e-06
1.10113e-06
9.1655e-06
-2.74399e-06
9.23105e-06
-8.37489e-07
8.27764e-06
6.66147e-06
5.24362e-06
1.48878e-05
1.48255e-05
7.25297e-06
-3.37788e-05
1.29157e-05
-3.80001e-05
1.61523e-05
-2.27723e-05
1.69783e-05
-4.79695e-07
1.65366e-05
2.12885e-05
1.54637e-05
1.97785e-05
1.40811e-05
5.38102e-07
1.35935e-05
-1.27108e-05
1.31299e-05
-9.89738e-06
1.33082e-05
6.38998e-07
1.27904e-05
1.1813e-05
1.19518e-05
1.1622e-05
1.08066e-05
7.25848e-06
9.5607e-06
2.34705e-06
9.1354e-06
-2.31868e-06
8.98612e-06
-6.88217e-07
8.09744e-06
7.55016e-06
5.20166e-06
1.77836e-05
2.00272e-05
7.67409e-06
-4.14529e-05
1.21247e-05
-4.24507e-05
1.47891e-05
-2.54367e-05
1.6329e-05
-2.0196e-06
1.75363e-05
2.00812e-05
1.7051e-05
2.02639e-05
1.52111e-05
2.37805e-06
1.35548e-05
-1.10545e-05
1.15995e-05
-7.94209e-06
1.04312e-05
1.80737e-06
1.06799e-05
1.15642e-05
1.16904e-05
1.06115e-05
1.15689e-05
7.37992e-06
9.85459e-06
4.0614e-06
8.86708e-06
-1.33118e-06
8.39883e-06
-2.19968e-07
7.51205e-06
8.43695e-06
4.74466e-06
2.05509e-05
2.47719e-05
8.18103e-06
-4.96339e-05
1.09189e-05
-4.51885e-05
1.30711e-05
-2.7589e-05
1.5256e-05
-4.20444e-06
1.79339e-05
1.74033e-05
1.84588e-05
1.9739e-05
1.63831e-05
4.45376e-06
1.35359e-05
-8.20734e-06
9.87906e-06
-4.28526e-06
7.2949e-06
4.39153e-06
7.74448e-06
1.11146e-05
9.8896e-06
8.46635e-06
1.14067e-05
5.86279e-06
9.95318e-06
5.51492e-06
8.18603e-06
4.35977e-07
7.28586e-06
6.80193e-07
6.70302e-06
9.01979e-06
4.45874e-06
2.27952e-05
2.92306e-05
8.83716e-06
-5.8471e-05
9.16538e-06
-4.55167e-05
1.08413e-05
-2.92649e-05
1.34872e-05
-6.8503e-06
1.71966e-05
1.36939e-05
1.93519e-05
1.75836e-05
1.77257e-05
6.07997e-06
1.3575e-05
-4.05659e-06
8.1814e-06
1.10829e-06
4.32483e-06
8.24811e-06
5.04724e-06
1.03922e-05
7.51022e-06
6.00337e-06
9.4861e-06
3.88691e-06
8.94274e-06
6.05828e-06
6.35312e-06
3.0256e-06
5.30272e-06
1.7306e-06
6.22272e-06
8.0998e-06
5.61758e-06
2.34003e-05
3.48482e-05
7.24469e-06
-2.94499e-05
1.38583e-05
-3.06055e-05
1.91414e-05
-2.68051e-05
2.32683e-05
-2.24611e-05
2.61627e-05
-1.7428e-05
2.76046e-05
-1.15466e-05
2.75058e-05
-5.09601e-06
2.6076e-05
1.34452e-06
2.36939e-05
7.35488e-06
2.081e-05
1.26205e-05
1.78843e-05
1.68387e-05
1.53397e-05
1.96206e-05
1.34631e-05
2.05844e-05
1.22245e-05
1.96134e-05
1.09068e-05
1.75331e-05
9.55597e-06
1.34725e-05
7.71328e-06
8.03186e-06
4.62294e-06
3.80729e-06
2.4025e-07
3.3294e-06
-5.43347e-06
5.8452e-06
-9.85483e-06
5.35148e-06
-9.89977e-06
-3.96164e-07
-5.66265e-06
-5.89685e-06
7.86362e-06
-3.73135e-05
1.3816e-05
-3.65579e-05
1.8426e-05
-3.1415e-05
2.21173e-05
-2.61524e-05
2.47697e-05
-2.00804e-05
2.59971e-05
-1.27741e-05
2.56493e-05
-4.74812e-06
2.41083e-05
2.88548e-06
2.19246e-05
9.53854e-06
1.96478e-05
1.48973e-05
1.77356e-05
1.87509e-05
1.65076e-05
2.08486e-05
1.60374e-05
2.10547e-05
1.61263e-05
1.95245e-05
1.65804e-05
1.7079e-05
1.67234e-05
1.33295e-05
1.5694e-05
9.06122e-06
1.23332e-05
7.16805e-06
7.12626e-06
8.53637e-06
1.83039e-06
1.1141e-05
-1.11834e-06
8.30021e-06
-2.24208e-06
7.27569e-07
-4.69682e-06
-3.20793e-06
7.10564e-06
-4.44191e-05
1.15072e-05
-4.09595e-05
1.50986e-05
-3.50064e-05
1.83635e-05
-2.94174e-05
2.10212e-05
-2.27381e-05
2.23061e-05
-1.4059e-05
2.18856e-05
-4.32759e-06
2.0433e-05
4.33806e-06
1.86986e-05
1.12729e-05
1.72876e-05
1.63083e-05
1.66002e-05
1.94384e-05
1.68325e-05
2.06163e-05
1.78685e-05
2.00187e-05
1.93544e-05
1.80386e-05
2.13268e-05
1.51066e-05
2.32797e-05
1.13767e-05
2.35034e-05
8.83746e-06
1.94937e-05
1.11778e-05
1.0315e-05
1.77151e-05
5.44064e-06
1.60154e-05
5.75639e-06
7.98444e-06
6.11524e-06
3.68732e-07
2.68251e-06
-1.26415e-06
4.31046e-06
-4.87296e-05
6.17343e-06
-4.28225e-05
8.42624e-06
-3.72592e-05
1.1421e-05
-3.24121e-05
1.45664e-05
-2.58836e-05
1.63628e-05
-1.58554e-05
1.60497e-05
-4.01451e-06
1.49447e-05
5.44313e-06
1.39786e-05
1.2239e-05
1.37227e-05
1.65642e-05
1.44588e-05
1.87023e-05
1.62693e-05
1.88058e-05
1.88785e-05
1.74096e-05
2.18256e-05
1.50915e-05
2.47786e-05
1.21536e-05
2.81033e-05
8.05197e-06
3.09499e-05
5.99077e-06
2.70743e-05
1.50534e-05
1.22322e-05
3.25572e-05
6.78635e-06
2.14612e-05
5.08306e-06
9.6877e-06
-7.7103e-07
6.22284e-06
5.81195e-06
-3.9003e-06
-1.22333e-06
-4.75063e-05
-2.73857e-06
-4.13072e-05
-2.03181e-06
-3.79659e-05
1.07146e-06
-3.55153e-05
5.55926e-06
-3.03714e-05
8.88764e-06
-1.91838e-05
8.94903e-06
-4.07589e-06
8.47347e-06
5.9187e-06
8.40421e-06
1.23082e-05
9.45162e-06
1.55168e-05
1.15465e-05
1.66074e-05
1.47259e-05
1.56263e-05
1.86176e-05
1.35179e-05
2.26414e-05
1.10677e-05
2.6617e-05
8.17803e-06
3.10572e-05
3.61175e-06
3.48942e-05
2.15375e-06
4.01023e-05
9.84522e-06
3.87832e-05
3.38765e-05
2.32826e-05
3.69619e-05
9.418e-06
2.35523e-05
4.08565e-07
1.52323e-05
2.91592e-06
3.30443e-06
-1.11174e-05
-3.63889e-05
-1.79454e-05
-3.44792e-05
-1.86081e-05
-3.73033e-05
-1.39284e-05
-4.0195e-05
-6.71761e-06
-3.75821e-05
-7.41379e-09
-2.5894e-05
2.06777e-06
-6.15108e-06
2.69393e-06
5.29254e-06
3.25493e-06
1.17472e-05
5.29791e-06
1.34738e-05
8.25334e-06
1.3652e-05
1.2174e-05
1.17057e-05
1.7013e-05
8.67889e-06
2.26995e-05
5.38117e-06
2.85968e-05
2.28075e-06
3.42773e-05
-2.06883e-06
4.03017e-05
-3.87057e-06
4.5304e-05
4.84297e-06
5.33666e-05
2.58137e-05
4.66044e-05
4.3724e-05
3.14501e-05
3.87066e-05
2.49454e-05
2.1737e-05
6.3082e-06
2.15531e-05
-2.94774e-05
-6.91146e-06
-4.09401e-05
-2.30165e-05
-3.95101e-05
-3.87333e-05
-3.19358e-05
-4.77693e-05
-2.46525e-05
-4.48654e-05
-1.53929e-05
-3.51537e-05
-4.94662e-06
-1.65973e-05
5.67022e-08
2.89261e-07
-9.0732e-07
1.27113e-05
3.90978e-07
1.21756e-05
3.69725e-06
1.03458e-05
8.25589e-06
7.14701e-06
1.25277e-05
4.40712e-06
1.66328e-05
1.27599e-06
2.23069e-05
-3.3933e-06
2.6865e-05
-6.62695e-06
2.96204e-05
-6.62596e-06
2.98798e-05
4.58367e-06
3.13031e-05
2.43905e-05
3.08325e-05
4.41946e-05
2.59572e-05
4.35818e-05
2.37718e-05
2.39226e-05
9.80146e-06
2.02785e-05
-4.01489e-05
3.32375e-05
-4.53645e-05
-1.78009e-05
-4.50804e-05
-3.90174e-05
-4.52878e-05
-4.75619e-05
-4.30144e-05
-4.71388e-05
-3.77323e-05
-4.04358e-05
-2.52769e-05
-2.90527e-05
-1.04329e-05
-1.45548e-05
-1.2978e-05
1.52563e-05
-1.93481e-05
1.85456e-05
-1.88208e-05
9.81844e-06
-1.15677e-05
-1.06035e-07
-3.56775e-06
-3.59287e-06
2.8888e-06
-5.18053e-06
7.57009e-06
-8.07461e-06
9.75956e-06
-8.81643e-06
1.08891e-05
-7.75555e-06
1.02566e-05
5.2162e-06
7.88792e-06
2.67592e-05
7.27162e-06
4.48108e-05
9.69284e-06
4.11604e-05
1.04941e-05
2.31214e-05
1.16407e-05
8.65509e-06
-3.04435e-05
6.3681e-05
-3.73817e-05
-1.08627e-05
-4.12777e-05
-3.51213e-05
-5.37591e-05
-3.50805e-05
-5.81689e-05
-4.2729e-05
-5.63912e-05
-4.22135e-05
-5.05416e-05
-3.49023e-05
-4.59808e-05
-1.91155e-05
-3.68169e-05
6.09239e-06
-3.46793e-05
1.64079e-05
-2.72394e-05
2.37846e-06
-1.99192e-05
-7.42623e-06
-1.24182e-05
-1.10938e-05
-7.0772e-06
-1.05216e-05
-2.19602e-06
-1.29558e-05
1.70956e-07
-1.11834e-05
-6.77341e-06
-8.11131e-07
-1.04273e-05
8.87004e-06
-1.3294e-05
2.96259e-05
-1.03299e-05
4.18467e-05
-4.00812e-06
3.48385e-05
-2.54251e-06
2.16557e-05
1.33517e-05
-4.25362e-06
-1.05074e-05
7.41884e-05
-1.60624e-05
-5.30787e-06
-2.97294e-05
-2.14541e-05
-5.30004e-05
-1.18095e-05
-7.16946e-05
-2.40347e-05
-7.2565e-05
-4.13431e-05
-6.9132e-05
-3.83352e-05
-6.53385e-05
-2.29091e-05
-4.93797e-05
-9.86653e-06
-3.21817e-05
-7.89838e-07
-2.57599e-05
-4.04331e-06
-2.09623e-05
-1.22239e-05
-1.56051e-05
-1.6451e-05
-1.09005e-05
-1.52262e-05
-1.2343e-05
-1.15134e-05
-2.15949e-05
-1.93139e-06
-3.07782e-05
8.37227e-06
-3.69603e-05
1.5052e-05
-3.49041e-05
2.75695e-05
-2.62028e-05
3.31455e-05
-1.97148e-05
2.83505e-05
-1.8864e-05
2.08049e-05
1.24586e-05
-1.7971e-05
5.62479e-06
6.85637e-05
1.07299e-07
2.09493e-07
-2.00356e-05
-1.31153e-06
-4.1316e-05
9.47118e-06
-6.15291e-05
-3.82182e-06
-7.67895e-05
-2.60827e-05
-8.33531e-05
-3.17716e-05
-7.96392e-05
-2.66231e-05
-6.87464e-05
-2.07594e-05
-4.76706e-05
-2.18656e-05
-2.74644e-05
-2.42497e-05
-2.11039e-05
-1.85845e-05
-2.53855e-05
-1.21695e-05
-3.42489e-05
-6.36278e-06
-4.42979e-05
-1.46431e-06
-5.17344e-05
5.50484e-06
-5.57028e-05
1.23402e-05
-5.79413e-05
1.72905e-05
-5.3735e-05
2.33629e-05
-4.58467e-05
2.52572e-05
-3.97632e-05
2.2267e-05
-3.51159e-05
1.61576e-05
7.34141e-06
-2.99987e-05
1.17773e-05
5.67864e-05
4.43703e-06
7.54977e-06
-1.77971e-05
2.09222e-05
-3.27959e-05
2.44703e-05
-4.63639e-05
9.74632e-06
-6.34282e-05
-9.01836e-06
-7.60987e-05
-1.9101e-05
-7.97073e-05
-2.30145e-05
-7.6017e-05
-2.44497e-05
-6.70172e-05
-3.08657e-05
-6.24379e-05
-2.88289e-05
-6.00339e-05
-2.09885e-05
-6.03715e-05
-1.18318e-05
-6.29006e-05
-3.83352e-06
-6.64829e-05
2.11778e-06
-6.87061e-05
7.72789e-06
-6.88813e-05
1.25152e-05
-6.74407e-05
1.58499e-05
-6.26373e-05
1.85595e-05
-5.5941e-05
1.85608e-05
-4.91028e-05
1.54287e-05
-4.25874e-05
9.642e-06
1.09624e-06
-3.63425e-05
1.08262e-05
4.59603e-05
-2.41231e-06
2.0788e-05
-2.08007e-05
3.93105e-05
-3.12494e-05
3.49189e-05
-4.06047e-05
1.91016e-05
-5.20347e-05
2.41163e-06
-6.1381e-05
-9.75479e-06
-6.65956e-05
-1.78002e-05
-6.77804e-05
-2.3265e-05
-7.08768e-05
-2.77694e-05
-7.33613e-05
-2.63446e-05
-7.45803e-05
-1.97695e-05
-7.49837e-05
-1.14285e-05
-7.49439e-05
-3.87367e-06
-7.47636e-05
1.93731e-06
-7.36723e-05
6.63661e-06
-7.13014e-05
1.01443e-05
-6.77264e-05
1.22751e-05
-6.23977e-05
1.32307e-05
-5.59956e-05
1.21587e-05
-4.93716e-05
8.80467e-06
-4.29933e-05
3.26372e-06
-4.56529e-06
-3.73318e-05
-8.79825e-06
5.47586e-05
-2.28175e-05
3.48075e-05
-2.89826e-05
4.54755e-05
-3.20603e-05
3.79965e-05
-3.6515e-05
2.35562e-05
-4.3107e-05
9.00365e-06
-4.9977e-05
-2.8849e-06
-5.59307e-05
-1.18466e-05
-6.09086e-05
-1.82871e-05
-6.66132e-05
-2.20649e-05
-7.1418e-05
-2.15398e-05
-7.41413e-05
-1.70463e-05
-7.47985e-05
-1.07713e-05
-7.39719e-05
-4.70013e-06
-7.22351e-05
2.00572e-07
-6.95515e-05
3.953e-06
-6.5922e-05
6.51472e-06
-6.14526e-05
7.80554e-06
-5.60655e-05
7.84349e-06
-5.01705e-05
6.26381e-06
-4.42906e-05
2.92503e-06
-3.88525e-05
-2.1742e-06
-9.03657e-06
-3.43811e-05
-1.38576e-05
6.86157e-05
-2.75985e-05
4.85485e-05
-2.92174e-05
4.70944e-05
-2.88421e-05
3.76213e-05
-3.0425e-05
2.51391e-05
-3.42201e-05
1.27989e-05
-3.93086e-05
2.2033e-06
-4.48851e-05
-6.2701e-06
-5.06643e-05
-1.25078e-05
-5.658e-05
-1.61493e-05
-6.15757e-05
-1.65441e-05
-6.46181e-05
-1.40039e-05
-6.54977e-05
-9.89138e-06
-6.46143e-05
-5.5832e-06
-6.24988e-05
-1.91496e-06
-5.94098e-05
8.63942e-07
-5.55337e-05
2.63846e-06
-5.10565e-05
3.32839e-06
-4.61071e-05
2.89428e-06
-4.10116e-05
1.16853e-06
-3.61609e-05
-1.92547e-06
-3.19395e-05
-6.39551e-06
-1.21887e-05
-2.87872e-05
-9.51125e-06
7.81264e-05
-1.9624e-05
5.86615e-05
-2.09725e-05
4.8443e-05
-2.05752e-05
3.72238e-05
-2.13561e-05
2.592e-05
-2.38844e-05
1.53273e-05
-2.77809e-05
6.09986e-06
-3.25536e-05
-1.49716e-06
-3.78035e-05
-7.25783e-06
-4.30539e-05
-1.0899e-05
-4.74759e-05
-1.21221e-05
-5.03036e-05
-1.1176e-05
-5.12937e-05
-8.9012e-06
-5.06536e-05
-6.22326e-06
-4.87679e-05
-3.80082e-06
-4.59469e-05
-1.95719e-06
-4.24474e-05
-8.61016e-07
-3.85063e-05
-6.12414e-07
-3.43391e-05
-1.27246e-06
-3.02384e-05
-2.93198e-06
-2.65293e-05
-5.63441e-06
-2.3543e-05
-9.38179e-06
-1.41086e-05
-2.1623e-05
-6.54783e-08
7.81917e-05
-6.76231e-06
6.53585e-05
-8.7507e-06
5.04313e-05
-9.23914e-06
3.77121e-05
-1.02064e-05
2.68875e-05
-1.23005e-05
1.74214e-05
-1.54584e-05
9.25785e-06
-1.93965e-05
2.44114e-06
-2.37576e-05
-2.89664e-06
-2.80824e-05
-6.57425e-06
-3.17509e-05
-8.4536e-06
-3.42143e-05
-8.71268e-06
-3.52446e-05
-7.87087e-06
-3.49286e-05
-6.53934e-06
-3.35179e-05
-5.2115e-06
-3.12824e-05
-4.19261e-06
-2.84781e-05
-3.66529e-06
-2.53493e-05
-3.74103e-06
-2.21316e-05
-4.48995e-06
-1.90889e-05
-5.97457e-06
-1.6497e-05
-8.22624e-06
-1.46316e-05
-1.12473e-05
-1.49812e-05
-1.37589e-05
8.69774e-06
6.94935e-05
5.90585e-06
6.81503e-05
4.02801e-06
5.23089e-05
2.82909e-06
3.89109e-05
1.4749e-06
2.82419e-05
-5.03651e-07
1.93999e-05
-3.17042e-06
1.19247e-05
-6.38473e-06
5.65551e-06
-9.89177e-06
6.10304e-07
-1.33422e-05
-3.12398e-06
-1.63038e-05
-5.49233e-06
-1.83963e-05
-6.62045e-06
-1.94325e-05
-6.83466e-06
-1.94326e-05
-6.53926e-06
-1.85527e-05
-6.09134e-06
-1.69994e-05
-5.7459e-06
-1.49922e-05
-5.67258e-06
-1.27516e-05
-5.98166e-06
-1.04962e-05
-6.74535e-06
-8.45444e-06
-8.01633e-06
-6.85689e-06
-9.82375e-06
-5.92901e-06
-1.21751e-05
-1.50313e-05
-5.87873e-06
1.3e-05
5.64935e-05
1.53582e-05
6.57918e-05
1.46358e-05
5.30311e-05
1.34635e-05
4.00833e-05
1.20422e-05
2.96633e-05
1.02366e-05
2.12053e-05
8.00842e-06
1.41528e-05
5.4293e-06
8.23447e-06
2.66314e-06
3.37623e-06
-5.05792e-08
-4.10448e-07
-2.4212e-06
-3.1219e-06
-4.1921e-06
-4.84969e-06
-5.2177e-06
-5.80906e-06
-5.48865e-06
-6.26838e-06
-5.09697e-06
-6.483e-06
-4.18893e-06
-6.65392e-06
-2.93546e-06
-6.92606e-06
-1.51771e-06
-7.3994e-06
-1.20867e-07
-8.14214e-06
1.06521e-06
-9.20229e-06
1.85177e-06
-1.06102e-05
2.05676e-06
-1.23799e-05
-1.44891e-05
1.51466e-06
1.28456e-05
4.36481e-05
1.93751e-05
5.92622e-05
2.10878e-05
5.13185e-05
2.09573e-05
4.02137e-05
2.00788e-05
3.05414e-05
1.87469e-05
2.2537e-05
1.70638e-05
1.58359e-05
1.51137e-05
1.01844e-05
1.30159e-05
5.47401e-06
1.09339e-05
1.67155e-06
9.0618e-06
-1.24983e-06
7.57723e-06
-3.36517e-06
6.58819e-06
-4.82005e-06
6.11916e-06
-5.79942e-06
6.12171e-06
-6.4855e-06
6.49932e-06
-7.03139e-06
7.12786e-06
-7.55446e-06
7.86856e-06
-8.13998e-06
8.57502e-06
-8.84847e-06
9.09627e-06
-9.72341e-06
9.28127e-06
-1.07951e-05
8.98406e-06
-1.20827e-05
-1.35777e-05
8.07255e-06
1.04653e-05
3.31828e-05
1.89881e-05
5.07391e-05
2.31433e-05
4.71633e-05
2.46643e-05
3.86925e-05
2.48596e-05
3.03458e-05
2.43359e-05
2.30607e-05
2.33612e-05
1.68106e-05
2.20826e-05
1.1463e-05
2.06212e-05
6.93541e-06
1.9107e-05
3.18579e-06
1.76809e-05
1.76283e-07
1.6472e-05
-2.15635e-06
1.55667e-05
-3.9148e-06
1.49969e-05
-5.22971e-06
1.47436e-05
-6.23207e-06
1.47487e-05
-7.0364e-06
1.49286e-05
-7.73414e-06
1.51828e-05
-8.39416e-06
1.54013e-05
-9.06684e-06
1.54673e-05
-9.78938e-06
1.52621e-05
-1.05898e-05
1.46689e-05
-1.14895e-05
-1.249e-05
1.35812e-05
7.82823e-06
2.53542e-05
1.64681e-05
4.2099e-05
2.21052e-05
4.15261e-05
2.51407e-05
3.56569e-05
2.65551e-05
2.89313e-05
2.69993e-05
2.26165e-05
2.68305e-05
1.69794e-05
2.62535e-05
1.20399e-05
2.54115e-05
7.77731e-06
2.44293e-05
4.16797e-06
2.34251e-05
1.1804e-06
2.25042e-05
-1.23553e-06
2.1742e-05
-3.15273e-06
2.11763e-05
-4.66406e-06
2.08079e-05
-5.86356e-06
2.06068e-05
-6.8352e-06
2.05203e-05
-7.64758e-06
2.04795e-05
-8.35332e-06
2.04042e-05
-8.99155e-06
2.02067e-05
-9.59181e-06
1.97949e-05
-1.01779e-05
1.90764e-05
-1.07709e-05
-1.13785e-05
1.79652e-05
5.69995e-06
1.9654e-05
1.34501e-05
3.43487e-05
1.95438e-05
3.54322e-05
2.35452e-05
3.16556e-05
2.59625e-05
2.6514e-05
2.73019e-05
2.12772e-05
2.79068e-05
1.63744e-05
2.80006e-05
1.19461e-05
2.77416e-05
8.03616e-06
2.72578e-05
4.6517e-06
2.66601e-05
1.77806e-06
2.60429e-05
-6.18401e-07
2.54771e-05
-2.58706e-06
2.50051e-05
-4.19204e-06
2.46408e-05
-5.49929e-06
2.43739e-05
-6.56824e-06
2.41742e-05
-7.44787e-06
2.39967e-05
-8.17581e-06
2.37852e-05
-8.77996e-06
2.34752e-05
-9.28172e-06
2.29971e-05
-9.69959e-06
2.22789e-05
-1.00524e-05
-1.03513e-05
2.12519e-05
4.15705e-06
1.54969e-05
1.0724e-05
2.77817e-05
1.65991e-05
2.95571e-05
2.09963e-05
2.72585e-05
2.40455e-05
2.34649e-05
2.60541e-05
1.92686e-05
2.72898e-05
1.51386e-05
2.79555e-05
1.12803e-05
2.82067e-05
7.78491e-06
2.81694e-05
4.68884e-06
2.795e-05
1.99741e-06
2.76365e-05
-3.04954e-07
2.72968e-05
-2.24746e-06
2.69761e-05
-3.87134e-06
2.66968e-05
-5.22e-06
2.64615e-05
-6.33293e-06
2.62561e-05
-7.24249e-06
2.60533e-05
-7.973e-06
2.58155e-05
-8.54202e-06
2.5497e-05
-8.96304e-06
2.50466e-05
-9.24891e-06
2.44096e-05
-9.41522e-06
-9.47406e-06
2.35326e-05
3.12765e-06
1.23693e-05
8.57746e-06
2.23318e-05
1.39052e-05
2.42295e-05
1.82771e-05
2.28867e-05
2.15977e-05
2.01442e-05
2.40056e-05
1.68609e-05
2.56774e-05
1.34668e-05
2.67741e-05
1.01837e-05
2.7432e-05
7.12688e-06
2.7767e-05
4.35376e-06
2.7877e-05
1.88722e-06
2.78435e-05
-2.71545e-07
2.77303e-05
-2.13449e-06
2.75832e-05
-3.72434e-06
2.74294e-05
-5.06621e-06
2.72798e-05
-6.18332e-06
2.71314e-05
-7.09411e-06
2.697e-05
-7.81152e-06
2.67721e-05
-8.34397e-06
2.65069e-05
-8.69771e-06
2.61383e-05
-8.88016e-06
2.56264e-05
-8.90313e-06
-8.77801e-06
2.49304e-05
2.49399e-06
9.87528e-06
7.01858e-06
1.78072e-05
1.16979e-05
1.95502e-05
1.57949e-05
1.87898e-05
1.91151e-05
1.6824e-05
2.16844e-05
1.42917e-05
2.36016e-05
1.15498e-05
2.49805e-05
8.80474e-06
2.59306e-05
6.17674e-06
2.65504e-05
3.73388e-06
2.69258e-05
1.51168e-06
2.71294e-05
-4.75303e-07
2.72197e-05
-2.22498e-06
2.72406e-05
-3.74534e-06
2.72212e-05
-5.04692e-06
2.71776e-05
-6.13972e-06
2.71143e-05
-7.0308e-06
2.70263e-05
-7.72355e-06
2.6901e-05
-8.21859e-06
2.67192e-05
-8.51589e-06
2.6457e-05
-8.61788e-06
2.60864e-05
-8.53255e-06
-8.26936e-06
2.55778e-05
2.10951e-06
7.76564e-06
5.90974e-06
1.40071e-05
9.96344e-06
1.54966e-05
1.36733e-05
1.50798e-05
1.68252e-05
1.36721e-05
1.93837e-05
1.17333e-05
2.13918e-05
9.54176e-06
2.29227e-05
7.27379e-06
2.40577e-05
5.04176e-06
2.48755e-05
2.91613e-06
2.54477e-05
9.3947e-07
2.58364e-05
-8.64095e-07
2.60936e-05
-2.48236e-06
2.62597e-05
-3.91162e-06
2.63639e-05
-5.15119e-06
2.64247e-05
-6.20061e-06
2.64516e-05
-7.05775e-06
2.64462e-05
-7.71825e-06
2.64038e-05
-8.17626e-06
2.63143e-05
-8.42645e-06
2.61633e-05
-8.46686e-06
2.59326e-05
-8.30184e-06
-7.93829e-06
2.56016e-05
1.8534e-06
5.91217e-06
5.08928e-06
1.07714e-05
8.58928e-06
1.19966e-05
1.18874e-05
1.17815e-05
1.47874e-05
1.07721e-05
1.72282e-05
9.29258e-06
1.92185e-05
7.55148e-06
2.08008e-05
5.6915e-06
2.20316e-05
3.811e-06
2.29706e-05
1.97712e-06
2.36752e-05
2.34911e-07
2.41967e-05
-1.38574e-06
2.458e-05
-2.86577e-06
2.48611e-05
-4.19289e-06
2.50676e-05
-5.35791e-06
2.52193e-05
-6.35238e-06
2.53284e-05
-7.16697e-06
2.54011e-05
-7.79114e-06
2.54386e-05
-8.21385e-06
2.54376e-05
-8.42539e-06
2.53909e-05
-8.42011e-06
2.52882e-05
-8.199e-06
-7.76614e-06
2.51161e-05
1.65786e-06
4.25446e-06
4.44123e-06
7.98856e-06
7.46488e-06
8.97311e-06
1.03689e-05
8.87742e-06
1.2987e-05
8.15411e-06
1.52525e-05
7.02705e-06
1.71557e-05
5.64832e-06
1.87177e-05
4.12939e-06
1.99759e-05
2.55283e-06
2.09736e-05
9.79368e-07
2.17551e-05
-5.46676e-07
2.2362e-05
-1.99287e-06
2.28319e-05
-3.3358e-06
2.31961e-05
-4.55735e-06
2.34803e-05
-5.64224e-06
2.37038e-05
-6.57602e-06
2.38806e-05
-7.34391e-06
2.402e-05
-7.9306e-06
2.41271e-05
-8.32099e-06
2.42037e-05
-8.50189e-06
2.42482e-05
-8.46453e-06
2.42563e-05
-8.20694e-06
-7.73032e-06
2.42206e-05
1.49543e-06
2.75942e-06
3.90248e-06
5.5821e-06
6.51553e-06
6.36019e-06
9.05694e-06
6.33618e-06
1.13909e-05
5.82037e-06
1.34546e-05
4.96342e-06
1.52293e-05
3.87353e-06
1.6723e-05
2.6357e-06
1.79584e-05
1.31735e-06
1.89661e-05
-2.83911e-08
1.97792e-05
-1.35994e-06
2.04309e-05
-2.64477e-06
2.0952e-05
-3.85703e-06
2.13695e-05
-4.975e-06
2.17063e-05
-5.97921e-06
2.19812e-05
-6.85096e-06
2.22087e-05
-7.57146e-06
2.24e-05
-8.12186e-06
2.2563e-05
-8.48396e-06
2.27031e-05
-8.64187e-06
2.28229e-05
-8.58425e-06
2.29226e-05
-8.30654e-06
-7.80722e-06
2.29995e-05
1.35668e-06
1.40319e-06
3.44229e-06
3.49691e-06
5.6976e-06
4.105e-06
7.90952e-06
4.12456e-06
9.96946e-06
3.76066e-06
1.18221e-05
3.11079e-06
1.34457e-05
2.24999e-06
1.48396e-05
1.24184e-06
1.60166e-05
1.40341e-07
1.69972e-05
-1.00907e-06
1.7806e-05
-2.16885e-06
1.84689e-05
-3.30772e-06
1.90109e-05
-4.399e-06
1.94549e-05
-5.41902e-06
1.98213e-05
-6.34562e-06
2.01276e-05
-7.15722e-06
2.03884e-05
-7.83224e-06
2.06158e-05
-8.34926e-06
2.08197e-05
-8.68785e-06
2.1008e-05
-8.83004e-06
2.11862e-05
-8.76251e-06
2.1358e-05
-8.47839e-06
-7.97368e-06
2.15244e-05
1.2366e-06
1.66927e-07
3.04366e-06
1.69e-06
4.98479e-06
2.16401e-06
6.89881e-06
2.21088e-06
8.70049e-06
1.95914e-06
1.0343e-05
1.46833e-06
1.18042e-05
7.88889e-07
1.30785e-05
-3.23665e-08
1.4172e-05
-9.53169e-07
1.50979e-05
-1.93496e-06
1.58742e-05
-2.9452e-06
1.6521e-05
-3.95441e-06
1.70584e-05
-4.93629e-06
1.75058e-05
-5.86632e-06
1.7881e-05
-6.72084e-06
1.82003e-05
-7.47644e-06
1.84777e-05
-8.10968e-06
1.87259e-05
-8.59742e-06
1.89557e-05
-8.91768e-06
1.91767e-05
-9.05105e-06
1.93968e-05
-8.98262e-06
1.96219e-05
-8.7036e-06
-8.20778e-06
1.98559e-05
1.13027e-06
-9.63204e-07
2.69429e-06
1.25983e-07
4.35934e-06
4.99198e-07
6.00579e-06
5.64681e-07
7.56795e-06
3.97075e-07
9.00693e-06
2.94219e-08
1.03018e-05
-5.05877e-07
1.14445e-05
-1.17511e-06
1.24368e-05
-1.94548e-06
1.32876e-05
-2.78573e-06
1.40096e-05
-3.6672e-06
1.46184e-05
-4.56309e-06
1.51302e-05
-5.44805e-06
1.55615e-05
-6.2975e-06
1.59277e-05
-7.08706e-06
1.62435e-05
-7.79229e-06
1.65223e-05
-8.38864e-06
1.67768e-05
-8.85192e-06
1.70182e-05
-9.15919e-06
1.72572e-05
-9.29009e-06
1.75031e-05
-9.22856e-06
1.77638e-05
-8.96426e-06
-8.48903e-06
1.80451e-05
1.03201e-06
-1.99521e-06
2.38479e-06
-1.22675e-06
3.80895e-06
-9.24678e-07
5.21754e-06
-8.43774e-07
6.56023e-06
-9.4557e-07
7.80517e-06
-1.21545e-06
8.93373e-06
-1.6344e-06
9.93777e-06
-2.17919e-06
1.08171e-05
-2.82483e-06
1.15774e-05
-3.54608e-06
1.22283e-05
-4.31814e-06
1.27819e-05
-5.11668e-06
1.32514e-05
-5.91758e-06
1.36505e-05
-6.69665e-06
1.39926e-05
-7.42934e-06
1.4291e-05
-8.09075e-06
1.4558e-05
-8.65579e-06
1.48058e-05
-9.09976e-06
1.50458e-05
-9.39924e-06
1.5289e-05
-9.53337e-06
1.55458e-05
-9.48536e-06
1.58253e-05
-9.24364e-06
-8.79841e-06
1.61347e-05
9.4079e-07
-2.936e-06
2.11041e-06
-2.3962e-06
3.327e-06
-2.14106e-06
4.526e-06
-2.04274e-06
5.66823e-06
-2.08777e-06
6.72853e-06
-2.27572e-06
7.69233e-06
-2.59822e-06
8.55323e-06
-3.04017e-06
9.31098e-06
-3.58268e-06
9.96986e-06
-4.20504e-06
1.05373e-05
-4.88567e-06
1.10229e-05
-5.60233e-06
1.14373e-05
-6.33212e-06
1.1792e-05
-7.05143e-06
1.20984e-05
-7.73588e-06
1.2368e-05
-8.36049e-06
1.26122e-05
-8.90009e-06
1.28422e-05
-9.32985e-06
1.30693e-05
-9.62632e-06
1.33044e-05
-9.76853e-06
1.35584e-05
-9.73931e-06
1.38411e-05
-9.52625e-06
-9.11821e-06
1.4161e-05
8.55191e-07
-3.79113e-06
1.87142e-06
-3.41224e-06
2.91185e-06
-3.18142e-06
3.92516e-06
-3.05606e-06
4.88119e-06
-3.04378e-06
5.7632e-06
-3.15773e-06
6.563e-06
-3.39808e-06
7.2778e-06
-3.75506e-06
7.90853e-06
-4.21349e-06
8.45895e-06
-4.75551e-06
8.93496e-06
-5.36174e-06
9.34409e-06
-6.01154e-06
9.69492e-06
-6.68308e-06
9.99672e-06
-7.35336e-06
1.02591e-05
-7.99835e-06
1.04918e-05
-8.59331e-06
1.0705e-05
-9.11322e-06
1.09086e-05
-9.53352e-06
1.11133e-05
-9.83101e-06
1.13297e-05
-9.98496e-06
1.15687e-05
-9.97822e-06
1.18403e-05
-9.79791e-06
-9.4319e-06
1.21541e-05
7.8333e-07
-4.57436e-06
1.67518e-06
-4.304e-06
2.56335e-06
-4.0696e-06
3.40371e-06
-3.89641e-06
4.17861e-06
-3.81864e-06
4.88382e-06
-3.86295e-06
5.51968e-06
-4.03401e-06
6.08762e-06
-4.32307e-06
6.58978e-06
-4.71567e-06
7.02937e-06
-5.19511e-06
7.4109e-06
-5.74329e-06
7.74006e-06
-6.34075e-06
8.02345e-06
-6.96656e-06
8.26834e-06
-7.59831e-06
8.48239e-06
-8.21244e-06
8.67363e-06
-8.78455e-06
8.85048e-06
-9.29005e-06
9.02181e-06
-9.70484e-06
9.19705e-06
-1.00063e-05
9.3862e-06
-1.01742e-05
9.59959e-06
-1.01917e-05
9.84753e-06
-1.00459e-05
-9.72417e-06
1.01398e-05
7.3887e-07
-5.31316e-06
1.52925e-06
-5.0944e-06
2.26794e-06
-4.80828e-06
2.92945e-06
-4.55787e-06
3.51889e-06
-4.40804e-06
4.04745e-06
-4.39154e-06
4.52279e-06
-4.5094e-06
4.94855e-06