/*--------------------------------*- C++ -*----------------------------------*\
| =========                 |                                                 |
| \\      /  F ield         | OpenFOAM: The Open Source CFD Toolbox           |
|  \\    /   O peration     | Version:  2.3.0                                 |
|   \\  /    A nd           | Web:      www.OpenFOAM.org                      |
|    \\/     M anipulation  |                                                 |
\*---------------------------------------------------------------------------*/
FoamFile
{
    version     2.0;
    format      ascii;
    class       volVectorField;
    location    "1.3";
    object      U;
}
// * * * * * * * * * * * * * * * * * * * * * * * * * * * * * * * * * * * * * //

dimensions      [0 1 -1 0 0 0 0];

internalField   nonuniform List<vector> 
2268
(
(0.0154817 -0.00974875 0)
(0.0489573 -0.0130222 0)
(0.0841042 -0.0114232 0)
(0.116227 -0.00957408 0)
(0.14419 -0.00809987 0)
(0.167507 -0.00669012 0)
(0.185711 -0.00507829 0)
(0.198199 -0.00306268 0)
(0.203644 -0.000429193 0)
(0.200323 0.00260476 0)
(0.188454 0.00559109 0)
(0.16825 0.00811306 0)
(0.140116 0.0122522 0)
(0.100363 0.0154162 0)
(0.0567271 0.0147096 0)
(0.0233552 0.00919883 0)
(0.0105827 -0.00044688 0)
(0.0227244 -0.0104596 0)
(0.0515567 -0.0157573 0)
(0.0842588 -0.0156369 0)
(0.10951 -0.00918258 0)
(0.112111 0.00911019 0)
(0.0692013 0.02329 0)
(0.0172934 -0.0211388 0)
(0.0491221 -0.0267642 0)
(0.0813999 -0.0251378 0)
(0.111985 -0.0221629 0)
(0.138746 -0.0188427 0)
(0.160509 -0.0151529 0)
(0.176483 -0.0109596 0)
(0.185964 -0.00610878 0)
(0.188392 -0.000435938 0)
(0.183548 0.0058431 0)
(0.170279 0.0122085 0)
(0.147842 0.0182833 0)
(0.11789 0.0255192 0)
(0.0809008 0.030124 0)
(0.0432069 0.0274256 0)
(0.0152936 0.017092 0)
(0.00300629 0.00148616 0)
(0.00695212 -0.0137465 0)
(0.0233269 -0.021973 0)
(0.0431255 -0.0211049 0)
(0.0590923 -0.0102246 0)
(0.0680008 0.0178969 0)
(0.0675285 0.0557566 0)
(0.0173395 -0.0359355 0)
(0.0492885 -0.0414509 0)
(0.0804456 -0.0387373 0)
(0.109614 -0.0343298 0)
(0.13475 -0.0290269 0)
(0.154613 -0.0228808 0)
(0.168294 -0.0158513 0)
(0.175078 -0.00790771 0)
(0.17449 0.00100027 0)
(0.166279 0.0107151 0)
(0.15017 0.0207332 0)
(0.12603 0.0303431 0)
(0.0959506 0.039694 0)
(0.0633912 0.0446843 0)
(0.0327182 0.0397695 0)
(0.0093811 0.0251886 0)
(-0.00340365 0.00438525 0)
(-0.00460993 -0.0159019 0)
(0.00340596 -0.0270819 0)
(0.0138149 -0.0266332 0)
(0.0226965 -0.0150574 0)
(0.0291377 0.0168843 0)
(0.0411905 0.0769308 0)
(0.0165076 -0.0509064 0)
(0.0488783 -0.0569572 0)
(0.0799087 -0.052864 0)
(0.108258 -0.0466832 0)
(0.132088 -0.0391049 0)
(0.150252 -0.0302085 0)
(0.161829 -0.0200471 0)
(0.166169 -0.00871656 0)
(0.162942 0.00371176 0)
(0.152172 0.0169741 0)
(0.134149 0.0304347 0)
(0.109462 0.0430384 0)
(0.0805987 0.0537038 0)
(0.0517213 0.0581514 0)
(0.0258544 0.0512674 0)
(0.00509905 0.0333748 0)
(-0.0082352 0.00839824 0)
(-0.0133413 -0.0161505 0)
(-0.0120016 -0.0296375 0)
(-0.00964121 -0.0294201 0)
(-0.00777023 -0.0179637 0)
(-0.00422274 0.0141467 0)
(0.0118039 0.0869241 0)
(0.015893 -0.065507 0)
(0.0487154 -0.0726504 0)
(0.0800072 -0.0670484 0)
(0.10791 -0.0588432 0)
(0.130728 -0.048744 0)
(0.147413 -0.0368477 0)
(0.157079 -0.0233197 0)
(0.159196 -0.00843425 0)
(0.153664 0.00755663 0)
(0.140885 0.0242134 0)
(0.121659 0.0406958 0)
(0.0972202 0.0555561 0)
(0.0703063 0.0668034 0)
(0.0448199 0.0701502 0)
(0.0225171 0.0615812 0)
(0.00371797 0.0413239 0)
(-0.00989469 0.0133443 0)
(-0.0181616 -0.0143521 0)
(-0.0223887 -0.0290947 0)
(-0.0275839 -0.0286991 0)
(-0.0332542 -0.0183985 0)
(-0.0334715 0.0106691 0)
(-0.0141169 0.0817606 0)
(0.0160793 -0.0800807 0)
(0.0494856 -0.0885073 0)
(0.0811002 -0.0811587 0)
(0.10868 -0.0706634 0)
(0.130654 -0.0578138 0)
(0.146038 -0.0427051 0)
(0.153981 -0.0256341 0)
(0.154109 -0.00711393 0)
(0.146625 0.0123625 0)
(0.132355 0.0321223 0)
(0.112575 0.0510855 0)
(0.089033 0.0674384 0)
(0.0645552 0.0786126 0)
(0.0424714 0.0806307 0)
(0.0233649 0.0706487 0)
(0.00646376 0.0489735 0)
(-0.00728119 0.0190334 0)
(-0.0177945 -0.0108131 0)
(-0.0265447 -0.025498 0)
(-0.0388441 -0.0242678 0)
(-0.0522454 -0.0157013 0)
(-0.0573621 0.00617415 0)
(-0.0348174 0.0654608 0)
(0.0174144 -0.0950888 0)
(0.0514757 -0.104629 0)
(0.083244 -0.0952137 0)
(0.110441 -0.0821799 0)
(0.131635 -0.0663696 0)
(0.145861 -0.0478518 0)
(0.152284 -0.027086 0)
(0.150706 -0.00490254 0)
(0.141697 0.0179118 0)
(0.126522 0.0404145 0)
(0.106881 0.0612893 0)
(0.0848983 0.0784319 0)
(0.0633431 0.0889897 0)
(0.044882 0.0895401 0)
(0.0289982 0.0785305 0)
(0.0144297 0.0562168 0)
(0.000852904 0.0248874 0)
(-0.0107286 -0.00590891 0)
(-0.0232979 -0.0192299 0)
(-0.0418245 -0.0162815 0)
(-0.0622804 -0.00953844 0)
(-0.0734071 0.00151465 0)
(-0.0528374 0.0415887 0)
(0.0199239 -0.110913 0)
(0.0544983 -0.121014 0)
(0.0860146 -0.109161 0)
(0.112642 -0.0933954 0)
(0.133071 -0.074484 0)
(0.146295 -0.0524166 0)
(0.151448 -0.0278556 0)
(0.148526 -0.00205323 0)
(0.138522 0.0238439 0)
(0.123128 0.0486356 0)
(0.104408 0.0708092 0)
(0.0847046 0.0880834 0)
(0.0665931 0.0975719 0)
(0.0520502 0.096564 0)
(0.0396482 0.0849821 0)
(0.0281225 0.0627347 0)
(0.0159277 0.0305834 0)
(0.00362305 0.000333674 0)
(-0.0121919 -0.0105286 0)
(-0.0356514 -0.00535915 0)
(-0.0611757 -0.000642 0)
(-0.0765066 -0.00323298 0)
(-0.0686194 0.00160475 0)
(0.0288498 -0.0223402 0)
(0.128462 -0.0387578 0)
(0.235217 -0.0204786 0)
(0.269645 0.0109166 0)
(0.166786 0.0350499 0)
(0.047336 0.0187983 0)
(0.0360069 -0.0190042 0)
(0.100074 -0.033395 0)
(0.170357 -0.0182515 0)
(0.195309 0.00398019 0)
(0.155534 0.0159201 0)
(0.102682 0.0123765 0)
(0.0753062 0.00512751 0)
(0.0718449 -0.00330272 0)
(0.0866717 -0.00751219 0)
(0.102771 -0.00117243 0)
(0.0925443 0.0107788 0)
(0.0387989 0.0173587 0)
(0.00357969 0.00389024 0)
(0.0361714 -0.0469583 0)
(0.125215 -0.0725257 0)
(0.210723 -0.0423745 0)
(0.258927 0.0117081 0)
(0.207875 0.0641186 0)
(0.124022 0.0538202 0)
(0.0936383 -0.0119465 0)
(0.126552 -0.0453659 0)
(0.174434 -0.0293039 0)
(0.196429 0.0083799 0)
(0.170158 0.0292428 0)
(0.125286 0.0251208 0)
(0.0983174 0.0122089 0)
(0.0895032 -0.00243061 0)
(0.0955063 -0.0110954 0)
(0.105912 -0.00226063 0)
(0.102893 0.0189053 0)
(0.0660428 0.0340969 0)
(0.024335 0.013511 0)
(0.0395843 -0.078431 0)
(0.122486 -0.107642 0)
(0.195532 -0.0655088 0)
(0.233126 0.00701538 0)
(0.209477 0.0827963 0)
(0.1493 0.0741233 0)
(0.12413 -0.009565 0)
(0.140692 -0.057439 0)
(0.170425 -0.0424906 0)
(0.18859 0.00784929 0)
(0.171317 0.0415323 0)
(0.135218 0.0373991 0)
(0.111528 0.0196213 0)
(0.100171 -0.000268215 0)
(0.100158 -0.0131726 0)
(0.106484 -0.00350091 0)
(0.104751 0.0249044 0)
(0.0786743 0.049835 0)
(0.0380805 0.0342543 0)
(0.0448524 -0.110648 0)
(0.120572 -0.141624 0)
(0.183845 -0.0859307 0)
(0.212414 0.00376552 0)
(0.201421 0.096896 0)
(0.163588 0.0868343 0)
(0.145577 -0.00696362 0)
(0.149685 -0.0637867 0)
(0.161845 -0.0497119 0)
(0.17323 0.0044138 0)
(0.166951 0.0511217 0)
(0.14178 0.0474531 0)
(0.121857 0.0264722 0)
(0.108268 0.00328138 0)
(0.103006 -0.0137683 0)
(0.105861 -0.0041323 0)
(0.10448 0.0300037 0)
(0.0837404 0.0649801 0)
(0.0449109 0.0589519 0)
(0.0552845 -0.14366 0)
(0.118971 -0.171828 0)
(0.171943 -0.103218 0)
(0.194948 0.00080522 0)
(0.197211 0.104149 0)
(0.180806 0.0941187 0)
(0.165994 -0.000982978 0)
(0.157365 -0.0638576 0)
(0.152771 -0.0501528 0)
(0.150984 0.00249474 0)
(0.149808 0.056448 0)
(0.141652 0.0554915 0)
(0.130906 0.0326418 0)
(0.115908 0.00823029 0)
(0.104692 -0.0124446 0)
(0.103199 -0.00385705 0)
(0.100893 0.0346092 0)
(0.0827978 0.0797294 0)
(0.0469386 0.0844212 0)
(0.0719101 -0.183785 0)
(0.11519 -0.197314 0)
(0.15635 -0.118074 0)
(0.180852 -0.006243 0)
(0.19734 0.102559 0)
(0.199562 0.0978524 0)
(0.185463 0.00707562 0)
(0.164929 -0.0581592 0)
(0.143112 -0.0439643 0)
(0.123586 0.00557197 0)
(0.116786 0.057666 0)
(0.127149 0.0565808 0)
(0.13724 0.0372624 0)
(0.123574 0.0149212 0)
(0.10539 -0.00880867 0)
(0.0971341 -0.00210249 0)
(0.0927027 0.0387885 0)
(0.0764305 0.0929342 0)
(0.0463438 0.108356 0)
(0.0965034 -0.231444 0)
(0.106499 -0.215411 0)
(0.13616 -0.129486 0)
(0.162587 -0.0152037 0)
(0.191238 0.0907082 0)
(0.212973 0.0973043 0)
(0.205111 0.0151703 0)
(0.173426 -0.0481246 0)
(0.132579 -0.0324482 0)
(0.0941505 0.0140579 0)
(0.0780127 0.0558046 0)
(0.0982647 0.0468831 0)
(0.126753 0.0322977 0)
(0.126472 0.0218559 0)
(0.10373 -0.00381575 0)
(0.0855775 0.000906844 0)
(0.0795147 0.0429619 0)
(0.0667895 0.104216 0)
(0.0531341 0.130939 0)
(0.126927 -0.265237 0)
(0.0926318 -0.222317 0)
(0.110208 -0.13796 0)
(0.137014 -0.0256242 0)
(0.17459 0.0765889 0)
(0.214511 0.0923203 0)
(0.223948 0.0256826 0)
(0.184059 -0.0332645 0)
(0.122589 -0.0121274 0)
(0.0637281 0.0285648 0)
(0.0447493 0.0519745 0)
(0.0689188 0.0343053 0)
(0.100184 0.0233149 0)
(0.110291 0.0291642 0)
(0.0914124 0.0057341 0)
(0.0616299 0.00495088 0)
(0.0628317 0.0440751 0)
(0.0631886 0.113912 0)
(0.0797942 0.155261 0)
(0.0243372 -0.138096 0)
(0.0592944 -0.147265 0)
(0.089569 -0.1308 0)
(0.114962 -0.11052 0)
(0.134268 -0.086659 0)
(0.146261 -0.0588963 0)
(0.149901 -0.0283224 0)
(0.145482 0.00291806 0)
(0.134718 0.0330615 0)
(0.119982 0.0605592 0)
(0.103786 0.0837056 0)
(0.0885679 0.100168 0)
(0.0763481 0.107386 0)
(0.0679414 0.103919 0)
(0.0620041 0.0924587 0)
(0.0556144 0.0706015 0)
(0.0473584 0.0392168 0)
(0.0342116 0.0127843 0)
(0.0142357 0.00647313 0)
(-0.0142361 0.0145298 0)
(-0.0431402 0.0140393 0)
(-0.0572501 -0.00748446 0)
(-0.0509097 -0.0337347 0)
(0.0283847 -0.179732 0)
(0.0613172 -0.182499 0)
(0.0872107 -0.158114 0)
(0.109617 -0.131761 0)
(0.127286 -0.101467 0)
(0.138243 -0.0657997 0)
(0.140591 -0.0267743 0)
(0.134964 0.0113524 0)
(0.124226 0.0458845 0)
(0.111549 0.0750561 0)
(0.0997387 0.0973374 0)
(0.090955 0.110876 0)
(0.0863008 0.114189 0)
(0.085305 0.107485 0)
(0.0879344 0.0952214 0)
(0.0906313 0.0741604 0)
(0.0887609 0.0478582 0)
(0.0764889 0.0304016 0)
(0.0527703 0.0300498 0)
(0.0240969 0.0439505 0)
(3.65054e-05 0.037265 0)
(-0.0124126 -0.00291752 0)
(-0.0169601 -0.0388607 0)
(0.0263986 -0.223551 0)
(0.0527029 -0.212359 0)
(0.0713649 -0.181129 0)
(0.089982 -0.15102 0)
(0.106842 -0.115954 0)
(0.118345 -0.0724952 0)
(0.120609 -0.0244724 0)
(0.11471 0.0197767 0)
(0.105201 0.0568678 0)
(0.0960084 0.0854174 0)
(0.0899138 0.104705 0)
(0.0885425 0.113815 0)
(0.0921295 0.112761 0)
(0.0991382 0.103005 0)
(0.10906 0.0881801 0)
(0.120744 0.0680593 0)
(0.12679 0.0502623 0)
(0.119105 0.0457807 0)
(0.0831483 0.0535159 0)
(0.0385039 0.0666138 0)
(0.0249763 0.0458936 0)
(0.0263624 0.00644052 0)
(0.024169 -0.0086299 0)
(0.0164174 -0.256957 0)
(0.0287704 -0.22947 0)
(0.0380317 -0.197094 0)
(0.052598 -0.167714 0)
(0.0703775 -0.131004 0)
(0.0850879 -0.0802811 0)
(0.0890417 -0.022358 0)
(0.0841099 0.0269593 0)
(0.0773524 0.0645545 0)
(0.0732958 0.0900286 0)
(0.0742736 0.104316 0)
(0.0811761 0.107639 0)
(0.0934878 0.101913 0)
(0.108675 0.0900415 0)
(0.124875 0.0748514 0)
(0.141179 0.0555167 0)
(0.15483 0.04356 0)
(0.163528 0.058186 0)
(0.114398 0.0973061 0)
(0.044112 0.0918084 0)
(0.0320364 0.0435863 0)
(0.0149242 0.0093364 0)
(-0.0155433 0.0349482 0)
(-0.00238172 -0.266521 0)
(-0.0139296 -0.231441 0)
(-0.0152633 -0.204187 0)
(-0.00405726 -0.179643 0)
(0.017649 -0.146128 0)
(0.0405615 -0.0896383 0)
(0.0498854 -0.0203341 0)
(0.0477313 0.0321199 0)
(0.044848 0.0687778 0)
(0.0467195 0.0895422 0)
(0.0549407 0.0978146 0)
(0.0692678 0.0950073 0)
(0.0885832 0.0859983 0)
(0.109642 0.0753162 0)
(0.131856 0.0615907 0)
(0.153739 0.039506 0)
(0.169881 0.027736 0)
(0.196284 0.0808145 0)
(0.254316 0.238064 0)
(0.152397 0.138882 0)
(0.0912756 0.0582905 0)
(0.013811 0.0418301 0)
(0.00782484 0.0164255 0)
(-0.0405383 -0.236026 0)
(-0.0897374 -0.214814 0)
(-0.10198 -0.202232 0)
(-0.0888114 -0.199166 0)
(-0.0562926 -0.180576 0)
(-0.0182444 -0.118235 0)
(0.00960905 -0.0221568 0)
(0.0151805 0.0340415 0)
(0.01591 0.067389 0)
(0.0220038 0.0833111 0)
(0.035236 0.0882027 0)
(0.0539637 0.0820615 0)
(0.0767485 0.0700545 0)
(0.102854 0.0561307 0)
(0.136594 0.0411324 0)
(0.173286 0.0108704 0)
(0.192562 -0.00799955 0)
(0.229662 0.0444671 0)
(0.270391 0.166272 0)
(0.283548 0.253576 0)
(0.219236 0.195762 0)
(0.148054 0.119468 0)
(0.105732 0.0262463 0)
(-0.108314 -0.138734 0)
(-0.212306 -0.153379 0)
(-0.221977 -0.205122 0)
(-0.188997 -0.247872 0)
(-0.151228 -0.229104 0)
(-0.116945 -0.166931 0)
(-0.0584489 -0.0528206 0)
(-8.72397e-05 0.0284044 0)
(0.000255025 0.063139 0)
(-0.00254835 0.0702055 0)
(0.01003 0.0709785 0)
(0.0315848 0.0615477 0)
(0.0576919 0.0457153 0)
(0.0794123 0.0183159 0)
(0.102038 -0.0171228 0)
(0.130926 -0.0406782 0)
(0.149576 -0.0373597 0)
(0.16229 0.0259253 0)
(0.166622 0.136494 0)
(0.170608 0.245192 0)
(0.163466 0.240077 0)
(0.124359 0.13593 0)
(0.115005 0.0464362 0)
(-0.20407 0.120151 0)
(-0.253161 -0.103735 0)
(-0.241201 -0.217274 0)
(-0.243362 -0.256581 0)
(-0.23834 -0.246292 0)
(-0.222854 -0.201544 0)
(-0.183535 -0.131329 0)
(-0.10332 -0.0542953 0)
(-0.0377773 0.0775042 0)
(-0.0835467 0.0740083 0)
(-0.103489 0.0507517 0)
(-0.0851273 0.00470611 0)
(-0.03754 -0.0156837 0)
(-0.00210057 -0.0252157 0)
(0.0278962 -0.0359329 0)
(0.0501681 -0.0412767 0)
(0.0573753 -0.0272857 0)
(0.0560332 0.0322095 0)
(0.050943 0.137831 0)
(0.0435324 0.240259 0)
(0.0432855 0.230536 0)
(0.0500869 0.120827 0)
(0.0538379 0.0602723 0)
(-0.181386 0.180441 0)
(-0.201324 -0.086709 0)
(-0.204845 -0.196523 0)
(-0.252823 -0.249456 0)
(-0.309536 -0.25359 0)
(-0.311682 -0.225583 0)
(-0.290177 -0.174309 0)
(-0.264227 -0.0811047 0)
(-0.244723 0.0706976 0)
(-0.175829 0.094015 0)
(-0.153421 0.0242674 0)
(-0.126614 -0.0230193 0)
(-0.0887809 -0.0392194 0)
(-0.050049 -0.0377495 0)
(-0.0237282 -0.0452451 0)
(-0.00310214 -0.0448205 0)
(-0.00196392 -0.0386456 0)
(-0.0562091 0.0310816 0)
(-0.0682086 0.148161 0)
(-0.0639196 0.231788 0)
(-0.0417411 0.197803 0)
(-0.0137646 0.124991 0)
(-0.0116178 0.0732821 0)
(-0.100616 0.364899 0)
(-0.0698853 -0.039038 0)
(-0.104551 -0.178892 0)
(-0.211077 -0.172127 0)
(-0.36902 -0.229423 0)
(-0.386216 -0.231275 0)
(-0.380605 -0.182992 0)
(-0.372159 -0.103066 0)
(-0.346216 -0.0148201 0)
(-0.188596 0.0582338 0)
(-0.141168 0.0025001 0)
(-0.120261 -0.0410259 0)
(-0.103227 -0.0602093 0)
(-0.0760948 -0.0583416 0)
(-0.0425517 -0.0649852 0)
(-0.0715487 -0.0550853 0)
(-0.161573 0.0163724 0)
(-0.186896 0.057969 0)
(-0.204221 0.160534 0)
(-0.166995 0.210134 0)
(-0.117429 0.178312 0)
(-0.092762 0.119675 0)
(-0.101551 0.0711468 0)
(-0.0359415 0.444886 0)
(0.0672772 -0.0124548 0)
(-0.0313799 -0.0719394 0)
(-0.183424 0.0396412 0)
(-0.272913 -0.0461358 0)
(-0.389597 -0.216295 0)
(-0.443591 -0.203076 0)
(-0.445838 -0.130119 0)
(-0.407929 -0.0734211 0)
(-0.34454 -0.0470324 0)
(-0.172311 -0.0495152 0)
(-0.111052 -0.0663894 0)
(-0.111579 -0.082255 0)
(-0.153086 -0.0800488 0)
(-0.221914 -0.0558855 0)
(-0.258315 0.0122877 0)
(-0.294351 0.06325 0)
(-0.310205 0.0963034 0)
(-0.30685 0.141786 0)
(-0.270216 0.159969 0)
(-0.222755 0.138628 0)
(-0.198576 0.100479 0)
(-0.176409 0.0550749 0)
(-0.0151141 0.402445 0)
(0.107001 0.035384 0)
(-0.0304977 0.069615 0)
(-0.161243 0.100445 0)
(-0.212637 0.0271294 0)
(-0.296599 -0.0792116 0)
(-0.373606 -0.154364 0)
(-0.4419 -0.153237 0)
(-0.426616 -0.123654 0)
(-0.383149 -0.166233 0)
(-0.340331 -0.177383 0)
(-0.32187 -0.141062 0)
(-0.3194 -0.0802499 0)
(-0.328431 -0.025463 0)
(-0.349715 0.00886798 0)
(-0.364642 0.0424951 0)
(-0.372098 0.0725246 0)
(-0.369377 0.0933876 0)
(-0.352821 0.113895 0)
(-0.319247 0.117073 0)
(-0.2803 0.100072 0)
(-0.245432 0.0697342 0)
(-0.211178 0.0230552 0)
(-0.027194 0.336987 0)
(0.0976773 0.0791432 0)
(-0.0852672 0.171618 0)
(-0.155411 0.165955 0)
(-0.192594 0.0838344 0)
(-0.24894 -0.0106484 0)
(-0.30703 -0.0765667 0)
(-0.350689 -0.119957 0)
(-0.363484 -0.152492 0)
(-0.371593 -0.168543 0)
(-0.38671 -0.157143 0)
(-0.397218 -0.114122 0)
(-0.401967 -0.0619313 0)
(-0.402403 -0.0171421 0)
(-0.402636 0.0155218 0)
(-0.399802 0.0426029 0)
(-0.390872 0.0638986 0)
(-0.375216 0.0775671 0)
(-0.351107 0.0858843 0)
(-0.318281 0.0820093 0)
(-0.282269 0.0644361 0)
(-0.247105 0.0340564 0)
(-0.214368 -0.0104339 0)
(-0.102967 0.212148 0)
(-0.0208195 0.114737 0)
(-0.16601 0.233742 0)
(-0.166959 0.202379 0)
(-0.182259 0.119763 0)
(-0.212625 0.0353605 0)
(-0.250684 -0.0308773 0)
(-0.285888 -0.0794892 0)
(-0.313931 -0.115026 0)
(-0.342514 -0.136313 0)
(-0.372039 -0.130266 0)
(-0.393125 -0.0995858 0)
(-0.401709 -0.0592777 0)
(-0.400582 -0.0219093 0)
(-0.39352 0.00738057 0)
(-0.381733 0.0299249 0)
(-0.364794 0.045832 0)
(-0.343041 0.054525 0)
(-0.316285 0.0564468 0)
(-0.285246 0.0487397 0)
(-0.25295 0.0304292 0)
(-0.222113 0.00149925 0)
(-0.195241 -0.0383294 0)
(-0.0862274 0.293483 0)
(-0.0942762 0.225906 0)
(-0.166426 0.255308 0)
(-0.154036 0.207426 0)
(-0.15671 0.134091 0)
(-0.171712 0.0612553 0)
(-0.196679 0.000266248 0)
(-0.225836 -0.0476133 0)
(-0.25622 -0.0825663 0)
(-0.288245 -0.102826 0)
(-0.318973 -0.102408 0)
(-0.341326 -0.083612 0)
(-0.351643 -0.0558665 0)
(-0.350996 -0.0279106 0)
(-0.342496 -0.00468049 0)
(-0.328275 0.0129288 0)
(-0.309371 0.0244596 0)
(-0.286748 0.0295222 0)
(-0.261112 0.0280465 0)
(-0.233608 0.018798 0)
(-0.206358 0.00122696 0)
(-0.181598 -0.0247419 0)
(-0.161745 -0.0589104 0)
(-0.0442389 0.403294 0)
(-0.0736391 0.29379 0)
(-0.118354 0.259699 0)
(-0.110088 0.202552 0)
(-0.110643 0.138472 0)
(-0.119646 0.0769546 0)
(-0.137504 0.0235628 0)
(-0.161265 -0.0198455 0)
(-0.188537 -0.0522263 0)
(-0.217469 -0.0719791 0)
(-0.244541 -0.0766369 0)
(-0.264677 -0.0677355 0)
(-0.274904 -0.0509662 0)
(-0.275417 -0.0323952 0)
(-0.268182 -0.0160639 0)
(-0.255194 -0.00367489 0)
(-0.237921 0.00394247 0)
(-0.217657 0.00630092 0)
(-0.195546 0.00313664 0)
(-0.172907 -0.00616683 0)
(-0.151479 -0.0219023 0)
(-0.133191 -0.0440893 0)
(-0.120128 -0.0723844 0)
(0.00222005 0.440904 0)
(-0.0148016 0.341084 0)
(-0.0487117 0.267198 0)
(-0.0477934 0.201688 0)
(-0.0510119 0.142381 0)
(-0.0590835 0.0887891 0)
(-0.0734594 0.0422104 0)
(-0.092882 0.00351082 0)
(-0.115591 -0.0263256 0)
(-0.139543 -0.0460849 0)
(-0.161781 -0.0547163 0)
(-0.178775 -0.0533382 0)
(-0.188232 -0.0454285 0)
(-0.189899 -0.0349893 0)
(-0.184905 -0.0251149 0)
(-0.174775 -0.0175606 0)
(-0.160925 -0.0133172 0)
(-0.144687 -0.0129705 0)
(-0.127317 -0.0168761 0)
(-0.110132 -0.025416 0)
(-0.0946186 -0.0387757 0)
(-0.0824208 -0.0569589 0)
(-0.0752903 -0.0796368 0)
(0.0393647 0.409499 0)
(0.045751 0.368902 0)
(0.0240931 0.278941 0)
(0.0183299 0.206768 0)
(0.0121193 0.148762 0)
(0.00340383 0.0997033 0)
(-0.00914107 0.0578248 0)
(-0.025158 0.0227271 0)
(-0.0435445 -0.00518279 0)
(-0.0626893 -0.0252018 0)
(-0.0804329 -0.0368814 0)
(-0.0943896 -0.0410168 0)
(-0.102897 -0.0397669 0)
(-0.105547 -0.0357626 0)
(-0.102932 -0.0312585 0)
(-0.0961163 -0.0277791 0)
(-0.0862703 -0.0262965 0)
(-0.0745801 -0.0274229 0)
(-0.0622149 -0.0315471 0)
(-0.0503604 -0.0389708 0)
(-0.0402688 -0.0498529 0)
(-0.0333209 -0.0642184 0)
(-0.0309834 -0.0818199 0)
(0.0550534 0.341593 0)
(0.084813 0.368072 0)
(0.0812998 0.287692 0)
(0.0756697 0.214429 0)
(0.0688068 0.156909 0)
(0.0602516 0.110217 0)
(0.0494137 0.0711521 0)
(0.0363812 0.0383813 0)
(0.0218026 0.011693 0)
(0.00676991 -0.00867526 0)
(-0.00723891 -0.0225877 0)
(-0.018629 -0.0306107 0)
(-0.0262333 -0.0341391 0)
(-0.0296529 -0.0349162 0)
(-0.0291625 -0.0345528 0)
(-0.0254589 -0.0342735 0)
(-0.0194239 -0.0349339 0)
(-0.0120124 -0.0371095 0)
(-0.00420857 -0.0411865 0)
(0.00298758 -0.0474355 0)
(0.0085474 -0.0560174 0)
(0.0113265 -0.0669924 0)
(0.0100962 -0.0802059 0)
(0.0492086 0.266822 0)
(0.0952073 0.340817 0)
(0.111709 0.2853 0)
(0.114106 0.218957 0)
(0.110746 0.163868 0)
(0.104626 0.11911 0)
(0.0964554 0.0819028 0)
(0.0866031 0.0506593 0)
(0.0755802 0.0248006 0)
(0.0641436 0.00422213 0)
(0.0532869 -0.0111623 0)
(0.0440865 -0.0217906 0)
(0.0373566 -0.0285969 0)
(0.0334611 -0.0327553 0)
(0.0323098 -0.0354144 0)
(0.0334803 -0.0375173 0)
(0.0363571 -0.0397719 0)
(0.040221 -0.0426814 0)
(0.0443018 -0.0465966 0)
(0.0478077 -0.0517668 0)
(0.0499194 -0.0583592 0)
(0.0496992 -0.0664686 0)
(0.0461187 -0.0760237 0)
(0.034998 0.203093 0)
(0.0859518 0.297385 0)
(0.117013 0.268323 0)
(0.130455 0.215272 0)
(0.134021 0.166061 0)
(0.132668 0.124399 0)
(0.128436 0.089225 0)
(0.122252 0.0594115 0)
(0.114759 0.0343772 0)
(0.10661 0.0138759 0)
(0.0985427 -0.0022919 0)
(0.0913256 -0.0144968 0)
(0.0855723 -0.0233896 0)
(0.0816048 -0.029793 0)
(0.0794485 -0.0345294 0)
(0.0788788 -0.0383088 0)
(0.0794992 -0.041691 0)
(0.0808041 -0.0450921 0)
(0.0822228 -0.0488134 0)
(0.0831518 -0.0530752 0)
(0.082953 -0.0580384 0)
(0.0808649 -0.0638173 0)
(0.0760267 -0.0704021 0)
(0.0228921 0.154493 0)
(0.0696417 0.24937 0)
(0.107053 0.240291 0)
(0.129233 0.20224 0)
(0.140225 0.161502 0)
(0.144636 0.124578 0)
(0.145066 0.0922989 0)
(0.142875 0.0643842 0)
(0.138915 0.0405369 0)
(0.133873 0.0205561 0)
(0.128399 0.00423704 0)
(0.12311 -0.00873154 0)
(0.11852 -0.0188128 0)
(0.11493 -0.0265952 0)
(0.112442 -0.0326714 0)
(0.11097 -0.0375674 0)
(0.11028 -0.0417107 0)
(0.110037 -0.0454276 0)
(0.109837 -0.04896 0)
(0.109233 -0.0524895 0)
(0.107737 -0.0561579 0)
(0.104739 -0.0600835 0)
(0.0995211 -0.0642981 0)
(0.0148972 0.118821 0)
(0.0537618 0.20445 0)
(0.0911565 0.207434 0)
(0.117849 0.182342 0)
(0.134451 0.150626 0)
(0.14403 0.119464 0)
(0.14892 0.090935 0)
(0.150577 0.0655535 0)
(0.149966 0.0434018 0)
(0.147828 0.0244329 0)
(0.144795 0.00851466 0)
(0.141424 -0.00458254 0)
(0.138176 -0.0151836 0)
(0.135354 -0.0237041 0)
(0.133107 -0.030566 0)
(0.13144 -0.0361497 0)
(0.130238 -0.0407678 0)
(0.129293 -0.0446618 0)
(0.128329 -0.0480116 0)
(0.127026 -0.0509547 0)
(0.125021 -0.0536061 0)
(0.12183 -0.0560755 0)
(0.116862 -0.0584191 0)
(0.00984181 0.0929965 0)
(0.0409539 0.165831 0)
(0.0750392 0.174538 0)
(0.102647 0.158983 0)
(0.12234 0.135314 0)
(0.135567 0.110028 0)
(0.143992 0.0856855 0)
(0.148883 0.0633013 0)
(0.151174 0.043274 0)
(0.151606 0.0257319 0)
(0.150794 0.0106509 0)
(0.14926 -0.00210123 0)
(0.147434 -0.012733 0)
(0.145618 -0.0215228 0)
(0.14399 -0.0287588 0)
(0.142617 -0.0347028 0)
(0.141462 -0.0395701 0)
(0.140409 -0.0435255 0)
(0.139282 -0.04669 0)
(0.13786 -0.0491568 0)
(0.135882 -0.0510104 0)
(0.13297 -0.0523447 0)
(0.128645 -0.053226 0)
(0.00690446 0.0739878 0)
(0.0316661 0.13371 0)
(0.061378 0.144122 0)
(0.0876453 0.134906 0)
(0.108237 0.117693 0)
(0.123419 0.0977453 0)
(0.134161 0.0775545 0)
(0.141409 0.0583287 0)
(0.145963 0.0406564 0)
(0.148495 0.0248053 0)
(0.149576 0.010858 0)
(0.149685 -0.00122053 0)
(0.149221 -0.0115375 0)
(0.148475 -0.0202598 0)
(0.147642 -0.0275672 0)
(0.146822 -0.0336245 0)
(0.146034 -0.0385649 0)
(0.145227 -0.0424865 0)
(0.144298 -0.0454574 0)
(0.143106 -0.0475296 0)
(0.141469 -0.0487573 0)
(0.139102 -0.0492145 0)
(0.13562 -0.048967 0)
(0.00545585 0.0592312 0)
(0.0254178 0.107121 0)
(0.0508383 0.117147 0)
(0.0746678 0.111866 0)
(0.0946546 0.0995047 0)
(0.110386 0.0840489 0)
(0.122293 0.067639 0)
(0.131 0.0514585 0)
(0.137121 0.0361641 0)
(0.141218 0.0221073 0)
(0.143787 0.00945354 0)
(0.145255 -0.00174908 0)
(0.145978 -0.011523 0)
(0.146229 -0.0199456 0)
(0.146203 -0.0271089 0)
(0.14602 -0.0330983 0)
(0.145733 -0.0379795 0)
(0.145338 -0.041794 0)
(0.144787 -0.0445642 0)
(0.143996 -0.0463056 0)
(0.142851 -0.0470439 0)
(0.141141 -0.0468323 0)
(0.138561 -0.0457284 0)
(0.00480709 0.0470199 0)
(0.0212943 0.0849176 0)
(0.0429556 0.093696 0)
(0.0640326 0.0907574 0)
(0.0825852 0.081908 0)
(0.097909 0.0700492 0)
(0.110091 0.0568861 0)
(0.119491 0.0434605 0)
(0.126544 0.0304112 0)
(0.131689 0.0181211 0)
(0.135333 0.00680778 0)
(0.137836 -0.00341875 0)
(0.139511 -0.0125157 0)
(0.140602 -0.0204897 0)
(0.141295 -0.0273637 0)
(0.141719 -0.0331598 0)
(0.141947 -0.0378884 0)
(0.142006 -0.0415445 0)
(0.141888 -0.0441124 0)
(0.141555 -0.0455762 0)
(0.140942 -0.0459363 0)
(0.139898 -0.0452255 0)
(0.138189 -0.0434886 0)
(0.00445997 0.0364323 0)
(0.0184146 0.0661172 0)
(0.036928 0.0734402 0)
(0.055357 0.0718756 0)
(0.0721392 0.0655328 0)
(0.0865099 0.0564742 0)
(0.0983688 0.0459959 0)
(0.107893 0.0349573 0)
(0.115368 0.023931 0)
(0.121116 0.0132935 0)
(0.125456 0.00328622 0)
(0.128683 -0.00594039 0)
(0.13106 -0.0142979 0)
(0.132801 -0.0217395 0)
(0.134078 -0.028235 0)
(0.135018 -0.0337574 0)
(0.135705 -0.0382734 0)
(0.136188 -0.0417405 0)
(0.136485 -0.0441117 0)
(0.136593 -0.0453453 0)
(0.136486 -0.0454196 0)
(0.136061 -0.0443488 0)
(0.135141 -0.0421625 0)
(0.00419966 0.0270257 0)
(0.0162042 0.0500056 0)
(0.0320966 0.0559464 0)
(0.0481358 0.0551926 0)
(0.0630927 0.0506431 0)
(0.0762525 0.0437376 0)
(0.0874326 0.0354314 0)
(0.0966938 0.0264045 0)
(0.10421 0.0171447 0)
(0.110208 0.00799962 0)
(0.114926 -0.000786606 0)
(0.118601 -0.00904187 0)
(0.121446 -0.0166487 0)
(0.123647 -0.0235221 0)
(0.125357 -0.029593 0)
(0.126697 -0.0347971 0)
(0.127755 -0.0390673 0)
(0.128594 -0.0423321 0)
(0.12925 -0.0445196 0)
(0.129746 -0.0455669 0)
(0.130084 -0.0454343 0)
(0.130197 -0.0441187 0)
(0.129959 -0.0416341 0)
(0.00397824 0.0185725 0)
(0.0143827 0.0360971 0)
(0.0280606 0.0408245 0)
(0.0419826 0.0405543 0)
(0.0551853 0.0373002 0)
(0.0670437 0.032045 0)
(0.077352 0.0254756 0)
(0.086103 0.0181151 0)
(0.0933922 0.0103662 0)
(0.0993701 0.00253661 0)
(0.104213 -0.00513971 0)
(0.108103 -0.0124853 0)
(0.111213 -0.0193649 0)
(0.113698 -0.0256686 0)
(0.115695 -0.0313005 0)
(0.117314 -0.0361688 0)
(0.118645 -0.0401815 0)
(0.119756 -0.0432449 0)
(0.120697 -0.0452678 0)
(0.121508 -0.0461709 0)
(0.122211 -0.0458994 0)
(0.12277 -0.0444349 0)
(0.123097 -0.0417765 0)
(0.00379416 0.0109222 0)
(0.0128319 0.0240502 0)
(0.0246048 0.0277591 0)
(0.0366509 0.0277801 0)
(0.0482148 0.0254709 0)
(0.0587687 0.0214806 0)
(0.0681126 0.016291 0)
(0.0762019 0.0102964 0)
(0.0830791 0.00382182 0)
(0.0888397 -0.00286719 0)
(0.0936094 -0.00955569 0)
(0.097526 -0.0160707 0)
(0.100728 -0.0222686 0)
(0.103345 -0.0280252 0)
(0.105495 -0.0332263 0)
(0.107278 -0.0377618 0)
(0.108782 -0.0415212 0)
(0.110077 -0.0443948 0)
(0.111223 -0.0462772 0)
(0.112268 -0.0470765 0)
(0.113252 -0.0467253 0)
(0.114161 -0.0451925 0)
(0.114938 -0.0424627 0)
(0.00364104 0.00395905 0)
(0.011491 0.0136069 0)
(0.0216057 0.0164957 0)
(0.0319861 0.0166952 0)
(0.04204 0.0150808 0)
(0.0513313 0.0120606 0)
(0.0596787 0.00796335 0)
(0.0670188 0.00308108 0)
(0.07336 -0.00232787 0)
(0.078759 -0.00803977 0)
(0.0833028 -0.0138634 0)
(0.0870958 -0.0196347 0)
(0.0902474 -0.0252097 0)
(0.0928654 -0.0304571 0)
(0.0950505 -0.035252 0)
(0.0968939 -0.0394717 0)
(0.0984772 -0.0429939 0)
(0.0998716 -0.0456972 0)
(0.10114 -0.0474664 0)
(0.10234 -0.0482001 0)
(0.10352 -0.0478213 0)
(0.104684 -0.0462876 0)
(0.105801 -0.043571 0)
(0.0035012 -0.00239831 0)
(0.0103124 0.00455962 0)
(0.0189793 0.00681821 0)
(0.0278844 0.00713336 0)
(0.0365624 0.00603507 0)
(0.0446584 0.00376151 0)
(0.0520137 0.00052911 0)
(0.0585588 -0.00344916 0)
(0.0642817 -0.00797189 0)
(0.0692139 -0.0128544 0)
(0.0734162 -0.0179296 0)
(0.0769668 -0.0230461 0)
(0.0799526 -0.0280639 0)
(0.0824623 -0.0328498 0)
(0.0845821 -0.0372735 0)
(0.0863934 -0.0412047 0)
(0.0879719 -0.0445135 0)
(0.0893866 -0.0470712 0)
(0.0907022 -0.0487559 0)
(0.0919797 -0.0494599 0)
(0.0932745 -0.0490989 0)
(0.0946034 -0.047621 0)
(0.095957 -0.0449873 0)
(0.00334941 -0.00821257 0)
(0.00925272 -0.00326816 0)
(0.0166656 -0.00146803 0)
(0.0242757 -0.00106712 0)
(0.0317141 -0.00177254 0)
(0.0386937 -0.00346302 0)
(0.0450805 -0.00600426 0)
(0.0508087 -0.00924582 0)
(0.0558594 -0.0130337 0)
(0.0602496 -0.017217 0)
(0.0640229 -0.0216519 0)
(0.0672388 -0.0262009 0)
(0.0699667 -0.0307303 0)
(0.0722796 -0.0351082 0)
(0.0742511 -0.0392022 0)
(0.0759528 -0.0428786 0)
(0.0774535 -0.0460027 0)
(0.0788188 -0.0484421 0)
(0.0801121 -0.0500713 0)
(0.081396 -0.0507783 0)
(0.0827293 -0.0504742 0)
(0.0841389 -0.0490993 0)
(0.0856316 -0.0466051 0)
(0.00317466 -0.0135201 0)
(0.00829491 -0.0100322 0)
(0.014635 -0.00854523 0)
(0.0211208 -0.00806273 0)
(0.0274479 -0.00844951 0)
(0.0333862 -0.00966736 0)
(0.0388316 -0.0116447 0)
(0.0437328 -0.0142805 0)
(0.0480744 -0.0174589 0)
(0.0518688 -0.0210574 0)
(0.0551491 -0.0249522 0)
(0.0579618 -0.0290183 0)
(0.0603625 -0.0331292 0)
(0.0624111 -0.0371558 0)
(0.0641696 -0.0409658 0)
(0.0657001 -0.0444243 0)
(0.0670637 -0.0473952 0)
(0.068321 -0.0497446 0)
(0.0695323 -0.0513454 0)
(0.0707592 -0.0520844 0)
(0.0720617 -0.0518694 0)
(0.0734739 -0.0506353 0)
(0.075015 -0.0483254 0)
(0.00297013 -0.0183515 0)
(0.00744192 -0.0158861 0)
(0.0128887 -0.0145911 0)
(0.0184005 -0.0140001 0)
(0.0237171 -0.0140921 0)
(0.028667 -0.0148992 0)
(0.0331877 -0.0164012 0)
(0.0372543 -0.0185344 0)
(0.040863 -0.0212101 0)
(0.0440271 -0.0243267 0)
(0.0467731 -0.027775 0)
(0.049138 -0.0314404 0)
(0.0511657 -0.0352025 0)
(0.0529045 -0.0389356 0)
(0.0544054 -0.042509 0)
(0.0557208 -0.0457884 0)
(0.0569037 -0.0486381 0)
(0.058008 -0.0509244 0)
(0.0590893 -0.0525212 0)
(0.0602059 -0.0533155 0)
(0.0614168 -0.0532142 0)
(0.0627608 -0.0521487 0)
(0.0642665 -0.0500558 0)
(0.00277113 -0.0227494 0)
(0.00675122 -0.0209938 0)
(0.0114544 -0.0197688 0)
(0.0160826 -0.0189903 0)
(0.0204305 -0.0187587 0)
(0.0244069 -0.0191804 0)
(0.0280067 -0.0202736 0)
(0.0312369 -0.0219939 0)
(0.0341064 -0.0242653 0)
(0.0366293 -0.0269967 0)
(0.0388264 -0.0300884 0)
(0.0407256 -0.033433 0)
(0.0423602 -0.0369152 0)
(0.0437679 -0.0404127 0)
(0.0449889 -0.0437972 0)
(0.0460655 -0.0469358 0)
(0.0470416 -0.0496945 0)
(0.0479634 -0.0519418 0)
(0.0488801 -0.0535538 0)
(0.0498451 -0.0544196 0)
(0.050914 -0.0544473 0)
(0.0521279 -0.0535666 0)
(0.0535217 -0.0517103 0)
(0.00263908 -0.0268062 0)
(0.00631881 -0.0255137 0)
(0.0103148 -0.0241673 0)
(0.0140303 -0.023054 0)
(0.017378 -0.0224429 0)
(0.0203723 -0.0225036 0)
(0.0230638 -0.0232605 0)
(0.0254812 -0.0246614 0)
(0.0276373 -0.0266265 0)
(0.0295415 -0.0290672 0)
(0.0312073 -0.0318891 0)
(0.0326533 -0.0349898 0)
(0.0339032 -0.0382587 0)
(0.034984 -0.0415765 0)
(0.0359256 -0.0448173 0)
(0.0367598 -0.0478507 0)
(0.0375213 -0.0505453 0)
(0.0382475 -0.0527726 0)
(0.0389799 -0.0544122 0)
(0.0397653 -0.0553571 0)
(0.0406538 -0.0555178 0)
(0.0416863 -0.0548251 0)
(0.0429008 -0.0532099 0)