/*--------------------------------*- C++ -*----------------------------------*\
| =========                 |                                                 |
| \\      /  F ield         | OpenFOAM: The Open Source CFD Toolbox           |
|  \\    /   O peration     | Version:  2.3.0                                 |
|   \\  /    A nd           | Web:      www.OpenFOAM.org                      |
|    \\/     M anipulation  |                                                 |
\*---------------------------------------------------------------------------*/
FoamFile
{
    version     2.0;
    format      ascii;
    class       volScalarField;
    location    "0.065";
    object      T;
}
// * * * * * * * * * * * * * * * * * * * * * * * * * * * * * * * * * * * * * //

dimensions      [0 0 0 1 0 0 0];

internalField   nonuniform List<scalar> 
12225
(
2.44695e-10
2.43228e-10
2.42817e-10
2.42695e-10
2.42655e-10
2.42773e-10
2.43167e-10
2.44064e-10
2.45913e-10
2.49587e-10
2.56837e-10
2.7136e-10
3.01326e-10
3.65424e-10
5.07408e-10
8.32246e-10
1.60374e-09
3.56613e-09
2.41252e-10
2.41674e-10
2.42022e-10
2.42258e-10
2.42418e-10
2.42652e-10
2.43118e-10
2.44068e-10
2.45965e-10
2.49686e-10
2.56973e-10
2.71465e-10
3.01132e-10
3.64041e-10
5.01988e-10
8.13179e-10
1.53237e-09
3.22306e-09
2.42958e-10
2.42929e-10
2.42826e-10
2.42791e-10
2.42802e-10
2.4295e-10
2.43375e-10
2.44325e-10
2.46266e-10
2.50081e-10
2.57501e-10
2.72082e-10
3.01475e-10
3.62683e-10
4.94085e-10
7.82257e-10
1.41781e-09
2.7776e-09
2.4308e-10
2.42926e-10
2.42793e-10
2.42789e-10
2.42856e-10
2.43061e-10
2.43552e-10
2.44598e-10
2.46693e-10
2.50752e-10
2.58517e-10
2.73466e-10
3.02852e-10
3.62288e-10
4.85666e-10
7.45175e-10
1.28471e-09
2.33944e-09
2.43277e-10
2.43186e-10
2.43088e-10
2.43091e-10
2.43173e-10
2.43408e-10
2.43962e-10
2.45136e-10
2.47471e-10
2.51941e-10
2.60335e-10
2.76077e-10
3.05994e-10
3.64106e-10
4.79262e-10
7.08725e-10
1.15525e-09
1.96074e-09
2.43585e-10
2.43547e-10
2.43479e-10
2.43487e-10
2.43589e-10
2.43875e-10
2.44536e-10
2.45922e-10
2.4865e-10
2.53798e-10
2.63264e-10
2.80482e-10
3.11892e-10
3.69903e-10
4.78353e-10
6.80884e-10
1.04811e-09
1.66521e-09
2.44082e-10
2.44072e-10
2.4403e-10
2.44052e-10
2.44186e-10
2.44549e-10
2.45374e-10
2.47087e-10
2.50429e-10
2.56654e-10
2.67866e-10
2.87634e-10
3.22164e-10
3.82464e-10
4.87964e-10
6.71173e-10
9.79755e-10
1.46589e-09
2.44678e-10
2.44678e-10
2.44658e-10
2.44701e-10
2.4488e-10
2.45342e-10
2.4638e-10
2.4852e-10
2.52672e-10
2.60333e-10
2.73921e-10
2.9731e-10
3.36761e-10
4.02513e-10
5.11184e-10
6.88405e-10
9.69021e-10
1.3893e-09
2.45339e-10
2.45346e-10
2.45346e-10
2.45414e-10
2.45645e-10
2.46227e-10
2.47521e-10
2.50182e-10
2.55324e-10
2.64757e-10
2.81311e-10
3.09321e-10
3.55361e-10
4.29395e-10
5.46322e-10
7.2737e-10
9.99524e-10
1.39002e-09
2.4624e-10
2.46252e-10
2.46272e-10
2.46376e-10
2.46687e-10
2.47449e-10
2.49136e-10
2.52597e-10
2.59273e-10
2.7147e-10
2.92701e-10
3.28129e-10
3.85124e-10
4.74009e-10
6.08907e-10
8.08247e-10
1.09386e-09
1.48728e-09
2.47467e-10
2.47483e-10
2.47527e-10
2.47682e-10
2.48116e-10
2.49162e-10
2.5147e-10
2.56207e-10
2.65347e-10
2.82016e-10
3.10888e-10
3.58605e-10
4.34183e-10
5.49402e-10
7.19068e-10
9.60869e-10
1.29429e-09
1.73803e-09
2.49136e-10
2.49158e-10
2.49232e-10
2.49465e-10
2.50095e-10
2.51605e-10
2.54938e-10
2.61803e-10
2.75081e-10
2.99317e-10
3.41226e-10
4.10127e-10
5.18226e-10
6.80659e-10
9.15206e-10
1.24155e-09
1.67987e-09
2.24876e-09
2.51404e-10
2.51436e-10
2.51554e-10
2.51914e-10
2.52875e-10
2.55181e-10
2.60298e-10
2.70898e-10
2.91508e-10
3.2926e-10
3.94624e-10
5.0193e-10
6.69512e-10
9.19322e-10
1.27595e-09
1.76507e-09
2.41135e-09
3.23606e-09
2.54485e-10
2.54534e-10
2.54725e-10
2.55307e-10
2.56858e-10
2.60613e-10
2.69022e-10
2.86602e-10
3.21056e-10
3.84557e-10
4.94931e-10
6.76377e-10
9.59364e-10
1.37948e-09
1.9752e-09
2.78483e-09
3.84287e-09
5.17637e-09
2.58666e-10
2.58745e-10
2.59068e-10
2.60065e-10
2.62746e-10
2.69319e-10
2.8424e-10
3.15835e-10
3.78448e-10
4.94886e-10
6.98565e-10
1.03457e-09
1.55891e-09
2.33547e-09
3.43101e-09
4.90871e-09
6.82124e-09
9.20416e-09
2.64325e-10
2.64464e-10
2.65049e-10
2.66876e-10
2.71874e-10
2.84351e-10
3.13201e-10
3.75346e-10
5.00378e-10
7.35792e-10
1.15137e-09
1.84073e-09
2.9183e-09
4.51102e-09
6.74567e-09
9.73424e-09
1.35596e-08
1.82633e-08
2.71952e-10
2.72218e-10
2.73351e-10
2.76965e-10
2.87079e-10
3.12957e-10
3.74285e-10
5.09468e-10
7.87104e-10
1.31888e-09
2.26978e-09
3.85988e-09
6.35244e-09
1.00276e-08
1.51463e-08
2.19134e-08
3.04477e-08
4.07629e-08
2.81411e-10
2.81932e-10
2.84203e-10
2.91628e-10
3.13038e-10
3.69601e-10
5.08002e-10
8.22524e-10
1.48661e-09
2.78889e-09
5.16031e-09
9.1722e-09
1.54881e-08
2.47694e-08
3.756e-08
5.41879e-08
7.47106e-08
9.89096e-08
2.91365e-10
2.92323e-10
2.96581e-10
3.10904e-10
3.53626e-10
4.70685e-10
7.67936e-10
1.46837e-09
2.9981e-09
6.08833e-09
1.18506e-08
2.17545e-08
3.74439e-08
6.04021e-08
9.15852e-08
1.31189e-07
1.78628e-07
2.32683e-07
3.00738e-10
3.02312e-10
3.09449e-10
3.34147e-10
4.10357e-10
6.27091e-10
1.19925e-09
2.60119e-09
5.78093e-09
1.24304e-08
2.51935e-08
4.75817e-08
8.33645e-08
1.35472e-07
2.04926e-07
2.90468e-07
3.89006e-07
4.96458e-07
3.09202e-10
3.11551e-10
3.22401e-10
3.60982e-10
4.84027e-10
8.47097e-10
1.84426e-09
4.39044e-09
1.04102e-08
2.351e-08
4.95545e-08
9.64707e-08
1.7244e-07
2.82497e-07
4.25558e-07
5.94604e-07
7.79458e-07
9.69836e-07
3.16546e-10
3.19772e-10
3.34923e-10
3.90165e-10
5.7185e-10
1.12713e-09
2.71268e-09
6.93513e-09
1.73699e-08
4.11168e-08
9.03646e-08
1.82205e-07
3.33852e-07
5.52519e-07
8.27105e-07
1.1334e-06
1.44549e-06
1.74358e-06
3.22676e-10
3.26805e-10
3.46473e-10
4.19795e-10
6.67673e-10
1.44999e-09
3.76721e-09
1.01978e-08
2.68292e-08
6.65682e-08
1.53155e-07
3.21996e-07
6.09161e-07
1.02238e-06
1.51591e-06
2.0226e-06
2.49045e-06
2.89399e-06
3.27601e-10
3.32584e-10
3.56597e-10
4.47826e-10
7.63585e-10
1.78847e-09
4.92588e-09
1.39745e-08
3.84455e-08
9.99691e-08
2.41716e-07
5.34077e-07
1.05396e-06
1.80625e-06
2.63741e-06
3.39063e-06
3.99343e-06
4.44246e-06
3.31405e-10
3.37123e-10
3.64981e-10
4.72515e-10
8.51952e-10
2.11255e-09
6.08155e-09
1.79251e-08
5.13101e-08
1.39575e-07
3.55509e-07
8.32154e-07
1.73679e-06
3.07835e-06
4.37748e-06
5.34251e-06
5.957e-06
6.31189e-06
3.34273e-10
3.4056e-10
3.71576e-10
4.92871e-10
9.27349e-10
2.39761e-09
7.13269e-09
2.16668e-08
6.41323e-08
1.81726e-07
4.87279e-07
1.21588e-06
2.72994e-06
5.12549e-06
6.94417e-06
7.88781e-06
8.248e-06
8.30806e-06
3.36297e-10
3.42938e-10
3.76306e-10
5.08277e-10
9.86427e-10
2.62704e-09
8.0022e-09
2.48644e-08
7.55597e-08
2.21504e-07
6.22143e-07
1.65735e-06
4.07516e-06
8.46904e-06
1.04808e-05
1.08271e-05
1.05672e-05
1.01552e-05
3.37737e-10
3.44925e-10
3.80125e-10
5.19934e-10
1.03051e-09
2.7994e-09
8.66432e-09
2.73452e-08
8.46603e-08
2.54443e-07
7.41032e-07
2.09159e-06
5.69438e-06
1.41432e-05
1.48063e-05
1.36536e-05
1.25167e-05
1.15978e-05
3.35797e-10
3.4372e-10
3.80534e-10
5.2544e-10
1.0565e-09
2.90831e-09
9.09721e-09
2.90049e-08
9.08699e-08
2.77396e-07
8.2623e-07
2.42056e-06
7.17555e-06
2.42268e-05
1.87597e-05
1.56251e-05
1.37828e-05
1.25036e-05
3.41294e-10
3.46844e-10
3.83156e-10
5.30343e-10
1.07286e-09
2.97149e-09
9.34133e-09
2.99263e-08
9.42748e-08
2.89798e-07
8.70582e-07
2.56523e-06
7.37423e-06
1.92083e-05
1.8948e-05
1.63968e-05
1.4349e-05
1.28989e-05
8.94175e-08
8.95517e-08
8.98181e-08
9.02243e-08
9.0775e-08
9.14725e-08
9.23205e-08
9.33224e-08
9.44807e-08
9.57992e-08
9.72813e-08
9.89295e-08
1.00746e-07
1.02734e-07
1.04896e-07
1.07233e-07
1.09748e-07
1.12443e-07
1.15318e-07
1.18375e-07
1.21615e-07
1.25038e-07
1.28646e-07
1.32439e-07
1.36416e-07
1.40578e-07
1.44923e-07
1.49452e-07
1.54163e-07
1.59054e-07
1.64125e-07
1.69374e-07
1.74798e-07
1.80396e-07
1.86164e-07
1.92101e-07
1.98202e-07
2.04465e-07
2.10886e-07
2.17461e-07
2.24187e-07
2.31058e-07
2.38071e-07
2.45221e-07
2.52504e-07
2.59913e-07
2.67444e-07
2.75091e-07
2.8285e-07
2.90714e-07
2.98678e-07
3.06737e-07
3.14883e-07
3.23112e-07
3.31418e-07
3.39794e-07
3.48236e-07
3.56736e-07
3.6529e-07
3.73892e-07
3.82537e-07
3.91219e-07
3.99932e-07
4.08673e-07
4.17436e-07
4.26217e-07
4.35011e-07
4.43814e-07
4.52622e-07
4.61432e-07
4.70239e-07
4.79041e-07
4.87835e-07
4.96618e-07
5.05386e-07
5.14139e-07
5.22874e-07
5.31588e-07
5.4028e-07
5.48949e-07
5.57593e-07
5.66212e-07
5.74804e-07
5.83368e-07
5.91904e-07
6.00412e-07
6.08891e-07
6.17341e-07
6.25763e-07
6.34155e-07
6.42519e-07
6.50856e-07
6.59165e-07
6.67447e-07
6.75703e-07
6.83933e-07
6.92138e-07
7.00319e-07
7.08477e-07
7.16612e-07
7.24724e-07
7.32815e-07
7.40886e-07
7.48935e-07
7.56964e-07
7.64973e-07
7.72963e-07
7.80932e-07
7.88882e-07
7.96811e-07
8.04721e-07
8.12611e-07
8.20479e-07
8.28326e-07
8.36151e-07
8.43953e-07
8.51732e-07
8.59487e-07
8.67216e-07
8.74919e-07
8.82595e-07
8.90242e-07
8.9786e-07
9.05446e-07
9.13001e-07
9.20521e-07
9.28006e-07
9.35454e-07
9.42864e-07
9.50233e-07
9.5756e-07
9.64844e-07
9.72082e-07
9.79272e-07
9.86414e-07
9.93504e-07
1.00054e-06
1.00752e-06
1.01444e-06
1.02131e-06
1.02811e-06
1.03485e-06
1.04152e-06
1.04812e-06
1.05466e-06
1.06112e-06
1.0675e-06
1.07381e-06
1.08004e-06
1.08619e-06
1.09225e-06
1.09823e-06
1.10412e-06
1.10992e-06
1.11563e-06
1.12125e-06
1.12677e-06
1.1322e-06
1.13752e-06
1.14274e-06
1.14786e-06
1.15287e-06
1.1578e-06
1.16257e-06
1.16722e-06
1.17177e-06
1.17617e-06
1.18045e-06
1.18463e-06
1.1887e-06
1.19265e-06
1.19648e-06
1.2002e-06
1.20379e-06
1.20728e-06
1.21063e-06
1.21391e-06
1.21697e-06
1.2204e-06
1.22141e-06
8.91807e-08
8.93137e-08
8.95852e-08
8.9997e-08
9.05522e-08
9.12544e-08
9.21066e-08
9.31117e-08
9.42726e-08
9.55923e-08
9.7074e-08
9.87207e-08
1.00535e-07
1.02519e-07
1.04676e-07
1.07008e-07
1.09516e-07
1.12202e-07
1.15068e-07
1.18115e-07
1.21344e-07
1.24756e-07
1.28351e-07
1.32129e-07
1.36092e-07
1.40237e-07
1.44566e-07
1.49077e-07
1.5377e-07
1.58642e-07
1.63694e-07
1.68922e-07
1.74325e-07
1.79902e-07
1.85648e-07
1.91562e-07
1.97641e-07
2.03881e-07
2.10278e-07
2.1683e-07
2.23532e-07
2.30381e-07
2.3737e-07
2.44497e-07
2.51756e-07
2.59142e-07
2.6665e-07
2.74275e-07
2.82012e-07
2.89854e-07
2.97796e-07
3.05833e-07
3.13959e-07
3.22167e-07
3.30453e-07
3.38809e-07
3.47232e-07
3.55714e-07
3.6425e-07
3.72834e-07
3.81462e-07
3.90128e-07
3.98826e-07
4.07552e-07
4.16302e-07
4.25069e-07
4.33851e-07
4.42642e-07
4.51439e-07
4.60239e-07
4.69037e-07
4.77831e-07
4.86617e-07
4.95393e-07
5.04155e-07
5.12903e-07
5.21633e-07
5.30343e-07
5.39033e-07
5.477e-07
5.56343e-07
5.6496e-07
5.73552e-07
5.82117e-07
5.90655e-07
5.99165e-07
6.07647e-07
6.161e-07
6.24526e-07
6.32923e-07
6.41293e-07
6.49635e-07
6.57951e-07
6.6624e-07
6.74504e-07
6.82742e-07
6.90957e-07
6.99148e-07
7.07316e-07
7.15461e-07
7.23586e-07
7.3169e-07
7.39773e-07
7.47837e-07
7.55881e-07
7.63906e-07
7.71912e-07
7.79899e-07
7.87867e-07
7.95815e-07
8.03745e-07
8.11654e-07
8.19543e-07
8.27411e-07
8.35257e-07
8.43081e-07
8.50883e-07
8.5866e-07
8.66413e-07
8.74139e-07
8.81839e-07
8.8951e-07
8.97152e-07
9.04763e-07
9.12342e-07
9.19887e-07
9.27396e-07
9.34869e-07
9.42304e-07
9.49698e-07
9.5705e-07
9.64358e-07
9.7162e-07
9.78834e-07
9.85999e-07
9.93112e-07
1.00017e-06
1.00717e-06
1.01412e-06
1.02101e-06
1.02783e-06
1.03459e-06
1.04128e-06
1.0479e-06
1.05445e-06
1.06093e-06
1.06733e-06
1.07365e-06
1.0799e-06
1.08606e-06
1.09214e-06
1.09813e-06
1.10403e-06
1.10984e-06
1.11556e-06
1.12118e-06
1.12671e-06
1.13214e-06
1.13746e-06
1.14269e-06
1.1478e-06
1.15281e-06
1.15773e-06
1.16251e-06
1.16719e-06
1.17178e-06
1.17624e-06
1.18058e-06
1.18481e-06
1.18892e-06
1.19292e-06
1.19679e-06
1.20055e-06
1.20419e-06
1.20772e-06
1.21112e-06
1.21444e-06
1.21757e-06
1.22092e-06
1.22276e-06
8.87078e-08
8.88361e-08
8.91065e-08
8.9519e-08
9.00751e-08
9.07772e-08
9.16282e-08
9.2631e-08
9.37886e-08
9.5104e-08
9.658e-08
9.82193e-08
1.00025e-07
1.01998e-07
1.04143e-07
1.0646e-07
1.08952e-07
1.1162e-07
1.14466e-07
1.17491e-07
1.20695e-07
1.24081e-07
1.27648e-07
1.31398e-07
1.35328e-07
1.39441e-07
1.43735e-07
1.4821e-07
1.52865e-07
1.57699e-07
1.6271e-07
1.67897e-07
1.73257e-07
1.7879e-07
1.84492e-07
1.90361e-07
1.96394e-07
2.02587e-07
2.08938e-07
2.15443e-07
2.22097e-07
2.28898e-07
2.3584e-07
2.42919e-07
2.5013e-07
2.57469e-07
2.64931e-07
2.7251e-07
2.802e-07
2.87997e-07
2.95895e-07
3.03888e-07
3.11971e-07
3.20138e-07
3.28382e-07
3.36699e-07
3.45083e-07
3.53527e-07
3.62027e-07
3.70577e-07
3.79171e-07
3.87805e-07
3.96473e-07
4.0517e-07
4.13892e-07
4.22634e-07
4.31392e-07
4.40161e-07
4.48938e-07
4.57719e-07
4.66501e-07
4.75279e-07
4.84052e-07
4.92817e-07
5.0157e-07
5.1031e-07
5.19035e-07
5.27742e-07
5.3643e-07
5.45097e-07
5.53742e-07
5.62364e-07
5.70961e-07
5.79534e-07
5.88081e-07
5.96603e-07
6.05098e-07
6.13567e-07
6.22009e-07
6.30426e-07
6.38816e-07
6.47181e-07
6.55522e-07
6.63837e-07
6.72129e-07
6.80398e-07
6.88644e-07
6.9687e-07
7.05074e-07
7.13257e-07
7.21422e-07
7.29568e-07
7.37696e-07
7.45806e-07
7.53898e-07
7.61973e-07
7.70031e-07
7.78072e-07
7.86095e-07
7.94101e-07
8.02089e-07
8.10059e-07
8.18011e-07
8.25943e-07
8.33854e-07
8.41745e-07
8.49615e-07
8.57462e-07
8.65285e-07
8.73083e-07
8.80855e-07
8.886e-07
8.96316e-07
9.04002e-07
9.11657e-07
9.19278e-07
9.26864e-07
9.34414e-07
9.41926e-07
9.49397e-07
9.56827e-07
9.64212e-07
9.71551e-07
9.78842e-07
9.86083e-07
9.93272e-07
1.00041e-06
1.00748e-06
1.0145e-06
1.02146e-06
1.02835e-06
1.03518e-06
1.04194e-06
1.04863e-06
1.05525e-06
1.06179e-06
1.06826e-06
1.07465e-06
1.08095e-06
1.08717e-06
1.0933e-06
1.09935e-06
1.1053e-06
1.11117e-06
1.11693e-06
1.1226e-06
1.12817e-06
1.13364e-06
1.13901e-06
1.14427e-06
1.14943e-06
1.15448e-06
1.15943e-06
1.16425e-06
1.16897e-06
1.17359e-06
1.1781e-06
1.18248e-06
1.18675e-06
1.1909e-06
1.19493e-06
1.19884e-06
1.20263e-06
1.2063e-06
1.20985e-06
1.21328e-06
1.21661e-06
1.21976e-06
1.22305e-06
1.22534e-06
8.7988e-08
8.81128e-08
8.8382e-08
8.87939e-08
8.93485e-08
9.00478e-08
9.08948e-08
9.18923e-08
9.30431e-08
9.43498e-08
9.58153e-08
9.74419e-08
9.92321e-08
1.01188e-07
1.03313e-07
1.05607e-07
1.08074e-07
1.10714e-07
1.13529e-07
1.1652e-07
1.19689e-07
1.23036e-07
1.26562e-07
1.30267e-07
1.34152e-07
1.38216e-07
1.42459e-07
1.46881e-07
1.51481e-07
1.56258e-07
1.6121e-07
1.66336e-07
1.71635e-07
1.77105e-07
1.82742e-07
1.88546e-07
1.94512e-07
2.00638e-07
2.06921e-07
2.13358e-07
2.19944e-07
2.26675e-07
2.33548e-07
2.40559e-07
2.47702e-07
2.54972e-07
2.62366e-07
2.69878e-07
2.77502e-07
2.85234e-07
2.93067e-07
3.00997e-07
3.09018e-07
3.17124e-07
3.25309e-07
3.33569e-07
3.41896e-07
3.50287e-07
3.58735e-07
3.67234e-07
3.75781e-07
3.84368e-07
3.92993e-07
4.01649e-07
4.10331e-07
4.19037e-07
4.2776e-07
4.36498e-07
4.45246e-07
4.54001e-07
4.62759e-07
4.71517e-07
4.80272e-07
4.89021e-07
4.97762e-07
5.06492e-07
5.1521e-07
5.23913e-07
5.326e-07
5.41269e-07
5.49918e-07
5.58547e-07
5.67155e-07
5.75741e-07
5.84304e-07
5.92845e-07
6.01361e-07
6.09855e-07
6.18324e-07
6.26771e-07
6.35194e-07
6.43595e-07
6.51974e-07
6.60331e-07
6.68668e-07
6.76984e-07
6.85281e-07
6.93559e-07
7.0182e-07
7.10063e-07
7.18291e-07
7.26503e-07
7.347e-07
7.42882e-07
7.51049e-07
7.59202e-07
7.67341e-07
7.75465e-07
7.83575e-07
7.9167e-07
7.9975e-07
8.07815e-07
8.15863e-07
8.23894e-07
8.31907e-07
8.39902e-07
8.47877e-07
8.55831e-07
8.63764e-07
8.71673e-07
8.79558e-07
8.87417e-07
8.95248e-07
9.03051e-07
9.10823e-07
9.18562e-07
9.26268e-07
9.33937e-07
9.41569e-07
9.4916e-07
9.5671e-07
9.64215e-07
9.71674e-07
9.79085e-07
9.86444e-07
9.93751e-07
1.001e-06
1.0082e-06
1.01533e-06
1.0224e-06
1.02941e-06
1.03635e-06
1.04322e-06
1.05001e-06
1.05674e-06
1.06338e-06
1.06995e-06
1.07643e-06
1.08283e-06
1.08915e-06
1.09537e-06
1.1015e-06
1.10755e-06
1.11349e-06
1.11934e-06
1.12509e-06
1.13073e-06
1.13627e-06
1.14171e-06
1.14704e-06
1.15226e-06
1.15738e-06
1.16238e-06
1.16726e-06
1.17204e-06
1.17671e-06
1.18126e-06
1.18569e-06
1.19e-06
1.19419e-06
1.19826e-06
1.20221e-06
1.20604e-06
1.20974e-06
1.21332e-06
1.21676e-06
1.22011e-06
1.22327e-06
1.22652e-06
1.22905e-06
8.70128e-08
8.71361e-08
8.74038e-08
8.78138e-08
8.83652e-08
8.90597e-08
8.99001e-08
9.08889e-08
9.20288e-08
9.33223e-08
9.47718e-08
9.63798e-08
9.81485e-08
1.0008e-07
1.02177e-07
1.0444e-07
1.06872e-07
1.09475e-07
1.12249e-07
1.15197e-07
1.18318e-07
1.21615e-07
1.25087e-07
1.28735e-07
1.3256e-07
1.36562e-07
1.4074e-07
1.45094e-07
1.49623e-07
1.54327e-07
1.59204e-07
1.64254e-07
1.69474e-07
1.74863e-07
1.80419e-07
1.86139e-07
1.9202e-07
1.98061e-07
2.04258e-07
2.10608e-07
2.17106e-07
2.23751e-07
2.30536e-07
2.37459e-07
2.44515e-07
2.51699e-07
2.59007e-07
2.66434e-07
2.73974e-07
2.81622e-07
2.89374e-07
2.97224e-07
3.05166e-07
3.13196e-07
3.21306e-07
3.29493e-07
3.3775e-07
3.46072e-07
3.54454e-07
3.62891e-07
3.71376e-07
3.79907e-07
3.88476e-07
3.9708e-07
4.05714e-07
4.14374e-07
4.23056e-07
4.31754e-07
4.40467e-07
4.4919e-07
4.57919e-07
4.66652e-07
4.75385e-07
4.84117e-07
4.92843e-07
5.01563e-07
5.10274e-07
5.18974e-07
5.27661e-07
5.36334e-07
5.44992e-07
5.53632e-07
5.62256e-07
5.70861e-07
5.79447e-07
5.88013e-07
5.9656e-07
6.05087e-07
6.13594e-07
6.22082e-07
6.3055e-07
6.39e-07
6.47431e-07
6.55844e-07
6.64241e-07
6.72621e-07
6.80986e-07
6.89336e-07
6.97672e-07
7.05996e-07
7.14307e-07
7.22606e-07
7.30895e-07
7.39172e-07
7.47439e-07
7.55696e-07
7.63942e-07
7.72177e-07
7.80401e-07
7.88614e-07
7.96816e-07
8.05005e-07
8.1318e-07
8.21342e-07
8.29489e-07
8.3762e-07
8.45734e-07
8.53829e-07
8.61906e-07
8.69961e-07
8.77993e-07
8.86002e-07
8.93985e-07
9.0194e-07
9.09866e-07
9.17761e-07
9.25622e-07
9.33448e-07
9.41237e-07
9.48986e-07
9.56692e-07
9.64355e-07
9.71971e-07
9.79537e-07
9.87053e-07
9.94514e-07
1.00192e-06
1.00926e-06
1.01655e-06
1.02377e-06
1.03092e-06
1.038e-06
1.04502e-06
1.05195e-06
1.05881e-06
1.06559e-06
1.07229e-06
1.0789e-06
1.08543e-06
1.09186e-06
1.09821e-06
1.10446e-06
1.11061e-06
1.11666e-06
1.12261e-06
1.12846e-06
1.13421e-06
1.13985e-06
1.14537e-06
1.15079e-06
1.1561e-06
1.16129e-06
1.16637e-06
1.17133e-06
1.17617e-06
1.1809e-06
1.18551e-06
1.19e-06
1.19437e-06
1.19862e-06
1.20274e-06
1.20673e-06
1.2106e-06
1.21434e-06
1.21795e-06
1.22143e-06
1.2248e-06
1.22798e-06
1.23123e-06
1.23387e-06
8.57788e-08
8.59017e-08
8.61676e-08
8.65742e-08
8.71203e-08
8.78073e-08
8.86379e-08
8.96144e-08
9.07392e-08
9.20147e-08
9.34431e-08
9.50267e-08
9.67676e-08
9.86679e-08
1.0073e-07
1.02954e-07
1.05344e-07
1.07901e-07
1.10625e-07
1.13519e-07
1.16583e-07
1.19818e-07
1.23225e-07
1.26805e-07
1.30559e-07
1.34485e-07
1.38585e-07
1.42858e-07
1.47303e-07
1.5192e-07
1.56708e-07
1.61666e-07
1.66792e-07
1.72086e-07
1.77544e-07
1.83165e-07
1.88946e-07
1.94886e-07
2.0098e-07
2.07227e-07
2.13622e-07
2.20162e-07
2.26844e-07
2.33663e-07
2.40616e-07
2.47697e-07
2.54903e-07
2.62229e-07
2.69669e-07
2.77219e-07
2.84874e-07
2.92629e-07
3.00478e-07
3.08417e-07
3.16439e-07
3.24539e-07
3.32713e-07
3.40955e-07
3.49259e-07
3.57621e-07
3.66036e-07
3.74498e-07
3.83003e-07
3.91547e-07
4.00124e-07
4.08731e-07
4.17363e-07
4.26017e-07
4.34688e-07
4.43374e-07
4.52071e-07
4.60776e-07
4.69486e-07
4.78197e-07
4.86909e-07
4.95618e-07
5.04323e-07
5.13022e-07
5.21712e-07
5.30392e-07
5.39062e-07
5.47719e-07
5.56364e-07
5.64994e-07
5.7361e-07
5.82211e-07
5.90797e-07
5.99368e-07
6.07923e-07
6.16464e-07
6.24989e-07
6.335e-07
6.41998e-07
6.50482e-07
6.58954e-07
6.67415e-07
6.75865e-07
6.84305e-07
6.92735e-07
7.01158e-07
7.09574e-07
7.17983e-07
7.26385e-07
7.34782e-07
7.43172e-07
7.51557e-07
7.59935e-07
7.68307e-07
7.76673e-07
7.85031e-07
7.93382e-07
8.01724e-07
8.10056e-07
8.18379e-07
8.2669e-07
8.34988e-07
8.43272e-07
8.51541e-07
8.59794e-07
8.68027e-07
8.76241e-07
8.84432e-07
8.926e-07
9.00742e-07
9.08856e-07
9.1694e-07
9.24992e-07
9.33009e-07
9.40988e-07
9.48929e-07
9.56828e-07
9.64681e-07
9.72488e-07
9.80245e-07
9.87949e-07
9.95598e-07
1.00319e-06
1.01072e-06
1.01819e-06
1.02559e-06
1.03292e-06
1.04018e-06
1.04736e-06
1.05447e-06
1.06149e-06
1.06843e-06
1.07529e-06
1.08206e-06
1.08873e-06
1.09532e-06
1.1018e-06
1.10819e-06
1.11448e-06
1.12067e-06
1.12675e-06
1.13272e-06
1.13858e-06
1.14433e-06
1.14997e-06
1.15549e-06
1.1609e-06
1.16618e-06
1.17135e-06
1.1764e-06
1.18133e-06
1.18614e-06
1.19082e-06
1.19539e-06
1.19982e-06
1.20413e-06
1.20831e-06
1.21236e-06
1.21628e-06
1.22007e-06
1.22373e-06
1.22725e-06
1.23065e-06
1.23385e-06
1.23712e-06
1.23981e-06
8.42796e-08
8.4403e-08
8.46669e-08
8.50688e-08
8.56076e-08
8.62847e-08
8.71024e-08
8.8063e-08
8.91687e-08
9.04217e-08
9.1824e-08
9.33778e-08
9.50851e-08
9.69478e-08
9.89678e-08
1.01147e-07
1.03487e-07
1.05989e-07
1.08655e-07
1.11486e-07
1.14484e-07
1.17649e-07
1.20981e-07
1.24483e-07
1.28154e-07
1.31995e-07
1.36005e-07
1.40185e-07
1.44534e-07
1.49052e-07
1.53739e-07
1.58592e-07
1.63612e-07
1.68796e-07
1.74143e-07
1.79652e-07
1.85319e-07
1.91143e-07
1.97121e-07
2.03251e-07
2.09528e-07
2.15951e-07
2.22514e-07
2.29216e-07
2.36051e-07
2.43016e-07
2.50106e-07
2.57317e-07
2.64644e-07
2.72082e-07
2.79628e-07
2.87275e-07
2.95018e-07
3.02853e-07
3.10775e-07
3.18778e-07
3.26857e-07
3.35008e-07
3.43225e-07
3.51503e-07
3.59837e-07
3.68223e-07
3.76656e-07
3.85131e-07
3.93645e-07
4.02193e-07
4.10771e-07
4.19375e-07
4.28001e-07
4.36647e-07
4.45309e-07
4.53984e-07
4.62669e-07
4.71361e-07
4.80058e-07
4.88758e-07
4.97459e-07
5.06158e-07
5.14855e-07
5.23547e-07
5.32234e-07
5.40914e-07
5.49586e-07
5.58249e-07
5.66904e-07
5.75549e-07
5.84184e-07
5.92809e-07
6.01424e-07
6.10029e-07
6.18624e-07
6.27211e-07
6.35789e-07
6.4436e-07
6.52923e-07
6.61481e-07
6.70033e-07
6.78581e-07
6.87126e-07
6.95669e-07
7.04209e-07
7.12749e-07
7.21287e-07
7.29825e-07
7.38362e-07
7.46899e-07
7.55435e-07
7.6397e-07
7.72502e-07
7.81033e-07
7.8956e-07
7.98083e-07
8.06601e-07
8.15112e-07
8.23616e-07
8.32111e-07
8.40596e-07
8.49069e-07
8.57528e-07
8.65971e-07
8.74397e-07
8.82803e-07
8.91187e-07
8.99548e-07
9.07882e-07
9.16187e-07
9.24461e-07
9.32701e-07
9.40904e-07
9.49068e-07
9.57191e-07
9.65268e-07
9.73297e-07
9.81275e-07
9.89199e-07
9.97067e-07
1.00487e-06
1.01262e-06
1.0203e-06
1.02791e-06
1.03545e-06
1.04291e-06
1.05029e-06
1.05759e-06
1.06481e-06
1.07194e-06
1.07898e-06
1.08593e-06
1.09278e-06
1.09954e-06
1.10619e-06
1.11274e-06
1.11919e-06
1.12552e-06
1.13175e-06
1.13786e-06
1.14386e-06
1.14974e-06
1.1555e-06
1.16115e-06
1.16667e-06
1.17206e-06
1.17734e-06
1.18249e-06
1.18751e-06
1.19241e-06
1.19718e-06
1.20183e-06
1.20634e-06
1.21072e-06
1.21497e-06
1.21909e-06
1.22307e-06
1.22692e-06
1.23063e-06
1.23419e-06
1.23763e-06
1.24087e-06
1.24417e-06
1.24688e-06
8.25103e-08
8.26344e-08
8.28954e-08
8.32912e-08
8.38209e-08
8.44857e-08
8.52878e-08
8.62292e-08
8.73121e-08
8.85384e-08
8.99102e-08
9.14293e-08
9.30976e-08
9.49172e-08
9.68896e-08
9.90167e-08
1.013e-07
1.03741e-07
1.06342e-07
1.09103e-07
1.12026e-07
1.15112e-07
1.18362e-07
1.21776e-07
1.25356e-07
1.29101e-07
1.33012e-07
1.37089e-07
1.41332e-07
1.45741e-07
1.50315e-07
1.55054e-07
1.59956e-07
1.6502e-07
1.70245e-07
1.75629e-07
1.81171e-07
1.86868e-07
1.92718e-07
1.98718e-07
2.04866e-07
2.11159e-07
2.17592e-07
2.24164e-07
2.3087e-07
2.37706e-07
2.44669e-07
2.51754e-07
2.58956e-07
2.66272e-07
2.73696e-07
2.81225e-07
2.88852e-07
2.96574e-07
3.04386e-07
3.12282e-07
3.20258e-07
3.28309e-07
3.3643e-07
3.44616e-07
3.52863e-07
3.61166e-07
3.6952e-07
3.77922e-07
3.86368e-07
3.94852e-07
4.03371e-07
4.11923e-07
4.20502e-07
4.29106e-07
4.37732e-07
4.46376e-07
4.55036e-07
4.6371e-07
4.72394e-07
4.81088e-07
4.89787e-07
4.98492e-07
5.072e-07
5.1591e-07
5.2462e-07
5.3333e-07
5.42038e-07
5.50743e-07
5.59445e-07
5.68144e-07
5.76838e-07
5.85529e-07
5.94216e-07
6.02899e-07
6.11578e-07
6.20255e-07
6.28929e-07
6.37601e-07
6.46273e-07
6.54945e-07
6.63618e-07
6.72293e-07
6.80971e-07
6.89653e-07
6.9834e-07
7.07031e-07
7.15728e-07
7.2443e-07
7.33137e-07
7.4185e-07
7.50567e-07
7.59289e-07
7.68014e-07
7.76742e-07
7.85472e-07
7.94203e-07
8.02933e-07
8.11661e-07
8.20386e-07
8.29106e-07
8.37819e-07
8.46524e-07
8.55219e-07
8.639e-07
8.72567e-07
8.81217e-07
8.89848e-07
8.98456e-07
9.0704e-07
9.15596e-07
9.24121e-07
9.32614e-07
9.4107e-07
9.49487e-07
9.57862e-07
9.66191e-07
9.74471e-07
9.82699e-07
9.90872e-07
9.98986e-07
1.00704e-06
1.01502e-06
1.02294e-06
1.03079e-06
1.03856e-06
1.04625e-06
1.05386e-06
1.06138e-06
1.06881e-06
1.07616e-06
1.08341e-06
1.09056e-06
1.09761e-06
1.10455e-06
1.11139e-06
1.11812e-06
1.12474e-06
1.13125e-06
1.13763e-06
1.1439e-06
1.15005e-06
1.15608e-06
1.16198e-06
1.16776e-06
1.17341e-06
1.17893e-06
1.18432e-06
1.18959e-06
1.19472e-06
1.19972e-06
1.20458e-06
1.20932e-06
1.21391e-06
1.21838e-06
1.22271e-06
1.2269e-06
1.23095e-06
1.23486e-06
1.23863e-06
1.24224e-06
1.24573e-06
1.24901e-06
1.25234e-06
1.25507e-06
8.0463e-08
8.05877e-08
8.08454e-08
8.1234e-08
8.1753e-08
8.24035e-08
8.31875e-08
8.41069e-08
8.51637e-08
8.63598e-08
8.7697e-08
8.91772e-08
9.08021e-08
9.25736e-08
9.44933e-08
9.65629e-08
9.87841e-08
1.01158e-07
1.03687e-07
1.06372e-07
1.09213e-07
1.12214e-07
1.15373e-07
1.18693e-07
1.22173e-07
1.25815e-07
1.29619e-07
1.33586e-07
1.37714e-07
1.42005e-07
1.46458e-07
1.51072e-07
1.55847e-07
1.60782e-07
1.65876e-07
1.71126e-07
1.76533e-07
1.82093e-07
1.87806e-07
1.93667e-07
1.99676e-07
2.05829e-07
2.12123e-07
2.18555e-07
2.25123e-07
2.31821e-07
2.38647e-07
2.45596e-07
2.52665e-07
2.59848e-07
2.67143e-07
2.74545e-07
2.82048e-07
2.89649e-07
2.97343e-07
3.05125e-07
3.12991e-07
3.20935e-07
3.28954e-07
3.37043e-07
3.45198e-07
3.53413e-07
3.61686e-07
3.7001e-07
3.78384e-07
3.86803e-07
3.95262e-07
4.0376e-07
4.12291e-07
4.20853e-07
4.29444e-07
4.38059e-07
4.46697e-07
4.55355e-07
4.6403e-07
4.72721e-07
4.81425e-07
4.90141e-07
4.98867e-07
5.07602e-07
5.16343e-07
5.25091e-07
5.33844e-07
5.42601e-07
5.51362e-07
5.60125e-07
5.68892e-07
5.77661e-07
5.86433e-07
5.95208e-07
6.03986e-07
6.12768e-07
6.21555e-07
6.30346e-07
6.39143e-07
6.47948e-07
6.5676e-07
6.65581e-07
6.74412e-07
6.83254e-07
6.92108e-07
7.00973e-07
7.0985e-07
7.18738e-07
7.27639e-07
7.36551e-07
7.45473e-07
7.54406e-07
7.63348e-07
7.72299e-07
7.81256e-07
7.90219e-07
7.99187e-07
8.08157e-07
8.17129e-07
8.261e-07
8.35069e-07
8.44032e-07
8.52989e-07
8.61936e-07
8.70871e-07
8.79791e-07
8.88694e-07
8.97577e-07
9.06437e-07
9.15271e-07
9.24075e-07
9.32846e-07
9.41582e-07
9.50278e-07
9.58931e-07
9.67538e-07
9.76095e-07
9.84597e-07
9.93043e-07
1.00143e-06
1.00975e-06
1.018e-06
1.02618e-06
1.03428e-06
1.04231e-06
1.05025e-06
1.05811e-06
1.06587e-06
1.07354e-06
1.08112e-06
1.08859e-06
1.09596e-06
1.10323e-06
1.11038e-06
1.11742e-06
1.12435e-06
1.13116e-06
1.13785e-06
1.14442e-06
1.15086e-06
1.15717e-06
1.16336e-06
1.16941e-06
1.17533e-06
1.18112e-06
1.18678e-06
1.1923e-06
1.19768e-06
1.20292e-06
1.20803e-06
1.213e-06
1.21783e-06
1.22253e-06
1.22708e-06
1.23149e-06
1.23576e-06
1.23988e-06
1.24386e-06
1.24769e-06
1.25137e-06
1.25491e-06
1.25824e-06
1.2616e-06
1.26435e-06
7.81283e-08
7.82538e-08
7.85077e-08
7.88884e-08
7.93954e-08
8.003e-08
8.07939e-08
8.16891e-08
8.27172e-08
8.38801e-08
8.51795e-08
8.66172e-08
8.81949e-08
8.99142e-08
9.17768e-08
9.37845e-08
9.59386e-08
9.82409e-08
1.00693e-07
1.03295e-07
1.06051e-07
1.08959e-07
1.12022e-07
1.15241e-07
1.18616e-07
1.22149e-07
1.25839e-07
1.29688e-07
1.33695e-07
1.37861e-07
1.42186e-07
1.46669e-07
1.5131e-07
1.56109e-07
1.61063e-07
1.66173e-07
1.71437e-07
1.76853e-07
1.8242e-07
1.88136e-07
1.93998e-07
2.00004e-07
2.06151e-07
2.12437e-07
2.18858e-07
2.25411e-07
2.32093e-07
2.389e-07
2.45828e-07
2.52874e-07
2.60033e-07
2.67301e-07
2.74675e-07
2.82149e-07
2.8972e-07
2.97383e-07
3.05134e-07
3.12969e-07
3.20882e-07
3.28871e-07
3.3693e-07
3.45056e-07
3.53244e-07
3.61491e-07
3.69792e-07
3.78145e-07
3.86546e-07
3.9499e-07
4.03475e-07
4.11999e-07
4.20557e-07
4.29147e-07
4.37768e-07
4.46415e-07
4.55087e-07
4.63782e-07
4.72498e-07
4.81232e-07
4.89985e-07
4.98753e-07
5.07536e-07
5.16333e-07
5.25142e-07
5.33962e-07
5.42794e-07
5.51636e-07
5.60489e-07
5.69351e-07
5.78224e-07
5.87106e-07
5.95999e-07
6.04903e-07
6.13819e-07
6.22747e-07
6.31689e-07
6.40645e-07
6.49615e-07
6.58603e-07
6.67608e-07
6.76631e-07
6.85673e-07
6.94733e-07
7.03812e-07
7.1291e-07
7.22026e-07
7.3116e-07
7.40311e-07
7.49478e-07
7.5866e-07
7.67856e-07
7.77065e-07
7.86285e-07
7.95515e-07
8.04752e-07
8.13994e-07
8.23241e-07
8.32488e-07
8.41734e-07
8.50977e-07
8.60213e-07
8.6944e-07
8.78655e-07
8.87855e-07
8.97036e-07
9.06196e-07
9.1533e-07
9.24436e-07
9.33509e-07
9.42546e-07
9.51544e-07
9.60498e-07
9.69404e-07
9.78259e-07
9.87058e-07
9.95798e-07
1.00447e-06
1.01308e-06
1.02162e-06
1.03008e-06
1.03846e-06
1.04676e-06
1.05497e-06
1.06309e-06
1.07112e-06
1.07904e-06
1.08686e-06
1.09458e-06
1.10219e-06
1.10968e-06
1.11706e-06
1.12432e-06
1.13145e-06
1.13846e-06
1.14535e-06
1.1521e-06
1.15873e-06
1.16522e-06
1.17157e-06
1.17779e-06
1.18386e-06
1.1898e-06
1.19559e-06
1.20125e-06
1.20676e-06
1.21212e-06
1.21735e-06
1.22242e-06
1.22736e-06
1.23215e-06
1.23679e-06
1.24129e-06
1.24564e-06
1.24985e-06
1.2539e-06
1.2578e-06
1.26154e-06
1.26513e-06
1.26851e-06
1.27193e-06
1.2747e-06
7.54955e-08
7.56217e-08
7.58717e-08
7.6244e-08
7.67383e-08
7.73559e-08
7.80984e-08
7.89675e-08
7.9965e-08
8.10924e-08
8.23515e-08
8.3744e-08
8.52714e-08
8.69354e-08
8.87376e-08
9.06797e-08
9.27631e-08
9.49895e-08
9.73603e-08
9.98769e-08
1.02541e-07
1.05353e-07
1.08316e-07
1.11429e-07
1.14694e-07
1.18112e-07
1.21684e-07
1.2541e-07
1.29291e-07
1.33327e-07
1.37519e-07
1.41865e-07
1.46367e-07
1.51024e-07
1.55834e-07
1.60798e-07
1.65914e-07
1.7118e-07
1.76597e-07
1.82161e-07
1.87871e-07
1.93725e-07
1.9972e-07
2.05854e-07
2.12124e-07
2.18528e-07
2.25061e-07
2.31721e-07
2.38505e-07
2.45409e-07
2.52429e-07
2.59561e-07
2.66801e-07
2.74147e-07
2.81592e-07
2.89135e-07
2.96769e-07
3.04492e-07
3.123e-07
3.20187e-07
3.28152e-07
3.36188e-07
3.44294e-07
3.52464e-07
3.60696e-07
3.68986e-07
3.77331e-07
3.85727e-07
3.94171e-07
4.0266e-07
4.11193e-07
4.19765e-07
4.28374e-07
4.37019e-07
4.45696e-07
4.54404e-07
4.63142e-07
4.71906e-07
4.80696e-07
4.8951e-07
4.98347e-07
5.07205e-07
5.16084e-07
5.24983e-07
5.339e-07
5.42836e-07
5.5179e-07
5.60762e-07
5.69752e-07
5.7876e-07
5.87786e-07
5.96831e-07
6.05895e-07
6.14979e-07
6.24085e-07
6.33212e-07
6.42362e-07
6.51538e-07
6.60738e-07
6.69964e-07
6.79215e-07
6.88493e-07
6.97796e-07
7.07125e-07
7.16479e-07
7.25857e-07
7.35259e-07
7.44683e-07
7.54128e-07