/*--------------------------------*- C++ -*----------------------------------*\
| =========                 |                                                 |
| \\      /  F ield         | OpenFOAM: The Open Source CFD Toolbox           |
|  \\    /   O peration     | Version:  2.3.0                                 |
|   \\  /    A nd           | Web:      www.OpenFOAM.org                      |
|    \\/     M anipulation  |                                                 |
\*---------------------------------------------------------------------------*/
FoamFile
{
    version     2.0;
    format      ascii;
    class       volScalarField;
    location    "0.062";
    object      alpha.water;
}
// * * * * * * * * * * * * * * * * * * * * * * * * * * * * * * * * * * * * * //

dimensions      [0 0 0 0 0 0 0];

internalField   nonuniform List<scalar> 
725
(
1
1
0.999996
1.00011
1.00002
1
1
0.999996
1.00039
0.995461
1
1
1
0.999825
0.999762
1
1
1
0.999902
0.999956
1
1
1
0.999955
0.999956
0.925786
0.66511
0.33198
0.173894
0.774512
0.999983
0.999783
0.999737
0.999776
0.999837
0.999863
0.999897
0.999897
0.999903
0.765731
0.0580454
0.000991945
0.000987479
0.000987624
0.0011702
0.579633
0.999996
0.999907
0.999981
1.00001
1.00001
0.999994
0.999984
0.999979
0.999977
0.99998
0.999983
0.999984
0.999979
0.999964
0.999861
0.999573
0.999035
0.998528
0.997943
0.997561
0.997862
0.999939
0.92683
0.13293
0.886066
0.779297
0.394276
0.163822
0.716759
0.999983
0.999895
0.999823
0.999712
0.999642
0.999632
0.999696
0.999833
0.999903
0.763028
0.0817392
0.000997091
0.000989567
0.000988886
0.010814
0.618966
0.999996
0.999914
0.999874
0.999872
0.99988
0.999885
0.999886
0.999885
0.999882
0.999876
0.999871
0.999867
0.999866
0.999866
0.999867
0.999885
0.999876
0.99997
0.999953
0.999615
0.999148
0.999987
0.90479
0.0968974
0.999756
0.443058
0.0119288
0.100935
0.7419
0.999984
0.99992
0.999864
0.999813
0.999748
0.999705
0.999732
0.99987
0.999889
0.772025
0.106407
0.00100429
0.000990464
0.000989276
0.000989756
0.581599
0.999996
0.99994
0.99984
0.9998
0.999783
0.999772
0.99977
0.999778
0.999793
0.999809
0.999823
0.999836
0.999842
0.999863
0.999867
0.999852
0.999861
0.999854
0.999914
0.99989
0.999655
0.999986
0.914856
0.17834
0.767652
0.024029
0.00670111
0.0162104
0.717925
0.999985
0.999908
0.999858
0.999836
0.999792
0.999749
0.999751
0.999901
0.999903
0.807947
0.199145
0.00123938
0.000993644
0.000989904
0.000993263
0.623319
0.999995
0.999976
0.999822
0.999748
0.999693
0.999643
0.999607
0.9996
0.999619
0.999645
0.999666
0.999684
0.999702
0.999716
0.999733
0.99974
0.999751
0.999754
0.999776
0.999952
0.999728
0.999985
0.924382
0.192892
0.0772946
0.000237411
0.00574526
0.0361534
0.816916
0.999986
0.999918
0.999847
0.999824
0.999794
0.999761
0.999828
0.999871
0.999889
0.812257
0.310253
0.00108371
0.00104072
0.000994238
0.00505145
0.568851
0.998743
0.999977
0.999795
0.999709
0.999612
0.999505
0.99941
0.999356
0.999349
0.999367
0.999392
0.999424
0.999461
0.9995
0.999541
0.999575
0.999614
0.999639
0.999691
0.999728
0.99973
0.999985
0.918606
0.186077
5.84755e-08
1.76823e-05
0.000242883
0.0923376
0.910914
0.999969
0.999945
0.999842
0.9998
0.999777
0.999757
0.999857
0.999861
0.9999
0.874536
0.445411
0.00117724
0.00115764
0.0010506
0.0140345
0.604798
0.997068
0.999965
0.999665
0.999663
0.999553
0.999374
0.999196
0.99909
0.999076
0.999107
0.999135
0.99918
0.999237
0.9993
0.999367
0.999419
0.999477
0.999518
0.999596
0.999655
0.999705
0.999985
0.928199
0.180908
1.96788e-05
7.50171e-05
0.00184267
0.0814889
0.894215
0.999947
0.999947
0.999849
0.999802
0.999776
0.999756
0.999882
0.999872
0.999944
0.864758
0.218769
0.00187397
0.00271319
0.00127414
0.0197455
0.632135
0.992971
0.999888
0.999614
0.999629
0.999492
0.999291
0.999108
0.998988
0.998944
0.99895
0.998976
0.999029
0.999102
0.999184
0.999269
0.999345
0.99942
0.99948
0.99955
0.999625
0.999687
0.999986
0.943298
0.177085
0.000266171
0.00129991
0.00684167
0.112795
0.887439
0.999904
0.999846
0.999854
0.999809
0.999776
0.999757
0.999899
0.999902
0.999956
0.855708
0.163562
0.00247048
0.00214782
0.00114992
0.0355526
0.641552
0.991202
0.99989
0.999641
0.999617
0.99946
0.999254
0.99907
0.998939
0.998874
0.998865
0.998892
0.998952
0.999034
0.999127
0.999222
0.99931
0.999391
0.999459
0.999481
0.999677
0.999694
0.999986
0.950934
0.173204
9.15564e-05
0.00507963
0.0163446
0.300153
0.896117
0.999846
0.999807
0.999863
0.99982
0.999782
0.999761
0.999908
0.999918
0.999969
0.89668
0.157706
0.00123042
0.00087799
0.000834251
0.054958
0.627632
0.994341
0.99988
0.999875
0.999614
0.999438
0.999228
0.999051
0.998919
0.998838
0.998814
0.998837
0.998901
0.998993
0.999095
0.999199
0.999293
0.99938
0.999451
0.999518
0.99955
0.999652
0.999942
0.953678
0.15933
4.67004e-06
0.00120976
0.0237885
0.402645
0.895034
0.999916
0.99986
0.999873
0.999831
0.999794
0.999769
0.999913
0.999953
1.00001
0.919405
0.17636
0.000528649
0.000788999
0.000802756
0.0431281
0.635015
0.992053
0.999884
0.999684
0.999604
0.99941
0.999209
0.999051
0.998934
0.99885
0.998819
0.998847
0.99892
0.999021
0.999125
0.999226
0.999313
0.999394
0.99946
0.999523
0.999563
0.999636
0.999952
0.948315
0.139661
1
1
1
1.00013
0.939635
1
1
1
1.00003
1
1
1
1
1.00001
0.999991
1
1
1.00003
0.999903
0.998473
1
1
1.00006
0.999787
0.997666
0.0126522
0.0787435
0.345256
0.625548
0.885853
0.999998
0.999998
0.999997
0.999835
0.999807
0.99979
0.999897
0.999937
1
0.950458
0.216252
0.000753698
0.000771667
0.000789523
0.0308397
0.656466
0.999768
0.999767
0.999725
0.999542
0.999354
0.999183
0.99906
0.998979
0.998942
0.998952
0.999002
0.999071
0.999147
0.99922
0.99929
0.999355
0.99942
0.999479
0.999534
0.999583
0.999633
0.999884
0.954208
0.1615
0.614945
0.19953
0.632531
0.829686
0.918745
0.992782
0.999997
0.999808
0.999836
0.999825
0.99982
0.999889
0.999936
1
0.962962
0.244184
0.000770079
0.000775862
0.000790238
0.0404871
0.621054
0.999812
0.9997
0.999678
0.999549
0.999388
0.999265
0.999185
0.999142
0.999127
0.999138
0.999172
0.999219
0.999273
0.99933
0.999392
0.999455
0.999521
0.99958
0.999629
0.999659
0.999685
0.999968
0.927428
0.102945
0.999989
0.674888
0.821434
0.918327
0.961703
0.985919
0.999871
0.999798
0.999862
0.999873
0.999872
0.999911
0.999967
1
0.983386
0.275847
0.000775318
0.000784828
0.000799125
0.0335866
0.699806
0.999824
0.999675
0.999589
0.999453
0.999327
0.999249
0.999213
0.999209
0.999235
0.999287
0.999358
0.999437
0.999516
0.999589
0.999656
0.999714
0.999764
0.999798
0.99983
0.999825
0.999792
0.999999
0.925162
0.114605
0.992566
0.999089
0.998938
0.998291
0.997699
0.990977
0.997291
1
0.999928
0.999962
1
1.00001
1.00002
1.00001
0.998735
0.305532
0.000784091
0.000786097
0.000789979
0.0203494
0.672388
0.999824
0.999618
0.99949
0.999455
0.999486
0.999547
0.999612
0.999671
0.999721
0.999771
0.999818
0.999853
0.999876
0.999891
0.999904
0.999916
0.999926
0.999925
0.999905
0.99987
0.999806
0.999998
0.917687
0.15526
0.990601
0.999093
0.999095
0.996079
0.989057
0.989002
0.999127
1.00003
1.00001
1.00002
1.00002
1.00002
1.00003
1.00001
0.996449
0.32632
0.000785811
0.000786679
0.000788101
0.0162615
0.680432
0.999824
0.999807
0.999833
0.999902
0.99995
0.99997
0.99998
0.999984
0.999987
0.999991
0.999995
1
1.00002
1.00002
1.00002
1.00002
0.999987
0.999908
0.999847
0.999829
0.999688
0.999997
0.912721
0.184777
)
;

boundaryField
{
    AirInlet
    {
        type            fixedValue;
        value           uniform 0;
    }
    WaterInlet
    {
        type            fixedValue;
        value           uniform 1;
    }
    ChannelWall
    {
        type            zeroGradient;
    }
    Outlet
    {
        type            inletOutlet;
        inletValue      uniform 0;
        value           nonuniform List<scalar> 
15
(
0
0
0.17834
0.192892
0.186077
0.180908
0.177085
0.173204
0.15933
0
0
0
0
0.15526
0.184777
)
;
    }
    FrontAndBack
    {
        type            empty;
    }
}


// ************************************************************************* //
