/*--------------------------------*- C++ -*----------------------------------*\
| =========                 |                                                 |
| \\      /  F ield         | OpenFOAM: The Open Source CFD Toolbox           |
|  \\    /   O peration     | Version:  2.3.0                                 |
|   \\  /    A nd           | Web:      www.OpenFOAM.org                      |
|    \\/     M anipulation  |                                                 |
\*---------------------------------------------------------------------------*/
FoamFile
{
    version     2.0;
    format      ascii;
    class       volScalarField;
    location    "0.062";
    object      p_rgh;
}
// * * * * * * * * * * * * * * * * * * * * * * * * * * * * * * * * * * * * * //

dimensions      [1 -1 -2 0 0 0 0];

internalField   nonuniform List<scalar> 
725
(
1541.08
1501.05
1467.04
1515.74
1406.12
1534.59
1501.61
1468.24
1518.57
1440.74
1532
1501.85
1469.29
1532.7
1442.33
1532.35
1499.67
1466.79
1507.49
1387.54
1536.18
1497.14
1467.16
1502.95
1413.23
1393.63
1103.91
893.337
564.497
17.0525
-268.351
-144.151
-141.981
-139.499
-150.566
-164.517
-192.546
-240.613
-320.134
-478.875
-171.307
-157.478
-158.036
-155.479
-155.719
-288.922
-135.168
-112.857
-70.2711
-79.5348
-70.9525
-70.9018
-70.9798
-71.57
-72.5804
-73.9138
-75.2158
-76.5948
-78.0581
-79.5713
-81.8834
-81.0381
-83.9909
-72.131
-108.569
-42.1437
-174.028
-54.4103
-218.107
40.5351
1431.96
1442.1
964.268
584.956
-38.6884
-294.568
-152.675
-143.645
-139.206
-148.77
-162.827
-188.574
-232.505
-313.232
-563.581
-190.02
-158.435
-158.083
-155.288
-158.287
-59.7229
-116.165
-109.357
-68.6953
-79.7932
-71.848
-71.2049
-71.3391
-71.945
-72.9595
-74.3247
-75.661
-77.0655
-78.5481
-80.0135
-81.7594
-82.3121
-87.1135
-78.6151
-115.18
-49.8406
-183.24
-38.6704
-404.623
43.3683
1662.93
820.893
1041.58
737.397
-315.116
-315.761
-162.062
-142.814
-138.621
-147.383
-159.006
-180.134
-213.422
-278.663
-523.34
-205.217
-159.365
-158.234
-154.603
-157.706
-161.78
-146.114
-102.395
-67.4642
-78.0255
-71.6692
-70.9231
-71.2073
-71.877
-72.9177
-74.3313
-75.6488
-77.0543
-78.5367
-79.9838
-81.6884
-82.4302
-86.904
-79.6504
-113.386
-49.4778
-187.799
-54.3583
-438.777
-119.353
1140.76
1034.89
1049.04
968.945
-458.439
-294.786
-161.367
-139.158
-136.78
-144.063
-153.223
-168.294
-189.288
-206.545
-327.569
-184.249
-160.09
-160.232
-153.443
-154.902
-337.262
-180.17
-94.5925
-65.3366
-75.0982
-70.8458
-70.4276
-70.9431
-71.7159
-72.8212
-74.3437
-75.6216
-77.0276
-78.5118
-79.9659
-81.765
-82.9885
-87.2487
-80.0117
-111.826
-46.5639
-178.43
-26.8649
-182.913
-40.061
1163.41
1082.57
1057.15
849.508
295.119
-151.696
-145.797
-134.473
-135.125
-140.219
-145.697
-153.381
-159.085
-87.3432
331.621
1126.17
-184.431
-165.383
-151.297
-128.153
-760.834
-241.993
-90.8333
-60.9331
-71.5804
-69.5427
-69.776
-70.5749
-71.4629
-72.6628
-74.3469
-75.5607
-76.9799
-78.4663
-79.8915
-81.5977
-82.6339
-86.5117
-79.3717
-107.547
-45.5437
-165.823
9.31436
-223.501
-18.7109
1075.35
1092.24
1136.33
673.038
789.027
-99.075
-134.732
-132.917
-133.924
-137.913
-141.003
-145.277
-149.58
-142.503
83.412
58.7907
-172.46
-161.78
-151.301
-133.911
-324.716
-106.467
-84.7056
-56.5415
-70.1129
-68.5268
-69.3408
-70.2641
-71.1955
-72.4661
-74.4282
-75.4609
-76.9215
-78.4171
-79.7752
-81.5961
-82.1603
-86.647
-77.8354
-106.729
-41.1452
-154.932
53.0544
-184.206
-55.2725
1077.42
1089.52
1113.77
787.273
312.399
-87.955
-131.566
-132.537
-133.78
-137.042
-139.296
-142.324
-147.738
-173.222
-229.614
-636.454
-166.201
-115.266
-150.566
-159.367
62.1386
-58.9951
-83.2327
-53.1628
-69.4156
-68.1496
-69.1196
-70.0972
-71.0728
-72.3868
-74.4456
-75.4207
-76.8893
-78.3832
-79.7232
-81.5589
-82.006
-86.5944
-77.366
-106.086
-39.7531
-151.325
68.657
-141.048
-68.808
1075.14
1088.35
1088.96
391.6
207.577
-86.3845
-129.63
-132.273
-133.707
-136.217
-137.621
-139.316
-146.223
-200.291
-350.832
-158.959
-158.507
-132.902
-150.527
-192.332
317.854
-35.6854
-83.7241
-52.1895
-68.5591
-67.7723
-68.8784
-69.8635
-70.87
-72.2985
-74.453
-75.3746
-76.8363
-78.3053
-79.6089
-81.4151
-81.7942
-86.3745
-76.9706
-103.82
-38.7405
-147.755
81.7803
-97.537
-88.5805
1075.9
1086.13
1075.58
-105.14
158.31
-83.691
-126.554
-132.105
-133.573
-135.448
-135.992
-136.206
-142.753
-202.078
-554.269
-7.01264
-158.982
-130.677
-149.496
-40.5053
326.022
-24.9121
-84.2539
-41.4662
-67.7369
-67.4506
-68.642
-69.5689
-70.2697
-71.153
-72.6763
-73.6407
-75.1924
-76.9252
-78.5477
-80.6262
-81.2272
-85.9091
-76.5156
-104.282
-38.2173
-144.744
92.6837
-154.856
-64.0425
1077.62
1090.42
1036.98
-19.3624
125.135
-85.6454
-127.253
-132.015
-133.421
-134.644
-134.354
-133.045
-136.841
-175.88
-290.718
-131.535
-160.71
-134.744
-147.822
-140.721
185.489
-8.46962
-79.654
-47.3892
-66.8835
-67.1733
-68.4088
-69.4726
-70.651
-71.5221
-72.906
-73.9775
-75.8441
-77.8513
-79.4939
-81.4178
-81.8018
-86.0971
-76.6534
-103.459
-37.984
-141.211
102
-187.849
49.559
-124.807
-168.482
-178.239
-166.797
-111.621
-128.716
-167
-184.088
-185.786
-240.403
-129.004
-165.531
-180.142
-161.495
-224.346
-126.29
-165.304
-180.855
-154.808
-214.457
-119.644
-165.716
-181.291
-157.161
-209.236
1109.95
1058.96
446.048
143.504
-12.9975
-113.641
-126.948
-131.465
-133.066
-132.349
-129.701
-124.537
-117.297
-105.295
216.638
-94.9978
-160.496
-140.83
-144.846
-151.924
-95.2252
49.0287
-53.6132
-42.5632
-64.3891
-66.502
-67.8383
-69.3415
-70.9872
-72.2928
-73.2387
-75.0162
-76.6559
-78.2812
-79.7822
-81.425
-82.0329
-85.4497
-76.9362
-100.87
-37.2276
-131.208
123.632
-30.1879
14.1519
201.963
824.57
385.894
79.3496
-177.061
-139.838
-128.193
-133.819
-132.717
-129.059
-122.622
-110.65
-88.2787
-48.3672
149.386
-126.122
-151.746
-141.261
-143.724
-132.18
-66.4553
-31.1956
-77.2186
-42.8469
-63.3201
-65.7308
-67.7267
-69.5413
-71.0569
-72.3485
-73.4104
-75.0384
-76.6511
-78.2453
-79.7113
-81.2842
-81.7788
-85.2998
-75.6006
-101.075
-36.5409
-133.106
73.5906
-195.996
49.5686
-96.3124
208.365
157.393
64.3816
-275.017
-136.611
-132.288
-135.192
-132.369
-126.111
-116.511
-98.6834
-64.7351
-15.8726
83.1959
-132.34
-147.872
-141.497
-143.83
-140.876
62.3588
7.04526
-79.3822
-41.7887
-62.8837
-64.6042
-67.2196
-69.3646
-70.9847
-72.3339
-73.5021
-75.0529
-76.6402
-78.2166
-79.6634
-81.1902
-81.638
-85.2492
-75.5259
-102.12
-40.1341
-148.679
35.6167
-379.586
-12.7809
-134.042
76.6351
1.81175
46.6683
-246.079
-163.148
-132.071
-136.428
-131.856
-123.758
-111.815
-89.566
-47.7673
8.14928
87.1532
-97.1154
-146.932
-141.662
-143.208
-144.458
-73.6923
-4.21935
-79.8811
-40.5712
-63.1043
-64.6752
-67.2547
-69.33
-70.9615
-72.3282
-73.5446
-75.0517
-76.624
-78.1909
-79.6326
-81.1322
-81.5427
-85.3154
-75.3267
-103.269
-44.1715
-163.966
-17.0983
-498.722
-92.1311
-108.799
85.0765
0.140123
47.3982
-245.611
-169.543
-140.746
-137.587
-131.036
-121.826
-108.581
-83.5643
-38.2046
17.4003
83.8242
-60.3192
-147.46
-141.771
-142.478
-141.286
-238.257
-25.1737
-83.8444
-41.0198
-61.781
-62.5306
-65.5066
-67.8652
-69.7225
-71.2689
-72.6688
-74.3384
-76.012
-77.6176
-79.1027
-80.6733
-80.9749
-85.3373
-75.3432
-104.636
-45.8269
-166.001
-22.7793
-252.154
-82.9691
)
;

boundaryField
{
    AirInlet
    {
        type            fixedFluxPressure;
        gradient        nonuniform List<scalar> 5(-10.1193 131332 -1.15094e+06 430880 -1661.9);
        value           nonuniform List<scalar> 5(1075.35 1078.73 1063.63 1080.21 1077.6);
    }
    WaterInlet
    {
        type            fixedFluxPressure;
        gradient        nonuniform List<scalar> 10(-0.00877544 -1.41172 -3.34046 1.35047 1.9994 -0.000591087 -0.537123 -0.546933 1.34495 -2.05933);
        value           nonuniform List<scalar> 10(1541.08 1534.59 1532 1532.35 1536.18 -124.807 -128.716 -129.004 -126.29 -119.644);
    }
    ChannelWall
    {
        type            fixedFluxPressure;
        gradient        uniform 0;
        value           nonuniform List<scalar> 
110
(
1536.18
1497.14
1467.16
1502.95
1413.23
-124.807
-168.482
-178.239
-166.797
-111.621
-119.644
-165.716
-181.291
-157.161
-209.236
-108.799
85.0765
0.140123
47.3982
-245.611
-169.543
-140.746
-137.587
-131.036
-121.826
-108.581
-83.5643
-38.2046
17.4003
83.8242
-60.3192
-147.46
-141.771
-142.478
-141.286
-238.257
-25.1737
-83.8444
-41.0198
-61.781
-62.5306
-65.5066
-67.8652
-69.7225
-71.2689
-72.6688
-74.3384
-76.012
-77.6176
-79.1027
-80.6733
-80.9749
-85.3373
-75.3432
-104.636
-45.8269
-166.001
-22.7793
-252.154
-82.9691
1541.08
1501.05
1467.04
1515.74
1406.12
1393.63
1103.91
893.337
564.497
17.0525
-268.351
-144.151
-141.981
-139.499
-150.566
-164.517
-192.546
-240.613
-320.134
-478.875
-171.307
-157.478
-158.036
-155.479
-155.719
-288.922
-135.168
-112.857
-70.2711
-79.5348
-70.9525
-70.9018
-70.9798
-71.57
-72.5804
-73.9138
-75.2158
-76.5948
-78.0581
-79.5713
-81.8834
-81.0381
-83.9909
-72.131
-108.569
-42.1437
-174.028
-54.4103
-218.107
40.5351
)
;
    }
    Outlet
    {
        type            totalPressure;
        rho             rho;
        psi             none;
        gamma           1;
        p0              uniform 0;
        value           nonuniform List<scalar> 
15
(
-0.415941
-0.225186
0
0
0
0
0
0
0
-0.0098846
-1.19024
-0.905647
-0.335422
0
0
)
;
    }
    FrontAndBack
    {
        type            empty;
    }
}


// ************************************************************************* //
