/*--------------------------------*- C++ -*----------------------------------*\
| =========                 |                                                 |
| \\      /  F ield         | OpenFOAM: The Open Source CFD Toolbox           |
|  \\    /   O peration     | Version:  2.3.0                                 |
|   \\  /    A nd           | Web:      www.OpenFOAM.org                      |
|    \\/     M anipulation  |                                                 |
\*---------------------------------------------------------------------------*/
FoamFile
{
    version     2.0;
    format      ascii;
    class       surfaceScalarField;
    location    "0.062";
    object      phi;
}
// * * * * * * * * * * * * * * * * * * * * * * * * * * * * * * * * * * * * * //

dimensions      [0 3 -1 0 0 0 0];

internalField   nonuniform List<scalar> 
1380
(
3.12829e-13
1.87171e-13
2.92772e-13
2.00563e-14
2.84394e-13
8.37851e-15
5.20818e-13
-2.36424e-13
2.44183e-13
2.76635e-13
6.00586e-13
8.65851e-14
6.11159e-13
9.48323e-15
5.58373e-13
6.11647e-14
3.10233e-13
1.17161e-14
1.8082e-12
-1.25378e-12
6.82675e-13
-9.60903e-14
6.98483e-13
-6.32429e-15
5.95246e-13
1.64401e-13
-2.42402e-13
8.49364e-13
3.33106e-12
-1.76526e-12
5.97751e-13
-1.93842e-13
6.06832e-13
-1.54048e-14
6.86489e-13
8.47447e-14
9.6963e-13
5.66222e-13
1.41562e-12
2.88507e-12
3.06158e-13
2.90753e-13
3.75498e-13
9.4172e-13
2.35734e-12
-7.56297e-13
1.03293e-12
-2.26011e-12
1.50382e-12
-8.05611e-13
-1.4545e-12
-2.93436e-12
2.12875e-12
-1.1889e-12
-1.74546e-12
-1.0094e-12
-1.79497e-13
-4.56311e-13
-5.53092e-13
-1.57886e-14
-4.40523e-13
1.57031e-13
-1.7282e-13
2.01114e-13
-4.40831e-14
2.25239e-13
-2.41247e-14
2.78896e-13
-5.36574e-14
3.06156e-13
-2.72591e-14
4.75119e-14
2.58644e-13
2.78756e-13
-2.31244e-13
3.51947e-12
-3.24071e-12
3.09667e-12
4.22803e-13
1.10283e-12
1.99384e-12
3.41144e-13
7.61679e-13
-9.63008e-13
1.30415e-12
-1.10443e-12
1.41424e-13
-4.23659e-13
-6.80772e-13
-1.48848e-13
-2.74811e-13
-6.98284e-15
-1.41865e-13
7.83065e-14
-8.52894e-14
1.02896e-13
-2.45894e-14
1.1689e-13
-1.39936e-14
1.27147e-13
-1.02578e-14
1.36409e-13
-9.26171e-15
1.42704e-13
-6.2953e-15
1.44069e-13
-1.3647e-15
1.45332e-13
-1.2627e-15
1.46245e-13
-9.1366e-16
1.46213e-13
3.27301e-17
1.47932e-13
-1.71921e-15
1.47204e-13
7.27464e-16
1.68146e-13
-2.09417e-14
1.72424e-13
-4.27834e-15
1.90391e-13
-1.79669e-14
1.83101e-13
7.28996e-15
1.3699e-13
4.61113e-14
-3.36766e-13
4.73756e-13
-1.10417e-12
7.67404e-13
-6.44897e-12
5.3448e-12
1.75933e-12
-2.05258e-12
1.83173e-12
2.1162e-12
-2.66496e-12
8.39563e-12
-7.73393e-12
6.31949e-13
9.89243e-12
-1.99668e-12
8.83175e-13
-1.65362e-12
-5.22566e-13
-6.98427e-13
-1.50828e-12
6.31858e-14
-1.20214e-12
3.55626e-13
-4.6526e-13
4.27434e-13
-1.15892e-13
4.16864e-13
-1.35548e-14
4.32315e-13
-6.91083e-14
3.17447e-13
8.76091e-14
-8.72932e-14
6.63384e-13
6.11454e-13
-9.29991e-13
3.5081e-12
-6.13736e-12
4.51805e-12
-5.87153e-13
2.07137e-12
4.44053e-12
5.07958e-13
2.32509e-12
-2.21896e-13
2.03401e-12
-1.45589e-12
1.37542e-12
-5.33656e-13
-1.603e-12
5.04606e-14
-8.58928e-13
2.1362e-13
-3.05024e-13
2.90229e-13
-1.61898e-13
3.18898e-13
-5.32587e-14
3.34734e-13
-2.98303e-14
3.50494e-13
-2.60179e-14
3.66563e-13
-2.53305e-14
3.77772e-13
-1.75036e-14
3.8047e-13
-4.06294e-15
3.829e-13
-3.69293e-15
3.85372e-13
-3.38579e-15
3.86913e-13
-1.50814e-15
3.87333e-13
-2.13927e-15
3.86191e-13
1.87009e-15
3.98224e-13
-3.29749e-14
4.08833e-13
-1.48872e-14
4.35965e-13
-4.50994e-14
4.52999e-13
-9.74373e-15
4.41696e-13
5.74138e-14
3.74727e-13
5.40725e-13
-2.7126e-13
1.41339e-12
-4.64038e-12
9.71392e-12
3.15825e-12
1.41141e-12
-1.34494e-12
1.33008e-11
-1.45544e-11
8.32885e-12
-2.76194e-12
3.04832e-13
1.79164e-11
-2.13278e-12
3.32079e-12
-1.65403e-12
-1.00132e-12
-5.00862e-13
-2.66145e-12
2.50578e-13
-1.95358e-12
5.42534e-13
-7.57216e-13
6.01257e-13
-1.74614e-13
5.64067e-13
2.36353e-14
5.25029e-13
-3.00706e-14
2.48862e-13
3.63775e-13
-3.43384e-13
1.25563e-12
1.06033e-13
-1.37941e-12
5.48936e-12
-1.15207e-11
6.79478e-12
-1.89257e-12
1.96195e-12
9.27336e-12
1.33603e-12
2.95101e-12
2.16084e-12
1.20919e-12
-7.46428e-13
4.28268e-12
-2.91605e-13
-2.05783e-12
3.24519e-13
-1.47505e-12
4.74456e-13
-4.5496e-13
4.99579e-13
-1.87022e-13
5.1019e-13
-6.38698e-14
5.1923e-13
-3.887e-14
5.33774e-13
-4.05622e-14
5.50803e-13
-4.23587e-14
5.62705e-13
-2.94063e-14
5.63678e-13
-5.03598e-15
5.65424e-13
-5.43828e-15
5.67925e-13
-5.88665e-15
5.70201e-13
-3.78433e-15
5.71861e-13
-3.79941e-15
5.70604e-13
3.12662e-15
5.81862e-13
-4.42321e-14
5.92849e-13
-2.58741e-14
6.23915e-13
-7.61662e-14
6.37664e-13
-2.34925e-14
7.20531e-13
-2.54528e-14
1.0712e-12
1.90052e-13
2.02923e-12
4.55368e-13
6.61231e-12
5.13083e-12
1.98563e-12
5.62948e-12
-4.08935e-12
1.23997e-11
-2.13246e-11
1.05052e-11
-8.67416e-13
-8.77798e-14
2.85094e-11
-1.10439e-12
4.3374e-12
-7.32699e-13
-1.373e-12
2.03465e-14
-3.4145e-12
5.26096e-13
-2.45932e-12
7.09556e-13
-9.40676e-13
7.20255e-13
-1.85313e-13
6.48861e-13
9.50296e-14
5.11466e-13
1.07324e-13
1.2958e-13
7.45662e-13
-1.12505e-13
1.49771e-12
1.75239e-12
-3.2443e-12
1.86875e-11
-2.84558e-11
1.27045e-11
4.09039e-12
3.19972e-12
1.87781e-11
2.69426e-12
3.45648e-12
6.46728e-12
-2.56383e-12
6.40147e-13
1.01098e-11
3.29756e-13
-1.74743e-12
6.29365e-13
-1.77466e-12
7.06544e-13
-5.3214e-13
6.73946e-13
-1.54423e-13
6.62661e-13
-5.25856e-14
6.63494e-13
-3.97027e-14
6.73929e-13
-5.09978e-14
6.88075e-13
-5.6504e-14
6.97312e-13
-3.86434e-14
6.93005e-13
-7.29389e-16
6.92264e-13
-4.69674e-15
6.93424e-13
-7.04718e-15
6.95857e-13
-6.21717e-15
6.99885e-13
-7.82772e-15
7.0515e-13
-2.13829e-15
7.08966e-13
-4.80476e-14
7.11103e-13
-2.80117e-14
7.35894e-13
-1.00957e-13
7.31106e-13
-1.87051e-14
8.26978e-13
-1.21324e-13
1.18779e-12
-1.70762e-13
2.2711e-12
-6.27937e-13
8.51679e-12
-1.11486e-12
-1.44385e-12
1.45882e-11
-1.63202e-11
-3.65683e-12
-3.07961e-12
-4.55001e-12
2.57591e-14
4.51968e-12
1.94397e-11
6.33311e-13
8.22377e-12
8.02227e-13
-1.54192e-12
8.07448e-13
-3.41972e-12
8.33989e-13
-2.48587e-12
8.3237e-13
-9.39057e-13
7.75432e-13
-1.28375e-13
6.59907e-13
2.10555e-13
3.52682e-13
4.14549e-13
-2.68111e-13
1.36645e-12
-1.00996e-12
2.23957e-12
-6.51889e-12
2.26462e-12
-2.35533e-11
-1.14214e-11
2.4687e-12
-2.19316e-11
3.55541e-12
1.76914e-11
-5.30386e-12
1.23158e-11
-8.44606e-12
5.78366e-13
1.75416e-12
-9.04061e-14
1.65762e-12
-1.6509e-12
9.98726e-13
-1.11576e-12
8.7222e-13
-4.05634e-13
7.93628e-13
-7.58311e-14
7.689e-13
-2.78578e-14
7.65289e-13
-3.60912e-14
7.71339e-13
-5.70475e-14
7.7907e-13
-6.4235e-14
7.81567e-13
-4.11405e-14
7.68841e-13
1.19962e-14
7.64047e-13
9.78586e-17
7.62328e-13
-5.32824e-15
7.63746e-13
-7.63578e-15
7.6767e-13
-1.17519e-14
7.73802e-13
-8.26957e-15
7.74144e-13
-4.83896e-14
7.71229e-13
-2.50975e-14
7.78768e-13
-1.08496e-13
7.63509e-13
-3.44611e-15
8.23926e-13
-1.81741e-13
1.11356e-12
-4.60398e-13
2.08352e-12
-1.5979e-12
8.95628e-12
-7.98761e-12
-4.18199e-12
-9.51104e-13
-1.51691e-11
-4.38812e-12
3.57403e-13
-6.72984e-12
2.36748e-12
-8.5276e-13
1.35627e-11
4.53275e-13
6.91773e-12
3.97187e-13
-1.48583e-12
2.69301e-13
-3.29183e-12
2.15691e-13
-2.43226e-12
1.91509e-13
-9.14875e-13
1.73541e-13
-1.10407e-13
1.46149e-13
2.37947e-13
6.75584e-14
4.9314e-13
-1.06661e-13
1.54067e-12
-3.09946e-13
2.44285e-12
-1.75963e-12
3.71431e-12
-5.47937e-12
-7.70165e-12
2.09961e-13
-2.76209e-11
1.90275e-12
1.59986e-11
-8.30328e-15
1.42268e-11
-1.36711e-12
1.93717e-12
1.09192e-12
-2.54944e-12
5.51211e-13
-1.11018e-12
2.59373e-13
-8.23926e-13
1.97171e-13
-3.43432e-13
1.8553e-13
-6.41897e-14
1.77965e-13
-2.02929e-14
1.77459e-13
-3.55851e-14
1.7857e-13
-5.81592e-14
1.78771e-13
-6.44356e-14
1.77197e-13
-3.95667e-14
1.73772e-13
1.54213e-14
1.7178e-13
2.0904e-15
1.71018e-13
-4.56673e-15
1.71337e-13
-7.95404e-15
1.71366e-13
-1.1781e-14
1.73977e-13
-1.08806e-14
1.698e-13
-4.42131e-14
1.76318e-13
-3.16156e-14
1.6211e-13
-9.42878e-14
1.73407e-13
-1.47428e-14
1.52508e-13
-1.60842e-13
1.92787e-13
-5.00677e-13
2.90537e-13
-1.69565e-12
1.49036e-12
-9.18743e-12
-4.74223e-12
-1.55622e-12
-1.34129e-11
-3.80646e-12
2.60764e-12
-7.9028e-12
6.46382e-12
-3.85764e-12
9.51749e-12
5.56114e-13
2.50398e-12
4.41561e-13
-1.37128e-12
2.95577e-13
-3.14585e-12
2.25506e-13
-2.36218e-12
1.93277e-13
-8.82647e-13
1.73336e-13
-9.04663e-14
1.45957e-13
2.65326e-13
6.70197e-14
5.72077e-13
-8.99217e-14
1.69762e-12
-1.15302e-13
2.46823e-12
-6.76398e-13
4.27541e-12
-8.30549e-13
-7.5475e-12
3.09445e-12
-3.15459e-11
2.35156e-12
1.67415e-11
1.41523e-12
1.51631e-11
1.45007e-12
1.90233e-12
1.17675e-12
-2.27611e-12
4.80217e-13
-4.13653e-13
2.64743e-13
-6.08452e-13
1.99133e-13
-2.77823e-13
1.87692e-13
-5.27483e-14
1.80052e-13
-1.26534e-14
1.79833e-13
-3.5366e-14
1.80815e-13
-5.91412e-14
1.80404e-13
-6.40244e-14
1.78114e-13
-3.72766e-14
1.74294e-13
1.92418e-14
1.72022e-13
4.36192e-15
1.71063e-13
-3.60784e-15
1.7126e-13
-8.15115e-15
1.71135e-13
-1.16558e-14
1.73795e-13
-1.35402e-14
1.69143e-13
-3.95609e-14
1.7633e-13
-3.88034e-14
1.59302e-13
-7.72599e-14
1.73298e-13
-2.87382e-14
1.42333e-13
-1.29877e-13
1.70261e-13
-5.28606e-13
2.08167e-13
-1.73356e-12
8.30712e-13
-9.80998e-12
-5.55694e-12
-1.63046e-12
-1.15824e-11
-2.75118e-12
3.72836e-12
-1.37231e-12
5.08495e-12
-1.33807e-12
9.48325e-12
5.30988e-13
6.34923e-13
4.39336e-13
-1.27963e-12
3.14984e-13
-3.0215e-12
2.33177e-13
-2.28038e-12
1.93806e-13
-8.43276e-13
1.72491e-13
-6.91514e-14
1.46388e-13
2.91429e-13
7.01558e-14
6.48309e-13
-4.6401e-14
1.81417e-12
1.7213e-13
2.2497e-12
2.30498e-12
2.14256e-12
9.31381e-12
-1.45563e-11
6.55585e-12
-2.87879e-11
3.03113e-12
2.02663e-11
1.0527e-12
1.71416e-11
3.30952e-13
2.62408e-12
4.81224e-13
-2.42639e-12
3.18037e-13
-2.50465e-13
2.60927e-13
-5.51342e-13
2.00763e-13
-2.17659e-13
1.89023e-13
-4.10084e-14
1.81645e-13
-5.27493e-15
1.81823e-13
-3.55441e-14
1.82702e-13
-6.00206e-14
1.81583e-13
-6.29048e-14
1.78548e-13
-3.42419e-14
1.74299e-13
2.34903e-14
1.71759e-13
6.90202e-15
1.70522e-13
-2.37021e-15
1.70528e-13
-8.15776e-15
1.70277e-13
-1.14043e-14
1.72878e-13
-1.6141e-14
1.6816e-13
-3.48431e-14
1.75233e-13
-4.58765e-14
1.57527e-13
-5.95535e-14
1.7031e-13
-4.15212e-14
1.35502e-13
-9.50693e-14
1.42226e-13
-5.35329e-13
1.20659e-13
-1.71199e-12
1.61395e-13
-9.85071e-12
-6.64368e-12
-2.80584e-12
-8.57657e-12
-2.33292e-12
3.25544e-12
-2.18547e-12
4.9375e-12
2.19879e-13
7.0779e-12
3.70898e-13
4.83904e-13
4.18685e-13
-1.32741e-12
3.29791e-13
-2.9326e-12
2.38594e-13
-2.18918e-12
1.93302e-13
-7.97984e-13
1.71162e-13
-4.70115e-14
1.47489e-13
3.15103e-13
7.64477e-14
7.1935e-13
-1.44122e-14
1.90503e-12
1.80188e-13
2.0551e-12
2.58334e-12
-2.60595e-13
1.08043e-11
-2.27773e-11
5.79679e-12
-2.37804e-11
3.3741e-12
2.26889e-11
2.12552e-12
1.83901e-11
-6.20965e-13
5.37056e-12
-1.36896e-14
-3.03366e-12
1.82618e-13
-4.46773e-13
2.58294e-13
-6.27018e-13
2.01055e-13
-1.6042e-13
1.89178e-13
-2.91316e-14
1.82504e-13
1.39923e-15
1.83035e-13
-3.60744e-14
1.84052e-13
-6.10377e-14
1.82301e-13
-6.11541e-14
1.78352e-13
-3.02927e-14
1.73784e-13
2.80584e-14
1.70919e-13
9.76622e-15
1.69342e-13
-7.92476e-16
1.69169e-13
-7.98532e-15
1.68835e-13
-1.10702e-14
1.71465e-13
-1.87705e-14
1.66758e-13
-3.01369e-14
1.73801e-13
-5.29192e-14
1.56099e-13
-4.18511e-14
1.68196e-13
-5.36182e-14
1.28854e-13
-5.57272e-14
1.10628e-13
-5.17103e-13
-5.21348e-15
-1.59615e-12
4.74904e-13
-1.03308e-11
-6.85243e-12
-1.68796e-12
-6.68862e-12
-1.92988e-12
3.49737e-12
-9.90548e-13
3.99816e-12
-1.41007e-13
6.22836e-12
1.68654e-13
1.74243e-13
4.14375e-13
-1.57314e-12
3.41129e-13
-2.85936e-12
2.41506e-13
-2.08956e-12
1.91827e-13
-7.48305e-13
1.69435e-13
-2.46192e-14
1.48922e-13
3.35616e-13
8.5532e-14
7.82741e-13
5.75324e-15
1.98481e-12
6.91232e-14
1.99173e-12
8.56649e-13
-1.04812e-12
4.80972e-12
-2.67304e-11
2.40846e-12
-2.13791e-11
2.99132e-12
2.21061e-11
3.09153e-12
1.82899e-11
6.12063e-13
7.85003e-12
2.39838e-13
-2.66143e-12
2.311e-13
-4.38036e-13
2.5834e-13
-6.54258e-13
2.01566e-13
-1.03646e-13
1.88537e-13
-1.61029e-14
1.82777e-13
7.15916e-15
1.83381e-13
-3.66786e-14
1.83604e-13
-6.12606e-14
1.80955e-13
-5.85044e-14
1.77158e-13
-2.64959e-14
1.73397e-13
3.18189e-14
1.71145e-13
1.20185e-14
1.6982e-13
5.32842e-16
1.69604e-13
-7.77014e-15
1.69142e-13
-1.06081e-14
1.7134e-13
-2.09683e-14
1.66754e-13
-2.5551e-14
1.72518e-13
-5.86826e-14
1.56648e-13
-2.59816e-14
1.63678e-13
-6.06479e-14
1.25731e-13
-1.77803e-14
7.45295e-14
-4.65902e-13
-1.72318e-13
-1.3493e-12
-4.34504e-13
-1.00686e-11
-7.00944e-12
3.03454e-13
1.96546e-13
2.58672e-13
4.4782e-14
1.69115e-13
8.95567e-14
9.33919e-14
7.57229e-14
-2.18139e-13
3.11531e-13
5.98802e-13
9.77441e-14
6.19414e-13
2.41703e-14
7.14339e-13
-5.36783e-15
1.23606e-12
-4.45995e-13
-1.85759e-12
2.87551e-12
6.84898e-13
-8.71537e-14
7.27804e-13
-1.87356e-14
7.57665e-13
-3.52297e-14
6.68068e-13
-3.56397e-13
-1.67376e-12
4.84239e-13
6.00707e-13
-1.87861e-13
6.15899e-13
-3.39281e-14
6.02417e-13
-2.17474e-14
3.14308e-13
-6.82877e-14
-6.99153e-13
-6.60304e-13
3.12139e-13
2.78211e-13
2.56464e-13
1.88176e-13
-5.10977e-13
-5.57964e-12
-7.97443e-13
-2.4879e-12
4.05626e-13
-1.3429e-12
2.85316e-12
-8.89673e-13
5.77513e-12
1.05908e-12
-1.77451e-12
1.96287e-12
-2.47693e-12
1.6252e-12
-2.52169e-12
1.08711e-12
-1.55147e-12
8.30917e-13
-4.9211e-13
7.38926e-13
6.73722e-14
6.82994e-13
3.91548e-13
5.17631e-13
9.48103e-13
3.98878e-13
2.10356e-12
9.89714e-13
1.4009e-12
2.21555e-12
-2.27396e-12
-4.74681e-12
-1.9768e-11
-7.8039e-12
-1.8322e-11
4.67959e-12
9.6226e-12
1.11697e-11
1.17998e-11
9.3497e-12
9.67001e-12
3.96865e-12
2.71961e-12
1.96196e-12
1.56865e-12
1.13609e-12
1.71619e-13
9.20915e-13
1.11527e-13
8.29114e-13
7.56984e-14
8.16942e-13
1.93316e-14
8.17611e-13
-3.73482e-14
8.08887e-13
-5.25361e-14
7.9102e-13
-4.06379e-14
7.74355e-13
-9.83055e-15
7.73302e-13
3.28718e-14
7.66938e-13
1.83825e-14
7.63127e-13
4.34372e-15
7.60985e-13
-5.62839e-15
7.60047e-13
-9.66935e-15
7.59719e-13
-2.06404e-14
7.54995e-13
-2.08268e-14
7.42412e-13
-4.61002e-14
7.27243e-13
-1.08126e-14
6.74134e-13
-7.53868e-15
5.48605e-13
1.07749e-13
1.53748e-14
6.73284e-14
-1.79918e-12
4.65254e-13
-9.95349e-12
-1.91433e-12
-3.07984e-12
6.9727e-13
1.3808e-12
-1.54974e-12
2.65264e-12
-3.95673e-14
1.34298e-12
1.51951e-12
4.21606e-12
1.90102e-12
-2.15602e-12
2.04775e-12
-2.62366e-12
1.4956e-12
-1.96953e-12
9.38851e-13
-9.94719e-13
7.01844e-13
-2.55103e-13
6.64821e-13
1.04396e-13
7.12407e-13
3.43962e-13
8.21223e-13
8.39287e-13
1.1117e-12
1.81309e-12
1.48815e-12
1.02445e-12
1.89619e-12
-2.682e-12
-6.98576e-12
-1.08861e-11
-1.16513e-11
-1.36566e-11
-6.3473e-12
4.31864e-12
-2.71996e-12
8.17249e-12
1.44763e-13
6.80528e-12
1.07031e-12
1.79407e-12
1.19539e-12
1.44357e-12
8.56717e-13
5.10288e-13
7.80028e-13
1.88215e-13
7.37497e-13
1.1823e-13
7.38424e-13
1.84047e-14
7.2988e-13
-2.88043e-14
7.14751e-13
-3.74068e-14
6.99519e-13
-2.54065e-14
6.91234e-13
-1.54503e-15
6.98463e-13
2.56426e-14
7.00873e-13
1.5973e-14
7.00619e-13
4.59725e-15
6.98827e-13
-3.83618e-15
6.96449e-13
-7.29158e-15
6.92005e-13
-1.6196e-14
6.8628e-13
-1.51023e-14
6.68691e-13
-2.85112e-14
6.58908e-13
-1.02911e-15
6.04571e-13
4.67985e-14
4.86874e-13
2.25446e-13
-9.53281e-14
6.4953e-13
-1.5256e-12
1.89553e-12
-8.60181e-12
5.16188e-12
4.27958e-13
1.04876e-12
8.16278e-13
8.01655e-13
2.89974e-12
1.20803e-12
9.36614e-13
2.92155e-12
2.50253e-12
2.4939e-12
-1.72837e-12
1.95731e-12
-2.08707e-12
1.18834e-12
-1.20056e-12
6.86294e-13
-4.92676e-13
5.23345e-13
-9.21537e-14
5.48124e-13
7.9617e-14
6.82786e-13
2.093e-13
9.97234e-13
5.24839e-13
1.64466e-12
1.16566e-12
2.01458e-12
6.54526e-13
1.15056e-12
-1.81797e-12
-3.53782e-12
-6.19771e-12
-9.83025e-12
-7.36412e-12
-8.82659e-12
3.31498e-12
-6.12175e-12
5.46766e-12
-2.44566e-12
3.12919e-12
-9.32888e-14
-5.58299e-13
3.68474e-13
9.81809e-13
5.24172e-13
3.5459e-13
5.74527e-13
1.3786e-13
5.9772e-13
9.50368e-14
6.04367e-13
1.17584e-14
5.90971e-13
-1.54087e-14
5.74226e-13
-2.0662e-14
5.61999e-13
-1.31792e-14
5.59783e-13
6.70816e-16
5.70234e-13
1.51914e-14
5.76702e-13
9.50504e-15
5.78513e-13
2.78593e-15
5.77114e-13
-2.43652e-15
5.73825e-13
-4.00314e-15
5.67993e-13
-1.03641e-14
5.60356e-13
-7.46455e-15
5.46677e-13
-1.48329e-14
5.36691e-13
8.95744e-15
5.2041e-13
6.30794e-14
4.91965e-13
2.5389e-13
3.32884e-13
8.08611e-13
-2.27422e-13
2.45583e-12
-5.10652e-12
1.0041e-11
2.69147e-12
1.50929e-13
5.04476e-15
1.79109e-12
1.25958e-12
2.25656e-12
4.71146e-13
3.76795e-12
9.91143e-13
2.89706e-12
-8.57481e-13
1.55699e-12
-7.47012e-13
7.47438e-13
-3.91001e-13
3.86713e-13
-1.31951e-13
3.1087e-13
-1.6311e-14
3.65525e-13
2.49621e-14
5.15687e-13
5.91382e-14
8.71101e-13
1.69425e-13
1.61885e-12
4.17918e-13
2.01295e-12
2.60419e-13
7.32255e-13
-5.37276e-13
-2.46586e-12
-2.99959e-12
-7.77873e-12
-2.05125e-12
-6.2113e-12
1.74755e-12
-2.53804e-12
1.7944e-12
-2.08203e-13
7.99353e-13
-4.26365e-13
-3.40138e-13
4.55127e-14
5.09932e-13
2.69154e-13
1.30949e-13
3.48497e-13
5.85166e-14
4.00535e-13
4.29988e-14
4.08493e-13
3.80014e-15
3.99159e-13
-6.07418e-15
3.85947e-13
-7.45034e-15
3.77392e-13
-4.62396e-15
3.77864e-13
1.98661e-16
3.87798e-13
5.25753e-15
3.94375e-13
2.92808e-15
3.96475e-13
6.85675e-16
3.95241e-13
-1.20222e-15
3.92384e-13
-1.14591e-15
3.86334e-13
-4.31416e-15
3.79858e-13
-9.88796e-16
3.69936e-13
-4.91047e-15
3.65651e-13
1.32424e-14
3.94204e-13
3.45264e-14
4.8177e-13
1.66324e-13
8.45584e-13
4.44798e-13
1.84901e-12
1.45241e-12
5.30053e-12
6.58946e-12
2.386e-12
-5.05932e-13
7.5365e-13
1.2248e-12
2.21594e-12
1.35846e-12
6.11447e-13
2.20446e-13
8.8495e-14
7.21839e-14
9.7146e-14
1.56284e-13
3.25709e-13
7.43627e-13
1.00405e-12
4.6677e-13
-2.53282e-12
-4.58407e-12
-2.83653e-12
-1.04213e-12
-2.42773e-13
-5.82911e-13
-7.29793e-14
5.79695e-14
1.16486e-13
1.59485e-13
1.63285e-13
1.57211e-13
1.49761e-13
1.45137e-13
1.45335e-13
1.50593e-13
1.53521e-13
1.54207e-13
1.53004e-13
1.51858e-13
1.47544e-13
1.46556e-13
1.41645e-13
1.54887e-13
1.89414e-13
3.55738e-13
8.00536e-13
2.25294e-12
8.8424e-12
)
;

boundaryField
{
    AirInlet
    {
        type            calculated;
        value           nonuniform List<scalar> 5(-2e-13 -2e-13 -2e-13 -2e-13 -2e-13);
    }
    WaterInlet
    {
        type            calculated;
        value           nonuniform List<scalar> 10(-5e-13 -5e-13 -5e-13 -5e-13 -5e-13 -5e-13 -5e-13 -5e-13 -5e-13 -5e-13);
    }
    ChannelWall
    {
        type            calculated;
        value           uniform 0;
    }
    Outlet
    {
        type            calculated;
        value           nonuniform List<scalar> 
15
(
-8.2083e-12
-6.03929e-12
7.78492e-12
1.19463e-11
1.16944e-11
2.0506e-12
1.64542e-12
1.24813e-12
6.83658e-13
-2.77495e-13
-1.38831e-11
-1.21096e-11
-7.37004e-12
5.606e-12
1.12284e-11
)
;
    }
    FrontAndBack
    {
        type            empty;
        value           nonuniform 0();
    }
}


// ************************************************************************* //
