/*--------------------------------*- C++ -*----------------------------------*\
| =========                 |                                                 |
| \\      /  F ield         | OpenFOAM: The Open Source CFD Toolbox           |
|  \\    /   O peration     | Version:  2.3.0                                 |
|   \\  /    A nd           | Web:      www.OpenFOAM.org                      |
|    \\/     M anipulation  |                                                 |
\*---------------------------------------------------------------------------*/
FoamFile
{
    version     2.0;
    format      ascii;
    class       volVectorField;
    location    "0.062";
    object      U;
}
// * * * * * * * * * * * * * * * * * * * * * * * * * * * * * * * * * * * * * //

dimensions      [0 1 -1 0 0 0 0];

internalField   nonuniform List<vector> 
725
(
(0.0453381 0.00708902 -2.47275e-31)
(0.0557739 0.00141126 5.30178e-32)
(0.0243866 0.000446885 3.10299e-32)
(0.0689195 -0.00639701 0)
(0.0372669 -0.00784087 -9.24028e-31)
(0.0871805 0.014043 -1.05276e-30)
(0.112697 0.00763063 2.42063e-31)
(0.0596968 0.00398423 1.70276e-31)
(0.112775 -0.0131576 0)
(-0.0556144 0.0390773 -2.48291e-30)
(0.099289 0.00969204 -2.22255e-31)
(0.129392 0.0129862 -2.29881e-32)
(0.0664823 0.013039 -2.93126e-31)
(0.118668 0.0348711 0)
(-0.202624 0.127374 2.98317e-30)
(0.088035 0.00314033 1.40607e-30)
(0.11075 0.0149314 -2.15272e-31)
(0.0611466 0.0167229 -5.47698e-31)
(0.150669 0.0687934 0)
(0.0999556 0.153354 4.80884e-31)
(0.0456539 0.00149871 1.52886e-30)
(0.0531453 0.00950197 -2.55069e-31)
(0.0282123 0.00686378 3.13779e-32)
(0.0903568 0.0309342 -1.9474e-31)
(0.122216 0.0491537 -4.72139e-30)
(0.039412 -0.00201896 0)
(-0.256894 0.0505135 0)
(-0.09325 0.0154408 0)
(-0.208096 0.0375046 0)
(-0.246002 -0.0979776 0)
(-0.08554 -0.00365581 0)
(-0.0993485 -0.00855071 0)
(-0.0129252 -0.00597027 0)
(0.00996544 -0.00256603 0)
(0.0228261 -0.000626661 0)
(0.0240627 -0.00103368 0)
(0.0262029 -0.00162326 0)
(0.0385288 -0.00270272 0)
(0.0361736 0.00235294 0)
(-0.030079 -0.0037861 0)
(0.0987477 -0.0755829 0)
(0.519641 0.018504 0)
(0.257161 0.0385875 0)
(0.0737859 0.00342049 0)
(-0.0644384 -0.0211393 0)
(-0.110023 0.0228396 0)
(-0.095608 -0.0119884 0)
(-0.0137145 -0.00395847 0)
(-0.0134947 -0.00313514 0)
(0.0105689 -0.00166243 0)
(0.00941037 -0.000562525 0)
(0.0122527 -0.000268997 0)
(0.013541 -0.000169743 0)
(0.014668 -0.000142681 0)
(0.0155758 -9.49014e-05 0)
(0.0159678 -8.88593e-06 0)
(0.0160742 -1.70872e-05 0)
(0.0162093 -9.409e-06 0)
(0.0162276 1.72562e-05 0)
(0.0164706 -5.88646e-05 0)
(0.0157998 7.34262e-05 0)
(0.0185114 -0.000546638 0)
(0.0159666 0.000183729 0)
(0.0276013 -0.000599381 0)
(0.00540677 0.00105166 0)
(0.0481314 0.0007688 0)
(-0.0311818 0.014338 0)
(-0.0216102 0.0201503 0)
(-0.266083 0.13367 0)
(-0.956273 0.0879238 0)
(-0.250948 0.135199 0)
(-0.189715 0.104333 0)
(0.806445 -0.196697 0)
(0.60227 0.199294 0)
(-0.358958 -0.0322889 0)
(-0.168834 -0.0154777 0)
(-0.156456 -0.0455092 0)
(-0.0122402 -0.0392222 0)
(0.0269551 -0.0150804 0)
(0.0488407 -0.00382308 0)
(0.0478457 -0.00123722 0)
(0.0446574 -0.00348609 0)
(0.0563662 -8.17113e-05 0)
(0.0245751 0.0219561 0)
(-0.058435 -0.035146 0)
(0.154489 -0.233471 0)
(0.596036 0.00831839 0)
(0.44389 0.165743 0)
(0.163749 0.074838 0)
(-0.00218533 0.0848468 0)
(-0.154674 0.0288392 0)
(-0.138124 -0.0553599 0)
(0.00994097 -0.0256198 0)
(0.00522631 -0.0109997 0)
(0.0348531 -0.00664672 0)
(0.0336446 -0.00208448 0)
(0.0361362 -0.00115621 0)
(0.0379757 -0.000901555 0)
(0.0398829 -0.000832694 0)
(0.0415187 -0.000568933 0)
(0.0422081 -0.000136714 0)
(0.0423909 -0.000122666 0)
(0.0427014 -9.64051e-05 0)
(0.0428525 -2.32901e-05 0)
(0.0432884 -9.72075e-05 0)
(0.0420938 2.47509e-05 0)
(0.0453287 -0.00145197 0)
(0.0396244 -0.000536303 0)
(0.0585544 -0.00148925 0)
(0.0249829 -0.000206914 0)
(0.0959357 0.00361727 0)
(-0.0235437 0.028948 0)
(0.136729 0.0669072 0)
(-0.220529 0.394133 0)
(-0.680592 0.0354305 0)
(-0.147635 0.00100793 0)
(0.539181 -0.422915 0)
(1.80055 -0.417107 0)
(0.452464 0.6841 0)
(-0.313746 0.0957602 0)
(-0.209921 -0.0406471 0)
(-0.129379 -0.105765 0)
(0.00721541 -0.0800597 0)
(0.0484179 -0.0309328 0)
(0.0687102 -0.00753033 0)
(0.0659869 -5.60499e-05 0)
(0.059814 -0.00328079 0)
(0.0621412 0.00934325 0)
(-0.00186959 0.0486027 0)
(-0.0912898 -0.0445214 0)
(0.0630633 -0.436904 0)
(1.04011 -0.0631154 0)
(0.515154 0.322789 0)
(0.0600905 0.124947 0)
(0.347885 0.088632 0)
(-0.0622531 0.116738 0)
(-0.101914 -0.0982279 0)
(0.0431056 -0.0571181 0)
(0.036241 -0.0190339 0)
(0.0589142 -0.00916954 0)
(0.0560475 -0.00312951 0)
(0.0568117 -0.00179172 0)
(0.0583333 -0.00168979 0)
(0.0603033 -0.00170215 0)
(0.0620883 -0.00118277 0)
(0.0626849 -0.000261127 0)
(0.0626746 -0.000250435 0)
(0.0629661 -0.000239793 0)
(0.0631496 -0.000126591 0)
(0.0637474 -0.000124829 0)
(0.0625633 0.000191387 0)
(0.0660989 -0.00196392 0)
(0.0594382 -0.00108043 0)
(0.0804761 -0.00307871 0)
(0.0431893 -0.000835167 0)
(0.12239 0.00118012 0)
(0.00530071 0.019312 0)
(0.284031 0.0535866 0)
(0.145886 0.468613 0)
(0.958058 0.254383 0)
(0.469067 -0.104732 0)
(0.911901 -0.797108 0)
(1.62244 -0.0114039 0)
(0.427309 1.33135 0)
(-0.145962 0.217425 0)
(-0.109112 -0.0592831 0)
(-0.040876 -0.163624 0)
(0.0432138 -0.114876 0)
(0.0713632 -0.0443454 0)
(0.0832276 -0.00974588 0)
(0.0775905 0.00245823 0)
(0.0679576 0.000117518 0)
(0.0497919 0.0250171 0)
(-0.0129612 0.0699456 0)
(-0.000586429 -0.122565 0)
(0.260912 -0.932984 0)
(2.69189 0.146559 0)
(1.06584 0.664913 0)
(-0.153841 0.122162 0)
(0.939472 -0.108801 0)
(0.130522 0.373831 0)
(0.00831862 -0.11591 0)
(0.0766869 -0.0847599 0)
(0.0667842 -0.0254315 0)
(0.0792818 -0.00900386 0)
(0.0740914 -0.00310496 0)
(0.0731721 -0.00201684 0)
(0.074129 -0.00232347 0)
(0.0757292 -0.00252504 0)
(0.0772251 -0.00176348 0)
(0.077352 -0.000240237 0)
(0.0768529 -0.000304668 0)
(0.0769517 -0.000350404 0)
(0.0770605 -0.000256087 0)
(0.0778244 -0.000276552 0)
(0.0771992 4.72747e-05 0)
(0.0808379 -0.00236205 0)
(0.0730059 -0.00151214 0)
(0.0935776 -0.00457819 0)
(0.0543718 -0.00182092 0)
(0.133158 -0.00378455 0)
(0.0162887 -0.000800305 0)
(0.296651 -0.00483351 0)
(0.18204 0.123871 0)
(1.3775 0.027342 0)
(0.457816 -0.287515 0)
(1.34666 -0.797972 0)
(-1.16943 -0.0313432 0)
(0.606502 1.33067 0)
(0.015529 0.408081 0)
(0.112963 -0.0767752 0)
(0.0837098 -0.181333 0)
(0.0901511 -0.129477 0)
(0.0916537 -0.0493987 0)
(0.0913967 -0.00848315 0)
(0.0816143 0.00742945 0)
(0.0655698 0.0118275 0)
(0.0139586 0.0512882 0)
(-0.0735287 0.0968083 0)
(-0.238142 -0.0461497 0)
(-0.867823 -0.907889 0)
(-2.42786 -0.311975 0)
(1.15124 0.910215 0)
(-0.43344 0.333902 0)
(-1.19632 -0.0213163 0)
(0.272752 0.305158 0)
(0.216688 -0.100957 0)
(0.132437 -0.0864141 0)
(0.0902477 -0.0271709 0)
(0.0934485 -0.00565601 0)
(0.0863468 -0.00209395 0)
(0.0846972 -0.00187865 0)
(0.0853146 -0.00273247 0)
(0.086256 -0.00314376 0)
(0.0869735 -0.00215526 0)
(0.0862205 0.000196712 0)
(0.0849747 -0.000176008 0)
(0.0847332 -0.00033007 0)
(0.0846009 -0.000337086 0)
(0.0853424 -0.000523941 0)
(0.0847599 -0.000198783 0)
(0.0885314 -0.00265355 0)
(0.0799306 -0.000961788 0)
(0.0995415 -0.00621362 0)
(0.0587132 0.000327374 0)
(0.135128 -0.00939959 0)
(0.0145608 -0.0153842 0)
(0.284431 -0.0598971 0)
(0.167487 -0.269667 0)
(1.4035 -0.170535 0)
(-0.292492 -0.802268 0)
(-0.744132 -0.0838382 0)
(-4.36161 0.00576093 0)
(-1.03683 0.807129 0)
(0.160196 0.374191 0)
(0.250107 -0.0755983 0)
(0.152781 -0.168026 0)
(0.11636 -0.123187 0)
(0.0988841 -0.046458 0)
(0.0923075 -0.00599553 0)
(0.0813575 0.0112164 0)
(0.064603 0.0226672 0)
(0.00281978 0.0726835 0)
(-0.135697 0.117784 0)
(-0.222355 0.145926 0)
(-1.33681 -0.62752 0)
(-2.54756 -1.19069 0)
(1.39955 0.849689 0)
(0.472366 0.665112 0)
(-1.24536 0.0744049 0)
(0.653261 -0.0831569 0)
(0.390352 -0.0670246 0)
(0.166789 -0.0481959 0)
(0.0967053 -0.0187409 0)
(0.0970069 -0.00350121 0)
(0.0895095 -0.00120082 0)
(0.0883459 -0.00178799 0)
(0.0890976 -0.00288094 0)
(0.0894949 -0.00322409 0)
(0.089304 -0.0020264 0)
(0.0877784 0.000678266 0)
(0.0860894 5.03367e-05 0)
(0.085663 -0.000250925 0)
(0.0853455 -0.000391801 0)
(0.0860357 -0.000589743 0)
(0.0852188 -0.000478704 0)
(0.0890798 -0.00231759 0)
(0.0797312 -0.00140987 0)
(0.099354 -0.00508583 0)
(0.0562417 -0.000379717 0)
(0.130248 -0.00862714 0)
(0.00197812 -0.0241187 0)
(0.224226 -0.0827133 0)
(0.0783258 -0.431262 0)
(1.13353 -0.22562 0)
(-0.687635 -0.764856 0)
(-0.889662 0.0941502 0)
(-4.53866 0.257128 0)
(-2.67199 0.538197 0)
(0.137015 0.213183 0)
(0.265124 -0.0716044 0)
(0.170982 -0.16087 0)
(0.124577 -0.12003 0)
(0.100804 -0.0450277 0)
(0.0922537 -0.00503534 0)
(0.0811219 0.0125968 0)
(0.0648151 0.0266524 0)
(0.0024716 0.0811488 0)
(-0.0932116 0.123048 0)
(-0.000661762 0.201214 0)
(-0.788083 -0.341166 0)
(1.12545 -1.53986 0)
(1.31844 0.849013 0)
(1.1332 0.743329 0)
(0.2752 0.0909596 0)
(0.745127 -0.122409 0)
(0.356999 -0.0345971 0)
(0.169895 -0.0344685 0)
(0.0985325 -0.0155012 0)
(0.0979957 -0.00290619 0)
(0.0904681 -0.000825063 0)
(0.0894995 -0.00177015 0)
(0.0903248 -0.00293308 0)
(0.0905076 -0.00322007 0)
(0.089921 -0.00193198 0)
(0.0881044 0.000862592 0)
(0.0862662 0.000156126 0)
(0.0857333 -0.000208674 0)
(0.0853226 -0.000405386 0)
(0.0859705 -0.000590061 0)
(0.0850786 -0.0006086 0)
(0.0889614 -0.00210491 0)
(0.0794265 -0.00174205 0)
(0.0990042 -0.00432838 0)
(0.0552235 -0.00104525 0)
(0.128356 -0.00739349 0)
(-0.00277679 -0.0259692 0)
(0.19814 -0.0865395 0)
(-0.0074987 -0.477012 0)
(0.807247 -0.259695 0)
(-0.978141 -0.636951 0)
(-0.671387 0.17677 0)
(-1.20335 0.324505 0)
(-1.14951 0.494985 0)
(0.254954 0.0571755 0)
(0.253979 -0.0653763 0)
(0.183769 -0.153776 0)
(0.131173 -0.116194 0)
(0.101912 -0.0432273 0)
(0.0917226 -0.00400247 0)
(0.0807755 0.0139398 0)
(0.0656661 0.0305576 0)
(0.00529806 0.088061 0)
(-0.0285256 0.118139 0)
(0.331428 0.166843 0)
(1.15196 -0.470976 0)
(7.20702 -1.55583 0)
(1.12752 0.898081 0)
(1.96112 0.782342 0)
(-0.369215 0.0592965 0)
(0.351441 -0.101368 0)
(0.1398 -0.0110982 0)
(0.167757 -0.0276149 0)
(0.0992153 -0.0123449 0)
(0.0985185 -0.00234618 0)
(0.091179 -0.000442277 0)
(0.0904344 -0.00176842 0)
(0.0913705 -0.0029814 0)
(0.0913345 -0.00318224 0)
(0.0902832 -0.00179664 0)
(0.0881763 0.00106793 0)
(0.0862096 0.000278847 0)
(0.0855223 -0.000152252 0)
(0.0849902 -0.000410448 0)
(0.0855703 -0.000579168 0)
(0.0846188 -0.000744264 0)
(0.0885108 -0.00186183 0)
(0.0788897 -0.0021194 0)
(0.0983692 -0.00342545 0)
(0.0541389 -0.00177381 0)
(0.126374 -0.00569486 0)
(-0.00760996 -0.0269078 0)
(0.172248 -0.0870193 0)
(-0.0989777 -0.498634 0)
(0.475941 -0.312936 0)
(-1.37695 -0.509515 0)
(-0.822094 0.179941 0)
(-1.83165 0.249969 0)
(-0.0254141 0.4373 0)
(0.17544 0.0235191 0)
(0.229437 -0.0629244 0)
(0.193449 -0.148405 0)
(0.136172 -0.111855 0)
(0.102326 -0.0411045 0)
(0.0908312 -0.00291297 0)
(0.0803776 0.0151917 0)
(0.0671145 0.0342666 0)
(0.0103083 0.0932197 0)
(-0.0163462 0.108034 0)
(0.261811 0.0486519 0)
(1.61978 -0.915223 0)
(6.82771 -1.29636 0)
(1.00782 1.04524 0)
(2.68611 0.923676 0)
(-0.726574 0.164984 0)
(0.0747513 -0.149029 0)
(-0.0203745 -0.0158114 0)
(0.167877 -0.0296315 0)
(0.0990458 -0.00942309 0)
(0.0984804 -0.00177941 0)
(0.0914574 -8.68944e-05 0)
(0.0910149 -0.00178803 0)
(0.0920819 -0.00303154 0)
(0.0918614 -0.00311038 0)
(0.0903219 -0.00161936 0)
(0.087961 0.00129463 0)
(0.0859087 0.000417075 0)
(0.0850245 -8.0004e-05 0)
(0.0843632 -0.000406472 0)
(0.0848747 -0.000563922 0)
(0.0839033 -0.000880098 0)
(0.0878071 -0.00161772 0)
(0.0782025 -0.00249092 0)
(0.0976763 -0.00249749 0)
(0.0534284 -0.00244291 0)
(0.124589 -0.00378694 0)
(-0.0123851 -0.0266861 0)
(0.146149 -0.0836858 0)
(-0.144959 -0.515002 0)
(0.42715 -0.358212 0)
(-0.96616 -0.377411 0)
(-0.562061 0.185599 0)
(-1.22194 0.207911 0)
(-0.0943722 0.309804 0)
(-0.0279097 0.0184075 0)
(0.206981 -0.0712802 0)
(0.20088 -0.144857 0)
(0.139309 -0.107105 0)
(0.102028 -0.0387205 0)
(0.089624 -0.00179211 0)
(0.0798582 0.0163117 0)
(0.0690318 0.0376586 0)
(0.0176243 0.0974864 0)
(-0.0139146 0.101172 0)
(0.0750617 -0.0420795 0)
(0.753166 -1.24058 0)
(2.80928 -1.18411 0)
(0.43147 1.14633 0)
(2.67591 0.951217 0)
(0.177742 0.36243 0)
(0.25165 -0.153758 0)
(0.0306445 -0.0261421 0)
(0.170882 -0.0326236 0)
(0.0990141 -0.0065767 0)
(0.0982223 -0.00115965 0)
(0.0915128 0.000222843 0)
(0.0912263 -0.00181765 0)
(0.0920868 -0.00306281 0)
(0.0914207 -0.00299915 0)
(0.0895976 -0.00142034 0)
(0.0875383 0.00150247 0)
(0.0859307 0.000550041 0)
(0.085197 -5.25885e-06 0)
(0.0845973 -0.000394708 0)
(0.0850501 -0.000543815 0)
(0.0839708 -0.000996864 0)
(0.0877069 -0.00139196 0)
(0.0780291 -0.00279741 0)
(0.0972366 -0.0016625 0)
(0.0529072 -0.0028975 0)
(0.122834 -0.00183315 0)
(-0.016727 -0.0247761 0)
(0.11554 -0.0748009 0)
(-0.284838 -0.512303 0)
(-0.122828 -0.333795 0)
(0.0468676 -0.00170252 0)
(0.0490249 -0.00769431 -2.98637e-32)
(0.0315861 -0.00269895 -8.10106e-31)
(0.00833369 0.00751009 -1.39107e-30)
(0.0226147 0.0131748 0)
(0.0906614 -0.00335123 0)
(0.105729 -0.0124923 0)
(0.0855698 -0.00942509 0)
(0.125406 -0.0250863 6.66896e-31)
(0.198219 -0.078528 0)
(0.102398 -0.00997733 0)
(0.123641 -0.0122729 0)
(0.0956681 -0.0122462 0)
(0.127047 -0.0408684 1.67101e-30)
(0.00994885 -0.108325 0)
(0.0898925 -0.0142694 0)
(0.106855 -0.00820851 0)
(0.0776977 -0.00588608 0)
(0.102532 -0.0149033 -8.80299e-32)
(-0.0459445 -0.0582127 0)
(0.0468291 -0.00706575 0)
(0.0519282 -0.00191823 0)
(0.0323484 -0.000932017 0)
(0.047964 0.000414286 9.48065e-32)
(-0.0142015 -0.0136102 0)
(-0.101084 -0.104247 0)
(-0.594878 -0.0167459 0)
(-0.164227 0.211889 0)
(-0.165047 0.287789 0)
(0.011944 -0.0526866 0)
(0.226721 -0.114181 0)
(0.212072 -0.136979 0)
(0.14063 -0.0924586 0)
(0.0988502 -0.0314893 0)
(0.0855099 0.00136838 0)
(0.0780382 0.0190854 0)
(0.0753658 0.046018 0)
(0.0453809 0.106863 0)
(0.0418477 0.0856936 0)
(0.193661 -0.0803841 0)
(0.299917 -1.16141 0)
(-1.08348 -0.603694 0)
(-0.830879 0.925558 0)
(1.42801 0.712773 0)
(1.29793 0.637101 0)
(0.61373 0.0392167 0)
(0.274428 0.0188047 0)
(0.180213 -0.0125943 0)
(0.0980854 0.00197722 0)
(0.0966648 0.0013533 0)
(0.0911663 0.00088401 0)
(0.0907469 -0.00189616 0)
(0.0906767 -0.00301898 0)
(0.0890432 -0.00256566 0)
(0.0868562 -0.000855665 0)
(0.0858447 0.00187025 0)
(0.0854926 0.000868699 0)
(0.0850144 0.000178064 0)
(0.0845102 -0.000337155 0)
(0.0847956 -0.000484329 0)
(0.0835235 -0.00117086 0)
(0.0868198 -0.000962497 0)
(0.0772123 -0.00310551 0)
(0.0955354 -0.000276086 0)
(0.051549 -0.00263295 0)
(0.118986 0.00373413 0)
(-0.0259271 -0.0117988 0)
(0.0400772 -0.0242621 0)
(-0.496852 -0.315348 0)
(-1.55199 -0.234109 0)
(0.35896 0.0659326 0)
(-0.200789 0.0755128 0)
(-0.0845606 0.0634447 0)
(0.0625093 0.25417 0)
(0.234389 -0.109609 0)
(0.248928 -0.135015 0)
(0.201678 -0.114085 0)
(0.123209 -0.0638497 0)
(0.0829783 -0.0179862 0)
(0.0734094 0.00513088 0)
(0.0731219 0.0197354 0)
(0.0869499 0.0482112 0)
(0.102194 0.104409 0)
(0.137683 0.0612881 0)
(0.219683 -0.161223 0)
(0.146885 -0.727456 0)
(-1.40452 -0.784702 0)
(-1.32886 0.278852 0)
(-0.476234 0.396362 0)
(-0.0694004 0.41128 0)
(0.154231 0.186006 0)
(0.102969 0.0952705 0)
(0.131315 0.0229672 0)
(0.078435 0.00873808 0)
(0.0847118 0.00548018 0)
(0.0823082 0.00112739 0)
(0.0817972 -0.00172442 0)
(0.0804788 -0.0023048 0)
(0.0785068 -0.00161442 0)
(0.0769747 -0.000186114 0)
(0.0770778 0.00155052 0)
(0.0778036 0.000923125 0)
(0.0779476 0.000260826 0)
(0.0776766 -0.000232389 0)
(0.0778268 -0.000436391 0)
(0.076308 -0.00096592 0)
(0.0791583 -0.000936991 0)
(0.0692195 -0.00186791 0)
(0.0877103 -0.000503183 0)
(0.0437832 0.00160136 0)
(0.110927 0.00836998 0)
(-0.0290344 0.0190834 0)
(0.0229793 0.0628467 0)
(-0.405016 0.0764034 0)
(-1.36524 -0.042781 0)
(0.111057 0.071274 0)
(0.108462 0.164786 0)
(0.0915893 0.0577364 0)
(0.198311 0.155318 0)
(0.358628 -0.102068 0)
(0.268448 -0.125678 0)
(0.165324 -0.0818001 0)
(0.0899749 -0.0358823 0)
(0.0601898 -0.0074088 0)
(0.0568703 0.00535553 0)
(0.0635129 0.0147209 0)
(0.0889622 0.0361352 0)
(0.138714 0.0793031 0)
(0.215361 0.0461356 0)
(0.226475 -0.118384 0)
(0.0261303 -0.41989 0)
(-0.789247 -0.514894 0)
(-1.26773 0.176764 0)
(-0.957219 0.339144 0)
(-0.449828 0.190439 0)
(0.00219248 0.00797487 0)
(-0.0181293 0.065966 0)
(0.0845988 0.0250599 0)
(0.0487191 0.0092567 0)
(0.0681812 0.00578935 0)
(0.0676107 0.000786761 0)
(0.0667242 -0.00112147 0)
(0.0648187 -0.00143998 0)
(0.0629391 -0.000917903 0)
(0.062016 3.39027e-05 0)
(0.0626907 0.00104436 0)
(0.0638276 0.000654815 0)
(0.0643044 0.000196211 0)
(0.0641855 -0.000154019 0)
(0.0642534 -0.000287212 0)
(0.0626664 -0.000672238 0)
(0.065187 -0.000579394 0)
(0.0554671 -0.00104915 0)
(0.0737958 0.000320759 0)
(0.0320183 0.00297501 0)
(0.103138 0.0125146 0)
(-0.0199385 0.0400682 0)
(0.123919 0.118309 0)
(-0.199059 0.399885 0)
(-0.826119 0.0509353 0)
(-0.0843293 0.0138163 0)
(0.13058 0.112266 0)
(0.227052 0.0419739 0)
(0.327358 0.083021 0)
(0.419697 -0.0648377 0)
(0.264384 -0.0715253 0)
(0.105186 -0.0379993 0)
(0.0502708 -0.0130315 0)
(0.0342082 -0.00160443 0)
(0.0354289 0.00274847 0)
(0.044168 0.00650186 0)
(0.0702844 0.0171393 0)
(0.128185 0.0394288 0)
(0.220539 0.0240481 0)
(0.201453 -0.0528013 0)
(-0.00950873 -0.229876 0)
(-0.58028 -0.250339 0)
(-0.988059 0.138212 0)
(-0.555571 0.198674 0)
(-0.00373876 0.0899754 0)
(-0.0348146 -0.0546727 0)
(-0.044917 0.0355278 0)
(0.0501437 0.0110876 0)
(0.0217234 0.00475884 0)
(0.0465996 0.00358366 0)
(0.0456598 0.000340663 0)
(0.0451031 -0.000507521 0)
(0.0436198 -0.000660112 0)
(0.0422222 -0.000406136 0)
(0.0417221 3.75221e-05 0)
(0.0424892 0.00048669 0)
(0.0435538 0.000288493 0)
(0.0440477 7.65354e-05 0)
(0.0439902 -9.13058e-05 0)
(0.0440127 -0.000124129 0)
(0.0426275 -0.00035283 0)
(0.044749 -0.000206523 0)
(0.0361786 -0.000381546 0)
(0.0528587 0.000539427 0)
(0.0172671 0.00280916 0)
(0.0879323 0.0108196 0)
(-0.00600191 0.0332839 0)
(0.241496 0.103931 0)
(0.131578 0.489621 0)
(0.722591 0.207056 0)
(-0.105877 -0.0120735 0)
(0.0204073 0.022788 0)
(0.114687 0.00417304 0)
(0.198307 0.0210514 0)
(0.227143 -0.0235925 0)
(0.109478 -0.0103641 0)
(0.034581 -0.0035307 0)
(0.0124356 -0.00091856 0)
(0.00719833 -2.85247e-05 0)
(0.00852912 7.23754e-05 0)
(0.011675 1.91776e-05 0)
(0.022192 0.00108877 0)
(0.0531581 0.00427801 0)
(0.107077 0.00142812 0)
(0.104456 -0.00395737 0)
(0.0243965 -0.0489638 0)
(-0.473955 -0.0133645 0)
(-0.548331 0.0367904 0)
(-0.22904 0.0198393 0)
(0.0171367 0.0199107 0)
(-0.057106 -0.00225088 0)
(-0.0428536 0.0128234 0)
(0.0177253 0.00228568 0)
(0.000613484 0.00127275 0)
(0.020004 0.000531146 0)
(0.0180391 3.22671e-05 0)
(0.0179004 -0.000115997 0)
(0.0170507 -0.000117994 0)
(0.0163023 -7.27904e-05 0)
(0.0160406 -7.04375e-06 0)
(0.0164232 7.76345e-05 0)
(0.0169382 2.9654e-05 0)
(0.0171435 4.62533e-06 0)
(0.0170728 -2.54073e-05 0)
(0.0170535 6.48946e-06 0)
(0.0163099 -0.000109268 0)
(0.01754 0.000123425 0)
(0.0126446 -0.000216322 0)
(0.0233639 0.000705445 0)
(0.00359404 0.000329984 0)
(0.0508309 0.00475966 0)
(0.00664855 0.00944671 0)
(0.211881 0.0374592 0)
(0.262161 0.231591 0)
(1.3154 0.115494 0)
)
;

boundaryField
{
    AirInlet
    {
        type            fixedValue;
        value           uniform (0.1 0 0);
    }
    WaterInlet
    {
        type            fixedValue;
        value           uniform (0.1 0 0);
    }
    ChannelWall
    {
        type            fixedValue;
        value           uniform (0 0 0);
    }
    Outlet
    {
        type            pressureInletOutletVelocity;
        value           nonuniform List<vector> 
15
(
(-0.912033 0 0)
(-0.671033 0 0)
(0.958058 0.254383 0)
(1.3775 0.027342 0)
(1.4035 -0.170535 0)
(1.13353 -0.22562 0)
(0.807247 -0.259695 0)
(0.475941 -0.312936 0)
(0.42715 -0.358212 0)
(-0.138747 -0 0)
(-1.54257 -0 0)
(-1.34551 -0 0)
(-0.818893 0 0)
(0.722591 0.207056 0)
(1.3154 0.115494 0)
)
;
    }
    FrontAndBack
    {
        type            empty;
    }
}


// ************************************************************************* //
