/*--------------------------------*- C++ -*----------------------------------*\
| =========                 |                                                 |
| \\      /  F ield         | OpenFOAM: The Open Source CFD Toolbox           |
|  \\    /   O peration     | Version:  2.3.0                                 |
|   \\  /    A nd           | Web:      www.OpenFOAM.org                      |
|    \\/     M anipulation  |                                                 |
\*---------------------------------------------------------------------------*/
FoamFile
{
    version     2.0;
    format      ascii;
    class       volScalarField;
    location    "3.5e-05";
    object      alpha.fuel;
}
// * * * * * * * * * * * * * * * * * * * * * * * * * * * * * * * * * * * * * //

dimensions      [0 0 0 0 0 0 0];

internalField   nonuniform List<scalar> 
7500
(
1
1
1
1
1
1
1
1
1
1
1
1
1
1
1
1
1
1
1
1
1
1
1
1
1
1
1
1
1
1
1
1
1
1
1
1
1
1
1
1
1
1
1
1
1
1
1
1
1
1
1
1
1
1
1
1
1
1
1
1
1
1
1
1
1
1
1
1
1
1
1
1
1
1
1
1
1
1
1
1
1
1
1
1
1
1
1
1
1
1
1
1
1
1
1
1
1
1
1
1
1
1
1
1
1
1
1
1
1
1
1
1
1
1
1
1
1
1
1
1
1
1
1
1
1
1
1
1
1
1
1
1
1
1
1
1
1
1
1
1
1
1
1
1
1
1
1
1
1
1
1
1
1
1
1
1
1
1
1
1
1
1
1
1
1
1
1
1
1
1
1
1
1
1
1
1
1
1
1
1
1
1
1
1
1
1
1
1
1
1
1
1
1
1
1
1
1
1
1
1
1
1
1
1
1
1
1
1
1
1
1
1
1
1
1
1
1
1
1
1
1
1
1
1
1
1
1
1
1
1
1
1
1
1
1
1
1
1
1
1
1
1
1
1
1
1
1
1
1
1
1
1
1
1
1
1
1
1
1
1
1
1
1
1
1
1
1
1
1
1
1
1
1
1
1
1
1
1
1
1
1
1
1
1
1
1
1
1
1
1
1
1
1
1
1
1
1
1
1
1
1
1
1
1
1
1
1
1
1
1
1
1
1
1
1
1
1
1
1
1
1
1
1
1
1
1
1
1
1
1
1
1
1
1
1
1
1
1
1
1
1
1
1
1
1
1
1
1
1
1
1
1
1
1
1
1
1
1
1
1
1
1
1
1
1
1
1
1
1
1
1
1
1
1
1
1
1
1
1
1
1
1
1
1
1
1
1
1
1
1
1
1
1
1
1
1
1
1
1
1
1
1
1
1
1
1
1
1
1
1
1
1
1
1
1
1
1
1
1
1
1
1
1
1
1
1
1
1
1
1
1
1
1
1
1
1
1
1
1
1
1
1
1
1
1
1
1
1
1
1
1
1
1
1
1
1
1
1
1
1
1
1
1
1
1
1
1
1
1
1
1
1
1
1
1
1
1
1
1
1
1
1
1
1
1
1
1
1
1
1
1
1
1
1
1
1
1
1
1
1
1
1
1
1
1
1
1
1
1
1
1
1
1
1
1
1
1
1
1
1
1
1
1
1
1
1
1
1
1
1
1
1
1
1
1
1
1
1
1
1
1
1
1
1
1
1
1
1
1
1
1
1
1
1
1
1
1
1
1
1
1
1
1
1
1
1
1
1
1
1
1
1
1
1
1
1
1
1
1
1
1
1
1
1
1
1
1
1
1
1
1
1
1
1
1
1
1
1
1
1
1
1
1
1
1
1
1
1
1
1
1
1
1
1
1
1
1
1
1
1
1
1
1
1
1
1
1
1
1
1
1
1
1
1
1
1
1
1
1
1
1
1
1
1
1
1
1
1
1
1
1
1
1
1
1
1
1
1
1
1
1
1
1
1
1
1
1
1
1
1
1
1
1
1
1
1
1
1
1
1
1
1
1
1
1
1
1
1
1
1
1
1
1
1
1
1
1
1
1
1
1
1
1
1
1
1
1
1
1
1
1
1
1
1
1
1
1
1
1
1
1
1
1
1
1
1
1
1
1
1
1
1
1
1
1
1
1
1
1
1
1
1
1
0.99946933
0.99641795
0.99177424
0.98501462
0.97583691
0.96535571
0.94567956
1
1
1
1
1
1
1
1
1
1
1
1
1
1
1
1
1
1
1
1
1
1
1
1
1
1
1
1
1
1
1
1
1
1
1
1
1
1
1
1
1
1
1
1
1
1
1
1
1
1
1
1
0.99963379
0.99433402
0.98435245
0.96868207
0.94711672
0.92036361
0.88476369
0.82927641
0.7674385
0.70769662
0.65039208
0.59237164
0.53840414
0.48573084
0.4308297
0.38023554
0.32898577
0.28068531
0.23542069
0.19553172
0.15801066
0.12895952
0.083745188
1
1
1
1
1
1
1
1
1
1
1
1
1
1
1
1
1
1
1
1
1
1
1
1
1
1
1
1
1
1
1
1
1
1
1
1
1
1
1
1
1
1
0.99247621
0.9750216
0.94763878
0.90947581
0.83562633
0.74888347
0.66122432
0.57704058
0.49102458
0.41230035
0.33172464
0.25890273
0.19317554
0.1361033
0.087640519
0.038182871
9.0744712e-10
3.6405095e-10
3.6405094e-10
3.6405094e-10
3.6405094e-10
3.6405094e-10
3.6405289e-10
3.6405287e-10
3.6405191e-10
3.6405178e-10
3.6405177e-10
3.6405244e-10
3.6405111e-10
3.6405111e-10
3.6405119e-10
3.6405181e-10
3.6405181e-10
1
1
1
1
1
1
1
1
1
1
1
1
1
1
1
1
1
1
1
1
1
1
1
1
1
1
1
1
1
1
1
1
1
1
0.98841604
0.96140126
0.91363049
0.81452714
0.69790439
0.5810887
0.46750592
0.35261891
0.25092423
0.158516
0.092049961
0.0016653947
7.2868274e-10
6.9839667e-10
6.9839646e-10
6.9839637e-10
6.9839633e-10
6.9839631e-10
6.9839821e-10
6.9839874e-10
6.9839449e-10
6.9839449e-10
6.9839449e-10
6.983945e-10
1.0811442e-09
2.4357281e-09
7.2787226e-10
7.8297834e-10
7.5420412e-10
7.2391866e-10
1.111485e-06
5.4641432e-07
5.7473641e-08
8.9110892e-09
7.1821374e-10
5.031775e-07
7.4114785e-10
7.3474656e-10
2.0365454e-08
1.6227638e-07
7.0580472e-10
1
1
1
1
1
1
1
1
1
1
1
1
1
1
1
1
1
1
1
1
1
1
1
1
1
1
1
1
0.9814739
0.92769986
0.81456963
0.67053724
0.52124693
0.37171933
0.2321559
0.12779819
0.0015626144
2.5827524e-09
2.5585204e-09
2.5585173e-09
2.5585173e-09
2.5585173e-09
2.5585173e-09
2.5592693e-09
2.560124e-09
2.593397e-09
1.9762592e-07
1.0542457e-07
4.9008875e-08
2.6661487e-08
1.2671818e-08
5.6951926e-09
6.9632591e-07
1.3335804e-06
1.3249019e-09
1.1484677e-09
1.1677163e-09
1.3155854e-09
1.948092e-06
2.1703337e-09
0.00070304852
0.018046095
0.012784609
0.003019974
4.8525729e-05
2.2455698e-05
1.0756086e-08
9.854891e-09
2.5718509e-05
0.00013685323
0.00013633715
6.2637223e-05
1.0000322e-06
8.8651773e-10
0.00029123387
1
1
1
1
1
1
1
1
1
1
1
1
1
1
1
1
1
1
1
1
1
1
1
0.97703699
0.901068
0.73840966
0.55533634
0.36056921
0.20002499
0.024681231
3.2094633e-09
2.934196e-09
2.9341834e-09
2.9341576e-09
2.9341549e-09
2.9344945e-09
3.0292289e-09
3.1829935e-09
1.2622872e-06
3.0777954e-09
3.1511554e-09
3.0969651e-09
3.165433e-09
0.00015064154
0.00013093628
8.8260548e-05
1.0749453e-05
4.7959678e-08
1.5508702e-07
1.2295894e-06
6.6841102e-09
6.0865776e-09
8.2453885e-05
0.00022378177
0.00026105111
0.0008626733
0.0010810688
0.0007406065
2.3088231e-05
2.1370558e-09
0.023968031
0.056570525
0.056570525
0.028028368
4.4521165e-09
4.4582908e-07
0.003187904
0.004289965
0.0011471706
9.1750471e-05
0.00043524813
0.00017156395
1.2228472e-09
8.7137463e-10
0.0011078626
1
1
1
1
1
1
1
1
1
1
1
1
1
1
1
1
1
1
1
0.96452044
0.84687652
0.64257975
0.40896195
0.19583778
4.7076092e-09
3.4547555e-09
3.4547709e-09
3.4548031e-09
3.4554715e-09
3.4700282e-09
3.9175625e-09
2.9180416e-05
2.5395e-05
1.1223244e-05
1.4510586e-05
6.4182684e-05
0.00026069486
0.00010705933
0.00036616286
0.0005538041
0.002779038
0.0019418346
0.0034260486
0.0069656308
0.006965983
0.0018396695
8.773983e-08
4.5813106e-06
6.1913616e-06
1.5296844e-09
0.0049368519
0.0024336099
3.9760294e-05
1.5252199e-07
0.00034156354
0.0022741381
0.0022741376
0.00088672717
2.1782346e-08
0.0021838098
0.0064002069
0.0097868191
0.03764406
0.003927851
4.0606386e-09
3.5873296e-09
0.0086150886
0.0086170924
0.0086170924
0.004677093
3.4519483e-09
3.1137102e-09
7.3776985e-09
6.2850157e-08
2.4002294e-09
1
1
1
1
1
1
1
1
1
1
1
1
1
1
1
1
0.92148707
0.7201436
0.45666155
0.15983271
5.7542945e-09
4.7319882e-09
4.7319961e-09
4.7321777e-09
5.2812616e-09
4.4939205e-09
5.0739971e-06
8.4055791e-06
0.00012113716
0.00041323575
0.00053884416
0.00053850992
7.4002693e-05
2.4798472e-08
0.00015510512
0.0014568193
0.0014566447
0.00034590409
4.8707387e-08
0.0054821874
0.00695429
0.0069566104
0.0069649178
0.0069652757
0.0021500472
6.3794358e-08
2.0886488e-06
2.935228e-05
1.61318e-09
1.5059701e-09
0.0057265359
0.0059677057
0.0004027931
1.5285637e-07
1.5335079e-07
7.6795187e-05
7.9230337e-05
0.00037015696
0.00054792282
0.00029695633
4.7062958e-09
4.407082e-09
4.3702364e-09
3.9608644e-09
3.887861e-09
3.5872492e-09
0.004513067
0.0018722966
0.0031191193
0.00036973752
3.9060236e-09
2.4671169e-07
1.0132068e-06
9.119842e-07
6.5578492e-06
1
1
1
1
1
1
1
1
1
1
1
1
1
0.93061297
0.71718935
0.40670855
0.047447857
5.6713145e-09
5.2623502e-09
5.2624061e-09
6.1725745e-09
5.6514554e-09
9.7047742e-07
2.8722175e-05
0.0011504549
0.0033645139
0.00060175765
0.0010752064
0.0026511077
0.0026529349
0.0016629811
1.4013407e-06
1.7086302e-06
1.3069287e-07
7.3853829e-09
0.00027624592
5.2197846e-09
2.9512566e-06
2.9113761e-07
3.677194e-08
3.6771923e-08
3.6934245e-08
0.0021327062
0.0069639947
7.1660208e-09
0.00028938122
7.9733382e-06
3.129613e-09
7.3780705e-07
1.5059901e-09
1.5756643e-09
0.0038145564
0.0020151705
0.00086202237
0.0065477179
0.0034950858
0.0022178866
0.0044189482
0.00076808456
0.00013723259
0.0049611027
0.0046561666
3.6600855e-05
0.00024238832
0.00030323876
0.0060519724
5.5725725e-07
3.4160526e-06
6.3385003e-09
6.5196021e-09
2.1132765e-07
6.3451748e-06
4.105036e-07
8.5217559e-10
3.7714173e-05
1
1
1
1
1
1
1
1
1
1
1
0.86961311
0.54741573
0.10411336
5.2948049e-09
4.5650974e-09
4.5651045e-09
5.5666388e-09
5.2678051e-09
6.9833208e-06
0.0004628682
0.00016109278
9.6975758e-09
0.0041013509
0.0048416063
0.0048415511
4.2502119e-09
4.250211e-09
4.2502099e-09
4.2502093e-09
4.2502091e-09
4.2507613e-09
0.00039066203
1.3146774e-07
4.1689019e-06
5.6915405e-09
5.0777192e-09
2.9017123e-05
1.0720098e-06
3.7268209e-08
3.720024e-08
0.00087994498
9.0267792e-08
0.0021731883
1.9520388e-05
0.00089634117
0.00015936635
3.0875342e-09
0.0014649157
0.006850347
0.00025484407
1.9150967e-05
1.8941203e-05
0.0068260462
0.0089890483
0.0089890481
0.008340514
0.0056910199
0.00013723287
0.00013723236
0.009987595
0.0022013898
2.1782092e-08
0.0018846378
0.0020682816
0.0015766298
0.00010211593
0.0058326504
6.1290966e-09
0.0013401623
0.00015492456
1.6943794e-06
1.1892712e-09
8.4842522e-10
6.1674539e-10
1
1
1
1
1
1
1
1
1
0.84749621
0.45641812
0.0050141362
6.3851484e-09
6.3326509e-09
6.3297291e-09
5.5877251e-09
2.9006974e-07
0.00024834344
6.3810634e-09
0.00079651166
0.0017430537
0.0004754107
9.6461159e-09
8.739418e-09
0.0048416015
0.00029361434
4.8699987e-09
4.8640908e-09
5.3370766e-09
5.0656105e-09
4.6937957e-09
4.9071101e-09
0.0010331985
0.00045160686
0.00012761091
4.7575877e-05
0.0020724454
3.9126799e-08
3.8464167e-08
3.7773412e-08
0.00048028598
0.002636293
1.4138711e-07
3.276126e-08
3.297355e-08
0.00031232921
1.2052518e-06
0.0007176792
0.0015468995
0.001764252
3.8878491e-08
0.0053028531
0.002021816
5.2250181e-05
0.00044522328
0.0072704136
0.0015846534
0.0022237055
0.00023268456
0.02607837
0.017421371
7.215865e-08
4.7607487e-05
1.5283749e-07
1.5313146e-07
1.5276749e-07
3.2538998e-05
0.001807304
1.8350502e-08
0.0054852049
0.00018346365
1.2731859e-07
0.0037955493
0.0013094433
9.2037718e-10
1
1
1
1
1
1
1
0.89292634
0.5100095
0.0080955937
6.4473165e-09
6.4452572e-09
7.9177793e-09
0.00018230259
0.00013374402
6.636685e-05
2.909451e-07
0.00097454704
6.4241476e-09
6.4327517e-09
6.4437324e-09
6.5069423e-09
1.5064879e-06
1.6998136e-05
0.0043448698
6.2627395e-09
1.9349148e-05
0.00016908418
0.00285462
0.00066797205
5.5984434e-09
7.3002238e-05
0.00087703101
0.00087582716
3.1517043e-09
3.2762683e-09
0.0015595943
0.0081060334
0.010126794
0.0025500308
0.0025457789
3.9418644e-05
0.00071685622
3.2471956e-08
5.7528073e-05
5.2918661e-07
0.0026567609
0.003242446
5.6542652e-08
9.5192317e-09
0.0015943325
0.00067691922
0.00066747165
0.00012214663
0.00048580316
7.2175763e-08
7.1771382e-08
7.1505344e-08
0.00075408924
0.044262867
0.044262867
0.028022975
2.2413673e-05
0.00042282778
0.0042807105
1.5255538e-07
0.002248187
8.0879374e-07
0.0023997411
0.0043153606
0.00018456383
0.0021766832
0.0047581055
0.0047581055
0.0009087647
1
1
1
1
1
1
0.73674839
0.10599173
7.153805e-09
6.3567578e-09
6.357187e-09
6.4773324e-09
0.00071520209
0.0014820283
0.0014775347
0.00041342696
0.00013664297
4.915103e-09
4.5734559e-06
3.101923e-06
9.3707926e-06
1.5874538e-05
2.3669556e-05
0.0026192117
0.0015786329
5.8089072e-09
5.6219982e-09
0.002759676
0.002941146
0.0010329222
6.7770339e-09
0.0025469515
2.2512671e-08
3.6384483e-09
3.6172568e-09
3.175414e-09
6.0379957e-07
0.012844532
0.012826506
0.00626138
8.614132e-05
0.00020888851
0.00087830314
0.00016729821
0.00032989149
1.1096118e-05
4.5650424e-05
0.00075330094
9.6661391e-09
9.1900025e-09
0.0035321101
0.00077802555
0.00038100302
0.00053495159
0.0053063931
0.0026306662
0.00036943736
7.1749565e-08
0.045376919
0.022840283
0.0068889914
0.0037702334
2.2413608e-05
0.005527976
0.012805732
0.012797576
0.012805732
0.0014355812
0.0054580533
3.7928616e-10
0.0031465578
0.0033194874
0.00079388378
0.0036223472
0.0028707746
1
1
1
1
0.9692906
0.47610599
1.087019e-08
8.5922756e-09
8.8119258e-09
8.8930953e-09
6.360476e-09
4.6593812e-06
0.001281562
6.4258895e-05
0.0014750208
4.8291841e-07
0.00068175581
4.8789622e-09
1.5623511e-05
8.0956723e-05
8.1328617e-05
8.143301e-05
3.8638341e-05
0.0049778109
0.0019333661
0.00019166709
7.2364814e-06
6.1258075e-09
6.1253817e-09
0.0029736998
0.00030532392
0.002462221
0.00092413492
3.975398e-05
1.2304133e-05
1.3986526e-08
4.5646725e-09
0.0031814549
5.9922341e-09
0.0018571952
0.00030668345
4.1559745e-09
3.8991816e-09
0.00020490753
4.9768143e-09
5.3276532e-09
5.069794e-09
5.1583126e-09
0.00057462219
6.480667e-06
0.0012492769
0.002733675
0.0019971803
1.2347256e-07
1.2312171e-07
0.0052427472
0.0015071006
0.0031416068
0.054814896
0.011951549
2.5926013e-09
2.315482e-09
2.2423724e-05
7.1661735e-08
0.0047239529
0.0078196024
0.010954997
0.0032531512
9.3563301e-10
4.957783e-08
1.1924823e-10
1.1924758e-10
1.1924832e-10
1.1924847e-10
1.1924865e-10
1
1
1
0.95609634
0.26605814
1.478986e-08
1.3162013e-08
1.4273409e-05
1.0440361e-05
4.9926244e-06
8.2342556e-09
9.3902102e-09
9.4384939e-09
0.00053830862
0.00066583513
1.1276869e-05
5.7252254e-05
4.6506422e-09
4.5584765e-09
4.5584955e-09
4.5585069e-09
5.1951811e-09
5.0794039e-05
0.0049778111
5.576704e-05
1.6625126e-05
9.7810965e-05
7.0449001e-09
6.5707595e-09
0.0032808651
0.00020774661
7.9325099e-09
0.0026968921
0.0020552355
0.00054183571
4.2181569e-09
3.3157469e-07
5.9934365e-09
5.9794475e-09
5.426026e-09
0.00030660171
2.3232723e-06
3.845252e-09
1.5754173e-09
1.8733364e-09
0.00091304328
4.8118324e-09
0.0015851157
0.0022290456
0.0001901487
1.6623593e-08
0.0019368938
0.00010245556
0.0034210555
0.00031084712
0.00033977802
1.1501848e-05
0.0022307586
0.049657695
0.01000702
2.3231964e-09
2.0412609e-09
1.8142137e-05
9.7087193e-06
3.2971175e-09
3.5653113e-09
3.8811936e-09
0.00019138526
8.2581128e-09
1.3275061e-09
5.0061339e-10
2.5183792e-10
1.9690897e-09
1.9456919e-09
1.7689444e-09
1
1
0.98699042
0.24886764
1.8735391e-08
1.6709415e-08
5.0783874e-05
6.5074468e-05
3.0178542e-05
6.9799926e-09
0.00014154783
1.4756998e-05
1.1003291e-08
0.0011974316
1.2307818e-08
2.6302837e-06
2.6530898e-06
1.6456933e-05
4.559072e-09
5.4483883e-09
5.2988199e-09
3.0966439e-05
0.0023043633
0.0025834822
1.6492048e-07
1.6526608e-07
1.6574341e-07
0.00054880967
0.0002069942
0.00015509519
8.0969778e-09
7.9325105e-09
0.0015789073
4.9599284e-05
6.4254099e-05
3.736922e-09
3.7356678e-09
6.4021095e-05
0.0069427189
2.3042504e-06
3.6534487e-05
1.4179647e-07
2.5647645e-09
1.9271254e-09
1.922657e-09
0.0025542106
0.0018499091
0.0023849947
5.9761433e-05
1.744727e-08
1.6968588e-08
0.00024873419
0.00010344879
0.015376373
0.0028106076
1.1502099e-05
1.1501784e-05
0.0037948253
2.9030378e-09
2.4975266e-09
2.1142022e-09
2.0408288e-09
2.3579764e-09
2.6164549e-09
4.4028428e-06
1.0780751e-08
3.7772479e-09
2.1840608e-09
3.8431745e-09
1.5860288e-09
6.8942779e-10
4.0793429e-10
8.0030341e-09
1.1631378e-08
7.8803757e-09
1
1
0.31565297
2.1355466e-08
1.8795599e-08
9.0833827e-06
9.6589414e-05
1.0929531e-05
5.3987583e-09
5.3968197e-09
0.00018643707
0.00015121189
0.0004360651
0.00032820418
1.9569056e-08
1.207093e-08
0.00029657069
5.4494619e-08
5.9910817e-09
5.8693584e-09
6.036776e-09
4.5546069e-07
0.0029759189
2.929757e-05
5.8658731e-05
0.00028291061
0.0001947583
0.00078893308
0.00078738019
1.4529693e-06
0.0018549186
7.9397993e-09
7.1136121e-09
7.2854196e-09
7.113703e-09
0.0076002463
0.0019475076
0.0046899286
0.010823383
1.434282e-05
3.0370758e-08
1.1353978e-05
3.2500701e-05
2.7481257e-06
1.9245555e-09
0.0015304777
0.0026512923
0.0016535895
1.8339736e-08
1.7873823e-08
4.4502139e-05
3.8938571e-06
0.01480697
0.015376373
0.0054196417
1.1502296e-05
1.1501901e-05
0.00057452951
0.00023275204
2.3054736e-09
2.0453785e-09
2.037642e-09
2.038286e-09
0.00032443489
0.00018847569
1.9750245e-09
1.540987e-09
2.0120327e-09
1.1266667e-08
1.5886486e-09
8.8155716e-10
8.6493762e-10
2.1408761e-08
1.8684283e-08
1.1876657e-08
1
0.6458582
0.024757388
0.00027756269
2.0805904e-08
6.0762154e-05
1.2737249e-08
1.247026e-08
3.4399778e-08
8.0554794e-09
5.9040919e-09
5.9040869e-09
0.00066872563
8.9112608e-09
1.2935808e-08
1.3378018e-08
0.0010684824
2.9891175e-08
0.00054781485
6.4878886e-09
0.00018204685
0.0025873026
0.0024370347
0.0004353081
0.0010290428
0.0010308505
0.0010353726
3.2788416e-05
5.1989038e-09
5.1932654e-09
0.0033442909
0.0033470582
7.952746e-09
8.959893e-05
7.8433386e-09
0.00619047
0.0081440158
0.00027588534
0.0063289129
3.0468491e-08
3.0015945e-08
9.901612e-07
3.3948467e-05
1.8047715e-05
2.4368805e-09
2.6329773e-09
0.0013011496
0.00010993237
0.00033276567
0.0033874179
0.0032511985
3.894246e-06
0.010342488
0.015376373
0.011024413
6.7988586e-05
9.7619579e-05
1.0448605e-07
2.037046e-05
2.043918e-09
2.0443225e-09
0.0021850201
0.0022611644
0.00073341042
8.0766838e-08
2.2161803e-07
4.1078667e-09
3.7840763e-09
2.3533159e-08
1.7608862e-09
3.7185107e-05
7.6990975e-08
2.6299805e-08
2.0086239e-08
1.2028709e-08
0.96995759
0.080745869
4.6973962e-08
4.7194647e-08
4.9192011e-05
4.6206204e-08
4.5850384e-08
7.7822603e-08
4.5935639e-08
8.7505003e-09
7.1476304e-09
7.0783913e-09
7.0784476e-09
7.0785053e-09
8.4994532e-09
0.00075566622
0.001294655
0.00019544397
0.00062858265
5.6787012e-06
0.0029275832
0.002927583
3.461053e-05
0.0029970984
4.6259674e-09
4.6259674e-09
4.6259673e-09
4.8672855e-09
5.7467715e-09
5.7413269e-09
5.657896e-05
0.0040000393
0.0020756714
0.0042610808
0.003843054
7.442765e-06
0.0058612816
0.00032554402
2.9152271e-09
0.0012152098
3.0220243e-08
3.4017527e-06
3.0755641e-09
3.0709536e-09
0.0056243979
0.00080505764
1.8734652e-09
1.544651e-09
0.0031336844
0.0043791337
2.2046272e-07
0.0010749237
9.7788953e-05
0.0078214968
0.015225831
0.0036235488
0.0097218398
1.0406639e-07
1.0399629e-07
0.026590904
0.029860931
0.0049769417
1.4416806e-06
0.00010120207
5.5396564e-05
2.5486334e-05
3.6213357e-10
3.6251327e-10
2.1574395e-08
1.0660938e-05
9.3803974e-05
8.3863348e-05
2.0113064e-07
2.0222349e-08
3.5291711e-05
0.32159326
4.2920567e-08
4.3556484e-08
1.2288791e-06
6.5087242e-08
1.0034025e-07
8.0026226e-08
7.7024481e-08
7.0857841e-08
4.115035e-06
4.3592721e-06
2.328325e-06
7.4186688e-09
0.0012020541
3.9195636e-05
0.0012849665
0.0012993411
0.0013937049
6.0215103e-08
0.0016003662
0.002927583
0.0022535314
0.00021206514
0.0028266064
4.626078e-09
4.7271679e-09
4.6259816e-09
2.8356362e-05
0.0019626475
0.00055296921
9.2351086e-09
0.0003549173
0.00424816
0.0042534541
0.0042234454
0.0005360977
3.4745754e-09
2.9009186e-09
2.9009205e-09
0.002546623
0.00078243064
4.7623223e-09
5.5940737e-09
3.0709541e-09
0.0066192939
0.0014214728
1.8502148e-09
1.5141946e-09
1.5238957e-09
0.00045868266
2.2055089e-07
0.0046197137
0.00029653718
1.8946399e-09
0.013446176
0.0078065517
8.9376573e-08
0.031114038
1.0400823e-07
0.070044197
0.070048512
0.012725308
5.6945202e-09
5.5730477e-09
5.5729663e-09
5.5679435e-09
0.0014026932
2.8662932e-05
2.1788571e-08
6.2299686e-05
5.6309392e-05
9.3804673e-05
1.5934744e-05
1.0067028e-05
0.00013422749
0.10212743
3.8777209e-08
3.471088e-08
5.7942257e-06
6.4982428e-08
6.1437793e-08
4.1168639e-08
5.2388934e-08
3.1567589e-08
1.0470047e-05
0.00022375524
0.00011442536
2.8275544e-07
0.0012673307
0.00023812997
3.9319036e-09
5.8527226e-05
0.0011998144
2.6605423e-05
0.00079308366
0.0012217266
2.5924253e-07
4.1730067e-05
4.1610381e-09
5.6024264e-09
4.6664929e-09
4.6260153e-09
0.00074741875
0.0022840232
0.0022646265
8.7939563e-09
3.0788007e-06
1.5231834e-09
1.5589331e-09
1.8328105e-09
3.716194e-05
3.0725903e-09
2.9981255e-09
6.4166675e-09
2.715213e-09
2.9655418e-05
4.3979556e-09
3.9880569e-09
3.6112913e-09
0.0066269783
8.7870879e-07
2.2062967e-07
1.514556e-09
4.9070313e-05
4.7803214e-05
0.0072990918
2.1554057e-09
1.8873714e-09
1.8873696e-09
0.0046357744
0.0094550759
0.0020259496
0.0087954713
0.065403695
0.054582983
0.030610948
0.030549782
0.026884565
0.016253763
0.0025902773
0.0039984506
0.0001360589
1.1095376e-07
1.1069493e-07
1.272317e-09
1.2723163e-09
3.425906e-05
4.9722069e-05
9.027203e-05
0.00010171634
3.0654986e-08
3.0920785e-08
3.4694525e-08
3.5067547e-08
2.969964e-06
2.565809e-08
2.2660402e-08
4.2013961e-08
2.9930987e-08
1.1820585e-08
0.00026626653
3.153177e-07
0.0004988602
0.00059331349
3.9328192e-09
3.9285386e-09
3.9363738e-09
4.3322408e-09
2.9928223e-09
2.9927391e-09
2.9928025e-09
4.5034207e-06
0.00019407493
3.0054275e-09
3.5784622e-09
4.5554624e-09
5.3984632e-09
0.0012223098
0.0017569352
1.182163e-05
0.00052498229
0.00044300172
5.287208e-07
7.6283108e-10
0.0010830784
0.0011955304
0.00010969025
3.4071757e-09
2.2436567e-06
5.9399643e-07
6.1307961e-08
0.010689718
0.0094622742
0.020002231
0.0066331621
1.8197639e-09
2.0358899e-09
0.0012963888
0.00046638783
1.3470574e-09
0.020806885
0.004567821
2.201834e-09
1.8873709e-09
0.00082334018
0.0063090607
0.0020238427
1.1693461e-07
0.036748273
0.0096236851
7.6945031e-08
0.012297997
0.0050475022
0.0006743302
0.00085337957
0.00022871516
0.00081840859
0.00018556299
1.586456e-09
1.4109759e-09
1.3388592e-09
1.2721276e-09
1.2721264e-09
1.2721258e-09
1.272126e-09
3.4782887e-06
3.4268248e-08
0.00018536155
1.7437822e-07
4.1353352e-06
1.7920297e-06
2.4087412e-08
4.958601e-08
1.9835316e-08
1.1911479e-08
0.00014008202
3.1902142e-06
0.00072996516
5.4508539e-09
4.1863595e-09
4.0648496e-09
3.0725781e-09
3.3497586e-09
3.9809183e-09
3.6967975e-09
4.0711196e-09
3.0010214e-09
2.9938363e-09
3.005294e-09
0.00037824697
0.004407277
0.0038708841
0.0038660253
0.00020158488
3.6231792e-05
0.0022476936
0.00010734533
2.636068e-05
7.5454873e-10
0.0027302904
0.0010410834
1.9669568e-05
1.9648151e-05
1.8029025e-06
3.1004656e-08
0.015312931
0.02186993
0.021825926
0.021804237
0.00037903702
1.3935038e-09
0.00067317572
0.0014194797
0.00079525279
1.3238399e-09
0.012440812
0.016563583
0.010490232
2.2423414e-09
0.00045245756
0.00028579534
0.0023639479
0.00031986521
2.7597122e-08
2.7359245e-08
1.1288467e-07
1.2555997e-09
1.0602061e-09
1.2129431e-09
1.3871342e-09
1.4193045e-09
0.0025930199
0.00019621419
1.8929571e-09
9.989892e-06
1.5116339e-09
1.4262757e-09
1.4327527e-09
1.4133587e-09
1.5467243e-09
1.8071471e-05
1.8407093e-05
0.00025116165
1.9282862e-08
1.9280239e-08
2.0132676e-08
3.8422464e-07
6.0425982e-08
3.7652862e-07
2.8952033e-08
8.4236161e-09
8.4192759e-09
8.4153269e-09
7.0430528e-07
5.3655588e-09
0.00018924971
0.00038582934
3.0582177e-09
4.1828921e-09
0.00010110281
0.0035137624
3.0010321e-09
3.7224493e-09
0.0022765168
0.0048496107
0.0048639954
0.0048806441
0.0028090942
9.2108772e-05
1.746782e-08
0.00066079049
3.0454131e-05
8.1954213e-10
7.3752094e-10
0.00066225716
0.0019361608
0.0015015037
8.9983812e-06
2.2318604e-08
0.0011116334
0.0047365292
0.0016340129
5.9595764e-10
7.518261e-10
9.6019592e-10
1.206611e-09
0.00029620532
0.0011858804
9.0772126e-05
1.1809245e-09
1.1822257e-09
0.014284587
0.016174717
0.011222882
0.00017014118
5.5124161e-09
0.002127585
0.0004018867
2.7462555e-08
2.7175077e-08
2.7175084e-08
7.1363831e-07
8.9209632e-10
1.074109e-05
3.7977556e-06
0.00049653839
0.0008227156
3.3201815e-05
4.273628e-05
0.0014581938
0.00078838364
5.9772725e-05
1.0499988e-07
9.112204e-07
1.7046507e-09
3.301339e-08
0.00017270982
0.00025116387
2.1139202e-08
1.9277621e-08
1.7426424e-08
1.7534718e-08
5.0320973e-08
3.532301e-08
3.7874374e-08
3.3480558e-07
9.4278095e-09
9.4451305e-09
3.2074836e-08
4.0289778e-05
0.00061325153
0.00064582138
3.2257607e-09
0.0026786375
0.0034765001
0.0044095419
3.0843223e-09
1.2863161e-05
3.3515474e-05
2.4148873e-09
2.4148469e-09
2.4147819e-09
2.6484704e-09
2.7257667e-09
1.7186153e-08
9.1535392e-10
4.7211552e-10
4.7161106e-10
0.0023845999
8.3251989e-09
0.0018832983
0.00055174084
0.0026847762
0.00052246076
2.1126375e-05
8.9502883e-10
5.701284e-10
5.8133299e-10
0.012887216
0.0010345744
0.00087904012
3.4702733e-05
1.1692447e-09
8.0630354e-10
8.0664856e-10
3.6563243e-05
1.3132139e-09
0.007838664
0.015362536
0.0060329793
5.7593093e-09
0.00031351922
2.7279715e-08
2.7267285e-08
0.0028048559
0.0023623375
2.0316023e-07
8.2340871e-10
8.2335946e-10
1.450961e-05
3.5407045e-06
0.00027605293
0.0010932117
1.3657231e-05
0.0014580226
0.0014578421
0.00022771732
7.8858526e-06
3.03938e-06
4.6355308e-05
3.1658955e-08
0.00017098733
6.7838689e-05
5.1260029e-05
7.1542118e-05
1.7152913e-08
2.5946231e-08
2.8323048e-08
3.5202458e-08
3.9433794e-08
3.3682632e-07
3.8742458e-05
0.00022480421
1.087936e-08
0.00013619151
5.6961075e-09
0.00050710439
0.0034471194
0.0034514894
0.003464154
0.0012972108
3.1408261e-09
6.4664534e-05
3.7087283e-09
3.1104707e-09
3.4860454e-07
2.4263954e-09
1.9812241e-09
2.0430515e-09
1.5850553e-09
8.8829267e-10
2.1982588e-08
5.9209636e-10
0.00041899752
7.2225741e-06
0.00011056792
3.2197977e-05
0.0038301369
0.0038664298
0.0021142773
0.00035699749
9.7868975e-10
3.3926196e-06
0.023701161
0.023701161
0.0066268799
9.0068199e-10
8.4087164e-10
8.063032e-10
0.014052934
0.0043953261
1.3128907e-09
1.0837467e-09
0.00074495783
0.0097474871
0.00064301897
0.00066411532
0.021676766
0.013362676
0.00042092832
0.0043407824
8.2778184e-10
8.5401883e-10
1.0434634e-09
1.1752906e-05
5.7778744e-10
6.9394919e-05
0.002235661
3.716114e-09
0.00053449628
0.0014576557
0.00010032645
1.1215976e-05
2.5293169e-10
8.1800513e-05
3.3599453e-08
2.998683e-08
6.1356353e-05
0.00024727446
0.00024729357
1.7125594e-08
1.710687e-08
1.3759876e-06
2.3358641e-06
4.1283769e-08
4.2336589e-08
0.00039420287
0.00099225305
0.0011878967
5.6969663e-09
5.686608e-09
8.2240438e-05
0.0019869871
4.0554252e-09
4.0194673e-09
4.069823e-09
0.00083364981
0.00078121756
4.8660709e-09
0.00012217643
3.967417e-05
5.4439397e-05
0.00087565308
0.0012430895
0.0040673786
0.00020754569
2.2417846e-08
3.5159886e-05
2.800597e-09
2.4211149e-09
2.4207697e-09
3.1732733e-05
1.870426e-05
0.0011733843
0.0024731534
0.0010818912
1.4352952e-09
0.0090376468
0.02090133
0.019486066
4.1989426e-10
6.496938e-10
1.0295028e-07
1.1118111e-09
0.006776214
0.0014543526
1.5038453e-09
1.1565866e-09
1.0836741e-09
0.00033258662
0.0041099732
0.0059374452
0.043818843
0.009033259
0.00065402155
0.0043409013
0.0012935034
1.0411248e-09
0.00048349978
8.0807206e-07
4.1769845e-10
5.279127e-10
0.0012043414
1.0981506e-05
7.9215386e-10
0.001457623
0.00067650121
9.2323174e-06
2.1181892e-10
3.4334328e-06
3.4807531e-08
3.3121265e-08
0.00028561898
4.0163687e-08
8.5964212e-05
2.5801831e-06
1.5370127e-08
1.5493828e-08
2.331154e-06
8.3851516e-07
5.1525863e-06
6.0709831e-08
6.1469064e-08
0.00074340128
6.3410175e-07
5.6867615e-09
6.6822586e-06
3.0136093e-07
7.3587026e-05
4.1915669e-09
3.8748299e-06
0.00033473728
4.7850385e-09
4.7723176e-09
0.00019795971
2.7360699e-06
0.0015249682
0.0026049586
0.0045586692
0.004558669
0.00042834077
2.2948025e-08
8.3456553e-05
2.4723719e-05
2.7883015e-09
2.9549598e-09
7.5892509e-06
7.8047573e-05
2.0534861e-09
1.6340771e-09
1.623925e-09
1.5349608e-09
0.021336727
4.5682198e-10
3.0335073e-10
3.0368162e-10
1.1136872e-06
1.0316162e-07
0.035378749
0.0016603461
1.4337633e-09
1.3529363e-09
1.2482996e-09
1.1188202e-09
8.1451439e-10
0.00022549392
0.0022541942
0.02421289
7.2870716e-10
0.0021207429
0.0021234238
0.00049714656
0.00032764338
0.00062940436
1.0801089e-09
2.4988211e-07
2.3403127e-08
5.2127492e-10
7.2022497e-10
8.6497784e-10
0.00013078265
0.00094038753
5.1497415e-05
1.0597303e-10
9.9222806e-17
5.3198839e-06
2.7599991e-05
0.00028562284
3.9837686e-08
1.4986225e-08
3.0983418e-06
1.5336872e-08
1.6471728e-08
1.0414129e-08
1.0399626e-08
2.3282029e-07
1.434159e-05
0.00011538749
6.2856645e-09
5.6499339e-09
5.6947678e-09
5.9806627e-09
4.6699778e-06
0.00018433485
4.2060935e-09
4.1900088e-09
4.7640015e-09
4.7608932e-09
4.7738669e-09
0.00010282368
2.726834e-06
1.8079592e-09
1.7808408e-09
0.00085054294
0.0017394672
0.0018345119
4.9822681e-05
3.4884344e-09
3.0782545e-09
3.055765e-09
0.0043119153
0.0001286607
8.8175441e-07
0.0054893536
6.1715644e-05
0.00019122025
0.0033097083
0.0017161565
0.00011421241
5.1624616e-10
3.0458131e-10
5.5099034e-06
1.0337307e-07
0.051153567
0.0099054988
1.6676687e-09
1.4145879e-09
1.1628768e-09
9.92906e-10
8.1346684e-10
6.0236862e-10
6.4339782e-10
6.5227451e-10
4.6808098e-10
0.0010835337
4.7585612e-08
6.9828984e-08
0.00044333593
0.00034894686
0.00036401489
1.8641884e-10
9.1808768e-09
3.6339981e-10
0.00028917304
5.6808905e-05
6.2840823e-10
1.616377e-05
1.197205e-05
3.5501946e-07
5.8884384e-06
0.00013480575
0.00022522159
0.00026974902
0.00023336312
1.352359e-08
1.3497793e-08
1.1465289e-08
9.5010689e-09
3.5026135e-08
1.3211456e-08
8.8486987e-08
6.0234102e-09
0.00010838635
0.00058717234
5.589255e-09
5.7673056e-09
5.3156276e-09
5.9784858e-06
6.4112477e-09
2.3511901e-08
4.6932331e-09
6.1658309e-09
4.7609196e-09
0.00040016408
1.2249867e-07
1.2273067e-07
5.6125405e-05
1.7829364e-09
1.4234955e-09
1.423495e-09
0.0018344863
0.00056993403
3.5949496e-05
0.0016549444
0.00011543214
0.0046549674
1.7617009e-05
0.00087243378
0.0089796548
0.0009056156
0.0074402432
0.0086448506
0.00072821379
1.0586643e-09
8.0441961e-10
4.798362e-10
2.6232507e-10
0.036524107
0.051153754
0.032548624
0.0017424045
0.010965045
0.0010544089
0.0032074614
4.4646247e-10
4.4646238e-10
4.4646235e-10
4.5445396e-10
9.0821704e-10
7.7052488e-10
2.7455741e-07
2.6974157e-05
3.4584998e-10
4.1682935e-10
0.00026377852
1.8643991e-10
1.189939e-08
3.6339548e-10
0.0003489631
0.00012206307
6.2046428e-10
4.666803e-10
6.5567444e-10
2.1880407e-09
3.6911479e-08
6.2236743e-08
0.00022377766
2.8884162e-07
0.00028263477
1.3553429e-08
1.3663533e-08
5.1930458e-07
5.4809741e-09
1.0668716e-07
1.653716e-08
5.0725085e-09
5.0703345e-09
2.9579869e-05
0.00055017861
6.1738681e-09
6.1318306e-09
5.2438107e-09
1.7290009e-06
6.9394317e-09
7.4058042e-09
2.5159752e-05
5.1470871e-09
5.5327691e-09
0.00011672544
1.2261182e-07
0.0039622423
0.0058823956
0.00028876621
1.8450096e-09
1.4234984e-09
0.00079115351
0.00043040792
1.205933e-05
0.0034433479
0.0031964519
0.00035953387
0.008297085
0.0083188909
0.0047629714
0.003368365
1.1650573e-09
1.1372452e-09
1.1372454e-09
2.6283594e-06
0.0015510928
0.00046853392
2.888388e-10
0.03196563
0.0045109333
0.026909234
0.015821533
0.016839488
0.015110537
0.014456574
4.6961874e-10
0.0018701611
0.033686722
4.4899943e-10
4.4431231e-10
5.253129e-10
4.2826967e-07
1.0766195e-06
8.4809798e-09
3.9558772e-10
5.6316042e-10
3.8628118e-10
2.8993248e-08
5.5991701e-10
3.4154297e-10
3.4154321e-10
7.2490219e-08
5.0530681e-10
0.00019359944
7.8526301e-11
9.5256475e-09
6.1983131e-08
1.0680136e-08
9.9094081e-07
8.154508e-05
7.520587e-08
1.2455658e-05
4.7165371e-09
6.1206039e-09
9.4930441e-07
1.7554763e-08
6.0738467e-05
4.1489701e-09
4.1490166e-09
5.1646128e-09
0.00018373254
0.0039007439
8.9168972e-06
5.0792322e-09
0.00010673504
0.00012198486
0.00015633919
0.0018953909
0.0018967701
0.00013435911
0.0003580091
0.0058583273
0.0058702857
0.0048060551