/*--------------------------------*- C++ -*----------------------------------*\
| =========                 |                                                 |
| \\      /  F ield         | OpenFOAM: The Open Source CFD Toolbox           |
|  \\    /   O peration     | Version:  2.3.0                                 |
|   \\  /    A nd           | Web:      www.OpenFOAM.org                      |
|    \\/     M anipulation  |                                                 |
\*---------------------------------------------------------------------------*/
FoamFile
{
    version     2.0;
    format      ascii;
    class       volScalarField;
    location    "3.5e-05";
    object      k;
}
// * * * * * * * * * * * * * * * * * * * * * * * * * * * * * * * * * * * * * //

dimensions      [0 2 -2 0 0 0 0];

internalField   nonuniform List<scalar> 
7500
(
9.9988559e-06
9.9971503e-06
9.9957724e-06
9.9929375e-06
9.9918518e-06
9.9896486e-06
9.9883536e-06
9.9865139e-06
9.98487e-06
9.9832558e-06
9.9814057e-06
9.9798939e-06
9.9780898e-06
9.9767738e-06
9.9752113e-06
9.9740436e-06
9.9728521e-06
9.9719605e-06
9.9708602e-06
9.9700894e-06
9.969169e-06
9.9683929e-06
9.9678844e-06
9.967508e-06
9.9675936e-06
9.9676573e-06
9.9675334e-06
9.9671629e-06
9.9666677e-06
9.9661021e-06
9.9660677e-06
9.9663113e-06
9.9669075e-06
9.9678457e-06
9.9697595e-06
9.9711028e-06
9.9725686e-06
9.9739035e-06
9.9746239e-06
9.9751607e-06
9.9760177e-06
9.9774047e-06
9.9799792e-06
9.9819727e-06
9.985511e-06
9.9879944e-06
9.9924296e-06
9.9958852e-06
1.0002048e-05
1.0007041e-05
1.0016044e-05
1.0022894e-05
1.0035485e-05
1.0044969e-05
1.0062479e-05
1.00755e-05
1.0099873e-05
1.0117434e-05
1.0150242e-05
1.017331e-05
1.0216888e-05
1.0246574e-05
1.0303067e-05
1.0341074e-05
1.04142e-05
1.0462389e-05
1.0555821e-05
1.0615988e-05
1.0733347e-05
1.0807306e-05
1.0952567e-05
1.1041518e-05
1.1217591e-05
1.1323756e-05
1.1604401e-05
9.9993549e-06
9.9972193e-06
9.9961502e-06
9.9942868e-06
9.9931931e-06
9.991536e-06
9.9905249e-06
9.9891174e-06
9.9883677e-06
9.9871644e-06
9.9863701e-06
9.9856198e-06
9.9850304e-06
9.9846196e-06
9.9842669e-06
9.9838725e-06
9.9835808e-06
9.9832883e-06
9.9829181e-06
9.9828536e-06
9.9826031e-06
9.9826408e-06
9.9824295e-06
9.982325e-06
9.9820071e-06
9.981619e-06
9.9813571e-06
9.981437e-06
9.9818258e-06
9.9824459e-06
9.9835033e-06
9.985094e-06
9.9878793e-06
9.9907792e-06
9.995988e-06
1.0000701e-05
1.0008684e-05
1.0015979e-05
1.0028107e-05
1.0039452e-05
1.0058064e-05
1.0075465e-05
1.0103898e-05
1.0129757e-05
1.0172163e-05
1.0209727e-05
1.0271472e-05
1.0324913e-05
1.0413338e-05
1.0487435e-05
1.0610639e-05
1.0711161e-05
1.0879844e-05
1.1014772e-05
1.124132e-05
1.1418874e-05
1.1719596e-05
1.1947689e-05
1.23322e-05
1.2619882e-05
1.3105473e-05
1.3458733e-05
1.4057196e-05
1.4489372e-05
1.5230937e-05
1.5756023e-05
1.6665721e-05
1.7290558e-05
1.8379705e-05
1.9115178e-05
2.0399523e-05
2.1241171e-05
2.2724456e-05
2.368243e-05
2.5966205e-05
1.0000957e-05
1.0001606e-05
1.0003421e-05
1.0004373e-05
1.0006235e-05
1.0007672e-05
1.0009854e-05
1.0011531e-05
1.0014028e-05
1.0015776e-05
1.0018257e-05
1.0020422e-05
1.0023538e-05
1.0026955e-05
1.0030474e-05
1.003433e-05
1.0037654e-05
1.0041052e-05
1.0043422e-05
1.0046182e-05
1.0048326e-05
1.0051096e-05
1.0053496e-05
1.0056434e-05
1.0059458e-05
1.0063205e-05
1.0068393e-05
1.0075179e-05
1.0086375e-05
1.0099627e-05
1.0122897e-05
1.0147526e-05
1.0191557e-05
1.0235116e-05
1.0312616e-05
1.0386446e-05
1.0515174e-05
1.0635785e-05
1.0840984e-05
1.1032249e-05
1.1351588e-05
1.164783e-05
1.2138526e-05
1.2580688e-05
1.3310058e-05
1.3946624e-05
1.4993805e-05
1.5885122e-05
1.7352951e-05
1.8562419e-05
2.0556297e-05
2.2153336e-05
2.4805327e-05
2.6885631e-05
3.0331049e-05
3.2991032e-05
3.7410843e-05
4.0721926e-05
4.6180584e-05
5.0225734e-05
5.6834839e-05
6.1636897e-05
6.9478925e-05
7.5156082e-05
8.4486567e-05
9.1191668e-05
0.00010225539
0.00010997197
0.00012275515
0.00013155579
0.00014601441
0.00015579872
0.00017192211
0.00018268994
0.00020675441
1.001362e-05
1.0024924e-05
1.004927e-05
1.0060786e-05
1.0082535e-05
1.0094679e-05
1.0114641e-05
1.0124266e-05
1.0138521e-05
1.0145552e-05
1.0156171e-05
1.0166762e-05
1.0177842e-05
1.0192009e-05
1.0202687e-05
1.0219901e-05
1.023053e-05
1.0247212e-05
1.0257049e-05
1.0272637e-05
1.0284873e-05
1.0303975e-05
1.0327331e-05
1.0354402e-05
1.0398121e-05
1.0448192e-05
1.0533017e-05
1.0632436e-05
1.0806949e-05
1.1002757e-05
1.135546e-05
1.1727614e-05
1.2402206e-05
1.3070789e-05
1.427143e-05
1.5409017e-05
1.7425375e-05
1.9275158e-05
2.2497005e-05
2.5387171e-05
3.0345108e-05
3.4726845e-05
4.2164535e-05
4.8534574e-05
5.9241926e-05
6.814382e-05
8.3013772e-05
9.5104943e-05
0.0001152212
0.00013112157
0.00015750682
0.00017782799
0.00021177035
0.00023732304
0.00027991376
0.00031159747
0.000364354
0.00040255828
0.00046573715
0.0005109376
0.00058450104
0.00063655465
0.00072106117
0.00078073474
0.00087778489
0.00094650715
0.0010580805
0.0011349611
0.0012604175
0.0013455309
0.001482468
0.0015749932
0.0017233464
0.0018222546
0.0020363079
1.0024064e-05
1.0058551e-05
1.0108579e-05
1.0139523e-05
1.0185908e-05
1.0215243e-05
1.0264773e-05
1.0289134e-05
1.0341272e-05
1.0371562e-05
1.041891e-05
1.0461125e-05
1.0505307e-05
1.0559701e-05
1.060106e-05
1.0670502e-05
1.0715793e-05
1.0796096e-05
1.0856618e-05
1.0964801e-05
1.1070062e-05
1.1261139e-05
1.1479153e-05
1.1839058e-05
1.2398943e-05
1.3095178e-05
1.4335956e-05
1.5783869e-05
1.838514e-05
2.1222354e-05
2.6412606e-05
3.1688581e-05
4.1364032e-05
5.0539809e-05
6.7248387e-05
8.2309378e-05
0.000109506
0.00013302999
0.00017498997
0.00021020427
0.00027236945
0.00032355177
0.00041291325
0.00048439207
0.00060742993
0.00070346105
0.00086731175
0.00099285158
0.0012053082
0.0013646006
0.0016322926
0.0018287986
0.0021605302
0.0023983009
0.0027999482
0.0030850812
0.0035645894
0.0038972218
0.0044543273
0.004834589
0.0054591079
0.0058839592
0.0065792976
0.0070515213
0.0078243771
0.0083542547
0.0092140342
0.0097919709
0.010736439
0.011356943
0.012356635
0.013016397
0.014068098
0.014753403
0.016214309
1.0001534e-05
1.0014171e-05
1.0035576e-05
1.0066653e-05
1.0122939e-05
1.017154e-05
1.0268392e-05
1.0337278e-05
1.0486334e-05
1.058246e-05
1.0785858e-05
1.0910677e-05
1.1143875e-05
1.1335998e-05
1.1579434e-05
1.1876574e-05
1.2149402e-05
1.2600491e-05
1.3094043e-05
1.3987888e-05
1.511808e-05
1.7244974e-05
1.9976635e-05
2.5073644e-05
3.1778068e-05
4.1491923e-05
5.8452668e-05
7.7121984e-05
0.00011130372
0.0001462204
0.00021103775
0.00027261901
0.0003867639
0.00048814463
0.00067518831
0.00083295642
0.0011219379
0.0013551474
0.0017787413
0.0021098235
0.0027081578
0.0031652561
0.0039841448
0.0045931237
0.0056666895
0.0064492112
0.0078150153
0.0087951126
0.010487578
0.011683923
0.013724199
0.01514733
0.017576139
0.01923043
0.022064753
0.023978647
0.027233639
0.029391347
0.033054817
0.035433356
0.039389538
0.041966747
0.046235057
0.04901009
0.053610811
0.056640985
0.061578961
0.064811645
0.070112031
0.07347733
0.078939971
0.082436215
0.088008888
0.091538021
0.098979186
1.0040259e-05
1.0253593e-05
1.0336775e-05
1.059372e-05
1.0714824e-05
1.0981208e-05
1.1244047e-05
1.1512209e-05
1.1965334e-05
1.228341e-05
1.2857975e-05
1.3264209e-05
1.396157e-05
1.4644575e-05
1.5580924e-05
1.6919841e-05
1.8750694e-05
2.2097311e-05
2.7020886e-05
3.6458688e-05
4.9547325e-05
7.543654e-05
0.00010760996
0.00017129112
0.00024235754
0.00037305372
0.00053757451
0.00074363496
0.0011025277
0.0014463267
0.0020829069
0.0026448838
0.0036918726
0.0045597974
0.0061764907
0.0074468285
0.0097919475
0.011559895
0.014806869
0.017181017
0.021534187
0.024631722
0.03028596
0.034206338
0.041257717
0.046061034
0.054615539
0.060362489
0.070482158
0.077221868
0.08887929
0.096617895
0.1099277
0.11858651
0.13356919
0.14323542
0.15979733
0.17034544
0.18838982
0.19962544
0.21846227
0.23031556
0.25006821
0.26247564
0.28324553
0.29645297
0.3179587
0.33186243
0.35450624
0.36865442
0.39154373
0.40595188
0.42850924
0.44271487
0.47218836
1.0024501e-05
1.0354876e-05
1.0708099e-05
1.1713289e-05
1.2430708e-05
1.3886187e-05
1.530031e-05
1.683064e-05
1.8760803e-05
2.0088201e-05
2.2220519e-05
2.3747401e-05
2.6449403e-05
2.9666636e-05
3.5448195e-05
4.5457436e-05
6.3223377e-05
9.8141697e-05
0.00015056809
0.00025583959
0.00039248018
0.00067141621
0.00098590594
0.0016220003
0.0022635084
0.0035453563
0.0047289324
0.0069551894
0.0092716216
0.012262952
0.016853799
0.020931536
0.028248939
0.034000485
0.044650926
0.052446276
0.066873741
0.077126817
0.096032734
0.10904717
0.13299372
0.14901584
0.17852112
0.19780511
0.23293168
0.25548934
0.29620202
0.32204301
0.36822912
0.3974881
0.44865253
0.48134654
0.53767885
0.57325717
0.63482907
0.67343546
0.73947008
0.78074029
0.85099076
0.89412951
0.96622276
1.0113015
1.0857185
1.1323294
1.2099948
1.2587371
1.336827
1.3893656
1.47049
1.5225881
1.6048861
1.6575859
1.7383892
1.7914192
1.899505
1.0703838e-05
1.3109426e-05
1.448609e-05
1.673728e-05
1.8727448e-05
2.0414121e-05
2.3314433e-05
2.4689063e-05
2.7682881e-05
3.0474236e-05
3.6444045e-05
4.4692814e-05
6.1012186e-05
9.0027378e-05
0.00014721151
0.00024809585
0.00043243647
0.00079564046
0.0012865666
0.0022982482
0.0034743557
0.005902928
0.0083560928
0.013354382
0.017918294
0.02711504
0.03484454
0.050187999
0.062263318
0.085950726
0.10379621
0.13434113
0.16708125
0.20089818
0.25150137
0.28947646
0.35739606
0.40433618
0.48912982
0.54503188
0.64668557
0.71213292
0.83232361
0.90816253
1.0463544
1.1321246
1.2872658
1.3831636
1.5557236
1.6626788
1.8508222
1.9694278
2.1723715
2.3004748
2.518547
2.6567617
2.8904174
3.0410033
3.292335
3.4526599
3.7165935
3.88629
4.1571276
4.3337999
4.6185258
4.8015985
5.0930243
5.2923934
5.5888243
5.7974303
6.1153312
6.3407208
6.6794167
6.927007
7.4245599
1.112641e-05
1.694287e-05
1.9084509e-05
2.5608217e-05
2.7274906e-05
3.2767119e-05
3.472943e-05
4.0228697e-05
4.6517422e-05
6.0236735e-05
8.9425495e-05
0.00015036423
0.00027775788
0.00052516787
0.0010447869
0.0019089373
0.0035590574
0.0064273622
0.010177705
0.017892247
0.025905429
0.042454477
0.057528805
0.088258051
0.113713
0.16499182
0.20447795
0.28286532
0.33979392
0.45149465
0.52871306
0.67808948
0.77854958
0.96950271
1.1006228
1.3137947
1.5184086
1.7343753
2.0106574
2.2328085
2.5811682
2.8185714
3.2375803
3.5030494
3.9788464
4.2825639
4.8252491
5.1714772
5.7898262
6.1794734
6.8617897
7.2977481
8.0218333
8.4953944
9.2732926
9.8300791
10.755782
11.398516
12.442716
13.140698
14.251546
14.982736
16.072323
16.848425
18.029629
18.854706
20.191821
21.094084
22.460324
23.6001
25.463459
26.902041
29.149107
30.740877
33.7319
1.016051e-05
1.1566319e-05
1.2819776e-05
1.6690527e-05
1.9533427e-05
2.632042e-05
3.6642449e-05
6.0729241e-05
0.00011439292
0.00023412699
0.00049293755
0.0010214285
0.0021176643
0.0041411466
0.0085370872
0.014645065
0.027871887
0.043277168
0.069179047
0.1133081
0.15724504
0.24454982
0.31800135
0.46517891
0.57726041
0.80038548
0.96087464
1.2765396
1.493339
1.91446
2.1929614
2.7268937
3.0786812
3.7449311
4.1767229
4.9894673
5.5131736
6.4901651
7.1243638
8.2344728
9.1312506
10.236263
11.49521
12.523869
14.292243
15.528065
17.677511
19.110897
21.632227
23.234481
26.017481
27.887441
30.552677
32.719466
36.378092
39.867988
44.671308
48.09189
53.600411
56.851906
62.334344
66.001833
71.342361
75.47319
82.980234
87.2373
96.534094
100.97401
113.19829
121.77888
142.81333
152.18622
171.64268
179.42447
196.42808
1.2350995e-05
1.4346828e-05
1.686637e-05
1.9062171e-05
2.4829017e-05
4.2912076e-05
9.7134742e-05
0.00024623491
0.00062002537
0.0014759383
0.0033729819
0.0071813162
0.015412417
0.028948465
0.057852563
0.093331276
0.16967765
0.24636145
0.40509679
0.55733966
0.79467578
1.1306111
1.4417422
1.9941915
2.4087195
3.1990895
3.754992
4.8208759
5.5472187
6.9295947
7.8719006
9.6249984
10.864542
13.063158
14.559371
17.355744
19.333514
22.948629
25.416213
29.954814
32.904492
38.038385
41.743227
48.260686
56.33897
62.371115
73.122542
79.396823
92.822992
99.229169
114.60172
122.40888
134.01746
151.50501
185.86425
211.43223
230.27391
252.98259
272.74058
288.01719
324.63347
352.97009
377.1817
407.25194
472.71724
481.43721
546.27804
561.90726
600.09202
620.18651
680.68303
692.25415
745.09433
757.75667
792.02286
1.3249865e-05
1.8164198e-05
2.2576155e-05
3.5114146e-05
7.7634177e-05
0.00022258121
0.0006456754
0.0017685759
0.0044313558
0.010294722
0.023149036
0.047146716
0.098270175
0.17391431
0.31799478
0.49262919
0.8310744
1.1597034
1.7900694
2.3401486
3.3853562
4.2136709
5.6625575
7.0497146
8.7472727
11.055485
13.051322
16.409753
18.897321
23.651245
27.178312
33.367539
38.750129
45.672472
52.119074
64.465081
73.694898
89.758963
100.73773
122.79813
135.23054
159.58611
182.76578
239.62101
272.16612
301.98538
356.96374
387.77043
481.43292
487.42581
602.94772
611.46378
690.20769
723.45008
799.8474
830.18537
852.1721
955.62268
930.35094
895.91141
968.3666
954.51165
902.17506
1023.1859
910.53628
897.50121
901.98671
826.03521
731.17629
742.04996
690.63607
702.19036
622.90036
587.11606
510.1735
1.2538355e-05
1.8972899e-05
3.5614298e-05
0.00011639031
0.00042929036
0.0014767372
0.0043945647
0.011760166
0.028263678
0.0630977
0.14203451
0.26413532
0.5123187
0.89664022
1.3937247
2.2562145
3.2855126
4.7272278
6.4923716
8.8012709
11.466061
14.797271
19.056757
23.259254
29.995559
36.436096
45.472677
55.326232
66.348901
87.167955
102.2316
128.92893
151.36825
178.75492
220.43001
295.81471
340.71965
411.49792
472.28417
599.42646
634.81092
796.40475
814.58679
956.18052
966.51788
1116.0528
1035.5539
1174.4061
1108.1174
1127.4138
1213.5438
938.75642
990.22736
863.29101
738.56425
597.49534
599.83535
547.97031
467.46188
435.38908
415.47237
350.21767
325.65054
290.20798
179.65452
246.21203
144.2468
131.92854
98.801894
110.58939
81.171284
84.591524
51.969932
46.72458
36.622494
1.05336e-05
2.3926334e-05
0.0001221444
0.0006677305
0.0027869758
0.0094029579
0.026782177
0.06844581
0.15584051
0.33553071
0.72026493
1.2324048
2.2628833
3.7176968
5.3553888
8.6300926
11.327818
16.647072
21.526576
29.363953
36.866031
50.721311
61.650384
81.905542
105.54234
132.72248
171.22231
208.45232
282.8967
385.12052
450.58073
584.65446
673.3854
839.20036
958.13354
1062.2218
1175.7556
1169.514
1330.838
1286.2943
1227.3874
1206.4699
998.15445
893.19362
744.39101
753.19079
484.50458
608.17492
304.75901
461.35885
189.69504
163.82795
182.23562
103.51033
66.365262
48.978934
60.773675
45.010287
32.3959
40.642103
37.56233
27.393284
48.964986
26.857846
13.05179
29.765576
10.019115
9.6787052
10.018681
14.399632
8.9059344
6.7800655
3.6816207
3.5308958
2.9526825
9.8169746e-06
7.7992684e-05
0.00075093699
0.0041995768
0.016865553
0.053249034
0.14225523
0.34772701
0.740106
1.572428
2.9638586
4.8992061
8.7131055
12.333905
19.229035
27.771711
37.165593
55.161839
70.246087
96.293602
131.70512
179.27399
227.51951
335.46616
434.75376
572.28074
747.71455
929.56151
1123.7002
1241.3403
1313.8987
1446.0156
1422.0764
1393.9096
1167.6733
933.92396
861.22809
646.41613
582.12797
335.83962
371.95126
180.11644
171.11528
104.13686
134.54151
65.28683
55.753886
63.298159
26.24255
59.772865
11.967767
14.923179
16.031654
6.7191879
5.5105786
5.7928285
8.9739655
6.1814472
4.5918535
9.7737801
9.237777
5.8133478
16.779424
6.8795658
4.041995
5.5334563
2.4508295
3.7122465
9.3486208
6.492767
2.7621017
1.8510826
1.855914
1.734489
1.2403806
1.0364195e-05
0.00050395645
0.0047839071
0.024524378
0.09048264
0.26406234
0.65657851
1.5616897
3.0189897
6.3807986
10.199851
17.850009
27.550103
40.210225
64.135541
86.030932
129.05665
187.93056
246.38343
375.15074
545.83924
740.20814
977.15922
1225.2357
1348.9935
1472.2997
1643.4925
1498.4494
1255.9151
990.98725
747.81362
603.98237
391.10175
335.92931
140.73933
112.42509
92.846691
81.108301
49.484661
24.863878
34.904974
12.411018
15.715981
15.491001
68.622469
15.304733
15.665072
7.8059468
7.1024707
12.336577
4.144235
4.2349898
4.1483527
2.8300196
2.8439814
3.0424028
3.4670354
3.4515106
2.9123331
4.4629993
3.9749409
3.7173299
7.316419
2.7288627
2.9983311
2.8597973
2.0048414
4.9130858
12.437234
3.983421
2.3987293
1.7601409
1.6399478
1.6677757
1.3899432
1.3852223e-05
0.0032231239
0.027464878
0.12721581
0.42517435
1.1412837
2.6366609
5.8937835
10.730295
21.289881
33.324393
58.000685
84.480171
138.4414
210.73649
300.38852
513.62677
723.03521
997.71505
1420.8738
1548.8104
1712.4084
1641.9588
1361.58
1119.7926
737.08255
689.39619
308.93264
180.3079
116.95702
84.923195
68.890966
33.689265
22.81208
9.5346944
12.088465
9.5183057
19.190142
6.2398845
3.6206029
3.6318364
2.5986711
2.8828696
6.6562921
10.12485
5.6189176
9.2224291
11.323926
5.2178925
4.5939485
3.3504857
3.2125338
2.7236576
2.8672317
2.7728647
7.5409997
7.7818428
5.2136002
3.3600111
2.9581958
3.3580286
2.8321369
4.7657897
3.0322278
1.9836313
1.8770876
2.1071277
5.5966616
6.9200404
2.0430039
2.3859333
1.6624828
1.5406949
1.4917379
1.5203529
4.9002386e-06
0.018175296
0.1387019
0.5777804
1.7459222
4.3228632
9.3294486
19.393874
34.9629
66.616002
106.387
184.75533
286.31339
521.21026
793.70551
1235.8886
1532.0221
1740.2261
1834.155
1677.9916
1103.9915
738.67972
371.47383
230.18748
166.61313
95.518341
74.920907
19.296513
15.926068
10.91508
15.082227
8.3569035
3.2787061
3.4513271
6.1625382
3.7614583
2.7656897
2.8205305
2.7324789
1.980332
1.2810464
2.320888
3.2236777
4.4818883
15.755274
5.1583287
6.062699
9.272249
2.3453847
4.970489
2.922402
2.7940854
3.5360251
3.0821337
2.8427732
7.7158898
6.5782263
5.5384395
3.0471021
2.7100385
2.5316856
2.8597054
3.5164161
2.8824723
1.9157582
1.7570926
2.3823197
3.5802916
2.7045031
2.0825073
2.0074953
1.7855594
1.6952921
1.4967377
1.6003603
0.00074658054
0.096452271
0.62506337
2.3048296
6.2915192
14.509713
29.856531
59.70907
112.08452
211.32227
359.49034
675.83568
1123.7302
1604.4651
1924.646
1917.7302
1516.3401
1032.9426
699.08609
297.7007
134.52585
76.498225
27.909109
28.828041
26.760459
19.564555
10.540016
2.8773009
3.4832399
2.5215065
4.7529196
2.4120474
1.7820154
3.6968532
11.314678
4.1000997
2.2349099
0.86240185
2.3297005
1.4951688
1.0389792
3.5700198
6.4277439
2.7678272
6.1466019
3.0492119
4.4346685
3.9133122
2.121334
4.3268902
2.4043114
2.4737391
2.4612553
2.6966358
2.569176
4.214767
3.9517765
5.8813749
3.7860272
3.9242434
3.4853871
4.6836855
4.0354286
3.1692908
2.0634943
1.5461544
2.111366
2.2155103
1.9054594
1.9184465
1.618316
1.6124736
1.7482719
1.7099848
1.7511145
0.0084348685
0.45727354
2.5064279
8.1131111
20.203119
44.021805
91.110849
188.49687
377.93688
756.13457
1396.818
1794.7051
1956.9823
1721.6278
1153.0447
497.88377
255.57101
170.26778
95.21935
22.982601
14.938104
7.3429449
2.4188715
4.4739738
5.3095991
7.8675733
14.940523
2.4907868
2.9109412
1.9897376
2.7689064
0.96165426
1.2779314
4.161993
8.4914407
3.9424942
1.6634957
0.72138328
1.5228878
1.2240131
1.1863662
4.2906758
6.8650164
2.748151
3.7373191
2.2681853
3.6613085
3.8640016
2.2339966
8.0928264
2.3554965
2.304059
2.3212743
2.4527387
2.4755046
2.9387112
4.9841807
4.4926862
3.6496126
7.3922015
4.6572833
3.9228608
4.6450479
2.3257865
2.2766904
1.5476443
1.8967346
2.0748098
1.6713935
1.8745998
1.7549342
1.551238
1.6772566
1.9809493
1.8810748
0.064544455
1.9374741
8.9010748
25.453219
59.467546
129.48644
283.81551
656.63281
1453.0809
1875.7284
1994.6575
1555.0301
684.31463
372.27108
167.52845
49.437629
31.358235
31.501944
7.7241693
2.7625293
2.0807706
1.295148
1.2234917
2.3952046
2.188102
3.9836024
6.0681776
2.3251756
1.296642
1.1616974
1.9438539
0.72696469
1.1892962
5.5313043
2.1471811
3.2440708
1.5438959
0.707199
0.81398492
1.1802065
1.0292745
4.3942626
8.9456942
11.470093
4.9627317
2.099808
3.0724401
3.5212281
3.4573502
4.4871291
1.8939516
2.3117871
2.7172941
2.5475049
2.8885329
2.6600884
4.1793884
4.9068583
3.9522276
5.9765288
3.3951782
3.4708891
3.582549
2.3205548
2.2020837
1.6652183
1.8444887
1.9563653
1.7286265
1.9417306
1.7952496
1.8980764
1.9076291
2.0301153
1.8510734
0.39776599
7.3432202
28.238265
72.962053
168.22397
391.31029
1003.1754
1819.2534
2402.3501
1615.4655
595.92578
301.13358
100.23355
67.277634
15.942415
3.4437249
5.1088784
7.5674848
2.1316811
1.3572156
0.68547145
0.64796729
1.3218286
1.6299844
1.6814185
3.1658092
3.5586938
1.9402413
1.039774
0.88057617
1.5268071
0.74417339
0.85372465
5.3524434
1.723006
2.5509899
1.3355716
0.75524785
0.75526452
1.237902
0.95604576
3.3589701
10.894272
13.365448
4.1075025
2.290332
2.6479865
4.0490021
3.8406037
2.0068174
1.6621604
1.8143993
3.1143621
2.4632423
4.1204686
3.1360787
3.6716242
5.2055773
3.9024258
6.7827815
3.547301
2.8230183
3.5832495
2.8410973
1.8364067
2.0805336
1.8002522
1.6561724
2.1887474
2.3800741
1.7682431
2.3369294
2.3094893
2.1094802
1.7273971
2.0994718
24.976054
81.589373
198.24905
489.59467
1346.2875
1968.545
1889.006
1025.849
301.02629
93.910101
41.198574
11.430619
8.72032
1.214685
0.47111317
2.1234862
3.2279374
1.6657542
1.0806705
0.61555303
0.47576321
1.1105832
1.4022639
2.7579722
7.6158066
4.5201118
2.0221593
1.1075393
0.84576517
1.2642635
0.92145447
0.77057645
2.2918733
1.6134868
2.203218
1.1331419
0.81790035
0.76019672
1.3625538
1.6063499
2.3603606
4.923023
5.5527154
2.762206
2.946868
2.908601
3.2407424
2.2812879
1.5322593
1.3805995
1.6762177
1.8375356
1.9094532
9.4030094
7.9880107
6.3690661
6.0242284
3.9961681
6.75424
4.1691429
2.5480413
4.1249783
3.4668407
2.0044468
1.818214
1.4457078
1.5794858
2.4467936
2.4526193
1.8862636
2.3217612
2.5768709
2.56841
1.8128125
9.7530467
77.143394
220.02142
542.40233
1591.9355
2182.5924
1461.6276
549.65282
194.10253
30.554356
11.460017
4.1917091
1.7907711
1.838603
0.41264493
0.41464038
1.4640928
1.9533734
1.364227
1.0104616
0.62274333
0.44748749
0.64543964
1.287595
2.6757958
10.450498
5.1331904
1.8947849
1.2513398
0.99638542
1.1596971
1.3033402
0.81804299
1.3936592
1.6152503
1.7722053
0.95587164
0.80035762
0.78299469
0.71676601
1.2915684
1.7644867
3.0396358
4.9326385
1.6920152
3.3328206
3.3683213
3.2059977
2.0180246
1.4918838
1.2750172
2.0251837
1.9562894
1.9709674
6.1504547
6.4515626
7.5785118
6.3525735
3.8390335
4.4355499
2.6808999
2.7163526
3.7274542
3.2209619
2.7158926
1.6703798
1.4387019
1.6800601
2.0647167
2.7046818
1.9046525
2.3574482
2.9118382
2.8251977
2.0928734
40.768378
218.53876
578.98269
1615.4332
2195.6825
1236.3969
519.44436
139.21794
19.355356
2.7767486
1.9799397
0.67639751
0.56496169
0.8641255
0.35288815
0.51732625
1.1975614
1.3826492
0.95217592
1.0373637
0.74627875
0.34757772
0.57337962
1.3428343
4.3233331
5.331989
3.3588437
1.6131558
1.5939446
1.8273625
1.1366547
1.5564115
0.85162889
0.99527286
1.6185261
1.5113182
1.0452277
0.83661302
0.97200488
0.55176095
1.4843324
1.5594185
2.0366124
1.5029665
1.2227021
2.4656297
3.2279342
2.9230902
1.6142493
1.2383316
1.2441168
1.5783983
1.9335202
2.2732147
4.9616506
5.0466789
4.4437178
4.5507015
3.7021671
2.4699081
1.9124739
3.3710742
3.1691076
2.527893
2.1250921
1.4118876
1.9713193
1.5979834
2.0323573
2.0895814
2.0115679
2.7210144
3.0224853
2.7833962
2.2120299
156.9204
575.53017
1600.2693
2120.6906
1086.0825
438.52261
124.70937
17.788813
1.7605543
1.286455
0.85942935
0.3641212
0.38108973
0.65351305
0.29965913
0.49521304
1.0288136
1.0826883
0.70760581
1.0013032
0.76573348
0.33953844
0.56871126
1.5304971
3.239723
5.3960277
2.857038
1.4311691
2.024661
5.6464815
1.2376975
1.5639342
0.97022701
0.94117897
1.3810403
1.5683132
1.1630809
0.90491781
1.3986468
0.77325041
0.89573623
1.5470719
2.7302302
1.5377338
1.2954529
1.3427922
2.2573915
2.2351446
1.4706147
1.2876678
1.2440735
1.385039
1.4730256
2.1679971
5.6153839
5.0438612
3.5143327
5.051267
3.8695051
2.1465791
2.1347445
3.2540914
2.7010818
2.2945147
1.6741658
0.98454417
1.7365918
1.6635119
1.7746312
1.923623
2.054105
2.6017718
2.9093681
2.7875574
2.2857885
494.26124
1521.8429
2538.2297
1309.4515
417.47316
114.48559
16.043029
2.1474401
0.65210251
1.1048212
0.66332482
0.35200335
0.35509903
0.57994109
0.28964149
0.38451254
0.91694919
0.90919361
0.56569109
0.81080704
0.73184675
0.33611882
0.52850938
1.5295447
3.4937824
2.9303156
2.5097968
1.5983323
3.2802223
11.58728
1.423005
1.5018609
1.0120311
0.87363077
1.0532277
2.3586923
1.3055739
0.89928015
1.6789081
1.2184662
0.66347642
0.93197409
1.0315199
1.4972694
1.1790903
1.2485488
1.7832885
1.9994442
1.4700786
1.2421848
1.3084098
1.4277828
1.5208861
1.422864
7.2212353
4.4556909
3.0597588
5.0169607
3.4951653
2.2397145
2.1396475
2.872777
2.3425259
2.6420405
2.1407754
0.9615402
1.1965042
1.7321632
1.2141333
1.5322475
2.024181
2.0477373
3.2128246
2.9134606
2.3191106
1464.7539
3013.3357
2031.4652
558.19208
106.00292
18.562683
1.8987191
0.61650312
0.62266459
1.0339799
0.60446135
0.3861577
0.53353824
0.5361565
0.28902661
0.30173826
0.86258217
0.82005036
0.53055092
0.73357997
0.78663356
0.33596907
0.51677268
1.3757314
2.722748
0.9748226
1.2750077
1.6536881
4.4794575
10.72846
1.3260436
1.5209772
1.0512789
0.86040016
0.95438469
2.7612236
1.5130895
0.97179923
1.1672036
1.1618099
0.76395771
1.4813362
1.1355032
1.1096945
1.0716788
1.140843
1.5706141
1.62878
1.4400357
1.367849
1.3886798
1.5482395
1.4437853
1.4505452
3.4571855
2.7910596
2.6536438
3.8321899
3.468027
2.2985143
2.245805
2.3263908
2.746513
2.7224325
2.3981732
0.94004058
1.3910088
1.513914
1.1415426
1.4284348
2.1819899
2.2138631
3.7401239
3.0449367
2.27064
4177.7293
3212.9549
756.15961
117.8752
15.632963
2.5835423
0.49603781
0.4824797
0.69008678
0.99600913
0.54565807
0.40625091
1.1322346
0.54281494
0.29616616
0.28144754
0.80730527
0.75766596
0.52722364
0.71934803
0.82250023
0.35158983
0.52520123
1.1326194
1.4588527
0.78404908
0.97788258
1.213609
3.9254014
4.7194996
1.3043592
1.7817555
1.2117798
1.0554506
0.95408659
2.1455376
1.6563692
1.0669104
0.98703264
1.2827699
0.79047591
1.3497242
1.1671752
1.1008978
1.0914731
1.092592
1.4921736
1.4868095
1.4532229
1.5919789
1.4445632
1.5111873
1.2888096
1.3083946
1.7579651
2.8555275
2.6346204
3.5553137
3.2671634
2.443027
2.7375616
2.6275979
5.6575216
3.2785396
2.4068011
0.82278137
1.27262
1.3815161
1.2070129
1.425933
2.2953043
3.2320251
3.5676865
3.0610013
2.219791
7807.8807
1566.9129
149.63818
14.909929
2.1283011
0.55728531
0.37189032
0.4796108
0.73428613
0.98947702
0.50521159
0.43351408
2.1480488
0.57047947
0.31289671
0.27778514
0.75132388
0.7141951
0.54640768
0.7163871
0.73935341
0.36792171
0.56322056
0.97509261
1.0810264
0.76141452
0.88871889
1.1980029
4.3518197
5.0438967
1.4915504
2.2956238
1.3217908
1.2174788
0.97131391
1.6338006
1.6900392
1.1423195
1.1767715
1.6290468
0.9090756
1.3169728
1.1824461
1.0722711
1.1099988
0.96587466
1.5033219
1.4465825
1.4476392
1.4149423
1.4692237
1.3552999
1.2791584
1.3601692
2.0942996
1.8485274
1.866778
3.2600151
3.0344036
2.792042
2.5838721
2.9808616
5.2325936
2.9504411
2.293194
0.91856117
1.031619
1.3371462
1.4918515
1.4419188
2.4268775
3.6345738
2.847308
2.7307361
2.2049118
1498.2094
246.3563
15.436265
1.5661056
0.44142568
0.30888526
0.38616086
0.49057937
0.79950463
1.0862463
0.47611167
0.47588556
2.9618286
0.61204346
0.33262152
0.28383492
0.72741656
0.70339482
0.58371742
0.72549075
0.62664904
0.39208957
0.59505654
0.95298509
1.0081433
0.77865362
0.82952302
0.85598578
6.5006613
6.5239172
2.99206
2.7948935
1.3607633
0.88511531
0.96033835
1.3429454
1.6148787
1.1404702
1.5428375
1.4728
1.0628472
1.9069078
1.3022677
1.089651
1.2221352
0.83679217
1.3461186
1.5909037
1.2689523
1.3976097
1.5217854
1.3769841
1.4778819
1.3337068
1.3067703
1.1832803
1.2883764
2.3034882
3.0213825
2.5702674
2.0241254
2.8697418
6.6725008
3.0369574
2.2787852
1.603433
1.1992725
1.4529339
1.6673555
1.440448
2.7954338
2.6523145
2.6099713
2.5197497
2.1998106
101.30456
20.996592
1.1950538
0.26192359
0.23593961
0.28302504
0.43701769
0.52825468
0.91330815
1.3592597
0.45839779
0.52587642
3.1023445
0.58713696
0.35420041
0.30354765
0.68001992
0.68260151
0.60917387
0.75233278
0.58712328
0.40419341
0.64476451
0.82631099
1.0313416
0.80732264
0.81606393
0.62470633
2.9698613
3.9205158
4.3250635
3.0211699
1.3147615
0.7133894
0.9416077
1.0648302
1.3788682
1.0312632
1.1044199
1.082663
1.0352021
2.3198691
1.2845633
1.132619
1.2900668
0.78233186
1.25984
1.6746132
1.1600179
1.9104773
1.4492424
1.6092317
1.6053115
1.5512773
1.4064521
1.2116436
1.4445908
2.1948658
3.776191
2.5223343
1.8227395
3.6501907
11.482607
4.6315118
2.5597707
1.7264716
1.3135513
2.3687267
1.7876666
1.280066
2.3590155
1.8052867
2.1629862
2.425985
2.2337624
3.5062973
1.2336697
0.20666868
0.15394762
0.21167537
0.29339937
0.48420159
0.59410182
1.0942646
1.6442898
0.45648043
0.55007278
1.9230639
0.53914245
0.37646319
0.3332713
0.61375891
0.6634889
0.61837494
0.79198036
0.57599063
0.40120986
0.70189666
0.80483771
1.1409742
0.818549
0.84665154
0.68648058
0.89991025
1.6838911
4.1556359
2.9005557
0.92613002
0.58280956
0.90454272
0.99078666
1.2621571
1.0279703
0.88451002
0.87447312
0.94385308
1.1456681
0.98089717
1.2045346
1.1457278
0.75094606
1.3839365
1.5061586
1.1402502
1.6872036
1.2019385
2.1465854
1.6553528
1.9541208
1.6830574
1.4793923
2.3374289
3.1119257
3.636453
4.0986185
2.3107844
5.4497517
10.405875
10.801709
3.7994693
1.1999246
1.4230829
2.4419193
1.59944
1.2102987
2.3384391
1.5914923
1.700733
2.2367209
2.1502027
0.6362673
0.31362772
0.15760177
0.14735084
0.21124684
0.31280586
0.54938305
0.6805724
1.3312732
1.7505379
0.45910624
0.49815995
0.88856898
0.5007613
0.39834588
0.36850173
0.55912756
0.64575456
0.62410573
0.84705846
0.5760191
0.38304688
0.67342686
1.0705738
1.238455
0.84379857
0.84008849
0.86399024
0.70784606
0.90488363
6.8391026
1.7432758
0.61706722
0.53280108
0.90063644
0.96371655
1.2577829
0.98981016
1.0014476
0.88988319
0.89396268
0.93710239
0.96821017
1.4544117
1.0818797
0.71635887
1.3425862
1.4163942
1.2240784
1.2462987
1.1341994
2.8054119
1.6140022
2.2292371
2.8679612
1.942291
2.5641533
4.1542256
2.746146
5.3459828
2.6051047
7.4689985
13.274079
13.909447
3.5681958
0.83482188
1.252604
2.0419784
1.1326625
1.2101755
2.7237639
1.5129202
1.3895188
2.1152282
2.0577012
0.58072204
0.28024517
0.15733706
0.15047398
0.21592777
0.337748
0.6243589
0.78451434
1.4461988
1.7815345
0.47283345
0.48568482
0.58902542
0.47013951
0.41911914
0.40819777
0.48899443
0.62117371
0.65867527
0.91436815
0.60195375
0.36866511
0.59941357
3.6078501
1.2793322
0.84098295
0.64363626
0.71295745
0.76531854
0.73040398
3.779627
0.80436902
0.47813317