/*--------------------------------*- C++ -*----------------------------------*\
| =========                 |                                                 |
| \\      /  F ield         | OpenFOAM: The Open Source CFD Toolbox           |
|  \\    /   O peration     | Version:  2.3.0                                 |
|   \\  /    A nd           | Web:      www.OpenFOAM.org                      |
|    \\/     M anipulation  |                                                 |
\*---------------------------------------------------------------------------*/
FoamFile
{
    version     2.0;
    format      ascii;
    class       volScalarField;
    location    "3.5e-05";
    object      nuSgs;
}
// * * * * * * * * * * * * * * * * * * * * * * * * * * * * * * * * * * * * * //

dimensions      [0 2 -1 0 0 0 0];

internalField   nonuniform List<scalar> 
7500
(
4.140453e-10
4.1899531e-10
4.2390582e-10
4.287388e-10
4.3356276e-10
4.383161e-10
4.4304296e-10
4.4771142e-10
4.5233789e-10
4.5691872e-10
4.6144781e-10
4.6593839e-10
4.7037587e-10
4.7477861e-10
4.7912931e-10
4.8344337e-10
4.8771081e-10
4.9193961e-10
4.9611732e-10
5.0025731e-10
5.0434767e-10
5.0839581e-10
5.12405e-10
5.1637188e-10
5.2030515e-10
5.2419235e-10
5.2802908e-10
5.3181366e-10
5.3554921e-10
5.3923715e-10
5.4289382e-10
5.4651256e-10
5.5009557e-10
5.5364276e-10
5.5717198e-10
5.6064028e-10
5.6406693e-10
5.6744477e-10
5.7075991e-10
5.7980964e-10
5.833991e-10
5.8696172e-10
5.9051722e-10
5.9401357e-10
5.9751406e-10
6.0094121e-10
6.0438542e-10
6.0775848e-10
6.1117255e-10
6.1450976e-10
6.1792939e-10
6.2124207e-10
6.2469257e-10
6.2800661e-10
6.3153227e-10
6.3487813e-10
6.3854341e-10
6.4195554e-10
6.4581415e-10
6.4932609e-10
6.5345638e-10
6.5710663e-10
6.6158098e-10
6.6542673e-10
6.7036741e-10
6.7447065e-10
6.7999685e-10
6.844162e-10
6.9064216e-10
6.954345e-10
7.0248066e-10
7.0768003e-10
7.1562584e-10
7.2129501e-10
7.3245103e-10
4.554612e-10
4.6089643e-10
4.6630521e-10
4.7164452e-10
4.7695105e-10
4.8219326e-10
4.8740022e-10
4.9254675e-10
4.9765882e-10
5.0270898e-10
5.077188e-10
5.1267924e-10
5.1759337e-10
5.2246178e-10
5.2728142e-10
5.3204967e-10
5.3677039e-10
5.4144084e-10
5.4605893e-10
5.5063517e-10
5.5515611e-10
5.5963491e-10
5.6405658e-10
5.6843109e-10
5.7274932e-10
5.7701527e-10
5.8123462e-10
5.8541376e-10
5.8955195e-10
5.9364704e-10
5.9770535e-10
6.0173003e-10
6.0574141e-10
6.0970722e-10
6.1369485e-10
6.1761893e-10
6.2159612e-10
6.2550447e-10
6.2951683e-10
6.3984263e-10
6.4437255e-10
6.4882298e-10
6.5358927e-10
6.582341e-10
6.6337991e-10
6.6833251e-10
6.7404278e-10
6.7944808e-10
6.8597301e-10
6.919955e-10
6.9960705e-10
7.0643992e-10
7.1548606e-10
7.2338641e-10
7.3425072e-10
7.4346648e-10
7.5662638e-10
7.6736926e-10
7.8303707e-10
7.9552176e-10
8.1409733e-10
8.2840225e-10
8.5004474e-10
8.6643282e-10
8.9177631e-10
9.1046577e-10
9.3986535e-10
9.6080943e-10
9.9413976e-10
1.017371e-09
1.054579e-09
1.0797034e-09
1.1204066e-09
1.1474228e-09
1.205214e-09
5.0104744e-10
5.0709729e-10
5.1312225e-10
5.1907069e-10
5.2498838e-10
5.3084071e-10
5.3665863e-10
5.4240893e-10
5.4812742e-10
5.5377142e-10
5.5938161e-10
5.6492906e-10
5.7044953e-10
5.7592507e-10
5.8135016e-10
5.8673169e-10
5.9204427e-10
5.9730548e-10
6.0248232e-10
6.0761686e-10
6.1267868e-10
6.177055e-10
6.2266689e-10
6.2759093e-10
6.3246373e-10
6.3730549e-10
6.4213959e-10
6.4697196e-10
6.518945e-10
6.5683332e-10
6.6204996e-10
6.6726503e-10
6.7307518e-10
6.7882953e-10
6.8567249e-10
6.9235932e-10
7.0084296e-10
7.0902439e-10
7.1998743e-10
7.3780719e-10
7.5301015e-10
7.6737716e-10
7.8801792e-10
8.0691121e-10
8.347152e-10
8.5923658e-10
8.9581789e-10
9.2704549e-10
9.7407276e-10
1.0126949e-09
1.0711457e-09
1.1175558e-09
1.1883791e-09
1.243184e-09
1.3266982e-09
1.3900819e-09
1.4870193e-09
1.5583653e-09
1.6668036e-09
1.7457427e-09
1.8648761e-09
1.9500792e-09
2.078795e-09
2.1706253e-09
2.3103572e-09
2.4094093e-09
2.5608808e-09
2.6654248e-09
2.8261209e-09
2.935877e-09
3.1035564e-09
3.2165467e-09
3.3899043e-09
3.5055839e-09
3.7409335e-09
5.5150102e-10
5.5845689e-10
5.6572648e-10
5.7258533e-10
5.7968478e-10
5.8645762e-10
5.9340632e-10
5.9999972e-10
6.0667642e-10
6.1308227e-10
6.1954063e-10
6.2594319e-10
6.3230591e-10
6.3871048e-10
6.4495145e-10
6.5134544e-10
6.5747587e-10
6.6374679e-10
6.6974172e-10
6.7586963e-10
6.8183307e-10
6.8797056e-10
6.9419898e-10
7.0050275e-10
7.0732408e-10
7.1431992e-10
7.2246771e-10
7.3108547e-10
7.4225649e-10
7.5412954e-10
7.7131787e-10
7.8907049e-10
8.1674308e-10
8.4383577e-10
8.8727599e-10
9.2763734e-10
9.9242167e-10
1.0499486e-09
1.1408948e-09
1.2311492e-09
1.3542834e-09
1.4575106e-09
1.6155465e-09
1.7433791e-09
1.937116e-09
2.0892198e-09
2.3186306e-09
2.4951692e-09
2.7609822e-09
2.9606773e-09
3.2615081e-09
3.4829112e-09
3.8195112e-09
4.0629167e-09
4.4333623e-09
4.6992883e-09
5.1047245e-09
5.3896702e-09
5.822612e-09
6.1248254e-09
6.578517e-09
6.8935417e-09
7.3665452e-09
7.6956842e-09
8.1916623e-09
8.5386191e-09
9.0614628e-09
9.4190829e-09
9.9614088e-09
1.0328147e-08
1.0877952e-08
1.1249674e-08
1.1805939e-08
1.2178681e-08
1.2914185e-08
5.9810103e-10
6.0681582e-10
6.1596595e-10
6.2449969e-10
6.3347234e-10
6.4187737e-10
6.5087986e-10
6.590454e-10
6.6806185e-10
6.7633541e-10
6.8512609e-10
6.937121e-10
7.0232598e-10
7.1124662e-10
7.1969242e-10
7.2905854e-10
7.3756711e-10
7.4724962e-10
7.5621948e-10
7.668249e-10
7.7731087e-10
7.907969e-10
8.052199e-10
8.2458812e-10
8.5079379e-10
8.8140821e-10
9.295255e-10
9.8292366e-10
1.0689349e-09
1.1570714e-09
1.3003389e-09
1.434607e-09
1.6506984e-09
1.8373545e-09
2.1339444e-09
2.3767303e-09
2.7595309e-09
3.0612657e-09
3.5333977e-09
3.8968796e-09
4.4631049e-09
4.8937707e-09
5.5611921e-09
6.0583929e-09
6.8231012e-09
7.3838626e-09
8.2439773e-09
8.8681555e-09
9.8228872e-09
1.0506292e-08
1.1549428e-08
1.2286211e-08
1.3419863e-08
1.4207331e-08
1.5423708e-08
1.6265264e-08
1.7563375e-08
1.8446674e-08
1.9807568e-08
2.0724413e-08
2.2115098e-08
2.3054307e-08
2.4477117e-08
2.5440731e-08
2.6902681e-08
2.7904371e-08
2.9414166e-08
3.0433077e-08
3.1980582e-08
3.3006462e-08
3.4545961e-08
3.557449e-08
3.7104334e-08
3.8118387e-08
4.008549e-08
6.3143635e-10
6.4046512e-10
6.4972561e-10
6.592575e-10
6.6958541e-10
6.7963542e-10
6.9128461e-10
7.0198517e-10
7.1540989e-10
7.2703711e-10
7.4236138e-10
7.5499804e-10
7.7140004e-10
7.8640268e-10
8.0320533e-10
8.2188821e-10
8.3974487e-10
8.6374767e-10
8.8915137e-10
9.2786509e-10
9.7376251e-10
1.0496867e-09
1.1400993e-09
1.2887666e-09
1.4636789e-09
1.6869969e-09
2.0193912e-09
2.3389983e-09
2.8330626e-09
3.2734456e-09
3.9638896e-09
4.5404778e-09
5.4496837e-09
6.1686675e-09
7.3087537e-09
8.1771469e-09
9.5583268e-09
1.0579022e-08
1.2204285e-08
1.3382355e-08
1.5263378e-08
1.6610161e-08
1.8756208e-08
2.0267154e-08
2.2652626e-08
2.4315148e-08
2.6928596e-08
2.8737616e-08
3.1564988e-08
3.3508716e-08
3.6522492e-08
3.8583097e-08
4.178902e-08
4.3946694e-08
4.7323073e-08
4.958935e-08
5.3118168e-08
5.5459532e-08
5.9104776e-08
6.1491219e-08
6.5142235e-08
6.7554468e-08
7.123292e-08
7.3670948e-08
7.7393312e-08
7.9897291e-08
8.3663942e-08
8.6192728e-08
9.0017963e-08
9.2526387e-08
9.6285521e-08
9.8778636e-08
1.0245355e-07
1.0488004e-07
1.0946146e-07
6.5761193e-10
6.7421702e-10
6.8657803e-10
7.0474616e-10
7.1844164e-10
7.3705122e-10
7.5560413e-10
7.7439559e-10
7.9944744e-10
8.200257e-10
8.4916927e-10
8.7275223e-10
9.0586769e-10
9.3840651e-10
9.7884589e-10
1.03132e-09
1.0974793e-09
1.2041114e-09
1.3454733e-09
1.5789748e-09
1.859333e-09
2.3170488e-09
2.7944374e-09
3.5594899e-09
4.2739633e-09
5.3518259e-09
6.4830967e-09
7.6935101e-09
9.4505451e-09
1.0918178e-08
1.3214339e-08
1.5015761e-08
1.788719e-08
2.0040506e-08
2.3510805e-08
2.6018822e-08
3.0066826e-08
3.2917576e-08
3.7534285e-08
4.0730088e-08
4.5930294e-08
4.9474003e-08
5.5245446e-08
5.911907e-08
6.537001e-08
6.9534193e-08
7.6216684e-08
8.0647586e-08
8.7704018e-08
9.2380238e-08
9.9723124e-08
1.0460907e-07
1.1225301e-07
1.1728043e-07
1.2519435e-07
1.3038908e-07
1.3849898e-07
1.4379202e-07
1.5204369e-07
1.5735509e-07
1.6548466e-07
1.7080156e-07
1.7888939e-07
1.8420015e-07
1.9230144e-07
1.9769711e-07
2.0572899e-07
2.1117555e-07
2.1927954e-07
2.2463893e-07
2.3255328e-07
2.3784552e-07
2.4543235e-07
2.5053986e-07
2.5983932e-07
6.7498463e-10
6.9661124e-10
7.1910431e-10
7.6323742e-10
7.9767123e-10
8.5506429e-10
9.1005602e-10
9.6752534e-10
1.0351867e-09
1.0852625e-09
1.156129e-09
1.2103165e-09
1.293184e-09
1.386279e-09
1.5334972e-09
1.756976e-09
2.0959943e-09
2.6410632e-09
3.307763e-09
4.3589818e-09
5.4571108e-09
7.2131345e-09
8.8316839e-09
1.1443904e-08
1.3654942e-08
1.7258682e-08
2.0126516e-08
2.46424e-08
2.8719804e-08
3.3335836e-08
3.9437513e-08
4.4345123e-08
5.1972111e-08
5.7514369e-08
6.6474542e-08
7.2651861e-08
8.2720028e-08
8.9562104e-08
1.0074333e-07
1.0820475e-07
1.2043024e-07
1.2845958e-07
1.4166928e-07
1.5023859e-07
1.6423324e-07
1.7324879e-07
1.8787487e-07
1.9727733e-07
2.1241261e-07
2.2219817e-07
2.3765536e-07
2.4779543e-07
2.6360643e-07
2.739419e-07
2.9010887e-07
3.0066981e-07
3.1700953e-07
3.2771554e-07
3.4419141e-07
3.5489051e-07
3.7106726e-07
3.8180179e-07
3.9783609e-07
4.0854955e-07
4.2464713e-07
4.3545957e-07
4.5115741e-07
4.6235512e-07
4.7812614e-07
4.8900616e-07
5.0457405e-07
5.1533418e-07
5.3032412e-07
5.4094443e-07
5.5966742e-07
7.1018725e-10
7.9884177e-10
8.5322199e-10
9.3154404e-10
1.0005452e-09
1.0603907e-09
1.1499722e-09
1.2005411e-09
1.2893168e-09
1.3716175e-09
1.5204756e-09
1.7063772e-09
2.0199856e-09
2.485467e-09
3.218639e-09
4.2305285e-09
5.6537307e-09
7.7612144e-09
9.9860886e-09
1.3502025e-08
1.6790909e-08
2.2132226e-08
2.6623618e-08
3.402305e-08
3.9831751e-08
4.9514406e-08
5.6710919e-08
6.8754535e-08
7.7348256e-08
9.1775058e-08
1.0183339e-07
1.1696046e-07
1.3166506e-07
1.4571531e-07
1.6452715e-07
1.7810055e-07
1.9964896e-07
2.1421036e-07
2.3763089e-07
2.529701e-07
2.7785558e-07
2.9397831e-07
3.2039963e-07
3.3735626e-07
3.64971e-07
3.8258667e-07
4.110866e-07
4.2934463e-07
4.5873298e-07
4.7772464e-07
5.0768176e-07
5.2743846e-07
5.5785187e-07
5.7805472e-07
6.0897936e-07
6.2969585e-07
6.6118367e-07
6.8265072e-07
7.1491098e-07
7.3679881e-07
7.6927105e-07
7.9153964e-07
8.2369015e-07
8.4611271e-07
8.7869282e-07
9.0122953e-07
9.3358419e-07
9.5715284e-07
9.8917256e-07
1.0131031e-06
1.0462556e-06
1.0711674e-06
1.1053157e-06
1.1315873e-06
1.1776558e-06
7.3226471e-10
9.1934889e-10
9.9234654e-10
1.1686763e-09
1.2257989e-09
1.3650433e-09
1.4273406e-09
1.5597851e-09
1.7025256e-09
1.9659884e-09
2.4301035e-09
3.1959024e-09
4.4042158e-09
6.1388798e-09
8.7751069e-09
1.2017937e-08
1.6622533e-08
2.2622713e-08
2.8824221e-08
3.8688139e-08
4.7115572e-08
6.1033445e-08
7.1878923e-08
9.005477e-08
1.0337734e-07
1.2591119e-07
1.4170766e-07
1.684701e-07
1.8660854e-07
2.1735533e-07
2.3763232e-07
2.7184625e-07
2.9419938e-07
3.3153382e-07
3.5666841e-07
3.9340511e-07
4.2691511e-07
4.6050157e-07
5.0036125e-07
5.3203392e-07
5.7711951e-07
6.0836237e-07
6.5765119e-07
6.8991302e-07
7.4145545e-07
7.7561114e-07
8.3002077e-07
8.662149e-07
9.2383314e-07
9.6190677e-07
1.021474e-06
1.061476e-06
1.1212854e-06
1.1624975e-06
1.2234781e-06
1.2688067e-06
1.3367038e-06
1.3857846e-06
1.457966e-06
1.5086161e-06
1.5817665e-06
1.6327193e-06
1.7022494e-06
1.7542656e-06
1.8264399e-06
1.8796769e-06
1.9574377e-06
2.0131378e-06
2.0900695e-06
2.1554417e-06
2.2523312e-06
2.3287797e-06
2.438255e-06
2.5183974e-06
2.6531118e-06
7.0386864e-10
7.6485545e-10
8.1977736e-10
9.5191344e-10
1.0476052e-09
1.2366481e-09
1.4833183e-09
1.940617e-09
2.7058321e-09
3.9314589e-09
5.7919077e-09
8.462577e-09
1.2364586e-08
1.7540703e-08
2.554255e-08
3.3920972e-08
4.743654e-08
5.9905066e-08
7.674073e-08
9.9489383e-08
1.1869933e-07
1.4988756e-07
1.7303328e-07
2.1182244e-07
2.3878694e-07
2.8448224e-07
3.1531171e-07
3.6757624e-07
4.02029e-07
4.6023059e-07
4.9793203e-07
5.6120399e-07
6.0260483e-07
6.7153544e-07
7.1646726e-07
7.9099429e-07
8.3975488e-07
9.2007688e-07
9.7331696e-07
1.056394e-06
1.1229048e-06
1.1999485e-06
1.2832457e-06
1.351533e-06
1.4566705e-06
1.5316948e-06
1.6484522e-06
1.7286589e-06
1.8547019e-06
1.9381945e-06
2.0678759e-06
2.1582989e-06
2.2772076e-06
2.3752425e-06
2.5241119e-06
2.6628231e-06
2.8401709e-06
2.9691029e-06
3.1578572e-06
3.2761265e-06
3.4553563e-06
3.5810474e-06
3.7494823e-06
3.8834937e-06
4.1002096e-06
4.2327896e-06
4.4826798e-06
4.6151884e-06
4.9187855e-06
5.1350399e-06
5.5966627e-06
5.8141593e-06
6.2134737e-06
6.3922495e-06
6.729375e-06
7.7718831e-10
8.5403375e-10
9.437132e-10
1.0220348e-09
1.1877775e-09
1.589474e-09
2.4333144e-09
3.9407428e-09
6.3584497e-09
9.9719512e-09
1.5318422e-08
2.2705776e-08
3.3780645e-08
4.7002272e-08
6.7440432e-08
8.6917848e-08
1.1888611e-07
1.4528449e-07
1.8889498e-07
2.2459827e-07
2.7179859e-07
3.2848677e-07
3.7576837e-07
4.475935e-07
4.9811396e-07
5.8116286e-07
6.3731532e-07
7.3079642e-07
7.9318633e-07
8.9684678e-07
9.66842e-07
1.0811699e-06
1.1614635e-06
1.2875388e-06
1.3739652e-06
1.5160995e-06
1.6169558e-06
1.7798948e-06
1.8922678e-06
2.0749667e-06
2.1963261e-06
2.3845902e-06
2.5221597e-06
2.7377749e-06
2.9858819e-06
3.1708377e-06
3.4647347e-06
3.6429823e-06
3.9741527e-06
4.1452319e-06
4.4935458e-06
4.6840072e-06
4.9426879e-06
5.2993453e-06
5.9181849e-06
6.3637715e-06
6.6949452e-06
7.0733271e-06
7.4022869e-06
7.6660636e-06
8.201482e-06
8.6170398e-06
8.9746924e-06
9.3949244e-06
1.0196305e-05
1.036468e-05
1.1119905e-05
1.1357937e-05
1.1819913e-05
1.209959e-05
1.2762993e-05
1.295837e-05
1.3534064e-05
1.3739169e-05
1.4138583e-05
8.0325242e-10
9.6000501e-10
1.0919478e-09
1.3887723e-09
2.1049391e-09
3.6316028e-09
6.2998126e-09
1.0615272e-08
1.7101148e-08
2.6518381e-08
4.0442665e-08
5.8679852e-08
8.6104461e-08
1.163859e-07
1.5985701e-07
2.0204409e-07
2.664097e-07
3.193972e-07
4.0263119e-07
4.6698175e-07
5.6961361e-07
6.4432644e-07
7.5714669e-07
8.5617213e-07
9.6631695e-07
1.1004977e-06
1.2110333e-06
1.3750627e-06
1.4939314e-06
1.6917464e-06
1.8353465e-06
2.0577395e-06
2.2434234e-06
2.463628e-06
2.6616323e-06
2.9932586e-06
3.2356764e-06
3.6098024e-06
3.8652186e-06
4.3126497e-06
4.5729279e-06
5.0188344e-06
5.4255306e-06
6.2746438e-06
6.7533487e-06
7.1831595e-06
7.8849889e-06
8.2964077e-06
9.3310961e-06
9.4761178e-06
1.0635989e-05
1.0807785e-05
1.158529e-05
1.1965762e-05
1.2691499e-05
1.3041433e-05
1.3325572e-05
1.4230059e-05
1.4157473e-05
1.4007227e-05
1.4681013e-05
1.4692751e-05
1.439776e-05
1.5453438e-05
1.4691184e-05
1.4697677e-05
1.4846276e-05
1.4314195e-05
1.35673e-05
1.3768251e-05
1.3379268e-05
1.358773e-05
1.2888647e-05
1.2601024e-05
1.1828141e-05
7.7735994e-10
9.7725879e-10
1.3676279e-09
2.5241194e-09
4.9466966e-09
9.3579596e-09
1.6458395e-08
2.7438122e-08
4.3331695e-08
6.5928677e-08
1.0068852e-07
1.3971949e-07
1.9793645e-07
2.662768e-07
3.3747618e-07
4.36357e-07
5.3496063e-07
6.5173012e-07
7.755154e-07
9.1657822e-07
1.0616948e-06
1.223687e-06
1.4085932e-06
1.5781142e-06
1.8169767e-06
2.0298833e-06
2.2981129e-06
2.5683959e-06
2.8492174e-06
3.3076066e-06
3.6271997e-06
4.1239801e-06
4.523165e-06
4.9746322e-06
5.5898417e-06
6.5513887e-06
7.1123056e-06
7.905234e-06
8.5641479e-06
9.7551975e-06
1.0148728e-05
1.1489863e-05
1.1743938e-05
1.2857373e-05
1.3060682e-05
1.4178316e-05
1.3795389e-05
1.4837725e-05
1.4554859e-05
1.4823861e-05
1.5527464e-05
1.378644e-05
1.4292123e-05
1.3468315e-05
1.2571495e-05
1.1409636e-05
1.1534185e-05
1.11217e-05
1.0362007e-05
1.00866e-05
9.9373433e-06
9.2006852e-06
8.9461971e-06
8.5150828e-06
6.7543856e-06
7.9710518e-06
6.1499363e-06
5.9279755e-06
5.1701454e-06
5.5121902e-06
4.758618e-06
4.8946389e-06
3.8652439e-06
3.6921869e-06
3.2927759e-06
7.0701819e-10
1.090357e-09
2.5194456e-09
6.0209882e-09
1.2566244e-08
2.3568188e-08
4.05943e-08
6.6201217e-08
1.0185771e-07
1.5233505e-07
2.2739765e-07
3.0293949e-07
4.179164e-07
5.4515551e-07
6.6566508e-07
8.5941337e-07
1.0010691e-06
1.2334561e-06
1.4252073e-06
1.690869e-06
1.9240152e-06
2.2912243e-06
2.563926e-06
2.9988257e-06
3.4535047e-06
3.9279813e-06
4.5240692e-06
5.0606783e-06
5.9756172e-06
7.0654609e-06
7.7430885e-06
8.9346629e-06
9.7113191e-06
1.097783e-05
1.1875602e-05
1.2657059e-05
1.3476963e-05
1.3601038e-05
1.4679025e-05
1.4598264e-05
1.4422852e-05
1.4460467e-05
1.3299116e-05
1.2718447e-05
1.1736491e-05
1.193183e-05
9.6707935e-06
1.0947858e-05
7.8295938e-06
9.731326e-06
6.3025888e-06
5.915225e-06
6.299835e-06
4.7939083e-06
3.8752943e-06
3.3606822e-06
3.7785232e-06
3.2818277e-06
2.8096703e-06
3.1754453e-06
3.0800351e-06
2.6535163e-06
3.5786654e-06
2.6733233e-06
1.879526e-06
2.8623873e-06
1.674577e-06
1.6595113e-06
1.7022392e-06
2.057302e-06
1.6309214e-06
1.4343188e-06
1.0652434e-06
1.0513277e-06
9.6880554e-07
6.7579702e-10
1.95172e-09
6.2012388e-09
1.5007314e-08
3.0759168e-08
5.5868509e-08
9.3294578e-08
1.4894887e-07
2.217967e-07
3.2982769e-07
4.6178101e-07
6.051955e-07
8.2237927e-07
9.9660505e-07
1.2670083e-06
1.5498046e-06
1.8242056e-06
2.2605205e-06
2.5938767e-06
3.087126e-06
3.6689952e-06
4.3488237e-06
4.975894e-06
6.1350767e-06
7.0898996e-06
8.2554021e-06
9.5744245e-06
1.082914e-05
1.2075147e-05
1.2868558e-05
1.3421174e-05
1.4270252e-05
1.43402e-05
1.4383849e-05
1.3335224e-05
1.2078063e-05
1.1744232e-05
1.0300774e-05
9.8945818e-06
7.6060063e-06
8.0996478e-06
5.702481e-06
5.6224933e-06
4.4362816e-06
5.0993386e-06
3.5917437e-06
3.3556482e-06
3.6142779e-06
2.352114e-06
3.5874036e-06
1.6220058e-06
1.8299535e-06
1.9160607e-06
1.2529608e-06
1.1460037e-06
1.186565e-06
1.4912437e-06
1.2495803e-06
1.0872494e-06
1.6011679e-06
1.5711403e-06
1.2578422e-06
2.1564543e-06
1.3932491e-06
1.0774603e-06
1.271792e-06
8.5378589e-07
1.0598545e-06
1.6962842e-06
1.4256043e-06
9.3761833e-07
7.7393571e-07
7.8130547e-07
7.614519e-07
6.4910415e-07
6.8620784e-10
4.9096514e-09
1.5509765e-08
3.5981796e-08
7.0772122e-08
1.2372815e-07
1.9954802e-07
3.145976e-07
4.4690904e-07
6.6350299e-07
8.5627984e-07
1.1557313e-06
1.4643061e-06
1.8034029e-06
2.3209036e-06
2.7381302e-06
3.4149028e-06
4.1946586e-06
4.8872836e-06
6.1346257e-06
7.5249829e-06
8.9085588e-06
1.0402663e-05
1.1835355e-05
1.2614452e-05
1.3382578e-05
1.4354685e-05
1.3912091e-05
1.2924384e-05
1.1647213e-05
1.0262328e-05
9.3525152e-06
7.6302168e-06
7.168081e-06
4.7020519e-06
4.258221e-06
3.9202628e-06
3.7112542e-06
2.9356364e-06
2.1069545e-06
2.5272311e-06
1.5253316e-06
1.7370849e-06
1.7450666e-06
3.7158765e-06
1.7751388e-06
1.8164105e-06
1.2966641e-06
1.2506226e-06
1.6663532e-06
9.7629886e-07
9.9752e-07
9.9773063e-07
8.3271548e-07
8.4341112e-07
8.8126603e-07
9.5027721e-07
9.5763304e-07
8.8836252e-07
1.110481e-06
1.0581443e-06
1.0330745e-06
1.4630444e-06
9.0187778e-07
9.5411908e-07
9.4036074e-07
7.9449267e-07
1.2549019e-06
2.0143627e-06
1.1500275e-06
9.0019575e-07
7.7776581e-07
7.5715043e-07
7.7000209e-07
7.0882992e-07
7.8269144e-10
1.2267854e-08
3.6768696e-08
8.1189351e-08
1.5217705e-07
2.5545482e-07
3.9758115e-07
6.0830411e-07
8.3948134e-07
1.2087647e-06
1.5451321e-06
2.0817091e-06
2.5644778e-06
3.3495044e-06
4.2146319e-06
5.1297663e-06
6.8356056e-06
8.2616742e-06
9.8825957e-06
1.200536e-05
1.2755049e-05
1.364374e-05
1.3587007e-05
1.2579059e-05
1.1594571e-05
9.5583499e-06
9.3903543e-06
6.3839525e-06
4.9518386e-06
4.0482585e-06
3.5007581e-06
3.1990791e-06
2.2692823e-06
1.8937863e-06
1.2414158e-06
1.4170234e-06
1.2744226e-06
1.8337157e-06
1.0593995e-06
8.1745158e-07
8.2919836e-07
7.1026477e-07
7.5741513e-07
1.1650482e-06
1.4543182e-06
1.0963817e-06
1.4212254e-06
1.5932347e-06
1.093975e-06
1.0381751e-06
8.9658134e-07
8.876869e-07
8.2633392e-07
8.5703505e-07
8.5185389e-07
1.4196972e-06
1.457307e-06
1.2051925e-06
9.7743053e-07
9.2642075e-07
9.9693898e-07
9.2463076e-07
1.2112051e-06
9.7549567e-07
7.9657211e-07
7.8224708e-07
8.3658848e-07
1.3761135e-06
1.5442822e-06
8.4673907e-07
9.2331019e-07
7.7761039e-07
7.5521225e-07
7.4963024e-07
7.6335534e-07
4.5862154e-10
2.8744198e-08
8.1646309e-08
1.7120182e-07
3.0551885e-07
4.9316947e-07
7.4272358e-07
1.0970851e-06
1.5081876e-06
2.1302615e-06
2.7532196e-06
3.7086901e-06
4.7168451e-06
6.4988908e-06
8.1859093e-06
1.0421794e-05
1.1833689e-05
1.2857367e-05
1.3451248e-05
1.3106154e-05
1.0825444e-05
9.014174e-06
6.5051151e-06
5.2094033e-06
4.5074005e-06
3.4698614e-06
3.1235226e-06
1.6107877e-06
1.4866004e-06
1.2499238e-06
1.4918514e-06
1.1272865e-06
7.1660667e-07
7.4600716e-07
1.0112425e-06
8.0128547e-07
6.967151e-07
7.1330708e-07
7.1164419e-07
6.1396687e-07
5.0034561e-07
6.822585e-07
8.1443488e-07
9.725149e-07
1.8462577e-06
1.0694922e-06
1.1736318e-06
1.468929e-06
7.4758396e-07
1.1011183e-06
8.5413054e-07
8.4476076e-07
9.611084e-07
9.0736866e-07
8.8108198e-07
1.4674742e-06
1.3696526e-06
1.2702107e-06
9.5213869e-07
9.0733734e-07
8.8605576e-07
9.5135743e-07
1.0656458e-06
9.7449307e-07
8.0233296e-07
7.7593495e-07
9.1228001e-07
1.1291322e-06
9.907063e-07
8.7754412e-07
8.6963536e-07
8.2773584e-07
8.1392193e-07
7.7170467e-07
8.0513283e-07
5.5698909e-09
6.5256752e-08
1.7106921e-07
3.3796934e-07
5.7400567e-07
8.9537169e-07
1.3182708e-06
1.9120983e-06
2.685215e-06
3.7767804e-06
5.0428553e-06
7.0744283e-06
9.3283737e-06
1.1392568e-05
1.2746806e-05
1.299232e-05
1.1791384e-05
9.9287148e-06
8.3297407e-06
5.541118e-06
3.7956715e-06
2.9156348e-06
1.7932945e-06
1.8552932e-06
1.819025e-06
1.5822657e-06
1.1811037e-06
6.2741941e-07
7.0167204e-07
6.0664273e-07
8.4611779e-07
6.1218403e-07
5.3429068e-07
7.8121114e-07
1.38709e-06
8.4725824e-07
6.3458575e-07
3.9982161e-07
6.6638411e-07
5.4124935e-07
4.5735171e-07
8.5920351e-07
1.1682217e-06
7.7664805e-07
1.1723482e-06
8.362665e-07
1.0212278e-06
9.7126238e-07
7.2389235e-07
1.0463983e-06
7.8936923e-07
8.1016814e-07
8.1757769e-07
8.65675e-07
8.5462499e-07
1.1069898e-06
1.0838662e-06
1.3368644e-06
1.0843143e-06
1.1158472e-06
1.0628328e-06
1.2450772e-06
1.1677814e-06
1.0455972e-06
8.523245e-07
7.4525347e-07
8.7960715e-07
9.0997483e-07
8.5218676e-07
8.6339591e-07
8.0061848e-07
8.0678616e-07
8.4799822e-07
8.4649772e-07
8.645453e-07
1.840017e-08
1.3988248e-07
3.3777488e-07
6.2615605e-07
1.0171413e-06
1.5442218e-06
2.2830148e-06
3.3720144e-06
4.8994345e-06
7.1062081e-06
9.8975958e-06
1.1489789e-05
1.2280405e-05
1.1782927e-05
9.8592369e-06
6.6207009e-06
4.8451662e-06
4.037704e-06
3.0814657e-06
1.5443299e-06
1.269582e-06
9.0730776e-07
5.3060691e-07
7.3503331e-07
8.1533793e-07
1.010257e-06
1.4166496e-06
5.8841567e-07
6.4690733e-07
5.4376349e-07
6.5198054e-07
3.9043059e-07
4.5722636e-07
8.3803881e-07
1.2154479e-06
8.4074216e-07
5.542712e-07
3.7036859e-07
5.4592498e-07
4.9642186e-07
4.9560943e-07
9.5561133e-07
1.2253094e-06
7.8572813e-07
9.2849975e-07
7.3285048e-07
9.431817e-07
9.8135362e-07
7.556283e-07
1.4561607e-06
7.9529178e-07
7.9614759e-07
8.0873934e-07
8.4121699e-07
8.5504957e-07
9.4244556e-07
1.2414688e-06
1.1920571e-06
1.0864701e-06
1.5634289e-06
1.2545906e-06
1.1639396e-06
1.2801687e-06
9.154847e-07
9.1530148e-07
7.6251204e-07
8.5283945e-07
9.0107479e-07
8.1691052e-07
8.7379482e-07
8.5381368e-07
8.1060206e-07
8.5106574e-07
9.3380194e-07
9.1862122e-07
4.9975083e-08
2.8320604e-07
6.2711074e-07
1.0943337e-06
1.7243498e-06
2.6205161e-06
3.9920144e-06
6.2426577e-06
9.5399177e-06
1.112638e-05
1.1769781e-05
1.0653248e-05
7.2401492e-06
5.4676279e-06
3.7533503e-06
2.0853407e-06
1.6977604e-06
1.7386455e-06
8.7924314e-07
5.3676622e-07
4.7534473e-07
3.8251207e-07
3.7905839e-07
5.4054912e-07
5.2638124e-07
7.233657e-07
9.0898881e-07
5.7270144e-07
4.3515902e-07
4.1898003e-07
5.5114173e-07
3.426517e-07
4.454409e-07
9.7610295e-07
6.1779521e-07
7.7122079e-07
5.4021204e-07
3.7114978e-07
4.0412353e-07
4.9376446e-07
4.6779037e-07
9.8036124e-07
1.4184783e-06
1.6285052e-06
1.0858649e-06
7.1587445e-07
8.7749459e-07
9.5176884e-07
9.55357e-07
1.1023454e-06
7.2525174e-07
8.1130186e-07
8.9046323e-07
8.7273179e-07
9.405363e-07
9.1335171e-07
1.1583515e-06
1.2697611e-06
1.1527127e-06
1.4336702e-06
1.092765e-06
1.1172076e-06
1.1475615e-06
9.336664e-07
9.1934647e-07
8.0800863e-07
8.5938771e-07
8.9433543e-07
8.4938562e-07
9.0945897e-07
8.8336803e-07
9.174532e-07
9.2892336e-07
9.6773833e-07
9.3311182e-07
1.2170099e-07
5.4186341e-07
1.0996368e-06
1.8269482e-06
2.8640037e-06
4.5048746e-06
7.4314836e-06
1.0301489e-05
1.2174886e-05
1.0259809e-05
6.3988435e-06
4.6675654e-06
2.7614084e-06
2.3184435e-06
1.1558825e-06
5.49893e-07
6.8520146e-07
8.5270433e-07
4.6252718e-07
3.770076e-07
2.7357421e-07
2.7147231e-07
3.9557315e-07
4.4797146e-07
4.6382271e-07
6.4856663e-07
7.0049402e-07
5.2673045e-07
3.925468e-07
3.6764777e-07
4.9253491e-07
3.4974617e-07
3.8091197e-07
9.6955961e-07
5.5906392e-07
6.9116636e-07
5.0800267e-07
3.8795266e-07
3.9389971e-07
5.1189983e-07
4.5655533e-07
8.683176e-07
1.5863827e-06
1.7821668e-06
1.0018669e-06
7.5849716e-07
8.2673736e-07
1.0361247e-06
1.0225666e-06
7.4890548e-07
6.9043061e-07
7.3062002e-07
9.6935768e-07
8.7289477e-07
1.1429481e-06
1.0093206e-06
1.1053157e-06
1.3318452e-06
1.1667843e-06
1.5562319e-06
1.1384425e-06
1.0272031e-06
1.1703677e-06
1.0538027e-06
8.566084e-07
9.2175859e-07
8.6672193e-07
8.4023642e-07
9.7619261e-07
1.0286702e-06
8.9588109e-07
1.0405351e-06
1.044969e-06
1.0087939e-06
9.2201663e-07
2.7406154e-07
9.8144663e-07
1.8390047e-06
2.9678189e-06
4.8224579e-06
8.2590838e-06
1.0303395e-05
1.0402409e-05
7.8933802e-06
4.3989444e-06
2.5256442e-06
1.7182772e-06
9.2898585e-07
8.3227401e-07
3.1840359e-07
2.0313734e-07
4.4155176e-07
5.5707107e-07
4.0927735e-07
3.369822e-07
2.5985732e-07
2.3331504e-07
3.6389811e-07
4.1724965e-07
5.9687089e-07
1.0113054e-06
7.9410704e-07
5.4117741e-07
4.0793627e-07
3.6297541e-07
4.5172554e-07
3.9243273e-07
3.6507499e-07
6.4031456e-07
5.4624401e-07
6.488206e-07
4.7284596e-07
4.0813391e-07
3.9965669e-07
5.4334091e-07
5.9894934e-07
7.3695248e-07
1.0800782e-06
1.1638372e-06
8.3268678e-07
8.72297e-07
8.7876982e-07
9.4042718e-07
7.9980812e-07
6.6432371e-07
6.3898745e-07
7.1334138e-07
7.5657938e-07
7.8113839e-07
1.7554072e-06
1.6382133e-06
1.4809246e-06
1.4579026e-06
1.2017734e-06
1.5810787e-06
1.2568866e-06
9.9409439e-07
1.2794767e-06
1.1864033e-06
9.1233509e-07
8.7865885e-07
7.9218899e-07
8.3712106e-07
1.0532297e-06
1.0658267e-06
9.4465658e-07
1.0591019e-06
1.1274245e-06
1.1372141e-06
9.6519048e-07
5.7858778e-07
1.6929616e-06
2.9696301e-06
4.8355018e-06
8.5792554e-06
1.0390193e-05
8.7840264e-06
5.5588257e-06
3.4054724e-06
1.3915885e-06
8.769926e-07
5.4534181e-07
3.662065e-07
3.8094787e-07
1.8515111e-07
1.9028643e-07
3.6637254e-07
4.3335559e-07
3.7065308e-07
3.2630818e-07
2.6190783e-07
2.2688333e-07
2.7832991e-07
4.0137665e-07
5.9052466e-07
1.1905714e-06
8.5092153e-07
5.2701724e-07
4.3644346e-07
3.9673629e-07
4.3587942e-07
4.7042673e-07
3.7930477e-07
5.037192e-07
5.5159122e-07
5.8752059e-07
4.386518e-07
4.0794855e-07
4.0999518e-07
3.9849253e-07
5.4327754e-07
6.4477215e-07
8.5910709e-07
1.1107693e-06
6.6015355e-07
9.3998493e-07
9.5853877e-07
9.4839838e-07
7.629555e-07
6.6504789e-07
6.2318587e-07
7.9596256e-07
7.9269557e-07
8.0610101e-07
1.4424322e-06
1.4962361e-06
1.642181e-06
1.5223073e-06
1.1980512e-06
1.3035122e-06
1.0256519e-06
1.0447535e-06
1.2383176e-06
1.1645793e-06
1.0817563e-06
8.5807518e-07
8.0537194e-07
8.8006909e-07
9.8645852e-07
1.1414395e-06
9.6828204e-07
1.0888504e-06
1.2230346e-06
1.2174281e-06
1.0587924e-06
1.1579572e-06
2.7952712e-06
4.7348896e-06
8.2168387e-06
9.9371172e-06
7.7243066e-06
5.1795792e-06
2.7707682e-06
1.0663571e-06
4.1646254e-07
3.6226456e-07
2.1792499e-07
2.0481429e-07
2.602823e-07
1.7078949e-07
2.1218294e-07
3.3103858e-07
3.6451759e-07
3.0981262e-07
3.3101088e-07
2.8723253e-07
2.0044562e-07
2.6313015e-07
4.1137742e-07
7.5375126e-07
8.5441867e-07
6.9191706e-07
4.8906115e-07
4.9564083e-07
5.4087158e-07
4.3460956e-07
5.1797389e-07
3.9011642e-07
4.2927065e-07
5.5703625e-07
5.4757285e-07
4.6311709e-07
4.2126379e-07
4.6155276e-07
3.5338683e-07
5.8887629e-07
6.1308763e-07
7.1150893e-07
6.2057019e-07
5.6816528e-07
8.188174e-07
9.5062118e-07
9.1770687e-07
6.9170985e-07
6.1437455e-07
6.2437264e-07
7.1292638e-07
7.9976122e-07
8.7878826e-07
1.3154835e-06
1.34405e-06
1.2774968e-06
1.3092877e-06
1.1958319e-06
9.8893366e-07
8.8094541e-07
1.1838621e-06
1.1616995e-06
1.0499217e-06
9.7401106e-07
8.031911e-07
9.6003858e-07
8.7425154e-07
9.9710336e-07
1.0223757e-06
1.0142402e-06
1.1925714e-06
1.2705753e-06
1.2324234e-06
1.1103956e-06
2.2225761e-06
4.4479057e-06
7.7342097e-06
9.2670408e-06
6.8909629e-06
4.5427667e-06
2.5097904e-06
9.8075976e-07
3.1885767e-07
2.8136692e-07
2.3715887e-07
1.5903819e-07
1.6747475e-07
2.2555782e-07
1.5696385e-07
2.0721315e-07
3.0649521e-07
3.2244567e-07
2.6716575e-07
3.2553149e-07
2.9142848e-07
1.9855937e-07
2.6280002e-07
4.4067702e-07
6.5506342e-07
8.6337846e-07
6.4131967e-07
4.6316942e-07
5.6192848e-07
9.5684967e-07
4.5662281e-07
5.2300625e-07
4.196033e-07
4.2082883e-07
5.1892822e-07
5.6276554e-07
4.9306002e-07
4.4234801e-07
5.5919483e-07
4.2267597e-07
4.623472e-07
6.173904e-07
8.3316251e-07
6.3503588e-07
5.9183572e-07
6.1169559e-07
8.0498087e-07
8.1282913e-07
6.6892259e-07
6.3493063e-07
6.3294442e-07
6.771956e-07
7.0803272e-07
8.7070096e-07
1.4201992e-06
1.3639271e-06
1.1534878e-06
1.4009008e-06
1.2418978e-06
9.3674059e-07
9.4589936e-07
1.1823682e-06
1.0904703e-06
1.017279e-06
8.7940191e-07
6.8240848e-07
9.169817e-07
9.079402e-07
9.4859208e-07
9.9888686e-07
1.0438771e-06
1.1879719e-06
1.2701567e-06
1.256927e-06
1.1505648e-06
3.8571068e-06
7.0891776e-06
9.5673374e-06
7.166069e-06
4.2116143e-06
2.2917793e-06
8.9009262e-07
3.3739313e-07
1.9237845e-07
2.5879163e-07
2.0701162e-07
1.5552073e-07
1.609383e-07
2.1171921e-07
1.5389371e-07
1.8223366e-07
2.8900789e-07
2.9534402e-07
2.3892881e-07
2.9318902e-07
2.8533457e-07
1.9797225e-07
2.5402005e-07
4.4196475e-07
6.8282713e-07
6.3896524e-07
6.0395728e-07
4.920456e-07
7.1933961e-07
1.3791657e-06
4.9284673e-07
5.1612203e-07
4.3173297e-07
4.0862077e-07
4.5689725e-07
6.9608407e-07
5.2706943e-07
4.450743e-07
6.1858224e-07
5.358889e-07
4.0202551e-07
4.8429289e-07
5.1773333e-07
6.3369102e-07
5.7116761e-07
5.9684343e-07
7.2417587e-07
7.7834858e-07
6.7731274e-07
6.3172379e-07
6.5771724e-07
6.9687019e-07
7.293653e-07
7.1528463e-07
1.6335404e-06
1.3005797e-06
1.0922162e-06
1.4171078e-06
1.1983057e-06
9.7166509e-07
9.6186643e-07
1.1286424e-06
1.0319275e-06
1.1094801e-06
1.0109291e-06
6.8572203e-07
7.7409788e-07
9.4244045e-07
7.9829051e-07
9.0721278e-07
1.0547173e-06