/*--------------------------------*- C++ -*----------------------------------*\
| =========                 |                                                 |
| \\      /  F ield         | OpenFOAM: The Open Source CFD Toolbox           |
|  \\    /   O peration     | Version:  2.3.0                                 |
|   \\  /    A nd           | Web:      www.OpenFOAM.org                      |
|    \\/     M anipulation  |                                                 |
\*---------------------------------------------------------------------------*/
FoamFile
{
    version     2.0;
    format      ascii;
    class       surfaceScalarField;
    location    "3.5e-05";
    object      phi;
}
// * * * * * * * * * * * * * * * * * * * * * * * * * * * * * * * * * * * * * //

dimensions      [0 3 -1 0 0 0 0];

internalField   nonuniform List<scalar> 
14825
(
1.0343621e-09
-2.0600761e-11
1.0547758e-09
-2.0413661e-11
1.0751213e-09
-2.0345551e-11
1.0954772e-09
-2.0355823e-11
1.1158969e-09
-2.0419735e-11
1.1361081e-09
-2.0211228e-11
1.1562824e-09
-2.0174285e-11
1.1761665e-09
-1.988411e-11
1.1961522e-09
-1.9985724e-11
1.2158539e-09
-1.9701699e-11
1.235686e-09
-1.9832062e-11
1.2551153e-09
-1.9429261e-11
1.2747128e-09
-1.9597534e-11
1.2938465e-09
-1.9133656e-11
1.313079e-09
-1.923258e-11
1.3320294e-09
-1.8950369e-11
1.3508208e-09
-1.8791348e-11
1.3696066e-09
-1.8785832e-11
1.3879055e-09
-1.8298922e-11
1.4065241e-09
-1.8618567e-11
1.4242772e-09
-1.7753103e-11
1.4426692e-09
-1.839204e-11
1.4599694e-09
-1.7300131e-11
1.4779677e-09
-1.7998348e-11
1.4949826e-09
-1.7014912e-11
1.5123632e-09
-1.7380583e-11
1.5291916e-09
-1.6828448e-11
1.5458104e-09
-1.6618706e-11
1.5625493e-09
-1.6738929e-11
1.5783881e-09
-1.5838816e-11
1.5949568e-09
-1.6568743e-11
1.6100771e-09
-1.5120237e-11
1.6262981e-09
-1.6221032e-11
1.6408923e-09
-1.4594193e-11
1.6565608e-09
-1.5668517e-11
1.6707993e-09
-1.4238514e-11
1.6857248e-09
-1.4925424e-11
1.6997501e-09
-1.4025385e-11
1.7137274e-09
-1.3977291e-11
1.7275866e-09
-1.3859187e-11
1.7406318e-09
-1.3045159e-11
1.7541911e-09
-1.3559353e-11
1.7666105e-09
-1.2419354e-11
1.7795342e-09
-1.292371e-11
1.7915029e-09
-1.1968739e-11
1.8036986e-09
-1.2195663e-11
1.8151506e-09
-1.145195e-11
1.8266117e-09
-1.1461181e-11
1.8376611e-09
-1.104935e-11
1.8482915e-09
-1.0630435e-11
1.8588068e-09
-1.0515276e-11
1.8687155e-09
-9.9086583e-12
1.8787325e-09
-1.0016993e-11
1.888137e-09
-9.4045907e-12
1.8973121e-09
-9.1750801e-12
1.9059693e-09
-8.6571595e-12
1.9145994e-09
-8.6300733e-12
1.9225774e-09
-7.9780176e-12
1.9303608e-09
-7.7833782e-12
1.9379135e-09
-7.5527344e-12
1.9451629e-09
-7.2494168e-12
1.9518747e-09
-6.71179e-12
1.9581987e-09
-6.3239883e-12
1.9642728e-09
-6.0741346e-12
1.9700329e-09
-5.7601115e-12
1.9753888e-09
-5.3558748e-12
1.9805074e-09
-5.1186351e-12
1.9851394e-09
-4.6319784e-12
1.9894733e-09
-4.3339188e-12
1.9935478e-09
-4.0744382e-12
1.9971524e-09
-3.6046157e-12
2.0003098e-09
-3.157412e-12
2.0033178e-09
-3.0079795e-12
2.0060321e-09
-2.7143421e-12
-2.2427072e-12
2.862391e-09
-8.102582e-11
2.9223365e-09
-8.0359197e-11
2.9823466e-09
-8.0355609e-11
3.0423561e-09
-8.0365312e-11
3.1027408e-09
-8.0804474e-11
3.1624029e-09
-7.9873284e-11
3.2223847e-09
-8.015611e-11
3.2813407e-09
-7.8840163e-11
3.3410047e-09
-7.9649711e-11
3.3996599e-09
-7.8356824e-11
3.4590271e-09
-7.9199338e-11
3.5171762e-09
-7.7578311e-11
3.5759808e-09
-7.8402134e-11
3.6335996e-09
-7.6752504e-11
3.6914651e-09
-7.7098065e-11
3.7488807e-09
-7.6365972e-11
3.8056005e-09
-7.5511177e-11
3.8627963e-09
-7.5981549e-11
3.9182968e-09
-7.3799498e-11
3.9751765e-09
-7.5498242e-11
4.0294206e-09
-7.1997225e-11
4.0857336e-09
-7.4704979e-11
4.1390114e-09
-7.0577913e-11
4.1942796e-09
-7.3266582e-11
4.2470278e-09
-6.9763079e-11
4.3007255e-09
-7.1078337e-11
4.3530992e-09
-6.9202085e-11
4.4048698e-09
-6.8389373e-11
4.457083e-09
-6.8952104e-11
4.5069421e-09
-6.5697912e-11
4.5587661e-09
-6.8392797e-11
4.60687e-09
-6.3224118e-11
4.6577916e-09
-6.7142626e-11
4.7046194e-09
-6.1421957e-11
4.7541563e-09
-6.5205389e-11
4.8001275e-09
-6.0209763e-11
4.8478443e-09
-6.2642197e-11
4.8932036e-09
-5.9384748e-11
4.9386475e-09
-5.9421181e-11
4.9833846e-09
-5.8596232e-11
5.0266022e-09
-5.6262813e-11
5.0705788e-09
-5.7535878e-11
5.1121636e-09
-5.4004157e-11
5.1545967e-09
-5.5356875e-11
5.1948897e-09
-5.2261704e-11
5.2355547e-09
-5.2860677e-11
5.2744416e-09
-5.0338813e-11
5.3133932e-09
-5.0412819e-11
5.3509865e-09
-4.8642609e-11
5.3878968e-09
-4.7540774e-11
5.4241313e-09
-4.6749761e-11
5.4590652e-09
-4.4842564e-11
5.4941867e-09
-4.5138499e-11
5.5275984e-09
-4.2816255e-11
5.5605398e-09
-4.2116537e-11
5.592114e-09
-4.0231354e-11
5.6235113e-09
-4.0027367e-11
5.6531912e-09
-3.7657949e-11
5.6825787e-09
-3.7170813e-11
5.7111552e-09
-3.6129269e-11
5.738776e-09
-3.4870187e-11
5.7651918e-09
-3.3127646e-11
5.790619e-09
-3.1751112e-11
5.8151203e-09
-3.0575505e-11
5.8388766e-09
-2.951638e-11
5.8617803e-09
-2.8259605e-11
5.8837964e-09
-2.7134655e-11
5.9045237e-09
-2.5359281e-11
5.924596e-09
-2.4406303e-11
5.9437891e-09
-2.3267529e-11
5.9616252e-09
-2.1440651e-11
5.9786596e-09
-2.0191807e-11
5.9949886e-09
-1.933701e-11
6.0104719e-09
-1.8197641e-11
-1.6507852e-11
4.3662801e-09
-1.7919638e-10
4.4637196e-09
-1.7779875e-10
4.5619122e-09
-1.7854821e-10
4.6598127e-09
-1.7826576e-10
4.7588439e-09
-1.7983575e-10
4.8563802e-09
-1.7740951e-10
4.9552102e-09
-1.7898615e-10
5.0521186e-09
-1.7574852e-10
5.1507786e-09
-1.7830976e-10
5.2476569e-09
-1.7523512e-10
5.3460479e-09
-1.7759033e-10
5.4426533e-09
-1.7418367e-10
5.5403337e-09
-1.7608255e-10
5.6366338e-09
-1.7305263e-10
5.7331053e-09
-1.7356957e-10
5.8295348e-09
-1.727955e-10
5.9245371e-09
-1.7051342e-10
6.0209494e-09
-1.7239388e-10
6.1144613e-09
-1.6731137e-10
6.2105627e-09
-1.7159964e-10
6.3026738e-09
-1.6410835e-10
6.3980823e-09
-1.7011349e-10
6.4891194e-09
-1.61615e-10
6.5831827e-09
-1.6732986e-10
6.6737271e-09
-1.6030746e-10
6.7658577e-09
-1.6320897e-10
6.8559326e-09
-1.59277e-10
6.9456177e-09
-1.5807445e-10
7.0354814e-09
-1.5881584e-10
7.1227964e-09
-1.5301284e-10
7.2122195e-09
-1.5781595e-10
7.2971859e-09
-1.4819045e-10
7.3855016e-09
-1.5545833e-10
7.4687091e-09
-1.4462945e-10
7.5554078e-09
-1.519041e-10
7.6373056e-09
-1.4210757e-10
7.7219287e-09
-1.472653e-10
7.8026615e-09
-1.4011753e-10
7.8845742e-09
-1.4133392e-10
7.9640732e-09
-1.3809522e-10
8.0431922e-09
-1.3538182e-10
8.1217637e-09
-1.3610743e-10
8.1984279e-09
-1.3066831e-10
8.2752475e-09
-1.3217644e-10
8.3497696e-09
-1.2678384e-10
8.4244726e-09
-1.2756369e-10
8.4968712e-09
-1.2273735e-10
8.5695066e-09
-1.2304829e-10
8.6396625e-09
-1.1879848e-10
8.7096645e-09
-1.1754278e-10
8.7779431e-09
-1.1502838e-10
8.8450786e-09
-1.1197805e-10
8.9120615e-09
-1.121214e-10
8.976638e-09
-1.073927e-10
9.0407711e-09
-1.0624971e-10
9.1029088e-09
-1.0236902e-10
9.1646072e-09
-1.0172572e-10
9.2239547e-09
-9.700546e-11
9.2832748e-09
-9.6490945e-11
9.3409907e-09
-9.384515e-11
9.3972177e-09
-9.1097237e-11
9.4520278e-09
-8.7937758e-11
9.50545e-09
-8.5173245e-11
9.5572213e-09
-8.2346786e-11
9.6079454e-09
-8.0240492e-11
9.6578475e-09
-7.8161698e-11
9.7059553e-09
-7.5242498e-11
9.7523614e-09
-7.1765408e-11
9.7981032e-09
-7.0148107e-11
9.8420357e-09
-6.7200006e-11
9.884177e-09
-6.3581958e-11
9.9255811e-09
-6.1595859e-11
9.9654944e-09
-5.9250335e-11
1.0003987e-08
-5.6690687e-11
-5.3399055e-11
5.5902688e-09
-3.1299443e-10
5.7232115e-09
-3.1074152e-10
5.8580108e-09
-3.1334748e-10
5.9920057e-09
-3.1226068e-10
6.1281927e-09
-3.160227e-10
6.2620556e-09
-3.1127241e-10
6.3985043e-09
-3.1543484e-10
6.532277e-09
-3.0952124e-10
6.6688818e-09
-3.1491455e-10
6.8032658e-09
-3.0961911e-10
6.9397685e-09
-3.1409306e-10
7.0744926e-09
-3.0890774e-10
7.2103751e-09
-3.1196503e-10
7.3453392e-09
-3.0801682e-10
7.4801582e-09
-3.0838847e-10
7.615758e-09
-3.0839537e-10
7.7492562e-09
-3.0401158e-10
7.8851869e-09
-3.0832458e-10
8.0173734e-09
-2.9949789e-10
8.153069e-09
-3.0729521e-10
8.2842328e-09
-2.9527221e-10
8.4193102e-09
-3.0519085e-10
8.5496239e-09
-2.9192871e-10
8.6834165e-09
-3.0112243e-10
8.8134407e-09
-2.9033174e-10
8.9456244e-09
-2.9539262e-10
9.0750231e-09
-2.8867568e-10
9.2050174e-09
-2.8806878e-10
9.3340065e-09
-2.8780489e-10
9.461904e-09
-2.809104e-10
9.59045e-09
-2.8636193e-10
9.7158179e-09
-2.7355833e-10
9.8433601e-09
-2.8300058e-10
9.9667067e-09
-2.6797605e-10
1.0093021e-08
-2.7821842e-10
1.0214573e-08
-2.6365975e-10
1.0339359e-08
-2.7205078e-10
1.0458985e-08
-2.5974426e-10
1.0581503e-08
-2.6385152e-10
1.0699098e-08
-2.5569033e-10
1.081911e-08
-2.5539349e-10
1.0935671e-08
-2.5266841e-10
1.105277e-08
-2.4776782e-10
1.1167878e-08
-2.4728455e-10
1.1281843e-08
-2.4074794e-10
1.139512e-08
-2.4084148e-10
1.1506489e-08
-2.3410569e-10
1.161798e-08
-2.3453972e-10
1.1726245e-08
-2.2706354e-10
1.1835111e-08
-2.2640908e-10
1.1940925e-08
-2.2084238e-10
1.2046753e-08
-2.1780584e-10
1.2151338e-08
-2.1670583e-10
1.225348e-08
-2.0953469e-10
1.2355342e-08
-2.0811188e-10
1.2454846e-08
-2.0187353e-10
1.2553482e-08
-2.0036164e-10
1.2649637e-08
-1.9316037e-10
1.2746328e-08
-1.9318172e-10
1.284029e-08
-1.8780705e-10
1.2932705e-08
-1.8351219e-10
1.3023604e-08
-1.7883739e-10
1.3112893e-08
-1.7446201e-10
1.3199952e-08
-1.6940546e-10
1.3285865e-08
-1.6615317e-10
1.3371266e-08
-1.6356296e-10
1.3453591e-08
-1.5756751e-10
1.353473e-08
-1.529044e-10
1.361503e-08
-1.5044787e-10
1.3692258e-08
-1.4442879e-10
1.3768193e-08
-1.3951666e-10
1.3843353e-08
-1.3675554e-10
1.3916239e-08
-1.3213662e-10
1.3987376e-08
-1.2782719e-10
-1.2267502e-10
6.5730962e-09
-4.8031935e-10
6.7396573e-09
-4.7730255e-10
6.9092692e-09
-4.8295943e-10
7.0777106e-09
-4.8070211e-10
7.2493005e-09
-4.8761255e-10
7.4181645e-09
-4.8013642e-10
7.5906663e-09
-4.879366e-10
7.7603195e-09
-4.791745e-10
7.9335092e-09
-4.8810427e-10
8.1046409e-09
-4.8075077e-10
8.2781573e-09
-4.8760943e-10
8.4504404e-09
-4.8119083e-10
8.6237741e-09
-4.8529875e-10
8.7970252e-09
-4.8126793e-10
8.9698896e-09
-4.8125291e-10
9.1443828e-09
-4.8288855e-10
9.3164991e-09
-4.7612789e-10
9.4918505e-09
-4.8367596e-10
9.6631803e-09
-4.7082771e-10
9.8384621e-09
-4.8257697e-10
1.0009605e-08
-4.6641496e-10
1.0184538e-08
-4.8012419e-10
1.0355315e-08
-4.627051e-10
1.0529375e-08
-4.75183e-10
1.0700191e-08
-4.6114744e-10
1.0873508e-08
-4.6871027e-10
1.1043544e-08
-4.5871085e-10
1.1215651e-08
-4.6017621e-10
1.1384975e-08
-4.5712861e-10
1.1555954e-08
-4.5188981e-10
1.1724754e-08
-4.5516134e-10
1.1893516e-08
-4.4232038e-10
1.206156e-08
-4.5104452e-10
1.2228433e-08
-4.3484936e-10
1.2396008e-08
-4.4579318e-10
1.2560705e-08
-4.2835669e-10
1.2727727e-08
-4.3907348e-10
1.2889809e-08
-4.2182585e-10
1.3055658e-08
-4.2970019e-10
1.3214878e-08
-4.1491114e-10
1.3379483e-08
-4.1999779e-10
1.3537149e-08
-4.103345e-10
1.3699195e-08
-4.0981379e-10
1.3855843e-08
-4.039328e-10
1.40141e-08
-3.9900481e-10
1.4169586e-08
-3.9632811e-10
1.4325078e-08
-3.8959672e-10
1.44791e-08
-3.8856182e-10
1.4630833e-08
-3.7879653e-10
1.4783229e-08
-3.7880544e-10
1.4931842e-08
-3.69455e-10
1.5082084e-08
-3.680481e-10
1.522914e-08
-3.6376231e-10
1.5374724e-08
-3.5511862e-10
1.5520109e-08
-3.5349701e-10
1.5663062e-08
-3.4482601e-10
1.5804439e-08
-3.4173847e-10
1.594393e-08
-3.3265183e-10
1.6084467e-08
-3.3371855e-10
1.6220934e-08
-3.2427372e-10
1.6356547e-08
-3.1912583e-10
1.6490344e-08
-3.1263455e-10
1.6622788e-08
-3.0690587e-10
1.6752149e-08
-2.987664e-10
1.6881237e-08
-2.9524137e-10
1.7009273e-08
-2.9159877e-10
1.7133042e-08
-2.8133611e-10
1.7257484e-08
-2.7734677e-10
1.7380047e-08
-2.7301082e-10
1.7498713e-08
-2.6309477e-10
1.7617668e-08
-2.5847164e-10
1.7735071e-08
-2.5415868e-10
1.7849493e-08
-2.4655826e-10
1.7962097e-08
-2.4043101e-10
-2.3331961e-10
7.348858e-09
-6.7933082e-10
7.5470413e-09
-6.7548581e-10
7.7496727e-09
-6.8559087e-10
7.9508471e-09
-6.8187642e-10
8.1560419e-09
-6.9280736e-10
8.3585552e-09
-6.8264972e-10
8.5654809e-09
-6.9486229e-10
8.7698635e-09
-6.8355719e-10
8.9783194e-09
-6.9656009e-10
9.1851381e-09
-6.8756949e-10
9.3947051e-09
-6.971764e-10
9.6035934e-09
-6.9007913e-10
9.8137223e-09
-6.9542769e-10
1.0024468e-08
-6.9201376e-10
1.0235031e-08
-6.9181567e-10
1.044774e-08
-6.9559791e-10
1.065844e-08
-6.8682786e-10
1.0872792e-08
-6.9802754e-10
1.1083483e-08
-6.8151936e-10
1.1298175e-08
-6.9726892e-10
1.1509764e-08
-6.7800374e-10
1.1724765e-08
-6.9512514e-10
1.1936558e-08
-6.7449759e-10
1.2151497e-08
-6.9012265e-10
1.2363709e-08
-6.7335879e-10
1.2579004e-08
-6.840052e-10
1.2790535e-08
-6.7024251e-10
1.3006031e-08
-6.7567175e-10
1.3216754e-08
-6.6785163e-10
1.3432512e-08
-6.6764815e-10
1.3642665e-08
-6.653138e-10
1.3856985e-08
-6.5664034e-10
1.4066747e-08
-6.6080716e-10
1.4279855e-08
-6.4795724e-10
1.4490035e-08
-6.5597317e-10
1.4700971e-08
-6.3929263e-10
1.4911489e-08
-6.4959161e-10
1.5119673e-08
-6.3000998e-10
1.5330235e-08
-6.4026222e-10
1.5535173e-08
-6.1984859e-10
1.5746414e-08
-6.3123869e-10
1.5948676e-08
-6.1259695e-10
1.6159046e-08
-6.2018416e-10
1.6360217e-08
-6.0510375e-10
1.6567004e-08
-6.057912e-10
1.676757e-08
-5.9689432e-10
1.6972162e-08
-5.9418844e-10
1.7171683e-08
-5.8808329e-10
1.7372551e-08
-5.7966434e-10
1.7571793e-08
-5.7804786e-10
1.7768167e-08
-5.6582898e-10
1.7967625e-08
-5.6750524e-10
1.8161687e-08
-5.5782463e-10
1.8356101e-08
-5.4953311e-10
1.8550055e-08
-5.4745104e-10
1.8741822e-08
-5.3659267e-10
1.8931233e-08
-5.311497e-10
1.9120021e-08
-5.2143985e-10
1.9309728e-08
-5.2342509e-10
1.949439e-08
-5.0893577e-10
1.9679527e-08
-5.0426286e-10
1.9862314e-08
-4.9542155e-10
2.0044417e-08
-4.8900856e-10
2.0222053e-08
-4.7640322e-10
2.0402215e-08
-4.7540252e-10
2.0578608e-08
-4.6799256e-10
2.0751295e-08
-4.540228e-10
2.0927048e-08
-4.531e-10
2.109783e-08
-4.4379212e-10
2.1265479e-08
-4.3074411e-10
2.1435197e-08
-4.2818989e-10
2.1602101e-08
-4.2106276e-10
2.1766435e-08
-4.1089175e-10
2.1928631e-08
-4.0262731e-10
-3.9342197e-10
7.9470815e-09
-9.0817579e-10
8.174806e-09
-9.0321033e-10
8.4087219e-09
-9.1950673e-10
8.6406232e-09
-9.1377776e-10
8.8779091e-09
-9.300932e-10
9.1122343e-09
-9.1697492e-10
9.3524522e-09
-9.3508025e-10
9.5897348e-09
-9.208398e-10
9.8327755e-09
-9.3960073e-10
1.0073481e-08
-9.282753e-10
1.0318744e-08
-9.424395e-10
1.0562589e-08
-9.3392414e-10
1.0809291e-08
-9.4212944e-10
1.1056148e-08
-9.3887068e-10
1.1304274e-08
-9.3994134e-10
1.1554024e-08
-9.4534842e-10
1.1803359e-08
-9.3616255e-10
1.2055838e-08
-9.5050653e-10
1.2306102e-08
-9.3178345e-10
1.2559795e-08
-9.509618e-10
1.2812032e-08
-9.3024101e-10
1.3067245e-08
-9.5033781e-10
1.3320194e-08
-9.2744721e-10
1.357669e-08
-9.4661845e-10
1.3830412e-08
-9.2708084e-10
1.4088369e-08
-9.4196143e-10
1.4341968e-08
-9.2384211e-10
1.4601682e-08
-9.3538566e-10
1.4854911e-08
-9.2108096e-10
1.5116322e-08
-9.2905862e-10
1.5369187e-08
-9.1817848e-10
1.563024e-08
-9.1769389e-10
1.5883408e-08
-9.1397542e-10
1.6144406e-08
-9.0895489e-10
1.6398949e-08
-9.1051632e-10
1.6658508e-08
-8.9885167e-10
1.6913606e-08
-9.0468924e-10
1.7171267e-08
-8.8767115e-10
1.7427093e-08
-8.9608845e-10
1.7682449e-08
-8.7520433e-10
1.7940716e-08
-8.8950583e-10
1.8192141e-08
-8.6402135e-10
1.845232e-08
-8.8036385e-10
1.8701773e-08
-8.5455631e-10
1.8960133e-08
-8.6415127e-10
1.9208729e-08
-8.4549089e-10
1.9466274e-08
-8.5173354e-10
1.9713669e-08
-8.3547776e-10
1.996878e-08
-8.3477585e-10
2.0217264e-08
-8.2653099e-10
2.0466909e-08
-8.1547482e-10
2.0718681e-08
-8.1927707e-10
2.0963693e-08
-8.0283642e-10
2.1211412e-08
-7.9725191e-10
2.1457799e-08
-7.938378e-10
2.1702793e-08
-7.8158715e-10
2.1945355e-08
-7.7371161e-10
2.2188426e-08
-7.6451051e-10
2.2431125e-08
-7.6612425e-10
2.2669214e-08
-7.4702516e-10
2.2909029e-08
-7.4407743e-10
2.3146192e-08
-7.3258451e-10
2.3383032e-08
-7.2584844e-10
2.3614157e-08
-7.0752851e-10
2.3851819e-08
-7.1306483e-10
2.4079718e-08
-6.9589088e-10
2.4309308e-08
-6.8361326e-10
2.4541797e-08
-6.8558927e-10
2.476584e-08
-6.6783498e-10
2.4990823e-08
-6.5572671e-10
2.5217552e-08
-6.5491905e-10
2.5439101e-08
-6.4261204e-10
2.5659713e-08
-6.3150374e-10
2.5878276e-08
-6.211899e-10
-6.0969687e-10
8.3920269e-09
-1.1634958e-09
8.6486571e-09
-1.1598405e-09
8.9109268e-09
-1.1817765e-09
9.1726837e-09
-1.1755347e-09
9.4398669e-09
-1.1972764e-09
9.7048622e-09
-1.1819703e-09
9.9770557e-09
-1.2072737e-09
1.0245592e-08
-1.1893757e-09
1.0522739e-08
-1.2167486e-09
1.0795273e-08
-1.2008089e-09
1.1076366e-08
-1.223532e-09
1.1352937e-08
-1.2104953e-09
1.1636726e-08
-1.2259191e-09
1.1917523e-08
-1.2196675e-09
1.2203959e-08
-1.226377e-09
1.2488674e-08
-1.2300634e-09
1.277763e-08
-1.2251189e-09
1.306625e-08
-1.2391265e-09
1.3357267e-08
-1.2228002e-09
1.3648392e-08
-1.2420868e-09
1.394231e-08
-1.2241589e-09
1.4236721e-08
-1.244749e-09
1.4531699e-08
-1.2224256e-09
1.4829543e-08
-1.2444618e-09
1.5125392e-08
-1.2229299e-09
1.5425982e-08
-1.242552e-09
1.5722597e-08
-1.2204566e-09
1.6026638e-08
-1.2394265e-09
1.6323922e-08
-1.2183659e-09
1.6630986e-08
-1.2361223e-09
1.6928178e-08
-1.2153701e-09
1.7236231e-08
-1.2257476e-09
1.7534749e-08
-1.2124928e-09
1.7844247e-08
-1.2184526e-09
1.8145115e-08
-1.2113844e-09
1.845486e-08
-1.2085969e-09
1.8755621e-08
-1.2054508e-09
1.9065173e-08
-1.1972231e-09
1.9366639e-08
-1.1975545e-09
1.967664e-08
-1.1852053e-09
1.9980828e-08
-1.193694e-09
2.0286768e-08
-1.1699605e-09
2.0595425e-08
-1.1890217e-09
2.0898128e-08
-1.1572585e-09
2.1208678e-08
-1.1747011e-09
2.1509168e-08
-1.1459816e-09
2.1820799e-08
-1.1633643e-09
2.211894e-08
-1.1336188e-09
2.2430985e-08
-1.1468208e-09
2.2729817e-08
-1.1253634e-09
2.3037327e-08
-1.1229846e-09
2.3341787e-08
-1.123737e-09
2.3641937e-08
-1.1029858e-09
2.394573e-08
-1.1010451e-09
2.4246554e-08
-1.0946623e-09
2.4547174e-08
-1.0822065e-09
2.4846983e-08
-1.0735209e-09
2.5147494e-08
-1.0650214e-09
2.5444812e-08
-1.0634422e-09
2.5740176e-08
-1.0423892e-09
2.6038145e-08
-1.042047e-09
2.6333103e-08
-1.0275424e-09
2.6626633e-08
-1.0193776e-09
2.6917153e-08
-9.9804873e-10
2.7214646e-08
-1.0105584e-09
2.7495472e-08
-9.7671633e-10
2.7789934e-08
-9.7807592e-10
2.8077925e-08
-9.7357978e-10
2.8358945e-08
-9.4885545e-10
2.8646493e-08
-9.432745e-10
2.8932893e-08
-9.4131936e-10
2.9212657e-08
-9.2237564e-10
2.949513e-08
-9.1397648e-10
2.9773271e-08
-8.9933101e-10
-8.8612847e-10
8.7053948e-09
-1.4411825e-09
8.9921289e-09
-1.4465746e-09
9.2783403e-09
-1.4679879e-09
9.5715814e-09
-1.4687757e-09
9.8643202e-09
-1.4900152e-09
1.0161766e-08
-1.4794163e-09
1.0461916e-08
-1.5074233e-09
1.076305e-08
-1.4905103e-09
1.1071012e-08
-1.5247106e-09
1.1375959e-08
-1.5057555e-09
1.1690629e-08
-1.5382015e-09
1.1999613e-08
-1.5194797e-09
1.2319472e-08
-1.5457777e-09
1.2632999e-08
-1.5331944e-09
1.2957876e-08
-1.5512543e-09
1.3275577e-08
-1.5477642e-09
1.3605226e-08
-1.5547686e-09
1.3927297e-08
-1.5611972e-09
1.426086e-08
-1.5563635e-09
1.4586603e-08
-1.5678292e-09
1.4924212e-08
-1.5617685e-09
1.5254972e-08
-1.5755091e-09
1.5594232e-08
-1.5616852e-09
1.5931162e-08
-1.581392e-09
1.6271144e-08
-1.5629114e-09
1.6612327e-08
-1.5837352e-09
1.6954082e-08
-1.5622119e-09
1.7300678e-08
-1.5860216e-09
1.7644534e-08
-1.5622223e-09
1.7995529e-08
-1.5871175e-09
1.8338965e-08
-1.5588061e-09
1.8692832e-08
-1.5796141e-09
1.9038731e-08
-1.558392e-09
1.9395586e-08
-1.5753073e-09
1.9744712e-08
-1.5605107e-09
2.0104437e-08
-1.5683224e-09
2.0452092e-08
-1.5531051e-09
2.0813233e-08
-1.5583639e-09
2.116155e-08
-1.5458718e-09
2.1527483e-08
-1.551138e-09
2.1876335e-08
-1.5425465e-09
2.2240576e-08
-1.5342013e-09
2.2593972e-08
-1.5424174e-09
2.2954446e-08
-1.5177329e-09
2.3314372e-08
-1.5346271e-09
2.3670618e-08
-1.5022279e-09
2.403296e-08
-1.5257057e-09
2.4385479e-08
-1.4861382e-09
2.4752381e-08
-1.5137226e-09
2.5101924e-08
-1.4749066e-09
2.5469519e-08
-1.4905799e-09
2.5822675e-08
-1.4768924e-09
2.6180925e-08
-1.461236e-09
2.6539537e-08
-1.4596573e-09
2.6894591e-08
-1.4497157e-09
2.7249256e-08
-1.436872e-09
2.7607677e-08
-1.4319423e-09
2.7965802e-08
-1.4231462e-09
2.8314445e-08
-1.4120853e-09
2.8667173e-08
-1.3951171e-09
2.9023947e-08
-1.3988203e-09
2.9374505e-08
-1.3781005e-09
2.9721895e-08
-1.3667681e-09
3.00769e-08
-1.3530539e-09
3.042498e-08
-1.3586383e-09
3.0760895e-08
-1.3126307e-09
3.1123594e-08
-1.3407749e-09
3.1458018e-08
-1.3080039e-09
3.179962e-08
-1.2904573e-09
3.2148148e-08
-1.2918027e-09
3.2491511e-08
-1.2846825e-09
3.2826559e-08
-1.2574234e-09
3.3170665e-08
-1.2580825e-09
3.350756e-08
-1.2362259e-09
-1.2211284e-09
8.9111076e-09
-1.74151e-09
9.2257256e-09
-1.7611926e-09
9.5346368e-09
-1.7768991e-09
9.8585946e-09
-1.7927335e-09
1.0173904e-08
-1.8053242e-09
1.0504852e-08
-1.8103646e-09
1.0828084e-08
-1.8306553e-09
1.1164504e-08
-1.8269306e-09
1.149707e-08
-1.8572764e-09
1.1838156e-08
-1.8468419e-09
1.217976e-08
-1.8798048e-09
1.2524999e-08
-1.8647186e-09
1.2874837e-08
-1.8956159e-09
1.3224239e-08
-1.8825971e-09
1.3582624e-08
-1.9096389e-09
1.3935435e-08
-1.9005756e-09
1.4302282e-08
-1.9216155e-09
1.4658679e-08
-1.9175939e-09
1.5032629e-08
-1.9303138e-09
1.5393126e-08
-1.9283257e-09
1.5773484e-08
-1.942127e-09
1.6139169e-08
-1.9411935e-09
1.6523526e-08
-1.9460421e-09
1.6897153e-08
-1.9550194e-09
1.728307e-08
-1.9488284e-09
1.7661584e-08
-1.9622491e-09
1.8050984e-08
-1.9516118e-09
1.8436431e-08
-1.9714686e-09
1.8830095e-08
-1.9558863e-09
1.9221017e-08
-1.9780399e-09
1.9613277e-08
-1.9510654e-09
2.0009254e-08
-1.9755917e-09
2.040538e-08
-1.954518e-09
2.0805232e-08
-1.9751591e-09
2.1204937e-08
-1.9602154e-09
2.1611043e-08
-1.9744292e-09
2.2007371e-08
-1.9494327e-09
2.2414597e-08
-1.9655894e-09
2.2812976e-08
-1.9442508e-09
2.322882e-08
-1.9669821e-09
2.3623118e-08
-1.9368451e-09
2.4042829e-08
-1.9539118e-09
2.4436677e-08
-1.9362656e-09
2.4854303e-08
-1.9353589e-09
2.5257365e-08
-1.9376897e-09
2.5670261e-08
-1.9151234e-09
2.6073862e-08
-1.9293066e-09
2.648198e-08
-1.8942567e-09
2.6893895e-08
-1.9256372e-09
2.7291828e-08
-1.8728397e-09
2.7715719e-08
-1.9144709e-09
2.8108281e-08
-1.869454e-09
2.8522995e-08
-1.8759502e-09
2.8928048e-08
-1.8647099e-09
2.9332028e-08
-1.8536963e-09
2.9731922e-08
-1.8367663e-09
3.014371e-08
-1.8437296e-09
3.0552324e-08
-1.8317607e-09
3.094296e-08
-1.8027206e-09
3.1344008e-08
-1.7961651e-09
3.1756102e-08
-1.8109152e-09
3.2150397e-08
-1.7723949e-09
3.2545372e-08
-1.7617432e-09
3.2966642e-08
-1.7743243e-09
3.3343479e-08
-1.7354747e-09
3.374094e-08
-1.7100923e-09
3.416249e-08
-1.7623247e-09
3.4528208e-08
-1.673722e-09
3.4933726e-08
-1.6959748e-09
3.5328192e-08
-1.6862695e-09
3.5723742e-08
-1.680232e-09
3.6105162e-08
-1.6388434e-09
3.6501605e-08
-1.6545258e-09
3.6887821e-08
-1.6224412e-09
-1.603714e-09
9.0293718e-09
-2.0679735e-09
9.3645906e-09
-2.0964114e-09
9.6998283e-09
-2.1121368e-09
1.0047111e-08
-2.1400161e-09
1.0388204e-08
-2.146417e-09
1.0746354e-08
-2.1685149e-09
1.1094472e-08
-2.178773e-09
1.1462017e-08
-2.1944757e-09
1.1818738e-08
-2.2139979e-09
1.2194521e-08
-2.2226246e-09
1.2560044e-08
-2.2453279e-09
1.2942647e-08
-2.2473215e-09
1.3317296e-08
-2.2702654e-09
1.3705801e-08
-2.2711015e-09
1.4090812e-08
-2.2946503e-09
1.448371e-08
-2.2934735e-09
1.4880035e-08
-2.3179402e-09
1.5276545e-08
-2.3141036e-09
1.5682757e-08
-2.3365263e-09
1.6084632e-08
-2.3302005e-09
1.6499861e-08
-2.3573558e-09
1.6905787e-08
-2.3471194e-09
1.7329134e-08
-2.3693898e-09
1.7743357e-08
-2.3692419e-09
1.8170524e-08
-2.3759961e-09
1.858852e-08
-2.380245e-09
1.9022141e-08
-2.3852329e-09
1.9446362e-08
-2.3956892e-09
1.9888241e-08
-2.3977658e-09
2.0316506e-08
-2.4063041e-09
2.0756589e-08
-2.3911485e-09
2.1190249e-08
-2.4092524e-09
2.1636203e-08
-2.4004712e-09
2.2072129e-08
-2.4110854e-09
2.2521151e-08
-2.4092377e-09
2.2965351e-08
-2.4186288e-09
2.3409351e-08
-2.393433e-09
2.3849942e-08
-2.4061806e-09
2.4300008e-08
-2.3943162e-09
2.4748394e-08
-2.4153684e-09
2.5189449e-08
-2.3779003e-09
2.5649245e-08
-2.4137078e-09
2.6078263e-08
-2.3652832e-09
2.6541061e-08
-2.3981573e-09
2.6975986e-08
-2.3726144e-09
2.7437003e-08
-2.3761401e-09
2.7864842e-08
-2.3571459e-09
2.8322648e-08
-2.3520627e-09
2.8762961e-08
-2.3659508e-09
2.9202733e-08
-2.3126109e-09
2.9671917e-08
-2.3836556e-09
3.0089461e-08
-2.2869976e-09
3.0553427e-08
-2.3399158e-09
3.098695e-08
-2.2982332e-09
3.1430519e-08
-2.2972654e-09
3.1858003e-08
-2.2642499e-09
3.230441e-08
-2.2901367e-09
3.2741176e-08
-2.2685275e-09
3.3148938e-08
-2.2104822e-09
3.3595749e-08
-2.242976e-09
3.4080603e-08
-2.2957688e-09
3.4501618e-08
-2.1934101e-09
3.4941714e-08
-2.2018397e-09
3.5445618e-08
-2.2782276e-09
3.5801352e-08
-2.0912096e-09
3.6257276e-08
-2.1660157e-09
3.6735808e-08
-2.240857e-09
3.70529e-08
-1.9908133e-09
3.7488386e-08
-2.131461e-09
3.7864877e-08
-2.0627609e-09
3.825103e-08
-2.0663846e-09
3.8539883e-08
-1.9276968e-09
3.8913904e-08
-2.0285469e-09
3.9153351e-08
-1.861888e-09
-1.8693911e-09
9.0702041e-09
-2.4193395e-09
9.4226614e-09
-2.4488687e-09
9.7845504e-09
-2.4740258e-09
1.0150076e-08
-2.505542e-09
1.0519358e-08
-2.5156986e-09
1.0897875e-08
-2.5470317e-09
1.1275157e-08
-2.5560554e-09
1.1665675e-08
-2.5849935e-09
1.2051948e-08
-2.6002716e-09
1.2453906e-08
-2.6245819e-09
1.2848811e-08
-2.6402335e-09
1.326107e-08
-2.65958e-09
1.366509e-08
-2.6742856e-09
1.4086958e-08
-2.6929694e-09
1.4501105e-08
-2.7087974e-09
1.4931191e-08
-2.723559e-09
1.5357335e-08
-2.7440849e-09
1.5793249e-08
-2.7500172e-09
1.6229592e-08
-2.7728698e-09
1.6675025e-08
-2.775633e-09
1.7120147e-08
-2.8024779e-09
1.7569865e-08
-2.7968373e-09
1.8024981e-08
-2.8245061e-09
1.8484542e-08
-2.8288029e-09
1.8942913e-08
-2.8343667e-09
1.9405589e-08
-2.8429216e-09
1.9870499e-08
-2.8501431e-09
2.0337187e-08
-2.8623767e-09
2.0813238e-08
-2.8738168e-09
2.1279485e-08
-2.8725509e-09
2.1752245e-08
-2.8639083e-09
2.2221716e-08
-2.8787243e-09
2.2700434e-08
-2.8791891e-09
2.3168594e-08
-2.8792448e-09
2.3647814e-08
-2.8884579e-09
2.4122363e-08
-2.8931781e-09
2.4596777e-08
-2.8678471e-09
2.5054869e-08
-2.8642724e-09
2.5546426e-08
-2.8858731e-09
2.6007583e-08
-2.8765256e-09
2.649011e-08
-2.8604269e-09
2.6967267e-08
-2.8908654e-09
2.7420185e-08
-2.8182012e-09
2.7909135e-08
-2.8871065e-09
2.8348495e-08
-2.8119743e-09
2.8829995e-08
-2.8576407e-09
2.927336e-08
-2.8005109e-09
2.9797346e-08
-2.8760486e-09
3.024705e-08
-2.8156545e-09
3.071923e-08
-2.784791e-09
3.1231217e-08
-2.8956425e-09
3.1597291e-08
-2.6530718e-09
3.2084486e-08
-2.8271111e-09
3.2438274e-08
-2.6520207e-09
3.2816073e-08
-2.6750643e-09
3.3006357e-08
-2.4545344e-09
3.3195361e-08
-2.4791402e-09
3.3049899e-08
-2.1230654e-09
3.2942479e-08
-2.1030619e-09
3.322735e-08
-2.5278475e-09
3.3830995e-08
-2.8994138e-09
3.397771e-08
-2.3401254e-09
3.406875e-08
-2.2928793e-09
3.4461746e-08
-2.6712233e-09
3.4424155e-08
-2.0536186e-09
3.4301483e-08
-2.0433438e-09
3.4677522e-08
-2.6168962e-09
3.4385242e-08
-1.6985334e-09
3.4225072e-08
-1.9712915e-09
3.4152258e-08
-1.9899463e-09
3.3953644e-08
-1.8677707e-09
3.3507562e-08
-1.4816153e-09
3.3408748e-08
-1.9297321e-09
3.2915769e-08
-1.3689094e-09
-1.4928204e-09
9.0441301e-09
-2.7921193e-09
9.4141918e-09
-2.8189304e-09
9.7989505e-09
-2.8587845e-09
1.0183133e-08
-2.8897244e-09
1.0577089e-08
-2.9096548e-09
1.0975912e-08
-2.945855e-09
1.1379713e-08
-2.9598555e-09
1.1792172e-08
-2.9974532e-09
1.2207022e-08
-3.0151211e-09
1.2632584e-08
-3.0501444e-09
1.3058188e-08
-3.0658367e-09
1.3496085e-08
-3.0974775e-09
1.3932738e-08
-3.1109383e-09
1.4383128e-08
-3.1433599e-09
1.4830666e-08
-3.1563348e-09
1.5292323e-08
-3.1852162e-09
1.5753425e-08
-3.205187e-09
1.6221099e-08
-3.2176908e-09
1.669266e-08
-3.2444315e-09
1.7172369e-08
-3.2553413e-09
1.7651003e-08
-3.2811125e-09
1.8133052e-08
-3.278886e-09
1.8620693e-08
-3.3121471e-09
1.9111732e-08
-3.3198417e-09
1.9598298e-08
-3.3209336e-09
2.0090182e-08
-3.3348055e-09
2.057762e-08
-3.3375811e-09
2.1070888e-08
-3.3556442e-09
2.1567324e-08
-3.3702528e-09
2.2054173e-08
-3.3594001e-09
2.2541867e-08
-3.351602e-09
2.3032453e-08
-3.369311e-09
2.3525203e-08
-3.3719386e-09
2.401363e-08
-3.367672e-09
2.4496471e-08
-3.3712989e-09
2.4988318e-08
-3.385025e-09
2.5445241e-08
-3.3247703e-09
2.5931248e-08
-3.3502789e-09
2.6464556e-08
-3.4191815e-09
2.6920733e-08
-3.3327027e-09
2.7409237e-08
-3.3489305e-09
2.7864848e-08
-3.3464762e-09
2.8183642e-08
-3.1369955e-09
2.8550641e-08
-3.2541055e-09
2.8377899e-08
-2.6392321e-09
2.829167e-08
-2.7714116e-09
2.8496635e-08
-3.005476e-09
2.8930092e-08
-3.3095059e-09
2.9083756e-08
-2.9693186e-09
2.8985968e-08
-2.6870026e-09
2.9250587e-08
-3.1602619e-09
2.8894456e-08
-2.2969411e-09
2.8695733e-08
-2.6283876e-09
2.8445105e-08
-2.4013925e-09
2.801054e-08
-2.2405e-09
2.7367469e-08
-1.8114633e-09
2.6793595e-08
-1.905266e-09
2.6080966e-08
-1.4104361e-09
2.5160336e-08
-1.1824321e-09
2.4074607e-08
-1.4421186e-09
2.2953775e-08
-1.778582e-09
2.1582316e-08
-9.6866655e-10
2.0364161e-08
-1.0747242e-09
1.8994729e-08
-1.301791e-09
1.7838994e-08
-8.9788431e-10
1.6501494e-08
-7.0584332e-10
1.5284285e-08
-1.3996871e-09
1.4299399e-08
-7.1364773e-10
1.3068385e-08
-7.4027747e-10
1.1771339e-08
-6.929004e-10
1.0794008e-08
-8.9043927e-10
9.6706828e-09
-3.5829018e-10
8.87541e-09
-1.1344592e-09
8.262474e-09
-7.5597346e-10
-9.9199197e-10
8.9634164e-09
-3.1840301e-09
9.3490422e-09
-3.2045563e-09
9.7549939e-09
-3.2647362e-09
1.015591e-08
-3.2906404e-09
1.0573136e-08
-3.3268806e-09
1.0991068e-08
-3.363787e-09
1.141997e-08
-3.3887583e-09
1.1854127e-08
-3.4316092e-09
1.2296136e-08
-3.4571308e-09
1.2745699e-08
-3.4997075e-09
1.320085e-08
-3.5209871e-09
1.3665326e-08
-3.5619537e-09
1.4132703e-08
-3.5783155e-09
1.4613427e-08
-3.6240833e-09
1.5089917e-08
-3.6328255e-09
1.5584725e-08
-3.6800243e-09
1.6073288e-08
-3.6937493e-09
1.6571816e-08
-3.7162188e-09
1.7067265e-08
-3.7398811e-09
1.7575855e-08
-3.7639312e-09
1.8073713e-08
-3.7789699e-09
1.8577111e-08
-3.782284e-09
1.9079511e-08
-3.8145469e-09
1.9585417e-08
-3.8257481e-09
2.0081468e-08
-3.8169847e-09
2.0578829e-08
-3.8321662e-09
2.1077099e-08
-3.8358512e-09
2.1570707e-08
-3.8492525e-09
2.2074962e-08
-3.8745071e-09
2.2543287e-08
-3.827725e-09
2.3050593e-08
-3.8589084e-09
2.3542923e-08
-3.8616413e-09
2.4044581e-08
-3.8735967e-09
2.4453257e-08
-3.7763478e-09
2.4854184e-08
-3.7722259e-09
2.4839945e-08
-3.3707862e-09
2.4689027e-08
-3.1738514e-09
2.4922177e-08
-3.583429e-09
2.5196196e-08
-3.693201e-09
2.5150199e-08
-3.286706e-09
2.5030453e-08
-3.2291841e-09
2.4726765e-08
-3.042788e-09
2.4231397e-08
-2.6416273e-09