/*--------------------------------*- C++ -*----------------------------------*\
| =========                 |                                                 |
| \\      /  F ield         | OpenFOAM: The Open Source CFD Toolbox           |
|  \\    /   O peration     | Version:  2.3.0                                 |
|   \\  /    A nd           | Web:      www.OpenFOAM.org                      |
|    \\/     M anipulation  |                                                 |
\*---------------------------------------------------------------------------*/
FoamFile
{
    version     2.0;
    format      ascii;
    class       volScalarField;
    location    "1.45";
    object      p;
}
// * * * * * * * * * * * * * * * * * * * * * * * * * * * * * * * * * * * * * //

dimensions      [1 -1 -2 0 0 0 0];

internalField   nonuniform List<scalar> 
2268
(
755.095
757.289
781.736
785.868
764.367
738.224
735.622
755.138
780.191
802.689
823.238
843.141
862.559
882.139
903.593
927.844
950.473
968.057
982.119
994.429
1005.27
1014.67
1020.44
694.791
695.823
719.346
723.694
700.647
672.034
669.448
693.101
721.945
745.71
765.568
784.592
803.585
822.769
843.736
867.149
890.347
909.273
924.714
937.057
947.472
956.841
963.043
633.076
632.913
655.672
660.903
635.646
602.823
602.256
630.023
661.441
685.992
706.188
725.585
744.418
762.826
783.447
807.543
830.837
849.558
865.726
877.874
888.195
898.373
904.951
569.832
573.09
593.576
597.152
568.478
529.577
530.044
564.97
599.619
625.058
646.283
666.483
685.117
702.226
722.035
747.391
771.946
791.505
806.077
817.165
827.4
838.505
845.081
504.696
515.941
525.633
525.566
497.09
453.23
453.927
496.72
536.933
564.067
586.579
607.704
626.005
640.901
659.381
687.03
715.681
736.009
748.038
756.14
765.222
776.58
781.329
437.123
451.37
453.348
449.916
421.55
378.024
377.747
425.365
473.586
504.13
528.297
550.319
567.678
578.969
595.207
626.031
659.847
681.802
691.366
695.782
701.849
711.716
710.456
377.001
378.51
376.627
363.641
336.479
307.133
307.979
355.456
411.03
446.447
472.283
494.641
510.625
516.347
529.162
564.164
604.104
627.368
634.563
635.674
637.575
642.151
624.752
331.573
312.925
301.002
267.075
235.041
232.589
246.572
288.953
351.346
392.919
419.914
441.981
455.711
456.764
470.487
505.986
548.209
571.159
576.431
574.917
571.404
567.649
517.303
520.325
533.732
528.764
514.594
507.266
501.674
504.269
505.218
486.852
471.976
486.786
490.504
476.046
492.755
540.241
557.111
544.667
554.092
591.204
459.771
472.304
467.516
449.686
447.655
451.023
452.42
446.839
423.978
410.797
435.265
437.045
409.084
428.353
483.674
503.558
486.915
488.69
533.338
396.865
408.273
405.916
393.35
393.526
402.32
402.747
389.031
360.434
343.867
373.728
366.657
338.555
363.051
425.608
450.519
432.875
426.771
478.028
330.442
340.941
344.281
338.977
343.165
354.016
352.179
333.797
303.031
286.14
310.578
284.081
267.923
303.422
365.001
399.47
382.778
382.864
435.421
257.836
272.093
285.425
283.568
291.029
302.458
300.312
279.932
253.661
245.362
252.389
227.301
241.661
272.734
313.413
348.029
330.776
344.677
403.132
193.249
209.631
231.93
232.016
237.419
248.279
246.39
225.368
211.421
213.04
216.31
199.875
221.465
254.228
282.869
287.183
270.576
298.742
371.965
135.438
155.67
176.854
188.079
185.158
195.628
194.273
165.962
152.757
169.646
193.768
178.775
195.496
214.951
227.029
214.138
199.848
241.588
326.595
60.0671
101.081
116.294
144.114
140.506
143.501
139.142
103.963
89.769
109.112
158.494
157.842
163.297
156.178
150.932
134.68
127.517
181.318
273.117
261.502
238.783
194.24
136.258
102.034
123.793
164.139
198.543
263.071
315.591
344.909
365.466
377.793
389.995
407.291
430.702
458.205
477.451
481.17
476.974
462.544
430.312
282.796
172.031
152.975
84.1013
40.9573
38.0685
47.7543
87.4414
120.534
171.052
228.119
259.014
273.906
288.158
310.065
329.487
330.379
324.325
333.507
344.813
345.966
327.6
286.452
220.932
101.491
58.5541
23.3335
17.4845
21.1672
24.4535
39.1761
60.8842
91.4001
147.913
193.755
207.019
219.207
233.308
240.992
224.432
204.028
202.111
220.27
231.811
222.481
195.022
161.916
41.0738
23.9187
14.4515
11.2296
13.3913
15.6819
14.4073
19.3317
52.0772
92.0053
120.463
140.616
146.856
147.667
135.355
122.831
122.255
121.73
127.835
141.141
138.219
117.589
88.6674
17.9307
12.0072
8.12766
6.67247
7.45009
8.34183
3.48829
4.0948
-6.41316
3.42723
43.1573
70.8056
72.5451
65.9052
62.2671
68.4429
81.6957
89.1516
84.6184
80.0006
72.1417
48.279
22.7475
9.37985
4.98996
2.81476
2.31546
1.93067
1.92705
0.0824022
-5.04667
-17.792
-8.82441
7.43481
15.9035
11.8135
13.151
21.2963
25.6525
24.0728
29.407
38.0397
54.6578
59.2056
29.9907
17.2678
5.60595
2.08296
0.230545
0.306321
0.168108
-0.118277
-0.654391
-1.68663
-1.537
0.190101
1.15849
3.01109
4.80699
6.03059
7.67629
7.62958
3.8784
2.62667
2.85609
3.3884
6.66869
13.1429
13.1054
3.12297
0.419279
-0.470532
-0.308906
-0.361031
-0.577275
-0.820866
-0.984257
-0.624785
0.537305
1.46353
2.02097
2.73475
4.44717
5.25013
3.89252
0.888612
-0.583872
-0.765097
-0.379042
1.07343
4.02092
8.04326
1.42141
-0.563821
-0.72242
-0.660998
-0.751413
-0.93478
-1.0623
-0.982073
-0.526967
0.0506057
0.51835
1.1391
2.59106
3.6933
2.93677
0.6251
-1.25998
-1.79718
-1.84752
-1.24209
0.0524074
1.80149
3.98629
0.253639
-0.843435
-0.848415
-0.871525
-0.992454
-1.15428
-1.27968
-1.14271
-0.733556
-0.161798
0.321775
0.57316
0.327705
-0.565488
-0.983191
-1.54732
-2.12341
-2.40127
-2.40339
-2.0689
-1.26085
-0.264901
0.891976
-0.526173
-0.940124
-0.948614
-1.00053
-1.10568
-1.2208
-1.26477
-1.18024
-0.962775
-0.547694
-0.309639
-1.00077
-1.73229
-2.12845
-2.18024
-2.08168
-2.0502
-2.589
-2.74771
-2.60745
-2.14725
-1.61332
-1.21474
-0.89968
-1.04916
-1.02631
-1.0719
-1.14313
-1.21245
-1.21737
-1.15319
-1.11157
-1.1452
-1.57361
-1.97339
-2.08538
-2.12623
-2.19243
-2.1534
-2.01364
-2.50453
-2.85637
-2.74086
-2.55512
-2.23778
-2.15868
-1.00045
-1.07429
-1.07542
-1.12154
-1.16395
-1.20527
-1.20246
-1.16658
-1.19207
-1.42125
-1.70369
-1.94799
-2.17722
-2.36131
-2.47404
-2.46631
-2.50555
-2.22696
-2.45619
-2.51236
-2.41957
-2.17383
-2.05233
-1.06237
-1.10199
-1.11853
-1.18855
-1.23032
-1.27637
-1.29209
-1.29689
-1.33428
-1.49965
-1.75289
-2.0466
-2.34462
-2.60232
-2.79006
-2.86562
-2.91586
-2.84699
-2.35223
-2.27865
-1.80653
-1.56741
-1.50207
-1.15716
-1.16911
-1.16403
-1.27969
-1.33997
-1.41348
-1.46835
-1.51498
-1.5739
-1.71893
-1.94161
-2.22184
-2.51516
-2.7787
-2.99707
-3.14034
-3.22503
-3.30844
-3.19899
-2.45467
-1.49176
-0.825188
-0.94592
-1.31484
-1.29022
-1.26214
-1.41378
-1.49132
-1.57891
-1.65487
-1.72508
-1.80795
-1.94437
-2.14089
-2.40028
-2.66212
-2.91291
-3.14349
-3.33752
-3.4931
-3.61326
-3.72554
-3.56367
-2.654
-1.6223
-1.17092
-1.59065
-1.56468
-1.53685
-1.58731
-1.69137
-1.76946
-1.84843
-1.92648
-2.01993
-2.15259
-2.33325
-2.5533
-2.78359
-3.01539
-3.24347
-3.46926
-3.69408
-3.90976
-4.10589
-4.26968
-4.26244
-3.82736
-3.26613
-2.03565
-1.99817
-1.83605
-1.82539
-1.926
-1.98103
-2.04697
-2.11918
-2.21106
-2.33698
-2.5
-2.68956
-2.88983
-3.09478
-3.30714
-3.53843
-3.79055
-4.05685
-4.32473
-4.59698
-4.96543
-5.09911
-4.85218
-2.51305
-2.46381
-2.21052
-2.15897
-2.19599
-2.2174
-2.25643
-2.31236
-2.39323
-2.50729
-2.6527
-2.81834
-2.9913
-3.16765
-3.35389
-3.55955
-3.7884
-4.04234
-4.31919
-4.62021
-4.95697
-5.09983
-4.82741
-2.83723
-2.8206
-2.64697
-2.58439
-2.51693
-2.48182
-2.48233
-2.51395
-2.57708
-2.67413
-2.80066
-2.94437
-3.09372
-3.24493
-3.4029
-3.57125
-3.752
-3.94705
-4.1565
-4.37154
-4.54821
-4.59744
-4.40293
-3.03854
-3.08067
-3.15812
-3.07708
-2.88995
-2.76446
-2.72046
-2.72432
-2.76664
-2.84349
-2.94878
-3.07095
-3.19856
-3.32707
-3.45744
-3.59054
-3.726
-3.86343
-4.00133
-4.12798
-4.20489
-4.20219
-4.07635
-3.1806
-3.28297
-3.56836
-3.47899
-3.21071
-3.03057
-2.95583
-2.93648
-2.96006
-3.01778
-3.1019
-3.20196
-3.30743
-3.41228
-3.51516
-3.61582
-3.71303
-3.80493
-3.88818
-3.95386
-3.98419
-3.95568
-3.86587
-3.27586
-3.44182
-3.79393
-3.66682
-3.39251
-3.24059
-3.16563
-3.13942
-3.15267
-3.19631
-3.26244
-3.34162
-3.42413
-3.50362
-3.57768
-3.64617
-3.70879
-3.76411
-3.80873
-3.83626
-3.83864
-3.79661
-3.71883
-3.38672
-3.5135
-3.70786
-3.64673
-3.48422
-3.39397
-3.34452
-3.32906
-3.34285
-3.37934
-3.43244
-3.49317
-3.55223
-3.60464
-3.64823
-3.68436
-3.71477
-3.73971
-3.75695
-3.76121
-3.74571
-3.70171
-3.62997
-3.47385
-3.55195
-3.54706
-3.53695
-3.51759
-3.50742
-3.50152
-3.51085
-3.53579
-3.57325
-3.61829
-3.66508
-3.69885
-3.72031
-3.72836
-3.73082
-3.73167
-3.73235
-3.73158
-3.72363
-3.70178
-3.66
-3.59584
-3.56681
-3.57896
-3.48654
-3.49055
-3.55497
-3.61489
-3.65641
-3.69797
-3.74248
-3.7897
-3.8348
-3.86613
-3.8795
-3.86242
-3.82545
-3.79088
-3.76191
-3.74228
-3.73234
-3.72155
-3.701
-3.66466
-3.61003
-3.67123
-3.60852
-3.50098
-3.51732
-3.64854
-3.75345
-3.83437
-3.90875
-3.97905
-4.04691
-4.10837
-4.14493
-4.13775
-4.08869
-4.00185
-3.89901
-3.82042
-3.77459
-3.76063
-3.75512
-3.74021
-3.7111
-3.66606
-3.84176
-3.72558
-3.60088
-3.65532
-3.83052
-3.9509
-4.05788
-4.16119
-4.26271
-4.36614
-4.46751
-4.53412
-4.53994
-4.47678
-4.32652
-4.1243
-3.95339
-3.85351
-3.82666
-3.82857
-3.81858
-3.79421
-3.75605
-4.09681
-3.95209
-3.89367
-3.98731
-4.11678
-4.22112
-4.33947
-4.46694
-4.60653
-4.76347
-4.93039
-5.0607
-5.10768
-5.01245
-4.76629
-4.47957
-4.22751
-4.04765
-3.96318
-3.95139
-3.93826
-3.90919
-3.87163
-4.40995
-4.32489
-4.4364
-4.44938
-4.48271
-4.55402
-4.67231
-4.81825
-4.99527
-5.20328
-5.4197
-5.58816
-5.63589
-5.51356
-5.24699
-4.93778
-4.64111
-4.39467
-4.2253
-4.13424
-4.09696
-4.04746
-4.00326
-4.73995
-4.82325
-5.06543
-4.9229
-4.87155
-4.91311
-5.02791
-5.18806
-5.3958
-5.64177
-5.88713
-6.07131
-6.13644
-6.04261
-5.79306
-5.45674
-5.10862
-4.81619
-4.59009
-4.38339
-4.27231
-4.19336
-4.13831
-5.03555
-5.29028
-5.53669
-5.33304
-5.22085
-5.25195
-5.36828
-5.54495
-5.78338
-6.07278
-6.37818
-6.63441
-6.75757
-6.67954
-6.36237
-5.89532
-5.44088
-5.09288
-4.81661
-4.57288
-4.41454
-4.3244
-4.26452
-5.22272
-5.48888
-5.7007
-5.58902
-5.47458
-5.52978
-5.65961
-5.86225
-6.13934
-6.48482
-6.86695
-7.20587
-7.39444
-7.31851
-6.91246
-6.2619
-5.61895
-5.13344
-4.8075
-4.60067
-4.46802
-4.40783
-4.37039
-5.27458
-5.4498
-5.58563
-5.61399
-5.60372
-5.71975
-5.87949
-6.11815
-6.43593
-6.82714
-7.25504
-7.64322
-7.83525
-7.71014
-7.24224
-6.47778
-5.6975
-5.10417
-4.71599
-4.53302
-4.47529
-4.47013
-4.46708
-5.23121
-5.34956
-5.43727
-5.52091
-5.63779
-5.82266
-6.02019
-6.29374
-6.63594
-7.03495
-7.44757
-7.80704
-7.96504
-7.78092
-7.27451
-6.4862
-5.67666
-5.0621
-4.6731
-4.51188
-4.51262
-4.54599
-4.57042
-5.16654
-5.25272
-5.30749
-5.43025
-5.63251
-5.86552
-6.09003
-6.38147
-6.71655
-7.07234
-7.42471
-7.71071
-7.79371
-7.58428
-7.08013
-6.36076
-5.64111
-5.07442
-4.72339
-4.58585
-4.61583
-4.66135
-4.69513
-5.13312
-5.19312
-5.22011
-5.35559
-5.60117
-5.87316
-6.10522
-6.38834
-6.68046
-6.95151
-7.17662
-7.32721
-7.3643
-7.18953
-6.79374
-6.26684
-5.7168
-5.22581
-4.89448
-4.76626
-4.77564
-4.81504
-4.84414
-5.15888
-5.20601
-5.22685
-5.26588
-5.53707
-5.86022
-6.09049
-6.33702
-6.5507
-6.71127
-6.81295
-6.86509
-6.85798
-6.76171
-6.56856
-6.30914
-5.97147
-5.56373
-5.20431
-5.02414
-4.99072
-5.00064
-5.01259
-5.24334
-5.27569
-5.2957
-5.22786
-5.47255
-5.81515
-6.06009
-6.26346
-6.37574
-6.41024
-6.41407
-6.4092
-6.39125
-6.38958
-6.41871
-6.43357
-6.32011
-5.9927
-5.59288
-5.32727
-5.22821
-5.19955
-5.18966
-5.3701
-5.37995
-5.38289
-5.33264
-5.5046
-5.77684
-6.03933
-6.18013
-6.13517
-6.03456
-5.98906
-5.96468
-5.9958
-6.12122
-6.32346
-6.54473
-6.62341
-6.35865
-5.93604
-5.60516
-5.45423
-5.39291
-5.36428
-5.51706
-5.51626
-5.50593
-5.50975
-5.62225
-5.86288
-6.17239
-6.24776
-5.91348
-5.49966
-5.53645
-5.69192
-5.86738
-6.06631
-6.29085
-6.53809
-6.68521
-6.5358
-6.12503
-5.78126
-5.62259
-5.55608
-5.52395
-5.66742
-5.67576
-5.70195
-5.75364
-5.97962
-6.34461
-6.58437
-6.37303
-5.864
-5.52285
-5.6818
-5.77388
-5.95562
-6.16676
-6.3634
-6.47654
-6.40372
-6.32363
-6.10831
-5.87106
-5.73817
-5.69104
-5.66942
-3.49155
-14.1203
19.0957
17.8642
148.897
119.757
95.6841
64.0488
131.18
108.031
79.2887
59.2093
64.4172
50.4375
28.7015
24.3002
19.3278
18.164
18.4108
19.2849
17.2289
16.8581
16.4222
16.1674
14.971
15.1024
14.6486
14.2652
10.0713
10.9344
10.8313
10.4006
4.05313
3.85394
2.64104
0.577781
-0.0725653
-1.80954
-3.7691
-5.38999
-2.07725
-3.70977
-5.39277
-6.22886
-2.62118
-3.53561
-4.45187
-5.0143
-2.23014
-2.55114
-2.93285
-3.25901
-1.72781
-1.95097
-2.18338
-2.27235
-1.51675
-1.91331
-2.22
-2.33052
-1.56779
-1.96337
-2.23638
-2.3185
-3.00783
-2.91186
-2.75627
-2.61964
-4.28631
-3.74623
-3.31282
-3.08925
-4.27713
-3.8996
-3.64424
-3.5054
-4.12769
-3.94963
-3.81688
-3.74204
-3.93493
-3.85341
-3.79576
-3.75958
-3.77418
-3.71745
-3.66828
-3.63026
-3.63897
-3.58315
-3.52752
-3.47819
-3.55722
-3.50436
-3.4486
-3.39384
-3.53239
-3.48659
-3.43745
-3.38688
-3.55715
-3.51959
-3.47929
-3.43732
-3.62316
-3.59309
-3.56106
-3.52782
-3.72068
-3.69635
-3.67082
-3.6447
-3.83998
-3.81911
-3.79793
-3.77689
-3.97184
-3.95249
-3.93393
-3.91633
-4.10659
-4.08833
-4.07188
-4.05709
-4.23559
-4.21981
-4.20648
-4.19508
-4.35275
-4.34323
-4.33538
-4.32878
-4.46439
-4.46286
-4.46157
-4.46062
-4.58092
-4.58632
-4.59047
-4.5937
-4.71185
-4.72074
-4.72796
-4.7339
-4.85968
-4.8682
-4.87535
-4.88135
-5.02107
-5.02631
-5.03107
-5.03529
-5.18884
-5.1896
-5.19093
-5.19265
-5.35571
-5.35247
-5.3507
-5.35003
-5.51337
-5.50894
-5.50612
-5.5045
-5.66195
-5.65877
-5.65675
-5.65552
7.7022
48.5765
51.0797
73.0673
82.1985
86.6604
85.3884
58.1869
48.8712
40.3226
83.2512
123.518
118.154
84.6885
72.9117
39.1232
19.6524
93.9534
187.204
20.219
30.4553
34.7977
38.031
41.2182
40.646
40.6072
31.9622
28.4575
19.8376
33.6316
73.878
66.4166
53.921
44.3413
14.9452
-30.5542
-3.20866
96.0973
31.8406
28.4788
30.898
30.5574
29.0839
17.9475
15.8707
19.7238
19.1593
18.4318
24.8839
38.0364
36.8858
43.0875
31.0924
21.1908
30.5543
31.4758
66.7914
23.9734
25.4676
26.4394
22.9391
18.1669
14.7196
14.6231
15.5815
14.5694
14.6433
20.0315
22.3811
16.8279
30.2697
21.2406
17.337
16.3016
30.4811
46.9321
20.1009
19.3061
17.3555
16.5316
15.661
15.2103
15.2519
14.6407
12.2211
11.6591
13.3671
20.9177
14.902
20.3115
17.9
16.1589
15.1633
15.1092
16.4652
15.9899
14.3277
12.2114
11.8207
12.6294
14.2876
14.5684
13.3683
10.2922
9.01887
10.0861
13.3566
12.6238
10.1894
13.1454
13.4941
11.9881
12.1924
13.7655
13.7004
12.1628
10.8748
10.2632
10.8012
13.07
12.3036
9.72816
6.90246
3.94784
2.62218
5.90917
7.50853
5.15538
6.80878
8.99706
9.31524
9.52494
11.562
9.29889
8.83434
8.77837
8.69804
9.4088
10.7592
10.4011
6.19561
3.2467
1.67903
1.20166
2.38165
1.7922
2.79001
3.60845
6.60884
7.88505
8.1675
9.7027
-1.99499
2.0196
6.16578
7.02412
8.131
7.98517
5.18881
2.00642
1.4667
1.4804
1.78496
2.14627
0.265597
-1.26834
0.75844
4.51048
6.49705
7.09767
7.45112
-6.52177
-2.51684
2.2089
5.82052
7.56689
4.07493
-0.769009
-0.653968
0.577821
1.53067
1.86462
1.85823
1.70491
-1.37449
-3.73247
1.69638
4.53431
4.77839
5.18293
-6.24367
-3.8623
-0.653409
4.02518
6.83846
2.41006
-2.3179
-0.901356
0.406136
1.35078
1.73906
1.72667
1.1025
0.659465
-0.154026
1.43246
2.50967
1.65965
3.41367
-5.1794
-3.35194
-0.325489
3.26874
5.60819
1.84791
-0.948457
-0.279846
0.449701
1.23271
1.65897
1.54602
1.12914
-0.396293
-0.414685
0.715497
1.11582
-0.464822
1.83806
-3.59719
-1.76595
0.643838
3.30215
4.43808
1.28393
-0.0849923
0.194304
0.663022
1.20684
1.59359
1.14703
0.250238
-0.828052
-0.84736
0.0510824
-0.00726746
-1.39228
-0.284357
-2.25318
-0.737575
0.939845
3.1765
2.42275
-0.492918
-1.16842
-0.923707
-0.28027
0.177364
0.0616171
-0.925865
-1.41545
-1.71595
-1.56315
-1.23518
-1.36348
-2.06155
-1.92517
-1.89723
-0.475953
0.899398
2.61636
-0.229928
-1.69775
-2.0938
-2.38373
-2.3404
-2.25884
-2.34189
-2.43685
-2.45798
-2.45827
-2.44834
-2.33906
-2.3506
-2.37149
-2.32471
-2.01216
-0.833775
0.425352
1.13717
-1.73128
-2.40321
-2.64928
-2.78175
-2.71571
-2.64476
-2.62024
-2.61964
-2.59688
-2.57183
-2.5475
-2.52766
-2.50052
-2.49361
-2.45956
-2.4144
-1.71954
-0.66815
-1.14356
-2.58983
-3.03771
-3.20314
-3.14852
-2.96661
-2.84525
-2.7919
-2.76117
-2.72017
-2.67984
-2.64733
-2.6224
-2.60181
-2.58339
-2.56491
-2.90486
-2.58607
-1.79807
-2.42352
-3.42464
-3.68825
-3.72493
-3.45638
-3.18647
-3.02729
-2.94781
-2.8954
-2.84536
-2.79817
-2.75856
-2.7299
-2.71542
-2.69922
-2.68484
-3.37053
-3.21152
-2.62578
-3.07264
-4.15644
-4.23413
-4.16197
-3.69972
-3.36304
-3.18463
-3.08882
-3.0244
-2.97178
-2.92427
-2.88135
-2.8489
-2.83359
-2.82374
-2.81285
-3.66272
-3.57179
-3.20209
-3.29697
-4.59948
-4.51157
-4.29003
-3.8041
-3.45964
-3.29311
-3.2029
-3.14222
-3.09501
-3.05134
-3.00832
-2.97305
-2.95489
-2.94735
-2.94048
-3.71051
-3.64956
-3.33811
-3.57729
-4.37808
-4.31736
-4.05067
-3.69559
-3.45998
-3.34782
-3.28712
-3.24529
-3.20985
-3.17275
-3.13224
-3.09767
-3.0773
-3.07162
-3.06603
-3.57268
-3.46831
-3.16293
-3.19039
-3.57271
-3.71595
-3.64368
-3.50191
-3.40887
-3.36978
-3.35068
-3.33401
-3.31256
-3.28304
-3.24752
-3.21767
-3.20116
-3.19471
-3.18942
-3.39419
-3.22506
-2.93318
-2.81774
-3.00078
-3.2202
-3.32208
-3.34886
-3.36428
-3.38662
-3.40447
-3.41016
-3.40276
-3.38219
-3.35545
-3.33321
-3.32432
-3.31543
-3.3105
-3.29258
-3.10185
-2.86618
-2.73447
-2.84236
-3.0512
-3.20163
-3.29224
-3.36067
-3.41824
-3.45915
-3.48027
-3.48307
-3.47381
-3.45985
-3.44698
-3.44114
-3.4334
-3.42943
-3.29228
-3.12925
-2.96423
-2.86615
-2.94825
-3.09774
-3.22848
-3.32796
-3.40859
-3.47468
-3.52291
-3.55133
-3.56303
-3.56488
-3.56251
-3.55993
-3.55428
-3.54941
-3.54687
-3.3605
-3.23934
-3.13133
-3.07442
-3.13249
-3.23335
-3.33731
-3.42626
-3.49861
-3.55818
-3.60296
-3.63327
-3.65184
-3.6638
-3.66893
-3.66962
-3.66682
-3.66477
-3.66355
-3.46862
-3.38235
-3.31303
-3.28326
-3.32167
-3.39188
-3.472
-3.54661
-3.61041
-3.66117
-3.70081
-3.73234
-3.75475
-3.76863
-3.77634
-3.77924
-3.77998
-3.78035
-3.78016
-3.59952
-3.53829
-3.49325
-3.47739
-3.50295
-3.55228
-3.61254
-3.67262
-3.72687
-3.77337
-3.81185
-3.84071
-3.86185
-3.87656
-3.88582
-3.89141
-3.89477
-3.89674
-3.89732
-3.74182
-3.69788
-3.66807
-3.65951
-3.67733
-3.71264
-3.75783
-3.80553
-3.85089
-3.89124
-3.92506
-3.9517
-3.97319
-3.98866
-3.99942
-4.00663
-4.01141
-4.01433
-4.01545
-3.88837
-3.85645
-3.83667
-3.83262
-3.84603
-3.87258
-3.90709
-3.94487
-3.98208
-4.0162
-4.04584
-4.07043
-4.09017
-4.10532
-4.1165
-4.12442
-4.1299
-4.13336
-4.13486
-4.03482
-4.01187
-3.99916
-3.99815
-4.00906
-4.03029
-4.05708
-4.08709
-4.11742
-4.14597
-4.17147
-4.19327
-4.21126
-4.22556
-4.2365
-4.24455
-4.25026
-4.25395
-4.25567
-4.17875
-4.16351
-4.15637
-4.15774
-4.16749
-4.18458
-4.20605
-4.23017
-4.25495
-4.27876
-4.30051
-4.31955
-4.33564
-4.34876
-4.35908
-4.36685
-4.37247
-4.37615
-4.37794
-4.31957
-4.31178
-4.30945
-4.3129
-4.32207
-4.33627
-4.35385
-4.37348
-4.39381
-4.41362
-4.43203
-4.44847
-4.46262
-4.47439
-4.48385
-4.49112
-4.49642
-4.49992
-4.50167
-4.45875
-4.45789
-4.45972
-4.46493
-4.47377
-4.48594
-4.50062
-4.51674
-4.53346
-4.54991
-4.56539
-4.57941
-4.59168
-4.60205
-4.61051
-4.61712
-4.62198
-4.62519
-4.62681
-4.59864
-4.60345
-4.60848
-4.61497
-4.62348
-4.634
-4.6466
-4.65982
-4.67356
-4.68716
-4.70008
-4.71192
-4.72239
-4.73137
-4.73877
-4.74462
-4.74896
-4.75184
-4.7533
-4.74225
-4.75007
-4.7569
-4.76397
-4.77198
-4.78115
-4.79175
-4.80266
-4.81392
-4.82509
-4.83576
-4.84561
-4.85441
-4.86202
-4.86837
-4.87342
-4.87719
-4.8797
-4.88098
-4.88979
-4.89849
-4.90568
-4.91257
-4.9198
-4.92768
-4.93637
-4.94532
-4.95445
-4.9635
-4.97216
-4.98021
-4.98745
-4.99376
-4.99905
-5.0033
-5.00648
-5.00862
-5.00969
-5.04167
-5.04878
-5.0551
-5.06111
-5.06726
-5.07376
-5.08072
-5.08787
-5.09511
-5.10226
-5.10912
-5.11551
-5.12129
-5.12636
-5.13063
-5.13408
-5.13667
-5.13842
-5.13927
-5.19589
-5.20029
-5.20499
-5.20968
-5.21452
-5.21959
-5.22492
-5.23037
-5.23587
-5.24128
-5.24648
-5.25134
-5.25575
-5.25963
-5.26291
-5.26557
-5.26757
-5.26893
-5.26958
-5.35017
-5.35223
-5.35506
-5.35824
-5.36166
-5.36526
-5.36902
-5.37286
-5.37671
-5.38051
-5.38415
-5.38756
-5.39066
-5.3934
-5.39572
-5.39761
-5.39903
-5.39999
-5.40045
-5.50314
-5.50354
-5.50492
-5.50667
-5.50867
-5.51081
-5.51305
-5.51533
-5.51761
-5.51986
-5.52202
-5.52404
-5.52588
-5.52751
-5.52889
-5.53002
-5.53087
-5.53144
-5.53171
-5.65434
-5.65409
-5.65442
-5.65494
-5.65559
-5.65629
-5.65704
-5.65779
-5.65855
-5.65929
-5.66001
-5.66067
-5.66128
-5.66182
-5.66228
-5.66265
-5.66293
-5.66312
-5.66322
)
;

boundaryField
{
    leftWall
    {
        type            calculated;
        value           nonuniform List<scalar> 
50
(
755.095
694.791
633.076
569.832
504.696
437.123
377.001
331.573
261.502
172.031
101.491
41.0738
17.9307
9.37985
5.60595
3.12297
1.42141
0.253639
-0.526173
-0.89968
-1.00045
-1.06237
-1.15716
-1.31484
-1.59065
-2.03565
-2.51305
-2.83723
-3.03854
-3.1806
-3.27586
-3.38672
-3.47385
-3.56681
-3.67123
-3.84176
-4.09681
-4.40995
-4.73995
-5.03555
-5.22272
-5.27458
-5.23121
-5.16654
-5.13312
-5.15888
-5.24334
-5.3701
-5.51706
-5.66742
)
;
    }
    rightWall
    {
        type            calculated;
        value           nonuniform List<scalar> 
50
(
591.204
533.338
478.028
435.421
403.132
371.965
326.595
273.117
187.204
96.0973
66.7914
46.9321
16.4652
13.7655
11.562
9.7027
7.45112
5.18293
3.41367
1.83806
-0.284357
-1.92517
-2.32471
-2.45956
-2.56491
-2.68484
-2.81285
-2.94048
-3.06603
-3.18942
-3.3105
-3.42943
-3.54687
-3.66355
-3.78016
-3.89732
-4.01545
-4.13486
-4.25567
-4.37794
-4.50167
-4.62681
-4.7533
-4.88098
-5.00969
-5.13927
-5.26958
-5.40045
-5.53171
-5.66322
)
;
    }
    lowerWall
    {
        type            calculated;
        value           nonuniform List<scalar> 
62
(
784.524
786.718
811.165
815.295
793.796
767.653
765.052
784.567
809.62
832.118
852.668
872.571
891.988
911.568
933.02
957.273
979.902
997.282
1010.97
1023.28
1034.26
1044.1
1049.87
1020.44
963.043
904.951
845.081
781.329
710.456
624.752
517.303
59.1018
48.4733
81.6842
80.4539
520.325
459.771
396.865
330.442
257.836
193.249
135.438
60.0671
549.576
562.985
558.016
543.846
535.924
527.031
529.631
531.235
512.928
497.939
513.377
519.373
504.986
521.695
566.654
583.513
571.893
580.222
617.334
)
;
    }
    atmosphere
    {
        type            calculated;
        value           nonuniform List<scalar> 
46
(
-5.7316
-5.73091
-5.73012
-5.73068
-6.09293
-6.72906
-7.22077
-7.15345
-6.5401
-5.74517
-5.77151
-5.86643
-6.03927
-6.26377
-6.47881
-6.53757
-6.07859
-5.73981
-5.97821
-5.79079
-5.72978
-5.72905
-5.72904
-5.72904
-5.72904
-5.72904
-5.72904
-5.72904
-5.72904
-5.72904
-5.72904
-5.72904
-5.72904
-5.72904
-5.72904
-5.72904
-5.72904
-5.72904
-5.72904
-5.72904
-5.72904
-5.72904
-5.72904
-5.72904
-5.72904
-5.72904
)
;
    }
    defaultFaces
    {
        type            empty;
    }
}


// ************************************************************************* //
