/*--------------------------------*- C++ -*----------------------------------*\
| =========                 |                                                 |
| \\      /  F ield         | OpenFOAM: The Open Source CFD Toolbox           |
|  \\    /   O peration     | Version:  2.3.0                                 |
|   \\  /    A nd           | Web:      www.OpenFOAM.org                      |
|    \\/     M anipulation  |                                                 |
\*---------------------------------------------------------------------------*/
FoamFile
{
    version     2.0;
    format      ascii;
    class       volScalarField;
    location    "1.45";
    object      p_rgh;
}
// * * * * * * * * * * * * * * * * * * * * * * * * * * * * * * * * * * * * * //

dimensions      [1 -1 -2 0 0 0 0];

internalField   nonuniform List<scalar> 
2268
(
784.524
786.718
811.165
815.295
793.796
767.653
765.052
784.567
809.62
832.118
852.668
872.571
891.988
911.568
933.02
957.273
979.902
997.282
1010.97
1023.28
1034.26
1044.1
1049.87
783.079
784.112
807.479
810.926
788.395
760.291
757.735
781.39
810.233
833.998
853.856
872.88
891.873
911.046
931.908
955.312
978.626
997.543
1012.81
1024.76
1034.87
1044.77
1051.33
780.223
777.884
785.826
785.082
761.415
742.977
749.331
777.169
808.587
833.139
853.334
872.73
891.564
909.973
930.594
953.906
975.97
996.033
1012.74
1024.91
1035.15
1045.12
1052.02
774.003
738.098
758.825
763.538
735.758
698.842
729.232
770.956
805.622
831.052
852.234
872.448
891.119
908.231
928.04
953.213
971.891
990.45
1010.06
1023.09
1033.33
1044.44
1051.04
762.629
723.207
766.057
776.71
713.62
667.846
688.919
760.607
801.771
828.85
851.359
872.494
890.861
905.765
924.245
951.894
974.343
991.663
1003.57
1017.43
1030.05
1041.41
1046.16
752.267
725.564
763.149
759.713
730.487
640.333
643.28
740.68
797.25
827.817
851.984
874.018
891.392
902.691
918.929
949.75
981.105
994.115
1003.67
1008.08
1022.25
1035.4
1034.14
655.827
744.637
742.754
729.769
702.074
630.188
606.582
705.633
793.517
829.003
854.843
877.202
893.195
898.923
910.143
944.112
984.233
1001.42
1003.64
1004.75
1009.31
1024.36
1007.29
633.626
734.256
723.456
689.293
655.006
641.293
589.815
695.608
792.652
834.327
861.329
883.396
896.935
842.107
791.706
871.798
982.657
1011.27
1006.58
1000.77
1002.52
1008.8
958.676
549.576
562.985
558.016
543.846
535.924
527.031
529.631
531.235
512.928
497.939
513.377
519.373
504.986
521.695
566.654
583.513
571.893
580.222
617.334
547.534
560.067
554.893
537.393
530.514
526.821
531.698
533.604
510.785
496.655
521.578
523.851
495.905
515.173
566.078
582.764
568.842
571.59
615.263
543.137
554.545
552.188
521.779
519.856
528.703
539.186
533.711
505.125
488.571
518.419
511.326
474.042
507.752
569.855
583.119
565.068
563.34
616.022
535.223
545.721
549.05
535.055
520.289
533.513
549.276
534.137
505.617
488.727
513.164
464.08
338.862
440.079
563.784
596.952
567.598
567.553
624.446
521.125
534.869
547.073
543.414
544.555
561.527
558.806
524.17
514.09
505.83
502.302
293.311
269.818
301.228
440.789
587.555
584.406
582.769
641.292
515.055
531.428
516.954
483.603
555.383
566.802
559.413
523.897
525.723
524.981
377.33
234.13
255.794
289.909
352.236
553.156
586.991
615.648
665.045
515.8
536.017
485.769
412.577
516.703
572.064
568.165
521.706
523.38
537.361
353.68
219.259
237.913
448.213
547.809
565.614
574.365
616.207
674.616
500.214
432.808
360.843
404.611
423.026
562.464
569.969
449.565
400.464
530.615
493.923
204.54
228.912
522.253
552.325
566.712
559.77
613.584
675.104
677.362
747.391
704.477
560.79
466.2
528.805
568.555
637.902
786.215
848.98
878.337
898.902
876.001
667.191
669.69
785.669
984.904
1010.28
1014.22
1009.1
995.114
962.939
816.098
798.849
760.072
514.557
205.033
92.6381
225.389
511.008
576.556
789.918
886.573
917.58
925.63
663.456
632.306
652.566
817.657
980.128
992.042
1003.44
1004.61
986.243
944.847
879.359
778.184
302.166
27.5992
22.2979
25.5122
29.6363
327.067
683.518
855.287
931.183
977.364
726.078
601.914
617.721
828.867
1006.52
987.712
985.921
1004.1
1015.65
1006.32
978.857
945.746
178.72
28.849
18.4252
16.5287
17.8291
20.1016
116.283
456.322
662.859
627.489
611.676
584.676
591.423
759.929
867.859
856.193
973.337
1030.43
1036.85
1050.17
1047.25
1026.62
991.9
36.856
28.2644
12.201
9.16527
12.0502
12.9741
6.12039
242.529
614.901
659.758
700.998
722.026
708.494
640.927
405.541
360.565
621.623
959.886
1095.99
1114.21
1106.36
934.496
386.696
23.7117
23.8885
7.488
3.5679
6.52118
6.8804
1.593
-2.58996
189.967
673.541
599.987
294.028
129.011
120.264
135.934
175.246
338.763
510.071
604.777
795.414
933.686
655.309
84.3933
12.7741
6.93143
4.01102
1.61707
1.66411
1.58442
0.686986
-0.186114
36.6234
67.8611
4.01821
4.73505
7.64365
9.84251
19.8813
20.2437
12.4871
10.8367
17.0284
56.7033
138.342
205.995
97.1736
15.307
9.98485
1.59605
1.10714
1.0566
0.854171
0.609715
0.457681
1.00503
2.41844
3.04997
3.91375
9.02298
23.1859
39.2268
37.3037
20.3446
4.01999
2.62844
2.86995
4.38112
8.03126
69.8215
17.3259
15.3407
0.995956
0.880794
0.8085
0.701247
0.492596
0.562806
1.04485
1.63655
2.10811
15.1669
39.797
40.8993
40.145
37.6868
24.6029
2.22405
1.54634
2.1526
3.41992
5.1315
22.7742
17.4553
16.1946
0.812991
0.798383
0.715609
0.519629
0.391008
0.52812
0.939828
1.53376
2.03706
30.5174
39.8917
38.7549
32.2886
17.6943
1.83334
1.31794
1.28552
1.62277
2.39851
3.34335
4.13965
17.1581
15.6808
0.837634
0.789498
0.721522
0.578104
0.531909
0.616439
0.834613
4.07123
24.5456
28.3748
10.7822
-0.316095
-0.373011
-0.275391
6.30276
5.15482
1.32751
1.34671
1.85527
2.2557
1.91738
3.13118
4.79748
0.884713
0.839117
0.767839
0.713146
0.705138
0.769846
1.08647
6.71377
6.47386
-0.0228243
-0.149405
-0.192282
-0.259491
-0.220219
12.9917
20.6533
4.82287
1.51842
1.68286
2.03333
2.08867
1.07905
0.967298
0.960826
0.914639
0.872146
0.83246
0.844361
0.945449
1.08706
1.12523
0.335107
0.101827
-0.118842
-0.27546
-0.407265
-0.406704
7.48977
22.4483
19.714
2.02345
2.11676
2.35871
2.49704
1.17703
1.10139
1.0585
0.972759
0.930976
0.885108
0.888979
0.892552
0.849354
0.661455
0.408922
0.144263
-0.0196364
-0.259649
-0.448663
-0.646352
-0.743514
8.77831
20.8637
17.5188
2.98468
3.25147
3.29187
1.24382
1.21054
1.17933
1.00681
0.946426
0.874223
0.82183
0.771544
0.712304
0.567281
0.385122
0.256682
-0.0367095
-0.300336
-0.518693
-0.693428
-0.933706
-1.01681
9.89774
18.9277
17.8898
5.85375
4.07364
1.72993
1.55744
2.05893
1.00836
0.920074
0.832471
0.75652
0.686309
0.603435
0.468565
0.391612
0.21397
-0.0478709
-0.298726
-0.57379
-0.8949
-1.07807
-1.19768
-1.30842
11.9412
17.8654
18.8457
15.2834
2.14335
7.00845
9.84136
1.16647
0.845214
0.767123
0.688148
0.610095
0.516651
0.384119
0.30281
0.197315
-0.0337576
-0.299616
-0.706698
-0.932458
-1.1572
-1.36597
-1.56208
-1.71717
11.6914
17.2789
17.4262
2.29693
11.0077
11.1698
1.84697
0.735859
0.680749
0.614808
0.542594
0.450712
0.32487
0.188449
0.196858
-0.0058528
-0.385119
-0.645211
-0.876478
-1.12858
-1.39467
-1.63758
-1.79919
-1.43164
8.34003
13.4215
2.00843
8.02465
11.407
4.5376
0.591543
0.569556
0.53054
0.474607
0.393738
0.27968
0.134276
0.0135089
-0.0609857
-0.374122
-0.566808
-0.772443
-1.00132
-1.25504
-1.52337
-1.75155
-2.01601
-2.00734
-1.20863
1.88736
2.00009
10.6702
8.16047
0.554539
0.430328
0.429831
0.398213
0.335083
0.238036
0.111506
-0.0322054
-0.181556
-0.325623
-0.490634
-0.658961
-0.839787
-1.03487
-1.24325
-1.44955
-1.62163
-1.67905
-1.47701
3.70673
4.17487
3.20212
8.11171
0.862121
0.272894
0.316893
0.313038
0.270717
0.193865
0.0885798
-0.0335973
-0.161203
-0.289712
-0.41999
-0.55304
-0.688586
-0.826075
-0.963965
-1.0903
-1.16625
-1.16371
-1.03815
5.86357
5.73946
2.97772
8.02739
0.500014
0.131984
0.206725
0.226071
0.202493
0.144768
0.0606567
-0.0394098
-0.144875
-0.249724
-0.352611
-0.453266
-0.550478
-0.642379
-0.725626
-0.79129
-0.821597
-0.793089
-0.703267
4.94476
5.95915
2.97252
7.04177
-0.104759
0.0471606
0.122116
0.148328
0.135074
0.0914389
0.0253053
-0.0538715
-0.136387
-0.215876
-0.289932
-0.358419
-0.421042
-0.476364
-0.52098
-0.548511
-0.550892
-0.508859
-0.431077
0.438094
6.20693
3.3408
1.5004
-0.071282
0.0189663
0.0684191
0.0838774
0.0700903
0.033606
-0.0194977
-0.0802298
-0.139283
-0.191699
-0.235291
-0.271415
-0.301826
-0.326771
-0.344007
-0.348272
-0.332768
-0.288767
-0.217025
0.486047
5.80655
3.99482
0.135522
0.0205496
0.0307117
0.0366205
0.0272861
0.00234947
-0.0351147
-0.0801569
-0.126897
-0.160663
-0.182123
-0.190139
-0.192656
-0.193508
-0.194212
-0.193441
-0.185496
-0.163643
-0.121859
-0.0577074
0.563994
0.900954
4.18425
0.452309
0.108361
0.0484413
0.00692489
-0.0346384
-0.0791451
-0.126372
-0.17146
-0.201943
-0.214135
-0.197577
-0.160594
-0.126082
-0.098203
-0.0789455
-0.0690236
-0.0582239
-0.037666
-0.00133159
0.053303
0.476022
0.54977
2.64266
1.12302
0.13999
0.0350774
-0.0458414
-0.120229
-0.190516
-0.25837
-0.319702
-0.352108
-0.26856
-0.0213716
0.344526
0.164077
-0.0243941
0.0153919
0.0278938
0.0334031
0.0483102
0.0774232
0.122462
0.418104
0.534288
3.34114
2.91218
0.0831977
-0.0371768
-0.144162
-0.24746
-0.348921
-0.451891
-0.551024
-0.604905
0.226707
2.71563
3.38839
3.50687
1.34351
0.329183
0.0873725
0.0851443
0.0951361
0.119514
0.157667
0.299326
0.489963
7.12152
3.85176
-0.0778622
-0.182208
-0.300547
-0.427948
-0.567021
-0.721294
-0.873584
-0.67114
2.38515
2.94925
3.20347
3.49018
3.74267
3.7765
0.797306
0.0875228
0.10065
0.129723
0.167282
0.123321
3.13711
6.93181
3.52051
-0.318598
-0.38943
-0.504566
-0.651558
-0.828506
-1.03435
-1.24255
-1.34519
-0.241663
1.74879
2.66437
3.27901
3.57356
3.79463
3.94144
0.291373
0.067151
0.116651
0.160852
-0.0368806
6.86878
6.63552
2.85382
-0.58222
-0.622623
-0.73201
-0.892289
-1.10177
-1.34516
-1.56109
-1.71786
-1.7818
-1.68254
-1.40569
-0.641577
2.06639
3.59532
3.76478
2.97564
0.0169896
0.0959397
0.150989
0.00498245
6.73126
6.4966
4.02393
-0.806249
-0.834505
-0.94696
-1.12366
-1.36529
-1.65365
-1.95598
-2.202
-2.2257
-2.01726
-1.80456
-1.38581
-1.00597
0.200615
3.08773
2.69104
-4.65701e-05
0.0901001
0.149977
-0.277911
2.49014
6.66169
4.45935
-0.934626
-0.983075
-1.1129
-1.31554
-1.59676
-1.94184
-2.32223
-2.59997
-1.864
-1.59453
-1.46597
-1.52453
-1.07173
-0.588527
-0.263961
0.280962
0.153397
0.131864
0.169301
-0.458064
-0.627072
2.33803
1.87483
-0.93827
-1.04834
-1.2074
-1.44783
-1.76937
-2.15971
-2.55285
-2.09243
-1.95181
-1.82713
-1.35774
-0.594335
-0.962469
-0.435321
-0.0479102
0.138611
0.513755
0.194753
0.197803
-0.285434
-0.295208
0.605869
-0.730855
-0.847071
-1.03012
-1.2236
-1.50276
-1.84483
-2.24318
-2.52662
-1.76325
-1.9222
-1.73958
-1.23565
-0.45185
-0.551162
-0.265559
0.119634
0.280266
0.315044
0.244094
0.219666
-0.11028
1.16266
1.72475
-0.514384
-0.716465
-0.949462
-1.17367
-1.46544
-1.80049
-2.14404
-1.88745
-1.51898
-1.59409
-1.38756
-0.880491
-0.276384
-0.460917
-0.154254
0.192977
0.329472
0.299449
0.253922
0.220142
0.00948556
1.90992
2.56438
-0.314327
-0.559907
-0.831898
-1.06397
-1.34712
-1.63924
-1.91023
-1.74624
-1.07725
-1.0928
-0.827711
-0.54489
-1.06428
-0.636553
-0.160187
0.158874
0.281139
0.265569
0.225434
0.196325
0.0537402
2.04886
2.78889
-0.09941
-0.370604
-0.693764
-0.924052
-1.17059
-1.38427
-1.54483
-1.58362
-1.53335
-1.54712
-1.16937
-1.12524
-1.06629
-0.743675
-0.308199
0.240196
0.301539
0.178315
0.165033
0.153073
0.0486554
1.13507
2.92338
1.32529
-0.180879
-0.523484
-0.76845
-0.971822
-1.08409
-1.1186
-1.12243
-1.04309
-1.00409
-0.670835
-0.900211
-1.09384
-0.968169
-0.450823
0.163675
0.256989
0.0669532
0.0913188
0.101201
0.0459521
0.0784345
2.44883
3.12566
1.70671
-0.289518
-0.623056
-0.763278
-0.718316
-0.617699
-0.206109
0.262739
0.179327
-0.519597
-0.90731
-1.11052
-1.03293
-0.465879
-0.0416557
0.15039
-0.0320244
0.0231518
0.0517765
0.0241906
0.0249844
0.0417748
1.52949
2.23413
1.9935
0.758883
-0.70406
-0.371216
0.95517
1.25107
0.700138
-0.322142
-0.525063
-0.749604
-0.983457
-0.659373
-0.505165
-0.0949293
0.106206
-0.0743933
-0.0148276
0.0172944
-0.000973935
-0.00931886
-0.0355024
-0.087197
0.0467362
0.310926
0.557499
0.702261
0.604639
0.159549
-0.0153597
-0.107439
-0.289181
-0.500313
-0.696954
-0.810101
-0.617044
-0.265956
-0.195424
-0.14354
-0.0709969
-0.0245874
-0.00298173
529.942
519.315
552.488
551.267
807.515
778.386
754.314
722.675
915.001
891.849
863.107
789.584
910.778
709.004
208.232
29.7793
33.456
22.8548
23.0729
24.0566
22.4478
21.5594
21.1697
21.18
20.0909
20.3181
19.8619
19.5241
16.5934
16.6545
18.7863
27.3745
11.2137
14.8759
22.3013
20.5617
5.02338
11.5633
16.5014
11.8062
1.30251
5.00451
2.33516
-0.835377
1.27753
0.339356
-0.34053
-0.253563
2.24526
1.71519
1.5455
1.43755
3.01471
2.74938
2.39506
6.98125
3.28069
2.86794
2.40526
8.46491
5.18198
2.91922
2.12883
3.16088
17.4267
6.74981
0.735482
0.318546
11.4111
3.61313
-0.319698
-0.313917
-0.724885
-0.117609
-0.670052
-0.685842
-1.19736
-1.02503
-0.894859
-0.816215
-0.896275
-0.814511
-0.755728
-0.715644
-0.611481
-0.554547
-0.504802
-0.465693
-0.351198
-0.295314
-0.239541
-0.189964
-0.144275
-0.0913995
-0.0355951
0.0191767
0.00575082
0.0515466
0.100691
0.151262
0.10618
0.143741
0.184042
0.226013
0.165361
0.195431
0.227462
0.260702
0.193035
0.217372
0.242903
0.26902
0.198931
0.219805
0.240986
0.262026
0.192271
0.211619
0.230179
0.24778
0.182718
0.200975
0.217424
0.23221
0.178903
0.194688
0.208019
0.219413
0.18694
0.19646
0.204313
0.210907
0.200496
0.202031
0.203315
0.204263
0.209164
0.203765
0.19961
0.196381
0.203425
0.194532
0.187315
0.181379
0.180792
0.172266
0.165124
0.159124
0.144595
0.13935
0.134598
0.130374
0.102021
0.101258
0.0999247
0.0982112
0.0603473
0.0635838
0.0653553
0.0660188
0.0278796
0.0323044
0.0351262
0.0367531
0.00449168
0.0076745
0.00969051
0.0109218
541.103
243.465
139.307
313.319
423.807
424.773
448.501
190.288
114.756
250.006
374.834
180.76
227.092
289.389
217.448
424.248
541.991
616.334
681.255
492.656
55.0566
41.4058
77.055
161.574
306.16
316.12
62.6166
56.5408
73.1464
98.9027
190.657
206.315
78.776
65.4339
217.289
614.417
641.765
741.069
155.429
36.343
38.7622
46.6595
145.722
85.5168
39.2529
25.0219
24.5936
26.7324
130.82
206.197
204.973
70.9538
52.7427
77.1198
518
786.903
834.095
28.6241
35.1994
45.9873
42.5718
25.8576
22.2485
20.3775
21.2812
20.2809
26.6323
148.983
206.694
131.304
124.705
46.4473
26.8245
25.1698
245.566
469.848
24.8387
32.2338
39.5923
38.8725
37.85
28.4666
21.7365
21.1224
18.706
18.266
42.5986
95.7861
28.7695
136.169
102.054
26.3077
25.2527
25.2734
31.8543
21.2709
19.6441
22.47
27.8134
34.1178
40.3602
34.8972
25.56
17.5717
19.2617
28.8966
25.4924
24.7595
72.1825
108.726
50.5418
23.3825
23.6161
25.2411
21.2369
24.9914
14.6407
13.7758
14.3486
41.7246
40.9203
38.3056
15.2391
14.3417
19.7002
65.812
30.3921
16.8671
36.9528
33.4023
21.9745
22.2416
24.3162
27.6529
24.7785
12.6443
12.5455
13.2575
14.6067
34.0015
37.3199
20.8151
5.0023
3.63701
93.5991
98.1785
19.9147
31.1367
26.3144
21.9206
22.1647
31.445
18.0581
22.0727
24.2264
13.1678
12.321
20.4428
16.1584
23.2967
19.9993
5.49228
3.56381
25.1119
105.567
101.227
116.001
55.4164
22.0209
22.5491
45.7497
2.95696
13.5809
23.2672
26.7737
18.0932
35.3685
22.2246
2.3443
5.4637
4.98073
3.69659
3.78108
102.12
123.267
120.909
126.338
27.1692
36.4085
46.6564
-1.36762
1.01133
12.4976
32.8805
41.2264
36.4128
25.2152
1.12985
2.44674
3.34074
3.69876
5.96268
7.42803
104.34
133.886
67.7455
25.5648
46.2605
48.0145
-0.01546
1.86819
7.4137
27.2951
42.4074
38.6471
14.5521
1.86739
2.57042
3.32983
3.75768
13.6222
16.0683
14.519
27.7922
25.3896
25.7899
45.3204
49.5664
5.52773
4.50032
6.97219
24.6089
43.6486
40.4903
20.2599
2.48561
2.95095
3.46652
8.34204
40.7263
42.1258
41.0475
31.5727
26.4235
26.3898
14.7807
46.7082
8.2066
7.14147
7.59171
29.3435
44.0402
11.3909
11.145
39.1315
40.907
42.2631
42.5494
41.5619
33.5526
22.8963
29.6053
34.4286
32.2539
2.16777
8.36421
9.16853
7.01557
8.00359
37.9689
38.3184
0.658009
0.645877
5.39271
8.61817
8.81799
4.95427
0.637192
-0.170253
-0.170879
-0.161031
4.34228
-0.0572655
-0.0783259
1.49363
9.49065
3.88158
10.6321
37.574
12.5881
0.0298181
-0.228618
-0.366765
-0.300978
-0.230365
-0.206269
-0.206388
-0.184162
-0.159265
-0.134929
-0.115096
-0.0803016
-0.0159604
0.0166921
1.50926
1.07964
13.9571
35.8055
0.0333919
-0.490803
-0.66072
-0.607806
-0.415417
-0.292614
-0.236483
-0.203992
-0.161924
-0.138746
-0.109516
-0.075638
-0.0241216
-0.00206785
0.0791541
-0.130006
0.220989
14.125
35.56
-0.558534
-1.00524
-1.03984
-0.793379
-0.523472
-0.364286
-0.284797
-0.211326
-0.154537
-0.109214
-0.0949249
-0.0572607
-0.0104467
-0.0371224
-0.0227445
-0.534834
-0.33036
10.1078
35.8799
-1.16949
-1.38979
-1.36669
-0.91143
-0.57478
-0.396376
-0.300536
-0.236025
-0.157756
-0.108932
-0.089664
-0.0615902
-0.00678264
-0.0322655
-0.0255431
-0.720455
-0.60153
3.21998
27.6211
-0.45919
-1.1636
-1.37311
-0.890159
-0.546069
-0.379568
-0.286999
-0.228453
-0.164539
-0.113427
-0.091982
-0.0606001
-0.0316857
-0.0106693
-0.0270832
-0.649542
-0.436958
0.106029
2.42913
1.87346
-0.47972
-1.00109
-0.653544
-0.420388
-0.299535
-0.237752
-0.195928
-0.163216
-0.126967
-0.0936792
-0.0600107
-0.0243543
0.000734
-0.0265268
-0.387913
-0.179063
0.0847975
0.276445
1.35778
-0.0377739
-0.474172
-0.329699
-0.212286
-0.174209
-0.177541
-0.171366
-0.149979
-0.119538
-0.0844785
-0.0285093
0.0253068
0.00437978
-0.0266667
-0.101919
0.075372
0.387191
0.568754
0.3552
0.0982178
-0.0321592
-0.0493513
-0.0112895
-0.0708108
-0.116669
-0.122376
-0.114976
-0.0944126
-0.0661665
0.0214637
0.0301363
-0.0207089
-0.0226769
0.12054
0.311902
0.553087
0.696576
0.575799
0.36256
0.213165
0.173213
0.120471
0.00880237
-0.046176
-0.0672935
-0.0700938
-0.0608338
-0.036368
0.0354333
-0.0118651
-0.0203811
-0.0164158
0.245877
0.408996
0.574412
0.674393
0.590461
0.440601
0.34457
0.280879
0.200265
0.0842044
0.0153161
-0.0131591
-0.024859
-0.00912894
0.0290153
0.0322343
-0.0119421
-0.0111972
-0.00865342
0.302829
0.424004
0.53205
0.58915
0.530895
0.430134
0.345078
0.309433
0.238005
0.178516
0.0936627
0.0541449
0.0526072
0.0492472
0.0442848
0.00386201
-0.00347832
-0.00136269
-0.00013776
0.319901
0.40618
0.4755
0.50528
0.46686
0.396927
0.317161
0.250921
0.197174
0.176847
0.157902
0.126368
0.10396
0.0641266
0.0121876
0.00928344
0.00855701
0.00858735
0.00853483
0.314195
0.375432
0.420468
0.436328
0.410767
0.361576
0.30118
0.241103
0.186853
0.141105
0.116767
0.0900978
0.0591724
0.0371558
0.0278953
0.0223111
0.0192649
0.0175337
0.0166808
0.29709
0.341031
0.370845
0.379404
0.361582
0.326278
0.281089
0.233384
0.188028
0.147671
0.113856
0.0872172
0.0657225
0.0502536
0.0394932
0.0322799
0.028074
0.0251583
0.0236525
0.275741
0.307662
0.327443
0.331485
0.318082
0.291533
0.257022
0.219243
0.182028
0.147904
0.118268
0.0936807
0.0739427
0.0587935
0.04761
0.0396903
0.034445
0.0310747
0.0292995
0.254482
0.277435
0.290143
0.291154
0.280245
0.259011
0.23222
0.202209
0.171886
0.14333
0.117832
0.0960331
0.0780442
0.0637459
0.052804
0.0447575
0.0390381
0.0353505
0.0336335
0.235749
0.250983
0.258131
0.256756
0.247011
0.229918
0.20845
0.184326
0.159546
0.135733
0.113991
0.0949427
0.0788552
0.0657382
0.0554175
0.0476464
0.0420267
0.0383471
0.0365553
0.220119
0.22791
0.23024
0.226793
0.217626
0.20342
0.185842
0.166214
0.145885
0.126068
0.107659
0.0912229
0.0770762
0.0653022
0.0558429
0.048572
0.0432746
0.0397714
0.038023
0.206135
0.207
0.205169
0.199956
0.191114
0.178946
0.164265
0.14815
0.13143
0.114979
0.0994992
0.0854723
0.0732084
0.0628371
0.0543757
0.047765
0.0429052
0.0397014
0.0380729
0.191439
0.186636
0.181599
0.175108
0.1666
0.156085
0.143478
0.13026
0.116521
0.10292
0.0900002
0.0781639
0.067688
0.0587159
0.0513094
0.0454571
0.0411229
0.0382406
0.0367857
0.173023
0.165205
0.158379
0.151308
0.143295
0.134128
0.123524
0.112613
0.101353
0.0901861
0.0795173
0.0696653
0.0608642
0.0532519
0.0469104
0.041856
0.0380902
0.0355715
0.0342999
0.150676
0.141979
0.134788
0.127905
0.120668
0.11279
0.104103
0.0951538
0.0860183
0.076974
0.0683061
0.0602572
0.0530172
0.0467083
0.0414159
0.0371677
0.0339895
0.0318531
0.0307802
0.123998
0.11688
0.110569
0.104557
0.0984067
0.0919005
0.0849427
0.0777986
0.0705586
0.0634093
0.0565481
0.0501524
0.0443706
0.0393045
0.0350325
0.0315845
0.0289968
0.0272461
0.0263955
0.0949684
0.0905721
0.085866
0.0811758
0.0763373
0.0712703
0.0659409
0.0604879
0.0549937
0.0495775
0.0443769
0.0395165
0.0351069
0.0312283
0.027946
0.0252857
0.0232862
0.0219273
0.0212838
0.0658818
0.063827
0.0609933
0.0578145
0.0543959
0.0507951
0.0470357
0.0431973
0.0393418
0.0355484
0.0319039
0.0284921
0.0253896
0.0226537
0.0203329
0.0184457
0.0170264
0.0160607
0.0156075
0.0381065
0.0377044
0.036331
0.0345775
0.0325783
0.0304379
0.0282026
0.0259229
0.0236364
0.0213888
0.0192302
0.0172082
0.0153668
0.0137397
0.0123577
0.0112295
0.0103827
0.00980651
0.00953599
0.0121026
0.0123516
0.0120267
0.0115058
0.0108567
0.0101485
0.00940228
0.00864944
0.00789289
0.00714997
0.00643763
0.00577112
0.00516327
0.00462428
0.00416719
0.00379184
0.00351179
0.00332202
0.00322682
)
;

boundaryField
{
    leftWall
    {
        type            fixedFluxPressure;
        gradient        uniform 0;
        value           nonuniform List<scalar> 
50
(
784.524
783.079
780.223
774.003
762.629
752.267
655.827
633.626
677.362
798.849
778.184
178.72
36.856
23.7117
12.7741
15.307
17.3259
17.4553
17.1581
3.13118
1.07905
1.17703
1.24382
1.72993
2.14335
2.29693
2.00843
1.88736
3.70673
5.86357
4.94476
0.438094
0.486047
0.563994
0.476022
0.418104
0.299326
0.123321
-0.0368806
0.00498245
-0.277911
-0.458064
-0.285434
-0.11028
0.00948556
0.0537402
0.0486554
0.0459521
0.0241906
-0.000973935
)
;
    }
    rightWall
    {
        type            fixedFluxPressure;
        gradient        uniform 0;
        value           nonuniform List<scalar> 
50
(
617.334
615.263
616.022
624.446
641.292
665.045
674.616
675.104
681.255
741.069
834.095
469.848
31.8543
25.2411
24.3162
31.445
45.7497
46.6564
48.0145
49.5664
46.7082
8.36421
1.49363
0.0166921
0.0791541
-0.0227445
-0.0255431
-0.0270832
-0.0265268
-0.0266667
-0.0226769
-0.0164158
-0.00865342
-0.00013776
0.00853483
0.0166808
0.0236525
0.0292995
0.0336335
0.0365553
0.038023
0.0380729
0.0367857
0.0342999
0.0307802
0.0263955
0.0212838
0.0156075
0.00953599
0.00322682
)
;
    }
    lowerWall
    {
        type            fixedFluxPressure;
        gradient        uniform 0;
        value           nonuniform List<scalar> 
62
(
784.524
786.718
811.165
815.295
793.796
767.653
765.052
784.567
809.62
832.118
852.668
872.571
891.988
911.568
933.02
957.273
979.902
997.282
1010.97
1023.28
1034.26
1044.1
1049.87
1049.87
1051.33
1052.02
1051.04
1046.16
1034.14
1007.29
958.676
529.942
519.315
552.488
551.267
549.576
547.534
543.137
535.223
521.125
515.055
515.8
500.214
549.576
562.985
558.016
543.846
535.924
527.031
529.631
531.235
512.928
497.939
513.377
519.373
504.986
521.695
566.654
583.513
571.893
580.222
617.334
)
;
    }
    atmosphere
    {
        type            totalPressure;
        rho             rho;
        psi             none;
        gamma           1;
        p0              uniform 0;
        value           nonuniform List<scalar> 
46
(
-0.00255899
-0.0018736
-0.00107658
-0.00163734
0
0
0
0
0
0
-0.0424725
-0.137386
-0.310227
-0.534726
-0.749767
-0.808533
-0.349553
-0.0107664
0
0
0
0
0
0
0
0
0
0
0
0
0
0
0
0
0
0
0
0
0
0
0
0
0
0
0
0
)
;
    }
    defaultFaces
    {
        type            empty;
    }
}


// ************************************************************************* //
