/*--------------------------------*- C++ -*----------------------------------*\
| =========                 |                                                 |
| \\      /  F ield         | OpenFOAM: The Open Source CFD Toolbox           |
|  \\    /   O peration     | Version:  2.3.0                                 |
|   \\  /    A nd           | Web:      www.OpenFOAM.org                      |
|    \\/     M anipulation  |                                                 |
\*---------------------------------------------------------------------------*/
FoamFile
{
    version     2.0;
    format      ascii;
    class       volScalarField;
    location    "1.6";
    object      p;
}
// * * * * * * * * * * * * * * * * * * * * * * * * * * * * * * * * * * * * * //

dimensions      [1 -1 -2 0 0 0 0];

internalField   nonuniform List<scalar> 
2268
(
587.652
582.397
584.151
604.259
631.694
614.057
585.713
607.929
647.862
670.002
691.796
711.207
728.705
746.316
762.899
778.464
793.713
807.588
820.943
837.51
855.91
870.599
879.388
528.2
521.252
522.211
542.174
567.474
546.401
515.303
541.313
587.722
611.597
633.448
652.427
669.729
687.381
704.136
719.35
734.329
747.971
761.413
778.42
798.803
812.691
821.617
467.046
457.262
459.279
476.995
499.807
479.587
451.632
473.714
529.781
557.72
576.821
593.964
610.6
628.37
645.499
660.516
674.613
687.966
703.328
722.769
742.284
756.674
765.65
404.419
392.13
393.908
404.427
431.191
423.481
394.242
412.728
473.719
502.522
519.437
535.32
551.05
569.226
586.974
601.954
615.186
628.314
645.16
666.779
686.783
702.083
711.352
341.679
327.869
327.673
336.869
372.907
377.58
345.488
364.317
418.661
445.275
461.73
476.235
491.138
509.983
528.456
543.329
555.809
567.751
585.723
611.319
632.368
648.584
658.763
281.975
265.397
262.205
280.241
324.284
335.618
306.691
322.342
362.678
388.745
404.115
417.217
431.172
450.226
469.264
483.87
495.244
504.956
523.702
556.359
579.823
596.266
606.58
222.906
205.45
197.387
221.587
280.282
297.154
265.27
275.533
308.563
333.883
347.201
357.731
371.16
389.302
406.833
420.615
431.725
438.661
460.367
501.292
528.771
543.942
551.467
163.589
143.175
132.208
165.316
235.816
254.746
219.005
224.748
257.032
281.235
290.366
300.043
312.185
326.485
338.696
349.838
362.498
371.347
401.734
442.168
473.748
494.102
492.86
779.492
761.966
787.709
855.628
914.968
927.659
911.067
881.922
858.177
846.116
829.836
812.28
812.889
816.476
792.185
750.392
703.291
687.429
706.14
719.721
695.238
716.549
784.272
849.039
866.592
850.845
826.464
806.601
790.916
765.594
748.992
755.638
762.836
739.639
695.41
643.778
621.387
645.504
656.46
621.571
637.14
709.316
781.281
807.074
795.939
774.322
756.111
735.008
700.159
678.42
687.761
698.812
679.047
634.238
584.699
559.174
587.529
591.515
545.245
553.49
638.948
720.087
754.282
746.307
723.652
703.02
677.125
635.89
607.584
613.715
626.075
618.234
574.855
527.02
511.141
535.913
528.291
473.105
470.262
564.895
662.454
705.294
697.053
671.612
647.076
618.13
574.485
541.493
540.271
554.778
565.381
514.031
464.194
458.457
482.388
468.682
409.977
398.956
490.72
601.862
655.6
648.577
618.898
589.517
559.659
516.456
480.597
470.436
482.127
488.454
438.966
395.811
395.612
420.21
416.19
357.753
339.943
424.386
535.373
597.84
598.306
566.252
533.853
505.494
465.274
425.328
401.25
389.546
374.326
342.977
322.855
331.146
356.941
363.482
305.058
292.476
367.595
464.677
528.583
539.509
509.703
476.821
454.729
421.136
374.777
317.83
255.569
198.315
209.72
240.016
272.741
295.438
77.3946
52.9891
39.4876
75.2774
153.956
174.213
136.595
145.475
178.452
200.928
210.144
213.941
221.641
228.68
230.912
241.727
264.146
283.107
309.792
345.996
375.062
387.675
361.849
12.2787
5.59943
6.7097
9.96409
34.78
45.616
18.4212
40.198
63.5587
84.6268
89.5618
85.8648
94.8362
113.217
126.71
147.052
166.499
176.791
188.627
223.769
246.98
255.398
262.133
4.12639
3.91074
5.31748
6.96034
9.55301
23.2885
12.7902
3.57508
7.22555
15.6769
15.5819
13.8554
17.7707
33.7546
63.4924
90.0781
103.386
96.5468
95.0555
117.166
132.277
136.718
140.693
2.8873
2.55585
3.47604
5.21333
4.47261
1.69257
0.537701
1.73215
2.37024
2.03609
1.92418
2.32735
2.47266
2.95199
21.8024
37.5687
47.7079
47.048
37.7774
40.4259
46.1219
41.9212
38.2743
0.894146
-0.078418
1.11783
2.51399
2.49846
0.893226
-0.408839
0.0716503
1.09067
1.43319
1.49123
1.68555
1.58424
1.13133
1.09976
2.79019
6.20518
8.07678
10.2791
12.6129
9.93068
3.8561
3.15119
0.11279
-1.0999
-0.315479
0.56122
0.480071
-0.267347
-0.755191
-0.668329
-0.358226
0.0796292
0.522791
0.854396
0.967181
0.852426
0.798986
0.56429
1.13863
1.75453
1.64632
1.59615
1.69987
1.97897
2.38982
0.380265
-0.363768
-0.335057
-0.0711495
-0.337403
-0.708359
-0.938992
-0.983378
-0.866827
-0.562644
-0.153705
0.259194
0.535823
0.577151
0.562607
0.493262
0.680879
1.22445
1.33417
1.26255
1.29227
1.52193
1.73124
0.848429
0.431995
0.0298206
-0.200979
-0.599629
-0.891224
-1.0431
-1.0902
-1.00745
-0.822372
-0.498979
-0.0900011
0.237096
0.40231
0.489498
0.590749
0.592878
0.859464
0.976752
1.01139
0.998342
1.10687
1.20191
0.916744
0.556219
0.0854903
-0.343264
-0.78325
-1.01689
-1.16176
-1.22496
-1.17492
-1.01558
-0.70339
-0.284226
0.0532988
0.258908
0.445147
0.473729
0.446891
0.609345
0.701536
0.811358
0.783372
0.712792
0.691458
0.413917
0.208082
-0.0855668
-0.515934
-0.929417
-1.09231
-1.25762
-1.33797
-1.32783
-1.1364
-0.789689
-0.360714
-0.0475189
0.111531
0.293032
0.218415
0.277635
0.421433
0.542671
0.664631
0.554609
0.297421
-0.0687564
0.0731256
-0.0465644
-0.285907
-0.632899
-0.943049
-1.07704
-1.24304
-1.32026
-1.29158
-1.10092
-0.739847
-0.343179
-0.0869943
0.0253407
0.0500158
0.0354566
0.125057
0.273228
0.38879
0.533117
0.274172
-0.329306
-0.612083
-0.137424
-0.28862
-0.502443
-0.735947
-0.902753
-1.01169
-1.11769
-1.1715
-1.1577
-1.00715
-0.70137
-0.372106
-0.196579
-0.140576
-0.207552
-0.167229
-0.0376938
0.101535
0.240556
0.25708
-0.112628
-0.826771
-0.553958
-0.336828
-0.538187
-0.683493
-0.825515
-0.900952
-0.965784
-1.00942
-1.0566
-1.09103
-0.999065
-0.77329
-0.599415
-0.510318
-0.488044
-0.481803
-0.408747
-0.276489
-0.119981
0.05884
0.0128859
-0.251778
-0.752116
-0.823005
-0.541185
-0.719505
-0.799
-0.877992
-0.931343
-0.966442
-0.979918
-1.01701
-1.07609
-1.06365
-0.974468
-0.87471
-0.812092
-0.747679
-0.701121
-0.638669
-0.529553
-0.389021
-0.22158
-0.170578
-0.545198
-1.08941
-1.40707
-0.709271
-0.802621
-0.87096
-0.935068
-0.987109
-1.01961
-1.03679
-1.07176
-1.13719
-1.16491
-1.1251
-1.05876
-1.01234
-0.970943
-0.939348
-0.894617
-0.80958
-0.727143
-0.666044
-0.48593
-0.671215
-1.7142
-2.17759
-0.826239
-0.877486
-0.944801
-1.01173
-1.06698
-1.1079
-1.14048
-1.18183
-1.22771
-1.26058
-1.25623
-1.23392
-1.21041
-1.19066
-1.17753
-1.16565
-1.10617
-1.08973
-1.15159
-1.04553
-1.03575
-2.12484
-2.72072
-0.937139
-0.980226
-1.04117
-1.10883
-1.16549
-1.21263
-1.25387
-1.29708
-1.34237
-1.38032
-1.39996
-1.40581
-1.40654
-1.40836
-1.41652
-1.42393
-1.4091
-1.44254
-1.58262
-1.6596
-1.49709
-2.40188
-3.23718
-1.05876
-1.10296
-1.15588
-1.21987
-1.27507
-1.32464
-1.37014
-1.41699
-1.46745
-1.516
-1.55477
-1.58211
-1.60248
-1.62119
-1.64445
-1.67305
-1.70436
-1.76491
-1.9678
-2.25088
-2.16695
-2.64839
-3.55662
-1.18803
-1.23829
-1.28217
-1.33874
-1.39097
-1.44111
-1.48971
-1.54234
-1.60207
-1.66435
-1.72187
-1.76565
-1.80027
-1.83133
-1.86515
-1.9096
-1.97678
-2.04323
-2.28304
-2.64413
-2.77471
-2.90563
-3.48742
-1.34694
-1.38099
-1.4165
-1.46176
-1.50974
-1.5588
-1.61076
-1.67395
-1.7507
-1.8314
-1.91003
-1.96241
-2.00385
-2.0425
-2.08267
-2.13795
-2.21133
-2.26402
-2.4696
-2.76838
-2.94981
-3.02099
-3.29514
-1.5197
-1.5291
-1.55931
-1.58987
-1.63052
-1.67588
-1.73782
-1.82802
-1.93278
-2.03419
-2.11842
-2.1761
-2.21482
-2.25303
-2.29412
-2.344
-2.40931
-2.46768
-2.58896
-2.78604
-2.98597
-3.12242
-3.38836
-1.68316
-1.70554
-1.71608
-1.72862
-1.75802
-1.80664
-1.89615
-2.01748
-2.14491
-2.25959
-2.34425
-2.39963
-2.44092
-2.47191
-2.50762
-2.55241
-2.6099
-2.67662
-2.73308
-2.87164
-3.05679
-3.23566
-3.45682
-1.84348
-1.91301
-1.88832
-1.88481
-1.90912
-1.97661
-2.0967
-2.23809
-2.37572
-2.49155
-2.5737
-2.61787
-2.65128
-2.68358
-2.71593
-2.7545
-2.81107
-2.87365
-2.93605
-3.04074
-3.1823
-3.34666
-3.55419
-2.0011
-2.09685
-2.06416
-2.06349
-2.10005
-2.19658
-2.34646
-2.49427
-2.6218
-2.72996
-2.8042
-2.83348
-2.8519
-2.878
-2.90792
-2.94956
-3.01033
-3.07836
-3.15116
-3.24135
-3.35486
-3.4918
-3.66666
-2.17628
-2.23515
-2.23701
-2.26042
-2.32412
-2.45314
-2.62424
-2.76638
-2.88487
-2.98256
-3.03865
-3.05183
-3.05059
-3.05721
-3.0818
-3.1331
-3.20479
-3.28163
-3.36132
-3.4494
-3.55332
-3.6786
-3.83852
-2.37425
-2.39074
-2.39876
-2.46424
-2.56618
-2.73466
-2.92351
-3.08077
-3.20314
-3.28089
-3.3065
-3.29105
-3.26334
-3.24411
-3.257
-3.31559
-3.39948
-3.48525
-3.56835
-3.65461
-3.75463
-3.87758
-4.03779
-2.59277
-2.5887
-2.54954
-2.68487
-2.83194
-3.05311
-3.28644
-3.4756
-3.60417
-3.66106
-3.64794
-3.58597
-3.51453
-3.46597
-3.46434
-3.5195
-3.60744
-3.69668
-3.7757
-3.85685
-3.95182
-4.07208
-4.23249
-2.86521
-2.86946
-2.75295
-2.94241
-3.1245
-3.41184
-3.71346
-3.94316
-4.08276
-4.11995
-4.06217
-3.94521
-3.82327
-3.74118
-3.71746
-3.7585
-3.83741
-3.92488
-3.98765
-4.05543
-4.14011
-4.25291
-4.40782
-3.1412
-3.18174
-3.05887
-3.21592
-3.44613
-3.80749
-4.18164
-4.44888
-4.58961
-4.60374
-4.50696
-4.34173
-4.17155
-4.05602
-4.00766
-4.03087
-4.0943
-4.16481
-4.19876
-4.24706
-4.3161
-4.41539
-4.5572
-3.42866
-3.44468
-3.38984
-3.48191
-3.79917
-4.20712
-4.62852
-4.91588
-5.04932
-5.04566
-4.92552
-4.73003
-4.524
-4.38298
-4.31484
-4.3229
-4.37255
-4.39968
-4.40226
-4.42745
-4.478
-4.55882
-4.68066
-3.7161
-3.68279
-3.67785
-3.75348
-4.14675
-4.56908
-4.99585
-5.293
-5.4232
-5.41325
-5.27996
-5.06927
-4.84253
-4.68499
-4.60642
-4.6028
-4.63377
-4.61927
-4.5924
-4.59324
-4.62485
-4.68508
-4.78066
-4.02958
-3.9856
-3.99788
-4.11034
-4.50866
-4.89482
-5.29127
-5.58857
-5.7137
-5.69858
-5.55359
-5.33433
-5.0984
-4.92883
-4.84435
-4.83127
-4.84494
-4.80498
-4.75694
-4.74045
-4.75635
-4.79703
-4.86364
-4.3844
-4.42275
-4.52436
-4.67298
-4.94898
-5.2268
-5.53298
-5.82979
-5.93607
-5.90308
-5.74242
-5.51693
-5.27947
-5.10255
-5.01132
-4.98878
-4.98923
-4.94174
-4.88791
-4.86631
-4.8724
-4.898
-4.94024
-4.77515
-4.8965
-5.11163
-5.32745
-5.42486
-5.54184
-5.76455
-6.00127
-6.08288
-6.02536
-5.84904
-5.62184
-5.38944
-5.21234
-5.11593
-5.08247
-5.07318
-5.032
-4.98807
-4.97075
-4.9733
-4.9893
-5.01487
-5.18746
-5.36946
-5.69219
-5.9144
-5.8146
-5.7808
-5.94027
-6.10542
-6.15397
-6.07639
-5.88854
-5.66399
-5.44379
-5.27536
-5.17855
-5.13621
-5.12146
-5.09289
-5.0667
-5.05859
-5.06198
-5.07252
-5.08737
-5.55848
-5.80157
-6.19893
-6.3324
-6.0519
-5.93685
-6.03543
-6.14027
-6.15405
-6.0507
-5.86655
-5.65998
-5.46502
-5.31534
-5.22552
-5.17949
-5.16273
-5.14678
-5.13724
-5.1384
-5.14388
-5.15158
-5.16016
-5.78678
-6.02712
-6.39713
-6.41789
-6.09235
-5.98453
-6.02783
-6.08699
-6.0689
-5.95339
-5.79426
-5.62736
-5.47596
-5.35434
-5.27964
-5.23545
-5.21762
-5.20993
-5.21119
-5.21806
-5.22473
-5.23062
-5.23544
-5.85657
-6.0313
-6.1959
-6.20122
-5.96014
-5.899
-5.91771
-5.93663
-5.90533
-5.81714
-5.70297
-5.59095
-5.49179
-5.40951
-5.35376
-5.31526
-5.29577
-5.29058
-5.29504
-5.303
-5.30913
-5.31308
-5.31539
-5.8328
-5.92462
-5.9749
-5.92693
-5.7987
-5.76081
-5.76412
-5.76558
-5.74273
-5.69234
-5.62883
-5.57444
-5.52702
-5.48235
-5.44737
-5.4181
-5.39825
-5.39124
-5.39267
-5.39747
-5.40068
-5.40179
-5.40164
-5.78952
-5.80784
-5.7593
-5.72357
-5.6834
-5.66518
-5.65655
-5.65368
-5.64203
-5.61863
-5.59623
-5.59018
-5.58584
-5.57224
-5.55568
-5.53659
-5.51917
-5.50849
-5.50438
-5.50282
-5.50091
-5.49811
-5.49497
-5.78157
-5.76517
-5.6426
-5.65354
-5.66359
-5.64656
-5.63167
-5.62697
-5.62216
-5.6149
-5.61393
-5.64257
-5.67175
-5.6822
-5.67899
-5.66651
-5.65028
-5.63608
-5.62538
-5.6165
-5.60854
-5.60125
-5.59471
-5.8045
-5.79288
-5.70611
-5.75934
-5.73668
-5.70517
-5.68735
-5.67688
-5.67259
-5.67032
-5.68344
-5.74295
-5.79431
-5.81939
-5.82262
-5.81066
-5.79002
-5.76824
-5.74991
-5.73487
-5.7214
-5.7095
-5.69921
267.641
265.393
293.876
310.633
262.551
263.282
261.693
254.95
138.45
134.258
129.6
125.06
37.8269
37.6421
37.5003
37.3097
2.94256
2.85721
2.8578
2.91279
2.50388
2.49766
2.49838
2.56052
1.93248
2.02362
2.09262
2.18892
1.16396
1.19322
1.28819
1.40739
0.695223
0.713305
0.756697
0.814102
0.129711
0.316997
0.467407
0.609114
-0.300416
-0.0423094
0.183106
0.296582
-0.340997
-0.361872
-0.484178
-0.510994
-0.82117
-0.802663
-0.818894
-1.12337
-1.80908
-2.01166
-2.26564
-2.56685
-2.66519
-2.88566
-2.90096
-2.99513
-3.03088
-3.20215
-3.25081
-3.32836
-3.52919
-3.71483
-3.88751
-4.05922
-4.03361
-4.2984
-4.67272
-5.06037
-4.32342
-4.7546
-5.23008
-5.62405
-4.10409
-4.58404
-5.01256
-5.39738
-3.73287
-4.0556
-4.4099
-4.68162
-3.70039
-3.88702
-4.09764
-4.27047
-3.77295
-3.92652
-4.08462
-4.23005
-3.84394
-3.97327
-4.1052
-4.22826
-4.00128
-4.1247
-4.2566
-4.38409
-4.20334
-4.32827
-4.46086
-4.58994
-4.39935
-4.5245
-4.65645
-4.7824
-4.57137
-4.69385
-4.82257
-4.94248
-4.71064
-4.82595
-4.94857
-5.06284
-4.81468
-4.91655
-5.02883
-5.13858
-4.88449
-4.96465
-5.0595
-5.15908
-4.92965
-4.97779
-5.03666
-5.10356
-4.9771
-5.00066
-5.02761
-5.06075
-5.03571
-5.04856
-5.06258
-5.07982
-5.09792
-5.10391
-5.10977
-5.11605
-5.16485
-5.16694
-5.16846
-5.16944
-5.23694
-5.23701
-5.23637
-5.23506
-5.31516
-5.31426
-5.31273
-5.31059
-5.40019
-5.39873
-5.39684
-5.39457
-5.49217
-5.49015
-5.48796
-5.48565
-5.59032
-5.58759
-5.58497
-5.58249
-5.69294
-5.68934
-5.68618
-5.68346
309.818
259.861
247.013
287.557
345.16
403.036
432.605
418.768
392.942
375.122
351.984
287.582
175.446
87.8673
51.4821
54.7841
114.335
178.969
202.493
237.256
204.418
177.788
160.593
157.265
196.234
248.54
273.831
268.241
242.906
218.057
154.785
73.3192
47.7851
36.6037
34.3483
44.7853
70.3654
92.9594
114.961
92.9027
72.1608
44.4829
26.4853
35.6881
90.8043
145.671
135.731
91.6035
81.1124
68.6504
51.1549
45.3214
38.4765
33.9587
32.7378
35.9044
42.6376
32.842
22.3686
11.3854
1.87851
-2.66011
-1.66774
36.3474
59.1317
39.1911
25.5571
29.531
38.981
47.8423
44.3902
33.6135
28.6434
30.6794
33.9157
35.089
3.04661
3.35961
3.03578
1.71006
-1.6878
5.41306
16.3408
11.1107
8.75042
5.14459
5.50132
15.0892
26.9798
29.3734
24.25
19.8555
22.6192
29.1618
31.7098
2.73354
3.20218
3.02596
2.12268
3.36282
5.35764
1.66115
1.82745
1.3693
0.108324
0.209407
2.04831
5.39686
9.64627
10.1761
3.18152
9.9069
22.7198
27.0336
2.34654
2.62476
3.17124
2.75537
3.20646
2.18923
1.30182
-0.239753
-1.20717
-1.52577
-0.998824
-0.0261463
1.2431
2.40767
1.3803
-1.93969
3.93659
15.1939
21.4552
1.80791
2.06781
2.39531
2.28965
2.95701
2.8532
1.24127
-1.09258
-2.5895
-2.92213
-2.45233
-1.44684
-0.125657
1.26139
1.83189
1.50334
2.43185
7.93701
13.0511
1.01446
1.26962
1.13487
1.5251
2.56333
3.17631
1.38708
-1.3541
-3.12326
-3.50086
-2.99609
-2.03335
-0.679661
1.20758
3.01026
4.00477
1.96096
2.34627
5.81533
0.723441
0.440805
0.215022
0.437072
1.62779
2.92403
1.28399
-0.991967
-2.54236
-2.99986
-2.53736
-1.76492
-0.684021
1.16425
2.42298
3.74548
0.517204
-0.694503
0.972776
0.235768
-0.0336201
-0.410325
-0.870816
-0.34137
0.894111
0.473813
-0.579776
-1.70437
-2.0062
-1.75538
-1.01517
-0.0741263
0.628597
1.02655
0.909815
-0.839069
-1.8289
-0.693145
-0.653499
-1.17221
-1.77396
-1.76622
-1.47953
-0.933599
-0.555287
-0.689413
-1.10411
-1.47214
-1.33863
-0.549051
-0.129704
-0.242672
-0.631408
-1.11005
-1.10942
-1.75175
-0.880907
-1.94368
-2.57079
-2.46132
-2.1936
-1.85905
-1.47253
-1.1943
-1.17403
-1.46885
-1.60782
-1.37354
-0.766959
-0.935573
-1.14307
-1.28312
-1.37837
-0.913181
-1.22337
-1.16604
-2.93611
-2.86411
-2.63769
-2.39853
-2.14511
-1.8716
-1.68157
-1.92557
-2.21047
-2.36574
-2.07994
-1.40877
-1.60306
-1.67944
-1.58856
-1.67765
-1.66821
-1.83448
-1.73459
-3.1372
-3.05182
-2.83416
-2.6307
-2.50047
-2.53346
-2.59514
-2.46664
-2.33152
-2.83794
-2.57338
-1.99638
-2.09144
-1.97744
-1.88845
-1.9251
-1.97025
-2.01498
-1.98718
-3.47126
-3.39202
-3.08839
-2.89289
-2.83309
-2.83892
-2.85866
-2.88806
-2.94146
-2.89942
-2.64567
-2.5031
-2.31584
-2.18488
-2.13436
-2.12357
-2.13396
-2.16414
-2.17899
-4.31145
-4.18979
-3.63753
-3.19533
-3.06197
-3.03091
-2.99656
-2.95703
-2.94032
-2.92248
-2.80798
-2.61377
-2.46604
-2.35658
-2.31865
-2.29089
-2.28296
-2.29811
-2.30614
-5.45719
-5.21828
-4.54345
-3.76642
-3.35483
-3.22068
-3.1214
-3.02608
-2.94664
-2.8769
-2.77301
-2.6671
-2.57272
-2.50198
-2.46821
-2.4387
-2.42408
-2.42934
-2.4348
-6.00057
-5.76905
-5.243
-4.48685
-3.75302
-3.36841
-3.21714
-3.09998
-2.98477
-2.90669
-2.83093
-2.75544
-2.69537
-2.64742
-2.61404
-2.58245
-2.56407
-2.56378
-2.56695
-5.88027
-5.81051
-5.24982
-4.62923
-3.9236
-3.39296
-3.24804
-3.13945
-3.03687
-2.97087
-2.92216
-2.8777
-2.83489
-2.79427
-2.75931
-2.72258
-2.70222
-2.69982
-2.70127
-4.97216
-5.01257
-4.89621
-4.46617
-3.8764
-3.32107
-3.2148
-3.15614
-3.08274
-3.0389
-3.01336
-2.98951
-2.96142
-2.92754
-2.89176
-2.85581
-2.83674
-2.83529
-2.83534
-4.55384
-4.56698
-4.52979
-4.25025
-3.7247
-3.29733
-3.15061
-3.17574
-3.13097
-3.10503
-3.09517
-3.0846
-3.06772
-3.04173
-3.01057
-2.98218
-2.96907
-2.97003
-2.96926
-4.38157
-4.42082
-4.31905
-4.09511
-3.64344
-3.26525
-3.18169
-3.21211
-3.19844
-3.18003
-3.17486
-3.16903
-3.15921
-3.14325
-3.12423
-3.10916
-3.10282
-3.10354
-3.10318
-4.39812
-4.45883
-4.35491
-4.12052
-3.68813
-3.30712
-3.25132
-3.27991
-3.29401
-3.27706
-3.26845
-3.26185
-3.25704
-3.25181
-3.24565
-3.24008
-3.2374
-3.23681
-3.23686
-4.55583
-4.59072
-4.47117
-4.25852
-3.80389
-3.44757
-3.38753
-3.40444
-3.41987
-3.40127
-3.38483
-3.37555
-3.37302
-3.37464
-3.37535
-3.37357
-3.37074
-3.37048
-3.37043
-4.75835
-4.75908
-4.62669
-4.42903
-3.9194
-3.65837
-3.57153
-3.56677
-3.57098
-3.54505
-3.5187
-3.50732
-3.50505
-3.50746
-3.50831
-3.5066
-3.50468
-3.50411
-3.50404
-4.94183
-4.92722
-4.79406
-4.62263
-4.05778
-3.82496
-3.74562
-3.72648
-3.71849
-3.68887
-3.6573
-3.6447
-3.64141
-3.64109
-3.64054
-3.63885
-3.63726
-3.6376
-3.63769
-5.09136
-5.08306
-4.96443
-4.83322
-4.21963
-3.95074
-3.87933
-3.86289
-3.85147
-3.82191
-3.79106
-3.77917
-3.77549
-3.77371
-3.7725
-3.77159
-3.77119
-3.77148
-3.77156
-5.20843
-5.2096
-5.10545
-4.98299
-4.27625
-4.02232
-3.98005
-3.97415
-3.96379
-3.93768
-3.91784
-3.90965
-3.90727
-3.90609
-3.9055
-3.90527
-3.90533
-3.90565
-3.90571
-5.28227
-5.27388
-5.19226
-5.06963
-4.32807
-4.12808
-4.07364
-4.07482
-4.06813
-4.05418
-4.04441
-4.04082
-4.0399
-4.03952
-4.03944
-4.03956
-4.0398
-4.04013
-4.04018
-5.29139
-5.31853
-5.33236
-4.97946
-4.4287
-4.23766
-4.20429
-4.19382
-4.18387
-4.17835
-4.17536
-4.17428
-4.17413
-4.17414
-4.17426
-4.17443
-4.17465
-4.17493
-4.17499
-5.19381
-5.23111
-5.12
-4.81662
-4.50884
-4.44676
-4.39447
-4.33987
-4.32069
-4.31518
-4.31232
-4.3109
-4.3103
-4.30999
-4.30985
-4.30981
-4.30987
-4.31004
-4.31009
-5.10322
-5.07286
-4.91896
-4.76564
-4.63168
-4.68384
-4.56655
-4.49846
-4.471
-4.45919
-4.45302
-4.4497
-4.44782
-4.44668
-4.446
-4.4456
-4.44541
-4.4454
-4.44543
-5.10484
-5.10941
-5.05546
-4.92182
-4.84878
-4.78442
-4.70458
-4.64958
-4.61944
-4.6034
-4.59435
-4.58902
-4.58577
-4.58372
-4.58242
-4.58161
-4.58114
-4.58093
-4.5809
-5.12533
-5.12061
-5.07659
-5.00718
-4.94298
-4.89117
-4.83149
-4.7884
-4.76144
-4.74472
-4.7343
-4.72769
-4.72343
-4.72064
-4.71882
-4.71764
-4.71691
-4.71653
-4.71643
-5.16837
-5.15504
-5.12422
-5.07946
-5.03661
-4.99374
-4.95238
-4.91989
-4.89838
-4.88264
-4.87214
-4.86508
-4.86032
-4.8571
-4.85494
-4.85351
-4.85259
-4.85209
-4.85194
-5.23058
-5.21574
-5.19207
-5.16228
-5.13103
-5.10082
-5.07219
-5.04837
-5.03049
-5.01735
-5.00777
-5.00098
-4.99621
-4.9929
-4.99061
-4.98909
-4.98809
-4.98753
-4.98734
-5.30543
-5.29275
-5.27523
-5.25453
-5.23299
-5.21184
-5.19163
-5.17417
-5.16003
-5.14977
-5.14148
-5.13544
-5.13108
-5.12797
-5.12579
-5.12431
-5.12333
-5.12277
-5.12257
-5.38983
-5.38022
-5.36772
-5.35374
-5.33921
-5.32469
-5.31079
-5.29845
-5.28812
-5.28
-5.27355
-5.26865
-5.265
-5.26235
-5.26046
-5.25916
-5.25829
-5.2578
-5.25761
-5.48143
-5.47427
-5.46607
-5.45724
-5.44807
-5.43884
-5.42993
-5.42181
-5.41482
-5.40908
-5.40447
-5.40088
-5.39816
-5.39615
-5.39469
-5.39369
-5.39301
-5.39263
-5.39247
-5.57855
-5.57343
-5.56865
-5.56389
-5.55901
-5.55406
-5.54921
-5.5447
-5.54071
-5.53735
-5.5346
-5.53243
-5.53075
-5.5295
-5.52859
-5.52797
-5.52754
-5.52729
-5.52718
-5.67964
-5.67631
-5.67452
-5.67317
-5.67181
-5.67039
-5.66897
-5.66759
-5.66633
-5.66524
-5.66432
-5.66358
-5.66301
-5.66258
-5.66226
-5.66204
-5.66189
-5.66181
-5.66178
)
;

boundaryField
{
    leftWall
    {
        type            calculated;
        value           nonuniform List<scalar> 
50
(
587.652
528.2
467.046
404.419
341.679
281.975
222.906
163.589
77.3946
12.2787
4.12639
2.8873
0.894146
0.11279
0.380265
0.848429
0.916744
0.413917
0.0731256
-0.137424
-0.336828
-0.541185
-0.709271
-0.826239
-0.937139
-1.05876
-1.18803
-1.34694
-1.5197
-1.68316
-1.84348
-2.0011
-2.17628
-2.37425
-2.59277
-2.86521
-3.1412
-3.42866
-3.7161
-4.02958
-4.3844
-4.77515
-5.18746
-5.55848
-5.78678
-5.85657
-5.8328
-5.78952
-5.78157
-5.8045
)
;
    }
    rightWall
    {
        type            calculated;
        value           nonuniform List<scalar> 
50
(
706.14
645.504
587.529
535.913
482.388
420.21
356.941
295.438
202.493
92.9594
42.6376
35.089
31.7098
27.0336
21.4552
13.0511
5.81533
0.972776
-0.693145
-0.880907
-1.16604
-1.73459
-1.98718
-2.17899
-2.30614
-2.4348
-2.56695
-2.70127
-2.83534
-2.96926
-3.10318
-3.23686
-3.37043
-3.50404
-3.63769
-3.77156
-3.90571
-4.04018
-4.17499
-4.31009
-4.44543
-4.5809
-4.71643
-4.85194
-4.98734
-5.12257
-5.25761
-5.39247
-5.52718
-5.66178
)
;
    }
    lowerWall
    {
        type            calculated;
        value           nonuniform List<scalar> 
62
(
617.082
611.826
613.577
633.552
660.952
643.094
615.085
637.358
677.291
699.432
721.225
740.636
758.134
775.746
792.326
807.892
823.141
836.947
849.815
866.382
884.904
900.025
908.814
879.388
821.617
765.65
711.352
658.763
606.58
551.467
492.86
329.858
326.845
355.317
372.073
779.492
719.721
656.46
591.515
528.291
468.682
416.19
363.482
808.746
791.201
816.929
884.853
944.196
956.89
940.298
909.257
884.133
872.176
855.933
838.378
838.986
844.335
818.667
776.874
729.778
714.145
733.274
)
;
    }
    atmosphere
    {
        type            calculated;
        value           nonuniform List<scalar> 
46
(
-5.82224
-5.81535
-5.79249
-5.91444
-5.80226
-5.73862
-5.73345
-5.73215
-5.73215
-5.74141
-5.74902
-5.82421
-5.87632
-5.90176
-5.90481
-5.89039
-5.86463
-5.83609
-5.81259
-5.79517
-5.77915
-5.7652
-5.75316
-5.74602
-5.74197
-5.73851
-5.73561
-5.73199
-5.72941
-5.72904
-5.72904
-5.72904
-5.72904
-5.72904
-5.72904
-5.72904
-5.72904
-5.72904
-5.72904
-5.72904
-5.72904
-5.72904
-5.72904
-5.72904
-5.72904
-5.72904
)
;
    }
    defaultFaces
    {
        type            empty;
    }
}


// ************************************************************************* //
