/*--------------------------------*- C++ -*----------------------------------*\
| =========                 |                                                 |
| \\      /  F ield         | OpenFOAM: The Open Source CFD Toolbox           |
|  \\    /   O peration     | Version:  2.3.0                                 |
|   \\  /    A nd           | Web:      www.OpenFOAM.org                      |
|    \\/     M anipulation  |                                                 |
\*---------------------------------------------------------------------------*/
FoamFile
{
    version     2.0;
    format      ascii;
    class       surfaceScalarField;
    location    "1.6";
    object      phi;
}
// * * * * * * * * * * * * * * * * * * * * * * * * * * * * * * * * * * * * * //

dimensions      [0 3 -1 0 0 0 0];

internalField   nonuniform List<scalar> 
4432
(
-4.78631e-06
4.78631e-06
-1.04362e-05
5.64989e-06
-1.218e-05
1.74376e-06
-6.29159e-06
-5.88837e-06
9.57618e-06
-1.58678e-05
2.35332e-05
-1.3957e-05
1.8485e-05
5.04817e-06
3.24453e-06
1.52405e-05
-6.39297e-06
9.63751e-06
-7.18527e-06
7.92308e-07
-4.62724e-06
-2.55804e-06
-2.27651e-06
-2.35072e-06
-4.59493e-07
-1.81702e-06
1.40934e-06
-1.86883e-06
2.95975e-06
-1.55042e-06
2.65143e-06
3.08321e-07
-1.14077e-06
3.79222e-06
-6.92454e-06
5.78378e-06
-1.06602e-05
3.73564e-06
-1.05156e-05
-1.44596e-07
-8.12589e-06
-2.3897e-06
-4.55756e-06
-3.56833e-06
-4.55756e-06
-6.08979e-06
1.08761e-05
-1.29079e-05
1.2468e-05
-1.76664e-05
6.50233e-06
-1.61858e-05
-7.36901e-06
-4.04809e-06
-2.80055e-05
1.41022e-05
-3.21073e-05
2.10363e-05
-1.88591e-06
1.39219e-05
2.23549e-05
5.88275e-06
1.76766e-05
2.22851e-06
4.44658e-06
2.33404e-07
-5.62945e-07
-1.36513e-06
-7.52173e-07
-1.18528e-06
-1.99688e-06
6.4694e-07
-3.70105e-06
2.4348e-06
-3.33826e-06
3.6524e-06
-9.09274e-07
4.12668e-06
3.31796e-06
2.93167e-06
6.97878e-06
1.23153e-06
5.43579e-06
-4.13058e-07
1.5e-06
-1.62901e-06
-1.17374e-06
-1.2001e-06
-3.99724e-06
-5.75766e-06
-5.8874e-06
1.67635e-05
-1.54493e-05
2.20299e-05
-2.15382e-05
1.25913e-05
-2.14549e-05
-7.45233e-06
-1.368e-05
-3.57803e-05
-5.31246e-07
-4.52561e-05
1.36433e-05
-1.60604e-05
1.38067e-05
2.21916e-05
9.7508e-06
2.17325e-05
4.77687e-06
9.42053e-06
2.91243e-07
3.92267e-06
-2.32122e-06
1.8603e-06
-2.06505e-06
-2.25305e-06
2.12095e-07
-5.9782e-06
2.32887e-06
-5.45503e-06
3.06061e-06
-1.64102e-06
3.97522e-06
2.40335e-06
5.39531e-06
5.55869e-06
6.41332e-06
4.41779e-06
5.83972e-06
2.0736e-06
3.88484e-06
7.81137e-07
1.688e-06
-1.80039e-06
-4.06966e-06
-5.60157e-06
2.23651e-05
-1.44194e-05
3.08477e-05
-1.69873e-05
1.51592e-05
-1.90117e-05
-5.42793e-06
-1.77103e-05
-3.70817e-05
-1.03398e-05
-5.26266e-05
3.01403e-06
-2.94143e-05
7.25588e-06
1.79497e-05
6.40083e-06
2.25876e-05
2.41944e-06
1.34019e-05
-1.51546e-06
7.85755e-06
-2.79785e-06
3.14268e-06
-1.46609e-06
-3.5848e-06
1.19245e-06
-8.63675e-06
3.29694e-06
-7.5595e-06
3.23526e-06
-1.57935e-06
2.18601e-06
3.45262e-06
2.0933e-06
5.65139e-06
4.31059e-06
2.2005e-06
6.68416e-06
-2.99961e-07
6.5337e-06
9.31587e-07
3.92026e-06
8.13055e-07
-1.49415e-07
-4.17952e-06
2.65446e-05
-8.80991e-06
3.54781e-05
-8.6334e-06
1.49827e-05
-1.28921e-05
-1.16922e-06
-1.84191e-05
-3.15547e-05
-1.8064e-05
-5.29817e-05
-7.50481e-06
-3.99735e-05
6.9643e-07
9.74848e-06
6.94204e-07
2.25898e-05
-1.23842e-06
1.53346e-05
-2.69864e-06
9.31778e-06
-1.99837e-06
2.44241e-06
5.996e-07
-6.18276e-06
4.19853e-06
-1.22357e-05
6.38088e-06
-9.74184e-06
5.08916e-06
-2.87637e-07
1.66382e-06
6.87796e-06
-1.03876e-06
8.35398e-06
3.82508e-07
7.79233e-07
5.09684e-06
-5.01429e-06
7.54467e-06
-1.51625e-06
5.86012e-06
2.49761e-06
5.7107e-06
-1.929e-06
2.84736e-05
-1.21827e-06
3.47673e-05
-1.56211e-06
1.53266e-05
-6.0439e-06
3.31256e-06
-1.63114e-05
-2.12872e-05
-2.088e-05
-4.8413e-05
-1.34698e-05
-4.73837e-05
-4.87659e-06
1.15526e-06
-3.69025e-06
2.14034e-05
-3.30183e-06
1.49461e-05
-2.42844e-06
8.44439e-06
2.36081e-07
-2.22101e-07
4.19217e-06
-1.01388e-05
9.02702e-06
-1.70705e-05
1.16101e-05
-1.23249e-05
9.36292e-06
1.95955e-06
3.51596e-06
1.27249e-05
-2.22931e-06
1.40993e-05
-2.00679e-06
5.56719e-07
3.98802e-06
-1.10091e-05
8.55841e-06
-6.08665e-06
7.86184e-06
3.19418e-06
1.35725e-05
1.15517e-06
2.73184e-05
6.89906e-06
2.90234e-05
6.0083e-06
1.62173e-05
1.06462e-07
9.21439e-06
-1.41938e-05
-6.98695e-06
-2.33037e-05
-3.93032e-05
-1.7966e-05
-5.27214e-05
-8.15164e-06
-8.65905e-06
-6.01755e-06
1.92693e-05
-3.51048e-06
1.24391e-05
-5.01413e-07
5.4353e-06
4.02363e-06
-4.74716e-06
9.38688e-06
-1.55021e-05
1.47426e-05
-2.24263e-05
1.76289e-05
-1.52112e-05
1.50797e-05
4.50872e-06
7.50294e-06
2.03017e-05
-1.2826e-06
2.28848e-05
-6.67378e-07
-5.85087e-08
6.34742e-06
-1.80239e-05
1.13806e-05
-1.11199e-05
1.18735e-05
2.70126e-06
2.5446e-05
3.87204e-06
2.34464e-05
1.35648e-05
1.93306e-05
1.30584e-05
1.67237e-05
3.95533e-06
1.83175e-05
-1.26709e-05
9.63925e-06
-2.63432e-05
-2.56309e-05
-2.47157e-05
-5.43489e-05
-1.32999e-05
-2.00748e-05
-5.81582e-06
1.17852e-05
-1.55876e-06
8.18202e-06
3.51156e-06
3.64997e-07
8.87164e-06
-1.01072e-05
1.43963e-05
-2.10268e-05
1.91104e-05
-2.71404e-05
2.16547e-05
-1.77556e-05
1.87988e-05
7.36462e-06
8.63086e-06
3.04697e-05
-1.21963e-06
3.27353e-05
2.73941e-06
-4.01756e-06
1.17772e-05
-2.70617e-05
1.67966e-05
-1.61393e-05
1.58423e-05
3.65554e-06
4.12884e-05
-8.05308e-06
8.05308e-06
-1.72273e-05
9.17421e-06
-1.37439e-05
-3.48341e-06
2.63058e-06
-1.63744e-05
2.19935e-05
-1.93629e-05
3.37987e-05
-1.18052e-05
3.49528e-05
-1.15409e-06
3.14555e-05
3.49726e-06
3.32257e-05
-1.7702e-06
3.99603e-05
-6.73453e-06
3.94012e-05
5.59041e-07
2.80412e-05
1.136e-05
1.59472e-05
1.20941e-05
7.30499e-06
8.64216e-06
-2.04655e-06
9.35155e-06
-9.97429e-06
7.92775e-06
-1.73462e-05
7.3719e-06
-1.47432e-05
-2.60302e-06
-1.47432e-05
-1.06446e-05
1.86977e-05
-1.90798e-05
1.76094e-05
-1.48142e-05
-7.74904e-06
-1.39412e-06
-2.97945e-05
1.58786e-05
-3.66356e-05
3.21007e-05
-2.80273e-05
4.16008e-05
-1.06542e-05
4.29419e-05
2.15615e-06
4.24085e-05
-1.23674e-06
4.53144e-05
-9.64052e-06
4.74283e-05
-1.55483e-06
4.28067e-05
1.59816e-05
3.03565e-05
2.45443e-05
1.22046e-05
2.67941e-05
-3.71503e-06
2.52712e-05
-1.02609e-05
1.44736e-05
-1.23505e-05
9.4615e-06
-8.81757e-06
-6.1359e-06
-2.35608e-05
-9.39268e-06
2.80904e-05
-1.53175e-05
2.35342e-05
-1.07265e-05
-1.23401e-05
2.19889e-08
-4.0543e-05
1.35758e-05
-5.01894e-05
2.65124e-05
-4.09639e-05
3.62993e-05
-2.04411e-05
4.03019e-05
-1.84644e-06
4.09791e-05
-1.91393e-06
4.23485e-05
-1.10099e-05
4.32085e-05
-2.41484e-06
4.04614e-05
1.87287e-05
2.98948e-05
3.51109e-05
1.26288e-05
4.40601e-05
4.67774e-06
3.32222e-05
5.90084e-06
1.32505e-05
1.37384e-06
1.39885e-05
4.89044e-07
-5.25108e-06
-2.30717e-05
-6.7371e-06
3.48274e-05
-9.49382e-06
2.62909e-05
-4.07604e-06
-1.77578e-05
6.01725e-06
-5.06363e-05
1.73752e-05
-6.15473e-05
2.57402e-05
-4.93289e-05
3.26177e-05
-2.73186e-05
3.61882e-05
-5.41688e-06
3.60141e-05
-1.73991e-06
3.60956e-05
-1.10914e-05
3.62395e-05
-2.55875e-06
3.23357e-05
2.26325e-05
2.06109e-05
4.68357e-05
7.03747e-06
5.76335e-05
7.39767e-06
3.2862e-05
1.69352e-05
3.71297e-06
1.87058e-05
1.22179e-05
1.09105e-05
2.54424e-06
-1.21612e-05
-2.55322e-06
3.73807e-05
1.62154e-07
2.35756e-05
7.93938e-06
-2.55351e-05
1.82909e-05
-6.09878e-05
2.65285e-05
-6.97849e-05
3.00533e-05
-5.28537e-05
3.16804e-05
-2.89457e-05
3.23127e-05
-6.0492e-06
3.14681e-05
-8.95317e-07
3.13935e-05
-1.10168e-05
2.9965e-05
-1.13025e-06
2.0544e-05
3.20534e-05
4.97269e-06
6.24069e-05
-4.64791e-06
6.72541e-05
-2.28601e-06
3.05002e-05
9.41011e-06
-7.98313e-06
1.74627e-05
4.16527e-06
1.23856e-05
7.62136e-06
2.24404e-07
3.40409e-06
3.39766e-05
1.3581e-05
1.33986e-05
2.47115e-05
-3.66655e-05
3.44421e-05
-7.07185e-05
3.87927e-05
-7.41354e-05
3.69643e-05
-5.10254e-05
3.19537e-05
-2.3935e-05
2.93984e-05
-3.49387e-06
2.98323e-05
-1.32923e-06
2.86728e-05
-9.85733e-06
2.23879e-05
5.15473e-06
5.51915e-06
4.89222e-05
-1.24518e-05
8.03779e-05
-1.98749e-05
7.46771e-05
-1.77225e-05
2.83478e-05
-5.55145e-06
-2.01541e-05
7.86831e-06
-9.25449e-06
7.76396e-06
7.72572e-06
7.98836e-06
9.59418e-06
2.43824e-05
2.78098e-05
-4.81703e-06
4.26352e-05
-5.14909e-05
5.02658e-05
-7.83491e-05
5.12133e-05
-7.5083e-05
4.59223e-05
-4.57343e-05
3.62369e-05
-1.42497e-05
3.02461e-05
2.497e-06
2.96624e-05
-7.45572e-07
2.53082e-05
-5.50308e-06
1.19968e-05
1.84661e-05
-1.00187e-05
7.09377e-05
-2.72929e-05
9.76521e-05
-3.43616e-05
8.17459e-05
-3.67449e-05
3.0731e-05
-2.6123e-05
-3.0776e-05
-7.30518e-06
-2.80723e-05
1.54448e-06
-1.12393e-06
9.53283e-06
2.06132e-05
3.76921e-06
4.49758e-05
-2.91797e-05
5.81131e-05
-6.46282e-05
6.21676e-05
-8.24036e-05
6.09568e-05
-7.38722e-05
5.52192e-05
-3.99967e-05
4.36974e-05
-2.72784e-06
3.25174e-05
1.3677e-05
2.71869e-05
4.58494e-06
1.86196e-05
3.06418e-06
2.38788e-07
3.6847e-05
-2.22634e-05
9.344e-05
-3.69414e-05
0.00011233
-4.20864e-05
8.68908e-05
-4.99372e-05
3.85819e-05
-4.09289e-05
-3.97843e-05
-2.0797e-05
-4.82042e-05
-5.79613e-06
-1.61248e-05
3.73671e-06
2.78669e-05
-4.42056e-06
5.51207e-05
-7.92309e-06
5.37338e-05
1.81107e-05
2.45522e-05
4.7499e-05
-1.47154e-05
4.89068e-05
-5.32486e-05
1.29024e-05
-6.72452e-05
-4.03524e-05
-5.11744e-05
-3.61456e-05
-1.91957e-05
-2.01935e-05
2.61887e-06
-1.36326e-05
1.58998e-05
-1.2916e-05
2.53342e-05
-1.95416e-05
3.46306e-05
-3.03232e-05
3.96997e-05
-3.22095e-05
3.68283e-05
-1.48841e-05
2.33107e-05
2.08822e-05
1.16082e-06
5.26195e-05
-1.0902e-06
3.49863e-05
1.67107e-05
-2.18185e-05
3.20207e-05
-4.23717e-05
4.90078e-05
-3.31264e-05
6.71388e-05
-1.44755e-05
6.75399e-06
0.000101673
1.52431e-05
-1.96636e-05
-1.57983e-05
2.31181e-05
-4.13144e-05
4.36266e-05
-1.3967e-05
2.01518e-05
-1.25308e-05
4.74706e-05
-2.84811e-05
2.88526e-05
-4.78601e-05
-2.09733e-05
-4.44774e-05
-3.95283e-05
-3.15265e-05
-3.31444e-05
-9.59634e-06
-3.55627e-05
1.05127e-05
-3.3025e-05
2.53591e-05
-3.4388e-05
2.67806e-05
-3.17447e-05
1.54817e-05
-2.09106e-05
3.97245e-06
-3.37479e-06
-1.74186e-06
2.65965e-05
4.35849e-06
4.65192e-05
2.36982e-05
1.56466e-05
2.93057e-05
-2.74259e-05
2.91917e-05
-4.22578e-05
3.72662e-05
-4.12009e-05
5.42506e-05
-3.14598e-05
-1.84146e-05
7.94191e-05
-0.000144455
0.000124792
-0.000180814
5.94771e-05
-0.000105619
-3.15689e-05
-4.9084e-05
-3.63832e-05
-2.15299e-05
1.99164e-05
2.76434e-05
-2.03206e-05
0.000101786
-9.5116e-05
0.000130507
-6.82496e-05
8.94751e-05
7.88772e-06
5.70359e-05
-3.12346e-06
6.22139e-05
-3.82029e-05
5.52147e-05
-2.73888e-05
1.84827e-05
4.9873e-06
-1.47241e-05
1.22962e-05
-1.36679e-05
-4.43097e-06
4.15425e-06
8.77436e-06
3.40691e-05
1.66043e-05
5.59923e-05
-6.2766e-06
5.51174e-05
-2.65511e-05
4.25013e-05
-2.96417e-05
3.25946e-05
-3.12942e-05
3.38206e-05
-3.26859e-05
-3.17369e-05
4.71429e-05
-0.000116189
0.000240981
-9.06247e-05
3.39131e-05
-1.25649e-05
-0.000109629
0.000101946
-0.000150894
0.000239982
-0.00011812
0.000302703
-8.3042e-05
0.000296487
-8.89001e-05
0.000294099
-6.58606e-05
0.000300653
1.33368e-06
0.000250637
4.68918e-05
0.00016916
4.32744e-05
8.69825e-05
5.47882e-05
-2.77921e-05
0.000119762
-2.01158e-05
4.61999e-06
1.84542e-05
-4.3001e-05
3.1794e-05
-4.5654e-06
5.72734e-05
-8.87505e-06
8.17258e-05
-3.0729e-05
9.4914e-05
-3.97392e-05
9.59575e-05
-3.06852e-05
8.59641e-05
-2.13008e-05
7.35973e-05
-2.0319e-05
-2.96264e-05
7.14869e-05
-3.24566e-05
0.000273437
-6.56872e-06
8.02533e-06
3.43705e-05
-0.000150568
0.000113771
-0.000230294
0.000207751
-0.000212099
0.000280448
-0.000155739
0.000308784
-0.000117236
0.00031935
-7.64265e-05
0.000323976
-3.2928e-06
0.00029246
7.84084e-05
0.000222085
0.00011365
0.000152754
0.000124118
0.000119594
0.000152922
3.74486e-05
8.67657e-05
-3.09803e-05
2.54278e-05
7.74086e-06
-4.32866e-05
4.24606e-05
-4.35948e-05
7.12777e-05
-5.9546e-05
9.9632e-05
-6.80935e-05
0.000125605
-5.66587e-05
0.000148258
-4.3953e-05
0.000152085
-2.41468e-05
-4.35519e-05
0.000166011
3.39431e-05
0.000239494
5.28439e-05
-1.08756e-05
9.68803e-05
-0.000194604
0.000142693
-0.000276107
0.000181051
-0.000250458
0.00021749
-0.000192177
0.000237848
-0.000137595
0.000243484
-8.20617e-05
0.000248097
-7.90552e-06
0.000246707
7.97975e-05
0.000220214
0.000140143
0.000183273
0.000161059
0.000160563
0.000175633
0.000103699
0.000143629
4.14226e-05
8.77044e-05
4.80121e-06
-6.66525e-06
4.4125e-05
-8.29186e-05
9.04766e-05
-0.000105898
8.39504e-05
-6.15673e-05
4.92335e-05
-2.19418e-05
1.9759e-05
-1.44783e-05
3.99205e-05
-4.4308e-05
-9.82602e-05
9.46288e-05
9.62762e-05
0.000143218
0.000127613
-4.22121e-05
0.000153189
-0.000220181
0.00016127
-0.000284187
0.000162632
-0.000251819
0.000161572
-0.000191118
0.000154341
-0.000130363
0.000148591
-7.6311e-05
0.000150942
-1.02572e-05
0.000167509
6.32306e-05
0.00017131
0.000136342
0.000159691
0.000172679
0.000156005
0.000179318
0.00013259
0.000167044
9.34559e-05
0.000126838
6.74154e-05
1.93755e-05
7.53916e-05
-9.08947e-05
8.98059e-05
-0.000120312
8.13144e-05
-5.30757e-05
4.45678e-05
1.48048e-05
4.30503e-05
-1.29614e-05
8.93905e-05
-9.06484e-05
-0.000127979
0.00011911
0.000108834
3.43846e-05
0.000157888
-9.12656e-05
0.000172003
-0.000234296
0.000160948
-0.000273132
0.000137361
-0.000228232
0.000116112
-0.000169869
0.000100869
-0.00011512
8.96454e-05
-6.50872e-05
9.17112e-05
-1.2323e-05
0.000100449
5.44927e-05
0.000109535
0.000127257
0.000111531
0.000170683
0.00011788
0.000172969
0.000115897
0.000169028
9.86846e-05
0.000144051
0.000102038
1.6022e-05
9.29149e-05
-8.17712e-05
8.03549e-05
-0.000107752
6.34197e-05
-3.61404e-05
6.62439e-05
1.19809e-05
9.09141e-05
-3.76315e-05
0.000119179
-0.000118914
-0.000133017
0.000124217
6.27674e-05
-2.83827e-05
0.00012451
-0.000153008
0.000144773
-0.00025456
0.000127008
-0.000255368
9.46491e-05
-0.000195873
7.359e-05
-0.00014881
6.56733e-05
-0.000107203
5.82294e-05
-5.76432e-05
4.88417e-05
-2.93513e-06
4.00603e-05
6.32745e-05
4.21553e-05
0.000125162
5.16985e-05
0.00016114
6.59618e-05
0.000158706
6.55493e-05
0.00016944
8.68917e-05
0.000122709
9.84426e-05
4.47109e-06
9.3396e-05
-7.67245e-05
7.03127e-05
-8.46685e-05
5.5844e-05
-2.16718e-05
8.72577e-05
-1.94325e-05
0.000114954
-6.53275e-05
0.000121208
-0.000125168
-0.000101345
8.95363e-05
4.39141e-05
-7.22968e-05
0.000104316
-0.00021341
0.000105624
-0.000255868
7.53307e-05
-0.000225074
4.08092e-05
-0.000161352
2.48047e-05
-0.000132805
1.38667e-05
-9.62651e-05
-3.29728e-06
-4.04789e-05
-2.54238e-05
1.91915e-05
-3.89264e-05
7.67771e-05
-3.31717e-05
0.000119407
-1.14276e-05
0.000139396
1.08261e-05
0.000136452
3.37336e-05
0.000146533
8.2463e-05
7.39794e-05
0.000101484
-1.45501e-05
8.86696e-05
-6.391e-05
5.91247e-05
-5.51235e-05
4.78726e-05
-1.04199e-05
9.63301e-05
-6.78899e-05
0.000115016
-8.40131e-05
9.13478e-05
-0.0001015
-4.09702e-05
3.09727e-05
5.43489e-05
-0.000126646
9.44368e-05
-0.000253497
6.63747e-05
-0.000227806
2.48607e-05
-0.00018356
-1.12123e-05
-0.000125278
-3.62835e-05
-0.000107734
-6.2756e-05
-6.97925e-05
-9.62595e-05
-6.97523e-06
-0.000124374
4.73062e-05
-0.000132578
8.49808e-05
-0.000109191
9.60203e-05
-6.16265e-05
9.18314e-05
-1.6098e-05
9.09239e-05
4.37747e-05
8.66603e-05
9.45233e-05
2.32308e-05
0.000102849
-2.28759e-05
7.24692e-05
-3.35304e-05
3.78495e-05
-2.05038e-05
1.99509e-05
7.47862e-06
4.74727e-05
-9.54117e-05
4.34198e-05
-7.99605e-05
-1.81571e-05
-3.9923e-05
2.04387e-05
-7.9566e-05
6.25128e-05
-0.000189158
6.65629e-05
-0.000257547
2.20878e-05
-0.000183331
-2.36262e-05
-0.000137846
-6.11464e-05
-8.77583e-05
-9.25201e-05
-7.63603e-05
-0.000129978
-3.23341e-05
-0.000157881
2.09278e-05
-0.000167946
5.73705e-05
-0.000146036
6.30715e-05
-9.42236e-05
4.42077e-05
-3.43685e-05
3.19763e-05
1.83026e-05
3.82528e-05
7.26054e-05
3.23575e-05
9.72809e-05
-1.44459e-06
8.70921e-05
-1.26871e-05
5.78446e-05
-4.28306e-06
1.49e-05
2.2441e-05
-5.83758e-06
2.82164e-05
-2.82656e-05
-7.29834e-05
-7.86e-05
-2.96264e-05
-0.000140805
2.22819e-05
4.00085e-05
-0.000160375
4.39077e-05
-0.000233066
1.69104e-05
-0.000230549
-2.32813e-05
-0.000143139
-6.36568e-05
-9.74703e-05
-8.79266e-05
-6.34883e-05
-0.000110464
-5.38224e-05
-0.000130557
-1.22409e-05
-0.000137988
2.83585e-05
-0.000123362
4.27447e-05
-8.50327e-05
2.4742e-05
-3.33217e-05
-7.50332e-06
9.73402e-06
-1.10794e-05
4.70185e-05
9.68237e-07
7.24231e-05
6.95289e-06
7.13669e-05
-3.8838e-07
5.50208e-05
3.65917e-06
2.41202e-05
2.66172e-05
-2.33454e-05
6.99066e-05
-5.06985e-05
5.55693e-05
-0.00010008
-2.36022e-05
-0.000156234
2.65279e-05
-0.000188001
5.4049e-05
2.99834e-05
-0.000177976
1.01953e-05
-0.000243261
-2.80241e-05
-0.00019233
-5.45579e-05
-0.000116605
-7.85099e-05
-7.35184e-05
-8.6839e-05
-5.51591e-05
-9.42807e-05
-4.63805e-05
-9.54136e-05
-1.1108e-05
-8.61203e-05
1.90654e-05
-6.17477e-05
1.83722e-05
-2.50725e-05
-1.19332e-05
6.85761e-07
-3.32617e-05
1.19925e-05
-2.23863e-05
2.5326e-05
-1.23653e-05
3.7976e-05
-5.69731e-06
3.87614e-05
-1.17365e-06
2.48325e-05
1.75884e-05
-7.88952e-06
5.93391e-05
-5.57981e-05
0.000117815
-9.30928e-05
9.2864e-05
-0.000135554
1.88591e-05
-0.000171918
6.28918e-05
-0.000187649
6.97803e-05
1.77407e-05
-0.000175407
-1.66302e-05
-0.000226631
-4.90716e-05
-0.000159888
-6.6202e-05
-9.94746e-05
-7.37867e-05
-6.59336e-05
-7.17122e-05
-5.72335e-05
-6.76373e-05
-5.04552e-05
-5.45319e-05
-2.42131e-05
-3.02653e-05
-5.201e-06
-5.5964e-06
-6.2966e-06
6.16582e-06
-2.36954e-05
1.03148e-06
-2.81274e-05
-2.31429e-06
-1.90405e-05
5.54296e-07
-1.52336e-05
9.4557e-06
-1.45985e-05
1.52344e-05
-6.95224e-06
8.17436e-06
2.46484e-05
-2.20113e-05
8.95248e-05
-6.2661e-05
0.000158465
-9.54539e-05
0.000125657
-0.000119871
4.32758e-05
-0.000147889
9.09101e-05
-0.000169543
9.14345e-05
2.38219e-05
-0.000175624
-2.38928e-05
-0.000202738
-4.86086e-05
-0.000135172
-6.15935e-05
-8.64896e-05
-6.23972e-05
-6.51296e-05
-5.73806e-05
-6.22499e-05
-5.14436e-05
-5.6392e-05
-3.72761e-05
-3.83805e-05
-1.80661e-05
-2.44109e-05
-4.98143e-06
-1.93812e-05
-7.93223e-06
-2.07446e-05
-1.55748e-05
-2.04848e-05
-1.67405e-05
-1.78747e-05
-1.32228e-05
-1.87513e-05
-7.29036e-06
-2.0531e-05
-1.12338e-06
-1.31191e-05
-1.52069e-06
2.50458e-05
-2.04983e-05
0.000108502
-5.09253e-05
0.000188892
-7.48649e-05
0.000149597
-9.02788e-05
5.86896e-05
-0.000106553
0.000107184
-0.000137138
0.00012202
5.96203e-05
-0.000172936
-2.03034e-05
-0.000182435
-4.04482e-05
-0.000115027
-5.17032e-05
-7.52343e-05
-5.25984e-05
-6.42343e-05
-5.04175e-05
-6.44309e-05
-4.76912e-05
-5.91183e-05
-3.95115e-05
-4.65601e-05
-2.80558e-05
-3.58667e-05
-1.91098e-05
-2.83273e-05
-1.63605e-05
-2.34941e-05
-1.73907e-05
-1.94547e-05
-1.86501e-05
-1.66152e-05
-1.9834e-05
-1.75673e-05
-1.90576e-05
-2.13073e-05
-1.49636e-05
-1.72131e-05
-9.3147e-06
1.93971e-05
-7.33311e-06
0.000106521
-2.52116e-05
0.000206771
-4.91288e-05
0.000173514
-6.45595e-05
7.41203e-05
-5.91661e-05
0.00010179
-7.86861e-05
0.00014154
0.000102262
-0.000121328
-1.4492e-05
-0.000167942
-3.09177e-05
-9.86011e-05
-4.28317e-05
-6.332e-05
-4.67793e-05
-6.02867e-05
-4.8243e-05
-6.29672e-05
-4.71063e-05
-6.02551e-05
-3.99711e-05
-5.36952e-05
-2.90601e-05
-4.67775e-05
-1.89845e-05
-3.84028e-05
-1.32551e-05
-2.92235e-05
-1.22048e-05
-2.05052e-05
-1.43061e-05
-1.45139e-05
-1.90274e-05
-1.2846e-05
-2.46624e-05
-1.56724e-05
-2.57532e-05
-1.61225e-05
-1.52343e-05
8.87826e-06
6.59203e-06
8.46946e-05
1.22489e-05
0.000201114
-1.60885e-05
0.000201851
-4.19159e-05
9.99477e-05
-1.88054e-05
7.868e-05
-1.38276e-05
0.000136562
0.000128121
-3.96867e-05
-9.8942e-06
-0.000158048
-2.26006e-05
-8.58945e-05
-3.69013e-05
-4.90194e-05
-4.463e-05
-5.2558e-05
-4.88888e-05
-5.87085e-05
-4.76297e-05
-6.15141e-05
-3.8768e-05
-6.25569e-05
-2.5336e-05
-6.02095e-05
-1.2275e-05
-5.14637e-05
-3.96791e-06
-3.75305e-05
-2.31921e-06
-2.21541e-05
-5.42877e-06
-1.14046e-05
-1.20007e-05
-6.27433e-06
-2.174e-05
-5.9332e-06
-2.94365e-05
-8.42624e-06
-2.19945e-05
1.43602e-06
1.00347e-05
5.26652e-05
4.79364e-05
0.000163212
4.27979e-05
0.000206989
4.07371e-06
0.000138672
8.10854e-06
7.46452e-05
2.95316e-05
0.000115139
0.000124614
3.30393e-05
-9.98717e-06
-0.000148061
-1.69366e-05
-7.8945e-05
-3.48194e-05
-3.11366e-05
-4.63486e-05
-4.10286e-05
-5.26495e-05
-5.24075e-05
-5.081e-05
-6.33536e-05
-4.04382e-05
-7.29287e-05
-2.49622e-05
-7.56855e-05
-8.41732e-06
-6.80086e-05
3.97066e-06
-4.99187e-05
8.28273e-06
-2.64664e-05
5.03483e-06
-8.15691e-06
-2.17198e-06
9.32303e-07
-1.27156e-05
4.61035e-06
-2.49093e-05
3.76725e-06
-2.8567e-05
5.09316e-06
-4.93168e-06
2.90295e-05
5.44246e-05
0.000103855
8.92526e-05
0.000172161
7.42708e-05
0.000153654
4.68547e-05
0.000102061
5.45417e-05
0.000107452
0.000110047
6.91088e-05
-1.39901e-05
-0.000134071
-1.50543e-05
-7.78808e-05
-3.76394e-05
-8.55145e-06
-5.29545e-05
-2.57134e-05
-6.14178e-05
-4.39441e-05
-6.11528e-05
-6.36186e-05
-5.46063e-05
-7.94753e-05
-4.45141e-05
-8.57777e-05
-2.94862e-05
-8.30365e-05
-9.88671e-06
-6.95185e-05
5.61161e-06
-4.19651e-05
9.9885e-06
-1.25341e-05
6.19235e-06
4.72832e-06
-2.50392e-06
1.33065e-05
-1.40327e-05
1.52959e-05
-2.44666e-05
1.55268e-05
-1.89414e-05
2.35039e-05
2.86313e-05
5.6282e-05
8.84286e-05
0.000112364
0.000113962
0.000128121
0.000105449
0.000110575
0.000100766
0.000112135
0.000114235
9.65776e-05
-1.71239e-05
-0.000116947
-2.14543e-05
-7.35504e-05
-4.69304e-05
1.69248e-05
-6.49325e-05
-7.71132e-06
-7.62178e-05
-3.26587e-05
-8.11095e-05
-5.87271e-05
-8.4847e-05
-7.57379e-05
-8.5165e-05
-8.54597e-05
-7.70998e-05
-9.11017e-05
-5.83033e-05
-8.83152e-05
-3.04844e-05
-6.97842e-05
-5.73212e-06
-3.72866e-05
5.38963e-06
-6.39354e-06
4.16502e-06
1.45309e-05
-3.54594e-06
2.30066e-05
-1.15053e-05
2.34859e-05
-1.46204e-05
2.66187e-05
4.41911e-06
3.72425e-05
5.35656e-05
6.32175e-05
0.000101275
8.04111e-05
0.000129121
8.27287e-05
0.000148944
9.23114e-05
0.000101999
0.000161181
-2.03825e-05
-9.6564e-05
-3.70635e-05
-5.68694e-05
-6.09372e-05
4.07985e-05
-8.01697e-05
1.15211e-05
-9.47834e-05
-1.80451e-05
-0.0001087
-4.48111e-05
-0.000124174
-6.02636e-05
-0.000133954
-7.56796e-05
-0.00013229
-9.27664e-05
-0.000117119
-0.000103486
-8.85895e-05
-9.83135e-05
-5.14157e-05
-7.44603e-05
-1.79914e-05
-3.98178e-05
-3.10292e-07
-3.15013e-06
2.22544e-06
2.04707e-05
-2.87765e-07
2.5999e-05
-8.63648e-07
2.71946e-05
5.64799e-06
3.07311e-05
3.02782e-05
3.85872e-05
6.68222e-05
4.38672e-05
0.000105442
4.41085e-05
0.000149356
4.83972e-05
5.5631e-05
0.000195724
-2.76663e-05
-6.88977e-05
-5.31991e-05
-3.13366e-05
-7.33335e-05
6.09326e-05
-9.3869e-05
3.20566e-05
-0.000113138
1.22365e-06
-0.00013701
-2.09394e-05
-0.000161732
-3.55413e-05
-0.000176508
-6.09038e-05
-0.000177129
-9.21458e-05
-0.000165263
-0.000115351
-0.000141343
-0.000122234
-0.000105474
-0.000110329
-6.36245e-05
-8.16674e-05
-2.52443e-05
-4.15303e-05
-3.32921e-06
-1.44429e-06
5.33021e-06
1.73394e-05
9.48814e-06
2.30364e-05
1.64521e-05
2.37671e-05
3.0875e-05
2.41645e-05
5.24098e-05
2.23324e-05
7.9844e-05
1.66742e-05
0.00011805
1.01909e-05
7.56287e-06
0.000166118
-3.79793e-05
-3.09186e-05
-6.02365e-05
-9.0796e-06
-7.58737e-05
7.65693e-05
-0.000100066
5.62486e-05
-0.000126261
2.74187e-05
-0.000157735
1.05343e-05
-0.000187037
-6.23851e-06
-0.000202392
-4.55494e-05
-0.000203821
-9.07169e-05
-0.000195668
-0.000123504
-0.000176811
-0.000141092
-0.000145753
-0.000141386
-0.0001056
-0.000121821
-6.17963e-05
-8.53335e-05
-2.21862e-05
-4.10543e-05
2.85261e-06
-7.69942e-06
1.43907e-05
1.14983e-05
2.2323e-05
1.58348e-05
3.37267e-05
1.27609e-05
4.97105e-05
6.34859e-06
6.96009e-05
-3.21632e-06
9.57172e-05
-1.59255e-05
-2.74049e-05
0.000130685
-4.4921e-05
1.40023e-05
-6.11843e-05
7.1833e-06
-6.42998e-05
7.96845e-05
-9.64244e-05
8.83731e-05
-0.000129819
6.08129e-05
-0.000167012
4.77276e-05
-0.000198616
2.53652e-05
-0.000214603
-2.95622e-05
-0.000219028
-8.62914e-05
-0.000213102
-0.00012943
-0.000195132
-0.000159062
-0.000165836
-0.000170682
-0.00012799
-0.000159667
-8.53787e-05
-0.000127945
-4.14451e-05
-8.49879e-05
-6.35308e-06
-4.27915e-05
1.39648e-05
-8.8195e-06
2.33114e-05
6.48801e-06
3.17908e-05
4.2816e-06
4.3359e-05
-5.21963e-06
5.80037e-05
-1.78611e-05
7.65026e-05
-3.44245e-05
-5.30018e-05
0.000102099
-4.08719e-05
5.48741e-05
-5.57682e-05
2.20792e-05
-4.54711e-05
6.93875e-05
-8.45477e-05
0.00012745
-0.00012354
9.98049e-05
-0.000163035
8.72223e-05
-0.000195378
5.77082e-05
-0.000214768
-1.0172e-05
-0.00022358
-7.74794e-05
-0.000219984
-0.000133026
-0.000202925
-0.000176121
-0.000173818
-0.000199789
-0.000136322
-0.000197163
-9.39246e-05
-0.000170342
-5.03137e-05
-0.000128599
-1.38779e-05
-7.92274e-05
8.99572e-06
-3.16932e-05
1.98641e-05
-4.38053e-06
2.61679e-05
-2.02217e-06
3.3798e-05
-1.28496e-05
4.40154e-05
-2.80784e-05
5.63393e-05
-4.67484e-05
-6.97991e-05
7.31366e-05
-2.03796e-05
7.52537e-05
-4.27736e-05
4.4473e-05
-2.63567e-05
5.29707e-05
-6.57372e-05
0.00016683
-0.000106414
0.000140481
-0.000145576
0.000126385
-0.000177779
8.99107e-05
-0.00020035
1.23995e-05
-0.000212131
-6.56983e-05
-0.000211739
-0.000133418
-0.000197772
-0.000190087
-0.000171937
-0.000225625
-0.000137636
-0.000231464
-9.75621e-05
-0.000210416
-5.42503e-05
-0.000171911
-1.6218e-05
-0.00011726
5.21591e-06
-5.3127e-05
1.28652e-05
-1.20298e-05
1.76803e-05
-6.8373e-06
2.19503e-05
-1.71195e-05
2.80477e-05
-3.41757e-05
3.5028e-05
-5.37285e-05
-7.88221e-05
4.40511e-05
9.04992e-07
7.43485e-05
-1.58197e-05
6.11974e-05
-6.72473e-06
4.38757e-05
-3.76848e-05
0.00019779
-7.83254e-05
0.000181122
-0.000114845
0.000162904
-0.000146667
0.000121733
-0.000170765
3.64979e-05
-0.000184773
-5.1691e-05
-0.000187775
-0.000130416
-0.000178623
-0.000199241
-0.000158879
-0.000245369
-0.000131295
-0.000259047
-9.81708e-05
-0.00024354
-5.9616e-05
-0.000210465
-2.15154e-05
-0.00015536
1.08668e-06
-7.5729e-05
5.09749e-06
-1.60405e-05
6.92749e-06
-8.66714e-06
8.74403e-06
-1.89359e-05
1.09304e-05
-3.6362e-05
1.31391e-05
-5.5937e-05
-8.06573e-05
1.49744e-05
1.16269e-05
6.27214e-05
1.34222e-05
5.94019e-05
1.50886e-05
4.22092e-05
-2.84331e-06
0.000215722
-4.30394e-05
0.000221318
-7.46289e-05
0.000194493
-0.000104575
0.000151679
-0.000130588
6.25113e-05
-0.000146787
-3.54922e-05
-0.000152912
-0.000124291
-0.000149141
-0.000203012
-0.000137143
-0.000257366
-0.000117847
-0.000278343
-9.41787e-05
-0.000267209
-6.50282e-05
-0.000239616
-3.34641e-05
-0.000186924
-9.52075e-06
-9.96723e-05
-5.00126e-06
-2.05601e-05
-6.1625e-06
-7.50584e-06
-5.8657e-06
-1.92326e-05
-6.73908e-06
-3.54884e-05
-8.70152e-06
-5.39745e-05
-7.62856e-05
-1.30732e-05
8.81561e-06
5.39055e-05
3.82502e-05
2.9967e-05
4.2901e-05
3.75583e-05
3.80804e-05
0.000220542
-4.90538e-06
0.000264304
-3.4874e-05
0.000224462
-5.98682e-05
0.000176673
-8.68528e-05
8.9496e-05
-0.000105645
-1.67001e-05
-0.000114116
-0.00011582
-0.000115368
-0.000201761
-0.000111377
-0.000261357
-0.000101181
-0.000288539
-8.78543e-05
-0.000280536
-7.00549e-05
-0.000257415
-4.90574e-05
-0.000207922
-2.97762e-05
-0.000118954
-2.04528e-05
-2.98835e-05
-2.11088e-05
-6.8499e-06
-2.08674e-05
-1.9474e-05
-2.32287e-05
-3.31272e-05
-2.81781e-05
-4.9025e-05
-6.66599e-05
-3.78037e-05
1.61131e-05
3.77923e-05
5.40125e-05
-7.93257e-06
6.78043e-05
2.37665e-05
7.4517e-05
0.00021383
3.22746e-05
0.000306546
-3.1132e-06
0.00025985
-2.36073e-05
0.000197167
-4.67941e-05
0.000112683
-6.7143e-05
3.64878e-06
-7.64804e-05
-0.000106482
-8.15942e-05
-0.000196647
-8.46651e-05
-0.000258287
-8.3968e-05
-0.000289236
-8.15671e-05
-0.000282937
-7.55044e-05
-0.000263478
-6.55188e-05
-0.000217908
-5.29977e-05
-0.000131475
-4.03789e-05
-4.25023e-05
-3.72221e-05
-1.00068e-05
-3.58601e-05
-2.08361e-05
-3.747e-05
-3.15174e-05
-4.3268e-05
-4.32271e-05
-5.46953e-05
-5.52326e-05
4.33939e-05
-5.60169e-06
7.3584e-05
-3.81228e-05
8.47599e-05
1.25905e-05
9.39797e-05
0.00020461
6.17939e-05
0.000338732
2.4285e-05
0.000297359
1.94331e-06
0.000219509
-1.45494e-05
0.000129176
-3.20873e-05
2.11866e-05
-4.18086e-05
-9.67613e-05
-4.9748e-05
-0.000188708
-5.86706e-05
-0.000249364
-6.68754e-05
-0.000281031
-7.50359e-05
-0.000274777
-8.03937e-05
-0.00025812
-8.02263e-05
-0.000218075
-7.27837e-05
-0.000138917
-6.00057e-05
-5.52804e-05
-5.25037e-05
-1.75087e-05
-4.9072e-05
-2.42679e-05
-4.83589e-05
-3.22306e-05
-5.25244e-05
-3.90617e-05
-4.49414e-05
-6.22784e-05
5.87091e-05
-6.43109e-05
9.12556e-05
-7.06695e-05
9.60826e-05
7.76355e-06
9.62707e-05
0.000204422
7.56145e-05
0.000359388
4.60844e-05
0.000326889
2.71087e-05
0.000238484
1.30928e-05
0.000143191
1.38424e-06
3.28951e-05
-8.2888e-06
-8.70883e-05
-2.00063e-05
-0.00017699
-3.42581e-05
-0.000235112
-4.99025e-05
-0.000265387
-6.68095e-05
-0.00025787
-8.20271e-05
-0.000242903
-9.01445e-05
-0.000209958
-8.68899e-05
-0.000142172
-7.54544e-05
-6.6716e-05
-6.45827e-05
-2.83805e-05
-5.86494e-05
-3.02013e-05
-5.55616e-05
-3.53187e-05
-5.70603e-05
-3.75633e-05
-3.8952e-05
-6.30498e-05
5.26689e-05
-0.00011698
8.601e-05
-0.000104011
8.81029e-05
5.6705e-06
8.38277e-05
0.000208697
7.34394e-05
0.000369776
5.67297e-05
0.000343599
4.41316e-05
0.000251082
3.57458e-05
0.000151577
2.96334e-05
3.90073e-05
2.05634e-05
-7.80184e-05
6.80273e-06
-0.00016323
-1.1419e-05
-0.00021689
-3.30406e-05
-0.000243765
-5.60549e-05
-0.000234855
-7.82537e-05
-0.000220704
-9.30497e-05
-0.000195162
-9.36427e-05
-0.000141579
-8.30488e-05
-7.731e-05
-7.06997e-05
-4.07298e-05
-6.32671e-05
-3.76341e-05
-5.88223e-05
-3.97638e-05
-5.80734e-05
-3.83123e-05
-3.59833e-05
-6.10422e-05
3.55371e-05
-0.000152517
5.53692e-05
-0.000123843
5.66268e-05
4.41271e-06
5.80448e-05
0.000207279
6.24327e-05
0.000365388
6.02149e-05
0.000345816
5.75312e-05
0.000253766
5.64823e-05
0.000152626
5.56677e-05
3.98218e-05
4.7606e-05
-6.99568e-05
3.03981e-05
-0.000146022
8.31745e-06
-0.00019481
-1.70282e-05
-0.00021842
-4.30766e-05
-0.000208807
-6.86271e-05
-0.000195154
-8.80893e-05
-0.0001757
-9.26832e-05
-0.000136985
-8.35191e-05
-8.64741e-05
-7.12864e-05
-5.29626e-05
-6.32594e-05
-4.56614e-05
-5.83328e-05
-4.46905e-05
-5.61194e-05
-4.05259e-05
-3.53438e-05
-5.6759e-05
8.48775e-06
-0.000161005
1.30032e-05
-0.000128359
1.83812e-05
-9.65452e-07
2.76142e-05
0.000198046
4.84464e-05
0.000344556
6.27628e-05
0.0003315
7.10557e-05
0.000245473
7.74785e-05
0.000146203
7.97388e-05
3.75615e-05
6.98694e-05
-6.00874e-05
4.87778e-05
-0.00012493
2.43737e-05
-0.000170406
-2.90044e-06
-0.000191146
-2.92888e-05
-0.000182419
-5.43543e-05
-0.000170088
-7.56724e-05
-0.000154382