/*--------------------------------*- C++ -*----------------------------------*\
| =========                 |                                                 |
| \\      /  F ield         | OpenFOAM: The Open Source CFD Toolbox           |
|  \\    /   O peration     | Version:  2.3.0                                 |
|   \\  /    A nd           | Web:      www.OpenFOAM.org                      |
|    \\/     M anipulation  |                                                 |
\*---------------------------------------------------------------------------*/
FoamFile
{
    version     2.0;
    format      ascii;
    class       volVectorField;
    location    "1.6";
    object      U;
}
// * * * * * * * * * * * * * * * * * * * * * * * * * * * * * * * * * * * * * //

dimensions      [0 1 -1 0 0 0 0];

internalField   nonuniform List<vector> 
2268
(
(-0.023081 0.0117642 0)
(-0.0990394 0.0146074 0)
(-0.147608 0.00259675 0)
(-0.116363 -0.0182971 0)
(-0.00107224 -0.0448091 0)
(0.190485 -0.0302933 0)
(0.298007 0.0234564 0)
(0.153125 0.0469188 0)
(-0.0589446 0.0207458 0)
(-0.0989505 -0.0105633 0)
(-0.066691 -0.0183733 0)
(-0.0388609 -0.014056 0)
(-0.0153009 -0.00863664 0)
(0.00512621 -0.00613785 0)
(0.0247658 -0.00504043 0)
(0.0400998 0.00339315 0)
(0.0224283 0.0177596 0)
(-0.0483726 0.0205196 0)
(-0.113888 0.00194632 0)
(-0.125116 -0.0102214 0)
(-0.107622 -0.0125347 0)
(-0.0735013 -0.0162546 0)
(-0.0256499 -0.0178745 0)
(-0.032779 0.0421693 0)
(-0.12077 0.0475292 0)
(-0.182165 0.0177243 0)
(-0.205086 -0.0392687 0)
(-0.126191 -0.123495 0)
(0.0188011 -0.131067 0)
(0.254369 0.0163508 0)
(0.260673 0.10679 0)
(0.0899158 0.0788037 0)
(0.0299165 0.0160605 0)
(0.0153867 -0.0115681 0)
(-0.0116577 -0.0112037 0)
(-0.0208227 -0.0104877 0)
(-0.00507344 -0.0139435 0)
(0.0184774 -0.0122007 0)
(0.0329533 -0.000847901 0)
(0.052175 0.0218066 0)
(0.0429291 0.0407628 0)
(0.0211573 0.0331376 0)
(0.0103694 0.00729736 0)
(-0.0184093 -0.0138357 0)
(-0.0191172 -0.0248874 0)
(-0.00563454 -0.0324005 0)
(-0.024739 0.0739113 0)
(-0.126023 0.0906854 0)
(-0.226179 0.0503059 0)
(-0.252692 -0.0466611 0)
(-0.199134 -0.188511 0)
(-0.136053 -0.225924 0)
(0.115137 -0.0410993 0)
(0.219096 0.122578 0)
(0.136543 0.112762 0)
(0.0721283 0.0400657 0)
(0.0261236 0.00707557 0)
(-0.0222237 0.00406036 0)
(-0.0329624 -0.00996676 0)
(-0.012389 -0.0256474 0)
(0.0166646 -0.0235413 0)
(0.0324141 -0.00843398 0)
(0.0362574 0.0125236 0)
(0.0530489 0.0336714 0)
(0.0720856 0.0305889 0)
(0.0802892 0.0134624 0)
(0.0600681 0.00129832 0)
(0.0303792 -0.0168137 0)
(0.0128191 -0.0298022 0)
(-0.0216398 0.10553 0)
(-0.12403 0.1431 0)
(-0.19273 0.0758869 0)
(-0.205053 -0.0476106 0)
(-0.192441 -0.213497 0)
(-0.222331 -0.271456 0)
(-0.0479968 -0.124748 0)
(0.117117 0.106978 0)
(0.0876982 0.122188 0)
(0.0441074 0.0618281 0)
(0.00103046 0.032636 0)
(-0.036315 0.0155416 0)
(-0.0301656 -0.0151831 0)
(-0.00165819 -0.0390377 0)
(0.0293561 -0.0350072 0)
(0.0410208 -0.00879392 0)
(0.0292406 0.0144469 0)
(0.0180873 0.028482 0)
(0.0342138 0.0184598 0)
(0.0710418 0.00811719 0)
(0.0863848 0.00768817 0)
(0.0657146 -0.00171104 0)
(0.0296006 -0.0125422 0)
(-0.0176026 0.132476 0)
(-0.0954316 0.178408 0)
(-0.0927515 0.0826685 0)
(-0.123633 -0.0194937 0)
(-0.132867 -0.190605 0)
(-0.280882 -0.292083 0)
(-0.182647 -0.19309 0)
(0.0186619 0.0814608 0)
(0.0121829 0.121916 0)
(-0.00444841 0.0772262 0)
(-0.027605 0.0480454 0)
(-0.0360495 0.0162986 0)
(-0.0121894 -0.02477 0)
(0.0298202 -0.0536194 0)
(0.0681515 -0.0443744 0)
(0.071236 -0.00712233 0)
(0.0392153 0.0254486 0)
(-0.00676691 0.0347028 0)
(-0.0166603 0.00698589 0)
(0.0318935 -0.0114168 0)
(0.0846348 0.00204133 0)
(0.090586 0.0110255 0)
(0.048916 0.0125464 0)
(-0.0122797 0.151607 0)
(-0.04425 0.201903 0)
(0.0144382 0.0821684 0)
(-0.0519761 0.0131331 0)
(-0.0600052 -0.144554 0)
(-0.295918 -0.279035 0)
(-0.236577 -0.2381 0)
(-0.0483462 0.0344625 0)
(-0.0441817 0.118779 0)
(-0.0426566 0.0829489 0)
(-0.0393251 0.0498475 0)
(-0.0189685 0.00973272 0)
(0.0216317 -0.0416912 0)
(0.0801007 -0.0755609 0)
(0.129205 -0.054786 0)
(0.129766 0.00513251 0)
(0.0764372 0.0529358 0)
(-0.00613241 0.0584897 0)
(-0.04455 0.000953429 0)
(0.00607197 -0.0416329 0)
(0.0799721 -0.0176507 0)
(0.115685 0.0192904 0)
(0.0669491 0.0575747 0)
(-0.0198239 0.151966 0)
(0.0372363 0.180317 0)
(0.103058 0.0879506 0)
(0.0239014 0.0231582 0)
(-0.00861399 -0.0837606 0)
(-0.294154 -0.236165 0)
(-0.294256 -0.271539 0)
(-0.0949656 -0.0211328 0)
(-0.0716046 0.110237 0)
(-0.059547 0.0756035 0)
(-0.0276131 0.0391921 0)
(0.0143296 -0.0133628 0)
(0.076505 -0.0706558 0)
(0.144022 -0.106737 0)
(0.194743 -0.0737142 0)
(0.201502 0.0201442 0)
(0.138269 0.088439 0)
(0.0164257 0.093455 0)
(-0.0466235 0.00524545 0)
(0.0361293 -0.0721708 0)
(0.103019 -0.0434556 0)
(0.155064 0.0146635 0)
(0.110405 0.0937869 0)
(-0.0324249 0.149688 0)
(0.104164 0.135902 0)
(0.184003 0.102643 0)
(0.101936 0.0937308 0)
(0.0264038 0.0221564 0)
(-0.295607 -0.177676 0)
(-0.364233 -0.288196 0)
(-0.201082 -0.079553 0)
(-0.0760408 0.0990707 0)
(-0.0490218 0.0616476 0)
(0.00718616 0.0103085 0)
(0.0686193 -0.0413235 0)
(0.134572 -0.0987593 0)
(0.198423 -0.139612 0)
(0.23702 -0.0984358 0)
(0.248848 0.0203493 0)
(0.179115 0.124561 0)
(-0.00104093 0.149812 0)
(-0.023983 -0.00286007 0)
(0.101236 -0.121772 0)
(0.166766 -0.0696483 0)
(0.226761 0.029355 0)
(0.11465 0.209214 0)
(-0.0482753 0.0179785 0)
(-0.169833 0.022249 0)
(-0.204344 -0.00667263 0)
(-0.0738145 -0.0457999 0)
(0.13693 -0.0475381 0)
(0.343403 -0.0164351 0)
(0.413993 0.012932 0)
(0.372415 0.010282 0)
(0.353784 -0.0191597 0)
(0.412211 -0.0321359 0)
(0.481938 0.00185674 0)
(0.412367 0.0371889 0)
(0.248204 0.0321701 0)
(0.137426 0.0152729 0)
(0.019625 0.0235079 0)
(-0.0730161 0.0293244 0)
(-0.186474 0.0284368 0)
(-0.215667 -0.00478022 0)
(-0.0764776 -0.0458195 0)
(-0.069639 0.0646439 0)
(-0.212375 0.0639718 0)
(-0.206028 -0.0332201 0)
(-0.096913 -0.125037 0)
(0.0702091 -0.147707 0)
(0.27494 -0.101518 0)
(0.444159 -0.0252823 0)
(0.500629 0.0212823 0)
(0.486888 -5.75938e-05 0)
(0.483294 -0.0392528 0)
(0.530353 -0.00201359 0)
(0.553506 0.0671534 0)
(0.440368 0.0907723 0)
(0.266417 0.0832254 0)
(0.0103462 0.0766797 0)
(-0.100766 0.0492636 0)
(-0.163601 0.0330102 0)
(-0.140032 -0.0319411 0)
(-0.020713 -0.113703 0)
(-0.0681651 0.113021 0)
(-0.186751 0.0980978 0)
(-0.151055 -0.0516532 0)
(-0.0629474 -0.173836 0)
(0.0745629 -0.216213 0)
(0.222684 -0.174584 0)
(0.367509 -0.0777302 0)
(0.458407 0.00171885 0)
(0.472533 -0.00861827 0)
(0.458831 -0.0535616 0)
(0.481435 -0.0138696 0)
(0.510893 0.0799977 0)
(0.429402 0.142297 0)
(0.263708 0.169846 0)
(0.0253425 0.149255 0)
(0.0726352 0.0773688 0)
(0.0433287 0.0621362 0)
(-0.0208618 -0.0410791 0)
(0.0430766 -0.127872 0)
(-0.055502 0.152092 0)
(-0.137003 0.118565 0)
(-0.0782682 -0.0770764 0)
(0.00878337 -0.220064 0)
(0.142829 -0.272749 0)
(0.243494 -0.22481 0)
(0.327276 -0.121844 0)
(0.413014 -0.0202228 0)
(0.426356 -0.0105234 0)
(0.389459 -0.0536425 0)
(0.404094 -0.0102416 0)
(0.431126 0.0971934 0)
(0.322205 0.193674 0)
(0.154404 0.252225 0)
(0.0147596 0.186158 0)
(0.138733 0.0611216 0)
(0.21473 0.0811036 0)
(0.193224 0.00681943 0)
(0.0973575 -0.0803099 0)
(-0.0312661 0.180178 0)
(-0.0536048 0.128251 0)
(0.0520567 -0.107211 0)
(0.167582 -0.27443 0)
(0.269675 -0.321515 0)
(0.325198 -0.251146 0)
(0.340148 -0.143857 0)
(0.377967 -0.0340317 0)
(0.375485 -0.00746398 0)
(0.335866 -0.0558074 0)
(0.350741 -0.015264 0)
(0.340925 0.123678 0)
(0.134384 0.262364 0)
(-0.0152545 0.319716 0)
(-0.0609073 0.169507 0)
(-0.015111 -0.0181885 0)
(0.199491 0.0401837 0)
(0.214485 0.0222825 0)
(0.108217 -0.0263409 0)
(-0.00902994 0.173268 0)
(0.0586753 0.0958334 0)
(0.234786 -0.144768 0)
(0.375151 -0.321685 0)
(0.438812 -0.352208 0)
(0.43957 -0.25374 0)
(0.37869 -0.131786 0)
(0.340841 -0.0257912 0)
(0.3483 -0.00392814 0)
(0.324938 -0.0536997 0)
(0.306077 0.00230989 0)
(0.207062 0.18947 0)
(-0.0820093 0.351155 0)
(-0.193201 0.349963 0)
(-0.231477 0.142344 0)
(-0.205097 -0.0593324 0)
(0.0561218 0.000301759 0)
(0.137642 0.0411903 0)
(0.0724925 0.024773 0)
(-0.00489653 0.172226 0)
(0.17853 0.0432382 0)
(0.439339 -0.214264 0)
(0.5724 -0.365762 0)
(0.601405 -0.364361 0)
(0.566646 -0.236183 0)
(0.454859 -0.092863 0)
(0.358144 -0.00482451 0)
(0.347436 -0.00542591 0)
(0.32533 -0.0425054 0)
(0.240634 0.0509813 0)
(0.0323412 0.290061 0)
(-0.263575 0.439837 0)
(-0.354961 0.384744 0)
(-0.425789 0.154254 0)
(-0.412939 -0.125319 0)
(-0.194561 -0.0842271 0)
(0.0248069 0.0236796 0)
(0.0252513 0.0463883 0)
(0.0265668 0.0355178 0)
(0.382433 -0.107962 0)
(0.634821 -0.290828 0)
(0.719579 -0.392171 0)
(0.71925 -0.361973 0)
(0.676113 -0.206375 0)
(0.56216 -0.0441731 0)
(0.415217 0.02794 0)
(0.33923 -0.000336366 0)
(0.293902 -0.00564427 0)
(0.133463 0.143147 0)
(-0.129493 0.404738 0)
(-0.385311 0.493723 0)
(-0.460458 0.354829 0)
(-0.548004 0.0667092 0)
(-0.54296 -0.221353 0)
(-0.380502 -0.20295 0)
(-0.100955 -0.028818 0)
(-0.0172284 0.041796 0)
(0.044274 0.0627203 0)
(0.21982 0.0109589 0)
(0.319604 0.00900582 0)
(0.228066 0.0586186 0)
(0.105812 0.0962705 0)
(-0.252663 -0.0462193 0)
(-0.393898 -0.286002 0)
(-0.338627 -0.166324 0)
(-0.17124 0.00302654 0)
(-0.0333483 0.0215308 0)
(0.0535895 -0.00852369 0)
(0.106945 -0.0600566 0)
(0.1657 -0.132417 0)
(0.204591 -0.171402 0)
(0.210166 -0.10806 0)
(0.181616 0.0614696 0)
(0.0752304 0.232089 0)
(-0.0677541 0.21774 0)
(0.0580467 -0.0863548 0)
(0.138846 -0.211859 0)
(0.212316 -0.147797 0)
(0.34253 -0.0320019 0)
(0.423764 0.152591 0)
(0.0783618 -0.10945 0)
(0.00256029 -0.108359 0)
(-0.254051 0.232312 0)
(-0.0708495 0.307756 0)
(0.00697257 0.328181 0)
(-0.11782 0.13107 0)
(-0.25222 -0.216263 0)
(-0.221788 -0.244834 0)
(-0.229057 -0.216623 0)
(-0.111286 -0.163465 0)
(-0.00226379 -0.132006 0)
(0.0997505 -0.158138 0)
(0.170995 -0.195815 0)
(0.117829 -0.160182 0)
(0.0457551 -0.0520647 0)
(0.00831539 0.160529 0)
(-0.0259957 0.307809 0)
(0.0639576 0.130751 0)
(0.181097 -0.152406 0)
(0.153945 -0.252443 0)
(0.158775 -0.220588 0)
(0.234609 -0.128995 0)
(0.355771 -0.0492128 0)
(-0.844474 0.119164 0)
(-0.991224 0.475553 0)
(-0.682778 0.257656 0)
(-0.411388 0.108958 0)
(-0.170272 0.331233 0)
(0.0356712 0.27555 0)
(0.230222 0.0664172 0)
(0.779582 -0.133061 0)
(0.676256 -0.147434 0)
(0.315704 -0.225645 0)
(0.280534 -0.23922 0)
(0.371017 -0.225736 0)
(0.21043 -0.151978 0)
(-0.0204563 -0.0483242 0)
(-0.114328 0.0209954 0)
(-0.0270372 0.14137 0)
(0.0720457 0.206244 0)
(0.258496 0.0442902 0)
(0.340464 -0.124355 0)
(0.270208 -0.191124 0)
(0.1837 -0.210185 0)
(0.163044 -0.194686 0)
(0.211546 -0.16034 0)
(-0.83791 0.861185 0)
(-0.595705 0.175318 0)
(-0.242138 -0.575985 0)
(0.215149 -0.67396 0)
(0.914498 -0.211683 0)
(1.43058 -0.36145 0)
(1.70693 -0.777051 0)
(1.73287 -0.544224 0)
(1.51971 0.139232 0)
(1.44204 0.26588 0)
(1.16508 0.00139403 0)
(0.86837 0.0423818 0)
(-0.138545 0.285926 0)
(-0.200002 0.133263 0)
(0.07582 -0.0605015 0)
(0.129209 -0.0320282 0)
(0.224447 -0.00499262 0)
(0.370556 -0.0863816 0)
(0.492193 -0.148392 0)
(0.53831 -0.127085 0)
(0.495693 -0.12144 0)
(0.418808 -0.158631 0)
(0.377709 -0.192343 0)
(-0.525995 1.38537 0)
(-0.0346021 0.0334971 0)
(0.0450208 -0.750317 0)
(0.420546 -1.10842 0)
(0.813046 -1.05288 0)
(1.27533 -0.750647 0)
(1.63118 -0.505133 0)
(1.79331 -0.287407 0)
(1.77612 -0.0278841 0)
(1.64881 0.247904 0)
(1.38689 0.38791 0)
(1.10588 0.469958 0)
(0.562597 0.761544 0)
(0.51165 0.0475756 0)
(-0.167273 -0.193256 0)
(-0.0360457 -0.0194882 0)
(0.14592 -0.110758 0)
(0.303114 -0.242963 0)
(0.463305 -0.259298 0)
(0.605228 -0.182965 0)
(0.728309 -0.101892 0)
(0.807194 -0.0636827 0)
(0.84677 -0.109077 0)
(-0.194822 1.53289 0)
(0.306872 0.0204766 0)
(0.442954 -0.967313 0)
(0.670068 -1.42697 0)
(0.829551 -1.31348 0)
(1.03816 -0.997092 0)
(1.26029 -0.741463 0)
(1.33294 -0.508271 0)
(1.33185 -0.0694356 0)
(1.3581 0.410044 0)
(1.28569 0.692912 0)
(1.10645 0.795726 0)
(0.878303 0.930544 0)
(0.777479 0.629431 0)
(0.349998 0.280312 0)
(-0.0804088 -0.332756 0)
(0.213541 -0.417128 0)
(0.343251 -0.475116 0)
(0.506408 -0.41994 0)
(0.377015 -0.334291 0)
(0.142353 -0.260412 0)
(0.100491 -0.180158 0)
(0.37783 -0.398337 0)
(0.0792426 1.21128 0)
(0.645567 0.00549624 0)
(0.884836 -1.08344 0)
(0.838321 -1.52814 0)
(0.844265 -1.37902 0)
(0.867766 -1.07565 0)
(0.853272 -0.768631 0)
(0.82059 -0.410038 0)
(0.78849 0.00737946 0)
(0.863142 0.445316 0)
(0.957987 0.788485 0)
(0.917451 0.932376 0)
(0.819279 0.965773 0)
(0.815295 0.891624 0)
(0.582226 0.603181 0)
(0.339393 0.165391 0)
(0.446569 -0.449761 0)
(0.44097 -0.631707 0)
(0.479119 -0.320611 0)
(0.320279 -0.000151126 0)
(0.162407 -0.00461625 0)
(0.351489 -0.361464 0)
(0.591808 -0.642649 0)
(0.323945 0.489672 0)
(0.691072 -0.3289 0)
(1.00858 -1.17926 0)
(0.876905 -1.4998 0)
(0.792066 -1.30474 0)
(0.691406 -0.965826 0)
(0.569826 -0.639132 0)
(0.500004 -0.357955 0)
(0.466391 -0.076256 0)
(0.507029 0.30864 0)
(0.599859 0.707847 0)
(0.629997 0.937196 0)
(0.578421 0.965815 0)
(0.661411 0.930684 0)
(0.557308 0.799632 0)
(0.511088 0.10025 0)
(0.555553 -0.471245 0)
(0.489992 -0.622632 0)
(0.36201 -0.252613 0)
(0.285517 0.155145 0)
(0.406905 -0.113345 0)
(0.597779 -0.573876 0)
(0.67357 -0.714115 0)
(0.136774 -0.115279 0)
(0.470766 -0.724265 0)
(0.865776 -1.35935 0)
(0.692051 -1.44519 0)
(0.610305 -1.14011 0)
(0.442638 -0.853454 0)
(0.353273 -0.61708 0)
(0.324796 -0.368042 0)
(0.279787 -0.0694477 0)
(0.22789 0.276161 0)
(0.236507 0.6665 0)
(0.280499 0.912513 0)
(0.279945 0.911077 0)
(0.382482 0.904301 0)
(0.376158 0.778638 0)
(0.484675 0.069482 0)
(0.569067 -0.41037 0)
(0.472864 -0.517074 0)
(0.272504 -0.149242 0)
(0.349103 -0.018917 0)
(0.552856 -0.261499 0)
(0.678189 -0.682404 0)
(0.61361 -0.6766 0)
(0.030728 -0.277024 0)
(0.429171 -1.01231 0)
(0.704747 -1.42004 0)
(0.392046 -1.31951 0)
(0.357963 -0.974537 0)
(0.138736 -0.763424 0)
(0.0943989 -0.58641 0)
(0.0329325 -0.315691 0)
(-0.0812762 0.0139766 0)
(-0.183037 0.379373 0)
(-0.192352 0.688599 0)
(-0.102362 0.837743 0)
(-0.0148979 0.806757 0)
(0.0905871 0.894103 0)
(0.294247 0.529721 0)
(0.531595 -0.0166413 0)
(0.585902 -0.384351 0)
(0.388692 -0.397345 0)
(0.235341 -0.0729681 0)
(0.368792 -0.214568 0)
(0.618224 -0.429715 0)
(0.570295 -0.702176 0)
(0.357659 -0.497411 0)
(0.128083 -0.512458 0)
(0.470103 -1.29903 0)
(0.543678 -1.34359 0)
(0.125813 -1.10633 0)
(0.0986997 -0.764726 0)
(-0.181988 -0.6538 0)
(-0.259747 -0.461395 0)
(-0.437842 -0.126639 0)
(-0.619116 0.238666 0)
(-0.711222 0.503631 0)
(-0.655971 0.640107 0)
(-0.452595 0.68926 0)
(-0.21699 0.690903 0)
(0.0302828 0.719219 0)
(0.390645 0.282073 0)
(0.591603 -0.101844 0)
(0.530546 -0.272891 0)
(0.275587 -0.19829 0)
(0.109941 -0.0260929 0)
(0.187989 -0.508015 0)
(0.307483 -0.555551 0)
(0.0598076 -0.438555 0)
(-0.282005 0.0218553 0)
(0.25514 -0.848486 0)
(0.403403 -1.42914 0)
(0.300522 -1.12293 0)
(-0.0911787 -0.860597 0)
(-0.177935 -0.550575 0)
(-0.435425 -0.480459 0)
(-0.596626 -0.234398 0)
(-0.798708 0.0811336 0)
(-0.92207 0.319984 0)
(-0.882511 0.427189 0)
(-0.637024 0.409872 0)
(-0.325716 0.34135 0)
(-0.0518607 0.337041 0)
(0.231313 0.253602 0)
(0.489212 -0.00913157 0)
(0.541328 -0.143674 0)
(0.420579 -0.120754 0)
(0.21318 -0.00501516 0)
(-0.0256661 0.116844 0)
(-0.0356378 -0.496046 0)
(-0.288621 -0.290257 0)
(-0.649031 0.0317467 0)
(-0.839623 0.233733 0)
(0.211071 -1.18418 0)
(0.201203 -1.36295 0)
(-0.00954682 -0.868235 0)
(-0.261231 -0.620218 0)
(-0.399886 -0.393543 0)
(-0.541508 -0.326039 0)
(-0.643706 -0.0835975 0)
(-0.750254 0.164981 0)
(-0.755332 0.294119 0)
(-0.575209 0.249669 0)
(-0.296833 0.095249 0)
(-0.041771 0.00818757 0)
(0.148733 0.0517931 0)
(0.325552 0.0752875 0)
(0.405325 -0.0170983 0)
(0.362113 -0.0296239 0)
(0.236905 0.0528402 0)
(0.0138468 0.241605 0)
(-0.209295 0.22011 0)
(-0.351962 -0.262424 0)
(-0.733282 0.0368221 0)
(-0.983825 0.252097 0)
(-1.02939 0.21614 0)
(0.0796025 -1.34063 0)
(-0.0270841 -1.139 0)
(-0.247715 -0.677045 0)
(-0.365122 -0.432234 0)
(-0.451063 -0.304212 0)
(-0.49094 -0.253763 0)
(-0.502832 -0.0417173 0)
(-0.503291 0.153554 0)
(-0.447446 0.202268 0)
(-0.241289 0.0605365 0)
(-0.00613755 -0.181049 0)
(0.0281972 -0.144868 0)
(0.0972068 -0.0549835 0)
(0.169501 -0.0104245 0)
(0.205866 -0.00248222 0)
(0.18361 0.0697319 0)
(0.0788995 0.237237 0)
(-0.163117 0.508754 0)
(-0.406392 0.385556 0)
(-0.570026 0.0323653 0)
(-0.854654 0.255827 0)
(-1.02497 0.322706 0)
(-0.991661 0.110107 0)
(-0.0385343 -1.28952 0)
(-0.17009 -0.917955 0)
(-0.340465 -0.565229 0)
(-0.383973 -0.359255 0)
(-0.39581 -0.289005 0)
(-0.380494 -0.252299 0)
(-0.329645 -0.0944426 0)
(-0.232073 0.0353735 0)
(-0.117749 0.015864 0)
(0.0402875 -0.174588 0)
(0.0379064 -0.195931 0)
(-0.010539 -0.112368 0)
(-0.0154967 -0.0602361 0)
(0.0224889 -0.0483029 0)
(0.0589834 -0.0232621 0)
(0.0793627 0.113429 0)
(0.0098586 0.399489 0)
(-0.237347 0.748663 0)
(-0.477545 0.578586 0)
(-0.484017 0.175443 0)
(-0.740782 0.422702 0)
(-0.906901 0.412671 0)
(-0.92257 0.0764046 0)
(-0.0758602 -1.1475 0)
(-0.196663 -0.784401 0)
(-0.328439 -0.492105 0)
(-0.34125 -0.350799 0)
(-0.321442 -0.326123 0)
(-0.296209 -0.297897 0)
(-0.246162 -0.187984 0)
(-0.147367 -0.105346 0)
(-0.0487293 -0.09666 0)
(-0.0176126 -0.121678 0)
(-0.0655491 -0.122992 0)
(-0.0903557 -0.0953998 0)
(-0.079832 -0.0975585 0)
(-0.0561001 -0.104347 0)
(-0.0297438 -0.060859 0)
(0.0109723 0.138803 0)
(-0.0145848 0.546076 0)
(-0.189942 0.941935 0)
(-0.416468 0.742309 0)
(-0.35376 0.26753 0)
(-0.532747 0.547664 0)
(-0.678445 0.573895 0)
(-0.822804 0.17952 0)
(-0.0674153 -1.02888 0)
(-0.160919 -0.669491 0)
(-0.280357 -0.435112 0)
(-0.285217 -0.353082 0)
(-0.274221 -0.347533 0)
(-0.267191 -0.315685 0)
(-0.239674 -0.232901 0)
(-0.180051 -0.166292 0)
(-0.121379 -0.130665 0)
(-0.0910036 -0.119343 0)
(-0.088183 -0.108321 0)
(-0.092706 -0.097696 0)
(-0.0994993 -0.105609 0)
(-0.106905 -0.121679 0)
(-0.105537 -0.0852054 0)
(-0.0697204 0.129474 0)
(-0.0271941 0.601521 0)
(-0.0380072 1.08422 0)
(-0.271032 0.864139 0)
(-0.283304 0.361167 0)
(-0.318742 0.600936 0)
(-0.349154 0.749979 0)
(-0.537895 0.430477 0)
(-0.0612566 -0.939536 0)
(-0.105888 -0.572912 0)
(-0.230208 -0.377367 0)
(-0.243069 -0.343417 0)
(-0.255028 -0.350221 0)
(-0.262425 -0.324081 0)
(-0.239316 -0.269719 0)
(-0.185567 -0.220519 0)
(-0.126336 -0.17635 0)
(-0.0825157 -0.13876 0)
(-0.0636004 -0.106102 0)
(-0.0654482 -0.0842277 0)
(-0.0831364 -0.0847598 0)
(-0.114064 -0.105944 0)
(-0.14698 -0.095928 0)
(-0.137008 0.0789583 0)
(-0.0467583 0.538059 0)
(0.141567 1.1386 0)
(-0.0328957 1.01192 0)
(-0.185004 0.412238 0)
(-0.183775 0.505248 0)
(-0.000328346 0.82195 0)
(-0.171431 0.678541 0)
(-0.0718393 -0.880263 0)
(-0.0508843 -0.493741 0)
(-0.189912 -0.308206 0)
(-0.220948 -0.310831 0)
(-0.255235 -0.332176 0)
(-0.268858 -0.328301 0)
(-0.238497 -0.310861 0)
(-0.173315 -0.284013 0)
(-0.0984482 -0.235714 0)
(-0.0381756 -0.172782 0)
(-0.0107134 -0.110869 0)
(-0.0150832 -0.067933 0)
(-0.0396197 -0.0495326 0)
(-0.0821368 -0.0584286 0)
(-0.142297 -0.0725972 0)
(-0.178057 0.0187883 0)
(-0.0944206 0.380069 0)
(0.232918 1.03518 0)
(0.254266 1.15401 0)
(0.128268 0.64364 0)
(-0.0544634 0.363909 0)
(0.175402 0.684772 0)
(0.112652 0.737674 0)
(-0.0978551 -0.831452 0)
(-0.0189953 -0.437404 0)
(-0.163157 -0.22085 0)
(-0.222538 -0.257297 0)
(-0.274212 -0.302497 0)
(-0.289689 -0.337 0)
(-0.251019 -0.366098 0)
(-0.178476 -0.368383 0)
(-0.0910144 -0.320715 0)
(-0.00596751 -0.227874 0)
(0.0453168 -0.12123 0)
(0.0436744 -0.047284 0)
(0.0130047 -0.0113031 0)
(-0.030836 -0.000256588 0)
(-0.0968739 -0.0125797 0)
(-0.174991 0.00444558 0)
(-0.156324 0.207259 0)
(0.150293 0.741732 0)
(0.420197 1.09865 0)
(0.482535 0.872067 0)
(0.29988 0.461313 0)
(0.28087 0.536431 0)
(0.28743 0.648564 0)
(-0.117762 -0.763937 0)
(-0.0252877 -0.421391 0)
(-0.15181 -0.10985 0)
(-0.252782 -0.182433 0)
(-0.318081 -0.261234 0)
(-0.337162 -0.345028 0)
(-0.312359 -0.421311 0)
(-0.274187 -0.448349 0)
(-0.21029 -0.417668 0)
(-0.114185 -0.325294 0)
(-0.00107348 -0.173265 0)
(0.0606191 -0.0410413 0)
(0.0537742 0.0257167 0)
(0.0163509 0.0512456 0)
(-0.0383986 0.0561464 0)
(-0.112701 0.0538119 0)
(-0.161622 0.118378 0)
(-0.0249154 0.392465 0)
(0.34045 0.790786 0)
(0.5837 0.828134 0)
(0.614146 0.632263 0)
(0.578583 0.595122 0)
(0.49658 0.568107 0)
(-0.122198 -0.678169 0)
(-0.065154 -0.42416 0)
(-0.174769 0.0203312 0)
(-0.314223 -0.0910393 0)
(-0.38632 -0.206707 0)
(-0.422048 -0.338037 0)
(-0.448955 -0.430334 0)
(-0.468316 -0.471508 0)
(-0.452617 -0.474629 0)
(-0.381073 -0.425574 0)
(-0.249437 -0.295337 0)
(-0.0798813 -0.112806 0)
(0.0224234 0.0207461 0)
(0.0409724 0.0888476 0)
(0.00604948 0.1066 0)
(-0.0430306 0.109257 0)
(-0.0850915 0.132614 0)
(-0.0744481 0.218331 0)
(0.135424 0.419887 0)
(0.430672 0.553128 0)
(0.63776 0.566165 0)
(0.766911 0.614157 0)
(0.84996 0.622869 0)
(-0.127434 -0.57825 0)
(-0.126132 -0.37021 0)
(-0.245949 0.153579 0)
(-0.39256 0.00912165 0)
(-0.468264 -0.140779 0)
(-0.543311 -0.290009 0)
(-0.631604 -0.377002 0)
(-0.708858 -0.439791 0)
(-0.734678 -0.496206 0)
(-0.688727 -0.514505 0)
(-0.570787 -0.449325 0)
(-0.375409 -0.292021 0)
(-0.172913 -0.101723 0)
(-0.0203426 0.0601619 0)
(0.0225978 0.133255 0)
(0.00289352 0.138299 0)
(-0.00915363 0.147109 0)
(-0.00202234 0.178102 0)
(0.0735144 0.240133 0)
(0.253956 0.293603 0)
(0.460372 0.323281 0)
(0.685852 0.394934 0)
(0.929502 0.468144 0)
(-0.153086 -0.449725 0)
(-0.197391 -0.239864 0)
(-0.321266 0.273396 0)
(-0.456618 0.112073 0)
(-0.547133 -0.0562176 0)
(-0.668772 -0.188882 0)
(-0.815548 -0.268742 0)
(-0.929451 -0.373105 0)
(-0.967302 -0.500163 0)
(-0.935716 -0.594448 0)
(-0.8406 -0.599074 0)
(-0.670315 -0.498702 0)
(-0.454965 -0.319683 0)
(-0.228407 -0.0998597 0)
(-0.0435922 0.0830259 0)
(0.0180319 0.135937 0)
(0.0371847 0.141112 0)
(0.0638045 0.147 0)
(0.120204 0.163486 0)
(0.218205 0.162438 0)
(0.350647 0.141125 0)
(0.523038 0.129356 0)
(0.755161 0.146336 0)
(-0.194503 -0.277943 0)
(-0.258704 -0.0860627 0)
(-0.343615 0.369817 0)
(-0.471415 0.231565 0)
(-0.595106 0.0678156 0)
(-0.766345 -0.0371311 0)
(-0.948002 -0.112055 0)
(-1.06698 -0.278627 0)
(-1.10428 -0.490662 0)
(-1.087 -0.645671 0)
(-1.01448 -0.712199 0)
(-0.876507 -0.681733 0)
(-0.68088 -0.549108 0)
(-0.450134 -0.335569 0)
(-0.205795 -0.0926241 0)
(-0.0298583 0.0541347 0)
(0.0560907 0.108093 0)
(0.0970407 0.109401 0)
(0.148273 0.0969201 0)
(0.22291 0.0712101 0)
(0.319944 0.0265049 0)
(0.439896 -0.0297549 0)
(0.601282 -0.0734726 0)
(-0.215623 -0.0508918 0)
(-0.291067 0.000748455 0)
(-0.306636 0.458206 0)
(-0.417358 0.382924 0)
(-0.598992 0.23318 0)
(-0.80695 0.154964 0)
(-1.00952 0.0527685 0)
(-1.12815 -0.204189 0)
(-1.17676 -0.480809 0)
(-1.17545 -0.682122 0)
(-1.10982 -0.806836 0)
(-0.978301 -0.838576 0)
(-0.795148 -0.756813 0)
(-0.5729 -0.570821 0)
(-0.332814 -0.333242 0)
(-0.117771 -0.124299 0)
(0.0364924 0.0217471 0)
(0.108095 0.0660927 0)
(0.148 0.0436755 0)
(0.201433 -0.00197124 0)
(0.274568 -0.0644323 0)
(0.360858 -0.147763 0)
(0.473682 -0.23351 0)
(-0.190679 0.19024 0)
(-0.280243 0.0808608 0)
(-0.230087 0.421829 0)
(-0.314479 0.577774 0)
(-0.561091 0.430428 0)
(-0.784607 0.363665 0)
(-0.989624 0.22154 0)
(-1.1172 -0.113128 0)
(-1.19037 -0.450704 0)
(-1.20737 -0.715094 0)
(-1.1494 -0.909247 0)
(-1.02017 -1.00265 0)
(-0.837264 -0.964401 0)
(-0.618491 -0.805191 0)
(-0.38233 -0.574841 0)
(-0.164335 -0.325258 0)
(-0.000974144 -0.108193 0)
(0.0919106 0.00757791 0)
(0.129157 0.00405775 0)
(0.160652 -0.0532113 0)
(0.211475 -0.129264 0)
(0.272455 -0.226747 0)
(0.344174 -0.342697 0)
(-0.0427482 0.392486 0)
(-0.215255 0.14879 0)
(-0.142987 0.340119 0)
(-0.194884 0.789202 0)
(-0.4735 0.646061 0)
(-0.696484 0.574855 0)
(-0.895046 0.390469 0)
(-1.02972 -0.00454156 0)
(-1.11984 -0.399803 0)
(-1.15247 -0.73221 0)
(-1.11237 -1.00059 0)
(-0.999114 -1.15925 0)
(-0.835396 -1.16747 0)
(-0.635639 -1.03707 0)
(-0.407048 -0.815469 0)
(-0.180166 -0.527273 0)
(-0.0107972 -0.226665 0)
(0.0594274 -0.0509735 0)
(0.0901701 -0.0264093 0)
(0.10787 -0.0848753 0)
(0.135164 -0.172331 0)
(0.175081 -0.276382 0)
(0.21268 -0.4094 0)
(0.0613384 0.428356 0)
(-0.077057 0.299309 0)
(-0.028552 0.233297 0)
(-0.0624091 1.00446 0)
(-0.329967 0.865109 0)
(-0.540769 0.778707 0)
(-0.728807 0.560041 0)
(-0.865939 0.113804 0)
(-0.963702 -0.332776 0)
(-1.0113 -0.725259 0)
(-0.993557 -1.06414 0)
(-0.909571 -1.28587 0)
(-0.781578 -1.3384 0)
(-0.622835 -1.2409 0)
(-0.428078 -1.04651 0)
(-0.2164 -0.744342 0)
(-0.0313432 -0.34633 0)
(0.0371954 -0.0801802 0)
(0.0301858 -0.0454919 0)
(0.0471241 -0.0993779 0)
(0.0526742 -0.193587 0)
(0.0708861 -0.29936 0)
(0.0793802 -0.436463 0)
(0.0273144 0.369545 0)
(0.0803609 0.371715 0)
(0.111357 0.219277 0)
(0.0879673 1.13424 0)
(-0.139086 1.0818 0)
(-0.339673 0.967224 0)
(-0.503403 0.736983 0)
(-0.644459 0.260471 0)
(-0.750934 -0.242462 0)
(-0.811961 -0.694965 0)
(-0.815761 -1.09672 0)
(-0.76991 -1.37154 0)
(-0.683882 -1.46544 0)
(-0.577037 -1.39562 0)
(-0.432426 -1.23379 0)
(-0.270561 -0.942775 0)
(-0.111942 -0.485381 0)
(-0.00127117 -0.096819 0)
(-0.0354943 -0.0468831 0)
(-0.0265676 -0.102664 0)
(-0.0301441 -0.195131 0)
(-0.0346129 -0.298605 0)
(-0.0513245 -0.428109 0)
(-0.024067 0.317599 0)
(0.147315 0.299985 0)
(0.26108 0.266071 0)
(0.262549 1.21583 0)
(0.0843995 1.31044 0)
(-0.136555 1.13115 0)
(-0.274239 0.896531 0)
(-0.402291 0.413956 0)
(-0.52386 -0.143748 0)
(-0.59294 -0.65248 0)
(-0.613731 -1.10032 0)
(-0.609274 -1.41245 0)
(-0.564764 -1.54497 0)
(-0.516584 -1.49547 0)
(-0.427611 -1.36077 0)
(-0.330597 -1.08587 0)
(-0.223515 -0.606791 0)
(-0.0964442 -0.137755 0)
(-0.104429 -0.040218 0)
(-0.114934 -0.103789 0)
(-0.11172 -0.184577 0)
(-0.132984 -0.278392 0)
(-0.1689 -0.387622 0)
(0.00720565 0.273342 0)
(0.210027 0.0299634 0)
(0.34812 0.161778 0)
(0.431634 1.1813 0)
(0.310218 1.54902 0)
(0.0469733 1.2982 0)
(-0.100805 1.01578 0)
(-0.193068 0.550978 0)
(-0.312823 -0.0378882 0)
(-0.382972 -0.603469 0)
(-0.413666 -1.08095 0)
(-0.446398 -1.41167 0)
(-0.440295 -1.57244 0)
(-0.453971 -1.53598 0)
(-0.424842 -1.42241 0)
(-0.394289 -1.16472 0)
(-0.336437 -0.686441 0)
(-0.225861 -0.201278 0)
(-0.184006 -0.0440445 0)
(-0.206153 -0.10915 0)
(-0.188901 -0.172894 0)
(-0.21344 -0.247912 0)
(-0.256996 -0.325441 0)
(0.117286 0.119507 0)
(0.34302 -0.14239 0)
(0.411613 0.0561196 0)
(0.522625 1.09322 0)
(0.467613 1.74547 0)
(0.205864 1.49914 0)
(0.0434473 1.12229 0)
(-0.0388396 0.661176 0)
(-0.128327 0.066225 0)
(-0.191248 -0.550101 0)
(-0.22818 -1.04264 0)
(-0.289791 -1.37542 0)
(-0.319452 -1.54855 0)
(-0.389459 -1.51687 0)
(-0.420395 -1.42071 0)
(-0.452728 -1.18689 0)
(-0.43348 -0.734179 0)
(-0.340682 -0.266554 0)
(-0.274074 -0.0704023 0)
(-0.282865 -0.12091 0)
(-0.25596 -0.169756 0)
(-0.26803 -0.219532 0)
(-0.303371 -0.264 0)
(0.136974 -0.202951 0)
(0.458397 -0.284687 0)
(0.467513 0.0543175 0)
(0.544819 1.08296 0)
(0.518449 1.88799 0)
(0.306498 1.69531 0)
(0.16524 1.23647 0)
(0.087233 0.744687 0)
(0.0338406 0.166153 0)
(-0.0113435 -0.490842 0)
(-0.0587688 -0.986067 0)
(-0.143491 -1.31001 0)
(-0.206365 -1.47995 0)
(-0.319995 -1.44399 0)
(-0.402115 -1.3598 0)
(-0.487996 -1.1607 0)
(-0.501046 -0.758714 0)
(-0.426574 -0.325564 0)
(-0.355514 -0.118943 0)
(-0.334409 -0.142742 0)
(-0.305045 -0.179 0)
(-0.29873 -0.202889 0)
(-0.320096 -0.221884 0)
(0.109975 -0.527741 0)
(0.421958 -0.519042 0)
(0.420067 0.0172119 0)
(0.491845 1.10895 0)
(0.470962 1.97942 0)
(0.325645 1.82822 0)
(0.25088 1.33104 0)
(0.193081 0.803821 0)
(0.169998 0.211051 0)
(0.158212 -0.436959 0)
(0.0944933 -0.917427 0)
(-0.00971262 -1.22039 0)
(-0.102163 -1.37576 0)
(-0.245357 -1.33096 0)
(-0.361714 -1.25334 0)
(-0.485807 -1.09607 0)
(-0.530359 -0.765122 0)
(-0.472376 -0.383272 0)
(-0.398532 -0.181432 0)
(-0.358089 -0.17806 0)
(-0.3281 -0.199382 0)
(-0.310054 -0.200876 0)
(-0.318394 -0.198283 0)
(0.0829635 -0.762398 0)
(0.257059 -0.638232 0)
(0.242991 0.00876206 0)
(0.356986 1.12823 0)
(0.349979 2.00425 0)
(0.307703 1.88025 0)
(0.306822 1.37741 0)
(0.287192 0.831478 0)
(0.302565 0.228303 0)
(0.308599 -0.38734 0)
(0.228383 -0.831432 0)
(0.108859 -1.10904 0)
(-0.00843814 -1.24622 0)
(-0.168665 -1.19446 0)
(-0.299357 -1.11952 0)
(-0.442361 -1.00137 0)
(-0.516536 -0.753198 0)
(-0.478247 -0.440373 0)
(-0.4059 -0.249472 0)
(-0.358321 -0.22078 0)
(-0.325723 -0.225053 0)
(-0.304692 -0.209732 0)
(-0.30185 -0.189 0)
(0.0200348 -0.86958 0)
(0.0473463 -0.666604 0)
(0.041429 0.0517612 0)
(0.170308 1.12918 0)
(0.202259 1.94712 0)
(0.29061 1.8551 0)
(0.357446 1.36835 0)
(0.385938 0.827495 0)
(0.434239 0.229326 0)
(0.437274 -0.34035 0)
(0.330417 -0.725792 0)
(0.200594 -0.980862 0)
(0.0680618 -1.102 0)
(-0.0959546 -1.05094 0)
(-0.223543 -0.979733 0)
(-0.362036 -0.888498 0)
(-0.459429 -0.717614 0)
(-0.452476 -0.485053 0)
(-0.389605 -0.314107 0)
(-0.33997 -0.265426 0)
(-0.305884 -0.252246 0)
(-0.284413 -0.224237 0)
(-0.274207 -0.190684 0)
(-0.0500514 -0.838285 0)
(-0.128692 -0.675645 0)
(-0.100155 -0.0331012 0)
(-0.00418064 1.06489 0)
(0.0849671 1.80093 0)
(0.281708 1.73798 0)
(0.409713 1.30217 0)
(0.483665 0.780839 0)
(0.542462 0.210939 0)
(0.516739 -0.280086 0)
(0.382608 -0.60443 0)
(0.254095 -0.847312 0)
(0.118265 -0.953969 0)
(-0.0349351 -0.914557 0)
(-0.14842 -0.853716 0)
(-0.261342 -0.775405 0)
(-0.360147 -0.658136 0)
(-0.389187 -0.505184 0)
(-0.349093 -0.368747 0)
(-0.303485 -0.308327 0)
(-0.271601 -0.279939 0)
(-0.250202 -0.241838 0)
(-0.23751 -0.198899 0)
(-0.0879679 -0.731103 0)
(-0.217654 -0.624553 0)
(-0.205071 -0.0308397 0)
(-0.126476 0.941436 0)
(0.0301427 1.58335 0)
(0.280925 1.53958 0)
(0.443365 1.16929 0)
(0.541997 0.689976 0)
(0.585796 0.197731 0)
(0.516413 -0.189703 0)
(0.378349 -0.479854 0)
(0.264177 -0.720222 0)
(0.137055 -0.814192 0)
(0.00759704 -0.794088 0)
(-0.0858144 -0.751924 0)
(-0.165894 -0.684264 0)
(-0.238584 -0.594281 0)
(-0.283573 -0.496743 0)
(-0.275628 -0.405471 0)
(-0.244371 -0.346032 0)
(-0.22041 -0.306043 0)
(-0.203669 -0.259669 0)
(-0.192884 -0.209505 0)
(-0.0793506 -0.587721 0)
(-0.2359 -0.538257 0)
(-0.174238 -0.0739372 0)
(-0.15366 0.801701 0)
(0.0370734 1.33859 0)
(0.272659 1.31695 0)
(0.433596 1.01982 0)
(0.527053 0.620495 0)
(0.537562 0.229576 0)
(0.443034 -0.0759473 0)
(0.328461 -0.371275 0)
(0.23218 -0.606696 0)
(0.126849 -0.691961 0)