/*--------------------------------*- C++ -*----------------------------------*\
| =========                 |                                                 |
| \\      /  F ield         | OpenFOAM: The Open Source CFD Toolbox           |
|  \\    /   O peration     | Version:  2.3.0                                 |
|   \\  /    A nd           | Web:      www.OpenFOAM.org                      |
|    \\/     M anipulation  |                                                 |
\*---------------------------------------------------------------------------*/
FoamFile
{
    version     2.0;
    format      ascii;
    class       volScalarField;
    location    "0.03";
    object      alpha.water;
}
// * * * * * * * * * * * * * * * * * * * * * * * * * * * * * * * * * * * * * //

dimensions      [0 0 0 0 0 0 0];

internalField   nonuniform List<scalar> 
725
(
1
1
1
1.00001
1.00002
1
1
1
1
1.00009
1
1
1
1
1.00002
1
1
1
1.00006
1
1
1
1
1
0.946902
1
1
0.919772
0.843106
0.998165
0.999967
0.999936
0.999628
0.999866
0.999976
1.00001
1.00001
0.999994
0.999979
0.999957
0.999929
0.999908
0.999894
0.999886
0.999888
0.999906
0.999985
1.00007
1.0004
0.999124
0.993679
0.993056
0.994154
0.998428
0.998458
0.998544
0.998688
0.99889
0.999098
0.999246
0.999347
0.999432
0.999501
0.999575
0.999607
0.999633
0.999665
0.999685
0.999796
0.996775
1
0.709195
0.826274
0.871454
0.962175
0.999966
0.999717
0.998247
0.998386
0.999787
1.00001
1
1.00002
1.00002
1.00002
1.00002
0.999996
0.999941
0.9999
0.999885
0.999878
0.999875
0.999893
0.999918
0.999941
0.999916
0.999545
0.998952
0.998102
0.997942
0.99786
0.997823
0.997813
0.99776
0.997726
0.997726
0.998757
0.999721
0.999699
0.999746
0.999536
0.999312
0.99957
0.999797
0.999357
0.954213
0.24571
0.346706
0.726148
0.982629
0.999882
0.999793
0.999278
0.997489
0.997685
0.998116
0.999213
0.999874
0.999925
0.999917
0.999906
0.99989
0.999838
0.999793
0.999777
0.999789
0.999803
0.999845
1.00001
1.00005
1.00008
0.999953
0.999932
0.999409
0.999183
0.999205
0.999281
0.999382
0.99947
0.999539
0.999593
0.999651
0.999718
0.999769
0.999801
0.999995
1.00002
0.999689
0.987882
0.980359
0.325405
0.108293
0.111668
0.628439
0.956686
0.985649
0.997125
0.999548
0.999546
0.991722
0.969921
0.986575
0.999637
1.00001
1
0.999808
0.999821
0.999742
0.999678
0.999584
0.99992
0.999852
0.999527
0.999465
0.999685
0.999973
1.00001
0.999976
0.999625
0.999561
0.999615
0.999674
0.999724
0.999764
0.999791
0.999808
0.999817
0.999821
0.999855
0.999776
0.999692
1
0.999949
0.97302
0.961325
0.0108441
0.104002
0.480524
0.536881
0.853007
0.851033
0.986842
0.999538
0.999548
0.979621
0.939812
0.940144
0.963319
0.999228
0.996791
0.998136
0.999826
0.999602
0.99939
0.999465
0.999919
0.999896
0.999939
1.00002
1
0.987527
0.991149
0.997998
0.999937
0.999932
0.999871
0.999854
0.99984
0.999825
0.999808
0.999793
0.999777
0.999766
0.999764
0.999346
0.999312
1.00001
0.997192
0.967196
0.961253
5.51044e-06
0.0190603
0.297194
0.564894
0.899095
0.901407
0.985741
0.984463
0.983044
0.939736
0.939755
0.93981
0.939819
0.997706
0.988295
0.998713
0.999822
0.998688
0.998219
0.999345
0.997987
0.998477
1.00002
1.00012
1.00002
0.98133
0.968007
0.997879
0.999326
0.999529
0.999621
0.999678
0.99971
0.999725
0.999722
0.999715
0.999707
0.999761
0.999553
0.999133
0.99951
0.998131
0.963781
0.957405
0.961252
-1.62291e-05
0.0133314
0.256572
0.614116
0.798088
0.944622
0.977116
0.975009
0.939911
0.939774
0.939811
0.939819
0.939839
0.955346
0.981109
0.999513
0.99977
0.99822
0.998209
0.998313
0.997966
0.997656
0.998349
0.999587
1
0.981767
0.967175
0.987111
0.99955
0.999527
0.999586
0.999636
0.999656
0.999665
0.999657
0.999649
0.999646
0.999784
0.999403
0.99912
0.999622
0.983766
0.957404
0.957399
0.961297
-0.000255759
0.00178174
0.094979
0.83416
0.868222
0.858459
0.97625
0.995529
0.990333
0.939842
0.940841
0.939905
0.949604
0.940379
0.977545
0.992232
0.999314
0.998323
0.998335
0.998532
0.999193
0.991372
0.986479
0.995162
0.998798
0.970624
0.967108
0.994884
0.998673
0.999315
0.999469
0.999526
0.99955
0.99957
0.999575
0.999573
0.999577
0.999528
0.999317
0.99913
0.998709
0.984377
0.975022
0.957405
0.9613
1.12146e-07
-8.24852e-05
0.034475
0.811624
0.868067
0.848273
0.987273
0.995533
0.995537
0.97916
0.977619
0.966353
0.965055
0.939863
0.944819
0.978741
0.993103
0.999333
0.999324
0.999581
0.999579
0.967611
0.973454
0.980598
0.975747
0.967019
0.967043
0.996649
0.999679
0.999601
0.999547
0.999504
0.999484
0.999492
0.999494
0.999514
0.999542
0.999538
0.999419
0.999656
0.995858
0.999624
0.999583
0.981578
0.958468
1.12486e-05
6.81108e-05
0.138779
0.737967
0.855577
0.84913
0.976441
0.995538
0.989335
0.957268
0.938133
0.938127
0.939482
0.939742
0.939878
0.992488
0.994709
0.999478
0.999447
0.999584
0.999577
0.965785
0.968524
0.969679
0.967084
0.966919
0.966973
0.997594
0.999717
0.99974
0.999628
0.999469
0.999405
0.999405
0.999418
0.999436
0.999457
0.999491
0.999494
0.999644
0.999123
0.99964
0.983708
0.959614
0.958391
1
1
1
1.00002
0.956724
1
1
1
1.00004
1
1
1
1
1
1.00003
1
1
1
1
1.00007
1
1
1
1.00001
1.00005
0.000161305
0.00010961
0.183729
0.61662
0.862757
0.947164
0.992471
0.995531
0.97508
0.938133
0.938127
0.938117
0.938127
0.950885
0.994977
0.999984
0.999631
0.999566
0.999518
0.998269
0.984087
0.963472
0.965955
0.966608
0.966734
0.966859
0.978072
0.998571
1
1.00007
1
0.999464
0.999264
0.999287
0.999332
0.99938
0.999439
0.99951
0.999564
0.9997
0.999853
0.999943
0.973151
0.958392
0.958391
0.386024
0.00161529
0.138435
0.748619
0.971121
0.995496
0.995523
0.995515
0.973169
0.938119
0.938126
0.938108
0.962306
0.993926
0.999986
0.999984
0.999917
1.00001
0.999246
0.951388
0.928085
0.957812
0.998848
0.996634
0.979323
0.984015
0.997023
0.999248
0.999696
0.999592
0.999641
0.999574
0.999247
0.999547
0.999531
0.999561
0.999604
0.999653
0.999697
0.999775
0.999866
0.999944
0.9972
0.965051
0.963973
0.943665
0.237556
0.377897
0.950901
0.956647
0.995518
0.995515
0.99552
0.98712
0.965461
0.944269
0.957341
0.99753
0.999787
0.999783
0.999866
0.999948
1
0.973225
0.928087
0.928081
0.951247
0.999104
0.999599
0.999536
0.999639
0.999637
0.999594
0.999496
0.99951
0.999621
0.999627
0.999048
0.99955
0.999545
0.999601
0.999663
0.999718
0.999761
0.999809
0.999949
0.999945
0.994378
0.980612
0.987887
1
0.588689
0.370386
0.782424
0.964145
0.988706
0.989954
0.980905
0.987535
0.993421
0.986596
0.994565
0.999729
0.999624
0.99978
0.999876
1.00001
1
0.947337
0.928081
0.928079
0.960076
0.999376
0.999599
0.999481
0.999427
0.999383
0.999372
0.999491
0.999864
0.999466
0.992379
0.985411
0.990412
0.999496
0.999808
0.999946
1.00012
1.00034
1.00013
0.99769
0.994329
0.994856
0.997091
0.997195
0.999969
0.991591
0.762493
0.904121
0.957439
0.991322
0.995196
0.997821
0.999967
0.999967
0.999994
0.99999
0.999913
0.999895
0.999938
1.00002
1.00001
0.990688
0.928234
0.928079
0.928079
0.972978
0.999064
0.998708
0.998904
0.999182
0.999469
0.999699
0.999787
0.992773
0.980359
0.980354
0.982886
0.995514
0.997271
0.99644
0.996724
0.997086
0.995259
0.992581
0.99211
0.994735
0.999722
0.999718
0.995349
)
;

boundaryField
{
    AirInlet
    {
        type            fixedValue;
        value           uniform 0;
    }
    WaterInlet
    {
        type            fixedValue;
        value           uniform 1;
    }
    ChannelWall
    {
        type            zeroGradient;
    }
    Outlet
    {
        type            inletOutlet;
        inletValue      uniform 0;
        value           nonuniform List<scalar> 
15
(
0.996775
0.999357
0.980359
0.961325
0.961253
0.961252
0.961297
0.9613
0.958468
0.958391
0.958391
0.963973
0.987887
0.997195
0.995349
)
;
    }
    FrontAndBack
    {
        type            empty;
    }
}


// ************************************************************************* //
