/*--------------------------------*- C++ -*----------------------------------*\
| =========                 |                                                 |
| \\      /  F ield         | OpenFOAM: The Open Source CFD Toolbox           |
|  \\    /   O peration     | Version:  2.3.0                                 |
|   \\  /    A nd           | Web:      www.OpenFOAM.org                      |
|    \\/     M anipulation  |                                                 |
\*---------------------------------------------------------------------------*/
FoamFile
{
    version     2.0;
    format      ascii;
    class       volScalarField;
    location    "0.03";
    object      alpha.water;
}
// * * * * * * * * * * * * * * * * * * * * * * * * * * * * * * * * * * * * * //

dimensions      [0 0 0 0 0 0 0];

internalField   nonuniform List<scalar> 
725
(
1
1
1
0.999994
1.00002
1
1
1
0.999997
1.00002
1
1
1
0.999999
1.00007
1
1
1
1.00004
0.999903
1
1
1
1.00012
1.00001
1
1.00001
0.210622
0.00172397
0.00172442
0.00184415
0.414049
0.975583
0.999999
0.999967
0.999864
0.999902
0.999927
0.999952
0.999985
1.00002
1.00002
1.00002
1.00002
1.00002
1.00003
1.00003
1.00003
1.00003
1.00003
1.00003
1.00003
1.00002
1.00003
1.00003
1.00004
1
0.742739
0.0853799
0.00155485
0.00154446
0.00154391
0.476992
0.999933
0.999886
0.999888
0.999688
0.999996
0.962075
0.249393
1.00001
0.998125
0.171048
0.00172404
0.00172405
0.00172637
0.358427
0.986286
1
0.999961
0.999823
0.999887
0.999887
0.999858
0.999728
0.999758
0.999841
0.999833
0.999855
0.99988
0.999898
0.99991
0.999921
0.99993
0.999938
0.999943
0.999945
0.999946
0.999964
0.99998
0.999918
1
0.733514
0.096982
0.00155136
0.00154388
0.00154378
0.495481
0.999933
0.999763
0.999773
0.999746
0.999996
0.952055
0.213235
1
0.964976
0.189809
0.00172555
0.00172527
0.0017302
0.244063
0.967395
1
0.999985
0.999885
0.999955
0.999914
0.999736
0.999187
0.999066
0.999418
0.999413
0.999604
0.99975
0.999827
0.999853
0.99986
0.999864
0.999869
0.999876
0.999883
0.999892
0.999899
0.999998
1.00003
1.00001
0.735157
0.10499
0.00154434
0.00154323
0.0015436
0.51243
0.999933
0.999733
0.999807
0.999784
0.999997
0.864605
0.0510573
0.987257
0.877645
0.120343
0.0017312
0.00173027
0.00173398
0.154056
0.913998
1
1
0.999938
0.999827
1.00001
0.999738
0.998294
0.997527
0.998307
0.998238
0.999013
0.999431
0.999629
0.999731
0.999784
0.999812
0.99983
0.999844
0.999857
0.999869
0.999871
1
1.00008
1
0.757945
0.107741
0.00154315
0.0015432
0.00268494
0.553828
0.997328
0.999884
0.999832
0.999809
0.999997
0.842449
0.0307932
0.494813
0.751971
0.270749
0.00190018
0.00258859
0.00173308
0.0864862
0.769677
1
1
0.999879
0.999773
0.999894
0.99997
0.998028
0.99632
0.996213
0.997138
0.999305
0.999509
0.999629
0.999693
0.99973
0.99975
0.999759
0.999787
0.99992
0.9999
0.999901
0.999958
1.00006
1
0.789957
0.110292
0.00154332
0.00154397
0.0118867
0.564285
0.997538
0.999905
0.999904
0.999828
0.999981
0.86321
0.0479507
0.132782
0.660262
0.259449
0.00203159
0.0148394
0.00181974
0.0667261
0.688816
1
1.00001
0.999788
0.999696
0.999799
0.999262
0.999312
0.998221
0.996212
0.996211
0.996892
0.998583
0.99931
0.999589
0.999691
0.999734
0.99976
0.99979
0.999808
0.999862
0.999894
0.999948
1.00006
1.00002
0.814068
0.111925
0.00154726
0.00156122
0.0196283
0.57161
0.998545
0.999889
0.999806
0.999829
1.00001
0.901141
0.0975701
0.142895
0.719389
0.21907
0.00769709
0.0141515
0.00193792
0.0504983
0.676203
1
0.999992
1.00003
0.999693
0.999871
0.999398
0.999896
0.998914
0.998883
0.996213
0.997272
0.998572
0.999225
0.999525
0.999654
0.999717
0.999756
0.999787
0.999812
0.999845
0.999884
0.999937
1.00006
1.00003
0.822701
0.112333
0.00156141
0.0015915
0.0289151
0.563395
0.998221
0.999784
0.9998
0.999834
1.00003
0.917274
0.119532
0.0990646
0.734952
0.246207
0.00691
0.00319221
0.0020019
0.0433109
0.652329
0.99999
0.999956
0.999808
0.99964
0.999922
0.999552
0.999323
0.996859
0.998879
0.996238
0.997276
0.998582
0.999157
0.999464
0.99962
0.999702
0.999753
0.999788
0.999814
0.999839
0.999876
0.999926
1.00006
1.00002
0.831214
0.113287
0.00158937
0.00163245
0.0360023
0.559262
0.997706
0.999802
0.999772
0.999836
1.00007
0.936666
0.144654
0.167892
0.781202
0.298476
0.00232836
0.00217593
0.00210096
0.0317009
0.64309
0.999906
0.999813
0.99975
0.999577
0.999961
0.999727
0.998293
0.99541
0.995145
0.997102
0.99825
0.998946
0.999224
0.999449
0.999604
0.999697
0.999754
0.999792
0.999818
0.999839
0.999869
0.999916
1.00005
1.00001
0.839558
0.113966
0.00163075
0.00168179
0.0452437
0.55048
0.997504
0.999907
0.999928
0.999854
1.00001
0.962317
0.175379
0.122321
0.781649
0.347441
0.00404561
0.00215482
0.00212938
0.0120893
0.638662
0.999852
0.999847
0.999641
0.999506
0.999985
0.999911
0.997434
0.995029
0.99501
0.99763
0.998908
0.999286
0.999385
0.999497
0.999615
0.999702
0.999755
0.99977
0.999814
0.999841
0.999865
0.999908
1.00004
1.00002
0.846715
0.1158
0.00167911
0.00173065
0.0608127
0.530953
0.997177
0.999933
0.999873
0.999847
1
0.973792
0.201642
1
1
1
1.00003
1
1
1
1
1.00001
0.999733
1
1
1
0.999996
1.00005
1
1
1
0.999994
0.999997
1
1
1
0.999978
0.99997
0.796753
0.831294
0.416605
0.0107116
0.00212266
0.00210064
0.00761123
0.586907
0.99904
0.999834
0.999556
0.999492
0.999879
1.00004
0.996865
0.995012
0.99501
0.998484
0.999409
0.999485
0.999556
0.999636
0.999701
0.999743
0.999765
0.999895
0.999889
0.999882
0.999879
0.999914
1.00003
1.00001
0.86458
0.120973
0.00175995
0.00180648
0.0473515
0.558899
0.999921
0.999921
0.999901
0.999853
1
0.98371
0.271431
0.999996
0.898402
0.442139
0.0255037
0.00209051
0.00209095
0.00210029
0.512671
0.995146
0.999828
0.999487
0.999484
0.999803
1.00017
0.999104
0.995835
0.997643
0.99937
0.999519
0.999616
0.999676
0.999743
0.999792
0.999825
0.999847
0.999862
0.999871
0.999875
0.999879
0.999923
1.00002
1.00001
0.892313
0.131105
0.00180696
0.00190468
0.0161408
0.595789
0.999746
0.999932
0.999904
0.999836
1
0.973257
0.281017
1
0.994216
0.571025
0.00311767
0.00208574
0.00209201
0.00209954
0.447286
0.988526
0.999866
0.99961
0.999897
0.999843
0.999668
0.999354
0.999128
0.999287
0.999588
0.99972
0.999825
0.999909
0.999897
0.999893
0.999889
0.999885
0.999883
0.999884
0.999885
0.999897
0.99997
1.00003
1.00001
0.90562
0.136656
0.00190486
0.00193674
0.0090904
0.613137
0.999932
0.999933
0.999892
0.999803
0.999999
0.974037
0.271587
1.00002
1
0.667778
0.00209552
0.00209155
0.00209579
0.00209862
0.426416
0.987412
0.999897
0.999864
0.999878
0.999799
0.999711
0.999675
0.999704
0.999756
0.999842
0.999874
0.999886
0.999886
0.999882
0.999878
0.999878
0.999882
0.999891
0.999902
0.999911
0.999969
1.00002
1.00003
1.00002
0.919505
0.134591
0.00192202
0.00192969
0.00193671
0.611127
0.999928
0.999913
0.999866
0.999758
0.999999
0.90993
0.101326
1
1
0.704042
0.00883281
0.00209673
0.00209673
0.00209689
0.415057
0.990987
0.999898
0.999896
0.999855
0.999818
0.999836
0.999883
0.99993
0.999957
0.999982
0.999986
0.999988
0.99999
0.999995
1.00001
1.00001
1.00002
1.00002
1.00002
1.00003
1.00004
1.00003
1.00003
1.00002
0.910856
0.142437
0.00192081
0.00192178
0.0182235
0.600029
0.999938
0.999939
0.999964
0.999685
1
0.864493
0.0558051
)
;

boundaryField
{
    AirInlet
    {
        type            fixedValue;
        value           uniform 0;
    }
    WaterInlet
    {
        type            fixedValue;
        value           uniform 1;
    }
    ChannelWall
    {
        type            zeroGradient;
    }
    Outlet
    {
        type            inletOutlet;
        inletValue      uniform 0;
        value           nonuniform List<scalar> 
15
(
0.249393
0.213235
0
0
0
0
0
0
0
0
0.271431
0.281017
0.271587
0.101326
0
)
;
    }
    FrontAndBack
    {
        type            empty;
    }
}


// ************************************************************************* //
