/*--------------------------------*- C++ -*----------------------------------*\
| =========                 |                                                 |
| \\      /  F ield         | OpenFOAM: The Open Source CFD Toolbox           |
|  \\    /   O peration     | Version:  2.3.0                                 |
|   \\  /    A nd           | Web:      www.OpenFOAM.org                      |
|    \\/     M anipulation  |                                                 |
\*---------------------------------------------------------------------------*/
FoamFile
{
    version     2.0;
    format      ascii;
    class       volScalarField;
    location    "0.03";
    object      p;
}
// * * * * * * * * * * * * * * * * * * * * * * * * * * * * * * * * * * * * * //

dimensions      [1 -1 -2 0 0 0 0];

internalField   nonuniform List<scalar> 
725
(
1446.3
1266.64
1216.08
1208.9
1149.29
1417.91
1268.98
1217.34
1204.78
1124.27
1403.2
1269.95
1216.6
1196.35
1129.68
1400.79
1265.63
1212.43
1178.08
1133.88
1409.83
1260.04
1212.32
1192.87
1276.97
1218.44
1806.46
444.463
10.3812
347.142
85.1297
328.542
350.157
345.482
316.464
347.423
375.729
413.426
468.809
537.763
450.353
351.496
284.548
247.038
228.257
202.632
189.555
192.628
191.151
175.911
185.207
156.727
110.886
72.1208
65.6752
62.5653
59.444
55.0462
49.577
44.0535
38.3484
28.0391
20.4689
13.6104
4.11328
-1.7522
2.56541
-1.4436
-23.3394
-19.9166
1184.58
759.668
-37.2491
-1.4137
323.115
67.2421
326.618
351.609
345.722
310.733
342.937
370.562
405.618
471.839
567.839
450.481
348.542
280.254
243.63
226.467
202.046
187.176
191.273
188.762
174.524
155.057
126.792
86.9157
74.0651
67.662
65.2933
62.8809
58.9894
54.6858
51.2829
46.4511
29.6242
20.0241
13.7416
3.85787
-3.61313
2.00153
-1.5528
-25.6754
-15.8141
1243.43
1453.76
727.025
215.513
407.181
1.17194
334.748
337.032
350.974
297.599
338.106
361.842
387.452
470.069
636.153
443.608
338.708
270.713
237.76
223.501
200.376
183.627
191.907
190.455
177.394
156.581
130.342
87.2686
70.7172
66.2184
58.2831
52.2824
47.0491
40.8999
35.439
30.7391
25.1788
20.1308
14.6341
5.20978
-2.61095
-3.4156
-4.28582
-21.4841
-12.5783
1639.65
1943.17
2115.46
350.733
540.691
-172.199
377.521
333.25
351.354
277.59
350.395
352.924
351.23
455.447
770.984
429.657
324.27
255.941
229.608
218.916
196.084
177.542
196.705
198.854
180.297
156.585
131.377
74.9732
69.7465
66.3194
58.7377
52.5112
46.9713
40.4182
35.1996
30.8954
26.1825
20.8673
16.2412
6.92636
-6.73861
-10.1888
1.22855
-7.89765
9.90529
2223.21
1899.44
2084.45
1195.4
464.342
642.772
242.645
325.349
379.441
244.528
391.434
380.136
310.045
408.717
1004.18
373.656
305.049
233.552
219.795
212.353
189.585
167.279
201.024
202.867
181.916
182.88
139.541
56.7769
69.1142
70.0892
61.0446
54.1585
47.7407
39.956
35.1451
30.794
25.9045
20.9408
16.4132
10.1215
-1.99054
-28.5123
-9.39744
-8.78831
8.49122
2230.03
2098.95
1459.09
1047.24
214.403
1347.51
236.865
442.674
416.305
180.103
405.776
383.464
932.949
334.724
1251.77
298.427
295.569
212.566
214.489
210.822
293.539
155.281
205.98
208.24
191.173
160.513
185.474
32.4095
61.8875
68.9425
60.559
53.9138
47.3654
38.523
34.8211
30.6032
25.8651
20.6402
16.5135
9.55749
6.59081
-52.8719
213.131
-0.021263
3.94391
2227.71
2112.74
1433.55
877.552
3051.37
2960.7
312.331
767.275
1917.79
161.08
407.573
380.431
910.907
301.77
1353.59
281.179
291.423
219.647
212.397
245.275
294.269
149.794
207.295
208.933
192.961
161.635
203.173
340.988
61.2106
69.1564
60.6195
54.0004
47.3444
38.0968
34.7854
30.6244
25.8593
21.2979
16.713
10.0819
14.1199
241.564
444.341
1.38438
2.95606
2233.33
2095.66
2287.97
2974.11
694.827
617.786
283.318
181.167
204.953
129.623
409.313
371.783
748.129
275.108
1452.84
230.229
286.005
206.687
204.863
236.981
305.927
143.762
209.953
208.3
178.224
149.838
205.101
93.6144
81.1724
76.3686
64.6226
54.0658
47.3017
37.6678
34.7396
30.6484
25.8557
21.0984
19.6969
9.79074
11.7331
217.382
-113.52
-3.8239
1.17628
2223.85
2113.5
4080.59
2253.09
674.839
938.033
273.91
180.821
397.668
1371.76
1710.08
1281.56
1265.72
265.813
1591.75
637.238
342.998
200.659
201.565
238.294
318.873
154.114
214.061
206.692
167.252
152.025
206.593
96.1423
60.6918
67.3677
62.1534
54.1731
47.2577
37.2341
34.6807
30.6732
25.8616
21.1503
16.3851
11.7474
110.579
29.4389
709.992
836.881
14.2238
2220.99
2103.54
1187.53
451.094
364.977
890.463
155.961
174.883
206.422
604.719
318.008
302.475
358.9
233.996
1863.4
131.681
285.9
191.407
197.275
238.195
318.516
162.138
216.759
206.294
166.812
152.409
209.038
100.756
62.2883
67.6204
62.3481
54.5093
47.2011
36.8391
34.5861
30.7115
25.8887
21.2389
16.5167
11.9705
4.0823
24.9611
150.491
70.3556
15.5087
1523.28
1374.66
1320.45
1306.3
1284.38
1514.19
1380.46
1322.06
1294.13
1165.26
1516.58
1385.01
1327.48
1314.12
1206.51
1531.26
1384.3
1330.12
1327.83
1237.34
1559.56
1382.1
1330.07
1335.8
1272.79
2202.09
2103.88
1162.99
561.446
76.6258
303.873
126.163
162.625
231.536
529.624
331.798
304.672
321.159
67.3774
-774.469
22.0294
88.4284
163.205
179.192
160.944
182.58
171.138
223.094
217.585
169.564
144.263
110.239
95.3184
70.6647
69.4962
63.8135
54.8418
46.9466
36.2142
34.4565
30.9734
26.0713
21.3176
16.7498
13.5119
10.0439
13.9982
137.46
98.536
15.1831
1567.47
2088.66
1344.2
223.101
-7.97674
413.927
208.187
191.602
256.166
483.57
334.971
286.803
115.657
53.3112
-430.979
-44.2142
66.4032
135.538
165.588
194.462
232.372
149.187
64.2989
33.4044
68.5718
112.661
96.3299
88.4112
71.0705
64.4758
61.7113
55.858
46.4697
32.992
32.7916
29.6774
24.8999
20.5904
16.9671
16.2421
16.8814
12.7376
-5.66546
23.6585
1.92625
1303.57
1621.83
442.47
267.395
-19.8297
386.729
257.575
227.961
203.746
306.381
306.897
259.259
112.556
41.5846
-258.741
-63.8041
48.2069
115.158
157.875
235.972
232.945
162.3
84.5599
55.0297
68.5761
99.1994
97.6163
87.9571
73.1616
64.4106
62.9093
57.6576
47.7949
28.8307
33.2815
29.9871
25.4755
21.4727
18.0596
19.6002
21.188
14.4328
-5.11572
-0.092386
-8.12907
1331.65
1027.63
559.563
132.918
25.53
337.597
283.675
354.211
221.194
279.086
260.219
216.075
105.365
32.5821
-171.421
-66.7145
36.4374
97.3115
162.417
233.571
218.849
153.805
94.2285
65.318
74.0795
96.1404
97.3406
87.5205
73.1085
63.514
64.2527
60.6214
66.6406
67.9623
34.1715
31.7065
27.911
25.0849
23.3195
24.6799
20.8226
9.12378
-5.96208
-10.5793
-6.82611
1416.14
2139.03
938.157
88.7123
92.8898
338.884
299.314
270.908
269.747
302.514
301.056
229.785
102.283
31.5482
-132.448
-65.3599
29.503
94.6574
243.232
226.041
212.966
169.979
103.035
63.8944
76.2449
95.6744
97.952
88.9115
72.6437
87.0792
147.209
120.83
81.6557
46.8883
35.8718
41.5153
39.9675
35.273
42.9393
57.0904
48.8599
7.17442
1.91181
6.29759
-11.2498
)
;

boundaryField
{
    AirInlet
    {
        type            calculated;
        value           nonuniform List<scalar> 5(2230.03 2227.3 2222.49 2223.85 2220.9);
    }
    WaterInlet
    {
        type            calculated;
        value           nonuniform List<scalar> 10(1446.3 1417.92 1403.21 1400.8 1409.85 1523.26 1514.18 1516.57 1531.25 1559.56);
    }
    ChannelWall
    {
        type            calculated;
        value           nonuniform List<scalar> 
110
(
1409.81
1260.01
1212.28
1192.83
1276.93
1523.31
1374.69
1320.48
1306.34
1284.42
1559.53
1382.07
1330.04
1335.76
1272.75
1416.09
2138.98
938.123
88.6724
92.8475
338.84
299.27
270.864
269.703
302.47
301.012
229.741
102.239
31.504
-132.492
-65.404
29.4588
94.6136
243.191
226
212.925
169.936
102.991
63.8503
76.2008
95.6303
97.9079
88.8674
72.5996
87.0354
147.166
120.787
81.6123
46.8444
35.8278
41.4713
39.9235
35.229
42.8954
57.0466
48.8161
7.13051
1.86768
6.25346
-11.2937
1446.33
1266.67
1216.11
1208.94
1149.33
1218.48
1806.5
444.504
10.4184
347.186
85.1738
328.586
350.201
345.526
316.508
347.468
375.773
413.47
468.853
537.807
450.397
351.54
284.592
247.082
228.301
202.677
189.599
192.672
191.195
175.955
185.251
156.771
110.93
72.1649
65.7193
62.6094
59.4881
55.0903
49.6211
44.0976
38.3925
28.0832
20.513
13.6545
4.15741
-1.70808
2.60954
-1.39947
-23.2952
-19.8726
)
;
    }
    Outlet
    {
        type            calculated;
        value           nonuniform List<scalar> 
15
(
-0.0440028
-0.13235
-0.216394
-0.297076
-0.381926
-0.433792
-0.452674
-0.471537
-0.488955
-0.50772
-0.559432
-0.6478
-0.751075
-0.846187
-0.932502
)
;
    }
    FrontAndBack
    {
        type            empty;
    }
}


// ************************************************************************* //
