/*--------------------------------*- C++ -*----------------------------------*\
| =========                 |                                                 |
| \\      /  F ield         | OpenFOAM: The Open Source CFD Toolbox           |
|  \\    /   O peration     | Version:  2.3.0                                 |
|   \\  /    A nd           | Web:      www.OpenFOAM.org                      |
|    \\/     M anipulation  |                                                 |
\*---------------------------------------------------------------------------*/
FoamFile
{
    version     2.0;
    format      ascii;
    class       volScalarField;
    location    "0.03";
    object      p;
}
// * * * * * * * * * * * * * * * * * * * * * * * * * * * * * * * * * * * * * //

dimensions      [1 -1 -2 0 0 0 0];

internalField   nonuniform List<scalar> 
725
(
-403.944
-448.303
-463.295
-469.844
-463.957
-410.541
-447.976
-462.573
-470.314
-459.533
-413.317
-448.473
-462.356
-474.625
-454.185
-413.14
-449.921
-462.624
-481.613
-437.945
-409.564
-452.941
-463.446
-506.958
-462.449
-430.042
-728.049
-1090.93
-1126.96
-1106.75
-1109.17
-712.575
-484.183
-723.412
-856.207
-922.812
-955.485
-967.836
-987.169
-992.783
-1001.65
-1016.99
-1001.41
-1010.17
-1004.58
-1004.26
-1004.92
-1006.12
-1007.65
-1009.48
-1011.67
-1014.74
-1018.93
-1025.58
-1036.05
-1050.39
-1071.05
-1068.04
-1025.1
-1025.43
-1028.45
-1030.71
-1141.04
-1117.09
-1099.21
-1027.51
-1119.09
-925.592
-599.007
-466.343
-414.515
-686.469
-1136.98
-1127.68
-1110.22
-1108.98
-900.299
-583.32
-759.086
-868.598
-930.398
-960.104
-970.947
-989.546
-994.502
-1003.38
-1018.49
-1002.29
-1011.14
-1005.36
-1004.79
-1005.39
-1006.54
-1008.03
-1009.82
-1011.94
-1014.83
-1018.72
-1024.88
-1034.99
-1050.35
-1075.92
-1077.97
-1025.2
-1026.94
-1028.86
-1031.87
-1121.88
-1106.35
-1096.71
-1031.03
-1143.56
-989.933
-1091.57
-533.099
-382.075
-860.308
-1177.84
-1127.11
-1115.83
-1098.4
-1059.19
-775.923
-822.817
-890.208
-944.948
-967.475
-974.684
-992.347
-994.557
-1003.79
-1021.44
-1001.55
-1011.4
-1005.24
-1004.61
-1005.29
-1006.48
-1007.98
-1009.73
-1011.72
-1014.38
-1017.87
-1023.31
-1032.71
-1048.66
-1078.47
-1085.49
-1023.5
-1027.18
-1029.42
-1033.72
-1104.3
-1088.2
-1088.05
-1033.78
-1166.64
-1040.84
-1701.9
-112.738
-307.031
-1023.92
-1161.19
-1125.07
-1128.98
-1080.92
-1079.41
-1010.34
-907.182
-919.983
-963.117
-977.366
-979.458
-997.211
-990.195
-1003.75
-1026.82
-999.462
-1012.92
-1005.11
-1004.29
-1005.1
-1006.36
-1007.88
-1009.58
-1011.35
-1013.73
-1016.66
-1021.01
-1028.74
-1041.39
-1067.59
-1089.82
-1024.36
-1026.71
-1030.15
-1037.03
-1041.86
-1062.69
-1076.31
-1032.56
-1166.8
-1049.88
-1643.39
-26.6353
-279.457
-1095.09
-721.209
-1121.77
-1170.15
-1051.4
-1045.59
-1259.48
-1011.16
-964.676
-983.098
-987.669
-985.482
-1001.41
-988.381
-996.538
-1014.56
-997.719
-1012.66
-1004.61
-1003.69
-1004.79
-1006.18
-1007.72
-1009.28
-1010.78
-1012.92
-1015.28
-1018.31
-1023.62
-1031.29
-1049.45
-1073.18
-1020.53
-1025.76
-1029.02
-1046.83
-1046.01
-1045.69
-1066.69
-1027.31
-1153.57
-1023.54
-1659.26
-101.829
2525.94
-1031.64
-1248.91
-1080.44
-670.841
-1020.96
-1028.08
-1255.51
-1038.42
-998.481
-997.401
-994.294
-986.906
-968.621
-986.313
-954.798
-1022.64
-992.775
-966.953
-997.785
-1002.75
-1004.52
-1006.05
-1007.63
-1009.19
-1010.42
-1012.33
-1014.28
-1016.38
-1020.07
-1023.64
-1034.11
-1052.14
-1018.45
-1025.05
-1029.68
-1057.97
-1043.62
-1048.68
-1064.11
-1023.59
-1135.34
-972.851
-1371.57
-226.076
2376.46
-949.584
-794.548
-1035.49
-789.249
-1009.13
-1020.75
-1269.82
-1043.33
-1008.5
-993.876
-996.513
-988.564
-974.888
-965.354
-931.166
-935.36
-991.563
-980.194
-997.376
-1002.18
-1004.4
-1005.99
-1007.58
-1009.13
-1010.24
-1012.25
-1013.91
-1015.67
-1018.77
-1020.9
-1028.51
-1043.02
-1017.99
-1024.92
-1030.21
-1072.53
-1049.76
-1055.55
-1063.48
-1021.9
-1128.07
-953.366
-1257.82
-279.175
3095.19
-820.392
-1312.94
-1021.57
-812.736
-998.773
-1018.15
-1221.6
-1048.39
-1015.98
-1005.6
-998.544
-989.686
-976.357
-984.741
-969.233
-938.125
-991.998
-980.474
-997.239
-999.822
-1003.82
-1005.81
-1007.44
-1009.06
-1010.11
-1012.11
-1013.49
-1014.96
-1017.45
-1018.22
-1023.01
-1032.06
-1017.99
-1025.04
-1030.96
-1085.36
-1042.92
-1065.91
-1065.48
-1019.65
-1120.46
-932.954
-1101.46
-330.723
2141.5
-517.456
-1461.23
-1010.23
-837.771
-989.29
-1026.42
-1209.63
-1050.28
-1021.76
-1009.65
-1000.46
-990.395
-977.353
-983.508
-968.016
-941.773
-992.115
-981.901
-998.943
-1001.39
-1003.12
-1005.31
-1007.28
-1009.03
-1010
-1011.94
-1013.14
-1014.22
-1016.09
-1015.56
-1017.69
-1019.3
-1018.22
-1025.34
-1032.03
-1091.7
-1037.22
-1082.17
-1068.42
-1018.12
-1112.96
-912.535
-863.123
-353.443
2700.25
-467.135
-1112.46
-1008.54
-854.706
-980.904
-991.872
-1220.86
-1049.38
-1027.57
-1013.42
-1002.17
-990.633
-978
-981.037
-966.056
-941.166
-990.528
-982.029
-998.636
-1001.56
-1004.2
-1005.55
-1007.36
-1008.99
-1009.24
-1011.72
-1012.81
-1013.43
-1014.67
-1013
-1012.72
-1007.53
-1018.49
-1025.9
-1033
-1032.77
-968.218
-1092.2
-1073.15
-1019.49
-1106.43
-895.795
-702.966
-344.591
-674.298
-715.865
-747.811
-701.462
-987.892
-677.975
-712.559
-743.298
-671.115
-873.661
-678.2
-710.555
-739.445
-656.174
-810.995
-675.46
-709.68
-736.562
-644.267
-769.275
-668.933
-709.83
-736.104
-638.919
-752.351
-1151.79
-337.716
-462.122
-995.058
-893.181
-962.181
-973.363
-1282.11
-1058.54
-1039.6
-1023.85
-1007.24
-997.043
-982.313
-977.863
-964.87
-946.719
-986.472
-983.183
-997.072
-1000.98
-1004.01
-1006.04
-1007.6
-1008.99
-1010.59
-1011.41
-1011.97
-1011.85
-1010.96
-1005.91
-999.847
-979.149
-1017.56
-1027.85
-1034.64
-1109.82
-1072.73
-1091.15
-1097.89
-1019.34
-1091.42
-866.71
-562.096
-347.109
-834.456
-328.676
-689.398
-933.252
-918.975
-950.43
-961.957
-1122.37
-1085.96
-1063.87
-1038.27
-1014.33
-1001
-985.682
-992.05
-977.713
-966.59
-985.744
-984.764
-995.9
-1000.33
-1003.53
-1005.79
-1007.47
-1008.87
-1010.11
-1010.66
-1010.52
-1009.07
-1005.81
-995.94
-982.487
-936.19
-1018.1
-1031.15
-1037.23
-1104.32
-1111.56
-1049.57
-1069.15
-1014.71
-1087.4
-855.639
-430.239
-384.548
-671.761
-243.689
-821.846
-936.047
-932.561
-944.791
-959.06
-1142.83
-1122.96
-1081.74
-1048.95
-1020.32
-1004.31
-991.592
-992.516
-982.279
-972.826
-985.229
-986.002
-995.175
-999.88
-1003.23
-1005.6
-1007.34
-1008.71
-1009.75
-1010.03
-1009.32
-1006.8
-1001.78
-988.755
-971.407
-929.645
-1023.16
-1033.2
-1037.69
-1080.24
-1075.09
-1057.01
-1080.82
-1021.62
-1122.26
-938.549
-766.906
-477.782
-566.501
-254.886
-602.44
-937.841
-939.004
-942.181
-957.448
-1085.03
-1142.03
-1088.96
-1052.89
-1023.72
-1007.08
-994.269
-993.668
-983.321
-975.582
-985.181
-986.813
-994.933
-999.754
-1003.13
-1005.53
-1007.28
-1008.61
-1009.52
-1009.6
-1008.48
-1005.23
-998.919
-984.304
-965.055
-937.068
-1036.13
-1034.46
-1038.4
-1068.33
-1098.23
-1065.75
-1082.95
-1028.8
-1158.5
-1017.25
-1571.23
-81.6762
-521.14
-268.264
-436.017
-936.29
-941.693
-941.044
-958.976
-1054.11
-1148.43
-1089.67
-1053.76
-1025.51
-1009.18
-996.268
-994.041
-982.813
-975.537
-984.781
-986.706
-994.692
-999.482
-1002.79
-1005.09
-1006.78
-1008.08
-1008.93
-1008.91
-1007.49
-1003.88
-997.104
-982.337
-965.517
-962.986
-1033.66
-1033.18
-1037.4
-1075.74
-1074.33
-1069.53
-1088.57
-1033.61
-1170.87
-1052.91
-1576.73
82.4468
)
;

boundaryField
{
    AirInlet
    {
        type            calculated;
        value           nonuniform List<scalar> 5(3765.93 5568.65 4145.34 5063.34 3570.99);
    }
    WaterInlet
    {
        type            calculated;
        value           nonuniform List<scalar> 10(-403.942 -410.535 -413.307 -413.125 -409.546 -674.316 -677.989 -678.21 -675.466 -668.935);
    }
    ChannelWall
    {
        type            calculated;
        value           nonuniform List<scalar> 
110
(
-409.59
-452.971
-463.48
-506.996
-462.491
-674.272
-715.835
-747.777
-701.424
-987.85
-668.96
-709.86
-736.138
-638.958
-752.394
-521.184
-268.308
-436.048
-936.29
-941.693
-941.044
-958.976
-1054.13
-1148.48
-1089.71
-1053.8
-1025.55
-1009.22
-996.313
-994.085
-982.857
-975.581
-984.826
-986.75
-994.737
-999.526
-1002.83
-1005.13
-1006.82
-1008.12
-1008.97
-1008.95
-1007.53
-1003.92
-997.148
-982.381
-965.561
-963.026
-1033.67
-1033.18
-1037.4
-1075.75
-1074.36
-1069.58
-1088.62
-1033.66
-1170.91
-1052.96
-1576.77
82.4443
-403.918
-448.272
-463.26
-469.806
-463.914
-429.998
-728.005
-1090.92
-1126.96
-1106.75
-1109.17
-712.557
-484.14
-723.368
-856.163
-922.768
-955.441
-967.792
-987.125
-992.739
-1001.6
-1016.95
-1001.36
-1010.13
-1004.54
-1004.22
-1004.88
-1006.08
-1007.61
-1009.44
-1011.62
-1014.69
-1018.89
-1025.54
-1036.01
-1050.35
-1071.01
-1068.01
-1025.09
-1025.43
-1028.44
-1030.71
-1141.02
-1117.04
-1099.17
-1027.46
-1119.05
-925.548
-598.965
-466.332
)
;
    }
    Outlet
    {
        type            calculated;
        value           nonuniform List<scalar> 
15
(
-0.0110426
-0.028344
-0.000220725
-0.351127
-0.0640078
-0.0390317
-0.0963159
-0.0278433
-0.0126382
-0.0129789
-0.158858
-0.189322
-0.207035
-0.0867441
-0.32057
)
;
    }
    FrontAndBack
    {
        type            empty;
    }
}


// ************************************************************************* //
