/*--------------------------------*- C++ -*----------------------------------*\
| =========                 |                                                 |
| \\      /  F ield         | OpenFOAM: The Open Source CFD Toolbox           |
|  \\    /   O peration     | Version:  2.3.0                                 |
|   \\  /    A nd           | Web:      www.OpenFOAM.org                      |
|    \\/     M anipulation  |                                                 |
\*---------------------------------------------------------------------------*/
FoamFile
{
    version     2.0;
    format      ascii;
    class       volScalarField;
    location    "0.03";
    object      p_rgh;
}
// * * * * * * * * * * * * * * * * * * * * * * * * * * * * * * * * * * * * * //

dimensions      [1 -1 -2 0 0 0 0];

internalField   nonuniform List<scalar> 
725
(
1446.33
1266.67
1216.11
1208.94
1149.33
1417.99
1269.07
1217.44
1204.9
1124.39
1403.34
1270.1
1216.77
1196.54
1129.89
1400.97
1265.85
1212.67
1178.35
1134.17
1410.07
1260.31
1212.62
1193.22
1277.33
1218.48
1806.5
444.504
10.4184
347.186
85.1738
328.586
350.201
345.526
316.508
347.468
375.773
413.47
468.853
537.807
450.397
351.54
284.592
247.082
228.301
202.677
189.599
192.672
191.195
175.955
185.251
156.771
110.93
72.1649
65.7193
62.6094
59.4881
55.0903
49.6211
44.0976
38.3925
28.0832
20.513
13.6545
4.15741
-1.70808
2.60954
-1.39947
-23.2952
-19.8726
1184.72
759.762
-37.1397
-1.29827
323.243
67.3745
326.75
351.741
345.854
310.866
343.069
370.694
405.751
471.972
567.971
450.613
348.674
280.387
243.763
226.6
202.179
187.308
191.406
188.894
174.657
155.19
126.925
87.048
74.1972
67.7942
65.4254
63.013
59.1215
54.8179
51.415
46.5832
29.7565
20.1565
13.874
3.99027
-3.48076
2.13388
-1.42043
-25.543
-15.6818
1243.64
1453.82
727.102
215.673
407.398
1.39264
334.969
337.253
351.194
297.819
338.326
362.062
387.673
470.289
636.373
443.829
338.928
270.933
237.98
223.722
200.596
183.848
192.128
190.676
177.615
156.801
130.563
87.4893
70.9378
66.4389
58.5037
52.5029
47.2697
41.1205
35.6596
30.9598
25.3994
20.3515
14.8548
5.43046
-2.39023
-3.19487
-4.06516
-21.2661
-12.3619
1639.75
1943.2
2115.5
350.928
540.987
-171.894
377.829
333.559
351.663
277.897
350.695
353.229
351.539
455.756
771.293
429.966
324.579
256.25
229.916
219.225
196.393
177.851
197.014
199.163
180.606
156.894
131.686
75.2822
70.0553
66.6282
59.0466
52.8201
47.2802
40.7272
35.5086
31.2043
26.4915
21.1763
16.5502
7.23531
-6.42969
-9.87978
1.53755
-7.59697
10.2024
2223.21
1899.48
2084.64
1195.61
464.681
643.11
243.037
325.746
379.838
244.918
391.808
380.509
310.428
409.114
1004.58
374.052
305.446
233.949
220.192
212.75
189.982
167.676
201.422
203.264
182.313
183.272
139.935
57.1734
69.5114
70.4865
61.4418
54.5558
48.138
40.3533
35.5424
31.1913
26.3018
21.338
16.8104
10.5186
-1.59351
-28.1149
-9.00124
-8.40402
8.87315
2230.03
2098.95
1459.23
1047.5
214.809
1347.92
237.31
443.118
416.749
180.527
406.2
383.888
933.373
335.174
1252.21
298.878
296.02
213.017
214.939
211.273
293.989
155.732
206.431
208.692
191.624
160.956
185.911
32.8598
62.3385
69.3936
61.0101
54.365
47.8165
38.9741
35.2722
31.0544
26.3163
21.0914
16.9646
10.0084
7.04185
-52.4215
213.566
0.410795
4.3777
2227.71
2112.74
1433.67
877.841
3051.75
2961.15
312.791
767.734
1918.23
161.523
408.015
380.873
911.349
302.22
1354.05
281.649
291.894
220.117
212.867
245.746
294.739
150.264
207.765
209.404
193.432
162.097
203.629
341.453
61.6813
69.6271
61.0902
54.4711
47.8151
38.5675
35.2561
31.0951
26.33
21.7687
17.1836
10.5524
14.5906
242.028
444.792
1.83522
3.40874
2233.33
2095.66
2288.02
2974.52
695.253
618.207
283.797
181.655
205.439
130.084
409.774
372.244
748.595
275.57
1453.32
230.715
286.495
207.176
205.353
237.471
306.417
144.248
210.437
208.788
178.714
150.314
205.575
94.1024
81.6623
76.8588
65.1128
54.5561
47.792
38.1581
35.2299
31.1387
26.346
21.5887
20.1871
10.2808
12.223
217.865
-113.042
-3.35427
1.64782
2223.85
2113.5
4080.6
2253.5
675.282
938.466
274.414
181.329
398.175
1372.26
1710.58
1282.06
1266.21
266.292
1592.23
637.737
343.505
201.168
202.074
238.804
319.383
154.608
214.557
207.192
167.75
152.518
207.087
96.6507
61.2018
67.8776
62.6633
54.683
47.7676
37.744
35.1906
31.1831
26.3715
21.6602
16.8949
12.2574
111.087
29.9489
710.502
837.381
14.7127
2220.99
2103.54
1187.6
451.485
365.43
890.913
156.478
175.41
206.946
605.227
318.505
302.972
359.398
234.493
1863.9
132.207
286.427
191.936
197.804
238.724
319.046
162.65
217.272
206.808
167.325
152.921
209.55
101.285
62.8179
68.15
62.8776
55.0388
47.7305
37.3686
35.1155
31.2409
26.4181
21.7684
17.0462
12.5001
4.61158
25.4907
151.013
70.864
16.0165
1524.02
1375.36
1321.12
1306.94
1284.96
1514.99
1381.23
1322.8
1294.84
1165.94
1517.43
1385.84
1328.29
1314.91
1207.28
1532.16
1385.18
1330.99
1328.7
1238.19
1560.51
1383.05
1331.02
1336.74
1273.73
2202.09
2103.88
1163.1
561.806
77.1294
304.426
126.742
163.206
232.105
530.171
332.346
305.22
321.707
67.9324
-773.889
22.6131
89.0119
163.788
179.776
161.527
183.155
171.7
223.658
218.149
170.128
144.827
110.81
95.9013
71.2484
70.0799
64.3972
55.4252
47.5299
36.7975
35.0398
31.5567
26.6546
21.901
17.3333
14.0954
10.6276
14.5819
138.028
99.0955
15.7425
1567.73
2088.66
1344.29
223.605
-7.32414
414.596
208.856
192.271
256.82
484.2
335.601
287.433
116.304
53.9791
-430.307
-43.5423
67.0751
136.21
166.26
195.101
232.995
149.83
64.9701
34.0741
69.2299
113.322
96.9999
89.0827
71.7423
65.1475
62.3831
56.5297
47.1412
33.6637
33.4632
30.3491
25.5716
21.2622
17.6389
16.914
17.5533
13.4095
-4.99536
24.307
2.57405
1304.29
1622.01
442.758
268.118
-19.1023
387.486
258.332
228.718
204.497
307.115
307.615
259.986
113.315
42.3448
-257.981
-63.044
48.9672
115.919
158.615
236.678
233.651
163.023
85.3195
55.7897
69.336
99.9594
98.3763
88.7171
73.9215
65.1705
63.6693
58.4176
48.5545
29.5906
34.0414
30.747
26.2355
22.2327
18.8197
20.3603
21.9482
15.193
-4.35972
0.653164
-7.37799
1332.5
1028.13
559.878
133.582
26.3482
338.436
284.515
355.043
222.032
279.929
261.056
216.919
106.213
33.4303
-170.572
-65.8661
37.286
98.16
163.221
234.359
219.637
154.619
95.0766
66.1662
74.9276
96.9885
98.1887
88.3685
73.9567
64.3625
65.1008
61.4635
67.4768
68.8028
35.0196
32.5549
28.7595
25.9336
24.1684
25.5286
21.6692
9.96754
-5.11788
-9.73324
-5.97993
1417.08
2139.96
938.871
89.5594
93.7868
339.812
300.246
271.843
270.684
303.451
301.993
230.722
103.22
32.4849
-131.511
-64.423
30.4399
95.5855
244.101
226.911
213.836
170.89
103.971
64.83
77.1807
96.6105
98.8884
89.8481
73.5803
88.0093
148.128
121.748
82.5765
47.821
36.8061
42.4488
40.9013
36.2071
43.8718
58.0203
49.7894
8.10635
2.8484
7.23418
-10.3173
)
;

boundaryField
{
    AirInlet
    {
        type            fixedFluxPressure;
        gradient        nonuniform List<scalar> 5(690.269 -40735 -1.08411e+06 78.9416 -9471.76);
        value           nonuniform List<scalar> 5(2230.03 2227.31 2222.49 2223.85 2220.9);
    }
    WaterInlet
    {
        type            fixedFluxPressure;
        gradient        nonuniform List<scalar> 10(-0.0120479 -16.1011 -19.1829 1.45061 -3.06844 -0.0566966 -57.4992 -0.0731716 -117.219 -6.75595);
        value           nonuniform List<scalar> 10(1446.33 1417.99 1403.34 1400.97 1410.07 1524.02 1514.99 1517.43 1532.16 1560.51);
    }
    ChannelWall
    {
        type            fixedFluxPressure;
        gradient        uniform 0;
        value           nonuniform List<scalar> 
110
(
1410.07
1260.31
1212.62
1193.22
1277.33
1524.02
1375.36
1321.12
1306.94
1284.96
1560.51
1383.05
1331.02
1336.74
1273.73
1417.08
2139.96
938.871
89.5594
93.7868
339.812
300.246
271.843
270.684
303.451
301.993
230.722
103.22
32.4849
-131.511
-64.423
30.4399
95.5855
244.101
226.911
213.836
170.89
103.971
64.83
77.1807
96.6105
98.8884
89.8481
73.5803
88.0093
148.128
121.748
82.5765
47.821
36.8061
42.4488
40.9013
36.2071
43.8718
58.0203
49.7894
8.10635
2.8484
7.23418
-10.3173
1446.33
1266.67
1216.11
1208.94
1149.33
1218.48
1806.5
444.504
10.4184
347.186
85.1738
328.586
350.201
345.526
316.508
347.468
375.773
413.47
468.853
537.807
450.397
351.54
284.592
247.082
228.301
202.677
189.599
192.672
191.195
175.955
185.251
156.771
110.93
72.1649
65.7193
62.6094
59.4881
55.0903
49.6211
44.0976
38.3925
28.0832
20.513
13.6545
4.15741
-1.70808
2.60954
-1.39947
-23.2952
-19.8726
)
;
    }
    Outlet
    {
        type            totalPressure;
        rho             rho;
        psi             none;
        gamma           1;
        p0              uniform 0;
        value           uniform 0;
    }
    FrontAndBack
    {
        type            empty;
    }
}


// ************************************************************************* //
