/*--------------------------------*- C++ -*----------------------------------*\
| =========                 |                                                 |
| \\      /  F ield         | OpenFOAM: The Open Source CFD Toolbox           |
|  \\    /   O peration     | Version:  2.3.0                                 |
|   \\  /    A nd           | Web:      www.OpenFOAM.org                      |
|    \\/     M anipulation  |                                                 |
\*---------------------------------------------------------------------------*/
FoamFile
{
    version     2.0;
    format      ascii;
    class       surfaceScalarField;
    location    "0.03";
    object      phi;
}
// * * * * * * * * * * * * * * * * * * * * * * * * * * * * * * * * * * * * * //

dimensions      [0 3 -1 0 0 0 0];

internalField   nonuniform List<scalar> 
1380
(
1.31932e-12
6.80679e-13
1.09618e-12
2.23142e-13
9.82438e-13
1.13741e-13
6.23544e-13
3.58894e-13
1.53467e-12
-9.11129e-13
2.40643e-12
2.74251e-13
2.47811e-12
1.51456e-13
2.46806e-12
1.23797e-13
2.21929e-12
6.07663e-13
1.91745e-12
1.83651e-12
2.6797e-12
-4.05449e-13
2.93121e-12
-1.00059e-13
3.0576e-12
-2.59042e-15
3.06761e-12
5.97652e-13
1.20905e-12
3.77601e-12
2.35515e-12
-7.60596e-13
2.44893e-12
-1.93838e-13
2.5636e-12
-1.17261e-13
3.17293e-12
-1.16866e-14
-9.95951e-13
5.37794e-12
1.2394e-12
1.04557e-12
9.28306e-13
9.16619e-13
-7.93319e-14
3.4125e-14
-9.45254e-13
3.98306e-12
-3.94893e-12
1.65797e-12
2.32509e-12
-1.84654e-13
1.84262e-12
4.37871e-13
-6.22526e-13
2.59778e-15
4.35274e-13
-5.76023e-14
6.01998e-14
4.41869e-13
-4.99472e-13
4.67343e-13
-2.54748e-14
2.57913e-13
2.09431e-13
4.93629e-13
-2.35716e-13
7.66405e-13
-2.72776e-13
9.27435e-13
-1.6103e-13
7.02747e-13
2.24688e-13
7.2281e-13
-2.00627e-14
7.91955e-13
-6.91443e-14
6.60259e-13
1.31696e-13
5.63018e-13
9.72411e-14
5.77093e-13
-1.40753e-14
6.60055e-13
-8.29617e-14
5.42512e-13
1.17543e-13
5.13945e-13
2.85662e-14
6.35933e-13
-1.21988e-13
7.3905e-13
-1.03117e-13
9.06023e-13
-1.66973e-13
9.99571e-13
-9.3548e-14
9.37386e-13
6.21849e-14
6.93747e-13
2.43639e-13
5.48252e-13
1.45496e-13
4.62066e-13
8.61858e-14
4.65544e-13
-3.47753e-15
4.91134e-13
-2.55902e-14
5.10677e-13
-1.95437e-14
5.14363e-13
-3.68505e-15
5.16575e-13
-2.21213e-15
5.38019e-13
-2.1444e-14
4.94879e-13
4.31404e-14
4.66973e-13
2.79057e-14
4.30708e-13
3.62651e-14
4.05956e-13
2.4751e-14
5.25024e-13
-1.19068e-13
7.40883e-13
-2.15859e-13
7.49881e-13
-8.99828e-15
4.56437e-13
2.93444e-13
5.8008e-14
5.45984e-12
-4.56858e-12
9.90744e-12
-8.39654e-12
6.71293e-12
5.5196e-12
3.50221e-12
5.05334e-12
2.83769e-12
4.19928e-14
7.14793e-13
2.55817e-12
5.43523e-13
2.3147e-13
1.33457e-12
-1.29051e-12
1.34859e-12
-3.95019e-14
1.01473e-12
5.43289e-13
1.42301e-12
-6.43993e-13
1.93788e-12
-7.87647e-13
2.18896e-12
-4.12105e-13
1.77778e-12
6.35868e-13
1.7086e-12
4.91155e-14
1.69544e-12
-5.59807e-14
1.45401e-12
3.73119e-13
1.34097e-12
2.10286e-13
1.42909e-12
-1.02196e-13
1.59078e-12
-2.44651e-13
1.42319e-12
2.8513e-13
1.40306e-12
4.87025e-14
1.61269e-12
-3.31624e-13
1.78774e-12
-2.78163e-13
1.85594e-12
-2.35175e-13
2.04596e-12
-2.83572e-13
2.06993e-12
3.8215e-14
1.73256e-12
5.81011e-13
1.44005e-12
4.38006e-13
1.26397e-12
2.62271e-13
1.24986e-12
1.0628e-14
1.27603e-12
-5.17599e-14
1.3067e-12
-5.02114e-14
1.30651e-12
-3.49717e-15
1.32618e-12
-2.18852e-14
1.299e-12
5.74229e-15
1.30453e-12
3.7604e-14
1.29401e-12
3.84275e-14
1.2486e-12
8.16727e-14
1.22094e-12
5.24101e-14
1.42578e-12
-3.23908e-13
1.75781e-12
-5.47881e-13
1.81079e-12
-6.19862e-14
1.4471e-12
6.57139e-13
1.13109e-13
7.18162e-12
-7.97418e-12
1.02351e-11
-1.14501e-11
7.22751e-12
8.52723e-12
6.4053e-12
5.87555e-12
4.9128e-12
1.53449e-12
1.48309e-12
5.98789e-12
1.24965e-12
4.64907e-13
1.98198e-12
-2.02285e-12
1.9912e-12
-4.87155e-14
1.41933e-12
1.11515e-12
1.8325e-12
-1.05716e-12
2.59214e-12
-1.54729e-12
2.93986e-12
-7.59822e-13
2.31791e-12
1.25781e-12
2.356e-12
1.10256e-14
2.34894e-12
-4.89161e-14
2.05881e-12
6.63246e-13
1.90214e-12
3.66958e-13
2.02407e-12
-2.24128e-13
2.26679e-12
-4.87365e-13
2.07855e-12
4.73369e-13
2.03537e-12
9.18788e-14
2.31864e-12
-6.14898e-13
2.51184e-12
-4.71359e-13
2.53356e-12
-2.56899e-13
2.62201e-12
-3.72013e-13
2.64074e-12
1.94816e-14
2.31643e-12
9.05323e-13
2.01686e-12
7.37573e-13
1.93275e-12
3.46384e-13
1.91677e-12
2.66079e-14
1.94192e-12
-7.69084e-14
1.96821e-12
-7.65074e-14
1.96985e-12
-5.13067e-15
1.95252e-12
-4.55828e-15
1.93831e-12
1.99549e-14
1.92707e-12
4.88429e-14
1.93105e-12
3.4443e-14
1.86996e-12
1.42767e-13
1.76563e-12
1.56733e-13
1.90539e-12
-4.63663e-13
2.32692e-12
-9.69411e-13
2.62102e-12
-3.56088e-13
2.28699e-12
9.91172e-13
1.73255e-13
3.47211e-12
-6.06835e-12
4.15008e-13
-8.39296e-12
3.18753e-12
5.7547e-12
5.86722e-12
3.19585e-12
5.20243e-12
2.19929e-12
1.41658e-12
9.77374e-12
1.53309e-12
3.48391e-13
2.05195e-12
-2.54171e-12
1.98861e-12
1.46281e-14
1.42487e-12
1.67889e-12
1.78731e-12
-1.4196e-12
2.91666e-12
-2.67664e-12
3.41017e-12
-1.25333e-12
2.34332e-12
2.32467e-12
2.64586e-12
-2.91521e-13
2.69242e-12
-9.54693e-14
2.4524e-12
9.03266e-13
2.23385e-12
5.85508e-13
2.33854e-12
-3.2882e-13
2.67971e-12
-8.28535e-13
2.44759e-12
7.0549e-13
2.35429e-12
1.85181e-13
2.74021e-12
-1.00082e-12
3.00058e-12
-7.31728e-13
2.95022e-12
-2.06545e-13
2.86631e-12
-2.88096e-13
2.7269e-12
1.58887e-13
2.34893e-12
1.28329e-12
2.22736e-12
8.5914e-13
2.29516e-12
2.78587e-13
2.37564e-12
-5.38734e-14
2.43263e-12
-1.33892e-13
2.46586e-12
-1.09742e-13
2.45015e-12
1.05823e-14
2.41708e-12
2.85131e-14
2.39044e-12
4.65877e-14
2.38203e-12
5.72562e-14
2.37326e-12
4.32164e-14
2.26822e-12
2.47806e-13
1.96238e-12
4.62569e-13
1.83128e-12
-3.32563e-13
2.32688e-12
-1.46501e-12
2.45285e-12
-4.82054e-13
2.66665e-12
7.77373e-13
2.59932e-14
-1.47832e-11
8.63554e-12
-7.86834e-12
-1.53078e-11
-1.40634e-12
-7.07289e-13
-1.91417e-12
3.70368e-12
-1.23465e-13
4.08584e-13
1.00001e-12
8.65026e-12
1.12459e-12
2.23815e-13
1.55046e-12
-2.96758e-12
2.3665e-12
-8.01406e-13
1.58695e-12
2.45844e-12
1.86381e-12
-1.69645e-12
2.99961e-12
-3.81245e-12
3.73424e-12
-1.98796e-12
1.9907e-12
4.06821e-12
2.84124e-12
-1.14206e-12
2.78769e-12
-4.19177e-14
2.66577e-12
1.02518e-12
2.35337e-12
8.97913e-13
2.31503e-12
-2.90483e-13
2.65411e-12
-1.16762e-12
2.47936e-12
8.80246e-13
2.33827e-12
3.26269e-13
2.85209e-12
-1.51464e-12
3.14347e-12
-1.02311e-12
3.02068e-12
-8.37584e-14
2.5049e-12
2.2769e-13
2.01564e-12
6.48145e-13
1.72612e-12
1.57282e-12
2.08383e-12
5.01428e-13
2.45606e-12
-9.36454e-14
2.64839e-12
-2.462e-13
2.74203e-12
-2.27535e-13
2.78891e-12
-1.56624e-13
2.75756e-12
4.19364e-14
2.71376e-12
7.23119e-14
2.67821e-12
8.21421e-14
2.65209e-12
8.33748e-14
2.61523e-12
8.00747e-14
2.46812e-12
3.94917e-13
1.94196e-12
9.88726e-13
1.60905e-12
3.48145e-16
2.40937e-12
-2.26534e-12
2.43957e-12
-5.12255e-13
2.76235e-12
4.54593e-13
-1.65885e-13
-4.13386e-12
1.29294e-11
-4.28187e-12
-1.51598e-11
-2.9856e-12
-2.00356e-12
-1.50965e-12
2.22773e-12
9.82625e-14
-1.19932e-12
1.11805e-12
7.63047e-12
4.22516e-13
9.1935e-13
3.43765e-13
-2.88883e-12
6.68081e-13
-1.12572e-12
5.18719e-13
2.6078e-12
4.1116e-13
-1.5889e-12
4.84416e-13
-3.8857e-12
6.66321e-13
-2.16986e-12
3.57682e-13
4.37685e-12
6.24651e-13
-1.40903e-12
5.93207e-13
-1.04742e-14
6.06666e-13
1.01172e-12
5.2206e-13
9.82521e-13
4.73829e-13
-2.42252e-13
4.75795e-13
-1.16958e-12
5.06132e-13
8.49909e-13
4.65099e-13
3.67303e-13
5.90156e-13
-1.6397e-12
6.46895e-13
-1.07985e-12
5.09133e-13
5.40034e-14
2.99347e-13
4.37475e-13
1.27891e-13
8.19601e-13
2.20221e-13
1.48049e-12
4.44069e-13
2.7758e-13
5.5658e-13
-2.06156e-13
6.04787e-13
-2.94407e-13
6.26325e-13
-2.49072e-13
6.36614e-13
-1.66914e-13
6.31039e-13
4.75116e-14
6.19368e-13
8.39825e-14
6.10299e-13
9.12112e-14
6.03114e-13
9.05596e-14
5.91159e-13
9.20296e-14
5.5793e-13
4.28146e-13
4.59159e-13
1.0875e-12
4.49005e-13
1.05019e-14
5.86413e-13
-2.40274e-12
6.83722e-13
-6.09563e-13
6.25369e-13
5.12946e-13
-1.95964e-13
-6.73629e-12
1.98257e-11
-5.74084e-12
-1.61553e-11
-2.35325e-12
-5.39115e-12
-2.03698e-12
1.91146e-12
4.75556e-13
-3.71186e-12
9.51855e-13
7.15417e-12
3.23491e-13
1.54771e-12
3.82275e-13
-2.94762e-12
7.98018e-13
-1.54147e-12
5.36146e-13
2.86967e-12
4.11678e-13
-1.46443e-12
4.75269e-13
-3.94929e-12
7.09867e-13
-2.40446e-12
2.85265e-13
4.80145e-12
5.05884e-13
-1.62965e-12
5.53884e-13
-5.84734e-14
5.99402e-13
9.66202e-13
5.21456e-13
1.06047e-12
4.51573e-13
-1.7237e-13
4.40093e-13
-1.1581e-12
4.62316e-13
8.27686e-13
4.33288e-13
3.9633e-13
5.70537e-13
-1.77695e-12
6.34234e-13
-1.14355e-12
4.81097e-13
2.07141e-13
2.6494e-13
6.53632e-13
-7.18328e-14
1.15637e-12
1.81674e-13
1.22698e-12
4.44935e-13
1.43194e-14
5.60627e-13
-3.21848e-13
6.08554e-13
-3.42334e-13
6.30122e-13
-2.7064e-13
6.40908e-13
-1.777e-13
6.3529e-13
5.31301e-14
6.23005e-13
9.6267e-14
6.13848e-13
1.00368e-13
6.05617e-13
9.87909e-14
5.95342e-13
1.02305e-13
5.64348e-13
4.5914e-13
4.78519e-13
1.17333e-12
4.53338e-13
3.56835e-14
7.02028e-13
-2.65143e-12
6.35408e-13
-5.42943e-13
5.95308e-13
5.53046e-13
-2.54537e-13
-7.59247e-12
2.75781e-11
-9.56158e-12
-1.41862e-11
-1.05506e-12
-1.38977e-11
2.33234e-13
6.23162e-13
8.83546e-13
-4.36217e-12
5.40859e-13
7.49686e-12
2.17959e-13
1.87061e-12
6.94054e-14
-2.79906e-12
3.64915e-13
-1.83697e-12
4.77373e-13
2.75721e-12
4.19435e-13
-1.40649e-12
4.84414e-13
-4.01427e-12
6.68828e-13
-2.58888e-12
1.69682e-13
5.3006e-12
3.61543e-13
-1.82151e-12
4.60592e-13
-1.57522e-13
5.64976e-13
8.61819e-13
5.17618e-13
1.10782e-12
4.43534e-13
-9.82857e-14
3.98431e-13
-1.113e-12
3.9734e-13
8.28777e-13
3.88952e-13
4.04719e-13
5.48409e-13
-1.9364e-12
6.29782e-13
-1.22492e-12
5.12853e-13
3.2407e-13
2.20067e-13
9.46418e-13
1.47847e-14
1.36166e-12
1.97476e-13
1.04429e-12
4.54188e-13
-2.42392e-13
5.64344e-13
-4.32004e-13
6.10577e-13
-3.88567e-13
6.31566e-13
-2.91629e-13
6.43149e-13
-1.89283e-13
6.37261e-13
5.90178e-14
6.24527e-13
1.09002e-13
6.15296e-13
1.09599e-13
6.0701e-13
1.07076e-13
5.96864e-13
1.12451e-13
5.69464e-13
4.8654e-13
5.08915e-13
1.23388e-12
4.50454e-13
9.41446e-14
4.81242e-13
-2.68222e-12
4.03465e-13
-4.65165e-13
5.65594e-13
3.90917e-13
-3.50531e-13
-3.63253e-12
3.13707e-11
-1.62155e-11
-1.60321e-12
1.94415e-13
-3.03076e-11
1.48907e-12
-6.71494e-13
9.03481e-13
-3.77658e-12
1.43054e-13
8.25728e-12
1.84972e-13
1.8287e-12
-7.04995e-14
-2.54359e-12
-5.08557e-14
-1.85662e-12
4.17547e-13
2.28881e-12
4.01873e-13
-1.39082e-12
4.84418e-13
-4.09682e-12
6.32576e-13
-2.73703e-12
4.36107e-14
5.88956e-12
7.68761e-14
-1.85477e-12
3.61071e-13
-4.41717e-13
5.36115e-13
6.86774e-13
5.11954e-13
1.13199e-12
4.43348e-13
-2.96806e-14
3.80105e-13
-1.04976e-12
2.88992e-13
9.1989e-13
3.61158e-13
3.32553e-13
5.24795e-13
-2.10004e-12
6.27045e-13
-1.32717e-12
5.17163e-13
4.33952e-13
2.4158e-13
1.222e-12
1.04263e-13
1.49897e-12
2.85661e-13
8.62888e-13
4.79087e-13
-4.35818e-13
5.69437e-13
-5.22354e-13
6.1e-13
-4.2913e-13
6.3077e-13
-3.12399e-13
6.43162e-13
-2.01675e-13
6.3703e-13
6.51496e-14
6.2389e-13
1.22142e-13
6.14734e-13
1.18755e-13
6.0661e-13
1.152e-13
5.95368e-13
1.23693e-13
5.72537e-13
5.09371e-13
5.4507e-13
1.26134e-12
4.45234e-13
1.93981e-13
1.77476e-13
-2.41446e-12
1.44773e-13
-4.32462e-13
5.72706e-13
-3.70167e-14
-4.54353e-13
-3.281e-12
3.48117e-11
-5.90954e-13
-4.29326e-12
1.99509e-13
-3.1098e-11
8.37813e-13
-1.3098e-12
6.42878e-13
-3.58165e-12
4.43154e-13
8.45701e-12
2.14479e-13
2.05737e-12
-2.47017e-15
-2.32664e-12
6.65636e-14
-1.92565e-12
5.28968e-13
1.82641e-12
5.01984e-13
-1.36383e-12
4.33493e-13
-4.02832e-12
4.60068e-13
-2.76361e-12
1.49628e-14
6.33467e-12
1.13305e-13
-1.95312e-12
3.42982e-13
-6.71394e-13
4.94982e-13
5.34774e-13
5.07545e-13
1.11942e-12
4.51044e-13
2.68205e-14
3.65126e-13
-9.6384e-13
3.67783e-13
9.17232e-13
3.27953e-13
3.72383e-13
5.03261e-13
-2.27535e-12
6.16831e-13
-1.44074e-12
5.20401e-13
5.30382e-13
2.76295e-13
1.46611e-12
2.03383e-13
1.57189e-12
3.63219e-13
7.03052e-13
5.0551e-13
-5.78109e-13
5.74427e-13
-5.9127e-13
6.077e-13
-4.62404e-13
6.27671e-13
-3.3237e-13
6.41134e-13
-2.15137e-13
6.34363e-13
7.1921e-14
6.21062e-13
1.35443e-13
6.12145e-13
1.27672e-13
6.04198e-13
1.23147e-13
5.92547e-13
1.35344e-13
5.76862e-13
5.25055e-13
5.64921e-13
1.27328e-12
4.63373e-13
2.95529e-13
1.82476e-13
-2.13357e-12
3.29252e-13
-5.79239e-13
5.80164e-13
-2.87929e-13
-5.56693e-13
1.24025e-12
7.59753e-13
1.05121e-12
1.89039e-13
9.62542e-13
8.86661e-14
8.36734e-13
1.25808e-13
5.39256e-13
2.97478e-13
2.35578e-12
4.0397e-13
2.44868e-12
9.61433e-14
2.58267e-12
-4.53238e-14
3.18572e-12
-4.77243e-13
-2.33084e-12
6.05581e-12
2.67985e-12
-2.75876e-13
2.93201e-12
-1.56022e-13
3.05209e-12
-1.65402e-13
3.19598e-12
-6.21137e-13
-2.69387e-12
3.55902e-12
2.40597e-12
-6.81847e-13
2.47625e-12
-2.26302e-13
2.45152e-12
-1.40671e-13
2.25148e-12
-4.21092e-13
-1.97351e-12
1.53111e-12
1.31815e-12
1.09185e-12
9.51181e-13
5.30089e-13
-1.44342e-12
2.31038e-11
1.20053e-11
1.09942e-11
7.81635e-12
-1.87507e-12
-1.82287e-11
-2.35189e-12
-8.32984e-13
7.08999e-13
-6.64253e-12
3.30072e-12
5.86528e-12
2.64529e-12
2.7128e-12
1.79559e-12
-1.47694e-12
2.27118e-12
-2.40125e-12
3.63479e-12
4.62799e-13
2.84763e-12
-5.7667e-13
1.43807e-12
-2.61877e-12
1.62327e-12
-2.94881e-12
3.63389e-12
4.32406e-12
1.74502e-12
-6.42459e-14
1.93435e-12
-8.60725e-13
1.95412e-12
5.14996e-13
2.20675e-12
8.66801e-13
2.29151e-12
-5.79452e-14
1.79187e-12
-4.64201e-13
1.61885e-12
1.09025e-12
1.39511e-12
5.96124e-13
2.10451e-12
-2.98475e-12
2.60789e-12
-1.94412e-12
2.32945e-12
8.08828e-13
1.87082e-12
1.92473e-12
1.98121e-12
1.4615e-12
2.41782e-12
2.66437e-13
2.55452e-12
-7.14813e-13
2.6194e-12
-6.56145e-13
2.67973e-12
-5.22731e-13
2.7531e-12
-4.05746e-13
2.84418e-12
-3.06214e-13
2.77853e-12
1.3757e-13
2.73251e-12
1.81468e-13
2.69844e-12
1.61738e-13
2.66441e-12
1.57176e-13
2.61715e-12
1.82605e-13
2.60784e-12
5.34366e-13
2.70893e-12
1.1722e-12
2.62122e-12
3.83241e-13
2.0763e-12
-1.58865e-12
3.18542e-12
-1.68836e-12
3.1797e-12
-2.82207e-13
-4.11227e-13
1.23829e-11
5.67827e-12
2.26535e-11
-2.45431e-12
7.25397e-12
-2.82917e-12
2.29845e-12
4.12253e-12
1.69612e-12
-6.0402e-12
4.44983e-12
3.11157e-12
4.38804e-12
2.77459e-12
3.5745e-12
-6.63388e-13
3.81279e-12
-2.63955e-12
3.9199e-12
3.55691e-13
2.98787e-12
3.5536e-13
1.81408e-12
-1.44498e-12
1.274e-12
-2.40874e-12
3.29355e-12
2.30451e-12
2.64675e-12
5.82548e-13
2.14375e-12
-3.57722e-13
2.07206e-12
5.86686e-13
2.21009e-12
7.28774e-13
2.26235e-12
-1.10205e-13
1.99794e-12
-1.99789e-13
2.04542e-12
1.04277e-12
2.67329e-12
-3.17438e-14
2.0668e-12
-2.37826e-12
1.58337e-12
-1.46068e-12
1.74771e-12
6.4449e-13
2.20319e-12
1.46925e-12
2.63403e-12
1.03066e-12
2.83605e-12
6.44137e-14
2.67232e-12
-5.51084e-13
2.47007e-12
-4.5389e-13
2.37713e-12
-4.29792e-13
2.43931e-12
-4.67932e-13
2.55651e-12
-4.23417e-13
2.46762e-12
2.26468e-13
2.44333e-12
2.05758e-13
2.43752e-12
1.67546e-13
2.43256e-12
1.62131e-13
2.41368e-12
2.0149e-13
2.50009e-12
4.47956e-13
2.77169e-12
9.00595e-13
2.85539e-12
2.99542e-13
2.37837e-12
-1.11163e-12
2.35235e-12
-1.66234e-12
2.53519e-12
-4.6505e-13
-2.11868e-13
7.00431e-12
2.23298e-12
1.01328e-12
3.53671e-12
-4.68339e-12
2.8675e-12
5.14193e-13
-1.07505e-12
9.04663e-13
-6.43067e-12
3.21091e-12
8.05324e-13
3.91677e-12
2.06873e-12
3.5266e-12
-2.73213e-13
2.61301e-12
-1.72595e-12
2.6808e-12
2.87901e-13
2.41169e-12
6.24465e-13
1.63506e-12
-6.68349e-13
7.81091e-13
-1.55476e-12
2.04329e-12
1.04231e-12
2.19028e-12
4.3556e-13
1.96907e-12
-1.3651e-13
1.98581e-12
5.69941e-13
1.87903e-12
8.35561e-13
2.05467e-12
-2.85843e-13
1.95885e-12
-1.03972e-13
1.75485e-12
1.24677e-12
2.53881e-12
-8.15711e-13
1.75809e-12
-1.59754e-12
1.23114e-12
-9.33737e-13
1.49613e-12
3.79509e-13
2.13839e-12
8.26982e-13
2.61164e-12
5.57411e-13
2.65579e-12
2.02655e-14
2.39523e-12
-2.90519e-13
2.08194e-12
-1.40601e-13
1.94018e-12
-2.8804e-13
1.92147e-12
-4.49221e-13
1.99052e-12
-4.92467e-13
1.87604e-12
3.40954e-13
1.93968e-12
1.42116e-13
1.98027e-12
1.26961e-13
2.01619e-12
1.26203e-13
2.04592e-12
1.7176e-13
2.17785e-12
3.16031e-13
2.51288e-12
5.6556e-13
2.65569e-12
1.56732e-13
2.25521e-12
-7.11148e-13
1.76021e-12
-1.16734e-12
1.65383e-12
-3.58672e-13
-7.56001e-14
4.32737e-12
-5.63272e-13
3.65158e-12
4.2125e-12
-5.93577e-13
7.11265e-12
2.34947e-12
-4.01809e-12
1.30139e-13
-4.21134e-12
1.37501e-12
-4.39543e-13
2.79055e-12
6.53189e-13
2.75228e-12
-2.34948e-13
1.57608e-12
-5.49759e-13
1.72686e-12
1.37123e-13
1.89108e-12
4.60246e-13
1.40088e-12
-1.78143e-13
4.94202e-13
-6.48088e-13
1.20776e-12
3.28746e-13
1.55087e-12
9.24534e-14
1.50177e-12
-8.7408e-14
1.70392e-12
3.67785e-13
1.79256e-12
7.46921e-13
2.0337e-12
-5.26982e-13
1.9479e-12
-1.81645e-14
2.48599e-12
7.08669e-13
2.07292e-12
-4.02641e-13
1.29173e-12
-8.16347e-13
7.90773e-13
-4.32778e-13
1.07694e-12
9.33466e-14
1.62008e-12
2.83839e-13
1.97617e-12
2.01316e-13
1.97914e-12
1.72967e-14
1.7646e-12
-7.59803e-14
1.49921e-12
1.24792e-13
1.35842e-12
-1.47252e-13
1.16144e-12
-2.52244e-13
8.98155e-13
-2.29178e-13
1.11619e-12
1.22924e-13
1.23385e-12
2.44556e-14
1.31404e-12
4.67654e-14
1.3732e-12
6.70442e-14
1.44288e-12
1.02076e-13
1.61964e-12
1.39276e-13
1.97327e-12
2.11927e-13
2.1145e-12
1.5509e-14
1.73316e-12
-3.29808e-13
1.00031e-12
-4.34491e-13
8.09511e-13
-1.67875e-13
-2.72702e-14
-2.00669e-12
2.20581e-12
9.31846e-12
5.30037e-12
1.08903e-12
6.49484e-13
1.30267e-12
1.06773e-12
5.17967e-13
6.5509e-13
1.11534e-12
9.37193e-13
2.89105e-13
6.17851e-13
7.10305e-13
6.22897e-13
9.90682e-13
1.7376e-12
1.21062e-12
1.19246e-12
1.90113e-12
1.49849e-12
6.82138e-13
2.4936e-13
3.42707e-13
6.26546e-13
8.27862e-13
8.45158e-13
7.69178e-13
8.9397e-13
7.46719e-13
4.94475e-13
2.65297e-13
3.88221e-13
4.12677e-13
4.59442e-13
5.26486e-13
6.28562e-13
7.67838e-13
9.79765e-13
9.95274e-13
6.65466e-13
2.30975e-13
6.31002e-14
)
;

boundaryField
{
    AirInlet
    {
        type            calculated;
        value           nonuniform List<scalar> 5(-1.6e-13 -1.6e-13 -1.6e-13 -1.6e-13 -1.6e-13);
    }
    WaterInlet
    {
        type            calculated;
        value           nonuniform List<scalar> 10(-2e-12 -2e-12 -2e-12 -2e-12 -2e-12 -2e-12 -2e-12 -2e-12 -2e-12 -2e-12);
    }
    ChannelWall
    {
        type            calculated;
        value           uniform 0;
    }
    Outlet
    {
        type            calculated;
        value           nonuniform List<scalar> 
15
(
3.98429e-13
1.392e-12
2.22684e-12
2.81391e-12
2.95423e-12
6.55448e-13
6.53881e-13
6.61588e-13
6.76528e-13
6.82503e-13
3.03423e-12
2.33583e-12
1.51757e-12
7.61182e-13
3.58301e-14
)
;
    }
    FrontAndBack
    {
        type            empty;
        value           nonuniform 0();
    }
}


// ************************************************************************* //
