/*--------------------------------*- C++ -*----------------------------------*\
| =========                 |                                                 |
| \\      /  F ield         | OpenFOAM: The Open Source CFD Toolbox           |
|  \\    /   O peration     | Version:  2.3.0                                 |
|   \\  /    A nd           | Web:      www.OpenFOAM.org                      |
|    \\/     M anipulation  |                                                 |
\*---------------------------------------------------------------------------*/
FoamFile
{
    version     2.0;
    format      ascii;
    class       volVectorField;
    location    "0.03";
    object      U;
}
// * * * * * * * * * * * * * * * * * * * * * * * * * * * * * * * * * * * * * //

dimensions      [0 1 -1 0 0 0 0];

internalField   nonuniform List<vector> 
725
(
(0.218106 0.0258226 -1.65059e-30)
(0.197595 0.00970466 2.85676e-31)
(0.148751 0.00433849 1.08853e-31)
(0.135135 0.00910933 0)
(-0.00808528 0.0356607 1.05992e-30)
(0.380897 0.0537351 -7.71327e-30)
(0.408018 0.0386486 1.28084e-30)
(0.356012 0.0285049 3.38176e-31)
(0.337962 0.0460778 0)
(0.158667 0.106876 2.79133e-30)
(0.418244 0.038438 -3.36366e-30)
(0.468727 0.0482545 1.64366e-31)
(0.430025 0.0474339 -4.27571e-31)
(0.420241 0.0787458 0)
(0.278259 0.125045 -9.66828e-31)
(0.377215 0.0169155 4.82958e-30)
(0.397296 0.0442121 -1.48318e-31)
(0.360577 0.0467239 -1.34373e-32)
(0.355265 0.0642479 0)
(0.471312 0.0644303 -1.86655e-29)
(0.21131 0.010593 6.19252e-30)
(0.182642 0.0285397 -4.08845e-31)
(0.146749 0.0246633 3.47099e-31)
(0.0839826 0.00675543 1.49634e-30)
(0.18866 -0.0284476 -1.75801e-29)
(-0.234181 0.0091506 0)
(0.28172 -0.0698231 0)
(0.432495 0.0914999 0)
(-0.0109837 0.019621 0)
(-0.00209824 -0.0462482 0)
(0.0594386 -0.00211227 0)
(-0.0424654 0.000361134 0)
(0.023864 -0.00782214 0)
(0.0646662 -0.000715747 0)
(0.0292405 0.00422772 0)
(0.0360031 -0.00382573 0)
(0.0718254 -0.0037943 0)
(0.102222 -0.0027712 0)
(0.0952276 0.00423129 0)
(0.074235 -0.0029835 0)
(0.0834535 -0.0031229 0)
(0.0814721 0.00243588 0)
(0.0660845 0.00244385 0)
(0.0622244 0.000590316 0)
(0.0723414 -0.00151412 0)
(0.0673227 0.00256416 0)
(0.0553718 0.000890124 0)
(0.0637881 -0.00207968 0)
(0.0769137 -0.00171126 0)
(0.0905655 -0.0041036 0)
(0.106655 -0.000946097 0)
(0.111506 0.00209036 0)
(0.0919861 0.00472471 0)
(0.0674411 0.00158178 0)
(0.0541819 0.0010062 0)
(0.0505281 -0.000260273 0)
(0.0529144 -0.000460175 0)
(0.055801 -0.000282854 0)
(0.0569924 -5.27821e-05 0)
(0.0573455 0.000313687 0)
(0.0591553 -0.00103628 0)
(0.0572748 0.00135705 0)
(0.0539877 0.000641816 0)
(0.0500905 0.00064353 0)
(0.0424831 0.000962632 0)
(0.0501773 -0.00154601 0)
(0.0731667 -0.00431073 0)
(0.0891159 -0.00170063 0)
(0.0644237 0.00629663 0)
(0.0446825 0.00156454 0)
(0.310839 -0.129397 0)
(0.929175 -0.340378 0)
(1.07039 0.140654 0)
(0.550633 0.171697 0)
(0.306713 -0.0355429 0)
(0.196204 0.053263 0)
(0.015703 0.003896 0)
(0.107835 -0.0452059 0)
(0.171916 -0.00089095 0)
(0.115723 0.0175116 0)
(0.124529 -0.0217172 0)
(0.189987 -0.0243256 0)
(0.243833 -0.0129217 0)
(0.228688 0.020748 0)
(0.187489 1.16079e-05 0)
(0.187857 -0.00292115 0)
(0.173961 0.0117619 0)
(0.150709 0.00726791 0)
(0.151917 -0.00232039 0)
(0.1748 -0.00709812 0)
(0.168139 0.010018 0)
(0.151134 0.0018865 0)
(0.167813 -0.0107152 0)
(0.191801 -0.00925408 0)
(0.201054 -0.0114443 0)
(0.215736 -0.00943754 0)
(0.234335 0.00368516 0)
(0.216491 0.0210236 0)
(0.174634 0.0139269 0)
(0.14591 0.00835072 0)
(0.137866 -0.000217817 0)
(0.139805 -0.00211495 0)
(0.143679 -0.00175694 0)
(0.145385 -0.000191218 0)
(0.146492 -0.000683581 0)
(0.146329 -0.000567788 0)
(0.143826 0.00233058 0)
(0.145256 0.00207203 0)
(0.142126 0.00306234 0)
(0.130176 0.00154804 0)
(0.145305 -0.0110929 0)
(0.181884 -0.0182908 0)
(0.206852 0.00112876 0)
(0.177485 0.024093 0)
(0.155155 0.00366906 0)
(0.64687 -0.328483 0)
(0.925691 -0.527003 0)
(1.06219 0.328406 0)
(0.84034 0.300175 0)
(0.584712 0.0406549 0)
(0.329731 0.204149 0)
(0.0920461 0.0142007 0)
(0.17863 -0.0886495 0)
(0.244686 -0.00362047 0)
(0.176908 0.0400044 0)
(0.159373 -0.0411011 0)
(0.246718 -0.0537914 0)
(0.331077 -0.0263549 0)
(0.304184 0.0457839 0)
(0.246214 0.000715728 0)
(0.25984 -0.0016284 0)
(0.246901 0.0260885 0)
(0.214663 0.0137585 0)
(0.213654 -0.00806751 0)
(0.247164 -0.016907 0)
(0.244092 0.018895 0)
(0.220167 0.00305193 0)
(0.241113 -0.0226695 0)
(0.27444 -0.018095 0)
(0.28041 -0.0135457 0)
(0.284359 -0.0182694 0)
(0.295939 0.000340432 0)
(0.281061 0.0367872 0)
(0.239061 0.0301684 0)
(0.214159 0.016584 0)
(0.212443 0.00147604 0)
(0.214636 -0.0030766 0)
(0.217545 -0.00316854 0)
(0.219021 -0.00028141 0)
(0.218407 -0.00107244 0)
(0.216254 0.000842397 0)
(0.213482 0.00201531 0)
(0.215319 0.00181215 0)
(0.213879 0.00532533 0)
(0.195857 0.00364955 0)
(0.199796 -0.0215313 0)
(0.237169 -0.0377528 0)
(0.283655 -0.00886292 0)
(0.274748 0.0437075 0)
(0.248007 0.00818176 0)
(0.648938 -0.336473 0)
(-0.104741 -0.471302 0)
(0.204373 0.534938 0)
(0.77732 0.24126 0)
(0.589552 0.144902 0)
(0.337152 0.41069 0)
(0.0890299 0.0536072 0)
(0.186473 -0.114562 0)
(0.25139 -0.0022753 0)
(0.184038 0.0684397 0)
(0.143891 -0.0627242 0)
(0.255787 -0.102032 0)
(0.391631 -0.046551 0)
(0.339548 0.086423 0)
(0.245228 -0.00588955 0)
(0.292153 0.00157362 0)
(0.296732 0.0417644 0)
(0.256734 0.0233233 0)
(0.246508 -0.0146773 0)
(0.287002 -0.0323502 0)
(0.291829 0.0295308 0)
(0.255144 0.00661193 0)
(0.280054 -0.0389735 0)
(0.32808 -0.029404 0)
(0.334431 -0.00992407 0)
(0.324119 -0.0193858 0)
(0.309716 0.000754877 0)
(0.282439 0.0536004 0)
(0.250747 0.0427569 0)
(0.247512 0.0186744 0)
(0.259959 0.00109023 0)
(0.268398 -0.00458751 0)
(0.272919 -0.00449189 0)
(0.273804 -0.000107595 0)
(0.270891 0.000462674 0)
(0.266866 0.00144454 0)
(0.264092 0.00250184 0)
(0.264838 0.00168721 0)
(0.262985 0.00918778 0)
(0.234679 0.012633 0)
(0.1988 -0.0236766 0)
(0.227615 -0.0594123 0)
(0.269913 -0.0219396 0)
(0.284314 0.0473366 0)
(0.312305 0.00795334 0)
(-0.583739 -0.177061 0)
(-1.73242 -0.602131 0)
(-0.390651 0.0451359 0)
(-0.0737674 0.210665 0)
(-0.191633 0.152846 0)
(0.162828 0.501912 0)
(0.114535 -0.0363651 0)
(0.0827574 -0.140102 0)
(0.245183 0.00157221 0)
(0.240491 0.104384 0)
(0.152734 -0.0910165 0)
(0.242726 -0.170976 0)
(0.4269 -0.0822235 0)
(0.347268 0.158505 0)
(0.209312 -0.0307617 0)
(0.309083 -0.0058174 0)
(0.325271 0.0499577 0)
(0.277904 0.0356956 0)
(0.252549 -0.0187398 0)
(0.275977 -0.0546668 0)
(0.29663 0.0422801 0)
(0.254389 0.0127734 0)
(0.28161 -0.061476 0)
(0.349491 -0.044831 0)
(0.350246 -0.0142492 0)
(0.315815 -0.00799912 0)
(0.239695 0.0124619 0)
(0.190301 0.0815713 0)
(0.210678 0.045538 0)
(0.25478 0.00842385 0)
(0.287226 -0.00667733 0)
(0.301536 -0.00889386 0)
(0.308488 -0.00661758 0)
(0.309463 0.00130689 0)
(0.304422 0.00235863 0)
(0.299046 0.00308983 0)
(0.295868 0.00330408 0)
(0.293034 0.00269014 0)
(0.289038 0.0157482 0)
(0.253123 0.0361068 0)
(0.166869 -0.0063367 0)
(0.21477 -0.0894409 0)
(0.285686 -0.0232124 0)
(0.28401 0.02648 0)
(0.328002 -0.00487514 0)
(-0.971577 0.514452 0)
(-3.3637 -0.766721 0)
(-1.48347 -0.0614848 0)
(-1.22942 0.149789 0)
(-0.215851 -0.0181969 0)
(0.38076 0.411109 0)
(0.477066 0.0279113 0)
(0.0557638 -0.146229 0)
(0.281869 -0.0474979 0)
(0.355572 0.127243 0)
(0.197819 -0.0822341 0)
(0.17634 -0.192628 0)
(0.344304 -0.103905 0)
(0.284229 0.210003 0)
(0.172088 -0.0628326 0)
(0.322235 -0.00090089 0)
(0.323531 0.0512563 0)
(0.280785 0.0470727 0)
(0.244795 -0.0135188 0)
(0.227587 -0.0586653 0)
(0.258816 0.0431386 0)
(0.228327 0.0175531 0)
(0.249707 -0.0787027 0)
(0.338527 -0.0525121 0)
(0.297041 -0.00112597 0)
(0.228726 0.0159992 0)
(0.0715559 0.0361809 0)
(0.04331 0.0772968 0)
(0.184411 0.0201023 0)
(0.259733 -0.00741283 0)
(0.295723 -0.013523 0)
(0.309196 -0.0119173 0)
(0.317283 -0.00808096 0)
(0.318826 0.00223081 0)
(0.312599 0.00390115 0)
(0.306767 0.00433089 0)
(0.303636 0.00433886 0)
(0.298684 0.00430461 0)
(0.293865 0.0205868 0)
(0.263182 0.0520221 0)
(0.192998 0.000715506 0)
(0.259525 -0.1171 0)
(0.341316 -0.0289128 0)
(0.312767 0.0248151 0)
(0.32755 -0.00890586 0)
(-1.30372 0.807446 0)
(-4.90275 -0.747495 0)
(-1.30353 -0.125041 0)
(-1.43229 0.0986884 0)
(-0.0413529 -0.132887 0)
(0.386313 0.364976 0)
(0.38055 0.0609512 0)
(0.0608301 -0.146651 0)
(0.292562 -0.0684117 0)
(0.407124 0.138001 0)
(0.21046 -0.0760318 0)
(0.170874 -0.19613 0)
(0.356122 -0.114668 0)
(0.272257 0.228915 0)
(0.113846 -0.0755551 0)
(0.286667 -0.0011127 0)
(0.310756 0.0500175 0)
(0.281251 0.0512372 0)
(0.242066 -0.0104825 0)
(0.211844 -0.0585752 0)
(0.236373 0.041839 0)
(0.209187 0.0193323 0)
(0.235295 -0.0852081 0)
(0.333691 -0.0553978 0)
(0.289736 0.00635046 0)
(0.215828 0.0268589 0)
(-0.00169744 0.049555 0)
(-0.0263323 0.0682056 0)
(0.179497 0.00742441 0)
(0.261972 -0.0132506 0)
(0.297784 -0.015945 0)
(0.310871 -0.012996 0)
(0.319366 -0.00861034 0)
(0.321138 0.00251867 0)
(0.314475 0.00449986 0)
(0.308517 0.00478798 0)
(0.305295 0.0047333 0)
(0.300334 0.00485536 0)
(0.295498 0.0222185 0)
(0.266816 0.0568365 0)
(0.210346 0.00119309 0)
(0.287396 -0.128303 0)
(0.346589 -0.0292127 0)
(0.294762 0.0276277 0)
(0.32576 -0.0109587 0)
(-0.993147 1.20087 0)
(-7.58467 -0.753085 0)
(-0.771884 -0.364758 0)
(-0.542306 0.0750194 0)
(0.701701 -0.21664 0)
(0.297144 0.356294 0)
(0.205382 0.0860363 0)
(0.0203391 -0.144775 0)
(0.0560738 -0.0853005 0)
(0.287921 0.142913 0)
(0.217111 -0.0710576 0)
(0.176192 -0.199681 0)
(0.349679 -0.125445 0)
(0.23667 0.252214 0)
(0.026508 -0.0864351 0)
(0.227532 -0.00481689 0)
(0.282453 0.0462648 0)
(0.276362 0.054544 0)
(0.241944 -0.00674091 0)
(0.202022 -0.0571869 0)
(0.204501 0.0413006 0)
(0.179314 0.0200819 0)
(0.2193 -0.0924114 0)
(0.327502 -0.0589028 0)
(0.300222 0.0133531 0)
(0.210862 0.0400103 0)
(0.00864319 0.0633748 0)
(0.00911266 0.0568279 0)
(0.189062 -0.00614178 0)
(0.264485 -0.0190187 0)
(0.298719 -0.0183188 0)
(0.311454 -0.0140616 0)
(0.320333 -0.00916273 0)
(0.322363 0.00279709 0)
(0.315274 0.00512924 0)
(0.30923 0.00524921 0)
(0.306028 0.00514434 0)
(0.301169 0.00536866 0)
(0.295839 0.0237001 0)
(0.272374 0.0605043 0)
(0.239536 0.00286677 0)
(0.23087 -0.135216 0)
(0.205567 -0.0249696 0)
(0.229546 0.0249113 0)
(0.330658 -0.0146375 0)
(-0.847879 1.52619 0)
(-8.60597 -0.631777 0)
(-0.707416 -1.25339 0)
(0.276077 -0.00666235 0)
(0.884723 -0.19802 0)
(0.162744 0.390153 0)
(0.0830368 0.0915343 0)
(0.0263248 -0.134617 0)
(-0.13013 -0.0921223 0)
(0.132612 0.129081 0)
(0.229581 -0.0701385 0)
(0.182424 -0.204124 0)
(0.325638 -0.133936 0)
(0.196095 0.280486 0)
(-0.0930103 -0.0951707 0)
(0.133623 -0.0147698 0)
(0.245108 0.0388544 0)
(0.270463 0.0563605 0)
(0.243606 -0.00293736 0)
(0.198768 -0.054332 0)
(0.169907 0.0434602 0)
(0.144976 0.0182593 0)
(0.204189 -0.100545 0)
(0.318803 -0.0634255 0)
(0.306066 0.0191695 0)
(0.208548 0.0543939 0)
(0.0378247 0.0724658 0)
(0.0678645 0.0471991 0)
(0.212275 -0.0175787 0)
(0.269981 -0.0240947 0)
(0.299026 -0.0205073 0)
(0.310789 -0.0151077 0)
(0.32018 -0.00975232 0)
(0.322483 0.00308553 0)
(0.314973 0.00578211 0)
(0.308885 0.00571031 0)
(0.305806 0.00555502 0)
(0.300822 0.00590102 0)
(0.294577 0.0249623 0)
(0.278723 0.0626526 0)
(0.265892 0.00701175 0)
(0.149698 -0.128569 0)
(0.0337378 -0.0209513 0)
(0.169341 0.00857616 0)
(0.339936 -0.0202796 0)
(-0.229422 1.77015 0)
(-1.95527 0.016562 0)
(-0.0282952 -1.58562 0)
(0.292686 -0.0560539 0)
(0.529953 -0.18217 0)
(0.189943 0.422705 0)
(0.167391 0.0973452 0)
(0.0699371 -0.122594 0)
(-0.0766478 -0.0953408 0)
(0.176666 0.104447 0)
(0.307603 -0.0692087 0)
(0.203963 -0.204521 0)
(0.237674 -0.138191 0)
(0.147676 0.307582 0)
(-0.0744898 -0.0990983 0)
(0.134547 -0.0293021 0)
(0.222866 0.030317 0)
(0.259961 0.0564901 0)
(0.246474 0.000335271 0)
(0.202747 -0.0503787 0)
(0.181413 0.0460773 0)
(0.155895 0.0171173 0)
(0.192666 -0.110176 0)
(0.30688 -0.0693442 0)
(0.306631 0.0243223 0)
(0.210361 0.0675084 0)
(0.0755465 0.0776954 0)
(0.123822 0.0387375 0)
(0.234361 -0.0260505 0)
(0.275526 -0.0281674 0)
(0.298422 -0.022399 0)
(0.309005 -0.0161298 0)
(0.318918 -0.0104043 0)
(0.321476 0.00342572 0)
(0.313551 0.006433 0)
(0.307464 0.00616507 0)
(0.304605 0.00596222 0)
(0.299641 0.00646926 0)
(0.292941 0.025936 0)
(0.284038 0.0636072 0)
(0.28413 0.0122735 0)
(0.149699 -0.114279 0)
(0.0700362 -0.0240421 0)
(0.232589 -0.00993506 0)
(0.342286 -0.0258592 0)
(0.210803 -0.0104917 0)
(0.184351 -0.0290563 -5.47115e-33)
(0.144007 -0.0244078 -1.74699e-31)
(0.118759 -0.0117652 -1.88567e-30)
(0.0866905 0.0590932 0)
(0.376171 -0.0168306 0)
(0.399773 -0.0447687 0)
(0.353033 -0.0476912 0)
(0.38105 -0.0606546 7.75539e-31)
(0.431917 -0.111807 0)
(0.417006 -0.0383934 0)
(0.471253 -0.0487008 0)
(0.422431 -0.0486898 0)
(0.434122 -0.0768042 2.60123e-30)
(0.288082 -0.175657 0)
(0.37972 -0.0537311 0)
(0.41004 -0.0389919 0)
(0.348498 -0.0298041 0)
(0.34424 -0.0489478 -9.37013e-31)
(0.155363 -0.13629 0)
(0.217393 -0.0258684 0)
(0.198486 -0.0097385 0)
(0.143555 -0.00507489 0)
(0.132986 -0.0108298 -3.20967e-31)
(-0.0331631 -0.049023 0)
(0.448757 0.899827 0)
(3.29772 0.285441 0)
(0.0563624 -1.2282 0)
(-0.333536 -0.150873 0)
(-0.087142 -0.261993 0)
(0.268877 0.420466 0)
(0.336257 0.138377 0)
(0.257257 -0.0924786 0)
(0.173748 -0.11762 0)
(0.336134 0.0352009 0)
(0.41877 -0.0551557 0)
(0.230643 -0.176735 0)
(0.0915756 -0.144407 0)
(0.323698 0.311596 0)
(0.315429 -0.0326398 0)
(0.206452 -0.0516815 0)
(0.189461 0.0185809 0)
(0.234571 0.0508654 0)
(0.258154 0.00193938 0)
(0.229149 -0.0363775 0)
(0.187936 0.0507281 0)
(0.148533 0.0248881 0)
(0.188158 -0.138516 0)
(0.265674 -0.0894866 0)
(0.295712 0.0358547 0)
(0.231942 0.0955414 0)
(0.187498 0.0840312 0)
(0.248337 0.020619 0)
(0.286518 -0.0397862 0)
(0.289093 -0.035973 0)
(0.29358 -0.0265741 0)
(0.300491 -0.0188498 0)
(0.311987 -0.012565 0)
(0.315518 0.00480207 0)
(0.30648 0.00806886 0)
(0.300548 0.00740387 0)
(0.298574 0.0071189 0)
(0.294062 0.00806098 0)
(0.287028 0.0277608 0)
(0.298509 0.0642736 0)
(0.313033 0.0221735 0)
(0.241589 -0.0841169 0)
(0.264555 -0.0582141 0)
(0.379512 -0.0252929 0)
(0.338343 -0.0320011 0)
(0.848222 0.337488 0)
(2.75093 0.0353222 0)
(1.3604 -0.419767 0)
(0.300571 0.120661 0)
(0.119988 -0.308996 0)
(0.362517 0.220005 0)
(0.518433 0.150092 0)
(0.459938 -0.0426162 0)
(0.383501 -0.133952 0)
(0.434643 0.010853 0)
(0.419629 -0.00186379 0)
(0.283296 -0.0973001 0)
(0.0802638 -0.139 0)
(0.250218 0.165193 0)
(0.378741 0.0175197 0)
(0.27177 -0.0224331 0)
(0.213447 0.0283196 0)
(0.237371 0.038073 0)
(0.250843 -0.00461543 0)
(0.237399 -0.0143951 0)
(0.211067 0.054151 0)
(0.272277 0.0266432 0)
(0.282887 -0.139023 0)
(0.184651 -0.0918773 0)
(0.182616 0.0418985 0)
(0.215543 0.0929683 0)
(0.266176 0.0646508 0)
(0.313287 0.0066791 0)
(0.312936 -0.0335092 0)
(0.285043 -0.0297206 0)
(0.265516 -0.0249448 0)
(0.264497 -0.0223736 0)
(0.277485 -0.0186743 0)
(0.28282 0.00852114 0)
(0.272653 0.00997475 0)
(0.269763 0.00873247 0)
(0.271211 0.00840638 0)
(0.269552 0.0101143 0)
(0.266131 0.0253784 0)
(0.296135 0.054011 0)
(0.320637 0.0187868 0)
(0.293213 -0.0680127 0)
(0.248292 -0.0941587 0)
(0.284023 -0.0131179 0)
(0.259967 -0.0119598 0)
(0.579586 0.17899 0)
(0.961225 0.049684 0)
(-0.834934 0.0371854 0)
(0.0582247 0.146199 0)
(0.0128899 -0.344868 0)
(0.243318 0.0862563 0)
(0.437128 0.127574 0)
(0.443464 -0.0172822 0)
(0.325242 -0.113212 0)
(0.281031 0.0200247 0)
(0.300088 0.0324249 0)
(0.256106 -0.0484537 0)
(0.0758424 -0.10076 0)
(0.12435 0.072129 0)
(0.269586 0.0236048 0)
(0.239822 -0.00809618 0)
(0.216014 0.0306085 0)
(0.213962 0.037987 0)
(0.217701 -0.00791262 0)
(0.223375 -0.00518947 0)
(0.185703 0.0583468 0)
(0.254662 -0.032034 0)
(0.257245 -0.103224 0)
(0.144729 -0.0587362 0)
(0.1391 0.0270356 0)
(0.202232 0.0584595 0)
(0.27053 0.0387856 0)
(0.30245 0.000779403 0)
(0.285496 -0.0213928 0)
(0.247553 -0.0155583 0)
(0.219607 -0.0183072 0)
(0.212995 -0.0241941 0)
(0.214312 -0.0255096 0)
(0.217069 0.0159125 0)
(0.210993 0.0103248 0)
(0.216688 0.00802197 0)
(0.222858 0.00765717 0)
(0.22526 0.00993385 0)
(0.228209 0.0198009 0)
(0.262003 0.0372945 0)
(0.293717 0.0120559 0)
(0.286672 -0.0455021 0)
(0.213606 -0.0734419 0)
(0.186267 -0.0258029 0)
(0.169004 -0.00696088 0)
(0.237527 0.0185529 0)
(0.838154 0.250735 0)
(-0.365858 0.334784 0)
(0.384956 -0.271254 0)
(0.0253387 -0.30143 0)
(0.0177727 -0.00879301 0)
(0.259226 0.0657737 0)
(0.34841 -0.0138074 0)
(0.229376 -0.0543844 0)
(0.154351 0.0127863 0)
(0.213924 0.0316671 0)
(0.216527 -0.0178285 0)
(0.0703195 -0.0549591 0)
(0.0554152 0.0291147 0)
(0.175785 0.0108142 0)
(0.175992 -0.00429174 0)
(0.176197 0.0271208 0)
(0.196554 0.0465759 0)
(0.218262 -0.0264821 0)
(0.208736 -0.00340051 0)
(0.246031 0.0554284 0)
(0.28349 -0.0362165 0)
(0.185929 -0.0628767 0)
(0.0920488 -0.0340885 0)
(0.0927849 0.0101336 0)
(0.151956 0.0255851 0)
(0.206817 0.0170891 0)
(0.226701 0.00104642 0)
(0.209396 -0.00778104 0)
(0.180677 0.00334024 0)
(0.158248 -0.0106185 0)
(0.142052 -0.0197335 0)
(0.106221 -0.0200521 0)
(0.107605 0.0134729 0)
(0.13086 0.00408639 0)
(0.142158 0.00431504 0)
(0.149702 0.00525475 0)
(0.155462 0.00774423 0)
(0.165458 0.0121617 0)
(0.200264 0.0192081 0)
(0.234121 0.00305605 0)
(0.230628 -0.0271661 0)
(0.145485 -0.039762 0)
(0.0871517 -0.0129436 0)
(0.0847639 -0.00171641 0)
(-0.3358 -0.0514607 0)
(-0.0274758 0.141442 0)
(0.654647 0.254773 0)
(1.05072 -0.0350519 0)
(0.284364 -0.0875795 0)
(-0.000498603 -0.0247622 0)
(0.120706 0.0050063 0)
(0.152415 -0.0093563 0)
(0.0788624 -0.00762117 0)
(0.0486961 0.0029793 0)
(0.104909 0.0108234 0)
(0.13677 -0.00135955 0)
(0.0510211 -0.0119882 0)
(0.0247727 0.00561841 0)
(0.0884053 -0.00256611 0)
(0.0736547 -0.00414119 0)
(0.0790789 0.00825358 0)
(0.163438 0.0216603 0)
(0.179774 -0.0163047 0)
(0.109957 0.000408656 0)
(0.179023 0.017235 0)
(0.212308 -0.00911622 0)
(0.117821 -0.0149793 0)
(0.037374 -0.00865999 0)
(0.0247362 0.000216239 0)
(0.0550419 0.00383513 0)
(0.0840571 0.00297435 0)
(0.095793 0.000598289 0)
(0.0880123 -0.000645485 0)
(0.0926072 0.00646901 0)
(0.094471 -0.00287678 0)
(0.0710027 -0.00495397 0)
(0.0346305 -0.00436381 0)
(0.0322988 0.00142534 0)
(0.0467958 -0.00108254 0)
(0.0484099 0.000689963 0)
(0.0546413 0.00124594 0)
(0.0634451 0.00207736 0)
(0.0753943 0.0022398 0)
(0.0984191 0.00326153 0)
(0.11492 -0.00134276 0)
(0.0999194 -0.00670751 0)
(0.0453923 -0.00665877 0)
(0.00913978 -0.00268261 0)
(0.0040913 -0.000785198 0)
)
;

boundaryField
{
    AirInlet
    {
        type            fixedValue;
        value           uniform (0.08 0 0);
    }
    WaterInlet
    {
        type            fixedValue;
        value           uniform (0.4 0 0);
    }
    ChannelWall
    {
        type            fixedValue;
        value           uniform (0 0 0);
    }
    Outlet
    {
        type            pressureInletOutletVelocity;
        value           nonuniform List<vector> 
15
(
(0.0446825 0.00156454 0)
(0.155155 0.00366906 0)
(0.248007 0.00818176 0)
(0.312305 0.00795334 0)
(0.328002 -0.00487514 0)
(0.32755 -0.00890586 0)
(0.32576 -0.0109587 0)
(0.330658 -0.0146375 0)
(0.339936 -0.0202796 0)
(0.342286 -0.0258592 0)
(0.338343 -0.0320011 0)
(0.259967 -0.0119598 0)
(0.169004 -0.00696088 0)
(0.0847639 -0.00171641 0)
(0.0040913 -0.000785198 0)
)
;
    }
    FrontAndBack
    {
        type            empty;
    }
}


// ************************************************************************* //
