/*--------------------------------*- C++ -*----------------------------------*\
| =========                 |                                                 |
| \\      /  F ield         | OpenFOAM: The Open Source CFD Toolbox           |
|  \\    /   O peration     | Version:  2.3.0                                 |
|   \\  /    A nd           | Web:      www.OpenFOAM.org                      |
|    \\/     M anipulation  |                                                 |
\*---------------------------------------------------------------------------*/
FoamFile
{
    version     2.0;
    format      ascii;
    class       volVectorField;
    location    "0.03";
    object      U;
}
// * * * * * * * * * * * * * * * * * * * * * * * * * * * * * * * * * * * * * //

dimensions      [0 1 -1 0 0 0 0];

internalField   nonuniform List<vector> 
725
(
(0.0465159 0.00717847 -2.2511e-31)
(0.0522669 0.00193622 3.84003e-32)
(0.0302329 0.00105372 3.66211e-32)
(0.0363544 0.00312751 0)
(-0.0191425 -0.00371861 -9.37718e-32)
(0.0892 0.0144916 -9.63949e-31)
(0.107904 0.00876615 1.25163e-31)
(0.0736083 0.00712975 1.85259e-31)
(0.0819624 0.0186691 0)
(-0.0179418 -0.0144202 -6.01859e-31)
(0.101601 0.0101217 -2.06111e-31)
(0.125261 0.0134675 -1.40923e-32)
(0.0910302 0.0142456 2.14574e-31)
(0.0949018 0.0408078 0)
(-0.0217047 -0.00051478 -9.02174e-31)
(0.090061 0.00343538 1.27801e-30)
(0.106933 0.0147881 -1.86819e-31)
(0.0807047 0.0181931 3.57692e-31)
(0.0864638 0.0700969 0)
(0.0486018 -0.00326494 -1.27126e-31)
(0.0468625 0.00174314 1.38403e-30)
(0.0513122 0.00921881 -3.78183e-31)
(0.0458267 0.0114345 8.31415e-32)
(0.0484047 0.0359019 -2.74312e-30)
(0.341772 0.0396975 1.41348e-30)
(0.0865973 -0.0169249 0)
(0.143294 0.0185681 0)
(-0.067412 0.111922 0)
(-1.07571 0.140408 0)
(-0.466274 -0.136148 0)
(-0.18521 -0.212251 0)
(-0.525372 -0.0356732 0)
(-0.278285 -0.0631344 0)
(-0.10901 -0.0212598 0)
(-0.0251707 -0.00458793 0)
(-0.0190315 0.000167149 0)
(-0.0105796 -0.000481198 0)
(0.0074259 -0.00108508 0)
(0.0162309 0.000475535 0)
(0.0182797 -0.000430612 0)
(0.0247929 0.000151144 0)
(0.0132028 0.00203187 0)
(0.00806764 -0.000674315 0)
(0.0140115 0.000445076 0)
(0.0127363 -0.000301525 0)
(0.0155149 -0.000240826 0)
(0.0164571 -9.95344e-05 0)
(0.0165552 -4.69679e-05 0)
(0.016476 -4.3627e-05 0)
(0.0163786 -5.05155e-05 0)
(0.0164666 -0.000134479 0)
(0.0166227 -0.000201508 0)
(0.0173754 -0.000392252 0)
(0.0169274 -0.000508315 0)
(0.0156712 -0.000518148 0)
(0.0142744 -5.47913e-05 0)
(0.00144171 0.00227069 0)
(-0.00291622 -0.0282615 0)
(0.228473 -0.114454 0)
(0.703361 0.017393 0)
(0.577469 0.0367134 0)
(0.0792591 0.0209297 0)
(-0.0682529 0.0142385 0)
(-0.0444381 -0.00682238 0)
(-0.0389175 -0.00528214 0)
(0.0380685 -0.00497618 0)
(-0.00649315 -0.00478553 0)
(0.141221 -0.0200588 0)
(0.166905 -0.0921859 0)
(0.514765 0.00864528 0)
(0.0815899 -0.0831071 0)
(0.184851 0.098271 0)
(-0.245635 0.445513 0)
(-1.62089 0.159768 0)
(-0.505228 -0.560097 0)
(0.0577996 0.199088 0)
(-0.398332 0.0146262 0)
(-0.334039 -0.147214 0)
(-0.18167 -0.0862821 0)
(-0.0651904 -0.0301368 0)
(-0.0521281 -0.00773436 0)
(-0.0316076 -0.0123626 0)
(0.00817978 -0.0134791 0)
(0.0309974 -0.00371387 0)
(0.0406161 -0.00461453 0)
(0.054046 0.000103966 0)
(0.0347647 0.00946002 0)
(0.0256802 -0.0030394 0)
(0.0375497 -3.57437e-05 0)
(0.0379142 -0.00183441 0)
(0.0426842 -0.00130056 0)
(0.0441451 -0.000302968 0)
(0.0437727 9.04104e-05 0)
(0.0430241 0.000149385 0)
(0.0421975 0.00015883 0)
(0.0415142 5.91897e-06 0)
(0.0404588 3.11044e-05 0)
(0.0395388 0.000276966 0)
(0.0341561 0.00107003 0)
(0.0274687 0.00234479 0)
(0.0142151 0.00441284 0)
(0.00351536 0.00641275 0)
(0.0128843 -0.08845 0)
(0.220763 -0.263975 0)
(0.410682 -0.0198948 0)
(0.901861 0.136297 0)
(0.157502 0.277004 0)
(-0.0870172 0.0564952 0)
(-0.0332272 -0.0223808 0)
(-0.0429116 -0.0258695 0)
(0.0734864 -0.0187061 0)
(-0.0138534 -0.0289577 0)
(0.228484 -0.0700688 0)
(0.122489 -0.239486 0)
(0.393331 -0.071744 0)
(0.095532 -0.144154 0)
(0.11603 0.126943 0)
(-0.0696408 0.895676 0)
(-0.199123 0.552604 0)
(-0.504426 -0.89802 0)
(0.102699 0.0482289 0)
(0.00424502 0.086183 0)
(-0.224425 -0.134323 0)
(-0.133675 -0.14763 0)
(-0.0347293 -0.0559166 0)
(-0.0322029 -0.0126862 0)
(-0.0201207 -0.0275331 0)
(0.0205658 -0.0306691 0)
(0.0455727 -0.0114137 0)
(0.0602163 -0.0112651 0)
(0.0775559 0.000190088 0)
(0.0522363 0.0200182 0)
(0.0414622 -0.0067959 0)
(0.0558596 -0.00079453 0)
(0.0564997 -0.00451217 0)
(0.0628573 -0.00282323 0)
(0.0650504 -0.000460946 0)
(0.0646326 0.000489023 0)
(0.0635503 0.000656279 0)
(0.0622961 0.00071335 0)
(0.0612127 0.000563898 0)
(0.0595749 0.000981566 0)
(0.0576511 0.0022673 0)
(0.0503518 0.0047301 0)
(0.0416096 0.00875193 0)
(0.0220029 0.0104482 0)
(0.021764 0.000955853 0)
(0.0414109 -0.140565 0)
(0.17282 -0.260374 0)
(-0.0299093 -0.246834 0)
(0.782273 0.1102 0)
(0.101649 0.533624 0)
(-0.0616755 0.0858489 0)
(0.0364628 -0.0406947 0)
(-0.0103404 -0.0426182 0)
(0.0931325 -0.0299069 0)
(-0.0205641 -0.0429685 0)
(0.16072 -0.0885223 0)
(-0.155328 -0.239413 0)
(0.0737254 0.061042 0)
(0.13088 -0.157865 0)
(-0.262989 0.338494 0)
(-0.615005 0.289891 0)
(0.761027 0.680375 0)
(-0.65792 -0.768448 0)
(0.0700304 -0.21691 0)
(0.518465 0.156644 0)
(-0.00214253 -0.033409 0)
(0.00544694 -0.197297 0)
(0.0256813 -0.073379 0)
(0.0214891 -0.0113218 0)
(0.0138158 -0.0375421 0)
(0.0415922 -0.0455796 0)
(0.0561951 -0.0183232 0)
(0.0732178 -0.0219247 0)
(0.0962149 -0.000518229 0)
(0.06499 0.0332424 0)
(0.0549359 -0.0114727 0)
(0.0677555 -0.00232853 0)
(0.0661567 -0.00779478 0)
(0.0745258 -0.00488464 0)
(0.0783018 -0.000885488 0)
(0.0786688 0.000826758 0)
(0.0778511 0.00121479 0)
(0.0766294 0.00134931 0)
(0.0757136 0.00112429 0)
(0.0742677 0.00201876 0)
(0.0723511 0.00436134 0)
(0.0658955 0.00850351 0)
(0.0579454 0.0159088 0)
(0.0382567 0.0160257 0)
(0.0384772 -0.00518972 0)
(0.0370125 -0.168699 0)
(0.0898713 -0.216593 0)
(-0.0938055 -0.385952 0)
(0.104837 0.0107586 0)
(0.0630014 0.702657 0)
(0.0298274 0.105202 0)
(0.152763 -0.0499316 0)
(0.0499345 -0.0426813 0)
(0.110817 -0.0308095 0)
(-0.0208086 -0.0315186 0)
(0.0695175 -0.0432891 0)
(-0.348749 -0.0691278 0)
(-0.819756 -0.0243708 0)
(-0.193149 -0.0109035 0)
(0.0417432 0.355785 0)
(0.937067 0.673354 0)
(-2.25429 -0.0427295 0)
(-0.151132 -0.153181 0)
(-0.161248 -0.599959 0)
(0.495617 0.0812131 0)
(0.297802 0.141229 0)
(0.172423 -0.182481 0)
(0.101597 -0.073239 0)
(0.0843999 -0.00105928 0)
(0.0595019 -0.0367181 0)
(0.0663047 -0.0545214 0)
(0.0681214 -0.0182104 0)
(0.0711685 -0.0365878 0)
(0.0906911 0.00281875 0)
(0.0744082 0.047305 0)
(0.0677921 -0.0191927 0)
(0.0677658 0.00208692 0)
(0.0666771 -0.0110156 0)
(0.0772271 -0.00807055 0)
(0.0835701 -0.00211293 0)
(0.0856105 0.000723904 0)
(0.0857076 0.00161408 0)
(0.0850621 0.00183171 0)
(0.0848614 0.00137983 0)
(0.0841464 0.00283131 0)
(0.082897 0.00603403 0)
(0.0790132 0.0112268 0)
(0.0736057 0.0219787 0)
(0.0576094 0.0190815 0)
(0.0552812 -0.00532354 0)
(0.0505514 -0.167095 0)
(0.019746 -0.151883 0)
(-0.348138 -0.291941 0)
(-1.46761 0.169658 0)
(-0.283948 0.474825 0)
(0.164565 -0.00242529 0)
(0.267064 -0.0430792 0)
(0.102095 -0.0111406 0)
(0.13006 -0.018651 0)
(-0.00744232 -0.00798941 0)
(0.106296 0.0159146 0)
(-0.274623 0.103001 0)
(-0.308108 0.0847909 0)
(0.579715 -0.00129393 0)
(0.0608009 0.0677907 0)
(1.23324 1.12612 0)
(1.93836 0.378284 0)
(0.824805 -0.777967 0)
(-0.0987566 -0.773141 0)
(0.231868 0.00373628 0)
(0.384963 0.176048 0)
(0.170542 -0.142183 0)
(0.129164 -0.0538387 0)
(0.109762 0.00806514 0)
(0.0861864 -0.0315615 0)
(0.0756744 -0.0542941 0)
(0.0772205 -0.0161124 0)
(0.0631416 -0.0363142 0)
(0.0635109 -0.00037229 0)
(0.085004 0.0497657 0)
(0.0702198 -0.0170402 0)
(0.0536138 0.00365993 0)
(0.0678851 -0.0137925 0)
(0.0756055 -0.0103078 0)
(0.0824875 -0.00344633 0)
(0.0855718 0.000190476 0)
(0.0866562 0.00151413 0)
(0.0866996 0.00184469 0)
(0.0869926 0.00134524 0)
(0.086728 0.0029998 0)
(0.0861099 0.00647061 0)
(0.0840833 0.0120302 0)
(0.0801645 0.0243329 0)
(0.068583 0.021894 0)
(0.0549227 -0.00572293 0)
(0.0636933 -0.160849 0)
(0.030481 -0.0824236 0)
(-0.580531 -0.0304486 0)
(-2.35897 0.222071 0)
(-0.310233 0.120384 0)
(0.322139 -0.0894253 0)
(0.311936 -0.0146374 0)
(0.095397 0.00872338 0)
(0.136315 -0.00965196 0)
(0.00241855 -0.000346886 0)
(0.136582 0.0342442 0)
(-0.178954 0.126013 0)
(-0.219323 0.135635 0)
(0.143207 -0.0139803 0)
(-0.00347704 0.0156569 0)
(1.43105 0.95852 0)
(4.45424 0.548877 0)
(1.33344 -0.794601 0)
(0.306968 -0.681273 0)
(0.0350066 -0.0170099 0)
(0.345067 0.172378 0)
(0.126383 -0.133199 0)
(0.132971 -0.0510498 0)
(0.118291 0.0102055 0)
(0.0959359 -0.0296693 0)
(0.0791581 -0.0536366 0)
(0.0787276 -0.015588 0)
(0.0633663 -0.0348475 0)
(0.0554106 -0.00236269 0)
(0.0895652 0.0491013 0)
(0.0769397 -0.0148912 0)
(0.0511065 0.00368342 0)
(0.0677613 -0.0149289 0)
(0.0745547 -0.0110573 0)
(0.0817486 -0.00395526 0)
(0.0852133 -3.83246e-05 0)
(0.0866875 0.00144061 0)
(0.0870188 0.00182031 0)
(0.0875005 0.00132874 0)
(0.0873748 0.00303958 0)
(0.0869789 0.00657944 0)
(0.0856321 0.0122829 0)
(0.0822705 0.0250566 0)
(0.0726258 0.0231992 0)
(0.0537977 -0.00557586 0)
(0.0657581 -0.158872 0)
(0.0299711 -0.0517567 0)
(-0.63597 0.0887551 0)
(-2.61802 0.229639 0)
(-0.265345 -0.0431916 0)
(0.358628 -0.121761 0)
(0.319764 0.000861869 0)
(0.091678 0.0172191 0)
(0.137997 -0.00641713 0)
(0.00591507 0.0015813 0)
(0.144185 0.0411672 0)
(-0.167367 0.142398 0)
(-0.354263 0.149636 0)
(0.597075 -0.0252789 0)
(-0.040383 -0.0261799 0)
(0.761852 0.671649 0)
(3.51759 0.608727 0)
(1.96873 -0.561006 0)
(0.771137 -0.556286 0)
(-0.042178 -0.016015 0)
(0.240249 0.165223 0)
(0.0665519 -0.129428 0)
(0.132887 -0.051559 0)
(0.126569 0.011808 0)
(0.105802 -0.0276052 0)
(0.0837996 -0.0524945 0)
(0.0806985 -0.0150935 0)
(0.0707019 -0.0331593 0)
(0.0554331 -0.00377492 0)
(0.0897329 0.047356 0)
(0.0848615 -0.0124641 0)
(0.0592094 0.0038512 0)
(0.0730125 -0.0158397 0)
(0.0745742 -0.011657 0)
(0.0807633 -0.00447519 0)
(0.0845321 -0.000302006 0)
(0.086427 0.00132948 0)
(0.0871197 0.00176563 0)
(0.0878722 0.00129361 0)
(0.0879162 0.00306413 0)
(0.0876624 0.00664633 0)
(0.0869195 0.012481 0)
(0.0841746 0.0256498 0)
(0.0768045 0.024671 0)
(0.0522677 -0.00518752 0)
(0.0660411 -0.156769 0)
(0.0276581 -0.0199959 0)
(-0.641949 0.220431 0)
(-2.76436 0.236917 0)
(-0.206972 -0.220563 0)
(0.383034 -0.152578 0)
(0.338244 0.0185282 0)
(0.0885851 0.0266121 0)
(0.139264 -0.00330992 0)
(0.00947727 0.00298965 0)
(0.150193 0.0480087 0)
(-0.137047 0.163362 0)
(-0.21787 0.156599 0)
(-0.104934 -0.0324791 0)
(-0.215319 -0.0226386 0)
(0.173598 0.527333 0)
(1.1095 0.535157 0)
(2.31641 -0.326783 0)
(1.07212 -0.406261 0)
(-0.0181073 0.0250432 0)
(0.199905 0.158917 0)
(0.0728236 -0.127793 0)
(0.131982 -0.0540409 0)
(0.133337 0.012905 0)
(0.11522 -0.0254299 0)
(0.0892445 -0.0509631 0)
(0.0829579 -0.0146318 0)
(0.0778629 -0.0317508 0)
(0.0588543 -0.004386 0)
(0.0887261 0.0452649 0)
(0.089376 -0.0106257 0)
(0.0674488 0.0041112 0)
(0.0792358 -0.0163178 0)
(0.0767282 -0.0119253 0)
(0.0804315 -0.00491118 0)
(0.0837277 -0.000589176 0)
(0.0859959 0.00117849 0)
(0.0869815 0.00168726 0)
(0.0878731 0.00123488 0)
(0.0881213 0.00307121 0)
(0.0881206 0.00667651 0)
(0.087976 0.0126166 0)
(0.0858829 0.0260887 0)
(0.0811699 0.0262717 0)
(0.0509909 -0.00448645 0)
(0.0657135 -0.15451 0)
(0.0259192 0.0091483 0)
(-0.584622 0.353195 0)
(-2.56395 0.239988 0)
(0.0204685 -0.407642 0)
(0.293806 -0.174679 0)
(0.286367 0.0348221 0)
(0.0835042 0.0359274 0)
(0.140077 -0.000517926 0)
(0.0130041 0.00399233 0)
(0.155839 0.0532928 0)
(-0.113615 0.190569 0)
(-0.251491 0.159103 0)
(0.54186 -0.027975 0)
(-0.0548653 -0.0189502 0)
(0.0754463 0.508745 0)
(0.0386335 0.475198 0)
(2.38697 -0.571777 0)
(1.01388 -0.269155 0)
(-0.147094 0.0789026 0)
(0.231135 0.142696 0)
(0.11881 -0.123664 0)
(0.13164 -0.0561484 0)
(0.138679 0.0135823 0)
(0.123855 -0.0232711 0)
(0.0950536 -0.0490885 0)
(0.0858626 -0.0142889 0)
(0.0850934 -0.0306271 0)
(0.0644442 -0.00438975 0)
(0.0867071 0.0433308 0)
(0.0912081 -0.00939988 0)
(0.0746102 0.00426105 0)
(0.0841093 -0.0164783 0)
(0.079138 -0.0119165 0)
(0.0811543 -0.00519722 0)
(0.0836907 -0.000855795 0)
(0.0857488 0.00101307 0)
(0.0867801 0.0015984 0)
(0.0877401 0.00116195 0)
(0.0881379 0.00305529 0)
(0.0884249 0.00666654 0)
(0.0888564 0.0126889 0)
(0.0874525 0.0263688 0)
(0.0857624 0.0279545 0)
(0.0514884 -0.00348744 0)
(0.0667892 -0.152439 0)
(0.0251516 0.0344095 0)
(-0.506966 0.473273 0)
(-2.18511 0.222074 0)
(0.278756 -0.55401 0)
(0.130317 -0.169857 0)
(0.161342 0.0412156 0)
(0.0746822 0.0413373 0)
(0.140338 0.00156864 0)
(0.01627 0.00456914 0)
(0.166476 0.0564717 0)
(-0.0931959 0.218965 0)
(-0.245726 0.149453 0)
(0.0468193 -0.00172765 0)
(0.0524923 -0.00951785 1.46017e-31)
(0.0320226 -0.00946938 6.25461e-31)
(0.112 -0.0414196 2.38739e-30)
(0.143404 -0.109465 0)
(0.0903224 -0.00346545 0)
(0.108118 -0.014791 0)
(0.0657826 -0.0189318 0)
(0.135525 -0.0595243 2.02061e-30)
(-0.0437209 -0.122192 0)
(0.101999 -0.0101571 0)
(0.126308 -0.0134804 0)
(0.0783159 -0.0154533 0)
(0.132575 -0.0341131 1.20544e-30)
(-0.0598981 -0.0705261 0)
(0.0894456 -0.0144853 0)
(0.108932 -0.00867309 0)
(0.0619492 -0.00807207 0)
(0.106502 -0.0157769 -4.32835e-31)
(-0.0558113 -0.0322807 0)
(0.0464249 -0.00717481 0)
(0.053295 -0.00174585 0)
(0.0217159 -0.00146977 0)
(0.053559 -0.00155742 -1.26756e-31)
(-0.0422693 -0.00739104 0)
(0.564041 0.0273145 0)
(-0.375848 0.106449 0)
(-0.109462 0.264911 0)
(1.45693 0.182343 0)
(1.96851 -0.703206 0)
(0.735537 0.147113 0)
(-0.29323 0.213866 0)
(0.219834 0.0763679 0)
(0.153305 -0.116524 0)
(0.129656 -0.0584104 0)
(0.149228 0.0145027 0)
(0.142819 -0.0175625 0)
(0.108635 -0.0428775 0)
(0.0956217 -0.0145442 0)
(0.102047 -0.0286813 0)
(0.0809993 -0.00141488 0)
(0.0919905 0.0381219 0)
(0.103035 -0.00637308 0)
(0.0908393 0.0038996 0)
(0.0935394 -0.0156154 0)
(0.084192 -0.0114544 0)
(0.082498 -0.00558555 0)
(0.0832429 -0.00142068 0)
(0.0845539 0.00059116 0)
(0.0858476 0.00130517 0)
(0.0867425 0.00101149 0)
(0.0872444 0.00294333 0)
(0.0886118 0.00653837 0)
(0.0908138 0.0127472 0)
(0.0915502 0.0268452 0)
(0.0989307 0.0328653 0)
(0.0543537 -0.000116679 0)
(0.0657904 -0.1459 0)
(-0.00562736 0.100719 0)
(-0.168877 0.741811 0)
(-1.51493 0.169488 0)
(0.335142 -0.859836 0)
(-0.070942 -0.0775527 0)
(-0.0887349 0.0263608 0)
(0.05048 0.0214106 0)
(0.13937 0.000908737 0)
(0.0250896 0.00378803 0)
(0.210531 0.0511044 0)
(0.130516 0.212244 0)
(0.494723 0.151974 0)
(0.108106 0.135412 0)
(-0.155954 0.221395 0)
(0.198975 -0.423964 0)
(1.31636 -0.13022 0)
(1.0464 -0.48704 0)
(0.383213 0.659876 0)
(0.0279602 0.25424 0)
(0.24795 -0.00323065 0)
(0.164027 -0.110571 0)
(0.127919 -0.0547403 0)
(0.152584 0.0120974 0)
(0.153629 -0.00995473 0)
(0.118853 -0.0291459 0)
(0.0978214 -0.0140505 0)
(0.0889376 -0.0244941 0)
(0.0710504 0.00544061 0)
(0.087278 0.0272033 0)
(0.099949 -0.00213787 0)
(0.0939363 0.00198212 0)
(0.0922282 -0.0104325 0)
(0.0817653 -0.00866448 0)
(0.0773141 -0.00458687 0)
(0.0763966 -0.00150317 0)
(0.0769189 9.09635e-05 0)
(0.077978 0.000675398 0)
(0.0788964 0.000773785 0)
(0.0799364 0.00223583 0)
(0.0825738 0.00526212 0)
(0.0877204 0.0108318 0)
(0.0937767 0.023618 0)
(0.116882 0.0389165 0)
(0.0761469 0.0134965 0)
(0.075295 -0.118212 0)
(-0.0935274 0.0822972 0)
(0.330309 0.798396 0)
(0.554474 0.342449 0)
(0.000836434 -1.12179 0)
(0.0116032 0.0342122 0)
(0.0647173 -0.0339887 0)
(0.0686367 -0.0221305 0)
(0.140207 -0.0077408 0)
(0.0228376 0.00168776 0)
(0.214652 0.0172438 0)
(0.163147 0.0772698 0)
(0.637259 0.133825 0)
(-0.0452551 0.132627 0)
(0.00843749 0.126515 0)
(0.172612 -0.396606 0)
(0.211886 -0.227845 0)
(-0.0860226 -0.355806 0)
(-0.222444 0.760051 0)
(-0.10127 0.283782 0)
(0.250288 -0.0541555 0)
(0.187635 -0.101604 0)
(0.1157 -0.0437222 0)
(0.134383 0.0103625 0)
(0.137194 -0.00384225 0)
(0.107326 -0.0154519 0)
(0.087314 -0.00816975 0)
(0.0717101 -0.0150395 0)
(0.0567837 0.00391932 0)
(0.0750587 0.016963 0)
(0.086273 -0.00100231 0)
(0.0823608 0.00130004 0)
(0.0794706 -0.00605219 0)
(0.0702391 -0.00546474 0)
(0.0650908 -0.00309824 0)
(0.0633088 -0.00121583 0)
(0.0632204 -0.00018382 0)
(0.0638746 0.000214693 0)
(0.0646429 0.000327054 0)
(0.0658666 0.00120905 0)
(0.0690139 0.00314709 0)
(0.0755904 0.00693757 0)
(0.0858939 0.0158147 0)
(0.117981 0.0348338 0)
(0.114119 0.025295 0)
(0.11431 -0.0706577 0)
(-0.105837 -0.0333924 0)
(0.439742 0.542804 0)
(1.46214 0.366355 0)
(0.0324496 -0.708337 0)
(0.0709585 -0.0814535 0)
(0.137046 -0.0178939 0)
(0.0597297 -0.00675777 0)
(0.12395 -0.00607886 0)
(0.00784233 -0.00803976 0)
(0.23949 -0.0263762 0)
(0.158574 -0.13658 0)
(0.586051 -0.0284029 0)
(-0.0181466 0.0916518 0)
(0.13233 0.0795642 0)
(0.216108 -0.284996 0)
(-0.483466 -0.173815 0)
(-0.659741 -0.133432 0)
(-0.561753 0.545146 0)
(0.158364 0.241313 0)
(0.309743 -0.125525 0)
(0.186649 -0.0875214 0)
(0.0702488 -0.0190257 0)
(0.0881939 0.0103647 0)
(0.092994 0.000683294 0)
(0.0731579 -0.00469576 0)
(0.0599928 -0.00216817 0)
(0.0458028 -0.00583633 0)
(0.0355861 0.00292143 0)
(0.0528304 0.00850837 0)
(0.0619517 -0.000309105 0)
(0.0594488 0.0010103 0)
(0.0573607 -0.00257942 0)
(0.0502531 -0.00252556 0)
(0.0456888 -0.00152827 0)
(0.0437042 -0.000707801 0)
(0.0431782 -0.000241294 0)
(0.0433397 -7.72779e-05 0)
(0.0436718 -9.37424e-05 0)
(0.0444102 0.000160687 0)
(0.0467311 0.000859188 0)
(0.05196 0.00232675 0)
(0.0619025 0.00640456 0)
(0.0914149 0.0208026 0)
(0.12445 0.0250577 0)
(0.13278 -0.015008 0)
(-0.0646918 -0.107508 0)
(0.266803 0.1103 0)
(1.76651 0.12361 0)
(0.339945 -0.113806 0)
(0.0554082 -0.0848859 0)
(0.0888584 -0.0103474 0)
(0.0286064 0.000193119 0)
(0.091974 -0.00555279 0)
(-0.0231023 -0.0199763 0)
(0.16977 -0.0586806 0)
(-0.0821647 -0.279154 0)
(0.573916 0.0718036 0)
(-0.00838071 0.0229162 0)
(0.190397 0.0237583 0)
(0.215728 -0.0890185 0)
(-0.507179 0.106664 0)
(-0.456635 -0.0454054 0)
(-0.306043 0.134963 0)
(0.540456 -0.099424 0)
(0.235061 -0.100538 0)
(0.0596488 -0.0252441 0)
(-0.0094945 0.00374455 0)
(0.015163 0.00427645 0)
(0.0227012 0.00159475 0)
(0.0188394 0.000488865 0)
(0.0172125 0.000773446 0)
(0.0122864 -0.00052825 0)
(0.00886557 0.000831199 0)
(0.0202852 0.00185655 0)
(0.0257302 -0.000165752 0)
(0.0250194 0.000516539 0)
(0.0247617 -0.00043879 0)
(0.0210163 -0.000403671 0)
(0.0184742 -0.000262598 0)
(0.017155 -0.000151549 0)
(0.0165699 -8.69683e-05 0)
(0.016314 -8.25377e-05 0)
(0.016035 -0.000142068 0)
(0.0157145 -0.000206114 0)
(0.0157997 -0.000241145 0)
(0.0166149 -0.000301054 0)
(0.0192154 -8.09745e-05 0)
(0.0324842 0.00297861 0)
(0.0753729 0.00783763 0)
(0.10287 0.0112051 0)
(0.0475916 -0.0318864 0)
(-0.13346 -0.0482059 0)
(-0.129051 -0.0516303 0)
(0.21495 0.141176 0)
(0.0434497 -0.0391652 0)
(0.0190577 -0.00114705 0)
(0.0011773 0.00117743 0)
(0.0405323 -0.00111327 0)
(-0.0337135 -0.0107354 0)
(0.000423834 -0.026246 0)
(-0.33635 -0.17216 0)
(-0.883689 -0.0494597 0)
)
;

boundaryField
{
    AirInlet
    {
        type            fixedValue;
        value           uniform (0.1 0 0);
    }
    WaterInlet
    {
        type            fixedValue;
        value           uniform (0.1 0 0);
    }
    ChannelWall
    {
        type            fixedValue;
        value           uniform (0 0 0);
    }
    Outlet
    {
        type            pressureInletOutletVelocity;
        value           nonuniform List<vector> 
15
(
(0.514765 0.00864528 0)
(0.393331 -0.071744 0)
(0.0737254 0.061042 0)
(-0.837359 -0 0)
(-0.355813 0 0)
(-0.27715 0 0)
(-0.435145 0 0)
(-0.236681 0 0)
(-0.160035 0 0)
(-0.16136 0 0)
(0.494723 0.151974 0)
(0.637259 0.133825 0)
(0.586051 -0.0284029 0)
(0.573916 0.0718036 0)
(-0.799601 -0 0)
)
;
    }
    FrontAndBack
    {
        type            empty;
    }
}


// ************************************************************************* //
