/*--------------------------------*- C++ -*----------------------------------*\
| =========                 |                                                 |
| \\      /  F ield         | OpenFOAM: The Open Source CFD Toolbox           |
|  \\    /   O peration     | Version:  2.3.0                                 |
|   \\  /    A nd           | Web:      www.OpenFOAM.org                      |
|    \\/     M anipulation  |                                                 |
\*---------------------------------------------------------------------------*/
FoamFile
{
    version     2.0;
    format      ascii;
    class       volScalarField;
    location    "1.5";
    object      alpha.water;
}
// * * * * * * * * * * * * * * * * * * * * * * * * * * * * * * * * * * * * * //

dimensions      [0 0 0 0 0 0 0];

internalField   nonuniform List<scalar> 
2268
(
1
1
1
0.999999
0.999999
1
1
1
1
0.999999
0.999999
1
1
1
1
0.981861
0.974579
0.974579
0.977193
0.997336
0.99958
0.991242
0.988214
0.999999
0.999999
1
0.999999
1
1
1
0.999999
0.999999
0.999999
1
1
1
1
0.999112
0.976875
0.97502
0.980295
0.995024
0.999568
0.99961
0.998918
0.988214
1
1
1
1
1
1
0.999999
0.999999
0.999999
1
1
1
1
1
0.997532
0.985578
0.985966
0.994721
0.999119
0.99961
0.99961
0.99961
0.988517
1
1
1
1
1
1
1
1
0.999999
1
1
1
1
0.999973
0.999788
0.999682
0.999915
0.999797
0.999652
0.999264
0.999507
0.99959
0.99415
1
1
1
1
1
1
0.999999
0.999999
0.999999
1
1
1
1
1
1
1
1
0.999679
0.998615
0.998013
0.998659
0.999592
0.999672
1
1
1
1
1
1
0.999999
0.999999
0.999999
1
1
1
1
1
1
1
1
0.998298
0.988749
0.986309
0.997609
0.999648
0.999693
1
1
1
0.999999
0.999999
0.999999
0.999999
0.999999
0.999999
1
1
1
1
1
1
1
1
0.987814
0.972079
0.982456
0.999489
0.999698
0.999695
1
0.999998
0.999997
0.999996
0.999998
0.999998
0.999999
0.999999
0.999999
1
1
1
1
1
1
1
0.998914
0.939637
0.919286
0.981086
0.999515
0.999706
0.99971
0.992076
0.992115
0.992168
0.993838
0.99499
0.994967
0.994963
0.994986
0.911269
0.856489
0.943671
0.954506
0.936138
0.907863
0.907859
0.907863
0.9092
0.924233
0.939266
0.992309
0.994923
0.994932
0.994987
0.995028
0.994982
0.994975
0.995003
0.831642
0.607195
0.655207
0.920254
0.95179
0.920783
0.907855
0.907872
0.907873
0.908119
0.960897
0.994663
0.994902
0.994956
0.995028
0.995038
0.995008
0.994972
0.91755
0.617591
0.601774
0.601495
0.714116
0.950542
0.960117
0.95494
0.940035
0.9079
0.909325
0.960897
0.994599
0.994758
0.994884
0.994966
0.994819
0.984557
0.923229
0.693583
0.601855
0.601644
0.601608
0.66661
0.958668
0.960662
0.960856
0.960851
0.940444
0.950131
0.960897
0.988989
0.991206
0.994278
0.994543
0.955876
0.760514
0.661978
0.66286
0.684599
0.754971
0.636288
0.798226
0.96024
0.96081
0.960836
0.960863
0.960897
0.960916
0.960896
0.806548
0.663776
0.751136
0.948593
0.875785
0.669511
0.661978
0.672384
0.814858
0.815049
0.81386
0.665634
0.472081
0.806143
0.96088
0.960883
0.960916
0.960935
0.960962
0.757983
0.342253
0.279431
0.495138
0.779825
0.803695
0.792506
0.814712
0.815072
0.815086
0.745615
0.375981
0.36967
0.401075
0.832306
0.960886
0.960935
0.96104
0.961148
0.992327
0.675204
0.177061
0.207499
0.582726
0.808245
0.811053
0.815072
0.815083
0.815072
0.573844
0.36967
0.36967
0.36967
0.513895
0.642255
0.903343
0.960935
0.957289
0.99999
0.999979
0.999959
0.999959
0.999973
0.999982
0.99999
0.999994
0.999996
0.999998
0.999998
0.999999
1
0.999999
0.999999
1
0.96591
0.919286
0.918932
0.936466
0.994914
0.999612
0.999762
0.999932
0.999884
0.999778
0.999763
0.999845
0.999886
0.99993
0.999955
0.999969
0.999978
0.999982
0.999985
1
0.999991
0.999994
0.999996
0.953939
0.918973
0.918969
0.918955
0.979766
0.99907
0.999577
0.909307
0.862094
0.851042
0.924618
0.976237
0.987371
0.998957
0.999336
0.999545
0.999659
0.999728
0.99977
0.999794
0.99984
0.999865
0.999601
0.996958
0.994825
0.991669
0.972322
0.978727
0.990582
0.989915
0.305762
0.196707
0.187295
0.324344
0.424944
0.475572
0.660407
0.827504
0.917226
0.960584
0.981536
0.989751
0.99218
0.99345
0.992334
0.985148
0.977145
0.964928
0.953034
0.941816
0.901785
0.799201
0.6535
0.0237793
0.0241878
0.0239301
0.0209442
0.0166391
0.0266284
0.0428466
0.123225
0.228256
0.331617
0.424955
0.483463
0.506631
0.516244
0.495133
0.436291
0.405477
0.373779
0.286666
0.181161
0.133302
0.089961
0.0454218
0.02372
0.0237793
0.040353
0.01228
0.0118017
0.0288493
0.00268903
0.00041838
0.000393034
0.000412619
0.000393398
0.000554543
0.0025409
0.00470925
0.00518882
0.00586931
0.00739304
0.0123857
0.0257764
0.0287154
0.014238
0.00137537
0.00065483
0.02372
0.038855
0.0491729
0.0377558
0.0104693
0.0282049
0.0248554
0.00254665
0.000266268
0.000399724
0.00282879
0.00363914
0.00393183
0.00451015
0.00492151
0.00624835
0.0224398
0.031039
0.0304339
0.015916
0.00116859
0.000619821
0.000530684
0.0243497
0.0487706
0.0491729
0.0486395
0.00988378
0.0189614
0.0174465
0.00211549
0.000117687
0.00132547
0.00897333
0.00852144
0.00727417
0.00757283
0.00727879
0.000982068
3.67295e-07
0.00250672
0.0100677
0.00708485
0.000761836
0.000530684
0.000518513
0.0292393
0.0416303
0.0442271
0.0197455
0.00316413
1.73281e-05
3.32389e-05
0.000243775
0.000107984
0.00122082
0.000929834
2.74205e-09
3.02186e-09
6.24074e-09
1.64696e-08
2.41993e-08
4.92141e-08
3.66618e-07
0.000296565
0.0044967
0.00269212
0.00129256
0.00137949
0.00355387
7.88242e-07
7.28609e-06
0.000189316
0.00031609
1.44412e-05
4.10242e-05
0.000253869
0.000107943
1.31702e-09
1.42388e-09
2.22058e-09
2.54575e-09
3.02343e-09
4.87098e-09
1.29597e-08
2.28347e-07
3.26099e-06
0.00111023
0.00346605
0.00342895
0.00336948
0.000551248
6.2707e-07
6.24257e-07
8.51331e-07
0.000306926
1.68191e-07
2.12669e-07
4.55572e-05
7.42682e-05
1.30668e-09
1.28061e-09
1.31751e-09
2.60774e-09
8.42415e-09
6.09361e-09
1.24492e-08
1.37665e-07
5.74385e-07
5.29772e-06
0.000290197
0.00126634
0.00200597
0.000728822
9.46961e-06
6.2707e-07
1.43956e-06
1.09493e-05
3.76475e-09
5.50762e-09
2.28928e-09
1.49402e-07
1.15668e-09
1.5331e-09
2.34722e-09
1.92432e-09
4.98322e-09
1.46514e-08
5.25089e-09
1.97064e-09
8.01251e-07
3.8928e-06
4.56516e-06
7.12379e-06
1.80575e-05
1.88854e-05
5.06376e-06
2.0663e-06
6.95808e-07
2.24664e-06
1.57414e-06
3.04619e-09
2.02459e-09
1.18357e-09
1.18263e-09
1.82001e-09
3.57935e-09
3.68291e-09
2.99071e-09
1.03446e-09
7.07755e-10
6.2164e-10
6.54558e-10
1.4675e-09
6.39505e-09
7.03905e-08
1.37824e-06
1.51869e-06
2.94767e-07
5.00336e-07
3.20811e-07
5.11156e-07
2.22208e-06
1.55297e-06
2.84736e-09
2.82327e-09
2.81181e-09
2.82366e-09
2.95255e-09
3.6475e-09
3.68327e-09
2.43745e-09
1.00675e-09
6.47081e-10
5.75546e-10
4.43207e-10
3.4019e-10
8.39895e-10
4.87534e-08
8.70377e-08
8.63108e-08
5.76222e-08
4.64847e-08
4.89658e-08
1.59337e-07
5.41508e-09
3.73257e-08
3.98357e-09
3.48776e-09
4.49858e-09
3.85419e-09
2.46202e-09
2.90083e-09
3.31192e-09
2.93766e-09
2.02877e-09
1.04445e-09
5.59762e-10
4.32481e-10
2.99272e-10
2.39148e-10
1.77154e-09
4.9591e-09
5.50745e-09
5.71594e-09
4.08058e-09
7.30233e-09
2.98049e-07
4.10882e-09
3.99021e-09
3.95591e-09
4.23405e-09
4.08458e-09
2.32779e-09
1.97459e-09
2.3147e-09
2.8823e-09
3.00241e-09
3.00254e-09
2.03183e-09
8.68539e-10
4.41365e-10
2.96147e-10
2.17146e-10
1.95629e-10
3.21097e-10
2.79958e-10
1.57496e-10
4.199e-10
1.18318e-09
1.52406e-06
5.41514e-09
5.28554e-08
5.49552e-08
2.61314e-09
2.52663e-09
1.96162e-09
1.5414e-09
1.45066e-09
1.84784e-09
2.60779e-09
2.78073e-09
2.38985e-09
1.3711e-09
6.67633e-10
3.63509e-10
1.83797e-10
1.07737e-10
8.00077e-11
5.73745e-11
5.62822e-11
5.3858e-11
1.57094e-10
1.53547e-05
5.76282e-06
5.39704e-08
2.25302e-07
5.30559e-09
4.37258e-09
1.94661e-09
1.4229e-09
1.2449e-09
1.14579e-09
1.20317e-09
1.34487e-09
1.3849e-09
1.16083e-09
8.02155e-10
4.2712e-10
1.91803e-10
8.9468e-11
5.92469e-11
4.64076e-11
3.3601e-11
2.50724e-11
6.70593e-11
3.58771e-05
3.67577e-05
8.07117e-06
1.82134e-09
1.74326e-09
3.92211e-09
1.63289e-09
1.58482e-09
1.24906e-09
1.03957e-09
9.90075e-10
9.30357e-10
8.80059e-10
7.54076e-10
5.40672e-10
3.15445e-10
1.60213e-10
8.36794e-11
5.43905e-11
3.42635e-11
2.31465e-11
1.8838e-11
1.85745e-11
1.35272e-05
3.73185e-05
3.72799e-05
3.21427e-06
1.73727e-09
1.73141e-09
1.75307e-09
1.91022e-09
1.53484e-09
1.00853e-09
8.52836e-10
7.55164e-10
6.64635e-10
5.29909e-10
3.562e-10
2.04534e-10
1.06173e-10
7.08751e-11
3.89034e-11
2.44627e-11
1.63461e-11
1.14086e-11
9.18224e-12
1.10164e-07
3.73185e-05
3.24229e-05
6.38089e-06
7.93209e-08
1.72301e-09
1.71736e-09
1.83743e-09
1.62928e-09
1.06868e-09
7.20739e-10
5.46758e-10
4.15901e-10
2.98752e-10
1.77871e-10
1.16994e-10
7.64711e-11
3.99079e-11
2.4917e-11
1.67668e-11
1.13994e-11
7.68158e-12
5.21692e-12
3.51465e-09
6.67814e-06
3.5894e-06
2.35876e-06
4.83866e-07
1.24983e-08
1.17818e-09
1.16258e-09
1.1541e-09
8.42657e-10
5.44083e-10
3.40027e-10
2.08154e-10
1.4137e-10
1.08025e-10
5.80471e-11
3.52422e-11
2.33642e-11
1.57321e-11
1.04628e-11
6.82698e-12
4.42188e-12
2.8429e-12
1.64184e-10
3.5487e-09
8.65673e-09
3.1061e-09
7.9535e-08
2.37057e-08
3.33504e-09
1.1351e-09
7.32417e-10
4.90823e-10
2.8314e-10
1.92036e-10
1.13382e-10
6.98554e-11
4.45476e-11
2.90704e-11
1.91692e-11
1.26041e-11
8.20212e-12
5.26547e-12
3.33152e-12
2.0825e-12
1.30991e-12
5.96e-11
1.00865e-10
4.68256e-10
2.81016e-10
3.57415e-10
1.36616e-09
1.07733e-09
7.82421e-10
4.46682e-10
2.43558e-10
1.06497e-10
7.30623e-11
4.84341e-11
3.2339e-11
2.16338e-11
1.43593e-11
9.37734e-12
5.99952e-12
3.75797e-12
2.30774e-12
1.39283e-12
8.29435e-13
4.94187e-13
5.46352e-11
5.73667e-11
8.50609e-11
1.55827e-10
3.04215e-10
4.51979e-10
4.31831e-10
3.22426e-10
1.28061e-10
7.69293e-11
5.12718e-11
3.45726e-11
2.34392e-11
1.56987e-11
1.02764e-11
6.54586e-12
4.055e-12
2.44651e-12
1.44125e-12
8.31615e-13
4.71736e-13
2.64553e-13
1.48677e-13
3.65193e-11
3.97276e-11
6.13163e-11
1.4763e-10
2.11733e-10
1.84111e-10
1.23186e-10
7.71458e-11
5.18378e-11
3.55068e-11
2.42456e-11
1.62795e-11
1.06678e-11
6.7896e-12
4.18581e-12
2.4983e-12
1.44549e-12
8.12916e-13
4.45888e-13
2.39477e-13
1.26591e-13
6.66253e-14
3.64288e-14
1.87521e-11
4.67338e-11
5.8882e-11
7.14356e-11
7.11112e-11
6.1703e-11
4.72506e-11
3.34714e-11
2.30793e-11
1.55534e-11
1.02241e-11
6.52812e-12
4.03274e-12
2.40384e-12
1.38131e-12
7.65832e-13
4.10656e-13
2.13714e-13
1.08395e-13
5.38653e-14
2.65367e-14
1.36206e-14
8.94215e-15
6.80663e-12
2.17197e-11
2.87785e-11
3.10458e-11
2.9249e-11
2.45304e-11
1.82916e-11
1.27953e-11
8.59662e-12
5.57545e-12
3.48715e-12
2.09835e-12
1.21235e-12
6.71961e-13
3.57526e-13
1.83002e-13
9.04195e-14
4.33092e-14
2.02219e-14
9.32347e-15
4.51968e-15
3.0645e-15
4.39666e-15
1.9685e-12
7.2618e-12
1.03518e-11
1.11506e-11
1.00403e-11
7.94679e-12
5.74705e-12
3.91321e-12
2.5368e-12
1.57011e-12
9.27575e-13
5.22628e-13
2.80763e-13
1.43925e-13
7.05508e-14
3.31803e-14
1.50369e-14
6.60454e-15
2.85153e-15
1.31133e-15
9.5214e-16
1.68599e-15
4.42799e-15
4.8559e-13
1.92318e-12
2.71164e-12
2.84979e-12
2.51249e-12
1.95734e-12
1.39352e-12
9.23892e-13
5.75363e-13
3.37891e-13
1.87449e-13
9.83439e-14
4.88673e-14
2.30542e-14
1.03627e-14
4.45803e-15
1.84652e-15
7.47629e-16
3.2695e-16
2.60487e-16
5.70057e-16
1.72271e-15
5.08819e-15
1.03644e-13
4.14748e-13
5.65322e-13
5.74834e-13
4.94216e-13
3.76864e-13
2.61041e-13
1.66663e-13
9.88181e-14
5.46467e-14
2.82755e-14
1.37273e-14
6.27286e-15
2.70885e-15
1.1109e-15
4.35359e-16
1.65607e-16
6.87523e-17
6.02686e-17
1.6019e-16
5.53583e-16
1.84101e-15
5.69153e-15
1.90743e-14
7.39709e-14
9.56893e-14
9.3318e-14
7.73431e-14
5.68548e-14
3.7773e-14
2.29184e-14
1.27913e-14
6.59837e-15
3.15789e-15
1.40776e-15
5.87367e-16
2.30655e-16
8.5821e-17
3.07194e-17
1.19979e-17
1.12281e-17
3.53005e-17
1.39206e-16
5.2436e-16
1.84272e-15
6.02905e-15
2.98703e-15
1.1004e-14
1.32988e-14
1.22415e-14
9.6481e-15
6.7366e-15
4.23119e-15
2.40882e-15
1.25053e-15
5.94829e-16
2.60442e-16
1.05548e-16
3.98491e-17
1.41195e-17
4.76191e-18
1.72173e-18
1.59921e-18
5.74393e-18
2.58899e-17
1.11354e-16
4.47441e-16
1.67814e-15
5.88157e-15
3.96561e-16
1.37073e-15
1.52812e-15
1.31365e-15
9.71563e-16
6.35272e-16
3.71994e-16
1.96149e-16
9.34533e-17
4.04196e-17
1.59745e-17
5.814e-18
1.96514e-18
6.24771e-19
2.05409e-19
1.6738e-19
6.47448e-19
3.33187e-18
1.65425e-17
7.69104e-17
3.32866e-16
1.34243e-15
5.06683e-15
4.44336e-17
1.43878e-16
1.47126e-16
1.17214e-16
8.05326e-17
4.87883e-17
2.62567e-17
1.26001e-17
5.41299e-18
2.09522e-18
7.37016e-19
2.37871e-19
7.12917e-20
2.11358e-20
1.29566e-20
4.77375e-20
2.74486e-19
1.58005e-18
8.65576e-18
4.40113e-17
2.06664e-16
9.0034e-16
3.66854e-15
4.19032e-18
1.27723e-17
1.20143e-17
8.84443e-18
5.60304e-18
3.10593e-18
1.51377e-18
6.50667e-19
2.47991e-19
8.45631e-20
2.60817e-20
7.3662e-21
1.97906e-21
8.26445e-22
2.2765e-21
1.35546e-20
8.71666e-20
5.69712e-19
3.49998e-18
1.96487e-17
1.00972e-16
4.79239e-16
2.12296e-15
3.34275e-19
9.67004e-19
8.45547e-19
5.75266e-19
3.34675e-19
1.68083e-19
7.32116e-20
2.77685e-20
9.24118e-21
2.73029e-21
7.26102e-22
1.78188e-22
5.25005e-23
7.93502e-23
4.11299e-22
2.56456e-21
1.8751e-20
1.42931e-19
1.00203e-18
6.32179e-18
3.61752e-17
1.90079e-16
9.29643e-16
2.24973e-20
6.37398e-20
5.24482e-20
3.32517e-20
1.76905e-20
8.00479e-21
3.07935e-21
1.01403e-21
2.89203e-22
7.25572e-23
1.63452e-23
3.74454e-24
2.68517e-24
9.6662e-24
4.71771e-23
2.68629e-22
2.35292e-21
2.16611e-20
1.7862e-19
1.30544e-18
8.55326e-18
5.10008e-17
2.81353e-16
1.29246e-21
3.68545e-21
2.91466e-21
1.73713e-21
8.50629e-22
3.43959e-22
1.15481e-22
3.24334e-23
7.74842e-24
1.6091e-24
3.08338e-25
1.10781e-25
2.43585e-25
8.61738e-25
3.00102e-24
1.24044e-23
1.35351e-22
1.58028e-21
1.60909e-20
1.4279e-19
1.11879e-18
7.86408e-18
5.04701e-17
6.39693e-23
1.89163e-22
1.47508e-22
8.41176e-23
3.81753e-23
1.37886e-23
3.9837e-24
9.31241e-25
1.80138e-25
2.99727e-26
6.11596e-27
7.59096e-27
2.05247e-26
5.32417e-26
1.0336e-25
2.00576e-25
2.34741e-24
3.69286e-23
5.01574e-22
5.85911e-21
5.95661e-20
5.34426e-19
4.30284e-18
2.86399e-24
8.66081e-24
6.89756e-24
3.86359e-24
1.63634e-24
5.2527e-25
1.28016e-25
2.39155e-26
3.53094e-27
4.78242e-28
2.73851e-28
6.77483e-28
1.41297e-27
2.38361e-27
2.14202e-27
1.10707e-27
4.61156e-27
1.10053e-25
2.34643e-24
4.26157e-23
6.66999e-22
9.11084e-21
1.10069e-19
1.30215e-25
3.20929e-25
2.93569e-25
1.6571e-25
6.68732e-26
1.91561e-26
3.85478e-27
5.34707e-28
5.30074e-29
1.03736e-29
2.44618e-29
5.45323e-29
7.91094e-29
7.88264e-29
2.60221e-29
4.1252e-30
4.19372e-31
4.29851e-31
2.29943e-29
1.12311e-27
4.73776e-26
1.75535e-24
5.80368e-23
0.999731
0.999753
0.999753
0.999753
0.999682
0.999732
0.999756
0.999703
0.976378
0.945818
0.940194
0.94107
0.519448
0.402555
0.255818
0.140331
0.0214859
0.0168824
0.0110194
0.0197101
0.000592807
0.000373072
0.00358809
0.00790529
0.000431408
0.000201074
0.00105388
0.000605164
0.000411598
6.24848e-05
0.000133869
0.000260367
0.000113633
2.96456e-05
6.01864e-05
0.000126897
1.02882e-05
1.2909e-05
3.00601e-05
5.46174e-05
3.01222e-06
5.33914e-06
1.34093e-05
2.13051e-05
1.10296e-06
1.86968e-06
4.79064e-06
8.42839e-06
3.42833e-07
7.30461e-07
1.83044e-06
3.91165e-06
9.52929e-08
2.39832e-07
6.06897e-07
1.83336e-06
2.38428e-08
6.81052e-08
1.53433e-07
5.87819e-07
3.53874e-09
1.488e-08
7.09539e-08
1.359e-07
5.65688e-10
3.39414e-09
7.57961e-09
6.06977e-09
1.29935e-10
1.91228e-10
2.35116e-10
5.36321e-10
2.11702e-11
3.25459e-11
4.60478e-11
6.08134e-11
1.10659e-11
1.29336e-11
1.74847e-11
1.61274e-11
4.23838e-12
4.07713e-12
5.27071e-12
9.5219e-12
2.2553e-12
1.81456e-12
1.58093e-12
1.70326e-12
1.03722e-12
8.19061e-13
6.65593e-13
5.79437e-13
3.8217e-13
2.9655e-13
2.36804e-13
1.9953e-13
1.11372e-13
8.50495e-14
6.8007e-14
5.86051e-14
2.72151e-14
2.18132e-14
1.94298e-14
1.96311e-14
8.15968e-15
8.60473e-15
1.02935e-14
1.33028e-14
5.64073e-15
7.6301e-15
1.05591e-14
1.47047e-14
6.27046e-15
8.89365e-15
1.25761e-14
1.76599e-14
7.30979e-15
1.04565e-14
1.48775e-14
2.10177e-14
8.25566e-15
1.19246e-14
1.71439e-14
2.45165e-14
8.8627e-15
1.29923e-14
1.90106e-14
2.77968e-14
8.78819e-15
1.31359e-14
1.97236e-14
2.99029e-14
7.70678e-15
1.17964e-14
1.83687e-14
2.94289e-14
5.68806e-15
8.97931e-15
1.47588e-14
2.56707e-14
3.36924e-15
5.57355e-15
9.97898e-15
1.9507e-14
1.52631e-15
2.73409e-15
5.5866e-15
1.26593e-14
4.89512e-16
1.00602e-15
2.4645e-15
6.56459e-15
9.86963e-17
2.53961e-16
7.68719e-16
2.42241e-15
1.10182e-17
3.94462e-17
1.49325e-16
5.83137e-16
5.28944e-19
2.86936e-18
1.4266e-17
8.14995e-17
1.28397e-21
1.7498e-20
2.35636e-19
4.37403e-18
0.999703
0.801826
0.167223
0.100441
0.242259
0.46662
0.429244
0.584831
0.664474
0.574603
0.48309
0.482854
0.478172
0.407561
0.131713
0.160881
0.263888
0.509906
0.514151
0.912723
0.35054
0.0798343
0.0576648
0.126381
0.254742
0.239474
0.100781
0.134822
0.389482
0.483656
0.474039
0.240256
0.136462
0.129296
0.186456
0.0904131
0.0826681
0.0820214
0.371742
0.0592138
0.0619968
0.0523888
0.0666764
0.170547
0.230456
0.0361899
0.0280786
0.173108
0.279412
0.204276
0.13542
0.13532
0.180236
0.200173
0.19038
0.0820214
0.0816699
0.082917
0.0165294
0.0174573
0.0097668
0.0111875
0.0797827
0.108236
0.0289281
0.0266288
0.0291595
0.133148
0.211089
0.211089
0.210427
0.208035
0.203279
0.200176
0.0829196
0.0816699
0.0293513
0.00682321
0.00681916
0.00805579
0.00873601
0.00884453
0.025011
0.0310433
0.0265141
0.0263565
0.0386783
0.141
0.211089
0.184469
0.137293
0.150234
0.194575
0.158914
0.113638
0.0023944
0.0032988
0.00526372
0.00702274
0.0143844
0.0443592
0.0406285
0.0265896
0.0263564
0.0263523
0.026502
0.0263514
0.0404868
0.0291434
0.00150713
0.00159737
0.0402484
0.0750212
0.0663782
0.000947302
0.00190597
0.00471728
0.0317852
0.0451881
0.0454142
0.0454142
0.0454142
0.0453409
0.0325965
0.0286814
0.0281237
0.0113087
0.00151817
0.00145968
0.000555468
0.000231502
0.00278676
0.00405801
0.000448344
0.00101941
0.00633793
0.0200479
0.0181519
0.0306482
0.0432312
0.045394
0.0447622
0.043446
0.0376321
0.0220682
0.00705412
0.00742426
0.00610632
0.00040468
0.000115846
0.000300175
0.000120248
0.000215966
0.000855992
0.00436054
0.00243083
6.62399e-05
6.18659e-06
6.15443e-06
0.00532483
0.0146611
0.0139026
0.00244941
3.59406e-05
3.62573e-05
4.18052e-05
0.00141181
0.000429893
8.73174e-05
0.000194772
0.000119548
0.000100545
0.000298296
0.000304669
7.23602e-05
6.19936e-06
6.04208e-06
5.63881e-06
6.16623e-06
1.03154e-05
2.20815e-05
3.04897e-05
3.30482e-05
3.65526e-05
4.20718e-05
4.81431e-05
0.000432261
8.69716e-05
8.70167e-05
8.77267e-05
3.6477e-05
7.01448e-05
9.35804e-05
3.54617e-05
1.62507e-05
5.51453e-06
5.07472e-06
8.75108e-05
0.000156132
6.96931e-05
3.30482e-05
4.52598e-05
0.000128025
0.000126876
7.55021e-05
0.000125202
8.69996e-05
8.69644e-05
8.87135e-05
1.6096e-05
3.18285e-05
3.8826e-05
1.52512e-05
6.32541e-06
5.02323e-06
4.99169e-06
2.25127e-05
0.000104021
2.18636e-05
5.61326e-05
0.000236276
0.000261969
0.000262325
0.000248599
8.76363e-05
8.69684e-05
9.65758e-05
0.000173233
9.4143e-06
2.01509e-05
1.92027e-05
6.57939e-06
5.14999e-06
4.99384e-06
4.9671e-06
7.25169e-06
5.45496e-06
2.43509e-05
0.000262338
0.00026273
0.000262773
0.000261726
0.000256713
0.000214635
9.12548e-05
0.000178469
0.00017849
1.00757e-05
2.13648e-05
1.96117e-05
2.40254e-05
2.33096e-05
4.9883e-06
4.93768e-06
4.93677e-06
5.40696e-06
0.000198684
0.000263494
0.000263494
0.000252381
0.000123352
8.88548e-05
0.000125927
0.000172526
0.000178478
0.000177536
5.71578e-06
1.20955e-05
1.87079e-05
2.82055e-05
2.83161e-05
2.14396e-05
4.96195e-06
4.93478e-06
7.18199e-05
0.000263042
0.000264442
0.000227228
9.7104e-06
1.12588e-08
2.58355e-08
6.91825e-05
9.82336e-05
3.54324e-05
4.4059e-05
2.74672e-07
6.23593e-07
1.23978e-05
2.83161e-05
2.83161e-05
2.83161e-05
1.26245e-05
4.96172e-06
5.93093e-05
0.000259321
0.000244196
8.00544e-06
1.12586e-08
1.1253e-08
1.09293e-08
1.17711e-08
2.15504e-08
1.62438e-07
4.54153e-05
1.36233e-08
4.27553e-08
2.00938e-06
2.3065e-05
2.83161e-05
2.83118e-05
2.83076e-05
1.99498e-05
3.86356e-05
6.28012e-05
2.30038e-05
1.3225e-08
1.12555e-08
1.09291e-08
1.03892e-08
2.50633e-08
4.60709e-08
1.38333e-05
0.000124074
1.30538e-09
6.83852e-09
2.50165e-08
1.82999e-06
1.24171e-05
2.48059e-05
2.77903e-05
1.93562e-05
2.36027e-06
2.28778e-07
2.26852e-07
2.26246e-07
2.57471e-07
1.1456e-07
6.13168e-09
1.87795e-07
1.33705e-07
4.01478e-05
0.000124074
1.37255e-10
4.62901e-10
2.29282e-09
1.82937e-08
6.97806e-08
2.02293e-06
5.79944e-06
3.6794e-06
1.11541e-06
3.59193e-07
6.09224e-07
1.36639e-06
1.38848e-06
9.37917e-07
2.15808e-09
2.04842e-09
9.83331e-08
0.000107911
0.00012406
1.5891e-11
4.97775e-11
1.99594e-10
1.4522e-09
4.40087e-09
1.06266e-08
1.5264e-08
2.34303e-07
1.21702e-06
4.00263e-07
3.87672e-07
1.36992e-06
1.38843e-06
2.5312e-07
2.04986e-09
1.94687e-09
5.7932e-10
0.000111529
0.000123977
7.00913e-12
1.17766e-11
2.5298e-11
1.16783e-10
3.34662e-10
7.72429e-10
1.05216e-09
1.42243e-07
9.67e-07
9.59876e-07
2.56056e-07
2.40273e-07
1.71534e-07
1.47907e-08
4.01959e-09
3.85677e-09
5.17504e-10
1.30009e-05
0.00012379
2.65778e-12
8.31428e-12
7.615e-12
1.87792e-11
4.22235e-11
8.6538e-11
1.08161e-10
2.64402e-09
1.42799e-07
8.54671e-07
5.14238e-07
3.64082e-08
4.07798e-09
3.93079e-09
4.40094e-09
2.93683e-09
4.68641e-10
5.16986e-10
0.000123217
6.06636e-13
1.54859e-12
5.15035e-12
6.76899e-12
1.24364e-11
1.82674e-11
2.18606e-11
4.29865e-11
2.86212e-10
9.71489e-08
4.40676e-07
2.85503e-07
3.03495e-08
2.73284e-09
2.61834e-09
1.0575e-09
4.49877e-10
4.66596e-10
9.62307e-05
1.89936e-13
3.44499e-13
1.03003e-12
3.79542e-12
8.68933e-12
1.05151e-11
1.48499e-11
1.93988e-11
3.40498e-11
1.65383e-10
5.1727e-08
2.03928e-07
1.46429e-07
1.59512e-08
4.8695e-10
4.47533e-10
4.4286e-10
4.50906e-10
1.43523e-05
6.75063e-14
1.33229e-13
3.55393e-13
1.11338e-12
3.09662e-12
6.77768e-12
1.21083e-11
1.62492e-11
2.02224e-11
3.31898e-11
8.94029e-11
1.13511e-08
2.62952e-08
1.60371e-08
2.24739e-09
4.30783e-10
4.34225e-10
4.47925e-06
6.29403e-06
3.7416e-14
9.30183e-14
2.47e-13
6.66595e-13
1.70674e-12
3.88227e-12
7.98279e-12
1.43963e-11
2.6044e-11
2.92107e-11
3.88901e-11
5.81619e-11
9.36323e-11
2.86326e-10
4.27681e-10
4.21655e-10
4.27676e-10
2.94927e-05
6.40644e-05
3.59543e-14
9.57326e-14
2.49062e-13
6.27493e-13
1.49037e-12
3.24151e-12
6.52539e-12
1.21131e-11
2.1986e-11
3.58966e-11
4.60223e-11
5.35547e-11
9.90976e-11
1.831e-10
4.18605e-10
4.11674e-10
4.20008e-10
3.404e-05
7.25579e-05
4.22453e-14
1.12362e-13
2.85741e-13
6.92111e-13
1.56598e-12
3.26105e-12
6.28238e-12
1.13612e-11
1.99318e-11
3.32521e-11
5.22392e-11
8.1827e-11
1.22858e-10
1.81192e-10
4.01281e-10
4.03316e-10
4.11017e-10
2.39454e-05
7.27477e-05
5.1356e-14
1.36191e-13
3.40513e-13
8.0292e-13
1.75725e-12
3.53744e-12
6.58714e-12
1.15578e-11
1.96446e-11
3.25089e-11
5.21348e-11
8.11473e-11
1.13902e-10
1.86148e-10
5.53696e-10
4.22908e-10
4.22217e-10
3.20647e-05
7.28471e-05
6.32019e-14
1.68311e-13
4.1217e-13
9.43622e-13
2.00206e-12
3.90598e-12
7.05949e-12
1.20613e-11
1.99549e-11
3.22633e-11
5.08301e-11
7.79979e-11
1.10564e-10
3.54343e-10
1.24978e-09
6.51089e-10
4.32422e-10
4.88205e-05
7.28471e-05
8.03704e-14
2.18028e-13
5.16949e-13
1.129e-12
2.29418e-12
4.31091e-12
7.52458e-12
1.24405e-11
1.99221e-11
3.15532e-11
5.01753e-11
8.79916e-11
2.14536e-10
9.35316e-10
1.96905e-09
7.1049e-10
4.48512e-10
5.20465e-05
7.28471e-05
1.07974e-13
3.07098e-13
7.0513e-13
1.45368e-12
2.79691e-12
5.02236e-12
8.41333e-12
1.33298e-11
2.04403e-11
3.1758e-11
5.44186e-11
1.69903e-10
3.37297e-10
2.11965e-09
2.6639e-09
7.21658e-10
1.19561e-05
5.64205e-05
5.13515e-05
1.4901e-13
4.60688e-13
1.05921e-12
2.12204e-12
3.93049e-12
6.77856e-12
1.09284e-11
1.66592e-11
2.46511e-11
3.83146e-11
9.11855e-11
2.30229e-10
5.11429e-10
3.46201e-09
3.61301e-09
7.72539e-10
1.67692e-05
5.64205e-05
2.95216e-05
1.9428e-13
6.66755e-13
1.6214e-12
3.33334e-12
6.11789e-12
1.01701e-11
1.56791e-11
2.29921e-11
3.28408e-11
4.90212e-11
1.20268e-10
2.37676e-10
9.57154e-10
3.73197e-09
3.6162e-09
8.72405e-10
1.06774e-06
5.64205e-05
2.72858e-05
2.21325e-13
8.36598e-13
2.26221e-12
5.09592e-12
9.68165e-12
1.55911e-11
2.22176e-11
3.05041e-11
4.56105e-11
7.46583e-11
2.15989e-10
4.83949e-10
1.45822e-09
3.70471e-09
2.78326e-09
9.83138e-10
4.86758e-07
1.9835e-05
1.20301e-05
2.09324e-13
8.57692e-13
2.65912e-12
6.97745e-12
1.49038e-11
2.46533e-11
3.38023e-11
4.23038e-11
6.68932e-11
2.33399e-10
8.69102e-10
1.52654e-09
1.90695e-09
2.26692e-09
1.11455e-09
1.06147e-09
3.6928e-07
6.80825e-08
3.2919e-08
1.58875e-13
7.12577e-13
2.58734e-12
8.20271e-12
2.16477e-11
4.16461e-11
6.1344e-11
7.50327e-11
1.08656e-10
4.87712e-10
1.40946e-09
1.63519e-09
1.62168e-09
1.07595e-09
1.12366e-09
1.87371e-07
5.29699e-07
4.39537e-08
2.32612e-08
9.13732e-14
4.68498e-13
2.05112e-12
7.96519e-12
2.61283e-11
6.26411e-11
1.02883e-10
1.32208e-10
1.68112e-10
4.88059e-10
1.06356e-09
9.39822e-10
4.98334e-10
5.14238e-10
3.9045e-07
3.22275e-06
3.09001e-06
2.52452e-07
2.03965e-08
3.64002e-14
2.33032e-13
1.26114e-12
5.83669e-12
2.41723e-11
6.49492e-11
1.35074e-10
1.87718e-10
2.27979e-10
3.40162e-10
4.30239e-10
3.07505e-10
2.99277e-10
1.08304e-06
3.35716e-06
3.42948e-06
3.41585e-06
6.6121e-07
1.52429e-08
9.46821e-15
8.65568e-14
6.39496e-13
3.40078e-12
1.67758e-11
4.92771e-11
1.18918e-10
2.2129e-10
2.64526e-10
3.07063e-10
3.047e-10
2.99646e-10
2.99714e-10
1.61726e-06
3.42876e-06
3.42609e-06
3.42609e-06
4.55403e-07
1.16845e-08
1.51074e-15
2.31976e-14
2.42505e-13
1.62164e-12
8.44094e-12
2.60497e-11
8.43263e-11
2.86325e-10
5.79382e-10
4.43945e-10
4.01741e-10
2.14864e-09
3.00749e-10
2.84066e-07
2.06954e-06
3.09238e-06
1.33089e-06
7.67366e-08
1.07396e-08
1.25603e-16
3.70827e-15
5.6034e-14
4.99865e-13
3.30052e-12
1.24813e-11
6.82702e-11
2.32289e-10
6.44153e-10
8.15858e-10
1.1022e-09
4.14036e-09
6.6586e-09
6.79299e-09
4.25614e-08
2.10077e-07
1.85477e-08
1.07412e-08
1.07384e-08
)
;

boundaryField
{
    leftWall
    {
        type            zeroGradient;
    }
    rightWall
    {
        type            zeroGradient;
    }
    lowerWall
    {
        type            zeroGradient;
    }
    atmosphere
    {
        type            inletOutlet;
        inletValue      uniform 0;
        value           nonuniform List<scalar> 
46
(
0
0
0
0
0
0
0
0
0
0
0
0
0
0
0
0
0
0
0
0
0
0
0
0
0
0
0
0
0
0
0
3.30052e-12
1.24813e-11
6.82702e-11
2.32289e-10
6.44153e-10
8.15858e-10
1.1022e-09
4.14036e-09
6.6586e-09
6.79299e-09
4.25614e-08
2.10077e-07
1.85477e-08
1.07412e-08
1.07384e-08
)
;
    }
    defaultFaces
    {
        type            empty;
    }
}


// ************************************************************************* //
