/*--------------------------------*- C++ -*----------------------------------*\
| =========                 |                                                 |
| \\      /  F ield         | OpenFOAM: The Open Source CFD Toolbox           |
|  \\    /   O peration     | Version:  2.3.0                                 |
|   \\  /    A nd           | Web:      www.OpenFOAM.org                      |
|    \\/     M anipulation  |                                                 |
\*---------------------------------------------------------------------------*/
FoamFile
{
    version     2.0;
    format      ascii;
    class       surfaceScalarField;
    location    "1.5";
    object      phi;
}
// * * * * * * * * * * * * * * * * * * * * * * * * * * * * * * * * * * * * * //

dimensions      [0 3 -1 0 0 0 0];

internalField   nonuniform List<scalar> 
4432
(
-1.65073e-06
1.65073e-06
-3.01055e-07
-1.34968e-06
2.07081e-06
-2.37187e-06
4.67602e-06
-2.6052e-06
7.17216e-06
-2.49615e-06
9.46468e-06
-2.29252e-06
1.15575e-05
-2.09281e-06
1.34839e-05
-1.92638e-06
1.52705e-05
-1.78659e-06
1.6922e-05
-1.65154e-06
1.84159e-05
-1.49386e-06
1.97043e-05
-1.28846e-06
2.07258e-05
-1.02145e-06
2.13823e-05
-6.5651e-07
2.14558e-05
-7.35153e-08
2.0678e-05
7.77855e-07
1.92732e-05
1.40473e-06
1.73786e-05
1.89467e-06
1.50045e-05
2.37406e-06
1.19233e-05
3.08125e-06
7.62321e-06
4.30006e-06
2.67404e-06
4.94916e-06
2.67404e-06
-5.41151e-09
1.65613e-06
1.37651e-06
-2.73161e-06
3.4034e-06
-4.39876e-06
5.54975e-06
-4.75155e-06
7.65102e-06
-4.59743e-06
9.62584e-06
-4.26734e-06
1.14585e-05
-3.92548e-06
1.31635e-05
-3.6314e-06
1.47546e-05
-3.37762e-06
1.62308e-05
-3.12772e-06
1.75744e-05
-2.83742e-06
1.87532e-05
-2.46731e-06
1.97212e-05
-1.98951e-06
2.04203e-05
-1.35554e-06
2.0771e-05
-4.24218e-07
2.0642e-05
9.06871e-07
1.98734e-05
2.1733e-06
1.84206e-05
3.34749e-06
1.62536e-05
4.541e-06
1.32939e-05
6.041e-06
9.3736e-06
8.22034e-06
4.77799e-06
9.54476e-06
7.45203e-06
9.49917e-07
7.06206e-07
2.41957e-06
-4.20127e-06
4.12593e-06
-6.10512e-06
5.92639e-06
-6.55202e-06
7.72616e-06
-6.3972e-06
9.45454e-06
-5.99573e-06
1.10891e-05
-5.56005e-06
1.2635e-05
-5.1773e-06
1.40982e-05
-4.84081e-06
1.54742e-05
-4.50376e-06
1.67472e-05
-4.11033e-06
1.78901e-05
-3.61028e-06
1.88621e-05
-2.96145e-06
1.96052e-05
-2.09866e-06
2.00592e-05
-8.78181e-07
2.01743e-05
7.91777e-07
1.97265e-05
2.62108e-06
1.85419e-05
4.53209e-06
1.65425e-05
6.54038e-06
1.37302e-05
8.85337e-06
1.00952e-05
1.18553e-05
5.75917e-06
1.38808e-05
1.32112e-05
1.49767e-06
-7.91464e-07
2.99194e-06
-5.69555e-06
4.44521e-06
-7.55839e-06
5.96577e-06
-8.07259e-06
7.52377e-06
-7.9552e-06
9.05428e-06
-7.52625e-06
1.05337e-05
-7.03947e-06
1.19648e-05
-6.60837e-06
1.33497e-05
-6.22577e-06
1.46816e-05
-5.83561e-06
1.59445e-05
-5.37328e-06
1.71142e-05
-4.77995e-06
1.81539e-05
-4.00113e-06
1.90132e-05
-2.95797e-06
1.96439e-05
-1.50885e-06
1.99909e-05
4.44726e-07
1.98113e-05
2.80067e-06
1.88762e-05
5.46718e-06
1.71005e-05
8.31608e-06
1.45007e-05
1.14532e-05
1.10645e-05
1.52915e-05
6.64927e-06
1.8296e-05
1.98605e-05
1.76748e-06
-2.55894e-06
3.16892e-06
-7.097e-06
4.37495e-06
-8.76443e-06
5.65894e-06
-9.35659e-06
7.02283e-06
-9.31909e-06
8.3968e-06
-8.90022e-06
9.75969e-06
-8.40235e-06
1.11177e-05
-7.96641e-06
1.24722e-05
-7.5802e-06
1.38133e-05
-7.17677e-06
1.5124e-05
-6.68393e-06
1.638e-05
-6.03597e-06
1.75476e-05
-5.16876e-06
1.85829e-05
-3.99322e-06
1.94387e-05
-2.36471e-06
2.00339e-05
-1.50487e-07
2.0127e-05
2.70754e-06
1.94747e-05
6.11947e-06
1.7991e-05
9.79978e-06
1.56933e-05
1.3751e-05
1.2505e-05
1.84798e-05
7.92183e-06
2.28792e-05
2.77823e-05
1.84195e-06
-4.40089e-06
2.98791e-06
-8.24296e-06
3.91984e-06
-9.69635e-06
4.99846e-06
-1.04352e-05
6.21071e-06
-1.05313e-05
7.46728e-06
-1.01568e-05
8.75242e-06
-9.6875e-06
1.00807e-05
-9.29469e-06
1.14534e-05
-8.95295e-06
1.28571e-05
-8.5804e-06
1.42706e-05
-8.09745e-06
1.56675e-05
-7.43284e-06
1.7014e-05
-6.51526e-06
1.82677e-05
-5.24695e-06
1.93778e-05
-3.47479e-06
2.02488e-05
-1.02153e-06
2.06448e-05
2.31157e-06
2.03245e-05
6.43976e-06
1.92311e-05
1.08933e-05
1.73742e-05
1.56078e-05
1.4596e-05
2.1258e-05
9.92727e-06
2.7548e-05
3.77096e-05
1.71314e-06
-6.11403e-06
2.46404e-06
-8.99386e-06
3.10322e-06
-1.03355e-05
4.00429e-06
-1.13363e-05
5.10158e-06
-1.16286e-05
6.275e-06
-1.13302e-05
7.51831e-06
-1.09308e-05
8.8583e-06
-1.06347e-05
1.02958e-05
-1.03904e-05
1.18106e-05
-1.00952e-05
1.3375e-05
-9.66185e-06
1.49571e-05
-9.01499e-06
1.652e-05
-8.0781e-06
1.80191e-05
-6.74602e-06
1.93999e-05
-4.85564e-06
2.05638e-05
-2.18538e-06
2.12895e-05
1.58589e-06
2.13689e-05
6.36036e-06
2.07961e-05
1.1466e-05
1.95644e-05
1.68395e-05
1.74948e-05
2.33275e-05
1.29046e-05
3.21382e-05
5.06142e-05
1.33873e-06
-7.45275e-06
1.63448e-06
-9.2896e-06
1.99337e-06
-1.06944e-05
2.74694e-06
-1.20898e-05
3.75942e-06
-1.26411e-05
4.87466e-06
-1.24454e-05
6.10321e-06
-1.21593e-05
7.48794e-06
-1.20194e-05
9.02672e-06
-1.19292e-05
1.06889e-05
-1.17573e-05
1.24373e-05
-1.14102e-05
1.4232e-05
-1.08098e-05
1.60303e-05
-9.87634e-06
1.77831e-05
-8.49887e-06
1.9432e-05
-6.5045e-06
2.08928e-05
-3.64617e-06
2.19637e-05
5.14963e-07
2.25422e-05
5.78191e-06
2.26242e-05
1.13839e-05
2.21623e-05
1.73014e-05
2.11747e-05
2.43151e-05
1.76275e-05
3.56854e-05
6.82416e-05
-2.75332e-06
2.75332e-06
1.47949e-06
-4.23284e-06
6.32135e-06
-4.84187e-06
1.22478e-05
-5.92645e-06
1.79332e-05
-5.68536e-06
2.12742e-05
-3.34106e-06
2.15491e-05
-2.74916e-07
1.94914e-05
2.05773e-06
1.53541e-05
4.13731e-06
1.08492e-05
4.50494e-06
6.1097e-06
4.73949e-06
2.94575e-06
3.16393e-06
1.14182e-06
1.80392e-06
-1.14572e-06
2.28757e-06
-2.53947e-06
1.39376e-06
-3.18965e-06
6.50164e-07
-4.27296e-06
1.08328e-06
-4.55069e-06
2.77718e-07
-4.55068e-06
4.72931e-07
2.28041e-06
4.01475e-06
-7.77465e-06
7.1389e-06
-7.96604e-06
1.0854e-05
-9.64161e-06
1.47395e-05
-9.57075e-06
1.72781e-05
-5.87971e-06
1.79183e-05
-9.15091e-07
1.65837e-05
3.39235e-06
1.40816e-05
6.6394e-06
1.17859e-05
6.8006e-06
8.67505e-06
7.85039e-06
5.42792e-06
6.41106e-06
3.05474e-06
4.17706e-06
7.47294e-07
4.59501e-06
-1.07959e-06
3.22065e-06
-2.27594e-06
1.84653e-06
-3.09744e-06
1.90477e-06
-2.71484e-06
-1.04903e-07
-7.2655e-06
2.34283e-06
-6.24141e-08
5.53737e-06
-1.09692e-05
7.18813e-06
-9.61678e-06
9.32461e-06
-1.17781e-05
1.20297e-05
-1.22758e-05
1.39084e-05
-7.75845e-06
1.42216e-05
-1.22824e-06
1.27553e-05
4.85861e-06
1.14553e-05
7.9394e-06
1.10356e-05
7.22027e-06
9.93254e-06
8.95344e-06
7.21888e-06
9.12473e-06
4.60355e-06
6.79242e-06
2.09166e-06
7.10692e-06
6.34866e-09
5.30597e-06
-1.50577e-06
3.35866e-06
-2.27905e-06
2.67805e-06
-1.57328e-06
-8.10685e-07
-8.83876e-06
3.69922e-06
-3.76162e-06
6.81134e-06
-1.40813e-05
6.95661e-06
-9.76206e-06
7.63625e-06
-1.24577e-05
9.43207e-06
-1.40716e-05
1.08342e-05
-9.16061e-06
1.07886e-05
-1.18258e-06
9.54187e-06
6.10528e-06
9.30915e-06
8.17215e-06
9.97718e-06
6.55226e-06
1.02294e-05
8.70123e-06
8.6905e-06
1.06636e-05
5.88994e-06
9.59297e-06
3.21161e-06
9.78525e-06
9.38882e-07
7.57871e-06
-8.27545e-07
5.12509e-06
-1.72889e-06
3.57941e-06
-1.20554e-06
-1.33404e-06
-1.00443e-05
5.55071e-06
-9.31232e-06
8.5665e-06
-1.70971e-05
6.84161e-06
-8.03718e-06
5.88856e-06
-1.15047e-05
6.72697e-06
-1.491e-05
7.86713e-06
-1.03008e-05
7.85746e-06
-1.17289e-06
7.20886e-06
6.7539e-06
7.49956e-06
7.88144e-06
8.55929e-06
5.49252e-06
9.87331e-06
7.38719e-06
9.39462e-06
1.11423e-05
6.78488e-06
1.22027e-05
4.18962e-06
1.23805e-05
1.85708e-06
9.91124e-06
-1.19164e-07
7.10132e-06
-1.33611e-06
4.79637e-06
-1.24428e-06
-1.42586e-06
-1.12886e-05
8.75563e-06
-1.8068e-05
1.21955e-05
-2.05369e-05
7.54672e-06
-3.38846e-06
4.34399e-06
-8.30194e-06
4.11537e-06
-1.46814e-05
5.25282e-06
-1.14382e-05
5.5997e-06
-1.51979e-06
5.41907e-06
6.93454e-06
5.76855e-06
7.53195e-06
6.8282e-06
4.43286e-06
8.69497e-06
5.52041e-06
9.19843e-06
1.06389e-05
7.62055e-06
1.37806e-05
5.16969e-06
1.48314e-05
2.83397e-06
1.2247e-05
7.11283e-07
9.224e-06
-8.649e-07
6.37255e-06
-1.27187e-06
-1.0189e-06
-1.25604e-05
1.4908e-05
-3.2976e-05
2.02923e-05
-2.59213e-05
1.02834e-05
6.62052e-06
3.32062e-06
-1.33921e-06
2.05082e-06
-1.34116e-05
3.13755e-06
-1.25249e-05
3.6903e-06
-2.07255e-06
3.66297e-06
6.96187e-06
3.756e-06
7.43892e-06
4.69646e-06
3.49239e-06
6.50051e-06
3.71636e-06
8.24841e-06
8.89099e-06
8.53037e-06
1.34986e-05
6.62607e-06
1.67357e-05
4.02691e-06
1.48461e-05
1.76439e-06
1.14865e-05
2.34168e-08
8.11354e-06
-8.95135e-07
-1.0034e-07
-1.34556e-05
2.39306e-05
-5.69066e-05
2.81783e-05
-3.01689e-05
1.54892e-05
1.93096e-05
3.17744e-06
1.09726e-05
5.6288e-07
-1.0797e-05
1.35329e-06
-1.33153e-05
1.87397e-06
-2.59324e-06
1.67362e-06
7.16222e-06
1.46522e-06
7.64731e-06
2.02926e-06
2.92836e-06
3.65623e-06
2.08939e-06
6.54397e-06
6.00324e-06
8.30379e-06
1.17388e-05
8.20494e-06
1.68345e-05
5.47343e-06
1.75776e-05
3.41054e-06
1.35494e-05
1.51867e-06
1.00054e-05
3.03409e-07
1.11493e-06
-1.31522e-05
8.11617e-07
-8.26437e-06
5.59601e-08
-8.53394e-06
-3.64203e-09
-1.06348e-05
1.25221e-06
-1.33457e-05
3.24022e-06
-1.46291e-05
5.47717e-06
-1.46824e-05
8.10039e-06
-1.47826e-05
1.12663e-05
-1.51854e-05
1.49416e-05
-1.56044e-05
1.90154e-05
-1.58312e-05
2.33744e-05
-1.57692e-05
2.79039e-05
-1.53393e-05
3.24897e-05
-1.44621e-05
3.70108e-05
-1.302e-05
4.13281e-05
-1.08218e-05
4.53225e-05
-7.64057e-06
4.8806e-05
-2.96857e-06
5.18494e-05
2.73853e-06
5.43732e-05
8.86011e-06
5.63732e-05
1.53014e-05
5.88387e-05
2.18497e-05
6.53025e-05
2.92216e-05
3.56373e-05
9.79068e-05
-2.02635e-06
-6.23801e-06
-4.39449e-06
-6.16581e-06
-5.25855e-06
-9.77073e-06
-4.01047e-06
-1.45937e-05
-1.94981e-06
-1.66897e-05
1.96528e-07
-1.68287e-05
2.8792e-06
-1.74652e-05
6.35531e-06
-1.86615e-05
1.05082e-05
-1.97573e-05
1.51569e-05
-2.04799e-05
2.016e-05
-2.07723e-05
2.53757e-05
-2.0555e-05
3.06712e-05
-1.97576e-05
3.59207e-05
-1.82695e-05
4.09755e-05
-1.58766e-05
4.57514e-05
-1.24165e-05
5.04875e-05
-7.70468e-06
5.52611e-05
-2.03508e-06
5.98706e-05
4.2506e-06
6.43136e-05
1.08584e-05
6.92462e-05
1.69172e-05
7.64867e-05
2.19811e-05
2.38746e-05
8.82494e-05
-3.5975e-06
-2.64051e-06
-6.84474e-06
-2.91857e-06
-8.00038e-06
-8.61511e-06
-6.43889e-06
-1.61552e-05
-4.40249e-06
-1.87262e-05
-2.59442e-06
-1.86368e-05
4.78674e-08
-2.01075e-05
3.66129e-06
-2.22749e-05
7.98106e-06
-2.40771e-05
1.28085e-05
-2.53073e-05
1.80207e-05
-2.59845e-05
2.34617e-05
-2.5996e-05
2.8989e-05
-2.52848e-05
3.44977e-05
-2.37782e-05
3.98416e-05
-2.12205e-05
4.49417e-05
-1.75166e-05
5.01218e-05
-1.28847e-05
5.54564e-05
-7.36976e-06
6.07579e-05
-1.05087e-06
6.59952e-05
5.62103e-06
7.12483e-05
1.16641e-05
7.69644e-05
1.6265e-05
1.67985e-05
8.40404e-05
-3.90446e-06
1.26395e-06
-6.43756e-06
-3.85492e-07
-5.90839e-06
-9.14429e-06
-4.22117e-06
-1.78425e-05
-3.08724e-06
-1.98601e-05
-1.62901e-06
-2.0095e-05
7.65719e-07
-2.25023e-05
3.9834e-06
-2.54926e-05
7.86043e-06
-2.79541e-05
1.22634e-05
-2.97103e-05
1.71058e-05
-3.08269e-05
2.21843e-05
-3.10745e-05
2.73293e-05
-3.04299e-05
3.24805e-05
-2.89294e-05
3.74998e-05
-2.62397e-05
4.22874e-05
-2.23043e-05
4.72073e-05
-1.78047e-05
5.24018e-05
-1.25642e-05
5.76429e-05
-6.29194e-06
6.27748e-05
4.89059e-07
6.82653e-05
6.17366e-06
7.43943e-05
1.0136e-05
1.04213e-05
8.07715e-05
-1.08298e-05
1.20937e-05
-3.52597e-06
-7.68908e-06
8.38647e-06
-2.10567e-05
8.43484e-06
-1.78909e-05
4.27369e-06
-1.56989e-05
5.69735e-06
-2.15188e-05
5.83153e-06
-2.26364e-05
7.07701e-06
-2.67381e-05
9.53749e-06
-3.04146e-05
1.30448e-05
-3.32176e-05
1.71388e-05
-3.4921e-05
2.14379e-05
-3.53735e-05
2.56995e-05
-3.46914e-05
2.99161e-05
-3.31459e-05
3.4039e-05
-3.03627e-05
3.79423e-05
-2.62076e-05
4.217e-05
-2.20324e-05
4.69936e-05
-1.73877e-05
5.23946e-05
-1.1693e-05
5.7985e-05
-5.1013e-06
6.41077e-05
5.09808e-08
7.19352e-05
2.30847e-06
1.98925e-06
8.03672e-05
-2.95757e-06
1.50512e-05
1.28059e-05
-2.34526e-05
3.02137e-05
-3.84645e-05
4.01158e-05
-2.77929e-05
3.43696e-05
-9.95265e-06
3.53044e-05
-2.24536e-05
3.35662e-05
-2.08982e-05
1.90708e-05
-1.22426e-05
1.23116e-05
-2.36554e-05
1.39448e-05
-3.48508e-05
1.71093e-05
-3.80854e-05
2.07428e-05
-3.9007e-05
2.41244e-05
-3.8073e-05
2.72706e-05
-3.62921e-05
2.99549e-05
-3.3047e-05
3.22009e-05
-2.84536e-05
3.57373e-05
-2.55688e-05
4.06985e-05
-2.23489e-05
4.70502e-05
-1.80447e-05
5.3255e-05
-1.13061e-05
5.86521e-05
-5.34611e-06
6.25767e-05
-1.61611e-06
1.24406e-05
5.21253e-05
1.18806e-05
3.17055e-06
3.06269e-05
-4.2199e-05
4.19659e-05
-4.98036e-05
5.02262e-05
-3.60533e-05
4.65277e-05
-6.25402e-06
4.40105e-05
-1.99363e-05
4.93112e-05
-2.61988e-05
4.55372e-05
-8.46869e-06
2.10896e-05
7.92361e-07
8.26154e-06
-2.20228e-05
1.16403e-05
-4.14642e-05
1.63765e-05
-4.37433e-05
2.00374e-05
-4.1734e-05
2.33614e-05
-3.96161e-05
2.61047e-05
-3.57903e-05
2.53208e-05
-2.76698e-05
2.80563e-05
-2.83044e-05
3.25801e-05
-2.68727e-05
3.8604e-05
-2.40686e-05
4.32687e-05
-1.59709e-05
3.96204e-05
-1.69769e-06
2.81358e-05
9.86877e-06
2.9922e-05
1.06554e-05
2.70523e-05
-2.38816e-05
4.2886e-05
-5.80328e-05
5.04009e-05
-5.73185e-05
5.23557e-05
-3.80081e-05
4.75551e-05
-1.45343e-06
3.95732e-05
-1.19546e-05
3.66908e-05
-2.33164e-05
2.83608e-05
-1.38558e-07
1.84785e-05
1.06748e-05
1.34656e-05
-1.70096e-05
1.24747e-05
-4.04734e-05
1.36876e-05
-4.49562e-05
1.54267e-05
-4.3473e-05
1.74431e-05
-4.16324e-05
2.02593e-05
-3.86066e-05
2.18767e-05
-2.92872e-05
2.07164e-05
-2.71441e-05
2.0613e-05
-2.67693e-05
2.24258e-05
-2.58814e-05
2.25063e-05
-1.60513e-05
1.84082e-05
2.40031e-06
7.53391e-06
2.07425e-05
4.32108e-05
-5.75548e-06
3.2519e-05
-5.64006e-05
4.40286e-05
-6.95426e-05
4.64709e-05
-5.97608e-05
4.57571e-05
-3.72944e-05
4.66084e-05
-2.30469e-06
3.39507e-05
7.03034e-07
1.54479e-05
-4.81366e-06
1.08756e-05
4.43387e-06
1.6532e-05
5.01824e-06
1.75047e-05
-1.79822e-05
1.41727e-05
-3.71413e-05
1.14011e-05
-4.21846e-05
1.04852e-05
-4.25572e-05
9.3658e-06
-4.0513e-05
6.57035e-06
-3.58112e-05
6.32671e-06
-2.90436e-05
4.95232e-06
-2.57697e-05
2.86982e-06
-2.46869e-05
-7.58214e-08
-2.29358e-05
-1.95783e-06
-1.41692e-05
-4.13251e-06
4.57519e-06
-9.06609e-06
2.56762e-05
5.14999e-05
-1.7355e-05
3.10376e-05
-8.74381e-05
3.19069e-05
-7.04118e-05
2.01946e-05
-4.80487e-05
1.00506e-05
-2.71503e-05
7.29241e-06
4.53428e-07
2.52473e-07
7.74303e-06
-7.08479e-06
2.52374e-06
-3.6307e-06
9.79934e-07
5.94175e-06
-4.55436e-06
7.72473e-06
-1.97651e-05
3.34945e-06
-3.27661e-05
-8.68467e-07
-3.79667e-05
-4.40413e-06
-3.90216e-05
-7.71296e-06
-3.72043e-05
-1.06249e-05
-3.28994e-05
-1.25074e-05
-2.71612e-05
-1.52437e-05
-2.30334e-05
-1.90343e-05
-2.08963e-05
-2.20294e-05
-1.99409e-05
-2.42516e-05
-1.1947e-05
-2.54617e-05
5.7852e-06
-2.7573e-05
2.77875e-05
5.56597e-05
-3.17328e-05
8.24709e-06
-9.56853e-05
-6.87699e-07
-6.14779e-05
-1.2133e-05
-3.66038e-05
-2.15925e-05
-1.76907e-05
-2.29743e-05
1.83466e-06
-2.17446e-05
6.51305e-06
-2.09467e-05
1.7258e-06
-1.66779e-05
-3.28895e-06
-1.07638e-05
-1.04685e-05
-9.24733e-06
-2.12816e-05
-1.18768e-05
-3.01368e-05
-1.55251e-05
-3.43185e-05
-1.93536e-05
-3.51932e-05
-2.30483e-05
-3.35096e-05
-2.61222e-05
-2.98255e-05
-2.82704e-05
-2.50133e-05
-3.05071e-05
-2.07967e-05
-3.36094e-05
-1.77942e-05
-3.83622e-05
-1.51881e-05
-4.25402e-05
-7.76889e-06
-4.4634e-05
7.87903e-06
-4.66355e-05
2.97892e-05
5.4163e-05
-4.51387e-05
-1.55998e-05
-8.00857e-05
-2.64692e-05
-5.06088e-05
-3.44328e-05
-2.86406e-05
-4.00491e-05
-1.20745e-05
-3.85486e-05
3.34143e-07
-3.48025e-05
2.76642e-06
-3.15423e-05
-1.53447e-06
-2.75327e-05
-7.29871e-06
-2.38198e-05
-1.41813e-05
-2.31373e-05
-2.19641e-05
-2.52543e-05
-2.80199e-05
-2.85532e-05
-3.10197e-05
-3.22677e-05
-3.14788e-05
-3.59117e-05
-2.98655e-05
-3.90434e-05
-2.66939e-05
-4.14128e-05
-2.26441e-05
-4.36002e-05
-1.86092e-05
-4.65642e-05
-1.48303e-05
-5.13066e-05
-1.04456e-05
-5.65005e-05
-2.57491e-06
-5.97272e-05
1.11058e-05
-5.88681e-05
2.89299e-05
4.81956e-05
-5.29013e-05
-2.25749e-05
-5.75113e-05
-3.54437e-05
-3.77402e-05
-4.29495e-05
-2.11351e-05
-4.62204e-05
-8.80425e-06
-4.45611e-05
-1.3251e-06
-4.1049e-05
-7.45509e-07
-3.78336e-05
-4.74973e-06
-3.49278e-05
-1.02046e-05
-3.30145e-05
-1.60946e-05
-3.31972e-05
-2.17814e-05
-3.5276e-05
-2.59412e-05
-3.83634e-05
-2.79323e-05
-4.18687e-05
-2.79736e-05
-4.53369e-05
-2.63973e-05
-4.84311e-05
-2.35998e-05
-5.10376e-05
-2.00377e-05
-5.35002e-05
-1.61467e-05
-5.64101e-05
-1.19204e-05
-6.01768e-05
-6.67904e-06
-6.38574e-05
1.10545e-06
-6.51736e-05
1.2422e-05
-6.25357e-05
2.62921e-05
4.08026e-05
-5.51425e-05
-2.18564e-05
-3.56554e-05
-3.54722e-05
-2.41247e-05
-4.29145e-05
-1.36928e-05
-4.57024e-05
-6.0163e-06
-4.47819e-05
-2.24564e-06
-4.24591e-05
-3.0681e-06
-4.03066e-05
-6.90244e-06
-3.87474e-05
-1.17636e-05
-3.82037e-05
-1.66383e-05
-3.91067e-05
-2.08787e-05
-4.12736e-05
-2.37743e-05
-4.4186e-05
-2.50199e-05
-4.74145e-05
-2.47452e-05
-5.06161e-05
-2.31959e-05
-5.3555e-05
-2.06609e-05
-5.61644e-05
-1.74281e-05
-5.86075e-05
-1.37037e-05
-6.11122e-05
-9.41593e-06
-6.36705e-05
-4.1208e-06
-6.5479e-05
2.91404e-06
-6.507e-05
1.20131e-05
-6.12984e-05
2.25204e-05
3.32131e-05
-5.37089e-05
-1.94632e-05
-1.61926e-05
-3.18162e-05
-1.17714e-05
-3.87464e-05
-6.76261e-06
-4.15824e-05
-3.18017e-06
-4.16197e-05
-2.20849e-06
-4.05724e-05
-4.11564e-06
-3.96079e-05
-7.86689e-06
-3.91953e-05
-1.21759e-05
-3.96124e-05
-1.62211e-05
-4.10117e-05
-1.94794e-05
-4.32343e-05
-2.15517e-05
-4.59525e-05
-2.23018e-05
-4.88645e-05
-2.18333e-05
-5.17252e-05
-2.03354e-05
-5.43677e-05
-1.80184e-05
-5.67272e-05
-1.50686e-05
-5.88369e-05
-1.15939e-05
-6.07132e-05
-7.53979e-06
-6.2165e-05
-2.66885e-06
-6.25792e-05
3.32838e-06
-6.1053e-05
1.04871e-05
-5.68803e-05
1.83478e-05
2.61677e-05
-4.98349e-05
-1.59281e-05
-2.64585e-07
-2.65154e-05
-1.18448e-06
-3.26888e-05
-5.89229e-07
-3.55718e-05
-2.97428e-07
-3.63677e-05
-1.41241e-06
-3.63288e-05
-4.15493e-06
-3.63132e-05
-7.88228e-06
-3.67269e-05
-1.1762e-05
-3.77549e-05
-1.51933e-05
-3.94366e-05
-1.77978e-05
-4.16379e-05
-1.93506e-05
-4.41352e-05
-1.98046e-05
-4.6714e-05
-1.92545e-05
-4.91982e-05
-1.78513e-05
-5.14627e-05
-1.57539e-05
-5.34362e-05
-1.3095e-05
-5.50807e-05
-9.94931e-06
-5.63186e-05
-6.30191e-06
-5.69302e-05
-2.05719e-06
-5.64818e-05
2.88018e-06
-5.44341e-05
8.43949e-06
-5.03895e-05
1.43031e-05
2.00311e-05
-4.42529e-05
-1.25483e-05
1.2284e-05
-2.08084e-05
7.075e-06
-2.58354e-05
4.43788e-06
-2.85294e-05
2.39657e-06
-2.9757e-05
-1.84536e-07
-3.03792e-05
-3.5329e-06
-3.10057e-05
-7.25572e-06
-3.19476e-05
-1.082e-05
-3.33245e-05
-1.38165e-05
-3.51281e-05
-1.59945e-05
-3.72442e-05
-1.72346e-05
-3.95097e-05
-1.75391e-05
-4.17671e-05
-1.69973e-05
-4.38849e-05
-1.57336e-05
-4.57643e-05
-1.38746e-05
-4.73333e-05
-1.1526e-05
-4.85268e-05
-8.75577e-06
-4.9244e-05
-5.58476e-06
-4.93e-05
-2.00134e-06
-4.84088e-05
1.98904e-06
-4.62578e-05
6.28852e-06
-4.26369e-05
1.06823e-05
1.4918e-05
-3.75237e-05
-8.92796e-06
2.12118e-05
-1.47194e-05
1.28664e-05
-1.85227e-05
8.2412e-06
-2.08699e-05
4.74396e-06
-2.22719e-05
1.21723e-06
-2.32749e-05
-2.52993e-06
-2.42917e-05
-6.23895e-06
-2.5541e-05
-9.57092e-06
-2.70928e-05
-1.22646e-05
-2.89166e-05
-1.41708e-05
-3.09135e-05
-1.52376e-05
-3.29575e-05
-1.54951e-05
-3.49279e-05
-1.5027e-05
-3.67229e-05
-1.39388e-05
-3.82621e-05
-1.23356e-05
-3.94796e-05
-1.03085e-05
-4.03092e-05
-7.92607e-06
-4.0661e-05
-5.23287e-06
-4.04007e-05
-2.26164e-06
-3.93515e-05
9.39877e-07
-3.73411e-05
4.27826e-06
-3.42692e-05
7.61041e-06
1.08001e-05
-3.01513e-05
-4.98021e-06
2.61917e-05
-8.51688e-06
1.6403e-05
-1.1019e-05
1.07433e-05
-1.29466e-05
6.67163e-06
-1.43618e-05
2.63209e-06
-1.55581e-05
-1.33361e-06
-1.67935e-05
-5.00371e-06
-1.82065e-05
-8.1579e-06
-1.98288e-05
-1.06423e-05
-2.16177e-05
-1.2382e-05
-2.34862e-05
-1.33692e-05
-2.53325e-05
-1.36487e-05
-2.70611e-05
-1.32984e-05
-2.85911e-05
-1.24089e-05
-2.9857e-05
-1.10698e-05
-3.08032e-05
-9.36234e-06
-3.13743e-05
-7.355e-06
-3.15028e-05
-5.10447e-06
-3.11012e-05
-2.66315e-06
-3.00681e-05
-9.30396e-08
-2.83179e-05
2.52814e-06
-2.58127e-05
5.10534e-06
7.57448e-06
-2.2587e-05
-2.54055e-07
2.64458e-05
-1.97688e-06
1.81258e-05
-3.62376e-06
1.23902e-05
-5.16006e-06
8.2079e-06
-6.51048e-06
3.9826e-06
-7.7869e-06
-5.72493e-08
-9.13163e-06
-3.65899e-06
-1.06186e-05
-6.67079e-06
-1.22491e-05
-9.01182e-06
-1.39737e-05
-1.06576e-05
-1.57152e-05
-1.16279e-05
-1.73895e-05
-1.19745e-05
-1.89194e-05
-1.17686e-05
-2.02399e-05
-1.10884e-05
-2.12986e-05
-1.00112e-05
-2.20514e-05
-8.6096e-06
-2.24569e-05
-6.94946e-06
-2.24705e-05
-5.09092e-06
-2.20413e-05
-3.09223e-06
-2.11195e-05
-1.01475e-06
-1.96685e-05
1.07731e-06
-1.76876e-05
3.12452e-06
5.10534e-06
-1.52183e-05
5.05836e-06
2.13873e-05
4.5366e-06
1.86476e-05
3.19794e-06
1.37288e-05
1.95949e-06
9.44645e-06
7.30507e-07
5.21168e-06
-5.40922e-07
1.21402e-06
-1.91052e-06
-2.28922e-06
-3.40066e-06
-5.18039e-06
-4.98964e-06
-7.42284e-06
-6.62406e-06
-9.0233e-06
-8.23527e-06
-1.00167e-05
-9.75314e-06
-1.04567e-05
-1.11146e-05
-1.04072e-05
-1.22675e-05
-9.93546e-06
-1.31702e-05
-9.10843e-06
-1.37894e-05
-7.99025e-06
-1.40971e-05
-6.64177e-06
-1.40669e-05
-5.12102e-06
-1.36745e-05
-3.48455e-06
-1.2901e-05
-1.78804e-06
-1.17409e-05
-8.26695e-08
-1.02112e-05
1.59499e-06
3.24895e-06
-8.35467e-06
7.41223e-06
1.39748e-05
8.93775e-06
1.71222e-05
8.47297e-06
1.41937e-05
7.67203e-06
1.02476e-05
6.70959e-06
6.17393e-06
5.58233e-06
2.34102e-06
4.30441e-06
-1.01115e-06
2.90187e-06
-3.77769e-06
1.41926e-06
-5.94021e-06
-8.46147e-08
-7.51945e-06
-1.54618e-06
-8.5551e-06
-2.90524e-06
-9.09758e-06
-4.10956e-06
-9.20273e-06
-5.11666e-06
-8.92823e-06
-5.89358e-06
-8.33139e-06
-6.4156e-06
-7.4681e-06
-6.66463e-06
-6.39266e-06
-6.62767e-06
-5.15786e-06
-6.29709e-06
-3.81493e-06
-5.6728e-06
-2.41209e-06
-4.76573e-06
-9.89515e-07
-3.6014e-06
4.30806e-07
1.8671e-06
-2.21951e-06
6.54432e-06
7.43067e-06
9.96352e-06
1.37032e-05
1.10768e-05
1.30809e-05
1.11926e-05
1.01318e-05
1.07922e-05
6.57399e-06
1.00379e-05
3.09514e-06
9.03059e-06
-3.72989e-09
7.85215e-06
-2.59918e-06
6.57627e-06
-4.66427e-06
5.27203e-06
-6.21513e-06
4.00318e-06
-7.28614e-06
2.82584e-06
-7.92013e-06
1.78686e-06
-8.16361e-06
9.23188e-07
-8.06444e-06
2.62466e-07
-7.67058e-06
-1.76056e-07
-7.02946e-06
-3.8068e-07
-6.1879e-06
-3.46436e-07
-5.19189e-06
-7.52552e-08
-4.08584e-06
4.23115e-07
-2.9102e-06
1.12998e-06
-1.69621e-06
2.01731e-06
-4.56478e-07
8.34367e-07
3.04999e-06
4.53268e-06
2.89827e-06
8.60688e-06
9.62927e-06
1.10854e-05
1.06026e-05
1.23351e-05
8.88186e-06
1.27474e-05
6.16162e-06
1.25858e-05
3.25696e-06
1.20322e-05
5.50004e-07
1.12231e-05
-1.78986e-06
1.02638e-05
-3.70472e-06
9.23936e-06
-5.19046e-06
8.21971e-06
-6.26631e-06
7.2622e-06
-6.96244e-06
6.41275e-06
-7.31395e-06
5.70666e-06
-7.35822e-06
5.16969e-06
-7.13351e-06
4.81882e-06
-6.67845e-06
4.6629e-06
-6.03178e-06
4.70319e-06
-5.23194e-06
4.93353e-06
-4.31592e-06
5.34023e-06
-3.31671e-06
5.90241e-06
-2.25831e-06
6.59308e-06
-1.14714e-06
4.49951e-08
7.38245e-06
2.9184e-06
-2.01357e-08
6.67061e-06
5.87725e-06
9.74052e-06
7.53248e-06
1.18017e-05
6.8205e-06
1.29699e-05
4.99367e-06
1.34501e-05
2.77708e-06
1.34335e-05
5.66691e-07
1.30782e-05
-1.43429e-06
1.25083e-05
-3.13454e-06
1.18213e-05
-4.50323e-06
1.10944e-05
-5.53916e-06
1.03886e-05
-6.25641e-06
9.75181e-06
-6.67686e-06
9.22019e-06
-6.82643e-06
8.82004e-06
-6.73327e-06
8.56853e-06
-6.42682e-06
8.47431e-06
-5.9374e-06
8.53813e-06
-5.29556e-06
8.7532e-06
-4.5308e-06
9.10571e-06
-3.66909e-06
9.57587e-06
-2.7284e-06
1.01397e-05
-1.71097e-06
-5.881e-07
1.07729e-05
2.01183e-06
-2.03193e-06
5.14801e-06
2.74098e-06
8.17114e-06
4.50932e-06
1.05503e-05
4.4414e-06
1.21882e-05
3.35607e-06
1.31698e-05
1.79548e-06
1.36333e-05
1.03034e-07
1.37168e-05
-1.51766e-06
1.35397e-05
-2.95736e-06
1.32e-05
-4.16347e-06
1.27768e-05
-5.11575e-06
1.23329e-05
-5.81225e-06
1.19177e-05
-6.26138e-06
1.15689e-05
-6.47748e-06
1.13141e-05
-6.47843e-06
1.11718e-05
-6.28449e-06
1.1152e-05
-5.91751e-06
1.12568e-05
-5.40018e-06
1.14809e-05
-4.75473e-06
1.18126e-05
-4.00059e-06
1.22348e-05
-3.15056e-06
1.27278e-05
-2.20387e-06
-1.13256e-06
1.32724e-05
1.60024e-06
-3.632e-06
4.18675e-06
1.54228e-07
6.8802e-06
1.81618e-06
9.21819e-06
2.10362e-06
1.10252e-05
1.54923e-06
1.22937e-05
5.26804e-07
1.30949e-05
-6.98306e-07
1.35255e-05
-1.94829e-06
1.36823e-05
-3.11427e-06
1.36517e-05
-4.13286e-06
1.35069e-05
-4.97077e-06
1.3308e-05
-5.61319e-06
1.31035e-05
-6.05677e-06
1.29313e-05
-6.30525e-06
1.28199e-05
-6.36696e-06
1.27889e-05
-6.25344e-06
1.28501e-05
-5.9785e-06
1.30075e-05
-5.55736e-06
1.32584e-05
-5.00538e-06
1.3594e-05
-4.336e-06
1.4001e-05
-3.55744e-06
1.44637e-05
-2.66656e-06
-1.63676e-06
1.49678e-05
1.43337e-06
-5.06544e-06
3.60375e-06
-2.01616e-06
5.91801e-06
-4.97857e-07
8.04768e-06
-2.58893e-08
9.82384e-06
-2.26817e-07
1.11952e-05
-8.44579e-07
1.21827e-05
-1.68575e-06
1.28431e-05
-2.60871e-06
1.3245e-05
-3.51614e-06
1.34567e-05
-4.34441e-06
1.354e-05
-5.05399e-06
1.35486e-05
-5.62171e-06
1.35272e-05
-6.03535e-06
1.35119e-05
-6.28997e-06
1.35307e-05
-6.38571e-06
1.36038e-05
-6.3264e-06
1.37442e-05
-6.11862e-06
1.39578e-05
-5.77079e-06
1.42446e-05
-5.29202e-06
1.4599e-05
-4.69031e-06
1.50113e-05
-3.96976e-06
1.54699e-05
-3.12526e-06
-2.13166e-06
1.59646e-05
1.34416e-06
-6.40995e-06
3.20265e-06
-3.87433e-06
5.17923e-06
-2.47466e-06
7.05898e-06
-1.90556e-06
8.70715e-06
-1.8749e-06
1.0063e-05
-2.20032e-06
1.112e-05
-2.74259e-06
1.19055e-05
-3.39401e-06
1.24636e-05
-4.07409e-06
1.28443e-05
-4.72496e-06
1.30966e-05
-5.3063e-06
1.32656e-05
-5.79072e-06
1.33904e-05
-6.16015e-06
1.35036e-05
-6.40324e-06
1.36316e-05
-6.51364e-06
1.37941e-05
-6.48877e-06
1.40046e-05
-6.32902e-06
1.42708e-05
-6.03688e-06
1.45947e-05
-5.61595e-06
1.49736e-05
-5.0694e-06
1.54014e-05
-4.39767e-06
1.58698e-05
-3.59385e-06
-2.63417e-06
1.63722e-05
1.25277e-06
-7.66285e-06
2.86149e-06
-5.4827e-06
4.55924e-06
-4.17277e-06
6.2028e-06
-3.549e-06
7.69166e-06
-3.36373e-06
8.9702e-06
-3.47877e-06
1.00208e-05
-3.79307e-06
1.08534e-05
-4.22639e-06
1.14945e-05
-4.71505e-06
1.1979e-05
-5.20945e-06
1.23444e-05
-5.67166e-06
1.26266e-05
-6.07306e-06
1.28587e-05
-6.39229e-06
1.3069e-05
-6.61367e-06
1.32814e-05
-6.726e-06
1.35143e-05
-6.72169e-06
1.37813e-05
-6.59605e-06
1.40909e-05
-6.34661e-06
1.44471e-05
-5.97228e-06
1.48496e-05
-5.47207e-06
1.52949e-05
-4.84316e-06
1.5778e-05
-4.07699e-06
-3.15094e-06
1.62948e-05
1.13364e-06
-8.79614e-06
2.52846e-06
-6.87741e-06
3.99678e-06
-5.64102e-06
5.43305e-06
-4.98498e-06
6.76144e-06
-4.69208e-06
7.93564e-06
-4.65294e-06
8.93583e-06
-4.79319e-06
9.76317e-06
-5.05366e-06
1.04332e-05
-5.38507e-06
1.097e-05
-5.7462e-06
1.14011e-05
-6.10289e-06
1.1755e-05
-6.42705e-06
1.20585e-05
-6.69587e-06
1.23357e-05
-6.89096e-06
1.26074e-05
-6.99777e-06
1.28906e-05
-7.00492e-06
1.31982e-05
-6.90378e-06
1.35393e-05
-6.68788e-06
1.39192e-05
-6.35227e-06
1.43395e-05
-5.89245e-06
1.47991e-05
-5.3028e-06
1.52953e-05
-4.57318e-06
-3.6818e-06
1.58262e-05
9.91864e-07
-9.78747e-06
2.19575e-06
-8.08137e-06
3.46955e-06
-6.91426e-06
4.72445e-06
-6.23954e-06
5.9005e-06
-5.8681e-06
6.96038e-06
-5.71277e-06
7.88597e-06
-5.7187e-06
8.67491e-06
-5.84254e-06
9.33636e-06
-6.04649e-06
9.88684e-06
-6.29669e-06
1.03468e-05
-6.56289e-06
1.07381e-05
-6.81843e-06
1.10824e-05
-7.04016e-06
1.13996e-05
-7.20822e-06
1.17076e-05
-7.30584e-06
1.20217e-05
-7.31898e-06
1.23539e-05
-7.23605e-06
1.27134e-05
-7.04751e-06
1.31065e-05
-6.74534e-06
1.35362e-05
-6.32218e-06
1.40034e-05
-5.76997e-06
1.45074e-05
-5.07712e-06
-4.22226e-06
1.50477e-05
8.43003e-07
-1.06303e-05
1.87481e-06
-9.11325e-06
2.97671e-06
-8.01555e-06
4.06817e-06
-7.33086e-06
5.10009e-06
-6.9e-06
6.04252e-06
-6.6551e-06
6.88027e-06
-6.55633e-06
7.61005e-06
-6.57222e-06
8.23745e-06
-6.67381e-06
8.77404e-06
-6.83321e-06
9.23493e-06
-7.02371e-06
9.63688e-06
-7.22033e-06
9.99699e-06
-7.40021e-06
1.03317e-05
-7.54287e-06
1.06561e-05
-7.6302e-06
1.09835e-05
-7.64641e-06
1.13253e-05
-7.57782e-06
1.16904e-05
-7.41264e-06
1.20855e-05
-7.1405e-06
1.25151e-05
-6.75176e-06
1.29814e-05
-6.23633e-06
1.34854e-05
-5.58126e-06
-4.76526e-06
1.40281e-05
7.0422e-07
-1.13347e-05
1.5804e-06
-9.98938e-06
2.524e-06
-8.95897e-06
3.46294e-06
-8.26995e-06
4.35659e-06
-7.79369e-06
5.18081e-06
-7.47924e-06
5.92328e-06
-7.29869e-06
6.58087e-06
-7.2297e-06
7.15719e-06
-7.25e-06
7.66046e-06
-7.33633e-06
8.10181e-06
-7.46491e-06
8.494e-06
-7.61236e-06
8.8504e-06
-7.75648e-06
9.1843e-06
-7.87668e-06
9.50835e-06
-7.9542e-06
9.83415e-06
-7.97221e-06
1.0172e-05
-7.9157e-06
1.05306e-05
-7.77131e-06
1.09169e-05
-7.52697e-06
1.13363e-05
-7.17132e-06
1.17924e-05
-6.69265e-06
1.22877e-05
-6.07679e-06
-5.30226e-06
1.28244e-05
5.86694e-07
-1.19217e-05
1.32049e-06
-1.07231e-05
2.11422e-06
-9.75295e-06
2.90775e-06
-9.06376e-06
3.66759e-06
-8.55358e-06
4.37406e-06
-8.18564e-06
5.0173e-06
-7.94189e-06
5.59475e-06
-7.80707e-06
6.10885e-06
-7.76397e-06
6.56544e-06
-7.79274e-06
6.97262e-06
-7.8719e-06
7.33991e-06
-7.97949e-06
7.67762e-06
-8.09406e-06
7.99633e-06
-8.1953e-06
8.30647e-06
-8.26432e-06
8.61804e-06
-8.28382e-06
8.94028e-06
-8.23804e-06
9.2815e-06
-8.11267e-06
9.64887e-06
-7.89452e-06
1.00484e-05
-7.57104e-06
1.04848e-05
-7.12932e-06
1.09621e-05
-6.55422e-06
-5.82397e-06
1.14836e-05
4.91476e-07
-1.24133e-05
1.09179e-06
-1.13233e-05
1.74286e-06
-1.04044e-05
2.39806e-06
-9.7191e-06
3.02923e-06
-9.18468e-06
3.62006e-06
-8.77641e-06
4.16297e-06
-8.48475e-06
4.65614e-06
-8.30015e-06
5.1013e-06
-8.20898e-06
5.5025e-06
-8.19378e-06
5.86543e-06
-8.23467e-06
6.19698e-06
-8.31089e-06
6.50486e-06
-8.40182e-06
6.79732e-06
-8.48767e-06
7.08283e-06
-8.5498e-06
7.36986e-06
-8.57088e-06
7.66663e-06
-8.53491e-06
7.98092e-06
-8.4271e-06
8.31993e-06
-8.2337e-06
8.69017e-06
-7.94143e-06
9.09744e-06
-7.53669e-06
9.54694e-06
-7.00374e-06
-6.32059e-06
1.00436e-05
4.11361e-07
-1.28246e-05
8.80838e-07
-1.17928e-05
1.39849e-06
-1.09221e-05
1.92552e-06
-1.0246e-05
2.43582e-06
-9.69479e-06
2.91577e-06
-9.25621e-06
3.36016e-06
-8.92901e-06
3.76819e-06
-8.70803e-06
4.14125e-06
-8.58186e-06
4.48201e-06
-8.53436e-06
4.79421e-06
-8.54671e-06
5.08254e-06
-8.59907e-06
5.35255e-06
-8.67168e-06
5.61047e-06
-8.74545e-06
5.86302e-06
-8.80226e-06
6.11725e-06
-8.82508e-06
6.38032e-06
-8.79802e-06
6.65941e-06
-8.70628e-06
6.96154e-06