/*--------------------------------*- C++ -*----------------------------------*\
| =========                 |                                                 |
| \\      /  F ield         | OpenFOAM: The Open Source CFD Toolbox           |
|  \\    /   O peration     | Version:  2.3.0                                 |
|   \\  /    A nd           | Web:      www.OpenFOAM.org                      |
|    \\/     M anipulation  |                                                 |
\*---------------------------------------------------------------------------*/
FoamFile
{
    version     2.0;
    format      ascii;
    class       volScalarField;
    location    "1.95";
    object      k;
}
// * * * * * * * * * * * * * * * * * * * * * * * * * * * * * * * * * * * * * //

dimensions      [0 2 -2 0 0 0 0];

internalField   nonuniform List<scalar> 
2268
(
0.00213588
0.00503745
0.00752563
0.00942788
0.0110183
0.0123977
0.0136236
0.0147292
0.0157334
0.0166461
0.0174716
0.0182125
0.0188635
0.0193894
0.0197557
0.0199158
0.0198026
0.0193044
0.0181574
0.0164006
0.0138142
0.00999619
0.00501232
0.00404004
0.0113793
0.0164844
0.0206009
0.0240573
0.0270793
0.0297839
0.0322375
0.0344782
0.0365252
0.0383852
0.0400561
0.0415174
0.0427354
0.0436583
0.0442078
0.0442599
0.0435858
0.0416552
0.0383403
0.0332016
0.0246086
0.0110205
0.00543993
0.0148646
0.0211508
0.0262561
0.0306174
0.0344578
0.0379056
0.0410402
0.0439104
0.0465429
0.0489507
0.0511376
0.0530895
0.0547837
0.0561791
0.0571996
0.0577022
0.0574101
0.0557996
0.0524063
0.0463705
0.0356842
0.0159484
0.00680162
0.01757
0.0246454
0.0304241
0.0354071
0.0398188
0.0437915
0.0474119
0.0507369
0.0538016
0.0566279
0.0592299
0.0616065
0.0637528
0.0656467
0.0672242
0.0683369
0.0686847
0.0677269
0.06478
0.0587088
0.0469824
0.0214961
0.00803678
0.0199343
0.0276554
0.0339693
0.0394485
0.0443218
0.0487237
0.0527459
0.0564535
0.0598913
0.0630925
0.0660866
0.0688912
0.0715268
0.0739989
0.0762642
0.0781773
0.0794232
0.0794379
0.0773972
0.0719021
0.0596435
0.0282565
0.00914179
0.0221015
0.0303995
0.0371808
0.0430904
0.048366
0.0531448
0.0575244
0.0615788
0.0653638
0.0689277
0.0723198
0.0755842
0.0787758
0.0819396
0.0850642
0.0880141
0.0904592
0.0918105
0.0911651
0.0869406
0.0749903
0.0369136
0.0101436
0.0241204
0.0329675
0.0401862
0.0464915
0.0521349
0.0572596
0.0619709
0.0663532
0.0704756
0.0744045
0.0782155
0.0819882
0.0858243
0.0898243
0.0940244
0.0983045
0.102309
0.10541
0.106678
0.104538
0.094465
0.0507485
0.0110647
0.0260097
0.0354016
0.0430498
0.0497348
0.055726
0.0611771
0.0662046
0.0709053
0.0753638
0.0796685
0.0839289
0.088271
0.0928593
0.0978729
0.103418
0.109392
0.115383
0.120685
0.124361
0.125095
0.119465
0.0843894
0.00993809
0.0206955
0.0316759
0.0366317
0.0373007
0.0363809
0.0349564
0.0330081
0.0300887
0.0262261
0.0224906
0.0187306
0.0151292
0.0119415
0.00939577
0.00791127
0.00688372
0.00546097
0.00392382
0.0181392
0.0434214
0.0651235
0.0749027
0.0763435
0.0744237
0.0713053
0.067198
0.0615607
0.0543307
0.0468937
0.0396642
0.0330626
0.0273559
0.0223207
0.019078
0.0164374
0.0127365
0.00682287
0.0211104
0.0562945
0.0806973
0.091963
0.0944001
0.0925907
0.0890293
0.0841203
0.0774013
0.0689958
0.0603015
0.0518065
0.0438614
0.0368202
0.0305761
0.0262593
0.0227396
0.0179623
0.00924179
0.0226289
0.0664611
0.0918763
0.104209
0.107368
0.105669
0.101723
0.0960979
0.0885112
0.0792629
0.0697257
0.0604801
0.0517828
0.0439655
0.037059
0.0320047
0.0279746
0.02277
0.011698
0.0264449
0.076523
0.102681
0.115454
0.118927
0.117084
0.11252
0.105973
0.0974167
0.0873913
0.0771253
0.0672835
0.0580916
0.0498235
0.042608
0.0371193
0.0327201
0.0272182
0.0143132
0.0367336
0.0900218
0.115109
0.127322
0.130485
0.128047
0.122462
0.114657
0.104941
0.0941369
0.0832535
0.0729397
0.0634303
0.0549153
0.0475947
0.0419053
0.0372518
0.0314579
0.016847
0.0655969
0.109147
0.13029
0.140502
0.142535
0.138932
0.131841
0.122413
0.111367
0.0998141
0.0885139
0.0779112
0.0682134
0.0595822
0.052243
0.0464788
0.0416559
0.0355708
0.019298
0.104968
0.133248
0.148074
0.154863
0.154974
0.149615
0.140541
0.129205
0.116775
0.104562
0.093136
0.0825038
0.0727292
0.0640506
0.0567033
0.0508828
0.0459366
0.0395774
0.0217391
0.0122737
0.0286872
0.0389407
0.0472648
0.0545359
0.0610588
0.0670122
0.0725346
0.0777455
0.0827548
0.0876895
0.0927157
0.0980599
0.104021
0.110952
0.119118
0.128446
0.138331
0.147785
0.155799
0.161588
0.164286
0.159122
0.0136469
0.0319477
0.0434221
0.0526949
0.0607473
0.0679459
0.0745296
0.0806874
0.0865845
0.0923747
0.0982575
0.104511
0.111575
0.120067
0.130804
0.144534
0.161176
0.17915
0.196124
0.210083
0.220482
0.227519
0.231098
0.0148498
0.0352547
0.047864
0.0580324
0.0667944
0.0745773
0.0817081
0.0884455
0.0950116
0.101606
0.10853
0.116229
0.125398
0.137161
0.153263
0.175637
0.204072
0.233796
0.259015
0.276107
0.285985
0.28953
0.287364
0.0168841
0.0387024
0.0521821
0.0631383
0.0725449
0.0808236
0.0884093
0.0956508
0.10282
0.110172
0.118172
0.127477
0.139061
0.154581
0.1775
0.213052
0.261387
0.308119
0.340424
0.353492
0.355443
0.348405
0.333302
0.0186868
0.0411866
0.0555092
0.0672035
0.0772545
0.0860825
0.0941531
0.101925
0.109633
0.117486
0.12619
0.136751
0.150252
0.168983
0.199327
0.254775
0.334597
0.375041
0.377748
0.376494
0.366356
0.350231
0.327565
0.0177376
0.0414447
0.0576345
0.0704249
0.0811739
0.0904386
0.0987695
0.106763
0.114537
0.122544
0.131718
0.143082
0.157813
0.178561
0.211815
0.266893
0.330008
0.355377
0.346977
0.334603
0.322687
0.30982
0.294522
0.0193243
0.042972
0.0594132
0.0724626
0.0834848
0.0930456
0.101525
0.109535
0.117589
0.126118
0.136041
0.148348
0.163945
0.184788
0.215276
0.255658
0.295705
0.317486
0.320326
0.309887
0.297637
0.286514
0.275608
0.0221032
0.0475615
0.0633151
0.0755577
0.0859628
0.0951675
0.103589
0.111705
0.119975
0.128981
0.139524
0.152296
0.167674
0.187365
0.213138
0.243135
0.270945
0.28941
0.297915
0.294478
0.286976
0.277455
0.267428
0.0246294
0.0523391
0.0677861
0.0793654
0.0891172
0.0977953
0.105856
0.113738
0.121907
0.130914
0.141434
0.153926
0.168907
0.187199
0.208912
0.232065
0.253545
0.270539
0.279409
0.277711
0.274865
0.268012
0.257271
0.0267195
0.0562844
0.0714938
0.0826111
0.0918655
0.100057
0.107645
0.115046
0.122731
0.131261
0.141249
0.153313
0.16798
0.185059
0.20357
0.222241
0.239767
0.254259
0.260882
0.259202
0.255989
0.251377
0.243067
0.0286378
0.0590352
0.0740339
0.0847491
0.0935734
0.101338
0.108501
0.11546
0.122655
0.130592
0.139808
0.150882
0.164248
0.179579
0.195773
0.211668
0.226113
0.236923
0.241231
0.240285
0.237748
0.234036
0.227328
0.029972
0.0608336
0.0755343
0.0858019
0.0941712
0.101514
0.108293
0.114881
0.121665
0.129064
0.137504
0.147394
0.159005
0.172151
0.18602
0.199528
0.211293
0.219505
0.222809
0.222786
0.221077
0.217757
0.212085
0.0306014
0.0616758
0.0760345
0.0858466
0.0937603
0.100695
0.107122
0.11339
0.119828
0.126765
0.134519
0.14336
0.153436
0.164596
0.176248
0.187439
0.196962
0.203527
0.206397
0.206735
0.205478
0.202744
0.198156
0.0305938
0.0615661
0.075559
0.0849507
0.0924509
0.0990158
0.105124
0.111103
0.11723
0.12376
0.130923
0.138888
0.147713
0.15724
0.166993
0.176187
0.183862
0.189127
0.191622
0.192058
0.191114
0.189003
0.185472
0.0300212
0.060507
0.0741191
0.0831532
0.0903132
0.0965683
0.102399
0.108112
0.113946
0.120096
0.126727
0.133932
0.141708
0.149881
0.15805
0.165593
0.17179
0.176048
0.178203
0.178701
0.178029
0.176405
0.173759
0.0289885
0.058491
0.0717213
0.0804798
0.0873864
0.0934025
0.0990016
0.104473
0.110022
0.115805
0.121931
0.128446
0.135304
0.142331
0.149191
0.155407
0.160465
0.16398
0.165878
0.166438
0.166012
0.1648
0.162815
0.0275443
0.0556475
0.0684325
0.0769614
0.0837006
0.0895483
0.0949629
0.100219
0.105495
0.11092
0.116566
0.122445
0.128491
0.134544
0.140335
0.14551
0.149711
0.152693
0.154422
0.155066
0.154879
0.154023
0.152531
0.025684
0.0521097
0.0644006
0.0727115
0.0793108
0.0850389
0.0903149
0.0953861
0.100414
0.105504
0.110704
0.116009
0.121351
0.126594
0.13153
0.135906
0.13948
0.142094
0.143729
0.144486
0.144541
0.144015
0.142946
0.0234947
0.0480318
0.0597686
0.0678588
0.074336
0.0799622
0.0851237
0.0900425
0.094856
0.0996483
0.104455
0.109264
0.114018
0.118609
0.122884
0.126667
0.129797
0.132171
0.133777
0.134672
0.134974
0.13477
0.134096
0.0211099
0.0435917
0.0546968
0.0625445
0.0689023
0.0744416
0.0795085
0.0842993
0.0889311
0.0934716
0.0979486
0.102353
0.106639
0.110726
0.11451
0.11787
0.120701
0.122936
0.12456
0.125609
0.126156
0.126262
0.125954
0.0185956
0.0389055
0.0493478
0.0569347
0.0631672
0.0686257
0.0736118
0.0782962
0.0827785
0.0871148
0.0913292
0.0954171
0.0993472
0.103065
0.106498
0.109571
0.112213
0.11438
0.116054
0.11726
0.118042
0.118434
0.118455
0.0159871
0.0339985
0.0438623
0.0512119
0.0573185
0.0626966
0.0676087
0.0722021
0.0765624
0.0807371
0.084749
0.0885993
0.0922694
0.0957241
0.0989182
0.101805
0.104333
0.106473
0.108217
0.109574
0.110567
0.111212
0.111521
0.01347
0.0290946
0.0384542
0.0455827
0.0515672
0.0568623
0.0617005
0.0662114
0.0704702
0.0745152
0.0783712
0.0820453
0.0855288
0.0887992
0.0918293
0.0945893
0.0970505
0.099193
0.101009
0.1025
0.103673
0.104536
0.10509
0.0111499
0.0247007
0.0335028
0.0403679
0.0462022
0.0513908
0.0561368
0.0605546
0.0647103
0.0686416
0.07237
0.0759046
0.0792436
0.0823769
0.0852895
0.0879642
0.0903841
0.0925364
0.0944132
0.0960119
0.0973315
0.0983711
0.0991289
0.00929131
0.0212893
0.0293996
0.0359016
0.0415154
0.0465485
0.0511672
0.055468
0.0595083
0.063322
0.0669288
0.0703387
0.0735546
0.0765735
0.0793891
0.0819928
0.084375
0.0865273
0.088443
0.0901169
0.0915441
0.0927196
0.0936391
0.00807752
0.0189816
0.0263865
0.0324469
0.0377643
0.0425801
0.0470236
0.0511711
0.0550693
0.0587469
0.0622213
0.0655028
0.0685961
0.0715025
0.0742208
0.0767482
0.07908
0.0812108
0.0831354
0.0848481
0.0863424
0.0876111
0.0886494
0.00746503
0.0176624
0.0244764
0.0301002
0.0350876
0.0396428
0.0438687
0.0478249
0.0515485
0.055063
0.0583835
0.0615196
0.0644769
0.0672596
0.0698695
0.0723054
0.0745653
0.0766463
0.0785445
0.080255
0.0817724
0.0830906
0.0842037
0.00728263
0.0171321
0.0235378
0.0288027
0.0334828
0.0377715
0.0417603
0.0455004
0.0490231
0.0523489
0.0554915
0.0584604
0.0612626
0.0639032
0.066384
0.0687059
0.0708687
0.0728712
0.0747107
0.0763833
0.0778842
0.0792079
0.0803497
0.00738588
0.0172089
0.0233952
0.0284124
0.0328469
0.0368984
0.0406587
0.0441782
0.0474881
0.0506091
0.0535557
0.0563386
0.0589664
0.0614434
0.0637732
0.065958
0.067999
0.0698958
0.0716469
0.0732494
0.0746994
0.0759923
0.0771236
0.00769549
0.0177595
0.0238928
0.0287764
0.0330428
0.0369065
0.0404666
0.0437789
0.0468789
0.0497909
0.0525327
0.0551179
0.0575556
0.0598525
0.0620134
0.064042
0.0659402
0.0677087
0.0693467
0.0708522
0.0722222
0.0734527
0.0745397
0.00817804
0.0187043
0.0249259
0.0297796
0.0339536
0.0376828
0.0410783
0.0442052
0.0471069
0.0498141
0.0523497
0.0547308
0.0569701
0.0590765
0.061057
0.062916
0.0646565
0.06628
0.0677864
0.0691743
0.0704414
0.0715842
0.0725989
0.00882428
0.0200146
0.0264487
0.0313628
0.0355098
0.0391505
0.0424127
0.0453741
0.0480884
0.0505959
0.0529266
0.0551027
0.0571407
0.0590523
0.0608461
0.0625281
0.0641019
0.0655698
0.0669322
0.0681883
0.0693361
0.0703724
0.0712933
0.00962539
0.0216939
0.0284653
0.0335202
0.0376915
0.0412744
0.04442
0.047225
0.0497579
0.0520693
0.0541971
0.056169
0.0580054
0.059721
0.0613262
0.062828
0.064231
0.0655378
0.0667493
0.0678651
0.0688832
0.0698004
0.0706122
0.0105995
0.0237805
0.0310087
0.0362742
0.0405061
0.0440473
0.0470819
0.0497307
0.05208
0.054193
0.0561162
0.0578831
0.0595179
0.0610377
0.0624544
0.063776
0.0650075
0.0661518
0.0672101
0.0681817
0.0690648
0.0698556
0.0705492
0.0117921
0.0263767
0.0341845
0.039713
0.0440182
0.0475096
0.0504169
0.0528927
0.0550443
0.0569486
0.0586605
0.0602189
0.0616509
0.0629753
0.0642049
0.0653479
0.0664097
0.0673932
0.0682991
0.0691268
0.0698739
0.0705362
0.0711075
0.0132729
0.0296274
0.0381425
0.0439615
0.0483186
0.0517209
0.0544606
0.0567292
0.0586574
0.0603354
0.0618252
0.0631692
0.0643963
0.0655257
0.0665702
0.0675379
0.0684336
0.0692598
0.0700171
0.0707043
0.0713184
0.0718544
0.0723047
0.0151514
0.0337527
0.0430937
0.0491813
0.0535165
0.0567497
0.0592545
0.0612658
0.0629362
0.0643658
0.0656205
0.0667438
0.067764
0.0686996
0.0695621
0.0703587
0.0710935
0.0717683
0.0723829
0.0729358
0.0734232
0.0738393
0.074175
0.0176166
0.0391073
0.0493383
0.0555701
0.0597267
0.06266
0.0648361
0.0665283
0.0679028
0.069062
0.0700704
0.0709685
0.0717819
0.0725264
0.0732117
0.0738432
0.0744238
0.0749545
0.0754344
0.0758614
0.0762315
0.0765382
0.0767712
0.0210623
0.0463015
0.0572941
0.0633416
0.0670424
0.069491
0.0712272
0.0725378
0.0735832
0.0744566
0.0752132
0.0758866
0.0764969
0.0770561
0.0775709
0.0780448
0.0784795
0.0788748
0.0792295
0.0795413
0.079806
0.080017
0.0801639
0.0266124
0.0564384
0.0674737
0.0726427
0.0754766
0.0772291
0.0784247
0.0793099
0.0800109
0.0805966
0.0811063
0.0815625
0.0819783
0.0823611
0.0827144
0.08304
0.0833381
0.0836079
0.083848
0.0840562
0.0842289
0.0843603
0.0844411
0.0385951
0.0716415
0.0802003
0.0833378
0.0848719
0.0857832
0.0864017
0.0868642
0.0872364
0.087553
0.0878333
0.0880881
0.0883232
0.0885416
0.0887443
0.0889316
0.0891029
0.0892574
0.0893937
0.0895103
0.0896047
0.089673
0.0897086
0.0858684
0.0937113
0.0943657
0.0946346
0.0948391
0.0950031
0.0951366
0.0952486
0.0953461
0.0954339
0.095515
0.0955911
0.0956628
0.0957305
0.095794
0.095853
0.095907
0.0959555
0.0959981
0.096034
0.0960626
0.0960825
0.0960913
0.133892
0.123287
0.12039
0.12362
0.230008
0.228096
0.22591
0.223844
0.282538
0.278285
0.273591
0.26881
0.319584
0.310662
0.302473
0.294695
0.309453
0.299074
0.289587
0.280256
0.281933
0.273908
0.265803
0.257825
0.267223
0.260106
0.25179
0.243961
0.257898
0.249938
0.241928
0.23471
0.24774
0.241082
0.233783
0.226488
0.23425
0.228306
0.222059
0.215516
0.219852
0.214803
0.209545
0.20395
0.206041
0.2019
0.197529
0.192804
0.193392
0.190058
0.186451
0.18247
0.181776
0.179121
0.176166
0.172834
0.17092
0.16882
0.166411
0.163669
0.160639
0.158988
0.157059
0.154862
0.15088
0.149608
0.148119
0.146422
0.14172
0.140777
0.139672
0.138402
0.133235
0.132561
0.131764
0.130844
0.125416
0.12497
0.124424
0.123776
0.118196
0.117943
0.117604
0.117179
0.111501
0.111412
0.111247
0.111005
0.105272
0.105322
0.105304
0.105217
0.0994805
0.0996482
0.0997532
0.0997953
0.0941282
0.0943922
0.0945991
0.0947484
0.0892438
0.089583
0.0898703
0.0901049
0.0848709
0.0852636
0.0856092
0.0859071
0.081055
0.0814789
0.0818608
0.0821999
0.0778359
0.0782689
0.0786645
0.0790222
0.0752322
0.0756559
0.0760461
0.0764022
0.073249
0.0736479
0.0740165
0.0743542
0.0718833
0.0722448
0.0725785
0.072884
0.0711289
0.0714435
0.0717323
0.0719946
0.0709837
0.0712451
0.0714817
0.071693
0.0714554
0.07166
0.0718403
0.0719955
0.0725657
0.0727132
0.0728363
0.0729339
0.0743539
0.0744474
0.0745162
0.0745587
0.0768777
0.0769242
0.0769459
0.076941
0.080213
0.0802235
0.0802105
0.0801717
0.0844522
0.0844411
0.0844099
0.0843565
0.0897023
0.0896856
0.089655
0.0896089
0.0960861
0.096078
0.096065
0.0960467
0.151239
0.167952
0.174966
0.17717
0.174188
0.165396
0.152506
0.137943
0.123578
0.110738
0.0995135
0.0892803
0.0796848
0.0709912
0.0635561
0.0575164
0.0523593
0.0456203
0.0254649
0.220804
0.215981
0.212031
0.207569
0.197432
0.181765
0.163452
0.145625
0.129953
0.117051
0.106414
0.0970118
0.0880931
0.0795764
0.0717242
0.0647837
0.0588809
0.051507
0.028729
0.260337
0.249229
0.239251
0.228605
0.21455
0.192607
0.170093
0.150702
0.134645
0.121943
0.111883
0.103242
0.0950592
0.0868636
0.0786769
0.0705308
0.0631025
0.0546014
0.0299487
0.281105
0.260057
0.241479
0.228055
0.215567
0.198225
0.174884
0.154276
0.138021
0.125614
0.116116
0.10818
0.100319
0.0921029
0.0836149
0.0741977
0.0645742
0.0542199
0.0294581
0.266135
0.246403
0.231772
0.222603
0.2129
0.196364
0.174178
0.154642
0.13964
0.128383
0.119772
0.112554
0.104847
0.0958023
0.0862549
0.0751935
0.0636087
0.0516921
0.0283149
0.24614
0.231934
0.221368
0.212897
0.201867
0.186136
0.168205
0.152255
0.139539
0.130044
0.123565
0.118499
0.111194
0.0993475
0.0863619
0.0734619
0.061624
0.0492513
0.0257322
0.233321
0.221274
0.211384
0.201558
0.189763
0.175539
0.160762
0.147665
0.137129
0.129561
0.125122
0.124205
0.123288
0.105664
0.0863194
0.0706486
0.0577
0.0451502
0.0224119
0.224992
0.213383
0.202041
0.190873
0.179025
0.166232
0.153464
0.14207
0.132918
0.126622
0.123587
0.123831
0.129093
0.114911
0.0879786
0.0690241
0.0543896
0.0419223
0.0198681
0.216077
0.203503
0.191824
0.180886
0.169742
0.158171
0.146675
0.136331
0.128057
0.122511
0.119955
0.120221
0.120153
0.110191
0.0902113
0.070066
0.0534082
0.0403385
0.0181889
0.205111
0.191593
0.179734
0.169071
0.159002
0.149051
0.139258
0.130255
0.122838
0.118003
0.116247
0.116322
0.114487
0.103831
0.0884515
0.0715723
0.0547734
0.0389446
0.0172203
0.194556
0.181467
0.169616
0.159059
0.1494
0.14034
0.131798
0.123995
0.117394
0.112685
0.110616
0.110169
0.107644
0.0988974
0.0858334
0.0714154
0.0562675
0.0394332
0.0173873
0.184596
0.172598
0.161396
0.151283
0.142081
0.13354
0.125618
0.118417
0.112182
0.107264
0.104
0.102047
0.0992416
0.0925512
0.0823458
0.0700059
0.0555714
0.0385264
0.0165233
0.175396
0.164736
0.154524
0.145137
0.136542
0.128507
0.121002
0.114114
0.10792
0.102552
0.0982546
0.0949717
0.0914427
0.0855115
0.0770098
0.0660818
0.0523455
0.0356458
0.0144259
0.166824
0.157585
0.148527
0.140046
0.132219
0.12487
0.117864
0.111237
0.104943
0.0990212
0.0937273
0.089181
0.0845891
0.0784872
0.0704759
0.0601932
0.0472196
0.0315649
0.0123222
0.158682
0.150878
0.143042
0.135558
0.128578
0.122029
0.115693
0.109397
0.103026
0.09668
0.0905751
0.084852
0.0791127
0.0724689
0.0643916
0.0545277
0.042667
0.0288445
0.0119256
0.150846
0.144435
0.137822
0.131362
0.125242
0.119469
0.113832
0.107969
0.101721
0.0952348
0.0887079
0.0822337
0.0756615
0.0685434
0.060462
0.051243
0.0407742
0.0286995
0.0129423
0.143288
0.138165
0.132722
0.127265
0.121981
0.116909
0.111874
0.106502
0.100595
0.0942584
0.0876865
0.0809772
0.0740984
0.0668689
0.0590735
0.0506204
0.041349
0.030363
0.014408
0.136028
0.132039
0.127668
0.123154
0.118661
0.114227
0.109711
0.104817
0.0993491
0.0933562
0.0869969
0.0803922
0.0735824
0.0665405
0.0591987
0.0514827
0.0430546
0.032639
0.0157653
0.1291
0.126068
0.122637
0.118977
0.115211
0.111365
0.107325
0.102874
0.0978576
0.0922892
0.0862828
0.0799622
0.0734142
0.0666951
0.0598205
0.0526993
0.0448697
0.0347358
0.0168325
0.122524
0.12028
0.117644
0.114727
0.111611
0.108305
0.104714
0.100682
0.0961048
0.0909792
0.0853879
0.0794454
0.0732602
0.0669273
0.0604909
0.0538282
0.0464055
0.0364823
0.0176612
0.116323
0.114696
0.112709
0.110422
0.10788
0.105063
0.101898
0.0982764
0.0941247
0.0894417
0.0842942
0.0787806
0.0730146
0.0670991
0.0610707
0.0547838
0.047679
0.0380251
0.0183993
0.110473
0.109345
0.107875
0.106107
0.104051
0.101679
0.0989254
0.0957066
0.0919717
0.0877346
0.0830429
0.0779841
0.0726647
0.0671762
0.0615285
0.0555678
0.0487373
0.0393595
0.0191345
0.104955
0.104236
0.103192
0.101846
0.100198
0.0982165
0.0958451
0.093023
0.0897125
0.0859182
0.081684
0.0770874
0.0722207
0.0671561
0.0618846
0.0562208
0.0496085
0.040367
0.0198482
0.0997603
0.0993814
0.0986922
0.0977034
0.0964069
0.094773
0.0927551
0.0903063
0.0873983
0.0840351
0.080254
0.0761193
0.0717037
0.0670531
0.0621326
0.056737
0.0503046
0.0411439
0.0203781
0.0949016
0.0948044
0.0944118
0.0937261
0.092735
0.0914109
0.0897164
0.0876152
0.0850863
0.0821334
0.0787865
0.0750948
0.0711097
0.0668505
0.062257
0.0571067
0.0508274
0.0417148
0.0207536
0.0904093
0.0905402
0.0903917
0.0899604
0.0892321
0.088182
0.0867798
0.0849975
0.0828191
0.0802475
0.0773045
0.0740245
0.0704375
0.0665398
0.0622472
0.0573209
0.0511738
0.0420833
0.0210038
0.0863253
0.0866325
0.0866776
0.0864538
0.0859461
0.0851328
0.0839889
0.0824922
0.0806301
0.0784035
0.0758263
0.0729182
0.0696903
0.0661184
0.062098
0.0573743
0.0513445
0.0422616
0.0211308
0.0826944
0.0831267
0.0833156
0.0832523
0.082922
0.0823053
0.0813814
0.0801323
0.0785469
0.0766234
0.0743677
0.0717867
0.0688743
0.0655887
0.0618094
0.0572668
0.0513466
0.0422799
0.0211476
0.0795563
0.0800638
0.0803476
0.0803976
0.0801996
0.0797366
0.0789907
0.0779466
0.0765936
0.0749268
0.0729448
0.0706427
0.068
0.064959
0.0613885
0.0570058
0.0511917
0.0421694
0.0210776
0.0769409
0.0774767
0.077808
0.0779245
0.077813
0.0774583
0.0768451
0.0759599
0.0747917
0.0733326
0.0715741
0.0695017
0.0670824
0.0642458
0.0608498
0.0566069
0.0508937
0.0419419
0.0209546
0.0748674
0.0753886
0.0757232
0.0758609
0.0757897
0.0754966
0.0749687
0.0741937
0.0731605
0.0718582
0.0702727
0.0683808
0.0661396
0.0634683
0.0602158
0.0560922
0.0504702
0.0415929
0.0208063
0.0733476
0.0738162
0.0741133
0.0742289
0.0741525
0.0738735
0.0733815
0.0726664
0.0717172
0.0705205
0.0690575
0.0672981
0.0651913
0.0626485
0.0595118
0.0554859
0.0499454
0.0411314
0.0206189
0.072389
0.0727728
0.0729962
0.0730489
0.0729222
0.0726088
0.0721019
0.0713945
0.0704769
0.0693345
0.0679447
0.0662716
0.064258
0.0618087
0.0587611
0.0548163
0.0493448
0.040591
0.0203115
0.0720032
0.0722772
0.0723939
0.0723447
0.0721226
0.0717242
0.0711484
0.0703938
0.0694539
0.0683144
0.0669497
0.0653192
0.0633599
0.0609716
0.0579875
0.0541064
0.048699
0.0400175
0.0199205
0.072212
0.0723566
0.0723391
0.0721509
0.0717868
0.0712484
0.0705436
0.0696811
0.0686616
0.0674728
0.0660867
0.0644579
0.0625181
0.060162
0.0572195
0.0533876
0.0480412
0.0394535
0.0196225
0.0730526
0.0730563
0.0728838
0.0725221
0.0719669
0.0712251
0.0703191
0.0692771
0.0681136
0.0668207
0.0653679
0.0637036
0.0617529
0.0594058
0.0564889
0.0526978
0.0474087
0.0389156
0.0193823
0.0745831
0.0744453
0.0741077
0.0735449
0.0727475
0.0717251
0.0705222
0.0692075
0.0678226
0.0663665
0.0648028
0.0630698
0.0610834
0.0587275
0.0558257
0.0520712
0.0468338
0.0384073
0.0191483
0.0768843
0.0766216
0.0761285
0.0753554
0.0742678
0.0728664
0.0712248
0.0695041
0.0677984
0.0661127
0.0643956
0.0625664
0.060526
0.0581497
0.0552578
0.0515401
0.0463528
0.0379733
0.018943
0.0800589
0.0797126
0.0791077
0.0781547
0.0767546
0.074852
0.0725309
0.0701967
0.0680379
0.06605
0.0641419
0.062197
0.0600927
0.0576919
0.0548115
0.0511377
0.0460084
0.0376723
0.0188169
0.0842246
0.0838657
0.0832438
0.0822185
0.080572
0.0780439
0.0745644
0.071281
0.0685039
0.0661457
0.0640225
0.0619556
0.0597875
0.0573661
0.0545057
0.0508904
0.0458358
0.0375479
0.018795
0.0895024
0.089226
0.0887383
0.0878723
0.086266
0.0831442
0.0773564
0.072621
0.0690786
0.0663264
0.0639978
0.0618231
0.059603
0.0571704
0.0543408
0.0507943
0.045823
0.0375923
0.0188571
0.0960061
0.095904
0.0957193
0.095355
0.0944821
0.0917359
0.0803339
0.073743
0.0695112
0.0664693
0.0640071
0.0617677
0.0595191
0.0570849
0.0542859
0.0507845
0.0458215
0.0375122
0.0187109
)
;

boundaryField
{
    leftWall
    {
        type            kqRWallFunction;
        value           nonuniform List<scalar> 
50
(
0.00213588
0.00404004
0.00543993
0.00680162
0.00803678
0.00914179
0.0101436
0.0110647
0.0122737
0.0136469
0.0148498
0.0168841
0.0186868
0.0177376
0.0193243
0.0221032
0.0246294
0.0267195
0.0286378
0.029972
0.0306014
0.0305938
0.0300212
0.0289885
0.0275443
0.025684
0.0234947
0.0211099
0.0185956
0.0159871
0.01347
0.0111499
0.00929131
0.00807752
0.00746503
0.00728263
0.00738588
0.00769549
0.00817804
0.00882428
0.00962539
0.0105995
0.0117921
0.0132729
0.0151514
0.0176166
0.0210623
0.0266124
0.0385951
0.0858684
)
;
    }
    rightWall
    {
        type            kqRWallFunction;
        value           nonuniform List<scalar> 
50
(
0.00392382
0.00682287
0.00924179
0.011698
0.0143132
0.016847
0.019298
0.0217391
0.0254649
0.028729
0.0299487
0.0294581
0.0283149
0.0257322
0.0224119
0.0198681
0.0181889
0.0172203
0.0173873
0.0165233
0.0144259
0.0123222
0.0119256
0.0129423
0.014408
0.0157653
0.0168325
0.0176612
0.0183993
0.0191345
0.0198482
0.0203781
0.0207536
0.0210038
0.0211308
0.0211476
0.0210776
0.0209546
0.0208063
0.0206189
0.0203115
0.0199205
0.0196225
0.0193823
0.0191483
0.018943
0.0188169
0.018795
0.0188571
0.0187109
)
;
    }
    lowerWall
    {
        type            kqRWallFunction;
        value           nonuniform List<scalar> 
62
(
0.00213588
0.00503745
0.00752563
0.00942788
0.0110183
0.0123977
0.0136236
0.0147292
0.0157334
0.0166461
0.0174716
0.0182125
0.0188635
0.0193894
0.0197557
0.0199158
0.0198026
0.0193044
0.0181574
0.0164006
0.0138142
0.00999619
0.00501232
0.00501232
0.0110205
0.0159484
0.0214961
0.0282565
0.0369136
0.0507485
0.0843894
0.133892
0.123287
0.12039
0.12362
0.00993809
0.0181392
0.0211104
0.0226289
0.0264449
0.0367336
0.0655969
0.104968
0.00993809
0.0206955
0.0316759
0.0366317
0.0373007
0.0363809
0.0349564
0.0330081
0.0300887
0.0262261
0.0224906
0.0187306
0.0151292
0.0119415
0.00939577
0.00791127
0.00688372
0.00546097
0.00392382
)
;
    }
    atmosphere
    {
        type            inletOutlet;
        inletValue      uniform 0.1;
        value           nonuniform List<scalar> 
46
(
0.1
0.1
0.1
0.1
0.1
0.1
0.1
0.1
0.1
0.1
0.1
0.1
0.1
0.1
0.1
0.1
0.1
0.1
0.1
0.1
0.1
0.1
0.1
0.1
0.1
0.1
0.1
0.1
0.1
0.1
0.1
0.1
0.1
0.0803339
0.073743
0.0695112
0.0664693
0.0640071
0.0617677
0.0595191
0.0570849
0.0542859
0.0507845
0.0458215
0.0375122
0.0187109
)
;
    }
    defaultFaces
    {
        type            empty;
    }
}


// ************************************************************************* //
