/*--------------------------------*- C++ -*----------------------------------*\
| =========                 |                                                 |
| \\      /  F ield         | OpenFOAM: The Open Source CFD Toolbox           |
|  \\    /   O peration     | Version:  2.3.0                                 |
|   \\  /    A nd           | Web:      www.OpenFOAM.org                      |
|    \\/     M anipulation  |                                                 |
\*---------------------------------------------------------------------------*/
FoamFile
{
    version     2.0;
    format      ascii;
    class       volScalarField;
    location    "1.95";
    object      nut;
}
// * * * * * * * * * * * * * * * * * * * * * * * * * * * * * * * * * * * * * //

dimensions      [0 2 -1 0 0 0 0];

internalField   nonuniform List<scalar> 
2268
(
4.19399e-05
4.69836e-05
5.73482e-05
6.41757e-05
6.9339e-05
7.35703e-05
7.71183e-05
8.01763e-05
8.28584e-05
8.52419e-05
8.7383e-05
8.93403e-05
9.11088e-05
9.26202e-05
9.38096e-05
9.45662e-05
9.47127e-05
9.39303e-05
9.15794e-05
8.73654e-05
8.02928e-05
6.82857e-05
4.75593e-05
8.97674e-05
0.000372744
0.000506273
0.000594935
0.000660641
0.000712867
0.000756032
0.00079288
0.000825306
0.000854697
0.000882099
0.000908146
0.000932353
0.000954594
0.000973419
0.000986552
0.000991032
0.00098209
0.000945495
0.000889427
0.000809788
0.000609219
0.000150095
0.000103747
0.000617339
0.000910695
0.00110949
0.00125953
0.00137931
0.00147847
0.00156316
0.0016378
0.0017058
0.00176981
0.00183153
0.00189069
0.00194632
0.00199501
0.0020311
0.0020467
0.00202987
0.0019594
0.00182636
0.00158625
0.00107271
0.000181051
0.000115489
0.000771738
0.00120559
0.00150918
0.00174186
0.00192948
0.00208595
0.00222024
0.00233899
0.00244742
0.00254964
0.00264836
0.00274351
0.00283312
0.00291156
0.00296956
0.00299433
0.00296792
0.00286292
0.00264645
0.00223643
0.00144331
0.00021049
0.000125323
0.000875009
0.00142341
0.00181917
0.0021274
0.00237869
0.00258995
0.00277231
0.00293413
0.00308211
0.00322159
0.00335597
0.00348526
0.00360624
0.00371084
0.00378631
0.00381597
0.00377807
0.00364019
0.00334986
0.00279298
0.00175607
0.000242434
0.000133457
0.00095074
0.00158966
0.00206394
0.00243916
0.00274838
0.00301039
0.00323781
0.00344031
0.00362574
0.00380037
0.00396809
0.00412864
0.00427723
0.00440314
0.00449064
0.00452094
0.00447159
0.00430838
0.00396632
0.00330316
0.00206078
0.000278542
0.000140383
0.00101097
0.00172185
0.00226218
0.00269583
0.00305682
0.00336494
0.00363375
0.00387387
0.00409405
0.00430122
0.00449948
0.00468796
0.00485988
0.00500179
0.00509583
0.00512364
0.00506595
0.00489109
0.00452906
0.00381355
0.00240403
0.000327578
0.000146493
0.00106215
0.00183178
0.00242764
0.0029119
0.00331867
0.00366816
0.0039745
0.00424898
0.00450097
0.00473785
0.00496369
0.00517657
0.00536729
0.00551975
0.00561538
0.00563937
0.00557972
0.00541131
0.0050669
0.00437098
0.00287093
0.000423542
6.6038e-05
9.43887e-05
0.000116068
0.00012449
0.000125307
0.000123872
0.000121918
0.000119341
0.000114846
0.000107225
9.92755e-05
9.05934e-05
8.14668e-05
7.24522e-05
6.37251e-05
5.81615e-05
5.4522e-05
4.93026e-05
5.99169e-05
0.000209672
0.000628601
0.000909393
0.00103695
0.00107956
0.00108315
0.00107062
0.00104318
0.000990034
0.000893067
0.00077964
0.000670042
0.000578687
0.000512212
0.000455112
0.000441955
0.000438952
0.000380618
0.000131574
0.000226222
0.00100701
0.00148685
0.00177693
0.0019284
0.00199251
0.00200565
0.0019733
0.00188051
0.0017114
0.00150692
0.00129799
0.00110946
0.000963724
0.000861275
0.00083354
0.000814928
0.000653443
0.000152357
0.000233206
0.00117238
0.001804
0.00225578
0.00253338
0.00268
0.00273678
0.00271515
0.00260374
0.00239377
0.00213017
0.00185273
0.00159244
0.00138308
0.00124503
0.00119391
0.00113823
0.000880041
0.000170142
0.000251026
0.00121874
0.00198525
0.00258522
0.00298436
0.00321316
0.00331552
0.00331017
0.00319274
0.00296278
0.00266262
0.00234092
0.00203299
0.00177889
0.0016126
0.00153315
0.00142539
0.00106069
0.000187191
0.000294785
0.00125342
0.0021338
0.00286064
0.00335999
0.00365425
0.00379222
0.00380092
0.00368298
0.00344455
0.00312522
0.00277828
0.00244183
0.00215829
0.0019679
0.00185609
0.00168822
0.00121475
0.000202608
0.000393417
0.00134401
0.00233679
0.00315622
0.00371702
0.00404716
0.00420283
0.00421858
0.00410139
0.00386139
0.00353591
0.00317849
0.00282746
0.00252569
0.00231277
0.00216414
0.00193205
0.00135253
0.000216232
0.000501309
0.00158827
0.00268305
0.00352422
0.00408913
0.00441776
0.00456988
0.0045842
0.00446737
0.00422987
0.00390735
0.00355071
0.00319531
0.00288262
0.00264721
0.0024572
0.00215891
0.00147781
0.000228977
0.000154376
0.0011337
0.00197925
0.00264741
0.00319935
0.00366895
0.0040765
0.0044365
0.00476082
0.00505927
0.00533926
0.00560376
0.00584885
0.00606135
0.00622203
0.00631503
0.00633716
0.0062924
0.00616672
0.00590593
0.00538038
0.00433156
0.00244663
0.000163108
0.0012231
0.00214874
0.00288974
0.00351103
0.0040462
0.00451508
0.0049324
0.0053106
0.0056595
0.00598577
0.00628983
0.00656343
0.0067875
0.0069425
0.00702799
0.00707044
0.00709752
0.00709321
0.00701281
0.00678777
0.00631205
0.00544561
0.000171285
0.00133146
0.00231563
0.00311083
0.0037861
0.004373
0.00489043
0.00535322
0.00577471
0.006164
0.00652624
0.00685856
0.00714612
0.0073651
0.00750451
0.00759904
0.00771459
0.00787791
0.00801281
0.00806006
0.00799344
0.00778503
0.00740613
0.000185966
0.00143613
0.0024718
0.00331424
0.00403731
0.00466948
0.00522846
0.00572853
0.00618575
0.0066077
0.00699733
0.00734817
0.00763911
0.00784145
0.00796476
0.00811142
0.00838866
0.00876453
0.00901064
0.00907175
0.00900975
0.00883537
0.00854811
0.000196487
0.00147071
0.00256073
0.00346785
0.00425208
0.00493453
0.00553451
0.00606968
0.00655653
0.00700356
0.00741157
0.00777239
0.00805768
0.00823579
0.00834722
0.0086165
0.00913598
0.00951493
0.00962868
0.0096528
0.00956337
0.00938618
0.00911705
0.000186295
0.00135342
0.00252971
0.00354134
0.00440911
0.005153
0.00579701
0.00636823
0.00688402
0.00734966
0.00776975
0.00813128
0.0084036
0.00856631
0.00868679
0.00896137
0.00938782
0.00967493
0.00979522
0.00982469
0.00977986
0.00966195
0.00945932
0.000189923
0.00126172
0.00248556
0.00358199
0.00452364
0.00532723
0.00601874
0.00662619
0.00717022
0.0076552
0.00808206
0.00843751
0.00869607
0.00884453
0.00895101
0.00911335
0.00933395
0.00960103
0.0098711
0.00999825
0.0100232
0.00995956
0.00980051
0.00020285
0.00138014
0.0026399
0.00375479
0.00471482
0.0055388
0.00625201
0.00687903
0.00743584
0.00792756
0.00835009
0.00868728
0.00892171
0.00906239
0.00916127
0.0092623
0.00939063
0.00961514
0.00992162
0.0101232
0.010215
0.0101966
0.0100679
0.000214678
0.00156109
0.00289961
0.00403105
0.00498895
0.0058082
0.00651766
0.0071399
0.00768851
0.00816707
0.00856975
0.00888304
0.00910203
0.00924243
0.00933587
0.00941179
0.00951112
0.00970377
0.00996811
0.0101635
0.0102775
0.0102864
0.0101777
0.000224169
0.00173666
0.00316608
0.004329
0.00528916
0.00609784
0.00679085
0.00739233
0.00791601
0.00836627
0.00873915
0.00902893
0.00923763
0.00937822
0.00947018
0.00953974
0.00962803
0.00978172
0.00998188
0.0101423
0.0102309
0.010243
0.0101614
0.000232322
0.00185303
0.00337923
0.00458861
0.00556206
0.00636473
0.00704027
0.00761661
0.00810933
0.00852536
0.00886543
0.00912864
0.00932162
0.00945714
0.0095505
0.00962255
0.00970162
0.00981285
0.00995759
0.010085
0.0101527
0.0101549
0.0100862
0.000238453
0.0019359
0.0035391
0.0047908
0.00577959
0.00657928
0.00723968
0.00779246
0.00825636
0.00864142
0.00895176
0.00919095
0.00936698
0.00949303
0.00958388
0.00965567
0.00972496
0.00980916
0.00991606
0.0100116
0.010059
0.0100493
0.00998655
0.000241659
0.00199152
0.00364738
0.00493017
0.00593156
0.00672976
0.00737834
0.00791206
0.0083525
0.00871258
0.00899987
0.00922125
0.00938561
0.00950497
0.00959233
0.00966006
0.0097202
0.00978585
0.00986232
0.00992655
0.00995457
0.00993589
0.00987889
0.000242325
0.0020209
0.00370524
0.00500575
0.00601466
0.00681156
0.00745172
0.00797179
0.0083955
0.00873809
0.00900999
0.00922028
0.00937838
0.00949482
0.00958015
0.00964396
0.00969546
0.0097442
0.00979433
0.00983214
0.00984331
0.00981999
0.00976858
0.000240788
0.00202434
0.00371438
0.00501906
0.0060295
0.00682452
0.00745932
0.00797126
0.00838525
0.00871808
0.00898194
0.00918714
0.00934313
0.00945913
0.00954367
0.0096044
0.00964867
0.00968379
0.00971376
0.00973201
0.0097306
0.00970528
0.00965846
0.000237476
0.00200158
0.00367686
0.00497299
0.00597885
0.00677097
0.00740308
0.00791201
0.00832289
0.00865307
0.00891549
0.00912079
0.00927813
0.00939574
0.00948088
0.00954007
0.00957965
0.00960571
0.00962231
0.00962773
0.0096184
0.00959251
0.0095508
0.000232176
0.00195304
0.00359485
0.00487103
0.00586668
0.00665468
0.00728622
0.00779659
0.00821011
0.00854389
0.00881069
0.00902081
0.00918295
0.00930466
0.00939254
0.00945264
0.00949079
0.00951258
0.00952216
0.00952093
0.00950817
0.00948374
0.00944834
0.000224846
0.00188256
0.0034729
0.00471839
0.00569816
0.00648049
0.007113
0.00762839
0.00804938
0.00839204
0.00866828
0.0088877
0.00905842
0.00918748
0.0092812
0.00934548
0.00938601
0.00940821
0.00941648
0.00941399
0.00940192
0.0093813
0.00935318
0.000215683
0.00179405
0.00331693
0.00452183
0.00548043
0.00625515
0.00688927
0.00741228
0.00784451
0.00820032
0.00849039
0.00872336
0.00890664
0.00904689
0.00915024
0.00922257
0.0092696
0.00929671
0.00930863
0.00930946
0.00930157
0.0092868
0.00926651
0.000205069
0.00169281
0.00313379
0.00428911
0.00522172
0.005987
0.00662299
0.00715532
0.00760145
0.00797368
0.00828121
0.00853153
0.0087313
0.00888671
0.00900372
0.00908816
0.00914574
0.00918188
0.00920167
0.00920958
0.00920873
0.00920146
0.00918939
0.000193209
0.00157998
0.00292899
0.00402823
0.0049314
0.00568594
0.006324
0.00686682
0.00732874
0.0077198
0.00804757
0.0083184
0.00853809
0.00871228
0.00884667
0.00894694
0.00901872
0.00906749
0.0090986
0.00911657
0.00912495
0.00912643
0.00912286
0.00018004
0.00144543
0.00270293
0.00374678
0.00462025
0.00536416
0.00600482
0.00655907
0.00703803
0.00744943
0.00779932
0.00809288
0.00833504
0.00853083
0.00868554
0.00880462
0.00889354
0.00895789
0.0090029
0.00903312
0.00905231
0.0090634
0.00906843
0.000166191
0.00129197
0.00246289
0.00345552
0.0043022
0.0050371
0.00568132
0.00624767
0.00674431
0.00717655
0.00754925
0.00786658
0.00813257
0.00835154
0.00852836
0.00866821
0.00877641
0.00885829
0.0089189
0.00896277
0.00899372
0.00901484
0.00902838
0.000151939
0.00115762
0.00224236
0.00318367
0.00400401
0.00472958
0.00537628
0.00595321
0.00646583
0.00691788
0.00731258
0.00765306
0.00794264
0.00818506
0.00838466
0.00854615
0.00867451
0.00877476
0.0088517
0.00890974
0.00895272
0.00898382
0.00900542
0.000138911
0.00106801
0.00207015
0.00295986
0.00375303
0.00446773
0.00511455
0.00569915
0.00622468
0.00669333
0.0071071
0.00746823
0.00777937
0.00804369
0.00826492
0.00844727
0.00859525
0.00871345
0.00880638
0.00887826
0.00893283
0.00897331
0.00900217
0.000129112
0.00102001
0.00196072
0.0028064
0.00357391
0.00427619
0.00491977
0.00550765
0.00604123
0.00652149
0.00694953
0.00732689
0.00765564
0.00793839
0.00817835
0.00837915
0.00854476
0.00867931
0.00878689
0.00887142
0.00893649
0.00898526
0.00902024
0.000123458
0.00100389
0.00191502
0.00273363
0.00348176
0.00417176
0.00480884
0.00539487
0.00593047
0.00641598
0.006852
0.00723961
0.00758041
0.00787655
0.00813072
0.00834605
0.008526
0.00867416
0.0087942
0.00888966
0.00896379
0.00901952
0.00905929
0.000121398
0.00101248
0.00192643
0.00273907
0.00347785
0.00415817
0.00478677
0.00536633
0.00589785
0.00638185
0.00681893
0.00721
0.00755639
0.00785994
0.00812294
0.00834806
0.00853821
0.00869649
0.00882605
0.00893001
0.0090113
0.00907256
0.00911603
0.000121913
0.00104056
0.00198289
0.00280881
0.00354937
0.00422467
0.0048449
0.00541506
0.00593768
0.00641422
0.00684584
0.00723371
0.00757916
0.00788398
0.0081502
0.00838006
0.00857601
0.00874064
0.00887661
0.00898656
0.00907301
0.00913826
0.00918427
0.00012423
0.00108239
0.00206913
0.00292224
0.00367439
0.00435033
0.0049643
0.00552435
0.00603525
0.00650005
0.00692099
0.00729984
0.00763852
0.00793893
0.00820298
0.00843265
0.00863005
0.00879733
0.00893667
0.00905023
0.00914007
0.00920807
0.00925589
0.000127904
0.00113251
0.00217095
0.00305902
0.00382993
0.00451197
0.00512295
0.00567396
0.00617222
0.00662272
0.00702913
0.00739457
0.00772166
0.00801268
0.00826968
0.00849463
0.0086894
0.0088558
0.00899561
0.00911054
0.0092022
0.00927205
0.00932134
0.00013278
0.00118756
0.00227893
0.00320502
0.00399912
0.0046917
0.00530303
0.00584669
0.00633226
0.00676695
0.00715639
0.00750508
0.00781663
0.008094
0.00833968
0.00855575
0.00874406
0.00890622
0.00904371
0.00915784
0.00924983
0.0093207
0.00937133
0.000138713
0.00124644
0.00238989
0.00335494
0.00417491
0.004881
0.00549491
0.00603231
0.00650516
0.00692294
0.00729328
0.00762231
0.0079149
0.00817492
0.00840543
0.00860885
0.00878712
0.00894179
0.00907414
0.00918522
0.0092759
0.00934683
0.00939853
0.000145579
0.00130994
0.00250584
0.00351138
0.0043595
0.00508098
0.00569838
0.00622928
0.00668814
0.00708694
0.00743555
0.00774191
0.00801229
0.00825156
0.00846344
0.00865076
0.00881564
0.00895968
0.00908407
0.00918967
0.0092771
0.00934675
0.00939882
0.000153559
0.00138134
0.00263431
0.00368466
0.0045638
0.00530134
0.00592083
0.00644246
0.00688386
0.00726
0.00758327
0.00786351
0.00810838
0.00832371
0.00851385
0.00868199
0.00883048
0.00896098
0.00907463
0.00917222
0.0092542
0.00932077
0.0093719
0.000162917
0.00146493
0.00278592
0.00388973
0.00480376
0.00555633
0.00617356
0.00668003
0.00709788
0.00744583
0.00773902
0.00798918
0.0082052
0.00839367
0.00855938
0.0087058
0.00883538
0.00894981
0.00905025
0.00913738
0.00921158
0.00927294
0.0093213
0.000174061
0.00156652
0.00297496
0.00414629
0.00509936
0.00586279
0.00646909
0.00695061
0.00733595
0.00764837
0.00790584
0.00812172
0.00830574
0.00846489
0.00860413
0.00872694
0.00883577
0.00893225
0.00901747
0.00909207
0.00915634
0.00921032
0.00925379
0.000187674
0.00169434
0.00322259
0.00448165
0.00547534
0.00623878
0.00681882
0.00726069
0.00760165
0.00786986
0.00808566
0.00826332
0.00841279
0.00854094
0.00865248
0.00875068
0.00883775
0.00891517
0.0089839
0.00904449
0.00909717
0.00914192
0.00917849
0.000205132
0.00186206
0.00356587
0.00493793
0.00596335
0.00670226
0.00723044
0.00761225
0.00789462
0.00810957
0.00827832
0.00841483
0.0085283
0.00862483
0.0087085
0.00878204
0.00884728
0.00890542
0.00895723
0.00900313
0.00904327
0.00907758
0.00910581
0.000230419
0.00209761
0.00408241
0.00558647
0.00660344
0.00726719
0.00770397
0.00800022
0.00820932
0.00836332
0.00848151
0.00857571
0.00865328
0.00871892
0.00877566
0.0088255
0.00886974
0.00890924
0.00894454
0.0089759
0.0090034
0.00902694
0.00904625
0.000277476
0.00252085
0.00496916
0.00655247
0.00743725
0.00793266
0.00822529
0.00841011
0.00853477
0.00862403
0.00869141
0.00874461
0.00878822
0.00882505
0.00885689
0.00888488
0.00890976
0.00893201
0.00895193
0.00896964
0.00898518
0.00899844
0.00900919
0.000417583
0.00371166
0.00683166
0.00802624
0.00846642
0.00865872
0.00875846
0.00881756
0.00885624
0.00888358
0.00890412
0.00892035
0.00893369
0.008945
0.00895481
0.00896347
0.00897119
0.00897811
0.00898431
0.00898982
0.00899465
0.00899874
0.00900199
0.000528827
0.000504248
0.000495129
0.000498261
0.0044533
0.00417459
0.00404448
0.00402102
0.00704145
0.00682875
0.00666326
0.00654318
0.00828449
0.00810945
0.00794121
0.00778185
0.00886887
0.00870497
0.00853748
0.00836791
0.00924595
0.00909603
0.00893909
0.00877986
0.00960842
0.00946541
0.00931405
0.00916562
0.00988318
0.00974726
0.00961029
0.00947733
0.0100276
0.00991979
0.00980331
0.00968395
0.0100448
0.0099605
0.00986763
0.00976798
0.00999369
0.00992733
0.00985361
0.00977269
0.00991124
0.00985739
0.00979725
0.00973066
0.00981575
0.0097706
0.00972011
0.00966414
0.00971465
0.00967611
0.00963314
0.0095857
0.0096121
0.00957917
0.00954271
0.00950289
0.00951135
0.00948364
0.00945337
0.00942075
0.00941554
0.00939293
0.00936863
0.00934267
0.00932748
0.00930975
0.00929083
0.0092707
0.00924799
0.00923514
0.00922119
0.00920603
0.00917752
0.00916903
0.00915952
0.00914885
0.00911715
0.00911256
0.00910691
0.00910003
0.00906847
0.00906736
0.00906504
0.00906133
0.00903368
0.00903565
0.00903614
0.00903503
0.00901539
0.00901997
0.00902274
0.00902359
0.00901603
0.00902265
0.00902707
0.00902923
0.00903705
0.00904506
0.00905046
0.00905321
0.00907805
0.0090868
0.00909252
0.00909518
0.00913601
0.00914502
0.00915054
0.00915262
0.00920495
0.00921401
0.00921919
0.00922053
0.00927703
0.0092861
0.00929099
0.00929176
0.0093431
0.00935241
0.00935736
0.00935799
0.00939407
0.00940404
0.00940958
0.00941071
0.00942258
0.00943359
0.00944027
0.00944259
0.00942416
0.00943639
0.00944454
0.00944855
0.00939801
0.00941126
0.00942082
0.00942664
0.0093471
0.00936073
0.00937121
0.00937844
0.00927778
0.00929085
0.00930133
0.00930914
0.00919911
0.00921055
0.00921994
0.00922722
0.00912183
0.00913074
0.00913809
0.00914382
0.00905708
0.00906302
0.00906782
0.00907143
0.00901503
0.00901813
0.0090205
0.00902211
0.00900367
0.0090045
0.00900508
0.00900538
0.0014257
0.00257996
0.00351111
0.00421616
0.00470451
0.00497859
0.00509123
0.00508673
0.00496943
0.00474788
0.00444405
0.00410165
0.00375191
0.00342867
0.0031551
0.00289145
0.00248726
0.00165639
0.000246306
0.0043833
0.0047772
0.00509785
0.00539375
0.00558213
0.00567583
0.00570019
0.00565577
0.0055322
0.0053279
0.00505169
0.00472447
0.00437843
0.00403507
0.00370422
0.00334322
0.00281437
0.00182958
0.000262399
0.00643672
0.00635488
0.006319
0.00630312
0.00629444
0.00625879
0.00621005
0.0061332
0.00600504
0.00581494
0.00556501
0.00525576
0.00490707
0.0045338
0.0041348
0.00366806
0.00301658
0.0019147
0.000267619
0.00753422
0.00724928
0.00704138
0.00690287
0.00681693
0.00674019
0.00664374
0.00653697
0.00640411
0.00622171
0.00598398
0.00568713
0.0053191
0.00489319
0.00440824
0.00383035
0.00306634
0.00188932
0.000263991
0.0081012
0.0077824
0.00752872
0.00736467
0.00724404
0.00712316
0.00700271
0.00688251
0.00674472
0.00656076
0.00631813
0.00600946
0.00561095
0.00511123
0.00451653
0.00381458
0.00295103
0.00177001
0.000259659
0.0085286
0.00821345
0.00794761
0.00775307
0.00758785
0.00744383
0.00731825
0.00718831
0.00703684
0.00684154
0.00658776
0.00625866
0.00580965
0.00521426
0.00448047
0.00364096
0.00271713
0.00161905
0.000253644
0.00893256
0.00862003
0.00834283
0.00811749
0.00792387
0.00775724
0.00760432
0.00744451
0.00726578
0.00705018
0.00678199
0.00645191
0.00600304
0.00530225
0.00441061
0.00341318
0.00238779
0.00137348
0.000235554
0.00926741
0.00897596
0.00869454
0.00845445
0.00824309
0.00804528
0.00784833
0.00764443
0.00742356
0.00717265
0.00688218
0.00653401
0.00612806
0.00541995
0.00439801
0.00326562
0.00213252
0.00116796
0.000220891
0.00948863
0.00921581
0.0089535
0.00871675
0.00849194
0.00826703
0.00803293
0.00778399
0.00751371
0.00721517
0.00688901
0.00652438
0.00606051
0.00541374
0.00448091
0.0033051
0.00206022
0.00102894
0.000209566
0.00959503
0.00934209
0.00909777
0.00886709
0.00864151
0.00840587
0.0081481
0.00786182
0.00754401
0.00719799
0.00682956
0.00644318
0.00599102
0.00536564
0.00455013
0.00351367
0.00233493
0.00117074
0.000200861
0.00962769
0.00940508
0.00918172
0.00896014
0.0087326
0.00848502
0.00820474
0.00788406
0.00752219
0.00712683
0.00671538
0.00630249
0.00585074
0.00527864
0.00454091
0.0036253
0.00254827
0.00130899
0.00020118
0.00960987
0.00941848
0.0092198
0.00901247
0.00878729
0.00852951
0.00822664
0.00787196
0.00746727
0.00702429
0.00656368
0.00610757
0.00564135
0.00510014
0.00442305
0.00358304
0.00257339
0.00136941
0.000196716
0.0095627
0.0093995
0.00922486
0.0090337
0.00881466
0.0085518
0.00823236
0.00785049
0.00740938
0.00692346
0.00641695
0.00591402
0.00541205
0.00486011
0.0042007
0.00339419
0.0024258
0.00129305
0.000185377
0.0095004
0.00936218
0.00920973
0.00903531
0.00882599
0.00856516
0.00823881
0.00784111
0.00737567
0.00685687
0.00630857
0.00575486
0.00519942
0.00460674
0.00392939
0.00312649
0.00219158
0.00115643
0.000174808
0.00943201
0.00931631
0.00918439
0.0090268
0.00882994
0.00857753
0.00825473
0.00785433
0.00737961
0.00684338
0.00626481
0.00566443
0.00505065
0.00440604
0.00369606
0.00288975
0.00199455
0.0010545
0.000173579
0.00936311
0.0092678
0.00915488
0.00901401
0.00883156
0.00859199
0.00828095
0.0078901
0.00742135
0.00688494
0.00629489
0.00566671
0.00501073
0.00432497
0.00359188
0.00279569
0.00194462
0.00104779
0.000179915
0.0092969
0.00921966
0.00912409
0.00899957
0.00883278
0.00860912
0.00831532
0.00794318
0.00749301
0.00697188
0.00639015
0.0057592
0.00508991
0.00438924
0.00365438
0.0028779
0.00204636
0.00111956
0.000188523
0.00923509
0.00917328
0.00909316
0.00898417
0.00883362
0.00862793
0.00835498
0.00800726
0.00758389
0.00708935
0.00653116
0.00591756
0.0052593
0.00456629
0.00384173
0.0030762
0.00222392
0.00122562
0.000196325
0.00917874
0.0091296
0.00906271
0.00896795
0.00883338
0.00864652
0.00839633
0.00807586
0.00768349
0.00722171
0.00669562
0.00611109
0.00547725
0.00480227
0.00408734
0.00331072
0.00241542
0.00133113
0.000202641
0.00912889
0.00908973
0.00903363
0.00895134
0.00883167
0.00866325
0.00843597
0.00814334
0.007783
0.00735588
0.00686475
0.00631369
0.00570864
0.00505326
0.0043414
0.00354088
0.00259423
0.00142971
0.000207879
0.0090862
0.00905545
0.00900781
0.00893559
0.00882899
0.00867753
0.00847186
0.00820579
0.00787614
0.00748257
0.00702551
0.00650736
0.00593001
0.00529145
0.00457626
0.00375028
0.00275752
0.00153002
0.000212705
0.00905252
0.00902842
0.0089876
0.00892312
0.00882689
0.00868986
0.00850355
0.00826154
0.00795952
0.00759595
0.00717016
0.0066817
0.00612829
0.00550165
0.00478045
0.00393046
0.00289857
0.00162066
0.000217516
0.00903016
0.00901098
0.00897508
0.00891651
0.00882817
0.00870235
0.00853155
0.00830933
0.00803113
0.00769394
0.00729527
0.00683186
0.00629746
0.00567917
0.00495331
0.00408273
0.0030139
0.00168187
0.000221583
0.00902156
0.00900555
0.00897255
0.00891753
0.00883444
0.00871665
0.00855747
0.00835091
0.00809203
0.00777668
0.00740059
0.00695793
0.00643908
0.00582769
0.00509761
0.00420969
0.0031088
0.00172914
0.000224408
0.00902885
0.00901422
0.00898212
0.00892839
0.00884795
0.00873514
0.00858407
0.00838912
0.00814508
0.00784684
0.00748859
0.00706229
0.00655567
0.00594976
0.00521633
0.0043144
0.00318688
0.00176706
0.00022637
0.00905328
0.00903824
0.00900512
0.00895055
0.00887034
0.00875969
0.00861343
0.00842624
0.00819274
0.00790706
0.00756208
0.00714803
0.00665066
0.00604883
0.00531274
0.00439963
0.00325032
0.00179667
0.000227604
0.00909458
0.00907754
0.00904168
0.00898437
0.00890222
0.00879119
0.00864671
0.00846378
0.00823687
0.00795955
0.00762367
0.00721814
0.00672723
0.00612825
0.00538994
0.00446802
0.00330119
0.00181943
0.000228143
0.00915051
0.00913026
0.00909035
0.00902882
0.00894298
0.00882942
0.00868413
0.00850238
0.00827859
0.0080059
0.00767545
0.00727516
0.00678825
0.00619101
0.00545073
0.00452198
0.00334159
0.00183734
0.000228121
0.00921658
0.00919259
0.00914801
0.00908142
0.00899072
0.00887309
0.00872496
0.00854188
0.0083183
0.00804713
0.00771897
0.00732113
0.00683608
0.0062395
0.00549746
0.00456358
0.00337313
0.00185173
0.000227684
0.00928636
0.00925896
0.00920994
0.0091383
0.0090424
0.0089199
0.00876763
0.00858143
0.00835585
0.0080837
0.00775532
0.00735762
0.00687263
0.00627559
0.00553209
0.0045944
0.00339666
0.00186242
0.000226997
0.00935202
0.00932248
0.00927024
0.00919454
0.00909406
0.00896682
0.00880998
0.00861967
0.00839064
0.00811573
0.00778522
0.00738585
0.00689945
0.00630104
0.00555596
0.00461557
0.00341254
0.00186834
0.000226176
0.00940537
0.00937579
0.00932244
0.00924465
0.00914122
0.00901034
0.00884945
0.00865494
0.0084218
0.00814308
0.00780916
0.00740682
0.00691789
0.00631734
0.00557041
0.00462812
0.00342136
0.00186939
0.000225107
0.00943925
0.00941205
0.0093603
0.00928318
0.00917932
0.00904688
0.0088834
0.00868548
0.00844839
0.00816552
0.00782751
0.00742138
0.00692914
0.00632588
0.0055769
0.00463308
0.00342455
0.00186804
0.000223372
0.00944831
0.00942565
0.00937847
0.00930524
0.00920418
0.00907311
0.00890939
0.00870968
0.00846957
0.00818285
0.00784065
0.00743037
0.00693438
0.00632806
0.00557691
0.00463193
0.0034232
0.00186633
0.00022122
0.00942998
0.00941339
0.00937325
0.0093071
0.00921242
0.00908627
0.00892539
0.00872627
0.00848471
0.00819505
0.00784904
0.00743467
0.00693481
0.00632527
0.00557186
0.00462579
0.00341722
0.00186149
0.000219527
0.00938496
0.00937481
0.00934307
0.00928666
0.0092018
0.00908441
0.00893005
0.00873448
0.00849358
0.00820232
0.00785328
0.00743524
0.00693172
0.00631903
0.00556334
0.00461603
0.00340718
0.00185239
0.000218088
0.00931758
0.00931282
0.00928939
0.00924396
0.00917157
0.00906665
0.00892279
0.00873417
0.0084964
0.00820517
0.00785416
0.00743314
0.00692643
0.00631094
0.0055532
0.00460474
0.00339543
0.00184141
0.000216784
0.00923574
0.00923409
0.00921714
0.00918185
0.00912293
0.00903316
0.00890379
0.00872582
0.00849385
0.00820442
0.00785261
0.00742948
0.00692031
0.00630266
0.00554353
0.00459452
0.00338518
0.00183178
0.000215729
0.00915057
0.00914926
0.00913576
0.00910753
0.00906009
0.00898534
0.00887375
0.0087103
0.00848697
0.00820109
0.00784965
0.00742534
0.00691456
0.00629565
0.00553614
0.00458779
0.0033794
0.00182611
0.000215174
0.00907533
0.00907248
0.00905977
0.00903467
0.00899289
0.00892723
0.00883405
0.00868868
0.00847694
0.0081963
0.00784625
0.00742159
0.00691002
0.00629077
0.00553206
0.00458587
0.00337971
0.00182588
0.000215261
0.00902337
0.00901935
0.00900769
0.00898491
0.00894379
0.00887397
0.00878913
0.00866306
0.00846531
0.00819119
0.00784324
0.00741882
0.00690709
0.00628815
0.0055311
0.00458831
0.00338535
0.00183055
0.000215877
0.00900536
0.00900305
0.00899733
0.00898538
0.00895823
0.00888591
0.00875121
0.00864014
0.00845559
0.00818732
0.00784131
0.00741735
0.00690573
0.00628722
0.00553174
0.00459258
0.00339212
0.00183521
0.000215217
)
;

boundaryField
{
    leftWall
    {
        type            nutkWallFunction;
        Cmu             0.09;
        kappa           0.41;
        E               9.8;
        value           nonuniform List<scalar> 
50
(
7.94895e-06
1.0797e-05
1.2429e-05
1.38048e-05
1.49257e-05
1.585e-05
1.66359e-05
1.73214e-05
1.8175e-05
1.90963e-05
2.01793e-05
2.19548e-05
2.35866e-05
1.88414e-05
1.95529e-05
2.1517e-05
2.31841e-05
2.44912e-05
2.56408e-05
2.6415e-05
2.67736e-05
2.67694e-05
2.64435e-05
2.58467e-05
2.49913e-05
2.38512e-05
2.24479e-05
2.09596e-05
1.92772e-05
1.72411e-05
1.48581e-05
1.26006e-05
1.06349e-05
9.22669e-06
8.46985e-06
8.23765e-06
8.3695e-06
8.75866e-06
9.34772e-06
1.01063e-05
1.10037e-05
1.20393e-05
1.32356e-05
1.46287e-05
1.62737e-05
1.82651e-05
2.07987e-05
2.44257e-05
3.10023e-05
4.9325e-05
)
;
    }
    rightWall
    {
        type            nutkWallFunction;
        Cmu             0.09;
        kappa           0.41;
        E               9.8;
        value           nonuniform List<scalar> 
50
(
1.17665e-05
1.52561e-05
1.75695e-05
1.95959e-05
2.15092e-05
2.31863e-05
2.46806e-05
2.60684e-05
2.803e-05
2.96223e-05
3.01917e-05
2.99685e-05
2.94534e-05
2.82935e-05
2.67434e-05
2.56915e-05
2.35259e-05
2.15904e-05
2.17007e-05
2.11007e-05
1.95202e-05
1.74697e-05
1.70595e-05
1.74569e-05
1.83978e-05
1.96546e-05
2.06775e-05
2.17604e-05
2.23738e-05
2.2971e-05
2.35381e-05
2.39511e-05
2.42386e-05
2.43903e-05
2.44772e-05
2.44949e-05
2.44416e-05
2.43478e-05
2.42342e-05
2.40596e-05
2.36669e-05
2.34186e-05
2.31829e-05
2.28322e-05
2.2541e-05
2.23744e-05
2.22717e-05
2.22538e-05
2.23047e-05
2.21865e-05
)
;
    }
    lowerWall
    {
        type            nutkWallFunction;
        Cmu             0.09;
        kappa           0.41;
        E               9.8;
        value           nonuniform List<scalar> 
62
(
3.7086e-06
5.7906e-06
7.0699e-06
7.89403e-06
8.51415e-06
9.0127e-06
9.43042e-06
9.78958e-06
1.0103e-05
1.03783e-05
1.06203e-05
1.0832e-05
1.10142e-05
1.11588e-05
1.12582e-05
1.13014e-05
1.12709e-05
1.11356e-05
1.08165e-05
1.03053e-05
9.4935e-06
8.12189e-06
5.77604e-06
5.77604e-06
1.72894e-05
2.05157e-05
2.35413e-05
2.66923e-05
3.01701e-05
3.48972e-05
4.40112e-05
5.4567e-05
5.25551e-05
5.19895e-05
5.26202e-05
8.09895e-06
2.39874e-05
2.5719e-05
2.6552e-05
2.85186e-05
3.31474e-05
4.31903e-05
5.35046e-05
8.09895e-06
1.15089e-05
1.40625e-05
1.50515e-05
1.51792e-05
1.50033e-05
1.4726e-05
1.43361e-05
1.37274e-05
1.28694e-05
1.19704e-05
1.09773e-05
9.91583e-06
8.85151e-06
7.88122e-06
7.24582e-06
6.76593e-06
6.02999e-06
5.10136e-06
)
;
    }
    atmosphere
    {
        type            calculated;
        value           nonuniform List<scalar> 
46
(
0.009
0.009
0.009
0.009
0.009
0.009
0.009
0.009
0.009
0.009
0.009
0.009
0.009
0.009
0.009
0.009
0.009
0.009
0.009
0.009
0.009
0.009
0.009
0.009
0.009
0.009
0.009
0.009
0.009
0.009
0.009
0.009
0.009
0.00875121
0.00864014
0.00845559
0.00818732
0.00784131
0.00741735
0.00690573
0.00628722
0.00553174
0.00459258
0.00339212
0.00183521
0.000215217
)
;
    }
    defaultFaces
    {
        type            empty;
    }
}


// ************************************************************************* //
