/*--------------------------------*- C++ -*----------------------------------*\
| =========                 |                                                 |
| \\      /  F ield         | OpenFOAM: The Open Source CFD Toolbox           |
|  \\    /   O peration     | Version:  2.3.0                                 |
|   \\  /    A nd           | Web:      www.OpenFOAM.org                      |
|    \\/     M anipulation  |                                                 |
\*---------------------------------------------------------------------------*/
FoamFile
{
    version     2.0;
    format      ascii;
    class       volScalarField;
    location    "1.95";
    object      p;
}
// * * * * * * * * * * * * * * * * * * * * * * * * * * * * * * * * * * * * * //

dimensions      [1 -1 -2 0 0 0 0];

internalField   nonuniform List<scalar> 
2268
(
677.338
677.998
679.839
682.51
685.588
688.983
692.622
696.442
700.395
704.445
708.573
712.771
717.042
721.38
725.786
730.261
734.812
739.487
744.017
748.781
753.614
758.062
761.316
618.401
618.775
620.447
623.043
626.089
629.53
633.255
637.185
641.254
645.417
649.645
653.931
658.276
662.698
667.23
671.909
676.761
681.914
687.725
692.874
696.2
698.446
701.988
559.277
559.766
561.169
563.534
566.509
569.966
573.776
577.83
582.043
586.35
590.709
595.108
599.555
604.088
608.769
613.664
618.819
624.401
631.044
636.281
638.791
639.006
643.052
499.961
500.69
501.957
504.129
507.017
510.474
514.351
518.516
522.861
527.3
531.781
536.286
540.828
545.457
550.25
555.28
560.597
566.301
572.908
578.261
580.55
580.142
584.827
440.467
441.425
442.688
444.742
447.573
451.042
454.988
459.259
463.723
468.277
472.86
477.452
482.07
486.772
491.634
496.717
502.051
507.637
513.714
518.969
521.278
521.915
527.455
380.811
381.936
383.26
385.263
388.078
391.591
395.631
400.019
404.606
409.267
413.938
418.599
423.276
428.032
432.941
438.03
443.292
448.651
454.145
458.838
461.15
463.713
470.859
321.008
322.234
323.627
325.618
328.457
332.055
336.224
340.755
345.477
350.244
354.994
359.709
364.43
369.231
374.175
379.241
384.373
389.441
394.329
398.23
400.132
404.45
414.463
261.072
262.308
263.742
265.756
268.668
272.398
276.736
281.437
286.301
291.165
295.975
300.72
305.466
310.303
315.27
320.268
325.183
329.85
334.018
336.867
337.615
341.039
356.379
612.77
613.37
635.281
661.921
682.037
696.655
708.704
720.082
731.146
743.077
760.2
781.083
802.411
821.167
832.947
842.165
852.027
863.057
873.179
553.798
551.461
572.433
597.716
618.413
634.948
649.544
661.953
672.956
685.011
702.277
724.284
746.738
766.781
781.435
790.564
798.153
806.076
816.022
493.487
491.674
510.529
533.028
553.301
571.485
588.722
603.858
617.272
629.671
645.899
667.462
690.807
711.781
729.144
738.508
745.716
751.242
760.272
433.088
433.231
451.156
471.176
490.284
508.891
527.345
545.13
560.703
573.881
588.58
609.509
633.679
655.417
674.3
685.507
693.048
697.662
706.151
373.429
377.33
394.327
411.707
429.326
447.929
467.329
486.361
503.802
517.864
529.474
550.008
575.482
597.945
617.114
631.528
640.444
645.428
653.587
313.622
324.066
338.993
352.914
368.961
387.503
408.013
428.789
447.494
462.89
476.554
494.047
516.355
539.745
559.022
575.642
587.577
593.688
602.722
249.341
271.889
283.787
293.396
308.01
326.838
349.009
372.284
393.623
414.024
433.13
447.601
463.352
481.695
500.28
518.24
533.535
542.076
552.952
183.281
216.397
224.062
229.412
243.513
264.114
289.566
316.723
341.667
370.021
392.148
405.925
419.698
432.103
446.292
461.874
479.641
490.869
503.888
167.139
168.211
169.65
171.805
174.98
179.058
183.753
188.756
193.836
198.807
203.644
208.376
213.121
218.011
223.027
227.879
232.356
236.25
239.141
239.977
237.925
234.301
228.207
54.009
54.9551
55.9756
57.7768
60.5108
63.946
67.8151
71.8819
76.0728
80.1672
84.0987
87.8423
91.6795
95.8539
100.361
104.68
108.789
112.341
114.689
114.43
109.855
101.342
89.5362
3.22429
3.61464
3.94493
4.61871
5.61483
6.80714
8.12824
9.57579
11.2831
13.1435
15.0316
16.7776
18.392
19.8923
21.2708
22.808
24.7173
26.9879
30.0758
33.2933
33.1125
28.4014
21.754
-0.169275
-0.139684
-0.037538
0.153684
0.382381
0.565103
0.696355
0.802708
1.0966
1.57237
2.13137
2.59119
2.79203
2.43387
1.40316
0.294374
-0.0557009
0.138113
2.20036
6.48704
9.7954
9.3856
7.42375
-0.633385
-0.619027
-0.570619
-0.478673
-0.347253
-0.194452
-0.0637851
0.202965
0.441303
0.700441
1.03794
1.39223
1.596
1.31879
0.577715
0.283571
0.23925
0.396453
1.12547
2.84334
6.4285
8.44997
8.02676
-0.978488
-0.980651
-0.984564
-0.992407
-1.00005
-0.993492
-0.927382
-0.712303
-0.586903
-0.584611
-0.572586
-0.412524
-0.191329
-0.173437
-0.316745
-0.179383
-0.0884493
-0.124707
-0.289026
-0.0639531
1.74484
3.501
3.75629
-1.11831
-1.11715
-1.11933
-1.12545
-1.13217
-1.13866
-1.15241
-1.19502
-1.21911
-1.22175
-1.21204
-1.18834
-1.11929
-1.00466
-0.808116
-0.57653
-0.494034
-0.598746
-0.827872
-1.00773
-0.260179
0.535712
0.0567765
-1.25621
-1.25507
-1.25568
-1.25985
-1.26611
-1.27346
-1.28327
-1.29681
-1.30831
-1.31146
-1.30355
-1.28082
-1.24673
-1.21798
-1.1527
-0.960749
-0.867102
-0.95656
-1.11728
-1.25651
-1.28947
-1.24691
-1.22583
-1.39398
-1.39395
-1.39447
-1.39753
-1.40281
-1.40979
-1.41855
-1.42884
-1.43711
-1.44002
-1.43774
-1.43404
-1.43358
-1.43656
-1.43139
-1.34146
-1.27444
-1.2916
-1.37597
-1.42929
-1.4235
-1.39671
-1.36374
-1.53026
-1.53168
-1.53294
-1.53564
-1.5401
-1.54636
-1.55436
-1.56315
-1.5705
-1.57547
-1.58028
-1.59098
-1.60928
-1.62653
-1.63639
-1.61962
-1.59868
-1.56738
-1.59108
-1.57446
-1.53559
-1.51843
-1.49632
-1.66443
-1.66738
-1.66976
-1.67262
-1.67662
-1.68208
-1.68886
-1.6963
-1.7031
-1.70939
-1.71657
-1.72722
-1.74129
-1.75375
-1.762
-1.7742
-1.76909
-1.75259
-1.7605
-1.74565
-1.69677
-1.66808
-1.64905
-1.79687
-1.80114
-1.80482
-1.80808
-1.81186
-1.81662
-1.8223
-1.82855
-1.83482
-1.84112
-1.84813
-1.85701
-1.8676
-1.87699
-1.88241
-1.88595
-1.88772
-1.89311
-1.90442
-1.89614
-1.86371
-1.82932
-1.80889
-1.92818
-1.93353
-1.93832
-1.94201
-1.94568
-1.94993
-1.95482
-1.96017
-1.96572
-1.97145
-1.97763
-1.98469
-1.99245
-1.99952
-2.00449
-2.00787
-2.01101
-2.01811
-2.02605
-2.01662
-1.99834
-1.97654
-1.96129
-2.05902
-2.06503
-2.07056
-2.07457
-2.07815
-2.082
-2.08627
-2.09089
-2.09572
-2.10072
-2.10597
-2.11159
-2.11736
-2.12262
-2.12678
-2.13006
-2.13298
-2.13693
-2.13893
-2.13435
-2.12468
-2.11259
-2.10412
-2.18982
-2.19605
-2.20186
-2.20599
-2.20945
-2.21296
-2.21671
-2.22071
-2.22486
-2.22915
-2.23357
-2.2381
-2.24257
-2.24662
-2.25
-2.25282
-2.25527
-2.25755
-2.25862
-2.25639
-2.25121
-2.24492
-2.24128
-2.32079
-2.32682
-2.33246
-2.33651
-2.3398
-2.34302
-2.34634
-2.34981
-2.35337
-2.35701
-2.3607
-2.36442
-2.36801
-2.37129
-2.37413
-2.37658
-2.37871
-2.38052
-2.3815
-2.38062
-2.37822
-2.37554
-2.37446
-2.4519
-2.45734
-2.46247
-2.46629
-2.46941
-2.47237
-2.47534
-2.47837
-2.48144
-2.48452
-2.48761
-2.49069
-2.49367
-2.49644
-2.49892
-2.50113
-2.5031
-2.50477
-2.50586
-2.50596
-2.5053
-2.5047
-2.50506
-2.58292
-2.58747
-2.59191
-2.59547
-2.59844
-2.60119
-2.60388
-2.60655
-2.60921
-2.61185
-2.61447
-2.61706
-2.61959
-2.622
-2.62423
-2.62629
-2.62818
-2.62984
-2.63113
-2.63189
-2.63229
-2.63274
-2.6336
-2.71355
-2.71701
-2.72089
-2.72424
-2.72708
-2.72964
-2.73208
-2.73445
-2.73679
-2.73908
-2.74135
-2.74358
-2.74578
-2.74792
-2.74997
-2.75193
-2.75378
-2.75548
-2.75696
-2.75817
-2.75919
-2.76021
-2.76137
-2.8446
-2.847
-2.84974
-2.85292
-2.85556
-2.85788
-2.86005
-2.86216
-2.86423
-2.86626
-2.86826
-2.87024
-2.8722
-2.87414
-2.87606
-2.87794
-2.87976
-2.88151
-2.88314
-2.88464
-2.88604
-2.88743
-2.88891
-2.97697
-2.97842
-2.97962
-2.98193
-2.98405
-2.98599
-2.98785
-2.9897
-2.99154
-2.99337
-2.99518
-2.99698
-2.99878
-3.00058
-3.00239
-3.00421
-3.00601
-3.00779
-3.00952
-3.0112
-3.01285
-3.01451
-3.01624
-3.10976
-3.11012
-3.1104
-3.11123
-3.11248
-3.11392
-3.11545
-3.11705
-3.11869
-3.12036
-3.12204
-3.12373
-3.12542
-3.12714
-3.12888
-3.13065
-3.13243
-3.13422
-3.13602
-3.13781
-3.13963
-3.14146
-3.14337
-3.24033
-3.24025
-3.23993
-3.23988
-3.24049
-3.24153
-3.24279
-3.24418
-3.24567
-3.24722
-3.2488
-3.25042
-3.25206
-3.25373
-3.25543
-3.25717
-3.25894
-3.26074
-3.26257
-3.26444
-3.26635
-3.26831
-3.27035
-3.36856
-3.36809
-3.36746
-3.36742
-3.36791
-3.36877
-3.36987
-3.37113
-3.3725
-3.37396
-3.37548
-3.37704
-3.37865
-3.38029
-3.38198
-3.38371
-3.38548
-3.38729
-3.38915
-3.39106
-3.39303
-3.39506
-3.39719
-3.49626
-3.49517
-3.4945
-3.49454
-3.49503
-3.49581
-3.49681
-3.49797
-3.49926
-3.50065
-3.50211
-3.50363
-3.50521
-3.50684
-3.50851
-3.51024
-3.51201
-3.51383
-3.5157
-3.51763
-3.51964
-3.52172
-3.52389
-3.62402
-3.62276
-3.62194
-3.62182
-3.62218
-3.62285
-3.62375
-3.62482
-3.62603
-3.62735
-3.62876
-3.63024
-3.63178
-3.63338
-3.63504
-3.63676
-3.63852
-3.64034
-3.64222
-3.64417
-3.64619
-3.64828
-3.65046
-3.75181
-3.75054
-3.74959
-3.74928
-3.74948
-3.75001
-3.75079
-3.75176
-3.75289
-3.75413
-3.75548
-3.7569
-3.7584
-3.75997
-3.7616
-3.76329
-3.76504
-3.76684
-3.76871
-3.77065
-3.77266
-3.77475
-3.77692
-3.87958
-3.87834
-3.87733
-3.87689
-3.87693
-3.87733
-3.87799
-3.87885
-3.87988
-3.88105
-3.88231
-3.88367
-3.88511
-3.88663
-3.88821
-3.88986
-3.89157
-3.89335
-3.89519
-3.8971
-3.89909
-3.90114
-3.90327
-4.00732
-4.00614
-4.00511
-4.00458
-4.00452
-4.00479
-4.00534
-4.0061
-4.00703
-4.0081
-4.00929
-4.01057
-4.01193
-4.01338
-4.0149
-4.01649
-4.01815
-4.01988
-4.02167
-4.02353
-4.02547
-4.02747
-4.02954
-4.13502
-4.13393
-4.13291
-4.13234
-4.13219
-4.13237
-4.13282
-4.13348
-4.13431
-4.13529
-4.13639
-4.13758
-4.13887
-4.14023
-4.14168
-4.14319
-4.14478
-4.14643
-4.14816
-4.14995
-4.15182
-4.15375
-4.15574
-4.26269
-4.26169
-4.26071
-4.26012
-4.25992
-4.26003
-4.26039
-4.26096
-4.26171
-4.2626
-4.26361
-4.26471
-4.26591
-4.26718
-4.26854
-4.26996
-4.27146
-4.27303
-4.27466
-4.27637
-4.27815
-4.27999
-4.28189
-4.39032
-4.38941
-4.38848
-4.38789
-4.38766
-4.38772
-4.38802
-4.38852
-4.38919
-4.38999
-4.39091
-4.39193
-4.39303
-4.39421
-4.39546
-4.39679
-4.39819
-4.39965
-4.40119
-4.40279
-4.40447
-4.4062
-4.40799
-4.5179
-4.51708
-4.51621
-4.51565
-4.51541
-4.51543
-4.51568
-4.51612
-4.51671
-4.51744
-4.51828
-4.5192
-4.52021
-4.52129
-4.52244
-4.52366
-4.52495
-4.5263
-4.52772
-4.52921
-4.53077
-4.53237
-4.53404
-4.64542
-4.6447
-4.64391
-4.64337
-4.64313
-4.64314
-4.64335
-4.64374
-4.64427
-4.64492
-4.64568
-4.64652
-4.64743
-4.64841
-4.64945
-4.65056
-4.65173
-4.65296
-4.65426
-4.65562
-4.65704
-4.65851
-4.66004
-4.77289
-4.77227
-4.77156
-4.77106
-4.77083
-4.77083
-4.77101
-4.77136
-4.77184
-4.77242
-4.7731
-4.77385
-4.77466
-4.77554
-4.77647
-4.77746
-4.77851
-4.77961
-4.78078
-4.782
-4.78328
-4.78461
-4.786
-4.9003
-4.89978
-4.89916
-4.89872
-4.89851
-4.8985
-4.89867
-4.89898
-4.89941
-4.89992
-4.90052
-4.90118
-4.90189
-4.90266
-4.90348
-4.90435
-4.90527
-4.90625
-4.90727
-4.90835
-4.90949
-4.91067
-4.9119
-5.02765
-5.02725
-5.02673
-5.02634
-5.02616
-5.02616
-5.02632
-5.02659
-5.02697
-5.02742
-5.02793
-5.02849
-5.02911
-5.02977
-5.03047
-5.03122
-5.03201
-5.03285
-5.03374
-5.03467
-5.03565
-5.03667
-5.03775
-5.15496
-5.15469
-5.15427
-5.15394
-5.15379
-5.1538
-5.15395
-5.15419
-5.15451
-5.15489
-5.15531
-5.15578
-5.15629
-5.15684
-5.15743
-5.15805
-5.15872
-5.15942
-5.16016
-5.16094
-5.16177
-5.16263
-5.16354
-5.28227
-5.28215
-5.28182
-5.28152
-5.28139
-5.28141
-5.28154
-5.28175
-5.28201
-5.28231
-5.28265
-5.28303
-5.28344
-5.28388
-5.28435
-5.28485
-5.28538
-5.28594
-5.28654
-5.28717
-5.28783
-5.28853
-5.28926
-5.40966
-5.40967
-5.40942
-5.40907
-5.40893
-5.40896
-5.40907
-5.40923
-5.40944
-5.40967
-5.40992
-5.41021
-5.41051
-5.41085
-5.4112
-5.41158
-5.41198
-5.41241
-5.41286
-5.41333
-5.41383
-5.41436
-5.41491
-5.53713
-5.53752
-5.5372
-5.53656
-5.53638
-5.53642
-5.53652
-5.53664
-5.53679
-5.53695
-5.53713
-5.53732
-5.53753
-5.53776
-5.538
-5.53826
-5.53853
-5.53882
-5.53912
-5.53944
-5.53977
-5.54012
-5.54049
-5.66427
-5.66662
-5.6657
-5.66485
-5.66467
-5.66468
-5.66472
-5.66476
-5.66482
-5.66489
-5.66497
-5.66505
-5.66514
-5.66524
-5.66535
-5.66546
-5.66558
-5.6657
-5.66582
-5.66595
-5.66608
-5.66621
-5.66634
205.402
195.115
185.938
171.073
75.3228
66.1361
58.1584
50.1787
17.2531
14.7103
11.1288
7.76493
7.10037
7.68537
8.52597
8.53113
7.12183
6.82055
6.76976
6.80675
2.75056
2.12125
2.35612
3.08898
-0.428457
-0.558698
-0.664689
-0.536571
-1.12176
-1.07492
-1.0614
-1.10667
-1.31293
-1.28837
-1.28414
-1.29414
-1.47637
-1.46705
-1.46734
-1.47205
-1.63794
-1.63285
-1.63237
-1.63426
-1.80059
-1.7952
-1.79211
-1.79055
-1.95569
-1.95079
-1.94745
-1.94344
-2.10085
-2.09677
-2.09389
-2.08954
-2.24012
-2.23823
-2.23398
-2.2304
-2.37497
-2.37348
-2.37038
-2.36811
-2.50486
-2.50397
-2.50288
-2.50207
-2.63365
-2.63362
-2.63366
-2.63383
-2.76206
-2.76263
-2.76336
-2.76414
-2.89005
-2.89101
-2.89217
-2.89332
-3.01768
-3.01888
-3.02028
-3.02164
-3.14502
-3.14635
-3.14787
-3.14933
-3.27212
-3.27352
-3.27508
-3.27657
-3.39902
-3.40043
-3.40198
-3.40346
-3.52574
-3.52712
-3.52863
-3.53007
-3.6523
-3.65364
-3.65509
-3.65648
-3.77872
-3.78001
-3.78139
-3.78273
-3.90502
-3.90626
-3.90758
-3.90886
-4.03123
-4.03242
-4.03369
-4.03491
-4.15736
-4.15851
-4.15972
-4.16088
-4.28343
-4.28453
-4.28569
-4.2868
-4.40945
-4.41049
-4.41159
-4.41265
-4.53541
-4.5364
-4.53744
-4.53843
-4.66131
-4.66223
-4.66321
-4.66414
-4.78716
-4.78801
-4.7889
-4.78976
-4.91294
-4.91371
-4.91452
-4.9153
-5.03866
-5.03934
-5.04006
-5.04075
-5.16431
-5.16489
-5.1655
-5.1661
-5.28989
-5.29036
-5.29086
-5.29135
-5.41539
-5.41575
-5.41613
-5.4165
-5.54079
-5.54102
-5.54127
-5.54152
-5.66643
-5.66651
-5.66659
-5.66668
127.655
125.32
122.084
126.988
142.318
166.873
197.219
229.726
260.018
291.212
319.226
340.269
355.242
367.452
379.013
389.055
398.846
411.743
427.739
41.6072
32.3174
27.32
29.2822
37.9877
56.0903
84.496
115.47
147.779
181.185
213.515
241.222
260.779
275.735
285.006
288.758
291.72
304.178
324.687
7.31125
8.99346
9.95655
10.539
11.371
14.5821
25.1974
38.4214
56.5245
80.1752
108.088
134.882
157.521
174.05
182.046
182.562
182.875
194.882
221.366
7.86683
7.94334
8.35388
8.76248
9.19233
9.70822
10.5515
12.4074
15.1661
21.6489
35.0297
54.4575
70.8196
82.8138
91.3623
96.027
96.1366
102.12
125.621
7.02516
7.50455
7.80687
8.20208
8.52567
8.63701
8.77058
9.31368
9.64052
9.55328
9.90868
15.9695
25.7883
33.4802
41.5608
48.8304
51.3092
49.9032
56.1265
4.37713
5.48691
6.49062
6.96331
7.09726
6.91577
6.93794
7.2386
7.49685
7.70593
7.40641
6.80103
8.9297
12.914
19.6559
26.1984
28.1454
24.599
20.6063
0.208973
0.810651
2.29252
3.02433
3.08008
2.87531
2.9238
3.28245
3.7676
4.25741
4.26386
3.29219
1.61185
2.35656
5.80235
10.0121
11.5264
9.64694
6.66607
-1.25982
-1.27939
-1.00766
-0.709536
-0.561268
-0.536229
-0.475132
-0.327432
-0.0462106
0.382477
0.778971
0.172819
-0.625237
-1.0147
-0.670612
0.565188
1.44376
1.28932
0.340194
-1.31995
-1.35961
-1.45052
-1.50462
-1.47555
-1.42637
-1.40113
-1.39995
-1.42056
-1.43401
-1.23523
-1.30731
-1.44463
-1.54218
-1.65917
-1.72689
-1.75241
-1.80721
-1.69901
-1.47933
-1.48599
-1.49363
-1.5043
-1.49773
-1.49457
-1.50485
-1.52633
-1.55607
-1.59074
-1.67121
-1.77209
-1.74571
-1.75347
-1.80318
-1.8218
-1.82081
-1.82227
-1.81178
-1.6392
-1.64576
-1.65253
-1.65906
-1.65767
-1.66058
-1.67116
-1.68969
-1.71674
-1.75172
-1.80177
-1.85413
-1.86886
-1.8788
-1.91296
-1.93284
-1.94491
-1.94405
-1.93596
-1.79172
-1.79747
-1.80568
-1.81545
-1.82404
-1.82842
-1.8383
-1.85531
-1.87824
-1.90459
-1.93736
-1.96748
-1.98172
-1.99733
-2.02011
-2.0354
-2.04605
-2.05032
-2.04979
-1.94081
-1.94397
-1.95138
-1.96293
-1.97784
-1.98689
-1.99593
-2.01296
-2.03516
-2.05343
-2.0691
-2.08746
-2.10219
-2.11856
-2.13395
-2.14411
-2.15335
-2.16049
-2.16537
-2.08623
-2.0876
-2.09371
-2.10442
-2.11952
-2.13573
-2.14817
-2.16425
-2.17986
-2.19313
-2.20126
-2.21293
-2.22573
-2.24131
-2.2543
-2.26335
-2.27062
-2.27838
-2.28572
-2.22782
-2.229
-2.23418
-2.24307
-2.25629
-2.27327
-2.29001
-2.3021
-2.31027
-2.3221
-2.33388
-2.34452
-2.35395
-2.36496
-2.37605
-2.38591
-2.39319
-2.40213
-2.41052
-2.36633
-2.36807
-2.3726
-2.37978
-2.39039
-2.40413
-2.41877
-2.42878
-2.43711
-2.44787
-2.46149
-2.47297
-2.48184
-2.48824
-2.4976
-2.50829
-2.51868
-2.52906
-2.53483
-2.50174
-2.5044
-2.50854
-2.51475
-2.52301
-2.53333
-2.54438
-2.55401
-2.56282
-2.57272
-2.58415
-2.59494
-2.60343
-2.6107
-2.6204
-2.63235
-2.64413
-2.65121
-2.65287
-2.63461
-2.63799
-2.6425
-2.64798
-2.65491
-2.66294
-2.67156
-2.68005
-2.68842
-2.69745
-2.70712
-2.71635
-2.72473
-2.73305
-2.74303
-2.75469
-2.76377
-2.76725
-2.76762
-2.76561
-2.7692
-2.77421
-2.7798
-2.78596
-2.79268
-2.79962
-2.80673
-2.81426
-2.82238
-2.83091
-2.83932
-2.84743
-2.85562
-2.86463
-2.87364
-2.88016
-2.88337
-2.88249
-2.8952
-2.89877
-2.90359
-2.90931
-2.91525
-2.92133
-2.92723
-2.93332
-2.94009
-2.94744
-2.95512
-2.96282
-2.97042
-2.978
-2.9857
-2.99284
-2.99806
-3.00086
-2.99945
-3.02375
-3.02726
-3.03169
-3.03684
-3.04245
-3.04817
-3.05369
-3.05941
-3.06567
-3.0724
-3.07939
-3.08643
-3.09336
-3.10016
-3.10673
-3.11255
-3.11682
-3.11944
-3.1186
-3.15155
-3.15499
-3.15912
-3.16383
-3.16893
-3.1742
-3.17952
-3.18504
-3.19093
-3.19712
-3.20347
-3.20985
-3.21608
-3.22209
-3.22769
-3.2325
-3.23596
-3.23796
-3.23737
-3.27883
-3.28217
-3.28606
-3.29043
-3.29513
-3.30003
-3.30507
-3.31031
-3.31581
-3.32151
-3.32728
-3.333
-3.33856
-3.34382
-3.34858
-3.35254
-3.35529
-3.35651
-3.35572
-3.4057
-3.40895
-3.41263
-3.4167
-3.42107
-3.42564
-3.43036
-3.43526
-3.44034
-3.44556
-3.45079
-3.45592
-3.46082
-3.46538
-3.46941
-3.47265
-3.47478
-3.47541
-3.47394
-3.53227
-3.53542
-3.53891
-3.54272
-3.54677
-3.55101
-3.55541
-3.55994
-3.5646
-3.56933
-3.57403
-3.5786
-3.58291
-3.58683
-3.59018
-3.59277
-3.59428
-3.59432
-3.59228
-3.65862
-3.66165
-3.66495
-3.66851
-3.67227
-3.67619
-3.68024
-3.6844
-3.68864
-3.6929
-3.6971
-3.70113
-3.70488
-3.70821
-3.71095
-3.7129
-3.71373
-3.71299
-3.71062
-3.78479
-3.78769
-3.79081
-3.79413
-3.79761
-3.80122
-3.80493
-3.80871
-3.81254
-3.81635
-3.82007
-3.8236
-3.82683
-3.82962
-3.8318
-3.83315
-3.83331
-3.83174
-3.82905
-3.91084
-3.9136
-3.91654
-3.91963
-3.92284
-3.92615
-3.92952
-3.93294
-3.93637
-3.93975
-3.94302
-3.94609
-3.94885
-3.95115
-3.95285
-3.95371
-3.95331
-3.95111
-3.94809
-4.0368
-4.03942
-4.04216
-4.04504
-4.04799
-4.05101
-4.05407
-4.05714
-4.06019
-4.06317
-4.06603
-4.06867
-4.071
-4.0729
-4.0742
-4.07469
-4.07396
-4.07144
-4.06797
-4.16268
-4.16515
-4.16772
-4.17038
-4.17309
-4.17584
-4.17859
-4.18134
-4.18404
-4.18666
-4.18913
-4.19139
-4.19334
-4.19488
-4.19586
-4.1961
-4.1952
-4.1926
-4.1886
-4.2885
-4.29082
-4.29321
-4.29566
-4.29815
-4.30064
-4.30312
-4.30557
-4.30794
-4.31022
-4.31234
-4.31426
-4.31588
-4.31711
-4.31781
-4.31783
-4.3168
-4.31413
-4.30992
-4.41425
-4.41642
-4.41864
-4.4209
-4.42318
-4.42544
-4.42767
-4.42983
-4.4319
-4.43387
-4.43568
-4.43728
-4.4386
-4.43955
-4.44002
-4.43981
-4.43855
-4.43559
-4.43186
-4.53993
-4.54194
-4.544
-4.54609
-4.54818
-4.55023
-4.55221
-4.55412
-4.55592
-4.55759
-4.55911
-4.56044
-4.5615
-4.56221
-4.56246
-4.56205
-4.5605
-4.55706
-4.55348
-4.66553
-4.6674
-4.6693
-4.67122
-4.67314
-4.675
-4.67677
-4.67843
-4.67997
-4.68138
-4.68264
-4.68371
-4.68455
-4.68507
-4.68518
-4.68466
-4.68305
-4.6795
-4.67541
-4.79105
-4.79276
-4.79452
-4.7963
-4.79806
-4.79976
-4.80134
-4.80277
-4.80405
-4.8052
-4.80622
-4.80707
-4.80772
-4.8081
-4.80812
-4.80761
-4.80617
-4.80308
-4.79904
-4.91647
-4.91804
-4.91965
-4.9213
-4.92294
-4.92451
-4.92592
-4.92712
-4.92816
-4.92905
-4.92983
-4.93047
-4.93096
-4.93122
-4.93119
-4.93069
-4.92932
-4.92644
-4.92266
-5.0418
-5.04321
-5.04469
-5.04622
-5.04777
-5.04927
-5.05055
-5.05151
-5.05227
-5.05291
-5.05344
-5.05389
-5.05422
-5.0544
-5.05432
-5.05379
-5.05231
-5.04917
-5.04527
-5.16702
-5.16827
-5.16961
-5.17105
-5.17255
-5.17406
-5.17525
-5.17593
-5.17639
-5.17674
-5.17703
-5.17728
-5.17748
-5.17759
-5.17752
-5.17704
-5.17547
-5.17214
-5.16809
-5.29212
-5.2932
-5.29438
-5.29572
-5.29724
-5.29895
-5.3002
-5.30048
-5.30054
-5.30055
-5.30056
-5.30061
-5.30069
-5.30079
-5.30082
-5.30056
-5.29914
-5.29585
-5.29176
-5.4171
-5.41795
-5.41893
-5.42015
-5.42185
-5.42437
-5.42615
-5.42561
-5.42496
-5.42449
-5.42415
-5.42393
-5.42386
-5.42394
-5.42416
-5.42431
-5.4233
-5.42032
-5.41617
-5.54193
-5.54251
-5.54322
-5.54427
-5.54643
-5.55112
-5.55407
-5.55167
-5.54983
-5.54866
-5.54785
-5.54728
-5.54694
-5.5469
-5.54731
-5.54805
-5.54788
-5.54551
-5.54131
-5.66683
-5.66704
-5.66738
-5.66813
-5.67043
-5.6773
-5.67818
-5.67454
-5.67239
-5.67115
-5.6703
-5.66968
-5.66923
-5.66896
-5.66938
-5.67263
-5.67464
-5.6728
-5.66664
)
;

boundaryField
{
    leftWall
    {
        type            calculated;
        value           nonuniform List<scalar> 
50
(
677.338
618.401
559.277
499.961
440.467
380.811
321.008
261.072
167.139
54.009
3.22429
-0.169275
-0.633385
-0.978488
-1.11831
-1.25621
-1.39398
-1.53026
-1.66443
-1.79687
-1.92818
-2.05902
-2.18982
-2.32079
-2.4519
-2.58292
-2.71355
-2.8446
-2.97697
-3.10976
-3.24033
-3.36856
-3.49626
-3.62402
-3.75181
-3.87958
-4.00732
-4.13502
-4.26269
-4.39032
-4.5179
-4.64542
-4.77289
-4.9003
-5.02765
-5.15496
-5.28227
-5.40966
-5.53713
-5.66427
)
;
    }
    rightWall
    {
        type            calculated;
        value           nonuniform List<scalar> 
50
(
873.179
816.022
760.272
706.151
653.587
602.722
552.952
503.888
427.739
324.687
221.366
125.621
56.1265
20.6063
6.66607
0.340194
-1.69901
-1.81178
-1.93596
-2.04979
-2.16537
-2.28572
-2.41052
-2.53483
-2.65287
-2.76762
-2.88249
-2.99945
-3.1186
-3.23737
-3.35572
-3.47394
-3.59228
-3.71062
-3.82905
-3.94809
-4.06797
-4.1886
-4.30992
-4.43186
-4.55348
-4.67541
-4.79904
-4.92266
-5.04527
-5.16809
-5.29176
-5.41617
-5.54131
-5.66664
)
;
    }
    lowerWall
    {
        type            calculated;
        value           nonuniform List<scalar> 
62
(
706.767
707.428
709.268
711.94
715.017
718.413
722.051
725.871
729.824
733.874
738.003
742.2
746.471
750.81
755.215
759.69
764.241
768.916
773.115
777.578
782.847
787.314
790.417
761.316
701.988
643.052
584.827
527.455
470.859
414.463
356.379
267.844
257.466
248.128
232.988
612.77
553.798
493.487
433.088
373.429
313.622
249.341
183.281
641.852
642.36
662.795
689.403
709.506
724.105
736.156
748.072
759.732
772.249
789.496
810.382
831.71
849.9
859.658
868.858
879.877
891.436
901.56
)
;
    }
    atmosphere
    {
        type            calculated;
        value           nonuniform List<scalar> 
46
(
-5.72911
-5.72955
-5.72953
-5.72948
-5.72943
-5.7294
-5.72937
-5.72936
-5.72935
-5.72935
-5.72935
-5.72937
-5.72938
-5.7294
-5.72942
-5.72944
-5.72947
-5.72948
-5.7295
-5.7295
-5.7295
-5.72949
-5.72947
-5.72945
-5.72943
-5.72941
-5.72938
-5.72933
-5.72926
-5.72919
-5.72913
-5.72909
-5.72905
-5.72904
-5.72904
-5.72904
-5.72904
-5.72904
-5.72904
-5.72904
-5.72904
-5.72904
-5.73784
-5.74394
-5.74386
-5.73023
)
;
    }
    defaultFaces
    {
        type            empty;
    }
}


// ************************************************************************* //
