/*--------------------------------*- C++ -*----------------------------------*\
| =========                 |                                                 |
| \\      /  F ield         | OpenFOAM: The Open Source CFD Toolbox           |
|  \\    /   O peration     | Version:  2.3.0                                 |
|   \\  /    A nd           | Web:      www.OpenFOAM.org                      |
|    \\/     M anipulation  |                                                 |
\*---------------------------------------------------------------------------*/
FoamFile
{
    version     2.0;
    format      ascii;
    class       volScalarField;
    location    "1.95";
    object      p_rgh;
}
// * * * * * * * * * * * * * * * * * * * * * * * * * * * * * * * * * * * * * //

dimensions      [1 -1 -2 0 0 0 0];

internalField   nonuniform List<scalar> 
2268
(
706.767
707.428
709.268
711.94
715.017
718.413
722.051
725.871
729.824
733.874
738.003
742.2
746.471
750.81
755.215
759.69
764.241
768.916
773.115
777.578
782.847
787.314
790.417
706.689
707.063
708.736
711.331
714.377
717.818
721.544
725.473
729.542
733.705
737.933
742.219
746.563
750.986
755.518
760.197
765.049
770.202
774.212
779.261
783.396
786.415
789.291
706.424
706.913
708.316
710.681
713.656
717.113
720.923
724.977
729.19
733.497
737.856
742.254
746.701
751.235
755.916
760.811
765.966
771.548
776.112
780.258
782.766
785.747
789.89
705.967
706.696
707.963
710.134
713.022
716.48
720.356
724.522
728.866
733.306
737.787
742.291
746.833
751.463
756.256
761.286
766.602
772.306
778.673
779.828
782.12
785.205
790.796
705.332
706.289
707.552
709.606
712.437
715.906
719.853
724.123
728.587
733.141
737.725
742.316
746.934
751.636
756.498
761.582
766.915
772.501
778.579
781.6
783.287
786.14
792.279
704.534
705.659
706.983
708.986
711.801
715.314
719.354
723.742
728.329
732.99
737.661
742.321
746.998
751.755
756.664
761.753
767.015
772.374
777.868
782.56
784.866
787.39
794.575
703.589
704.816
706.208
708.199
711.039
714.637
718.805
723.337
728.058
732.826
737.575
742.29
747.011
751.813
756.757
761.823
766.955
772.022
776.909
780.81
782.708
787.025
797.038
702.512
703.749
705.182
707.196
710.107
713.838
718.176
722.877
727.741
732.606
737.415
742.16
746.907
751.744
756.71
761.709
766.624
771.29
775.457
778.302
779.049
782.473
797.813
641.852
642.36
662.795
689.403
709.506
724.105
736.156
748.072
759.732
772.249
789.496
810.382
831.71
849.9
859.658
868.858
879.877
891.436
901.56
641.045
635.877
655.829
682.791
703.605
718.916
730.314
741.994
753.031
766.497
789.171
812.175
834.633
854.349
861.513
870.64
878.217
888.617
901.166
638.11
631.606
655.759
679.604
699.881
718.053
734.946
741.817
750.674
763.242
785.863
813.899
837.282
858.227
864.871
871.947
879.14
887.305
902.18
636.949
634.879
656.34
676.375
695.477
714.096
732.543
750.315
757.282
762.27
790.83
814.499
838.703
860.426
876.181
872.299
879.84
888.789
904.822
635.804
641.094
658.14
675.527
693.145
711.748
731.155
750.181
767.618
763.918
787.591
813.558
839.066
861.53
880.697
877.685
880.607
894.594
909.014
632.104
646.128
661.436
675.373
691.416
709.948
730.463
751.234
769.939
769.869
718.679
762.658
838.475
861.904
881.072
897.36
889.394
903.001
913.601
627.924
652.302
664.741
674.481
689.098
707.918
730.089
753.358
774.683
717.659
689.354
702.465
751.74
852.281
880.75
898.156
910.201
915.443
923.085
619.989
654.235
662.668
668.637
683.135
703.808
729.276
756.392
781.332
716.276
686.217
699.589
712.938
730.682
803.201
880.148
913.42
922.751
930.762
700.601
701.659
703.086
705.235
708.411
712.497
717.201
722.213
727.3
732.273
737.111
741.843
746.588
751.478
756.494
761.346
765.823
769.717
772.608
773.444
771.389
766.266
760.595
550.844
551.062
555.935
565.661
581.354
601.08
621.912
641.817
659.488
673.968
687.106
700.033
713.004
726.748
741.62
755.268
764.939
770.058
772.942
772.909
767.973
756.511
735.96
43.5672
48.4744
51.5251
58.3291
69.575
84.2814
101.418
119.682
140.083
160.792
181.205
200.249
221.222
247.743
282.256
320.873
363.164
407.351
446.864
471.616
451.76
406.898
331.152
2.19002
2.18345
2.24293
2.35552
2.47251
2.52952
2.59047
2.69724
2.99071
3.46691
4.05096
5.18297
5.62983
4.69612
2.36891
1.25769
0.907906
1.10143
3.16821
7.48556
11.0095
11.495
11.0412
3.66811
4.1541
4.94565
6.67215
9.29435
11.0669
11.1937
6.00995
7.13812
12.1173
17.9072
18.3076
18.5147
18.2342
14.2847
1.81706
1.33556
1.49769
2.25596
14.4628
34.6234
41.1752
35.7591
0.252471
0.178822
0.174909
0.167066
0.159451
0.476332
2.02287
8.80443
11.0266
10.9933
10.8386
14.1283
18.3934
18.6005
7.20116
1.17511
1.19594
1.17898
2.78274
29.3683
39.8203
41.5765
41.8318
0.166328
0.167538
0.165344
0.159779
0.152896
0.146432
0.132681
0.0901324
0.0659991
0.0633291
0.0730633
0.0968221
0.166509
1.25223
4.33952
0.909125
0.994829
0.947862
1.09106
2.93391
22.2183
39.1514
23.6125
0.153626
0.155002
0.156918
0.155825
0.148573
0.137554
0.132409
0.12936
0.112405
0.0988068
0.109739
0.149773
0.946474
3.25537
4.4453
3.39254
1.47465
0.581768
1.61547
2.70031
0.201544
0.198262
0.209506
0.141051
0.141532
0.146914
0.143858
0.136341
0.129167
0.143925
0.133639
0.116813
0.0950257
0.116404
0.49331
1.67692
2.86929
3.5764
3.69787
3.07451
0.323068
1.84842
2.48956
0.177645
0.165867
0.194289
0.129961
0.128642
0.127789
0.127636
0.120157
0.116814
0.116383
0.116227
0.092371
0.0847501
0.0799476
0.0693588
0.119106
0.393717
0.901802
2.26106
1.26577
0.167641
1.10737
2.14411
1.09646
0.225784
0.176991
0.120986
0.118037
0.115656
0.112797
0.108795
0.103331
0.0965541
0.0891181
0.0823152
0.0760258
0.0688474
0.0585485
0.0442894
0.0327743
0.0292854
0.0463191
0.0352233
0.111636
0.998498
1.56749
1.47335
0.445226
0.146002
0.113789
0.109466
0.105787
0.102534
0.0987513
0.0939936
0.0883044
0.0820542
0.0757862
0.0694902
0.0624767
0.0536521
0.0430637
0.0337318
0.0288393
0.0268916
0.0257167
0.0729844
0.820093
0.429556
0.33765
0.226026
0.106191
0.107745
0.10227
0.0974852
0.0937922
0.0901252
0.0858787
0.0809842
0.0756293
0.0700776
0.0643544
0.0581718
0.0511417
0.0434269
0.0363002
0.0313985
0.0281768
0.0254948
0.0658765
0.0902648
0.0193678
0.0374723
0.059268
0.0745674
0.102113
0.0959631
0.0904427
0.0864301
0.0828537
0.0790052
0.0747327
0.0701119
0.0652816
0.0602809
0.0550235
0.0494094
0.0436421
0.0383803
0.0342248
0.0309593
0.0281174
0.0302848
0.022396
0.0266554
0.0363151
0.0484047
0.0568825
0.0965133
0.0901458
0.0843367
0.0802024
0.0767475
0.0732395
0.0694818
0.0654866
0.0613271
0.0570421
0.0526217
0.048087
0.043619
0.0395695
0.0361906
0.0333702
0.0309311
0.0286645
0.0275943
0.0298061
0.0349861
0.0412746
0.0480636
0.0907467
0.0846319
0.078943
0.0748825
0.0715848
0.068373
0.0650449
0.06158
0.0580154
0.05438
0.0506837
0.0469684
0.0433739
0.0400957
0.0372576
0.0348089
0.0326777
0.0308647
0.0298873
0.0307678
0.0331717
0.0358497
0.0933732
0.0847601
0.079318
0.0741738
0.0702963
0.0671714
0.0642125
0.0612373
0.0582092
0.0551462
0.0520636
0.0489679
0.045887
0.0429064
0.0401414
0.0376604
0.0354481
0.0334801
0.0318058
0.0307153
0.0306251
0.0312778
0.0346776
0.0616898
0.0788797
0.0743451
0.0699266
0.0663078
0.0633352
0.0605861
0.0578999
0.0552271
0.0525687
0.0499299
0.0473082
0.0447128
0.0421829
0.0397787
0.0375433
0.0354801
0.0335931
0.0319315
0.0306434
0.0298808
0.0296102
0.031826
0.0284907
0.0734254
0.0699618
0.0660869
0.0627318
0.0598898
0.0573291
0.0548952
0.0525171
0.0501814
0.0478858
0.0456226
0.043388
0.0411904
0.0390524
0.0369978
0.0350381
0.0331886
0.031487
0.030005
0.0288029
0.0279022
0.0268451
0.0256014
0.114372
0.125148
0.0642495
0.0592435
0.0566028
0.0542871
0.0521149
0.0500041
0.0479335
0.045901
0.0439002
0.0419234
0.0399641
0.0380224
0.0361067
0.0342279
0.0324024
0.0306561
0.0290244
0.0275298
0.0261237
0.0247284
0.0232485
0.161188
0.160538
0.145238
0.0556664
0.0533079
0.0513727
0.0495097
0.0476618
0.0458208
0.0439924
0.0421791
0.0403775
0.0385788
0.0367747
0.0349629
0.0331498
0.0313473
0.0295715
0.0278396
0.0261579
0.024503
0.0228486
0.021121
0.157244
0.158216
0.157939
0.0675596
0.0502498
0.0486371
0.0471049
0.0455073
0.0438642
0.0421951
0.0405143
0.0388267
0.0371283
0.0354113
0.0336696
0.0319045
0.0301217
0.0283298
0.026536
0.0247397
0.0229262
0.0210916
0.0191807
0.0663737
0.12535
0.0911464
0.0569016
0.0478133
0.0463289
0.0449628
0.0435669
0.0420789
0.040531
0.0389441
0.0373295
0.0356894
0.0340204
0.0323176
0.0305793
0.0288073
0.0270049
0.025173
0.0233063
0.0213934
0.0194384
0.0173969
0.0444224
0.046671
0.0455217
0.045759
0.0451854
0.0441961
0.0430762
0.0418162
0.04044
0.0389816
0.0374632
0.035898
0.0342924
0.0326477
0.0309624
0.0292349
0.027465
0.025653
0.023796
0.021886
0.0199126
0.0178811
0.0157543
0.0418767
0.0429683
0.0436332
0.0435917
0.0431039
0.0423266
0.0413302
0.0401661
0.0388756
0.0374891
0.0360271
0.0345029
0.0329249
0.0312978
0.0296231
0.0279005
0.0261298
0.0243099
0.0224368
0.0205014
0.0184942
0.0164197
0.0142464
0.0393126
0.0405725
0.0413946
0.0415112
0.0411497
0.0404815
0.0395846
0.0385107
0.0372995
0.0359807
0.0345745
0.0330944
0.0315496
0.0299462
0.0282875
0.0265749
0.0248087
0.0229881
0.0211093
0.0191641
0.0171443
0.0150542
0.0128673
0.0367132
0.0379884
0.0389399
0.0392428
0.0390473
0.0385156
0.0377347
0.0367606
0.0356351
0.03439
0.0330473
0.0316214
0.030122
0.0285556
0.0269263
0.0252368
0.0234881
0.0216802
0.0198104
0.0178725
0.0158603
0.0137787
0.0116061
0.0341384
0.0353755
0.036391
0.036834
0.0367873
0.0363919
0.035733
0.0348664
0.0338352
0.0326733
0.0314049
0.0300458
0.0286059
0.0270921
0.0255091
0.0238598
0.0221463
0.0203692
0.0185271
0.0166157
0.0146317
0.0125811
0.010447
0.0315965
0.0327698
0.0337993
0.0343304
0.0343974
0.0341204
0.0335766
0.0328172
0.0318847
0.0308133
0.0296285
0.0283472
0.02698
0.025534
0.0240141
0.0224235
0.0207645
0.0190383
0.0172445
0.0153805
0.0134452
0.0114468
0.00937219
0.0290866
0.0301806
0.0311938
0.0317708
0.0319164
0.0317341
0.0312902
0.0306304
0.0297944
0.0288159
0.0277201
0.0265242
0.0252399
0.0238743
0.0224324
0.0209173
0.0193314
0.0176758
0.0159506
0.0141545
0.0122883
0.0103619
0.00836551
0.0266124
0.0276178
0.0285954
0.0291878
0.029384
0.0292729
0.0289109
0.0283383
0.0275919
0.0267035
0.0256974
0.0245909
0.0233958
0.0221198
0.0207675
0.0193418
0.0178446
0.0162768
0.0146387
0.0129294
0.0111515
0.00931557
0.00741456
0.0241784
0.0250921
0.0260196
0.0266065
0.0268327
0.0267729
0.0264752
0.025976
0.0253098
0.0245058
0.023587
0.0225704
0.021468
0.0202874
0.0190328
0.0177068
0.0163105
0.0148444
0.0133087
0.011703
0.0100303
0.00830177
0.00651175
0.021793
0.0226128
0.0234776
0.0240445
0.0242852
0.0242602
0.0240115
0.0235734
0.0229776
0.0222513
0.0214162
0.0204887
0.0194806
0.018399
0.0172479
0.0160289
0.0147426
0.013389
0.0119681
0.0104796
0.00892657
0.00732001
0.0056546
0.0194633
0.0201863
0.0209779
0.0215129
0.0217548
0.0217505
0.0215384
0.0211507
0.0206172
0.019963
0.0192087
0.0183698
0.0174572
0.0164776
0.0154341
0.0143276
0.0131581
0.0119254
0.0106289
0.0092684
0.0078467
0.00637388
0.00484441
0.0171927
0.0178154
0.0185248
0.0190175
0.019248
0.0192526
0.0190666
0.0187209
0.0182436
0.0176582
0.0169836
0.0162339
0.0154187
0.0145437
0.0136111
0.0126213
0.011574
0.0104683
0.00930369
0.00807947
0.00679814
0.00546834
0.00408392
0.0149805
0.0154976
0.0161169
0.0165586
0.0167674
0.016771
0.0166028
0.0162932
0.0158686
0.0153509
0.0147567
0.014098
0.0133826
0.0126145
0.0117956
0.0109257
0.0100042
0.00903019
0.00800288
0.00692133
0.00578735
0.00460792
0.00337594
0.0128221
0.0132233
0.0137451
0.0141306
0.0143114
0.0143074
0.0141519
0.0138754
0.013503
0.0130539
0.0125421
0.0119766
0.0113629
0.0107038
0.0100004
0.00925239
0.0084593
0.00762025
0.00673425
0.00580019
0.00481915
0.00379622
0.0027234
0.0107054
0.0109731
0.0113927
0.0117242
0.011876
0.0118622
0.0117185
0.0114759
0.0111575
0.0107795
0.0103521
0.00988148
0.00937082
0.00882175
0.00823485
0.00761009
0.0069471
0.00624518
0.00550337
0.00472052
0.00389702
0.00303613
0.00212935
0.00859093
0.00871121
0.00903722
0.00933568
0.00946744
0.00944627
0.00931672
0.00911175
0.00885099
0.00854626
0.00820435
0.00782871
0.00742092
0.00698172
0.00651147
0.0060103
0.0054781
0.00491447
0.00431864
0.00368949
0.00302707
0.00233306
0.00159881
0.00639815
0.00638174
0.00663778
0.00698803
0.00712551
0.00709803
0.00698419
0.00681994
0.00661861
0.00638701
0.00612891
0.00584596
0.00553871
0.00520743
0.00485234
0.00447368
0.00407162
0.003646
0.00319633
0.00272171
0.00222207
0.00169808
0.00114074
0.0041167
0.00372647
0.00405317
0.00469235
0.00486537
0.00482614
0.00472765
0.00460473
0.00446157
0.00430026
0.00412231
0.00392828
0.00371819
0.00349207
0.00325006
0.00299248
0.00271966
0.00243177
0.00212858
0.00180955
0.0014744
0.00112395
0.000757403
0.00217103
-0.000180247
0.000738042
0.00159074
0.00176888
0.00176468
0.00172747
0.00167899
0.00162053
0.00155296
0.00147698
0.00139293
0.00130098
0.0012015
0.00109511
0.000982737
0.000865521
0.000744534
0.000620569
0.000494107
0.000365309
0.000234757
0.000105309
737.548
726.482
715.938
698.729
707.42
681.095
646.806
601.907
254.343
201.639
139.909
24.2696
12.1833
13.2395
13.1257
12.366
27.941
21.6863
23.9693
26.6444
38.5469
32.3661
40.9032
41.8895
0.882995
0.745621
1.25456
12.8405
0.31371
0.346177
0.3493
0.301957
0.318321
0.264915
0.251376
0.241351
0.225905
0.3431
0.206158
0.188679
0.216593
0.375572
0.162064
0.151702
0.313163
0.484097
0.257981
0.120636
0.292129
0.477856
0.264292
0.0928917
0.310718
0.481229
0.0731594
0.0716957
0.346281
0.370459
0.0522166
0.0558132
0.119083
0.037907
0.0410037
0.0432872
0.0317231
0.0326147
0.033696
0.0345114
0.0281233
0.0281562
0.0281187
0.0279443
0.024908
0.0243375
0.0236038
0.0228244
0.0221123
0.0211504
0.0199936
0.0188448
0.0196788
0.0184769
0.017079
0.0157221
0.0175353
0.0161988
0.0146795
0.0132208
0.0156274
0.0142302
0.0126697
0.0111778
0.013922
0.0125144
0.0109654
0.00948414
0.0123972
0.0110117
0.0095056
0.00806196
0.0110336
0.00968927
0.00824175
0.00684979
0.00980951
0.00851484
0.00713069
0.00579591
0.00870101
0.00745714
0.00613504
0.00485816
0.00768562
0.0064907
0.00522696
0.00400663
0.00674558
0.00559838
0.00438976
0.00322444
0.00586873
0.00477043
0.00361586
0.00250523
0.00504844
0.00400269
0.00290391
0.00184962
0.00428305
0.00329538
0.00225685
0.00126246
0.00357415
0.00265152
0.00167983
0.000750349
0.00292426
0.00207465
0.00117794
0.00031962
0.00233576
0.00156766
0.00075506
-2.46165e-05
0.00181176
0.00113394
0.000415086
-0.000277618
0.00135578
0.00077722
0.000161926
-0.000435046
0.000971974
0.000501035
-1.02601e-06
-0.000492438
0.000659722
0.000301322
-7.78265e-05
-0.000449334
0.00045879
0.00022864
-1.99057e-05
-0.0002692
1.37892e-05
-6.26817e-05
-0.000148194
-0.000235397
652.789
624.662
584.519
559.684
582.731
627.309
686.872
758.957
790.096
796.359
753.668
694.634
709.613
721.823
734.02
791.798
914.385
933.057
946.208
458.029
234.397
134.519
139.204
205.097
320.616
437.354
634.888
753.597
798.262
822.831
828.638
770.215
733.781
790.683
898.733
932.709
946.492
965.664
10.6145
12.096
13.0535
13.7468
15.3458
38.6585
167.149
308.976
511.2
709.831
808.382
833.955
853.357
885.849
910.912
916.6
923.522
935.626
983.065
11.4657
11.5339
11.936
12.3539
12.8869
13.5712
34.3445
45.5526
78.923
195.568
425.262
596.756
655.555
707.424
727.036
698.002
586.761
622.447
914.717
19.0922
11.5813
11.8884
12.2817
12.6388
12.8691
13.1689
13.8827
14.2993
14.3874
37.8183
192.609
294.874
325.715
335.821
341.182
290.549
295.823
619.461
43.1776
42.3919
16.2922
16.5183
21.6342
28.058
31.9635
30.4649
30.2584
25.3379
22.6245
41.4803
132.657
153.938
202.278
267.106
287.013
211.85
246.435
39.144
45.0535
47.1644
48.6738
49.1876
49.1883
49.4865
50.2409
50.9801
51.4557
35.3195
22.9339
21.8684
51.8891
130.672
223.99
267.321
201.644
112.251
0.149129
2.51738
18.5909
28.3594
28.9333
24.3492
22.4378
23.7834
31.0055
44.3748
46.4182
28.7604
1.32258
1.62785
21.3589
58.9497
87.2924
89.9034
45.9154
0.215589
0.176026
0.085222
0.031212
0.0605937
0.111393
0.140976
0.147562
0.130213
0.122076
12.952
15.471
0.435492
0.2023
0.0327647
-0.0988962
-0.0401335
0.26712
0.312125
0.181399
0.174907
0.167351
0.162418
0.220751
0.331793
0.335125
0.238728
0.174517
0.149537
0.0755331
0.59654
0.353457
-0.0184696
-0.0538879
-0.0867444
-0.0579099
0.00266903
-0.00175353
0.146749
0.140276
0.13373
0.147997
0.515403
0.624639
0.614006
0.595475
0.528911
0.320104
0.0810954
-0.00708707
0.0181347
-0.0297466
-0.0601274
-0.0797071
-0.0672744
-0.0134006
0.00205663
0.119467
0.113862
0.105859
0.125607
0.54464
0.616959
0.607252
0.589741
0.565488
0.53786
0.0405397
0.00300528
-0.0125582
-0.0304644
-0.0473191
-0.0549016
-0.0308697
0.0336102
0.0655605
0.0970729
0.0932758
0.0866283
0.0760043
0.193322
0.61796
0.609338
0.590899
0.56848
0.53621
0.188847
0.0108413
-0.00726149
-0.0271166
-0.022054
0.157526
0.202282
0.195118
0.190265
0.0812731
0.101207
0.0948895
0.066755
0.0530832
0.258158
0.614628
0.478814
0.0438851
0.185237
0.355937
0.343173
0.129229
-0.0368193
0.00984451
0.237075
0.229849
0.222116
0.214723
0.0641763
0.119042
0.117006
0.0665312
0.0464054
0.0713959
0.226997
0.0725443
-0.0136377
-0.00249926
0.328165
0.357003
0.342707
-0.0514322
-0.0713194
0.0651944
0.207264
0.24317
0.234068
0.0539948
0.111877
0.107378
0.100215
0.0505273
0.0186076
-0.00680757
-0.00671358
-0.0154286
-0.033071
0.0277333
0.117657
0.0830781
-0.0518894
-0.0764702
0.00851233
0.251051
0.247819
0.0267247
0.0373293
0.0860775
0.100195
0.0940291
0.0857846
0.0549229
-0.00768852
-0.0173316
-0.0257062
-0.0357502
-0.0473791
-0.0582112
-0.0667093
-0.0731083
-0.0773228
0.0777172
0.171917
-0.084084
-0.115503
0.0271609
0.0407761
0.0949636
0.0895094
0.0825793
0.0745257
0.018116
-0.0181786
-0.0265478
-0.0355724
-0.0452402
-0.0544839
-0.0628973
-0.0711727
-0.066891
-0.057172
-0.101978
-0.105162
-0.10525
0.0213592
0.0177731
0.033393
0.0824473
0.0802355
0.0730469
0.0239878
-0.0196557
-0.0271842
-0.033856
-0.0415264
-0.0520534
-0.060392
-0.0685184
-0.0768809
-0.0866626
-0.0931813
-0.0947667
-0.0682578
0.0169651
0.0133939
0.00857696
0.00382816
0.0193853
0.0255416
0.00016072
-0.0210465
-0.0277162
-0.0329361
-0.0395192
-0.0472836
-0.0575393
-0.0658337
-0.0735314
-0.0806683
-0.0858923
-0.0810313
0.0879438
0.0136095
0.0100964
0.0056711
0.000518682
-0.0050934
-0.0108112
-0.0163336
-0.0215889
-0.0261479
-0.0318735
-0.0384425
-0.0454798
-0.0546558
-0.0627958
-0.0693653
-0.0751913
-0.0794626
-0.0698744
0.101601
0.0109984
0.00756402
0.00343408
-0.00128196
-0.00637352
-0.0116465
-0.0169649
-0.0224695
-0.0268655
-0.0317175
-0.038329
-0.0465392
-0.0533594
-0.0595264
-0.0651299
-0.0699392
-0.0734113
-0.0579284
0.115561
0.00892145
0.00557361
0.00168534
-0.00268225
-0.00737945
-0.0122863
-0.0173275
-0.0225646
-0.0280304
-0.0319209
-0.0370006
-0.0443191
-0.0508033
-0.0560635
-0.0608312
-0.0647966
-0.0675445
-0.0308534
0.129801
0.00724083
0.00398799
0.000309456
-0.0037637
-0.00812424
-0.012694
-0.0174228
-0.0223221
-0.0274029
-0.0325571
-0.0370222
-0.0418566
-0.0469539
-0.0521787
-0.0564638
-0.0597092
-0.0618332
-0.0165612
0.14385
0.00586181
0.00271471
-0.000770959
-0.00457974
-0.00863156
-0.0128741
-0.0172694
-0.0218044
-0.0264622
-0.0311896
-0.0358976
-0.0401878
-0.0442755
-0.0483242
-0.0519697
-0.0546305
-0.0561403
-0.0356688
0.157171
0.00471264
0.0016826
-0.00161731
-0.00517829
-0.00893794
-0.0128592
-0.0169113
-0.0210704
-0.0253068
-0.0295656
-0.0337656
-0.0378028
-0.0415523
-0.0448435
-0.0475924
-0.0495636
-0.0503982
-0.0483865
0.14981
0.0037347
0.00083243
-0.00228358
-0.00560696
-0.00908676
-0.0126944
-0.0164038
-0.0201878
-0.0240114
-0.0278208
-0.0315408
-0.0350745
-0.0383048
-0.0410915
-0.0432723
-0.0446292
-0.0447813
-0.0431485
0.157831
0.00288101
0.000116011
-0.00281613
-0.0059098
-0.00912117
-0.0124262
-0.0158019
-0.019221
-0.0226477
-0.0260309
-0.0293013
-0.0323699
-0.035126
-0.0374345
-0.0391331
-0.039992
-0.0395944
-0.010732
0.173384
0.00211846
-0.000501648
-0.00325053
-0.00612234
-0.00907755
-0.0120944
-0.0151516
-0.0182231
-0.0212745
-0.0242587
-0.0271131
-0.0297571
-0.0320892
-0.0339836
-0.0352864
-0.0357778
-0.0350462
0.022094
0.18535
0.0014285
-0.00104167
-0.00360967
-0.00626864
-0.00898158
-0.0117274
-0.0144855
-0.017231
-0.019932
-0.0225467
-0.0250199
-0.0272796
-0.0292351
-0.030773
-0.0317549
-0.0319877
-0.0310929
0.0279232
0.19656
0.000804317
-0.00151343
-0.00390492
-0.00636164
-0.00884783
-0.0113416
-0.0138219
-0.0162645
-0.0186413
-0.0209162
-0.0230417
-0.0249552
-0.0265758
-0.0278022
-0.0285106
-0.0285289
-0.0275011
0.0020243
0.20695
0.000246863
-0.00191808
-0.00413911
-0.00640564
-0.00868188
-0.0109436
-0.0131676
-0.0153301
-0.0174074
-0.0193704
-0.0211798
-0.0227818
-0.0241048
-0.0250559
-0.0255183
-0.0253131
-0.0240484
-0.0210923
0.197123
-0.000238652
-0.00225189
-0.00430973
-0.00639923
-0.00848334
-0.0105338
-0.0125226
-0.0144255
-0.016225
-0.0179006
-0.0194222
-0.0207455
-0.0218073
-0.022521
-0.0227708
-0.0223582
-0.0208121
0.00631533
0.10754
-0.000645354
-0.00250875
-0.0044113
-0.00633782
-0.00824904
-0.0101105
-0.0118849
-0.0135451
-0.0150835
-0.0164911
-0.0177492
-0.0188242
-0.0196627
-0.0201866
-0.0202856
-0.0197697
-0.0181641
0.0703961
0.151694
-0.000966318
-0.00268159
-0.00443675
-0.00621536
-0.00797585
-0.00967507
-0.0112568
-0.0126855
-0.0139718
-0.0151233
-0.0161355
-0.0169871
-0.0176366
-0.0180171
-0.0180311
-0.0175246
-0.0160905
0.0668731
0.157614
-0.00119524
-0.00276258
-0.00437731
-0.00602452
-0.00766202
-0.00923532
-0.0106494
-0.0118487
-0.0128809
-0.0137781
-0.0145528
-0.0151974
-0.0156814
-0.0159471
-0.0159043
-0.01541
-0.014047
0.0117706
0.0579177
-0.00132606
-0.00274229
-0.00422095
-0.0057542
-0.00730386
-0.00880407
-0.0100821
-0.0110403
-0.0118024
-0.0124354
-0.0129717
-0.0134173
-0.013752
-0.0139228
-0.013838
-0.0133177
-0.0118369
-0.00869712
-0.00477554
-0.00135208
-0.00260763
-0.00394811
-0.00538162
-0.00688556
-0.00839615
-0.00958725
-0.0102675
-0.0107248
-0.0110717
-0.0113602
-0.0116097
-0.0118108
-0.0119204
-0.011846
-0.0113655
-0.00980651
-0.00647492
-0.00240468
-0.00126312
-0.00233638
-0.00352126
-0.00485664
-0.00637671
-0.00809138
-0.00933901
-0.00962407
-0.00968053
-0.00968968
-0.00970449
-0.00974839
-0.00982703
-0.00992188
-0.00995251
-0.00969889
-0.00828052
-0.00499112
-0.000864587
-0.00104323
-0.00189487
-0.00287912
-0.00409819
-0.00579235
-0.00832044
-0.0100952
-0.00955633
-0.0089078
-0.00843214
-0.00809084
-0.00787474
-0.00779869
-0.00788572
-0.00810026
-0.00825739
-0.00724596
-0.00426368
-4.44659e-05
-0.000681747
-0.00126094
-0.00196801
-0.00302145
-0.00518019
-0.00987601
-0.0128217
-0.0104239
-0.00857625
-0.00741182
-0.00659739
-0.00602661
-0.0056916
-0.00565347
-0.00589796
-0.00680228
0.00486525
-0.00343389
0.000124751
-0.00038331
-0.000598615
-0.000936566
-0.00168561
-0.00398586
-0.010862
-0.0117403
-0.00809312
-0.00594979
-0.00470883
-0.00385553
-0.00323187
-0.00278148
-0.00251013
-0.00293786
0.00251911
0.00654392
0.00830237
0.000983984
)
;

boundaryField
{
    leftWall
    {
        type            fixedFluxPressure;
        gradient        uniform 0;
        value           nonuniform List<scalar> 
50
(
706.767
706.689
706.424
705.967
705.332
704.534
703.589
702.512
700.601
550.844
43.5672
2.19002
3.66811
0.252471
0.166328
0.153626
0.141051
0.129961
0.120986
0.113789
0.107745
0.102113
0.0965133
0.0907467
0.0847601
0.0788797
0.0734254
0.114372
0.161188
0.157244
0.0663737
0.0444224
0.0418767
0.0393126
0.0367132
0.0341384
0.0315965
0.0290866
0.0266124
0.0241784
0.021793
0.0194633
0.0171927
0.0149805
0.0128221
0.0107054
0.00859093
0.00639815
0.0041167
0.00217103
)
;
    }
    rightWall
    {
        type            fixedFluxPressure;
        gradient        uniform 0;
        value           nonuniform List<scalar> 
50
(
901.56
901.166
902.18
904.822
909.014
913.601
923.085
930.762
946.208
965.664
983.065
914.717
619.461
246.435
112.251
45.9154
0.312125
-0.00175353
0.00205663
0.0655605
0.190265
0.214723
0.234068
0.0267247
-0.115503
-0.10525
-0.0682578
0.0879438
0.101601
0.115561
0.129801
0.14385
0.157171
0.14981
0.157831
0.173384
0.18535
0.19656
0.20695
0.197123
0.10754
0.151694
0.157614
0.0579177
-0.00477554
-0.00240468
-0.000864587
-4.44659e-05
0.000124751
0.000983984
)
;
    }
    lowerWall
    {
        type            fixedFluxPressure;
        gradient        uniform 0;
        value           nonuniform List<scalar> 
62
(
706.767
707.428
709.268
711.94
715.017
718.413
722.051
725.871
729.824
733.874
738.003
742.2
746.471
750.81
755.215
759.69
764.241
768.916
773.115
777.578
782.847
787.314
790.417
790.417
789.291
789.89
790.796
792.279
794.575
797.038
797.813
737.548
726.482
715.938
698.729
641.852
641.045
638.11
636.949
635.804
632.104
627.924
619.989
641.852
642.36
662.795
689.403
709.506
724.105
736.156
748.072
759.732
772.249
789.496
810.382
831.71
849.9
859.658
868.858
879.877
891.436
901.56
)
;
    }
    atmosphere
    {
        type            totalPressure;
        rho             rho;
        psi             none;
        gamma           1;
        p0              uniform 0;
        value           nonuniform List<scalar> 
46
(
-7.43298e-05
-0.000509476
-0.000493984
-0.000436307
-0.000392188
-0.00035872
-0.000334262
-0.000318101
-0.000309736
-0.000308605
-0.000314044
-0.000325258
-0.000341273
-0.000360893
-0.000382669
-0.000404908
-0.00042572
-0.00044313
-0.000455238
-0.000460435
-0.000457668
-0.00044669
-0.000428268
-0.000409168
-0.000391857
-0.000368572
-0.000340346
-0.000289256
-0.000216115
-0.000148461
-9.15954e-05
-4.82047e-05
-1.19074e-05
0
0
0
0
0
0
0
0
0
0
0
0
0
)
;
    }
    defaultFaces
    {
        type            empty;
    }
}


// ************************************************************************* //
