/*--------------------------------*- C++ -*----------------------------------*\
| =========                 |                                                 |
| \\      /  F ield         | OpenFOAM: The Open Source CFD Toolbox           |
|  \\    /   O peration     | Version:  2.3.0                                 |
|   \\  /    A nd           | Web:      www.OpenFOAM.org                      |
|    \\/     M anipulation  |                                                 |
\*---------------------------------------------------------------------------*/
FoamFile
{
    version     2.0;
    format      ascii;
    class       surfaceScalarField;
    location    "1.95";
    object      phi;
}
// * * * * * * * * * * * * * * * * * * * * * * * * * * * * * * * * * * * * * //

dimensions      [0 3 -1 0 0 0 0];

internalField   nonuniform List<scalar> 
4432
(
-1.45476e-06
1.45476e-06
-1.41653e-06
-3.8241e-08
-8.54142e-07
-5.62391e-07
-2.02378e-07
-6.51768e-07
4.00705e-07
-6.03088e-07
9.145e-07
-5.13803e-07
1.3257e-06
-4.11208e-07
1.63209e-06
-3.06381e-07
1.83832e-06
-2.06226e-07
1.95431e-06
-1.15992e-07
1.99547e-06
-4.1162e-08
1.97706e-06
1.842e-08
1.90766e-06
6.94038e-08
1.78033e-06
1.27339e-07
1.55852e-06
2.2181e-07
1.17411e-06
3.84409e-07
5.39759e-07
6.3437e-07
-4.35928e-07
9.75678e-07
-2.25122e-06
1.81529e-06
-4.60256e-06
2.35135e-06
-6.10726e-06
1.50468e-06
-4.82344e-06
-1.28381e-06
-4.82344e-06
-7.50115e-07
2.20487e-06
-5.63761e-07
-2.24605e-07
-1.18965e-07
-1.00719e-06
4.01362e-07
-1.1721e-06
9.26546e-07
-1.12828e-06
1.40261e-06
-9.89871e-07
1.80095e-06
-8.09548e-07
2.10651e-06
-6.11938e-07
2.31498e-06
-4.14693e-07
2.43088e-06
-2.31888e-07
2.46593e-06
-7.62139e-08
2.435e-06
4.93742e-08
2.35012e-06
1.54273e-07
2.21073e-06
2.6674e-07
1.99691e-06
4.35641e-07
1.66505e-06
7.16256e-07
1.15454e-06
1.14489e-06
3.63057e-07
1.76716e-06
-7.21193e-07
2.89953e-06
-1.97785e-06
3.60802e-06
-2.99249e-06
2.51931e-06
-2.93585e-06
-1.34044e-06
-7.7593e-06
-1.47886e-07
2.35275e-06
2.37032e-08
-3.96197e-07
3.79821e-07
-1.36331e-06
8.29841e-07
-1.62213e-06
1.30015e-06
-1.59859e-06
1.74303e-06
-1.43276e-06
2.12353e-06
-1.19004e-06
2.4196e-06
-9.08017e-07
2.62161e-06
-6.16697e-07
2.73053e-06
-3.40803e-07
2.75634e-06
-1.02028e-07
2.71416e-06
9.15576e-08
2.61855e-06
2.4988e-07
2.47637e-06
4.08917e-07
2.27968e-06
6.32341e-07
2.00293e-06
9.92999e-07
1.60677e-06
1.54105e-06
1.04758e-06
2.32636e-06
4.63052e-07
3.48404e-06
-1.75949e-07
4.24703e-06
-8.39985e-07
3.18334e-06
-1.20846e-06
-9.71969e-07
-8.96775e-06
2.6398e-07
2.08877e-06
4.65257e-07
-5.97474e-07
7.78445e-07
-1.6765e-06
1.1756e-06
-2.01929e-06
1.6048e-06
-2.02779e-06
2.02007e-06
-1.84803e-06
2.38343e-06
-1.55341e-06
2.66847e-06
-1.19305e-06
2.86177e-06
-8.09999e-07
2.96173e-06
-4.40756e-07
2.97747e-06
-1.17772e-07
2.92512e-06
1.43911e-07
2.82301e-06
3.51987e-07
2.68567e-06
5.46263e-07
2.51637e-06
8.01643e-07
2.30442e-06
1.20495e-06
2.031e-06
1.81446e-06
1.69643e-06
2.66094e-06
1.42701e-06
3.75346e-06
1.1993e-06
4.47475e-06
8.51052e-07
3.53158e-06
3.41576e-07
-4.62496e-07
-8.62618e-06
5.08691e-07
1.58008e-06
7.82706e-07
-8.71486e-07
1.08387e-06
-1.97767e-06
1.44749e-06
-2.38291e-06
1.84534e-06
-2.42564e-06
2.23743e-06
-2.24012e-06
2.5852e-06
-1.90118e-06
2.85944e-06
-1.46729e-06
3.04403e-06
-9.94582e-07
3.13531e-06
-5.32042e-07
3.14205e-06
-1.24509e-07
3.08186e-06
2.04108e-07
2.97754e-06
4.56299e-07
2.85173e-06
6.72073e-07
2.71879e-06
9.34588e-07
2.5814e-06
1.34234e-06
2.43901e-06
1.95685e-06
2.31432e-06
2.78563e-06
2.29691e-06
3.77087e-06
2.3744e-06
4.39726e-06
2.27147e-06
3.63449e-06
1.58791e-06
2.21058e-07
-7.03827e-06
6.4439e-07
9.3569e-07
9.94639e-07
-1.22173e-06
1.29838e-06
-2.28141e-06
1.63865e-06
-2.72317e-06
2.01068e-06
-2.79767e-06
2.38235e-06
-2.61178e-06
2.71612e-06
-2.23495e-06
2.98101e-06
-1.73218e-06
3.15896e-06
-1.17253e-06
3.24457e-06
-6.17647e-07
3.24629e-06
-1.26236e-07
3.18322e-06
2.67181e-07
3.08269e-06
5.56834e-07
2.97553e-06
7.79229e-07
2.88694e-06
1.02318e-06
2.83174e-06
1.39754e-06
2.82451e-06
1.96407e-06
2.89895e-06
2.71119e-06
3.12253e-06
3.54729e-06
3.45832e-06
4.06147e-06
3.58804e-06
3.50478e-06
2.83304e-06
9.7605e-07
-4.20524e-06
7.17297e-07
2.18396e-07
1.11953e-06
-1.62396e-06
1.42268e-06
-2.58457e-06
1.74009e-06
-3.04058e-06
2.08646e-06
-3.14404e-06
2.43768e-06
-2.963e-06
2.75804e-06
-2.5553e-06
3.01557e-06
-1.9897e-06
3.19082e-06
-1.34777e-06
3.27672e-06
-7.03553e-07
3.28118e-06
-1.30696e-07
3.22402e-06
3.24336e-07
3.13641e-06
6.44444e-07
3.05689e-06
8.58754e-07
3.02086e-06
1.05922e-06
3.05407e-06
1.36433e-06
3.18399e-06
1.83416e-06
3.4539e-06
2.44128e-06
3.91933e-06
3.08184e-06
4.52773e-06
3.45307e-06
4.96304e-06
3.06947e-06
4.28253e-06
1.65656e-06
7.7297e-08
7.5609e-07
-5.37691e-07
1.17483e-06
-2.04269e-06
1.46099e-06
-2.87073e-06
1.74839e-06
-3.32798e-06
2.06497e-06
-3.46063e-06
2.39307e-06
-3.29111e-06
2.69907e-06
-2.86129e-06
2.95071e-06
-2.24135e-06
3.128e-06
-1.52506e-06
3.22233e-06
-7.97886e-07
3.2406e-06
-1.48963e-07
3.20192e-06
3.63017e-07
3.13974e-06
7.06628e-07
3.09895e-06
8.99548e-07
3.12412e-06
1.03404e-06
3.25072e-06
1.23774e-06
3.51808e-06
1.5668e-06
3.98052e-06
1.97885e-06
4.69455e-06
2.36781e-06
5.62044e-06
2.52719e-06
6.50157e-06
2.18833e-06
6.44647e-06
1.71166e-06
6.52379e-06
-8.76318e-06
8.76319e-06
-1.05921e-05
1.82896e-06
-4.94889e-06
-5.64326e-06
2.14953e-06
-7.09843e-06
8.06747e-06
-5.91794e-06
1.26024e-05
-4.53496e-06
1.62742e-05
-3.67175e-06
1.93033e-05
-3.02918e-06
2.1094e-05
-1.7907e-06
2.04165e-05
6.77512e-07
1.78153e-05
2.60126e-06
1.3749e-05
4.06633e-06
9.08664e-06
4.66235e-06
4.71856e-06
4.36808e-06
-6.27955e-07
5.34652e-06
-5.24507e-06
4.61712e-06
-8.16417e-06
2.91911e-06
-6.91599e-06
-1.24817e-06
-6.91601e-06
-6.16963e-06
1.49328e-05
-4.09246e-06
-2.48193e-07
1.27492e-06
-1.10106e-05
6.5867e-06
-1.24102e-05
1.07363e-05
-1.00675e-05
1.38409e-05
-7.63956e-06
1.64715e-05
-6.3024e-06
1.88153e-05
-5.37296e-06
2.04738e-05
-3.44915e-06
2.05647e-05
5.86666e-07
1.90882e-05
4.07775e-06
1.6142e-05
7.01252e-06
1.19072e-05
8.89715e-06
6.97154e-06
9.30372e-06
2.02323e-06
1.02948e-05
-2.19473e-06
8.83508e-06
-4.74513e-06
5.4695e-06
-4.78407e-06
-1.20926e-06
-1.17001e-05
-2.59394e-06
1.75268e-05
1.27653e-06
-4.11866e-06
6.04583e-06
-1.57799e-05
9.89319e-06
-1.62576e-05
1.25473e-05
-1.27217e-05
1.43914e-05
-9.48369e-06
1.60224e-05
-7.93337e-06
1.77629e-05
-7.11338e-06
1.92491e-05
-4.93542e-06
1.94953e-05
3.40489e-07
1.82287e-05
5.34434e-06
1.56654e-05
9.57583e-06
1.20492e-05
1.25134e-05
7.60674e-06
1.37461e-05
3.65491e-06
1.42467e-05
2.81745e-07
1.22082e-05
-1.87024e-06
7.62148e-06
-2.50026e-06
-5.7925e-07
-1.42003e-05
1.19588e-06
1.63309e-05
6.2419e-06
-9.16468e-06
1.03989e-05
-1.9937e-05
1.27992e-05
-1.86579e-05
1.39543e-05
-1.38768e-05
1.45561e-05
-1.00855e-05
1.52546e-05
-8.63186e-06
1.64108e-05
-8.26957e-06
1.77295e-05
-6.2541e-06
1.8193e-05
-1.23039e-07
1.71356e-05
6.40178e-06
1.48501e-05
1.18613e-05
1.17512e-05
1.56123e-05
7.98609e-06
1.75113e-05
4.72297e-06
1.75098e-05
2.18689e-06
1.47443e-05
4.46345e-07
9.362e-06
-3.28005e-07
1.95095e-07
-1.45283e-05
5.15655e-06
1.11743e-05
1.12439e-05
-1.5252e-05
1.45258e-05
-2.32188e-05
1.53316e-05
-1.94637e-05
1.4935e-05
-1.34801e-05
1.42887e-05
-9.43927e-06
1.41098e-05
-8.4529e-06
1.4709e-05
-8.86875e-06
1.5786e-05
-7.33113e-06
1.65043e-05
-8.41336e-07
1.57175e-05
7.18862e-06
1.38776e-05
1.37012e-05
1.13922e-05
1.80977e-05
8.34922e-06
2.05542e-05
5.59855e-06
2.02605e-05
3.73311e-06
1.66098e-05
2.36991e-06
1.07252e-05
1.10904e-06
1.45596e-06
-1.34193e-05
9.3871e-06
1.78724e-06
1.64055e-05
-2.22704e-05
1.82595e-05
-2.50729e-05
1.72979e-05
-1.85022e-05
1.53663e-05
-1.15484e-05
1.35288e-05
-7.60187e-06
1.25151e-05
-7.43918e-06
1.26002e-05
-8.95381e-06
1.34272e-05
-8.15816e-06
1.41599e-05
-1.57402e-06
1.39653e-05
7.3832e-06
1.28476e-05
1.48189e-05
1.10089e-05
1.99364e-05
8.73529e-06
2.28278e-05
6.52805e-06
2.24677e-05
5.0615e-06
1.80763e-05
3.99535e-06
1.17914e-05
2.33476e-06
3.11656e-06
-1.10845e-05
1.50186e-05
-1.32314e-05
2.14598e-05
-2.87116e-05
2.11901e-05
-2.48032e-05
1.84509e-05
-1.57629e-05
1.51297e-05
-8.22718e-06
1.22423e-05
-4.71454e-06
1.04948e-05
-5.69168e-06
1.00878e-05
-8.54674e-06
1.05497e-05
-8.62004e-06
1.13157e-05
-2.34002e-06
1.19503e-05
6.74856e-06
1.17531e-05
1.50161e-05
1.0701e-05
2.09885e-05
9.13408e-06
2.43948e-05
7.50308e-06
2.40987e-05
6.3481e-06
1.92313e-05
5.38823e-06
1.27512e-05
3.34156e-06
5.16323e-06
-7.74299e-06
2.23336e-05
-3.5565e-05
2.55002e-05
-3.18782e-05
2.28603e-05
-2.21632e-05
1.86021e-05
-1.15047e-05
1.41672e-05
-3.79228e-06
1.04632e-05
-1.01057e-06
8.14747e-06
-3.37598e-06
7.35717e-06
-7.75646e-06
7.41575e-06
-8.67863e-06
8.34305e-06
-3.26733e-06
9.66734e-06
5.42426e-06
1.03729e-05
1.43105e-05
1.03444e-05
2.1017e-05
9.53429e-06
2.52048e-05
8.53948e-06
2.50935e-05
7.66733e-06
2.01034e-05
6.6877e-06
1.37308e-05
4.18816e-06
7.66276e-06
-3.55483e-06
1.67356e-06
-2.21125e-06
2.50007e-06
-2.8692e-06
3.00018e-06
-3.37083e-06
3.48771e-06
-3.81551e-06
4.05244e-06
-4.02535e-06
4.66859e-06
-3.90725e-06
5.26998e-06
-3.46268e-06
5.78918e-06
-2.76055e-06
6.18982e-06
-1.9257e-06
6.44711e-06
-1.05519e-06
6.57433e-06
-2.76179e-07
6.60179e-06
3.35552e-07
6.59985e-06
7.08573e-07
6.67785e-06
8.21548e-07
6.95924e-06
7.52667e-07
7.54231e-06
6.54667e-07
8.54819e-06
5.60925e-07
1.0135e-05
3.9203e-07
1.24768e-05
2.59996e-08
1.56207e-05
-6.16665e-07
1.93333e-05
-1.52426e-06
2.38428e-05
-2.79782e-06
-4.75007e-06
3.51166e-05
1.46469e-06
-3.67593e-06
2.0727e-06
-3.47721e-06
2.43003e-06
-3.72817e-06
2.81442e-06
-4.19991e-06
3.29814e-06
-4.50908e-06
3.84532e-06
-4.45444e-06
4.39615e-06
-4.01351e-06
4.89188e-06
-3.25628e-06
5.34789e-06
-2.3817e-06
5.75279e-06
-1.46009e-06
6.11377e-06
-6.37156e-07
6.42533e-06
2.3995e-08
6.72781e-06
4.06099e-07
7.10275e-06
4.46606e-07
7.67958e-06
1.75845e-07
8.56445e-06
-2.30208e-07
9.96326e-06
-8.37886e-07
1.20804e-05
-1.72511e-06
1.51548e-05
-3.04839e-06
1.93752e-05
-4.83706e-06
2.47201e-05
-6.86921e-06
3.14077e-05
-9.48533e-06
-1.34954e-05
4.0153e-05
1.3119e-07
-3.80712e-06
6.02253e-07
-3.94825e-06
8.80639e-07
-4.00657e-06
1.19403e-06
-4.5133e-06
1.67727e-06
-4.99233e-06
2.21975e-06
-4.99693e-06
2.73031e-06
-4.52407e-06
3.15678e-06
-3.68276e-06
3.6796e-06
-2.90452e-06
4.34303e-06
-2.12351e-06
5.16007e-06
-1.45419e-06
6.05544e-06
-8.7137e-07
6.99765e-06
-5.36114e-07
7.90524e-06
-4.60979e-07
8.69206e-06
-6.10975e-07
9.62591e-06
-1.16405e-06
1.1046e-05
-2.25798e-06
1.30527e-05
-3.73177e-06
1.59465e-05
-5.94219e-06
2.03965e-05
-9.28711e-06
2.66178e-05
-1.30905e-05
3.42423e-05
-1.71098e-05
-2.17772e-05
4.25241e-05
-3.38916e-06
-4.17945e-07
-4.26895e-06
-3.06849e-06
-4.18564e-06
-4.08988e-06
-3.20732e-06
-5.49164e-06
-1.44961e-06
-6.75007e-06
-1.24666e-07
-6.32187e-06
7.53551e-07
-5.40232e-06
5.25464e-07
-3.45467e-06
7.30648e-07
-3.10967e-06
1.7166e-06
-3.10945e-06
3.48526e-06
-3.22285e-06
5.75216e-06
-3.13827e-06
8.60955e-06
-3.39354e-06
1.10971e-05
-2.94858e-06
1.16276e-05
-1.14144e-06
1.09578e-05
-4.94329e-07
1.16537e-05
-2.9539e-06
1.17461e-05
-3.82416e-06
1.16419e-05
-5.83786e-06
1.4484e-05
-1.21292e-05
2.25129e-05
-2.11193e-05
3.28939e-05
-2.74907e-05
-2.99681e-05
4.10848e-05
-5.85009e-06
5.43212e-06
-7.08501e-06
-1.83357e-06
-7.58885e-06
-3.58604e-06
-7.206e-06
-5.87453e-06
-6.50646e-06
-7.44966e-06
-5.61385e-06
-7.21453e-06
-5.88034e-06
-5.13582e-06
-3.86299e-06
-5.47198e-06
-5.62408e-07
-6.41023e-06
2.69759e-06
-6.36942e-06
5.92853e-06
-6.45379e-06
1.01196e-05
-7.3294e-06
1.57108e-05
-8.98477e-06
2.10653e-05
-8.30312e-06
2.14921e-05
-1.56825e-06
2.30669e-06
1.86911e-05
-3.45014e-05
3.38541e-05
-7.34095e-05
3.50836e-05
-8.15951e-05
2.34761e-06
-6.54487e-05
-2.82757e-05
-4.70581e-05
-3.95099e-05
-3.11852e-05
-4.33636e-05
-4.07692e-05
-2.03843e-05
1.73282e-06
3.69927e-06
4.2304e-07
-5.23725e-07
-7.87459e-07
-2.37554e-06
-2.48307e-06
-4.17891e-06
-4.44341e-06
-5.48932e-06
-5.5961e-06
-6.06182e-06
-4.64983e-06
-6.08201e-06
1.16848e-08
-1.01334e-05
3.41638e-06
-9.8149e-06
5.79364e-06
-8.74665e-06
7.45025e-06
-8.11042e-06
9.57538e-06
-9.45456e-06
1.17245e-05
-1.11339e-05
1.26585e-05
-9.23713e-06
6.93862e-06
4.15169e-06
-8.58155e-06
3.42115e-05
-3.18047e-05
5.70777e-05
-5.02579e-05
5.35369e-05
-5.94079e-05
1.14978e-05
-5.87548e-05
-2.89287e-05
-5.26504e-05
-4.56144e-05
-4.4166e-05
-5.18479e-05
-4.67514e-05
-3.81838e-05
6.85623e-06
-3.15697e-06
8.65838e-06
-2.32581e-06
8.38219e-06
-2.0994e-06
7.17279e-06
-2.96947e-06
5.70749e-06
-4.02399e-06
4.70221e-06
-5.05644e-06
5.25977e-06
-6.63945e-06
4.22444e-06
-9.09801e-06
4.64033e-06
-1.02307e-05
5.62955e-06
-9.73577e-06
6.55397e-06
-9.03476e-06
5.82966e-06
-8.73016e-06
2.66108e-06
-7.9653e-06
-2.69506e-06
-3.881e-06
-8.31273e-06
9.76927e-06
-1.18022e-05
3.77007e-05
-1.61636e-05
6.14392e-05
-2.38318e-05
6.12048e-05
-3.36376e-05
2.13034e-05
-4.415e-05
-1.84163e-05
-4.58921e-05
-4.38722e-05
-4.47979e-05
-5.29421e-05
-4.72534e-05
-4.42959e-05
5.36106e-06
-8.51802e-06
8.24844e-06
-5.21302e-06
9.60043e-06
-3.45127e-06
9.92305e-06
-3.29198e-06
9.7496e-06
-3.85032e-06
9.51338e-06
-4.82e-06
9.08287e-06
-6.20884e-06
7.74906e-06
-7.76408e-06
5.5801e-06
-8.06156e-06
2.77515e-06
-6.93066e-06
-9.93204e-07
-5.26633e-06
-5.24835e-06
-4.47494e-06
-8.41686e-06
-4.79672e-06
-1.17945e-05
-5.03243e-07
-1.54054e-05
1.33803e-05
-1.4034e-05
3.63291e-05
-9.39728e-06
5.68025e-05
-9.1206e-06
6.09282e-05
-1.32578e-05
2.54408e-05
-2.19478e-05
-9.72641e-06
-3.45267e-05
-3.12934e-05
-4.55856e-05
-4.18832e-05
-4.04629e-05
-5.23761e-05
3.16941e-06
-1.16874e-05
5.35467e-06
-7.39826e-06
7.01792e-06
-5.11445e-06
8.05162e-06
-4.32549e-06
8.56015e-06
-4.3586e-06
8.63407e-06
-4.89369e-06
8.08937e-06
-5.664e-06
6.50574e-06
-6.18034e-06
3.94805e-06
-5.5037e-06
6.33661e-07
-3.61616e-06
-3.31043e-06
-1.32218e-06
-7.4843e-06
-3.01048e-07
-1.19694e-05
-3.11684e-07
-1.65049e-05
4.03234e-06
-1.97051e-05
1.65806e-05
-1.76891e-05
3.43132e-05
-1.13611e-05
5.04745e-05
-4.068e-06
5.3635e-05
-3.20952e-06
2.45822e-05
-9.59383e-06
-3.34207e-06
-2.19104e-05
-1.89769e-05
-3.42847e-05
-2.95088e-05
-3.19619e-05
-4.27855e-05
8.08464e-07
-1.24957e-05
1.95902e-06
-8.54868e-06
3.1489e-06
-6.30418e-06
4.11508e-06
-5.29144e-06
4.73617e-06
-4.97942e-06
4.90398e-06
-5.06134e-06
4.4218e-06
-5.18171e-06
3.13531e-06
-4.89381e-06
1.24659e-06
-3.61488e-06
-9.63163e-07
-1.40623e-06
-3.47287e-06
1.18772e-06
-7.08939e-06
3.31571e-06
-1.27227e-05
5.32173e-06
-1.8668e-05
9.97767e-06
-2.18471e-05
1.97597e-05
-1.98285e-05
3.22946e-05
-1.33416e-05
4.39875e-05
-2.76092e-06
4.3054e-05
-2.65062e-07
2.20864e-05
-4.8436e-06
1.23639e-06
-1.23275e-05
-1.14929e-05
-2.24424e-05
-1.93938e-05
-2.37717e-05
-3.06328e-05
-1.13957e-06
-1.13561e-05
-1.2159e-06
-8.4723e-06
-8.20474e-07
-6.69929e-06
-3.42811e-07
-5.76886e-06
1.14778e-08
-5.33346e-06
5.57796e-08
-5.10549e-06
-3.51958e-07
-4.7739e-06
-1.26069e-06
-3.98503e-06
-2.45677e-06
-2.41874e-06
-3.77808e-06
-8.4838e-08
-5.31968e-06
2.72934e-06
-7.69667e-06
5.69259e-06
-1.149e-05
9.11492e-06
-1.58129e-05
1.43006e-05
-1.80741e-05
2.20211e-05
-1.64367e-05
3.06572e-05
-9.42189e-06
3.6973e-05
-6.16829e-07
3.4249e-05
2.00602e-06
1.94634e-05
-1.30996e-06
4.55235e-06
-6.72845e-06
-6.07424e-06
-1.38814e-05
-1.22409e-05
-1.68601e-05
-2.07931e-05
-2.60356e-06
-8.75243e-06
-3.8149e-06
-7.2608e-06
-4.30087e-06
-6.21311e-06
-4.46064e-06
-5.60889e-06
-4.54963e-06
-5.24438e-06
-4.7511e-06
-4.90393e-06
-5.17544e-06
-4.34957e-06
-5.8279e-06
-3.33252e-06
-6.5887e-06
-1.6578e-06
-7.36494e-06
6.91573e-07
-8.22625e-06
3.5909e-06
-9.45792e-06
6.92453e-06
-1.12121e-05
1.08693e-05
-1.2819e-05
1.59072e-05
-1.28051e-05
2.20075e-05
-9.94813e-06
2.78004e-05
-3.95163e-06
3.09767e-05
2.35885e-06
2.79387e-05
4.03423e-06
1.77881e-05
1.22328e-06
7.36343e-06
-3.70008e-06
-1.1509e-06
-9.00531e-06
-6.93567e-06
-1.18425e-05
-1.40228e-05
-3.61673e-06
-5.1357e-06
-5.73366e-06
-5.14362e-06
-6.99269e-06
-4.95402e-06
-7.77306e-06
-4.82835e-06
-8.32499e-06
-4.69238e-06
-8.81595e-06
-4.4129e-06
-9.33576e-06
-3.82968e-06
-9.88927e-06
-2.77875e-06
-1.04095e-05
-1.13724e-06
-1.08379e-05
1.11996e-06
-1.11885e-05
3.9413e-06
-1.15384e-05
7.27407e-06
-1.18294e-05
1.11602e-05
-1.1583e-05
1.5661e-05
-1.00077e-05
2.04322e-05
-6.58677e-06
2.43794e-05
-1.56119e-06
2.59512e-05
3.05706e-06
2.33205e-05
4.0909e-06
1.67542e-05
2.23089e-06
9.22344e-06
-1.34989e-06
2.42994e-06
-5.23057e-06
-3.05488e-06
-8.09292e-06
-8.9802e-06
-4.20565e-06
-9.29899e-07
-6.94167e-06
-2.40743e-06
-8.78188e-06
-3.11367e-06
-1.00679e-05
-3.54227e-06
-1.10225e-05
-3.73769e-06
-1.17892e-05
-3.64627e-06
-1.24417e-05
-3.17728e-06
-1.29882e-05
-2.23226e-06
-1.33874e-05
-7.38067e-07
-1.35905e-05
1.32309e-06
-1.35694e-05
3.92016e-06
-1.32982e-05
7.00265e-06
-1.26566e-05
1.05183e-05
-1.13355e-05
1.43398e-05
-8.96271e-06
1.80595e-05
-5.44494e-06
2.08616e-05
-1.23556e-06
2.17417e-05
2.23738e-06
1.98474e-05
3.58131e-06
1.54102e-05
2.83541e-06
9.96934e-06
6.95524e-07
4.56986e-06
-2.02872e-06
-3.30626e-07
-5.03457e-06
-5.0871e-06
-4.40723e-06
3.47748e-06
-7.46017e-06
6.45523e-07
-9.65826e-06
-9.15497e-07
-1.12944e-05
-1.9061e-06
-1.25516e-05
-2.48042e-06
-1.35428e-05
-2.65495e-06
-1.43244e-05
-2.39546e-06
-1.49029e-05
-1.65343e-06
-1.52474e-05
-3.93446e-07
-1.5311e-05
1.38657e-06
-1.50437e-05
3.65287e-06
-1.43828e-05
6.34173e-06
-1.3216e-05
9.35141e-06
-1.13671e-05
1.24908e-05
-8.69581e-06
1.53882e-05
-5.29667e-06
1.74625e-05
-1.63296e-06
1.80779e-05
1.41935e-06
1.67951e-05
3.05477e-06
1.37748e-05
3.18396e-06
9.84014e-06
2.12186e-06
5.63193e-06
2.75044e-07
1.51627e-06
-2.59622e-06
-2.16316e-06
-4.26175e-06
7.73925e-06
-7.33999e-06
3.72377e-06
-9.67652e-06
1.42098e-06
-1.15032e-05
-7.95619e-08
-1.29514e-05
-1.03216e-06
-1.40986e-05
-1.5079e-06
-1.49807e-05
-1.51317e-06
-1.55988e-05
-1.0352e-06
-1.5925e-05
-6.71971e-08
-1.59144e-05
1.37584e-06
-1.55124e-05
3.25075e-06
-1.46533e-05
5.48253e-06
-1.32538e-05
7.95195e-06
-1.1228e-05
1.04651e-05
-8.55636e-06
1.27167e-05
-5.39342e-06
1.42997e-05
-2.12323e-06
1.48077e-05
6.78079e-07
1.39937e-05
2.49405e-06
1.19589e-05
3.19178e-06
9.1425e-06
2.8687e-06
5.95511e-06
1.70888e-06
2.67629e-06
-6.29738e-07
-2.57374e-07
-3.79615e-06
1.15353e-05
-6.64841e-06
6.57585e-06
-8.93362e-06
3.70592e-06
-1.08102e-05
1.7968e-06
-1.23459e-05
5.03211e-07
-1.35779e-05
-2.76176e-07
-1.45214e-05
-5.69696e-07
-1.51701e-05
-3.86619e-07
-1.54974e-05
2.59957e-07
-1.54624e-05
1.34078e-06
-1.50157e-05
2.8041e-06
-1.41031e-05
4.56998e-06
-1.26715e-05
6.52035e-06
-1.06895e-05
8.48308e-06
-8.1933e-06
1.02206e-05
-5.34219e-06
1.14485e-05
-2.43725e-06
1.19028e-05
1.22611e-07
1.14338e-05
1.9855e-06
1.00961e-05
2.99656e-06
8.13161e-06
3.14556e-06
5.80632e-06
2.48783e-06
3.33416e-06
9.0219e-07
9.55972e-07
-3.05214e-06
1.45875e-05
-5.47541e-06
8.9989e-06
-7.56279e-06
5.79305e-06
-9.37946e-06
3.61346e-06
-1.09146e-05
2.03805e-06
-1.21648e-05
9.73865e-07
-1.31267e-05
3.92286e-07
-1.3788e-05
2.74617e-07
-1.41235e-05
5.95377e-07
-1.4098e-05
1.31536e-06
-1.36714e-05
2.3775e-06
-1.2804e-05
3.70251e-06
-1.14664e-05
5.1826e-06
-9.65778e-06
6.6743e-06
-7.43482e-06
7.99753e-06
-4.93989e-06
8.95338e-06
-2.40404e-06
9.36679e-06
-1.11517e-07
9.14127e-06
1.68211e-06
8.30256e-06
2.82579e-06
6.98807e-06
3.26098e-06
5.37123e-06
2.97651e-06
3.61867e-06
1.91008e-06
1.9686e-06
-2.15175e-06
1.67392e-05
-3.96138e-06
1.08084e-05
-5.75699e-06
7.58841e-06
-7.42059e-06
5.27714e-06
-8.87624e-06
3.49344e-06
-1.00794e-05
2.1771e-06
-1.10136e-05
1.32656e-06
-1.16624e-05
9.23405e-07
-1.20023e-05
9.35284e-07
-1.20038e-05
1.31698e-06
-1.16358e-05
2.00949e-06
-1.08713e-05
2.93784e-06
-9.6967e-06
4.00782e-06
-8.1261e-06
5.10352e-06
-6.21884e-06
6.09017e-06
-4.09348e-06
6.82787e-06
-1.92518e-06
7.19842e-06
7.95441e-08
7.13655e-06
1.72996e-06
6.65221e-06
2.8934e-06
5.82471e-06
3.49872e-06
4.76594e-06
3.5222e-06
3.59518e-06
2.4278e-06
3.00452e-06
-1.29744e-06
1.80363e-05
-2.52975e-06
1.20405e-05
-3.78347e-06
8.84192e-06
-5.19554e-06
6.68897e-06
-6.47498e-06
4.77265e-06
-7.55609e-06
3.2583e-06
-8.41001e-06
2.18039e-06
-9.01452e-06
1.52782e-06
-9.34543e-06
1.2662e-06
-9.3765e-06
1.34813e-06
-9.08288e-06
1.71583e-06
-8.44603e-06
2.30092e-06
-7.4614e-06
3.02318e-06
-6.1483e-06
3.79045e-06
-4.56033e-06
4.50221e-06
-2.79187e-06
5.05938e-06
-9.74207e-07
5.38072e-06
7.41704e-07
5.42064e-06
2.21323e-06
5.18069e-06
3.33206e-06
4.70589e-06
4.03296e-06
4.06505e-06
4.29642e-06
3.33176e-06
2.56695e-06
4.15738e-06
-5.5356e-07
1.85898e-05
-1.25911e-06
1.27457e-05
-1.95383e-06
9.53668e-06
-2.94877e-06
7.68332e-06
-3.93809e-06
5.76189e-06
-4.81487e-06
4.13514e-06
-5.53329e-06
2.89867e-06
-6.0589e-06
2.05332e-06
-6.3614e-06
1.56871e-06
-6.41351e-06
1.40028e-06
-6.19269e-06
1.49499e-06
-5.68464e-06
1.79282e-06
-4.88844e-06
2.22699e-06
-3.82288e-06
2.72496e-06
-2.53239e-06
3.21171e-06
-1.08956e-06
3.61645e-06
4.08595e-07
3.88245e-06
1.85217e-06
3.97699e-06
3.13577e-06
3.89705e-06
4.17526e-06
3.66638e-06
4.91699e-06
3.32334e-06
5.34277e-06
2.90604e-06
2.43533e-06
5.47448e-06
3.13353e-07
1.82765e-05
1.68319e-07
1.28903e-05
-2.72501e-07
9.97768e-06
-7.89984e-07
8.20023e-06
-1.41243e-06
6.38451e-06
-2.02959e-06
4.75239e-06
-2.57317e-06
3.44218e-06
-2.99231e-06
2.47243e-06
-3.24706e-06
1.82344e-06
-3.30583e-06
1.45897e-06
-3.1453e-06
1.3343e-06
-2.75194e-06
1.39929e-06
-2.12492e-06
1.59981e-06
-1.27947e-06
1.8794e-06
-2.49999e-07
2.18207e-06
9.09435e-07
2.45682e-06
2.12834e-06
2.66337e-06
3.32761e-06
2.77763e-06
4.43048e-06
2.79414e-06
5.3736e-06
2.72326e-06
6.11428e-06
2.58268e-06
6.63461e-06
2.38573e-06
2.12712e-06
6.94284e-06
1.60823e-06
1.66682e-05
1.72345e-06
1.27747e-05
1.50846e-06
1.01925e-05
1.32427e-06
8.38413e-06
1.03164e-06
6.67742e-06
6.68235e-07
5.11579e-06
3.06742e-07
3.80362e-06
6.66941e-09
2.77249e-06
-1.85562e-07
2.0156e-06
-2.34666e-07
1.5079e-06
-1.15617e-07
1.21502e-06
1.86031e-07
1.0974e-06
6.72995e-07
1.11259e-06
1.33484e-06
1.21732e-06
2.14673e-06
1.36997e-06
3.06981e-06
1.53355e-06
4.05389e-06
1.67915e-06
5.04277e-06
1.78867e-06
5.98132e-06
1.85553e-06
6.82267e-06
1.88188e-06
7.53312e-06
1.8722e-06
8.0947e-06
1.82413e-06
1.71739e-06
8.50442e-06
2.63168e-06
1.4036e-05
3.15074e-06
1.22555e-05
3.27933e-06
1.00633e-05
3.33381e-06
8.32967e-06
3.28333e-06
6.728e-06
3.1363e-06
5.26269e-06
2.94681e-06
3.99304e-06
2.77033e-06
2.94898e-06
2.65332e-06
2.13258e-06
2.63195e-06
1.52918e-06
2.73229e-06
1.1146e-06
2.97024e-06
8.59351e-07
3.35125e-06
7.31444e-07
3.8699e-06
6.98536e-07
4.50972e-06
7.30016e-07
5.244e-06
7.99159e-07
6.03792e-06
8.85124e-07
6.85224e-06
9.74252e-07
7.6479e-06
1.05976e-06
8.39046e-06
1.13919e-06
9.05323e-06
1.20931e-06
9.61831e-06
1.25896e-06
1.26086e-06
1.00748e-05
2.80119e-06
1.12343e-05
4.02115e-06
1.10355e-05
4.59848e-06
9.48531e-06
4.94782e-06
7.98056e-06
5.13688e-06
6.53888e-06
5.20016e-06
5.19927e-06
5.18568e-06
4.0075e-06
5.14379e-06
2.99095e-06
5.11886e-06
2.15759e-06
5.14678e-06
1.50132e-06
5.25443e-06
1.00703e-06
5.45945e-06
6.54396e-07
5.77032e-06
4.2059e-07
6.18642e-06
2.8239e-07
6.69846e-06
2.17931e-07
7.2893e-06
2.0828e-07
7.9357e-06
2.38658e-07
8.61092e-06
2.98944e-07
9.28761e-06
3.82945e-07
9.94058e-06
4.86066e-07
1.05485e-05
6.01263e-07
1.10939e-05
7.13429e-07
7.93459e-07
1.15612e-05
2.51372e-06
8.72046e-06
4.19981e-06
9.34925e-06
5.25164e-06
8.4333e-06
5.95584e-06
7.27658e-06
6.4235e-06
6.07115e-06
6.71855e-06
4.90416e-06
6.89611e-06
3.82996e-06
7.00669e-06
2.88044e-06
7.09428e-06
2.07004e-06
7.19515e-06
1.40047e-06
7.33732e-06
8.64887e-07
7.5405e-06
4.51236e-07
7.81629e-06
1.4478e-07
8.16855e-06
-6.99157e-08
8.59398e-06
-2.07529e-07
9.08301e-06
-2.80751e-07
9.62116e-06
-2.99492e-07
1.01909e-05
-2.7077e-07
1.07733e-05
-1.99565e-07
1.13502e-05
-9.08683e-08
1.19043e-05
4.70874e-08
1.24192e-05
1.98416e-07
3.35315e-07
1.28773e-05
2.12544e-06
6.59516e-06
3.98355e-06
7.49099e-06
5.36185e-06
7.05516e-06
6.37711e-06
6.26135e-06
7.11685e-06
5.33138e-06
7.64718e-06
4.3738e-06
8.02482e-06
3.4523e-06
8.3e-06
2.60523e-06
8.51632e-06
1.85362e-06
8.7103e-06
1.20633e-06
8.91105e-06
6.63973e-07
9.14024e-06
2.21903e-07
9.41235e-06
-1.27464e-07
9.73513e-06
-3.928e-07
1.01102e-05
-5.82681e-07
1.0534e-05
-7.04531e-07
1.09986e-05
-7.64078e-07
1.14933e-05
-7.65405e-07
1.20056e-05
-7.1179e-07
1.25222e-05
-6.07447e-07
1.30294e-05
-4.60109e-07
1.35124e-05
-2.84529e-07
-1.0555e-07
1.39533e-05
1.81512e-06
4.78011e-06
3.63627e-06
5.66988e-06
5.15068e-06
5.54087e-06
6.36213e-06
5.0498e-06
7.31034e-06
4.3832e-06
8.04139e-06
3.64274e-06
8.60197e-06
2.89173e-06
9.03635e-06
2.17083e-06
9.38466e-06
1.50516e-06
9.68183e-06
9.08923e-07
9.95686e-06
3.88704e-07
1.02325e-05
-5.3935e-08
1.05253e-05
-4.20423e-07
1.08461e-05
-7.1367e-07
1.12003e-05
-9.36964e-07
1.15889e-05
-1.09314e-06
1.20089e-05
-1.18416e-06
1.24548e-05
-1.21125e-06
1.29187e-05
-1.17563e-06
1.33913e-05
-1.08e-06
1.38618e-05
-9.30577e-07
1.43173e-05
-7.39953e-07
-5.29299e-07
1.47411e-05
1.59154e-06
3.18855e-06
3.2814e-06
3.98028e-06
4.79106e-06
4.03118e-06
6.07855e-06
3.76228e-06
7.14661e-06
3.31521e-06
8.01672e-06
2.77267e-06
8.71922e-06
2.18933e-06
9.28743e-06
1.60265e-06
9.75445e-06
1.03804e-06
1.0151e-05
5.12157e-07
1.05041e-05
3.54203e-08
1.08361e-05
-3.86026e-07
1.11643e-05
-7.48768e-07
1.15016e-05
-1.05095e-06
1.18559e-05
-1.29137e-06
1.22316e-05
-1.46886e-06
1.26294e-05
-1.58197e-06
1.30473e-05
-1.62914e-06
1.3481e-05
-1.60936e-06
1.39244e-05
-1.52337e-06
1.43692e-05
-1.37538e-06
1.48047e-05
-1.17534e-06
-9.40604e-07
1.52161e-05
1.41775e-06
1.77091e-06
2.94788e-06
2.4505e-06
4.3754e-06
2.60362e-06
5.65064e-06
2.48712e-06
6.75776e-06
2.20812e-06
7.70003e-06
1.83045e-06
8.49222e-06
1.39723e-06
9.15561e-06
9.39267e-07
9.71459e-06
4.78941e-07
1.0194e-05
3.26324e-08
1.06169e-05
-3.87706e-07
1.1004e-05
-7.73167e-07
1.13721e-05
-1.11693e-06
1.17347e-05
-1.41348e-06
1.21012e-05
-1.65795e-06
1.24781e-05
-1.84576e-06
1.28685e-05
-1.97243e-06
1.32732e-05
-2.03381e-06
1.36905e-05
-2.02661e-06
1.41166e-05
-1.94948e-06
1.45457e-05
-1.8044e-06
1.4969e-05
-1.59858e-06
-1.34569e-06
1.53741e-05
1.26276e-06
5.08451e-07
2.62959e-06
1.08394e-06
3.94091e-06
1.29236e-06
5.15155e-06
1.27653e-06
6.23935e-06
1.12022e-06
7.1972e-06
8.72568e-07
8.02871e-06
5.65695e-07
8.74518e-06
2.22652e-07
9.36281e-06
-1.38916e-07
9.90017e-06
-5.04934e-07
1.0376e-05
-8.63698e-07
1.08079e-05
-1.20517e-06
1.12114e-05
-1.52047e-06
1.15994e-05
-1.80146e-06
1.19819e-05
-2.04047e-06
1.23663e-05
-2.23017e-06
1.27574e-05
-2.36349e-06
1.31576e-05
-2.43394e-06
1.35672e-05
-2.43612e-06
1.39844e-05
-2.36658e-06
1.44051e-05
-2.22511e-06
1.48229e-05
-2.01625e-06
-1.75032e-06
1.52275e-05
1.11177e-06
-6.02997e-07
2.31843e-06
-1.22595e-07
3.50126e-06
1.09625e-07
4.62019e-06
1.57508e-07
5.6518e-06
8.84508e-08
6.58388e-06
-5.96076e-08
7.41333e-06
-2.63927e-07
8.14461e-06
-5.08906e-07
8.78763e-06
-7.82228e-07
9.3555e-06
-1.07303e-06
9.86271e-06
-1.37105e-06
1.03237e-05
-1.66624e-06
1.07518e-05
-1.94868e-06
1.11589e-05
-2.20855e-06
1.15546e-05
-2.43618e-06
1.19465e-05
-2.62209e-06
1.23402e-05
-2.75715e-06
1.27391e-05
-2.83288e-06
1.31451e-05
-2.84198e-06
1.35577e-05
-2.77912e-06
1.39746e-05
-2.64199e-06
1.43911e-05
-2.43274e-06
-2.15867e-06
1.47995e-05
9.61486e-07
-1.56428e-06
2.01283e-06
-1.17396e-06
3.06399e-06
-9.41519e-07
4.07812e-06
-8.56783e-07
5.03164e-06
-8.65173e-07
5.90993e-06
-9.37979e-07
6.70637e-06
-1.06058e-06
7.42136e-06
-1.22417e-06
8.06054e-06
-1.42163e-06
8.63293e-06
-1.64557e-06
9.14942e-06
-1.88763e-06
9.62149e-06
-2.13838e-06
1.00603e-05
-2.38755e-06
1.04761e-05
-2.62437e-06
1.08777e-05
-2.83781e-06
1.12724e-05
-3.01684e-06
1.1666e-05
-3.15076e-06
1.20626e-05
-3.22951e-06
1.24648e-05
-3.24421e-06
1.28736e-05
-3.18788e-06
1.3288e-05
-3.0564e-06
1.3705e-05
-2.84979e-06
-2.57269e-06
1.4119e-05
8.14096e-07
-2.37835e-06
1.71575e-06
-2.07576e-06
2.63567e-06
-1.86153e-06
3.53893e-06
-1.76014e-06
4.40155e-06
-1.72776e-06
5.20765e-06
-1.74413e-06
5.94907e-06
-1.80215e-06
6.62411e-06
-1.89935e-06
7.23581e-06
-2.0334e-06
7.7904e-06
-2.20018e-06
8.29598e-06
-2.39323e-06
8.76155e-06
-2.60398e-06
9.19616e-06
-2.82222e-06
9.60843e-06
-3.03668e-06
1.00061e-05
-3.23551e-06
1.03959e-05
-3.40668e-06
1.07834e-05
-3.53835e-06
1.11732e-05
-3.6193e-06
1.15683e-05
-3.63941e-06
1.19707e-05
-3.59039e-06
1.23809e-05
-3.46663e-06
1.27974e-05
-3.26634e-06
-2.99184e-06
1.32165e-05
6.72404e-07
-3.05088e-06
1.4303e-06
-2.83386e-06
2.22142e-06
-2.65274e-06
3.01176e-06
-2.55044e-06
3.77628e-06
-2.49221e-06
4.49849e-06
-2.46639e-06
5.16978e-06
-2.47355e-06
5.78764e-06
-2.51724e-06
6.35374e-06
-2.59947e-06
6.87251e-06
-2.71891e-06
7.35006e-06
-2.87077e-06
7.79333e-06
-3.04729e-06
8.20954e-06
-3.2385e-06
8.60577e-06
-3.43296e-06
8.98863e-06
-3.6184e-06
9.36411e-06
-3.78219e-06
9.73752e-06
-3.9118e-06
1.01134e-05
-3.99522e-06
1.04954e-05
-4.0215e-06
1.08863e-05
-3.98137e-06
1.12877e-05
-3.8681e-06
1.16998e-05
-3.67845e-06
-3.41284e-06
1.21207e-05
5.35459e-07
-3.58653e-06
1.15591e-06
-3.45447e-06
1.82319e-06
-3.32005e-06
2.50207e-06
-3.22924e-06
3.16565e-06
-3.15581e-06
3.79718e-06
-3.09805e-06
4.38848e-06
-3.06494e-06
4.93714e-06
-3.06591e-06
5.44435e-06
-3.10664e-06
5.91346e-06
-3.18801e-06
6.34913e-06
-3.30646e-06
6.7567e-06
-3.45491e-06
7.14182e-06
-3.62367e-06
7.51017e-06
-3.80134e-06
7.86726e-06
-3.97551e-06
8.21835e-06
-4.1333e-06
8.56834e-06
-4.26182e-06
8.92173e-06
-4.34867e-06
9.28256e-06
-4.38239e-06
9.65429e-06
-4.35318e-06
1.00397e-05
-4.25354e-06
1.04405e-05
-4.07927e-06
-3.82931e-06
1.08569e-05
3.95562e-07
-3.98224e-06
8.86506e-07
-3.94547e-06
1.43928e-06
-3.87279e-06
2.01244e-06
-3.8024e-06
2.57617e-06
-3.7197e-06
3.11419e-06
-3.63627e-06
3.61973e-06
-3.57058e-06
4.09134e-06
-3.53755e-06
4.53037e-06
-3.54568e-06
4.93961e-06
-3.59728e-06
5.32267e-06
-3.68957e-06
5.68359e-06
-3.81588e-06
6.02672e-06
-3.96682e-06
6.3565e-06
-4.13114e-06
6.67746e-06
-4.29649e-06
6.99412e-06
-4.44998e-06
7.31092e-06
-4.57867e-06
7.63226e-06
-4.67006e-06
7.96236e-06
-4.71256e-06
8.3053e-06
-4.69618e-06
8.66486e-06
-4.61313e-06
9.04435e-06
-4.45877e-06
-4.23114e-06
9.44621e-06
2.34892e-07
-4.21718e-06
6.107e-07
-4.32126e-06
1.06589e-06
-4.32801e-06
1.54415e-06
-4.28082e-06
2.0127e-06
-4.18849e-06
2.45746e-06