/*--------------------------------*- C++ -*----------------------------------*\
| =========                 |                                                 |
| \\      /  F ield         | OpenFOAM: The Open Source CFD Toolbox           |
|  \\    /   O peration     | Version:  2.3.0                                 |
|   \\  /    A nd           | Web:      www.OpenFOAM.org                      |
|    \\/     M anipulation  |                                                 |
\*---------------------------------------------------------------------------*/
FoamFile
{
    version     2.0;
    format      ascii;
    class       volVectorField;
    location    "1.95";
    object      U;
}
// * * * * * * * * * * * * * * * * * * * * * * * * * * * * * * * * * * * * * //

dimensions      [0 1 -1 0 0 0 0];

internalField   nonuniform List<vector> 
2268
(
(-0.0164614 0.00533782 0)
(-0.0180058 -0.000558568 0)
(-0.0129032 -0.00303147 0)
(-0.00588473 -0.00315064 0)
(0.00136784 -0.00277444 0)
(0.00776725 -0.00227832 0)
(0.0130514 -0.00177663 0)
(0.0171345 -0.00130476 0)
(0.0200376 -0.000879578 0)
(0.0218435 -0.000511711 0)
(0.0227033 -0.000215103 0)
(0.0228076 1.6026e-05 0)
(0.0223054 0.000204062 0)
(0.0212418 0.000448742 0)
(0.0193888 0.000884614 0)
(0.0161704 0.00166196 0)
(0.0105561 0.00287734 0)
(0.00235934 0.00446511 0)
(-0.0126726 0.00895573 0)
(-0.0381018 0.0117395 0)
(-0.0661582 0.00693628 0)
(-0.0721853 -0.0080939 0)
(-0.0314544 -0.0205941 0)
(-0.0100695 0.0109546 0)
(-0.00820413 -0.000407579 0)
(-0.00411645 -0.00444138 0)
(0.00155156 -0.00524614 0)
(0.00771448 -0.00498664 0)
(0.0135136 -0.00431941 0)
(0.0185546 -0.00349723 0)
(0.0225908 -0.00262639 0)
(0.0255181 -0.00177619 0)
(0.0273396 -0.000999746 0)
(0.0281557 -0.000345922 0)
(0.0281342 0.000176837 0)
(0.0274487 0.000619182 0)
(0.0261899 0.00111835 0)
(0.0242638 0.00189935 0)
(0.0213136 0.00321707 0)
(0.016635 0.00522711 0)
(0.00961985 0.00818394 0)
(-0.000757494 0.0140152 0)
(-0.0150176 0.0177576 0)
(-0.0304658 0.0119169 0)
(-0.0399703 -0.00823453 0)
(-0.0211667 -0.0378371 0)
(-0.002132 0.0129422 0)
(-0.00143392 -0.00152265 0)
(0.00206897 -0.0063901 0)
(0.00681859 -0.00759036 0)
(0.0122132 -0.00741439 0)
(0.0175318 -0.00658614 0)
(0.0223059 -0.0054343 0)
(0.0262061 -0.00413106 0)
(0.029056 -0.0028061 0)
(0.0308088 -0.00156384 0)
(0.0315345 -0.00049571 0)
(0.0313913 0.000370108 0)
(0.0305651 0.00108864 0)
(0.0292025 0.0018386 0)
(0.027318 0.00292805 0)
(0.0247183 0.00470797 0)
(0.0209655 0.00742212 0)
(0.0155548 0.0113512 0)
(0.00907241 0.0175821 0)
(0.00191456 0.0215742 0)
(-0.00598036 0.0156423 0)
(-0.015605 -0.00651295 0)
(-0.00693232 -0.0472196 0)
(0.00292551 0.0123398 0)
(0.00364867 -0.00254194 0)
(0.00684918 -0.00816598 0)
(0.0110334 -0.0098244 0)
(0.0158795 -0.00979054 0)
(0.0208139 -0.00885607 0)
(0.0253466 -0.00740382 0)
(0.029099 -0.00567057 0)
(0.0318458 -0.00385336 0)
(0.033503 -0.00211645 0)
(0.0341203 -0.000603973 0)
(0.0338555 0.000624 0)
(0.0329185 0.00161822 0)
(0.0315202 0.00258639 0)
(0.0297835 0.00390495 0)
(0.0276603 0.00600676 0)
(0.024934 0.00919093 0)
(0.0213391 0.0136702 0)
(0.0178271 0.01977 0)
(0.0151584 0.0237688 0)
(0.0121904 0.0183044 0)
(0.00486556 -0.00396123 0)
(0.00688188 -0.0489784 0)
(0.00538038 0.0100781 0)
(0.00723347 -0.00386154 0)
(0.0104567 -0.00983481 0)
(0.0143282 -0.0118835 0)
(0.0187796 -0.0120269 0)
(0.0234017 -0.011038 0)
(0.0277206 -0.00932503 0)
(0.0313314 -0.00718089 0)
(0.0339739 -0.00487309 0)
(0.0355358 -0.00263151 0)
(0.0360509 -0.000662684 0)
(0.0356828 0.000930798 0)
(0.034671 0.00217992 0)
(0.0332989 0.00330401 0)
(0.0318017 0.00473214 0)
(0.0302684 0.00696563 0)
(0.028669 0.0103313 0)
(0.0269821 0.0149258 0)
(0.0260634 0.020578 0)
(0.0267543 0.024232 0)
(0.0272636 0.0196076 0)
(0.0227983 -0.000655366 0)
(0.0190669 -0.0433845 0)
(0.00639037 0.00687599 0)
(0.00956684 -0.00556725 0)
(0.0129745 -0.0114748 0)
(0.0166606 -0.0137898 0)
(0.0208014 -0.0141109 0)
(0.0251527 -0.0131039 0)
(0.0292788 -0.0111664 0)
(0.0327624 -0.00863473 0)
(0.0353192 -0.00584663 0)
(0.0368139 -0.00310079 0)
(0.0372668 -0.000674753 0)
(0.0368465 0.00127604 0)
(0.0358221 0.00274652 0)
(0.0345509 0.00394791 0)
(0.0333817 0.00534793 0)
(0.0325327 0.0075072 0)
(0.0321299 0.0107605 0)
(0.032354 0.0150924 0)
(0.0339582 0.020069 0)
(0.0375705 0.0232012 0)
(0.040996 0.019698 0)
(0.0398121 0.003688 0)
(0.0313013 -0.031095 0)
(0.00678178 0.00317492 0)
(0.0109465 -0.00760725 0)
(0.0144755 -0.0131157 0)
(0.017968 -0.015571 0)
(0.0218029 -0.0160598 0)
(0.0258815 -0.0150656 0)
(0.0298153 -0.0129393 0)
(0.033184 -0.0100466 0)
(0.0356874 -0.00679479 0)
(0.0371717 -0.00355168 0)
(0.0376422 -0.000673704 0)
(0.0372663 0.00162181 0)
(0.0363337 0.00327664 0)
(0.0352685 0.00447368 0)
(0.0345278 0.00570577 0)
(0.0344494 0.00758908 0)
(0.0352941 0.0104544 0)
(0.0374149 0.0141937 0)
(0.0415384 0.0182624 0)
(0.0480835 0.0207527 0)
(0.054685 0.0183889 0)
(0.0577816 0.00830086 0)
(0.048094 -0.0103399 0)
(0.00703475 -0.000769885 0)
(0.0116446 -0.00986254 0)
(0.015052 -0.0147318 0)
(0.018244 -0.0172262 0)
(0.0217185 -0.0178804 0)
(0.0254853 -0.0169368 0)
(0.0292032 -0.0146678 0)
(0.0324561 -0.0114542 0)
(0.0349386 -0.0077735 0)
(0.0364853 -0.00405723 0)
(0.0370853 -0.000746485 0)
(0.0368926 0.00187274 0)
(0.0361999 0.00367405 0)
(0.0354809 0.00478719 0)
(0.0352852 0.00571223 0)
(0.0360569 0.00711738 0)
(0.038181 0.00931742 0)
(0.0421726 0.0121261 0)
(0.0488123 0.0149656 0)
(0.0584906 0.0164744 0)
(0.0691492 0.0146637 0)
(0.0771921 0.00993733 0)
(0.0814154 0.0237714 0)
(-0.0921961 0.0263938 0)
(-0.132859 0.00475068 0)
(-0.0885668 -0.0263377 0)
(-0.0127593 -0.0318659 0)
(0.0600523 -0.0266179 0)
(0.119341 -0.0203325 0)
(0.165997 -0.0160491 0)
(0.204421 -0.0128206 0)
(0.234676 -0.00756532 0)
(0.243797 0.00149506 0)
(0.224485 0.00868687 0)
(0.185126 0.0143661 0)
(0.133651 0.0164597 0)
(0.0787106 0.0147456 0)
(0.0203754 0.01819 0)
(-0.0357164 0.0159835 0)
(-0.0853155 0.0096522 0)
(-0.0976532 -0.00770051 0)
(-0.0443355 -0.0245609 0)
(-0.0926485 0.0602461 0)
(-0.0670518 0.00606202 0)
(-0.0149389 -0.0425746 0)
(0.0481819 -0.0514307 0)
(0.101835 -0.042823 0)
(0.142321 -0.0327653 0)
(0.173672 -0.026664 0)
(0.20187 -0.0219972 0)
(0.226658 -0.0133018 0)
(0.238843 0.0035207 0)
(0.231542 0.0172509 0)
(0.205975 0.028465 0)
(0.164407 0.0348285 0)
(0.109851 0.0350621 0)
(0.0484978 0.0398402 0)
(-0.0049814 0.0347185 0)
(-0.046529 0.0215773 0)
(-0.0636402 -0.00725848 0)
(-0.0331438 -0.0484616 0)
(-0.0624698 0.0804979 0)
(-0.00841829 -0.00976157 0)
(0.044902 -0.0651667 0)
(0.0947881 -0.0708224 0)
(0.13099 -0.056853 0)
(0.155202 -0.0429417 0)
(0.173595 -0.0356143 0)
(0.192291 -0.0310376 0)
(0.212828 -0.0206654 0)
(0.225189 0.00234063 0)
(0.219865 0.0231175 0)
(0.197366 0.0406135 0)
(0.161732 0.0524956 0)
(0.114028 0.0566878 0)
(0.0616239 0.0602993 0)
(0.01892 0.0517459 0)
(-0.012598 0.0321116 0)
(-0.0329333 -0.0049366 0)
(-0.0150503 -0.0654861 0)
(-0.0267491 0.0872615 0)
(0.0471905 -0.0310777 0)
(0.101203 -0.0869489 0)
(0.136889 -0.0859966 0)
(0.155228 -0.0659809 0)
(0.163289 -0.0487019 0)
(0.169147 -0.0410664 0)
(0.179442 -0.0378823 0)
(0.195372 -0.0274483 0)
(0.208395 0.000561007 0)
(0.206061 0.0288336 0)
(0.185863 0.0525037 0)
(0.154682 0.0687878 0)
(0.113784 0.076526 0)
(0.0701373 0.0777727 0)
(0.0363841 0.0659136 0)
(0.0132614 0.041463 0)
(-0.0058707 -0.00103103 0)
(0.00178388 -0.0717253 0)
(0.0103978 0.0746237 0)
(0.104435 -0.057289 0)
(0.156358 -0.105825 0)
(0.175287 -0.0943629 0)
(0.174622 -0.0681231 0)
(0.166388 -0.0487602 0)
(0.160033 -0.042433 0)
(0.162297 -0.0421716 0)
(0.173805 -0.0333 0)
(0.186621 -0.0024041 0)
(0.187841 0.0332721 0)
(0.171914 0.0625453 0)
(0.146655 0.0826717 0)
(0.11352 0.0932411 0)
(0.0774906 0.0923477 0)
(0.0506671 0.0766794 0)
(0.0341813 0.0489801 0)
(0.0172324 0.00372285 0)
(0.0149571 -0.0687949 0)
(0.0529906 0.0430971 0)
(0.16722 -0.0890664 0)
(0.208822 -0.118974 0)
(0.207479 -0.0941106 0)
(0.187414 -0.0623717 0)
(0.163496 -0.0426447 0)
(0.145638 -0.0395169 0)
(0.140406 -0.0438825 0)
(0.147479 -0.0380111 0)
(0.158895 -0.00563025 0)
(0.163231 0.036057 0)
(0.155558 0.0699601 0)
(0.138569 0.0930742 0)
(0.113785 0.106273 0)
(0.0854014 0.104511 0)
(0.0641127 0.0847141 0)
(0.052006 0.0548134 0)
(0.0363003 0.0107356 0)
(0.025053 -0.060126 0)
(0.125054 -0.0295718 0)
(0.234823 -0.124331 0)
(0.252875 -0.122568 0)
(0.229718 -0.0842967 0)
(0.191687 -0.0488651 0)
(0.153864 -0.0306464 0)
(0.125955 -0.0325151 0)
(0.114015 -0.0430171 0)
(0.116312 -0.04099 0)
(0.124623 -0.00926383 0)
(0.1341 0.0353408 0)
(0.137784 0.0737396 0)
(0.130317 0.100297 0)
(0.114531 0.115486 0)
(0.0940515 0.11373 0)
(0.0777442 0.0909803 0)
(0.0682677 0.0595743 0)
(0.0521728 0.0196983 0)
(0.0333894 -0.0462111 0)
(0.236959 -0.132551 0)
(0.295462 -0.153686 0)
(0.281087 -0.115673 0)
(0.23888 -0.0670536 0)
(0.186222 -0.0297548 0)
(0.137479 -0.0141916 0)
(0.101918 -0.0220277 0)
(0.084594 -0.0396499 0)
(0.0827678 -0.0420323 0)
(0.0881177 -0.0135877 0)
(0.10265 0.0301033 0)
(0.11649 0.0724127 0)
(0.120708 0.103458 0)
(0.114778 0.121547 0)
(0.102733 0.120249 0)
(0.0924548 0.0958168 0)
(0.0843567 0.0642313 0)
(0.0660587 0.0308198 0)
(0.0410357 -0.0277702 0)
(0.00760611 -0.00781132 0)
(0.011922 -0.0137504 0)
(0.0147638 -0.0172499 0)
(0.0173425 -0.0196115 0)
(0.0201962 -0.0204844 0)
(0.0234382 -0.019663 0)
(0.0267888 -0.017253 0)
(0.0298514 -0.0136316 0)
(0.0323402 -0.00938541 0)
(0.0340988 -0.005018 0)
(0.035094 -0.00110599 0)
(0.0354374 0.00196058 0)
(0.0353917 0.0039253 0)
(0.0354605 0.00479091 0)
(0.0362897 0.00501825 0)
(0.038456 0.00534349 0)
(0.0425417 0.00603363 0)
(0.0493069 0.00678724 0)
(0.0597221 0.00699657 0)
(0.0744605 0.00597504 0)
(0.0929138 0.00321266 0)
(0.114966 6.35937e-05 0)
(0.150934 0.00433646 0)
(0.00789897 -0.0221072 0)
(0.009573 -0.0212035 0)
(0.0120942 -0.0218595 0)
(0.0140524 -0.023373 0)
(0.0163747 -0.0240162 0)
(0.0191924 -0.0230342 0)
(0.0221917 -0.0203209 0)
(0.0250203 -0.0161945 0)
(0.0275622 -0.0113867 0)
(0.0298523 -0.00643202 0)
(0.0318909 -0.00203017 0)
(0.0336531 0.00138163 0)
(0.0352412 0.00339101 0)
(0.0369898 0.00379135 0)
(0.0393907 0.00292584 0)
(0.0430457 0.00149612 0)
(0.0489435 -0.000377928 0)
(0.0581528 -0.00327777 0)
(0.0718498 -0.00788674 0)
(0.091207 -0.014486 0)
(0.116741 -0.0226896 0)
(0.148514 -0.0338291 0)
(0.189833 -0.0518744 0)
(0.00377877 -0.0211993 0)
(0.000361843 -0.0190579 0)
(0.00427929 -0.0201174 0)
(0.00564869 -0.0225907 0)
(0.00771173 -0.0243479 0)
(0.0105231 -0.0241645 0)
(0.0133458 -0.0219478 0)
(0.0158 -0.0178695 0)
(0.0182479 -0.013211 0)
(0.0213912 -0.00823337 0)
(0.0253826 -0.00373742 0)
(0.0299757 -5.41429e-05 0)
(0.0349994 0.00211581 0)
(0.0401161 0.00214255 0)
(0.0445642 0.000144864 0)
(0.0486426 -0.00277884 0)
(0.0547251 -0.00670467 0)
(0.063712 -0.0125673 0)
(0.0765854 -0.0208677 0)
(0.0957255 -0.0314946 0)
(0.123799 -0.0435105 0)
(0.161154 -0.0588807 0)
(0.205444 -0.0820717 0)
(-0.0132632 -0.00634448 0)
(-0.0229945 -0.0180913 0)
(-0.0218436 -0.0192427 0)
(-0.01948 -0.0232403 0)
(-0.0120414 -0.0279597 0)
(-0.00369493 -0.0279052 0)
(0.00166384 -0.0253213 0)
(0.00322962 -0.0183011 0)
(0.00298018 -0.0144133 0)
(0.00621752 -0.0112644 0)
(0.0138011 -0.00873989 0)
(0.0245924 -0.00549847 0)
(0.0387312 -0.00415098 0)
(0.0539512 -0.00354241 0)
(0.0619866 -0.00296225 0)
(0.0591964 -0.00509395 0)
(0.0596472 -0.0107171 0)
(0.0613608 -0.0169743 0)
(0.064262 -0.0235987 0)
(0.0699065 -0.0368754 0)
(0.0930099 -0.0638307 0)
(0.14306 -0.0939603 0)
(0.200117 -0.123006 0)
(-0.0250803 -0.00530883 0)
(-0.0364862 -0.0187069 0)
(-0.0399129 -0.0277817 0)
(-0.0394344 -0.0387409 0)
(-0.0360525 -0.0457294 0)
(-0.032605 -0.0422931 0)
(-0.0312922 -0.0329203 0)
(-0.0298217 -0.0247832 0)
(-0.0124468 -0.0261753 0)
(0.0068533 -0.0275566 0)
(0.0233503 -0.0299422 0)
(0.0426369 -0.0334363 0)
(0.0699229 -0.0395757 0)
(0.0983175 -0.037432 0)
(0.114046 -0.0166265 0)
(0.102186 0.0176505 0)
(-0.0836633 0.0362888 0)
(-0.329634 0.0407797 0)
(-0.459412 -0.0456375 0)
(-0.374817 -0.148717 0)
(-0.290285 -0.203813 0)
(-0.208596 -0.227699 0)
(-0.133892 -0.218134 0)
(0.0146512 0.0539838 0)
(0.00534587 0.00129346 0)
(-0.000645315 -0.0131702 0)
(-0.0086223 -0.0263151 0)
(-0.0204835 -0.0354783 0)
(-0.0319034 -0.0347858 0)
(-0.0295247 -0.0274612 0)
(-0.00950394 -0.0376677 0)
(0.00927582 -0.041909 0)
(0.0243607 -0.0405347 0)
(0.0352897 -0.0400925 0)
(0.0468244 -0.04631 0)
(0.0590985 -0.0536581 0)
(0.0653975 -0.0436426 0)
(0.0634042 0.00594495 0)
(0.0215191 0.15224 0)
(-0.103818 0.255828 0)
(-0.240097 0.240262 0)
(-0.320771 0.0316867 0)
(-0.319658 -0.140074 0)
(-0.299229 -0.227105 0)
(-0.25865 -0.259676 0)
(-0.21426 -0.240081 0)
(0.0296287 -0.00474549 0)
(0.046612 -0.00465637 0)
(0.0463998 -0.00790857 0)
(0.0420259 -0.0155114 0)
(0.0348735 -0.0229597 0)
(0.0282966 -0.0298434 0)
(0.02657 -0.0354985 0)
(0.0220746 -0.0536856 0)
(0.023217 -0.0538179 0)
(0.0276032 -0.0492505 0)
(0.0326666 -0.046136 0)
(0.03541 -0.0504704 0)
(0.0279571 -0.0581897 0)
(0.000167701 -0.0463532 0)
(-0.0278608 0.0359978 0)
(-0.045395 0.209212 0)
(-0.0739919 0.34318 0)
(-0.107103 0.330079 0)
(-0.164421 0.103631 0)
(-0.213737 -0.144928 0)
(-0.241214 -0.245132 0)
(-0.243972 -0.286082 0)
(-0.239748 -0.264664 0)
(0.0185853 -0.0365708 0)
(0.0403797 -0.022179 0)
(0.0492347 -0.0147421 0)
(0.0530044 -0.0158842 0)
(0.0531242 -0.0201829 0)
(0.0517952 -0.0263616 0)
(0.050598 -0.0358049 0)
(0.0456526 -0.0517893 0)
(0.0362253 -0.0571258 0)
(0.023131 -0.0526192 0)
(0.00603392 -0.0453087 0)
(-0.0163785 -0.0414298 0)
(-0.0377115 -0.0366495 0)
(-0.0541216 -0.00903483 0)
(-0.0769023 0.0675053 0)
(-0.0775349 0.203489 0)
(-0.0642038 0.322551 0)
(-0.0424679 0.34044 0)
(-0.0628661 0.138348 0)
(-0.0868812 -0.0725207 0)
(-0.146598 -0.228874 0)
(-0.219905 -0.279797 0)
(-0.274957 -0.24399 0)
(0.00861751 -0.0580098 0)
(0.0246434 -0.0359565 0)
(0.0340139 -0.023843 0)
(0.041056 -0.0206134 0)
(0.0451263 -0.0219387 0)
(0.0467204 -0.0260547 0)
(0.0458407 -0.0320478 0)
(0.0402454 -0.037827 0)
(0.0289635 -0.0367181 0)
(0.0134153 -0.0283198 0)
(-0.00582276 -0.0176048 0)
(-0.0287307 -0.0131596 0)
(-0.0520223 -0.0133283 0)
(-0.0776087 0.00987518 0)
(-0.103112 0.0822492 0)
(-0.103306 0.192655 0)
(-0.0822901 0.289494 0)
(-0.0377872 0.311662 0)
(-0.0134038 0.13975 0)
(-0.0237075 -0.0285018 0)
(-0.0776883 -0.121983 0)
(-0.155095 -0.184958 0)
(-0.217544 -0.192175 0)
(-0.000639589 -0.0679483 0)
(0.00797403 -0.0445477 0)
(0.013972 -0.031867 0)
(0.0198631 -0.0265606 0)
(0.0242529 -0.025506 0)
(0.0265178 -0.0269714 0)
(0.0258791 -0.029168 0)
(0.0211149 -0.029293 0)
(0.0123828 -0.0236202 0)
(0.0014042 -0.0122636 0)
(-0.0107104 0.000997577 0)
(-0.0263317 0.00876637 0)
(-0.0512111 0.0113476 0)
(-0.0860491 0.0344835 0)
(-0.115541 0.0982049 0)
(-0.117518 0.182217 0)
(-0.0954847 0.257647 0)
(-0.0404121 0.262698 0)
(0.00231812 0.126702 0)
(-0.00472867 -0.00384451 0)
(-0.0430041 -0.0761304 0)
(-0.0920198 -0.12715 0)
(-0.149502 -0.149888 0)
(-0.00848834 -0.0657191 0)
(-0.00691329 -0.04734 0)
(-0.00556677 -0.0362688 0)
(-0.00302526 -0.0306996 0)
(-0.000601151 -0.0283956 0)
(0.000652244 -0.0277224 0)
(-0.000213147 -0.0268451 0)
(-0.00382474 -0.0235332 0)
(-0.00967743 -0.0155204 0)
(-0.0164407 -0.00300577 0)
(-0.0236727 0.0119755 0)
(-0.0334517 0.0265955 0)
(-0.0500051 0.0421896 0)
(-0.0737976 0.0682138 0)
(-0.0947365 0.112979 0)
(-0.10182 0.16969 0)
(-0.0740232 0.219363 0)
(-0.0223669 0.207714 0)
(0.0116631 0.111499 0)
(0.00864165 0.0158698 0)
(-0.0185843 -0.045743 0)
(-0.053536 -0.0827886 0)
(-0.0969025 -0.108082 0)
(-0.0141004 -0.0550223 0)
(-0.0186752 -0.0436555 0)
(-0.0221702 -0.035922 0)
(-0.0236462 -0.0315711 0)
(-0.0241267 -0.0291789 0)
(-0.0247386 -0.0273956 0)
(-0.0263483 -0.0247265 0)
(-0.0293143 -0.0195671 0)
(-0.033241 -0.0105874 0)
(-0.0373634 0.00223859 0)
(-0.0415041 0.0179492 0)
(-0.0468252 0.0355802 0)
(-0.0551781 0.0564871 0)
(-0.0656084 0.0847113 0)
(-0.071659 0.1212 0)
(-0.0657022 0.157415 0)
(-0.0403155 0.180968 0)
(-0.00148495 0.165595 0)
(0.0233023 0.100851 0)
(0.019525 0.0324681 0)
(-0.00391122 -0.0198525 0)
(-0.0336211 -0.0505719 0)
(-0.0639051 -0.0757592 0)
(-0.0177856 -0.0378461 0)
(-0.027063 -0.0343302 0)
(-0.0347232 -0.0309796 0)
(-0.0399256 -0.0288953 0)
(-0.0433465 -0.0273842 0)
(-0.0460079 -0.0255175 0)
(-0.0486671 -0.0222321 0)
(-0.0515956 -0.0164416 0)
(-0.054563 -0.00731737 0)
(-0.0571275 0.00527547 0)
(-0.0591407 0.0209472 0)
(-0.0609886 0.0393451 0)
(-0.0630853 0.0610327 0)
(-0.0641106 0.0871117 0)
(-0.0601266 0.116051 0)
(-0.0470692 0.141056 0)
(-0.0229921 0.152386 0)
(0.005768 0.13716 0)
(0.0244887 0.0929203 0)
(0.0205444 0.0455688 0)
(0.00410411 0.00531034 0)
(-0.0171329 -0.0250917 0)
(-0.0389319 -0.0524461 0)
(-0.0198196 -0.0165047 0)
(-0.0321332 -0.0208775 0)
(-0.0428502 -0.0223346 0)
(-0.0509839 -0.02312 0)
(-0.0568856 -0.0231917 0)
(-0.0613991 -0.0220619 0)
(-0.0651644 -0.019071 0)
(-0.0684118 -0.0135331 0)
(-0.0710131 -0.00493569 0)
(-0.0726754 0.00685236 0)
(-0.0731907 0.0216474 0)
(-0.0724971 0.0391993 0)
(-0.070349 0.059407 0)
(-0.0655925 0.0819034 0)
(-0.0560441 0.1045 0)
(-0.0400672 0.12204 0)
(-0.0181683 0.127878 0)
(0.00445625 0.115681 0)
(0.0188787 0.0864867 0)
(0.0197289 0.0529434 0)
(0.0110805 0.0206547 0)
(-0.00266743 -0.00754945 0)
(-0.0190639 -0.0344346 0)
(-0.0203233 0.00687302 0)
(-0.0340662 -0.00492806 0)
(-0.0465937 -0.011157 0)
(-0.0566629 -0.0150236 0)
(-0.0643625 -0.0170761 0)
(-0.0703227 -0.0172312 0)
(-0.0750492 -0.0151708 0)
(-0.078722 -0.0105171 0)
(-0.0812542 -0.00298868 0)
(-0.0824122 0.00747262 0)
(-0.0819391 0.0207048 0)
(-0.0795664 0.036396 0)
(-0.0748714 0.054078 0)
(-0.0670252 0.0727832 0)
(-0.0549688 0.090357 0)
(-0.0383382 0.103115 0)
(-0.0184799 0.106839 0)
(0.000789436 0.0983401 0)
(0.0141223 0.0788595 0)
(0.0186954 0.0542865 0)
(0.0157495 0.0286849 0)
(0.00762986 0.00428698 0)
(-0.00446992 -0.0198552 0)
(-0.0193715 0.0304055 0)
(-0.0331083 0.0119019 0)
(-0.0462477 0.00132944 0)
(-0.0572549 -0.00548607 0)
(-0.0660247 -0.0096345 0)
(-0.0729493 -0.011369 0)
(-0.0783797 -0.0106355 0)
(-0.082429 -0.00728612 0)
(-0.0850145 -0.00121814 0)
(-0.0859287 0.00753092 0)
(-0.0849038 0.0187535 0)
(-0.0816242 0.032064 0)
(-0.0756907 0.0468318 0)
(-0.0665926 0.0619744 0)
(-0.0539194 0.0756554 0)
(-0.0379114 0.0852865 0)
(-0.0199802 0.0881978 0)
(-0.00289229 0.0826971 0)
(0.0100049 0.069518 0)
(0.0168064 0.0517244 0)
(0.0176437 0.0320168 0)
(0.0134715 0.0120908 0)
(0.00485156 -0.00790364 0)
(-0.0170784 0.0523568 0)
(-0.0295667 0.0281609 0)
(-0.042271 0.0140126 0)
(-0.0533466 0.00466777 0)
(-0.0625288 -0.00146017 0)
(-0.069948 -0.00486309 0)
(-0.0757871 -0.00565874 0)
(-0.0800859 -0.00385473 0)
(-0.0827524 0.000520809 0)
(-0.0835992 0.00734231 0)
(-0.0823795 0.0163489 0)
(-0.0788095 0.0271129 0)
(-0.0725863 0.0389767 0)
(-0.0634369 0.0509369 0)
(-0.0513004 0.0615427 0)
(-0.0366429 0.068985 0)
(-0.0207083 0.0715449 0)
(-0.00550062 0.0682301 0)
(0.00674788 0.0594348 0)
(0.014598 0.0468452 0)
(0.0176915 0.0322048 0)
(0.0162284 0.01683 0)
(0.0101968 0.00152858 0)
(-0.013614 0.0711537 0)
(-0.0238822 0.0426206 0)
(-0.0352835 0.0260064 0)
(-0.0457503 0.0147712 0)
(-0.0548114 0.00693242 0)
(-0.0623053 0.00191612 0)
(-0.0682569 -0.000462992 0)
(-0.0726414 -0.000296905 0)
(-0.0753587 0.00230057 0)
(-0.0762435 0.00713828 0)
(-0.0750874 0.0139172 0)
(-0.0716662 0.0222013 0)
(-0.0657771 0.0313744 0)
(-0.0573058 0.0405844 0)
(-0.0463598 0.0487219 0)
(-0.0334468 0.0545246 0)
(-0.0195872 0.0568608 0)
(-0.00624362 0.0551038 0)
(0.00501828 0.0494502 0)
(0.0130586 0.040852 0)
(0.0173388 0.0304439 0)
(0.0177189 0.0192566 0)
(0.0140427 0.00829115 0)
(-0.00948428 0.0855989 0)
(-0.0168491 0.0542737 0)
(-0.0262323 0.0366263 0)
(-0.0355399 0.0243177 0)
(-0.0440293 0.0151144 0)
(-0.0512051 0.00862334 0)
(-0.056967 0.00471462 0)
(-0.0612449 0.00327185 0)
(-0.0639359 0.00413067 0)
(-0.0648953 0.00705767 0)
(-0.0639541 0.011735 0)
(-0.0609462 0.0177427 0)
(-0.0557474 0.0245343 0)
(-0.0483371 0.0314152 0)
(-0.0388883 0.0375528 0)
(-0.0278674 0.0420617 0)
(-0.0160796 0.0441831 0)
(-0.00459926 0.0435 0)
(0.00544115 0.0400975 0)
(0.0131391 0.0345236 0)
(0.017946 0.0275178 0)
(0.0196305 0.0198419 0)
(0.0181228 0.0122828 0)
(-0.00586289 0.0946799 0)
(-0.0102171 0.0624567 0)
(-0.016868 0.0449549 0)
(-0.0241629 0.032754 0)
(-0.0315241 0.0226232 0)
(-0.0379258 0.0148857 0)
(-0.0431581 0.00960757 0)
(-0.0471056 0.00669536 0)
(-0.0496519 0.00596133 0)
(-0.0506599 0.00714977 0)
(-0.049987 0.00994126 0)
(-0.0475083 0.0139466 0)
(-0.0431506 0.0186961 0)
(-0.0369392 0.0236347 0)
(-0.0290566 0.0281412 0)
(-0.0198963 0.0315911 0)
(-0.010077 0.0334666 0)
(-0.00038784 0.0334797 0)
(0.00834361 0.0316557 0)
(0.015418 0.0283096 0)
(0.0203585 0.0239081 0)
(0.0229485 0.018955 0)
(0.0231675 0.0139096 0)
(-0.00297561 0.0998107 0)
(-0.0043583 0.0674282 0)
(-0.00839409 0.0502041 0)
(-0.0131021 0.0392768 0)
(-0.0185737 0.028845 0)
(-0.0236641 0.0202551 0)
(-0.0280032 0.013911 0)
(-0.031386 0.00978534 0)
(-0.0336478 0.00769688 0)
(-0.0346342 0.00739126 0)
(-0.0342078 0.00856508 0)
(-0.0322638 0.01087 0)
(-0.0287539 0.0139108 0)
(-0.0237174 0.0172489 0)
(-0.0173173 0.0204209 0)
(-0.00986708 0.0229824 0)
(-0.0018317 0.0245741 0)
(0.0062132 0.0249917 0)
(0.0136652 0.0242283 0)
(0.0199963 0.0224568 0)
(0.0248239 0.0199508 0)
(0.0279674 0.0169954 0)
(0.0294105 0.0137904 0)
(0.000594986 0.101326 0)
(0.00224483 0.0697593 0)
(-0.000153398 0.0531345 0)
(-0.00273157 0.0433131 0)
(-0.00589361 0.0332045 0)
(-0.00930389 0.0243192 0)
(-0.0124912 0.0173483 0)
(-0.0151332 0.0123627 0)
(-0.0169884 0.00922539 0)
(-0.0178665 0.00771362 0)
(-0.0176186 0.00756026 0)
(-0.0161426 0.00846682 0)
(-0.0133958 0.0101086 0)
(-0.00941209 0.0121419 0)
(-0.00432162 0.014221 0)
(0.00163713 0.0160263 0)
(0.00812263 0.0173047 0)
(0.0147205 0.0179074 0)
(0.0209967 0.0178097 0)
(0.0265611 0.0170955 0)
(0.0311187 0.0159041 0)
(0.0345213 0.0143598 0)
(0.0367383 0.0124872 0)
(0.00689077 0.0965315 0)
(0.0102166 0.0702705 0)
(0.00868353 0.0548716 0)
(0.00767971 0.0451866 0)
(0.00641203 0.03563 0)
(0.00458262 0.0269459 0)
(0.00256074 0.019793 0)
(0.000719196 0.0143186 0)
(-0.000654113 0.0104534 0)
(-0.00134088 0.0080311 0)
(-0.00117924 0.00683727 0)
(-6.19527e-05 0.00662977 0)
(0.00205914 0.00714956 0)
(0.00516533 0.00813114 0)
(0.00916294 0.00931652 0)
(0.0138794 0.0104746 0)
(0.0190706 0.011424 0)
(0.0244425 0.012054 0)
(0.0296861 0.0123305 0)
(0.034518 0.0122817 0)
(0.0387148 0.0119586 0)
(0.0421531 0.0113795 0)
(0.0447838 0.0104628 0)
(0.0121499 0.0840138 0)
(0.0170554 0.0684944 0)
(0.0172937 0.0552221 0)
(0.0178065 0.0455524 0)
(0.0178852 0.0365359 0)
(0.0173066 0.0283065 0)
(0.0163315 0.0212802 0)
(0.0152843 0.0156183 0)
(0.0144439 0.0113101 0)
(0.0140324 0.00824988 0)
(0.014217 0.00628015 0)
(0.0151107 0.00521558 0)
(0.0167717 0.004857 0)
(0.0192007 0.00500322 0)
(0.0223387 0.00546294 0)
(0.0260682 0.00606837 0)
(0.0302201 0.00668872 0)
(0.0345903 0.00723994 0)
(0.0389618 0.00768488 0)
(0.0431312 0.00801878 0)
(0.0469301 0.00823874 0)
(0.0502533 0.00830029 0)
(0.0530366 0.00806646 0)
(0.0124122 0.0678293 0)
(0.0199501 0.063399 0)
(0.0233712 0.0533713 0)
(0.0257809 0.0444973 0)
(0.0272389 0.0361851 0)
(0.0278664 0.0285487 0)
(0.0279306 0.0218488 0)
(0.0277177 0.016231 0)
(0.0274866 0.0117217 0)
(0.027454 0.0082656 0)
(0.0277889 0.00575779 0)
(0.0286109 0.00406501 0)
(0.0299903 0.00304084 0)
(0.031948 0.00253738 0)
(0.0344568 0.00241552 0)
(0.0374441 0.00255461 0)
(0.0407987 0.00286062 0)
(0.0443828 0.00327025 0)
(0.0480471 0.00374763 0)
(0.0516465 0.004271 0)
(0.0550538 0.00480834 0)
(0.0581783 0.00528346 0)
(0.0609462 0.00553875 0)
(0.0100041 0.0531336 0)
(0.0194443 0.0552624 0)
(0.025818 0.0488532 0)
(0.0303659 0.0416311 0)
(0.0334636 0.0344189 0)
(0.0354466 0.0275952 0)
(0.0366475 0.0214262 0)
(0.0373598 0.0160677 0)
(0.0378399 0.0115793 0)
(0.0383041 0.00794971 0)
(0.0389253 0.0051206 0)
(0.0398316 0.00300571 0)
(0.041107 0.00150495 0)
(0.0427924 0.00051549 0)
(0.0448884 -5.95978e-05 0)
(0.047359 -0.000304053 0)
(0.0501376 -0.000283306 0)
(0.0531357 -4.32247e-05 0)
(0.0562532 0.000385329 0)
(0.0593878 0.000974626 0)
(0.0624433 0.00168066 0)
(0.065341 0.00241652 0)
(0.0680042 0.00302545 0)
(0.0076852 0.0408524 0)
(0.0174523 0.0454486 0)
(0.0255676 0.0420609 0)
(0.0318501 0.0368607 0)
(0.036503 0.0310945 0)
(0.0398449 0.025336 0)
(0.0422148 0.0199161 0)
(0.0439067 0.0150283 0)
(0.0451742 0.0107706 0)
(0.0462329 0.00717347 0)
(0.0472592 0.00422172 0)
(0.0483895 0.00187165 0)
(0.0497203 6.44584e-05 0)
(0.0513109 -0.00126375 0)
(0.0531854 -0.00217444 0)
(0.0553374 -0.00272085 0)
(0.0577343 -0.00294449 0)
(0.0603248 -0.00287517 0)
(0.0630446 -0.00253571 0)
(0.0658232 -0.00195219 0)
(0.0685881 -0.00116938 0)
(0.0712724 -0.000271828 0)
(0.0738017 0.000596774 0)
(0.00625655 0.0303694 0)
(0.0153541 0.0353535 0)
(0.0239796 0.0340315 0)
(0.031218 0.0306761 0)
(0.0369846 0.0264196 0)
(0.0414409 0.0218539 0)
(0.0448502 0.0173358 0)
(0.0474661 0.0130863 0)
(0.0495181 0.00923518 0)
(0.0512089 0.00584839 0)
(0.0527109 0.00294802 0)
(0.054163 0.000527759 0)
(0.0556706 -0.00143494 0)
(0.0573067 -0.0029701 0)
(0.0591141 -0.0041086 0)
(0.0611091 -0.0048773 0)
(0.0632852 -0.00529647 0)
(0.0656184 -0.00538032 0)
(0.0680714 -0.00514134 0)
(0.0705974 -0.00459889 0)
(0.0731427 -0.00379162 0)
(0.0756521 -0.00279414 0)
(0.0780582 -0.00173133 0)
(0.0054219 0.0212447 0)
(0.0135901 0.0258141 0)
(0.0219478 0.0257332 0)
(0.029423 0.0237889 0)
(0.0357482 0.0208567 0)
(0.0409238 0.0174378 0)
(0.0451042 0.0138571 0)
(0.0484713 0.0103315 0)
(0.051208 0.00700259 0)
(0.053488 0.00395778 0)
(0.0554677 0.00124619 0)
(0.0572801 -0.00110886 0)
(0.0590321 -0.00310003 0)
(0.0608044 -0.00472868 0)
(0.0626524 -0.00599933 0)
(0.0646084 -0.00691563 0)
(0.0666851 -0.00747849 0)
(0.0688784 -0.00768684 0)
(0.0711708 -0.00754135 0)
(0.0735337 -0.00705166 0)
(0.0759289 -0.00624638 0)
(0.0783124 -0.00518656 0)
(0.0806272 -0.00397624 0)
(0.00483378 0.013149 0)
(0.0121137 0.0171155 0)
(0.0198447 0.0177448 0)
(0.0270855 0.016786 0)
(0.033504 0.0148953 0)
(0.0389995 0.0124627 0)
(0.0436318 0.00975229 0)
(0.0475083 0.0069506 0)
(0.0507566 0.0041899 0)
(0.0535118 0.00156248 0)
(0.0559047 -0.000868277 0)
(0.0580539 -0.00305934 0)
(0.0600607 -0.00498115 0)
(0.0620064 -0.00661225 0)
(0.0639525 -0.00793517 0)
(0.0659413 -0.00893345 0)
(0.0679979 -0.00959058 0)
(0.0701324 -0.00989081 0)
(0.0723417 -0.00982247 0)
(0.074611 -0.00938399 0)
(0.0769149 -0.00859216 0)
(0.0792202 -0.00749314 0)
(0.0814815 -0.00617047 0)
(0.00430546 0.00592476 0)
(0.010775 0.0093065 0)
(0.0177596 0.0103334 0)
(0.0245198 0.0100343 0)
(0.0307224 0.0089145 0)
(0.0362216 0.0072731 0)
(0.0410151 0.00531078 0)
(0.0451513 0.00317281 0)
(0.0487089 0.000968395 0)
(0.051784 -0.00121838 0)
(0.0544791 -0.00332166 0)
(0.0568934 -0.0052885 0)
(0.0591166 -0.00707488 0)
(0.0612255 -0.00864259 0)
(0.0632816 -0.00995673 0)
(0.0653317 -0.0109842 0)
(0.067408 -0.0116932 0)
(0.0695296 -0.0120547 0)
(0.0717036 -0.0120449 0)
(0.0739255 -0.0116507 0)
(0.0761805 -0.0108768 0)
(0.0784454 -0.00975452 0)
(0.080687 -0.00834829 0)
(0.00376892 -0.000474066 0)
(0.00948012 0.00237393 0)
(0.0156995 0.00360029 0)
(0.02187 0.00372859 0)
(0.0276776 0.00316184 0)
(0.0329639 0.00213135 0)
(0.0376915 0.000783046 0)
(0.0418708 -0.000779618 0)
(0.045544 -0.00247584 0)
(0.0487755 -0.00423756 0)
(0.0516415 -0.0060045 0)
(0.0542213 -0.00772138 0)
(0.0565908 -0.00933629 0)
(0.058818 -0.0107997 0)
(0.0609608 -0.0120639 0)
(0.0630656 -0.0130826 0)
(0.0651677 -0.0138115 0)
(0.0672913 -0.0142096 0)
(0.0694504 -0.0142424 0)
(0.0716481 -0.0138858 0)
(0.0738781 -0.0131328 0)
(0.0761265 -0.012001 0)
(0.0783716 -0.0105375 0)
(0.00322098 -0.00605528 0)
(0.00820563 -0.003707 0)
(0.0136726 -0.00242462 0)
(0.0192109 -0.00203573 0)
(0.0245266 -0.00221389 0)
(0.0294617 -0.002781 0)
(0.0339612 -0.00363738 0)
(0.0380138 -0.004718 0)
(0.0416385 -0.00597083 0)
(0.0448769 -0.00734671 0)
(0.0477844 -0.0087951 0)
(0.0504223 -0.010263 0)
(0.0528526 -0.0116952 0)
(0.0551334 -0.0130353 0)
(0.0573161 -0.0142268 0)
(0.0594443 -0.0152136 0)
(0.0615531 -0.0159415 0)
(0.0636692 -0.01636 0)
(0.0658105 -0.016425 0)
(0.0679861 -0.0161028 0)
(0.070197 -0.0153758 0)
(0.0724372 -0.0142493 0)
(0.0746959 -0.0127551 0)
(0.00268176 -0.0108296 0)
(0.00696591 -0.00896486 0)
(0.0117 -0.00773795 0)
(0.0165925 -0.00721231 0)
(0.0213648 -0.00712466 0)
(0.0258628 -0.00734338 0)
(0.0300233 -0.00781013 0)
(0.0338241 -0.00849498 0)
(0.0372714 -0.00937303 0)
(0.0403921 -0.0104137 0)
(0.043226 -0.0115772 0)
(0.0458203 -0.0128148 0)
(0.0482243 -0.0140711 0)
(0.0504862 -0.015286 0)
(0.05265 -0.0163971 0)
(0.054755 -0.0173418 0)
(0.0568342 -0.0180585 0)
(0.0589149 -0.0184894 0)
(0.0610175 -0.0185826 0)
(0.0631557 -0.0182965 0)
(0.0653364 -0.0176045 0)
(0.0675612 -0.0165013 0)
(0.0698292 -0.0150051 0)
(0.00216669 -0.0148301 0)
(0.00577599 -0.013431 0)
(0.00980133 -0.0123473 0)
(0.0140503 -0.0117801 0)
(0.0182546 -0.011519 0)
(0.0222637 -0.0114775 0)
(0.0260114 -0.0116373 0)
(0.029472 -0.0120017 0)
(0.0326456 -0.0125706 0)
(0.0355504 -0.0133298 0)
(0.0382156 -0.0142495 0)
(0.0406775 -0.0152859 0)
(0.0429746 -0.0163844 0)
(0.0451458 -0.0174834 0)
(0.0472281 -0.0185174 0)
(0.0492556 -0.0194193 0)
(0.0512586 -0.0201231 0)
(0.0532638 -0.0205653 0)
(0.0552931 -0.0206888 0)
(0.0573638 -0.0204456 0)
(0.0594882 -0.019802 0)
(0.061675 -0.0187438 0)
(0.0639327 -0.0172778 0)
(0.00166935 -0.0180879 0)
(0.00462704 -0.0171374 0)
(0.0079794 -0.0162707 0)
(0.0116033 -0.0157369 0)
(0.0152361 -0.0153713 0)
(0.0187296 -0.0151353 0)
(0.0220187 -0.0150534 0)
(0.0250791 -0.0151612 0)
(0.0279101 -0.0154801 0)
(0.0305253 -0.01601 0)
(0.032947 -0.016729 0)
(0.0352028 -0.0175973 0)
(0.0373226 -0.0185618 0)
(0.0393371 -0.0195609 0)
(0.0412767 -0.0205276 0)
(0.0431703 -0.0213928 0)
(0.0450453 -0.0220873 0)
(0.0469271 -0.022545 0)
(0.0488386 -0.0227048 0)
(0.0507998 -0.0225148 0)
(0.052828 -0.021936 0)
(0.054939 -0.0209478 0)
(0.05715 -0.0195477 0)
(0.00113655 -0.02058 0)
(0.00347545 -0.0201172 0)
(0.00621459 -0.0195436 0)
(0.00925451 -0.0191025 0)
(0.0123336 -0.0186782 0)
(0.0153058 -0.0182925 0)
(0.0181121 -0.0180181 0)