/*--------------------------------*- C++ -*----------------------------------*\
| =========                 |                                                 |
| \\      /  F ield         | OpenFOAM: The Open Source CFD Toolbox           |
|  \\    /   O peration     | Version:  2.3.0                                 |
|   \\  /    A nd           | Web:      www.OpenFOAM.org                      |
|    \\/     M anipulation  |                                                 |
\*---------------------------------------------------------------------------*/
FoamFile
{
    version     2.0;
    format      ascii;
    class       volScalarField;
    location    "1.6";
    object      alpha.water;
}
// * * * * * * * * * * * * * * * * * * * * * * * * * * * * * * * * * * * * * //

dimensions      [0 0 0 0 0 0 0];

internalField   nonuniform List<scalar> 
2268
(
1
1
1
0.999999
0.999999
1
1
1
1
1
0.999999
0.999999
0.999999
1
1
1
0.99461
0.976134
0.976113
0.976493
0.997124
0.992423
0.988541
1
1
1
1
1
1
1
1
0.999999
0.999999
0.999999
0.999999
1
1
1
1
0.989068
0.976114
0.976115
0.983495
0.998562
0.998801
0.988665
1
1
1
1
1
1
1
0.999999
0.999999
1
1
1
1
1
1
1
0.993433
0.981199
0.98332
0.994851
0.999657
0.999853
0.988764
1
1
1
1
1
1
1
0.999999
0.999999
0.999999
1
1
1
1
0.999998
0.999909
0.99979
0.999299
0.999548
0.99987
0.999866
0.999865
0.991278
1
1
1
1
1
1
1
0.999999
0.999999
0.999999
1
1
1
1
1
1
1
0.999999
0.999981
0.99992
0.999885
0.999866
0.998632
1
1
1
1
1
1
1
1
0.999999
0.999999
1
1
1
1
1
1
1
1
0.999871
0.999499
0.999542
0.999852
0.99979
1
0.999999
1
1
1
1
1
0.999999
0.999999
0.999999
1
1
1
1
1
1
1
0.999807
0.999857
0.999821
0.999662
0.999831
0.999772
1
0.999999
1
1
1
0.999999
0.999998
0.999997
0.999997
0.999996
0.999997
0.999997
0.999998
0.999999
1
1
1
0.999999
0.992685
0.974447
0.997374
0.999773
0.999669
0.992149
0.992514
0.992969
0.992653
0.994614
0.995135
0.995063
0.995063
0.995064
0.958197
0.956826
0.953019
0.943425
0.907691
0.907659
0.907643
0.907616
0.926619
0.961119
0.992149
0.994506
0.9949
0.995018
0.995116
0.995162
0.995116
0.995067
0.995192
0.929757
0.772657
0.931881
0.943218
0.908534
0.907643
0.907582
0.90753
0.913845
0.961127
0.994538
0.994496
0.994558
0.994956
0.995051
0.995119
0.995105
0.995097
0.949716
0.668925
0.611851
0.666167
0.908712
0.957323
0.940268
0.919384
0.907665
0.922176
0.961159
0.994627
0.950584
0.9549
0.991181
0.994887
0.986529
0.958975
0.883218
0.641982
0.611851
0.611713
0.611851
0.819665
0.960852
0.961265
0.961184
0.932886
0.961252
0.961181
0.976485
0.725437
0.6901
0.846431
0.989299
0.857718
0.676551
0.636017
0.624158
0.635004
0.611762
0.611762
0.924634
0.961182
0.961207
0.961249
0.96124
0.961338
0.961322
0.873873
0.868433
0.64287
0.601059
0.781337
0.712388
0.640645
0.638055
0.765928
0.814724
0.747245
0.821019
0.913508
0.961286
0.961263
0.961238
0.961346
0.961443
0.961383
0.999031
0.999031
0.930523
0.603936
0.566375
0.792927
0.810046
0.799689
0.814952
0.814971
0.814724
0.710344
0.524579
0.827847
0.96118
0.961365
0.961443
0.96137
0.961443
0.999031
0.998979
0.998655
0.855167
0.462041
0.745098
0.814531
0.814952
0.814971
0.814952
0.758898
0.468785
0.457834
0.515168
0.873912
0.961171
0.961346
0.954147
0.851556
0.999999
0.999999
0.999999
0.999994
0.999987
0.99998
0.999973
0.999967
0.999963
0.999961
0.999962
0.999966
0.999973
0.999984
0.99999
0.999996
0.999999
0.999718
0.944192
0.929759
0.929434
0.974618
0.99955
0.999974
0.99999
0.999981
0.999935
0.999874
0.999799
0.999737
0.999696
0.999671
0.999664
0.999683
0.999721
0.999774
0.999843
0.999916
0.999949
0.999983
0.999463
0.939396
0.929251
0.929759
0.929627
0.953823
0.856472
0.821284
0.757175
0.764062
0.78195
0.785694
0.822493
0.86204
0.88926
0.908028
0.92566
0.94115
0.954965
0.968566
0.982107
0.991798
0.998196
0.992675
0.981801
0.978261
0.945237
0.963732
0.990213
0.22338
0.17417
0.119129
0.108821
0.0992795
0.0972797
0.114667
0.148373
0.181731
0.209482
0.2398
0.273698
0.308007
0.352307
0.411611
0.479333
0.56393
0.668808
0.773638
0.844788
0.889663
0.928673
0.930702
0.0203595
0.0293085
0.0403891
0.0217222
0.00447927
0.0025251
0.00167325
0.00119781
0.001049
0.00101412
0.00101557
0.00101565
0.00101565
0.000929485
0.0007747
0.000635377
0.000441406
0.0184798
0.0612953
0.112966
0.156365
0.171553
0.160936
0.0201063
0.0236771
0.0379923
0.0370688
0.028463
0.025355
0.0273601
0.0181035
0.00168717
0.00104901
0.00101427
0.00115034
0.00159562
0.00169408
0.00128999
0.000603406
0.000323623
0.000441358
0.000708914
0.00138718
0.00092488
0.00047302
0.000296673
0.0184719
0.028958
0.0264446
0.0348983
0.0340437
0.0325276
0.0321964
0.0316932
0.00729992
0.00119723
0.00135572
0.00291808
0.00291808
0.00291808
0.00288002
0.000800648
0.000134921
0.00236606
0.00967134
0.0100461
0.0102
0.00134084
0.000170034
0.0132459
0.00452814
0.00112838
0.00769764
0.0185433
0.0122046
0.0029027
0.00312004
0.00394867
0.00119865
0.00214883
0.00267184
0.00122832
0.00042147
0.000464995
0.000154171
2.44388e-08
1.45506e-06
2.9999e-06
0.00419606
0.00335808
0.000573769
0.000146869
8.0039e-07
8.0039e-07
8.02734e-07
1.08723e-06
1.88153e-06
2.41931e-06
2.85023e-06
5.75054e-06
0.000282354
0.000668908
0.000486075
1.08745e-08
4.10938e-09
4.50121e-09
8.90949e-09
1.55048e-08
1.79324e-08
2.44794e-08
0.000147519
0.00194652
0.00255631
0.000787561
0.000433062
8.0039e-07
8.02733e-07
4.24419e-06
1.38296e-05
1.9358e-06
5.8826e-06
8.64996e-05
0.000196081
3.61588e-05
1.65423e-05
9.72748e-10
1.7804e-09
3.64782e-09
4.1105e-09
4.50559e-09
8.90949e-09
1.97759e-08
1.17267e-07
0.000912974
0.00237468
0.00256185
0.00217065
1.51606e-05
1.16285e-06
8.76342e-07
1.36036e-05
2.41909e-05
3.5154e-07
2.25335e-05
5.49504e-05
2.2968e-05
1.74691e-09
1.73812e-09
1.76239e-09
1.73974e-09
3.46437e-09
2.63227e-09
1.23313e-07
7.32812e-07
4.86463e-07
1.10659e-07
4.04147e-05
0.000315559
0.00116449
0.000209966
8.62392e-06
1.06581e-06
1.24017e-06
2.84005e-09
6.33426e-09
1.66684e-09
1.66557e-09
1.66683e-09
1.67954e-09
1.71124e-09
1.74691e-09
1.86732e-09
2.83207e-09
7.49212e-10
3.82534e-10
3.6406e-07
1.48185e-06
1.44444e-06
1.09785e-07
1.48994e-07
2.1874e-07
4.24829e-07
1.28376e-06
5.13355e-06
4.52245e-08
7.21646e-07
1.69303e-09
1.67659e-09
1.66443e-09
1.66839e-09
1.94901e-09
2.85691e-09
3.08853e-09
2.09365e-09
8.05545e-10
4.59834e-10
4.24469e-10
3.32935e-10
2.75562e-10
7.1086e-09
5.68589e-09
6.29595e-08
5.14594e-07
7.66719e-07
6.47021e-07
6.40962e-07
1.67088e-06
2.10474e-08
3.60271e-09
3.51124e-08
1.94832e-09
2.03876e-09
3.06813e-09
3.12758e-09
3.17151e-09
3.17142e-09
2.37676e-09
1.05001e-09
6.02069e-10
4.15967e-10
3.19217e-10
2.17646e-10
2.13024e-10
5.17008e-09
8.94527e-09
3.31542e-09
1.48591e-08
6.84723e-08
1.43073e-07
5.76163e-07
6.38746e-08
3.56364e-09
3.45519e-09
3.20601e-09
3.45021e-09
3.22381e-09
2.58012e-09
2.73817e-09
3.08675e-09
2.86872e-09
2.06514e-09
1.12968e-09
4.84426e-10
2.94915e-10
2.17888e-10
1.6793e-10
1.47643e-10
3.47935e-10
2.18606e-09
2.36233e-09
8.03965e-09
4.13791e-08
1.1071e-06
1.89329e-07
3.77962e-09
5.52049e-09
2.98113e-09
2.7086e-09
1.89077e-09
1.72158e-09
1.93139e-09
2.43057e-09
2.67587e-09
2.56911e-09
1.67284e-09
7.25514e-10
3.51648e-10
2.14153e-10
1.61558e-10
1.37681e-10
1.72701e-10
2.53409e-10
4.30022e-10
1.20186e-09
1.60865e-08
2.28161e-07
6.77456e-09
1.39776e-08
5.8041e-08
2.59206e-08
1.47711e-09
1.45345e-09
1.46999e-09
1.32085e-09
1.44452e-09
1.82592e-09
1.95827e-09
1.6214e-09
9.68585e-10
4.94049e-10
2.41856e-10
1.23145e-10
9.32995e-11
7.7987e-11
9.70363e-11
1.972e-10
3.35538e-10
1.12493e-09
8.91043e-09
5.39782e-06
1.44727e-08
6.0125e-08
8.02906e-08
4.7785e-09
1.42019e-09
1.41531e-09
1.20397e-09
1.05953e-09
1.00468e-09
1.00178e-09
9.93686e-10
8.90618e-10
5.76298e-10
2.84566e-10
1.27005e-10
7.62297e-11
6.08605e-11
5.73991e-11
5.43014e-11
1.32872e-10
4.94796e-10
9.20607e-10
2.60001e-05
2.26465e-05
2.05842e-09
2.03101e-09
1.92169e-09
2.60537e-09
1.69877e-09
1.47366e-09
1.1086e-09
9.07171e-10
8.13127e-10
7.21129e-10
5.98876e-10
4.15293e-10
2.35976e-10
1.18945e-10
7.55673e-11
5.18596e-11
3.72139e-11
3.37116e-11
3.46125e-11
7.79993e-11
1.35884e-10
3.53289e-05
3.55425e-05
2.88479e-05
1.67634e-09
1.65872e-09
1.6633e-09
1.75619e-09
1.75587e-09
1.35408e-09
8.67111e-10
6.90346e-10
5.64056e-10
4.33431e-10
2.89044e-10
1.67773e-10
9.92235e-11
6.76484e-11
4.3125e-11
2.668e-11
1.90809e-11
1.7172e-11
2.05322e-11
2.22693e-11
7.60935e-06
3.56027e-05
3.56027e-05
6.87802e-06
1.6206e-09
1.5668e-09
1.58568e-09
1.66965e-09
1.42144e-09
8.90714e-10
5.59915e-10
3.76984e-10
2.527e-10
1.61147e-10
1.12268e-10
7.78939e-11
4.93269e-11
2.87424e-11
1.90727e-11
1.33932e-11
9.82545e-12
8.49571e-12
1.0844e-11
1.36719e-08
2.13106e-05
1.77464e-05
4.87952e-06
3.91173e-07
1.21553e-09
1.18966e-09
1.1081e-09
1.0047e-09
7.01503e-10
4.10646e-10
2.28769e-10
1.44661e-10
1.04858e-10
7.61583e-11
4.33562e-11
2.74617e-11
1.86172e-11
1.28141e-11
8.78797e-12
6.01744e-12
4.32829e-12
3.53663e-12
4.50716e-10
1.68609e-07
2.48003e-08
1.92212e-07
1.47613e-07
5.01761e-08
2.17811e-09
9.45565e-10
6.76652e-10
4.12634e-10
2.14168e-10
1.59144e-10
9.38257e-11
5.74213e-11
3.66776e-11
2.40889e-11
1.6045e-11
1.07125e-11
7.12674e-12
4.71327e-12
3.1028e-12
2.08455e-12
1.49217e-12
7.01119e-11
3.21053e-10
1.8634e-10
1.56793e-10
1.94193e-10
1.8713e-09
1.4245e-09
8.30852e-10
4.56167e-10
2.18282e-10
1.18476e-10
7.12959e-11
4.57009e-11
2.9903e-11
1.97375e-11
1.3021e-11
8.52084e-12
5.51055e-12
3.52149e-12
2.22801e-12
1.3998e-12
8.7705e-13
5.92187e-13
6.69624e-11
4.35878e-11
5.76323e-11
1.25174e-10
1.9705e-10
3.48049e-10
3.89017e-10
3.14005e-10
1.67637e-10
9.43866e-11
5.64885e-11
3.60402e-11
2.36194e-11
1.55218e-11
1.00841e-11
6.43381e-12
4.02505e-12
2.47259e-12
1.49568e-12
8.93978e-13
5.30041e-13
3.1338e-13
1.92434e-13
3.40555e-11
3.77809e-11
5.36251e-11
1.27452e-10
1.90398e-10
1.9438e-10
1.46214e-10
9.56866e-11
6.14896e-11
4.01627e-11
2.65023e-11
1.7418e-11
1.12806e-11
7.15393e-12
4.42848e-12
2.67382e-12
1.57656e-12
9.10243e-13
5.16441e-13
2.89107e-13
1.60456e-13
8.90287e-14
5.05979e-14
1.63954e-11
4.37576e-11
5.76453e-11
7.30898e-11
7.65926e-11
6.66882e-11
5.17205e-11
3.74295e-11
2.59193e-11
1.73994e-11
1.13774e-11
7.24759e-12
4.49004e-12
2.70085e-12
1.57651e-12
8.93782e-13
4.93312e-13
2.65985e-13
1.40683e-13
7.335e-14
3.80056e-14
2.00806e-14
1.20086e-14
5.61571e-12
1.87652e-11
2.65275e-11
2.99207e-11
2.88826e-11
2.47337e-11
1.91833e-11
1.38398e-11
9.47456e-12
6.22183e-12
3.93609e-12
2.4011e-12
1.41221e-12
8.00902e-13
4.38442e-13
2.32205e-13
1.19373e-13
5.98199e-14
2.93691e-14
1.42463e-14
7.03505e-15
4.07332e-15
4.0318e-15
1.53992e-12
5.88427e-12
8.75048e-12
9.80748e-12
9.23536e-12
7.66838e-12
5.79866e-12
4.09158e-12
2.73124e-12
1.73612e-12
1.05373e-12
6.11389e-13
3.39438e-13
1.80594e-13
9.22974e-14
4.54662e-14
2.168e-14
1.00596e-14
4.58254e-15
2.12358e-15
1.21591e-15
1.41526e-15
3.16131e-15
3.61089e-13
1.47091e-12
2.16807e-12
2.37904e-12
2.19673e-12
1.79557e-12
1.33866e-12
9.26578e-13
6.0131e-13
3.67855e-13
2.12822e-13
1.16716e-13
6.08174e-14
3.01953e-14
1.43365e-14
6.53855e-15
2.88012e-15
1.23667e-15
5.39684e-16
3.11287e-16
4.41338e-16
1.19155e-15
3.47473e-15
7.34714e-14
3.01457e-13
4.30199e-13
4.57444e-13
4.1186e-13
3.29437e-13
2.39675e-13
1.60816e-13
1.00318e-13
5.84693e-14
3.19584e-14
1.64355e-14
7.98064e-15
3.67368e-15
1.6108e-15
6.7659e-16
2.74839e-16
1.13203e-16
6.64816e-17
1.15809e-16
3.71759e-16
1.23724e-15
3.85388e-15
1.29368e-14
5.14327e-14
6.97207e-14
7.11139e-14
6.17348e-14
4.76478e-14
3.33427e-14
2.13801e-14
1.26507e-14
6.94175e-15
3.5467e-15
1.694e-15
7.59772e-16
3.21641e-16
1.29295e-16
4.98256e-17
1.93573e-17
1.14876e-17
2.41327e-17
9.0701e-17
3.44539e-16
1.22637e-15
4.05942e-15
1.94823e-15
7.36234e-15
9.32868e-15
8.98532e-15
7.41838e-15
5.44533e-15
3.61167e-15
2.18249e-15
1.20865e-15
6.16306e-16
2.90662e-16
1.27414e-16
5.2208e-17
2.0125e-17
7.36688e-18
2.68821e-18
1.55441e-18
3.75764e-18
1.63556e-17
7.11799e-17
2.90442e-16
1.10584e-15
3.92985e-15
2.50028e-16
8.87354e-16
1.03752e-15
9.33431e-16
7.23482e-16
4.97991e-16
3.08594e-16
1.7328e-16
8.85277e-17
4.133e-17
1.77293e-17
7.03353e-18
2.59918e-18
9.03044e-19
3.07347e-19
1.61363e-19
4.10945e-19
2.04408e-18
1.02655e-17
4.84747e-17
2.13245e-16
8.74168e-16
3.35186e-15
2.72176e-17
9.05688e-17
9.71436e-17
8.09889e-17
5.83296e-17
3.7229e-17
2.12497e-17
1.08984e-17
5.04387e-18
2.11848e-18
8.13285e-19
2.87678e-19
9.4647e-20
2.98659e-20
1.3087e-20
3.00252e-20
1.64542e-19
9.54088e-19
5.29464e-18
2.73347e-17
1.30521e-16
5.78734e-16
2.40075e-15
2.50596e-18
7.8574e-18
7.74798e-18
5.96463e-18
3.96073e-18
2.3149e-18
1.1987e-18
5.52198e-19
2.27524e-19
8.45003e-20
2.85484e-20
8.86368e-21
2.58545e-21
9.0353e-22
1.47063e-21
8.0539e-21
5.16679e-20
3.39972e-19
2.11312e-18
1.20407e-17
6.29347e-17
3.0431e-16
1.37521e-15
1.9599e-19
5.84595e-19
5.34706e-19
3.79881e-19
2.3145e-19
1.22599e-19
5.67891e-20
2.31198e-20
8.33431e-21
2.68766e-21
7.84504e-22
2.10937e-22
5.99371e-23
5.54013e-23
2.48454e-22
1.51838e-21
1.10619e-20
8.46686e-20
5.99652e-19
3.83565e-18
2.23116e-17
1.1945e-16
5.9653e-16
1.2999e-20
3.80678e-20
3.26217e-20
2.15326e-20
1.19853e-20
5.71361e-21
2.33721e-21
8.26341e-22
2.55384e-22
6.99633e-23
1.72796e-23
4.14379e-24
2.10072e-24
6.08057e-24
2.8733e-23
1.6081e-22
1.39273e-21
1.28451e-20
1.0677e-19
7.89428e-19
5.24925e-18
3.18599e-17
1.79415e-16
7.43153e-22
2.18583e-21
1.7849e-21
1.10363e-21
5.64338e-22
2.40107e-22
8.55386e-23
2.57465e-23
6.65434e-24
1.50618e-24
3.11804e-25
9.54376e-26
1.6082e-25
5.46632e-25
1.87589e-24
7.62764e-24
8.13411e-23
9.49523e-22
9.72062e-21
8.70293e-20
6.90428e-19
4.93185e-18
3.2287e-17
3.82484e-23
1.107e-22
8.88264e-23
5.23797e-23
2.47954e-23
9.39458e-24
2.86746e-24
7.14884e-25
1.48934e-25
2.68325e-26
5.41344e-27
5.23971e-27
1.34872e-26
3.45874e-26
6.71009e-26
1.29348e-25
1.45069e-24
2.27772e-23
3.10521e-22
3.65192e-21
3.75043e-20
3.412e-19
2.7975e-18
1.87131e-24
4.92494e-24
4.0623e-24
2.36121e-24
1.04215e-24
3.48929e-25
8.90394e-26
1.75619e-26
2.76487e-27
3.9452e-28
1.9532e-28
4.56175e-28
9.44267e-28
1.58552e-27
1.44886e-27
7.79721e-28
2.97491e-27
7.02813e-26
1.50451e-24
2.75094e-23
4.34731e-22
6.01526e-21
7.38891e-20
9.23589e-26
1.68809e-25
1.6543e-25
9.84845e-26
4.12307e-26
1.22171e-26
2.5394e-27
3.6531e-28
3.78123e-29
7.18125e-30
1.61815e-29
3.61378e-29
5.26254e-29
5.26969e-29
1.79595e-29
3.0113e-30
3.2761e-31
2.90468e-31
1.53283e-29
7.55028e-28
3.22196e-26
1.21177e-24
4.08308e-23
0.998801
0.998335
0.99856
0.998803
0.993796
0.998428
0.998747
0.998728
0.992854
0.993334
0.997091
0.998009
0.923173
0.912083
0.871739
0.848586
0.143216
0.124008
0.0905703
0.00544596
0.000199907
0.000278203
0.000309589
0.000641268
0.000138305
0.000284768
0.000256862
0.000318206
8.45841e-05
0.000101169
0.000219012
0.000346684
6.31746e-05
8.39943e-05
0.000179503
0.00044108
3.55343e-05
6.12068e-05
0.000187533
0.00040033
1.5103e-05
3.73334e-05
0.000114228
0.00149803
8.51226e-06
2.37775e-05
0.000294839
0.00129191
4.38204e-06
6.84153e-05
0.00032107
0.000449322
1.48941e-05
6.78014e-05
8.54745e-05
1.16848e-05
7.60421e-06
9.92666e-06
1.72491e-06
1.87624e-06
3.03043e-07
1.7313e-07
3.02037e-07
3.20107e-07
3.22508e-08
3.18371e-08
2.86785e-08
2.81998e-08
6.95939e-10
1.21951e-09
1.82865e-09
2.24072e-09
6.47283e-11
9.75585e-11
1.41808e-10
2.75773e-10
2.5727e-11
2.62267e-11
3.05346e-11
4.58187e-11
1.70568e-11
1.5705e-11
1.68458e-11
2.19155e-11
4.27571e-12
5.37577e-12
7.50794e-12
1.18174e-11
1.36031e-12
1.32434e-12
1.53066e-12
2.20985e-12
5.08393e-13
4.36963e-13
4.0431e-13
4.41961e-13
1.6007e-13
1.34064e-13
1.16546e-13
1.10066e-13
4.08203e-14
3.42538e-14
3.05379e-14
2.956e-14
1.00779e-14
9.58214e-15
1.02262e-14
1.19838e-14
4.57348e-15
5.73481e-15
7.59461e-15
1.02964e-14
4.3656e-15
6.09484e-15
8.5077e-15
1.1843e-14
4.96811e-15
7.06916e-15
9.99641e-15
1.40138e-14
5.58073e-15
8.03539e-15
1.15042e-14
1.63491e-14
5.96521e-15
8.72719e-15
1.27241e-14
1.84986e-14
5.87562e-15
8.77028e-15
1.3113e-14
1.97119e-14
5.10531e-15
7.80188e-15
1.20645e-14
1.90578e-14
3.72897e-15
5.86622e-15
9.5203e-15
1.62064e-14
2.1852e-15
3.58466e-15
6.2813e-15
1.19587e-14
9.78006e-16
1.72112e-15
3.41313e-15
7.56394e-15
3.0966e-16
6.17422e-16
1.46822e-15
3.8789e-15
6.18044e-17
1.53223e-16
4.56998e-16
1.45048e-15
6.86902e-18
2.39991e-17
9.13734e-17
3.61924e-16
3.36862e-19
1.83246e-18
9.24617e-18
5.35496e-17
8.91062e-22
1.23004e-20
1.67799e-19
3.15504e-18
0.99898
0.998773
0.998104
0.945976
0.419235
0.456239
0.560301
0.753446
0.76933
0.589251
0.488695
0.471387
0.454989
0.413852
0.339053
0.359628
0.422094
0.479183
0.392018
0.998816
0.997697
0.979488
0.820115
0.320495
0.244365
0.28626
0.299136
0.361374
0.464142
0.488105
0.426064
0.262021
0.162195
0.147855
0.139661
0.0967388
0.09747
0.0880031
0.997396
0.869925
0.496078
0.302652
0.128205
0.185617
0.205678
0.0368412
0.0757032
0.265528
0.279651
0.164571
0.151497
0.152358
0.150991
0.201505
0.202098
0.105813
0.087149
0.701739
0.191382
0.024937
0.0192747
0.0234511
0.107578
0.0939821
0.0281509
0.0276641
0.0609504
0.146982
0.200252
0.200277
0.198415
0.201309
0.202097
0.202128
0.107098
0.087149
0.00432162
0.018764
0.0100958
0.0121244
0.0174902
0.0266691
0.0279031
0.0276641
0.0265582
0.0258051
0.0373456
0.120611
0.158392
0.125896
0.111078
0.146682
0.202102
0.184678
0.143869
0.00435861
0.00363267
0.00510308
0.00976926
0.0297442
0.0303548
0.027678
0.0278063
0.0285576
0.0244092
0.0228405
0.00789531
0.00184857
0.00184371
0.00198672
0.00366
0.0392807
0.0804795
0.0780645
0.00110215
0.00208949
0.0256342
0.0411604
0.041226
0.0412072
0.0412541
0.0410376
0.0410333
0.0410271
0.0272663
0.0190878
0.00602699
0.00192516
0.00188915
0.000775836
0.00042942
0.00511669
0.00346468
0.000895605
0.0148323
0.0411749
0.041288
0.0412766
0.0414586
0.041459
0.0414644
0.033323
0.0182573
0.00890033
0.00286157
0.00233088
0.0040907
0.00478196
0.00124034
0.000107721
0.000112135
0.000117974
0.00529713
0.0381861
0.0396693
0.0363986
0.0079379
0.00423364
0.00345206
0.00124961
0.00013414
1.15587e-05
1.76368e-05
2.37294e-05
2.37294e-05
4.00638e-05
0.000932036
0.000763922
9.83313e-05
0.000108431
0.000121706
0.00663881
0.0323384
0.0291701
0.00315532
4.9325e-05
1.59611e-05
2.15698e-05
1.38183e-05
1.35766e-05
1.15587e-05
2.02943e-05
5.67056e-05
6.17744e-05
4.34201e-05
8.02275e-05
0.000315001
8.68564e-05
8.72047e-05
8.79909e-05
0.00580238
0.00620159
0.00251058
4.83062e-05
9.28516e-06
5.92275e-06
3.55287e-05
7.29433e-05
6.71168e-05
3.76964e-05
0.00019588
0.000264845
0.000263526
0.000133878
7.35302e-05
7.35302e-05
8.56464e-05
8.70403e-05
9.28361e-05
0.00176637
0.000223517
5.30139e-05
9.74636e-06
5.48262e-06
5.07487e-06
5.86419e-06
1.98034e-05
4.8675e-05
0.000180105
0.000265866
0.00026544
0.000264845
0.000263418
0.000169608
7.89602e-05
8.24605e-05
0.00014471
0.00017377
6.37539e-05
4.58862e-05
1.23944e-05
5.54321e-06
5.06574e-06
5.01814e-06
5.06167e-06
5.19354e-06
1.50623e-05
0.000221489
0.00026566
0.000264845
0.000259731
0.000260805
0.000250641
8.82653e-05
9.48056e-05
0.000172564
0.00017377
1.21784e-05
1.17402e-05
6.88599e-06
5.06464e-06
5.0325e-06
5.03255e-06
5.01923e-06
5.05547e-06
5.78582e-05
0.000264438
0.000266378
0.000231146
3.35625e-05
2.28004e-05
9.58039e-05
0.000134339
0.000127163
7.82133e-05
0.000128473
2.37189e-06
2.68293e-06
1.14716e-05
2.10665e-05
1.94381e-05
5.94133e-06
5.03416e-06
5.04979e-06
8.39549e-05
0.000262842
0.000253812
1.99791e-05
1.04666e-08
3.50133e-07
1.60889e-05
3.55914e-05
1.75743e-05
1.83559e-05
3.85381e-05
3.12135e-07
7.70188e-07
1.30089e-05
2.7783e-05
2.78517e-05
2.7033e-05
5.05019e-06
5.16122e-06
3.97251e-05
0.00025185
0.000124804
9.7067e-09
9.68925e-09
9.9153e-09
8.91238e-09
7.13787e-08
1.43266e-07
3.21863e-05
0.000123925
3.82257e-08
1.8192e-07
1.04558e-05
2.78517e-05
2.78968e-05
2.78923e-05
2.54889e-05
7.09976e-06
4.24765e-05
4.41912e-05
9.70736e-09
9.68651e-09
9.70677e-09
8.91198e-09
3.20744e-09
7.63488e-09
3.70161e-06
0.000109341
0.000123925
4.31788e-09
2.04772e-08
3.82803e-06
2.56271e-05
2.78927e-05
2.78945e-05
2.78927e-05
2.78093e-05
1.15635e-05
2.25349e-07
2.19472e-07
1.64919e-07
2.35336e-07
9.9246e-08
7.84479e-10
7.24044e-10
5.21416e-06
0.000123674
0.000123891
5.13952e-10
4.19622e-09
1.43421e-07
3.15125e-06
1.19355e-05
2.04097e-05
2.53586e-05
1.73052e-05
1.39817e-06
3.99789e-07
4.77657e-07
1.34261e-06
1.3832e-06
8.33988e-07
7.23031e-10
6.66694e-10
5.8087e-10
5.57306e-05
0.000123674
6.43317e-11
2.6563e-10
1.88518e-09
1.62534e-08
4.02139e-08
7.22466e-07
1.93631e-06
4.58093e-07
1.29843e-06
4.36998e-07
3.96293e-07
1.38202e-06
1.3832e-06
3.70945e-07
7.85157e-10
1.91702e-09
5.86359e-10
5.92122e-10
0.000123729
2.26681e-11
2.82092e-11
1.38698e-10
1.15851e-09
2.87381e-09
5.1116e-09
6.97699e-09
2.81764e-09
7.63624e-07
7.8979e-07
4.36321e-07
4.03077e-07
3.39067e-07
4.303e-08
3.19005e-09
3.47215e-09
5.70686e-10
5.32702e-10
5.94991e-05
2.01181e-11
1.23666e-11
2.3304e-11
1.13407e-10
2.02898e-10
3.59503e-10
4.61163e-10
2.11957e-10
1.003e-07
7.89791e-07
7.87521e-07
8.59938e-08
4.2612e-09
3.94306e-09
4.00039e-09
2.46378e-09
3.50965e-10
3.99926e-10
1.2262e-08
4.17258e-12
8.65204e-12
8.78049e-12
1.88659e-11
3.04761e-11
4.67059e-11
5.39267e-11
3.83867e-11
2.10871e-10
2.22267e-07
5.74274e-07
3.72392e-07
4.54535e-08
1.90564e-09
1.83344e-09
8.09149e-10
3.32548e-10
3.48595e-10
1.16688e-07
7.27378e-13
1.95284e-12
6.04053e-12
7.97258e-12
1.20293e-11
1.95247e-11
2.55705e-11
2.65654e-11
3.81144e-11
2.37069e-10
3.18825e-08
2.21032e-07
2.17409e-07
4.82208e-08
3.89688e-10
3.37152e-10
3.24713e-10
1.65152e-06
3.01361e-05
1.44915e-13
3.90262e-13
1.37079e-12
4.65431e-12
9.49834e-12
1.65953e-11
2.17137e-11
2.28426e-11
2.6244e-11
3.85064e-11
9.21201e-11
1.02799e-08
4.31665e-08
3.05123e-08
6.2093e-09
3.22295e-10
3.14216e-10
1.69679e-05
6.65926e-05
4.41474e-14
1.10761e-13
3.59778e-13
1.2682e-12
3.00062e-12
6.20694e-12
1.03381e-11
1.44603e-11
2.31773e-11
2.69624e-11
3.68822e-11
5.70164e-11
8.72349e-11
8.54389e-10
4.6703e-10
3.11629e-10
3.07977e-10
2.7343e-05
6.65926e-05
2.76684e-14
7.1737e-14
1.9501e-13
5.56178e-13
1.38741e-12
3.06658e-12
5.94598e-12
1.02663e-11
1.81581e-11
3.08546e-11
3.58959e-11
4.21357e-11
6.57536e-11
1.18727e-10
3.06192e-10
2.99258e-10
3.02468e-10
2.0498e-05
6.66544e-05
2.8736e-14
7.53502e-14
1.90425e-13
4.69957e-13
1.09729e-12
2.36707e-12
4.69544e-12
8.60363e-12
1.53484e-11
2.60765e-11
3.95708e-11
6.14885e-11
9.34912e-11
1.43159e-10
2.9065e-10
2.92285e-10
2.96473e-10
1.46024e-05
6.67633e-05
3.40838e-14
8.92901e-14
2.20342e-13
5.17659e-13
1.1466e-12
2.3672e-12
4.55441e-12
8.23724e-12
1.4381e-11
2.42078e-11
3.88111e-11
6.11838e-11
9.13823e-11
1.3955e-10
3.51431e-10
3.03515e-10
3.02468e-10
2.77539e-05
6.68103e-05
4.16617e-14
1.09953e-13
2.6684e-13
6.0826e-13
1.3e-12
2.58842e-12
4.81419e-12
8.46838e-12
1.4379e-11
2.37634e-11
3.81623e-11
5.98881e-11
8.61474e-11
1.47287e-10
7.05602e-10
5.96438e-10
3.08224e-10
3.73967e-05
6.68103e-05
5.26761e-14
1.42499e-13
3.38094e-13
7.3957e-13
1.51571e-12
2.90445e-12
5.21445e-12
8.88222e-12
1.46195e-11
2.35991e-11
3.7698e-11
6.14422e-11
9.32754e-11
2.81986e-10
1.29754e-09
9.03778e-10
3.20647e-10
3.65558e-05
6.68103e-05
7.02479e-14
2.00958e-13
4.66599e-13
9.6783e-13
1.87577e-12
3.42314e-12
5.88586e-12
9.62446e-12
1.52225e-11
2.39114e-11
3.89975e-11
7.35365e-11
1.29237e-10
7.11776e-10
1.56846e-09
9.14999e-10
3.42483e-10
4.01173e-05
5.50647e-05
9.71582e-14
3.03909e-13
7.09612e-13
1.42509e-12
2.63581e-12
4.57658e-12
7.50211e-12
1.17113e-11
1.77264e-11
2.72292e-11
4.97353e-11
9.76781e-11
1.83627e-10
1.47573e-09
2.19095e-09
9.22974e-10
9.13737e-06
4.30632e-05
3.17329e-05
1.28264e-13
4.48887e-13
1.10542e-12
2.26281e-12
4.12992e-12
6.90092e-12
1.07772e-11
1.60432e-11
2.32343e-11
3.44212e-11
6.52852e-11
1.12311e-10
2.7089e-10
2.2785e-09
2.55189e-09
9.65979e-10
7.90337e-07
4.31173e-05
3.68295e-05
1.48025e-13
5.81394e-13
1.58115e-12
3.51391e-12
6.63958e-12
1.08684e-11
1.59838e-11
2.23554e-11
3.20397e-11
4.72308e-11
8.4281e-11
1.58271e-10
5.62795e-10
2.61285e-09
2.67893e-09
9.88711e-10
1.03627e-09
2.59631e-05
1.87223e-05
1.42228e-13
6.16702e-13
1.91854e-12
4.91705e-12
1.03322e-11
1.74264e-11
2.48258e-11
3.22826e-11
4.56589e-11
7.82063e-11
2.28265e-10
5.65081e-10
1.30467e-09
2.58177e-09
1.99289e-09
9.23815e-10
8.10871e-08
3.79741e-07
9.92383e-08
1.09612e-13
5.23732e-13
1.93128e-12
5.96011e-12
1.51383e-11
2.89914e-11
4.35967e-11
5.53985e-11
6.93719e-11
1.68652e-10
6.94482e-10
1.41171e-09
1.57776e-09
1.54593e-09
9.02877e-10
9.14553e-10
9.25336e-10
3.54868e-09
4.57728e-08
6.3876e-14
3.49641e-13
1.58374e-12
6.03963e-12
1.90115e-11
4.42385e-11
7.37999e-11
9.75534e-11
1.14279e-10
2.70198e-10
8.50995e-10
1.29891e-09
1.13854e-09
8.49847e-10
8.82252e-10
3.36894e-07
1.58969e-06
2.18628e-07
5.5297e-08
2.58465e-14
1.76156e-13
9.96713e-13
4.70385e-12
1.88025e-11
5.03229e-11
1.00978e-10
1.45068e-10
1.79502e-10
2.75887e-10
6.47974e-10
5.71664e-10
3.49135e-10
3.74359e-09
5.25484e-07
3.21954e-06
3.38127e-06
8.59736e-07
5.18024e-08
6.86711e-15
6.64383e-14
5.12042e-13
2.90314e-12
1.42388e-11
4.25984e-11
9.97706e-11
1.75872e-10
2.13371e-10
2.88717e-10
3.43385e-10
3.41045e-10
3.41304e-10
4.11258e-07
3.28278e-06
3.38127e-06
3.38504e-06
1.40347e-06
4.30135e-08
1.12802e-15
1.8201e-14
1.98651e-13
1.44629e-12
7.97755e-12
2.58951e-11
7.69471e-11
1.88332e-10
4.03845e-10
3.69108e-10
3.56371e-10
5.65142e-10
3.39317e-10
1.94759e-07
3.14261e-06
3.38392e-06
3.38141e-06
1.10647e-06
3.74365e-08
9.72837e-17
3.00007e-15
4.72242e-14
4.45973e-13
3.42017e-12
1.30022e-11
5.96429e-11
1.66467e-10
5.04336e-10
6.48961e-10
7.00925e-10
2.10686e-09
1.74631e-09
5.56422e-09
4.17316e-07
1.81461e-06
1.43705e-06
1.91971e-07
3.74354e-08
)
;

boundaryField
{
    leftWall
    {
        type            zeroGradient;
    }
    rightWall
    {
        type            zeroGradient;
    }
    lowerWall
    {
        type            zeroGradient;
    }
    atmosphere
    {
        type            inletOutlet;
        inletValue      uniform 0;
        value           nonuniform List<scalar> 
46
(
0
0
0
0
0
0
0
0
0
0
0
0
0
0
0
0
0
0
0
0
0
0
0
0
0
0
0
0
0
0
0
3.42017e-12
1.30022e-11
5.96429e-11
1.66467e-10
5.04336e-10
6.48961e-10
7.00925e-10
2.10686e-09
1.74631e-09
5.56422e-09
4.17316e-07
1.81461e-06
1.43705e-06
1.91971e-07
3.74354e-08
)
;
    }
    defaultFaces
    {
        type            empty;
    }
}


// ************************************************************************* //
