/*--------------------------------*- C++ -*----------------------------------*\
| =========                 |                                                 |
| \\      /  F ield         | OpenFOAM: The Open Source CFD Toolbox           |
|  \\    /   O peration     | Version:  2.3.0                                 |
|   \\  /    A nd           | Web:      www.OpenFOAM.org                      |
|    \\/     M anipulation  |                                                 |
\*---------------------------------------------------------------------------*/
FoamFile
{
    version     2.0;
    format      ascii;
    class       volScalarField;
    location    "1.6";
    object      k;
}
// * * * * * * * * * * * * * * * * * * * * * * * * * * * * * * * * * * * * * //

dimensions      [0 2 -2 0 0 0 0];

internalField   nonuniform List<scalar> 
2268
(
0.00254817
0.00658232
0.0103151
0.0132063
0.015422
0.0172014
0.0186731
0.0199124
0.0209493
0.0217882
0.0224234
0.0228457
0.0230444
0.0230037
0.0226887
0.0220088
0.0210818
0.0200344
0.0188714
0.0174892
0.0154002
0.0116223
0.00467777
0.00474806
0.0149225
0.0225959
0.0285085
0.0331754
0.0369184
0.0399785
0.0425047
0.0445652
0.0461844
0.0473705
0.0481276
0.0484581
0.0483602
0.0478183
0.0467908
0.0452072
0.0434094
0.0415335
0.0393328
0.0356747
0.0285764
0.0127448
0.00674795
0.0199931
0.0294673
0.0368856
0.0427899
0.0475563
0.0514708
0.0547049
0.0573354
0.0593926
0.0608931
0.0618525
0.0622862
0.0622085
0.0616285
0.0605527
0.058991
0.0571853
0.055227
0.0528031
0.0485609
0.0399932
0.019184
0.00887164
0.0244314
0.035256
0.0436987
0.0504438
0.055924
0.0604534
0.0642072
0.0672565
0.0696302
0.0713523
0.0724509
0.0729576
0.0729049
0.0723275
0.0712686
0.0697769
0.0680571
0.0661488
0.0636938
0.0592526
0.0500324
0.0251729
0.0110376
0.0288639
0.0408361
0.0500822
0.057482
0.0635335
0.0685719
0.0727638
0.0761637
0.0787942
0.080687
0.0818865
0.0824435
0.0824117
0.0818492
0.0808264
0.0794119
0.0777904
0.0759765
0.0735978
0.0692333
0.059932
0.0313023
0.0133378
0.0334246
0.046418
0.056341
0.0642928
0.07084
0.0763337
0.0809223
0.0846338
0.0874802
0.0895038
0.0907708
0.0913563
0.0913376
0.090795
0.0898197
0.0884994
0.0869881
0.0853212
0.0831434
0.0791648
0.0703998
0.0380642
0.0156787
0.0380997
0.052014
0.0625408
0.0709935
0.0780025
0.08393
0.0888967
0.0928944
0.0959211
0.098035
0.0993328
0.0999214
0.0999048
0.099385
0.0984703
0.0972719
0.0959006
0.0944591
0.0926418
0.0894213
0.0819558
0.0462011
0.0181034
0.0428141
0.0575699
0.0686713
0.0776151
0.0850842
0.0914476
0.0967896
0.101055
0.104224
0.106378
0.10766
0.108218
0.108188
0.107693
0.106856
0.105801
0.10464
0.103537
0.102265
0.10017
0.0950395
0.0596277
0.0061435
0.0174597
0.0274575
0.0323414
0.0349337
0.035264
0.0336546
0.031013
0.0278957
0.024432
0.0212894
0.0196286
0.0191753
0.0181013
0.0166001
0.0144209
0.0114116
0.00834751
0.00536133
0.0120323
0.039889
0.0593267
0.068796
0.073049
0.0731716
0.0700583
0.0653336
0.0593681
0.0523984
0.0467203
0.0446414
0.0440324
0.0415551
0.0378471
0.032909
0.0265144
0.0194054
0.00939455
0.0160131
0.0555653
0.079703
0.0911953
0.0954717
0.0945393
0.0899206
0.0837687
0.0767876
0.0691938
0.0626335
0.0594999
0.0580075
0.054734
0.049802
0.0434543
0.035578
0.0264463
0.0123128
0.0218358
0.0718407
0.0996735
0.112191
0.115649
0.112709
0.105879
0.0979794
0.0898585
0.0819125
0.0750996
0.0708078
0.0685104
0.0646619
0.0589842
0.0517643
0.0429951
0.0324621
0.0149089
0.0305142
0.0906029
0.121191
0.134654
0.13698
0.131035
0.120999
0.110668
0.101145
0.0929433
0.0860199
0.0806231
0.0773174
0.0729623
0.0667781
0.0590985
0.0497439
0.0381568
0.0174419
0.0462501
0.110459
0.143131
0.158426
0.160362
0.150642
0.136209
0.122763
0.111685
0.103049
0.0959663
0.089712
0.0851766
0.0802583
0.0737258
0.0657726
0.0561336
0.0438174
0.0203218
0.0716452
0.131086
0.164806
0.181469
0.18493
0.171304
0.151758
0.13486
0.121965
0.11251
0.105096
0.0982823
0.0924856
0.0869328
0.0801336
0.0720059
0.0622282
0.0494918
0.0239803
0.103998
0.154425
0.187386
0.203116
0.207489
0.19193
0.167706
0.147255
0.132173
0.121453
0.113481
0.106357
0.0995423
0.0932259
0.0861842
0.0779292
0.0680962
0.0552067
0.0281666
0.0214749
0.0498415
0.0658947
0.0778909
0.0876053
0.0957929
0.102827
0.108728
0.113356
0.116659
0.118775
0.119946
0.120409
0.12036
0.119962
0.119363
0.118713
0.118098
0.117748
0.117608
0.117514
0.116352
0.101687
0.0260763
0.0588535
0.0768346
0.0903233
0.101327
0.110677
0.118774
0.125512
0.130558
0.13375
0.135375
0.135954
0.13594
0.135645
0.135277
0.135017
0.135058
0.135554
0.136461
0.138012
0.14032
0.143812
0.148706
0.0300534
0.067269
0.0879502
0.103444
0.116067
0.12682
0.136193
0.143955
0.149414
0.152052
0.152407
0.151624
0.150551
0.149627
0.14908
0.149103
0.14995
0.15184
0.154772
0.158754
0.164571
0.17347
0.187277
0.034542
0.077017
0.101222
0.118898
0.13316
0.145419
0.156313
0.165553
0.171782
0.173311
0.171048
0.167658
0.164699
0.162651
0.161641
0.161832
0.163611
0.167291
0.172828
0.18029
0.190604
0.205933
0.228927
0.0455209
0.088614
0.116726
0.136925
0.151754
0.163737
0.176025
0.189089
0.199524
0.200081
0.192669
0.184645
0.178799
0.175153
0.173434
0.173626
0.176469
0.182592
0.191501
0.202906
0.218648
0.242033
0.276601
0.0402026
0.0876079
0.116595
0.139808
0.157004
0.168301
0.179151
0.193042
0.207813
0.219072
0.213139
0.200431
0.191239
0.185748
0.183176
0.183443
0.187346
0.19618
0.208891
0.224545
0.245886
0.279052
0.329335
0.033055
0.0741155
0.105087
0.131523
0.151379
0.165607
0.178358
0.19195
0.20694
0.221833
0.222693
0.211948
0.201957
0.195176
0.191792
0.192402
0.197485
0.206786
0.219672
0.237091
0.262504
0.304382
0.369543
0.0364558
0.072577
0.105012
0.133094
0.153958
0.169866
0.18427
0.197233
0.209853
0.222699
0.226683
0.219985
0.210891
0.203585
0.199405
0.19993
0.206193
0.217088
0.229817
0.246334
0.273657
0.322124
0.394097
0.0474745
0.0884924
0.119747
0.145971
0.164394
0.179072
0.192767
0.203741
0.214706
0.227023
0.23212
0.226808
0.217263
0.209163
0.204799
0.205774
0.213037
0.224812
0.237816
0.253308
0.279341
0.322713
0.380161
0.0568379
0.105912
0.13613
0.158936
0.17408
0.1851
0.195027
0.204882
0.215901
0.2269
0.230316
0.224854
0.216122
0.209095
0.205853
0.207724
0.215219
0.226861
0.240103
0.256579
0.281418
0.317743
0.360466
0.0640826
0.117674
0.143704
0.161642
0.1738
0.182557
0.1908
0.199527
0.208777
0.216428
0.218155
0.21427
0.208593
0.204293
0.203163
0.206268
0.213926
0.225527
0.239997
0.257532
0.280867
0.311251
0.342412
0.0679054
0.122707
0.145502
0.15949
0.169015
0.176282
0.183076
0.189985
0.196637
0.201484
0.202758
0.200998
0.198392
0.196945
0.197991
0.202351
0.210331
0.221761
0.236467
0.254604
0.276623
0.301997
0.326279
0.0678749
0.122858
0.143477
0.154826
0.162344
0.168186
0.173507
0.17863
0.183221
0.186483
0.187853
0.187834
0.18765
0.188501
0.19129
0.196621
0.204813
0.215956
0.230134
0.247499
0.267834
0.289612
0.309806
0.0650314
0.118903
0.138174
0.148056
0.154306
0.159051
0.16321
0.167035
0.170385
0.172967
0.174708
0.175993
0.177513
0.17997
0.183947
0.18989
0.198119
0.208849
0.222239
0.238312
0.256608
0.275686
0.292778
0.0602812
0.111901
0.130291
0.139524
0.145186
0.149338
0.152838
0.155982
0.158803
0.161276
0.163493
0.165729
0.168382
0.171864
0.176555
0.182792
0.190872
0.201038
0.213443
0.228013
0.244195
0.260706
0.275205
0.0544062
0.102884
0.120588
0.129673
0.135266
0.139303
0.14263
0.14561
0.148394
0.151077
0.153787
0.156717
0.160101
0.164192
0.169243
0.175513
0.183254
0.192677
0.203886
0.216748
0.230715
0.244677
0.256785
0.0477534
0.0926421
0.109737
0.118934
0.124778
0.129034
0.132534
0.13569
0.138717
0.141753
0.144923
0.148358
0.152203
0.156616
0.161774
0.16787
0.175098
0.183615
0.193469
0.204496
0.216215
0.227707
0.237581
0.0415728
0.0816971
0.0982399
0.107651
0.113888
0.118534
0.12239
0.125891
0.129278
0.132698
0.136258
0.14005
0.144166
0.148707
0.153796
0.159571
0.166168
0.173689
0.182136
0.191351
0.200938
0.210177
0.218052
0.0357057
0.0708681
0.0864768
0.0960905
0.102736
0.107813
0.112081
0.115969
0.119724
0.123488
0.12735
0.131376
0.135624
0.140162
0.145069
0.150441
0.156365
0.162897
0.170016
0.177583
0.185299
0.192621
0.198828
0.0296003
0.060172
0.0747953
0.0844865
0.0914834
0.0969587
0.101613
0.105858
0.10993
0.113963
0.118033
0.122188
0.126468
0.130916
0.135583
0.140529
0.145808
0.151444
0.157408
0.16359
0.169773
0.175584
0.180502
0.0236531
0.0491898
0.0632943
0.0730434
0.0803567
0.0861733
0.0911579
0.0956952
0.100008
0.104223
0.108411
0.11261
0.116848
0.121154
0.12556
0.130102
0.134809
0.139692
0.144722
0.149816
0.154825
0.159525
0.163527
0.0184755
0.0391717
0.0525718
0.0622395
0.0697206
0.0757975
0.0810434
0.0857949
0.0902623
0.0945736
0.0987979
0.102971
0.107114
0.111247
0.115394
0.119574
0.123804
0.128087
0.132402
0.136694
0.140867
0.144784
0.148182
0.0142372
0.0316526
0.043784
0.0529805
0.0603052
0.0664319
0.0717615
0.0765932
0.0811122
0.0854321
0.0896224
0.0937106
0.0977157
0.101658
0.105553
0.109416
0.113257
0.117077
0.120863
0.124583
0.12818
0.131567
0.134598
0.0114414
0.0269826
0.0375842
0.0459049
0.0527477
0.0586304
0.0638425
0.0685993
0.0730449
0.077272
0.0813376
0.0852743
0.0891013
0.0928342
0.0964859
0.100067
0.103587
0.107048
0.110443
0.113758
0.116962
0.120002
0.122801
0.0100705
0.0243768
0.033646
0.0410119
0.0472166
0.0526603
0.0575819
0.0621214
0.066379
0.0704229
0.0742978
0.078032
0.0816439
0.0851473
0.0885536
0.0918724
0.0951117
0.0982766
0.101368
0.104381
0.107301
0.1101
0.112734
0.00959176
0.0228939
0.0311919
0.0377829
0.0433979
0.0483963
0.0529654
0.0572142
0.0612157
0.0650194
0.068659
0.0721572
0.0755304
0.078791
0.0819499
0.0850166
0.0879997
0.0909066
0.0937426
0.0965099
0.0992046
0.101813
0.104307
0.00939272
0.021951
0.029591
0.0356445
0.0408399
0.0454821
0.0497378
0.0537048
0.0574449
0.0609985
0.064393
0.0676478
0.0707779
0.0737953
0.076711
0.0795351
0.0822774
0.0849474
0.0875534
0.0901022
0.0925964
0.0950317
0.0973924
0.00927757
0.0213279
0.0285546
0.0342578
0.0391672
0.043559
0.0475813
0.0513233
0.0548415
0.0581732
0.0613439
0.0643727
0.0672745
0.0700622
0.0727479
0.075343
0.0778588
0.0803064
0.0826967
0.0850393
0.087341
0.0896035
0.0918191
0.00921923
0.020943
0.0279265
0.0334162
0.0381465
0.0423783
0.0462447
0.0498262
0.0531756
0.0563289
0.0593123
0.0621457
0.0648457
0.067427
0.069903
0.072287
0.074592
0.0768309
0.0790163
0.0811598
0.0832712
0.0853559
0.0874119
0.00922988
0.0207974
0.0276644
0.0330435
0.0376755
0.0418133
0.0455803
0.049051
0.0522753
0.0552891
0.0581196
0.0607887
0.0633147
0.0657143
0.0680029
0.0701954
0.0723064
0.0743504
0.0763414
0.0782927
0.0802157
0.0821186
0.0840036
0.00933766
0.0209333
0.0277961
0.0331482
0.0377418
0.0418289
0.0455301
0.0489176
0.0520415
0.0549388
0.0576387
0.0601649
0.0625378
0.0647756
0.0668954
0.0689134
0.0708458
0.0727079
0.074515
0.0762812
0.0780194
0.0797395
0.0814467
0.00958596
0.0214266
0.0283972
0.0337939
0.0383923
0.042452
0.0460984
0.0494084
0.0524358
0.0552211
0.0577963
0.0601874
0.0624165
0.0645033
0.0664659
0.0683214
0.0700865
0.0717773
0.0734096
0.074998
0.0765561
0.0780949
0.0796218
0.010035
0.0223841
0.0295793
0.0350821
0.0397114
0.043747
0.0473293
0.0505467
0.0534619
0.0561217
0.0585623
0.0608122
0.0628952
0.0648318
0.0666404
0.0683385
0.0699426
0.071469
0.0729332
0.0743499
0.0757328
0.0770935
0.0784405
0.0107594
0.0239371
0.0314812
0.0371404
0.0418075
0.0458008
0.0492883
0.0523788
0.055149
0.0576547
0.0599372
0.0620281
0.0639521
0.0657302
0.0673805
0.0689198
0.0703641
0.0717289
0.0730289
0.0742785
0.0754906
0.0766768
0.0778458
0.0118453
0.0262408
0.0342662
0.0401159
0.0448023
0.0487091
0.0520488
0.0549599
0.0575377
0.0598487
0.0619399
0.0638452
0.06559
0.0671947
0.0686763
0.0700504
0.0713317
0.0725342
0.0736715
0.0747566
0.0758015
0.0768169
0.0778109
0.0133942
0.0294841
0.0381258
0.0441694
0.0488189
0.0525629
0.0556782
0.0583414
0.0606686
0.062737
0.064598
0.0662868
0.0678281
0.0692408
0.0705401
0.0717395
0.0728518
0.073889
0.0748631
0.0757852
0.0766658
0.0775142
0.078337
0.0155472
0.0339148
0.0432836
0.0494631
0.0539638
0.0574304
0.0602227
0.0625584
0.0645724
0.0663489
0.0679411
0.0693827
0.0706964
0.0718983
0.073001
0.0740155
0.0749519
0.0758201
0.0766298
0.07739
0.0781094
0.0787951
0.0794518
0.0185506
0.0398863
0.0499953
0.0561375
0.0602995
0.063335
0.0656915
0.0676192
0.0692623
0.0707046
0.0719957
0.0731651
0.0742316
0.0752073
0.0761017
0.0769228
0.0776778
0.0783741
0.079019
0.0796195
0.0801817
0.0807105
0.0812083
0.0229487
0.0479446
0.0585388
0.0642697
0.0678095
0.0702328
0.0720445
0.0734993
0.0747313
0.0758131
0.0767845
0.0776679
0.0784761
0.0792172
0.0798969
0.0805201
0.0810914
0.0816158
0.0820981
0.0825429
0.0829544
0.0833351
0.0836851
0.0302057
0.0589765
0.069145
0.073792
0.0763522
0.0779963
0.0791915
0.0801454
0.0809574
0.081677
0.0823295
0.0829279
0.0834788
0.0839862
0.0844524
0.0848798
0.0852706
0.0856275
0.0859532
0.0862504
0.0865213
0.0867667
0.0869849
0.0448493
0.0743733
0.0817147
0.0843289
0.0856142
0.086416
0.0870067
0.0874916
0.0879163
0.0883019
0.0886583
0.0889897
0.089298
0.0895836
0.089847
0.0900884
0.0903086
0.0905086
0.0906894
0.0908522
0.0909978
0.0911261
0.091235
0.0865317
0.0942828
0.0948172
0.0949819
0.0951191
0.0952492
0.0953728
0.0954904
0.095603
0.095711
0.0958145
0.095913
0.096006
0.0960931
0.0961737
0.0962478
0.0963152
0.096376
0.0964305
0.0964789
0.0965213
0.0965574
0.0965865
0.0921568
0.0859933
0.0855303
0.0941603
0.155014
0.16244
0.173258
0.187951
0.202706
0.216694
0.233154
0.251865
0.252619
0.272661
0.295339
0.319912
0.311589
0.34104
0.37428
0.408943
0.379972
0.424538
0.478153
0.520547
0.428619
0.467372
0.500421
0.517879
0.439784
0.458585
0.467563
0.46912
0.412737
0.424564
0.427818
0.425105
0.382286
0.389747
0.391643
0.389581
0.357931
0.363623
0.36525
0.36358
0.33884
0.343635
0.34494
0.343305
0.320203
0.324279
0.325617
0.324538
0.301509
0.305053
0.306459
0.3058
0.282646
0.28576
0.287107
0.286691
0.263051
0.265741
0.266997
0.26681
0.242726
0.244995
0.246142
0.246149
0.222184
0.224056
0.225076
0.225217
0.202112
0.203642
0.204541
0.204777
0.183145
0.184419
0.185231
0.185551
0.165737
0.16685
0.167627
0.168042
0.150137
0.151172
0.151963
0.152487
0.136426
0.137441
0.138279
0.13892
0.124571
0.125597
0.126496
0.127249
0.114475
0.115522
0.116477
0.117324
0.106018
0.107075
0.108065
0.108977
0.0990486
0.100094
0.101093
0.102036
0.093397
0.0944093
0.0953895
0.0963303
0.0888919
0.0898494
0.0907881
0.0916997
0.0853707
0.0862602
0.0871377
0.0879983
0.0826907
0.0835026
0.0843068
0.0851005
0.0807367
0.0814652
0.0821886
0.0829047
0.0794236
0.0800656
0.0807037
0.0813365
0.0786965
0.0792507
0.0798012
0.0803467
0.07853
0.0789963
0.0794583
0.079915
0.0789263
0.0793058
0.0796796
0.0800468
0.0799147
0.0802095
0.0804967
0.0807752
0.0815508
0.0817649
0.0819693
0.0821624
0.0839167
0.0840571
0.0841859
0.084301
0.0871207
0.0871986
0.0872645
0.0873154
0.0912965
0.0913282
0.09135
0.0913591
0.0966007
0.0966067
0.0966088
0.0966056
0.138999
0.188604
0.220914
0.235351
0.238302
0.222277
0.19262
0.167128
0.148115
0.134704
0.125469
0.117957
0.110334
0.102832
0.0952609
0.0868099
0.0768629
0.0638329
0.0342398
0.218438
0.253442
0.277007
0.282205
0.273185
0.250945
0.219042
0.192853
0.168974
0.150139
0.138079
0.12964
0.122312
0.114641
0.106713
0.0978664
0.0864853
0.0735728
0.0423855
0.285686
0.32105
0.341329
0.332641
0.305733
0.273536
0.237539
0.212184
0.187084
0.162754
0.147323
0.137678
0.13063
0.122895
0.114935
0.105393
0.0909955
0.0747579
0.0431678
0.362179
0.400313
0.42052
0.385307
0.333154
0.293951
0.251227
0.219665
0.195616
0.172561
0.154762
0.143093
0.134673
0.125916
0.117132
0.106649
0.0889275
0.0699269
0.0386303
0.462173
0.489906
0.469629
0.402345
0.35161
0.308322
0.260876
0.227438
0.201197
0.178732
0.161123
0.14772
0.137484
0.127578
0.117809
0.106071
0.0847028
0.0617469
0.032617
0.545762
0.516714
0.447535
0.389647
0.345453
0.303259
0.262457
0.233491
0.207759
0.183467
0.164573
0.151296
0.140945
0.130422
0.121208
0.112221
0.0853544
0.0567529
0.0274681
0.516713
0.466017
0.410766
0.364576
0.324418
0.286653
0.253873
0.228737
0.205948
0.183967
0.165441
0.15073
0.139516
0.130019
0.123514
0.118312
0.0992475
0.0623595
0.0255763
0.459818
0.419938
0.377863
0.338706
0.30227
0.268751
0.240428
0.217724
0.197918
0.179525
0.162915
0.148345
0.136379
0.126463
0.119154
0.112441
0.0997889
0.0705503
0.030678
0.414739
0.384432
0.349902
0.315628
0.283166
0.253801
0.228812
0.208486
0.19071
0.173986
0.158315
0.143983
0.131811
0.121144
0.112289
0.106069
0.094487
0.0728545
0.0356435
0.381473
0.357131
0.327525
0.296796
0.26754
0.241222
0.218251
0.198736
0.181446
0.165564
0.151034
0.137603
0.12554
0.114085
0.103928
0.0966175
0.0868037
0.0662837
0.0299252
0.356674
0.336154
0.310136
0.282806
0.255998
0.231389
0.209399
0.19001
0.172767
0.157326
0.143357
0.130182
0.117648
0.105646
0.0945251
0.0850239
0.0743958
0.0548611
0.0233921
0.33719
0.319179
0.29595
0.271112
0.246472
0.223571
0.202792
0.184111
0.167261
0.152062
0.138058
0.124583
0.111316
0.0982802
0.0857719
0.0741321
0.0617659
0.0436026
0.0179128
0.319419
0.303234
0.282402
0.259937
0.237616
0.216584
0.197298
0.179708
0.163553
0.148727
0.134912
0.121421
0.107672
0.0936163
0.0797098
0.0665929
0.0534985
0.037376
0.0165537
0.301608
0.287464
0.269096
0.249021
0.228816
0.209573
0.1918
0.175459
0.160293
0.146188
0.132936
0.119783
0.105976
0.0915305
0.0771107
0.0635161
0.0505843
0.0363453
0.0178872
0.283365
0.271522
0.25554
0.23767
0.219433
0.201918
0.18566
0.170676
0.156736
0.14366
0.131199
0.11856
0.105065
0.0910793
0.0772761
0.064246
0.0520502
0.0389203
0.020347
0.264331
0.25466
0.241008
0.225319
0.209072
0.193338
0.178662
0.165127
0.152555
0.140689
0.129108
0.117087
0.104386
0.0915139
0.0790167
0.0672857
0.0561987
0.0436419
0.0230439
0.244396
0.236712
0.225333
0.211874
0.19771
0.183864
0.170871
0.158852
0.147683
0.13705
0.126413
0.115283
0.103786
0.0923532
0.0814011
0.0711453
0.061207
0.0489994
0.0255895
0.224051
0.218125
0.208917
0.197697
0.18567
0.173791
0.162551
0.152082
0.142293
0.132845
0.123274
0.113338
0.103222
0.0932826
0.0838218
0.0748891
0.0658923
0.0539548
0.0278459
0.204082
0.199675
0.192469
0.183412
0.173513
0.163609
0.154107
0.145156
0.136696
0.128459
0.120063
0.111419
0.102683
0.0941294
0.0859587
0.0780651
0.0696805
0.0581102
0.0298727
0.185255
0.182148
0.176726
0.169669
0.16181
0.153781
0.145947
0.138455
0.131274
0.124217
0.117039
0.109653
0.10218
0.094822
0.0876833
0.0805428
0.0725481
0.0608786
0.0317497
0.168108
0.166114
0.16224
0.156989
0.150969
0.144659
0.138371
0.132244
0.126272
0.120334
0.114276
0.108037
0.101692
0.0953611
0.0890531
0.0824562
0.0746145
0.0626361
0.0329098
0.152894
0.151854
0.149315
0.145627
0.141207
0.136421
0.131519
0.12663
0.121763
0.116851
0.111797
0.106561
0.10118
0.0957024
0.0900509
0.0838405
0.0760313
0.0636386
0.0332198
0.139643
0.139416
0.138003
0.135623
0.132562
0.129086
0.125394
0.121595
0.117713
0.113712
0.109538
0.10516
0.100588
0.095807
0.0906732
0.0847394
0.0769006
0.0640822
0.0328908
0.128249
0.128695
0.1282
0.12689
0.124953
0.122579
0.119917
0.117057
0.114031
0.110825
0.107408
0.103757
0.0998549
0.0956414
0.090917
0.0851828
0.0772926
0.0641241
0.0323766
0.118548
0.119521
0.119746
0.119287
0.118257
0.116786
0.114982
0.112917
0.110623
0.108099
0.105328
0.102288
0.0989389
0.0951856
0.0907871
0.0852058
0.0772831
0.0639176
0.0319842
0.11036
0.111717
0.11248
0.112671
0.112351
0.111602
0.110497
0.109092
0.107413
0.105467
0.103242
0.100711
0.0978187
0.0944392
0.0903034
0.0848577
0.0769517
0.0635613
0.0317075
0.103509
0.105116
0.106255
0.106919
0.107133
0.106942
0.106393
0.105523
0.104354
0.102891
0.101121
0.099013
0.0964946
0.0934204
0.0895033
0.0841918
0.0763554
0.063053
0.0314215
0.0978305
0.0995717
0.100947
0.101932
0.102527
0.102751
0.102629
0.102182
0.101425
0.100356
0.098961
0.0971982
0.0949846
0.09216
0.0884288
0.0832477
0.0755178
0.0623492
0.031105
0.0931731
0.0949538
0.0964504
0.0976296
0.0984766
0.0989917
0.0991829
0.0990588
0.0986227
0.0978683
0.0967728
0.0952872
0.0933179
0.0906954
0.0871212
0.0820621
0.0744618
0.0614641
0.0307181
0.0894029
0.0911489
0.0926761
0.0939476
0.09494
0.0956414
0.0960473
0.096155
0.0959588
0.0954439
0.09458
0.0933098
0.0915313
0.0890694
0.0856271
0.0806845
0.0732172
0.0604444
0.0302461
0.0864057
0.0880614
0.0895492
0.0908326
0.0918839
0.0926841
0.0932199
0.0934798
0.0934495
0.0931062
0.0924117
0.0913009
0.0896656
0.0873282
0.0839958
0.0791641
0.0718379
0.0593175
0.0297305
0.084089
0.085614
0.0870096
0.088242
0.0892825
0.0901087
0.0907019
0.091044
0.0911135
0.0908803
0.0902986
0.089297
0.0877626
0.0855174
0.0822755
0.0775495
0.0703725
0.0580991
0.0291229
0.0823851
0.0837498
0.0850133
0.0861448
0.0871175
0.0879085
0.0884965
0.0888592
0.0889694
0.0887907
0.0882711
0.0873334
0.085862
0.0836796
0.0805084
0.0758787
0.0688518
0.0568148
0.0283286
0.0812504
0.0824334
0.0835329
0.0845224
0.0853785
0.0860808
0.0866083
0.0869367
0.0870346
0.0868605
0.0863571
0.0854431
0.0840004
0.0818537
0.0787322
0.0741819
0.0672945
0.0555157
0.027554
0.0806693
0.0816523
0.0825605
0.0833707
0.0840648
0.0846282
0.0850439
0.0852873
0.0853247
0.0851103
0.0845824
0.083656
0.0822115
0.0800753
0.0769825
0.07249
0.0657162
0.0542029
0.0269433
0.0806488
0.0814179
0.0821091
0.0827019
0.083186
0.0835586
0.0838109
0.0839211
0.0838537
0.0835589
0.0829705
0.0820001
0.0805267
0.0783779
0.0752935
0.0708382
0.0641476
0.0528511
0.0263509
0.0812248
0.0817699
0.0822173
0.0825485
0.0827637
0.0828839
0.0829168
0.0828458
0.0826328
0.0822228
0.0815438
0.0805029
0.0789773
0.0767955
0.0737012
0.0692651
0.0626343
0.0515079
0.0257589
0.0824634
0.0827798
0.082957
0.0829698
0.0828313
0.0826164
0.0823642
0.0820632
0.0816687
0.0811156
0.0803233
0.0791928
0.0775976
0.0753671
0.0722484
0.0678191
0.0612374
0.0502639
0.0252083
0.0844653
0.0845613
0.08445
0.0840681
0.083433
0.0827598
0.0821421
0.0815637
0.0809599
0.0802467
0.0793291
0.0780989
0.0764253
0.0741372
0.0709868
0.0665591
0.0600229
0.0491995
0.0247635
0.0873685
0.0872821
0.0868982
0.086028
0.0846098
0.0832841
0.0822083
0.0813164
0.0804926
0.0796182
0.0785774
0.0772499
0.0754989
0.0731534
0.0699712
0.0655443
0.0590499
0.0483803
0.024499
0.0913456
0.0911688
0.0906212
0.0892319
0.0863302
0.084064
0.0824587
0.0812553
0.0802331
0.0792214
0.0780781
0.0766699
0.0748543
0.0724607
0.0692524
0.0648224
0.0583546
0.0478473
0.0245045
0.0965877
0.0964823
0.0961052
0.0946532
0.0881926
0.084755
0.082693
0.0812717
0.0801261
0.0790336
0.077831
0.0763755
0.074521
0.0720974
0.0688706
0.0644178
0.0579421
0.0475718
0.0248298
)
;

boundaryField
{
    leftWall
    {
        type            kqRWallFunction;
        value           nonuniform List<scalar> 
50
(
0.00254817
0.00474806
0.00674795
0.00887164
0.0110376
0.0133378
0.0156787
0.0181034
0.0214749
0.0260763
0.0300534
0.034542
0.0455209
0.0402026
0.033055
0.0364558
0.0474745
0.0568379
0.0640826
0.0679054
0.0678749
0.0650314
0.0602812
0.0544062
0.0477534
0.0415728
0.0357057
0.0296003
0.0236531
0.0184755
0.0142372
0.0114414
0.0100705
0.00959176
0.00939272
0.00927757
0.00921923
0.00922988
0.00933766
0.00958596
0.010035
0.0107594
0.0118453
0.0133942
0.0155472
0.0185506
0.0229487
0.0302057
0.0448493
0.0865317
)
;
    }
    rightWall
    {
        type            kqRWallFunction;
        value           nonuniform List<scalar> 
50
(
0.00536133
0.00939455
0.0123128
0.0149089
0.0174419
0.0203218
0.0239803
0.0281666
0.0342398
0.0423855
0.0431678
0.0386303
0.032617
0.0274681
0.0255763
0.030678
0.0356435
0.0299252
0.0233921
0.0179128
0.0165537
0.0178872
0.020347
0.0230439
0.0255895
0.0278459
0.0298727
0.0317497
0.0329098
0.0332198
0.0328908
0.0323766
0.0319842
0.0317075
0.0314215
0.031105
0.0307181
0.0302461
0.0297305
0.0291229
0.0283286
0.027554
0.0269433
0.0263509
0.0257589
0.0252083
0.0247635
0.024499
0.0245045
0.0248298
)
;
    }
    lowerWall
    {
        type            kqRWallFunction;
        value           nonuniform List<scalar> 
62
(
0.00254817
0.00658232
0.0103151
0.0132063
0.015422
0.0172014
0.0186731
0.0199124
0.0209493
0.0217882
0.0224234
0.0228457
0.0230444
0.0230037
0.0226887
0.0220088
0.0210818
0.0200344
0.0188714
0.0174892
0.0154002
0.0116223
0.00467777
0.00467777
0.0127448
0.019184
0.0251729
0.0313023
0.0380642
0.0462011
0.0596277
0.0921568
0.0859933
0.0855303
0.0941603
0.0061435
0.0120323
0.0160131
0.0218358
0.0305142
0.0462501
0.0716452
0.103998
0.0061435
0.0174597
0.0274575
0.0323414
0.0349337
0.035264
0.0336546
0.031013
0.0278957
0.024432
0.0212894
0.0196286
0.0191753
0.0181013
0.0166001
0.0144209
0.0114116
0.00834751
0.00536133
)
;
    }
    atmosphere
    {
        type            inletOutlet;
        inletValue      uniform 0.1;
        value           nonuniform List<scalar> 
46
(
0.1
0.1
0.1
0.1
0.1
0.1
0.1
0.1
0.1
0.1
0.1
0.1
0.1
0.1
0.1
0.1
0.1
0.1
0.1
0.1
0.1
0.1
0.1
0.1
0.1
0.1
0.1
0.1
0.1
0.1
0.1
0.0881926
0.084755
0.082693
0.0812717
0.0801261
0.0790336
0.077831
0.0763755
0.074521
0.0720974
0.0688706
0.0644178
0.0579421
0.0475718
0.0248298
)
;
    }
    defaultFaces
    {
        type            empty;
    }
}


// ************************************************************************* //
