/*--------------------------------*- C++ -*----------------------------------*\
| =========                 |                                                 |
| \\      /  F ield         | OpenFOAM: The Open Source CFD Toolbox           |
|  \\    /   O peration     | Version:  2.3.0                                 |
|   \\  /    A nd           | Web:      www.OpenFOAM.org                      |
|    \\/     M anipulation  |                                                 |
\*---------------------------------------------------------------------------*/
FoamFile
{
    version     2.0;
    format      ascii;
    class       volScalarField;
    location    "1.6";
    object      nut;
}
// * * * * * * * * * * * * * * * * * * * * * * * * * * * * * * * * * * * * * //

dimensions      [0 2 -1 0 0 0 0];

internalField   nonuniform List<scalar> 
2268
(
4.64699e-05
5.43529e-05
6.79884e-05
7.6966e-05
8.33466e-05
8.82941e-05
9.23276e-05
9.56927e-05
9.84755e-05
0.000100694
0.000102345
0.000103422
0.00010391
0.000103781
0.000102976
0.00010132
9.87248e-05
9.55616e-05
9.19099e-05
8.76999e-05
8.17936e-05
7.03673e-05
4.50931e-05
9.82538e-05
0.000441084
0.000624657
0.000744198
0.000831349
0.000897972
0.000951061
0.000993899
0.00102762
0.00105257
0.00106895
0.00107701
0.00107694
0.00106881
0.00105231
0.00102557
0.000970066
0.000900749
0.00082785
0.000753847
0.000666986
0.00053915
0.000155985
0.000116348
0.000732745
0.00113474
0.00141491
0.00162313
0.00178493
0.00191502
0.00202049
0.00210395
0.0021663
0.00220814
0.00223009
0.00223267
0.00221587
0.00217856
0.00211616
0.00201039
0.00187194
0.00171187
0.00153298
0.00131284
0.000974454
0.000194365
0.000133275
0.000923915
0.00151076
0.00193367
0.00225419
0.00250703
0.00271201
0.00287884
0.00301142
0.00311141
0.00318004
0.00321856
0.00322794
0.00320842
0.00315846
0.0030726
0.0029362
0.00275392
0.00253009
0.00226018
0.00190541
0.00133533
0.000223541
0.000148474
0.00107017
0.00180267
0.00234053
0.0027543
0.00308502
0.00335545
0.00357665
0.00375334
0.00388787
0.00398218
0.00403818
0.00405751
0.00404088
0.00398697
0.00389063
0.00373983
0.00353354
0.00326802
0.00292626
0.00244614
0.00164666
0.000249579
0.000163027
0.00119781
0.00204572
0.00267325
0.00316123
0.00355585
0.00388136
0.00414926
0.00436459
0.00453023
0.00464866
0.0047224
0.00475377
0.00474418
0.00469297
0.00459583
0.00444265
0.00422642
0.00393697
0.00354204
0.00295098
0.00193406
0.000275229
0.00017629
0.00131717
0.00225815
0.0029552
0.00350142
0.00394782
0.00431934
0.00462722
0.00487654
0.00507042
0.00521166
0.00530321
0.00534805
0.00534841
0.00530453
0.00521316
0.00506588
0.00485012
0.00455161
0.00412282
0.00344343
0.00222943
0.000303378
0.000188716
0.00142983
0.00244702
0.00319837
0.00379057
0.00427932
0.00468974
0.00503245
0.00531226
0.0055324
0.00569571
0.00580532
0.00586474
0.0058771
0.00584372
0.00576246
0.0056258
0.00541951
0.00512546
0.00468478
0.00395507
0.00259181
0.000346452
5.43697e-05
9.17561e-05
0.000116726
0.000124728
0.000126907
0.000126813
0.000124406
0.000120322
0.000114027
0.000105612
9.65641e-05
9.10144e-05
8.98474e-05
8.77818e-05
8.39953e-05
7.81414e-05
6.97514e-05
6.03897e-05
6.79801e-05
0.000177813
0.00068999
0.000987044
0.00113231
0.00119047
0.00119812
0.00116865
0.00111888
0.00102442
0.000876603
0.000756178
0.000738184
0.000783216
0.000781965
0.000752866
0.000701881
0.000614371
0.000470305
0.000149981
0.000200437
0.00105284
0.00163248
0.00200817
0.00222558
0.00231298
0.00229274
0.00220233
0.00203407
0.00178955
0.00156596
0.00147777
0.0015051
0.00148596
0.00142013
0.00130948
0.00111896
0.000784022
0.000171559
0.000233197
0.00125719
0.00203541
0.00259911
0.00297626
0.00317323
0.00320522
0.00311356
0.00290746
0.00262208
0.00234628
0.00217985
0.00214821
0.00208973
0.00198156
0.0018118
0.00152634
0.00102516
0.000189172
0.000274537
0.00141494
0.00235008
0.00305487
0.00355272
0.00384306
0.00393851
0.0038704
0.00365708
0.00336032
0.00305859
0.0028298
0.00272529
0.00261653
0.00246346
0.00223923
0.00187235
0.00123458
0.00020557
0.000337634
0.00155752
0.00265856
0.00347848
0.00405503
0.00440109
0.00454314
0.00450692
0.00430656
0.0040093
0.00369353
0.00342092
0.00324586
0.0030843
0.00288625
0.00261052
0.00217497
0.00142445
0.000223988
0.000425597
0.00173062
0.00303133
0.00393175
0.00454545
0.0049004
0.00505965
0.00505451
0.00487405
0.00457865
0.00425306
0.00395034
0.00371586
0.00350405
0.00326237
0.00293846
0.00244101
0.0015899
0.000244408
0.000515832
0.00206972
0.00355975
0.00445758
0.00504077
0.00537172
0.00552148
0.00553663
0.00537443
0.00507939
0.00474433
0.00441989
0.00414
0.00388176
0.00359864
0.00323001
0.00267712
0.00173644
0.000264087
0.000204685
0.00158988
0.00270461
0.00352223
0.0041708
0.00471342
0.00517491
0.00556444
0.00588637
0.00614407
0.0063403
0.00647821
0.00656211
0.00659673
0.00658553
0.00652865
0.0064204
0.00624384
0.00597672
0.00555647
0.00484614
0.00358949
0.00150472
0.000223149
0.00173236
0.00294354
0.00382334
0.00452719
0.00512876
0.005651
0.00609883
0.00647492
0.00678306
0.00702553
0.0072047
0.00732526
0.00739397
0.0074175
0.00739988
0.0073398
0.00722563
0.00702658
0.0067049
0.0061747
0.00532214
0.00412412
0.000238461
0.00180774
0.00307057
0.00398473
0.00473386
0.0053941
0.005981
0.00649166
0.00692396
0.00728291
0.00757252
0.00779561
0.00795645
0.00806267
0.00812387
0.00814853
0.00814097
0.00809637
0.00799458
0.00780373
0.00750016
0.0070791
0.00664083
0.000257256
0.0018809
0.00311352
0.0040238
0.00481258
0.0055394
0.0062054
0.00679375
0.00728918
0.00769453
0.00802177
0.00828442
0.0084863
0.00863205
0.00873198
0.00879839
0.00884133
0.00886131
0.00884347
0.0087647
0.00861327
0.00842335
0.00828884
0.000296223
0.0018854
0.00306611
0.00398509
0.00479958
0.00557385
0.00632835
0.00703565
0.00764186
0.00809311
0.0084216
0.00870083
0.00893744
0.00912175
0.0092589
0.00936228
0.00944832
0.00952163
0.00956224
0.0095398
0.00945022
0.00933673
0.00929275
0.000271457
0.00169371
0.00281301
0.00380809
0.00469977
0.0055145
0.00631452
0.00709745
0.00779055
0.00837183
0.00875826
0.00904328
0.00930693
0.00952653
0.00969751
0.00983274
0.00995166
0.0100641
0.0101427
0.0101426
0.0100615
0.0099754
0.0100084
0.000246045
0.00128558
0.00247934
0.00366776
0.00471076
0.0056222
0.00647727
0.00729056
0.00801639
0.0086498
0.00910881
0.00941138
0.00967327
0.00990025
0.0100866
0.0102416
0.0103785
0.0104923
0.0105536
0.0105299
0.0104249
0.0103545
0.0104708
0.000270443
0.00115847
0.00245132
0.00381911
0.00499093
0.00597187
0.00684693
0.00764972
0.00835717
0.00896799
0.00944761
0.00977245
0.0100289
0.0102483
0.0104299
0.0105832
0.0107212
0.0108348
0.0108707
0.0107991
0.0106617
0.0106111
0.0107833
0.000306943
0.0014644
0.00290912
0.00431793
0.00551087
0.00649455
0.00733999
0.00808426
0.00873517
0.0093066
0.00977121
0.010097
0.0103412
0.0105449
0.0107135
0.0108546
0.0109802
0.0110772
0.01109
0.0109869
0.0108354
0.0107642
0.0108551
0.00033055
0.00198826
0.00366679
0.00504774
0.00615832
0.00705637
0.00780629
0.00846641
0.00904448
0.00956232
0.0099962
0.0103161
0.0105575
0.0107513
0.0109057
0.0110298
0.0111324
0.0112011
0.0111895
0.0110835
0.010948
0.010882
0.0109063
0.000347841
0.00240713
0.00423331
0.00559262
0.00662762
0.00744432
0.00812505
0.00871745
0.00923851
0.00970175
0.0100985
0.0104135
0.0106598
0.0108507
0.0109961
0.011107
0.0111906
0.0112386
0.0112247
0.011142
0.011045
0.0110008
0.0109882
0.000355641
0.00259166
0.00452732
0.00589674
0.00689958
0.00767472
0.00831024
0.0088549
0.009332
0.00975416
0.0101207
0.0104252
0.0106687
0.0108568
0.0109986
0.0111039
0.0111782
0.0112164
0.0112097
0.0111652
0.0111167
0.011098
0.0110835
0.000355317
0.00266216
0.00464191
0.00602042
0.00701237
0.00776738
0.00837676
0.00889178
0.0093391
0.00973249
0.0100756
0.0103659
0.0106024
0.0107887
0.0109321
0.0110398
0.0111154
0.0111574
0.0111666
0.0111564
0.0111499
0.0111563
0.0111552
0.000348379
0.00265657
0.00463061
0.0060049
0.00699138
0.00773785
0.00833465
0.0088337
0.00926327
0.00963828
0.00996482
0.0102438
0.0104763
0.0106659
0.0108178
0.0109365
0.011024
0.0110814
0.011114
0.0111349
0.0111589
0.011185
0.0111956
0.000336454
0.00259572
0.00452637
0.00587976
0.00685759
0.00759962
0.00819175
0.00868437
0.00910598
0.00947229
0.00979146
0.0100676
0.010304
0.0105045
0.0106726
0.0108103
0.0109185
0.0109991
0.0110579
0.0111052
0.0111495
0.0111865
0.0112028
0.000320858
0.00249381
0.00435041
0.00566582
0.00662783
0.00736504
0.00795656
0.00844962
0.00887179
0.00923922
0.00956162
0.00984526
0.0100948
0.0103138
0.0105044
0.010667
0.0108014
0.0109086
0.0109931
0.0110614
0.0111176
0.0111578
0.0111727
0.000301991
0.00236027
0.00411552
0.00537684
0.00631513
0.00704561
0.0076391
0.00813835
0.00856905
0.00894706
0.00928271
0.00958311
0.00985327
0.0100963
0.0103132
0.0105034
0.0106657
0.0107999
0.0109079
0.010993
0.0110563
0.0110955
0.0111054
0.000282345
0.00218633
0.00382471
0.00502095
0.00592981
0.00665248
0.00725058
0.00776145
0.00820794
0.00860462
0.00896138
0.00928513
0.00958054
0.00985015
0.0100945
0.0103123
0.0105018
0.0106615
0.0107908
0.0108906
0.0109603
0.0109986
0.0110041
0.00026237
0.00198289
0.00348102
0.00460537
0.00548216
0.00619764
0.00680359
0.00733114
0.00779943
0.00822086
0.00860399
0.00895492
0.00927768
0.0095744
0.00984533
0.0100892
0.0103036
0.0104864
0.0106355
0.0107497
0.0108277
0.0108689
0.0108741
0.000240042
0.00175483
0.0030922
0.00414001
0.00498552
0.00569614
0.00631344
0.00686195
0.00735645
0.00780654
0.008219
0.00859878
0.00894926
0.00927226
0.00956805
0.00983547
0.0100723
0.0102758
0.0104434
0.0105728
0.0106623
0.0107111
0.0107215
0.000215162
0.00146281
0.0026577
0.00363957
0.00445975
0.0051689
0.00580064
0.00637299
0.00689608
0.00737659
0.00781938
0.00822814
0.00860557
0.00895333
0.00927188
0.0095604
0.00981703
0.0100392
0.0102241
0.0103693
0.0104728
0.0105333
0.0105538
0.000190734
0.00118579
0.00223461
0.00314369
0.0039371
0.00464573
0.00529355
0.00589021
0.00644144
0.00695165
0.00742383
0.00786025
0.00826289
0.00863333
0.00897229
0.00927943
0.00955339
0.00979204
0.00999287
0.0101534
0.0102717
0.0103464
0.01038
0.000167546
0.00100857
0.00191096
0.00273389
0.00348476
0.00418156
0.0048342
0.00544727
0.00602163
0.00655762
0.00705618
0.00751723
0.00794198
0.00833213
0.00868865
0.00901163
0.00930024
0.0095529
0.00976752
0.00994194
0.0100743
0.0101635
0.0102106
0.000149791
0.00093479
0.00172116
0.00245662
0.0031545
0.00382568
0.00447138
0.00508946
0.00567627
0.0062286
0.00674454
0.00722323
0.0076649
0.00807046
0.00844074
0.00877605
0.00907605
0.00933958
0.00956503
0.00975066
0.00989483
0.00999648
0.0100557
0.000140251
0.000929321
0.0016516
0.00232155
0.00297047
0.00360949
0.00423735
0.00484806
0.00543491
0.00599209
0.00651558
0.00700314
0.00745399
0.0078683
0.00824656
0.00858909
0.00889577
0.00916588
0.00939824
0.00959138
0.00974391
0.00985493
0.00992442
0.000137129
0.000957978
0.00166935
0.00230854
0.00292578
0.00353687
0.00414242
0.00473693
0.00531303
0.00586391
0.00638435
0.00687104
0.0073223
0.00773761
0.00811704
0.00846075
0.0087687
0.00904042
0.00927505
0.00947142
0.00962839
0.00974517
0.00982182
0.000135969
0.00099881
0.0017431
0.00238661
0.00299363
0.00358755
0.00417369
0.00474925
0.00530832
0.00584467
0.00635306
0.00682985
0.00727291
0.00768126
0.00805464
0.00839306
0.00869646
0.00896452
0.00919661
0.00939182
0.00954922
0.00966813
0.00974852
0.000135436
0.0010401
0.00184396
0.00252024
0.00313846
0.00372958
0.00430423
0.00486344
0.005404
0.00592147
0.00641169
0.00687156
0.0072991
0.00769333
0.00805391
0.00838082
0.00867403
0.00893337
0.00915836
0.00934834
0.00950253
0.00962036
0.00970172
0.000135359
0.00108131
0.00195656
0.00268404
0.00333087
0.00393268
0.00450495
0.00505279
0.00557627
0.00607348
0.00654213
0.00698034
0.00738693
0.00776136
0.00810356
0.00841366
0.00869182
0.00893803
0.00915202
0.00933331
0.00948129
0.00959545
0.0096756
0.000135858
0.0011255
0.00207749
0.0028662
0.00355255
0.0041745
0.00475142
0.00529231
0.00580071
0.0062776
0.00672299
0.00713669
0.00751872
0.00786935
0.00818908
0.00847842
0.00873783
0.00896754
0.00916751
0.00933748
0.00947698
0.00958554
0.00966289
0.00013717
0.00117649
0.00220844
0.00306243
0.00379304
0.00443958
0.00502468
0.00556096
0.00605541
0.006512
0.0069332
0.00732074
0.00767606
0.00800048
0.0082952
0.00856126
0.00879952
0.00901052
0.0091945
0.0093514
0.0094809
0.00958258
0.00965608
0.000139612
0.00123697
0.00235073
0.00326967
0.00404442
0.00471584
0.0053095
0.0058414
0.00632184
0.00675777
0.00715411
0.0075146
0.00784215
0.00813917
0.00840766
0.00864924
0.0088652
0.00905641
0.0092234
0.00936632
0.00948502
0.00957912
0.0096482
0.000143543
0.00130677
0.0025014
0.00348203
0.00429824
0.00499265
0.00559352
0.00611997
0.0065855
0.00700001
0.00737091
0.00770385
0.00800325
0.00827258
0.00851462
0.00873154
0.00892503
0.00909629
0.00924612
0.00937487
0.00948254
0.00956885
0.0096333
0.00014929
0.0013824
0.00265337
0.00369188
0.00454714
0.00526269
0.00586896
0.00638819
0.00683726
0.00722914
0.00757377
0.00787875
0.00814991
0.00839172
0.00860764
0.00880032
0.0089718
0.00912356
0.00925658
0.00937144
0.00946828
0.00954689
0.00960676
0.000157107
0.00145962
0.00280133
0.00389663
0.00479087
0.00552646
0.00613584
0.00664501
0.00707487
0.00744189
0.00775872
0.0080349
0.00827755
0.008492
0.00868226
0.00885134
0.0090015
0.00913441
0.00925123
0.00935267
0.009439
0.00951011
0.00956551
0.000167227
0.00153821
0.00295002
0.00410642
0.00504186
0.00579573
0.00640376
0.00689746
0.00730309
0.00764125
0.00792747
0.00817311
0.0083864
0.00857328
0.0087381
0.00888404
0.00901347
0.00912813
0.00922927
0.00931766
0.00939371
0.00945738
0.00950826
0.000180013
0.00162474
0.0031181
0.00434673
0.00532576
0.00609247
0.00668987
0.00715842
0.00753152
0.00783456
0.00808583
0.00829819
0.00848056
0.00863915
0.00877834
0.00890127
0.00901026
0.00910699
0.00919268
0.00926815
0.00933384
0.00938983
0.00943577
0.000196229
0.00173195
0.00333713
0.00465623
0.00567746
0.00644355
0.00701347
0.00744171
0.00777061
0.00803031
0.00824124
0.00841696
0.00856645
0.00869569
0.00880876
0.00890853
0.00899706
0.00907586
0.00914604
0.00920837
0.00926329
0.00931095
0.00935108
0.000217735
0.00187801
0.00365381
0.00508663
0.00613665
0.00687412
0.00738941
0.00775663
0.00802733
0.00823485
0.0084001
0.0085361
0.00865099
0.00874998
0.00883651
0.00891291
0.00898085
0.00904157
0.00909598
0.00914472
0.0091882
0.00922657
0.00925967
0.000249151
0.00209639
0.00415045
0.00571214
0.00674493
0.00740052
0.0078217
0.00810342
0.00830209
0.00845013
0.00856606
0.00866066
0.00874029
0.00880888
0.00886891
0.00892205
0.00896948
0.00901207
0.00905048
0.00908519
0.00911651
0.00914457
0.00916928
0.000302733
0.0025116
0.00502863
0.0066516
0.00753746
0.00801942
0.00829736
0.00847073
0.00858801
0.00867344
0.00873968
0.00879356
0.00883898
0.0088782
0.00891267
0.0089433
0.00897077
0.00899557
0.00901807
0.00903857
0.00905726
0.00907423
0.00908941
0.000419361
0.00375477
0.0068842
0.00807097
0.00850282
0.00868755
0.00878141
0.00883649
0.00887279
0.00889903
0.0089194
0.00893606
0.0089502
0.00896249
0.00897335
0.00898307
0.00899182
0.00899976
0.00900701
0.00901365
0.00901975
0.00902533
0.00903037
0.000437133
0.000423844
0.000425901
0.00044827
0.00343995
0.00346811
0.00368463
0.0039982
0.00654206
0.00658365
0.00670997
0.00689904
0.00829568
0.00833533
0.00842275
0.00855003
0.00933981
0.009409
0.00952894
0.00969485
0.0101287
0.010273
0.0104886
0.0106703
0.0106184
0.0107548
0.0108777
0.010941
0.0108812
0.0109238
0.0109119
0.0108686
0.0108828
0.0108807
0.0108397
0.0107788
0.0108716
0.0108408
0.0107957
0.0107469
0.01093
0.0108925
0.0108491
0.0108044
0.0110308
0.0109961
0.0109542
0.0109085
0.0111124
0.0110824
0.0110452
0.0110024
0.0111617
0.0111362
0.0111032
0.0110629
0.0111748
0.0111522
0.0111215
0.0110825
0.0111463
0.0111244
0.0110946
0.0110567
0.0110778
0.0110551
0.0110251
0.0109879
0.0109754
0.0109518
0.0109217
0.010885
0.0108467
0.0108237
0.0107944
0.0107589
0.010699
0.0106787
0.010652
0.0106192
0.0105394
0.0105236
0.0105013
0.0104727
0.0103754
0.0103655
0.0103486
0.0103253
0.010216
0.0102121
0.0102009
0.0101829
0.0100702
0.0100718
0.0100658
0.0100527
0.00994626
0.00995222
0.00995051
0.00994157
0.009849
0.00985823
0.00985975
0.00985398
0.00977936
0.00979082
0.00979464
0.0097912
0.00973462
0.00974748
0.00975286
0.00975111
0.00970927
0.009723
0.0097294
0.0097289
0.00969641
0.00971053
0.00971772
0.00971824
0.00968887
0.00970309
0.0097109
0.00971238
0.00967995
0.00969415
0.00970247
0.00970496
0.00966392
0.00967809
0.00968694
0.00969046
0.0096363
0.00965048
0.00965995
0.00966463
0.00959401
0.00960825
0.00961839
0.00962432
0.00953562
0.00954986
0.00956064
0.0095678
0.0094616
0.00947556
0.00948671
0.00949488
0.00937461
0.00938774
0.00939871
0.00940734
0.00927977
0.00929129
0.00930123
0.00930945
0.0091847
0.00919369
0.00920162
0.00920836
0.00909906
0.00910474
0.0091098
0.00911413
0.0090336
0.0090355
0.00903719
0.00903861
0.00152171
0.0033012
0.00464868
0.00539023
0.00583123
0.00608483
0.00619046
0.00621561
0.0060718
0.0057726
0.00542092
0.00506935
0.00473714
0.00441338
0.00406721
0.00363336
0.00300365
0.00194263
0.000290883
0.00487851
0.00587725
0.00653688
0.00682835
0.00689347
0.00694112
0.00696616
0.00698366
0.00683328
0.00650654
0.00612251
0.00572705
0.00533622
0.0049425
0.0045224
0.00401594
0.00330306
0.00213985
0.000318429
0.00730678
0.0077904
0.00806774
0.00805007
0.00783399
0.00770139
0.00762881
0.00761672
0.00745353
0.00708944
0.00666594
0.00622709
0.00578516
0.00531752
0.00481683
0.00421374
0.00338329
0.00213643
0.000322304
0.00883046
0.0091379
0.00924769
0.00899295
0.00859503
0.00836976
0.00819998
0.0080917
0.00790972
0.00755491
0.00709999
0.00661742
0.0061143
0.00556354
0.00495091
0.00421153
0.00323266
0.0019468
0.000305842
0.0100072
0.0101606
0.00998531
0.00956523
0.00917312
0.00891012
0.00869944
0.00853674
0.00828391
0.00790946
0.007447
0.00692508
0.00635526
0.0057108
0.00496897
0.00406776
0.00290973
0.00157747
0.000282543
0.0107851
0.0106414
0.0102077
0.00982525
0.00950399
0.00926905
0.00909335
0.00892036
0.00861958
0.00818712
0.00769269
0.00715424
0.00653564
0.00581594
0.00499074
0.00398597
0.00267909
0.00132072
0.000259792
0.0109091
0.010598
0.0102489
0.0099549
0.00969573
0.00950849
0.00936409
0.00916867
0.00883991
0.00838224
0.00784844
0.00726595
0.00662222
0.00589235
0.00507909
0.00413868
0.00285216
0.00143489
0.000248594
0.0107636
0.0105279
0.0102908
0.0100665
0.00986424
0.00970913
0.00955745
0.00932601
0.00896648
0.00848467
0.00791326
0.00728577
0.0066042
0.00586055
0.0050632
0.00419437
0.00319267
0.00184476
0.000267801
0.0106733
0.0105174
0.0103508
0.0101829
0.0100258
0.00988552
0.00971032
0.00943793
0.00903417
0.00850655
0.0078888
0.00721362
0.00649737
0.00573048
0.00492544
0.00411233
0.00321258
0.0020034
0.00029135
0.0106676
0.0105565
0.0104317
0.0103003
0.0101633
0.0100134
0.00979596
0.00946469
0.00900321
0.00842843
0.00777287
0.00705973
0.00630483
0.00550401
0.00467411
0.00387624
0.00303075
0.00187162
0.000269882
0.0107309
0.010633
0.0105263
0.0104081
0.0102683
0.0100888
0.00982382
0.0094402
0.00893328
0.00832334
0.00763371
0.00687839
0.00607089
0.00522108
0.00435058
0.00350704
0.00264976
0.00154271
0.000237269
0.0108314
0.0107255
0.0106141
0.010488
0.0103341
0.0101284
0.0098316
0.00941792
0.00888616
0.00825391
0.00753501
0.00673909
0.00587804
0.00496797
0.0040365
0.00312554
0.0022251
0.00121788
0.000207034
0.0109241
0.0108028
0.0106764
0.0105362
0.0103676
0.0101434
0.00983013
0.00940521
0.00886659
0.00822688
0.00749429
0.00667529
0.00577904
0.00482212
0.00383425
0.0028638
0.00193474
0.00101604
0.000197013
0.0109846
0.0108532
0.0107128
0.0105584
0.010375
0.0101377
0.00981771
0.00939442
0.0088632
0.00823066
0.00750234
0.00668278
0.00578126
0.00481403
0.00380595
0.00280247
0.00184841
0.000958408
0.000205278
0.0110059
0.0108703
0.0107192
0.0105519
0.0103559
0.01011
0.0097895
0.00937571
0.00886135
0.00824752
0.00753861
0.00674001
0.00586403
0.0049251
0.00393988
0.00293622
0.00195442
0.00102324
0.000219819
0.0109825
0.0108463
0.0106894
0.0105137
0.0103096
0.0100593
0.00974238
0.00934218
0.00885007
0.00826332
0.0075857
0.0068264
0.00599848
0.00511354
0.00418006
0.00320766
0.00220881
0.0011904
0.000234659
0.0109158
0.0107817
0.010624
0.0104451
0.0102378
0.00998706
0.0096763
0.0092917
0.00882477
0.00827151
0.00763504
0.0069271
0.00616003
0.00534142
0.00447139
0.0035427
0.00253453
0.00140846
0.000247805
0.0108149
0.010685
0.0105301
0.0103523
0.0101456
0.00989722
0.00959452
0.00922674
0.00878695
0.00827063
0.00768225
0.00703254
0.00633088
0.0055795
0.00477022
0.00387976
0.00285907
0.0016245
0.000258975
0.0106917
0.0105674
0.0104179
0.0102441
0.0100403
0.00979671
0.00950368
0.0091534
0.00874136
0.00826568
0.00772787
0.00713753
0.0064988
0.00580748
0.0050468
0.00417782
0.00312983
0.00181747
0.000268783
0.0105566
0.0104395
0.0102966
0.0101283
0.00992941
0.00969254
0.00941088
0.00907944
0.00869594
0.00826032
0.007774
0.00723994
0.00665669
0.00601308
0.00528308
0.00441652
0.00333669
0.00193339
0.000277182
0.0104165
0.0103081
0.0101731
0.0100114
0.00981897
0.00959075
0.00932249
0.00901158
0.00865742
0.00826043
0.00782075
0.00733671
0.00680095
0.00619539
0.00548596
0.00461504
0.00349696
0.00201185
0.000281503
0.0102769
0.0101782
0.010052
0.00989807
0.00971381
0.00949635
0.0092436
0.00895476
0.00863001
0.00826939
0.00787111
0.00742962
0.00693234
0.00635526
0.00565785
0.00477734
0.00362203
0.00206855
0.000281554
0.0101426
0.0100546
0.00993778
0.00979269
0.00961831
0.00941359
0.00917808
0.00891202
0.00861569
0.00828813
0.00792545
0.00751874
0.00705113
0.00649385
0.00580163
0.00490839
0.00371933
0.00211111
0.000279413
0.0100203
0.00994255
0.00983527
0.00969984
0.00953664
0.009346
0.00912849
0.00888473
0.00861458
0.00831584
0.00798257
0.00760305
0.00715703
0.00661225
0.00592021
0.00501305
0.00379491
0.00214397
0.000277424
0.00991587
0.00984746
0.00974933
0.00962377
0.00947224
0.00929592
0.00909587
0.00887262
0.00862532
0.00835048
0.00804034
0.00768093
0.00724948
0.00671135
0.00601627
0.00509553
0.00385349
0.00216977
0.000276421
0.00983365
0.00977323
0.00968343
0.00956726
0.00942687
0.00926393
0.00907958
0.00887398
0.00864546
0.0083893
0.00809623
0.00775054
0.00732778
0.00679192
0.00609211
0.00515889
0.00389787
0.00218948
0.00027577
0.00977498
0.00972114
0.00963857
0.00953072
0.00940016
0.00924874
0.00907747
0.00888599
0.00867181
0.00842917
0.00814758
0.00781011
0.00739126
0.00685442
0.0061488
0.00520489
0.00392909
0.00220245
0.000274862
0.009738
0.0096895
0.009613
0.00951213
0.00938964
0.00924741
0.00908616
0.00890506
0.00870086
0.00846694
0.00819191
0.00785806
0.00743938
0.00689925
0.00618734
0.00523481
0.00394784
0.00220777
0.000273726
0.00971822
0.00967413
0.00960268
0.00950747
0.00939127
0.00925583
0.00910161
0.00892731
0.00872909
0.00849967
0.00822707
0.00789315
0.00747185
0.00692695
0.00620891
0.00524984
0.00395553
0.00220724
0.000272185
0.00970962
0.00966936
0.00960224
0.00951163
0.00940014
0.00926937
0.00911953
0.00894891
0.00875327
0.00852485
0.00825137
0.00791459
0.00748872
0.00693823
0.00621461
0.00525104
0.00395377
0.00220298
0.000270222
0.00970569
0.00966902
0.00960586
0.00951915
0.00941124
0.0092835
0.00913589
0.00896647
0.00877068
0.00854056
0.00826371
0.00792207
0.00749037
0.00693399
0.00620562
0.00523968
0.00394311
0.0021949
0.000268065
0.00970029
0.00966729
0.00960807
0.00952499
0.00941999
0.00929418
0.00914732
0.00897727
0.00877937
0.00854557
0.00826362
0.00791582
0.00747758
0.00691533
0.00618309
0.0052167
0.0039241
0.00218355
0.00026551
0.00968809
0.00965912
0.00960418
0.00952489
0.00942267
0.00929829
0.00915132
0.00897953
0.00877823
0.00853951
0.00825137
0.00789664
0.00745155
0.00688363
0.00614831
0.00518304
0.00389743
0.00216962
0.000262094
0.00966482
0.0096405
0.0095905
0.00951558
0.00941653
0.00929368
0.0091464
0.00897241
0.0087671
0.00852281
0.00822795
0.00786597
0.00741399
0.00684065
0.00610277
0.00513945
0.00386228
0.0021508
0.000258832
0.00962729
0.00960838
0.00956426
0.00949474
0.00939978
0.00927919
0.00913203
0.00895602
0.00874671
0.00849676
0.00819512
0.00782592
0.00736717
0.00678862
0.00604841
0.00508715
0.00381821
0.0021242
0.000256189
0.00957364
0.00956072
0.00952358
0.00946084
0.00937147
0.00925449
0.00910856
0.00893132
0.00871857
0.0084634
0.00815531
0.0077792
0.00731399
0.00673048
0.00598802
0.00502863
0.00376742
0.0020908
0.000253462
0.00950331
0.00949643
0.00946736
0.00941308
0.00933138
0.00922005
0.00907707
0.0089
0.00868489
0.00842534
0.00811152
0.00772912
0.00725794
0.00666981
0.00592523
0.00496761
0.00371393
0.00205488
0.000250679
0.00941757
0.00941617
0.00939558
0.00935143
0.00928011
0.00917718
0.00903948
0.00886439
0.00864839
0.00838568
0.00806716
0.00767934
0.00720292
0.00661071
0.00586436
0.00490858
0.00366235
0.00202075
0.000248053
0.00932002
0.00932244
0.00930954
0.00927681
0.00921941
0.00912837
0.00899863
0.00882755
0.00861226
0.00834777
0.0080258
0.00763366
0.00715294
0.00655744
0.00580981
0.00485602
0.00361669
0.0019909
0.000245901
0.0092174
0.00922088
0.00921294
0.00919152
0.00915282
0.00907778
0.00895863
0.00879328
0.00858007
0.00831508
0.0079909
0.00759566
0.00711177
0.00651388
0.00576561
0.00481374
0.00357987
0.00196667
0.000244574
0.00911995
0.00912177
0.00911522
0.0091007
0.00908703
0.00903194
0.00892497
0.00876601
0.00855552
0.00829089
0.00796559
0.00756844
0.0070825
0.00648317
0.00573479
0.00478439
0.0035534
0.00194819
0.000244495
0.00904042
0.00904011
0.00903453
0.00901994
0.00903506
0.00900081
0.00890436
0.00875033
0.00854196
0.00827792
0.00795227
0.00755425
0.00706734
0.00646735
0.00571914
0.00476937
0.00353733
0.00193325
0.000245935
)
;

boundaryField
{
    leftWall
    {
        type            nutkWallFunction;
        Cmu             0.09;
        kappa           0.41;
        E               9.8;
        value           nonuniform List<scalar> 
50
(
8.65879e-06
1.1656e-05
1.37536e-05
1.563e-05
1.73017e-05
1.88885e-05
2.03547e-05
2.17509e-05
2.35306e-05
2.57266e-05
2.74631e-05
2.93811e-05
3.45706e-05
3.26552e-05
2.98984e-05
3.16075e-05
3.51578e-05
3.9082e-05
4.18756e-05
4.32765e-05
4.326e-05
4.22215e-05
4.04282e-05
3.80967e-05
3.52757e-05
3.24848e-05
2.97125e-05
2.64517e-05
2.26111e-05
1.89213e-05
1.54886e-05
1.28912e-05
1.1484e-05
1.09669e-05
1.07476e-05
1.06195e-05
1.05543e-05
1.05662e-05
1.06865e-05
1.09606e-05
1.14461e-05
1.2204e-05
1.32873e-05
1.47387e-05
1.66053e-05
1.89778e-05
2.20865e-05
2.65484e-05
3.39751e-05
4.95342e-05
)
;
    }
    rightWall
    {
        type            nutkWallFunction;
        Cmu             0.09;
        kappa           0.41;
        E               9.8;
        value           nonuniform List<scalar> 
50
(
1.36293e-05
1.77037e-05
2.00654e-05
2.19173e-05
2.35595e-05
2.5274e-05
2.72689e-05
2.93603e-05
3.21561e-05
3.5791e-05
3.60957e-05
3.4307e-05
3.1602e-05
2.93792e-05
3.0606e-05
3.13381e-05
3.42614e-05
3.07151e-05
2.6399e-05
2.26642e-05
2.15199e-05
2.23873e-05
2.37788e-05
2.63284e-05
2.81016e-05
2.95914e-05
3.08715e-05
3.20151e-05
3.23632e-05
3.21787e-05
3.19841e-05
3.18708e-05
3.18525e-05
3.1686e-05
3.15135e-05
3.13217e-05
3.10853e-05
3.07942e-05
3.04733e-05
3.00209e-05
2.93667e-05
2.8896e-05
2.83726e-05
2.78453e-05
2.74427e-05
2.7064e-05
2.67546e-05
2.65691e-05
2.65729e-05
2.68008e-05
)
;
    }
    lowerWall
    {
        type            nutkWallFunction;
        Cmu             0.09;
        kappa           0.41;
        E               9.8;
        value           nonuniform List<scalar> 
62
(
4.07528e-06
6.61764e-06
8.24657e-06
9.29068e-06
1.0007e-05
1.05418e-05
1.09612e-05
1.13004e-05
1.15753e-05
1.17923e-05
1.19535e-05
1.20592e-05
1.21086e-05
1.20985e-05
1.202e-05
1.18486e-05
1.161e-05
1.13334e-05
1.10165e-05
1.06255e-05
1.00003e-05
8.73653e-06
5.57827e-06
5.57827e-06
1.84951e-05
2.23401e-05
2.53136e-05
2.79753e-05
3.0597e-05
3.34318e-05
3.75635e-05
4.6031e-05
4.46018e-05
4.44921e-05
4.64843e-05
6.3949e-06
1.98522e-05
2.26499e-05
2.61207e-05
3.04511e-05
3.68318e-05
4.49614e-05
5.32784e-05
6.3949e-06
1.06169e-05
1.315e-05
1.41993e-05
1.47206e-05
1.47855e-05
1.44662e-05
1.39231e-05
1.32482e-05
1.24476e-05
1.16643e-05
1.12242e-05
1.11006e-05
1.08013e-05
1.03653e-05
9.69155e-06
8.6601e-06
7.43892e-06
5.97463e-06
)
;
    }
    atmosphere
    {
        type            calculated;
        value           nonuniform List<scalar> 
46
(
0.009
0.009
0.009
0.009
0.009
0.009
0.009
0.009
0.009
0.009
0.009
0.009
0.009
0.009
0.009
0.009
0.009
0.009
0.009
0.009
0.009
0.009
0.009
0.009
0.009
0.009
0.009
0.009
0.009
0.009
0.009
0.00903506
0.00900081
0.00890436
0.00875033
0.00854196
0.00827792
0.00795227
0.00755425
0.00706734
0.00646735
0.00571914
0.00476937
0.00353733
0.00193325
0.000245935
)
;
    }
    defaultFaces
    {
        type            empty;
    }
}


// ************************************************************************* //
