/*--------------------------------*- C++ -*----------------------------------*\
| =========                 |                                                 |
| \\      /  F ield         | OpenFOAM: The Open Source CFD Toolbox           |
|  \\    /   O peration     | Version:  2.3.0                                 |
|   \\  /    A nd           | Web:      www.OpenFOAM.org                      |
|    \\/     M anipulation  |                                                 |
\*---------------------------------------------------------------------------*/
FoamFile
{
    version     2.0;
    format      ascii;
    class       volScalarField;
    location    "1.6";
    object      p_rgh;
}
// * * * * * * * * * * * * * * * * * * * * * * * * * * * * * * * * * * * * * //

dimensions      [1 -1 -2 0 0 0 0];

internalField   nonuniform List<scalar> 
2268
(
858.784
859.519
861.559
864.563
867.642
871.128
875.046
879.341
883.893
888.575
893.3
898.037
902.831
907.809
913.214
919.516
926.797
935.161
946.521
959.986
975.014
987.373
996.9
858.746
858.921
860.417
862.903
865.753
869.081
872.87
877.036
881.464
886.053
890.747
895.543
900.512
905.802
911.679
918.616
926.357
935.883
948.354
963.134
978.682
990.74
998.783
858.642
858.801
859.537
861.259
863.612
866.586
870.099
874.025
878.247
882.69
887.331
892.202
897.4
903.101
909.6
917.405
926.443
936.799
950.553
966.777
981.664
993.884
1002.01
858.387
858.759
858.968
859.954
861.743
864.289
867.481
871.151
875.17
879.472
884.057
888.982
894.366
900.406
907.407
915.812
926.408
939.159
953.139
967.978
982.226
995.972
1006.23
857.95
858.485
858.329
858.704
859.983
862.134
865.047
868.519
872.388
876.586
881.126
886.083
891.593
897.859
905.179
913.935
924.694
937.549
951.432
966.225
980.417
996.884
1011.07
857.355
857.875
857.353
857.208
858.048
859.858
862.559
865.905
869.686
873.817
878.327
883.306
888.897
895.312
902.822
911.734
922.462
935.106
948.421
962.574
976.27
996.15
1011.94
856.669
856.938
855.995
855.383
855.83
857.341
859.887
863.17
866.914
871.009
875.5
880.491
886.139
892.653
900.281
909.262
919.894
932.153
944.522
957.498
969.764
991.86
1006.2
855.987
855.751
854.358
853.314
853.399
854.646
857.065
860.32
864.055
868.127
872.597
877.591
883.272
889.849
897.539
906.53
917.045
928.994
936.686
940.061
959.559
977.856
986.129
660.782
672.156
688.274
689.38
675.306
652.85
628.354
605.958
585.267
566.132
555.469
554.038
557.524
560.55
564.759
568.279
571.292
575.446
579.743
659.023
667.752
681.946
683.493
670.296
648.947
626.043
605.243
585.655
564.874
544.692
555.794
560.431
562.697
566.341
569.2
571.384
573.471
578.992
656.547
665.305
678.301
679.797
667.21
646.436
624.761
606.173
582.737
534.417
524.473
524.733
559.501
571.523
572.278
571.653
571.231
573.285
578.622
653.513
657.666
674.402
681.872
668.867
644.845
618.133
588.926
530.809
523.48
520.642
511.622
546.53
575.457
578.08
580.055
575.24
579.662
578.442
646.053
607.559
620.137
656.39
673.596
615.737
551.891
532.909
527.597
526.367
515.266
504.757
572.227
578.012
579.799
581
581.565
579.785
578.3
612.195
649.426
612.865
595.23
619.325
575.71
542.55
534.165
568.062
576.861
548.33
558.992
565.703
578.362
581.164
581.814
581.459
579.99
578.028
642.892
703.57
718.663
600.822
545.975
608.173
602.111
589.946
586.177
575.469
566.702
510.112
420.907
528.89
582.148
582.646
581.478
580.025
577.201
633.924
718.712
758.819
705.653
494.541
587.349
601.918
596.641
588.315
575.718
541.082
404.512
386.269
395.791
546.627
583.114
581.487
577.218
529.692
855.232
853.955
851.652
849.939
849.508
850.37
852.63
855.897
859.624
863.6
867.952
872.866
878.52
885.113
892.799
901.693
911.954
923.157
904.314
905.902
910.131
928.287
891.229
856.162
852.976
847.806
845.112
844.116
844.271
846.72
850.541
854.38
857.973
861.81
866.27
871.576
877.953
885.456
893.944
903.616
914.089
886.183
888.559
891.844
885.849
889.02
756.868
725.337
669.709
672.434
684.28
685.757
715.913
749.917
773.847
790.571
806.763
821.99
836.723
852.471
869.356
883.924
896.852
901.987
904.393
910.053
887.821
900.53
914.348
224.532
178.932
129.373
119.204
108.217
104.521
119.571
149.894
179.264
203.848
231.95
263.905
296.556
338.796
395.169
459.251
538.797
637.814
737.349
804.814
846.367
879.866
879.239
28.0816
38.2281
52.2955
33.9054
15.3843
12.1891
9.96001
7.39288
4.29933
2.37837
1.89573
1.78989
1.78198
1.64926
1.33781
0.979676
0.701283
19.8304
65.1214
119.114
163.517
178.203
167.16
27.6576
32.133
49.9855
50.2713
40.416
36.1287
37.1376
24.486
4.04846
2.57041
2.27911
2.29747
2.69804
2.7171
2.1268
1.18808
0.820839
1.03151
1.46693
2.00024
0.628149
-0.515647
-0.577254
25.7531
39.1522
36.0235
47.6844
46.9347
44.5038
43.3443
42.1412
10.371
2.45649
2.58656
4.42771
4.2701
4.17428
4.05289
1.31949
0.454522
3.40551
13.1823
13.9787
13.7872
1.91244
0.302922
19.2468
6.6286
1.77721
11.2045
26.7248
17.4966
4.11681
4.43985
5.83723
2.11191
3.41098
4.04219
1.94425
0.762668
0.794577
0.35763
0.127363
0.0874278
0.105745
6.09197
4.79995
0.877647
0.308292
-0.101808
-0.0602698
-0.0455164
-0.125322
-0.231811
-0.216916
-0.140902
-0.108357
0.387453
1.10134
0.840258
0.0994782
0.114071
0.105102
0.0887888
0.0883105
0.0830934
0.0685588
0.282041
2.98795
3.88568
1.21297
0.714787
-0.0820911
-0.0918959
-0.0922035
-0.111398
-0.170418
-0.170036
-0.0171058
0.190434
-0.0237687
0.0154477
0.0410134
0.0665469
0.0709756
0.0667789
0.0581768
0.0528385
0.0425297
0.0179592
1.48795
3.86781
4.14838
3.51255
-0.0302049
-0.0807812
-0.104454
-0.0944251
-0.0952367
-0.157096
-0.121503
-0.0510008
-0.0820285
-0.0765777
-0.02444
0.0130491
0.032055
0.038328
0.037024
0.0303442
0.0213512
0.00193332
-0.0372685
-0.0231322
0.418779
1.90245
0.180634
-0.129979
-0.0650002
-0.0917362
-0.113194
-0.128212
-0.138433
-0.13893
-0.127513
-0.104912
-0.0720091
-0.0368809
-0.0101912
0.00589139
0.0129488
0.0129463
0.00774871
-0.00108326
-0.0203406
-0.0553029
-0.0993923
-0.143739
-0.182445
-0.184073
-0.148715
-0.0476051
-0.0744596
-0.0978605
-0.110999
-0.117543
-0.116542
-0.107262
-0.090604
-0.0679967
-0.0442133
-0.024843
-0.0118959
-0.00550736
-0.00501685
-0.00974258
-0.019339
-0.0350774
-0.0586117
-0.0885644
-0.119972
-0.144235
-0.146501
-0.131025
-0.0319374
-0.0591165
-0.0814071
-0.093756
-0.0989199
-0.0980269
-0.0912425
-0.0792977
-0.063606
-0.0471691
-0.033141
-0.0232072
-0.017936
-0.0171971
-0.0206691
-0.0281784
-0.0400858
-0.0567027
-0.0770464
-0.097239
-0.111362
-0.112986
-0.104738
-0.0223606
-0.046777
-0.067554
-0.0788496
-0.0834659
-0.0831244
-0.078368
-0.0698916
-0.0589063
-0.0473601
-0.0372072
-0.0297149
-0.025473
-0.0245743
-0.0268991
-0.0323284
-0.0408577
-0.052232
-0.0653231
-0.0776712
-0.0859622
-0.0869468
-0.0801919
-0.0184188
-0.0392083
-0.0569504
-0.0667828
-0.0709301
-0.0710766
-0.0678398
-0.0618536
-0.0540787
-0.0458322
-0.038404
-0.0327187
-0.029279
-0.0282502
-0.0296093
-0.033255
-0.0390235
-0.0464884
-0.0546808
-0.0620102
-0.0666624
-0.0670332
-0.0638709
-0.0193168
-0.0353554
-0.0491744
-0.0572369
-0.0608553
-0.0612808
-0.0591003
-0.0548403
-0.0492359
-0.0432115
-0.0376634
-0.0332648
-0.0304161
-0.0292824
-0.0298749
-0.0321044
-0.0357619
-0.0404176
-0.0453266
-0.0494822
-0.0518941
-0.0517877
-0.0499156
-0.00747607
-0.0336004
-0.0436215
-0.0496415
-0.0527455
-0.0532669
-0.051762
-0.048654
-0.0445006
-0.0399718
-0.0357147
-0.0322276
-0.0298174
-0.0286195
-0.0286465
-0.0298184
-0.0319404
-0.0346485
-0.0374032
-0.0395757
-0.0406316
-0.0401955
-0.0387669
0.0465629
0.0296504
-0.039444
-0.0438628
-0.0461429
-0.0465995
-0.0454925
-0.0431391
-0.039964
-0.036461
-0.0331104
-0.0302881
-0.0282249
-0.0270164
-0.0266624
-0.0270906
-0.028143
-0.0295436
-0.0309162
-0.0318721
-0.0321288
-0.0315178
-0.0303641
0.0725036
0.0694442
0.0477147
-0.0389176
-0.0405556
-0.0408669
-0.0399772
-0.0381355
-0.0356558
-0.0329001
-0.030225
-0.0279165
-0.0261476
-0.0249798
-0.0243967
-0.0243323
-0.0246677
-0.025211
-0.0257123
-0.0259337
-0.0257327
-0.025052
-0.0240962
-0.00888182
0.0749553
0.0745435
-0.0138427
-0.0356151
-0.0357223
-0.0349738
-0.0335217
-0.0315857
-0.0294227
-0.0272923
-0.0254095
-0.0239043
-0.0228153
-0.0221154
-0.0217456
-0.021619
-0.0216121
-0.0215704
-0.0213544
-0.0209019
-0.0202141
-0.019411
-0.0302425
0.0370245
0.0258285
-0.0152446
-0.0298216
-0.0310054
-0.0303914
-0.0292795
-0.0278076
-0.0261478
-0.0244822
-0.0229674
-0.0217016
-0.0207121
-0.0199704
-0.0194257
-0.0190161
-0.018667
-0.0182923
-0.0178189
-0.0172308
-0.0165612
-0.0158677
-0.0281385
-0.0265513
-0.0265303
-0.0261172
-0.0264306
-0.0266388
-0.0263172
-0.0255082
-0.0244377
-0.0232107
-0.0219444
-0.020747
-0.0196931
-0.0188057
-0.0180635
-0.0174266
-0.0168523
-0.0162988
-0.0157249
-0.0151002
-0.0144356
-0.0137793
-0.0131444
-0.0265152
-0.0249317
-0.0239131
-0.0236456
-0.0235564
-0.0233459
-0.0229549
-0.022373
-0.0216204
-0.0207419
-0.0198003
-0.0188637
-0.0179859
-0.0171886
-0.0164617
-0.0157787
-0.0151121
-0.0144409
-0.0137506
-0.0130355
-0.012321
-0.0116599
-0.0110357
-0.0253365
-0.023725
-0.022292
-0.0215287
-0.0211093
-0.020769
-0.0204005
-0.0199598
-0.0194273
-0.0188026
-0.0181049
-0.0173674
-0.0166251
-0.0158984
-0.0151874
-0.0144795
-0.0137598
-0.0130209
-0.0122627
-0.0114922
-0.0107406
-0.0100603
-0.00941601
-0.0241749
-0.0226444
-0.0210763
-0.0200366
-0.0193946
-0.0189421
-0.0185661
-0.0182015
-0.0178039
-0.0173447
-0.0168125
-0.0162143
-0.0155691
-0.0148937
-0.0141951
-0.0134721
-0.0127215
-0.0119448
-0.0111498
-0.0103485
-0.00957288
-0.00887119
-0.00819681
-0.0229647
-0.0215491
-0.0200236
-0.0188995
-0.0181545
-0.0176392
-0.0172516
-0.0169222
-0.0165961
-0.0162302
-0.0157963
-0.0152855
-0.0147042
-0.0140644
-0.0133764
-0.0126473
-0.0118827
-0.0110911
-0.0102838
-0.00947395
-0.00869043
-0.00797542
-0.0072765
-0.0217278
-0.0204365
-0.0190247
-0.0179267
-0.0171649
-0.0166289
-0.0162333
-0.0159134
-0.0156134
-0.0152862
-0.0148983
-0.0144331
-0.0138893
-0.013274
-0.0125982
-0.0118737
-0.0111122
-0.0103262
-0.00952842
-0.00873058
-0.00795688
-0.0072422
-0.0065326
-0.0204874
-0.0193149
-0.0180241
-0.0169967
-0.0162604
-0.0157261
-0.0153228
-0.0149936
-0.0146873
-0.0143603
-0.0139807
-0.0135306
-0.0130048
-0.0124068
-0.011747
-0.0110389
-0.0102971
-0.00953553
-0.00876623
-0.00799858
-0.00725162
-0.00655271
-0.00584974
-0.0192437
-0.0181823
-0.016994
-0.0160364
-0.0153334
-0.0148055
-0.0143904
-0.0140384
-0.0137055
-0.0133552
-0.012961
-0.0125069
-0.0119867
-0.0114024
-0.0107631
-0.0100823
-0.00937452
-0.00865297
-0.00792774
-0.00720545
-0.00650039
-0.00583306
-0.00515553
-0.0179831
-0.0170263
-0.015918
-0.0150105
-0.0143303
-0.0138027
-0.0133698
-0.0129878
-0.0126199
-0.0122374
-0.0118195
-0.0113537
-0.0108346
-0.010264
-0.00965028
-0.00900573
-0.00834313
-0.00767332
-0.0070039
-0.00633899
-0.0056889
-0.00506846
-0.00443543
-0.0166908
-0.0158325
-0.0147865
-0.0139095
-0.0132382
-0.0127025
-0.0122482
-0.0118359
-0.0114353
-0.0110236
-0.0105849
-0.0101099
-0.00959483
-0.00904239
-0.00846051
-0.00785979
-0.00725042
-0.00664045
-0.00603502
-0.00543634
-0.00485174
-0.0042918
-0.0037207
-0.0153585
-0.014593
-0.0135996
-0.0127429
-0.0120715
-0.011523
-0.0110483
-0.0106124
-0.0101892
-0.00975989
-0.00931177
-0.00883764
-0.0083358
-0.00780988
-0.00726745
-0.00671725
-0.00616688
-0.00562181
-0.00508531
-0.00455845
-0.00404662
-0.00355751
-0.00306206
-0.013989
-0.0133122
-0.0123708
-0.0115345
-0.0108618
-0.0103024
-0.00981421
-0.00936641
-0.0089355
-0.00850446
-0.00806219
-0.00760309
-0.00712686
-0.00663777
-0.0061427
-0.00564857
-0.00516073
-0.00468281
-0.00421701
-0.00376407
-0.0033284
-0.00291612
-0.00250496
-0.0125994
-0.0120104
-0.0111274
-0.0103185
-0.0096503
-0.0090886
-0.00859916
-0.00815431
-0.00773169
-0.00731497
-0.00689385
-0.00646373
-0.00602507
-0.00558208
-0.00514054
-0.00470571
-0.00428129
-0.00386989
-0.00347342
-0.00309301
-0.0027328
-0.00239847
-0.00207433
-0.0112136
-0.010718
-0.00990486
-0.00913289
-0.00847903
-0.00792803
-0.00745242
-0.00702584
-0.00662613
-0.00623729
-0.00584966
-0.00545932
-0.0050669
-0.00467595
-0.00429093
-0.00391564
-0.00355278
-0.0032046
-0.00287325
-0.00256063
-0.00227111
-0.00201065
-0.00176986
-0.00983812
-0.00946159
-0.00873418
-0.00800831
-0.00738004
-0.00685432
-0.00640773
-0.00601313
-0.00564796
-0.00529679
-0.00495089
-0.00460689
-0.00426524
-0.00392848
-0.0035997
-0.00328157
-0.00297621
-0.00268584
-0.00241303
-0.00216042
-0.00193274
-0.00173669
-0.00156884
-0.00847067
-0.00826548
-0.00763435
-0.00696038
-0.00636851
-0.00588257
-0.00547886
-0.00512719
-0.00480471
-0.0044973
-0.00419756
-0.00390275
-0.00361292
-0.00332954
-0.00305444
-0.00278937
-0.00253603
-0.00229657
-0.00207373
-0.00187055
-0.00169203
-0.00154574
-0.00143388
-0.00720926
-0.00721528
-0.00664666
-0.00599699
-0.00544514
-0.00501518
-0.00466756
-0.00436657
-0.00409115
-0.00382999
-0.00357758
-0.00333181
-0.00309228
-0.00285939
-0.00263385
-0.00241654
-0.00220861
-0.0020118
-0.00182849
-0.00166155
-0.00151587
-0.00139976
-0.00132072
-0.00625501
-0.00658381
-0.00596514
-0.00514428
-0.0046072
-0.00425565
-0.00397649
-0.00372863
-0.00349951
-0.00328302
-0.00307582
-0.0028762
-0.00268319
-0.00249613
-0.00231464
-0.00213863
-0.00196833
-0.00180449
-0.00164849
-0.00150235
-0.00137017
-0.00126021
-0.00118454
-0.00502006
-0.00731251
-0.00594257
-0.0044181
-0.00385693
-0.00359893
-0.00338589
-0.00318421
-0.00299596
-0.00282034
-0.00265527
-0.00249882
-0.00234915
-0.00220438
-0.00206284
-0.0019231
-0.00178406
-0.00164499
-0.00150557
-0.00136609
-0.00122881
-0.00109999
-0.000987508
-0.00117849
-0.0101712
-0.00583166
-0.00358409
-0.00301933
-0.00275918
-0.00256432
-0.00240152
-0.00226456
-0.00214794
-0.00204695
-0.00195753
-0.00187581
-0.00179812
-0.00172104
-0.00164152
-0.00155682
-0.00146453
-0.00136266
-0.00124985
-0.00112618
-0.000994496
-0.000860461
759.884
748.847
766.85
766.647
891.97
880.785
865.595
846.376
897.682
885.949
881.235
878.008
869.212
860.285
825.902
809.199
149.785
130.773
96.002
7.11297
-0.50143
0.340561
1.8788
2.7172
0.359088
0.667125
0.829426
1.06165
0.281564
0.362218
0.596026
0.827018
0.207764
0.28108
0.464576
0.885684
0.0562611
0.124412
0.357668
0.742014
-0.0851659
-0.0357169
0.118005
2.60757
-0.132425
-0.10471
0.414842
2.30265
-0.123598
0.00412855
0.511105
0.750942
-0.0731312
0.0371887
0.0650701
-0.105073
-0.0667828
-0.0668376
-0.093107
-0.0987996
-0.0655194
-0.070037
-0.0751605
-0.0795192
-0.0512111
-0.0542326
-0.0580514
-0.060931
-0.0395703
-0.0415089
-0.0439529
-0.04572
-0.0306348
-0.03163
-0.0329479
-0.0338591
-0.0239223
-0.024151
-0.024556
-0.0247921
-0.0189179
-0.0185807
-0.01829
-0.0180028
-0.0151612
-0.014435
-0.0136494
-0.0129761
-0.0122841
-0.0112999
-0.0101839
-0.00924412
-0.0100535
-0.00890003
-0.00757056
-0.00645788
-0.00834108
-0.00708421
-0.00562835
-0.00440918
-0.00706734
-0.00576262
-0.00424707
-0.00297077
-0.0061346
-0.00483176
-0.00331395
-0.00202387
-0.00541626
-0.00416006
-0.00269452
-0.00143657
-0.00478951
-0.00361878
-0.00225632
-0.00107895
-0.00417553
-0.0031209
-0.00190329
-0.000850171
-0.00355481
-0.00263678
-0.00159149
-0.000693333
-0.00295378
-0.00218234
-0.00132063
-0.000591171
-0.00241791
-0.00179372
-0.00111258
-0.000549612
-0.00198694
-0.00150336
-0.000989418
-0.000579158
-0.00167971
-0.0013247
-0.000958527
-0.000680834
-0.00148927
-0.0012469
-0.00100649
-0.000839432
-0.00138597
-0.00123746
-0.0011002
-0.00102275
-0.00132615
-0.00125036
-0.00119311
-0.00118499
-0.00126011
-0.00123287
-0.00122989
-0.00126815
-0.00114297
-0.00113835
-0.00115822
-0.00120872
-0.000902177
-0.000872517
-0.000870386
-0.000900442
-0.000756382
-0.000708953
-0.00068258
-0.000673649
720.692
754.445
779.773
749.794
443.945
433.184
467.945
562.279
569.433
471.864
414.11
398.22
376.238
341.602
293.251
299.702
327.693
354.475
308.65
810.707
807.921
798.306
672.973
328.143
269.911
281.233
273.055
319.11
398.541
416.541
370.795
257.944
188.512
176.516
167.821
133.509
128.415
123.497
874.415
766.724
457.16
288.047
148.487
200.698
207.648
67.864
98.9739
253.455
270.347
184.379
177.481
178.916
176.704
214.149
210.668
131.718
119.216
680.57
201.174
40.9552
35.5373
42.7257
123.549
111.669
51.9203
49.9408
78.2456
159.066
213.976
217.259
214.533
216.331
217.761
217.346
130.602
115.739
7.76903
27.566
20.4046
23.9652
31.6442
43.0064
46.9904
48.089
45.1079
41.5678
51.4235
137.32
176.085
140.304
124.726
164.428
224.999
208.337
168.494
6.9835
7.54555
12.1354
19.4916
44.3717
46.7005
45.173
45.976
45.3559
37.9773
33.4676
13.5326
4.45536
3.6739
3.86489
5.95571
48.7626
97.9314
95.8547
2.24715
4.20549
36.0962
57.508
58.6585
59.5429
60.4135
60.3321
59.1739
57.2456
37.9227
26.34
9.04049
3.62106
3.49806
1.93505
1.20272
7.05633
4.96356
1.64903
21.5984
59.4905
60.1532
59.939
60.1833
60.3421
60.2788
48.4149
26.7004
13.2825
4.63683
3.91908
6.44872
7.3912
2.29239
0.566583
0.476594
0.487176
8.36763
59.0682
61.7643
56.5125
12.2147
6.41648
5.29536
1.94384
0.307275
0.248502
0.370379
0.436006
0.440885
0.441155
1.7881
1.53723
0.487406
0.465039
0.485653
11.1323
54.0114
48.8212
5.09627
-0.0648692
-0.0472803
0.0650005
0.156383
0.233455
0.288971
0.354391
0.442604
0.456128
0.409408
0.443387
0.828512
0.45202
0.43785
0.437362
10.2403
10.7846
4.2326
-0.0724784
-0.0721343
-0.0210382
0.0989803
0.231738
0.280998
0.287242
0.615435
0.765573
0.773603
0.538151
0.418019
0.412074
0.439117
0.43828
0.444309
3.12303
0.152725
-0.10227
-0.118461
-0.0771125
-0.0298026
0.0247025
0.104451
0.211912
0.515848
0.718003
0.741444
0.753693
0.758309
0.579809
0.40802
0.419855
0.538757
0.58858
-0.0630032
-0.0907812
-0.135248
-0.111077
-0.0718638
-0.0305055
0.0134288
0.0573999
0.120145
0.581221
0.702948
0.721991
0.721973
0.734291
0.725522
0.405108
0.424532
0.582076
0.579599
-0.111004
-0.116442
-0.113827
-0.0901102
-0.0584877
-0.0252593
0.00942495
0.043969
0.191453
0.668309
0.698054
0.637515
0.2244
0.213117
0.382623
0.478878
0.470037
0.365909
0.472205
-0.102798
-0.103652
-0.0734971
-0.0315199
-0.0114669
-0.0166096
0.00777348
0.0337483
0.237667
0.669953
0.669953
0.153436
0.126703
0.140746
0.185491
0.237784
0.20313
0.210434
0.258444
-0.082736
-0.0814466
-0.0446626
0.00483612
0.0225017
0.040354
0.00794377
0.0274047
0.126692
0.653404
0.366445
0.0890603
0.107299
0.119528
0.127257
0.132919
0.137622
0.219261
0.44443
-0.0628055
-0.0619676
-0.0312087
0.0223822
0.0353028
0.0503532
0.0605299
0.0290157
0.130628
0.145853
0.0532242
0.074622
0.0905866
0.101185
0.107673
0.111311
0.122161
0.391166
0.432477
-0.0467101
-0.046253
-0.0331604
0.0309527
0.046283
0.0577827
0.0705158
0.0827713
0.0502837
0.032076
0.0482408
0.0642722
0.0771762
0.0854655
0.0902157
0.0920278
0.104708
0.41698
0.424755
-0.0342398
-0.0338157
-0.031409
-0.0190746
0.0118809
0.0440158
0.0677539
0.0558894
0.0223722
0.0308708
0.0438851
0.0586946
0.068773
0.0741675
0.0757033
0.0764629
0.0741345
0.224317
0.422277
-0.0247334
-0.0243043
-0.0227401
-0.0196744
-0.014921
-0.00660153
0.00474171
0.00944098
0.0215169
0.0288043
0.0389721
0.0515253
0.0594755
0.0622199
0.0643683
0.064958
0.0631285
0.0603597
0.425098
-0.0176012
-0.0171587
-0.0158855
-0.0134471
-0.00965657
-0.0045356
0.00180617
0.00915037
0.0193992
0.0277297
0.035022
0.0426923
0.0490314
0.0530331
0.0559457
0.0570345
0.0566019
0.0564041
0.238891
-0.0123059
-0.011831
-0.010713
-0.00866377
-0.00553723
-0.00132583
0.00388984
0.00993208
0.0168236
0.0258628
0.0327542
0.0369812
0.0422858
0.0467047
0.0498605
0.0518244
0.0531616
0.0554637
0.0588381
-0.0083775
-0.00784764
-0.0067998
-0.00499951
-0.00235077
0.00116466
0.00549424
0.0105041
0.0159786
0.0224217
0.0293338
0.0341519
0.0379782
0.042001
0.0454366
0.0483767
0.0515296
0.0562576
0.0625906
-0.00545591
-0.00486449
-0.00384787
-0.00222139
6.92565e-05
0.00304447
0.006674
0.0108615
0.0154512
0.0202684
0.0252511
0.0306334
0.0350385
0.0384776
0.0420116
0.0457283
0.0502495
0.062206
0.166462
-0.00331565
-0.00266482
-0.00166636
-0.000173725
0.00183829
0.00438946
0.00746621
0.011003
0.0148908
0.0190012
0.0232036
0.0273994
0.0315383
0.0353614
0.0390943
0.043187
0.0482976
0.115075
0.297431
-0.00181314
-0.00110959
-0.00012721
0.00125605
0.00304754
0.00526561
0.00790847
0.0109341
0.0142679
0.017818
0.0214896
0.025195
0.0288815
0.0325654
0.036349
0.0405152
0.0455776
0.152058
0.302293
-0.000829262
-8.54109e-05
0.000877612
0.00216776
0.00378294
0.00573956
0.00804314
0.0106682
0.0135642
0.0166671
0.0199103
0.0232377
0.0266238
0.0300964
0.0337575
0.037828
0.0427123
0.126415
0.307885
-0.000243562
0.00051987
0.00145517
0.00266097
0.00413095
0.00587936
0.00791536
0.0102239
0.0127705
0.0155104
0.0183983
0.0214
0.0245084
0.0277612
0.0312568
0.035208
0.0400635
0.103521
0.314012
6.19336e-05
0.000815624
0.00170886
0.00283104
0.00417413
0.0057501
0.00756895
0.00962129
0.0118825
0.0143204
0.0169041
0.0196146
0.0224573
0.0254766
0.02877
0.0325526
0.0373223
0.15588
0.319881
0.000186012
0.000896022
0.00172815
0.00276044
0.00398398
0.00540846
0.00704264
0.00887936
0.0108994
0.0130781
0.0153936
0.017836
0.0204179
0.0231853
0.0262312
0.0297474
0.0342056
0.196114
0.325152
0.000196103
0.000830395
0.00158087
0.00251251
0.00361603
0.00489914
0.00636799
0.00801524
0.00982413
0.0117741
0.0138482
0.0160409
0.0183673
0.0208718
0.0236385
0.0268337
0.0309149
0.193529
0.329748
0.000128015
0.000661978
0.00131194
0.00213032
0.0031088
0.00425433
0.0055696
0.00704535
0.0086651
0.0104101
0.0122653
0.0142264
0.0163079
0.0185508
0.0210271
0.0239101
0.0277433
0.210267
0.282172
-4.63666e-06
0.000413978
0.00094793
0.00164015
0.0024867
0.00349621
0.00466723
0.00598692
0.00743701
0.00899857
0.0106565
0.0124059
0.0142581
0.0162513
0.0184357
0.0209497
0.0657994
0.225222
0.179873
-0.000197154
9.91947e-05
0.000504555
0.00105751
0.00176471
0.00264083
0.00367856
0.00485916
0.0061603
0.00756095
0.00904489
0.0106055
0.0122512
0.0140156
0.0159255
0.0180844
0.0246701
0.227098
0.204075
-0.000442328
-0.000270586
-5.67374e-06
0.00039241
0.000951834
0.00170086
0.00262089
0.0036833
0.0048591
0.0061235
0.00745863
0.00885716
0.0103274
0.0118996
0.0135993
0.0155389
0.0181966
0.146729
0.118127
-0.000723228
-0.000677392
-0.000567638
-0.000347563
5.18089e-05
0.000686142
0.00151107
0.00248144
0.00355872
0.00471316
0.00592548
0.0071891
0.00851486
0.00993439
0.0114965
0.01335
0.0164138
0.022105
0.0264884
-0.00101002
-0.00109226
-0.00115808
-0.00115368
-0.000934693
-0.00039327
0.000367515
0.00127721
0.00228502
0.00335575
0.00446929
0.00561812
0.00681252
0.00809641
0.00955457
0.011388
0.0141812
0.0186333
0.0241758
-0.00125861
-0.00146878
-0.00173581
-0.00201209
-0.00201475
-0.0015283
-0.000789374
9.59274e-05
0.00106396
0.00207483
0.00310568
0.00414592
0.00520762
0.00634139
0.00765709
0.0111149
0.020295
0.0175081
0.0215985
-0.00140438
-0.00172835
-0.00223412
-0.00295408
-0.00332225
-0.00279862
-0.00199446
-0.00107738
-0.000110549
0.000868982
0.00183643
0.00277507
0.00369162
0.004646
0.00845752
0.0240449
0.0273562
0.018125
0.018415
-0.0013576
-0.00175702
-0.00261114
-0.00430215
-0.00552931
-0.00463611
-0.00351233
-0.0024307
-0.00137952
-0.000361578
0.000601132
0.00148729
0.00227525
0.00517118
0.0213225
0.0226211
0.024688
0.017828
0.0146676
-0.00103527
-0.00145678
-0.0028768
-0.00670483
-0.00949568
-0.00737925
-0.0055219
-0.00410137
-0.00285544
-0.00170545
-0.000655105
0.000272946
0.00102221
0.00253109
0.0188319
0.0201727
0.0215471
0.0124625
0.010067
-0.000715016
-0.00109847
-0.00287798
-0.00881428
-0.00988565
-0.00690376
-0.00505738
-0.00385116
-0.0028623
-0.0019715
-0.00116324
-0.000438503
0.000162169
0.000446703
0.00165753
0.00699701
0.00618067
0.00336983
0.00526968
)
;

boundaryField
{
    leftWall
    {
        type            fixedFluxPressure;
        gradient        uniform 0;
        value           nonuniform List<scalar> 
50
(
858.784
858.746
858.642
858.387
857.95
857.355
856.669
855.987
855.232
856.162
756.868
224.532
28.0816
27.6576
25.7531
19.2468
-0.101808
-0.0820911
-0.0807812
-0.0650002
-0.0476051
-0.0319374
-0.0223606
-0.0184188
-0.0193168
-0.00747607
0.0465629
0.0725036
-0.00888182
-0.0302425
-0.0281385
-0.0265152
-0.0253365
-0.0241749
-0.0229647
-0.0217278
-0.0204874
-0.0192437
-0.0179831
-0.0166908
-0.0153585
-0.013989
-0.0125994
-0.0112136
-0.00983812
-0.00847067
-0.00720926
-0.00625501
-0.00502006
-0.00117849
)
;
    }
    rightWall
    {
        type            fixedFluxPressure;
        gradient        uniform 0;
        value           nonuniform List<scalar> 
50
(
579.743
578.992
578.622
578.442
578.3
578.028
577.201
529.692
308.65
123.497
119.216
115.739
168.494
95.8547
4.96356
0.487176
0.485653
0.437362
0.444309
0.58858
0.579599
0.472205
0.258444
0.44443
0.432477
0.424755
0.422277
0.425098
0.238891
0.0588381
0.0625906
0.166462
0.297431
0.302293
0.307885
0.314012
0.319881
0.325152
0.329748
0.282172
0.179873
0.204075
0.118127
0.0264884
0.0241758
0.0215985
0.018415
0.0146676
0.010067
0.00526968
)
;
    }
    lowerWall
    {
        type            fixedFluxPressure;
        gradient        uniform 0;
        value           nonuniform List<scalar> 
62
(
858.784
859.519
861.559
864.563
867.642
871.128
875.046
879.341
883.893
888.575
893.3
898.037
902.831
907.809
913.214
919.516
926.797
935.161
946.521
959.986
975.014
987.373
996.9
996.9
998.783
1002.01
1006.23
1011.07
1011.94
1006.2
986.129
759.884
748.847
766.85
766.647
660.782
659.023
656.547
653.513
646.053
612.195
642.892
633.924
660.782
672.156
688.274
689.38
675.306
652.85
628.354
605.958
585.267
566.132
555.469
554.038
557.524
560.55
564.759
568.279
571.292
575.446
579.743
)
;
    }
    atmosphere
    {
        type            totalPressure;
        rho             rho;
        psi             none;
        gamma           1;
        p0              uniform 0;
        value           nonuniform List<scalar> 
46
(
-0.00176322
-0.00402413
-0.0032365
-0.00269645
-0.00235379
-0.00211075
-0.00193231
-0.00180051
-0.00170392
-0.00163399
-0.00158381
-0.00154744
-0.00151958
-0.00149542
-0.0014705
-0.00144075
-0.00140249
-0.00135251
-0.00128809
-0.00120712
-0.00110821
-0.000990915
-0.00085612
-0.00074292
-0.000666879
-0.000586282
-0.000503108
-0.000370572
-0.000208565
-8.83586e-05
-9.88719e-06
0
0
0
0
0
0
0
0
0
0
0
0
0
0
0
)
;
    }
    defaultFaces
    {
        type            empty;
    }
}


// ************************************************************************* //
