/*--------------------------------*- C++ -*----------------------------------*\
| =========                 |                                                 |
| \\      /  F ield         | OpenFOAM: The Open Source CFD Toolbox           |
|  \\    /   O peration     | Version:  2.3.0                                 |
|   \\  /    A nd           | Web:      www.OpenFOAM.org                      |
|    \\/     M anipulation  |                                                 |
\*---------------------------------------------------------------------------*/
FoamFile
{
    version     2.0;
    format      ascii;
    class       surfaceScalarField;
    location    "1.6";
    object      phi;
}
// * * * * * * * * * * * * * * * * * * * * * * * * * * * * * * * * * * * * * //

dimensions      [0 3 -1 0 0 0 0];

internalField   nonuniform List<scalar> 
4432
(
-2.00587e-06
2.00587e-06
-1.43801e-06
-5.67866e-07
-8.06842e-10
-1.43721e-06
1.51797e-06
-1.51878e-06
3.00026e-06
-1.4823e-06
4.42198e-06
-1.42174e-06
5.8255e-06
-1.40352e-06
7.25294e-06
-1.42743e-06
8.72171e-06
-1.46877e-06
1.02222e-05
-1.50047e-06
1.17221e-05
-1.49993e-06
1.31702e-05
-1.44806e-06
1.44976e-05
-1.32743e-06
1.56162e-05
-1.11865e-06
1.64014e-05
-7.85117e-07
1.66126e-05
-2.11273e-07
1.57722e-05
8.4045e-07
1.37081e-05
2.0641e-06
1.05302e-05
3.17783e-06
6.50391e-06
4.02635e-06
2.05688e-06
4.44703e-06
-1.33658e-06
3.39344e-06
-1.33657e-06
-6.09137e-07
2.615e-06
6.7489e-08
-1.24451e-06
1.06012e-06
-2.42987e-06
2.17765e-06
-2.63633e-06
3.33765e-06
-2.64232e-06
4.54383e-06
-2.62793e-06
5.81371e-06
-2.6734e-06
7.16239e-06
-2.77612e-06
8.58697e-06
-2.89335e-06
1.00641e-05
-2.97765e-06
1.15541e-05
-2.98986e-06
1.30027e-05
-2.89671e-06
1.4342e-05
-2.66668e-06
1.54858e-05
-2.26244e-06
1.63205e-05
-1.61986e-06
1.67136e-05
-6.0438e-07
1.64951e-05
1.05897e-06
1.5361e-05
3.19824e-06
1.30975e-05
5.44141e-06
9.69154e-06
7.43228e-06
5.36281e-06
8.77576e-06
1.48578e-06
7.27048e-06
1.49195e-07
3.76288e-07
2.2387e-06
9.25074e-07
-1.79331e-06
1.60214e-06
-3.10695e-06
2.41614e-06
-3.45034e-06
3.35314e-06
-3.57933e-06
4.40878e-06
-3.68357e-06
5.58668e-06
-3.85131e-06
6.88532e-06
-4.07476e-06
8.28697e-06
-4.29499e-06
9.75797e-06
-4.44866e-06
1.1253e-05
-4.48483e-06
1.27161e-05
-4.35984e-06
1.408e-05
-4.0306e-06
1.52617e-05
-3.44411e-06
1.61558e-05
-2.5139e-06
1.66377e-05
-1.08636e-06
1.6613e-05
1.08372e-06
1.58761e-05
3.93513e-06
1.41608e-05
7.15672e-06
1.13406e-05
1.02525e-05
7.57133e-06
1.2545e-05
3.58651e-06
1.12553e-05
3.7357e-06
9.29291e-07
1.3094e-06
1.39274e-06
-2.25677e-06
1.82143e-06
-3.53566e-06
2.40407e-06
-4.03298e-06
3.16769e-06
-4.34296e-06
4.10562e-06
-4.62151e-06
5.21403e-06
-4.95971e-06
6.48076e-06
-5.34149e-06
7.87649e-06
-5.69071e-06
9.35864e-06
-5.93081e-06
1.0877e-05
-6.00321e-06
1.23744e-05
-5.85721e-06
1.37848e-05
-5.44099e-06
1.50302e-05
-4.68952e-06
1.6017e-05
-3.50071e-06
1.6643e-05
-1.71239e-06
1.68299e-05
8.9682e-07
1.642e-05
4.34508e-06
1.51375e-05
8.43925e-06
1.2815e-05
1.2575e-05
9.49787e-06
1.58621e-05
5.35056e-06
1.54026e-05
9.08627e-06
1.16662e-06
1.42771e-07
1.54067e-06
-2.63083e-06
1.77471e-06
-3.76971e-06
2.17699e-06
-4.43526e-06
2.80223e-06
-4.9682e-06
3.64445e-06
-5.46373e-06
4.69868e-06
-6.01393e-06
5.94682e-06
-6.58963e-06
7.34988e-06
-7.09377e-06
8.85697e-06
-7.43791e-06
1.04136e-05
-7.55981e-06
1.19615e-05
-7.40515e-06
1.34368e-05
-6.91635e-06
1.4768e-05
-6.02069e-06
1.58743e-05
-4.60701e-06
1.66733e-05
-2.51136e-06
1.70959e-05
4.74149e-07
1.7005e-05
4.43604e-06
1.61435e-05
9.30073e-06
1.43315e-05
1.4387e-05
1.14749e-05
1.87187e-05
7.19909e-06
1.96784e-05
1.62854e-05
1.19667e-06
-1.05391e-06
1.44137e-06
-2.87553e-06
1.51706e-06
-3.8454e-06
1.77857e-06
-4.69678e-06
2.29303e-06
-5.48266e-06
3.05638e-06
-6.22708e-06
4.06793e-06
-7.02548e-06
5.30722e-06
-7.82891e-06
6.7265e-06
-8.51305e-06
8.26675e-06
-8.97816e-06
9.86966e-06
-9.16272e-06
1.14768e-05
-9.01233e-06
1.30271e-05
-8.4666e-06
1.44558e-05
-7.44938e-06
1.56947e-05
-5.84588e-06
1.66772e-05
-3.49393e-06
1.73484e-05
-1.96989e-07
1.75964e-05
4.18806e-06
1.71863e-05
9.7108e-06
1.59534e-05
1.56199e-05
1.37044e-05
2.09677e-05
9.47998e-06
2.39029e-05
2.57653e-05
1.07594e-06
-2.12986e-06
1.17691e-06
-2.9765e-06
1.12781e-06
-3.79631e-06
1.28107e-06
-4.85004e-06
1.70663e-06
-5.90822e-06
2.40309e-06
-6.92354e-06
3.37827e-06
-8.00066e-06
4.61218e-06
-9.06281e-06
6.04864e-06
-9.94951e-06
7.6206e-06
-1.05501e-05
9.26681e-06
-1.08089e-05
1.09297e-05
-1.06752e-05
1.25517e-05
-1.00886e-05
1.40755e-05
-8.97312e-06
1.54441e-05
-7.21452e-06
1.66059e-05
-4.65571e-06
1.75244e-05
-1.11548e-06
1.81244e-05
3.5881e-06
1.82051e-05
9.63003e-06
1.76626e-05
1.61625e-05
1.63136e-05
2.23167e-05
1.24023e-05
2.78142e-05
3.81676e-05
8.54914e-07
-2.98477e-06
8.43356e-07
-2.96495e-06
7.02915e-07
-3.65587e-06
7.75644e-07
-4.92277e-06
1.13126e-06
-6.26384e-06
1.76921e-06
-7.56148e-06
2.70898e-06
-8.94041e-06
3.93356e-06
-1.02874e-05
5.37843e-06
-1.13944e-05
6.96877e-06
-1.21405e-05
8.64196e-06
-1.24821e-05
1.03429e-05
-1.23762e-05
1.20185e-05
-1.17642e-05
1.36194e-05
-1.0574e-05
1.50994e-05
-8.69452e-06
1.64197e-05
-5.97609e-06
1.75637e-05
-2.25942e-06
1.85107e-05
2.64108e-06
1.91077e-05
9.03306e-06
1.93957e-05
1.58744e-05
1.92349e-05
2.24775e-05
1.67467e-05
3.03024e-05
5.49144e-05
-5.30577e-06
5.30576e-06
-7.31865e-07
-4.57391e-06
6.48216e-06
-7.21403e-06
1.26765e-05
-6.19439e-06
1.73396e-05
-4.66307e-06
2.0568e-05
-3.22839e-06
2.23132e-05
-1.74517e-06
2.28623e-05
-5.49143e-07
2.16627e-05
1.19965e-06
1.67661e-05
4.89655e-06
8.79346e-06
7.97262e-06
2.26191e-06
6.53159e-06
-9.58015e-07
3.21991e-06
-3.18526e-06
2.22727e-06
-4.66813e-06
1.48286e-06
-5.63313e-06
9.64988e-07
-6.26937e-06
6.36271e-07
-4.83652e-06
-1.43291e-06
-4.83649e-06
-2.36038e-06
7.66616e-06
2.28439e-06
-9.21866e-06
8.49619e-06
-1.34258e-05
1.31608e-05
-1.0859e-05
1.60032e-05
-7.50549e-06
1.76329e-05
-4.85803e-06
1.83317e-05
-2.4439e-06
1.85553e-05
-7.728e-07
1.81431e-05
1.61181e-06
1.58548e-05
7.18484e-06
1.09493e-05
1.28781e-05
4.99017e-06
1.24907e-05
1.22997e-06
6.98007e-06
-1.16806e-06
4.62527e-06
-2.95979e-06
3.27464e-06
-4.11979e-06
2.12495e-06
-4.47563e-06
9.92154e-07
-3.20866e-06
-2.69989e-06
-8.04513e-06
1.54017e-07
7.51215e-06
4.91714e-06
-1.39818e-05
1.04168e-05
-1.89255e-05
1.37924e-05
-1.42346e-05
1.51275e-05
-8.84059e-06
1.54668e-05
-5.19737e-06
1.5285e-05
-2.26202e-06
1.49773e-05
-4.65165e-07
1.4207e-05
2.38209e-06
1.31194e-05
8.27242e-06
1.11788e-05
1.48187e-05
6.81002e-06
1.68595e-05
3.12514e-06
1.0665e-05
5.03971e-07
7.24643e-06
-1.47018e-06
5.24883e-06
-2.71859e-06
3.37332e-06
-3.09662e-06
1.37021e-06
-2.05046e-06
-3.74607e-06
-1.00956e-05
1.81154e-06
5.70061e-06
7.68008e-06
-1.98503e-05
1.29073e-05
-2.41527e-05
1.49477e-05
-1.6275e-05
1.47049e-05
-8.59777e-06
1.37548e-05
-4.24731e-06
1.26555e-05
-1.16267e-06
1.1675e-05
5.15265e-07
1.08637e-05
3.19349e-06
1.09722e-05
8.16395e-06
1.08171e-05
1.49738e-05
8.35316e-06
1.93234e-05
4.95985e-06
1.40583e-05
2.01183e-06
1.01944e-05
-8.53234e-08
7.34601e-06
-1.41637e-06
4.70435e-06
-1.83908e-06
1.79293e-06
-1.29882e-06
-4.28634e-06
-1.13944e-05
3.54002e-06
2.16061e-06
1.17318e-05
-2.80421e-05
1.67838e-05
-2.92046e-05
1.70104e-05
-1.65016e-05
1.47371e-05
-6.32446e-06
1.22721e-05
-1.78235e-06
1.02215e-05
8.87989e-07
8.63726e-06
2.09948e-06
8.27379e-06
3.55693e-06
9.10064e-06
7.3371e-06
1.01918e-05
1.38826e-05
9.51494e-06
2.00003e-05
6.43442e-06
1.71388e-05
3.41873e-06
1.32101e-05
1.29825e-06
9.4665e-06
-5.91029e-08
6.06168e-06
-5.81105e-07
2.31493e-06
-5.34922e-07
-4.33252e-06
-1.19293e-05
7.96109e-06
-5.80048e-06
1.7781e-05
-3.7862e-05
2.21535e-05
-3.35772e-05
2.04742e-05
-1.48223e-05
1.53061e-05
-1.15639e-06
1.10447e-05
2.4791e-06
8.16055e-06
3.77209e-06
6.48871e-06
3.77132e-06
6.30373e-06
3.7419e-06
7.42752e-06
6.21332e-06
9.26059e-06
1.20495e-05
9.86801e-06
1.93929e-05
7.37656e-06
1.96302e-05
4.65748e-06
1.59292e-05
2.70799e-06
1.1416e-05
1.4328e-06
7.33686e-06
8.33986e-07
2.91375e-06
5.53342e-07
-4.05186e-06
-1.1376e-05
1.62741e-05
-2.20746e-05
2.46154e-05
-4.62033e-05
2.72254e-05
-3.61872e-05
2.47737e-05
-1.23706e-05
1.67305e-05
6.88677e-06
1.06439e-05
8.5657e-06
6.95946e-06
7.45651e-06
5.05074e-06
5.68003e-06
4.77244e-06
4.02021e-06
5.84195e-06
5.14384e-06
8.02018e-06
9.87129e-06
9.45333e-06
1.79598e-05
8.22234e-06
2.08613e-05
5.85467e-06
1.82968e-05
4.16709e-06
1.31036e-05
3.07028e-06
8.43366e-06
2.50598e-06
3.47805e-06
2.13796e-06
-3.68383e-06
-9.23799e-06
2.65641e-05
-4.86387e-05
3.07353e-05
-5.03745e-05
3.08443e-05
-3.62962e-05
2.82115e-05
-9.73784e-06
1.91643e-05
1.5934e-05
1.12259e-05
1.65041e-05
6.50534e-06
1.21771e-05
4.03224e-06
8.15314e-06
3.41676e-06
4.63568e-06
4.23282e-06
4.32782e-06
6.275e-06
7.82912e-06
8.5451e-06
1.56897e-05
8.93593e-06
2.04704e-05
7.27864e-06
1.99541e-05
5.7072e-06
1.4675e-05
4.83482e-06
9.30605e-06
4.39123e-06
3.92165e-06
3.97951e-06
-3.27208e-06
-5.25849e-06
1.08382e-06
-4.06859e-06
8.09479e-07
-2.69061e-06
2.93041e-07
-3.13944e-06
2.63567e-07
-4.89329e-06
8.55359e-07
-6.85562e-06
2.03891e-06
-8.74502e-06
3.91717e-06
-1.08187e-05
6.47075e-06
-1.2841e-05
9.52796e-06
-1.44516e-05
1.2905e-05
-1.55175e-05
1.64745e-05
-1.60516e-05
2.01348e-05
-1.60365e-05
2.3791e-05
-1.54203e-05
2.73656e-05
-1.41486e-05
3.07946e-05
-1.21236e-05
3.40281e-05
-9.20954e-06
3.70857e-05
-5.31706e-06
4.0104e-05
-3.77211e-07
4.3181e-05
5.95604e-06
4.676e-05
1.22954e-05
5.11447e-05
1.80928e-05
5.90509e-05
2.23962e-05
2.45579e-05
8.94073e-05
1.07355e-06
-5.14215e-06
8.38979e-07
-2.45604e-06
1.11769e-07
-2.41224e-06
8.49655e-08
-4.86649e-06
6.46466e-07
-7.41711e-06
1.62468e-06
-9.72323e-06
3.32283e-06
-1.25168e-05
5.72955e-06
-1.52477e-05
8.61438e-06
-1.73364e-05
1.17887e-05
-1.86918e-05
1.51686e-05
-1.94315e-05
1.86853e-05
-1.95532e-05
2.22641e-05
-1.89991e-05
2.58632e-05
-1.77477e-05
2.9462e-05
-1.57224e-05
3.30354e-05
-1.2783e-05
3.66525e-05
-8.9342e-06
4.05387e-05
-4.26333e-06
4.53044e-05
1.19031e-06
5.10954e-05
6.50438e-06
5.82271e-05
1.0961e-05
6.76104e-05
1.30129e-05
1.16399e-05
8.05284e-05
2.08229e-06
-7.22444e-06
2.06059e-06
-2.43434e-06
1.84759e-06
-2.19923e-06
2.43345e-06
-5.45235e-06
3.14241e-06
-8.12604e-06
3.9452e-06
-1.0526e-05
5.34583e-06
-1.39174e-05
7.3162e-06
-1.7218e-05
9.62218e-06
-1.96424e-05
1.21923e-05
-2.12619e-05
1.50549e-05
-2.22942e-05
1.81581e-05
-2.26564e-05
2.14011e-05
-2.22421e-05
2.47632e-05
-2.11098e-05
2.82715e-05
-1.92307e-05
3.19284e-05
-1.64399e-05
3.58546e-05
-1.28605e-05
4.03681e-05
-8.7768e-06
4.59461e-05
-4.38763e-06
5.25801e-05
-1.29685e-07
6.02654e-05
3.27581e-06
6.89349e-05
4.34333e-06
1.97329e-06
7.86016e-05
5.07803e-07
-7.73225e-06
1.33143e-06
-3.25795e-06
5.22692e-06
-6.09472e-06
8.64186e-06
-8.86728e-06
9.99108e-06
-9.47525e-06
1.08004e-05
-1.13353e-05
1.1666e-05
-1.4783e-05
1.23572e-05
-1.79093e-05
1.28253e-05
-2.01105e-05
1.38037e-05
-2.22403e-05
1.56479e-05
-2.41383e-05
1.80845e-05
-2.5093e-05
2.08244e-05
-2.49819e-05
2.37934e-05
-2.40788e-05
2.70329e-05
-2.24701e-05
3.06121e-05
-2.00191e-05
3.47162e-05
-1.69646e-05
3.969e-05
-1.37506e-05
4.57176e-05
-1.04152e-05
5.27048e-05
-7.11687e-06
6.05683e-05
-4.58773e-06
6.88276e-05
-3.91591e-06
-6.18134e-06
7.69822e-05
-1.35009e-05
5.76873e-06
-6.18278e-06
-1.0576e-05
9.19741e-06
-2.14749e-05
2.33325e-05
-2.30025e-05
3.28816e-05
-1.90243e-05
3.70502e-05
-1.55038e-05
3.70427e-05
-1.47757e-05
3.18958e-05
-1.27623e-05
2.24686e-05
-1.06833e-05
1.72995e-05
-1.70712e-05
1.68573e-05
-2.36962e-05
1.81273e-05
-2.63631e-05
2.01368e-05
-2.69914e-05
2.2441e-05
-2.63831e-05
2.48315e-05
-2.48606e-05
2.76375e-05
-2.28251e-05
3.14695e-05
-2.07966e-05
3.69226e-05
-1.92038e-05
4.39236e-05
-1.74162e-05
5.18734e-05
-1.50667e-05
6.04946e-05
-1.32089e-05
6.96231e-05
-1.30444e-05
-1.52409e-05
7.86827e-05
-2.54433e-06
8.31303e-06
1.04017e-05
-2.35222e-05
2.48829e-05
-3.5956e-05
4.1089e-05
-3.92086e-05
5.64632e-05
-3.43984e-05
6.79754e-05
-2.70161e-05
7.66246e-05
-2.34248e-05
8.4059e-05
-2.01967e-05
7.79255e-05
-4.54981e-06
5.6309e-05
4.54524e-06
4.06842e-05
-8.07155e-06
3.37759e-05
-1.94549e-05
3.18064e-05
-2.5022e-05
3.24506e-05
-2.70274e-05
3.35487e-05
-2.59588e-05
3.06004e-05
-1.98768e-05
2.78759e-05
-1.80721e-05
3.19945e-05
-2.33225e-05
4.11928e-05
-2.66146e-05
5.12284e-05
-2.51022e-05
6.06603e-05
-2.26409e-05
7.05223e-05
-2.29064e-05
-2.6149e-05
8.14304e-05
1.88162e-05
-1.05031e-05
2.99323e-05
-3.46383e-05
3.56253e-05
-4.16489e-05
4.4849e-05
-4.84324e-05
5.52851e-05
-4.48346e-05
6.27788e-05
-3.45098e-05
6.60154e-05
-2.66615e-05
6.66923e-05
-2.08736e-05
6.27087e-05
-5.6636e-07
5.14236e-05
1.58302e-05
4.15071e-05
1.8449e-06
3.62708e-05
-1.42187e-05
3.3028e-05
-2.17793e-05
3.09537e-05
-2.49532e-05
2.98018e-05
-2.48069e-05
2.77686e-05
-1.78438e-05
2.54135e-05
-1.57173e-05
2.66377e-05
-2.45469e-05
3.2276e-05
-3.2253e-05
4.00566e-05
-3.28829e-05
4.62718e-05
-2.88561e-05
4.14741e-05
-1.81087e-05
-7.48744e-06
2.28126e-05
3.56765e-05
-4.61799e-05
4.25044e-05
-4.14659e-05
3.98376e-05
-3.89823e-05
4.16944e-05
-5.02891e-05
4.72061e-05
-5.03464e-05
5.13885e-05
-3.86922e-05
4.89579e-05
-2.4231e-05
4.34118e-05
-1.53276e-05
4.01432e-05
2.70211e-06
3.98027e-05
1.61705e-05
3.75402e-05
4.10726e-06
3.43238e-05
-1.10024e-05
3.06821e-05
-1.81377e-05
2.64124e-05
-2.06835e-05
2.26007e-05
-2.09952e-05
2.18536e-05
-1.70967e-05
2.35887e-05
-1.74529e-05
2.42525e-05
-2.5211e-05
2.52258e-05
-3.32263e-05
2.79577e-05
-3.56147e-05
2.63075e-05
-2.72059e-05
1.65658e-05
-8.36695e-06
1.48644e-05
-5.78618e-06
2.07425e-05
-6.69226e-05
3.36836e-05
-5.44067e-05
3.9743e-05
-4.50412e-05
3.6333e-05
-4.68793e-05
3.07489e-05
-4.47624e-05
2.57687e-05
-3.3712e-05
2.22717e-05
-2.07339e-05
1.74778e-05
-1.05336e-05
1.76426e-05
2.5373e-06
2.48518e-05
8.9612e-06
2.73144e-05
1.64446e-06
2.41631e-05
-7.85109e-06
1.98056e-05
-1.37803e-05
1.57277e-05
-1.66057e-05
1.20471e-05
-1.73147e-05
1.08512e-05
-1.5901e-05
1.03772e-05
-1.6979e-05
8.46636e-06
-2.33002e-05
8.27629e-06
-3.30362e-05
7.21565e-06
-3.45541e-05
3.46167e-06
-2.34519e-05
-4.47484e-06
-4.30434e-07
3.10984e-05
-2.07089e-05
5.73938e-06
-7.26616e-05
8.7636e-06
-5.74313e-05
1.0231e-05
-4.65082e-05
6.00807e-06
-4.26565e-05
-1.06324e-06
-3.7691e-05
-6.04904e-06
-2.87261e-05
-8.00964e-06
-1.87735e-05
-8.43401e-06
-1.01094e-05
-4.54171e-06
-1.35497e-06
2.26242e-06
2.15694e-06
5.71264e-06
-1.80588e-06
5.67389e-06
-7.81226e-06
4.26818e-06
-1.23746e-05
2.5328e-06
-1.48706e-05
8.64929e-07
-1.5647e-05
1.70624e-07
-1.52068e-05
-5.80527e-07
-1.62279e-05
-2.83156e-06
-2.10494e-05
-6.62696e-06
-2.92409e-05
-1.07388e-05
-3.04423e-05
-1.5222e-05
-1.89688e-05
-2.07705e-05
5.11812e-06
4.02265e-05
-2.98985e-05
-5.34069e-06
-6.73204e-05
-8.73873e-06
-5.40344e-05
-1.12026e-05
-4.4044e-05
-1.58483e-05
-3.80105e-05
-2.14527e-05
-3.20865e-05
-2.52368e-05
-2.49421e-05
-2.64523e-05
-1.7558e-05
-2.5618e-05
-1.09437e-05
-2.14203e-05
-5.55275e-06
-1.55456e-05
-3.71788e-06
-1.13422e-05
-6.00929e-06
-9.46021e-06
-9.69432e-06
-9.0287e-06
-1.28063e-05
-9.23786e-06
-1.46615e-05
-9.53866e-06
-1.53462e-05
-9.33372e-06
-1.54118e-05
-9.17222e-06
-1.63896e-05
-1.07251e-05
-1.94967e-05
-1.64436e-05
-2.35223e-05
-2.3952e-05
-2.29339e-05
-2.99403e-05
-1.29804e-05
-3.51417e-05
1.03195e-05
4.04753e-05
-3.53903e-05
-1.11534e-05
-5.61662e-05
-1.85473e-05
-4.6641e-05
-2.38176e-05
-3.87741e-05
-2.89015e-05
-3.29268e-05
-3.33906e-05
-2.75975e-05
-3.61944e-05
-2.21385e-05
-3.68398e-05
-1.69126e-05
-3.53158e-05
-1.24679e-05
-3.1595e-05
-9.27353e-06
-2.69478e-05
-8.36508e-06
-2.32456e-05
-9.71156e-06
-2.10174e-05
-1.19227e-05
-1.99346e-05
-1.38893e-05
-1.94867e-05
-1.51095e-05
-1.92312e-05
-1.56018e-05
-1.88751e-05
-1.57679e-05
-1.8886e-05
-1.63787e-05
-2.06306e-05
-1.77519e-05
-2.54668e-05
-1.86859e-05
-3.25023e-05
-1.58981e-05
-3.94127e-05
-6.06977e-06
-4.20499e-05
1.29569e-05
3.65268e-05
-3.81013e-05
-1.38209e-05
-4.23451e-05
-2.32288e-05
-3.72333e-05
-2.99103e-05
-3.2093e-05
-3.51138e-05
-2.77232e-05
-3.89763e-05
-2.37351e-05
-4.11516e-05
-1.99633e-05
-4.1481e-05
-1.65831e-05
-4.00871e-05
-1.38616e-05
-3.72691e-05
-1.20917e-05
-3.39443e-05
-1.16898e-05
-3.11633e-05
-1.24927e-05
-2.93102e-05
-1.37761e-05
-2.82836e-05
-1.49162e-05
-2.77947e-05
-1.55984e-05
-2.7576e-05
-1.58204e-05
-2.75445e-05
-1.57994e-05
-2.80879e-05
-1.58354e-05
-3.00162e-05
-1.58235e-05
-3.39629e-05
-1.47391e-05
-3.93386e-05
-1.05222e-05
-4.42051e-05
-1.20326e-06
-4.51986e-05
1.39503e-05
3.18797e-05
-4.05515e-05
-1.42357e-05
-2.81093e-05
-2.41945e-05
-2.72745e-05
-3.12943e-05
-2.49931e-05
-3.64531e-05
-2.25645e-05
-3.9983e-05
-2.02054e-05
-4.19216e-05
-1.80247e-05
-4.23504e-05
-1.61543e-05
-4.1483e-05
-1.47289e-05
-3.96784e-05
-1.38963e-05
-3.75688e-05
-1.37996e-05
-3.57672e-05
-1.42944e-05
-3.45463e-05
-1.49971e-05
-3.38962e-05
-1.55663e-05
-3.36753e-05
-1.58192e-05
-3.37568e-05
-1.57388e-05
-3.41515e-05
-1.54047e-05
-3.51241e-05
-1.48629e-05
-3.70901e-05
-1.38577e-05
-4.02327e-05
-1.15964e-05
-4.39397e-05
-6.81505e-06
-4.66993e-05
1.55647e-06
-4.63735e-05
1.36247e-05
2.74293e-05
-4.19228e-05
-1.31405e-05
-1.4969e-05
-2.26877e-05
-1.77275e-05
-2.96093e-05
-1.80713e-05
-3.4573e-05
-1.76011e-05
-3.79284e-05
-1.685e-05
-3.98756e-05
-1.60775e-05
-4.06086e-05
-1.5421e-05
-4.03745e-05
-1.49628e-05
-3.94989e-05
-1.47719e-05
-3.84085e-05
-1.48899e-05
-3.74808e-05
-1.5222e-05
-3.69066e-05
-1.55713e-05
-3.67131e-05
-1.57599e-05
-3.68453e-05
-1.5687e-05
-3.72564e-05
-1.53277e-05
-3.79788e-05
-1.46823e-05
-3.91565e-05
-1.3685e-05
-4.09488e-05
-1.20653e-05
-4.32863e-05
-9.25877e-06
-4.55921e-05
-4.50926e-06
-4.67672e-05
2.73169e-06
-4.54838e-05
1.23414e-05
2.30462e-05
-4.11008e-05
-1.12383e-05
-3.73117e-06
-1.9746e-05
-9.21969e-06
-2.60687e-05
-1.17489e-05
-3.06799e-05
-1.29902e-05
-3.38837e-05
-1.36459e-05
-3.59111e-05
-1.40501e-05
-3.69797e-05
-1.43523e-05
-3.73233e-05
-1.46193e-05
-3.72045e-05
-1.48906e-05
-3.69123e-05
-1.5182e-05
-3.66874e-05
-1.54468e-05
-3.6664e-05
-1.55947e-05
-3.68812e-05
-1.55428e-05
-3.73277e-05
-1.52405e-05
-3.79919e-05
-1.46633e-05
-3.88955e-05
-1.37784e-05
-4.00916e-05
-1.24888e-05
-4.15894e-05
-1.05675e-05
-4.32127e-05
-7.63553e-06
-4.44688e-05
-3.25327e-06
-4.4581e-05
2.84382e-06
-4.27163e-05
1.04767e-05
1.87994e-05
-3.84697e-05
-9.0149e-06
5.28329e-06
-1.60401e-05
-2.19449e-06
-2.14684e-05
-6.32101e-06
-2.55793e-05
-8.8795e-06
-2.85771e-05
-1.0648e-05
-3.06499e-05
-1.19774e-05
-3.19863e-05
-1.30159e-05
-3.27792e-05
-1.38264e-05
-3.32259e-05
-1.44437e-05
-3.35207e-05
-1.48869e-05
-3.38201e-05
-1.51473e-05
-3.42175e-05
-1.51974e-05
-3.47508e-05
-1.50096e-05
-3.54259e-05
-1.45654e-05
-3.62416e-05
-1.38474e-05
-3.7202e-05
-1.28178e-05
-3.83031e-05
-1.13877e-05
-3.94815e-05
-9.38908e-06
-4.05374e-05
-6.57976e-06
-4.10796e-05
-2.71103e-06
-4.05692e-05
2.33342e-06
-3.84781e-05
8.38561e-06
1.48817e-05
-3.45604e-05
-6.65635e-06
1.19398e-05
-1.19552e-05
3.10419e-06
-1.63078e-05
-1.96832e-06
-1.98016e-05
-5.38532e-06
-2.25197e-05
-7.92983e-06
-2.4563e-05
-9.9339e-06
-2.60648e-05
-1.1514e-05
-2.71657e-05
-1.27254e-05
-2.80036e-05
-1.36056e-05
-2.87056e-05
-1.41846e-05
-2.93718e-05
-1.44811e-05
-3.0065e-05
-1.45042e-05
-3.08154e-05
-1.42593e-05
-3.16318e-05
-1.37489e-05
-3.25129e-05
-1.29661e-05
-3.34487e-05
-1.18819e-05
-3.44064e-05
-1.043e-05
-3.52982e-05
-8.49734e-06
-3.59417e-05
-5.9363e-06
-3.60415e-05
-2.6111e-06
-3.52293e-05
1.52142e-06
-3.31698e-05
6.32624e-06
1.14287e-05
-2.97167e-05
-4.35867e-06
1.62987e-05
-7.84117e-06
6.58688e-06
-1.09049e-05
1.09555e-06
-1.37313e-05
-2.55851e-06
-1.61103e-05
-5.55095e-06
-1.80502e-05
-7.99379e-06
-1.96191e-05
-9.94496e-06
-2.09038e-05
-1.14405e-05
-2.19909e-05
-1.25183e-05
-2.29576e-05
-1.32177e-05
-2.38639e-05
-1.35746e-05
-2.47487e-05
-1.36194e-05
-2.56318e-05
-1.33762e-05
-2.65192e-05
-1.28616e-05
-2.74063e-05
-1.20791e-05
-2.82752e-05
-1.10132e-05
-2.90833e-05
-9.62193e-06
-2.97445e-05
-7.83622e-06
-3.01095e-05
-5.57124e-06
-2.99638e-05
-2.75662e-06
-2.90596e-05
6.17442e-07
-2.71852e-05
4.45194e-06
8.5009e-06
-2.42574e-05
-1.75079e-06
1.80495e-05
-3.63079e-06
8.46714e-06
-5.53962e-06
3.0045e-06
-7.68727e-06
-4.10825e-07
-9.7032e-06
-3.53508e-06
-1.14842e-05
-6.2126e-06
-1.30408e-05
-8.38823e-06
-1.44108e-05
-1.00703e-05
-1.56373e-05
-1.12915e-05
-1.67596e-05
-1.20952e-05
-1.78081e-05
-1.2526e-05
-1.88026e-05
-1.26248e-05
-1.97529e-05
-1.24259e-05
-2.06603e-05
-1.19542e-05
-2.15171e-05
-1.12224e-05
-2.23029e-05
-1.02274e-05
-2.29766e-05
-8.94826e-06
-2.34651e-05
-7.34779e-06
-2.36548e-05
-5.38151e-06
-2.33953e-05
-3.01597e-06
-2.25231e-05
-2.54663e-07
-2.09066e-05
2.83538e-06
6.09759e-06
-1.85032e-05
1.78962e-06
1.62599e-05
1.00331e-06
9.25363e-06
-4.01657e-07
4.40975e-06
-1.98602e-06
1.17348e-06
-3.64312e-06
-1.87779e-06
-5.23046e-06
-4.62509e-06
-6.71338e-06
-6.90524e-06
-8.09037e-06
-8.6932e-06
-9.36983e-06
-1.00119e-05
-1.0562e-05
-1.09029e-05
-1.16753e-05
-1.14126e-05
-1.27147e-05
-1.15853e-05
-1.36814e-05
-1.14591e-05
-1.45721e-05
-1.10635e-05
-1.53774e-05
-1.04173e-05
-1.60778e-05
-9.52705e-06
-1.66386e-05
-8.38752e-06
-1.70032e-05
-6.98325e-06
-1.709e-05
-5.29464e-06
-1.67975e-05
-3.3085e-06
-1.60203e-05
-1.03176e-06
-1.46788e-05
1.49395e-06
4.17504e-06
-1.27562e-05
4.9772e-06
1.1283e-05
5.22907e-06
9.00193e-06
4.20587e-06
5.43326e-06
3.00775e-06
2.37175e-06
1.6985e-06
-5.6827e-07
3.4074e-07
-3.26729e-06
-1.00933e-06
-5.55512e-06
-2.32081e-06
-7.38164e-06
-3.57587e-06
-8.75681e-06
-4.76309e-06
-9.71563e-06
-5.87438e-06
-1.03012e-05
-6.90328e-06
-1.05563e-05
-7.8438e-06
-1.05185e-05
-8.68894e-06
-1.02184e-05
-9.42819e-06
-9.67802e-06
-1.00447e-05
-8.91057e-06
-1.05114e-05
-7.92094e-06
-1.07873e-05
-6.7074e-06
-1.08169e-05
-5.26504e-06
-1.05341e-05
-3.59118e-06
-9.87377e-06
-1.69198e-06
-8.78978e-06
4.10074e-07
2.66517e-06
-7.27981e-06
5.77934e-06
5.50375e-06
7.47539e-06
7.3061e-06
7.37874e-06
5.53016e-06
6.7602e-06
2.99065e-06
5.88883e-06
3.0332e-07
4.85071e-06
-2.22912e-06
3.72351e-06
-4.42773e-06
2.56512e-06
-6.22304e-06
1.41712e-06
-7.60867e-06
3.09735e-07
-8.60818e-06
-7.34961e-07
-9.25652e-06
-1.70076e-06
-9.59048e-06
-2.57532e-06
-9.64397e-06
-3.3481e-06
-9.44571e-06
-4.00776e-06
-9.0184e-06
-4.53984e-06
-8.37852e-06
-4.92401e-06
-7.53676e-06
-5.13219e-06
-6.49916e-06
-5.12835e-06
-5.26875e-06
-4.87161e-06
-3.84773e-06
-4.32348e-06
-2.23993e-06
-3.45929e-06
-4.54006e-07
1.48986e-06
-2.28396e-06
4.57196e-06
9.31838e-07
7.37495e-06
4.50337e-06
8.52774e-06
4.37772e-06
8.8044e-06
2.71439e-06
8.56543e-06
5.42407e-07
7.99327e-06
-1.65687e-06
7.21267e-06
-3.64692e-06
6.31526e-06
-5.32543e-06
5.36826e-06
-6.66157e-06
4.42084e-06
-7.66078e-06
3.50891e-06
-8.34471e-06
2.65873e-06
-8.74039e-06
1.88952e-06
-8.8748e-06
1.21614e-06
-8.77233e-06
6.51496e-07
-8.45373e-06
2.08763e-07
-7.93574e-06
-9.66336e-08
-7.23129e-06
-2.45773e-07
-6.34989e-06
-2.1623e-07
-5.29811e-06
1.59651e-08
-4.07974e-06
4.72045e-07
-2.69589e-06
1.16357e-06
-1.14553e-06
5.70552e-07
2.08279e-06
3.1285e-06
-2.19655e-06
6.11621e-06
1.51591e-06
8.13035e-06
2.3639e-06
9.26346e-06
1.58149e-06
9.72877e-06
7.70991e-08
9.71589e-06
-1.64398e-06
9.37769e-06
-3.30868e-06
8.8321e-06
-4.77979e-06
8.1681e-06
-5.99758e-06
7.45198e-06
-6.94478e-06
6.73275e-06
-7.62566e-06
6.04653e-06
-8.05425e-06
5.41977e-06
-8.24802e-06
4.87224e-06
-8.22474e-06
4.41949e-06
-8.00091e-06
4.07481e-06
-7.59105e-06
3.85098e-06
-7.00745e-06
3.76118e-06
-6.26004e-06
3.81914e-06
-5.35598e-06
4.0382e-06
-4.29869e-06
4.429e-06
-3.08665e-06
4.9957e-06
-1.71225e-06
-1.64129e-07
5.73029e-06
2.18634e-06
-4.3828e-06
4.84938e-06
-1.14693e-06
7.12943e-06
8.39966e-08
8.76572e-06
-5.47287e-08
9.77526e-06
-9.32435e-07
1.02693e-05
-2.13807e-06
1.0376e-05
-3.41545e-06
1.02108e-05
-4.61469e-06
9.86888e-06
-5.6557e-06
9.42491e-06
-6.50094e-06
8.93642e-06
-7.13728e-06
8.44695e-06
-7.56477e-06
7.98908e-06
-7.79007e-06
7.58725e-06
-7.82283e-06
7.26e-06
-7.67364e-06
7.02185e-06
-7.35294e-06
6.8847e-06
-6.87035e-06
6.85875e-06
-6.23408e-06
6.95281e-06
-5.44996e-06
7.1741e-06
-4.51989e-06
7.52738e-06
-3.43986e-06
8.01311e-06
-2.19798e-06
-7.75711e-07
8.62467e-06
1.70485e-06
-6.0876e-06
3.96324e-06
-3.40515e-06
6.1356e-06
-2.08826e-06
7.91606e-06
-1.83497e-06
9.21366e-06
-2.22992e-06
1.00554e-05
-2.97983e-06
1.05175e-05
-3.87771e-06
1.06887e-05
-4.78594e-06
1.0652e-05
-5.61913e-06
1.04788e-05
-6.32786e-06
1.02274e-05
-6.88589e-06
9.94387e-06
-7.28122e-06
9.6642e-06
-7.51031e-06
9.41588e-06
-7.57446e-06
9.21992e-06
-7.47769e-06
9.09228e-06
-7.22533e-06
9.04502e-06
-6.82308e-06
9.08715e-06
-6.27613e-06
9.22516e-06
-5.58784e-06
9.46325e-06
-4.75786e-06
9.80335e-06
-3.77987e-06
1.02446e-05
-2.63925e-06
-1.31368e-06
1.07826e-05
1.48313e-06
-7.57063e-06
3.40083e-06
-5.32268e-06
5.33193e-06
-4.01907e-06
7.04139e-06
-3.5441e-06
8.41616e-06
-3.60453e-06
9.43367e-06
-3.99738e-06
1.01246e-05
-4.56877e-06
1.05443e-05
-5.20574e-06
1.07547e-05
-5.82963e-06
1.08148e-05
-6.3882e-06
1.07769e-05
-6.84815e-06
1.06849e-05
-7.18919e-06
1.05743e-05
-7.39968e-06
1.04734e-05
-7.47364e-06
1.04044e-05
-7.40876e-06
1.03841e-05
-7.2051e-06
1.04251e-05
-6.86399e-06
1.0536e-05
-6.38698e-06
1.07227e-05
-5.77435e-06
1.09881e-05
-5.0232e-06
1.13333e-05
-4.12503e-06
1.17575e-05
-3.0635e-06
-1.81466e-06
1.22584e-05
1.35523e-06
-8.92573e-06
3.00447e-06
-6.97172e-06
4.68516e-06
-5.69939e-06
6.23888e-06
-5.09762e-06
7.56867e-06
-4.93431e-06
8.63508e-06
-5.06385e-06
9.44117e-06
-5.37495e-06
1.00157e-05
-5.78038e-06
1.03995e-05
-6.21371e-06
1.06372e-05
-6.62602e-06
1.07711e-05
-6.98219e-06
1.08394e-05
-7.25748e-06
1.08744e-05
-7.43481e-06
1.09032e-05
-7.50258e-06
1.09474e-05
-7.45319e-06
1.10242e-05
-7.28188e-06
1.1146e-05
-6.98576e-06
1.13217e-05
-6.56263e-06
1.1557e-05
-6.00958e-06
1.18549e-05
-5.32107e-06
1.22164e-05
-4.48661e-06
1.26415e-05
-3.4887e-06
-2.30306e-06
1.31298e-05
1.23702e-06
-1.01627e-05
2.66609e-06
-8.40052e-06
4.12519e-06
-7.15826e-06
5.50714e-06
-6.47967e-06
6.73788e-06
-6.16513e-06
7.77803e-06
-6.10402e-06
8.61817e-06
-6.21513e-06
9.27038e-06
-6.43266e-06
9.7597e-06
-6.7031e-06
1.01173e-05
-6.98361e-06
1.03756e-05
-7.2405e-06
1.05657e-05
-7.44758e-06
1.07155e-05
-7.58468e-06
1.08491e-05
-7.63636e-06
1.09868e-05
-7.59097e-06
1.11447e-05
-7.43981e-06
1.13352e-05
-7.17621e-06
1.15672e-05
-6.79458e-06
1.18465e-05
-6.28895e-06
1.21766e-05
-5.65124e-06
1.25591e-05
-4.86919e-06
1.29947e-05
-3.92446e-06
-2.79307e-06
1.34846e-05
1.10187e-06
-1.12645e-05
2.33938e-06
-9.63769e-06
3.60721e-06
-8.42613e-06
4.82609e-06
-7.69878e-06
5.94009e-06
-7.27917e-06
6.91549e-06
-7.07936e-06
7.73908e-06
-7.03867e-06
8.41402e-06
-7.10758e-06
8.95482e-06
-7.24382e-06
9.38257e-06
-7.41122e-06
9.72126e-06
-7.57905e-06
9.99521e-06
-7.72147e-06
1.02275e-05
-7.81698e-06
1.04388e-05
-7.84779e-06
1.06472e-05
-7.79944e-06
1.08676e-05
-7.66016e-06
1.11117e-05
-7.42026e-06
1.13883e-05
-7.07118e-06
1.17035e-05
-6.60425e-06
1.20613e-05
-6.00915e-06
1.24639e-05
-5.272e-06
1.29131e-05
-4.37378e-06
-3.29102e-06
1.3411e-05
9.52242e-07
-1.22166e-05
2.0159e-06
-1.0701e-05
3.11472e-06
-9.52518e-06
4.18346e-06
-8.76763e-06
5.17812e-06
-8.27373e-06
6.07088e-06
-7.97201e-06
6.84843e-06
-7.81617e-06
7.50968e-06
-7.7688e-06
8.06273e-06
-7.79679e-06
8.52168e-06
-7.87006e-06
8.90397e-06
-7.96127e-06
9.22834e-06
-8.04587e-06
9.51336e-06
-8.10208e-06
9.77643e-06
-8.11094e-06
1.00331e-05
-8.05614e-06
1.02967e-05
-7.92377e-06
1.05783e-05
-7.70177e-06
1.08862e-05
-7.37919e-06
1.12269e-05
-6.94512e-06
1.16049e-05
-6.38729e-06
1.20232e-05
-5.69043e-06
1.24842e-05
-4.83495e-06
-3.7977e-06
1.29908e-05
7.99298e-07
-1.30156e-05
1.7021e-06
-1.16036e-05
2.64691e-06
-1.04702e-05
3.57638e-06
-9.69698e-06
4.45394e-06
-9.15111e-06
5.25625e-06
-8.77423e-06
5.97094e-06
-8.53089e-06
6.59508e-06
-8.39297e-06
7.13302e-06
-8.33474e-06
7.59422e-06
-8.3313e-06
7.99137e-06
-8.35853e-06
8.33881e-06
-8.39345e-06
8.65128e-06
-8.4147e-06
8.94312e-06
-8.40285e-06
9.22753e-06
-8.34058e-06
9.51627e-06
-8.21251e-06
9.81936e-06
-8.00492e-06
1.01451e-05
-7.70503e-06
1.04999e-05
-7.30015e-06
1.08888e-05
-6.77644e-06
1.13157e-05
-6.11746e-06
1.17836e-05
-5.30304e-06
-4.31017e-06
1.2296e-05
6.53252e-07
-1.36686e-05
1.40621e-06
-1.23565e-05
2.20779e-06
-1.12717e-05
3.0065e-06
-1.04954e-05
3.77044e-06
-9.91487e-06
4.47917e-06
-9.48291e-06
5.12138e-06
-9.17314e-06
5.69341e-06
-8.96506e-06
6.1975e-06
-8.8389e-06
6.6401e-06
-8.77403e-06
7.03047e-06
-8.7491e-06
7.37953e-06
-8.74271e-06
7.6989e-06
-8.73421e-06
8.0002e-06
-8.70422e-06
8.29454e-06
-8.63494e-06
8.59215e-06
-8.51018e-06
8.90218e-06
-8.31508e-06
9.23254e-06
-8.03561e-06
9.5899e-06
-7.65777e-06
9.97974e-06
-7.16652e-06
1.04066e-05
-6.54452e-06
1.08745e-05
-5.77109e-06
-4.82298e-06
1.13872e-05
5.1967e-07
-1.41881e-05
1.13272e-06
-1.29695e-05
1.80011e-06
-1.19389e-05
2.47564e-06
-1.11707e-05
3.13011e-06
-1.05692e-05
3.74473e-06
-1.00975e-05
4.30914e-06
-9.73755e-06
4.81962e-06
-9.47554e-06
5.27725e-06
-9.29658e-06
5.68654e-06
-9.18342e-06
6.05424e-06
-9.11695e-06
6.38861e-06
-9.0772e-06
6.69866e-06
-9.04434e-06
6.99374e-06
-8.99932e-06
7.28307e-06
-8.92431e-06
7.57552e-06
-8.80274e-06
7.87938e-06
-8.61914e-06
8.20224e-06
-8.35872e-06
8.55088e-06
-8.00665e-06
8.93129e-06
-7.54712e-06
9.34881e-06
-6.96216e-06
9.80836e-06
-6.2307e-06
-5.32904e-06
1.03144e-05
4.00072e-07
-1.4588e-05
8.80861e-07
-1.34504e-05
1.42294e-06
-1.24808e-05
1.98376e-06
-1.17315e-05
2.5343e-06
-1.11198e-05
3.05643e-06
-1.06197e-05
3.54081e-06
-1.02219e-05
3.98419e-06
-9.9189e-06
4.38721e-06
-9.69961e-06
4.75307e-06
-9.54933e-06
5.08667e-06
-9.45062e-06
5.39413e-06
-9.3847e-06
5.68233e-06
-9.33255e-06
5.95866e-06
-9.27564e-06
6.23069e-06
-9.19638e-06
6.50607e-06
-9.07823e-06
6.79228e-06
-8.90552e-06
7.09653e-06
-8.66316e-06
7.42568e-06
-8.33595e-06
7.78622e-06
-7.90773e-06
8.18435e-06
-7.3603e-06
8.62609e-06
-6.67241e-06
-5.81988e-06
9.11694e-06
2.91199e-07
-1.48793e-05
6.4354e-07
-1.38029e-05
1.07155e-06
-1.29089e-05
1.52926e-06
-1.21894e-05
1.98386e-06
-1.15746e-05
2.41733e-06
-1.10532e-05
2.82193e-06
-1.06266e-05
3.19557e-06
-1.02926e-05
3.53905e-06
-1.00431e-05
3.85476e-06
-9.86506e-06
4.14618e-06
-9.74207e-06
4.41771e-06
-9.65622e-06
4.67446e-06
-9.58927e-06
4.92213e-06
-9.52329e-06
5.16688e-06
-9.44117e-06