/*--------------------------------*- C++ -*----------------------------------*\
| =========                 |                                                 |
| \\      /  F ield         | OpenFOAM: The Open Source CFD Toolbox           |
|  \\    /   O peration     | Version:  2.3.0                                 |
|   \\  /    A nd           | Web:      www.OpenFOAM.org                      |
|    \\/     M anipulation  |                                                 |
\*---------------------------------------------------------------------------*/
FoamFile
{
    version     2.0;
    format      ascii;
    class       volVectorField;
    location    "1.6";
    object      U;
}
// * * * * * * * * * * * * * * * * * * * * * * * * * * * * * * * * * * * * * //

dimensions      [0 1 -1 0 0 0 0];

internalField   nonuniform List<vector> 
2268
(
(-0.0218663 0.00650976 0)
(-0.0232218 -0.00343606 0)
(-0.00808434 -0.00741857 0)
(0.00864683 -0.00758709 0)
(0.0259708 -0.00714983 0)
(0.0425265 -0.00660827 0)
(0.0585941 -0.00628744 0)
(0.0746788 -0.0061939 0)
(0.0911697 -0.00621987 0)
(0.108132 -0.00624601 0)
(0.125326 -0.00617024 0)
(0.142268 -0.00590688 0)
(0.15827 -0.00538344 0)
(0.17242 -0.00453177 0)
(0.183614 -0.00321802 0)
(0.190586 -0.000874089 0)
(0.187645 0.0035702 0)
(0.171425 0.00865351 0)
(0.141411 0.0129385 0)
(0.100311 0.0159191 0)
(0.0522221 0.0176781 0)
(-0.0034825 0.0136696 0)
(-0.0208611 -0.00655156 0)
(-0.0104794 0.0145103 0)
(-0.00439665 -0.00462686 0)
(0.00637578 -0.0111333 0)
(0.0183575 -0.0121462 0)
(0.0313771 -0.0120406 0)
(0.0448678 -0.0117648 0)
(0.0589475 -0.0117734 0)
(0.0738668 -0.012076 0)
(0.0897241 -0.0124841 0)
(0.106365 -0.0127813 0)
(0.12342 -0.0127862 0)
(0.140349 -0.0123457 0)
(0.156457 -0.0113188 0)
(0.170869 -0.00954416 0)
(0.182478 -0.00672482 0)
(0.189842 -0.00209616 0)
(0.191656 0.00567725 0)
(0.184835 0.0153583 0)
(0.165944 0.0249201 0)
(0.133789 0.0329258 0)
(0.0888447 0.0378552 0)
(0.034676 0.0297523 0)
(0.00683247 -0.00609571 0)
(0.00185718 0.0142062 0)
(0.00680727 -0.00800956 0)
(0.014186 -0.0150956 0)
(0.0225946 -0.0166615 0)
(0.0326121 -0.0170144 0)
(0.0439912 -0.0172238 0)
(0.0567208 -0.0177639 0)
(0.0708734 -0.0186149 0)
(0.0863548 -0.0195049 0)
(0.102859 -0.0201322 0)
(0.119925 -0.0202492 0)
(0.136975 -0.019644 0)
(0.153311 -0.0181119 0)
(0.168084 -0.0154031 0)
(0.180235 -0.011102 0)
(0.188398 -0.00443251 0)
(0.191501 0.00597905 0)
(0.187933 0.0195965 0)
(0.174588 0.0345264 0)
(0.149108 0.0483707 0)
(0.110392 0.0580596 0)
(0.0629948 0.0498054 0)
(0.0267842 0.00957689 0)
(0.00867625 0.0100073 0)
(0.0134088 -0.010911 0)
(0.0180038 -0.0180584 0)
(0.0236133 -0.0203328 0)
(0.0313164 -0.021479 0)
(0.0410505 -0.0224672 0)
(0.052735 -0.0237868 0)
(0.0663424 -0.0253791 0)
(0.0816398 -0.0268845 0)
(0.0981951 -0.0279254 0)
(0.115469 -0.0282031 0)
(0.132851 -0.0274598 0)
(0.149643 -0.0254364 0)
(0.165031 -0.0218092 0)
(0.178047 -0.0160629 0)
(0.187499 -0.00734556 0)
(0.19249 0.00559094 0)
(0.191945 0.0226512 0)
(0.182969 0.0424779 0)
(0.162914 0.0620606 0)
(0.129663 0.0770207 0)
(0.0877649 0.0716901 0)
(0.0428507 0.0342315 0)
(0.0117304 0.00402815 0)
(0.0161782 -0.0133306 0)
(0.0185215 -0.019904 0)
(0.0219302 -0.0230141 0)
(0.0278078 -0.0252411 0)
(0.0362091 -0.0272813 0)
(0.0470464 -0.0296273 0)
(0.0602637 -0.0321639 0)
(0.0755254 -0.0344308 0)
(0.0922837 -0.0359825 0)
(0.109926 -0.0364888 0)
(0.127814 -0.0356625 0)
(0.145257 -0.0332049 0)
(0.161485 -0.0287393 0)
(0.175636 -0.0216843 0)
(0.186713 -0.0111572 0)
(0.193951 0.00399688 0)
(0.196517 0.0240721 0)
(0.191732 0.0483493 0)
(0.177097 0.0733605 0)
(0.149532 0.0939213 0)
(0.113594 0.0947085 0)
(0.059261 0.068128 0)
(0.0126727 -0.00261949 0)
(0.0159629 -0.0150717 0)
(0.0164234 -0.0207549 0)
(0.0180998 -0.0248119 0)
(0.022537 -0.0283298 0)
(0.0298466 -0.031635 0)
(0.0399847 -0.0352237 0)
(0.0529276 -0.0388964 0)
(0.0682586 -0.0420669 0)
(0.0853161 -0.0442268 0)
(0.103417 -0.0450356 0)
(0.121906 -0.0441955 0)
(0.140104 -0.0413846 0)
(0.157293 -0.0361963 0)
(0.172718 -0.0280156 0)
(0.185561 -0.0159587 0)
(0.195192 0.00106754 0)
(0.201041 0.023704 0)
(0.20067 0.0518874 0)
(0.191929 0.0817719 0)
(0.171183 0.108049 0)
(0.143827 0.118555 0)
(0.0797634 0.113927 0)
(0.0118754 -0.00908455 0)
(0.0136952 -0.0160328 0)
(0.0126432 -0.0208068 0)
(0.0129818 -0.0259136 0)
(0.016293 -0.0308608 0)
(0.022694 -0.0355807 0)
(0.0322253 -0.040595 0)
(0.0449464 -0.0455813 0)
(0.0603724 -0.0497857 0)
(0.0777245 -0.0526398 0)
(0.0962557 -0.0538196 0)
(0.115305 -0.0530364 0)
(0.134216 -0.0499605 0)
(0.152333 -0.0441764 0)
(0.169005 -0.0350611 0)
(0.183572 -0.0217494 0)
(0.19556 -0.00321336 0)
(0.204733 0.0214544 0)
(0.208988 0.0528917 0)
(0.206825 0.0867577 0)
(0.19493 0.118165 0)
(0.180668 0.142003 0)
(0.106658 0.17435 0)
(0.00951671 -0.0146844 0)
(0.0104219 -0.0163301 0)
(0.00827731 -0.0202531 0)
(0.00763189 -0.0264825 0)
(0.0101025 -0.0329451 0)
(0.0157459 -0.0391689 0)
(0.0247134 -0.0457716 0)
(0.037192 -0.052243 0)
(0.0526383 -0.057597 0)
(0.0701542 -0.0612092 0)
(0.0889409 -0.0628085 0)
(0.108352 -0.0621392 0)
(0.12777 -0.0588781 0)
(0.146607 -0.0526224 0)
(0.164322 -0.0427596 0)
(0.180392 -0.0284577 0)
(0.194509 -0.00878859 0)
(0.206783 0.0172823 0)
(0.215646 0.0511103 0)
(0.220951 0.0875527 0)
(0.220417 0.1224 0)
(0.221886 0.158283 0)
(0.160803 0.262521 0)
(-0.0637389 0.0143761 0)
(-0.0436662 -0.0204371 0)
(0.0341588 -0.0291242 0)
(0.111618 -0.0253188 0)
(0.172138 -0.0206774 0)
(0.217855 -0.0154331 0)
(0.248151 -0.00906659 0)
(0.262422 -0.00342025 0)
(0.258738 0.00327728 0)
(0.229337 0.0177585 0)
(0.151212 0.028825 0)
(0.0556475 0.0243261 0)
(0.00229984 0.0102989 0)
(-0.0245536 0.00777411 0)
(-0.0473162 0.00496695 0)
(-0.058888 0.00338262 0)
(-0.0703257 0.00312368 0)
(-0.0716441 -0.00580109 0)
(-0.0316522 -0.0187577 0)
(-0.0436286 0.0342421 0)
(-0.00504977 -0.0344627 0)
(0.0652871 -0.05358 0)
(0.128586 -0.0450595 0)
(0.169107 -0.0328169 0)
(0.193906 -0.0220508 0)
(0.207434 -0.0115536 0)
(0.211559 -0.00370006 0)
(0.210717 0.00749002 0)
(0.201603 0.0318662 0)
(0.161887 0.0551529 0)
(0.0863757 0.0494012 0)
(0.0311585 0.0260353 0)
(-0.00122868 0.0171077 0)
(-0.0259729 0.0119419 0)
(-0.0417082 0.00764591 0)
(-0.0520718 0.0039669 0)
(-0.0506391 -0.0109867 0)
(-0.0203777 -0.0327276 0)
(-0.0180385 0.0385406 0)
(0.0243718 -0.0553639 0)
(0.0928443 -0.0790741 0)
(0.145083 -0.0623925 0)
(0.168125 -0.0412876 0)
(0.175704 -0.0254959 0)
(0.176623 -0.0120699 0)
(0.172624 -0.00343632 0)
(0.1672 0.0101328 0)
(0.158351 0.0387742 0)
(0.145324 0.0691394 0)
(0.103579 0.0726713 0)
(0.0542763 0.0430089 0)
(0.0190996 0.0287453 0)
(-0.00775342 0.0206535 0)
(-0.0257118 0.0132919 0)
(-0.0360791 0.00552888 0)
(-0.0350824 -0.0161906 0)
(-0.0125896 -0.0445828 0)
(-0.00446302 0.032917 0)
(0.0540273 -0.0785295 0)
(0.126005 -0.103196 0)
(0.167715 -0.0751928 0)
(0.17219 -0.0440071 0)
(0.16197 -0.0243277 0)
(0.150995 -0.00942752 0)
(0.138331 -0.000141918 0)
(0.127576 0.0138178 0)
(0.122805 0.0408447 0)
(0.128983 0.0739459 0)
(0.114621 0.0897284 0)
(0.0760621 0.0608067 0)
(0.0380102 0.0423659 0)
(0.00871952 0.0304833 0)
(-0.0105509 0.0195451 0)
(-0.0211887 0.00747815 0)
(-0.0217176 -0.0198776 0)
(-0.0092043 -0.0527164 0)
(0.00194728 0.0242964 0)
(0.0963774 -0.114242 0)
(0.176962 -0.12829 0)
(0.202521 -0.080465 0)
(0.183092 -0.0382694 0)
(0.152127 -0.017029 0)
(0.127613 -0.00210218 0)
(0.106095 0.00565358 0)
(0.0927475 0.0165113 0)
(0.0959702 0.0379819 0)
(0.112951 0.0709511 0)
(0.119715 0.09708 0)
(0.093587 0.0768926 0)
(0.0547892 0.0572117 0)
(0.0245509 0.0408797 0)
(0.00508695 0.0261392 0)
(-0.00591763 0.00986308 0)
(-0.00810617 -0.0212373 0)
(-0.00538334 -0.0574197 0)
(0.041097 0.00428614 0)
(0.168506 -0.161466 0)
(0.245939 -0.155626 0)
(0.256076 -0.077388 0)
(0.203853 -0.0207536 0)
(0.146186 -0.000193229 0)
(0.106786 0.0108865 0)
(0.0799316 0.0140413 0)
(0.0686827 0.0175798 0)
(0.0750101 0.0328141 0)
(0.0959315 0.0628902 0)
(0.115934 0.0958684 0)
(0.10355 0.0894481 0)
(0.0679075 0.0712546 0)
(0.0398293 0.0510024 0)
(0.021789 0.0326914 0)
(0.0109934 0.0126901 0)
(0.00804181 -0.0205748 0)
(0.00343458 -0.0573366 0)
(0.147948 -0.0777799 0)
(0.258679 -0.206221 0)
(0.30675 -0.172565 0)
(0.317069 -0.0670765 0)
(0.236506 0.0120575 0)
(0.147714 0.0262267 0)
(0.0960093 0.0269011 0)
(0.0637561 0.0227257 0)
(0.0515229 0.0185407 0)
(0.0570316 0.0272911 0)
(0.0776317 0.0530166 0)
(0.104906 0.0915694 0)
(0.108 0.0994876 0)
(0.0803606 0.0831955 0)
(0.0555021 0.0599643 0)
(0.0396699 0.0386607 0)
(0.0301965 0.0156597 0)
(0.0275602 -0.0189468 0)
(0.0183702 -0.0505237 0)
(0.300974 -0.191668 0)
(0.34673 -0.242868 0)
(0.352113 -0.177645 0)
(0.35563 -0.0537806 0)
(0.277418 0.0555451 0)
(0.16088 0.0589448 0)
(0.0957482 0.0461078 0)
(0.0548769 0.0332807 0)
(0.0373981 0.0209361 0)
(0.0395726 0.0228018 0)
(0.0571872 0.0433634 0)
(0.0877197 0.0827538 0)
(0.106818 0.101882 0)
(0.09429 0.0933755 0)
(0.0727876 0.0677265 0)
(0.0587352 0.0434424 0)
(0.0516775 0.0181446 0)
(0.049507 -0.0170791 0)
(0.0378137 -0.0394142 0)
(0.00497861 -0.0208186 0)
(0.00562433 -0.0159208 0)
(0.00232773 -0.0186088 0)
(0.000647959 -0.0267169 0)
(0.00224514 -0.0356154 0)
(0.00694942 -0.044216 0)
(0.015091 -0.0535267 0)
(0.0271156 -0.0625786 0)
(0.0423968 -0.0698807 0)
(0.0598517 -0.0747477 0)
(0.0786356 -0.0770665 0)
(0.0981684 -0.0766632 0)
(0.11792 -0.0732431 0)
(0.137419 -0.0664534 0)
(0.156296 -0.0557215 0)
(0.174217 -0.0402698 0)
(0.191103 -0.0193868 0)
(0.207356 0.00777669 0)
(0.223269 0.0432794 0)
(0.241103 0.0803754 0)
(0.262308 0.116126 0)
(0.297481 0.154626 0)
(0.370354 0.233954 0)
(0.00409157 -0.0249939 0)
(0.00578646 -0.0139453 0)
(0.00189511 -0.0155497 0)
(-0.000125059 -0.0269832 0)
(0.00132115 -0.0392081 0)
(0.00532045 -0.0506949 0)
(0.0124422 -0.0638659 0)
(0.023582 -0.076736 0)
(0.0379728 -0.0868214 0)
(0.0543841 -0.0934703 0)
(0.0720824 -0.0969893 0)
(0.0906982 -0.0972846 0)
(0.109828 -0.0940673 0)
(0.129142 -0.0871367 0)
(0.14849 -0.0760242 0)
(0.167715 -0.0599879 0)
(0.186885 -0.0387739 0)
(0.206586 -0.0123645 0)
(0.229376 0.0199339 0)
(0.257657 0.0518869 0)
(0.291492 0.0797105 0)
(0.333097 0.0960147 0)
(0.39604 0.0876242 0)
(0.00866658 -0.028837 0)
(0.0101133 -0.012134 0)
(0.00962083 -0.0123692 0)
(0.0114343 -0.0268812 0)
(0.0145766 -0.0419231 0)
(0.0184164 -0.0557316 0)
(0.0244581 -0.0722241 0)
(0.0335775 -0.0882991 0)
(0.0449826 -0.100571 0)
(0.0580694 -0.108692 0)
(0.0727316 -0.113429 0)
(0.0888591 -0.114704 0)
(0.105977 -0.112123 0)
(0.123751 -0.105702 0)
(0.142156 -0.0951464 0)
(0.161255 -0.0797443 0)
(0.181342 -0.0598375 0)
(0.203563 -0.0364229 0)
(0.230509 -0.0102798 0)
(0.2631 0.0149308 0)
(0.301412 0.035381 0)
(0.345438 0.042212 0)
(0.397025 0.0285806 0)
(-0.00050455 -0.0382138 0)
(0.00192886 -0.0123807 0)
(0.0175061 -0.011573 0)
(0.038856 -0.0273996 0)
(0.0503445 -0.0406664 0)
(0.0559113 -0.0544706 0)
(0.0611929 -0.0738874 0)
(0.065054 -0.0931491 0)
(0.0668028 -0.107567 0)
(0.0704153 -0.117353 0)
(0.07816 -0.123592 0)
(0.0899814 -0.126093 0)
(0.104051 -0.12434 0)
(0.119511 -0.118718 0)
(0.136077 -0.109122 0)
(0.154027 -0.0947182 0)
(0.174319 -0.0764171 0)
(0.198533 -0.0563495 0)
(0.227972 -0.0356328 0)
(0.262854 -0.0160727 0)
(0.302974 -0.00104142 0)
(0.34664 0.00334955 0)
(0.39246 -0.00808074 0)
(-0.0876811 -0.0266271 0)
(-0.0520537 -0.026829 0)
(0.0143362 -0.0608319 0)
(0.0881427 -0.0734029 0)
(0.154782 -0.0611126 0)
(0.194962 -0.0607381 0)
(0.208947 -0.0755092 0)
(0.188445 -0.0839971 0)
(0.136557 -0.0988584 0)
(0.103669 -0.118076 0)
(0.089759 -0.12879 0)
(0.0929794 -0.13279 0)
(0.102277 -0.131155 0)
(0.114136 -0.125432 0)
(0.126528 -0.115862 0)
(0.139389 -0.101501 0)
(0.156364 -0.08484 0)
(0.181926 -0.070224 0)
(0.215798 -0.0561708 0)
(0.255984 -0.0417454 0)
(0.300281 -0.030566 0)
(0.348036 -0.0275286 0)
(0.399078 -0.0392634 0)
(-0.0566569 0.0595155 0)
(0.0275126 -0.0948572 0)
(0.102136 -0.16191 0)
(0.175379 -0.177561 0)
(0.263286 -0.154121 0)
(0.340544 -0.119905 0)
(0.388019 -0.104902 0)
(0.419352 -0.0934322 0)
(0.458015 -0.0405783 0)
(0.37741 -0.043243 0)
(0.252144 -0.104928 0)
(0.190625 -0.143712 0)
(0.172902 -0.159716 0)
(0.171084 -0.163153 0)
(0.176874 -0.15764 0)
(0.173301 -0.138781 0)
(0.152338 -0.127465 0)
(0.15561 -0.123077 0)
(0.195129 -0.11954 0)
(0.246867 -0.0994063 0)
(0.296324 -0.0836217 0)
(0.350821 -0.070892 0)
(0.410752 -0.0800539 0)
(0.0522457 0.0128485 0)
(0.143234 -0.145442 0)
(0.179223 -0.221291 0)
(0.213808 -0.24171 0)
(0.268555 -0.217881 0)
(0.320343 -0.171101 0)
(0.350627 -0.136504 0)
(0.356394 -0.0968824 0)
(0.356868 -0.0038411 0)
(0.320636 0.0707411 0)
(0.237162 -0.00957899 0)
(0.202248 -0.09009 0)
(0.185252 -0.129179 0)
(0.170889 -0.144254 0)
(0.161597 -0.139279 0)
(0.154815 -0.106252 0)
(0.135444 -0.102465 0)
(0.138199 -0.158805 0)
(0.160901 -0.18711 0)
(0.193246 -0.193182 0)
(0.227952 -0.183147 0)
(0.246097 -0.178446 0)
(0.195963 -0.178976 0)
(0.112474 -0.0979377 0)
(0.234699 -0.205381 0)
(0.223634 -0.232288 0)
(0.215753 -0.275558 0)
(0.235807 -0.252488 0)
(0.263304 -0.192596 0)
(0.280491 -0.140375 0)
(0.248152 -0.106116 0)
(0.22645 0.00754471 0)
(0.213428 0.0891239 0)
(0.204282 0.0168593 0)
(0.193519 -0.0660304 0)
(0.17592 -0.106541 0)
(0.153101 -0.124617 0)
(0.12913 -0.125392 0)
(0.118127 -0.0913368 0)
(0.117846 -0.0821954 0)
(0.125293 -0.124534 0)
(0.138174 -0.175585 0)
(0.140003 -0.18452 0)
(0.151907 -0.153362 0)
(0.1321 -0.0760072 0)
(0.0418953 0.0262071 0)
(0.0776892 -0.346867 0)
(0.174294 -0.267362 0)
(0.203903 -0.212952 0)
(0.201698 -0.264821 0)
(0.174032 -0.268345 0)
(0.161282 -0.208121 0)
(0.127465 -0.129035 0)
(0.0987236 -0.0754348 0)
(0.091215 0.0174994 0)
(0.111855 0.0748351 0)
(0.145364 0.0250376 0)
(0.146048 -0.047909 0)
(0.117175 -0.085859 0)
(0.09331 -0.0986491 0)
(0.072527 -0.101817 0)
(0.0597554 -0.0879986 0)
(0.0569345 -0.0925291 0)
(0.0529259 -0.130571 0)
(0.0421799 -0.183009 0)
(0.0425626 -0.19448 0)
(0.0318721 -0.139091 0)
(0.00875625 -0.0172066 0)
(-0.06047 0.134724 0)
(0.00672711 -0.425568 0)
(0.0469845 -0.323666 0)
(0.056281 -0.254367 0)
(0.0451278 -0.24685 0)
(0.0114902 -0.231522 0)
(-0.0203782 -0.171876 0)
(-0.0405651 -0.102133 0)
(-0.0487376 -0.047827 0)
(-0.0398551 0.00919305 0)
(-0.00357846 0.0346055 0)
(0.028566 0.0010156 0)
(0.0320074 -0.0395012 0)
(0.027059 -0.0666451 0)
(0.0180885 -0.0817514 0)
(0.00809267 -0.0866995 0)
(0.00204871 -0.0828993 0)
(0.000964206 -0.0900446 0)
(-0.00648042 -0.124906 0)
(-0.0261067 -0.172102 0)
(-0.0462814 -0.174959 0)
(-0.0699814 -0.111205 0)
(-0.0926924 0.0175522 0)
(-0.13277 0.196152 0)
(-0.0364757 -0.387075 0)
(-0.0363273 -0.301273 0)
(-0.0514588 -0.245965 0)
(-0.0713707 -0.217371 0)
(-0.101626 -0.186542 0)
(-0.128363 -0.142361 0)
(-0.141831 -0.0955146 0)
(-0.143102 -0.0551475 0)
(-0.129099 -0.0193096 0)
(-0.097781 -0.00659311 0)
(-0.068859 -0.0220348 0)
(-0.0537876 -0.0462168 0)
(-0.0485261 -0.0664156 0)
(-0.0486961 -0.0783051 0)
(-0.0507913 -0.0824963 0)
(-0.0507994 -0.0819986 0)
(-0.0479473 -0.0875692 0)
(-0.0505054 -0.107719 0)
(-0.068115 -0.143163 0)
(-0.108897 -0.150628 0)
(-0.14765 -0.0900442 0)
(-0.178872 0.0389808 0)
(-0.192193 0.228402 0)
(-0.0557103 -0.331356 0)
(-0.0835927 -0.272632 0)
(-0.113894 -0.224507 0)
(-0.141916 -0.190849 0)
(-0.16908 -0.159356 0)
(-0.189487 -0.125532 0)
(-0.198801 -0.0922288 0)
(-0.196363 -0.0632136 0)
(-0.181212 -0.041182 0)
(-0.156372 -0.0344243 0)
(-0.132713 -0.0433994 0)
(-0.117087 -0.0583994 0)
(-0.108817 -0.071724 0)
(-0.105344 -0.0799696 0)
(-0.10394 -0.0832657 0)
(-0.102055 -0.0842396 0)
(-0.0998685 -0.0886076 0)
(-0.10304 -0.099743 0)
(-0.119972 -0.111735 0)
(-0.15412 -0.103678 0)
(-0.198313 -0.0528993 0)
(-0.224531 0.0673277 0)
(-0.221306 0.212816 0)
(-0.0639108 -0.264745 0)
(-0.105491 -0.226602 0)
(-0.14426 -0.191436 0)
(-0.175982 -0.163231 0)
(-0.200928 -0.137674 0)
(-0.217414 -0.112994 0)
(-0.224067 -0.0903932 0)
(-0.220872 -0.0717163 0)
(-0.208576 -0.0590085 0)
(-0.190655 -0.0557034 0)
(-0.173471 -0.0610696 0)
(-0.161054 -0.0699844 0)
(-0.153681 -0.0780286 0)
(-0.150026 -0.0830269 0)
(-0.148374 -0.0850227 0)
(-0.147458 -0.0856236 0)
(-0.147962 -0.0873959 0)
(-0.153627 -0.0904803 0)
(-0.169411 -0.0886469 0)
(-0.196357 -0.0679677 0)
(-0.227748 -0.0156175 0)
(-0.245949 0.0752551 0)
(-0.236029 0.185102 0)
(-0.0642271 -0.188463 0)
(-0.109953 -0.173658 0)
(-0.151122 -0.153837 0)
(-0.183692 -0.135383 0)
(-0.207199 -0.118252 0)
(-0.221836 -0.102459 0)
(-0.227955 -0.0887272 0)
(-0.226345 -0.0780218 0)
(-0.218414 -0.0714256 0)
(-0.207026 -0.0701724 0)
(-0.196019 -0.0734225 0)
(-0.187849 -0.0784328 0)
(-0.183009 -0.0827671 0)
(-0.180892 -0.0851516 0)
(-0.18061 -0.0855261 0)
(-0.181688 -0.0846028 0)
(-0.184855 -0.0831038 0)
(-0.192303 -0.07986 0)
(-0.206343 -0.0699046 0)
(-0.226309 -0.0446817 0)
(-0.246202 0.0032856 0)
(-0.254619 0.0757751 0)
(-0.24128 0.15988 0)
(-0.0590153 -0.115115 0)
(-0.102686 -0.120465 0)
(-0.142599 -0.115588 0)
(-0.174127 -0.107986 0)
(-0.196451 -0.0998201 0)
(-0.210483 -0.0921595 0)
(-0.217363 -0.085704 0)
(-0.218286 -0.080976 0)
(-0.214757 -0.0784689 0)
(-0.208926 -0.0785591 0)
(-0.203177 -0.0806168 0)
(-0.199071 -0.0832075 0)
(-0.197085 -0.0850381 0)
(-0.197021 -0.0853909 0)
(-0.198501 -0.0841379 0)
(-0.201415 -0.0814174 0)
(-0.206287 -0.0770434 0)
(-0.214173 -0.0694993 0)
(-0.225707 -0.0551883 0)
(-0.239375 -0.0289525 0)
(-0.250433 0.0131968 0)
(-0.251314 0.0709576 0)
(-0.235511 0.136023 0)
(-0.0508255 -0.0492763 0)
(-0.088761 -0.0713239 0)
(-0.124919 -0.0795131 0)
(-0.153941 -0.0819932 0)
(-0.174857 -0.0820831 0)
(-0.188656 -0.0814201 0)
(-0.196653 -0.0807749 0)
(-0.200091 -0.0805172 0)
(-0.200304 -0.0808903 0)
(-0.198846 -0.0820014 0)
(-0.197238 -0.0834912 0)
(-0.196499 -0.0846588 0)
(-0.197038 -0.0848651 0)
(-0.198857 -0.0837286 0)
(-0.20184 -0.0811024 0)
(-0.205993 -0.0768492 0)
(-0.211573 -0.0704604 0)
(-0.218903 -0.060562 0)
(-0.227735 -0.0446879 0)
(-0.236357 -0.0198126 0)
(-0.241177 0.0160491 0)
(-0.237196 0.0619886 0)
(-0.220345 0.112514 0)
(-0.0414014 0.00552993 0)
(-0.071365 -0.0290736 0)
(-0.102151 -0.0475363 0)
(-0.127546 -0.058304 0)
(-0.14659 -0.065253 0)
(-0.159986 -0.0702623 0)
(-0.168871 -0.0741467 0)
(-0.174312 -0.0772487 0)
(-0.177369 -0.0797501 0)
(-0.17913 -0.0817321 0)
(-0.18058 -0.0830669 0)
(-0.18239 -0.0834795 0)
(-0.184883 -0.0827094 0)
(-0.188138 -0.0805852 0)
(-0.192143 -0.0769853 0)
(-0.196909 -0.0716931 0)
(-0.202481 -0.0641787 0)
(-0.208769 -0.0533789 0)
(-0.215164 -0.0376848 0)
(-0.2201 -0.0153649 0)
(-0.22095 0.0144911 0)
(-0.214416 0.0509182 0)
(-0.197955 0.0902613 0)
(-0.0310127 0.0477597 0)
(-0.052392 0.00436587 0)
(-0.0767691 -0.0210057 0)
(-0.0977695 -0.0376594 0)
(-0.114481 -0.0497425 0)
(-0.127112 -0.0590532 0)
(-0.136431 -0.0663485 0)
(-0.143221 -0.0719576 0)
(-0.148244 -0.0760748 0)
(-0.152233 -0.078835 0)
(-0.155813 -0.0802832 0)
(-0.159419 -0.0803958 0)
(-0.163284 -0.0791356 0)
(-0.167493 -0.0764684 0)
(-0.17206 -0.0723258 0)
(-0.176966 -0.0665169 0)
(-0.182127 -0.0586167 0)
(-0.187269 -0.0478828 0)
(-0.19171 -0.0333134 0)
(-0.194162 -0.0139478 0)
(-0.192755 0.0105821 0)
(-0.185327 0.0394562 0)
(-0.170294 0.070241 0)
(-0.0211993 0.0779862 0)
(-0.0334102 0.028081 0)
(-0.0505669 -0.000969513 0)
(-0.0665804 -0.0205678 0)
(-0.0806486 -0.0359297 0)
(-0.0921758 -0.0482186 0)
(-0.101476 -0.0579436 0)
(-0.109011 -0.0653736 0)
(-0.115266 -0.0707193 0)
(-0.120694 -0.0741761 0)
(-0.125668 -0.0759053 0)
(-0.130452 -0.0760305 0)
(-0.13519 -0.0746458 0)
(-0.139947 -0.0718087 0)
(-0.144726 -0.0675115 0)
(-0.14948 -0.0616321 0)
(-0.154068 -0.0538826 0)
(-0.158168 -0.0437895 0)
(-0.161166 -0.0307612 0)
(-0.162069 -0.014287 0)
(-0.159582 0.00574457 0)
(-0.152298 0.0287088 0)
(-0.139261 0.052997 0)
(-0.00944808 0.0974153 0)
(-0.0132697 0.0423523 0)
(-0.0244456 0.0123196 0)
(-0.0356298 -0.00728065 0)
(-0.0469494 -0.0240613 0)
(-0.057136 -0.0381096 0)
(-0.0660502 -0.0494092 0)
(-0.0738444 -0.0580889 0)
(-0.0807574 -0.0643473 0)
(-0.0870205 -0.0684163 0)
(-0.0928243 -0.0705241 0)
(-0.0982999 -0.0708745 0)
(-0.103521 -0.0696347 0)
(-0.108514 -0.0669222 0)
(-0.113268 -0.0627838 0)
(-0.117718 -0.0571715 0)
(-0.121713 -0.0499234 0)
(-0.124957 -0.0407685 0)
(-0.126953 -0.0293826 0)
(-0.126978 -0.0155124 0)
(-0.124153 0.000844049 0)
(-0.11758 0.0192484 0)
(-0.106718 0.0386593 0)
(0.00704458 0.0993623 0)
(0.00990363 0.0503506 0)
(0.00174143 0.0210497 0)
(-0.00636899 0.00268147 0)
(-0.0151819 -0.014164 0)
(-0.0239169 -0.0289586 0)
(-0.0321642 -0.0411131 0)
(-0.0398303 -0.0505666 0)
(-0.0469464 -0.0574719 0)
(-0.0535714 -0.0620646 0)
(-0.0597584 -0.0645986 0)
(-0.0655416 -0.0653119 0)
(-0.0709341 -0.0644065 0)
(-0.07593 -0.0620343 0)
(-0.0805003 -0.0582836 0)
(-0.0845769 -0.0531687 0)
(-0.0880233 -0.0466259 0)
(-0.0905995 -0.0385258 0)
(-0.0919337 -0.028712 0)
(-0.0915195 -0.0170745 0)
(-0.0887814 -0.0036482 0)
(-0.0831623 0.0112836 0)
(-0.074385 0.0270776 0)
(0.0225941 0.0784544 0)
(0.0309494 0.0521921 0)
(0.0254815 0.0277098 0)
(0.0193947 0.0103275 0)
(0.0127 -0.00605344 0)
(0.005502 -0.0209029 0)
(-0.00180738 -0.0333554 0)
(-0.00897832 -0.0431974 0)
(-0.0158844 -0.0505225 0)
(-0.0224544 -0.0555438 0)
(-0.0286387 -0.0585099 0)
(-0.0343983 -0.0596614 0)
(-0.0396984 -0.0592085 0)
(-0.0445045 -0.057317 0)
(-0.0487741 -0.054101 0)
(-0.0524408 -0.049619 0)
(-0.0553928 -0.0438761 0)
(-0.0574503 -0.0368349 0)
(-0.0583516 -0.02844 0)
(-0.0577582 -0.0186577 0)
(-0.0553071 -0.00752602 0)
(-0.0506687 0.00479084 0)
(-0.0437322 0.0179289 0)
(0.0252669 0.0441455 0)
(0.0396346 0.0452358 0)
(0.0405457 0.0309646 0)
(0.0382121 0.0155756 0)
(0.0342004 8.54937e-05 0)
(0.0289921 -0.0142482 0)
(0.023098 -0.026511 0)
(0.016901 -0.0363943 0)
(0.0106654 -0.0439184 0)
(0.00457726 -0.0492506 0)
(-0.00122734 -0.0526088 0)
(-0.00664694 -0.0542134 0)
(-0.0116057 -0.0542628 0)
(-0.0160434 -0.0529203 0)
(-0.0199043 -0.0503108 0)
(-0.0231243 -0.0465189 0)
(-0.0256146 -0.0415918 0)
(-0.027247 -0.0355473 0)
(-0.0278469 -0.0283873 0)
(-0.0271984 -0.0201156 0)
(-0.0250837 -0.0107597 0)
(-0.0213223 -0.000396729 0)
(-0.0159057 0.0108012 0)
(0.017276 0.0143527 0)
(0.0354127 0.0318261 0)
(0.0438797 0.0279669 0)
(0.04721 0.0166195 0)
(0.0471292 0.00325297 0)
(0.044786 -0.00974374 0)
(0.0410194 -0.0212176 0)
(0.0364145 -0.0307165 0)
(0.0313902 -0.0381516 0)
(0.026251 -0.0436102 0)
(0.0212191 -0.0472517 0)
(0.0164572 -0.0492534 0)
(0.0120855 -0.0497836 0)
(0.00819382 -0.0489892 0)
(0.00485413 -0.0469914 0)
(0.00213286 -0.0438837 0)
(0.000103341 -0.039734 0)
(-0.00114368 -0.0345889 0)
(-0.0014956 -0.0284782 0)
(-0.000820914 -0.0214213 0)
(0.00100254 -0.0134312 0)
(0.00406189 -0.00452332 0)
(0.00830429 0.00525747 0)
(0.00985922 -0.00520087 0)
(0.0267676 0.0157852 0)
(0.0393971 0.0187549 0)
(0.0475861 0.0124511 0)
(0.0516821 0.0025128 0)
(0.0526951 -0.00817377 0)
(0.0515813 -0.0181538 0)
(0.0490763 -0.0267572 0)
(0.0457305 -0.0337353 0)
(0.0419528 -0.0390569 0)
(0.0380456 -0.0427948 0)
(0.0342318 -0.0450625 0)
(0.0306759 -0.0459826 0)
(0.0274997 -0.0456714 0)
(0.024796 -0.0442322 0)
(0.0226394 -0.0417526 0)
(0.0210975 -0.038304 0)
(0.0202384 -0.033942 0)
(0.020135 -0.0287065 0)
(0.020865 -0.0226187 0)
(0.0224908 -0.015677 0)
(0.0250443 -0.00785437 0)
(0.0284409 0.000886137 0)
(0.00617952 -0.0185863 0)
(0.0197364 0.00040466 0)
(0.0329253 0.0065452 0)
(0.0434626 0.00444031 0)
(0.0504926 -0.00180989 0)
(0.0543769 -0.00966049 0)
(0.055829 -0.017618 0)
(0.0555338 -0.0248702 0)
(0.0540626 -0.0310204 0)
(0.0518684 -0.0359113 0)
(0.049301 -0.0395151 0)
(0.0466268 -0.0418688 0)
(0.0440463 -0.0430375 0)
(0.0417099 -0.0430961 0)
(0.0397312 -0.0421191 0)
(0.0381967 -0.0401758 0)
(0.0371756 -0.0373276 0)
(0.0367257 -0.0336257 0)
(0.0368979 -0.0291069 0)
(0.0377388 -0.0237866 0)
(0.0392769 -0.0176495 0)
(0.0415142 -0.0106405 0)
(0.0443554 -0.00267252 0)
(0.00478482 -0.0286427 0)
(0.015546 -0.0127966 0)
(0.0275302 -0.00574037 0)
(0.0382838 -0.0051539 0)
(0.0465875 -0.00836673 0)
(0.0522603 -0.0135106 0)
(0.0556467 -0.0193184 0)
(0.0572309 -0.0249903 0)
(0.05749 -0.03006 0)
(0.0568425 -0.0342796 0)
(0.0556354 -0.0375349 0)
(0.0541466 -0.0397892 0)
(0.0525935 -0.0410485 0)
(0.0511442 -0.0413413 0)
(0.0499272 -0.040707 0)
(0.0490403 -0.0391888 0)
(0.0485573 -0.0368291 0)
(0.0485335 -0.0336652 0)
(0.04901 -0.0297232 0)
(0.0500177 -0.0250076 0)
(0.0515685 -0.0194904 0)
(0.0536517 -0.0130982 0)
(0.0561749 -0.00571642 0)
(0.00440368 -0.0370912 0)
(0.0132751 -0.0239471 0)
(0.0236566 -0.0168442 0)
(0.0335705 -0.0147251 0)
(0.0419412 -0.0157795 0)
(0.0483559 -0.018722 0)
(0.05288 -0.0225925 0)
(0.0557802 -0.0267097 0)
(0.0573899 -0.0306201 0)
(0.0580424 -0.0340392 0)
(0.0580398 -0.0367983 0)
(0.0576396 -0.038805 0)
(0.0570538 -0.0400146 0)
(0.0564528 -0.0404121 0)
(0.0559708 -0.0400011 0)
(0.0557117 -0.0387955 0)
(0.0557532 -0.0368144 0)
(0.0561514 -0.0340763 0)
(0.0569443 -0.0305915 0)
(0.0581571 -0.0263514 0)
(0.0597958 -0.0213157 0)
(0.0618469 -0.0153998 0)
(0.0642283 -0.00847612 0)
(0.00425279 -0.0447061 0)
(0.0118483 -0.0334869 0)
(0.0207545 -0.0265415 0)
(0.0295383 -0.023557 0)
(0.0373757 -0.0231643 0)
(0.043833 -0.0244609 0)
(0.0488346 -0.0267512 0)
(0.0524911 -0.0295004 0)
(0.0550053 -0.0323147 0)
(0.0566155 -0.034916 0)
(0.0575598 -0.0371143 0)
(0.0580562 -0.0387837 0)
(0.0582943 -0.0398429 0)
(0.0584333 -0.0402419 0)
(0.0586036 -0.0399524 0)
(0.0589086 -0.0389603 0)
(0.059427 -0.037261 0)
(0.0602158 -0.0348522 0)
(0.0613131 -0.031727 0)
(0.0627433 -0.0278622 0)
(0.0645123 -0.0232066 0)
(0.0666098 -0.0176682 0)
(0.0689664 -0.0111153 0)
(0.00400628 -0.0516945 0)
(0.0106366 -0.0417412 0)
(0.0182966 -0.0349596 0)
(0.0259848 -0.0314611 0)
(0.0330826 -0.0300987 0)
(0.0392139 -0.030202 0)
(0.0442576 -0.031267 0)
(0.0482367 -0.0328887 0)
(0.051262 -0.0347456 0)
(0.0534922 -0.0365886 0)
(0.055103 -0.0382295 0)
(0.0562676 -0.0395277 0)
(0.0571454 -0.0403801 0)
(0.0578765 -0.0407114 0)
(0.0585803 -0.0404679 0)
(0.0593542 -0.0396119 0)
(0.0602748 -0.0381166 0)
(0.0613986 -0.0359603 0)
(0.0627646 -0.0331188 0)
(0.0643986 -0.0295548 0)
(0.0663092 -0.0252068 0)
(0.0684918 -0.0199778 0)
(0.0708898 -0.0137371 0)
(0.00359806 -0.0580051 0)
(0.00940363 -0.0489024 0)
(0.0160075 -0.0422769 0)
(0.0227156 -0.0384548 0)
(0.0290462 -0.0364259 0)
(0.0346903 -0.0356646 0)
(0.0395255 -0.035798 0)
(0.043535 -0.0365217 0)
(0.0467736 -0.0375803 0)
(0.0493426 -0.0387614 0)
(0.0513672 -0.03989 0)
(0.0529798 -0.0408243 0)
(0.0543092 -0.04145 0)
(0.0554738 -0.0416758 0)
(0.0565782 -0.0414296 0)
(0.0577109 -0.040655 0)
(0.0589434 -0.0393068 0)
(0.0603305 -0.037346 0)
(0.0619119 -0.0347324 0)
(0.0637154 -0.0314161 0)
(0.0657533 -0.0273263 0)
(0.0680274 -0.0223619 0)
(0.0704932 -0.0163954 0)
(0.0030783 -0.0635418 0)
(0.00812821 -0.0550854 0)
(0.0138041 -0.0486356 0)
(0.0196376 -0.0446076 0)
(0.0252309 -0.0421087 0)
(0.0303292 -0.0407143 0)
(0.0348227 -0.0401416 0)
(0.0386795 -0.0401607 0)
(0.0419235 -0.0405711 0)
(0.0446182 -0.0411952 0)
(0.0468515 -0.0418764 0)
(0.048723 -0.0424779 0)
(0.0503344 -0.042882 0)
(0.0517833 -0.0429885 0)
(0.0531586 -0.042713 0)
(0.0545385 -0.0419853 0)
(0.0559881 -0.0407456 0)
(0.0575597 -0.0389405 0)
(0.0592931 -0.0365166 0)
(0.061218 -0.0334124 0)
(0.063351 -0.029549 0)
(0.0656996 -0.0248222 0)
(0.0682311 -0.0191069 0)
(0.00252183 -0.0682526 0)
(0.00686356 -0.0603685 0)
(0.0116949 -0.0541309 0)
(0.0167314 -0.0499834 0)
(0.0216263 -0.0471524 0)
(0.0261632 -0.0452909 0)
(0.030246 -0.044182 0)
(0.0338386 -0.0436516 0)
(0.0369482 -0.0435432 0)
(0.0396147 -0.0437097 0)
(0.0419002 -0.0440127 0)
(0.0438789 -0.0443238 0)
(0.0456304 -0.0445262 0)
(0.0472336 -0.0445154 0)
(0.0487631 -0.0441998 0)
(0.0502864 -0.0434997 0)
(0.0518621 -0.0423446 0)
(0.0535394 -0.0406696 0)
(0.0553578 -0.0384106 0)
(0.0573489 -0.0354965 0)
(0.0595332 -0.0318415 0)
(0.061924 -0.0273384 0)
(0.0644998 -0.0218633 0)
(0.00199043 -0.0721457 0)
(0.00566347 -0.0648149 0)
(0.00971027 -0.0588273 0)
(0.0140079 -0.0546329 0)
(0.0182395 -0.0515741 0)
(0.0222165 -0.0493689 0)
(0.0258531 -0.0478523 0)
(0.0291131 -0.046895 0)
(0.0319956 -0.0463757 0)
(0.0345258 -0.0461728 0)
(0.0367478 -0.0461643 0)
(0.0387171 -0.0462305 0)
(0.0404954 -0.0462578 0)
(0.0421457 -0.0461413 0)
(0.0437296 -0.0457853 0)
(0.0453049 -0.0451041 0)
(0.0469239 -0.0440199 0)
(0.0486324 -0.0424596 0)
(0.0504697 -0.0403506 0)
(0.0524689 -0.0376144 0)
(0.0546547 -0.0341597 0)
(0.0570459 -0.0298761 0)
(0.059632 -0.0246395 0)
(0.00151674 -0.0752936 0)
(0.00455602 -0.0684855 0)
(0.00786912 -0.0627771 0)
(0.0114772 -0.0585987 0)
(0.0150792 -0.0553945 0)
(0.0185065 -0.0529394 0)
(0.0216807 -0.051114 0)
(0.0245675 -0.0498269 0)
(0.0271622 -0.0489859 0)
(0.0294815 -0.0484899 0)
(0.0315568 -0.0482303 0)
(0.0334294 -0.048096 0)
(0.0351465 -0.0479777 0)
(0.0367579 -0.0477714 0)
(0.0383138 -0.0473804 0)
(0.0398633 -0.046716 0)
(0.0414527 -0.0456956 0)
(0.0431248 -0.0442409 0)
(0.0449181 -0.0422735 0)
(0.0468676 -0.0397096 0)
(0.0490019 -0.0364536 0)
(0.0513454 -0.0323926 0)
(0.0538993 -0.0274003 0)
(0.00111199 -0.0777986 0)
(0.00353864 -0.0714344 0)
(0.00616639 -0.0660294 0)
(0.00913617 -0.0619231 0)
(0.0121477 -0.0586388 0)
(0.015045 -0.0560048 0)
(0.0177547 -0.0539469 0)
(0.0202465 -0.0524077 0)
(0.0225159 -0.0513187 0)
(0.0245743 -0.0505946 0)
(0.0264442 -0.0501378 0)
(0.028156 -0.049844 0)
(0.029745 -0.0496085 0)
(0.0312499 -0.0493297 0)
(0.032711 -0.0489118 0)
(0.0341697 -0.0482649 0)
(0.0356668 -0.0473047 0)
(0.0372418 -0.0459498 0)
(0.0389325 -0.0441188 0)
(0.0407754 -0.0417248 0)
(0.042803 -0.0386697 0)
(0.045046 -0.034839 0)
(0.0475178 -0.0301032 0)
(0.0007446 -0.0796431 0)
(0.0025748 -0.073678 0)
(0.00456942 -0.0686313 0)
(0.00696858 -0.0646559 0)
(0.00944377 -0.0613409 0)
(0.0118423 -0.0585789 0)
(0.0140976 -0.0563456 0)
(0.0161874 -0.0546157 0)
(0.0181104 -0.0533393 0)
(0.0198759 -0.0524424 0)
(0.0215002 -0.0518348 0)
(0.0230048 -0.0514178 0)
(0.0244153 -0.0510911 0)
(0.0257609 -0.0507563 0)
(0.0270737 -0.0503194 0)
(0.0283879 -0.0496916 0)
(0.0297389 -0.0487886 0)
(0.031163 -0.0475286 0)
(0.0326967 -0.0458293 0)
(0.0343772 -0.0436032 0)
(0.0362411 -0.0407521 0)
(0.0383253 -0.0371612 0)
(0.0406562 -0.0326987 0)
(0.000195505 -0.0806886 0)
(0.00155673 -0.0751922 0)