/*--------------------------------*- C++ -*----------------------------------*\
| =========                 |                                                 |
| \\      /  F ield         | OpenFOAM: The Open Source CFD Toolbox           |
|  \\    /   O peration     | Version:  2.3.0                                 |
|   \\  /    A nd           | Web:      www.OpenFOAM.org                      |
|    \\/     M anipulation  |                                                 |
\*---------------------------------------------------------------------------*/
FoamFile
{
    version     2.0;
    format      ascii;
    class       volScalarField;
    location    "12";
    object      p;
}
// * * * * * * * * * * * * * * * * * * * * * * * * * * * * * * * * * * * * * //

dimensions      [0 2 -2 0 0 0 0];

internalField   nonuniform List<scalar> 
1720
(
0.000668316
0.000667663
0.000399783
0.000228748
0.000218081
0.000281076
0.000330057
0.000335649
0.000309535
0.000270512
0.000229129
0.000184067
0.000132135
6.91136e-05
-2.15629e-06
-7.95027e-05
-0.000164749
-0.000250147
-0.000328776
-0.000403152
-0.000466819
-0.000533615
-0.000630872
-0.000877924
-0.00146778
-0.00258593
-0.00419297
-0.00591588
-0.00758202
-0.00910337
-0.0105122
-0.0118135
-0.012836
-0.0135899
-0.0141002
-0.0142661
-0.0140751
-0.0135239
-0.0126256
-0.0114124
-0.00994794
-0.00829093
-0.00652237
-0.00475723
-0.00307451
-0.00147676
-0.000149046
0.0005991
0.000322755
0.000239446
0.000293299
0.000326394
0.000322199
0.000299747
0.000265816
0.000223196
0.000166394
0.000111464
5.40502e-05
5.64058e-05
0.00209844
0.00185101
0.00106403
0.000681189
0.00070898
0.000876629
0.000987172
0.000990474
0.000918984
0.000814773
0.000699082
0.000568372
0.000413062
0.000225199
6.50454e-06
-0.000237375
-0.000497502
-0.000758009
-0.00100575
-0.00123411
-0.00143835
-0.00163248
-0.00183403
-0.00205319
-0.00222885
-0.0023489
-0.00256701
-0.00286428
-0.003059
-0.0031732
-0.00305868
-0.00271432
-0.0025725
-0.00243129
-0.00203182
-0.00159202
-0.00113046
-0.000664108
-0.000217436
0.000184415
0.000517669
0.000775521
0.000955624
0.00106587
0.00111801
0.00109713
0.00122019
0.00116326
0.00107489
0.00107659
0.00112772
0.00113953
0.00109892
0.00101877
0.000909489
0.000774389
0.000609431
0.000461926
0.00032626
0.000254899
0.0036734
0.0028985
0.00162928
0.0011539
0.00126041
0.00151038
0.00165368
0.00164423
0.00153395
0.00137608
0.00119532
0.000982512
0.000723667
0.000406132
3.07643e-05
-0.000393255
-0.000847488
-0.0013067
-0.00174426
-0.00213992
-0.00248118
-0.00276728
-0.00301042
-0.00323213
-0.00348583
-0.00386937
-0.00437283
-0.00485067
-0.00532151
-0.00572491
-0.00604182
-0.00624263
-0.00624157
-0.00610179
-0.00589458
-0.00556759
-0.00514709
-0.00464235
-0.00408913
-0.00350878
-0.0029102
-0.00231881
-0.00171435
-0.00111205
-0.000526181
0.00011483
0.000632059
0.00131265
0.00165855
0.00180794
0.00187786
0.00188254
0.00181366
0.0016934
0.00151286
0.0012818
0.00101557
0.00075096
0.000496921
0.000343578
0.00497457
0.00390836
0.0022177
0.00165772
0.00185077
0.00217049
0.00233222
0.0023071
0.00216669
0.00196774
0.00173329
0.00144375
0.00108216
0.000628379
8.54781e-05
-0.000538131
-0.00121889
-0.00191711
-0.00258246
-0.00316717
-0.00363726
-0.00398836
-0.00425332
-0.00448884
-0.00475939
-0.00508951
-0.00545401
-0.00586374
-0.00626356
-0.00660679
-0.00686283
-0.00700114
-0.00699469
-0.00685259
-0.00657405
-0.0061305
-0.00553544
-0.00482673
-0.00404387
-0.00321475
-0.00236353
-0.00151431
-0.000693276
7.64977e-05
0.000787683
0.00142014
0.0020225
0.00210795
0.00232989
0.00250071
0.00257621
0.00258158
0.00248888
0.00233361
0.00209396
0.00177392
0.00141478
0.001027
0.00066021
0.000423852
0.00629984
0.00486998
0.00278955
0.00216273
0.00245452
0.0028442
0.00302417
0.00298976
0.00283214
0.00260781
0.00233363
0.00197541
0.0015129
0.000913317
0.000186771
-0.000665449
-0.00161343
-0.00260833
-0.0035668
-0.00438708
-0.00499029
-0.00537228
-0.00561122
-0.00581048
-0.00604358
-0.00633229
-0.00667125
-0.00704721
-0.00742233
-0.00774841
-0.0079866
-0.00810374
-0.00806627
-0.00784437
-0.00742387
-0.00681307
-0.00603601
-0.00514183
-0.0041778
-0.00319022
-0.00221941
-0.00129784
-0.000444282
0.00031999
0.000982348
0.00155162
0.00199892
0.00250292
0.00283718
0.00304905
0.00314753
0.0031574
0.00304049
0.00284918
0.00255928
0.00218458
0.0017475
0.00127039
0.000815886
0.000485339
0.0076037
0.00575584
0.0033293
0.00266344
0.00306528
0.00352902
0.00373408
0.0037042
0.00354714
0.00331794
0.00302073
0.00260666
0.00204627
0.00128914
0.000351246
-0.000780727
-0.00204643
-0.00340672
-0.00474521
-0.00586689
-0.00661386
-0.00698376
-0.00712791
-0.00722704
-0.00739021
-0.00763997
-0.00796231
-0.00833522
-0.00873087
-0.00909655
-0.00937565
-0.00951676
-0.0094744
-0.00920731
-0.0086785
-0.00790835
-0.00694972
-0.00586457
-0.00471416
-0.00355678
-0.00243672
-0.00138892
-0.000428068
0.000441632
0.00122477
0.00191692
0.00249514
0.00296831
0.00329323
0.00350158
0.00356768
0.00352517
0.00335027
0.00309466
0.00274861
0.00235532
0.00189693
0.00139754
0.000897755
0.000519844
0.0088592
0.00656905
0.00384158
0.00317367
0.00368753
0.00422204
0.00445894
0.00445343
0.00432246
0.00411749
0.00382025
0.00337265
0.00271997
0.00180108
0.000605805
-0.000905408
-0.00259295
-0.00440753
-0.00619375
-0.00763745
-0.00847061
-0.00878494
-0.00879264
-0.00874952
-0.00881008
-0.00899015
-0.009275
-0.0096513
-0.010117
-0.0105854
-0.0109711
-0.0111906
-0.0111767
-0.0108899
-0.0102912
-0.00936392
-0.00817707
-0.00683587
-0.00543286
-0.00404075
-0.00271151
-0.00147763
-0.000357526
0.000636943
0.00149604
0.00221052
0.00278002
0.00322195
0.0034938
0.00366092
0.00363502
0.00346553
0.00319694
0.0029095
0.00258328
0.00222912
0.00180282
0.00133097
0.00084767
0.000489116
0.0100371
0.00729303
0.00430973
0.00370985
0.00433581
0.00492018
0.00519108
0.00523381
0.0051642
0.00502246
0.00476348
0.00431737
0.00358751
0.00251482
0.00100655
-0.00103312
-0.00345481
-0.00598754
-0.00821951
-0.0097553
-0.0104735
-0.0105575
-0.0103562
-0.0101808
-0.0101566
-0.0102633
-0.0105207
-0.0109485
-0.0115063
-0.0121336
-0.012711
-0.0130999
-0.0131804
-0.0128816
-0.0122017
-0.0111217
-0.0096768
-0.0080103
-0.00628431
-0.00460684
-0.0030404
-0.00162372
-0.00037973
0.000682196
0.00156595
0.00228218
0.00283733
0.00322454
0.0034375
0.00342602
0.00322683
0.00298597
0.00271985
0.00244713
0.00215008
0.00184011
0.00149789
0.00109366
0.000692684
0.000398778
0.0111335
0.00798362
0.00459268
0.00426832
0.00502672
0.00562273
0.00592754
0.00604213
0.00607313
0.00604064
0.00588218
0.00549329
0.00473735
0.00352471
0.00164284
-0.00109356
-0.00478615
-0.00919753
-0.0120028
-0.0130058
-0.0127864
-0.0120239
-0.0113294
-0.0111398
-0.0110303
-0.0109874
-0.0111951
-0.0117131
-0.0124887
-0.0133496
-0.0142279
-0.0149487
-0.0153028
-0.0151348
-0.0143981
-0.0131362
-0.0114293
-0.00943059
-0.00734854
-0.00535672
-0.00354919
-0.00196689
-0.000622311
0.000493108
0.00139883
0.00209538
0.00255494
0.0027657
0.00276569
0.00261686
0.00241807
0.00220982
0.00199663
0.00179011
0.00157597
0.00135122
0.00110086
0.00080177
0.000512695
0.000262656
0.012127
0.00859269
0.00490642
0.00475831
0.00564575
0.00629816
0.00665941
0.00686714
0.00703225
0.00715974
0.00718203
0.00694526
0.00629296
0.00496649
0.00272932
-0.00124235
-0.00616269
-0.0154175
-0.0196341
-0.0199097
-0.01747
-0.0143283
-0.0118637
-0.0117252
-0.0114251
-0.0111081
-0.0112974
-0.011912
-0.0127812
-0.0138962
-0.0150618
-0.0161231
-0.0168939
-0.0171193
-0.0165688
-0.0152404
-0.0133159
-0.0110305
-0.00863301
-0.00634071
-0.0042896
-0.0025393
-0.00109494
6.40669e-05
0.000938114
0.00150124
0.00175358
0.00176669
0.00164459
0.00145764
0.00133703
0.00123069
0.00113768
0.0010522
0.00095891
0.000845573
0.000710298
0.000533151
0.000350067
0.000115878
0.0130039
0.00911638
0.00522797
0.00517312
0.00618027
0.00691873
0.00735782
0.00767808
0.00800076
0.00834052
0.00861807
0.0086777
0.00833255
0.00715326
0.00488577
-0.00223553
-0.00777123
-0.0148508
-0.0124669
-0.0119026
-0.0113494
-0.011139
-0.0113099
-0.0119122
-0.0128557
-0.0140606
-0.0154041
-0.0167242
-0.0178013
-0.0183399
-0.0180769
-0.0169268
-0.0150088
-0.0125854
-0.00996999
-0.00744263
-0.00521494
-0.00333889
-0.00183421
-0.000711895
1.0976e-05
0.000354123
0.000406531
0.000306301
0.000183899
7.86833e-05
7.28251e-05
0.000124308
0.000198876
0.000271907
0.000328767
0.000357397
0.000351445
0.00029677
0.000210279
-1.62321e-05
0.0137427
0.00954817
0.00550775
0.00551935
0.00663288
0.007461
0.00798646
0.00842788
0.00892059
0.00950652
0.0100938
0.0106025
0.010755
0.0102768
0.00823453
0.00258332
-0.0113876
-0.0111947
-0.01141
-0.0120073
-0.0129313
-0.0141383
-0.0155359
-0.0169605
-0.0181621
-0.0189135
-0.0188709
-0.0179131
-0.0161095
-0.0137155
-0.0110672
-0.0085136
-0.00623838
-0.00433038
-0.00289248
-0.00194009
-0.00143326
-0.00128188
-0.00138635
-0.00152187
-0.00151414
-0.00151784
-0.00134348
-0.00108109
-0.000793054
-0.00052124
-0.000286495
-0.000100891
3.3625e-05
0.000100945
0.000101798
-0.000109201
0.0143217
0.00988018
0.0057295
0.00579415
0.00699574
0.00789941
0.00850694
0.00905941
0.0097211
0.0105439
0.0114718
0.012454
0.0132655
0.0137845
0.0122918
0.00885995
-0.0113117
-0.0112024
-0.0114601
-0.0119929
-0.0128267
-0.0139467
-0.0152869
-0.016708
-0.0180105
-0.018787
-0.0188588
-0.0180735
-0.0164634
-0.0142571
-0.0117816
-0.00937461
-0.00721016
-0.00546165
-0.00422722
-0.00351063
-0.00321872
-0.00331257
-0.00349835
-0.00361053
-0.00361662
-0.00329527
-0.00285007
-0.0023213
-0.00177976
-0.00128018
-0.000845516
-0.000486686
-0.000238165
-6.30466e-05
5.79369e-05
-0.000119966
0.014724
0.0101079
0.00588467
0.00598849
0.00725228
0.00821115
0.00888221
0.00952175
0.0103204
0.0113365
0.0125631
0.0139514
0.0154162
0.0167168
0.0169716
-0.0112914
-0.0113264
-0.0117394
-0.0124343
-0.0133815
-0.0145371
-0.0157781
-0.0170026
-0.0177668
-0.0178937
-0.0172851
-0.0159461
-0.0140574
-0.0119047
-0.00979149
-0.00792931
-0.00649132
-0.0055409
-0.00513797
-0.0051892
-0.00542879
-0.00562971
-0.00569689
-0.00551438
-0.00500622
-0.00428795
-0.00347091
-0.00266513
-0.00193872
-0.0013147
-0.0007774
-0.000404177
-0.000156075
2.03742e-05
-9.16643e-05
0.0149375
0.0102278
0.0059672
0.00609296
0.00738916
0.00837884
0.00908464
0.00977485
0.010649
0.0117801
0.0131756
0.0148275
0.0167016
0.0186484
0.0201009
-0.010863
-0.0109434
-0.0112517
-0.0117727
-0.0124811
-0.0133433
-0.0142777
-0.0151426
-0.0156975
-0.0157984
-0.0153408
-0.0143058
-0.0128228
-0.0111262
-0.00947633
-0.0080797
-0.00712017
-0.0066875
-0.00667208
-0.00695793
-0.00732348
-0.00760459
-0.00759951
-0.00722627
-0.00649083
-0.00550136
-0.00440891
-0.00336017
-0.00243954
-0.00163835
-0.00096138
-0.000510378
-0.000200297
-2.26744e-06
-6.3329e-05
0.0149559
0.0102377
0.00597377
0.00610137
0.00740017
0.00839221
0.00910035
0.00979363
0.0106719
0.0118084
0.0132111
0.0148736
0.0167631
0.018739
0.02023
-0.0102822
-0.0104133
-0.010641
-0.0109743
-0.0114039
-0.0118977
-0.0124085
-0.0128322
-0.013027
-0.0129551
-0.0125091
-0.0117005
-0.0106374
-0.00949156
-0.00846583
-0.00774645
-0.00738759
-0.00744125
-0.00779554
-0.0083619
-0.00890195
-0.00919253
-0.0090915
-0.00854168
-0.00759137
-0.00636926
-0.00505517
-0.003821
-0.00274958
-0.00180983
-0.00108791
-0.000561936
-0.000219381
-5.66021e-06
-3.48933e-05
0.0147782
0.0101373
0.00590417
0.00601336
0.00728481
0.00825071
0.00892862
0.00957725
0.0103877
0.0114201
0.0126671
0.0140853
0.0155913
0.0169635
0.0173665
-0.00979945
-0.00994103
-0.01006
-0.0101824
-0.0103124
-0.0104257
-0.0104966
-0.0104921
-0.0103634
-0.0100557
-0.00956271
-0.00891711
-0.00821324
-0.00758959
-0.00717097
-0.00706046
-0.00723651
-0.0077613
-0.00854799
-0.00934868
-0.00998917
-0.010249
-0.0100403
-0.00933912
-0.00821753
-0.00682864
-0.00536811
-0.00402575
-0.00287474
-0.00188383
-0.00113899
-0.00055539
-0.00021223
-7.66282e-06
-1.56216e-05
0.0144095
0.0099283
0.00576122
0.00583429
0.00704853
0.00796347
0.00858218
0.00914906
0.00983008
0.0106786
0.0116408
0.0126696
0.0135523
0.0141727
0.0129205
0.00978149
-0.00960012
-0.00970131
-0.00965474
-0.00960361
-0.00948686
-0.00929862
-0.00903636
-0.00869324
-0.00827954
-0.00779994
-0.00729399
-0.00677492
-0.00629556
-0.00591733
-0.00571747
-0.0057793
-0.00620774
-0.0069783
-0.00791695
-0.00894398
-0.00988123
-0.0105585
-0.0107262
-0.010411
-0.00958746
-0.00835348
-0.00687999
-0.00535843
-0.00399412
-0.00284121
-0.00186067
-0.00110523
-0.000543625
-0.00020474
-1.37922e-05
-9.57397e-06
0.0138603
0.00961368
0.00555049
0.00557279
0.00670382
0.00754689
0.00808746
0.00854767
0.00906645
0.00968596
0.0103194
0.0108883
0.0111321
0.0107846
0.0089647
0.00374467
-0.00970517
-0.00965053
-0.00950546
-0.00927443
-0.00891656
-0.00842992
-0.00782448
-0.00711781
-0.00634745
-0.00557108
-0.00488715
-0.00434151
-0.00399809
-0.00392077
-0.00416982
-0.00474285
-0.0055969
-0.00668696
-0.00789681
-0.0090302
-0.00994661
-0.0104906
-0.0106444
-0.0102421
-0.00933544
-0.00805383
-0.00658047
-0.00511064
-0.00379059
-0.00267773
-0.00176672
-0.00105626
-0.000526819
-0.000201692
-2.61119e-05
-1.59505e-05
0.0131462
0.00919733
0.00528014
0.00523748
0.00626622
0.00702296
0.00748022
0.00782289
0.00817626
0.00855611
0.00888691
0.00901819
0.00877342
0.00774201
0.0056832
-0.000892563
-0.00596057
-0.0124704
-0.0104908
-0.0101891
-0.0098653
-0.00973523
-0.00943356
-0.00902139
-0.00844187
-0.00770235
-0.00683587
-0.00587746
-0.00491353
-0.00401137
-0.00325731
-0.00273374
-0.00251852
-0.00267128
-0.00321095
-0.00409477
-0.00522999
-0.00648456
-0.00772863
-0.00882964
-0.00967621
-0.0101447
-0.0101543
-0.00964694
-0.00869243
-0.00743397
-0.00604477
-0.00468737
-0.00347906
-0.00247477
-0.0016417
-0.000999363
-0.000516634
-0.000211537
-4.57998e-05
-2.72382e-05
0.0122879
0.00868645
0.00496615
0.00483088
0.00574292
0.00641629
0.00679796
0.00703041
0.00722908
0.00740021
0.0074798
0.00731751
0.00676749
0.00557813
0.0035374
-0.000120139
-0.00461131
-0.0129796
-0.0165284
-0.0164832
-0.0141823
-0.0116835
-0.010058
-0.0101845
-0.0100226
-0.00974674
-0.00932842
-0.00875312
-0.00799301
-0.00706987
-0.00603687
-0.00495864
-0.00392893
-0.00303616
-0.00233864
-0.0019256
-0.00185743
-0.0021729
-0.00286235
-0.00385723
-0.00503846
-0.00626976
-0.00743698
-0.00843082
-0.00913092
-0.0094505
-0.00932937
-0.00874806
-0.00780246
-0.00663997
-0.00540023
-0.00421127
-0.00314706
-0.0022525
-0.00151742
-0.000950031
-0.000519017
-0.00023699
-7.58009e-05
-4.13028e-05
0.0113066
0.00808648
0.00465817
0.0043461
0.00513089
0.00574956
0.00607622
0.00621638
0.00628209
0.00629379
0.00619323
0.00587576
0.00521468
0.00412017
0.00239781
-0.000115587
-0.00350519
-0.00751621
-0.0099637
-0.0107743
-0.0105616
-0.00996859
-0.00951882
-0.00945836
-0.00932941
-0.00908237
-0.00869862
-0.00812751
-0.00734708
-0.00641716
-0.00538495
-0.00433746
-0.00336704
-0.002558
-0.00197502
-0.00169328
-0.00174372
-0.00214493
-0.00286958
-0.00384241
-0.00494632
-0.00604161
-0.00704633
-0.00786521
-0.00838687
-0.00850603
-0.00823258
-0.00764936
-0.00682191
-0.00582687
-0.00477864
-0.00377293
-0.00286245
-0.00208306
-0.0014322
-0.000922634
-0.00053162
-0.000269136
-0.000110809
-5.92675e-05
0.010216
0.00739969
0.00437948
0.00378975
0.00444233
0.00505025
0.0053434
0.00541141
0.00537561
0.00527662
0.005072
0.0046915
0.00404331
0.0030712
0.0016851
-0.000185912
-0.0024148
-0.00472895
-0.00672635
-0.00804491
-0.00863322
-0.00870607
-0.00854569
-0.00837361
-0.00821682
-0.00799894
-0.00765188
-0.00713656
-0.00648922
-0.00572021
-0.00484119
-0.0039682
-0.00317301
-0.00252739
-0.00208525
-0.00188587
-0.00198605
-0.00238277
-0.00303931
-0.00388925
-0.00485109
-0.00573431
-0.00650952
-0.00706764
-0.00735771
-0.00735068
-0.0070764
-0.00658462
-0.00589105
-0.00507437
-0.00422899
-0.00341123
-0.00265403
-0.00198788
-0.00141473
-0.000949753
-0.000578555
-0.000315726
-0.000145937
-7.48224e-05
0.00903541
0.00667699
0.00391194
0.00325195
0.00379173
0.00434993
0.00460848
0.004627
0.00452713
0.00436173
0.00411272
0.00372302
0.003138
0.00230156
0.00120364
-0.000185566
-0.00173767
-0.00339837
-0.00501542
-0.00626762
-0.00695526
-0.00719104
-0.00713089
-0.00698603
-0.00683814
-0.00665576
-0.00638556
-0.00599415
-0.00548654
-0.00488196
-0.00426329
-0.00362432
-0.00304478
-0.00257283
-0.00226128
-0.00215879
-0.00228703
-0.0026303
-0.00315537
-0.00381476
-0.00449183
-0.00519346
-0.00575625
-0.00613793
-0.00631231
-0.0062982
-0.0060799
-0.00564793
-0.00506243
-0.00441102
-0.00374651
-0.00309713
-0.00248438
-0.00193233
-0.00144269
-0.00102886
-0.000680078
-0.00040823
-0.000207171
-9.28792e-05
0.00776949
0.00586135
0.00339687
0.00273641
0.00316268
0.00364941
0.00387465
0.00386657
0.00373678
0.00354243
0.00328653
0.00292153
0.00241671
0.00172568
0.000863823
-0.000179161
-0.00134248
-0.0025876
-0.00379593
-0.00477911
-0.00538399
-0.00562395
-0.0056371
-0.00557235
-0.00548311
-0.00535796
-0.00516965
-0.00489669
-0.00454009
-0.00412544
-0.0036854
-0.0032572
-0.00288203
-0.00255144
-0.0023538
-0.00232901
-0.00245008
-0.0027259
-0.00312842
-0.00361055
-0.00412385
-0.00462123
-0.0050376
-0.00533239
-0.00547297
-0.00544532
-0.00523806
-0.00487443
-0.0044074
-0.00388268
-0.00334051
-0.00280864
-0.00230102
-0.00183789
-0.00142486
-0.00106907
-0.000761662
-0.00051077
-0.00029872
-0.000146066
0.00644756
0.00496837
0.0028512
0.00222717
0.00254103
0.00295199
0.00314998
0.00313428
0.00299948
0.00280423
0.00256431
0.00224587
0.00182793
0.00127931
0.000610666
-0.00017573
-0.00104761
-0.00195604
-0.00281679
-0.00352619
-0.00400267
-0.00424815
-0.00432756
-0.00431903
-0.00426756
-0.00418109
-0.00405158
-0.0038683
-0.00363469
-0.00336759
-0.00308215
-0.00281631
-0.00261978
-0.00248745
-0.00241258
-0.00241097
-0.00252306
-0.00273313
-0.00304011
-0.00340838
-0.00379488
-0.00415674
-0.00446272
-0.00468866
-0.00480167
-0.00477926
-0.0046271
-0.00435877
-0.00399289
-0.00355722
-0.00308394
-0.00261167
-0.00215408
-0.00172731
-0.00134132
-0.0010061
-0.000712265
-0.000480158
-0.000278539
-0.000152705
0.00509817
0.0039944
0.00227022
0.00171076
0.00192246
0.00226093
0.00243801
0.00242794
0.00230551
0.00212934
0.00192184
0.0016629
0.00133514
0.000918829
0.000418082
-0.000158126
-0.000784638
-0.00142033
-0.0020128
-0.00250905
-0.00287
-0.00308895
-0.00318884
-0.00320971
-0.00318343
-0.00312722
-0.00304015
-0.0029159
-0.00277335
-0.00261867
-0.00246953
-0.00232273
-0.00218073
-0.00211078
-0.00210377
-0.00214395
-0.00225442
-0.00245308
-0.00273227
-0.00305925
-0.00340769
-0.00374524
-0.00403849
-0.00425619
-0.00438876
-0.00442852
-0.00436645
-0.00420192
-0.00394701
-0.0036179
-0.00323191
-0.00281799
-0.00239449
-0.00196767
-0.00154923
-0.0011563
-0.00079628
-0.000480598
-0.000200041
-2.75011e-05
0.00376858
0.00296695
0.00166987
0.00119295
0.00131356
0.0015791
0.00173477
0.00173642
0.00163899
0.00149742
0.00133609
0.00114492
0.000909551
0.000617259
0.000269987
-0.000122231
-0.000540308
-0.000957859
-0.00134546
-0.00167584
-0.00192951
-0.00209636
-0.00218248
-0.00220995
-0.00219415
-0.00215494
-0.00209861
-0.00201457
-0.00193818
-0.00186573
-0.00185113
-0.0019974
-0.00219094
-0.00234404
-0.00250318
-0.00270551
-0.00294985
-0.00321812
-0.00349733
-0.00377735
-0.00404248
-0.00427687
-0.00446346
-0.00458883
-0.00464228
-0.00462142
-0.00452569
-0.00437156
-0.00416944
-0.00393643
-0.00367524
-0.00339464
-0.00309589
-0.00279431
-0.00247694
-0.00215294
-0.00179321
-0.00142604
-0.000999261
-0.000495339
0.00215734
0.0018972
0.00109051
0.000704529
0.000741437
0.000920216
0.00103927
0.00104944
0.000985559
0.000891195
0.000787285
0.000669651
0.000527858
0.000354512
0.000150448
-7.54116e-05
-0.000313392
-0.000551447
-0.000772207
-0.000961822
-0.00111108
-0.00121261
-0.0012673
-0.00128589
-0.00127477
-0.00124817
-0.00120403
-0.0011499
-0.00111247
-0.00108148
-0.0010955
-0.00100037
-0.000897836
-0.000807302
-0.000692331
-0.000574409
-0.000494109
-0.000456645
-0.000451865
-0.000467143
-0.000489718
-0.000505313
-0.000500188
-0.000463411
-0.000390875
-0.000281447
-0.00013932
3.07218e-05
0.000214877
0.000402054
0.000576628
0.000729829
0.000844129
0.000921187
0.000953311
0.00094767
0.000894165
0.000787477
0.000613068
0.000259158
0.000688143
0.000685421
0.000409758
0.000236507
0.000229091
0.000296726
0.000349082
0.000357132
0.000333444
0.000297966
0.000260492
0.000220318
0.000172409
0.000114892
4.68264e-05
-2.63683e-05
-0.000101797
-0.000180467
-0.00025268
-0.000314534
-0.000364292
-0.000396686
-0.000416289
-0.000421103
-0.000413354
-0.000407972
-0.000373965
-0.000337624
-0.000282713
-0.000242313
-0.000852677
-0.00189783
-0.00288464
-0.00368068
-0.00440116
-0.0051534
-0.00595783
-0.00680724
-0.00769839
-0.00862602
-0.00957423
-0.0105164
-0.0114175
-0.0122349
-0.0129269
-0.013451
-0.0137749
-0.0138671
-0.0137186
-0.0133246
-0.0127043
-0.0118705
-0.0108704
-0.00972344
-0.00848487
-0.00716724
-0.00581633
-0.00440134
-0.00286422
-0.00113674
)
;

boundaryField
{
    upstream
    {
        type            fixedValue;
        value           uniform 0;
    }
    downstream
    {
        type            fixedValue;
        value           uniform 0;
    }
    upANDdown
    {
        type            fixedValue;
        value           uniform 0;
    }
    frontAndBack
    {
        type            empty;
    }
    cylinder
    {
        type            zeroGradient;
    }
}


// ************************************************************************* //
