/*--------------------------------*- C++ -*----------------------------------*\
| =========                 |                                                 |
| \\      /  F ield         | OpenFOAM: The Open Source CFD Toolbox           |
|  \\    /   O peration     | Version:  2.3.0                                 |
|   \\  /    A nd           | Web:      www.OpenFOAM.org                      |
|    \\/     M anipulation  |                                                 |
\*---------------------------------------------------------------------------*/
FoamFile
{
    version     2.0;
    format      ascii;
    class       volScalarField;
    location    "0.084";
    object      alpha.water;
}
// * * * * * * * * * * * * * * * * * * * * * * * * * * * * * * * * * * * * * //

dimensions      [0 0 0 0 0 0 0];

internalField   nonuniform List<scalar> 
725
(
1
1
0.999997
0.999971
0.99766
1
1
0.999999
1
0.996712
1
1
0.999999
1.00021
0.998515
1
1
0.999999
1.00013
1
1
1
1
1.00004
0.980676
0.902187
0.756225
0.715958
0.820505
0.987607
0.999701
0.9996
0.999714
0.999834
0.999917
0.999973
1.00001
1.00001
1.00001
1
1.00003
1.00001
0.922823
0.163721
0.000898776
0.000899846
0.000919554
0.126357
0.838249
0.999909
0.999893
0.999934
0.999982
1.00002
1.00002
1.00002
1.00002
1.00002
1.00002
1.00002
1.00002
1.00002
1.00002
1.00002
1.00002
1.00002
0.99988
0.999961
0.939649
0.150078
0.910576
0.779765
0.715712
0.841984
0.991141
0.999874
0.999775
0.999665
0.999676
0.999748
0.999803
0.999833
0.999851
0.999859
0.999866
0.999994
1.00001
0.924972
0.154214
0.000898787
0.000900932
0.000942018
0.161463
0.865871
0.999913
0.999843
0.999711
0.999667
0.999652
0.999663
0.999687
0.999716
0.999747
0.999778
0.999805
0.999834
0.999854
0.999875
0.999878
0.999868
0.999813
0.999747
0.999998
0.902475
0.0779655
0.983976
0.427922
0.53559
0.687722
0.990629
0.999955
0.999957
0.99971
0.999669
0.999699
0.999744
0.99978
0.999803
0.999816
0.999837
0.999984
1
0.9064
0.124946
0.000899665
0.000901241
0.000928655
0.212443
0.884379
0.999929
0.99993
0.999779
0.999726
0.999674
0.999621
0.999575
0.999539
0.999516
0.999509
0.999517
0.99954
0.999568
0.999607
0.999627
0.999638
0.999617
0.999572
0.999997
0.902116
0.15761
0.645669
0.165766
0.391227
0.368131
0.999946
0.99995
0.999961
0.999699
0.999687
0.999706
0.999738
0.99977
0.999793
0.99981
0.999873
0.99997
1
0.868343
0.109561
0.000900546
0.000904348
0.000966265
0.270761
0.88367
0.999919
0.99992
0.999855
0.999813
0.999762
0.999703
0.999636
0.999567
0.999498
0.999434
0.999381
0.999346
0.999326
0.999331
0.999332
0.999341
0.999336
0.999322
0.999997
0.927979
0.163268
0.0198535
0.0229118
0.206295
0.263903
0.980975
0.999947
0.999901
0.999906
0.999752
0.999731
0.999747
0.999779
0.999808
0.999829
0.999881
1.00006
1
0.810748
0.115461
0.000904348
0.00105506
0.00109792
0.183271
0.769187
0.999914
0.999908
0.999851
0.999795
0.999748
0.999704
0.999649
0.99958
0.999496
0.999402
0.999307
0.999222
0.99915
0.99911
0.999079
0.999081
0.999087
0.999155
0.999997
0.876027
0.166381
7.56259e-06
8.91974e-05
0.030079
0.188461
0.92414
0.99993
0.999896
0.999829
0.999759
0.999734
0.999751
0.999792
0.999831
0.999866
0.999886
1.00005
1.00002
0.774365
0.131205
0.00179396
0.0133973
0.00145857
0.266703
0.846027
0.999949
0.999772
0.999817
0.999744
0.999669
0.999607
0.999542
0.999463
0.999366
0.999257
0.999144
0.999043
0.99896
0.998939
0.998904
0.998927
0.998963
0.9991
0.999997
0.924891
0.166381
4.04614e-05
6.65632e-05
0.00256672
0.158751
0.915053
0.999957
0.999889
0.999832
0.999761
0.999734
0.999754
0.999801
0.999841
0.999874
0.99989
1.00002
1.00002
0.732499
0.139303
0.00223168
0.0101405
0.00754369
0.159271
0.885453
0.999959
0.999703
0.999716
0.999667
0.99962
0.999567
0.9995
0.999416
0.999316
0.999202
0.999083
0.998971
0.998879
0.998835
0.99881
0.998838
0.998904
0.999077
0.999999
0.93579
0.166383
1.3346e-05
5.04783e-05
0.000467352
0.104032
0.906302
1.00001
0.999885
0.999785
0.999761
0.999729
0.999757
0.999812
0.999852
0.99988
0.999898
1.00003
1.00002
0.736769
0.144467
0.00175558
0.000784968
0.0113309
0.11567
0.90013
0.999964
0.999592
0.999628
0.999638
0.999619
0.999568
0.999496
0.999407
0.999303
0.999186
0.999061
0.998941
0.998842
0.998783
0.998768
0.998816
0.998895
0.999088
1
0.946029
0.166989
1.93897e-05
5.10954e-05
0.000370774
0.0609088
0.905408
1.00004
0.999878
0.999894
0.999759
0.999723
0.999765
0.999825
0.999862
0.999886
0.999907
0.999919
1.00001
0.734366
0.135452
0.000706296
0.000664109
0.00356201
0.141326
0.836861
0.999963
0.999444
0.999611
0.999652
0.999628
0.999572
0.999499
0.999411
0.999309
0.999193
0.999068
0.998946
0.998844
0.998781
0.998772
0.998854
0.99893
0.999127
1.00001
0.952101
0.167591
9.78232e-08
2.13379e-05
0.000209842
0.0515962
0.842901
1
0.99984
0.999813
0.999755
0.999696
0.999724
0.999823
0.99987
0.999892
0.999916
0.999911
0.999967
0.717733
0.14641
0.000635048
0.000448284
0.000582721
0.158165
0.843785
0.999964
0.999784
0.999678
0.999667
0.999624
0.999562
0.99949
0.999408
0.999316
0.999212
0.999097
0.998984
0.998886
0.998832
0.998828
0.998949
0.99901
0.999166
1.00009
0.962451
0.184721
1
1
1
0.999996
0.999996
1
1
0.999999
0.999991
0.999998
1
1
0.999998
1.00004
1
1
1
0.99997
1.00031
0.999249
1
1
0.999969
1.00012
1
0.0766004
0.00020326
0.00358379
0.0196706
0.756776
1
0.999876
0.99978
0.999694
0.999751
0.999893
0.999899
0.99989
0.999898
0.999922
0.999992
0.999998
0.72664
0.109304
0.000565346
0.000360604
0.000349319
0.0811813
0.869306
0.999964
0.999731
0.999714
0.999685
0.99963
0.999561
0.999485
0.999407
0.999327
0.999248
0.999172
0.999105
0.999055
0.999035
0.99904
0.999109
0.99916
0.999289
1
0.979576
0.235235
0.761791
0.0164318
0.00397788
0.00460765
0.680238
1
0.999835
0.999706
0.999775
0.999936
0.999907
0.999891
0.999891
0.999914
0.999943
1.00001
1
0.759881
0.0796691
0.000360671
0.000343863
0.000335908
0.0716973
0.904684
0.999981
0.999862
0.999725
0.99967
0.999589
0.999506
0.999429
0.999362
0.999307
0.999266
0.999242
0.999238
0.99925
0.999285
0.999325
0.999395
0.999424
0.999456
0.99999
0.967346
0.184949
0.900187
0.363509
0.0187639
0.0345447
0.659893
1
0.999791
0.999772
0.999887
0.999907
0.999899
0.999901
0.999918
0.999951
1
1.00003
1
0.712302
0.0394379
0.000345113
0.000336524
0.000335751
0.0619129
0.939502
1
0.999784
0.999706
0.999626
0.999555
0.999505
0.999482
0.999481
0.999496
0.999521
0.99955
0.999582
0.99961
0.999643
0.999666
0.999691
0.999676
0.999636
1
0.959688
0.180584
0.817093
0.672746
0.180345
0.0749076
0.711552
1
0.999893
0.999886
0.999917
0.999931
0.999952
1
1.00002
1.00002
1.00002
1.00001
1
0.671398
0.020539
0.000345594
0.00033661
0.000335684
0.0507278
0.913758
1
0.999746
0.999685
0.999662
0.999668
0.999691
0.999721
0.99975
0.999775
0.999797
0.999815
0.99983
0.999838
0.999847
0.999842
0.99983
0.999799
0.99974
0.999998
0.92301
0.139098
0.866996
0.614781
0.18142
0.0824666
0.70861
1.00001
1.00003
0.999996
1.00002
1.00003
1.00003
1.00002
1.00002
1.00002
1.00002
1.00001
1
0.609421
0.0126289
0.000345969
0.000336759
0.000335678
0.0584099
0.92751
1.00001
1.00001
1.00002
1.00002
1.00002
1.00002
1.00002
1.00002
1.00002
1.00002
1.00002
1.00002
1.00002
1.00002
1.00001
1.00002
0.999934
0.999795
0.999997
0.881052
0.155818
)
;

boundaryField
{
    AirInlet
    {
        type            fixedValue;
        value           uniform 0;
    }
    WaterInlet
    {
        type            fixedValue;
        value           uniform 1;
    }
    ChannelWall
    {
        type            zeroGradient;
    }
    Outlet
    {
        type            inletOutlet;
        inletValue      uniform 0;
        value           nonuniform List<scalar> 
15
(
0
0
0.15761
0.163268
0.166381
0.166381
0.166383
0.166989
0.167591
0
0
0
0
0.139098
0.155818
)
;
    }
    FrontAndBack
    {
        type            empty;
    }
}


// ************************************************************************* //
