/*--------------------------------*- C++ -*----------------------------------*\
| =========                 |                                                 |
| \\      /  F ield         | OpenFOAM: The Open Source CFD Toolbox           |
|  \\    /   O peration     | Version:  2.3.0                                 |
|   \\  /    A nd           | Web:      www.OpenFOAM.org                      |
|    \\/     M anipulation  |                                                 |
\*---------------------------------------------------------------------------*/
FoamFile
{
    version     2.0;
    format      ascii;
    class       volScalarField;
    location    "0.084";
    object      p;
}
// * * * * * * * * * * * * * * * * * * * * * * * * * * * * * * * * * * * * * //

dimensions      [1 -1 -2 0 0 0 0];

internalField   nonuniform List<scalar> 
725
(
624.577
587.217
557.39
574.512
483.301
618.759
588.167
559.741
595.479
501.854
616.191
588.049
560.613
600.599
499.928
616.588
586.369
559.432
579.191
474.06
620.041
584.675
562.032
588.471
547.763
506.55
152.668
-17.7921
152.027
143.055
-30.9521
-31.7927
-27.3728
-27.6696
-26.8131
-26.8129
-27.5341
-27.6963
-26.5908
-22.5441
-20.3073
1.17966
27.3501
-167.365
-192.031
-189.251
-190.227
-226.34
-258.15
2.05487
-50.697
-24.829
-21.5207
-21.8358
-23.6347
-25.6968
-27.363
-28.9389
-30.5191
-32.1147
-34.195
-35.5817
-42.3954
-35.8487
-71.1335
-26.1924
-117.826
-24.1016
-91.7231
107.15
496.847
183.252
18.0503
191.304
93.695
-62.6558
-26.4434
-20.8912
-26.8927
-27.4084
-27.5911
-28.4257
-28.6374
-27.7035
-24.4282
-22.3099
-2.29162
39.6529
-173.223
-189.964
-192.395
-193.13
-211.131
-92.1444
30.8328
-30.1731
-20.0196
-20.9585
-22.88
-25.0175
-27.0615
-28.624
-30.0745
-31.53
-32.9966
-34.9191
-36.2776
-42.563
-36.8474
-70.908
-28.0224
-133.876
-55.2111
-482.425
98.7602
817.499
596.953
321.274
60.8285
28.3063
-129.426
-37.4464
-21.3631
-26.2165
-27.2093
-27.5672
-28.6653
-29.0921
-28.529
-26.2252
-27.0372
-18.796
-25.3705
-192.589
-186.241
-199.352
-192.835
-90.1506
154.563
72.6516
-6.03773
-14.7101
-20.0995
-22.7741
-24.7996
-26.5795
-28.4468
-30.0788
-31.5584
-32.979
-34.8426
-36.0812
-41.9887
-36.6838
-69.0382
-28.1156
-139.836
-85.1348
-527.538
-42.3049
542.402
874.819
528.032
540.801
37.8711
-174.498
-47.5723
-24.8992
-26.0916
-27.0437
-27.471
-29.0018
-29.731
-29.8297
-28.2796
-31.971
-44.9677
-115.5
-188.495
-178.226
-211.049
-183.335
-84.8368
-2.93823
50.2848
-1.42775
-10.6581
-19.367
-22.7289
-24.9848
-26.945
-28.6851
-30.1644
-31.5355
-32.8769
-34.6614
-35.6902
-41.1444
-35.7189
-65.6746
-24.466
-130.03
-63.6506
-286.016
113.247
1169.23
1146.9
710.205
755.222
35.4826
-204.874
-55.1301
-29.7046
-25.6396
-26.9909
-27.3136
-29.5799
-30.6312
-31.4727
-29.8449
-32.162
-13.2374
-139.778
-166.467
-161.349
-239.732
-176.497
-82.2887
16.2376
-15.8648
0.513692
-9.32846
-19.8722
-22.9264
-25.1551
-27.0411
-28.7712
-30.2577
-31.5607
-32.7753
-34.4244
-35.1865
-39.9746
-34.4218
-59.8466
-18.8979
-114.148
-45.8205
-384.068
151.947
1121.38
1151.97
1001.65
694.93
144.209
-225.227
-58.1333
-33.6666
-24.9286
-26.928
-26.9169
-30.1058
-31.1471
-32.8506
-30.813
-42.1306
-51.866
-174.231
-77.516
-127.487
275.45
-142.218
167.643
-159.121
-43.1273
-17.8957
-10.4184
-21.3115
-23.0546
-25.3365
-27.1826
-28.876
-30.3015
-31.5469
-32.6213
-34.3868
-34.4879
-39.8664
-31.9603
-57.5813
-10.372
-95.619
13.1904
-269.048
128.82
1121.85
1152.46
1128.64
618.81
178.227
-233.085
-60.4944
-34.6145
-24.6561
-26.9379
-26.7791
-30.2756
-31.3341
-33.2696
-31.1375
-43.7065
-65.4784
39.8444
-23.2581
-110.716
77.2556
-114.872
25.5292
266.42
-43.7179
-21.7328
-10.9186
-21.8089
-23.0689
-25.2741
-27.1077
-28.7924
-30.2038
-31.4373
-32.4969
-34.3029
-34.2803
-39.7331
-31.3143
-56.5169
-7.12526
-88.1081
36.3007
-215.728
120.775
1122.13
1153.17
1160.07
590.944
181.05
-242.721
-64.4032
-33.9637
-24.5489
-26.9054
-26.5522
-30.4064
-31.5289
-33.6214
-31.4256
-41.9868
-70.3244
39.6256
25.3895
-93.8761
67.8949
-19.7346
750.755
406.162
-52.5683
-23.6292
-11.3942
-21.1962
-23.1291
-25.3274
-27.0701
-28.6668
-29.9715
-31.063
-31.9564
-33.5594
-33.356
-38.8917
-29.4367
-54.5081
-4.41943
-80.0585
61.4843
-195.703
118.34
1121.66
1154.05
1160.03
838.204
135.846
-254.109
-69.4984
-32.0183
-24.5405
-26.852
-26.2289
-30.5251
-31.7317
-33.9405
-31.6843
-39.612
-67.3374
60.3075
29.7127
-77.391
44.6742
-76.6665
367.331
57.0099
-69.7854
-22.7841
-11.5703
-21.9559
-23.3658
-25.3843
-27.0973
-28.713
-30.1017
-31.2655
-32.1639
-33.6983
-33.3702
-38.5766
-29.3081
-54.5038
-3.2517
-71.4237
88.7545
-156.688
88.6526
1120.12
1155.45
1159.9
901.077
-246.247
-262.518
-75.6426
-35.6979
-24.6263
-25.8158
-24.8033
-30.6906
-31.9685
-34.2219
-31.9814
-37.0235
-65.6158
56.9276
61.4094
-66.3213
32.7036
-50.2744
502.405
16.3113
-71.9866
-34.1688
-14.684
-22.1188
-23.5685
-25.5119
-27.164
-28.7096
-30.1281
-31.4248
-32.4588
-34.0828
-33.9596
-39.4673
-29.3181
-53.0257
-1.55876
-62.0265
115.201
-15.8921
-4.95871
1710.07
1672.92
1651.67
1655.78
1560.85
1706.66
1674.95
1652.91
1662.88
1560.76
1706.23
1676.51
1656.33
1681.89
1626.77
1708.74
1676.04
1654.73
1661.23
1620.35
1714.58
1675.69
1655.2
1667.01
1624.68
1212.85
1154.68
1135.15
1044.77
-288.024
-272.274
-92.3626
-38.5841
-25.1107
-28.973
-31.0325
-31.3683
-32.7169
-34.9343
-32.9932
-36.6155
-52.2484
34.8318
-0.475258
-46.1811
5.80835
-37.9447
-119.934
-221.143
-41.0876
-33.1144
-17.2672
-22.38
-23.9393
-25.6414
-27.2257
-28.6966
-30.0935
-31.4528
-32.624
-34.0448
-34.2713
-38.33
-29.48
-48.4453
2.71439
-36.0167
176.746
367.143
103.576
1353.23
1121.31
1128.4
1096.48
-122.299
-213.905
-75.8575
-37.2579
-25.6389
-28.8558
-30.693
-31.9251
-33.8179
-36.7904
-35.7667
-34.8444
-28.7211
67.3458
-49.6079
-34.2142
-12.1103
-29.1351
-83.3124
-199.9
-49.0209
-38.1191
-20.1474
-23.2912
-24.3796
-25.6363
-26.9863
-28.4515
-30.0346
-31.4791
-32.6679
-33.9911
-34.0336
-37.7703
-28.3034
-46.4806
7.85447
-22.2776
165.382
278.184
81.4281
1688.98
882.895
1097.4
1055.02
5.10289
-164.372
-52.295
-35.5411
-25.0488
-28.8701
-30.5152
-32.3672
-34.8026
-38.9622
-41.3182
-50.434
-50.8766
-43.8462
-43.3956
-28.7354
-20.2863
-27.1429
-50.4776
55.0819
-27.5563
-38.6423
-21.5213
-23.7488
-24.4662
-25.7922
-27.429
-28.9777
-30.3248
-31.6022
-32.7125
-33.9248
-33.849
-37.3594
-27.8228
-46.1992
3.0899
-44.6192
99.366
-27.5524
41.033
1596.85
1522.24
912.711
961.305
30.4166
-124.161
-34.5432
-33.2217
-24.135
-28.7316
-30.4077
-32.6206
-35.4443
-40.7367
-46.6558
-70.9252
-102.662
-270.424
-32.1468
-25.8384
-23.5105
-25.7032
-36.9815
-133.763
-33.1682
-41.7911
-22.2686
-24.4844
-25.3005
-26.3598
-27.6644
-29.0943
-30.4147
-31.6589
-32.7409
-33.8883
-33.7279
-37.2117
-27.8016
-47.668
-4.60623
-77.979
-8.75533
-546.193
133.707
1585.6
1305.08
896.123
948.58
28.2425
-115.137
-23.9014
-30.8233
-22.6586
-28.0838
-30.0372
-32.6589
-35.7408
-41.7158
-50.0022
-87.505
-146.907
-432.987
-15.1796
-23.7549
-24.6501
-25.752
-34.1183
-19.1127
-24.7674
-38.3253
-20.7803
-23.5924
-24.2101
-25.2523
-26.6241
-28.1309
-29.5358
-30.8528
-31.9837
-33.1755
-32.9308
-36.6401
-27.0926
-48.2437
-9.50244
-95.6647
-60.4334
-502.552
133.438
)
;

boundaryField
{
    AirInlet
    {
        type            calculated;
        value           nonuniform List<scalar> 5(1121.36 1122.33 1122.03 1122.98 1120.12);
    }
    WaterInlet
    {
        type            calculated;
        value           nonuniform List<scalar> 10(624.579 618.765 616.201 616.602 620.059 1710.06 1706.65 1706.22 1708.73 1714.57);
    }
    ChannelWall
    {
        type            calculated;
        value           nonuniform List<scalar> 
110
(
620.015
584.645
561.998
588.433
547.722
1710.1
1672.95
1651.7
1655.82
1560.89
1714.55
1675.66
1655.17
1666.97
1624.63
1585.56
1305.05
896.115
948.576
28.2113
-115.181
-23.9455
-30.8675
-22.7028
-28.1279
-30.0813
-32.703
-35.7849
-41.76
-50.0463
-87.5491
-146.951
-433.014
-15.1802
-23.755
-24.6501
-25.752
-34.121
-19.1537
-24.8115
-38.3694
-20.8244
-23.6365
-24.2542
-25.2964
-26.6683
-28.175
-29.5799
-30.897
-32.0279
-33.2197
-32.975
-36.6842
-27.1367
-48.2878
-9.54658
-95.7088
-60.4776
-502.591
133.431
624.603
587.247
557.424
574.55
483.343
506.59
152.702
-17.7605
152.063
143.098
-30.9079
-31.7486
-27.3287
-27.6254
-26.769
-26.7687
-27.49
-27.6522
-26.5466
-22.4999
-20.2632
1.22381
27.3908
-167.358
-192.031
-189.251
-190.227
-226.334
-258.113
2.09901
-50.6529
-24.7848
-21.4766
-21.7916
-23.5905
-25.6526
-27.3188
-28.8947
-30.475
-32.0706
-34.1508
-35.5375
-42.3513
-35.8046
-71.0894
-26.1482
-117.782
-24.0575
-91.6816
107.157
)
;
    }
    Outlet
    {
        type            calculated;
        value           nonuniform List<scalar> 
15
(
-0.648911
-0.0489226
-0.0349744
-0.0507108
-0.0664352
-0.0754573
-0.0787389
-0.0823166
-0.0859161
-0.265997
-0.917487
-0.820928
-0.410535
-0.118764
-0.14677
)
;
    }
    FrontAndBack
    {
        type            empty;
    }
}


// ************************************************************************* //
