/*--------------------------------*- C++ -*----------------------------------*\
| =========                 |                                                 |
| \\      /  F ield         | OpenFOAM: The Open Source CFD Toolbox           |
|  \\    /   O peration     | Version:  2.3.0                                 |
|   \\  /    A nd           | Web:      www.OpenFOAM.org                      |
|    \\/     M anipulation  |                                                 |
\*---------------------------------------------------------------------------*/
FoamFile
{
    version     2.0;
    format      ascii;
    class       volScalarField;
    location    "0.084";
    object      p_rgh;
}
// * * * * * * * * * * * * * * * * * * * * * * * * * * * * * * * * * * * * * //

dimensions      [1 -1 -2 0 0 0 0];

internalField   nonuniform List<scalar> 
725
(
624.603
587.247
557.424
574.55
483.343
618.839
588.258
559.845
595.594
501.981
616.324
588.201
560.785
600.791
500.138
616.774
586.582
559.672
579.459
474.355
620.28
584.949
562.342
588.816
548.135
506.59
152.702
-17.7605
152.063
143.098
-30.9079
-31.7486
-27.3287
-27.6254
-26.769
-26.7687
-27.49
-27.6522
-26.5466
-22.4999
-20.2632
1.22381
27.3908
-167.358
-192.031
-189.251
-190.227
-226.334
-258.113
2.09901
-50.6529
-24.7848
-21.4766
-21.7916
-23.5905
-25.6526
-27.3188
-28.8947
-30.475
-32.0706
-34.1508
-35.5375
-42.3513
-35.8046
-71.0894
-26.1482
-117.782
-24.0575
-91.6816
107.157
496.968
183.356
18.1452
191.415
93.8263
-62.5234
-26.311
-20.7588
-26.7603
-27.276
-27.4587
-28.2933
-28.505
-27.5711
-24.2958
-22.1774
-2.15919
39.7754
-173.203
-189.963
-192.394
-193.13
-211.109
-92.0297
30.9653
-30.0407
-19.8872
-20.8261
-22.7476
-24.8851
-26.9291
-28.4916
-29.9421
-31.3976
-32.8642
-34.7867
-36.1452
-42.4306
-36.715
-70.7756
-27.89
-133.744
-55.0787
-482.306
98.7707
817.716
597.048
321.392
60.9804
28.5249
-129.205
-37.2257
-21.1424
-25.9958
-26.9887
-27.3465
-28.4446
-28.8714
-28.3084
-26.0045
-26.8165
-18.5753
-25.1704
-192.561
-186.24
-199.352
-192.834
-90.1035
154.758
72.8724
-5.81702
-14.4894
-19.8788
-22.5534
-24.579
-26.3589
-28.2262
-29.8582
-31.3377
-32.7583
-34.622
-35.8606
-41.7681
-36.4631
-68.8176
-27.895
-139.615
-84.914
-527.339
-42.2699
542.602
874.87
528.153
540.915
38.1801
-174.189
-47.2633
-24.5902
-25.7827
-26.7348
-27.1621
-28.6929
-29.4221
-29.5207
-27.9706
-31.662
-44.6587
-115.232
-188.461
-178.225
-211.049
-183.335
-84.7529
-2.66512
50.5938
-1.11876
-10.3491
-19.058
-22.42
-24.6759
-26.6361
-28.3762
-29.8555
-31.2267
-32.5681
-34.3526
-35.3814
-40.8356
-35.4101
-65.3658
-24.1572
-129.721
-63.3416
-285.729
113.298
1169.24
1146.91
710.287
755.327
35.8723
-204.476
-54.7328
-29.3074
-25.2424
-26.5937
-26.9164
-29.1827
-30.234
-31.0755
-29.4476
-31.7647
-12.8401
-139.456
-166.421
-161.348
-239.731
-176.496
-82.2155
16.5433
-15.4675
0.91096
-8.93122
-19.475
-22.5292
-24.7579
-26.6439
-28.3741
-29.8606
-31.1637
-32.3783
-34.0274
-34.7895
-39.5776
-34.0249
-59.4497
-18.501
-113.751
-45.4232
-383.72
152.014
1121.39
1151.97
1001.66
695.015
144.626
-224.776
-57.6821
-33.2155
-24.4774
-26.4769
-26.4657
-29.6546
-30.696
-32.3994
-30.3618
-41.6793
-51.4147
-173.882
-77.4564
-127.485
275.456
-142.217
167.763
-158.739
-42.676
-17.4446
-9.96727
-20.8603
-22.6035
-24.8854
-26.7316
-28.425
-29.8505
-31.096
-32.1704
-33.936
-34.0372
-39.4156
-31.5096
-57.1305
-9.92119
-95.1682
13.6416
-268.631
128.895
1121.85
1152.46
1128.64
618.885
178.658
-232.614
-60.0235
-34.1437
-24.1853
-26.4671
-26.3083
-29.8048
-30.8633
-32.7988
-30.6666
-43.2356
-65.0075
40.1895
-23.1921
-110.714
77.2609
-114.868
25.6046
266.837
-43.247
-21.2621
-10.4478
-21.3382
-22.5982
-24.8035
-26.637
-28.3218
-29.7332
-30.9668
-32.0264
-33.8325
-33.81
-39.2628
-30.844
-56.0465
-6.65489
-87.6377
36.7715
-215.288
120.854
1122.13
1153.17
1160.07
590.996
181.495
-242.231
-63.9127
-33.4733
-24.0586
-26.415
-26.0618
-29.916
-31.0385
-33.1309
-30.9352
-41.4963
-69.8339
39.9871
25.4608
-93.8747
67.8958
-19.7286
750.812
406.604
-52.0778
-23.1389
-10.9039
-20.7058
-22.6388
-24.8371
-26.5799
-28.1766
-29.4813
-30.5729
-31.4663
-33.0694
-32.8661
-38.4018
-28.9468
-54.0181
-3.92947
-79.5684
61.9748
-195.239
118.423
1121.66
1154.05
1160.03
838.236
136.308
-253.599
-68.9883
-31.5083
-24.0305
-26.3421
-25.7189
-30.0151
-31.2217
-33.4305
-31.1743
-39.102
-66.8273
60.6823
29.7822
-77.3902
44.675
-76.6642
367.404
57.4368
-69.2753
-22.2743
-11.0604
-21.446
-22.8559
-24.8744
-26.5875
-28.2032
-29.5919
-30.7557
-31.6542
-33.1887
-32.8606
-38.0671
-28.7986
-53.9943
-2.74212
-70.914
89.2646
-156.203
88.7386
1120.12
1155.45
1159.9
901.104
-245.8
-261.988
-75.1129
-35.1683
-24.0967
-25.2862
-24.2737
-30.161
-31.4388
-33.6922
-31.4517
-36.4938
-65.086
57.308
61.4874
-66.3204
32.7044
-50.2736
502.489
16.7584
-71.4569
-33.6392
-14.1545
-21.5892
-23.0389
-24.9824
-26.6345
-28.1802
-29.5988
-30.8955
-31.9296
-33.5536
-33.4305
-38.9382
-28.789
-52.4965
-1.02954
-61.4972
115.731
-15.3822
-4.86043
1710.82
1673.62
1652.34
1656.42
1561.45
1707.46
1675.72
1653.65
1663.6
1561.45
1707.08
1677.34
1657.14
1682.68
1627.54
1709.64
1676.93
1655.61
1662.09
1621.21
1715.53
1676.64
1656.15
1667.95
1625.61
1212.89
1154.68
1135.16
1044.78
-287.582
-271.69
-91.7789
-38.0006
-24.5272
-28.3894
-30.4489
-30.7846
-32.1332
-34.3506
-32.4095
-36.0318
-51.6647
35.256
-0.410938
-46.1802
5.80914
-37.9439
-119.887
-220.635
-40.5039
-32.5309
-16.6837
-21.7965
-23.3558
-25.0579
-26.6424
-28.1132
-29.5102
-30.8695
-32.0408
-33.4616
-33.6881
-37.7469
-28.8968
-47.8621
3.29759
-35.4334
177.329
367.715
103.714
1353.74
1121.32
1128.41
1096.49
-121.842
-213.233
-75.1856
-36.5862
-24.9671
-28.1839
-30.021
-31.2532
-33.146
-36.1185
-35.0947
-34.1724
-28.0491
67.8566
-49.5537
-34.2133
-12.1094
-29.1342
-83.2636
-199.292
-48.349
-37.4472
-19.4756
-22.6194
-23.7078
-24.9646
-26.3147
-27.7799
-29.3631
-30.8076
-31.9964
-33.3196
-33.3622
-37.0987
-27.6319
-45.809
8.52606
-21.606
166.054
278.834
81.553
1689.66
883.172
1097.42
1055.05
5.60485
-163.611
-51.5349
-34.781
-24.2886
-28.1099
-29.755
-31.607
-34.0424
-38.202
-40.5579
-49.6737
-50.1163
-43.3045
-43.3649
-28.7343
-20.2853
-27.1419
-50.4298
55.7962
-26.796
-37.8822
-20.7613
-22.9888
-23.7063
-25.0323
-26.6692
-28.2178
-29.5649
-30.8423
-31.9526
-33.1649
-33.089
-36.5994
-27.0628
-45.4392
3.84992
-43.8592
100.126
-26.8228
41.1709
1597.54
1522.81
912.865
961.369
31.0207
-123.312
-33.6947
-32.3733
-23.2866
-27.8831
-29.5592
-31.772
-34.5957
-39.8881
-45.8073
-70.0766
-101.814
-269.854
-32.1286
-25.8372
-23.5093
-25.7021
-36.9376
-132.988
-32.3196
-40.9428
-21.4203
-23.6361
-24.4522
-25.5115
-26.8161
-28.2459
-29.5663
-30.8105
-31.8925
-33.0399
-32.8795
-36.3632
-26.9531
-46.8196
-3.75784
-77.1307
-7.90677
-545.409
133.826
1586.41
1305.66
896.294
948.658
28.9067
-114.2
-22.9645
-29.8865
-21.7217
-27.1469
-29.1003
-31.722
-34.8039
-40.7789
-49.0653
-86.5681
-145.97
-432.415
-15.1668
-23.7537
-24.6488
-25.7507
-34.0627
-18.2437
-23.8305
-37.3884
-19.8434
-22.6555
-23.2732
-24.3154
-25.6872
-27.194
-28.5989
-29.9159
-31.0468
-32.2387
-31.9939
-35.7032
-26.1557
-47.3068
-8.56564
-94.728
-59.4966
-501.727
133.585
)
;

boundaryField
{
    AirInlet
    {
        type            fixedFluxPressure;
        gradient        nonuniform List<scalar> 5(-2676.32 47963.5 -9684.39 132392 -17.1963);
        value           nonuniform List<scalar> 5(1121.36 1122.33 1122.03 1122.98 1120.12);
    }
    WaterInlet
    {
        type            fixedFluxPressure;
        gradient        nonuniform List<scalar> 10(-0.00121889 -16.0244 -12.0454 -0.67187 -0.395619 0.00198992 0.00325999 -0.141635 1.62965 -0.937215);
        value           nonuniform List<scalar> 10(624.603 618.839 616.324 616.774 620.28 1710.82 1707.46 1707.08 1709.64 1715.53);
    }
    ChannelWall
    {
        type            fixedFluxPressure;
        gradient        uniform 0;
        value           nonuniform List<scalar> 
110
(
620.28
584.949
562.342
588.816
548.135
1710.82
1673.62
1652.34
1656.42
1561.45
1715.53
1676.64
1656.15
1667.95
1625.61
1586.41
1305.66
896.294
948.658
28.9067
-114.2
-22.9645
-29.8865
-21.7217
-27.1469
-29.1003
-31.722
-34.8039
-40.7789
-49.0653
-86.5681
-145.97
-432.415
-15.1668
-23.7537
-24.6488
-25.7507
-34.0627
-18.2437
-23.8305
-37.3884
-19.8434
-22.6555
-23.2732
-24.3154
-25.6872
-27.194
-28.5989
-29.9159
-31.0468
-32.2387
-31.9939
-35.7032
-26.1557
-47.3068
-8.56564
-94.728
-59.4966
-501.727
133.585
624.603
587.247
557.424
574.55
483.343
506.59
152.702
-17.7605
152.063
143.098
-30.9079
-31.7486
-27.3287
-27.6254
-26.769
-26.7687
-27.49
-27.6522
-26.5466
-22.4999
-20.2632
1.22381
27.3908
-167.358
-192.031
-189.251
-190.227
-226.334
-258.113
2.09901
-50.6529
-24.7848
-21.4766
-21.7916
-23.5905
-25.6526
-27.3188
-28.8947
-30.475
-32.0706
-34.1508
-35.5375
-42.3513
-35.8046
-71.0894
-26.1482
-117.782
-24.0575
-91.6816
107.157
)
;
    }
    Outlet
    {
        type            totalPressure;
        rho             rho;
        psi             none;
        gamma           1;
        p0              uniform 0;
        value           nonuniform List<scalar> 
15
(
-0.648867
-0.0487902
0
0
0
0
0
0
-1.08148e-08
-0.265468
-0.916904
-0.820256
-0.409775
0
0
)
;
    }
    FrontAndBack
    {
        type            empty;
    }
}


// ************************************************************************* //
