/*--------------------------------*- C++ -*----------------------------------*\
| =========                 |                                                 |
| \\      /  F ield         | OpenFOAM: The Open Source CFD Toolbox           |
|  \\    /   O peration     | Version:  2.3.0                                 |
|   \\  /    A nd           | Web:      www.OpenFOAM.org                      |
|    \\/     M anipulation  |                                                 |
\*---------------------------------------------------------------------------*/
FoamFile
{
    version     2.0;
    format      ascii;
    class       surfaceScalarField;
    location    "0.084";
    object      phi;
}
// * * * * * * * * * * * * * * * * * * * * * * * * * * * * * * * * * * * * * //

dimensions      [0 3 -1 0 0 0 0];

internalField   nonuniform List<scalar> 
1380
(
3.11737e-13
1.88263e-13
2.82592e-13
2.91452e-14
2.41117e-13
4.14748e-14
1.89425e-13
5.16923e-14
5.41422e-13
-3.51997e-13
5.992e-13
8.90634e-14
5.91007e-13
3.73382e-14
4.92759e-13
1.39723e-13
-1.9377e-13
7.38221e-13
1.84642e-12
-1.49877e-12
6.84309e-13
-9.52453e-14
7.09078e-13
1.25687e-14
6.952e-13
1.53601e-13
1.62134e-13
1.27129e-12
1.98331e-12
2.52383e-14
6.00334e-13
-1.95579e-13
6.3188e-13
-1.89781e-14
7.72455e-13
1.30268e-14
1.67171e-12
3.7203e-13
-1.97786e-13
3.85281e-12
3.04421e-13
2.85443e-13
2.9847e-13
6.705e-13
4.72714e-13
-3.20715e-13
-3.12819e-14
-3.93935e-13
7.32196e-14
-2.8218e-13
-1.11755e-13
1.74057e-12
-2.02275e-12
2.56229e-12
-8.21719e-13
1.33948e-12
1.22281e-12
4.65136e-13
8.74343e-13
1.91209e-13
2.73926e-13
1.2648e-13
6.47293e-14
1.20428e-13
6.0523e-15
1.20722e-13
-2.93649e-16
1.07902e-13
1.28191e-14
8.7413e-14
2.04893e-14
6.13174e-14
2.60955e-14
2.58571e-14
3.54604e-14
5.40458e-14
-2.81887e-14
1.11271e-13
-5.72253e-14
-1.01761e-12
1.12888e-12
-4.91141e-12
3.8938e-12
-5.6368e-12
7.25394e-13
-3.94881e-12
-1.68799e-12
-9.05551e-12
5.10669e-12
-4.82128e-12
-4.23422e-12
-6.21177e-13
-4.20011e-12
2.05994e-14
-6.41777e-13
1.31661e-13
-1.11062e-13
1.41335e-13
-9.67386e-15
1.43716e-13
-2.38023e-15
1.46343e-13
-2.62722e-15
1.45191e-13
1.15155e-15
1.39618e-13
5.57326e-15
1.37807e-13
1.81069e-15
1.37268e-13
5.39583e-16
1.36828e-13
4.40247e-16
1.38137e-13
-1.30928e-15
1.37226e-13
9.11506e-16
1.40087e-13
-2.86098e-15
1.35813e-13
4.27372e-15
1.24444e-13
1.13688e-14
1.03461e-13
2.09826e-14
-6.99784e-15
1.10459e-13
-4.36313e-13
4.29315e-13
-1.43564e-12
9.99327e-13
-8.41874e-12
6.9831e-12
1.82987e-12
2.47645e-13
-1.77769e-12
1.78806e-12
-1.46719e-12
1.25152e-12
4.24779e-13
3.97774e-12
-4.74897e-12
5.23432e-12
-2.0783e-12
3.72005e-12
2.73707e-12
1.78727e-12
2.80713e-12
7.69841e-13
1.29136e-12
4.54793e-13
3.79777e-13
3.90659e-13
7.01864e-14
3.84207e-13
6.15823e-15
3.77883e-13
1.91433e-14
3.80849e-13
1.75237e-14
4.01916e-13
5.02791e-15
4.57805e-13
-2.04285e-14
5.61789e-13
-1.32172e-13
6.19172e-13
-1.14609e-13
-1.08552e-12
2.83357e-12
-5.04003e-12
7.84831e-12
-6.81215e-12
2.49752e-12
-5.34236e-12
-3.15777e-12
-9.44995e-12
9.21428e-12
-3.79322e-12
-9.89095e-12
-5.04748e-14
-7.94285e-12
7.41234e-13
-1.43349e-12
5.71958e-13
5.82139e-14
4.5807e-13
1.04214e-13
4.06295e-13
4.9395e-14
3.90178e-13
1.34899e-14
3.81781e-13
9.54798e-15
3.71141e-13
1.62133e-14
3.66847e-13
6.10483e-15
3.65035e-13
2.35222e-15
3.64689e-13
7.86455e-16
3.66407e-13
-3.02734e-15
3.67699e-13
-3.80485e-16
3.71221e-13
-6.38341e-15
3.69958e-13
5.5373e-15
3.63807e-13
1.75189e-14
3.60928e-13
2.38615e-14
3.15011e-13
1.56377e-13
2.88141e-13
4.56185e-13
-1.23898e-13
1.41137e-12
-3.05962e-12
9.91883e-12
1.57327e-12
8.65568e-13
-2.61802e-12
9.03994e-13
-1.50562e-12
4.56774e-13
8.71999e-13
7.13913e-13
-5.00611e-12
3.85215e-12
-5.21653e-12
3.71999e-12
2.86924e-12
2.3958e-12
4.13132e-12
1.23177e-12
2.45538e-12
7.43124e-13
8.68421e-13
6.18432e-13
1.94879e-13
5.98545e-13
2.6045e-14
5.89714e-13
2.79745e-14
5.9834e-13
8.89799e-15
6.27065e-13
-2.36971e-14
7.00762e-13
-9.41262e-14
7.30328e-13
-1.61737e-13
7.61271e-13
-1.45553e-13
-7.36173e-13
4.33101e-12
-2.99257e-12
1.01047e-11
-5.86505e-12
5.36999e-12
-5.58891e-12
-3.43392e-12
-1.92021e-12
5.54558e-12
1.16361e-12
-1.29748e-11
9.83375e-13
-7.76262e-12
1.2311e-12
-1.68121e-12
8.69842e-13
4.19468e-13
6.82438e-13
2.91618e-13
6.00638e-13
1.31196e-13
5.74184e-13
3.99438e-14
5.63744e-13
1.99884e-14
5.59103e-13
2.08542e-14
5.52579e-13
1.26291e-14
5.49848e-13
5.08322e-15
5.49567e-13
1.06707e-15
5.51461e-13
-4.92099e-15
5.52949e-13
-1.86826e-15
5.57578e-13
-1.10132e-14
5.546e-13
8.5159e-15
5.59725e-13
1.2394e-14
5.68965e-13
1.46206e-14
6.27541e-13
9.78019e-14
9.33591e-13
1.50134e-13
1.67845e-12
6.66511e-13
7.48251e-12
4.11476e-12
-4.26317e-14
1.78971e-12
-5.54919e-13
1.27865e-12
-9.94564e-13
4.67751e-13
1.6829e-12
-5.84525e-13
-3.95383e-12
2.13426e-12
-7.93532e-12
2.75802e-12
2.24548e-12
2.23906e-12
4.65027e-12
1.38044e-12
3.31401e-12
9.19353e-13
1.3295e-12
7.70904e-13
3.43328e-13
7.44369e-13
5.25794e-14
7.25355e-13
4.69885e-14
7.22627e-13
1.16266e-14
7.21419e-13
-2.24898e-14
7.34288e-13
-1.06995e-13
5.44653e-13
2.78973e-14
2.81804e-13
1.17297e-13
-1.1613e-12
5.77412e-12
-4.85384e-13
9.42879e-12
-2.64951e-12
7.53412e-12
-5.78058e-12
-3.02857e-13
3.42041e-12
-3.65541e-12
6.83848e-12
-1.63928e-11
2.8957e-12
-3.81984e-12
1.5352e-12
-3.20711e-13
9.8738e-13
9.67293e-13
7.95465e-13
4.83533e-13
7.06854e-13
2.19807e-13
6.82025e-13
6.47725e-14
6.78505e-13
2.35089e-14
6.82996e-13
1.63633e-14
6.8686e-13
8.76494e-15
6.88714e-13
3.2295e-15
6.90296e-13
-5.15286e-16
6.92385e-13
-7.00968e-15
6.91966e-13
-1.44948e-15
6.96044e-13
-1.50914e-14
6.87215e-13
1.73449e-14
6.97035e-13
2.57443e-15
7.00335e-13
1.13202e-14
8.02155e-13
-4.0178e-15
1.07625e-12
-1.23964e-13
1.82509e-12
-8.23207e-14
7.00122e-12
-1.06137e-12
-3.44612e-12
6.27452e-14
-1.4495e-13
-6.57383e-14
-8.66081e-13
-1.11487e-12
2.73203e-12
-6.11481e-13
-4.45722e-12
1.18305e-12
-9.72984e-12
1.76057e-12
1.66796e-12
1.64293e-12
4.76792e-12
1.22392e-12
3.73301e-12
9.5321e-13
1.60022e-12
8.43326e-13
4.53212e-13
8.27624e-13
6.82817e-14
7.98229e-13
7.63839e-14
7.76588e-13
3.32672e-14
7.27653e-13
2.64452e-14
6.23231e-13
-2.57286e-15
1.42069e-13
5.09059e-13
-9.07325e-13
1.16669e-12
-3.50541e-12
8.37221e-12
4.59947e-12
1.32391e-12
8.42198e-12
3.71161e-12
-3.25852e-12
1.13777e-11
2.11874e-11
-2.81013e-11
7.21955e-12
-2.42503e-12
3.46192e-12
-6.22054e-14
1.56368e-12
1.57753e-12
9.44907e-13
1.58606e-12
8.27205e-13
6.01235e-13
7.70393e-13
2.76618e-13
7.60111e-13
7.50552e-14
7.6068e-13
2.29398e-14
7.67207e-13
9.83668e-15
7.74244e-13
1.7273e-15
7.80484e-13
-3.01009e-15
7.85914e-13
-5.94563e-15
7.88376e-13
-9.47103e-15
7.86646e-13
2.80311e-16
7.84252e-13
-1.26978e-14
7.72699e-13
2.88985e-14
7.70313e-13
4.95982e-15
7.6099e-13
2.06434e-14
8.35795e-13
-7.88225e-14
1.05296e-12
-3.41128e-13
1.91086e-12
-9.40221e-13
7.92192e-12
-7.07242e-12
-5.54692e-12
-1.99556e-12
2.05061e-12
4.21558e-13
-3.2832e-12
5.50041e-13
2.60355e-12
-1.84178e-13
-3.723e-12
1.53666e-13
-1.00677e-11
3.11578e-13
1.51005e-12
2.53238e-13
4.82626e-12
2.26895e-13
3.75935e-12
1.97829e-13
1.62928e-12
1.86994e-13
4.64047e-13
1.84159e-13
7.11164e-14
1.78921e-13
8.16225e-14
1.71655e-13
4.05325e-14
1.58641e-13
3.94593e-14
1.11306e-13
4.47619e-14
5.098e-14
5.69386e-13
3.0107e-14
1.18756e-12
7.97537e-13
7.60478e-12
6.04399e-13
1.51704e-12
-1.63711e-13
4.47972e-12
-9.49452e-14
1.13089e-11
-2.81739e-12
-2.53788e-11
-1.14569e-12
-4.09672e-12
-4.05704e-13
-8.02193e-13
-5.43426e-14
1.22617e-12
1.758e-13
1.35592e-12
1.72846e-13
6.04189e-13
1.73602e-13
2.75862e-13
1.72709e-13
7.59479e-14
1.73683e-13
2.19656e-14
1.75665e-13
7.85481e-15
1.7814e-13
-7.47461e-16
1.80305e-13
-5.17557e-15
1.82111e-13
-7.75147e-15
1.81714e-13
-9.07389e-15
1.82585e-13
-5.90543e-16
1.76039e-13
-6.15186e-15
1.80956e-13
2.39813e-14
1.64419e-13
2.14971e-14
1.77682e-13
7.38043e-15
1.61369e-13
-6.25095e-14
2.00486e-13
-3.80245e-13
3.12184e-13
-1.05192e-12
1.43802e-12
-8.19826e-12
-6.22004e-12
-2.41729e-12
4.6679e-12
-2.40771e-12
-3.29279e-12
-6.3822e-13
8.34062e-13
-3.30968e-13
-4.03025e-12
1.60568e-13
-1.05592e-11
2.87926e-13
1.38269e-12
2.12864e-13
4.90132e-12
2.09177e-13
3.76304e-12
1.92028e-13
1.64643e-12
1.85551e-13
4.70524e-13
1.83645e-13
7.30227e-14
1.78798e-13
8.6469e-14
1.70943e-13
4.83878e-14
1.57149e-13
5.32529e-14
1.03207e-13
9.87042e-14
5.29915e-14
6.19601e-13
2.88395e-13
9.5216e-13
1.96055e-12
5.93262e-12
-1.05036e-12
4.52795e-12
-1.46142e-12
4.89078e-12
4.04044e-13
9.44342e-12
-1.94487e-12
-2.30299e-11
-1.53959e-13
-5.88763e-12
-4.05983e-13
-5.50169e-13
-1.09475e-13
9.29661e-13
1.63139e-13
1.08331e-12
1.68463e-13
5.98865e-13
1.73717e-13
2.70608e-13
1.73584e-13
7.60807e-14
1.74904e-13
2.06459e-14
1.77098e-13
5.66078e-15
1.799e-13
-3.5499e-15
1.82379e-13
-7.65463e-15
1.84349e-13
-9.72078e-15
1.83792e-13
-8.51761e-15
1.8456e-13
-1.35842e-15
1.7702e-13
1.38803e-15
1.82514e-13
1.84873e-14
1.6308e-13
4.09315e-14
1.79068e-13
-8.60783e-15
1.53459e-13
-3.69003e-14
1.86912e-13
-4.13697e-13
2.79166e-13
-1.14417e-12
1.25161e-12
-9.1707e-12
-6.95774e-12
-2.93511e-12
7.80301e-12
-4.27888e-12
-1.94902e-12
-6.46818e-12
3.02336e-12
5.71682e-13
-1.10701e-11
1.65493e-13
-1.0153e-11
2.52263e-13
1.29592e-12
1.71264e-13
4.98232e-12
1.90093e-13
3.74421e-12
1.85442e-13
1.65109e-12
1.83376e-13
4.7259e-13
1.82485e-13
7.39145e-14
1.77851e-13
9.1103e-14
1.69871e-13
5.63676e-14
1.55321e-13
6.78031e-14
9.58207e-14
1.58204e-13
-3.55403e-14
7.50962e-13
7.79254e-14
8.38695e-13
1.56029e-12
4.45026e-12
-6.25386e-13
6.71363e-12
-2.03322e-12
6.29862e-12
1.25661e-12
6.15358e-12
-2.51505e-12
-1.92583e-11
-1.48642e-12
-6.91627e-12
-2.2126e-13
-1.81532e-12
-8.18965e-14
7.90298e-13
1.53872e-13
8.47537e-13
1.64573e-13
5.88164e-13
1.73437e-13
2.61745e-13
1.74116e-13
7.5401e-14
1.75562e-13
1.92001e-14
1.77958e-13
3.26507e-15
1.81089e-13
-6.68152e-15
1.83917e-13
-1.04826e-14
1.86069e-13
-1.18725e-14
1.85479e-13
-7.92767e-15
1.86055e-13
-1.93411e-15
1.77949e-13
9.49394e-15
1.82925e-13
1.35117e-14
1.63097e-13
6.07592e-14
1.77752e-13
-2.32628e-14
1.49386e-13
-8.53491e-15
1.68392e-13
-4.32703e-13
2.16155e-13
-1.19194e-12
1.2572e-12
-1.02117e-11
-7.08088e-12
-2.87492e-12
1.08779e-11
-5.75099e-12
9.27053e-13
-5.24131e-12
2.51368e-12
8.07545e-15
-1.63195e-11
-1.32454e-14
-1.01317e-11
1.82657e-13
1.10002e-12
1.26361e-13
5.03861e-12
1.69614e-13
3.70096e-12
1.78242e-13
1.64246e-12
1.8016e-13
4.70672e-13
1.79797e-13
7.42779e-14
1.76153e-13
9.47462e-14
1.68376e-13
6.41456e-14
1.53743e-13
8.24361e-14
9.1328e-14
2.20619e-13
-1.00007e-13
9.42297e-13
-3.13503e-13
1.05219e-12
6.95286e-13
3.44147e-12
1.44423e-12
5.96468e-12
-1.28739e-12
9.03024e-12
-4.31159e-13
5.29735e-12
-4.85115e-12
-1.48383e-11
-2.15086e-12
-9.61656e-12
-2.86283e-13
-3.6799e-12
-5.61592e-14
5.60174e-13
1.46701e-13
6.44677e-13
1.61188e-13
5.73677e-13
1.72131e-13
2.50803e-13
1.73395e-13
7.41366e-14
1.75125e-13
1.74701e-14
1.77543e-13
8.47444e-16
1.80652e-13
-9.79044e-15
1.83348e-13
-1.31789e-14
1.85268e-13
-1.3793e-14
1.84592e-13
-7.25128e-15
1.8536e-13
-2.70196e-15
1.77625e-13
1.72285e-14
1.82668e-13
8.46888e-15
1.63994e-13
7.94332e-14
1.77957e-13
-3.72258e-14
1.47038e-13
2.23842e-14
1.47382e-13
-4.33046e-13
1.0225e-13
-1.14681e-12
4.40353e-13
-1.05498e-11
-6.63567e-12
-2.17599e-12
1.32539e-11
-4.84133e-12
3.59239e-12
-3.8979e-12
1.57026e-12
-8.56157e-13
-1.93612e-11
-2.79564e-13
-1.07083e-11
5.79389e-14
7.62513e-13
7.95042e-14
5.01705e-12
1.49427e-13
3.63103e-12
1.71139e-13
1.62075e-12
1.76058e-13
4.65752e-13
1.76542e-13
7.37943e-14
1.73601e-13
9.76872e-14
1.66607e-13
7.11392e-14
1.52413e-13
9.66302e-14
9.18426e-14
2.81189e-13
-1.02722e-13
1.13686e-12
-2.92024e-13
1.24149e-12
7.49867e-13
2.39958e-12
1.11977e-12
5.59478e-12
-4.79251e-13
1.06293e-11
-8.49712e-13
5.66781e-12
-4.82654e-12
-1.08614e-11
-1.03469e-12
-1.34084e-11
-2.10251e-13
-4.50435e-12
-4.17888e-14
3.91711e-13
1.42256e-13
4.60632e-13
1.58578e-13
5.57355e-13
1.70564e-13
2.38817e-13
1.72805e-13
7.18957e-14
1.74679e-13
1.55954e-14
1.76832e-13
-1.30566e-15
1.79514e-13
-1.24726e-14
1.81796e-13
-1.54607e-14
1.83325e-13
-1.53222e-14
1.82554e-13
-6.48021e-15
1.83321e-13
-3.46824e-15
1.76535e-13
2.40141e-14
1.81014e-13
3.98971e-15
1.65915e-13
9.45325e-14
1.75405e-13
-4.67162e-14
1.48187e-13
4.96024e-14
1.21298e-13
-4.06157e-13
-3.36866e-14
-9.91821e-13
-1.04353e-12
-9.54e-12
-6.22134e-12
3.06041e-13
1.93959e-13
2.90046e-13
1.59951e-14
4.07992e-13
-1.17946e-13
9.86074e-13
-5.78082e-13
-1.51886e-12
2.50493e-12
5.97925e-13
9.60343e-14
6.03561e-13
1.03588e-14
6.79919e-13
-1.94304e-13
8.63133e-13
-7.61296e-13
-3.27529e-12
2.61957e-12
6.83035e-13
-8.70009e-14
6.97598e-13
-4.20409e-15
5.61892e-13
-5.85978e-14
-3.16066e-13
1.16662e-13
-1.65576e-12
-1.9356e-12
6.01645e-13
-1.88645e-13
6.20652e-13
-2.32111e-14
5.94338e-13
-3.22842e-14
5.88334e-13
1.22666e-13
-7.45399e-13
-3.22022e-13
3.11354e-13
2.88143e-13
2.55859e-13
3.78525e-13
-3.66874e-13
1.0985e-11
4.77384e-12
-5.37366e-12
1.99511e-11
-5.99707e-12
2.19367e-12
-1.91381e-12
-2.34445e-11
-3.55459e-12
-9.06753e-12
-1.52015e-12
-1.27193e-12
-2.31071e-13
3.72797e-12
4.29321e-13
2.97064e-12
6.91064e-13
1.359e-12
7.45729e-13
4.11087e-13
7.3758e-13
8.19435e-14
7.43177e-13
9.20899e-14
7.26063e-13
8.82532e-14
6.62595e-13
1.60099e-13
4.86063e-13
4.57722e-13
1.25652e-13
1.49727e-12
-9.87074e-13
2.35422e-12
-6.66499e-13
2.07901e-12
1.63927e-12
3.28901e-12
-2.09752e-13
1.24783e-11
1.1472e-12
4.31086e-12
-3.16445e-12
-6.5498e-12
3.46967e-12
-2.00425e-11
9.24714e-13
-1.95939e-12
4.5205e-13
8.64375e-13
5.85884e-13
3.26799e-13
6.98513e-13
4.44726e-13
7.43709e-13
1.93621e-13
7.67174e-13
4.84301e-14
7.76349e-13
6.42081e-15
7.83702e-13
-8.65932e-15
7.90599e-13
-1.93687e-14
7.94229e-13
-1.90913e-14
7.94197e-13
-1.52897e-14
7.91964e-13
-4.24796e-15
7.88438e-13
5.80614e-17
7.85962e-13
2.64906e-14
7.73055e-13
1.68961e-14
7.82409e-13
8.51791e-14
7.38202e-13
-2.50996e-15
6.94357e-13
9.34479e-14
2.8059e-13
7.60967e-15
-8.40685e-13
1.29455e-13
-8.29044e-12
-2.09024e-12
-2.33004e-12
5.95035e-12
1.44305e-12
1.0214e-11
1.56874e-11
1.1818e-11
5.89688e-13
8.22839e-13
-1.24494e-11
-3.10168e-12
-5.14301e-12
-2.39495e-12
-1.97866e-12
-8.04817e-13
2.13783e-12
9.0044e-14
2.07578e-12
5.09323e-13
9.39724e-13
6.24015e-13
2.96395e-13
6.3796e-13
6.79988e-14
6.53941e-13
7.61087e-14
6.53031e-13
8.91633e-14
6.26112e-13
1.87017e-13
5.6118e-13
5.22654e-13
5.28898e-13
1.52955e-12
-2.0113e-13
3.08425e-12
-1.5929e-12
3.47077e-12
1.09312e-12
6.02993e-13
3.99271e-12
9.5787e-12
8.86487e-12
-5.61291e-13
5.09282e-12
-2.77776e-12
2.4839e-13
-1.51981e-11
2.12097e-13
-1.9231e-12
4.66384e-13
6.10088e-13
5.11095e-13
2.82088e-13
6.1919e-13
3.36631e-13
6.77073e-13
1.35738e-13
7.02979e-13
2.25241e-14
7.11048e-13
-1.64808e-15
7.11507e-13
-9.11802e-15
7.08096e-13
-1.59581e-14
7.01873e-13
-1.28684e-14
6.96736e-13
-1.01529e-14
6.94207e-13
-1.71903e-15
6.92275e-13
1.98984e-15
6.97794e-13
2.09715e-14
6.94143e-13
2.05472e-14
7.14768e-13
6.45549e-14
6.69978e-13
4.22793e-14
5.884e-13
1.75026e-13
5.09914e-14
5.45018e-13
-1.26952e-12
1.44997e-12
-7.88288e-12
4.52312e-12
1.30793e-12
9.11186e-13
-1.40373e-12
1.34325e-11
3.16611e-12
8.70574e-12
5.31643e-12
1.19376e-12
-4.93738e-12
-1.9585e-12
-1.99075e-12
-2.25313e-12
-1.68402e-12
-1.00192e-12
8.86615e-13
-8.20643e-14
1.15593e-12
3.48659e-13
5.09001e-13
4.86287e-13
1.58766e-13
5.14572e-13
3.97141e-14
5.37879e-13
5.28008e-14
5.52838e-13
7.42052e-14
5.76829e-13
1.63025e-13
6.61696e-13
4.37788e-13
9.88323e-13
1.20293e-12
1.34771e-12
2.72486e-12
8.99159e-13
3.91932e-12
1.52647e-12
-2.43217e-14
6.38444e-12
4.72072e-12
9.22979e-12
-3.40664e-12
9.04825e-12
-2.59621e-12
1.80639e-12
-7.95624e-12
1.98992e-13
-3.15696e-13
2.76877e-13
5.32202e-13
3.56319e-13
2.02646e-13
4.97554e-13
1.95395e-13
5.60159e-13
7.3133e-14
5.75711e-13
6.97239e-15
5.75337e-13
-1.27478e-15
5.71302e-13
-5.08259e-15
5.64609e-13
-9.26571e-15
5.58977e-13
-7.23611e-15
5.54263e-13
-5.4392e-15
5.5262e-13
-7.6161e-17
5.53365e-13
1.24505e-15
5.60741e-13
1.35956e-14
5.67034e-13
1.42544e-14
5.89444e-13
4.21445e-14
5.7983e-13
5.18937e-14
5.6259e-13
1.92266e-13
3.74463e-13
7.33146e-13
-1.7991e-13
2.00434e-12
-5.81357e-12
1.01568e-11
3.63583e-12
-8.01211e-13
-9.24542e-13
9.36323e-13
1.42858e-12
3.93363e-12
2.31913e-12
8.72787e-13
-1.87653e-12
-5.57417e-13
-5.6055e-13
-1.55882e-12
-6.82611e-13
-8.87907e-13
2.15699e-13
-1.18779e-13
3.86798e-13
2.23352e-13
1.6687e-13
3.36909e-13
4.52088e-14
3.63326e-13
1.32977e-14
3.91779e-13
2.43472e-14
4.24863e-13
4.11217e-14
4.9914e-13
8.87481e-14
7.05173e-13
2.31755e-13
1.28977e-12
6.18334e-13
2.38701e-12
1.62762e-12
2.69797e-12
3.60837e-12
3.41696e-12
-7.43318e-13
7.87093e-12
2.66749e-13
6.63723e-12
-2.17294e-12
4.15236e-12
-1.11325e-13
-3.62673e-13
-3.44121e-12
-2.4965e-13
-4.28719e-13
1.01382e-13
1.81171e-13
2.1016e-13
9.38685e-14
3.33866e-13
7.16884e-14
3.80966e-13
2.60333e-14
3.86594e-13
1.34452e-15
3.85771e-13
-4.52477e-16
3.82404e-13
-1.71576e-15
3.76473e-13
-3.33498e-15
3.71651e-13
-2.41333e-15
3.68125e-13
-1.91406e-15
3.67595e-13
4.54697e-16
3.69094e-13
-2.54796e-16
3.7654e-13
6.14964e-15
3.86982e-13
3.81222e-15
4.08099e-13
2.10281e-14
4.32139e-13
2.7854e-14
4.87189e-13
1.37215e-13
7.66019e-13
4.54316e-13
1.4897e-12
1.28066e-12
4.11806e-12
7.52842e-12
2.7844e-12
-1.29142e-12
1.3716e-13
2.45629e-12
5.79754e-13
1.92047e-14
-6.63406e-13
-4.47707e-13
-6.09086e-14
1.05962e-13
1.5117e-13
1.64468e-13
1.88815e-13
2.29937e-13
3.18685e-13
5.5044e-13
1.16877e-12
2.79639e-12
6.40476e-12
5.66144e-12
5.92819e-12
3.75525e-12
3.64392e-12
2.02707e-13
-2.26012e-13
-4.48417e-14
4.90268e-14
1.20715e-13
1.46748e-13
1.48093e-13
1.4764e-13
1.45925e-13
1.4259e-13
1.40176e-13
1.38262e-13
1.38717e-13
1.38462e-13
1.44612e-13
1.48424e-13
1.69452e-13
1.97306e-13
3.34521e-13
7.88838e-13
2.0695e-12
9.59792e-12
)
;

boundaryField
{
    AirInlet
    {
        type            calculated;
        value           nonuniform List<scalar> 5(-2e-13 -2e-13 -2e-13 -2e-13 -2e-13);
    }
    WaterInlet
    {
        type            calculated;
        value           nonuniform List<scalar> 10(-5e-13 -5e-13 -5e-13 -5e-13 -5e-13 -5e-13 -5e-13 -5e-13 -5e-13 -5e-13);
    }
    ChannelWall
    {
        type            calculated;
        value           uniform 0;
    }
    Outlet
    {
        type            calculated;
        value           nonuniform List<scalar> 
15
(
-1.02486e-11
-2.80302e-12
9.09841e-12
1.04047e-11
1.00227e-11
2.11114e-12
1.9893e-12
1.38035e-12
-4.85606e-15
-1.45787e-12
-1.21817e-11
-1.15209e-11
-8.14147e-12
4.96949e-12
1.23823e-11
)
;
    }
    FrontAndBack
    {
        type            empty;
        value           nonuniform 0();
    }
}


// ************************************************************************* //
