/*--------------------------------*- C++ -*----------------------------------*\
| =========                 |                                                 |
| \\      /  F ield         | OpenFOAM: The Open Source CFD Toolbox           |
|  \\    /   O peration     | Version:  2.3.0                                 |
|   \\  /    A nd           | Web:      www.OpenFOAM.org                      |
|    \\/     M anipulation  |                                                 |
\*---------------------------------------------------------------------------*/
FoamFile
{
    version     2.0;
    format      ascii;
    class       volVectorField;
    location    "0.084";
    object      U;
}
// * * * * * * * * * * * * * * * * * * * * * * * * * * * * * * * * * * * * * //

dimensions      [0 1 -1 0 0 0 0];

internalField   nonuniform List<vector> 
725
(
(0.0450643 0.00709642 -2.85957e-31)
(0.0561347 0.00145738 8.59386e-32)
(0.0225308 0.000632969 1.0582e-31)
(0.0560473 -0.00576001 0)
(-0.0176305 0.00837019 -7.45556e-31)
(0.0866766 0.0141359 -1.25971e-30)
(0.113464 0.00879977 3.12345e-31)
(0.0526923 0.00742866 4.07293e-31)
(0.101811 0.0205677 0)
(-0.17287 0.0470881 -1.76971e-30)
(0.0988552 0.00974513 -2.69552e-31)
(0.131077 0.014742 -2.90834e-32)
(0.0696787 0.0162815 -8.11511e-32)
(0.14376 0.0777029 0)
(-0.129707 0.110549 1.69264e-30)
(0.0877651 0.00300544 1.72765e-30)
(0.112481 0.0153997 -1.00176e-31)
(0.0692432 0.0137446 3.72846e-31)
(0.165299 0.0698826 0)
(0.271104 0.076952 -6.78783e-30)
(0.0453883 0.00137985 1.8198e-30)
(0.0529371 0.00915798 -1.01179e-31)
(0.0275506 0.00374424 4.61039e-31)
(0.0648792 0.0120585 1.61384e-30)
(0.0803504 -0.029134 -9.86119e-30)
(-0.071079 0.0304271 0)
(0.00272859 0.0323786 0)
(-0.090303 -0.00468407 0)
(0.0477594 -0.030113 0)
(0.300234 -0.00809895 0)
(0.241697 0.027724 0)
(0.080132 0.00656464 0)
(0.0250104 -0.00117935 0)
(0.0155304 -0.000374679 0)
(0.01295 -0.00024279 0)
(0.013352 -1.43544e-05 0)
(0.01273 0.000396821 0)
(0.01055 0.000764839 0)
(0.00790326 0.00125244 0)
(0.00510692 0.00207602 0)
(-0.00111173 0.00158595 0)
(0.0147764 0.00018054 0)
(0.00808327 0.0157685 0)
(-0.203162 0.0849633 0)
(-0.763052 0.053314 0)
(-0.33324 -0.0378755 0)
(-0.860668 0.0404452 0)
(-0.68777 -0.105271 0)
(-0.101639 -0.100516 0)
(-0.0235963 -0.0149304 0)
(0.0196842 -0.00598826 0)
(0.01374 -0.00185346 0)
(0.0153023 -0.000691743 0)
(0.0159159 -0.000248807 0)
(0.0161917 -5.25429e-05 0)
(0.015802 7.66288e-05 0)
(0.0153661 8.98979e-06 0)
(0.0152633 9.79446e-07 0)
(0.015193 1.50041e-05 0)
(0.0153658 -3.83642e-05 0)
(0.0148411 8.20909e-05 0)
(0.0169736 -0.000153161 0)
(0.011326 0.000301378 0)
(0.0239391 -2.08262e-05 0)
(-0.00401776 0.00104831 0)
(0.0363803 0.00234538 0)
(-0.0439265 0.0127018 0)
(-0.0350601 0.0264464 0)
(-0.341512 0.15651 0)
(-1.21869 0.0666409 0)
(-0.10844 -0.0362973 0)
(0.173421 -0.0297297 0)
(0.148042 -3.24139e-05 0)
(0.199623 -0.184328 0)
(0.595534 -0.0718671 0)
(0.589546 0.0996952 0)
(0.280951 0.0891033 0)
(0.107065 0.032063 0)
(0.0586998 0.00752797 0)
(0.0442355 0.000897278 0)
(0.0423643 -3.40541e-05 0)
(0.0419779 0.00085116 0)
(0.0410123 0.00120821 0)
(0.0423749 0.00124004 0)
(0.0454072 0.00116012 0)
(0.0507436 -0.00453472 0)
(0.0721258 -0.00479359 0)
(0.0683057 0.0986647 0)
(-0.257946 0.295802 0)
(-0.87678 0.0512817 0)
(-0.438228 -0.133482 0)
(-0.996673 0.345141 0)
(-0.580829 -0.359882 0)
(-0.0719587 -0.305745 0)
(0.0587213 -0.0475109 0)
(0.0770642 -0.00293894 0)
(0.0531987 0.00116756 0)
(0.0464725 0.00057494 0)
(0.0437162 6.94601e-05 0)
(0.042778 0.000200022 0)
(0.0417768 0.000535542 0)
(0.0409287 0.000153854 0)
(0.0406088 5.01751e-05 0)
(0.0404501 2.79963e-05 0)
(0.0407883 -0.000101099 0)
(0.0400067 1.95633e-05 0)
(0.0435561 -0.000182017 0)
(0.0348443 0.00019087 0)
(0.0550768 0.000941479 0)
(0.0130812 0.00107795 0)
(0.0850966 0.00761457 0)
(-0.0357726 0.0249633 0)
(0.127717 0.067548 0)
(-0.178346 0.440573 0)
(-0.344995 0.016001 0)
(0.149502 -0.146255 0)
(0.0495355 -0.103041 0)
(0.118963 0.0322016 0)
(-0.042372 -0.273459 0)
(0.249388 -0.162905 0)
(0.53383 0.152951 0)
(0.346182 0.1813 0)
(0.169688 0.0951096 0)
(0.0959577 0.0300938 0)
(0.070987 0.00597879 0)
(0.0664137 0.000617679 0)
(0.0655065 0.00105329 0)
(0.0646745 0.000567048 0)
(0.0672578 -0.000780542 0)
(0.0709602 -0.00345846 0)
(0.0803914 -0.00992647 0)
(0.0859322 -0.00873755 0)
(0.084963 0.179443 0)
(-0.248677 0.448627 0)
(-0.521638 0.185434 0)
(-0.555644 -0.198401 0)
(-0.420182 0.437076 0)
(0.0900042 -0.564858 0)
(0.0834649 -0.402146 0)
(0.143306 -0.0805265 0)
(0.120485 0.0116784 0)
(0.0813651 0.00999867 0)
(0.0692974 0.00447163 0)
(0.064567 0.00133006 0)
(0.0630131 0.000784686 0)
(0.0622974 0.00101789 0)
(0.06172 0.00052724 0)
(0.0612375 0.000208342 0)
(0.060979 5.68829e-05 0)
(0.0613926 -0.000195437 0)
(0.0604803 -6.59964e-05 0)
(0.0644253 -0.000432125 0)
(0.0549548 0.000298775 0)
(0.0771015 0.000674933 0)
(0.0326246 0.000962102 0)
(0.116145 0.0065417 0)
(-0.00483443 0.0161633 0)
(0.260731 0.0565853 0)
(0.102897 0.459681 0)
(1.12504 0.200164 0)
(0.480819 -0.0788974 0)
(0.0105788 -0.0554296 0)
(0.218849 0.0618289 0)
(-0.131025 -0.216148 0)
(0.0340973 -0.327233 0)
(0.377529 0.133862 0)
(0.294885 0.227859 0)
(0.183177 0.149158 0)
(0.115293 0.0565202 0)
(0.0887147 0.0137188 0)
(0.0829572 0.00193188 0)
(0.0812971 0.00170433 0)
(0.0794211 0.000266199 0)
(0.080316 -0.00179776 0)
(0.0800667 -0.00646103 0)
(0.0790524 -0.00602293 0)
(0.0458474 -0.0124775 0)
(0.0173148 0.251073 0)
(-0.25752 0.578993 0)
(0.146293 0.376151 0)
(-0.69432 0.0322966 0)
(-0.0441791 0.43752 0)
(0.862442 -0.731695 0)
(0.471004 -0.322457 0)
(0.210282 -0.0766405 0)
(0.139975 0.0317361 0)
(0.0933639 0.0202761 0)
(0.0818638 0.00916193 0)
(0.0765723 0.00273189 0)
(0.0753459 0.00116493 0)
(0.0755571 0.00100423 0)
(0.0760949 0.000623114 0)
(0.0764348 0.000268458 0)
(0.0765371 5.3645e-05 0)
(0.0771119 -0.000285923 0)
(0.0760355 -0.000125199 0)
(0.079872 -0.000643324 0)
(0.0700468 0.000511603 0)
(0.0920435 0.000653568 0)
(0.0473432 0.000175474 0)
(0.13248 0.00281316 0)
(0.0146676 -0.00122409 0)
(0.269593 0.016608 0)
(0.105924 0.0588102 0)
(1.19626 -0.145186 0)
(0.096641 -0.00841016 0)
(-0.0850697 0.00293523 0)
(-0.00652116 0.0909983 0)
(-0.14683 -0.240391 0)
(-0.033347 -0.435468 0)
(0.254534 0.0996577 0)
(0.191249 0.23584 0)
(0.153786 0.180418 0)
(0.112945 0.0758504 0)
(0.0961061 0.0209803 0)
(0.0921481 0.00313636 0)
(0.0903844 0.0030731 0)
(0.0870747 0.000859542 0)
(0.0846411 -0.000370924 0)
(0.0796823 -0.00505735 0)
(0.0508627 0.01003 0)
(-0.021512 0.0322151 0)
(-0.212243 0.37495 0)
(-0.343867 0.225597 0)
(1.24873 0.109862 0)
(-0.0770701 1.46749 0)
(1.69356 -1.59619 0)
(0.809414 -0.488601 0)
(0.714642 -0.0778359 0)
(0.179035 0.0498951 0)
(0.130045 0.076457 0)
(0.0922899 0.0286372 0)
(0.0883941 0.0132199 0)
(0.0847622 0.00368537 0)
(0.0843103 0.00124236 0)
(0.084796 0.000697939 0)
(0.0856392 0.000326264 0)
(0.0864468 7.21816e-05 0)
(0.0869979 -0.000109363 0)
(0.0878772 -0.00046092 0)
(0.0866457 2.28023e-05 0)
(0.0900751 -0.0010386 0)
(0.0798661 0.00152297 0)
(0.10065 -0.00065316 0)
(0.0555556 0.00159011 0)
(0.137289 -0.00369248 0)
(0.01874 -0.0117992 0)
(0.267772 -0.0282706 0)
(0.136751 -0.225271 0)
(1.23409 -0.242514 0)
(-0.717724 0.0281683 0)
(-0.524185 -0.10879 0)
(0.462927 0.114661 0)
(-0.089402 -0.178637 0)
(-0.0791493 -0.498777 0)
(0.215895 0.0795499 0)
(0.122526 0.239801 0)
(0.124081 0.187806 0)
(0.10246 0.0809621 0)
(0.094692 0.0229901 0)
(0.0925092 0.00349932 0)
(0.0913132 0.00394972 0)
(0.0877793 0.0018371 0)
(0.0835613 0.001634 0)
(0.0764858 0.000972214 0)
(0.0334858 0.0268402 0)
(0.0273003 0.0597375 0)
(-0.0032024 0.405631 0)
(0.7277 0.0423947 0)
(-0.25584 0.24125 0)
(0.340593 0.438027 0)
(-0.931482 -1.39396 0)
(-0.978373 -0.135528 0)
(-0.19738 0.0042216 0)
(-0.164191 0.0739948 0)
(0.0961243 0.0747581 0)
(0.0822893 0.0302444 0)
(0.0881728 0.0138451 0)
(0.0861939 0.00378496 0)
(0.0864805 0.00112526 0)
(0.0872294 0.000444392 0)
(0.0884311 2.82148e-05 0)
(0.0897159 -0.000200715 0)
(0.0905888 -0.000339938 0)
(0.0915799 -0.000463954 0)
(0.0899711 -5.93998e-06 0)
(0.0930834 -0.000482656 0)
(0.0817408 0.00132592 0)
(0.102223 0.000610087 0)
(0.0558106 0.000722646 0)
(0.133939 -0.00362865 0)
(0.0109532 -0.0180483 0)
(0.22015 -0.0498832 0)
(0.103463 -0.381942 0)
(1.1109 -0.296891 0)
(-0.919859 0.153265 0)
(-1.34793 -0.174359 0)
(-0.832954 0.107241 0)
(-0.134291 -0.175203 0)
(-0.0805762 -0.516957 0)
(0.210725 0.0721316 0)
(0.0964444 0.242901 0)
(0.111207 0.18832 0)
(0.0977308 0.0820325 0)
(0.0937093 0.0234223 0)
(0.0921236 0.00361169 0)
(0.0912267 0.00421145 0)
(0.0877204 0.002219 0)
(0.0829759 0.00231537 0)
(0.0752625 0.00350818 0)
(0.0275759 0.0295815 0)
(0.0492746 0.0531871 0)
(0.216651 0.346372 0)
(1.28804 0.151267 0)
(-1.88643 0.233508 0)
(0.488348 -0.061019 0)
(-0.539374 -1.11723 0)
(-0.484512 -0.215229 0)
(-0.22215 -0.0286073 0)
(-0.166996 0.0560275 0)
(0.0861751 0.0618584 0)
(0.078826 0.0301575 0)
(0.0877856 0.0137104 0)
(0.0865048 0.00380672 0)
(0.0870349 0.0010672 0)
(0.0878783 0.00033932 0)
(0.0892162 -0.000103868 0)
(0.0906887 -0.000317512 0)
(0.091686 -0.000434851 0)
(0.0927017 -0.000441936 0)
(0.090968 -4.54376e-05 0)
(0.0939424 -0.000135928 0)
(0.0821837 0.00107846 0)
(0.102527 0.00151478 0)
(0.0557319 4.60322e-06 0)
(0.132436 -0.00259106 0)
(0.00786283 -0.0199289 0)
(0.20277 -0.0553319 0)
(0.0899294 -0.438193 0)
(0.989827 -0.331437 0)
(-0.951323 0.317414 0)
(-1.81756 -0.151659 0)
(-4.25559 0.0902957 0)
(0.245104 -0.333906 0)
(-0.0516057 -0.51603 0)
(0.219762 0.0664197 0)
(0.0690117 0.247085 0)
(0.0972427 0.187964 0)
(0.092448 0.0825922 0)
(0.0923927 0.0236302 0)
(0.0913071 0.00368068 0)
(0.090728 0.00445109 0)
(0.0873683 0.00262172 0)
(0.0822433 0.00302382 0)
(0.0740415 0.00638493 0)
(0.0217905 0.0336686 0)
(-0.0450697 0.0437601 0)
(0.117837 0.262106 0)
(1.25812 0.284794 0)
(-1.91041 0.312217 0)
(0.550075 0.597684 0)
(-0.865899 -0.925894 0)
(-0.96585 -0.303612 0)
(-0.227076 -0.0611965 0)
(-0.124588 0.0409291 0)
(0.0801256 0.0480308 0)
(0.0756894 0.0297288 0)
(0.0871817 0.0133443 0)
(0.0866761 0.00379714 0)
(0.0873577 0.000999046 0)
(0.0882602 0.000224583 0)
(0.0897235 -0.000254143 0)
(0.0913851 -0.00045279 0)
(0.0925134 -0.000541042 0)
(0.0935559 -0.000412934 0)
(0.0917479 -8.3462e-05 0)
(0.0945979 0.000270714 0)
(0.0824439 0.00079899 0)
(0.102642 0.00254752 0)
(0.0556986 -0.000809246 0)
(0.131007 -0.00116578 0)
(0.00523358 -0.021328 0)
(0.187941 -0.0589713 0)
(0.0698446 -0.492703 0)
(0.831218 -0.341879 0)
(-0.810851 0.50655 0)
(-1.8839 -0.0328283 0)
(-4.4013 0.122651 0)
(0.0181574 -0.707117 0)
(-0.205725 -0.511464 0)
(0.179566 0.0608589 0)
(0.0390049 0.251116 0)
(0.082545 0.18648 0)
(0.0867057 0.0825097 0)
(0.0907241 0.0236281 0)
(0.0898124 0.00370556 0)
(0.0896127 0.00466148 0)
(0.0867195 0.00302203 0)
(0.0813857 0.00375296 0)
(0.0731782 0.00949237 0)
(0.0181441 0.0422326 0)
(-0.140635 0.0457388 0)
(-0.136183 0.191857 0)
(0.990535 0.329709 0)
(-0.475043 0.38426 0)
(0.32547 0.451881 0)
(-2.52591 -0.884586 0)
(-1.33435 -0.412952 0)
(-0.208192 -0.144064 0)
(-0.149531 0.0310385 0)
(0.0762684 0.0365358 0)
(0.0728765 0.0290852 0)
(0.0862456 0.0128264 0)
(0.0863074 0.00374906 0)
(0.0871015 0.000918063 0)
(0.0880553 0.000102839 0)
(0.0895076 -0.000412764 0)
(0.0911403 -0.000593918 0)
(0.092178 -0.000645929 0)
(0.0931225 -0.000380746 0)
(0.0913411 -0.0001218 0)
(0.0943645 0.000681181 0)
(0.0822401 0.000527064 0)
(0.102774 0.00355189 0)
(0.0563114 -0.00157409 0)
(0.130346 0.000379182 0)
(0.00331168 -0.0218877 0)
(0.167435 -0.0590266 0)
(-0.0365564 -0.526206 0)
(0.218658 -0.398736 0)
(-0.453302 0.626064 0)
(-1.46524 0.136531 0)
(-3.54353 0.1085 0)
(-0.388718 -0.923148 0)
(-0.366088 -0.523307 0)
(0.0654226 0.0478374 0)
(0.0062182 0.252294 0)
(0.0676847 0.183666 0)
(0.0809338 0.0817487 0)
(0.0889268 0.0234551 0)
(0.0879435 0.003711 0)
(0.0880326 0.00481826 0)
(0.0857891 0.003389 0)
(0.0804263 0.00448792 0)
(0.0728983 0.0125878 0)
(0.0186691 0.0522993 0)
(-0.110786 0.056245 0)
(-0.179297 0.137189 0)
(0.859909 0.304284 0)
(-0.0249662 0.505058 0)
(0.274081 0.229091 0)
(-2.67541 -0.689719 0)
(-0.744013 -0.581633 0)
(-0.0599043 -0.209691 0)
(-0.136088 0.0221871 0)
(0.074146 0.026879 0)
(0.0708735 0.0282739 0)
(0.0851601 0.0122601 0)
(0.0859266 0.00365794 0)
(0.0868732 0.000828774 0)
(0.0877901 -1.41807e-05 0)
(0.0890628 -0.000561049 0)
(0.0904746 -0.000720823 0)
(0.0912955 -0.000732323 0)
(0.0920723 -0.000344709 0)
(0.0903194 -0.000155286 0)
(0.0935061 0.00104006 0)
(0.0816337 0.000295151 0)
(0.102577 0.00437726 0)
(0.0567712 -0.00214624 0)
(0.129639 0.00183191 0)
(0.00161239 -0.0211009 0)
(0.141959 -0.0537398 0)
(-0.186869 -0.503108 0)
(-0.750018 -0.284526 0)
(0.0455567 -0.00147469 0)
(0.0529305 -0.00942829 7.75632e-32)
(0.032117 -0.00851757 1.4448e-31)
(0.0933701 -0.0317082 5.47939e-31)
(0.135823 -0.0560804 0)
(0.0877075 -0.00304788 0)
(0.110672 -0.0148926 0)
(0.0649047 -0.0196455 0)
(0.140233 -0.0674681 1.75241e-30)
(0.0851878 -0.15491 0)
(0.0988613 -0.00966207 0)
(0.129164 -0.0125342 0)
(0.0719482 -0.013669 0)
(0.0967529 -0.0239348 -4.72269e-31)
(-0.203234 -0.118208 0)
(0.0869658 -0.0141357 0)
(0.112614 -0.00747586 0)
(0.0700853 -0.00495017 0)
(0.103449 0.0132542 6.37908e-31)
(0.0359299 -0.0546477 0)
(0.0452825 -0.00711645 0)
(0.0546424 -0.0016539 0)
(0.0287576 -0.00161907 0)
(0.0501209 -0.00256159 -2.5045e-31)
(0.0310648 -0.0165006 0)
(0.388642 0.307883 0)
(0.87155 0.764329 0)
(-1.19906 0.0713761 0)
(-0.0285512 -1.12616 0)
(-0.446439 -0.502614 0)
(-0.26241 -0.00547044 0)
(-0.085037 0.236597 0)
(0.0256813 0.170663 0)
(0.0644479 0.0774155 0)
(0.0840267 0.0225577 0)
(0.0825346 0.00387421 0)
(0.0826292 0.00500693 0)
(0.0825233 0.00416563 0)
(0.0774988 0.00654934 0)
(0.0737157 0.0203173 0)
(0.0278386 0.0747393 0)
(-0.00492714 0.0974381 0)
(-0.211581 0.0906376 0)
(0.0987676 0.198655 0)
(0.123704 0.632468 0)
(0.551894 0.453044 0)
(-0.958429 -0.367922 0)
(0.331565 -0.931455 0)
(0.230278 -0.17277 0)
(0.0204685 0.0347205 0)
(0.0730185 0.0134434 0)
(0.0666661 0.0253255 0)
(0.0818411 0.0108371 0)
(0.0845739 0.00317431 0)
(0.0858961 0.000564617 0)
(0.0866843 -0.000316214 0)
(0.0874759 -0.000919546 0)
(0.0881513 -0.00100526 0)
(0.08824 -0.000893439 0)
(0.0884944 -0.000265637 0)
(0.0868815 -0.000144355 0)
(0.0903665 0.00164291 0)
(0.0794579 0.000185916 0)
(0.101265 0.0055318 0)
(0.0572562 -0.0020865 0)
(0.127228 0.00489766 0)
(-0.00275645 -0.0126903 0)
(0.0798167 -0.0263614 0)
(-0.309247 -0.301064 0)
(-1.37172 -0.201909 0)
(0.437347 0.108542 0)
(0.837928 0.807651 0)
(1.5511 -0.0343179 0)
(0.710442 -1.03048 0)
(-0.318449 -0.364308 0)
(-0.34144 -0.100248 0)
(-0.170227 0.153372 0)
(-0.0202545 0.129459 0)
(0.038464 0.0587233 0)
(0.0699667 0.0181372 0)
(0.07024 0.00398991 0)
(0.0722366 0.00429612 0)
(0.073734 0.00452265 0)
(0.0703358 0.00905494 0)
(0.0726972 0.0255296 0)
(0.0442581 0.0769646 0)
(0.0482543 0.139677 0)
(-0.0818181 0.143651 0)
(-0.169299 0.0403226 0)
(0.221343 0.546305 0)
(0.860662 0.106365 0)
(0.854447 -0.301037 0)
(0.0338282 -0.936366 0)
(0.0310014 -0.0716998 0)
(0.0275167 0.0390486 0)
(0.0637845 0.0152803 0)
(0.0588721 0.0196097 0)
(0.0734236 0.00827839 0)
(0.0774126 0.00170782 0)
(0.0787708 3.6258e-05 0)
(0.0791039 -0.000517576 0)
(0.0789134 -0.000965221 0)
(0.0784028 -0.000854332 0)
(0.0776359 -0.000665107 0)
(0.0774987 -0.000140655 0)
(0.0760761 0.00011472 0)
(0.0799949 0.00122816 0)
(0.0700124 0.00120035 0)
(0.0932555 0.00374404 0)
(0.0501282 0.00162229 0)
(0.118416 0.00636862 0)
(-0.0150771 0.0142087 0)
(0.0320709 0.0375104 0)
(-0.342373 0.0483002 0)
(-1.3002 -0.00751677 0)
(-0.182066 0.0113575 0)
(0.460132 0.413383 0)
(1.81354 0.287829 0)
(0.572549 -0.333982 0)
(-0.196935 -0.16481 0)
(-0.26761 -0.103666 0)
(-0.20175 0.0688095 0)
(-0.0360355 0.0800108 0)
(0.0191132 0.0355326 0)
(0.0543571 0.0113004 0)
(0.0555633 0.00273355 0)
(0.0590846 0.00325061 0)
(0.0615626 0.00421159 0)
(0.0609709 0.00920397 0)
(0.0716782 0.0251343 0)
(0.071738 0.0702675 0)
(0.149992 0.152738 0)
(0.14233 0.182565 0)
(0.114894 0.0228401 0)
(0.235771 0.337862 0)
(0.981061 -0.10297 0)
(1.31172 -0.146907 0)
(0.291102 -0.57131 0)
(0.0170174 -0.0573452 0)
(0.0232792 0.030912 0)
(0.0420708 0.0135282 0)
(0.04535 0.0135252 0)
(0.0604381 0.00510177 0)
(0.0638089 0.000576407 0)
(0.0641388 -0.000141829 0)
(0.0638016 -0.000381201 0)
(0.0631517 -0.000647304 0)
(0.0624389 -0.000492035 0)
(0.0617396 -0.000376182 0)
(0.0616507 -2.98147e-05 0)
(0.0604967 0.000100613 0)
(0.0645696 0.000869627 0)
(0.0553756 0.000933719 0)
(0.0789967 0.00260776 0)
(0.0380691 0.00241988 0)
(0.10965 0.00936045 0)
(-0.0102274 0.0347694 0)
(0.118617 0.094223 0)
(-0.174805 0.37523 0)
(-0.939766 0.0835713 0)
(-0.127455 -0.115564 0)
(-0.0422824 0.0160302 0)
(0.346931 0.154414 0)
(0.296085 -0.15341 0)
(-0.0385018 -0.0366325 0)
(-0.12129 -0.0613343 0)
(-0.181583 0.0191042 0)
(-0.0316363 0.0354075 0)
(0.00806991 0.015307 0)
(0.0382302 0.00451634 0)
(0.0384972 0.00118007 0)
(0.0424636 0.00198979 0)
(0.0459473 0.00315529 0)
(0.0489014 0.00693245 0)
(0.0672749 0.0178805 0)
(0.0896468 0.0469584 0)
(0.22168 0.109251 0)
(0.243509 0.185293 0)
(0.308677 -0.037784 0)
(0.591672 0.0834701 0)
(0.91084 -0.151738 0)
(0.748199 -0.0772974 0)
(-0.0157157 -0.280944 0)
(-0.0341114 -0.00608462 0)
(-0.00966654 0.0147889 0)
(0.0236786 0.00661214 0)
(0.0292697 0.00612297 0)
(0.0411531 0.0021306 0)
(0.0431112 8.7142e-05 0)
(0.0429951 -4.85946e-05 0)
(0.0427294 -0.000167148 0)
(0.0421755 -0.000305893 0)
(0.041557 -0.000224428 0)
(0.0410126 -0.000169035 0)
(0.0409919 1.81313e-05 0)
(0.0400843 3.11928e-05 0)
(0.0438464 0.000449879 0)
(0.0357794 0.000486736 0)
(0.0575208 0.00138587 0)
(0.0215727 0.00225037 0)
(0.0917915 0.00820761 0)
(-0.00539784 0.0309184 0)
(0.221381 0.0841238 0)
(0.0718304 0.499958 0)
(0.634393 0.231755 0)
(-0.123534 0.00120009 0)
(-0.140189 0.0790449 0)
(0.198157 0.054861 0)
(0.193921 -0.0443156 0)
(0.00901084 -0.0160868 0)
(-0.0168831 -0.0126456 0)
(-0.0977803 0.00173507 0)
(-0.014411 0.00425005 0)
(0.00332289 0.00208645 0)
(0.0178641 0.000261353 0)
(0.0170427 0.000206843 0)
(0.0197571 0.000497447 0)
(0.0233051 0.0010304 0)
(0.0285462 0.00202147 0)
(0.0473168 0.0052383 0)
(0.0791712 0.0124864 0)
(0.223202 0.0397366 0)
(0.283701 0.110726 0)
(0.743672 0.0297079 0)
(0.754065 0.00345716 0)
(0.536407 -0.0581393 0)
(0.503413 0.0201559 0)
(0.0756246 -0.0780928 0)
(-0.0226642 -0.00947792 0)
(-0.0188798 0.00565662 0)
(0.0061807 0.00243918 0)
(0.00797667 0.00126886 0)
(0.0156998 0.000376589 0)
(0.016539 1.15115e-05 0)
(0.0164372 1.01426e-05 0)
(0.016328 -1.71666e-05 0)
(0.0160324 -4.85243e-05 0)
(0.015703 -2.71106e-05 0)
(0.0154309 -2.96848e-05 0)
(0.0154502 3.18606e-05 0)
(0.0148998 -6.55838e-05 0)
(0.0172156 0.000217649 0)
(0.0122115 -0.000173536 0)
(0.0255572 0.000725445 0)
(0.00454819 0.000180039 0)
(0.051255 0.00418336 0)
(0.00603146 0.0105429 0)
(0.213424 0.0351975 0)
(0.221245 0.260026 0)
(1.47012 0.132589 0)
)
;

boundaryField
{
    AirInlet
    {
        type            fixedValue;
        value           uniform (0.1 0 0);
    }
    WaterInlet
    {
        type            fixedValue;
        value           uniform (0.1 0 0);
    }
    ChannelWall
    {
        type            fixedValue;
        value           uniform (0 0 0);
    }
    Outlet
    {
        type            pressureInletOutletVelocity;
        value           nonuniform List<vector> 
15
(
(-1.13874 0 0)
(-0.311447 0 0)
(1.12504 0.200164 0)
(1.19626 -0.145186 0)
(1.23409 -0.242514 0)
(1.1109 -0.296891 0)
(0.989827 -0.331437 0)
(0.831218 -0.341879 0)
(-0.00242803 -0 0)
(-0.728934 -0 0)
(-1.35353 -0 0)
(-1.28009 -0 0)
(-0.904608 0 0)
(0.634393 0.231755 0)
(1.47012 0.132589 0)
)
;
    }
    FrontAndBack
    {
        type            empty;
    }
}


// ************************************************************************* //
