/*--------------------------------*- C++ -*----------------------------------*\
| =========                 |                                                 |
| \\      /  F ield         | OpenFOAM: The Open Source CFD Toolbox           |
|  \\    /   O peration     | Version:  2.3.0                                 |
|   \\  /    A nd           | Web:      www.OpenFOAM.org                      |
|    \\/     M anipulation  |                                                 |
\*---------------------------------------------------------------------------*/
FoamFile
{
    version     2.0;
    format      ascii;
    class       volScalarField;
    location    "1.55";
    object      alpha.water;
}
// * * * * * * * * * * * * * * * * * * * * * * * * * * * * * * * * * * * * * //

dimensions      [0 0 0 0 0 0 0];

internalField   nonuniform List<scalar> 
2268
(
0.999999
0.999999
0.999995
0.999718
0.996212
0.992861
0.999977
0.999999
1
1
1
1
1
0.999999
0.999947
0.999952
0.999971
0.999971
0.982204
0.980702
0.982218
0.99968
0.999918
0.999999
0.999995
0.965601
0.925487
0.925008
0.87168
0.904916
0.99028
0.999999
1
1
1
1
1
0.999711
0.99922
0.999355
0.99997
0.99916
0.997229
0.987506
0.992083
0.999853
0.999993
0.966528
0.845878
0.846067
0.868961
0.843886
0.844143
0.92909
0.999087
0.999997
1
1
0.999992
0.999995
0.999999
0.999999
0.995785
0.993142
0.997818
0.997996
0.997967
0.996022
0.998469
0.982667
0.829969
0.831451
0.951689
0.955173
0.939855
0.843886
0.879329
0.99177
0.999992
0.999997
0.999869
0.99983
0.999959
0.999999
0.999999
0.999999
0.980079
0.973397
0.991787
0.99945
0.999487
0.99947
0.936918
0.829969
0.955422
0.955778
0.955769
0.949315
0.876585
0.872637
0.983497
0.999893
0.999797
0.999777
0.999776
0.999944
0.999999
0.999999
0.999999
0.990588
0.971663
0.971068
0.994595
0.999588
0.999588
0.948878
0.843291
0.955166
0.955778
0.949523
0.739636
0.850838
0.818018
0.976742
0.999943
0.99993
0.999906
0.999949
0.999982
0.999999
0.999999
0.999999
0.999999
0.98321
0.960846
0.97952
0.998934
0.999588
0.954998
0.955438
0.955678
0.955778
0.95467
0.642813
0.715509
0.822511
0.968314
0.999966
0.999969
0.999969
0.999969
0.999982
0.999997
0.999999
0.999999
0.968395
0.955777
0.959446
0.963388
0.995447
0.999571
0.954687
0.953406
0.954448
0.950339
0.897871
0.642509
0.642921
0.932268
0.931331
0.99892
0.999967
0.999969
0.999969
0.999975
0.996586
0.950457
0.749305
0.708626
0.890838
0.992586
0.970729
0.983818
0.999457
0.994091
0.994055
0.993137
0.993624
0.993814
0.993814
0.906039
0.878045
0.879973
0.8957
0.887402
0.887402
0.921002
0.980946
0.899633
0.899633
0.899633
0.900605
0.907029
0.994107
0.994144
0.993298
0.991088
0.986982
0.993814
0.909002
0.874769
0.9457
0.982318
0.961708
0.943962
0.973
0.981924
0.921923
0.899945
0.931028
0.931033
0.931033
0.993724
0.994143
0.996696
0.996696
0.935949
0.871255
0.870739
0.872778
0.975442
0.982787
0.982848
0.982844
0.982347
0.981897
0.981924
0.967677
0.895396
0.92534
0.908205
0.993714
0.994393
0.996696
0.985118
0.951314
0.870755
0.870784
0.909964
0.982677
0.982847
0.982859
0.982851
0.982801
0.844953
0.917441
0.89036
0.892004
0.894114
0.895171
0.993707
0.999714
0.991844
0.814721
0.899036
0.971567
0.974165
0.954766
0.979157
0.982878
0.982865
0.982898
0.824955
0.621661
0.621661
0.901075
0.969234
0.941755
0.89813
0.993707
0.999743
0.984718
0.761794
0.753623
0.958852
0.977676
0.956012
0.966177
0.981769
0.982876
0.938015
0.707684
0.946304
0.973409
0.976117
0.970956
0.979226
0.936638
0.995759
0.99969
0.999684
0.810058
0.742943
0.930996
0.978056
0.978056
0.970232
0.860158
0.982263
0.882838
0.637734
0.921981
0.908838
0.979128
0.979224
0.979223
0.934173
0.999706
0.999707
0.999707
0.981704
0.743381
0.907396
0.932546
0.962045
0.970153
0.805122
0.979478
0.80569
0.367228
0.490362
0.441849
0.908604
0.979222
0.979224
0.951751
0.749637
0.70231
0.516037
0.397104
0.653386
0.664969
0.707372
0.961794
0.943287
0.993035
0.999956
0.999967
0.999958
0.999859
0.892831
0.573773
0.533352
0.551464
0.891345
0.998036
0.998406
0.98498
0.980166
0.42092
0.095772
1.62749e-05
9.53209e-05
0.0434579
0.535354
0.684901
0.959383
0.99365
0.997286
0.999862
0.999882
0.999752
0.905306
0.555278
0.53249
0.533195
0.846361
0.998007
0.998406
0.998406
0.998406
0.998347
3.61957e-05
3.59571e-05
3.56871e-05
3.50002e-05
9.57469e-05
0.103883
0.366387
0.249278
0.666776
0.843258
0.838477
0.794874
0.731981
0.538299
0.53249
0.532671
0.610471
0.948115
0.991116
0.998007
0.998406
0.998347
0.998025
8.04837e-05
3.66557e-05
3.64002e-05
4.4429e-05
4.6454e-05
0.000297156
0.0166652
0.00676832
0.000720922
0.0783904
0.109745
0.0710793
0.0820818
0.262868
0.593046
0.604517
0.60693
0.576667
0.639837
0.825553
0.936629
0.980388
0.992787
0.00012466
5.63876e-05
0.000124925
5.11834e-05
0.000100295
0.00010117
7.47343e-05
0.00015845
0.000632792
4.64909e-05
9.12084e-05
8.3828e-05
8.29087e-05
9.81768e-05
0.0215975
0.276048
0.504441
0.430736
0.19265
0.137717
0.221386
0.370337
0.465212
4.57909e-05
0.00138871
0.00230975
0.00104911
0.000113782
4.93047e-05
1.68299e-05
4.62365e-05
5.86978e-05
1.47207e-05
8.46325e-05
8.70879e-05
8.29087e-05
8.29087e-05
0.00359638
0.00492757
0.00556819
0.0283663
0.0400574
0.0184991
0.00146453
0.00109902
0.000931354
4.91048e-05
0.00297329
0.00297197
0.00240276
0.000152953
1.62701e-05
8.63864e-06
4.06997e-06
2.93187e-06
2.29214e-06
6.92901e-05
0.00022115
0.000139355
9.11955e-05
0.000108395
0.00822879
0.00616577
0.000278106
0.000303653
0.000364488
0.0015236
0.00182185
0.000861721
0.000100501
0.00296099
0.00297955
0.00184248
4.42191e-05
4.81886e-06
6.57432e-06
3.90962e-06
2.29218e-06
1.70499e-06
0.000163389
0.000222189
0.00014895
0.000102705
0.000100704
0.00515726
0.00165837
0.000147194
0.000265926
0.00282833
0.00419474
0.00418985
0.00170697
0.00130769
0.00289203
0.00296099
0.00120137
4.81642e-06
1.64278e-06
1.54761e-06
5.24939e-06
2.80715e-06
1.56656e-06
0.000123901
0.000130559
2.82332e-05
0.00181152
0.00685983
0.00678224
0.001787
3.93286e-05
0.0021743
0.00419126
0.0041933
0.00400821
0.00105812
0.0022478
0.00166313
0.00287929
0.00211714
5.0767e-05
3.95753e-07
6.01494e-07
3.33117e-06
1.40866e-06
1.32017e-06
1.566e-06
1.15217e-05
2.48635e-05
0.00191765
0.00678224
0.00458626
0.0001152
7.19915e-06
0.00116104
0.00411528
0.00409535
0.00199406
0.00194545
0.00224697
0.000243376
0.000941137
0.00248155
0.000186242
2.1317e-07
5.83425e-07
6.24189e-07
6.48895e-07
8.73926e-07
2.95481e-06
0.0010069
0.00214049
0.00275367
0.00143422
2.10693e-05
7.19821e-06
5.04104e-06
5.3724e-06
0.00277831
0.00232931
0.00390188
0.00860086
0.00105933
0.000191513
0.000330857
0.00248643
0.000201387
1.98254e-07
2.67437e-07
4.85586e-07
8.26082e-07
9.9624e-05
0.00222297
0.00295518
0.00295247
0.00175904
1.6737e-05
1.00192e-05
6.17964e-06
3.97354e-06
5.04104e-06
0.00360247
0.00226073
0.00663419
0.00862883
0.000557363
0.000128649
0.000825176
0.00247623
0.000177559
1.26479e-07
2.04928e-07
5.23931e-06
7.34037e-06
0.000865721
0.00219946
0.00119778
0.000110597
5.63092e-06
3.57116e-06
3.38481e-05
2.64729e-05
1.4977e-06
0.000344304
0.00388077
0.00228386
0.00667897
0.00839043
0.00063947
2.2222e-05
0.000969713
0.00244076
0.000129927
3.68452e-08
9.50779e-08
6.52407e-06
0.000136388
0.000607262
0.000268545
2.98316e-05
2.87601e-05
8.52913e-06
2.63662e-07
2.93614e-05
2.81768e-05
2.81499e-07
0.000316564
0.00343251
0.00226755
0.00478232
0.00798036
0.000410171
1.69315e-05
0.000342953
0.0018911
2.38221e-10
9.18631e-10
5.44524e-09
1.01043e-05
3.83256e-05
1.52315e-05
1.65262e-05
3.11114e-05
2.58404e-05
5.19901e-06
3.92485e-09
5.35474e-09
5.74839e-06
3.31213e-08
0.000257241
0.00365782
0.00228727
0.00480819
0.00788874
3.17229e-07
2.34967e-06
1.34739e-05
0.000140134
1.44028e-10
5.19903e-10
1.62332e-09
4.82231e-08
7.33305e-08
7.30253e-06
4.10178e-05
2.23103e-05
3.83719e-09
3.72627e-09
3.86724e-09
5.8211e-09
6.20931e-09
6.6229e-09
6.79848e-05
0.00369751
0.00322915
0.00411337
0.00784858
9.97753e-08
5.75113e-08
6.35261e-11
5.68233e-11
9.51247e-11
1.98777e-10
1.00807e-09
3.9584e-09
4.04727e-07
1.31442e-05
1.74142e-05
4.56206e-09
3.72681e-09
3.50964e-09
2.87568e-09
2.78325e-08
1.38146e-07
4.95111e-08
5.3379e-08
0.00145195
0.00338799
0.00301124
0.00727197
1.9577e-07
4.09879e-08
5.87229e-11
5.25608e-11
5.83407e-11
1.51155e-10
1.70579e-08
6.64578e-08
5.54036e-08
4.1017e-09
4.1017e-09
1.04211e-08
3.67873e-08
3.79314e-09
1.89658e-09
2.50201e-09
2.828e-07
6.36621e-07
3.42727e-07
5.69039e-06
0.00338225
0.00302107
0.00311057
8.25754e-07
2.31738e-07
5.30367e-11
5.25625e-11
5.293e-11
7.15724e-11
2.26749e-10
1.04287e-09
3.14542e-09
4.10218e-09
8.17999e-09
5.16238e-08
3.4758e-08
1.89594e-09
1.7649e-09
1.40949e-09
8.05794e-09
4.5868e-07
6.37934e-07
7.94402e-07
0.00085721
0.00257018
0.00326268
2.52198e-06
9.37501e-07
3.56199e-06
5.11552e-11
7.11197e-11
2.26269e-10
8.57736e-10
3.13943e-09
8.75745e-09
1.21558e-08
1.62217e-08
1.34065e-08
3.01871e-09
1.76481e-09
1.66231e-09
8.4657e-10
7.92191e-10
1.06318e-07
8.38929e-07
5.88495e-08
1.68006e-06
0.000869469
0.00332632
5.71304e-06
1.633e-05
3.30859e-05
1.12747e-10
3.13677e-10
2.24167e-09
1.11907e-08
3.46668e-08
1.03399e-07
1.74239e-07
1.55402e-07
5.23275e-08
7.00554e-09
1.29503e-09
8.4017e-10
8.10942e-10
7.07398e-10
7.03103e-10
5.60791e-09
4.85161e-09
1.36396e-07
6.13857e-06
0.00184685
6.95879e-05
9.91105e-05
3.2909e-05
3.4407e-10
2.04877e-09
1.72805e-08
2.78639e-07
9.85095e-07
1.01219e-05
3.11628e-05
2.13487e-05
6.82209e-07
8.33676e-08
1.46633e-08
7.8858e-10
7.04812e-10
7.05283e-10
6.89829e-10
6.87757e-10
6.92397e-10
1.25603e-10
2.58322e-07
2.26187e-05
0.000837468
0.000674052
1.28851e-08
2.0512e-09
1.27288e-08
1.21148e-07
1.08583e-06
6.57688e-05
0.000395821
0.000593572
0.000490106
0.00016898
3.71246e-06
2.6206e-07
9.58589e-09
7.01057e-10
6.8629e-10
6.87397e-10
6.87061e-10
6.87513e-10
6.46681e-10
-3.94577e-09
8.48385e-08
0.00106626
0.00105905
2.22106e-08
1.28667e-08
6.74882e-08
7.88851e-07
4.71362e-05
0.000516662
0.000653899
0.000655843
0.000653161
0.000643816
0.000324196
8.74126e-05
2.07944e-07
-4.32342e-10
7.08712e-10
6.8245e-10
6.87734e-10
7.79357e-10
1.27426e-09
1.36511e-09
8.63481e-10
0.00106573
0.00103404
2.22135e-08
3.32731e-08
2.97466e-07
1.07395e-05
0.00039016
0.000648319
0.000655843
0.000634185
0.000539851
0.000609753
0.000583897
0.00055357
9.93202e-05
3.48768e-07
1.13382e-09
7.49341e-10
6.96132e-10
7.75225e-10
9.18615e-10
2.24036e-09
2.62499e-09
0.000269182
0.00101666
0.000453158
3.23373e-07
8.99693e-07
5.52088e-05
0.000591878
0.000650212
0.000547514
6.11802e-05
4.41483e-05
0.00013491
0.000428128
0.000526091
0.000474835
0.000109706
1.40814e-08
2.05155e-09
7.64572e-10
7.72272e-10
1.01003e-09
1.12547e-09
1.31016e-09
7.8745e-05
0.000664523
0.00130757
9.90022e-07
1.58484e-06
0.000158119
0.000581247
0.000587387
5.62686e-05
4.41483e-05
3.58103e-05
2.26533e-05
6.48359e-06
0.000119446
0.000239975
0.00018919
8.94995e-07
1.09834e-07
9.23365e-10
8.05034e-10
1.05023e-09
1.15941e-09
1.62656e-09
4.8718e-05
5.35087e-05
0.00131122
4.31013e-06
3.33685e-06
0.000240352
0.00056203
0.000397271
6.33448e-05
5.82149e-05
0.000136367
3.59239e-05
2.93852e-06
2.77602e-06
2.58615e-06
3.05232e-06
6.18595e-05
1.75373e-05
1.34585e-08
1.02961e-09
1.1268e-09
1.34533e-09
1.787e-09
4.8718e-05
4.87548e-05
0.001311
4.49181e-06
4.52319e-06
0.000215664
0.000542727
0.000313226
6.99883e-05
0.000127962
0.000221151
0.000221155
1.57939e-05
2.58685e-06
2.31851e-06
2.04728e-06
1.49825e-05
2.78207e-05
1.17635e-05
1.43635e-09
1.16972e-09
1.45234e-09
1.93087e-09
4.87548e-05
4.88286e-05
0.00129185
1.04826e-05
1.03486e-05
0.000175069
0.000514751
0.000373164
7.81188e-05
0.000146672
0.00022116
0.000221111
4.88048e-05
2.50862e-06
2.04762e-06
2.01003e-06
1.69576e-06
9.72995e-06
1.33992e-05
2.62513e-06
1.24065e-09
4.73384e-10
1.27793e-09
5.11531e-05
4.96709e-05
0.000806618
1.75154e-05
1.62332e-05
0.000180139
0.000499043
0.000490066
0.000151104
0.000156946
0.000221111
0.000132587
6.59897e-06
5.63869e-06
3.06734e-06
1.94324e-06
1.41652e-06
1.2287e-06
6.56745e-06
7.24104e-06
4.62749e-10
6.44188e-11
4.37337e-10
0.000150428
0.000441032
0.00122122
3.8042e-05
1.37687e-05
0.000274736
0.000491612
0.000490303
0.000184274
0.000171803
0.000206079
6.89408e-06
6.32572e-06
2.75607e-05
2.20354e-05
3.47086e-06
1.36167e-06
9.30727e-07
8.72057e-07
7.28675e-06
3.14518e-06
4.12884e-12
3.38518e-11
0.000160617
0.00116322
0.00122436
6.63175e-05
6.05089e-06
0.000269958
0.000491243
0.000491245
4.80267e-05
9.25525e-05
5.47897e-05
3.12335e-07
5.57132e-06
2.75748e-05
2.75887e-05
4.76376e-06
7.76695e-06
1.9977e-06
8.19857e-07
7.28675e-06
6.8976e-06
1.75107e-12
1.91917e-11
0.000134112
0.00121974
0.00122436
8.96717e-05
2.92718e-06
0.000167545
0.000491244
0.000417417
1.65843e-05
1.57903e-06
2.90965e-07
3.12324e-07
9.81579e-06
2.75906e-05
2.07475e-05
9.24409e-06
6.7167e-05
4.98373e-05
7.79795e-07
2.41163e-06
6.87128e-06
1.26667e-12
5.87315e-12
0.000124731
0.000454125
0.00122436
0.000109303
1.54134e-06
4.0339e-05
0.000386026
0.000130543
5.03968e-06
2.98944e-07
2.41691e-07
2.90971e-07
2.33988e-05
2.75131e-05
1.14779e-06
1.08904e-05
7.52912e-05
7.61997e-05
5.18741e-07
2.78778e-07
1.46475e-06
7.82277e-13
2.33281e-12
0.000124621
0.000240548
0.00121753
7.8617e-05
8.49571e-07
1.47455e-06
3.14039e-05
7.37578e-06
3.29734e-06
2.41103e-07
2.10739e-07
3.55269e-07
2.59594e-05
2.72035e-05
3.54413e-07
6.61282e-06
7.6218e-05
7.71448e-05
1.96793e-05
1.96213e-09
1.34191e-12
7.82276e-13
2.02156e-12
0.000124635
0.000216758
0.00042088
2.12751e-05
6.9027e-07
7.66523e-07
2.38664e-06
1.332e-06
4.19403e-07
2.0075e-07
2.07724e-07
3.45347e-06
2.48953e-05
1.77115e-05
1.95918e-07
1.16731e-06
5.52223e-05
7.71448e-05
6.53577e-05
4.16033e-09
7.37347e-07
1.44045e-12
2.06713e-12
0.000116307
0.000275332
1.16719e-05
5.5844e-06
6.49063e-07
4.89866e-07
7.12891e-07
3.95465e-07
2.00765e-07
1.85744e-07
2.00764e-07
1.34279e-05
2.39411e-05
4.45298e-07
1.22996e-08
4.2434e-08
1.59119e-05
7.71448e-05
7.70265e-05
2.98154e-05
4.47769e-13
1.58637e-12
3.17651e-12
4.52486e-05
0.000275332
0.000178038
2.12192e-05
4.90308e-07
3.6509e-07
2.86027e-07
7.16349e-07
1.92967e-07
1.82815e-07
3.49438e-07
1.43e-05
1.02103e-05
2.12188e-07
1.84659e-10
8.86942e-09
7.7795e-06
7.67373e-05
7.37524e-05
8.17731e-06
3.82511e-13
2.72146e-12
5.75956e-12
4.51161e-06
0.000243893
0.000299002
4.19386e-05
3.64504e-07
2.86067e-07
2.11538e-07
2.13663e-07
1.8284e-07
1.84479e-07
1.30899e-06
9.5765e-06
4.82514e-09
8.52922e-11
1.57283e-12
5.50563e-13
-8.37033e-10
2.3688e-06
1.93388e-05
3.9045e-13
3.35533e-13
3.38091e-12
7.65083e-12
6.47076e-13
7.57425e-06
0.000218255
9.7131e-05
3.27174e-07
2.14414e-07
1.93628e-07
1.85292e-07
1.85276e-07
2.68802e-06
5.21863e-06
2.59109e-08
8.3953e-11
1.72584e-12
7.25599e-14
-1.69873e-12
1.84029e-13
3.67825e-17
1.08902e-14
7.75722e-08
3.34658e-13
2.41216e-12
6.76194e-12
5.39334e-94
-6.27972e-15
-1.43112e-15
4.33376e-05
4.32135e-05
1.46752e-05
3.08102e-06
3.90981e-07
2.54191e-07
4.75574e-06
1.01969e-06
-1.29084e-10
1.34928e-13
2.32962e-13
1.65022e-14
-6.6435e-14
-4.77537e-13
-7.08256e-13
-3.78798e-12
4.84746e-15
1.54402e-13
1.18729e-12
5.90095e-12
0.979882
0.979882
0.981366
0.997477
0.985933
0.979887
0.981557
0.996609
0.997573
0.997226
0.997537
0.998044
0.996037
0.996585
0.997224
0.99757
0.504166
0.493243
0.507709
0.644726
0.000996668
0.000989521
0.000985595
0.000984802
0.000947218
0.000985161
0.000984397
0.000984802
0.00100031
0.000986054
0.000984279
0.0030061
0.00101259
0.0010083
0.00109414
0.00725372
0.00741774
0.00865368
0.0088157
0.0070593
0.00860086
0.00667641
0.00498724
0.00524409
0.00618607
0.00445796
0.00471559
0.00513865
0.00366729
0.00383321
0.00798046
0.0124785
0.00364464
0.0035766
0.0036847
0.00599033
0.00361443
0.00349634
0.0035255
0.00358307
0.00562093
0.00350286
0.00350774
0.00352155
0.00711982
0.00647234
0.0050407
0.00357874
0.00618863
0.0063341
0.00634306
0.0057067
0.00282879
0.00279149
0.00285753
0.00548541
0.00311688
0.000630131
0.0010759
0.0045168
0.00221856
0.000342421
0.000577302
0.00453046
0.000102135
9.21575e-06
1.6118e-05
0.000777571
-1.5795e-06
4.186e-07
2.6625e-06
1.16708e-05
-1.69353e-07
6.63107e-08
4.60094e-07
2.08436e-06
3.81737e-09
1.68636e-08
1.36638e-07
4.60951e-07
2.79202e-09
7.59029e-07
1.20922e-05
7.96959e-06
4.17841e-09
4.03907e-07
3.13907e-06
6.45249e-06
4.0114e-09
8.45043e-08
3.40658e-07
7.85832e-07
7.0624e-09
1.05637e-07
6.74083e-07
1.69705e-06
9.47055e-09
1.16061e-07
6.95739e-07
2.23997e-06
5.26617e-09
6.22251e-08
3.66773e-07
1.62194e-06
5.14286e-10
3.70186e-09
2.20581e-08
1.12455e-07
3.88136e-11
5.96314e-10
5.14039e-09
8.81352e-09
1.56681e-11
6.88916e-11
2.76914e-10
3.87528e-10
8.32638e-12
8.46258e-12
2.38046e-11
2.0806e-11
2.67869e-12
3.88778e-12
6.9976e-12
5.20998e-12
2.09159e-12
1.13615e-12
1.23974e-12
3.22646e-12
4.37427e-12
2.60572e-12
2.30938e-13
3.08775e-13
5.9343e-12
3.08535e-12
2.67344e-13
2.83551e-14
7.49711e-12
4.48685e-12
4.16249e-13
2.02445e-14
4.80082e-12
2.85728e-12
2.69754e-13
1.24048e-14
2.29672e-12
7.51453e-13
7.05909e-14
3.39464e-15
0.99965
0.999707
0.99965
0.999174
0.84247
0.804605
0.721972
0.656963
0.927449
0.778491
0.718661
0.367164
0.1821
0.0955852
0.0484762
0.464431
0.978466
0.979222
0.939518
0.999392
0.999656
0.999184
0.989147
0.906708
0.668885
0.336268
0.568999
0.781157
0.699139
0.192645
0.0943405
0.0914119
0.03077
0.0306401
0.108313
0.745347
0.978271
0.959651
0.998935
0.999183
0.867003
0.46453
0.47772
0.335047
0.230315
0.381496
0.382884
0.422844
0.196901
0.112368
0.0307706
0.0306416
0.0306409
0.0306858
0.06153
0.531197
0.764154
0.998221
0.865008
0.234256
0.0143445
0.0365787
0.0225931
0.104942
0.217699
0.261989
0.199016
0.0885863
0.0434471
0.0351279
0.0608848
0.0631233
0.0465724
0.0157405
0.0122243
0.0359958
0.794329
0.35629
0.0156829
0.0112288
0.005879
0.00799434
0.01507
0.0415417
0.00637191
0.00297453
0.0246829
0.0531991
0.0644234
0.064559
0.064559
0.064559
0.0349135
0.0114829
0.0114829
0.0806141
0.129614
0.0308174
0.0105064
0.00523318
0.00529667
0.00378421
0.00254676
0.00235018
0.00226971
0.00227636
0.00304242
0.0418169
0.0644521
0.064559
0.0643236
0.0284552
0.0116715
0.0140031
0.000984527
0.0334041
0.0216073
0.00523118
0.00508792
0.00419282
0.0029326
0.00235157
0.0022954
0.00228793
0.00228395
0.0022909
0.00299376
0.0607465
0.039445
0.0383903
0.0200231
0.0106377
0.0233639
0.0260019
0.0302039
0.00541965
0.0051988
0.00681034
0.00976689
0.00252784
0.0023209
0.00228683
0.00228395
0.00228395
0.00228395
0.00276123
0.0425652
0.0547419
0.0102732
0.00983018
0.0103929
0.0233639
0.026274
0.0054231
0.00506591
0.00513235
0.014613
0.0148004
0.0145438
0.0101397
0.00312966
0.00228793
0.00228395
0.00229644
0.00239009
0.010313
0.0547379
0.00982134
0.00971012
0.00983085
0.0233621
0.00513177
0.00506591
0.00511233
0.00953118
0.0147816
0.0147279
0.0147995
0.0146829
0.0147383
0.0106755
0.00230933
0.00495216
0.0109157
0.00447639
0.0478199
0.0478569
0.00970825
0.0166592
0.0233446
0.00524597
0.0061169
0.0122072
0.0125605
0.00716892
0.00521512
0.0090775
0.0146925
0.014891
0.0149539
0.0138208
0.0148503
0.0147416
0.00368022
0.0069913
0.0470593
0.00971012
0.0141576
0.023228
0.0114269
0.0124946
0.0123313
0.00410604
0.00131614
0.00131614
0.00142713
0.00753957
0.0149626
0.0150139
0.014944
0.0148693
0.010252
0.00157177
0.00325884
0.0143834
0.0141298
0.00944131
0.00814406
0.0125333
0.0125863
0.0112784
0.00157595
0.0014398
0.00142713
0.00198852
0.0112759
0.0150139
0.0150345
0.0141895
0.0101627
0.000349398
0.000440868
0.00185822
0.00364629
0.00876806
0.00603767
0.00287258
0.0117263
0.0125863
0.0125882
0.0120083
0.00743228
0.00170552
0.00341603
0.0149053
0.015034
0.0150625
0.0068514
0.000799002
3.95992e-06
1.50257e-06
1.25723e-06
1.25186e-06
0.000971716
0.00141726
0.00288968
0.00412872
0.00869035
0.00492071
0.000101741
3.49636e-05
9.04324e-05
0.00387847
0.00550205
0.00595491
0.0054726
0.003206
3.05623e-05
2.87788e-06
1.25723e-06
1.24992e-06
1.25343e-06
1.25059e-06
1.98249e-05
0.000935417
0.00358499
0.00493444
0.00630281
0.00128419
9.94331e-07
5.69276e-07
5.20981e-07
5.72518e-07
1.06707e-06
4.10364e-06
6.27952e-05
1.47761e-06
5.57772e-06
5.05542e-06
1.52083e-06
1.25082e-06
6.8464e-06
2.4973e-05
2.02223e-05
0.00362498
0.0036164
0.00588987
0.00938928
0.00111338
5.25034e-07
5.24126e-07
5.25739e-07
5.64856e-07
7.96809e-07
9.86217e-07
1.04472e-06
7.53608e-06
8.10295e-06
5.31386e-06
5.11379e-06
1.03653e-05
3.07172e-06
1.89666e-05
0.00427009
0.00425341
0.00359412
0.00941337
0.00740019
5.25e-07
5.25934e-07
5.2544e-07
5.3116e-07
1.27893e-06
9.05392e-07
7.84258e-07
2.50365e-07
4.56964e-06
8.3832e-06
1.03851e-05
1.03719e-05
4.58278e-07
6.1379e-07
0.00512181
0.00485159
0.00242352
0.00329381
0.00831382
0.00171878
5.24668e-07
5.4035e-07
6.22217e-06
1.24186e-05
8.00984e-06
4.17444e-06
3.0015e-08
5.48062e-06
8.03157e-06
3.4021e-06
8.93554e-06
6.74945e-06
2.93805e-07
0.00485159
0.0047969
0.00166505
0.000924362
0.00743985
0.00508273
3.90657e-05
1.28891e-06
1.30299e-05
1.31965e-05
1.00704e-05
4.46798e-06
2.69921e-08
2.29756e-06
5.33446e-06
6.39647e-07
1.03704e-06
1.06054e-05
9.18638e-07
0.0047969
0.00477302
0.0020092
0.00084687
0.0011359
0.00331816
0.000513956
1.6706e-06
1.48665e-05
1.1162e-05
2.53669e-08
2.54187e-08
2.54034e-08
6.21703e-08
4.40597e-07
5.32525e-07
7.25055e-06
1.06054e-05
8.0774e-07
0.0046895
0.00481182
0.00478495
0.000944342
0.000298781
0.000299365
0.000337161
1.46664e-05
1.62923e-05
7.6328e-06
2.55211e-08
2.53667e-08
2.55218e-08
2.61326e-08
3.46957e-08
9.57683e-06
1.70808e-05
7.14647e-06
2.27381e-08
0.00309151
0.00475505
0.00467538
0.00215728
0.000117086
3.28227e-05
1.7578e-05
3.32235e-06
1.18529e-05
1.20119e-05
2.94011e-08
2.5521e-08
2.61186e-08
2.83167e-07
9.64942e-06
1.66027e-05
1.48469e-05
2.27376e-08
2.273e-08
0.00154943
0.0046311
0.00451595
0.00226991
0.000289135
0.00012827
2.44457e-06
1.9657e-06
9.85418e-06
1.36871e-05
2.59521e-06
2.93706e-08
4.36478e-08
1.97973e-06
1.65578e-05
1.64045e-05
9.74616e-08
2.273e-08
2.27299e-08
0.000319141
0.00448745
0.00449526
0.00250426
0.000641624
8.73779e-05
1.67129e-06
1.31856e-06
2.26479e-06
1.39256e-05
1.4164e-05
4.15487e-06
5.2994e-06
1.1888e-05
1.50041e-05
1.0894e-05
9.90028e-07
2.27311e-08
2.27299e-08
9.18811e-06
0.00238629
0.00416651
0.00683763
0.00165165
5.10922e-06
1.13367e-06
6.71099e-07
2.67677e-07
9.09226e-06
1.52742e-05
1.52812e-05
1.52812e-05
1.52812e-05
9.64766e-06
1.13812e-09
3.57533e-09
3.28653e-08
2.27311e-08
6.10334e-06
0.00011413
0.00138321
0.00694614
0.00663271
5.16418e-06
8.26851e-07
2.91506e-07
1.7412e-07
2.42093e-08
6.16138e-06
1.41385e-05
1.44263e-05
9.82907e-06
1.19775e-08
3.47857e-11
6.40988e-09
1.32682e-07
6.28768e-08
1.96751e-06
3.78751e-06
0.000417755
0.00698052
0.00695903
0.00270277
5.01011e-05
4.98702e-07
3.67237e-08
5.91904e-09
3.09685e-09
5.67007e-07
6.53397e-07
3.23447e-11
3.26936e-11
3.20384e-11
8.7124e-08
1.32752e-07
8.49665e-08
4.88327e-06
9.20292e-06
0.00155347
0.00698682
0.00698052
0.00551559
0.000155986
1.07202e-06
6.48887e-08
3.18433e-09
1.53458e-10
3.57835e-11
3.21398e-11
3.20501e-11
3.20394e-11
3.20284e-11
1.07512e-07
1.32745e-07
4.98241e-08
8.64687e-06
0.000196777
0.00545427
0.00698239
0.00698239
0.00245771
1.69769e-05
4.56476e-07
2.52786e-08
1.15779e-09
8.57676e-11
4.17134e-11
4.45913e-11
5.00945e-11
4.45759e-11
3.20317e-11
1.64309e-08
5.62169e-08
1.38609e-08
8.27212e-06
0.000231254
0.00332455
0.00597054
0.00187461
6.19371e-05
5.18376e-06
7.72971e-08
3.97618e-09
1.96852e-10
4.0751e-11
3.26558e-11
4.00875e-11
5.60083e-11
4.32427e-11
8.01283e-10
6.29805e-11
1.5825e-11
1.33416e-11
7.36353e-06
9.3641e-05
0.00015614
0.000398225
1.65821e-05
1.96933e-06
2.30245e-07
1.23915e-08
4.96984e-10
4.30447e-11
1.80171e-11
2.30844e-11
2.73275e-11
3.61043e-11
3.42684e-11
2.64762e-10
7.68884e-11
8.69157e-12
1.15806e-11
1.69269e-07
6.1104e-07
2.06425e-06
5.65587e-06
1.45999e-06
1.58898e-07
1.22988e-08
8.6657e-10
5.76485e-11
1.11515e-11
1.22157e-11
1.21685e-11
1.53393e-11
1.87681e-11
1.74317e-11
1.33083e-11
5.79781e-12
4.19128e-12
1.09447e-11
2.12207e-09
2.11257e-08
1.33186e-07
3.97042e-07
1.00955e-07
1.05738e-08
8.50239e-10
7.33117e-11
8.74547e-12
6.53936e-12
5.69227e-12
5.5035e-12
7.00817e-12
8.64949e-12
6.67361e-12
2.63228e-12
8.02068e-13
4.1417e-12
1.45689e-11
9.77052e-11
1.02664e-09
6.96285e-09
2.16098e-08
6.01619e-09
6.06349e-10
5.7424e-11
7.49877e-12
4.27411e-12
3.06141e-12
2.16234e-12
2.14918e-12
2.61384e-12
3.08622e-12
2.07052e-12
6.17935e-13
3.2667e-13
3.37559e-12
1.03849e-11
6.46296e-12
5.24998e-11
2.90518e-10
1.0263e-09
2.97998e-10
3.81417e-11
5.90724e-12
3.05895e-12
1.8355e-12
9.02939e-13
7.56473e-13
7.16052e-13
8.03816e-13
8.66383e-13
5.23134e-13
1.4249e-13
1.76243e-13
2.28776e-12
4.65992e-12
1.9994e-12
5.01475e-12
1.77478e-11
4.63917e-11
1.83875e-11
4.62761e-12
2.63917e-12
1.2077e-12
3.67059e-13
2.64495e-13
2.3238e-13
2.00999e-13
2.0357e-13
1.95112e-13
1.06702e-13
2.85746e-14
9.15355e-14
1.32445e-12
1.52285e-12
9.35206e-13
2.63173e-12
2.70882e-12
4.44443e-12
3.10378e-12
1.88611e-12
8.17148e-13
1.70027e-13
7.77638e-14
7.103e-14
6.0855e-14
4.70871e-14
4.2309e-14
3.56326e-14
1.75466e-14
5.19468e-15
4.13072e-14
6.41127e-13
3.98728e-13
6.62927e-14
4.19527e-13
1.95607e-12
2.12481e-12
1.93038e-12
4.76004e-13
8.89811e-14
2.46084e-14
1.65306e-14
1.65876e-14
1.34241e-14
9.21129e-15
7.26805e-15
5.3533e-15
2.35345e-15
9.55116e-16
1.5465e-14
2.56596e-13
9.07969e-14
3.38966e-15
2.59056e-14
1.38743e-13
4.18471e-13
1.92513e-13
4.25231e-14
9.11762e-15
3.82346e-15
3.25478e-15
3.30851e-15
2.50017e-15
1.51926e-15
1.04684e-15
6.72242e-16
2.61188e-16
1.84462e-16
4.65011e-15
8.3186e-14
1.90265e-14
2.9832e-16
1.21089e-15
8.10603e-15
2.93093e-14
1.3926e-14
3.41733e-15
9.83334e-16
6.07168e-16
5.69371e-16
5.65067e-16
3.9764e-16
2.14296e-16
1.28446e-16
7.15198e-17
2.42246e-17
3.43056e-17
1.0979e-15
2.11098e-14
3.64356e-15
6.06551e-17
5.29201e-17
4.08343e-16
1.78087e-15
9.21199e-16
2.71455e-16
1.17963e-16
9.23983e-17
8.77336e-17
8.36651e-17
5.4805e-17
2.62136e-17
1.36054e-17
6.49509e-18
1.87375e-18
5.6278e-18
2.03904e-16
4.1016e-15
6.07871e-16
)
;

boundaryField
{
    leftWall
    {
        type            zeroGradient;
    }
    rightWall
    {
        type            zeroGradient;
    }
    lowerWall
    {
        type            zeroGradient;
    }
    atmosphere
    {
        type            inletOutlet;
        inletValue      uniform 0;
        value           nonuniform List<scalar> 
46
(
0
0
0
4.33376e-05
4.32135e-05
1.46752e-05
3.08102e-06
3.90981e-07
2.54191e-07
4.75574e-06
0
0
0
0
0
0
0
0
0
0
0
0
0
0
0
0
0
6.06551e-17
5.29201e-17
4.08343e-16
1.78087e-15
9.21199e-16
2.71455e-16
1.17963e-16
9.23983e-17
8.77336e-17
8.36651e-17
5.4805e-17
2.62136e-17
1.36054e-17
6.49509e-18
1.87375e-18
5.6278e-18
2.03904e-16
4.1016e-15
6.07871e-16
)
;
    }
    defaultFaces
    {
        type            empty;
    }
}


// ************************************************************************* //
