/*--------------------------------*- C++ -*----------------------------------*\
| =========                 |                                                 |
| \\      /  F ield         | OpenFOAM: The Open Source CFD Toolbox           |
|  \\    /   O peration     | Version:  2.3.0                                 |
|   \\  /    A nd           | Web:      www.OpenFOAM.org                      |
|    \\/     M anipulation  |                                                 |
\*---------------------------------------------------------------------------*/
FoamFile
{
    version     2.0;
    format      ascii;
    class       surfaceScalarField;
    location    "1.55";
    object      phi;
}
// * * * * * * * * * * * * * * * * * * * * * * * * * * * * * * * * * * * * * //

dimensions      [0 3 -1 0 0 0 0];

internalField   nonuniform List<scalar> 
4432
(
-4.30568e-06
4.30568e-06
-8.24464e-06
3.93896e-06
-5.49727e-06
-2.74737e-06
3.88567e-06
-9.38294e-06
1.998e-05
-1.60944e-05
2.8649e-05
-8.66894e-06
2.33664e-05
5.28257e-06
1.13398e-05
1.20266e-05
2.95596e-06
8.38382e-06
9.03501e-07
2.05246e-06
2.28514e-06
-1.38164e-06
4.20795e-06
-1.92281e-06
5.92704e-06
-1.71909e-06
7.54911e-06
-1.62207e-06
8.72755e-06
-1.17844e-06
8.27956e-06
4.47998e-07
4.74202e-06
3.53753e-06
-4.95165e-07
5.23718e-06
-3.92727e-06
3.4321e-06
-4.4009e-06
4.73626e-07
-3.70721e-06
-6.93685e-07
-2.18129e-06
-1.52592e-06
-2.1813e-06
-4.9488e-06
9.25447e-06
-9.17077e-06
8.16093e-06
-8.3857e-06
-3.53244e-06
-3.08747e-06
-1.46812e-05
1.13794e-05
-3.05612e-05
2.69155e-05
-2.42051e-05
2.93477e-05
2.85042e-06
2.25243e-05
1.88501e-05
1.53803e-05
1.55278e-05
1.06397e-05
6.79304e-06
7.02138e-06
2.23667e-06
4.92149e-06
1.77085e-07
5.18827e-06
-1.98586e-06
6.82225e-06
-3.25605e-06
8.17876e-06
-2.53496e-06
9.45441e-06
-8.27655e-07
1.10117e-05
1.98023e-06
1.12691e-05
4.97979e-06
9.26965e-06
5.43156e-06
5.87153e-06
3.87174e-06
3.08798e-06
2.08987e-06
1.32264e-06
2.39399e-07
-8.58658e-07
-4.74561e-06
1.40001e-05
-1.03057e-05
1.3721e-05
-1.25745e-05
-1.2636e-06
-1.25589e-05
-1.46968e-05
-3.09621e-06
-4.0024e-05
1.54935e-05
-4.27948e-05
2.44007e-05
-6.05678e-06
2.1479e-05
2.17717e-05
1.62383e-05
2.07686e-05
1.09143e-05
1.2117e-05
6.01631e-06
7.13466e-06
3.53217e-06
2.66123e-06
4.1415e-06
-2.59519e-06
6.31407e-06
-5.42862e-06
7.84969e-06
-4.07058e-06
8.21092e-06
-1.18887e-06
9.57849e-06
6.12654e-07
1.25406e-05
2.0177e-06
1.42312e-05
3.74095e-06
1.2437e-05
5.66587e-06
8.34971e-06
6.17718e-06
4.13247e-06
4.45663e-06
3.27381e-06
-5.25446e-06
1.92545e-05
-1.00473e-05
1.85138e-05
-1.10724e-05
-2.38441e-07
-1.42949e-05
-1.14743e-05
-1.2942e-05
-4.13768e-05
9.39338e-07
-5.66762e-05
1.68449e-05
-2.19624e-05
1.63947e-05
2.2222e-05
1.23268e-05
2.48365e-05
7.50877e-06
1.6935e-05
3.78534e-06
1.08581e-05
2.85487e-06
3.5917e-06
4.38962e-06
-4.12992e-06
6.89613e-06
-7.93513e-06
8.34019e-06
-5.51464e-06
7.85405e-06
-7.02749e-07
7.32817e-06
1.13853e-06
9.37814e-06
-3.22577e-08
1.30651e-05
5.39527e-08
1.42897e-05
4.44132e-06
1.15031e-05
8.9638e-06
6.44992e-06
9.50976e-06
9.72373e-06
-4.29225e-06
2.35468e-05
-4.92636e-06
1.91479e-05
-4.04981e-06
-1.11499e-06
-8.51288e-06
-7.01122e-06
-1.4707e-05
-3.51827e-05
-1.08454e-05
-6.05378e-05
6.57013e-06
-3.93779e-05
1.04391e-05
1.8353e-05
8.09631e-06
2.71793e-05
4.36189e-06
2.06694e-05
2.66803e-06
1.25519e-05
3.54589e-06
2.71384e-06
6.17171e-06
-6.75575e-06
9.33852e-06
-1.11019e-05
1.06424e-05
-6.81857e-06
9.02229e-06
9.17403e-07
6.43009e-06
3.73074e-06
6.69032e-06
-2.92486e-07
1.07595e-05
-4.01526e-06
1.43392e-05
8.61698e-07
1.35657e-05
9.7373e-06
8.77742e-06
1.4298e-05
1.85011e-05
-1.69119e-06
2.5238e-05
3.08818e-06
1.43686e-05
4.69544e-06
-2.72225e-06
2.86342e-06
-5.1792e-06
-9.74109e-06
-2.25782e-05
-2.00725e-05
-5.02064e-05
-6.32592e-06
-5.31245e-05
5.60674e-06
6.42032e-06
5.19821e-06
2.75879e-05
2.99179e-06
2.28758e-05
3.10845e-06
1.24353e-05
5.42748e-06
3.94817e-07
9.30678e-06
-1.06351e-05
1.37088e-05
-1.55039e-05
1.52097e-05
-8.31947e-06
1.24576e-05
3.66953e-06
7.73682e-06
8.45148e-06
5.97611e-06
1.46823e-06
9.71923e-06
-7.7584e-06
1.47792e-05
-4.19826e-06
1.58132e-05
8.70329e-06
1.14671e-05
1.86441e-05
2.99682e-05
1.06024e-06
2.41778e-05
1.03155e-05
5.11331e-06
1.29506e-05
-5.35739e-06
1.2817e-05
-5.04558e-06
-1.55312e-06
-8.20806e-06
-2.18137e-05
-2.99458e-05
-1.50831e-05
-5.9855e-05
1.97244e-06
-1.06352e-05
3.6092e-06
2.59511e-05
3.38969e-06
2.30954e-05
4.92315e-06
1.09018e-05
8.38267e-06
-3.0647e-06
1.35689e-05
-1.58213e-05
1.90855e-05
-2.10205e-05
2.10698e-05
-1.03037e-05
1.7193e-05
7.54631e-06
1.01561e-05
1.54883e-05
7.39917e-06
4.22518e-06
1.15802e-05
-1.19394e-05
1.70997e-05
-9.71774e-06
1.92173e-05
6.58573e-06
1.6348e-05
2.15133e-05
4.63163e-05
3.94537e-06
2.02324e-05
1.64237e-05
-7.36498e-06
2.17976e-05
-1.07313e-05
2.03294e-05
-3.57737e-06
6.75316e-06
5.36819e-06
-1.83734e-05
-4.81924e-06
-2.08501e-05
-5.73784e-05
-2.81416e-06
-2.86712e-05
3.28375e-06
1.98532e-05
5.67739e-06
2.07017e-05
8.46485e-06
8.11436e-06
1.2892e-05
-7.4918e-06
1.82317e-05
-2.11611e-05
2.31785e-05
-2.59673e-05
2.41956e-05
-1.13209e-05
1.777e-05
1.39719e-05
9.57949e-06
2.36789e-05
9.94653e-06
3.85814e-06
1.74674e-05
-1.94604e-05
2.2634e-05
-1.48843e-05
2.44795e-05
4.74018e-06
2.05046e-05
2.54882e-05
6.68209e-05
-5.3418e-06
5.3418e-06
-6.72547e-06
1.38367e-06
6.12279e-06
-1.28483e-05
2.36654e-05
-1.75426e-05
3.0598e-05
-6.9326e-06
2.61341e-05
4.46394e-06
2.04288e-05
5.70524e-06
2.29715e-05
-2.54263e-06
3.36618e-05
-1.06903e-05
3.86027e-05
-4.94088e-06
3.08533e-05
7.74935e-06
2.29826e-05
7.87071e-06
1.48731e-05
8.10955e-06
9.17282e-07
1.39558e-05
-1.20287e-05
1.2946e-05
-1.68674e-05
4.83869e-06
-2.16969e-05
4.8295e-06
-1.77207e-05
-3.97618e-06
-1.77207e-05
-7.53453e-06
1.28763e-05
-1.08027e-05
4.65187e-06
6.4635e-07
-2.42973e-05
1.76633e-05
-3.45596e-05
3.0611e-05
-1.98803e-05
3.42633e-05
8.11649e-07
3.18929e-05
8.07556e-06
3.16698e-05
-2.31945e-06
3.68959e-05
-1.59165e-05
4.12395e-05
-9.28438e-06
3.85728e-05
1.0416e-05
3.05229e-05
1.59206e-05
1.81413e-05
2.04912e-05
2.27897e-06
2.98182e-05
-1.19022e-05
2.71272e-05
-1.55758e-05
8.51227e-06
-1.66769e-05
5.93059e-06
-1.21505e-05
-8.5026e-06
-2.98712e-05
-8.72236e-06
2.15987e-05
-9.51594e-06
5.44544e-06
1.70791e-06
-3.55212e-05
1.3445e-05
-4.62966e-05
2.40007e-05
-3.0436e-05
2.94344e-05
-4.62205e-06
3.09881e-05
6.52185e-06
3.08614e-05
-2.19276e-06
3.25285e-05
-1.75837e-05
3.47995e-05
-1.15553e-05
3.12541e-05
1.39614e-05
2.00004e-05
2.71744e-05
4.90121e-06
3.55903e-05
-1.41516e-06
3.61345e-05
-1.02037e-07
2.58141e-05
2.85178e-06
5.55847e-06
-1.79566e-06
1.0578e-05
-2.7507e-06
-7.54755e-06
-3.26219e-05
-7.22482e-06
2.88235e-05
-4.14061e-06
2.36124e-06
7.51549e-06
-4.71773e-05
1.51272e-05
-5.39084e-05
1.92008e-05
-3.45096e-05
2.35215e-05
-8.94278e-06
2.71523e-05
2.89102e-06
2.50611e-05
-1.01538e-07
2.3234e-05
-1.57566e-05
2.53183e-05
-1.36396e-05
1.96428e-05
1.96368e-05
1.89523e-06
4.4922e-05
-1.42237e-05
5.17092e-05
-1.36318e-05
3.55427e-05
-1.71951e-06
1.39018e-05
1.42958e-05
-1.04569e-05
1.76708e-05
7.2031e-06
9.96547e-06
1.57739e-07
-2.26564e-05
-3.73339e-06
3.25569e-05
2.65029e-06
-4.02244e-06
1.41057e-05
-5.86327e-05
2.14217e-05
-6.12244e-05
2.0256e-05
-3.33439e-05
2.04367e-05
-9.12349e-06
2.20004e-05
1.32736e-06
1.85083e-05
3.39052e-06
1.57443e-05
-1.29926e-05
1.70706e-05
-1.49659e-05
6.49178e-06
3.02157e-05
-1.61284e-05
6.75421e-05
-3.32337e-05
6.88145e-05
-2.92108e-05
3.15198e-05
-1.48991e-05
-4.09905e-07
8.13676e-06
-3.34928e-05
1.87694e-05
-3.42951e-06
1.36487e-05
5.27839e-06
-9.00767e-06
1.79551e-07
3.23774e-05
1.17887e-05
-1.56315e-05
2.23875e-05
-6.92316e-05
2.95415e-05
-6.83784e-05
2.48251e-05
-2.86274e-05
1.71488e-05
-1.44723e-06
1.56345e-05
2.84168e-06
1.58455e-05
3.17952e-06
1.31288e-05
-1.02759e-05
7.85947e-06
-9.69646e-06
-7.92536e-06
4.60005e-05
-2.80961e-05
8.77128e-05
-3.70364e-05
7.77548e-05
-3.46964e-05
2.91798e-05
-2.37924e-05
-1.13139e-05
-2.74495e-06
-5.45403e-05
1.25608e-05
-1.87352e-05
1.10949e-05
6.74426e-06
2.08722e-06
9.76808e-06
2.26093e-05
2.61591e-05
-3.20226e-05
3.5039e-05
-7.81114e-05
3.95031e-05
-7.28426e-05
3.09682e-05
-2.00925e-05
1.79937e-05
1.15272e-05
1.4578e-05
6.25741e-06
1.64602e-05
1.29731e-06
1.21536e-05
-5.96937e-06
6.79234e-08
2.38925e-06
-1.80408e-05
6.41092e-05
-3.40404e-05
0.000103713
-3.96082e-05
8.33226e-05
-4.50007e-05
3.45723e-05
-3.7001e-05
-1.93136e-05
-1.61309e-05
-7.54104e-05
2.68083e-06
-3.75469e-05
6.2342e-06
3.19089e-06
8.32142e-06
2.74504e-05
-4.8411e-06
4.52342e-05
-4.98064e-05
5.05307e-05
-8.34078e-05
5.12651e-05
-7.35771e-05
4.19002e-05
-1.07275e-05
2.47013e-05
2.87261e-05
1.58635e-05
1.50953e-05
1.54928e-05
1.66791e-06
1.00737e-05
-5.50231e-07
-3.34073e-06
1.58037e-05
-1.9663e-05
8.04315e-05
-2.41498e-05
0.000108199
-2.26255e-05
8.17983e-05
-3.50165e-05
4.69633e-05
-4.05131e-05
-1.3817e-05
-2.74765e-05
-8.8447e-05
-8.05697e-06
-5.69665e-05
1.13597e-06
-6.00205e-06
9.45739e-06
2.90248e-05
-8.79237e-06
6.23519e-05
-4.06921e-05
8.53112e-05
-3.36907e-05
7.49705e-05
6.76335e-06
3.16821e-05
4.86566e-05
-3.35683e-05
6.04312e-05
-5.66646e-05
-3.42821e-05
-3.0915e-05
-5.44207e-05
2.63315e-06
-1.36949e-05
1.92478e-05
4.08708e-06
2.87586e-05
-1.39647e-06
3.88812e-05
-1.76144e-05
4.72144e-05
-2.94943e-05
4.92838e-05
-2.80367e-05
4.0493e-05
-2.53004e-06
2.51715e-05
2.92934e-05
2.00671e-05
2.87833e-05
3.54527e-05
-1.15274e-05
5.25178e-05
-3.65255e-05
6.55824e-05
-2.79488e-05
7.60344e-05
-5.71185e-06
8.91201e-05
1.24024e-05
2.75945e-05
0.000128346
4.17614e-05
-5.05537e-05
8.55286e-05
-8.44594e-05
7.93927e-05
-2.75548e-05
2.79142e-05
5.82419e-05
9.0481e-06
6.75227e-05
-2.47679e-05
9.42472e-05
-6.60375e-05
6.98754e-06
-6.61275e-05
-5.43307e-05
-3.10177e-05
-4.88048e-05
1.01208e-06
-2.79427e-05
2.19387e-05
-2.23231e-05
3.64247e-05
-3.21004e-05
4.19879e-05
-3.50574e-05
3.45481e-05
-2.05969e-05
2.38848e-05
8.1333e-06
2.40944e-05
2.90837e-05
3.66835e-05
1.61942e-05
4.70128e-05
-2.18568e-05
5.10762e-05
-4.05888e-05
6.19449e-05
-3.88175e-05
7.89435e-05
-2.27105e-05
9.77575e-05
-6.41159e-06
2.30757e-06
0.000123044
6.94501e-06
-5.74987e-05
3.65259e-05
-0.00011404
7.76224e-05
-6.86515e-05
9.00583e-05
4.58063e-05
4.55651e-05
0.000112016
3.89635e-05
0.000100849
2.1426e-05
2.4525e-05
-5.29375e-06
-2.7611e-05
-2.2771e-05
-3.13275e-05
-9.7767e-06
-4.0937e-05
1.44098e-05
-4.65097e-05
3.25169e-05
-5.02074e-05
2.97026e-05
-3.22432e-05
2.09774e-05
-1.18716e-05
2.67236e-05
2.38703e-06
4.59437e-05
9.86369e-06
5.98266e-05
2.31129e-06
4.99863e-05
-1.20164e-05
3.42188e-05
-2.48213e-05
3.2355e-05
-3.69537e-05
4.58563e-05
-3.62118e-05
6.65495e-05
-2.71048e-05
-2.13399e-05
9.0197e-05
9.19142e-06
-6.669e-05
4.82817e-05
-0.00015313
0.000108569
-0.000128939
0.000173701
-1.93255e-05
0.000193519
9.2198e-05
0.000161619
0.000132749
0.00015773
2.8414e-05
0.00018203
-5.19106e-05
0.000153984
-3.28195e-06
0.000106634
6.41298e-06
0.000102213
-4.2089e-05
0.000103948
-5.19418e-05
7.60865e-05
-4.38192e-06
5.18144e-05
1.24005e-05
5.30522e-05
1.14931e-06
7.46971e-05
-1.17813e-05
9.12687e-05
-1.42603e-05
8.22023e-05
-2.95008e-06
5.51768e-05
2.20414e-06
3.52837e-05
-1.70606e-05
3.34404e-05
-3.43685e-05
4.37509e-05
-3.74153e-05
-3.80492e-05
6.04602e-05
2.01687e-06
-6.87071e-05
5.4903e-05
-0.000206017
0.000136851
-0.000210887
0.000218135
-0.000100609
0.000287945
2.23881e-05
0.000341464
7.92298e-05
0.000319658
5.02201e-05
0.000283657
-1.59098e-05
0.000276366
4.00955e-06
0.000256028
2.67504e-05
0.000202638
1.13008e-05
0.000157065
-6.36815e-06
0.0001166
3.60827e-05
6.17354e-05
6.7265e-05
5.69729e-05
5.91203e-06
8.05815e-05
-3.53898e-05
0.000105597
-3.92756e-05
0.000122651
-2.00044e-05
0.000122393
2.46267e-06
0.000110743
-5.41096e-06
0.000102388
-2.60139e-05
9.93306e-05
-3.43574e-05
-4.13e-05
0.000102581
8.05891e-07
-6.9513e-05
5.08457e-05
-0.000256056
0.00012126
-0.000281302
0.000196062
-0.000175411
0.000260405
-4.19547e-05
0.000324301
1.53339e-05
0.000362967
1.15539e-05
0.000340426
6.63139e-06
0.000303025
4.141e-05
0.000251741
7.80349e-05
0.000188004
7.50369e-05
0.000127512
5.41245e-05
9.90826e-05
6.45121e-05
5.17031e-05
0.000114645
-8.93555e-06
6.65509e-05
1.89008e-05
-6.32261e-05
7.12295e-05
-9.16044e-05
9.8325e-05
-4.70998e-05
0.000125847
-2.50592e-05
0.000152673
-3.22375e-05
0.000205244
-7.85849e-05
0.000259843
-8.89557e-05
-4.85796e-05
0.000267122
1.14671e-05
-8.09801e-05
4.35066e-05
-0.000288096
8.53718e-05
-0.000323167
0.000137967
-0.000228006
0.000180207
-8.41945e-05
0.000223811
-2.82706e-05
0.000256534
-2.11694e-05
0.000268191
-5.02524e-06
0.000258279
5.13216e-05
0.000225538
0.000110776
0.000173657
0.000126918
0.000128266
9.9515e-05
0.000103125
8.96536e-05
8.72482e-05
0.000130522
6.88457e-05
8.49533e-05
9.51692e-05
-8.95497e-05
0.000124421
-0.000120857
0.00012271
-4.53882e-05
9.57877e-05
1.86289e-06
0.000129228
-6.56774e-05
0.000177747
-0.000127104
0.000213824
-0.000125033
-6.40624e-05
0.000229307
2.35902e-05
-0.00010457
3.80036e-05
-0.000302509
5.99087e-05
-0.000345072
8.34478e-05
-0.000251545
0.00010651
-0.000107257
0.000139122
-6.08824e-05
0.000164586
-4.66334e-05
0.000174833
-1.52716e-05
0.000173173
5.29815e-05
0.000154229
0.00012972
0.00012369
0.000157457
9.45977e-05
0.000128607
5.46088e-05
0.000129643
6.75417e-05
0.000117589
0.000118362
3.4133e-05
0.000114119
-8.53062e-05
0.00010105
-0.000107788
7.29865e-05
-1.73251e-05
8.60139e-05
-1.11641e-05
0.000121085
-0.000100749
0.000145777
-0.000151796
0.000157094
-0.000136351
-5.56542e-05
0.000148686
2.00107e-05
-0.000124581
3.13519e-05
-0.000313851
4.11618e-05
-0.000354882
4.88624e-05
-0.000259246
5.78933e-05
-0.000116288
8.06224e-05
-8.36115e-05
9.39295e-05
-5.99408e-05
9.1245e-05
-1.25872e-05
7.85724e-05
6.56543e-05
6.82385e-05
0.000140054
6.22327e-05
0.000163463
4.95628e-05
0.000141277
2.64806e-05
0.000152725
5.8781e-05
8.52889e-05
0.000109302
-1.63882e-05
0.000110988
-8.69916e-05
9.05525e-05
-8.73527e-05
8.10612e-05
-7.83391e-06
0.000105563
-3.56654e-05
0.000121431
-0.000116618
0.000132162
-0.000162526
0.000120608
-0.000124797
-2.48949e-05
8.98486e-05
9.99234e-06
-0.000134573
2.54431e-05
-0.000329302
2.59824e-05
-0.000355421
2.74036e-05
-0.000260667
2.53945e-05
-0.000114279
3.11312e-05
-8.93483e-05
3.06953e-05
-5.95052e-05
1.67643e-05
1.34386e-06
7.79875e-07
8.16389e-05
-9.71705e-06
0.000150551
-6.99325e-06
0.000160739
7.60053e-06
0.000126683
5.12313e-05
0.000109094
9.29541e-05
4.35661e-05
0.000116107
-3.95407e-05
0.000114872
-8.57568e-05
0.000103277
-7.57577e-05
0.000113278
-1.78356e-05
0.000111393
-3.378e-05
0.000113429
-0.000118654
0.000112931
-0.000162028
7.46799e-05
-8.65455e-05
1.50541e-05
3.47308e-05
7.38343e-06
-0.000141957
2.61987e-05
-0.000348117
1.99399e-05
-0.000349163
1.49784e-05
-0.000255705
4.20549e-07
-9.97211e-05
-1.56351e-05
-7.32926e-05
-2.95205e-05
-4.56197e-05
-5.24227e-05
2.42461e-05
-7.58917e-05
0.000105108
-8.24468e-05
0.000157106
-4.81139e-05
0.000126406
6.9161e-06
7.16531e-05
7.72346e-05
3.87755e-05
0.000125786
-4.98489e-06
0.000137494
-5.12494e-05
0.000127129
-7.53916e-05
0.000113598
-6.22263e-05
0.000111787
-1.60251e-05
9.31445e-05
-1.51371e-05
8.1863e-05
-0.000107373
5.05349e-05
-0.0001307
-2.55646e-05
-1.04461e-05
7.77684e-05
-8.82789e-05
1.25844e-05
-0.000154541
2.88058e-05
-0.000364338
2.00285e-05
-0.000340385
2.90676e-06
-0.000238584
-2.72135e-05
-6.96006e-05
-5.37643e-05
-4.67419e-05
-7.6814e-05
-2.25699e-05
-9.53739e-05
4.28061e-05
-0.000100686
0.00011042
-7.62232e-05
0.000132643
-2.14721e-05
7.16545e-05
3.46217e-05
1.55593e-05
9.11895e-05
-1.77922e-05
0.000129903
-4.3698e-05
0.000143925
-6.52719e-05
0.00013698
-6.84464e-05
0.000117918
-4.31645e-05
9.07734e-05
1.11193e-05
5.30718e-05
2.25646e-05
2.73347e-05
-8.16357e-05
-4.49826e-05
-5.83823e-05
-0.000121565
6.61363e-05
0.000140038
-0.000183834
2.43809e-05
-0.000178922
3.12762e-05
-0.000371234
1.32536e-05
-0.000322363
-1.61978e-05
-0.000209132
-4.82654e-05
-3.75331e-05
-7.68494e-05
-1.81581e-05
-9.37972e-05
-5.62217e-06
-9.49833e-05
4.39924e-05
-7.51612e-05
9.0598e-05
-3.14483e-05
8.89297e-05
2.15473e-05
1.8659e-05
6.83643e-05
-3.12577e-05
0.000103981
-5.34091e-05
0.000124027
-6.37439e-05
0.000124824
-6.60684e-05
0.000111672
-5.52951e-05
9.03886e-05
-2.18808e-05
5.4023e-05
4.74849e-05
1.24138e-05
6.41737e-05
-2.18433e-05
-4.73785e-05
-9.33452e-05
1.31196e-05
-0.000153755
0.000126546
0.000185925
-0.000199643
3.49653e-05
-0.000213888
3.09069e-05
-0.000367175
-4.37356e-06
-0.000287082
-4.15831e-05
-0.000171923
-6.4008e-05
-1.51081e-05
-7.99738e-05
-2.19247e-06
-8.38722e-05
-1.72375e-06
-6.75153e-05
2.76356e-05
-3.08554e-05
5.39382e-05
2.13808e-05
3.66935e-05
5.67091e-05
-1.66693e-05
7.45792e-05
-4.91279e-05
8.05409e-05
-5.93709e-05
8.09641e-05
-6.41673e-05
7.91517e-05
-6.4256e-05
7.23691e-05
-4.85127e-05
5.67678e-05
-6.27968e-06
2.67053e-05
7.75475e-05
-1.30054e-05
0.000103884
-4.85105e-05
-1.18735e-05
-9.00661e-05
5.46753e-05
-0.00013395
0.00017043
0.000211214
-0.000159239
4.0437e-05
-0.000254324
1.93941e-05
-0.000346132
-2.78477e-05
-0.000239841
-6.95489e-05
-0.000130222
-8.02692e-05
-4.38756e-06
-7.98592e-05
-2.60249e-06
-7.17826e-05
-9.80018e-06
-4.69088e-05
2.76194e-06
-6.43177e-06
1.34612e-05
3.0791e-05
-5.29361e-07
3.91442e-05
-2.50226e-05
3.3232e-05
-4.32158e-05
3.10113e-05
-5.71501e-05
3.58575e-05
-6.90135e-05
4.28421e-05
-7.12405e-05
4.49146e-05
-5.05854e-05
3.57821e-05
2.85256e-06
1.38478e-05
9.94815e-05
-2.19123e-05
0.000139644
-5.21863e-05
1.84005e-05
-6.60967e-05
6.85857e-05
-9.36035e-05
0.000197937
0.000220612
-0.000103002
3.27341e-05
-0.000287059
-8.76919e-06
-0.000304629
-5.77995e-05
-0.00019081
-9.62752e-05
-9.17464e-05
-9.33722e-05
-7.29035e-06
-8.06768e-05
-1.52977e-05
-6.7183e-05
-2.3294e-05
-4.80944e-05
-1.63266e-05
-2.36586e-05
-1.09745e-05
-9.02518e-06
-1.51628e-05
-5.5484e-06
-2.84994e-05
-5.81123e-06
-4.29528e-05
-4.63757e-06
-5.83235e-05
-1.35696e-06
-7.2294e-05
5.07639e-06
-7.7674e-05
1.30704e-05
-5.85797e-05
1.73837e-05
-1.46093e-06
1.40974e-05
0.000102768
-1.02906e-05
0.000164032
-4.40301e-05
5.214e-05
-4.79177e-05
7.24733e-05
-5.11838e-05
0.000201203
0.000222797
-5.33689e-05
8.30597e-06
-0.000295365
-4.22322e-05
-0.000254091
-8.35404e-05
-0.000149501
-0.00010957
-6.57163e-05
-9.78396e-05
-1.90209e-05
-8.2504e-05
-3.06333e-05
-7.17319e-05
-3.40662e-05
-5.97258e-05
-2.83327e-05
-4.64455e-05
-2.42549e-05
-3.61698e-05
-2.54385e-05
-3.16249e-05
-3.30443e-05
-3.04599e-05
-4.4118e-05
-3.12168e-05
-5.75666e-05
-3.22323e-05
-7.12786e-05
-3.07212e-05
-7.91854e-05
-2.13583e-05
-6.79429e-05
-2.83728e-06
-1.99821e-05
1.52445e-05
8.46861e-05
7.14683e-06
0.00017213
-3.6605e-05
9.58919e-05
-3.27318e-05
6.86001e-05
-1.14783e-05
0.00017995
0.000221237
-9.91839e-06
-1.89192e-05
-0.000276446
-6.33476e-05
-0.000209662
-9.57733e-05
-0.000117076
-0.000108337
-5.31527e-05
-9.60788e-05
-3.1279e-05
-8.52647e-05
-4.14475e-05
-7.85413e-05
-4.07898e-05
-7.01847e-05
-3.66893e-05
-6.02282e-05
-3.42114e-05
-5.09669e-05
-3.46998e-05
-4.50585e-05
-3.89526e-05
-4.3238e-05
-4.59382e-05
-4.5798e-05
-5.50065e-05
-5.17281e-05
-6.53486e-05
-5.69752e-05
-7.39385e-05
-5.37126e-05
-7.12057e-05
-3.52629e-05
-3.8432e-05
6.69721e-06
4.27262e-05
3.40547e-05
0.000144773
-6.54934e-07
0.000130601
-1.39691e-05
8.19143e-05
2.39581e-05
0.000142023
0.000198452
4.6744e-05
-3.18959e-05
-0.00024455
-6.67405e-05
-0.000174817
-9.26146e-05
-9.12013e-05
-9.95479e-05
-4.62194e-05
-9.23765e-05
-3.84505e-05
-8.84709e-05
-4.53531e-05
-8.5148e-05
-4.41128e-05
-7.84474e-05
-4.33898e-05
-6.90471e-05
-4.36117e-05
-5.90556e-05
-4.46914e-05
-5.12715e-05
-4.67367e-05
-4.77159e-05
-4.94937e-05
-4.95194e-05
-5.3203e-05
-5.67924e-05
-5.80757e-05
-6.7251e-05
-6.348e-05
-7.35034e-05
-6.49534e-05
-6.23127e-05
-4.96227e-05
-2.07005e-05
1.11394e-06
3.67769e-05
8.72953e-05
3.87591e-05
0.000128619
1.08157e-05
0.000109858
3.83034e-05
0.000114535
0.000152851
8.3904e-05
-3.30768e-05
-0.000211473
-5.99166e-05
-0.000147977
-8.18692e-05
-6.92487e-05
-8.955e-05
-3.85385e-05
-8.97113e-05
-3.82891e-05
-9.17505e-05
-4.3314e-05
-9.1014e-05
-4.48493e-05
-8.52754e-05
-4.91283e-05
-7.54187e-05
-5.34684e-05
-6.38015e-05
-5.63088e-05
-5.37955e-05
-5.67428e-05
-4.79937e-05
-5.52955e-05
-4.74428e-05
-5.37539e-05
-5.22988e-05
-5.32197e-05
-6.22346e-05
-5.35443e-05
-7.38308e-05
-5.33571e-05
-7.66164e-05
-4.68369e-05
-5.25593e-05
-2.29432e-05
9.2338e-06
2.55021e-05
5.60275e-05
8.18252e-05
5.75718e-05
0.000108313
5.75566e-05
0.00011455
0.000120404
9.00037e-05
-3.03738e-05
-0.000181099
-4.90273e-05
-0.000129324
-6.99611e-05
-4.83148e-05
-8.1406e-05
-2.70934e-05
-8.87065e-05
-3.09885e-05
-9.55505e-05
-3.64699e-05
-9.70509e-05
-4.33489e-05
-9.17429e-05
-5.44363e-05
-8.03959e-05
-6.48154e-05
-6.6032e-05
-7.06727e-05
-5.30227e-05
-6.97522e-05
-4.48861e-05
-6.34319e-05
-4.26566e-05
-5.59832e-05
-4.51717e-05
-5.07046e-05
-5.16139e-05
-4.71021e-05
-6.0794e-05
-4.41771e-05
-6.8052e-05
-3.95789e-05
-6.17509e-05
-2.92443e-05
-2.68556e-05
-9.39325e-06
3.21438e-05
2.28258e-05
7.79972e-05
6.24598e-05
9.55726e-05
9.69749e-05
0.000108151
0.000107825
-2.75042e-05
-0.000153595
-3.68692e-05
-0.000119959
-6.00101e-05
-2.51738e-05
-7.64456e-05
-1.06578e-05
-9.03302e-05
-1.71039e-05
-0.000101819
-2.4981e-05
-0.000106074
-3.90942e-05
-0.000101584
-5.89265e-05
-8.95035e-05
-7.68955e-05
-7.31857e-05
-8.69906e-05
-5.62461e-05
-8.66918e-05
-4.32553e-05
-7.64227e-05
-3.7248e-05
-6.19905e-05
-3.74635e-05
-5.0489e-05
-4.20711e-05
-4.24946e-05
-4.80892e-05
-3.81591e-05
-5.23981e-05
-3.527e-05
-5.04891e-05
-3.11534e-05
-3.51467e-05
-2.47357e-05
1.7093e-06
-1.403e-05
5.87522e-05
5.41698e-06
0.000115642
4.00856e-05
7.62117e-05
0.000147581
-2.77456e-05
-0.000125849
-2.8643e-05
-0.000119061
-5.34577e-05
-3.59133e-07
-7.5095e-05
1.09797e-05
-9.5577e-05
3.37801e-06
-0.000112606
-7.95207e-06
-0.000120876
-3.08245e-05
-0.000120003
-5.97989e-05
-0.000113242
-8.36571e-05
-0.000101588
-9.86442e-05
-8.41802e-05
-0.0001041
-6.23771e-05
-9.82256e-05
-4.39986e-05
-8.03689e-05
-3.45732e-05
-5.99143e-05
-3.46838e-05
-4.2384e-05
-3.93058e-05
-3.35369e-05
-4.21133e-05
-3.24623e-05
-3.9866e-05
-3.34006e-05
-3.02409e-05
-3.43608e-05
-9.08455e-06
-3.51864e-05
2.84263e-05
-3.20939e-05
8.51358e-05
-1.66239e-05
2.04384e-05
0.000140909
-3.13459e-05
-9.45035e-05
-3.01959e-05
-0.000120211
-4.94801e-05
1.89251e-05
-7.69059e-05
3.84056e-05
-0.000104361
3.08328e-05
-0.000127031
1.4718e-05
-0.000140022
-1.78331e-05
-0.000146883
-5.29377e-05
-0.000151174
-7.93666e-05
-0.000149776
-0.000100042
-0.000137233
-0.000116643
-0.00011223
-0.000123228
-8.04078e-05
-0.000112191
-5.21613e-05
-8.81609e-05
-3.72072e-05
-5.73379e-05
-3.53543e-05
-3.53898e-05
-3.71272e-05
-3.06893e-05
-3.5435e-05
-3.50929e-05
-2.88143e-05
-4.09817e-05
-1.60602e-05
-4.79407e-05
7.11873e-06
-5.5273e-05
4.46925e-05
-5.41978e-05
-3.12625e-05
9.63933e-05
-3.68725e-05
-5.7631e-05
-4.06478e-05
-0.000116436
-4.24341e-05
2.07115e-05
-7.8503e-05
7.44745e-05
-0.000112983
6.53125e-05
-0.000141467
4.32022e-05
-0.000160693
1.39288e-06
-0.000179876
-3.37545e-05
-0.000198752
-6.04904e-05
-0.000207973
-9.08211e-05
-0.000199468
-0.000125148
-0.000174056
-0.000148641
-0.000136558
-0.000149689
-9.6132e-05
-0.000128587
-6.11554e-05
-9.23146e-05
-4.23573e-05
-5.41878e-05
-3.78392e-05
-3.52073e-05
-3.5942e-05
-3.69903e-05
-3.15592e-05
-4.53647e-05
-2.48892e-05
-5.46108e-05
-1.42939e-05
-6.58684e-05
6.1013e-06
-7.4593e-05
-6.70738e-05
4.19127e-05
-3.53054e-05
-2.23256e-05
-4.57375e-05
-0.000106004
-3.50625e-05
1.00366e-05
-7.74898e-05
0.000116902
-0.000117355
0.000105178
-0.000150475
7.63219e-05
-0.000180168
3.10867e-05
-0.000214825
9.01831e-07
-0.00024667
-2.86445e-05
-0.00025973
-7.77613e-05
-0.000250437
-0.000134441
-0.000225002
-0.000174075
-0.000188265
-0.000186426
-0.000145063
-0.000171789
-0.000100797
-0.000136581
-6.42669e-05
-9.07183e-05
-4.55698e-05
-5.39044e-05
-3.98661e-05
-4.26939e-05
-3.67437e-05
-4.84872e-05
-3.37695e-05
-5.7585e-05
-3.13675e-05
-6.82705e-05
-2.51499e-05
-8.08106e-05
-8.38868e-05
-8.33689e-06
-1.44335e-05
-7.89215e-06
-3.66636e-05
-8.37737e-05
-2.63775e-05
-2.4947e-07
-7.10273e-05
0.000161552
-0.000115596
0.000149747
-0.000154397
0.000115122
-0.000194305
7.09955e-05
-0.000238975
4.55712e-05
-0.000272621
5.0016e-06
-0.000280045
-7.03376e-05
-0.000268384
-0.000146103
-0.000245276
-0.000197183
-0.00021341
-0.000218291
-0.000174369
-0.000210831
-0.000131732
-0.000179218
-8.99906e-05
-0.000132459
-5.84665e-05
-8.54285e-05
-4.50923e-05
-5.6068e-05
-4.20197e-05
-5.15599e-05
-4.14442e-05
-5.81606e-05
-4.38117e-05
-6.59031e-05
-4.83775e-05
-7.62447e-05
-8.49516e-05
-4.73128e-05
1.41331e-05
-2.20252e-05
-1.4727e-05
-5.49136e-05
-1.58724e-05
8.95914e-07
-5.99946e-05
0.000205674
-0.000107073
0.000196825
-0.000150893
0.000158943
-0.000195636
0.000115738
-0.000239307
8.92421e-05
-0.000264984
3.0678e-05
-0.000268482
-6.68396e-05
-0.000259624
-0.00015496
-0.000240074
-0.000216733
-0.000211455
-0.00024691
-0.000176919
-0.000245366
-0.000139505
-0.000216632
-0.000101799
-0.000170165
-6.9009e-05
-0.000118218
-4.94782e-05
-7.55988e-05
-4.49275e-05
-5.61107e-05
-4.66753e-05
-5.64129e-05
-5.14122e-05
-6.11662e-05
-6.1189e-05
-6.6468e-05
-7.42111e-05
-7.19296e-05
2.44873e-05
-4.65126e-05
1.04155e-05
-4.08419e-05
-3.1112e-06
1.44228e-05
-4.46834e-05
0.000247246
-9.1631e-05
0.000243772
-0.000136397
0.000203709
-0.000178934
0.000158276
-0.000214161
0.000124468
-0.00023259
4.91077e-05
-0.000237462
-6.19677e-05
-0.000233634
-0.000158788
-0.000219231
-0.000231136
-0.000194232
-0.000271909
-0.000161501
-0.000278098
-0.000126314
-0.000251819
-9.24501e-05
-0.000204029
-6.54153e-05
-0.000145253
-4.9313e-05
-9.17011e-05
-4.39409e-05
-6.14828e-05
-4.80165e-05
-5.23374e-05
-5.47984e-05
-5.43843e-05
-6.5867e-05
-5.53994e-05
-5.81545e-05
-8.19236e-05
2.43843e-05
-7.0897e-05
2.65594e-05
-4.3017e-05
8.84776e-06
3.21346e-05
-2.76196e-05
0.000283714
-7.17058e-05
0.000287859
-0.000112658
0.000244661
-0.000148486
0.000194104
-0.000173645
0.000149627
-0.000186326
6.17883e-05
-0.000192574
-5.57191e-05
-0.000193721
-0.000157641
-0.000187288
-0.00023757
-0.000168741
-0.000290456
-0.000140076
-0.000306763
-0.000108147
-0.000283747
-7.48634e-05
-0.000237313
-4.87218e-05
-0.000171395
-4.01429e-05
-0.00010028
-3.90156e-05
-6.26102e-05
-4.47796e-05
-4.65734e-05
-5.42889e-05
-4.48749e-05
-6.55924e-05
-4.4096e-05
-4.20015e-05
-8.17455e-05
2.49102e-05
-9.58073e-05
3.80963e-05
-5.62028e-05
2.06463e-05
4.95847e-05
-1.04049e-05
0.000314765
-4.89034e-05
0.000326357
-8.3253e-05
0.000279011
-0.000110321
0.000221172
-0.000126759
0.000166066
-0.000134153
6.9182e-05
-0.000139455
-5.0417e-05
-0.00014362
-0.000153476
-0.000143719
-0.00023747
-0.00013241
-0.000301766
-0.000112385
-0.000326788
-8.9559e-05
-0.000306573
-6.0441e-05
-0.000266431
-3.15826e-05
-0.000200253
-2.40345e-05
-0.000107828
-3.12063e-05
-5.54385e-05
-3.88113e-05
-3.89684e-05
-5.0729e-05
-3.29572e-05
-6.25476e-05
-3.22773e-05
-2.80249e-05
-7.65243e-05
2.47985e-05
-0.000120606
3.8839e-05
-7.02433e-05
2.527e-05
6.31537e-05
5.90186e-06
0.000334133
-2.36515e-05
0.000355911
-5.04727e-05
0.000305832
-6.82759e-05
0.000238975
-7.6202e-05
0.000173992
-7.92441e-05
7.22242e-05
-8.41717e-05
-4.54893e-05
-8.96105e-05
-0.000148038
-9.3873e-05
-0.000233208
-8.93199e-05
-0.000306319
-7.9711e-05
-0.000336397
-6.8257e-05
-0.000318027
-4.88755e-05
-0.000285813
-2.35786e-05
-0.00022555
-1.15072e-05
-0.0001199
-2.32785e-05
-4.36673e-05
-3.42724e-05
-2.79745e-05
-4.63941e-05
-2.08356e-05
-5.83558e-05
-2.03155e-05
-1.66906e-05
-6.96901e-05
2.21865e-05
-0.000142792
2.91822e-05
-7.7239e-05
2.05302e-05
7.18058e-05
1.59022e-05
0.000338761
2.46202e-06
0.000369351
-1.45453e-05
0.00032284
-2.55155e-05
0.000249946
-2.49904e-05
0.000173467
-2.37879e-05
7.10218e-05
-2.95716e-05
-3.97058e-05
-3.68062e-05
-0.000140803
-4.4627e-05
-0.000225387
-4.75808e-05
-0.000303365
-4.86433e-05
-0.000335335
-4.75059e-05
-0.000319164
-3.8427e-05
-0.000294892
-2.35825e-05
-0.000240395
-1.10472e-05
-0.000132435
-1.95696e-05
-3.5145e-05
-3.37385e-05
-1.38057e-05
-4.39059e-05
-1.06682e-05
-5.42671e-05
-9.95432e-06
-8.2851e-06
-6.26724e-05
1.35821e-05
-0.000156374
1.29733e-05
-7.66303e-05
9.65392e-06
7.51252e-05
2.02427e-05
0.000328172
2.70139e-05
0.00036258
2.42157e-05
0.000325638
2.02675e-05
0.000253894
2.5571e-05
0.000168163
2.83743e-05
6.82184e-05
2.23242e-05
-3.36558e-05
1.12434e-05
-0.000129722
2.39316e-08
-0.000214168
-1.08803e-05
-0.000292461
-2.32995e-05
-0.000322915
-3.22432e-05
-0.000310221
-3.3033e-05
-0.000294102
-2.93337e-05
-0.000244094
-2.27399e-05
-0.000139029
-2.54577e-05
-3.24273e-05
-3.73356e-05
-1.92763e-06
-4.46069e-05
-3.39673e-06
-5.12159e-05
-3.34531e-06
-2.80005e-06
-5.67008e-05
9.56334e-07
-0.000157331
-1.66697e-06
-7.4007e-05
-7.45819e-06
8.09165e-05
1.7472e-05
0.000303242
4.23676e-05
0.000337684
5.74733e-05
0.000310532
6.50971e-05
0.00024627
7.21033e-05
0.000161157
7.30448e-05
6.72768e-05
6.48788e-05
-2.54898e-05
4.96774e-05
-0.000114521
3.39535e-05
-0.000198444
1.5814e-05
-0.000274321
-5.98634e-06
-0.000301115
-2.43341e-05
-0.000291873
-3.5733e-05
-0.000282703
-4.25192e-05
-0.000237308
-4.27699e-05
-0.000138778
-3.93433e-05
-3.58539e-05
-4.41038e-05
2.83288e-06
-4.78067e-05
3.06308e-07
-4.99609e-05
-1.19108e-06
-4.47016e-07
-5.23139e-05
-1.04694e-05
-0.000146861
-1.49281e-05
-6.95482e-05
-2.06008e-05
8.65892e-05
1.15933e-05
0.000271048
4.64103e-05
0.000302867
7.59829e-05
0.00028096
9.49795e-05
0.000227273
0.000103552
0.000152585
0.000101837
6.89917e-05
9.14829e-05
-1.51361e-05
7.40755e-05
-9.71132e-05
5.65629e-05
-0.000180931
3.30405e-05
-0.000250799
3.27095e-06
-0.000271345
-2.31653e-05
-0.000265437
-4.50998e-05
-0.000260769
-6.08542e-05
-0.000221554
-6.46656e-05
-0.000134967
-5.72879e-05
-4.32315e-05
-5.30103e-05
-1.44481e-06
-5.14743e-05
-1.22968e-06
-4.94731e-05
-3.19224e-06
-1.23992e-06
-4.86803e-05
-2.04349e-05
-0.000126426
-2.62263e-05
-6.37566e-05
-2.71871e-05
8.75501e-05
6.22777e-06
0.000237633
4.22646e-05
0.000266831
7.73151e-05
0.000245909
0.000102168
0.00020242
0.000112952
0.000141801
0.000111382
7.05615e-05
0.000100609
-4.36272e-06
8.46298e-05
-8.11338e-05
6.81873e-05
-0.000164488
4.09388e-05
-0.00022355
6.41295e-06
-0.00023682
-2.53534e-05