/*--------------------------------*- C++ -*----------------------------------*\
| =========                 |                                                 |
| \\      /  F ield         | OpenFOAM: The Open Source CFD Toolbox           |
|  \\    /   O peration     | Version:  2.3.0                                 |
|   \\  /    A nd           | Web:      www.OpenFOAM.org                      |
|    \\/     M anipulation  |                                                 |
\*---------------------------------------------------------------------------*/
FoamFile
{
    version     2.0;
    format      ascii;
    class       volScalarField;
    location    "2.2";
    object      alpha.water;
}
// * * * * * * * * * * * * * * * * * * * * * * * * * * * * * * * * * * * * * //

dimensions      [0 0 0 0 0 0 0];

internalField   nonuniform List<scalar> 
2268
(
1
1
1
1
1
1
1
1
1
1
1
1
0.999999
0.999997
0.999998
0.999999
1
0.999495
0.987693
0.981967
0.996214
0.994998
0.991559
1
1
1
1
1
1
1
0.999999
0.999999
1
0.999999
0.999997
0.999998
0.999997
0.999998
1
1
0.998554
0.978791
0.978697
0.996537
0.998027
0.996482
1
1
1
1
1
1
1
1
0.999999
0.999999
0.999998
0.999998
0.999999
0.999999
0.999999
1
1
0.999998
0.981249
0.978694
0.980487
0.998859
0.999923
1
1
1
1
1
1
1
1
0.999999
0.999999
0.999999
0.999999
1
1
0.999999
1
1
1
0.997654
0.978694
0.978715
0.992797
0.999929
1
1
1
1
1
1
1
1
0.999999
0.999999
1
1
1
1
1
1
1
1
1
0.98718
0.978736
0.992713
0.999959
1
1
1
1
1
0.999999
0.999999
0.999999
0.999999
1
1
1
1
1
1
1
1
1
1
0.999753
0.997482
0.999215
0.999966
1
1
1
1
1
1
1
1
1
1
1
1
1
1
1
1
1
1
0.999999
0.999999
0.999999
0.999999
0.999995
1
1
1
1
1
1
1
1
1
1
0.999999
0.999999
0.999999
0.999999
0.999999
0.999999
0.999999
1
0.999999
0.999999
0.999999
0.999999
0.999999
0.96176
0.942985
0.94344
0.952431
0.946603
0.933194
0.921873
0.917884
0.917884
0.960152
0.994965
0.994965
0.9949
0.964556
0.926938
0.963909
0.963909
0.963866
0.962788
0.95591
0.954561
0.995945
0.996394
0.996393
0.996391
0.992964
0.964843
0.921242
0.914551
0.953036
0.9949
0.994567
0.940246
0.903055
0.925467
0.963189
0.963559
0.958268
0.966718
0.975003
0.996395
0.996394
0.996394
0.996391
0.996389
0.996383
0.989221
0.914728
0.914439
0.969017
0.99156
0.925246
0.903192
0.903388
0.903643
0.916666
0.969328
0.96825
0.986738
0.996396
0.996394
0.996258
0.996366
0.996383
0.996376
0.994935
0.936541
0.916307
0.949648
0.99327
0.93506
0.903385
0.903366
0.903563
0.979352
0.989993
0.965758
0.996197
0.996398
0.996375
0.996153
0.996153
0.996364
0.996359
0.995872
0.977282
0.963925
0.989384
0.994577
0.966888
0.903384
0.903435
0.922542
0.990049
0.990049
0.965758
0.996396
0.996398
0.996396
0.996335
0.996382
0.996399
0.994452
0.988954
0.993138
0.994576
0.99483
0.994849
0.993084
0.941671
0.906514
0.9744
0.990049
0.989991
0.989322
0.996235
0.996355
0.996397
0.996397
0.996407
0.996437
0.994253
0.917527
0.85655
0.956892
0.994849
0.994878
0.994849
0.993662
0.981934
0.989945
0.990005
0.989996
0.997493
0.996665
0.996395
0.996396
0.99639
0.996424
0.996448
0.995946
0.868477
0.690935
0.72094
0.964475
0.994866
0.994872
0.994848
0.988645
0.989782
0.990084
0.991857
1
1
1
1
1
1
1
1
0.999998
0.999992
0.999984
0.999976
0.999968
0.999962
0.999959
0.999961
0.999969
0.999981
0.999992
1
0.999999
0.999999
0.999999
0.832016
0.824724
0.814257
0.804291
0.795112
0.788436
0.784564
0.784647
0.78619
0.789709
0.796086
0.804285
0.812474
0.819845
0.826335
0.831944
0.836136
0.83762
0.838222
0.835269
0.825433
0.807195
0.797718
0.103181
0.100791
0.0951244
0.0908858
0.0874185
0.0831804
0.0791891
0.0757292
0.073643
0.0758228
0.0782708
0.0810322
0.0842157
0.0876696
0.0907648
0.0907393
0.0912999
0.0935711
0.0929891
0.0871913
0.0740398
0.0558651
0.035666
0.0027077
0.00232638
0.00321037
0.00287824
0.00233438
0.00191796
0.00167764
0.00162207
0.00159575
0.00148325
0.00133132
0.00113478
0.000886161
0.000680683
0.00061225
0.000612432
0.000612432
0.000757192
0.00109438
0.0014795
0.0018259
0.00285091
0.00297884
0.00292168
0.00219499
0.00684439
0.00764702
0.00765472
0.00764702
0.00411418
0.00168005
0.00836458
0.0111211
0.0111353
0.0110984
0.0110623
0.0109824
0.00792525
0.00079877
0.0145816
0.0172092
0.0172395
0.0145708
0.015016
0.0217222
0.0144994
0.00136651
0.00086377
0.000714794
0.000143527
0.00067507
0.00234693
0.00459573
0.00461523
0.00325693
0.00165483
0.00195453
0.00179033
0.00431783
0.00507243
0.00146512
0.000708295
0.00463501
0.0095652
0.0190171
0.0221803
0.0221873
0.022151
0.0153309
4.14399e-06
2.55859e-06
2.86728e-06
2.93982e-06
2.40222e-06
2.09728e-06
5.4206e-06
3.19878e-05
1.04817e-06
1.03653e-06
1.65699e-06
6.60139e-05
0.000246695
0.000381743
0.000937447
0.000519186
0.000563838
0.000184114
0.000105724
0.00218068
0.0166551
0.0217222
0.0217249
3.25093e-07
1.90523e-07
2.4024e-06
3.00638e-06
2.11102e-06
2.08269e-06
4.01164e-06
9.84365e-06
1.04817e-06
1.65841e-06
0.000187693
0.00166797
0.00178355
0.00128597
0.00020755
0.00019685
0.00020755
0.000389084
7.16361e-05
3.75485e-05
5.24261e-05
0.00188444
0.0154666
2.7679e-08
1.6932e-08
2.40408e-06
3.26724e-06
2.86421e-06
2.04117e-06
1.44988e-05
1.45769e-05
6.96754e-06
2.38026e-06
0.000136145
0.00153526
0.00178355
0.00178355
0.00114738
0.000201945
0.000207256
0.000799205
0.00045386
2.75229e-05
1.36555e-05
2.74812e-05
0.000568928
6.27488e-09
4.30259e-09
1.03037e-06
3.27015e-06
1.2756e-06
9.54072e-07
9.97094e-06
1.44988e-05
3.54433e-06
1.91312e-06
1.23367e-05
5.24762e-07
0.000759544
0.00177169
0.00171922
0.000201942
0.000223155
0.000806947
0.0008008
0.000131263
9.17487e-06
1.09299e-05
1.37055e-05
4.64178e-09
3.43943e-09
1.43313e-08
4.90314e-07
9.18624e-09
2.81701e-07
3.76696e-07
2.62473e-06
5.53699e-08
4.24483e-08
1.73009e-08
2.73831e-08
4.51725e-08
0.000201979
0.000684368
0.000518444
0.000208737
0.000802832
0.000806947
0.000479507
8.56675e-06
9.17488e-06
6.84665e-06
9.94904e-09
1.06467e-09
1.1679e-09
2.48455e-09
2.42043e-09
2.6842e-09
2.91788e-09
5.4753e-09
9.01719e-10
8.17253e-10
2.57015e-09
1.53075e-08
1.37501e-08
2.43393e-08
2.08712e-06
4.91321e-05
0.000172794
0.000710319
0.000718907
0.000112664
7.24142e-06
2.22772e-05
6.46608e-05
4.91003e-08
6.57739e-10
1.13801e-09
1.40608e-09
2.26681e-09
2.08444e-09
1.59264e-09
7.90471e-10
4.81549e-10
4.905e-10
1.37657e-09
1.48899e-08
1.22716e-08
2.34023e-09
2.43353e-08
2.10945e-06
8.86409e-05
0.000129068
6.05752e-05
4.04662e-07
6.21074e-06
6.47896e-05
0.000104176
5.23929e-08
6.55741e-10
1.6488e-09
2.03099e-09
2.26888e-09
2.12801e-09
1.52368e-09
4.99969e-10
4.51654e-10
4.55034e-10
2.74035e-09
1.1593e-08
7.48318e-09
3.56641e-10
2.31452e-09
1.498e-06
5.13553e-06
1.74614e-07
1.17688e-07
2.73535e-08
8.24805e-07
3.97899e-05
0.000104176
5.24196e-08
6.55692e-10
1.46221e-09
1.95739e-09
2.19877e-09
2.19267e-09
1.63581e-09
6.7454e-10
4.49381e-10
4.44218e-10
1.74335e-09
2.79186e-09
1.11496e-09
1.71487e-10
6.3189e-09
1.26494e-07
1.17019e-08
9.11855e-09
6.49374e-09
1.80979e-09
6.35178e-09
3.22331e-06
7.78791e-05
5.48227e-08
1.81408e-09
1.21548e-09
1.32223e-09
1.70252e-09
1.81035e-09
1.53616e-09
9.04795e-10
4.53119e-10
3.4729e-10
4.23836e-10
2.14681e-10
1.65048e-10
1.57184e-10
5.04948e-10
3.71714e-10
6.99408e-10
5.79233e-10
4.26629e-10
3.01539e-10
4.25346e-10
8.96978e-07
3.29147e-05
5.48224e-08
2.37058e-08
1.5092e-09
1.07501e-09
1.14085e-09
1.18183e-09
1.20966e-09
9.28255e-10
5.56242e-10
3.21164e-10
2.26926e-10
1.7799e-10
1.64817e-10
1.4903e-10
1.2156e-10
1.26634e-10
1.38814e-10
1.39843e-10
1.11517e-10
1.5636e-10
1.07376e-10
6.32738e-07
1.36417e-05
5.48237e-08
3.07688e-08
8.97325e-09
1.07285e-09
1.07964e-09
1.08126e-09
8.614e-10
8.14933e-10
5.86323e-10
3.54464e-10
2.39394e-10
1.72568e-10
1.41693e-10
1.28103e-10
1.18873e-10
1.08976e-10
1.02221e-10
1.11119e-10
8.74572e-11
8.02938e-11
9.2966e-11
8.95198e-07
3.67788e-07
1.29573e-08
1.06729e-08
8.22567e-09
1.11011e-09
1.2629e-09
1.26493e-09
8.83087e-10
6.42766e-10
5.21289e-10
3.60876e-10
2.46826e-10
1.71048e-10
1.30244e-10
1.09975e-10
9.77537e-11
9.88218e-11
9.98963e-11
1.14907e-10
8.55261e-11
6.47704e-11
1.47202e-09
4.12124e-07
1.31763e-08
2.18977e-09
1.88258e-09
1.78546e-09
1.07065e-09
1.30505e-09
1.39353e-09
1.17704e-09
6.78792e-10
4.66712e-10
3.34609e-10
2.37115e-10
1.68692e-10
1.25141e-10
9.8153e-11
8.12731e-11
7.3132e-11
6.98795e-11
8.15551e-11
6.68123e-11
6.46802e-11
1.18788e-08
5.29827e-10
7.03435e-11
2.69465e-09
3.24935e-06
1.07046e-09
1.07185e-09
1.11892e-09
1.19273e-09
1.29107e-09
8.57919e-10
4.77629e-10
3.12699e-10
2.14682e-10
1.55483e-10
1.15733e-10
8.81679e-11
6.85371e-11
5.5179e-11
4.73436e-11
4.83961e-11
4.51592e-11
1.30183e-10
2.20619e-09
1.08856e-10
2.90195e-11
2.17812e-05
3.13609e-05
1.90943e-05
7.8165e-07
1.08112e-09
1.08114e-09
1.09461e-09
8.74921e-10
5.44175e-10
3.12596e-10
1.98479e-10
1.39504e-10
1.00229e-10
7.41669e-11
5.519e-11
4.09514e-11
3.17637e-11
2.74665e-11
2.49975e-11
6.59666e-11
2.34406e-11
1.54014e-11
2.4106e-11
3.18482e-05
3.19097e-05
3.18482e-05
4.35733e-06
2.18547e-09
1.1143e-08
1.30352e-09
8.37641e-10
5.59484e-10
3.09729e-10
1.82391e-10
1.22201e-10
8.19561e-11
5.67866e-11
4.03245e-11
2.88464e-11
2.12129e-11
1.63967e-11
1.33703e-11
2.01819e-11
1.72089e-11
1.22304e-11
9.20424e-12
2.88649e-05
3.18806e-05
2.52281e-05
3.89928e-06
8.32252e-09
1.30195e-08
8.62638e-10
7.82834e-10
5.71344e-10
3.20501e-10
1.76384e-10
1.04181e-10
6.4372e-11
4.18654e-11
2.83664e-11
1.96857e-11
1.39613e-11
1.01257e-11
7.52387e-12
6.8712e-12
5.48945e-12
4.01082e-12
2.99808e-12
2.91389e-06
1.19406e-05
2.27928e-06
1.07854e-06
7.09942e-08
5.92735e-09
3.04654e-10
5.82618e-10
4.52696e-10
2.29695e-10
1.36952e-10
8.03645e-11
4.84272e-11
3.03931e-11
1.97985e-11
1.3238e-11
9.00994e-12
6.20738e-12
4.31632e-12
3.12686e-12
2.22832e-12
1.56142e-12
1.10448e-12
1.27178e-08
3.04005e-08
7.92598e-09
2.36552e-09
2.48235e-08
2.43942e-09
2.54184e-10
2.663e-10
1.97758e-10
1.36287e-10
8.53727e-11
5.15822e-11
3.14574e-11
1.96174e-11
1.24976e-11
8.08317e-12
5.27638e-12
3.46131e-12
2.27595e-12
1.50418e-12
9.91582e-13
6.50887e-13
4.27671e-13
8.47176e-10
2.00355e-09
5.29767e-10
1.74514e-10
1.05665e-10
2.08526e-10
1.46303e-10
1.20765e-10
9.86617e-11
6.9377e-11
4.40482e-11
2.72548e-11
1.68467e-11
1.04765e-11
6.54923e-12
4.10351e-12
2.57031e-12
1.60678e-12
1.00156e-12
6.22517e-13
3.85421e-13
2.37569e-13
1.45941e-13
8.0146e-11
1.57334e-10
6.86563e-11
4.35724e-11
4.38865e-11
6.7815e-11
7.39998e-11
6.08099e-11
4.44738e-11
2.97675e-11
1.89161e-11
1.17484e-11
7.22696e-12
4.41959e-12
2.6866e-12
1.62189e-12
9.71832e-13
5.77937e-13
3.412e-13
2.00065e-13
1.16545e-13
6.74894e-14
3.89776e-14
2.26308e-11
2.93805e-11
2.50976e-11
3.18016e-11
3.65793e-11
3.59254e-11
3.0529e-11
2.3244e-11
1.61602e-11
1.0513e-11
6.56068e-12
3.99443e-12
2.39214e-12
1.41325e-12
8.24282e-13
4.74747e-13
2.70106e-13
1.51908e-13
8.45193e-14
4.65628e-14
2.5431e-14
1.38281e-14
7.64386e-15
1.69932e-11
1.8856e-11
2.17965e-11
1.64439e-11
1.45093e-11
1.23857e-11
9.79246e-12
7.03586e-12
4.67116e-12
2.9268e-12
1.76177e-12
1.03076e-12
5.89841e-13
3.31107e-13
1.82598e-13
9.90243e-14
5.28571e-14
2.77988e-14
1.44217e-14
7.39233e-15
3.76526e-15
1.9677e-15
1.23368e-15
3.81132e-12
6.93384e-12
5.40626e-12
4.56121e-12
3.96483e-12
3.23346e-12
2.40909e-12
1.63992e-12
1.03686e-12
6.196e-13
3.5477e-13
1.96413e-13
1.05712e-13
5.5483e-14
2.84555e-14
1.42849e-14
7.03034e-15
3.3974e-15
1.61567e-15
7.62278e-16
3.76574e-16
2.59077e-16
4.00251e-16
5.48568e-13
1.18687e-12
1.05558e-12
9.4332e-13
8.0604e-13
6.29041e-13
4.44565e-13
2.87155e-13
1.72251e-13
9.73712e-14
5.24443e-14
2.71125e-14
1.35164e-14
6.51833e-15
3.04854e-15
1.38613e-15
6.14257e-16
2.66315e-16
1.14458e-16
5.3742e-17
4.56243e-17
1.0508e-16
3.38329e-16
6.1491e-14
1.56596e-13
1.55997e-13
1.43841e-13
1.20388e-13
9.00945e-14
6.05936e-14
3.7131e-14
2.10468e-14
1.11712e-14
5.60064e-15
2.66742e-15
1.21126e-15
5.25868e-16
2.18893e-16
8.76445e-17
3.39582e-17
1.30172e-17
5.88497e-18
6.88806e-18
2.21098e-17
8.48206e-17
3.14257e-16
5.33255e-15
1.58327e-14
1.71865e-14
1.60658e-14
1.31187e-14
9.42276e-15
6.03683e-15
3.50419e-15
1.86813e-15
9.23624e-16
4.26117e-16
1.84107e-16
7.46451e-17
2.84441e-17
1.02172e-17
3.48266e-18
1.16345e-18
5.0848e-19
8.35484e-19
3.43017e-18
1.53255e-17
6.52479e-17
2.61862e-16
3.60184e-16
1.21967e-15
1.4034e-15
1.31058e-15
1.03944e-15
7.16149e-16
4.3676e-16
2.39483e-16
1.19376e-16
5.44543e-17
2.2801e-17
8.76776e-18
3.0948e-18
1.00209e-18
2.98872e-19
8.5227e-20
3.45159e-20
7.27108e-20
3.62334e-19
1.88298e-18
9.24744e-18
4.2651e-17
1.85455e-16
1.92653e-17
7.17503e-17
8.50651e-17
7.82151e-17
5.99184e-17
3.95146e-17
2.28907e-17
1.18037e-17
5.45841e-18
2.26925e-18
8.47186e-19
2.82895e-19
8.41169e-20
2.22159e-20
5.36939e-21
1.8276e-21
4.08116e-21
2.36348e-20
1.44546e-19
8.33151e-19
4.47424e-18
2.24875e-17
1.06611e-16
8.41298e-19
3.2737e-18
3.87168e-18
3.44687e-18
2.53153e-18
1.59178e-18
8.72313e-19
4.20145e-19
1.78264e-19
6.64395e-20
2.16037e-20
6.06597e-21
1.45696e-21
3.03302e-22
7.92728e-23
1.40585e-22
8.42911e-22
6.07649e-21
4.2387e-20
2.73221e-19
1.62631e-18
9.02235e-18
4.71816e-17
3.16129e-20
1.20304e-19
1.36181e-19
1.14872e-19
8.00269e-20
4.76637e-20
2.45346e-20
1.09204e-20
4.18447e-21
1.36699e-21
3.75336e-22
8.50362e-23
1.58585e-23
3.19097e-24
3.59011e-24
1.54578e-23
1.14825e-22
9.94983e-22
8.10588e-21
5.99458e-20
4.05028e-19
2.53287e-18
1.48709e-17
1.11408e-21
3.81757e-21
3.92028e-21
3.04569e-21
1.98179e-21
1.10531e-21
5.27733e-22
2.13391e-22
7.21197e-23
2.00033e-23
4.45025e-24
7.79415e-25
1.29987e-25
9.43666e-26
2.55001e-25
9.00635e-25
7.70147e-24
8.40453e-23
8.37423e-22
7.42806e-21
5.93463e-20
4.33729e-19
2.94752e-18
4.21003e-23
1.14272e-22
1.01392e-22
7.05471e-23
4.20917e-23
2.15529e-23
9.32007e-24
3.3244e-24
9.56047e-25
2.15236e-25
3.68497e-26
5.48479e-27
2.9954e-27
6.21475e-27
1.18475e-26
2.15747e-26
1.69588e-25
2.46328e-24
3.25378e-23
3.76314e-22
3.85806e-21
3.56052e-20
3.00955e-19
1.92684e-24
3.3962e-24
2.61527e-24
1.64587e-24
8.89115e-25
4.04299e-25
1.51302e-25
4.52167e-26
1.04525e-26
1.79039e-27
2.46557e-28
1.18408e-28
2.07612e-28
3.38526e-28
3.42168e-28
2.27832e-28
4.92424e-28
9.80056e-27
2.04032e-25
3.67766e-24
5.8012e-23
8.1188e-22
1.02224e-20
1.05987e-25
9.32063e-26
6.96778e-26
4.29156e-26
2.11045e-26
8.20092e-27
2.48589e-27
5.74873e-28
9.81446e-29
1.2509e-29
4.56652e-30
8.37641e-30
1.21413e-29
1.22672e-29
5.00845e-30
1.13736e-30
1.77309e-31
6.98531e-32
2.791e-30
1.37077e-28
5.91163e-27
2.27847e-25
7.98122e-24
0.999988
0.999977
0.999845
0.999452
0.782468
0.759362
0.727549
0.739688
0.0141416
0.0189531
0.0456344
0.0957413
0.00338309
0.00370021
0.00426489
0.00487821
0.00342709
0.00360228
0.00366477
0.00367304
0.00360083
0.00348545
0.00353784
0.00351936
0.00675209
0.00345367
0.00348545
0.00347102
0.0189565
0.0190713
0.0183501
0.0110607
0.00728035
0.0168817
0.0178267
0.017028
0.000141081
0.000679947
0.000983495
0.000907889
1.46074e-06
6.85621e-07
3.91017e-07
3.11937e-07
6.86074e-07
7.7941e-08
3.95351e-08
1.27524e-07
4.00107e-05
3.95309e-08
2.32209e-08
1.29216e-07
0.000103862
7.93565e-06
2.33533e-08
8.72743e-08
0.000103699
3.72869e-05
2.31316e-08
1.89073e-08
6.59862e-05
1.55165e-05
1.88785e-08
3.13988e-09
4.40227e-06
5.42753e-07
2.99458e-09
3.51393e-10
5.43186e-09
1.05543e-09
2.46749e-10
1.08458e-10
2.67158e-10
1.05802e-10
1.02748e-10
8.87799e-11
5.10315e-11
6.1464e-11
8.65956e-11
7.91208e-11
3.58175e-11
5.24251e-11
5.03943e-11
4.98161e-11
2.37168e-11
2.24243e-11
2.2789e-11
2.48397e-11
8.15201e-12
7.73457e-12
8.01408e-12
8.90716e-12
2.62338e-12
2.41334e-12
2.37523e-12
2.49904e-12
9.29644e-13
8.00809e-13
7.15847e-13
6.72242e-13
3.43355e-13
2.77694e-13
2.27965e-13
1.9208e-13
1.12415e-13
8.6771e-14
6.73708e-14
5.30096e-14
2.89649e-14
2.16335e-14
1.63301e-14
1.25903e-14
5.6118e-15
4.26207e-15
3.42903e-15
3.00773e-15
1.06922e-15
1.06332e-15
1.20489e-15
1.50124e-15
5.28202e-16
7.32959e-16
1.03711e-15
1.47445e-15
4.99373e-16
7.35379e-16
1.07829e-15
1.57297e-15
4.73318e-16
7.09533e-16
1.05938e-15
1.57671e-15
4.00105e-16
6.09328e-16
9.26932e-16
1.41237e-15
2.87322e-16
4.44854e-16
6.91721e-16
1.08778e-15
1.67568e-16
2.64539e-16
4.24223e-16
7.02485e-16
7.53933e-17
1.22408e-16
2.07266e-16
3.78341e-16
2.43034e-17
4.15802e-17
7.87461e-17
1.72235e-16
5.02747e-18
9.74551e-18
2.32617e-17
6.71871e-17
5.81819e-19
1.55437e-18
5.40965e-18
2.16429e-17
3.18053e-20
1.57549e-19
8.21392e-19
4.95596e-18
1.45087e-22
2.07037e-21
2.91456e-20
5.63229e-19
0.998773
0.997263
0.996665
0.996418
0.996394
0.996378
0.991898
0.992705
0.889594
0.689544
0.687191
0.693947
0.829995
0.896163
0.892843
0.89078
0.977989
0.989797
0.990422
0.873779
0.96997
0.996465
0.99642
0.991767
0.945579
0.924474
0.951021
0.948533
0.839429
0.687464
0.687191
0.684077
0.687992
0.712925
0.898315
0.981777
0.98937
0.98811
0.256263
0.474458
0.619135
0.687389
0.697501
0.686258
0.72869
0.829794
0.878437
0.883053
0.88302
0.854389
0.668139
0.896777
0.897248
0.913301
0.940045
0.888065
0.793642
0.00656725
0.0141107
0.0391947
0.0643828
0.090812
0.119553
0.142531
0.175722
0.346166
0.566392
0.661311
0.677495
0.680002
0.64819
0.625459
0.504033
0.340971
0.218856
0.121647
0.00395227
0.00467433
0.00521403
0.0057195
0.00626405
0.00848371
0.0110988
0.0122266
0.0126489
0.0129489
0.0642691
0.124276
0.147101
0.12707
0.0823187
0.0406391
0.00656836
3.89504e-05
0.0001191
0.00363585
0.00406783
0.00476075
0.0053208
0.00577064
0.0080407
0.010652
0.0119647
0.0127591
0.0128284
0.0102515
0.00565885
0.000700001
0.000996681
2.75369e-05
2.75737e-05
2.88188e-05
3.49414e-05
0.000236141
0.00349978
0.00363725
0.00938578
0.0252447
0.0269868
0.027662
0.0280505
0.0281882
0.0281882
0.0281882
0.0239709
0.0113172
0.000108044
2.79503e-05
2.75369e-05
2.79473e-05
2.8001e-05
4.1298e-05
0.000347206
0.0201213
0.02566
0.0264281
0.0264929
0.0265213
0.0253842
0.0227822
0.0215134
0.0205447
0.0161044
0.00898235
0.010908
0.00128158
2.79503e-05
2.79512e-05
2.79512e-05
2.80203e-05
4.86043e-05
0.000228921
0.0137201
0.016648
0.0152911
0.00896779
0.00424273
0.00241891
0.00135736
0.000524364
2.29192e-05
2.12456e-05
2.12977e-05
2.0708e-05
7.56915e-05
2.86018e-05
2.79512e-05
2.77891e-05
6.98759e-05
0.000146306
7.55307e-05
0.00050616
0.000334678
0.000154253
0.000176175
0.000127709
0.000117033
0.000117536
0.000116808
0.000116842
5.94327e-05
2.0708e-05
2.02409e-05
0.000165093
3.53335e-05
2.79811e-05
3.20535e-05
0.000154448
0.000154471
8.42387e-05
2.62386e-07
8.18362e-07
4.1354e-05
0.000272704
0.000282954
0.000281852
0.000264917
0.000241485
0.000276014
0.000276069
3.6462e-05
1.62547e-05
0.000118887
3.69091e-05
2.81699e-05
9.54151e-05
0.000154472
0.000154448
0.000153136
1.59577e-07
1.74022e-07
2.30589e-05
0.000222408
0.000283046
0.000282954
0.000282675
0.000282469
0.000279265
0.000276014
5.25349e-05
1.25844e-05
1.11304e-05
1.87745e-05
4.02769e-05
0.000154147
0.000154448
0.000151918
5.79573e-05
1.40503e-07
1.58413e-07
2.74692e-07
3.41005e-07
0.000102462
0.000273941
0.000282103
0.000146207
0.000119551
0.000198257
0.000113518
8.81313e-05
1.0253e-05
6.93359e-06
7.16996e-05
0.000154231
0.000154233
3.44263e-05
5.77248e-06
4.70633e-06
1.10703e-05
8.52098e-06
3.73212e-06
3.87318e-06
1.39787e-05
5.09808e-05
1.66642e-07
2.59567e-07
4.40675e-05
0.000166447
0.000166447
3.78242e-05
2.18243e-07
4.45647e-05
0.000149816
0.000117722
5.10979e-06
5.31149e-06
1.09538e-05
2.8496e-05
2.84999e-05
1.48865e-05
4.89939e-06
1.69497e-07
1.66521e-07
1.66684e-07
7.90811e-07
3.25104e-05
0.000142751
0.000159924
7.03816e-05
2.1829e-07
2.9291e-06
1.819e-05
5.70815e-08
4.87324e-06
4.94129e-05
8.91882e-06
2.84994e-05
2.85047e-05
2.85024e-05
2.38083e-05
4.50208e-06
1.69499e-07
3.36629e-07
1.13784e-06
4.71848e-08
4.58958e-08
3.39957e-06
3.17138e-06
2.29014e-07
8.41838e-06
5.56815e-08
1.53704e-08
7.93623e-06
6.00274e-05
5.7015e-07
2.29693e-05
2.85e-05
2.85047e-05
2.85e-05
2.84989e-05
4.58688e-06
4.90661e-08
4.92421e-08
4.51647e-08
4.28223e-08
4.25017e-08
4.28214e-08
3.7242e-07
8.39108e-06
1.54678e-07
2.33398e-10
8.92637e-06
6.00274e-05
1.3438e-10
1.98796e-06
2.49861e-05
2.85e-05
2.85025e-05
2.84869e-05
1.34279e-05
5.08253e-08
4.88232e-08
8.08811e-08
1.73388e-07
4.28239e-08
4.25028e-08
4.64236e-07
2.47757e-07
1.06726e-08
2.07119e-10
5.65849e-06
6.00202e-05
5.79753e-11
4.90504e-11
1.00932e-06
1.58e-05
2.84987e-05
2.84719e-05
1.22361e-05
5.5491e-08
5.08387e-08
7.82146e-07
1.15592e-06
6.15691e-07
1.07258e-07
3.45945e-10
2.65587e-10
2.09474e-10
2.07585e-10
3.32257e-06
5.99766e-05
5.58558e-11
3.99518e-11
3.64049e-11
3.67569e-11
8.28352e-07
2.9651e-06
2.50532e-06
3.98601e-07
7.19303e-08
1.15592e-06
1.15592e-06
1.15592e-06
4.24654e-07
5.14339e-10
3.95828e-10
1.14901e-09
2.07587e-10
2.54881e-06
5.96861e-05
5.01325e-11
4.15289e-11
3.64045e-11
4.31651e-11
2.59087e-11
2.58558e-11
2.58319e-11
2.58318e-11
3.24967e-07
1.15462e-06
1.15592e-06
1.15561e-06
3.68139e-07
1.14411e-09
8.63777e-10
1.15423e-09
2.06777e-10
1.99401e-06
5.93597e-05
3.17434e-11
3.32861e-11
3.31513e-11
2.92202e-11
2.76788e-11
2.87894e-11
2.81902e-11
2.58339e-11
1.07724e-08
4.54654e-07
1.15462e-06
4.83756e-07
2.37159e-08
6.66228e-09
5.51569e-09
8.28636e-10
1.97267e-10
2.79469e-07
5.78205e-05
1.30486e-11
1.64684e-11
1.87597e-11
2.03681e-11
2.24663e-11
2.62065e-11
3.12648e-11
3.498e-11
3.395e-11
3.15872e-11
3.50062e-07
4.53784e-07
1.80703e-07
1.19427e-07
3.41128e-08
2.00225e-10
1.79392e-10
1.97302e-10
2.35562e-05
3.686e-12
5.28114e-12
7.5208e-12
1.06468e-11
1.47141e-11
1.97406e-11
2.51903e-11
3.25576e-11
3.53873e-11
3.0371e-11
3.03115e-11
7.00018e-08
1.94913e-07
1.94872e-07
7.04352e-08
1.79972e-10
1.33252e-10
1.77745e-10
1.281e-05
8.30622e-13
1.23617e-12
2.15678e-12
3.92403e-12
7.02185e-12
1.19633e-11
1.80604e-11
2.41194e-11
2.98894e-11
3.06308e-11
3.03115e-11
3.03116e-11
3.123e-08
3.90316e-08
2.3853e-08
2.25762e-09
9.49854e-11
5.26384e-08
4.0531e-05
1.77559e-13
2.41849e-13
4.95092e-13
1.15749e-12
2.64971e-12
5.51139e-12
9.63094e-12
1.43477e-11
1.90641e-11
2.39061e-11
2.85898e-11
3.10452e-11
3.10466e-11
3.12722e-11
3.18448e-11
2.74508e-10
9.20413e-11
2.47212e-06
4.05392e-05
3.95453e-14
4.74228e-14
1.07865e-13
3.14235e-13
8.85503e-13
2.17108e-12
4.35892e-12
7.35699e-12
1.104e-11
1.60466e-11
2.28229e-11
3.00025e-11
3.89735e-11
4.81351e-11
6.58759e-11
9.16354e-11
9.20067e-11
6.83543e-06
4.05392e-05
9.89193e-15
1.40913e-14
3.46034e-14
1.05728e-13
3.21354e-13
8.64887e-13
1.94129e-12
3.69629e-12
6.2906e-12
1.0296e-11
1.61444e-11
2.50615e-11
3.91426e-11
5.54427e-11
9.94586e-11
1.13592e-10
9.20404e-11
7.76558e-06
4.05392e-05
4.35578e-15
9.79503e-15
2.47762e-14
6.53646e-14
1.75135e-13
4.50048e-13
1.04176e-12
2.13846e-12
3.99723e-12
7.1176e-12
1.20644e-11
1.98674e-11
3.2139e-11
5.09193e-11
9.34813e-11
1.10123e-10
9.24339e-11
3.19198e-06
4.05237e-05
4.01999e-15
1.07818e-14
2.72744e-14
6.59244e-14
1.55296e-13
3.56771e-13
7.81858e-13
1.60319e-12
3.08514e-12
5.67461e-12
9.98491e-12
1.69845e-11
2.81555e-11
4.5743e-11
9.7036e-11
1.23471e-10
9.29869e-11
3.84934e-08
4.04176e-05
4.74744e-15
1.35549e-14
3.46255e-14
8.11153e-14
1.79072e-13
3.79376e-13
7.74639e-13
1.51841e-12
2.85728e-12
5.19609e-12
9.14705e-12
1.56992e-11
2.63686e-11
4.33362e-11
1.08322e-10
1.79655e-10
9.43809e-11
9.60692e-11
3.14911e-05
5.94848e-15
1.87332e-14
4.93118e-14
1.13518e-13
2.38789e-13
4.74194e-13
9.05289e-13
1.67345e-12
3.00628e-12
5.27416e-12
9.07796e-12
1.55164e-11
2.6233e-11
4.36369e-11
1.18039e-10
2.22778e-10
9.67679e-11
1.00682e-10
9.76032e-06
7.71175e-15
2.83604e-14
7.8749e-14
1.80381e-13
3.6465e-13
6.81748e-13
1.2148e-12
2.09789e-12
3.54315e-12
5.89744e-12
9.79332e-12
1.65908e-11
2.79218e-11
4.78899e-11
1.75956e-10
2.2465e-10
9.94947e-11
3.01464e-06
2.20923e-05
9.85954e-15
4.33054e-14
1.30321e-13
3.0633e-13
6.13031e-13
1.10439e-12
1.86002e-12
3.00462e-12
4.73602e-12
7.38851e-12
1.17055e-11
1.93553e-11
3.14686e-11
5.50299e-11
2.34718e-10
2.93032e-10
1.02848e-10
1.03099e-05
2.73827e-05
1.16035e-14
6.00943e-14
2.00474e-13
5.03441e-13
1.04216e-12
1.88081e-12
3.0806e-12
4.7312e-12
7.00646e-12
1.02574e-11
1.54207e-11
2.43203e-11
3.69852e-11
6.38993e-11
3.14238e-10
4.72521e-10
1.07184e-10
3.73367e-06
2.73626e-05
1.19105e-14
7.03175e-14
2.65357e-13
7.44989e-13
1.67712e-12
3.16859e-12
5.22395e-12
7.80731e-12
1.10242e-11
1.53591e-11
2.21681e-11
3.32334e-11
4.69921e-11
8.10005e-11
4.96971e-10
6.34875e-10
1.15153e-10
1.11026e-06
3.29468e-06
1.00904e-14
6.63892e-14
2.93075e-13
9.70215e-13
2.51194e-12
5.21805e-12
9.01646e-12
1.35294e-11
1.85527e-11
2.48627e-11
3.49985e-11
5.15485e-11
7.09046e-11
1.25928e-10
6.5209e-10
1.21707e-09
7.00807e-10
4.125e-10
4.12498e-10
6.60939e-15
4.93281e-14
2.66294e-13
1.09661e-12
3.43687e-12
8.19791e-12
1.53997e-11
2.39516e-11
3.26683e-11
4.23261e-11
5.84136e-11
8.94616e-11
1.32166e-10
3.24907e-10
1.0979e-09
1.31779e-09
9.442e-10
4.32825e-10
1.23172e-09
3.1277e-15
2.82219e-14
1.92996e-13
1.02582e-12
4.07418e-12
1.13654e-11
2.37564e-11
3.93382e-11
5.50025e-11
7.02245e-11
9.39671e-11
1.48199e-10
2.80531e-10
7.24572e-10
1.1626e-09
1.23829e-09
6.36916e-10
3.99722e-10
2.62751e-09
1.0209e-15
1.25505e-14
1.15763e-13
8.00313e-13
4.0816e-12
1.31972e-11
3.09618e-11
5.58693e-11
8.17392e-11
1.06451e-10
1.42355e-10
2.08615e-10
3.97349e-10
8.08773e-10
9.42464e-10
6.22135e-10
3.94423e-10
3.96093e-10
1.86612e-09
2.16928e-16
4.24772e-15
5.49642e-14
5.01169e-13
3.30625e-12
1.22229e-11
3.32307e-11
6.78629e-11
1.11651e-10
1.49846e-10
1.97323e-10
2.86643e-10
3.45852e-10
5.70461e-10
4.28228e-09
6.26176e-10
3.35715e-07
7.98217e-08
1.9068e-09
2.50452e-17
8.90315e-16
1.6255e-14
1.86708e-13
1.90441e-12
8.26137e-12
2.87342e-11
6.66561e-11
1.3055e-10
2.17818e-10
2.89231e-10
3.82565e-10
4.31173e-10
4.31733e-10
4.33123e-10
2.45066e-07
8.5197e-07
8.51969e-07
2.20378e-07
)
;

boundaryField
{
    leftWall
    {
        type            zeroGradient;
    }
    rightWall
    {
        type            zeroGradient;
    }
    lowerWall
    {
        type            zeroGradient;
    }
    atmosphere
    {
        type            inletOutlet;
        inletValue      uniform 0;
        value           nonuniform List<scalar> 
46
(
1.05987e-25
9.32063e-26
6.96778e-26
4.29156e-26
2.11045e-26
8.20092e-27
2.48589e-27
5.74873e-28
9.81446e-29
1.2509e-29
4.56652e-30
8.37641e-30
0
0
0
0
0
0
0
0
0
0
0
0
0
0
0
0
0
0
0
0
0
0
0
0
0
0
0
0
4.31733e-10
4.33123e-10
2.45066e-07
8.5197e-07
8.51969e-07
2.20378e-07
)
;
    }
    defaultFaces
    {
        type            empty;
    }
}


// ************************************************************************* //
