/*--------------------------------*- C++ -*----------------------------------*\
| =========                 |                                                 |
| \\      /  F ield         | OpenFOAM: The Open Source CFD Toolbox           |
|  \\    /   O peration     | Version:  2.3.0                                 |
|   \\  /    A nd           | Web:      www.OpenFOAM.org                      |
|    \\/     M anipulation  |                                                 |
\*---------------------------------------------------------------------------*/
FoamFile
{
    version     2.0;
    format      ascii;
    class       volScalarField;
    location    "2.2";
    object      epsilon;
}
// * * * * * * * * * * * * * * * * * * * * * * * * * * * * * * * * * * * * * //

dimensions      [0 2 -3 0 0 0 0];

internalField   nonuniform List<scalar> 
2268
(
0.00741303
0.0321165
0.0566605
0.0800878
0.102613
0.124673
0.146673
0.169101
0.192226
0.216357
0.241853
0.268936
0.297502
0.326827
0.355159
0.379331
0.39508
0.398283
0.378885
0.338084
0.269205
0.165602
0.0438768
0.01263
0.0215933
0.032361
0.0428599
0.052991
0.0628306
0.0725166
0.0822546
0.0922337
0.102671
0.113805
0.125825
0.138774
0.15242
0.16609
0.178555
0.188185
0.193296
0.190969
0.177508
0.14912
0.108819
0.0774715
0.0194284
0.0219532
0.0296802
0.0376073
0.0453433
0.0528798
0.0603123
0.0677998
0.0755259
0.0837001
0.0925489
0.102261
0.112909
0.124348
0.136095
0.147253
0.156611
0.162896
0.164254
0.158409
0.14396
0.124785
0.136211
0.0256953
0.0238781
0.0300808
0.0368918
0.0436695
0.0503411
0.0569829
0.063746
0.0708228
0.0784303
0.0868009
0.0961314
0.106512
0.11783
0.129663
0.141191
0.151363
0.159113
0.163191
0.162465
0.157367
0.15382
0.207974
0.0316571
0.0263478
0.0315299
0.037693
0.0439739
0.0502465
0.056577
0.0631216
0.0700892
0.0777117
0.0862364
0.0958758
0.106736
0.118725
0.131431
0.144024
0.155552
0.165077
0.171848
0.175756
0.179111
0.192195
0.302524
0.0375309
0.0291053
0.033505
0.0392368
0.0452341
0.0513255
0.057574
0.0641478
0.0712775
0.0792153
0.0882298
0.0985548
0.110317
0.123443
0.137482
0.151599
0.164859
0.176431
0.185965
0.194401
0.206307
0.239464
0.425315
0.043486
0.0320683
0.0358116
0.0412316
0.0470639
0.0530988
0.059401
0.0661559
0.0736196
0.0820678
0.0917962
0.103065
0.116023
0.130621
0.146344
0.162344
0.177627
0.191433
0.203759
0.216505
0.236861
0.295031
0.61878
0.049689
0.0352245
0.0383671
0.0435437
0.0492835
0.0553428
0.0617914
0.0688352
0.0767589
0.0858632
0.0964749
0.108885
0.123271
0.139603
0.157311
0.175506
0.19305
0.209188
0.224247
0.240715
0.26794
0.352206
1.07909
0.0714819
0.177555
0.290551
0.364081
0.389239
0.398492
0.401836
0.387148
0.332563
0.248791
0.177005
0.135201
0.104897
0.0770118
0.0602479
0.0589336
0.0624508
0.0587028
0.0266375
0.0782213
0.123588
0.165555
0.191723
0.199265
0.199204
0.196047
0.187207
0.167439
0.140364
0.111665
0.0855929
0.0651479
0.0499397
0.0400523
0.0355937
0.0352019
0.0365493
0.0321694
0.103929
0.118236
0.153208
0.171529
0.174211
0.170642
0.164536
0.15463
0.138886
0.119907
0.099835
0.0796273
0.0622822
0.0487464
0.0397819
0.0359802
0.0370364
0.0415852
0.0455021
0.116929
0.12349
0.159002
0.173373
0.172181
0.165486
0.156724
0.144982
0.129545
0.112849
0.096043
0.0790593
0.0635634
0.0509761
0.0427282
0.039786
0.0420583
0.0479935
0.0581119
0.121456
0.135949
0.174082
0.183792
0.178012
0.1678
0.156222
0.142359
0.126216
0.110197
0.0949622
0.0799806
0.0659083
0.0543525
0.0470814
0.0451036
0.048068
0.0542248
0.0699839
0.127484
0.157964
0.196828
0.199289
0.18763
0.173347
0.158738
0.142625
0.125433
0.109554
0.0952483
0.0816229
0.0687796
0.0583686
0.0521942
0.051188
0.0543435
0.0601391
0.080929
0.162626
0.194942
0.225893
0.21778
0.199005
0.180201
0.16244
0.144084
0.125826
0.110014
0.0964396
0.0838402
0.0721314
0.0628779
0.0576945
0.0573636
0.0602918
0.0654021
0.0906162
0.298995
0.251456
0.25834
0.236766
0.21051
0.187111
0.16626
0.145807
0.126676
0.111172
0.0984145
0.0867062
0.0760329
0.0678581
0.0634163
0.063282
0.065485
0.0696868
0.0987586
0.0600444
0.040487
0.042704
0.0475535
0.0532191
0.0594046
0.0661915
0.0738188
0.0826039
0.0928947
0.105072
0.119481
0.136349
0.155678
0.176868
0.198929
0.220335
0.240213
0.259235
0.28027
0.311486
0.37926
0.59162
0.0755396
0.0484531
0.0494092
0.053853
0.059528
0.0660639
0.0735662
0.0823274
0.0926491
0.104948
0.119704
0.137341
0.158168
0.182258
0.209311
0.238108
0.265612
0.290274
0.313027
0.336141
0.363623
0.404131
0.477447
0.0992494
0.0588647
0.0575036
0.0612118
0.0668514
0.0738112
0.0822176
0.092483
0.104669
0.119266
0.136915
0.158092
0.183109
0.212376
0.246783
0.285366
0.320362
0.349278
0.374603
0.397946
0.419515
0.43931
0.465687
0.130926
0.0716472
0.0667411
0.0695978
0.0753275
0.0827935
0.0922271
0.104497
0.118697
0.135828
0.156695
0.18161
0.210536
0.244826
0.289251
0.34509
0.384948
0.414417
0.439984
0.462395
0.47665
0.471275
0.458614
0.167293
0.081007
0.073249
0.0759153
0.0820815
0.0902335
0.100519
0.11429
0.13095
0.150812
0.174997
0.202975
0.234269
0.272663
0.328853
0.39176
0.414743
0.432721
0.451824
0.468026
0.471253
0.453793
0.435921
0.159544
0.0814353
0.0772812
0.0811339
0.0864341
0.0946277
0.105881
0.120568
0.139581
0.162736
0.188758
0.217
0.247132
0.284721
0.334843
0.37878
0.404384
0.418871
0.429657
0.434856
0.430331
0.417037
0.405221
0.14702
0.0795531
0.0778694
0.0823438
0.088699
0.0979591
0.11024
0.126209
0.147216
0.171183
0.196419
0.222869
0.251204
0.286378
0.326616
0.356736
0.386271
0.409349
0.422037
0.420093
0.409569
0.396004
0.3842
0.132074
0.0777336
0.0765524
0.0815275
0.0891173
0.0996894
0.113237
0.129809
0.149925
0.171417
0.194319
0.219368
0.247209
0.280371
0.315301
0.336378
0.356961
0.378117
0.398532
0.41293
0.413949
0.39412
0.371547
0.128271
0.0785985
0.076498
0.0810475
0.0885988
0.0990812
0.112491
0.128491
0.146752
0.166436
0.18842
0.213158
0.239197
0.267336
0.295417
0.312991
0.326338
0.340691
0.357871
0.377466
0.396044
0.387554
0.359714
0.133112
0.0815117
0.07775
0.081072
0.0876245
0.0969285
0.108914
0.123288
0.139699
0.158085
0.179939
0.205732
0.230295
0.253325
0.274773
0.289522
0.298651
0.307931
0.319686
0.332846
0.344388
0.345264
0.334285
0.143237
0.0853672
0.0795679
0.0814292
0.0865896
0.0943252
0.104475
0.116875
0.131378
0.148243
0.168697
0.193362
0.218242
0.239322
0.255899
0.266893
0.272934
0.278639
0.28642
0.294406
0.298847
0.297341
0.290541
0.155013
0.0891222
0.081265
0.0817481
0.0855877
0.0918295
0.100248
0.110764
0.12337
0.138321
0.15629
0.177484
0.19993
0.220148
0.235004
0.243775
0.248137
0.251968
0.257491
0.262478
0.263504
0.259676
0.251931
0.167188
0.0923975
0.0824468
0.0817019
0.0844359
0.0894403
0.0964152
0.105294
0.116098
0.128968
0.144162
0.161588
0.180052
0.197345
0.210924
0.219347
0.223897
0.227568
0.231857
0.234902
0.234308
0.229618
0.221644
0.177941
0.0948064
0.0828894
0.0810728
0.0829019
0.0869289
0.0927491
0.100254
0.109429
0.120302
0.132892
0.146978
0.161759
0.175827
0.187516
0.195715
0.2009
0.20477
0.208134
0.209859
0.208511
0.203781
0.19642
0.184593
0.0957379
0.0823619
0.0797111
0.080828
0.0840856
0.0889815
0.0953462
0.10311
0.112221
0.122581
0.133939
0.145738
0.157083
0.166921
0.174474
0.179777
0.183559
0.186205
0.187145
0.185573
0.181301
0.174911
0.186478
0.095006
0.0807896
0.077569
0.0781485
0.0807983
0.0849455
0.090366
0.0969436
0.104576
0.113121
0.122341
0.131834
0.141017
0.149216
0.155877
0.16084
0.164324
0.166469
0.166991
0.165473
0.161848
0.15657
0.183558
0.0926279
0.0781968
0.0746708
0.074873
0.0770465
0.0805828
0.0852221
0.0908176
0.0972424
0.104345
0.111913
0.119647
0.127146
0.133957
0.139678
0.144093
0.147192
0.148984
0.149319
0.148011
0.14508
0.140857
0.176108
0.0887206
0.0746645
0.0710842
0.0710569
0.0728682
0.0759074
0.0799012
0.0846888
0.0901364
0.0960983
0.102393
0.108778
0.114965
0.120635
0.125487
0.129312
0.13202
0.133563
0.133857
0.132832
0.130551
0.127255
0.164702
0.0834755
0.0703128
0.0669033
0.0667803
0.0683305
0.0709709
0.0744332
0.0785569
0.0832123
0.0882678
0.0935593
0.0988946
0.104055
0.108802
0.112908
0.116196
0.118557
0.119929
0.120261
0.119538
0.117833
0.115321
0.150299
0.0771602
0.0652954
0.0622417
0.0621374
0.0635155
0.0658431
0.0688713
0.0724496
0.0764609
0.0807788
0.0852668
0.08977
0.0941165
0.0981239
0.101618
0.104453
0.106531
0.107792
0.108204
0.107773
0.106567
0.104713
0.133899
0.0700947
0.0597978
0.0572309
0.0572353
0.0585169
0.0606069
0.0632858
0.0664165
0.069891
0.0736032
0.0774391
0.081273
0.0849683
0.0883839
0.0913847
0.0938564
0.0957158
0.0969118
0.0974232
0.0972629
0.0964858
0.0951834
0.117613
0.0627862
0.0540479
0.0520259
0.052198
0.0534427
0.0553573
0.0577528
0.0605122
0.063543
0.0667562
0.0700585
0.0733489
0.0765198
0.0794614
0.0820696
0.0842551
0.0859509
0.0871153
0.0877326
0.0878149
0.0874038
0.0865644
0.101743
0.0553304
0.0481939
0.0467656
0.0471517
0.0484046
0.0501934
0.0523633
0.0548187
0.0574837
0.0602863
0.0631516
0.0659998
0.0687472
0.0713091
0.0736057
0.0755678
0.0771425
0.078296
0.0790154
0.0793091
0.0792066
0.078753
0.0862358
0.0479877
0.0424319
0.0416056
0.0422291
0.0435234
0.0452277
0.0472223
0.0494329
0.0517999
0.0542672
0.0567764
0.0592659
0.0616716
0.0639291
0.0659777
0.0677643
0.0692474
0.0703996
0.0712092
0.0716803
0.0718323
0.0716953
0.0717216
0.0411038
0.0369968
0.0367226
0.0375778
0.0389328
0.0405861
0.0424485
0.0444655
0.0465932
0.0487894
0.0510104
0.05321
0.0553401
0.0573525
0.0592017
0.0608472
0.0622566
0.0634076
0.064289
0.0649013
0.0652558
0.0653715
0.0592952
0.035011
0.0321411
0.032321
0.0333722
0.0347879
0.0364096
0.0381719
0.0400365
0.0419728
0.0439507
0.0459388
0.0479036
0.04981
0.0516226
0.0533077
0.0548348
0.0561788
0.0573213
0.0582518
0.058968
0.0594752
0.0597843
0.0498971
0.0300841
0.02812
0.0286187
0.0298023
0.0312545
0.0328454
0.0345244
0.0362641
0.0380439
0.0398434
0.0416408
0.0434128
0.0451342
0.0467799
0.0483251
0.0497471
0.0510266
0.0521486
0.0531033
0.0538865
0.0544993
0.0549471
0.0438255
0.0265724
0.025126
0.0257902
0.0270276
0.0284765
0.0300217
0.0316193
0.0332481
0.0348933
0.0365413
0.0381777
0.0397863
0.0413502
0.0428512
0.0442718
0.0455952
0.0468065
0.0478935
0.0488474
0.0496628
0.0503384
0.0508755
0.0407776
0.0245147
0.0232361
0.0239255
0.0251429
0.0265465
0.0280246
0.0295341
0.0310554
0.0325771
0.0340899
0.035584
0.0370489
0.038473
0.0398438
0.0411487
0.0423754
0.0435126
0.0445502
0.0454802
0.0462972
0.0469978
0.047581
0.0402151
0.023797
0.0224255
0.0230353
0.0241772
0.025502
0.0268931
0.0283044
0.0297163
0.0311186
0.0325045
0.0338674
0.0352006
0.0364962
0.0377457
0.03894
0.04007
0.0411269
0.0421024
0.0429894
0.0437822
0.0444765
0.0450696
0.041668
0.0242572
0.0226236
0.0230887
0.0241199
0.0253431
0.0266314
0.0279349
0.0292328
0.0305155
0.0317779
0.0330157
0.0342244
0.0353987
0.0365326
0.0376195
0.0386525
0.0396243
0.0405282
0.0413575
0.0421064
0.0427698
0.0433443
0.0448644
0.0257734
0.0237718
0.0240556
0.0249552
0.0260603
0.0272323
0.0284175
0.0295945
0.0307547
0.0318938
0.0330091
0.0340975
0.0351553
0.0361779
0.0371602
0.0380965
0.0389808
0.039807
0.0405688
0.0412602
0.041876
0.0424118
0.0497638
0.0283164
0.0258657
0.025942
0.0266904
0.0276586
0.0286967
0.0297492
0.0307951
0.0318264
0.0328399
0.0338332
0.0348038
0.0357486
0.0366636
0.0375444
0.0383858
0.0391825
0.0399286
0.0406178
0.0412435
0.0417997
0.042281
0.0565745
0.0319795
0.0289826
0.0288106
0.0293727
0.0301706
0.0310461
0.0319433
0.0328422
0.0337353
0.0346185
0.035489
0.0363436
0.0371785
0.0379898
0.0387728
0.0395227
0.0402341
0.0409005
0.0415141
0.0420688
0.042558
0.0429754
0.0657966
0.0370044
0.0332997
0.0327912
0.0330926
0.0336577
0.0343221
0.0350301
0.0357607
0.0365038
0.0372523
0.0379999
0.038741
0.0394702
0.0401824
0.0408726
0.0415357
0.0421649
0.0427513
0.0432893
0.043772
0.0441922
0.0445423
0.0783287
0.0438262
0.039111
0.0380764
0.0379698
0.0381928
0.038572
0.0390457
0.0395848
0.0401696
0.0407841
0.0414145
0.0420495
0.0426802
0.0433001
0.0439038
0.0444848
0.0450328
0.0455426
0.0460078
0.0464211
0.0467744
0.0470589
0.0956936
0.053154
0.0468307
0.0448865
0.0441062
0.0438157
0.0438101
0.0440011
0.0443348
0.044769
0.0452682
0.0458038
0.0463536
0.046902
0.0474411
0.0479661
0.0484665
0.0489382
0.0493759
0.049773
0.0501218
0.0504135
0.0506383
0.120461
0.0660724
0.0569358
0.0533648
0.0514835
0.0504456
0.0499453
0.049822
0.0499677
0.0502978
0.0507428
0.0512472
0.0517678
0.0522723
0.0527524
0.0532043
0.0536306
0.0540309
0.0544012
0.0547353
0.0550255
0.0552628
0.0554368
0.156874
0.0840381
0.0697461
0.063361
0.0597946
0.0577508
0.0566719
0.0562492
0.0562837
0.0566268
0.0571595
0.0577863
0.0584221
0.0589777
0.0594368
0.059832
0.0601907
0.0605228
0.0608284
0.0611029
0.0613394
0.0615292
0.0616621
0.211211
0.108376
0.0849105
0.0741105
0.0682543
0.0650162
0.0633507
0.0627123
0.0627833
0.0633429
0.0642242
0.0652972
0.0664127
0.0672638
0.0677874
0.0681481
0.0684419
0.068704
0.0689428
0.0691566
0.0693403
0.0694864
0.0695858
0.289483
0.138313
0.100491
0.0839228
0.0755112
0.0711088
0.0689608
0.0682374
0.0685093
0.0695117
0.0710805
0.0731515
0.0756194
0.0774911
0.0782312
0.078568
0.0787858
0.0789656
0.0791266
0.0792706
0.0793947
0.0794938
0.0795611
0.378406
0.165167
0.111743
0.090154
0.0798455
0.0746765
0.0722565
0.0715418
0.0720445
0.0735079
0.0758649
0.0793784
0.0847282
0.0904309
0.0914361
0.0916674
0.0917619
0.0918288
0.0918872
0.0919397
0.0919853
0.0920221
0.0920474
1.61985
1.25954
1.07353
0.979509
0.580458
0.601388
0.601554
0.579769
0.518106
0.547666
0.544524
0.51632
0.476887
0.486483
0.48607
0.47234
0.437624
0.438085
0.435739
0.429842
0.40653
0.406262
0.402614
0.395477
0.383764
0.384388
0.382149
0.375148
0.364763
0.362251
0.359415
0.353415
0.344879
0.337516
0.331428
0.324541
0.32071
0.313001
0.306388
0.299679
0.282414
0.276495
0.270247
0.263732
0.244197
0.238948
0.233478
0.227696
0.214142
0.209049
0.203788
0.198406
0.189765
0.185253
0.180573
0.175787
0.16932
0.165531
0.161585
0.157519
0.151991
0.148876
0.145627
0.142263
0.137174
0.134644
0.131998
0.129251
0.124339
0.122311
0.120181
0.117961
0.113053
0.111456
0.109767
0.107998
0.102992
0.101763
0.100451
0.0990678
0.0939226
0.0930066
0.0920176
0.0909635
0.0856907
0.0850401
0.0843248
0.0835511
0.0782024
0.0777747
0.07729
0.0767529
0.0714103
0.0711672
0.0708739
0.0705338
0.0652998
0.0652062
0.0650684
0.0648889
0.0598779
0.0599011
0.0598856
0.0598331
0.0551621
0.055272
0.0553482
0.0553915
0.0511723
0.0513416
0.0514814
0.051592
0.0479248
0.0481294
0.048308
0.0484606
0.045431
0.0456502
0.0458466
0.0460204
0.0437008
0.0439189
0.0441163
0.0442927
0.0427449
0.0429482
0.043132
0.0432959
0.0425768
0.0427555
0.0429153
0.0430555
0.0432256
0.0433736
0.0435027
0.0436121
0.0447433
0.044858
0.0449534
0.0450285
0.0472114
0.0472933
0.0473555
0.0473967
0.0507472
0.0507999
0.0508325
0.050844
0.0555101
0.0555395
0.0555493
0.0555383
0.0617096
0.0617233
0.0617189
0.0616954
0.0696168
0.0696223
0.0696127
0.0695872
0.0795812
0.0795839
0.0795761
0.0795576
0.092055
0.092056
0.0920531
0.0920464
0.439777
0.344485
0.30604
0.263691
0.226513
0.196592
0.171251
0.148017
0.128044
0.113625
0.102594
0.0923451
0.0831256
0.0764386
0.0726978
0.071556
0.071303
0.0735926
0.10571
0.468138
0.387456
0.332412
0.28086
0.23734
0.202632
0.174036
0.149343
0.12979
0.117349
0.109383
0.101951
0.0948387
0.0897654
0.0857018
0.0812502
0.0772751
0.0775072
0.114795
0.457533
0.393459
0.338438
0.286309
0.240773
0.203717
0.174054
0.15001
0.131997
0.121452
0.115819
0.111362
0.106817
0.102058
0.0965431
0.0896623
0.0829704
0.0812484
0.126105
0.440126
0.392463
0.341935
0.289254
0.241467
0.202777
0.173564
0.151321
0.135377
0.126755
0.122384
0.119053
0.115227
0.110186
0.104153
0.0970966
0.0893679
0.0860794
0.148611
0.414003
0.377804
0.33099
0.280314
0.234661
0.198407
0.171767
0.152889
0.140501
0.134637
0.131414
0.127213
0.121013
0.114409
0.108061
0.101595
0.0935304
0.0900408
0.163617
0.380786
0.348042
0.307868
0.266365
0.228057
0.195936
0.171452
0.153857
0.14246
0.13692
0.13522
0.133713
0.126364
0.116042
0.107746
0.0997362
0.0893981
0.0837897
0.138439
0.360412
0.328153
0.289403
0.250875
0.218118
0.190607
0.169047
0.152938
0.141291
0.133712
0.129637
0.128039
0.121773
0.117942
0.107925
0.0951808
0.0824889
0.0762637
0.100591
0.337906
0.306423
0.271214
0.236395
0.207156
0.183403
0.164576
0.149709
0.137935
0.129214
0.123413
0.119595
0.117107
0.11766
0.10896
0.0918215
0.0758428
0.069557
0.0870723
0.31131
0.283945
0.252788
0.222726
0.197224
0.176572
0.159991
0.145942
0.133427
0.123484
0.117446
0.11339
0.109155
0.105957
0.0984487
0.0847396
0.0711226
0.0652732
0.0907074
0.287971
0.262736
0.23349
0.206757
0.184736
0.166341
0.150716
0.136939
0.124938
0.115737
0.110492
0.10754
0.102295
0.0968015
0.0897534
0.0793231
0.0683026
0.0627659
0.0957904
0.2526
0.231799
0.208328
0.186279
0.167508
0.15143
0.137439
0.125257
0.115261
0.1077
0.102857
0.0995182
0.0950525
0.0897754
0.0838231
0.075863
0.0664479
0.0611242
0.0988918
0.217713
0.201047
0.182787
0.16527
0.1499
0.136548
0.124839
0.114682
0.106387
0.0999058
0.0952213
0.0916809
0.0879854
0.0836452
0.0790719
0.0728962
0.0647957
0.0601149
0.0994779
0.189299
0.175633
0.161377
0.147507
0.134883
0.123728
0.113981
0.105586
0.0986218
0.0929199
0.0884116
0.0848501
0.0815317
0.0780578
0.0746072
0.06971
0.0629976
0.0596765
0.0967998
0.167653
0.156033
0.144389
0.13314
0.122748
0.113449
0.105268
0.0981543
0.0920797
0.0869019
0.0825362
0.0789535
0.0758045
0.0728855
0.0701093
0.0661579
0.0609941
0.0596562
0.0949992
0.150558
0.140727
0.131031
0.121733
0.113097
0.105289
0.0983206
0.0921126
0.0866473
0.0818363
0.0775986
0.0739379
0.0707725
0.0680556
0.0655445
0.0623623
0.0589173
0.0601081
0.0970098
0.13647
0.128279
0.1202
0.11245
0.105205
0.0985736
0.0925575
0.0870687
0.0820917
0.0775955
0.0734958
0.0697751
0.066486
0.0637101
0.0612606
0.0587662
0.0570776
0.0612323
0.102741
0.124502
0.117762
0.111073
0.104613
0.0985139
0.0928483
0.087616
0.0827444
0.0782066
0.0739915
0.0700496
0.0663466
0.0629934
0.0601408
0.0577847
0.0559688
0.0558923
0.0628895
0.110922
0.114111
0.108624
0.10313
0.0977716
0.0926491
0.0878123
0.0832546
0.0789268
0.0748011
0.0708694
0.0671107
0.0635291
0.0602401
0.0574433
0.0553048
0.0541585
0.0554441
0.0647538
0.120221
0.104916
0.1005
0.0960318
0.0916245
0.0873517
0.0832435
0.0792873
0.0754536
0.0717252
0.0680972
0.0645721
0.0611896
0.058082
0.055475
0.0536477
0.0531281
0.0555318
0.0668514
0.129967
0.0966427
0.0931383
0.0895497
0.0859646
0.0824353
0.0789757
0.0755699
0.0722009
0.0688631
0.0655603
0.0623149
0.0591937
0.0563455
0.0540129
0.0525397
0.0525622
0.0557963
0.0685761
0.13791
0.0890999
0.0863724
0.0835367
0.0806596
0.0777778
0.0748965
0.0719997
0.0690754
0.0661256
0.0631654
0.0602339
0.0574175
0.0548764
0.0528615
0.0517472
0.0522201
0.0560374
0.0697382
0.143642
0.0821659
0.0800985
0.0779059
0.0756374
0.0733186
0.0709509
0.068521
0.0660197
0.0634536
0.060847
0.058252
0.0557675
0.0535588
0.0518783
0.0511095
0.0519563
0.0561808
0.0704063
0.14744
0.0757723
0.074262
0.0726157
0.070869
0.0690389
0.0671256
0.0651194
0.0630148
0.0608217
0.0585711
0.0563232
0.0541828
0.0523156
0.0509689
0.0505242
0.0516852
0.0562017
0.0706999
0.149394
0.0698908
0.0688454
0.0676589
0.0663558
0.0649473
0.0634334
0.0618081
0.06007
0.0582323
0.0563298
0.0544272
0.0526298
0.051099
0.0500732
0.0499241
0.0513455
0.0560648
0.0706477
0.149568
0.0645222
0.0638579
0.0630524
0.0621214
0.0610722
0.0599052
0.0586177
0.0572124
0.0557054
0.0541335
0.052562
0.0510939
0.0498825
0.0491538
0.0492652
0.0508929
0.0557342
0.0702739
0.148941
0.0596858
0.0593264
0.058829
0.0582035
0.0574544
0.0565827
0.0555889
0.0544788
0.0532709
0.0520028
0.050738
0.0495743
0.0486549
0.0481916
0.0485247
0.05031
0.0552164
0.069683
0.148425
0.055411
0.0552864
0.0550299
0.054647
0.0541408
0.0535129
0.0527664
0.0519099
0.0509634
0.0499642
0.0489726
0.0480796
0.0474176
0.0471834
0.0476996
0.0496028
0.0545412
0.068931
0.147682
0.0517297
0.0517767
0.0516985
0.0514986
0.0511793
0.0507434
0.0501958
0.0495473
0.0488189
0.048047
0.047288
0.0466258
0.0461817
0.0461382
0.0468011
0.0487881
0.053728
0.0680099
0.146481
0.0486743
0.0488349
0.048877
0.0488035
0.0486167
0.0483203
0.047921
0.0474315
0.0468734
0.0462817
0.0457095
0.0452334
0.0449648
0.0450733
0.0458489
0.0478894
0.0527948
0.0669041
0.144944
0.0462738
0.0464953
0.0466047
0.0466045
0.0464974
0.0462882
0.0459852
0.0456025
0.0451627
0.0446999
0.044264
0.043926
0.0437886
0.0440103
0.0448666
0.0469344
0.0517702
0.0656182
0.143059
0.0445527
0.0447895
0.0449189
0.0449433
0.0448658
0.044692
0.044432
0.0441016
0.0437245
0.0433349
0.0429809
0.0427293
0.0426762
0.0429709
0.0438767
0.045949
0.050692
0.0641946
0.140487
0.0435363
0.0437506
0.0438594
0.0438648
0.0437699
0.0435814
0.0433106
0.0429754
0.0426016
0.0422249
0.0418934
0.0416719
0.0416522
0.0419765
0.0428971
0.0449493
0.0495818
0.0626625
0.136771
0.0432568
0.043419
0.0434742
0.0434231
0.0432686
0.0430174
0.042682
0.0422826
0.0418482
0.0414178
0.0410425
0.0407881
0.0407448
0.0410496
0.0419443
0.043943
0.0484374
0.0610553
0.132585
0.0437612
0.0438506
0.0438273
0.0436901
0.0434398
0.0430821
0.0426298
0.042105
0.0415406
0.0409815
0.0404854
0.0401242
0.039991
0.0402204
0.0410442
0.042953
0.047285
0.0594891
0.129197
0.0451191
0.0451243
0.0450076
0.0447643
0.0443914
0.0438912
0.0432741
0.0425626
0.0417936
0.0410198
0.0403101
0.0397499
0.0394438
0.0395315
0.0402378
0.0420306
0.0461982
0.0580591
0.126537
0.0474292
0.0473493
0.0471366
0.0467809
0.0462729
0.0456077
0.0447897
0.0438371
0.0427874
0.0417008
0.0406618
0.0397789
0.0391846
0.0390404
0.0395738
0.0412312
0.0452463
0.0567746
0.123586
0.0508256
0.0506717
0.0503752
0.0499191
0.0492851
0.0484572
0.0474269
0.0462004
0.044806
0.0433035
0.0417915
0.0404105
0.0393491
0.0388291
0.0391028
0.0405945
0.0444715
0.0556667
0.120083
0.055483
0.0552786
0.0549274
0.0544058
0.0536852
0.0527352
0.0515276
0.0500441
0.048286
0.0462882
0.0441407
0.0420111
0.0401804
0.0390266
0.0388891
0.040161
0.0439245
0.0549283
0.11787
0.061622
0.0614015
0.0610411
0.060513
0.0597808
0.0588002
0.0575208
0.0558893
0.0538554
0.0513836
0.0484848
0.0452861
0.0421589
0.0398527
0.0390133
0.0399628
0.0436435
0.0547066
0.11798
0.0695166
0.0693202
0.0690065
0.0685489
0.06791
0.0670406
0.0658762
0.064333
0.0622991
0.0596215
0.0561031
0.0516017
0.0463228
0.0416954
0.0395805
0.0400224
0.0436241
0.0549551
0.119964
0.0795082
0.0793737
0.0791612
0.0788518
0.0784182
0.0778218
0.0770074
0.0758932
0.0743461
0.0721266
0.0687781
0.0634859
0.0552377
0.0451476
0.0406548
0.0403198
0.0438109
0.0555541
0.123685
0.0920291
0.0919827
0.0919101
0.0918051
0.0916588
0.0914576
0.0911821
0.0908005
0.0902535
0.0894047
0.0878863
0.0845949
0.0759921
0.050296
0.0419286
0.0406852
0.0440317
0.0560173
0.126767
)
;

boundaryField
{
    leftWall
    {
        type            epsilonWallFunction;
        value           nonuniform List<scalar> 
50
(
0.00741303
0.01263
0.0194284
0.0256953
0.0316571
0.0375309
0.043486
0.049689
0.0600444
0.0755396
0.0992494
0.130926
0.167293
0.159544
0.14702
0.132074
0.128271
0.133112
0.143237
0.155013
0.167188
0.177941
0.184593
0.186478
0.183558
0.176108
0.164702
0.150299
0.133899
0.117613
0.101743
0.0862358
0.0717216
0.0592952
0.0498971
0.0438255
0.0407776
0.0402151
0.041668
0.0448644
0.0497638
0.0565745
0.0657966
0.0783287
0.0956936
0.120461
0.156874
0.211211
0.289483
0.378406
)
;
        Cmu             0.09;
        kappa           0.41;
        E               9.8;
        value           nonuniform List<scalar> 
50
(
0.00741303
0.01263
0.0194284
0.0256953
0.0316571
0.0375309
0.043486
0.049689
0.0600444
0.0755396
0.0992494
0.130926
0.167293
0.159544
0.14702
0.132074
0.128271
0.133112
0.143237
0.155013
0.167188
0.177941
0.184593
0.186478
0.183558
0.176108
0.164702
0.150299
0.133899
0.117613
0.101743
0.0862358
0.0717216
0.0592952
0.0498971
0.0438255
0.0407776
0.0402151
0.041668
0.0448644
0.0497638
0.0565745
0.0657966
0.0783287
0.0956936
0.120461
0.156874
0.211211
0.289483
0.378406
)
;
    }
    rightWall
    {
        type            epsilonWallFunction;
        value           nonuniform List<scalar> 
50
(
0.0266375
0.0321694
0.0455021
0.0581119
0.0699839
0.080929
0.0906162
0.0987586
0.10571
0.114795
0.126105
0.148611
0.163617
0.138439
0.100591
0.0870723
0.0907074
0.0957904
0.0988918
0.0994779
0.0967998
0.0949992
0.0970098
0.102741
0.110922
0.120221
0.129967
0.13791
0.143642
0.14744
0.149394
0.149568
0.148941
0.148425
0.147682
0.146481
0.144944
0.143059
0.140487
0.136771
0.132585
0.129197
0.126537
0.123586
0.120083
0.11787
0.11798
0.119964
0.123685
0.126767
)
;
        Cmu             0.09;
        kappa           0.41;
        E               9.8;
        value           nonuniform List<scalar> 
50
(
0.0266375
0.0321694
0.0455021
0.0581119
0.0699839
0.080929
0.0906162
0.0987586
0.10571
0.114795
0.126105
0.148611
0.163617
0.138439
0.100591
0.0870723
0.0907074
0.0957904
0.0988918
0.0994779
0.0967998
0.0949992
0.0970098
0.102741
0.110922
0.120221
0.129967
0.13791
0.143642
0.14744
0.149394
0.149568
0.148941
0.148425
0.147682
0.146481
0.144944
0.143059
0.140487
0.136771
0.132585
0.129197
0.126537
0.123586
0.120083
0.11787
0.11798
0.119964
0.123685
0.126767
)
;
    }
    lowerWall
    {
        type            epsilonWallFunction;
        value           nonuniform List<scalar> 
62
(
0.00741303
0.0321165
0.0566605
0.0800878
0.102613
0.124673
0.146673
0.169101
0.192226
0.216357
0.241853
0.268936
0.297502
0.326827
0.355159
0.379331
0.39508
0.398283
0.378885
0.338084
0.269205
0.165602
0.0438768
0.0438768
0.0774715
0.136211
0.207974
0.302524
0.425315
0.61878
1.07909
1.61985
1.25954
1.07353
0.979509
0.0714819
0.0782213
0.103929
0.116929
0.121456
0.127484
0.162626
0.298995
0.0714819
0.177555
0.290551
0.364081
0.389239
0.398492
0.401836
0.387148
0.332563
0.248791
0.177005
0.135201
0.104897
0.0770118
0.0602479
0.0589336
0.0624508
0.0587028
0.0266375
)
;
        Cmu             0.09;
        kappa           0.41;
        E               9.8;
        value           nonuniform List<scalar> 
62
(
0.00741303
0.0321165
0.0566605
0.0800878
0.102613
0.124673
0.146673
0.169101
0.192226
0.216357
0.241853
0.268936
0.297502
0.326827
0.355159
0.379331
0.39508
0.398283
0.378885
0.338084
0.269205
0.165602
0.0438768
0.0438768
0.0774715
0.136211
0.207974
0.302524
0.425315
0.61878
1.07909
1.61985
1.25954
1.07353
0.979509
0.0714819
0.0782213
0.103929
0.116929
0.121456
0.127484
0.162626
0.298995
0.0714819
0.177555
0.290551
0.364081
0.389239
0.398492
0.401836
0.387148
0.332563
0.248791
0.177005
0.135201
0.104897
0.0770118
0.0602479
0.0589336
0.0624508
0.0587028
0.0266375
)
;
    }
    atmosphere
    {
        type            inletOutlet;
        inletValue      uniform 0.1;
        value           nonuniform List<scalar> 
46
(
0.378406
0.165167
0.111743
0.090154
0.0798455
0.0746765
0.0722565
0.0715418
0.0720445
0.0735079
0.0758649
0.0793784
0.0847282
0.1
0.1
0.1
0.1
0.1
0.1
0.1
0.1
0.1
0.1
0.1
0.1
0.1
0.1
0.1
0.1
0.1
0.1
0.1
0.1
0.1
0.1
0.1
0.1
0.1
0.1
0.1
0.050296
0.0419286
0.0406852
0.0440317
0.0560173
0.126767
)
;
    }
    defaultFaces
    {
        type            empty;
    }
}


// ************************************************************************* //
