/*--------------------------------*- C++ -*----------------------------------*\
| =========                 |                                                 |
| \\      /  F ield         | OpenFOAM: The Open Source CFD Toolbox           |
|  \\    /   O peration     | Version:  2.3.0                                 |
|   \\  /    A nd           | Web:      www.OpenFOAM.org                      |
|    \\/     M anipulation  |                                                 |
\*---------------------------------------------------------------------------*/
FoamFile
{
    version     2.0;
    format      ascii;
    class       volScalarField;
    location    "2.2";
    object      k;
}
// * * * * * * * * * * * * * * * * * * * * * * * * * * * * * * * * * * * * * //

dimensions      [0 2 -2 0 0 0 0];

internalField   nonuniform List<scalar> 
2268
(
0.0017648
0.00382463
0.00558693
0.00704075
0.00831114
0.00947061
0.0105636
0.0116256
0.0126773
0.0137321
0.0148036
0.0158981
0.0170086
0.0181065
0.0191304
0.0199764
0.0205063
0.0205977
0.0199067
0.018443
0.0158482
0.0114721
0.00473685
0.00339021
0.0087028
0.012484
0.0156388
0.0184104
0.0209451
0.0233364
0.0256505
0.0279384
0.0302372
0.0325786
0.0349795
0.03743
0.0398771
0.0422019
0.0442014
0.0455808
0.0459686
0.0447931
0.0419537
0.0367839
0.0274006
0.0114034
0.00452312
0.0115011
0.0162018
0.0201533
0.0236561
0.0268735
0.029916
0.0328655
0.0357874
0.0387301
0.0417337
0.0448209
0.0479822
0.0511556
0.0541989
0.0568697
0.058827
0.059634
0.0587459
0.0557239
0.0496507
0.0383842
0.0165821
0.00545375
0.0136777
0.0190346
0.0235365
0.0275485
0.031249
0.0347597
0.0381736
0.0415666
0.0449949
0.0485057
0.052127
0.0558513
0.0596129
0.0632565
0.0665101
0.0690088
0.0702941
0.0698308
0.0670119
0.0607946
0.0487292
0.0219425
0.00626982
0.015569
0.0214846
0.0264347
0.0308598
0.0349568
0.0388585
0.0426673
0.0464687
0.0503256
0.0542919
0.0584012
0.0626495
0.0669706
0.0711982
0.0750339
0.0781026
0.0799336
0.0799984
0.0776315
0.0716915
0.0592827
0.0281029
0.00702409
0.0173026
0.0237285
0.0290726
0.0338571
0.0383023
0.0425532
0.0467217
0.0509021
0.0551641
0.0595682
0.0641541
0.068923
0.0738115
0.0786362
0.0830861
0.0867704
0.0892187
0.0898986
0.0881799
0.0828881
0.0706966
0.0351721
0.0077496
0.0189461
0.0258532
0.031556
0.0366648
0.0414271
0.0460013
0.0505093
0.0550544
0.0597124
0.0645508
0.0696164
0.0749163
0.0803924
0.0858432
0.0909503
0.0952975
0.0984147
0.0997913
0.0988668
0.0945713
0.0834649
0.0449924
0.00847327
0.0205438
0.0279112
0.0339454
0.0393522
0.0444089
0.0492889
0.054124
0.0590274
0.0640796
0.0693553
0.074909
0.0807551
0.0868422
0.0929557
0.0987681
0.103823
0.107643
0.109778
0.109726
0.10669
0.097952
0.0649162
0.00645466
0.011822
0.016398
0.019079
0.0200089
0.0203771
0.0204965
0.0199181
0.0178312
0.014605
0.0116672
0.00981479
0.00830516
0.00677238
0.00583177
0.0058085
0.00607539
0.00580528
0.00424853
0.0121697
0.0237096
0.03414
0.0398333
0.0422697
0.0431762
0.0431997
0.0418687
0.0382619
0.0323331
0.0264506
0.0223219
0.0188656
0.0153205
0.0127935
0.012323
0.0123188
0.0112618
0.00679698
0.014769
0.0303654
0.0431086
0.0504138
0.0535577
0.0545608
0.0542408
0.0522273
0.0478592
0.0414328
0.0349625
0.0298613
0.025409
0.0211387
0.0180887
0.0170437
0.0165668
0.0148139
0.0085519
0.0160659
0.0350775
0.0500446
0.0584813
0.0619457
0.0628111
0.0620403
0.0593763
0.0544453
0.0478311
0.0412039
0.0356525
0.0306676
0.0260655
0.0227685
0.0213547
0.0205429
0.0179992
0.0100488
0.0165731
0.0392097
0.0566798
0.0658082
0.0692273
0.0697349
0.0684102
0.0650947
0.0596775
0.052952
0.0463155
0.0405666
0.0353198
0.0306263
0.0272873
0.0256786
0.024478
0.0209782
0.0113536
0.0170622
0.0438119
0.0637871
0.0730337
0.0759899
0.0759146
0.0739385
0.0699658
0.0641125
0.0573237
0.0507671
0.0449674
0.0396394
0.0350029
0.0317251
0.0300051
0.0282803
0.0237542
0.0124858
0.0195852
0.0501433
0.0717364
0.0803391
0.0824137
0.0815463
0.0788417
0.0742198
0.067991
0.0612117
0.0548167
0.0490669
0.0437833
0.0392773
0.0360571
0.0341559
0.0318036
0.0262502
0.0134427
0.0287164
0.0599871
0.0805279
0.0875466
0.0884519
0.0866549
0.0831814
0.0779417
0.0714189
0.064773
0.058646
0.0530252
0.0478552
0.0434992
0.0402684
0.0380462
0.0349487
0.0283932
0.014225
0.00961983
0.023043
0.031085
0.0375976
0.0434347
0.0489236
0.0542619
0.0595958
0.0650436
0.0706989
0.0766503
0.0829657
0.0896728
0.0967325
0.103932
0.110926
0.11716
0.12213
0.125482
0.126877
0.125838
0.121335
0.109182
0.0112159
0.0265814
0.0353952
0.0424473
0.0487857
0.0548082
0.0607483
0.0667708
0.072969
0.0794537
0.0863404
0.0937169
0.101632
0.110075
0.118943
0.127847
0.135852
0.14232
0.147058
0.149892
0.150496
0.148373
0.142871
0.0134421
0.0306732
0.0400685
0.0474824
0.0542153
0.0607028
0.0672219
0.0739814
0.0809521
0.0882624
0.0960826
0.104511
0.11359
0.123417
0.134254
0.145771
0.155807
0.163537
0.169236
0.172799
0.173653
0.170981
0.165554
0.0162592
0.0357169
0.0451918
0.0528167
0.0599054
0.0667983
0.0738512
0.0814539
0.08915
0.0972717
0.106041
0.115494
0.125553
0.136592
0.14999
0.165895
0.177092
0.184989
0.190831
0.19443
0.194322
0.187758
0.177116
0.0192172
0.0392905
0.0490686
0.057101
0.0646135
0.0719169
0.0793412
0.0875056
0.096078
0.105061
0.114807
0.125053
0.135602
0.147567
0.163918
0.18147
0.188623
0.193914
0.198471
0.201094
0.199248
0.190983
0.180733
0.0186168
0.0390259
0.0510246
0.0601572
0.0676765
0.0752113
0.0831429
0.0916944
0.101157
0.111287
0.121568
0.131809
0.141935
0.15368
0.168497
0.181299
0.18946
0.194235
0.197259
0.19786
0.194871
0.188294
0.18061
0.0176989
0.0381879
0.0511361
0.0608988
0.0692671
0.0775829
0.0861488
0.0952935
0.105517
0.115899
0.12588
0.135607
0.1453
0.15655
0.168823
0.178054
0.187411
0.194722
0.198715
0.198107
0.194253
0.18826
0.181523
0.0164439
0.0370828
0.0501264
0.0604649
0.0697498
0.0789573
0.088291
0.0978165
0.10776
0.117301
0.12662
0.136107
0.145929
0.15689
0.167889
0.174692
0.181591
0.188572
0.194989
0.199207
0.198999
0.192087
0.1834
0.0160297
0.0364746
0.0494661
0.0600664
0.0696783
0.0791201
0.0886227
0.0981075
0.107495
0.116559
0.125804
0.135463
0.14501
0.154737
0.163997
0.169873
0.174668
0.179807
0.185533
0.191545
0.196675
0.193487
0.184156
0.0163219
0.0368942
0.0496521
0.0599926
0.0693986
0.0785042
0.0875708
0.0965763
0.105451
0.114282
0.123771
0.134093
0.143436
0.151817
0.159303
0.164442
0.167951
0.1716
0.175826
0.180131
0.183578
0.1835
0.179513
0.0170605
0.0380731
0.0504756
0.0603252
0.0691831
0.0776655
0.0860304
0.0943526
0.102661
0.111158
0.120409
0.130644
0.140377
0.148372
0.154538
0.158644
0.161194
0.163724
0.16677
0.169577
0.170979
0.170323
0.167815
0.0179421
0.0395042
0.0515367
0.0608604
0.0691005
0.0768904
0.0845129
0.0921132
0.0997896
0.107731
0.116271
0.125505
0.134696
0.142665
0.148472
0.152008
0.154059
0.155983
0.158336
0.160252
0.160627
0.159256
0.156449
0.0188393
0.0407619
0.0524754
0.0613246
0.0690047
0.0761593
0.0831063
0.0900238
0.0970335
0.104273
0.111904
0.119925
0.127906
0.13509
0.140661
0.14424
0.146434
0.148321
0.150297
0.151627
0.151515
0.149855
0.146922
0.0196392
0.0416476
0.0530528
0.0614845
0.0686876
0.0753112
0.0816815
0.0879862
0.0943445
0.100847
0.10756
0.114439
0.121214
0.127405
0.132475
0.136118
0.138613
0.140594
0.142278
0.1432
0.142859
0.141171
0.138398
0.0201418
0.0420463
0.0531499
0.0612142
0.0680123
0.0741925
0.0800763
0.0858461
0.0916088
0.0974248
0.103313
0.109221
0.114975
0.120281
0.124802
0.128323
0.130924
0.132895
0.134338
0.135007
0.1346
0.133058
0.130587
0.0203018
0.0419125
0.0527101
0.0604464
0.0668968
0.0727025
0.0781748
0.0834857
0.0887296
0.0939495
0.099147
0.104274
0.109217
0.113794
0.117796
0.121067
0.123591
0.125469
0.126735
0.127259
0.126873
0.12555
0.123452
0.0201162
0.0412421
0.0517219
0.0591612
0.0653104
0.0707969
0.0759205
0.0808427
0.0856485
0.090373
0.0950128
0.0995295
0.103844
0.107841
0.111385
0.114359
0.116715
0.118462
0.119598
0.12005
0.119736
0.118658
0.116935
0.0195977
0.0400582
0.050205
0.0573736
0.0632611
0.0684749
0.0733032
0.0778991
0.082342
0.0866637
0.0908624
0.0949081
0.0987405
0.102282
0.10544
0.108128
0.110289
0.111901
0.112944
0.113378
0.113167
0.112329
0.110954
0.0187731
0.0384068
0.0482045
0.0551241
0.0607834
0.0657644
0.0703438
0.074668
0.0788132
0.0828109
0.0866627
0.0903406
0.0938012
0.096988
0.0998343
0.102275
0.104258
0.105753
0.106738
0.10719
0.107097
0.106485
0.105422
0.0176927
0.0363586
0.0457885
0.0524739
0.0579321
0.0627141
0.0670844
0.0711842
0.0750868
0.0788257
0.0823987
0.0857876
0.0889597
0.0918718
0.0944737
0.0967156
0.0985553
0.0999639
0.100922
0.101418
0.101452
0.101052
0.100267
0.016411
0.0340093
0.0430455
0.0495019
0.0547787
0.0593893
0.0635853
0.067502
0.0712072
0.0747323
0.078082
0.0812432
0.0841907
0.0868911
0.0893061
0.0913975
0.0931324
0.0944872
0.0954471
0.0960069
0.0961735
0.0959709
0.0954382
0.0150836
0.0314503
0.0400754
0.0463
0.0514097
0.0558726
0.0599219
0.0636846
0.0672274
0.0705811
0.073753
0.0767349
0.0795081
0.0820468
0.084322
0.086305
0.0879708
0.0893014
0.0902865
0.0909247
0.091225
0.0912082
0.0909042
0.0137255
0.0287865
0.036979
0.0429806
0.0479307
0.05226
0.0561841
0.0598204
0.0632316
0.0664481
0.0694792
0.0723207
0.0749593
0.077376
0.0795494
0.0814582
0.083084
0.0844137
0.0854408
0.0861658
0.0865978
0.0867538
0.0866569
0.0123264
0.0260625
0.0338469
0.0396427
0.0444497
0.0486637
0.0524838
0.0560177
0.0593238
0.0624316
0.0653519
0.068084
0.0706193
0.0729449
0.0750453
0.0769054
0.0785123
0.0798569
0.080935
0.0817485
0.0823052
0.0826187
0.0827065
0.0109323
0.0233905
0.030806
0.0364088
0.0410928
0.0452131
0.0489505
0.0524036
0.0556267
0.0586484
0.0614812
0.0641275
0.0665828
0.0688392
0.0708866
0.0727147
0.0743151
0.0756816
0.0768122
0.0777087
0.0783778
0.0788299
0.079078
0.00965061
0.0210015
0.0280395
0.0334503
0.0380218
0.0420632
0.0457334
0.049121
0.0522763
0.0552275
0.0579883
0.060564
0.062954
0.0651544
0.0671596
0.0689636
0.070561
0.0719485
0.0731251
0.0740928
0.0748567
0.0754247
0.0758064
0.00860724
0.0190891
0.0257509
0.0309644
0.0354201
0.0393834
0.0429899
0.0463169
0.0494103
0.0522972
0.0549926
0.0575042
0.0598346
0.0619835
0.0639488
0.0657278
0.067318
0.068718
0.0699278
0.0709492
0.0717862
0.0724445
0.0729308
0.00788522
0.0177563
0.0240884
0.0291105
0.0334453
0.0373234
0.04086
0.0441217
0.0471497
0.0499697
0.0525976
0.055043
0.0573112
0.0594049
0.061325
0.0630713
0.0646437
0.0660422
0.0672675
0.0683214
0.0692068
0.0699277
0.0704888
0.00749804
0.0170217
0.0231124
0.0279737
0.0321941
0.0359828
0.0394414
0.0426287
0.0455819
0.0483259
0.0508775
0.053248
0.0554452
0.0574741
0.059338
0.061039
0.0625787
0.0639581
0.0651787
0.066242
0.0671502
0.0679059
0.0685122
0.00740969
0.0168506
0.0228143
0.0275686
0.0316976
0.035403
0.0387804
0.041885
0.0447528
0.0474091
0.0498721
0.0521554
0.0542689
0.0562198
0.0580136
0.059654
0.061144
0.0624857
0.0636807
0.0647307
0.065637
0.0664013
0.0670252
0.00756999
0.0171897
0.0231514
0.027868
0.031943
0.035582
0.038882
0.0418995
0.0446727
0.0472295
0.049591
0.0517733
0.053789
0.0556475
0.0573561
0.0589202
0.0603438
0.0616297
0.0627798
0.0637956
0.064678
0.0654274
0.0660445
0.00793896
0.0179924
0.024081
0.0288373
0.032904
0.0365003
0.0397312
0.04266
0.0453309
0.0477771
0.050024
0.0520916
0.0539954
0.0557474
0.0573564
0.0588294
0.0601713
0.0613853
0.0624738
0.0634377
0.0642774
0.0649928
0.0655833
0.00849729
0.0192377
0.0255846
0.0304612
0.0345671
0.0381443
0.0413137
0.044151
0.0467109
0.0490345
0.0511537
0.053093
0.0548715
0.0565036
0.0580001
0.059369
0.060616
0.0617449
0.0627579
0.0636559
0.0644381
0.0651035
0.0656508
0.0092495
0.0209432
0.0276845
0.0327601
0.036946
0.0405198
0.0436274
0.0463644
0.0488002
0.0509871
0.0529644
0.054762
0.0564025
0.0579028
0.0592753
0.0605291
0.0616707
0.0627041
0.0636311
0.0644512
0.065164
0.0657677
0.0662598
0.0102253
0.0231745
0.030451
0.0357934
0.0400828
0.0436507
0.0466814
0.0492986
0.0515913
0.0536244
0.0554453
0.0570889
0.0585806
0.0599392
0.0611786
0.0623089
0.063337
0.0642666
0.0650979
0.0658318
0.0664672
0.0670016
0.0674314
0.0114835
0.0260524
0.0340016
0.0396502
0.0440321
0.0475619
0.0504795
0.0529452
0.0550707
0.0569335
0.0585873
0.0600696
0.0614068
0.0626182
0.0637187
0.0647196
0.065628
0.0664457
0.0671757
0.0678183
0.0683718
0.0688331
0.0691975
0.0131205
0.0297553
0.038479
0.04441
0.0488167
0.0522368
0.0549831
0.0572582
0.0591953
0.060881
0.0623704
0.0636985
0.0648883
0.0659565
0.0669184
0.0677875
0.0685699
0.0692722
0.0698976
0.0704463
0.0709162
0.0713036
0.0716032
0.015282
0.034489
0.0439759
0.0500554
0.0543464
0.0575478
0.0600533
0.0621047
0.0638509
0.0653796
0.066739
0.0679532
0.0690329
0.0699824
0.0708172
0.0715541
0.0722098
0.072795
0.0733142
0.0737682
0.0741549
0.0744701
0.0747081
0.0181628
0.0403575
0.0503739
0.0563318
0.0603082
0.0631709
0.0653804
0.0672037
0.0687949
0.0702342
0.0715548
0.0727614
0.0738349
0.0747364
0.0754722
0.0760866
0.0766173
0.0770846
0.0774968
0.0778559
0.0781602
0.0784059
0.0785872
0.0219505
0.047084
0.0571259
0.0626117
0.0660855
0.0685315
0.0704367
0.0720728
0.0735913
0.0750638
0.0765124
0.0779277
0.0792447
0.0802751
0.080975
0.0814821
0.0818888
0.0822361
0.0825393
0.0828024
0.0830247
0.083203
0.0833322
0.0266282
0.0536739
0.063127
0.0678863
0.0707936
0.0728435
0.0745013
0.0760275
0.0775733
0.0792156
0.0809989
0.0829648
0.085069
0.0867129
0.0874753
0.0878789
0.0881531
0.0883734
0.0885625
0.088726
0.088864
0.0889746
0.089054
0.0311697
0.0582158
0.0668377
0.0709758
0.0734826
0.0752842
0.0768054
0.0782949
0.07991
0.0817516
0.083934
0.0866986
0.0904406
0.0944338
0.0952408
0.0954678
0.0955758
0.0956529
0.0957175
0.0957733
0.0958205
0.0958584
0.0958856
0.0843636
0.0708484
0.0633574
0.05933
0.136916
0.131942
0.125901
0.118728
0.164809
0.162952
0.156007
0.146587
0.172787
0.169394
0.164599
0.158345
0.174869
0.17103
0.167035
0.163004
0.176162
0.173135
0.169596
0.165676
0.177803
0.175703
0.173055
0.169468
0.178968
0.176616
0.174258
0.171193
0.178281
0.175049
0.172171
0.169111
0.174547
0.171551
0.168819
0.166039
0.164784
0.162541
0.160125
0.157569
0.153579
0.151597
0.149493
0.147233
0.144074
0.142109
0.140046
0.137898
0.135787
0.133985
0.132083
0.130104
0.128315
0.126745
0.125078
0.123329
0.121526
0.120188
0.118763
0.117258
0.115334
0.11421
0.113007
0.11173
0.109646
0.108716
0.107713
0.106644
0.104377
0.103622
0.102801
0.10192
0.0994572
0.0988615
0.0982057
0.0974938
0.0948397
0.0943879
0.0938813
0.093323
0.0904963
0.0901747
0.0898028
0.0893831
0.0864198
0.086215
0.0859638
0.0856681
0.0826202
0.0825188
0.0823741
0.0821878
0.0791218
0.0791096
0.0790569
0.0789649
0.0759583
0.0760206
0.0760446
0.0760313
0.073168
0.0732892
0.0733742
0.0734236
0.0707881
0.0709525
0.0710826
0.0711786
0.0688511
0.0690434
0.0692031
0.06933
0.0673826
0.0675886
0.0677635
0.0679074
0.0664024
0.06661
0.0667878
0.0669355
0.0659259
0.0661243
0.0662939
0.0664343
0.0659657
0.0661464
0.0662992
0.0664238
0.0665382
0.0666954
0.0668257
0.0669285
0.0676681
0.0677985
0.067903
0.0679808
0.0693907
0.0694936
0.0695717
0.0696242
0.0717545
0.0718312
0.0718848
0.0719142
0.0748215
0.0748754
0.0749082
0.0749192
0.0786683
0.0787038
0.0787213
0.0787201
0.0833867
0.0834086
0.0834164
0.0834099
0.0890861
0.0890981
0.089101
0.0890948
0.0958963
0.0959
0.0959007
0.0958982
0.0631043
0.081282
0.0948363
0.0982947
0.0970506
0.0937478
0.0889966
0.0828661
0.0760904
0.0699369
0.0644506
0.0591672
0.0542194
0.0500771
0.0466899
0.0434813
0.0387577
0.0306389
0.0148937
0.107321
0.107692
0.110567
0.109417
0.105631
0.100623
0.0947079
0.0879125
0.0812142
0.0758457
0.0714813
0.0670733
0.0626235
0.0587469
0.0547668
0.0496806
0.0428412
0.0331414
0.0158347
0.133218
0.12602
0.122572
0.11795
0.111979
0.105477
0.0988117
0.0920058
0.0857302
0.0811039
0.0776198
0.0741744
0.0703873
0.0662279
0.0612277
0.0547131
0.0463034
0.0353459
0.0171755
0.148466
0.139749
0.13297
0.125376
0.117169
0.109265
0.102213
0.095746
0.0901098
0.0861852
0.0831508
0.0799739
0.0761601
0.0714561
0.0657789
0.0586565
0.0493744
0.0375767
0.019224
0.156546
0.148049
0.139236
0.12963
0.120187
0.111827
0.104895
0.0992108
0.0947328
0.0917916
0.0891212
0.0854416
0.0804407
0.074763
0.0684713
0.0609171
0.050987
0.0387729
0.0196376
0.159596
0.150622
0.141389
0.1321
0.123061
0.114834
0.107886
0.102241
0.097942
0.0950101
0.0927507
0.0898629
0.0841673
0.0767686
0.0692319
0.0604602
0.0489986
0.035554
0.01742
0.163455
0.153704
0.143407
0.13344
0.124653
0.116805
0.110086
0.104465
0.0997318
0.0957616
0.0923886
0.0893101
0.0837782
0.0785362
0.0698139
0.0586563
0.0454938
0.0310926
0.0142504
0.165063
0.15487
0.144387
0.134196
0.125359
0.117798
0.11131
0.105604
0.100375
0.0955888
0.091229
0.08701
0.0826821
0.0788701
0.070468
0.0576529
0.0433597
0.0292541
0.0131995
0.163737
0.154232
0.144014
0.134215
0.125659
0.118387
0.112085
0.106166
0.10018
0.0945177
0.0897681
0.0851543
0.0799203
0.0746009
0.0668729
0.0557357
0.043026
0.0297662
0.0136376
0.161302
0.15216
0.141878
0.132352
0.124223
0.117083
0.11053
0.104164
0.0979253
0.0922116
0.0875422
0.0832411
0.0775312
0.0713554
0.0640498
0.0546051
0.0434801
0.0306797
0.014154
0.15315
0.145189
0.136285
0.127751
0.120154
0.113252
0.106759
0.100538
0.0947345
0.0894342
0.0847685
0.080267
0.0749056
0.0688916
0.0621986
0.0540113
0.0438493
0.0314812
0.0144591
0.143251
0.136544
0.129101
0.121745
0.114955
0.108652
0.10265
0.0968927
0.0915111
0.0864702
0.0817763
0.0771922
0.0722042
0.0666433
0.0606136
0.0532456
0.0436745
0.0316578
0.0144921
0.13419
0.128434
0.122242
0.115977
0.109947
0.104219
0.0987435
0.0934837
0.0884769
0.083642
0.0789686
0.0743859
0.0696035
0.0644586
0.0589373
0.0520754
0.0429284
0.0310646
0.0142487
0.12668
0.121574
0.116232
0.110815
0.105493
0.100344
0.0953619
0.0905103
0.0857776
0.0811
0.0764597
0.0718752
0.0672031
0.0623399
0.0571208
0.0505897
0.0418079
0.030206
0.0141125
0.120281
0.115771
0.111097
0.106357
0.10165
0.0970299
0.0924819
0.0879565
0.0834456
0.0789085
0.0743243
0.0697201
0.0650765
0.0603454
0.0552586
0.0489984
0.0407279
0.0297769
0.0143429
0.114618
0.110692
0.10661
0.102451
0.0982747
0.0941129
0.0899477
0.0857238
0.0814329
0.0770632
0.0725766
0.0679869
0.0633361
0.0586284
0.0536022
0.0476443
0.040085
0.0301221
0.0149175
0.109479
0.106108
0.102572
0.0989325
0.0952316
0.0914839
0.0876714
0.0837465
0.0796933
0.0755087
0.0711703
0.0666641
0.062058
0.05738
0.0524498
0.0468502
0.0400477
0.0311316
0.0156934
0.104749
0.101888
0.0988526
0.0956903
0.0924283
0.0890702
0.0855951
0.0819676
0.0781698
0.0741978
0.0700409
0.065699
0.0612214
0.0566515
0.0518885
0.0466429
0.0404941
0.0324315
0.0165379
0.100347
0.0979487
0.0953705
0.0926481
0.0897966
0.08681
0.0836645
0.0803345
0.0768067
0.0730762
0.0691408
0.0650124
0.0607351
0.0563496
0.0517967
0.0468647
0.0411633
0.03358
0.0173922
0.096213
0.094232
0.0920689
0.0897499
0.0872809
0.0846485
0.0818271
0.0787973
0.0755501
0.0720827
0.0683991
0.0645185
0.0604813
0.056321
0.0519944
0.047322
0.0419018
0.0345199
0.0180585
0.092306
0.0907007
0.0889127
0.0869599
0.0848425
0.0825439
0.0800388
0.0773093
0.0743486
0.0711568
0.0677426
0.0641284
0.0603496
0.0564295
0.0523247
0.0478604
0.0426061
0.0352599
0.0185277
0.0886038
0.0873351
0.0858839
0.0842615
0.0824644
0.0804757
0.078272
0.075836
0.073161
0.0702491
0.0671113
0.06377
0.0602535
0.0565732
0.052677
0.0483808
0.0432217
0.0358208
0.018829
0.0851012
0.0841314
0.08298
0.0816533
0.0801455
0.0784406
0.076518
0.0743613
0.0719638
0.0693278
0.0664644
0.063393
0.0601335
0.0566843
0.0529803
0.0488234
0.0437211
0.0362267
0.0189693
0.0818081
0.0810999
0.080212
0.0791466
0.0778968
0.0764481
0.0747827
0.0728859
0.0707509
0.0683792
0.0657803
0.0629684
0.0599537
0.0567212
0.0531914
0.0491514
0.044084
0.0364869
0.0189628
0.0787466
0.0782632
0.0776023
0.0767636
0.0757398
0.0745181
0.0730834
0.0714229
0.0695297
0.0674043
0.0650527
0.0624831
0.0596952
0.0566608
0.0532863
0.0493442
0.0442994
0.0366166
0.0189095
0.0759479
0.0756521
0.0751817
0.0745346
0.0737038
0.0726782
0.0714452
0.0699937
0.0683172
0.0664141
0.0642868
0.0619365
0.0593529
0.0564949
0.0532563
0.049398
0.0443759
0.0366467
0.018871
0.0734478
0.0733024
0.0729858
0.0724948
0.071823
0.0709611
0.0698984
0.0686256
0.0671362
0.0654268
0.0634956
0.0613371
0.0589315
0.0562266
0.0531055
0.0493218
0.0443315
0.0365988
0.0188085
0.0712829
0.0712517
0.0710523
0.0706817
0.0701341
0.0694018
0.068476
0.0673486
0.0660132
0.0644648
0.0626976
0.0606999
0.0584437
0.0558676
0.0528463
0.0491295
0.044178
0.0364727
0.0187072
0.0694887
0.069536
0.0694181
0.0691324
0.0686739
0.0680362
0.067212
0.0661944
0.0649771
0.0635537
0.0619152
0.0600447
0.0579076
0.0554353
0.0524966
0.0488383
0.043925
0.0362572
0.018577
0.0680965
0.0681883
0.0681179
0.0678829
0.0674789
0.0669004
0.0661415
0.0651963
0.0640587
0.0627216
0.0611737
0.0593945
0.0573445
0.0549502
0.0520763
0.0484673
0.0435871
0.0359494
0.018414
0.0671324
0.0672383
0.0671844
0.0669682
0.0665855
0.0660316
0.0653013
0.0643897
0.0632916
0.0619995
0.0605015
0.0587749
0.0567777
0.0544338
0.0516055
0.0480357
0.0431848
0.0355679
0.0181866
0.0666202
0.0667142
0.0666499
0.0664242
0.0660325
0.0654701
0.0647323
0.0638152
0.0627144
0.0614236
0.0599314
0.0582153
0.0562332
0.0539082
0.0511027
0.0475591
0.0427347
0.0351339
0.0178567
0.0665842
0.0666459
0.0665497
0.066291
0.065864
0.0652632
0.0644837
0.0635221
0.0623752
0.0610388
0.0595041
0.0577514
0.055741
0.0533983
0.050587
0.0470501
0.0422442
0.0346658
0.0174906
0.0670533
0.0670688
0.0669255
0.0666166
0.066134
0.06547
0.0646184
0.0635751
0.062338
0.0609059
0.0592743
0.05743
0.0553401
0.0529358
0.0500843
0.04653
0.0417316
0.0341972
0.0171959
0.0680651
0.0680272
0.0678294
0.0674613
0.0669112
0.0661675
0.0652204
0.0640632
0.0626934
0.0611121
0.0593214
0.0573187
0.0550845
0.0525634
0.0496311
0.0460345
0.0412334
0.0337533
0.0169609
0.0696676
0.0695772
0.0693264
0.0689007
0.0682832
0.0674562
0.0664031
0.065111
0.0635728
0.0617888
0.0597675
0.0575206
0.0550533
0.0523385
0.0492714
0.0456029
0.0407861
0.0333424
0.0166947
0.0719214
0.0717876
0.0714958
0.0710272
0.0703585
0.0694637
0.068316
0.0668904
0.065167
0.0631368
0.0608067
0.0582029
0.0553705
0.0523413
0.0490548
0.0452691
0.0404175
0.0329862
0.0163746
0.0748994
0.0747392
0.0744294
0.0739471
0.0732634
0.072343
0.0711459
0.0696282
0.0677455
0.0654596
0.0627529
0.0596487
0.0562425
0.052691
0.0490437
0.0450693
0.0401576
0.0327328
0.0161688
0.0786854
0.0785223
0.0782265
0.0777739
0.0771319
0.0762589
0.0751021
0.0735958
0.0716588
0.0691955
0.066111
0.0623596
0.0580475
0.053577
0.0493151
0.0450373
0.040035
0.0326325
0.0161785
0.0833736
0.0832335
0.0829885
0.0826168
0.0820879
0.0813606
0.0803779
0.0790603
0.0772921
0.0749017
0.0716428
0.0672352
0.061552
0.055303
0.0499554
0.0451955
0.0400585
0.032692
0.0163627
0.0890684
0.0889748
0.0888141
0.0885715
0.0882256
0.0877461
0.0870886
0.0861846
0.08492
0.083089
0.0802989
0.0758209
0.0685466
0.0582785
0.0509925
0.0455212
0.0401992
0.0328756
0.016705
0.0958888
0.0958567
0.0958023
0.0957208
0.0956048
0.0954441
0.095223
0.0949159
0.0944755
0.0937979
0.0926148
0.0901303
0.0836584
0.0623928
0.0521192
0.0458617
0.0403546
0.0330204
0.0169945
)
;

boundaryField
{
    leftWall
    {
        type            kqRWallFunction;
        value           nonuniform List<scalar> 
50
(
0.0017648
0.00339021
0.00452312
0.00545375
0.00626982
0.00702409
0.0077496
0.00847327
0.00961983
0.0112159
0.0134421
0.0162592
0.0192172
0.0186168
0.0176989
0.0164439
0.0160297
0.0163219
0.0170605
0.0179421
0.0188393
0.0196392
0.0201418
0.0203018
0.0201162
0.0195977
0.0187731
0.0176927
0.016411
0.0150836
0.0137255
0.0123264
0.0109323
0.00965061
0.00860724
0.00788522
0.00749804
0.00740969
0.00756999
0.00793896
0.00849729
0.0092495
0.0102253
0.0114835
0.0131205
0.015282
0.0181628
0.0219505
0.0266282
0.0311697
)
;
    }
    rightWall
    {
        type            kqRWallFunction;
        value           nonuniform List<scalar> 
50
(
0.00424853
0.00679698
0.0085519
0.0100488
0.0113536
0.0124858
0.0134427
0.014225
0.0148937
0.0158347
0.0171755
0.019224
0.0196376
0.01742
0.0142504
0.0131995
0.0136376
0.014154
0.0144591
0.0144921
0.0142487
0.0141125
0.0143429
0.0149175
0.0156934
0.0165379
0.0173922
0.0180585
0.0185277
0.018829
0.0189693
0.0189628
0.0189095
0.018871
0.0188085
0.0187072
0.018577
0.018414
0.0181866
0.0178567
0.0174906
0.0171959
0.0169609
0.0166947
0.0163746
0.0161688
0.0161785
0.0163627
0.016705
0.0169945
)
;
    }
    lowerWall
    {
        type            kqRWallFunction;
        value           nonuniform List<scalar> 
62
(
0.0017648
0.00382463
0.00558693
0.00704075
0.00831114
0.00947061
0.0105636
0.0116256
0.0126773
0.0137321
0.0148036
0.0158981
0.0170086
0.0181065
0.0191304
0.0199764
0.0205063
0.0205977
0.0199067
0.018443
0.0158482
0.0114721
0.00473685
0.00473685
0.0114034
0.0165821
0.0219425
0.0281029
0.0351721
0.0449924
0.0649162
0.0843636
0.0708484
0.0633574
0.05933
0.00645466
0.0121697
0.014769
0.0160659
0.0165731
0.0170622
0.0195852
0.0287164
0.00645466
0.011822
0.016398
0.019079
0.0200089
0.0203771
0.0204965
0.0199181
0.0178312
0.014605
0.0116672
0.00981479
0.00830516
0.00677238
0.00583177
0.0058085
0.00607539
0.00580528
0.00424853
)
;
    }
    atmosphere
    {
        type            inletOutlet;
        inletValue      uniform 0.1;
        value           nonuniform List<scalar> 
46
(
0.0311697
0.0582158
0.0668377
0.0709758
0.0734826
0.0752842
0.0768054
0.0782949
0.07991
0.0817516
0.083934
0.0866986
0.0904406
0.1
0.1
0.1
0.1
0.1
0.1
0.1
0.1
0.1
0.1
0.1
0.1
0.1
0.1
0.1
0.1
0.1
0.1
0.1
0.1
0.1
0.1
0.1
0.1
0.1
0.1
0.1
0.0623928
0.0521192
0.0458617
0.0403546
0.0330204
0.0169945
)
;
    }
    defaultFaces
    {
        type            empty;
    }
}


// ************************************************************************* //
