/*--------------------------------*- C++ -*----------------------------------*\
| =========                 |                                                 |
| \\      /  F ield         | OpenFOAM: The Open Source CFD Toolbox           |
|  \\    /   O peration     | Version:  2.3.0                                 |
|   \\  /    A nd           | Web:      www.OpenFOAM.org                      |
|    \\/     M anipulation  |                                                 |
\*---------------------------------------------------------------------------*/
FoamFile
{
    version     2.0;
    format      ascii;
    class       volScalarField;
    location    "2.2";
    object      p_rgh;
}
// * * * * * * * * * * * * * * * * * * * * * * * * * * * * * * * * * * * * * //

dimensions      [1 -1 -2 0 0 0 0];

internalField   nonuniform List<scalar> 
2268
(
710.431
709.656
709.086
708.609
708.198
707.87
707.66
707.604
707.706
707.973
708.392
708.938
709.581
710.289
711.043
711.833
712.677
713.609
714.163
715.717
718.87
721.463
722.979
710.642
709.815
709.196
708.696
708.261
707.904
707.652
707.536
707.582
707.792
708.156
708.654
709.261
709.956
710.739
711.63
712.683
713.958
714.363
716.301
719.341
721.024
722.58
710.837
710.087
709.413
708.868
708.382
707.969
707.651
707.458
707.42
707.548
707.835
708.268
708.825
709.501
710.311
711.307
712.574
714.394
714.732
716.378
717.334
720.452
722.684
711.035
710.405
709.674
709.069
708.515
708.029
707.631
707.356
707.232
707.279
707.495
707.87
708.387
709.045
709.871
710.926
712.311
714.264
716.993
715.364
715.988
718.731
722.89
711.255
710.731
709.951
709.268
708.633
708.062
707.579
707.221
707.018
706.994
707.153
707.485
707.975
708.621
709.447
710.509
711.897
713.762
716.55
715.65
714.224
718.151
723.559
711.5
711.046
710.227
709.455
708.725
708.061
707.487
707.046
706.768
706.68
706.793
707.095
707.567
708.205
709.019
710.045
711.348
713.008
715.293
717.383
717.511
719.312
724.591
711.771
711.353
710.499
709.627
708.793
708.026
707.358
706.832
706.474
706.32
706.387
706.661
707.118
707.749
708.542
709.499
710.644
712.014
713.769
715.308
715.846
718.16
725.683
712.075
711.665
710.766
709.779
708.827
707.954
707.194
706.585
706.139
705.906
705.917
706.154
706.588
707.211
707.98
708.835
709.746
710.726
711.886
712.769
712.751
714.915
725.989
811.451
804.459
807.476
813.43
819.061
822.609
823.542
821.173
816.81
816.75
823.593
830.773
835.881
836.42
836.087
841.503
850.708
861.794
864.494
811.542
803.818
808.567
814.417
820.432
824.505
825.604
821.764
815.434
814.161
822.428
832.583
837.731
836.333
834.782
837.972
847.825
858.177
862.139
810.777
804.586
808.584
814.022
819.801
823.584
824.841
824.193
822.516
813.647
818.876
831.281
839.561
835.303
834.453
834.479
838.526
849.367
861.1
807.196
805.011
809.51
814.825
820.284
823.855
825.002
824.229
823.437
815.682
818.317
829.105
842.042
837.027
833.343
833.232
836.114
856.643
862.196
802.409
806.032
811.017
816.351
821.572
824.997
826.233
825.347
823.922
823.35
827.443
838.685
844.154
844.55
831.707
831.629
838.153
856.842
859.567
798.556
805.442
812.93
818.254
823.394
826.842
828.257
826.783
822.102
825.268
834.341
840.534
845.516
852.525
841.112
830.482
851.787
855.178
857.119
802.882
805.516
815.087
820.326
825.482
829.072
830.981
829.898
797.722
773.461
817.683
840.375
846.432
853.456
858.286
854.993
856.435
853.979
854.937
800.938
806.436
817.029
822.506
827.806
831.676
834.331
835.471
779.71
701.98
717.105
827.364
847.192
853.783
857.505
856.326
855.97
853.259
853.742
712.622
712.13
711.098
709.892
708.73
707.688
706.809
706.13
705.596
705.302
705.293
705.533
705.978
706.624
707.382
708.098
708.619
708.937
709.166
708.934
708.091
707.922
712.08
613.394
608.046
600.357
592.877
585.95
580.712
577.426
576.944
577.644
579.918
584.264
589.943
595.718
601.06
605.87
610.137
613.257
614.301
614.605
612.131
604.679
591.36
585.928
88.2621
86.2466
81.7845
78.371
75.4873
71.9136
68.5119
65.671
64.1537
66.0819
68.1866
70.5265
73.1772
75.9306
78.383
78.8644
80.0178
82.5098
82.6972
78.6286
68.5153
53.6604
37.1465
3.2945
2.94148
4.00628
3.88918
3.47946
3.12749
2.86991
2.9019
3.20116
3.32028
3.31662
3.2487
3.07303
2.80055
2.61774
2.94642
3.9232
4.87826
6.04779
7.26723
8.36596
9.51217
9.51744
3.5034
2.73374
7.62227
8.55239
8.6519
8.74752
5.18352
2.74919
9.71512
12.6964
12.863
12.9781
13.1347
13.1041
9.89886
2.61525
17.3467
21.1047
22.1905
20.2333
21.1868
28.1395
20.6314
1.79946
1.20172
0.991949
0.326131
0.968155
2.97726
5.70614
5.78383
4.14236
2.2909
2.72265
2.66326
5.7556
6.7364
2.62842
1.81253
6.35685
12.4525
24.058
28.4586
29.2305
29.6066
22.2711
0.13455
0.132822
0.129424
0.135113
0.13316
0.126839
0.129345
0.18207
0.181375
0.239462
0.313991
0.498835
0.797182
1.03498
1.80808
1.27292
1.26292
0.779248
0.670853
3.48505
22.6597
29.7021
30.6606
0.126818
0.127081
0.128044
0.130709
0.129598
0.130159
0.139261
0.161819
0.172345
0.206021
0.512165
2.66621
2.89695
2.26149
0.773223
0.735551
0.703299
0.947217
0.486875
0.410732
0.364645
2.97268
22.3535
0.122623
0.123698
0.126852
0.129225
0.129128
0.129439
0.153783
0.163758
0.165554
0.172939
0.383554
2.53852
2.96781
3.03768
2.12268
0.666703
0.65006
1.55145
1.00674
0.306111
0.238581
0.222253
0.947503
0.1176
0.118977
0.121056
0.125394
0.122677
0.123398
0.141201
0.154025
0.1421
0.142642
0.151059
0.11148
1.37771
3.09105
3.05486
0.569837
0.607583
1.57568
1.55994
0.42294
0.178998
0.148592
0.123398
0.111964
0.113138
0.11376
0.115055
0.114687
0.11594
0.117396
0.123548
0.12093
0.119621
0.111249
0.0979795
0.0848717
0.435626
1.30656
1.0489
0.517953
1.5818
1.58533
0.984621
0.121037
0.0942855
0.0551324
0.106109
0.106749
0.107216
0.107557
0.10786
0.108222
0.108689
0.109172
0.108947
0.10632
0.0996262
0.0894358
0.0792684
0.0706099
0.0682893
0.165965
0.414267
1.43573
1.44269
0.277516
0.0738071
0.0864723
0.137167
0.10029
0.100187
0.100306
0.100479
0.100613
0.100679
0.100615
0.100242
0.0990683
0.096215
0.0908957
0.0833947
0.0754596
0.0686428
0.0646989
0.0681706
0.239117
0.305527
0.156052
0.0360781
0.0472503
0.155247
0.214202
0.0944547
0.0936962
0.0933869
0.0933477
0.0933264
0.0931903
0.092819
0.0920198
0.0904652
0.0876999
0.0833822
0.0776924
0.0714523
0.0655657
0.0609458
0.0602227
0.0600105
0.0383548
0.0310793
0.0277343
0.0238183
0.0959038
0.219405
0.0887024
0.0874206
0.0867112
0.0864536
0.0862901
0.0860108
0.0854684
0.0844843
0.0828237
0.0802314
0.0765646
0.071937
0.0667742
0.061506
0.0564827
0.0515933
0.0443893
0.0360708
0.0290336
0.0230612
0.015053
0.0104772
0.1671
0.0830777
0.0814421
0.0804323
0.0799781
0.0796764
0.0792753
0.0786215
0.0775603
0.0759156
0.0735227
0.0703035
0.0663308
0.0618297
0.0570164
0.0520123
0.0466363
0.0402781
0.0330764
0.0261073
0.0191021
0.0105622
0.00188237
0.0661378
0.0776071
0.0758727
0.0746457
0.0740236
0.0735704
0.073036
0.0722768
0.0711629
0.069561
0.0673522
0.0644749
0.0609596
0.0569204
0.0524721
0.0476714
0.0424283
0.0364949
0.0299366
0.0231352
0.0159169
0.00760957
-0.000518829
0.0213559
0.0723647
0.0706962
0.0694348
0.0686416
0.0680085
0.0673102
0.0664224
0.0652391
0.0636576
0.0615878
0.0589733
0.0558115
0.0521489
0.0480405
0.0435167
0.038541
0.0330123
0.02695
0.0204811
0.013513
0.00577021
-0.000450267
-0.0112061
0.0673362
0.0659559
0.0648022
0.0638422
0.0629891
0.0620963
0.0610588
0.0597831
0.0581876
0.0562029
0.0537785
0.0508931
0.0475533
0.0437767
0.0395744
0.0349344
0.0298182
0.0242275
0.0182031
0.0117043
0.00464528
-0.00178562
-0.0108231
0.0628275
0.0618406
0.060746
0.0595654
0.0584536
0.057362
0.0561817
0.0548126
0.053184
0.0512411
0.0489427
0.0462631
0.0431913
0.0397227
0.0358536
0.0315767
0.0268779
0.0217563
0.0162254
0.0102735
0.00393019
-0.00280278
-0.00972191
0.0588637
0.0681164
0.0571988
0.055596
0.0542468
0.0530222
0.0517565
0.0503315
0.0486805
0.0467612
0.0445447
0.0420124
0.0391511
0.0359474
0.0323882
0.0284637
0.0241668
0.0194971
0.0144617
0.00906413
0.00333945
-0.00261519
-0.00871646
0.122725
0.152636
0.113276
0.0538984
0.0501275
0.0489533
0.0477174
0.04631
0.0446775
0.0427931
0.0406435
0.0382221
0.0355227
0.0325338
0.0292407
0.0256317
0.0217004
0.017447
0.0128783
0.00800482
0.00286569
-0.00242895
-0.00783221
0.152053
0.152156
0.151973
0.0610682
0.046001
0.0451379
0.0440222
0.0427065
0.0411411
0.0393188
0.0372426
0.0349186
0.0323508
0.0295358
0.0264637
0.0231244
0.0195127
0.0156295
0.0114819
0.00708325
0.0024731
-0.00225017
-0.0070518
0.139366
0.150014
0.127752
0.0554906
0.0421471
0.0416161
0.0406822
0.0394901
0.0380167
0.0362765
0.0342855
0.0320596
0.0296111
0.0269454
0.0240601
0.0209505
0.0176141
0.0140532
0.0102757
0.00629519
0.00214742
-0.00208174
-0.00636606
0.0467672
0.0791805
0.0458994
0.0424818
0.0391084
0.0385147
0.0377269
0.0366297
0.0352391
0.0335822
0.0316818
0.0295574
0.0272258
0.0246979
0.0219788
0.0190697
0.0159724
0.0126915
0.00923542
0.00561736
0.00186843
-0.00193739
-0.00577939
0.0339351
0.0347163
0.0356066
0.0361404
0.0363037
0.0358617
0.0351203
0.0340681
0.0327356
0.0311513
0.0293379
0.0273148
0.0250992
0.0227045
0.0201403
0.0174129
0.014528
0.0114929
0.00831691
0.00501281
0.00160751
-0.00183534
-0.0052984
0.0315782
0.0326071
0.0335082
0.033927
0.0338986
0.033493
0.0327541
0.0317219
0.0304305
0.0289074
0.0271744
0.0252493
0.0231476
0.0208832
0.0184674
0.01591
0.0132195
0.0104052
0.00747761
0.00444921
0.00134366
-0.00178392
-0.00491794
0.0292454
0.0303978
0.0313417
0.0317451
0.0316833
0.0312575
0.0305195
0.0295071
0.0282541
0.0267886
0.0251324
0.0233023
0.0213124
0.0191758
0.0169048
0.0145104
0.0120029
0.00939275
0.00669127
0.00391092
0.00107291
-0.00177459
-0.00461663
0.0269095
0.0281044
0.0290845
0.0295166
0.0294684
0.0290556
0.0283388
0.0273592
0.0261529
0.0247497
0.0231724
0.0214376
0.0195594
0.0175503
0.0154226
0.0131877
0.0108567
0.00844054
0.00595082
0.00339989
0.000807002
-0.00178527
-0.0043621
0.02459
0.0257787
0.026772
0.0272373
0.027223
0.0268452
0.0261689
0.0252384
0.0240922
0.0227615
0.0212703
0.019636
0.0178728
0.0159935
0.0140101
0.0119343
0.00977693
0.00754915
0.00526239
0.00292866
0.000565539
-0.00178908
-0.00412034
0.0222957
0.0234499
0.0244336
0.0249226
0.0249466
0.0246147
0.0239924
0.0231256
0.0220533
0.0208077
0.0194131
0.0178877
0.0162462
0.0145017
0.0126663
0.0107512
0.0087672
0.00672508
0.00463591
0.00251119
0.000366923
-0.00176303
-0.00386392
0.0200336
0.0211341
0.022091
0.022591
0.0226497
0.0223671
0.0218068
0.0210143
0.0200281
0.0188797
0.0175931
0.0161869
0.0146759
0.0130733
0.0113908
0.0096396
0.00782999
0.00597242
0.00407741
0.0021558
0.000222065
-0.00169352
-0.00357655
0.0178103
0.0188434
0.0197602
0.0202584
0.0203444
0.0201099
0.0196152
0.0189041
0.0180134
0.0169728
0.0158054
0.014529
0.0131578
0.0117044
0.0101804
0.00859645
0.00696276
0.00528924
0.00358581
0.00186254
0.000132472
-0.00157734
-0.00325329
0.0156323
0.0165879
0.0174522
0.0179356
0.01804
0.0178497
0.0174212
0.0167958
0.0160078
0.0150846
0.0140471
0.0129109
0.0116882
0.0103905
0.00902939
0.00761542
0.00615857
0.00466831
0.00315387
0.00162456
9.21456e-05
-0.00141957
-0.00289815
0.0135046
0.0143744
0.0151732
0.0156287
0.0157418
0.0155905
0.0152274
0.0146909
0.0140122
0.0132157
0.0123186
0.0113326
0.010266
0.00912864
0.00793267
0.00668936
0.00540871
0.00409976
0.0027711
0.00143124
9.05668e-05
-0.0012304
-0.00252072
0.0114304
0.0122049
0.0129236
0.0133384
0.0134516
0.0133347
0.0130365
0.0125923
0.0120301
0.0113701
0.010625
0.00979958
0.00889489
0.00791901
0.00688702
0.00581209
0.0047046
0.00357333
0.00242615
0.00127054
0.000115307
-0.00102232
-0.00213312
0.00941107
0.0100768
0.0106997
0.0110635
0.0111707
0.0110855
0.0108531
0.0105059
0.0100681
0.00955575
0.00897537
0.00832225
0.00758339
0.00676496
0.005891
0.00497831
0.00403826
0.00307919
0.00210785
0.00113036
0.000153757
-0.000808017
-0.00174755
0.00744799
0.00798652
0.00849845
0.00880522
0.0089039
0.00885039
0.0086861
0.00844057
0.00813501
0.00778136
0.00738047
0.00691446
0.00634312
0.00567112
0.00494351
0.00418333
0.00340254
0.00260854
0.00180623
0.00099997
0.000194927
-0.000598254
-0.00137403
0.00554733
0.00593525
0.00632406
0.00657113
0.00666041
0.00663858
0.00654403
0.00640394
0.00623714
0.00605455
0.00585482
0.00560685
0.00520045
0.00464782
0.00404751
0.00342656
0.00279527
0.0021579
0.00151686
0.000874256
0.000233327
-0.000398435
-0.00101757
0.00372854
0.00394049
0.00418853
0.00436265
0.00443229
0.0044371
0.00441238
0.00438174
0.00436359
0.00437363
0.00443285
0.00450636
0.00425326
0.00372585
0.00320884
0.00271125
0.00221966
0.00173054
0.00124247
0.000755336
0.000270457
-0.000207326
-0.000676946
0.00203128
0.00205711
0.00212964
0.00218946
0.00221155
0.00223008
0.00227122
0.00235134
0.00248693
0.0027156
0.00313246
0.0038029
0.00371567
0.00294093
0.00241353
0.0020199
0.00166246
0.0013161
0.000975074
0.000636844
0.000301351
-2.81824e-05
-0.000349837
0.000531284
0.000439456
0.000382122
0.000348091
0.000334675
0.000357346
0.000424618
0.000541437
0.000718878
0.00100008
0.00153046
0.00257133
0.00282083
0.00164722
0.00114488
0.000900738
0.000722919
0.000563699
0.000411015
0.00026052
0.000111404
-3.46368e-05
-0.000174585
714.471
722.055
734.301
750.474
578.951
567.986
554.959
575.816
20.8861
25.9349
48.6486
90.9723
9.90887
10.216
10.6542
11.0105
9.19305
9.34624
9.36705
9.32183
9.01246
8.9796
9.10778
9.125
12.2797
8.37582
8.60519
8.69252
27.9561
28.718
28.0357
17.9209
11.266
26.2156
27.7674
26.5028
0.268366
1.07142
1.48708
1.30209
0.00578045
-0.0260031
-0.0606663
-0.0886351
-0.0184872
-0.0427284
-0.0636722
-0.0791914
0.0609849
-0.0369053
-0.0525692
-0.0656122
0.202679
-0.0170398
-0.0463846
-0.0568937
0.21396
0.052439
-0.0423969
-0.0510302
0.135463
0.00592615
-0.0392063
-0.0464803
-0.0111831
-0.0274854
-0.0356717
-0.0421053
-0.0198394
-0.0257379
-0.0319826
-0.0377736
-0.0176574
-0.0229258
-0.0285432
-0.0337368
-0.0157346
-0.0204187
-0.0254296
-0.0300602
-0.014037
-0.0181841
-0.0226297
-0.0267434
-0.0125362
-0.0161951
-0.0201249
-0.0237738
-0.0112084
-0.0144303
-0.0178985
-0.0211333
-0.0100431
-0.0128789
-0.0159368
-0.0188026
-0.00904116
-0.011537
-0.0142284
-0.0167613
-0.00820128
-0.0103971
-0.012758
-0.0149858
-0.00750825
-0.00943785
-0.0114994
-0.0134463
-0.00693088
-0.00862369
-0.0104156
-0.0121061
-0.006429
-0.00791152
-0.00946385
-0.0109245
-0.00596304
-0.00725959
-0.00860221
-0.00986116
-0.00550179
-0.00663434
-0.0077953
-0.00888014
-0.00502605
-0.00601369
-0.00701774
-0.00795358
-0.00452872
-0.00538761
-0.00625542
-0.00706367
-0.00401215
-0.00475568
-0.00550391
-0.00620185
-0.00348449
-0.00412368
-0.00476549
-0.00536655
-0.00295666
-0.00350057
-0.00404621
-0.00456045
-0.00243982
-0.00289593
-0.00335339
-0.00378799
-0.00194305
-0.00231759
-0.00269315
-0.0030531
-0.00147069
-0.00176896
-0.00206795
-0.00235708
-0.00102382
-0.00125113
-0.00147808
-0.00169881
-0.000584055
-0.000742092
-0.000903444
-0.00106301
-0.000271249
-0.00033893
-0.000409464
-0.000480287
788.254
806.292
818.553
825.937
831.69
835.897
837.538
843.189
794.935
695.567
695.34
697.601
770.198
807.988
807.586
807.017
850.446
852.634
850.416
690.931
780.69
816.717
828.223
832.43
807.732
801.311
828.246
839.626
781.501
688.04
687.589
680.335
683.246
695.912
810.508
855.542
852.438
844.458
225.831
411.756
539.291
602.878
617.384
614.274
654.188
742.228
794.533
814.688
826.343
806.221
659.186
834.126
826.905
824.127
829.629
778.575
694.051
12.272
19.9184
45.2629
71.2087
98.0755
126.89
150.031
182.794
344.806
552.797
644.643
663.042
666.762
632.455
605.993
486.893
329.262
212.321
118.504
9.58658
10.5531
11.664
13.0468
14.3233
17.1211
20.1695
21.3775
20.939
19.9207
73.3141
136.102
158.933
136.811
88.5725
43.766
7.2188
0.27234
0.333117
9.30794
9.97742
11.1067
12.2911
13.1818
15.9658
18.9206
20.165
20.6034
20.1204
15.9218
8.62303
1.18717
1.13058
-0.0152217
0.0698362
0.160082
0.202464
0.431195
8.8898
9.23413
16.5878
36.8014
39.0602
39.8423
40.0791
39.8996
39.4656
38.9411
32.7395
15.4997
0.48742
0.151409
0.132798
0.145254
0.160875
0.186522
0.57757
30.7528
38.6546
39.4984
39.1006
38.8772
37.094
33.2174
31.2449
29.7479
23.277
13.0147
15.6602
1.91729
0.114548
0.115583
0.125247
0.139858
0.175863
0.419844
21.3138
25.8169
23.7486
13.9278
6.56114
3.69529
2.01877
0.696154
-0.102277
-0.0952978
-0.0610063
-0.0662697
0.108333
0.0772544
0.0901216
0.102218
0.179619
0.300555
0.18539
0.597014
0.295552
0.0398749
0.151154
0.121914
0.124803
0.133686
0.134271
0.132416
0.03441
-0.0296425
-0.0226937
0.251532
0.0646114
0.0690466
0.0883667
0.298956
0.300724
0.185879
-0.114571
-0.118546
-0.0356725
0.392549
0.424601
0.430854
0.403181
0.359898
0.420625
0.424858
0.00248877
-0.023902
0.177151
0.0522548
0.0521212
0.182779
0.290677
0.291817
0.291973
-0.0956238
-0.107932
-0.0672811
0.314188
0.436013
0.443741
0.447112
0.44649
0.443005
0.447391
0.0355203
-0.0291585
-0.0210199
0.00770212
0.0609248
0.285948
0.28792
0.282719
0.104966
-0.0826774
-0.0957835
-0.102831
-0.109237
0.0960319
0.44641
0.465827
0.191259
0.142429
0.314679
0.16205
0.123846
-0.0261072
-0.024841
0.114147
0.287528
0.290721
0.0489886
-0.00635133
-0.0613936
-0.0595761
-0.0731684
-0.0901841
-0.0962744
-0.0794852
0.000726244
-0.103975
-0.0979181
0.00480261
0.284641
0.297322
0.0282482
-0.0470649
0.0519206
0.282707
0.21906
-0.0166728
-0.0124795
-0.0378523
-0.00825955
-0.0162261
-0.0537602
-0.0818426
-0.096709
-0.0979918
-0.0950173
-0.0897123
-0.0129983
0.245285
0.293898
0.0999805
-0.0528468
-0.0437165
-0.00685548
-0.0415461
-0.0226924
0.0833035
-0.0349979
0.00271044
-0.00464654
-0.0103476
-0.0260121
-0.0755725
-0.0875585
-0.0862295
-0.0821439
-0.0825257
-0.0797772
-0.0653846
-0.0564823
-0.055661
-0.031759
-0.0491075
-0.0440329
-0.0207072
0.108757
-0.0494173
-0.00163466
0.00569568
0.000452435
-0.00337785
-0.00574454
-0.0677816
-0.0792524
-0.0780159
-0.0760496
-0.0730861
-0.0683064
-0.0620968
-0.0558154
-0.0319294
-0.0497855
-0.0468244
-0.0221621
0.111085
-0.0455475
-0.0487093
0.00574678
0.0101822
0.00671645
0.00439472
-0.0367251
-0.072435
-0.0716516
-0.070008
-0.0673458
-0.0641691
-0.0599353
-0.0550198
-0.0528383
-0.0509919
-0.048858
-0.032841
0.115264
-0.0406581
-0.0481478
-0.0519751
-0.0159168
0.0157998
0.0134989
-0.0325414
-0.066417
-0.0659329
-0.0628079
-0.0600155
-0.0590462
-0.057581
-0.0552136
-0.0530834
-0.0513065
-0.0498131
-0.0395
0.120934
-0.0362221
-0.0428333
-0.048721
-0.0538211
-0.055298
-0.0514597
-0.0536978
-0.0599689
-0.0607735
-0.0570348
-0.0559235
-0.0542922
-0.0545039
-0.0538887
-0.0523219
-0.0509903
-0.0498022
-0.0411068
0.127602
-0.0322307
-0.038101
-0.0433385
-0.0478619
-0.0514546
-0.0539733
-0.0554072
-0.0561153
-0.0554393
-0.0528297
-0.0522708
-0.05132
-0.0524845
-0.0523225
-0.0511491
-0.0500632
-0.048956
-0.0413911
0.13516
-0.02867
-0.0339261
-0.0386367
-0.042754
-0.0461234
-0.0486716
-0.0504235
-0.0515729
-0.052267
-0.0512016
-0.0489014
-0.0505617
-0.0512696
-0.0504338
-0.0494873
-0.0484735
-0.0472446
-0.0445809
0.139352
-0.0255122
-0.0302575
-0.0345414
-0.0383411
-0.0415396
-0.0440954
-0.0460346
-0.047465
-0.0484892
-0.0491427
-0.0482653
-0.0478108
-0.048282
-0.0478225
-0.0472256
-0.0461872
-0.0445916
-0.0422772
0.0373054
-0.0227229
-0.0270297
-0.0309521
-0.0344802
-0.0375213
-0.0400473
-0.0420773
-0.0436703
-0.0448833
-0.0457392
-0.046238
-0.0461296
-0.0454804
-0.0449299
-0.0444478
-0.0433204
-0.0412389
-0.0381255
0.00920556
-0.0202665
-0.0241817
-0.0277788
-0.0310539
-0.0339294
-0.036382
-0.0384227
-0.040082
-0.0413897
-0.0423569
-0.0429787
-0.0432422
-0.0430254
-0.0424965
-0.0415927
-0.0401193
-0.0376919
-0.0339067
0.113534
-0.0181076
-0.0216615
-0.0249523
-0.0279773
-0.0306689
-0.0330057
-0.0349911
-0.0366391
-0.0379631
-0.0389655
-0.0396368
-0.0399577
-0.0399013
-0.0394223
-0.038442
-0.036808
-0.0342239
-0.0214344
0.121933
-0.016211
-0.0194252
-0.0224214
-0.025194
-0.0276831
-0.0298683
-0.0317479
-0.0333261
-0.0346066
-0.0355863
-0.0362524
-0.0365819
-0.0365406
-0.0360758
-0.0351048
-0.0334786
-0.0309029
-0.00128937
0.130337
-0.0145401
-0.0174344
-0.0201465
-0.0226664
-0.0249403
-0.0269496
-0.0286892
-0.0301581
-0.0313545
-0.0322721
-0.0328966
-0.0332038
-0.0331573
-0.0327042
-0.0317662
-0.0302081
-0.0277478
0.0062257
0.13862
-0.013057
-0.0156525
-0.0180938
-0.0203662
-0.0224214
-0.0242429
-0.0258243
-0.0271618
-0.0282511
-0.0290842
-0.0296461
-0.0299127
-0.0298478
-0.0294007
-0.0285007
-0.0270287
-0.0247065
-0.0083346
0.146639
-0.0117242
-0.0140441
-0.0162314
-0.0182676
-0.0201096
-0.0217432
-0.0231619
-0.0243609
-0.0253348
-0.026075
-0.0265662
-0.0267839
-0.0266919
-0.0262408
-0.0253653
-0.0239541
-0.021725
-0.0181211
0.153947
-0.0105066
-0.0125753
-0.0145284
-0.0163448
-0.0179862
-0.0194408
-0.0207029
-0.0217677
-0.0226296
-0.0232797
-0.0237021
-0.0238713
-0.0237491
-0.0232843
-0.0224094
-0.0210039
-0.0187736
-0.0153267
0.123208
-0.00937458
-0.0112165
-0.0129564
-0.014572
-0.0160298
-0.0173201
-0.0184386
-0.0193812
-0.0201427
-0.0207138
-0.0210781
-0.0212077
-0.0210604
-0.0205791
-0.019688
-0.0182419
-0.0158974
-0.0122086
0.0346162
-0.00830674
-0.0099443
-0.0114915
-0.0129258
-0.0142181
-0.0153613
-0.0163524
-0.0171887
-0.0178657
-0.0183746
-0.0186979
-0.0188053
-0.0186489
-0.0181653
-0.0172737
-0.0158172
-0.0134033
0.00418745
0.0949124
-0.00728971
-0.0087424
-0.0101148
-0.0113852
-0.0125291
-0.0135415
-0.0144213
-0.0151675
-0.0157772
-0.0162425
-0.0165463
-0.016656
-0.0165165
-0.0160578
-0.0152062
-0.0138301
-0.0115814
0.0401038
0.123847
-0.00631689
-0.00760003
-0.00881185
-0.00993219
-0.0109413
-0.0118362
-0.0126179
-0.0132875
-0.013845
-0.0142851
-0.0145925
-0.0147338
-0.0146414
-0.0142308
-0.0134393
-0.0121786
-0.0101709
0.0108831
0.127683
-0.00538604
-0.00651014
-0.00757086
-0.00855053
-0.00943385
-0.01022
-0.0109119
-0.0115138
-0.0120297
-0.01246
-0.0127941
-0.0130015
-0.0129935
-0.0126451
-0.011893
-0.010682
-0.00873872
-0.000150905
0.0139534
-0.00449688
-0.00546745
-0.00638191
-0.00722545
-0.00798699
-0.00866744
-0.0092718
-0.00980814
-0.0102867
-0.0107167
-0.0110971
-0.0114121
-0.0115479
-0.0112872
-0.010541
-0.00929712
-0.00726672
-0.00394936
-0.000300652
-0.00364932
-0.00446761
-0.00523667
-0.00594455
-0.00658364
-0.00715599
-0.00766836
-0.00813283
-0.00856767
-0.00899514
-0.00942885
-0.00989981
-0.0102911
-0.0101766
-0.009409
-0.00811025
-0.00599713
-0.00256133
0.00115935
-0.00284218
-0.00350737
-0.00413012
-0.00470071
-0.00521382
-0.00567153
-0.00608083
-0.00645579
-0.00682138
-0.00721914
-0.00769705
-0.00840901
-0.00927499
-0.00943409
-0.00853823
-0.00717528
-0.00508523
-0.00165468
0.00208288
-0.00207226
-0.00258443
-0.00306101
-0.00349344
-0.00387727
-0.00421298
-0.00450459
-0.00476134
-0.0050041
-0.0053088
-0.00581486
-0.00683956
-0.00890009
-0.00972038
-0.00807981
-0.00645373
-0.00448036
-0.00120817
0.0024622
-0.00133078
-0.00169025
-0.00202004
-0.00231317
-0.0025655
-0.00277495
-0.00293981
-0.00305578
-0.00312442
-0.00327475
-0.00364757
-0.00500931
-0.0100237
-0.0122933
-0.00815321
-0.00570985
-0.0020989
-0.000695314
0.00214568
-0.00059572
-0.000740309
-0.000866569
-0.000972215
-0.00105665
-0.00112027
-0.00116465
-0.00119141
-0.00122285
-0.00138788
-0.00193872
-0.00389309
-0.0113436
-0.0112825
-0.00576949
-0.00242467
0.00132089
0.00315381
0.00263736
)
;

boundaryField
{
    leftWall
    {
        type            fixedFluxPressure;
        gradient        uniform 0;
        value           nonuniform List<scalar> 
50
(
710.431
710.642
710.837
711.035
711.255
711.5
711.771
712.075
712.622
613.394
88.2621
3.2945
3.5034
1.79946
0.13455
0.126818
0.122623
0.1176
0.111964
0.106109
0.10029
0.0944547
0.0887024
0.0830777
0.0776071
0.0723647
0.0673362
0.0628275
0.0588637
0.122725
0.152053
0.139366
0.0467672
0.0339351
0.0315782
0.0292454
0.0269095
0.02459
0.0222957
0.0200336
0.0178103
0.0156323
0.0135046
0.0114304
0.00941107
0.00744799
0.00554733
0.00372854
0.00203128
0.000531284
)
;
    }
    rightWall
    {
        type            fixedFluxPressure;
        gradient        uniform 0;
        value           nonuniform List<scalar> 
50
(
864.494
862.139
861.1
862.196
859.567
857.119
854.937
853.742
850.416
844.458
694.051
118.504
0.333117
0.431195
0.57757
0.419844
0.18539
0.185879
0.291973
0.104966
-0.00635133
-0.0124795
0.0833035
0.108757
0.111085
0.115264
0.120934
0.127602
0.13516
0.139352
0.0373054
0.00920556
0.113534
0.121933
0.130337
0.13862
0.146639
0.153947
0.123208
0.0346162
0.0949124
0.123847
0.127683
0.0139534
-0.000300652
0.00115935
0.00208288
0.0024622
0.00214568
0.00263736
)
;
    }
    lowerWall
    {
        type            fixedFluxPressure;
        gradient        uniform 0;
        value           nonuniform List<scalar> 
62
(
710.431
709.656
709.086
708.609
708.198
707.87
707.66
707.604
707.706
707.973
708.392
708.938
709.581
710.289
711.043
711.833
712.677
713.609
714.163
715.717
718.87
721.463
722.979
722.979
722.58
722.684
722.89
723.559
724.591
725.683
725.989
714.471
722.055
734.301
750.474
811.451
811.542
810.777
807.196
802.409
798.556
802.882
800.938
811.451
804.459
807.476
813.43
819.061
822.609
823.542
821.173
816.81
816.75
823.593
830.773
835.881
836.42
836.087
841.503
850.708
861.794
864.494
)
;
    }
    atmosphere
    {
        type            totalPressure;
        rho             rho;
        psi             none;
        gamma           1;
        p0              uniform 0;
        value           nonuniform List<scalar> 
46
(
0
0
0
0
0
0
0
0
0
0
0
0
0
-1.74697e-06
-8.83577e-06
-2.09704e-05
-3.78263e-05
-5.89341e-05
-8.35551e-05
-0.0001107
-0.000139159
-0.0001675
-0.000194058
-0.00021058
-0.000218881
-0.000224463
-0.000227582
-0.000229326
-0.000221483
-0.000204648
-0.000180947
-0.000152874
-0.00012311
-9.42886e-05
-6.86964e-05
-4.79254e-05
-3.26313e-05
-2.09645e-05
-1.18112e-05
-1.47521e-06
0
0
0
0
0
0
)
;
    }
    defaultFaces
    {
        type            empty;
    }
}


// ************************************************************************* //
