/*--------------------------------*- C++ -*----------------------------------*\
| =========                 |                                                 |
| \\      /  F ield         | OpenFOAM: The Open Source CFD Toolbox           |
|  \\    /   O peration     | Version:  2.3.0                                 |
|   \\  /    A nd           | Web:      www.OpenFOAM.org                      |
|    \\/     M anipulation  |                                                 |
\*---------------------------------------------------------------------------*/
FoamFile
{
    version     2.0;
    format      ascii;
    class       surfaceScalarField;
    location    "2.2";
    object      phi;
}
// * * * * * * * * * * * * * * * * * * * * * * * * * * * * * * * * * * * * * //

dimensions      [0 3 -1 0 0 0 0];

internalField   nonuniform List<scalar> 
4432
(
-1.02009e-06
1.02009e-06
-1.49498e-06
4.74895e-07
-1.68308e-06
1.88101e-07
-1.76761e-06
8.45355e-08
-1.83095e-06
6.33365e-08
-1.88104e-06
5.00875e-08
-1.90288e-06
2.18403e-08
-1.88483e-06
-1.80385e-08
-1.82174e-06
-6.30862e-08
-1.7134e-06
-1.08341e-07
-1.5626e-06
-1.50815e-07
-1.37471e-06
-1.87895e-07
-1.15926e-06
-2.15447e-07
-9.33764e-07
-2.25496e-07
-7.30865e-07
-2.02898e-07
-6.04492e-07
-1.26371e-07
-6.27858e-07
2.33821e-08
-9.24501e-07
2.96648e-07
-2.00544e-06
1.08093e-06
-3.48956e-06
1.48412e-06
-4.23943e-06
7.49853e-07
-3.17175e-06
-1.06768e-06
-3.17175e-06
-8.4641e-07
1.86651e-06
-1.12686e-06
7.55354e-07
-1.30953e-06
3.70768e-07
-1.45248e-06
2.27487e-07
-1.56777e-06
1.78629e-07
-1.65078e-06
1.33099e-07
-1.69135e-06
6.2417e-08
-1.67938e-06
-3.00048e-08
-1.61227e-06
-1.30209e-07
-1.49179e-06
-2.28827e-07
-1.32299e-06
-3.19616e-07
-1.11358e-06
-3.97307e-07
-8.74888e-07
-4.54141e-07
-6.24442e-07
-4.75933e-07
-3.91586e-07
-4.35735e-07
-2.23258e-07
-2.94699e-07
-1.85153e-07
-1.47225e-08
-3.77955e-07
4.89462e-07
-8.54253e-07
1.55721e-06
-1.53952e-06
2.16939e-06
-2.20791e-06
1.41824e-06
-2.16432e-06
-1.1113e-06
-5.33606e-06
-5.83994e-07
2.45051e-06
-8.50642e-07
1.022e-06
-1.0595e-06
5.7963e-07
-1.24345e-06
4.11432e-07
-1.39514e-06
3.30319e-07
-1.50436e-06
2.42321e-07
-1.55999e-06
1.18053e-07
-1.55426e-06
-3.57329e-08
-1.48547e-06
-1.99001e-07
-1.35662e-06
-3.57683e-07
-1.17383e-06
-5.0241e-07
-9.45886e-07
-6.25249e-07
-6.84584e-07
-7.15442e-07
-4.06364e-07
-7.54149e-07
-1.36922e-07
-7.05163e-07
8.41406e-08
-5.1576e-07
2.01821e-07
-1.32406e-07
1.62418e-07
5.28872e-07
6.70954e-08
1.65252e-06
-1.99407e-07
2.43589e-06
-6.69552e-07
1.88838e-06
-1.00606e-06
-7.74816e-07
-6.34212e-06
-3.58731e-07
2.80925e-06
-6.29511e-07
1.29279e-06
-8.67105e-07
8.17228e-07
-1.08494e-06
6.29269e-07
-1.26767e-06
5.13046e-07
-1.40052e-06
3.75178e-07
-1.47105e-06
1.88588e-07
-1.47179e-06
-3.49989e-08
-1.40189e-06
-2.68899e-07
-1.26493e-06
-4.94649e-07
-1.06756e-06
-6.99786e-07
-8.18998e-07
-8.73808e-07
-5.30821e-07
-1.00362e-06
-2.17598e-07
-1.06737e-06
9.92556e-08
-1.02201e-06
3.87614e-07
-8.04115e-07
6.05784e-07
-3.50579e-07
7.30294e-07
4.04369e-07
8.66904e-07
1.5159e-06
9.0089e-07
2.4019e-06
6.63223e-07
2.12606e-06
2.2118e-07
-3.32794e-07
-6.12094e-06
-1.89193e-07
2.99845e-06
-4.52925e-07
1.55652e-06
-7.14309e-07
1.07861e-06
-9.60906e-07
8.75866e-07
-1.17105e-06
7.23195e-07
-1.32595e-06
5.30074e-07
-1.41126e-06
2.73906e-07
-1.41889e-06
-2.73785e-08
-1.34829e-06
-3.395e-07
-1.20312e-06
-6.39821e-07
-9.90039e-07
-9.1287e-07
-7.18275e-07
-1.14557e-06
-3.98801e-07
-1.32309e-06
-4.3855e-08
-1.42231e-06
3.29827e-07
-1.39569e-06
6.97686e-07
-1.17197e-06
1.03044e-06
-6.83335e-07
1.32145e-06
1.13361e-07
1.63407e-06
1.20328e-06
1.90431e-06
2.13166e-06
1.8887e-06
2.14167e-06
1.31527e-06
2.40607e-07
-4.80567e-06
-7.03753e-08
3.06883e-06
-3.18805e-07
1.80495e-06
-5.95702e-07
1.35552e-06
-8.64925e-07
1.14509e-06
-1.09818e-06
9.56452e-07
-1.27276e-06
7.04659e-07
-1.37213e-06
3.73277e-07
-1.38689e-06
-1.26251e-08
-1.3162e-06
-4.10195e-07
-1.16318e-06
-7.92843e-07
-9.33958e-07
-1.14209e-06
-6.3747e-07
-1.44205e-06
-2.84e-07
-1.67655e-06
1.16626e-07
-1.82294e-06
5.52266e-07
-1.83133e-06
1.00548e-06
-1.62518e-06
1.45697e-06
-1.13483e-06
1.90514e-06
-3.34811e-07
2.38851e-06
7.19904e-07
2.84884e-06
1.67133e-06
3.03247e-06
1.95805e-06
2.39516e-06
8.77891e-07
-2.41051e-06
7.3446e-09
3.06149e-06
-2.22613e-07
2.03491e-06
-5.06195e-07
1.6391e-06
-7.90334e-07
1.42923e-06
-1.04059e-06
1.20671e-06
-1.23089e-06
8.94961e-07
-1.34251e-06
4.84885e-07
-1.36426e-06
9.12971e-09
-1.29443e-06
-4.80033e-07
-1.13485e-06
-9.52417e-07
-8.90561e-07
-1.38639e-06
-5.70062e-07
-1.76255e-06
-1.83143e-07
-2.06347e-06
2.6247e-07
-2.26855e-06
7.58797e-07
-2.32765e-06
1.29463e-06
-2.16101e-06
1.85827e-06
-1.69847e-06
2.45042e-06
-9.26969e-07
3.095e-06
7.53226e-08
3.73201e-06
1.03432e-06
4.11846e-06
1.57159e-06
3.5137e-06
1.48263e-06
1.1032e-06
5.73351e-08
3.00416e-06
-1.55959e-07
2.24821e-06
-4.39132e-07
1.92228e-06
-7.29195e-07
1.7193e-06
-9.88204e-07
1.46572e-06
-1.18831e-06
1.09507e-06
-1.30919e-06
6.05762e-07
-1.33728e-06
3.72114e-08
-1.26964e-06
-5.47675e-07
-1.10582e-06
-1.11623e-06
-8.49257e-07
-1.64295e-06
-5.0813e-07
-2.10368e-06
-9.2322e-08
-2.47927e-06
3.9183e-07
-2.75271e-06
9.39828e-07
-2.87565e-06
1.54599e-06
-2.76718e-06
2.20489e-06
-2.35738e-06
2.91945e-06
-1.64153e-06
3.7049e-06
-7.10128e-07
4.51347e-06
2.25743e-07
5.13608e-06
9.48968e-07
4.91498e-06
1.70374e-06
6.01819e-06
-7.41646e-06
7.41646e-06
-1.23608e-05
4.94433e-06
-1.15748e-05
-7.85953e-07
-9.58854e-06
-1.98629e-06
-7.71099e-06
-1.87755e-06
-5.71096e-06
-2.00005e-06
-3.22907e-06
-2.4819e-06
-7.14599e-07
-2.51445e-06
2.23607e-07
-9.38233e-07
-1.90604e-06
2.12962e-06
-5.6734e-06
3.7674e-06
-8.18417e-06
2.51078e-06
-9.55538e-06
1.3712e-06
-1.2334e-05
2.77867e-06
-1.65395e-05
4.20551e-06
-1.77148e-05
1.1753e-06
-1.43463e-05
-3.36855e-06
-6.93401e-06
-7.41229e-06
-6.93403e-06
-7.75002e-06
1.51665e-05
-9.82511e-06
7.01943e-06
-9.25962e-06
-1.35145e-06
-8.32684e-06
-2.91908e-06
-7.27635e-06
-2.92804e-06
-5.98258e-06
-3.29382e-06
-4.3446e-06
-4.11991e-06
-2.65274e-06
-4.20629e-06
-1.86624e-06
-1.72469e-06
-3.45949e-06
3.72286e-06
-6.31603e-06
6.62397e-06
-8.65312e-06
4.84789e-06
-1.04589e-05
3.17696e-06
-1.28139e-05
5.13366e-06
-1.48387e-05
6.23031e-06
-1.50495e-05
1.38612e-06
-1.26198e-05
-5.79825e-06
-7.11018e-06
-1.2922e-05
-1.40442e-05
-6.20538e-06
2.13719e-05
-7.39968e-06
8.21372e-06
-7.59178e-06
-1.15935e-06
-7.44588e-06
-3.06499e-06
-7.03619e-06
-3.33771e-06
-6.30694e-06
-4.02305e-06
-5.2468e-06
-5.18005e-06
-4.11034e-06
-5.34271e-06
-3.62274e-06
-2.21228e-06
-4.69444e-06
4.7945e-06
-6.69195e-06
8.62146e-06
-8.70022e-06
6.85621e-06
-1.0402e-05
4.87869e-06
-1.17219e-05
6.45358e-06
-1.24955e-05
7.00391e-06
-1.24067e-05
1.29738e-06
-1.06321e-05
-7.57293e-06
-6.144e-06
-1.741e-05
-2.01882e-05
-4.48096e-06
2.58528e-05
-5.4687e-06
9.20145e-06
-6.2812e-06
-3.46842e-07
-6.83205e-06
-2.51413e-06
-7.01324e-06
-3.1565e-06
-6.79239e-06
-4.2439e-06
-6.18306e-06
-5.78942e-06
-5.42837e-06
-6.09742e-06
-5.23323e-06
-2.40739e-06
-5.96598e-06
5.52726e-06
-7.30955e-06
9.96504e-06
-8.90996e-06
8.45664e-06
-1.04318e-05
6.40053e-06
-1.10449e-05
7.06669e-06
-1.09844e-05
6.94342e-06
-1.03999e-05
7.12826e-07
-8.48558e-06
-9.48724e-06
-4.81331e-06
-2.10823e-05
-2.50015e-05
-2.71811e-06
2.85709e-05
-3.81416e-06
1.02975e-05
-5.28611e-06
1.12512e-06
-6.49796e-06
-1.30232e-06
-7.23227e-06
-2.42221e-06
-7.48778e-06
-3.9884e-06
-7.28127e-06
-5.99594e-06
-6.80475e-06
-6.57394e-06
-6.72518e-06
-2.48693e-06
-7.27005e-06
6.07215e-06
-8.1447e-06
1.08397e-05
-9.33864e-06
9.65059e-06
-1.05341e-05
7.59601e-06
-1.07249e-05
7.25743e-06
-1.00194e-05
6.23799e-06
-8.88036e-06
-4.26269e-07
-6.63461e-06
-1.1733e-05
-3.75225e-06
-2.39647e-05
-2.87538e-05
-9.72856e-07
2.95438e-05
-2.41239e-06
1.1737e-05
-4.64189e-06
3.3546e-06
-6.47616e-06
5.31917e-07
-7.71347e-06
-1.18491e-06
-8.41834e-06
-3.28352e-06
-8.59905e-06
-5.8152e-06
-8.3388e-06
-6.83419e-06
-8.22996e-06
-2.59576e-06
-8.63814e-06
6.48033e-06
-9.16352e-06
1.13651e-05
-9.93402e-06
1.04211e-05
-1.0685e-05
8.34698e-06
-1.05526e-05
7.12507e-06
-9.43428e-06
5.11964e-06
-7.73427e-06
-2.12629e-06
-5.38004e-06
-1.40872e-05
-2.96352e-06
-2.63812e-05
-3.17173e-05
8.23978e-07
2.87198e-05
-1.37858e-06
1.39396e-05
-4.41929e-06
6.39534e-06
-6.78648e-06
2.89912e-06
-8.45258e-06
4.81197e-07
-9.57703e-06
-2.15905e-06
-1.01592e-05
-5.23303e-06
-1.01568e-05
-6.83655e-06
-9.95112e-06
-2.80145e-06
-1.00332e-05
6.56239e-06
-1.02462e-05
1.15781e-05
-1.0563e-05
1.07379e-05
-1.08415e-05
8.62545e-06
-1.03573e-05
6.6409e-06
-8.96057e-06
3.72287e-06
-6.91759e-06
-4.16927e-06
-4.55274e-06
-1.64521e-05
-2.35123e-06
-2.85827e-05
-3.40686e-05
2.18781e-06
2.6532e-05
-9.63978e-07
1.70913e-05
-4.67106e-06
1.01024e-05
-7.40971e-06
5.63777e-06
-9.40231e-06
2.47379e-06
-1.09061e-05
-6.55244e-07
-1.19095e-05
-4.22963e-06
-1.22813e-05
-6.46477e-06
-1.20209e-05
-3.06182e-06
-1.15794e-05
6.12085e-06
-1.11601e-05
1.11588e-05
-1.11209e-05
1.06986e-05
-1.09449e-05
8.44948e-06
-1.00521e-05
5.74804e-06
-8.43644e-06
2.10725e-06
-6.24919e-06
-6.35653e-06
-3.87172e-06
-1.88296e-05
-1.87187e-06
-3.05825e-05
-3.59404e-05
2.30513e-07
2.77365e-06
-1.76445e-07
2.65517e-06
-7.64541e-07
2.51037e-06
-1.3723e-06
2.32706e-06
-1.91984e-06
2.01326e-06
-2.35272e-06
1.52795e-06
-2.62983e-06
8.82867e-07
-2.70415e-06
1.11536e-07
-2.57332e-06
-6.78506e-07
-2.21984e-06
-1.46971e-06
-1.645e-06
-2.21779e-06
-8.66728e-07
-2.88194e-06
8.87335e-08
-3.43474e-06
1.20845e-06
-3.87243e-06
2.4912e-06
-4.1584e-06
3.94546e-06
-4.22143e-06
5.58035e-06
-3.99228e-06
7.40704e-06
-3.46822e-06
9.46941e-06
-2.77249e-06
1.16868e-05
-1.99167e-06
1.38141e-05
-1.17835e-06
1.55927e-05
-7.4785e-08
1.93542e-06
1.96754e-05
-4.13588e-08
2.81501e-06
-3.52574e-07
2.96639e-06
-7.92617e-07
2.95042e-06
-1.24491e-06
2.77935e-06
-1.65257e-06
2.42092e-06
-2.00284e-06
1.87822e-06
-2.26965e-06
1.14968e-06
-2.38387e-06
2.25755e-07
-2.28541e-06
-7.7697e-07
-1.92622e-06
-1.8289e-06
-1.32667e-06
-2.81735e-06
-5.10799e-07
-3.69782e-06
4.8175e-07
-4.42729e-06
1.59851e-06
-4.98919e-06
2.80968e-06
-5.36957e-06
4.18734e-06
-5.5991e-06
5.82204e-06
-5.62697e-06
7.76005e-06
-5.40624e-06
1.00263e-05
-5.03873e-06
1.25204e-05
-4.48579e-06
1.50695e-05
-3.72744e-06
1.72815e-05
-2.28677e-06
1.05928e-06
1.81576e-05
-7.75062e-07
3.59007e-06
-1.08537e-06
3.27668e-06
-1.14267e-06
3.00771e-06
-1.19228e-06
2.82895e-06
-1.25939e-06
2.48803e-06
-1.41951e-06
2.03834e-06
-1.7423e-06
1.47248e-06
-2.0972e-06
5.80651e-07
-2.10757e-06
-7.66601e-07
-1.72791e-06
-2.20856e-06
-1.12837e-06
-3.41689e-06
-2.97286e-07
-4.52891e-06
7.51332e-07
-5.47591e-06
1.72374e-06
-5.9616e-06
2.27314e-06
-5.91896e-06
2.8302e-06
-6.15617e-06
3.86195e-06
-6.65873e-06
5.55792e-06
-7.10223e-06
7.72632e-06
-7.20713e-06
1.02599e-05
-7.0193e-06
1.31117e-05
-6.57924e-06
1.57556e-05
-4.93066e-06
3.1709e-06
1.36439e-05
-2.81448e-06
6.40453e-06
-7.77366e-06
8.23587e-06
-5.57831e-06
8.12312e-07
-3.78085e-06
1.03148e-06
-2.92788e-06
1.63505e-06
-2.09254e-06
1.203e-06
-3.07368e-06
2.45362e-06
-5.87554e-06
3.38251e-06
-5.56145e-06
-1.08072e-06
-4.60452e-06
-3.16551e-06
-3.88572e-06
-4.13572e-06
-2.624e-06
-5.79064e-06
-4.18693e-07
-7.68121e-06
1.04662e-06
-7.42684e-06
-1.30558e-06
-3.56667e-06
-8.36644e-06
9.04726e-07
-1.01959e-05
-4.82926e-06
-9.81202e-06
-7.48608e-06
-8.50299e-06
-8.51609e-06
-7.21472e-06
-8.30755e-06
-5.07189e-06
-8.72218e-06
-1.9071e-06
-8.09546e-06
4.39815e-06
-3.13437e-06
-7.01877e-06
1.34231e-05
-1.51977e-05
1.64147e-05
-1.4326e-05
-5.9406e-08
-1.42678e-05
9.7329e-07
-1.4656e-05
2.02324e-06
-1.46246e-05
1.17156e-06
-1.43892e-05
2.21817e-06
-1.51048e-05
4.09805e-06
-1.44597e-05
-1.72586e-06
-1.45937e-05
-3.0315e-06
-1.45733e-05
-4.15617e-06
-1.46146e-05
-5.74938e-06
-1.3447e-05
-8.84866e-06
-1.39281e-05
-6.9457e-06
-2.17075e-05
4.21276e-06
-3.84956e-05
1.76928e-05
-4.0817e-05
-2.50776e-06
-4.24615e-05
-5.84156e-06
-4.33219e-05
-7.65567e-06
-4.2547e-05
-9.08249e-06
-3.93074e-05
-1.19618e-05
-3.59012e-05
-1.15015e-05
5.43995e-07
-3.20472e-05
-3.7462e-06
1.71692e-05
-4.6075e-06
1.72757e-05
-1.06696e-05
6.00265e-06
-1.59513e-05
6.25489e-06
-1.85136e-05
4.58548e-06
-1.898e-05
1.63787e-06
-1.72968e-05
5.34943e-07
-1.46045e-05
1.40572e-06
-1.58021e-05
-5.28291e-07
-1.88273e-05
-6.32338e-09
-2.0634e-05
-2.34944e-06
-2.13187e-05
-5.06474e-06
-2.08239e-05
-9.34343e-06
-2.24901e-05
-5.27941e-06
-2.92795e-05
1.10022e-05
-3.49958e-05
2.34091e-05
-4.33377e-05
5.83416e-06
-4.8492e-05
-6.87218e-07
-5.18575e-05
-4.29019e-06
-5.45872e-05
-6.35285e-06
-5.51709e-05
-1.13782e-05
-5.67029e-05
-9.96938e-06
1.64493e-07
-5.63235e-05
-2.50738e-06
1.96765e-05
-2.73229e-06
1.75003e-05
-7.60305e-06
1.08732e-05
-1.06752e-05
9.32688e-06
-1.31836e-05
7.09367e-06
-1.56063e-05
4.06053e-06
-1.77174e-05
2.64598e-06
-1.95346e-05
3.22295e-06
-2.39792e-05
3.91636e-06
-2.89087e-05
4.9231e-06
-3.26549e-05
1.39652e-06
-3.00873e-05
-7.63245e-06
-2.85496e-05
-1.0881e-05
-2.84486e-05
-5.38033e-06
-2.70305e-05
9.58428e-06
-2.56288e-05
2.20074e-05
-3.41894e-05
1.43948e-05
-4.36899e-05
8.8132e-06
-5.43707e-05
6.39059e-06
-6.24686e-05
1.74529e-06
-6.44477e-05
-9.3991e-06
-6.83169e-05
-6.10014e-06
2.03287e-06
-7.01853e-05
-1.02751e-07
1.9779e-05
-6.88697e-07
1.80861e-05
-3.51297e-06
1.36972e-05
-5.97773e-06
1.17914e-05
-8.63498e-06
9.75068e-06
-1.21989e-05
7.62434e-06
-1.61765e-05
6.62357e-06
-2.04251e-05
7.47165e-06
-2.55019e-05
8.99317e-06
-3.00698e-05
9.49084e-06
-3.24933e-05
3.81978e-06
-3.17049e-05
-8.42086e-06
-3.05722e-05
-1.20136e-05
-2.82301e-05
-7.72247e-06
-2.39483e-05
5.30248e-06
-2.14556e-05
1.95148e-05
-2.60189e-05
1.89584e-05
-3.11485e-05
1.3943e-05
-3.92193e-05
1.44614e-05
-5.04384e-05
1.29645e-05
-6.44604e-05
4.62301e-06
-7.18702e-05
1.30952e-06
1.05167e-06
-7.08891e-05
1.2246e-06
1.85542e-05
1.18849e-06
1.8122e-05
-5.93475e-07
1.5479e-05
-2.58217e-06
1.37798e-05
-5.05974e-06
1.2228e-05
-8.34458e-06
1.09091e-05
-1.21123e-05
1.03914e-05
-1.58994e-05
1.12589e-05
-1.95467e-05
1.26405e-05
-2.24314e-05
1.23753e-05
-2.49449e-05
6.33325e-06
-2.79138e-05
-5.45195e-06
-2.9544e-05
-1.03833e-05
-2.8907e-05
-8.35957e-06
-2.5032e-05
1.42734e-06
-2.23342e-05
1.6817e-05
-2.32259e-05
1.985e-05
-2.42046e-05
1.49218e-05
-2.56435e-05
1.59004e-05
-3.27215e-05
2.00426e-05
-4.68594e-05
1.87611e-05
-5.91309e-05
1.35807e-05
6.77784e-06
-6.48573e-05
1.52117e-06
1.70329e-05
1.85478e-06
1.77883e-05
9.20919e-07
1.64127e-05
-4.84325e-07
1.51848e-05
-2.38892e-06
1.41324e-05
-4.8341e-06
1.33542e-05
-7.59883e-06
1.31562e-05
-1.01226e-05
1.37827e-05
-1.20684e-05
1.45862e-05
-1.3453e-05
1.37598e-05
-1.60216e-05
8.90177e-06
-2.21449e-05
6.71397e-07
-2.67997e-05
-5.72849e-06
-2.86639e-05
-6.49541e-06
-2.78965e-05
6.59926e-07
-2.44214e-05
1.33419e-05
-2.26792e-05
1.81077e-05
-2.16998e-05
1.39424e-05
-2.10222e-05
1.52228e-05
-2.25638e-05
2.15842e-05
-2.92632e-05
2.54609e-05
-3.84984e-05
2.28163e-05
1.66065e-05
-4.83271e-05
1.13209e-06
1.59007e-05
1.62163e-06
1.72987e-05
1.26662e-06
1.67676e-05
4.26781e-07
1.60243e-05
-7.94362e-07
1.53533e-05
-2.34599e-06
1.49057e-05
-4.03972e-06
1.485e-05
-5.46598e-06
1.52092e-05
-6.35258e-06
1.54729e-05
-7.06748e-06
1.44746e-05
-9.20616e-06
1.10404e-05
-1.40492e-05
5.51445e-06
-2.03684e-05
5.90559e-07
-2.57148e-05
-1.14912e-06
-2.7468e-05
2.41319e-06
-2.49022e-05
1.07763e-05
-2.20186e-05
1.52243e-05
-2.03727e-05
1.22965e-05
-1.92191e-05
1.40693e-05
-1.84804e-05
2.08455e-05
-1.90328e-05
2.60129e-05
-2.08245e-05
2.46078e-05
1.92799e-05
-2.34982e-05
4.91073e-07
1.54097e-05
8.7419e-07
1.69156e-05
8.10844e-07
1.68308e-05
4.19077e-07
1.64159e-05
-2.21953e-07
1.59941e-05
-1.03986e-06
1.57235e-05
-1.88192e-06
1.56922e-05
-2.51701e-06
1.58443e-05
-2.844e-06
1.57999e-05
-3.23954e-06
1.48702e-05
-4.67009e-06
1.24711e-05
-8.02798e-06
8.87237e-06
-1.29933e-05
5.55584e-06
-1.82233e-05
4.08087e-06
-2.17064e-05
5.89643e-06
-2.13731e-05
1.0443e-05
-1.89661e-05
1.28175e-05
-1.82875e-05
1.16179e-05
-1.7779e-05
1.3561e-05
-1.64266e-05
1.94934e-05
-1.37397e-05
2.33261e-05
-1.14928e-05
2.23612e-05
1.79886e-05
-1.02011e-05
-1.68958e-07
1.55787e-05
-4.93234e-08
1.67962e-05
-3.71738e-08
1.68184e-05
-1.60809e-07
1.65393e-05
-3.96918e-07
1.62299e-05
-6.94601e-07
1.60212e-05
-9.60554e-07
1.59582e-05
-1.08418e-06
1.5968e-05
-1.07586e-06
1.57916e-05
-1.23555e-06
1.50298e-05
-2.16052e-06
1.33962e-05
-4.37921e-06
1.10912e-05
-7.76393e-06
8.94064e-06
-1.15714e-05
7.88837e-06
-1.43828e-05
8.70779e-06
-1.49324e-05
1.09927e-05
-1.4286e-05
1.21711e-05
-1.47601e-05
1.20917e-05
-1.50322e-05
1.3833e-05
-1.30854e-05
1.75466e-05
-9.80812e-06
2.00487e-05
-6.54737e-06
1.91005e-05
1.55652e-05
-4.12386e-06
-7.38781e-07
1.63176e-05
-9.25845e-07
1.69834e-05
-9.69012e-07
1.68616e-05
-9.80242e-07
1.65503e-05
-9.84211e-07
1.62338e-05
-9.64792e-07
1.60018e-05
-8.80143e-07
1.58736e-05
-6.96182e-07
1.5784e-05
-4.67982e-07
1.55632e-05
-4.20719e-07
1.49825e-05
-9.25076e-07
1.39006e-05
-2.28415e-06
1.24505e-05
-4.43667e-06
1.10934e-05
-6.91612e-06
1.03681e-05
-8.86574e-06
1.06575e-05
-9.5657e-06
1.16928e-05
-9.77368e-06
1.23792e-05
-1.03229e-05
1.26409e-05
-1.03283e-05
1.38383e-05
-8.71815e-06
1.59365e-05
-5.86657e-06
1.71972e-05
-2.9847e-06
1.62188e-05
1.32096e-05
-6.29018e-07
-1.16425e-06
1.74821e-05
-1.61909e-06
1.74384e-05
-1.77352e-06
1.7016e-05
-1.7761e-06
1.65528e-05
-1.68196e-06
1.61397e-05
-1.50288e-06
1.58228e-05
-1.23261e-06
1.56035e-05
-8.77653e-07
1.54291e-05
-5.04403e-07
1.51899e-05
-2.75047e-07
1.4753e-05
-4.19532e-07
1.40451e-05
-1.11421e-06
1.31452e-05
-2.32353e-06
1.23026e-05
-3.7659e-06
1.18104e-05
-4.95996e-06
1.18516e-05
-5.55228e-06
1.22853e-05
-5.81873e-06
1.26458e-05
-6.07163e-06
1.28937e-05
-5.8053e-06
1.35721e-05
-4.43147e-06
1.45628e-05
-2.15682e-06
1.49227e-05
1.88318e-07
1.38738e-05
1.13523e-05
2.04581e-06
-1.41174e-06
1.8894e-05
-2.05238e-06
1.80793e-05
-2.31661e-06
1.72802e-05
-2.36219e-06
1.65983e-05
-2.25612e-06
1.60337e-05
-2.0243e-06
1.55911e-05
-1.67915e-06
1.52584e-05
-1.24421e-06
1.49942e-05
-7.81101e-07
1.47268e-05
-4.04184e-07
1.43763e-05
-2.57884e-07
1.38991e-05
-4.47524e-07
1.3335e-05
-9.5619e-07
1.28113e-05
-1.62302e-06
1.24771e-05
-2.18865e-06
1.24171e-05
-2.46204e-06
1.25586e-05
-2.51283e-06
1.26968e-05
-2.42219e-06
1.28032e-05
-1.90619e-06
1.30562e-05
-6.7322e-07
1.33299e-05
1.13125e-06
1.31183e-05
3.01936e-06
1.19857e-05
9.92165e-06
4.44991e-06
-1.46756e-06
2.03617e-05
-2.18513e-06
1.8797e-05
-2.52061e-06
1.76157e-05
-2.62206e-06
1.66999e-05
-2.54974e-06
1.59615e-05
-2.32911e-06
1.53706e-05
-1.97735e-06
1.49067e-05
-1.52121e-06
1.4538e-05
-1.01148e-06
1.4217e-05
-5.27915e-07
1.38928e-05
-1.63091e-07
1.35346e-05
1.67085e-08
1.31556e-05
1.53412e-08
1.2813e-05
-8.18083e-08
1.25743e-05
-1.3694e-07
1.24721e-05
-4.19666e-08
1.24636e-05
2.04885e-07
1.24501e-05
6.08739e-07
1.23995e-05
1.31888e-06
1.23461e-05
2.46516e-06
1.21837e-05
3.94487e-06
1.16386e-05
5.44812e-06
1.04824e-05
8.76293e-06
6.60681e-06
-1.33129e-06
2.16931e-05
-2.00434e-06
1.94702e-05
-2.35353e-06
1.7965e-05
-2.50111e-06
1.68476e-05
-2.48036e-06
1.5941e-05
-2.30294e-06
1.51934e-05
-1.9813e-06
1.45851e-05
-1.53851e-06
1.4095e-05
-1.01404e-06
1.36923e-05
-4.63601e-07
1.33421e-05
5.17397e-08
1.30193e-05
4.87634e-07
1.27199e-05
8.39486e-07
1.24614e-05
1.14816e-06
1.22658e-05
1.48365e-06
1.21366e-05
1.90568e-06
1.20415e-05
2.43258e-06
1.19232e-05
3.08539e-06
1.17467e-05
3.93625e-06
1.14953e-05
5.03179e-06
1.10881e-05
6.29354e-06
1.03769e-05
7.5251e-06
9.25096e-06
7.78401e-06
8.50413e-06
-1.01995e-06
2.27132e-05
-1.52615e-06
1.99765e-05
-1.82762e-06
1.82667e-05
-2.00291e-06
1.70232e-05
-2.03436e-06
1.59728e-05
-1.90899e-06
1.50683e-05
-1.63022e-06
1.43065e-05
-1.21596e-06
1.36808e-05
-6.96506e-07
1.31727e-05
-1.11621e-07
1.27571e-05
4.96909e-07
1.24107e-05
1.09751e-06
1.21193e-05
1.6808e-06
1.18782e-05
2.26247e-06
1.16843e-05
2.87435e-06
1.15248e-05
3.54585e-06
1.137e-05
4.29056e-06
1.11785e-05
5.12195e-06
1.09153e-05
6.06785e-06
1.05494e-05
7.13378e-06
1.00222e-05
8.25761e-06
9.25308e-06
9.31331e-06
8.19537e-06
6.90771e-06
1.01897e-05
-5.95126e-07
2.33084e-05
-8.05141e-07
2.01866e-05
-1.01101e-06
1.84727e-05
-1.19245e-06
1.72049e-05
-1.26245e-06
1.6043e-05
-1.17681e-06
1.49829e-05
-9.32592e-07
1.40625e-05
-5.44765e-07
1.32932e-05
-3.75181e-08
1.26656e-05
5.59921e-07
1.21598e-05
1.21794e-06
1.17528e-05
1.91312e-06
1.14242e-05
2.63422e-06
1.11572e-05
3.38335e-06
1.09353e-05
4.17116e-06
1.07371e-05
5.00792e-06
1.05333e-05
5.89733e-06
1.02892e-05
6.84111e-06
9.97169e-06
7.84198e-06
9.54862e-06
8.88617e-06
8.97814e-06
9.92398e-06
8.21535e-06
1.08762e-05
7.24321e-06
6.10752e-06
1.16765e-05
-7.80618e-08
2.33864e-05
-1.93395e-08
2.01282e-05
-4.91956e-08
1.85026e-05
-2.09132e-07
1.7365e-05
-2.74068e-07
1.6108e-05
-1.87723e-07
1.48965e-05
5.23812e-08
1.38224e-05
4.32148e-07
1.29136e-05
9.32169e-07
1.21659e-05
1.53126e-06
1.15611e-05
2.20881e-06
1.10756e-05
2.9478e-06
1.06854e-05
3.73743e-06
1.03677e-05
4.5734e-06
1.00995e-05
5.45518e-06
9.85548e-06
6.38169e-06
9.60694e-06
7.34814e-06
9.32285e-06
8.34684e-06
8.97309e-06
9.36704e-06
8.5285e-06
1.03868e-05
7.9584e-06
1.13656e-05
7.23656e-06
1.22507e-05
6.35818e-06
5.36062e-06
1.29976e-05
4.06527e-07
2.29801e-05
5.72263e-07
1.99627e-05
7.62409e-07
1.83127e-05
7.46619e-07
1.73811e-05
7.88147e-07
1.60664e-05
9.51182e-07
1.47333e-05
1.23823e-06
1.35352e-05
1.64078e-06
1.25109e-05
2.14753e-06
1.16592e-05
2.74637e-06
1.09625e-05
3.4253e-06
1.03969e-05
4.17361e-06
9.93723e-06
4.98292e-06
9.55847e-06
5.84702e-06
9.23547e-06
6.76042e-06
8.94219e-06
7.71616e-06
8.65129e-06
8.70419e-06
8.33489e-06
9.71122e-06
7.9661e-06
1.07201e-05
7.51962e-06
1.17063e-05
6.97209e-06
1.26362e-05
6.3067e-06
1.34709e-05
5.5234e-06
4.65263e-06
1.41789e-05
6.50171e-07
2.23302e-05
9.92289e-07
1.96207e-05
1.29824e-06
1.80072e-05
1.56493e-06
1.71147e-05
1.83501e-06
1.57964e-05
2.15577e-06
1.44124e-05
2.54099e-06
1.31498e-05
2.9969e-06
1.20549e-05
3.52564e-06
1.11305e-05
4.12652e-06
1.03617e-05
4.79679e-06
9.72668e-06
5.53248e-06
9.20159e-06
6.32898e-06
8.76201e-06
7.181e-06
8.3835e-06
8.08188e-06
8.04137e-06
9.02256e-06
7.71066e-06
9.99081e-06
7.36667e-06
1.0971e-05
6.98586e-06
1.1944e-05
6.54661e-06
1.28857e-05
6.03037e-06
1.37671e-05
5.42519e-06
1.45581e-05
4.73235e-06
3.97658e-06
1.52342e-05
9.00487e-07
2.14299e-05
1.40286e-06
1.91184e-05
1.78931e-06
1.76214e-05
2.34786e-06
1.65565e-05
2.88348e-06
1.52609e-05
3.3901e-06
1.39057e-05
3.894e-06
1.26458e-05
4.4172e-06
1.15317e-05
4.9757e-06
1.0572e-05
5.57997e-06
9.75747e-06
6.23595e-06
9.07075e-06
6.94608e-06
8.49148e-06
7.70998e-06
7.99811e-06
8.52475e-06
7.56875e-06
9.38471e-06
7.18144e-06
1.02811e-05
6.81431e-06
1.12018e-05
6.44602e-06
1.21313e-05
6.05638e-06
1.30508e-05
5.62711e-06
1.39381e-05
5.14306e-06
1.47684e-05
4.59489e-06
1.55168e-05
3.98391e-06
3.33022e-06
1.61632e-05
1.37207e-06
2.00578e-05
1.92888e-06
1.85616e-05
2.50986e-06
1.70409e-05
3.25572e-06
1.58109e-05
3.97629e-06
1.45404e-05
4.62824e-06
1.32537e-05
5.23233e-06
1.20417e-05
5.81583e-06
1.09483e-05
6.40202e-06
9.98597e-06
7.00839e-06
9.15121e-06
7.64699e-06
8.43222e-06
8.32524e-06
7.81327e-06
9.04659e-06
7.27678e-06
9.81089e-06
6.80449e-06
1.06145e-05
6.37788e-06
1.14502e-05
5.9786e-06
1.23075e-05
5.58877e-06
1.31724e-05
5.19152e-06
1.40279e-05
4.77158e-06
1.48546e-05
4.31647e-06
1.5631e-05
3.81854e-06
1.63362e-05
3.27875e-06
2.71361e-06
1.69529e-05
1.74352e-06
1.83142e-05
2.58512e-06
1.77203e-05
3.3928e-06
1.62335e-05
4.24091e-06
1.49629e-05
5.05643e-06
1.37248e-05
5.7966e-06
1.25135e-05
6.46962e-06
1.13687e-05
7.09844e-06
1.03196e-05
7.70643e-06
9.37809e-06
8.31333e-06
8.5444e-06
8.93426e-06
7.81136e-06
9.5798e-06
7.16778e-06
1.02563e-05
6.60032e-06
1.09663e-05
6.09463e-06
1.17083e-05
5.63594e-06
1.24774e-05
5.20952e-06
1.32652e-05
4.80095e-06
1.40602e-05
4.39654e-06
1.4848e-05
3.98388e-06
1.56117e-05
3.55277e-06
1.63334e-05
3.09693e-06
1.69951e-05
2.61713e-06
2.12723e-06
1.75815e-05
1.87935e-06
1.64347e-05
3.10311e-06
1.64968e-05
4.12609e-06
1.52106e-05
5.08865e-06
1.40003e-05
5.97783e-06
1.28355e-05
6.78081e-06
1.17105e-05
7.50539e-06
1.06442e-05
8.1705e-06
9.65455e-06
8.79749e-06
8.75118e-06
9.40602e-06
7.93593e-06
1.00124e-05
7.20506e-06
1.06289e-05
6.55128e-06
1.12642e-05
5.96518e-06
1.19227e-05
5.43624e-06
1.26054e-05
4.95336e-06
1.33096e-05
4.50535e-06
1.40295e-05
4.08113e-06
1.4756e-05
3.67008e-06
1.54775e-05
3.26244e-06
1.61801e-05
2.85019e-06
1.68487e-05
2.42838e-06
1.7468e-05
1.99789e-06
1.57084e-06
1.80244e-05
1.84945e-06
1.45852e-05
3.3385e-06
1.50079e-05
4.56805e-06
1.39809e-05
5.65327e-06
1.29148e-05
6.62245e-06
1.18661e-05
7.48609e-06
1.08467e-05
8.25835e-06
9.87196e-06
8.95796e-06
8.955e-06
9.60514e-06
8.104e-06
1.02191e-05
7.32195e-06
1.08165e-05
6.60764e-06
1.14109e-05
5.95702e-06
1.2012e-05
5.36415e-06
1.26264e-05
4.82204e-06
1.32568e-05
4.32307e-06
1.39029e-05
3.85935e-06
1.45612e-05
3.42297e-06
1.52252e-05
3.00618e-06
1.58858e-05
2.60182e-06
1.65321e-05
2.20392e-06
1.71516e-05
1.80898e-06
1.77311e-05
1.41832e-06
1.04302e-06
1.82589e-05
1.74002e-06
1.28454e-05
3.35375e-06
1.33942e-05
4.72056e-06
1.26138e-05
5.90762e-06
1.17274e-05
6.95108e-06
1.08223e-05
7.87218e-06
9.92553e-06
8.68968e-06
9.05444e-06
9.42306e-06
8.22158e-06
1.00921e-05
7.43492e-06
1.07154e-05
6.69848e-06
1.13099e-05
6.01316e-06
1.18893e-05
5.37756e-06
1.24648e-05
4.78882e-06
1.30438e-05
4.24306e-06
1.36312e-05
3.73584e-06
1.42283e-05
3.26234e-06
1.48338e-05
2.81757e-06
1.54435e-05
2.39651e-06
1.6051e-05
1.9944e-06
1.66476e-05
1.60734e-06
1.72232e-05
1.23336e-06
1.7767e-05
8.74479e-07
5.41294e-07
1.82687e-05
1.61441e-06
1.12311e-05
3.23403e-06
1.17745e-05
4.65258e-06
1.1195e-05
5.89506e-06
1.04846e-05
6.98791e-06
9.72932e-06
7.95168e-06
8.96169e-06
8.80508e-06
8.20097e-06
9.56685e-06
7.45967e-06
1.02557e-05
6.74589e-06
1.08895e-05
6.06451e-06
1.14845e-05
5.41803e-06
1.20547e-05
4.8073e-06
1.26116e-05
4.23199e-06
1.31637e-05
3.691e-06
1.37168e-05
3.18271e-06
1.42741e-05
2.70507e-06
1.48359e-05
2.25576e-06
1.54002e-05
1.83227e-06
1.59625e-05
1.43211e-06
1.65165e-05
1.05337e-06
1.70542e-05
6.95644e-07
1.75668e-05
3.61895e-07
6.25459e-08
1.80455e-05
1.48793e-06
9.74327e-06
3.03777e-06
1.02243e-05
4.43575e-06
9.79673e-06
5.68148e-06
9.23871e-06
6.78809e-06
8.62266e-06
7.7698e-06
7.97996e-06
8.64173e-06
7.32894e-06
9.42002e-06
6.68119e-06
1.01213e-05
6.04437e-06
1.0762e-05
5.42368e-06
1.13571e-05
4.82272e-06
1.19203e-05
4.24402e-06
1.24629e-05
3.68939e-06
1.29938e-05
3.16005e-06
1.35197e-05
2.65678e-06
1.40448e-05
2.18e-06
1.45708e-05
1.72974e-06
1.50973e-05
1.30578e-06
1.56217e-05
9.07731e-07
1.61395e-05
5.35565e-07
1.66448e-05
1.9041e-07
1.71304e-05
-1.23733e-07
-3.96425e-07
1.75894e-05
1.35777e-06
8.3854e-06
2.79576e-06
8.78595e-06
4.12306e-06
8.46921e-06
5.32756e-06
8.03416e-06
6.4118e-06
7.53848e-06
7.38288e-06
7.00889e-06
8.25106e-06
6.46065e-06
9.02896e-06
5.90311e-06
9.73048e-06
5.34266e-06
1.03698e-05
4.78419e-06
1.09606e-05
4.23186e-06
1.15151e-05
3.68942e-06
1.20442e-05
3.16029e-06
1.25567e-05
2.64758e-06
1.30594e-05
2.15405e-06
1.35572e-05
1.68217e-06
1.4053e-05
1.23404e-06
1.45473e-05
8.11419e-07
1.50393e-05
4.15826e-07
1.5526e-05
4.89476e-08
1.6003e-05
-2.86631e-07
1.64652e-05
-5.85886e-07
-8.38278e-07
1.6907e-05
1.2211e-06
7.16407e-06
2.52471e-06
7.48189e-06
3.74994e-06
7.24383e-06
4.88018e-06
6.90399e-06
5.9111e-06
6.50766e-06
6.84418e-06
6.07581e-06
7.68535e-06
5.61937e-06
8.44377e-06
5.14456e-06
9.13048e-06
4.65584e-06
9.75728e-06
4.15734e-06
1.03358e-05
3.65334e-06
1.08768e-05
3.14842e-06
1.13899e-05
2.6472e-06
1.18834e-05
2.15416e-06
1.23639e-05
1.67359e-06
1.28366e-05
1.20958e-06
1.33048e-05
7.65919e-07
1.37702e-05
3.46072e-07
1.42329e-05
-4.67905e-08
1.46914e-05
-4.09474e-07
1.51428e-05
-7.38074e-07
1.55836e-05
-1.02663e-06
-1.26451e-06
1.60098e-05
1.07887e-06
6.08487e-06
2.23635e-06
6.32405e-06
3.34045e-06
6.13965e-06
4.37324e-06
5.87127e-06
5.32651e-06
5.55443e-06
6.1981e-06
5.20417e-06
6.99081e-06
4.82656e-06
7.71103e-06
4.42427e-06
8.36726e-06
3.99959e-06
8.96893e-06
3.55569e-06
9.5255e-06
3.09682e-06
1.00459e-05
2.62812e-06
1.05381e-05
2.15505e-06
1.10093e-05
1.683e-06
1.14658e-05
1.21723e-06
1.19125e-05
7.62966e-07
1.23531e-05
3.25348e-07
1.27901e-05
-9.07759e-08
1.32242e-05
-4.80859e-07
1.36552e-05
-8.40419e-07
1.40815e-05
-1.16443e-06
1.4501e-05
-1.44614e-06
-1.67489e-06
1.49114e-05
9.33864e-07
5.1507e-06
1.93959e-06
5.3181e-06
2.91113e-06
5.1681e-06
3.83066e-06
4.95175e-06
4.68815e-06
4.69687e-06
5.4795e-06
4.4127e-06
6.20565e-06
4.10031e-06
6.87107e-06
3.75882e-06
7.48223e-06
3.38845e-06
8.04641e-06
2.99156e-06
8.57088e-06
2.57241e-06
9.06241e-06
2.13663e-06
9.52714e-06
1.69037e-06
9.97084e-06
1.23936e-06
1.0399e-05
7.89124e-07
1.08165e-05
3.4558e-07
1.1227e-05
-8.51538e-08
1.16334e-05
-4.97115e-07
1.20372e-05
-8.84641e-07
1.2439e-05
-1.24221e-06
1.28385e-05
-1.5639e-06
1.32346e-05
-1.84237e-06
-2.06701e-06
1.36267e-05
7.87748e-07
4.36275e-06
1.63998e-06
4.46579e-06
2.47278e-06
4.33527e-06
3.26907e-06
4.15536e-06
4.01825e-06
3.94752e-06
4.71557e-06
3.71524e-06
5.3611e-06
3.45471e-06
5.95815e-06
3.16176e-06
6.5117e-06
2.83494e-06
7.02718e-06
2.4761e-06
7.50985e-06
2.08974e-06
7.96426e-06
1.6822e-06
8.39416e-06
1.26045e-06
8.80361e-06
8.29901e-07
9.19743e-06
3.95293e-07
9.58027e-06
-3.72538e-08
9.95599e-06
-4.60865e-07
1.03275e-05
-8.68666e-07
1.0697e-05
-1.2541e-06
1.10656e-05
-1.61085e-06
1.1434e-05
-1.93235e-06
1.18025e-05
-2.21085e-06
-2.43595e-06
1.21714e-05
6.3975e-07
3.72294e-06
1.33983e-06
3.76569e-06
2.03252e-06
3.64247e-06
2.70106e-06
3.48663e-06
3.33491e-06
3.31348e-06
3.92936e-06
3.12068e-06
4.4843e-06
2.89975e-06
5.00249e-06
2.64361e-06
5.48794e-06
2.34952e-06
5.94482e-06
2.01923e-06
6.37677e-06
1.65775e-06
6.78625e-06
1.27265e-06
7.17385e-06
8.72752e-07
7.54141e-06
4.62257e-07
7.89345e-06
4.31745e-08
8.2347e-06
-3.78571e-07
8.56911e-06
-7.9532e-07
8.89975e-06
-1.19934e-06
9.22895e-06
-1.58332e-06
9.55846e-06
-1.94037e-06
9.8896e-06
-2.26349e-06
1.02236e-05
-2.54481e-06
-2.7742e-06
1.05618e-05
4.87481e-07
3.23547e-06
1.04102e-06
3.21204e-06
1.59816e-06
3.08514e-06
2.14052e-06
2.94406e-06
2.65756e-06
2.7963e-06
3.14503e-06
2.63319e-06
3.60303e-06