/*--------------------------------*- C++ -*----------------------------------*\
| =========                 |                                                 |
| \\      /  F ield         | OpenFOAM: The Open Source CFD Toolbox           |
|  \\    /   O peration     | Version:  2.3.0                                 |
|   \\  /    A nd           | Web:      www.OpenFOAM.org                      |
|    \\/     M anipulation  |                                                 |
\*---------------------------------------------------------------------------*/
FoamFile
{
    version     2.0;
    format      ascii;
    class       volScalarField;
    location    "2.9";
    object      p;
}
// * * * * * * * * * * * * * * * * * * * * * * * * * * * * * * * * * * * * * //

dimensions      [1 -1 -2 0 0 0 0];

internalField   nonuniform List<scalar> 
2268
(
649.69
652.076
653.205
653.997
656.152
659.672
665.414
674.056
684.015
693.761
704.96
719.688
734.89
750.859
767.394
784.304
801.386
818.08
834.061
848.802
861.632
869.447
873.165
592.87
593.577
594.499
594.971
596.866
600.398
606.289
614.974
625.032
634.704
645.938
659.995
675.608
692.386
709.589
726.4
742.588
758.761
775.331
790.895
803.948
811.865
815.231
538.801
535.332
535.672
535.547
536.787
540.298
546.74
555.795
565.874
575.545
586.495
599.849
615.227
632.09
649.498
666.977
683.991
699.566
716.198
732.671
746.082
754.442
758.295
484.998
479.314
477.526
476.197
476.659
480.001
486.36
495.473
505.708
515.725
526.529
539.355
554.206
570.427
587.399
605.28
623.112
639.913
656.87
673.736
687.678
696.872
701.607
430.686
426.271
423.884
421.46
420.947
423.112
428.339
435.996
445.26
455.104
465.903
478.66
493.164
508.68
524.927
542.306
560.819
579.305
597.538
614.292
628.587
638.712
644.245
374.702
372.201
369.857
366.37
365.059
366.53
370.945
377.558
384.959
393.895
404.994
417.904
431.977
446.938
462.695
479.223
497.945
518.195
538.073
555.245
568.98
579.656
584.985
317.158
315.179
312.275
307.989
306.118
307.322
311.108
316.845
323.572
332.288
343.511
356.392
370.291
385.076
400.55
416.768
434.899
456.981
478.873
496.794
509.386
519.108
520.714
259.304
255.447
252.709
247.304
244.836
245.78
248.777
253.693
260.233
268.932
279.893
293.075
307.606
323.159
339.116
355.662
374.386
396.926
420.214
439.039
450.238
457.269
447.926
759.687
760.46
761.26
753.945
756.739
762.967
745.662
726.638
705.555
680.495
652.718
633.048
626.127
625.273
616.841
598.626
590.284
583.867
583.253
704.483
704.506
702.447
692.791
695.014
701.399
685.975
667.448
646.664
620.465
590.782
569.813
564.156
566.437
560.664
544.713
535.512
529.187
530.513
648.827
647.641
642.637
631.028
632.806
639.19
626.148
608.255
587.713
559.602
527.744
506.084
500.555
504.591
501.472
490.332
482.761
475.749
477.927
592.902
589.75
582.992
570.941
571.694
578.456
567.373
549.683
528.423
498.063
464.517
443.001
437.21
441.155
440.469
433.071
428.361
421.878
423.297
536.408
530.719
525.715
513.265
512.451
519.748
509.585
491.973
469.06
437.044
403.596
382.388
375.53
378.578
379.999
374.448
371.431
367.205
365.667
478.446
471.05
471.104
458.369
455.852
463.499
453.256
434.977
410.38
377.513
344.155
324.313
317.14
318.5
321.007
316.654
312.336
310.747
306.485
418.976
410.746
416.211
405.002
401.636
408.952
398.58
379.241
352.757
318.637
286.706
268.834
260.234
260.284
262.208
258.284
252.429
251.49
246.456
360.887
351.581
360.462
351.33
348.18
355.306
345.693
324.921
295.99
261.148
231.202
213.255
203.538
201.782
202.737
198.746
193.137
190.346
185.649
170.724
166.277
161.8
154.712
150.349
148.161
147.996
151.234
157.567
165.682
175.887
189.877
206.881
226.148
244.842
262.776
282.284
305.888
329.428
347.746
355.831
353.388
309.211
65.9518
61.1902
51.729
41.9004
35.4354
31.7267
30.7357
32.3185
36.4837
41.5114
46.7742
57.1845
73.6131
97.7711
122.533
143.201
163.811
189.929
212.088
227.793
233.395
229.293
215.281
12.9669
6.7571
3.42854
1.12555
1.00205
1.12225
1.22153
1.26858
1.18876
0.94706
1.11484
3.7
8.51566
20.1927
33.2648
44.19
57.1128
88.3813
109.842
120.731
123.002
124.054
120.818
0.377833
0.366545
0.393263
0.476815
0.645684
0.830368
0.991577
1.06999
0.991857
0.782084
0.587457
0.420714
0.263852
0.0948211
-0.119451
0.0838215
1.89574
21.7764
34.182
41.5702
47.1539
43.4956
37.8917
0.0914954
0.0296712
0.0838666
0.230723
0.355592
0.480876
0.625093
0.647048
0.477649
0.251015
0.0851466
-0.0524204
-0.224967
-0.421889
-0.577241
-0.797493
-1.48953
-1.28423
-0.702352
1.04958
2.86576
2.6685
1.52056
-0.184748
-0.256327
-0.195597
-0.0776013
0.027433
0.0808464
0.115556
0.0164637
-0.236951
-0.498501
-0.662852
-0.759038
-0.8721
-1.00974
-1.17289
-1.34454
-1.62291
-1.62178
-1.44274
-1.22318
-1.00194
-0.881971
-0.884701
-0.37378
-0.480167
-0.428901
-0.344725
-0.267534
-0.262426
-0.356252
-0.561432
-0.844642
-1.07823
-1.24405
-1.4011
-1.58519
-1.75504
-1.86684
-1.9156
-1.91485
-1.7448
-1.48894
-1.2631
-1.11187
-1.02659
-1.05594
-0.492132
-0.586287
-0.582897
-0.541704
-0.508242
-0.51939
-0.656031
-0.952627
-1.22588
-1.39171
-1.55474
-1.75905
-1.97042
-2.12453
-2.21985
-2.23805
-2.15112
-1.95343
-1.70301
-1.47616
-1.31165
-1.21684
-1.23222
-0.5981
-0.651567
-0.692364
-0.704837
-0.699196
-0.717757
-0.902066
-1.22395
-1.40995
-1.56262
-1.74037
-1.95999
-2.15701
-2.29222
-2.37525
-2.39697
-2.33391
-2.17615
-1.95337
-1.73499
-1.57068
-1.48888
-1.50561
-0.730697
-0.730574
-0.797892
-0.852816
-0.856279
-0.891111
-1.16419
-1.41084
-1.50998
-1.66781
-1.863
-2.08163
-2.26038
-2.39552
-2.48187
-2.50713
-2.4587
-2.33377
-2.15428
-1.97681
-1.84663
-1.79943
-1.83958
-0.906651
-0.831192
-0.921218
-1.00271
-1.01939
-1.08762
-1.38237
-1.55756
-1.61553
-1.7629
-1.9576
-2.14508
-2.30483
-2.4413
-2.5299
-2.55697
-2.52006
-2.42507
-2.29277
-2.16562
-2.08368
-2.08087
-2.14435
-1.0841
-1.01216
-1.10044
-1.18817
-1.21795
-1.30472
-1.5409
-1.67132
-1.73272
-1.85705
-2.0185
-2.16883
-2.31165
-2.44114
-2.52516
-2.5518
-2.52446
-2.45341
-2.35903
-2.27486
-2.24386
-2.2931
-2.38581
-1.3124
-1.29488
-1.33739
-1.39365
-1.42652
-1.48744
-1.6674
-1.77107
-1.84437
-1.94202
-2.05436
-2.17047
-2.28783
-2.39273
-2.46064
-2.48318
-2.45856
-2.40103
-2.33277
-2.29245
-2.32426
-2.42808
-2.55307
-1.54595
-1.56674
-1.56822
-1.58658
-1.61573
-1.65553
-1.78698
-1.86858
-1.94638
-2.01884
-2.09844
-2.18019
-2.25611
-2.31462
-2.34475
-2.34505
-2.31243
-2.26391
-2.22606
-2.24174
-2.33966
-2.4915
-2.64377
-1.73462
-1.77251
-1.77171
-1.77997
-1.79764
-1.83065
-1.89587
-1.97129
-2.05245
-2.11568
-2.17259
-2.22008
-2.25257
-2.25702
-2.22959
-2.18259
-2.13717
-2.10079
-2.10173
-2.171
-2.31854
-2.49949
-2.66405
-1.88281
-1.93841
-1.97955
-1.99883
-1.99504
-2.00359
-2.04147
-2.11
-2.17813
-2.23461
-2.27362
-2.29706
-2.29831
-2.25983
-2.17815
-2.09018
-2.02535
-2.00147
-2.03511
-2.13624
-2.29682
-2.47999
-2.63901
-2.05413
-2.12136
-2.19709
-2.21192
-2.20915
-2.19941
-2.22215
-2.27931
-2.33916
-2.38995
-2.41122
-2.41076
-2.387
-2.32526
-2.21759
-2.10168
-2.0203
-2.00807
-2.06186
-2.17146
-2.31911
-2.47691
-2.61367
-2.25518
-2.32874
-2.39456
-2.39921
-2.41209
-2.41122
-2.42467
-2.45209
-2.50614
-2.54825
-2.55629
-2.53886
-2.50355
-2.43723
-2.32859
-2.20027
-2.12668
-2.12319
-2.18595
-2.28412
-2.39853
-2.51701
-2.62422
-2.45161
-2.53629
-2.57054
-2.57331
-2.58439
-2.61184
-2.62478
-2.6224
-2.6414
-2.66653
-2.67355
-2.65771
-2.62529
-2.56643
-2.46875
-2.3566
-2.2829
-2.28933
-2.35942
-2.4438
-2.5258
-2.61593
-2.71004
-2.64186
-2.70966
-2.71916
-2.72621
-2.7341
-2.77305
-2.78639
-2.76577
-2.75167
-2.7602
-2.77019
-2.768
-2.75138
-2.7138
-2.66878
-2.62162
-2.56351
-2.53152
-2.56514
-2.63616
-2.72756
-2.8215
-2.9122
-2.82988
-2.84984
-2.85436
-2.86255
-2.87127
-2.8964
-2.9077
-2.89062
-2.87013
-2.86554
-2.87814
-2.89467
-2.90628
-2.92031
-2.94128
-2.96195
-2.95505
-2.92096
-2.88329
-2.90501
-2.96622
-3.0457
-3.12764
-2.98921
-2.98491
-2.98771
-2.99524
-3.00287
-3.01462
-3.02542
-3.02112
-3.01234
-3.0061
-3.02118
-3.05325
-3.09133
-3.1509
-3.21935
-3.28403
-3.30383
-3.26874
-3.19471
-3.15335
-3.17452
-3.26566
-3.36043
-3.11267
-3.11797
-3.12112
-3.12877
-3.1355
-3.14341
-3.15184
-3.15786
-3.15654
-3.15691
-3.17337
-3.20657
-3.25288
-3.31043
-3.3939
-3.47823
-3.49456
-3.43978
-3.38044
-3.32962
-3.37896
-3.53035
-3.69603
-3.23812
-3.25288
-3.25518
-3.26195
-3.26924
-3.27659
-3.28555
-3.29238
-3.29098
-3.29298
-3.30841
-3.33478
-3.37137
-3.41855
-3.48028
-3.54679
-3.57155
-3.53502
-3.4844
-3.46891
-3.57778
-3.83461
-4.09272
-3.37615
-3.38635
-3.38928
-3.39354
-3.39957
-3.40723
-3.41588
-3.42142
-3.41968
-3.42298
-3.43535
-3.45461
-3.47864
-3.50984
-3.55011
-3.58899
-3.6084
-3.59955
-3.58076
-3.60517
-3.7339
-3.94966
-4.14254
-3.51992
-3.52105
-3.52385
-3.52494
-3.52821
-3.53479
-3.54199
-3.54575
-3.54562
-3.54912
-3.55827
-3.57071
-3.58391
-3.59956
-3.62056
-3.64469
-3.66517
-3.6751
-3.68701
-3.73247
-3.82802
-3.94731
-4.04914
-3.66487
-3.658
-3.6584
-3.65701
-3.65767
-3.66111
-3.66601
-3.6679
-3.66947
-3.67243
-3.67803
-3.68464
-3.69003
-3.69558
-3.70189
-3.71566
-3.73728
-3.75918
-3.78649
-3.83132
-3.8971
-3.96766
-4.01394
-3.8071
-3.7953
-3.79161
-3.78886
-3.78767
-3.78846
-3.79018
-3.79146
-3.79271
-3.79409
-3.79628
-3.79833
-3.79801
-3.79708
-3.79429
-3.80201
-3.82637
-3.85735
-3.88821
-3.92172
-3.96316
-4.00539
-4.03222
-3.93659
-3.92808
-3.92249
-3.9196
-3.91761
-3.91684
-3.91647
-3.9163
-3.91599
-3.9154
-3.91489
-3.91375
-3.90961
-3.90419
-3.89837
-3.90297
-3.9302
-3.96643
-3.99747
-4.02406
-4.05308
-4.08187
-4.10123
-4.06239
-4.05654
-4.05207
-4.04969
-4.04741
-4.04565
-4.04379
-4.04205
-4.03997
-4.03751
-4.03492
-4.03168
-4.02541
-4.01774
-4.01199
-4.01483
-4.04246
-4.07911
-4.10794
-4.13099
-4.15544
-4.17918
-4.19543
-4.18841
-4.18477
-4.18184
-4.18
-4.17747
-4.17496
-4.17193
-4.16884
-4.16526
-4.16124
-4.15697
-4.15216
-4.14481
-4.13593
-4.13097
-4.13233
-4.1559
-4.19016
-4.21591
-4.23749
-4.26046
-4.28177
-4.29628
-4.31691
-4.31508
-4.31274
-4.31103
-4.30824
-4.3051
-4.30113
-4.2969
-4.29211
-4.28677
-4.28111
-4.27512
-4.26745
-4.25773
-4.25238
-4.25199
-4.26883
-4.29889
-4.32175
-4.34354
-4.36707
-4.38794
-4.40244
-4.44829
-4.44717
-4.44501
-4.44307
-4.44006
-4.43634
-4.43159
-4.42638
-4.42052
-4.41398
-4.40705
-4.40001
-4.39231
-4.38233
-4.37511
-4.37306
-4.38279
-4.40642
-4.42702
-4.45073
-4.47754
-4.50115
-4.51753
-4.5818
-4.5807
-4.57866
-4.57636
-4.57306
-4.56884
-4.56346
-4.55738
-4.55052
-4.54282
-4.5346
-4.52629
-4.51814
-4.50813
-4.49827
-4.49476
-4.49681
-4.51249
-4.53227
-4.55992
-4.59388
-4.62394
-4.64401
-4.71678
-4.71568
-4.71366
-4.71102
-4.7074
-4.70275
-4.69688
-4.69005
-4.68226
-4.67341
-4.66378
-4.65381
-4.64423
-4.63353
-4.6207
-4.61408
-4.60867
-4.61692
-4.63702
-4.67048
-4.71699
-4.75842
-4.7849
-4.85304
-4.85199
-4.84995
-4.84709
-4.84321
-4.83823
-4.832
-4.82459
-4.816
-4.80606
-4.79494
-4.78298
-4.77087
-4.75805
-4.74177
-4.72797
-4.71887
-4.71867
-4.74206
-4.78984
-4.8522
-4.90979
-4.94619
-4.99058
-4.98956
-4.98752
-4.98457
-4.98056
-4.9754
-4.96897
-4.96121
-4.95206
-4.94129
-4.92885
-4.91485
-4.89957
-4.88284
-4.86212
-4.8387
-4.82579
-4.81608
-4.85238
-4.92387
-5.01092
-5.08238
-5.13291
-5.12933
-5.12837
-5.12638
-5.12346
-5.11947
-5.11432
-5.1079
-5.10009
-5.09075
-5.07961
-5.0664
-5.05092
-5.03292
-5.01145
-4.98454
-4.95113
-4.92335
-4.90176
-4.9649
-5.078
-5.20172
-5.28975
-5.34641
-5.26908
-5.2682
-5.26634
-5.26356
-5.25974
-5.25483
-5.24869
-5.24119
-5.23215
-5.22128
-5.20819
-5.19245
-5.17344
-5.14972
-5.11919
-5.07905
-5.0345
-4.99063
-5.06448
-5.24669
-5.43319
-5.55425
-5.58874
-5.40958
-5.40881
-5.40713
-5.4046
-5.40113
-5.39666
-5.39109
-5.38429
-5.37611
-5.36628
-5.35443
-5.34002
-5.32221
-5.30025
-5.27409
-5.23564
-5.19032
-5.10944
-5.19149
-5.44467
-5.71394
-5.88053
-5.86153
-5.55103
-5.55043
-5.54901
-5.54683
-5.54384
-5.53999
-5.53524
-5.5295
-5.5227
-5.51467
-5.50521
-5.49393
-5.48001
-5.46187
-5.43757
-5.41095
-5.38035
-5.25618
-5.37933
-5.73675
-6.08055
-6.3067
-6.11172
-5.69416
-5.69396
-5.69288
-5.69112
-5.68871
-5.68564
-5.68191
-5.67752
-5.67247
-5.66679
-5.66054
-5.65389
-5.64718
-5.64102
-5.63964
-5.62801
-5.60607
-5.64939
-5.86538
-6.19553
-6.44064
-6.78328
-6.28781
218.447
231.502
258.312
267.513
196.574
191.08
185.009
173.089
114.751
107.651
97.6248
85.4747
32.4342
27.7623
21.677
14.6024
-0.377275
-0.828461
-0.719602
-0.722827
-0.938279
-0.932528
-0.956999
-1.03046
-1.10402
-1.11973
-1.14868
-1.18097
-1.28961
-1.32948
-1.36931
-1.40464
-1.5725
-1.62174
-1.66661
-1.7067
-1.90096
-1.94049
-1.97586
-2.00714
-2.2021
-2.23641
-2.26551
-2.28795
-2.45122
-2.48765
-2.51586
-2.53353
-2.6305
-2.67
-2.69779
-2.71186
-2.72831
-2.76796
-2.79193
-2.79972
-2.74845
-2.78482
-2.80401
-2.80661
-2.71463
-2.74408
-2.75736
-2.75487
-2.67677
-2.69868
-2.70622
-2.69855
-2.67161
-2.68466
-2.68576
-2.67737
-2.75524
-2.7679
-2.76895
-2.75725
-2.94628
-2.94807
-2.93589
-2.91035
-3.15705
-3.15743
-3.14101
-3.10945
-3.3948
-3.39995
-3.38185
-3.34561
-3.76111
-3.7745
-3.74623
-3.70767
-4.18152
-4.18439
-4.15037
-4.09623
-4.20469
-4.21252
-4.19957
-4.16599
-4.0791
-4.08577
-4.06724
-4.04024
-4.02371
-4.02238
-4.0115
-3.99325
-4.03862
-4.03824
-4.03277
-4.02393
-4.10756
-4.10866
-4.10608
-4.10006
-4.20091
-4.20187
-4.20014
-4.19566
-4.30124
-4.30246
-4.30187
-4.2994
-4.40815
-4.41022
-4.41081
-4.40988
-4.52447
-4.52736
-4.52866
-4.52823
-4.65222
-4.65575
-4.65717
-4.65626
-4.79487
-4.79901
-4.80009
-4.79764
-4.95885
-4.96339
-4.96306
-4.95715
-5.14889
-5.15284
-5.14919
-5.13756
-5.36584
-5.3682
-5.35909
-5.33841
-5.60047
-5.59575
-5.57745
-5.54523
-5.82963
-5.80552
-5.77176
-5.72643
-5.99178
-5.932
-5.87824
-5.82399
-6.03368
-5.93136
-5.86649
-5.82335
269.744
260.514
269.322
271.095
270.84
275.734
265.083
241.904
212.831
180.341
149.135
127.929
115.594
111.193
109.219
104.888
101.34
95.7706
92.1176
157.135
151.331
160.844
178.265
198.543
189.14
160.912
129.75
100.535
74.5608
50.5641
36.1725
29.099
24.5509
21.8359
20.2562
19.1364
16.9597
15.374
59.9933
40.2086
23.7549
57.4561
116.274
105.839
66.5078
38.8717
22.2663
14.1948
8.28445
4.58157
2.55817
1.22664
0.910616
1.13977
1.24973
1.20587
1.14917
2.24708
0.195734
0.461622
4.80306
37.3738
29.687
10.4506
2.44677
1.00025
0.537531
0.591448
0.736808
0.733187
0.635535
0.66247
0.807852
0.896607
0.921044
0.924193
-0.615998
-0.30628
-0.288461
-0.109586
2.10252
1.5173
1.08029
0.793367
0.523419
0.330288
0.278632
0.340871
0.420898
0.494058
0.554476
0.569186
0.560734
0.610211
0.690238
-0.95669
-0.749446
-0.843668
-0.829169
-0.163122
0.654907
0.574448
0.264368
0.0280445
-0.0823978
-0.0516631
0.0733096
0.226249
0.330516
0.392013
0.384882
0.277755
0.370177
0.48714
-1.16637
-1.15199
-1.28329
-1.32105
-0.876166
-0.100478
-0.0435645
-0.276687
-0.453242
-0.48163
-0.41177
-0.259645
-0.0712427
0.07173
0.161097
0.181293
0.0952184
0.160765
0.334624
-1.44408
-1.49561
-1.58816
-1.62221
-1.41939
-0.794451
-0.588514
-0.709599
-0.791278
-0.788894
-0.723729
-0.59295
-0.400132
-0.214288
-0.0894678
-0.0300534
-0.0427908
0.0197992
0.146283
-1.75264
-1.7807
-1.80228
-1.79001
-1.66834
-1.30281
-0.983774
-0.998877
-1.03278
-1.03543
-0.979039
-0.85327
-0.659659
-0.447139
-0.283844
-0.208243
-0.167095
-0.147701
-0.0723438
-2.04015
-2.03187
-2.00318
-1.94837
-1.81613
-1.54816
-1.22773
-1.18273
-1.21849
-1.23645
-1.17432
-1.03198
-0.838882
-0.634061
-0.476987
-0.406064
-0.349292
-0.373277
-0.330103
-2.30674
-2.27006
-2.19649
-2.09854
-1.93793
-1.64245
-1.33011
-1.26433
-1.31142
-1.33995
-1.28294
-1.14216
-0.962313
-0.812989
-0.721734
-0.650195
-0.619142
-0.617956
-0.578119
-2.53847
-2.4766
-2.35914
-2.22028
-2.02893
-1.66885
-1.33363
-1.26376
-1.32443
-1.35503
-1.33017
-1.22704
-1.0975
-1.00318
-0.953836
-0.881667
-0.849016
-0.81951
-0.801558
-2.70834
-2.61939
-2.46786
-2.29825
-2.07117
-1.66432
-1.32872
-1.26854
-1.30337
-1.37417
-1.40999
-1.37999
-1.30633
-1.23255
-1.16927
-1.10223
-1.06253
-1.0339
-1.01627
-2.78145
-2.68008
-2.51392
-2.32843
-2.0821
-1.68917
-1.39296
-1.3478
-1.38533
-1.48707
-1.60504
-1.63764
-1.5723
-1.48938
-1.40256
-1.32824
-1.28187
-1.25584
-1.2449
-2.78113
-2.66995
-2.5058
-2.32055
-2.09816
-1.80022
-1.57536
-1.53617
-1.57956
-1.70805
-1.8871
-1.93583
-1.84592
-1.73875
-1.63894
-1.54757
-1.4832
-1.44573
-1.43448
-2.72546
-2.61774
-2.46612
-2.29917
-2.15872
-2.01123
-1.88888
-1.80776
-1.84444
-1.9691
-2.13689
-2.17658
-2.07116
-1.9459
-1.84926
-1.75138
-1.67235
-1.624
-1.60538
-2.6667
-2.56897
-2.43402
-2.29986
-2.23493
-2.22069
-2.16169
-2.07859
-2.08448
-2.15753
-2.27548
-2.31723
-2.21747
-2.09818
-2.00118
-1.91309
-1.83823
-1.79293
-1.77681
-2.65018
-2.56512
-2.44883
-2.34212
-2.31461
-2.37147
-2.34118
-2.27764
-2.2553
-2.27461
-2.36332
-2.39032
-2.32837
-2.2301
-2.13605
-2.05844
-1.99627
-1.9922
-1.96805
-2.72196
-2.6393
-2.53008
-2.43841
-2.41772
-2.49177
-2.46189
-2.43439
-2.41709
-2.4165
-2.44948
-2.4703
-2.43867
-2.36327
-2.27639
-2.20163
-2.13683
-2.17464
-2.16263
-2.85509
-2.75574
-2.65666
-2.58771
-2.57753
-2.58932
-2.57599
-2.59077
-2.60236
-2.59285
-2.5936
-2.5936
-2.55975
-2.49166
-2.41071
-2.33876
-2.28177
-2.31585
-2.32536
-3.03689
-2.92356
-2.80973
-2.75147
-2.72314
-2.69638
-2.68369
-2.71969
-2.7614
-2.77177
-2.77011
-2.75678
-2.70637
-2.62657
-2.53849
-2.4566
-2.42643
-2.43955
-2.45718
-3.27597
-3.1617
-3.03083
-2.94695
-2.87083
-2.80858
-2.78138
-2.81924
-2.88729
-2.93431
-2.95337
-2.92992
-2.8626
-2.76907
-2.66819
-2.58582
-2.57157
-2.57514
-2.5839
-3.64607
-3.48016
-3.30491
-3.12846
-2.99775
-2.9157
-2.89335
-2.94594
-3.0393
-3.10148
-3.11926
-3.0889
-3.01388
-2.91452
-2.80938
-2.73699
-2.71069
-2.7089
-2.72043
-3.97688
-3.75223
-3.49101
-3.25983
-3.12198
-3.05019
-3.04172
-3.11954
-3.21957
-3.26324
-3.26473
-3.22748
-3.16021
-3.07446
-2.98108
-2.90363
-2.86711
-2.86701
-2.868
-4.05021
-3.81346
-3.57007
-3.38365
-3.27154
-3.22011
-3.23294
-3.31213
-3.37919
-3.40382
-3.39372
-3.36112
-3.31941
-3.27135
-3.20008
-3.10946
-3.03772
-3.03662
-3.02996
-3.97091
-3.81064
-3.65424
-3.52868
-3.44591
-3.40763
-3.42147
-3.4858
-3.52848
-3.52741
-3.51336
-3.49836
-3.49291
-3.48666
-3.44204
-3.34986
-3.23773
-3.20771
-3.19729
-3.94872
-3.85875
-3.76937
-3.68928
-3.62842
-3.59553
-3.59984
-3.63407
-3.65259
-3.6398
-3.62395
-3.63052
-3.66438
-3.69321
-3.67213
-3.58892
-3.46591
-3.39181
-3.38077
-3.9992
-3.94813
-3.89549
-3.8435
-3.79898
-3.77331
-3.7674
-3.7713
-3.77338
-3.76226
-3.7515
-3.7762
-3.83099
-3.86162
-3.84166
-3.77277
-3.67204
-3.58264
-3.57515
-4.0841
-4.052
-4.0174
-3.98365
-3.95459
-3.93677
-3.9304
-3.9256
-3.92355
-3.90913
-3.89415
-3.91831
-3.97119
-3.98009
-3.96042
-3.92244
-3.84055
-3.74964
-3.75469
-4.18422
-4.16154
-4.13672
-4.1148
-4.09757
-4.0851
-4.08294
-4.08692
-4.08803
-4.06913
-4.04907
-4.0589
-4.09705
-4.10018
-4.0751
-4.06133
-3.99337
-3.90255
-3.91867
-4.29197
-4.27525
-4.25658
-4.24087
-4.23029
-4.22256
-4.22173
-4.23589
-4.25313
-4.24523
-4.22634
-4.22556
-4.23823
-4.24502
-4.21354
-4.19551
-4.15216
-4.08471
-4.09924
-4.40494
-4.39171
-4.37701
-4.36449
-4.35686
-4.35352
-4.35652
-4.37623
-4.41028
-4.42812
-4.41527
-4.39816
-4.38943
-4.38928
-4.36874
-4.36392
-4.36172
-4.31945
-4.30627
-4.52364
-4.5115
-4.49906
-4.48852
-4.48178
-4.47971
-4.48469
-4.50302
-4.53458
-4.56513
-4.56063
-4.53568
-4.52864
-4.52804
-4.53465
-4.5705
-4.6021
-4.58215
-4.53017
-4.65001
-4.6365
-4.62455
-4.61489
-4.60823
-4.60508
-4.6071
-4.61748
-4.63601
-4.65493
-4.65779
-4.64933
-4.64316
-4.64648
-4.68607
-4.75339
-4.79124
-4.77469
-4.72481
-4.78712
-4.76856
-4.7546
-4.74456
-4.73758
-4.73335
-4.7321
-4.73513
-4.74285
-4.75255
-4.75614
-4.75545
-4.74922
-4.76353
-4.8124
-4.87212
-4.89449
-4.89135
-4.86665
-4.93846
-4.9094
-4.8897
-4.87779
-4.87003
-4.86519
-4.86241
-4.86173
-4.86378
-4.86736
-4.86964
-4.8681
-4.86367
-4.88831
-4.92569
-4.95995
-4.95783
-4.9716
-4.98112
-5.10697
-5.06066
-5.03128
-5.01433
-5.00485
-4.99928
-4.99557
-4.99301
-4.99187
-4.99024
-4.99041
-4.98447
-4.98998
-5.02095
-5.04506
-5.06489
-5.06925
-5.07466
-5.0853
-5.28992
-5.21893
-5.17457
-5.1523
-5.14057
-5.13417
-5.12976
-5.12598
-5.12242
-5.11551
-5.11632
-5.10904
-5.12826
-5.15423
-5.17046
-5.18377
-5.1912
-5.19455
-5.19992
-5.47501
-5.37735
-5.31665
-5.28878
-5.27556
-5.26903
-5.26452
-5.26045
-5.25816
-5.24744
-5.24922
-5.25202
-5.26843
-5.28935
-5.29976
-5.30712
-5.31256
-5.3152
-5.31982
-5.637
-5.52171
-5.45366
-5.42223
-5.40828
-5.40271
-5.39947
-5.39497
-5.40008
-5.36665
-5.37996
-5.39277
-5.39775
-5.42626
-5.43256
-5.43501
-5.43777
-5.43978
-5.44167
-5.73531
-5.63123
-5.58217
-5.55265
-5.53917
-5.53528
-5.53454
-5.5298
-5.5492
-5.46761
-5.581
-5.58201
-5.56054
-5.56874
-5.57115
-5.56734
-5.56633
-5.56628
-5.56526
-5.77127
-5.71963
-5.69729
-5.67757
-5.66904
-5.66642
-5.66816
-5.67066
-5.6855
-5.66166
-5.91845
-5.80132
-5.77558
-5.71594
-5.71109
-5.70116
-5.69506
-5.6924
-5.6889
)
;

boundaryField
{
    leftWall
    {
        type            calculated;
        value           nonuniform List<scalar> 
50
(
649.69
592.87
538.801
484.998
430.686
374.702
317.158
259.304
170.724
65.9518
12.9669
0.377833
0.0914954
-0.184748
-0.37378
-0.492132
-0.5981
-0.730697
-0.906651
-1.0841
-1.3124
-1.54595
-1.73462
-1.88281
-2.05413
-2.25518
-2.45161
-2.64186
-2.82988
-2.98921
-3.11267
-3.23812
-3.37615
-3.51992
-3.66487
-3.8071
-3.93659
-4.06239
-4.18841
-4.31691
-4.44829
-4.5818
-4.71678
-4.85304
-4.99058
-5.12933
-5.26908
-5.40958
-5.55103
-5.69416
)
;
    }
    rightWall
    {
        type            calculated;
        value           nonuniform List<scalar> 
50
(
583.253
530.513
477.927
423.297
365.667
306.485
246.456
185.649
92.1176
15.374
1.14917
0.924193
0.690238
0.48714
0.334624
0.146283
-0.0723438
-0.330103
-0.578119
-0.801558
-1.01627
-1.2449
-1.43448
-1.60538
-1.77681
-1.96805
-2.16263
-2.32536
-2.45718
-2.5839
-2.72043
-2.868
-3.02996
-3.19729
-3.38077
-3.57515
-3.75469
-3.91867
-4.09924
-4.30627
-4.53017
-4.72481
-4.86665
-4.98112
-5.0853
-5.19992
-5.31982
-5.44167
-5.56526
-5.6889
)
;
    }
    lowerWall
    {
        type            calculated;
        value           nonuniform List<scalar> 
62
(
678.816
681.361
682.519
683.306
685.413
688.898
694.627
703.282
713.423
723.187
734.383
749.015
763.93
779.596
796.175
813.158
830.462
847.452
863.485
878.226
891.056
898.871
902.589
873.165
815.231
758.295
701.607
644.245
584.985
520.714
447.926
281.037
294.093
320.903
330.104
759.687
704.483
648.827
592.902
536.408
478.446
418.976
360.887
787.241
788.306
790.667
783.351
786.137
792.346
775.041
756.016
734.934
709.874
682.112
662.451
655.523
654.648
644.628
626.178
618.068
611.147
609.404
)
;
    }
    atmosphere
    {
        type            calculated;
        value           nonuniform List<scalar> 
46
(
-5.76666
-5.76695
-5.766
-5.76448
-5.7624
-5.75979
-5.75667
-5.75307
-5.74905
-5.74472
-5.74025
-5.73595
-5.73224
-5.72964
-5.72904
-5.72904
-5.72904
-5.80307
-6.06811
-6.47876
-6.73193
-7.69033
-6.4648
-5.84151
-5.73411
-5.74597
-5.75818
-5.7449
-5.75712
-5.74807
-5.73308
-5.72907
-5.72904
-5.72904
-5.73395
-5.74608
-5.76434
-6.38256
-5.86478
-5.85763
-5.77955
-5.77812
-5.76774
-5.75868
-5.75513
-5.75018
)
;
    }
    defaultFaces
    {
        type            empty;
    }
}


// ************************************************************************* //
