/*--------------------------------*- C++ -*----------------------------------*\
| =========                 |                                                 |
| \\      /  F ield         | OpenFOAM: The Open Source CFD Toolbox           |
|  \\    /   O peration     | Version:  2.3.0                                 |
|   \\  /    A nd           | Web:      www.OpenFOAM.org                      |
|    \\/     M anipulation  |                                                 |
\*---------------------------------------------------------------------------*/
FoamFile
{
    version     2.0;
    format      ascii;
    class       surfaceScalarField;
    location    "2.9";
    object      phi;
}
// * * * * * * * * * * * * * * * * * * * * * * * * * * * * * * * * * * * * * //

dimensions      [0 3 -1 0 0 0 0];

internalField   nonuniform List<scalar> 
4432
(
-2.74768e-06
2.74768e-06
-2.8362e-06
8.85212e-08
-2.14073e-06
-6.9547e-07
-2.0114e-06
-1.29334e-07
-1.39711e-06
-6.14286e-07
1.02207e-07
-1.49932e-06
1.01418e-06
-9.1197e-07
1.27337e-07
8.8684e-07
-1.2419e-06
1.36924e-06
-1.48748e-06
2.4558e-07
-1.59635e-07
-1.32785e-06
2.53491e-06
-2.69454e-06
6.31894e-06
-3.78404e-06
1.057e-05
-4.2511e-06
1.43782e-05
-3.80812e-06
1.54398e-05
-1.06161e-06
1.25246e-05
2.91517e-06
7.68279e-06
4.8418e-06
3.66938e-06
4.01341e-06
1.37748e-06
2.29189e-06
4.48144e-08
1.33266e-06
-9.71763e-07
1.01658e-06
-9.71764e-07
-3.13625e-06
5.88392e-06
-5.58914e-06
2.54141e-06
-6.42201e-06
1.37399e-07
-6.96732e-06
4.15977e-07
-6.78482e-06
-7.96782e-07
-5.48931e-06
-2.79484e-06
-3.19513e-06
-3.20615e-06
-1.03841e-06
-1.26988e-06
4.54794e-07
-1.2397e-07
2.10323e-06
-1.40286e-06
4.31975e-06
-3.54437e-06
7.37816e-06
-5.75295e-06
1.0997e-05
-7.40289e-06
1.48914e-05
-8.14552e-06
1.86328e-05
-7.54951e-06
2.14709e-05
-3.89966e-06
2.20293e-05
2.35674e-06
1.94069e-05
7.4642e-06
1.48479e-05
8.57243e-06
9.83285e-06
7.30691e-06
5.27588e-06
5.88963e-06
1.58068e-06
4.71178e-06
6.08911e-07
-9.25017e-07
6.80894e-06
-4.8974e-06
6.51379e-06
-6.34706e-06
1.58706e-06
-6.59047e-06
6.59388e-07
-6.59066e-06
-7.9659e-07
-6.1544e-06
-3.2311e-06
-4.7401e-06
-4.62044e-06
-1.73935e-06
-4.27063e-06
2.38019e-06
-4.24352e-06
6.35734e-06
-5.38e-06
1.0006e-05
-7.19301e-06
1.35377e-05
-9.28467e-06
1.68985e-05
-1.07637e-05
1.98945e-05
-1.11415e-05
2.24158e-05
-1.00708e-05
2.46743e-05
-6.1582e-06
2.57198e-05
1.31129e-06
2.41728e-05
9.0112e-06
2.0084e-05
1.26612e-05
1.46869e-05
1.2704e-05
9.0582e-06
1.15183e-05
3.96117e-06
9.8088e-06
4.57009e-06
1.96492e-06
4.84401e-06
-9.22181e-08
8.57093e-06
-1.82905e-06
3.3239e-06
-2.04147e-06
8.71801e-07
-1.58117e-06
-1.25689e-06
-7.30731e-07
-4.08154e-06
7.39582e-07
-6.09076e-06
3.54021e-06
-7.07125e-06
7.67e-06
-8.37331e-06
1.19051e-05
-9.61515e-06
1.5868e-05
-1.11559e-05
1.94257e-05
-1.28423e-05
2.243e-05
-1.3768e-05
2.46568e-05
-1.33684e-05
2.59782e-05
-1.13922e-05
2.70656e-05
-7.24556e-06
2.76657e-05
7.11171e-07
2.63665e-05
1.03104e-05
2.251e-05
1.65177e-05
1.72624e-05
1.79516e-05
1.16561e-05
1.71247e-05
5.97957e-06
1.54853e-05
1.05497e-05
1.2675e-06
3.57652e-06
2.40698e-06
7.43145e-06
2.71102e-06
3.01985e-06
2.92864e-06
6.54183e-07
3.4662e-06
-1.79445e-06
4.39407e-06
-5.0094e-06
6.1124e-06
-7.8091e-06
8.83166e-06
-9.79051e-06
1.24574e-05
-1.1999e-05
1.60714e-05
-1.32291e-05
1.93936e-05
-1.44781e-05
2.23531e-05
-1.58018e-05
2.48267e-05
-1.62416e-05
2.65899e-05
-1.51316e-05
2.74943e-05
-1.22966e-05
2.78925e-05
-7.64381e-06
2.82378e-05
3.65919e-07
2.73621e-05
1.1186e-05
2.41865e-05
1.96934e-05
1.92945e-05
2.28436e-05
1.39722e-05
2.24469e-05
8.06779e-06
2.13897e-05
1.86175e-05
-1.67198e-06
5.2485e-06
5.09269e-07
5.2502e-06
2.97352e-06
5.55601e-07
4.92776e-06
-1.30006e-06
6.07894e-06
-2.94563e-06
7.01694e-06
-5.9474e-06
8.41571e-06
-9.20787e-06
1.05362e-05
-1.1911e-05
1.30587e-05
-1.45215e-05
1.54957e-05
-1.56662e-05
1.79408e-05
-1.69232e-05
2.03297e-05
-1.81906e-05
2.2526e-05
-1.8438e-05
2.43669e-05
-1.69724e-05
2.56988e-05
-1.36286e-05
2.64099e-05
-8.35487e-06
2.70182e-05
-2.42431e-07
2.7119e-05
1.10853e-05
2.5335e-05
2.14774e-05
2.15543e-05
2.66242e-05
1.66766e-05
2.73246e-05
1.05143e-05
2.75521e-05
2.91317e-05
-2.70983e-06
7.95833e-06
2.39478e-07
2.30089e-06
3.66829e-06
-2.87321e-06
5.45609e-06
-3.08785e-06
6.02941e-06
-3.51896e-06
6.03852e-06
-5.95651e-06
6.18769e-06
-9.35704e-06
6.91533e-06
-1.26387e-05
7.88996e-06
-1.54961e-05
9.14162e-06
-1.69179e-05
1.09236e-05
-1.87052e-05
1.30982e-05
-2.03652e-05
1.56049e-05
-2.09447e-05
1.82632e-05
-1.96306e-05
2.07602e-05
-1.61256e-05
2.26309e-05
-1.02256e-05
2.41137e-05
-1.72525e-06
2.55422e-05
9.65682e-06
2.57056e-05
2.1314e-05
2.38551e-05
2.84746e-05
1.99776e-05
3.12021e-05
1.42671e-05
3.32626e-05
4.33988e-05
-6.22721e-07
8.58105e-06
2.22774e-06
-5.49571e-07
4.03943e-06
-4.6849e-06
3.88481e-06
-2.93324e-06
2.96581e-06
-2.59996e-06
1.67597e-06
-4.66667e-06
4.26922e-07
-8.108e-06
-2.10995e-07
-1.20008e-05
-3.49348e-07
-1.53578e-05
7.95986e-08
-1.73468e-05
1.2652e-06
-1.98908e-05
3.32287e-06
-2.24229e-05
6.23497e-06
-2.38568e-05
9.84853e-06
-2.32442e-05
1.36645e-05
-1.99416e-05
1.70453e-05
-1.36064e-05
1.99593e-05
-4.63928e-06
2.28421e-05
6.77407e-06
2.51706e-05
1.89855e-05
2.58526e-05
2.77927e-05
2.38418e-05
3.32129e-05
1.77021e-05
3.94023e-05
6.11009e-05
-6.5222e-07
6.5222e-07
-4.67143e-06
4.01921e-06
-1.03957e-05
5.72429e-06
-1.5706e-05
5.31023e-06
-1.13249e-05
-4.38104e-06
-3.86038e-07
-1.09389e-05
5.86544e-06
-6.25149e-06
9.16273e-06
-3.29729e-06
1.36438e-05
-4.48108e-06
1.92628e-05
-5.61902e-06
2.25261e-05
-3.26332e-06
2.03271e-05
2.19902e-06
1.23962e-05
7.93087e-06
5.28785e-06
7.10839e-06
2.77536e-07
5.01032e-06
-4.70982e-06
4.98736e-06
-5.3112e-06
6.01372e-07
-3.72864e-06
-1.58256e-06
-3.72864e-06
-2.49489e-06
3.14711e-06
-8.31652e-06
9.84083e-06
-1.45954e-05
1.20032e-05
-1.52689e-05
5.98373e-06
-9.18884e-06
-1.04611e-05
-4.08303e-07
-1.97194e-05
6.60393e-06
-1.32637e-05
1.06718e-05
-7.36511e-06
1.48773e-05
-8.68663e-06
1.96903e-05
-1.0432e-05
2.25082e-05
-6.08125e-06
2.26098e-05
2.09749e-06
1.80763e-05
1.24644e-05
8.49906e-06
1.66856e-05
4.72617e-07
1.30368e-05
-2.28393e-06
7.74391e-06
-2.60069e-06
9.18128e-07
-3.15647e-06
-1.02678e-06
-6.88511e-06
-3.25928e-06
6.40639e-06
-7.47435e-06
1.40559e-05
-1.18824e-05
1.64113e-05
-1.17542e-05
5.85551e-06
-8.08173e-06
-1.41337e-05
-2.55375e-06
-2.52474e-05
3.59282e-06
-1.94103e-05
8.01103e-06
-1.17833e-05
1.26742e-05
-1.33498e-05
1.7618e-05
-1.53758e-05
1.94967e-05
-7.95997e-06
1.90462e-05
2.54795e-06
1.69826e-05
1.45281e-05
9.82701e-06
2.38411e-05
2.76491e-06
2.00989e-05
1.52433e-06
8.9845e-06
1.0091e-06
1.43335e-06
-1.2448e-06
1.22712e-06
-8.1299e-06
-3.59485e-06
1.00012e-05
-5.12472e-06
1.55858e-05
-7.23516e-06
1.85217e-05
-7.6161e-06
6.23647e-06
-6.34129e-06
-1.54085e-05
-4.00871e-06
-2.75799e-05
2.85546e-07
-2.37046e-05
5.05329e-06
-1.6551e-05
9.86797e-06
-1.81645e-05
1.3877e-05
-1.93848e-05
1.5202e-05
-9.28497e-06
1.44896e-05
3.26033e-06
1.39264e-05
1.50913e-05
1.02543e-05
2.75132e-05
5.68581e-06
2.46674e-05
4.60398e-06
1.00663e-05
3.937e-06
2.10033e-06
9.07959e-07
4.25616e-06
-7.22194e-06
-4.45028e-06
1.44515e-05
-2.93355e-06
1.4069e-05
-2.49822e-06
1.80864e-05
-3.89574e-06
7.63401e-06
-4.19041e-06
-1.51138e-05
-4.02267e-06
-2.77476e-05
-9.34841e-07
-2.67924e-05
3.5327e-06
-2.10186e-05
6.45384e-06
-2.10856e-05
7.66608e-06
-2.05971e-05
8.63437e-06
-1.02533e-05
8.41333e-06
3.48137e-06
9.13592e-06
1.43687e-05
9.41703e-06
2.72321e-05
8.14245e-06
2.5942e-05
6.73963e-06
1.14691e-05
4.72752e-06
4.11245e-06
2.47319e-06
6.51048e-06
-4.74875e-06
-5.05861e-06
1.95101e-05
-1.68797e-06
1.06984e-05
1.49784e-06
1.49006e-05
1.37755e-07
8.9941e-06
-1.04534e-06
-1.39307e-05
-2.72755e-06
-2.60654e-05
-1.03529e-06
-2.84847e-05
1.80334e-06
-2.38572e-05
1.4263e-06
-2.07086e-05
-1.50175e-07
-1.90206e-05
2.74774e-07
-1.06782e-05
8.68303e-07
2.88784e-06
3.33636e-06
1.19007e-05
7.09167e-06
2.34767e-05
8.69234e-06
2.43413e-05
7.75305e-06
1.24084e-05
3.57812e-06
8.28737e-06
3.1236e-06
6.965e-06
-1.62515e-06
-2.66886e-06
2.2179e-05
-1.35829e-06
9.3878e-06
1.8858e-06
1.16565e-05
3.42147e-06
7.45845e-06
1.76225e-06
-1.22715e-05
-5.42169e-07
-2.3761e-05
-9.21567e-07
-2.81053e-05
-7.46348e-07
-2.40324e-05
-3.29175e-06
-1.81632e-05
-6.83546e-06
-1.54769e-05
-7.75095e-06
-9.76271e-06
-5.83713e-06
9.7402e-07
-2.19174e-06
8.25527e-06
3.34829e-06
1.79367e-05
7.02954e-06
2.066e-05
6.11971e-06
1.33183e-05
2.90629e-06
1.15008e-05
3.57882e-06
6.29247e-06
1.95367e-06
2.88404e-06
1.9295e-05
3.71247e-06
8.55937e-06
4.15594e-06
1.1213e-05
5.45304e-06
6.16135e-06
4.4584e-06
-1.12769e-05
2.42222e-06
-2.17248e-05
-1.8996e-07
-2.54931e-05
-2.33032e-06
-2.18921e-05
-6.44124e-06
-1.40523e-05
-1.1962e-05
-9.95616e-06
-1.41827e-05
-7.54196e-06
-1.15604e-05
-1.6483e-06
-7.75364e-06
4.44852e-06
-2.17839e-06
1.23615e-05
1.78906e-06
1.66926e-05
1.58647e-06
1.35208e-05
1.40721e-06
1.16801e-05
2.43303e-06
5.26664e-06
4.3867e-06
4.90791e-06
3.67314e-06
4.54344e-06
-1.85104e-07
-3.26762e-07
1.8531e-07
-4.15047e-06
8.90469e-07
-6.89967e-06
1.49238e-07
-9.67792e-06
-1.88841e-06
-1.24743e-05
-5.31164e-06
-1.48733e-05
-9.60172e-06
-1.66622e-05
-1.35689e-05
-1.74006e-05
-1.66084e-05
-1.66726e-05
-2.06187e-05
-1.45963e-05
-2.44993e-05
-1.04483e-05
-2.80048e-05
-3.47382e-06
-3.02187e-05
5.56344e-06
-2.89788e-05
1.53654e-05
-2.34084e-05
2.58682e-05
-1.5142e-05
3.71035e-05
-4.4612e-06
4.78539e-05
8.23503e-06
5.6905e-05
1.87416e-05
6.27926e-05
2.73253e-05
6.79366e-05
3.42582e-05
4.48804e-05
8.41571e-05
1.86171e-06
1.81143e-06
-8.32799e-06
1.00046e-05
-1.38853e-05
5.74264e-06
-1.36428e-05
6.4798e-07
-1.14448e-05
-2.04885e-06
-7.83627e-06
-5.4969e-06
-3.51528e-06
-9.63263e-06
4.79213e-07
-1.35962e-05
2.59601e-06
-1.56857e-05
2.26018e-06
-1.62725e-05
-4.27434e-07
-1.79311e-05
-4.62348e-06
-2.03032e-05
-9.58718e-06
-2.30411e-05
-1.31964e-05
-2.66095e-05
-1.34034e-05
-2.87718e-05
-8.73882e-06
-2.8073e-05
1.53397e-06
-2.54148e-05
1.56782e-05
-1.86055e-05
3.14972e-05
-7.58391e-06
4.72998e-05
2.93905e-06
6.22635e-05
1.23615e-05
7.70393e-05
1.94825e-05
2.66888e-05
9.52309e-05
-1.06399e-05
1.24514e-05
-2.17766e-06
1.54233e-06
2.84227e-05
-2.48578e-05
4.04815e-05
-1.14108e-05
2.89996e-05
9.43298e-06
3.43924e-05
-1.08897e-05
6.70029e-05
-4.2243e-05
0.000112094
-5.8687e-05
0.000152699
-5.62919e-05
0.000169115
-3.2688e-05
0.000155825
-4.64148e-06
0.000122033
1.34886e-05
9.32261e-05
5.7662e-06
5.8973e-05
7.64351e-06
2.7039e-05
3.16231e-06
6.92257e-06
-7.95659e-06
6.98205e-07
-1.91904e-05
4.66593e-06
-2.25732e-05
1.35046e-05
-1.64226e-05
2.49161e-05
-8.47239e-06
3.75226e-05
-2.45016e-07
5.12045e-05
5.80056e-06
1.11292e-05
6.67641e-05
-4.76387e-05
6.009e-05
-6.78233e-05
2.17268e-05
-7.39611e-05
-1.87202e-05
-6.05723e-05
-2.47997e-05
-2.74698e-05
-2.36696e-05
1.79204e-05
-5.62799e-05
7.37399e-05
-9.80619e-05
0.000132887
-0.000117833
0.000186927
-0.000110332
0.000235406
-8.11679e-05
0.000268446
-3.76807e-05
0.000281239
6.95244e-07
0.000264178
2.28275e-05
0.000235566
3.62556e-05
0.00017794
6.07883e-05
8.79627e-05
8.20205e-05
7.49143e-05
-6.14189e-06
5.06848e-05
1.65626e-06
3.72304e-05
-2.96813e-06
3.27269e-05
-3.96883e-06
3.3487e-05
-1.00519e-06
3.86361e-05
6.51516e-07
-1.36489e-06
5.11302e-05
-3.68999e-05
9.69898e-05
-4.63893e-05
3.12163e-05
-4.47643e-05
-2.03454e-05
-2.6425e-05
-4.31391e-05
4.00497e-06
-5.40995e-05
4.76721e-05
-9.99471e-05
9.95994e-05
-0.00014999
0.000143915
-0.000162149
0.000178148
-0.000144566
0.000207665
-0.000110685
0.000238131
-6.81461e-05
0.000265612
-2.67856e-05
0.000284805
3.63378e-06
0.000292501
2.85604e-05
0.00029236
6.09296e-05
0.000283195
9.1186e-05
0.000203017
7.40355e-05
0.000147873
5.68011e-05
0.000108937
3.59671e-05
9.30046e-05
1.19639e-05
9.08943e-05
1.10514e-06
0.000102244
-1.06983e-05
-2.98245e-05
0.000130704
-1.52626e-05
0.000112252
-1.54707e-05
3.14245e-05
-1.2268e-05
-2.35481e-05
6.57724e-06
-6.19845e-05
4.33961e-05
-9.09185e-05
8.35226e-05
-0.000140073
0.000118392
-0.00018486
0.000142065
-0.000185821
0.000156811
-0.000159312
0.000169803
-0.000123677
0.000189281
-8.76237e-05
0.000213748
-5.12533e-05
0.000235623
-1.8241e-05
0.000256231
7.95216e-06
0.000281468
3.56926e-05
0.00030528
6.7374e-05
0.000293881
8.54348e-05
0.000260374
9.03074e-05
0.000220523
7.58182e-05
0.000181716
5.07717e-05
0.000151539
3.12814e-05
0.000122479
1.83612e-05
1.45161e-05
7.81388e-05
1.18347e-05
0.000100417
1.1838e-05
3.14213e-05
1.66278e-05
-2.8338e-05
3.80081e-05
-8.33649e-05
7.29578e-05
-0.000125868
0.000101169
-0.000168284
0.000113421
-0.000197112
0.000114279
-0.000186679
0.000111754
-0.000156787
0.000115384
-0.000127306
0.000133006
-0.000105246
0.000160871
-7.91184e-05
0.000188242
-4.56127e-05
0.000209335
-1.31407e-05
0.000230529
1.44991e-05
0.000251568
4.63348e-05
0.000256199
8.08036e-05
0.000241078
0.000105429
0.000210017
0.00010688
0.000170295
9.04936e-05
0.000127776
7.38e-05
7.24477e-05
7.36895e-05
9.4577e-05
-7.6132e-06
3.09737e-05
6.94439e-05
3.51955e-05
2.71994e-05
4.36097e-05
-3.67524e-05
6.01849e-05
-9.99403e-05
7.92081e-05
-0.000144892
9.49294e-05
-0.000184006
9.18479e-05
-0.00019403
7.30652e-05
-0.000167896
5.77722e-05
-0.000141494
5.80795e-05
-0.000127614
7.41982e-05
-0.000121364
9.94816e-05
-0.000104402
0.000126066
-7.21968e-05
0.000148917
-3.59922e-05
0.000164719
-1.30205e-06
0.000175445
3.5608e-05
0.000180638
7.56109e-05
0.000175372
0.000110695
0.000155048
0.000127203
0.000121618
0.000123923
7.38952e-05
0.000121523
5.08755e-06
0.000142497
0.000166569
-6.69049e-05
3.42011e-05
3.52428e-05
4.86642e-05
1.27361e-05
6.12859e-05
-4.93743e-05
6.7082e-05
-0.000105736
6.74298e-05
-0.000145239
7.1067e-05
-0.000187643
6.19641e-05
-0.000184927
3.53587e-05
-0.000141291
1.93589e-05
-0.000125494
2.30965e-05
-0.000131351
3.5231e-05
-0.000133498
5.25367e-05
-0.000121708
7.34315e-05
-9.30913e-05
9.08001e-05
-5.336e-05
0.000101905
-1.24069e-05
0.000107676
2.9837e-05
0.000110062
7.32252e-05
0.000106154
0.000114603
9.22484e-05
0.000141108
6.39387e-05
0.000152233
1.33234e-05
0.000172139
-4.71542e-05
0.000202975
0.000208998
-8.9583e-05
2.37562e-05
1.14866e-05
5.31499e-05
-1.66578e-05
7.12958e-05
-6.752e-05
6.6863e-05
-0.000101304
5.15706e-05
-0.000129947
4.56228e-05
-0.000181695
3.4893e-05
-0.000174197
1.19265e-05
-0.000118324
2.22894e-06
-0.000115796
5.13646e-06
-0.000134259
8.05961e-06
-0.000136422
1.4612e-05
-0.00012826
2.72235e-05
-0.000105703
3.97946e-05
-6.59312e-05
4.81574e-05
-2.07695e-05
5.2631e-05
2.53629e-05
5.31512e-05
7.27047e-05
4.95125e-05
0.000118241
3.84628e-05
0.000152159
9.13564e-06
0.00018156
-3.71721e-05
0.000218446
-7.48041e-05
0.000240607
0.000224448
-9.02539e-05
8.92743e-06
2.559e-06
5.21478e-05
-5.98785e-05
7.26211e-05
-8.79932e-05
6.19087e-05
-9.0591e-05
3.84582e-05
-0.000106496
2.08382e-05
-0.000164075
1.03206e-05
-0.000163679
-3.4593e-06
-0.000104544
-1.30209e-05
-0.000106235
-1.81449e-05
-0.000129135
-2.13533e-05
-0.000133213
-2.09787e-05
-0.000128635
-1.40133e-05
-0.000112668
-3.82271e-06
-7.61219e-05
4.63538e-06
-2.92274e-05
9.24464e-06
2.07536e-05
1.0059e-05
7.18903e-05
7.04189e-06
0.000121259
-6.8923e-06
0.000166093
-3.6526e-05
0.000211194
-6.69839e-05
0.000248904
-7.98046e-05
0.000253428
0.000221077
-7.64338e-05
-4.23554e-06
6.79471e-06
3.6935e-05
-0.000101049
5.8017e-05
-0.000109075
5.09463e-05
-8.35204e-05
3.06157e-05
-8.61655e-05
3.09113e-06
-0.000136551
-7.29958e-06
-0.000153289
-1.40207e-05
-9.78233e-05
-2.42252e-05
-9.60294e-05
-3.59502e-05
-0.000117409
-4.46799e-05
-0.000124483
-5.00745e-05
-0.000123241
-5.00198e-05
-0.000112723
-4.28499e-05
-8.32922e-05
-3.47858e-05
-3.72917e-05
-2.89342e-05
1.49022e-05
-2.68945e-05
6.98504e-05
-3.08941e-05
0.000125258
-4.48163e-05
0.000180015
-6.37371e-05
0.000230114
-7.23094e-05
0.000257477
-6.46379e-05
0.000245756
0.000204607
-4.81672e-05
-4.99847e-06
1.1793e-05
1.65214e-05
-0.000122569
3.26514e-05
-0.000125205
3.74871e-05
-8.83566e-05
2.77492e-05
-7.64277e-05
4.47863e-07
-0.000109249
-1.60813e-05
-0.000136759
-1.60931e-05
-9.78116e-05
-2.67268e-05
-8.53959e-05
-4.37498e-05
-0.000100387
-5.95333e-05
-0.0001087
-7.27605e-05
-0.000110013
-8.06798e-05
-0.000104803
-7.95607e-05
-8.44118e-05
-7.24258e-05
-4.4427e-05
-6.5439e-05
7.91529e-06
-6.10093e-05
6.5421e-05
-6.17395e-05
0.000125988
-6.62534e-05
0.000184529
-6.63104e-05
0.000230171
-5.4061e-05
0.000245227
-3.15866e-05
0.000223282
0.00017879
-5.77017e-06
4.48326e-06
7.30994e-06
5.59786e-06
-0.000123684
1.25114e-05
-0.000132118
2.80467e-05
-0.000103892
2.80294e-05
-7.64108e-05
3.13405e-06
-8.43544e-05
-2.11651e-05
-0.00011246
-1.97837e-05
-9.91925e-05
-2.60671e-05
-7.91122e-05
-4.3592e-05
-8.28618e-05
-6.37836e-05
-8.85087e-05
-8.24831e-05
-9.13133e-05
-9.66757e-05
-9.06102e-05
-0.000102557
-7.85301e-05
-9.89152e-05
-4.80693e-05
-9.1271e-05
2.70943e-07
-8.24932e-05
5.66432e-05
-7.4047e-05
0.000117542
-6.29236e-05
0.000173406
-4.41349e-05
0.000211383
-1.65084e-05
0.0002176
1.59873e-05
0.000190786
0.000147173
4.76037e-05
1.66296e-05
-9.31933e-06
1.08528e-05
-0.000117907
9.60032e-06
-0.000130866
2.2021e-05
-0.000116312
3.20682e-05
-8.64582e-05
1.40079e-05
-6.62939e-05
-2.00943e-05
-7.8358e-05
-2.92401e-05
-9.00471e-05
-3.17664e-05
-7.65857e-05
-4.23331e-05
-7.22944e-05
-5.75065e-05
-7.33353e-05
-7.39168e-05
-7.49032e-05
-8.94042e-05
-7.51229e-05
-9.97227e-05
-6.82116e-05
-0.000100315
-4.7477e-05
-9.20012e-05
-8.04327e-06
-7.83403e-05
4.29822e-05
-5.9881e-05
9.90827e-05
-3.51421e-05
0.000148667
-2.76892e-06
0.000179009
3.51643e-05
0.000179667
7.21594e-05
0.000153791
0.0001132
0.000106133
2.55945e-05
-3.4914e-05
2.64506e-05
-0.000118763
2.02989e-05
-0.000124715
1.86963e-05
-0.00011471
3.1132e-05
-9.88942e-05
2.76488e-05
-6.28103e-05
-6.9124e-06
-4.37973e-05
-3.47247e-05
-6.22349e-05
-4.22867e-05
-6.90239e-05
-4.62118e-05
-6.83692e-05
-5.1295e-05
-6.82519e-05
-5.82316e-05
-6.79667e-05
-6.60667e-05
-6.72879e-05
-7.23228e-05
-6.19556e-05
-7.316e-05
-4.66397e-05
-6.47303e-05
-1.6473e-05
-4.82137e-05
2.64656e-05
-2.41012e-05
7.49702e-05
7.79356e-06
0.000116772
4.68497e-05
0.000139953
8.84864e-05
0.00013803
0.000127062
0.000115215
8.03429e-05
0.00015992
2.59707e-05
-6.08849e-05
3.81299e-05
-0.000130923
3.34955e-05
-0.00012008
2.31067e-05
-0.000104321
2.68799e-05
-0.000102667
3.93791e-05
-7.53095e-05
2.34014e-05
-2.78201e-05
-1.55735e-05
-2.32596e-05
-3.93163e-05
-4.52811e-05
-4.83001e-05
-5.93853e-05
-5.07583e-05
-6.57937e-05
-5.10446e-05
-6.76804e-05
-4.99674e-05
-6.83653e-05
-4.50601e-05
-6.68629e-05
-3.53438e-05
-5.6356e-05
-1.99669e-05
-3.18498e-05
1.64304e-06
4.85559e-06
2.54736e-05
5.11394e-05
5.64051e-05
8.58403e-05
9.40467e-05
0.000102311
0.000133755
9.83221e-05
0.0001702
7.87699e-05
5.08557e-05
0.000199688
2.31477e-05
-8.40326e-05
3.50664e-05
-0.000142842
3.23386e-05
-0.000117352
2.67139e-05
-9.8697e-05
2.19017e-05
-9.78548e-05
3.62111e-05
-8.96193e-05
4.77629e-05
-3.93719e-05
3.01344e-05
-5.63086e-06
1.4737e-06
-1.66206e-05
-1.6907e-05
-4.10048e-05
-2.52905e-05
-5.74102e-05
-2.86829e-05
-6.4288e-05
-3.0424e-05
-6.66243e-05
-2.83693e-05
-6.89176e-05
-1.79187e-05
-6.68066e-05
7.91937e-06
-5.76878e-05
3.87929e-05
-2.60181e-05
6.87191e-05
2.12131e-05
9.73679e-05
5.71915e-05
0.000129191
7.04883e-05
0.000162764
6.47495e-05
0.000193688
4.78461e-05
2.82601e-05
0.000216283
1.76217e-05
-0.000101654
1.68469e-05
-0.000142067
1.30586e-05
-0.000113564
1.44083e-05
-0.000100047
1.10174e-05
-9.44641e-05
1.74382e-05
-9.60405e-05
3.89834e-05
-6.09171e-05
5.29779e-05
-1.96252e-05
4.74552e-05
-1.10982e-05
3.68217e-05
-3.03715e-05
3.08907e-05
-5.14789e-05
3.10387e-05
-6.44359e-05
3.36645e-05
-6.92502e-05
3.71624e-05
-7.24154e-05
4.26763e-05
-7.23204e-05
4.76782e-05
-6.26896e-05
5.94806e-05
-3.78205e-05
8.05063e-05
1.87532e-07
0.000104451
3.32474e-05
0.000129102
4.58373e-05
0.000153704
4.01476e-05
0.000175556
2.5994e-05
1.26737e-05
0.000191142
6.57553e-06
-0.00010823
-5.50018e-06
-0.000129991
-1.02998e-05
-0.000108765
-8.50189e-06
-0.000101845
-7.53643e-06
-9.543e-05
-7.13289e-06
-9.64442e-05
9.44347e-06
-7.74931e-05
3.51086e-05
-4.52901e-05
5.16812e-05
-2.76709e-05
5.63996e-05
-3.50898e-05
5.97966e-05
-5.48759e-05
6.64623e-05
-7.11017e-05
7.5084e-05
-7.7872e-05
8.72788e-05
-8.46102e-05
9.67141e-05
-8.17555e-05
9.86791e-05
-6.46544e-05
9.88122e-05
-3.79535e-05
0.000106971
-7.97068e-06
0.00012215
1.8068e-05
0.000139734
2.82533e-05
0.000156712
2.31703e-05
0.000170575
1.21308e-05
6.3865e-06
0.000176862
-6.04386e-06
-0.000102186
-2.06389e-05
-0.000115396
-2.45493e-05
-0.000104854
-2.43903e-05
-0.000102003
-2.15109e-05
-9.83095e-05
-2.22127e-05
-9.5742e-05
-1.40026e-05
-8.57027e-05
4.18257e-06
-6.34752e-05
2.58519e-05
-4.93402e-05
4.46227e-05
-5.38606e-05
5.97948e-05
-7.00481e-05
7.19159e-05
-8.32229e-05
8.39611e-05
-8.99172e-05
9.35933e-05
-9.42423e-05
9.95752e-05
-8.77373e-05
0.000101532
-6.66111e-05
0.000101774
-3.81954e-05
0.000105699
-1.18958e-05
0.000117857
5.90989e-06
0.000130564
1.55469e-05
0.000141193
1.25409e-05
0.00014597
7.35391e-06
9.29744e-06
0.000143059
-1.07933e-05
-9.13929e-05
-2.20388e-05
-0.000104151
-2.45497e-05
-0.000102343
-2.50621e-05
-0.000101491
-2.21396e-05
-0.000101232
-1.83494e-05
-9.95317e-05
-1.42319e-05
-8.98202e-05
-2.73793e-06
-7.49694e-05
1.44906e-05
-6.65687e-05
3.4547e-05
-7.3917e-05
4.95682e-05
-8.50694e-05
5.9285e-05
-9.29398e-05
6.59348e-05
-9.65669e-05
6.59825e-05
-9.42898e-05
6.46195e-05
-8.63741e-05
6.36496e-05
-6.56411e-05
6.38578e-05
-3.84036e-05
6.23955e-05
-1.04334e-05
6.56086e-05
2.69683e-06
7.72828e-05
3.87272e-06
9.3234e-05
-3.41031e-06
0.000104092
-3.50432e-06
4.8773e-06
0.000108512
-5.74684e-06
-8.56463e-05
-1.42364e-05
-9.5661e-05
-1.65831e-05
-9.99958e-05
-1.78847e-05
-0.00010019
-1.59656e-05
-0.000103151
-1.03703e-05
-0.000105127
-3.58656e-06
-9.66043e-05
4.70506e-06
-8.32612e-05
1.39513e-05
-7.58147e-05
2.23883e-05
-8.23539e-05
2.63634e-05
-8.90445e-05
2.68805e-05
-9.34568e-05
2.42209e-05
-9.39071e-05
1.87327e-05
-8.88013e-05
1.04432e-05
-7.80845e-05
3.02626e-06
-5.82242e-05
-4.85105e-06
-3.05264e-05
-9.16207e-06
-6.1224e-06
-1.68931e-06
-4.77589e-06
1.70456e-05
-1.48622e-05
3.9561e-05
-2.59257e-05
4.89132e-05
-1.28567e-05
7.60561e-06
4.61849e-05
-2.64414e-08
-8.56201e-05
-6.53825e-06
-8.91491e-05
-9.29239e-06
-9.72419e-05
-1.2396e-05
-9.70863e-05
-1.40296e-05
-0.000101517
-1.27318e-05
-0.000106425
-9.18561e-06
-0.000100151
-5.46805e-06
-8.69786e-05
-2.98507e-06
-7.82975e-05
-2.99896e-06
-8.23399e-05
-4.21089e-06
-8.78325e-05
-7.93621e-06
-8.97313e-05
-1.60131e-05
-8.58299e-05
-2.7346e-05
-7.74682e-05
-4.21591e-05
-6.32713e-05
-5.86083e-05
-4.17749e-05
-6.809e-05
-2.10447e-05
-6.52611e-05
-8.95114e-06
-5.99315e-05
-1.01053e-05
-5.36653e-05
-2.11281e-05
-5.07571e-05
-2.8834e-05
-5.01766e-05
-1.34373e-05
1.39652e-05
-5.65363e-05
-5.28542e-07
-8.50916e-05
-3.388e-06
-8.62896e-05
-6.24888e-06
-9.43809e-05
-1.12496e-05
-9.20853e-05
-1.64805e-05
-9.62854e-05
-2.11143e-05
-0.000101791
-2.37549e-05
-9.75098e-05
-2.49774e-05
-8.57559e-05
-2.39152e-05
-7.93596e-05
-2.28005e-05
-8.34546e-05
-2.32469e-05
-8.7386e-05
-2.85208e-05
-8.44572e-05
-3.93415e-05
-7.50088e-05
-5.27844e-05
-6.40252e-05
-6.67732e-05
-4.92824e-05
-8.1225e-05
-2.73231e-05
-9.47885e-05
-7.48114e-06
-0.000106683
2.94336e-06
-0.000116831
4.28449e-08
-0.000125809
-1.21502e-05
-0.000137178
-1.7465e-05
-0.000146796
-3.81872e-06
2.09672e-05
-0.000153798
-4.58078e-06
-8.05106e-05
-3.891e-06
-8.69792e-05
-6.6444e-06
-9.16271e-05
-1.24872e-05
-8.62423e-05
-1.93059e-05
-8.94668e-05
-2.69904e-05
-9.41062e-05
-3.27425e-05
-9.17575e-05
-3.51641e-05
-8.33343e-05
-3.38886e-05
-8.06352e-05
-3.25733e-05
-8.47699e-05
-3.29098e-05
-8.70493e-05
-3.67839e-05
-8.05829e-05
-4.56772e-05
-6.61154e-05
-5.82362e-05
-5.14662e-05
-7.32406e-05
-3.4278e-05
-9.16839e-05
-8.87985e-06
-0.000111699
1.2534e-05
-0.000128913
2.01575e-05
-0.00014311
1.42403e-05
-0.000160264
5.0039e-06
-0.000181595
3.86603e-06
-0.000200784
1.53697e-05
3.75933e-05
-0.00021741
-8.33483e-06
-7.21757e-05
-5.79259e-06
-8.95215e-05
-8.57358e-06
-8.88459e-05
-1.38386e-05
-8.09775e-05
-2.06616e-05
-8.2644e-05
-2.821e-05
-8.65578e-05
-3.43068e-05
-8.56606e-05
-3.67444e-05
-8.08967e-05
-3.68404e-05
-8.05392e-05
-3.70557e-05
-8.45545e-05
-3.77038e-05
-8.6401e-05
-3.99266e-05
-7.836e-05
-4.69036e-05
-5.91383e-05
-5.98824e-05
-3.84874e-05
-7.6046e-05
-1.81145e-05
-9.56271e-05
1.07012e-05
-0.000116807
3.37143e-05
-0.000135001
3.8351e-05
-0.000151969
3.12084e-05
-0.00017225
2.52852e-05
-0.000194982
2.65982e-05
-0.00021555
3.59367e-05
5.14545e-05
-0.000229411
-9.06302e-06
-6.31128e-05
-7.30256e-06
-9.1282e-05
-1.025e-05
-8.58983e-05
-1.41862e-05
-7.70416e-05
-2.01122e-05
-7.67182e-05
-2.633e-05
-8.03399e-05
-3.13737e-05
-8.06168e-05
-3.39273e-05
-7.83431e-05
-3.5561e-05
-7.89054e-05
-3.78058e-05
-8.23094e-05
-4.00304e-05
-8.41761e-05
-4.20258e-05
-7.63644e-05
-4.70866e-05
-5.40776e-05
-5.89455e-05
-2.66286e-05
-7.45786e-05
-2.48147e-06
-9.19464e-05
2.80691e-05
-0.000110882
5.265e-05
-0.000126902
5.4371e-05
-0.000141899
4.62049e-05
-0.00015824
4.16271e-05
-0.000174851
4.32087e-05
-0.00018818
4.92654e-05
5.72873e-05
-0.000194012
-5.62147e-06
-5.74916e-05
-7.02511e-06
-8.98781e-05
-1.06325e-05
-8.2291e-05
-1.34572e-05
-7.42169e-05
-1.80901e-05
-7.20851e-05
-2.3006e-05
-7.54239e-05
-2.68644e-05
-7.67584e-05
-2.97176e-05
-7.54898e-05
-3.27021e-05
-7.59206e-05
-3.68266e-05
-7.81848e-05
-4.07581e-05
-8.02445e-05
-4.29166e-05
-7.42059e-05
-4.57973e-05
-5.11971e-05
-5.49778e-05
-1.74483e-05
-6.90969e-05
1.16376e-05
-8.27948e-05
4.1767e-05
-9.72127e-05
6.70679e-05
-0.000108972
6.613e-05
-0.000118492
5.57255e-05
-0.000127944
5.10786e-05
-0.000136871
5.21355e-05
-0.000142445
5.484e-05
5.66023e-05
-0.00014176
-7.97456e-07
-5.6694e-05
-5.83941e-06
-8.4836e-05
-1.01931e-05
-7.79374e-05
-1.24868e-05
-7.1923e-05
-1.59215e-05
-6.86501e-05
-1.9937e-05
-7.14085e-05
-2.33662e-05
-7.33292e-05
-2.67294e-05
-7.21266e-05
-3.06989e-05
-7.19509e-05
-3.57728e-05
-7.31108e-05
-4.07201e-05
-7.52972e-05
-4.32752e-05
-7.1651e-05
-4.42911e-05
-5.01814e-05
-4.98613e-05
-1.18781e-05
-6.14752e-05
2.32515e-05
-7.16444e-05
5.19363e-05
-8.11218e-05
7.65455e-05
-8.90741e-05
7.40824e-05
-9.37817e-05
6.04331e-05
-9.79909e-05
5.52878e-05
-0.000102114
5.62589e-05
-0.000103793
5.65191e-05
5.41424e-05
-0.000101334
1.25889e-06
-5.79528e-05
-5.20654e-06
-7.83706e-05
-9.71665e-06
-7.34274e-05
-1.19693e-05
-6.96701e-05
-1.45803e-05
-6.60391e-05
-1.81393e-05
-6.78497e-05
-2.17076e-05
-6.97609e-05
-2.54935e-05
-6.83405e-05
-2.97953e-05
-6.7649e-05
-3.49066e-05
-6.79995e-05
-4.01792e-05
-7.00247e-05
-4.32488e-05
-6.85816e-05
-4.30738e-05
-5.03564e-05
-4.48073e-05
-1.01445e-05
-5.33421e-05
3.17864e-05
-6.11258e-05
5.97201e-05
-6.6801e-05
8.22208e-05
-7.30769e-05
8.03583e-05
-7.65282e-05
6.38844e-05
-7.98216e-05
5.85812e-05
-8.34927e-05
5.99299e-05
-8.5259e-05
5.82854e-05
5.32356e-05
-8.43521e-05
9.87199e-07
-5.894e-05
-5.14037e-06
-7.22431e-05
-9.31128e-06
-6.92564e-05
-1.18256e-05
-6.71558e-05
-1.40393e-05
-6.38256e-05
-1.73305e-05
-6.45587e-05
-2.10624e-05
-6.60289e-05
-2.49439e-05
-6.4459e-05
-2.91201e-05
-6.34728e-05
-3.39006e-05
-6.32191e-05
-3.92049e-05
-6.47204e-05
-4.29127e-05
-6.48739e-05
-4.23724e-05
-5.08965e-05
-4.06666e-05
-1.18501e-05
-4.54987e-05
3.66187e-05
-5.24041e-05
6.66256e-05
-5.63887e-05
8.62054e-05
-6.27291e-05
8.66987e-05
-6.82712e-05
6.94265e-05
-7.4159e-05
6.44689e-05
-8.01801e-05
6.59509e-05
-8.3786e-05
6.18912e-05
5.42131e-05
-8.47637e-05
9.0752e-08
-5.90308e-05
-5.03988e-06
-6.71125e-05
-8.76216e-06
-6.55341e-05
-1.15599e-05
-6.43582e-05
-1.3688e-05
-6.16976e-05
-1.67138e-05
-6.15329e-05
-2.03966e-05
-6.23459e-05
-2.41474e-05
-6.07081e-05
-2.81071e-05
-5.95132e-05
-3.26438e-05
-5.86824e-05
-3.7999e-05
-5.93652e-05
-4.24976e-05
-6.03753e-05
-4.24834e-05
-5.09106e-05
-3.83456e-05
-1.59878e-05
-3.88132e-05
3.70863e-05
-4.54564e-05
7.32688e-05
-4.99385e-05
9.06873e-05
-5.69117e-05
9.36717e-05
-6.53902e-05
7.79048e-05
-7.41624e-05
7.3241e-05
-8.26211e-05
7.44096e-05
-8.84212e-05
6.76913e-05
5.673e-05
-9.09381e-05
-7.90651e-07
-5.82401e-05
-4.73926e-06
-6.31639e-05
-7.98953e-06
-6.22839e-05
-1.08584e-05
-6.14894e-05
-1.30287e-05
-5.95273e-05
-1.57907e-05
-5.87708e-05
-1.92733e-05
-5.88632e-05
-2.2846e-05
-5.71353e-05
-2.66693e-05
-5.56901e-05
-3.10867e-05
-5.42651e-05
-3.64971e-05
-5.3955e-05
-4.18619e-05
-5.50104e-05
-4.31912e-05
-4.95812e-05
-3.81745e-05
-2.10046e-05
-3.4102e-05
3.30138e-05
-3.96414e-05
7.88081e-05
-4.60547e-05
9.71006e-05
-5.39959e-05
0.000101613
-6.46791e-05
8.85878e-05
-7.42184e-05
8.27803e-05
-8.37912e-05
8.39822e-05
-9.2321e-05
7.62211e-05
6.1649e-05
-9.72401e-05
-1.35201e-06
-5.6888e-05
-4.33071e-06
-6.01853e-05
-7.08366e-06
-5.9531e-05
-9.78108e-06
-5.87921e-05
-1.19872e-05
-5.73212e-05
-1.45416e-05
-5.62162e-05
-1.77786e-05
-5.56262e-05
-2.11729e-05
-5.37413e-05
-2.48852e-05
-5.1978e-05
-2.91717e-05
-4.99786e-05
-3.45264e-05
-4.86003e-05
-4.0659e-05
-4.88778e-05
-4.39343e-05
-4.63058e-05
-3.97491e-05
-2.51898e-05
-3.19432e-05
2.52078e-05
-3.38566e-05
8.07214e-05
-4.23811e-05
0.000105625
-5.21069e-05
0.000111339
-6.51981e-05
0.000101679
-7.41475e-05
9.17295e-05
-8.34441e-05
9.32787e-05
-9.4118e-05
8.68949e-05
6.96531e-05
-0.000102122
-1.5216e-06
-5.53665e-05
-3.87004e-06
-5.7837e-05
-6.18213e-06
-5.7219e-05
-8.56829e-06
-5.64059e-05
-1.07405e-05
-5.51489e-05
-1.31344e-05
-5.38224e-05
-1.60973e-05
-5.26634e-05
-1.92611e-05
-5.05777e-05
-2.27907e-05
-4.84486e-05
-2.68474e-05
-4.5922e-05
-3.19489e-05
-4.34988e-05
-3.84895e-05
-4.23371e-05
-4.38541e-05
-4.09413e-05
-4.20332e-05
-2.70107e-05
-3.23553e-05
1.55298e-05
-2.76274e-05
7.59936e-05
-3.597e-05
0.000113968
-4.77983e-05
0.000123167
-6.52058e-05
0.000119086
-7.68285e-05
0.000103352
-8.48758e-05
0.000101326
-9.47717e-05
9.67906e-05
7.9544e-05
-0.000104663
-1.40366e-06
-5.3963e-05
-3.36867e-06
-5.5872e-05
-5.33385e-06
-5.52538e-05
-7.3782e-06
-5.43615e-05
-9.41076e-06
-5.31163e-05
-1.16189e-05
-5.16143e-05
-1.42549e-05
-5.00276e-05
-1.70998e-05
-4.7733e-05
-2.03293e-05
-4.52191e-05
-2.40345e-05
-4.22167e-05
-2.86546e-05
-3.88787e-05
-3.50162e-05
-3.59756e-05
-4.20191e-05
-3.39384e-05
-4.37083e-05
-2.53214e-05
-3.50256e-05
6.84734e-06
-2.31628e-05