/*--------------------------------*- C++ -*----------------------------------*\
| =========                 |                                                 |
| \\      /  F ield         | OpenFOAM: The Open Source CFD Toolbox           |
|  \\    /   O peration     | Version:  2.3.0                                 |
|   \\  /    A nd           | Web:      www.OpenFOAM.org                      |
|    \\/     M anipulation  |                                                 |
\*---------------------------------------------------------------------------*/
FoamFile
{
    version     2.0;
    format      ascii;
    class       volVectorField;
    location    "2.9";
    object      U;
}
// * * * * * * * * * * * * * * * * * * * * * * * * * * * * * * * * * * * * * //

dimensions      [0 1 -1 0 0 0 0];

internalField   nonuniform List<vector> 
2268
(
(-0.0234085 0.00452111 0)
(-0.0342373 -0.00499831 0)
(-0.0295222 -0.00684131 0)
(-0.0223968 -0.00239736 0)
(-0.0226686 -0.00246972 0)
(-0.0103503 -0.0051366 0)
(0.0128224 -0.00162305 0)
(0.0137827 0.00484162 0)
(-0.00920546 0.00570461 0)
(-0.0207926 0.00103503 0)
(-0.013509 -0.00355911 0)
(0.0111024 -0.00727708 0)
(0.0490571 -0.00987218 0)
(0.0951767 -0.0107599 0)
(0.144604 -0.00914921 0)
(0.182347 -0.000100139 0)
(0.171143 0.0120553 0)
(0.11657 0.016406 0)
(0.0599248 0.0101021 0)
(0.0257661 0.00229477 0)
(0.00997706 -0.000243519 0)
(-0.0101638 -0.000191868 0)
(-0.013065 -0.00581956 0)
(-0.0231219 0.0238885 0)
(-0.0477892 0.00613754 0)
(-0.0760522 -0.00110055 0)
(-0.0751078 0.000745464 0)
(-0.0821981 -0.00469242 0)
(-0.0742564 -0.0117529 0)
(-0.0516603 -0.00920682 0)
(-0.0189345 0.00355311 0)
(-0.00363847 0.0092505 0)
(0.0109016 0.00181475 0)
(0.0349561 -0.0110453 0)
(0.0666425 -0.0229296 0)
(0.104683 -0.0315088 0)
(0.147621 -0.0350663 0)
(0.192108 -0.0313026 0)
(0.231351 -0.0116168 0)
(0.258157 0.0175575 0)
(0.245867 0.0363037 0)
(0.199506 0.0355909 0)
(0.140872 0.0254189 0)
(0.0880897 0.0172939 0)
(0.0301691 0.013345 0)
(0.00319386 -0.00435727 0)
(0.00415746 0.0376501 0)
(-0.0292546 0.0222987 0)
(-0.0761118 0.00273283 0)
(-0.072807 0.00377761 0)
(-0.077397 -0.00480726 0)
(-0.0740002 -0.0180843 0)
(-0.0649857 -0.022633 0)
(-0.0397358 -0.0148111 0)
(0.00152683 -0.00986842 0)
(0.0485826 -0.0158582 0)
(0.0938239 -0.0273673 0)
(0.135932 -0.0400862 0)
(0.175398 -0.0496339 0)
(0.21165 -0.0538404 0)
(0.242554 -0.0502453 0)
(0.269377 -0.0296739 0)
(0.292459 0.00907486 0)
(0.294035 0.0446948 0)
(0.260246 0.0574725 0)
(0.200351 0.0538589 0)
(0.137791 0.0467014 0)
(0.0677093 0.0388191 0)
(0.0203716 0.0124213 0)
(0.0170573 0.0329738 0)
(0.0202447 0.0446524 0)
(-0.0212953 0.0132385 0)
(-0.0233311 0.00235389 0)
(-0.0225807 -0.00569641 0)
(-0.0141427 -0.0196686 0)
(-0.00205048 -0.0299001 0)
(0.0213688 -0.0326401 0)
(0.0614537 -0.0359974 0)
(0.110298 -0.041443 0)
(0.159125 -0.04993 0)
(0.203496 -0.0600509 0)
(0.241322 -0.0667288 0)
(0.271529 -0.0669427 0)
(0.291079 -0.0593361 0)
(0.302841 -0.038196 0)
(0.314622 0.00410125 0)
(0.316318 0.0520543 0)
(0.287006 0.0789819 0)
(0.228894 0.0828245 0)
(0.167132 0.0775962 0)
(0.0986358 0.0685978 0)
(0.037645 0.0405944 0)
(-0.00868071 0.0186694 0)
(0.0329166 0.0480148 0)
(0.0257451 0.0236922 0)
(0.0318135 0.00804254 0)
(0.0358724 -0.00582007 0)
(0.0439313 -0.0230439 0)
(0.058838 -0.0370529 0)
(0.0837119 -0.0459085 0)
(0.120412 -0.056051 0)
(0.162217 -0.062879 0)
(0.203148 -0.070292 0)
(0.239982 -0.0783633 0)
(0.271259 -0.0820655 0)
(0.295686 -0.0778961 0)
(0.310874 -0.0647675 0)
(0.316699 -0.0412133 0)
(0.321235 0.00200449 0)
(0.323745 0.057964 0)
(0.302307 0.098413 0)
(0.250318 0.11065 0)
(0.191704 0.107211 0)
(0.127996 0.0999219 0)
(0.0568372 0.0782476 0)
(-0.0367658 0.0220734 0)
(-0.0040345 0.0356311 0)
(0.0166282 0.0126196 0)
(0.0460467 4.23236e-05 0)
(0.064405 -0.011384 0)
(0.0754428 -0.0288721 0)
(0.0874862 -0.0459342 0)
(0.106899 -0.0589051 0)
(0.134075 -0.0723072 0)
(0.162992 -0.0789033 0)
(0.19113 -0.0851425 0)
(0.219014 -0.0918274 0)
(0.24541 -0.0936846 0)
(0.268704 -0.0866513 0)
(0.287141 -0.0698504 0)
(0.298308 -0.0432459 0)
(0.30579 0.000721422 0)
(0.313664 0.0606317 0)
(0.307118 0.112773 0)
(0.271154 0.135119 0)
(0.220941 0.135241 0)
(0.162159 0.132874 0)
(0.0767011 0.131241 0)
(-0.0460201 0.0352737 0)
(-0.017894 0.0216944 0)
(0.0236657 -0.00773184 0)
(0.0545886 -0.0154121 0)
(0.0684142 -0.0207531 0)
(0.070604 -0.034248 0)
(0.0694288 -0.0513136 0)
(0.0734232 -0.0670985 0)
(0.0832787 -0.08178 0)
(0.0964599 -0.088426 0)
(0.113863 -0.0960369 0)
(0.136121 -0.103481 0)
(0.162877 -0.105341 0)
(0.19294 -0.0974838 0)
(0.223375 -0.0787346 0)
(0.248917 -0.0488089 0)
(0.267951 -0.00451115 0)
(0.286994 0.0566014 0)
(0.298954 0.117078 0)
(0.288018 0.150686 0)
(0.255104 0.158978 0)
(0.205817 0.164049 0)
(0.112986 0.190341 0)
(-0.0350389 0.045385 0)
(0.017448 -0.00192258 0)
(0.0387197 -0.0266116 0)
(0.0467147 -0.0215331 0)
(0.0418043 -0.0182062 0)
(0.0279708 -0.0268799 0)
(0.0111583 -0.0454068 0)
(-0.000802473 -0.0663095 0)
(-0.00487185 -0.084282 0)
(-0.00268409 -0.0938406 0)
(0.00615458 -0.10572 0)
(0.023598 -0.116495 0)
(0.0518238 -0.120802 0)
(0.0901053 -0.114678 0)
(0.13369 -0.0956658 0)
(0.176514 -0.0616646 0)
(0.213071 -0.0136543 0)
(0.246945 0.0473861 0)
(0.278673 0.112404 0)
(0.297227 0.156439 0)
(0.290346 0.177918 0)
(0.26393 0.200273 0)
(0.122798 0.288759 0)
(0.00398703 -0.000779792 0)
(-0.018923 0.00780178 0)
(-0.0772383 0.0149188 0)
(-0.180127 0.0201066 0)
(-0.176308 -0.00644814 0)
(-0.0566502 -0.029438 0)
(0.0411653 -0.0139023 0)
(0.0893796 -0.00749073 0)
(0.125813 -0.0139292 0)
(0.184742 -0.0181496 0)
(0.239792 -0.0120711 0)
(0.265099 0.00543736 0)
(0.209668 0.0220307 0)
(0.0905892 0.0166924 0)
(0.0294952 0.0107371 0)
(-0.0258952 0.0144527 0)
(-0.0725554 0.00123597 0)
(-0.0531311 -0.00771437 0)
(-0.0239341 -0.0108142 0)
(-0.0168714 0.00774959 0)
(-0.0377971 0.0337535 0)
(-0.142183 0.0441306 0)
(-0.212024 0.0273678 0)
(-0.134297 -0.040565 0)
(-0.0537564 -0.0825657 0)
(0.0389075 -0.0499911 0)
(0.107313 -0.0261812 0)
(0.143554 -0.0308864 0)
(0.193858 -0.0382999 0)
(0.240657 -0.0232734 0)
(0.262508 0.0114896 0)
(0.264238 0.0510982 0)
(0.166156 0.0586848 0)
(0.0281166 0.0416477 0)
(-0.0199812 0.0319286 0)
(-0.0285986 0.00372684 0)
(-0.0369425 -0.00968503 0)
(-0.0255802 -0.0284092 0)
(-0.0308529 0.022824 0)
(-0.0400139 0.0597005 0)
(-0.124214 0.0684986 0)
(-0.166729 0.0252925 0)
(-0.0973554 -0.0653444 0)
(-0.0684401 -0.115098 0)
(0.0010988 -0.0840031 0)
(0.0778769 -0.0478796 0)
(0.112692 -0.0519159 0)
(0.170989 -0.0632554 0)
(0.215702 -0.0362233 0)
(0.219578 0.00913333 0)
(0.224992 0.0653615 0)
(0.179171 0.0986876 0)
(0.0436724 0.0792802 0)
(0.0116594 0.0385488 0)
(0.0258921 0.00495586 0)
(-0.00734013 -0.00159087 0)
(-0.0139627 -0.0390555 0)
(-0.0431685 0.0394561 0)
(-0.0406981 0.0752003 0)
(-0.0706123 0.087067 0)
(-0.110722 0.029161 0)
(-0.0596044 -0.0735356 0)
(-0.0683775 -0.131412 0)
(-0.0321173 -0.10631 0)
(0.0382551 -0.0677388 0)
(0.0831309 -0.0779516 0)
(0.134273 -0.0891583 0)
(0.166935 -0.0458486 0)
(0.172364 0.0128267 0)
(0.168445 0.0721403 0)
(0.163293 0.126648 0)
(0.0715223 0.111648 0)
(0.0492143 0.046318 0)
(0.0630515 0.00783348 0)
(0.0161251 0.0139573 0)
(0.00969145 -0.0390967 0)
(-0.0573609 0.0609303 0)
(-0.0525999 0.0765457 0)
(-0.00588533 0.0941607 0)
(-0.0621506 0.0330306 0)
(-0.0254396 -0.0777406 0)
(-0.0549962 -0.136552 0)
(-0.0452377 -0.123512 0)
(0.0210823 -0.0931363 0)
(0.0634087 -0.10005 0)
(0.0758434 -0.101623 0)
(0.0869297 -0.0492955 0)
(0.105911 0.0160494 0)
(0.0932251 0.0727699 0)
(0.126562 0.137497 0)
(0.0928098 0.128612 0)
(0.083365 0.0550543 0)
(0.0771662 0.0138815 0)
(0.0240563 0.0266121 0)
(0.0352714 -0.0302577 0)
(-0.0628428 0.0769221 0)
(-0.0652893 0.0610305 0)
(0.0368653 0.0851932 0)
(-0.0117484 0.0451084 0)
(0.0148043 -0.0694537 0)
(-0.0291183 -0.131209 0)
(-0.0408756 -0.136286 0)
(0.0143194 -0.112062 0)
(0.0285458 -0.104792 0)
(0.000664885 -0.0984778 0)
(-0.00837203 -0.0510428 0)
(0.0145074 0.0182605 0)
(0.00673468 0.0672417 0)
(0.0759506 0.130004 0)
(0.0920032 0.127442 0)
(0.0988846 0.0611312 0)
(0.0723715 0.0290904 0)
(0.0162578 0.0355005 0)
(0.0474214 -0.0156591 0)
(-0.0517204 0.107078 0)
(-0.0208694 0.0365407 0)
(0.000969933 0.0620533 0)
(0.0314714 0.0443398 0)
(0.0435171 -0.0613002 0)
(0.00719808 -0.119673 0)
(-0.0245269 -0.139747 0)
(0.000628783 -0.118302 0)
(-0.014493 -0.0963819 0)
(-0.0703672 -0.0857316 0)
(-0.0976081 -0.0489367 0)
(-0.074207 0.0134656 0)
(-0.0564484 0.0515838 0)
(0.0134172 0.102504 0)
(0.0682865 0.110361 0)
(0.08705 0.0605894 0)
(0.0449874 0.0495563 0)
(0.028832 0.0340821 0)
(0.0435642 -0.000282313 0)
(-0.0272554 0.113851 0)
(0.0778171 0.0595966 0)
(0.0270493 0.056983 0)
(0.0514152 0.0233882 0)
(0.0675499 -0.0650998 0)
(0.0497176 -0.113365 0)
(0.00263544 -0.132319 0)
(-0.00996337 -0.113682 0)
(-0.0417164 -0.078485 0)
(-0.116817 -0.0615242 0)
(-0.166772 -0.043321 0)
(-0.150243 -0.00532993 0)
(-0.112815 0.0300417 0)
(-0.0555568 0.0728393 0)
(0.0126816 0.0919181 0)
(0.0262455 0.0695127 0)
(0.00767783 0.0642925 0)
(0.0270362 0.0289369 0)
(0.0230415 0.020912 0)
(0.00363424 0.0579384 0)
(0.0439773 -0.00128346 0)
(0.00846719 -0.0109451 0)
(-0.014278 0.00812684 0)
(-0.0306743 0.00721458 0)
(-0.0446351 -0.010592 0)
(-0.0598688 -0.0369817 0)
(-0.073902 -0.0642577 0)
(-0.0849464 -0.0858958 0)
(-0.0931861 -0.10023 0)
(-0.0917027 -0.118264 0)
(-0.0860545 -0.135216 0)
(-0.0712103 -0.147114 0)
(-0.0407484 -0.14896 0)
(0.00217559 -0.134394 0)
(0.0546724 -0.100487 0)
(0.112085 -0.0501258 0)
(0.172098 0.0140235 0)
(0.230678 0.0804572 0)
(0.286857 0.13335 0)
(0.324437 0.174037 0)
(0.375952 0.211184 0)
(0.378397 0.32778 0)
(0.0315912 -0.0222692 0)
(-0.0130722 0.000499235 0)
(-0.0806211 0.011724 0)
(-0.0774551 -0.00306613 0)
(-0.0695683 -0.0124682 0)
(-0.0536588 -0.0253812 0)
(-0.0304112 -0.0461296 0)
(-0.00588739 -0.0709398 0)
(0.0123829 -0.0910095 0)
(0.0158614 -0.104655 0)
(0.00775197 -0.125258 0)
(-0.0130913 -0.145533 0)
(-0.0366116 -0.164925 0)
(-0.062776 -0.179404 0)
(-0.0782788 -0.176479 0)
(-0.0691226 -0.151388 0)
(-0.0233082 -0.116742 0)
(0.0454869 -0.0653875 0)
(0.127294 -0.000373904 0)
(0.213581 0.0604313 0)
(0.292801 0.113003 0)
(0.375948 0.155797 0)
(0.452604 0.205687 0)
(-0.133377 0.0544868 0)
(-0.0151021 0.0901418 0)
(0.00185732 0.0427935 0)
(0.220353 0.0112809 0)
(0.245513 0.0264472 0)
(0.13579 0.0158566 0)
(0.242252 -0.0374941 0)
(0.460732 -0.0847018 0)
(0.679737 -0.079528 0)
(0.879239 -0.0439135 0)
(0.976937 -0.0421104 0)
(0.722315 -0.0646575 0)
(0.590124 -0.0773952 0)
(0.420595 -0.0951028 0)
(0.21293 -0.118115 0)
(0.0699925 -0.134283 0)
(0.00772476 -0.137188 0)
(0.00709131 -0.117538 0)
(0.0409308 -0.0730582 0)
(0.098319 -0.022613 0)
(0.165613 0.0272674 0)
(0.236629 0.0711247 0)
(0.315817 0.0956225 0)
(-0.241782 0.136371 0)
(-0.303278 -0.0412893 0)
(-0.422578 -0.209568 0)
(-0.363696 -0.0936045 0)
(-0.246354 0.0265738 0)
(-0.0316179 -0.165357 0)
(0.247821 -0.370102 0)
(0.555476 -0.483606 0)
(0.855629 -0.46881 0)
(1.12822 -0.298609 0)
(1.36765 -0.0175038 0)
(1.50459 0.167097 0)
(1.54335 0.161434 0)
(1.30078 0.165022 0)
(1.10316 0.173724 0)
(0.639762 0.151475 0)
(0.522835 -0.0561262 0)
(0.31827 -0.102651 0)
(0.219793 -0.0830475 0)
(0.178343 -0.0520867 0)
(0.168467 -0.0222567 0)
(0.185629 0.00862808 0)
(0.234918 0.0254503 0)
(-0.221984 0.419164 0)
(-0.237055 0.189911 0)
(-0.238523 -0.0863935 0)
(-0.196552 -0.207542 0)
(-0.0899048 -0.229592 0)
(0.13821 -0.440016 0)
(0.406283 -0.700633 0)
(0.657035 -0.794805 0)
(0.864473 -0.732192 0)
(1.03133 -0.569677 0)
(1.1937 -0.344631 0)
(1.36596 -0.105678 0)
(1.49294 0.075197 0)
(1.56972 0.223732 0)
(1.57425 0.41436 0)
(1.59249 0.578482 0)
(1.31667 0.144571 0)
(0.926777 0.122332 0)
(0.675349 0.046875 0)
(0.525578 0.00305622 0)
(0.469874 0.00652731 0)
(0.488422 0.00434813 0)
(0.595164 -0.0333625 0)
(-0.148447 0.597979 0)
(-0.0633579 0.146396 0)
(-0.0779676 -0.13212 0)
(-0.0329973 -0.291344 0)
(0.117765 -0.393025 0)
(0.348187 -0.670477 0)
(0.560649 -0.943205 0)
(0.704143 -0.983418 0)
(0.801793 -0.859844 0)
(0.871765 -0.666858 0)
(0.956919 -0.448228 0)
(1.0814 -0.228666 0)
(1.21376 -0.0475944 0)
(1.31558 0.0819808 0)
(1.43475 0.237263 0)
(1.58623 0.414492 0)
(1.64638 0.46442 0)
(1.51707 0.464763 0)
(1.2932 0.353339 0)
(1.09289 0.165081 0)
(0.887989 0.0288667 0)
(0.740501 -0.0796564 0)
(0.521606 -0.220409 0)
(-0.0311958 0.622235 0)
(0.102173 0.193074 0)
(0.061245 -0.129554 0)
(0.138454 -0.389585 0)
(0.294351 -0.600177 0)
(0.487685 -0.847843 0)
(0.59596 -1.06075 0)
(0.610208 -1.04212 0)
(0.600329 -0.881896 0)
(0.598498 -0.692234 0)
(0.651784 -0.523893 0)
(0.776781 -0.356124 0)
(0.940245 -0.181872 0)
(1.07323 -0.0289042 0)
(1.17539 0.109824 0)
(1.29353 0.287142 0)
(1.39027 0.458478 0)
(1.37375 0.545451 0)
(1.23819 0.491037 0)
(1.02825 0.360308 0)
(0.802398 0.266844 0)
(0.579565 0.225147 0)
(0.158399 0.301489 0)
(0.0647922 0.485993 0)
(0.201698 0.18584 0)
(0.20757 -0.16023 0)
(0.287082 -0.504225 0)
(0.371467 -0.756253 0)
(0.498044 -0.966735 0)
(0.519257 -1.06433 0)
(0.433234 -0.967939 0)
(0.339466 -0.804843 0)
(0.297161 -0.662649 0)
(0.339934 -0.582173 0)
(0.442042 -0.476417 0)
(0.59925 -0.302318 0)
(0.748361 -0.10899 0)
(0.849981 0.0570029 0)
(0.917309 0.22602 0)
(0.968463 0.411628 0)
(0.985844 0.565666 0)
(0.918424 0.618453 0)
(0.75706 0.574918 0)
(0.555706 0.516797 0)
(0.244292 0.575718 0)
(-0.206878 0.739823 0)
(0.0941644 0.284417 0)
(0.232574 0.123886 0)
(0.300265 -0.219348 0)
(0.367169 -0.565502 0)
(0.365483 -0.803006 0)
(0.394693 -1.01724 0)
(0.347736 -1.02788 0)
(0.272596 -0.828813 0)
(0.119526 -0.697137 0)
(0.10662 -0.690962 0)
(0.146355 -0.710741 0)
(0.207695 -0.638792 0)
(0.338107 -0.465508 0)
(0.450193 -0.264389 0)
(0.525017 -0.0590087 0)
(0.565119 0.158112 0)
(0.59201 0.387932 0)
(0.604394 0.60082 0)
(0.559678 0.725046 0)
(0.447707 0.73947 0)
(0.248887 0.776704 0)
(-0.106348 0.944827 0)
(-0.413486 1.0389 0)
(0.0776027 0.107503 0)
(0.19606 0.00794341 0)
(0.345427 -0.310151 0)
(0.408349 -0.566664 0)
(0.336849 -0.752891 0)
(0.262354 -1.00718 0)
(0.170165 -0.967382 0)
(0.16438 -0.688407 0)
(0.0020145 -0.64511 0)
(0.0216897 -0.732645 0)
(0.0305173 -0.739246 0)
(0.0409007 -0.675799 0)
(0.109618 -0.535501 0)
(0.181258 -0.317308 0)
(0.241713 -0.0827192 0)
(0.277033 0.149743 0)
(0.29301 0.39423 0)
(0.292293 0.630196 0)
(0.262349 0.787431 0)
(0.166507 0.886095 0)
(-0.0621964 1.05935 0)
(-0.341295 1.2232 0)
(-0.476534 1.19166 0)
(0.0183762 0.0149464 0)
(0.13259 -0.172676 0)
(0.353016 -0.403541 0)
(0.408598 -0.513324 0)
(0.299596 -0.6359 0)
(0.139811 -0.941946 0)
(0.0336007 -0.910466 0)
(0.0631345 -0.591609 0)
(-0.0643508 -0.60111 0)
(-0.0888227 -0.714036 0)
(-0.122545 -0.730624 0)
(-0.121913 -0.695094 0)
(-0.102627 -0.592426 0)
(-0.0553134 -0.380318 0)
(0.00461691 -0.134373 0)
(0.046341 0.125616 0)
(0.0592752 0.388461 0)
(0.0579259 0.63993 0)
(0.0292249 0.84656 0)
(-0.0910285 1.06192 0)
(-0.29385 1.28666 0)
(-0.433715 1.36089 0)
(-0.437517 1.21885 0)
(-0.083055 0.0196356 0)
(0.0628324 -0.471758 0)
(0.270629 -0.545499 0)
(0.338179 -0.465286 0)
(0.257732 -0.513531 0)
(0.0822223 -0.815381 0)
(-0.0668783 -0.855691 0)
(-0.00736459 -0.537614 0)
(-0.102141 -0.548946 0)
(-0.170325 -0.665194 0)
(-0.232688 -0.693671 0)
(-0.251988 -0.685843 0)
(-0.285905 -0.61342 0)
(-0.264153 -0.432439 0)
(-0.207201 -0.176297 0)
(-0.160853 0.0960182 0)
(-0.138439 0.379839 0)
(-0.136679 0.661819 0)
(-0.179413 0.939696 0)
(-0.288353 1.21522 0)
(-0.393023 1.39732 0)
(-0.396347 1.36974 0)
(-0.312009 1.16038 0)
(-0.0704083 0.040508 0)
(0.0329011 -0.649567 0)
(0.121404 -0.65922 0)
(0.220618 -0.453674 0)
(0.216883 -0.43123 0)
(0.099526 -0.658191 0)
(-0.119221 -0.783464 0)
(-0.0461841 -0.52333 0)
(-0.100307 -0.489609 0)
(-0.192401 -0.590948 0)
(-0.284364 -0.631212 0)
(-0.357497 -0.631865 0)
(-0.428358 -0.588895 0)
(-0.447802 -0.452862 0)
(-0.411623 -0.217395 0)
(-0.363373 0.0716427 0)
(-0.327503 0.379369 0)
(-0.313746 0.69698 0)
(-0.333118 1.01243 0)
(-0.366632 1.27596 0)
(-0.349752 1.38439 0)
(-0.247214 1.28355 0)
(-0.105129 1.04622 0)
(0.00493793 0.068364 0)
(0.0356524 -0.685268 0)
(0.0231936 -0.702133 0)
(0.116559 -0.512661 0)
(0.196886 -0.398798 0)
(0.127804 -0.523872 0)
(-0.108888 -0.678301 0)
(-0.110615 -0.53505 0)
(-0.0942653 -0.441927 0)
(-0.182167 -0.497945 0)
(-0.288439 -0.540592 0)
(-0.399605 -0.54548 0)
(-0.492135 -0.52537 0)
(-0.549482 -0.433982 0)
(-0.549365 -0.237127 0)
(-0.508854 0.0405427 0)
(-0.459164 0.358962 0)
(-0.412034 0.691244 0)
(-0.36742 1.00203 0)
(-0.302036 1.22352 0)
(-0.181165 1.27275 0)
(-0.00829068 1.13214 0)
(0.167743 0.89097 0)
(0.0741625 0.0083065 0)
(0.0826612 -0.643769 0)
(0.039472 -0.711394 0)
(0.0691244 -0.602546 0)
(0.174258 -0.426172 0)
(0.18153 -0.390752 0)
(-0.0397215 -0.523314 0)
(-0.177208 -0.521811 0)
(-0.144349 -0.415446 0)
(-0.191172 -0.410187 0)
(-0.264438 -0.431081 0)
(-0.356694 -0.448847 0)
(-0.444286 -0.450189 0)
(-0.514212 -0.398898 0)
(-0.544087 -0.255467 0)
(-0.519799 -0.0120195 0)
(-0.456463 0.293299 0)
(-0.370871 0.612341 0)
(-0.261176 0.895569 0)
(-0.116293 1.07667 0)
(0.0734595 1.08984 0)
(0.283682 0.942329 0)
(0.478638 0.711481 0)
(0.0992853 -0.107029 0)
(0.14713 -0.614874 0)
(0.135379 -0.686451 0)
(0.0846521 -0.637888 0)
(0.127766 -0.501381 0)
(0.217262 -0.319597 0)
(0.0761095 -0.326701 0)
(-0.163277 -0.42783 0)
(-0.217822 -0.393141 0)
(-0.236003 -0.365791 0)
(-0.259376 -0.361658 0)
(-0.295056 -0.367949 0)
(-0.337873 -0.372528 0)
(-0.369037 -0.346924 0)
(-0.383539 -0.258103 0)
(-0.376743 -0.0647978 0)
(-0.308057 0.192725 0)
(-0.201953 0.475184 0)
(-0.055494 0.723255 0)
(0.132893 0.868625 0)
(0.354531 0.864467 0)
(0.578252 0.733194 0)
(0.773319 0.528034 0)
(0.0826844 -0.261066 0)
(0.17513 -0.664369 0)
(0.218126 -0.655278 0)
(0.149074 -0.594218 0)
(0.108491 -0.558353 0)
(0.196079 -0.361753 0)
(0.228329 -0.160696 0)
(0.00769286 -0.23701 0)
(-0.181862 -0.33251 0)
(-0.245059 -0.354523 0)
(-0.270547 -0.359692 0)
(-0.275582 -0.351872 0)
(-0.277401 -0.346657 0)
(-0.259527 -0.329257 0)
(-0.204793 -0.264738 0)
(-0.147023 -0.131359 0)
(-0.0516718 0.0761268 0)
(0.0593964 0.328988 0)
(0.205188 0.533623 0)
(0.392659 0.640653 0)
(0.606098 0.627736 0)
(0.817891 0.517327 0)
(0.996963 0.349063 0)
(0.0770307 -0.391332 0)
(0.150805 -0.748502 0)
(0.201951 -0.648673 0)
(0.169476 -0.539714 0)
(0.115303 -0.550099 0)
(0.130792 -0.46006 0)
(0.265858 -0.165153 0)
(0.23924 -0.0389 0)
(0.0626276 -0.173081 0)
(-0.0547125 -0.294412 0)
(-0.119868 -0.352654 0)
(-0.148385 -0.374007 0)
(-0.165659 -0.381912 0)
(-0.16208 -0.379795 0)
(-0.124065 -0.343 0)
(-0.0399454 -0.24516 0)
(0.127495 -0.0556519 0)
(0.285357 0.181991 0)
(0.438627 0.369833 0)
(0.602124 0.453562 0)
(0.779778 0.432444 0)
(0.959043 0.337653 0)
(1.10558 0.209107 0)
(0.0734152 -0.510427 0)
(0.0882672 -0.791534 0)
(0.0845576 -0.630768 0)
(0.0763353 -0.536032 0)
(0.0762026 -0.514194 0)
(0.0347264 -0.516043 0)
(0.159179 -0.279423 0)
(0.274134 -0.0376715 0)
(0.271366 -0.0309031 0)
(0.219869 -0.175738 0)
(0.175412 -0.291698 0)
(0.161708 -0.342769 0)
(0.164451 -0.356552 0)
(0.189131 -0.373781 0)
(0.228503 -0.377858 0)
(0.2561 -0.340144 0)
(0.271563 -0.195749 0)
(0.3496 0.053415 0)
(0.492745 0.24237 0)
(0.628924 0.306673 0)
(0.758873 0.27242 0)
(0.884314 0.184839 0)
(0.986153 0.0971058 0)
(0.0432067 -0.582616 0)
(0.00320726 -0.745412 0)
(-0.0530246 -0.596204 0)
(-0.0544787 -0.546437 0)
(-0.0281584 -0.50906 0)
(-0.0685785 -0.521253 0)
(-0.00814263 -0.381277 0)
(0.13099 -0.171291 0)
(0.242556 -0.079934 0)
(0.291413 -0.136186 0)
(0.307124 -0.254661 0)
(0.33563 -0.347851 0)
(0.373952 -0.386687 0)
(0.438804 -0.420318 0)
(0.502654 -0.413575 0)
(0.538449 -0.345478 0)
(0.534022 -0.220823 0)
(0.536857 -0.0438682 0)
(0.600839 0.124252 0)
(0.700808 0.181521 0)
(0.795553 0.14266 0)
(0.879805 0.0756149 0)
(0.935042 0.025615 0)
(-3.30393e-05 -0.577834 0)
(-0.0742466 -0.656361 0)
(-0.134485 -0.570814 0)
(-0.129515 -0.547727 0)
(-0.122915 -0.520187 0)
(-0.127618 -0.508696 0)
(-0.111615 -0.43168 0)
(-0.0271012 -0.287316 0)
(0.081587 -0.201401 0)
(0.187164 -0.224008 0)
(0.281674 -0.323671 0)
(0.356742 -0.412958 0)
(0.419551 -0.458374 0)
(0.481638 -0.494301 0)
(0.519906 -0.474746 0)
(0.543909 -0.371946 0)
(0.549 -0.220368 0)
(0.553314 -0.0678425 0)
(0.594871 0.0409655 0)
(0.667292 0.101797 0)
(0.731344 0.0965759 0)
(0.769914 0.0574822 0)
(0.776604 0.0465331 0)
(-0.0217633 -0.519043 0)
(-0.0955077 -0.587807 0)
(-0.135254 -0.556835 0)
(-0.131894 -0.547251 0)
(-0.134752 -0.534761 0)
(-0.110892 -0.518874 0)
(-0.0906434 -0.468316 0)
(-0.0527092 -0.370893 0)
(0.0276457 -0.318245 0)
(0.13551 -0.364653 0)
(0.231212 -0.439702 0)
(0.29509 -0.493416 0)
(0.3429 -0.521513 0)
(0.36167 -0.528094 0)
(0.341846 -0.48941 0)
(0.338771 -0.377753 0)
(0.346732 -0.224174 0)
(0.351654 -0.0813483 0)
(0.354028 0.0173793 0)
(0.375924 0.0646986 0)
(0.440761 0.0406246 0)
(0.526078 0.0239578 0)
(0.570597 0.0614509 0)
(-0.00546033 -0.472805 0)
(-0.0574462 -0.537442 0)
(-0.090483 -0.545983 0)
(-0.0924238 -0.545926 0)
(-0.0992364 -0.55425 0)
(-0.073597 -0.556716 0)
(-0.0395546 -0.510351 0)
(0.00161497 -0.442407 0)
(0.0538059 -0.408806 0)
(0.104449 -0.444802 0)
(0.135338 -0.486387 0)
(0.145507 -0.515486 0)
(0.140405 -0.525738 0)
(0.123992 -0.503538 0)
(0.0629457 -0.450885 0)
(0.0283966 -0.334952 0)
(0.0107728 -0.176062 0)
(-0.0546575 -0.0102178 0)
(-0.0385402 0.0201727 0)
(0.0318658 -0.0228396 0)
(0.157312 -0.0973361 0)
(0.225431 -0.0846198 0)
(0.257625 -0.0189197 0)
(0.0128813 -0.462937 0)
(-0.0164662 -0.494987 0)
(-0.045734 -0.532332 0)
(-0.0580067 -0.535426 0)
(-0.0752618 -0.558302 0)
(-0.0741766 -0.581961 0)
(-0.063478 -0.545228 0)
(-0.0384934 -0.473786 0)
(-0.0153854 -0.422351 0)
(-0.0142946 -0.445168 0)
(-0.0181516 -0.476051 0)
(-0.0276254 -0.495082 0)
(-0.0571046 -0.487004 0)
(-0.113838 -0.447921 0)
(-0.193211 -0.373753 0)
(-0.279351 -0.251199 0)
(-0.349518 -0.124947 0)
(-0.34365 -0.0568907 0)
(-0.32179 -0.0646267 0)
(-0.278051 -0.123094 0)
(-0.288605 -0.171385 0)
(-0.30711 -0.0849605 0)
(-0.290794 0.0690041 0)
(0.000949221 -0.463586 0)
(-0.00904638 -0.467585 0)
(-0.022088 -0.516803 0)
(-0.0465861 -0.512113 0)
(-0.0743327 -0.537197 0)
(-0.102057 -0.567728 0)
(-0.126167 -0.539336 0)
(-0.131827 -0.467975 0)
(-0.128306 -0.423221 0)
(-0.124892 -0.444956 0)
(-0.120573 -0.471899 0)
(-0.130921 -0.467871 0)
(-0.174874 -0.428729 0)
(-0.250718 -0.37327 0)
(-0.328105 -0.298522 0)
(-0.398925 -0.194742 0)
(-0.465246 -0.0923503 0)
(-0.532792 -0.0283236 0)
(-0.585944 -0.0382705 0)
(-0.64153 -0.100685 0)
(-0.723698 -0.11293 0)
(-0.780281 -0.0234913 0)
(-0.814124 0.126469 0)
(-0.026347 -0.449521 0)
(-0.0227036 -0.462575 0)
(-0.0197835 -0.501821 0)
(-0.0501042 -0.480915 0)
(-0.0832326 -0.501919 0)
(-0.125214 -0.528996 0)
(-0.166411 -0.510572 0)
(-0.186796 -0.454623 0)
(-0.184375 -0.432219 0)
(-0.176989 -0.455138 0)
(-0.174248 -0.469764 0)
(-0.181485 -0.441156 0)
(-0.213834 -0.376349 0)
(-0.278624 -0.310594 0)
(-0.350288 -0.227013 0)
(-0.436542 -0.0997502 0)
(-0.545084 0.0130304 0)
(-0.646613 0.0609507 0)
(-0.721135 0.0328157 0)
(-0.805667 -0.0296746 0)
(-0.925849 -0.0596461 0)
(-1.0402 0.00112591 0)
(-1.12881 0.138043 0)
(-0.0468895 -0.410703 0)
(-0.0354106 -0.476225 0)
(-0.0319707 -0.487468 0)
(-0.0574258 -0.44986 0)
(-0.0902491 -0.463625 0)
(-0.132748 -0.485992 0)
(-0.172781 -0.477049 0)
(-0.194854 -0.442603 0)
(-0.196601 -0.436205 0)
(-0.197594 -0.458543 0)
(-0.201588 -0.468504 0)
(-0.205567 -0.427121 0)
(-0.223021 -0.335637 0)
(-0.281136 -0.242201 0)
(-0.359623 -0.140507 0)
(-0.45355 0.00598315 0)
(-0.571874 0.125586 0)
(-0.679646 0.157838 0)
(-0.764287 0.12339 0)
(-0.864444 0.0869858 0)
(-0.990491 0.0914866 0)
(-1.11349 0.147183 0)
(-1.20432 0.248461 0)
(-0.0495897 -0.362308 0)
(-0.0369905 -0.493642 0)
(-0.0466247 -0.472549 0)
(-0.062062 -0.424739 0)
(-0.0897134 -0.42841 0)
(-0.126807 -0.448584 0)
(-0.157967 -0.446817 0)
(-0.17793 -0.429639 0)
(-0.18552 -0.431537 0)
(-0.195729 -0.452603 0)
(-0.21096 -0.462205 0)
(-0.220798 -0.416623 0)
(-0.2297 -0.301272 0)
(-0.275465 -0.172426 0)
(-0.352846 -0.0534591 0)
(-0.439691 0.108943 0)
(-0.548508 0.23623 0)
(-0.644562 0.253023 0)
(-0.718633 0.213749 0)
(-0.802339 0.18823 0)
(-0.898199 0.198283 0)
(-0.98465 0.240374 0)
(-1.03643 0.301798 0)
(-0.0277949 -0.322393 0)
(-0.0242145 -0.494471 0)
(-0.0531733 -0.454541 0)
(-0.0618813 -0.406678 0)
(-0.0823729 -0.399574 0)
(-0.112416 -0.418766 0)
(-0.135443 -0.42372 0)
(-0.15288 -0.415592 0)
(-0.166032 -0.419002 0)
(-0.18502 -0.434467 0)
(-0.210866 -0.445073 0)
(-0.228498 -0.406573 0)
(-0.231449 -0.281643 0)
(-0.25751 -0.115732 0)
(-0.328435 0.0268665 0)
(-0.402149 0.192598 0)
(-0.488673 0.327187 0)
(-0.562495 0.329682 0)
(-0.609809 0.281997 0)
(-0.659034 0.258152 0)
(-0.714388 0.263891 0)
(-0.758447 0.284706 0)
(-0.771163 0.307052 0)
(0.00529885 -0.303907 0)
(-0.010983 -0.472496 0)
(-0.0516349 -0.432056 0)
(-0.0594853 -0.393447 0)
(-0.0743243 -0.378015 0)
(-0.0972674 -0.395241 0)
(-0.116874 -0.405028 0)
(-0.134275 -0.398982 0)
(-0.152767 -0.399532 0)
(-0.176919 -0.408292 0)
(-0.207504 -0.420124 0)
(-0.231223 -0.394006 0)
(-0.232999 -0.271657 0)
(-0.237818 -0.0752883 0)
(-0.293283 0.0958329 0)
(-0.355404 0.255796 0)
(-0.414688 0.391899 0)
(-0.467144 0.381541 0)
(-0.490856 0.317991 0)
(-0.511898 0.291775 0)
(-0.539992 0.295622 0)
(-0.559363 0.301367 0)
(-0.555569 0.296615 0)
(0.0232762 -0.307205 0)
(-0.00716589 -0.439411 0)
(-0.048238 -0.407481 0)
(-0.0577801 -0.381896 0)
(-0.0701042 -0.362293 0)
(-0.0871632 -0.375127 0)
(-0.10723 -0.386306 0)
(-0.126233 -0.379238 0)
(-0.147557 -0.376502 0)
(-0.172428 -0.380149 0)
(-0.202622 -0.392078 0)
(-0.229963 -0.379106 0)
(-0.234484 -0.270225 0)
(-0.222339 -0.0545729 0)
(-0.254353 0.151568 0)
(-0.30923 0.302142 0)
(-0.345892 0.431533 0)
(-0.383566 0.417324 0)
(-0.401181 0.334789 0)
(-0.416696 0.305903 0)
(-0.441381 0.312118 0)
(-0.457981 0.30893 0)
(-0.457727 0.288235 0)
(0.0208737 -0.316535 0)
(-0.00897178 -0.405252 0)
(-0.0449197 -0.384109 0)
(-0.0567995 -0.369398 0)
(-0.0692625 -0.349874 0)
(-0.0822432 -0.356676 0)
(-0.103195 -0.366298 0)
(-0.123326 -0.358081 0)
(-0.144594 -0.353342 0)
(-0.168071 -0.353532 0)
(-0.196068 -0.363613 0)
(-0.225628 -0.361258 0)
(-0.23582 -0.273938 0)
(-0.213951 -0.056427 0)
(-0.216743 0.189008 0)
(-0.266439 0.340313 0)
(-0.293451 0.45522 0)
(-0.322525 0.449642 0)
(-0.350295 0.355754 0)
(-0.380215 0.327816 0)
(-0.418639 0.336348 0)
(-0.44503 0.322389 0)
(-0.454372 0.288761 0)
(0.0122167 -0.320288 0)
(-0.0115654 -0.374557 0)
(-0.0408164 -0.362985 0)
(-0.0549001 -0.354931 0)
(-0.0684236 -0.338513 0)
(-0.0792382 -0.339638 0)
(-0.0994914 -0.346005 0)
(-0.119787 -0.337326 0)
(-0.139651 -0.331475 0)
(-0.162031 -0.328619 0)
(-0.188487 -0.33487 0)
(-0.219745 -0.339129 0)
(-0.237594 -0.276283 0)
(-0.215376 -0.0738805 0)
(-0.188377 0.203883 0)
(-0.226395 0.377058 0)
(-0.258175 0.475763 0)
(-0.283945 0.484843 0)
(-0.326874 0.393954 0)
(-0.374152 0.368699 0)
(-0.426106 0.375923 0)
(-0.46467 0.346776 0)
(-0.484252 0.297716 0)
(0.00470088 -0.317974 0)
(-0.0133216 -0.349997 0)
(-0.0360157 -0.344176 0)
(-0.0510228 -0.339323 0)
(-0.0651087 -0.327022 0)
(-0.0753233 -0.324115 0)
(-0.0935971 -0.32658 0)
(-0.113474 -0.317584 0)
(-0.132086 -0.310559 0)
(-0.154069 -0.304464 0)
(-0.179662 -0.305637 0)
(-0.212039 -0.31237 0)
(-0.238279 -0.2734 0)
(-0.224744 -0.100136 0)
(-0.176189 0.194078 0)
(-0.189145 0.412484 0)
(-0.233071 0.503967 0)
(-0.261562 0.524587 0)
(-0.319176 0.447392 0)
(-0.375073 0.421327 0)
(-0.427783 0.42652 0)
(-0.477153 0.385331 0)
(-0.51335 0.316641 0)
(-0.000493258 -0.311407 0)
(-0.0142003 -0.331735 0)
(-0.0312815 -0.327998 0)
(-0.0455565 -0.324077 0)
(-0.0593032 -0.315183 0)
(-0.0698019 -0.309893 0)
(-0.0859348 -0.308437 0)
(-0.104945 -0.298765 0)
(-0.122743 -0.290165 0)
(-0.144242 -0.280822 0)
(-0.168929 -0.276233 0)
(-0.201505 -0.280804 0)
(-0.235437 -0.261071 0)
(-0.237154 -0.126259 0)
(-0.182143 0.161542 0)
(-0.156516 0.437795 0)
(-0.206702 0.544879 0)
(-0.242772 0.572847 0)
(-0.318883 0.50876 0)
(-0.380702 0.46731 0)
(-0.425081 0.480464 0)
(-0.477165 0.439463 0)
(-0.532355 0.351563 0)
(-0.00271014 -0.302919 0)
(-0.013802 -0.317784 0)
(-0.0271595 -0.314435 0)
(-0.0396539 -0.310283 0)
(-0.0523497 -0.303256 0)
(-0.0632479 -0.296585 0)
(-0.0776309 -0.29167 0)
(-0.0951161 -0.280981 0)
(-0.112107 -0.270493 0)
(-0.132488 -0.258148 0)
(-0.155793 -0.24765 0)
(-0.187165 -0.24576 0)
(-0.226279 -0.237181 0)
(-0.24565 -0.143478 0)
(-0.201387 0.11222 0)
(-0.135099 0.434975 0)
(-0.167344 0.595074 0)
(-0.205606 0.632639 0)
(-0.311048 0.587433 0)
(-0.395807 0.524162 0)
(-0.438304 0.525042 0)
(-0.478443 0.498389 0)
(-0.539054 0.401105 0)
(-0.00290807 -0.294726 0)
(-0.0123251 -0.306395 0)
(-0.0234959 -0.30304 0)
(-0.0340349 -0.298407 0)
(-0.0452438 -0.291821 0)
(-0.055979 -0.284151 0)
(-0.0688261 -0.276549 0)
(-0.0841366 -0.264725 0)
(-0.0998873 -0.252185 0)
(-0.118448 -0.237175 0)
(-0.139745 -0.221286 0)
(-0.168188 -0.210194 0)
(-0.208446 -0.202821 0)
(-0.243209 -0.144416 0)
(-0.223823 0.0591824 0)
(-0.138979 0.390831 0)
(-0.115027 0.634522 0)
(-0.125518 0.697366 0)
(-0.253712 0.697215 0)
(-0.374756 0.597686 0)
(-0.447984 0.571101 0)
(-0.48367 0.544196 0)
(-0.525784 0.454833 0)
(-0.00244143 -0.287827 0)
(-0.0102953 -0.296772 0)
(-0.0197551 -0.293413 0)
(-0.0285522 -0.288428 0)
(-0.0380463 -0.281548 0)
(-0.0477732 -0.272994 0)
(-0.0588888 -0.263454 0)
(-0.0716845 -0.250521 0)
(-0.0855702 -0.235911 0)
(-0.101728 -0.218508 0)
(-0.120415 -0.198298 0)
(-0.144411 -0.177836 0)
(-0.180689 -0.162764 0)
(-0.22402 -0.126463 0)
(-0.23259 0.0188866 0)
(-0.162507 0.312365 0)
(-0.0686552 0.614586 0)
(0.00174019 0.742875 0)
(-0.102903 0.840998 0)
(-0.274456 0.71775 0)
(-0.402789 0.643267 0)
(-0.46533 0.576267 0)
(-0.48866 0.487012 0)
(-0.00186453 -0.282135 0)
(-0.00802475 -0.288655 0)
(-0.0156635 -0.285205 0)
(-0.0227782 -0.279969 0)
(-0.0304176 -0.272674 0)
(-0.038451 -0.263391 0)
(-0.0474439 -0.252458 0)
(-0.057609 -0.23849 0)
(-0.0690029 -0.222006 0)
(-0.0822022 -0.202396 0)
(-0.0976644 -0.178967 0)
(-0.116577 -0.15132 0)
(-0.143889 -0.123646 0)
(-0.184812 -0.0931794 0)
(-0.213428 -0.00159376 0)
(-0.167978 0.217032 0)
(-0.037583 0.482391 0)