/*--------------------------------*- C++ -*----------------------------------*\
| =========                 |                                                 |
| \\      /  F ield         | OpenFOAM: The Open Source CFD Toolbox           |
|  \\    /   O peration     | Version:  2.3.0                                 |
|   \\  /    A nd           | Web:      www.OpenFOAM.org                      |
|    \\/     M anipulation  |                                                 |
\*---------------------------------------------------------------------------*/
FoamFile
{
    version     2.0;
    format      ascii;
    class       surfaceScalarField;
    location    "1";
    object      phi;
}
// * * * * * * * * * * * * * * * * * * * * * * * * * * * * * * * * * * * * * //

dimensions      [0 3 -1 0 0 0 0];

internalField   nonuniform List<scalar> 
3330
(
1.99209e-07
-3.96245e-09
1.99071e-07
-1.17833e-08
1.98352e-07
-1.60688e-08
1.97692e-07
-1.85576e-08
1.97359e-07
-2.10877e-08
1.97155e-07
-2.41843e-08
1.96932e-07
-2.78368e-08
1.96654e-07
-3.16387e-08
1.96377e-07
-3.53496e-08
1.96125e-07
-3.87713e-08
1.95937e-07
-4.19254e-08
1.95819e-07
-4.47731e-08
1.95809e-07
-4.727e-08
1.95912e-07
-4.93371e-08
1.96175e-07
-5.08304e-08
1.96576e-07
-5.17293e-08
1.97169e-07
-5.18473e-08
1.97853e-07
-5.12876e-08
1.98669e-07
-4.99703e-08
1.99542e-07
-4.79758e-08
2.00437e-07
-4.53458e-08
2.01297e-07
-4.23249e-08
2.02138e-07
-3.89263e-08
2.02898e-07
-3.54503e-08
2.03674e-07
-3.17215e-08
2.04369e-07
-2.80835e-08
2.05005e-07
-2.39586e-08
2.05316e-07
-1.99538e-08
2.0524e-07
-1.50467e-08
2.04829e-07
-1.08001e-08
2.12147e-07
-6.09604e-09
2.16326e-07
-9.81116e-10
2.19344e-07
2.87315e-09
2.21831e-07
6.06015e-09
2.23662e-07
9.14949e-09
2.24814e-07
1.20794e-08
2.2535e-07
1.48249e-08
2.25391e-07
1.73478e-08
2.25017e-07
1.96882e-08
2.24413e-07
2.17302e-08
2.23295e-07
2.3936e-08
2.21905e-07
2.56011e-08
2.20269e-07
2.71817e-08
2.1833e-07
2.86003e-08
2.1644e-07
2.92649e-08
2.14346e-07
3.01532e-08
2.12204e-07
3.06084e-08
2.09953e-07
3.09051e-08
2.07693e-07
3.08733e-08
2.05322e-07
3.07208e-08
2.02963e-07
3.02037e-08
2.00444e-07
2.96227e-08
1.97912e-07
2.86322e-08
1.95076e-07
2.7664e-08
1.92051e-07
2.62422e-08
1.88281e-07
2.50011e-08
1.83656e-07
2.33064e-08
1.76912e-07
2.21937e-08
1.66717e-07
2.10645e-08
2.1651e-08
1.98325e-07
-6.26483e-09
1.9774e-07
-1.11984e-08
1.96421e-07
-1.47495e-08
1.95446e-07
-1.75828e-08
1.94936e-07
-2.05774e-08
1.94643e-07
-2.38918e-08
1.94427e-07
-2.76198e-08
1.94151e-07
-3.13629e-08
1.93909e-07
-3.51079e-08
1.93727e-07
-3.85887e-08
1.93727e-07
-4.19261e-08
1.93912e-07
-4.49578e-08
1.94348e-07
-4.77065e-08
1.9505e-07
-5.00392e-08
1.96007e-07
-5.17868e-08
1.97208e-07
-5.29303e-08
1.98633e-07
-5.32725e-08
2.00185e-07
-5.28392e-08
2.01812e-07
-5.15977e-08
2.03383e-07
-4.95465e-08
2.04822e-07
-4.67847e-08
2.06075e-07
-4.35779e-08
2.07229e-07
-4.00808e-08
2.08236e-07
-3.64576e-08
2.09163e-07
-3.26476e-08
2.0995e-07
-2.88707e-08
2.10711e-07
-2.47199e-08
2.11408e-07
-2.06503e-08
2.12568e-07
-1.62068e-08
2.13848e-07
-1.20807e-08
2.1464e-07
-6.88821e-09
2.15715e-07
-2.05607e-09
2.17063e-07
1.52531e-09
2.17805e-07
5.31812e-09
2.18496e-07
8.45876e-09
2.1921e-07
1.13658e-08
2.19843e-07
1.41918e-08
2.20342e-07
1.68487e-08
2.20516e-07
1.95138e-08
2.20332e-07
2.19144e-08
2.20673e-07
2.35947e-08
2.20738e-07
2.55359e-08
2.2054e-07
2.73799e-08
2.20253e-07
2.88873e-08
2.19061e-07
3.04573e-08
2.17802e-07
3.14125e-08
2.16394e-07
3.20162e-08
2.14791e-07
3.25076e-08
2.13047e-07
3.26178e-08
2.11156e-07
3.26115e-08
2.09175e-07
3.21852e-08
2.07081e-07
3.17161e-08
2.04914e-07
3.07997e-08
2.02655e-07
2.99229e-08
2.00296e-07
2.86007e-08
1.97897e-07
2.74009e-08
1.95345e-07
2.58579e-08
1.93027e-07
2.45122e-08
1.91203e-07
2.28879e-08
2.12522e-08
1.94036e-07
-6.69874e-09
1.93564e-07
-1.07261e-08
1.93212e-07
-1.4398e-08
1.92666e-07
-1.70366e-08
1.92156e-07
-2.00669e-08
1.91808e-07
-2.35443e-08
1.91597e-07
-2.74082e-08
1.91367e-07
-3.11329e-08
1.91266e-07
-3.50073e-08
1.91256e-07
-3.85784e-08
1.91549e-07
-4.2219e-08
1.92104e-07
-4.55136e-08
1.93034e-07
-4.8636e-08
1.94305e-07
-5.13101e-08
1.9598e-07
-5.34619e-08
1.97951e-07
-5.49017e-08
2.00196e-07
-5.55173e-08
2.02572e-07
-5.52153e-08
2.04868e-07
-5.38937e-08
2.06961e-07
-5.16393e-08
2.08738e-07
-4.85614e-08
2.10218e-07
-4.50586e-08
2.11486e-07
-4.1348e-08
2.12631e-07
-3.76032e-08
2.13772e-07
-3.37887e-08
2.14757e-07
-2.98555e-08
2.15814e-07
-2.57766e-08
2.16811e-07
-2.16476e-08
2.17926e-07
-1.73218e-08
2.18766e-07
-1.29207e-08
2.20247e-07
-8.36847e-09
2.22394e-07
-4.20322e-09
2.23676e-07
2.42551e-10
2.25176e-07
3.8187e-09
2.26349e-07
7.28531e-09
2.27171e-07
1.05445e-08
2.27705e-07
1.36578e-08
2.27969e-07
1.65841e-08
2.28117e-07
1.93659e-08
2.28182e-07
2.18498e-08
2.27661e-07
2.41154e-08
2.26859e-07
2.63377e-08
2.25966e-07
2.82732e-08
2.2486e-07
2.99933e-08
2.23889e-07
3.14284e-08
2.22737e-07
3.25646e-08
2.214e-07
3.33536e-08
2.1993e-07
3.39776e-08
2.18255e-07
3.42924e-08
2.16521e-07
3.43454e-08
2.14502e-07
3.42045e-08
2.12448e-07
3.37696e-08
2.10148e-07
3.31003e-08
2.07796e-07
3.22742e-08
2.05129e-07
3.12681e-08
2.02367e-07
3.01628e-08
1.99227e-07
2.8998e-08
1.95919e-07
2.78201e-08
1.91786e-07
2.70212e-08
2.66343e-08
1.91451e-07
-6.82368e-09
1.91179e-07
-1.04541e-08
1.90425e-07
-1.36447e-08
1.89957e-07
-1.65686e-08
1.89453e-07
-1.95627e-08
1.89028e-07
-2.31199e-08
1.88772e-07
-2.71515e-08
1.8852e-07
-3.08814e-08
1.88499e-07
-3.49856e-08
1.88578e-07
-3.86583e-08
1.89134e-07
-4.27742e-08
1.89929e-07
-4.63091e-08
1.91371e-07
-5.00773e-08
1.93178e-07
-5.31172e-08
1.95587e-07
-5.58711e-08
1.98502e-07
-5.78167e-08
2.01704e-07
-5.87201e-08
2.04967e-07
-5.84777e-08
2.08057e-07
-5.69836e-08
2.10715e-07
-5.42972e-08
2.12838e-07
-5.06849e-08
2.14567e-07
-4.67871e-08
2.16155e-07
-4.29367e-08
2.17613e-07
-3.90611e-08
2.18923e-07
-3.50988e-08
2.20104e-07
-3.10367e-08
2.21114e-07
-2.67859e-08
2.21951e-07
-2.2485e-08
2.22784e-07
-1.81547e-08
2.2364e-07
-1.37765e-08
2.24756e-07
-9.48425e-09
2.2579e-07
-5.23725e-09
2.27111e-07
-1.0786e-09
2.28152e-07
2.77731e-09
2.2901e-07
6.42753e-09
2.29676e-07
9.87816e-09
2.30161e-07
1.31736e-08
2.30483e-07
1.62618e-08
2.30643e-07
1.92054e-08
2.30536e-07
2.19569e-08
2.3015e-07
2.45016e-08
2.29622e-07
2.68661e-08
2.28917e-07
2.89779e-08
2.28062e-07
3.08486e-08
2.27063e-07
3.24267e-08
2.25874e-07
3.37542e-08
2.24433e-07
3.47946e-08
2.2286e-07
3.55508e-08
2.2112e-07
3.60322e-08
2.19231e-07
3.62337e-08
2.17284e-07
3.61522e-08
2.15179e-07
3.58741e-08
2.12896e-07
3.53835e-08
2.10466e-07
3.47047e-08
2.07846e-07
3.38877e-08
2.05066e-07
3.29428e-08
2.02045e-07
3.20187e-08
1.98742e-07
3.11239e-08
1.95436e-07
3.03265e-08
2.90906e-08
1.88934e-07
-6.74852e-09
1.88652e-07
-1.01722e-08
1.87838e-07
-1.283e-08
1.87324e-07
-1.60553e-08
1.86738e-07
-1.89762e-08
1.862e-07
-2.25819e-08
1.85823e-07
-2.67743e-08
1.85478e-07
-3.05363e-08
1.85434e-07
-3.49419e-08
1.85531e-07
-3.87552e-08
1.86244e-07
-4.3487e-08
1.87264e-07
-4.7329e-08
1.89227e-07
-5.20408e-08
1.91594e-07
-5.54846e-08
1.94951e-07
-5.92277e-08
1.98802e-07
-6.16674e-08
2.03272e-07
-6.31898e-08
2.07838e-07
-6.3044e-08
2.11945e-07
-6.10908e-08
2.15073e-07
-5.74254e-08
2.17675e-07
-5.3287e-08
2.19882e-07
-4.89939e-08
2.21456e-07
-4.45107e-08
2.22474e-07
-4.00793e-08
2.23063e-07
-3.56875e-08
2.23377e-07
-3.13508e-08
2.23635e-07
-2.70435e-08
2.23966e-07
-2.28162e-08
2.24378e-07
-1.85668e-08
2.24923e-07
-1.43218e-08
2.25538e-07
-1.00985e-08
2.2624e-07
-5.93998e-09
2.27084e-07
-1.92277e-09
2.27883e-07
1.9788e-09
2.2854e-07
5.77069e-09
2.29071e-07
9.34692e-09
2.29501e-07
1.27438e-08
2.29798e-07
1.59645e-08
2.29952e-07
1.90517e-08
2.29925e-07
2.1984e-08
2.29712e-07
2.47141e-08
2.29343e-07
2.72358e-08
2.28793e-07
2.95272e-08
2.2807e-07
3.15718e-08
2.27155e-07
3.33418e-08
2.26066e-07
3.48428e-08
2.24801e-07
3.60599e-08
2.23391e-07
3.69612e-08
2.21839e-07
3.75839e-08
2.2013e-07
3.79423e-08
2.18306e-07
3.79769e-08
2.16348e-07
3.78315e-08
2.14247e-07
3.74849e-08
2.1201e-07
3.69415e-08
2.09609e-07
3.62891e-08
2.0706e-07
3.54918e-08
2.04374e-07
3.47047e-08
2.01627e-07
3.38701e-08
1.98971e-07
3.29829e-08
3.18377e-08
1.86514e-07
-6.53112e-09
1.86124e-07
-9.78221e-09
1.85328e-07
-1.20332e-08
1.84667e-07
-1.53949e-08
1.83936e-07
-1.82449e-08
1.8326e-07
-2.19056e-08
1.82673e-07
-2.61882e-08
1.82171e-07
-3.00335e-08
1.8197e-07
-3.47408e-08
1.82007e-07
-3.87926e-08
1.82782e-07
-4.42619e-08
1.83983e-07
-4.85304e-08
1.86513e-07
-5.45704e-08
1.89488e-07
-5.84599e-08
1.94058e-07
-6.37972e-08
1.98879e-07
-6.64891e-08
2.05006e-07
-6.93166e-08
2.11304e-07
-6.93418e-08
2.1675e-07
-6.65366e-08
2.20638e-07
-6.13133e-08
2.23177e-07
-5.58265e-08
2.24187e-07
-5.00038e-08
2.24366e-07
-4.46899e-08
2.24298e-07
-4.0011e-08
2.23921e-07
-3.53108e-08
2.23262e-07
-3.06918e-08
2.22506e-07
-2.62871e-08
2.21794e-07
-2.21041e-08
2.21212e-07
-1.7985e-08
2.2079e-07
-1.38998e-08
2.20566e-07
-9.8746e-09
2.20579e-07
-5.9526e-09
2.20854e-07
-2.19763e-09
2.21321e-07
1.51188e-09
2.21864e-07
5.22742e-09
2.22489e-07
8.72133e-09
2.23148e-07
1.20848e-08
2.23776e-07
1.53365e-08
2.24342e-07
1.84867e-08
2.24804e-07
2.15217e-08
2.25117e-07
2.44014e-08
2.25257e-07
2.70951e-08
2.25201e-07
2.95831e-08
2.24938e-07
3.18353e-08
2.24448e-07
3.38319e-08
2.23745e-07
3.55454e-08
2.22849e-07
3.69566e-08
2.21762e-07
3.80474e-08
2.20512e-07
3.88338e-08
2.19141e-07
3.93135e-08
2.17604e-07
3.9514e-08
2.15956e-07
3.94794e-08
2.14207e-07
3.92345e-08
2.12352e-07
3.87958e-08
2.10389e-07
3.82523e-08
2.08311e-07
3.75704e-08
2.06156e-07
3.68594e-08
2.0399e-07
3.60361e-08
2.01601e-07
3.5372e-08
3.45966e-08
1.84188e-07
-6.17936e-09
1.83653e-07
-9.24728e-09
1.82846e-07
-1.12266e-08
1.81966e-07
-1.45148e-08
1.81046e-07
-1.73247e-08
1.80199e-07
-2.1059e-08
1.79307e-07
-2.52961e-08
1.78565e-07
-2.92911e-08
1.78009e-07
-3.41856e-08
1.77936e-07
-3.87196e-08
1.78524e-07
-4.48498e-08
1.79942e-07
-4.99479e-08
1.82803e-07
-5.7432e-08
1.86701e-07
-6.23573e-08
1.93048e-07
-7.0144e-08
1.99277e-07
-7.27186e-08
2.07088e-07
-7.71277e-08
2.15933e-07
-7.81863e-08
2.21876e-07
-7.248e-08
2.24659e-07
-6.4096e-08
2.25449e-07
-5.66166e-08
2.24432e-07
-4.89869e-08
2.22767e-07
-4.30246e-08
2.20647e-07
-3.7891e-08
2.17632e-07
-3.22957e-08
2.14195e-07
-2.72554e-08
2.10867e-07
-2.29589e-08
2.07838e-07
-1.90755e-08
2.05241e-07
-1.53875e-08
2.03168e-07
-1.18267e-08
2.01672e-07
-8.37925e-09
2.00771e-07
-5.05117e-09
2.00412e-07
-1.83894e-09
2.00588e-07
1.3366e-09
2.01315e-07
4.49957e-09
2.02459e-07
7.57782e-09
2.03912e-07
1.0632e-08
2.05566e-07
1.36826e-08
2.07318e-07
1.67342e-08
2.09078e-07
1.9762e-08
2.10746e-07
2.27336e-08
2.12245e-07
2.55954e-08
2.13512e-07
2.83169e-08
2.14508e-07
3.08388e-08
2.15203e-07
3.31367e-08
2.156e-07
3.51484e-08
2.15686e-07
3.68708e-08
2.15488e-07
3.82451e-08
2.15033e-07
3.92895e-08
2.14353e-07
3.9993e-08
2.1345e-07
4.04177e-08
2.12363e-07
4.05657e-08
2.11139e-07
4.04585e-08
2.09716e-07
4.02196e-08
2.08234e-07
3.97337e-08
2.06638e-07
3.9167e-08
2.04959e-07
3.85378e-08
2.03143e-07
3.7852e-08
2.01183e-07
3.7332e-08
3.66433e-08
1.81993e-07
-5.69457e-09
1.81269e-07
-8.52401e-09
1.80341e-07
-1.02988e-08
1.79216e-07
-1.33889e-08
1.78124e-07
-1.6233e-08
1.77059e-07
-1.9994e-08
1.7575e-07
-2.39871e-08
1.74617e-07
-2.81582e-08
1.73536e-07
-3.31043e-08
1.73154e-07
-3.83382e-08
1.73296e-07
-4.49914e-08
1.74845e-07
-5.14969e-08
1.7766e-07
-6.02471e-08
1.82767e-07
-6.74646e-08
1.91064e-07
-7.84405e-08
2.01094e-07
-8.27485e-08
2.11679e-07
-8.77129e-08
2.20517e-07
-8.7024e-08
2.24005e-07
-7.59687e-08
2.23211e-07
-6.33021e-08
2.19633e-07
-5.30383e-08
2.13993e-07
-4.33466e-08
2.07157e-07
-3.61888e-08
1.99662e-07
-3.03959e-08
1.9131e-07
-2.39441e-08
1.8335e-07
-1.92953e-08
1.76218e-07
-1.58263e-08
1.70116e-07
-1.29735e-08
1.65207e-07
-1.04792e-08
1.61572e-07
-8.19114e-09
1.59189e-07
-5.99642e-09
1.57962e-07
-3.82436e-09
1.57728e-07
-1.60531e-09
1.58408e-07
6.56796e-10
1.59951e-07
2.95656e-09
1.62146e-07
5.38353e-09
1.64876e-07
7.90205e-09
1.68018e-07
1.05405e-08
1.71465e-07
1.32867e-08
1.75123e-07
1.61042e-08
1.78884e-07
1.89722e-08
1.82644e-07
2.18362e-08
1.86297e-07
2.46638e-08
1.89752e-07
2.73831e-08
1.92929e-07
2.99604e-08
1.95761e-07
3.23163e-08
1.98192e-07
3.44394e-08
2.00172e-07
3.62657e-08
2.01628e-07
3.78332e-08
2.02589e-07
3.90318e-08
2.03132e-07
3.98744e-08
2.03318e-07
4.03798e-08
2.03227e-07
4.05497e-08
2.02899e-07
4.05472e-08
2.02329e-07
4.03036e-08
2.01574e-07
3.99228e-08
2.00658e-07
3.94537e-08
1.99522e-07
3.89874e-08
1.98322e-07
3.85321e-08
3.79405e-08
1.80018e-07
-5.12324e-09
1.79116e-07
-7.62222e-09
1.77754e-07
-8.93641e-09
1.7647e-07
-1.2105e-08
1.75286e-07
-1.50492e-08
1.73884e-07
-1.85918e-08
1.72069e-07
-2.21727e-08
1.70383e-07
-2.64713e-08
1.6859e-07
-3.1312e-08
1.67518e-07
-3.72656e-08
1.66866e-07
-4.43394e-08
1.68076e-07
-5.27072e-08
1.70601e-07
-6.27719e-08
1.76689e-07
-7.35525e-08
1.87276e-07
-8.90281e-08
2.02648e-07
-9.81204e-08
2.18028e-07
-1.03093e-07
2.18216e-07
-8.72116e-08
2.13397e-07
-7.11496e-08
2.02081e-07
-5.19869e-08
1.88236e-07
-3.91931e-08
1.71274e-07
-2.63844e-08
1.55394e-07
-2.03084e-08
1.39074e-07
-1.40765e-08
1.25018e-07
-9.88815e-09
1.14332e-07
-8.60901e-09
1.06362e-07
-7.85627e-09
1.00922e-07
-7.53306e-09
9.7693e-08
-7.25071e-09
9.62771e-08
-6.77519e-09
9.63182e-08
-6.03749e-09
9.7548e-08
-5.0542e-09
9.97699e-08
-3.82723e-09
1.02775e-07
-2.34813e-09
1.06281e-07
-5.49511e-10
1.10337e-07
1.32759e-09
1.14783e-07
3.45592e-09
1.19508e-07
5.81563e-09
1.24456e-07
8.33904e-09
1.2957e-07
1.09898e-08
1.34796e-07
1.37457e-08
1.40076e-07
1.65562e-08
1.45352e-07
1.93883e-08
1.50561e-07
2.21738e-08
1.55634e-07
2.48874e-08
1.60514e-07
2.74363e-08
1.65134e-07
2.98201e-08
1.69473e-07
3.19267e-08
1.73543e-07
3.37633e-08
1.77241e-07
3.53337e-08
1.80511e-07
3.66041e-08
1.83325e-07
3.75657e-08
1.85634e-07
3.82411e-08
1.87547e-07
3.86338e-08
1.89027e-07
3.88239e-08
1.90131e-07
3.88183e-08
1.90811e-07
3.87737e-08
1.91178e-07
3.86209e-08
1.91273e-07
3.84365e-08
3.81485e-08
1.78263e-07
-4.49128e-09
1.76756e-07
-6.11485e-09
1.76696e-07
-8.8764e-09
1.75095e-07
-1.05046e-08
1.72928e-07
-1.28821e-08
1.7078e-07
-1.64438e-08
1.68418e-07
-1.98103e-08
1.65989e-07
-2.40423e-08
1.63321e-07
-2.86444e-08
1.61064e-07
-3.50082e-08
1.5904e-07
-4.23156e-08
1.58734e-07
-5.24013e-08
1.60507e-07
-6.45454e-08
1.66486e-07
-7.95316e-08
1.82973e-07
-1.05514e-07
1.94758e-07
-1.09906e-07
2.01856e-07
-1.10191e-07
2.60844e-07
-1.46199e-07
1.89694e-07
1.37708e-07
9.85145e-08
7.213e-08
4.68048e-08
5.01677e-09
3.86647e-08
-5.93643e-09
3.52012e-08
-6.42463e-09
3.53474e-08
-8.7552e-09
3.69535e-08
-9.46238e-09
3.92467e-08
-9.82627e-09
4.17856e-08
-9.78963e-09
4.45079e-08
-9.49742e-09
4.74991e-08
-9.02873e-09
5.07767e-08
-8.33181e-09
5.43252e-08
-7.37572e-09
5.81285e-08
-6.15144e-09
6.22385e-08
-4.65946e-09
6.6535e-08
-2.9689e-09
7.10122e-08
-1.02134e-09
7.57011e-08
1.12673e-09
8.06031e-08
3.43713e-09
8.57052e-08
5.88769e-09
9.10002e-08
8.45073e-09
9.64681e-08
1.10883e-08
1.02082e-07
1.37745e-08
1.07802e-07
1.64535e-08
1.13586e-07
1.91036e-08
1.1938e-07
2.16425e-08
1.25139e-07
2.40606e-08
1.30789e-07
2.62775e-08
1.36279e-07
2.82731e-08
1.41596e-07
3.00169e-08
1.46669e-07
3.15305e-08
1.5148e-07
3.27547e-08
1.55946e-07
3.37757e-08
1.60089e-07
3.44904e-08
1.63853e-07
3.50601e-08
1.67292e-07
3.53788e-08
1.70416e-07
3.56501e-08
1.73215e-07
3.58217e-08
1.75666e-07
3.59861e-08
3.63165e-08
1.7669e-07
-3.77522e-09
1.75503e-07
-4.92778e-09
1.74239e-07
-7.61263e-09
1.72585e-07
-8.84982e-09
1.70433e-07
-1.07301e-08
1.67802e-07
-1.38128e-08
1.64838e-07
-1.68465e-08
1.61515e-07
-2.07195e-08
1.57832e-07
-2.49609e-08
1.53977e-07
-3.11537e-08
1.49999e-07
-3.83374e-08
1.46825e-07
-4.92273e-08
1.45002e-07
-6.27223e-08
1.47466e-07
-8.1996e-08
1.63502e-07
-1.2155e-07
2.5639e-07
-2.02794e-07
1.46199e-07
5.01677e-09
-9.19657e-10
1.87517e-09
-9.21945e-09
5.20523e-09
-1.20853e-08
8.81931e-09
-1.30765e-08
1.19086e-08
-1.29156e-08
1.46256e-08
-1.25066e-08
1.71677e-08
-1.20395e-08
1.96192e-08
-1.14802e-08
2.20706e-08
-1.07833e-08
2.45864e-08
-9.89147e-09
2.72236e-08
-8.78867e-09
3.00229e-08
-7.45881e-09
3.29788e-08
-5.92477e-09
3.61551e-08
-4.19763e-09
3.95828e-08
-2.30095e-09
4.3253e-08
-2.33098e-10
4.72341e-08
1.90666e-09
5.15283e-08
4.15649e-09
5.61412e-08
6.47535e-09
6.10654e-08
8.85031e-09
6.62781e-08
1.12408e-08
7.17563e-08
1.36254e-08
7.74553e-08
1.59435e-08
8.33375e-08
1.81784e-08
8.93454e-08
2.02696e-08
9.54203e-08
2.21982e-08
1.0152e-07
2.39175e-08
1.07593e-07
2.54571e-08
1.13594e-07
2.67541e-08
1.1948e-07
2.78893e-08
1.25199e-07
2.87718e-08
1.30734e-07
2.95244e-08
1.36025e-07
3.00886e-08
1.41093e-07
3.05818e-08
1.45854e-07
3.1061e-08
1.50332e-07
3.15078e-08
3.24204e-08
1.75327e-07
-2.94732e-09
1.74157e-07
-3.75709e-09
1.72478e-07
-5.93407e-09
1.70542e-07
-6.91328e-09
1.68202e-07
-8.3902e-09
1.65172e-07
-1.07833e-08
1.61616e-07
-1.32902e-08
1.57397e-07
-1.65002e-08
1.52567e-07
-2.01317e-08
1.46951e-07
-2.5537e-08
1.40511e-07
-3.1898e-08
1.33453e-07
-4.21689e-08
1.2498e-07
-5.42498e-08
1.17332e-07
-7.43475e-08
1.03605e-07
-1.07823e-07
-9.91893e-08
-3.45972e-09
-5.75973e-09
-2.9624e-09
-1.25826e-08
-2.07193e-09
-1.39669e-08
-1.21867e-09
-1.37688e-08
-5.87781e-10
-1.31375e-08
-1.31234e-10
-1.2496e-08
2.66267e-10
-1.18777e-08
6.89028e-10
-1.1206e-08
1.21434e-09
-1.04168e-08
1.89891e-09
-9.47323e-09
2.79614e-09
-8.35605e-09
3.94424e-09
-7.07287e-09
5.38708e-09
-5.64046e-09
7.1622e-09
-4.07607e-09
9.3242e-09
-2.3951e-09
1.18338e-08
-6.02896e-10
1.47826e-08
1.20762e-09
1.8185e-08
3.07297e-09
2.20361e-08
4.99927e-09
2.63256e-08
6.95118e-09
3.10413e-08
8.90971e-09
3.61495e-08
1.08354e-08
4.16223e-08
1.27055e-08
4.74219e-08
1.447e-08
5.34956e-08
1.61246e-08
5.97845e-08
1.76285e-08
6.62512e-08
1.89905e-08
7.2826e-08
2.01793e-08
7.94888e-08
2.12264e-08
8.61598e-08
2.21009e-08
9.28331e-08
2.28511e-08
9.94331e-08
2.34886e-08
1.05946e-07
2.40688e-08
1.12341e-07
2.46657e-08
1.1853e-07
2.53191e-08
2.6622e-08
1.74253e-07
-2.02053e-09
1.73041e-07
-2.54519e-09
1.71166e-07
-4.05885e-09
1.68993e-07
-4.74037e-09
1.6638e-07
-5.77759e-09
1.63009e-07
-7.41217e-09
1.58919e-07
-9.20028e-09
1.53914e-07
-1.14945e-08
1.4796e-07
-1.41779e-08
1.4063e-07
-1.8207e-08
1.31781e-07
-2.30492e-08
1.2089e-07
-3.1278e-08
1.07023e-07
-4.03824e-08
9.20549e-08
-5.93796e-08
9.91893e-08
-1.14958e-07
-5.75972e-09
-5.65566e-09
-1.26866e-08
-7.79423e-09
-1.18284e-08
-9.9588e-09
-1.16043e-08
-1.21789e-08
-1.09174e-08
-1.43698e-08
-1.03052e-08
-1.64709e-08
-9.77662e-09
-1.84127e-08
-9.26414e-09
-2.01278e-08
-8.70172e-09
-2.15656e-08
-8.03536e-09
-2.26711e-08
-7.25063e-09
-2.34021e-08
-6.34178e-09
-2.37205e-08
-5.32216e-09
-2.35933e-08
-4.20326e-09
-2.29942e-08
-2.99414e-09
-2.18869e-08
-1.7102e-09
-2.03087e-08
-3.70588e-10
-1.8165e-08
9.29249e-10
-1.54572e-08
2.29148e-09
-1.21883e-08
3.6823e-09
-8.36376e-09
5.08518e-09
-4.00288e-09
6.47448e-09
8.70498e-10
7.83212e-09
6.20567e-09
9.13486e-09
1.19772e-08
1.0353e-08
1.81274e-08
1.14784e-08
2.46139e-08
1.2504e-08
3.13688e-08
1.34244e-08
3.83616e-08
1.42336e-08
4.55295e-08
1.4933e-08
5.28512e-08
1.55294e-08
6.02591e-08
1.60807e-08
6.77406e-08
1.65873e-08
7.53191e-08
1.70872e-08
8.27751e-08
1.78631e-08
1.90643e-08
1.73518e-07
-1.02696e-09
1.7226e-07
-1.28668e-09
1.70262e-07
-2.06094e-09
1.67933e-07
-2.41137e-09
1.65101e-07
-2.94574e-09
1.61465e-07
-3.77585e-09
1.56975e-07
-4.71095e-09
1.51379e-07
-5.89849e-09
1.44545e-07
-7.34334e-09
1.35784e-07
-9.4456e-09
1.24903e-07
-1.21685e-08
1.10227e-07
-1.66023e-08
9.20284e-08
-2.21838e-08
6.67802e-08
-3.41314e-08
-4.81773e-08
-6.66807e-09
-6.01856e-09
-1.14873e-08
-7.0091e-09
-1.64267e-08
-6.66491e-09
-2.11863e-08
-6.15773e-09
-2.57407e-08
-5.75076e-09
-3.00792e-08
-5.43806e-09
-3.41631e-08
-5.18027e-09
-3.79385e-08
-4.92633e-09
-4.13427e-08
-4.63113e-09
-4.43161e-08
-4.27725e-09
-4.68025e-08
-3.85537e-09
-4.87575e-08
-3.36717e-09
-5.01459e-08
-2.81485e-09
-5.09485e-08
-2.19148e-09
-5.11759e-08
-1.48286e-09
-5.07792e-08
-7.67234e-10
-4.97941e-08
-5.59175e-11
-4.82e-08
6.97448e-10
-4.59415e-08
1.42377e-09
-4.30309e-08
2.17457e-09
-3.94778e-08
2.92136e-09
-3.52997e-08
3.65408e-09
-3.0524e-08
4.35915e-09
-2.51981e-08
5.02714e-09
-1.93692e-08
5.64948e-09
-1.30853e-08
6.22013e-09
-6.39875e-09
6.7378e-09
6.45251e-10
7.18959e-09
7.96823e-09
7.61008e-09
1.55626e-08
7.93504e-09
2.33871e-08
8.25622e-09
3.14238e-08
8.5506e-09
3.96966e-08
8.81438e-09
4.80979e-08
9.46176e-09
9.98901e-09
1.73146e-07
2.59192e-14
1.71859e-07
3.8734e-14
1.69798e-07
3.79806e-14
1.67387e-07
1.58658e-14
1.64441e-07
1.05631e-13
1.60665e-07
1.32561e-14
1.55954e-07
3.86575e-13
1.50055e-07
6.78588e-13
1.42709e-07
2.39158e-12
1.33259e-07
4.30154e-12
1.21082e-07
8.7344e-12
1.04468e-07
1.10092e-11
8.22687e-08
1.59733e-11
4.81315e-08
5.85767e-12
-4.58371e-11
-6.01795e-09
-6.03924e-13
-1.3024e-08
-3.02029e-12
-1.96812e-08
-7.70866e-12
-2.58231e-08
-1.58236e-11
-3.15465e-08
-2.73697e-11
-3.69437e-08
-4.08366e-11
-4.2069e-08
-5.49418e-11
-4.69267e-08
-6.87033e-11
-5.14758e-08
-8.1984e-11
-5.5658e-08
-9.50114e-11
-5.94054e-08
-1.08027e-10
-6.26514e-08
-1.21106e-10
-6.53332e-08
-1.33073e-10
-6.73832e-08
-1.4153e-10
-6.87235e-08
-1.42518e-10
-6.93535e-08
-1.37188e-10
-6.92793e-08
-1.30163e-10
-6.84583e-08
-1.23517e-10
-6.69379e-08
-9.66368e-11
-6.4688e-08
-7.52878e-11
-6.1726e-08
-4.06598e-11
-5.80697e-08
-2.27263e-12
-5.37458e-08
3.53352e-11
-4.87967e-08
7.79772e-11
-4.32681e-08
1.20934e-10
-3.72104e-08
1.62442e-10
-3.06734e-08
2.00797e-10
-2.37174e-08
2.33578e-10
-1.63653e-08
2.57995e-10
-8.70516e-09
2.74875e-10
-7.29615e-10
2.80673e-10
7.54549e-09
2.75491e-10
1.6109e-08
2.50903e-10
2.53579e-08
2.12811e-10
1.07005e-10
1.73146e-07
1.02701e-09
1.71859e-07
1.28676e-09
1.69798e-07
2.06102e-09
1.67387e-07
2.41141e-09
1.64441e-07
2.94589e-09
1.60665e-07
3.77605e-09
1.55954e-07
4.71156e-09
1.50055e-07
5.89952e-09
1.4271e-07
7.34728e-09
1.33262e-07
9.45251e-09
1.21088e-07
1.21822e-08
1.04481e-07
1.66187e-08
8.22982e-08
2.21985e-08
4.81909e-08
3.41132e-08
4.8145e-08
-6.02848e-09
6.02788e-09
-1.30324e-08
7.00089e-09
-1.96873e-08
6.64717e-09
-2.58291e-08
6.12604e-09
-3.15547e-08
5.69821e-09
-3.69562e-08
5.36069e-09
-4.20878e-08
5.07666e-09
-4.69529e-08
4.79639e-09
-5.15106e-08
4.47572e-09
-5.57025e-08
4.09693e-09
-5.94608e-08
3.65023e-09
-6.27187e-08
3.13683e-09
-6.54114e-08
2.55963e-09
-6.74685e-08
1.91555e-09
-6.8808e-08
1.197e-09
-6.9427e-08
4.81785e-10
-6.93743e-08
-1.82801e-10
-6.85696e-08
-9.28201e-10
-6.70611e-08
-1.60514e-09
-6.48275e-08
-2.30886e-09
-6.1879e-08
-2.98918e-09
-5.82325e-08
-3.6488e-09
-5.39196e-08
-4.27751e-09
-4.89784e-08
-4.86327e-09
-4.34541e-08
-5.40333e-09
-3.73965e-08
-5.89518e-09
-3.08549e-08
-6.34076e-09
-2.38907e-08
-6.73063e-09
-1.65222e-08
-7.11053e-09
-8.84196e-09
-7.40534e-09
-8.40215e-10
-7.72107e-09
7.46396e-09
-8.02869e-09
1.60588e-08
-8.34392e-09
2.5334e-08
-9.06238e-09
-9.78873e-09
1.73518e-07
2.02059e-09
1.7226e-07
2.54527e-09
1.70262e-07
4.05896e-09
1.67933e-07
4.74045e-09
1.65101e-07
5.77771e-09
1.61465e-07
7.41205e-09
1.56976e-07
9.20037e-09
1.51378e-07
1.14974e-08
1.44546e-07
1.41794e-08
1.35788e-07
1.8211e-08
1.24911e-07
2.30586e-08
1.10243e-07
3.1287e-08
9.20533e-08
4.03883e-08
6.67997e-08
5.93669e-08
1.14945e-07
-6.67292e-09
1.27008e-08
-1.14946e-08
1.18226e-08
-1.64349e-08
1.15874e-08
-2.11954e-08
1.08865e-08
-2.57524e-08
1.02553e-08
-3.00948e-08
9.70302e-09
-3.41836e-08
9.16545e-09
-3.79654e-08
8.57828e-09
-4.13769e-08
7.88714e-09
-4.4359e-08
7.07908e-09
-4.6857e-08
6.14819e-09
-4.88275e-08
5.10739e-09
-5.02369e-08
3.96903e-09
-5.10672e-08
2.74585e-09
-5.13324e-08
1.46224e-09
-5.09709e-08
1.20204e-10
-5.00195e-08
-1.13412e-09
-4.84718e-08
-2.47596e-09
-4.62515e-08
-3.8254e-09
-4.33807e-08
-5.17966e-09
-3.98632e-08
-6.50669e-09
-3.57178e-08
-7.79418e-09
-3.09676e-08
-9.02766e-09
-2.56618e-08
-1.01691e-08
-1.98449e-08
-1.12202e-08
-1.35631e-08
-1.21769e-08
-6.86646e-09
-1.30374e-08
2.03239e-10
-1.38003e-08
7.55559e-09
-1.44629e-08
1.51944e-08
-1.50442e-08
2.30773e-08
-1.5604e-08
3.11813e-08
-1.61326e-08
3.95291e-08
-1.66917e-08
4.79956e-08
-1.75289e-08
-1.88974e-08
1.74253e-07
2.94741e-09
1.73041e-07
3.75715e-09
1.71166e-07
5.93428e-09
1.68993e-07
6.91346e-09
1.6638e-07
8.39026e-09
1.63009e-07
1.07832e-08
1.58919e-07
1.32902e-08
1.53915e-07
1.65017e-08
1.47962e-07
2.01319e-08
1.40632e-07
2.55418e-08
1.31789e-07
3.19014e-08
1.209e-07
4.21763e-08
1.07037e-07
5.42512e-08
9.20599e-08
7.43437e-08
9.91909e-08
1.07814e-07
9.91909e-08
-5.7676e-09
5.76761e-09
-5.65821e-09
1.25914e-08
-7.7994e-09
1.39638e-08
-9.96659e-09
1.37546e-08
-1.21903e-08
1.31103e-08
-1.43864e-08
1.24514e-08
-1.64952e-08
1.18118e-08
-1.84473e-08
1.11175e-08
-2.01743e-08
1.03053e-08
-2.16267e-08
9.33954e-09
-2.27492e-08
8.20152e-09
-2.35006e-08
6.89963e-09
-2.38435e-08
5.45034e-09
-2.37464e-08
3.87184e-09
-2.3181e-08
2.1805e-09
-2.2105e-08
3.86229e-10
-2.05838e-08
-1.40096e-09
-1.84736e-08
-3.24434e-09
-1.5808e-08
-5.14157e-09
-1.25824e-08
-7.05092e-09
-8.80276e-09
-8.95932e-09
-4.48317e-09
-1.08263e-08
3.56037e-10
-1.26334e-08
5.65563e-09
-1.43272e-08
1.14018e-08
-1.59152e-08
1.75368e-08
-1.73553e-08
2.40194e-08
-1.86595e-08
3.07833e-08
-1.98013e-08
3.77965e-08
-2.08135e-08
4.50034e-08
-2.16698e-08
5.23756e-08
-2.24163e-08
5.98484e-08
-2.30768e-08
6.74021e-08
-2.36863e-08
7.50616e-08
-2.43512e-08
8.25895e-08
-2.50568e-08
-2.64931e-08
1.75328e-07
3.77534e-09
1.74157e-07
4.92774e-09
1.72478e-07
7.61315e-09
1.70541e-07
8.85013e-09
1.68202e-07
1.073e-08
1.65172e-07
1.38125e-08
1.61616e-07
1.68466e-08
1.57398e-07
2.07196e-08
1.52567e-07
2.49628e-08
1.46953e-07
3.11556e-08
1.40516e-07
3.83391e-08
1.33461e-07
4.92308e-08
1.24988e-07
6.27246e-08
1.17336e-07
8.19948e-08
1.03604e-07
1.21546e-07
2.02795e-07
-3.46045e-09
9.22807e-09
-2.96152e-09
1.20925e-08
-2.07375e-09
1.3076e-08
-1.22521e-09
1.29061e-08
-5.99843e-10
1.24849e-08
-1.5089e-10
1.20024e-08
2.35505e-10
1.14254e-08
6.45506e-10
1.07076e-08
1.15606e-09
9.79477e-09
1.82385e-09
8.67176e-09
2.70222e-09
7.32316e-09
3.82858e-09
5.77327e-09
5.24607e-09
4.03285e-09
6.98948e-09
2.12844e-09
9.12449e-09
4.54887e-11
1.15887e-08
-2.07793e-09
1.45008e-08
-4.31313e-09
1.78642e-08
-6.60774e-09
2.16733e-08
-8.95064e-09
2.59211e-08
-1.12987e-08
3.05946e-08
-1.36328e-08
3.56641e-08
-1.58958e-08
4.10994e-08
-1.80687e-08
4.68714e-08
-2.00992e-08
5.2924e-08
-2.19678e-08
5.92015e-08
-2.36328e-08
6.5667e-08
-2.51251e-08
7.22532e-08
-2.63875e-08
7.89397e-08
-2.75e-08
8.56498e-08
-2.83799e-08
9.23727e-08
-2.91393e-08
9.90349e-08
-2.9739e-08
1.05614e-07
-3.02656e-08
1.1208e-07
-3.08167e-08
1.1833e-07
-3.13076e-08
-3.23283e-08
1.76691e-07
4.49139e-09
1.75504e-07
6.11445e-09
1.74239e-07
8.87821e-09
1.72584e-07
1.05046e-08
1.70433e-07
1.28814e-08
1.67802e-07
1.64435e-08
1.64838e-07
1.98103e-08
1.61515e-07
2.40424e-08
1.57833e-07
2.86447e-08
1.5398e-07
3.50086e-08
1.50001e-07
4.23188e-08
1.4683e-07
5.2402e-08
1.45007e-07
6.45477e-08
1.47469e-07
7.95323e-08
1.63502e-07
1.05514e-07
2.56388e-07
1.09908e-07
1.46193e-07
1.10194e-07
1.46193e-07
5.01782e-09
-5.01781e-09
-9.18501e-10
5.93633e-09
1.88093e-09
6.42864e-09
5.21376e-09
8.7597e-09
8.82618e-09
9.46359e-09
1.1912e-08
9.82026e-09
1.46224e-08
9.77454e-09
1.71563e-08
9.46853e-09
1.95971e-08
8.9847e-09
2.20348e-08
8.26983e-09
2.45349e-08
7.29472e-09
2.71549e-08
6.05176e-09
2.99358e-08
4.54223e-09
3.2868e-08
2.84112e-09
3.60215e-08
8.79387e-10
3.94212e-08
-1.2713e-09
4.30523e-08
-3.5856e-09
4.69996e-08
-6.02524e-09
5.12575e-08
-8.57098e-09
5.58319e-08
-1.11821e-08
6.07157e-08
-1.38344e-08
6.58886e-08
-1.64716e-08
7.13275e-08
-1.90717e-08
7.69913e-08
-2.15596e-08
8.28419e-08
-2.39193e-08
8.88276e-08
-2.60849e-08
9.48876e-08
-2.80278e-08
1.00983e-07
-2.9728e-08
1.07062e-07
-3.12042e-08
1.13081e-07
-3.24062e-08
1.18998e-07
-3.34172e-08
1.24761e-07
-3.41433e-08
1.3035e-07
-3.47282e-08
1.35702e-07
-3.50908e-08
1.40834e-07
-3.53972e-08
1.45656e-07
-3.5639e-08
1.50187e-07
-3.58388e-08
-3.62592e-08
1.78263e-07
5.12312e-09
1.76758e-07
7.61999e-09
1.76692e-07
8.94363e-09
1.75094e-07
1.21028e-08
1.72928e-07
1.50474e-08
1.7078e-07
1.85914e-08
1.68418e-07
2.21727e-08
1.65989e-07
2.64714e-08
1.63321e-07
3.13122e-08
1.61064e-07
3.7266e-08
1.59043e-07
4.43398e-08
1.58735e-07
5.27095e-08
1.6051e-07
6.27736e-08
1.6649e-07
7.35518e-08
1.82975e-07
8.9029e-08
1.94764e-07
9.81193e-08
2.0187e-07
1.03088e-07
2.60859e-07
8.72046e-08
1.89741e-07
7.11181e-08
1.37812e-07
5.19284e-08
9.85352e-08
3.9277e-08
7.21385e-08
2.63967e-08
4.68091e-08
2.03116e-08
3.86707e-08
1.40747e-08
3.52122e-08
9.88716e-09
3.53625e-08
8.60947e-09
3.69713e-08
7.85477e-09
3.92654e-08
7.52619e-09
4.18034e-08
7.2365e-09
4.45206e-08
6.75136e-09
4.75043e-08
6.00104e-09
5.07708e-08
5.00335e-09
5.43041e-08
3.76139e-09
5.80892e-08
2.26664e-09
6.21865e-08
4.44928e-10
6.64554e-08
-1.42772e-09
7.09041e-08
-3.56931e-09
7.55647e-08
-5.93192e-09
8.04314e-08
-8.45228e-09
8.54972e-08
-1.1091e-08
9.07537e-08
-1.38275e-08
9.6182e-08
-1.66105e-08
1.01755e-07
-1.94079e-08
1.07437e-07
-2.21531e-08
1.13184e-07
-2.48191e-08
1.18947e-07
-2.7322e-08
1.24681e-07
-2.96535e-08
1.30317e-07
-3.17205e-08
1.358e-07
-3.35113e-08
1.41123e-07
-3.50512e-08
1.46214e-07
-3.62952e-08
1.51057e-07
-3.72493e-08
1.55567e-07
-3.79271e-08
1.59764e-07
-3.83405e-08
1.63587e-07
-3.8551e-08
1.67088e-07
-3.85916e-08
1.70272e-07
-3.85808e-08
1.73128e-07
-3.8495e-08
1.75623e-07
-3.83343e-08
-3.81163e-08
1.80018e-07
5.69453e-09
1.79115e-07
8.52346e-09
1.77759e-07
1.02987e-08
1.76474e-07
1.33882e-08
1.75287e-07
1.62343e-08
1.73884e-07
1.99944e-08
1.7207e-07
2.39871e-08
1.70383e-07
2.81583e-08
1.68591e-07
3.31045e-08
1.67518e-07
3.83385e-08
1.66866e-07
4.49918e-08
1.68077e-07
5.14989e-08
1.70603e-07
6.0247e-08
1.76691e-07
6.74641e-08
1.8728e-07
7.844e-08
2.02653e-07
8.27465e-08
2.18036e-07
8.7705e-08
2.18226e-07
8.70155e-08
2.13405e-07
7.59383e-08
2.02051e-07
6.32831e-08
1.88251e-07
5.30766e-08
1.71287e-07
4.33611e-08
1.55407e-07
3.61916e-08
1.39086e-07
3.0395e-08
1.25031e-07
2.39421e-08
1.14351e-07
1.92897e-08
1.06387e-07
1.58187e-08
1.0095e-07
1.29634e-08
9.77257e-08
1.04608e-08
9.63103e-08
8.16676e-09
9.63486e-08
5.96274e-09
9.75726e-08