/*--------------------------------*- C++ -*----------------------------------*\
| =========                 |                                                 |
| \\      /  F ield         | OpenFOAM: The Open Source CFD Toolbox           |
|  \\    /   O peration     | Version:  2.3.0                                 |
|   \\  /    A nd           | Web:      www.OpenFOAM.org                      |
|    \\/     M anipulation  |                                                 |
\*---------------------------------------------------------------------------*/
FoamFile
{
    version     2.0;
    format      ascii;
    class       volScalarField;
    location    "1.4e-05";
    object      alpha.fuel;
}
// * * * * * * * * * * * * * * * * * * * * * * * * * * * * * * * * * * * * * //

dimensions      [0 0 0 0 0 0 0];

internalField   nonuniform List<scalar> 
7500
(
1
1
1
1
1
1
1
1
1
1
1
1
1
1
1
1
1
1
1
1
1
1
1
1
1
1
1
1
1
1
1
1
1
1
1
1
1
1
1
1
1
1
1
1
1
1
1
1
1
1
1
1
1
1
1
1
1
1
1
1
1
1
1
1
1
1
1
1
1
1
1
1
1
1
1
1
1
1
1
1
1
1
1
1
1
1
1
1
1
1
1
1
1
1
1
1
1
1
1
1
1
1
1
1
1
1
1
1
1
1
1
1
1
1
1
1
1
1
1
1
1
1
1
1
1
1
1
1
1
1
1
1
1
1
1
1
1
1
1
1
1
1
1
1
1
1
1
1
1
1
1
1
1
1
1
1
1
1
1
1
1
1
1
1
1
1
1
1
1
1
1
1
1
1
1
1
1
1
1
1
1
1
1
1
1
1
1
1
1
1
1
1
1
1
1
1
1
1
1
1
1
1
1
1
1
1
1
1
1
1
1
1
1
1
1
1
1
1
1
1
1
1
1
1
1
1
1
1
1
1
1
1
1
1
1
1
1
1
1
1
1
1
1
1
1
1
1
1
1
1
1
1
1
1
1
1
1
1
1
1
1
1
1
1
1
1
1
1
1
1
1
1
1
1
1
1
1
1
1
1
1
1
1
1
1
1
1
1
1
1
1
1
1
1
1
1
1
1
1
1
1
1
1
1
1
1
1
1
1
1
1
1
1
1
1
1
1
1
1
1
1
1
1
1
1
1
1
1
1
1
1
1
1
1
1
1
1
1
1
1
1
1
1
1
1
1
1
1
1
1
1
1
1
1
1
1
1
1
1
1
1
1
1
1
1
1
1
1
1
1
1
1
1
1
1
1
1
1
1
1
1
1
1
1
1
1
1
1
1
1
1
1
1
1
1
1
1
1
1
1
1
1
1
1
1
1
1
1
1
1
1
1
1
1
1
1
1
1
1
1
1
1
1
1
1
1
1
1
1
1
1
1
1
1
1
1
1
1
1
1
1
1
1
1
1
1
1
1
1
1
1
1
1
1
1
1
1
1
1
1
1
1
1
1
1
1
1
1
1
1
1
1
1
1
1
1
1
1
1
1
1
1
1
1
1
1
1
1
1
1
1
1
1
1
1
1
1
1
1
1
1
1
1
1
1
1
1
1
1
1
1
1
1
1
1
1
1
1
1
1
1
1
1
1
1
1
1
1
1
1
1
1
1
1
1
1
1
1
1
1
1
1
1
1
1
1
1
1
1
1
1
1
1
1
1
1
1
1
1
1
1
1
1
1
1
1
1
1
1
1
1
1
1
1
1
1
1
1
1
1
1
1
1
1
1
1
1
1
1
1
1
1
1
1
1
1
1
1
1
1
1
1
1
1
1
1
1
1
1
1
1
1
1
1
1
1
1
1
1
1
1
1
1
1
1
1
1
1
1
1
1
1
1
1
1
1
1
1
1
1
1
1
1
1
1
1
1
1
1
1
1
1
1
1
1
1
1
1
1
1
1
1
1
1
1
1
1
1
1
1
1
1
1
1
1
1
1
1
1
1
1
1
1
1
1
1
1
1
1
1
1
1
1
1
1
1
1
1
1
1
1
1
1
1
1
1
1
1
1
1
1
1
1
1
1
1
1
1
1
1
1
1
1
1
1
1
1
1
1
1
1
1
1
1
1
1
1
1
1
1
1
0.99972164
0.99899967
0.99873095
0.99876219
0.99844449
0.99661943
0.99271835
0.98145069
0.93470055
1
1
1
1
1
1
1
1
1
1
1
1
1
1
1
1
1
1
1
1
1
1
1
1
1
1
1
1
1
1
1
1
1
1
1
1
1
1
1
1
1
1
1
1
1
1
1
1
1
1
1
1
0.99989373
0.99469881
0.98367525
0.96593592
0.94189729
0.91743569
0.89104277
0.8480138
0.79686239
0.74029086
0.67463001
0.60021376
0.51493848
0.4171689
0.32663934
0.29061929
0.28820776
0.29030283
0.29024739
0.28363348
0.26361495
0.20291842
0.068798258
1
1
1
1
1
1
1
1
1
1
1
1
1
1
1
1
1
1
1
1
1
1
1
1
1
1
1
1
1
1
1
1
1
1
1
1
1
1
1
1
1
1
0.99199384
0.97691964
0.95147748
0.91229405
0.84503378
0.75240065
0.65453614
0.57092791
0.48543292
0.40912595
0.33428866
0.26342609
0.1917412
0.12856399
0.073934433
0.040500116
9.6236613e-10
3.6404424e-10
3.6404421e-10
3.6404387e-10
3.640427e-10
3.640427e-10
3.640427e-10
3.640427e-10
3.640427e-10
3.6404277e-10
3.6404276e-10
3.6404273e-10
3.6404273e-10
3.6404293e-10
3.64043e-10
3.6404304e-10
3.6404313e-10
1
1
1
1
1
1
1
1
1
1
1
1
1
1
1
1
1
1
1
1
1
1
1
1
1
1
1
1
1
1
1
1
1
1
0.98926515
0.96203221
0.91597701
0.81613262
0.70161415
0.58217891
0.46415932
0.35111536
0.24577416
0.16536773
0.10075705
0.0070500665
8.7645509e-10
7.5542997e-10
7.5542996e-10
7.5542996e-10
7.5542997e-10
7.5542998e-10
7.5542999e-10
7.5543001e-10
7.5543003e-10
7.5543008e-10
7.5543013e-10
7.5543022e-10
8.0081628e-10
8.4987033e-09
1.5233903e-07
7.1405942e-07
1.0773438e-09
7.051087e-10
7.0557102e-10
6.9418573e-10
6.9013319e-10
2.5829356e-08
1.2977221e-08
7.4633095e-10
3.6956289e-10
6.4329355e-08
3.2497898e-08
1.9448673e-08
1.065242e-08
1
1
1
1
1
1
1
1
1
1
1
1
1
1
1
1
1
1
1
1
1
1
1
1
1
1
1
1
0.98074703
0.92831339
0.81020705
0.66725824
0.51916677
0.36858904
0.23669301
0.12916405
0.0048613718
3.1948485e-09
3.1256973e-09
3.1256972e-09
3.1256972e-09
3.1256972e-09
3.1256972e-09
3.1256973e-09
3.1256973e-09
3.1256977e-09
3.291263e-09
4.0428034e-09
4.7938087e-09
5.339723e-09
6.4232868e-09
6.7766881e-09
7.4620427e-09
7.9476503e-09
8.7128571e-09
8.8387937e-09
8.6402269e-09
6.7761507e-09
3.305857e-09
7.9525043e-10
4.3754793e-06
2.3863353e-05
1.8157358e-05
3.1247673e-06
9.1850889e-07
4.2627769e-05
1.7075578e-05
1.6816304e-06
9.0122147e-07
8.3098807e-06
6.8176549e-10
1.0532929e-09
1.0541057e-09
1.435644e-09
1.7382016e-09
1
1
1
1
1
1
1
1
1
1
1
1
1
1
1
1
1
1
1
1
1
1
1
0.97623653
0.90013433
0.73787823
0.55276079
0.35947712
0.19722813
0.024022256
3.889471e-09
3.6297856e-09
3.6297856e-09
3.6297856e-09
3.6297857e-09
3.6297857e-09
3.6297861e-09
4.1940064e-09
5.0562607e-09
1.2123733e-08
3.7547331e-09
3.6219882e-09
9.2210753e-09
7.9948698e-09
7.5533031e-09
7.8267331e-09
7.9725135e-09
8.8448326e-09
1.1195084e-08
1.3071534e-08
1.4046594e-08
7.192736e-09
7.6229124e-09
9.8121254e-09
9.5609524e-09
9.6537693e-09
1.1819025e-08
1.3015243e-08
9.5204261e-09
1.11894e-09
1.1161361e-09
1.1160216e-09
2.3489714e-05
0.0002828356
2.091625e-05
0.001695189
0.00055538338
7.9164195e-09
7.8650826e-09
0.00017941428
0.00088692498
0.003893679
0.0048620793
0.0045448638
0.0013015322
1
1
1
1
1
1
1
1
1
1
1
1
1
1
1
1
1
1
1
0.96623406
0.84812564
0.64279941
0.4096471
0.19235405
4.9633167e-09
3.7402389e-09
3.7402389e-09
3.7402417e-09
3.7402442e-09
3.7403031e-09
4.8202275e-09
8.8603618e-09
1.8182911e-08
2.0480899e-08
1.4704716e-08
9.117848e-09
7.2803098e-09
8.1639416e-09
1.0910075e-08
6.962538e-08
4.3895401e-06
1.5101601e-06
2.6428303e-07
8.4856912e-09
8.0813873e-09
7.7361958e-09
8.4631176e-09
8.7526875e-09
7.9876432e-09
1.3092563e-08
1.3806942e-08
7.3843211e-07
3.6820487e-07
1.7562174e-08
6.2803612e-09
5.8502879e-09
5.9752028e-09
6.4192217e-09
4.0100066e-08
2.5054737e-05
1.4507051e-09
1.493012e-09
2.0192433e-09
2.4323209e-09
0.00019484897
3.2077334e-09
0.0042914153
0.0092161501
0.0045859658
1.9894413e-08
0.0052449744
0.0078168968
0.0078438044
0.0078438044
0.0053155412
1
1
1
1
1
1
1
1
1
1
1
1
1
1
1
1
0.9227417
0.72813782
0.46178628
0.16590247
4.9757131e-09
3.9406937e-09
3.9406936e-09
3.9406936e-09
4.1497692e-09
4.5030405e-09
4.4709764e-09
7.1815679e-07
5.0057715e-07
1.0286669e-06
1.3975394e-08
4.3449385e-08
5.5114872e-08
3.6625379e-08
2.0835953e-08
9.2271162e-09
1.9315495e-08
9.8610651e-09
6.6455382e-09
5.6658073e-09
9.2726402e-06
1.0835152e-05
2.7357645e-07
8.1113577e-09
7.9959963e-09
7.6004405e-09
8.1290414e-09
4.7087651e-09
3.2795224e-09
2.918989e-09
2.918574e-09
3.1692081e-06
1.047417e-06
1.4109705e-08
0.00034214381
2.385263e-05
6.4240171e-09
2.535518e-07
4.8377427e-09
0.0028858434
0.013062797
0.02837512
0.055677158
0.039911627
0.0026749175
3.5226666e-09
0.00052675255
0.0062523225
0.0036996008
1.9609336e-08
1.9310181e-08
1.9148593e-08
0.0026749453
0.0022948951
1.1931944e-08
1
1
1
1
1
1
1
1
1
1
1
1
1
0.9302573
0.71795566
0.4117316
0.052075993
4.8109072e-09
4.3710387e-09
4.3710387e-09
2.0968254e-08
1.7470946e-08
4.7165263e-09
4.6752608e-09
5.4010674e-09
0.00084919472
0.00036639277
7.4121148e-05
3.0660954e-05
1.0025818e-08
6.9821825e-08
2.2044538e-08
3.234969e-06
6.4132392e-09
5.8757899e-09
6.3714073e-09
1.8830695e-07
7.6167218e-08
5.662764e-09
5.6626842e-09
6.2060296e-09
6.8479723e-09
7.4468321e-09
7.7214301e-09
5.5895299e-06
5.8391992e-09
5.2973352e-09
5.27413e-09
3.7303383e-05
8.8883994e-06
2.9182467e-09
2.5428203e-09
2.5426938e-09
0.00037847543
0.0013890043
0.0013151067
0.00043705018
5.3482981e-09
4.8376249e-09
4.8376247e-09
0.054650448
0.063186104
0.063568513
0.063847303
0.020780798
3.8397066e-09
1.2407636e-05
3.1428004e-09
3.4312373e-09
0.0044624365
0.0027717567
0.00018226021
1.1694061e-08
1.1639437e-08
1.1823076e-08
1
1
1
1
1
1
1
1
1
1
1
0.86866486
0.54529017
0.10306299
4.22706e-09
3.5104948e-09
3.5104949e-09
4.3661611e-09
1.3418711e-08
1.2080788e-08
9.6762929e-08
3.1997888e-08
0.00026188718
0.00036268535
0.0030851252
0.0032730219
0.0015420512
2.0088225e-08
1.9224826e-08
6.5367032e-08
8.790184e-08
2.7129052e-08
1.6478406e-08
5.5440155e-05
0.00016913221
7.720257e-05
9.1198679e-07
6.5144587e-09
0.0015582583
0.00018827905
0.036120912
0.05565216
0.046138688
0.0029342672
0.00037883349
0.002829273
0.0027504695
0.0062773344
0.0028378349
4.3900882e-09
3.9659386e-09
2.9144532e-09
2.5426946e-09
0.00081194695
0.00088256681
0.0013890123
0.00078716661
5.564371e-09
0.0056109354
0.0022262498
1.2317138e-09
1.2082731e-09
1.2082731e-09
0.018159682
0.022393886
0.0021906839
8.113135e-05
2.7982222e-09
2.9734451e-09
0.01196155
0.0099230656
1.2094156e-08
1.177545e-08
0.00236513
0.0021540899
1
1
1
1
1
1
1
1
1
0.84764533
0.45429614
0.0025414584
4.2074143e-09
4.1817127e-09
4.561988e-09
4.4795068e-09
5.3664813e-09
3.4270097e-07
8.9292344e-09
8.1178691e-09
7.040574e-09
6.1374612e-09
0.0029501561
0.0032631895
0.0032924924
0.0031311833
1.7134156e-06
2.0040497e-08
2.1129971e-07
1.9038805e-08
1.8184563e-08
1.7565839e-08
1.6517039e-08
0.0006234304
0.0011487918
0.0008008201
1.9022765e-05
7.3348473e-09
7.0739565e-09
0.027448203
0.078496142
0.078169248
0.078496139
0.024730459
0.00038362731
0.0048446952
0.0089418124
0.0089418124
0.00046040006
4.7586054e-09
5.0341421e-07
3.2435439e-09
2.9087409e-09
3.232543e-09
3.3293512e-09
3.3381749e-05
2.4621647e-08
0.0016556466
0.0024361999
0.0016070193
4.6135728e-05
1.4634275e-09
1.2223946e-09
1.1568377e-09
0.0046630056
0.0013313208
3.4753959e-09
0.0050956504
0.011899332
0.0079116423
1.2148771e-08
1.2116409e-08
0.0023354182
0.0046995905
0.0046864004
1
1
1
1
1
1
1
0.89377272
0.51044249
0.0080366501
1.2743228e-08
1.2660916e-08
1.7279912e-06
4.495122e-05
6.0657145e-09
5.3816647e-09
6.2842022e-09
1.0463061e-05
0.00019609312
0.0032217631
0.0020838904
7.2252165e-09
6.8555546e-09
6.9246822e-09
0.00078958915
0.00026196294
8.106423e-05
9.5325448e-05
2.1262946e-07
0.00029998731
9.1877099e-05
0.00010567259
1.1545372e-05
1.0744985e-08
0.00058970768
0.00089139961
0.00056391377
7.1944146e-09
7.1098222e-09
0.032468384
0.012568058
2.4835748e-09
0.0016262321
0.023709643
0.0072685678
5.3282608e-09
0.0028838119
0.00034505398
0.01715817
0.0015361692
2.5706977e-08
6.4415569e-05
0.00061698155
0.00099277487
0.00024654812
4.460104e-08
0.0010034147
0.00085331708
0.00040469988
9.5574042e-06
3.925999e-07
1.8610364e-09
1.2213472e-09
1.1568345e-09
0.0054103326
0.0035229367
3.7501908e-09
0.0030501136
0.011962958
0.0068590403
0.00013248654
0.001149096
0.0010754449
9.6565397e-10
8.6145018e-10
1
1
1
1
1
1
0.73726726
0.10717438
1.7938875e-08
1.7172862e-08
2.3595774e-05
9.256047e-06
8.5693907e-05
0.00040658419
0.00027236123
0.00051427797
0.00048056634
5.1433718e-07
0.0036627901
0.0053780688
0.0053777062
0.00011180339
7.1659799e-09
0.00016786001
1.0830536e-07
1.0833384e-07
2.7275645e-06
2.2002329e-07
0.00041042525
0.00067877569
0.00028743764
0.00010659664
0.00017771419
1.0135385e-05
2.8775241e-09
2.8945045e-09
0.0017885573
0.002892397
0.0030214196
0.012276414
2.7888211e-09
2.4436686e-09
2.1855438e-09
0.0029866688
0.00053945602
5.0352337e-09
4.6905786e-09
0.0085426548
0.039962584
0.017245764
0.00094524439
0.00029476807
0.0015184128
0.0015403957
0.00077598489
4.4426521e-08
0.00017207973
0.00033945156
0.00024179429
1.4191129e-05
2.0660177e-09
1.8229519e-09
1.4342168e-09
1.1568346e-09
0.003862677
0.0063105149
0.0020536774
1.7625637e-08
0.0025217797
0.00058813486
0.00051679931
8.9363096e-10
7.2638696e-10
9.0454943e-10
3.1716718e-09
1
1
1
1
0.96882494
0.47611728
2.3771904e-08
2.1528065e-08
0.00019666582
0.00013485875
0.00013681212
0.00013671429
1.879342e-08
1.266662e-08
0.00061588587
0.013502544
0.0034880832
0.003743553
0.0036635258
0.0015247414
6.8185323e-05
0.00020794916
0.0002905482
0.0010640752
0.00026306777
0.00046194307
3.6447556e-05
2.1922856e-07
9.73989e-05
4.1436728e-09
4.8758544e-09
0.010858074
0.00060393235
2.2791491e-09
2.2793054e-09
3.1338011e-09
4.8512217e-05
0.0010750687
2.4621821e-09
2.3853124e-09
2.838636e-09
3.0436697e-09
2.5491893e-09
2.8999476e-09
0.0012067301
0.0014288974
4.4242556e-09
0.036890883
0.039962584
0.034270193
0.002182944
1.693304e-09
1.4204183e-09
8.1162304e-05
4.4453548e-08
4.432277e-08
1.8356509e-06
1.3557034e-06
4.0282301e-07
1.2121644e-05
1.9743409e-06
1.8474168e-09
1.541996e-09
1.2902316e-09
0.000146011
5.7268256e-07
5.6657762e-07
5.6058255e-07
1.0845021e-09
0.00021474863
0.001343831
0.00019036834
9.1185277e-10
1.0922433e-07
1.0912422e-07
1
1
1
0.95541605
0.26453776
2.8237618e-08
2.6645833e-08
0.00063420266
0.00083919232
0.00083631166
9.0786288e-05
1.0465739e-08
9.8088258e-09
1.1773522e-08
0.0032990491
0.013502543
0.00051181084
0.00075104986
2.3781368e-08
2.3778785e-08
2.4858338e-08
2.5024695e-08
2.6129325e-08
0.00063548561
0.0037879943
0.0038420092
1.2120693e-05
0.0016959225
4.1436775e-09
4.1436735e-09
0.0097043935
0.018535087
0.0042297208
2.2790152e-09
0.00017546297
2.3041643e-05
4.8915197e-05
2.6116976e-09
2.1281457e-09
1.9265016e-09
0.044664248
0.091129953
0.013312634
1.0046652e-06
0.0085000051
0.0084516714
0.00084396215
2.5306729e-06
0.018112321
0.039962582
0.0027824118
1.9916743e-09
2.6252044e-09
2.6185664e-09
0.001099912
0.0016570659
0.0020857519
0.0021531124
0.0014571344
7.6118402e-05
1.2446163e-08
0.011500628
0.0050428179
5.7575702e-06
1.3434298e-09
6.7212317e-05
1.6374931e-05
8.8504528e-10
8.8543861e-10
0.00089306462
0.00040101251
9.4115945e-10
3.9575471e-06
3.5723946e-06
3.6760204e-08
1
1
0.98757766
0.24822447
3.3856548e-08
3.2293714e-08
0.0021593985
0.0037422117
0.00084021266
5.1316902e-08
2.2185358e-05
1.4589955e-05
1.1098894e-08
0.00065800504
0.0064524195
0.0038382736
4.1021465e-09
5.6310401e-09
4.2623934e-06
2.4130344e-08
0.0020185038
2.9622298e-05
2.6226126e-08
0.00070313799
3.6190064e-09
0.00280857
0.0024820626
0.00066189267
4.8546728e-09
4.2321264e-09
0.015794706
0.011450948
0.0053098096
2.2689672e-09
2.2689674e-09
2.2689629e-09
2.2705797e-09
2.2689593e-09
2.3962006e-09
1.9265013e-09
0.11265638
0.11267068
0.11267068
0.0012135157
0.0024902054
9.0356963e-09
0.0010530862
6.6667691e-05
1.0821849e-09
0.024916344
0.032320911
0.0054501489
3.090918e-09
2.6249977e-09
0.0061760754
0.0071262241
0.0071682735
0.0071851581
0.0021924358
1.4736264e-05
0.010718796
0.015430002
0.009040347
1.2230282e-09
1.1661849e-09
6.730793e-10
6.7306367e-10
6.7306371e-10
0.0019136832
0.0028346763
0.00036177178
6.228706e-10
4.4831689e-05
3.6878032e-08
0.002677132
1
1
0.31514993
3.4373373e-08
3.1860392e-08
0.00059042702
0.0032162092
4.8358211e-05
4.8595367e-07
1.6989869e-05
5.1367364e-09
5.0979525e-05
3.9795323e-05
0.00044521931
3.0271583e-09
3.0271568e-09
3.1521723e-09
0.0016527565
5.3597176e-05
0.0028153517
0.0028144214
0.00043978754
0.0026640819
0.004335066
3.5961621e-09
7.3342163e-07
0.0038517509
0.00020408605
4.3316339e-05
0.00026894694
2.0115552e-09
2.00265e-09
0.0026039756
2.929765e-09
2.7404557e-09
2.2882138e-09
0.00092248424
0.00092560461
0.0033273481
9.5729481e-05
0.054709967
0.031170054
0.011050265
0.0063742421
2.2304474e-08
7.0748277e-07
0.0001187878
1.4889634e-09
1.0816475e-09
0.026776264
0.033406993
0.031973303
6.0947865e-05
0.00032552953
1.2986847e-09
1.2538375e-09
1.2558924e-09
1.253837e-09
0.00071099482
0.00045537457
0.022329862
0.00264224
9.9013761e-10
8.8210258e-10
6.7306655e-10
6.7306368e-10
6.7306368e-10
0.0020220879
0.0054363046
0.0054363046
0.0010831475
4.0717618e-10
2.3435364e-10
0.0023087463
0.012608452
1
0.63993636
0.023311243
0.00029256689
9.872125e-07
8.3527374e-08
8.317451e-08
8.3342582e-08
5.7365226e-06
4.5514636e-05
5.1467466e-09
6.1550097e-06
6.2884009e-06
0.00063944301
3.0271652e-09
3.0271556e-09
0.0082638447
6.5308137e-09
6.530814e-09
0.00031108285
4.760376e-09
4.8945118e-09
0.00066505166
0.0033446552
3.5961621e-09
3.6513813e-09
0.0018123145
0.0031880438
0.0012405789
0.0029849703
5.5871576e-05
2.5145028e-09
0.00037952018
0.00047702091
0.00022857075
7.201078e-06
4.6066922e-05
3.0695385e-09
0.0079955739
3.6609955e-09
3.704973e-09
3.8816541e-09
3.9628032e-09
0.00044722373
2.7282932e-05
2.0563297e-06
2.1564418e-09
0.00027476991
1.1171442e-09
0.023342109
7.5590804e-10
6.9591907e-10
3.2092144e-05
1.994714e-09
1.6626449e-09
1.5698529e-09
2.3124445e-05
1.2551262e-09
0.0045832638
0.022883356
0.01061532
1.3588041e-08
7.9586882e-06
0.00020558755
0.00017209963
1.7403762e-05
7.3336255e-10
0.00019396467
0.0037935227
0.0037362472
0.00066189458
5.6224886e-10
3.9228869e-10
0.011178395
0.0084112579
0.97196616
0.081116983
2.3234968e-08
2.4596732e-08
0.00051309021
0.00013010074
8.6171727e-08
4.240341e-07
5.2087708e-09
5.2067454e-09
5.7697005e-09
5.1220731e-09
0.00030453826
0.00063945976
3.1506899e-09
3.0271545e-09
0.013414912
6.5308172e-09
6.5345528e-09
6.1821829e-09
5.2021514e-09
5.673625e-09
5.3622601e-09
4.6231435e-09
3.5961724e-09
0.00030377817
0.0038538525
0.00054245494
1.7264845e-07
8.1639297e-05
1.8274294e-05
1.7757988e-09
0.013974025
0.0070618005
0.0009034519
2.6892732e-09
2.7275341e-09
2.7278854e-09
2.7282507e-09
0.025574311
0.0040861692
0.024806442
0.0044376217
2.810957e-09
2.0719796e-06
1.0688427e-09
0.013573829
0.012623238
1.5935408e-09
0.0060416089
5.4103077e-05
7.4652166e-10
4.8146946e-10
0.00064400922
0.016519304
0.013498925
0.0054410999
1.298502e-09
9.8446729e-10
0.0082236748
0.0022372531
1.2557353e-05
6.4749398e-10
0.00073339068
0.00081633355
0.00043058468
9.4189421e-10
1.1070391e-09
1.1077863e-09
8.7924292e-10
6.5744923e-10
0.0035939411
0.010394711
0.00086526972
5.6284698e-10
0.32478564
1.4414862e-08
1.9909306e-08
3.8812506e-05
3.6960766e-06
0.0005337132
0.00024790478
9.3432145e-09
9.3214414e-09
1.8093119e-08
6.9594689e-09
6.3598775e-09
2.4268976e-05
0.0002660559
4.785625e-07
3.0271537e-09
0.013414715
9.7681995e-09
6.5707944e-09
5.532214e-09
2.3451543e-05
0.0024591075
5.9809936e-09
9.9576634e-05
3.6112551e-09
0.0019927375
0.0038538521
0.00012849243
4.702676e-05
1.1393117e-05
1.8640885e-09
1.7685919e-09
0.012527893
2.3972046e-09
2.2740759e-09
2.2740712e-09
0.00078910589
0.00079027795
2.9272585e-09
0.020361757
0.0092841203
0.05137865
0.011914297
2.4539973e-09
1.808772e-05
1.3456114e-09
0.00139241
1.1349362e-08
3.2462662e-06
7.4318842e-10
1.0022128e-09
1.4541974e-06
4.8566998e-10
0.015602785
0.021035195
0.020962831
0.0044504328
1.566429e-09
3.7145941e-09
1.1380428e-09
9.2504727e-10
3.9690519e-07
7.0987232e-10
4.4848295e-10
2.2645138e-05
1.815261e-05
4.3806605e-06
1.1726565e-09
1.0523999e-05
5.3299023e-07
6.5435389e-10
0.020788165
0.021371586
0.0084523985
7.1497372e-10
0.10292106
1.0325299e-08
6.9019422e-05
0.00015238693
3.4124533e-05
7.9066639e-05
1.2067417e-05
8.5691797e-07
9.9915265e-09
2.2971583e-08
9.2990122e-09
3.2611061e-05
5.8725171e-09
5.3559055e-09
4.0818334e-09
3.0267981e-09
0.0014549083
8.1689059e-05
0.0025403781
5.8254623e-09
0.0003389547
0.0084147546
5.5488156e-09
0.0010052698
4.2230841e-09
1.3547446e-07
0.0038538516
0.00084100703
0.00053372692
0.00051471474
2.5787672e-09
2.2052809e-09
2.9549794e-09
3.0287145e-09
8.3239318e-09
2.9580452e-09
0.00012314417
3.277597e-05
4.5800277e-06
1.4908523e-09
9.5673398e-10
0.051370123
0.013478253
2.4481199e-09
2.1220954e-09
0.00091783428
0.0038250115
0.0013353942
1.9353322e-05
4.680316e-10
0.0003404408
0.014116629
0.0022762755
1.6432347e-09
1.5115453e-09
1.5068845e-09
1.5068845e-09
1.36314e-06
1.0952747e-08
3.7734656e-09
7.3520997e-10
1.979829e-07
5.2049879e-07
6.2907898e-10
6.3593649e-10
7.9977835e-10
3.9986863e-08
2.2956063e-07
2.0463895e-07
4.4885674e-10
0.0014323118
0.014479949
0.01355673
0.0013431743
9.0308656e-10
1.8241972e-09
4.4192499e-09
2.0224177e-09
2.0224461e-09
2.0230951e-09
3.9031109e-09
3.9077367e-09
3.9913903e-09
4.0182227e-08
6.0803181e-07
0.00050426076
0.00020028517
4.5821219e-09
4.0540606e-09
4.1468741e-09
3.0267855e-09
0.001001425
0.0050271731
0.0050069879
0.0026992997
0.0010862281
0.0084147749
0.0075757352
0.0077452447
0.00023619296
0.00081511035
0.0020582164
2.8928383e-05
1.8957496e-09
1.6161492e-05
0.0042821794
0.00013671051
3.4455648e-09
0.001733988
9.249417e-09
0.002153841
1.7826006e-09
1.181314e-09
1.1426929e-09
1.257402e-09
9.567341e-10
0.03567021
0.012399255
2.2144759e-09
1.9348904e-09
0.010132127
0.010810605
0.0041112654
7.3011169e-10
4.090567e-10
0.0054558893
0.014193887
0.0033197136
0.0025353389
0.00017675754
1.7412865e-09
1.5120633e-09
1.2438775e-09
1.0173772e-09
8.1835498e-10
8.1798684e-10
8.2090349e-10
1.0659691e-05
1.6269703e-05
3.5071232e-06
1.0380181e-09
3.2546447e-08
3.0758586e-09
4.4841297e-10
0.00029698196
0.00038023129
5.7926109e-11
9.9961011e-13
9.996269e-13
3.6288693e-05
4.7261908e-09
4.0929947e-06
2.0622049e-09
4.1064823e-09
1.0046204e-08
1.2474613e-08
1.5301145e-08
1.6714561e-08
1.7721915e-08
1.4286402e-05
0.00053770683
0.00012014779
4.3102701e-05
3.3607963e-09
4.1053475e-09
3.0267621e-09
0.0051087628
0.0051012043
2.6779099e-08
2.6694077e-08
0.00085742672
0.0084147751
0.0084147749
0.0084147747
0.0069682968
0.0027929689
1.4881562e-05
1.9627007e-08
7.8079825e-07
2.5588101e-09
0.0060945607
0.0059878953
1.7709931e-05
0.0027140114
0.00029992013
0.0024126077
0.0014824706
0.00017596866
1.4809772e-09
1.1486146e-09
1.3750647e-09
1.5224996e-09
0.010275402
0.0011537422
2.3007704e-09
2.4693871e-09
6.427101e-07
0.0035802205
0.00035861658
6.8468709e-10
0.00054938534
9.8408016e-09
0.0013270123
0.011014729
0.00877399
0.0022742495
0.0038862393
0.0030390929
0.0016102327
0.00070656888
1.0331571e-09
3.8625524e-08
1.022031e-09
0.00011176371
0.00019391386
0.00012581192
1.4511025e-08
1.437799e-08
4.4796964e-10
0.00072760043
0.00030590761
2.8371555e-10
1.5557347e-10
1.3533801e-10
8.4527975e-13
4.1684425e-06
0.00012742489
2.0690596e-09
6.567423e-09
1.0349299e-08
1.0361161e-08
1.2526586e-08
1.4481101e-08
1.5849973e-08
5.0753034e-05
0.00052245444
2.6512499e-05
6.0697391e-07
3.360538e-09
4.9850889e-09
3.0267833e-09
0.0023016628
7.9557449e-09
1.1156743e-07
2.5141222e-08
2.6240554e-08
0.0052314517
0.0084147748
0.0078801222
2.98941e-09
2.9648831e-09
7.4346082e-05
1.9731001e-06
5.5893458e-06
2.5778727e-09
0.0011468698
0.0029561767
0.00063812609
0.001146905
0.00089395403
7.9957248e-10
0.0022314085
8.7067533e-09
1.3246879e-09
1.0179549e-09
0.044827515
0.0082739326
0.024967877
0.013054965
0.0047269992
0.0034812958
0.0043511617
0.010959324
0.0078195456
0.00017855746
9.946915e-09
9.838311e-09
0.021095932
0.0067364469
0.0071769346
0.0071701906
0.0071603755
0.0071135112
0.0061153179
0.00024002329
1.1821329e-09
4.5484389e-07
2.4692566e-08
8.1823513e-10
9.6541759e-05
0.0025035093
0.0012221584
7.4262643e-10
6.1522314e-10
5.8070832e-10
5.8414547e-10
4.8383374e-07
2.1706798e-07
7.4202504e-10
1.244646e-10
0.00010765346
0.00012661772
4.9931845e-09
8.8980434e-09
2.6248179e-08
1.2941682e-06
2.249174e-05
2.1372609e-05
9.2450375e-06
5.4749982e-09
5.474699e-09
3.0420046e-05
1.1028742e-07
2.8670036e-05
4.3225087e-08
3.8714719e-09
4.9309831e-09
1.762153e-05
6.2314371e-09
0.0056197882
0.00032375911
1.3630507e-07
9.0434906e-05
1.6323204e-07
7.6958562e-07
3.1268892e-09
2.3982497e-09
1.5821247e-09
4.50645e-06
8.0777625e-05
1.5793831e-09
1.0908838e-09
1.9917087e-06
9.1462748e-10
7.5600098e-10
7.4441537e-10
1.0865669e-06
0.0055322269
0.0058150592
1.0343097e-09
0.072165302
0.024306428
0.0093144423
0.0054873021
0.011279121
0.011238136
0.011201898
0.0090159209
0.0028513553
0.004195095
0.00010309475
9.8864442e-09
0.013533103
1.1144399e-09
7.916829e-10
6.2533599e-10
5.9661888e-10
5.9661889e-10
5.9662672e-10
0.00038014547
0.00012051618
1.474778e-09
1.2625822e-09
1.0373888e-09
1.1628252e-09
0.0002319574
0.0012216823
0.00089721935
8.0083152e-10
5.8287405e-10
2.4655631e-06
4.5493138e-07
5.1467224e-07
8.321806e-10
3.5802084e-05
0.00010549995
4.115105e-09
5.9654468e-09
6.46831e-09
8.5574281e-09
2.0167038e-05
3.3796694e-05
3.3700497e-05
3.3676059e-05
5.4760218e-09
5.4747235e-09
3.2126586e-05
2.1212488e-08
6.8154113e-05
1.8674768e-08
1.6017931e-06
4.9418064e-09
6.0378503e-05
6.2409876e-09
0.0032554195
0.0084032272
2.5644428e-05
0.001550644
4.1522835e-05
8.0263023e-07
0.0035634918
1.5236357e-09
1.9850949e-09
2.0219071e-09
0.013268311
0.00060768732
1.3238049e-09
1.3224745e-09
0.00047440831
8.6775912e-06
1.0442841e-09
7.331583e-10
8.522289e-10
0.066135812
0.095081615
0.0052801537
5.9276808e-10
7.5026284e-10
0.0021873806
8.5163175e-06
3.9449723e-10
3.9123572e-10
3.9123647e-10
3.9123775e-10
5.2120705e-05
7.0709739e-07
4.0973245e-06
5.5863913e-08
0.011464521
0.0060007064
0.00035506966
7.7490822e-10
9.5167346e-10
1.5428881e-07
1.0662993e-05
3.9327838e-09
0.0010859799
0.0076736779
0.0075999612
0.00044667433
4.1869169e-09
0.00059631887
0.00024758929
9.4778133e-05
0.000110448
1.8207601e-05
1.3125083e-10
7.83549e-12
0.00041972753
0.00018426461
5.9399626e-09
5.8798924e-09
8.7873373e-09
6.4472295e-09
6.4473275e-09
7.2486073e-09
5.4770158e-09
5.4770049e-09
5.4770993e-09
5.9609003e-09
5.4768902e-09
8.3820089e-05
5.6132661e-05
1.5130376e-05
0.00017657704
1.4804323e-05
9.261251e-06
6.307266e-09
6.281169e-09
1.0773618e-06
0.0084032262
8.1517194e-05
0.0031529982
0.0007977126
0.004853951
0.0049545214
1.6790417e-09
6.4415098e-05
3.4208984e-05
0.0017209057
6.6346455e-05
9.5486542e-10
0.0085494625
0.0016738708
1.2121061e-09
8.6892132e-10
4.3359159e-10
0.01864045
2.038719e-08
0.041682284
0.0018662209
5.367626e-10
0.0040171279
0.021662865
0.0097034989
4.6642389e-05
6.0184674e-10
2.0227647e-08
1.0540612e-08
5.8261767e-10
3.9150975e-10
5.9884923e-10
0.010975389
0.017067299
0.015727973
0.00067362638
9.3339199e-10
1.094097e-09
1.4705629e-05
4.1906239e-09
3.938054e-09
0.0020061563
0.010411153
0.010554046
0.0080375347
0.00082583594
3.7439609e-09
3.6051472e-09
8.0437959e-05
0.00026119086
9.0554284e-06
1.1970706e-10
7.8349249e-12
0.00098982466
8.6021177e-06
1.6515442e-06
5.7862743e-06
0.00024833124
5.4966398e-05
5.9856792e-05
5.2991698e-05
6.6873693e-09
6.7661134e-09
8.3670898e-09
6.7856968e-09
5.6905068e-09
0.00012306872
0.00030686919
1.7758084e-05
0.00028287733
3.8998176e-05
8.1325713e-09
7.072102e-09
7.0657568e-09
2.0619978e-06
0.0084032252
6.3313973e-06
0.0028226506
9.2980939e-07
0.0074730787
0.0013037742
0.003395899
0.00029076965
0.00021744023
6.2095335e-06
9.3185844e-10
9.1207635e-10
0.0070415612
1.4895524e-09
1.5539742e-09
0.019974279
0.00047302566
0.0051835748
0.00022855931
6.4115823e-10
3.255958e-10
3.2559071e-10
0.011659148
0.025511095
0.017428449
1.4790324e-07
2.3268806e-08
2.8114804e-08
1.1718625e-08
6.6240751e-09
3.9149712e-10
0.0020247952
0.015569101
0.0011319053
5.7919509e-10
5.6159793e-10
1.2328755e-05
3.249998e-06
1.4711194e-05
4.2717088e-09
0.00061722407
7.5591018e-11
1.3544154e-11
0.0032027493
0.0088403085
0.0031811207
3.5365143e-09
3.4657447e-09
0.00130412
0.00030949606
9.6090532e-10
8.2453726e-10
1.4240922e-10
8.1363001e-12
0.002515619
7.6639536e-06
0.00017235092
0.00027990301
0.00026570028
1.1582677e-06
7.3795261e-06
8.4723525e-06
9.2390921e-07
8.5220711e-09
7.6269234e-09
5.7503918e-07
0.00010248166
0.00018980909
4.1755429e-05
0.00028287782
2.9977854e-05
8.1422737e-09
0.00015983671
0.0001958523
2.8699908e-05
0.0030593612
4.2224117e-07
1.2858907e-09
0.005933691
0.0048289351
3.7695318e-09
0.00038451644
2.4354955e-09
2.2054442e-09
6.6871191e-05
6.2971051e-07
1.3653668e-07
1.1111684e-09
1.126322e-09
0.0085691381
0.030425567
0.0068115779
3.4299785e-09
0.00052003299
4.1079688e-06
9.5933585e-09
3.2559285e-10
0.0068319356
0.0068520981
0.0031939504
0.00017695142
1.2703698e-09
1.0692845e-09
8.5369087e-10
4.9634141e-10
5.17101e-10
0.0074769539
0.015569101
0.002860347
7.5572185e-10
6.0389293e-10
2.4798142e-05
1.7914823e-05
1.388627e-06
0.00013220091
0.00013938519
6.0349991e-06
1.6678072e-10
1.3547802e-11
0.0075347614
0.0057743889
0.0043669071
0.003381367
0.00286846
1.1639967e-06
1.0710709e-09
1.4070346e-09
8.2519362e-11
8.1362781e-12
0.0070907357
1.3871378e-08
0.0001792567
0.0001795945
0.0001646262
3.1971014e-09
2.7337437e-09
2.0023554e-09
2.7947209e-06
2.6691278e-06
3.9306916e-06
1.2329899e-06
0.00025402155
1.8204857e-07
7.4617979e-05
0.0001123122
4.6381567e-05
0.00030592575
0.00034266692
0.00034117432
1.3237392e-06
3.6624337e-09
3.1119109e-09
1.2858907e-09
0.0064738926
4.0105815e-09
3.721972e-09
3.139008e-09
2.7895958e-09
2.5748991e-09
2.7629668e-09
1.2166805e-07
6.7312216e-10
6.1386911e-10
1.7131289e-06
0.027952038
0.027004023
0.0033594922
3.1385597e-09
0.0034277741
5.6929273e-05
5.8091303e-10
3.2559733e-10
0.00084339325
1.3933445e-09
1.2499414e-09
1.4875159e-09
1.5459028e-09
0.0088158252
0.030962653
0.016373652
0.0021850229
9.940365e-10
0.0049001075
4.4360482e-10
6.677998e-10
1.2093057e-06
3.849235e-10
3.4410489e-10
3.4422977e-10
0.00050434045
0.00054092754
3.6372789e-05
1.3935286e-10
1.3547931e-11
0.0010268318
0.0063474388
0.0020554862
0.0037919566
0.00081247498
1.4397846e-09
1.2379453e-09
2.7053036e-09
5.3188044e-10
8.1363997e-12
0.0039634075
1.3200261e-08
3.2385621e-09
3.1808036e-09
3.1369608e-09
1.6679073e-09
1.6670262e-09
1.9123292e-09
1.0604582e-06
7.3727058e-05
0.00014900377
1.3147379e-06
1.7377791e-07
0.0002725579
0.0002845018
4.4375748e-06
8.4456375e-05
2.139471e-06
5.6007305e-05
2.2814567e-09
2.3895505e-09
8.9567609e-09
3.1354236e-09
1.2860646e-09
0.00051106855
3.6312479e-06
0.0022384838
0.00026130258
7.9776302e-05
0.00071142233
2.7526931e-05
1.3263651e-09
1.1558169e-09
6.0977474e-10
0.0018256029
2.8807047e-09
2.8823811e-09
0.00038961797
2.723018e-09
0.0034277099
0.00049545294
8.1066054e-10
5.651326e-10
0.0016618529
0.00066860981
3.8398695e-07
0.0069468272
0.012785312
0.032113866
0.032113866
0.032113866
0.031835093
4.6406607e-05
4.1405803e-10
2.3546446e-10
1.9043202e-06
3.0688653e-06
8.5749997e-07
5.7344559e-10
4.7391789e-08
3.4488096e-10
3.3065939e-10
3.1733354e-10
3.1701431e-10
8.9552097e-11
1.35628e-11
0.0062989628
0.00057938739
0.00042733882
3.0706238e-09
4.6054986e-08
1.1064473e-07
1.8446202e-08
6.5131127e-09
1.0528264e-09
4.7934271e-10
1.5364219e-08
4.0712119e-06
1.5626219e-05
3.1920453e-09
2.8753566e-06
2.0692067e-05
9.8812875e-10
9.8760694e-10
9.8440413e-10
0.00014868938
1.7612961e-07
1.751119e-07
2.2533822e-07
0.00028450166
1.5011679e-05
5.2678195e-05
2.3960185e-06
2.304447e-09
2.2713902e-09
1.811017e-09
1.8136028e-09
2.1857507e-09
1.5510889e-09
1.1609307e-09
1.5009801e-06
0.0031557835
0.0031516444
0.0013852028
0.0032686002
0.00012548017