/*--------------------------------*- C++ -*----------------------------------*\
| =========                 |                                                 |
| \\      /  F ield         | OpenFOAM: The Open Source CFD Toolbox           |
|  \\    /   O peration     | Version:  2.3.0                                 |
|   \\  /    A nd           | Web:      www.OpenFOAM.org                      |
|    \\/     M anipulation  |                                                 |
\*---------------------------------------------------------------------------*/
FoamFile
{
    version     2.0;
    format      ascii;
    class       volScalarField;
    location    "1.4e-05";
    object      k;
}
// * * * * * * * * * * * * * * * * * * * * * * * * * * * * * * * * * * * * * //

dimensions      [0 2 -2 0 0 0 0];

internalField   nonuniform List<scalar> 
7500
(
1.0038262e-05
1.0204321e-05
1.0267046e-05
1.040414e-05
1.0457819e-05
1.0571089e-05
1.0632589e-05
1.071941e-05
1.0811833e-05
1.0866383e-05
1.0895452e-05
1.0906096e-05
1.0909559e-05
1.0909059e-05
1.0904986e-05
1.0902522e-05
1.0902122e-05
1.0903636e-05
1.0905751e-05
1.090614e-05
1.0908211e-05
1.0914798e-05
1.0927038e-05
1.0937817e-05
1.0941312e-05
1.0939164e-05
1.0929895e-05
1.0913046e-05
1.090255e-05
1.0876939e-05
1.087445e-05
1.0897476e-05
1.0950705e-05
1.0977208e-05
1.0979893e-05
1.1000001e-05
1.1042661e-05
1.1099994e-05
1.1152525e-05
1.1211782e-05
1.1313825e-05
1.135938e-05
1.1421383e-05
1.1478574e-05
1.1592309e-05
1.1747686e-05
1.1862099e-05
1.194969e-05
1.1984467e-05
1.2054943e-05
1.2089832e-05
1.2112186e-05
1.2135952e-05
1.218026e-05
1.2241856e-05
1.2294041e-05
1.2349867e-05
1.2378944e-05
1.2431593e-05
1.2461946e-05
1.2534151e-05
1.2591009e-05
1.268387e-05
1.2802684e-05
1.2933922e-05
1.3025804e-05
1.316543e-05
1.3294896e-05
1.3409945e-05
1.3506824e-05
1.3670863e-05
1.3801366e-05
1.412947e-05
1.4344789e-05
1.4820895e-05
1.0110247e-05
1.0576959e-05
1.0750897e-05
1.1131723e-05
1.1250662e-05
1.1525521e-05
1.160141e-05
1.1740992e-05
1.1749541e-05
1.174311e-05
1.1738845e-05
1.1726702e-05
1.1708558e-05
1.16833e-05
1.1663361e-05
1.1644829e-05
1.1614472e-05
1.1592009e-05
1.1552734e-05
1.1533914e-05
1.1494211e-05
1.1469301e-05
1.1434489e-05
1.1410222e-05
1.1377708e-05
1.1353072e-05
1.1324283e-05
1.1298977e-05
1.1263637e-05
1.1249403e-05
1.1245702e-05
1.1251634e-05
1.1253826e-05
1.1260805e-05
1.128626e-05
1.1308344e-05
1.1349075e-05
1.1377462e-05
1.1438551e-05
1.1511843e-05
1.1618399e-05
1.1686898e-05
1.1824656e-05
1.1931646e-05
1.2162854e-05
1.2293191e-05
1.2516859e-05
1.2700157e-05
1.2899444e-05
1.307098e-05
1.3261889e-05
1.3503181e-05
1.364657e-05
1.3874102e-05
1.4107765e-05
1.4406627e-05
1.4632241e-05
1.4889586e-05
1.532198e-05
1.5645853e-05
1.6247904e-05
1.6713536e-05
1.7468983e-05
1.8492611e-05
1.9232927e-05
2.0278206e-05
2.0872723e-05
2.1421865e-05
2.2325435e-05
2.2878202e-05
2.389373e-05
2.503087e-05
2.7151946e-05
2.8672444e-05
3.2055699e-05
1.0156159e-05
1.0819448e-05
1.1077468e-05
1.1627839e-05
1.1808051e-05
1.2188325e-05
1.2294397e-05
1.250724e-05
1.2532643e-05
1.2540102e-05
1.2540491e-05
1.2531876e-05
1.2528079e-05
1.2529258e-05
1.2510994e-05
1.2492365e-05
1.2438702e-05
1.2407472e-05
1.2337001e-05
1.230641e-05
1.2239787e-05
1.2203888e-05
1.2148868e-05
1.2138678e-05
1.2105498e-05
1.2110701e-05
1.2089167e-05
1.2080255e-05
1.2065085e-05
1.2075897e-05
1.2086408e-05
1.2115305e-05
1.2150709e-05
1.2210195e-05
1.2336896e-05
1.2446094e-05
1.2616622e-05
1.2817923e-05
1.3034262e-05
1.3415097e-05
1.3858906e-05
1.4267992e-05
1.5073266e-05
1.5725434e-05
1.711604e-05
1.8003237e-05
1.9629698e-05
2.0904954e-05
2.3028259e-05
2.4382976e-05
2.6471267e-05
2.9159697e-05
3.0989524e-05
3.4020967e-05
3.6947267e-05
4.151099e-05
4.4479861e-05
4.8506037e-05
5.4087258e-05
5.8255999e-05
6.5639192e-05
7.1941988e-05
8.1268176e-05
9.3944524e-05
0.00010281686
0.00011539525
0.00012092282
0.00012706419
0.00013638754
0.00014188656
0.00015148288
0.00016548511
0.00018797521
0.00020460364
0.00023974594
1.0153424e-05
1.0839455e-05
1.1186297e-05
1.1765347e-05
1.2068481e-05
1.2459189e-05
1.270691e-05
1.3095752e-05
1.3173389e-05
1.3223416e-05
1.3289498e-05
1.3355489e-05
1.3512628e-05
1.3811374e-05
1.3915377e-05
1.4110429e-05
1.4130236e-05
1.4162923e-05
1.4151521e-05
1.4161096e-05
1.4166799e-05
1.4200406e-05
1.4253843e-05
1.4379714e-05
1.455086e-05
1.4895522e-05
1.5102725e-05
1.5450301e-05
1.5729926e-05
1.6110933e-05
1.649851e-05
1.721307e-05
1.7804014e-05
1.8670771e-05
2.0258147e-05
2.1538795e-05
2.3560611e-05
2.663592e-05
2.9179444e-05
3.4177297e-05
3.8865143e-05
4.3630919e-05
5.2870416e-05
5.994108e-05
7.4134919e-05
8.3693279e-05
0.00010129261
0.00011691127
0.00014076341
0.00015619239
0.00018013619
0.00021204624
0.00023432654
0.00027174765
0.00030435509
0.0003595461
0.00039306761
0.00044105057
0.00050189635
0.00054721237
0.00062259548
0.00070234066
0.00079320326
0.00092905041
0.001022177
0.0011367532
0.0011879317
0.0012428794
0.0013228025
0.0013727187
0.0014566856
0.0015897418
0.0017992863
0.0019501783
0.0022579312
1.0030033e-05
1.0285738e-05
1.061659e-05
1.1344298e-05
1.1893681e-05
1.3036697e-05
1.3614596e-05
1.4677564e-05
1.5011977e-05
1.5460848e-05
1.580104e-05
1.6167378e-05
1.6780645e-05
1.7917751e-05
1.8758302e-05
2.0302195e-05
2.077191e-05
2.1573475e-05
2.1880991e-05
2.2238368e-05
2.2572527e-05
2.3002929e-05
2.3636449e-05
2.4863158e-05
2.6028663e-05
2.8529427e-05
3.0368853e-05
3.3706289e-05
3.7547153e-05
4.1310649e-05
4.6953441e-05
5.6924981e-05
6.4277638e-05
7.5403731e-05
9.5699443e-05
0.00011176541
0.00013837084
0.00017754813
0.00020832542
0.00027022495
0.00032497699
0.00038034341
0.00048406794
0.00055536202
0.00069676944
0.00079719018
0.00097971982
0.0011429989
0.0013705494
0.0015177968
0.0017540741
0.0020540433
0.0022651243
0.0026207345
0.0029210557
0.0034144827
0.0037059287
0.0041171902
0.0046541912
0.0050264938
0.0056109684
0.0063441199
0.0070432875
0.0081050982
0.0088686038
0.0096430216
0.010023607
0.010382053
0.010902907
0.011258632
0.011847524
0.01275997
0.014294087
0.015320858
0.017366773
1.1209888e-05
1.7374753e-05
2.138364e-05
3.1569095e-05
3.5404104e-05
4.705039e-05
4.8424061e-05
5.3128994e-05
5.2121718e-05
5.3001147e-05
5.187631e-05
5.1741509e-05
5.2197299e-05
5.3510305e-05
5.6030957e-05
6.1693537e-05
6.2500906e-05
6.573353e-05
6.6454536e-05
6.7727316e-05
6.8996258e-05
7.0885649e-05
7.4246189e-05
8.1685244e-05
8.9749057e-05
0.00010846021
0.00012469794
0.00015503948
0.00019845548
0.00023652817
0.00029856271
0.00040686604
0.00048761292
0.00061197134
0.0008207131
0.00098103523
0.001260979
0.0016414618
0.0019319231
0.0025266313
0.0030194901
0.0035316998
0.0044423495
0.0050216331
0.0061723697
0.007014383
0.0084328573
0.0097509907
0.011498043
0.012565578
0.014287857
0.016392075
0.017924811
0.020457733
0.022609204
0.025830612
0.027705169
0.030324304
0.033901775
0.036183531
0.039514687
0.044304281
0.04825949
0.054409074
0.05900123
0.062984069
0.065196112
0.06691528
0.069337917
0.071099272
0.073946342
0.078550974
0.086934483
0.092076938
0.10210446
1.469857e-05
4.4201946e-05
6.4111978e-05
0.0001158234
0.00013498276
0.00018296674
0.00018433359
0.00019027163
0.00018588453
0.00017606613
0.00016822288
0.00016277359
0.00016194272
0.00016395787
0.00016960538
0.00018221469
0.00018919918
0.00020368984
0.0002087943
0.0002154385
0.0002302172
0.00025165099
0.00028831286
0.00036944421
0.00044161506
0.00060989198
0.0007617517
0.0010448797
0.0014649284
0.0018026654
0.0023691571
0.0033412757
0.004038786
0.005123726
0.0068036382
0.0080417131
0.010262918
0.013125192
0.015217719
0.019510783
0.022929874
0.026521152
0.032579513
0.036224824
0.043048165
0.049268195
0.056357649
0.064808814
0.075286747
0.081181348
0.090770801
0.10111695
0.11065611
0.12262435
0.13525434
0.15070484
0.15973858
0.17211616
0.18969941
0.20016288
0.21434321
0.23619934
0.25266596
0.27965034
0.29967767
0.31629051
0.32556706
0.33181105
0.33993317
0.34617662
0.35583806
0.37323791
0.4050046
0.42556332
0.46235236
1.3973097e-05
3.8942929e-05
5.5887107e-05
0.00010064283
0.00012164711
0.00017053309
0.00017782487
0.00018835124
0.00018659762
0.00017756253
0.0001743705
0.00017169242
0.00017418997
0.00018378121
0.00019385985
0.00021080592
0.00024149929
0.00027631192
0.00035816985
0.00045161224
0.00065699095
0.00088615863
0.0012898381
0.002096178
0.0027023433
0.0041170212
0.0053777739
0.0076359457
0.010884173
0.013335223
0.017516749
0.024348908
0.029026097
0.036157424
0.04696979
0.054352208
0.067424271
0.084469199
0.096009522
0.11902439
0.13758066
0.15621932
0.18722915
0.20480012
0.2344288
0.27094512
0.29585956
0.33525091
0.38347088
0.40882855
0.45178489
0.48591496
0.54309692
0.57599486
0.63585463
0.6936412
0.72953479
0.77035954
0.83723666
0.87473679
0.92417626
0.99696084
1.0508399
1.1440867
1.2187302
1.2763929
1.3063756
1.3241387
1.3437787
1.3603227
1.3843123
1.4304516
1.5268307
1.591975
1.7081606
1.0926449e-05
1.5532025e-05
1.7115296e-05
2.0829318e-05
2.314732e-05
2.7793387e-05
3.1481132e-05
3.6747245e-05
4.1681613e-05
4.604368e-05
5.2707257e-05
6.4569594e-05
8.3613275e-05
0.00012399877
0.00018117658
0.00030713908
0.00048707471
0.00079630193
0.0014906667
0.0022899466
0.0040400211
0.0058331627
0.0091776535
0.014920921
0.019090814
0.028809949
0.037316207
0.05136754
0.070919083
0.085062412
0.11043418
0.14585901
0.17078163
0.20615945
0.26142886
0.29640865
0.3543209
0.43482697
0.48456854
0.57835901
0.6578892
0.73284791
0.85639422
0.92425491
1.0242282
1.1814287
1.267914
1.3954256
1.5832401
1.6778487
1.8337402
1.9479881
2.1574897
2.2749091
2.4904839
2.6752571
2.8182037
2.9317088
3.1318436
3.2535893
3.4134915
3.6300916
3.7985031
4.0964151
4.3603723
4.548408
4.6309515
4.6700198
4.7075626
4.7355172
4.7803318
4.8852326
5.1280894
5.3594643
5.8351558
1.0087168e-05
1.079811e-05
1.2882916e-05
1.5285473e-05
1.9202111e-05
2.6159975e-05
2.9437863e-05
3.6413066e-05
4.2569837e-05
5.6682127e-05
8.5807531e-05
0.00015037547
0.00027377298
0.00055419875
0.0010237248
0.0020619501
0.0035837256
0.0060052953
0.011672729
0.017262364
0.02958578
0.041039243
0.062867931
0.095286449
0.11817064
0.1706138
0.21721506
0.28503627
0.37410038
0.44000977
0.56559071
0.69756998
0.81483361
0.94754663
1.1653648
1.313599
1.5153337
1.8248036
2.0034346
2.3211876
2.5959814
2.8637992
3.2657455
3.494193
3.7960918
4.3716141
4.6674386
5.1027427
5.7719869
6.1133978
6.6708709
7.065724
7.777948
8.2127599
9.0391222
9.5959739
10.198491
10.603404
11.226806
11.64718
12.158568
12.923991
13.649206
14.648366
15.584908
16.034245
16.14297
16.098823
16.201295
16.353142
16.632979
17.351135
18.268779
19.631075
22.811435
1.1078106e-05
1.5885045e-05
1.8952196e-05
2.6596763e-05
3.0867618e-05
4.3409028e-05
5.1774256e-05
7.412345e-05
0.00012271062
0.00023753608
0.00048648338
0.0010310563
0.0020454843
0.0044157144
0.0079006631
0.01556429
0.02562143
0.041260741
0.076761541
0.10738266
0.17594602
0.2348166
0.34556643
0.49071607
0.59154429
0.81992741
1.0088869
1.2926067
1.5843025
1.8757146
2.3148584
2.7956462
3.1281881
3.7129313
4.3122903
4.985637
5.5688557
6.6501646
7.2477104
8.2953654
9.1040102
10.092902
11.238368
12.177699
13.238793
15.521513
16.697403
18.636634
21.10036
22.36908
24.428301
25.896451
28.922624
30.792904
34.788154
36.681512
39.652392
41.475634
43.594086
45.37311
47.800585
51.571135
55.580599
57.627565
60.985872
60.45661
61.010421
61.905766
63.274602
66.573288
72.233926
85.304245
90.483304
101.39941
118.9698
1.1301647e-05
1.9314537e-05
2.1125637e-05
2.7893982e-05
3.4237677e-05
5.4347818e-05
0.00010873757
0.00025896946
0.00063530413
0.0015086788
0.0034315362
0.0076198501
0.014776723
0.031890171
0.053474964
0.10168112
0.15401296
0.24618829
0.4130064
0.54886722
0.8599371
1.1052038
1.535509
2.0745275
2.4469129
3.2650627
3.8892049
4.9072992
5.6859921
6.9841974
8.0053682
9.7587326
10.927217
13.173658
14.722444
17.817236
19.685721
23.182482
25.273882
29.047146
31.768561
35.31294
39.529089
46.484241
51.256214
61.831797
66.588521
77.291885
86.374539
91.607612
99.861368
107.44851
134.85277
137.74567
166.34197
164.74054
181.44101
187.38276
195.77735
209.75869
226.15211
247.83313
249.1636
251.30857
262.42389
254.09998
261.64189
281.85243
299.95646
362.09775
403.03743
384.76415
383.6726
426.58859
395.13314
1.0213203e-05
1.2078073e-05
1.4586337e-05
2.4813569e-05
6.3041634e-05
0.0002017096
0.00061677525
0.0017266506
0.0044585286
0.010506622
0.023807307
0.051808219
0.093811539
0.19407746
0.30258614
0.54251132
0.76978731
1.2294493
1.7640027
2.3341127
3.4759955
4.3741601
5.6593483
7.5253475
8.7832389
11.337043
13.387804
16.640168
19.069551
23.484681
26.880676
33.569724
38.145335
47.670037
53.563193
67.628496
73.838132
86.915515
94.038265
112.54074
123.03423
142.36343
181.54333
223.14086
241.94666
301.56111
303.52741
375.47751
413.81331
443.57622
457.3733
574.19412
526.26385
500.37869
557.85378
508.50454
605.96603
556.91217
655.51366
717.09413
637.19253
528.65777
404.99376
370.38
349.40976
404.96817
395.2721
427.09557
652.36688
653.47432
553.2847
402.14574
366.06899
287.10691
139.9467
1.158966e-05
1.3744876e-05
2.5442643e-05
9.6836641e-05
0.00039356534
0.0014148091
0.0043207061
0.011577447
0.028972986
0.064908305
0.14690811
0.28851065
0.50149789
0.96406791
1.4090331
2.3553029
3.1845143
4.9307137
6.3511189
9.0193711
11.630022
15.366264
18.799125
25.202131
29.628324
37.500886
45.941949
55.203721
65.416402
83.296022
98.564049
132.20279
149.58219
202.98594
222.76325
309.90068
307.84894
361.38665
402.74615
510.67167
577.27112
703.25773
781.21366
755.82519
849.19846
973.07131
882.46153
1033.0684
985.85476
768.58406
862.54431
849.88161
442.26883
552.80509
318.00497
439.62601
457.66425
351.76213
440.17194
372.79909
169.83942
112.07496
68.713662
49.314069
51.320175
63.934293
58.197595
101.01889
168.56935
107.83299
61.352757
42.404217
45.118309
31.953636
20.444777
1.0496122e-05
2.1938714e-05
0.0001114737
0.00063871941
0.0026815983
0.009243499
0.026759597
0.067553668
0.16478209
0.3442809
0.77424969
1.3014267
2.3197571
3.8429896
5.4950035
8.5300445
11.343333
16.912545
21.308186
30.244942
37.495955
52.499408
63.068236
86.37128
104.15189
134.47499
169.37314
202.51824
269.55839
357.0054
439.11341
615.48595
670.10386
826.94141
786.07563
999.88017
922.18723
987.68556
1049.2473
1199.6493
1376.4444
1199.0386
768.18304
647.76416
730.30129
472.4509
571.74147
421.30564
206.80745
131.88301
172.45497
85.024507
42.25956
48.89493
37.64758
48.857363
54.641451
51.677538
68.886239
38.363053
31.413852
22.379935
20.43585
19.439146
19.2269
18.384896
22.074266
48.793086
56.630716
29.678813
21.642659
20.328593
18.011247
17.595005
16.769646
9.3706965e-06
8.2511399e-05
0.00072927665
0.0041937156
0.016599448
0.053096964
0.14421217
0.34009743
0.82500053
1.5491362
3.2641651
5.1148688
9.091207
12.648594
19.701408
26.803191
38.185876
54.624129
69.272565
102.95702
129.43335
191.75277
227.78357
348.17994
425.58602
556.70343
726.43494
856.90175
1154.6833
1196.9444
1401.0118
1470.4242
1366.3667
1017.3253
854.9124
819.97935
540.06771
543.49285
462.47408
411.95222
255.68565
145.11167
77.4464
78.372832
76.358355
44.804618
82.147375
45.921089
22.928061
23.051442
22.56735
22.38864
19.507027
20.533316
19.247003
28.285784
36.923196
31.590142
34.537314
25.752227
24.345143
21.092499
21.133045
21.499783
17.295523
17.915203
16.612904
32.075122
40.470655
24.061623
19.651767
17.578528
17.857666
21.647405
23.116459
8.5768898e-06
0.00053396228
0.0046596895
0.024459884
0.089628637
0.26499837
0.67731504
1.4816668
3.4310595
5.9354141
11.727362
17.611238
29.393035
40.661609
63.785352
85.124799
134.54868
180.70325
242.93583
408.88746
513.19431
811.96524
913.94391
1318.961
1311.7508
1395.4411
1495.1941
1442.2169
1398.8766
1293.2891
940.40071
474.94438
295.44551
112.06326
100.89105
96.299016
60.58921
63.900054
68.61622
67.701511
51.203443
29.330942
19.094368
27.796276
23.004003
16.490137
21.400522
23.400284
15.293247
14.148415
14.958125
14.713825
22.397338
19.636085
21.258916
19.126981
18.374945
32.617032
30.383013
23.079612
19.253921
20.742414
20.467788
24.217382
22.31688
21.77117
21.39087
27.686651
31.827127
22.173732
18.21129
17.946725
18.174655
21.559126
24.54931
7.5498167e-06
0.0033755216
0.026909398
0.12676859
0.42302818
1.1529841
2.7891575
5.5874254
12.155857
20.11753
38.102474
56.534484
90.710381
131.36539
212.27372
297.14972
530.11137
683.45119
1021.4762
1391.0832
1502.8626
1785.5483
1571.7688
1531.4161
960.10102
578.25617
483.51687
370.63591
385.4296
313.14819
100.00017
44.789164
23.206764
15.764109
18.427712
30.366884
23.683355
27.840227
28.115855
27.864171
21.77523
17.544704
14.133064
14.784618
14.475548
15.998856
19.785801
18.987685
14.535036
14.089446
13.460586
13.199421
20.700128
18.033338
21.290976
20.321166
20.313461
23.193661
23.041282
21.7105
22.531595
30.034408
25.236838
24.930856
25.252586
22.041133
20.548616
23.373979
23.528296
20.04961
17.898658
17.439617
16.063641
18.026218
23.766619
2.3171158e-05
0.019035885
0.13670887
0.57658237
1.7445496
4.4125591
9.7838814
18.715196
39.02875
64.152569
120.85027
181.63607
298.32527
477.81976
817.29143
1208.925
1561.0294
1649.3601
1949.6454
1546.4615
1353.3176
666.85929
409.94629
243.8596
97.410692
70.966576
82.652516
45.767265
60.199902
45.838657
22.505387
15.055842
11.383456
14.215022
38.163862
29.693834
19.079681
22.86313
36.053692
29.216923
17.837392
17.07993
16.644462
16.636905
13.872563
12.901212
17.411702
19.555333
14.998124
12.43884
12.685328
12.267559
15.791185
16.047765
17.270297
20.877579
23.100616
22.02865
20.206358
18.611705
24.48846
33.747076
30.484767
22.352336
22.316517
18.946381
18.650483
19.556673
22.879908
19.170522
17.882903
20.666812
18.272411
20.181815
25.339043
0.00041785457
0.098759704
0.61798654
2.3059467
6.3140042
15.055712
30.2351
59.103542
122.46006
206.8059
405.80181
651.62016
1168.0541
1552.2005
1986.797
1897.7445
1459.4785
1062.4239
720.87131
264.29197
233.87254
59.005757
45.253234
27.891817
26.079825
24.023726
25.554284
15.065776
44.689969
70.657226
7.1915674
7.301796
9.5904515
32.02379
31.701666
30.163149
18.86045
21.285173
35.966932
29.656353
18.963909
17.597618
18.352318
16.471993
16.935321
20.374001
17.350045
19.095563
13.692414
12.912503
11.479078
12.158345
15.724616
16.440124
17.070755
27.226322
37.847936
30.879339
23.291945
22.820201
24.549903
37.109818
32.056999
22.175094
19.783264
17.035716
16.44947
19.928415
20.714541
17.629755
19.72128
32.14529
31.065457
30.491974
29.944033
0.0064723402
0.46281629
2.4818802
8.1412365
20.343272
45.46587
91.187867
189.66594
402.92378
739.95565
1576.4252
1733.596
1988.0605
1748.7474
1231.5152
476.63162
247.25399
193.02419
75.648229
36.735459
35.416386
13.539518
12.882799
16.960342
26.254948
16.448966
15.201808
16.420307
27.905322
30.59385
6.1411114
7.7355227
13.932459
91.087963
33.072907
18.044075
14.011197
17.132973
16.734046
17.015558
20.587487
18.455322
19.071048
19.45952
31.29324
24.150443
26.569923
14.52286
11.033058
10.720022
11.771803
15.236043
17.632939
22.055822
19.595192
21.471021
33.120572
28.436077
28.324961
27.776379
25.177506
26.705865
25.361316
22.74117
18.227739
17.704351
15.538113
16.730569
19.333834
17.537089
25.127674
36.577573
39.649968
38.676783
34.93486
0.0535752
1.9481614
8.8234001
25.662427
60.021278
133.57097
279.93306
666.02677
1533.4355
1927.3149
2153.8408
1456.4518
647.93809
407.4973
177.0274
46.607039
42.008283
49.925709
19.597501
10.455721
9.9810109
8.1785361
15.40602
20.664558
13.960206
16.384003
14.791803
18.980886
25.606308
12.170156
5.6352734
5.2085397
9.5218953
116.2579
36.42116
18.952429
18.139054
23.15412
18.808896
19.490245
18.83503
18.435848
16.581434
18.19719
33.639305
23.33927
22.086012
11.495564
10.739496
10.232979
19.059045
18.623162
19.081036
18.926965
18.085652
17.973235
19.292592
17.537752
17.640603
20.252581
24.188032
25.223757
23.918238
22.041721
18.138079
17.921417
17.447832
16.080354
16.836133
16.986936
27.488343
34.860511
43.298748
43.220391
38.036372
0.34161515
7.3660538
28.023256
74.122969
169.80983
410.64006
964.48402
1863.2324
2349.5979
1844.9517
578.00611
234.48527
96.927479
81.175326
15.451719
5.268239
11.11865
17.219918
11.069302
5.7114298
5.1096524
5.5395184
19.834406
13.31194
10.176872
15.589886
13.204421
23.915177
59.458748
13.630945
5.421291
4.3740385
14.865555
65.672543
43.85558
19.250612
19.146754
29.658191
18.700249
23.756444
22.545567
18.191679
17.246114
18.232303
18.394384
12.821969
14.135373
11.565144
11.145115
11.753953
27.540001
20.295151
18.903356
26.159697
22.876823
23.260039
28.527102
25.259604
29.607128
26.155683
26.699384
25.992524
22.70993
21.563087
20.207785
22.189461
21.162853
17.33944
16.516762
18.106726
26.899408
40.769643
40.023157
45.841468
44.501647
1.8370026
25.103251
81.000372
203.86258
491.96138
1442.8665
1924.0631
1915.3495
898.85599
419.00787
64.913035
28.579638
15.973327
12.253471
2.7650366
2.5252783
5.6290701
6.8549128
6.4017505
10.048192
4.0283135
3.7722306
16.020789
7.4931851
9.519356
12.006468
11.264141
23.934703
79.300782
13.491044
4.0566334
4.1277066
16.330097
26.75346
54.514227
19.641137
16.843937
22.042989
24.042094
30.312446
25.329556
17.925799
20.62694
22.374519
18.695222
11.05805
15.521101
12.19917
11.342201
17.860711
21.21198
17.833162
18.901483
44.899906
28.377879
30.543356
27.430051
20.307556
20.529257
23.686776
21.095283
25.292092
23.092626
23.668341
26.552487
26.131889
25.162182
24.325111
18.368669
20.327314
29.913563
33.748027
35.377773
46.426402
49.503108
8.631615
78.105249
218.0509
567.90161
1590.1708
2249.8756
1438.5673
614.64107
175.64225
55.904604
4.7071984
4.3515653
4.5932241
3.1354508
2.208649
2.7228688
4.1168996
4.1492752
6.3243238
7.6962412
3.0347309
3.7880856
10.937441
8.1405352
9.4106709
7.9899116
10.572824
25.577684
17.660907
10.112793
4.0500225
4.1215094
14.237502
30.18063
22.058198
10.424213
15.738206
16.49242
33.402816
26.919686
23.535544
16.093463
31.59518
28.4842
19.13329
11.267224
14.509802
10.676139
11.11294
14.854101
18.186519
16.813523
17.994826
22.958198
20.475142
30.778784
35.932174
25.805162
20.785426
20.388123
20.219817
20.681508
24.946724
24.802141
27.338635
30.047748
27.709396
22.445227
18.199316
19.237206
29.660789
28.163237
35.733712
49.175466
50.684662
36.347086
224.56631
570.03629
1667.9514
2258.0891
1266.9282
593.60786
230.45819
29.922093
4.4961138
1.4869075
2.1676081
2.9274455
2.4456644
2.670765
5.7158124
3.5024781
4.1767989
6.696231
4.8039733
3.2559658
4.2432713
8.1466938
8.5054543
9.8312721
7.166658
10.308996
18.425951
9.9130035
5.9420433
4.2845302
4.3568179
10.389522
8.9139669
13.833515
9.6219337
23.562437
22.943474
79.916519
31.653674
27.546518
16.672999
34.528772
34.463507
20.614879
12.036332
10.974538
10.25197
11.969354
12.291865
18.471696
17.348803
17.335136
17.799569
22.105145
43.948404
68.254681
57.766915
46.561504
23.683281
24.257555
19.713946
19.808906
19.582413
20.742956
26.180546
25.641513
25.600378
20.741106
23.145138
24.283883
26.505018
37.639935
42.181094
45.956561
140.52473
595.68817
1566.4926
2142.661
1118.7957
493.29663
230.73805
45.295788
16.192469
1.2080829
1.1528913
1.7113825
2.2542515
1.9948816
3.2327882
11.299726
3.4255265
4.7682341
4.6761419
4.2345905
4.2767575
4.1010774
6.6600967
8.0868972
10.160828
6.3575698
8.0833336
12.438161
10.069932
6.0206045
4.6341808
4.3267545
8.7550958
6.0391461
7.3647567
8.3151051
24.906075
27.261737
125.49346
38.009471
37.044054
18.032261
23.080672
37.106996
19.400139
11.482787
14.021555
11.59104
14.56593
15.068367
18.843187
18.470829
20.301206
25.374952
37.272546
51.309086
55.132269
87.146576
67.81574
44.60305
32.53158
19.485605
18.130989
18.451526
22.363947
38.712187
37.959855
32.851318
23.302981
24.049565
23.471315
26.208531
30.142747
28.363943
29.605822
474.08229
1598.6051
2514.1061
1295.6206
443.68322
151.2764
57.313348
11.633938
7.7815574
1.1000492
1.0835312
1.5148221
1.9182236
1.8090119
3.3498012
12.259782
3.7948277
7.5764374
4.6573048
5.2838812
3.4194547
4.8100039
6.7252128
8.5565357
10.537552
8.1173295
7.2766898
9.6633042
11.591608
9.4313883
4.6147452
4.1581807
9.3808514
6.3223895
7.0904976
6.5079466
22.024392
35.909519
53.869065
63.337924
40.043187
17.641479
22.193385
29.667232
17.276536
11.643128
18.488245
11.993355
19.441467
21.900723
19.139527
19.929181
26.367611
63.735516
67.489759
34.502506
29.424603
69.303639
45.852685
44.169384
29.041827
18.949117
18.715502
17.830862
22.870338
24.534785
23.410097
27.495749
26.388173
24.313335
24.59199
27.164212
29.131021
27.841196
21.830746
1446.6842
3069.727
2122.6179
599.63607
136.74662
34.960458
12.621306
8.6284717
10.699385
1.2747106
1.0736254
1.3854096
1.6999536
1.7509196
2.7324654
8.5869073
4.5071275
9.7627181
2.9294781
5.1275244
3.1500401
5.2091343
7.6609722
9.9439234
11.677712
22.395332
7.4762799
16.500723
12.073388
7.1961923
4.5030676
4.1282154
9.0743662
5.191063
5.0504693
5.5394237
17.021139
54.864207
31.781079
61.201013
41.352406
14.241042
22.429858
27.029495
19.888384
12.1676
11.146562
10.108345
23.1235
30.139692
17.650059
27.250319
42.039484
59.800626
34.273574
27.389876
27.415263
37.007539
36.567332
35.304063
25.924429
19.123557
19.601121
17.705784
18.822179
24.179185
21.235257
26.848488
47.476711
46.422686
35.844863
27.927991
25.356734
25.926251
22.249073
4148.391
3186.0996
855.17646
132.63194
28.833781
8.5966839
3.8390102
2.7178636
5.917237
1.7018274
1.1040489
1.3390475
1.5279421
1.4722928
2.4613286
3.5269379
4.2763396
5.4700371
2.8439072
4.1546973
3.3794104
5.445152
8.2646957
7.9309212
12.905587
45.543498
8.3028915
20.397051
12.44984
6.7283749
4.6203586
4.1861059
7.8736752
5.1121065
4.8309743
5.0574206
30.363522
33.688381
24.240851
39.849307
22.932071
11.564503
21.970647
26.934748
19.987148
11.500829
10.795238
10.631624
23.447719
34.446014
16.96734
33.685565
37.340536
34.620818
27.442211
30.738418
27.689561
44.841732
37.86052
37.859528
28.18969
19.371661
17.999471
17.931222
17.358202
17.568956
18.216801
28.148862
62.40457
53.221368
34.460625
29.174278
28.223025
23.699713
21.997254
7830.2374
1499.2684
188.75785
18.577272
6.649129
3.3196733
2.0945599
1.8243929
2.7981365
2.2488059
1.2022301
1.3293057
1.4042274
1.3280114
2.3340322
2.0269636
3.8633089
4.4388252
2.9699038
3.4310675
3.5106646
6.1583469
9.0201653
6.8450727
13.400991
40.583765
7.775844
12.160658
11.208999
7.7013237
4.6349135
4.3092275
7.0460991
5.2167485
4.9512758
4.8427029
26.136529
86.00425
24.430648
39.554845
17.638865
11.061775
33.456136
31.176472
18.204059
11.650325
9.0231609
9.4818065
19.832213
22.688433
15.292486
32.545941
33.913562
58.994609
33.714352
28.769035
25.828413
46.392323
40.091986
34.422505
26.531521
19.215084
17.433152
18.391868
20.161398
27.9367
25.152108
28.157056
35.456131
33.044137
38.091276
31.957485
29.768515
22.940857
24.023586
1547.6161
226.45095
22.721354
2.837313
2.6957706
2.1390908
1.7591065
1.730189
1.8782896
2.4387604
1.2739247
1.2952872
1.2959477
1.2041026
1.8112466
1.8467953
3.7280314
8.6058049
3.1052607
2.9528877
3.4575016
6.5613038
10.717646
7.3047124
12.69237
21.561987
7.9773452
22.88564
10.758198
7.8948391
4.5734398
4.4488919
7.4187523
5.487889
5.3365472
5.2274384
9.6462162
31.844069
9.3528604
29.812041
14.271512
10.976738
39.596
35.205519
17.364673
11.860669
11.044148
12.167513
27.371085
26.092362
14.811142
23.138413
31.662422
28.434611
27.72317
32.493907
22.459008
61.006667
41.672683
37.153616
25.837779
19.163606
18.921447
22.015478
22.547185
27.503007
30.250667
29.159385
28.151894
27.760187
36.971029
30.245381
29.321134
20.291972
23.024663
106.77092
19.029941
2.3178976
1.1550368
1.807669
1.7293366
1.7322748
1.9522561
1.6696111
1.8809301
1.3615184
1.2921056
1.2322813
1.302639
1.7025419
1.8045509
3.7089595
10.707828
2.9927975
2.6983008
3.4208957
7.1968086
13.389765
8.293097
12.383659
21.346746
12.70212
13.237796
8.7226898
7.0219494
4.5488855
4.4474131
7.4981189
5.6952005
6.2246539
6.2294726
7.4178084
16.603564
7.0268035
13.740399
12.976168
11.391181
35.145334
22.650316
14.021581
12.307321
13.380699
14.674889
21.943132
24.109758
12.79548
23.113188
29.647608
24.083802
26.255267
26.469778
23.276321
38.98846
38.68387
33.827167
20.213327
20.341996
19.918588
22.418641
19.648186
19.829379
24.214979
30.852092
32.515204
27.858405
26.6163
36.324231
30.258938
17.049567
14.586009
4.0370821
1.2787677
0.57687873
0.95700277
1.5209523
1.5656435
1.8283114
2.1420365
1.6766126
1.6106367
1.4569591
1.543046
1.2339746
1.7690224
1.6995772
1.7289349
3.6844858
6.4844669
2.9657275
2.9624154
3.418967
8.1722439
10.695673
14.826843
11.472966
43.383548
15.706732
8.3109639
8.9092834
6.6371306
4.6581515
4.544773
6.7450839
5.9782044
7.0009539
7.3111087
8.5062732
9.0219879
6.2160664
8.5333076
12.229388
11.884491
13.807629
12.394819
15.535571
12.928081
19.229593
19.096935
13.374272
20.163713
10.366006
34.984209
34.041421
30.016333
24.308696
27.849904
24.460118
19.243237
28.670757
30.562614
24.300038
21.531941
19.433589
18.970631
16.82167
15.385283
19.068268
27.282395
24.65692
28.758429
23.78115
40.28935
24.732731
16.407124
19.505534
0.94544375
0.46473282
0.45120723
0.90379806
1.4025926
1.5126338
1.9112971
2.1449933
1.7294403
1.5810209
1.522672
1.7489246
1.2652306
1.4776803
1.6876375
1.9729083
3.6099625
5.7659174
3.3787585
4.4301559
3.5631043
8.4808931
7.7770548
16.445448
6.9361492
45.782933
26.780099
9.8905482
8.9230703
6.5046377
5.0184474
4.7353746
6.146378
6.6229528
8.1884003
6.8934575
7.021326
6.9120305
6.0532177
8.0012145
12.740225
10.703165
10.140469
10.985496
18.790868
13.57078
18.837126
17.675498
10.203369
16.694052
6.6213891
52.520599
30.712128
34.211804
39.201168
30.829142
21.200416
18.809816
16.715432
37.683267
29.394236
21.788323
19.871313
19.616599
18.646793
17.005998
19.019605
21.684995
32.31665
34.007095
14.434086
17.961195
14.841692
18.814881
18.288707
0.89051804
0.43768625
0.44600964
0.85785704
1.3641495
1.5309918
1.9075983
1.9460116
1.6684785
1.6273367
1.6918868
1.4704637
1.4301916
1.2746819
1.7578014
2.9563721
3.3919494
6.0698797
3.9003398
5.299183
3.4822579
8.6502729
17.842567
13.094104
5.7905291
10.124083
24.391872
9.5951464
6.3855951
5.0655134
5.370482
4.8018481
5.9223627
7.0880291
9.5550259
7.6504783
5.2950669
5.2373765
6.0055577
7.0551773
13.185306
11.676433
10.129953
14.99448
13.78743
12.50761
11.974634
11.820414
9.2995945
9.8839997
5.3646739
56.267578
26.196239
23.104064
33.183945
25.101187
15.942671
13.528496
12.436667
27.493386