/*--------------------------------*- C++ -*----------------------------------*\
| =========                 |                                                 |
| \\      /  F ield         | OpenFOAM: The Open Source CFD Toolbox           |
|  \\    /   O peration     | Version:  2.3.0                                 |
|   \\  /    A nd           | Web:      www.OpenFOAM.org                      |
|    \\/     M anipulation  |                                                 |
\*---------------------------------------------------------------------------*/
FoamFile
{
    version     2.0;
    format      ascii;
    class       volScalarField;
    location    "1.4e-05";
    object      nuSgs;
}
// * * * * * * * * * * * * * * * * * * * * * * * * * * * * * * * * * * * * * //

dimensions      [0 2 -1 0 0 0 0];

internalField   nonuniform List<scalar> 
7500
(
4.1486038e-10
4.2331445e-10
4.2961947e-10
4.3747103e-10
4.435571e-10
4.5089165e-10
4.5710756e-10
4.6384904e-10
4.7069699e-10
4.7670024e-10
4.8211358e-10
4.8707989e-10
4.9184122e-10
4.9646624e-10
5.0096138e-10
5.0544448e-10
5.0992725e-10
5.1440739e-10
5.1885482e-10
5.2321412e-10
5.2756661e-10
5.3198237e-10
5.3649181e-10
5.4092195e-10
5.4512695e-10
5.4914393e-10
5.5293234e-10
5.5647634e-10
5.6012949e-10
5.6333988e-10
5.6709605e-10
5.7147321e-10
5.7660576e-10
5.8099836e-10
5.8471736e-10
5.8885594e-10
5.9355912e-10
5.9862161e-10
6.0352018e-10
6.1469941e-10
6.2128645e-10
6.2629408e-10
6.3172361e-10
6.369893e-10
6.4379553e-10
6.5173195e-10
6.5850519e-10
6.645057e-10
6.6900402e-10
6.7446362e-10
6.7889225e-10
6.8292898e-10
6.8696416e-10
6.915414e-10
6.9657307e-10
7.0130092e-10
7.0609578e-10
7.10087e-10
7.1471474e-10
7.1866196e-10
7.2377696e-10
7.2841145e-10
7.3405e-10
7.4040261e-10
7.4707646e-10
7.5257519e-10
7.5941368e-10
7.6591848e-10
7.7196744e-10
7.7745296e-10
7.8482782e-10
7.911951e-10
8.0315459e-10
8.1182936e-10
8.2776003e-10
4.5797975e-10
4.7407183e-10
4.835888e-10
4.9776011e-10
5.0607013e-10
5.1788733e-10
5.252269e-10
5.3399391e-10
5.3975279e-10
5.4511371e-10
5.5046803e-10
5.5557944e-10
5.6048722e-10
5.6516015e-10
5.6989683e-10
5.7460476e-10
5.789554e-10
5.8343645e-10
5.8742598e-10
5.9186813e-10
5.9570713e-10
5.998609e-10
6.0368853e-10
6.0772767e-10
6.1148109e-10
6.153802e-10
6.1910175e-10
6.2285358e-10
6.262625e-10
6.3019443e-10
6.3436462e-10
6.3875366e-10
6.4298482e-10
6.4730114e-10
6.5210065e-10
6.5675728e-10
6.6191166e-10
6.6666307e-10
6.7233138e-10
6.8515777e-10
6.9255293e-10
6.9878457e-10
7.0705744e-10
7.1438289e-10
7.2539309e-10
7.3336104e-10
7.4407856e-10
7.5355962e-10
7.6347978e-10
7.7254308e-10
7.8214289e-10
7.9318594e-10
8.0131192e-10
8.1186728e-10
8.2255479e-10
8.3508543e-10
8.4543571e-10
8.5665065e-10
8.7280955e-10
8.8577626e-10
9.0646001e-10
9.2315232e-10
9.476026e-10
9.7883443e-10
1.0021098e-09
1.0328924e-09
1.0518241e-09
1.0694522e-09
1.0956659e-09
1.1130153e-09
1.1413296e-09
1.1720691e-09
1.224699e-09
1.2625329e-09
1.3390986e-09
5.0492028e-10
5.2742288e-10
5.3996651e-10
5.5960434e-10
5.7030012e-10
5.8582743e-10
5.9475468e-10
6.0625778e-10
6.1319479e-10
6.1963902e-10
6.2584872e-10
6.3176993e-10
6.3774775e-10
6.4378986e-10
6.4926645e-10
6.5466282e-10
6.5906098e-10
6.6397012e-10
6.677413e-10
6.7250415e-10
6.7619639e-10
6.8065002e-10
6.8448689e-10
6.8950965e-10
6.9380856e-10
6.9913999e-10
7.0363519e-10
7.0843029e-10
7.1297609e-10
7.1822779e-10
7.2341411e-10
7.2909726e-10
7.3492684e-10
7.4143935e-10
7.4995507e-10
7.5790472e-10
7.6768675e-10
7.7836845e-10
7.8946666e-10
8.1359405e-10
8.320262e-10
8.4931302e-10
8.7812594e-10
9.0214193e-10
9.4656403e-10
9.7623307e-10
1.0249923e-09
1.0634826e-09
1.1221096e-09
1.1606591e-09
1.2155238e-09
1.2821568e-09
1.3282811e-09
1.3984554e-09
1.4642646e-09
1.5592796e-09
1.6214351e-09
1.7007991e-09
1.8038574e-09
1.880128e-09
2.0041226e-09
2.1067989e-09
2.248254e-09
2.4268254e-09
2.5486927e-09
2.71036e-09
2.7848409e-09
2.8650817e-09
2.9789157e-09
3.0489724e-09
3.1611388e-09
3.3150294e-09
3.5446378e-09
3.7098788e-09
4.0283596e-09
5.5533754e-10
5.8070135e-10
5.9687367e-10
6.1919385e-10
6.3421038e-10
6.5153127e-10
6.6511528e-10
6.8239288e-10
6.9154202e-10
6.99927e-10
7.0869451e-10
7.1742001e-10
7.2856665e-10
7.4351988e-10
7.53212e-10
7.6534658e-10
7.726903e-10
7.8032589e-10
7.8667925e-10
7.935429e-10
8.0022933e-10
8.0764003e-10
8.1555998e-10
8.2551024e-10
8.3673002e-10
8.5290379e-10
8.6510677e-10
8.8129283e-10
8.9550043e-10
9.1254764e-10
9.2972262e-10
9.5596094e-10
9.7857689e-10
1.0085285e-09
1.0571213e-09
1.0967344e-09
1.1539804e-09
1.2342494e-09
1.2993369e-09
1.4284742e-09
1.5326583e-09
1.6337147e-09
1.8090567e-09
1.9374411e-09
2.1669677e-09
2.3153475e-09
2.561211e-09
2.7664743e-09
3.0517033e-09
3.2313496e-09
3.4879421e-09
3.8032741e-09
4.0177782e-09
4.3476128e-09
4.6228669e-09
5.0479195e-09
5.3020542e-09
5.6414664e-09
6.0444171e-09
6.3385181e-09
6.7895085e-09
7.2409986e-09
7.726273e-09
8.3948922e-09
8.8397714e-09
9.3574774e-09
9.6014028e-09
9.8567246e-09
1.0204954e-08
1.043197e-08
1.0782945e-08
1.1302224e-08
1.2063252e-08
1.2598907e-08
1.3598802e-08
5.9827909e-10
6.1363047e-10
6.3125406e-10
6.6055998e-10
6.8451966e-10
7.2512267e-10
7.495982e-10
7.8714169e-10
8.0491245e-10
8.2576542e-10
8.4372751e-10
8.6240221e-10
8.8764372e-10
9.2648023e-10
9.5734626e-10
1.0056375e-09
1.0268987e-09
1.0563124e-09
1.0735792e-09
1.092062e-09
1.1099663e-09
1.1302262e-09
1.1554487e-09
1.194969e-09
1.2327015e-09
1.3009719e-09
1.352889e-09
1.4363772e-09
1.5275882e-09
1.6143377e-09
1.7337427e-09
1.9227951e-09
2.0577198e-09
2.244257e-09
2.5456393e-09
2.7695484e-09
3.1019771e-09
3.5365867e-09
3.8552903e-09
4.4183381e-09
4.8751075e-09
5.3059075e-09
6.0213192e-09
6.4870464e-09
7.3076589e-09
7.8603983e-09
8.7619368e-09
9.5151149e-09
1.04746e-08
1.1080351e-08
1.1972516e-08
1.3020864e-08
1.374086e-08
1.4851563e-08
1.5753741e-08
1.7111586e-08
1.7908193e-08
1.8960115e-08
2.0247071e-08
2.1131729e-08
2.2420585e-08
2.3938831e-08
2.532551e-08
2.727516e-08
2.8641668e-08
2.9979539e-08
3.0679173e-08
3.133664e-08
3.2227558e-08
3.2863291e-08
3.3826804e-08
3.5222333e-08
3.7401167e-08
3.8844538e-08
4.1485616e-08
6.6849308e-10
8.4362085e-10
9.4841769e-10
1.1674643e-09
1.2522167e-09
1.4617202e-09
1.5011921e-09
1.5914413e-09
1.5949698e-09
1.6270687e-09
1.6280681e-09
1.6441427e-09
1.6694966e-09
1.7085741e-09
1.7668388e-09
1.8732123e-09
1.9046407e-09
1.9728163e-09
2.0030931e-09
2.0416942e-09
2.0802594e-09
2.1281762e-09
2.197954e-09
2.326148e-09
2.4597842e-09
2.7275186e-09
2.9494968e-09
3.3163622e-09
3.7829699e-09
4.1633467e-09
4.7147563e-09
5.5468855e-09
6.1190772e-09
6.9068917e-09
8.0579868e-09
8.8742766e-09
1.0133312e-08
1.1643074e-08
1.2718939e-08
1.4644698e-08
1.6116862e-08
1.754532e-08
1.9805411e-08
2.1191475e-08
2.364176e-08
2.5358197e-08
2.7972815e-08
3.0258988e-08
3.3050649e-08
3.4749989e-08
3.7264942e-08
4.0137101e-08
4.2201486e-08
4.5327365e-08
4.7903367e-08
5.1468726e-08
5.3576045e-08
5.6332871e-08
5.9857202e-08
6.2138738e-08
6.5245638e-08
6.9410356e-08
7.2775703e-08
7.7622777e-08
8.1190979e-08
8.4252348e-08
8.6086092e-08
8.7580365e-08
8.9519635e-08
9.1016786e-08
9.3190331e-08
9.6422811e-08
1.0182626e-07
1.0518832e-07
1.1117616e-07
7.9567327e-10
1.3998528e-09
1.7098852e-09
2.3302721e-09
2.5499879e-09
3.0085601e-09
3.0593928e-09
3.1482598e-09
3.1510053e-09
3.1046018e-09
3.0714999e-09
3.0573297e-09
3.0851647e-09
3.1399213e-09
3.2295167e-09
3.3844413e-09
3.4861597e-09
3.6557933e-09
3.7401121e-09
3.8382773e-09
4.0078915e-09
4.2319801e-09
4.5740421e-09
5.2275088e-09
5.7693177e-09
6.8429403e-09
7.7173799e-09
9.1196414e-09
1.0893572e-08
1.218918e-08
1.4093129e-08
1.6877192e-08
1.8708725e-08
2.1243637e-08
2.4675571e-08
2.7038105e-08
3.0781407e-08
3.5075488e-08
3.8051459e-08
4.3403851e-08
4.7395359e-08
5.1336453e-08
5.729914e-08
6.0838352e-08
6.6773367e-08
7.1914241e-08
7.7422711e-08
8.3565081e-08
9.0644021e-08
9.4718989e-08
1.0077868e-07
1.0701694e-07
1.1262431e-07
1.192604e-07
1.2598162e-07
1.3374563e-07
1.3847351e-07
1.4453744e-07
1.5257124e-07
1.5756677e-07
1.6391714e-07
1.729695e-07
1.7981616e-07
1.9013109e-07
1.9780087e-07
2.0420459e-07
2.0817586e-07
2.111592e-07
2.1472516e-07
2.1768282e-07
2.2169634e-07
2.2806076e-07
2.3860618e-07
2.4563875e-07
2.5711876e-07
7.9690919e-10
1.3509284e-09
1.6428258e-09
2.2372352e-09
2.4953238e-09
2.9964814e-09
3.1025176e-09
3.236654e-09
3.2647206e-09
3.2265613e-09
3.2386625e-09
3.2543665e-09
3.3186691e-09
3.4503808e-09
3.5861617e-09
3.7835961e-09
4.0964644e-09
4.4315109e-09
5.1016708e-09
5.7914062e-09
7.0604698e-09
8.2867427e-09
1.0101675e-08
1.3009566e-08
1.4920008e-08
1.8598128e-08
2.1462896e-08
2.582022e-08
3.1117259e-08
3.4762738e-08
4.0205676e-08
4.7828313e-08
5.2682164e-08
5.9310631e-08
6.8178811e-08
7.3960189e-08
8.3059822e-08
9.3728307e-08
1.0073115e-07
1.130465e-07
1.2248945e-07
1.3152783e-07
1.4508337e-07
1.5287197e-07
1.6476018e-07
1.7841217e-07
1.8776624e-07
2.0128213e-07
2.1676413e-07
2.2534557e-07
2.3848354e-07
2.4896855e-07
2.6493125e-07
2.7459525e-07
2.9034312e-07
3.0514712e-07
3.1487271e-07
3.2552959e-07
3.4139859e-07
3.5102082e-07
3.6290371e-07
3.7908507e-07
3.9139372e-07
4.1066511e-07
4.2617721e-07
4.3850295e-07
4.4598938e-07
4.5137149e-07
4.5706222e-07
4.6221506e-07
4.6861895e-07
4.7872654e-07
4.9700792e-07
5.0994362e-07
5.3073064e-07
7.1753422e-10
8.6952681e-10
9.2742471e-10
1.0391984e-09
1.1123662e-09
1.2372895e-09
1.3362881e-09
1.464661e-09
1.582072e-09
1.6859768e-09
1.8285269e-09
2.0510215e-09
2.3647084e-09
2.9169527e-09
3.5706921e-09
4.7070891e-09
6.0002832e-09
7.76444e-09
1.0749037e-08
1.3477617e-08
1.8106265e-08
2.2001049e-08
2.7901739e-08
3.596327e-08
4.1114336e-08
5.1038476e-08
5.8687832e-08
6.9557793e-08
8.2549786e-08
9.1299571e-08
1.0503915e-07
1.2187123e-07
1.3311508e-07
1.4761102e-07
1.677429e-07
1.8022045e-07
1.9878818e-07
2.2214033e-07
2.365203e-07
2.6058955e-07
2.8025213e-07
2.9822337e-07
3.2499956e-07
3.4033206e-07
3.6109153e-07
3.9082874e-07
4.0798492e-07
4.3124354e-07
4.6277207e-07
4.7989902e-07
5.0533353e-07
5.2455968e-07
5.5593781e-07
5.7483372e-07
6.0557706e-07
6.3188391e-07
6.5287198e-07
6.7027113e-07
6.9726841e-07
7.1524261e-07
7.3723556e-07
7.6500427e-07
7.8736016e-07
8.2261339e-07
8.5378236e-07
8.7714663e-07
8.9022694e-07
8.9911366e-07
9.0784119e-07
9.1562908e-07
9.2503213e-07
9.4022257e-07
9.6848936e-07
9.9535026e-07
1.044021e-06
6.9722862e-10
7.339403e-10
8.1532347e-10
9.0290903e-10
1.0285184e-09
1.2196802e-09
1.3141106e-09
1.483971e-09
1.628684e-09
1.9070993e-09
2.3804375e-09
3.1960218e-09
4.3725087e-09
6.3062738e-09
8.6862069e-09
1.2490309e-08
1.668004e-08
2.1867316e-08
3.0868736e-08
3.8001044e-08
5.0351289e-08
6.0007538e-08
7.5140393e-08
9.357183e-08
1.053841e-07
1.2803839e-07
1.4605453e-07
1.6911536e-07
1.958023e-07
2.1457303e-07
2.4578004e-07
2.7572347e-07
3.0097685e-07
3.2775824e-07
3.6700868e-07
3.9337579e-07
4.2648261e-07
4.7235405e-07
4.9946173e-07
5.4246124e-07
5.7877317e-07
6.1322394e-07
6.6050561e-07
6.8904035e-07
7.2422719e-07
7.8363354e-07
8.1633496e-07
8.6043918e-07
9.2240881e-07
9.5675023e-07
1.0071633e-06
1.0444654e-06
1.1041088e-06
1.1429963e-06
1.2079316e-06
1.2536072e-06
1.3016138e-06
1.3365778e-06
1.3848984e-06
1.4202994e-06
1.461008e-06
1.5164018e-06
1.5686916e-06
1.6357249e-06
1.6981033e-06
1.7333951e-06
1.7502171e-06
1.7586938e-06
1.7751195e-06
1.7942376e-06
1.8203654e-06
1.8702503e-06
1.9302842e-06
2.0125106e-06
2.1817824e-06
7.3496492e-10
8.9634668e-10
9.9674821e-10
1.2016468e-09
1.3169218e-09
1.5881436e-09
1.7631897e-09
2.1439701e-09
2.8024789e-09
3.9599782e-09
5.7538653e-09
8.5023667e-09
1.2152037e-08
1.8112866e-08
2.4572037e-08
3.4969329e-08
4.5481157e-08
5.8492831e-08
8.0837055e-08
9.6853059e-08
1.2555948e-07
1.4687447e-07
1.803769e-07
2.1755902e-07
2.4172319e-07
2.879342e-07
3.2309332e-07
3.6988224e-07
4.1409238e-07
4.5554964e-07
5.1158379e-07
5.6823469e-07
6.0743061e-07
6.686602e-07
7.280019e-07
7.9069062e-07
8.4398491e-07
9.3134898e-07
9.817065e-07
1.0602927e-06
1.1212287e-06
1.1915161e-06
1.2688287e-06
1.3327234e-06
1.401959e-06
1.5313716e-06
1.6021024e-06
1.7070746e-06
1.8317594e-06
1.9017567e-06
2.0037266e-06
2.0798278e-06
2.2156279e-06
2.304253e-06
2.4683363e-06
2.5541934e-06
2.6758689e-06
2.7573116e-06
2.8478835e-06
2.9267621e-06
3.0258385e-06
3.1654497e-06
3.3094756e-06
3.3934495e-06
3.5150649e-06
3.5236882e-06
3.5636855e-06
3.6136842e-06
3.6774999e-06
3.7967135e-06
3.980296e-06
4.3529591e-06
4.511345e-06
4.8054117e-06
5.2371054e-06
7.4344037e-10
9.9092148e-10
1.0561707e-09
1.236331e-09
1.3947857e-09
1.7887709e-09
2.5745465e-09
4.0413602e-09
6.4363159e-09
1.0081948e-08
1.5450813e-08
2.3388779e-08
3.3076658e-08
4.9332657e-08
6.4838698e-08
9.0722605e-08
1.1326544e-07
1.4523343e-07
1.9073018e-07
2.2288461e-07
2.8273889e-07
3.2477489e-07
3.8779535e-07
4.5652013e-07
5.0204755e-07
5.8712479e-07
6.4860495e-07
7.3731778e-07
8.0304651e-07
9.0037326e-07
9.7500393e-07
1.0886551e-06
1.1648088e-06
1.2929729e-06
1.3816383e-06
1.5361239e-06
1.6316177e-06
1.7889406e-06
1.886962e-06
2.0432878e-06
2.1580823e-06
2.2975748e-06
2.4543584e-06
2.6869146e-06
2.8480095e-06
3.1570989e-06
3.3063135e-06
3.5943673e-06
3.8336251e-06
3.982859e-06
4.1946175e-06
4.3884514e-06
4.9580675e-06
5.0529812e-06
5.5987557e-06
5.6173208e-06
5.9428175e-06
6.0875598e-06
6.271512e-06
6.5421907e-06
6.8453555e-06
7.2205258e-06
7.2943494e-06
7.3801528e-06
7.597029e-06
7.5298856e-06
7.695695e-06
8.0441102e-06
8.3566935e-06
9.24533e-06
9.8209334e-06
9.6608404e-06
9.7118733e-06
1.0308612e-05
9.9863956e-06
7.0522436e-10
7.8282415e-10
8.7770796e-10
1.1674401e-09
1.8968229e-09
3.4571433e-09
6.1572101e-09
1.0488696e-08
1.7153499e-08
2.6789909e-08
4.1013652e-08
6.1512392e-08
8.4128455e-08
1.2294766e-07
1.5593593e-07
2.1202667e-07
2.5639849e-07
3.2886143e-07
3.9968892e-07
4.6637912e-07
5.7718864e-07
6.5648224e-07
7.5693211e-07
8.8458302e-07
9.6830151e-07
1.1144232e-06
1.226545e-06
1.3846829e-06
1.5007237e-06
1.6857788e-06
1.8252692e-06
2.0639643e-06
2.2258474e-06
2.5169269e-06
2.6982547e-06
3.0658213e-06
3.2388193e-06
3.5521653e-06
3.7344813e-06
4.1286038e-06
4.3618419e-06
4.7402861e-06
5.4073555e-06
6.0550283e-06
6.3673975e-06
7.1781118e-06
7.270897e-06
8.1638442e-06
8.6510136e-06
9.0398312e-06
9.2634646e-06
1.0473231e-05
1.0116232e-05
9.9514293e-06
1.0599113e-05
1.0206696e-05
1.1236896e-05
1.0863176e-05
1.1883742e-05
1.2531635e-05
1.1908895e-05
1.0934522e-05
9.6465869e-06
9.2976161e-06
9.1007188e-06
9.872829e-06
9.8280088e-06
1.0292721e-05
1.2815287e-05
1.2920415e-05
1.197518e-05
1.0282796e-05
9.880513e-06
8.8118216e-06
6.1949653e-06
7.473727e-10
8.3178895e-10
1.1559442e-09
2.30235e-09
4.7363974e-09
9.1596417e-09
1.6319502e-08
2.7224132e-08
4.3872054e-08
6.6867908e-08
1.024014e-07
1.4602415e-07
1.9583496e-07
2.761074e-07
3.393245e-07
4.45836e-07
5.2667398e-07
6.6560937e-07
7.6703267e-07
9.2786537e-07
1.0692588e-06
1.246992e-06
1.3990393e-06
1.6427034e-06
1.8058199e-06
2.0593298e-06
2.3099405e-06
2.5655507e-06
2.8291244e-06
3.2333115e-06
3.5615427e-06
4.1760115e-06
4.4964005e-06
5.3010873e-06
5.619348e-06
6.7055553e-06
6.7605285e-06
7.4082727e-06
7.9085736e-06
9.0040728e-06
9.6778602e-06
1.0797052e-05
1.1500851e-05
1.143123e-05
1.224237e-05
1.3238982e-05
1.2734899e-05
1.3916265e-05
1.3728453e-05
1.2239546e-05
1.3090719e-05
1.3117615e-05
9.5515194e-06
1.0777566e-05
8.24916e-06
9.7869243e-06
1.0074984e-05
8.9108106e-06
1.0054997e-05
9.3334767e-06
6.3535796e-06
5.2048168e-06
4.1094539e-06
3.510101e-06
3.6100302e-06
4.0618878e-06
3.90634e-06
5.1872637e-06
6.7531972e-06
5.443062e-06
4.1371063e-06
3.4654669e-06
3.6014487e-06
3.0533115e-06
2.460251e-06
7.0575931e-10
1.0440859e-09
2.4068798e-09
5.8887379e-09
1.2326386e-08
2.3367495e-08
4.0577184e-08
6.5768359e-08
1.0473908e-07
1.5430861e-07
2.3576556e-07
3.1130712e-07
4.2313563e-07
5.5426573e-07
6.7428618e-07
8.5441728e-07
1.0017544e-06
1.2432522e-06
1.4179594e-06
1.7160466e-06
1.9403833e-06
2.3310392e-06
2.5932414e-06
3.0794932e-06
3.4306804e-06
3.9538293e-06
4.4995734e-06
4.9881262e-06
5.833044e-06
6.8026724e-06
7.6439223e-06
9.1672191e-06
9.6876276e-06
1.0897354e-05
1.0756594e-05
1.2280023e-05
1.1935567e-05
1.2499099e-05
1.3033874e-05
1.4098022e-05
1.5273538e-05
1.4415864e-05
1.1666921e-05
1.083103e-05
1.1624887e-05
9.4500234e-06
1.050541e-05
9.111996e-06
6.4497673e-06
5.2029185e-06
6.0093685e-06
4.2613708e-06
3.0337167e-06
3.2948055e-06
2.9187897e-06
3.3565088e-06
3.5828238e-06
3.5165014e-06
4.0971e-06
3.0851276e-06
2.8166961e-06
2.3984414e-06
2.3119298e-06
2.2743353e-06
2.2812241e-06
2.249582e-06
2.4856134e-06
3.7260675e-06
4.0470759e-06
2.9535587e-06
2.5424275e-06
2.4836042e-06
2.3561406e-06
2.3468771e-06
2.3088206e-06
6.6025755e-10
2.007463e-09
6.1111488e-09
1.4996837e-08
3.0515544e-08
5.5788677e-08
9.393409e-08
1.4730574e-07
2.3417214e-07
3.2737577e-07
4.8461113e-07
6.1837238e-07
8.4003318e-07
1.0092387e-06
1.2824763e-06
1.5225405e-06
1.8490754e-06
2.2494759e-06
2.5758401e-06
3.1921524e-06
3.6372145e-06
4.4976326e-06
4.9787806e-06
6.2502517e-06
7.0147482e-06
8.1422722e-06
9.4371993e-06
1.0397297e-05
1.2240485e-05
1.2636344e-05
1.3858955e-05
1.4390188e-05
1.4056506e-05
1.2288185e-05
1.1410389e-05
1.1317304e-05
9.3001435e-06
9.4451901e-06
8.8192552e-06
8.4239182e-06
6.7154681e-06
5.1184484e-06
3.7825542e-06
3.8485722e-06
3.8416163e-06
2.9754588e-06
4.0731996e-06
3.0784499e-06
2.1985636e-06
2.2278054e-06
2.2273379e-06
2.24142e-06
2.1135652e-06
2.1903254e-06
2.141751e-06
2.6219857e-06
3.0248656e-06
2.8248468e-06
2.9818065e-06
2.5990401e-06
2.550571e-06
2.395946e-06
2.4200971e-06
2.463005e-06
2.2287955e-06
2.2883829e-06
2.2228758e-06
3.1153871e-06
3.529352e-06
2.7443946e-06
2.5009618e-06
2.3849717e-06
2.4235628e-06
2.6900455e-06
2.8021898e-06
6.2424174e-10
5.0536998e-09
1.5307079e-08
3.5934452e-08
7.0437346e-08
1.2394725e-07
2.0267466e-07
3.0643143e-07
4.7643368e-07
6.3992766e-07
9.1816127e-07
1.1479754e-06
1.5124899e-06
1.8134968e-06
2.3145587e-06
2.7236722e-06
3.4868067e-06
4.1132101e-06
4.8529697e-06
6.404527e-06
7.2964911e-06
9.3303781e-06
1.0060548e-05
1.2279691e-05
1.2439105e-05
1.302859e-05
1.3691738e-05
1.3648555e-05
1.3640158e-05
1.330564e-05
1.1508154e-05
8.2934966e-06
6.6317889e-06
4.1400975e-06
3.9811266e-06
3.9410097e-06
3.1668654e-06
3.2941143e-06
3.4568486e-06
3.4767215e-06
3.0609123e-06
2.3448959e-06
1.9147097e-06
2.337575e-06
2.1514428e-06
1.8426021e-06
2.1230488e-06
2.245046e-06
1.8351493e-06
1.784529e-06
1.8548089e-06
1.8593374e-06
2.3183215e-06
2.1934582e-06
2.3059321e-06
2.2096418e-06
2.187682e-06
2.9438572e-06
2.8693605e-06
2.5252942e-06
2.3288372e-06
2.4403141e-06
2.4470547e-06
2.6867078e-06
2.6030321e-06
2.5945841e-06
2.5951598e-06
2.9789815e-06
3.2223632e-06
2.7133106e-06
2.4803713e-06
2.4835204e-06
2.5205787e-06
2.7684626e-06
2.9789496e-06
5.7782862e-10
1.2554533e-08
3.6394971e-08
8.1046519e-08
1.5179249e-07
2.5676093e-07
4.08917e-07
5.9228336e-07
8.9350706e-07
1.1750125e-06
1.6521942e-06
2.0552289e-06
2.6573578e-06
3.2627819e-06
4.229976e-06
5.1020367e-06
6.9444321e-06
8.0323402e-06
9.9995831e-06
1.1878839e-05
1.2564426e-05
1.3932066e-05
1.3293429e-05
1.3340533e-05
1.0736045e-05
8.4661312e-06
7.8641784e-06
6.9924842e-06
7.2398845e-06
6.6241481e-06
3.7988253e-06
2.579469e-06
1.8834324e-06
1.5742845e-06
1.7258363e-06
2.2459058e-06
2.010274e-06
2.2086621e-06
2.2487809e-06
2.2677473e-06
2.0303769e-06
1.8455153e-06
1.6770254e-06
1.736332e-06
1.7389322e-06
1.8500349e-06
2.0816951e-06
2.0630857e-06
1.8258618e-06
1.8181283e-06
1.7970816e-06
1.7993407e-06
2.2780636e-06
2.1493406e-06
2.3604704e-06
2.3305347e-06
2.3545168e-06
2.5419805e-06
2.5595809e-06
2.5097457e-06
2.5823931e-06
3.0110693e-06
2.7871974e-06
2.7971324e-06
2.8421536e-06
2.6805174e-06
2.6125087e-06
2.8122639e-06
2.8475252e-06
2.6525769e-06
2.5288829e-06
2.518558e-06
2.4385558e-06
2.6058724e-06
3.0181321e-06
9.9728595e-10
2.9416839e-08
8.1057593e-08
1.7102423e-07
3.0539873e-07
4.9825964e-07
7.6059736e-07
1.0777182e-06
1.5934702e-06
2.0905024e-06
2.9344073e-06
3.6772495e-06
4.814773e-06
6.2224986e-06
8.306646e-06
1.0307481e-05
1.1945194e-05
1.2517193e-05
1.3868274e-05
1.2582008e-05
1.1985681e-05
8.5647551e-06
6.8336754e-06
5.3618796e-06
3.4464728e-06
2.9908572e-06
3.2807352e-06
2.4807122e-06
2.8902663e-06
2.5614508e-06
1.822368e-06
1.5130878e-06
1.3352626e-06
1.5139924e-06
2.5165274e-06
2.2513462e-06
1.8299493e-06
2.0308553e-06
2.584993e-06
2.3582681e-06
1.8670388e-06
1.850823e-06
1.8506123e-06
1.8737085e-06
1.7324379e-06
1.691369e-06
1.9889299e-06
2.1332457e-06
1.890477e-06
1.7419047e-06
1.7795292e-06
1.7700803e-06
2.0310568e-06
2.0704527e-06
2.1716764e-06
2.4138903e-06
2.5666569e-06
2.5332381e-06
2.4518886e-06
2.3777935e-06
2.7557315e-06
3.2681437e-06
3.1376478e-06
2.7136738e-06
2.7384039e-06
2.5479513e-06
2.5525437e-06
2.6389616e-06
2.8815643e-06
2.6625187e-06
2.5955472e-06
2.8160565e-06
2.6721352e-06
2.8337294e-06
3.2037141e-06
4.1669754e-09
6.603271e-08
1.7009805e-07
3.3805124e-07
5.7503046e-07
9.1206251e-07
1.326602e-06
1.902378e-06
2.8067484e-06
3.7362039e-06
5.3578418e-06
6.9465321e-06
9.5105668e-06
1.1205478e-05
1.2950982e-05
1.2924443e-05
1.1568188e-05
1.0069406e-05
8.4585325e-06
5.220949e-06
5.0046691e-06
2.560676e-06
2.2835127e-06
1.8249181e-06
1.7957432e-06
1.7533338e-06
1.8390742e-06
1.4356913e-06
2.5133184e-06
3.2113027e-06
1.0407882e-06
1.0651332e-06
1.2394854e-06
2.2992632e-06
2.3217989e-06
2.2980365e-06
1.8434711e-06
1.9863237e-06
2.6183415e-06
2.4105223e-06
1.9539382e-06
1.9076016e-06
1.9739741e-06
1.894645e-06
1.9459685e-06
2.1616683e-06
2.019958e-06
2.1455101e-06
1.8391175e-06
1.8076498e-06
1.7247984e-06
1.7961204e-06
2.0665253e-06
2.1374515e-06
2.2029519e-06
2.8135285e-06
3.35429e-06
3.0632464e-06
2.6894668e-06
2.6908315e-06
2.8207484e-06
3.5046676e-06
3.291381e-06
2.7657703e-06
2.6390785e-06
2.4737612e-06
2.4551778e-06
2.7291592e-06
2.8097817e-06
2.6173288e-06
2.7948693e-06
3.6022248e-06
3.5746155e-06
3.5745587e-06
3.5750789e-06
1.6118082e-08
1.4072771e-07
3.3611673e-07
6.2724044e-07
1.0206633e-06
1.5693453e-06
2.2839796e-06
3.382455e-06
5.058803e-06
7.0297717e-06
1.051469e-05
1.1292483e-05
1.2377531e-05
1.1875369e-05
1.0189201e-05
6.4778578e-06
4.7656762e-06
4.299066e-06
2.7465918e-06
1.9524648e-06
1.9548577e-06
1.2320295e-06
1.2245362e-06
1.4311252e-06
1.8130608e-06
1.4607664e-06
1.4289833e-06
1.5107986e-06
2.0029443e-06
2.1322062e-06
9.7096591e-07
1.1073354e-06
1.5097025e-06
3.9205225e-06
2.3987326e-06
1.7986415e-06
1.6086038e-06
1.8049596e-06
1.8096704e-06
1.8508914e-06
2.0645807e-06
1.9818887e-06
2.0422658e-06
2.0908268e-06
2.6867482e-06
2.3913253e-06
2.5408109e-06
1.9025363e-06
1.6792483e-06
1.6759345e-06
1.7778977e-06
2.0473066e-06
2.2289878e-06
2.5225746e-06
2.4056597e-06
2.5474412e-06
3.2002789e-06
2.9990166e-06
3.0267674e-06
3.030603e-06
2.9170379e-06
3.0369127e-06
2.9912864e-06
2.8626784e-06
2.5898736e-06
2.5789988e-06
2.4409739e-06
2.5587452e-06
2.7783958e-06
2.6725998e-06
3.2307908e-06
3.9361888e-06
4.1379457e-06
4.1261335e-06
3.9587944e-06
4.5530871e-08
2.8398606e-07
6.2436852e-07
1.0988218e-06
1.7323594e-06
2.6615262e-06
3.964616e-06
6.2871536e-06
9.8001447e-06
1.1278341e-05
1.2230411e-05
1.0310048e-05
7.045087e-06
5.7204695e-06
3.8582917e-06
2.0247619e-06
1.9650249e-06
2.188792e-06
1.4005011e-06
1.0442602e-06
1.0410794e-06
9.6122096e-07
1.3450884e-06
1.587731e-06
1.329574e-06
1.4669994e-06
1.4191881e-06
1.6362838e-06
1.9337995e-06
1.3561099e-06
9.3840214e-07
9.1717925e-07
1.2603953e-06
4.4750005e-06
2.5444099e-06
1.8640863e-06
1.8516657e-06
2.1236969e-06
1.9426189e-06
2.0065476e-06
2.0011002e-06
2.0080507e-06
1.9311976e-06
2.0511992e-06
2.8270854e-06
2.3866608e-06
2.352672e-06
1.7196875e-06
1.6837824e-06
1.6646941e-06
2.300673e-06
2.3026889e-06
2.3596558e-06
2.378832e-06
2.3534446e-06
2.3741225e-06
2.4887387e-06
2.4005305e-06
2.4353243e-06
2.6391553e-06
2.9167269e-06
3.0117463e-06
2.9651351e-06
2.8775214e-06
2.6385051e-06
2.6507367e-06
2.6431504e-06
2.564031e-06
2.6507911e-06
2.689962e-06
3.4566351e-06
3.9318229e-06
4.425584e-06
4.4652104e-06
4.2298154e-06
1.1278435e-07
5.4270521e-07
1.0954424e-06
1.8414254e-06
2.8774716e-06
4.6147983e-06
7.2867625e-06
1.0425261e-05
1.2040473e-05
1.0964351e-05
6.3019016e-06
4.1187801e-06
2.7154859e-06
2.546673e-06
1.1379549e-06
6.8013746e-07
1.0108379e-06
1.286288e-06
1.0539894e-06
7.733892e-07
7.4692353e-07
7.9375231e-07
1.5323178e-06
1.2802043e-06
1.1410936e-06
1.4392416e-06
1.3493319e-06
1.8492574e-06
2.9684507e-06
1.4464768e-06
9.2810324e-07
8.4792452e-07
1.5894844e-06
3.3961776e-06
2.8205286e-06
1.8986744e-06
1.9234459e-06
2.4311195e-06
1.9600169e-06
2.2425006e-06
2.2170968e-06
2.0207469e-06
1.9959722e-06
2.0815045e-06
2.1201361e-06
1.7946596e-06
1.9101317e-06
1.7511105e-06
1.7419438e-06
1.8124459e-06
2.8103833e-06
2.4435503e-06
2.3881905e-06
2.8446227e-06
2.6930912e-06
2.7487858e-06
3.08096e-06
2.9338139e-06
3.2138187e-06
3.0560006e-06
3.1232927e-06
3.116906e-06
2.9464e-06
2.903165e-06
2.8415627e-06
3.0102545e-06
2.9716675e-06
2.7187312e-06
2.681638e-06
2.8372715e-06
3.494224e-06
4.3461267e-06
4.3501187e-06
4.7026645e-06
4.6798368e-06
2.5635864e-07
9.8394258e-07
1.8323547e-06
3.0095433e-06
4.8340998e-06
8.5501955e-06
1.018632e-05
1.0474692e-05
7.3886714e-06
5.1898803e-06
2.0998195e-06
1.4311346e-06
1.0981759e-06
9.8657404e-07
4.8039288e-07
4.7030734e-07
7.1891117e-07
8.1179995e-07
8.0234587e-07
1.0275531e-06
6.6475844e-07
6.5697135e-07
1.3821214e-06
9.645269e-07
1.108892e-06
1.2697903e-06
1.2535842e-06
1.8618556e-06
3.4518466e-06
1.4496898e-06
8.0916806e-07
8.3058233e-07
1.6806164e-06
2.1877014e-06
3.175111e-06
1.9372212e-06
1.8230532e-06
2.1187891e-06
2.2475545e-06
2.562749e-06
2.378394e-06
2.0309048e-06
2.2108367e-06
2.3362342e-06
2.1663018e-06
1.6897533e-06
2.029992e-06
1.8246016e-06
1.7833822e-06
2.2681041e-06
2.5046617e-06
2.3267321e-06
2.4265238e-06
3.7878798e-06
3.0495405e-06
3.2033877e-06
3.0733242e-06
2.6767427e-06
2.723876e-06
2.9608624e-06
2.8272576e-06
3.131964e-06
3.0273192e-06
3.0999117e-06
3.3205476e-06
3.3310657e-06
3.3049332e-06
3.2851698e-06
2.8857802e-06
3.068397e-06
3.7618964e-06
4.0378779e-06
4.177403e-06
4.8349564e-06
5.0437416e-06
5.4430853e-07
1.7034831e-06
2.9563021e-06
4.9478592e-06
8.5744989e-06
1.0549128e-05
8.7144575e-06
5.8782711e-06
3.2394872e-06
1.8823399e-06
5.6206242e-07
5.5564317e-07
5.8649569e-07
4.9747535e-07
4.2835259e-07
4.8762433e-07
6.1436115e-07
6.3159384e-07
7.980523e-07
9.0054908e-07
5.7816799e-07
6.6011869e-07
1.1457501e-06
1.0092272e-06
1.1074442e-06
1.0410173e-06
1.2212127e-06
1.9363126e-06
1.6396338e-06
1.2639323e-06
8.1455946e-07
8.3654871e-07
1.5824032e-06
2.3440904e-06
2.0383673e-06
1.4249109e-06
1.7799088e-06
1.8518489e-06
2.6778786e-06
2.4421171e-06
2.3191303e-06
1.9472505e-06
2.7697907e-06
2.6692315e-06
2.2199217e-06
1.728317e-06
1.9894529e-06
1.7306782e-06
1.7904017e-06
2.0984982e-06
2.3536093e-06
2.2934527e-06
2.4041619e-06
2.7511777e-06
2.6318143e-06
3.2680855e-06
3.5757801e-06
3.0681795e-06
2.7876862e-06
2.7946665e-06
2.81675e-06
2.8827825e-06
3.2035583e-06
3.2316242e-06
3.4321129e-06
3.6393488e-06
3.5344726e-06
3.216743e-06
2.9287084e-06
3.0441483e-06
3.8210731e-06
3.7634697e-06
4.2844413e-06
5.0791747e-06
5.2104784e-06
1.0933661e-06
2.8335574e-06
4.6981656e-06
8.3493363e-06
1.0077346e-05
7.8190963e-06
5.5370033e-06
3.5649108e-06
1.3258612e-06
5.2993953e-07
3.1393652e-07
3.9011839e-07
4.6622457e-07
4.3787955e-07
4.6985131e-07
7.0528911e-07
5.6613165e-07
6.3355491e-07
8.2159109e-07
7.123231e-07
5.9996099e-07
7.0035946e-07
9.9183672e-07
1.0353281e-06
1.1366416e-06
9.9056835e-07
1.2121806e-06
1.6528749e-06
1.2360416e-06
9.753258e-07
8.4379434e-07
8.666233e-07
1.3625951e-06
1.284682e-06
1.628508e-06
1.3816407e-06
2.1988493e-06
2.2060808e-06
4.1850959e-06
2.6766214e-06
2.5368328e-06
2.0046939e-06
2.9296566e-06
2.9716387e-06
2.3329463e-06
1.8091318e-06
1.7528238e-06
1.7186464e-06
1.8835364e-06
1.9356357e-06
2.4058397e-06
2.3635845e-06
2.3946918e-06
2.4590579e-06
2.7766362e-06
3.9662871e-06
5.0067143e-06
4.6648266e-06
4.2408766e-06
3.0622997e-06
3.1374351e-06
2.862884e-06
2.9043942e-06
2.922205e-06
3.0430587e-06
3.4586624e-06
3.4624382e-06
3.4992379e-06
3.1853423e-06
3.4025989e-06
3.5239729e-06
3.7220571e-06
4.483764e-06
4.7976808e-06
5.061229e-06
2.1032618e-06
4.5251294e-06
7.6521518e-06
9.3149204e-06
6.9939721e-06
4.81813e-06
3.4138742e-06
1.5650134e-06
9.6700495e-07
2.7266168e-07
2.7468089e-07
3.4478788e-07
4.0732109e-07
3.9408448e-07
5.1555441e-07
9.8981775e-07
5.5926675e-07
6.7668042e-07
6.8679785e-07
6.6944658e-07
6.8873235e-07
6.9007277e-07
8.9933139e-07
1.0129665e-06
1.1600961e-06
9.3715126e-07
1.0787276e-06
1.3654396e-06
1.2531936e-06
9.8804063e-07
8.8356162e-07
8.699189e-07
1.2604704e-06
1.0659999e-06
1.198349e-06
1.2958209e-06
2.2816419e-06
2.4279306e-06
5.2968744e-06
2.9634212e-06
2.973291e-06
2.1078015e-06
2.4224472e-06
3.1195043e-06
2.2903022e-06
1.7887704e-06
2.0062276e-06
1.8510053e-06
2.1052105e-06
2.1719882e-06
2.4633137e-06
2.4730125e-06
2.6285068e-06
2.9788065e-06
3.6589297e-06
4.3501749e-06
4.5687197e-06
5.818786e-06
5.1990428e-06
4.2700029e-06
3.6925345e-06
2.8933091e-06
2.8252425e-06
2.8847673e-06
3.2141223e-06
4.2790825e-06
4.2872032e-06
4.0347877e-06
3.4374087e-06
3.5319125e-06
3.528635e-06
3.7704476e-06
4.0883622e-06
4.009419e-06
4.1407748e-06
3.7775503e-06
7.2657681e-06
9.5217643e-06
7.1281231e-06
4.34181e-06
2.6344076e-06
1.6823638e-06
7.8530628e-07
6.6455626e-07
2.5823214e-07
2.6457714e-07
3.2262329e-07
3.7405399e-07
3.7392891e-07
5.2335936e-07
1.0289984e-06
5.8794012e-07
8.5257485e-07
6.8556114e-07
7.4845462e-07
6.167693e-07
7.4891172e-07
9.0613866e-07
1.0453351e-06
1.1858581e-06
1.0634734e-06
1.0283806e-06
1.2098587e-06
1.3522413e-06
1.2442668e-06
8.8752895e-07
8.5879443e-07
1.3144359e-06
1.0992516e-06
1.1854842e-06
1.1562401e-06
2.1648064e-06
2.8124823e-06
3.5039161e-06
3.863669e-06
3.1232388e-06
2.1070443e-06
2.4014807e-06
2.8207597e-06
2.1863434e-06
1.8226047e-06
2.3317452e-06
1.9062938e-06
2.4631082e-06
2.6525486e-06
2.5155499e-06
2.6035478e-06
3.0369116e-06
4.7872702e-06
4.993937e-06
3.6191349e-06
3.3870399e-06
5.2669666e-06
4.340264e-06
4.3150014e-06
3.5436891e-06
2.8986774e-06
2.9168071e-06
2.8822784e-06
3.3042388e-06
3.4638215e-06
3.4240522e-06
3.7548474e-06
3.7216235e-06
3.6138237e-06
3.676277e-06
3.907756e-06