/*--------------------------------*- C++ -*----------------------------------*\
| =========                 |                                                 |
| \\      /  F ield         | OpenFOAM: The Open Source CFD Toolbox           |
|  \\    /   O peration     | Version:  2.3.0                                 |
|   \\  /    A nd           | Web:      www.OpenFOAM.org                      |
|    \\/     M anipulation  |                                                 |
\*---------------------------------------------------------------------------*/
FoamFile
{
    version     2.0;
    format      ascii;
    class       volScalarField;
    location    "1.4e-05";
    object      p;
}
// * * * * * * * * * * * * * * * * * * * * * * * * * * * * * * * * * * * * * //

dimensions      [1 -1 -2 0 0 0 0];

internalField   nonuniform List<scalar> 
7500
(
-19241.795
314.22427
5815.0149
-4749.9565
-12925.389
24791.705
-3389.9953
9405.3098
3588.5773
1730.0354
11228.494
5630.7556
12954.737
-6145.2203
14555.9
6904.8894
-240.41196
10285.474
3130.2279
18447.35
2718.3312
8287.59
3652.1234
24096.453
2041.6095
11746.477
15807.518
241.56716
17543.897
11351.583
11367.988
23852.781
36992.4
-1387.5487
43010.292
18895.735
-6998.4142
27661.437
-9921.6981
20979.025
51717.663
13144.988
35870.487
10677.818
48926
40494.057
4161.1132
38720.591
68304.903
85492.828
31073.003
15262.903
31597.279
63826.298
46915.329
9363.4312
-7504.2183
28506.136
56267.334
-5420.5159
9248.5797
34527.693
-4207.3342
-26886.368
-29934.473
5644.4691
-8123.0005
-28339.411
50384.872
28876.492
-5400.1054
76907.6
27292.534
-35261.479
5240.4078
-19462.593
969.15162
5974.9729
-5220.0042
-12707.227
23335.025
-1830.8202
8326.0428
3683.7772
2372.3874
10927.417
5874.3786
12499.333
-5528.8797
13578.789
8156.8794
-1468.6433
10921.78
3935.0519
16474.244
4851.6726
7059.9257
3732.7713
24887.52
539.75226
13036.98
15308.045
-385.58163
19117.188
8720.0746
14854.794
22390.857
34810.315
3191.4086
39196.891
19751.23
-6204.551
25198.231
-6182.2106
19323.31
50264.314
15373.664
33841.621
13420.24
46790.625
39278.899
8838.1866
36986.04
64740.14
86292.368
33612.999
13856.051
32830.827
64286.853
43917.213
11323.223
-5301.1184
26394.293
55625.241
-2495.5007
8470.1154
34677.865
-5211.2791
-27483.235
-28239.225
2317.2475
-5953.7165
-25967.718
46552.876
28893.183
-3079.9741
74350.662
29427.582
-31870.42
3647.731
-20098.699
1115.0842
7603.0043
-6576.6255
-10899.148
21063.58
-1830.1399
8677.9009
3345.4017
2166.8467
11096.335
6674.6509
10635.946
-2841.342
10615.65
9746.8071
-896.14964
9107.2088
6451.5068
13685.351
7020.4908
6505.1649
3137.1744
25908.23
-607.79317
13217.36
15798.339
-2145.2428
21973.831
5438.6563
17459.973
23793.066
27762.367
11403.299
35661.398
17580.936
-2217.0451
20042.083
-1733.249
20692.288
43997.239
19990.663
32037.286
15969.644
44991.914
34802.371
15493.426
37875.063
59887.185
83759.185
39410.489
14287.973
31413.807
64403.435
42232.881
11443.779
-2051.7755
27165.437
51223.075
564.79126
8607.7186
33205.09
-5440.8109
-28642.607
-24904.698
-3684.7898
-4372.5636
-19439.286
38814.373
29108.121
1838.6753
67313.719
31980.163
-23793.548
2356.0908
-20558.258
566.34391
9737.4082
-7560.784
-9747.4231
19215.457
-1247.5939
7030.4553
4853.8021
2173.8444
9344.7463
9632.049
7685.8462
-483.24904
8649.2357
10142.924
356.39777
7357.8752
8838.0533
10581.797
9300.5441
6735.0397
2167.7829
26394.161
-1068.6025
13031.37
15974.506
-3536.35
24764.328
1959.8342
20585.379
25018.18
20301.613
20929.849
31366.834
14658.027
3171.5813
13572.574
2938.8895
23987.155
36108.436
23804.571
30877.797
19757.492
41393.076
30300.231
23039.095
39900.107
56136.905
77823.134
45379.894
16813.784
31206.965
61611.13
40428.586
13006.143
-160.59883
26781.265
47699.899
3606.0294
9486.1359
32302.444
-8422.2938
-27844.449
-17707.477
-13485.307
-5321.4018
-9592.8205
28351.197
30312.766
11266.167
57365.121
32514.517
-13590.571
2200.2008
-21044.297
364.68015
11210.535
-7896.1178
-8468.3779
16053.996
992.28076
4700.9812
5316.4898
3476.0029
7946.4354
10818.367
6315.8857
1665.9537
5773.6123
11584.543
584.14123
6251.8384
11581.98
6792.2164
11701.574
7156.1039
1479.3199
26351.848
-1232.223
12948.249
15760.32
-4615.9337
27051.402
-1268.3797
24132.411
25669.576
14305.441
29332.786
26860.503
12035.008
8119.3589
8501.6325
6523.8764
27428.124
29223.565
25927.775
30289.715
25152.209
36091.042
25318.286
30750.836
42082.606
54162.826
72116.432
49549.215
19411.305
33402.436
57533.588
37727.842
15460.872
2977.7832
24344.224
42998.885
7131.4774
10682.589
33328.972
-12159.262
-28331.675
-10239.296
-21961.234
-7444.0209
229.50448
17419.377
30013.304
21047.467
47575.292
32354.741
-2244.6461
2999.6124
-21936.8
685.59003
12302.101
-8399.0339
-6264.1016
12130.284
2789.5969
3532.9678
5389.2023
3615.726
8209.9814
11207.456
4467.7787
4832.3997
2535.1287
12466.827
1714.44
4469.2265
13816.858
4581.3075
12884.833
7030.9312
2635.9395
24553.837
-165.54379
12639.16
14433.464
-3336.9348
26128.602
-1728.6826
26409.864
24277.5
12663.168
34979.129
21829.655
11276.563
10674.747
4492.0252
10851.493
29578.529
23934.114
27122.009
30166.758
29744.357
30921.789
23001.947
35743.153
42895.458
53411.995
66861.076
53548.504
23924.317
34065.285
51450.959
38297.759
16940.249
5266.7477
24567.772
36183.67
8428.7654
12562.685
33565.548
-13448.705
-27655.05
-6779.7062
-27978.618
-8956.9498
7423.9618
10078.979
29826.798
28721.671
38702.915
31553.603
8084.9779
5291.7762
-23209
1053.6717
13683.651
-9305.7071
-4112.4617
9167.3712
3410.2901
2430.7756
7116.2642
2600.4357
8036.408
12729.321
2565.6459
6168.2484
1971.8362
11457.734
3324.8042
3991.5556
13286.357
4580.9465
14070.117
5357.397
5463.2683
21759.597
1003.0425
13267.254
11287.728
460.24294
23028.359
-1031.0476
28334.64
21263.126
14568.891
38146.705
17697.713
10750.743
11986.268
1717.2427
14167.017
31356.17
20589.513
27472.286
30772.587
32778.805
24725.248
24683.264
40663.528
40600.265
53686.539
63331.099
53896.681
32330.274
35734.376
40560.882
41190.963
20537.994
4371.7408
27051.105
32085.974
6595.453
13957.139
31507.756
-15455.182
-24459.505
-4853.4754
-31387.708
-10324.505
11199.04
6046.4376
30094.7
34029.252
32967.805
31409.466
14779.41
7568.5969
-24304.872
1074.73
15000.33
-9807.4819
-2827.6064
6981.0843
4494.6943
624.54132
9038.8508
2751.0825
7312.0888
13140.259
2819.9722
5328.2193
2316.4464
11158.475
3574.826
5010.7369
11640.773
4815.0211
15273.244
4428.1925
7143.1558
19494.645
2565.951
12639.132
9643.5766
3477.8262
19524.397
1892.1666
27558.13
19063.397
18883.466
37080.3
15419.368
10911.5
12024.377
1035.1095
15152.505
32921.15
18848.954
28166.102
31648.221
32941.88
20111.426
26492.925
44065.634
39784.211
53378.795
60629.016
52799.764
41675.058
38559.501
29215.225
42427.557
24716.994
4904.5891
27668.578
30593.255
6104.7128
14673.529
28140.646
-17360.136
-25273.192
-6534.1279
-29491.856
-10120.663
12285.81
5357.5412
30549.552
37386.616
30240.166
31840.481
20274.546
9106.9014
-24860.285
766.19892
15759.015
-9532.7817
-2014.6146
4786.0904
5980.2407
-632.58012
9909.065
3308.2624
7803.5459
12092.562
3396.5385
5134.5148
1677.0182
11105.509
4472.5291
5300.2685
10301.36
5966.365
14039.4
5723.8222
8394.7367
15625.156
6828.7933
9351.3162
9570.0196
6952.252
14017.613
6941.9669
25439.249
17798.212
23963.915
34307.136
12993.926
11224.747
12025.553
2184.941
13717.994
34297.61
18896.775
28058.395
34190.554
29619.15
17437.465
30406.227
42888.947
39893.646
56097.906
55556.06
50541.985
54129.674
37979.731
21790.709
43909.563
23235.984
8664.586
29062.642
26901.203
8609.5243
16685.454
22110.541
-14768.779
-27106.49
-15257.957
-28295.806
-8653.0159
11612.289
8216.152
31516.722
40378.552
30815.163
30784.953
24376.443
12168.012
-25035.741
466.67316
16036.691
-9132.9474
-997.84824
2865.5439
6533.6671
-802.88417
10645.034
2948.2694
8723.0003
11825.147
2857.5436
5351.2437
1927.0738
9245.8564
6597.2991
5320.2554
8395.2776
8732.2986
11454.583
6694.4058
11148.783
10607.695
11097.838
7196.1757
7980.2826
10977.499
10102.246
9620.5952
23301.883
20075.631
26381.914
31988.871
12111.157
9689.1517
11271.787
5366.1746
12387.098
32081.452
21558.061
29032.352
34070.701
26920.001
17838.714
31870.503
41928.938
40960.992
57393.465
52485.404
46512.625
67336.65
35824.912
17095.028
48736.04
17119.344
10963.805
33663.037
22292.449
10568.063
19866.155
12860.986
-11494.136
-24200.429
-21710.606
-30072.148
-10685.521
9311.9946
10275.055
31632.09
43135.846
33546.841
29364.738
28336.052
17064.71
-24958.905
212.99036
16202.208
-8988.7664
22.657608
1744.3141
6128.7171
-683.56025
11510.487
2906.2209
8532.9489
12004.567
3175.6932
4083.0087
3621.1377
7286.6688
7611.6045
5880.1765
6798.0207
10850.999
10389.486
6629.2493
12663.395
8915.3351
11152.818
7747.9975
6900.1381
11686.181
9683.4973
11400.662
19137.81
25494.744
27712.432
27530.004
13754.742
9399.5602
7992.0911
7990.486
14465.676
27804.628
21864.258
33864.746
30621.072
21247.994
27014.324
29416.203
35612.872
50112.122
54338.011
48273.942
47941.888
72352.71
34993.629
15811.108
52043.603
14595.829
11736.555
35146.66
20232.387
13061.641
22518.366
3358.322
-11904.906
-23457.592
-23234.098
-27491.034
-12925.041
7426.4645
10931.542
30244.518
44596.42
31440.518
25104.279
34414.098
20769.614
-24704.938
-118.69148
16388.717
-8792.2303
544.79011
1147.5161
5454.467
-285.81727
11586.701
3822.8034
8389.3762
10636.742
4968.2772
2486.352
4548.4998
7127.8532
7472.2185
5547.8447
6729.2935
11758.614
9679.8274
8534.8301
10412.221
10937.63
9641.4991
6954.3537
8154.8107
11335.18
8581.8396
13064.167
17192.646
28197.838
31255.8
21852.304
13745.315
12725.547
3445.8107
9334.0408
17321.388
24801.351
21465.771
37005.601
27725.936
14435.203
34595.365
33238.798
27003.655
56911.704
54443.692
41998.269
54684.804
69238.101
33968.347
17677.508
47701.615
18136.389
14650.046
32576.583
21824.596
15028.398
22081.974
1146.3618
-12652.751
-24765.003
-25391.129
-25199.65
-11589.409
5380.2233
12334.602
30433.79
44449.722
30567.759
21784.551
33823.549
22185.367
-24313.57
-579.33524
16449.167
-8340.9054
716.68862
675.5898
4422.6682
884.9577
11092.807
4361.2856
9583.9542
8275.0099
6234.4713
2100.01
4402.6213
7605.9561
7696.1916
4429.2814
6725.2178
13238.807
7734.5676
11995.171
7788.0409
11879.995
9882.4734
5719.5891
7979.8581
12655.154
7447.7292
11159.98
19754.771
27818.984
34689.22
18303.199
10905.994
17546.011
-1603.4149
10565.612
20440.194
19969.861
24686.094
36332.65
24516.284
13363.232
34407.161
35150.104
28755.499
57953.959
52266.029
41593.691
56114.483
65984.567
33880.559
17375.39
44704.617
19068.625
15015.6
31774.961
21570.641
16662.284
23569.319
2883.3252
-12150.061
-24724.355
-25628.088
-28644.551
-9903.1342
5685.0735
10119.803
34736.518
45797.184
30659.927
24806.309
34238.722
20208.313
-23783.585
-1091.0176
16258.87
-7707.6424
809.71158
478.06291
2904.6847
2204.2425
11179.65
4025.7023
10899.946
7013.4772
6306.0127
1895.8367
4694.2723
7884.4365
7455.6758
4286.7436
5889.7663
14608.147
6821.9709
13187.332
7990.1382
10890.413
9542.3331
6116.2704
7245.3654
12759.1
7524.598
8570.7031
22227.566
26497.83
36225.706
15952.333
9270.5244
17320.95
-1073.6736
12235.124
20149.12
19036.021
25725.122
36359.062
21180.592
12791.992
34007.327
34608.436
30339.808
59389.357
53246.072
41658.198
56965.306
68844.469
33426.911
19986.067
42756.834
16832.058
15503.259
30602.581
23883.934
18234.246
22578.558
-697.78293
-11927.026
-26563.401
-26023.555
-26735.535
-10362.935
7579.6264
10935.363
28830.263
44911.796
31974.596
26066.825
33939.695
18433.406
-23248.294
-1537.0041
15874.939
-6935.0658
735.67236
523.86142
1653.6069
2925.5902
11570.682
4226.8216
10813.584
6747.6972
6772.6708
862.48822
5085.9102
9157.4568
5816.5519
4586.7073
5924.2612
13628.494
8413.4807
12239.062
7844.0245
11510.883
8332.9072
4819.0742
8520.1737
11221.198
6096.0475
8969.294
23631.022
26708.373
37032.828
14530.743
9240.1539
15735.563
-2125.9798
14920.641
20511.642
18733.977
26485.996
39198.843
22312.973
13117.018
34045.806
33342.445
29853.199
58179.002
51018.326
43971.084
56487.165
63723.124
32655.845
20013.491
42691.37
18578.89
14055.288
30747.606
23526.919
16408.564
20547.828
-3123.1792
-13801.954
-29547.339
-28950.855
-27359.053
-8330.1445
4211.3718
9558.7978
24871.092
42276.415
32211.85
31044.433
35159.903
17259.726
-22721.548
-1916.5151
15348.974
-5966.2219
561.90915
112.83357
1223.1438
3697.6935
10997.779
5703.1764
10104.096
5607.698
8222.2853
54.504505
4401.872
11088.314
4624.7846
3140.3606
7762.8037
10635.459
10026.559
12481.342
5420.5481
11620.044
9090.3415
5112.8295
8907.5231
11125.717
4457.3287
9209.1727
24461.699
27675.82
38307.558
14898.997
9402.2217
15445.083
-3128.9284
15837.204
20672.398
16992.438
26110.301
36460.122
21360.926
13972.214
33541.954
34692.482
29430.893
57017.497
48800.135
41910.1
56849.453
60152.064
29788.832
21121.935
38956.459
13701.338
13955.063
28546.937
20529.955
17568.669
18375.86
-6827.1478
-17037.314
-33955.886
-29670.618
-29784.111
-22087.61
-6639.4767
5963.5562
22766.705
37879.332
28044.239
30700.813
37265.555
16743.797
-22136.099
-2260.4417
14602.089
-4865.9738
782.88981
-1156.3591
808.34687
5633.6412
9381.5857
7334.4011
10323.388
3447.2212
9000.5107
301.5508
3563.9231
10992.872
5703.6934
151.24796
9315.9818
8382.8818
11574.754
12890.831
5172.0522
10703.436
9522.469
6021.2503
9597.3214
11840.918
4035.2409
9101.235
24573.774
26798.488
37280.364
14297.809
8992.8173
15372.025
-2762.0583
16089.542
20946.807
16657.362
27245.341
35774.15
20213.804
13269.866
32514.204
34673.658
27243.812
53709.869
45798.575
41494.587
58390.312
54398.814
25726.231
18441.819
36093.953
13556.895
15414.494
27563.78
16733.819
17395.595
16441.129
-7969.0789
-21479.76
-38258.823
-35202.182
-31451.268
-26532.398
-18074.898
2428.6531
22053.15
33821.473
25988.227
28592.786
35853.647
14825.277
-21503.394
-2519.0618
13617.044
-3998.0221
1716.5163
-2591.6462
-597.37654
8391.9627
8063.3312
7933.5347
11164.649
2089.4569
7652.4767
670.23254
3875.4738
8834.6196
6506.8726
530.55051
9709.1928
7329.896
12563.163
13816.248
5542.3825
10728.061
9796.4086
5534.6467
8760.3447
10606.504
3820.8167
9718.3399
24570.575
27036.265
36445.562
12704.744
7747.2413
15177.646
-3204.0387
15703.199
21489.821
16300.35
27327.943
34965.778
18130.939
13524.044
33937.214
35953.502
25376.267
52042.337
45884.054
39978.631
57434.318
48594.226
21910.765
19829.812
34677.139
15147.993
17313.752
27196.013
19747.312
15111.072
8146.6073
-10673.788
-30124.556
-42094.955
-50788.504
-33026.291
-30801.727
-25305.542
1237.8806
34139.703
34524.139
27050.97
31011.511
34332.151
12927.606
-20939.496
-2610.6142
12599.398
-3673.4987
2841.4414
-3270.3089
-2619.4521
10356.843
8021.036
7534.336
11130.613
2309.5387
5234.5165
749.64058
4762.1409
8608.5495
6605.1209
1227.7672
10443.754
7232.7926
12385.555
13424.187
4402.9
10372.754
9785.7639
5709.8627
9568.8704
11398.95
3657.3522
9487.7275
23612.667
26522.087
35774.565
10221.406
4377.7634
15054.944
-2530.6839
13827.068
19735.673
14051.799
28367.515
35172.867
15522.333
11880.028
34358.094
35680.317
26717.144
52687.559
44397.434
38043.932
58827.544
46052.489
17644.364
19579.396
33947.601
16202.235
17616.045
27425.413
21187.772
14748.905
4091.2911
-12995.564
-32316.247
-44556.599
-64716.873
-32085.907
-37034.648
-31727.11
3452.5234
34410.132
31897.341
25744.638
30596.278
33166.525
10872.867
-20490.227
-2543.5569
11803.647
-3551.8609
3063.4464
-3061.5789
-4258.5184
10835.766
8401.5567
7116.4692
9852.3808
3348.4778
5089.915
625.21112
5772.124
9030.6929
6492.8493
601.34181
9880.4669
7107.4561
12101.638
13884.958
4973.8877
9923.18
9727.6328
4976.6845
8814.0632
10539.962
3513.038
8966.2349
21692.268
25808.982
34998.523
9035.554
1554.4664
13522.302
-2791.5487
11613.454
19901.521
16092.19
33213.149
32729.626
11790.973
8631.934
33920
33800.802
25762.128
53844.132
42847.601
38299.84
62215.089
45340.441
12569.713
19984.028
34158.307
16774.775
14359.422
25993.089
20866.937
5845.8812
1296.2379
-18214.487
-34100.56
-45841.56
-60650.747
-32985.776
-42896.619
-35770.371
-2146.6879
31451.358
34935.362
24556.781
32912.582
34015.175
9707.6297
-20089.431
-2443.73
11253.299
-2788.7927
2022.4059
-2800.9521
-5392.7908
10656.623
7804.0512
8191.9542
9349.5099
4388.6742
5690.2114
411.95229
5329.8806
8508.659
6459.4906
1029.6993
10103.085
7252.2177
11619.695
13125.579
4536.5883
9561.7694
9779.0667
4605.5816
8748.1105
10609.041
3820.4778
8345.3191
20733.658
25270.318
34031.35
8592.6738
-268.93618
10778.666
-3731.1964
10884.763
17643.063
15042.225
38026.09
31400.762
7904.6925
3563.6177
36412.693
31470.534
22556.648
54140.853
41258.03
38010.955
63349.127
42452.852
7747.1591
19207.336
33969.889
18937.466
15013.911
24797.99
17589.609
-1092.4987
-1518.9328
-27284.075
-36471.985
-47331.499
-58904.04
-33103.797
-45542.339
-34595.262
-1238.3009
36770.614
38677.346
27005.783
38946.274
33158.684
8100.4646
-19636.136
-2443.07
10651.48
-922.32098
878.91114
-3256.7779
-6373.1127
10622.182
7662.0475
9534.9306
9594.0569
4027.8391
5331.8605
171.48661
5643.8663
8597.6821
6551.7783
606.98199
9851.9215
7460.3004
11522.252
11991.384
4378.8411
9073.7508
9555.7049
4487.7591
8268.0403
10271.753
4278.7131
8737.2835
20161.516
24249.517
33263.214
9135.5018
1051.0338
8103.2331
-5860.556
10638.648
20450.751
13544.897
39349.32
29384.753
4792.9418
2961.0722
35711.86
30435.229
20202.071
52525.346
36066.942
37100.551
64520.538
39342.089
2463.8624
18328.396
33638.772
23763.407
17731.602
23302.757
17649.32
-4807.1154
-3236.0564
-33627.551
-42025.269
-48629.169
-60214.108
-41094.85
-46999.746
-29547.531
3597.2414
34481.667
38521.181
30362
42244.856
31004.038
6223.2333
-19112.381
-2534.1656
9617.6417
1407.2329
1084.2189
-4166.6421
-5742.5889
10860.837
7910.0718
9169.4786
9410.7335
3926.4693
5549.3423
105.38187
5523.8623
8441.6474
6795.464
1048.3551
9687.3318
7576.9712
11544.232
10777.925
3116.1598
7847.363
8081.7209
4936.6644
8175.2118
9467.2656
4080.0409
8226.5617
18966.997
22926.532
32443.725
10589.442
5293.5129
6663.6621
-6355.4131
10981.81
17520.488
9906.8996
41215.714
27606.334
103.3547
-312.86253
35581.759
27613.168
19335.833
48218.491
29829.022
32420.983
65909.911
36318.097
-2470.1136
15956.701
33251.307
27784.022
20391.517
20818.383
17878.923
-8056.2805
-965.52412
-35775.893
-48120.229
-49201.748
-62090.277
-45382.711
-47041.374
-28710.482
4980.6235
32660.331
35244.408
29006.462
41083.74
26677.484
4054.7168
-18850.511
-2464.6278
8097.3415
2847.5655
2101.7622
-4314.088
-4601.16
10692.384
7539.922
9121.5976
9371.1109
3840.7293
5551.9551
-13.302921
5437.891
8410.2861
6887.6154
1141.8201
9483.0513
7532.7629
10882.575
10140.944
2917.7257
6229.7879
5373.6568
4962.7935
7416.8325
9130.4212
3710.6247
8111.7026
17875.672
21331.736
30622.529
10862.221
11652.713
6287.4944
-4801.1661
12823.675
15611.243
7099.6042
41465.988
23519.357
-7576.018
-5680.3291
34150.161
23294.076
18720.955
45338.155
26793.005
29560.557
67560.425
31883.184
-3586.8489
15414.399
32862.648
30449.82
20948.657
23602.379
15453.079
-9567.5967
9680.6872
-38172.792
-51972.719
-51126.686
-62976.41
-46618.602
-46096.852
-26687.067
7128.604
28605.259
26347.719
25910.146
38939.144
22440.091
1616.1797
-19578.474
-1771.5548
6521.906
2949.8536
2550.9326
-4391.5753
-4818.6765
10794.779
7645.0285
9028.2323
9088.378
3796.5591
5632.8735
-139.15336
5234.5415
8307.4677
6894.4232
1303.1866
9203.1457
7420.3003
10558.303
9787.0893
2354.9689
4325.6284
2174.4282
4677.6838
6209.4448
9460.2902
3559.2631
7960.6317
16692.326
19720.126
24292.194
9697.2007
13543.863
4834.0674
-5718.814
15360.332
13788.566
608.16345
27148.546
12457.946
-13984.349
-9988.3846
33212.531
21991.977
19280.847
43867.512
27464.886
30527.008
67345.794
27507.247
-2043.2936
17278.047
31606.659
31799.701
22530.344
20919.18
13858.634
-12474.377
7730.1985
-42309.385
-54813.881
-55321.222
-63300.882
-44690.241
-38767.08
-24268.355
7660.6424
25020.95
27245.898
28346.769
38972.746
21555.499
1934.006
-21214.36
-205.24415
5297.4592
3166.3437
2606.1055
-4629.6386
-4781.4489
10789.262
7562.9619
8917.8094
8761.5578
3752.2526
5545.7088
-311.71974
4985.3935
8295.8149
6813.3414
1339.4327
8832.0311
7294.4622
10474.818
9688.7654
1696.6763
2669.6437
-1065.6872
4279.7791
4743.5052
10195.185
3865.6085
7605.6141
15760.197
17598.215
20748.688
10064.118
13997.905
2475.1892
-7035.0173
18146.991
9329.0141
-8641.0986
5673.7616
10484.119
-11818.907
-13375.166
32450.182
21912.849
20376.295
41736.525
28857.658
33356.56
60134.915
22960.91
-456.24695
20314.66
31115.763
33203.558
21544.06
21866.255
13416.448
-15598.867
-16635.07
-42697.931
-54416.751
-61892.12
-63988.964
-44994.907
-34432.229
-20602.439
7040.9211
23184.528
26769.828
33740.127
40476.776
21186.007
3540.8076
-20463.719
1083.6641
4130.8009
3524.4646
2551.2367
-4725.5411
-4775.3488
10864.948
7495.8833
8810.4718
8421.4024
3734.8795
5481.4348
-510.00718
4779.8706
8262.0671
6630.5998
1313.019
8444.2617
7201.939
10030.114
9832.5637
1405.8801
942.99696
-4196.4804
3237.7614
3463.7438
11434.108
4304.9898
7217.6628
15149.302
15584.385
17824.287
10730.78
13237.429
853.52232
-8182.5338
20685.959
6177.6888
-14457.837
1782.3502
11358.441
-9772.015
-10718.206
31264.899
23526.693
21922.282
40201.955
29122.148
32971.858
55704.604
15899.07
-1786.2772
22733.841
31060.271
35433.038
20671.447
22724.122
11508.404
-19365.321
-23477.689
-43315.431
-55406.937
-66909.296
-67645.018
-46559.261
-33089.873
-17224.442
7274.0649
22905.186
29003.345
35289.794
40711.155
22785.915
6775.4052
-11305.878
171.87065
3495.9105
3712.746
2537.6309
-4767.286
-4706.2362
10940.631
7420.9126
8696.4053
8072.4467
3732.6299
5368.0091
-721.50416
4549.2152
8180.2719
6290.6302
1305.6032
7995.9175
7159.5357
9844.0676
9966.353
1351.7913
-317.36126
-6738.6978
2021.5029
2220.9554
12536.811
4280.8008
6662.4349
14762.256
13521.545
14073.541
11438.066
12428.203
1790.054
-8668.4229
19695.236
5404.6403
-13562.335
7222.5708
12344.623
-7653.803
-5150.7279
29185.692
23532.274
24754.363
39086.441
30019.823
30157.461
49717.011
9070.828
-6130.7562
23989.482
29999.341
37233.662
21517.207
24644.593
12648.942
-21191.579
-30057.787
-45144.403
-55349.057
-68949.359
-67851.92
-47203.508
-32612.145
-13434.848
9055.4924
24199.441
31201.819
35388.619
39229.885
25217.015
8945.264
5335.3634
-376.03624
3381.1969
3651.6482
2482.8842
-4818.282
-4635.9155
10916.269
7341.9574
8565.6913
7730.3485
3736.2401
5228.8815
-909.46618
4281.9491
7999.8995
5647.6329
1430.5773
7496.3309
6902.5196
9597.9995
9950.3481
1618.7828
-1172.5194
-8132.0717
1068.7233
885.86892
13384.38
3848.9372
6088.1078
14843.296
12100.014
10811.782
12100.512
11484.91
2675.5536
-8150.1758
17104.174
4058.3975
4440.2223
17172.652
14695.211
-3374.0689
-297.20637
27326.866
23353.368
25776.641
38846.908
31682.75
28253.955
41001.423
5420.6285
-10075.502
25519.495
25072.434
36424.042
22425.847
25306.6
16881.237
-21517.649
-37075.043
-48712.87
-54684.271
-68314.928
-69562.755
-50405.177
-33090.643
-6745.1403
10669.787
24803.616
34106.18
38022.911
38813.426
27028.842
8796.0628
7427.0638
1271.0354
3265.5918
3648.2818
2461.9287
-4903.3155
-4564.832
10841.716
7253.2756
8458.0748
7422.4182
3743.1654
5087.1065
-1044.7319
3926.4986
7710.0428
4906.8391
1595.1673
6964.287
6574.8168
9145.8587
9627.1593
2167.4909
-1730.5392
-7863.9342
547.55707
216.11336
14561.536
3838.3619
5470.4337
14989.953
11123.115
7958.4508
12204.61
10594.168
3737.1756
-7755.9799
17794.91
3336.1856
8127.7147
22357.856
15673.291
910.60543
4839.8138
27037.839
24713.799
25727.169
39050.714
30092.804
28529.695
39226.732
2754.1039
-14238.767
26498.118
22429.823
35184.149
22196.072
25432.361
17663.463
-26911.003
-39763.868
-53814.652
-58437.376
-68235.2
-70468.615
-52625.997
-33416.148
-3859.8796
10765.598
27214.605
35480.059
33277.841
37327.204
28015.254
8608.9222
-2287.5885
2270.6597
3311.4651
3671.7762
2450.6276
-4998.8734
-4517.6203
10754.235
7160.8842
8357.9514
7152.8883
3758.1012
4945.0196
-1138.3082
3486.9577
7311.3534
4209.8525
1839.8387
6397.7768
6199.1691
8537.2332
8995.2381
2972.4092
-1884.5784
-6214.3949
935.1977
1272.1458
15625.156
4062.824
4855.7576
15061.809
10099.718
5206.8265
11847.75
9683.0976
3586.3053
-6609.2038
19179.769
3026.3438
6003.2613
24838.995
16576.824
3249.7569
8160.0777
25503.897
25595.542
25033.223
38975.764
25851.543
30404.14
43047.21
1760.9524
-20349.646
27476.12
21230.509
33919.154
20660.399
24384.24
12669.802
-33375.44
-41532.422
-54364.16
-61603.248
-69057.849
-69874.788
-55195.28
-33336.106
-3853.5706
8804.1894
28408.338
36211.124
30522.264
35285.778
27218.727
8090.39
-2377.0809
2102.06
3369.3972
3713.1927
2443.7162
-5112.1935
-4507.0719
10651.094
7064.1187
8250.5728
6942.1883
3798.5681
4801.6792
-1178.7878
3012.369
6824.2772
3474.9764
2167.6827
5701.2746
5701.5951
7710.1625
7970.8596
4124.0398
-2085.901
-3408.1036
2307.2437
3576.9762
16507.449
4102.6437
4600.0308
14985.676
9261.755
2720.5289
11331.841
9351.7845
1886.2024
-6604.8903
16860.949
1889.3088
9759.802
26719.159
16347.415
5370.8524
9585.9173
25342.704
26375.102
24863.786
38804.967
23601.424
32082.538
48359.727
3777.3464
-17799.362
27731.601
18656.576
33668.674
18891.425
22456.033
9854.6545
-37662.606
-41836.275
-54430.182
-61804.421
-69140.946
-69753.496
-58900.238
-33048.971
-6603.0136
6167.2174
28797.015
34572.251
28640.717
33354.762
25151.444
7066.6599
-2158.0346
2246.3713
3453.0186
3761.6975
2425.7943
-5247.1954
-4519.8577
10538.95
6954.411
8143.365
6761.1197
3866.9023
4646.762
-1193.445
2568.4996
6292.1038
2561.284
2329.5841
4842.0221
5195.041
6731.6505
6401.9765
5123.6164
-2054.3416
-628.61464
3714.516
5545.4535
16746.485
3886.4481
4590.0933
14940.121
7700.7254
678.82072
11574.753
9273.3124
-210.68576
-7644.3755
17864.953
1629.84
11107.65
26574.225
14866.519
7168.7965
10122.114
25623.482
27513.244
24693.662
38089.344
23314.984
33620.351
50915.437
7078.4234
-7024.8125
29300.254
18845.274
34456.301
17120.851
18854.491
13216.685
-35731.864
-40718.416
-58110.305
-65857.501
-70809.775
-71516.686
-66206.571
-37873.987
-10660.815
3731.1192
28899.213
31864.087
24940.07
33106.866
23023.231
6053.0097
-1760.8974
2333.398
3537.1503
3812.1177
2394.9226
-5403.7914
-4548.1007
10414.8
6826.0605
8027.5556
6576.3473
3952.8696
4483.8622
-1185.2147
2146.3575
5717.085
1538.3966
2426.7797
3801.1359
4652.2234
5680.7339
4562.4887
5655.7011
-2194.9759
1556.9523
5203.1979
6784.5455
15916.012
3659.9694
4652.0809
14976.289
5990.6247
-771.63518
12402.543
8632.1943
-1542.8242
-7872.968
17847.205
1648.5823
12068.493
21326.813
11561.171
8334.6123
10958.759
25234.702
28848.469
24527.58
36761.752
23270.124
35080.422
51785.197
10606.598
10932.923
30739.719
18276.66
33191.76
13671.791
14549.404
11846.696
-33021.451
-41044.533
-58184.206
-70671.372
-74912.423
-78345.879
-75411.571
-48620.839
-11771.889
9145.719
29743.128
32226.279
24399.774
31468.257
20485.452
4722.8435
-1344.5944
2480.4957
3625.4692
3860.3765
2349.6123
-5581.4041
-4588.6256
10274.196
6675.3992
7888.6682
6375.1213
4055.1703
4315.7396
-1114.8341
1765.3927
5049.7487
464.49205
2521.1267
2889.884
3954.309
4591.6659
2670.2307
5386.362
-2568.1592
3430.1514
6281.0059
7404.5591
15327.122
3879.5775
5355.0274
14727.611
4300.1251
-1873.4952
13652.828
7816.7482
-3113.0116
-8282.7313
18051.362
1716.5101
14418.637
25646.788
10304.677
8375.8811
11075.674
25329.592
29467.96
23996.93
35425.756
23569.25
35478.392
50801.656
14573.963
14114.789
30139.625
19911.238
32559.332
9617.5829
10132.317
7847.7448
-28995.283
-41364.436
-56789.974
-71037.023
-78174.46
-83633.461
-85502.218
-59969.651
-9707.929
13921.055
30449.204
32898.915
23736.166
29327.672
19766.07
3662.0398
-877.14695
2578.0458
3712.0982
3907.6533
2288.7787
-5781.1246
-4647.424
10111.238
6500.617
7735.4785
6140.4175
4135.8028
4139.0314
-984.09405
1451.6299
4294.1673
-487.51137
2822.7285
2310.3123
3427.2856
3708.7998
917.32727
4118.5812
-2864.9278
5408.9231
6396.2629
7716.7735
14917.386
4509.4827
6567.8893
14230.641
2874.7401
-2261.9913
14841.814
7486.8153
-4307.6369
-10084.188
18890.195
2179.8475
17875.485
28130.248
8653.9039
8243.4272
11443.265
25345.564
29747.003
23422.297
34542.463
23949.461
34986.019
47426.293
18959.899
17520.379
27712.912
23106.939
34326.529
6805.3977
5830.2519
3002.1859
-28963.549
-38666.781
-57185.94
-75890.572
-83296.673
-88909.333
-91925.499
-67068.758
-8733.4188
15851.387
30291.178
32742.843
23284.311
28665.244
19973.571
1988.7643
-421.63641
2755.4544
3800.2568
3948.0103
2214.2541
-6001.4022
-4733.1792
9924.0803
6302.5433
7568.2174
5892.1025
4190.1141
3946.0368
-840.4259
1250.8862
3534.0268
-1076.9526
3324.6884
2065.0613
3062.5589
3137.0322
-215.39029
2673.8616
-3348.4586
7288.6903
6713.6639
7962.4027
14202.463
5341.5715
7486.8768
13953.664
2120.0028
-2057.9671
15445.535
7309.7974
-5183.8164
-9584.3599
18614.49
3716.3468
19363.055
28245.394
7213.0646
8244.6471
12175.369
25239.549
29796.794
23119.816
33869.993
24218.545
33214.321
43236.662
20089.255
17612.854
23208.155
25542.069
35627.513
5125.3413
6041.0899
-2818.39
-34838.891
-40717.117
-57035.682
-79917.524
-87860.62
-95481.168
-96349.565
-70365.621
-9180.0052
19079.423
31867.616
31481.183
22473.8
27853.722
20453.21
2021.5561
76.078471
2833.4372
3897.7474
3984.8612
2122.5018
-6247.2287
-4853.9794
9718.6352
6086.2173
7390.8369
5674.581
4233.6345
3742.2577
-687.57695
1240.5078
2798.8201
-1273.5569
3917.1987
2222.1139
2911.5316
2679.8365
-693.80955
1639.1072
-3229.0052
8637.5923
7194.7907
8368.4817
13361.483
5725.2619
8305.0726
13935.48
1648.3791
-2001.0221
15531.868
6902.6802
-5362.9134
-11174.165
18589.139
5310.0046
19058.158
26561.084
5990.1318
7952.6182
12681.353
24350.856
29479.286
22897.146
33385.314
24251.342
32169.221
39124.149
17631.321
13619.146
24626.486
25776.026
36143.251
7646.5146
13053.934
-10253.672
-45922.891
-41728.161
-58407.438
-84590.786
-90823.9
-103086.2
-113157.32
-74849.83
-11298.908
18075.826
30676.961
30599.178
21250.904
26518.431
21237.661
4289.3417
539.31786
3058.1886
3935.5268
4012.3576
2018.7701
-6510.5337
-5010.3761
9502.147
5857.3152
7215.813
5552.1925
4289.4811
3618.653
-500.36659
1404.5496
2169.7946
-1114.2511
4535.4508
3038.9106
3128.7552
2413.6994
-292.53926
1214.5508
-1880.3622
9466.45
7450.7387
8461.5064
12728.708
5666.1534
8705.2425
14200.013
1940.4088
-2169.4749
14661.159
6632.3339
-2705.4362
-10251.094
18495.06
6921.7174