/*--------------------------------*- C++ -*----------------------------------*\
| =========                 |                                                 |
| \\      /  F ield         | OpenFOAM: The Open Source CFD Toolbox           |
|  \\    /   O peration     | Version:  2.3.0                                 |
|   \\  /    A nd           | Web:      www.OpenFOAM.org                      |
|    \\/     M anipulation  |                                                 |
\*---------------------------------------------------------------------------*/
FoamFile
{
    version     2.0;
    format      ascii;
    class       volVectorField;
    location    "1.4e-05";
    object      U;
}
// * * * * * * * * * * * * * * * * * * * * * * * * * * * * * * * * * * * * * //

dimensions      [0 1 -1 0 0 0 0];

internalField   nonuniform List<vector> 
7500
(
(456.90903 -0.0025632535 -1.1011616e-16)
(463.42529 -0.0076701535 3.1706142e-15)
(456.92742 0.0049246512 2.878269e-15)
(462.88708 -0.033540983 -6.4051455e-17)
(458.08101 0.035413122 3.1595282e-15)
(461.21295 -0.046204149 5.0628993e-15)
(459.9062 0.078872822 1.7540658e-15)
(459.64942 -0.11065751 6.0338688e-15)
(461.2938 0.12875209 4.3501454e-15)
(458.71578 -0.092115127 1.7032645e-15)
(461.45648 0.059028033 1.2508754e-15)
(458.80626 -0.020094752 -1.9497838e-15)
(460.77832 -0.0076955827 1.0973478e-15)
(459.61803 0.012044317 1.1307466e-15)
(460.14591 -0.0050358222 1.8951561e-15)
(459.90856 0.0037113442 1.5584088e-15)
(460.09999 -0.011582772 1.0005869e-15)
(459.78506 0.033700285 -1.5271423e-15)
(460.27186 -0.036800465 1.1384595e-15)
(459.67304 0.014914124 8.3724305e-16)
(460.2423 0.013705706 -1.4945226e-15)
(459.9296 -0.037753203 1.0297883e-15)
(459.88499 0.045470203 9.7523593e-16)
(460.18161 -0.053025079 -1.7451819e-15)
(459.8316 0.054030367 1.3768165e-15)
(459.98702 -0.035644686 1.742242e-15)
(460.14191 0.017454663 6.5999691e-16)
(459.78016 0.0028398317 -1.5970002e-15)
(460.09124 -0.0074404723 -4.8755403e-16)
(460.06284 -0.0029432318 2.836829e-15)
(459.75933 0.05002719 -1.7304225e-15)
(460.27127 -0.11751408 3.6854893e-16)
(459.72515 0.12566572 1.0862432e-15)
(460.08932 -0.067219759 -8.7666325e-16)
(459.94866 -0.023554444 -6.1335741e-16)
(459.92567 0.084810433 8.7940526e-16)
(460.00426 -0.087950232 -1.3051419e-15)
(459.96687 0.054638699 8.5435461e-16)
(460.04858 0.024552395 6.4506676e-16)
(459.66584 -0.090255041 1.0097479e-15)
(460.17912 0.084765356 6.8146248e-16)
(459.50443 -0.026731154 8.8390192e-16)
(460.14019 -0.015104615 2.7610145e-15)
(459.75131 0.06871222 2.6491196e-15)
(459.66956 -0.11154136 3.6636542e-16)
(459.9592 0.1162933 -1.5531372e-15)
(459.86642 -0.054279213 -1.2414862e-15)
(459.72086 -0.024613834 -1.1061034e-15)
(459.8998 -0.012015325 6.244569e-16)
(459.6162 0.064227863 3.3865854e-16)
(459.85842 -0.0076178812 7.7858799e-16)
(459.87572 -0.022226895 2.5204103e-15)
(459.99613 0.04225395 4.6000665e-16)
(459.6461 -0.051304993 5.9471039e-16)
(459.87629 0.012844958 3.9853843e-16)
(460.10601 0.034656039 -1.3143698e-15)
(460.05752 -0.023255171 4.6221294e-16)
(459.92315 -0.028669803 6.2084047e-16)
(459.77443 0.038875447 2.8270235e-16)
(460.16052 0.0070908608 4.0985022e-16)
(459.75524 -0.044370074 4.6186024e-16)
(459.77881 0.02106546 1.7005672e-15)
(459.83259 -0.052063194 2.3671211e-16)
(459.9741 0.054408559 -1.2125158e-15)
(460.02556 -0.043946487 -1.4069002e-15)
(460.06087 -0.019308736 7.798653e-16)
(460.19651 0.065645501 4.5246706e-16)
(460.03109 -0.045021203 5.742175e-16)
(460.02854 -0.015182065 4.2190969e-16)
(459.66197 0.07787877 -1.1829802e-15)
(459.97361 -0.011961522 -1.5555609e-15)
(459.39643 -0.019037943 8.3639026e-16)
(459.70714 0.075114471 2.2553674e-15)
(459.78 -0.061352952 1.6421312e-16)
(459.84816 -0.022664671 2.0757959e-15)
(456.39157 -0.023266248 -2.1943133e-16)
(463.97338 0.012717692 1.6883811e-16)
(456.44456 0.024081282 -1.6158975e-16)
(463.35864 -0.090275607 2.0404752e-16)
(457.73761 0.14383791 -9.400211e-17)
(461.50597 -0.2332278 3.1759795e-16)
(459.7429 0.25424765 -2.508509e-16)
(459.76326 -0.23361696 4.316542e-16)
(461.2907 0.17379468 7.1574131e-17)
(458.70601 -0.092408587 2.0068903e-16)
(461.52851 0.068930738 7.6255679e-17)
(458.75633 -0.039085326 7.4335719e-17)
(460.84294 0.031197579 -1.0863022e-16)
(459.56376 -0.006628762 -9.6215046e-16)
(460.20946 -0.026615949 2.1813133e-16)
(459.84701 0.064529276 -6.7966907e-16)
(460.15174 -0.06436122 1.0987161e-16)
(459.76288 0.047148717 3.7908157e-16)
(460.25537 -0.022571969 8.6562604e-17)
(459.71495 -0.018610897 3.9701147e-16)
(460.19527 0.048168754 2.4209423e-17)
(459.96673 -0.071939525 3.7369357e-16)
(459.87349 0.085366836 2.4534184e-17)
(460.18274 -0.10555886 1.4044523e-15)
(459.85047 0.11529105 -2.617491e-16)
(459.98165 -0.10603605 7.8089456e-16)
(460.13368 0.087378181 -8.5626495e-16)
(459.82323 -0.056963354 -2.3573392e-16)
(460.04206 0.058566268 1.3123389e-15)
(460.1229 -0.087524093 2.831622e-16)
(459.73993 0.14702366 -1.4759676e-17)
(460.27045 -0.18820248 2.1933993e-16)
(459.74798 0.12891164 2.5009304e-16)
(460.06457 0.0065557232 2.5036342e-16)
(459.92374 -0.12603979 1.3239516e-16)
(459.93588 0.1428642 8.7037001e-17)
(459.97358 -0.074597323 3.1592231e-17)
(459.95797 -0.0043734735 -5.5453274e-16)
(460.05625 0.11231279 1.0853332e-16)
(459.67044 -0.14864375 2.7493529e-16)
(460.16684 0.071610906 1.8779793e-17)
(459.54165 0.051910833 -3.0797825e-16)
(460.1257 -0.10502589 -1.8732057e-16)
(459.74177 0.16625233 3.6023255e-16)
(459.68054 -0.21036521 1.8167382e-17)
(459.95903 0.17430841 -7.8532308e-16)
(459.81593 -0.048923974 4.9773829e-17)
(459.74116 -0.026552729 -6.3947386e-16)
(459.89293 -0.050243941 -1.9602945e-16)
(459.59956 0.098785745 6.2324813e-17)
(459.859 0.00026135302 2.1436144e-16)
(459.88432 -0.060537341 -4.8572448e-16)
(459.98133 0.027598281 2.7910416e-17)
(459.66225 -0.033218554 -1.2677431e-16)
(459.88812 0.0032106027 3.2826611e-16)
(460.10155 0.0061749539 2.3898295e-16)
(460.06451 0.037994509 1.2986584e-16)
(459.94409 -0.068123277 1.0774198e-16)
(459.76578 -0.0022412843 3.343429e-16)
(460.15653 0.075594502 -3.9538452e-16)
(459.76623 -0.079685015 2.3593719e-16)
(459.7767 0.058623043 9.004519e-17)
(459.82104 -0.047066762 3.6299728e-16)
(459.9814 0.017538999 1.5692475e-16)
(460.01998 -0.023318182 -4.0855392e-16)
(460.07806 -0.052110181 1.0028757e-16)
(460.18453 0.12263541 -2.6442744e-16)
(460.02665 -0.067088069 3.8599559e-16)
(460.0407 -0.041976801 2.0869887e-16)
(459.66556 0.15285782 3.7907836e-16)
(459.94681 -0.037397793 8.7715014e-16)
(459.41188 -0.0070457846 -4.6543704e-16)
(459.69593 0.14054861 1.6715063e-16)
(459.77701 -0.10037316 6.3929217e-17)
(459.8514 -0.05545062 8.8545652e-17)
(455.73739 -0.042977747 -2.2183105e-16)
(464.67146 -0.0025513094 -6.8023069e-16)
(455.79456 0.092662281 -7.5343196e-17)
(464.01002 -0.18932235 8.5886812e-17)
(457.2068 0.26569021 -2.1254729e-17)
(461.97694 -0.36551731 9.5995145e-16)
(459.42659 0.36169609 -4.5831903e-16)
(459.99056 -0.33112351 2.4877809e-16)
(461.21359 0.29508356 -1.5101078e-16)
(458.74808 -0.21137641 -2.0899445e-17)
(461.61739 0.16400033 6.0317742e-17)
(458.67514 -0.045309816 -7.1013129e-16)
(460.98804 -0.038766781 -8.2502909e-16)
(459.41008 0.087537344 6.7925643e-16)
(460.3593 -0.11180298 6.108094e-16)
(459.71612 0.1143875 -7.1965246e-16)
(460.2227 -0.064191524 5.2299627e-16)
(459.73258 0.0069569935 2.2258206e-18)
(460.2229 0.032146111 1.0335361e-16)
(459.75406 -0.068524738 7.0089301e-17)
(460.14842 0.092246512 -2.9361401e-17)
(459.9999 -0.092352967 4.9452338e-16)
(459.85395 0.084708343 6.0209274e-16)
(460.19466 -0.12847629 -1.7489472e-17)
(459.84063 0.17283218 1.7972786e-16)
(459.9967 -0.20104287 1.6061264e-16)
(460.09698 0.18709403 -3.3859308e-16)
(459.88329 -0.13574146 5.6291503e-17)
(459.98362 0.10512988 -4.3088138e-16)
(460.19911 -0.11241563 4.5881623e-16)
(459.72371 0.15532494 2.1177484e-17)
(460.27349 -0.19842155 -1.2796735e-17)
(459.76861 0.15210709 -2.7099786e-16)
(460.02157 0.0044745602 -2.3073781e-17)
(459.88947 -0.15887121 9.967748e-17)
(459.91306 0.18913131 -3.6206681e-17)
(459.93049 -0.10978551 -3.015917e-16)
(459.95203 -0.0098145404 -4.6656388e-16)
(460.03806 0.17564848 -1.1547765e-16)
(459.6881 -0.21706986 -2.0392375e-17)
(460.16284 0.080278533 1.1627426e-16)
(459.5605 0.088803067 5.4389027e-17)
(460.11606 -0.15231075 -3.4863557e-16)
(459.72358 0.23439579 4.2718835e-17)
(459.64912 -0.29037023 1.7636366e-16)
(459.99465 0.24813651 -1.1310863e-16)
(459.74012 -0.075107824 6.4153674e-16)
(459.7542 0.003600282 4.393795e-16)
(459.92444 -0.1371902 -3.4961072e-16)
(459.60764 0.1286397 2.771304e-17)
(459.8604 0.043120887 4.7529271e-16)
(459.90675 -0.098910827 8.839805e-16)
(459.99098 0.0068570075 -5.2707796e-18)
(459.67356 -0.043406802 1.8030916e-16)
(459.90258 0.022435295 6.367825e-17)
(460.10746 -0.040721577 4.5771569e-16)
(460.06785 0.082844144 -7.3634711e-16)
(459.94598 -0.078806486 -1.5267968e-16)
(459.77577 -0.0091706672 3.9536946e-17)
(460.14815 0.10135834 -3.2390992e-16)
(459.76229 -0.077293739 -3.6558874e-16)
(459.7781 0.041840016 -4.0811041e-16)
(459.80061 -0.016644261 -1.958989e-17)
(459.98929 0.026756538 -4.5371454e-17)
(460.01798 -0.060237497 -3.6042225e-16)
(460.12185 -0.13247917 -6.9488935e-16)
(460.19275 0.21096288 1.7718584e-16)
(460.01098 -0.060690347 1.6821424e-16)
(460.06439 -0.083727085 8.9348922e-17)
(459.67474 0.27106213 -1.4278148e-17)
(459.90256 -0.086534011 -5.0010788e-17)
(459.43873 -0.056838098 9.7292488e-18)
(459.66146 0.21063436 3.1466065e-17)
(459.75477 -0.10034075 3.7376019e-16)
(459.85431 -0.080749307 3.9402203e-16)
(455.0732 -0.063588227 -1.496983e-16)
(465.41472 -0.0085442144 2.0876949e-16)
(455.10937 0.12613379 -8.7664851e-16)
(464.70142 -0.23919385 -2.7556424e-16)
(456.63315 0.33209083 -3.0108842e-16)
(462.47674 -0.44564805 -2.7296158e-16)
(459.02498 0.46980733 -2.6823244e-16)
(460.25834 -0.48194879 3.6317312e-16)
(461.08258 0.44808189 -6.0148205e-17)
(458.7952 -0.30679064 -4.808142e-16)
(461.79361 0.19550577 -6.7349613e-16)
(458.51976 -0.024853901 5.3209023e-16)
(461.25184 -0.049116557 6.4465061e-16)
(459.17132 0.076509635 3.5459843e-16)
(460.55503 -0.067703123 2.4841571e-16)
(459.53093 0.063276622 6.2757553e-18)
(460.3149 -0.016495259 1.6024979e-17)
(459.64075 -0.011088848 7.2357469e-17)
(460.22775 0.022287388 -5.4682817e-16)
(459.72463 -0.068196493 1.3858098e-16)
(460.13447 0.10108948 -3.7727545e-17)
(460.01238 -0.10649963 5.0978339e-16)
(459.80776 0.10208134 -2.4055803e-17)
(460.2261 -0.17055895 8.0189375e-17)
(459.77617 0.2439223 3.3718449e-16)
(460.01263 -0.26532182 3.5874799e-17)
(460.05499 0.2200499 -3.2587651e-16)
(459.91969 -0.13155555 1.1890865e-16)
(459.9634 0.081817542 3.6095875e-16)
(460.27383 -0.10120579 -3.9810421e-16)
(459.70382 0.17830069 3.7615259e-16)
(460.33468 -0.24959811 7.3472312e-18)
(459.77222 0.20465467 -6.1591434e-17)
(459.97221 -0.013949776 3.5671895e-16)
(459.91609 -0.16022313 -4.3268685e-17)
(459.82391 0.19607199 2.572182e-17)
(459.89712 -0.081399479 8.9746221e-17)
(459.95417 -0.065605382 -1.9229037e-16)
(459.97495 0.22112313 3.2258679e-16)
(459.70985 -0.237008 -4.856802e-17)
(460.16086 0.073714214 -1.3299577e-17)
(459.54908 0.090027242 -4.3843386e-18)
(460.11927 -0.12506761 7.6722993e-17)
(459.70128 0.24320735 -3.2987973e-17)
(459.59569 -0.35289294 4.6182401e-17)
(460.05447 0.31686299 7.6948149e-18)
(459.68207 -0.099473631 -3.6818277e-17)
(459.77384 0.015213954 8.5339701e-17)
(460.00408 -0.15412942 -5.1010946e-17)
(459.67769 0.094011638 2.239242e-16)
(459.8803 0.055856135 -4.637277e-17)
(459.93616 -0.074944038 2.5587828e-17)
(460.01083 -0.0012572451 2.7284791e-16)
(459.67893 -0.10713046 -1.2642243e-17)
(459.91307 0.064348992 1.5460046e-17)
(460.09341 -0.070183479 -3.0836444e-17)
(460.05307 0.077562085 -3.0004327e-16)
(459.92616 -0.1109466 8.5935073e-19)
(459.75999 0.061000164 2.2841606e-16)
(460.10153 0.06954423 4.0984121e-17)
(459.7179 -0.026161192 2.8859779e-17)
(459.75884 0.0013489183 6.4251871e-17)
(459.7881 -0.021141483 -2.6063871e-16)
(459.97197 0.034342961 -2.745017e-16)
(460.01446 -0.059140699 2.3703501e-16)
(460.21274 -0.20265359 2.2138189e-17)
(460.24302 0.24220519 1.9904307e-16)
(459.99788 -0.039233422 -1.1231375e-17)
(460.10537 -0.10570509 -2.4865945e-16)
(459.69025 0.34778184 -2.4052437e-16)
(459.82035 -0.074319805 2.6753267e-16)
(459.46964 -0.081313321 -5.2303987e-17)
(459.62279 0.23283742 -1.2243669e-17)
(459.70037 -0.10922111 4.408247e-17)
(459.83717 -0.10006593 -1.8841432e-16)
(454.52914 -0.088389229 -1.1343939e-16)
(466.15709 -0.0051741499 1.2439773e-16)
(454.46949 0.1309188 1.4559008e-16)
(465.36926 -0.25620956 1.1457714e-16)
(456.07374 0.38703811 -1.3123184e-16)
(462.91197 -0.55171545 1.1157331e-16)
(458.59668 0.6135083 -1.8808807e-16)
(460.45654 -0.62861101 -2.6487386e-16)
(460.95925 0.52855719 -2.7356439e-16)
(458.79649 -0.33055197 6.4505981e-17)
(462.06978 0.21063928 -5.7862999e-16)
(458.28868 -0.061544692 2.1508608e-17)
(461.70489 0.029683902 -3.3579676e-18)
(458.73971 0.022949037 2.9872251e-17)
(460.929 -0.053631322 2.463355e-17)
(459.14846 0.086069693 -1.3519448e-17)
(460.50391 -0.046333909 3.8008703e-16)
(459.40004 0.015158192 2.729407e-17)
(460.28196 0.021129555 7.1329471e-18)
(459.58549 -0.085435984 3.6840386e-16)
(460.10836 0.10183857 3.1456985e-16)
(459.99349 -0.087071314 -8.5770538e-17)
(459.68923 0.09304162 -1.9885787e-17)
(460.2522 -0.19195838 -1.0700941e-16)
(459.65342 0.29682323 8.5923503e-17)
(460.00932 -0.34690874 3.3846238e-16)
(459.99567 0.29085143 -4.9375059e-17)
(459.94461 -0.19287079 -4.2989825e-17)
(459.94243 0.091782207 9.8186646e-18)
(460.37613 -0.067330714 -3.1250068e-16)
(459.65629 0.10764813 3.3184144e-16)
(460.44412 -0.17316522 2.150247e-16)
(459.81124 0.20024268 2.0545268e-16)
(459.93542 -0.063593078 -2.9782046e-16)
(459.99664 -0.079876411 -2.7131323e-16)
(459.74795 0.17529434 -2.850314e-16)
(459.86438 -0.097001283 -2.2081018e-16)
(459.94086 -0.020210063 -6.967932e-17)
(459.90587 0.17968971 9.3335167e-17)
(459.72082 -0.23421619 2.0585276e-17)
(460.15407 0.096567322 -5.8601307e-17)
(459.53407 0.061324716 2.7589881e-16)
(460.14381 -0.10024049 4.1412753e-17)
(459.68172 0.26090719 2.6885696e-16)
(459.53673 -0.37734586 -2.588026e-16)
(460.13597 0.29425416 3.4273629e-17)
(459.63488 -0.074533304 3.3558717e-16)
(459.78117 0.0044993577 2.8427556e-16)
(460.09676 -0.16343536 1.941494e-16)
(459.74378 0.12994361 -2.5030565e-16)
(459.9074 0.019160224 2.7831269e-16)
(459.96436 -0.066719916 2.2085156e-16)
(460.01257 -0.0041594973 -4.2032136e-18)
(459.6712 -0.097070215 1.8133332e-16)
(459.90289 0.039186671 1.3097905e-17)
(460.05643 -0.082125712 -1.8963055e-16)
(459.99197 0.11601138 -1.5008739e-16)
(459.86219 -0.17779463 1.7596446e-16)
(459.70655 0.068272593 -4.3724313e-18)
(460.00246 0.11600871 2.8325699e-16)
(459.61744 -0.0099823696 -2.6494709e-17)
(459.68299 0.00095950764 -5.8393422e-18)
(459.76383 -0.014695288 2.0484118e-16)
(459.9576 -0.047627359 -9.7132378e-17)
(460.00169 -0.053757738 2.3566472e-16)
(460.30203 -0.17622295 -1.1720452e-16)
(460.32586 0.19934195 1.547363e-17)
(460.0045 -0.0023545769 -6.6791781e-17)
(460.15227 -0.10771944 -1.7966585e-16)
(459.71892 0.3575163 6.3263333e-17)
(459.72838 -0.040970181 8.7948096e-17)
(459.4647 -0.055193847 2.4512195e-16)
(459.54945 0.25563907 -1.6989758e-16)
(459.60116 -0.10106695 4.790896e-17)
(459.7983 -0.11805341 2.274508e-18)
(454.94391 -0.13602079 -1.1928573e-16)
(465.85939 0.019155141 -1.0952017e-16)
(454.79581 0.14610617 -6.1319001e-17)
(465.07086 -0.30045575 1.3996265e-16)
(456.26058 0.48671464 -3.3487669e-16)
(462.67241 -0.66755465 5.6019858e-16)
(458.57381 0.71108251 -3.1893968e-16)
(460.31933 -0.69235587 -9.3942594e-17)
(460.8909 0.55770247 -1.2442713e-16)
(458.74733 -0.40867575 4.8008722e-16)
(462.25644 0.28922537 -4.2038564e-16)
(458.02224 -0.094124372 3.9128305e-16)
(462.31894 0.02369457 -4.2026155e-18)
(457.98762 0.087917641 -4.1161251e-16)
(461.71336 -0.082180388 9.8145827e-17)
(458.28534 0.07592199 2.1187182e-18)
(461.03781 0.018280042 2.3562864e-17)
(458.78073 -0.078029959 6.3413557e-17)
(460.49039 0.084346999 -2.262667e-17)
(459.21984 -0.086891069 8.764734e-17)
(460.0392 0.030006004 3.0631846e-16)
(459.89917 -0.021990748 -1.5932789e-17)
(459.43755 0.083896825 -9.4934014e-17)
(460.29861 -0.26172023 2.1943651e-17)
(459.44557 0.41941495 2.2583652e-17)
(460.03395 -0.4867512 6.6845326e-17)
(459.8971 0.37549107 2.8215422e-16)
(459.97781 -0.21232028 2.7037625e-17)
(459.84895 -0.005600557 -2.0694489e-16)
(460.47982 0.079518794 5.740865e-18)
(459.52991 -0.052942127 2.5821393e-17)
(460.5447 -0.064224897 -3.0186553e-16)
(459.81583 0.20029591 -8.6445488e-18)
(459.91465 -0.11451935 7.9130995e-17)
(460.10125 -0.034131798 2.9317511e-16)
(459.70038 0.17744529 6.7562105e-17)
(459.85547 -0.12600901 5.3090319e-17)
(459.95179 0.023487506 3.9472572e-17)
(459.78607 0.16025326 3.0212525e-16)
(459.71945 -0.24074921 -2.0220291e-16)
(460.12246 0.11542012 -1.9052384e-16)
(459.47949 0.026255932 7.8538797e-17)
(460.11874 -0.068511677 9.0518253e-17)
(459.70888 0.23455476 2.4162796e-16)
(459.41746 -0.30968184 3.6577845e-17)
(460.18625 0.25428549 2.3838151e-16)
(459.62943 -0.11597691 7.318528e-17)
(459.71573 0.010246561 7.1862316e-17)
(460.13639 -0.16566816 5.6787689e-17)
(459.79916 0.12123385 6.0535652e-17)
(459.89177 0.042922547 2.0805846e-16)
(459.93314 -0.039797524 2.2097154e-17)
(460.03648 -0.10728183 -1.4576874e-16)
(459.65512 -0.0042879721 8.5577209e-17)
(459.81787 0.035644314 2.3220433e-16)
(460.02418 -0.13191461 -1.8227229e-16)
(459.91364 0.14597584 1.0414378e-16)
(459.75552 -0.12621692 2.9565302e-16)
(459.64127 -0.043053676 3.1349337e-17)
(459.91379 0.15676035 -8.6708347e-17)
(459.51085 -0.0011551048 -1.3580777e-16)
(459.59267 -0.011676584 5.166638e-17)
(459.70293 0.058644136 2.6095032e-16)
(459.9274 -0.11411649 6.3508941e-17)
(459.96748 -0.12186934 -2.8706884e-16)
(460.32238 -0.12348295 1.7944768e-16)
(460.369 0.14026504 -1.3399163e-16)
(460.00359 0.079330255 4.1671696e-17)
(460.156 -0.075098304 2.2310484e-16)
(459.73201 0.34299617 9.7602841e-17)
(459.63892 -0.02706497 2.8153445e-17)
(459.44732 -0.043549934 4.9181264e-17)
(459.46679 0.21295767 4.398527e-17)
(459.46487 -0.078865983 -1.3061591e-16)
(459.73992 -0.11494471 3.6230642e-17)
(457.06499 -0.14260782 -4.9577485e-17)
(463.18215 -0.002941352 -1.0864788e-16)
(457.37006 0.19803958 -1.1730249e-16)
(462.39441 -0.36588259 3.1653187e-16)
(458.48567 0.57499084 -1.1799765e-16)
(460.80378 -0.72031602 7.2365179e-17)
(459.7168 0.74646901 -3.2829227e-17)
(459.51521 -0.72813312 7.32976e-17)
(460.93665 0.59719859 -2.579601e-16)
(458.71914 -0.4878124 2.3142157e-16)
(461.95765 0.3168278 -5.1489162e-18)
(457.98498 -0.097283506 2.7141306e-17)
(462.66259 0.049146302 3.6128653e-16)
(457.12674 0.051230909 -3.7213483e-16)
(462.88187 0.032200481 7.2859067e-17)
(456.79226 -0.022333593 -1.0022115e-17)
(462.29671 0.10653584 5.2230185e-17)
(457.45878 -0.11165032 3.3767173e-17)
(461.21272 0.06280657 -2.3516392e-16)
(458.51887 -0.016953804 6.1205388e-17)
(460.05153 -0.044965635 2.4829508e-17)
(459.80621 0.0085438078 2.6077184e-17)
(459.13569 0.074149687 7.8086074e-17)
(460.40695 -0.29325232 -3.5998851e-18)
(459.28643 0.45270076 -2.2912652e-16)
(460.09503 -0.52799541 3.1762617e-16)
(459.77617 0.37573712 4.5029366e-17)
(460.10672 -0.18976926 -2.2347549e-16)
(459.54201 -0.076708408 -2.124131e-16)
(460.66298 0.1417164 -1.3831076e-16)
(459.25201 -0.12713882 3.3346125e-16)
(460.57321 0.00026838095 1.574836e-17)
(459.81079 0.1748715 5.9186298e-17)
(459.85048 -0.13880989 4.7311888e-17)
(460.16071 0.044813146 -2.5053948e-17)
(459.78851 0.11836838 -1.0169747e-16)
(459.73387 -0.07314494 3.143123e-16)
(460.02874 0.0062612226 2.4767165e-16)
(459.65699 0.15190699 -1.0320154e-17)
(459.58825 -0.22319382 4.9666176e-17)
(460.06163 0.13992886 6.0686913e-17)
(459.48026 -0.022235414 -1.8568606e-16)
(459.90418 -0.059507913 2.4166044e-16)
(459.89482 0.22891078 2.3694509e-16)
(459.3347 -0.2732955 3.052549e-17)
(460.15466 0.209171 2.2535463e-16)
(459.71842 -0.063457817 5.4897877e-17)
(459.67523 -0.088869974 1.707826e-16)
(460.02321 -0.10599779 1.885973e-16)
(459.83645 0.10820426 -1.4446701e-16)
(459.8562 0.014876026 5.4649233e-17)
(459.74814 0.053064348 3.3819577e-17)
(459.99393 -0.18537452 -3.1096141e-18)
(459.68424 0.010605206 2.2301395e-16)
(459.62014 0.037214663 -7.9127457e-17)
(459.95596 -0.099005121 -1.4842498e-16)
(459.888 0.090693545 -1.2919335e-17)
(459.69767 -0.055205733 2.5345551e-17)
(459.56751 -0.074413945 4.5526584e-17)
(459.90772 0.11091413 -1.4035967e-16)
(459.47811 0.0041365465 9.0386264e-17)
(459.50169 -0.062233812 1.2469543e-17)
(459.59164 0.094588075 -1.1570266e-16)
(459.78732 -0.12231737 3.1033537e-17)
(459.77003 -0.10204798 7.9888996e-17)
(460.14381 -0.1182762 1.9895973e-16)
(460.23515 0.074537429 -1.833708e-16)
(459.87995 0.13306797 1.2312198e-16)
(459.97058 -0.023630891 -1.4093014e-16)
(459.65926 0.33227939 -1.0951135e-16)
(459.46707 0.033430283 1.3726369e-17)
(459.34129 -0.024622522 -8.7791685e-18)
(459.31637 0.15093068 -1.2135176e-16)
(459.25678 -0.13296228 4.9474585e-17)
(459.56062 -0.14506124 1.7093953e-16)
(459.81633 -0.069005483 2.847728e-17)
(459.3096 -0.11791845 -1.7590391e-16)
(461.20764 0.28983559 2.3682214e-16)
(458.26867 -0.41956374 -1.958149e-17)
(462.16666 0.57686403 -1.9190077e-16)
(457.80401 -0.66628024 9.6197078e-17)
(461.79142 0.70253456 2.6291872e-17)
(458.29421 -0.69268791 8.8518452e-17)
(461.03721 0.55946389 2.2291855e-16)
(458.84829 -0.44243837 5.1226427e-17)
(461.05949 0.26269215 2.0406342e-16)
(458.42015 -0.13548815 2.2555328e-17)
(462.26503 0.17371818 6.1307879e-17)
(456.78434 -0.087231503 -6.6695734e-17)
(463.72863 0.17048041 5.4762077e-17)
(455.48062 -0.05498128 -1.7803856e-17)
(463.83285 0.093696461 1.126211e-16)
(455.9876 -0.035442441 -7.2515778e-18)
(462.44815 -0.025981323 -2.1000288e-16)
(457.71148 0.085500789 7.3038954e-17)
(460.53144 -0.1580315 7.7450836e-18)
(459.65341 0.12752939 2.8460091e-16)
(459.30754 -0.061838118 4.930549e-17)
(460.38399 -0.20853243 -2.2405523e-16)
(459.46167 0.40256337 -1.7037917e-16)
(460.15396 -0.52658735 4.7267149e-17)
(459.63261 0.40517688 1.1493299e-16)
(460.43138 -0.23766073 2.6428146e-16)
(459.09202 -0.027875257 2.1587215e-16)
(460.91767 0.13429187 -2.1510015e-16)
(459.07712 -0.18395032 1.3210642e-16)
(460.49492 0.068208862 2.5648782e-17)
(459.82453 0.10726478 1.2418696e-18)
(459.94765 -0.14755111 -1.5588156e-16)
(459.91536 0.091748804 -2.1325318e-17)
(460.14286 0.13066017 -1.77917e-16)
(459.49709 -0.082172916 8.356041e-17)
(460.10642 0.030893064 -1.3989121e-16)
(459.69699 0.1282196 -2.0382121e-17)
(459.52104 -0.17975982 3.2375726e-16)
(459.97734 0.092807879 2.7301774e-17)
(459.76488 0.036365391 3.5626091e-17)
(459.60956 -0.15039871 4.05279e-17)
(460.23396 0.23337707 2.0794153e-16)
(459.30319 -0.15791801 -1.5801362e-16)
(460.09038 0.027351089 3.6187862e-17)
(459.76174 0.052079582 -1.584239e-16)
(459.58105 -0.047761259 4.5436542e-17)
(459.74372 -0.19685483 -2.5144487e-17)
(459.71966 0.15144358 2.3145705e-17)
(459.60692 0.055018398 -2.3172889e-17)
(459.43332 0.04828238 -1.0874324e-16)
(459.6771 -0.21022908 5.8577667e-17)
(459.63396 0.1101178 1.6300833e-17)
(459.23197 -0.10138681 3.6562143e-17)
(459.80947 -0.014317815 4.0541239e-17)
(459.73231 0.064902853 -1.5089927e-16)
(459.60921 -0.036473259 -1.4734377e-16)
(459.36143 -0.060657708 1.7888197e-16)
(459.785 0.12406887 3.1646466e-17)
(459.27966 -0.046920056 1.350996e-16)
(459.16954 -0.055705296 -7.2863026e-17)
(459.20809 0.058324587 1.7923648e-17)
(459.32522 -0.23011024 -7.6779146e-18)
(459.09538 -0.019815295 -1.2211484e-16)
(459.46732 -0.046072629 -5.5285582e-17)
(459.63492 0.02532161 4.2153313e-17)
(459.33341 0.19085017 -1.4755435e-16)
(459.247 0.01306288 -1.3270465e-16)
(459.20396 0.27237544 -1.4340447e-16)
(458.83056 0.11440569 -7.233818e-18)
(458.7392 -0.023938478 1.5614932e-16)
(458.59084 0.1553922 9.2442373e-18)
(458.43996 -0.13451977 5.5429157e-18)
(458.67921 -0.18560872 1.4323436e-16)
(461.36358 0.061572043 7.5291624e-17)
(457.30488 -0.28637 7.160228e-17)
(463.1283 0.38392258 1.1233033e-18)
(456.15831 -0.45996123 7.553751e-17)
(464.00594 0.52586838 1.2517963e-16)
(456.26008 -0.55270613 -1.6138023e-16)
(462.80769 0.56901021 7.0395108e-17)
(457.75439 -0.50890203 2.0840119e-17)
(460.9342 0.38505391 1.1256735e-16)
(459.03951 -0.31824967 1.6196628e-16)
(460.30805 0.2360212 -1.008234e-16)
(458.93406 -0.23624351 -1.75187e-18)
(461.42591 0.29825257 2.0172009e-16)
(457.47552 -0.2047546 1.7454567e-16)
(463.20524 0.23774147 2.0766898e-17)
(455.98049 -0.068021479 -1.3473969e-17)
(463.98234 0.097440408 -7.2287692e-18)
(456.01097 -0.00094795956 -1.1024784e-16)
(463.11987 -0.079286272 2.7372047e-16)
(457.50031 0.18256121 4.0168289e-18)
(461.39537 -0.30260998 4.2477075e-18)
(459.2093 0.2813309 -5.5859439e-18)
(460.31483 -0.17717686 7.8404547e-18)
(459.79844 -0.1760259 -4.1618222e-18)
(460.16925 0.42324847 2.8830729e-16)
(459.92564 -0.56771062 -5.02492e-17)
(459.75511 0.45047693 -1.6233511e-16)
(460.47619 -0.24120333 1.838984e-16)
(459.13378 -0.040755272 -8.741097e-18)
(460.75529 0.13772403 -2.0332553e-16)
(459.27726 -0.14199235 9.6444442e-17)
(460.35493 0.026429104 -2.6068945e-17)
(459.6239 0.065497402 1.6350975e-16)
(460.36115 -0.087724188 3.4006602e-17)
(459.25778 0.0052230352 -1.126066e-16)
(460.68451 0.18497608 -1.8236466e-16)
(459.21517 -0.04790132 -1.7118609e-18)
(460.19072 0.0066129246 1.7039803e-16)
(459.8387 0.09558719 3.5918994e-17)
(459.61762 -0.081936224 1.5022635e-17)
(459.8072 0.010376573 3.9761241e-17)
(460.176 0.064473045 -1.0945196e-17)
(459.10192 -0.13785778 1.1438233e-17)
(460.49615 0.16262839 -9.7061642e-18)
(458.96336 -0.0068057343 3.2448514e-17)
(459.74662 -0.077763902 -1.0176363e-17)
(459.43081 0.059492485 3.3638762e-17)
(459.1892 0.013083904 -3.2681372e-17)
(459.06286 -0.15884226 -1.5574908e-16)
(459.25267 0.042332223 3.5785924e-17)
(458.94151 0.15889708 -2.4382617e-17)
(458.81545 0.045533683 1.3308747e-16)
(458.82765 -0.30610385 -6.3369543e-17)
(459.17849 0.2660894 -6.2186053e-18)
(458.28441 -0.25977906 -2.8891102e-17)
(459.12506 -0.012458323 -2.2152584e-17)
(458.81396 0.091944926 -1.3688578e-16)
(458.93274 -0.031497418 -1.3112752e-16)
(458.29982 -0.1224482 -1.0546521e-16)
(458.82136 0.21391933 -3.3798164e-17)
(458.13567 -0.064541478 -2.7550027e-17)
(457.8886 -0.011168428 1.9668801e-17)
(457.72257 0.11087027 -1.4216514e-16)
(457.78047 -0.30905368 -1.2324002e-16)
(457.26503 -0.10850008 -9.8039432e-18)
(457.57334 -0.066809629 1.3222827e-17)
(457.71863 0.028969595 3.8370537e-17)
(457.56667 0.27038159 -1.1562628e-16)
(457.13989 0.083938619 -1.4049516e-16)
(457.38658 0.24505691 6.9926371e-18)
(456.6614 0.21843356 -3.2141554e-17)
(456.545 -0.017024518 -1.4419828e-16)
(456.11753 0.14818046 -6.9632664e-18)
(455.71864 -0.079433089 -1.5796489e-17)
(455.78846 -0.18698369 -1.6741483e-17)
(461.7525 0.1347091 -5.7873533e-17)
(457.27447 -0.36112034 -1.6043958e-16)
(462.63172 0.39904487 -1.6670301e-16)
(456.71096 -0.4352217 -3.2723764e-16)
(462.98785 0.45243235 6.1460866e-17)
(457.07771 -0.42797893 -7.1101944e-17)
(461.93227 0.40305044 -1.5641023e-17)
(458.45012 -0.29733813 9.6153635e-17)
(460.40046 0.21963261 1.4049437e-16)
(459.48689 -0.22135006 -2.2912679e-16)
(459.96165 0.18988888 4.8623689e-17)
(459.41873 -0.21714684 -5.739126e-17)
(460.74623 0.25698597 1.4905493e-16)
(458.76547 -0.20140943 1.1134768e-16)
(461.73127 0.24755154 3.6090836e-17)
(458.1228 -0.12522098 -4.1662421e-17)
(462.32749 0.14273567 2.6468726e-17)
(457.9226 -0.004243203 1.5873534e-18)
(462.23917 -0.12144534 2.9591401e-17)
(458.37701 0.26045013 1.3103242e-17)
(461.5218 -0.38169271 1.41761e-17)
(458.95707 0.31356649 3.0033662e-17)
(461.15638 -0.14746176 4.7496538e-17)
(458.92187 -0.1985775 -7.5014312e-18)
(461.09205 0.4045983 -1.3080885e-16)
(459.09578 -0.45385417 -1.7309793e-17)
(460.48757 0.29837871 5.7038568e-17)
(459.66809 -0.1007692 2.4683293e-16)
(459.89776 -0.059553194 4.2205374e-17)
(459.89629 0.038820493 6.658551e-18)
(459.74188 -0.031437493 7.2416032e-17)
(459.9413 0.042393611 -5.2615131e-18)
(459.30207 -0.091550204 -1.4842092e-16)
(460.55529 0.085080858 2.4379431e-16)
(458.51798 -0.088857508 1.1656179e-17)
(460.89809 0.13888193 1.347973e-17)
(458.77458 0.0072587594 7.4062968e-18)
(459.96358 0.0046493241 3.3365445e-17)
(459.54972 0.051272945 2.0179941e-16)
(459.39491 -0.082233775 -2.2760846e-17)
(459.0235 0.064960818 -1.7724626e-18)
(460.00239 0.053871709 1.7330509e-16)
(457.87411 -0.16327593 -7.3469144e-18)
(460.1637 0.25401833 2.7704835e-17)
(457.62434 0.044286767 -2.8731079e-17)
(458.75254 -0.22857557 2.6416723e-17)
(458.12682 0.27436915 1.5656935e-16)
(457.89268 -0.094754417 7.2313312e-17)
(457.52291 -0.14917773 5.9863056e-19)
(457.7174 0.12153227 -3.0037045e-16)
(457.16936 0.079079174 -1.2635227e-16)
(457.19238 0.098967153 -9.3817727e-17)
(456.51257 -0.31677051 1.6372983e-16)
(457.26528 0.28880513 5.0837472e-18)
(455.75282 -0.28833631 -4.1764059e-17)
(456.58647 -0.099785783 1.1966888e-16)
(455.8732 0.054957574 -1.661336e-16)
(456.32154 0.062853762 -2.486845e-16)
(455.02757 -0.16448037 1.240315e-16)
(455.57889 0.18831932 9.1392464e-17)
(454.58421 -0.0071398211 -1.7339482e-16)
(454.19936 0.033157926 -1.7099478e-16)
(453.5777 0.15604553 -1.6987407e-16)
(453.56069 -0.18082134 7.7437963e-17)
(452.70269 -0.12522292 -2.2697857e-17)
(453.18934 -0.27964744 -4.4472448e-17)
(452.89994 -0.12009821 -1.3923609e-17)
(453.2658 0.25999134 -6.5322767e-17)
(452.32179 0.029335494 -1.1880571e-16)
(452.58795 0.25702502 7.4171581e-17)
(451.4808 0.32763606 -1.3276277e-16)
(451.16602 0.082161447 5.8519026e-17)
(450.38605 0.28349341 -7.5514567e-17)
(449.55982 -0.025373446 -3.686806e-17)
(449.40827 -0.17586252 -5.0141393e-17)
(461.3153 0.17495554 -4.3958195e-17)
(457.81661 -0.36915014 2.6563949e-16)
(461.57407 0.37639063 4.917373e-16)
(457.89771 -0.38924002 1.4881388e-16)
(461.45432 0.37384077 -8.0212426e-17)
(458.60121 -0.32350454 1.7088597e-16)
(460.71658 0.27133111 1.3041882e-16)
(459.60888 -0.1677377 1.2412876e-16)
(459.80766 0.12980612 1.2648872e-16)
(460.27197 -0.1481397 1.0789741e-16)
(459.54595 0.11272635 2.1738589e-16)
(460.24251 -0.1630362 4.4936088e-17)
(460.104 0.22816169 1.0591097e-16)