/*--------------------------------*- C++ -*----------------------------------*\
| =========                 |                                                 |
| \\      /  F ield         | OpenFOAM: The Open Source CFD Toolbox           |
|  \\    /   O peration     | Version:  2.3.0                                 |
|   \\  /    A nd           | Web:      www.OpenFOAM.org                      |
|    \\/     M anipulation  |                                                 |
\*---------------------------------------------------------------------------*/
FoamFile
{
    version     2.0;
    format      ascii;
    class       volScalarField;
    location    "2.05";
    object      alpha.water;
}
// * * * * * * * * * * * * * * * * * * * * * * * * * * * * * * * * * * * * * //

dimensions      [0 0 0 0 0 0 0];

internalField   nonuniform List<scalar> 
2268
(
0.999976
0.999976
0.988704
0.988686
0.895507
0.930007
1
1
1
1
1
1
1
1
0.99522
0.98549
0.986355
0.999421
0.999422
0.99942
0.999568
0.999794
0.999794
0.998156
0.936099
0.885311
0.964754
0.895406
0.910794
1
1
1
1
1
1
1
1
0.996534
0.985496
0.986317
0.999385
0.999354
0.998599
0.998421
0.999247
0.999794
0.937433
0.929515
0.96161
0.96895
0.938597
0.959954
1
1
1
0.999998
0.999988
0.999969
0.99999
1
0.999506
0.99243
0.994453
0.99864
0.999208
0.9992
0.998188
0.998418
0.999794
0.863857
0.94433
0.98234
0.960876
0.917616
1
1
1
1
0.999931
0.999888
0.999888
0.999969
0.999997
0.999996
0.999992
0.999911
0.999862
0.999824
0.989938
0.993483
0.999764
0.999779
0.862787
0.97769
0.982551
0.917124
0.785226
0.999993
1
0.999999
0.999988
0.999698
0.99986
0.99995
0.999995
0.999996
0.999996
0.999996
0.999994
0.991025
0.972696
0.968731
0.986527
0.999746
0.999606
0.862386
0.982622
0.982657
0.95933
0.785213
0.873285
0.999999
0.996378
0.987092
0.998963
0.999985
0.99999
0.999994
0.999995
0.999996
0.999995
0.991075
0.968807
0.968731
0.968732
0.998384
0.999725
0.999558
0.859364
0.978107
0.981464
0.980771
0.902754
0.741876
0.971579
0.892745
0.963098
0.999915
0.999967
0.999985
0.999991
0.999933
0.999986
0.999995
0.992934
0.970963
0.969528
0.987002
0.998747
0.999682
0.999577
0.859364
0.907282
0.950719
0.979207
0.962012
0.743045
0.74141
0.782289
0.977846
0.999414
0.999915
0.999885
0.996535
0.998464
0.999993
0.999995
0.999634
0.997575
0.996929
0.996544
0.983776
0.964783
0.984319
0.995178
0.976085
0.941598
0.940936
0.94064
0.930581
0.930581
0.930607
0.935172
0.980966
0.992634
0.968723
0.902728
0.880368
0.880381
0.893906
0.904681
0.904001
0.897885
0.993552
0.947394
0.947246
0.992916
0.992252
0.951168
0.930607
0.947505
0.998835
0.999081
0.999077
0.992265
0.922827
0.880365
0.880368
0.880381
0.880406
0.880409
0.880412
0.993894
0.980684
0.991927
0.993246
0.993246
0.992722
0.956566
0.983417
0.999081
0.999083
0.999081
0.999076
0.999032
0.943704
0.88038
0.880388
0.880394
0.880401
0.88044
0.994781
0.994761
0.98812
0.981582
0.955787
0.996664
0.998028
0.999083
0.999083
0.999081
0.999075
0.999047
0.998587
0.997441
0.975407
0.914153
0.880402
0.880365
0.95926
0.994781
0.994781
0.945941
0.921048
0.748217
0.918125
0.999062
0.999079
0.999081
0.999079
0.999015
0.989568
0.96119
0.949788
0.976604
0.977389
0.91271
0.880289
0.977085
0.950293
0.961686
0.983621
0.836352
0.706896
0.708018
0.998986
0.999079
0.999079
0.999083
0.999026
0.964374
0.933165
0.933266
0.93327
0.964934
0.964491
0.920874
0.977964
0.925039
0.92385
0.984137
0.821984
0.707035
0.706896
0.818614
0.998982
0.997961
0.999057
0.999025
0.975911
0.933061
0.933171
0.933296
0.933396
0.976244
0.979083
0.979131
0.950757
0.92385
0.986447
0.936501
0.844167
0.733208
0.739863
0.896244
0.939534
0.999018
0.99901
0.998941
0.977455
0.933289
0.933396
0.958632
0.972475
0.979131
0.961781
0.921125
0.919364
0.975217
0.978355
0.977393
0.922537
0.821734
0.924545
0.990267
0.998211
0.994586
0.937345
0.966159
0.999974
0.999993
0.999994
0.999993
0.999987
0.979991
0.801337
0.610758
0.696757
0.935131
0.921161
0.905017
0.889402
0.871386
0.900409
0.89294
0.852592
0.772896
0.712412
0.682449
0.603464
0.767154
0.834069
0.847522
0.86888
0.886146
0.813017
0.557233
0.240279
0.115536
0.288727
0.781599
0.96061
0.213194
0.262432
0.245601
0.236286
0.24326
0.224204
0.146946
0.0972946
0.0754094
0.10283
0.162474
0.164827
0.118393
0.12537
0.192517
0.245913
0.150771
0.0267972
0.00309389
0.00192645
0.00337195
0.0370868
0.27147
0.000497451
0.000348731
0.000276375
0.00023714
0.00115246
0.000221479
0.000148779
9.49476e-05
0.000428326
0.00088078
0.00195523
0.0233442
0.0257963
0.0152204
0.00612693
0.00594588
0.00422441
0.00259183
0.00155836
0.00105771
0.000874852
0.000870802
0.000878056
0.000115294
8.24901e-05
6.37836e-05
7.2256e-05
0.000150353
0.00010029
3.88045e-05
6.03493e-05
0.00013721
0.000427401
0.00793984
0.0227691
0.00815434
0.00361504
0.00596387
0.00514073
0.0031063
0.00168362
0.00107066
0.000887627
0.00087083
0.00087083
0.00087083
4.6331e-05
3.68955e-05
2.80989e-05
2.53916e-05
6.60391e-05
2.76896e-05
1.44998e-05
1.5903e-05
3.15097e-05
0.000337766
0.00974773
0.012596
0.00320897
0.000614852
0.00400419
0.00835913
0.0085632
0.00871878
0.0059881
0.000941487
0.000887928
0.000872958
0.0028285
3.72971e-05
2.81205e-05
2.1284e-05
1.94726e-05
1.70113e-05
1.43235e-05
1.37721e-05
1.3585e-05
1.56259e-05
3.15858e-05
0.000619563
0.00526388
0.00474179
0.000586643
0.000587629
0.00058316
0.00115707
0.00497178
0.00665676
0.00377327
0.000903163
0.000891402
0.00286842
3.78609e-05
4.47351e-05
1.95113e-05
1.72539e-05
1.47268e-05
1.37721e-05
1.3549e-05
1.35351e-05
1.35756e-05
1.69485e-05
0.0001765
0.00404746
0.00503501
0.000589903
0.000583214
0.000580556
0.000580744
0.000580744
0.00578699
0.00728281
0.00405202
0.00138675
0.00265262
3.78609e-05
5.82237e-05
0.000229462
9.57768e-05
1.38567e-05
1.35707e-05
1.3521e-05
1.35026e-05
1.34688e-05
1.39288e-05
5.8312e-05
0.00222154
0.00416459
0.00060005
0.000597787
0.00058084
0.000580554
0.000581025
0.00222599
0.00728281
0.00728281
0.00127154
0.000251522
3.78609e-05
4.54661e-05
0.000412189
0.000380225
7.45084e-05
1.37981e-05
1.34463e-05
1.34114e-05
1.34754e-05
1.34725e-05
1.57611e-05
0.000209313
0.000727014
0.00138291
0.00179418
0.000699443
0.000581025
0.000606297
0.00523783
0.00728281
0.00658547
0.000152866
0.000126185
0.000395447
7.60828e-05
0.000192647
0.000566315
0.000603429
0.000375149
2.03199e-05
1.34098e-05
1.34113e-05
1.37121e-05
1.39473e-05
1.45051e-05
0.000933068
0.00275902
0.00273924
0.00266192
0.000594326
0.0014652
0.00652263
0.00683077
0.000553826
0.000126845
0.000114203
0.000447707
0.000400173
0.000261274
0.00041923
0.000598647
0.000598651
0.000591724
0.000325406
1.39236e-05
1.39457e-05
1.45256e-05
3.72858e-05
0.00103519
0.000670876
0.00272412
0.00272701
0.00163925
0.000616822
0.00188892
0.00143178
0.000181053
0.000142751
0.000129284
0.000310988
0.000500233
0.000591108
0.00060288
0.000604436
0.000602803
0.000604289
0.000600821
0.000403267
2.839e-05
1.54544e-05
1.71157e-05
0.000514896
0.000333567
0.00273062
0.00272375
0.00125589
0.000497369
0.000412653
0.000387324
0.000534311
0.000762368
0.000396026
4.08217e-05
9.45924e-05
0.000558113
0.000609596
0.000607373
0.000604436
0.000602803
0.000603211
0.00060239
0.000357024
2.19094e-05
1.7855e-05
5.34948e-05
0.00021731
0.00273423
0.00162849
0.000719012
0.000606634
0.000385722
0.000327379
0.00084976
0.000836625
0.000846026
4.04634e-05
4.05683e-05
7.22573e-05
0.000371759
0.000604436
0.000550916
0.000605337
0.000602498
0.000601739
0.000488035
5.40295e-05
2.00838e-05
3.52003e-05
0.000100684
0.00269937
5.97209e-06
0.000105513
0.000607143
0.000619836
0.000263533
0.000835316
0.000836816
0.000839079
4.04634e-05
4.04634e-05
4.05937e-05
4.52365e-05
0.00012842
7.33692e-05
0.000453052
0.000601071
0.000601944
0.000176604
4.21491e-05
0.000336549
0.00112317
0.00239239
0.00161919
1.66418e-06
2.85884e-06
0.00033598
0.000579245
0.000125324
0.000839678
0.00083873
0.000836997
4.04634e-05
5.85696e-05
7.90143e-05
4.44159e-05
4.57374e-05
5.0834e-05
7.61967e-05
0.000306895
0.000126168
4.21491e-05
4.2332e-05
0.00348059
0.00394614
0.00394614
0.000316757
4.84649e-07
5.45985e-07
7.39863e-06
6.14641e-05
4.68655e-06
0.000589274
0.00084117
0.000849434
4.17624e-05
4.17824e-05
4.30209e-05
4.35533e-05
7.11662e-05
5.89872e-05
6.16618e-05
6.71873e-05
8.8803e-05
0.00195667
0.00373882
0.00375318
0.00301545
0.000349828
4.08033e-07
4.80862e-07
4.4154e-07
5.48788e-07
1.07024e-06
1.00386e-06
2.0253e-05
0.000336095
0.000483759
4.17824e-05
0.000304567
0.00120809
9.53902e-05
7.70122e-05
6.1666e-05
6.64343e-05
0.00101479
0.00355647
0.00366714
0.0037054
0.001888
4.05067e-07
4.01778e-07
4.03718e-07
4.84502e-07
4.34304e-07
4.41422e-07
4.812e-07
5.44788e-07
9.79931e-07
2.92297e-06
6.18382e-06
4.2125e-05
0.000266627
0.00145066
0.000792172
7.52204e-05
6.89119e-05
0.0013435
0.00347003
0.00352577
0.00221724
0.00017844
4.05269e-07
3.99632e-07
3.90337e-07
4.11543e-07
4.86298e-07
4.35202e-07
4.34619e-07
4.51604e-07
4.92194e-07
5.45866e-07
1.00062e-06
1.0753e-06
6.94239e-05
8.73126e-05
0.00146592
0.000964111
8.46044e-05
0.000364901
0.00331893
0.0034021
0.0011496
4.70136e-07
4.43867e-07
4.25332e-07
3.88741e-07
3.61368e-07
3.54401e-07
3.60807e-07
2.03713e-07
1.42255e-06
3.57036e-06
3.21327e-06
1.54863e-06
1.44439e-06
1.20663e-06
0.000368693
0.00153521
0.0015044
0.0003758
0.000322698
0.00315448
0.00323993
0.00130962
4.75785e-07
4.70353e-07
4.70356e-07
4.44112e-07
4.21111e-07
3.32317e-07
2.30233e-07
2.1202e-07
1.95482e-07
2.84593e-06
5.46322e-06
5.50694e-06
5.50694e-06
5.50694e-06
3.37584e-06
0.000499353
0.00167295
0.00104351
0.000456752
0.00118487
0.00311147
0.00224353
1.48169e-06
1.39663e-06
4.75786e-07
1.02538e-06
2.01403e-06
4.75899e-06
6.31175e-07
1.94072e-07
1.10124e-07
1.24891e-07
1.18428e-09
6.68077e-07
2.56413e-06
5.03488e-06
5.0715e-06
2.13021e-06
0.00338557
0.00130962
0.000470627
0.000819176
0.00293657
0.00296833
4.6276e-06
3.0802e-06
1.07383e-06
6.06617e-07
2.36405e-05
0.000151621
0.000194569
7.2712e-05
1.37336e-06
1.49764e-07
1.1843e-09
1.09739e-09
1.05141e-09
1.04837e-09
1.04324e-09
1.04837e-09
1.0484e-09
0.00347513
0.00106775
0.000371528
0.00173186
0.00277831
0.00124116
9.07845e-06
1.06927e-05
1.39512e-06
4.00571e-06
0.000162427
0.000273391
0.000271651
0.000273451
0.000130738
1.07208e-05
1.25999e-09
1.18515e-09
1.09775e-09
1.05203e-09
1.11184e-09
1.04867e-09
5.57895e-09
0.00350888
0.00176219
0.000291995
0.0010538
0.00155303
9.62469e-06
1.36742e-05
1.76183e-06
2.11363e-06
5.15154e-05
0.000272221
0.00027182
0.000272022
0.000271278
0.000268588
3.45323e-05
1.8174e-09
1.76113e-09
1.50409e-09
1.159e-09
2.09581e-09
1.2198e-09
1.13314e-07
0.00352301
0.0034152
0.000178327
5.07957e-05
2.79956e-05
4.30434e-06
7.23098e-06
1.31277e-06
1.70665e-06
9.29577e-05
0.000272201
0.00027211
0.00027204
0.00027315
0.000186069
3.79012e-05
6.44308e-09
6.12743e-09
4.1612e-09
1.89057e-09
1.83826e-09
7.63524e-10
1.61768e-07
0.00352789
0.00352511
0.00125822
2.42972e-05
2.53911e-06
1.48693e-06
1.19926e-06
1.2013e-06
1.28723e-06
2.44217e-05
0.000189887
0.000271711
0.000272576
7.57744e-05
1.16663e-06
1.12507e-05
4.8693e-07
3.93895e-08
2.03629e-08
1.93163e-09
1.25181e-09
6.92516e-10
1.73581e-10
0.00352789
0.00352789
0.00344078
0.000226251
3.654e-06
2.38564e-06
1.18125e-06
1.18104e-06
1.20151e-06
1.39276e-06
2.93833e-05
0.000270766
0.000267773
1.17435e-06
1.1581e-06
1.16169e-06
1.67307e-06
2.75721e-06
1.38616e-06
1.02573e-08
1.01705e-08
6.21805e-10
1.04703e-10
0.00197412
0.00349954
0.00344665
0.0029982
0.000349908
5.04896e-05
1.18069e-06
1.18086e-06
1.18031e-06
4.38952e-06
4.57038e-06
0.000232033
0.000177511
6.26847e-06
1.16495e-06
1.1581e-06
1.77664e-06
2.13017e-05
1.96776e-05
1.63329e-06
1.43525e-08
2.26601e-09
1.45024e-09
0.0002048
0.00251347
0.00338413
0.00332655
0.00311657
0.000677252
1.18082e-06
1.18106e-06
2.88653e-06
6.24758e-06
4.91599e-06
0.000154894
6.413e-05
6.00111e-06
1.20057e-06
1.16495e-06
1.28701e-06
2.48137e-05
2.48123e-05
1.19253e-05
1.56899e-07
1.74902e-09
1.46525e-09
0.000171978
0.000199532
0.0024838
0.00325902
0.00317626
0.0014943
2.36734e-06
1.20739e-06
1.12222e-05
8.17536e-06
5.72785e-06
0.000158125
8.62365e-05
2.14976e-06
1.29676e-06
1.20057e-06
1.32326e-06
1.23381e-05
2.49323e-05
2.27865e-05
1.67881e-06
6.15613e-10
5.26242e-10
0.00022881
2.58097e-05
0.000217865
0.0025627
0.00291135
0.00101826
5.87271e-06
2.93847e-06
1.32027e-05
8.36144e-06
6.25127e-05
0.000156767
8.67991e-05
4.26241e-06
1.67389e-06
1.3109e-06
1.39613e-06
1.46423e-06
2.20885e-05
2.35301e-05
3.5816e-06
3.44353e-10
4.46058e-11
0.000271244
1.57535e-05
2.34074e-05
0.000347024
0.00037
0.000150575
2.68361e-05
1.31662e-05
2.5756e-05
2.97495e-05
0.000129485
0.000147911
1.79785e-05
5.18646e-06
7.60773e-06
5.46697e-06
1.46826e-06
1.4823e-06
1.64495e-05
2.27173e-05
2.30801e-06
2.67929e-10
1.56995e-11
0.000271244
6.12397e-06
7.28246e-06
2.27553e-05
2.25725e-05
2.14193e-05
2.40809e-05
2.65503e-05
2.62398e-05
7.61854e-05
0.000125299
6.1696e-05
6.2579e-06
7.39723e-06
1.17729e-05
1.17782e-05
2.68463e-06
1.56417e-06
2.07714e-05
1.44094e-05
4.61339e-07
4.35308e-11
1.69177e-11
0.000269831
4.97141e-06
3.56441e-06
6.81587e-06
8.16768e-06
1.67754e-05
2.71515e-05
2.79573e-05
2.69205e-05
8.83987e-05
0.000121103
3.68797e-05
4.95932e-06
8.69076e-06
1.17504e-05
1.1791e-05
3.27017e-06
7.81339e-06
2.13538e-05
9.78083e-06
5.70335e-12
7.19896e-12
1.72163e-11
0.00027057
5.84695e-06
2.79256e-06
3.10215e-06
4.84028e-06
2.33383e-05
2.84449e-05
2.241e-05
6.55026e-05
9.79502e-05
9.58147e-05
6.8019e-06
4.47107e-06
1.18334e-05
1.18132e-05
4.13906e-06
1.12013e-05
2.18557e-05
1.84897e-05
5.30912e-07
5.9792e-12
6.92978e-12
2.15423e-11
9.58391e-05
1.06326e-05
2.68728e-06
2.59596e-06
4.73239e-06
2.97874e-05
2.35043e-05
2.25407e-05
9.59278e-05
9.74967e-05
6.19967e-06
8.58348e-08
4.91121e-06
1.18334e-05
3.78416e-06
7.86407e-07
1.89756e-05
2.18557e-05
6.00979e-06
6.0813e-12
6.08128e-12
1.07697e-11
1.35062e-11
6.88972e-05
8.26429e-06
2.58379e-06
2.4666e-06
3.89688e-06
2.95817e-05
2.02109e-05
6.38731e-05
9.54691e-05
5.66827e-05
4.29382e-07
4.5733e-09
8.73309e-06
1.17726e-05
2.69563e-10
4.75969e-07
3.60008e-06
4.80722e-06
3.76704e-11
1.43949e-10
5.93452e-12
9.9425e-12
8.79073e-12
3.64447e-05
3.0623e-05
2.4526e-06
2.44331e-06
2.42495e-06
7.71187e-06
2.80893e-05
9.52013e-05
9.54691e-05
4.18878e-06
2.63748e-09
4.42461e-11
3.01377e-06
8.61105e-06
1.38077e-10
1.36338e-10
1.55577e-12
9.03344e-14
8.07832e-11
1.2629e-09
4.76463e-12
5.99141e-12
1.85323e-12
5.19759e-09
3.45066e-05
2.86258e-06
2.42495e-06
2.42495e-06
2.42481e-06
8.27054e-05
9.10932e-05
3.75574e-06
-5.5819e-11
-8.38594e-12
-1.67591e-14
2.20693e-14
5.55969e-07
2.24196e-11
1.36936e-08
3.23054e-08
9.03185e-14
8.18424e-13
1.64255e-12
3.2873e-12
8.16724e-13
1.6298e-13
1.91982e-120
3.11426e-05
2.61398e-05
4.33081e-06
2.42476e-06
2.10972e-05
5.05287e-05
-6.39091e-11
-5.65165e-12
-7.32777e-13
-6.00965e-14
2.7364e-14
4.30615e-19
2.70109e-24
1.12489e-12
6.35531e-10
2.73544e-08
4.77485e-16
2.70793e-12
2.96605e-12
2.81226e-13
2.0006e-14
9.85401e-15
0.96564
0.948289
0.951778
0.986917
0.982904
0.986909
0.987482
0.987482
0.587025
0.731504
0.818611
0.864445
0.000985554
0.00110724
0.0134389
0.0885724
0.000956614
0.00108919
0.00113703
0.00115718
0.00282126
0.00125673
0.00115946
0.00118144
0.0028695
0.0028692
0.0028689
0.0028892
0.00286609
0.00149422
0.000494536
0.00213096
0.000438313
0.000244047
0.000206697
0.000315277
0.00011445
0.000135915
0.000154549
0.00020027
8.40491e-05
9.89083e-05
0.000117166
0.000427062
6.94623e-05
6.11088e-05
0.000114154
0.000983631
5.98518e-05
4.73207e-05
9.47796e-05
0.00032684
6.54232e-05
4.2376e-05
4.0955e-05
3.29393e-05
0.000158515
3.64027e-05
3.29606e-05
2.90858e-05
0.000596552
5.23551e-05
2.95782e-05
2.81034e-05
0.000863449
0.000232715
3.42873e-05
2.86059e-05
0.000435467
0.000277874
0.000104217
3.15797e-05
3.44789e-06
8.54775e-06
6.48767e-05
7.17265e-05
1.01441e-06
6.64184e-07
5.66019e-07
3.26956e-05
6.44751e-07
4.24148e-07
2.16735e-07
1.76701e-07
5.4777e-07
1.37153e-07
5.83363e-08
3.89654e-08
1.10066e-08
-1.47252e-08
8.95969e-09
1.13401e-08
1.3499e-09
2.76416e-09
5.94664e-09
9.02391e-09
3.73107e-09
5.73052e-09
9.02577e-09
5.07368e-05
2.70465e-07
1.0056e-08
1.56679e-06
8.97698e-06
4.78781e-07
3.19106e-07
4.23267e-06
1.39509e-05
7.37767e-09
6.26759e-07
3.93644e-06
3.6758e-06
3.93272e-11
3.55659e-11
5.25337e-11
2.188e-10
7.02367e-11
3.51381e-11
3.32349e-11
3.91214e-11
1.59956e-10
3.58089e-11
3.17472e-11
3.4091e-11
1.68011e-10
2.21592e-11
2.22925e-11
3.84273e-11
4.56347e-11
1.80537e-11
1.29619e-11
3.36185e-11
1.45067e-11
1.21082e-11
7.25341e-12
1.35924e-11
1.59982e-11
1.20778e-11
5.9935e-12
5.85217e-12
1.56591e-11
1.04718e-11
4.87976e-12
2.55086e-12
1.52304e-11
8.0178e-12
3.25271e-12
1.25189e-12
1.06761e-11
4.95955e-12
1.68826e-12
5.26322e-13
4.5216e-12
1.72224e-12
5.17482e-13
1.52208e-13
6.98304e-13
2.33518e-13
6.73106e-14
2.05909e-14
5.70108e-14
2.15484e-14
6.49746e-15
1.70955e-15
5.04551e-15
1.87368e-15
3.82994e-16
4.668e-17
0.987412
0.984502
0.989168
0.989284
0.988916
0.924793
0.860732
0.907579
0.995827
0.999014
0.999004
0.998917
0.990599
0.971478
0.973239
0.982792
0.982792
0.970175
0.914876
0.987556
0.987412
0.93197
0.74964
0.74952
0.978139
0.993394
0.998368
0.998862
0.999004
0.998764
0.991566
0.989777
0.981884
0.98095
0.982792
0.982624
0.932717
0.915219
0.892824
0.770641
0.427277
0.169368
0.218406
0.316537
0.565343
0.711113
0.752798
0.697289
0.588639
0.553075
0.743387
0.895913
0.952663
0.970684
0.97423
0.946364
0.933024
0.133458
0.135697
0.0550858
0.0743878
0.0249577
0.00371705
0.0296061
0.0516079
0.056299
0.0370339
0.0245791
0.0231329
0.0231931
0.172277
0.310534
0.409226
0.512967
0.72579
0.929238
0.00118142
0.00125834
0.00214935
0.00359987
0.00221937
0.00186494
0.00172647
0.00172539
0.00172232
0.00170195
0.0153437
0.0244832
0.0117845
0.00259103
0.00179415
0.000923668
0.000950093
0.0846946
0.454765
0.00119077
0.0011991
0.00129059
0.00162037
0.00178312
0.00175223
0.00175424
0.00178675
0.00192073
0.00169819
0.00158894
0.0048581
0.0149
0.0133754
0.00507985
0.000920864
0.000861207
0.000950796
0.0011824
0.00289954
0.00154839
0.00148798
0.00160117
0.00173084
0.00184254
0.00190845
0.00257909
0.00258113
0.00177813
0.00155466
0.00155881
0.0143713
0.0206326
0.0162026
0.000861342
0.00071087
0.00200214
0.00424285
0.00279389
0.00272626
0.00239994
0.00189875
0.00249608
0.00258905
0.00258905
0.00212436
0.00182018
0.00266483
0.00263084
0.00152321
0.00131375
0.014707
0.000826941
0.00141904
0.000637056
0.00564383
0.0127745
0.00129803
0.00259387
0.00253958
0.0025319
0.00155203
0.00221894
0.00133203
0.000663875
0.000663875
0.000972524
0.00236191
0.00232371
0.00128642
0.000245686
0.000240601
0.00024099
0.000311122
0.000502869
0.0127745
0.000255028
0.000625531
0.00238286
0.00250898
0.00141775
0.0013312
0.00132993
0.00143751
0.00119295
0.000339277
0.000232842
0.00023338
0.000672902
0.0007292
0.000328806
0.000211221
0.000205758
0.000205758
0.0121971
0.00145696
0.00207938
0.00229557
0.00248226
0.00233317
0.00209989
0.00200803
0.00197323
0.00195222
0.00194549
0.000819305
0.00023338
0.000243801
0.000254973
0.00115102
0.00129088
0.000865161
0.000217246
0.00161523
0.00200913
0.00203322
0.0019144
0.00166505
0.00180747
0.00185626
0.00190746
0.00195222
0.00194418
0.00191415
0.00187693
0.00114608
0.000254818
0.000259055
0.000648277
0.00129088
0.00123011
0.000177842
8.94194e-05
0.000682747
0.00200913
0.00199802
0.000626778
0.000419075
0.00022954
0.000209737
0.00041131
0.00109073
0.00184047
0.00188381
0.00184332
0.00139253
0.000862927
0.000280374
0.000251306
0.000147083
8.94043e-05
8.9067e-05
7.94914e-05
0.00141804
0.00185203
1.91377e-05
1.91435e-05
1.91429e-05
1.91373e-05
1.96912e-05
2.13878e-05
0.00033712
0.00159907
0.00184178
0.00181876
0.00159117
0.00019207
9.31574e-05
8.95909e-05
8.9067e-05
8.9067e-05
2.81768e-05
0.00132501
0.000884802
1.91438e-05
1.91372e-05
1.91544e-05
1.93355e-05
2.38694e-05
7.66576e-05
0.00010663
0.000252002
0.00146548
0.00179672
0.001329
0.000733525
0.0010179
0.000457405
8.95692e-05
0.00051853
2.83223e-05
0.000692794
0.000186025
1.92746e-05
1.91544e-05
1.92968e-05
4.32332e-05
4.29105e-05
0.000419549
0.000546768
0.000376753
0.000388366
0.00147966
0.0015433
0.0015502
0.00155484
0.000655742
0.000108502
0.000711362
2.81039e-05
9.4534e-05
0.000187641
4.86327e-05
1.93138e-05
1.92767e-05
2.00015e-05
2.36832e-05
0.000138448
0.000591875
0.000653896
0.000388366
0.00071861
0.00155096
0.00156002
0.00155505
0.00116494
0.000144733
0.000711362
2.86131e-05
0.000103183
0.000187641
0.000157219
2.60674e-05
1.97273e-05
2.24795e-05
2.43335e-05
2.45208e-05
0.000254196
0.000699978
0.000402813
0.000117822
0.00102451
0.00156616
0.00156023
0.00152083
0.000219127
0.000662379
5.42779e-05
4.80567e-05
9.95852e-05
0.000115866
3.35634e-05
2.22379e-05
0.000183247
8.65288e-05
2.19376e-05
2.2423e-05
0.000632765
0.000663937
0.000106901
6.53625e-05
0.000933273
0.001137
0.000643668
0.000358292
9.60153e-05
5.58024e-05
5.04938e-05
1.3338e-05
7.90555e-06
9.62276e-06
0.000152469
0.000389033
0.000233543
2.31898e-05
2.19122e-05
0.000426589
0.000667203
9.04791e-05
2.78754e-05
4.72766e-05
5.72373e-05
2.55482e-05
0.000179819
3.36898e-05
4.02709e-05
4.91062e-05
2.88264e-05
4.58834e-06
7.90468e-06
0.000356152
0.000389033
0.000231015
2.65527e-05
2.31607e-05
0.000737408
0.000674921
5.62717e-05
2.5852e-05
2.55918e-05
2.43805e-05
2.34659e-05
2.6106e-05
3.12765e-05
4.72465e-06
3.48868e-05
1.26148e-05
2.953e-06
8.76606e-05
0.000421994
0.000399893
7.97107e-05
2.64648e-05
2.65258e-05
0.000980154
0.00108204
9.08407e-05
2.43128e-05
2.35076e-05
2.32155e-05
2.31776e-05
2.34115e-05
0.000170403
3.89937e-08
6.97535e-07
1.75609e-06
2.74504e-06
0.000215001
0.000433856
0.000319104
1.9051e-05
2.58778e-05
2.63641e-05
0.00112076
0.00115361
0.000163396
2.35082e-05
2.32154e-05
2.31445e-05
2.32056e-05
2.31337e-05
0.000355041
2.13498e-05
2.23796e-05
2.9626e-06
2.95292e-06
0.000352846
0.00044874
0.000158725
6.49434e-06
1.89523e-05
0.000653116
0.00115361
0.00115359
0.000209981
3.26566e-05
0.000349443
0.000241196
2.3412e-05
2.34987e-05
0.000358766
7.06869e-05
4.24341e-05
4.82173e-06
0.000260105
0.000496281
0.000461433
3.1165e-05
1.4038e-06
6.49277e-06
0.00113411
0.00115359
0.0011536
0.000173885
3.46479e-05
0.000776122
0.000778346
7.09005e-05
6.24358e-05
0.000360959
7.88081e-06
1.99528e-05
0.000352011
0.000500655
0.000492247
0.000198139
1.01658e-06
2.15941e-07
0.00027549
0.00111285
0.00103427
0.00080883
0.000120291
3.86704e-05
0.000778488
0.000779554
0.000217969
0.000334149
0.000360959
7.42426e-06
0.000343958
0.000500655
0.000498354
0.000238735
9.59438e-07
1.96054e-07
1.62784e-07
0.000353644
0.00110233
0.000102441
8.84251e-05
8.78151e-05
0.000643589
0.000779527
0.000779596
0.000323199
0.000343951
0.000226292
6.91353e-06
9.13295e-05
0.000239671
0.000135653
4.16848e-05
6.16663e-06
5.55733e-08
1.27233e-07
6.43685e-05
0.00110233
9.17414e-05
6.55171e-05
8.17544e-05
0.000780225
0.000779867
0.000779628
0.000240792
0.000332141
1.1925e-05
1.56119e-09
1.25228e-08
4.08668e-07
2.45767e-05
3.43588e-05
2.8693e-06
3.26044e-08
6.32007e-08
6.34108e-05
0.00109957
0.000602872
6.58427e-05
6.55199e-05
0.000776136
0.000779483
0.000682042
9.75872e-05
0.000259727
9.55203e-07
8.65763e-11
1.42294e-09
2.20485e-06
2.80716e-05
1.48826e-05
1.05606e-07
3.18062e-08
1.70216e-08
1.34296e-07
0.000317396
0.000950167
0.000949932
0.000930465
0.000764206
0.000714628
0.000140984
7.39154e-06
1.66258e-05
2.89487e-07
3.83966e-11
1.59266e-09
7.75548e-08
2.54795e-09
8.64756e-09
1.44861e-07
3.08473e-08
-8.43313e-11
5.32666e-10
5.53244e-09
0.000312438
0.000663433
0.000481661
0.000222079
0.000125512
3.75933e-06
1.279e-06
1.66004e-07
6.85475e-08
1.95648e-10
3.76945e-10
2.44681e-10
2.49354e-10
2.58008e-08
2.25318e-07
4.27913e-08
6.90699e-11
9.18309e-11
4.98378e-10
6.20781e-09
6.86704e-08
4.71787e-07
5.80239e-07
1.15227e-06
1.91555e-06
1.11793e-06
6.73923e-08
5.41723e-08
1.58031e-10
2.37487e-10
2.35655e-10
4.46236e-10
9.71504e-08
2.25602e-07
4.55022e-08
6.47899e-11
6.60743e-11
8.08117e-11
6.00819e-09
1.06498e-07
1.25e-08
5.25084e-08
3.50593e-07
1.87391e-06
1.24356e-06
5.42294e-08
5.30227e-08
7.53893e-11
2.31314e-10
1.85901e-10
1.17764e-08
1.22285e-07
1.97456e-07
6.50214e-11
6.47818e-11
6.5675e-11
6.29527e-11
1.27931e-10
2.80834e-10
9.73026e-10
6.93325e-09
6.5937e-08
7.20706e-07
8.84967e-07
5.30222e-08
5.30218e-08
3.14866e-11
1.05027e-10
9.37721e-11
2.78114e-08
1.06475e-07
6.6157e-11
6.59596e-11
7.49909e-11
8.21314e-11
1.19818e-10
1.9011e-10
3.02398e-10
2.87704e-10
2.02815e-09
1.03913e-08
1.60308e-08
7.61036e-08
6.39256e-08
6.93582e-08
8.61744e-12
1.74629e-11
7.93737e-11
2.38134e-08
5.27331e-08
4.71685e-10
7.37773e-11
2.53145e-10
3.19479e-11
4.86472e-11
6.18934e-11
6.62022e-11
1.33315e-10
1.28833e-09
4.55912e-09
7.01582e-09
1.60315e-08
6.52154e-08
7.14362e-08
1.92386e-12
4.90416e-12
3.19777e-11
2.32073e-09
6.24695e-09
9.72046e-09
2.48122e-10
5.91062e-10
1.94193e-11
3.73655e-11
5.21912e-11
5.5008e-11
5.77369e-11
1.58191e-09
3.30738e-08
6.31722e-08
6.63524e-08
8.40087e-08
3.21197e-08
3.70456e-13
1.07561e-12
2.28598e-12
2.30298e-12
2.34582e-12
5.71804e-11
9.59864e-10
6.36217e-10
1.24737e-11
2.44277e-11
3.47021e-11
4.0587e-11
4.47957e-11
9.39488e-10
4.35542e-08
8.33251e-08
8.40172e-08
8.39844e-08
1.3077e-09
1.36317e-13
4.9909e-13
1.37715e-12
2.5187e-12
3.42473e-12
4.06444e-12
4.3658e-12
5.08796e-12
9.35158e-12
1.43414e-11
2.1885e-11
2.99338e-11
6.35754e-11
3.80964e-10
1.38197e-08
5.54059e-08
8.31107e-08
7.71059e-08
3.98784e-10
2.57143e-14
1.3391e-13
5.34558e-13
1.41076e-12
2.64774e-12
3.79718e-12
4.45262e-12
4.08077e-12
4.78806e-12
7.07808e-12
1.1336e-11
1.94176e-11
3.9973e-11
1.43147e-10
2.85319e-10
3.53426e-09
1.62392e-08
1.29379e-08
1.05533e-10
2.4169e-15
1.95943e-14
1.06752e-13
3.6824e-13
8.67289e-13
1.56081e-12
2.52463e-12
2.45e-12
2.14917e-12
3.15603e-12
5.20049e-12
9.774e-12
1.705e-11
2.36871e-11
2.0266e-11
2.93691e-11
6.39373e-11
2.90633e-11
3.2439e-11
2.42887e-17
4.52293e-16
5.25907e-15
3.2422e-14
1.10112e-13
2.60187e-13
3.83591e-13
9.72789e-13
7.08749e-13
1.17196e-12
2.06744e-12
4.12566e-12
7.86928e-12
1.3469e-11
1.81589e-11
2.03586e-11
3.23054e-11
2.12064e-11
2.00694e-11
)
;

boundaryField
{
    leftWall
    {
        type            zeroGradient;
    }
    rightWall
    {
        type            zeroGradient;
    }
    lowerWall
    {
        type            zeroGradient;
    }
    atmosphere
    {
        type            inletOutlet;
        inletValue      uniform 0;
        value           nonuniform List<scalar> 
46
(
0
3.11426e-05
2.61398e-05
4.33081e-06
2.42476e-06
2.10972e-05
5.05287e-05
0
0
0
0
0
0
0
0
0
0
0
0
0
0
0
0
0
0
0
0
0
0
0
0
0
0
0
0
0
1.17196e-12
2.06744e-12
4.12566e-12
7.86928e-12
1.3469e-11
1.81589e-11
2.03586e-11
3.23054e-11
2.12064e-11
2.00694e-11
)
;
    }
    defaultFaces
    {
        type            empty;
    }
}


// ************************************************************************* //
