/*--------------------------------*- C++ -*----------------------------------*\
| =========                 |                                                 |
| \\      /  F ield         | OpenFOAM: The Open Source CFD Toolbox           |
|  \\    /   O peration     | Version:  2.3.0                                 |
|   \\  /    A nd           | Web:      www.OpenFOAM.org                      |
|    \\/     M anipulation  |                                                 |
\*---------------------------------------------------------------------------*/
FoamFile
{
    version     2.0;
    format      ascii;
    class       volScalarField;
    location    "2.05";
    object      p;
}
// * * * * * * * * * * * * * * * * * * * * * * * * * * * * * * * * * * * * * //

dimensions      [1 -1 -2 0 0 0 0];

internalField   nonuniform List<scalar> 
2268
(
673.86
673.76
681.59
675.391
653.162
665.295
668.112
666.591
674.779
678.746
682.507
684.943
687.432
688.632
686.783
682.142
673.454
666.095
660.64
655.542
655.072
660.781
667.076
614.232
615.71
626.584
612.268
594.734
609.313
608.766
606.499
615.502
620.002
623.867
626.121
628.628
630.26
628.87
624.178
614.574
605.899
601.268
595.968
594.655
600.487
608.209
558.126
558.853
567.979
547.491
531.068
548.449
547.834
545.435
555.906
561.454
565.507
567.379
569.967
572.291
571.37
565.996
555.541
546.132
541.94
535.72
533.624
538.674
548.976
503.682
499.661
504.185
484.916
470.437
484.034
484.808
482.397
495.591
503.045
507.327
508.951
511.519
514.489
513.602
507.436
496.793
486.837
481.289
474.034
470.858
474.206
488.996
447.998
437.52
438.507
427.996
420.819
419.34
419.568
417.411
434.513
444.601
449.114
450.584
452.93
456.063
455.199
448.845
438.025
426.844
419.631
411.675
408.22
410.099
429.903
390.609
374.264
374.073
375.125
379.339
361.111
353.866
350.766
373.573
385.86
390.438
391.95
393.706
396.387
396.072
390.58
379.564
366.642
356.912
349.02
347.807
353.25
374.238
334.847
314.423
312.847
323.113
330.289
316.727
296.298
293.496
314.28
326.663
330.918
332.5
333.617
335.57
336.179
332.654
321.523
306.089
293.197
286.458
290.539
301.334
320.721
281.74
262.524
258.319
270.912
276.958
279.938
256.99
249.936
258.043
266.627
270.118
271.076
271.949
273.906
276.246
275.178
263.823
244.329
227.113
223.345
236.501
251.847
266.946
772.818
768.018
756.325
751.924
765.946
773.076
767.284
763.488
788.537
833.587
872.315
886.357
887.929
889.185
890.087
891.075
896.008
907.073
920.346
713.036
708.776
689.709
683.595
708.016
723.294
713.404
700.733
721.009
771.522
811.585
827.791
834.101
837.193
837.498
837.202
841.036
850.065
865.994
658.961
647.991
621.162
618.685
649.71
664.495
654.547
635.223
655.149
707.913
749.01
766.739
775.834
782.501
785.551
786.092
789.366
795.046
811.92
603.369
587.054
562.163
548.6
564.869
582.066
585.966
569.434
591.288
646.888
687.886
704.665
714.152
724.082
731.587
735.533
739.76
743.878
757.639
544.127
525.911
512.148
478.194
457.97
477.019
510.097
510.362
536.832
593.148
630.374
644.342
653.268
663.864
673.955
681.794
689.227
694.628
702.144
483.242
470.961
460.792
421.081
379.946
388.608
433.884
466.195
496.752
547.215
576.642
587.289
595.512
606.093
616.588
625.892
636.425
643.833
646.857
423.143
426.755
410.628
373.839
329.228
328.016
372.748
431.742
473.572
504.951
523.475
530.557
538.45
548.828
560.593
571.052
582.235
591.136
591.529
361.294
384.523
362.425
325.96
281.658
279.302
328.503
395.093
435.874
457.904
466.53
471.79
480.263
491.485
503.898
515.763
528.438
537.646
536.316
198.053
190.036
182.74
189.435
194.612
207.247
188.231
175.092
171.018
171.162
173.89
177.612
175.858
179.184
184.555
186.434
174.707
145.014
117.205
131.506
182.099
189.428
189.399
85.9756
87.7011
84.4936
82.3647
82.0777
82.4659
76.0037
70.6996
63.8777
60.5225
69.172
78.7369
71.9653
69.6118
78.5622
84.9434
74.5053
43.4983
20.4323
21.4003
38.5696
70.8544
84.758
14.4679
17.5247
17.349
14.94
13.8248
12.1919
10.4241
9.29208
7.69978
9.90418
22.5675
29.6376
21.2686
14.2408
16.0671
19.8802
14.0862
6.04624
3.47372
3.01339
3.16107
4.88715
18.4291
1.28663
1.01801
1.31405
0.805397
-0.552991
-1.61978
-0.926714
0.0639994
0.293121
1.26292
5.87693
11.5189
7.49994
3.6171
3.3758
3.34702
3.31524
3.74268
3.0079
1.3534
0.872779
1.22248
1.51068
0.785513
0.571534
0.378078
-0.00570371
-0.527763
-0.953569
-1.19762
-1.16727
-0.983845
-0.308578
1.29318
3.57853
2.58062
1.79194
2.16698
2.39548
2.51058
2.96252
2.33759
1.13414
0.921906
1.11083
1.33722
0.288419
0.160054
-0.0670657
-0.429439
-0.812533
-1.18253
-1.46731
-1.5243
-1.3822
-1.069
-0.605642
0.337631
0.929978
0.926207
0.962815
1.02703
0.968198
1.52349
1.22322
0.895294
1.02393
1.27726
1.41321
-0.101203
-0.197098
-0.359151
-0.650157
-1.00364
-1.39113
-1.69596
-1.76654
-1.64996
-1.48777
-1.36259
-0.77241
0.281514
0.407643
0.319516
0.197891
0.0502113
-0.0654619
0.0132497
0.302411
0.871131
1.25604
1.35064
-0.379927
-0.48826
-0.612545
-0.843858
-1.13832
-1.48453
-1.78641
-1.87744
-1.80356
-1.66398
-1.52264
-1.22548
-0.324769
-0.0322996
-0.039725
-0.170359
-0.391675
-0.606466
-0.616073
-0.464664
0.262585
0.832182
0.968621
-0.573255
-0.710526
-0.815442
-1.01932
-1.25387
-1.53195
-1.80217
-1.92014
-1.88721
-1.75938
-1.59581
-1.37726
-0.874257
-0.502036
-0.466274
-0.640173
-0.92019
-1.08972
-1.20794
-1.35668
-0.926979
0.118688
0.227361
-0.712579
-0.859165
-0.986891
-1.14909
-1.33206
-1.54489
-1.76327
-1.88414
-1.8797
-1.77019
-1.61309
-1.44109
-1.19577
-0.884787
-0.828975
-1.02374
-1.37278
-1.6006
-1.91277
-2.41413
-1.74474
-0.689201
-0.499898
-0.84808
-0.946599
-1.09281
-1.24179
-1.38732
-1.54609
-1.69
-1.77537
-1.76775
-1.69863
-1.57814
-1.44089
-1.31639
-1.18791
-1.04241
-1.14482
-1.4643
-1.8214
-2.3109
-2.68064
-1.91678
-1.23804
-1.22662
-1.0063
-1.01831
-1.13567
-1.29572
-1.43668
-1.55066
-1.63361
-1.67249
-1.65782
-1.60226
-1.52124
-1.43798
-1.36371
-1.31507
-1.05178
-0.902284
-1.13755
-1.45574
-1.85022
-2.06209
-1.8285
-1.58478
-1.72223
-1.15557
-1.13112
-1.20261
-1.35459
-1.48979
-1.56936
-1.60008
-1.59607
-1.56745
-1.51437
-1.45454
-1.40402
-1.33807
-1.28836
-1.06749
-0.823603
-0.924955
-1.13487
-1.46841
-1.75732
-1.88618
-1.85863
-2.00879
-1.30662
-1.303
-1.37427
-1.49963
-1.59747
-1.6231
-1.58839
-1.5368
-1.49324
-1.44057
-1.39371
-1.36238
-1.32703
-1.27431
-1.13031
-1.0271
-1.04641
-1.15456
-1.41026
-1.73705
-2.03685
-2.17788
-2.26093
-1.48972
-1.50958
-1.5932
-1.70251
-1.76811
-1.73126
-1.61333
-1.50563
-1.44157
-1.38507
-1.35117
-1.3457
-1.34566
-1.31095
-1.26716
-1.27179
-1.27086
-1.3444
-1.53991
-1.84587
-2.18383
-2.42658
-2.49332
-1.6682
-1.70287
-1.78062
-1.89272
-1.93753
-1.84433
-1.67393
-1.52778
-1.43117
-1.36706
-1.33562
-1.35938
-1.43629
-1.45082
-1.50715
-1.47676
-1.49604
-1.56992
-1.72435
-1.96952
-2.28508
-2.57694
-2.69041
-1.81329
-1.83977
-1.9009
-2.02545
-2.05741
-1.9243
-1.75265
-1.5958
-1.46626
-1.41639
-1.40024
-1.4641
-1.68257
-1.71764
-1.74717
-1.68766
-1.70443
-1.76568
-1.87818
-2.06339
-2.34821
-2.64799
-2.81998
-1.94281
-1.96023
-2.00301
-2.08299
-2.10107
-1.99362
-1.84308
-1.68271
-1.55534
-1.59204
-1.74388
-1.89086
-2.02282
-2.03205
-1.95157
-1.8875
-1.89125
-1.93116
-2.0136
-2.16146
-2.40156
-2.6685
-2.87736
-2.0677
-2.07033
-2.0649
-2.10729
-2.13628
-2.07593
-1.96955
-1.86051
-1.8556
-2.00238
-2.14956
-2.25539
-2.27761
-2.22654
-2.15644
-2.10258
-2.08306
-2.10658
-2.16946
-2.28479
-2.47861
-2.71169
-2.91601
-2.19405
-2.18557
-2.12381
-2.15629
-2.22026
-2.2268
-2.20836
-2.23069
-2.36168
-2.48752
-2.505
-2.48239
-2.44525
-2.4006
-2.35243
-2.31101
-2.28949
-2.30047
-2.34858
-2.44072
-2.59219
-2.78297
-2.96706
-2.34492
-2.32732
-2.29117
-2.34082
-2.41199
-2.47724
-2.57482
-2.67708
-2.77336
-2.75506
-2.71404
-2.66495
-2.61643
-2.5775
-2.54123
-2.51048
-2.49291
-2.49985
-2.53944
-2.61708
-2.7366
-2.88788
-3.04443
-2.54532
-2.57073
-2.61791
-2.64696
-2.70563
-2.86886
-2.97533
-3.04336
-3.02236
-2.97218
-2.90424
-2.84524
-2.79808
-2.76297
-2.73576
-2.71532
-2.70444
-2.71221
-2.7466
-2.81241
-2.91057
-3.03277
-3.16134
-2.83388
-2.93631
-2.99143
-2.98922
-3.08045
-3.22736
-3.28228
-3.27978
-3.22525
-3.17325
-3.1095
-3.04184
-2.98797
-2.95375
-2.93439
-2.92399
-2.91945
-2.92959
-2.96159
-3.0195
-3.10286
-3.20396
-3.30954
-3.02093
-3.20959
-3.26264
-3.32869
-3.52424
-3.56122
-3.54166
-3.48044
-3.44072
-3.40097
-3.33712
-3.26173
-3.19637
-3.15286
-3.13323
-3.13082
-3.13072
-3.14144
-3.1702
-3.22036
-3.29141
-3.37632
-3.46394
-3.00954
-3.28594
-3.43215
-3.61801
-3.851
-3.82634
-3.74063
-3.6892
-3.67417
-3.65451
-3.59661
-3.51312
-3.43377
-3.37479
-3.34108
-3.33534
-3.33473
-3.34255
-3.36582
-3.40685
-3.46588
-3.53727
-3.61206
-3.0773
-3.40871
-3.59282
-3.83014
-4.00347
-3.99193
-3.92118
-3.89813
-3.9198
-3.9286
-3.88073
-3.78202
-3.68477
-3.61376
-3.56251
-3.5372
-3.52939
-3.53087
-3.54615
-3.57671
-3.62267
-3.68086
-3.74499
-3.203
-3.61439
-3.73237
-3.95187
-4.08545
-4.10194
-4.08504
-4.10258
-4.1638
-4.20717
-4.17077
-4.05245
-3.93015
-3.84526
-3.77822
-3.73012
-3.71131
-3.70539
-3.71166
-3.73117
-3.7639
-3.80822
-3.85981
-3.40045
-3.76259
-3.89468
-4.06269
-4.16037
-4.21718
-4.25107
-4.30031
-4.38921
-4.45452
-4.43635
-4.31036
-4.15604
-4.04977
-3.9676
-3.90667
-3.87772
-3.86558
-3.86434
-3.87419
-3.89487
-3.92473
-3.96103
-3.62803
-3.99909
-4.14595
-4.22095
-4.31793
-4.38368
-4.42647
-4.48439
-4.58415
-4.65473
-4.65249
-4.53845
-4.35635
-4.22727
-4.13679
-4.06853
-4.03111
-4.01378
-4.00728
-4.01014
-4.022
-4.04006
-4.06192
-3.87225
-4.24155
-4.47452
-4.52836
-4.54153
-4.59296
-4.60796
-4.64835
-4.74527
-4.81418
-4.819
-4.72468
-4.52914
-4.39117
-4.2977
-4.22537
-4.17998
-4.15695
-4.14606
-4.14374
-4.14918
-4.16005
-4.17245
-4.18617
-4.39597
-4.74592
-4.91082
-4.8553
-4.8029
-4.77618
-4.78991
-4.87102
-4.93587
-4.93979
-4.85688
-4.68413
-4.5475
-4.45414
-4.38249
-4.33267
-4.30407
-4.28762
-4.27962
-4.27996
-4.2851
-4.29152
-4.49733
-4.67313
-4.90047
-5.04209
-5.01646
-4.94116
-4.90023
-4.90178
-4.96156
-5.01846
-5.02213
-4.95327
-4.81241
-4.69317
-4.60922
-4.54465
-4.49586
-4.46245
-4.43824
-4.42244
-4.41632
-4.41613
-4.41755
-4.82905
-4.96151
-5.0672
-5.04016
-4.97954
-4.97887
-4.97217
-4.97978
-5.02259
-5.06866
-5.07198
-5.01965
-4.9194
-4.82979
-4.76683
-4.71838
-4.6763
-4.63772
-4.60194
-4.57406
-4.55884
-4.55246
-4.54895
-5.10371
-5.18886
-5.20871
-5.1279
-5.04935
-5.02553
-5.02482
-5.03449
-5.06141
-5.08848
-5.09686
-5.06516
-5.00704
-4.95833
-4.93027
-4.90881
-4.87702
-4.82981
-4.77598
-4.73156
-4.70512
-4.69189
-4.68331
-5.23187
-5.29288
-5.27516
-5.17469
-5.10295
-5.0789
-5.07676
-5.0795
-5.09107
-5.10452
-5.1111
-5.09968
-5.07993
-5.07773
-5.09582
-5.10811
-5.08441
-5.0232
-4.94742
-4.88628
-4.85028
-4.83113
-4.81794
-5.26985
-5.29305
-5.27888
-5.21485
-5.16358
-5.14098
-5.1329
-5.12535
-5.12173
-5.12574
-5.13056
-5.1322
-5.14116
-5.17937
-5.23975
-5.27917
-5.25835
-5.18654
-5.09972
-5.03113
-4.98982
-4.96691
-4.95069
-5.27564
-5.28208
-5.28464
-5.26367
-5.23348
-5.21422
-5.19861
-5.1809
-5.1664
-5.16425
-5.16717
-5.17326
-5.19486
-5.25157
-5.33068
-5.37927
-5.36006
-5.29264
-5.21666
-5.15513
-5.11812
-5.09532
-5.07917
-5.31659
-5.30278
-5.32983
-5.33488
-5.31833
-5.2989
-5.2761
-5.24993
-5.23189
-5.22769
-5.22806
-5.2346
-5.25594
-5.30831
-5.3798
-5.41614
-5.40286
-5.35455
-5.30124
-5.26314
-5.23692
-5.21813
-5.20392
-5.38579
-5.37382
-5.40396
-5.42132
-5.41179
-5.39267
-5.36454
-5.33178
-5.31741
-5.31585
-5.31678
-5.32617
-5.34411
-5.38381
-5.42767
-5.44407
-5.4374
-5.41396
-5.38863
-5.36771
-5.35089
-5.33701
-5.32563
-5.4767
-5.4737
-5.50168
-5.51751
-5.50862
-5.49321
-5.46421
-5.43115
-5.42182
-5.42333
-5.43065
-5.44554
-5.46067
-5.49284
-5.51114
-5.51145
-5.5084
-5.49816
-5.48623
-5.47457
-5.46366
-5.45386
-5.44541
-5.59002
-5.59521
-5.62391
-5.62008
-5.60919
-5.61302
-5.58095
-5.51978
-5.53374
-5.54675
-5.56112
-5.57877
-5.59207
-5.61692
-5.62163
-5.61367
-5.60869
-5.60087
-5.59234
-5.58424
-5.5767
-5.56996
-5.56413
-5.73685
-5.77887
-5.77371
-5.72116
-5.70423
-5.72948
-5.76041
-5.6688
-5.67619
-5.6874
-5.70385
-5.721
-5.72899
-5.73757
-5.74761
-5.73508
-5.72276
-5.71152
-5.70199
-5.69482
-5.68948
-5.68535
-5.68208
201.433
206.431
207.342
209.775
88.3345
88.5232
89.0958
103.895
37.455
45.9775
50.8968
55.902
1.63258
1.84244
2.80856
6.24936
1.37063
1.38327
1.36808
1.30678
1.34028
1.28835
1.20747
1.11731
1.16326
1.07016
0.997886
0.92128
0.663333
0.499657
0.399848
0.297419
0.0584482
-0.0278709
-0.124935
-0.255153
-0.598366
-0.670354
-0.776844
-0.910986
-1.4035
-1.56099
-1.74035
-1.87367
-2.0515
-2.31193
-2.5725
-2.78377
-2.41649
-2.71693
-3.00212
-3.23317
-2.59099
-2.8668
-3.1231
-3.32123
-2.70175
-2.89105
-3.08951
-3.25396
-2.80582
-2.92163
-3.05099
-3.17028
-2.90604
-2.98231
-3.07233
-3.15865
-2.98153
-3.04407
-3.11317
-3.18428
-3.024
-3.08442
-3.14879
-3.21615
-3.07372
-3.13418
-3.19621
-3.25905
-3.14075
-3.19602
-3.25215
-3.30737
-3.24289
-3.28907
-3.33327
-3.37405
-3.38
-3.41927
-3.45255
-3.47918
-3.52373
-3.55787
-3.58581
-3.60622
-3.66451
-3.69516
-3.72071
-3.73931
-3.79315
-3.8235
-3.85062
-3.87152
-3.90179
-3.92987
-3.95692
-3.98109
-3.99128
-4.0116
-4.03218
-4.05172
-4.07825
-4.08827
-4.09817
-4.10788
-4.18091
-4.18562
-4.18977
-4.19339
-4.29561
-4.29768
-4.29909
-4.29979
-4.41827
-4.41838
-4.41795
-4.41697
-4.54671
-4.54514
-4.54329
-4.54111
-4.67835
-4.67525
-4.67217
-4.66903
-4.81084
-4.80641
-4.8023
-4.79842
-4.94175
-4.93661
-4.93195
-4.92765
-5.07007
-5.06483
-5.0601
-5.05577
-5.19561
-5.19078
-5.18639
-5.18238
-5.31872
-5.31465
-5.31092
-5.30749
-5.44011
-5.43696
-5.43405
-5.43135
-5.56047
-5.55829
-5.55627
-5.5544
-5.68012
-5.67897
-5.67792
-5.67694
256.617
301.811
290.967
251.701
204.215
199.765
254.722
317.111
348.285
361.964
370.412
376.737
385.97
398.173
411.227
426.651
444.658
455.892
453.523
143.581
163.433
142.015
97.7671
80.7683
92.8634
134.427
175.063
201.305
217.122
227.06
228.476
238.356
256.703
275.022
298.224
327.564
346.163
342.953
63.2971
57.7591
34.1705
23.2101
21.1896
31.7846
36.7432
49.7203
61.5306
62.4672
58.6549
64.0345
76.6827
103.056
122.2
148.389
189.574
225.863
227.526
9.79339
8.68236
2.68641
5.18357
4.93033
3.58259
2.17083
3.2723
5.26264
7.40275
10.2867
13.9821
16.6587
20.2878
24.2023
29.8693
48.9454
92.6531
113.752
1.33855
1.20834
0.547929
-0.0641228
0.580021
0.101743
-0.232737
0.0661368
0.818979
1.95795
3.06793
4.86958
7.46625
5.85691
4.43761
3.15235
3.83062
11.0743
35.4724
1.00965
0.957055
0.961187
0.620418
-0.106549
-1.03788
-0.992645
-0.215396
0.628743
1.06867
1.25387
1.74115
3.61618
3.63799
3.06755
1.97052
1.93747
3.1596
4.54972
0.750654
0.716559
0.853875
0.693979
-0.029531
-0.960257
-0.983278
-0.283936
0.348962
0.729222
0.941932
1.02599
0.88566
1.65072
1.4053
1.15561
0.715733
1.36351
2.92262
0.218373
0.490979
0.806276
0.701421
0.145797
-0.557118
-0.72024
-0.301095
0.0879021
0.320862
0.375825
0.246536
0.0255279
0.297464
0.445864
0.411592
-0.261802
-0.453568
1.06421
-0.374517
0.0656376
0.698057
0.68625
0.186241
-0.246196
-0.460394
-0.369205
-0.191377
-0.0382642
0.00163148
-0.101346
-0.254245
-0.314436
0.108677
-0.0416642
-0.485537
-0.720817
0.338871
-1.01754
-0.559876
0.0916124
0.175427
-0.102762
-0.377789
-0.548169
-0.551002
-0.45717
-0.375826
-0.377562
-0.395202
-0.373823
-0.341792
-0.209758
-0.222111
-0.421091
-0.444447
-0.0740165
-1.89757
-1.38182
-0.814611
-0.732773
-0.766459
-0.856618
-0.89847
-0.859344
-0.774136
-0.67052
-0.6399
-0.665736
-0.673313
-0.60702
-0.477577
-0.388265
-0.375435
-0.209625
0.00988824
-2.90263
-2.31986
-1.71552
-1.62707
-1.56221
-1.51498
-1.44671
-1.35152
-1.21952
-1.07025
-0.990732
-0.954513
-0.896683
-0.807627
-0.708083
-0.557789
-0.358532
-0.113423
0.0716175
-3.44014
-3.04543
-2.34306
-2.20777
-2.10725
-2.01063
-1.91256
-1.81687
-1.68871
-1.52002
-1.38492
-1.32083
-1.19759
-1.02399
-0.878535
-0.721769
-0.532341
-0.279931
-0.100596
-3.53366
-3.33868
-2.64971
-2.50266
-2.43092
-2.32619
-2.20764
-2.10261
-2.00134
-1.89307
-1.76837
-1.69841
-1.57192
-1.29813
-1.06565
-0.898593
-0.761868
-0.564593
-0.379773
-3.44852
-3.39834
-2.85094
-2.72757
-2.70537
-2.61401
-2.48233
-2.35005
-2.23815
-2.14463
-2.07771
-2.02578
-1.92746
-1.63163
-1.32552
-1.14485
-1.04701
-0.913162
-0.735601
-3.33603
-3.36066
-3.04567
-2.94632
-2.97522
-2.89808
-2.76089
-2.60563
-2.48583
-2.38921
-2.32248
-2.30108
-2.24484
-1.99559
-1.65819
-1.47618
-1.39082
-1.31382
-1.18353
-3.28899
-3.3605
-3.22841
-3.16067
-3.19543
-3.14907
-3.01695
-2.84414
-2.71452
-2.631
-2.56002
-2.55643
-2.54117
-2.39767
-2.06659
-1.87261
-1.75951
-1.70222
-1.62826
-3.29198
-3.39416
-3.39961
-3.36139
-3.36963
-3.34304
-3.22092
-3.03949
-2.8931
-2.81884
-2.76497
-2.77588
-2.80976
-2.75439
-2.49146
-2.26889
-2.14985
-2.0652
-2.0323
-3.32059
-3.44498
-3.51644
-3.5087
-3.48232
-3.45342
-3.3528
-3.17639
-3.02717
-2.95077
-2.91833
-2.94056
-3.00239
-2.98108
-2.80037
-2.57863
-2.49252
-2.39092
-2.34937
-3.35858
-3.48028
-3.56042
-3.56116
-3.51264
-3.47418
-3.41087
-3.2608
-3.12702
-3.05536
-3.02917
-3.05206
-3.11165
-3.1024
-2.9534
-2.79255
-2.72618
-2.64995
-2.58444
-3.39481
-3.49183
-3.54336
-3.52478
-3.46421
-3.43091
-3.40374
-3.304
-3.2055
-3.14803
-3.12606
-3.14468
-3.18314
-3.17822
-3.05746
-2.95093
-2.89894
-2.8451
-2.79052
-3.43663
-3.49108
-3.49413
-3.44182
-3.37691
-3.36044
-3.36793
-3.32159
-3.27744
-3.25066
-3.2483
-3.26573
-3.27581
-3.26859
-3.1707
-3.10361
-3.05913
-3.02536
-2.98609
-3.51379
-3.52592
-3.48338
-3.39743
-3.31921
-3.31245
-3.34129
-3.33925
-3.35185
-3.36708
-3.42175
-3.46131
-3.43788
-3.39588
-3.29637
-3.24701
-3.21602
-3.20116
-3.18994
-3.62747
-3.61354
-3.53668
-3.41705
-3.31759
-3.28878
-3.32083
-3.36753
-3.43613
-3.51557
-3.65847
-3.72584
-3.66914
-3.58199
-3.46317
-3.39965
-3.38327
-3.37756
-3.38389
-3.7578
-3.73011
-3.62746
-3.47753
-3.34596
-3.29552
-3.32597
-3.41483
-3.53593
-3.71709
-3.95021
-4.03311
-3.92474
-3.79844
-3.69914
-3.60328
-3.58237
-3.56262
-3.56882
-3.89112
-3.85552
-3.73662
-3.55015
-3.39999
-3.3497
-3.38605
-3.49974
-3.65346
-3.91997
-4.21198
-4.27318
-4.1222
-3.9686
-3.9452
-3.8464
-3.81211
-3.76863
-3.75917
-4.00626
-3.97658
-3.84552
-3.64843
-3.50948
-3.46843
-3.51371
-3.63054
-3.78878
-4.03778
-4.29989
-4.33194
-4.23463
-4.11936
-4.12291
-4.06988
-4.04191
-3.97357
-3.94521
-4.07388
-4.04708
-3.94944
-3.78358
-3.68365
-3.64614
-3.68375
-3.78614
-3.92253
-4.10191
-4.27357
-4.28437
-4.27139
-4.26619
-4.29072
-4.28512
-4.26182
-4.1593
-4.10252
-4.11844
-4.09607
-4.03051
-3.93679
-3.86578
-3.83655
-3.86504
-3.94774
-4.06301
-4.20494
-4.26802
-4.25716
-4.30141
-4.41204
-4.46851
-4.50219
-4.44563
-4.32115
-4.24069
-4.19476
-4.17368
-4.13263
-4.08173
-4.03884
-4.01904
-4.04086
-4.10774
-4.21802
-4.35867
-4.39516
-4.38314
-4.43028
-4.56053
-4.63952
-4.6747
-4.5716
-4.44171
-4.36585
-4.29772
-4.28099
-4.25404
-4.22425
-4.19793
-4.18711
-4.20225
-4.25333
-4.35074
-4.47946
-4.57687
-4.63637
-4.65682
-4.72081
-4.77119
-4.75932
-4.63947
-4.52644
-4.47678
-4.41339
-4.40026
-4.38186
-4.36269
-4.34684
-4.34086
-4.35094
-4.38595
-4.45608
-4.55757
-4.66108
-4.73632
-4.7757
-4.8095
-4.82255
-4.77694
-4.67532
-4.60126
-4.5802
-4.53644
-4.52559
-4.51225
-4.49897
-4.48875
-4.48487
-4.49143
-4.51403
-4.55755
-4.62229
-4.69455
-4.75309
-4.7913
-4.81518
-4.81049
-4.76901
-4.71222
-4.68163
-4.68102
-4.66344
-4.65383
-4.64337
-4.63345
-4.62603
-4.62299
-4.62702
-4.64147
-4.66764
-4.70429
-4.74462
-4.77811
-4.80132
-4.81299
-4.80748
-4.78847
-4.77228
-4.77243
-4.78139
-4.79207
-4.7831
-4.7743
-4.76638
-4.76044
-4.75764
-4.75974
-4.76878
-4.78474
-4.80565
-4.82724
-4.84392
-4.85532
-4.8591
-4.85629
-4.85283
-4.85775
-4.87192
-4.88286
-4.92091
-4.91236
-4.9046
-4.89792
-4.89286
-4.8901
-4.89072
-4.89594
-4.90551
-4.91772
-4.93012
-4.94063
-4.94588
-4.94711
-4.94632
-4.94867
-4.95953
-4.97664
-4.98644
-5.04909
-5.04106
-5.0341
-5.02826
-5.02377
-5.02101
-5.02057
-5.0231
-5.02843
-5.03549
-5.04283
-5.04905
-5.05278
-5.05415
-5.05488
-5.05866
-5.06899
-5.08419
-5.09246
-5.17621
-5.16895
-5.16277
-5.15762
-5.15358
-5.15082
-5.14966
-5.15042
-5.15299
-5.15681
-5.16112
-5.16497
-5.16766
-5.16913
-5.17051
-5.17416
-5.18242
-5.19433
-5.20107
-5.30219
-5.29598
-5.2907
-5.28626
-5.28265
-5.27997
-5.27838
-5.27803
-5.27888
-5.28068
-5.28307
-5.2855
-5.28744
-5.28876
-5.29011
-5.29307
-5.2992
-5.30766
-5.31298
-5.42717
-5.42224
-5.41802
-5.41441
-5.41134
-5.40885
-5.40705
-5.40604
-5.40589
-5.40654
-5.40784
-5.40938
-5.41077
-5.41189
-5.41302
-5.41514
-5.41931
-5.42473
-5.4284
-5.55148
-5.548
-5.54498
-5.54231
-5.53994
-5.53784
-5.53606
-5.53468
-5.53398
-5.53409
-5.53476
-5.53568
-5.5366
-5.53739
-5.53815
-5.53938
-5.54177
-5.54478
-5.54701
-5.67542
-5.67355
-5.67185
-5.67024
-5.66868
-5.66718
-5.66572
-5.66436
-5.66326
-5.66296
-5.66313
-5.66351
-5.66399
-5.66448
-5.66497
-5.66565
-5.66668
-5.66757
-5.66807
)
;

boundaryField
{
    leftWall
    {
        type            calculated;
        value           nonuniform List<scalar> 
50
(
673.86
614.232
558.126
503.682
447.998
390.609
334.847
281.74
198.053
85.9756
14.4679
1.28663
0.785513
0.288419
-0.101203
-0.379927
-0.573255
-0.712579
-0.84808
-1.0063
-1.15557
-1.30662
-1.48972
-1.6682
-1.81329
-1.94281
-2.0677
-2.19405
-2.34492
-2.54532
-2.83388
-3.02093
-3.00954
-3.0773
-3.203
-3.40045
-3.62803
-3.87225
-4.18617
-4.49733
-4.82905
-5.10371
-5.23187
-5.26985
-5.27564
-5.31659
-5.38579
-5.4767
-5.59002
-5.73685
)
;
    }
    rightWall
    {
        type            calculated;
        value           nonuniform List<scalar> 
50
(
920.346
865.994
811.92
757.639
702.144
646.857
591.529
536.316
453.523
342.953
227.526
113.752
35.4724
4.54972
2.92262
1.06421
0.338871
-0.0740165
0.00988824
0.0716175
-0.100596
-0.379773
-0.735601
-1.18353
-1.62826
-2.0323
-2.34937
-2.58444
-2.79052
-2.98609
-3.18994
-3.38389
-3.56882
-3.75917
-3.94521
-4.10252
-4.24069
-4.36585
-4.47678
-4.5802
-4.68102
-4.78139
-4.88286
-4.98644
-5.09246
-5.20107
-5.31298
-5.4284
-5.54701
-5.66807
)
;
    }
    lowerWall
    {
        type            calculated;
        value           nonuniform List<scalar> 
62
(
703.288
703.189
710.688
704.488
679.52
692.667
697.541
696.021
704.209
708.175
711.936
714.373
716.862
718.061
716.071
711.145
702.482
695.507
690.052
684.954
684.489
690.204
696.499
667.076
608.209
548.976
488.996
429.903
374.238
320.721
266.946
261.881
265.795
266.924
271.554
772.818
713.036
658.961
603.369
544.127
483.242
423.143
361.294
802.106
796.744
784.037
779.617
793.63
800.465
794.673
790.877
816.061
862.457
901.528
914.867
914.499
915.098
916
917.385
922.635
933.68
946.773
)
;
    }
    atmosphere
    {
        type            calculated;
        value           nonuniform List<scalar> 
46
(
-5.78126
-5.90728
-5.87865
-5.75383
-5.74292
-5.84979
-6.01823
-5.73669
-5.74345
-5.75927
-5.77906
-5.79837
-5.79713
-5.79237
-5.8213
-5.80256
-5.78301
-5.76921
-5.75739
-5.74994
-5.7455
-5.74263
-5.74067
-5.73963
-5.73903
-5.73849
-5.738
-5.73724
-5.73628
-5.73531
-5.73429
-5.73319
-5.73204
-5.73088
-5.72982
-5.72911
-5.72904
-5.72904
-5.72904
-5.72904
-5.72904
-5.72904
-5.72904
-5.72904
-5.72904
-5.72904
)
;
    }
    defaultFaces
    {
        type            empty;
    }
}


// ************************************************************************* //
