/*--------------------------------*- C++ -*----------------------------------*\
| =========                 |                                                 |
| \\      /  F ield         | OpenFOAM: The Open Source CFD Toolbox           |
|  \\    /   O peration     | Version:  2.3.0                                 |
|   \\  /    A nd           | Web:      www.OpenFOAM.org                      |
|    \\/     M anipulation  |                                                 |
\*---------------------------------------------------------------------------*/
FoamFile
{
    version     2.0;
    format      ascii;
    class       volScalarField;
    location    "2.05";
    object      p_rgh;
}
// * * * * * * * * * * * * * * * * * * * * * * * * * * * * * * * * * * * * * //

dimensions      [1 -1 -2 0 0 0 0];

internalField   nonuniform List<scalar> 
2268
(
703.288
703.189
710.688
704.488
679.52
692.667
697.541
696.021
704.209
708.175
711.936
714.373
716.862
718.061
716.071
711.145
702.482
695.507
690.052
684.954
684.489
690.204
696.499
702.357
698.362
704.757
697.448
673.797
689.733
697.055
694.787
703.79
708.29
712.155
714.409
716.916
718.548
716.852
711.187
701.655
694.133
689.499
684.133
682.804
688.709
696.479
696.076
695.638
709.482
690.074
669.189
689.709
694.98
692.582
703.053
708.6
712.652
714.521
717.113
719.438
718.445
712.03
701.872
693.079
688.971
682.749
680.504
685.588
696.093
681.67
694.21
706.556
682.87
659.488
690.04
690.814
688.402
701.596
709.036
713.31
714.934
717.518
720.494
719.607
713.439
702.78
692.815
687.259
677.969
675.522
680.163
694.956
676.556
696.481
698.755
670.932
628.854
684.202
684.432
682.275
699.374
709.385
713.941
715.435
717.793
720.927
720.062
713.708
702.888
689.333
677.271
668.265
669.519
674.896
694.664
669.827
692.367
692.187
685.696
633.6
643.855
677.589
673.318
693.121
709.247
714.156
715.67
717.428
720.108
719.793
714.301
700.401
680.277
670.523
662.631
671.007
676.884
697.818
663.677
688.637
688.344
698.345
675.703
600.654
668.017
635.085
682.758
709.213
713.487
715.076
716.196
718.126
718.755
715.234
701.404
677.573
664.133
664.072
672.642
683.794
703.141
661.16
663.076
678.027
703.183
701.646
608.062
584.393
595.367
689.713
707.809
711.521
712.465
711.861
714.669
717.683
716.616
705.102
684.7
667.199
663.261
670.787
677.757
701.471
802.106
796.744
784.037
779.617
793.63
800.465
794.673
790.877
816.061
862.457
901.528
914.867
914.499
915.098
916
917.385
922.635
933.68
946.773
800.755
792.424
773.344
771.259
795.621
807.275
795.572
784.391
809.194
859.729
899.792
915.397
915.582
914.929
915.234
914.939
918.775
927.805
943.735
805.21
792.299
767.122
764.838
795.864
810.572
795.309
779.932
802.161
854.925
896.022
913.75
922.838
921.372
915.113
915.656
918.931
924.612
941.492
808.301
791.981
765.724
750.815
761.775
787.385
791.566
775.251
797.105
852.704
893.701
910.475
919.867
929.561
932.531
923.871
921.152
925.263
955.261
807.611
789.395
762.708
722.167
656.212
720.219
774.713
774.982
801.453
857.768
894.978
906.446
907.863
915.442
932.629
940.676
930.995
927.817
960.945
790.89
782.293
779.218
691.88
608.879
617.904
757.279
789.62
820.178
870.641
900.05
899.491
897.621
908.234
918.73
938.275
948.664
941.967
963.454
777.074
780.233
787.147
688.383
599.838
598.574
686.004
813.935
855.375
887.172
905.684
903.932
895.448
905.868
917.68
928.178
955.737
965.723
966.135
781.018
792.381
797.889
739.398
654.376
603.088
655.223
790.777
850.649
898.911
907.534
912.764
911.761
903.506
915.966
938.96
957.74
969.883
960.902
689.485
680.529
702.999
711.367
716.03
699.432
626.694
668.346
699.298
703.675
704.471
677.688
691.29
712.637
718.019
719.898
708.17
678.474
640.009
559.099
508.125
561.286
688.295
692.761
683.863
670.382
656.398
675.208
670.682
637.671
579.926
533.306
510.235
466.912
584.185
621.444
627.942
650.947
668.689
610.131
410.818
179.195
98.0822
229.211
585.807
717.501
182.198
223.812
210.456
200.752
205.099
188.544
126.278
86.2646
67.5346
91.2112
150.58
159.493
114.762
113.198
167.605
213.232
132.934
27.8143
6.68031
5.30579
6.58541
34.7127
231.793
2.64744
2.24375
2.47409
1.92981
1.40266
-0.509594
0.117449
1.05928
1.59115
2.97184
8.56161
33.6278
31.8356
18.3485
9.84897
9.65577
8.06066
7.00548
5.33216
3.223
2.57632
2.92234
3.21713
1.93888
1.69101
1.47822
1.1032
0.661828
0.184298
-0.123278
-0.0706735
0.192167
1.16726
10.531
28.1381
12.04
6.56128
9.36315
8.74118
6.75428
5.73629
4.47805
3.0855
2.8559
3.04482
3.27122
1.50152
1.36223
1.12492
0.759411
0.423399
0.00898022
-0.291073
-0.346436
-0.186262
0.481666
11.8444
16.0868
5.80631
2.79782
6.76023
11.8687
12.0462
12.7817
9.31856
3.14524
3.21184
3.44783
5.84884
1.2313
1.12362
0.952798
0.659467
0.302826
-0.0881112
-0.393652
-0.464471
-0.34527
-0.162605
0.717162
7.26762
7.65152
2.44515
2.35828
2.23092
2.81977
7.5997
9.84084
6.42947
3.31484
3.68465
6.31645
1.08323
0.984574
0.824764
0.590272
0.292253
-0.0553056
-0.357501
-0.448553
-0.374615
-0.230281
0.135776
5.88487
8.17646
2.20836
2.19151
2.05714
1.83608
1.62129
8.94427
11.2024
7.37935
4.19514
6.11445
1.01983
0.913783
1.07146
0.662573
0.302405
0.0238849
-0.246412
-0.364411
-0.331529
-0.202998
0.0286321
3.56446
7.04711
1.95316
1.98545
1.78556
1.50511
1.3363
3.74062
11.3465
11.7761
3.60361
2.14809
1.01043
0.876461
1.35697
1.14175
0.451738
0.138215
-0.0807534
-0.201675
-0.197133
-0.0876301
0.0732663
0.566286
1.67024
3.06907
3.807
1.79655
1.25111
1.0652
8.43469
11.325
10.8379
1.22455
1.36961
1.64266
0.974517
1.03622
1.55372
1.47438
0.908445
0.131654
0.0339614
0.0415864
0.111235
0.232153
0.370394
2.13327
5.51856
5.62878
5.38847
1.38116
2.57738
11.1084
11.2883
0.856448
0.773611
0.762485
1.75885
1.6561
1.27363
1.41507
1.61657
1.50259
1.40642
0.859221
0.279365
0.334969
0.417096
0.543792
2.52276
1.87604
6.05834
6.21336
3.90188
1.63219
3.66577
2.58136
0.427686
0.598298
0.435145
1.51271
1.92204
2.03537
1.90733
1.77529
1.6924
1.6647
1.66166
1.2885
0.579171
0.612695
0.666591
1.7449
1.42583
6.52176
6.75166
3.66503
1.91246
1.40663
1.06621
1.23629
1.72764
0.832432
0.942501
1.06221
1.9916
1.97739
1.87474
1.84278
1.87396
1.92643
1.96822
1.49118
0.814581
0.83716
0.949455
1.35582
6.93345
4.64954
2.66681
2.31606
1.58345
1.13071
1.95864
1.78925
1.7265
0.888886
0.869261
0.858018
1.43274
1.89856
1.81317
2.05539
2.15661
2.21893
2.01575
1.05842
0.986361
1.02092
1.20519
7.18412
1.02804
1.25631
2.32844
2.16193
1.04221
2.01014
1.77082
1.70924
0.840664
0.805987
0.728557
0.62764
0.783214
0.743797
1.82884
2.33157
2.43029
1.46976
1.1773
1.86274
3.68077
6.72376
4.80483
0.938636
0.922235
1.65083
2.08243
0.743765
2.14906
1.85493
1.73728
0.825827
0.84523
0.835906
0.623682
0.595075
0.741099
0.977015
1.71846
1.39004
1.227
1.24361
9.89244
10.8537
10.8186
1.59208
0.85015
0.833533
0.789647
0.814148
0.485063
1.68161
2.02015
1.8691
0.830019
0.812645
0.773157
0.6946
0.749945
0.825006
0.982656
1.15772
1.34257
6.27275
10.8598
10.751
8.65738
1.55996
0.711285
0.775557
0.771694
0.732077
0.651019
0.502982
0.314064
0.886988
1.07078
0.835599
1.56461
4.08561
0.945264
0.865106
0.882727
1.00239
3.75182
10.8332
10.9946
10.9539
5.78811
0.510488
0.561551
0.63165
0.685742
0.705114
0.681614
0.618848
0.503692
0.311088
0.0834148
-0.111828
0.840661
1.50228
5.0087
3.0605
0.910743
0.885845
4.61237
10.7766
10.8078
6.87517
0.926291
0.430949
0.468079
0.512696
0.560932
0.602572
0.623942
0.612954
0.564895
0.472879
0.321559
0.132103
-0.0517716
0.903094
0.974977
5.19427
3.62196
0.882088
1.66735
10.5332
10.6833
3.75227
0.283725
0.324664
0.373703
0.42211
0.460958
0.497201
0.527969
0.545067
0.541826
0.508751
0.430024
0.305454
0.153858
-0.00341184
1.78208
5.44215
5.29764
1.70289
1.47645
10.2599
10.4234
4.25679
0.1417
0.191861
0.259794
0.318717
0.365799
0.400634
0.427524
0.447902
0.458725
0.45933
0.433213
0.367536
0.269378
0.147176
0.0118785
2.09397
5.84616
3.72367
1.79871
4.09896
10.2799
7.37427
0.0128283
0.0670876
0.116058
0.181612
0.252519
0.315408
0.336069
0.353998
0.364121
0.368703
0.358165
0.328353
0.276665
0.201426
0.100448
-0.0148014
11.9352
4.66856
1.75492
2.87726
9.90104
9.97232
-0.112941
-0.0569986
-0.0241135
0.0140429
0.156425
0.66817
0.879956
0.507995
0.284391
0.282631
0.282229
0.271503
0.242742
0.192582
0.12153
0.0366257
-0.0509916
12.8118
4.02627
1.41919
6.04154
9.50735
4.0988
-0.170402
-0.113269
-0.131101
-0.102211
0.515637
0.991339
1.06454
1.12988
0.65916
0.240686
0.203415
0.195591
0.172321
0.131286
0.0722559
0.000869339
-0.073907
13.4274
6.70364
1.13912
3.68975
5.34345
-0.293376
-0.207805
-0.228354
-0.248735
-0.0767432
0.778841
0.876081
0.974073
1.04235
1.08376
0.252511
0.133943
0.132466
0.117189
0.0866217
0.0406671
-0.0175218
-0.0812441
13.9192
13.0998
0.73108
0.0289052
-0.190973
-0.29712
-0.269144
-0.309088
-0.368815
-0.0668295
0.647965
0.765937
0.887972
0.977064
0.714527
0.201853
0.0772414
0.0831596
0.0768809
0.0573591
0.0246349
-0.0196877
-0.0706706
14.3066
13.9336
4.93845
-0.0539779
-0.236724
-0.297643
-0.332658
-0.381894
-0.47046
-0.445314
0.219787
0.665696
0.8234
0.160214
-0.0493235
0.0510381
0.0379024
0.0482908
0.0494591
0.0395326
0.018853
-0.0110062
-0.0473062
14.6455
14.2744
13.7761
0.730857
-0.264277
-0.335141
-0.382788
-0.440707
-0.540387
-0.610201
-0.495021
0.592969
0.762997
-0.183622
-0.0932008
-0.024928
0.0145536
0.0362541
0.0372295
0.028815
0.016958
-0.00114433
-0.0230044
8.50406
14.4805
14.0275
12.1081
1.07817
-0.218818
-0.438945
-0.479329
-0.576251
-0.631816
-0.635883
0.404673
0.373402
-0.200989
-0.128747
-0.056439
-0.00847991
0.0957698
0.0999066
0.0271634
0.0149903
0.00406844
-0.00833788
0.980707
10.6636
14.0444
13.6328
12.7886
2.38844
-0.481814
-0.495547
-0.569344
-0.6198
-0.629418
0.0961484
-0.120033
-0.232484
-0.15969
-0.0881922
-0.0378512
0.0915606
0.108002
0.0607831
0.0100144
0.00420717
-0.00220972
0.675607
0.621317
10.4678
13.745
13.4056
6.06332
-0.475296
-0.481953
-0.497575
-0.567909
-0.58237
0.158567
-0.0176016
-0.269195
-0.189001
-0.124862
-0.0755234
0.00646186
0.0862151
0.0925493
0.00557672
-0.00162652
-0.00304615
0.748333
-0.30477
0.460547
11.1218
12.7636
4.17881
-0.405842
-0.426757
-0.423023
-0.491045
-0.248781
0.231001
0.0139433
-0.270769
-0.219548
-0.172742
-0.130277
-0.0913901
0.0379228
0.072347
-0.00290035
-0.0127661
-0.00925691
0.825232
-0.450554
-0.434738
1.15419
1.33982
0.341072
-0.234869
-0.308244
-0.276499
-0.284952
0.171452
0.289027
-0.258366
-0.269271
-0.229932
-0.218447
-0.205293
-0.158013
-0.0344385
0.0391986
-0.0294737
-0.027007
-0.018421
0.856192
-0.473494
-0.450235
-0.275718
-0.204857
-0.186326
-0.171443
-0.162367
-0.175428
0.0501328
0.278571
-0.0143651
-0.259902
-0.25225
-0.249407
-0.261669
-0.281479
-0.225632
-0.0579462
-0.0272505
-0.0579961
-0.0410534
-0.0278608
0.97039
-0.353359
-0.346098
-0.266101
-0.208196
-0.14333
-0.0843023
-0.0727913
-0.0742635
0.223606
0.379368
-0.0358334
-0.201535
-0.221416
-0.266773
-0.305993
-0.32702
-0.232899
-0.0795914
-0.067829
-0.0745486
-0.0516349
-0.0354179
1.12727
-0.212169
-0.230106
-0.207579
-0.168634
-0.0562301
-0.0149066
-0.0275906
0.203906
0.369438
0.355765
-0.0985413
-0.131878
-0.151518
-0.23073
-0.317958
-0.263183
-0.142116
-0.08309
-0.111985
-0.0776548
-0.0548517
-0.0386973
0.343654
-0.0822447
-0.150296
-0.155823
-0.128245
0.0204819
0.0108585
0.0320597
0.428811
0.441109
-0.0304009
-0.0684913
-0.064929
-0.0815778
-0.194603
-0.246419
-0.139274
-0.0760989
-0.104566
-0.0974763
-0.0712562
-0.052468
-0.0382503
0.269229
-0.0392763
-0.0994447
-0.117425
-0.100338
0.0545472
0.0331433
0.296685
0.478053
0.274614
-0.0236532
-0.0352915
-0.00708838
-0.0307254
-0.136806
-0.150699
-0.127513
-0.0976884
-0.0977748
-0.0768491
-0.0600275
-0.0461477
-0.0347744
0.136545
0.108041
-0.0723548
-0.0882326
-0.079442
-0.0354316
0.103829
0.499999
0.510779
0.0153862
-0.0145836
-0.0294857
-0.0283108
-0.0301935
-0.0950861
-0.0953988
-0.0923477
-0.0821042
-0.0701748
-0.0585138
-0.047604
-0.0378043
-0.0293558
-0.0487383
0.137054
-0.0668191
-0.0654066
-0.0545156
-0.0583464
0.418131
0.525734
0.0282959
-0.00549963
-0.019869
-0.0375254
-0.0508176
-0.0725989
-0.0803797
-0.0723504
-0.0672624
-0.0596215
-0.0510904
-0.0429959
-0.0354491
-0.0287072
-0.0228849
-0.070404
0.0638656
0.0407048
-0.0302018
-0.0240616
0.0563933
0.192066
-0.00235398
-0.00974844
-0.0209574
-0.0374094
-0.0545552
-0.0625499
-0.0711319
-0.0811703
-0.0686339
-0.0561663
-0.0450753
-0.0355455
-0.0283799
-0.0230343
-0.018907
-0.0156371
716.588
712.34
715.11
736.27
735.747
738.571
739.52
754.319
497.922
619.582
692.712
733.609
3.43665
3.75702
15.922
87.5947
3.39326
3.54288
3.57711
3.53664
5.76754
3.90343
3.70989
3.64519
6.13046
6.03698
5.96433
5.91376
6.10982
4.01398
2.50619
4.70854
2.26562
1.8814
1.72706
1.76334
1.25167
1.21529
1.1397
1.08139
0.531821
0.400835
0.254046
0.673462
-0.0083087
-0.284686
-0.444004
1.00429
-0.258963
-0.584887
-0.773558
-0.532648
-0.288757
-0.614322
-0.873691
-1.08912
-0.0535306
-0.521721
-0.728037
-0.901344
1.04264
-0.384124
-0.568352
-0.691198
1.81855
0.143983
-0.448861
-0.549584
0.838196
0.356601
-0.174268
-0.438531
-0.227437
-0.27365
-0.181197
-0.229477
-0.158605
-0.220087
-0.282398
-0.251772
-0.101438
-0.15738
-0.214137
-0.269478
-0.0786046
-0.126089
-0.170537
-0.21137
-0.0922178
-0.131572
-0.164777
-0.1914
-0.110783
-0.144917
-0.172845
-0.193248
-0.126361
-0.157002
-0.182543
-0.0218443
-0.128825
-0.160132
-0.181559
-0.175337
-0.111451
-0.140136
-0.152374
-0.139764
-0.0775354
-0.0954333
-0.103073
-0.12363
-0.0393333
-0.0493532
-0.0592525
-0.0689607
-0.0167991
-0.0215098
-0.0256636
-0.0292841
-0.0063026
-0.00837662
-0.00978344
-0.010483
-0.00377341
-0.00387927
-0.00345587
-0.00247285
-0.00702021
-0.0054512
-0.0035982
-0.00142064
-0.0134604
-0.0103646
-0.00728
-0.00414828
-0.0207621
-0.0163288
-0.0122207
-0.00833507
-0.0264777
-0.0213383
-0.0166703
-0.0123712
-0.0296006
-0.0243641
-0.0196257
-0.0152974
-0.0299421
-0.0251148
-0.0207294
-0.0167182
-0.0278634
-0.0237941
-0.0200644
-0.0166307
-0.0240591
-0.020908
-0.0179974
-0.0152999
-0.019223
-0.0170426
-0.0150236
-0.0131483
-0.0136797
-0.0125301
-0.011473
-0.0104958
783.376
827.019
818.661
779.457
731.775
693.152
713.969
801.324
879.528
894.906
903.349
909.627
914.427
916.44
930.432
950.947
968.954
973.465
941.624
794.054
813.811
755.912
591.691
574.613
737.14
788.742
832.65
859.218
875.129
884.908
881.588
890.291
903.444
921.149
945.563
974.793
960.552
945.828
763.226
662.011
369.543
156.621
193.001
280.44
480.231
607.357
651.809
609.279
520.386
497.916
659.592
805.404
868.988
909.288
953.25
967.719
958.935
131.902
132.823
53.6212
73.6473
28.5045
7.86724
29.9664
51.0486
57.2992
41.9438
33.517
35.8991
38.6304
177.649
307.121
402.414
515.701
752.682
958.54
3.59346
3.54272
3.80291
4.68955
3.90734
3.06286
2.58532
2.88308
3.63274
4.75067
19.9554
31.2002
20.6764
9.56823
7.32558
5.14094
5.84652
99.6159
506.375
3.54833
3.50539
3.61549
3.6567
3.11824
2.15114
2.1987
3.0136
4.01293
4.19509
4.25375
8.52763
22.034
20.2899
10.1109
4.19658
4.09443
5.42033
7.0787
5.75642
3.98832
4.0481
4.03347
3.47638
2.689
2.75056
4.31057
4.94609
4.29582
4.22174
4.31112
20.6137
29.4141
23.4836
3.54565
2.91266
5.21758
9.65232
5.56317
5.74053
5.59623
4.78549
5.07116
4.49917
4.33605
4.10072
4.06131
5.48389
5.49098
3.80169
3.28566
22.421
3.02037
3.82002
2.04527
8.90514
20.4659
3.15101
5.57833
6.1275
6.10391
4.10128
4.69155
3.11728
2.18386
2.36169
2.98811
5.15862
4.99706
3.25349
1.59734
2.01266
1.86291
1.52659
1.58535
21.4634
1.06566
2.13782
5.70395
5.99693
3.90887
3.49031
3.31781
3.49341
3.18163
1.8471
1.66884
1.65209
2.40244
2.52785
1.9958
1.78843
1.58039
1.55703
21.8158
2.48652
4.11243
5.06524
5.48006
5.18046
4.67422
4.46851
4.44557
4.49331
4.58492
2.60685
1.53594
1.54695
1.63317
3.36082
3.69959
2.9531
1.96327
4.67627
2.84279
3.47154
3.8491
3.4616
3.79832
3.93866
4.10465
4.28528
4.40194
4.49388
4.50236
3.14361
1.50029
1.59744
2.43989
3.81671
3.89997
2.13663
2.1529
-0.0157892
3.07647
3.75625
1.10275
0.780855
0.491999
0.549795
1.05544
2.56538
4.25887
4.48212
4.46385
3.6703
2.7668
1.72748
1.82513
1.80259
1.9377
2.11635
-1.20105
1.88364
3.50952
-0.300349
-0.228601
-0.123872
-0.00533386
0.100895
0.205833
0.99571
3.84474
4.43868
4.51548
4.29794
1.50999
1.46351
1.59254
1.78868
1.9735
-1.09798
1.91405
1.45605
-0.397653
-0.375469
-0.284074
-0.151977
-0.00934035
0.223117
0.385094
0.784028
3.60742
4.46228
3.68987
2.63597
3.46612
2.28385
1.5776
2.73486
-0.856413
0.719653
-0.186159
-0.488503
-0.517691
-0.44021
-0.245357
-0.0908737
0.936238
1.33933
0.996497
1.04587
3.731
4.13355
4.48759
4.68078
2.60023
1.35894
2.9415
-0.681192
-0.584366
-0.216337
-0.500849
-0.609905
-0.563646
-0.429686
-0.247551
0.172893
1.40541
1.63356
0.964285
1.81639
4.06912
4.42316
4.60453
3.72908
1.20112
2.71094
-0.554118
-0.458008
-0.238882
-0.281551
-0.638535
-0.628807
-0.499368
-0.313011
-0.166118
0.518874
1.75812
0.957017
0.165315
2.63167
4.33491
4.5417
4.55599
1.17926
2.39082
-0.382504
-0.524213
-0.45221
-0.399144
-0.601901
-0.604542
-0.0556386
-0.148506
-0.179124
-0.101376
1.63037
1.69493
0.0822139
-0.0121347
2.585
3.37395
2.08654
1.3936
0.704922
-0.284076
-0.421222
-0.609452
-0.625997
-0.572485
-0.118449
0.63309
0.330797
-0.14739
-0.0794502
1.12405
1.80116
0.0637387
-0.109139
0.0963072
0.286127
0.260313
0.785354
0.42573
-0.235259
-0.305471
-0.418539
-0.473502
-0.402866
0.687124
0.81407
0.434335
-0.0875713
-0.0403909
2.14883
1.9406
0.0249683
-0.0624196
0.0575546
0.160407
0.209619
0.271467
0.341737
-0.259155
-0.218308
-0.291722
-0.26994
0.0625979
1.13535
1.05804
0.092802
-0.0312704
-0.00430023
3.01094
3.31541
0.173746
-0.0292265
0.066124
0.132288
0.176647
0.211155
0.71483
-0.225913
-0.235879
-0.189861
-0.100672
0.674703
1.40028
0.994544
0.0110658
0.0208928
0.00726302
3.54708
3.61543
0.386536
-0.0309243
0.0676257
0.116757
0.147943
0.162566
1.26392
-0.141733
-0.124298
-0.113635
0.00596239
1.29839
1.65415
0.633287
0.0675488
0.0414317
2.12419
3.68774
3.62029
0.45974
-0.057703
1.14121
0.835661
0.10949
0.115498
1.25228
0.0301864
-0.0419866
-0.0722804
0.979976
1.94633
1.8736
0.322326
0.128263
0.025158
3.82967
3.66539
3.58254
0.228008
-0.137843
2.58228
2.686
0.206368
0.196201
1.24516
-0.198946
-0.119168
1.21495
1.94541
2.0648
1.03875
0.280997
0.164383
1.01807
3.81601
3.23645
2.3502
-0.0186428
-0.163748
2.56714
2.66984
0.648918
1.11757
1.22515
-0.189639
1.11374
1.83785
2.02623
1.18259
0.323729
0.275555
0.158597
1.33819
3.92277
-0.123654
-0.208751
-0.113746
2.10498
2.61592
2.66921
0.969836
1.11672
0.699774
-0.133131
0.223715
0.901346
0.66052
0.393046
0.291692
0.230186
0.128072
0.24286
4.1217
-0.00115996
-0.114488
-0.0380276
2.69806
2.67213
2.67679
0.593352
1.05303
-0.142177
-0.0795222
-0.0571067
0.0100486
0.201286
0.311765
0.213946
0.174001
0.0914305
0.231759
4.27061
2.2034
0.0474252
0.00186769
2.75849
2.71552
2.28868
-0.012963
0.765726
-0.197926
-0.0306514
-0.0095615
0.0406522
0.199157
0.187183
0.145509
0.123378
0.0564362
-0.053355
1.12579
3.72159
3.73263
3.60451
2.78264
2.4974
0.0758942
-0.376742
-0.208439
-0.200534
-0.0084153
0.00832311
0.0355935
0.0650589
0.0914116
0.10281
0.0871839
0.035973
-0.0614386
-0.190135
1.05123
2.49575
1.69641
0.520106
0.055937
-0.453907
-0.34469
-0.236429
-0.187184
0.00110848
0.0142381
0.0326389
0.0518039
0.0677735
0.0746274
0.0637425
0.0285491
-0.0415773
-0.143069
-0.246552
-0.321516
-0.359118
-0.39244
-0.402966
-0.353993
-0.255889
-0.186469
-0.165463
0.00325571
0.0141061
0.0274453
0.0407245
0.0513867
0.0558403
0.0484642
0.0256653
-0.0178624
-0.0825975
-0.15483
-0.21291
-0.25155
-0.275253
-0.269205
-0.220824
-0.166889
-0.141689
-0.141092
0.00145017
0.0110572
0.0215202
0.0314887
0.0394237
0.0428184
0.0378678
0.023421
-0.00275668
-0.0393986
-0.0797279
-0.113225
-0.136425
-0.148067
-0.142288
-0.120229
-0.103271
-0.107298
-0.116254
-0.00198905
0.00698474
0.0157838
0.0238341
0.0301541
0.0324404
0.0303368
0.0213033
0.00533884
-0.0155642
-0.0371567
-0.053835
-0.0652364
-0.0690072
-0.0661612
-0.0626757
-0.0673068
-0.0815379
-0.0924495
-0.00563004
0.00291651
0.0106733
0.0174711
0.022675
0.02518
0.0245531
0.0193402
0.00976659
-0.00244336
-0.0148409
-0.0253526
-0.0306056
-0.0318312
-0.0310181
-0.0333586
-0.0441725
-0.0610465
-0.0708112
-0.00861742
-0.000588982
0.00637145
0.0122243
0.0167284
0.0195137
0.0199047
0.0173742
0.0120423
0.00497796
-0.00235498
-0.00857641
-0.0123093
-0.0136678
-0.0142438
-0.0178689
-0.0281823
-0.0432939
-0.051829
-0.0105486
-0.00328473
0.00289306
0.00804363
0.0120879
0.0148496
0.0160107
0.0152504
0.0126793
0.00885807
0.00454696
0.000691654
-0.00199314
-0.00346521
-0.00461784
-0.008069
-0.0163249
-0.0282277
-0.035396
-0.0113329
-0.00511804
0.000160064
0.00460086
0.00820626
0.0108896
0.0124812
0.0128303
0.0119781
0.0101767
0.00778463
0.00535901
0.0034214
0.00209885
0.000819188
-0.00191852
-0.0079047
-0.0163954
-0.022116
-0.0111188
-0.00618912
-0.00197043
0.0016476
0.00471523
0.00719949
0.00900083
0.0100101
0.0101608
0.00951485
0.00821855
0.00667801
0.00527958
0.00416595
0.00303995
0.000936257
-0.00317132
-0.00860326
-0.0123456
-0.0102326
-0.00675631
-0.00373274
-0.00106622
0.00130725
0.00340439
0.00519199
0.00656822
0.00726876
0.007159
0.00648731
0.00556719
0.00465308
0.00386018
0.00310022
0.0018695
-0.000518915
-0.00352701
-0.00576427
-0.00897328
-0.00710961
-0.00540619
-0.00379586
-0.0022416
-0.000733585
0.000722734
0.00208562
0.0031803
0.00348713
0.0033176
0.00293485
0.00244914
0.00196185
0.00146892
0.000789801
-0.000236575
-0.00112981
-0.00162608
)
;

boundaryField
{
    leftWall
    {
        type            fixedFluxPressure;
        gradient        uniform 0;
        value           nonuniform List<scalar> 
50
(
703.288
702.357
696.076
681.67
676.556
669.827
663.677
661.16
689.485
692.761
182.198
2.64744
1.93888
1.50152
1.2313
1.08323
1.01983
1.01043
1.64266
1.75885
1.51271
0.942501
0.888886
0.840664
0.825827
0.830019
0.835599
0.840661
0.903094
1.78208
2.09397
11.9352
12.8118
13.4274
13.9192
14.3066
14.6455
8.50406
0.980707
0.675607
0.748333
0.825232
0.856192
0.97039
1.12727
0.343654
0.269229
0.136545
-0.0487383
-0.070404
)
;
    }
    rightWall
    {
        type            fixedFluxPressure;
        gradient        uniform 0;
        value           nonuniform List<scalar> 
50
(
946.773
943.735
941.492
955.261
960.945
963.454
966.135
960.902
941.624
945.828
958.935
958.54
506.375
7.0787
9.65232
20.4659
21.4634
21.8158
4.67627
2.1529
2.11635
1.9735
2.73486
2.9415
2.71094
2.39082
0.704922
0.42573
0.341737
0.71483
1.26392
1.25228
1.24516
1.22515
0.699774
-0.142177
-0.197926
-0.200534
-0.187184
-0.165463
-0.141092
-0.116254
-0.0924495
-0.0708112
-0.051829
-0.035396
-0.022116
-0.0123456
-0.00576427
-0.00162608
)
;
    }
    lowerWall
    {
        type            fixedFluxPressure;
        gradient        uniform 0;
        value           nonuniform List<scalar> 
62
(
703.288
703.189
710.688
704.488
679.52
692.667
697.541
696.021
704.209
708.175
711.936
714.373
716.862
718.061
716.071
711.145
702.482
695.507
690.052
684.954
684.489
690.204
696.499
696.499
696.479
696.093
694.956
694.664
697.818
703.141
701.471
716.588
712.34
715.11
736.27
802.106
800.755
805.21
808.301
807.611
790.89
777.074
781.018
802.106
796.744
784.037
779.617
793.63
800.465
794.673
790.877
816.061
862.457
901.528
914.867
914.499
915.098
916
917.385
922.635
933.68
946.773
)
;
    }
    atmosphere
    {
        type            totalPressure;
        rho             rho;
        psi             none;
        gamma           1;
        p0              uniform 0;
        value           nonuniform List<scalar> 
46
(
-0.0522224
0
0
0
0
0
0
-0.00764526
-0.0144108
-0.0302296
-0.0500194
-0.0693254
-0.0680949
-0.0633266
-0.0922635
-0.0735217
-0.0539663
-0.0401651
-0.0283515
-0.0208958
-0.0164638
-0.0135932
-0.0116334
-0.0105897
-0.0099862
-0.00944917
-0.00895968
-0.00820378
-0.00723896
-0.00626767
-0.00524512
-0.00414735
-0.00299608
-0.00183873
-0.000775711
-7.34785e-05
0
0
0
0
0
0
0
0
0
0
)
;
    }
    defaultFaces
    {
        type            empty;
    }
}


// ************************************************************************* //
