/*--------------------------------*- C++ -*----------------------------------*\
| =========                 |                                                 |
| \\      /  F ield         | OpenFOAM: The Open Source CFD Toolbox           |
|  \\    /   O peration     | Version:  2.3.0                                 |
|   \\  /    A nd           | Web:      www.OpenFOAM.org                      |
|    \\/     M anipulation  |                                                 |
\*---------------------------------------------------------------------------*/
FoamFile
{
    version     2.0;
    format      ascii;
    class       surfaceScalarField;
    location    "2.05";
    object      phi;
}
// * * * * * * * * * * * * * * * * * * * * * * * * * * * * * * * * * * * * * //

dimensions      [0 3 -1 0 0 0 0];

internalField   nonuniform List<scalar> 
4432
(
3.16397e-06
-3.16397e-06
1.66559e-06
1.49838e-06
4.08979e-06
-2.4242e-06
1.21198e-05
-8.03005e-06
4.54603e-06
7.57381e-06
-4.73749e-06
9.28351e-06
-6.64428e-06
1.9068e-06
-7.4183e-06
7.74011e-07
-4.37436e-06
-3.04394e-06
-2.30067e-06
-2.07369e-06
-1.74075e-06
-5.59921e-07
-1.07019e-06
-6.70557e-07
8.36852e-07
-1.90704e-06
2.89472e-06
-2.05787e-06
2.6962e-06
1.98516e-07
-7.15873e-07
3.41208e-06
-5.64644e-06
4.93056e-06
-8.47552e-06
2.82908e-06
-8.90868e-06
4.33151e-07
-9.59881e-06
6.90133e-07
-9.16859e-06
-4.30221e-07
-5.53323e-06
-3.63536e-06
-5.53323e-06
-2.86877e-06
-2.95201e-07
-7.87642e-06
6.50603e-06
-2.87313e-06
-7.42748e-06
9.26756e-06
-2.01707e-05
7.23259e-06
9.60879e-06
-3.75414e-06
2.02702e-05
-7.93501e-06
6.08767e-06
-7.1938e-06
3.27968e-08
-4.37402e-06
-5.86372e-06
-3.20797e-06
-3.23974e-06
-2.61474e-06
-1.15316e-06
-1.59781e-06
-1.68748e-06
3.19465e-07
-3.82433e-06
1.98926e-06
-3.72766e-06
1.31013e-06
8.77642e-07
-1.78147e-06
6.50368e-06
-4.29647e-06
7.44554e-06
-4.89153e-06
3.42414e-06
-5.58364e-06
1.12526e-06
-7.96756e-06
3.07405e-06
-8.89609e-06
4.98314e-07
-6.024e-06
-6.50745e-06
-1.15572e-05
-8.2673e-06
7.9721e-06
-1.06088e-05
8.84754e-06
-4.07411e-06
-1.39622e-05
4.43978e-06
-2.86846e-05
5.54427e-06
8.50431e-06
-3.67019e-06
2.94847e-05
-7.84629e-06
1.02638e-05
-6.36924e-06
-1.44425e-06
-3.67067e-06
-8.56229e-06
-2.13765e-06
-4.77276e-06
-8.75502e-07
-2.41531e-06
1.0773e-06
-3.64028e-06
2.80742e-06
-5.55445e-06
3.63974e-06
-4.55998e-06
3.59478e-06
9.22597e-07
2.75183e-06
7.34663e-06
2.10516e-06
8.0922e-06
1.34878e-06
4.18053e-06
-1.73063e-06
4.20468e-06
-6.43723e-06
7.78065e-06
-9.12935e-06
3.19044e-06
-7.17875e-06
-8.45805e-06
-1.8736e-05
-9.45823e-06
1.74303e-05
-1.12512e-05
1.06405e-05
-6.83828e-06
-1.83751e-05
-2.13194e-06
-3.3391e-05
1.28804e-06
5.08434e-06
-5.47479e-06
3.62475e-05
-8.18361e-06
1.29726e-05
-6.03816e-06
-3.5897e-06
-2.56759e-06
-1.20329e-05
2.68021e-07
-7.60836e-06
3.00911e-06
-5.1564e-06
5.93944e-06
-6.57061e-06
8.03985e-06
-7.65487e-06
7.72448e-06
-4.2446e-06
6.60475e-06
2.04231e-06
7.24261e-06
6.70878e-06
7.82379e-06
7.51103e-06
5.1639e-06
6.84042e-06
-3.30692e-07
9.69925e-06
-5.79355e-06
1.32435e-05
-8.05308e-06
5.44997e-06
-6.25901e-06
-1.02521e-05
-2.4995e-05
-8.02367e-06
2.5454e-05
-1.05733e-05
1.31902e-05
-9.76207e-06
-1.91864e-05
-6.7036e-06
-3.64495e-05
-1.64948e-06
3.02297e-08
-6.44907e-06
4.10471e-05
-7.0166e-06
1.35401e-05
-4.58918e-06
-6.01712e-06
-1.04035e-06
-1.55817e-05
3.35344e-06
-1.20022e-05
7.60608e-06
-9.40905e-06
1.12598e-05
-1.02243e-05
1.33713e-05
-9.76634e-06
1.2811e-05
-3.68433e-06
9.94399e-06
4.90934e-06
8.86646e-06
7.78631e-06
8.94552e-06
7.43196e-06
5.63289e-06
1.01531e-05
-1.55399e-07
1.54875e-05
-4.04735e-06
1.71355e-05
-3.54435e-06
4.94697e-06
-9.96951e-07
-1.27995e-05
-2.59919e-05
-4.91911e-06
3.03731e-05
-7.72354e-06
1.59947e-05
-1.02332e-05
-1.66767e-05
-1.11454e-05
-3.55372e-05
-2.82524e-06
-8.28996e-06
-3.08123e-06
4.13031e-05
-2.36391e-06
1.28228e-05
4.93115e-07
-8.87414e-06
2.70992e-06
-1.77985e-05
7.06213e-06
-1.63544e-05
1.22476e-05
-1.45946e-05
1.62751e-05
-1.42518e-05
1.76508e-05
-1.11421e-05
1.63132e-05
-2.34678e-06
1.24335e-05
8.78905e-06
9.08196e-06
1.11379e-05
7.38884e-06
9.12507e-06
4.32975e-06
1.32121e-05
3.8748e-07
1.94298e-05
2.8064e-07
1.72423e-05
3.85803e-06
1.36958e-06
4.90996e-06
-1.38514e-05
-2.1082e-05
-1.05554e-06
3.14287e-05
-3.04584e-06
1.7985e-05
-7.37939e-06
-1.23432e-05
-1.21992e-05
-3.07174e-05
-3.03442e-06
-1.74548e-05
5.55373e-06
3.2715e-05
6.24399e-06
1.21325e-05
7.19288e-06
-9.82304e-06
9.63031e-06
-2.02359e-05
1.25667e-05
-1.92907e-05
1.68651e-05
-1.8893e-05
2.00116e-05
-1.73983e-05
1.9988e-05
-1.11185e-05
1.73441e-05
2.9718e-07
1.30913e-05
1.30418e-05
8.27128e-06
1.59579e-05
4.82208e-06
1.25743e-05
3.15223e-06
1.4882e-05
2.51382e-06
2.00682e-05
5.8779e-06
1.38782e-05
9.95395e-06
-2.70646e-06
8.1681e-06
-1.20656e-05
-1.29139e-05
4.16482e-06
2.72638e-05
2.52724e-06
1.96225e-05
-1.94772e-06
-7.86822e-06
-8.8763e-06
-2.37888e-05
-3.52069e-06
-2.28104e-05
1.17094e-05
1.74849e-05
1.40466e-05
9.79532e-06
1.54469e-05
-1.12234e-05
1.71388e-05
-2.19278e-05
1.87773e-05
-2.09292e-05
2.07403e-05
-2.08561e-05
2.1298e-05
-1.79559e-05
1.93242e-05
-9.14472e-06
1.57632e-05
3.85821e-06
1.2255e-05
1.655e-05
8.03392e-06
2.0179e-05
4.67117e-06
1.5937e-05
4.37082e-06
1.51823e-05
7.5314e-06
1.69076e-05
9.20164e-06
1.2208e-05
7.16867e-06
-6.73487e-07
3.64116e-06
-8.53807e-06
-9.27273e-06
3.84685e-06
-3.84685e-06
-7.34431e-06
1.11912e-05
-2.6597e-05
1.92527e-05
-3.34481e-05
6.85109e-06
-3.01565e-05
-3.29152e-06
-3.01204e-05
-3.61307e-08
-3.64576e-05
6.33719e-06
-4.4777e-05
8.3194e-06
-4.49764e-05
1.99409e-07
-3.59133e-05
-9.06313e-06
-2.38935e-05
-1.20197e-05
-1.50222e-05
-8.87129e-06
-1.29274e-05
-2.09478e-06
-1.6168e-05
3.24058e-06
-1.95454e-05
3.37737e-06
-2.04511e-05
9.05756e-07
-1.76338e-05
-2.81731e-06
-1.0729e-05
-6.90482e-06
-1.0729e-05
-3.98837e-06
1.41522e-07
-1.81183e-05
2.53211e-05
-2.65667e-05
2.77011e-05
-2.14849e-05
1.76927e-06
-2.29993e-05
-1.77715e-06
-3.39776e-05
1.09422e-05
-4.22299e-05
1.45895e-05
-4.51948e-05
1.12843e-05
-4.13152e-05
-3.68025e-06
-3.22624e-05
-1.81159e-05
-2.25212e-05
-2.1761e-05
-1.51422e-05
-1.62503e-05
-1.06467e-05
-6.5903e-06
-1.1023e-05
3.61699e-06
-1.41348e-05
6.48914e-06
-1.5357e-05
2.12793e-06
-1.39432e-05
-4.2311e-06
-9.13123e-06
-1.17168e-05
-1.98602e-05
-1.04063e-05
1.05479e-05
-1.89804e-05
3.38952e-05
-1.27597e-05
2.14804e-05
2.65075e-06
-1.36412e-05
1.71251e-06
-8.38901e-07
-1.66686e-05
2.93233e-05
-3.23881e-05
3.03091e-05
-3.6016e-05
1.49122e-05
-3.25058e-05
-7.1904e-06
-2.45949e-05
-2.60268e-05
-1.77149e-05
-2.86409e-05
-1.35468e-05
-2.04184e-05
-9.78236e-06
-1.03547e-05
-5.2735e-06
-8.91863e-07
-2.08849e-06
3.30412e-06
-1.96358e-06
2.00303e-06
-4.34383e-06
-1.85085e-06
-5.14855e-06
-1.09121e-05
-2.50088e-05
-1.16851e-05
2.22329e-05
-1.48109e-05
3.7021e-05
1.38099e-06
5.28848e-06
1.82114e-05
-3.04716e-05
1.85524e-05
-1.1799e-06
3.09945e-06
4.47763e-05
-1.7023e-05
5.04315e-05
-2.50969e-05
2.2986e-05
-2.2857e-05
-9.43032e-06
-1.69964e-05
-3.18874e-05
-1.42037e-05
-3.14336e-05
-1.20429e-05
-2.25793e-05
-8.76387e-06
-1.36337e-05
-4.66986e-06
-4.98587e-06
4.51076e-07
-1.81682e-06
4.39668e-06
-1.94258e-06
3.81546e-06
-1.26962e-06
7.46765e-07
-7.84338e-06
-2.4262e-05
-9.1505e-06
3.13834e-05
-6.84495e-06
3.47155e-05
1.09637e-05
-1.25202e-05
2.05897e-05
-4.00976e-05
2.09831e-05
-1.57329e-06
1.40062e-05
5.17532e-05
-1.26382e-06
6.57016e-05
-1.13475e-05
3.30697e-05
-1.2382e-05
-8.39585e-06
-1.20241e-05
-3.22452e-05
-1.45858e-05
-2.8872e-05
-1.37617e-05
-2.34034e-05
-9.85588e-06
-1.75395e-05
-5.57053e-06
-9.27121e-06
-1.74452e-06
-5.64282e-06
2.34823e-06
-6.03534e-06
4.59668e-06
-3.51806e-06
3.00855e-06
-6.25524e-06
-2.12535e-05
-6.1149e-06
3.74983e-05
1.86152e-06
2.67391e-05
1.35708e-05
-2.42295e-05
8.55153e-06
-3.50783e-05
7.44462e-06
-4.66375e-07
1.22967e-05
4.69011e-05
7.9654e-06
7.00328e-05
5.19448e-07
4.05157e-05
-4.59941e-06
-3.27699e-06
-1.21454e-05
-2.46993e-05
-1.86855e-05
-2.23319e-05
-1.81995e-05
-2.38894e-05
-1.3832e-05
-2.1907e-05
-7.95782e-06
-1.51454e-05
-3.5098e-06
-1.00908e-05
-3.34144e-07
-9.21099e-06
2.544e-06
-6.3962e-06
3.52378e-06
-7.23503e-06
-1.77297e-05
-4.37453e-06
4.18729e-05
4.39968e-06
1.79648e-05
4.46876e-06
-2.42986e-05
-9.87112e-06
-2.07384e-05
-1.00669e-05
-2.70596e-07
2.49211e-06
3.43421e-05
7.82461e-06
6.47003e-05
3.9826e-06
4.43577e-05
-4.63695e-06
5.34256e-06
-1.78494e-05
-1.14868e-05
-2.46825e-05
-1.54988e-05
-2.44254e-05
-2.41465e-05
-2.03831e-05
-2.59493e-05
-1.37231e-05
-2.18054e-05
-7.10014e-06
-1.67138e-05
-2.87432e-06
-1.34368e-05
6.8175e-07
-9.95226e-06
3.12855e-06
-9.68183e-06
-1.46011e-05
-4.28247e-06
4.61553e-05
-7.06683e-07
1.43891e-05
-1.17231e-05
-1.32821e-05
-2.51205e-05
-7.34113e-06
-2.36862e-05
-1.70486e-06
-1.26672e-05
2.33231e-05
-1.33792e-06
5.33711e-05
-2.47472e-06
4.54945e-05
-1.40851e-05
1.69529e-05
-2.6442e-05
8.70089e-07
-3.09973e-05
-1.09436e-05
-3.15521e-05
-2.35916e-05
-2.82919e-05
-2.92095e-05
-2.14789e-05
-2.86183e-05
-1.36187e-05
-2.4574e-05
-6.8975e-06
-2.01581e-05
-1.56976e-06
-1.528e-05
1.85922e-06
-1.31108e-05
-1.27419e-05
1.29111e-05
1.43527e-05
1.60879e-05
1.64458e-05
9.64097e-06
-1.42126e-06
-2.82427e-06
-1.13235e-05
-1.04588e-05
-1.51759e-05
1.46111e-05
-7.58504e-06
3.51438e-05
-1.07373e-05
4.41816e-05
-2.02612e-05
4.63409e-05
-2.40871e-05
4.58332e-05
-2.04215e-05
4.12911e-05
-1.6314e-05
3.62982e-05
-1.2963e-05
2.77119e-05
-5.58465e-07
2.04296e-05
1.11405e-05
1.82808e-05
1.86988e-05
1.69524e-05
2.15074e-05
1.50289e-05
1.78606e-05
1.35459e-05
1.66654e-05
3.13118e-06
2.73223e-05
-3.09697e-05
4.63089e-05
-5.16104e-05
1.99671e-05
-4.52478e-05
-1.49006e-05
-1.68211e-05
-3.76995e-05
7.10601e-06
7.24669e-06
1.68448e-05
6.70696e-06
1.71243e-05
-1.70077e-06
1.38203e-05
-8.01951e-06
1.31574e-05
-1.4513e-05
2.07986e-05
-1.52262e-05
2.33366e-05
-1.32752e-05
1.76286e-05
-1.45533e-05
1.38774e-05
-2.03359e-05
1.39891e-05
-2.05332e-05
9.85732e-06
-1.21822e-05
5.18975e-06
-8.29544e-06
1.0105e-06
3.62078e-06
-2.41095e-06
1.45619e-05
-8.22332e-06
2.45112e-05
-2.15707e-05
3.48548e-05
-4.12953e-05
3.75851e-05
-6.76816e-05
4.30517e-05
-0.000110068
6.97092e-05
-0.000148522
8.4762e-05
-0.000151569
2.30146e-05
-0.000106658
-5.98113e-05
-4.78024e-05
-7.5677e-05
-1.43868e-05
2.16334e-05
-2.39138e-05
1.6234e-05
-4.03393e-05
1.47247e-05
-4.80353e-05
-3.23509e-07
-6.53574e-05
2.80905e-06
-9.801e-05
1.74263e-05
-0.000142269
3.0984e-05
-0.000170547
1.37242e-05
-0.00015594
-3.49424e-05
-0.000111986
-6.44876e-05
-6.56337e-05
-5.85341e-05
-2.35567e-05
-5.03724e-05
3.11381e-06
-2.30498e-05
5.32448e-06
1.23512e-05
-1.13677e-05
4.12034e-05
-3.93732e-05
6.28603e-05
-9.02004e-05
8.84123e-05
-0.00016084
0.000113691
-0.000194184
0.000103053
-0.000183922
7.44996e-05
-0.000172119
1.12123e-05
-0.000150779
-8.11513e-05
-8.52633e-05
-0.000113318
-7.12643e-05
9.28979e-05
-0.00013056
7.55299e-05
-0.000209682
9.38472e-05
-0.00030325
9.32441e-05
-0.000353253
5.28121e-05
-0.000366841
3.10141e-05
-0.000370652
3.4795e-05
-0.000364403
7.47445e-06
-0.000330978
-6.83669e-05
-0.000280683
-0.000114783
-0.000201674
-0.000137544
-0.000114417
-0.000137629
-4.36274e-05
-9.38398e-05
-5.70955e-06
-2.55666e-05
1.54656e-05
2.00282e-05
3.16508e-05
4.66751e-05
4.35936e-05
7.64695e-05
2.36755e-06
0.000154917
-5.41136e-05
0.000159534
-9.36592e-05
0.000114045
-0.000117122
3.46748e-05
-0.000113818
-8.44553e-05
-8.89711e-05
-0.00011011
-4.61173e-05
0.000139015
-9.3129e-05
0.000122541
-0.000137739
0.000138457
-0.000175504
0.00013101
-0.000224773
0.000102081
-0.00027619
8.24324e-05
-0.000289384
4.79892e-05
-0.000253724
-2.81857e-05
-0.000218232
-0.000103859
-0.000195425
-0.00013759
-0.00015833
-0.000174639
-0.00011697
-0.000178988
-7.72114e-05
-0.000133598
-5.64757e-05
-4.63023e-05
-1.8119e-05
-1.83285e-05
2.23978e-05
6.15836e-06
6.29797e-05
3.58875e-05
0.000108948
0.000108949
0.00010299
0.000165492
5.28321e-05
0.000164203
-4.1974e-06
9.17042e-05
-7.0658e-05
-1.79948e-05
-8.27815e-05
-7.68477e-05
-2.73431e-05
0.000166358
-5.06208e-05
0.000145819
-7.08048e-05
0.000158641
-9.44415e-05
0.000154647
-0.000130765
0.000138404
-0.000164921
0.000116589
-0.0001747
5.77679e-05
-0.00016507
-3.78156e-05
-0.000156942
-0.000111987
-0.000144447
-0.000150084
-0.000134884
-0.000184202
-0.000128345
-0.000185527
-0.000103289
-0.000158655
-7.61706e-05
-7.34207e-05
-4.85408e-05
-4.59583e-05
-2.35139e-05
-1.88685e-05
3.26874e-06
9.10492e-06
7.00413e-05
4.21767e-05
0.000129435
0.000106098
0.00012853
0.000165108
6.68127e-05
0.000153422
-2.24821e-05
7.13001e-05
-3.70648e-05
-6.81988e-05
-1.52895e-05
0.000181648
-2.72189e-05
0.000157748
-3.1535e-05
0.000162958
-4.23015e-05
0.000165413
-6.19421e-05
0.000158044
-8.10762e-05
0.000135724
-9.51744e-05
7.1866e-05
-0.000110333
-2.26571e-05
-0.000121362
-0.000100958
-0.000118762
-0.000152684
-0.000126328
-0.000176636
-0.000134044
-0.000177812
-0.00012282
-0.000169879
-8.00044e-05
-0.000116236
-3.62361e-05
-8.97265e-05
-8.39875e-06
-4.67057e-05
-6.12123e-06
6.8274e-06
6.62284e-06
2.94326e-05
5.85924e-05
5.41288e-05
9.23241e-05
0.000131377
7.431e-05
0.000171436
-1.25894e-06
0.000146869
1.94594e-05
-5.77833e-05
-6.86427e-06
0.000188512
-1.50343e-05
0.000165918
-5.96493e-06
0.000153888
-3.3865e-06
0.000162835
-1.13747e-05
0.000166033
-2.06296e-05
0.000144978
-3.62368e-05
8.7473e-05
-6.29346e-05
4.04031e-06
-8.79858e-05
-7.5907e-05
-0.000100745
-0.000139925
-0.000109112
-0.000168269
-0.000122001
-0.000164924
-0.000128931
-0.000162948
-9.24036e-05
-0.000152763
-4.63718e-05
-0.000135758
-4.36785e-06
-8.87097e-05
2.55216e-05
-2.3062e-05
5.78455e-06
4.91698e-05
7.91737e-06
5.1996e-05
3.87054e-05
0.000100589
4.50266e-05
0.000165114
-5.7455e-06
0.000197641
8.29683e-05
-6.92544e-05
7.11233e-06
0.0001814
-4.54752e-06
0.000177578
4.74382e-06
0.000144597
2.39798e-05
0.000143599
3.50636e-05
0.000154949
3.4289e-05
0.000145752
1.88831e-05
0.000102879
-1.09747e-05
3.38981e-05
-4.65737e-05
-4.03082e-05
-7.43785e-05
-0.00011212
-8.76762e-05
-0.000154971
-0.000100993
-0.000151607
-0.000115496
-0.000148445
-9.12321e-05
-0.000177027
-5.4629e-05
-0.000172362
-2.14487e-05
-0.00012189
7.12054e-06
-5.16311e-05
1.83704e-05
3.79202e-05
7.56029e-06
6.28061e-05
5.52891e-06
0.00010262
-2.40602e-06
0.000173049
-4.20719e-05
0.000237307
0.000150257
-0.000109361
3.06033e-05
0.000150797
2.36948e-05
0.000184487
2.07757e-05
0.000147516
3.64086e-05
0.000127966
6.26698e-05
0.000128688
8.08895e-05
0.000127533
7.79026e-05
0.000105866
5.28351e-05
5.89656e-05
1.28729e-05
-3.46154e-07
-2.96346e-05
-6.96126e-05
-5.74537e-05
-0.000127152
-7.19457e-05
-0.000137115
-8.94623e-05
-0.000130928
-8.42062e-05
-0.000182284
-6.71131e-05
-0.000189455
-4.51951e-05
-0.000143808
-2.94623e-05
-6.73638e-05
-1.51773e-05
2.36351e-05
-2.93605e-05
7.69893e-05
-6.00943e-05
0.000133354
-9.28203e-05
0.000205775
-0.000110539
0.000255026
0.000207428
-0.000167711
4.14743e-05
0.000109322
5.94551e-05
0.000166506
5.80482e-05
0.000148923
6.02654e-05
0.000125749
7.54401e-05
0.000113513
9.67561e-05
0.000106217
0.000108764
9.38583e-05
0.000100412
6.73175e-05
7.29929e-05
2.70728e-05
2.8097e-05
-2.47166e-05
-1.48768e-05
-8.41783e-05
-3.51441e-05
-0.000116848
-5.32379e-05
-0.000112835
-6.79875e-05
-0.000167534
-7.15831e-05
-0.000185859
-7.62066e-05
-0.000139184
-8.38175e-05
-5.9753e-05
-9.20684e-05
3.18858e-05
-0.000113537
9.84576e-05
-0.000142575
0.000162392
-0.000163638
0.000226838
-0.00015296
0.000244348
0.00022732
-0.000172852
3.29009e-05
7.64212e-05
7.2337e-05
0.00012707
9.41607e-05
0.000127099
0.000101392
0.000118518
0.000102981
0.000111924
0.000106879
0.000102318
0.000114322
8.6415e-05
0.00011599
6.56498e-05
0.000103
4.00635e-05
7.3674e-05
4.60912e-06
3.27411e-05
-4.32454e-05
6.6634e-06
-9.07702e-05
-9.77078e-06
-9.64006e-05
-3.87153e-05
-0.00013859
-5.80894e-05
-0.000166485
-8.32236e-05
-0.00011405
-0.000122145
-2.08311e-05
-0.000149182
5.89222e-05
-0.000174937
0.000124213
-0.000197254
0.000184708
-0.000186036
0.000215621
-0.000142897
0.000201209
0.000209444
-0.000125021
2.13277e-05
5.50939e-05
6.39227e-05
8.44749e-05
0.000102968
8.80537e-05
0.000126713
9.4773e-05
0.000132945
0.000105692
0.000127125
0.000108137
0.000120754
9.27865e-05
0.000117997
6.84065e-05
0.000110689
4.7372e-05
9.20258e-05
2.32721e-05
6.28954e-05
-1.41151e-05
3.54286e-05
-6.33036e-05
2.05543e-05
-8.15265e-05
-8.31665e-06
-0.000109719
-3.44454e-05
-0.000140356
-6.36473e-05
-8.48484e-05
-0.000115514
3.10355e-05
-0.000153066
9.64743e-05
-0.00017633
0.000147477
-0.000180307
0.000188685
-0.00015171
0.000187024
-0.000104278
0.000153776
0.00016708
-6.19141e-05
2.64994e-05
2.85946e-05
6.37172e-05
4.7257e-05
9.75752e-05
5.41956e-05
0.000124233
6.81154e-05
0.000137685
9.22398e-05
0.000135188
0.000110635
0.000125186
0.000102788
0.000116433
7.71595e-05
0.000107107
5.66985e-05
9.19599e-05
3.8419e-05
7.14914e-05
6.35325e-06
5.23324e-05
-4.41448e-05
4.08768e-05
-7.0071e-05
1.44707e-05
-8.33125e-05
-1.32126e-05
-0.000112673
-4.88302e-05
-4.92307e-05
-8.81271e-05
7.03324e-05
-0.000107274
0.000115621
-0.000117203
0.000157407
-0.000113987
0.000185469
-9.00302e-05
0.000163067
-5.95297e-05
0.000123276
0.000120075
-1.25245e-05
2.88038e-05
-2.09379e-07
6.1611e-05
1.44496e-05
8.68999e-05
2.89066e-05
0.000104172
5.08433e-05
0.000114172
8.22397e-05
0.000114561
0.000110246
0.000108503
0.000108846
9.89819e-05
8.66811e-05
8.70824e-05
6.8598e-05
7.41958e-05
5.13056e-05
6.60525e-05
1.44964e-05
6.04216e-05
-3.85139e-05
4.40712e-05
-5.37206e-05
2.32242e-05
-6.24655e-05
-3.44803e-06
-8.60007e-05
-3.92372e-05
-1.34415e-05
-4.8134e-05
7.92292e-05
-4.86718e-05
0.000116159
-4.50301e-05
0.000153765
-3.87641e-05
0.000179203
-2.47162e-05
0.000149019
-9.35566e-06
0.000107915
9.21391e-05
1.85804e-05
7.39531e-06
-7.60478e-06
2.58159e-05
-3.97095e-06
5.03567e-05
4.36584e-06
6.45123e-05
3.66877e-05
6.68315e-05
7.99205e-05
6.58769e-05
0.000111201
6.26302e-05
0.000112093
5.41696e-05
9.51417e-05
4.47119e-05
7.80558e-05
4.39902e-05
5.20274e-05
4.71953e-05
1.12911e-05
4.16718e-05
-3.29905e-05
2.38756e-05
-3.59244e-05
1.7663e-05
-5.62528e-05
-8.19184e-06
-6.01458e-05
-3.28962e-05
1.12629e-05
-2.42571e-05
7.05902e-05
-4.36355e-06
9.62654e-05
1.55274e-05
0.000133874
2.73333e-05
0.000167397
3.27141e-05
0.000143638
3.26176e-05
0.000108012
8.41987e-05
4.05579e-05
-1.02772e-05
2.67249e-06
-9.50167e-06
-4.74637e-06
2.44456e-06
-7.58041e-06
7.7983e-06
3.1334e-05
5.89476e-06
8.18242e-05
9.1734e-07
0.000116178
-2.78454e-06
0.000115795
-5.34775e-06
9.7705e-05
5.60787e-07
7.21472e-05
2.16645e-05
3.09236e-05
2.296e-05
9.99558e-06
8.91636e-07
-1.09222e-05
3.20939e-06
-3.82421e-05
5.15508e-06
-5.81985e-05
-1.88551e-05
-3.61356e-05
-2.48071e-05
1.7215e-05
-1.01892e-05
5.59724e-05
1.62849e-05
6.97915e-05
5.02002e-05
9.99588e-05
7.83977e-05
0.000139199
8.6771e-05
0.000135265
8.5536e-05
0.000109247
8.67073e-05
8.30273e-05
-1.44487e-05
1.71213e-05
-2.26043e-05
3.40926e-06
-2.6015e-05
-4.16975e-06
-3.99946e-05
4.53134e-05
-5.82372e-05
0.000100067
-6.77858e-05
0.000125726
-6.75331e-05
0.000115542
-5.50098e-05
8.51818e-05
-2.8959e-05
4.60964e-05
-1.67337e-05
1.86984e-05
-6.7031e-06
-3.49872e-08
8.11472e-06
-2.574e-05
1.74814e-05
-4.76087e-05
2.74002e-06
-4.34571e-05
-1.18123e-05
-2.15833e-05
-1.80201e-06
7.20471e-06
1.9037e-05
3.51334e-05
3.72926e-05
5.1536e-05
6.61103e-05
7.11412e-05
0.000104649
0.000100661
0.00012869
0.000111224
0.000137116
0.00010082
8.5456e-05
0.000138367
-1.12063e-05
2.83277e-05
-2.20021e-05
1.4205e-05
-4.54507e-05
1.92788e-05
-7.47024e-05
7.4565e-05
-0.000103411
0.000128775
-0.000111263
0.000133579
-9.62111e-05
0.00010049
-6.50498e-05
5.40206e-05
-3.4544e-05
1.55906e-05
-9.07769e-06
-6.76791e-06
1.18516e-05
-2.09643e-05
2.22058e-05
-3.6094e-05
6.03391e-06
-3.14368e-05
-3.12049e-06
-3.43027e-05
1.3472e-06
-2.60509e-05
1.9034e-05
-1.04821e-05
4.55768e-05
8.59073e-06
6.95678e-05
2.75452e-05
9.35571e-05
4.7152e-05
0.000125492
6.87263e-05
0.00015423
8.24861e-05
0.000170981
8.40684e-05
7.92702e-05
0.000177167
-2.07955e-06
3.04072e-05
-1.358e-05
2.57054e-05
-4.64138e-05
5.21126e-05
-8.86198e-05
0.000116771
-0.000118386
0.000158542
-0.000112903
0.000128095
-8.32788e-05
7.08664e-05
-4.55425e-05
1.62843e-05
-1.15659e-05
-1.83859e-05
4.51278e-06
-2.28466e-05
-4.94731e-06
-1.15042e-05
-2.00619e-05
-2.09794e-05
-2.29478e-05
-2.85508e-05
-2.05046e-05
-3.67459e-05
-9.57894e-06
-3.69766e-05
1.04621e-05
-3.05231e-05
3.94598e-05
-2.04069e-05
7.32848e-05
-6.27965e-06
0.000108598
1.18391e-05
0.000144474
3.28499e-05
0.000175586
5.13744e-05
0.000196234
6.34196e-05
6.9626e-05
0.000205878
1.08962e-05
1.95111e-05
-2.2123e-06
3.8814e-05
-4.7431e-05
9.73313e-05
-9.34933e-05
0.000162833
-0.000109789
0.000174837
-9.18198e-05
0.000110127
-6.13476e-05
4.03942e-05
-3.14148e-05
-1.36485e-05
-3.17094e-05
-1.80912e-05
-5.36215e-05
-9.34466e-07
-5.88334e-05
-6.29206e-06
-5.70832e-05
-2.27295e-05
-4.82867e-05
-3.73473e-05
-3.78631e-05
-4.71694e-05
-2.40382e-05
-5.08015e-05
-4.43562e-06
-5.01258e-05
2.1189e-05
-4.60315e-05
5.34157e-05
-3.85062e-05
9.1298e-05
-2.60433e-05
0.000132594
-8.44571e-06
0.000172077
1.18915e-05
0.000203719
3.17773e-05
4.83117e-05
0.000225033
1.49763e-05
4.53494e-06
-8.59285e-06
6.23833e-05
-5.82237e-05
0.000146962
-9.5475e-05
0.000200085
-9.42659e-05
0.000173628
-7.46665e-05
9.05273e-05
-4.9443e-05
1.51708e-05
-5.06554e-05
-1.24363e-05
-7.76176e-05
8.87111e-06
-8.7293e-05
8.74101e-06
-8.49203e-05
-8.66454e-06
-7.45916e-05
-3.30581e-05
-5.89027e-05
-5.30362e-05
-4.39033e-05
-6.21686e-05
-2.99674e-05
-6.47374e-05
-1.45646e-05
-6.55286e-05
5.60473e-06
-6.62009e-05
3.14943e-05
-6.43958e-05
6.30169e-05
-5.75659e-05
9.94062e-05
-4.48352e-05
0.000138478
-2.71805e-05
0.00017651
-6.25448e-06
1.56559e-05
0.000209165
3.11973e-06
1.41529e-06
-2.97368e-05
9.52398e-05
-7.46438e-05
0.000191869
-9.33782e-05
0.000218819
-8.08537e-05
0.000161103
-6.19202e-05
7.15938e-05
-5.37503e-05
7.00091e-06
-7.86848e-05
1.24982e-05
-9.54826e-05
2.5669e-05
-0.000102902
1.61606e-05
-9.69608e-05
-1.46058e-05
-7.87384e-05
-5.12805e-05
-5.82045e-05
-7.35701e-05
-4.14736e-05
-7.88996e-05
-2.91062e-05
-7.71049e-05
-1.92028e-05
-7.54321e-05
-6.27332e-06
-7.91304e-05
1.13671e-05
-8.20363e-05
3.43102e-05
-8.0509e-05
6.25193e-05
-7.30445e-05
9.47327e-05
-5.9394e-05
0.000128933
-4.04552e-05
-1.85321e-05
0.000163122
-2.37784e-05
2.51937e-05
-5.06651e-05
0.000122126
-8.00188e-05
0.000221223
-8.20593e-05
0.00022086
-6.76047e-05
0.000146649
-5.31579e-05
5.7147e-05
-6.61233e-05
1.99663e-05
-8.66857e-05
3.30609e-05
-0.000103931
4.29149e-05
-0.000109198
2.14273e-05
-9.64852e-05
-2.73185e-05
-7.47296e-05
-7.30362e-05
-5.38878e-05
-9.44118e-05
-3.61486e-05
-9.66388e-05
-2.39119e-05
-8.93417e-05
-1.86176e-05
-8.07264e-05
-1.25336e-05
-8.52145e-05
-2.91613e-06
-9.16537e-05
1.07002e-05
-9.41254e-05
2.90757e-05
-9.142e-05
5.22986e-05
-8.2617e-05
7.95814e-05
-6.7738e-05
-4.81565e-05
0.000109206
-3.15794e-05
5.6773e-05
-5.09853e-05
0.000141532
-6.5585e-05
0.000235823
-6.20979e-05
0.000217373
-5.07225e-05
0.000135273
-5.17345e-05
5.81591e-05
-6.70154e-05
3.52475e-05
-8.735e-05
5.33958e-05
-0.00010364
5.9205e-05
-0.000103594
2.13817e-05
-8.81942e-05
-4.27185e-05
-6.81521e-05
-9.30782e-05
-4.98959e-05
-0.000112668
-3.32727e-05
-0.000113262
-1.99642e-05
-0.00010265
-1.57943e-05
-8.48963e-05
-1.36389e-05
-8.73698e-05
-9.94685e-06
-9.53458e-05
-4.26817e-06
-9.98041e-05
4.47994e-06
-0.000100168
1.76629e-05
-9.58e-05
3.59414e-05
-8.60164e-05
-7.14999e-05
5.92848e-05
-3.52399e-05
9.2013e-05
-4.17827e-05
0.000148075
-3.4842e-05
0.000228882
-3.16147e-05
0.000214145
-3.10191e-05
0.000134678
-4.136e-05
6.85001e-05
-5.87928e-05
5.26803e-05
-7.9428e-05
7.40311e-05
-9.20849e-05
7.1862e-05
-9.04343e-05
1.97311e-05
-7.85562e-05
-5.45965e-05
-6.2753e-05
-0.000108881
-4.63997e-05
-0.000129021
-3.20532e-05
-0.000127609
-2.01141e-05
-0.000114589
-1.32846e-05
-9.17258e-05
-1.12834e-05
-8.9371e-05
-1.06997e-05
-9.59296e-05
-1.01705e-05
-0.000100333
-8.97344e-06
-0.000101365
-5.43308e-06
-9.93403e-05
2.427e-06
-9.38765e-05
-8.55857e-05
1.65128e-05
-3.86486e-05
0.000130662
-4.0265e-05
0.000149692
-9.81131e-06
0.000198428
1.58682e-07
0.000204175
-1.14139e-05
0.00014625
-2.88331e-05
8.59195e-05
-4.72063e-05
7.10535e-05
-6.40524e-05
9.08772e-05
-7.2866e-05
8.06757e-05
-7.29989e-05
1.98639e-05
-6.74986e-05
-6.00968e-05
-5.55592e-05
-0.000120821
-4.10669e-05
-0.000143513
-2.98614e-05
-0.000138814
-2.06668e-05
-0.000123784
-1.00998e-05
-0.000102293
-5.7708e-06
-9.37e-05
-6.27784e-06
-9.54227e-05
-8.65786e-06
-9.79532e-05
-1.20933e-05
-9.79298e-05
-1.53875e-05
-9.6046e-05
-1.65982e-05
-9.26657e-05
-8.85307e-05
-1.36532e-05
-3.89237e-05
0.000169585
-5.12119e-05
0.00016198
-2.21116e-05
0.000169328
1.0824e-06
0.000180981
-9.29693e-06
0.00015663
-2.42966e-05
0.000100919
-3.56321e-05
8.23892e-05
-4.49027e-05
0.000100148
-4.99299e-05
8.57029e-05
-5.13189e-05
2.12529e-05
-5.13352e-05
-6.00805e-05
-4.32151e-05
-0.000128941
-3.23022e-05
-0.000154426
-2.45623e-05
-0.000146554
-1.57508e-05
-0.000132596
-3.32164e-06
-0.000114722
3.60022e-06
-0.000100622
2.77888e-06
-9.46013e-05
-1.72799e-06
-9.34464e-05
-7.68181e-06
-9.1976e-05
-1.46666e-05
-8.90612e-05
-2.17957e-05
-8.55366e-05
-8.17825e-05
-2.85439e-05
-1.94739e-05
0.000189059
-4.61685e-05
0.000188674
-4.66664e-05
0.000169826
-2.84862e-05
0.000162801
-2.00546e-05
0.000148198
-2.32795e-05
0.000104144
-2.42523e-05
8.3362e-05
-2.49793e-05
0.000100875
-2.63175e-05
8.7041e-05
-2.66694e-05
2.16047e-05
-2.88364e-05
-5.79134e-05
-2.437e-05
-0.000133407
-1.77932e-05
-0.000161003
-1.09508e-05
-0.000153397
-1.357e-06
-0.000142189
1.00128e-05
-0.000126092
1.70376e-05
-0.000107647
1.57869e-05
-9.33506e-05
8.87681e-06
-8.65362e-05
5.70175e-07
-8.36693e-05
-8.13891e-06
-8.03521e-05
-1.76766e-05
-7.59989e-05
-7.0729e-05
-2.873e-05
2.01623e-05
0.000168897
-3.43118e-06
0.000212268
-2.71713e-05
0.000193566
-3.12508e-05
0.00016688
-2.13861e-05
0.000138334
-1.68736e-05
9.96317e-05
-1.1572e-05
7.80604e-05
-6.62054e-06
9.59234e-05
-4.07751e-06
8.44979e-05
-2.82801e-06
2.03551e-05
-1.39318e-06
-5.93484e-05
1.4021e-06
-0.000136203
4.3159e-06
-0.000163917
1.16772e-05
-0.000160758
2.02957e-05
-0.000150808
2.88538e-05
-0.00013465
3.37517e-05
-0.000112545
3.11415e-05
-9.07404e-05
2.16049e-05
-7.69995e-05
1.01577e-05
-7.22221e-05
-2.24669e-07
-6.99697e-05
-9.95622e-06
-6.62673e-05
-6.09867e-05
-1.96985e-05
5.03293e-05
0.000118568
5.16057e-05
0.000210992
2.94463e-05
0.000215725
1.09548e-05
0.000185372
5.18857e-06
0.0001441
3.00039e-06
0.00010182
5.17281e-06
7.5888e-05
1.20401e-05
8.9056e-05
1.75715e-05
7.89664e-05
2.04799e-05
1.74466e-05
2.41232e-05
-6.29917e-05
2.62133e-05
-0.000138293
3.04043e-05
-0.000168108
3.79455e-05
-0.000168299
4.52869e-05
-0.000158149
5.06774e-05
-0.000140041
5.19417e-05
-0.000113809
4.6465e-05
-8.52636e-05
3.42632e-05
-6.47978e-05
1.97104e-05
-5.76692e-05
6.99278e-06
-5.72521e-05
-3.19399e-06
-5.60805e-05
-5.23694e-05
-1.18113e-05
5.73961e-05
6.11716e-05
8.50546e-05
0.000183333
7.85537e-05
0.000222226
6.10834e-05
0.000202842
4.51181e-05
0.000160065
3.30202e-05
0.000113918
2.65075e-05
8.24006e-05
2.92698e-05
8.62937e-05
3.54143e-05
7.28218e-05
4.0906e-05
1.19549e-05
4.87027e-05
-7.07886e-05
5.27825e-05
-0.000142373
5.70952e-05
-0.000172421
6.34914e-05
-0.000174696
6.94622e-05
-0.00016412
7.17256e-05
-0.000142304
6.84043e-05
-0.000110488
5.87537e-05
-7.56129e-05
4.38251e-05
-4.98692e-05
2.71394e-05
-4.09836e-05
1.28104e-05
-4.29231e-05
1.93887e-06
-4.5209e-05
-4.40584e-05
-6.37214e-06
4.53245e-05
1.58472e-05
8.63363e-05
0.000142321
9.4056e-05
0.000214506
8.52268e-05
0.000211671
7.01531e-05
0.000175139
5.5327e-05
0.000128744
4.37474e-05
9.39802e-05
4.14628e-05
8.85783e-05
4.80747e-05
6.62098e-05
5.81868e-05
1.84271e-06
7.00855e-05
-8.26873e-05
7.5543e-05
-0.00014783
7.89814e-05
-0.00017586
8.41944e-05
-0.000179909
8.83801e-05
-0.000168306
8.70511e-05
-0.000140975
7.85484e-05
-0.000101985
6.42838e-05
-6.13482e-05
4.70437e-05
-3.26291e-05
2.98032e-05
-2.37431e-05
1.56447e-05
-2.87645e-05
5.31601e-06
-3.48803e-05
-3.6313e-05
-2.42933e-06
2.2948e-05
-7.10096e-06
5.50503e-05
0.000110219
7.33833e-05
0.000196173
7.47889e-05
0.000210266
6.73361e-05
0.000182592
5.86166e-05
0.000137464
4.91089e-05
0.000103488
4.69973e-05
9.06899e-05
5.59251e-05
5.7282e-05
7.20595e-05
-1.42917e-05
8.57031e-05
-9.6331e-05
9.02325e-05
-0.00015236
9.19809e-05
-0.000177608
9.5167e-05
-0.000183095
9.58868e-05
-0.000169026
8.97689e-05
-0.000134857
7.62395e-05
-8.84553e-05
5.86566e-05
-4.37653e-05
4.1186e-05
-1.51584e-05
2.59561e-05
-8.51313e-06
1.43253e-05
-1.71336e-05
5.89959e-06
-2.64544e-05
-2.98859e-05
-5.27311e-07
1.21292e-06
-8.31399e-06
1.49144e-05
9.6517e-05
3.20938e-05
0.000178994
4.18491e-05
0.00020051
4.77345e-05
0.000176706
4.91108e-05
0.000136087
4.49752e-05
0.000107624
4.74036e-05
8.82616e-05
6.16475e-05
4.30381e-05
8.13336e-05
-3.39779e-05
9.28096e-05
-0.000107807
9.34834e-05
-0.000153034
9.19337e-05
-0.000176058
9.00936e-05
-0.000181255
8.42036e-05
-0.000163136
7.23342e-05
-0.000122987
5.57656e-05
-7.18867e-05
3.87525e-05
-2.67521e-05
2.53744e-05
-1.78039e-06
1.59439e-05
9.17454e-07
9.24187e-06
-1.04314e-05
3.99341e-06
-2.12059e-05
-2.5402e-05
-4.9033e-07
-7.18866e-06
-1.12546e-06
-1.06788e-05
0.000100007
2.91566e-07
0.000168023
1.48995e-05
0.000185902
2.97634e-05
0.000161842
3.66384e-05
0.000129212
3.74949e-05
0.000106767
4.57415e-05
8.0015e-05
6.55057e-05
2.32739e-05
8.40078e-05
-5.248e-05
8.90992e-05
-0.000112898
8.34244e-05
-0.000147359
7.5206e-05
-0.00016784
6.38002e-05
-0.000169849
4.93691e-05
-0.000148705
3.32495e-05
-0.000106868
1.81975e-05
-5.68348e-05
8.12927e-06
-1.66839e-05
2.8208e-06
3.52811e-06
1.79002e-06
1.94829e-06
1.97746e-06
-1.06188e-05
5.50481e-07
-1.97788e-05
-2.31734e-05
-1.67811e-06
-6.3055e-06
5.17998e-06
-1.48889e-05
0.00010859
-1.01933e-05
0.000163328
4.7866e-06
0.000170923
1.95572e-05
0.000147072
2.63296e-05
0.00012244
3.09817e-05
0.000102115
4.49075e-05
6.60891e-05
6.69118e-05
1.26957e-06
7.92964e-05
-6.48646e-05
7.45965e-05
-0.000108199
6.13361e-05
-0.000134099
4.30496e-05
-0.000149553
2.02526e-05
-0.000147052
1.98297e-07
-0.000128651
-1.48061e-05
-9.18635e-05
-2.22671e-05
-4.9374e-05
-2.29482e-05
-1.60028e-05
-1.81188e-05
-1.30127e-06