/*--------------------------------*- C++ -*----------------------------------*\
| =========                 |                                                 |
| \\      /  F ield         | OpenFOAM: The Open Source CFD Toolbox           |
|  \\    /   O peration     | Version:  2.3.0                                 |
|   \\  /    A nd           | Web:      www.OpenFOAM.org                      |
|    \\/     M anipulation  |                                                 |
\*---------------------------------------------------------------------------*/
FoamFile
{
    version     2.0;
    format      ascii;
    class       volScalarField;
    location    "0.026";
    object      p;
}
// * * * * * * * * * * * * * * * * * * * * * * * * * * * * * * * * * * * * * //

dimensions      [1 -1 -2 0 0 0 0];

internalField   nonuniform List<scalar> 
725
(
923.866
891.17
856.248
881.296
790.734
918.492
891.975
857.134
883.167
767.823
915.98
892.175
858.656
905.953
772.186
916.394
890.769
856.591
897.354
717.81
919.46
888.237
854.968
881.809
675.917
802.968
204.91
-127.091
-159.566
-782.202
-954.306
-924.367
-903.285
-885.638
-875.961
-873.069
-872.669
-873.64
-875.509
-878.024
-881.309
-886.892
-896.353
-934.182
-1000.13
-1320.32
-942.415
-956.938
-959.793
-977.43
-1197.91
-902.529
-849.245
-808.876
-813.963
-817.254
-820.656
-823.789
-826.638
-829.087
-831.406
-832.777
-836.085
-829.731
-842.694
-785.325
-820.108
-604.312
4.42764
42.266
789.775
243.064
-114.651
-77.4723
-788.909
-1002.07
-924.128
-902.318
-884.951
-876.577
-873.657
-873.199
-874.121
-875.917
-878.328
-881.23
-886.028
-892.237
-917.508
-956.433
-1140.82
-963.084
-958.579
-962.822
-986.523
-862.321
-831.523
-831.5
-806.32
-814.667
-818.546
-821.796
-824.79
-827.53
-829.919
-832.264
-833.823
-837.237
-832.29
-846.844
-803.396
-856.562
-685.5
-481.984
-101.249
901.178
-230.111
-35.3591
-7.04764
-636.881
-1010.45
-912.783
-898.574
-882.963
-875.4
-872.766
-872.741
-873.978
-875.866
-878.207
-880.667
-884.074
-884.9
-893.701
-891.861
-916.622
-964.746
-959.478
-966.583
-997.644
-825.588
-783.459
-814.127
-804.063
-813.97
-817.962
-821.523
-824.787
-827.635
-830.043
-832.44
-834.095
-837.789
-834.16
-851.889
-823.48
-924.953
-864.979
-1427.27
161.594
625.004
-58.7609
-31.4258
-15.5871
-679.348
-988.167
-901.417
-891.868
-878.726
-873.306
-871.731
-872.128
-873.622
-875.664
-878.031
-880.035
-882.063
-878.135
-879.945
-844.64
-971.735
-926.461
-957.851
-964.482
-1015.75
-617.826
-717.709
-808.235
-804.168
-814.353
-818.854
-822.001
-824.868
-827.392
-829.853
-832.514
-834.337
-838.338
-835.619
-855.514
-836.539
-964.21
-959.058
-1685.13
206.96
60.1729
-38.0669
-35.6174
-24.8947
-705.956
-1071.72
-882.104
-881.322
-872.161
-869.787
-870.05
-871.444
-873.26
-875.489
-877.877
-879.533
-880.475
-873.156
-866.205
-800.467
-1153.01
-922.737
-957.631
-953.848
-976.98
-887.527
-754.248
-819.63
-805.992
-814.634
-819.202
-822.545
-825.449
-827.964
-830.237
-832.796
-834.573
-838.807
-836.761
-856.23
-838.177
-954.177
-973.503
-1785.04
176.876
-48.2016
-34.232
-17.9963
-224.89
-1359.01
-1013.15
-856.857
-871.355
-867.417
-867.769
-868.857
-870.714
-872.962
-875.394
-877.921
-879.327
-880.472
-871.093
-864.23
-721.231
-6.57977
-896.627
-960.65
-959.87
-888.334
-1276.26
-765.049
-814.912
-807.451
-815.235
-819.53
-822.657
-825.56
-828.053
-830.289
-833.03
-834.429
-839.525
-835.655
-856.88
-831.96
-932.088
-900.156
-1504.9
83.6204
-49.7346
-35.2252
-15.2465
-220.911
-1283.66
-1019.76
-850.142
-867.597
-865.719
-866.625
-868.406
-870.474
-872.85
-875.37
-877.947
-879.298
-880.466
-870.521
-863.078
-715.043
-18.4357
-845.822
-958.973
-962.063
-877.368
-1279.82
-769.323
-815.91
-803.126
-813.277
-819.742
-822.709
-825.587
-828.076
-830.314
-833.06
-834.364
-839.639
-835.454
-856.822
-829.675
-923.326
-877.296
-1381.03
22.2623
-49.7536
-35.4506
-27.0335
-616.616
-1084.45
-975.385
-845.16
-863.831
-864.015
-863.969
-867.826
-870.241
-872.737
-875.35
-877.978
-879.327
-880.475
-870.187
-861.029
-730.175
-516.938
-801.531
-953.708
-963.255
-1013
-719.741
-765.367
-817.32
-804.622
-806.599
-819.419
-822.733
-825.593
-828.078
-830.349
-833.085
-834.318
-839.489
-835.213
-856.224
-827.828
-913.928
-856.299
-1209.11
-72.2136
-49.8282
-35.3902
-82.843
-543.329
-914.356
-932.166
-841.083
-859.942
-862.285
-864.696
-867.399
-870.006
-872.616
-875.228
-877.908
-879.407
-880.528
-870.14
-857.76
-733.301
-863.393
-859.018
-951.675
-966.485
-981.671
-402.097
-725.699
-818.074
-806.203
-814.999
-819.98
-822.882
-825.578
-828.074
-830.376
-833.134
-834.409
-839.656
-835.607
-856.381
-826.695
-904.132
-833.299
-1026.71
-217.719
-51.1044
-34.3778
-147.203
-430.593
-810.869
-900.222
-836.777
-855.739
-860.478
-863.801
-866.945
-869.758
-872.536
-875.328
-878.029
-879.528
-880.538
-870.413
-850.117
-724.747
-869.214
-963.793
-953.743
-970.564
-1004.94
27.9549
-700.135
-816.871
-806.962
-815.802
-820.371
-822.95
-825.622
-828.122
-830.418
-833.156
-834.611
-839.769
-835.949
-855.628
-825.57
-894.151
-807.914
-841.753
-289.251
40.4135
7.86729
-20.2932
-1.32791
-114.56
37.2053
9.88562
-19.7886
6.09699
-143.052
36.7097
11.3063
-17.974
23.1269
-89.9823
39.1589
11.2075
-18.8539
11.3071
-96.3782
44.4794
10.2494
-20.2883
2.80076
-93.2558
-0.597753
-132.207
-252
-407.945
-749.051
-835.196
-822.007
-844.363
-855.386
-861.334
-865.575
-869.062
-872.258
-875.323
-878.094
-879.95
-880.699
-871.755
-849.519
-717.932
-654.177
-834.774
-961.376
-981.762
-1028.29
-783.337
-736.504
-809.921
-808.655
-819.131
-821.149
-823.286
-825.822
-828.25
-830.574
-833.145
-835.091
-839.435
-837.216
-852.793
-822.942
-867.522
-738.088
-384.034
-199.579
-263.427
-310.766
-394.063
-580.782
-567.611
-759.65
-793.444
-828.742
-847.876
-857.567
-863.606
-868.216
-871.976
-875.3
-878.4
-880.88
-882.905
-878.612
-869.318
-784.756
-646.074
-905.372
-959.901
-974.088
-1027.55
-920.941
-794.984
-826.774
-816.064
-822.162
-822.719
-824.042
-825.971
-828.132
-830.364
-833.187
-835.469
-839.844
-837.787
-852.146
-819.714
-845.627
-653.244
-0.805176
-73.7751
334.5
-319.986
-732.835
-638.334
-544.548
-715.259
-774.526
-817.431
-841.509
-854.021
-861.942
-867.511
-871.746
-875.361
-878.717
-881.893
-885.853
-888.844
-902.265
-911.476
-1092.07
-971.674
-960.791
-967.316
-1004.19
-982.105
-839.653
-852.614
-822.709
-824.875
-823.231
-823.695
-825.641
-828.247
-830.872
-833.611
-835.838
-840.249
-838.571
-853.377
-824.487
-855.669
-676.113
-201.785
-106.373
-73.5314
-817.786
-786.962
-621.243
-556.355
-699.11
-767.399
-810.911
-838.254
-852.163
-860.996
-867.057
-871.621
-875.452
-879.035
-882.806
-888.571
-898.039
-929.456
-981.262
-1204.4
-983.911
-954.444
-962.837
-979.846
-917.742
-873.178
-874.463
-828.314
-827.038
-824.116
-824.969
-826.556
-828.56
-831.036
-833.765
-836.08
-840.626
-839.459
-855.914
-835.169
-896.423
-778.756
-852.148
-87.4845
-5.57665
-645.668
-764.329
-648.551
-524.229
-683.696
-762.939
-808.086
-836.536
-851.258
-860.556
-866.571
-871.083
-874.99
-878.666
-882.784
-889.734
-903.078
-949.536
-1039.17
-1440.03
-957.597
-953.5
-961.56
-966.217
-1116.38
-927.006
-888.412
-831.258
-826.846
-822.45
-823.272
-825.034
-827.314
-830.024
-832.923
-835.324
-840.204
-839.205
-857.44
-843.944
-939.706
-896.884
-1877.82
222.354
)
;

boundaryField
{
    AirInlet
    {
        type            calculated;
        value           nonuniform List<scalar> 5(-48.2022 -48.1468 -51.1635 -48.9799 -51.1068);
    }
    WaterInlet
    {
        type            calculated;
        value           nonuniform List<scalar> 10(923.868 918.498 915.99 916.408 919.478 40.3954 37.1911 36.6997 39.1528 44.4774);
    }
    ChannelWall
    {
        type            calculated;
        value           nonuniform List<scalar> 
110
(
919.434
888.207
854.934
881.771
675.875
40.4395
7.89732
-20.2592
-1.28995
-114.518
44.4529
10.219
-20.3227
2.76246
-93.298
-5.61521
-645.693
-764.352
-648.577
-524.273
-683.74
-762.983
-808.13
-836.58
-851.302
-860.6
-866.616
-871.127
-875.034
-878.71
-882.828
-889.778
-903.122
-949.581
-1039.21
-1440.06
-957.597
-953.501
-961.56
-966.218
-1116.4
-927.05
-888.456
-831.302
-826.89
-822.495
-823.316
-825.078
-827.358
-830.068
-832.967
-835.368
-840.248
-839.249
-857.484
-843.988
-939.75
-896.928
-1877.86
222.352
923.893
891.2
856.282
881.334
790.776
803.006
204.929
-127.088
-159.564
-782.187
-954.265
-924.323
-903.241
-885.594
-875.917
-873.025
-872.625
-873.596
-875.464
-877.98
-881.265
-886.848
-896.309
-934.138
-1000.09
-1320.29
-942.414
-956.938
-959.792
-977.43
-1197.88
-902.485
-849.201
-808.832
-813.919
-817.21
-820.612
-823.745
-826.594
-829.043
-831.361
-832.732
-836.041
-829.687
-842.65
-785.281
-820.063
-604.268
4.47097
42.2786
)
;
    }
    Outlet
    {
        type            calculated;
        value           nonuniform List<scalar> 
15
(
-0.15199
-0.257925
-0.0149242
-0.0194071
-0.0249519
-0.00045126
-0.000797862
-0.0004905
-0.00256752
-0.121618
-1.90571
-0.207328
-0.160302
-0.000848565
-0.0445968
)
;
    }
    FrontAndBack
    {
        type            empty;
    }
}


// ************************************************************************* //
