/*--------------------------------*- C++ -*----------------------------------*\
| =========                 |                                                 |
| \\      /  F ield         | OpenFOAM: The Open Source CFD Toolbox           |
|  \\    /   O peration     | Version:  2.3.0                                 |
|   \\  /    A nd           | Web:      www.OpenFOAM.org                      |
|    \\/     M anipulation  |                                                 |
\*---------------------------------------------------------------------------*/
FoamFile
{
    version     2.0;
    format      ascii;
    class       volScalarField;
    location    "0.026";
    object      p;
}
// * * * * * * * * * * * * * * * * * * * * * * * * * * * * * * * * * * * * * //

dimensions      [1 -1 -2 0 0 0 0];

internalField   nonuniform List<scalar> 
725
(
1222.43
1049.94
994.095
965.597
840.164
1196.5
1051.86
995.33
946.485
810.766
1181.97
1053.21
998.128
956.197
834.261
1179.88
1050.92
1000.93
1000.71
1025.12
1187.86
1046.43
999.304
988.787
1009.35
1302.49
909.875
214.983
238.318
284.332
304.587
321.881
327.065
331.861
317.385
300.383
305.731
348.272
307.2
274.292
264.316
247.86
248.259
193.185
357.527
208.386
118.046
90.7228
64.5646
43.3827
48.3431
58.5911
64.9679
68.0071
68.7174
67.7799
65.667
61.9721
57.743
53.4063
48.5299
43.2915
37.4383
30.6595
24.2358
18.8614
14.1325
9.5993
5.44139
2.61216
853.497
402.16
106.958
232.761
289.621
304.634
321.236
325.191
328.71
315.021
299.831
292.006
293.771
304.75
297.247
254.478
248.854
246.537
189.088
357.608
204.311
109.623
87.3798
61.487
41.4629
51.0418
61.7952
67.0183
69.1938
69.3896
67.969
66.4483
61.9921
57.607
53.7044
48.9738
43.3691
37.4935
30.7242
24.3911
19.0661
14.318
9.73639
5.45681
1.4197
1296.98
722.678
75.9469
222.157
296.756
304.352
323.074
324.711
325.718
312.875
298.936
291.938
292.006
290.878
297.779
273.556
249.325
243.745
177.747
355.009
193.168
91.2418
84.342
53.8058
33.2187
53.6572
64.6916
69.5174
70.9111
70.4316
68.547
65.5323
61.8383
57.5576
52.7974
47.883
42.6774
36.884
30.1736
23.9975
18.9795
14.3508
9.91976
5.52626
1.14788
1416.1
644.293
429.464
242.826
312.214
314.836
329.043
326.226
320.19
309.469
297.398
292.032
289.664
290.228
262.757
277.185
247.015
237.838
160.98
330.864
171.814
57.5097
86.2609
51.4152
21.4127
56.8481
69.2982
74.3315
73.8345
72.2368
69.5156
66.134
62.0946
57.6286
52.8531
47.9902
42.6703
36.6959
29.3168
23.1976
18.7022
14.2813
9.87435
5.48854
1.05177
1633.8
717.987
204.243
338.035
350.941
320.939
337.236
331.924
312.262
300.873
295.524
292.222
286.846
293.212
280.615
248.517
248.207
247.202
132.781
316.588
171.186
213.8
355.991
259.592
94.097
64.2387
72.9473
79.0514
76.7801
74.261
70.8312
67.0027
62.5314
57.8668
53.0545
48.2926
42.9061
36.6086
28.0745
22.3271
18.6942
14.433
9.89332
5.42962
0.742529
4015.07
2115.96
685.639
727.635
385.87
313.551
349.706
353.419
390.089
298.385
293.772
291.438
284.105
296.4
276.316
261.706
243.5
246.826
115.177
327.472
396.11
943.571
878.485
625.474
93.0009
71.8444
77.4476
83.5218
78.6317
75.7737
71.7403
67.628
62.7964
58.0357
53.1711
48.5604
43.1093
36.7452
26.6864
21.2911
18.539
14.3896
9.75457
5.58061
0.979418
4356.65
1511.44
982.94
754.859
393.325
307.568
364.685
350.222
387.636
298.423
294.769
291.107
283.213
298.061
273.935
265.004
240.601
243.61
113.54
326.884
567.617
1010.69
937.974
804.886
75.8063
66.0399
78.8631
85.1083
79.3345
76.3154
72.0598
67.8468
62.8961
58.1005
53.2226
48.6647
43.2143
36.7933
26.156
20.9322
18.5021
14.3878
9.92325
5.83805
0.955513
4356.48
3303.29
924.786
640.301
394.892
297.878
365.088
349.948
382.012
309.149
296.295
290.631
282.707
300.413
272.869
256.664
239.858
243.061
111.332
276.919
805.043
1044.99
997.888
909.382
123.569
63.2886
80.9267
86.5217
80.0333
76.8481
72.3891
68.0728
63.0051
58.1709
53.2815
48.7946
43.3215
36.8363
25.6123
20.5563
18.462
14.3935
9.95127
5.79773
0.905398
4341.51
2001.73
556.26
519.59
395.059
284.337
366.512
348.756
379.224
338.516
297.68
289.414
283.906
302.22
271.305
256.373
239.964
242.376
107.807
86.9385
860.248
1060.41
1044.65
946.102
246.549
65.0831
81.9302
88.542
80.7285
77.3795
72.727
68.3085
63.1242
58.2778
53.476
49.0186
43.453
36.876
25.0577
20.1598
18.4185
14.4051
9.98403
5.79494
0.861496
3485.1
1809.52
489.398
497.903
371.813
271.831
362.087
355.934
353.152
308.644
298.447
287.711
284.563
321.037
269.759
256.41
240.749
240.131
105.775
-102.985
907.134
1106.36
1108.13
957.875
359.689
63.2498
82.73
94.1795
81.4247
77.9096
73.0804
69.1821
63.5089
58.408
53.5457
49.0263
43.6122
36.8662
24.5208
19.7406
18.3559
14.4327
10.0233
5.78136
0.832458
1478.37
1337.66
1287.56
1291.07
1397.07
1470.49
1342.54
1287.84
1272.93
1275.34
1472.73
1345.64
1288.05
1259.28
1134.45
1487.35
1344.8
1286.96
1260.23
1134.08
1513.22
1342.84
1284.68
1263.63
1176.2
2272.17
-170.853
512.117
579.706
255.447
257.589
325.073
344.224
332.948
290.476
287.609
289.708
273.199
252.45
264.707
257.294
242.694
229.326
112.574
-116.088
1016.9
1121.28
1124.57
1031.34
583.003
61.9859
83.9834
83.3771
82.6388
79.1927
73.8962
67.7467
62.7194
57.9427
54.1376
49.4242
44.1259
36.6595
23.0592
18.5427
18.1357
14.5596
10.1569
5.717
0.77561
1728.34
346.256
672.297
349.064
341.967
312.96
348.06
354.085
329.451
295.736
295.836
279.713
273.105
257.341
259.623
255.955
246.895
236.383
198.213
428.258
1096.66
1119.01
1121.25
1112.13
756.361
129.513
92.6749
90.6881
86.2883
81.3138
75.3527
69.2407
63.6561
58.4127
53.5404
50.0649
45.3867
37.1201
19.5412
16.5331
18.0717
14.6854
10.3434
5.6279
0.515039
1605.46
630.448
652.423
517.26
368.948
350.571
342.34
348.697
326.112
295.634
276.538
274.975
271.516
259.861
259.324
257.237
251.16
249.139
241.58
788.665
1106.39
1118.45
1119.79
1112.79
942.033
184.727
109.388
97.1262
89.0793
83.1526
76.3981
69.7087
63.6037
58.1357
53.4193
50.7431
46.9908
39.8025
15.6214
14.9819
19.248
14.6704
10.5241
5.44511
0.147904
1325.58
930.216
550.393
481.284
405.004
352.456
325.037
339.208
322.379
295.843
279.394
275.121
270.681
261.485
260.121
258.912
255.468
259.174
268.392
908.843
1110.53
1118.7
1119.96
1113.69
1083.13
219.371
128.466
103.775
92.1629
84.6786
77.1817
70.0972
63.7645
58.5059
54.6968
51.0895
48.3344
51.1733
86.6638
64.3319
19.8123
14.3768
10.8085
5.16843
-0.390753
1398.84
786.555
606.845
534.322
419.466
366.21
329.509
338.084
319.38
295.924
281.002
275.405
270.125
262.056
261.131
260.359
258.469
264.784
280.431
967.288
1112.41
1118.89
1120.35
1114.28
1119.73
279.671
133.996
108.416
100.581
91.9208
82.8033
73.4506
64.4801
58.2552
53.8449
95.1584
86.6882
57.5433
46.6061
46.3817
24.0809
21.7341
41.3684
31.4053
17.9907
)
;

boundaryField
{
    AirInlet
    {
        type            calculated;
        value           nonuniform List<scalar> 5(4277.46 5222.25 5203.62 4822.59 3793.28);
    }
    WaterInlet
    {
        type            calculated;
        value           nonuniform List<scalar> 10(1222.43 1196.51 1181.98 1179.89 1187.88 1478.35 1470.48 1472.72 1487.34 1513.22);
    }
    ChannelWall
    {
        type            calculated;
        value           nonuniform List<scalar> 
110
(
1187.84
1046.4
999.27
988.749
1009.31
1478.4
1337.69
1287.59
1291.11
1397.11
1513.19
1342.81
1284.65
1263.59
1176.16
1398.8
786.521
606.804
534.279
419.423
366.166
329.465
338.04
319.336
295.88
280.958
275.361
270.08
262.012
261.087
260.315
258.425
264.74
280.387
967.279
1112.41
1118.89
1120.35
1114.28
1119.72
279.637
133.952
108.372
100.537
91.8767
82.7592
73.4066
64.436
58.2111
53.8008
95.1147
86.6446
57.4997
46.5621
46.3376
24.0368
21.6901
41.3245
31.3615
17.9469
1222.45
1049.98
994.13
965.635
840.206
1302.53
909.918
215.025
238.362
284.376
304.631
321.926
327.109
331.905
317.429
300.427
305.775
348.315
307.244
274.336
264.36
247.904
248.303
193.229
357.571
208.43
118.091
90.7669
64.6087
43.4268
48.3872
58.6352
65.012
68.0513
68.7616
67.8241
65.7112
62.0162
57.7871
53.4505
48.574
43.3357
37.4824
30.7036
24.28
18.9055
14.1767
9.64344
5.48553
2.65629
)
;
    }
    Outlet
    {
        type            calculated;
        value           nonuniform List<scalar> 
15
(
-0.0441272
-0.132414
-0.220681
-0.308954
-0.397239
-0.451188
-0.470806
-0.490416
-0.510028
-0.529635
-0.583586
-0.671813
-0.760003
-0.84779
-0.931002
)
;
    }
    FrontAndBack
    {
        type            empty;
    }
}


// ************************************************************************* //
