/*--------------------------------*- C++ -*----------------------------------*\
| =========                 |                                                 |
| \\      /  F ield         | OpenFOAM: The Open Source CFD Toolbox           |
|  \\    /   O peration     | Version:  2.3.0                                 |
|   \\  /    A nd           | Web:      www.OpenFOAM.org                      |
|    \\/     M anipulation  |                                                 |
\*---------------------------------------------------------------------------*/
FoamFile
{
    version     2.0;
    format      ascii;
    class       volScalarField;
    location    "0.026";
    object      p_rgh;
}
// * * * * * * * * * * * * * * * * * * * * * * * * * * * * * * * * * * * * * //

dimensions      [1 -1 -2 0 0 0 0];

internalField   nonuniform List<scalar> 
725
(
923.893
891.2
856.282
881.334
790.776
918.571
892.066
857.237
883.281
767.95
916.113
892.328
858.828
906.144
772.397
916.58
890.983
856.831
897.622
718.106
919.699
888.511
855.277
882.154
676.297
803.006
204.929
-127.088
-159.564
-782.187
-954.265
-924.323
-903.241
-885.594
-875.917
-873.025
-872.625
-873.596
-875.464
-877.98
-881.265
-886.848
-896.309
-934.138
-1000.09
-1320.29
-942.414
-956.938
-959.792
-977.43
-1197.88
-902.485
-849.201
-808.832
-813.919
-817.21
-820.612
-823.745
-826.594
-829.043
-831.361
-832.732
-836.041
-829.687
-842.65
-785.281
-820.063
-604.268
4.47097
42.2786
789.877
243.12
-114.643
-77.4687
-788.864
-1001.95
-923.996
-902.186
-884.818
-876.444
-873.524
-873.066
-873.988
-875.785
-878.195
-881.098
-885.895
-892.105
-917.375
-956.3
-1140.72
-963.078
-958.578
-962.821
-986.522
-862.227
-831.391
-831.367
-806.188
-814.535
-818.414
-821.664
-824.657
-827.398
-829.787
-832.131
-833.691
-837.104
-832.158
-846.711
-803.263
-856.429
-685.367
-481.858
-101.221
901.374
-230.063
-35.3577
-7.04606
-636.82
-1010.24
-912.562
-898.353
-882.742
-875.18
-872.545
-872.52
-873.757
-875.645
-877.986
-880.446
-883.853
-884.679
-893.48
-891.64
-916.455
-964.732
-959.477
-966.582
-997.64
-825.439
-783.238
-813.906
-803.842
-813.749
-817.742
-821.302
-824.566
-827.415
-829.823
-832.219
-833.874
-837.568
-833.939
-851.668
-823.26
-924.732
-864.758
-1427.08
161.608
625.254
-58.7512
-31.4246
-15.5852
-679.238
-987.858
-901.108
-891.559
-878.417
-872.997
-871.422
-871.819
-873.313
-875.355
-877.722
-879.727
-881.754
-877.826
-879.636
-844.331
-971.491
-926.427
-957.849
-964.48
-1015.74
-617.607
-717.4
-807.926
-803.859
-814.045
-818.545
-821.692
-824.559
-827.083
-829.544
-832.205
-834.028
-838.029
-835.311
-855.205
-836.23
-963.901
-958.749
-1684.89
206.979
60.2578
-38.0663
-35.616
-24.8929
-705.801
-1071.32
-881.707
-880.925
-871.763
-869.39
-869.653
-871.047
-872.863
-875.092
-877.479
-879.136
-880.078
-872.759
-865.807
-800.07
-1152.71
-922.718
-957.628
-953.845
-976.973
-887.273
-753.851
-819.233
-805.595
-814.237
-818.805
-822.148
-825.052
-827.567
-829.84
-832.399
-834.176
-838.41
-836.364
-855.833
-837.78
-953.78
-973.106
-1784.7
176.901
-48.2011
-34.2315
-17.9955
-224.88
-1358.74
-1012.7
-856.406
-870.904
-866.966
-867.318
-868.406
-870.263
-872.511
-874.943
-877.47
-878.876
-880.021
-870.642
-863.778
-720.779
-6.21972
-896.593
-960.647
-959.867
-888.33
-1275.99
-764.598
-814.461
-806.999
-814.784
-819.079
-822.206
-825.109
-827.602
-829.838
-832.579
-833.978
-839.074
-835.205
-856.429
-831.509
-931.637
-899.705
-1504.49
83.6609
-49.7341
-35.2246
-15.2456
-220.9
-1283.34
-1019.29
-849.671
-867.127
-865.248
-866.155
-867.935
-870.003
-872.379
-874.899
-877.477
-878.827
-879.995
-870.05
-862.607
-714.572
-18.0573
-845.782
-958.969
-962.06
-877.365
-1279.54
-768.852
-815.439
-802.655
-812.806
-819.271
-822.238
-825.116
-827.605
-829.843
-832.59
-833.894
-839.168
-834.984
-856.352
-829.205
-922.855
-876.826
-1380.6
22.3137
-49.7531
-35.4501
-27.0323
-616.563
-1084.09
-974.895
-844.67
-863.341
-863.525
-863.479
-867.336
-869.751
-872.247
-874.859
-877.488
-878.837
-879.984
-869.697
-860.538
-729.684
-516.564
-801.496
-953.704
-963.251
-1012.98
-719.456
-764.877
-816.829
-804.131
-806.109
-818.929
-822.243
-825.103
-827.588
-829.858
-832.594
-833.828
-838.999
-834.723
-855.734
-827.338
-913.438
-855.809
-1208.66
-72.1501
-49.8277
-35.3896
-82.834
-543.243
-913.959
-931.656
-840.573
-859.432
-861.775
-864.186
-866.889
-869.496
-872.106
-874.718
-877.398
-878.897
-880.018
-869.63
-857.25
-732.791
-862.998
-858.978
-951.671
-966.481
-981.649
-401.774
-725.189
-817.564
-805.693
-814.489
-819.47
-822.372
-825.068
-827.564
-829.866
-832.624
-833.9
-839.146
-835.097
-855.871
-826.185
-903.622
-832.789
-1026.23
-217.636
-51.1039
-34.3772
-147.167
-430.476
-810.438
-899.693
-836.247
-855.21
-859.949
-863.271
-866.415
-869.228
-872.006
-874.798
-877.499
-878.998
-880.009
-869.883
-849.588
-724.218
-868.801
-963.739
-953.739
-970.56
-1004.92
28.3048
-699.606
-816.342
-806.433
-815.272
-819.842
-822.42
-825.092
-827.592
-829.889
-832.627
-834.081
-839.239
-835.42
-855.099
-825.041
-893.622
-807.384
-841.245
-289.134
41.1556
8.57421
-19.6215
-0.691517
-113.959
38.0005
10.6534
-19.0482
6.80997
-142.366
37.5581
12.135
-17.1649
23.9165
-89.2124
40.0603
12.0972
-17.976
12.1732
-95.5238
45.4339
11.2
-19.3417
3.74356
-92.317
-0.562459
-132.185
-251.883
-407.793
-748.543
-834.613
-821.423
-843.779
-854.802
-860.75
-864.992
-868.479
-871.675
-874.739
-877.511
-879.366
-880.115
-871.171
-848.935
-717.348
-653.715
-834.683
-961.371
-981.757
-1028.27
-782.986
-735.921
-809.337
-808.071
-818.548
-820.566
-822.702
-825.239
-827.666
-829.991
-832.562
-834.508
-838.852
-836.633
-852.21
-822.359
-866.939
-737.505
-383.458
-199.396
-262.947
-310.634
-393.842
-580.423
-566.961
-758.978
-792.772
-828.07
-847.204
-856.895
-862.934
-867.544
-871.304
-874.629
-877.728
-880.208
-882.233
-877.94
-868.646
-784.084
-645.524
-905.285
-959.895
-974.082
-1027.51
-920.485
-794.312
-826.102
-815.392
-821.49
-822.048
-823.37
-825.299
-827.461
-829.692
-832.516
-834.798
-839.173
-837.115
-851.475
-819.043
-844.955
-652.572
-0.134444
-73.5827
335.23
-319.807
-732.489
-637.91
-543.849
-714.499
-773.766
-816.67
-840.749
-853.26
-861.181
-866.751
-870.985
-874.601
-877.957
-881.132
-885.093
-888.084
-901.505
-910.716
-1091.49
-971.631
-960.784
-967.309
-1004.17
-981.638
-838.893
-851.854
-821.949
-824.115
-822.471
-822.935
-824.881
-827.487
-830.112
-832.851
-835.079
-839.49
-837.812
-852.617
-823.727
-854.909
-675.353
-201.043
-106.177
-72.7887
-817.369
-786.52
-620.743
-555.536
-698.262
-766.551
-810.063
-837.406
-851.315
-860.147
-866.209
-870.772
-874.603
-878.187
-881.957
-887.723
-897.191
-928.608
-980.413
-1203.73
-983.882
-954.437
-962.829
-979.811
-917.188
-872.33
-873.614
-827.466
-826.19
-823.267
-824.12
-825.708
-827.712
-830.188
-832.917
-835.232
-839.777
-838.611
-855.065
-834.32
-895.575
-777.907
-851.379
-87.3893
-4.75818
-645.138
-763.859
-648.007
-523.306
-682.759
-762.002
-807.149
-835.599
-850.321
-859.619
-865.635
-870.146
-874.053
-877.729
-881.847
-888.797
-902.141
-948.6
-1038.23
-1439.35
-957.582
-953.492
-961.552
-966.194
-1115.82
-926.069
-887.475
-830.321
-825.909
-821.514
-822.335
-824.097
-826.377
-829.087
-831.986
-834.387
-839.267
-838.268
-856.503
-843.007
-938.769
-895.947
-1877.07
222.398
)
;

boundaryField
{
    AirInlet
    {
        type            fixedFluxPressure;
        gradient        nonuniform List<scalar> 5(-62.7872 158775 -140992 84832 -234.824);
        value           nonuniform List<scalar> 5(-48.2018 -48.1464 -51.163 -48.9794 -51.1062);
    }
    WaterInlet
    {
        type            fixedFluxPressure;
        gradient        nonuniform List<scalar> 10(-0.000136709 -0.266988 -0.0132389 -1.15987 -1.44574 -0.0121615 -7.34781 -1.38708 -7.75123 -1.91669);
        value           nonuniform List<scalar> 10(923.893 918.571 916.113 916.58 919.699 41.1556 38.0004 37.558 40.0602 45.4339);
    }
    ChannelWall
    {
        type            fixedFluxPressure;
        gradient        uniform 0;
        value           nonuniform List<scalar> 
110
(
919.699
888.511
855.277
882.154
676.297
41.1556
8.57421
-19.6215
-0.691517
-113.959
45.4339
11.2
-19.3417
3.74356
-92.317
-4.75818
-645.138
-763.859
-648.007
-523.306
-682.759
-762.002
-807.149
-835.599
-850.321
-859.619
-865.635
-870.146
-874.053
-877.729
-881.847
-888.797
-902.141
-948.6
-1038.23
-1439.35
-957.582
-953.492
-961.552
-966.194
-1115.82
-926.069
-887.475
-830.321
-825.909
-821.514
-822.335
-824.097
-826.377
-829.087
-831.986
-834.387
-839.267
-838.268
-856.503
-843.007
-938.769
-895.947
-1877.07
222.398
923.893
891.2
856.282
881.334
790.776
803.006
204.929
-127.088
-159.564
-782.187
-954.265
-924.323
-903.241
-885.594
-875.917
-873.025
-872.625
-873.596
-875.464
-877.98
-881.265
-886.848
-896.309
-934.138
-1000.09
-1320.29
-942.414
-956.938
-959.792
-977.43
-1197.88
-902.485
-849.201
-808.832
-813.919
-817.21
-820.612
-823.745
-826.594
-829.043
-831.361
-832.732
-836.041
-829.687
-842.65
-785.281
-820.063
-604.268
4.47097
42.2786
)
;
    }
    Outlet
    {
        type            totalPressure;
        rho             rho;
        psi             none;
        gamma           1;
        p0              uniform 0;
        value           nonuniform List<scalar> 
15
(
-0.151946
-0.257792
0
0
0
0
-0.000326982
0
-0.0020574
-0.121088
-1.7227
-0.206656
-0.159541
0
0
)
;
    }
    FrontAndBack
    {
        type            empty;
    }
}


// ************************************************************************* //
