/*--------------------------------*- C++ -*----------------------------------*\
| =========                 |                                                 |
| \\      /  F ield         | OpenFOAM: The Open Source CFD Toolbox           |
|  \\    /   O peration     | Version:  2.3.0                                 |
|   \\  /    A nd           | Web:      www.OpenFOAM.org                      |
|    \\/     M anipulation  |                                                 |
\*---------------------------------------------------------------------------*/
FoamFile
{
    version     2.0;
    format      ascii;
    class       surfaceScalarField;
    location    "0.026";
    object      phi;
}
// * * * * * * * * * * * * * * * * * * * * * * * * * * * * * * * * * * * * * //

dimensions      [0 3 -1 0 0 0 0];

internalField   nonuniform List<scalar> 
1380
(
1.33038e-12
6.69622e-13
1.10125e-12
2.29128e-13
1.03224e-12
6.9007e-14
1.84819e-13
8.47424e-13
6.66452e-13
-4.81633e-13
2.40797e-12
2.61649e-13
2.49578e-12
1.41315e-13
2.60315e-12
-3.83571e-14
3.11123e-12
3.39338e-13
-1.421e-12
5.19868e-12
2.67341e-12
-4.11764e-13
2.94136e-12
-1.26629e-13
3.09757e-12
-1.94569e-13
3.94245e-12
-5.05545e-13
-3.83634e-12
6.3578e-12
2.34811e-12
-7.59874e-13
2.4301e-12
-2.08622e-13
2.3545e-12
-1.18961e-13
1.84571e-12
3.23959e-15
-4.49076e-13
-1.54156e-12
1.24013e-12
1.0315e-12
9.12543e-13
9.15782e-13
4.66706e-13
3.58964e-12
-4.07127e-12
5.1495e-12
-1.55987e-12
2.20254e-12
2.94696e-12
2.75566e-13
1.92697e-12
-1.96648e-13
4.72214e-13
-1.06655e-13
-8.99937e-14
8.60696e-14
-1.92724e-13
3.20897e-13
-2.34827e-13
6.66889e-13
-3.45992e-13
7.1429e-13
-4.74014e-14
6.59418e-13
5.48718e-14
8.94263e-13
-2.34845e-13
8.65441e-13
2.88219e-14
6.21706e-13
2.43735e-13
7.5474e-13
-1.33034e-13
5.38375e-13
2.16365e-13
3.41119e-13
1.97256e-13
7.51135e-14
2.66006e-13
-3.22686e-14
1.07382e-13
1.43259e-12
-1.46486e-12
1.59289e-12
-1.60299e-13
1.47209e-12
1.20799e-13
1.588e-12
-1.15917e-13
1.51819e-12
6.98188e-14
1.13359e-12
3.84598e-13
8.20685e-13
3.12903e-13
6.33765e-13
1.8692e-13
5.2971e-13
1.04055e-13
4.78015e-13
5.16956e-14
4.58356e-13
1.96585e-14
4.53192e-13
5.1638e-15
4.64245e-13
-1.10529e-14
4.70709e-13
-6.46425e-15
4.77609e-13
-6.89928e-15
4.93567e-13
-1.59583e-14
5.11537e-13
-1.79697e-14
5.36598e-13
-2.50616e-14
5.58848e-13
-2.22498e-14
5.56944e-13
1.90424e-15
5.34268e-13
2.26765e-14
5.0985e-13
2.44184e-14
4.91491e-13
1.83582e-14
4.75092e-13
1.63992e-14
4.66288e-13
8.80459e-15
-7.29444e-15
5.24488e-12
-4.11746e-12
4.92005e-12
-1.23503e-12
3.84633e-12
4.02068e-12
1.36509e-12
4.40822e-12
2.72822e-13
1.56448e-12
2.77197e-13
-9.43681e-14
5.59239e-13
-4.74767e-13
9.83479e-13
-6.59067e-13
1.57485e-12
-9.37364e-13
1.65994e-12
-1.32489e-13
1.51761e-12
1.97202e-13
1.41886e-12
-1.36093e-13
1.41041e-12
3.7272e-14
1.26671e-12
3.87427e-13
1.08016e-12
5.35222e-14
1.10153e-12
1.94991e-13
8.10177e-13
4.88608e-13
3.79701e-13
6.96481e-13
2.39401e-13
2.47682e-13
2.47732e-12
-3.70278e-12
3.04184e-12
-7.24819e-13
3.13763e-12
2.50071e-14
3.42937e-12
-4.07655e-13
3.37926e-12
1.19933e-13
2.77958e-12
9.8427e-13
2.18069e-12
9.11793e-13
1.74305e-12
6.24564e-13
1.47263e-12
3.7447e-13
1.32945e-12
1.94879e-13
1.26143e-12
8.76746e-14
1.23675e-12
2.98484e-14
1.23563e-12
-9.93403e-15
1.24981e-12
-2.06437e-14
1.26785e-12
-2.49422e-14
1.29104e-12
-3.91413e-14
1.33545e-12
-6.23814e-14
1.38771e-12
-7.73233e-14
1.4382e-12
-7.27437e-14
1.44522e-12
-5.10789e-15
1.40839e-12
5.95022e-14
1.35737e-12
7.54437e-14
1.31193e-12
6.37911e-14
1.27333e-12
5.50026e-14
1.25016e-12
3.19702e-14
2.51751e-15
3.81385e-12
-1.57352e-12
2.57266e-12
6.16254e-15
2.71465e-12
3.87869e-12
2.00729e-12
5.11557e-12
1.0951e-12
2.47668e-12
8.48767e-13
1.51963e-13
1.12213e-12
-7.48133e-13
1.56599e-12
-1.10292e-12
2.27722e-12
-1.6486e-12
2.35629e-12
-2.11557e-13
2.13062e-12
4.22866e-13
1.9384e-12
5.61253e-14
1.96912e-12
6.55435e-15
2.0748e-12
2.81747e-13
1.62374e-12
5.04586e-13
1.46118e-12
3.57548e-13
1.22537e-12
7.24417e-13
7.5349e-13
1.16837e-12
4.24989e-13
5.76183e-13
2.98909e-12
-6.26688e-12
3.70852e-12
-1.44425e-12
3.91229e-12
-1.78769e-13
4.27757e-12
-7.72926e-13
4.21791e-12
1.79588e-13
3.57113e-12
1.63105e-12
3.01918e-12
1.46375e-12
2.5501e-12
1.09364e-12
2.23114e-12
6.93431e-13
2.03508e-12
3.90941e-13
1.92831e-12
1.94449e-13
1.88022e-12
7.79371e-14
1.86591e-12
4.37085e-15
1.87198e-12
-2.67082e-14
1.89116e-12
-4.41198e-14
1.92019e-12
-6.8174e-14
1.96558e-12
-1.07769e-13
2.0312e-12
-1.42947e-13
2.10244e-12
-1.4398e-13
2.12347e-12
-2.61377e-14
2.08685e-12
9.61226e-14
2.02688e-12
1.35413e-13
1.96431e-12
1.26355e-13
1.91441e-12
1.04908e-13
1.87886e-12
6.75127e-14
2.42649e-14
-1.89022e-13
-2.92605e-12
-1.45229e-12
1.26943e-12
-9.01943e-14
2.51659e-12
2.08404e-12
2.94134e-12
1.42322e-12
3.13749e-12
1.25123e-12
3.23956e-13
1.57341e-12
-1.07032e-12
1.95357e-12
-1.48308e-12
2.74453e-12
-2.43955e-12
2.84048e-12
-3.07509e-13
2.56852e-12
6.94826e-13
2.34659e-12
2.78058e-13
2.3664e-12
-1.32624e-14
2.58803e-12
6.01205e-14
2.20544e-12
8.87175e-13
1.89087e-12
6.72112e-13
1.68199e-12
9.33298e-13
1.17673e-12
1.67363e-12
5.94802e-13
1.15811e-12
3.31283e-12
-8.98491e-12
4.13594e-12
-2.26736e-12
4.34926e-12
-3.92089e-13
4.50478e-12
-9.28439e-13
4.05613e-12
6.28238e-13
3.49916e-12
2.18802e-12
3.27989e-12
1.68302e-12
2.99001e-12
1.38352e-12
2.75184e-12
9.31599e-13
2.56045e-12
5.82334e-13
2.43648e-12
3.1842e-13
2.37144e-12
1.42977e-13
2.34594e-12
2.9871e-14
2.34102e-12
-2.17901e-14
2.34989e-12
-5.29952e-14
2.37056e-12
-8.88417e-14
2.41163e-12
-1.48838e-13
2.47989e-12
-2.11206e-13
2.56621e-12
-2.30301e-13
2.59506e-12
-5.49813e-14
2.56e-12
1.3118e-13
2.50099e-12
1.94423e-13
2.43654e-12
1.90805e-13
2.38325e-12
1.58194e-13
2.34278e-12
1.07985e-13
5.16257e-14
4.8985e-12
-7.35785e-12
2.08506e-12
4.08288e-12
2.24056e-12
2.36108e-12
1.66796e-12
3.51394e-12
6.462e-13
4.15926e-12
1.31578e-12
-3.45624e-13
1.86288e-12
-1.61742e-12
1.90805e-12
-1.52824e-12
2.69838e-12
-3.22988e-12
2.98264e-12
-5.91774e-13
2.81313e-12
8.64341e-13
2.62639e-12
4.64799e-13
2.57223e-12
4.08973e-14
2.7814e-12
-1.49053e-13
2.67081e-12
9.97761e-13
2.36568e-12
9.77251e-13
2.02592e-12
1.27305e-12
1.62106e-12
2.07849e-12
7.43711e-13
2.03546e-12
3.41519e-12
-1.16564e-11
4.31076e-12
-3.16293e-12
4.75845e-12
-8.39777e-13
3.90232e-12
-7.2311e-14
3.17918e-12
1.35138e-12
3.32879e-12
2.0384e-12
3.25661e-12
1.7552e-12
3.13267e-12
1.50745e-12
3.01115e-12
1.05312e-12
2.86661e-12
7.2687e-13
2.75649e-12
4.28538e-13
2.68976e-12
2.09708e-13
2.66222e-12
5.74195e-14
2.64903e-12
-8.60589e-15
2.64501e-12
-4.89767e-14
2.64961e-12
-9.34417e-14
2.67666e-12
-1.75885e-13
2.74031e-12
-2.74855e-13
2.84061e-12
-3.30598e-13
2.86833e-12
-8.27052e-14
2.83002e-12
1.69491e-13
2.77523e-12
2.49213e-13
2.71887e-12
2.47159e-13
2.67214e-12
2.0493e-13
2.63583e-12
1.44292e-13
8.10144e-14
-3.23492e-12
-3.96293e-12
1.35323e-12
-5.05265e-13
1.63519e-12
2.07911e-12
4.50145e-13
4.69899e-12
1.26643e-13
4.48276e-12
4.00909e-13
-6.19891e-13
4.54891e-13
-1.6714e-12
3.59803e-13
-1.43315e-12
4.511e-13
-3.32118e-12
5.89312e-13
-7.29986e-13
6.20205e-13
8.33448e-13
5.95023e-13
4.89982e-13
5.82011e-13
5.39089e-14
6.18942e-13
-1.85983e-13
6.14349e-13
1.00235e-12
5.58105e-13
1.03349e-12
5.39809e-13
1.29135e-12
4.10587e-13
2.20771e-12
2.79978e-13
2.16607e-12
4.50021e-13
-1.18264e-11
1.13032e-12
-3.84323e-12
1.51149e-12
-1.22094e-12
8.33381e-13
6.05795e-13
9.58962e-13
1.2258e-12
8.23611e-13
2.17376e-12
7.13701e-13
1.86511e-12
6.78134e-13
1.54302e-12
6.65172e-13
1.06608e-12
6.45928e-13
7.46114e-13
6.27081e-13
4.47384e-13
6.15098e-13
2.21691e-13
6.09826e-13
6.2692e-14
6.07038e-13
-5.81854e-15
6.04746e-13
-4.6684e-14
6.03398e-13
-9.20941e-14
6.06714e-13
-1.79202e-13
6.2056e-13
-2.88701e-13
6.41811e-13
-3.51849e-13
6.489e-13
-8.97941e-14
6.39325e-13
1.79066e-13
6.26318e-13
2.6222e-13
6.15691e-13
2.57786e-13
6.07846e-13
2.12776e-13
6.0087e-13
1.51268e-13
8.54522e-14
-4.33032e-12
5.27394e-13
2.34954e-12
-7.18513e-12
1.69066e-12
2.73799e-12
4.641e-13
5.92555e-12
1.38489e-13
4.80837e-12
4.53569e-13
-9.3497e-13
4.86393e-13
-1.70423e-12
3.51733e-13
-1.29849e-12
3.57868e-13
-3.32732e-12
5.47487e-13
-9.19606e-13
6.12383e-13
7.68552e-13
5.97887e-13
5.04477e-13
5.8235e-13
6.94462e-14
6.17216e-13
-2.20849e-13
6.21866e-13
9.97704e-13
5.61631e-13
1.09373e-12
5.68334e-13
1.28465e-12
4.47518e-13
2.32852e-12
3.72292e-13
2.2413e-12
4.2699e-13
-1.18811e-11
2.26299e-12
-5.67923e-12
1.66113e-12
-6.1908e-13
5.1501e-13
1.75192e-12
8.22699e-13
9.18113e-13
7.69999e-13
2.22645e-12
6.90913e-13
1.9442e-12
6.63894e-13
1.57004e-12
6.59824e-13
1.07015e-12
6.45724e-13
7.60215e-13
6.29519e-13
4.63588e-13
6.19098e-13
2.32113e-13
6.14455e-13
6.7335e-14
6.11729e-13
-3.093e-15
6.08945e-13
-4.38993e-14
6.06673e-13
-8.98224e-14
6.09e-13
-1.81529e-13
6.22616e-13
-3.02316e-13
6.44003e-13
-3.73236e-13
6.50723e-13
-9.65143e-14
6.40273e-13
1.89516e-13
6.27254e-13
2.75238e-13
6.17549e-13
2.67491e-13
6.10912e-13
2.19414e-13
6.04815e-13
1.57365e-13
8.95465e-14
3.87298e-12
-3.18558e-12
2.07509e-12
-5.38725e-12
1.50678e-12
3.3063e-12
3.8683e-13
7.0455e-12
1.54373e-13
5.04083e-12
5.43452e-13
-1.32405e-12
5.19266e-13
-1.68004e-12
3.62569e-13
-1.14179e-12
3.09052e-13
-3.2738e-12
5.00501e-13
-1.11106e-12
6.02214e-13
6.6684e-13
5.99008e-13
5.07683e-13
5.79851e-13
8.86035e-14
6.13105e-13
-2.54103e-13
6.22903e-13
9.87905e-13
5.86997e-13
1.12964e-12
5.92998e-13
1.27865e-12
5.04991e-13
2.41653e-12
4.8533e-13
2.26096e-12
1.65391e-13
-1.15612e-11
1.86418e-12
-7.37802e-12
2.24304e-12
-9.9794e-13
5.60305e-13
3.43465e-12
6.13234e-13
8.65184e-13
6.18762e-13
2.22093e-12
6.50673e-13
1.91229e-12
6.44493e-13
1.57622e-12
6.51787e-13
1.06286e-12
6.42782e-13
7.69219e-13
6.29548e-13
4.76822e-13
6.20924e-13
2.40737e-13
6.17043e-13
7.12166e-14
6.14403e-13
-4.53011e-16
6.11184e-13
-4.06805e-14
6.07958e-13
-8.65963e-14
6.0928e-13
-1.82851e-13
6.22544e-13
-3.1558e-13
6.44196e-13
-3.94888e-13
6.5022e-13
-1.02538e-13
6.38774e-13
2.00962e-13
6.25908e-13
2.88103e-13
6.17303e-13
2.76096e-13
6.11995e-13
2.24721e-13
6.06863e-13
1.62497e-13
9.33208e-14
-5.52595e-12
2.50037e-12
1.06899e-12
-1.19822e-11
1.27004e-12
3.10525e-12
2.90181e-13
8.02536e-12
1.63736e-13
5.16727e-12
5.57596e-13
-1.71791e-12
5.62267e-13
-1.68471e-12
4.06824e-13
-9.86351e-13
3.02258e-13
-3.16923e-12
4.78752e-13
-1.28755e-12
5.88464e-13
5.57128e-13
6.0201e-13
4.94136e-13
5.73253e-13
1.17361e-13
6.07352e-13
-2.88202e-13
6.23816e-13
9.71442e-13
6.03249e-13
1.1502e-12
6.18707e-13
1.26319e-12
5.80861e-13
2.45438e-12
6.60506e-13
2.18131e-12
1.1812e-13
-1.10188e-11
2.32095e-12
-9.58085e-12
2.17862e-12
-8.55608e-13
5.45649e-13
5.06762e-12
5.58124e-13
8.52709e-13
5.62909e-13
2.21614e-12
6.07463e-13
1.86773e-12
6.21215e-13
1.56247e-12
6.40946e-13
1.04313e-12
6.37145e-13
7.7302e-13
6.27199e-13
4.86768e-13
6.2062e-13
2.47316e-13
6.17574e-13
7.42626e-14
6.15071e-13
2.04991e-15
6.11419e-13
-3.70289e-14
6.07223e-13
-8.23997e-14
6.07594e-13
-1.83223e-13
6.20418e-13
-3.28404e-13
6.42191e-13
-4.16661e-13
6.4738e-13
-1.07728e-13
6.34874e-13
2.13469e-13
6.2225e-13
3.00728e-13
6.14933e-13
2.83413e-13
6.11106e-13
2.28548e-13
6.07008e-13
1.66595e-13
9.67774e-14
-3.96846e-12
6.62884e-12
4.11085e-13
-1.63617e-11
1.03401e-12
2.48232e-12
1.67366e-13
8.89201e-12
2.22583e-13
5.11206e-12
6.14961e-13
-2.11029e-12
6.01106e-13
-1.67086e-12
4.68915e-13
-8.5416e-13
3.72082e-13
-3.0724e-12
4.6543e-13
-1.3809e-12
5.75111e-13
4.47447e-13
5.94322e-13
4.74926e-13
5.69667e-13
1.42015e-13
5.97591e-13
-3.16126e-13
6.21563e-13
9.47469e-13
6.16085e-13
1.15568e-12
6.39641e-13
1.23963e-12
6.68988e-13
2.42503e-12
8.72876e-13
1.97743e-12
5.50715e-13
-1.06966e-11
2.86858e-12
-1.18987e-11
2.01938e-12
-6.40856e-15
-8.41536e-14
7.17115e-12
3.74305e-13
3.94251e-13
5.52136e-13
2.03831e-12
5.67633e-13
1.85224e-12
5.95402e-13
1.5347e-12
6.278e-13
1.01073e-12
6.28542e-13
7.72279e-13
6.22582e-13
4.92728e-13
6.18104e-13
2.51794e-13
6.16094e-13
7.62726e-14
6.13672e-13
4.47145e-15
6.09959e-13
-3.33157e-14
6.04861e-13
-7.73017e-14
6.03923e-13
-1.82284e-13
6.16151e-13
-3.40632e-13
6.38194e-13
-4.38704e-13
6.42061e-13
-1.11595e-13
6.28405e-13
2.27125e-13
6.16308e-13
3.12825e-13
6.10461e-13
2.8926e-13
6.08238e-13
2.30771e-13
6.05301e-13
1.69531e-13
9.99864e-14
1.24442e-12
7.5558e-13
1.05404e-12
1.90384e-13
9.9044e-13
6.35962e-14
9.23163e-13
6.7277e-14
7.16248e-13
2.06916e-13
2.35119e-12
4.04388e-13
2.44497e-12
9.66096e-14
2.50657e-12
1.98689e-15
2.79728e-12
-2.23425e-13
3.066e-13
3.20692e-12
2.67271e-12
-2.68326e-13
2.93144e-12
-1.62113e-13
3.04428e-12
-1.10858e-13
3.52964e-12
-7.08778e-13
-1.82462e-12
5.66086e-12
2.40468e-12
-6.73002e-13
2.47614e-12
-2.33576e-13
2.46744e-12
-1.02155e-13
2.32295e-12
-5.64291e-13
-1.36967e-12
1.868e-12
1.327e-12
1.09342e-12
9.91267e-13
4.26975e-13
-9.42697e-13
3.13072e-12
3.70503e-12
-9.40006e-14
-1.3137e-11
9.33858e-13
1.45446e-12
4.79671e-13
9.34619e-12
2.47506e-12
3.11667e-12
3.2142e-12
-2.84943e-12
3.15078e-12
-1.60743e-12
2.95338e-12
-6.56759e-13
2.19842e-12
-2.31743e-12
2.04181e-12
-1.22429e-12
2.39435e-12
9.49046e-14
2.57977e-12
2.89504e-13
2.66972e-12
5.20678e-14
2.53264e-12
-1.79044e-13
2.7433e-12
7.36809e-13
2.87383e-12
1.02515e-12
3.04831e-12
1.06516e-12
3.92318e-12
1.55015e-12
5.91351e-12
-1.29054e-14
5.86761e-12
-1.06507e-11
1.21702e-11
-1.82013e-11
4.33253e-12
7.8313e-12
-6.38072e-12
1.78844e-11
-7.73502e-14
-5.90912e-12
2.18456e-12
-2.23604e-13
1.89531e-12
2.14149e-12
2.38538e-12
1.04463e-12
2.60585e-12
7.9026e-13
2.69101e-12
6.87121e-13
2.71699e-12
4.6675e-13
2.7326e-12
2.36187e-13
2.72848e-12
8.03889e-14
2.72323e-12
9.72283e-15
2.70445e-12
-1.454e-14
2.6598e-12
-3.26457e-14
2.64385e-12
-1.66334e-13
2.68544e-12
-3.82223e-13
2.81009e-12
-5.6336e-13
2.78542e-12
-8.69241e-14
2.7059e-12
3.0665e-13
2.67471e-12
3.44012e-13
2.66714e-12
2.9683e-13
2.67675e-12
2.2116e-13
2.68348e-12
1.62804e-13
1.15702e-13
6.41364e-12
4.98315e-13
1.05765e-12
-7.78103e-12
3.49309e-13
2.1628e-12
2.61069e-12
7.08482e-12
4.05264e-12
1.67471e-12
3.6018e-12
-2.39859e-12
3.59341e-12
-1.59904e-12
3.32189e-12
-3.85244e-13
2.39637e-12
-1.39191e-12
1.99015e-12
-8.18066e-13
2.18053e-12
-9.5479e-14
2.33464e-12
1.35398e-13
2.39869e-12
-1.19892e-14
2.29433e-12
-7.46822e-14
2.49862e-12
5.32526e-13
2.77355e-12
7.50209e-13
3.08425e-12
7.54464e-13
3.80838e-12
8.26021e-13
4.89006e-12
-1.09459e-12
2.56382e-12
-8.32451e-12
-1.53446e-12
-1.4103e-11
-2.4998e-12
8.79664e-12
-6.45532e-13
1.60301e-11
-1.30569e-12
-5.24896e-12
7.03879e-13
-2.23318e-12
1.18164e-12
1.66372e-12
1.8449e-12
3.81373e-13
2.13197e-12
5.03192e-13
2.28558e-12
5.3351e-13
2.39287e-12
3.59454e-13
2.45345e-12
1.75608e-13
2.47416e-12
5.96784e-14
2.47776e-12
6.12864e-15
2.45388e-12
9.33432e-15
2.39101e-12
3.02287e-14
2.34618e-12
-1.21502e-13
2.3549e-12
-3.90943e-13
2.46887e-12
-6.77333e-13
2.37519e-12
6.75284e-15
2.28824e-12
3.93601e-13
2.31255e-12
3.19705e-13
2.35775e-12
2.51626e-13
2.41014e-12
1.68768e-13
2.44117e-12
1.31775e-13
1.29064e-13
4.48071e-12
1.67847e-12
1.1853e-12
-4.48563e-12
7.07812e-13
2.6403e-12
3.62856e-12
4.16407e-12
4.27291e-12
1.03036e-12
3.52463e-12
-1.65031e-12
3.24702e-12
-1.32143e-12
2.93815e-12
-7.63727e-14
2.2171e-12
-6.70857e-13
1.83702e-12
-4.37987e-13
1.81478e-12
-7.32412e-14
1.90713e-12
4.30542e-14
1.91711e-12
-2.19689e-14
1.86804e-12
-2.56196e-14
2.08972e-12
3.10854e-13
2.41826e-12
4.21663e-13
2.75374e-12
4.18987e-13
3.16985e-12
4.09906e-13
3.14879e-12
-1.07353e-12
-2.14853e-12
-3.02718e-12
-7.01378e-12
-9.2378e-12
-3.83206e-12
5.61493e-12
3.09633e-12
9.10173e-12
3.4656e-12
-5.61822e-12
-7.71359e-14
1.30956e-12
9.86272e-13
6.00317e-13
1.33573e-12
3.19192e-14
1.57242e-12
2.66501e-13
1.77294e-12
3.32985e-13
1.92203e-12
2.1037e-13
2.00414e-12
9.34933e-14
2.03309e-12
3.07324e-14
2.03716e-12
2.05014e-15
2.01387e-12
3.26332e-14
1.94636e-12
9.7738e-14
1.88322e-12
-5.83651e-14
1.79687e-12
-3.04598e-13
1.83823e-12
-7.18688e-13
1.66268e-12
1.82298e-13
1.64574e-12
4.10539e-13
1.79859e-12
1.66858e-13
1.89381e-12
1.56404e-13
1.97935e-12
8.32296e-14
2.02509e-12
8.60362e-14
1.39392e-13
1.44115e-12
2.10532e-12
-1.80879e-12
-1.23569e-12
3.03594e-14
8.01149e-13
2.97214e-12
1.22228e-12
3.73503e-12
2.67478e-13
2.83972e-12
-7.55001e-13
2.10914e-12
-5.90856e-13
2.03324e-12
-4.772e-16
1.58405e-12
-2.21661e-13
1.29663e-12
-1.5057e-13
1.25465e-12
-3.12566e-14
1.28614e-12
1.15621e-14
1.26892e-12
-4.75064e-15
1.25622e-12
-1.29223e-14
1.46387e-12
1.03209e-13
1.74837e-12
1.37163e-13
2.03587e-12
1.3149e-13
2.28113e-12
1.64643e-13
1.67404e-12
-4.66437e-13
-1.32386e-12
-2.92823e-14
-6.42274e-12
-4.13892e-12
-2.96686e-12
2.15905e-12
3.37234e-12
2.76253e-12
1.23681e-12
-3.48269e-12
1.52921e-14
2.53108e-12
7.83096e-13
-1.67487e-13
7.77415e-13
3.75999e-14
9.57252e-13
8.66649e-14
1.15339e-12
1.36847e-13
1.29608e-12
6.76769e-14
1.36546e-12
2.41142e-14
1.38558e-12
1.06188e-14
1.38501e-12
2.6143e-15
1.38936e-12
2.82852e-14
1.36009e-12
1.2701e-13
1.30272e-12
-9.97142e-16
1.0745e-12
-7.63812e-14
6.3319e-13
-2.77375e-13
7.08828e-13
1.0666e-13
9.92791e-13
1.26575e-13
1.20745e-12
-4.77982e-14
1.29503e-12
6.88214e-14
1.38001e-12
-1.75393e-15
1.43547e-12
3.05756e-14
1.36602e-13
1.16262e-12
-7.30676e-14
7.28081e-13
1.95037e-12
2.21784e-12
1.46284e-12
8.71985e-13
8.71508e-13
6.49847e-13
4.99277e-13
4.6802e-13
4.79582e-13
4.74832e-13
4.6191e-13
5.65119e-13
7.02282e-13
8.33772e-13
9.98415e-13
5.31978e-13
5.02696e-13
-3.63622e-12
-1.47718e-12
1.28535e-12
-2.19734e-12
3.33732e-13
1.66244e-13
2.03844e-13
2.90509e-13
4.27356e-13
4.95033e-13
5.19147e-13
5.29766e-13
5.3238e-13
5.60665e-13
6.87675e-13
6.86677e-13
6.10296e-13
3.32922e-13
4.39581e-13
5.66157e-13
5.18359e-13
5.8718e-13
5.85426e-13
6.16002e-13
)
;

boundaryField
{
    AirInlet
    {
        type            calculated;
        value           nonuniform List<scalar> 5(-1.6e-13 -1.6e-13 -1.6e-13 -1.6e-13 -1.6e-13);
    }
    WaterInlet
    {
        type            calculated;
        value           nonuniform List<scalar> 10(-2e-12 -2e-12 -2e-12 -2e-12 -2e-12 -2e-12 -2e-12 -2e-12 -2e-12 -2e-12);
    }
    ChannelWall
    {
        type            calculated;
        value           uniform 0;
    }
    Outlet
    {
        type            calculated;
        value           nonuniform List<scalar> 
15
(
4.73582e-13
1.24035e-12
1.85712e-12
2.31542e-12
2.60644e-12
5.96432e-13
6.0072e-13
6.03089e-13
6.03551e-13
6.02092e-13
2.66776e-12
2.42781e-12
2.01476e-12
1.43826e-12
7.52604e-13
)
;
    }
    FrontAndBack
    {
        type            empty;
        value           nonuniform 0();
    }
}


// ************************************************************************* //
