/*--------------------------------*- C++ -*----------------------------------*\
| =========                 |                                                 |
| \\      /  F ield         | OpenFOAM: The Open Source CFD Toolbox           |
|  \\    /   O peration     | Version:  2.3.0                                 |
|   \\  /    A nd           | Web:      www.OpenFOAM.org                      |
|    \\/     M anipulation  |                                                 |
\*---------------------------------------------------------------------------*/
FoamFile
{
    version     2.0;
    format      ascii;
    class       surfaceScalarField;
    location    "0.026";
    object      phi;
}
// * * * * * * * * * * * * * * * * * * * * * * * * * * * * * * * * * * * * * //

dimensions      [0 3 -1 0 0 0 0];

internalField   nonuniform List<scalar> 
1380
(
3.13236e-13
1.86764e-13
3.05171e-13
8.06496e-15
3.02138e-13
3.03222e-15
5.98329e-13
-2.9619e-13
4.77217e-13
1.21112e-13
5.99035e-13
8.77295e-14
5.97268e-13
9.83224e-15
4.639e-13
1.364e-13
-8.17129e-14
2.49423e-13
1.67825e-12
-1.28275e-12
6.81086e-13
-9.33563e-14
6.78221e-13
1.26973e-14
4.6316e-13
3.51461e-13
-7.65325e-13
1.47791e-12
4.0013e-12
-3.08837e-12
5.98523e-13
-1.9188e-13
6.06388e-13
4.83226e-15
7.34777e-13
2.23072e-13
1.09421e-12
1.11848e-12
2.75258e-12
2.34293e-12
3.0812e-13
3.12953e-13
5.36025e-13
1.6545e-12
4.40708e-12
-3.2471e-13
4.45822e-13
-6.92398e-13
3.67688e-13
3.41727e-12
-4.10967e-12
1.57597e-12
1.8413e-12
1.75771e-12
-1.81735e-13
4.02656e-13
1.35505e-12
-5.43783e-14
4.57034e-13
-8.41603e-14
2.97819e-14
-7.5785e-15
-7.65819e-14
5.55776e-14
-6.31561e-14
8.74396e-14
-3.1862e-14
1.07256e-13
-1.98168e-14
1.21331e-13
-1.40751e-14
1.31377e-13
-1.00455e-14
1.38195e-13
-6.81814e-15
1.50649e-13
-1.2454e-14
1.74224e-13
-2.35744e-14
2.73027e-13
-9.88035e-14
5.11886e-13
-2.38859e-13
1.43633e-12
-9.24444e-13
3.61904e-12
-2.18271e-12
2.69216e-12
9.26877e-13
3.7236e-12
-1.03144e-12
6.03304e-12
-2.30944e-12
-1.76167e-12
7.79471e-12
-9.89047e-13
-7.72623e-13
-2.49362e-13
-7.39686e-13
-2.4854e-14
-2.24508e-13
1.1523e-13
-1.40084e-13
1.69843e-13
-5.46126e-14
1.65012e-13
4.83084e-15
1.5556e-13
9.45239e-15
1.48916e-13
6.64316e-15
1.42537e-13
6.37916e-15
1.39431e-13
3.10623e-15
1.34576e-13
4.85546e-15
1.34285e-13
2.90333e-16
1.26198e-13
8.08699e-15
1.19664e-13
6.53429e-15
9.87803e-14
2.08834e-14
1.5581e-14
8.31992e-14
-1.83089e-13
1.9867e-13
-7.4377e-13
5.60681e-13
-3.73077e-12
2.987e-12
1.23885e-12
-8.07697e-14
-7.56156e-13
1.41362e-12
-1.1267e-12
6.58499e-12
-9.28104e-12
9.85812e-13
7.44048e-12
9.09411e-13
-1.05335e-13
4.90731e-13
1.77373e-12
2.48908e-13
6.98856e-13
1.89623e-13
8.9067e-14
2.45065e-13
-1.32023e-13
2.87594e-13
-1.05685e-13
3.06019e-13
-5.02877e-14
3.23392e-13
-3.71889e-14
3.4069e-13
-3.1373e-14
3.54373e-13
-2.37288e-14
3.6382e-13
-1.62657e-14
3.73934e-13
-2.25674e-14
3.94423e-13
-4.40636e-14
4.77549e-13
-1.81929e-13
5.5526e-13
-3.1657e-13
1.23282e-12
-1.60201e-12
1.93882e-12
-2.8887e-12
1.8802e-12
9.85496e-13
4.94776e-12
-4.09901e-12
6.99823e-12
-4.3599e-12
1.34365e-12
1.34493e-11
-5.40951e-13
1.11198e-12
-1.45638e-13
-1.135e-12
1.31392e-13
-5.01538e-13
3.57613e-13
-3.66305e-13
4.43152e-13
-1.40151e-13
4.32703e-13
1.52797e-14
4.09586e-13
3.25689e-14
3.9209e-13
2.41388e-14
3.7847e-13
2e-14
3.70632e-13
1.09438e-14
3.64596e-13
1.08915e-14
3.62101e-13
2.78526e-15
3.56894e-13
1.32938e-14
3.50635e-13
1.27932e-14
3.48645e-13
2.28734e-14
3.04189e-13
1.27655e-13
3.4098e-13
1.61879e-13
9.46708e-14
8.0699e-13
-4.79575e-12
7.87742e-12
2.91473e-12
-5.20693e-13
-3.32383e-12
1.5882e-11
-1.75293e-11
7.35971e-12
-7.588e-13
9.53407e-13
1.38468e-11
-9.42913e-13
1.79098e-12
-4.04694e-13
1.23551e-12
3.28014e-13
-3.38519e-14
4.8527e-13
-6.81892e-14
5.16067e-13
-1.6282e-13
5.12992e-13
-1.02611e-13
5.05645e-13
-4.29405e-14
5.11166e-13
-4.27097e-14
5.22692e-13
-4.28995e-14
5.33865e-13
-3.49014e-14
5.38898e-13
-2.12988e-14
5.36482e-13
-2.01511e-14
5.21979e-13
-2.95608e-14
5.07206e-13
-1.67157e-13
3.03997e-13
-1.13361e-13
1.25037e-13
-1.42305e-12
-2.66285e-12
-1.00808e-13
-2.90076e-12
1.2234e-12
-2.96822e-13
-6.70295e-12
1.67943e-12
-6.33615e-12
1.57537e-12
1.35533e-11
-1.29826e-13
2.81717e-12
1.63055e-13
-1.42788e-12
4.04524e-13
-7.43008e-13
5.88099e-13
-5.4988e-13
6.52581e-13
-2.04634e-13
6.4014e-13
2.77209e-14
6.07654e-13
6.50551e-14
5.83311e-13
4.84818e-14
5.66068e-13
3.72431e-14
5.56686e-13
2.03259e-14
5.50241e-13
1.73363e-14
5.47526e-13
5.49984e-15
5.4049e-13
2.03297e-14
5.41197e-13
1.20866e-14
5.32214e-13
3.18558e-14
5.25162e-13
1.34708e-13
6.24239e-13
6.28013e-14
9.4001e-13
4.91219e-13
4.38558e-12
4.43185e-12
2.37954e-12
4.56169e-12
-5.5426e-12
1.53584e-11
-2.8326e-11
6.45099e-12
8.1486e-12
1.20674e-12
1.9091e-11
-2.97375e-12
5.97148e-12
-1.02817e-12
-7.10072e-13
3.57938e-13
-1.41996e-12
6.9653e-13
-4.06782e-13
7.21377e-13
-1.87667e-13
6.8568e-13
-6.69131e-14
6.60277e-13
-1.75379e-14
6.54257e-13
-3.66897e-14
6.60387e-13
-4.90291e-14
6.68369e-13
-4.28837e-14
6.66742e-13
-1.96716e-14
6.49062e-13
-2.4712e-15
5.94622e-13
2.48794e-14
4.80096e-13
-5.263e-14
3.52137e-13
1.45976e-14
3.58285e-13
-1.42919e-12
-2.79532e-12
3.05279e-12
-4.7209e-12
3.14899e-12
-6.56096e-12
-4.86289e-12
-5.36382e-12
-7.53329e-12
5.04613e-12
3.1434e-12
1.10655e-12
6.75675e-12
6.65915e-13
-9.87241e-13
7.16338e-13
-7.93431e-13
7.86034e-13
-6.19576e-13
7.8299e-13
-2.0159e-13
7.62462e-13
4.82491e-14
7.38396e-13
8.9121e-14
7.16695e-13
7.01822e-14
7.04344e-13
4.95943e-14
6.96481e-13
2.81894e-14
6.90035e-13
2.37819e-14
6.88762e-13
6.77224e-15
6.76781e-13
3.23113e-14
6.83488e-13
5.37908e-15
6.57976e-13
5.73683e-14
6.7882e-13
1.13863e-13
7.23665e-13
1.79563e-14
1.03085e-12
1.84034e-13
8.50306e-12
-3.04036e-12
9.86702e-13
9.85883e-14
-1.23411e-12
-1.0672e-11
-1.75555e-11
-6.42731e-12
3.90391e-12
1.10391e-12
1.15598e-11
-3.91398e-12
1.09894e-11
-4.36711e-13
-4.18734e-12
5.58423e-13
-2.41509e-12
8.25808e-13
-6.74167e-13
8.34478e-13
-1.96336e-13
7.91159e-13
-2.35944e-14
7.61838e-13
1.17834e-14
7.51403e-13
-2.62553e-14
7.54738e-13
-5.2364e-14
7.57699e-13
-4.58444e-14
7.50622e-13
-1.2595e-14
7.22027e-13
2.61244e-14
6.48668e-13
9.82386e-14
4.46573e-13
1.49465e-13
3.48435e-13
1.12736e-13
2.53987e-13
-1.33475e-12
1.90833e-12
1.39846e-12
4.35631e-13
4.62168e-12
-4.17815e-12
-2.49106e-13
-6.39257e-12
-5.31887e-12
-3.91625e-12
6.67075e-13
8.96477e-13
1.94402e-12
9.76554e-13
-1.06732e-12
1.01204e-12
-8.28914e-13
9.50979e-13
-5.58519e-13
8.48826e-13
-9.94368e-14
8.09191e-13
8.78848e-14
7.87908e-13
1.10404e-13
7.75682e-13
8.24078e-14
7.74363e-13
5.09136e-14
7.79022e-13
2.35297e-14
7.8182e-13
2.09842e-14
7.8244e-13
6.15245e-15
7.73001e-13
4.17496e-14
7.71994e-13
6.38637e-15
7.39644e-13
8.97181e-14
7.59963e-13
9.35447e-14
7.61692e-13
1.62275e-14
1.14719e-12
-2.01461e-13
3.8044e-12
-5.69757e-12
-8.0415e-13
-2.02203e-12
9.87917e-13
-5.15778e-12
-1.44197e-11
-4.30778e-12
3.05391e-12
-5.31522e-12
1.25673e-11
-3.67714e-13
6.04185e-12
3.30483e-13
-4.88553e-12
2.00425e-13
-2.28504e-12
1.91226e-13
-6.64968e-13
1.87887e-13
-1.92998e-13
1.79328e-13
-1.5036e-14
1.74511e-13
1.66004e-14
1.73678e-13
-2.54222e-14
1.74362e-13
-5.30477e-14
1.74441e-13
-4.59229e-14
1.73394e-13
-1.15481e-14
1.64925e-13
3.45927e-14
1.5426e-13
1.08904e-13
9.57593e-14
2.07966e-13
9.12397e-14
1.17255e-13
-2.73387e-13
-9.7012e-13
-7.15736e-13
1.8408e-12
6.69458e-13
3.23649e-12
1.43763e-14
4.05976e-13
-4.04214e-14
-5.26408e-12
-1.28166e-12
1.90831e-12
6.33824e-13
2.85431e-14
2.60368e-13
-6.93861e-13
2.6545e-13
-8.33996e-13
2.15486e-13
-5.08555e-13
1.93768e-13
-7.77186e-14
1.81079e-13
1.00573e-13
1.75849e-13
1.15635e-13
1.73925e-13
8.43321e-14
1.74664e-13
5.01744e-14
1.76368e-13
2.18251e-14
1.80408e-13
1.69437e-14
1.77486e-13
9.07477e-15
1.84065e-13
3.51703e-14
1.67798e-13
2.26542e-14
1.82104e-13
7.54116e-14
1.52346e-13
1.23302e-13
1.5761e-13
1.09637e-14
9.29346e-14
-1.36785e-13
-3.71867e-13
-5.23277e-12
-1.31969e-12
-2.45742e-12
3.64534e-12
-5.00982e-12
-1.18673e-11
-5.21598e-12
3.26007e-12
-2.58854e-12
9.93983e-12
1.57268e-13
3.29604e-12
4.39291e-13
-5.16756e-12
2.2003e-13
-2.06577e-12
1.93233e-13
-6.38171e-13
1.87902e-13
-1.87667e-13
1.80055e-13
-7.18839e-15
1.76073e-13
2.05816e-14
1.75623e-13
-2.49719e-14
1.76242e-13
-5.36664e-14
1.76095e-13
-4.5776e-14
1.75051e-13
-1.0504e-14
1.66627e-13
4.30167e-14
1.56761e-13
1.1877e-13
9.77348e-14
2.66991e-13
1.2934e-13
8.56503e-14
-9.47773e-14
-7.46003e-13
-1.64603e-13
1.91063e-12
1.07383e-12
1.99806e-12
-2.11231e-14
1.50093e-12
2.02305e-12
-7.30825e-12
-1.01905e-12
4.95041e-12
7.17415e-13
-1.70793e-12
2.62422e-13
-2.38868e-13
2.71257e-13
-8.42831e-13
2.1739e-13
-4.54688e-13
1.93647e-13
-5.39758e-14
1.80939e-13
1.13281e-13
1.75649e-13
1.20925e-13
1.7392e-13
8.60605e-14
1.75084e-13
4.90112e-14
1.77274e-13
1.9635e-14
1.81978e-13
1.22398e-14
1.79031e-13
1.20213e-14
1.86487e-13
2.77142e-14
1.67995e-13
4.11466e-14
1.85374e-13
5.80321e-14
1.47994e-13
1.60683e-13
1.50584e-13
8.37379e-15
3.77093e-14
-2.3911e-14
-5.53365e-13
-4.64169e-12
-1.88124e-12
-2.47013e-12
6.31547e-12
-3.56956e-12
-1.07679e-11
-9.30123e-13
6.20629e-13
-4.23808e-14
9.05208e-12
7.11216e-13
2.54245e-12
4.62561e-13
-4.9189e-12
2.2893e-13
-1.83214e-12
1.93721e-13
-6.02962e-13
1.87393e-13
-1.81338e-13
1.80168e-13
3.58454e-17
1.77226e-13
2.3524e-14
1.7713e-13
-2.48758e-14
1.77608e-13
-5.41447e-14
1.77213e-13
-4.53812e-14
1.76124e-13
-9.41408e-15
1.68134e-13
5.10058e-14
1.59091e-13
1.27813e-13
1.02428e-13
3.23655e-13
1.5636e-13
3.1718e-14
2.68265e-13
-8.57907e-13
4.2053e-12
-2.02641e-12
2.01646e-12
4.1869e-12
-7.16599e-13
4.23398e-12
1.06868e-12
-9.09353e-12
-9.8884e-13
7.00793e-12
3.68902e-13
-3.06567e-12
2.70758e-13
-1.40724e-13
2.74551e-13
-8.46624e-13
2.16473e-13
-3.96609e-13
1.92367e-13
-2.98706e-14
1.79779e-13
1.25869e-13
1.74876e-13
1.25829e-13
1.73401e-13
8.7535e-14
1.74953e-13
4.74592e-14
1.77588e-13
1.70004e-14
1.82762e-13
7.06582e-15
1.8024e-13
1.45425e-14
1.87843e-13
2.01117e-14
1.69093e-13
5.98959e-14
1.85645e-13
4.14804e-14
1.47564e-13
1.98764e-13
1.40673e-13
1.52647e-14
2.16261e-14
9.51362e-14
-2.3074e-13
-4.38933e-12
-2.64824e-12
-1.906e-12
8.42147e-12
-3.32839e-12
-9.34548e-12
4.9175e-14
-2.75693e-12
2.27419e-13
8.87384e-12
6.27074e-13
2.14279e-12
4.21334e-13
-4.71316e-12
2.28119e-13
-1.63893e-12
1.92762e-13
-5.67605e-13
1.86283e-13
-1.74859e-13
1.80096e-13
6.22297e-15
1.77822e-13
2.57977e-14
1.78012e-13
-2.50661e-14
1.78338e-13
-5.44706e-14
1.77634e-13
-4.46767e-14
1.76471e-13
-8.25101e-15
1.69089e-13
5.83871e-14
1.61476e-13
1.35427e-13
1.08683e-13
3.76447e-13
1.51341e-13
-1.09397e-14
2.61842e-13
-9.68409e-13
3.46477e-12
-5.22934e-12
1.36698e-12
6.28469e-12
-1.15396e-12
6.75493e-12
-4.85771e-13
-9.76172e-12
2.74158e-12
3.78058e-12
5.22805e-13
-8.46897e-13
2.96327e-13
8.57546e-14
2.77172e-13
-8.27469e-13
2.13014e-13
-3.32451e-13
1.88352e-13
-5.20897e-15
1.76963e-13
1.37259e-13
1.73011e-13
1.2978e-13
1.72316e-13
8.82307e-14
1.74235e-13
4.55395e-14
1.77005e-13
1.42309e-14
1.82253e-13
1.81797e-15
1.79668e-13
1.71266e-14
1.87288e-13
1.24919e-14
1.69194e-13
7.79902e-14
1.86263e-13
2.44114e-14
1.48046e-13
2.36981e-13
1.35774e-13
2.75375e-14
2.81974e-14
2.02712e-13
-2.49649e-13
-4.11148e-12
-2.78647e-12
-1.1793e-12
9.80076e-12
-1.16593e-12
-9.35885e-12
-6.81596e-13
-3.24127e-12
-4.16355e-13
8.6086e-12
4.61263e-13
1.26517e-12
3.6968e-13
-4.62158e-12
2.24632e-13
-1.49388e-12
1.90457e-13
-5.33431e-13
1.84544e-13
-1.68946e-13
1.79501e-13
1.12659e-14
1.78028e-13
2.72709e-14
1.78387e-13
-2.54252e-14
1.78394e-13
-5.44769e-14
1.77452e-13
-4.37347e-14
1.7628e-13
-7.07969e-15
1.69807e-13
6.48601e-14
1.63067e-13
1.42167e-13
1.19584e-13
4.1993e-13
1.16189e-13
-7.54415e-15
2.83543e-14
-8.80574e-13
4.49142e-13
-5.65013e-12
-4.27581e-13
7.16142e-12
-1.2969e-12
7.62424e-12
-9.98522e-13
-1.00601e-11
3.1613e-12
-3.79235e-13
7.9529e-13
1.51911e-12
3.38524e-13
5.4252e-13
2.74584e-13
-7.63529e-13
2.07748e-13
-2.65616e-13
1.83384e-13
1.91557e-14
1.73025e-13
1.47618e-13
1.70773e-13
1.32032e-13
1.71137e-13
8.78667e-14
1.73354e-13
4.33223e-14
1.76047e-13
1.15383e-14
1.80889e-13
-3.02419e-15
1.78529e-13
1.94863e-14
1.85543e-13
5.47835e-15
1.70155e-13
9.33782e-14
1.8421e-13
1.03565e-14
1.52784e-13
2.68407e-13
1.33589e-13
4.67325e-14
4.24008e-14
2.939e-13
-6.10092e-13
-3.45899e-12
-2.41264e-12
3.06798e-13
1.93202e-13
3.01608e-13
5.19012e-15
4.18084e-13
-1.16476e-13
1.15806e-12
-7.39972e-13
-9.46374e-13
2.10443e-12
5.99771e-13
9.34304e-14
6.20872e-13
-1.59107e-14
7.65771e-13
-2.61375e-13
1.45995e-12
-1.43415e-12
-3.45013e-12
3.9637e-12
6.8254e-13
-8.91095e-14
6.91923e-13
-2.52939e-14
5.9218e-13
-1.61632e-13
-3.68956e-13
-4.7301e-13
-2.06432e-12
-1.75476e-12
5.98726e-13
-1.87835e-13
5.91892e-13
-1.846e-14
4.70849e-13
-4.05886e-14
-1.32922e-13
1.30761e-13
-9.59657e-13
-1.23759e-12
3.12165e-13
2.93705e-13
2.53116e-13
3.83877e-13
-5.7578e-13
8.1388e-12
3.76639e-12
2.37571e-12
-3.59575e-12
-7.03585e-13
-1.61979e-13
-3.00274e-13
8.20529e-12
2.1322e-12
-1.1673e-12
1.27087e-12
-3.76025e-12
9.12475e-13
-1.13549e-12
8.22977e-13
-4.43932e-13
7.94707e-13
-1.40677e-13
7.91735e-13
1.42383e-14
7.96405e-13
2.26009e-14
7.98535e-13
-2.7555e-14
7.94886e-13
-5.0828e-14
7.88381e-13
-3.723e-14
7.81288e-13
1.30809e-17
7.72105e-13
7.40433e-14
7.41092e-13
1.7318e-13
6.6525e-13
4.95771e-13
3.12126e-13
3.4558e-13
-7.00278e-13
1.3183e-13
-3.81893e-12
-2.53148e-12
-6.90871e-12
1.02512e-11
-2.62227e-12
3.33781e-12
-2.86502e-12
-9.81735e-12
1.23986e-12
-4.48411e-12
2.6641e-12
9.48695e-14
1.85252e-12
1.3541e-12
1.12224e-12
-3.32464e-14
8.58511e-13
-1.88975e-15
7.35928e-13
1.41739e-13
7.24171e-13
1.59374e-13
7.38995e-13
1.17208e-13
7.52387e-13
7.44741e-14
7.64907e-13
3.0803e-14
7.78048e-13
-1.60321e-15
7.87378e-13
-1.23541e-14
7.914e-13
1.54647e-14
7.87635e-13
9.24315e-15
7.96929e-13
8.40843e-14
7.68849e-13
3.84362e-14
7.85138e-13
2.52118e-13
6.11387e-13
2.20483e-13
4.00082e-13
5.05206e-13
-1.21051e-12
-1.8484e-12
-2.63791e-12
4.91472e-12
2.81538e-12
3.87394e-12
-2.55497e-12
2.64565e-12
1.06631e-12
3.64709e-12
7.20385e-12
2.0965e-12
3.83293e-13
8.47846e-13
-2.5116e-12
6.90895e-13
-9.78535e-13
6.7803e-13
-4.31067e-13
6.83366e-13
-1.46013e-13
7.09079e-13
-1.1475e-14
7.3022e-13
1.46001e-15
7.34297e-13
-3.16317e-14
7.27467e-13
-4.39982e-14
7.20473e-13
-3.02357e-14
7.19484e-13
1.00142e-15
7.30692e-13
6.28359e-14
7.52476e-13
1.51396e-13
8.36077e-13
4.12171e-13
7.05591e-13
4.76065e-13
-2.77664e-13
1.11509e-12
-3.45406e-12
6.44918e-13
-2.53512e-12
9.33226e-12
-2.79707e-12
3.59975e-12
-7.69865e-12
-4.91577e-12
2.10864e-12
-1.42914e-11
1.424e-12
7.79504e-13
1.02308e-12
1.75503e-12
7.27642e-13
2.62191e-13
6.25445e-13
1.00307e-13
5.97419e-13
1.69765e-13
6.25053e-13
1.31741e-13
6.62659e-13
7.96022e-14
6.90462e-13
4.66713e-14
7.00809e-13
2.04558e-14
7.04003e-13
-4.79679e-15
7.0129e-13
-9.6412e-15
7.04687e-13
1.20683e-14
7.02481e-13
1.14482e-14
7.2541e-13
6.11554e-14
7.11627e-13
5.22197e-14
7.39294e-13
2.24451e-13
5.40574e-13
4.19203e-13
-1.15292e-13
1.16107e-12
-3.30836e-12
1.34467e-12
-1.36832e-13
-1.79852e-12
2.85913e-12
-3.21569e-12
-1.1378e-12
2.02384e-13
-2.35176e-12
3.33549e-12
4.07074e-12
2.34059e-12
1.3782e-12
9.28056e-13
-1.09906e-12
6.50483e-13
-7.00962e-13
5.66308e-13
-3.46892e-13
5.63779e-13
-1.43484e-13
5.94574e-13
-4.22695e-14
6.15814e-13
-1.97802e-14
6.15809e-13
-3.16261e-14
6.04821e-13
-3.30102e-14
5.95798e-13
-2.12132e-14
5.98293e-13
-1.49356e-15
6.23611e-13
3.7518e-14
6.77946e-13
9.70606e-14
8.10707e-13
2.7941e-13
8.29561e-13
4.57211e-13
1.01569e-12
9.28952e-13
1.84571e-12
-1.85099e-13
2.6412e-12
8.53677e-12
6.50861e-12
-2.67659e-13
4.07025e-12
-2.47741e-12
-1.65393e-12
-8.56722e-12
-4.15236e-13
-4.59187e-13
3.43574e-13
9.96215e-13
4.16421e-13
1.89344e-13
4.22202e-13
9.45257e-14
4.57398e-13
1.34569e-13
5.02814e-13
8.63249e-14
5.41159e-13
4.12569e-14
5.61387e-13
2.64437e-14
5.68316e-13
1.35265e-14
5.65989e-13
-2.4695e-15
5.62832e-13
-6.48392e-15
5.66192e-13
8.70872e-15
5.70856e-13
6.78402e-15
5.94825e-13
3.71865e-14
6.0854e-13
3.85042e-14
6.7278e-13
1.60212e-13
7.1142e-13
3.80563e-13
7.2285e-13
1.14964e-12
-2.78708e-12
4.8546e-12
2.17678e-12
2.03913e-12
-4.17586e-13
5.73293e-13
3.28033e-13
-1.14727e-12
-6.31194e-13
3.40897e-13
2.58256e-12
1.44269e-12
2.76412e-13
9.53688e-13
-6.10068e-13
6.5765e-13
-4.04924e-13
4.98349e-13
-1.87592e-13
4.4988e-13
-9.50148e-14
4.47937e-13
-4.0326e-14
4.49391e-13
-2.12342e-14
4.37208e-13
-1.9443e-14
4.20265e-13
-1.60679e-14
4.08889e-13
-9.83724e-15
4.10208e-13
-2.81184e-15
4.36091e-13
1.16346e-14
4.99218e-13
3.39331e-14
6.64718e-13
1.13911e-13
8.4495e-13
2.76979e-13
1.00546e-12
7.68441e-13
-6.564e-14
8.86002e-13
8.4306e-12
4.05332e-14
7.38142e-12
7.81525e-13
4.73248e-12
1.71524e-13
-1.48992e-13
-3.68574e-12
-6.24091e-13
1.59117e-14
-1.41968e-14
3.86321e-13
1.37464e-13
3.76834e-14
2.03962e-13
2.80269e-14
2.77156e-13
6.13755e-14
3.28611e-13
3.48703e-14
3.55245e-13
1.46228e-14
3.72826e-13
8.86312e-15
3.81661e-13
4.69137e-15
3.7994e-13
-7.48187e-16
3.76648e-13
-3.19238e-15
3.80592e-13
4.76579e-15
3.86859e-13
5.17077e-16
4.06885e-13
1.71596e-14
4.32416e-13
1.29741e-14
5.02347e-13
9.02803e-14
6.94362e-13
1.88548e-13
1.07606e-12
7.67949e-13
-1.03339e-12
6.96405e-12
1.14308e-12
-9.93366e-13
-6.65333e-13
-1.29653e-12
1.28604e-12
1.56245e-12
9.52381e-13
5.47457e-13
3.59865e-13
2.6485e-13
2.24524e-13
2.0329e-13
1.83847e-13
1.67779e-13
1.57941e-13
1.5513e-13
1.66764e-13
2.00697e-13
3.14608e-13
5.91587e-13
1.36003e-12
2.24603e-12
2.28656e-12
3.06809e-12
3.23961e-12
-4.46131e-13
-4.30219e-13
-4.38976e-14
-6.21423e-15
2.18127e-14
8.31883e-14
1.18059e-13
1.32681e-13
1.41545e-13
1.46236e-13
1.45488e-13
1.42296e-13
1.47062e-13
1.47579e-13
1.64738e-13
1.77712e-13
2.67993e-13
4.5654e-13
1.22449e-12
8.18854e-12
)
;

boundaryField
{
    AirInlet
    {
        type            calculated;
        value           nonuniform List<scalar> 5(-2e-13 -2e-13 -2e-13 -2e-13 -2e-13);
    }
    WaterInlet
    {
        type            calculated;
        value           nonuniform List<scalar> 10(-5e-13 -5e-13 -5e-13 -5e-13 -5e-13 -5e-13 -5e-13 -5e-13 -5e-13 -5e-13);
    }
    ChannelWall
    {
        type            calculated;
        value           uniform 0;
    }
    Outlet
    {
        type            calculated;
        value           nonuniform List<scalar> 
15
(
-4.96962e-12
-6.47163e-12
4.92076e-12
9.8959e-12
5.59525e-12
1.43677e-13
8.17874e-15
5.36264e-13
-1.11424e-13
-9.83916e-13
-9.85248e-13
-5.80943e-12
-5.1007e-12
3.14793e-16
9.33161e-12
)
;
    }
    FrontAndBack
    {
        type            empty;
        value           nonuniform 0();
    }
}


// ************************************************************************* //
