/*--------------------------------*- C++ -*----------------------------------*\
| =========                 |                                                 |
| \\      /  F ield         | OpenFOAM: The Open Source CFD Toolbox           |
|  \\    /   O peration     | Version:  2.3.0                                 |
|   \\  /    A nd           | Web:      www.OpenFOAM.org                      |
|    \\/     M anipulation  |                                                 |
\*---------------------------------------------------------------------------*/
FoamFile
{
    version     2.0;
    format      ascii;
    class       volScalarField;
    location    "2.55";
    object      alpha.water;
}
// * * * * * * * * * * * * * * * * * * * * * * * * * * * * * * * * * * * * * //

dimensions      [0 0 0 0 0 0 0];

internalField   nonuniform List<scalar> 
2268
(
0.996948
0.996948
0.994574
0.985189
0.991719
0.999955
1
1
1
0.999975
0.995818
0.990847
0.990702
0.990702
0.997502
0.99987
0.99987
0.999725
0.999622
0.999792
0.999804
0.999801
0.999801
0.973161
0.996948
0.99114
0.999091
0.999959
0.999997
1
0.999993
0.999997
0.997922
0.998554
0.998554
0.99156
0.990702
0.995148
0.999512
0.999865
0.999698
0.999386
0.999386
0.999798
0.999801
0.999806
0.894851
0.952649
0.996363
1
1
0.999999
1
0.999735
0.979624
0.938551
0.971891
0.998338
0.999257
0.992735
0.992368
0.992902
0.999336
0.999849
0.999803
0.999386
0.99945
0.999856
0.999856
0.892211
0.893727
0.996552
1
1
1
1
0.986539
0.919898
0.919861
0.919865
0.972618
0.999417
0.999397
0.998047
0.999427
0.999658
0.999853
0.999854
0.99985
0.999856
0.999856
0.999856
0.89221
0.892211
0.936596
1
1
1
1
0.971362
0.929368
0.919898
0.919864
0.969231
0.999957
0.999982
0.999993
0.999993
0.999709
0.999853
0.999855
0.999856
0.999856
0.999856
0.999149
0.89221
0.89221
0.89223
1
1
1
1
0.991572
0.998877
0.960062
0.984234
0.999363
0.999701
0.999896
0.999992
0.999993
0.999993
0.992313
0.981638
0.974536
0.966742
0.973187
0.999125
0.945412
0.892215
0.892217
0.982798
1
1
0.999999
0.999982
0.999965
0.999953
0.999943
0.99907
0.998779
0.999489
0.99998
0.999993
0.999993
0.963209
0.954238
0.954145
0.953889
0.95365
0.964161
0.993937
0.959634
0.944526
0.953732
0.975357
0.998245
0.998773
0.999965
0.999408
0.999726
0.999775
0.999709
0.999213
0.999893
0.999951
0.999993
0.997721
0.961617
0.96006
0.966118
0.961665
0.953651
0.959448
0.948634
0.967263
0.961917
0.999107
0.997837
0.996759
0.996759
0.99676
0.996769
0.996859
0.997384
0.998786
0.999108
0.999108
0.960477
0.905438
0.953579
0.968221
0.968221
0.936081
0.936081
0.950195
0.999117
0.998713
0.997927
0.997884
0.998963
0.998992
0.996238
0.991801
0.9918
0.996741
0.999108
0.999017
0.916505
0.8853
0.93505
0.956004
0.936081
0.936083
0.965324
0.999118
0.999116
0.999118
0.999117
0.999116
0.999089
0.999062
0.994557
0.979579
0.983629
0.998122
0.998824
0.971789
0.87937
0.879482
0.87956
0.936099
0.954399
0.995786
0.999117
0.999117
0.999117
0.999118
0.996383
0.998439
0.999063
0.993931
0.966593
0.979485
0.998731
0.998741
0.998731
0.904144
0.879555
0.879592
0.966055
0.99868
0.999114
0.999115
0.999118
0.999124
0.998716
0.994684
0.99542
0.999053
0.998269
0.96599
0.981117
0.998741
0.998739
0.998741
0.887015
0.879484
0.879616
0.959882
0.9991
0.999117
0.999119
0.999123
0.999128
0.995459
0.994694
0.997662
0.999022
0.999002
0.930713
0.930712
0.957573
0.983288
0.905015
0.879484
0.879317
0.884928
0.960604
0.989378
0.999105
0.999119
0.999103
0.99911
0.993715
0.998598
0.998883
0.999002
0.997922
0.971117
0.948887
0.885011
0.883553
0.882274
0.882759
0.953699
0.979188
0.989049
0.977062
0.980078
0.999024
0.995706
0.979425
0.986301
0.998226
0.998798
0.998921
0.997187
0.987895
0.982776
0.954037
0.882274
0.882366
0.963756
0.984319
0.984337
0.994461
0.994455
0.983134
0.962165
0.962364
0.965522
0.991395
0.996742
0.997918
0.999641
0.999748
0.999746
0.999846
0.99992
0.99995
0.998944
0.990405
0.987556
0.986982
0.983169
0.981172
0.985671
0.993394
0.994461
0.994374
0.982916
0.991564
0.992832
0.993503
0.991262
0.991629
0.999633
0.999686
0.999745
0.979285
0.97183
0.977051
0.979036
0.943608
0.871797
0.78555
0.75107
0.765845
0.845115
0.889431
0.890008
0.994461
0.994461
0.991549
0.994454
0.994448
0.994446
0.994413
0.994418
0.990351
0.727679
0.42673
0.282126
0.284809
0.333134
0.378861
0.401638
0.300949
0.190233
0.0946196
0.0563936
0.0694208
0.0919861
0.0808463
0.994461
0.994479
0.994459
0.994458
0.994454
0.985934
0.929759
0.716131
0.444494
0.122961
0.00462093
4.95514e-05
5.84208e-05
5.83144e-05
7.15714e-05
0.00161923
0.0207463
0.0225843
0.00101389
0.000952705
0.000953964
0.000935877
0.000953964
0.99433
0.994481
0.938521
0.561721
0.291546
0.186083
0.156639
0.116639
0.0413985
0.00163601
6.27407e-05
3.35338e-05
5.79364e-05
0.000234201
0.000388363
0.000441313
0.00043235
0.000506039
0.000752024
0.000990368
0.00188976
0.00191034
0.00190149
0.994285
0.869493
0.282702
0.0516041
0.000404074
0.000188059
0.000141266
0.000123
7.11434e-05
6.76886e-05
3.99967e-05
2.36556e-05
5.19185e-05
0.000680978
0.000862342
0.000863607
0.000860877
0.000784981
0.000873929
0.00161472
0.00222406
0.00161805
0.00229071
0.993106
0.653529
0.0372597
0.000506153
0.000437399
0.000434921
0.000716259
0.000126635
2.02734e-05
4.03202e-05
5.95381e-05
2.00243e-05
7.08393e-06
8.76446e-06
1.13737e-05
9.83269e-05
0.001434
0.00175065
0.00175306
0.00175065
0.00100604
2.98586e-05
8.56244e-05
0.700275
0.340265
0.0189391
0.00082296
0.000509329
0.000946171
0.000681438
1.03451e-05
9.95402e-06
1.73865e-05
4.96133e-05
1.30454e-05
6.22945e-06
9.14095e-06
7.85276e-06
5.9885e-06
5.95132e-06
5.08088e-05
0.000317146
0.0001712
9.38053e-06
2.21682e-05
8.30406e-05
0.000198407
0.000277514
0.00910587
0.00347208
0.000733026
0.000934536
0.000508623
9.16054e-06
8.75521e-06
7.95944e-06
7.30092e-06
6.33831e-06
6.16349e-06
6.12823e-06
6.10599e-06
6.11447e-06
5.9885e-06
6.07158e-06
6.09611e-06
6.50411e-06
7.8833e-06
0.000118012
0.000678939
0.000198376
0.000199392
0.00203117
0.00248607
0.000822086
0.000685131
0.000155326
8.86157e-06
8.33103e-06
7.65891e-06
7.23544e-06
6.7739e-06
9.4032e-06
6.11666e-06
6.10502e-06
6.11447e-06
6.09439e-06
6.08643e-06
6.15041e-06
9.89021e-06
9.38036e-06
0.000164437
0.000699747
0.000198407
0.000198672
0.000347685
0.00102353
0.00108044
0.000483328
9.06897e-06
8.99315e-06
8.48728e-06
8.22571e-06
7.98783e-06
1.20844e-05
2.02702e-05
1.92543e-05
6.10477e-06
6.11342e-06
6.09708e-06
6.11791e-06
2.52287e-05
9.72357e-05
8.27318e-05
6.0456e-05
5.88738e-05
0.000198582
0.000197481
0.000493925
0.000529024
0.000419191
0.000134101
9.10456e-06
8.83616e-06
8.725e-06
8.45794e-06
8.40392e-06
2.01692e-05
2.03338e-05
2.0328e-05
1.63106e-05
6.10506e-06
6.10714e-06
6.10165e-06
7.72118e-05
0.000100305
0.00010023
6.0639e-05
5.73896e-05
0.000197899
0.000198757
0.000198915
0.000350198
0.000433986
0.000260637
1.01305e-05
8.82081e-06
8.69752e-06
8.60261e-06
8.48131e-06
2.0138e-05
2.0328e-05
2.03338e-05
2.0328e-05
7.13351e-06
6.09865e-06
6.16427e-06
7.41524e-05
9.97326e-05
9.89379e-05
4.81485e-05
5.05033e-05
0.000198512
0.000198892
0.000199467
0.000219173
0.000433819
0.000465165
0.00013709
8.96165e-06
8.72661e-06
8.75375e-06
8.88469e-06
1.2114e-05
2.02108e-05
2.0328e-05
1.4741e-05
6.34075e-06
6.20733e-06
6.28572e-06
7.00499e-05
9.80127e-05
3.74098e-05
3.96811e-05
7.73185e-05
0.000525749
0.000865938
0.00107926
0.000878571
0.000752288
0.000950278
0.00084717
0.000259357
9.91086e-06
8.95266e-06
9.24786e-06
1.09568e-05
1.56268e-05
8.28358e-06
6.58845e-06
6.46283e-06
6.38166e-06
9.36283e-06
0.000114556
7.02732e-05
3.47256e-05
3.52044e-05
0.00113183
0.00196753
0.00215697
0.00214581
0.00212942
0.00209462
0.00205922
0.00203016
0.0019934
0.00169698
0.000450182
1.0716e-05
1.02149e-05
7.96831e-06
7.04246e-06
6.78478e-06
6.58936e-06
6.48536e-06
7.02904e-05
0.000116166
4.14123e-05
3.56092e-05
0.000132153
0.00161135
0.00219461
0.00219461
0.00193044
0.00133958
0.000446382
0.00023656
0.000801816
0.00188848
0.00184978
0.00187536
0.00143165
0.000128841
1.17577e-05
8.20394e-06
7.23367e-06
6.78478e-06
6.76131e-06
0.000120526
0.000117146
2.9602e-05
3.28101e-05
0.0014415
0.00161135
0.00219461
0.00125804
1.02693e-05
1.57576e-05
7.55311e-05
9.04439e-05
0.000105202
0.00047181
0.00186902
0.00191681
0.0019565
0.00119709
7.78344e-05
1.65463e-05
9.55635e-06
7.6703e-06
3.18442e-05
0.000138864
0.000100828
1.59378e-05
7.59677e-05
0.00160297
0.00161135
0.00217012
9.13488e-05
7.33636e-06
1.32895e-05
4.38834e-05
0.000145956
0.000122573
0.000148797
0.0012456
0.00195608
0.00197196
0.0019636
0.000623639
2.66222e-05
1.36077e-05
9.98984e-06
0.000120712
0.000143856
4.58637e-05
1.41999e-05
0.000210116
0.00149974
0.00120756
0.000951718
0.000168797
6.58326e-06
7.10717e-06
0.000219913
0.00102337
0.000353665
0.000171523
0.00116508
0.00197196
0.00197836
0.00197196
0.00120586
4.42901e-05
2.69814e-05
7.46161e-05
0.000164479
0.000147173
7.87121e-06
1.05361e-05
0.000269151
0.000434091
0.00011829
0.000541196
1.48251e-05
6.52773e-06
6.58772e-06
0.000722236
0.00111719
0.0010784
0.000304736
0.000989698
0.00197805
0.00197732
0.00191143
0.000426
7.27012e-05
7.85023e-05
0.000174767
0.000158578
5.5843e-05
2.26081e-06
1.21937e-05
4.15899e-05
9.93988e-06
1.1188e-05
0.000537877
6.51461e-06
6.50035e-06
1.66443e-05
0.000874561
0.00111668
0.00111729
0.0011129
0.000391674
0.00137595
0.00151429
0.000429225
0.000257493
0.000441091
0.000436488
0.000191797
2.91939e-06
2.26081e-06
2.24477e-06
2.83785e-06
2.96639e-06
5.43114e-06
1.30467e-05
3.6859e-05
6.51458e-06
6.60079e-06
7.53094e-06
0.000362157
0.00111668
0.0011129
0.000961978
0.00018305
0.000141021
0.000209294
0.000188917
0.000180557
0.000100433
3.50029e-05
1.02667e-05
9.57588e-06
2.26172e-06
2.24477e-06
5.12244e-06
9.23191e-06
9.99418e-06
2.28566e-05
7.43044e-06
6.59928e-06
7.40957e-06
6.40535e-06
7.13245e-05
0.000635225
0.000654945
4.24874e-05
8.28474e-05
9.70869e-05
0.000179855
0.00077036
0.00114718
0.00115085
0.000853603
0.000432232
2.51662e-05
2.28519e-06
2.24477e-06
2.87792e-06
8.7868e-05
0.000122012
0.000268169
1.008e-05
7.3735e-06
7.42941e-06
4.05033e-06
3.94582e-06
3.7066e-06
4.12727e-06
7.05911e-06
2.35118e-05
0.00050534
0.00112714
0.0011491
0.00121708
0.00127393
0.00128627
0.00128281
0.000404974
3.55654e-06
2.30392e-06
2.75412e-06
8.02785e-05
0.00032774
0.000338607
0.00020801
5.25707e-05
1.22995e-05
4.67644e-06
3.70728e-06
3.63978e-06
3.6252e-06
4.14511e-06
8.57489e-06
0.000291962
0.000710328
0.000576092
0.000330149
0.000607148
0.00127776
0.00128627
0.00128015
0.000118399
3.22551e-06
3.09786e-06
1.10601e-05
0.000231439
0.000339058
0.00042099
0.000347738
0.000657752
0.000602944
3.63465e-06
3.63212e-06
3.59781e-06
3.56323e-06
1.15202e-05
2.56485e-05
4.01529e-06
4.01529e-06
4.18666e-06
1.27324e-05
0.000323937
0.00128122
0.00127617
0.000637504
5.88568e-06
3.59817e-06
5.12437e-06
1.74004e-05
0.000133066
0.000430217
0.000774744
0.00118783
0.0011878
0.00019381
3.6053e-06
3.56343e-06
3.56343e-06
3.6946e-06
3.97614e-06
4.01312e-06
4.01529e-06
5.33808e-05
5.52088e-05
1.52668e-05
0.000856626
0.00127617
0.000765831
1.06636e-05
5.12428e-06
5.80184e-06
5.97317e-06
6.75582e-06
0.000324015
0.000739131
0.0011879
0.00118208
0.00103951
0.000301947
3.61516e-06
3.55035e-06
3.77057e-06
4.09126e-06
4.01487e-06
4.05833e-06
0.000357528
0.000330711
8.9852e-06
5.59399e-05
0.000554126
0.000286502
1.60987e-05
6.36031e-06
5.80184e-06
5.6574e-06
3.46617e-06
0.000324015
0.000718074
0.000558519
0.000297815
0.00121663
0.00121663
0.000397616
4.73692e-06
3.93561e-06
4.18885e-06
4.0586e-06
5.23416e-05
0.000371672
0.0002697
3.77697e-06
1.55684e-06
1.65273e-06
2.17376e-06
6.94928e-06
8.80676e-06
9.00413e-06
8.58472e-06
2.79928e-06
0.000368134
0.000351018
3.17862e-05
3.17862e-05
0.000245935
0.00126219
0.00126349
0.000186653
5.79671e-06
4.57047e-06
4.28431e-06
0.000326912
0.000376219
4.84634e-05
1.36799e-06
1.34259e-06
2.52005e-06
2.20405e-06
1.92317e-06
7.62092e-06
9.39783e-06
9.37021e-06
2.68624e-06
0.000452743
6.07929e-05
3.31395e-05
3.13363e-05
3.34307e-05
0.00129801
0.0013412
0.000833947
1.53894e-05
6.18012e-06
1.38678e-05
0.000410649
0.000376235
1.16346e-05
1.17769e-06
9.87614e-06
1.04878e-05
4.96754e-06
1.92317e-06
1.92877e-06
9.36654e-06
6.41493e-06
9.48581e-07
0.000428967
3.13389e-05
3.1339e-05
3.44794e-05
3.53286e-05
0.000663253
0.00133126
0.000693199
1.25195e-05
9.42419e-06
0.000429469
0.000419905
5.80468e-05
8.16626e-10
8.20081e-07
9.73266e-06
1.05145e-05
1.05145e-05
9.64627e-06
3.68148e-06
3.12863e-06
3.0364e-06
7.99315e-07
1.40831e-05
2.50245e-05
0.000134879
0.000469328
0.000101805
9.12456e-05
0.000104826
9.73653e-05
2.19662e-05
0.000330818
0.000533971
0.000375811
1.09631e-10
1.16976e-10
2.11058e-10
1.42499e-09
3.51979e-06
9.52864e-06
1.00581e-05
9.97717e-06
1.78337e-06
1.64766e-06
5.00242e-06
9.48761e-07
3.73468e-05
0.000845425
0.00101852
0.000753997
8.64179e-05
8.64179e-05
0.000118084
0.000395481
0.000537042
0.00053436
2.02365e-11
1.09003e-10
1.11073e-10
1.12289e-10
2.10452e-10
4.22846e-10
4.47039e-07
2.1062e-06
2.37717e-06
1.35813e-06
1.18662e-06
4.59719e-06
2.47283e-07
8.36212e-05
0.00101852
0.00101852
0.00101852
0.00045468
0.000137326
0.000475326
0.000475326
0.000452016
4.55258e-05
1.56599e-11
1.49229e-10
3.34111e-10
3.94979e-10
3.85223e-10
2.86342e-10
7.5175e-10
7.03813e-10
2.2527e-09
2.48959e-08
9.22379e-08
4.02363e-07
2.45974e-07
4.03071e-06
0.000491909
0.00101852
0.000930388
0.000602267
0.000277233
0.00018079
0.00020431
1.04769e-12
4.63501e-13
1.36323e-11
1.20426e-10
5.60566e-10
1.14651e-09
1.09606e-09
2.81589e-10
7.67817e-11
7.69048e-11
1.17403e-10
1.20835e-10
3.68534e-10
1.39046e-09
2.48573e-07
2.13429e-07
3.00214e-05
0.000626972
2.39096e-05
1.93928e-08
2.9521e-08
2.68347e-08
1.89408e-08
1.58653e-08
1.84649e-13
1.23311e-11
2.36432e-11
3.77123e-10
1.54905e-09
2.03489e-09
1.05028e-09
7.36425e-11
5.92505e-11
4.11886e-11
1.65961e-11
2.83433e-11
8.27371e-11
1.03646e-07
2.49987e-07
3.49105e-09
2.54405e-09
1.79196e-09
2.54471e-09
9.95131e-08
1.2533e-07
3.09621e-07
2.74591e-07
7.46721e-14
6.4551e-12
1.31785e-11
1.26699e-10
1.09379e-09
2.03452e-09
1.64262e-09
1.11339e-10
5.87836e-11
3.70079e-11
7.45527e-12
9.69705e-12
1.32472e-11
2.8036e-08
3.82247e-07
1.15581e-07
2.7695e-09
1.79196e-09
1.92724e-06
4.71411e-07
4.54848e-08
3.0042e-07
2.61516e-07
5.35247e-14
2.08854e-12
6.23075e-12
1.39577e-11
3.01479e-10
1.46004e-09
1.7555e-09
1.16325e-10
3.49128e-11
2.76301e-11
6.4584e-12
7.8308e-12
6.66567e-12
1.33776e-22
6.01478e-08
1.80619e-07
3.04952e-08
2.52469e-09
4.53075e-06
7.98574e-07
9.41157e-21
7.83983e-20
5.5969e-18
5.35145e-14
3.93684e-13
1.25873e-12
5.65523e-12
2.79835e-11
1.35423e-10
3.89517e-10
5.93964e-11
1.3265e-11
1.3333e-11
1.89487e-12
2.61813e-12
3.49637e-12
2.38323e-190
1.44394e-14
5.00418e-08
1.13273e-11
8.87995e-10
3.78781e-06
2.37176e-07
4.01687e-23
4.46976e-18
4.212e-16
1.45827e-14
3.08582e-14
1.78352e-15
1.66816e-15
1.64083e-14
2.974e-13
8.99519e-12
1.33758e-11
3.37125e-12
4.66651e-12
5.16417e-13
6.67312e-13
8.14977e-13
0.993438
0.993438
0.993324
0.992713
0.691477
0.586445
0.512017
0.423727
0.0532814
0.036245
0.0119924
0.00145511
0.000993757
0.00105349
0.00111464
0.00141221
0.00183597
0.00183764
0.00125784
0.00135062
0.00250845
0.00250843
0.00250843
0.000805562
0.00236734
0.0021357
0.000304372
0.000189949
0.000109876
0.000182631
0.000222845
0.000191233
0.000591053
0.000712109
0.000816339
0.000390019
0.00080856
0.000827099
0.000831436
0.000830044
0.000203207
0.000756461
0.000827099
0.000830174
6.00894e-05
6.12816e-05
0.00048692
0.000204332
5.83925e-05
7.65197e-05
7.94003e-05
7.78235e-05
0.000431915
0.000590368
0.00014975
7.88359e-05
0.00152159
0.00121723
0.000124681
9.42217e-05
0.00151209
0.000331532
0.000119569
0.000121698
0.00149815
0.000176245
0.000138301
0.00104344
0.0015791
0.000207731
9.48603e-05
0.000899394
0.000115462
9.98758e-05
8.97159e-05
0.000163822
1.11852e-05
9.98041e-06
7.59134e-06
4.65693e-06
1.00408e-05
8.09849e-06
6.63708e-06
5.07119e-06
5.71924e-05
7.15053e-05
6.63181e-06
6.63967e-06
0.00034602
0.000347424
0.000200211
0.00010193
0.00035517
0.00034841
0.00034292
0.000347853
0.000339847
0.000339904
0.000340405
0.000343724
0.000342134
0.000338718
0.000339558
0.000339961
0.000294671
0.000340703
0.000340252
0.000277975
2.47011e-05
9.42387e-05
0.00013761
4.9568e-05
1.96191e-06
1.90753e-06
1.74026e-06
2.04462e-06
1.03877e-06
8.34472e-07
9.28203e-07
8.80047e-07
8.27118e-07
8.05452e-07
7.95793e-07
7.8947e-07
7.99515e-07
7.8941e-07
7.89437e-07
7.95792e-07
7.90248e-07
7.92912e-07
8.10002e-07
3.93834e-06
5.26248e-06
5.45295e-06
5.9554e-06
6.09115e-06
4.5339e-06
4.43054e-06
5.19498e-06
5.58989e-06
3.62018e-07
2.84704e-07
4.51006e-07
5.07793e-07
1.47425e-09
1.33953e-09
1.69254e-09
1.724e-09
9.589e-11
9.17089e-11
1.0932e-10
1.10205e-10
2.0756e-11
2.04684e-11
2.05986e-11
1.84253e-11
1.13365e-11
1.20048e-11
9.88393e-12
1.02446e-11
4.93772e-12
4.9372e-12
4.73168e-12
4.38931e-12
1.03849e-12
1.00822e-12
9.4415e-13
8.20691e-13
0.978546
0.956086
0.925795
0.813008
0.600185
0.541472
0.581565
0.620061
0.660453
0.665998
0.662803
0.833002
0.951573
0.980676
0.978683
0.972898
0.984319
0.984337
0.984339
0.288784
0.213446
0.129693
0.0464167
0.0571011
0.0871827
0.106382
0.065127
0.0263781
0.0560212
0.0736865
0.0964416
0.220401
0.482303
0.731635
0.885107
0.980603
0.984339
0.984339
0.00159596
0.00169919
0.00178041
0.00181709
0.00118656
0.000478539
0.000223697
0.000202782
5.31593e-05
3.17765e-05
3.12749e-05
3.33478e-05
0.0020963
0.0173236
0.0635065
0.183525
0.412763
0.645986
0.722168
0.00209716
0.00284398
0.00434993
0.00408173
0.00151233
0.000260765
8.09683e-05
5.36681e-05
2.84907e-05
2.86196e-05
3.08236e-05
3.12937e-05
3.72762e-05
0.000274686
0.000452292
0.000714239
0.00247747
0.0330025
0.0643136
0.00462651
0.00470149
0.00469954
0.00469954
0.00282908
0.000124664
4.54398e-05
3.52829e-05
2.85561e-05
3.027e-05
3.03513e-05
3.08262e-05
0.000630919
0.00152193
0.00185365
0.00186986
0.00182843
0.000625818
0.000666262
0.00111019
0.00467098
0.00469954
0.00203939
0.000160014
0.000176322
3.73238e-05
3.1668e-05
3.02561e-05
3.03098e-05
3.02784e-05
3.12966e-05
3.16498e-05
3.16226e-05
0.000469396
0.000625193
0.000628077
0.000583862
0.000570191
0.000191233
0.00390259
0.00447033
0.000541355
5.56543e-05
9.01209e-05
5.96541e-05
3.12828e-05
3.08459e-05
3.01021e-05
0.000184966
0.000247164
3.16212e-05
3.52554e-05
0.000376642
0.000796568
0.00059525
0.000592298
0.000583035
0.00018996
0.00198333
0.00310456
0.000998173
5.41609e-05
4.98192e-05
9.43657e-05
7.34689e-05
3.11262e-05
0.000119522
0.000426114
0.000425853
0.000268226
5.02734e-05
0.000984206
0.00138776
0.00121035
0.00059095
0.000590324
0.000191233
0.000696213
0.0021955
0.00151672
4.71644e-05
4.48869e-05
9.40743e-05
9.43685e-05
5.48594e-05
0.000292526
0.000426114
0.000426128
0.000425973
0.000126148
0.000349892
0.00138776
0.00135039
0.000588614
0.000589616
0.00029517
0.000320262
0.00142725
0.00173205
0.000117407
3.09604e-05
9.43484e-05
5.40326e-05
6.1467e-05
0.00042537
0.000426123
0.000410868
0.00042584
0.000422399
0.000232056
0.000348343
0.001327
0.00130892
0.000591156
0.000165794
0.000216344
0.00162849
0.00173205
0.000100667
2.99796e-05
4.59541e-05
3.34998e-05
0.000112297
0.000421356
0.000392184
6.42594e-05
8.58575e-05
0.000356363
0.000232982
0.000232982
0.000941686
0.00135543
0.000592346
7.80152e-05
0.000393723
0.00160562
0.00152584
2.99796e-05
2.96813e-05
2.99796e-05
3.16851e-05
0.000291693
0.000410917
0.000101843
4.26737e-05
4.26737e-05
4.26737e-05
0.000267465
0.000782891
0.0013638
0.00136068
0.00128288
7.82159e-05
0.0011248
0.00118663
0.000177909
2.96813e-05
2.96813e-05
2.96633e-05
0.00014426
0.000302188
0.000112318
8.62542e-05
8.19843e-05
4.52513e-05
4.30636e-05
4.36441e-05
0.000725234
0.00136068
0.00135665
0.00134529
7.78678e-05
0.00127908
0.000467101
2.90978e-05
2.99357e-05
2.96813e-05
7.42614e-05
0.000200453
0.000125958
6.63391e-05
0.000103713
0.000116121
0.000115891
5.1826e-05
4.89987e-05
0.000173767
0.00135731
0.00110613
0.00133833
0.000175033
0.00128241
5.32866e-05
3.03216e-05
3.01901e-05
3.18432e-05
0.000141977
0.000162894
9.62285e-05
6.34946e-05
6.51006e-05
7.29589e-05
0.000116121
0.000114453
5.47148e-05
5.74314e-05
0.000844424
0.000295424
0.000828255
0.00118105
0.00128074
3.46743e-05
3.26465e-05
3.04446e-05
0.000133203
0.000141684
0.000114937
7.63423e-05
5.77854e-05
7.16128e-05
5.76197e-05
4.64517e-05
4.29324e-05
4.4023e-05
0.000144637
0.000150201
3.54791e-05
0.000123996
0.00116629
0.000539554
3.76184e-05
3.46765e-05
0.000117132
0.000133754
0.00012413
6.01839e-05
1.1691e-05
6.09504e-05
0.000561859
0.0004895
9.34661e-05
1.62729e-05
3.74586e-05
7.72992e-05
3.4142e-06
3.57603e-06
0.000369435
0.00110735
4.50115e-05
4.09689e-05
0.00011331
0.000120393
0.000107833
8.00662e-05
1.61408e-06
1.61408e-06
0.000608413
0.000674542
0.000672756
0.000296417
4.22546e-06
2.3442e-06
1.97597e-06
1.03533e-06
3.43045e-06
0.000584484
0.000167598
5.15528e-05
9.71961e-05
0.000105772
6.67045e-05
2.94453e-05
1.74416e-06
1.61402e-06
0.000175898
0.000674542
0.000674542
0.000640306
0.000117642
7.02038e-07
4.10095e-07
5.37181e-07
6.33335e-07
6.23813e-07
0.00057952
5.15597e-06
9.77671e-06
3.10278e-05
1.32491e-05
8.54453e-07
1.6551e-07
6.87048e-07
7.5723e-05
0.000677208
0.000675792
0.000674542
0.00019862
3.55536e-07
5.8174e-07
3.63002e-07
3.91356e-07
5.21256e-07
6.23774e-07
0.000162033
3.07973e-06
1.7378e-06
4.41578e-07
8.45316e-08
4.75833e-08
3.98828e-08
1.52218e-07
0.000178848
0.000670911
0.000674118
0.000671918
0.000185414
3.4962e-07
3.51771e-07
3.56069e-07
3.62153e-07
3.94067e-07
6.07375e-06
0.000420305
5.07073e-06
2.84156e-05
1.0729e-05
4.76208e-08
4.34211e-08
2.35825e-08
1.88777e-08
5.38033e-05
0.000492578
0.000669237
0.000570695
3.81205e-05
3.49207e-07
3.4962e-07
3.51771e-07
3.5409e-07
3.93408e-07
2.10112e-05
0.000986389
0.000152068
0.000219059
0.000193854
7.20167e-08
2.18303e-08
1.8869e-08
1.85168e-08
1.67008e-08
1.66735e-08
0.000328762
9.05001e-05
3.47419e-07
3.47653e-07
3.49471e-07
3.52435e-07
3.75065e-07
6.90739e-06
0.000648438
0.000986389
0.000321073
0.000102403
6.98762e-05
6.88131e-05
2.23147e-06
1.4986e-07
1.70839e-08
1.66772e-08
8.5471e-07
7.57206e-07
2.9877e-05
2.81009e-06
3.8379e-07
1.34319e-06
4.0435e-07
5.83506e-07
0.000168012
0.000971615
0.000984643
0.000287656
4.21674e-05
1.27791e-06
1.13519e-06
7.1351e-06
1.03608e-06
1.86026e-08
1.69981e-08
2.11609e-08
2.77815e-08
0.000115818
0.000248114
4.06798e-07
5.52784e-06
5.54748e-07
7.12043e-07
0.000170012
0.000560559
0.000611094
0.000339078
0.000287595
7.02843e-05
7.43687e-07
4.77813e-07
2.84724e-07
2.32074e-07
2.32822e-07
2.72757e-08
1.45504e-08
0.000186964
0.000363578
6.61902e-05
5.22468e-07
5.27213e-07
4.65817e-07
0.000109403
1.68906e-05
1.71841e-05
0.000301257
0.000300529
0.00023349
8.13384e-06
3.22013e-07
2.88698e-07
3.61078e-07
3.61441e-07
8.50413e-08
-1.88616e-08
0.000112351
0.000366725
0.000368397
5.13069e-07
4.70216e-07
4.168e-07
6.65208e-06
4.7075e-07
0.000442938
3.42451e-05
0.000216581
0.000174322
1.36571e-05
3.77711e-07
3.32287e-07
3.69637e-07
3.59904e-07
7.23945e-08
3.26402e-10
1.09665e-07
0.000296688
0.000444799
0.000338987
4.16799e-07
4.15167e-07
4.111e-07
3.97781e-07
0.000594473
1.20778e-06
3.02077e-05
6.15762e-05
2.33067e-05
3.06785e-07
2.56199e-07
3.2778e-07
1.526e-07
1.5715e-09
2.59889e-10
2.95126e-10
2.99793e-10
0.000445331
0.000637162
0.000155253
4.11943e-07
3.97934e-07
3.90091e-07
0.000594884
8.97516e-07
1.20778e-06
3.03119e-06
3.32672e-06
6.22329e-07
2.34795e-07
2.47228e-07
4.98407e-08
2.39543e-10
2.15087e-10
2.46353e-10
3.22459e-10
3.75162e-09
0.000636462
0.000766865
4.57337e-07
3.90582e-07
3.93623e-07
0.000596873
8.43493e-07
1.46447e-06
8.53325e-07
4.32407e-08
4.13668e-08
5.20283e-08
2.73713e-08
4.82477e-09
7.40877e-10
7.61432e-11
8.22526e-11
3.61025e-09
1.67647e-07
2.90296e-07
0.000769597
0.000128281
4.09767e-07
3.90092e-07
0.000781163
2.7066e-06
5.12418e-06
1.49424e-06
9.74746e-09
7.09539e-09
1.16078e-08
1.54794e-08
8.69892e-09
8.12349e-10
6.30576e-11
7.32014e-11
1.2541e-05
2.27638e-06
5.60468e-07
0.000278389
0.00111579
1.76711e-06
0.000137829
0.00105541
6.09115e-06
5.45236e-06
6.41957e-07
4.76984e-09
6.27046e-09
1.18534e-08
1.06736e-08
2.66646e-09
9.73085e-11
6.22475e-11
1.93726e-05
0.000325933
0.000129675
7.81236e-07
0.00035301
0.0011179
0.000503158
0.00105541
0.00105541
6.05438e-06
1.82458e-06
1.00118e-08
2.21391e-09
6.16219e-09
6.76598e-09
2.40921e-09
3.0677e-10
6.37104e-11
6.28069e-11
0.000231049
0.000429262
0.000356394
8.01681e-06
0.000528955
0.00111654
0.00111815
0.000857101
0.00043309
2.01243e-06
5.36883e-09
6.45443e-10
1.88894e-09
2.69153e-09
1.23256e-09
5.23304e-10
2.4674e-10
6.33029e-11
6.22475e-11
0.000377974
0.00043102
0.000431022
4.96626e-05
0.00077183
0.00111727
0.000930966
4.26878e-05
2.58836e-07
5.16733e-09
4.88105e-10
2.11235e-10
7.23088e-10
4.55777e-10
4.79918e-10
3.57511e-10
1.76626e-10
6.31152e-11
6.26816e-11
0.000359321
0.000431022
0.00043102
0.000175366
0.00060955
0.000939954
0.000173677
4.96439e-05
2.00751e-08
3.21638e-10
5.36562e-11
1.40118e-10
9.17957e-11
9.85633e-11
2.18814e-10
1.17301e-10
6.44696e-11
5.88901e-11
6.33774e-11
0.000178018
0.000428903
0.000310811
7.4409e-05
7.99243e-05
0.000101966
0.000107188
0.000158774
2.00556e-08
3.20007e-11
1.49643e-11
2.8838e-11
1.79963e-11
3.79373e-11
4.79016e-11
3.11474e-11
2.62217e-11
2.63126e-11
1.43156e-06
0.000129907
0.000420123
1.2011e-05
8.7374e-06
9.71821e-06
1.45673e-05
0.000174428
5.03003e-05
1.04273e-08
7.45266e-12
1.0357e-11
1.02346e-11
9.70377e-12
1.94653e-11
2.16141e-11
2.10543e-11
2.23007e-11
1.70048e-10
7.38633e-07
0.00016483
0.000262875
8.28474e-06
8.14455e-06
8.7374e-06
1.07855e-05
0.000176533
1.09553e-08
9.71351e-09
5.37769e-12
4.54001e-12
3.79134e-12
3.73775e-12
7.47018e-12
1.08231e-11
1.1737e-11
2.90984e-11
1.78869e-09
1.77261e-06
9.06382e-05
0.00015733
8.14427e-06
8.1458e-06
1.00106e-05
0.000126822
0.000176303
5.3384e-06
2.43696e-09
1.46689e-12
1.33783e-12
1.15855e-12
1.3403e-12
2.67554e-12
5.76294e-12
2.21125e-11
7.836e-10
1.53406e-09
4.75742e-09
2.02054e-06
3.16789e-05
3.02259e-05
8.1458e-06
3.80031e-05
0.000135108
9.63285e-05
9.82308e-07
1.51531e-12
2.87615e-13
3.46984e-13
3.27045e-13
4.59177e-13
9.53533e-13
2.91951e-12
1.59139e-11
2.00361e-10
2.79104e-10
6.1703e-10
9.23946e-13
2.36176e-06
9.30472e-06
8.22236e-06
2.22959e-05
3.59663e-05
3.47453e-08
1.55653e-13
7.94305e-13
)
;

boundaryField
{
    leftWall
    {
        type            zeroGradient;
    }
    rightWall
    {
        type            zeroGradient;
    }
    lowerWall
    {
        type            zeroGradient;
    }
    atmosphere
    {
        type            inletOutlet;
        inletValue      uniform 0;
        value           nonuniform List<scalar> 
46
(
0
0
0
0
0
0
0
0
0
0
0
0
0
0
0
0
8.99519e-12
1.33758e-11
3.37125e-12
4.66651e-12
5.16417e-13
6.67312e-13
8.14977e-13
1.03849e-12
1.00822e-12
9.4415e-13
8.20691e-13
2.87615e-13
3.46984e-13
3.27045e-13
4.59177e-13
9.53533e-13
2.91951e-12
1.59139e-11
2.00361e-10
2.79104e-10
6.1703e-10
0
2.36176e-06
9.30472e-06
8.22236e-06
2.22959e-05
3.59663e-05
0
0
0
)
;
    }
    defaultFaces
    {
        type            empty;
    }
}


// ************************************************************************* //
