/*--------------------------------*- C++ -*----------------------------------*\
| =========                 |                                                 |
| \\      /  F ield         | OpenFOAM: The Open Source CFD Toolbox           |
|  \\    /   O peration     | Version:  2.3.0                                 |
|   \\  /    A nd           | Web:      www.OpenFOAM.org                      |
|    \\/     M anipulation  |                                                 |
\*---------------------------------------------------------------------------*/
FoamFile
{
    version     2.0;
    format      ascii;
    class       volScalarField;
    location    "2.55";
    object      p;
}
// * * * * * * * * * * * * * * * * * * * * * * * * * * * * * * * * * * * * * //

dimensions      [1 -1 -2 0 0 0 0];

internalField   nonuniform List<scalar> 
2268
(
935.725
932.395
931.351
922.431
907.933
893.34
878.641
862.178
846.751
832.051
815.667
797.465
779.672
763.464
748.756
735.411
724.577
716.075
708.987
703.231
698.079
695.055
696.922
877.215
873
874.56
865.031
849.767
834.289
818.886
802.023
786.776
772.219
755.917
738.478
720.932
704.629
689.575
676.064
665.135
656.793
649.629
643.754
638.44
635.047
637.6
822.88
817.417
817
807.849
793.418
776.339
758.825
741.917
727.358
713.074
695.774
678.329
661.632
645.487
630.251
616.29
605.362
596.639
589.214
583.178
577.989
575.501
578.943
771.62
764.768
759.974
751.506
737.224
718.617
699.725
682.959
670.38
655.567
636.812
617.624
600.669
585.445
570.953
557.177
545.35
535.124
526.859
520.998
516.902
516.297
521.106
721.349
713.761
705.19
696.196
681.442
661.303
641.568
625.857
614.066
597.726
577.827
556.742
538.983
525.022
511.864
498.373
485.123
472.523
462.998
457.353
454.748
456.427
462.957
672.035
663.332
654.454
642.107
626.574
604.542
584.581
568.932
556.221
538.479
516.39
494.517
477.005
464.518
452.834
439.686
424.601
409.337
398.901
393.548
392.243
395.625
402.658
622.774
613.638
605.619
589.429
571.783
549.305
528.432
512.123
497.908
477.944
453.743
431.702
415.027
403.826
393.404
380.59
363.789
346.901
336.254
330.763
329.863
334.039
339.881
572.153
562.969
555.48
538.57
518.806
494.933
473.599
456.502
439.913
417.371
391.687
369.093
352.997
342.975
333.715
320.998
303.47
286.645
275.269
268.929
268.03
272.943
275.67
562.26
554.392
558.345
545.213
534.093
552.282
566.148
567.219
568.4
569.299
564.969
566.09
582.932
608.55
631.816
648.431
651.014
654.937
667.795
504.965
495.539
500.285
482.425
468.238
488.494
504.329
505.323
506.593
507.961
502.803
501.12
518.392
546.645
574.018
595.826
596.616
596.102
610.247
448.851
438.833
440.38
416.872
404.609
426.034
440.543
442.02
444.224
446.032
439.87
437.893
454.45
481.836
511.36
538.323
543.618
543.05
557.379
394.639
386.996
381.678
355.569
343.046
363.826
375.791
378.138
381.834
384.076
377.09
375.675
392.546
417.961
447.087
477.461
490.724
495.705
508.747
341.265
336.927
325.598
299.054
285.032
301.741
311.01
314.402
319.137
322.086
315.149
315.314
332.746
356.259
384.7
417.024
439.42
448.859
461.358
287.506
285.649
271.474
245.183
232
241.162
247.568
251.16
255.776
260.062
254.308
259.075
276.79
297.876
326.085
361.113
389.542
401.78
414.07
233.366
232.898
218.191
191.718
178.884
181.152
185.467
188.214
191.961
197.232
195.164
204.387
223.345
245.974
274.284
311
339.442
352.512
364.557
177.234
176.284
163.357
138.253
122.64
120.197
123.055
124.062
127.167
133.494
134.828
148.38
169.724
195.812
227.486
262.996
288.039
301.257
312.704
491.976
479.009
473.418
458.031
437.905
413.993
392.074
372.763
350.392
323.885
295.232
271.613
255.948
246.24
238.625
227.655
211.275
194.741
180.88
173.602
173.568
178.24
171.059
389.459
376.135
363.349
347.239
326.23
303.603
280.836
259.191
232.707
197.171
158.93
130.31
116.997
111.326
109.325
104.271
92.4904
76.9985
63.3583
58.7342
62.3164
67.2669
67.3443
295.612
278.907
259.333
236.939
211.949
188.15
166.658
143.628
113.985
67.8982
28.4988
17.8872
18.0304
21.1137
24.1216
26.1461
21.0246
14.8811
7.38622
4.75673
5.24388
7.27439
7.37018
202.428
182.475
160.202
131.024
103.285
82.2456
69.7412
52.8439
30.075
5.86279
0.599903
0.443888
0.263686
0.155632
0.107409
0.0319608
-0.0671222
0.7142
0.754115
0.604259
0.628949
1.05135
1.63803
131.091
104.204
69.1325
39.0894
18.5999
11.5062
9.73495
7.00007
0.920502
-0.149671
0.1175
0.0916847
-0.0268923
-0.104324
-0.198529
-0.423226
-0.804236
-0.661462
-0.182788
-0.230003
-0.0991855
0.328995
0.801494
77.3417
39.5225
9.07856
1.70887
0.276355
-0.188038
-0.212274
-0.267492
-0.489968
-0.519225
-0.310409
-0.290611
-0.345425
-0.417154
-0.517501
-0.645202
-0.658477
-0.486545
-0.449011
-0.670184
-0.59701
-0.272774
0.0144749
40.1931
2.58012
-2.19588
-0.42099
0.0609459
-0.266993
-0.442445
-0.627596
-0.661459
-0.666285
-0.615634
-0.630981
-0.681872
-0.760603
-0.835332
-0.856623
-0.734729
-0.482263
-0.447912
-0.682925
-0.724198
-0.540014
-0.365565
44.9205
19.4915
-1.67144
-0.606692
-0.109532
-0.353604
-0.550651
-0.707062
-0.793581
-0.85162
-0.913662
-0.983202
-1.05266
-1.10935
-1.13959
-1.09728
-0.963925
-0.759087
-0.643901
-0.714305
-0.747956
-0.663292
-0.532247
-0.665834
-1.41827
-1.84251
-0.689966
-0.419017
-0.513436
-0.620548
-0.739453
-0.89206
-1.05956
-1.21776
-1.35624
-1.46331
-1.51962
-1.51572
-1.42398
-1.23832
-1.01029
-0.854279
-0.833004
-0.851677
-0.825394
-0.73594
-0.780401
-1.00373
-1.07368
-0.855848
-0.660433
-0.64808
-0.701749
-0.811265
-1.00922
-1.25241
-1.4887
-1.69463
-1.84297
-1.91957
-1.90435
-1.79836
-1.60271
-1.35933
-1.15275
-1.05075
-1.02571
-1.01745
-0.987614
-0.751981
-0.80452
-0.820608
-0.746897
-0.687949
-0.698774
-0.75393
-0.879211
-1.10834
-1.40617
-1.70628
-1.96665
-2.15048
-2.24436
-2.24064
-2.14379
-1.95856
-1.70836
-1.47266
-1.31498
-1.25344
-1.24264
-1.23352
-0.782442
-0.807583
-0.83179
-0.767382
-0.737145
-0.755428
-0.80819
-0.941436
-1.18377
-1.51242
-1.85973
-2.16337
-2.37861
-2.49104
-2.50148
-2.418
-2.24943
-2.01494
-1.77012
-1.58955
-1.50751
-1.48509
-1.46929
-0.832661
-0.826663
-0.840118
-0.856276
-0.851344
-0.86071
-0.908414
-1.02869
-1.2542
-1.5822
-1.9504
-2.27965
-2.51574
-2.64245
-2.66325
-2.58989
-2.44058
-2.22915
-2.00112
-1.83345
-1.76266
-1.74841
-1.73915
-0.900323
-0.884467
-0.887256
-0.935644
-0.976418
-1.00165
-1.05006
-1.16396
-1.3627
-1.65915
-2.01067
-2.3296
-2.55759
-2.67874
-2.69791
-2.63213
-2.5051
-2.32791
-2.1437
-2.03111
-2.01138
-2.04005
-2.07313
-1.02643
-1.02021
-1.01711
-1.08982
-1.19859
-1.28376
-1.31503
-1.37152
-1.52497
-1.78212
-2.08434
-2.3469
-2.52133
-2.60283
-2.60411
-2.54257
-2.44077
-2.30676
-2.19103
-2.16395
-2.22093
-2.34684
-2.51357
-1.21842
-1.28552
-1.44022
-1.60132
-1.73915
-1.82172
-1.81567
-1.7914
-1.85298
-2.04557
-2.26904
-2.40869
-2.46102
-2.45564
-2.41378
-2.35348
-2.27468
-2.18759
-2.14601
-2.20364
-2.33166
-2.58273
-2.9368
-1.46985
-1.79972
-2.14751
-2.2822
-2.31314
-2.33529
-2.35569
-2.3495
-2.37427
-2.5309
-2.63572
-2.56384
-2.4331
-2.30169
-2.19946
-2.12301
-2.05592
-2.00956
-2.02544
-2.14049
-2.33551
-2.70685
-3.16578
-1.89219
-2.44542
-2.58374
-2.61094
-2.59886
-2.60607
-2.68675
-2.81998
-2.95748
-3.14979
-3.16672
-2.83614
-2.44535
-2.17896
-2.01425
-1.91558
-1.85323
-1.83373
-1.8749
-2.00264
-2.24969
-2.69543
-3.15218
-2.42921
-2.83867
-2.80456
-2.81105
-2.81436
-2.85872
-3.00834
-3.22176
-3.50966
-3.83809
-3.77794
-3.1765
-2.49049
-2.10161
-1.89744
-1.79074
-1.74176
-1.73517
-1.77076
-1.88034
-2.1238
-2.52605
-2.95312
-2.84665
-3.03865
-2.96984
-3.00488
-3.03964
-3.14793
-3.3674
-3.65185
-4.09366
-4.4836
-4.27933
-3.42682
-2.53526
-2.06168
-1.85129
-1.76597
-1.75318
-1.75611
-1.77919
-1.86835
-2.0755
-2.42444
-2.7681
-3.06116
-3.14256
-3.14044
-3.19078
-3.25954
-3.40846
-3.6292
-3.94867
-4.49692
-4.90503
-4.42501
-3.36053
-2.52167
-2.05759
-1.89865
-1.88456
-1.88767
-1.88484
-1.89424
-1.95831
-2.14437
-2.44644
-2.74883
-3.17499
-3.22663
-3.26555
-3.33537
-3.45066
-3.58975
-3.75619
-4.03081
-4.40151
-4.54537
-4.12306
-3.25557
-2.54084
-2.13033
-2.01117
-2.04051
-2.06686
-2.0685
-2.0708
-2.12144
-2.29108
-2.58521
-2.90066
-3.23981
-3.27965
-3.33498
-3.42094
-3.55604
-3.69366
-3.81586
-3.98786
-4.17146
-4.17933
-3.85111
-3.20915
-2.62224
-2.28817
-2.17719
-2.18973
-2.23661
-2.26408
-2.28455
-2.33898
-2.51006
-2.81455
-3.16228
-3.27903
-3.32128
-3.37359
-3.4491
-3.55961
-3.68875
-3.81376
-3.96659
-4.11922
-4.13977
-3.91956
-3.48011
-2.97434
-2.60194
-2.40403
-2.38169
-2.44502
-2.5098
-2.55436
-2.62119
-2.79197
-3.09789
-3.48404
-3.33482
-3.3805
-3.41591
-3.45249
-3.52449
-3.6324
-3.77508
-3.95619
-4.18244
-4.34011
-4.2898
-3.99444
-3.60489
-3.22175
-2.89671
-2.76324
-2.77619
-2.8533
-2.90972
-2.97549
-3.12736
-3.40787
-3.79168
-3.43201
-3.4781
-3.48851
-3.47276
-3.5082
-3.58762
-3.73648
-3.98225
-4.29714
-4.56072
-4.60035
-4.40757
-4.09254
-3.78665
-3.50395
-3.32348
-3.28428
-3.316
-3.34967
-3.37428
-3.47489
-3.69607
-4.00004
-3.61024
-3.64809
-3.63951
-3.56453
-3.55701
-3.63177
-3.79393
-4.06614
-4.39212
-4.63437
-4.67738
-4.5563
-4.33647
-4.13279
-4.00476
-3.92894
-3.93668
-3.89721
-3.8215
-3.75646
-3.77562
-3.89693
-4.0803
-3.85514
-3.89636
-3.88344
-3.76325
-3.68123
-3.74542
-3.91589
-4.17881
-4.45106
-4.63208
-4.67522
-4.60494
-4.47096
-4.35112
-4.33552
-4.41411
-4.51175
-4.42564
-4.2106
-4.0591
-4.00432
-4.02807
-4.09949
-4.08838
-4.12592
-4.12387
-4.01798
-3.89858
-3.93401
-4.08789
-4.29952
-4.49965
-4.62271
-4.65426
-4.61219
-4.53411
-4.47804
-4.50844
-4.60664
-4.74266
-4.65217
-4.42247
-4.25672
-4.16608
-4.13066
-4.13209
-4.2657
-4.3001
-4.3078
-4.27164
-4.21345
-4.21895
-4.33125
-4.46319
-4.55444
-4.60499
-4.61734
-4.58481
-4.53282
-4.51368
-4.56094
-4.64326
-4.70357
-4.64711
-4.50022
-4.37362
-4.2863
-4.22815
-4.19634
-4.39274
-4.43532
-4.45787
-4.48335
-4.51871
-4.57293
-4.67355
-4.65719
-4.61228
-4.57522
-4.55915
-4.53975
-4.50693
-4.51915
-4.57148
-4.63472
-4.65621
-4.61648
-4.53886
-4.4614
-4.39181
-4.32776
-4.28262
-4.49205
-4.53121
-4.57197
-4.64547
-4.72631
-4.87642
-4.99821
-4.85315
-4.67142
-4.56397
-4.52557
-4.53186
-4.52822
-4.55362
-4.60692
-4.65256
-4.66815
-4.64738
-4.60328
-4.5512
-4.49409
-4.42699
-4.38068
-4.6041
-4.62078
-4.66043
-4.75115
-4.85733
-5.04156
-5.15592
-4.94505
-4.72047
-4.60137
-4.58461
-4.59838
-4.6117
-4.63322
-4.67364
-4.70172
-4.71271
-4.70363
-4.67614
-4.63575
-4.58501
-4.52952
-4.48644
-4.74792
-4.74592
-4.77804
-4.84617
-4.91681
-5.01637
-5.04839
-4.9283
-4.79054
-4.7172
-4.72009
-4.73306
-4.72421
-4.74285
-4.76205
-4.77269
-4.77383
-4.76426
-4.74408
-4.71315
-4.67322
-4.63091
-4.59789
-4.90757
-4.92218
-4.97362
-5.00016
-4.98509
-4.99921
-4.99816
-4.94174
-4.88219
-4.86771
-4.87922
-4.87489
-4.86142
-4.863
-4.86385
-4.86156
-4.85414
-4.84102
-4.82227
-4.79775
-4.76864
-4.73951
-4.71706
-5.07982
-5.11855
-5.20071
-5.18954
-5.11663
-5.094
-5.08564
-5.062
-5.03807
-5.03004
-5.02135
-5.00218
-4.98688
-4.9788
-4.97147
-4.96267
-4.95119
-4.93656
-4.91876
-4.89879
-4.87796
-4.85882
-4.84438
-5.23045
-5.2627
-5.33881
-5.32069
-5.247
-5.2227
-5.21008
-5.19225
-5.17568
-5.16152
-5.1357
-5.11504
-5.10231
-5.09222
-5.08225
-5.07144
-5.05931
-5.04565
-5.03052
-5.01479
-4.99971
-4.9868
-4.97731
-5.34257
-5.35803
-5.40329
-5.39884
-5.3294
-5.31082
-5.30257
-5.29139
-5.27785
-5.2567
-5.23922
-5.22615
-5.21552
-5.20577
-5.19574
-5.18521
-5.17415
-5.1626
-5.1507
-5.13901
-5.1283
-5.11944
-5.11301
-5.43967
-5.44457
-5.4642
-5.4632
-5.40877
-5.3991
-5.39375
-5.38291
-5.3718
-5.36004
-5.34856
-5.3383
-5.32901
-5.3203
-5.31139
-5.30229
-5.29315
-5.28407
-5.27523
-5.26697
-5.25969
-5.2538
-5.24952
-5.53954
-5.54312
-5.54794
-5.54154
-5.51725
-5.50911
-5.50008
-5.49093
-5.48004
-5.4702
-5.46034
-5.45165
-5.44365
-5.43622
-5.42891
-5.42176
-5.41492
-5.40844
-5.40244
-5.39705
-5.39246
-5.38884
-5.38623
-5.64224
-5.6453
-5.64573
-5.64056
-5.6328
-5.62413
-5.61131
-5.60298
-5.5923
-5.58312
-5.57448
-5.56684
-5.56001
-5.55391
-5.54832
-5.54328
-5.53888
-5.53502
-5.5316
-5.52866
-5.52622
-5.52435
-5.52303
-5.74341
-5.74762
-5.74626
-5.74321
-5.74674
-5.72912
-5.72323
-5.71776
-5.7073
-5.69838
-5.69036
-5.6836
-5.67794
-5.67329
-5.66956
-5.66674
-5.66492
-5.66365
-5.66257
-5.6617
-5.66102
-5.66054
-5.66023
140.003
134.088
128.398
119.293
53.8464
44.3764
35.71
28.8534
5.57313
3.77808
2.6879
2.83152
1.88621
1.95677
2.01856
2.06552
1.15852
1.42904
1.56107
1.45956
0.360399
0.540535
0.604689
0.561385
-0.17363
-0.0340459
0.0404143
0.066199
-0.436102
-0.344571
-0.258415
-0.217358
-0.638185
-0.571814
-0.511047
-0.468217
-0.910844
-0.849116
-0.788931
-0.732957
-1.18543
-1.13463
-1.07109
-1.01177
-1.43195
-1.39469
-1.34277
-1.28441
-1.70187
-1.66741
-1.62892
-1.575
-2.07686
-2.06316
-2.02848
-1.96419
-2.60989
-2.61281
-2.52828
-2.3983
-3.03725
-3.0089
-2.90329
-2.76383
-3.21835
-3.17091
-3.08278
-2.98289
-3.19549
-3.16135
-3.10064
-3.04974
-3.02371
-3.02911
-3.03674
-3.04065
-2.89915
-2.95368
-2.99401
-3.02166
-2.92135
-3.0138
-3.08041
-3.12087
-3.09623
-3.20284
-3.27687
-3.32141
-3.37764
-3.48796
-3.56084
-3.60475
-3.71193
-3.82204
-3.89496
-3.93591
-4.01329
-4.11933
-4.19254
-4.23056
-4.20325
-4.3015
-4.36872
-4.40353
-4.21968
-4.29135
-4.34013
-4.36481
-4.15749
-4.18873
-4.21179
-4.22407
-4.14164
-4.14709
-4.15181
-4.15356
-4.18402
-4.17768
-4.17367
-4.17079
-4.26145
-4.25079
-4.24378
-4.23956
-4.35793
-4.34664
-4.33923
-4.33493
-4.46557
-4.45543
-4.44884
-4.44515
-4.58166
-4.57391
-4.56899
-4.56635
-4.70608
-4.70091
-4.69809
-4.69637
-4.83755
-4.83441
-4.83249
-4.8315
-4.97295
-4.97092
-4.96962
-4.96891
-5.11004
-5.10862
-5.10768
-5.10711
-5.24752
-5.24655
-5.24587
-5.24543
-5.385
-5.38439
-5.38395
-5.38366
-5.52241
-5.52211
-5.52189
-5.52174
-5.66009
-5.66002
-5.65997
-5.65994
101.613
92.2236
80.9141
63.5684
52.9746
50.2312
50.3665
47.9171
46.0408
52.0408
56.7298
67.5879
88.1235
116.746
149.408
182.062
205.945
221.291
231.807
20.8772
17.7886
13.4699
7.94296
6.55184
6.27838
6.42719
5.35473
3.07443
4.73802
5.812
7.21658
15.0939
32.4899
53.2202
76.0213
99.9988
116.827
126.492
3.12179
3.49369
3.55429
2.35784
0.832358
-0.0268738
0.0871066
0.952776
1.45138
1.47705
1.30645
1.16976
1.12946
1.83382
4.98797
12.39
26.7715
41.3631
48.0105
2.16414
2.37825
1.92116
0.682012
-0.205071
-0.403139
0.0150341
0.605382
1.02893
1.0418
0.930894
0.819644
0.733234
0.696823
0.814527
0.913373
1.07614
1.86052
4.03629
1.23959
1.33861
0.706022
-0.336895
-0.888742
-0.725966
-0.254096
0.224636
0.549057
0.610534
0.585128
0.514941
0.421408
0.358729
0.42122
0.427491
0.227606
-0.0460795
0.10901
0.408364
0.426872
-0.15212
-0.835816
-1.07678
-0.913755
-0.476746
-0.098476
0.162948
0.265671
0.29385
0.258949
0.159445
0.0859435
0.0846815
-0.0463738
-0.248575
-0.333735
-0.149627
0.0422147
-0.12518
-0.607062
-0.901085
-0.980793
-0.900716
-0.61506
-0.337309
-0.142937
-0.0422687
0.0181354
0.0143178
-0.0368218
-0.0929918
-0.12309
-0.325099
-0.533635
-0.576929
-0.377777
-0.196838
-0.381431
-0.664882
-0.8781
-0.944891
-0.878916
-0.709194
-0.538305
-0.424732
-0.345756
-0.279776
-0.248106
-0.250486
-0.272989
-0.318821
-0.504006
-0.687942
-0.665408
-0.498865
-0.418752
-0.493434
-0.583973
-0.835377
-0.932523
-0.901908
-0.819557
-0.735434
-0.681794
-0.623406
-0.570469
-0.500857
-0.476792
-0.454733
-0.50663
-0.619775
-0.681084
-0.622003
-0.560119
-0.662918
-0.630259
-0.631603
-0.815588
-0.969872
-0.974727
-0.951978
-0.919076
-0.90083
-0.859319
-0.798785
-0.733908
-0.695375
-0.651763
-0.682204
-0.757466
-0.760027
-0.675075
-0.664511
-0.930643
-0.828657
-0.804768
-0.976385
-1.082
-1.09294
-1.09542
-1.08375
-1.07587
-1.06268
-1.00008
-0.935773
-0.895758
-0.862503
-0.874565
-0.921212
-0.933175
-0.863143
-0.835607
-1.18759
-1.05718
-1.07586
-1.19759
-1.23629
-1.23683
-1.2393
-1.23484
-1.23006
-1.22755
-1.17745
-1.11958
-1.08598
-1.07532
-1.09212
-1.16207
-1.18781
-1.12754
-1.06521
-1.4792
-1.33546
-1.4074
-1.4281
-1.40145
-1.38567
-1.37983
-1.37392
-1.3787
-1.37506
-1.34317
-1.31316
-1.29532
-1.2977
-1.33546
-1.44539
-1.51638
-1.486
-1.37089
-1.82545
-1.68068
-1.70897
-1.62326
-1.56176
-1.52582
-1.51165
-1.5074
-1.5146
-1.51311
-1.51055
-1.51908
-1.53249
-1.55151
-1.59226
-1.71039
-1.82365
-1.8671
-1.68951
-2.16252
-2.06609
-1.95002
-1.80147
-1.7099
-1.65665
-1.63878
-1.64234
-1.64809
-1.64945
-1.67129
-1.71955
-1.77373
-1.81528
-1.84686
-1.90745
-1.97797
-1.99291
-1.88504
-2.50638
-2.4084
-2.15018
-1.95915
-1.84851
-1.79439
-1.78369
-1.78846
-1.7935
-1.78615
-1.83328
-1.92559
-2.01549
-2.07282
-2.08744
-2.07804
-2.04715
-1.99401
-1.96254
-2.80746
-2.62675
-2.2895
-2.09623
-1.99499
-1.95305
-1.95609
-1.95271
-1.94612
-1.93792
-2.03787
-2.20457
-2.30594
-2.34486
-2.32837
-2.26638
-2.15707
-2.07413
-2.02727
-2.95981
-2.70722
-2.39305
-2.23792
-2.16877
-2.14347
-2.14618
-2.13121
-2.1069
-2.13887
-2.33215
-2.57165
-2.65034
-2.62551
-2.5653
-2.46636
-2.31509
-2.20996
-2.15054
-2.98573
-2.73947
-2.52034
-2.41625
-2.36868
-2.35611
-2.35261
-2.33102
-2.29955
-2.38953
-2.65628
-2.90986
-2.93634
-2.8594
-2.77339
-2.65394
-2.48032
-2.36046
-2.31716
-3.00029
-2.83744
-2.69861
-2.62097
-2.5809
-2.5689
-2.56893
-2.56308
-2.55103
-2.64385
-2.93074
-3.12138
-3.09693
-3.02065
-2.93778
-2.81377
-2.63455
-2.49551
-2.48292
-3.12414
-3.01509
-2.90744
-2.83375
-2.78927
-2.77382
-2.7825
-2.80771
-2.82208
-2.88169
-3.115
-3.22755
-3.19323
-3.13478
-3.05974
-2.9487
-2.78363
-2.63249
-2.64169
-3.33982
-3.25075
-3.13861
-3.05478
-2.99814
-2.97116
-2.97582
-3.00932
-3.03869
-3.0672
-3.2196
-3.27812
-3.25438
-3.20975
-3.15287
-3.0761
-2.95376
-2.81446
-2.84388
-3.63094
-3.54264
-3.40278
-3.28086
-3.19983
-3.15657
-3.14756
-3.16369
-3.18721
-3.19759
-3.27172
-3.30274
-3.29411
-3.26273
-3.22905
-3.20587
-3.16556
-3.0775
-3.09044
-3.95342
-3.84734
-3.6746
-3.50326
-3.39004
-3.32972
-3.30521
-3.29814
-3.29791
-3.29679
-3.31665
-3.33531
-3.32908
-3.30932
-3.29885
-3.33667
-3.41037
-3.41283
-3.35789
-4.23311
-4.09246
-3.88701
-3.68977
-3.55573
-3.48564
-3.45046
-3.42954
-3.41103
-3.39596
-3.39029
-3.39732
-3.38412
-3.37008
-3.37222
-3.45149
-3.60897
-3.7247
-3.59042
-4.39969
-4.24871
-4.01433
-3.81662
-3.6898
-3.62126
-3.58345
-3.55726
-3.53263
-3.51019
-3.49443
-3.48476
-3.45951
-3.44718
-3.45294
-3.53986
-3.69493
-3.79176
-3.69313
-4.35909
-4.22932
-4.04978
-3.89408
-3.79709
-3.74241
-3.70853
-3.68247
-3.6583
-3.63389
-3.61854
-3.59381
-3.56006
-3.52939
-3.54374
-3.61557
-3.72307
-3.79573
-3.73453
-4.22315
-4.1517
-4.05018
-3.95861
-3.89667
-3.85763
-3.83009
-3.80701
-3.7854
-3.76445
-3.74652
-3.72648
-3.68676
-3.63902
-3.64455
-3.69716
-3.75901
-3.804
-3.75962
-4.15196
-4.12607
-4.08078
-4.03436
-3.99837
-3.97209
-3.951
-3.93197
-3.91362
-3.89568
-3.87825
-3.86186
-3.84113
-3.7917
-3.75296
-3.80354
-3.82939
-3.84601
-3.81184
-4.16771
-4.16052
-4.14489
-4.12451
-4.10475
-4.08801
-4.0729
-4.05817
-4.04312
-4.02749
-4.01065
-3.99304
-3.98198
-3.9615
-3.90352
-3.9191
-3.92694
-3.925
-3.89583
-4.23636
-4.23623
-4.23307
-4.22573
-4.2163
-4.20672
-4.19687
-4.18634
-4.17445
-4.16077
-4.14233
-4.12114
-4.10806
-4.1079
-4.06888
-4.01727
-4.04704
-4.02494
-4.00786
-4.33199
-4.33492
-4.3372
-4.33627
-4.3332
-4.32894
-4.32364
-4.31715
-4.30859
-4.29796
-4.27692
-4.24801
-4.22932
-4.22402
-4.20729
-4.1642
-4.18449
-4.13656
-4.1436
-4.44305
-4.44761
-4.45208
-4.45449
-4.45526
-4.45479
-4.45335
-4.45102
-4.44708
-4.44414
-4.42172
-4.39551
-4.37596
-4.36523
-4.33483
-4.37191
-4.34212
-4.30802
-4.33811
-4.5654
-4.57026
-4.57518
-4.57902
-4.58179
-4.58374
-4.58543
-4.58713
-4.58923
-4.59461
-4.58335
-4.57631
-4.56376
-4.53847
-4.48665
-4.55474
-4.53628
-4.53909
-4.55334
-4.69603
-4.69997
-4.70434
-4.70828
-4.7117
-4.7149
-4.71867
-4.72329
-4.73131
-4.74283
-4.75828
-4.78648
-4.79704
-4.7495
-4.67736
-4.73223
-4.73669
-4.72056
-4.72044
-4.83133
-4.83404
-4.83741
-4.84074
-4.84393
-4.84732
-4.85184
-4.85792
-4.86987
-4.88698
-4.93459
-5.01286
-5.06212
-4.98109
-4.90477
-4.93218
-4.91517
-4.86729
-4.8695
-4.96867
-4.97037
-4.97271
-4.97518
-4.97765
-4.98043
-4.98442
-4.99031
-5.0028
-5.02635
-5.0964
-5.21845
-5.29691
-5.18218
-5.12151
-5.12714
-5.09234
-5.04047
-5.02623
-5.10677
-5.10774
-5.10923
-5.11084
-5.1124
-5.11413
-5.11673
-5.1208
-5.13088
-5.158
-5.23501
-5.38575
-5.43539
-5.33851
-5.29019
-5.28771
-5.26718
-5.22115
-5.18819
-5.24508
-5.24558
-5.24643
-5.24732
-5.24804
-5.24863
-5.24966
-5.2515
-5.25744
-5.28456
-5.37038
-5.49257
-5.50978
-5.44702
-5.42172
-5.42091
-5.41518
-5.37329
-5.33678
-5.38338
-5.38362
-5.38404
-5.38442
-5.38454
-5.38426
-5.38389
-5.38311
-5.38389
-5.41369
-5.49234
-5.57004
-5.57101
-5.53793
-5.53089
-5.52914
-5.52272
-5.4969
-5.46599
-5.5216
-5.52172
-5.5219
-5.52203
-5.52193
-5.52148
-5.52085
-5.52038
-5.52553
-5.5468
-5.5903
-5.62995
-5.63556
-5.629
-5.64012
-5.63906
-5.60588
-5.60299
-5.58527
-5.6599
-5.65991
-5.65991
-5.65986
-5.65968
-5.65925
-5.65867
-5.65886
-5.66324
-5.67079
-5.6738
-5.68856
-5.71883
-5.73561
-5.77694
-5.79802
-5.71039
-5.70701
-5.69659
)
;

boundaryField
{
    leftWall
    {
        type            calculated;
        value           nonuniform List<scalar> 
50
(
935.725
877.215
822.88
771.62
721.349
672.035
622.774
572.153
491.976
389.459
295.612
202.428
131.091
77.3417
40.1931
44.9205
-0.665834
-0.780401
-0.751981
-0.782442
-0.832661
-0.900323
-1.02643
-1.21842
-1.46985
-1.89219
-2.42921
-2.84665
-3.06116
-3.17499
-3.23981
-3.27903
-3.33482
-3.43201
-3.61024
-3.85514
-4.08838
-4.2657
-4.39274
-4.49205
-4.6041
-4.74792
-4.90757
-5.07982
-5.23045
-5.34257
-5.43967
-5.53954
-5.64224
-5.74341
)
;
    }
    rightWall
    {
        type            calculated;
        value           nonuniform List<scalar> 
50
(
667.795
610.247
557.379
508.747
461.358
414.07
364.557
312.704
231.807
126.492
48.0105
4.03629
0.10901
-0.149627
-0.377777
-0.498865
-0.560119
-0.664511
-0.835607
-1.06521
-1.37089
-1.68951
-1.88504
-1.96254
-2.02727
-2.15054
-2.31716
-2.48292
-2.64169
-2.84388
-3.09044
-3.35789
-3.59042
-3.69313
-3.73453
-3.75962
-3.81184
-3.89583
-4.00786
-4.1436
-4.33811
-4.55334
-4.72044
-4.8695
-5.02623
-5.18819
-5.33678
-5.46599
-5.58527
-5.69659
)
;
    }
    lowerWall
    {
        type            calculated;
        value           nonuniform List<scalar> 
62
(
965.065
961.734
960.621
951.425
937.119
922.768
908.071
891.607
876.181
861.48
844.973
826.625
808.828
792.62
778.112
764.837
754.002
745.496
738.406
732.655
727.503
724.479
726.345
696.922
637.6
578.943
521.106
462.957
402.658
339.881
275.67
202.19
196.275
190.578
181.435
562.26
504.965
448.851
394.639
341.265
287.506
233.366
177.234
590.179
582.859
586.655
574.616
563.458
581.616
595.482
596.553
597.735
598.636
594.321
595.483
612.335
637.953
660.083
675.08
679.079
683.432
696.29
)
;
    }
    atmosphere
    {
        type            calculated;
        value           nonuniform List<scalar> 
46
(
-5.79229
-5.79907
-5.79632
-5.7965
-5.80645
-5.74995
-5.77606
-5.77823
-5.76573
-5.75695
-5.74882
-5.74255
-5.73752
-5.73369
-5.73102
-5.72941
-5.72904
-5.72904
-5.72904
-5.72904
-5.72904
-5.72904
-5.72904
-5.72904
-5.72904
-5.72904
-5.72904
-5.72904
-5.72904
-5.72904
-5.72904
-5.72904
-5.72904
-5.72904
-5.72904
-5.72904
-5.72904
-5.73064
-5.74256
-5.78229
-5.7761
-5.85665
-5.93489
-5.73119
-5.74629
-5.74598
)
;
    }
    defaultFaces
    {
        type            empty;
    }
}


// ************************************************************************* //
