/*--------------------------------*- C++ -*----------------------------------*\
| =========                 |                                                 |
| \\      /  F ield         | OpenFOAM: The Open Source CFD Toolbox           |
|  \\    /   O peration     | Version:  2.3.0                                 |
|   \\  /    A nd           | Web:      www.OpenFOAM.org                      |
|    \\/     M anipulation  |                                                 |
\*---------------------------------------------------------------------------*/
FoamFile
{
    version     2.0;
    format      ascii;
    class       volScalarField;
    location    "2.55";
    object      p_rgh;
}
// * * * * * * * * * * * * * * * * * * * * * * * * * * * * * * * * * * * * * //

dimensions      [1 -1 -2 0 0 0 0];

internalField   nonuniform List<scalar> 
2268
(
965.065
961.734
960.621
951.425
937.119
922.768
908.071
891.607
876.181
861.48
844.973
826.625
808.828
792.62
778.112
764.837
754.002
745.496
738.406
732.655
727.503
724.479
726.345
963.136
961.019
962.067
953.239
938.051
922.577
907.174
890.311
875.063
860.324
844.078
826.638
808.475
792.097
777.435
764.309
753.412
745.055
737.863
731.988
726.71
723.317
725.871
954.57
957.603
963.613
954.995
940.564
923.486
905.972
889.025
871.51
851.188
838.788
825.231
808.67
791.565
776.276
762.393
752.411
743.764
736.332
730.234
725.055
722.627
726.068
955.442
948.903
965.27
957.512
943.23
924.623
905.731
886.194
859.9
845.08
826.325
817.994
806.554
791.327
776.556
763.064
751.285
741.099
732.835
726.973
722.878
722.273
727.082
957.692
950.104
953.277
961.06
946.307
926.167
906.432
883.144
860.241
841.395
821.488
813.465
803.836
789.881
776.727
763.236
749.91
737.349
727.824
722.179
719.574
721.253
727.596
960.898
952.196
943.325
965.83
950.296
928.265
908.304
889.93
879.581
849.286
835.014
818.034
800.632
788.207
776.555
763.407
748.322
730.574
716.686
709.036
705.21
710.676
726.097
984.493
955.025
947.006
965.436
954.365
931.887
911.014
894.698
880.477
860.508
836.303
813.929
797.141
786.212
775.978
763.17
746.368
715.421
701.345
695.819
694.821
698.906
708.765
1010.92
986.608
972.457
959.606
949.379
935.6
914.499
897.927
881.092
858.69
833.028
810.405
794.09
784.369
775.134
762.436
743.906
711.159
699.096
695.428
692.565
693.943
699.227
590.179
582.859
586.655
574.616
563.458
581.616
595.482
596.553
597.735
598.636
594.321
595.483
612.335
637.953
660.083
675.08
679.079
683.432
696.29
587.615
578.189
584.18
570.635
556.413
576.599
592.43
593.52
594.793
595.917
590.368
588.685
606.393
634.854
662.22
676.75
674.787
678.662
694.655
586.601
576.585
582.43
563.889
551.626
573.051
587.56
589.037
591.237
593.041
586.217
582.038
599.19
628.707
658.334
681.323
673.033
672.48
686.821
587.494
583.617
586.816
561.393
548.869
569.65
581.615
583.399
587.518
589.888
581.846
574.805
594.33
623.705
652.833
683.205
677.002
676.923
689.972
597.148
601.442
590.228
563.684
549.663
566.373
575.535
577.86
582.79
586.7
579.555
571.18
592.614
620.79
649.23
681.555
674.388
681.835
694.369
598.254
609.081
594.912
568.622
555.44
564.603
569.822
573.167
578.743
583.469
577.708
560.39
578.105
607.878
644.404
654.118
674.291
686.474
700.579
600.89
611.42
600.431
573.962
561.123
563.393
565.646
570.26
574.115
579.432
576.951
575.929
586.392
584.607
612.36
648.586
677.215
717.398
739.184
613.845
607.609
596.011
579.263
562.187
552.564
558.454
564.721
568.077
574.459
575.028
584.482
603.569
616.983
617.01
652.56
713.496
735.782
747.237
1022.49
1009.52
997.897
971.335
951.314
929.086
920.955
904.494
882.75
857.161
828.565
804.945
789.333
779.665
772.066
760.559
739.628
721.577
707.41
698.099
697.001
704.071
701.006
1044.48
1031.09
1010.77
1000.35
980.175
957.99
933.748
912.344
891.127
855.626
817.424
775.34
757.123
754.887
754.192
725.826
666.794
594.551
558.223
563.321
619.063
653.174
653.631
1075.13
1058.43
1036.57
1016.45
991.457
967.657
946.139
923.114
890.286
638.507
363.443
239.596
241.84
282.766
321.581
341.442
257.474
164.631
82.264
49.7009
60.3893
80.09
71.4626
1106.45
1086.51
1064.22
1035.04
1007.3
978.523
915.003
704.101
434.647
118.438
5.70541
1.39794
1.22579
1.11764
1.08146
2.4115
19.6825
22.133
2.58393
2.3785
2.40433
2.81031
3.41341
1159.48
1132.75
1039.86
620.5
320.863
204.803
172.61
128.547
44.7282
2.57491
1.21657
1.16058
1.06721
1.1719
1.23698
1.06699
0.676717
0.895628
1.62846
1.8275
2.88758
3.33703
3.80038
1230.16
1047.8
337.686
62.6404
1.90383
1.18923
1.11079
1.03442
0.751875
0.718617
0.895358
0.896229
0.87415
1.53105
1.64077
1.51454
1.4981
1.58212
1.72268
2.35956
3.13852
2.76082
3.82719
1315.98
842.571
46.906
1.51322
1.90692
1.5758
1.7614
0.819555
0.649193
0.670094
0.745408
0.679352
0.611854
0.53528
0.463899
0.554199
2.39023
3.04907
3.08651
2.8484
1.85154
0.782939
1.02895
1032.61
500.137
26.4125
1.96221
2.01765
2.38883
1.81893
0.717337
0.630267
0.582696
0.566043
0.445
0.365945
0.313357
0.281296
0.32098
0.454286
0.722301
1.2126
0.936646
0.675085
0.777759
0.994537
1.17345
0.542316
13.6563
6.16945
2.24009
2.45469
1.69444
0.809618
0.656389
0.487668
0.328463
0.188501
0.0811666
0.024797
0.028663
0.12042
0.305886
0.534042
0.690093
0.711993
0.695435
0.8906
1.84023
1.20884
0.987195
3.95535
4.92766
2.36326
2.14847
1.21609
0.86365
0.664815
0.420507
0.183516
-0.0231801
-0.167157
-0.249209
-0.234008
-0.128001
0.0676172
0.310984
0.51767
0.625872
0.65007
0.915495
1.83317
1.38732
1.33525
1.58495
2.8641
3.02456
1.94871
1.04766
0.922242
0.692211
0.393915
0.0933826
-0.159684
-0.328909
-0.424603
-0.444335
-0.347475
-0.162268
0.0879605
0.357752
0.643867
0.679533
0.650603
0.656904
1.5072
1.47995
2.02157
2.15297
1.97357
1.41114
1.1198
0.986036
0.743489
0.41433
0.0669221
-0.21427
-0.42919
-0.541634
-0.559743
-0.495744
-0.327165
-0.0926847
0.287865
0.512511
0.594407
0.541254
0.550856
1.60562
1.61336
1.60023
1.89175
2.06708
1.70517
1.14799
1.02505
0.799288
0.4711
0.102648
-0.202894
-0.438594
-0.565295
-0.586105
-0.53958
-0.392378
-0.180813
0.185495
0.405189
0.474358
0.385319
0.399368
1.68923
1.7059
1.70436
1.69851
2.12112
2.16356
1.40689
1.01638
0.817138
0.520748
0.16951
-0.142447
-0.352962
-0.473856
-0.505089
-0.457443
-0.330706
-0.153343
0.168526
0.34148
0.230373
0.206613
0.254779
2.46052
3.2437
3.734
3.20294
2.80575
3.17277
2.90601
1.50702
0.783857
0.524517
0.22297
-0.0356838
-0.199452
-0.297722
-0.30287
-0.241616
-0.140007
0.000809288
0.356796
0.28274
0.144568
0.0197537
2.35761
5.9327
6.32194
6.14036
5.93979
5.71811
5.55028
5.4863
5.42203
4.64638
1.45029
0.168159
0.0273048
-0.0304358
-0.027291
0.0139524
0.0737787
0.152327
0.393118
0.545219
0.307507
0.165511
0.147007
3.35628
6.62795
6.29809
5.28087
3.64894
1.35459
0.800744
2.21273
4.97257
4.84972
4.75793
3.52871
0.299224
0.133276
0.255674
0.355446
0.430767
0.497795
0.832433
0.80799
0.471097
0.284212
3.48256
3.45403
6.60529
3.56162
0.105339
0.0927357
0.263759
0.296205
0.25477
1.09639
4.67421
4.60899
4.69762
3.00884
0.423392
0.526814
0.672938
0.76659
0.893226
1.1973
1.05498
0.701519
0.614087
4.22882
3.79435
6.39976
0.202633
0.00283921
0.0129198
0.0947894
0.33462
0.119894
-0.0205119
2.74528
4.39497
4.49931
5.0775
2.03281
0.759478
0.927411
1.02404
1.38129
1.45232
1.1439
0.946168
1.24817
4.43647
3.19592
2.8343
0.36459
-0.0385212
-0.0720396
0.512308
2.74146
0.573665
-0.240686
2.208
4.16548
4.38839
5.22226
3.88505
0.979336
1.13936
1.36327
1.63749
1.58421
1.15587
1.07446
1.6197
1.7506
0.488196
1.61836
-0.0602151
-0.0832746
-0.133434
1.96932
3.01879
2.68036
0.0133552
1.5435
4.13436
4.61216
5.47673
1.80831
1.20037
1.37691
1.6831
1.63087
1.32196
1.14998
1.11605
1.01919
0.621077
0.322477
1.68693
-0.0434996
-0.0824642
-0.120228
2.47497
3.10082
2.93632
2.64781
-0.00150205
2.96436
3.82374
1.26307
1.43523
2.4258
2.53041
1.72801
1.10492
1.1012
1.09885
1.05007
0.880847
0.594502
0.30311
0.168995
0.0294935
-0.0255569
-0.10846
0.921197
3.26177
3.12714
2.45946
-0.282494
-0.428403
0.124057
0.699083
1.25854
1.32944
1.22552
1.13174
1.08259
1.03109
1.01057
0.965588
0.808004
0.506026
0.200538
0.159249
0.11416
0.064613
-0.0143245
0.0965188
1.89001
1.83224
-0.408788
-0.423809
-0.395809
0.106607
2.5594
4.34994
4.73485
3.9193
2.50496
1.05373
0.910932
0.866231
0.801565
0.920565
0.731053
0.843231
0.238939
0.183703
0.148485
0.0999594
0.0275919
-0.0811625
-0.222353
-0.393101
-0.561198
0.984199
3.23232
3.60529
4.23512
4.81922
5.18788
5.30911
2.19337
0.697405
0.636564
0.572379
0.694526
1.28869
0.943293
0.992571
0.377623
0.219837
0.207681
0.168696
0.0890312
-0.0598807
-0.303752
-0.602427
0.171096
1.66254
1.36406
0.779025
2.09864
4.83557
5.04717
5.06396
0.780633
0.325464
0.300391
0.228915
0.814249
0.904129
1.77162
1.45653
2.63843
2.50597
0.245268
0.170502
0.00820741
-0.264128
-0.559997
-0.748777
-0.873655
-0.752574
-0.532096
-0.296079
1.00978
4.70866
4.6818
2.3041
-0.0106975
0.0456827
0.0322951
-0.0425444
0.21185
1.74064
3.04646
4.67445
4.79453
0.990252
0.182391
0.0117639
-0.251159
-0.522893
-0.70281
-0.745811
-0.675519
-0.348536
-0.22154
-0.362107
2.84885
4.39154
2.48234
-0.255192
-0.125342
-0.0679216
-0.0909973
-0.159356
1.25789
2.8953
4.70808
4.79046
4.33462
1.32323
-0.0343938
-0.246281
-0.445524
-0.567292
-0.599142
-0.556897
0.947386
0.895251
-0.433273
-0.34202
1.53208
0.542749
-0.318603
-0.192147
-0.103753
-0.0689145
-0.0791949
1.24629
2.85115
2.17972
1.13137
5.01179
5.00629
1.48691
-0.27938
-0.373956
-0.423458
-0.436344
-0.202964
1.17742
0.77236
-0.381115
-0.472677
-0.532584
-0.473954
-0.307199
-0.172877
-0.084733
-0.0283312
-0.0205906
1.47403
1.3581
-0.0323675
-0.0578476
0.824426
5.12489
5.02983
0.431923
-0.298137
-0.266333
-0.251485
1.15037
1.39448
-0.0221808
-0.27632
-0.33966
-0.356109
-0.317733
-0.241313
-0.139441
-0.0622352
0.00169803
0.0181942
1.91908
0.151394
-0.0113201
-0.0927815
-0.164382
5.26241
5.33107
3.23913
-0.189052
-0.122213
-0.0499108
1.69363
1.54551
-0.0878126
-0.187231
-0.19451
-0.207399
-0.210974
-0.180302
-0.128201
-0.0382882
0.0157962
0.0380001
1.88102
0.0610352
0.0213902
-0.0550934
-0.157419
2.50608
5.42123
2.7384
-0.124002
-0.0189404
1.90279
1.84564
0.19124
-0.0935238
-0.130229
-0.117888
-0.125334
-0.116257
-0.0926969
-0.0793667
-0.031132
0.0239436
0.0568764
-0.0174036
0.035589
0.515416
2.00589
0.222507
0.0737364
0.105005
0.190333
-0.023291
1.48937
2.43322
1.68319
-0.0593202
-0.0779667
-0.0971649
-0.107801
-0.0925433
-0.0549677
-0.0323228
-0.00177058
-2.40427e-05
0.0416529
0.0903133
-0.112954
0.046616
3.86207
4.66385
3.41309
0.204406
0.205461
0.413404
1.80038
2.49228
2.46793
-0.0848101
-0.071339
-0.0729138
-0.0737639
-0.0714736
-0.0640614
-0.0487977
-0.02211
0.0037038
0.0279417
0.0562468
0.0950214
-0.163335
0.207337
4.71588
4.72704
4.79995
2.05392
0.50396
2.1873
2.21122
2.10479
0.117475
-0.0869074
-0.0716049
-0.0635277
-0.0561881
-0.0473936
-0.0359089
-0.0212811
-0.00348043
0.0164995
0.0374344
0.0569039
0.0728742
-0.188737
-0.201934
2.17864
4.84847
4.47837
2.85044
1.22637
0.758578
0.893584
-0.121054
-0.0952322
-0.0745682
-0.0618428
-0.0517445
-0.0417726
-0.0309597
-0.0188355
-0.00517806
0.00995405
0.0256822
0.0407644
0.0536719
0.0631634
-0.175624
-0.191266
-0.0826975
3.00232
-0.0403485
-0.145058
-0.136748
-0.125585
-0.112092
-0.090952
-0.0735517
-0.0604821
-0.0498562
-0.0401065
-0.0300676
-0.0195399
-0.00847644
0.00306651
0.0149639
0.0266557
0.0373637
0.0462257
0.0526597
-0.148264
-0.152393
-0.173327
-0.17233
-0.117906
-0.108225
-0.102363
-0.0913836
-0.0793002
-0.0677334
-0.0577013
-0.0474448
-0.0381522
-0.0294399
-0.0205218
-0.0114243
-0.00228667
0.00679314
0.0156268
0.0238855
0.0311647
0.0370615
0.041336
-0.123339
-0.124997
-0.131259
-0.125474
-0.101188
-0.0826261
-0.0814743
-0.0746313
-0.0623638
-0.0527284
-0.0442911
-0.0355965
-0.0275947
-0.0201693
-0.0128595
-0.00570271
0.00114268
0.00761202
0.0136181
0.0190047
0.0235915
0.0272179
0.0298264
-0.100991
-0.103715
-0.103478
-0.09914
-0.0915359
-0.0577977
-0.0656416
-0.0617277
-0.0510504
-0.0418741
-0.0332319
-0.0255957
-0.0187618
-0.0126663
-0.00707661
-0.00203291
0.00236732
0.00623146
0.00964444
0.0125911
0.0150236
0.0168958
0.0182166
-0.0769639
-0.081178
-0.0795298
-0.0767711
-0.0802959
-0.0412401
-0.0554489
-0.0513187
-0.0408535
-0.0319378
-0.0239145
-0.0171579
-0.011501
-0.00685181
-0.00311293
-0.000297019
0.00151871
0.00279554
0.00387433
0.00474597
0.0054193
0.00590067
0.00621506
669.973
664.058
658.307
648.877
509.499
430.918
373.278
308.325
48.0802
32.9444
12.8627
4.75484
3.69773
3.82253
3.93986
4.25706
4.08971
4.36196
3.89492
3.88929
4.42533
4.60544
4.6696
2.65389
4.14913
3.99144
1.71566
1.5946
1.12848
1.32248
1.46527
1.46181
1.80321
2.05522
2.27582
1.6649
2.09042
2.18289
2.25027
2.30394
0.962423
2.00003
2.18956
2.25436
0.593351
0.632881
1.49721
1.0162
0.452691
0.524017
0.56836
0.619072
1.01657
1.37234
0.455801
0.366999
3.15147
2.45341
0.042672
0.103082
3.01672
0.201138
-0.203868
-0.0592758
3.1146
-0.187713
-0.19574
2.19781
3.66529
0.0528035
-0.186622
2.00362
0.0847296
0.0359277
1.14328e-05
0.202431
0.0455554
-0.0124772
-0.05976
-0.0959487
0.146478
0.0481321
-0.0229149
-0.0681286
0.247014
0.18562
-0.0933661
-0.137878
1.0466
0.940884
0.384493
0.0177786
0.911976
0.778819
0.687173
0.663048
0.726067
0.620229
0.548794
0.5225
0.712171
0.601425
0.537276
0.503941
0.684095
0.786647
0.736154
0.475774
-0.147196
0.0934458
0.239958
-0.116545
-0.0948096
-0.100476
-0.105879
-0.106393
-0.0155925
-0.0101007
-0.00569769
-0.003024
0.0313943
0.0419675
0.0489332
0.0531264
0.0600965
0.0713365
0.0787525
0.0830803
0.0777088
0.0878591
0.094525
0.112405
0.107754
0.116389
0.123648
0.126922
0.105696
0.110376
0.116849
0.120462
0.0795009
0.0822654
0.0849999
0.0862655
0.0675249
0.0695601
0.0708612
0.0715683
0.0556231
0.0570405
0.0579872
0.058552
0.0433348
0.0443115
0.0449917
0.0454283
0.0310572
0.0316671
0.0321037
0.0323977
0.0188362
0.0191422
0.0193612
0.0195096
0.00635307
0.0064202
0.006468
0.00650195
623.646
602.287
574.835
497.381
373.367
339.333
360.836
378.902
398.552
407.507
410.493
512.056
595.782
639.915
671.514
701.085
731.056
746.41
756.928
211.556
158.895
99.4666
39.1439
44.7832
64.3035
77.0856
48.8671
21.09
42.2588
54.9566
71.3341
160.777
350.505
535.297
659.083
745.897
765.184
774.849
5.1554
5.60813
5.73234
4.56461
2.54538
1.13171
1.04613
1.89542
2.27686
2.28579
2.1148
1.97973
3.55488
16.1833
55.502
156.888
350.778
548.001
614.304
4.97771
5.87004
6.78056
5.29785
2.07739
0.742724
0.997615
1.56317
1.96385
1.97684
1.86794
1.75711
1.67614
1.85533
2.13432
2.47105
4.23508
32.7405
63.3512
7.054
7.23049
6.59588
5.55297
3.06854
0.437084
0.827098
1.29534
1.61281
1.67605
1.65073
1.58104
2.10753
2.96544
3.37068
3.3937
3.15101
1.63477
1.83164
2.85372
6.99662
6.4507
2.68581
0.268002
0.449915
0.725925
1.09764
1.35743
1.46022
1.48836
1.45464
1.35554
1.28201
1.78781
1.83721
1.63835
1.50198
1.67025
1.57227
6.16784
6.41457
1.0783
0.375266
0.499575
0.746131
0.987472
1.18128
1.281
1.54015
1.61615
1.28839
1.23689
1.64491
1.98181
1.51491
1.46783
1.65509
1.48053
3.82175
5.11747
1.93757
0.541219
0.601079
0.833541
0.974999
1.02894
1.23241
1.7302
1.7615
1.53712
1.20765
2.47718
2.86037
2.42657
1.57673
1.74239
1.40953
2.10922
4.31782
3.02552
0.674826
0.701949
0.859728
0.944302
0.937356
1.3602
1.61799
1.68763
1.71146
1.27374
1.56495
3.04336
2.92475
1.81565
1.87907
1.48686
1.56113
3.3958
3.71733
0.885073
0.736841
0.864722
0.830758
0.861334
1.5064
1.56818
1.60776
1.67112
1.70903
1.36289
1.4805
3.1011
3.15606
1.97617
1.15048
1.34263
3.88527
3.89835
0.882961
0.745948
0.771956
0.761413
0.909837
1.47427
1.48485
0.964254
1.04279
1.55853
1.3264
1.27975
2.53185
3.33986
2.00633
0.871919
1.60492
3.89938
3.62539
0.731543
0.730431
0.728531
0.736249
1.2373
1.46737
0.927541
0.872475
0.906083
0.91674
1.329
2.24283
3.32588
3.3802
3.29402
0.715676
2.98791
3.04172
0.969528
0.694718
0.710495
0.716299
0.95527
1.27168
0.889172
0.86805
0.889378
0.832512
0.825685
0.789105
2.06537
3.28673
3.30891
3.40092
0.503645
3.24164
1.46042
0.600549
0.663861
0.699253
0.809668
1.08634
0.91832
0.7911
0.874347
0.892604
0.878697
0.721374
0.674519
0.825741
3.26754
2.68184
3.36072
0.523426
3.14899
0.457873
0.553976
0.645244
0.702269
0.971671
1.01588
0.857874
0.781756
0.763585
0.733273
0.777673
0.732314
0.564292
0.509906
2.2368
0.968002
2.2928
2.75012
3.08826
0.34473
0.530877
0.636213
0.937878
0.969013
0.899805
0.801795
0.764441
0.750622
0.624598
0.5078
0.441986
0.429996
0.681773
0.726069
0.502844
0.747552
2.68454
1.27708
0.342411
0.52822
0.838406
0.922469
0.89504
0.736378
0.620084
0.753108
1.92249
1.57242
0.467487
0.232956
0.303135
0.466078
0.38816
0.47151
1.44547
2.64653
0.0742464
0.377661
0.725154
0.813143
0.805047
0.7285
0.534854
0.559169
2.14074
2.12331
1.87906
0.799644
0.0475035
0.102707
0.200665
0.349439
0.460933
2.06544
0.267862
0.191031
0.537243
0.665205
0.604005
0.512842
0.43921
0.46044
0.977146
2.27548
2.00874
1.65983
0.178163
-0.0704799
0.0147228
0.134524
0.308409
0.428242
2.0833
-0.0731242
0.103166
0.303817
0.329739
0.333752
0.343745
0.345232
0.569376
2.3313
2.23436
1.94384
0.368623
-0.183729
-0.106794
-0.0245561
0.0995312
0.279126
0.418465
0.900639
-0.0774373
0.0275449
0.131262
0.203869
0.248234
0.263661
0.255322
0.772333
2.25104
2.20116
1.96117
0.372416
-0.154814
-0.0963503
-0.021297
0.0897516
0.254924
0.423296
1.67101
-0.16125
0.00158248
0.0578421
0.107919
0.164548
0.191471
0.186795
0.32322
1.68011
2.20973
1.746
0.00486787
-0.0907261
-0.0460951
0.0107894
0.087571
0.210033
0.41448
3.43506
0.156267
0.4646
0.521674
0.00711847
0.0879904
0.131236
0.140246
0.124109
0.100592
1.16996
0.313274
-0.0138476
-0.00521933
0.0261678
0.0598506
0.0831085
0.144877
2.34001
3.43706
0.55423
-0.0852499
-0.0234117
0.144306
0.0305063
0.0837368
0.107794
0.114857
0.117949
0.118733
0.19816
0.0872082
0.0851697
0.108198
0.115471
0.0782593
0.575408
3.31286
3.41222
0.321776
-0.405279
-0.344355
-0.147626
0.00762792
0.0561569
0.0877432
0.108661
0.127185
0.142274
0.557214
1.0178
0.155451
0.187596
0.16788
0.08916
0.53009
1.79479
2.10769
0.504556
0.467126
-0.0937859
-0.150567
-0.0247164
0.0431117
0.0807254
0.106925
0.130799
0.153194
0.853121
1.50914
0.446049
0.218063
0.212317
0.125178
0.368777
-0.0666133
0.0330916
0.569611
0.696631
0.622437
-0.0747753
-0.0073502
0.0472062
0.0813587
0.107422
0.130543
0.15456
0.595209
1.58267
1.62275
0.261078
0.246567
0.174528
0.0906268
-0.00541955
1.7304
-0.175536
0.608806
0.545101
0.00851074
0.018528
0.0573893
0.0850757
0.108116
0.128603
0.149272
0.167629
1.34724
1.96604
1.60008
0.270795
0.218181
0.15632
0.111272
2.47837
-0.108173
0.0347247
0.20659
0.0985968
0.0417797
0.0678551
0.0892356
0.107557
0.125303
0.143239
0.160665
0.17705
1.99464
2.81808
0.912382
0.237033
0.211133
0.194476
2.62736
0.000130615
0.00861323
0.0318293
0.0534368
0.0619426
0.0770781
0.0922381
0.106149
0.120992
0.136614
0.15346
0.171072
0.182143
2.85025
3.4507
0.246915
0.238789
0.240744
2.75123
0.0565619
0.0593505
0.0598888
0.0637556
0.0731797
0.0828069
0.0925469
0.102989
0.114859
0.128537
0.146975
0.168183
0.18196
0.182643
3.51816
0.821722
0.244022
0.266037
3.62874
0.0944473
0.10218
0.083888
0.0782676
0.0813334
0.0856043
0.0909232
0.0973876
0.105914
0.116535
0.13758
0.221799
0.195216
0.192952
1.43493
5.17102
0.237799
0.88578
4.92535
0.124268
0.116807
0.0905242
0.0852262
0.084457
0.0849585
0.0863909
0.0886845
0.0926162
0.0955545
0.205832
1.62234
0.75183
0.178005
1.80581
5.23764
2.47946
5.01813
4.98804
0.127701
0.103131
0.0897551
0.0858809
0.0831285
0.0811744
0.0794683
0.0777589
0.0756605
0.0702813
1.15828
2.08903
1.762
0.163779
2.64328
5.31346
5.33944
4.12008
2.12984
0.103679
0.0901364
0.0857481
0.0818055
0.0783899
0.0751891
0.0714156
0.0667926
0.0587664
0.0472505
1.84052
2.06615
2.0556
0.278234
3.80615
5.40429
4.50833
0.273797
0.0708784
0.0839736
0.0812353
0.0778697
0.0745388
0.0713456
0.06796
0.0634418
0.0573578
0.0454097
0.0282924
1.74508
2.01889
1.96962
0.795297
3.00362
4.59861
0.852922
0.291753
0.0458774
0.0718015
0.0701053
0.0677575
0.0652917
0.0628224
0.0600376
0.0560528
0.0501587
0.0376701
0.0141158
0.840466
1.98173
1.30863
0.232976
0.321411
0.426776
0.487869
0.799494
0.0143379
0.0588996
0.0579255
0.0564301
0.0548246
0.0532643
0.0515371
0.0489323
0.0448602
0.0347873
0.0150539
0.601044
1.94797
-0.207738
-0.127759
-0.0743739
-0.0468743
0.798619
0.204088
-0.0224708
0.0457818
0.0452758
0.044427
0.043537
0.0428196
0.0422254
0.0411943
0.0393635
0.033416
0.0102026
0.791699
1.18773
-0.175127
-0.11311
-0.0846805
-0.0730386
0.808756
-0.0823763
-0.0458671
0.03267
0.0324313
0.0320181
0.0316343
0.0315165
0.0317895
0.032168
0.0329397
0.0321694
0.011959
0.414123
0.697268
-0.11089
-0.0778066
-0.0606737
0.573099
0.847243
-0.0519585
-0.0499281
0.01965
0.0195293
0.0193503
0.0192231
0.0193137
0.0197638
0.0204015
0.0208763
0.015722
-0.00552574
-0.0378628
0.0866597
0.0730067
-0.0426603
0.111504
0.650103
0.468619
-0.0563042
-0.0440185
0.00653862
0.00652881
0.00652777
0.00658026
0.00675974
0.00718811
0.00777232
0.00757926
0.00320925
-0.00434803
-0.00735909
-0.00874729
0.000285986
-0.0226247
0.0157165
0.0720235
-0.043754
-0.0405707
-0.0301473
)
;

boundaryField
{
    leftWall
    {
        type            fixedFluxPressure;
        gradient        uniform 0;
        value           nonuniform List<scalar> 
50
(
965.065
963.136
954.57
955.442
957.692
960.898
984.493
1010.92
1022.49
1044.48
1075.13
1106.45
1159.48
1230.16
1315.98
1032.61
1.17345
1.20884
1.38732
1.5072
1.60562
1.68923
2.46052
5.9327
6.62795
6.60529
6.39976
2.8343
1.61836
1.68693
0.168995
0.159249
0.238939
0.992571
1.77162
1.74064
1.25789
1.24629
1.47403
1.91908
1.88102
-0.0174036
-0.112954
-0.163335
-0.188737
-0.175624
-0.148264
-0.123339
-0.100991
-0.0769639
)
;
    }
    rightWall
    {
        type            fixedFluxPressure;
        gradient        uniform 0;
        value           nonuniform List<scalar> 
50
(
696.29
694.655
686.821
689.972
694.369
700.579
739.184
747.237
756.928
774.849
614.304
63.3512
1.83164
1.67025
1.65509
1.74239
1.87907
1.97617
2.00633
3.29402
3.40092
3.36072
2.2928
0.747552
1.44547
2.06544
2.0833
0.900639
1.67101
3.43506
3.43706
3.41222
2.10769
0.0330916
1.7304
2.47837
2.62736
2.75123
3.62874
4.92535
4.98804
2.12984
0.0708784
0.0458774
0.0143379
-0.0224708
-0.0458671
-0.0499281
-0.0440185
-0.0301473
)
;
    }
    lowerWall
    {
        type            fixedFluxPressure;
        gradient        uniform 0;
        value           nonuniform List<scalar> 
62
(
965.065
961.734
960.621
951.425
937.119
922.768
908.071
891.607
876.181
861.48
844.973
826.625
808.828
792.62
778.112
764.837
754.002
745.496
738.406
732.655
727.503
724.479
726.345
726.345
725.871
726.068
727.082
727.596
726.097
708.765
699.227
669.973
664.058
658.307
648.877
590.179
587.615
586.601
587.494
597.148
598.254
600.89
613.845
590.179
582.859
586.655
574.616
563.458
581.616
595.482
596.553
597.735
598.636
594.321
595.483
612.335
637.953
660.083
675.08
679.079
683.432
696.29
)
;
    }
    atmosphere
    {
        type            totalPressure;
        rho             rho;
        psi             none;
        gamma           1;
        p0              uniform 0;
        value           nonuniform List<scalar> 
46
(
-0.063253
-0.0700251
-0.0672778
-0.0674644
-0.0774096
-0.0209104
-0.0470231
-0.0491868
-0.0366908
-0.027915
-0.0197814
-0.0135116
-0.00847981
-0.00465069
-0.00197757
-0.000373133
0
0
0
0
0
0
0
0
0
0
0
0
0
0
0
0
0
0
0
0
0
-0.00159769
0
0
0
0
0
-0.00214723
-0.017249
-0.0169378
)
;
    }
    defaultFaces
    {
        type            empty;
    }
}


// ************************************************************************* //
