/*--------------------------------*- C++ -*----------------------------------*\
| =========                 |                                                 |
| \\      /  F ield         | OpenFOAM: The Open Source CFD Toolbox           |
|  \\    /   O peration     | Version:  2.3.0                                 |
|   \\  /    A nd           | Web:      www.OpenFOAM.org                      |
|    \\/     M anipulation  |                                                 |
\*---------------------------------------------------------------------------*/
FoamFile
{
    version     2.0;
    format      ascii;
    class       volVectorField;
    location    "2.55";
    object      U;
}
// * * * * * * * * * * * * * * * * * * * * * * * * * * * * * * * * * * * * * //

dimensions      [0 1 -1 0 0 0 0];

internalField   nonuniform List<vector> 
2268
(
(0.0353996 -0.0212382 0)
(0.0677929 -0.00515457 0)
(0.0310428 0.00123446 0)
(0.0369409 -0.00420466 0)
(0.04434 -0.00817668 0)
(0.0350892 0.00495102 0)
(-0.0418936 0.0236609 0)
(-0.109003 0.0149032 0)
(-0.0907373 -0.00679973 0)
(-0.0306712 -0.0172288 0)
(0.0266098 -0.0161001 0)
(0.071502 -0.012885 0)
(0.0931916 -0.00682207 0)
(0.0880395 0.00235574 0)
(0.0550762 0.0103366 0)
(0.0250664 0.00705505 0)
(0.0343781 -0.00316189 0)
(0.0535956 -0.0048964 0)
(0.0610573 0.00106756 0)
(0.0381849 0.00943491 0)
(-0.0118569 0.0103048 0)
(-0.0440038 0.0016167 0)
(-0.0230084 -0.0122863 0)
(0.00265712 -0.035399 0)
(0.0294711 0.0127023 0)
(-0.0364512 0.0101624 0)
(-0.0515262 -0.00256812 0)
(-0.0748516 0.0101521 0)
(-0.102156 0.0349106 0)
(-0.133191 0.0390025 0)
(-0.116573 0.0074119 0)
(-0.0483454 -0.0293095 0)
(0.00920944 -0.0409336 0)
(0.0594341 -0.0339393 0)
(0.08725 -0.0165215 0)
(0.0823365 0.000823311 0)
(0.0636994 0.0148141 0)
(0.0436139 0.0173686 0)
(0.0464112 0.00361118 0)
(0.0722413 -0.0113684 0)
(0.0883492 -0.00743945 0)
(0.0845301 0.00798859 0)
(0.0607616 0.0254442 0)
(0.0164311 0.0276873 0)
(-0.011131 0.00649288 0)
(-0.00580707 -0.0260005 0)
(-0.0146478 -0.0351663 0)
(-0.0111091 0.0267803 0)
(-0.0719503 0.0283309 0)
(-0.0896608 0.0102078 0)
(-0.11675 0.0221694 0)
(-0.134033 0.0386218 0)
(-0.116143 0.0257371 0)
(-0.058409 -0.0203279 0)
(0.00499039 -0.0610165 0)
(0.0728468 -0.0697735 0)
(0.108519 -0.0533264 0)
(0.125992 -0.023307 0)
(0.122085 0.00655716 0)
(0.0979136 0.0216394 0)
(0.084508 0.0175064 0)
(0.0992257 -0.0048216 0)
(0.1234 -0.0225693 0)
(0.139456 -0.0119931 0)
(0.136677 0.0153691 0)
(0.108405 0.0403879 0)
(0.0730155 0.0450791 0)
(0.0422552 0.0179147 0)
(0.0189216 -0.0204943 0)
(-0.025295 -0.0257359 0)
(-0.0230234 0.0429689 0)
(-0.0686009 0.0437142 0)
(-0.0791938 0.0171366 0)
(-0.0925955 0.0275603 0)
(-0.0920217 0.0315605 0)
(-0.0600812 0.00497722 0)
(-0.00990555 -0.0470818 0)
(0.066839 -0.0932093 0)
(0.126512 -0.0941347 0)
(0.143675 -0.0620283 0)
(0.144794 -0.0273046 0)
(0.149226 0.0123681 0)
(0.138127 0.0291429 0)
(0.129994 0.0175126 0)
(0.139899 -0.0114781 0)
(0.157353 -0.0316597 0)
(0.169636 -0.0171714 0)
(0.174695 0.0192705 0)
(0.157846 0.0522856 0)
(0.131218 0.0613174 0)
(0.0941849 0.0397762 0)
(0.0423626 0.00265463 0)
(-0.0311922 -0.0155954 0)
(-0.0187104 0.052384 0)
(-0.0394624 0.054147 0)
(-0.0433745 0.0185775 0)
(-0.0478361 0.027288 0)
(-0.035338 0.0234919 0)
(-0.00706135 -0.0118531 0)
(0.0371549 -0.0746664 0)
(0.117337 -0.126738 0)
(0.154568 -0.108831 0)
(0.149083 -0.0625054 0)
(0.141976 -0.0257613 0)
(0.147144 0.0120481 0)
(0.152023 0.0303022 0)
(0.154087 0.0178977 0)
(0.160643 -0.0151582 0)
(0.171799 -0.0378891 0)
(0.17922 -0.0199883 0)
(0.183277 0.0206391 0)
(0.181227 0.0588951 0)
(0.170132 0.0752262 0)
(0.133286 0.0669091 0)
(0.0607577 0.0401309 0)
(-0.0360541 -0.00670735 0)
(-0.0144774 0.0511374 0)
(-0.0045503 0.0569379 0)
(-0.000378688 0.0192806 0)
(-0.00674072 0.0238425 0)
(0.0114672 0.0138668 0)
(0.0351674 -0.0268832 0)
(0.091433 -0.101512 0)
(0.147496 -0.150362 0)
(0.151405 -0.111095 0)
(0.125855 -0.0573382 0)
(0.118031 -0.0221369 0)
(0.120804 0.00991687 0)
(0.131391 0.024939 0)
(0.144151 0.013164 0)
(0.157175 -0.0190969 0)
(0.165093 -0.0428988 0)
(0.169071 -0.0211096 0)
(0.171717 0.0188452 0)
(0.180026 0.0575074 0)
(0.183854 0.08363 0)
(0.153977 0.0954676 0)
(0.0712676 0.0873646 0)
(-0.0444843 0.00646709 0)
(-0.0229057 0.042658 0)
(0.0140783 0.0465605 0)
(0.0394233 0.0200821 0)
(0.0285194 0.0207092 0)
(0.0447086 0.00284432 0)
(0.0774001 -0.0490063 0)
(0.148613 -0.127017 0)
(0.16274 -0.155427 0)
(0.119099 -0.099023 0)
(0.0844821 -0.0464808 0)
(0.0750176 -0.0184091 0)
(0.0774895 0.00807956 0)
(0.0898851 0.0170632 0)
(0.109383 0.00378492 0)
(0.13086 -0.0274085 0)
(0.124889 -0.0479582 0)
(0.122384 -0.0217651 0)
(0.123921 0.0127509 0)
(0.138433 0.0486412 0)
(0.153879 0.0841271 0)
(0.140507 0.117977 0)
(0.068628 0.133556 0)
(-0.0526982 0.0222451 0)
(-0.044933 0.0325408 0)
(0.000136231 0.0228276 0)
(0.059301 0.0165998 0)
(0.073325 0.0214674 0)
(0.0878128 -0.00962995 0)
(0.134159 -0.0751144 0)
(0.188267 -0.141453 0)
(0.155562 -0.142224 0)
(0.0713434 -0.0759557 0)
(0.029538 -0.0332568 0)
(0.0116304 -0.0142646 0)
(0.0168357 0.00549096 0)
(0.0384795 0.0118396 0)
(0.0640715 -0.00594849 0)
(0.0752082 -0.0326244 0)
(0.0435325 -0.039916 0)
(0.0320953 -0.0140705 0)
(0.0298136 0.0111576 0)
(0.0465863 0.0449853 0)
(0.0761695 0.0880779 0)
(0.0899518 0.142412 0)
(0.0432348 0.182571 0)
(0.0469926 -0.0243107 0)
(0.11589 0.00227864 0)
(0.0735943 0.0195743 0)
(-0.131486 0.033685 0)
(-0.226077 0.0125378 0)
(-0.148239 -0.0252229 0)
(-0.0401578 -0.0309295 0)
(0.0600349 -0.0259803 0)
(0.145642 -0.0240442 0)
(0.233419 -0.0247533 0)
(0.319075 -0.0168185 0)
(0.369336 0.00637747 0)
(0.314207 0.029015 0)
(0.179655 0.0334784 0)
(0.0653645 0.016228 0)
(-0.00175472 0.0106316 0)
(-0.0849581 0.013803 0)
(-0.125867 0.000983681 0)
(-0.0474305 -0.0277029 0)
(0.0158289 -0.0600133 0)
(0.0915397 0.001416 0)
(0.0388663 0.069484 0)
(-0.191264 0.0828202 0)
(-0.161964 0.0107314 0)
(-0.0405871 -0.0725498 0)
(0.0387206 -0.0703455 0)
(0.106545 -0.0566857 0)
(0.159463 -0.0547565 0)
(0.220711 -0.0598614 0)
(0.287844 -0.0425396 0)
(0.343362 -0.000933856 0)
(0.379571 0.0440764 0)
(0.341078 0.0718812 0)
(0.248774 0.0659455 0)
(0.111619 0.0549446 0)
(-0.0387119 0.0420341 0)
(-0.0795988 -0.00650373 0)
(-0.0107791 -0.0612923 0)
(-0.0145522 -0.0746491 0)
(0.0332788 0.00703143 0)
(-0.0162721 0.117568 0)
(-0.158205 0.10583 0)
(-0.022942 -0.0208806 0)
(0.0742871 -0.109607 0)
(0.121154 -0.0982188 0)
(0.143245 -0.0699183 0)
(0.155579 -0.0680575 0)
(0.177414 -0.0844627 0)
(0.234065 -0.0655164 0)
(0.277285 -0.0175361 0)
(0.300188 0.0339391 0)
(0.315535 0.0815065 0)
(0.292995 0.103889 0)
(0.18552 0.107622 0)
(0.0471147 0.0858946 0)
(0.0127234 0.00303396 0)
(0.0239442 -0.0657506 0)
(-0.0344407 -0.0651397 0)
(-0.0267803 0.0167322 0)
(-0.049653 0.144192 0)
(-0.0949141 0.0980489 0)
(0.0995708 -0.0792267 0)
(0.160433 -0.137329 0)
(0.160233 -0.105744 0)
(0.140584 -0.0643487 0)
(0.126448 -0.0650315 0)
(0.11291 -0.0991671 0)
(0.156782 -0.0845322 0)
(0.20669 -0.0234094 0)
(0.216652 0.0275679 0)
(0.233861 0.0778284 0)
(0.25445 0.12319 0)
(0.193667 0.148394 0)
(0.0938332 0.121567 0)
(0.0741752 0.0184651 0)
(0.0515843 -0.0466318 0)
(-0.0382111 -0.0487613 0)
(-0.0546598 0.0243757 0)
(-0.0435742 0.1406 0)
(0.00365293 0.0568674 0)
(0.177657 -0.114756 0)
(0.19282 -0.147503 0)
(0.147786 -0.0951585 0)
(0.106712 -0.0486655 0)
(0.0914277 -0.0554537 0)
(0.0521986 -0.10506 0)
(0.0682394 -0.101813 0)
(0.126893 -0.0332292 0)
(0.139354 0.0192443 0)
(0.153196 0.0684389 0)
(0.187874 0.128238 0)
(0.154552 0.173633 0)
(0.0960507 0.137693 0)
(0.0965884 0.0326355 0)
(0.0611483 -0.0203076 0)
(-0.0135729 -0.0302343 0)
(-0.047136 0.0204716 0)
(-0.0124529 0.111377 0)
(0.138653 0.00060663 0)
(0.229399 -0.131483 0)
(0.170441 -0.131349 0)
(0.0969192 -0.0703812 0)
(0.0702472 -0.0337398 0)
(0.0726122 -0.0440243 0)
(0.0197095 -0.0948811 0)
(-0.0185152 -0.112381 0)
(0.0397893 -0.0421346 0)
(0.0583427 0.00807781 0)
(0.0768019 0.0590693 0)
(0.109601 0.12906 0)
(0.0891238 0.185853 0)
(0.0764304 0.136211 0)
(0.0967352 0.0420095 0)
(0.0607918 0.00975741 0)
(0.0393686 -0.0194035 0)
(-0.000939171 0.0193038 0)
(0.0483998 0.0599708 0)
(0.207348 -0.0457958 0)
(0.220731 -0.119972 0)
(0.109089 -0.0950845 0)
(0.0420717 -0.051028 0)
(0.0541683 -0.0321456 0)
(0.0733726 -0.0323791 0)
(0.0191178 -0.0686684 0)
(-0.0705964 -0.104121 0)
(-0.0474176 -0.0558255 0)
(-0.0142443 -1.57503e-05 0)
(0.0030257 0.0511243 0)
(0.0309732 0.128663 0)
(0.0298305 0.185031 0)
(0.0670113 0.122961 0)
(0.0961291 0.0497931 0)
(0.0575681 0.040464 0)
(0.0701009 -0.0574311 0)
(0.0708088 0.000998758 0)
(0.157162 0.00644062 0)
(0.224846 -0.061352 0)
(0.185086 -0.0871303 0)
(0.0617857 -0.0605359 0)
(0.0150946 -0.05665 0)
(0.0386169 -0.0517109 0)
(0.0720238 -0.0302786 0)
(0.0357049 -0.0385472 0)
(-0.0704011 -0.0784506 0)
(-0.108104 -0.0668661 0)
(-0.072205 -0.0184196 0)
(-0.0502044 0.0418475 0)
(-0.0232649 0.122278 0)
(0.012363 0.16859 0)
(0.0875576 0.105674 0)
(0.0991087 0.0585263 0)
(0.0514135 0.0715559 0)
(-0.0283899 0.0512579 0)
(-0.0179963 0.0104892 0)
(0.0226157 -0.030729 0)
(0.0820775 -0.0364954 0)
(0.12828 -0.0134314 0)
(0.165889 -0.026111 0)
(0.193384 -0.0863631 0)
(0.185486 -0.122021 0)
(0.0994363 -0.0859816 0)
(-0.0120349 -0.0248857 0)
(-0.0752474 -0.00367872 0)
(-0.104962 -0.000342802 0)
(-0.10084 -0.00734272 0)
(-0.0799119 -0.0183434 0)
(-0.063255 -0.0257459 0)
(-0.0722757 -0.0176067 0)
(-0.101109 -0.00768652 0)
(-0.118313 -0.000556322 0)
(-0.125296 0.00710764 0)
(-0.110188 0.0259459 0)
(-0.0686983 0.0628056 0)
(-0.00361421 0.124136 0)
(0.0768913 0.178869 0)
(0.0214466 0.0508827 0)
(0.0852435 0.0111765 0)
(0.125215 -0.0638725 0)
(0.125693 -0.0735659 0)
(0.143726 -0.0499097 0)
(0.17383 -0.0557747 0)
(0.173498 -0.088882 0)
(0.100432 -0.0565051 0)
(-0.0143607 0.0408457 0)
(-0.122335 0.0861635 0)
(-0.221638 0.0599147 0)
(-0.262329 0.0130464 0)
(-0.257974 -0.0171288 0)
(-0.238238 -0.0190785 0)
(-0.229607 -0.0130791 0)
(-0.24158 -0.0113989 0)
(-0.268594 -0.010556 0)
(-0.301817 -0.00587185 0)
(-0.320601 -0.00200453 0)
(-0.301766 -0.000150531 0)
(-0.242626 0.00801496 0)
(-0.162125 0.0200885 0)
(-0.0786776 0.00540677 0)
(0.0483929 -0.0664923 0)
(0.146281 -0.0697437 0)
(0.14175 -0.0756692 0)
(0.096882 -0.0658849 0)
(0.0748223 -0.0678358 0)
(0.0606996 -0.0687336 0)
(0.0171994 -0.0178269 0)
(-0.0767268 0.0525517 0)
(-0.171858 0.10915 0)
(-0.262921 0.142713 0)
(-0.368693 0.0942327 0)
(-0.412853 0.0158662 0)
(-0.369087 -0.0453473 0)
(-0.292458 -0.0513398 0)
(-0.21072 -0.0193337 0)
(-0.147365 0.0283178 0)
(-0.124421 0.0575633 0)
(-0.140224 0.0537485 0)
(-0.279222 0.0120303 0)
(-0.417823 -0.050633 0)
(-0.346311 -0.0824556 0)
(-0.184449 -0.0385536 0)
(-0.0279614 -0.00716208 0)
(0.02082 -0.173464 0)
(0.0613052 -0.0816206 0)
(-0.00987364 -0.0159816 0)
(-0.0658111 0.00795195 0)
(-0.125206 0.00860841 0)
(-0.143618 0.0262182 0)
(-0.118259 0.0761941 0)
(-0.0925805 0.142143 0)
(-0.0975153 0.18674 0)
(-0.0856556 0.252316 0)
(0.176921 0.271299 0)
(-0.161549 0.0698306 0)
(-0.376319 -0.0617621 0)
(-0.428635 -0.124463 0)
(-0.36143 -0.161356 0)
(-0.249148 -0.153234 0)
(-0.0367114 -0.0327338 0)
(0.117139 0.0848087 0)
(-0.351964 0.369503 0)
(-0.779085 0.128115 0)
(-0.78867 -0.166292 0)
(-0.620505 -0.311014 0)
(-0.421183 -0.411514 0)
(-0.01765 -0.136304 0)
(-0.0872125 -0.00636136 0)
(-0.174784 0.0412774 0)
(-0.168466 0.0329604 0)
(-0.133315 -0.00101548 0)
(-0.089611 -0.0703126 0)
(-0.0295059 -0.0864992 0)
(0.0507341 0.0324657 0)
(0.287645 0.0948479 0)
(0.244794 -0.0762113 0)
(-0.132595 0.564789 0)
(-0.387777 0.320611 0)
(-0.43718 0.102803 0)
(-0.453176 -0.10072 0)
(-0.419 -0.222694 0)
(-0.447769 -0.286731 0)
(-0.536178 -0.185937 0)
(-0.429181 0.397955 0)
(-0.558474 0.639353 0)
(-0.667709 0.241595 0)
(-0.343369 -0.230008 0)
(-0.241934 -0.455589 0)
(-0.122625 -0.540359 0)
(-0.00692784 -0.08713 0)
(-0.0860116 0.0576556 0)
(-0.0404966 0.0572707 0)
(0.183086 -0.0268702 0)
(0.464774 -0.0485231 0)
(0.653815 -0.105329 0)
(0.613203 -0.106604 0)
(0.314172 -0.207975 0)
(-0.0485746 0.062473 0)
(-0.43622 0.53563 0)
(-0.48115 0.678625 0)
(-0.493934 0.394155 0)
(-0.479463 0.153048 0)
(-0.535054 -0.0751104 0)
(-0.577352 -0.176834 0)
(-0.646405 -0.166615 0)
(-0.690469 -0.0309293 0)
(-0.612966 0.339372 0)
(-0.452279 0.545887 0)
(-0.271078 0.0852313 0)
(-0.0184857 -0.396556 0)
(0.0111438 -0.54924 0)
(0.111249 -0.671469 0)
(-0.0189653 -0.0797893 0)
(0.0277691 0.00949912 0)
(0.22283 -0.190567 0)
(0.472061 -0.436497 0)
(-0.00875229 -0.262225 0)
(0.241589 -0.147906 0)
(0.0133805 0.118627 0)
(-0.183372 0.409583 0)
(-0.45269 0.58242 0)
(-0.66993 0.679176 0)
(-0.609159 0.567232 0)
(-0.615862 0.368414 0)
(-0.640021 0.184852 0)
(-0.687953 -0.00919804 0)
(-0.724656 -0.135214 0)
(-0.712452 -0.158668 0)
(-0.604919 -0.0776793 0)
(-0.423243 0.0965462 0)
(-0.197846 0.169786 0)
(0.0725517 -0.102731 0)
(0.291462 -0.455004 0)
(0.328888 -0.587458 0)
(0.353239 -0.680166 0)
(-0.0311841 -0.0468169 0)
(0.220482 -0.150175 0)
(0.812288 -0.202921 0)
(0.754362 -0.128707 0)
(0.0364659 0.032325 0)
(-0.0699814 0.0768605 0)
(-0.316076 0.298976 0)
(-0.43438 0.632218 0)
(-0.602674 0.757739 0)
(-0.669191 0.691873 0)
(-0.664466 0.55362 0)
(-0.723941 0.39904 0)
(-0.761659 0.196446 0)
(-0.791998 -0.0168269 0)
(-0.798232 -0.174801 0)
(-0.743816 -0.259902 0)
(-0.592902 -0.257607 0)
(-0.329366 -0.154442 0)
(2.48631e-05 -0.113255 0)
(0.315722 -0.345527 0)
(0.482307 -0.55365 0)
(0.503887 -0.627859 0)
(0.483484 -0.68248 0)
(0.223369 -0.390317 0)
(0.12159 -1.12036 0)
(0.462818 -0.0585601 0)
(0.0566895 0.237877 0)
(-0.21654 0.279051 0)
(-0.245566 0.230228 0)
(-0.395291 0.401648 0)
(-0.44772 0.685683 0)
(-0.515601 0.794715 0)
(-0.53714 0.724738 0)
(-0.589139 0.608594 0)
(-0.644247 0.449346 0)
(-0.674848 0.232937 0)
(-0.7063 0.00761976 0)
(-0.715255 -0.198815 0)
(-0.673273 -0.362178 0)
(-0.547013 -0.472153 0)
(-0.31984 -0.532019 0)
(-0.014461 -0.576911 0)
(0.286653 -0.64264 0)
(0.487235 -0.652316 0)
(0.573142 -0.652962 0)
(0.587095 -0.68261 0)
(0.265891 -0.461191 0)
(-0.348199 -0.45747 0)
(-0.459184 -0.0131595 0)
(-0.429135 0.319026 0)
(-0.312178 0.308259 0)
(-0.282164 0.330868 0)
(-0.309822 0.47807 0)
(-0.311476 0.697984 0)
(-0.307476 0.808827 0)
(-0.313669 0.769596 0)
(-0.369019 0.660795 0)
(-0.401157 0.488372 0)
(-0.425 0.266913 0)
(-0.448838 0.0314338 0)
(-0.455484 -0.202931 0)
(-0.421786 -0.419601 0)
(-0.327293 -0.606814 0)
(-0.154994 -0.757395 0)
(0.0839819 -0.850973 0)
(0.33772 -0.864256 0)
(0.544966 -0.789075 0)
(0.672378 -0.715977 0)
(0.711076 -0.689359 0)
(-0.121142 -0.270677 0)
(-0.322507 -0.276559 0)
(-0.430181 -0.0237707 0)
(-0.322501 0.158461 0)
(-0.239509 0.202531 0)
(-0.167576 0.298888 0)
(-0.117003 0.482266 0)
(-0.0814267 0.674894 0)
(-0.0344313 0.801385 0)
(-0.0144629 0.799903 0)
(-0.0482274 0.698506 0)
(-0.0695318 0.517176 0)
(-0.0973309 0.290136 0)
(-0.122321 0.0426081 0)
(-0.13326 -0.209919 0)
(-0.11075 -0.467954 0)
(-0.0449949 -0.718065 0)
(0.0822233 -0.939827 0)
(0.266722 -1.0852 0)
(0.456341 -1.09023 0)
(0.621279 -0.965916 0)
(0.753061 -0.813036 0)
(0.812333 -0.702396 0)
(-0.0368592 -0.116884 0)
(-0.14736 -0.0855754 0)
(-0.230653 0.00242722 0)
(-0.0718362 0.0261718 0)
(-0.0420397 0.115787 0)
(0.0531867 0.214747 0)
(0.135213 0.405257 0)
(0.210229 0.601771 0)
(0.287297 0.751581 0)
(0.339046 0.797644 0)
(0.339596 0.727241 0)
(0.313687 0.55693 0)
(0.270252 0.329886 0)
(0.229996 0.068382 0)
(0.207128 -0.2097 0)
(0.213479 -0.496502 0)
(0.255671 -0.79161 0)
(0.340493 -1.06452 0)
(0.469165 -1.24377 0)
(0.588247 -1.23498 0)
(0.687538 -1.08611 0)
(0.788623 -0.904453 0)
(0.856952 -0.73821 0)
(0.0416124 -0.092679 0)
(0.0948624 0.010863 0)
(0.089362 -0.0149731 0)
(0.164514 -0.0578711 0)
(0.194311 -0.0148159 0)
(0.272777 0.100459 0)
(0.389824 0.286568 0)
(0.514071 0.490022 0)
(0.633533 0.664905 0)
(0.72483 0.762214 0)
(0.759032 0.746451 0)
(0.732594 0.612617 0)
(0.668783 0.391889 0)
(0.603025 0.113511 0)
(0.556983 -0.191382 0)
(0.53551 -0.504122 0)
(0.544937 -0.830232 0)
(0.591078 -1.14603 0)
(0.663313 -1.342 0)
(0.714199 -1.31827 0)
(0.7636 -1.16306 0)
(0.841127 -0.977129 0)
(0.883092 -0.775783 0)
(-0.00140663 -0.250058 0)
(0.164549 -0.156672 0)
(0.339216 -0.0733597 0)
(0.500504 -0.0157445 0)
(0.599803 0.037125 0)
(0.63364 0.0820068 0)
(0.682195 0.170095 0)
(0.796914 0.324536 0)
(0.945861 0.51025 0)
(1.08001 0.666057 0)
(1.15256 0.730434 0)
(1.14193 0.66606 0)
(1.07006 0.478702 0)
(0.980393 0.198321 0)
(0.900375 -0.131424 0)
(0.83786 -0.473668 0)
(0.80631 -0.830691 0)
(0.81238 -1.17837 0)
(0.827335 -1.37864 0)
(0.812186 -1.35055 0)
(0.833241 -1.2206 0)
(0.891052 -1.03042 0)
(0.871559 -0.778055 0)
(-0.0918969 -0.282759 0)
(0.14801 -0.366748 0)
(0.374122 -0.352518 0)
(0.55929 -0.252376 0)
(0.701134 -0.125788 0)
(0.815718 -0.00836897 0)
(0.926445 0.102246 0)
(1.05082 0.217297 0)
(1.22109 0.366302 0)
(1.39688 0.56106 0)
(1.49985 0.704236 0)
(1.4978 0.712084 0)
(1.41609 0.568495 0)
(1.30337 0.301237 0)
(1.18965 -0.0377788 0)
(1.08578 -0.401792 0)
(1.01466 -0.789519 0)
(0.979491 -1.16183 0)
(0.932762 -1.35428 0)
(0.853912 -1.33754 0)
(0.857335 -1.24947 0)
(0.85205 -1.03531 0)
(0.722891 -0.70477 0)
(0.033804 -0.282848 0)
(0.331518 -0.574222 0)
(0.549875 -0.574422 0)
(0.673799 -0.415898 0)
(0.746922 -0.243106 0)
(0.781782 -0.138381 0)
(0.824979 -0.0868542 0)
(0.960047 -0.0233796 0)
(1.18144 0.123741 0)
(1.41112 0.352195 0)
(1.61431 0.616505 0)
(1.69008 0.75007 0)
(1.63634 0.675803 0)
(1.51652 0.431134 0)
(1.37862 0.0874453 0)
(1.24472 -0.295312 0)
(1.14711 -0.710702 0)
(1.06879 -1.09463 0)
(0.955919 -1.26486 0)
(0.815449 -1.27355 0)
(0.789913 -1.21058 0)
(0.61367 -0.919845 0)
(0.393262 -0.490295 0)
(0.143698 -0.58686 0)
(0.463599 -0.895578 0)
(0.593467 -0.74177 0)
(0.632146 -0.481077 0)
(0.673823 -0.230934 0)
(0.739079 -0.0808046 0)
(0.788772 -0.0924238 0)
(0.86741 -0.143154 0)
(1.01478 -0.0988847 0)
(1.23132 0.119515 0)
(1.44636 0.427451 0)
(1.58693 0.680127 0)
(1.61593 0.730473 0)
(1.54617 0.551629 0)
(1.42599 0.231678 0)
(1.29326 -0.161723 0)
(1.18886 -0.600373 0)
(1.06857 -0.968407 0)
(0.887904 -1.10754 0)
(0.69077 -1.14286 0)
(0.597011 -1.05624 0)
(0.192836 -0.653802 0)
(0.011382 -0.206659 0)
(0.0869754 -0.957826 0)
(0.374406 -1.0748 0)
(0.31622 -0.675961 0)
(0.287339 -0.422622 0)
(0.390629 -0.299361 0)
(0.567539 -0.207485 0)
(0.747408 -0.177391 0)
(0.87708 -0.258574 0)
(0.994074 -0.253191 0)
(1.11579 -0.0526313 0)
(1.24974 0.282243 0)
(1.34896 0.571714 0)
(1.38588 0.704962 0)
(1.37618 0.610302 0)
(1.31173 0.33793 0)
(1.2207 -0.0441646 0)
(1.13363 -0.479545 0)
(0.975093 -0.788754 0)
(0.735404 -0.884301 0)
(0.488544 -0.929654 0)
(0.261074 -0.767634 0)
(-0.220941 -0.341888 0)
(-0.377947 0.0687631 0)
(-0.00878779 -1.17679 0)
(0.203155 -1.01231 0)
(0.0808021 -0.611934 0)
(0.215212 -0.541163 0)
(0.357308 -0.518902 0)
(0.515859 -0.48501 0)
(0.714335 -0.416003 0)
(0.858622 -0.393275 0)
(0.898144 -0.352963 0)
(0.951328 -0.118557 0)
(0.996482 0.227739 0)
(1.04636 0.534082 0)
(1.04956 0.673546 0)
(1.06431 0.618862 0)
(1.06993 0.38122 0)
(1.05031 0.021528 0)
(0.994371 -0.359426 0)
(0.803192 -0.566298 0)
(0.527596 -0.610529 0)
(0.234982 -0.630875 0)
(-0.16026 -0.382932 0)
(-0.574687 -0.0247066 0)
(-0.776879 0.304963 0)
(-0.0668758 -1.24668 0)
(0.0810894 -0.951174 0)
(0.0370202 -0.763077 0)
(0.206475 -0.680465 0)
(0.3111 -0.636146 0)
(0.370573 -0.618005 0)
(0.491328 -0.571291 0)
(0.619215 -0.513075 0)
(0.592558 -0.385745 0)
(0.616558 -0.101968 0)
(0.61954 0.220986 0)
(0.667778 0.497417 0)
(0.662015 0.638725 0)
(0.683108 0.587671 0)
(0.760844 0.365634 0)
(0.83579 0.0368647 0)
(0.795855 -0.232387 0)
(0.578495 -0.318206 0)
(0.307636 -0.319915 0)
(-0.0122167 -0.28116 0)
(-0.426871 -0.0325702 0)
(-0.77725 0.231923 0)
(-1.02733 0.519729 0)
(-0.0872493 -1.22135 0)
(-0.0200098 -0.99886 0)
(-0.0285855 -0.871049 0)
(0.0870039 -0.763416 0)
(0.127781 -0.680523 0)
(0.125292 -0.62931 0)
(0.11523 -0.613143 0)
(0.13129 -0.558465 0)
(0.0511925 -0.372006 0)
(0.117834 -0.0681624 0)
(0.104587 0.265265 0)
(0.0998761 0.527189 0)
(0.0883318 0.619791 0)
(0.229351 0.488864 0)
(0.470365 0.205467 0)
(0.619938 -0.027542 0)
(0.550086 -0.106931 0)
(0.345469 -0.0703021 0)
(0.129254 -0.0480517 0)
(-0.166299 0.0566149 0)
(-0.530717 0.304444 0)
(-0.865867 0.544746 0)
(-1.10025 0.75053 0)
(-0.0962862 -1.15212 0)
(-0.104363 -0.99084 0)
(-0.149677 -0.90953 0)
(-0.111027 -0.805693 0)
(-0.114116 -0.690139 0)
(-0.114828 -0.587865 0)
(-0.225168 -0.52966 0)
(-0.422612 -0.443465 0)
(-0.594187 -0.248631 0)
(-0.611804 0.0471392 0)
(-0.577265 0.321978 0)
(-0.543446 0.43551 0)
(-0.316691 0.373206 0)
(0.00693905 0.146957 0)
(0.241832 0.0100104 0)
(0.34012 0.0149043 0)
(0.309202 0.0664615 0)
(0.202872 0.127483 0)
(0.0383693 0.193361 0)
(-0.216795 0.356646 0)
(-0.524529 0.614262 0)
(-0.805195 0.814319 0)
(-0.976409 0.900155 0)
(-0.0997375 -1.03326 0)
(-0.179198 -0.910829 0)
(-0.282129 -0.865377 0)
(-0.324689 -0.799443 0)
(-0.352585 -0.678968 0)
(-0.360999 -0.525551 0)
(-0.45364 -0.389891 0)
(-0.665439 -0.272802 0)
(-0.937288 -0.147324 0)
(-1.14118 0.0275311 0)
(-1.15751 0.22834 0)
(-1.01444 0.257847 0)
(-0.725616 0.0954094 0)
(-0.409704 -0.0996013 0)
(-0.0711004 -0.145673 0)
(0.196449 -0.031756 0)
(0.292591 0.093789 0)
(0.235191 0.244715 0)
(0.0658202 0.403961 0)
(-0.154276 0.605738 0)
(-0.403571 0.858346 0)
(-0.613293 1.012 0)
(-0.732293 0.992882 0)
(-0.103207 -0.881436 0)
(-0.227553 -0.782795 0)
(-0.369114 -0.758603 0)
(-0.473225 -0.73649 0)
(-0.555949 -0.630456 0)
(-0.620553 -0.439608 0)
(-0.737505 -0.225251 0)
(-0.978252 -0.0222396 0)
(-1.24653 0.165127 0)
(-1.42116 0.255614 0)
(-1.36455 0.170611 0)
(-1.06739 -0.0937289 0)
(-0.696147 -0.394744 0)
(-0.382951 -0.54709 0)
(-0.114499 -0.538944 0)
(0.163348 -0.314964 0)
(0.372239 0.0793012 0)
(0.353328 0.364154 0)
(0.183284 0.592863 0)
(-0.00759058 0.803412 0)
(-0.192604 1.03968 0)
(-0.351341 1.14248 0)
(-0.429078 1.06948 0)
(-0.112319 -0.71105 0)
(-0.251839 -0.631053 0)
(-0.376696 -0.622684 0)
(-0.479772 -0.61675 0)
(-0.626909 -0.523825 0)
(-0.760272 -0.335862 0)
(-0.900033 -0.0528526 0)
(-1.06027 0.200913 0)
(-1.19789 0.304286 0)
(-1.18632 0.182776 0)
(-0.97172 -0.115277 0)
(-0.682155 -0.442572 0)
(-0.461798 -0.659732 0)
(-0.242255 -0.786453 0)
(-0.0378791 -0.783504 0)
(0.136488 -0.589775 0)
(0.356333 -0.0809476 0)
(0.46382 0.446986 0)
(0.34248 0.757473 0)
(0.17536 0.959631 0)
(0.0642665 1.16655 0)
(-0.0420378 1.23156 0)
(-0.0871964 1.14025 0)
(-0.127731 -0.531325 0)
(-0.270461 -0.493953 0)
(-0.324834 -0.528998 0)
(-0.332975 -0.50667 0)
(-0.46548 -0.349753 0)
(-0.610242 -0.167308 0)
(-0.715875 0.0731046 0)
(-0.791066 0.267614 0)
(-0.808417 0.288155 0)
(-0.714917 0.0677789 0)
(-0.525168 -0.27551 0)
(-0.349871 -0.590041 0)
(-0.203393 -0.818767 0)
(-0.00235512 -0.963976 0)
(0.161922 -0.944859 0)
(0.226269 -0.737341 0)
(0.322582 -0.273511 0)
(0.476126 0.415597 0)
(0.458884 0.87321 0)
(0.338907 1.07232 0)
(0.290133 1.22818 0)
(0.266064 1.27941 0)
(0.266618 1.17558 0)
(-0.135052 -0.349332 0)
(-0.267983 -0.40395 0)
(-0.250398 -0.548563 0)
(-0.163512 -0.527598 0)
(-0.167128 -0.248197 0)
(-0.248709 -0.0926923 0)
(-0.319269 0.102196 0)
(-0.33943 0.246344 0)
(-0.298314 0.212441 0)
(-0.187894 -0.0376673 0)
(-0.0492129 -0.399814 0)
(-0.00628468 -0.694264 0)
(0.0965249 -0.971389 0)
(0.240968 -1.11256 0)
(0.33048 -1.02794 0)
(0.314249 -0.776029 0)
(0.296111 -0.366607 0)
(0.385058 0.307215 0)
(0.440781 0.897258 0)
(0.409326 1.12112 0)
(0.416798 1.22261 0)
(0.471183 1.25493 0)
(0.527435 1.14879 0)
(-0.106106 -0.188175 0)
(-0.185017 -0.361912 0)
(-0.139552 -0.60383 0)
(-0.0682141 -0.631881 0)
(0.025835 -0.303327 0)
(0.16139 -0.0160617 0)
(0.0915353 0.123795 0)
(0.0792031 0.208231 0)
(0.109302 0.139035 0)
(0.173466 -0.110556 0)
(0.215156 -0.428202 0)
(0.211459 -0.738226 0)
(0.300009 -1.07798 0)
(0.362167 -1.20771 0)
(0.353385 -1.02976 0)
(0.253762 -0.732666 0)
(0.182865 -0.33933 0)
(0.210931 0.27759 0)
(0.271812 0.8573 0)
(0.347888 1.08606 0)
(0.426008 1.16009 0)
(0.525352 1.16641 0)
(0.621652 1.06098 0)
(-0.0652466 -0.101759 0)
(-0.0267121 -0.34525 0)
(0.0386762 -0.612498 0)
(0.0632914 -0.683842 0)
(0.0848173 -0.521476 0)
(0.339008 -0.158065 0)
(0.476014 0.185811 0)
(0.423317 0.251206 0)
(0.367652 0.125493 0)
(0.352519 -0.132891 0)
(0.334332 -0.445592 0)
(0.325304 -0.78844 0)
(0.386337 -1.12669 0)
(0.342878 -1.18404 0)
(0.195169 -0.927493 0)
(0.0297396 -0.596307 0)
(-0.0662053 -0.22933 0)
(-0.0652719 0.314414 0)
(0.0364318 0.759677 0)
(0.206641 0.965518 0)
(0.348766 1.04852 0)
(0.46833 1.05319 0)
(0.569649 0.960683 0)
(-0.0421957 -0.102579 0)
(0.109966 -0.424841 0)
(0.203301 -0.646461 0)
(0.233827 -0.66426 0)
(0.223032 -0.622268 0)
(0.301741 -0.411997 0)
(0.528602 0.0156009 0)
(0.634902 0.308572 0)
(0.558205 0.233623 0)
(0.47043 -0.0668117 0)
(0.403457 -0.411027 0)
(0.393579 -0.799191 0)
(0.399483 -1.08806 0)
(0.223313 -1.01795 0)
(-0.0505635 -0.707576 0)
(-0.235275 -0.438671 0)
(-0.322362 -0.133637 0)
(-0.282794 0.260614 0)
(-0.136292 0.57871 0)
(0.0609336 0.781554 0)
(0.230427 0.903795 0)
(0.356249 0.938553 0)
(0.448086 0.874813 0)
(-0.00811249 -0.174175 0)
(0.182728 -0.575993 0)
(0.25227 -0.753782 0)
(0.289543 -0.694756 0)
(0.312052 -0.614466 0)
(0.281708 -0.511706 0)
(0.402751 -0.148792 0)
(0.557541 0.229715 0)
(0.57508 0.298807 0)
(0.507668 0.0449611 0)
(0.417389 -0.332509 0)
(0.423095 -0.766106 0)
(0.347903 -0.948098 0)
(0.048425 -0.748533 0)
(-0.239526 -0.48133 0)
(-0.364453 -0.327627 0)
(-0.39653 -0.142539 0)
(-0.347188 0.1101 0)
(-0.221565 0.371333 0)
(-0.0612002 0.591371 0)
(0.0976953 0.756878 0)
(0.219409 0.829462 0)
(0.305588 0.80101 0)
(0.0408082 -0.282101 0)
(0.169651 -0.663633 0)
(0.11357 -0.764969 0)
(0.107988 -0.726673 0)
(0.192174 -0.636768 0)
(0.135272 -0.537558 0)
(0.226408 -0.227192 0)
(0.331256 0.134055 0)
(0.377713 0.273974 0)
(0.372485 0.0860743 0)
(0.355974 -0.307009 0)
(0.404002 -0.707631 0)
(0.225464 -0.724131 0)
(-0.131004 -0.458496 0)
(-0.309205 -0.330453 0)
(-0.378597 -0.275419 0)
(-0.40275 -0.163079 0)
(-0.373739 0.0212202 0)
(-0.294246 0.240719 0)
(-0.177762 0.450868 0)
(-0.0472514 0.626957 0)
(0.0711878 0.725386 0)
(0.162894 0.724142 0)
(0.060474 -0.384025 0)
(0.0296743 -0.618175 0)
(-0.14517 -0.670491 0)
(-0.166817 -0.729014 0)
(-0.0898483 -0.686173 0)
(-0.129069 -0.551693 0)
(-0.0330219 -0.242862 0)
(0.0226616 0.101696 0)
(0.0767775 0.223506 0)
(0.123646 0.057731 0)
(0.302036 -0.400232 0)
(0.322322 -0.612138 0)
(0.0313599 -0.438484 0)
(-0.246718 -0.2447 0)
(-0.315371 -0.243151 0)
(-0.376984 -0.224315 0)
(-0.418174 -0.14221 0)
(-0.420221 -0.00332141 0)
(-0.373799 0.168771 0)
(-0.289884 0.350076 0)
(-0.182196 0.511934 0)
(-0.0665149 0.616427 0)
(0.0343897 0.633479 0)
(0.03066 -0.392699 0)
(-0.16478 -0.440726 0)
(-0.332324 -0.583851 0)
(-0.345263 -0.730621 0)
(-0.330894 -0.701281 0)
(-0.368258 -0.525093 0)
(-0.39118 -0.239905 0)
(-0.311697 0.0706967 0)
(-0.161602 0.109055 0)
(0.113454 -0.215039 0)
(0.274893 -0.482174 0)
(0.147011 -0.426101 0)
(-0.173772 -0.171914 0)
(-0.263079 -0.146705 0)
(-0.296768 -0.180994 0)
(-0.354419 -0.167949 0)
(-0.405635 -0.111253 0)
(-0.429948 -0.0136746 0)
(-0.413656 0.118256 0)
(-0.359241 0.267525 0)
(-0.272488 0.406241 0)
(-0.166482 0.501599 0)
(-0.0633594 0.531828 0)
(-0.0064463 -0.268416 0)
(-0.220776 -0.277727 0)
(-0.33542 -0.535213 0)
(-0.336179 -0.723613 0)
(-0.332996 -0.704872 0)
(-0.347776 -0.486491 0)
(-0.366646 -0.250968 0)
(-0.234919 -0.174796 0)
(-0.00509442 -0.255105 0)
(0.187078 -0.404671 0)
(0.125852 -0.387161 0)
(-0.123205 -0.151969 0)
(-0.252363 -0.0595437 0)
(-0.235939 -0.119903 0)
(-0.264425 -0.136433 0)
(-0.304845 -0.116167 0)
(-0.34896 -0.0698718 0)
(-0.381019 -0.000660994 0)
(-0.387748 0.0929568 0)
(-0.360054 0.205973 0)
(-0.29743 0.316036 0)
(-0.210678 0.396599 0)
(-0.118126 0.432001 0)
(0.0117697 -0.159499 0)
(-0.111437 -0.172274 0)
(-0.201815 -0.475115 0)
(-0.211042 -0.726109 0)
(-0.212768 -0.749036 0)
(-0.202224 -0.563122 0)
(-0.12283 -0.368267 0)
(-0.0104322 -0.348578 0)
(0.0762777 -0.383964 0)
(0.0271169 -0.33336 0)
(-0.172988 -0.153553 0)
(-0.260072 -0.0278653 0)
(-0.216788 -0.0799785 0)
(-0.207927 -0.108331 0)
(-0.225296 -0.106017 0)
(-0.251262 -0.0815086 0)
(-0.279652 -0.0367255 0)
(-0.302656 0.0202289 0)
(-0.314036 0.0898821 0)
(-0.302521 0.170735 0)
(-0.2628 0.25134 0)
(-0.200229 0.31434 0)
(-0.127693 0.347792 0)
(0.0361278 -0.154064 0)
(0.0581973 -0.0970932 0)
(-0.00561161 -0.381554 0)
(-0.0808961 -0.675465 0)
(-0.129389 -0.733166 0)
(-0.210614 -0.58159 0)
(-0.133652 -0.424212 0)
(-0.090874 -0.365475 0)
(-0.151953 -0.292651 0)
(-0.260117 -0.157752 0)
(-0.274986 -0.0901599 0)
(-0.208753 -0.100665 0)
(-0.173172 -0.108632 0)
(-0.172183 -0.100565 0)
(-0.183032 -0.087721 0)
(-0.201917 -0.0588395 0)
(-0.219216 -0.0172514 0)
(-0.232053 0.0336423 0)
(-0.236978 0.0913733 0)
(-0.228639 0.152508 0)
(-0.202607 0.211006 0)
(-0.16026 0.257943 0)
(-0.108842 0.286114 0)
(0.0345292 -0.224207 0)
(0.134021 -0.141759 0)
(0.165099 -0.276775 0)
(0.0378943 -0.558083 0)
(-0.0467844 -0.629054 0)
(-0.236749 -0.514008 0)
(-0.248991 -0.416948 0)
(-0.262527 -0.303388 0)
(-0.282206 -0.234206 0)
(-0.237418 -0.190918 0)
(-0.190258 -0.173242 0)
(-0.154084 -0.1458 0)
(-0.14442 -0.116919 0)
(-0.140977 -0.0964057 0)
(-0.147699 -0.0740331 0)
(-0.159104 -0.0436323 0)
(-0.17043 -0.00502693 0)
(-0.177853 0.0398471 0)
(-0.178271 0.0889136 0)
(-0.169468 0.138445 0)
(-0.149849 0.183943 0)
(-0.120417 0.220317 0)
(-0.085045 0.243932 0)
(0.0287892 -0.296608 0)
(0.0882732 -0.271885 0)
(0.202042 -0.257013 0)
(0.13284 -0.43754 0)
(0.0390805 -0.502573 0)
(-0.1419 -0.393781 0)
(-0.196936 -0.399134 0)
(-0.175743 -0.331693 0)
(-0.171765 -0.289024 0)
(-0.14041 -0.240524 0)
(-0.138084 -0.191027 0)
(-0.125528 -0.154266 0)
(-0.12051 -0.123423 0)
(-0.116176 -0.095533 0)
(-0.117661 -0.0677051 0)
(-0.12301 -0.0345771 0)
(-0.129524 0.00276643 0)
(-0.13393 0.0429792 0)
(-0.133212 0.0850147 0)
(-0.125841 0.126134 0)
(-0.111167 0.163423 0)
(-0.0903269 0.193634 0)
(-0.0658412 0.21456 0)
(0.0241815 -0.333648 0)
(0.0210698 -0.372536 0)
(0.117967 -0.321862 0)
(0.129856 -0.376391 0)
(0.0741026 -0.418124 0)
(-0.00910069 -0.290695 0)
(-0.0991432 -0.37667 0)
(-0.0754734 -0.345183 0)