/*--------------------------------*- C++ -*----------------------------------*\
| =========                 |                                                 |
| \\      /  F ield         | OpenFOAM: The Open Source CFD Toolbox           |
|  \\    /   O peration     | Version:  2.3.0                                 |
|   \\  /    A nd           | Web:      www.OpenFOAM.org                      |
|    \\/     M anipulation  |                                                 |
\*---------------------------------------------------------------------------*/
FoamFile
{
    version     2.0;
    format      ascii;
    class       volScalarField;
    location    "0.1";
    object      alpha.water;
}
// * * * * * * * * * * * * * * * * * * * * * * * * * * * * * * * * * * * * * //

dimensions      [0 0 0 0 0 0 0];

internalField   nonuniform List<scalar> 
725
(
1
1
1
0.999997
1.00002
1
1
1
1
1.00001
1
1
1
1
1.00005
1
1
1
1.00002
0.999896
1
1
1
1.00006
1
1.00001
1.00001
0.740695
0.0594444
0.000511546
0.000484765
0.000478804
0.0637741
0.863061
0.999577
0.999109
0.997676
0.997727
0.99774
0.997577
0.998351
0.999079
0.999645
1.00004
1.00003
1.00003
1.00003
1.00002
1.00002
1.00002
1.00002
1.00002
1.00003
1.00004
1.00005
1.00004
1.00003
1.00001
0.563851
0.00806024
0.000500828
0.000530048
0.000392088
0.11298
0.868941
0.999617
0.999494
0.999997
0.8639
0.0510934
0.999988
0.999989
0.704876
0.0738128
0.000502473
0.000480977
0.000476937
0.0583871
0.862365
0.999575
0.999573
0.998606
0.998762
0.999062
0.995664
0.995717
0.995349
0.999057
0.999316
0.999555
0.999714
0.999804
0.999853
0.999882
0.999902
0.999917
0.99993
0.999942
0.999954
0.99998
1.00001
1.00001
1
0.549796
0.00607663
0.000449834
0.00049254
0.000391774
0.118821
0.863909
0.999756
0.999746
0.999997
0.888758
0.0725284
1.00001
0.999999
0.712644
0.096304
0.000480729
0.000476899
0.000477036
0.0763815
0.895927
0.999576
0.998502
0.998547
0.999686
0.999684
0.999984
0.992632
0.992239
0.992641
0.997701
0.999307
0.999468
0.999639
0.999737
0.999787
0.999815
0.999833
0.999846
0.999858
0.999871
0.9999
0.999954
0.999998
1
0.530476
0.000463646
0.000398829
0.000394534
0.000391764
0.124087
0.866319
0.999784
0.999787
0.999998
0.98129
0.252235
0.999995
0.979646
0.678154
0.0919815
0.00049617
0.000481448
0.000286657
0.0618966
0.895822
0.993313
0.99905
0.999049
0.999626
0.999687
0.999644
0.992513
0.99306
0.992283
0.992508
0.998601
0.999676
0.999662
0.999698
0.99973
0.999755
0.999775
0.999789
0.9998
0.999812
0.999817
0.999963
1.0001
0.996701
0.574252
0.0170631
0.000434383
0.000401306
0.0003918
0.131823
0.8642
0.99982
0.999801
0.999999
0.993526
0.279525
0.880257
0.962601
0.759715
0.0793546
0.000537212
0.000509404
8.63242e-05
0.144779
0.932296
0.968217
0.999045
0.998684
0.999916
0.999807
0.999592
0.994965
0.999746
0.993134
0.993475
0.998784
0.999673
0.999528
0.999547
0.999605
0.999662
0.999705
0.999733
0.999753
0.999773
0.999793
0.999923
1.00001
0.991775
0.65847
0.05214
0.00068054
0.000414475
0.000394499
0.137972
0.861992
0.999846
0.99984
1
0.976195
0.281773
0.260901
0.914794
0.737707
0.0854407
0.000664975
0.000539988
8.60907e-05
0.192525
0.915014
0.977075
0.998798
0.999274
0.999807
0.999914
0.999082
0.99975
0.999762
0.997541
0.994401
0.997037
0.998734
0.999219
0.999313
0.999399
0.999501
0.999601
0.999673
0.99972
0.999753
0.999776
0.999933
1
0.974553
0.653657
0.0879344
0.000893798
0.000577139
0.000408551
0.129775
0.851889
0.999798
0.9997
1
0.973173
0.234807
0.24836
0.928546
0.766393
0.0985482
0.000813343
0.000681089
9.26898e-05
0.179799
0.877459
0.988848
0.989721
0.996307
0.999817
0.999785
0.998879
0.999489
0.999335
0.999446
0.993905
0.99324
0.997848
0.998829
0.999099
0.99928
0.999432
0.999552
0.999637
0.999694
0.999734
0.999759
0.999941
1.00003
0.97436
0.574431
0.0631087
0.000796876
0.000798448
0.000424444
0.129055
0.849478
0.999721
0.999675
1.00002
0.968307
0.207293
0.158293
0.925557
0.760804
0.0907026
0.000900719
0.000910263
0.000502677
0.138784
0.823662
0.987606
0.985848
0.991286
0.998997
0.999729
0.997715
0.997347
0.997352
0.998625
0.992658
0.992626
0.997663
0.998681
0.999039
0.999264
0.99942
0.999532
0.999614
0.999674
0.999717
0.999746
0.99994
1.00003
0.975932
0.562251
0.0400809
0.000664535
0.00075805
0.000498052
0.149261
0.859518
0.999705
0.999662
1.00001
0.952313
0.189587
0.241561
0.925091
0.749282
0.0727829
0.000888513
0.00123433
0.000885745
0.136202
0.791881
0.990113
0.985704
0.998824
0.998312
0.999635
0.998599
0.996899
0.997724
0.992657
0.99264
0.99264
0.997827
0.998773
0.999127
0.999333
0.999459
0.999543
0.999609
0.999663
0.999705
0.999736
0.999931
1.00003
0.971315
0.645764
0.0365849
0.000470099
0.000519186
0.00065795
0.162022
0.860932
0.999698
0.999639
1
0.930564
0.174678
0.225354
0.919349
0.745507
0.0701996
0.000889354
0.000965609
0.00220276
0.168899
0.823715
0.995445
0.986172
0.9992
0.998995
0.999683
0.999584
0.999015
0.999866
0.996335
0.992644
0.992638
0.998118
0.999013
0.999291
0.999447
0.999536
0.999589
0.999632
0.99967
0.999704
0.999731
0.999908
1.00024
0.978588
0.627483
0.0175126
0.000442703
0.000447826
0.000907194
0.150988
0.851025
0.999721
0.999649
1
0.922635
0.12454
1
1
1
1.00006
1.00003
1
1
1
1.00002
1.00003
1
1
1
1.00002
1.00002
1
1
1
1.00001
1
1
1
1
0.999999
0.999998
0.813798
0.956912
0.788994
0.0935075
0.000941182
0.00102161
0.00421946
0.220525
0.817247
0.999759
0.999939
0.999753
0.999806
0.999805
0.99985
0.999921
0.999865
0.999876
0.99767
0.998881
0.999176
0.999361
0.999478
0.99956
0.999619
0.99966
0.999691
0.999717
0.999738
0.999759
0.999885
1.00001
0.999945
0.581764
0.00871809
0.000429203
0.000427003
0.000419179
0.144405
0.842876
0.999793
0.999727
0.999998
0.865242
0.0521693
1
0.999976
0.813684
0.0778006
0.00101894
0.00111769
0.001252
0.355994
0.801133
0.999963
0.999985
0.999955
0.999787
0.999919
0.999905
0.99985
0.999763
0.999722
0.99973
0.999337
0.999426
0.999532
0.999607
0.999662
0.999701
0.999728
0.999748
0.999764
0.999779
0.999792
0.999901
0.999999
1
0.611822
0.0165106
0.000422313
0.000597222
0.00041888
0.150058
0.831099
0.999843
0.999839
0.99992
0.828379
0.0277736
1.00001
1
0.912546
0.0819845
0.00130001
0.00125851
0.00143889
0.360509
0.810805
0.999985
0.999979
1.00002
0.999907
0.999887
0.999876
0.999816
0.999758
0.999636
0.999546
0.999512
0.999618
0.999697
0.999743
0.999773
0.999793
0.999807
0.999819
0.99983
0.999845
0.999855
0.999916
0.999996
1
0.644295
0.00305508
0.000419275
0.000419741
0.000422509
0.149056
0.825008
0.999788
0.99972
0.999982
0.859655
0.0575328
1.00002
1
0.925603
0.0941027
0.00252661
0.00143987
0.0200548
0.463517
0.826094
1
1
0.999929
0.999894
0.999865
0.999829
0.999788
0.999791
0.999729
0.999687
0.999732
0.999801
0.99984
0.999861
0.999876
0.999888
0.999898
0.999906
0.999913
0.999921
0.999933
0.999959
1.00001
1
0.520911
0.00426441
0.000418406
0.000425229
0.000472058
0.150436
0.816683
0.999642
0.999544
0.999981
0.962327
0.238525
1.00002
1.00001
0.935101
0.124285
0.00265477
0.0021604
0.037316
0.465333
0.803112
1
0.999825
0.999765
0.999803
0.999803
0.999832
0.999881
0.999942
0.999948
0.999952
0.999975
1.00001
1.00002
1.00002
1.00002
1.00002
1.00003
1.00003
1.00004
1.00003
1.00002
1.00002
1.00005
1.00001
0.552446
0.00635575
0.000426229
0.000457928
0.000517348
0.146312
0.820787
0.999514
0.999466
0.999979
0.973818
0.283344
)
;

boundaryField
{
    AirInlet
    {
        type            fixedValue;
        value           uniform 0;
    }
    WaterInlet
    {
        type            fixedValue;
        value           uniform 1;
    }
    ChannelWall
    {
        type            zeroGradient;
    }
    Outlet
    {
        type            inletOutlet;
        inletValue      uniform 0;
        value           nonuniform List<scalar> 
15
(
0
0.0725284
0.252235
0.279525
0.281773
0.234807
0.207293
0.189587
0.174678
0.12454
0
0
0
0.238525
0.283344
)
;
    }
    FrontAndBack
    {
        type            empty;
    }
}


// ************************************************************************* //
