/*--------------------------------*- C++ -*----------------------------------*\
| =========                 |                                                 |
| \\      /  F ield         | OpenFOAM: The Open Source CFD Toolbox           |
|  \\    /   O peration     | Version:  2.3.0                                 |
|   \\  /    A nd           | Web:      www.OpenFOAM.org                      |
|    \\/     M anipulation  |                                                 |
\*---------------------------------------------------------------------------*/
FoamFile
{
    version     2.0;
    format      ascii;
    class       volScalarField;
    location    "0.1";
    object      p;
}
// * * * * * * * * * * * * * * * * * * * * * * * * * * * * * * * * * * * * * //

dimensions      [1 -1 -2 0 0 0 0];

internalField   nonuniform List<scalar> 
725
(
-438.396
-478.636
-496.074
-490.416
-565.56
-443.976
-478.185
-493.975
-484.492
-549.78
-446.696
-478.184
-492.152
-477.487
-518.17
-446.394
-478.952
-491.028
-471.726
-474.67
-443.441
-480.686
-491.629
-474.82
-460.842
-670.571
-848.704
-1099.72
-1099.61
-1095.27
-1097.36
-1099.65
-1106.8
-1249.13
-1180.67
-1138.99
-1102.99
-1080.95
-1079.07
-1098.81
-1121.99
-1094.19
-1108.07
-1098.36
-1096.09
-1096.73
-1098.43
-1100.27
-1102.5
-1105.04
-1107.79
-1110.53
-1113.43
-1116.81
-1122.3
-1133.09
-1167.49
-1222.81
-1281.08
-1362.54
-1363.71
-1363.07
-1362.38
-1367.71
-1394.49
-1370.65
-1393.06
-1344.43
-1526.51
80.7661
-658.347
-842.261
-1123.62
-1096.47
-1096.25
-1097.46
-1099.59
-1105.82
-1244.23
-1173.3
-1129.12
-1107.78
-1085.38
-1083.56
-1093.17
-1130.92
-1108.9
-1110.09
-1101.48
-1097.46
-1097.71
-1099.08
-1100.75
-1102.96
-1105.51
-1108.22
-1110.9
-1113.66
-1116.72
-1121.36
-1129.88
-1163.37
-1267.5
-1545.99
-1359.8
-1363.25
-1362.95
-1362.08
-1364.26
-1384.43
-1364.44
-1389.15
-1322.18
-1799.65
53.0255
-628.676
-847.678
-1119.87
-1078.62
-1097.1
-1097.49
-1099.15
-1118.65
-1300.63
-1167.71
-1125.12
-1107.42
-1083.2
-1080.38
-1090.69
-1124.52
-1084.28
-1108.51
-1100.26
-1095.54
-1096.24
-1098.78
-1100.51
-1102.84
-1105.51
-1108.28
-1110.89
-1113.48
-1116.01
-1118.97
-1121.87
-1140.9
-1255.98
-1921.14
-1350.5
-1362.8
-1362.39
-1362.12
-1362.08
-1355.24
-1353.86
-1370.59
-1246.32
-1141.77
-494.22
-542.772
-866.325
-1218.15
-1092.29
-1096.52
-1097.67
-1098.85
-1108.99
-1331.01
-1181.21
-1115.97
-1106.9
-1081.99
-1076.44
-1088.48
-1136.98
-1099.08
-1109.32
-1085.23
-1091.31
-1094.82
-1098.38
-1100.17
-1102.67
-1105.49
-1108.37
-1110.91
-1113.32
-1115.25
-1116.02
-1111.19
-1095.73
-997.91
-1313.21
-1362.66
-1366.85
-1362.8
-1362.4
-1353.27
-1315.45
-1346.73
-1358.94
-1191.15
-725.783
-437.356
-513.286
-1043.98
-1347.85
-1112.39
-1095
-1099.01
-1101.75
-1047.95
-703.183
-1048.1
-1102.21
-1108.02
-1078.57
-1068.73
-1082.32
-1168.83
-1076.86
-1123.84
-1088.27
-1084.59
-1094.17
-1098.49
-1099.77
-1102.43
-1105.46
-1108.5
-1110.97
-1113.27
-1114.77
-1114.05
-1103.44
-1064.54
-667.925
230.836
-1370.98
-1374.94
-1362.93
-1361.92
-1362.41
-1337.77
-1353.24
-1369.36
-1210
-878.16
-457.019
1748.7
-966.107
-974.228
-1083.76
-1098.75
-1098.23
-1104.78
-572.414
-1023.49
-1103.93
-1094.33
-1100.54
-1080.94
-1062.56
-1074.71
-920.29
-1079.94
-1127.18
-1072.38
-1080.24
-1094.35
-1099.04
-1099.49
-1102.32
-1105.43
-1108.64
-1111.04
-1113.32
-1114.67
-1113.98
-1103.18
-1075.29
-767.825
-200.547
-1055.48
-1368.15
-1363.34
-1357.67
-1381.38
-1453.95
-1363.27
-1388.93
-1251.36
-1078.21
-432.58
1875.01
-978.02
-741.293
-1013.17
-1100.74
-1097.55
-1102.29
-845.008
-1495.65
-1046.54
-1123.76
-1094.58
-1081.01
-1061.22
-1072.42
-936.174
-1087.59
-1061.43
-1073.93
-1075.73
-1089.47
-1098.83
-1099.16
-1101.8
-1105.12
-1108.62
-1111.06
-1113.34
-1114.64
-1113.98
-1103.46
-1077.36
-835.11
83.6558
-1279.06
-1362.88
-1357.71
-1357.17
-1365.92
-1412.02
-1362.67
-1396.36
-1272.21
-1186.61
-360.494
3623.29
-1051
-887.191
-1068.43
-1100.17
-1096.53
-1096.88
-891.569
-1678.95
-1095.4
-1125.68
-917.983
-1080.89
-1060.02
-1029.69
-940.187
-1025.08
-1093.06
-1068.25
-1066.48
-1085.33
-1094.56
-1097.13
-1101.26
-1104.76
-1108.06
-1110.86
-1113.35
-1114.63
-1114.02
-1104.25
-1077.31
-869.037
146.757
-1290.12
-1358.46
-1359.3
-1359.34
-1353.1
-1252.07
-1358.38
-1403.89
-1298.29
-1355.52
-344.922
1887.87
-1115.1
-1197.26
-1044.07
-1097.86
-1086.46
-1097.44
-842.047
-1325.77
-1123.81
-1118.34
-1162.33
-1057.23
-1057.1
-1059.6
-928.556
-1040.71
-891.609
-1064.72
-1065.01
-1088.76
-1097.28
-1099.94
-1103.33
-1105.97
-1108.42
-1110.7
-1113.09
-1114.48
-1114.12
-1105.44
-1077.74
-846.558
-154.66
-1333.18
-1356.1
-1358.72
-1360.37
-1235.78
-1152.98
-1356.81
-1411.25
-1326.07
-1503.53
-382.061
2088.55
-1116.44
-1265.73
-1019.66
-1097.57
-1092.56
-1109.57
-1148.99
-1528.87
-1121.45
-1130.18
-1150.08
-1078.83
-1057.14
-1058.68
-1005.94
-1041.4
-1025.96
-1063.65
-1063.83
-1089.72
-1097.63
-1099.95
-1103.33
-1106.04
-1108.59
-1111.27
-1113.39
-1114.51
-1114.34
-1106.83
-1079.02
-930.604
-555.363
-1327.2
-1354.93
-1358.01
-1358.04
-1306.09
-1236.48
-1360.47
-1418.86
-1353.15
-1689.36
-338.3
-1060.84
-1098.09
-1115.14
-1127.24
-1211.85
-1063.97
-1096.42
-1113.23
-1116.92
-1192.08
-1064.46
-1095.46
-1111.77
-1109.4
-1163.8
-1061.92
-1095.27
-1110.97
-1105
-1138.24
-1056.52
-1095.65
-1111.19
-1103.89
-1125.5
-1064.27
-1185.06
-1209.99
-1106.35
-1101.44
-1094.25
-1140.1
-1236.28
-1049.61
-1030.23
-1083.06
-1116.42
-1073.69
-1055.95
-1053.3
-1015.89
-1044.12
-1038.68
-1066.35
-1080.06
-1090.55
-1096.2
-1099.64
-1103.15
-1106.05
-1108.67
-1111.41
-1113.91
-1115.97
-1116.07
-1110.63
-1090.64
-1200.53
-2137.75
-1314.88
-1352.71
-1356.35
-1353.57
-1387.29
-1457.73
-1381.45
-1437.96
-1422.7
-2098.64
-71.1451
-1019.31
-1031.49
-1115.53
-1106.87
-1102.44
-1100.32
-1131.64
-1071.85
-1030.91
-988.439
-1040.68
-1082.06
-1065.57
-1053.53
-1048.27
-1025.02
-1045.23
-1042.27
-1065.27
-1076.31
-1088.81
-1094.84
-1099.03
-1102.8
-1105.94
-1108.77
-1111.64
-1114.46
-1117.31
-1119.76
-1121.55
-1123.05
-1209.03
-1391.49
-1351.94
-1354.54
-1356.33
-1354.78
-1367.67
-1418.45
-1386.57
-1451.45
-1436.49
-2021.79
36.182
-995.421
-1000.63
-1001.98
-1112.01
-1101.86
-1103.39
-1130.82
-1179.9
-997.815
-950.286
-1008.4
-1055.17
-1058.09
-1052.25
-1046.1
-1030.19
-1045.99
-1044.05
-1064.34
-1073.61
-1087.14
-1093.77
-1098.57
-1102.58
-1105.89
-1108.86
-1111.86
-1115
-1118.71
-1123.64
-1131.52
-1148.83
-1175.26
-1130.47
-1361.27
-1355.53
-1356.28
-1355.18
-1352.88
-1387.87
-1380.61
-1440.92
-1374.81
-1859.46
-80.6721
-977.346
-948.972
-907.464
-1102.95
-1101.96
-1102.68
-1148.6
-966.563
-896.382
-910.883
-986.508
-1040.53
-1053.63
-1051.08
-1044.77
-1033.49
-1048.41
-1045.63
-1064.15
-1071.94
-1086.05
-1093.12
-1098.33
-1102.48
-1105.88
-1108.94
-1112.04
-1115.42
-1119.77
-1126.61
-1139.45
-1175.61
-1287.13
-1628.91
-1353.51
-1354.24
-1355.76
-1354.51
-1348.33
-1382.18
-1372.56
-1414.62
-1286.28
-1270.78
-555.005
-965.453
-912.324
-846.009
-1074.25
-1103.09
-1104.83
-1156.06
-861.972
-853.01
-898.984
-978.73
-1035.71
-1052.06
-1049.84
-1043.95
-1035.9
-1051.29
-1044.84
-1062.72
-1070
-1084.75
-1092.18
-1097.67
-1101.92
-1105.4
-1108.52
-1111.68
-1115.15
-1119.86
-1127.71
-1143.11
-1186.46
-1288.64
-1462.93
-1349.95
-1354.03
-1355.79
-1353.39
-1345.07
-1377.41
-1366.22
-1391.79
-1212.13
-770.242
-503.743
)
;

boundaryField
{
    AirInlet
    {
        type            calculated;
        value           nonuniform List<scalar> 5(2871.8 5398.73 7471.88 6170.88 3518.99);
    }
    WaterInlet
    {
        type            calculated;
        value           nonuniform List<scalar> 10(-438.394 -443.97 -446.686 -446.38 -443.423 -1060.86 -1063.99 -1064.47 -1061.92 -1056.52);
    }
    ChannelWall
    {
        type            calculated;
        value           nonuniform List<scalar> 
110
(
-443.467
-480.716
-491.663
-474.858
-460.884
-1060.81
-1098.06
-1115.11
-1127.2
-1211.81
-1056.55
-1095.68
-1111.23
-1103.92
-1125.54
-965.497
-912.368
-846.05
-1074.26
-1103.09
-1104.83
-1156.07
-861.992
-853.045
-899.028
-978.774
-1035.75
-1052.11
-1049.89
-1043.99
-1035.94
-1051.33
-1044.88
-1062.77
-1070.04
-1084.8
-1092.22
-1097.71
-1101.97
-1105.45
-1108.56
-1111.73
-1115.2
-1119.91
-1127.75
-1143.15
-1186.5
-1288.69
-1462.95
-1349.95
-1354.03
-1355.79
-1353.39
-1345.07
-1377.44
-1366.27
-1391.83
-1212.17
-770.285
-503.756
-438.37
-478.606
-496.04
-490.378
-565.518
-670.527
-848.66
-1099.68
-1099.6
-1095.27
-1097.36
-1099.65
-1106.8
-1249.09
-1180.63
-1138.94
-1102.94
-1080.91
-1079.03
-1098.76
-1121.95
-1094.15
-1108.03
-1098.32
-1096.05
-1096.68
-1098.39
-1100.23
-1102.46
-1105
-1107.74
-1110.49
-1113.39
-1116.76
-1122.25
-1133.04
-1167.44
-1222.77
-1281.06
-1362.54
-1363.71
-1363.07
-1362.38
-1367.71
-1394.45
-1370.61
-1393.02
-1344.38
-1526.48
80.7684
)
;
    }
    Outlet
    {
        type            calculated;
        value           nonuniform List<scalar> 
15
(
-0.194124
-0.00972813
-0.0558396
-0.0866
-0.112235
-0.218053
-0.477388
-0.0941973
-0.0895278
-0.0664374
-0.000583695
-0.128051
-0.000760275
-0.20305
-0.266123
)
;
    }
    FrontAndBack
    {
        type            empty;
    }
}


// ************************************************************************* //
