/*--------------------------------*- C++ -*----------------------------------*\
| =========                 |                                                 |
| \\      /  F ield         | OpenFOAM: The Open Source CFD Toolbox           |
|  \\    /   O peration     | Version:  2.3.0                                 |
|   \\  /    A nd           | Web:      www.OpenFOAM.org                      |
|    \\/     M anipulation  |                                                 |
\*---------------------------------------------------------------------------*/
FoamFile
{
    version     2.0;
    format      ascii;
    class       volScalarField;
    location    "0.1";
    object      p_rgh;
}
// * * * * * * * * * * * * * * * * * * * * * * * * * * * * * * * * * * * * * //

dimensions      [1 -1 -2 0 0 0 0];

internalField   nonuniform List<scalar> 
725
(
-438.37
-478.606
-496.04
-490.378
-565.518
-443.896
-478.093
-493.872
-484.377
-549.654
-446.564
-478.031
-491.98
-477.296
-517.959
-446.208
-478.739
-490.788
-471.458
-474.375
-443.202
-480.412
-491.32
-474.475
-460.462
-670.527
-848.66
-1099.68
-1099.6
-1095.27
-1097.36
-1099.65
-1106.8
-1249.09
-1180.63
-1138.94
-1102.94
-1080.91
-1079.03
-1098.76
-1121.95
-1094.15
-1108.03
-1098.32
-1096.05
-1096.68
-1098.39
-1100.23
-1102.46
-1105
-1107.74
-1110.49
-1113.39
-1116.76
-1122.25
-1133.04
-1167.44
-1222.77
-1281.06
-1362.54
-1363.71
-1363.07
-1362.38
-1367.71
-1394.45
-1370.61
-1393.02
-1344.38
-1526.48
80.7684
-658.214
-842.129
-1123.53
-1096.46
-1096.25
-1097.46
-1099.59
-1105.81
-1244.12
-1173.17
-1128.99
-1107.65
-1085.25
-1083.43
-1093.04
-1130.79
-1108.76
-1109.96
-1101.35
-1097.33
-1097.58
-1098.94
-1100.62
-1102.83
-1105.38
-1108.09
-1110.77
-1113.53
-1116.59
-1121.23
-1129.75
-1163.23
-1267.37
-1545.91
-1359.8
-1363.25
-1362.95
-1362.08
-1364.25
-1384.32
-1364.3
-1389.02
-1322.05
-1799.53
53.0352
-628.456
-847.457
-1119.71
-1078.6
-1097.1
-1097.49
-1099.15
-1118.63
-1300.43
-1167.49
-1124.89
-1107.2
-1082.98
-1080.16
-1090.47
-1124.3
-1084.06
-1108.29
-1100.04
-1095.32
-1096.02
-1098.56
-1100.29
-1102.62
-1105.29
-1108.06
-1110.67
-1113.26
-1115.79
-1118.75
-1121.65
-1140.68
-1255.76
-1921.03
-1350.5
-1362.8
-1362.39
-1362.12
-1362.05
-1355.05
-1353.64
-1370.37
-1246.1
-1141.55
-494.165
-542.463
-866.022
-1217.94
-1092.26
-1096.52
-1097.67
-1098.85
-1108.97
-1330.74
-1180.91
-1115.66
-1106.6
-1081.69
-1076.13
-1088.17
-1136.67
-1098.77
-1109.01
-1084.93
-1091
-1094.52
-1098.07
-1099.86
-1102.36
-1105.18
-1108.06
-1110.6
-1113.01
-1114.94
-1115.71
-1110.88
-1095.43
-997.602
-1313.03
-1362.65
-1366.85
-1362.8
-1362.4
-1353.23
-1315.18
-1346.42
-1358.64
-1190.84
-725.476
-437.269
-512.936
-1043.6
-1347.55
-1112.36
-1095
-1099.01
-1101.75
-1047.89
-702.812
-1047.72
-1101.81
-1107.62
-1078.17
-1068.33
-1081.92
-1168.44
-1076.47
-1123.44
-1087.87
-1084.19
-1093.77
-1098.09
-1099.38
-1102.04
-1105.06
-1108.1
-1110.57
-1112.87
-1114.37
-1113.65
-1103.05
-1064.14
-667.531
231.097
-1370.95
-1374.94
-1362.93
-1361.92
-1362.36
-1337.43
-1352.84
-1368.97
-1209.6
-877.772
-456.907
1748.82
-965.694
-973.895
-1083.73
-1098.75
-1098.23
-1104.78
-572.327
-1023.07
-1103.49
-1093.88
-1100.09
-1080.49
-1062.11
-1074.26
-919.839
-1079.49
-1126.73
-1071.93
-1079.79
-1093.9
-1098.59
-1099.04
-1101.87
-1104.98
-1108.19
-1110.58
-1112.87
-1114.22
-1113.53
-1102.73
-1074.84
-767.386
-200.252
-1055.44
-1368.15
-1363.34
-1357.67
-1381.32
-1453.57
-1362.82
-1388.48
-1250.91
-1077.77
-432.474
1875.12
-977.583
-740.932
-1013.12
-1100.74
-1097.55
-1102.29
-844.923
-1495.24
-1046.07
-1123.3
-1094.11
-1080.53
-1060.75
-1071.95
-935.703
-1087.12
-1060.96
-1073.46
-1075.26
-1089
-1098.36
-1098.69
-1101.33
-1104.65
-1108.15
-1110.59
-1112.87
-1114.17
-1113.51
-1102.99
-1076.89
-834.652
83.9265
-1279.03
-1362.88
-1357.71
-1357.17
-1365.86
-1411.62
-1362.2
-1395.89
-1271.74
-1186.15
-360.396
3623.37
-1050.55
-886.817
-1068.38
-1100.17
-1096.52
-1096.87
-891.501
-1678.55
-1094.91
-1125.2
-917.497
-1080.4
-1059.53
-1029.2
-939.698
-1024.59
-1092.57
-1067.76
-1065.99
-1084.84
-1094.07
-1096.64
-1100.77
-1104.27
-1107.57
-1110.37
-1112.86
-1114.13
-1113.53
-1103.76
-1076.82
-868.559
147.033
-1290.1
-1358.46
-1359.3
-1359.34
-1353.03
-1251.65
-1357.89
-1403.4
-1297.8
-1355.06
-344.828
1887.99
-1114.63
-1196.88
-1044.03
-1097.85
-1086.46
-1097.44
-841.977
-1325.37
-1123.3
-1117.84
-1161.82
-1056.72
-1056.59
-1059.09
-928.048
-1040.2
-891.103
-1064.21
-1064.5
-1088.25
-1096.77
-1099.43
-1102.82
-1105.46
-1107.91
-1110.19
-1112.58
-1113.97
-1113.61
-1104.93
-1077.23
-846.063
-154.33
-1333.16
-1356.1
-1358.72
-1360.37
-1235.7
-1152.54
-1356.3
-1410.74
-1325.56
-1503.05
-381.971
2088.67
-1115.96
-1265.33
-1019.63
-1097.57
-1092.56
-1109.57
-1148.9
-1528.43
-1120.92
-1129.66
-1149.55
-1078.3
-1056.62
-1058.15
-1005.41
-1040.87
-1025.43
-1063.13
-1063.3
-1089.19
-1097.1
-1099.42
-1102.8
-1105.52
-1108.06
-1110.74
-1112.86
-1113.98
-1113.81
-1106.3
-1078.49
-930.086
-555.03
-1327.19
-1354.93
-1358.01
-1358.04
-1306.01
-1236.03
-1359.94
-1418.33
-1352.62
-1688.87
-338.233
-1060.1
-1097.39
-1114.47
-1126.6
-1211.25
-1063.18
-1095.65
-1112.49
-1116.2
-1191.39
-1063.61
-1094.64
-1110.96
-1108.61
-1163.03
-1061.02
-1094.38
-1110.09
-1104.13
-1137.38
-1055.57
-1094.7
-1110.25
-1102.94
-1124.56
-1063.8
-1184.51
-1209.53
-1106.3
-1101.44
-1094.25
-1140.1
-1236.15
-1049.14
-1029.65
-1082.48
-1115.84
-1073.11
-1055.37
-1052.71
-1015.3
-1043.53
-1038.09
-1065.77
-1079.48
-1089.97
-1095.61
-1099.06
-1102.57
-1105.46
-1108.09
-1110.83
-1113.33
-1115.39
-1115.49
-1110.04
-1090.05
-1199.94
-2137.41
-1314.88
-1352.71
-1356.35
-1353.56
-1387.21
-1457.23
-1380.87
-1437.38
-1422.11
-2098.14
-71.1141
-1018.64
-1030.82
-1114.98
-1106.82
-1102.44
-1100.32
-1131.64
-1071.61
-1030.37
-987.767
-1040
-1081.38
-1064.9
-1052.86
-1047.6
-1024.35
-1044.56
-1041.6
-1064.6
-1075.64
-1088.14
-1094.17
-1098.36
-1102.13
-1105.27
-1108.1
-1110.96
-1113.79
-1116.64
-1119.09
-1120.88
-1122.38
-1208.35
-1391.08
-1351.93
-1354.54
-1356.33
-1354.78
-1367.57
-1417.89
-1385.9
-1450.78
-1435.82
-2021.23
36.2013
-994.661
-999.872
-1001.28
-1111.95
-1101.86
-1103.39
-1130.81
-1179.63
-997.199
-949.526
-1007.64
-1054.41
-1057.33
-1051.49
-1045.34
-1029.43
-1045.23
-1043.29
-1063.58
-1072.85
-1086.38
-1093.01
-1097.81
-1101.82
-1105.13
-1108.1
-1111.1
-1114.24
-1117.95
-1122.88
-1130.76
-1148.07
-1174.5
-1129.98
-1361.26
-1355.53
-1356.28
-1355.18
-1352.76
-1387.24
-1379.85
-1440.16
-1374.05
-1858.8
-80.6277
-976.498
-948.123
-906.679
-1102.87
-1101.96
-1102.68
-1148.58
-966.169
-895.681
-910.035
-985.659
-1039.68
-1052.78
-1050.24
-1043.92
-1032.65
-1047.56
-1044.78
-1063.31
-1071.09
-1085.2
-1092.27
-1097.48
-1101.63
-1105.04
-1108.09
-1111.19
-1114.57
-1118.92
-1125.76
-1138.61
-1174.76
-1286.28
-1628.47
-1353.51
-1354.24
-1355.76
-1354.51
-1348.2
-1381.49
-1371.71
-1413.77
-1285.43
-1269.96
-554.802
-964.516
-911.387
-845.133
-1074.14
-1103.08
-1104.83
-1156.03
-861.535
-852.257
-898.047
-977.793
-1034.77
-1051.13
-1048.9
-1043.01
-1034.96
-1050.35
-1043.9
-1061.79
-1069.06
-1083.81
-1091.24
-1096.73
-1100.99
-1104.47
-1107.58
-1110.74
-1114.22
-1118.93
-1126.77
-1142.17
-1185.52
-1287.7
-1462.41
-1349.94
-1354.03
-1355.79
-1353.39
-1344.93
-1376.64
-1365.28
-1390.85
-1211.19
-769.33
-503.477
)
;

boundaryField
{
    AirInlet
    {
        type            fixedFluxPressure;
        gradient        nonuniform List<scalar> 5(1.12297e+08 3.52361e+08 3.84851e+08 4.28289e+08 1.43032e+08);
        value           nonuniform List<scalar> 5(2871.8 5398.73 7471.88 6170.88 3518.99);
    }
    WaterInlet
    {
        type            fixedFluxPressure;
        gradient        nonuniform List<scalar> 10(-0.00520744 -1.22667 -4.59902 -3.70036 -2.83187 -0.0363819 -15.1126 -7.06182 -0.601541 -5.14831);
        value           nonuniform List<scalar> 10(-438.37 -443.896 -446.564 -446.208 -443.202 -1060.1 -1063.18 -1063.61 -1061.02 -1055.57);
    }
    ChannelWall
    {
        type            fixedFluxPressure;
        gradient        uniform 0;
        value           nonuniform List<scalar> 
110
(
-443.202
-480.412
-491.32
-474.475
-460.462
-1060.1
-1097.39
-1114.47
-1126.6
-1211.25
-1055.57
-1094.7
-1110.25
-1102.94
-1124.56
-964.516
-911.387
-845.133
-1074.14
-1103.08
-1104.83
-1156.03
-861.535
-852.257
-898.047
-977.793
-1034.77
-1051.13
-1048.9
-1043.01
-1034.96
-1050.35
-1043.9
-1061.79
-1069.06
-1083.81
-1091.24
-1096.73
-1100.99
-1104.47
-1107.58
-1110.74
-1114.22
-1118.93
-1126.77
-1142.17
-1185.52
-1287.7
-1462.41
-1349.94
-1354.03
-1355.79
-1353.39
-1344.93
-1376.64
-1365.28
-1390.85
-1211.19
-769.33
-503.477
-438.37
-478.606
-496.04
-490.378
-565.518
-670.527
-848.66
-1099.68
-1099.6
-1095.27
-1097.36
-1099.65
-1106.8
-1249.09
-1180.63
-1138.94
-1102.94
-1080.91
-1079.03
-1098.76
-1121.95
-1094.15
-1108.03
-1098.32
-1096.05
-1096.68
-1098.39
-1100.23
-1102.46
-1105
-1107.74
-1110.49
-1113.39
-1116.76
-1122.25
-1133.04
-1167.44
-1222.77
-1281.06
-1362.54
-1363.71
-1363.07
-1362.38
-1367.71
-1394.45
-1370.61
-1393.02
-1344.38
-1526.48
80.7684
)
;
    }
    Outlet
    {
        type            totalPressure;
        rho             rho;
        psi             none;
        gamma           1;
        p0              uniform 0;
        value           nonuniform List<scalar> 
15
(
-0.19408
0
0
0
0
-0.111749
-0.379405
-0.00080751
0
0
0
-0.127379
0
0
0
)
;
    }
    FrontAndBack
    {
        type            empty;
    }
}


// ************************************************************************* //
