/*--------------------------------*- C++ -*----------------------------------*\
| =========                 |                                                 |
| \\      /  F ield         | OpenFOAM: The Open Source CFD Toolbox           |
|  \\    /   O peration     | Version:  2.3.0                                 |
|   \\  /    A nd           | Web:      www.OpenFOAM.org                      |
|    \\/     M anipulation  |                                                 |
\*---------------------------------------------------------------------------*/
FoamFile
{
    version     2.0;
    format      ascii;
    class       surfaceScalarField;
    location    "0.1";
    object      phi;
}
// * * * * * * * * * * * * * * * * * * * * * * * * * * * * * * * * * * * * * //

dimensions      [0 3 -1 0 0 0 0];

internalField   nonuniform List<scalar> 
1380
(
3.11499e-13
1.88501e-13
2.72731e-13
3.87684e-14
2.31109e-13
4.16218e-14
9.79399e-14
1.33169e-13
3.93626e-13
-2.95686e-13
5.99098e-13
8.94026e-14
6.06268e-13
3.15987e-14
5.44378e-13
1.03512e-13
3.14315e-13
3.63232e-13
1.07266e-12
-3.64718e-13
6.83391e-13
-9.3988e-14
7.20681e-13
-5.69152e-15
6.85751e-13
1.38441e-13
4.73698e-13
5.75286e-13
1.71293e-12
-1.66569e-13
5.98238e-13
-1.92226e-13
6.12429e-13
-1.9883e-14
6.38348e-13
1.12523e-13
6.23014e-13
5.9062e-13
1.86431e-12
4.71628e-13
3.07774e-13
2.87891e-13
4.00414e-13
9.91033e-13
2.85535e-12
-6.80148e-14
-2.27672e-13
5.16853e-15
-7.31835e-14
-4.02944e-13
4.08112e-13
3.50118e-12
-3.90412e-12
3.16288e-12
3.38301e-13
3.73297e-12
-5.70091e-13
2.99955e-12
7.3342e-13
4.77761e-13
2.52179e-12
-2.82281e-13
7.60042e-13
-4.77546e-13
1.95265e-13
-6.21491e-13
1.43944e-13
-5.08265e-13
-1.13226e-13
-1.55085e-13
-3.5318e-13
1.267e-13
-2.81785e-13
1.43749e-13
-1.70493e-14
1.33412e-13
1.03371e-14
3.98285e-13
-2.64874e-13
2.06066e-13
1.9222e-13
1.61165e-13
4.49008e-14
2.05241e-13
-4.40764e-14
2.00403e-13
4.83812e-15
1.77475e-13
2.29282e-14
1.62062e-13
1.54127e-14
1.53383e-13
8.67878e-15
1.48862e-13
4.52149e-15
1.44932e-13
3.92971e-15
1.41132e-13
3.7996e-15
1.36889e-13
4.24304e-15
1.3512e-13
1.76882e-15
1.46317e-13
-1.11961e-14
2.37015e-13
-9.06984e-14
5.0365e-13
-2.66635e-13
1.13738e-12
-6.33729e-13
-1.71398e-12
2.85136e-12
1.76048e-13
-1.89003e-12
1.67868e-13
8.17844e-15
-1.44492e-14
1.82319e-13
9.02872e-14
-1.04734e-13
1.14783e-12
-1.05754e-12
6.97736e-13
4.50091e-13
3.28271e-13
3.69465e-13
-1.96097e-13
5.24368e-13
-9.71771e-13
7.75674e-13
-7.58307e-12
6.6113e-12
-1.88788e-12
-5.39675e-13
-5.27155e-14
-5.27162e-13
-8.56961e-14
-1.79515e-13
6.0465e-14
1.30823e-12
-5.39187e-12
4.01799e-12
-2.37146e-12
5.96677e-12
-2.51888e-12
4.83377e-12
1.86643e-12
8.66428e-13
6.48913e-12
-1.84652e-13
1.81112e-12
-7.68776e-13
7.79389e-13
-1.12986e-12
5.05025e-13
-9.29051e-13
-3.14031e-13
-2.5783e-13
-1.0244e-12
2.03421e-13
-7.43036e-13
2.9798e-13
-1.11608e-13
2.87937e-13
2.03803e-14
7.01664e-13
-6.78601e-13
4.93335e-13
4.00548e-13
4.28444e-13
1.09792e-13
5.21526e-13
-1.37158e-13
5.13988e-13
1.23762e-14
4.61951e-13
7.49656e-14
4.22614e-13
5.47494e-14
4.0045e-13
3.08423e-14
3.89241e-13
1.57304e-14
3.80284e-13
1.28872e-14
3.71009e-13
1.30739e-14
3.57337e-13
1.7915e-14
3.37876e-13
2.12298e-14
3.18808e-13
7.87239e-15
3.7964e-13
-1.5153e-13
6.89117e-13
-5.76112e-13
1.86903e-12
-1.81364e-12
-4.65496e-13
5.18589e-12
2.27093e-12
-4.62646e-12
1.04251e-12
1.2366e-12
5.63196e-13
6.61627e-13
4.24786e-13
3.36796e-14
1.0248e-12
-1.65755e-12
1.07978e-12
3.95113e-13
7.3802e-13
7.11224e-13
5.03355e-13
7.59033e-13
4.52228e-13
8.26801e-13
3.4116e-12
3.65192e-12
-1.42206e-12
-7.05085e-13
4.85801e-13
-5.90493e-13
-2.00288e-13
1.82043e-14
-5.48233e-13
-1.63376e-12
-3.73991e-12
2.96635e-12
-6.97156e-12
4.59659e-12
-4.14913e-12
8.22966e-13
5.64006e-12
-7.00518e-13
8.01262e-12
-9.73197e-14
1.20792e-12
-8.12063e-13
1.49413e-12
-1.25981e-12
9.52775e-13
-9.40277e-13
-6.33568e-13
-1.65097e-13
-1.79958e-12
2.42401e-13
-1.15053e-12
2.69794e-13
-1.39001e-13
3.28152e-13
-3.79781e-14
1.02572e-12
-1.37617e-12
6.9186e-13
7.34406e-13
5.68683e-13
2.32969e-13
7.2253e-13
-2.91005e-13
7.26421e-13
8.48517e-15
6.55915e-13
1.45472e-13
6.08581e-13
1.02083e-13
5.83678e-13
5.57458e-14
5.71832e-13
2.75757e-14
5.621e-13
2.26193e-14
5.51436e-13
2.37376e-14
5.33272e-13
3.60792e-14
5.01709e-13
5.27927e-14
4.46558e-13
6.30235e-14
4.13316e-13
-1.18287e-13
5.57914e-13
-7.2071e-13
1.71231e-12
-2.96804e-12
5.75449e-12
1.14371e-12
8.96973e-12
-7.84169e-12
3.49588e-12
6.71045e-12
1.67231e-12
2.4852e-12
8.77256e-13
8.28735e-13
1.06826e-12
-1.84855e-12
1.0275e-12
4.35872e-13
9.39585e-13
7.99137e-13
9.89049e-13
7.09569e-13
1.61089e-12
2.04961e-13
3.1199e-12
2.14292e-12
3.85397e-13
-4.24474e-13
1.3819e-12
-1.51735e-12
8.92592e-13
3.93375e-13
-2.45896e-12
4.61133e-13
-3.80767e-12
2.94234e-12
-9.45277e-12
3.12968e-12
-4.33647e-12
-4.57304e-12
1.33428e-11
-9.43202e-13
4.38278e-12
1.8133e-13
8.33914e-14
-7.24974e-13
2.40044e-12
-1.04305e-12
1.27085e-12
-6.14229e-13
-1.06239e-12
1.01653e-13
-2.51546e-12
3.33089e-13
-1.38197e-12
2.47246e-13
-5.31581e-14
3.01919e-13
-9.26519e-14
1.10086e-12
-2.17511e-12
7.34934e-13
1.10034e-12
6.59095e-13
3.08808e-13
8.74721e-13
-5.06631e-13
8.18778e-13
6.44285e-14
7.4516e-13
2.19089e-13
7.13478e-13
1.33765e-13
7.00354e-13
6.88703e-14
6.94888e-13
3.30409e-14
6.88101e-13
2.94072e-14
6.79706e-13
3.2132e-14
6.6119e-13
5.4596e-14
6.24051e-13
8.99314e-14
5.35484e-13
1.51591e-13
3.55578e-13
6.1619e-14
2.90112e-13
-6.55244e-13
9.28645e-13
-3.60657e-12
9.82472e-12
-7.75237e-12
9.94432e-12
-7.96129e-12
5.47115e-12
1.11836e-11
2.94291e-12
5.01344e-12
2.06113e-12
1.71051e-12
1.23926e-12
-1.02669e-12
8.61875e-13
8.13256e-13
9.61129e-13
6.99883e-13
1.0433e-12
6.27396e-13
1.41156e-12
-1.63295e-13
3.3151e-12
2.39373e-13
-1.41507e-13
1.91387e-12
2.32338e-12
1.54343e-12
1.26304e-12
2.56749e-12
-3.48303e-12
5.25965e-12
-6.49983e-12
6.39168e-13
-4.83229e-12
7.21046e-12
-1.09078e-11
1.34664e-11
7.08686e-12
7.9192e-12
9.92996e-12
7.9884e-13
7.20375e-12
-4.8935e-13
3.68863e-12
-4.73506e-13
1.255e-12
1.76244e-13
-1.71214e-12
5.33072e-13
-2.87229e-12
4.69729e-13
-1.31863e-12
2.71131e-13
1.4544e-13
1.88059e-13
-9.57967e-15
9.55627e-13
-2.94268e-12
8.11953e-13
1.24401e-12
8.27475e-13
2.93286e-13
8.0911e-13
-4.88267e-13
7.2438e-13
1.49158e-13
7.16284e-13
2.27186e-13
7.39987e-13
1.10062e-13
7.524e-13
5.64576e-14
7.59103e-13
2.63379e-14
7.58388e-13
3.01223e-14
7.55612e-13
3.49088e-14
7.41192e-13
6.90156e-14
7.10487e-13
1.20636e-13
6.15165e-13
2.46913e-13
3.23694e-13
3.5309e-13
-4.99438e-13
1.67887e-13
-2.88517e-12
-1.22084e-12
-2.04633e-12
-8.59121e-12
-2.97892e-13
-9.70973e-12
3.97804e-12
6.90769e-12
2.2445e-12
6.74698e-12
4.14895e-12
-1.93945e-13
1.43149e-12
1.69077e-12
5.48715e-13
1.69603e-12
7.89951e-13
4.58647e-13
9.62138e-13
4.5521e-13
1.27521e-12
-4.76366e-13
4.01234e-12
-2.49776e-12
-3.67146e-13
7.80808e-13
1.74257e-12
3.62257e-13
1.68159e-12
-1.83343e-13
-2.93743e-12
-1.54283e-12
-5.14034e-12
-1.24585e-12
-5.12927e-12
1.16601e-12
-1.33196e-11
8.81788e-12
-5.65004e-13
3.63075e-12
1.51171e-11
4.63418e-13
1.03711e-11
1.24681e-13
4.02736e-12
3.01067e-14
1.34958e-12
1.46642e-13
-1.82867e-12
1.76953e-13
-2.9026e-12
1.22361e-13
-1.26403e-12
3.4299e-14
2.33502e-13
1.23906e-13
-9.91871e-14
1.66154e-13
-2.98493e-12
1.99515e-13
1.21065e-12
1.80039e-13
3.12762e-13
1.1504e-13
-4.23267e-13
1.17368e-13
1.4683e-13
1.43964e-13
2.00589e-13
1.57986e-13
9.60399e-14
1.65235e-13
4.92084e-14
1.68683e-13
2.28904e-14
1.70292e-13
2.85131e-14
1.70609e-13
3.45915e-14
1.68861e-13
7.07637e-14
1.62901e-13
1.26596e-13
1.45694e-13
2.6412e-13
7.07847e-14
4.28e-13
-1.45975e-13
3.84647e-13
-4.54552e-13
-9.12266e-13
-1.83724e-12
-7.20852e-12
-1.50037e-12
-1.00466e-11
1.61051e-14
5.39122e-12
4.91969e-14
6.71389e-12
-2.15568e-12
2.01093e-12
-6.2261e-13
1.577e-13
5.24195e-14
1.021e-12
1.28897e-13
3.82169e-13
1.91059e-13
3.93048e-13
1.1562e-13
-4.00927e-13
-2.48996e-13
-2.13315e-12
-4.78067e-13
1.99559e-13
1.74301e-12
1.4507e-13
1.73608e-12
-2.20533e-12
-5.87026e-13
-3.0978e-12
-4.24787e-12
-1.41933e-12
-6.80774e-12
-7.66203e-13
-1.39728e-11
3.9121e-12
-5.24331e-12
2.64636e-12
1.63828e-11
5.75053e-13
1.24424e-11
2.12933e-13
4.38948e-12
7.15111e-14
1.491e-12
1.76237e-13
-1.9334e-12
1.97483e-13
-2.92385e-12
1.31004e-13
-1.19755e-12
5.22344e-14
3.12271e-13
1.32856e-13
-1.79809e-13
1.63827e-13
-3.0159e-12
1.98293e-13
1.17618e-12
1.79302e-13
3.31753e-13
8.47297e-14
-3.28695e-13
9.87171e-14
1.32843e-13
1.37712e-13
1.61595e-13
1.55227e-13
7.85252e-14
1.63876e-13
4.05593e-14
1.68133e-13
1.86336e-14
1.70373e-13
2.62723e-14
1.71153e-13
3.38121e-14
1.69922e-13
7.19947e-14
1.64678e-13
1.3184e-13
1.48437e-13
2.80361e-13
7.72663e-14
4.9917e-13
-1.05554e-13
5.67468e-13
-2.91763e-13
-7.26058e-13
3.86897e-13
-7.88718e-12
-3.49936e-12
-6.16035e-12
-1.17431e-12
3.06616e-12
2.49496e-13
5.29009e-12
-2.44355e-12
4.70398e-12
-8.84904e-13
-1.40095e-12
5.10752e-14
8.50256e-14
1.17245e-13
3.15999e-13
1.81757e-13
3.28537e-13
8.41739e-14
-3.03344e-13
-3.21694e-13
-1.72728e-12
-5.91154e-13
-2.38427e-13
2.18144e-12
1.0077e-13
1.39688e-12
-1.47422e-12
9.87965e-13
-1.79443e-12
-3.92766e-12
-1.3989e-12
-7.20326e-12
-3.30927e-12
-1.20624e-11
-1.07225e-11
2.16995e-12
-1.14312e-12
6.80342e-12
3.96518e-13
1.09028e-11
2.86443e-13
4.49956e-12
8.29217e-14
1.69452e-12
2.09499e-13
-2.05997e-12
2.17156e-13
-2.93151e-12
1.4905e-13
-1.12945e-12
8.5456e-14
3.75865e-13
1.40799e-13
-2.35152e-13
1.75075e-13
-3.05017e-12
2.3964e-13
1.11162e-12
1.84313e-13
3.87079e-13
4.89927e-14
-1.93374e-13
8.06833e-14
1.01152e-13
1.32372e-13
1.09906e-13
1.52794e-13
5.81029e-14
1.62497e-13
3.08561e-14
1.67147e-13
1.39833e-14
1.70057e-13
2.33625e-14
1.71371e-13
3.24987e-14
1.70595e-13
7.27702e-14
1.66141e-13
1.36294e-13
1.51055e-13
2.95447e-13
8.8419e-14
5.61806e-13
-5.44401e-14
7.10327e-13
-4.723e-13
-3.08198e-13
-4.92502e-13
-7.86698e-12
-5.14049e-12
-1.51236e-12
-2.05788e-12
-1.64474e-14
7.70554e-13
2.46166e-12
1.63408e-12
3.84046e-12
6.91264e-13
-4.58135e-13
8.59571e-14
6.90332e-13
1.08767e-13
2.93189e-13
1.71108e-13
2.66196e-13
1.05087e-13
-2.37324e-13
-3.19132e-13
-1.30306e-12
-8.09498e-13
-6.86949e-13
3.06838e-12
3.38899e-13
3.71035e-13
2.34815e-12
-1.02129e-12
1.22939e-12
-2.8089e-12
-9.2157e-13
-5.0523e-12
-4.47045e-12
-8.51351e-12
-1.11209e-11
8.82045e-12
-3.85323e-12
-4.64296e-13
1.88819e-13
6.8607e-12
3.75617e-13
4.31276e-12
1.68338e-13
1.9018e-12
2.64856e-13
-2.15649e-12
2.30436e-13
-2.89708e-12
1.64204e-13
-1.06322e-12
1.16173e-13
4.23897e-13
1.53199e-13
-2.72179e-13
1.7622e-13
-3.0732e-12
2.82197e-13
1.00564e-12
1.91716e-13
4.7756e-13
4.3586e-14
-4.52446e-14
8.50042e-14
5.97339e-14
1.35192e-13
5.9719e-14
1.54882e-13
3.84127e-14
1.63807e-13
2.19311e-14
1.67994e-13
9.79582e-15
1.70154e-13
2.12028e-14
1.7103e-13
3.16226e-14
1.70654e-13
7.31463e-14
1.67013e-13
1.39936e-13
1.52727e-13
3.09733e-13
9.84008e-14
6.16132e-13
-4.30105e-15
8.13029e-13
-1.18715e-12
8.74651e-13
-5.5986e-12
-3.45553e-12
-4.88782e-12
-2.22314e-12
-2.1672e-12
-2.73706e-12
1.20783e-12
-9.1337e-13
3.70786e-12
1.34043e-12
1.49336e-12
1.75636e-12
9.57999e-14
2.08789e-12
1.01886e-13
2.87103e-13
1.61202e-13
2.0688e-13
1.28211e-13
-2.04333e-13
-7.3352e-14
-1.1015e-12
-9.00266e-13
1.1996e-13
3.14842e-12
3.94963e-13
9.60321e-14
2.54255e-12
-3.16887e-12
1.9848e-12
-2.25115e-12
-9.61728e-13
-2.10578e-12
-4.19966e-12
-5.27558e-12
-5.25607e-12
9.87686e-12
-9.57634e-13
-4.76273e-12
3.86747e-13
5.51632e-12
4.20045e-13
4.27946e-12
3.29002e-13
1.99284e-12
3.24176e-13
-2.15167e-12
2.57272e-13
-2.83018e-12
1.76903e-13
-9.82848e-13
1.4572e-13
4.55079e-13
1.66027e-13
-2.92485e-13
1.51395e-13
-3.05856e-12
2.58861e-13
8.98177e-13
1.978e-13
5.38621e-13
7.55806e-14
7.69744e-14
9.39864e-14
4.13281e-14
1.38913e-13
1.4792e-14
1.56789e-13
2.05375e-14
1.64843e-13
1.38766e-14
1.68555e-13
6.0842e-15
1.70674e-13
1.90835e-14
1.71454e-13
3.08428e-14
1.70934e-13
7.36663e-14
1.67826e-13
1.43043e-13
1.54408e-13
3.23151e-13
1.09016e-13
6.61523e-13
-5.18931e-14
9.73938e-13
-1.31923e-12
2.14199e-12
-6.52882e-12
1.75406e-12
-2.68664e-12
-6.06533e-12
-1.23658e-12
-4.18712e-12
1.38981e-12
-3.53976e-12
2.18244e-12
5.47804e-13
5.57001e-13
3.3818e-12
9.07816e-14
2.55411e-12
9.62421e-14
2.81643e-13
1.42194e-13
1.60927e-13
1.1466e-13
-1.76799e-13
4.49782e-13
-1.43662e-12
-4.50348e-13
3.06614e-13
1.93386e-13
2.82148e-13
2.4466e-14
3.56891e-13
-7.4743e-14
8.0386e-13
-4.46969e-13
-1.53621e-12
2.34007e-12
5.98243e-13
9.51429e-14
6.11428e-13
1.12807e-14
6.42167e-13
-1.05482e-13
6.7589e-13
-4.80692e-13
-1.59344e-12
7.33121e-13
6.83871e-13
-8.87279e-14
7.22431e-13
-2.72794e-14
7.0442e-13
-8.74705e-14
5.29528e-13
-3.05801e-13
-1.13647e-12
7.25564e-14
5.99558e-13
-1.88286e-13
6.08939e-13
-3.66607e-14
5.60469e-13
-3.89998e-14
3.57073e-13
-1.02405e-13
-4.56631e-13
-3.22767e-13
3.11714e-13
2.75053e-13
2.36054e-13
1.33649e-13
-3.22983e-13
2.33434e-12
3.15416e-12
1.1296e-12
1.30077e-12
1.19326e-12
-3.23253e-12
-2.66409e-12
1.6062e-12
-2.04161e-12
-2.72826e-12
-8.53956e-12
1.22237e-12
-8.27017e-13
2.16432e-12
2.4433e-12
-8.03304e-12
3.50677e-12
4.45284e-12
2.72843e-12
5.05781e-12
2.39711e-12
2.32416e-12
2.00668e-12
-1.76124e-12
1.36747e-12
-2.19097e-12
1.00461e-12
-6.19992e-13
9.48102e-13
5.11587e-13
9.94958e-13
-3.39342e-13
4.09348e-13
-2.47295e-12
8.80248e-13
4.27277e-13
8.81704e-13
5.37165e-13
5.81946e-13
3.76732e-13
5.77655e-13
4.56195e-14
6.68522e-13
-7.60754e-14
7.23211e-13
-3.41506e-14
7.48025e-13
-1.09381e-14
7.59339e-13
-5.22992e-15
7.67624e-13
1.07986e-14
7.70826e-13
2.76412e-14
7.74275e-13
7.02171e-14
7.67466e-13
1.49852e-13
7.28472e-13
3.62145e-13
5.31157e-13
8.58838e-13
-5.86994e-13
2.09209e-12
-2.63896e-12
4.19396e-12
1.00103e-11
-1.08952e-11
7.2037e-12
-3.25876e-12
2.45019e-12
5.66393e-13
3.26254e-12
-4.35211e-12
-1.57474e-13
3.96781e-12
-4.43912e-13
3.66824e-12
1.2924e-13
1.98096e-12
3.6463e-13
4.62532e-14
3.50852e-13
1.74706e-13
7.1836e-14
1.02216e-13
7.16856e-13
-2.08164e-12
-9.68458e-13
7.68152e-13
3.11913e-12
-8.5325e-13
2.92217e-12
8.38733e-13
-4.92451e-12
3.40086e-12
-9.55928e-13
3.72405e-12
-3.05145e-12
1.06357e-11
-5.6893e-12
6.46968e-12
6.33037e-12
6.65887e-13
-2.22925e-12
1.52247e-12
3.59625e-12
2.2527e-12
4.32758e-12
2.72484e-12
1.85202e-12
2.24274e-12
-1.27913e-12
1.44068e-12
-1.38891e-12
1.10186e-12
-2.81175e-13
1.1883e-12
4.25145e-13
1.11215e-12
-2.63189e-13
2.98089e-13
-1.65889e-12
4.97128e-13
2.28237e-13
6.58238e-13
3.76055e-13
6.5932e-13
3.75651e-13
6.6586e-13
3.90791e-14
6.74552e-13
-8.4767e-14
6.87543e-13
-4.71423e-14
6.96199e-13
-1.95937e-14
6.99889e-13
-8.91995e-15
7.04726e-13
5.96205e-15
7.10327e-13
2.20397e-14
7.22082e-13
5.8462e-14
7.3948e-13
1.32454e-13
7.71346e-13
3.3028e-13
8.25908e-13
8.04276e-13
8.84152e-13
2.03385e-12
1.44172e-12
3.63639e-12
-1.77308e-12
-7.68037e-12
1.66402e-12
-6.69586e-12
2.00081e-12
2.29594e-13
-4.49303e-13
-1.902e-12
1.26911e-12
2.24939e-12
-5.91504e-14
4.9965e-12
2.01652e-13
1.72016e-12
3.44803e-13
-9.68977e-14
1.37227e-13
3.82282e-13
-6.00744e-13
8.40188e-13
-4.60227e-12
1.91989e-12
-1.0516e-12
7.10135e-13
2.48155e-12
1.22915e-12
2.40316e-12
5.34838e-14
-3.74885e-12
3.68995e-12
-4.59239e-12
2.90156e-12
-2.26307e-12
8.40766e-12
-1.11954e-11
-8.80304e-13
1.56183e-11
-1.05064e-12
-2.05892e-12
1.15859e-13
2.42976e-12
1.53897e-12
2.90447e-12
2.44226e-12
9.48739e-13
1.90389e-12
-7.4077e-13
1.1733e-12
-6.58319e-13
9.53689e-13
-6.15587e-14
1.10737e-12
2.71461e-13
9.91568e-13
-1.47384e-13
2.25806e-13
-8.9313e-13
2.95788e-13
1.58255e-13
4.59011e-13
2.12832e-13
5.95006e-13
2.39655e-13
6.19318e-13
1.47669e-14
5.96214e-13
-6.16631e-14
5.84958e-13
-3.58858e-14
5.81784e-13
-1.64198e-14
5.80264e-13
-7.39989e-15
5.83204e-13
3.02196e-15
5.91176e-13
1.40672e-14
6.11184e-13
3.84542e-14
6.52696e-13
9.09419e-14
7.5194e-13
2.31036e-13
9.8594e-13
5.70275e-13
1.61851e-12
1.40127e-12
1.51181e-12
3.7431e-12
-7.7637e-12
1.59514e-12
-7.41715e-12
-7.0424e-12
-2.61112e-12
-4.57644e-12
-2.09953e-12
-2.41358e-12
-3.62947e-14
1.86151e-13
-3.37196e-13
5.2974e-12
3.21188e-13
1.06177e-12
3.75918e-13
-1.51627e-13
3.37643e-13
4.20556e-13
-5.09988e-14
1.22883e-12
-1.42225e-12
3.29114e-12
-2.85704e-12
1.02883e-12
1.12996e-12
2.3677e-12
1.06428e-12
2.05018e-13
-1.58617e-12
-9.309e-13
-3.45647e-12
-2.80667e-12
-3.87297e-13
-7.66657e-12
-6.3355e-12
-1.00087e-12
8.95263e-12
-1.74686e-12
-1.31292e-12
-5.45656e-13
1.22855e-12
1.04282e-12
1.31599e-12
1.65676e-12
3.34797e-13
1.16108e-12
-2.45084e-13
6.89441e-13
-1.86684e-13
6.22939e-13
4.94358e-15
7.92836e-13
1.01564e-13
6.83239e-13
-3.77872e-14
8.35191e-14
-2.9341e-13
1.4981e-13
9.19639e-14
2.9316e-13
6.94821e-14
4.47757e-13
8.50589e-14
4.67031e-13
-4.50713e-15
4.32866e-13
-2.74981e-14
4.12512e-13
-1.55323e-14
4.03632e-13
-7.54037e-15
3.99646e-13
-3.41341e-15
4.01717e-13
9.50932e-16
4.10406e-13
5.37872e-15
4.33682e-13
1.51775e-14
4.8675e-13
3.78735e-14
6.18906e-13
9.88802e-14
9.361e-13
2.53082e-13
1.73269e-12
6.04681e-13
3.95951e-12
1.51628e-12
5.79377e-12
-2.39129e-13
7.32383e-14
-1.32187e-12
-2.48197e-12
-2.02123e-12
-3.30374e-12
-1.59181e-12
-2.02882e-12
-1.08877e-12
-3.0736e-13
3.57594e-12
4.32135e-13
3.22276e-13
3.73577e-13
-9.30689e-14
6.31151e-13
1.62982e-13
1.30173e-12
5.58252e-13
2.88645e-12
1.70642e-12
-6.74709e-13
8.06974e-13
1.87126e-12
2.85092e-13
-3.17138e-12
-3.55868e-12
-9.89418e-12
-9.41551e-13
-2.25447e-12
-1.02592e-12
2.90069e-13
6.24867e-13
3.79783e-13
1.93099e-13
1.98043e-13
2.99607e-13
2.6182e-13
-3.15905e-14
6.03734e-14
1.29855e-13
2.14914e-13
2.10407e-13
1.82909e-13
1.67377e-13
1.59836e-13
1.56423e-13
1.57374e-13
1.62753e-13
1.7793e-13
2.15803e-13
3.14683e-13
5.67765e-13
1.17245e-12
2.68873e-12
2.4496e-12
1.12773e-12
-8.93499e-13
-2.48531e-12
-3.57407e-12
1.87186e-15
3.24148e-13
2.31079e-13
3.94061e-13
9.52313e-13
2.65873e-12
)
;

boundaryField
{
    AirInlet
    {
        type            calculated;
        value           nonuniform List<scalar> 5(-2e-13 -2e-13 -2e-13 -2e-13 -2e-13);
    }
    WaterInlet
    {
        type            calculated;
        value           nonuniform List<scalar> 10(-5e-13 -5e-13 -5e-13 -5e-13 -5e-13 -5e-13 -5e-13 -5e-13 -5e-13 -5e-13);
    }
    ChannelWall
    {
        type            calculated;
        value           uniform 0;
    }
    Outlet
    {
        type            calculated;
        value           nonuniform List<scalar> 
15
(
-5.69519e-12
2.94578e-12
1.31244e-12
3.84201e-12
4.23798e-12
-1.38075e-13
-2.08606e-13
-1.00788e-13
1.7416e-14
-1.36491e-16
1.23497e-12
-4.51913e-12
3.83194e-13
7.04119e-13
1.98402e-12
)
;
    }
    FrontAndBack
    {
        type            empty;
        value           nonuniform 0();
    }
}


// ************************************************************************* //
