/*--------------------------------*- C++ -*----------------------------------*\
| =========                 |                                                 |
| \\      /  F ield         | OpenFOAM: The Open Source CFD Toolbox           |
|  \\    /   O peration     | Version:  2.3.0                                 |
|   \\  /    A nd           | Web:      www.OpenFOAM.org                      |
|    \\/     M anipulation  |                                                 |
\*---------------------------------------------------------------------------*/
FoamFile
{
    version     2.0;
    format      ascii;
    class       volVectorField;
    location    "0.1";
    object      U;
}
// * * * * * * * * * * * * * * * * * * * * * * * * * * * * * * * * * * * * * //

dimensions      [0 1 -1 0 0 0 0];

internalField   nonuniform List<vector> 
725
(
(0.0467687 0.00670712 -5.2841e-31)
(0.0502461 0.00203326 1.16282e-31)
(0.0333853 0.00118681 2.03154e-31)
(0.0437887 0.00215424 0)
(-0.0262012 0.00687492 -1.37391e-30)
(0.0904233 0.0140281 -2.44992e-30)
(0.104334 0.00852709 4.97701e-31)
(0.0804676 0.00824542 1.14661e-30)
(0.0867095 0.0170247 0)
(-0.0276199 0.0325049 -1.14968e-29)
(0.103133 0.0102107 -5.6584e-31)
(0.121332 0.0128002 1.25287e-31)
(0.0979681 0.0161666 1.14842e-30)
(0.108306 0.0354217 0)
(-0.0130873 0.0698942 -1.15299e-29)
(0.0911199 0.00393229 3.2082e-30)
(0.103608 0.0135799 -4.7295e-33)
(0.084133 0.0193516 3.05546e-31)
(0.107835 0.0506224 0)
(0.0210844 0.111421 -2.27472e-29)
(0.0469156 0.00211106 3.22677e-30)
(0.0495228 0.00845944 -3.61523e-31)
(0.0415941 0.010423 -2.00716e-31)
(0.0829173 0.0306421 -1.24624e-30)
(0.21184 0.0931062 -8.36506e-30)
(-0.0254418 -0.00654364 0)
(0.0120106 -0.00317888 0)
(-0.0180586 0.012421 0)
(-0.0341171 -0.115053 0)
(0.515765 0.0432618 0)
(0.44924 -0.00418884 0)
(0.460781 0.0188997 0)
(0.0913159 0.0694783 0)
(0.0149703 0.0162327 0)
(-0.0621994 -0.000969884 0)
(-0.0542256 0.00116791 0)
(-0.0788642 -0.00165631 0)
(-0.0352315 -0.00457201 0)
(0.00214609 -0.0042653 0)
(0.0220199 0.000622784 0)
(0.00424698 0.000697903 0)
(0.034956 -0.00442513 0)
(0.0406853 0.00434738 0)
(0.0112599 0.000377499 0)
(0.0222416 -0.000621185 0)
(0.0234053 3.86928e-05 0)
(0.0209817 0.000228379 0)
(0.0186273 0.000109112 0)
(0.0173627 6.27599e-05 0)
(0.0167212 3.2215e-05 0)
(0.0163175 3.91891e-05 0)
(0.0159104 3.11386e-05 0)
(0.0155187 6.25452e-06 0)
(0.0152381 -0.000155066 0)
(0.0148868 -0.000504807 0)
(0.0201307 -0.00228393 0)
(0.0292373 -0.00525947 0)
(0.0891973 -0.0146114 0)
(0.145457 0.075526 0)
(-0.266084 -0.12483 0)
(0.0293394 -0.0158701 0)
(0.0102467 0.00497874 0)
(-0.069608 0.0347209 0)
(0.142066 -0.00555254 0)
(0.093632 0.0156039 0)
(0.0727034 0.00655544 0)
(-0.0157188 0.0125615 0)
(-0.00186238 0.0222817 0)
(-0.288977 0.166479 0)
(-0.900835 0.000624914 0)
(-0.0459105 -0.0136794 0)
(-0.0535577 -0.00115479 0)
(-0.0626558 0.0156659 0)
(0.0271638 -0.253113 0)
(0.238649 -0.0466023 0)
(0.707685 -0.0632241 0)
(0.736635 0.0353494 0)
(0.155555 0.2258 0)
(0.0406271 0.0741141 0)
(-0.072133 0.0234164 0)
(-0.107316 0.015523 0)
(-0.142649 -0.00856506 0)
(-0.0609638 -0.0320207 0)
(0.00315791 -0.0251299 0)
(0.0409447 -0.00283061 0)
(0.0131585 0.00083476 0)
(0.0639826 -0.0211261 0)
(0.0802617 0.015155 0)
(0.03615 0.00376864 0)
(0.0549915 -0.00405513 0)
(0.0599081 0.000533525 0)
(0.0542983 0.00220459 0)
(0.048506 0.00154207 0)
(0.045298 0.000872253 0)
(0.0436911 0.000458191 0)
(0.0427393 0.000391142 0)
(0.0417847 0.000391975 0)
(0.0406663 0.000484244 0)
(0.0390063 0.000396958 0)
(0.0360232 -0.000547587 0)
(0.0387009 -0.0068932 0)
(0.0454796 -0.0231618 0)
(0.13102 -0.066262 0)
(0.203579 0.168545 0)
(-0.0837263 -0.0797718 0)
(0.252144 0.0426732 0)
(0.0751934 0.0126613 0)
(0.00398117 -0.0223446 0)
(0.130393 -0.0844293 0)
(0.117982 0.0227354 0)
(0.132633 0.0303569 0)
(0.005921 0.0350578 0)
(0.156999 0.0513575 0)
(-0.0863362 0.277402 0)
(0.595786 -0.165925 0)
(-0.0336784 0.00411069 0)
(-0.0891177 -0.0115493 0)
(-0.0712551 0.00878875 0)
(0.0955566 -0.203042 0)
(-0.225033 -0.264294 0)
(0.595455 -0.180365 0)
(0.270952 0.189319 0)
(-0.0946262 0.346483 0)
(0.0090377 0.0566945 0)
(-0.0375435 0.0568597 0)
(-0.13183 0.0364925 0)
(-0.150046 -0.0217586 0)
(-0.0517569 -0.0703214 0)
(0.0133466 -0.0491184 0)
(0.0423416 -0.00780995 0)
(0.00283633 0.000790978 0)
(0.0890636 -0.0480204 0)
(0.115617 0.028009 0)
(0.0492953 0.00823972 0)
(0.074233 -0.0101549 0)
(0.0838657 0.000321856 0)
(0.0767459 0.00538248 0)
(0.0693709 0.00395247 0)
(0.0657166 0.00221547 0)
(0.0639952 0.00112189 0)
(0.0629985 0.000910509 0)
(0.0619359 0.000936814 0)
(0.0605378 0.00134941 0)
(0.0580645 0.00181223 0)
(0.0528739 0.00145177 0)
(0.0508682 -0.0083581 0)
(0.0400514 -0.0362275 0)
(0.114784 -0.125951 0)
(0.149846 0.15323 0)
(0.993816 -0.329881 0)
(0.855187 0.268163 0)
(0.232084 0.0684461 0)
(0.101644 0.0191389 0)
(0.141683 -0.0964214 0)
(0.0911765 0.0221358 0)
(0.148713 0.0411442 0)
(0.0314113 0.0377112 0)
(0.231142 0.0290208 0)
(0.110215 0.215886 0)
(0.253843 0.0695863 0)
(0.0688228 0.0588874 0)
(-0.157027 0.013923 0)
(-0.120091 -0.107305 0)
(0.169102 -0.201643 0)
(0.092507 -0.393663 0)
(0.439582 -0.216036 0)
(-0.450465 0.543239 0)
(-0.0690975 0.313095 0)
(0.0134808 -0.00627473 0)
(0.00095597 0.0998128 0)
(-0.139461 0.0584465 0)
(-0.107092 -0.0415614 0)
(-0.0162546 -0.111691 0)
(0.0367003 -0.065986 0)
(0.0428401 -0.00667393 0)
(-0.00490954 -0.00342872 0)
(0.092512 -0.0896857 0)
(0.125464 0.0456226 0)
(0.0529771 0.0146783 0)
(0.0892908 -0.0205468 0)
(0.0974538 0.00106486 0)
(0.0865959 0.0093733 0)
(0.0801364 0.00629286 0)
(0.0782101 0.00337619 0)
(0.0774219 0.00163872 0)
(0.0768812 0.00137054 0)
(0.076088 0.00144451 0)
(0.0747761 0.00231811 0)
(0.0720451 0.00362725 0)
(0.0652845 0.00534066 0)
(0.0568701 -0.00243151 0)
(0.0185705 -0.0341025 0)
(0.079705 -0.168431 0)
(0.085736 -0.0604092 0)
(1.31011 -0.416382 0)
(1.23089 0.381153 0)
(0.401067 0.160116 0)
(0.269746 0.034019 0)
(0.175769 -0.0788198 0)
(0.0563124 0.0304987 0)
(0.145538 0.040134 0)
(0.038869 0.034466 0)
(0.218845 0.000444357 0)
(0.0847671 0.0818023 0)
(0.447805 0.00377998 0)
(0.283964 0.0652367 0)
(0.18846 0.0429523 0)
(0.112892 -0.151972 0)
(0.223722 -0.328736 0)
(0.532564 -0.261021 0)
(0.261339 -0.414856 0)
(1.80459 0.601721 0)
(0.965029 0.391316 0)
(0.193031 0.149287 0)
(0.0384084 0.147208 0)
(-0.118564 0.0579778 0)
(0.0012958 -0.0712603 0)
(0.0444499 -0.139788 0)
(0.0697334 -0.0707535 0)
(0.042436 0.000520083 0)
(-0.00279439 -0.000695045 0)
(0.0629184 -0.136518 0)
(0.119531 0.0630245 0)
(0.0810166 0.0135641 0)
(0.0911262 -0.0302212 0)
(0.0841504 0.00616861 0)
(0.080163 0.0132948 0)
(0.0807995 0.00695763 0)
(0.0830841 0.00356376 0)
(0.0840996 0.00168058 0)
(0.0844227 0.00163205 0)
(0.0842427 0.00176478 0)
(0.0833911 0.00320236 0)
(0.0812355 0.00537385 0)
(0.0748928 0.0102143 0)
(0.0634392 0.00920654 0)
(-0.00351003 -0.023981 0)
(-0.141814 -0.131658 0)
(-0.418176 -0.367328 0)
(-0.152994 -0.547264 0)
(0.320576 0.232875 0)
(0.351162 0.362626 0)
(0.374243 -0.0188904 0)
(0.223909 0.0175508 0)
(0.0122508 0.0668557 0)
(0.123048 0.0288302 0)
(0.0253756 0.0291174 0)
(0.220007 -0.0210047 0)
(0.0697865 -0.0888425 0)
(0.538615 -0.0326572 0)
(0.301404 0.0979164 0)
(0.317455 0.0749424 0)
(0.0656903 -0.161652 0)
(-0.24114 -0.290563 0)
(-1.17923 -0.26912 0)
(-0.136619 -0.611149 0)
(4.41681 0.111014 0)
(1.97292 0.616067 0)
(0.511524 0.431011 0)
(0.169761 0.191561 0)
(-0.0334112 0.0644397 0)
(0.0629226 -0.0884422 0)
(0.0866292 -0.144539 0)
(0.0912106 -0.0646824 0)
(0.0213581 0.00960693 0)
(0.02965 -0.00270041 0)
(0.0725525 -0.148224 0)
(0.0983884 0.0616963 0)
(0.109753 0.0150687 0)
(0.0649177 -0.0231789 0)
(0.0497202 0.00754432 0)
(0.0680406 0.0108416 0)
(0.0763474 0.0051997 0)
(0.0814908 0.00265864 0)
(0.0837383 0.00123862 0)
(0.0848983 0.0014707 0)
(0.085434 0.00174222 0)
(0.0851193 0.00350028 0)
(0.0837501 0.00618784 0)
(0.0788182 0.0127788 0)
(0.0668342 0.0195432 0)
(-0.00159214 0.0139926 0)
(-0.120419 -0.0552609 0)
(-0.45485 -0.412679 0)
(-0.640472 -0.528504 0)
(-0.957129 0.388616 0)
(0.388856 0.348663 0)
(-1.39722 0.072483 0)
(-0.182675 0.0396678 0)
(-0.0932327 0.0672628 0)
(0.102777 0.0209055 0)
(0.00940963 0.0211026 0)
(0.190299 -0.0224289 0)
(-0.11968 -0.118413 0)
(-0.0888783 -0.0231549 0)
(-0.0087221 0.0939065 0)
(0.173704 0.0851957 0)
(-0.0897987 -0.0842028 0)
(-1.11405 -0.237735 0)
(-2.03507 -0.328344 0)
(-0.322038 -0.683185 0)
(1.13014 -0.113539 0)
(1.5905 0.788805 0)
(0.434128 0.577012 0)
(0.223319 0.211055 0)
(-0.00181488 0.0703709 0)
(0.0771446 -0.0942143 0)
(0.0998716 -0.145859 0)
(0.0985608 -0.0616034 0)
(0.0245334 0.0136543 0)
(0.0433484 -0.00680247 0)
(0.0717494 -0.150282 0)
(0.092757 0.0600472 0)
(0.119303 0.0158333 0)
(0.0516229 -0.0191306 0)
(0.0344033 0.00715852 0)
(0.0634377 0.00918974 0)
(0.074544 0.00439545 0)
(0.080608 0.00225231 0)
(0.0832933 0.0010413 0)
(0.0847845 0.00137304 0)
(0.0856073 0.00171218 0)
(0.0855025 0.00357909 0)
(0.0844231 0.00647023 0)
(0.0800676 0.0136323 0)
(0.0682397 0.0232376 0)
(0.00338768 0.0245135 0)
(-0.0178172 -0.0427099 0)
(-0.328121 -0.401739 0)
(-0.34203 -0.394174 0)
(-1.77891 0.230371 0)
(0.378553 0.319309 0)
(-1.41533 0.164482 0)
(-0.291792 -0.0304239 0)
(-0.115089 0.0274748 0)
(0.0990746 0.0174278 0)
(0.00377336 0.0180039 0)
(0.185093 -0.018122 0)
(-0.132733 -0.0998228 0)
(-0.137153 -0.0263234 0)
(-0.271467 0.0928935 0)
(0.0685779 0.0792191 0)
(0.0107062 0.0146973 0)
(-0.70905 -0.198927 0)
(-1.37986 -0.331884 0)
(-0.585027 -0.667133 0)
(-6.97606 -0.0945611 0)
(-0.313228 0.617227 0)
(0.0554515 0.595838 0)
(0.223712 0.223107 0)
(0.0200202 0.0793754 0)
(0.0880907 -0.100448 0)
(0.111494 -0.146702 0)
(0.104706 -0.0582301 0)
(0.0370279 0.017325 0)
(0.0599205 -0.0104586 0)
(0.0714259 -0.151905 0)
(0.103653 0.0574384 0)
(0.139411 0.0178318 0)
(0.0385256 -0.0132661 0)
(0.0187322 0.00592352 0)
(0.0590527 0.00686315 0)
(0.0728337 0.00342846 0)
(0.0797021 0.00178911 0)
(0.0827161 0.00081648 0)
(0.0844639 0.00124444 0)
(0.0855552 0.0016592 0)
(0.0856802 0.00361994 0)
(0.0849027 0.00671158 0)
(0.0810768 0.0144131 0)
(0.0697412 0.026628 0)
(0.0135035 0.0325491 0)
(0.0334579 -0.0276219 0)
(-0.531983 -0.393869 0)
(-1.49657 -0.182928 0)
(-2.05943 0.103597 0)
(0.434288 0.20158 0)
(0.936132 0.2019 0)
(0.409413 -0.0521348 0)
(0.0122618 0.0179356 0)
(0.10778 0.0151988 0)
(-0.00171328 0.0147886 0)
(0.187947 -0.0136979 0)
(-0.119872 -0.0753046 0)
(-0.12872 -0.0357752 0)
(-0.425373 0.135789 0)
(0.0407581 0.0400112 0)
(0.297536 -0.00230773 0)
(1.0512 -0.172479 0)
(0.326491 -0.295711 0)
(-0.514375 -0.517523 0)
(-7.24827 0.369188 0)
(-1.88587 0.169029 0)
(-0.21434 0.45059 0)
(0.216071 0.220479 0)
(0.0663719 0.0896678 0)
(0.130056 -0.106108 0)
(0.126461 -0.146204 0)
(0.106807 -0.0548461 0)
(0.0492909 0.0201611 0)
(0.0775423 -0.0129342 0)
(0.0685267 -0.153514 0)
(0.112519 0.0530109 0)
(0.157344 0.0216904 0)
(0.0360378 -0.00594624 0)
(0.0178422 0.00402147 0)
(0.0610458 0.0042054 0)
(0.074189 0.00240093 0)
(0.0805748 0.00130983 0)
(0.0832448 0.000587085 0)
(0.0846914 0.00111314 0)
(0.0854961 0.00160329 0)
(0.0855876 0.00365268 0)
(0.0850731 0.00691881 0)
(0.0816448 0.0151462 0)
(0.0708704 0.029514 0)
(0.0273687 0.038064 0)
(-0.072577 0.0142445 0)
(-1.17029 -0.26935 0)
(-3.30205 -0.101701 0)
(-2.50217 -0.114711 0)
(0.446334 0.0215682 0)
(2.17644 0.14219 0)
(0.8206 0.0326044 0)
(0.0857076 0.0687075 0)
(0.109668 0.0145041 0)
(-0.00639623 0.0116171 0)
(0.190149 -0.0110651 0)
(-0.0896546 -0.0601584 0)
(-0.00433932 -0.0502932 0)
(-0.0564538 0.160648 0)
(0.137276 0.0076666 0)
(0.328018 -0.101895 0)
(1.18441 -0.125519 0)
(0.771524 -0.204671 0)
(-0.695242 -0.352136 0)
(-3.65093 0.26016 0)
(-0.716306 -0.155122 0)
(0.0179922 0.309741 0)
(0.287342 0.214745 0)
(0.123994 0.0979034 0)
(0.190176 -0.108209 0)
(0.146204 -0.143766 0)
(0.110564 -0.0512195 0)
(0.061054 0.022208 0)
(0.0943701 -0.0143987 0)
(0.0614021 -0.153982 0)
(0.0976322 0.0476883 0)
(0.155303 0.0255398 0)
(0.0452768 0.00105137 0)
(0.0298457 0.00243033 0)
(0.06381 0.00177753 0)
(0.0754316 0.00145169 0)
(0.0812482 0.000885162 0)
(0.0836308 0.000391613 0)
(0.0849456 0.00100395 0)
(0.0856703 0.00156085 0)
(0.0857295 0.0036735 0)
(0.0852705 0.00708575 0)
(0.0821607 0.0158436 0)
(0.071819 0.0320658 0)
(0.0350928 0.0443214 0)
(-0.149186 0.0733169 0)
(-1.18374 -0.0599262 0)
(-3.29793 -0.168516 0)
(-1.47812 -0.180445 0)
(0.412508 -0.114428 0)
(1.43008 0.0725666 0)
(0.424422 0.127811 0)
(0.0105922 0.116924 0)
(0.0992265 0.0141431 0)
(-0.0110572 0.00892319 0)
(0.182797 -0.0100645 0)
(-0.0704987 -0.0712172 0)
(0.232561 -0.0525834 0)
(0.0464866 -0.001983 0)
(0.0498799 -0.00844408 1.06789e-31)
(0.0381382 -0.00879586 4.30705e-31)
(0.0693716 -0.024178 2.29478e-30)
(0.150921 -0.0725593 0)
(0.090335 -0.00376131 0)
(0.10511 -0.0134808 0)
(0.0799311 -0.0167374 0)
(0.110255 -0.0442756 2.38091e-30)
(0.0163156 -0.0958246 0)
(0.102213 -0.0100744 0)
(0.123332 -0.0127454 0)
(0.0935596 -0.0144999 0)
(0.113825 -0.0320509 1.56009e-30)
(-0.0188746 -0.0688221 0)
(0.0895801 -0.0139555 0)
(0.106249 -0.00850393 0)
(0.0767016 -0.00765806 0)
(0.0895377 -0.0151431 -4.17315e-31)
(-0.0291599 -0.0366522 0)
(0.04632 -0.00672157 0)
(0.0513461 -0.0019457 0)
(0.0321624 -0.00120622 0)
(0.0409612 -0.00154379 -7.04559e-32)
(-0.025538 -0.00848683 0)
(0.360438 0.123569 0)
(0.114149 0.00737692 0)
(0.11533 -0.167066 0)
(0.129393 0.026974 0)
(-0.448423 -0.04625 0)
(0.156665 0.0922266 0)
(-1.37069 0.774166 0)
(0.117709 -0.49987 0)
(0.349649 0.235289 0)
(0.376059 0.237534 0)
(0.23221 0.119711 0)
(0.281287 -0.0996967 0)
(0.187258 -0.12957 0)
(0.119553 -0.0405213 0)
(0.0926129 0.0267171 0)
(0.138031 -0.0162665 0)
(0.0572275 -0.143989 0)
(0.0478027 0.0323088 0)
(0.135809 0.0310514 0)
(0.066044 0.0170416 0)
(0.0593236 0.000846584 0)
(0.0711827 -0.00343737 0)
(0.078149 -0.000925555 0)
(0.0823478 -0.000137395 0)
(0.084005 -7.82676e-05 0)
(0.0849108 0.000709545 0)
(0.085483 0.00145167 0)
(0.0858289 0.00367669 0)
(0.0856366 0.00746231 0)
(0.0835129 0.0176485 0)
(0.0741873 0.0394486 0)
(0.0576469 0.0772332 0)
(-0.163067 0.165482 0)
(-0.417477 -0.106755 0)
(1.37234 -0.221811 0)
(0.862604 -0.213385 0)
(0.31188 -0.307578 0)
(0.0958433 0.00102913 0)
(0.0377733 0.181952 0)
(-0.0541155 0.121641 0)
(0.0819965 0.00818349 0)
(-0.023647 0.0042815 0)
(0.147804 -0.00972585 0)
(-0.189298 -0.0950222 0)
(0.22353 0.0769167 0)
(0.195438 0.165087 0)
(-0.0897713 0.101032 0)
(-0.0223169 -0.22514 0)
(0.148129 0.0586751 0)
(0.456894 -0.0921624 0)
(0.911197 -0.177244 0)
(1.20748 0.174459 0)
(-0.0806135 -0.278479 0)
(0.197693 0.200841 0)
(0.190046 0.249665 0)
(0.269048 0.114873 0)
(0.315998 -0.0751487 0)
(0.200354 -0.090122 0)
(0.12276 -0.0221135 0)
(0.116963 0.0243963 0)
(0.160586 -0.0144028 0)
(0.06515 -0.103165 0)
(0.0114397 0.0135541 0)
(0.0894074 0.0230951 0)
(0.0641695 0.0215905 0)
(0.0760831 0.00270742 0)
(0.0749807 -0.00451485 0)
(0.0755878 -0.0024117 0)
(0.0771527 -0.000949162 0)
(0.0776913 -0.000434283 0)
(0.0780245 0.000389091 0)
(0.078508 0.00125116 0)
(0.0794427 0.0032845 0)
(0.080786 0.00723285 0)
(0.0830842 0.017824 0)
(0.0887175 0.0431636 0)
(0.109222 0.110287 0)
(0.0865358 0.226252 0)
(0.18073 -0.431045 0)
(-0.295902 -0.373108 0)
(0.289317 0.0275834 0)
(0.0022797 -0.151941 0)
(0.100225 0.145145 0)
(0.0183747 0.222074 0)
(-0.0274315 0.0964993 0)
(0.0855825 -0.00243481 0)
(-0.0303149 0.0128493 0)
(0.0953673 0.0228352 0)
(-0.336278 -0.0100081 0)
(-0.519791 -0.0226346 0)
(0.0506212 0.157837 0)
(0.0614403 0.162554 0)
(0.196829 -0.220292 0)
(-0.143399 -0.186119 0)
(0.642295 -0.136844 0)
(0.528358 -0.498357 0)
(0.401727 0.646624 0)
(-0.214425 -0.0530231 0)
(-0.0275912 0.162596 0)
(0.0578329 0.192611 0)
(0.253451 0.0697215 0)
(0.273003 -0.0515332 0)
(0.162118 -0.0491788 0)
(0.102094 -0.00655715 0)
(0.109018 0.0177324 0)
(0.146747 -0.0102006 0)
(0.0565554 -0.0628639 0)
(0.00150813 0.00869749 0)
(0.0566617 0.0146158 0)
(0.0524857 0.0159809 0)
(0.0729294 0.00141652 0)
(0.0678187 -0.00386171 0)
(0.0652131 -0.00225768 0)
(0.0648674 -0.00100657 0)
(0.06457 -0.000450988 0)
(0.064561 0.000210872 0)
(0.0650645 0.000914945 0)
(0.0665325 0.0024651 0)
(0.0694954 0.00571126 0)
(0.0761669 0.0143438 0)
(0.0946765 0.0351276 0)
(0.127464 0.0885022 0)
(0.20078 0.19213 0)
(0.135054 -0.151163 0)
(-1.37674 -0.289906 0)
(-0.551676 -0.0637973 0)
(-0.278125 -0.0917973 0)
(-0.0336584 0.0687811 0)
(-0.0565108 0.267775 0)
(-0.00192847 0.0683958 0)
(0.0890831 -0.00787438 0)
(-0.0302125 0.0229994 0)
(0.148976 0.0626236 0)
(-0.201666 0.133146 0)
(0.0281162 -0.190063 0)
(-0.0154489 0.0973826 0)
(0.213101 0.100218 0)
(0.264576 -0.124064 0)
(-0.161145 -0.238019 0)
(-0.0115281 -0.103973 0)
(-0.917223 -0.439477 0)
(-0.149835 0.493249 0)
(-0.28901 -0.0596666 0)
(-0.131324 0.0951049 0)
(0.0358098 0.0996698 0)
(0.18256 0.0251556 0)
(0.172287 -0.0237357 0)
(0.0936849 -0.017091 0)
(0.0631609 0.000563591 0)
(0.0765801 0.00921954 0)
(0.107286 -0.00465301 0)
(0.0306173 -0.0279062 0)
(-0.0072642 0.00721804 0)
(0.034995 0.00685428 0)
(0.0362668 0.0076064 0)
(0.0566918 4.855e-05 0)
(0.0500714 -0.00234819 0)
(0.0465653 -0.00135069 0)
(0.0452861 -0.000647598 0)
(0.0445743 -0.00028974 0)
(0.0444235 9.08064e-05 0)
(0.0449332 0.000484227 0)
(0.0465856 0.00133828 0)
(0.0503257 0.00324602 0)
(0.0592583 0.00832262 0)
(0.0837909 0.0207204 0)
(0.131679 0.0494548 0)
(0.303327 0.12871 0)
(0.40042 0.108386 0)
(0.567828 -0.236386 0)
(-0.333017 -0.206307 0)
(-0.361073 -0.116545 0)
(-0.328243 -0.0246851 0)
(-0.0836091 0.257684 0)
(0.0308426 0.0336484 0)
(0.0833814 -0.00819208 0)
(-0.0272798 0.0166968 0)
(0.208218 0.0511489 0)
(0.0480367 0.188449 0)
(0.226427 -0.00688152 0)
(-0.0220232 0.0205126 0)
(0.183073 0.0163027 0)
(0.18669 -0.0292342 0)
(-0.0463465 -0.0424146 0)
(-0.412411 0.0263201 0)
(-0.993784 -0.0792693 0)
(-0.207406 0.276 0)
(-0.282472 -0.0431849 0)
(-0.179452 0.0214784 0)
(-0.0173057 0.0211976 0)
(0.068831 0.0046001 0)
(0.0618555 -0.00382953 0)
(0.0274518 -0.00227083 0)
(0.0183604 0.000218644 0)
(0.0271176 0.00132782 0)
(0.0448773 0.000218637 0)
(0.00436084 -0.00421964 0)
(-0.00734764 0.00237799 0)
(0.0170718 0.000585616 0)
(0.0157695 0.00132176 0)
(0.0273728 -0.000541914 0)
(0.0216194 -0.00047486 0)
(0.0192632 -0.000271862 0)
(0.018129 -0.000140175 0)
(0.0175276 -6.44824e-05 0)
(0.0173785 1.52389e-05 0)
(0.0176873 8.30378e-05 0)
(0.0187457 0.00025104 0)
(0.0213799 0.000658505 0)
(0.0279986 0.0017774 0)
(0.0468617 0.00490192 0)
(0.0869936 0.0115289 0)
(0.203405 0.036888 0)
(0.281732 0.00927157 0)
(0.254133 0.0600823 0)
(-0.0425039 -0.0197936 0)
(-0.228662 -0.0343763 0)
(-0.466001 -0.0201334 0)
(-0.0423665 0.105094 0)
(0.0364941 0.00415773 0)
(0.0492592 -0.000401396 0)
(-0.019915 0.00245348 0)
(0.122709 0.0139292 0)
(0.0876863 0.0796116 0)
(0.272802 -0.00769567 0)
)
;

boundaryField
{
    AirInlet
    {
        type            fixedValue;
        value           uniform (0.1 0 0);
    }
    WaterInlet
    {
        type            fixedValue;
        value           uniform (0.1 0 0);
    }
    ChannelWall
    {
        type            fixedValue;
        value           uniform (0 0 0);
    }
    Outlet
    {
        type            pressureInletOutletVelocity;
        value           nonuniform List<vector> 
15
(
(-0.632799 0 0)
(0.595786 -0.165925 0)
(0.253843 0.0695863 0)
(0.447805 0.00377998 0)
(0.538615 -0.0326572 0)
(-0.0690373 -0 0)
(-0.104303 -0 0)
(-0.0503939 -0 0)
(-0.00433932 -0.0502932 0)
(-6.82455e-05 -0 0)
(0.22353 0.0769167 0)
(-0.502126 -0 0)
(0.0281162 -0.190063 0)
(0.226427 -0.00688152 0)
(0.272802 -0.00769567 0)
)
;
    }
    FrontAndBack
    {
        type            empty;
    }
}


// ************************************************************************* //
