/*--------------------------------*- C++ -*----------------------------------*\
| =========                 |                                                 |
| \\      /  F ield         | OpenFOAM: The Open Source CFD Toolbox           |
|  \\    /   O peration     | Version:  2.3.0                                 |
|   \\  /    A nd           | Web:      www.OpenFOAM.org                      |
|    \\/     M anipulation  |                                                 |
\*---------------------------------------------------------------------------*/
FoamFile
{
    version     2.0;
    format      ascii;
    class       volScalarField;
    location    "1.35";
    object      alpha.water;
}
// * * * * * * * * * * * * * * * * * * * * * * * * * * * * * * * * * * * * * //

dimensions      [0 0 0 0 0 0 0];

internalField   nonuniform List<scalar> 
2268
(
1
1
1
1
1
1
0.999999
0.999999
1
1
1
1
0.994993
0.972697
0.972567
0.972567
0.980407
0.996232
0.997795
0.997244
0.99532
0.987098
0.987098
1
1
1
1
0.999999
0.999999
1
1
1
1
1
1
0.994494
0.973756
0.972697
0.98987
0.999579
0.999919
0.999924
0.999928
0.999927
0.999077
0.987098
1
1
1
0.999999
0.999999
0.999999
1
1
1
1
1
1
0.998904
0.984083
0.99133
0.999642
0.999942
0.999929
0.997463
0.99904
0.999934
0.999942
0.996517
1
1
1
1
1
1
1
1
1
1
1
0.999999
0.999999
0.999495
0.999968
0.999963
0.99995
0.996015
0.99549
0.998939
0.999942
0.999943
0.999942
1
1
1
1
1
1
1
1
1
1
1
1
1
0.999998
0.999993
0.999991
0.992537
0.968559
0.997471
0.999942
0.999943
0.999943
0.999943
1
1
1
1
1
0.999999
0.999999
0.999999
0.999999
1
1
1
1
1
0.999998
0.999995
0.938403
0.954775
0.999386
0.999943
0.999943
0.999939
0.999939
0.999999
0.999999
0.999999
1
1
1
0.999999
0.999999
0.999999
0.999999
1
1
1
1
1
0.991632
0.914178
0.978143
0.99992
0.999943
0.999943
0.999942
0.99985
0.999995
0.999994
0.999996
0.999998
0.999999
1
1
1
1
1
1
1
1
1
1
0.907788
0.893877
0.992182
0.999925
0.999943
0.999943
0.999943
0.999937
0.991988
0.991988
0.993545
0.994779
0.994783
0.951201
0.862453
0.844238
0.830961
0.912083
0.964303
0.964303
0.915102
0.907949
0.907939
0.907939
0.918215
0.929664
0.929811
0.993016
0.994299
0.994792
0.994783
0.994781
0.917093
0.666394
0.609554
0.592996
0.591507
0.860898
0.964303
0.952519
0.909593
0.908462
0.907939
0.908054
0.908197
0.946887
0.994546
0.994696
0.994757
0.99478
0.994781
0.724522
0.595607
0.593651
0.591371
0.590249
0.659995
0.94688
0.960465
0.960791
0.960793
0.939158
0.908197
0.925889
0.95885
0.994444
0.994564
0.99471
0.994771
0.968781
0.675901
0.609364
0.767622
0.780003
0.603503
0.664928
0.909988
0.960591
0.960793
0.960793
0.96031
0.956819
0.959474
0.959839
0.994075
0.99405
0.994443
0.993241
0.778085
0.650613
0.735298
0.780009
0.780337
0.780514
0.653527
0.509744
0.648289
0.884836
0.960787
0.960391
0.959943
0.959873
0.959914
0.991732
0.991293
0.993368
0.876764
0.65119
0.653067
0.772826
0.780208
0.780298
0.780465
0.532609
0.31956
0.316673
0.521084
0.867661
0.959952
0.95973
0.959946
0.959925
0.96403
0.956555
0.987462
0.972178
0.805095
0.693885
0.773507
0.778801
0.73417
0.780752
0.411335
0.316673
0.316673
0.361387
0.648575
0.758851
0.851666
0.960003
0.959942
0.6527
0.578381
0.823001
0.939213
0.93857
0.851817
0.561098
0.441138
0.385347
0.549307
0.479027
0.438356
0.464429
0.311069
0.194169
0.125923
0.229107
0.642075
0.959921
0.999965
0.999962
0.999975
0.999987
0.999994
0.999998
1
1
1
1
1
1
1
1
0.962959
0.89017
0.891229
0.982394
0.989458
0.956538
0.966658
0.999943
0.999931
0.999814
0.999819
0.999887
0.999936
0.999971
0.999992
0.999999
1
1
1
1
1
1
1
0.92389
0.890299
0.933829
0.983002
0.945368
0.689982
0.55276
0.656716
0.605871
0.998541
0.998677
0.999114
0.99942
0.999718
0.999907
0.99998
0.999998
1
1
1
1
1
1
0.988775
0.961453
0.954377
0.884191
0.646329
0.387888
0.278242
0.203422
0.0543435
0.938043
0.933303
0.953955
0.965063
0.98055
0.996629
0.99969
0.999965
0.999996
1
1
1
1
1
1
0.99985
0.917971
0.484913
0.0772839
0.0625992
0.0921276
0.06919
0.015963
0.318994
0.308601
0.370674
0.473674
0.603152
0.643133
0.749677
0.912121
0.999044
0.999997
1
1
1
1
0.945877
0.712402
0.30088
0.0340556
0.00634736
0.00320539
0.00178132
0.00106891
0.0124382
0.0225396
0.0225396
0.0248803
0.181778
0.343528
0.21777
0.161164
0.336608
0.519309
0.713614
0.801781
0.827048
0.782654
0.562225
0.207988
0.0395406
0.0348786
0.026669
0.00401693
0.0018006
0.00100067
0.000706927
0.00166361
0.0225396
0.022644
0.0377623
0.213997
0.291431
0.126453
0.0215653
0.0196841
0.0326354
0.0847119
0.111125
0.11171
0.0820096
0.0433616
0.0429717
0.0449349
0.0443765
0.0327213
0.0138336
0.00100048
0.000706927
0.000551287
0.000451115
0.022644
0.0379737
0.106775
0.0791237
0.0819103
0.146569
0.0393602
0.0115157
0.00393132
0.00685413
0.0140028
0.0233874
0.0376097
0.0636459
0.0636275
0.0634283
0.0568055
0.0300088
0.0128476
0.00251456
0.000942285
0.00204549
0.00217838
0.0355913
0.0787975
0.00971254
0.000374029
0.00543196
0.0856946
0.0841207
0.0390809
0.000800487
0.00124118
0.0406824
0.05879
0.0591244
0.0491197
0.0374231
0.0061473
4.28739e-05
0.0055191
0.00438685
0.00342911
0.00294583
0.00271635
0.00164075
0.0469109
0.0481419
0.00158552
2.58923e-05
3.40043e-06
0.0164159
0.0424185
0.000819906
0.00064636
4.84161e-05
0.0133377
0.0361858
0.0224039
3.92011e-08
5.794e-08
1.34987e-07
3.62315e-05
1.0856e-05
3.57569e-05
0.000930219
0.00156041
0.00140651
4.38205e-05
0.045332
0.0175005
2.60252e-05
3.04906e-06
3.51039e-09
6.6231e-09
2.2068e-08
0.00160713
0.00161198
3.60109e-06
3.03812e-10
2.83795e-10
9.04621e-10
8.37567e-09
4.12625e-07
5.74188e-06
5.90758e-06
2.62165e-06
5.50992e-06
9.00564e-06
1.43219e-05
1.77453e-05
7.96944e-07
0.0284522
0.0114039
3.01804e-06
2.16044e-07
1.10848e-07
2.25246e-08
1.2868e-09
4.30009e-10
8.88906e-10
7.53147e-10
4.25066e-10
9.84781e-10
2.84613e-09
6.19541e-08
2.75837e-07
2.13036e-07
1.38068e-07
7.04627e-07
8.04463e-07
7.93595e-07
9.43455e-07
4.76595e-07
4.13589e-08
0.0115573
0.00457948
1.92104e-05
7.88016e-07
1.8077e-06
7.83505e-07
8.90582e-10
8.62348e-10
8.92033e-10
8.93873e-10
2.47459e-09
3.98006e-09
5.35139e-09
6.02314e-09
3.58259e-09
9.71646e-09
3.50519e-08
5.3101e-08
4.68591e-08
5.15646e-08
5.46908e-08
2.50973e-08
1.26498e-09
0.000497898
1.52675e-06
8.26235e-06
1.08369e-06
7.44488e-07
3.01446e-08
1.58012e-08
2.77618e-09
1.51563e-09
2.13143e-09
3.79238e-09
5.04912e-09
5.48718e-09
5.33963e-09
3.21994e-09
1.7699e-09
1.66687e-09
1.7121e-09
1.57576e-09
2.37184e-09
1.65621e-09
5.84398e-10
4.38301e-11
4.67927e-06
1.06455e-06
2.27746e-07
1.59557e-07
9.28204e-09
9.18387e-09
1.84414e-08
5.48294e-09
2.3562e-09
2.88374e-09
3.2525e-09
3.33428e-09
3.11045e-09
2.38202e-09
1.56274e-09
1.07135e-09
7.80755e-10
4.73346e-10
3.29755e-10
2.04116e-10
1.08726e-10
4.68376e-11
3.78744e-11
8.27309e-06
1.07007e-06
8.3464e-07
6.55531e-07
7.46041e-09
7.15733e-09
7.12045e-09
3.5683e-09
2.5903e-09
2.5999e-09
3.55125e-09
3.9516e-09
3.9521e-09
3.38838e-09
1.73327e-09
1.19217e-09
8.1263e-10
5.19636e-10
3.0577e-10
1.57677e-10
7.19673e-11
4.33076e-11
3.15463e-11
1.75611e-05
3.82476e-05
1.1067e-06
2.02149e-06
1.01559e-08
1.26231e-08
4.65425e-09
2.99843e-09
2.21651e-09
1.8817e-09
1.9776e-09
3.23845e-09
3.94603e-09
3.93828e-09
3.79074e-09
1.97296e-09
1.1806e-09
6.757e-10
3.39188e-10
1.48725e-10
6.93616e-11
4.01437e-11
2.37238e-11
1.08825e-05
4.79349e-05
2.51668e-05
3.08201e-06
1.487e-07
2.56046e-08
2.90129e-09
2.37837e-09
1.88679e-09
1.52717e-09
1.44048e-09
1.51041e-09
2.06605e-09
2.37521e-09
2.05711e-09
1.65703e-09
1.06546e-09
5.61345e-10
2.44099e-10
9.31486e-11
4.87574e-11
2.8184e-11
1.77091e-11
1.83771e-06
4.78169e-05
3.69826e-05
5.38354e-06
1.77599e-08
3.38332e-09
1.73533e-09
1.66643e-09
1.44339e-09
1.24243e-09
1.19142e-09
1.22325e-09
1.27318e-09
1.25335e-09
1.14902e-09
8.98393e-10
5.78726e-10
3.04913e-10
1.35717e-10
6.18925e-11
3.28067e-11
2.00211e-11
1.28756e-11
4.58051e-08
1.81602e-05
1.12672e-05
4.29164e-06
2.59357e-07
2.45319e-09
1.85367e-09
2.08061e-09
1.56183e-09
1.09546e-09
9.97648e-10
9.74111e-10
9.49341e-10
8.89329e-10
7.40628e-10
5.19934e-10
2.91449e-10
1.42343e-10
6.16487e-11
3.50413e-11
2.14854e-11
1.36961e-11
8.76795e-12
5.15911e-09
4.38809e-08
1.54893e-07
5.30437e-07
2.23248e-07
1.4599e-08
2.04021e-09
2.06766e-09
1.60658e-09
1.05909e-09
8.3103e-10
7.26115e-10
6.43757e-10
5.28142e-10
3.80845e-10
2.24836e-10
1.22501e-10
5.4426e-11
3.15201e-11
2.03808e-11
1.33072e-11
8.52755e-12
5.35075e-12
4.32293e-10
5.16373e-09
2.11943e-08
8.41573e-09
1.56655e-08
6.74677e-09
2.28003e-09
1.54109e-09
1.16001e-09
8.16136e-10
5.93361e-10
4.54283e-10
3.36963e-10
2.33823e-10
1.40295e-10
6.61409e-11
4.06895e-11
2.68797e-11
1.76304e-11
1.1265e-11
7.02105e-12
4.29417e-12
2.60219e-12
1.12259e-10
6.25861e-10
2.69168e-09
1.34523e-09
9.59545e-10
1.35661e-09
1.19288e-09
8.59091e-10
6.25446e-10
4.55855e-10
3.1896e-10
2.15218e-10
1.00662e-10
6.8069e-11
4.4208e-11
2.94303e-11
1.93634e-11
1.24805e-11
7.85609e-12
4.82753e-12
2.90268e-12
1.71781e-12
1.01278e-12
4.7816e-11
1.07831e-10
5.06526e-10
5.34877e-10
7.50708e-10
7.81188e-10
6.24999e-10
4.18529e-10
2.78829e-10
1.79211e-10
8.24747e-11
5.78597e-11
4.04961e-11
2.8205e-11
1.93153e-11
1.28235e-11
8.20934e-12
5.06858e-12
3.02719e-12
1.75705e-12
9.97476e-13
5.59291e-13
3.15622e-13
4.26578e-11
5.11625e-11
1.60277e-10
3.78617e-10
4.35008e-10
3.58104e-10
2.43526e-10
1.34082e-10
6.4623e-11
4.89137e-11
3.6568e-11
2.65619e-11
1.86301e-11
1.25639e-11
8.12944e-12
5.04324e-12
3.00329e-12
1.722e-12
9.5486e-13
5.15016e-13
2.72379e-13
1.43364e-13
7.82137e-14
3.5351e-11
3.83687e-11
9.23861e-11
1.41807e-10
1.15678e-10
7.44675e-11
5.5268e-11
4.13283e-11
3.35476e-11
2.43245e-11
1.71235e-11
1.1672e-11
7.63921e-12
4.77965e-12
2.85514e-12
1.63e-12
8.9188e-13
4.69671e-13
2.39297e-13
1.18781e-13
5.81821e-14
2.93333e-14
1.79595e-14
1.88304e-11
3.80245e-11
3.70808e-11
3.86812e-11
3.84415e-11
3.77425e-11
2.82237e-11
2.08051e-11
1.49862e-11
1.03276e-11
6.79691e-12
4.29139e-12
2.58506e-12
1.48169e-12
8.08267e-13
4.2066e-13
2.09691e-13
1.00608e-13
4.67517e-14
2.1298e-14
9.99247e-15
6.08545e-15
7.52653e-15
7.37025e-12
1.82416e-11
2.19525e-11
2.19562e-11
1.95169e-11
1.56758e-11
1.16319e-11
8.29613e-12
5.63953e-12
3.62243e-12
2.20119e-12
1.27393e-12
6.99354e-13
3.63954e-13
1.79894e-13
8.47571e-14
3.82435e-14
1.66226e-14
7.04433e-15
3.09305e-15
1.94736e-15
2.9559e-15
7.37131e-15
2.3394e-12
7.07825e-12
8.69826e-12
8.44924e-12
7.17272e-12
5.53701e-12
3.98323e-12
2.69769e-12
1.71276e-12
1.00998e-12
5.62851e-13
2.96368e-13
1.47269e-13
6.91559e-14
3.07941e-14
1.30632e-14
5.30994e-15
2.09384e-15
8.62694e-16
5.75697e-16
1.07747e-15
3.07832e-15
8.76125e-15
6.26233e-13
2.19542e-12
2.71592e-12
2.58205e-12
2.12614e-12
1.58515e-12
1.08876e-12
6.91548e-13
4.02705e-13
2.18016e-13
1.10766e-13
5.27727e-14
2.36086e-14
9.95328e-15
3.97435e-15
1.51201e-15
5.54881e-16
2.14013e-16
1.51546e-16
3.42981e-16
1.11043e-15
3.49407e-15
1.01918e-14
1.4317e-13
5.43116e-13
6.69489e-13
6.22861e-13
4.97167e-13
3.54987e-13
2.29544e-13
1.34173e-13
7.18629e-14
3.5662e-14
1.64448e-14
7.05517e-15
2.8286e-15
1.06619e-15
3.80374e-16
1.30011e-16
4.65754e-17
3.39132e-17
8.99528e-17
3.28884e-16
1.15398e-15
3.75925e-15
1.13442e-14
2.81445e-14
1.05697e-13
1.27838e-13
1.1565e-13
8.86319e-14
5.97225e-14
3.5896e-14
1.94996e-14
9.65892e-15
4.37673e-15
1.82104e-15
6.99843e-16
2.50344e-16
8.40373e-17
2.67888e-17
8.80539e-18
6.14296e-18
1.83296e-17
7.58416e-17
2.99753e-16
1.10167e-15
3.76706e-15
1.19912e-14
4.68369e-15
1.68061e-14
1.89684e-14
1.62537e-14
1.18371e-14
7.54267e-15
4.26469e-15
2.15212e-15
9.77086e-16
4.00746e-16
1.494e-16
5.11364e-17
1.62419e-17
4.846e-18
1.44804e-18
8.6884e-19
2.7299e-18
1.28188e-17
5.77451e-17
2.42368e-16
9.47204e-16
3.453e-15
1.17652e-14
6.56876e-16
2.21933e-15
2.3077e-15
1.84575e-15
1.26034e-15
7.50032e-16
3.93831e-16
1.82838e-16
7.51642e-17
2.75617e-17
9.12403e-18
2.76303e-18
7.75734e-19
2.10751e-19
9.65284e-20
2.80292e-19
1.48183e-18
7.67639e-18
3.73651e-17
1.69444e-16
7.13676e-16
2.79816e-15
1.02669e-14
7.72897e-17
2.45205e-16
2.33495e-16
1.729e-16
1.09522e-16
6.02782e-17
2.89384e-17
1.21284e-17
4.45038e-18
1.44461e-18
4.21072e-19
1.11966e-19
2.79365e-20
9.20156e-21
1.92398e-20
1.09355e-19
6.45809e-19
3.68087e-18
1.98164e-17
9.85093e-17
4.50625e-16
1.90823e-15
7.55102e-15
7.61178e-18
2.27627e-17
1.98984e-17
1.35975e-17
7.93008e-18
3.98409e-18
1.72539e-18
6.43866e-19
2.0815e-19
5.91293e-20
1.50237e-20
3.49023e-21
8.7116e-22
9.46829e-22
5.00157e-21
3.1762e-20
2.05818e-19
1.33958e-18
8.11554e-18
4.46324e-17
2.237e-16
1.03215e-15
4.43366e-15
6.31687e-19
1.78965e-18
1.45135e-18
9.15401e-19
4.90251e-19
2.22808e-19
8.60895e-20
2.82783e-20
7.95784e-21
1.95292e-21
4.27259e-22
8.92543e-23
4.30906e-23
1.56824e-22
9.2199e-22
5.95016e-21
4.41426e-20
3.3693e-19
2.33792e-18
1.4497e-17
8.11134e-17
4.14932e-16
1.96843e-15
4.40542e-20
1.21638e-19
9.26888e-20
5.4546e-20
2.67212e-20
1.09745e-20
3.74743e-21
1.06958e-21
2.58254e-22
5.39019e-23
1.00892e-23
2.50919e-24
4.42976e-24
2.00094e-23
1.02457e-22
6.05132e-22
5.45467e-21
5.04972e-20
4.14131e-19
2.98969e-18
1.92349e-17
1.12029e-16
6.00884e-16
2.6063e-21
7.1865e-21
5.27959e-21
2.93122e-21
1.32757e-21
4.89153e-22
1.46806e-22
3.59391e-23
7.31172e-24
1.27231e-24
2.17056e-25
1.43467e-25
4.61049e-25
1.71875e-24
6.17452e-24
2.64744e-23
3.03379e-22
3.57436e-21
3.63796e-20
3.20645e-19
2.4794e-18
1.70911e-17
1.06909e-16
1.29918e-22
3.73545e-22
2.74008e-22
1.46356e-22
6.18115e-23
2.05429e-23
5.3684e-24
1.1081e-24
1.8472e-25
2.63029e-26
6.40715e-27
1.31506e-26
3.7975e-26
1.01037e-25
1.97663e-25
3.91973e-25
4.99069e-24
7.94767e-23
1.08249e-21
1.2611e-20
1.27106e-19
1.12335e-18
8.84796e-18
5.29751e-24
1.75585e-23
1.32348e-23
6.95766e-24
2.75888e-24
8.27939e-25
1.86485e-25
3.15078e-26
4.10705e-27
5.16816e-28
4.34045e-28
1.18343e-27
2.51618e-27
4.31433e-27
3.78465e-27
1.82661e-27
9.10119e-27
2.2269e-25
4.76175e-24
8.63097e-23
1.3412e-21
1.80879e-20
2.14455e-19
1.91033e-25
7.27328e-25
5.95864e-25
3.1368e-25
1.19995e-25
3.2852e-26
6.31655e-27
8.27677e-28
7.62573e-29
1.64572e-29
4.28623e-29
9.63917e-29
1.40556e-28
1.40482e-28
4.41542e-29
6.34502e-30
5.72678e-31
7.94106e-31
4.36787e-29
2.12523e-27
8.8831e-26
3.24216e-24
1.04927e-22
0.961906
0.909354
0.890722
0.875255
0.379152
0.198522
0.189263
0.179313
0.0161077
0.0171196
0.0227463
0.0172756
0.0157336
0.0221117
0.0324712
0.0186914
0.0165441
0.016537
0.00296286
9.52109e-06
0.00114638
0.000151024
9.08766e-06
3.47583e-06
0.000237507
1.46251e-05
3.76045e-06
4.83675e-06
0.00130175
2.69305e-05
2.92232e-06
4.89649e-06
0.000230892
5.13188e-06
2.57087e-06
1.92432e-06
5.73612e-07
1.9395e-07
2.10732e-07
2.17462e-07
4.04597e-08
1.06854e-08
3.28729e-08
7.37268e-08
7.91189e-10
3.25634e-09
1.098e-08
3.33422e-08
2.30721e-10
1.1685e-09
4.27334e-09
1.14165e-08
6.5844e-11
2.57254e-10
9.16613e-10
2.68212e-09
4.3389e-11
8.74662e-11
1.51869e-10
2.12237e-10
2.79491e-11
2.63167e-11
2.8671e-11
2.60961e-11
1.66879e-11
1.44051e-11
1.47001e-11
1.37047e-11
1.3054e-11
1.05553e-11
8.93625e-12
8.09732e-12
9.87687e-12
7.82451e-12
6.39524e-12
5.46504e-12
6.81314e-12
5.34221e-12
4.2866e-12
3.57535e-12
4.11498e-12
3.18136e-12
2.51115e-12
2.05763e-12
1.9772e-12
1.51669e-12
1.19122e-12
9.73032e-13
7.60915e-13
5.79171e-13
4.53263e-13
3.70969e-13
2.32774e-13
1.75617e-13
1.38188e-13
1.15962e-13
5.77982e-14
4.52784e-14
3.88871e-14
3.75373e-14
1.55492e-14
1.56056e-14
1.79647e-14
2.27496e-14
9.39794e-15
1.26238e-14
1.7529e-14
2.46062e-14
1.04581e-14
1.491e-14
2.12157e-14
3.00224e-14
1.25854e-14
1.8013e-14
2.56413e-14
3.62524e-14
1.46902e-14
2.10836e-14
3.00966e-14
4.26968e-14
1.6472e-14
2.38282e-14
3.43325e-14
4.9291e-14
1.76256e-14
2.58576e-14
3.79415e-14
5.58663e-14
1.75687e-14
2.62948e-14
3.97313e-14
6.11023e-14
1.5605e-14
2.39784e-14
3.78593e-14
6.22013e-14
1.17056e-14
1.866e-14
3.14748e-14
5.67038e-14
7.05227e-15
1.19148e-14
2.22011e-14
4.49774e-14
3.26109e-15
6.07206e-15
1.30135e-14
3.01093e-14
1.07004e-15
2.32884e-15
5.93104e-15
1.57431e-14
2.1933e-16
5.98956e-16
1.83339e-15
5.64536e-15
2.4536e-17
9.05653e-17
3.371e-16
1.27888e-15
1.12629e-18
6.057e-18
2.93508e-17
1.63399e-16
2.38107e-21
3.18482e-20
4.20051e-19
7.62043e-18
0.277949
0.163122
0.361491
0.48605
0.532157
0.427289
0.192455
0.143823
0.196868
0.31617
0.479076
0.478897
0.47793
0.31587
0.107023
0.107023
0.123721
0.177969
0.452249
0.0507459
0.0376118
0.0860486
0.129289
0.168809
0.309173
0.212481
0.0561837
0.0362733
0.0550171
0.370026
0.47793
0.397079
0.113371
0.110588
0.189278
0.17986
0.0783115
0.0791136
0.0327943
0.0361362
0.0614129
0.127145
0.186454
0.241466
0.24053
0.197456
0.0243873
0.0243426
0.0782261
0.214837
0.216506
0.117212
0.172705
0.190441
0.146514
0.0776018
0.0768697
0.00339031
0.00830438
0.0189963
0.0547111
0.073125
0.123437
0.173903
0.126442
0.0230754
0.0233151
0.0242249
0.0408872
0.168288
0.190855
0.190855
0.190922
0.19084
0.126741
0.0768697
4.47668e-06
2.50145e-06
2.82611e-06
3.00771e-06
6.89168e-06
6.42352e-05
0.010392
0.0189801
0.022523
0.023289
0.0233138
0.0245242
0.147241
0.190457
0.190924
0.190659
0.188693
0.184751
0.163987
2.50145e-06
2.50145e-06
3.40092e-06
4.30525e-06
2.20101e-05
0.000178962
0.00755256
0.0306617
0.0471216
0.0353815
0.0243835
0.0246783
0.0376172
0.165695
0.19037
0.108422
0.0656397
0.10522
0.100123
8.8541e-06
2.02959e-05
3.39848e-05
2.75938e-05
0.000107897
0.00721579
0.0411287
0.0483661
0.0486969
0.0488546
0.0463696
0.0334785
0.0301679
0.0436914
0.0498971
0.00605143
0.00973234
8.85974e-05
8.85974e-05
1.54707e-05
1.86657e-05
2.76502e-05
0.000194886
0.000713418
0.00291889
0.0142139
0.0356891
0.0489406
0.0489049
0.0488746
0.0488293
0.0475782
0.0394617
0.00328644
0.00066898
0.00159852
0.000277717
8.85974e-05
1.19094e-06
1.39005e-06
5.35556e-06
2.93814e-05
9.94572e-05
8.36583e-05
0.00012235
0.00143498
0.00927228
0.0218177
0.0341775
0.0399599
0.0458733
0.0390442
0.0106954
0.000139843
0.00010476
0.000322732
9.51772e-05
3.32286e-07
9.29958e-06
2.29544e-05
1.79224e-05
1.23623e-05
5.89956e-06
8.37177e-06
4.09856e-05
0.00014961
0.000482196
0.000962036
0.00202834
0.00448497
0.00224901
0.00301317
0.000726437
9.37802e-05
9.78395e-05
8.55326e-05
1.05887e-06
2.3119e-05
2.89366e-05
2.85458e-05
1.4626e-05
4.64383e-06
5.09914e-06
8.51727e-05
0.000537731
0.000526627
0.000147727
4.79175e-05
4.97327e-05
5.02163e-05
5.17313e-05
0.000137964
9.2655e-05
8.56046e-05
8.55326e-05
1.27362e-07
9.38592e-06
2.8911e-05
2.90131e-05
2.34952e-05
4.48106e-06
4.49554e-06
6.63108e-05
0.000192563
0.000131806
3.72712e-05
4.58425e-05
4.83311e-05
5.74691e-05
9.94153e-05
0.00025856
0.000139433
8.55862e-05
0.000100153
4.15007e-08
1.01748e-06
2.13615e-05
2.90436e-05
2.74608e-05
4.47835e-06
4.42718e-06
7.55694e-06
7.24166e-06
1.20318e-05
1.47992e-05
5.14925e-05
0.000242249
0.000266601
0.00026675
0.00026627
0.000155886
0.000116797
0.000188155
1.48509e-08
6.81794e-08
1.21165e-05
2.90131e-05
2.9043e-05
1.47936e-05
4.47255e-06
4.43516e-06
4.62604e-06
9.63137e-05
0.00025875
0.000266672
0.000266711
0.00026674
0.000258871
0.00013341
0.000181746
0.000188215
0.000188241
1.07384e-09
1.18842e-08
1.86421e-06
2.29247e-05
2.89785e-05
2.89135e-05
8.004e-06
4.62604e-06
0.000113
0.000266119
0.000266393
0.000266669
0.000266672
0.000116229
2.52557e-05
9.53899e-05
0.000186676
0.000188226
0.000187908
4.57948e-11
5.49615e-10
9.29694e-09
3.95741e-06
2.73575e-05
2.89044e-05
2.74035e-05
7.70622e-06
6.19658e-05
0.000242722
0.000266119
0.000175675
1.69203e-05
5.71027e-08
2.92356e-08
2.24208e-07
6.79994e-05
0.000186779
0.000185572
1.20397e-11
2.47456e-11
3.10831e-10
5.74075e-09
2.42077e-06
2.20335e-05
2.76867e-05
2.64434e-05
6.53607e-06
2.72085e-05
4.60483e-05
8.09779e-06
5.71025e-08
3.94858e-08
1.695e-08
3.58171e-08
5.79068e-06
3.10985e-05
5.6598e-05
8.82426e-12
8.89351e-12
2.00444e-11
1.97695e-10
3.35321e-09
1.24266e-06
6.89318e-06
7.00628e-06
3.23469e-06
7.18722e-07
5.40448e-07
3.39506e-07
3.27597e-07
7.99013e-08
2.26795e-09
5.00555e-07
3.53134e-06
4.80209e-07
9.49967e-07
4.91851e-12
6.46194e-12
1.1041e-11
2.04925e-11
1.28693e-10
2.54631e-09
4.12102e-08
6.92832e-07
1.26898e-06
6.31062e-07
8.85929e-07
1.57695e-06
1.58009e-06
1.14953e-06
2.17124e-09
4.482e-09
7.59411e-10
2.58311e-09
8.25002e-05
2.98589e-12
3.20954e-12
4.99634e-12
1.72339e-11
1.81091e-11
1.14337e-10
2.22653e-07
1.02828e-06
1.09436e-06
3.26141e-07
3.28234e-07
1.16198e-06
1.2753e-06
2.12924e-07
2.12225e-09
1.65942e-09
7.3956e-10
7.01125e-06
0.000125469
1.67699e-12
1.81085e-12
2.62091e-12
5.39429e-12
9.7606e-12
1.31492e-11
4.71001e-08
4.17579e-07
8.96396e-07
8.23934e-07
8.11335e-08
6.5185e-08
4.58303e-08
2.49788e-09
4.25037e-09
4.86618e-09
6.74665e-10
7.95612e-05
0.000125546
8.01849e-13
9.12587e-13
1.43679e-12
2.87261e-12
6.65899e-12
8.43243e-12
1.09436e-11
6.04047e-10
2.35452e-07
6.42174e-07
3.14098e-07
8.88031e-08
6.68996e-09
2.49032e-09
5.63554e-09
4.79919e-09
6.02787e-10
0.000125272
0.000125546
3.23183e-13
4.20566e-13
7.86197e-13
1.77808e-12
4.15942e-12
8.46404e-12
1.14866e-11
4.49893e-11
4.08963e-10
7.20811e-08
3.12009e-07
1.88335e-07
3.66754e-09
2.367e-09
4.63843e-09
1.85821e-09
5.71106e-10
8.89449e-05
0.000125546
1.22805e-13
2.1304e-13
4.99262e-13
1.27137e-12
3.09884e-12
6.75888e-12
1.33643e-11
1.93311e-11
4.33178e-11
1.6028e-10
6.77026e-08
1.21959e-07
5.97372e-08
2.19865e-09
1.15287e-09
6.19022e-10
5.61705e-10
6.32713e-06
0.000125179
6.49041e-14
1.56753e-13
4.2012e-13
1.11173e-12
2.71097e-12
5.83999e-12
1.19357e-11
2.24206e-11
2.69283e-11
4.21514e-11
1.15832e-10
8.06451e-09
9.34177e-09
2.66264e-09
5.71316e-10
5.48858e-10
5.54951e-10
3.2414e-06
0.000124512
5.9919e-14
1.62698e-13
4.40084e-13
1.13793e-12
2.69286e-12
5.66104e-12
1.07772e-11
1.953e-11
3.37465e-11
3.89566e-11
5.0397e-11
1.02298e-10
1.76196e-10
3.33715e-10
5.43864e-10
5.417e-10
5.47055e-10
2.75902e-05
9.25212e-05
7.05869e-14
1.92331e-13
5.08214e-13
1.26623e-12
2.87855e-12
5.87229e-12
1.08664e-11
1.90367e-11
3.29788e-11
5.47597e-11
8.12372e-11
1.31703e-10
1.92722e-10
3.84075e-10
5.95337e-10
5.48443e-10
5.5495e-10
5.82284e-05
5.83784e-05
8.64343e-14
2.3384e-13
6.0671e-13
1.46917e-12
3.22481e-12
6.37405e-12
1.15125e-11
1.96857e-11
3.32024e-11
5.50447e-11
8.73318e-11
1.35567e-10
1.74996e-10
3.74718e-10
5.99454e-10
5.58208e-10
5.64423e-10
5.77691e-05
5.80687e-05
1.05418e-13
2.83812e-13
7.22642e-13
1.70895e-12
3.65412e-12
7.03355e-12
1.23998e-11
2.06784e-11
3.38202e-11
5.44479e-11
8.48157e-11
1.22407e-10
1.8701e-10
6.19931e-10
8.52323e-10
5.68577e-10
5.84139e-10
5.31775e-05
7.11831e-05
1.28872e-13
3.46053e-13
8.54249e-13
1.95433e-12
4.05219e-12
7.55248e-12
1.29409e-11
2.1161e-11
3.38058e-11
5.24322e-11
7.97949e-11
1.68074e-10
4.7597e-10
1.84754e-09
1.94378e-09
5.85794e-10
6.41018e-10
6.93058e-05
8.07212e-05
1.62558e-13
4.39954e-13
1.03235e-12
2.23488e-12
4.43398e-12
7.95861e-12
1.30928e-11
2.04865e-11
3.13316e-11
4.96365e-11
1.30609e-10
5.84274e-10
1.23843e-09
3.32853e-09
3.01784e-09
6.41151e-10
4.67181e-07
8.38186e-05
8.26857e-05
2.16433e-13
6.07575e-13
1.35516e-12
2.77133e-12
5.26773e-12
9.16551e-12
1.45999e-11
2.17846e-11
3.17382e-11
6.12609e-11
3.235e-10
8.28571e-10
1.23245e-09
6.41884e-09
5.81083e-09
7.49106e-10
3.49019e-05
8.41162e-05
4.13698e-05
2.95374e-13
8.8563e-13
1.96956e-12
3.9709e-12
7.43386e-12
1.26953e-11
1.99967e-11
2.95486e-11
4.31367e-11
1.13016e-10
5.00717e-10
6.21818e-10
2.98448e-09
6.81518e-09
6.42135e-09
9.5686e-10
3.45743e-05
8.41162e-05
3.09368e-05
3.80738e-13
1.22907e-12
2.92071e-12
6.09505e-12
1.12897e-11
1.84331e-11
2.77383e-11
4.00529e-11
5.71433e-11
1.61057e-10
4.73224e-10
7.27618e-10
2.87377e-09
6.81564e-09
4.43585e-09
1.2179e-09
1.21753e-05
6.26519e-05
1.45107e-05
4.2665e-13
1.47291e-12
3.92558e-12
9.07286e-12
1.72322e-11
2.62961e-11
3.43457e-11
4.66609e-11
1.26623e-10
5.43345e-10
1.44203e-09
2.04288e-09
2.81515e-09
2.64959e-09
1.44872e-09
1.39472e-09
4.18128e-06
1.29097e-05
6.03372e-06
3.94927e-13
1.45584e-12
4.40374e-12
1.20031e-11
2.61956e-11
4.0842e-11
5.16102e-11
6.05518e-11
3.26682e-10
1.56812e-09
2.19355e-09
2.19463e-09
1.6424e-09
1.48405e-09
1.514e-09
5.24705e-08
1.30609e-06
5.15122e-08
5.53513e-08
2.93691e-13
1.17794e-12
4.10285e-12
1.34209e-11
3.76499e-11
7.24699e-11
1.02375e-10
1.19135e-10
3.52367e-10
1.32713e-09
1.60757e-09
1.00445e-09
9.6384e-10
9.40398e-10
1.63769e-06
3.52057e-06
1.55784e-06
1.20916e-08
3.05773e-09
1.6621e-13
7.6114e-13
3.16108e-12
1.21838e-11
4.22011e-11
1.0612e-10
1.65643e-10
2.02309e-10
2.76425e-10
5.20193e-10
3.84593e-10
2.86778e-10
4.23108e-07
2.90567e-06
3.53477e-06
3.53975e-06
2.39807e-06
2.4066e-08
1.91857e-09
6.47572e-14
3.72485e-13
1.88715e-12
8.25309e-12
3.5099e-11
9.14141e-11
2.08721e-10
2.58802e-10
2.77476e-10
2.83708e-10
2.8388e-10
2.86887e-10
7.29493e-07
3.53477e-06
3.54031e-06
3.53802e-06
1.7019e-06
3.33692e-09
1.61229e-09
1.62906e-14
1.35123e-13
9.28639e-13
4.55052e-12
2.14435e-11
5.84746e-11
1.42985e-10
3.1886e-10
3.60239e-10
2.84773e-10
2.84357e-10
1.78371e-08
2.2206e-07
1.15574e-06
2.31627e-06
1.83632e-06
2.96981e-07
1.81993e-09
1.61137e-09
2.48301e-15
3.49451e-14
3.39165e-13
2.11208e-12
9.4299e-12
2.43977e-11
9.34358e-11
5.97687e-10
9.27237e-10
7.50084e-10
3.15632e-09
1.86165e-08
3.59584e-09
6.0529e-09
3.64536e-08
1.34568e-08
2.38229e-09
1.42852e-09
7.51417e-09
1.9586e-16
5.35452e-15
7.50631e-14
6.25467e-13
3.50779e-12
1.15478e-11
8.50399e-11
3.39575e-10
8.86276e-10
1.21638e-09
2.27678e-09
3.01172e-09
3.11468e-09
3.53524e-09
6.37758e-09
3.14161e-09
1.42864e-09
1.42669e-09
2.54341e-08
)
;

boundaryField
{
    leftWall
    {
        type            zeroGradient;
    }
    rightWall
    {
        type            zeroGradient;
    }
    lowerWall
    {
        type            zeroGradient;
    }
    atmosphere
    {
        type            inletOutlet;
        inletValue      uniform 0;
        value           nonuniform List<scalar> 
46
(
0
0
0
0
0
0
0
0
0
0
0
0
0
0
0
0
0
0
0
0
0
0
0
0
0
0
0
0
0
0
0
0
1.15478e-11
8.50399e-11
3.39575e-10
8.86276e-10
1.21638e-09
2.27678e-09
3.01172e-09
3.11468e-09
3.53524e-09
6.37758e-09
3.14161e-09
1.42864e-09
1.42669e-09
2.54341e-08
)
;
    }
    defaultFaces
    {
        type            empty;
    }
}


// ************************************************************************* //
