/*--------------------------------*- C++ -*----------------------------------*\
| =========                 |                                                 |
| \\      /  F ield         | OpenFOAM: The Open Source CFD Toolbox           |
|  \\    /   O peration     | Version:  2.3.0                                 |
|   \\  /    A nd           | Web:      www.OpenFOAM.org                      |
|    \\/     M anipulation  |                                                 |
\*---------------------------------------------------------------------------*/
FoamFile
{
    version     2.0;
    format      ascii;
    class       volScalarField;
    location    "1.35";
    object      epsilon;
}
// * * * * * * * * * * * * * * * * * * * * * * * * * * * * * * * * * * * * * //

dimensions      [0 2 -3 0 0 0 0];

internalField   nonuniform List<scalar> 
2268
(
0.0123886
0.0629449
0.12008
0.174992
0.224888
0.269043
0.307566
0.340745
0.368211
0.390886
0.412478
0.430607
0.445593
0.46707
0.512615
0.590132
0.684173
0.772062
0.801119
0.730908
0.559174
0.329291
0.105781
0.0233543
0.03913
0.0589881
0.078905
0.0980326
0.116291
0.133923
0.151255
0.168527
0.186195
0.205083
0.223833
0.242388
0.263092
0.289425
0.3224
0.355967
0.383793
0.391818
0.366706
0.305006
0.216338
0.132498
0.0407399
0.0471489
0.0604143
0.0739793
0.0871576
0.100084
0.113217
0.127106
0.142207
0.158874
0.17718
0.196108
0.21509
0.234905
0.257144
0.281711
0.304938
0.322492
0.327182
0.311352
0.270731
0.207715
0.181531
0.0604679
0.0606965
0.0711582
0.0820597
0.0926218
0.103085
0.114073
0.126301
0.140326
0.156421
0.174291
0.19299
0.211769
0.230911
0.251452
0.273013
0.292898
0.307697
0.312838
0.303086
0.274046
0.22401
0.215147
0.0830271
0.0776893
0.0862648
0.0954106
0.104197
0.112937
0.122396
0.133423
0.146617
0.162142
0.179454
0.197643
0.215973
0.234604
0.254314
0.274693
0.293682
0.308625
0.316316
0.312911
0.294546
0.258063
0.25449
0.109607
0.0980749
0.104725
0.11227
0.119475
0.126659
0.13472
0.144617
0.156961
0.171788
0.188385
0.205901
0.22372
0.242015
0.26138
0.281476
0.300794
0.31745
0.329156
0.332817
0.326525
0.31192
0.335277
0.14201
0.122198
0.126255
0.132014
0.137566
0.143127
0.14971
0.158382
0.169747
0.183723
0.199492
0.216286
0.233656
0.251802
0.271159
0.291498
0.311834
0.331091
0.347551
0.358535
0.36545
0.386344
0.519022
0.182642
0.150355
0.150707
0.154341
0.158044
0.161782
0.166693
0.173956
0.184162
0.197173
0.212075
0.228201
0.245248
0.263414
0.282988
0.303857
0.325553
0.347706
0.368844
0.386316
0.404678
0.467993
1.07009
0.103411
0.40742
0.53669
0.497151
0.456571
0.553677
0.859692
1.22792
1.325
1.16652
1.00231
0.897038
0.854532
0.836952
0.810532
0.670512
0.471858
0.265182
0.0519452
0.159109
0.26852
0.294064
0.277458
0.283065
0.359847
0.480656
0.583483
0.619981
0.591383
0.54737
0.501753
0.468612
0.441017
0.409557
0.351116
0.276866
0.190279
0.110338
0.286858
0.332883
0.318278
0.289431
0.286849
0.337633
0.413859
0.474601
0.500979
0.491032
0.466749
0.436618
0.408582
0.382616
0.353051
0.308959
0.253867
0.194003
0.189062
0.465479
0.428162
0.371566
0.327008
0.313328
0.343622
0.397367
0.443884
0.467578
0.463336
0.445193
0.421576
0.396957
0.373265
0.345647
0.306192
0.257288
0.209902
0.260203
0.715496
0.535303
0.427455
0.368065
0.345523
0.360673
0.399546
0.44034
0.464752
0.46264
0.446434
0.425511
0.402597
0.380929
0.355195
0.316994
0.26988
0.229692
0.320368
1.06715
0.645564
0.476472
0.405915
0.379235
0.384457
0.411844
0.450356
0.478642
0.477421
0.460798
0.441158
0.418204
0.397522
0.37371
0.334697
0.286919
0.250902
0.36988
1.56911
0.746219
0.512928
0.437726
0.412128
0.412169
0.430273
0.468234
0.503718
0.502784
0.48314
0.46416
0.44117
0.420131
0.398251
0.356541
0.306474
0.272863
0.413446
2.30073
0.805046
0.533147
0.462796
0.442571
0.441416
0.452216
0.490341
0.536211
0.535214
0.509923
0.490061
0.467437
0.447378
0.427465
0.380691
0.327425
0.295871
0.464634
0.239357
0.190563
0.187205
0.188841
0.190488
0.191894
0.194556
0.199894
0.20847
0.219985
0.233611
0.248882
0.26565
0.284029
0.304121
0.325955
0.349784
0.376051
0.403167
0.427723
0.4547
0.520841
0.769
0.358611
0.263326
0.249714
0.246597
0.243757
0.240235
0.238325
0.23993
0.245513
0.254665
0.266831
0.281583
0.298599
0.317669
0.338695
0.361813
0.387722
0.417227
0.447437
0.471666
0.493816
0.535496
0.630238
0.523719
0.35127
0.323938
0.314733
0.305698
0.295275
0.287263
0.284381
0.286989
0.294522
0.306369
0.321662
0.33951
0.359232
0.380726
0.40441
0.431382
0.462831
0.495199
0.515863
0.529922
0.552717
0.591969
0.749607
0.455994
0.410671
0.393661
0.376461
0.357137
0.341648
0.33384
0.333917
0.340915
0.353571
0.370069
0.388653
0.4082
0.428833
0.451754
0.478945
0.512278
0.548646
0.567543
0.575068
0.584024
0.595394
1.08938
0.587403
0.5105
0.482648
0.455433
0.426742
0.403045
0.389747
0.387447
0.394894
0.408883
0.426272
0.444546
0.462538
0.480867
0.501155
0.526369
0.56069
0.592346
0.611499
0.626558
0.627597
0.613583
1.53101
0.733098
0.612658
0.569605
0.532658
0.503027
0.474429
0.454158
0.448459
0.456673
0.47192
0.488617
0.503856
0.517976
0.532256
0.54709
0.564367
0.58912
0.616021
0.631437
0.657127
0.663811
0.646332
1.9622
0.848962
0.698353
0.647264
0.601978
0.575263
0.556218
0.527405
0.516348
0.526048
0.542087
0.554935
0.561922
0.566643
0.572216
0.578596
0.585521
0.597331
0.616577
0.64085
0.675732
0.690756
0.676096
2.09595
0.948416
0.799019
0.766768
0.686657
0.632884
0.614461
0.595718
0.588811
0.597674
0.604688
0.606116
0.600953
0.596217
0.5951
0.59698
0.601038
0.606997
0.621434
0.649425
0.689641
0.702737
0.68049
1.93838
1.02437
0.949177
1.00256
0.813255
0.690402
0.643459
0.63556
0.653595
0.654366
0.635883
0.623492
0.615297
0.611178
0.610387
0.615145
0.621518
0.618988
0.625545
0.650469
0.684366
0.691169
0.666664
1.78064
1.10645
1.09655
1.20248
0.967715
0.754905
0.673075
0.665562
0.696134
0.685293
0.651934
0.629018
0.620406
0.623011
0.62304
0.628936
0.63042
0.619511
0.619157
0.640591
0.663705
0.662461
0.638074
1.63206
1.10068
1.08761
1.05181
0.975918
0.819304
0.688662
0.65191
0.658701
0.673491
0.651945
0.624741
0.616193
0.612885
0.604809
0.598232
0.590772
0.586308
0.590115
0.608493
0.62123
0.614285
0.591542
1.47902
1.0328
1.00162
0.925273
0.877537
0.795435
0.676851
0.612774
0.595058
0.594345
0.587176
0.572595
0.564419
0.556683
0.547786
0.53931
0.534965
0.535632
0.542672
0.554152
0.559323
0.551949
0.53382
1.39107
0.965232
0.899691
0.825774
0.785136
0.712758
0.629455
0.572692
0.546391
0.535918
0.52676
0.515431
0.505897
0.498416
0.492205
0.487795
0.486508
0.48849
0.49316
0.497532
0.496945
0.489016
0.474044
1.61762
0.913228
0.788711
0.725804
0.67977
0.618497
0.562569
0.524266
0.503988
0.493562
0.485168
0.475975
0.467105
0.459745
0.454189
0.45042
0.448444
0.447852
0.447678
0.445916
0.440702
0.431492
0.419206
1.69984
0.840651
0.690844
0.627104
0.57815
0.530609
0.494728
0.472249
0.46084
0.455301
0.450691
0.444736
0.437681
0.430665
0.424421
0.419024
0.414327
0.409829
0.404882
0.39858
0.390525
0.381281
0.372499
1.50328
0.73336
0.601748
0.540022
0.494488
0.458209
0.43457
0.421896
0.416805
0.4154
0.414169
0.411135
0.406041
0.399634
0.392688
0.385532
0.378265
0.370813
0.362834
0.354299
0.345646
0.338022
0.333308
1.20741
0.626735
0.521625
0.467572
0.428359
0.399764
0.382341
0.37425
0.37185
0.372141
0.372455
0.371047
0.367364
0.361729
0.354736
0.346841
0.338378
0.329648
0.320884
0.312407
0.305047
0.300174
0.299653
0.894635
0.527632
0.450749
0.406375
0.373657
0.350155
0.33557
0.328715
0.326405
0.326378
0.326596
0.325592
0.322687
0.317889
0.311565
0.304157
0.296112
0.287901
0.280038
0.273179
0.268264
0.266535
0.269446
0.658701
0.44308
0.387554
0.352311
0.325379
0.305499
0.292292
0.285058
0.281739
0.280483
0.279788
0.278502
0.275967
0.272018
0.266832
0.260754
0.254222
0.247743
0.241899
0.237396
0.235105
0.236073
0.241453
0.474244
0.362215
0.328108
0.302384
0.280845
0.263999
0.251906
0.2441
0.23978
0.237284
0.235599
0.23388
0.231572
0.228449
0.22456
0.220136
0.21553
0.211184
0.207625
0.205478
0.205476
0.208464
0.215355
0.333428
0.288219
0.272238
0.255646
0.239386
0.225581
0.214918
0.207275
0.20232
0.199079
0.196765
0.194785
0.192723
0.190363
0.187685
0.184824
0.182029
0.179643
0.178086
0.17786
0.179546
0.183801
0.191326
0.235401
0.22496
0.221727
0.212759
0.201517
0.190927
0.182145
0.175368
0.170437
0.167083
0.164609
0.162644
0.160899
0.159206
0.157519
0.155907
0.154531
0.153636
0.153536
0.154615
0.157319
0.162155
0.169663
0.17304
0.173148
0.177316
0.174261
0.16763
0.160367
0.153831
0.148457
0.144286
0.141251
0.139018
0.137321
0.13597
0.134845
0.133904
0.133181
0.132778
0.132866
0.133674
0.135489
0.138653
0.143555
0.150611
0.135307
0.132648
0.139703
0.140735
0.138002
0.133893
0.129709
0.126009
0.122975
0.120646
0.118944
0.117698
0.116798
0.116171
0.115787
0.115667
0.115882
0.116553
0.117849
0.119986
0.123226
0.127868
0.134236
0.112555
0.102786
0.109632
0.11288
0.112975
0.111472
0.109418
0.107367
0.105573
0.10414
0.103108
0.10241
0.101991
0.101813
0.101866
0.102167
0.102771
0.103769
0.10529
0.107499
0.110599
0.114823
0.120424
0.0982411
0.0818865
0.0870157
0.0909518
0.0927103
0.0930402
0.0926505
0.0919951
0.0913286
0.0907844
0.0904376
0.090301
0.0903551
0.0905882
0.0910026
0.0916199
0.0924854
0.0936716
0.0952795
0.0974396
0.100311
0.104077
0.10894
0.0885395
0.0676791
0.0707644
0.0744545
0.07693
0.0783422
0.0790819
0.0794639
0.0796955
0.0799005
0.080174
0.0805525
0.0810395
0.0816394
0.0823636
0.0832355
0.084295
0.0856021
0.0872384
0.0893087
0.0919402
0.0952802
0.0994915
0.081445
0.0580196
0.0593289
0.0623773
0.0649715
0.0668971
0.0683039
0.0693746
0.0702519
0.0710319
0.071814
0.0726272
0.073486
0.0744024
0.0753917
0.0764771
0.0776937
0.0790917
0.0807386
0.08272
0.0851394
0.0881167
0.091785
0.0759573
0.0512908
0.0512595
0.0536069
0.0560261
0.0581112
0.0598557
0.0613392
0.0626423
0.0638451
0.0650155
0.0661748
0.0673384
0.0685194
0.0697325
0.0709988
0.0723483
0.0738231
0.0754794
0.0773883
0.0796353
0.0823196
0.0855518
0.0715982
0.0464424
0.0454691
0.0472067
0.0493522
0.0514134
0.0532929
0.0549991
0.0565748
0.0580787
0.0595357
0.0609619
0.0623687
0.0637658
0.0651652
0.0665836
0.0680461
0.0695879
0.0712559
0.0731099
0.0752219
0.0776751
0.0805628
0.0682211
0.0428559
0.0412429
0.0425005
0.0443721
0.0463329
0.0482386
0.0500652
0.0518267
0.0535357
0.0552022
0.0568329
0.0584319
0.0600038
0.0615557
0.0630999
0.0646563
0.0662541
0.0679331
0.0697441
0.0717488
0.0740183
0.0766326
0.0657159
0.0402124
0.0381396
0.0390346
0.0406741
0.0425295
0.0444358
0.0463386
0.0482208
0.0500764
0.0519014
0.0536919
0.0554441
0.0571564
0.0588309
0.0604753
0.0621051
0.0637445
0.0654277
0.0671989
0.0691117
0.0712283
0.0736183
0.0640185
0.0383575
0.0359517
0.0365772
0.038043
0.039817
0.041719
0.0436757
0.0456515
0.0476244
0.0495777
0.0514977
0.053373
0.0551961
0.0569647
0.0586829
0.0603624
0.062024
0.0636976
0.0654224
0.0672462
0.0692241
0.071418
0.0631221
0.0371786
0.0345316
0.0349826
0.0363455
0.0380842
0.0400075
0.0420278
0.0440949
0.0461741
0.0482379
0.0502641
0.0522354
0.05414
0.0559724
0.0577341
0.0594349
0.0610929
0.0627354
0.0643979
0.0661237
0.0679627
0.0699706
0.0630667
0.0366386
0.0338533
0.0342458
0.0355996
0.0373694
0.0393557
0.0414609
0.0436242
0.045801
0.0479563
0.0500621
0.0520975
0.0540482
0.0559074
0.0576758
0.0593624
0.0609841
0.0625663
0.0641421
0.0657512
0.0674392
0.0692565
0.0640944
0.0368888
0.0341431
0.0346265
0.0360647
0.0379166
0.0399872
0.0421774
0.0444211
0.0466679
0.0488779
0.0510204
0.053073
0.0550215
0.0568595
0.0585882
0.0602169
0.0617622
0.0632484
0.0647063
0.0661726
0.067689
0.0693007
0.0672692
0.0387145
0.0362153
0.0368496
0.0383447
0.0402208
0.0423101
0.0445176
0.0467722
0.0490178
0.0512107
0.0533183
0.0553185
0.0571982
0.0589524
0.060584
0.0621026
0.063525
0.0648741
0.0661787
0.067472
0.0687913
0.0701768
0.0764766
0.0446852
0.0419606
0.0422297
0.0433665
0.0449663
0.0468541
0.0489062
0.0510268
0.0531432
0.0552029
0.05717
0.0590219
0.0607466
0.0623405
0.0638073
0.0651572
0.0664061
0.067575
0.0686897
0.0697794
0.0708761
0.072014
0.104247
0.0608981
0.0543312
0.0522589
0.0519968
0.0527487
0.0540817
0.0557266
0.0575117
0.0593272
0.0611038
0.0627988
0.0643875
0.0658576
0.0672059
0.0684357
0.0695562
0.0705812
0.0715287
0.07242
0.0732791
0.074132
0.0750053
0.188827
0.0974478
0.0754813
0.0672412
0.0642618
0.0636404
0.0641357
0.0651637
0.0664301
0.0677783
0.0691218
0.070412
0.0716224
0.0727399
0.0737602
0.074685
0.0755209
0.0762781
0.0769697
0.0776117
0.0782217
0.0788182
0.0794199
0.459558
0.161329
0.101418
0.0843225
0.0786941
0.0769563
0.0767294
0.0771367
0.0778152
0.0785992
0.0794063
0.0801933
0.0809369
0.0816254
0.0822537
0.0828216
0.0833319
0.0837904
0.0842047
0.0845842
0.0849392
0.0852805
0.0856184
1.59492
0.208841
0.11343
0.0971212
0.0929305
0.0917021
0.0913975
0.091432
0.0916042
0.0918331
0.0920815
0.0923303
0.0925692
0.0927926
0.0929976
0.0931832
0.0933497
0.0934986
0.0936319
0.0937528
0.0938644
0.0939701
0.0940727
2.00916
1.83637
1.98922
2.35231
0.761121
0.806691
0.833657
0.837107
0.628668
0.647487
0.656281
0.654498
0.604346
0.605665
0.602865
0.600494
0.606937
0.60136
0.595535
0.590674
0.633676
0.623872
0.611046
0.593269
0.656183
0.638202
0.613944
0.589418
0.650936
0.628235
0.602545
0.577356
0.63391
0.609304
0.582581
0.557049
0.605339
0.58084
0.554895
0.530441
0.562887
0.541268
0.518758
0.498004
0.51074
0.493818
0.476948
0.461896
0.457031
0.445626
0.435091
0.426193
0.408617
0.402505
0.397693
0.394217
0.367833
0.366158
0.36592
0.366724
0.333699
0.33548
0.338586
0.342456
0.303812
0.307974
0.313329
0.319285
0.276076
0.281713
0.288417
0.295646
0.249477
0.255858
0.26319
0.27101
0.223905
0.23047
0.237877
0.245747
0.199739
0.206111
0.213218
0.220782
0.177523
0.183439
0.189991
0.196984
0.157683
0.162988
0.168839
0.175105
0.140428
0.145063
0.150163
0.155642
0.125749
0.129728
0.1341
0.138809
0.113479
0.116862
0.120573
0.124581
0.103357
0.106228
0.109372
0.112771
0.0950973
0.0975443
0.100218
0.103109
0.088421
0.090527
0.0928202
0.0952983
0.0830821
0.0849172
0.0869071
0.0890534
0.0788745
0.0804937
0.0822415
0.0841214
0.0756345
0.077078
0.0786286
0.0802912
0.0732413
0.0745353
0.0759189
0.077398
0.0716172
0.0727761
0.07401
0.0753255
0.0707296
0.0717579
0.072849
0.0740097
0.0705935
0.071489
0.0724366
0.0734432
0.0712773
0.0720339
0.0728326
0.0736803
0.0729087
0.0735191
0.0741623
0.0748448
0.075684
0.0761432
0.0766259
0.0771384
0.0798802
0.0801883
0.0805112
0.0808542
0.085871
0.0860373
0.0862106
0.0863948
0.0941467
0.0941942
0.0942433
0.0942958
1.17215
0.717553
0.538561
0.490596
0.484078
0.485851
0.488567
0.525111
0.591712
0.592817
0.556929
0.532129
0.507867
0.491436
0.47489
0.419951
0.359984
0.331538
0.562377
0.751495
0.614041
0.531284
0.509783
0.516635
0.521979
0.524986
0.553905
0.647379
0.680916
0.628408
0.586509
0.552444
0.535672
0.514833
0.457546
0.394129
0.353817
0.547438
0.632742
0.565583
0.525185
0.51562
0.522304
0.528969
0.536998
0.565867
0.645664
0.72508
0.700422
0.633891
0.573247
0.536866
0.502788
0.444939
0.389741
0.364225
0.432148
0.595919
0.555974
0.530537
0.524842
0.529118
0.536397
0.545385
0.570051
0.626554
0.693967
0.716881
0.652634
0.567233
0.519203
0.477185
0.425537
0.381578
0.364428
0.36753
0.575181
0.558358
0.555941
0.554658
0.556926
0.561079
0.559233
0.573367
0.615997
0.649131
0.65307
0.617347
0.554378
0.512609
0.477168
0.439946
0.408294
0.395126
0.400707
0.564027
0.557355
0.577676
0.597157
0.590066
0.559422
0.552831
0.571442
0.599093
0.612823
0.606563
0.582893
0.546604
0.517353
0.493399
0.470901
0.447641
0.444237
0.538622
0.556429
0.545217
0.560115
0.57856
0.564149
0.539448
0.539506
0.557089
0.575424
0.584446
0.583265
0.571967
0.547876
0.523651
0.50754
0.4978
0.479943
0.498784
0.692166
0.54244
0.522695
0.524903
0.533289
0.528886
0.520655
0.523941
0.53864
0.553863
0.562236
0.564877
0.561592
0.547633
0.526076
0.511669
0.50624
0.494726
0.516046
0.870371
0.521214
0.494773
0.486942
0.490492
0.495629
0.504374
0.514216
0.527035
0.540172
0.54581
0.547382
0.545076
0.534684
0.518693
0.506003
0.500411
0.499806
0.523794
0.889551
0.496715
0.46934
0.457624
0.457382
0.462458
0.471483
0.484486
0.496671
0.510925
0.522924
0.529626
0.528593
0.518646
0.50773
0.497645
0.492437
0.490581
0.500506
0.773848
0.470108
0.446963
0.43634
0.434916
0.438119
0.443052
0.45
0.457994
0.466802
0.477319
0.487028
0.492996
0.494143
0.49481
0.485996
0.472177
0.460365
0.451666
0.620557
0.442147
0.425921
0.41881
0.418165
0.420608
0.423522
0.426734
0.430842
0.436113
0.443319
0.452417
0.461317
0.467271
0.466638
0.454673
0.434515
0.411983
0.38489
0.461696
0.414864
0.406065
0.40306
0.40397
0.406393
0.40849
0.410031
0.411925
0.414526
0.417902
0.422087
0.425906
0.426523
0.420786
0.406528
0.38457
0.355518
0.320186
0.347298
0.390218
0.388095
0.388972
0.391601
0.39428
0.395747
0.395888
0.395576
0.395112
0.393833
0.391811
0.389222
0.384054
0.373904
0.357149
0.333879
0.306212
0.278192
0.305992
0.36858
0.372065
0.376455
0.380911
0.384161
0.385237
0.384029
0.381244
0.377354
0.371898
0.365004
0.356982
0.346907
0.333113
0.315102
0.294335
0.274803
0.262805
0.322143
0.348695
0.356819
0.36444
0.370931
0.375225
0.376485
0.374518
0.369823
0.363119
0.354569
0.344338
0.33273
0.319485
0.304304
0.287937
0.272524
0.261998
0.265161
0.365159
0.328703
0.3406
0.351172
0.359853
0.365656
0.367762
0.36588
0.360353
0.35202
0.341648
0.329544
0.316034
0.301568
0.286911
0.273332
0.26304
0.259627
0.274877
0.414193
0.307244
0.322016
0.335112
0.345929
0.353507
0.357003
0.35602
0.350772
0.342085
0.331008
0.318175
0.304078
0.289568
0.275859
0.264483
0.25784
0.259896
0.284726
0.458031
0.283849
0.300541
0.31556
0.328228
0.337585
0.342761
0.343267
0.339183
0.331214
0.320422
0.307704
0.293817
0.279804
0.267049
0.257338
0.253292
0.259429
0.290969
0.492265
0.258981
0.276585
0.292779
0.306811
0.317712
0.324579
0.326843
0.324448
0.317928
0.308233
0.296364
0.283303
0.270236
0.258645
0.250502
0.248557
0.257767
0.294263
0.520984
0.233684
0.251203
0.267756
0.28253
0.294545
0.302875
0.306879
0.306373
0.301712
0.293691
0.283311
0.271676
0.260082
0.250079
0.243639
0.243458
0.254893
0.295302
0.543532
0.20905
0.225733
0.241925
0.256798
0.269392
0.278787
0.284294
0.285623
0.282967
0.276963
0.268548
0.258853
0.249202
0.241124
0.236475
0.237901
0.25104
0.294482
0.557553
0.186021
0.20137
0.21665
0.231069
0.243723
0.25373
0.26039
0.263338
0.262635
0.25877
0.252575
0.245129
0.237704
0.231753
0.228982
0.231962
0.246455
0.292393
0.565497
0.165269
0.179021
0.193029
0.206578
0.218856
0.229049
0.236479
0.240742
0.241801
0.240013
0.236082
0.23098
0.225876
0.222113
0.221244
0.225721
0.241234
0.288728
0.570183
0.147144
0.159226
0.171784
0.184207
0.195793
0.205821
0.213663
0.218909
0.221455
0.221545
0.21975
0.216909
0.214055
0.212403
0.213357
0.219209
0.235415
0.283125
0.570659
0.131714
0.142195
0.153275
0.164461
0.175167
0.184776
0.192731
0.19864
0.202361
0.204048
0.204145
0.203348
0.202542
0.202787
0.205402
0.212448
0.229116
0.276084
0.564408
0.118847
0.127879
0.137564
0.147518
0.157266
0.166299
0.17414
0.180434
0.185021
0.187987
0.189667
0.190616
0.191573
0.19345
0.197466
0.205491
0.222457
0.268169
0.550038
0.108291
0.116067
0.124504
0.133307
0.142107
0.15049
0.158062
0.164515
0.169688
0.173618
0.176546
0.178908
0.181302
0.184507
0.189619
0.198375
0.215439
0.259654
0.530534
0.0997449
0.106465
0.113825
0.121603
0.129516
0.137237
0.144448
0.15089
0.156412
0.161017
0.164873
0.16831
0.171807
0.176013
0.181885
0.191126
0.208048
0.250727
0.511331
0.0929045
0.0987545
0.105207
0.112099
0.119214
0.126301
0.133106
0.139416
0.145097
0.15013
0.154626
0.158827
0.163109
0.16801
0.174368
0.183814
0.20039
0.241634
0.493964
0.0874915
0.0926281
0.098325
0.104462
0.110877
0.117376
0.123762
0.129861
0.135557
0.140818
0.145709
0.150403
0.155191
0.160518
0.167125
0.176513
0.192679
0.232634
0.47708
0.083267
0.087813
0.09288
0.0983753
0.104178
0.110142
0.116113
0.121953
0.127559
0.132891
0.137981
0.142948
0.148012
0.153544
0.160219
0.169468
0.185178
0.223835
0.457857
0.0800406
0.0840868
0.0886153
0.0935558
0.0988196
0.104295
0.109864
0.115414
0.120857
0.126144
0.131284
0.136352
0.141514
0.147087
0.153694
0.162724
0.177921
0.215087
0.435182
0.0776725
0.0812788
0.0853271
0.0897722
0.0945478
0.0995701
0.104747
0.109988
0.115215
0.120375
0.125454
0.130496
0.135627
0.141121
0.14756
0.156282
0.170898
0.206112
0.409796
0.0760787
0.0792738
0.0828731
0.0868549
0.0911697
0.0957554
0.100543
0.105459
0.110432
0.115404
0.120342
0.125266
0.130271
0.1356
0.141795
0.150122
0.164042
0.197569
0.390166
0.0752367
0.078026
0.0811831
0.0847077
0.0885637
0.0927087
0.0970945
0.101664
0.106351
0.111088
0.115828
0.120567
0.125377
0.130474
0.136364
0.144244
0.157414
0.189463
0.374691
0.0751917
0.0775647
0.0802703
0.083318
0.0866922
0.090367
0.0943177
0.098508
0.102874
0.107339
0.111837
0.116344
0.12091
0.125728
0.131277
0.138692
0.151135
0.181762
0.359846
0.0760634
0.0780006
0.0802307
0.0827677
0.0856128
0.0887561
0.0922067
0.0959628
0.099966
0.104124
0.10835
0.112595
0.116889
0.121407
0.126604
0.133575
0.145378
0.174767
0.346231
0.0780559
0.0795378
0.0812654
0.0832504
0.0854916
0.0879927
0.0908263
0.0940613
0.0976481
0.101469
0.105404
0.109376
0.113394
0.117613
0.122474
0.129052
0.140353
0.16885
0.335382
0.0814709
0.0824883
0.0836936
0.0850848
0.086619
0.0882606
0.09027
0.0928571
0.0959693
0.0994333
0.103079
0.106791
0.110551
0.1145
0.119065
0.125322
0.136295
0.164435
0.329176
0.0867283
0.0872958
0.0879819
0.0887574
0.0894549
0.0896838
0.0905298
0.0923321
0.0949469
0.0980754
0.101468
0.104964
0.108517
0.112248
0.116577
0.122594
0.133417
0.161877
0.329651
0.0943928
0.0945663
0.0947813
0.0949886
0.0948123
0.0917889
0.0911856
0.0922546
0.0944923
0.0974009
0.100642
0.104012
0.107443
0.111042
0.11522
0.12108
0.131879
0.161224
0.337491
)
;

boundaryField
{
    leftWall
    {
        type            epsilonWallFunction;
        value           nonuniform List<scalar> 
50
(
0.0123886
0.0233543
0.0407399
0.0604679
0.0830271
0.109607
0.14201
0.182642
0.239357
0.358611
0.523719
0.749607
1.08938
1.53101
1.9622
2.09595
1.93838
1.78064
1.63206
1.47902
1.39107
1.61762
1.69984
1.50328
1.20741
0.894635
0.658701
0.474244
0.333428
0.235401
0.17304
0.135307
0.112555
0.0982411
0.0885395
0.081445
0.0759573
0.0715982
0.0682211
0.0657159
0.0640185
0.0631221
0.0630667
0.0640944
0.0672692
0.0764766
0.104247
0.188827
0.459558
1.59492
)
;
        Cmu             0.09;
        kappa           0.41;
        E               9.8;
        value           nonuniform List<scalar> 
50
(
0.0123886
0.0233543
0.0407399
0.0604679
0.0830271
0.109607
0.14201
0.182642
0.239357
0.358611
0.523719
0.749607
1.08938
1.53101
1.9622
2.09595
1.93838
1.78064
1.63206
1.47902
1.39107
1.61762
1.69984
1.50328
1.20741
0.894635
0.658701
0.474244
0.333428
0.235401
0.17304
0.135307
0.112555
0.0982411
0.0885395
0.081445
0.0759573
0.0715982
0.0682211
0.0657159
0.0640185
0.0631221
0.0630667
0.0640944
0.0672692
0.0764766
0.104247
0.188827
0.459558
1.59492
)
;
    }
    rightWall
    {
        type            epsilonWallFunction;
        value           nonuniform List<scalar> 
50
(
0.0519452
0.110338
0.189062
0.260203
0.320368
0.36988
0.413446
0.464634
0.562377
0.547438
0.432148
0.36753
0.400707
0.538622
0.692166
0.870371
0.889551
0.773848
0.620557
0.461696
0.347298
0.305992
0.322143
0.365159
0.414193
0.458031
0.492265
0.520984
0.543532
0.557553
0.565497
0.570183
0.570659
0.564408
0.550038
0.530534
0.511331
0.493964
0.47708
0.457857
0.435182
0.409796
0.390166
0.374691
0.359846
0.346231
0.335382
0.329176
0.329651
0.337491
)
;
        Cmu             0.09;
        kappa           0.41;
        E               9.8;
        value           nonuniform List<scalar> 
50
(
0.0519452
0.110338
0.189062
0.260203
0.320368
0.36988
0.413446
0.464634
0.562377
0.547438
0.432148
0.36753
0.400707
0.538622
0.692166
0.870371
0.889551
0.773848
0.620557
0.461696
0.347298
0.305992
0.322143
0.365159
0.414193
0.458031
0.492265
0.520984
0.543532
0.557553
0.565497
0.570183
0.570659
0.564408
0.550038
0.530534
0.511331
0.493964
0.47708
0.457857
0.435182
0.409796
0.390166
0.374691
0.359846
0.346231
0.335382
0.329176
0.329651
0.337491
)
;
    }
    lowerWall
    {
        type            epsilonWallFunction;
        value           nonuniform List<scalar> 
62
(
0.0123886
0.0629449
0.12008
0.174992
0.224888
0.269043
0.307566
0.340745
0.368211
0.390886
0.412478
0.430607
0.445593
0.46707
0.512615
0.590132
0.684173
0.772062
0.801119
0.730908
0.559174
0.329291
0.105781
0.105781
0.132498
0.181531
0.215147
0.25449
0.335277
0.519022
1.07009
2.00916
1.83637
1.98922
2.35231
0.103411
0.159109
0.286858
0.465479
0.715496
1.06715
1.56911
2.30073
0.103411
0.40742
0.53669
0.497151
0.456571
0.553677
0.859692
1.22792
1.325
1.16652
1.00231
0.897038
0.854532
0.836952
0.810532
0.670512
0.471858
0.265182
0.0519452
)
;
        Cmu             0.09;
        kappa           0.41;
        E               9.8;
        value           nonuniform List<scalar> 
62
(
0.0123886
0.0629449
0.12008
0.174992
0.224888
0.269043
0.307566
0.340745
0.368211
0.390886
0.412478
0.430607
0.445593
0.46707
0.512615
0.590132
0.684173
0.772062
0.801119
0.730908
0.559174
0.329291
0.105781
0.105781
0.132498
0.181531
0.215147
0.25449
0.335277
0.519022
1.07009
2.00916
1.83637
1.98922
2.35231
0.103411
0.159109
0.286858
0.465479
0.715496
1.06715
1.56911
2.30073
0.103411
0.40742
0.53669
0.497151
0.456571
0.553677
0.859692
1.22792
1.325
1.16652
1.00231
0.897038
0.854532
0.836952
0.810532
0.670512
0.471858
0.265182
0.0519452
)
;
    }
    atmosphere
    {
        type            inletOutlet;
        inletValue      uniform 0.1;
        value           nonuniform List<scalar> 
46
(
0.1
0.1
0.1
0.1
0.1
0.1
0.1
0.1
0.1
0.1
0.1
0.1
0.1
0.1
0.1
0.1
0.1
0.1
0.1
0.1
0.1
0.1
0.1
0.1
0.1
0.1
0.1
0.1
0.1
0.1
0.1
0.1
0.0917889
0.0911856
0.0922546
0.0944923
0.0974009
0.100642
0.104012
0.107443
0.111042
0.11522
0.12108
0.131879
0.161224
0.337491
)
;
    }
    defaultFaces
    {
        type            empty;
    }
}


// ************************************************************************* //
