/*--------------------------------*- C++ -*----------------------------------*\
| =========                 |                                                 |
| \\      /  F ield         | OpenFOAM: The Open Source CFD Toolbox           |
|  \\    /   O peration     | Version:  2.3.0                                 |
|   \\  /    A nd           | Web:      www.OpenFOAM.org                      |
|    \\/     M anipulation  |                                                 |
\*---------------------------------------------------------------------------*/
FoamFile
{
    version     2.0;
    format      ascii;
    class       volScalarField;
    location    "1.35";
    object      k;
}
// * * * * * * * * * * * * * * * * * * * * * * * * * * * * * * * * * * * * * //

dimensions      [0 2 -2 0 0 0 0];

internalField   nonuniform List<scalar> 
2268
(
0.00249528
0.00617745
0.00951915
0.012192
0.014342
0.0160808
0.0174971
0.0186563
0.0195821
0.0202991
0.0209676
0.0215396
0.0220139
0.0226625
0.0240051
0.0262429
0.0288864
0.0312051
0.0320173
0.0301755
0.0253747
0.0179459
0.00849165
0.00517446
0.0140267
0.0207182
0.0259613
0.0301418
0.0335446
0.0364042
0.0389059
0.0411628
0.0432221
0.0450667
0.0467488
0.0483612
0.0504195
0.053827
0.0586684
0.0638665
0.0675457
0.0679826
0.0637847
0.054041
0.0376807
0.0163415
0.00752354
0.0193961
0.0278003
0.0342734
0.0393929
0.0435487
0.0470701
0.0502231
0.0531772
0.0560118
0.0586765
0.0611891
0.0637039
0.0667492
0.0710983
0.0766679
0.0822465
0.0859738
0.0859887
0.0807495
0.0689346
0.0491337
0.0202604
0.00980384
0.0243872
0.0341125
0.0414346
0.0471495
0.0517504
0.0556544
0.0592003
0.0626026
0.065954
0.069171
0.072278
0.0754582
0.0792229
0.0841819
0.0901194
0.0958276
0.0995612
0.0994202
0.0937724
0.0808055
0.058364
0.0227937
0.0121231
0.0293926
0.0403758
0.0484315
0.0546006
0.0594952
0.0636277
0.0674114
0.0711014
0.0747916
0.0783867
0.0819223
0.0856089
0.0899246
0.0953237
0.101511
0.107351
0.111242
0.111333
0.105802
0.0923604
0.0677717
0.0253512
0.0146001
0.0345657
0.0468223
0.055576
0.0621242
0.0672116
0.0714589
0.0753591
0.0792091
0.0831037
0.0869494
0.0908008
0.0948916
0.0996525
0.105398
0.111798
0.117832
0.12208
0.12277
0.117852
0.104741
0.0790878
0.0298714
0.0173593
0.0400311
0.0535792
0.0630136
0.0698843
0.0750771
0.0793364
0.0832442
0.087143
0.0911387
0.0951469
0.0992445
0.103678
0.108819
0.11486
0.121466
0.127763
0.132542
0.134105
0.130246
0.118361
0.0938926
0.0392912
0.0205265
0.0459213
0.0607501
0.0708406
0.0779733
0.083179
0.0873461
0.0911569
0.095003
0.0990268
0.103145
0.107453
0.112194
0.117669
0.123971
0.13078
0.137386
0.14279
0.145365
0.142829
0.13289
0.112609
0.0629718
0.00821849
0.0213873
0.0261651
0.0253012
0.0233451
0.025062
0.0324086
0.0411112
0.0442021
0.0411938
0.0374765
0.0348448
0.0336416
0.0331108
0.0324214
0.0286885
0.0227169
0.015444
0.00655635
0.0197351
0.0454635
0.0552091
0.0555189
0.0534475
0.0578815
0.0720564
0.0861745
0.0919391
0.0886449
0.0824878
0.0781389
0.0755599
0.0737544
0.0704373
0.0628144
0.0507038
0.0360355
0.0152557
0.0292347
0.0615741
0.0741095
0.075894
0.0751488
0.0804592
0.0947188
0.108969
0.115608
0.113457
0.107377
0.102256
0.0983961
0.0950128
0.0898911
0.0804099
0.0661776
0.0484469
0.0218738
0.0402118
0.0771016
0.0914508
0.0942793
0.0941994
0.0993081
0.112423
0.126126
0.133154
0.131874
0.126027
0.120411
0.115535
0.110873
0.104335
0.0933976
0.0776542
0.0578759
0.0270163
0.0532947
0.0931595
0.108556
0.112041
0.112242
0.116627
0.128074
0.141145
0.148642
0.1479
0.142174
0.136058
0.130185
0.124393
0.116681
0.104332
0.0871244
0.0655785
0.0309445
0.069282
0.110106
0.125464
0.129224
0.129703
0.133263
0.142709
0.155172
0.163485
0.16299
0.157132
0.150572
0.143573
0.136595
0.12786
0.113986
0.095242
0.072023
0.0339429
0.0893619
0.128122
0.141873
0.145541
0.14648
0.149362
0.15669
0.168569
0.178153
0.177704
0.171238
0.16427
0.156253
0.147924
0.138247
0.122647
0.102284
0.0775151
0.0364198
0.115202
0.147052
0.157344
0.160699
0.16227
0.164751
0.170068
0.181324
0.192646
0.192096
0.184467
0.176836
0.167941
0.158582
0.148007
0.130343
0.108357
0.0823642
0.0392354
0.0245611
0.0542302
0.0713226
0.0826616
0.0903477
0.0956562
0.0997364
0.103444
0.107238
0.111271
0.115526
0.120139
0.125323
0.131256
0.137912
0.145011
0.152088
0.15844
0.162549
0.162129
0.155611
0.143451
0.123675
0.0320854
0.0685165
0.0886473
0.101395
0.109365
0.114237
0.117655
0.120778
0.124144
0.127931
0.132243
0.137189
0.142859
0.149265
0.156286
0.163705
0.171266
0.178531
0.184021
0.18533
0.182188
0.177184
0.172878
0.0412025
0.0862026
0.109234
0.123033
0.130755
0.134582
0.13684
0.139085
0.141931
0.14556
0.150079
0.155442
0.161535
0.168207
0.175342
0.182831
0.190589
0.198427
0.205046
0.207325
0.206212
0.204933
0.205135
0.0523935
0.107514
0.132826
0.147319
0.154369
0.156677
0.157405
0.158611
0.160963
0.164585
0.169423
0.175167
0.18146
0.188041
0.194874
0.202078
0.209814
0.218128
0.226038
0.229226
0.229267
0.229056
0.228957
0.0672965
0.131481
0.158247
0.17315
0.179436
0.180404
0.179506
0.179526
0.181347
0.185087
0.190201
0.196069
0.202165
0.208232
0.214392
0.220896
0.22814
0.236699
0.243863
0.247842
0.25094
0.251026
0.247877
0.0835575
0.155313
0.182698
0.197598
0.203438
0.205026
0.203424
0.201942
0.202935
0.206745
0.211989
0.217495
0.22269
0.227704
0.232825
0.238035
0.243512
0.250044
0.256359
0.25987
0.265975
0.268233
0.265434
0.0970457
0.171023
0.201421
0.218261
0.22445
0.227797
0.228773
0.225456
0.225169
0.229173
0.234416
0.238852
0.242011
0.244769
0.247837
0.25108
0.254187
0.257866
0.262633
0.268319
0.276742
0.281225
0.279366
0.0985632
0.180073
0.219453
0.244218
0.246591
0.245767
0.247516
0.246566
0.247158
0.250828
0.253937
0.255764
0.256176
0.25677
0.258252
0.260354
0.262698
0.264985
0.268705
0.275344
0.285073
0.289258
0.285632
0.0917402
0.184011
0.241396
0.287471
0.274528
0.261697
0.258044
0.259669
0.265764
0.267612
0.265105
0.263949
0.26376
0.264525
0.266027
0.268653
0.271361
0.271566
0.273409
0.279432
0.287879
0.290682
0.286321
0.087121
0.183357
0.256915
0.317842
0.304365
0.276966
0.266885
0.268868
0.277724
0.277035
0.271417
0.268113
0.268
0.270374
0.271999
0.274733
0.276143
0.274282
0.274459
0.279857
0.286055
0.286961
0.28228
0.0818836
0.176244
0.249953
0.29121
0.304911
0.290389
0.27114
0.267077
0.270891
0.275923
0.273008
0.268881
0.268873
0.269875
0.269485
0.26912
0.268242
0.267747
0.269009
0.273989
0.277952
0.277368
0.272676
0.0767454
0.170179
0.236262
0.267781
0.284919
0.284166
0.267837
0.258112
0.25675
0.258705
0.259066
0.257581
0.257434
0.257164
0.25634
0.255308
0.255038
0.255813
0.25812
0.261689
0.263878
0.26295
0.258988
0.0754773
0.168498
0.224555
0.249341
0.264942
0.264838
0.255426
0.247448
0.244395
0.244325
0.244264
0.24342
0.242767
0.242399
0.242118
0.242057
0.242596
0.243864
0.245801
0.247711
0.248368
0.246998
0.243406
0.0858316
0.175067
0.210065
0.230006
0.241157
0.241416
0.237098
0.233266
0.231895
0.232102
0.232384
0.232134
0.231674
0.231351
0.231279
0.231474
0.231976
0.232738
0.233544
0.233864
0.233145
0.231114
0.227843
0.0893702
0.166712
0.193261
0.208552
0.216121
0.21745
0.21689
0.216719
0.217748
0.219458
0.220932
0.221696
0.221859
0.221764
0.221649
0.221561
0.22149
0.221329
0.220908
0.219955
0.2183
0.216016
0.213479
0.0821236
0.149966
0.174152
0.186669
0.192778
0.195281
0.197097
0.199333
0.202186
0.205234
0.207834
0.209577
0.210448
0.210687
0.210539
0.21012
0.209472
0.208586
0.207358
0.205749
0.203843
0.201929
0.200529
0.0712068
0.13076
0.153767
0.16545
0.171548
0.175073
0.178175
0.181681
0.185465
0.189211
0.192446
0.194817
0.196236
0.196833
0.196801
0.19629
0.195402
0.194227
0.19282
0.191256
0.18976
0.188729
0.188734
0.0584137
0.110313
0.132971
0.144921
0.151698
0.156115
0.159906
0.163909
0.167937
0.171806
0.175196
0.177831
0.179593
0.180531
0.18078
0.180488
0.179794
0.178842
0.177778
0.176796
0.176178
0.176314
0.177668
0.0473155
0.0893383
0.112229
0.125024
0.132727
0.13794
0.142177
0.146258
0.150194
0.153883
0.157152
0.159816
0.161774
0.163032
0.163679
0.163841
0.163666
0.163317
0.162979
0.162876
0.163287
0.164554
0.167046
0.0379662
0.0719883
0.093365
0.10655
0.114984
0.12082
0.12535
0.12932
0.133084
0.136521
0.1396
0.142214
0.144299
0.145857
0.146945
0.147666
0.148151
0.148558
0.149065
0.149884
0.151261
0.153473
0.15681
0.0300043
0.059299
0.0782543
0.090896
0.0994594
0.105555
0.110223
0.114112
0.11764
0.120847
0.12374
0.126294
0.128482
0.130306
0.131809
0.133067
0.134189
0.135309
0.136581
0.138184
0.140319
0.143205
0.147057
0.0237551
0.0503129
0.06699
0.078576
0.0867717
0.0927874
0.0974329
0.101241
0.104565
0.107621
0.110394
0.112911
0.115179
0.117209
0.119035
0.120716
0.122336
0.124002
0.125838
0.127989
0.130614
0.133881
0.137952
0.0193256
0.0437357
0.058587
0.0691183
0.0767983
0.0825916
0.0871454
0.0908939
0.0941355
0.0970822
0.0997926
0.102301
0.104628
0.106796
0.108834
0.11079
0.112729
0.114734
0.116905
0.119356
0.122212
0.125603
0.129653
0.016405
0.038713
0.0520949
0.0617612
0.0689954
0.0745886
0.0790734
0.0828108
0.0860503
0.0889701
0.0916723
0.0941936
0.0965654
0.0988133
0.100967
0.103067
0.105165
0.107329
0.109639
0.112186
0.115069
0.118391
0.12225
0.0145254
0.0348141
0.0469643
0.0559287
0.0628188
0.0682779
0.0727443
0.0765194
0.0798134
0.0827746
0.0855083
0.0880619
0.0904703
0.0927619
0.0949665
0.09712
0.0992674
0.101465
0.103778
0.106281
0.109057
0.11219
0.115757
0.0132819
0.0317911
0.0429044
0.0512711
0.0578762
0.0632392
0.0677151
0.0715525
0.074927
0.0779635
0.0807537
0.0833536
0.0857979
0.0881162
0.0903377
0.0924956
0.09463
0.0967889
0.0990288
0.101413
0.104012
0.106894
0.110128
0.0124041
0.0294543
0.0397115
0.0475551
0.0538977
0.0591675
0.0636493
0.0675451
0.0709991
0.0741146
0.076973
0.0796262
0.0821082
0.0844478
0.0866732
0.088815
0.0909094
0.0929992
0.0951338
0.0973689
0.0997645
0.102382
0.105281
0.0117401
0.0276431
0.0372041
0.0445907
0.0506813
0.0558443
0.0603114
0.0642451
0.0677622
0.0709468
0.0738716
0.0765784
0.0790987
0.0814592
0.0836859
0.0858069
0.0878551
0.0898688
0.0918924
0.0939757
0.0961722
0.0985373
0.101125
0.0112127
0.0262258
0.0352228
0.0422158
0.0480681
0.0531125
0.0575429
0.0614909
0.0650497
0.0682921
0.0712743
0.0740305
0.0765875
0.0789689
0.0811978
0.0832998
0.0853044
0.0872464
0.0891662
0.0911091
0.093124
0.0952617
0.0975721
0.0107913
0.0251049
0.0336448
0.040305
0.0459409
0.0508644
0.0552441
0.0591881
0.062774
0.0660629
0.0690929
0.0718918
0.0744818
0.0768827
0.0791144
0.0811997
0.0831653
0.0850431
0.0868701
0.0886881
0.0905427
0.092481
0.0945502
0.0104626
0.0242164
0.0323896
0.0387756
0.044225
0.049037
0.0533635
0.057299
0.0609077
0.0642317
0.0673002
0.0701345
0.0727518
0.075168
0.0774004
0.079469
0.081398
0.083217
0.0849605
0.0866676
0.088381
0.0901453
0.0920055
0.0102159
0.0235323
0.0314143
0.0375853
0.0428879
0.0476139
0.0519036
0.0558369
0.0594635
0.0628155
0.0659142
0.0687751
0.0714111
0.0738351
0.0760616
0.0781088
0.0799992
0.0817605
0.0834252
0.0850305
0.0866168
0.0882266
0.0899028
0.0100487
0.0230524
0.0307279
0.0367519
0.0419612
0.0466383
0.0509121
0.0548513
0.0584959
0.0618701
0.0649892
0.0678646
0.0705059
0.0729241
0.0751323
0.0771475
0.0789912
0.0806898
0.0822746
0.0837811
0.0852479
0.0867155
0.0882251
0.0099642
0.0227888
0.0303656
0.0363365
0.0415248
0.046202
0.0504876
0.0544435
0.0581041
0.0614895
0.0646123
0.0674818
0.0701068
0.0724975
0.074667
0.0766321
0.0784139
0.0800383
0.0815355
0.0829398
0.0842881
0.0856191
0.0869719
0.00997263
0.0227999
0.0304463
0.0365007
0.0417613
0.0464905
0.050808
0.0547777
0.0584363
0.0618057
0.0648997
0.0677289
0.070303
0.0726333
0.0747338
0.0766219
0.078319
0.0798507
0.0812465
0.0825392
0.0837642
0.0849579
0.0861572
0.0101133
0.0232741
0.0312777
0.0375975
0.0430166
0.0478172
0.052145
0.056085
0.0596876
0.0629832
0.0659908
0.0687242
0.0711959
0.073419
0.0754089
0.0771839
0.0787659
0.08018
0.0814549
0.0826218
0.0837139
0.0847651
0.0858094
0.0105289
0.024724
0.0335138
0.0402554
0.0458284
0.0506188
0.0548473
0.0586433
0.0620812
0.0652031
0.0680342
0.0705917
0.0728903
0.0749447
0.0767712
0.0783886
0.0798185
0.0810852
0.0822159
0.0832393
0.084186
0.0850865
0.0859714
0.011659
0.028248
0.0382168
0.0453199
0.0508274
0.0553606
0.0592624
0.0627181
0.0658243
0.0686309
0.0711652
0.0734444
0.0754831
0.0772956
0.0788977
0.0803071
0.0815441
0.082631
0.0835921
0.0844532
0.085241
0.0859819
0.086702
0.0146092
0.0354917
0.0465529
0.0535182
0.0584631
0.0623367
0.0655991
0.0684687
0.0710456
0.0733748
0.0754775
0.0773663
0.0790518
0.0805452
0.0818596
0.08301
0.0840134
0.0848888
0.0856565
0.0863377
0.0869544
0.0875281
0.0880793
0.0217206
0.0481477
0.0591843
0.0649741
0.0686782
0.0714638
0.0737967
0.0758646
0.0777402
0.0794491
0.0810003
0.0823977
0.0836459
0.084751
0.0857216
0.0865681
0.0873031
0.0879405
0.0884953
0.0889833
0.0894207
0.089823
0.090205
0.0384415
0.0676153
0.075627
0.0788553
0.0807661
0.0822277
0.0835018
0.0846714
0.0857591
0.0867675
0.0876933
0.0885336
0.0892876
0.0899568
0.0905446
0.0910567
0.0915
0.0918826
0.0922135
0.0925022
0.0927583
0.0929913
0.0932095
0.0861472
0.0930727
0.0932105
0.0933239
0.0935681
0.0938756
0.0942064
0.0945409
0.0948681
0.0951805
0.095473
0.0957421
0.0959858
0.0962035
0.0963954
0.0965629
0.0967077
0.0968324
0.0969397
0.0970327
0.0971146
0.0971883
0.0972564
0.0988973
0.0919758
0.0966086
0.108499
0.173615
0.175695
0.179483
0.184004
0.207882
0.210117
0.212217
0.214084
0.230145
0.230628
0.230845
0.231667
0.247034
0.24644
0.245911
0.245676
0.263571
0.262042
0.259745
0.256232
0.275768
0.272223
0.267093
0.26175
0.279574
0.274699
0.268952
0.263139
0.279207
0.273603
0.267283
0.261026
0.274827
0.26897
0.262506
0.256162
0.265841
0.2604
0.254468
0.248735
0.253135
0.248591
0.243815
0.239298
0.238725
0.235382
0.232074
0.229033
0.224605
0.222556
0.220717
0.219111
0.211784
0.210956
0.210426
0.21008
0.20036
0.200615
0.20117
0.201847
0.189896
0.191023
0.192426
0.193908
0.179881
0.181663
0.183692
0.185777
0.170017
0.172251
0.174701
0.177197
0.160258
0.162758
0.165448
0.168181
0.150721
0.153339
0.15612
0.158949
0.14163
0.144235
0.146983
0.149786
0.133189
0.135684
0.138303
0.140983
0.125542
0.127859
0.130287
0.132779
0.118751
0.120855
0.123058
0.125326
0.112809
0.11469
0.116658
0.118692
0.10766
0.109327
0.11107
0.112876
0.103229
0.104699
0.106237
0.107833
0.0994341
0.100731
0.102086
0.103495
0.0962028
0.0973491
0.0985461
0.0997917
0.0934772
0.0944933
0.0955531
0.0966561
0.0912164
0.0921188
0.0930582
0.0940359
0.089397
0.0901975
0.0910292
0.0918946
0.0880121
0.0887186
0.0894511
0.0902129
0.0870708
0.0876876
0.0883258
0.0889891
0.0865977
0.0871265
0.0876727
0.0882399
0.0866331
0.0870743
0.0875289
0.088001
0.0872354
0.0875885
0.0879518
0.0883288
0.0884832
0.0887487
0.0890212
0.0893041
0.0904812
0.090661
0.0908451
0.0910363
0.0933643
0.0934639
0.0935654
0.0936709
0.0973036
0.0973333
0.0973634
0.097395
0.148627
0.171825
0.177455
0.181135
0.184575
0.187153
0.18982
0.199581
0.214335
0.213901
0.203988
0.194592
0.183941
0.173479
0.161607
0.140799
0.116158
0.0889607
0.0445686
0.193297
0.197983
0.199376
0.202351
0.206665
0.209014
0.21016
0.216552
0.235487
0.240627
0.226988
0.213078
0.198691
0.186043
0.171401
0.148095
0.120483
0.0902582
0.0453817
0.216751
0.215415
0.215411
0.217177
0.219841
0.221346
0.222397
0.227266
0.242026
0.255376
0.246428
0.226747
0.20592
0.188362
0.16967
0.143641
0.114263
0.0855041
0.0387573
0.233825
0.230831
0.229466
0.229817
0.230568
0.231007
0.231081
0.233891
0.242815
0.253206
0.252907
0.23314
0.207208
0.187106
0.166057
0.139177
0.108209
0.0760406
0.034118
0.243743
0.243133
0.244925
0.24488
0.243961
0.242387
0.238836
0.238611
0.244349
0.247217
0.242826
0.228739
0.207647
0.189308
0.169797
0.145529
0.115661
0.0809656
0.0352129
0.250387
0.250654
0.2566
0.260565
0.256465
0.245774
0.24062
0.241362
0.243802
0.242437
0.235876
0.224575
0.209556
0.194566
0.178225
0.157896
0.130702
0.0954751
0.0431041
0.254516
0.252523
0.256097
0.259154
0.252882
0.243389
0.239828
0.240428
0.240874
0.238606
0.233327
0.224969
0.21295
0.199613
0.185676
0.168979
0.144616
0.109563
0.0512356
0.254863
0.249725
0.249252
0.24936
0.245413
0.240062
0.237409
0.237448
0.23734
0.235109
0.230854
0.224405
0.214643
0.202085
0.189093
0.174363
0.152271
0.120555
0.0601853
0.251881
0.244125
0.240374
0.238912
0.237349
0.236392
0.235429
0.235009
0.234446
0.231698
0.227308
0.221075
0.212001
0.200563
0.187986
0.173755
0.154239
0.122691
0.060022
0.246941
0.238213
0.232927
0.230213
0.22857
0.227732
0.227679
0.227119
0.226769
0.225477
0.222204
0.216066
0.206972
0.196391
0.18401
0.169689
0.150295
0.118258
0.0543391
0.240512
0.232359
0.22701
0.223787
0.221546
0.219553
0.217881
0.216216
0.214431
0.212609
0.209816
0.205148
0.198265
0.189758
0.177055
0.160633
0.139775
0.107182
0.0471269
0.23286
0.226212
0.221596
0.218454
0.215914
0.213268
0.210448
0.207559
0.204579
0.201556
0.198229
0.193816
0.187491
0.178183
0.164573
0.146947
0.124886
0.0926257
0.0389484
0.224678
0.219903
0.216328
0.213551
0.210935
0.207952
0.204497
0.200745
0.196693
0.192249
0.187264
0.181263
0.173403
0.162776
0.14868
0.130927
0.108572
0.0781298
0.0325111
0.216765
0.213878
0.211423
0.209137
0.20656
0.203312
0.199314
0.194736
0.189581
0.183609
0.176761
0.168986
0.159657
0.14807
0.133668
0.116148
0.0949861
0.0678659
0.0301289
0.209518
0.208401
0.207088
0.205408
0.203018
0.199628
0.195173
0.189803
0.183596
0.176399
0.168215
0.159088
0.148727
0.136655
0.122608
0.106539
0.0880136
0.0644946
0.0312873
0.202781
0.203295
0.20315
0.202223
0.200234
0.196949
0.192305
0.186426
0.179494
0.171545
0.162632
0.152846
0.142131
0.130402
0.117714
0.104016
0.0883337
0.0672165
0.0340319
0.196078
0.198073
0.199103
0.199062
0.1977
0.194809
0.190325
0.184364
0.177175
0.168989
0.159917
0.150093
0.139685
0.128891
0.117854
0.106263
0.0926641
0.0728693
0.0370008
0.18894
0.192228
0.194387
0.195301
0.194737
0.192495
0.188508
0.182885
0.175904
0.1679
0.159095
0.149673
0.139907
0.130067
0.120244
0.109924
0.0974918
0.0784999
0.0395317
0.1811
0.185447
0.188621
0.190481
0.190798
0.18938
0.186148
0.181197
0.174796
0.167305
0.159028
0.150216
0.141152
0.132077
0.12298
0.113292
0.101385
0.082772
0.0414742
0.172565
0.177691
0.181697
0.184414
0.18561
0.185087
0.182757
0.178686
0.173111
0.166373
0.158805
0.150701
0.142335
0.133889
0.125251
0.115883
0.104194
0.0856171
0.0431201
0.163559
0.169147
0.173753
0.177172
0.179162
0.179517
0.178128
0.175031
0.170417
0.164584
0.15786
0.150546
0.142901
0.135056
0.126865
0.117747
0.106165
0.08749
0.0443947
0.154408
0.160172
0.165131
0.169056
0.171696
0.172834
0.172343
0.170222
0.166614
0.161767
0.15598
0.149541
0.142678
0.135475
0.127749
0.118901
0.107448
0.0888021
0.0451734
0.145449
0.15115
0.156237
0.160465
0.163581
0.165364
0.16567
0.164466
0.161844
0.158002
0.153196
0.14768
0.141645
0.135132
0.127922
0.119401
0.108117
0.089634
0.045635
0.136968
0.14243
0.147454
0.151798
0.155217
0.157491
0.158462
0.158072
0.156368
0.153498
0.149666
0.145082
0.139894
0.134101
0.12745
0.119302
0.108194
0.0898408
0.045916
0.129169
0.134274
0.139093
0.143401
0.146967
0.149579
0.151075
0.151374
0.150487
0.148513
0.145604
0.141921
0.137561
0.132487
0.126409
0.118657
0.107724
0.0893834
0.0459382
0.12216
0.126847
0.131371
0.135531
0.139117
0.141932
0.143814
0.14467
0.14448
0.143298
0.141228
0.138376
0.134792
0.130399
0.124881
0.117527
0.106799
0.0884631
0.0455634
0.115972
0.120224
0.124406
0.128346
0.13186
0.134766
0.136912
0.138196
0.138575
0.138066
0.136726
0.134611
0.131723
0.127947
0.122948
0.115982
0.105505
0.0872607
0.04474
0.110582
0.11441
0.118238
0.121921
0.125299
0.128212
0.130519
0.132113
0.132937
0.132976
0.132245
0.130755
0.128467
0.125229
0.120687
0.114084
0.103879
0.0858333
0.0436604
0.105931
0.109366
0.112849
0.116262
0.119468
0.122328
0.124711
0.126515
0.127669
0.128133
0.12789
0.12691
0.125115
0.122322
0.118158
0.111886
0.101947
0.0841894
0.042613
0.101951
0.105028
0.108189
0.111334
0.114349
0.117113
0.11951
0.121439
0.122821
0.1236
0.123728
0.123144
0.121737
0.119299
0.115443
0.109449
0.099772
0.0823962
0.0416605
0.0985721
0.101329
0.104192
0.10708
0.109896
0.112536
0.114897
0.116881
0.118407
0.119403
0.119798
0.119505
0.118389
0.116221
0.112609
0.106838
0.0974413
0.0805449
0.0407217
0.0957365
0.0982035
0.100793
0.103435
0.106049
0.108546
0.110832
0.112817
0.114415
0.115544
0.116118
0.116026
0.115114
0.113142
0.10972
0.104159
0.095054
0.0786678
0.0396263
0.0934011
0.0956028
0.0979356
0.10034
0.10275
0.105087
0.107269
0.109209
0.110821
0.112015
0.112691
0.112724
0.111945
0.110107
0.106829
0.101455
0.0926327
0.0767325
0.0383083
0.0915399
0.093494
0.0955798
0.0977513
0.0999519
0.102114
0.104164
0.106021
0.107599
0.108801
0.109517
0.109611
0.108905
0.107151
0.103973
0.0987451
0.0901724
0.0746859
0.0368173
0.0901452
0.0918606
0.0937032
0.0956403
0.0976228
0.0995929
0.101485
0.103225
0.104726
0.105887
0.106592
0.106695
0.106013
0.104296
0.101177
0.0960431
0.0876451
0.072539
0.0356526
0.0892293
0.0907086
0.0923066
0.0940029
0.0957538
0.0975104
0.0992167
0.100805
0.102191
0.10327
0.103919
0.103986
0.103285
0.101565
0.0984646
0.0933812
0.0850996
0.0703264
0.0347113
0.088825
0.0900677
0.091418
0.0928607
0.094361
0.0958768
0.0973638
0.0987653
0.0999992
0.100958
0.101513
0.101507
0.10075
0.0989932
0.0958792
0.0908181
0.0826289
0.0681622
0.0337946
0.0889879
0.0899914
0.0910883
0.0922636
0.0934888
0.0947271
0.0959515
0.097124
0.0981684
0.098974
0.0994039
0.0992963
0.0984569
0.0966373
0.0934883
0.0884355
0.0803365
0.0661715
0.0329426
0.0897994
0.0905622
0.0914005
0.0922959
0.0932142
0.0941195
0.0950184
0.0959101
0.0967272
0.0973513
0.0976351
0.0974078
0.09647
0.0945744
0.091379
0.0863294
0.0783281
0.0644702
0.0322558
0.0913721
0.0918967
0.0924757
0.0930816
0.0936524
0.0941206
0.0945954
0.0951428
0.0956996
0.096127
0.0962576
0.0959072
0.0948691
0.0928951
0.0896504
0.0846031
0.0767078
0.0631721
0.0318596
0.0938572
0.0941542
0.0944825
0.0948019
0.0949792
0.0947427
0.0946437
0.0947899
0.0950803
0.095323
0.0953177
0.094861
0.0937369
0.0916943
0.0884035
0.0833544
0.0755597
0.0623609
0.0318904
0.0974516
0.0975451
0.0976484
0.0977216
0.097532
0.0957028
0.09492
0.094709
0.0948049
0.094929
0.0948417
0.0943224
0.0931464
0.0910592
0.0877329
0.0826715
0.0749386
0.0620203
0.0323916
)
;

boundaryField
{
    leftWall
    {
        type            kqRWallFunction;
        value           nonuniform List<scalar> 
50
(
0.00249528
0.00517446
0.00752354
0.00980384
0.0121231
0.0146001
0.0173593
0.0205265
0.0245611
0.0320854
0.0412025
0.0523935
0.0672965
0.0835575
0.0970457
0.0985632
0.0917402
0.087121
0.0818836
0.0767454
0.0754773
0.0858316
0.0893702
0.0821236
0.0712068
0.0584137
0.0473155
0.0379662
0.0300043
0.0237551
0.0193256
0.016405
0.0145254
0.0132819
0.0124041
0.0117401
0.0112127
0.0107913
0.0104626
0.0102159
0.0100487
0.0099642
0.00997263
0.0101133
0.0105289
0.011659
0.0146092
0.0217206
0.0384415
0.0861472
)
;
    }
    rightWall
    {
        type            kqRWallFunction;
        value           nonuniform List<scalar> 
50
(
0.00655635
0.0152557
0.0218738
0.0270163
0.0309445
0.0339429
0.0364198
0.0392354
0.0445686
0.0453817
0.0387573
0.034118
0.0352129
0.0431041
0.0512356
0.0601853
0.060022
0.0543391
0.0471269
0.0389484
0.0325111
0.0301289
0.0312873
0.0340319
0.0370008
0.0395317
0.0414742
0.0431201
0.0443947
0.0451734
0.045635
0.045916
0.0459382
0.0455634
0.04474
0.0436604
0.042613
0.0416605
0.0407217
0.0396263
0.0383083
0.0368173
0.0356526
0.0347113
0.0337946
0.0329426
0.0322558
0.0318596
0.0318904
0.0323916
)
;
    }
    lowerWall
    {
        type            kqRWallFunction;
        value           nonuniform List<scalar> 
62
(
0.00249528
0.00617745
0.00951915
0.012192
0.014342
0.0160808
0.0174971
0.0186563
0.0195821
0.0202991
0.0209676
0.0215396
0.0220139
0.0226625
0.0240051
0.0262429
0.0288864
0.0312051
0.0320173
0.0301755
0.0253747
0.0179459
0.00849165
0.00849165
0.0163415
0.0202604
0.0227937
0.0253512
0.0298714
0.0392912
0.0629718
0.0988973
0.0919758
0.0966086
0.108499
0.00821849
0.0197351
0.0292347
0.0402118
0.0532947
0.069282
0.0893619
0.115202
0.00821849
0.0213873
0.0261651
0.0253012
0.0233451
0.025062
0.0324086
0.0411112
0.0442021
0.0411938
0.0374765
0.0348448
0.0336416
0.0331108
0.0324214
0.0286885
0.0227169
0.015444
0.00655635
)
;
    }
    atmosphere
    {
        type            inletOutlet;
        inletValue      uniform 0.1;
        value           nonuniform List<scalar> 
46
(
0.1
0.1
0.1
0.1
0.1
0.1
0.1
0.1
0.1
0.1
0.1
0.1
0.1
0.1
0.1
0.1
0.1
0.1
0.1
0.1
0.1
0.1
0.1
0.1
0.1
0.1
0.1
0.1
0.1
0.1
0.1
0.1
0.0957028
0.09492
0.094709
0.0948049
0.094929
0.0948417
0.0943224
0.0931464
0.0910592
0.0877329
0.0826715
0.0749386
0.0620203
0.0323916
)
;
    }
    defaultFaces
    {
        type            empty;
    }
}


// ************************************************************************* //
