/*--------------------------------*- C++ -*----------------------------------*\
| =========                 |                                                 |
| \\      /  F ield         | OpenFOAM: The Open Source CFD Toolbox           |
|  \\    /   O peration     | Version:  2.3.0                                 |
|   \\  /    A nd           | Web:      www.OpenFOAM.org                      |
|    \\/     M anipulation  |                                                 |
\*---------------------------------------------------------------------------*/
FoamFile
{
    version     2.0;
    format      ascii;
    class       volScalarField;
    location    "1.35";
    object      nut;
}
// * * * * * * * * * * * * * * * * * * * * * * * * * * * * * * * * * * * * * //

dimensions      [0 2 -1 0 0 0 0];

internalField   nonuniform List<scalar> 
2268
(
4.52335e-05
5.45634e-05
6.79151e-05
7.64491e-05
8.23176e-05
8.65041e-05
8.95846e-05
9.19314e-05
9.37264e-05
9.48739e-05
9.59267e-05
9.69698e-05
9.7881e-05
9.89638e-05
0.000101172
0.000105031
0.000109765
0.000113512
0.000115164
0.000112122
0.000103633
8.80229e-05
6.13503e-05
0.000103183
0.000452526
0.000654913
0.000768763
0.000834085
0.000870844
0.00089062
0.000900665
0.000904861
0.000903
0.000891302
0.000878738
0.000868412
0.000869625
0.000900962
0.000960853
0.00103129
0.00106989
0.00106158
0.000998524
0.00086175
0.000590673
0.00018139
0.000125045
0.000718127
0.00115134
0.00142905
0.00160241
0.00170541
0.00176125
0.00178601
0.00178967
0.00177726
0.00174887
0.00171829
0.00169807
0.00170704
0.00176923
0.00187787
0.00199649
0.0020628
0.00203393
0.00188482
0.00157971
0.001046
0.000203511
0.000143058
0.000881867
0.00147178
0.00188295
0.00216015
0.00233816
0.00244376
0.00249737
0.00251356
0.00250281
0.00247067
0.00243623
0.00241988
0.00244624
0.00253644
0.00267729
0.00282168
0.00289934
0.00284362
0.00261111
0.00214438
0.00136856
0.000217338
0.000159313
0.00100082
0.0017008
0.00221259
0.00257501
0.00282078
0.00297693
0.00306533
0.00310324
0.00310493
0.00308158
0.00305608
0.00305408
0.00310215
0.00321569
0.00337615
0.00353168
0.00360871
0.00352671
0.00321968
0.00260652
0.00160182
0.000227284
0.000175032
0.00109641
0.00188408
0.00247601
0.00290729
0.00320992
0.00341133
0.00353422
0.00359749
0.00361818
0.00361184
0.00360383
0.00362237
0.00369298
0.00382506
0.0039964
0.00415432
0.00422529
0.0041212
0.00375588
0.00302385
0.00180476
0.000239524
0.00019098
0.00118025
0.00204639
0.00270702
0.00319514
0.00354434
0.00378387
0.00393773
0.00402629
0.00406897
0.0040842
0.00409852
0.00414039
0.00423246
0.00437882
0.00455531
0.00471117
0.00477534
0.00465711
0.00425831
0.00345009
0.00205367
0.0002677
0.000207622
0.00126227
0.00220395
0.00292636
0.00346224
0.00384894
0.00411919
0.00429916
0.00441079
0.00447611
0.00451491
0.00455365
0.00461929
0.00473074
0.00488781
0.00506593
0.00521804
0.00527747
0.00515605
0.00475262
0.00392752
0.00243866
0.000333513
5.87842e-05
0.000101044
0.000114806
0.000115887
0.00010743
0.000102098
0.000109956
0.000123878
0.000132713
0.000130922
0.000126112
0.000121817
0.000119197
0.000117891
0.000116718
0.000110472
9.84306e-05
8.09507e-05
7.44768e-05
0.000220306
0.000692775
0.000932873
0.00099983
0.00090826
0.000837923
0.000972194
0.00114544
0.00122706
0.00119586
0.00111877
0.00109518
0.00109651
0.0011101
0.00109027
0.00101137
0.000835706
0.000614203
0.000189839
0.000268146
0.00102505
0.00155304
0.00179107
0.00177187
0.00172563
0.00195102
0.00225175
0.00240105
0.00235935
0.00222323
0.00215533
0.00213265
0.00212346
0.00205986
0.00188348
0.0015526
0.00108885
0.000227765
0.000312643
0.00124957
0.00202573
0.00244634
0.00254882
0.00258304
0.00286258
0.00322538
0.00341271
0.00337804
0.00321084
0.00309529
0.00302639
0.00296399
0.00283446
0.00256402
0.00210937
0.00143622
0.000252453
0.000357275
0.00145914
0.00248117
0.00306953
0.00328155
0.00339411
0.00369485
0.00407181
0.00427865
0.00425535
0.004075
0.00391544
0.00378874
0.00365585
0.00344964
0.00309046
0.00253135
0.00168508
0.000269004
0.000404818
0.00169015
0.00297332
0.00370248
0.00399238
0.00415731
0.00445054
0.00481186
0.00502562
0.00500802
0.00482238
0.00462528
0.00443606
0.00422425
0.00393713
0.00349374
0.00284538
0.00186072
0.000280336
0.00045803
0.00197981
0.00353171
0.00435521
0.00468562
0.0048713
0.00513547
0.00546177
0.00567074
0.00565272
0.00546226
0.0052323
0.0049807
0.00468742
0.00431915
0.00379703
0.00307228
0.00198184
0.000288735
0.000519157
0.00241747
0.00417922
0.00502205
0.00535471
0.00553415
0.00575631
0.00603469
0.00622909
0.00620513
0.00600586
0.0057429
0.0054304
0.00505912
0.00461221
0.00401647
0.00322732
0.00206356
0.000298186
0.000226826
0.00138895
0.00244556
0.00325651
0.00385663
0.00429147
0.00460156
0.00481783
0.00496471
0.00506536
0.00514177
0.00521939
0.00532098
0.00545906
0.00562857
0.0058061
0.00595156
0.00600793
0.00589832
0.00553095
0.00479292
0.00355588
0.00179011
0.000258365
0.0016045
0.00283224
0.00375225
0.00441613
0.00488898
0.00522754
0.00547188
0.00564964
0.00578398
0.00589862
0.00601556
0.00615137
0.00631225
0.00649043
0.00666626
0.00680871
0.00687539
0.00681154
0.00655391
0.00604949
0.00527638
0.00426791
0.000291737
0.00190389
0.00331512
0.00432856
0.0050335
0.00552061
0.00586659
0.00612218
0.00631731
0.00647452
0.00661662
0.00676055
0.00691709
0.00708857
0.0072678
0.00743907
0.0075784
0.00765638
0.00764128
0.0074991
0.00722203
0.00683857
0.00639772
0.000329582
0.00228147
0.00386649
0.00496181
0.00569694
0.00618615
0.00652682
0.00678221
0.0069832
0.00715115
0.00730651
0.00746215
0.007625
0.00779602
0.00797005
0.00813535
0.00827227
0.00835907
0.00838135
0.00833243
0.00822634
0.0080853
0.00792402
0.000374151
0.00264868
0.00441484
0.00559056
0.00636261
0.00686389
0.00719525
0.00744246
0.00763926
0.00780752
0.00796283
0.00811659
0.00827442
0.00843707
0.00860268
0.00876287
0.00889929
0.00899313
0.0090356
0.00904059
0.00904528
0.00903645
0.00901246
0.000410426
0.0029614
0.00490336
0.0061693
0.00699292
0.00752091
0.00785011
0.00808147
0.00826484
0.00842381
0.00857043
0.00871312
0.00885805
0.00900898
0.00916601
0.00932103
0.00945628
0.00955148
0.0096016
0.00962556
0.00968888
0.00975489
0.00981074
0.000431969
0.00310072
0.00522852
0.00662391
0.00753181
0.00811841
0.00846854
0.00867409
0.00883723
0.00898553
0.00912319
0.00925247
0.00938072
0.00951584
0.00966086
0.00980598
0.00993129
0.0100188
0.0100682
0.0101109
0.0102004
0.0103045
0.0103892
0.00041715
0.0030771
0.00542461
0.0070006
0.00796995
0.00858946
0.00897335
0.00918474
0.00933717
0.00947391
0.00959762
0.00971329
0.00982829
0.00995235
0.0100865
0.0102191
0.0103337
0.0104112
0.0104568
0.0105067
0.0106055
0.0107157
0.0107903
0.000390771
0.00297491
0.0055253
0.0074186
0.00834044
0.00892766
0.00931343
0.00954833
0.00972584
0.00984993
0.00994723
0.0100566
0.0101759
0.0103041
0.0104349
0.0105597
0.0106631
0.0107229
0.010755
0.0108036
0.0108987
0.0110026
0.0110673
0.00038363
0.00273466
0.00541744
0.00756112
0.0086156
0.00914541
0.00952421
0.00977534
0.00997184
0.0100795
0.0101698
0.0102853
0.0104193
0.0105603
0.0106872
0.0108008
0.0108863
0.0109292
0.0109496
0.0110036
0.011096
0.0111874
0.0112391
0.000369743
0.00253986
0.00516993
0.00725637
0.00857386
0.00926311
0.0096078
0.00984756
0.0100264
0.0101739
0.0102892
0.0104151
0.0105589
0.0106952
0.0108067
0.0108959
0.0109616
0.0110044
0.0110367
0.0111033
0.0111926
0.0112716
0.0113123
0.000358404
0.00252372
0.00501563
0.00697482
0.00832566
0.00913655
0.00953874
0.00978495
0.00997018
0.0101347
0.0102872
0.0104285
0.0105675
0.0106919
0.010796
0.0108776
0.0109428
0.0109957
0.0110496
0.011122
0.0112043
0.0112743
0.0113086
0.000368574
0.00264728
0.00504422
0.00677595
0.00804636
0.00885651
0.00932839
0.00962256
0.00983834
0.0100249
0.0101941
0.0103462
0.0104848
0.0106099
0.0107189
0.0108103
0.0108873
0.0109567
0.0110261
0.0110997
0.0111719
0.0112281
0.0112483
0.000409884
0.00302046
0.00503539
0.00655998
0.00769983
0.0084808
0.00899336
0.00934101
0.00960296
0.00982332
0.0100176
0.0101891
0.0103414
0.0104778
0.0105993
0.0107061
0.0107999
0.0108854
0.0109652
0.0110387
0.0111007
0.0111409
0.0111452
0.000422882
0.0029755
0.00486575
0.00624209
0.00727105
0.0080202
0.0085577
0.00895091
0.0092598
0.00952022
0.00974719
0.00994614
0.0101213
0.0102775
0.0104178
0.0105437
0.0106563
0.0107576
0.0108477
0.0109243
0.0109825
0.0110147
0.0110111
0.000403775
0.00276
0.00453613
0.00580734
0.00676396
0.00749031
0.00804529
0.00847606
0.00882697
0.00912584
0.00938634
0.00961492
0.00981662
0.00999666
0.0101592
0.0103066
0.01044
0.0105599
0.0106654
0.0107535
0.0108194
0.0108567
0.010858
0.000377945
0.00245532
0.00407951
0.00526896
0.00618312
0.00690047
0.00747287
0.00793775
0.0083253
0.00865816
0.00894921
0.00920595
0.00943421
0.00963949
0.00982639
0.00999787
0.0101555
0.0102994
0.0104279
0.0105378
0.0106239
0.0106794
0.0106985
0.000343263
0.00207571
0.00353039
0.00465136
0.00554282
0.00626429
0.00685785
0.00735575
0.00777638
0.00813953
0.00845829
0.00874144
0.00899576
0.00922716
0.0094405
0.0096392
0.00982514
0.00999851
0.0101574
0.0102977
0.0104132
0.0104969
0.0105437
0.000305887
0.0016212
0.00292496
0.00399303
0.00487274
0.00560546
0.00622418
0.00675381
0.00720609
0.00759826
0.00794423
0.00825387
0.008535
0.0087941
0.00903629
0.00926524
0.00948297
0.00968954
0.00988262
0.0100573
0.0102067
0.0103232
0.0104012
0.000273549
0.00128765
0.00239108
0.00337899
0.00423695
0.00497646
0.00561372
0.00616609
0.00664787
0.00706924
0.00744464
0.00778277
0.00809256
0.0083812
0.00865407
0.00891481
0.0091653
0.00940529
0.00963197
0.00983986
0.0100215
0.010169
0.0102763
0.000243
0.00109803
0.00202446
0.00290866
0.00371907
0.00444529
0.0050876
0.00565404
0.00615617
0.00660226
0.00700353
0.00736969
0.0077089
0.00802772
0.00833111
0.00862238
0.00890304
0.00917243
0.00942739
0.00966227
0.00986965
0.0100418
0.0101728
0.000215748
0.00101274
0.00182156
0.00261177
0.00336269
0.0040584
0.00469068
0.00526022
0.00577366
0.00623887
0.00666312
0.00705468
0.00742049
0.00776613
0.00809579
0.00841219
0.00871641
0.00900751
0.00928232
0.00953542
0.00975984
0.00994833
0.0100952
0.000194251
0.00099425
0.00174219
0.00246733
0.0031666
0.00382824
0.00444311
0.00500853
0.00552747
0.00600525
0.00644716
0.00685901
0.00724597
0.00761228
0.00796118
0.00829473
0.00861363
0.0089169
0.00920162
0.009463
0.00969483
0.00989064
0.0100451
0.000179009
0.00101684
0.00174834
0.00243935
0.00310454
0.00373964
0.00433843
0.00489796
0.00541913
0.00590496
0.00635882
0.00678448
0.00718536
0.00756441
0.00792396
0.00826551
0.00858954
0.00889521
0.00918013
0.00944033
0.00967063
0.00986547
0.0100201
0.000168706
0.00106125
0.00181067
0.00249399
0.00314367
0.0037639
0.00435263
0.00490814
0.00543054
0.00592132
0.00638212
0.00681517
0.0072226
0.00760637
0.00796813
0.00830902
0.00862948
0.00892899
0.00920582
0.00945695
0.00967833
0.00986547
0.0100144
0.000161611
0.00111082
0.00190392
0.00260121
0.00325172
0.00386852
0.00445415
0.00500872
0.00553238
0.0060258
0.00648961
0.00692466
0.00733236
0.00771405
0.00807099
0.00840418
0.00871418
0.00900089
0.00926331
0.00949945
0.00970641
0.00988085
0.0100196
0.0001564
0.00115368
0.00200568
0.00273367
0.0033985
0.00402173
0.00461055
0.00516725
0.00569265
0.00618729
0.00665097
0.00708394
0.00748719
0.00786176
0.00820874
0.00852917
0.00882386
0.00909319
0.00933694
0.00955409
0.00974292
0.00990119
0.0100267
0.000152307
0.00118533
0.00209971
0.00286882
0.00355807
0.00419559
0.00479287
0.00535454
0.00588246
0.00637756
0.00683892
0.00726701
0.00766261
0.00802668
0.00836033
0.00866475
0.0089411
0.00919029
0.00941283
0.00960866
0.00977713
0.00991712
0.0100274
0.000148967
0.00120687
0.00217829
0.00299207
0.00371165
0.00436894
0.00497875
0.00554787
0.00607947
0.00657439
0.00703221
0.00745368
0.00783962
0.00819107
0.00850933
0.00879588
0.00905226
0.00927995
0.00948014
0.00965364
0.00980078
0.00992146
0.0100153
0.000146381
0.00122136
0.0022406
0.00309711
0.00384889
0.00452892
0.00515401
0.00573265
0.00626872
0.00676302
0.00721658
0.00763032
0.00800528
0.00834279
0.00864447
0.00891218
0.00914795
0.00935378
0.00953152
0.00968272
0.00980856
0.00990981
0.00998696
0.000144412
0.00123155
0.00228931
0.00318395
0.00396706
0.00467091
0.00531296
0.00590202
0.00644219
0.00693582
0.00738445
0.00778944
0.00815229
0.00847481
0.00875912
0.00900759
0.00922273
0.00940707
0.00956303
0.00969279
0.0097982
0.00988074
0.00994159
0.00014293
0.0012394
0.00232875
0.00325708
0.00406999
0.00479756
0.00545638
0.00605539
0.00659947
0.00709157
0.00753392
0.0079286
0.00827788
0.00858426
0.00885049
0.00907954
0.00927442
0.00943814
0.0095736
0.00968344
0.00977001
0.00983532
0.00988105
0.000141957
0.00124688
0.00236369
0.00332347
0.00416546
0.00491653
0.00559178
0.00619979
0.00674589
0.00723394
0.00766723
0.00804898
0.00838248
0.00867113
0.00891845
0.00912798
0.00930321
0.00944757
0.00956426
0.00965624
0.00972618
0.0097764
0.00980889
0.000141562
0.00125716
0.00240319
0.00339685
0.0042698
0.0050445
0.00573417
0.00634745
0.00689078
0.00736964
0.00778905
0.00815376
0.00846833
0.00873716
0.0089645
0.00915443
0.0093108
0.00943728
0.00953726
0.00961385
0.00966982
0.00970763
0.00972937
0.000141926
0.00127693
0.0024644
0.00350136
0.00440905
0.00520541
0.00590336
0.00651346
0.007045
0.00750627
0.00790465
0.00824671
0.00853834
0.00878483
0.008991
0.00916125
0.00929963
0.00940986
0.00949534
0.00955917
0.00960407
0.00963246
0.00964639
0.000143618
0.00132158
0.00257876
0.00367411
0.00461778
0.00542727
0.00611993
0.00671205
0.00721808
0.00765023
0.00801857
0.00833142
0.00859566
0.00881713
0.00900088
0.00915136
0.00927257
0.00936811
0.00944121
0.0094948
0.00953146
0.00955342
0.00956257
0.000148318
0.00142104
0.00279124
0.00395784
0.00492955
0.00573345
0.00639894
0.00695262
0.0074161
0.00780594
0.00813461
0.00841151
0.00864394
0.00883776
0.00899782
0.00912831
0.00923293
0.00931497
0.00937739
0.00942283
0.00945362
0.00947175
0.00947887
0.00015997
0.00160714
0.00313263
0.00437726
0.00536149
0.00613419
0.00674612
0.00723876
0.00764218
0.00797692
0.00825687
0.00849165
0.00868818
0.00885177
0.0089867
0.00909662
0.0091847
0.00925381
0.00930651
0.00934509
0.00937157
0.00938765
0.00939472
0.00018426
0.00186163
0.00358994
0.00493272
0.00591602
0.00663008
0.00716124
0.0075712
0.00789881
0.00816738
0.00839093
0.00857819
0.00873503
0.00886576
0.00897376
0.00906192
0.0091328
0.0091887
0.00923171
0.00926372
0.00928636
0.00930104
0.0093089
0.000224865
0.00214102
0.00417654
0.0056505
0.00660583
0.00722241
0.00764217
0.00794906
0.00818783
0.00838167
0.00854281
0.00867814
0.0087919
0.00888709
0.00896604
0.00903077
0.00908312
0.00912474
0.0091572
0.0091819
0.00920007
0.00921279
0.00922093
0.000289403
0.00255046
0.00507551
0.00663683
0.00746033
0.00790741
0.00817847
0.00836478
0.00850626
0.00862061
0.00871606
0.00879672
0.00886499
0.00892246
0.00897041
0.00900997
0.00904218
0.00906807
0.00908856
0.00910453
0.00911676
0.00912593
0.00913262
0.000418781
0.00373312
0.00689355
0.00807075
0.00847891
0.00864905
0.00873914
0.008798
0.00884235
0.0088785
0.00890905
0.0089352
0.00895756
0.00897657
0.00899256
0.00900586
0.00901678
0.00902566
0.00903278
0.00903846
0.00904296
0.00904651
0.00904932
0.000438124
0.000414599
0.000422271
0.000450397
0.00356421
0.00344391
0.00347778
0.00364014
0.00618663
0.00613669
0.00617606
0.00630234
0.00788788
0.00790379
0.0079554
0.00804381
0.00904926
0.00908932
0.00913886
0.00919641
0.00986666
0.00990578
0.00993714
0.00995992
0.0104305
0.0104504
0.0104578
0.0104614
0.0108068
0.0108102
0.0108045
0.0107937
0.011068
0.0110574
0.0110364
0.0110082
0.0112295
0.0112097
0.0111766
0.0111336
0.0112997
0.0112749
0.0112343
0.0111811
0.0112914
0.0112628
0.0112174
0.0111578
0.0112225
0.0111897
0.0111408
0.0110772
0.0111113
0.0110751
0.0110247
0.0109606
0.0109743
0.0109385
0.0108907
0.0108311
0.010827
0.010797
0.0107572
0.0107073
0.0106824
0.0106635
0.0106358
0.0105988
0.0105483
0.0105431
0.0105294
0.0105064
0.0104279
0.0104368
0.0104368
0.0104273
0.0103232
0.0103446
0.0103565
0.0103587
0.010236
0.010267
0.0102881
0.0102989
0.0101694
0.0102069
0.010234
0.0102506
0.010125
0.0101658
0.0101961
0.0102159
0.0101011
0.0101426
0.0101738
0.0101947
0.0100928
0.010133
0.0101633
0.0101837
0.0100928
0.0101302
0.0101584
0.0101773
0.0100928
0.0101264
0.0101515
0.0101682
0.0100851
0.0101141
0.0101355
0.0101495
0.0100637
0.0100876
0.010105
0.0101158
0.0100256
0.0100441
0.0100569
0.0100642
0.00997051
0.0099835
0.00999173
0.00999528
0.00990077
0.00990851
0.00991223
0.00991202
0.00982047
0.00982357
0.00982323
0.00981959
0.00973442
0.00973381
0.00973024
0.00972384
0.00964689
0.00964382
0.00963817
0.00963002
0.00956072
0.00955661
0.00955021
0.0095416
0.00947676
0.00947295
0.00946717
0.00945946
0.00939395
0.00939153
0.00938747
0.0093818
0.00931023
0.0093097
0.00930794
0.00930495
0.00922401
0.00922514
0.0092255
0.00922506
0.00913604
0.00913784
0.00913929
0.00914038
0.00905096
0.00905193
0.00905282
0.00905364
0.00169611
0.00370307
0.0052624
0.00601901
0.00633394
0.0064883
0.00663747
0.00682696
0.00698746
0.0069462
0.0067244
0.00640437
0.00599582
0.00551151
0.00494959
0.00424856
0.00337329
0.00214836
0.000317888
0.00447473
0.00574513
0.00673378
0.00722882
0.00744031
0.00753256
0.00757174
0.00761959
0.00770935
0.00765308
0.00737914
0.00696699
0.00643151
0.00581528
0.00513576
0.00431408
0.0033148
0.00207223
0.000338586
0.0066825
0.00738408
0.00795183
0.00823269
0.00832793
0.00833595
0.0082895
0.00821478
0.00816506
0.00809499
0.00780301
0.00729981
0.00665726
0.00594791
0.00515311
0.00417346
0.00301492
0.00180654
0.000312836
0.00825729
0.00862535
0.00893231
0.00905688
0.00904251
0.00895378
0.00881189
0.00863689
0.00846908
0.00831478
0.00803003
0.0074956
0.00681232
0.00606848
0.00520083
0.00409676
0.00276178
0.00142798
0.000285047
0.00929611
0.00952839
0.00971135
0.0097302
0.00961802
0.00942407
0.00918016
0.008937
0.00872338
0.00847358
0.00812595
0.00762771
0.00699983
0.00629208
0.00543788
0.00433252
0.00294878
0.00149317
0.000278496
0.0100039
0.0101452
0.0102582
0.0102326
0.0100322
0.00971795
0.00942568
0.00917504
0.00892939
0.00863186
0.00825533
0.00778711
0.00723051
0.00658552
0.00579405
0.00476493
0.00343462
0.00184675
0.000310453
0.0104776
0.0105263
0.0105384
0.0104474
0.010202
0.00988315
0.00959499
0.00933872
0.00907475
0.00876723
0.0084005
0.00796371
0.00744927
0.00684823
0.00611345
0.00516242
0.00392183
0.00216601
0.000341332
0.0107772
0.0107379
0.0106522
0.0104938
0.0102488
0.00996183
0.00968173
0.00942063
0.00915339
0.00884836
0.00849112
0.00807022
0.00757158
0.00698652
0.00628936
0.00540497
0.00421803
0.00253467
0.000374558
0.0109552
0.0108408
0.0106793
0.0104734
0.0102297
0.00997138
0.009701
0.00943131
0.0091579
0.00885207
0.00849532
0.00806984
0.0075652
0.00697963
0.00628549
0.00542985
0.0042838
0.00258647
0.000364496
0.011049
0.0108814
0.0106702
0.0104285
0.0101674
0.00989972
0.00962961
0.00934722
0.00905847
0.00874998
0.00839028
0.00794868
0.00743349
0.00683681
0.00612361
0.00526259
0.00414404
0.00251476
0.000343409
0.0110743
0.0108715
0.0106294
0.0103635
0.0100827
0.00979189
0.0094944
0.00918666
0.0088651
0.0085231
0.00813515
0.00768308
0.00715948
0.00654946
0.00580533
0.0049182
0.00381945
0.00228912
0.000322106
0.0110373
0.010813
0.0105523
0.010271
0.00997535
0.00966531
0.00934061
0.00899928
0.00863706
0.00824745
0.00781694
0.00732862
0.00677074
0.00612347
0.00536119
0.00447259
0.00340716
0.00200617
0.00029571
0.0109511
0.0107179
0.0104495
0.0101601
0.00985359
0.00952769
0.00917908
0.00880468
0.0083998
0.00795969
0.00747734
0.00694299
0.00634472
0.00566714
0.0048939
0.00401166
0.00298412
0.00171583
0.000273908
0.0108371
0.0106081
0.0103426
0.0100522
0.00973932
0.00940051
0.00903123
0.00862793
0.0081868
0.00770406
0.00717694
0.00660307
0.00597349
0.00527733
0.00450244
0.00363644
0.0026518
0.00149005
0.000266992
0.010719
0.0105056
0.0102527
0.00996909
0.00965602
0.00931017
0.0089273
0.00850439
0.00803932
0.00753024
0.00697708
0.00638075
0.00573863
0.0050455
0.0042937
0.0034707
0.002537
0.00142448
0.000273483
0.0106134
0.0104244
0.0101918
0.00992229
0.00961675
0.00927265
0.00888694
0.00845791
0.00798531
0.00746963
0.00691309
0.0063192
0.00569073
0.00502929
0.0043311
0.00357306
0.00268039
0.00153351
0.000285451
0.0105268
0.0103668
0.0101596
0.00991046
0.00962021
0.00928737
0.00891036
0.00848918
0.00802568
0.00752279
0.00698421
0.00641546
0.0058231
0.00521121
0.00457339
0.00386352
0.00297657
0.00173857
0.000297482
0.010457
0.0103275
0.0101481
0.00992346
0.00965471
0.00934135
0.00898317
0.0085817
0.00814065
0.00766493
0.00715958
0.00663051
0.00608373
0.00551939
0.00492003
0.00421773
0.00329139
0.00194784
0.00030707
0.0103991
0.0102987
0.0101471
0.00994875
0.00970528
0.0094171
0.00908508
0.00871188
0.00830225
0.00786212
0.00739706
0.00691191
0.00640864
0.00587908
0.00528941
0.0045606
0.00356589
0.00211915
0.000314485
0.0103486
0.0102741
0.0101484
0.00997604
0.00975914
0.00949893
0.00919709
0.00885686
0.00848329
0.0080822
0.00765856
0.00721478
0.00674716
0.0062378
0.00563628
0.00486244
0.00379053
0.00224196
0.000321202
0.010303
0.0102505
0.0101477
0.00999926
0.00980812
0.00957615
0.00930552
0.00899962
0.00866312
0.00830095
0.00791631
0.00750814
0.00706649
0.00656438
0.00594542
0.00512528
0.0039797
0.00233289
0.000326348
0.0102644
0.0102287
0.0101443
0.0100165
0.00984869
0.00964336
0.00940285
0.00913025
0.00882936
0.0085036
0.00815382
0.00777517
0.00735197
0.00685045
0.00621117
0.00534832
0.00413904
0.00241008
0.000329399
0.0102353
0.0102109
0.0101403
0.010029
0.00988122
0.0096996
0.00948649
0.00924442
0.00897598
0.00868268
0.0083627
0.0080074
0.00759643
0.00709146
0.00643181
0.0055315
0.00426867
0.00247298
0.000331442
0.0102163
0.0101987
0.0101375
0.010039
0.00990747
0.00974595
0.00955657
0.00934113
0.00910083
0.0088351
0.00853936
0.00820156
0.00779773
0.00728674
0.00660766
0.00567501
0.00436724
0.00251595
0.00033278
0.0102051
0.0101909
0.0101362
0.0100472
0.00992858
0.00978351
0.00961384
0.0094206
0.00920353
0.00896002
0.00868285
0.00835711
0.00795621
0.00743758
0.00674051
0.00578055
0.00443643
0.00253967
0.000332823
0.0101968
0.0101841
0.0101338
0.0100521
0.00994381
0.00981197
0.00965819
0.00948269
0.00928386
0.00905719
0.00879319
0.00847469
0.00807344
0.00754656
0.00683332
0.00585145
0.00448048
0.00255109
0.000331041
0.010185
0.0101725
0.0101256
0.01005
0.00995017
0.00982905
0.00968786
0.00952609
0.00934091
0.00912618
0.00887062
0.00855542
0.00815143
0.0076161
0.00688962
0.00589161
0.0045034
0.00255547
0.000327523
0.0101629
0.0101499
0.0101059
0.0100356
0.00994313
0.00983092
0.00969977
0.00954843
0.00937308
0.00916628
0.00891542
0.00860068
0.00819266
0.00764955
0.00691324
0.00590483
0.00450785
0.00255364
0.000323375
0.0101251
0.0101111
0.0100693
0.0100039
0.00991798
0.00981341
0.00969041
0.00954706
0.00937869
0.00917689
0.0089282
0.00861234
0.00820013
0.00765083
0.00690837
0.00589481
0.00449604
0.00254424
0.000319613
0.010069
0.010053
0.010013
0.00995169
0.00987149
0.00977351
0.00965727
0.00952017
0.00935685
0.00915823
0.00891039
0.00859296
0.00817732
0.00762402
0.00687879
0.00586528
0.00447078
0.00252871
0.000316225
0.00999506
0.00997623
0.00993676
0.00987862
0.00980316
0.00971068
0.00960001
0.00946789
0.00930838
0.00911198
0.00886455
0.00854595
0.00812828
0.0075734
0.00682879
0.00581987
0.00443502
0.00250983
0.000312827
0.00990661
0.00988412
0.00984414
0.00978786
0.00971581
0.00962752
0.00952115
0.00939286
0.00923627
0.00904157
0.00879462
0.00847562
0.0080575
0.00750337
0.00676233
0.00576165
0.00439131
0.00248833
0.00030866
0.00980926
0.00978264
0.00974125
0.00968552
0.00961535
0.00952969
0.00942612
0.00930037
0.00914571
0.00895222
0.0087058
0.00838711
0.00796982
0.00741821
0.00668287
0.00569294
0.00434054
0.00246369
0.000303499
0.00970948
0.00967905
0.00963579
0.00957957
0.00950983
0.00942508
0.00932256
0.00919772
0.0090437
0.00885054
0.00860434
0.00828615
0.00787036
0.00732219
0.00659352
0.00561518
0.00428206
0.00243567
0.0002977
0.00961314
0.00958013
0.00953537
0.00947829
0.00940795
0.00932257
0.00921924
0.00909339
0.00893825
0.00874402
0.00849709
0.00817892
0.00776446
0.00721971
0.00649751
0.00553005
0.00421447
0.002397
0.000293208
0.00952418
0.00949074
0.00944587
0.00938863
0.00931749
0.00923048
0.00912468
0.00899581
0.00883745
0.00864026
0.00839105
0.00807172
0.0076577
0.00711554
0.00639885
0.00544082
0.00414051
0.00234939
0.000289409
0.00944372
0.00941274
0.00937026
0.00931468
0.00924373
0.00915503
0.00904576
0.0089121
0.00874842
0.00854614
0.00829276
0.00797066
0.0075557
0.00701487
0.00630234
0.00535226
0.00406576
0.00230053
0.000285641
0.00936977
0.0093443
0.00930736
0.0092564
0.00918804
0.00909899
0.00898635
0.00884693
0.00867628
0.00846705
0.00820766
0.00788115
0.00746379
0.00692291
0.00621313
0.00526953
0.00399548
0.00225489
0.000282094
0.00929788
0.00928033
0.00925197
0.00920918
0.00914709
0.00906056
0.00894636
0.00880157
0.00862334
0.00840608
0.00813949
0.00780739
0.00738648
0.00684437
0.00613607
0.00519752
0.00393421
0.00221544
0.000279202
0.00922291
0.00921404
0.00919613
0.0091647
0.00911313
0.00903326
0.00892152
0.00877363
0.00858877
0.00836375
0.00808991
0.00775196
0.00732704
0.00678303
0.00607523
0.0051403
0.00388544
0.00218423
0.00027752
0.00914149
0.00913962
0.00913171
0.00911322
0.00907603
0.00900782
0.00890501
0.00875818
0.00856925
0.0083383
0.00805858
0.00771572
0.00728728
0.00674135
0.00603347
0.00510071
0.00385134
0.00216214
0.000277656
0.00905486
0.00905559
0.00905419
0.00904799
0.00902968
0.00898053
0.00889266
0.00875058
0.00856067
0.00832678
0.00804384
0.00769819
0.00726768
0.00672051
0.00601231
0.00508021
0.00383246
0.00214724
0.000279798
)
;

boundaryField
{
    leftWall
    {
        type            nutkWallFunction;
        Cmu             0.09;
        kappa           0.41;
        E               9.8;
        value           nonuniform List<scalar> 
50
(
8.57151e-06
1.21393e-05
1.44724e-05
1.63744e-05
1.80713e-05
1.96953e-05
2.13341e-05
2.30466e-05
2.50289e-05
2.82939e-05
3.17265e-05
3.54122e-05
3.97964e-05
4.55634e-05
4.87945e-05
4.91353e-05
4.69786e-05
4.56153e-05
4.4371e-05
4.35369e-05
4.44887e-05
5.04461e-05
5.04402e-05
4.81654e-05
4.45347e-05
3.97627e-05
3.5094e-05
3.0689e-05
2.64333e-05
2.26186e-05
1.95539e-05
1.73077e-05
1.57391e-05
1.46368e-05
1.38228e-05
1.31849e-05
1.26634e-05
1.22366e-05
1.18971e-05
1.16382e-05
1.14608e-05
1.13704e-05
1.13795e-05
1.15295e-05
1.19661e-05
1.31056e-05
1.58114e-05
2.12553e-05
3.0926e-05
4.9413e-05
)
;
    }
    rightWall
    {
        type            nutkWallFunction;
        Cmu             0.09;
        kappa           0.41;
        E               9.8;
        value           nonuniform List<scalar> 
50
(
1.49755e-05
2.21512e-05
2.61426e-05
2.88004e-05
3.06475e-05
3.19722e-05
3.30187e-05
3.41618e-05
3.62599e-05
3.6974e-05
3.44106e-05
3.24582e-05
3.26998e-05
3.60168e-05
4.19884e-05
4.59098e-05
4.58665e-05
4.33762e-05
4.00447e-05
3.59688e-05
3.27601e-05
3.13321e-05
3.20329e-05
3.36306e-05
3.46852e-05
3.57383e-05
3.72118e-05
3.82482e-05
3.88853e-05
3.92693e-05
3.94952e-05
3.96305e-05
3.96385e-05
3.93172e-05
3.8748e-05
3.82062e-05
3.77411e-05
3.72994e-05
3.68215e-05
3.60269e-05
3.52576e-05
3.43379e-05
3.3629e-05
3.3051e-05
3.25172e-05
3.20141e-05
3.16031e-05
3.13638e-05
3.13825e-05
3.1685e-05
)
;
    }
    lowerWall
    {
        type            nutkWallFunction;
        Cmu             0.09;
        kappa           0.41;
        E               9.8;
        value           nonuniform List<scalar> 
62
(
4.0302e-06
6.41244e-06
7.93112e-06
8.94039e-06
9.66553e-06
1.02088e-05
1.06276e-05
1.09566e-05
1.12112e-05
1.14039e-05
1.15801e-05
1.17285e-05
1.18499e-05
1.20137e-05
1.23444e-05
1.28735e-05
1.34672e-05
1.39634e-05
1.41324e-05
1.37456e-05
1.26711e-05
1.07565e-05
7.50135e-06
7.50135e-06
2.07478e-05
2.29087e-05
2.41845e-05
2.53956e-05
2.73815e-05
3.10445e-05
3.85107e-05
4.75377e-05
4.59954e-05
4.70381e-05
4.95931e-05
7.38225e-06
2.49352e-05
2.98591e-05
3.45462e-05
3.92871e-05
4.42797e-05
4.97251e-05
5.5855e-05
7.38225e-06
1.16893e-05
1.28553e-05
1.26538e-05
1.2183e-05
1.25978e-05
1.4215e-05
1.58852e-05
1.64307e-05
1.58987e-05
1.52121e-05
1.47036e-05
1.44647e-05
1.43576e-05
1.42169e-05
1.34247e-05
1.20279e-05
1.00143e-05
6.60475e-06
)
;
    }
    atmosphere
    {
        type            calculated;
        value           nonuniform List<scalar> 
46
(
0.009
0.009
0.009
0.009
0.009
0.009
0.009
0.009
0.009
0.009
0.009
0.009
0.009
0.009
0.009
0.009
0.009
0.009
0.009
0.009
0.009
0.009
0.009
0.009
0.009
0.009
0.009
0.009
0.009
0.009
0.009
0.009
0.00898053
0.00889266
0.00875058
0.00856067
0.00832678
0.00804384
0.00769819
0.00726768
0.00672051
0.00601231
0.00508021
0.00383246
0.00214724
0.000279798
)
;
    }
    defaultFaces
    {
        type            empty;
    }
}


// ************************************************************************* //
