/*--------------------------------*- C++ -*----------------------------------*\
| =========                 |                                                 |
| \\      /  F ield         | OpenFOAM: The Open Source CFD Toolbox           |
|  \\    /   O peration     | Version:  2.3.0                                 |
|   \\  /    A nd           | Web:      www.OpenFOAM.org                      |
|    \\/     M anipulation  |                                                 |
\*---------------------------------------------------------------------------*/
FoamFile
{
    version     2.0;
    format      ascii;
    class       volScalarField;
    location    "1.35";
    object      p_rgh;
}
// * * * * * * * * * * * * * * * * * * * * * * * * * * * * * * * * * * * * * //

dimensions      [1 -1 -2 0 0 0 0];

internalField   nonuniform List<scalar> 
2268
(
1093.03
1097.58
1100.08
1099.52
1096
1090.04
1082.18
1072.82
1062.17
1050.29
1036.94
1021.68
1003.97
983.029
960.671
936.134
910.318
884.852
859.908
836.861
818.876
809.88
812.525
1091.82
1095.43
1097.19
1096.33
1092.95
1087.42
1080.17
1071.54
1061.71
1050.64
1038.13
1023.75
1006.81
986.307
964.179
939.938
912.63
884.591
858.338
834.966
817.023
809.307
812.146
1090.29
1093.29
1094.26
1092.94
1089.64
1084.6
1078.15
1070.51
1061.78
1051.84
1040.39
1026.98
1011.27
991.243
969.883
943.809
913.844
884.323
856.854
833.577
816.106
807.697
810.302
1088.46
1091.48
1092.23
1090.67
1087.44
1082.83
1077.11
1070.43
1062.76
1053.87
1043.36
1030.7
1015.51
997.369
974.18
945.728
914.487
883.521
856.047
832.746
815.068
805.371
805.806
1086.41
1089.77
1090.73
1089.25
1086.23
1082.04
1077
1071.23
1064.55
1056.6
1046.89
1034.74
1019.58
1000.83
976.611
947.088
912.771
876.762
856.182
831.872
813.352
802.429
799.492
1084.23
1088.04
1089.38
1088.18
1085.52
1081.84
1077.53
1072.68
1067.01
1060
1051.02
1039.29
1024.05
1004.58
979.309
948.534
896.251
872.236
856.168
829.756
810.19
798.38
791.511
1081.95
1086.26
1088
1087.2
1085.03
1081.97
1078.48
1074.64
1070.05
1064.03
1055.81
1044.49
1029.19
1009.07
982.654
947.15
886.466
879.935
855.267
826.084
804.455
791.842
780.406
1079.6
1084.24
1086.43
1086.15
1084.59
1082.22
1079.6
1076.85
1073.37
1068.36
1060.88
1049.97
1034.66
1014.02
986.461
913.817
876.948
886.327
853.883
820.535
794.79
779.431
762.807
527.976
543.075
541.098
524.075
506.324
482.98
455.882
445.122
441.691
445.806
456.543
468.328
474.353
481.588
492.369
502.816
513.464
524.224
535.561
524.451
535.293
531.784
518.599
507.349
484.731
444.675
428.622
423.659
424.097
452.57
472.879
479.168
482.321
491.897
502.361
513.983
525.224
538.37
519.856
528.232
523.891
515.008
509.946
463.802
436.734
426.313
421.951
422.068
430.274
475.857
483.161
489.732
498.51
506.186
514.521
528.648
542.49
513.992
522.675
519.32
514.163
507.888
453.116
436.049
455.348
453.882
422.036
429.075
471.102
483.941
490.174
500.115
510.871
522.897
535.485
546.263
506.601
517.436
516.574
515.083
463.707
443.018
460.878
458.765
456.491
463.655
423.365
374.283
408.071
471.103
502.371
512.655
523.486
536.706
550.683
495.645
511.694
515.157
483.5
426.265
438.268
466.766
458.378
459.031
467.857
387.297
316.422
307.419
360.596
476.816
514.278
522.86
538.191
556.087
472.676
494.227
513.896
520.472
476.765
446.241
459.276
452.737
439.95
474.161
346.062
313.493
303.621
298.437
398.113
442.121
482.164
539.242
562.795
339.415
331.503
449.046
513.549
535.82
509.008
363.659
303.653
285.396
378.565
373.855
360.625
361.271
274.509
208.694
178.602
222.766
408.242
570.7
1075.68
1080.28
1083.34
1084.15
1083.67
1082.45
1081.22
1080.15
1078.37
1074.8
1068.36
1058.01
1042.79
1021.78
974.793
906.421
874.429
884.396
847.014
787.983
758.096
750.005
715.611
1069.1
1073.06
1077.26
1080.01
1081.57
1082.1
1083.05
1084.75
1085.72
1084.44
1079.7
1070.48
1055.94
1035.53
960.369
909.219
901.91
888.927
814.466
602.453
478.937
518.213
454.975
1059.19
1061.98
1067.97
1074.65
1079.65
1081.87
1085.14
1090.69
1095.48
1097.26
1094.75
1087.08
1073.55
1053.91
1020.67
969.292
925.004
819.838
585.227
355.701
256.781
181.912
53.7445
993.023
991.018
1018.92
1044.1
1067.67
1082.16
1087.85
1098.73
1108.93
1114.31
1114.33
1108.47
1096.27
1077.37
1052.46
1022.27
911.534
480.124
86.1117
66.6118
92.3654
69.3343
20.1351
378.768
369.927
443.705
569.691
713.859
746.888
849.68
1026.61
1129.37
1139.5
1142.37
1138.91
1129.53
1113.01
1036.17
775.556
331.509
43.2794
11.4798
6.21944
3.77695
2.88803
15.1549
51.9257
52.691
59.3426
251.189
444.132
287.238
208.612
410.855
629.05
863.153
969.974
999.511
943.985
678.893
256.776
55.3853
47.2279
35.1281
7.31199
3.96543
2.71
2.21905
3.13065
50.4076
50.0555
69.9626
297.963
399.234
180.804
37.9738
28.992
43.5196
112.914
150.321
152.784
114.299
64.2095
64.0987
65.9281
62.7418
44.8561
19.3885
2.71605
2.24727
1.94877
1.64816
48.4027
68.394
162.078
120.008
125.482
217.465
61.7997
18.1769
5.69595
10.7356
23.616
38.9474
59.679
95.8842
94.3957
92.4366
82.6291
43.9308
19.1338
4.62043
2.42661
3.89233
3.95368
64.8368
127.675
17.5526
2.04003
10.5803
135.246
132.366
60.4391
0.935757
1.87119
63.8623
93.0235
92.8335
76.2828
57.9959
9.36568
-0.0316638
8.74121
7.05817
5.80862
5.18701
4.80604
3.16956
81.9584
81.4111
3.49248
0.722531
0.551421
27.9285
71.3434
0.916884
0.595916
-0.429229
21.8835
60.5846
37.212
-0.514542
-0.400311
-0.167953
-0.0547314
-0.0809431
0.0507712
1.67554
2.87315
2.74715
0.607743
82.1851
31.5514
0.35832
0.301621
0.131843
-0.0857251
-0.406072
2.45874
2.41647
-0.536382
-0.609636
-0.511786
-0.309689
-0.231139
-0.215503
-0.158013
-0.121826
-0.0976172
-0.0204397
0.0796592
0.21
0.357552
0.451402
54.8574
21.8709
0.063943
0.0838501
-0.0164538
-0.161674
-0.26688
-0.34717
-0.391113
-0.404913
-0.379866
-0.327561
-0.263845
-0.22871
-0.200988
-0.158234
-0.112321
-0.0634213
0.00366264
0.0874457
0.182877
0.278723
0.359828
23.6397
9.12447
-0.0895606
-0.0680492
-0.0999651
-0.174653
-0.236104
-0.282362
-0.309289
-0.326678
-0.315771
-0.286585
-0.248886
-0.213993
-0.177615
-0.133623
-0.0872282
-0.0377509
0.021276
0.0888603
0.161147
0.231414
0.292084
0.747787
-0.355867
-0.235333
-0.179492
-0.170712
-0.197091
-0.227577
-0.251932
-0.266738
-0.27264
-0.264633
-0.243498
-0.214069
-0.182074
-0.147243
-0.107887
-0.0661743
-0.02138
0.0287963
0.083367
0.139765
0.193565
0.24027
-0.298136
-0.317182
-0.274891
-0.229289
-0.209837
-0.212067
-0.222342
-0.231555
-0.235668
-0.233307
-0.222793
-0.204019
-0.179202
-0.151315
-0.120628
-0.086717
-0.050395
-0.0114412
0.0307102
0.075158
0.119988
0.162058
0.198692
-0.235571
-0.270514
-0.257349
-0.234791
-0.220965
-0.215677
-0.215206
-0.21479
-0.211497
-0.203901
-0.191162
-0.1734
-0.151659
-0.127211
-0.100294
-0.0708839
-0.0393722
-0.0058616
0.0295434
0.066041
0.102164
0.135643
0.164986
-0.182205
-0.144027
-0.23513
-0.222041
-0.216731
-0.209649
-0.204422
-0.19891
-0.191452
-0.181084
-0.167374
-0.150456
-0.130835
-0.109039
-0.0852197
-0.0594642
-0.0320342
-0.00317684
0.0267611
0.0570772
0.0866494
0.113827
0.137813
-0.17914
-0.0907116
-0.149653
-0.202952
-0.203591
-0.197029
-0.190309
-0.182766
-0.173604
-0.16228
-0.148603
-0.132691
-0.114802
-0.0951819
-0.073938
-0.0511834
-0.0271523
-0.0021481
0.0234155
0.0489364
0.0735558
0.0960517
0.116028
-0.184304
-0.0625665
-0.0917453
-0.176589
-0.186466
-0.180615
-0.173991
-0.166262
-0.156997
-0.145915
-0.132965
-0.118256
-0.101956
-0.0842198
-0.0651589
-0.0449151
-0.023723
-0.00190287
0.0201361
0.0418876
0.0626976
0.0816411
0.0985522
-0.171551
-0.120495
-0.139883
-0.158042
-0.166269
-0.162414
-0.156729
-0.149751
-0.141249
-0.131096
-0.119286
-0.105927
-0.0911604
-0.0751337
-0.0579915
-0.0399098
-0.0211337
-0.00197982
0.0171732
0.0359006
0.0537231
0.0698939
0.0843906
-0.156137
-0.153471
-0.151437
-0.148656
-0.147096
-0.144254
-0.139694
-0.133778
-0.126382
-0.117428
-0.106925
-0.094966
-0.0817004
-0.0672905
-0.0519103
-0.0357632
-0.019101
-0.00222727
0.0145196
0.0307895
0.0461833
0.060133
0.0726597
-0.142507
-0.137887
-0.134533
-0.132523
-0.130372
-0.127614
-0.123883
-0.118935
-0.112614
-0.104845
-0.0956334
-0.0850526
-0.0732447
-0.0603819
-0.0466558
-0.032283
-0.0175125
-0.00262676
0.0120734
0.0262921
0.0396984
0.0518295
0.0627258
-0.130195
-0.125097
-0.120638
-0.117875
-0.115631
-0.113109
-0.109877
-0.105637
-0.100194
-0.0934534
-0.0854024
-0.0760951
-0.0656581
-0.0542586
-0.0420891
-0.0293615
-0.0163088
-0.00318499
0.0097465
0.0222312
0.0339873
0.0446198
0.0541745
-0.118884
-0.114025
-0.1092
-0.105883
-0.103349
-0.100824
-0.0978278
-0.0940377
-0.0892409
-0.0833244
-0.0762551
-0.06807
-0.058875
-0.0488235
-0.0380941
-0.0268811
-0.0153914
-0.00384481
0.00753302
0.0185234
0.0288809
0.0382586
0.0466979
-0.108528
-0.10422
-0.0995444
-0.0959658
-0.0931733
-0.0905383
-0.0876111
-0.0840795
-0.0797302
-0.0744424
-0.0681722
-0.0609408
-0.0528343
-0.0439867
-0.034556
-0.0247119
-0.0146315
-0.00449877
0.00549831
0.0151749
0.0243167
0.0326151
0.0401013
-0.0991086
-0.0954072
-0.0911285
-0.0875462
-0.0846183
-0.0818816
-0.0789583
-0.075573
-0.0715313
-0.0667188
-0.0610881
-0.0546493
-0.0474723
-0.0396707
-0.03138
-0.0227448
-0.0139131
-0.00503589
0.0037335
0.0122422
0.0203054
0.027649
0.0342935
-0.0905686
-0.0874101
-0.0836055
-0.0801912
-0.0772597
-0.0744833
-0.0715649
-0.0682794
-0.0644645
-0.0600218
-0.0549059
-0.0491214
-0.0427264
-0.0358157
-0.0285037
-0.020912
-0.0131641
-0.00538376
0.00230472
0.00977658
0.0168754
0.0233605
0.0292439
-0.0828169
-0.0801187
-0.0767763
-0.0736172
-0.07078
-0.0680329
-0.0651506
-0.0619603
-0.058336
-0.0541987
-0.0495081
-0.0442695
-0.0385317
-0.0323733
-0.0258903
-0.0191854
-0.0123628
-0.00552555
0.00122417
0.00778455
0.0140249
0.019737
0.024928
-0.0757386
-0.0734294
-0.070506
-0.0676312
-0.0649462
-0.0622831
-0.0594755
-0.056397
-0.0529551
-0.0490878
-0.0447641
-0.0399924
-0.034814
-0.0292941
-0.0235136
-0.01756
-0.0115226
-0.0054897
0.000452578
0.00621988
0.0117034
0.0167254
0.0212911
-0.0692174
-0.0672275
-0.0646726
-0.0620797
-0.0595749
-0.0570341
-0.0543369
-0.0513948
-0.0481407
-0.0445275
-0.0405368
-0.0361788
-0.0314886
-0.0265211
-0.0213447
-0.0160348
-0.0106693
-0.00532551
-7.79398e-05
0.00500175
0.00982235
0.0142333
0.0182397
-0.0631087
-0.0613899
-0.0591563
-0.0568285
-0.0545142
-0.0521211
-0.0495643
-0.0467822
-0.0437269
-0.0403673
-0.0366935
-0.0327165
-0.0284669
-0.0239911
-0.019348
-0.014603
-0.00982465
-0.00508142
-0.000439267
0.00403962
0.00827772
0.0121478
0.0156554
-0.0573088
-0.0558128
-0.0538505
-0.051763
-0.0496392
-0.0474107
-0.0450179
-0.0424182
-0.0395793
-0.0364811
-0.0331191
-0.0295052
-0.025666
-0.0216421
-0.0174844
-0.0132501
-0.00899955
-0.00479377
-0.00069138
0.00325279
0.00697201
0.0103586
0.0134186
-0.051732
-0.0504123
-0.0486734
-0.0467977
-0.0448595
-0.0428082
-0.0406006
-0.0382061
-0.0356023
-0.0327762
-0.0297268
-0.0264665
-0.0230196
-0.019422
-0.0157184
-0.0119589
-0.00819644
-0.00448488
-0.00087621
0.00258114
0.00582933
0.00877727
0.0114308
-0.0463213
-0.0451395
-0.0435797
-0.0418876
-0.0401303
-0.0382677
-0.0362645
-0.0340954
-0.0317427
-0.0291979
-0.026463
-0.0235508
-0.0204844
-0.0172961
-0.0140255
-0.0107162
-0.00741434
-0.00416674
-0.00101886
0.00198688
0.00480042
0.00734482
0.00962523
-0.0410482
-0.0399745
-0.0385574
-0.0370271
-0.0354494
-0.0337867
-0.0320033
-0.0300738
-0.0279826
-0.0257245
-0.023304
-0.020735
-0.0180398
-0.0152479
-0.0123941
-0.00951609
-0.00665331
-0.00384573
-0.00113231
0.00145037
0.00385925
0.00602965
0.00796526
-0.0359013
-0.0349169
-0.0336151
-0.0322342
-0.03084
-0.0293875
-0.0278338
-0.0261511
-0.0243254
-0.0223544
-0.0202457
-0.0180142
-0.0156816
-0.0132743
-0.0108227
-0.00835869
-0.00591514
-0.00352539
-0.0012221
0.000963738
0.00299547
0.00481905
0.00643596
-0.0308657
-0.0299652
-0.0287595
-0.0275286
-0.0263282
-0.0250946
-0.0237748
-0.0223395
-0.0207776
-0.0190909
-0.0172895
-0.0153894
-0.0134107
-0.0113768
-0.00931309
-0.00724577
-0.00520153
-0.00320741
-0.00129011
0.000524635
0.00220601
0.00370936
0.00503342
-0.0258945
-0.0250844
-0.0239744
-0.022918
-0.0219301
-0.0209217
-0.0198344
-0.0186423
-0.0173399
-0.0159332
-0.0144346
-0.01286
-0.0112271
-0.00955552
-0.00786553
-0.00617779
-0.00451311
-0.00289265
-0.00133755
0.000131378
0.00148885
0.00269863
0.00375652
-0.0209616
-0.0202316
-0.0192536
-0.0184192
-0.0176648
-0.0168827
-0.0160204
-0.0150633
-0.0140141
-0.0128829
-0.0116828
-0.0104279
-0.00913262
-0.00781199
-0.00648134
-0.00515595
-0.00385112
-0.00258251
-0.00136606
-0.000217772
0.000842571
0.0017866
0.00260673
-0.016238
-0.0156367
-0.0147916
-0.0141279
-0.0135842
-0.0130093
-0.0123525
-0.0116162
-0.0108119
-0.00995094
-0.00904417
-0.00810197
-0.00713447
-0.00615195
-0.0051648
-0.00418319
-0.00321735
-0.00227781
-0.00137543
-0.000521417
0.000270079
0.000978411
0.00159221
-0.0114293
-0.0122117
-0.0110123
-0.0101142
-0.0096648
-0.00924834
-0.00876917
-0.00824145
-0.00767922
-0.0070891
-0.006476
-0.00584484
-0.00520072
-0.0045491
-0.00389562
-0.00324566
-0.00260453
-0.00197767
-0.00137072
-0.000789813
-0.000243406
0.000256677
0.00071037
-0.00420147
-0.00973917
-0.00624223
-0.00492978
-0.00452901
-0.004272
-0.00402896
-0.00379672
-0.00357296
-0.00335425
-0.00313864
-0.00292528
-0.00271375
-0.00250368
-0.00229445
-0.00208488
-0.0018734
-0.0016584
-0.00143846
-0.00121274
-0.000982
-0.000748674
-0.000506384
642.419
593.694
569.724
544.152
284.91
157.957
146.905
136.044
22.5869
23.3024
26.9598
21.7329
19.958
25.1501
33.5869
20.0546
19.2783
18.8835
4.50437
1.40248
2.39351
1.26707
1.14746
1.14588
1.30584
1.0146
1.01081
1.02262
2.69907
0.925638
0.906059
0.912007
1.0893
0.779943
0.783974
0.784902
0.614926
0.639741
0.651192
0.659182
0.496815
0.518167
0.535541
0.549065
0.400245
0.42309
0.442766
0.458083
0.327586
0.349362
0.368708
0.384072
0.270367
0.29023
0.308625
0.323547
0.224247
0.242248
0.259559
0.273812
0.186888
0.203149
0.219279
0.232733
0.156714
0.171329
0.186197
0.19874
0.132454
0.145553
0.159132
0.170672
0.112938
0.124679
0.137007
0.147511
0.0970678
0.107605
0.118767
0.128275
0.08383
0.0932711
0.103359
0.111957
0.0725636
0.0809858
0.0900641
0.0978304
0.0628717
0.0703755
0.0785153
0.0855069
0.0544203
0.0611097
0.068393
0.0746663
0.0469728
0.0529361
0.0594413
0.0650524
0.0403981
0.0456991
0.051488
0.0564851
0.0346417
0.039325
0.0444412
0.0488596
0.0296728
0.0337757
0.0382535
0.0421203
0.0254401
0.0290027
0.032879
0.0362214
0.0218531
0.0249226
0.0282437
0.0310968
0.0187913
0.0214198
0.0242411
0.0266502
0.0161286
0.0183679
0.0207486
0.0227659
0.0137578
0.0156546
0.0176514
0.0193297
0.0116044
0.0131981
0.0148601
0.0162463
0.00962646
0.0109486
0.0123156
0.013448
0.00780572
0.00888241
0.00998575
0.0108936
0.00613738
0.00699148
0.00785712
0.00856369
0.00462089
0.00527496
0.00592756
0.00645434
0.00325963
0.00373878
0.0042062
0.00457833
0.00205442
0.0023841
0.00270105
0.00295688
0.00107719
0.00131786
0.00153348
0.00169723
-0.000275847
-0.00012793
6.70758e-06
0.000118525
184.879
125.547
236.705
313.121
352.161
310.2
184.169
151.651
179.681
258.413
373.16
380.726
372.667
278.8
166.999
166.431
168.966
188.301
340.237
48.9579
42.4664
75.241
109.426
146.075
252.175
193.42
88.8106
70.5729
83.9792
306.171
393.596
345.381
163.295
166.956
215.164
199.992
124.003
121.093
32.9752
36.2213
57.1755
112.712
164.965
214.793
219.394
187.4
50.8866
50.123
93.3369
212.377
228.669
163.251
209.04
219.61
179.614
121.433
119.016
5.39154
10.0042
20.0531
53.9401
71.974
121.338
172.405
133.054
43.4383
44.1413
44.5302
62.7657
188.753
221.455
224.704
224.211
222.614
163.359
117.723
1.3925
1.29443
1.14843
0.984488
0.995004
1.56278
14.9607
29.3269
39.5186
42.1871
41.7085
42.8233
171.537
223.372
227.686
225.668
221.715
219.878
199.543
1.15181
1.10191
1.03668
1.00869
1.07465
1.55217
11.1404
41.6542
65.7906
54.5438
41.848
41.2044
54.5375
204.748
233.901
134.885
83.2339
129.189
122.598
1.03946
1.03325
1.02363
1.02075
1.14503
10.3362
54.3796
65.6336
68.5877
70.6982
68.2897
51.3811
45.7946
61.1375
67.1696
9.03927
13.6842
0.617392
0.436527
0.930579
0.923837
0.922807
1.15723
1.88628
4.9367
20.8959
51.4144
70.647
71.4871
72.337
72.7355
70.4801
57.9239
5.5023
1.50258
2.66266
0.757119
0.469284
0.78665
0.77973
0.768838
0.777105
0.830626
0.694771
0.561995
2.31577
14.2118
33.6274
52.9057
62.0848
71.5127
61.0138
16.9601
0.587463
0.461698
0.797264
0.452541
0.668339
0.680329
0.68458
0.638799
0.564783
0.460153
0.365441
0.32135
0.341324
0.683855
1.35462
3.13656
7.3623
3.77642
5.19776
1.45167
0.413323
0.423698
0.4129
0.565166
0.605877
0.6014
0.567939
0.488893
0.396919
0.320865
0.399553
1.15015
1.0484
0.291077
0.0637671
0.0790341
0.142536
0.192625
0.420951
0.38437
0.386936
0.390863
0.474822
0.496736
0.523438
0.497708
0.44502
0.351686
0.287484
0.341912
0.520634
0.352201
0.134996
0.136244
0.148762
0.185908
0.296022
0.647233
0.458381
0.373497
0.40181
0.401303
0.409613
0.443505
0.439196
0.403179
0.312848
0.261832
0.215035
0.165812
0.139792
0.119482
0.178214
0.564454
0.624524
0.645505
0.675039
0.484504
0.422229
0.5636
0.340559
0.348198
0.369262
0.390541
0.365543
0.301576
0.240302
0.200911
0.167043
0.335533
0.659567
0.657224
0.647692
0.649682
0.644786
0.396844
0.528422
0.556778
0.552452
0.290137
0.298242
0.299726
0.335979
0.330777
0.305196
0.227609
0.188595
0.406736
0.729391
0.70301
0.683856
0.671996
0.3276
0.12733
0.301195
0.524588
0.539245
0.53946
0.248153
0.256447
0.255597
0.256056
0.297131
0.28091
0.253656
0.179649
0.280613
0.68832
0.722099
0.48786
0.0976
0.0577675
0.0612408
0.064326
0.229936
0.520222
0.52286
0.213119
0.221347
0.221915
0.215589
0.20934
0.242538
0.23725
0.211748
0.135331
0.161259
0.189732
0.0826018
0.0580759
0.0561972
0.0549863
0.0529895
0.063944
0.125605
0.19705
0.183886
0.191831
0.193418
0.189267
0.179978
0.169663
0.168214
0.149994
0.119839
0.0926863
0.0759283
0.0652036
0.058872
0.0538353
0.0499986
0.0476423
0.0521825
0.0421034
0.0516197
0.159484
0.16698
0.169248
0.166742
0.159882
0.149346
0.136111
0.12277
0.108097
0.0900903
0.0770208
0.0686802
0.0611664
0.0541511
0.046276
0.0425195
0.0402279
0.0400284
0.278403
0.139022
0.145942
0.148626
0.147347
0.142359
0.13419
0.124187
0.114146
0.100966
0.0853572
0.073387
0.0659831
0.0584511
0.04906
0.0435433
0.0401969
0.0391916
0.061611
0.411548
0.12158
0.12796
0.130838
0.130449
0.126897
0.120572
0.112169
0.103145
0.0935385
0.0821364
0.0694654
0.0603298
0.0526342
0.0462703
0.0414701
0.0384482
0.038062
0.282797
0.426032
0.106484
0.112341
0.115296
0.115544
0.113094
0.108231
0.101396
0.0931014
0.0846618
0.0765291
0.0664941
0.0576337
0.050299
0.0444048
0.0398625
0.0369223
0.0361399
0.434791
0.442173
0.0932816
0.0986452
0.101592
0.102285
0.100676
0.0969824
0.0915578
0.0848205
0.0772413
0.0695706
0.0626533
0.0551167
0.0482087
0.0429221
0.0388306
0.0360654
0.0349081
0.328898
0.459368
0.0816342
0.086531
0.0894094
0.0904025
0.0894387
0.0866886
0.0824371
0.0770238
0.0708345
0.0642874
0.0580303
0.0521457
0.0465513
0.0418872
0.0385247
0.0364399
0.0360796
0.0606404
0.476356
0.0712805
0.0757329
0.0784966
0.0796862
0.0792212
0.0772389
0.0739717
0.0696954
0.0647256
0.0594073
0.0540908
0.0491273
0.0447501
0.0412148
0.0388149
0.0378464
0.0390764
0.0557558
0.492697
0.0620333
0.0660602
0.0686762
0.0699855
0.0699067
0.0685519
0.0661131
0.0628159
0.0589199
0.0547125
0.0504939
0.0465591
0.0431914
0.0406719
0.0392962
0.0394903
0.042102
0.14978
0.394518
0.0537747
0.0573935
0.0598394
0.0612093
0.0614248
0.0605787
0.0588318
0.0563706
0.0534105
0.0501924
0.0469747
0.0440244
0.0416152
0.0400339
0.0395965
0.0407663
0.0443396
0.272397
0.281144
0.0464365
0.0496635
0.0519242
0.0533063
0.0537366
0.0532932
0.0521124
0.0503511
0.0481889
0.0458286
0.0434914
0.0414155
0.039857
0.0390964
0.0394503
0.041376
0.0456477
0.279793
0.29105
0.0399676
0.0428198
0.0448846
0.0462375
0.0468112
0.0466734
0.0459414
0.0447487
0.0432465
0.0416048
0.0400115
0.0386747
0.0378271
0.0377338
0.0387013
0.0411736
0.0459982
0.269382
0.352457
0.0343066
0.0368029
0.0386647
0.0399526
0.0406062
0.0406858
0.0402945
0.0395471
0.0385714
0.0375091
0.0365174
0.0357734
0.035481
0.0358831
0.0372656
0.0400518
0.0450439
0.342106
0.399471
0.0293673
0.0315304
0.0331854
0.0343787
0.0350574
0.0352776
0.0351314
0.034719
0.0341479
0.0335351
0.0330093
0.0327164
0.032825
0.0335452
0.035134
0.0380263
0.0450685
0.409741
0.413685
0.0250434
0.0268989
0.028347
0.029422
0.0300809
0.0303777
0.030397
0.030227
0.0299572
0.0296822
0.0295043
0.0295361
0.0299072
0.0307987
0.0323768
0.0349487
0.19335
0.417486
0.237261
0.0212235
0.0227971
0.0240405
0.0249791
0.0255819
0.0259039
0.0260256
0.0260261
0.0259776
0.0259536
0.0260321
0.0262928
0.02684
0.0277783
0.0291973
0.0311858
0.191377
0.423448
0.191194
0.0178081
0.0191229
0.0201632
0.0209497
0.0214658
0.0217714
0.0219482
0.0220679
0.0221846
0.0223517
0.0226253
0.0230622
0.0237347
0.0247108
0.0260071
0.0277022
0.0872389
0.329187
0.114248
0.0147203
0.0157942
0.0166304
0.0172477
0.017647
0.0178995
0.0180959
0.0183028
0.0185509
0.0188746
0.0193116
0.0199004
0.0206913
0.0217333
0.0230762
0.0248687
0.0478866
0.0957554
0.0718729
0.0119087
0.012754
0.013381
0.0138069
0.0140533
0.014214
0.0144045
0.0146843
0.0150487
0.0155125
0.0160894
0.0168118
0.0177261
0.018895
0.0203946
0.022674
0.0321885
0.0322147
0.0400245
0.0093464
0.00997203
0.0103804
0.0105841
0.0106269
0.0106507
0.0108228
0.0111782
0.0116545
0.0122445
0.0129466
0.0137852
0.0148213
0.0161194
0.0259361
0.0375619
0.0311965
0.0294108
0.0363409
0.0070283
0.00744491
0.00762523
0.0075663
0.00733216
0.00716322
0.00731424
0.00776775
0.00835965
0.00906929
0.00988141
0.0108109
0.0140854
0.0282147
0.0329993
0.0351333
0.0326957
0.0260814
0.0323102
0.0049753
0.00520686
0.00516212
0.00479736
0.00415802
0.00361433
0.0037428
0.00435774
0.00510928
0.005957
0.00688066
0.00787785
0.0128102
0.0288467
0.0303408
0.0322963
0.0257459
0.0219462
0.027682
0.00323863
0.00333489
0.00309874
0.00236373
0.000808766
-0.000651866
-0.000444395
0.000535576
0.00161018
0.00269938
0.00379971
0.00501809
0.00724985
0.0134502
0.021055
0.0201255
0.0144105
0.0172977
0.0223664
0.0018562
0.00188987
0.00156047
0.000232745
-0.00334617
-0.00656574
-0.00546599
-0.00386197
-0.00234082
-0.000873486
0.000532596
0.00198985
0.00323692
0.00451558
0.00590407
0.00701361
0.00859968
0.0118757
0.0157504
0.00025138
0.00035157
0.0001032
-0.00140154
-0.00671949
-0.0085997
-0.00664182
-0.00526375
-0.00390304
-0.00266924
-0.00149789
-0.000361135
0.000741495
0.00178163
0.00271966
0.00345391
0.00413187
0.00567945
0.00828637
)
;

boundaryField
{
    leftWall
    {
        type            fixedFluxPressure;
        gradient        uniform 0;
        value           nonuniform List<scalar> 
50
(
1093.03
1091.82
1090.29
1088.46
1086.41
1084.23
1081.95
1079.6
1075.68
1069.1
1059.19
993.023
378.768
51.9257
50.4076
48.4027
64.8368
81.9584
82.1851
54.8574
23.6397
0.747787
-0.298136
-0.235571
-0.182205
-0.17914
-0.184304
-0.171551
-0.156137
-0.142507
-0.130195
-0.118884
-0.108528
-0.0991086
-0.0905686
-0.0828169
-0.0757386
-0.0692174
-0.0631087
-0.0573088
-0.051732
-0.0463213
-0.0410482
-0.0359013
-0.0308657
-0.0258945
-0.0209616
-0.016238
-0.0114293
-0.00420147
)
;
    }
    rightWall
    {
        type            fixedFluxPressure;
        gradient        uniform 0;
        value           nonuniform List<scalar> 
50
(
535.561
538.37
542.49
546.263
550.683
556.087
562.795
570.7
340.237
121.093
119.016
117.723
199.543
122.598
0.436527
0.469284
0.452541
0.4129
0.390863
0.40181
0.5636
0.552452
0.53946
0.52286
0.19705
0.0516197
0.278403
0.411548
0.426032
0.442173
0.459368
0.476356
0.492697
0.394518
0.281144
0.29105
0.352457
0.399471
0.413685
0.237261
0.191194
0.114248
0.0718729
0.0400245
0.0363409
0.0323102
0.027682
0.0223664
0.0157504
0.00828637
)
;
    }
    lowerWall
    {
        type            fixedFluxPressure;
        gradient        uniform 0;
        value           nonuniform List<scalar> 
62
(
1093.03
1097.58
1100.08
1099.52
1096
1090.04
1082.18
1072.82
1062.17
1050.29
1036.94
1021.68
1003.97
983.029
960.671
936.134
910.318
884.852
859.908
836.861
818.876
809.88
812.525
812.525
812.146
810.302
805.806
799.492
791.511
780.406
762.807
642.419
593.694
569.724
544.152
527.976
524.451
519.856
513.992
506.601
495.645
472.676
339.415
527.976
543.075
541.098
524.075
506.324
482.98
455.882
445.122
441.691
445.806
456.543
468.328
474.353
481.588
492.369
502.816
513.464
524.224
535.561
)
;
    }
    atmosphere
    {
        type            totalPressure;
        rho             rho;
        psi             none;
        gamma           1;
        p0              uniform 0;
        value           nonuniform List<scalar> 
46
(
-0.00104543
-0.00164885
-0.00119526
-0.000969788
-0.000852037
-0.000791388
-0.000767789
-0.000771633
-0.000797519
-0.000842146
-0.000903075
-0.000977876
-0.00106358
-0.00115639
-0.00125152
-0.00134335
-0.00142561
-0.0014918
-0.00153562
-0.00155162
-0.00153569
-0.00148551
-0.00140061
-0.00130769
-0.00122858
-0.00112518
-0.00100108
-0.000783936
-0.000509448
-0.00029206
-0.000139662
-3.93027e-05
0
0
0
0
0
0
0
0
0
0
0
0
0
0
)
;
    }
    defaultFaces
    {
        type            empty;
    }
}


// ************************************************************************* //
