/*--------------------------------*- C++ -*----------------------------------*\
| =========                 |                                                 |
| \\      /  F ield         | OpenFOAM: The Open Source CFD Toolbox           |
|  \\    /   O peration     | Version:  2.3.0                                 |
|   \\  /    A nd           | Web:      www.OpenFOAM.org                      |
|    \\/     M anipulation  |                                                 |
\*---------------------------------------------------------------------------*/
FoamFile
{
    version     2.0;
    format      ascii;
    class       surfaceScalarField;
    location    "1.35";
    object      phi;
}
// * * * * * * * * * * * * * * * * * * * * * * * * * * * * * * * * * * * * * //

dimensions      [0 3 -1 0 0 0 0];

internalField   nonuniform List<scalar> 
4432
(
1.47688e-06
-1.47688e-06
4.7185e-06
-3.24162e-06
8.24075e-06
-3.52224e-06
1.14817e-05
-3.24095e-06
1.43078e-05
-2.82612e-06
1.66719e-05
-2.36411e-06
1.85467e-05
-1.87474e-06
1.99099e-05
-1.36321e-06
2.07046e-05
-7.94758e-07
2.08402e-05
-1.3553e-07
2.03084e-05
5.31781e-07
1.91988e-05
1.10954e-06
1.74072e-05
1.79157e-06
1.4856e-05
2.55125e-06
1.22244e-05
2.63157e-06
1.02257e-05
1.99871e-06
9.35621e-06
8.69482e-07
9.85228e-06
-4.96061e-07
1.1071e-05
-1.2187e-06
1.19954e-05
-9.24442e-07
1.14339e-05
5.61469e-07
7.17757e-06
4.25637e-06
7.1776e-06
2.24192e-06
-3.71879e-06
5.36798e-06
-6.36766e-06
8.52999e-06
-6.68425e-06
1.1464e-05
-6.175e-06
1.40207e-05
-5.38275e-06
1.61149e-05
-4.45836e-06
1.76991e-05
-3.4589e-06
1.87481e-05
-2.41221e-06
1.92572e-05
-1.30384e-06
1.92389e-05
-1.17335e-07
1.86685e-05
1.1022e-06
1.75002e-05
2.27783e-06
1.57805e-05
3.51128e-06
1.36156e-05
4.71615e-06
1.13976e-05
4.84964e-06
9.62146e-06
3.77481e-06
8.60184e-06
1.88909e-06
8.40294e-06
-2.97154e-07
8.65017e-06
-1.46593e-06
8.74444e-06
-1.01872e-06
8.22612e-06
1.07982e-06
6.41735e-06
6.06511e-06
1.3595e-05
2.68228e-06
-6.40106e-06
5.77751e-06
-9.46288e-06
8.73072e-06
-9.63745e-06
1.14156e-05
-8.85991e-06
1.37198e-05
-7.68687e-06
1.55581e-05
-6.2967e-06
1.6879e-05
-4.7798e-06
1.76608e-05
-3.19403e-06
1.79061e-05
-1.54913e-06
1.76292e-05
1.59616e-07
1.68365e-05
1.89483e-06
1.55425e-05
3.57192e-06
1.38729e-05
5.18087e-06
1.2088e-05
6.50103e-06
1.03709e-05
6.56675e-06
8.9142e-06
5.23153e-06
7.88095e-06
2.92235e-06
7.33591e-06
2.47895e-07
7.01744e-06
-1.14744e-06
6.52265e-06
-5.23911e-07
5.7118e-06
1.89069e-06
4.47069e-06
7.3062e-06
1.80657e-05
2.86457e-06
-9.26563e-06
6.00608e-06
-1.26044e-05
8.85742e-06
-1.24888e-05
1.13645e-05
-1.1367e-05
1.34604e-05
-9.78276e-06
1.50741e-05
-7.91038e-06
1.61606e-05
-5.86627e-06
1.67093e-05
-3.74275e-06
1.67356e-05
-1.57541e-06
1.62699e-05
6.2525e-07
1.53534e-05
2.81134e-06
1.40526e-05
4.87274e-06
1.25356e-05
6.69793e-06
1.10721e-05
7.96452e-06
9.70755e-06
7.93127e-06
8.46875e-06
6.47034e-06
7.41678e-06
3.97432e-06
6.62652e-06
1.03815e-06
5.89466e-06
-4.15574e-07
4.90478e-06
4.65969e-07
3.73322e-06
3.06226e-06
2.60954e-06
8.42987e-06
2.06752e-05
2.96245e-06
-1.22281e-05
6.14953e-06
-1.57915e-05
8.93733e-06
-1.52766e-05
1.13086e-05
-1.37383e-05
1.32309e-05
-1.17051e-05
1.46483e-05
-9.32773e-06
1.55275e-05
-6.74548e-06
1.58755e-05
-4.09076e-06
1.57276e-05
-1.42751e-06
1.51377e-05
1.21511e-06
1.41808e-05
3.76824e-06
1.29642e-05
6.08936e-06
1.16718e-05
7.99037e-06
1.05069e-05
9.12932e-06
9.4362e-06
9.00202e-06
8.38888e-06
7.51765e-06
7.32503e-06
5.03815e-06
6.39142e-06
1.97175e-06
5.31218e-06
6.63669e-07
3.85557e-06
1.92256e-06
2.23356e-06
4.68428e-06
1.00018e-06
9.66323e-06
2.16754e-05
3.07601e-06
-1.53041e-05
6.2782e-06
-1.89936e-05
8.99303e-06
-1.79914e-05
1.12421e-05
-1.59873e-05
1.30143e-05
-1.34773e-05
1.42616e-05
-1.05751e-05
1.49631e-05
-7.44691e-06
1.51478e-05
-4.2755e-06
1.48761e-05
-1.15578e-06
1.42283e-05
1.86288e-06
1.33087e-05
4.68785e-06
1.22507e-05
7.14738e-06
1.12297e-05
9.01133e-06
1.03807e-05
9.97829e-06
9.59939e-06
9.78337e-06
8.72947e-06
8.38757e-06
7.72147e-06
6.04614e-06
6.73118e-06
2.96204e-06
5.36508e-06
2.02976e-06
3.48518e-06
3.80245e-06
1.3966e-06
6.77286e-06
-7.60816e-08
1.11359e-05
2.15993e-05
3.24275e-06
-1.85468e-05
6.40443e-06
-2.21553e-05
9.0084e-06
-2.05954e-05
1.11318e-05
-1.81107e-05
1.27717e-05
-1.51172e-05
1.38766e-05
-1.168e-05
1.44351e-05
-8.00535e-06
1.45021e-05
-4.34254e-06
1.41661e-05
-8.19801e-07
1.35332e-05
2.49578e-06
1.27289e-05
5.49215e-06
1.18977e-05
7.97858e-06
1.11937e-05
9.71532e-06
1.06876e-05
1.04844e-05
1.02224e-05
1.02486e-05
9.54231e-06
9.06762e-06
8.71737e-06
6.87108e-06
7.71644e-06
3.96298e-06
6.15144e-06
3.59475e-06
3.94352e-06
6.01039e-06
1.46333e-06
9.25305e-06
-3.52941e-07
1.29522e-05
2.12464e-05
3.43609e-06
-2.19829e-05
6.48402e-06
-2.52032e-05
8.92778e-06
-2.30391e-05
1.09159e-05
-2.00988e-05
1.24419e-05
-1.66433e-05
1.34358e-05
-1.26739e-05
1.38917e-05
-8.46121e-06
1.38942e-05
-4.34503e-06
1.35618e-05
-4.87424e-07
1.30219e-05
3.03567e-06
1.24112e-05
6.10282e-06
1.18709e-05
8.51886e-06
1.15239e-05
1.00623e-05
1.13974e-05
1.06109e-05
1.12726e-05
1.03734e-05
1.08926e-05
9.44757e-06
1.03144e-05
7.44928e-06
9.35145e-06
4.92598e-06
7.70365e-06
5.24255e-06
5.30932e-06
8.40471e-06
2.68985e-06
1.18725e-05
7.72605e-07
1.48694e-05
2.2019e-05
2.98582e-06
-2.98582e-06
1.29134e-05
-9.92758e-06
2.19998e-05
-9.08635e-06
2.57137e-05
-3.71393e-06
2.26593e-05
3.05438e-06
1.48341e-05
7.82515e-06
1.03233e-05
4.51088e-06
1.2054e-05
-1.73076e-06
1.45587e-05
-2.50471e-06
1.34448e-05
1.11398e-06
1.00637e-05
3.38111e-06
7.06267e-06
3.00101e-06
4.83511e-06
2.22755e-06
4.03267e-06
8.0245e-07
5.18186e-06
-1.1492e-06
5.69229e-06
-5.10392e-07
3.45084e-06
2.24144e-06
-2.64738e-07
3.71561e-06
-2.64747e-07
5.11731e-06
-8.10313e-06
1.33992e-05
-1.82094e-05
2.03057e-05
-1.59929e-05
2.398e-05
-7.38823e-06
2.32861e-05
3.74836e-06
1.83673e-05
1.27439e-05
1.42981e-05
8.58009e-06
1.37314e-05
-1.16405e-06
1.47668e-05
-3.54012e-06
1.43103e-05
1.57042e-06
1.1679e-05
6.01244e-06
8.98372e-06
5.6963e-06
6.83877e-06
4.3725e-06
5.77997e-06
1.86128e-06
5.98602e-06
-1.35527e-06
6.12972e-06
-6.54052e-07
4.61408e-06
3.75705e-06
1.6318e-06
6.69787e-06
1.36705e-06
6.14965e-06
-1.42528e-05
1.32766e-05
-2.53364e-05
1.86446e-05
-2.13609e-05
2.14289e-05
-1.01725e-05
2.10514e-05
4.12586e-06
1.80515e-05
1.57438e-05
1.52639e-05
1.13677e-05
1.42091e-05
-1.09259e-07
1.43175e-05
-3.64842e-06
1.41823e-05
1.70561e-06
1.23135e-05
7.88123e-06
9.93681e-06
8.07298e-06
7.96542e-06
6.34388e-06
6.78758e-06
3.03914e-06
6.48838e-06
-1.05607e-06
6.30667e-06
-4.72316e-07
5.19326e-06
4.87046e-06
2.94676e-06
8.94436e-06
4.31381e-06
6.57359e-06
-2.08264e-05
1.26273e-05
-3.13901e-05
1.68193e-05
-2.55529e-05
1.89867e-05
-1.23399e-05
1.87553e-05
4.35731e-06
1.73953e-05
1.71038e-05
1.57488e-05
1.30142e-05
1.42517e-05
1.38787e-06
1.33725e-05
-2.76928e-06
1.33676e-05
1.71049e-06
1.2499e-05
8.74984e-06
1.05337e-05
1.00383e-05
8.83293e-06
8.04469e-06
7.49856e-06
4.37352e-06
6.85691e-06
-4.14431e-07
6.40395e-06
-1.93437e-08
5.37759e-06
5.89682e-06
3.3655e-06
1.09564e-05
7.67932e-06
6.80609e-06
-2.76325e-05
1.15107e-05
-3.60947e-05
1.47004e-05
-2.87426e-05
1.65319e-05
-1.41714e-05
1.70392e-05
3.85008e-06
1.72377e-05
1.69054e-05
1.61892e-05
1.40626e-05
1.4091e-05
3.48604e-06
1.2201e-05
-8.79189e-07
1.18166e-05
2.09493e-06
1.16821e-05
8.88428e-06
1.07623e-05
1.09581e-05
9.63055e-06
9.17641e-06
8.09565e-06
5.90843e-06
7.1239e-06
5.57327e-07
6.35465e-06
7.49914e-07
5.15609e-06
7.09538e-06
3.15828e-06
1.29542e-05
1.08376e-05
7.08713e-06
-3.47196e-05
1.00191e-05
-3.90267e-05
1.22414e-05
-3.09649e-05
1.41174e-05
-1.60474e-05
1.58094e-05
2.15801e-06
1.73536e-05
1.53611e-05
1.65029e-05
1.49134e-05
1.37697e-05
6.21921e-06
1.07739e-05
2.1166e-06
9.43426e-06
3.4346e-06
9.50759e-06
8.81095e-06
1.02654e-05
1.02003e-05
1.0424e-05
9.01778e-06
8.72621e-06
7.60625e-06
7.28024e-06
2.00329e-06
6.08497e-06
1.9452e-06
4.60752e-06
8.57283e-06
2.55904e-06
1.50027e-05
1.33966e-05
7.79392e-06
-4.25135e-05
8.26862e-06
-3.95014e-05
9.68993e-06
-3.23862e-05
1.16964e-05
-1.80539e-05
1.44147e-05
-5.60257e-07
1.71402e-05
1.26356e-05
1.66783e-05
1.53752e-05
1.33456e-05
9.55192e-06
9.01945e-06
6.44276e-06
6.43423e-06
6.01981e-06
6.42015e-06
8.82502e-06
8.31217e-06
8.3083e-06
1.0156e-05
7.174e-06
9.26492e-06
8.49728e-06
7.24356e-06
4.02465e-06
5.59972e-06
3.58905e-06
3.93012e-06
1.02424e-05
1.81657e-06
1.71163e-05
1.52132e-05
9.15768e-06
-5.16712e-05
6.38562e-06
-3.67293e-05
7.09207e-06
-3.30927e-05
9.19184e-06
-2.01536e-05
1.25142e-05
-3.88258e-06
1.61908e-05
8.95904e-06
1.65532e-05
1.50128e-05
1.26611e-05
1.3444e-05
6.90156e-06
1.22023e-05
3.1801e-06
9.74128e-06
3.40147e-06
8.60364e-06
5.73887e-06
5.9709e-06
8.10837e-06
4.80451e-06
8.66617e-06
7.93948e-06
6.50931e-06
6.18151e-06
5.07202e-06
5.02634e-06
3.81933e-06
1.14951e-05
1.89872e-06
1.90369e-05
1.71119e-05
7.52136e-06
-2.95042e-05
1.35002e-05
-3.11821e-05
1.80945e-05
-2.76334e-05
2.18945e-05
-2.38989e-05
2.48688e-05
-1.96175e-05
2.67355e-05
-1.45406e-05
2.74906e-05
-9.21625e-06
2.74434e-05
-4.2979e-06
2.6946e-05
9.97258e-09
2.63203e-05
3.66143e-06
2.58605e-05
6.56262e-06
2.58149e-05
8.56443e-06
2.6325e-05
9.55219e-06
2.73277e-05
9.60821e-06
2.82351e-05
9.46599e-06
2.87588e-05
8.92389e-06
2.8586e-05
7.62206e-06
2.6807e-05
6.70502e-06
2.34109e-05
8.63865e-06
1.82336e-05
1.3582e-05
1.31149e-05
1.69913e-05
1.22584e-05
1.57259e-05
1.25931e-05
2.16843e-05
6.92995e-06
-3.64342e-05
1.11969e-05
-3.5449e-05
1.46719e-05
-3.11085e-05
1.80374e-05
-2.72644e-05
2.0966e-05
-2.25461e-05
2.27777e-05
-1.63524e-05
2.34576e-05
-9.89613e-06
2.35577e-05
-4.39803e-06
2.35615e-05
6.19202e-09
2.3806e-05
3.41691e-06
2.45284e-05
5.84023e-06
2.58677e-05
7.22512e-06
2.78046e-05
7.61533e-06
3.01366e-05
7.27618e-06
3.26366e-05
6.96599e-06
3.48745e-05
6.68592e-06
3.60633e-05
6.43333e-06
3.51407e-05
7.6276e-06
3.22739e-05
1.15054e-05
2.78665e-05
1.79894e-05
2.42174e-05
2.06404e-05
2.37419e-05
1.62014e-05
1.1129e-05
2.5206e-05
4.22894e-06
-4.06632e-05
5.92585e-06
-3.71459e-05
8.23313e-06
-3.34158e-05
1.16055e-05
-3.06367e-05
1.50619e-05
-2.60026e-05
1.71564e-05
-1.84469e-05
1.79215e-05
-1.06612e-05
1.83638e-05
-4.84036e-06
1.9077e-05
-7.07022e-07
2.03369e-05
2.15705e-06
2.22805e-05
3.89662e-06
2.49342e-05
4.57142e-06
2.81521e-05
4.39742e-06
3.16042e-05
3.82401e-06
3.5189e-05
3.38125e-06
3.86043e-05
3.27066e-06
4.09961e-05
4.04153e-06
4.08812e-05
7.74244e-06
3.71034e-05
1.52832e-05
3.26174e-05
2.24754e-05
3.23004e-05
2.09574e-05
3.39856e-05
1.45162e-05
1.39474e-05
3.11672e-05
-1.08672e-06
-3.95764e-05
-2.50937e-06
-3.57233e-05
-1.12298e-06
-3.48021e-05
3.01218e-06
-3.47719e-05
7.81771e-06
-3.08081e-05
1.04951e-05
-2.11242e-05
1.13693e-05
-1.15354e-05
1.23306e-05
-5.80164e-06
1.391e-05
-2.28647e-06
1.62208e-05
-1.53704e-07
1.93217e-05
7.95683e-07
2.31299e-05
7.6326e-07
2.74069e-05
1.20369e-07
3.17357e-05
-5.04771e-07
3.58206e-05
-7.0363e-07
3.95693e-05
-4.7802e-07
4.28315e-05
7.79303e-07
4.47421e-05
5.83187e-06
3.85961e-05
2.14291e-05
3.30358e-05
2.80357e-05
3.16834e-05
2.23098e-05
2.92037e-05
1.69959e-05
1.88898e-05
2.42613e-05
-9.83745e-06
-2.9739e-05
-1.49739e-05
-3.05868e-05
-1.3822e-05
-3.59541e-05
-7.4494e-06
-4.11445e-05
-1.20869e-07
-3.81366e-05
4.08931e-06
-2.53344e-05
5.20876e-06
-1.26548e-05
6.83946e-06
-7.43234e-06
9.12035e-06
-4.56736e-06
1.22728e-05
-3.30615e-06
1.61772e-05
-3.1087e-06
2.06522e-05
-3.71181e-06
2.55007e-05
-4.72812e-06
3.01512e-05
-5.15519e-06
3.42082e-05
-4.76068e-06
3.82755e-05
-4.54533e-06
4.22593e-05
-3.20452e-06
4.47923e-05
3.29884e-06
4.75831e-05
1.86384e-05
4.25209e-05
3.3098e-05
3.40966e-05
3.0734e-05
2.48041e-05
2.62884e-05
1.84355e-05
2.52583e-05
-2.16103e-05
-8.12868e-06
-3.09579e-05
-2.1239e-05
-2.85943e-05
-3.83178e-05
-1.94519e-05
-5.02869e-05
-1.03639e-05
-4.72246e-05
-2.66525e-06
-3.30331e-05
3.80425e-07
-1.57005e-05
2.89644e-06
-9.94837e-06
5.52997e-06
-7.20088e-06
9.18472e-06
-6.96091e-06
1.33605e-05
-7.28446e-06
1.78894e-05
-8.24072e-06
2.26331e-05
-9.47186e-06
2.76559e-05
-1.0178e-05
3.25027e-05
-9.60739e-06
3.68015e-05
-8.84419e-06
4.2631e-05
-9.03402e-06
5.00648e-05
-4.13488e-06
5.65699e-05
1.21333e-05
5.45182e-05
3.51495e-05
4.54065e-05
3.98457e-05
3.80756e-05
3.36194e-05
2.24427e-05
3.40685e-05
-2.81004e-05
1.99717e-05
-3.50399e-05
-1.42994e-05
-3.21664e-05
-4.11913e-05
-2.95204e-05
-5.29329e-05
-2.45303e-05
-5.22147e-05
-1.36026e-05
-4.39607e-05
-2.27116e-06
-2.7032e-05
1.30611e-06
-1.35256e-05
2.03412e-06
-7.92887e-06
5.41358e-06
-1.03403e-05
1.01334e-05
-1.20043e-05
1.53609e-05
-1.34682e-05
1.98695e-05
-1.39805e-05
2.30557e-05
-1.33642e-05
2.67773e-05
-1.33291e-05
3.17264e-05
-1.37933e-05
3.61694e-05
-1.3477e-05
3.82866e-05
-6.25212e-06
3.97568e-05
1.0663e-05
4.01714e-05
3.47348e-05
3.67137e-05
4.33033e-05
3.34382e-05
3.68949e-05
2.87618e-05
2.71188e-05
-1.61015e-05
3.60731e-05
-1.87884e-05
-1.16123e-05
-2.65638e-05
-3.34159e-05
-3.59795e-05
-4.35172e-05
-3.84216e-05
-4.97725e-05
-3.20563e-05
-5.0326e-05
-1.8565e-05
-4.05234e-05
-7.32367e-06
-2.47669e-05
-1.00286e-05
-5.22397e-06
-9.34301e-06
-1.1026e-05
-3.34239e-06
-1.80049e-05
3.85482e-06
-2.06654e-05
9.5304e-06
-1.96561e-05
1.41292e-05
-1.7963e-05
1.80318e-05
-1.72317e-05
1.96993e-05
-1.54608e-05
2.08589e-05
-1.46366e-05
2.04377e-05
-5.8309e-06
1.79798e-05
1.31209e-05
1.70133e-05
3.57014e-05
1.70682e-05
4.32483e-05
1.6399e-05
3.7564e-05
3.19574e-05
1.32037e-05
1.52013e-06
3.45529e-05
5.06608e-06
-1.51583e-05
-9.2326e-06
-1.91172e-05
-4.06486e-05
-1.21013e-05
-5.16142e-05
-3.88068e-05
-4.85765e-05
-5.33638e-05
-4.24482e-05
-4.66517e-05
-3.60154e-05
-3.11997e-05
-2.80507e-05
-1.31887e-05
-2.1245e-05
-1.78317e-05
-1.33441e-05
-2.59059e-05
-6.25799e-06
-2.77516e-05
-2.17388e-08
-2.58923e-05
4.51143e-06
-2.24962e-05
9.75405e-06
-2.24743e-05
1.10333e-05
-1.67401e-05
4.43954e-06
-8.04282e-06
-7.73252e-07
-6.18092e-07
-5.30968e-06
1.76573e-05
-4.83984e-06
3.52316e-05
-1.49995e-06
3.99082e-05
-2.48324e-07
3.63124e-05
3.4112e-05
-2.403e-06
1.49765e-05
1.95764e-05
1.90304e-05
-1.92121e-05
2.42026e-06
-2.50697e-06
-3.22803e-05
2.25991e-05
-5.72366e-05
-1.38504e-05
-6.0054e-05
-5.05464e-05
-5.65354e-05
-5.01702e-05
-5.19528e-05
-3.57823e-05
-3.14359e-05
-3.37055e-05
-2.07383e-05
-2.85293e-05
-1.6354e-05
-3.02901e-05
-1.18506e-05
-3.2255e-05
-6.29576e-06
-3.14472e-05
-2.77824e-06
-2.60138e-05
-5.7656e-06
-1.94869e-05
-1.34379e-05
-9.06772e-06
-2.09358e-05
-5.4487e-07
-2.72899e-05
5.7361e-06
-2.92983e-05
1.96654e-05
-2.53833e-05
3.13166e-05
-2.08896e-05
3.54146e-05
-1.92881e-05
3.4711e-05
3.41006e-05
-1.92767e-05
1.81342e-05
1.44221e-06
1.78903e-05
-1.89681e-05
2.67294e-06
1.27101e-05
-1.20731e-05
3.73447e-05
-3.48056e-05
8.8817e-06
-5.59654e-05
-2.93866e-05
-6.36289e-05
-4.2507e-05
-5.51203e-05
-4.42908e-05
-4.56336e-05
-4.31921e-05
-2.99868e-05
-4.4176e-05
-2.05933e-05
-3.96837e-05
-2.00303e-05
-3.2818e-05
-2.74683e-05
-2.40092e-05
-3.47113e-05
-1.87706e-05
-4.14879e-05
-1.27101e-05
-4.63083e-05
-4.24727e-06
-5.00929e-05
3.23951e-06
-5.39066e-05
9.54981e-06
-5.2597e-05
1.83558e-05
-4.73502e-05
2.60701e-05
-4.22024e-05
3.02669e-05
-3.87005e-05
3.1209e-05
2.8796e-05
-3.33961e-05
1.40956e-05
-1.26534e-05
1.32342e-05
-1.81069e-05
-1.46403e-06
2.74085e-05
-7.96602e-06
4.3847e-05
-1.92548e-05
2.01701e-05
-3.70377e-05
-1.16036e-05
-4.92958e-05
-3.02488e-05
-5.43624e-05
-3.92242e-05
-5.49614e-05
-4.25931e-05
-5.44967e-05
-4.46407e-05
-5.40321e-05
-4.01483e-05
-5.51488e-05
-3.17013e-05
-5.68319e-05
-2.23261e-05
-6.03701e-05
-1.52323e-05
-6.42142e-05
-8.86595e-06
-6.68061e-05
-1.65554e-06
-6.82685e-05
4.70167e-06
-6.90179e-05
1.02994e-05
-6.70184e-05
1.63561e-05
-6.23541e-05
2.14057e-05
-5.63841e-05
2.42968e-05
-4.96033e-05
2.4428e-05
2.09994e-05
-4.18068e-05
9.34886e-06
-2.20021e-05
-1.80071e-06
-6.95736e-06
-1.38841e-05
3.94917e-05
-1.59336e-05
4.58962e-05
-2.11839e-05
2.54204e-05
-3.24384e-05
-3.49304e-07
-4.33192e-05
-1.93681e-05
-5.167e-05
-3.08735e-05
-5.7208e-05
-3.70552e-05
-6.27255e-05
-3.91232e-05
-6.69104e-05
-3.59634e-05
-6.97004e-05
-2.89113e-05
-7.13379e-05
-2.06886e-05
-7.30062e-05
-1.35639e-05
-7.46354e-05
-7.23681e-06
-7.5258e-05
-1.03294e-06
-7.49136e-05
4.35722e-06
-7.36102e-05
8.996e-06
-7.05192e-05
1.3265e-05
-6.55973e-05
1.64837e-05
-5.92719e-05
1.79714e-05
-5.19587e-05
1.71147e-05
1.32815e-05
-4.42406e-05
-1.16323e-05
-1.03699e-05
-2.99624e-05
1.13728e-05
-3.03959e-05
3.99254e-05
-2.6188e-05
4.16882e-05
-2.63583e-05
2.55907e-05
-3.21587e-05
5.45089e-06
-4.02452e-05
-1.12816e-05
-4.82916e-05
-2.28271e-05
-5.56396e-05
-2.97073e-05
-6.25135e-05
-3.22494e-05
-6.80676e-05
-3.04093e-05
-7.17124e-05
-2.52664e-05
-7.36349e-05
-1.87659e-05
-7.46426e-05
-1.2556e-05
-7.49814e-05
-6.898e-06
-7.4336e-05
-1.67832e-06
-7.27732e-05
2.79424e-06
-7.02798e-05
6.50252e-06
-6.65334e-05
9.51857e-06
-6.15249e-05
1.14753e-05
-5.54924e-05
1.19389e-05
-4.88373e-05
1.04597e-05
6.67689e-06
-4.22327e-05
-2.39905e-05
1.36207e-05
-3.73208e-05
2.47035e-05
-3.55355e-05
3.81401e-05
-2.99016e-05
3.60544e-05
-2.79179e-05
2.36071e-05
-3.0555e-05
8.0881e-06
-3.6109e-05
-5.72751e-06
-4.28614e-05
-1.60747e-05
-4.98822e-05
-2.26863e-05
-5.65619e-05
-2.55696e-05
-6.20802e-05
-2.48909e-05
-6.58318e-05
-2.15148e-05
-6.78196e-05
-1.6778e-05
-6.85299e-05
-1.18457e-05
-6.82453e-05
-7.18264e-06
-6.69777e-05
-2.94609e-06
-6.48338e-05
6.50344e-07
-6.18622e-05
3.53094e-06
-5.79931e-05
5.64957e-06
-5.32949e-05
6.77709e-06
-4.79867e-05
6.63067e-06
-4.24473e-05
4.92013e-06
1.48411e-06
-3.72546e-05
-2.19129e-05
3.55333e-05
-3.1798e-05
3.4589e-05
-3.05349e-05
3.68769e-05
-2.64732e-05
3.1993e-05
-2.44956e-05
2.16296e-05
-2.57914e-05
9.384e-06
-2.96632e-05
-1.85573e-06
-3.50331e-05
-1.07048e-05
-4.10165e-05
-1.67028e-05
-4.6845e-05
-1.97411e-05
-5.17494e-05
-1.99865e-05
-5.52024e-05
-1.80619e-05
-5.71076e-05
-1.4873e-05
-5.77062e-05
-1.12473e-05
-5.72263e-05
-7.66251e-06
-5.57969e-05
-4.37536e-06
-5.35606e-05
-1.58605e-06
-5.0623e-05
5.93338e-07
-4.70458e-05
2.07228e-06
-4.2958e-05
2.68924e-06
-3.85848e-05
2.25733e-06
-3.42658e-05
6.01071e-07
-2.32747e-06
-3.04543e-05
-1.42576e-05
4.97909e-05
-2.09538e-05
4.12854e-05
-2.07524e-05
3.66757e-05
-1.85091e-05
2.97497e-05
-1.72937e-05
2.04141e-05
-1.82146e-05
1.03047e-05
-2.11009e-05
1.03045e-06
-2.5324e-05
-6.48171e-06
-3.01937e-05
-1.18332e-05
-3.50249e-05
-1.49099e-05
-3.91744e-05
-1.5837e-05
-4.21995e-05
-1.5037e-05
-4.39558e-05
-1.31168e-05
-4.45395e-05
-1.06637e-05
-4.41103e-05
-8.09164e-06
-4.2816e-05
-5.66957e-06
-4.08102e-05
-3.59188e-06
-3.823e-05
-1.98705e-06
-3.51989e-05
-9.59076e-07
-3.18782e-05
-6.31594e-07
-2.84893e-05
-1.13164e-06
-2.53243e-05
-2.56392e-06
-4.92367e-06
-2.2728e-05
-4.1251e-06
5.39161e-05
-8.54663e-06
4.57071e-05
-9.1257e-06
3.72548e-05
-8.32014e-06
2.8944e-05
-7.9603e-06
2.00542e-05
-8.93023e-06
1.12744e-05
-1.12841e-05
3.38424e-06
-1.46656e-05
-3.1003e-06
-1.85844e-05
-7.91435e-06
-2.25122e-05
-1.09822e-05
-2.5953e-05
-1.23963e-05
-2.85518e-05
-1.24384e-05
-3.01545e-05
-1.15142e-05
-3.07805e-05
-1.00379e-05
-3.05312e-05
-8.34085e-06
-2.95356e-05
-6.66518e-06
-2.79376e-05
-5.19006e-06
-2.58806e-05
-4.04431e-06
-2.35087e-05
-3.33107e-06
-2.09903e-05
-3.15011e-06
-1.85295e-05
-3.59233e-06
-1.63702e-05
-4.72317e-06
-6.52027e-06
-1.47737e-05
5.58552e-06
4.83303e-05
3.43272e-06
4.78599e-05
2.38989e-06
3.82975e-05
2.25585e-06
2.90782e-05
1.92031e-06
2.03896e-05
7.76448e-07
1.2418e-05
-1.28806e-06
5.4487e-06
-4.07584e-06
-3.12535e-07
-7.25409e-06
-4.73606e-06
-1.04457e-05
-7.7905e-06
-1.32904e-05
-9.55177e-06
-1.55175e-05
-1.02115e-05
-1.69873e-05
-1.00444e-05
-1.76827e-05
-9.3426e-06
-1.76629e-05
-8.36066e-06
-1.70276e-05
-7.30048e-06
-1.58993e-05
-6.31841e-06
-1.44105e-05
-5.5332e-06
-1.27019e-05
-5.03979e-06
-1.0931e-05
-4.92099e-06
-9.2764e-06
-5.24689e-06
-7.93791e-06
-6.06174e-06
-7.3435e-06
-7.11482e-06
1.04558e-05
3.78748e-05
1.2187e-05
4.61287e-05
1.18779e-05
3.86067e-05
1.1497e-05
2.94591e-05
1.08479e-05
2.10384e-05
9.6416e-06
1.36242e-05
7.81786e-06
7.27244e-06
5.49662e-06
2.00868e-06
2.90292e-06
-2.1423e-06
2.98952e-07
-5.18646e-06
-2.0609e-06
-7.19196e-06
-3.97592e-06
-8.2965e-06
-5.32995e-06
-8.69036e-06
-6.09174e-06
-8.58088e-06
-6.29236e-06
-8.16006e-06
-6.00319e-06
-7.58968e-06
-5.32118e-06
-7.00047e-06
-4.35867e-06
-6.49579e-06
-3.23953e-06
-6.159e-06
-2.10078e-06
-6.0598e-06
-1.09516e-06
-6.25261e-06
-3.82498e-07
-6.77457e-06
-7.6085e-06
-1.17664e-07
1.05429e-05
2.73319e-05
1.58369e-05
4.08348e-05
1.75441e-05
3.68997e-05
1.78804e-05
2.91227e-05
1.75077e-05
2.14111e-05
1.65505e-05
1.45815e-05
1.50872e-05
8.73578e-06
1.32393e-05
3.85662e-06
1.11752e-05
-7.80895e-08
9.08485e-06
-3.09601e-06
7.15027e-06
-5.25741e-06
5.52023e-06
-6.66652e-06
4.28968e-06
-7.45987e-06
3.4958e-06
-7.78712e-06
3.12738e-06
-7.79175e-06
3.13748e-06
-7.5999e-06
3.45394e-06
-7.31708e-06
3.9873e-06
-7.02933e-06
4.63503e-06
-6.8069e-06
5.28281e-06
-6.70772e-06
5.80772e-06
-6.77766e-06
6.08074e-06
-7.04774e-06
-7.50923e-06
5.98138e-06
8.24971e-06
1.90821e-05
1.52602e-05
3.38247e-05
1.90598e-05
3.31003e-05
2.07521e-05
2.74304e-05
2.12068e-05
2.09567e-05
2.08625e-05
1.49259e-05
1.99578e-05
9.64063e-06
1.86652e-05
5.14932e-06
1.71433e-05
1.44383e-06
1.55485e-05
-1.50116e-06
1.40236e-05
-3.73261e-06
1.26856e-05
-5.32861e-06
1.16146e-05
-6.38906e-06
1.08505e-05
-7.02316e-06
1.03961e-05
-7.33754e-06
1.02245e-05
-7.42851e-06
1.02859e-05
-7.37866e-06
1.05133e-05
-7.25688e-06
1.08264e-05
-7.12022e-06
1.11347e-05
-7.01602e-06
1.13396e-05
-6.98264e-06
1.13394e-05
-7.04768e-06
-7.20903e-06
1.10391e-05
5.77516e-06
1.33071e-05
1.27471e-05
2.68533e-05
1.77471e-05
2.81004e-05
2.06877e-05
2.44899e-05
2.21503e-05
1.94942e-05
2.26181e-05
1.44582e-05
2.24102e-05
9.84865e-06
2.17447e-05
5.8148e-06
2.07914e-05
2.39716e-06
1.96961e-05
-4.05962e-07
1.8585e-05
-2.62169e-06
1.75596e-05
-4.30328e-06
1.66925e-05
-5.52208e-06
1.60259e-05
-6.35674e-06
1.55734e-05
-6.88519e-06
1.53238e-05
-7.17906e-06
1.52459e-05
-7.30086e-06
1.52924e-05
-7.30354e-06
1.54037e-05
-7.23155e-06
1.55101e-05
-7.12236e-06
1.55348e-05
-7.0074e-06
1.53981e-05
-6.91109e-06
-6.83574e-06
1.50246e-05
3.95095e-06
9.35658e-06
1.0022e-05
2.07824e-05
1.52516e-05
2.28708e-05
1.89103e-05
2.08313e-05
2.11818e-05
1.72227e-05
2.24118e-05
1.32283e-05
2.28939e-05
9.36662e-06
2.28504e-05
5.85827e-06
2.24539e-05
2.79349e-06
2.1846e-05
2.01799e-07
2.11449e-05
-1.92063e-06
2.04447e-05
-3.60307e-06
1.98148e-05
-4.89226e-06
1.93e-05
-5.84204e-06
1.89218e-05
-6.50704e-06
1.86811e-05
-6.93833e-06
1.85612e-05
-7.18104e-06
1.85315e-05
-7.27381e-06
1.85494e-05
-7.24946e-06
1.85633e-05
-7.13631e-06
1.8515e-05
-6.95921e-06
1.83427e-05
-6.73905e-06
-6.48072e-06
1.79874e-05
2.80439e-06
6.55243e-06
7.81525e-06
1.57715e-05
1.26836e-05
1.80026e-05
1.65271e-05
1.69878e-05
1.92524e-05
1.44973e-05
2.1029e-05
1.14518e-05
2.2067e-05
8.32862e-06
2.25544e-05
5.37084e-06
2.26482e-05
2.69953e-06
2.24799e-05
3.70139e-07
2.21588e-05
-1.59951e-06
2.17734e-05
-3.21751e-06
2.13904e-05
-4.50917e-06
2.1056e-05
-5.50757e-06
2.0797e-05
-6.24802e-06
2.06231e-05
-6.76433e-06
2.05288e-05
-7.08672e-06
2.04962e-05
-7.24126e-06
2.0497e-05
-7.25037e-06
2.04946e-05
-7.13399e-06
2.04459e-05
-6.91076e-06
2.03045e-05
-6.59785e-06
-6.20127e-06
2.00248e-05
2.15088e-06
4.40152e-06
6.24808e-06
1.16743e-05
1.05291e-05
1.37217e-05
1.42057e-05
1.33112e-05
1.70606e-05
1.16423e-05
1.913e-05
9.38241e-06
2.05354e-05
6.92331e-06
2.14132e-05
4.49288e-06
2.18919e-05
2.22089e-06
2.20844e-05
1.77744e-07
2.20877e-05
-1.60272e-06
2.19823e-05
-3.11189e-06
2.18306e-05
-4.35742e-06
2.16785e-05
-5.35531e-06
2.15555e-05
-6.12496e-06
2.1477e-05
-6.68579e-06
2.14457e-05
-7.05542e-06
2.14535e-05
-7.24911e-06
2.14831e-05
-7.28017e-06
2.15101e-05
-7.16108e-06
2.1504e-05
-6.90475e-06
2.14306e-05
-6.52457e-06
-6.02667e-06
2.12559e-05
1.79538e-06
2.60608e-06
5.18761e-06
8.28232e-06
8.86565e-06
1.00439e-05
1.22072e-05
9.96946e-06
1.49738e-05
8.87561e-06
1.71276e-05
7.22859e-06
1.87222e-05
5.32867e-06
1.98454e-05
3.36961e-06
2.05925e-05
1.47386e-06
2.10543e-05
-2.83844e-07
2.13121e-05
-1.86044e-06
2.14361e-05
-3.23571e-06
2.14825e-05
-4.40385e-06
2.14947e-05
-5.36745e-06
2.15029e-05
-6.13313e-06
2.15257e-05
-6.70859e-06
2.15713e-05
-7.10103e-06
2.16388e-05
-7.31662e-06
2.17195e-05
-7.3609e-06
2.17982e-05
-7.23986e-06
2.18546e-05
-6.9612e-06
2.18648e-05
-6.53469e-06
-5.9658e-06
2.1804e-05
1.58874e-06
1.01742e-06
4.44994e-06
5.4215e-06
7.59369e-06
6.90017e-06
1.05537e-05
7.00939e-06
1.31176e-05
6.31176e-06
1.52179e-05
5.12821e-06
1.68663e-05
3.68016e-06
1.8113e-05
2.12289e-06
1.90236e-05
5.63301e-07
1.96668e-05
-9.26918e-07
2.0108e-05
-2.30158e-06
2.04056e-05
-3.53328e-06
2.06086e-05
-4.60694e-06
2.07562e-05
-5.51517e-06
2.08777e-05
-6.25471e-06
2.09931e-05
-6.82401e-06
2.11139e-05
-7.22186e-06
2.12443e-05
-7.44699e-06
2.13819e-05
-7.49847e-06
2.15188e-05
-7.37677e-06
2.16427e-05
-7.08495e-06
2.17374e-05
-6.62935e-06
-6.01426e-06
2.17859e-05
1.44471e-06
-4.27072e-07
3.89429e-06
2.97228e-06
6.58717e-06
4.20727e-06
9.17864e-06
4.41805e-06
1.14955e-05
3.99508e-06
1.34655e-05
3.1582e-06
1.50783e-05
2.06732e-06
1.63586e-05
8.42566e-07
1.7349e-05
-4.27074e-07
1.80992e-05
-1.67707e-06
1.86598e-05
-2.86221e-06
1.9078e-05
-3.95155e-06
1.93952e-05
-4.92421e-06
1.96457e-05
-5.76582e-06
1.98566e-05
-6.46582e-06
2.00481e-05
-7.01558e-06
2.02335e-05
-7.40733e-06
2.04204e-05
-7.63386e-06
2.06109e-05
-7.68898e-06
2.08027e-05
-7.56851e-06
2.09893e-05
-7.27152e-06
2.1161e-05
-6.80109e-06
-6.15997e-06
2.13067e-05
1.32436e-06
-1.75116e-06
3.43941e-06
8.57436e-07
5.75275e-06
1.89399e-06
8.0091e-06
2.16203e-06
1.00721e-05
1.93233e-06
1.18755e-05
1.35484e-06
1.33993e-05
5.43647e-07
1.46523e-05
-4.10365e-07
1.56605e-05
-1.4353e-06
1.6459e-05
-2.4756e-06
1.70859e-05
-3.48912e-06
1.75784e-05
-4.44415e-06
1.79707e-05
-5.31658e-06
1.82922e-05
-6.0875e-06
1.85674e-05
-6.7412e-06
1.88155e-05
-7.26383e-06
1.90508e-05
-7.64264e-06
1.92827e-05
-7.86583e-06
1.95167e-05
-7.92303e-06
1.97544e-05
-7.80626e-06
1.99939e-05
-7.51117e-06
2.02306e-05
-7.03782e-06
-6.38713e-06
2.04577e-05
1.2135e-06
-2.96446e-06
3.04551e-06
-9.74536e-07
5.03477e-06
-9.50733e-08
6.99199e-06
2.05188e-07
8.81106e-06
1.13488e-07
1.04348e-05
-2.68738e-07
1.18398e-05
-8.61211e-07
1.30258e-05
-1.59634e-06
1.4008e-05
-2.41749e-06
1.48104e-05
-3.27804e-06
1.54612e-05
-4.14003e-06
1.59896e-05
-4.9726e-06
1.64233e-05
-5.75028e-06
1.67871e-05
-6.45139e-06
1.71026e-05
-7.05682e-06
1.73876e-05
-7.54903e-06
1.76565e-05
-7.91162e-06
1.79199e-05
-8.12936e-06
1.81855e-05
-8.18863e-06
1.84576e-05
-8.07846e-06
1.8738e-05
-7.79158e-06
1.90255e-05
-7.32538e-06
-6.67869e-06
1.93171e-05
1.10962e-06
-4.07403e-06
2.69446e-06
-2.55938e-06
4.40332e-06
-1.80364e-06
6.09474e-06
-1.48597e-06
7.686e-06
-1.47761e-06
9.12864e-06
-1.71124e-06
1.03993e-05
-2.13179e-06
1.14933e-05
-2.69026e-06
1.24187e-05
-3.34296e-06
1.3192e-05
-4.05143e-06
1.38341e-05
-4.78216e-06
1.43675e-05
-5.50598e-06
1.48143e-05
-6.19719e-06
1.51956e-05
-6.83269e-06
1.55299e-05
-7.39121e-06
1.58335e-05
-7.85277e-06
1.61203e-05
-8.19844e-06
1.64013e-05
-8.4105e-06
1.66856e-05
-8.47296e-06
1.69797e-05
-8.37253e-06
1.72877e-05
-8.09958e-06
1.76115e-05
-7.64908e-06
-7.01769e-06
1.79505e-05
1.00776e-06
-5.08185e-06
2.37687e-06
-3.92834e-06
3.84256e-06
-3.26902e-06
5.29855e-06
-2.94183e-06
6.67956e-06
-2.85854e-06
7.94504e-06
-2.97664e-06
9.07386e-06
-3.26055e-06
1.00598e-05
-3.67615e-06
1.09072e-05
-4.19034e-06
1.16273e-05
-4.77163e-06
1.22357e-05
-5.3906e-06
1.27497e-05
-6.02001e-06
1.31871e-05
-6.63461e-06
1.35651e-05
-7.21074e-06
1.38998e-05
-7.72594e-06
1.42057e-05
-8.15873e-06
1.44958e-05
-8.48855e-06
1.47813e-05
-8.69602e-06
1.50718e-05
-8.7635e-06
1.53753e-05
-8.67598e-06
1.56978e-05
-8.422e-06
1.60433e-05
-7.99445e-06
-7.38779e-06
1.64135e-05
9.08261e-07
-5.99012e-06
2.08941e-06
-5.1091e-06
3.34512e-06
-4.52448e-06
4.59278e-06
-4.18942e-06
5.77987e-06
-4.04556e-06
6.87367e-06
-4.07035e-06
7.8571e-06
-4.2439e-06
8.72476e-06
-4.54373e-06
9.47938e-06
-4.94491e-06
1.01291e-05
-5.42133e-06
1.06854e-05
-5.94692e-06
1.11616e-05
-6.49626e-06
1.15718e-05
-7.04484e-06
1.19301e-05
-7.56901e-06
1.225e-05
-8.04583e-06
1.25443e-05
-8.45306e-06
1.28251e-05
-8.76922e-06
1.3103e-05
-8.97395e-06
1.33882e-05
-9.04858e-06
1.36892e-05
-8.97694e-06
1.40135e-05
-8.74622e-06
1.43666e-05
-8.34757e-06
-7.77336e-06
1.47522e-05
8.14032e-07
-6.80395e-06
1.83455e-06
-6.12912e-06
2.9093e-06
-5.59907e-06
3.97025e-06
-5.25028e-06
4.97584e-06
-5.05107e-06
5.90239e-06
-4.9968e-06
6.73873e-06
-5.08011e-06
7.48192e-06
-5.28677e-06
8.13439e-06
-5.59725e-06
8.70218e-06
-5.98905e-06
9.19373e-06
-6.43845e-06
9.61908e-06
-6.9216e-06
9.98912e-06
-7.41486e-06
1.03151e-05
-7.89498e-06
1.06084e-05
-8.33906e-06
1.08801e-05
-8.72464e-06
1.11408e-05
-9.02989e-06
1.1401e-05
-9.23402e-06
1.16703e-05
-9.31783e-06
1.19579e-05
-9.26452e-06
1.2272e-05
-9.06033e-06
1.26195e-05
-8.69514e-06
-8.15941e-06
1.30055e-05
7.32934e-07
-7.53653e-06
1.61931e-06
-7.01514e-06
2.53402e-06
-6.5137e-06
3.42089e-06
-6.13707e-06
4.25155e-06
-5.88166e-06
5.01356e-06
-5.75873e-06
5.70274e-06
-5.76916e-06
6.31905e-06
-5.90293e-06
6.8649e-06
-6.14299e-06
7.34459e-06
-6.46867e-06
7.76399e-06
-6.85781e-06
8.13029e-06
-7.28785e-06
8.45166e-06
-7.73615e-06
8.73689e-06
-8.1801e-06
8.99516e-06
-8.59723e-06
9.23587e-06
-8.96526e-06
9.46847e-06
-9.26242e-06
9.70239e-06
-9.46791e-06
9.94703e-06
-9.56247e-06
1.02115e-05
-9.52903e-06
1.05045e-05
-9.35342e-06
1.0834e-05
-9.02462e-06
-8.53157e-06
1.1206e-05
6.78476e-07
-8.21469e-06
1.44832e-06
-7.78493e-06
2.20926e-06
-7.27462e-06
2.92391e-06
-6.85169e-06
3.58176e-06
-6.5395e-06
4.18235e-06
-6.35931e-06
4.72756e-06
-6.31432e-06
5.21922e-06
-6.39453e-06
5.65914e-06
-6.58286e-06
6.04973e-06
-6.85924e-06
6.39452e-06
-7.20257e-06
6.69819e-06
-7.59148e-06
6.96654e-06
-8.00441e-06
7.20616e-06
-8.41965e-06
7.42431e-06
-8.81533e-06
7.62871e-06
-9.16963e-06
7.82745e-06
-9.46118e-06
8.02896e-06
-9.66946e-06
8.24189e-06
-9.77546e-06
8.47508e-06
-9.76229e-06
8.7373e-06
-9.6157e-06
9.03696e-06
-9.3243e-06
-8.87603e-06
9.38143e-06
6.55677e-07
-8.87026e-06
1.3065e-06
-8.43591e-06
1.90425e-06
-7.87237e-06
2.44371e-06