/*--------------------------------*- C++ -*----------------------------------*\
| =========                 |                                                 |
| \\      /  F ield         | OpenFOAM: The Open Source CFD Toolbox           |
|  \\    /   O peration     | Version:  2.3.0                                 |
|   \\  /    A nd           | Web:      www.OpenFOAM.org                      |
|    \\/     M anipulation  |                                                 |
\*---------------------------------------------------------------------------*/
FoamFile
{
    version     2.0;
    format      ascii;
    class       volVectorField;
    location    "1.35";
    object      U;
}
// * * * * * * * * * * * * * * * * * * * * * * * * * * * * * * * * * * * * * //

dimensions      [0 1 -1 0 0 0 0];

internalField   nonuniform List<vector> 
2268
(
(0.00742896 -0.00585524 0)
(0.034997 -0.013218 0)
(0.0742307 -0.0142031 0)
(0.113085 -0.0128584 0)
(0.147984 -0.0111292 0)
(0.177816 -0.00934957 0)
(0.20218 -0.00751551 0)
(0.220855 -0.00558631 0)
(0.233623 -0.00334789 0)
(0.239366 -0.000621834 0)
(0.23694 0.00222121 0)
(0.227375 0.00453893 0)
(0.21124 0.00752087 0)
(0.185862 0.0112128 0)
(0.153053 0.0120612 0)
(0.12416 0.00927843 0)
(0.107331 0.00340667 0)
(0.106305 -0.00395761 0)
(0.117844 -0.00814347 0)
(0.131045 -0.00752518 0)
(0.136549 -0.000875573 0)
(0.118009 0.0139077 0)
(0.0651466 0.0239244 0)
(0.0138162 -0.0134907 0)
(0.0434513 -0.0268138 0)
(0.0795762 -0.0290366 0)
(0.114883 -0.0269811 0)
(0.146538 -0.0235885 0)
(0.173292 -0.0196506 0)
(0.19443 -0.0154229 0)
(0.209558 -0.0109971 0)
(0.218496 -0.00621844 0)
(0.221288 -0.000958333 0)
(0.218187 0.0044418 0)
(0.208133 0.00953911 0)
(0.191704 0.0152117 0)
(0.169089 0.0210614 0)
(0.141937 0.0217807 0)
(0.117412 0.0166784 0)
(0.100973 0.0076344 0)
(0.0947449 -0.00284001 0)
(0.0966833 -0.00842541 0)
(0.0995541 -0.00615791 0)
(0.0971044 0.00494563 0)
(0.0886051 0.0291395 0)
(0.0706901 0.0583342 0)
(0.017026 -0.0271923 0)
(0.0486644 -0.0424852 0)
(0.0832238 -0.0440698 0)
(0.115859 -0.0407824 0)
(0.144631 -0.0355622 0)
(0.168484 -0.0293421 0)
(0.186644 -0.0225458 0)
(0.198698 -0.0154125 0)
(0.204557 -0.00794355 0)
(0.204357 -8.36653e-05 0)
(0.198285 0.0079852 0)
(0.186169 0.0158406 0)
(0.16883 0.0237151 0)
(0.148557 0.030671 0)
(0.127474 0.0312158 0)
(0.108598 0.0245265 0)
(0.0940292 0.0129579 0)
(0.0854226 -0.000361065 0)
(0.0817621 -0.00747361 0)
(0.0777524 -0.00459263 0)
(0.069858 0.00776825 0)
(0.0586629 0.0362458 0)
(0.051962 0.0860893 0)
(0.0179534 -0.0423116 0)
(0.0514556 -0.0593481 0)
(0.0855153 -0.0595789 0)
(0.116416 -0.0545617 0)
(0.142936 -0.0472081 0)
(0.164302 -0.0384703 0)
(0.179817 -0.0289075 0)
(0.189157 -0.0189196 0)
(0.192391 -0.00862903 0)
(0.189793 0.0019529 0)
(0.181798 0.0126067 0)
(0.168826 0.0228182 0)
(0.152124 0.0322217 0)
(0.134597 0.0392899 0)
(0.118124 0.0393489 0)
(0.102978 0.0316675 0)
(0.0896009 0.0185777 0)
(0.0794287 0.00326753 0)
(0.0717341 -0.00459112 0)
(0.0622319 -0.000624057 0)
(0.0490711 0.0129619 0)
(0.0347352 0.0425404 0)
(0.0295035 0.106796 0)
(0.0183918 -0.057957 0)
(0.0531948 -0.0765387 0)
(0.0870425 -0.0749078 0)
(0.116685 -0.0677987 0)
(0.141388 -0.0580941 0)
(0.16062 -0.0466757 0)
(0.173793 -0.0342265 0)
(0.180748 -0.0213407 0)
(0.181779 -0.00828195 0)
(0.177395 0.0048464 0)
(0.168342 0.0177338 0)
(0.155534 0.0296992 0)
(0.140574 0.0398874 0)
(0.12623 0.0464385 0)
(0.113593 0.0459672 0)
(0.1014 0.0379057 0)
(0.0892659 0.0243184 0)
(0.0781514 0.00791733 0)
(0.0675116 0.000289871 0)
(0.0531593 0.00592813 0)
(0.0344964 0.0204323 0)
(0.0158336 0.0488246 0)
(0.00833423 0.117476 0)
(0.019371 -0.0741482 0)
(0.0548951 -0.0938131 0)
(0.088274 -0.0898215 0)
(0.116716 -0.0803086 0)
(0.139836 -0.0680779 0)
(0.157225 -0.0538605 0)
(0.168366 -0.0384674 0)
(0.173304 -0.0227297 0)
(0.172622 -0.00707188 0)
(0.167119 0.00829441 0)
(0.157855 0.0229299 0)
(0.146119 0.0359753 0)
(0.133694 0.0462568 0)
(0.122923 0.0519782 0)
(0.114006 0.0510544 0)
(0.104571 0.0432043 0)
(0.0941032 0.0299895 0)
(0.0827723 0.0131864 0)
(0.0702744 0.00694026 0)
(0.0516551 0.0149699 0)
(0.0276593 0.0305043 0)
(0.00430342 0.0563367 0)
(-0.00835551 0.119301 0)
(0.0213334 -0.0910589 0)
(0.0568688 -0.110985 0)
(0.089153 -0.104219 0)
(0.116193 -0.0921269 0)
(0.137847 -0.0772705 0)
(0.153672 -0.0601671 0)
(0.163132 -0.0418007 0)
(0.166498 -0.0233101 0)
(0.164698 -0.00529612 0)
(0.158842 0.0119219 0)
(0.150262 0.0277757 0)
(0.140477 0.0412671 0)
(0.131273 0.0510846 0)
(0.124479 0.0557797 0)
(0.119443 0.0545731 0)
(0.113086 0.0474781 0)
(0.104862 0.0350524 0)
(0.094492 0.0186238 0)
(0.0809273 0.0148872 0)
(0.0589959 0.0261217 0)
(0.0307015 0.0430002 0)
(0.00380999 0.0655721 0)
(-0.017663 0.119642 0)
(0.0240885 -0.108862 0)
(0.0587749 -0.127837 0)
(0.0890781 -0.117881 0)
(0.114404 -0.103209 0)
(0.134697 -0.0857744 0)
(0.149272 -0.0657837 0)
(0.157465 -0.0444883 0)
(0.159787 -0.023441 0)
(0.15756 -0.00342798 0)
(0.152207 0.0151532 0)
(0.145241 0.0316513 0)
(0.138261 0.0450007 0)
(0.132896 0.0539192 0)
(0.130417 0.0574642 0)
(0.12944 0.056175 0)
(0.127171 0.0503607 0)
(0.122075 0.0389244 0)
(0.113346 0.0240492 0)
(0.0995099 0.0237802 0)
(0.0756282 0.038872 0)
(0.0450469 0.0568469 0)
(0.0184473 0.0744391 0)
(-0.00753103 0.115136 0)
(0.00624821 -0.0101742 0)
(0.0872742 -0.0394542 0)
(0.200129 -0.0370236 0)
(0.293487 -0.0145345 0)
(0.294974 0.0133058 0)
(0.206774 0.030435 0)
(0.126206 0.0116381 0)
(0.120942 -0.0142849 0)
(0.153831 -0.0146232 0)
(0.172202 0.00251776 0)
(0.141987 0.013984 0)
(0.0943441 0.0121094 0)
(0.0624683 0.00835996 0)
(0.0464531 0.00182891 0)
(0.0505621 -0.0063447 0)
(0.0658717 -0.00294853 0)
(0.0622363 0.00912798 0)
(0.0130165 0.0153398 0)
(-0.0146 -0.0021289 0)
(0.027234 -0.0262753 0)
(0.105869 -0.071484 0)
(0.195886 -0.0647718 0)
(0.263714 -0.0284823 0)
(0.286529 0.0187198 0)
(0.241077 0.0542687 0)
(0.174065 0.0341536 0)
(0.152669 -0.0079794 0)
(0.163318 -0.0164105 0)
(0.172879 0.00711747 0)
(0.154309 0.0249321 0)
(0.116723 0.0231872 0)
(0.0868285 0.0172196 0)
(0.0680766 0.00650209 0)
(0.0649588 -0.00696895 0)
(0.071352 -0.00334935 0)
(0.0690609 0.0156181 0)
(0.0367705 0.0269788 0)
(0.00933195 0.000465481 0)
(0.038411 -0.0535775 0)
(0.112883 -0.106097 0)
(0.186566 -0.091533 0)
(0.237115 -0.0433306 0)
(0.253358 0.0195295 0)
(0.228133 0.0702758 0)
(0.182819 0.0498597 0)
(0.163237 -0.00300865 0)
(0.16224 -0.0183006 0)
(0.166399 0.00772891 0)
(0.155457 0.0344208 0)
(0.126744 0.0345228 0)
(0.100249 0.026721 0)
(0.0813696 0.0119371 0)
(0.0737201 -0.00613024 0)
(0.0743597 -0.00303403 0)
(0.0704993 0.0208707 0)
(0.0485875 0.0380073 0)
(0.025352 0.0132975 0)
(0.0467653 -0.0839845 0)
(0.112736 -0.1389 0)
(0.172148 -0.114876 0)
(0.210631 -0.0549206 0)
(0.222505 0.0213484 0)
(0.209906 0.0811831 0)
(0.186352 0.059781 0)
(0.169365 0.0025539 0)
(0.156353 -0.016434 0)
(0.152985 0.00750271 0)
(0.150445 0.040658 0)
(0.132041 0.0442037 0)
(0.110032 0.0352048 0)
(0.0916815 0.0181331 0)
(0.0800732 -0.00377982 0)
(0.076242 -0.00147322 0)
(0.0704478 0.025934 0)
(0.0524573 0.0481994 0)
(0.0319136 0.0289974 0)
(0.0573827 -0.115504 0)
(0.107429 -0.165741 0)
(0.152209 -0.133034 0)
(0.182206 -0.0641835 0)
(0.195146 0.0210133 0)
(0.19887 0.0841396 0)
(0.192407 0.0662293 0)
(0.173933 0.0113948 0)
(0.148198 -0.00964507 0)
(0.134089 0.00838552 0)
(0.134264 0.042843 0)
(0.129535 0.0516349 0)
(0.117534 0.042264 0)
(0.101303 0.0247706 0)
(0.0855564 0.000212399 0)
(0.0768119 0.00162969 0)
(0.0678404 0.0314885 0)
(0.0500706 0.058067 0)
(0.0312988 0.0450309 0)
(0.0752344 -0.152837 0)
(0.097781 -0.184701 0)
(0.127166 -0.14619 0)
(0.151867 -0.0736109 0)
(0.171715 0.0156283 0)
(0.19298 0.0798518 0)
(0.198919 0.0706624 0)
(0.176627 0.0236082 0)
(0.138156 0.00279332 0)
(0.109933 0.0130239 0)
(0.105419 0.0432837 0)
(0.112325 0.053844 0)
(0.121754 0.0462319 0)
(0.1114 0.0325182 0)
(0.0910786 0.00603911 0)
(0.0754999 0.00657666 0)
(0.0622776 0.0380932 0)
(0.0434065 0.0682637 0)
(0.0259966 0.0593257 0)
(0.107835 -0.197632 0)
(0.0847899 -0.193418 0)
(0.0995022 -0.154611 0)
(0.121286 -0.0830596 0)
(0.148266 0.00357227 0)
(0.183634 0.068067 0)
(0.20209 0.0734044 0)
(0.178581 0.0369202 0)
(0.126044 0.018664 0)
(0.0819245 0.0226749 0)
(0.0669697 0.0434752 0)
(0.0807345 0.0456574 0)
(0.109026 0.0397715 0)
(0.116325 0.0389768 0)
(0.0959236 0.012969 0)
(0.0716462 0.01239 0)
(0.0543303 0.0448213 0)
(0.0352964 0.0779051 0)
(0.0199835 0.0707538 0)
(0.155814 -0.232153 0)
(0.0699799 -0.190762 0)
(0.0708059 -0.15914 0)
(0.0903537 -0.0916818 0)
(0.122253 -0.00955033 0)
(0.165976 0.0534229 0)
(0.198029 0.0742928 0)
(0.17879 0.0531505 0)
(0.10977 0.0413062 0)
(0.0500369 0.036978 0)
(0.028303 0.0424364 0)
(0.04843 0.0340206 0)
(0.0808238 0.0286291 0)
(0.100239 0.0410532 0)
(0.0924196 0.0235073 0)
(0.063473 0.0201084 0)
(0.049488 0.0529847 0)
(0.0326211 0.0875577 0)
(0.0290364 0.0836783 0)
(0.0273999 -0.138476 0)
(0.0594859 -0.153237 0)
(0.0855693 -0.13774 0)
(0.108058 -0.119348 0)
(0.126693 -0.0982157 0)
(0.140006 -0.0738048 0)
(0.146916 -0.0480942 0)
(0.148394 -0.0235376 0)
(0.146483 -0.00114831 0)
(0.143048 0.0186429 0)
(0.13975 0.0351715 0)
(0.138089 0.0474235 0)
(0.13923 0.0544149 0)
(0.143425 0.0561055 0)
(0.149045 0.0552275 0)
(0.153969 0.0515353 0)
(0.155642 0.0423648 0)
(0.150198 0.0326311 0)
(0.136946 0.0388436 0)
(0.112487 0.0600962 0)
(0.0823151 0.0773348 0)
(0.0643139 0.0811495 0)
(0.0797387 0.0804555 0)
(0.0272648 -0.179172 0)
(0.0515018 -0.182544 0)
(0.0693388 -0.160086 0)
(0.0878196 -0.138664 0)
(0.105648 -0.113795 0)
(0.11899 -0.0833185 0)
(0.125397 -0.0515293 0)
(0.126782 -0.0231616 0)
(0.126485 0.000770148 0)
(0.126742 0.0202744 0)
(0.129046 0.0350034 0)
(0.134443 0.044354 0)
(0.14333 0.0481015 0)
(0.154848 0.0472574 0)
(0.168498 0.0458463 0)
(0.182442 0.043769 0)
(0.19255 0.0396144 0)
(0.192985 0.0403912 0)
(0.181834 0.0553079 0)
(0.162577 0.0839789 0)
(0.138724 0.100665 0)
(0.123024 0.0842465 0)
(0.129625 0.0570576 0)
(0.0185359 -0.21202 0)
(0.0280941 -0.199157 0)
(0.0365396 -0.175864 0)
(0.0524003 -0.15683 0)
(0.0723731 -0.130964 0)
(0.0883562 -0.0938963 0)
(0.0954766 -0.0553777 0)
(0.0976164 -0.0244581 0)
(0.100054 -0.000972629 0)
(0.105021 0.0163742 0)
(0.113471 0.0278565 0)
(0.125832 0.0334964 0)
(0.141839 0.0339816 0)
(0.160029 0.0312345 0)
(0.179358 0.0287399 0)
(0.199145 0.0273485 0)
(0.215524 0.0293206 0)
(0.221411 0.042746 0)
(0.210653 0.0679071 0)
(0.188524 0.101402 0)
(0.171107 0.112678 0)
(0.167363 0.0865562 0)
(0.179124 0.067515 0)
(0.000179178 -0.230274 0)
(-0.0135702 -0.203258 0)
(-0.012527 -0.185824 0)
(0.00359788 -0.174131 0)
(0.0296979 -0.150394 0)
(0.051277 -0.105652 0)
(0.0601635 -0.0598055 0)
(0.0637007 -0.0283573 0)
(0.0696348 -0.00748755 0)
(0.0798226 0.00612053 0)
(0.0943876 0.0134111 0)
(0.113099 0.0149996 0)
(0.135218 0.0124488 0)
(0.158785 0.00872845 0)
(0.181689 0.00685022 0)
(0.203 0.00807499 0)
(0.220598 0.01561 0)
(0.232557 0.0375885 0)
(0.232003 0.080572 0)
(0.193521 0.125738 0)
(0.172236 0.114805 0)
(0.161481 0.0837051 0)
(0.150559 0.0895763 0)
(-0.0320084 -0.211991 0)
(-0.0794625 -0.192611 0)
(-0.0806303 -0.191034 0)
(-0.0578216 -0.198838 0)
(-0.0196991 -0.180666 0)
(0.0127654 -0.120506 0)
(0.0265788 -0.0638957 0)
(0.0330142 -0.0335446 0)
(0.0421939 -0.0163629 0)
(0.0563112 -0.00838261 0)
(0.0753802 -0.00615923 0)
(0.0982071 -0.00850824 0)
(0.123645 -0.0126386 0)
(0.14945 -0.0137075 0)
(0.172995 -0.0105563 0)
(0.19434 -0.00757797 0)
(0.213079 -0.00118979 0)
(0.227769 0.0269008 0)
(0.257619 0.124157 0)
(0.248039 0.16504 0)
(0.212153 0.126591 0)
(0.153841 0.0954039 0)
(0.132059 0.0970027 0)
(-0.0753602 -0.101333 0)
(-0.170174 -0.139492 0)
(-0.160918 -0.199037 0)
(-0.122208 -0.251522 0)
(-0.0820964 -0.232419 0)
(-0.0363515 -0.152678 0)
(-0.00230509 -0.069712 0)
(0.0114238 -0.041351 0)
(0.0226261 -0.0269813 0)
(0.0388143 -0.0219033 0)
(0.0596548 -0.0215703 0)
(0.0836794 -0.0253375 0)
(0.108723 -0.0304647 0)
(0.133501 -0.0330686 0)
(0.159286 -0.0312369 0)
(0.187954 -0.0288488 0)
(0.211096 -0.0308899 0)
(0.241274 -0.00400267 0)
(0.287241 0.088586 0)
(0.31399 0.204651 0)
(0.280263 0.207353 0)
(0.222647 0.175972 0)
(0.182151 0.109537 0)
(-0.146649 0.0411069 0)
(-0.190012 -0.08354 0)
(-0.176867 -0.224482 0)
(-0.162361 -0.283863 0)
(-0.149509 -0.269182 0)
(-0.1163 -0.209703 0)
(-0.0398297 -0.10556 0)
(0.00904903 -0.0558134 0)
(0.00933267 -0.0400516 0)
(0.020009 -0.0403873 0)
(0.0408914 -0.0430596 0)
(0.0681631 -0.0483756 0)
(0.0950267 -0.0550907 0)
(0.116891 -0.0620626 0)
(0.13435 -0.0694002 0)
(0.155642 -0.0767483 0)
(0.180309 -0.0724245 0)
(0.198201 -0.0302932 0)
(0.2115 0.0638551 0)
(0.220599 0.188967 0)
(0.214831 0.232379 0)
(0.184721 0.200664 0)
(0.162683 0.142277 0)
(-0.0945542 0.178476 0)
(-0.099504 -0.0735382 0)
(-0.120475 -0.202496 0)
(-0.169198 -0.277094 0)
(-0.208914 -0.283352 0)
(-0.199272 -0.256477 0)
(-0.149996 -0.196059 0)
(-0.0708705 -0.116003 0)
(-0.0346671 -0.0460574 0)
(-0.043775 -0.0581175 0)
(-0.0356013 -0.0892276 0)
(0.00166987 -0.105842 0)
(0.037912 -0.107194 0)
(0.0631167 -0.0985091 0)
(0.0859412 -0.0889604 0)
(0.103968 -0.0789155 0)
(0.111775 -0.0687258 0)
(0.109349 -0.0269129 0)
(0.104924 0.0679607 0)
(0.096114 0.192322 0)
(0.0905652 0.235673 0)
(0.0887001 0.198621 0)
(0.0805117 0.164931 0)
(-0.0150093 0.163198 0)
(0.00512034 -0.0657535 0)
(0.0271799 -0.161991 0)
(-0.135831 -0.22648 0)
(-0.273509 -0.273893 0)
(-0.27175 -0.280786 0)
(-0.249234 -0.230324 0)
(-0.217835 -0.136303 0)
(-0.192815 -0.0249117 0)
(-0.110145 -0.0929753 0)
(-0.0842563 -0.124093 0)
(-0.0536276 -0.133382 0)
(-0.0181472 -0.12141 0)
(0.0140372 -0.101497 0)
(0.038162 -0.093759 0)
(0.0596186 -0.080212 0)
(0.0568478 -0.0779573 0)
(0.00271191 -0.0284024 0)
(-0.0200954 0.0775222 0)
(-0.0292161 0.190697 0)
(-0.0200731 0.223757 0)
(-0.00286947 0.201683 0)
(-0.00254239 0.182815 0)
(0.0251252 0.157543 0)
(0.0940118 -0.0797929 0)
(0.101222 -0.0688247 0)
(-0.0632336 0.0731502 0)
(-0.287956 -0.175747 0)
(-0.314653 -0.286179 0)
(-0.324112 -0.252562 0)
(-0.306666 -0.178172 0)
(-0.232385 -0.133545 0)
(-0.12039 -0.113388 0)
(-0.0909157 -0.142232 0)
(-0.0751892 -0.15023 0)
(-0.05629 -0.141207 0)
(-0.0234281 -0.119438 0)
(0.00103144 -0.118278 0)
(-0.0462283 -0.086274 0)
(-0.108065 -0.0243354 0)
(-0.128481 0.00660751 0)
(-0.162339 0.0990663 0)
(-0.148391 0.181987 0)
(-0.122306 0.205605 0)
(-0.102754 0.197176 0)
(-0.10279 0.190643 0)
(0.025744 0.103948 0)
(0.131353 -0.0967258 0)
(0.0791685 0.0442071 0)
(-0.0289694 0.19407 0)
(-0.119412 0.0293772 0)
(-0.256197 -0.254991 0)
(-0.357794 -0.269602 0)
(-0.313614 -0.228943 0)
(-0.279922 -0.20954 0)
(-0.213606 -0.192388 0)
(-0.116788 -0.178218 0)
(-0.0981316 -0.173491 0)
(-0.109167 -0.165243 0)
(-0.182942 -0.149865 0)
(-0.203442 -0.104883 0)
(-0.235537 -0.0347883 0)
(-0.262132 0.0136101 0)
(-0.282048 0.0522326 0)
(-0.293709 0.110542 0)
(-0.271198 0.160214 0)
(-0.236375 0.181947 0)
(-0.212404 0.180472 0)
(-0.197963 0.171628 0)
(0.0232633 -0.0322575 0)
(0.100619 -0.10518 0)
(0.0460316 0.108867 0)
(-0.0338885 0.229053 0)
(-0.0678062 0.0952465 0)
(-0.15305 -0.0906903 0)
(-0.241874 -0.207598 0)
(-0.287702 -0.237888 0)
(-0.295589 -0.242802 0)
(-0.295739 -0.256425 0)
(-0.287633 -0.244774 0)
(-0.290047 -0.196395 0)
(-0.296369 -0.132807 0)
(-0.316593 -0.0901567 0)
(-0.334683 -0.0551837 0)
(-0.352928 -0.0116908 0)
(-0.363881 0.0252387 0)
(-0.371183 0.0572136 0)
(-0.369235 0.0955173 0)
(-0.349464 0.127442 0)
(-0.318634 0.146437 0)
(-0.28454 0.150773 0)
(-0.246603 0.135568 0)
(0.0129561 -0.0749986 0)
(0.0456034 -0.0722254 0)
(-0.0476788 0.186973 0)
(-0.0879184 0.248024 0)
(-0.0945363 0.129898 0)
(-0.141786 -0.0242252 0)
(-0.206261 -0.132799 0)
(-0.259264 -0.1929 0)
(-0.293918 -0.223359 0)
(-0.322917 -0.230262 0)
(-0.348892 -0.209264 0)
(-0.367908 -0.165218 0)
(-0.378697 -0.114867 0)
(-0.387615 -0.0747731 0)
(-0.396906 -0.0402004 0)
(-0.403531 -0.00449702 0)
(-0.404342 0.0267282 0)
(-0.400618 0.0538799 0)
(-0.389328 0.0806732 0)
(-0.367141 0.102084 0)
(-0.33615 0.113673 0)
(-0.299112 0.111815 0)
(-0.258346 0.0917902 0)
(-0.0690639 -0.162096 0)
(-0.101226 -0.0148869 0)
(-0.172413 0.22735 0)
(-0.15219 0.242159 0)
(-0.134985 0.142068 0)
(-0.153211 0.0186615 0)
(-0.193861 -0.0792078 0)
(-0.238509 -0.143968 0)
(-0.279674 -0.180862 0)
(-0.31832 -0.193344 0)
(-0.352523 -0.179352 0)
(-0.377392 -0.145987 0)
(-0.391557 -0.10569 0)
(-0.398872 -0.0691484 0)
(-0.40259 -0.0365428 0)
(-0.401964 -0.00596162 0)
(-0.396036 0.020447 0)
(-0.385405 0.0426898 0)
(-0.36883 0.0617402 0)
(-0.345006 0.0750961 0)
(-0.314841 0.0798867 0)
(-0.280234 0.0731435 0)
(-0.244204 0.0521622 0)
(-0.115299 0.00190121 0)
(-0.175085 0.107246 0)
(-0.20407 0.21747 0)
(-0.172485 0.211698 0)
(-0.149711 0.134664 0)
(-0.152727 0.0391894 0)
(-0.1769 -0.0433073 0)
(-0.21128 -0.103215 0)
(-0.248966 -0.140291 0)
(-0.286698 -0.155263 0)
(-0.320408 -0.148598 0)
(-0.345605 -0.125878 0)
(-0.360591 -0.0957601 0)
(-0.36734 -0.0655616 0)
(-0.368324 -0.0375319 0)
(-0.364106 -0.0120381 0)
(-0.354851 0.00963877 0)
(-0.341144 0.0272028 0)
(-0.322755 0.0406446 0)
(-0.299488 0.0484884 0)
(-0.272166 0.048879 0)
(-0.242568 0.0398623 0)
(-0.213555 0.0201505 0)
(-0.100872 0.134695 0)
(-0.158179 0.164815 0)
(-0.173121 0.202445 0)
(-0.151004 0.182481 0)
(-0.132815 0.122005 0)
(-0.13131 0.0482813 0)
(-0.146482 -0.0188064 0)
(-0.172423 -0.070631 0)
(-0.203834 -0.104858 0)
(-0.236541 -0.121084 0)
(-0.266238 -0.120274 0)
(-0.289053 -0.106394 0)
(-0.303283 -0.0853258 0)
(-0.309666 -0.0623281 0)
(-0.309753 -0.04009 0)
(-0.304454 -0.0198613 0)
(-0.294449 -0.0027504 0)
(-0.28045 0.0107152 0)
(-0.262821 0.0201328 0)
(-0.241965 0.0245035 0)
(-0.218836 0.0226178 0)
(-0.19513 0.0132841 0)
(-0.173311 -0.00398137 0)
(-0.0649372 0.240873 0)
(-0.103298 0.206781 0)
(-0.116348 0.196998 0)
(-0.104521 0.164866 0)
(-0.0935149 0.112699 0)
(-0.0925334 0.0534696 0)
(-0.103454 -0.00122396 0)
(-0.123366 -0.0450871 0)
(-0.148619 -0.075665 0)
(-0.175529 -0.092303 0)
(-0.200375 -0.0957829 0)
(-0.220017 -0.0888363 0)
(-0.232853 -0.0754087 0)
(-0.238936 -0.0592398 0)
(-0.239134 -0.0427796 0)
(-0.234301 -0.0275129 0)
(-0.225244 -0.01452 0)
(-0.212758 -0.00447153 0)
(-0.197498 0.00209201 0)
(-0.180166 0.00442654 0)
(-0.161782 0.00172357 0)
(-0.143913 -0.00672583 0)
(-0.128602 -0.0209922 0)
(-0.016716 0.295826 0)
(-0.0362835 0.236771 0)
(-0.0509187 0.198744 0)
(-0.0466683 0.157015 0)
(-0.0421271 0.108418 0)
(-0.0434123 0.0582355 0)
(-0.0526726 0.0125254 0)
(-0.0686345 -0.0248915 0)
(-0.0888781 -0.0521878 0)
(-0.11062 -0.068831 0)
(-0.13098 -0.0753881 0)
(-0.147532 -0.0736823 0)
(-0.158885 -0.0663459 0)
(-0.164766 -0.056015 0)
(-0.165607 -0.0447021 0)
(-0.162073 -0.0338128 0)
(-0.154911 -0.0243705 0)
(-0.144905 -0.0170851 0)
(-0.132805 -0.0125237 0)
(-0.11941 -0.0112762 0)
(-0.105721 -0.013907 0)
(-0.0931219 -0.0208449 0)
(-0.0832898 -0.0319975 0)
(0.0256636 0.28626 0)
(0.026261 0.25876 0)
(0.0134836 0.204719 0)
(0.012373 0.15608 0)
(0.0121164 0.108703 0)
(0.00848939 0.0639306 0)
(-0.000265106 0.0242616 0)
(-0.0136622 -0.00849293 0)
(-0.0301334 -0.0332787 0)
(-0.0477221 -0.0498219 0)
(-0.0643569 -0.0585606 0)
(-0.0782494 -0.0607193 0)
(-0.0882707 -0.0580619 0)
(-0.0940407 -0.0524411 0)
(-0.0957337 -0.0454222 0)
(-0.0938153 -0.0382087 0)
(-0.0889031 -0.0317141 0)
(-0.0816928 -0.026615 0)
(-0.0729099 -0.02345 0)
(-0.0633315 -0.022705 0)
(-0.0538633 -0.0248 0)
(-0.0456888 -0.0300146 0)
(-0.0401922 -0.0382249 0)
(0.0451595 0.23493 0)
(0.0665396 0.259414 0)
(0.0646376 0.20998 0)
(0.0628881 0.158697 0)
(0.0606102 0.112032 0)
(0.0558167 0.0705721 0)
(0.0476133 0.0348339 0)
(0.0362492 0.00525533 0)
(0.0227349 -0.0178099 0)
(0.00844299 -0.0343046 0)
(-0.00519197 -0.0446113 0)
(-0.0168826 -0.0495824 0)
(-0.0257513 -0.0504295 0)
(-0.0314223 -0.0484627 0)
(-0.0339269 -0.0448676 0)
(-0.0335672 -0.0406215 0)
(-0.0308137 -0.0365001 0)
(-0.0262396 -0.0331065 0)
(-0.0204778 -0.0309236 0)
(-0.0142189 -0.0303596 0)
(-0.00823629 -0.0317439 0)
(-0.00351979 -0.035289 0)
(-0.00122829 -0.0408903 0)
(0.040695 0.173036 0)
(0.0776502 0.237513 0)
(0.0917145 0.206808 0)
(0.0960943 0.15985 0)
(0.0957699 0.115548 0)
(0.0921069 0.0768557 0)
(0.0854907 0.0439187 0)
(0.0764204 0.0165801 0)
(0.0656851 -0.00524047 0)
(0.05429 -0.0216596 0)
(0.0432655 -0.033032 0)
(0.0335328 -0.0399938 0)
(0.0257677 -0.0433965 0)
(0.0203215 -0.0441759 0)
(0.0172473 -0.0432204 0)
(0.0163719 -0.0412996 0)
(0.0173612 -0.0390493 0)
(0.0197715 -0.0369811 0)
(0.0230853 -0.0355104 0)
(0.0267301 -0.0349799 0)
(0.0300622 -0.0356575 0)
(0.0322706 -0.037724 0)
(0.0323999 -0.041116 0)
(0.0269772 0.121239 0)
(0.0685886 0.201719 0)
(0.0951246 0.190992 0)
(0.108688 0.154503 0)
(0.113798 0.115726 0)
(0.113727 0.080705 0)
(0.110142 0.0505162 0)
(0.104049 0.0251529 0)
(0.0962971 0.00446841 0)
(0.0877365 -0.0117133 0)
(0.0791944 -0.0236903 0)
(0.0713795 -0.031951 0)
(0.0648347 -0.037118 0)
(0.0598834 -0.0398724 0)
(0.0566327 -0.040876 0)
(0.055008 -0.0407209 0)
(0.0547933 -0.0399111 0)
(0.0556669 -0.0388631 0)
(0.0572305 -0.0379204 0)
(0.0590324 -0.0373665 0)
(0.060558 -0.037428 0)
(0.0611513 -0.0382636 0)
(0.0600199 -0.0398495 0)
(0.015813 0.0842891 0)
(0.0529555 0.162501 0)
(0.0845347 0.165729 0)
(0.105241 0.141312 0)
(0.116443 0.110381 0)
(0.121155 0.0803867 0)
(0.121539 0.0535601 0)
(0.118967 0.0304558 0)
(0.114429 0.0111444 0)
(0.108756 -0.00446456 0)
(0.102689 -0.0165775 0)
(0.0968424 -0.0255487 0)
(0.0916876 -0.0318328 0)
(0.0875355 -0.0359263 0)
(0.0845322 -0.038318 0)
(0.0826783 -0.0394542 0)
(0.0818533 -0.0397222 0)
(0.0818405 -0.0394486 0)
(0.0823494 -0.0389062 0)
(0.0830382 -0.0383234 0)
(0.0835075 -0.0378887 0)
(0.0832332 -0.0377436 0)
(0.0815573 -0.0378933 0)
(0.0093032 0.0590863 0)
(0.0389206 0.126848 0)
(0.0697014 0.137059 0)
(0.0935191 0.12266 0)
(0.109088 0.0998087 0)
(0.118093 0.0755382 0)
(0.122376 0.0526675 0)
(0.123315 0.0322667 0)
(0.121942 0.0147106 0)
(0.119082 7.68233e-05 0)
(0.115434 -0.0117181 0)
(0.111569 -0.0208943 0)
(0.107925 -0.0277654 0)
(0.10481 -0.0326823 0)
(0.102399 -0.035996 0)
(0.100749 -0.038032 0)
(0.0998137 -0.0390768 0)
(0.0994609 -0.039375 0)
(0.099491 -0.0391334 0)
(0.0996562 -0.0385286 0)
(0.0996554 -0.0377124 0)
(0.0990759 -0.0368082 0)
(0.0973743 -0.0358385 0)
(0.00596377 0.0416552 0)
(0.0288819 0.0971169 0)
(0.0561278 0.10938 0)
(0.0797716 0.101831 0)
(0.0973196 0.0858261 0)
(0.109161 0.0670603 0)
(0.116466 0.0483071 0)
(0.120347 0.0308822 0)
(0.121728 0.015389 0)
(0.121376 0.00207134 0)
(0.119937 -0.00902669 0)
(0.117943 -0.0180003 0)
(0.115807 -0.0250386 0)
(0.113834 -0.0303707 0)
(0.112217 -0.0342339 0)
(0.111053 -0.0368525 0)
(0.110349 -0.0384264 0)
(0.110039 -0.0391274 0)
(0.109997 -0.0391025 0)
(0.110051 -0.0384809 0)
(0.109984 -0.0373793 0)
(0.109476 -0.0359008 0)
(0.108082 -0.034077 0)
(0.00449233 0.0287772 0)
(0.0224635 0.0728817 0)
(0.045629 0.0846466 0)
(0.0673197 0.0812524 0)
(0.0849337 0.0704201 0)
(0.0980471 0.0563653 0)
(0.107208 0.0414534 0)
(0.113169 0.0269912 0)
(0.116658 0.0136823 0)
(0.118325 0.00188204 0)
(0.118738 -0.00826079 0)
(0.118373 -0.0167375 0)
(0.117613 -0.0236313 0)
(0.116748 -0.0290693 0)
(0.115979 -0.0331945 0)
(0.115426 -0.0361463 0)
(0.115135 -0.0380506 0)
(0.115089 -0.0390163 0)
(0.115217 -0.0391379 0)
(0.115412 -0.0385015 0)
(0.11552 -0.0371912 0)
(0.115299 -0.0352896 0)
(0.114392 -0.0328307 0)
(0.00397728 0.0183706 0)
(0.0185287 0.052961 0)
(0.0380291 0.0632771 0)
(0.0571604 0.0622299 0)
(0.0737095 0.0550636 0)
(0.0869052 0.0447536 0)
(0.096873 0.0331532 0)
(0.10405 0.0214113 0)
(0.108951 0.0102232 0)
(0.112084 -7.36436e-06 0)
(0.113919 -0.00906399 0)
(0.114863 -0.0168619 0)
(0.115255 -0.0234003 0)
(0.115364 -0.0287246 0)
(0.115385 -0.0329004 0)
(0.11545 -0.0359973 0)
(0.115629 -0.0380794 0)
(0.115938 -0.0392023 0)
(0.116352 -0.0394148 0)
(0.116809 -0.0387655 0)
(0.11721 -0.0373089 0)
(0.117375 -0.0351073 0)
(0.117021 -0.032193 0)
(0.00381314 0.0093478 0)
(0.0160087 0.036286 0)
(0.0324882 0.0450038 0)
(0.0490891 0.0452417 0)
(0.0640815 0.0406055 0)
(0.0766384 0.0331521 0)
(0.0866586 0.0242642 0)
(0.0943531 0.014881 0)
(0.100056 0.00562663 0)
(0.104139 -0.00309699 0)
(0.10697 -0.0110418 0)
(0.108883 -0.018074 0)
(0.110169 -0.0241323 0)
(0.111064 -0.0291992 0)
(0.111753 -0.0332799 0)
(0.112368 -0.0363879 0)
(0.112991 -0.0385367 0)
(0.113663 -0.0397374 0)
(0.114389 -0.0400009 0)
(0.115144 -0.0393433 0)
(0.115871 -0.0377928 0)
(0.116439 -0.0353922 0)
(0.11663 -0.0321692 0)
(0.0037162 0.00122818 0)
(0.0141926 0.0220875 0)
(0.0282243 0.0293703 0)
(0.0425603 0.0303147 0)
(0.0558848 0.0274244 0)
(0.0674479 0.0221116 0)
(0.077054 0.0153819 0)
(0.0847742 0.00797027 0)
(0.0908074 0.000404876 0)
(0.0954136 -0.0069428 0)
(0.0988682 -0.0138224 0)
(0.101437 -0.0200725 0)
(0.103361 -0.0255921 0)
(0.104844 -0.0303189 0)
(0.10605 -0.0342121 0)
(0.107107 -0.0372417 0)
(0.108105 -0.0393812 0)
(0.109097 -0.040606 0)
(0.110109 -0.0408952 0)
(0.111145 -0.0402378 0)
(0.112178 -0.0386387 0)
(0.113119 -0.0361228 0)
(0.113799 -0.0327104 0)
(0.00360405 -0.00618416 0)
(0.0127105 0.00986411 0)
(0.0247288 0.0159549 0)
(0.0370972 0.017295 0)
(0.0488174 0.0156252 0)
(0.0592554 0.0119116 0)
(0.0681924 0.00687506 0)
(0.0756205 0.00107636 0)
(0.0816486 -0.00505218 0)
(0.0864498 -0.0111861 0)
(0.0902257 -0.0170879 0)
(0.093183 -0.0225858 0)
(0.0955156 -0.0275555 0)
(0.0973953 -0.0319043 0)
(0.0989674 -0.0355588 0)
(0.100349 -0.0384562 0)
(0.10163 -0.040539 0)
(0.102873 -0.0417544 0)
(0.104118 -0.0420564 0)
(0.105387 -0.0414113 0)
(0.106679 -0.0398041 0)
(0.107935 -0.0372428 0)
(0.109028 -0.0337384 0)
(0.00346543 -0.012996 0)
(0.0114037 -0.000714679 0)
(0.0217256 0.00442168 0)
(0.032387 0.00598511 0)
(0.0426269 0.00518115 0)
(0.051924 0.00266675 0)
(0.0600679 -0.00104677 0)
(0.0670108 -0.00553861 0)
(0.0728036 -0.0104653 0)
(0.0775583 -0.0155521 0)
(0.0814206 -0.0205821 0)
(0.084548 -0.0253848 0)
(0.087095 -0.0298244 0)
(0.089204 -0.0337895 0)
(0.0910004 -0.0371842 0)
(0.0925904 -0.0399219 0)
(0.09406 -0.0419224 0)
(0.0954757 -0.0431114 0)
(0.0968867 -0.0434231 0)
(0.098328 -0.0428054 0)
(0.0998153 -0.0412262 0)
(0.101316 -0.0386784 0)
(0.102738 -0.035162 0)
(0.00331396 -0.0192421 0)
(0.0102162 -0.00987426 0)
(0.0190774 -0.00549034 0)
(0.0282496 -0.00380479 0)
(0.0371456 -0.00398622 0)
(0.0453388 -0.00559356 0)
(0.0526389 -0.00827077 0)
(0.0589819 -0.0117087 0)
(0.0643846 -0.0156401 0)
(0.0689189 -0.0198365 0)
(0.0726887 -0.0241052 0)
(0.0758136 -0.0282835 0)
(0.0784155 -0.0322322 0)
(0.0806114 -0.0358292 0)
(0.0825081 -0.0389642 0)
(0.0841998 -0.0415343 0)
(0.0857672 -0.0434432 0)
(0.087277 -0.0446005 0)
(0.0887835 -0.0449256 0)
(0.0903304 -0.0443521 0)
(0.0919463 -0.0428337 0)
(0.0936185 -0.0403495 0)
(0.0952808 -0.0368877 0)
(0.00313761 -0.0249279 0)
(0.00911351 -0.017792 0)
(0.0167136 -0.0139956 0)
(0.0245866 -0.0122463 0)
(0.0322708 -0.0119716 0)
(0.0394166 -0.0128834 0)
(0.04586 -0.014743 0)
(0.0515359 -0.0173305 0)
(0.0564451 -0.0204415 0)
(0.060634 -0.0238891 0)
(0.0641776 -0.0275043 0)
(0.0671664 -0.0311349 0)
(0.0696963 -0.0346428 0)
(0.0718623 -0.0379012 0)
(0.0737542 -0.0407909 0)
(0.0754548 -0.0431991 0)
(0.0770378 -0.0450182 0)
(0.078568 -0.0461471 0)
(0.0801018 -0.0464941 0)
(0.0816883 -0.0459822 0)
(0.0833648 -0.0445539 0)
(0.0851344 -0.0421759 0)
(0.0869527 -0.0388245 0)
(0.00293653 -0.0300776 0)
(0.00809167 -0.0246243 0)
(0.014607 -0.0212857 0)
(0.0213477 -0.0194988 0)
(0.0279386 -0.0188726 0)
(0.0340943 -0.0192349 0)
(0.0396835 -0.0204396 0)
(0.0446526 -0.0223377 0)
(0.048999 -0.0247759 0)
(0.0527547 -0.0276011 0)
(0.0559749 -0.0306648 0)
(0.0587277 -0.0338254 0)
(0.0610878 -0.0369484 0)
(0.0631316 -0.0399057 0)
(0.0649337 -0.0425742 0)
(0.0665654 -0.0448349 0)
(0.0680932 -0.0465737 0)
(0.0695781 -0.0476825 0)
(0.0710764 -0.0480626 0)
(0.0726399 -0.0476292 0)
(0.0743119 -0.0463163 0)
(0.0761073 -0.0440802 0)
(0.0780005 -0.0408854 0)
(0.00271409 -0.0347039 0)
(0.00717173 -0.0305199 0)
(0.0127636 -0.027533 0)
(0.0185085 -0.0256993 0)
(0.0240966 -0.024772 0)
(0.0293057 -0.0246782 0)
(0.0340461 -0.0253482 0)
(0.0382856 -0.0266874 0)
(0.0420257 -0.0285795 0)
(0.0452911 -0.030896 0)
(0.0481218 -0.0335039 0)
(0.0505686 -0.0362709 0)
(0.0526883 -0.0390669 0)
(0.0545412 -0.0417651 0)
(0.0561881 -0.0442413 0)
(0.0576895 -0.0463743 0)
(0.059104 -0.0480466 0)
(0.060488 -0.0491465 0)
(0.0618957 -0.0495713 0)
(0.0633797 -0.0492314 0)
(0.0649864 -0.0480544 0)
(0.0667402 -0.0459888 0)
(0.0686311 -0.0429876 0)
(0.00249267 -0.0388575 0)
(0.00640821 -0.0356325 0)
(0.0112029 -0.0328824 0)
(0.0160357 -0.0309459 0)
(0.0206694 -0.0297221 0)
(0.0249558 -0.0292316 0)
(0.0288543 -0.0294627 0)
(0.0323572 -0.0303554 0)
(0.0354723 -0.0318147 0)
(0.0382181 -0.0337264 0)
(0.0406224 -0.0359679 0)
(0.0427208 -0.0384141 0)
(0.0445549 -0.0409403 0)
(0.0461706 -0.0434225 0)
(0.0476166 -0.0457378 0)
(0.0489429 -0.0477651 0)
(0.0502003 -0.0493864 0)
(0.0514393 -0.0504889 0)
(0.0527109 -0.0509684 0)
(0.0540661 -0.0507329 0)
(0.0555529 -0.0497066 0)
(0.0572024 -0.0478317 0)
(0.0590179 -0.0450523 0)
(0.00233536 -0.0426513 0)
(0.00587244 -0.0401049 0)
(0.00990506 -0.037415 0)
(0.013837 -0.0352737 0)
(0.0175264 -0.0337385 0)
(0.020906 -0.0329035 0)
(0.0239812 -0.0327866 0)
(0.0267632 -0.0333384 0)
(0.0292614 -0.0344698 0)
(0.0314867 -0.0360723 0)
(0.0334548 -0.0380296 0)
(0.035188 -0.0402233 0)
(0.0367147 -0.042534 0)
(0.0380685 -0.0448419 0)
(0.0392868 -0.0470273 0)
(0.0404101 -0.0489708 0)
(0.0414808 -0.0505557 0)
(0.0425433 -0.0516703 0)
(0.0436435 -0.052211 0)
(0.0448297 -0.0520856 0)
(0.046149 -0.0512169 0)
(0.0476371 -0.049544 0)
(0.0493082 -0.0470036 0)
(0.00230731 -0.0461722 0)
(0.00554612 -0.0439535 0)
(0.00872201 -0.0410903 0)
(0.0117225 -0.038654 0)
(0.014478 -0.0368201 0)
(0.0169882 -0.0357126 0)
(0.0192878 -0.0353457 0)
(0.0213946 -0.03566 0)
(0.0233126 -0.0365607 0)
(0.0250426 -0.0379402 0)
(0.026589 -0.0396872 0)
(0.0279626 -0.0416897 0)
(0.0291807 -0.0438344 0)
(0.0302663 -0.0460068 0)
(0.0312472 -0.0480907 0)
(0.0321545 -0.0499701 0)
(0.0330228 -0.0515308 0)
(0.0338893 -0.0526634 0)
(0.034794 -0.0532665 0)
(0.0357805 -0.0532497 0)
(0.0368929 -0.0525366 0)
(0.0381691 -0.0510656 0)
(0.0396314 -0.0487694 0)