/*--------------------------------*- C++ -*----------------------------------*\
| =========                 |                                                 |
| \\      /  F ield         | OpenFOAM: The Open Source CFD Toolbox           |
|  \\    /   O peration     | Version:  2.3.0                                 |
|   \\  /    A nd           | Web:      www.OpenFOAM.org                      |
|    \\/     M anipulation  |                                                 |
\*---------------------------------------------------------------------------*/
FoamFile
{
    version     2.0;
    format      ascii;
    class       volScalarField;
    location    "0.04";
    object      T;
}
// * * * * * * * * * * * * * * * * * * * * * * * * * * * * * * * * * * * * * //

dimensions      [0 0 0 1 0 0 0];

internalField   nonuniform List<scalar> 
12225
(
1.32413e-10
1.3161e-10
1.31401e-10
1.31342e-10
1.31367e-10
1.31525e-10
1.31929e-10
1.32783e-10
1.3445e-10
1.37558e-10
1.43187e-10
1.53287e-10
1.71597e-10
2.05798e-10
2.72697e-10
4.11091e-10
7.16621e-10
1.45689e-09
1.30571e-10
1.30789e-10
1.30991e-10
1.31127e-10
1.3126e-10
1.31482e-10
1.31928e-10
1.32819e-10
1.34526e-10
1.37686e-10
1.43387e-10
1.53569e-10
1.71914e-10
2.05904e-10
2.71667e-10
4.05608e-10
6.92995e-10
1.33661e-09
1.31542e-10
1.31516e-10
1.31473e-10
1.31464e-10
1.31517e-10
1.31698e-10
1.32132e-10
1.33042e-10
1.34812e-10
1.38095e-10
1.43997e-10
1.54464e-10
1.73106e-10
2.07076e-10
2.71344e-10
3.98225e-10
6.57259e-10
1.18447e-09
1.31691e-10
1.31598e-10
1.31537e-10
1.31548e-10
1.31634e-10
1.31853e-10
1.32342e-10
1.33342e-10
1.35269e-10
1.38818e-10
1.45149e-10
1.56241e-10
1.75646e-10
2.10122e-10
2.73154e-10
3.92041e-10
6.19755e-10
1.04177e-09
1.31925e-10
1.31868e-10
1.31825e-10
1.31842e-10
1.31942e-10
1.32191e-10
1.32746e-10
1.33879e-10
1.36058e-10
1.40053e-10
1.47121e-10
1.5933e-10
1.80218e-10
2.16146e-10
2.78993e-10
3.90942e-10
5.90484e-10
9.3e-10
1.32277e-10
1.3225e-10
1.32223e-10
1.32247e-10
1.32366e-10
1.32666e-10
1.33327e-10
1.34675e-10
1.37259e-10
1.41974e-10
1.5024e-10
1.64302e-10
1.87784e-10
2.26741e-10
2.91572e-10
3.99932e-10
5.7918e-10
8.61796e-10
1.32805e-10
1.32794e-10
1.32782e-10
1.3282e-10
1.32971e-10
1.33346e-10
1.34171e-10
1.3585e-10
1.39063e-10
1.44902e-10
1.55057e-10
1.72092e-10
1.99891e-10
2.44428e-10
3.15004e-10
4.25813e-10
5.96539e-10
8.484e-10
1.33426e-10
1.33422e-10
1.33424e-10
1.3348e-10
1.33673e-10
1.34146e-10
1.35184e-10
1.37294e-10
1.4133e-10
1.48649e-10
1.61312e-10
1.82345e-10
2.16107e-10
2.6884e-10
3.49459e-10
4.70355e-10
6.47291e-10
8.96415e-10
1.34109e-10
1.3411e-10
1.34125e-10
1.34204e-10
1.34447e-10
1.35038e-10
1.36332e-10
1.38966e-10
1.44005e-10
1.53136e-10
1.68886e-10
1.94876e-10
2.36133e-10
2.99463e-10
3.93911e-10
5.31077e-10
7.24685e-10
9.88355e-10
1.35033e-10
1.35039e-10
1.35068e-10
1.3518e-10
1.355e-10
1.3627e-10
1.37956e-10
1.41394e-10
1.47981e-10
1.5992e-10
1.80476e-10
2.14241e-10
2.67379e-10
3.47847e-10
4.65546e-10
6.32254e-10
8.60982e-10
1.16431e-09
1.36284e-10
1.36295e-10
1.36343e-10
1.36503e-10
1.36943e-10
1.37995e-10
1.40301e-10
1.45018e-10
1.54084e-10
1.70543e-10
1.98873e-10
2.45283e-10
3.17906e-10
4.26847e-10
5.84041e-10
8.02831e-10
1.0971e-09
1.47986e-09
1.37977e-10
1.37994e-10
1.38069e-10
1.38305e-10
1.38939e-10
1.40452e-10
1.43784e-10
1.50631e-10
1.6385e-10
1.87923e-10
2.2942e-10
2.97353e-10
4.03321e-10
5.6135e-10
7.87393e-10
1.09846e-09
1.51135e-09
2.04119e-09
1.40268e-10
1.40296e-10
1.40413e-10
1.40775e-10
1.41736e-10
1.44044e-10
1.49158e-10
1.59745e-10
1.80311e-10
2.17944e-10
2.83016e-10
3.89652e-10
5.55801e-10
8.02734e-10
1.15396e-09
1.63361e-09
2.26443e-09
3.06567e-09
1.4337e-10
1.43416e-10
1.43605e-10
1.44187e-10
1.45739e-10
1.49493e-10
1.57899e-10
1.75469e-10
2.09892e-10
2.73313e-10
3.83494e-10
5.64514e-10
8.46613e-10
1.26499e-09
1.85755e-09
2.66175e-09
3.71108e-09
5.03147e-09
1.47566e-10
1.47644e-10
1.47966e-10
1.48961e-10
1.51642e-10
1.58213e-10
1.73132e-10
2.04719e-10
2.67312e-10
3.837e-10
5.87264e-10
9.23025e-10
1.44686e-09
2.22247e-09
3.31631e-09
4.79117e-09
6.69919e-09
9.07538e-09
1.53233e-10
1.53371e-10
1.53955e-10
1.55781e-10
1.60778e-10
1.73254e-10
2.02102e-10
2.64241e-10
3.89261e-10
6.24647e-10
1.04016e-09
1.72939e-09
2.80671e-09
4.39896e-09
6.63279e-09
9.62001e-09
1.34433e-08
1.81438e-08
1.60856e-10
1.6112e-10
1.62253e-10
1.65865e-10
1.75978e-10
2.01855e-10
2.63181e-10
3.98362e-10
6.75991e-10
1.20775e-09
2.15862e-09
3.74866e-09
6.24111e-09
9.91607e-09
1.50344e-08
2.18009e-08
3.03344e-08
4.06483e-08
1.70292e-10
1.70812e-10
1.73082e-10
1.80506e-10
2.01915e-10
2.58477e-10
3.96876e-10
7.11397e-10
1.37548e-09
2.67775e-09
5.04916e-09
9.06102e-09
1.53769e-08
2.46581e-08
3.74486e-08
5.40762e-08
7.45986e-08
9.87971e-08
1.80211e-10
1.81167e-10
1.85423e-10
1.99745e-10
2.42466e-10
3.59524e-10
6.56775e-10
1.35721e-09
2.88694e-09
5.97716e-09
1.17394e-08
2.16433e-08
3.73327e-08
6.02909e-08
9.14739e-08
1.31077e-07
1.78516e-07
2.32571e-07
1.89541e-10
1.91113e-10
1.98248e-10
2.22944e-10
2.99155e-10
5.15889e-10
1.08804e-09
2.48999e-09
5.66973e-09
1.23192e-08
2.50823e-08
4.74705e-08
8.32533e-08
1.35361e-07
2.04815e-07
2.90357e-07
3.88895e-07
4.96347e-07
1.97959e-10
2.00305e-10
2.11153e-10
2.49734e-10
3.7278e-10
7.35852e-10
1.73302e-09
4.2792e-09
1.0299e-08
2.33988e-08
4.94433e-08
9.63595e-08
1.72329e-07
2.82386e-07
4.25447e-07
5.94492e-07
7.79347e-07
9.69725e-07
2.05256e-10
2.08478e-10
2.23628e-10
2.78871e-10
4.60559e-10
1.01584e-09
2.60139e-09
6.82385e-09
1.72587e-08
4.10055e-08
9.02534e-08
1.82093e-07
3.3374e-07
5.52407e-07
8.26994e-07
1.13329e-06
1.44538e-06
1.74347e-06
2.1134e-10
2.15463e-10
2.35133e-10
3.08461e-10
5.56344e-10
1.33867e-09
3.65589e-09
1.00865e-08
2.67179e-08
6.64569e-08
1.53044e-07
3.21885e-07
6.0905e-07
1.02227e-06
1.5158e-06
2.02249e-06
2.49034e-06
2.89388e-06
2.1622e-10
2.21196e-10
2.45216e-10
3.36454e-10
6.52223e-10
1.67712e-09
4.81453e-09
1.38631e-08
3.83342e-08
9.98577e-08
2.41605e-07
5.33966e-07
1.05385e-06
1.80614e-06
2.6373e-06
3.39052e-06
3.99332e-06
4.44235e-06
2.19982e-10
2.25695e-10
2.53571e-10
3.6112e-10
7.40568e-10
2.00117e-09
5.97019e-09
1.78138e-08
5.11988e-08
1.39463e-07
3.55397e-07
8.32042e-07
1.73668e-06
3.07824e-06
4.37737e-06
5.3424e-06
5.95689e-06
6.31177e-06
2.22793e-10
2.29088e-10
2.60136e-10
3.81448e-10
8.15938e-10
2.28621e-09
7.0213e-09
2.15555e-08
6.40209e-08
1.81615e-07
4.87168e-07
1.21577e-06
2.72983e-06
5.12538e-06
6.94406e-06
7.8877e-06
8.24789e-06
8.30795e-06
2.24768e-10
2.31451e-10
2.64881e-10
3.96876e-10
8.75038e-10
2.51566e-09
7.89083e-09
2.47531e-08
7.54483e-08
2.21393e-07
6.22032e-07
1.65723e-06
4.07505e-06
8.46893e-06
1.04807e-05
1.0827e-05
1.05671e-05
1.01551e-05
2.2613e-10
2.33287e-10
2.68533e-10
4.08383e-10
9.18996e-10
2.68792e-09
8.55288e-09
2.72338e-08
8.45489e-08
2.54332e-07
7.40921e-07
2.09148e-06
5.69427e-06
1.41431e-05
1.48062e-05
1.36535e-05
1.25166e-05
1.15977e-05
2.25057e-10
2.32755e-10
2.69397e-10
4.14192e-10
9.452e-10
2.79699e-09
8.98588e-09
2.88935e-08
9.07585e-08
2.77285e-07
8.26118e-07
2.42045e-06
7.17544e-06
2.42267e-05
1.87596e-05
1.5625e-05
1.37827e-05
1.25035e-05
2.28838e-10
2.34991e-10
2.71514e-10
4.18781e-10
9.61358e-10
2.86003e-09
9.2299e-09
2.98148e-08
9.41634e-08
2.89686e-07
8.70471e-07
2.56512e-06
7.37412e-06
1.92082e-05
1.89479e-05
1.63967e-05
1.43488e-05
1.28988e-05
2.85141e-08
2.85776e-08
2.87046e-08
2.8898e-08
2.91601e-08
2.94923e-08
2.98965e-08
3.03747e-08
3.09286e-08
3.15601e-08
3.22714e-08
3.30641e-08
3.39402e-08
3.49013e-08
3.59493e-08
3.7086e-08
3.8313e-08
3.96321e-08
4.10447e-08
4.25526e-08
4.41572e-08
4.586e-08
4.76624e-08
4.95657e-08
5.15713e-08
5.36802e-08
5.58937e-08
5.82129e-08
6.06386e-08
6.31719e-08
6.58135e-08
6.85641e-08
7.14245e-08
7.43949e-08
7.7476e-08
8.0668e-08
8.39711e-08
8.73853e-08
9.09106e-08
9.45467e-08
9.82934e-08
1.0215e-07
1.06116e-07
1.10191e-07
1.14374e-07
1.18663e-07
1.23058e-07
1.27557e-07
1.32158e-07
1.36861e-07
1.41664e-07
1.46564e-07
1.51559e-07
1.56648e-07
1.61828e-07
1.67097e-07
1.72452e-07
1.77891e-07
1.83412e-07
1.89011e-07
1.94686e-07
2.00433e-07
2.06252e-07
2.12137e-07
2.18087e-07
2.24099e-07
2.30169e-07
2.36295e-07
2.42475e-07
2.48704e-07
2.54981e-07
2.61302e-07
2.67664e-07
2.74066e-07
2.80504e-07
2.86976e-07
2.93479e-07
3.0001e-07
3.06567e-07
3.13147e-07
3.19749e-07
3.26368e-07
3.33005e-07
3.39655e-07
3.46316e-07
3.52988e-07
3.59666e-07
3.6635e-07
3.73036e-07
3.79724e-07
3.86411e-07
3.93094e-07
3.99774e-07
4.06446e-07
4.1311e-07
4.19763e-07
4.26405e-07
4.33033e-07
4.39645e-07
4.4624e-07
4.52816e-07
4.59372e-07
4.65905e-07
4.72414e-07
4.78898e-07
4.85353e-07
4.91779e-07
4.98173e-07
5.04533e-07
5.10857e-07
5.17143e-07
5.23389e-07
5.29592e-07
5.35749e-07
5.41859e-07
5.47917e-07
5.53922e-07
5.59871e-07
5.6576e-07
5.71586e-07
5.77347e-07
5.83038e-07
5.88657e-07
5.94199e-07
5.99662e-07
6.05041e-07
6.10332e-07
6.15532e-07
6.20637e-07
6.25642e-07
6.30543e-07
6.35335e-07
6.40015e-07
6.44577e-07
6.49018e-07
6.53331e-07
6.57513e-07
6.61557e-07
6.65461e-07
6.69217e-07
6.72822e-07
6.76268e-07
6.79553e-07
6.82669e-07
6.85611e-07
6.88374e-07
6.90953e-07
6.93341e-07
6.95534e-07
6.97526e-07
6.9931e-07
7.00881e-07
7.02235e-07
7.03363e-07
7.04263e-07
7.04928e-07
7.05351e-07
7.05529e-07
7.05454e-07
7.05125e-07
7.0453e-07
7.03667e-07
7.02541e-07
7.0111e-07
6.99394e-07
6.97393e-07
6.95076e-07
6.92467e-07
6.8956e-07
6.86351e-07
6.82836e-07
6.79009e-07
6.74871e-07
6.70419e-07
6.65664e-07
6.60615e-07
6.55334e-07
6.49814e-07
6.44516e-07
6.3827e-07
2.84583e-08
2.85215e-08
2.86503e-08
2.88458e-08
2.91096e-08
2.94437e-08
2.98498e-08
3.03295e-08
3.08847e-08
3.15172e-08
3.22289e-08
3.30217e-08
3.38974e-08
3.48578e-08
3.59048e-08
3.704e-08
3.82652e-08
3.9582e-08
4.0992e-08
4.24969e-08
4.40981e-08
4.57971e-08
4.75954e-08
4.94942e-08
5.14948e-08
5.35986e-08
5.58065e-08
5.81198e-08
6.05394e-08
6.30662e-08
6.5701e-08
6.84447e-08
7.12978e-08
7.42609e-08
7.73344e-08
8.05186e-08
8.38138e-08
8.722e-08
9.07371e-08
9.4365e-08
9.81035e-08
1.01952e-07
1.0591e-07
1.09976e-07
1.14151e-07
1.18432e-07
1.22819e-07
1.2731e-07
1.31905e-07
1.366e-07
1.41395e-07
1.46288e-07
1.51276e-07
1.56359e-07
1.61532e-07
1.66795e-07
1.72144e-07
1.77578e-07
1.83093e-07
1.88687e-07
1.94357e-07
2.00101e-07
2.05916e-07
2.11798e-07
2.17745e-07
2.23755e-07
2.29823e-07
2.35949e-07
2.42127e-07
2.48357e-07
2.54634e-07
2.60957e-07
2.67321e-07
2.73726e-07
2.80167e-07
2.86643e-07
2.93151e-07
2.99688e-07
3.06251e-07
3.12839e-07
3.19449e-07
3.26077e-07
3.32723e-07
3.39384e-07
3.46058e-07
3.52742e-07
3.59434e-07
3.66132e-07
3.72834e-07
3.79538e-07
3.86242e-07
3.92944e-07
3.99642e-07
4.06335e-07
4.1302e-07
4.19696e-07
4.26361e-07
4.33013e-07
4.39651e-07
4.46272e-07
4.52876e-07
4.5946e-07
4.66022e-07
4.72562e-07
4.79077e-07
4.85565e-07
4.92024e-07
4.98452e-07
5.04848e-07
5.11208e-07
5.17532e-07
5.23815e-07
5.30056e-07
5.36253e-07
5.42402e-07
5.48502e-07
5.54548e-07
5.60538e-07
5.6647e-07
5.72339e-07
5.78143e-07
5.83877e-07
5.8954e-07
5.95127e-07
6.00634e-07
6.06058e-07
6.11394e-07
6.1664e-07
6.21789e-07
6.2684e-07
6.31786e-07
6.36623e-07
6.41348e-07
6.45955e-07
6.50439e-07
6.54797e-07
6.59022e-07
6.6311e-07
6.67057e-07
6.70856e-07
6.74502e-07
6.7799e-07
6.81315e-07
6.84471e-07
6.87453e-07
6.90255e-07
6.92872e-07
6.95297e-07
6.97526e-07
6.99553e-07
7.01372e-07
7.02977e-07
7.04363e-07
7.05523e-07
7.06454e-07
7.07148e-07
7.076e-07
7.07805e-07
7.07756e-07
7.07451e-07
7.06878e-07
7.06039e-07
7.04933e-07
7.03532e-07
7.01856e-07
6.99903e-07
6.97646e-07
6.95092e-07
6.92239e-07
6.8908e-07
6.85612e-07
6.81832e-07
6.77738e-07
6.7333e-07
6.68615e-07
6.63606e-07
6.58356e-07
6.52878e-07
6.47519e-07
6.41615e-07
2.83479e-08
2.84096e-08
2.85382e-08
2.87341e-08
2.89987e-08
2.93332e-08
2.97393e-08
3.02188e-08
3.07735e-08
3.14051e-08
3.21155e-08
3.29065e-08
3.37797e-08
3.47372e-08
3.57804e-08
3.69113e-08
3.81314e-08
3.94425e-08
4.08461e-08
4.23437e-08
4.3937e-08
4.56274e-08
4.74163e-08
4.93051e-08
5.1295e-08
5.33874e-08
5.55834e-08
5.78841e-08
6.02906e-08
6.28037e-08
6.54244e-08
6.81535e-08
7.09915e-08
7.39391e-08
7.69969e-08
8.0165e-08
8.34438e-08
8.68334e-08
9.03338e-08
9.39448e-08
9.76663e-08
1.01498e-07
1.05439e-07
1.09488e-07
1.13646e-07
1.1791e-07
1.22281e-07
1.26756e-07
1.31334e-07
1.36014e-07
1.40793e-07
1.45671e-07
1.50645e-07
1.55713e-07
1.60873e-07
1.66123e-07
1.7146e-07
1.76882e-07
1.82387e-07
1.87971e-07
1.93632e-07
1.99367e-07
2.05174e-07
2.1105e-07
2.16992e-07
2.22998e-07
2.29063e-07
2.35187e-07
2.41365e-07
2.47595e-07
2.53875e-07
2.60201e-07
2.66571e-07
2.72982e-07
2.79432e-07
2.85918e-07
2.92437e-07
2.98987e-07
3.05566e-07
3.12171e-07
3.18799e-07
3.25449e-07
3.32118e-07
3.38804e-07
3.45505e-07
3.52218e-07
3.58941e-07
3.65673e-07
3.72411e-07
3.79153e-07
3.85898e-07
3.92643e-07
3.99387e-07
4.06127e-07
4.12863e-07
4.19591e-07
4.26311e-07
4.3302e-07
4.39718e-07
4.46401e-07
4.5307e-07
4.59721e-07
4.66353e-07
4.72964e-07
4.79553e-07
4.86117e-07
4.92655e-07
4.99164e-07
5.05642e-07
5.12087e-07
5.18497e-07
5.2487e-07
5.31202e-07
5.37491e-07
5.43734e-07
5.49929e-07
5.56072e-07
5.62161e-07
5.68192e-07
5.74163e-07
5.80069e-07
5.85907e-07
5.91674e-07
5.97366e-07
6.02979e-07
6.08509e-07
6.13953e-07
6.19306e-07
6.24563e-07
6.29721e-07
6.34775e-07
6.3972e-07
6.44551e-07
6.49265e-07
6.53857e-07
6.5832e-07
6.62651e-07
6.66843e-07
6.70893e-07
6.74794e-07
6.78541e-07
6.82129e-07
6.85553e-07
6.88806e-07
6.91884e-07
6.9478e-07
6.97489e-07
7.00005e-07
7.02323e-07
7.04437e-07
7.06341e-07
7.08029e-07
7.09496e-07
7.10736e-07
7.11744e-07
7.12513e-07
7.13037e-07
7.13313e-07
7.13333e-07
7.13094e-07
7.12589e-07
7.11814e-07
7.10767e-07
7.09431e-07
7.07817e-07
7.05923e-07
7.0373e-07
7.01238e-07
6.98444e-07
6.95342e-07
6.9193e-07
6.88204e-07
6.8416e-07
6.79798e-07
6.75126e-07
6.70152e-07
6.64924e-07
6.59453e-07
6.54023e-07
6.48238e-07
2.8176e-08
2.82368e-08
2.83651e-08
2.85611e-08
2.88255e-08
2.91595e-08
2.95649e-08
3.00432e-08
3.05962e-08
3.12255e-08
3.1933e-08
3.27203e-08
3.35892e-08
3.45413e-08
3.55784e-08
3.67021e-08
3.79142e-08
3.92162e-08
4.06097e-08
4.20964e-08
4.36777e-08
4.53551e-08
4.713e-08
4.9004e-08
5.09782e-08
5.30539e-08
5.52324e-08
5.75149e-08
5.99023e-08
6.23957e-08
6.4996e-08
6.7704e-08
7.05205e-08
7.3446e-08
7.64812e-08
7.96264e-08
8.28819e-08
8.62479e-08
8.97245e-08
9.33117e-08
9.70091e-08
1.00816e-07
1.04733e-07
1.08759e-07
1.12893e-07
1.17134e-07
1.21481e-07
1.25933e-07
1.30489e-07
1.35147e-07
1.39905e-07
1.44762e-07
1.49716e-07
1.54764e-07
1.59906e-07
1.65138e-07
1.70458e-07
1.75864e-07
1.81354e-07
1.86925e-07
1.92574e-07
1.98298e-07
2.04096e-07
2.09964e-07
2.159e-07
2.21901e-07
2.27963e-07
2.34086e-07
2.40265e-07
2.46498e-07
2.52782e-07
2.59115e-07
2.65494e-07
2.71916e-07
2.7838e-07
2.84882e-07
2.9142e-07
2.97991e-07
3.04594e-07
3.11225e-07
3.17883e-07
3.24565e-07
3.3127e-07
3.37994e-07
3.44736e-07
3.51494e-07
3.58265e-07
3.65048e-07
3.71841e-07
3.78641e-07
3.85447e-07
3.92257e-07
3.9907e-07
4.05882e-07
4.12693e-07
4.19501e-07
4.26304e-07
4.331e-07
4.39887e-07
4.46665e-07
4.53431e-07
4.60183e-07
4.6692e-07
4.73639e-07
4.80339e-07
4.87018e-07
4.93674e-07
5.00305e-07
5.06908e-07
5.13481e-07
5.20021e-07
5.26527e-07
5.32995e-07
5.39423e-07
5.45808e-07
5.52147e-07
5.58436e-07
5.64674e-07
5.70856e-07
5.76978e-07
5.83039e-07
5.89032e-07
5.94956e-07
6.00807e-07
6.06579e-07
6.1227e-07
6.17874e-07
6.23389e-07
6.28808e-07
6.34128e-07
6.39344e-07
6.44451e-07
6.49445e-07
6.5432e-07
6.59072e-07
6.63695e-07
6.68185e-07
6.72535e-07
6.7674e-07
6.80796e-07
6.84696e-07
6.88436e-07
6.92008e-07
6.95408e-07
6.98631e-07
7.01669e-07
7.04518e-07
7.07172e-07
7.09624e-07
7.1187e-07
7.13903e-07
7.15718e-07
7.17309e-07
7.18668e-07
7.19793e-07
7.20676e-07
7.21312e-07
7.21697e-07
7.21823e-07
7.21687e-07
7.21281e-07
7.20603e-07
7.19648e-07
7.18406e-07
7.16881e-07
7.15068e-07
7.12957e-07
7.10545e-07
7.07828e-07
7.04802e-07
7.01463e-07
6.97805e-07
6.93827e-07
6.89528e-07
6.8491e-07
6.79981e-07
6.7478e-07
6.69315e-07
6.6383e-07
6.58048e-07
2.79397e-08
2.79999e-08
2.81279e-08
2.83235e-08
2.85871e-08
2.89199e-08
2.93235e-08
2.97995e-08
3.03494e-08
3.09749e-08
3.16777e-08
3.24594e-08
3.33216e-08
3.42661e-08
3.52945e-08
3.64084e-08
3.76095e-08
3.88993e-08
4.02795e-08
4.17517e-08
4.33173e-08
4.49779e-08
4.67349e-08
4.85898e-08
5.05439e-08
5.25985e-08
5.47549e-08
5.70142e-08
5.93777e-08
6.18463e-08
6.4421e-08
6.71028e-08
6.98923e-08
7.27904e-08
7.57975e-08
7.89142e-08
8.21409e-08
8.54779e-08
8.89252e-08
9.24828e-08
9.61507e-08
9.99286e-08
1.03816e-07
1.07812e-07
1.11917e-07
1.1613e-07
1.20448e-07
1.24873e-07
1.29401e-07
1.34032e-07
1.38765e-07
1.43597e-07
1.48527e-07
1.53552e-07
1.58672e-07
1.63883e-07
1.69184e-07
1.74572e-07
1.80045e-07
1.85601e-07
1.91237e-07
1.9695e-07
2.02738e-07
2.08598e-07
2.14528e-07
2.20525e-07
2.26587e-07
2.3271e-07
2.38892e-07
2.45131e-07
2.51424e-07
2.57769e-07
2.64162e-07
2.70602e-07
2.77085e-07
2.83611e-07
2.90175e-07
2.96776e-07
3.03412e-07
3.1008e-07
3.16779e-07
3.23505e-07
3.30258e-07
3.37034e-07
3.43832e-07
3.50649e-07
3.57485e-07
3.64336e-07
3.71201e-07
3.78079e-07
3.84967e-07
3.91863e-07
3.98766e-07
4.05674e-07
4.12585e-07
4.19497e-07
4.26409e-07
4.33319e-07
4.40225e-07
4.47126e-07
4.5402e-07
4.60905e-07
4.67778e-07
4.7464e-07
4.81486e-07
4.88315e-07
4.95126e-07
5.01915e-07
5.08681e-07
5.15421e-07
5.22132e-07
5.28812e-07
5.35458e-07
5.42067e-07
5.48637e-07
5.55163e-07
5.61644e-07
5.68075e-07
5.74453e-07
5.80774e-07
5.87035e-07
5.93232e-07
5.9936e-07
6.05417e-07
6.11397e-07
6.17296e-07
6.2311e-07
6.28835e-07
6.34466e-07
6.39997e-07
6.45424e-07
6.50742e-07
6.55947e-07
6.61032e-07
6.65993e-07
6.70824e-07
6.7552e-07
6.80075e-07
6.84484e-07
6.8874e-07
6.9284e-07
6.96776e-07
7.00542e-07
7.04134e-07
7.07544e-07
7.10768e-07
7.138e-07
7.16632e-07
7.1926e-07
7.21678e-07
7.23879e-07
7.25858e-07
7.27609e-07
7.29125e-07
7.30403e-07
7.31436e-07
7.32218e-07
7.32743e-07
7.33007e-07
7.33003e-07
7.32728e-07
7.32175e-07
7.31341e-07
7.30219e-07
7.28808e-07
7.27104e-07
7.25099e-07
7.22791e-07
7.20175e-07
7.17246e-07
7.14001e-07
7.10435e-07
7.06543e-07
7.02324e-07
6.97779e-07
6.92911e-07
6.87754e-07
6.82309e-07
6.76796e-07
6.70967e-07
2.76356e-08
2.76956e-08
2.7823e-08
2.80177e-08
2.82798e-08
2.86105e-08
2.90112e-08
2.94835e-08
3.0029e-08
3.06491e-08
3.13454e-08
3.21196e-08
3.29732e-08
3.39078e-08
3.49251e-08
3.60267e-08
3.72141e-08
3.84891e-08
3.9853e-08
4.13076e-08
4.28544e-08
4.44949e-08
4.62305e-08
4.80628e-08
4.99931e-08
5.20228e-08
5.41532e-08
5.63855e-08
5.8721e-08
6.11607e-08
6.37056e-08
6.63569e-08
6.91152e-08
7.19814e-08
7.49562e-08
7.80402e-08
8.12337e-08
8.45372e-08
8.79509e-08
9.14748e-08
9.51089e-08
9.88531e-08
1.02707e-07
1.0667e-07
1.10742e-07
1.14922e-07
1.19209e-07
1.23602e-07
1.281e-07
1.32702e-07
1.37406e-07
1.4221e-07
1.47113e-07
1.52114e-07
1.5721e-07
1.62399e-07
1.67679e-07
1.73048e-07
1.78504e-07
1.84045e-07
1.89667e-07
1.95369e-07
2.01149e-07
2.07003e-07
2.12929e-07
2.18925e-07
2.24987e-07
2.31115e-07
2.37305e-07
2.43554e-07
2.4986e-07
2.56222e-07
2.62635e-07
2.69099e-07
2.7561e-07
2.82166e-07
2.88765e-07
2.95406e-07
3.02085e-07
3.088e-07
3.1555e-07
3.22333e-07
3.29146e-07
3.35987e-07
3.42855e-07
3.49748e-07
3.56664e-07
3.636e-07
3.70556e-07
3.77529e-07
3.84518e-07
3.9152e-07
3.98535e-07
4.0556e-07
4.12594e-07
4.19635e-07
4.26681e-07
4.33731e-07
4.40783e-07
4.47834e-07
4.54885e-07
4.61932e-07
4.68973e-07
4.76007e-07
4.83032e-07
4.90045e-07
4.97044e-07
5.04027e-07
5.10991e-07
5.17934e-07
5.24853e-07
5.31745e-07
5.38608e-07
5.45437e-07
5.52231e-07
5.58986e-07
5.65698e-07
5.72364e-07
5.7898e-07
5.85543e-07
5.92047e-07
5.9849e-07
6.04867e-07
6.11174e-07
6.17406e-07
6.23559e-07
6.29628e-07
6.35608e-07
6.41494e-07
6.47282e-07
6.52966e-07
6.5854e-07
6.64e-07
6.6934e-07
6.74554e-07
6.79638e-07
6.84584e-07
6.89388e-07
6.94043e-07
6.98544e-07
7.02885e-07
7.0706e-07
7.11062e-07
7.14885e-07
7.18525e-07
7.21974e-07
7.25226e-07
7.28276e-07
7.31117e-07
7.33744e-07
7.36148e-07
7.38327e-07
7.40274e-07
7.41982e-07
7.43445e-07
7.44659e-07
7.45617e-07
7.46314e-07
7.46745e-07
7.46904e-07
7.46785e-07
7.46386e-07
7.457e-07
7.44723e-07
7.43452e-07
7.41883e-07
7.4001e-07
7.37829e-07
7.35336e-07
7.32528e-07
7.29399e-07
7.25944e-07
7.2216e-07
7.18041e-07
7.13589e-07
7.08802e-07
7.03709e-07
6.98303e-07
6.92786e-07
6.86901e-07
2.72598e-08
2.732e-08
2.74467e-08
2.764e-08
2.78999e-08
2.82276e-08
2.86244e-08
2.9092e-08
2.96316e-08
3.02448e-08
3.09331e-08
3.1698e-08
3.2541e-08
3.34638e-08
3.44679e-08
3.5555e-08
3.67265e-08
3.7984e-08
3.93293e-08
4.07637e-08
4.2289e-08
4.39066e-08
4.5618e-08
4.74248e-08
4.93283e-08
5.133e-08
5.34313e-08
5.56335e-08
5.79378e-08
6.03453e-08
6.28574e-08
6.54748e-08
6.81988e-08
7.103e-08
7.39692e-08
7.70172e-08
8.01744e-08
8.34414e-08
8.68184e-08
9.03056e-08
9.39032e-08
9.76109e-08
1.01429e-07
1.05356e-07
1.09393e-07
1.13538e-07
1.17791e-07
1.22151e-07
1.26617e-07
1.31187e-07
1.35861e-07
1.40637e-07
1.45513e-07
1.50488e-07
1.55559e-07
1.60726e-07
1.65986e-07
1.71337e-07
1.76776e-07
1.82303e-07
1.87913e-07
1.93606e-07
1.99379e-07
2.05229e-07
2.11155e-07
2.17153e-07
2.23221e-07
2.29357e-07
2.35559e-07
2.41824e-07
2.4815e-07
2.54534e-07
2.60975e-07
2.67469e-07
2.74016e-07
2.80612e-07
2.87255e-07
2.93944e-07
3.00677e-07
3.0745e-07
3.14264e-07
3.21115e-07
3.28001e-07
3.34921e-07
3.41874e-07
3.48857e-07
3.55868e-07
3.62906e-07
3.69969e-07
3.77056e-07
3.84164e-07
3.91292e-07
3.98439e-07
4.05603e-07
4.12781e-07
4.19973e-07
4.27177e-07
4.34391e-07
4.41613e-07
4.48842e-07
4.56076e-07
4.63312e-07
4.7055e-07
4.77786e-07
4.85019e-07
4.92246e-07
4.99465e-07
5.06674e-07
5.13869e-07
5.21049e-07
5.2821e-07
5.35349e-07
5.42463e-07
5.4955e-07
5.56605e-07
5.63625e-07
5.70606e-07
5.77545e-07
5.84438e-07
5.91281e-07
5.98069e-07
6.04797e-07
6.11463e-07
6.1806e-07
6.24585e-07
6.31032e-07
6.37396e-07
6.43672e-07
6.49856e-07
6.55941e-07
6.61922e-07
6.67793e-07
6.7355e-07
6.79185e-07
6.84694e-07
6.9007e-07
6.95307e-07
7.004e-07
7.05341e-07
7.10126e-07
7.14747e-07
7.19199e-07
7.23475e-07
7.27568e-07
7.31473e-07
7.35184e-07
7.38693e-07
7.41995e-07
7.45084e-07
7.47954e-07
7.50597e-07
7.53008e-07
7.55182e-07
7.57112e-07
7.58792e-07
7.60217e-07
7.61381e-07
7.62278e-07
7.62903e-07
7.63252e-07
7.63318e-07
7.63098e-07
7.62586e-07
7.61778e-07
7.60671e-07
7.59261e-07
7.57542e-07
7.55512e-07
7.53166e-07
7.50499e-07
7.47507e-07
7.44186e-07
7.40529e-07
7.36531e-07
7.32192e-07
7.27506e-07
7.22498e-07
7.17152e-07
7.11659e-07
7.05735e-07
2.68089e-08
2.68692e-08
2.69951e-08
2.71864e-08
2.74435e-08
2.77674e-08
2.81595e-08
2.86211e-08
2.91537e-08
2.97587e-08
3.04375e-08
3.11915e-08
3.20224e-08
3.29317e-08
3.39208e-08
3.49914e-08
3.6145e-08
3.73833e-08
3.87077e-08
4.01199e-08
4.16214e-08
4.32139e-08
4.48989e-08
4.66779e-08
4.85524e-08
5.05239e-08
5.25938e-08
5.47635e-08
5.70343e-08
5.94075e-08
6.18843e-08
6.44658e-08
6.71531e-08
6.99471e-08
7.28488e-08
7.58588e-08
7.89778e-08
8.22064e-08
8.5545e-08
8.89939e-08
9.25533e-08
9.62232e-08
1.00004e-07
1.03894e-07
1.07894e-07
1.12004e-07
1.16223e-07
1.20549e-07
1.24982e-07
1.29521e-07
1.34165e-07
1.38913e-07
1.43762e-07
1.48712e-07
1.53761e-07
1.58906e-07
1.64148e-07
1.69482e-07
1.74908e-07
1.80423e-07
1.86025e-07
1.91712e-07
1.97482e-07
2.03333e-07
2.09262e-07
2.15267e-07
2.21346e-07
2.27496e-07
2.33716e-07
2.40003e-07
2.46356e-07
2.52771e-07
2.59246e-07
2.6578e-07
2.72371e-07
2.79016e-07
2.85713e-07
2.92461e-07
2.99258e-07
3.06101e-07
3.1299e-07
3.19921e-07
3.26894e-07
3.33907e-07
3.40958e-07
3.48046e-07
3.55168e-07
3.62324e-07
3.69511e-07
3.76728e-07
3.83974e-07
3.91247e-07
3.98545e-07
4.05867e-07
4.13211e-07
4.20576e-07
4.2796e-07
4.3536e-07
4.42777e-07
4.50207e-07
4.57649e-07
4.651e-07
4.7256e-07
4.80025e-07
4.87493e-07
4.94963e-07
5.02431e-07
5.09894e-07
5.17351e-07
5.24798e-07
5.32231e-07
5.39649e-07
5.47047e-07
5.54423e-07
5.61772e-07
5.6909e-07
5.76375e-07
5.83622e-07
5.90826e-07
5.97983e-07
6.05089e-07
6.12139e-07
6.19129e-07
6.26053e-07
6.32906e-07
6.39683e-07
6.46379e-07
6.52988e-07
6.59505e-07
6.65924e-07
6.72239e-07
6.78444e-07
6.84534e-07
6.90501e-07
6.9634e-07
7.02045e-07
7.07609e-07
7.13026e-07
7.1829e-07
7.23393e-07
7.28329e-07
7.33093e-07
7.37676e-07
7.42073e-07
7.46277e-07
7.50283e-07
7.54082e-07
7.57669e-07
7.61037e-07
7.6418e-07
7.67091e-07
7.69765e-07
7.72195e-07
7.74376e-07
7.76301e-07
7.77964e-07
7.79361e-07
7.80485e-07
7.81331e-07
7.81894e-07
7.8217e-07
7.82153e-07
7.81839e-07
7.81224e-07
7.80304e-07
7.79075e-07
7.77533e-07
7.75675e-07
7.73496e-07
7.70992e-07
7.68158e-07
7.6499e-07
7.6148e-07
7.57624e-07
7.53418e-07
7.48855e-07
7.43954e-07
7.38693e-07
7.33253e-07
7.27319e-07
2.6278e-08
2.63385e-08
2.64633e-08
2.66524e-08
2.69062e-08
2.72257e-08
2.76122e-08
2.8067e-08
2.85915e-08
2.91871e-08
2.98552e-08
3.05972e-08
3.14146e-08
3.23088e-08
3.32815e-08
3.43342e-08
3.54683e-08
3.66856e-08
3.79876e-08
3.93759e-08
4.08521e-08
4.24179e-08
4.40747e-08
4.58243e-08
4.76682e-08
4.96078e-08
5.16448e-08
5.37805e-08
5.60164e-08
5.83538e-08
6.07941e-08
6.33384e-08
6.5988e-08
6.87438e-08
7.16068e-08
7.4578e-08
7.76581e-08
8.08477e-08
8.41474e-08
8.75577e-08
9.10787e-08
9.47108e-08
9.84538e-08
1.02308e-07
1.06272e-07
1.10347e-07
1.14532e-07
1.18826e-07
1.23228e-07
1.27737e-07
1.32353e-07
1.37074e-07
1.41899e-07
1.46827e-07
1.51855e-07
1.56983e-07
1.62209e-07
1.6753e-07
1.72946e-07
1.78454e-07
1.84052e-07
1.89739e-07
1.95511e-07
2.01368e-07
2.07306e-07
2.13325e-07
2.19421e-07
2.25594e-07
2.31839e-07
2.38157e-07
2.44543e-07
2.50997e-07
2.57517e-07
2.641e-07
2.70745e-07
2.77449e-07
2.84212e-07
2.9103e-07
2.97903e-07
3.04828e-07
3.11804e-07
3.1883e-07
3.25903e-07
3.33022e-07
3.40186e-07
3.47394e-07
3.54643e-07
3.61932e-07
3.6926e-07
3.76625e-07
3.84026e-07
3.91461e-07
3.98929e-07
4.06429e-07
4.13958e-07
4.21516e-07
4.29099e-07
4.36708e-07
4.44341e-07
4.51994e-07
4.59667e-07
4.67358e-07
4.75063e-07
4.82782e-07
4.90511e-07
4.98248e-07
5.0599e-07
5.13735e-07
5.21479e-07
5.2922e-07
5.36955e-07
5.44679e-07
5.52389e-07
5.60082e-07
5.67754e-07
5.75401e-07
5.83018e-07
5.90602e-07
5.98148e-07
6.0565e-07
6.13105e-07
6.20507e-07
6.27852e-07
6.35133e-07
6.42347e-07
6.49486e-07
6.56545e-07
6.63518e-07
6.704e-07
6.77185e-07
6.83866e-07
6.90436e-07
6.9689e-07
7.03221e-07
7.09422e-07
7.15487e-07
7.21409e-07
7.27181e-07
7.32797e-07
7.38249e-07
7.43531e-07
7.48636e-07
7.53557e-07
7.58287e-07
7.6282e-07
7.67148e-07
7.71265e-07
7.75164e-07
7.78839e-07
7.82283e-07
7.85489e-07
7.88452e-07
7.91165e-07
7.93622e-07
7.95816e-07
7.97743e-07
7.99397e-07
8.00772e-07
8.01862e-07
8.02663e-07
8.03171e-07
8.03379e-07
8.03285e-07
8.02884e-07
8.02172e-07
8.01146e-07
7.99801e-07
7.98135e-07
7.96143e-07
7.93822e-07
7.91166e-07
7.8817e-07
7.84829e-07
7.81134e-07
7.77082e-07
7.72664e-07
7.67894e-07
7.62744e-07
7.57388e-07
7.5148e-07
2.56616e-08
2.57222e-08
2.58458e-08
2.60324e-08
2.62825e-08
2.65971e-08
2.69774e-08
2.74248e-08
2.79405e-08
2.85258e-08
2.91823e-08
2.99111e-08
3.07139e-08
3.15921e-08
3.25472e-08
3.35807e-08
3.46942e-08
3.58894e-08
3.71677e-08
3.8531e-08
3.99807e-08
4.15186e-08
4.31463e-08
4.48655e-08
4.66777e-08
4.85847e-08
5.05879e-08
5.26889e-08
5.48893e-08
5.71905e-08
5.95938e-08
6.21007e-08
6.47123e-08
6.74299e-08
7.02545e-08
7.31872e-08
7.62288e-08
7.93801e-08
8.26418e-08
8.60144e-08
8.94983e-08
9.30938e-08
9.68012e-08
1.0062e-07
1.04551e-07
1.08594e-07
1.12747e-07
1.17011e-07
1.21385e-07
1.25868e-07
1.30459e-07
1.35158e-07
1.39962e-07
1.44872e-07
1.49885e-07
1.55e-07
1.60215e-07
1.65529e-07
1.70941e-07
1.76448e-07
1.82048e-07
1.87741e-07
1.93523e-07
1.99393e-07
2.05349e-07
2.1139e-07
2.17512e-07
2.23714e-07
2.29995e-07
2.36352e-07
2.42783e-07
2.49287e-07
2.55862e-07
2.62505e-07
2.69215e-07
2.75991e-07
2.8283e-07
2.89732e-07
2.96693e-07
3.03713e-07
3.10791e-07
3.17925e-07
3.25112e-07
3.32353e-07
3.39645e-07
3.46988e-07
3.54379e-07
3.61818e-07
3.69303e-07
3.76833e-07
3.84406e-07
3.92021e-07
3.99678e-07
4.07373e-07
4.15106e-07
4.22876e-07
4.30679e-07
4.38517e-07
4.46385e-07
4.54283e-07
4.62208e-07
4.70159e-07
4.78132e-07
4.86126e-07
4.94138e-07
5.02165e-07
5.10205e-07
5.18255e-07
5.2631e-07
5.34369e-07
5.42428e-07
5.50483e-07
5.5853e-07
5.66565e-07
5.74585e-07
5.82585e-07
5.9056e-07
5.98507e-07
6.06419e-07
6.14293e-07
6.22122e-07
6.29903e-07
6.37628e-07
6.45293e-07
6.52892e-07
6.60419e-07
6.67868e-07
6.75232e-07
6.82506e-07
6.89682e-07
6.96754e-07
7.03716e-07
7.1056e-07
7.1728e-07
7.23869e-07
7.30321e-07
7.36626e-07
7.42779e-07
7.48773e-07
7.54599e-07
7.60252e-07
7.65724e-07
7.71007e-07
7.76094e-07
7.8098e-07
7.85655e-07
7.90114e-07
7.94349e-07
7.98354e-07
8.02122e-07
8.05646e-07
8.0892e-07
8.11938e-07
8.14692e-07
8.17179e-07
8.19391e-07
8.21322e-07
8.22969e-07
8.24324e-07
8.25383e-07
8.26142e-07
8.26597e-07
8.26742e-07
8.26574e-07
8.26089e-07
8.25284e-07
8.24156e-07
8.22701e-07
8.20915e-07
8.18794e-07
8.16335e-07
8.1353e-07
8.10375e-07
8.06862e-07
8.02985e-07
7.98733e-07
7.94119e-07
7.89106e-07
7.83865e-07
7.78021e-07
2.4953e-08
2.50138e-08
2.51362e-08
2.53202e-08
2.55664e-08
2.58758e-08
2.62495e-08
2.66889e-08
2.71951e-08
2.77697e-08
2.84137e-08
2.91288e-08
2.99162e-08
3.07775e-08
3.17141e-08
3.27277e-08
3.38198e-08
3.4992e-08
3.6246e-08
3.75835e-08
3.90061e-08
4.05156e-08
4.21136e-08
4.38019e-08
4.55822e-08
4.74563e-08
4.94257e-08
5.14921e-08
5.36571e-08
5.59224e-08
5.82893e-08
6.07594e-08
6.3334e-08
6.60145e-08
6.8802e-08
7.16976e-08
7.47024e-08
7.78173e-08
8.10431e-08
8.43804e-08
8.78298e-08
9.13918e-08
9.50666e-08
9.88543e-08
1.02755e-07
1.06769e-07
1.10895e-07
1.15134e-07
1.19485e-07
1.23946e-07
1.28518e-07
1.332e-07
1.3799e-07
1.42888e-07
1.47892e-07
1.53001e-07
1.58213e-07
1.63528e-07
1.68943e-07
1.74457e-07
1.80069e-07
1.85776e-07
1.91577e-07
1.97471e-07
2.03454e-07
2.09526e-07
2.15685e-07
2.21929e-07
2.28257e-07
2.34665e-07
2.41153e-07
2.47719e-07
2.54361e-07
2.61078e-07
2.67867e-07
2.74727e-07
2.81658e-07
2.88656e-07
2.95721e-07
3.02851e-07
3.10045e-07
3.17302e-07
3.2462e-07
3.31997e-07
3.39434e-07
3.46928e-07
3.54478e-07
3.62083e-07
3.69742e-07
3.77454e-07
3.85217e-07
3.9303e-07
4.00892e-07
4.08801e-07
4.16757e-07
4.24756e-07
4.32799e-07
4.40884e-07
4.49007e-07
4.57169e-07
4.65365e-07
4.73596e-07
4.81856e-07
4.90146e-07
4.98461e-07
5.06798e-07
5.15156e-07
5.2353e-07
5.31917e-07
5.40315e-07