/*--------------------------------*- C++ -*----------------------------------*\
| =========                 |                                                 |
| \\      /  F ield         | OpenFOAM: The Open Source CFD Toolbox           |
|  \\    /   O peration     | Version:  2.3.0                                 |
|   \\  /    A nd           | Web:      www.OpenFOAM.org                      |
|    \\/     M anipulation  |                                                 |
\*---------------------------------------------------------------------------*/
FoamFile
{
    version     2.0;
    format      ascii;
    class       volScalarField;
    location    "2.9e-05";
    object      nuSgs;
}
// * * * * * * * * * * * * * * * * * * * * * * * * * * * * * * * * * * * * * //

dimensions      [0 2 -1 0 0 0 0];

internalField   nonuniform List<scalar> 
7500
(
4.1402939e-10
4.1901698e-10
4.2393817e-10
4.2877629e-10
4.3359173e-10
4.3839366e-10
4.4316343e-10
4.4785359e-10
4.5251732e-10
4.5713198e-10
4.6169859e-10
4.6621743e-10
4.706907e-10
4.7512282e-10
4.7951392e-10
4.8387026e-10
4.8820031e-10
4.9251377e-10
4.968318e-10
5.0109633e-10
5.0530879e-10
5.0941606e-10
5.1346165e-10
5.1748977e-10
5.2151839e-10
5.2553904e-10
5.2961013e-10
5.3361873e-10
5.3760795e-10
5.4161211e-10
5.4548948e-10
5.4932043e-10
5.5308271e-10
5.5671735e-10
5.6027935e-10
5.6378489e-10
5.6730097e-10
5.7075342e-10
5.7425132e-10
5.8349434e-10
5.873416e-10
5.9097001e-10
5.9461191e-10
5.9815827e-10
6.016762e-10
6.0513573e-10
6.0859887e-10
6.120417e-10
6.15588e-10
6.1895153e-10
6.2238874e-10
6.2571578e-10
6.2915019e-10
6.3255702e-10
6.3627248e-10
6.3967094e-10
6.4343216e-10
6.4693013e-10
6.5096558e-10
6.5462577e-10
6.591055e-10
6.6297138e-10
6.6798289e-10
6.7210939e-10
6.777111e-10
6.8218037e-10
6.8847741e-10
6.934519e-10
7.0086607e-10
7.0641165e-10
7.1496601e-10
7.2094973e-10
7.3032526e-10
7.3652694e-10
7.4850597e-10
4.5545924e-10
4.6090243e-10
4.6631967e-10
4.7167986e-10
4.7697489e-10
4.8222509e-10
4.8743359e-10
4.9260547e-10
4.977394e-10
5.0283075e-10
5.078852e-10
5.1290155e-10
5.1790332e-10
5.2285475e-10
5.2781532e-10
5.3269828e-10
5.3759082e-10
5.4237968e-10
5.4713643e-10
5.5180935e-10
5.564271e-10
5.6099045e-10
5.6551281e-10
5.7002327e-10
5.7448105e-10
5.7898588e-10
5.8338928e-10
5.8787675e-10
5.9220302e-10
5.9661106e-10
6.0085269e-10
6.0507364e-10
6.0924843e-10
6.1334568e-10
6.1746331e-10
6.2148491e-10
6.2558832e-10
6.2958032e-10
6.3371431e-10
6.4412745e-10
6.4871958e-10
6.5317485e-10
6.5793554e-10
6.6257025e-10
6.6765623e-10
6.7260129e-10
6.7821376e-10
6.8363137e-10
6.9007776e-10
6.9612649e-10
7.0379341e-10
7.1070301e-10
7.1994705e-10
7.2793168e-10
7.3911453e-10
7.4852886e-10
7.6216011e-10
7.732325e-10
7.8948128e-10
8.0269053e-10
8.2287902e-10
8.3819423e-10
8.6151517e-10
8.7896531e-10
9.0670915e-10
9.2650556e-10
9.5812297e-10
9.807201e-10
1.0176426e-09
1.043191e-09
1.0850754e-09
1.1125587e-09
1.1574078e-09
1.185524e-09
1.2444971e-09
5.0103813e-10
5.0708971e-10
5.1311578e-10
5.1906433e-10
5.2498374e-10
5.3085294e-10
5.3672434e-10
5.4254752e-10
5.4844713e-10
5.5427055e-10
5.6028732e-10
5.6615778e-10
5.7235232e-10
5.7832326e-10
5.8470864e-10
5.9074493e-10
5.9696151e-10
6.0283737e-10
6.0871164e-10
6.1436048e-10
6.1990247e-10
6.2532054e-10
6.3058881e-10
6.3591314e-10
6.4111183e-10
6.4648381e-10
6.5166446e-10
6.5713186e-10
6.6237951e-10
6.6805576e-10
6.7357047e-10
6.7924689e-10
6.8547267e-10
6.9141074e-10
6.9825962e-10
7.0484497e-10
7.1299571e-10
7.2083586e-10
7.3133132e-10
7.4869853e-10
7.6327773e-10
7.7690309e-10
7.9671814e-10
8.1486243e-10
8.4148643e-10
8.6534764e-10
9.0032695e-10
9.3113159e-10
9.7667278e-10
1.0150346e-09
1.0734082e-09
1.1197756e-09
1.1910871e-09
1.2453197e-09
1.329257e-09
1.3926278e-09
1.4908164e-09
1.5620051e-09
1.6697744e-09
1.7512005e-09
1.8759087e-09
1.9640185e-09
2.0966204e-09
2.1908865e-09
2.3364226e-09
2.4369517e-09
2.5917657e-09
2.6997136e-09
2.8684822e-09
2.9842698e-09
3.1650749e-09
3.2835397e-09
3.4660436e-09
3.5827654e-09
3.8169771e-09
5.5147926e-10
5.5836427e-10
5.6557143e-10
5.7244592e-10
5.7975979e-10
5.8674833e-10
5.9443037e-10
6.016191e-10
6.0988914e-10
6.1739665e-10
6.2641735e-10
6.3451837e-10
6.4461263e-10
6.5384331e-10
6.6443886e-10
6.7387721e-10
6.8362459e-10
6.9204779e-10
7.0067207e-10
7.083027e-10
7.1581703e-10
7.2287005e-10
7.294753e-10
7.3631867e-10
7.4304454e-10
7.5050801e-10
7.5814415e-10
7.6762756e-10
7.7748316e-10
7.9131081e-10
8.054068e-10
8.2430945e-10
8.5015519e-10
8.7560654e-10
9.1414632e-10
9.5159347e-10
1.011555e-09
1.065338e-09
1.151995e-09
1.2380295e-09
1.3580955e-09
1.4574358e-09
1.6135806e-09
1.7381981e-09
1.9283531e-09
2.0777674e-09
2.3015802e-09
2.4766892e-09
2.7373434e-09
2.9365374e-09
3.2376333e-09
3.4587343e-09
3.795238e-09
4.0365859e-09
4.4066296e-09
4.6713455e-09
5.0802833e-09
5.36127e-09
5.7869332e-09
6.0967079e-09
6.5660277e-09
6.8882574e-09
7.3717605e-09
7.7073023e-09
8.2151361e-09
8.5642815e-09
9.0925473e-09
9.4576906e-09
1.0017844e-08
1.0400977e-08
1.0987713e-08
1.1371424e-08
1.1946064e-08
1.2318945e-08
1.3043957e-08
5.9917804e-10
6.0785262e-10
6.1832635e-10
6.2742435e-10
6.3891547e-10
6.4889756e-10
6.6246806e-10
6.7345882e-10
6.8888487e-10
7.0061511e-10
7.1723912e-10
7.3141306e-10
7.5012236e-10
7.6577867e-10
7.8282631e-10
7.9726092e-10
8.1242637e-10
8.253333e-10
8.3833596e-10
8.4989955e-10
8.6137441e-10
8.7360579e-10
8.8625872e-10
9.031841e-10
9.2267308e-10
9.5296243e-10
9.877069e-10
1.046326e-09
1.108667e-09
1.2155211e-09
1.3186005e-09
1.4794244e-09
1.6598017e-09
1.8463621e-09
2.1201095e-09
2.3616188e-09
2.7338321e-09
3.0290529e-09
3.493391e-09
3.8524341e-09
4.4196782e-09
4.8470497e-09
5.5188539e-09
6.0108535e-09
6.7706091e-09
7.3241143e-09
8.1722207e-09
8.7904852e-09
9.7322456e-09
1.0413216e-08
1.1456803e-08
1.2190404e-08
1.3317262e-08
1.4101656e-08
1.5312952e-08
1.6151638e-08
1.7459532e-08
1.8326592e-08
1.9665499e-08
2.0603282e-08
2.2035385e-08
2.299303e-08
2.4452258e-08
2.5433611e-08
2.6918541e-08
2.7924443e-08
2.9445848e-08
3.0480399e-08
3.2065316e-08
3.313442e-08
3.4767821e-08
3.5821434e-08
3.7380691e-08
3.8389068e-08
4.0313573e-08
6.3527177e-10
6.4612524e-10
6.6098459e-10
6.731803e-10
6.9012742e-10
7.0548193e-10
7.2453745e-10
7.3964602e-10
7.5817504e-10
7.7367385e-10
7.9195648e-10
8.0831524e-10
8.272053e-10
8.4385437e-10
8.6365401e-10
8.8026627e-10
9.0041483e-10
9.1949899e-10
9.436512e-10
9.7473282e-10
1.0144808e-09
1.0788989e-09
1.1589904e-09
1.2935848e-09
1.4454232e-09
1.7003359e-09
1.9516401e-09
2.364471e-09
2.7337629e-09
3.3365433e-09
3.8354321e-09
4.6419589e-09
5.2747159e-09
6.2081044e-09
7.1443701e-09
8.1248784e-09
9.4139075e-09
1.0444106e-08
1.2072924e-08
1.3257463e-08
1.5136185e-08
1.6489187e-08
1.86464e-08
2.0155551e-08
2.2525743e-08
2.417126e-08
2.675596e-08
2.8544164e-08
3.134387e-08
3.3277517e-08
3.6295584e-08
3.8340824e-08
4.1522349e-08
4.3682306e-08
4.7040954e-08
4.9311481e-08
5.2862117e-08
5.5161441e-08
5.8770746e-08
6.1207866e-08
6.4958895e-08
6.7418603e-08
7.1208915e-08
7.3686004e-08
7.743835e-08
7.9944011e-08
8.3728351e-08
8.6276838e-08
9.0161356e-08
9.2768456e-08
9.6719212e-08
9.9280138e-08
1.0296324e-07
1.0536297e-07
1.0982127e-07
6.6047466e-10
6.7790757e-10
6.9312119e-10
7.1153916e-10
7.2759949e-10
7.4662495e-10
7.6388824e-10
7.7981773e-10
7.9866954e-10
8.1463458e-10
8.3483922e-10
8.5263961e-10
8.7348925e-10
8.9598756e-10
9.2427176e-10
9.6074999e-10
1.016426e-09
1.1019436e-09
1.2432474e-09
1.4428103e-09
1.7348445e-09
2.1785963e-09
2.6525703e-09
3.3995936e-09
4.111401e-09
5.2447953e-09
6.2237802e-09
7.8008064e-09
9.0838895e-09
1.1180026e-08
1.2788389e-08
1.5424471e-08
1.7357623e-08
2.0518734e-08
2.2799456e-08
2.6472049e-08
2.9309029e-08
3.2809697e-08
3.7320161e-08
4.0522166e-08
4.5661541e-08
4.9283266e-08
5.4993527e-08
5.897217e-08
6.5093934e-08
6.9288932e-08
7.5881596e-08
8.0270937e-08
8.7286681e-08
9.1940359e-08
9.9323248e-08
1.0416491e-07
1.1177173e-07
1.1682819e-07
1.2471309e-07
1.2995101e-07
1.3807549e-07
1.4329248e-07
1.5153737e-07
1.5694784e-07
1.6527756e-07
1.7069829e-07
1.7903188e-07
1.8439134e-07
1.9246094e-07
1.978243e-07
2.0583657e-07
2.1127555e-07
2.1940721e-07
2.250322e-07
2.3317209e-07
2.3857973e-07
2.4609026e-07
2.5111551e-07
2.6012456e-07
6.7816383e-10
7.0623124e-10
7.2159968e-10
7.4609235e-10
7.5990351e-10
7.7987906e-10
7.9529177e-10
8.112005e-10
8.3434457e-10
8.5484815e-10
8.8599412e-10
9.2251441e-10
9.8001304e-10
1.0718376e-09
1.2225679e-09
1.4595183e-09
1.8334426e-09
2.3521383e-09
3.158286e-09
4.0580285e-09
5.3503076e-09
6.9662022e-09
8.6106556e-09
1.1204332e-08
1.3428784e-08
1.7009455e-08
1.9889154e-08
2.4604595e-08
2.8201812e-08
3.4165297e-08
3.8489401e-08
4.5692125e-08
5.0702807e-08
5.9045353e-08
6.4753452e-08
7.42345e-08
8.0670411e-08
9.1054e-08
9.9209421e-08
1.0810089e-07
1.2011861e-07
1.2896044e-07
1.4018428e-07
1.514823e-07
1.6250605e-07
1.7386364e-07
1.8683206e-07
1.9677154e-07
2.118389e-07
2.21585e-07
2.3721512e-07
2.4731811e-07
2.631432e-07
2.7361956e-07
2.8976067e-07
3.0047005e-07
3.1663985e-07
3.2724083e-07
3.4382969e-07
3.5462012e-07
3.7102301e-07
3.8189675e-07
3.982327e-07
4.0893253e-07
4.2471787e-07
4.354045e-07
4.5104391e-07
4.6190568e-07
4.7759084e-07
4.8892266e-07
5.0452859e-07
5.1546826e-07
5.3016821e-07
5.4054646e-07
5.5858581e-07
6.8819995e-10
7.1595606e-10
7.3486816e-10
7.732109e-10
7.9465232e-10
8.3337114e-10
8.5615641e-10
8.9161683e-10
9.2662934e-10
9.8272887e-10
1.0811933e-09
1.2602423e-09
1.5688462e-09
2.0665379e-09
2.8175694e-09
3.8573896e-09
5.4423889e-09
7.2608567e-09
1.0111233e-08
1.2866296e-08
1.7272968e-08
2.1283126e-08
2.6468206e-08
3.373215e-08
3.9630604e-08
4.9220176e-08
5.6530947e-08
6.8664184e-08
7.7345769e-08
9.1900015e-08
1.0194272e-07
1.1883907e-07
1.3007948e-07
1.4898203e-07
1.6141141e-07
1.8223839e-07
1.9580523e-07
2.1840779e-07
2.3307372e-07
2.5691904e-07
2.7389599e-07
2.9722487e-07
3.163246e-07
3.4180319e-07
3.6076407e-07
3.8461323e-07
4.0862536e-07
4.3016075e-07
4.5716885e-07
4.7818276e-07
5.0734477e-07
5.2803804e-07
5.5775726e-07
5.7970737e-07
6.0862596e-07
6.3094709e-07
6.6090003e-07
6.8208152e-07
7.1426962e-07
7.3595064e-07
7.6840005e-07
7.9081727e-07
8.2318862e-07
8.4554856e-07
8.7724063e-07
8.9956749e-07
9.3116372e-07
9.5387531e-07
9.8596584e-07
1.0094183e-06
1.0416765e-06
1.0662455e-06
1.0994928e-06
1.1250367e-06
1.1696203e-06
7.0460534e-10
7.2552752e-10
7.5483375e-10
7.8198798e-10
8.1348408e-10
8.5592233e-10
9.1298792e-10
1.0110624e-09
1.1882692e-09
1.5105485e-09
2.0493887e-09
2.9093148e-09
4.1667347e-09
6.0002406e-09
8.5544047e-09
1.180546e-08
1.6858611e-08
2.1903618e-08
3.0062054e-08
3.7215259e-08
4.908416e-08
5.865087e-08
7.4253332e-08
8.780011e-08
1.0371184e-07
1.2522609e-07
1.4193777e-07
1.6898682e-07
1.8722183e-07
2.1810005e-07
2.3857668e-07
2.7300488e-07
2.9524965e-07
3.3278446e-07
3.5694931e-07
3.9735678e-07
4.2318707e-07
4.6598075e-07
4.9369182e-07
5.3925746e-07
5.6894749e-07
6.1751014e-07
6.4889586e-07
6.9862134e-07
7.333217e-07
7.8147605e-07
8.2590369e-07
8.6872016e-07
9.2337491e-07
9.6542449e-07
1.0215005e-06
1.0662259e-06
1.1192435e-06
1.1694462e-06
1.2186802e-06
1.2721751e-06
1.3314384e-06
1.3804345e-06
1.4527122e-06
1.5031997e-06
1.5761426e-06
1.6276979e-06
1.6994356e-06
1.7530921e-06
1.821412e-06
1.8736178e-06
1.9434315e-06
1.9971988e-06
2.0731634e-06
2.1322967e-06
2.2199829e-06
2.2964668e-06
2.4043769e-06
2.4855171e-06
2.622236e-06
7.2388733e-10
7.7107416e-10
8.1017963e-10
8.4762852e-10
8.8810036e-10
9.6454065e-10
1.1442209e-09
1.5420574e-09
2.2847611e-09
3.5186302e-09
5.3759031e-09
8.1571046e-09
1.1998082e-08
1.7616695e-08
2.503561e-08
3.3784865e-08
4.7588278e-08
5.9925086e-08
8.0333194e-08
9.6705677e-08
1.2446338e-07
1.4514967e-07
1.8050358e-07
2.0546994e-07
2.4826078e-07
2.7783052e-07
3.2128162e-07
3.6773204e-07
4.035402e-07
4.6235508e-07
5.0040834e-07
5.6311381e-07
6.0431775e-07
6.7326446e-07
7.1785526e-07
7.9137863e-07
8.3960102e-07
9.182848e-07
9.7203875e-07
1.0569429e-06
1.1159149e-06
1.2094189e-06
1.2713724e-06
1.3705539e-06
1.4409881e-06
1.5548053e-06
1.6325694e-06
1.747019e-06
1.8534134e-06
1.946387e-06
2.0682131e-06
2.153124e-06
2.2764252e-06
2.3798362e-06
2.4973159e-06
2.672787e-06
2.8008761e-06
2.9494596e-06
3.1492916e-06
3.2686404e-06
3.4312685e-06
3.5706007e-06
3.766402e-06
3.893468e-06
4.0621889e-06
4.1973041e-06
4.3929306e-06
4.5325625e-06
4.7961543e-06
4.986789e-06
5.4472037e-06
5.6958442e-06
6.0975082e-06
6.302715e-06
6.6480723e-06
7.3047622e-10
7.7358233e-10
8.1679788e-10
8.8505319e-10
1.0505859e-09
1.4654919e-09
2.3319306e-09
3.8530588e-09
6.2508808e-09
9.8967887e-09
1.5101203e-08
2.2917892e-08
3.3056958e-08
4.9188847e-08
6.5457384e-08
8.7637306e-08
1.1893084e-07
1.4613849e-07
1.9025629e-07
2.2376834e-07
2.8074402e-07
3.2104538e-07
3.9010999e-07
4.3678741e-07
5.169962e-07
5.6966924e-07
6.5993488e-07
7.1993287e-07
8.0646725e-07
8.953065e-07
9.7235611e-07
1.0822536e-06
1.163767e-06
1.2897974e-06
1.3753477e-06
1.5132231e-06
1.6157585e-06
1.7700091e-06
1.8992063e-06
2.0527642e-06
2.2062996e-06
2.3808254e-06
2.5244346e-06
2.7676133e-06
2.9496375e-06
3.2515603e-06
3.4237908e-06
3.7256344e-06
3.9141569e-06
4.1744173e-06
4.4246672e-06
4.616348e-06
5.0174166e-06
5.2795363e-06
5.7818199e-06
6.3830353e-06
6.5788603e-06
7.0760422e-06
7.4764443e-06
7.6853403e-06
8.0573738e-06
8.7015099e-06
9.0830041e-06
9.3833941e-06
9.854152e-06
1.0198772e-05
1.0752013e-05
1.1075562e-05
1.1856985e-05
1.2111218e-05
1.2621626e-05
1.2801872e-05
1.3268424e-05
1.3616697e-05
1.3812398e-05
7.4833385e-10
8.0364529e-10
8.969894e-10
1.1692885e-09
1.909304e-09
3.4622521e-09
6.1683124e-09
1.0490515e-08
1.6954396e-08
2.6611914e-08
3.991129e-08
6.1070571e-08
8.4299256e-08
1.2278507e-07
1.5655097e-07
2.1283853e-07
2.6172062e-07
3.2543096e-07
4.0356775e-07
4.6881208e-07
5.7260578e-07
6.4549341e-07
7.6793471e-07
8.505285e-07
9.9107273e-07
1.0861671e-06
1.2476594e-06
1.3539671e-06
1.5202879e-06
1.6704732e-06
1.8630246e-06
2.0444489e-06
2.2485439e-06
2.4671167e-06
2.6606774e-06
2.980729e-06
3.2507623e-06
3.575174e-06
3.914218e-06
4.231205e-06
4.6546523e-06
4.9662064e-06
5.4554568e-06
6.2713497e-06
6.7268467e-06
7.4961767e-06
7.7445447e-06
8.6427415e-06
9.004388e-06
9.6535427e-06
1.0126512e-05
1.049174e-05
1.149137e-05
1.1649997e-05
1.247975e-05
1.3140673e-05
1.3050707e-05
1.448038e-05
1.4598939e-05
1.3824274e-05
1.4755795e-05
1.512164e-05
1.4438082e-05
1.4685173e-05
1.4359893e-05
1.455856e-05
1.3874213e-05
1.4865054e-05
1.4492634e-05
1.4283971e-05
1.3166157e-05
1.2958873e-05
1.2209553e-05
1.1802452e-05
1.0557567e-05
7.2149536e-10
8.4749723e-10
1.202362e-09
2.3501214e-09
4.7959463e-09
9.1935032e-09
1.633312e-08
2.7263378e-08
4.3048811e-08
6.6904099e-08
9.7617931e-08
1.4770171e-07
1.9483444e-07
2.7430828e-07
3.3824217e-07
4.492195e-07
5.3007207e-07
6.7040667e-07
7.6840067e-07
9.2292941e-07
1.072675e-06
1.2191977e-06
1.4264592e-06
1.5786764e-06
1.8394278e-06
2.0258444e-06
2.3342807e-06
2.5436605e-06
2.8968967e-06
3.2832652e-06
3.672603e-06
4.0780231e-06
4.553618e-06
4.9837197e-06
5.5672163e-06
6.5516198e-06
7.1441955e-06
7.8354585e-06
8.8064482e-06
9.4178837e-06
1.0570989e-05
1.0987143e-05
1.2142379e-05
1.2359688e-05
1.3739278e-05
1.387777e-05
1.3817636e-05
1.5168682e-05
1.4679894e-05
1.4328405e-05
1.3302319e-05
1.4019349e-05
1.329432e-05
1.3400744e-05
1.3114299e-05
1.1408662e-05
1.2115786e-05
1.1457492e-05
1.0980261e-05
1.0028037e-05
9.9022488e-06
8.3062046e-06
8.2874444e-06
7.4232672e-06
7.0520971e-06
6.3745362e-06
5.9908241e-06
7.56457e-06
5.4774672e-06
5.3447054e-06
4.1892304e-06
4.3108571e-06
3.745809e-06
3.2374377e-06
2.7092048e-06
6.9053116e-10
9.8353915e-10
2.405646e-09
5.8618416e-09
1.2402492e-08
2.3352482e-08
4.0480021e-08
6.5870195e-08
1.0118922e-07
1.5793676e-07
2.1906805e-07
3.2152825e-07
4.085912e-07
5.5367433e-07
6.68303e-07
8.6391978e-07
1.0037038e-06
1.2474785e-06
1.4198676e-06
1.7190849e-06
1.9365252e-06
2.2889364e-06
2.6044202e-06
2.9479183e-06
3.5208606e-06
3.9083458e-06
4.5646285e-06
5.0116017e-06
6.1771552e-06
6.9867973e-06
7.8022781e-06
8.8431501e-06
9.8456443e-06
1.091736e-05
1.1929911e-05
1.2738995e-05
1.3503005e-05
1.3778358e-05
1.475573e-05
1.4572024e-05
1.4784363e-05
1.3545987e-05
1.3605357e-05
1.234405e-05
1.3356815e-05
1.0684094e-05
1.1975421e-05
8.9046667e-06
8.1135767e-06
6.7383887e-06
5.7834198e-06
5.759468e-06
4.3461905e-06
6.202536e-06
4.5755721e-06
3.3783873e-06
5.1059815e-06
4.1599982e-06
3.069768e-06
3.6788897e-06
4.0274902e-06
2.5489284e-06
2.9498234e-06
2.6030646e-06
2.292283e-06
1.987522e-06
2.5999326e-06
3.0383419e-06
1.5656727e-06
1.3575441e-06
1.1748817e-06
1.3652645e-06
1.2947348e-06
1.3161556e-06
1.2652011e-06
6.7590663e-10
1.9276402e-09
6.1522361e-09
1.4906912e-08
3.0614845e-08
5.563366e-08
9.3396765e-08
1.4802517e-07
2.2024221e-07
3.3823892e-07
4.4923541e-07
6.3685528e-07
7.8800946e-07
1.0319524e-06
1.2444005e-06
1.5705597e-06
1.8220702e-06
2.2707486e-06
2.586123e-06
3.1841192e-06
3.6297751e-06
4.4041244e-06
4.9716626e-06
5.9955018e-06
7.31092e-06
8.1306849e-06
9.6164791e-06
1.0563839e-05
1.2329802e-05
1.2762023e-05
1.3454311e-05
1.4254753e-05
1.4503637e-05
1.4252805e-05
1.3571271e-05
1.1945641e-05
1.2615456e-05
1.0163658e-05
9.561824e-06
7.8604917e-06
6.6280281e-06
5.4976604e-06
5.2889697e-06
5.3277886e-06
4.7909194e-06
3.2245122e-06
5.3713652e-06
3.0291961e-06
2.0635848e-06
1.7712497e-06
1.8941571e-06
1.9667032e-06
1.8879978e-06
2.1718089e-06
1.4800204e-06
1.342903e-06
2.4762768e-06
2.3235257e-06
1.5563237e-06
2.1106704e-06
2.4179902e-06
1.4897146e-06
2.2486e-06
2.1705622e-06
1.8848543e-06
1.6753314e-06
2.3684938e-06
1.8953419e-06
1.0286176e-06
9.1477645e-07
8.6996663e-07
9.7500144e-07
1.0057275e-06
1.1975342e-06
1.2578232e-06
6.523681e-10
4.8924725e-09
1.5462678e-08
3.5894663e-08
7.0654065e-08
1.2344673e-07
2.0056205e-07
3.1072704e-07
4.4436216e-07
6.6187455e-07
8.5284105e-07
1.1741224e-06
1.4357665e-06
1.8532104e-06
2.2971057e-06
2.7816784e-06
3.3346035e-06
4.2472003e-06
4.8566006e-06
6.3437789e-06
7.3100078e-06
9.1241136e-06
1.0186481e-05
1.2030662e-05
1.2707583e-05
1.3253091e-05
1.3749056e-05
1.4194137e-05
1.2915785e-05
1.1731725e-05
1.0371141e-05
9.9333327e-06
8.1372808e-06
6.5680418e-06
5.1325873e-06
4.8920578e-06
4.7525007e-06
3.1815658e-06
2.9593738e-06
2.12226e-06
1.7318014e-06
1.5950701e-06
1.774062e-06
2.7667217e-06
1.6646816e-06
1.5549938e-06
2.5233188e-06
1.367098e-06
9.9572285e-07
1.0058407e-06
1.2356913e-06
1.2961273e-06
1.3981228e-06
1.5424241e-06
1.1064206e-06
1.0999421e-06
1.8699243e-06
1.7700732e-06
1.3114232e-06
1.4311507e-06
1.569388e-06
1.2747216e-06
1.5873943e-06
1.4426604e-06
1.9564178e-06
1.6365774e-06
2.1895507e-06
1.3432233e-06
9.3830863e-07
9.7465471e-07
8.9407502e-07
9.2275302e-07
9.7810781e-07
1.1760556e-06
1.2022752e-06
3.4589117e-10
1.2221057e-08
3.6671821e-08
8.1017426e-08
1.5200378e-07
2.5492017e-07
4.0188554e-07
5.9835987e-07
8.3902651e-07
1.207074e-06
1.5365963e-06
2.0897248e-06
2.5672918e-06
3.4211505e-06
4.1887869e-06
5.1534886e-06
6.6186869e-06
8.4244911e-06
9.6750741e-06
1.1966059e-05
1.2489475e-05
1.3871985e-05
1.3503763e-05
1.3009417e-05
1.1100922e-05
9.5996423e-06
8.6077086e-06
8.7150899e-06
4.5638444e-06
4.258316e-06
3.604998e-06
3.28365e-06
2.2478298e-06
1.7159966e-06
1.431021e-06
2.5889656e-06
1.4802219e-06
1.7192529e-06
1.5310444e-06
1.0374447e-06
9.1067846e-07
8.3718743e-07
1.1238679e-06
1.4664104e-06
1.8069899e-06
1.2386976e-06
1.58331e-06
1.1294254e-06
9.1530028e-07
1.0019384e-06
1.2507958e-06
1.2499445e-06
1.3933529e-06
1.294842e-06
1.0827579e-06
1.1151482e-06
1.5252255e-06
1.390511e-06
1.1362187e-06
1.172164e-06
1.2639368e-06
1.4124248e-06
1.6271019e-06
1.5096268e-06
1.2034188e-06
1.2028289e-06
1.8225817e-06
1.0982593e-06
9.0012814e-07
9.534791e-07
9.1152331e-07
9.3658672e-07
1.0022164e-06
1.1017116e-06
1.1436958e-06
1.4569061e-10
2.8624802e-08
8.1394425e-08
1.7084914e-07
3.0525193e-07
4.9191999e-07
7.5889122e-07
1.0737282e-06
1.5252593e-06
2.110014e-06
2.7284537e-06
3.7545053e-06
4.7096177e-06
6.6309472e-06
8.1238177e-06
1.0501014e-05
1.1630357e-05
1.2881883e-05
1.3010961e-05
1.2727777e-05
1.1261777e-05
8.9780673e-06
6.8131539e-06
5.2392303e-06
3.9463371e-06
3.6471976e-06
3.4635057e-06
2.672894e-06
1.321708e-06
1.4812485e-06
1.5587038e-06
1.0733182e-06
9.1483537e-07
5.8473261e-07
6.7674198e-07
1.5271929e-06
7.182772e-07
1.4358428e-06
1.4983759e-06
9.9797444e-07
8.7219378e-07
7.5194069e-07
8.8603788e-07
1.3614519e-06
1.3360167e-06
1.5024877e-06
1.109395e-06
8.7579642e-07
8.873674e-07
1.0385216e-06
1.109388e-06
1.1154189e-06
1.198789e-06
1.1597284e-06
1.0728567e-06
1.0761739e-06
1.3524541e-06
1.2391881e-06
1.0926468e-06
1.0876747e-06
1.1924956e-06
1.5993734e-06
1.5890194e-06
1.5589613e-06
1.4676325e-06
1.1055913e-06
1.5255399e-06
1.014221e-06
9.2256216e-07
9.0310445e-07
9.048274e-07
9.9746509e-07
1.0778359e-06
1.115102e-06
1.1226038e-06
5.3260575e-09
6.4932008e-08
1.7056324e-07
3.3734567e-07
5.73736e-07
8.9204103e-07
1.3275654e-06
1.8918574e-06
2.7223952e-06
3.7008303e-06
5.0012329e-06
7.201899e-06
9.2491047e-06
1.1595686e-05
1.2727892e-05
1.2806761e-05
1.1751394e-05
9.2934404e-06
7.7686647e-06
6.0536538e-06
4.6815661e-06
2.9209587e-06
1.950369e-06
1.5969432e-06
1.4387435e-06
1.8838853e-06
1.7311355e-06
9.9295053e-07
7.7745131e-07
8.2573374e-07
8.2328792e-07
5.5688719e-07
5.5769189e-07
4.3056473e-07
4.6423802e-07
1.067529e-06
6.0324572e-07
7.4181804e-07
1.5068609e-06
9.2505402e-07
6.6373736e-07
7.5200586e-07
8.1184858e-07
1.0837931e-06
9.7321907e-07
1.1675427e-06
1.0982379e-06
8.49277e-07
8.1802314e-07
1.234833e-06
1.1670822e-06
1.2970716e-06
1.2138611e-06
1.0182712e-06
9.4587069e-07
1.1008708e-06
1.37997e-06
1.2252577e-06
1.1069278e-06
1.0784246e-06
1.22086e-06
1.4937495e-06
1.6699972e-06
1.8353982e-06
1.4701203e-06
1.0388589e-06
1.2819109e-06
9.9851955e-07
9.4805952e-07
9.2291079e-07
9.4647407e-07
1.0462944e-06
1.0610049e-06
1.146635e-06
1.1418181e-06
1.7934619e-08
1.3923497e-07
3.3699561e-07
6.2532895e-07
1.0172906e-06
1.5452539e-06
2.279424e-06
3.3491063e-06
4.8974407e-06
6.9605521e-06
9.9011577e-06
1.1585633e-05
1.2322218e-05
1.1986398e-05
9.6454846e-06
6.2333766e-06
4.8128218e-06
3.4485888e-06
3.3255728e-06
2.5939931e-06
1.8685398e-06
8.5562013e-07
6.138402e-07
6.0305052e-07
9.0733782e-07
1.1615744e-06
1.0005642e-06
9.5275667e-07
6.8927531e-07
6.34927e-07
5.9029207e-07
6.9801047e-07
4.9416132e-07
3.8393043e-07
4.0398121e-07
9.7885006e-07
6.3014455e-07
5.1962043e-07
1.3398344e-06
8.0815162e-07
6.0808758e-07
1.0201275e-06
9.4776275e-07
9.9994401e-07
9.6613345e-07
9.1269832e-07
1.0464946e-06
8.0474011e-07
8.2262825e-07
1.7513797e-06
1.461276e-06
1.3849168e-06
1.1720853e-06
1.0677771e-06
9.6260311e-07
1.0081241e-06
1.3175586e-06
1.2692714e-06
1.1735568e-06
1.5528073e-06
1.3033012e-06
1.8243672e-06
1.7221259e-06
1.3214052e-06
1.3456125e-06
1.127991e-06
1.1097982e-06
1.0384688e-06
9.6885051e-07
9.848527e-07
9.9684347e-07
1.0900589e-06
1.1764926e-06
1.1602073e-06
1.1898423e-06
4.9000338e-08
2.8207695e-07
6.260639e-07
1.0934943e-06
1.7261025e-06
2.6217958e-06
3.9785598e-06
6.1750758e-06
9.5399201e-06
1.0915679e-05
1.2070455e-05
1.0683768e-05
7.4040281e-06
5.535908e-06
3.3714384e-06
1.947508e-06
1.6312779e-06
1.4041362e-06
1.3351953e-06
8.1112649e-07
6.6436106e-07
4.1738829e-07
3.7935565e-07
4.9267506e-07
8.5448031e-07
9.0733498e-07
9.9248348e-07
1.4042624e-06
7.6706689e-07
5.8996574e-07
4.8172122e-07
6.8690433e-07
4.932153e-07
3.8443095e-07
4.2728282e-07
9.8332283e-07
5.6130725e-07
4.9862299e-07
6.3397829e-07
6.3889781e-07
5.7851328e-07
8.3809044e-07
1.0755071e-06
1.0346449e-06
1.1147345e-06
9.5815633e-07
1.0370537e-06
7.9798507e-07
8.9526234e-07
2.0128023e-06
1.9533271e-06
1.4487559e-06
1.2062466e-06
1.063677e-06
9.7125885e-07
1.0653832e-06
1.3889676e-06
1.2917701e-06
1.3194606e-06
2.8807308e-06
1.9082485e-06
1.9913497e-06
1.4953671e-06
1.2026337e-06
1.4119526e-06
1.1595531e-06
1.0338874e-06
9.6647327e-07
1.0295837e-06
1.0456072e-06
1.1038711e-06
1.1567742e-06
1.2528409e-06
1.2427094e-06
1.3479324e-06
1.1969332e-07
5.4010819e-07
1.0987043e-06
1.8265115e-06
2.8699811e-06
4.5034721e-06
7.3865072e-06
1.0218148e-05
1.2120211e-05
1.0192342e-05
7.0318573e-06
4.5957585e-06
2.8846676e-06
2.0665114e-06
9.3131945e-07
5.6144183e-07
5.5960196e-07
6.6086249e-07
6.5598516e-07
4.8402318e-07
6.1110442e-07
3.7940655e-07
3.8103578e-07
4.6245778e-07
6.62631e-07
7.9748211e-07
1.3380227e-06
1.5264533e-06
8.2371639e-07
5.9108994e-07
4.8556341e-07
4.9800861e-07
4.5731762e-07
3.9754784e-07
4.3839264e-07
8.7512868e-07
5.3397294e-07
5.1822077e-07
6.7525782e-07
6.7657705e-07
5.289304e-07
8.0053586e-07
2.5058664e-06
1.6150556e-06
1.2661296e-06
9.4020158e-07
9.435204e-07
7.9732139e-07
1.0523796e-06
1.7047675e-06
1.8876642e-06
1.4068898e-06
1.1990896e-06
9.7658787e-07
9.9073092e-07
1.4338321e-06
1.9224683e-06
1.2641447e-06
1.4192091e-06
1.829854e-06
2.0674827e-06
1.9337935e-06
1.560198e-06
1.2126006e-06
1.6210215e-06
1.1885176e-06
1.0301925e-06
9.3367599e-07
1.1712003e-06
1.2049816e-06
1.2309237e-06
1.2296033e-06
1.2502313e-06
1.367768e-06
1.4288768e-06
2.7004693e-07
9.7931803e-07
1.8390801e-06
2.9682069e-06
4.838616e-06
8.2427152e-06
1.0207672e-05
1.0371436e-05
7.8456294e-06
4.515701e-06
3.0899218e-06
1.5176946e-06
9.879513e-07
6.4884585e-07
3.3644677e-07
2.546881e-07
2.8679284e-07
4.7740841e-07
5.4141734e-07
4.1383627e-07
5.6049746e-07
3.7387973e-07
3.933676e-07
4.609892e-07
7.1861715e-07
9.1738301e-07
1.119374e-06
1.34271e-06
8.2364337e-07
6.2618259e-07
5.3744538e-07
4.9290478e-07
4.6477391e-07
4.3636185e-07
4.1935919e-07
6.7785445e-07
5.1802911e-07
5.4603158e-07
1.0483291e-06
7.5602143e-07
5.3677748e-07
1.3147044e-06
2.3732418e-06
1.8261208e-06
1.2485009e-06
8.9350955e-07
8.7494999e-07
8.1194477e-07
9.0565313e-07
1.4841326e-06
1.500922e-06
1.5232425e-06
1.1643268e-06
9.5805519e-07
1.0226613e-06
2.084311e-06
1.771386e-06
1.140619e-06
1.305015e-06
2.173635e-06
1.7021665e-06
1.8063766e-06
1.505002e-06
1.1066169e-06
1.2457034e-06
1.1818332e-06
1.1076057e-06
9.0651979e-07
1.2367641e-06
1.4352209e-06
1.2798772e-06
1.275341e-06
1.3076798e-06
1.4013977e-06
1.3680355e-06
5.7078748e-07
1.69187e-06
2.9722472e-06
4.8365583e-06
8.6189608e-06
1.030898e-05
8.6334426e-06
5.5863783e-06
3.4621466e-06
1.5361425e-06
1.0733997e-06
4.4074285e-07
3.8037919e-07
3.259897e-07
2.7531927e-07
2.1649827e-07
2.2912429e-07
3.8292798e-07
4.5973113e-07
3.9401783e-07
5.3838079e-07
3.8604012e-07
4.9952585e-07
4.612502e-07
8.2529617e-07
1.4741476e-06
7.489561e-07
8.5313824e-07
7.076799e-07
6.4217393e-07
5.4649638e-07
5.1285578e-07
5.0766711e-07
4.8235724e-07
4.2701464e-07
5.8480382e-07
5.188778e-07
6.2573133e-07
9.2543262e-07
5.3511122e-07
5.3935643e-07
1.2385533e-06
1.9752271e-06
1.4987943e-06
9.9349599e-07
8.0227924e-07
8.0369767e-07
8.0868659e-07
8.6365183e-07
1.7308566e-06
1.4000691e-06
1.3969305e-06
1.0375439e-06
9.2915716e-07
1.0288976e-06
2.7483152e-06
2.2554652e-06
1.2594019e-06
1.3225699e-06
1.2969262e-06
1.1696296e-06
1.5487497e-06
1.4006561e-06
1.0736535e-06
1.2642763e-06
9.0835204e-07
1.1282598e-06
9.6274992e-07
1.3758013e-06
1.5273292e-06
1.2947978e-06
1.3211535e-06
1.5722006e-06
1.493897e-06
1.3297108e-06
1.1432344e-06
2.7996205e-06
4.7418539e-06
8.2134867e-06
9.9435845e-06
7.5280356e-06
5.0443389e-06
2.8625611e-06
1.1154485e-06
5.0114307e-07
4.0552155e-07
2.1743088e-07
2.1676763e-07
2.7881891e-07
2.6521419e-07
2.1270212e-07
2.1672511e-07
3.3224607e-07
4.0256922e-07
3.7702174e-07
4.8685134e-07
3.7419734e-07
5.7086445e-07
4.3258867e-07
6.668208e-07
1.3356308e-06
7.1942626e-07
7.7268688e-07
6.9339943e-07
6.3732531e-07
5.5417361e-07
5.5666972e-07
5.4589045e-07
4.882491e-07
4.6862464e-07
5.4517662e-07
5.6626404e-07
6.5870323e-07
6.1082168e-07
4.899725e-07
5.7840611e-07
8.8860056e-07
1.2265684e-06
1.3072241e-06
9.2926934e-07
9.497488e-07
7.9346208e-07
8.5338256e-07
8.6557154e-07
1.399662e-06
1.2548868e-06
1.1630003e-06
8.9861339e-07
8.5613411e-07
9.3612105e-07
1.9324768e-06
2.2098889e-06
1.4221251e-06
1.1095947e-06
1.1088413e-06
1.0928834e-06
1.4104403e-06
1.4301913e-06
1.0037009e-06
1.2780478e-06
9.1460142e-07
1.1405526e-06
1.0359087e-06
1.4416929e-06
1.5274384e-06
1.2605958e-06
1.3102168e-06
1.7313804e-06
1.5159109e-06
1.3317353e-06
2.1953194e-06
4.4701818e-06
7.7456648e-06
9.2595047e-06
6.8060417e-06
4.1959822e-06
2.5114408e-06
1.074075e-06
3.700426e-07
2.4619857e-07
2.1688128e-07
1.9968689e-07
1.9049336e-07
2.7871998e-07
2.6036998e-07
2.0701792e-07
2.1516744e-07
2.9370716e-07
3.666783e-07
3.5217739e-07
4.7419933e-07
3.7319889e-07
4.8721091e-07
4.135357e-07
6.9564385e-07
9.2786349e-07
6.0760471e-07
8.3288481e-07
6.9790836e-07
5.8419246e-07
5.8282692e-07
5.949611e-07
5.7311528e-07
4.6519581e-07
4.4132034e-07
5.0209821e-07
6.2765983e-07
5.8253616e-07
5.1868132e-07
5.1292728e-07
6.0737234e-07
9.2716345e-07
6.2574628e-07
1.2887577e-06
1.0601257e-06
1.0236071e-06
8.0765867e-07
8.8659081e-07
9.3293349e-07
1.0545005e-06
9.7865034e-07
9.9100049e-07
8.802191e-07
8.3445947e-07
1.0300569e-06
1.5290665e-06
1.7637343e-06
1.3643528e-06
1.2787174e-06
1.2208915e-06
1.1612463e-06
1.3525213e-06
1.4420347e-06
1.0171704e-06
1.0784137e-06
9.0805924e-07
1.0266381e-06
1.2140084e-06
1.4447581e-06
1.4312581e-06
1.2684147e-06
1.3190053e-06
1.460468e-06
1.4363463e-06
1.3495855e-06
3.8407321e-06
7.141493e-06
9.5771192e-06
7.1426271e-06
4.0102418e-06
1.9289914e-06
9.7252303e-07
3.8687032e-07
2.4726791e-07
2.3307796e-07
1.8012436e-07
2.0545197e-07
1.9129027e-07
2.6748384e-07
2.5691924e-07
2.0499066e-07
2.1534395e-07
2.6837722e-07
3.3826889e-07
3.5015513e-07
4.9815937e-07
3.6788133e-07
4.2669027e-07
3.729622e-07
6.2854028e-07
7.4352612e-07
5.5909453e-07
8.0528056e-07
6.9515492e-07
5.9933578e-07
5.9044482e-07
6.6436631e-07
5.8090905e-07
4.3666605e-07
4.3794352e-07
4.9662e-07
5.5214066e-07
6.1397801e-07
5.1021466e-07
5.211044e-07
6.0935823e-07
7.9096811e-07
5.9077174e-07
1.2515514e-06
1.0470049e-06
1.069734e-06
8.6850346e-07
9.0581091e-07
9.149961e-07
9.521984e-07
9.4690311e-07
8.8307034e-07
8.4628392e-07
9.8015615e-07
1.0790821e-06
2.025991e-06
1.8107293e-06
1.3888827e-06
1.0782081e-06
1.2676761e-06
1.2712354e-06
1.3836961e-06
1.4195574e-06
1.2201134e-06
1.099253e-06
7.5052543e-07
7.7390379e-07
1.3559851e-06
1.4203269e-06
1.4114918e-06
1.2917055e-06
1.3774008e-06
1.3921571e-06