/*--------------------------------*- C++ -*----------------------------------*\
| =========                 |                                                 |
| \\      /  F ield         | OpenFOAM: The Open Source CFD Toolbox           |
|  \\    /   O peration     | Version:  2.3.0                                 |
|   \\  /    A nd           | Web:      www.OpenFOAM.org                      |
|    \\/     M anipulation  |                                                 |
\*---------------------------------------------------------------------------*/
FoamFile
{
    version     2.0;
    format      ascii;
    class       volScalarField;
    location    "2.9e-05";
    object      p_rgh;
}
// * * * * * * * * * * * * * * * * * * * * * * * * * * * * * * * * * * * * * //

dimensions      [1 -1 -2 0 0 0 0];

internalField   nonuniform List<scalar> 
7500
(
-10299.611
-10343.504
-7796.3245
-7501.7457
-295.09766
2063.2895
6883.3833
4576.9711
3107.6732
1009.0136
1235.097
670.57935
2432.1299
1201.7713
3433.5126
68.46375
2351.5127
1550.3243
-373.922
4116.2038
-4146.2288
6921.5869
-3277.022
7042.2385
-2449.3271
4235.723
-1219.2515
564.98871
1607.3498
-467.75454
4495.4364
-63.652681
7741.649
-2397.7776
7006.9059
-1519.1211
5232.8453
977.62582
2277.6252
2911.6723
289.10455
4301.1605
994.69519
5729.3468
-336.50967
5664.747
809.19075
2550.5352
3381.7503
-2776.415
4290.5406
2307.3865
3040.095
-6083.8369
-7608.0331
3288.8717
11384.508
11349.331
683.75925
3356.5023
10127.917
13315.07
8235.3384
-853.74194
4546.5807
10224.022
8603.0898
7074.1007
7913.7426
13185.216
14466.175
11940.767
10960.227
7393.621
1084.6513
-10687.724
-10725.785
-7041.1464
-6944.0302
-43.855971
1234.4678
6511.1104
4693.3776
3247.2766
1359.3038
1016.3785
837.85651
2134.8483
1440.4612
3118.3084
493.80776
1989.7352
1772.2807
-401.10735
3860.8127
-3676.2294
6361.5932
-2614.6756
6434.9874
-1942.3358
3764.6841
-997.39376
318.20329
1778.1342
-300.70653
4278.4777
240.58735
7159.4106
-1688.1157
6297.7183
-896.3532
4800.5127
1263.7415
2044.7509
2833.4175
677.87501
4007.8057
1334.555
5158.9495
307.25565
5061.3753
1330.2315
2225.5036
2965.4741
-1566.2567
3870.2485
1952.6001
2129.9562
-5174.3981
-6505.0585
2294.1902
11144.991
11082.845
952.15536
4509.1856
10014.171
11474.825
8315.0922
1301.3639
4280.5358
8812.514
8429.9112
7766.6533
8516.3405
12785.07
14356.009
12068.281
10504.009
7351.0888
1318.2716
-10707.974
-11524.931
-6439.5395
-5974.2333
-39.458395
901.41801
5721.4989
4727.2243
3339.5297
1835.5391
766.5347
1146.658
1692.6974
1795.6247
2781.749
698.97119
2025.0977
1423.6584
176.40413
3155.2159
-2903.9535
5581.7164
-1883.7745
5731.6911
-1187.2903
3109.8504
-733.40186
212.24795
1401.1385
627.19393
3361.2246
1180.293
5966.1746
-559.88273
5440.3926
-198.91164
4385.3404
1255.7273
2354.0808
2059.5743
1498.7912
3468.4543
2084.84
4294.7373
982.8216
4632.6297
1605.6912
2229.9421
2085.7194
-150.09997
3486.2606
1716.3092
971.58116
-4801.1618
-4739.1776
1810.1198
10404.688
10112.283
1692.0225
5861.5442
9920.9289
9736.6656
7610.9592
3646.8897
4502.9361
7399.5639
8205.0974
8008.5572
9159.4455
12843.865
14232.183
12179.956
9975.1692
7085.1648
1595.1279
-10680.941
-12223.982
-6109.8511
-4920.0425
123.40993
636.93701
4874.3044
4782.7687
3136.6808
2558.7671
434.40264
1511.0529
1274.4135
2049.8074
2571.4676
759.87115
2156.7328
1025.8898
804.02024
2289.5748
-1754.0106
4387.3896
-782.82566
4713.5841
-273.60069
2586.7596
-708.50349
275.68965
836.75218
1703.44
2324.623
2378.4916
4398.5955
951.41596
4305.9552
618.21133
4053.1239
1095.35
2685.8306
1272.6492
2456.071
2666.8277
3073.7319
3305.337
1722.0629
4174.983
1948.2271
2356.4016
927.90774
1350.133
3207.335
1701.8635
-299.55712
-4865.806
-3004.3545
2167.699
9416.145
8335.4367
3008.2395
7392.0303
9574.715
7965.9508
6824.2782
6093.002
5025.6387
6098.9373
7634.9541
8112.3277
10079.276
13173.986
13998.505
12080.595
9415.2414
6768.0606
1885.7682
-10885.434
-12673.741
-5885.3658
-3931.8809
417.4533
481.19843
3997.9316
4806.8009
2892.6702
3227.7499
197.73262
1848.6591
916.41451
2201.8533
2469.8947
763.05591
2260.8767
743.36344
1253.1748
1545.124
-618.81393
3222.7056
407.15682
3504.3258
760.33179
2037.0329
-695.66631
347.17353
323.99446
2615.5504
1521.3841
3286.8234
3112.8308
2355.5055
3196.6032
1641.0364
3330.8605
1275.3188
2636.8248
759.31476
3429.356
1830.1213
3984.743
2472.9284
2317.921
3642.0001
2486.1529
2261.751
88.241307
2436.6197
2993.4497
1808.7558
-1512.7487
-4653.0829
-1758.5344
3080.2767
8136.6512
6025.8623
4954.2962
8754.5144
9020.8905
6381.8476
6120.4987
8037.8185
5663.1168
5325.738
6919.1868
8053.2581
10962.238
13698.557
13790.336
11807.564
8976.8229
6453.3686
2044.9703
-11466.703
-12892.109
-5594.0521
-2936.6669
613.19522
511.06453
3164.7182
4671.1697
2819.9706
3665.3542
165.37867
2047.6174
710.84501
2252.2073
2386.2026
846.65316
2209.2092
605.81954
1515.4623
986.76476
314.8467
2344.5829
1353.0036
2537.7522
1530.521
1506.4701
-496.03772
139.16872
296.29805
3044.4857
1083.9688
3735.8453
2201.726
3630.8935
2218.4354
2802.5523
2250.6193
1684.9666
2285.0003
526.04092
4160.5845
1449.2384
4465.2457
2033.9265
2690.9017
3027.5167
3236.8291
1569.5377
87.235312
3013.8252
2544.0947
1674.9827
-2450.3679
-3687.5515
-926.02681
4272.0252
6411.5629
3702.6789
7519.2565
9469.9256
8042.2719
5597.7124
6079.7063
8799.9238
5981.854
5132.5525
6409.7688
8180.8619
11565.606
14222.587
13653.92
11198.717
8734.0312
6386.7889
2065.4717
-12354.435
-12819.719
-5259.631
-1917.0895
658.93388
542.47031
2509.0029
4402.7603
2827.358
3989.2
267.13641
2089.9455
668.12848
2206.1493
2316.1894
979.93131
2088.3711
502.61141
1668.0049
612.08602
941.87159
1933.1601
1828.9198
2043.5492
1942.8536
910.7647
-38.976023
-340.80464
783.34864
3045.4105
884.73324
3825.423
1599.5979
4663.6634
1644.6651
3696.4712
1324.0001
1910.5315
1785.7971
663.63869
4417.4277
1666.1232
4511.1687
1926.6371
2903.1816
2528.7599
3858.2473
689.13869
786.51608
3149.4707
1979.4518
800.87447
-2983.4556
-2121.0545
-336.24942
5614.9978
4207.5209
2158.4044
10245.832
9267.3318
6477.4008
5660.2039
7018.4979
8601.7531
5894.9083
5058.0714
6174.8425
8855.9442
12139.846
14620.139
13392.865
10254.523
8667.0408
6569.7672
1987.3519
-13361.915
-12470.454
-4907.5274
-1023.3382
643.2527
499.01897
1980.0511
4156.5347
2833.0047
4235.9754
435.25183
2041.1747
708.38663
2086.3797
2353.5084
975.20954
2116.9887
382.87126
1613.3558
603.1349
1109.4593
1940.5662
2082.2632
1719.8776
2268.7181
205.34421
302.69411
-558.7649
1407.9213
2768.5888
907.10192
3429.092
1527.1107
5225.7126
1653.3595
4155.7571
750.23116
1770.2595
1278.4493
1076.5693
4349.0244
2158.659
4240.7565
2287.7444
2804.5197
2535.1381
3688.8016
484.90328
1885.4217
2653.306
1465.7435
-855.08028
-2932.8051
-568.25317
548.03355
6584.377
1513.2384
2556.3576
12329.683
7761.5633
4913.0368
6688.088
8093.1001
7571.6142
5873.7799
4881.3088
6210.2224
9992.8548
12808.982
14824.1
12839.118
9272.9069
8976.224
6930.6699
1734.867
-14375.322
-11971.297
-4464.4133
-402.62211
617.44482
444.66191
1505.2829
3980.5728
2867.5397
4382.1594
635.57723
1958.1448
818.57842
1873.1914
2499.142
897.59174
2123.0472
452.38171
1294.6204
814.69083
1142.3316
1910.4206
2513.6757
1469.4665
2324.6245
-314.30512
208.07784
-406.71541
2266.475
2180.2366
1014.2724
2740.7666
1791.9667
5435.574
2252.688
4193.7771
534.74219
1215.1366
839.384
1736.1127
3894.6663
2833.4794
3701.9038
3015.7589
2711.4306
2857.7598
2578.8278
1279.6305
3129.4996
2003.0212
541.85747
-2816.528
-2137.8007
23.890304
2547.1979
6371.8982
-1577.1948
5837.1531
13172.699
4502.06
4069.304
9025.3744
8627.1788
5778.1215
5753.8717
4615.1052
6618.693
11476.54
13843.596
14616.387
11987.714
8400.7155
9545.0907
7519.4068
1650.0552
-15417.408
-11413.797
-3895.5485
-46.13485
549.92529
416.85457
1136.566
3807.5562
2967.2116
4434.0923
861.16581
1843.9722
999.92551
1642.3206
2537.4164
1049.3528
1823.6701
697.4188
1058.8194
789.53588
1367.0706
1768.9111
2957.6452
1616.6457
1916.8046
-758.17982
-45.664367
-125.65322
3377.0199
1613.1536
853.82926
2068.6338
2148.2151
5301.7883
3306.3595
4145.5859
456.64609
528.67134
270.14817
2689.2491
3219.1015
3116.2785
3554.8322
3248.4536
3461.468
2964.717
887.7767
3282.4682
3787.0657
1868.409
-1115.0001
-4623.3048
-675.24342
-829.19518
6036.6896
4615.1529
-4560.6452
12211.761
12278.617
44.551485
4270.3046
11609.14
8455.2205
4077.1385
4791.7696
4199.4634
6726.4836
12918.377
15627.712
14018.8
11216.609
7823.218
9913.7687
7920.5503
1942.1187
-16520.755
-10818.668
-3258.4096
135.38795
432.09801
398.79488
923.13556
3604.5359
3144.2308
4347.8831
1156.3648
1692.8585
1163.6961
1585.1016
2295.6022
1445.7661
1439.5219
724.04457
1173.6747
569.4127
1473.9246
1855.9713
3235.7448
2108.7763
1430.0905
-1486.9526
-355.85149
358.27811
4525.3717
1175.8243
539.15776
1374.7376
2559.6064
4969.0243
4160.2599
4479.6833
433.69422
-73.48415
-303.7377
3398.5736
2989.7082
2386.4684
4005.7437
2545.6126
5055.3333
2635.7579
-722.39428
6146.673
3321.0004
2185.4631
-3543.0619
-5452.5568
118.21036
-1857.3842
9414.779
1225.4003
-5964.3235
19997.761
9673.2922
-3445.5454
5268.9084
12657.337
7747.0835
3234.65
2963.1431
3644.9562
5692.4224
13507.545
16375.294
12461.524
10818.208
7558.9501
9621.0273
7871.7556
2636.2103
-17636.085
-10175.546
-2630.1179
201.22227
305.47281
370.87118
824.5176
3390.806
3403.2308
4101.0004
1498.2904
1577.4429
1225.9173
1703.557
1988.579
1727.8861
1321.6953
440.88621
1348.4758
599.03265
1154.9824
2163.5537
3537.3354
2663.7786
1033.9212
-2260.0398
-998.00538
979.26383
5895.4247
597.37861
302.51498
708.26932
2780.6289
4729.7525
4356.905
4938.162
725.31965
-554.88842
-682.32535
3626.429
2860.6126
1198.0405
4359.0566
1192.0246
6851.9119
1896.7624
-1286.6291
8469.3986
1755.9492
2490.7111
-6617.827
-4904.8095
-1802.4054
-1089.9827
7992.7636
-1691.8581
-3912.8855
21748.981
10770.885
-2247.4377
5199.4927
12034.499
7616.9805
2651.3711
2379.4366
3376.8152
4931.6645
13938.74
15941.375
11988.858
10982.509
7231.8885
9234.3858
7319.5175
2500.4056
-18713.628
-9484.3349
-2056.7295
173.65582
194.09056
346.63693
769.06488
3213.2975
3678.6758
3810.0411
1764.6628
1539.903
1282.9604
1721.841
1958.6216
1758.9063
1318.2514
256.80272
1243.1263
877.24246
696.6291
2384.3534
3845.2655
3439.5759
391.37523
-2677.9923
-1980.3133
1260.7104
7556.3949
-32.028229
180.05561
108.61708
2728.6473
4347.6439
4050.5676
4708.4896
1327.6073
-548.62517
-1127.2196
3638.601
2106.7625
-40.862603
3789.0491
-168.75022
6619.3871
3218.2805
181.33471
8493.2366
1789.8341
1847.3109
-7311.7128
-4602.9182
-2893.4398
21.234936
6080.3423
-4585.4054
-2000.0808
18702.786
11371.935
52.05174
5452.273
12977.556
8516.0192
2846.1602
3010.036
3465.8093
4894.7238
14610.669
15474.998
12293.722
11609.963
7146.9796
9671.7288
6963.6454
2410.8454
-19735.757
-8763.1234
-1547.8103
71.529568
115.10241
319.32579
728.55646
3143.386
3833.3223
3625.2352
1927.0308
1461.4918
1521.1907
1485.7303
2132.2902
1852.9027
1083.3923
331.34858
1017.839
979.91379
424.18501
2482.9553
3716.8451
4582.6241
-475.80188
-2793.1738
-3113.1407
897.33299
8562.866
-366.60472
279.3891
-485.59261
2513.9586
3540.3569
3090.867
3247.9319
2695.124
251.84035
-969.47268
3601.9734
1960.9136
-164.65024
3197.2797
-1011.7606
4479.5574
3502.7563
2262.7201
8747.2344
2712.7658
3096.4135
-7315.498
-4029.9832
-2639.872
1171.8089
7261.2005
-6746.781
-1178.4626
21558.757
7337.4754
1677.2236
5979.586
9980.4657
7853.6587
3149.6254
3031.7799
3147.5086
5076.5629
15363.989
15029.552
11677.375
11324.219
6866.2031
9584.8301
6826.6585
2459.6975
-20702.404
-8009.3277
-1114.5253
-66.189649
97.202335
247.11291
684.9323
3259.5314
3792.134
3511.8095
2159.367
1188.9882
1907.3149
1256.0273
2093.7383
2227.991
677.06594
391.76015
818.48121
733.70158
236.98379
2624.3663
2748.6626
5310.9391
-980.17916
-2724.3206
-4187.8029
-93.500131
7731.7941
-33.28417
1145.2902
-100.57326
2627.5512
3415.2778
2636.3461
1258.8488
3196.743
1444.9413
-438.22201
4407.4807
2214.6125
1143.7851
3651.8824
-1028.9681
4812.1106
2259.8579
3301.9471
8258.1387
324.60879
3012.6114
-7404.3087
-4409.2549
-4055.2317
832.68191
7034.1973
-5989.5271
-1878.2276
19271.309
8645.0636
825.03915
5282.1566
10959.39
7592.4676
3047.0908
3345.9275
2568.0129
4336.7733
14830.556
14716.276
11741.126
10929.728
7021.4965
9215.3191
6430.6747
2332.0011
-21584.925
-7218.3894
-785.98145
-195.79853
148.95055
131.88565
566.86894
3604.9783
3642.2204
3246.1067
2650.3372
752.14999
2143.5625
1332.8469
1729.1377
2500.6893
424.72728
326.41461
233.82412
246.87588
16.944033
2833.1343
1032.616
4658.1645
-217.82426
-2050.6496
-4197.7111
-18.983846
6788.1019
-293.77496
1929.6237
767.25772
3237.7092
3859.2281
3163.7174
1147.7966
3235.0534
1453.4026
-1181.2553
3979.8202
1137.217
-216.72331
3248.8772
-1442.7009
4614.6435
2447.1971
2724.2099
9297.5983
1008.6494
2103.8396
-7544.9851
-3822.1346
-3492.3485
1617.8022
6049.0911
-7279.7293
-1767.4882
18259.223
8477.0348
1742.61
5864.3677
9448.0689
7349.718
3487.3501
3755.1587
1838.3284
2899.8916
14608.918
13395.744
11151.311
10593.682
6505.3792
8420.5419
5809.4378
2166.0497
-22334.408
-6432.0041
-549.06086
-337.51497
294.60501
-4.6946122
328.31075
4110.9979
3575.1564
2678.854
3284.0308
412.39401
1888.3732
1562.74
1451.2518
1796.5811
499.74514
308.3919
-931.58036
-537.94368
964.78133
3354.2661
839.33014
3685.5614
324.16793
-1036.0985
-3689.5817
768.23504
6980.6151
-595.50534
2046.486
-149.76987
2787.8815
3182.8304
2425.0468
1104.8549
3517.3309
1939.3232
-397.29899
4060.2828
1472.7183
350.78348
3426.3292
-1005.4207
4032.3224
2420.1644
3552.5655
7686.1619
-19.631268
969.31472
-7353.1179
-4170.333
-4649.9763
-138.87069
3561.4162
-7298.7681
-2868.4907
12568.153
5326.2758
2902.6054
6108.3924
9239.0009
7047.1627
2630.2896
4023.2313
1779.8866
2450.9188
13804.793
12213.191
10839.142
10575.584
6602.5422
7459.0597
5236.581
2031.796
-22990.525
-5692.2438
-372.79111
-549.84879
583.30968
-212.71376
80.436435
4514.8731
3808.3668
1846.0782
3631.7156
457.09901
806.03446
1617.7122
1499.7711
61.141539
938.41035
1082.0822
-873.57279
-1226.9569
1819.3571
4153.2097
1454.0365
3712.1594
45.662197
-1684.1749
-4631.0466
62.094198
7044.6387
-716.92468
2220.5545
439.29817
3050.6322
3358.0414
2600.9912
962.50804
3121.0245
1435.4135
-938.552
4050.5898
1190.906
-721.63327
3843.233
-1369.5505
2826.1454
2778.4353
3457.3851
6125.2434
-453.04986
315.74061
-6922.6708
-4450.1959
-5139.8884
122.112
1777.5216
-8624.5905
-396.8539
9210.1365
7620.2384
3947.7531
6024.6823
7900.3849
7436.3808
3922.5527
3948.8316
2431.3058
2583.7447
12313.99
11137.832
10017.686
10291.042
6219.3333
6356.5239
4736.8407
1971.8868
-23621.316
-5000.1901
-281.34396
-814.63476
974.88431
-520.86696
-21.279778
4450.4049
4481.5494
750.32876
3419.4729
774.48521
-870.25482
1518.7021
2369.3173
-287.27528
1060.5978
1967.2768
-122.71777
-1349.7374
1670.4714
3738.9412
707.07299
3428.1984
71.274519
-1292.171
-3931.1262
151.56722
6435.6928
-564.95947
2088.763
-324.92051
2807.1102
3218.5439
2670.7026
730.28276
2884.5244
1517.7803
-510.85886
3926.5944
1213.2844
-617.17982
3986.4288
-1257.8288
2002.9458
2753.6383
3198.4559
4530.5193
-656.80829
-169.74457
-7109.3579
-4395.4284
-5386.4296
-444.46346
-1109.9337
-9105.3207
-1479.3875
9796.7854
8334.2401
4239.5624
5210.658
8135.7546
7636.3703
3642.8338
3703.799
3934.8199
3711.7479
11400.211
10594.419
9223.8869
9884.9704
5958.5326
5426.9719
4184.8253
1870.8298
-24235.173
-4310.6699
-339.1739
-1015.4268
1274.3818
-735.24551
-100.41636
3840.568
5280.8914
-377.70958
2714.4552
1597.1315
-907.01495
1415.5119
3259.4738
120.00252
950.80098
1381.7595
-1149.3231
-1638.1977
1904.9656
4157.7535
913.35696
3381.3464
24.744543
-1429.8917
-5018.0482
-480.38505
5646.6362
-1083.639
2035.0775
40.975557
2683.8535
3076.6869
2838.7726
933.04048
2314.409
1841.1415
-250.70419
3211.8978
965.39276
-952.87719
3945.7775
-787.29451
1771.2988
2620.7968
1965.8054
2664.94
-828.90804
-687.85256
-7377.6564
-4069.8734
-5243.3927
-2966.5208
-3661.7362
-9250.3543
-3405.0263
9414.0321
6181.3894
4296.6466
4157.2427
6388.8349
7558.6505
3802.6811
2673.6994
4174.1384
4397.8182
11145.675
10630.128
8689.1578
9537.363
6187.3455
5165.1077
3965.311
1893.8869
-24771.087
-3560.8192
-575.98915
-1052.6612
1248.0862
-519.99273
-562.93818
3025.5891
5355.38
361.44355
2347.0668
2561.2287
-378.07585
1310.7345
2729.8326
-321.79167
795.48143
1737.5881
-788.76654
-1670.7828
1817.4665
4028.0539
785.9578
3323.6991
57.194245
-1184.9536
-4799.7688
-1299.3283
4897.3121
-428.11456
1697.5886
-215.5192
2392.0311
2845.793
2555.3405
139.17917
1756.0051
1857.6221
-178.20712
3043.6052
923.52864
-739.74027
4070.4026
-606.25263
1153.0317
2403.6413
1341.9448
650.07343
-1655.2293
-1784.707
-7659.0778
-3508.8132
-4757.7613
-3923.3113
-4836.6196
-8950.7175
-4186.103
9162.4929
5482.6884
3722.9993
3068.645
6702.8471
7758.5804
3832.0011
3782.0945
5332.4851
5058.2169
10834.855
10143.559
8291.8133
9165.3705
6094.3092
4701.5064
3733.9113
2057.0725
-25164.483
-2721.5325
-888.2148
-948.37993
838.06464
143.97036
-1384.9704
2705.1609
5346.8808
1517.6529
2358.4141
2181.4185
-785.01433
1227.4949
2913.3925
-214.42303
769.41276
1664.6557
-978.70129
-1863.2003
1678.8998
3907.2342
801.96612
3265.5313
167.94084
-1169.8797
-5121.5544
-2129.1519
4167.0305
-762.2459
1529.2269
-364.74244
2262.5587
2711.8506
2786.1694
246.48637
1552.1608
1743.5915
-50.005885
2841.1568
1053.979
-919.13373
4259.0534
-460.33538
939.41481
2178.4213
1046.6038
-728.48913
-2355.1122
-3077.5039
-8076.5138
-2842.7643
-4330.1552
-2983.4591
-5230.9831
-10370.818
-4596.4553
10081.854
4423.8546
3663.6168
2905.5243
5036.9205
8078.3242
3535.3602
3964.9306
5196.4302
5225.7939
10310.733
9767.9261
7854.0699
8761.5793
5721.2861
4187.2701
3576.2585
2340.9334
-25484.023
-1808.0155
-991.74792
-810.53301
277.51421
579.14178
-797.55062
2836.9324
5416.5024
1231.4493
2140.4761
2223.0759
-618.56446
1182.6537
2733.9722
-267.16314
741.28517
1765.1792
-884.16665
-2020.752
1479.5629
3699.0509
713.02943
3053.2405
336.94579
-927.55708
-5048.9613
-2631.0345
3578.2398
-682.70608
1422.1433
-499.67196
2155.1717
2470.4811
2414.6124
165.92199
1490.1659
1639.7053
166.76382
2568.4126
1231.0126
-777.67521
4574.7039
-0.35480881
1143.5451
1744.229
763.33523
-811.90421
-2440.6336
-3206.4832
-7312.992
-2339.1703
-4220.7224
-2257.9307
-3510.3514
-11138.503
-4632.8882
9941.7482
6436.0152
3950.279
3753.2076
5525.7391
8435.6923
3801.5719
4927.6684
5687.0136
5348.9656
10706.72
9246.387
7492.121
8378.6505
5206.8907
3729.388
3397.9746
2425.8287
-26122.011
-886.10439
-515.12474
-744.64209
42.471054
674.61757
214.67002
2649.1737
4987.979
1251.7707
2180.1609
2170.6936
-712.14674
1153.2263
2567.524
-289.58236
699.03555
1681.9181
-1050.8637
-2130.1477
1302.03
3510.6945
719.96281
2909.322
452.03333
-772.66568
-4456.7224
-2361.8121
3083.4211
-741.51294
1350.3836
-625.19733
2040.7149
2232.5409
2169.1632
-32.355012
1624.0732
1476.9135
145.30005
2392.1448
1370.968
-756.87276
4386.8487
859.32266
1401.1867
1039.6769
617.35346
-396.97639
-2438.8781
-2634.1956
-5972.9199
-1765.2
-4334.0002
-1795.3178
-225.16749
-7516.8359
-3135.6245
6058.6324
6058.1996
3762.3691
3910.2192
4436.052
8809.6486
4464.4019
5260.8946
5369.269
5503.9837
9995.7047
8364.8238
7225.3553
7993.1239
4607.3996
3355.861
3124.9967
2328.0559
-27775.216
-49.358597
558.98959
-732.1475
274.65732
678.34837
48.874458
2701.3116
5029.6247
1245.162
2156.1563
2104.9271
-672.9173
1125.2268
2375.1742
-338.07699
634.98091
1626.5051
-1180.3001
-2225.0542
1120.3764
3267.3303
643.24573
2677.6187
518.4217
-677.86284
-3558.1713
-1863.3883
2712.161
-1123.6671
1293.0979
-677.47271
1970.5173
2022.7812
1768.3434
-309.97975
1874.7396
1520.0127
321.01357
2212.4723
1429.8466
-1417.365
3902.0229
1038.9835
1106.0427
269.90373
-137.50801
-881.0426
-2646.5058
-2296.5618
-5475.9489
-1720.4774
-4503.2052
-1227.2316
-349.71625
-6257.1211
-1762.0923
5668.3693
6199.4279
3411.9215
2275.2437
3672.2503
9329.603
5065.2964
5137.8302
5445.274
5732.1158
10099.813
8898.4549
7040.7658
7680.3026
3928.6953
2873.1075
2890.2084
2256.7794
-30233.165
438.57831
1184.0234
-519.55045
335.03879
508.97872
32.038055
2675.2967
4970.0074
1235.3874
2182.794
2014.1175
-730.5254
1090.7668
2201.416
-383.21696
553.05589
1508.2513
-1345.0888
-2270.8951
943.35258
3090.9068
580.30815
2477.731
513.21958
-687.19701
-2913.5168
-1432.5793
2346.2357
-1294.0365
1302.9359
-632.06409
1929.4533
1863.3593
1426.3423
-628.48889
2042.8575
1541.9585
387.59102
1949.5256
1467.0934
-1691.7308
3541.9085
848.69447
619.05036
-286.74889
-1042.2904
-1182.1417
-2732.821
-1983.6573
-5510.9999
-1541.7656
-4268.9893
-2571.5745
-1644.8095
-5353.0838
-2367.5197
4254.1852
6678.3672
3495.3136
1304.7113
3125.2896
9066.3941
5312.674
5324.0513
5245.0509
6128.7399
9748.9975
9119.4327
6789.2508
7226.0537
3561.3602
2493.7134
2633.7995
2158.7612
-30031.971
-395.14731
614.27773
-171.70462
311.41005
456.45536
0.010041884
2634.1758
4887.3707
1218.3949
2146.391
1906.8765
-722.23331
1049.7495
2047.0344
-431.74241
459.50982
1382.9406
-1541.2499
-2304.5208
745.16375
2924.6317
551.63037
2417.7571
541.06704
-722.01814
-2411.5575
-1065.0626
1918.1793
-1460.4219
1278.9017
-553.50561
1861.4959
1700.6406
875.94047
-969.08588
2459.8346
1480.377
595.19171
1800.6978
1427.3965
-763.17501
3175.0552
509.45687
502.88203
-611.76795
-1417.6053
-556.12238
-2567.8957
-1603.727
-5392.1073
-1373.5207
-4645.2563
-3590.5498
-2805.0721
-6262.0558
-3765.3769
6806.923
7429.2611
3096.5789
21.79874
2392.0543
7954.6656
4880.9301
5851.5338
5337.6792
5908.795
9132.3771
8927.8748
6487.7757
6585.2086
3577.276
2392.5481
2293.2296
2056.8711
-20858.896
-2826.9866
93.549628
-9.7333026
318.78397
452.07882
-1.0615729
2601.9696
4764.9443
1186.8173
2095.3983
1789.3016
-766.54806
1000.4145
1923.296
-473.24005
365.98427
1254.3897
-1749.4276
-2323.8138
530.35639
2775.5552
499.30927
2388.2
496.78063
-796.97048
-1974.4393
-749.40232
1518.6374
-1520.8542
1293.228
-345.94034
1801.4257
1616.0514
274.60198
-1613.711
2371.5235
1475.1974
705.35873
1594.2
1425.3623
-1124.8089
2676.137
219.82551
410.38139
-1036.0629
-1658.4656
508.09454
-2334.2586
-1403.2121
-5274.6757
-1224.6988
-5182.685
-3535.3825
-2649.9398
-9455.81
-3323.6495
9394.592
7526.2563
2523.0112
-893.68505
1487.7678
7592.2707
4356.5295
5967.9339
5315.4223
5747.5032
8447.1414
8402.6401
6066.009
5808.3297
3442.6036
2395.0747
1825.6422
1915.0562
-3048.5893
-3800.6173
3.3700248
-112.38258
317.93908
463.17507
6.724691
2575.6114
4627.4242
1146.7419
2020.1271
1661.0213
-784.93308
939.3338
1827.1707
-509.99793
273.65554
1123.3117
-1989.6533
-2410.8853
321.92117
2680.8027
461.70995
2420.1456
391.96889
-833.92472
-1616.7061
-435.5572
1188.8392
-1575.832
1297.1933
-72.830294
1741.9478
1530.8011
-403.09104
-2477.6432
2586.118
1456.1665
848.88974
1488.5109
1478.9597
-666.18706
2246.7665
20.940169
604.30048
-1476.9682
-1806.1075
1030.5477
-2242.7129
-1254.8934
-5254.3662
-1177.159
-5660.0542
-3510.6025
-1954.3226
-9478.427
-2627.4441
10649.255
8698.5706
1938.7572
-2953.8014
53.663251
7275.798
3760.6433
6186.1316
5159.8929
5579.6886
7729.2926
7911.5697
5550.766
5268.4082
3042.989
2309.4148
1434.2742
1836.7802
1116.6961
-2254.0512
-56.656305
-147.53897
322.2063
477.74063
13.760384
2542.1063
4480.1778
1110.0171
1954.9442
1518.7627
-828.71891
862.13577
1755.1655
-535.3496
186.01466
997.8864
-2191.0606
-2492.8855
141.35521
2611.373
491.83811
2427.6029
163.1562
-876.66712
-1333.8598
-209.53058
1094.6642
-1646.9437
1297.6077
293.20178
1661.2769
1443.678
-1183.8971
-3424.5763
2639.4614
1400.7881
906.46616
1376.7915
1494.295
-1030.9279
1811.5826
-37.295209
822.50085
-1671.4299
-1788.9029
1022.3622
-2379.145
-1122.135
-5077.8505
-1378.6565
-5749.088
-3463.6455
-1449.0798
-7532.5655
-2096.1194
10056.13
9395.4386
1343.5933
-5190.4392
-1743.1132
7254.2235
3332.0023
6069.0617
4987.0273
5414.5659
6779.9344
7183.6314
4879.0022
5131.0308
3056.9626
2207.0088
1070.3612
1783.0483
-8099.7342
-1311.607
-6.8152304
-149.07992
323.34892
490.29285
17.027761
2491.129
4331.2107
1083.0392
1891.9466
1364.8362
-868.29485
765.12505
1697.7693
-553.3954
116.22109
881.14012
-2389.4441
-2577.8419
-20.241127
2551.4698
502.75507
2367.9243
-169.57286
-924.14347
-1132.019
-22.733451
1197.2135
-1646.5569
1396.4817
581.32542
1572.806
1403.5172
-2049.4978
-4605.5792
2586.5747
1275.6833
939.968
1283.1544
1437.3779
-922.54952
1491.5079
-209.07291
902.15988
-1694.6318
-1522.6364
1040.2996
-2478.373
-1205.4673
-5035.4377
-1864.4657
-5490.4276
-3278.6412
-1574.4258
-7676.3895
-1639.9413
9731.4596
9720.4168
862.13931
-5092.5345
-1997.3577
8274.595
3439.4731
5235.9551
4634.068
5329.3779
5520.4633
6372.6231
4308.2051
4856.4407
3191.6011
2014.1409
775.2816
1763.7526
-8126.8134
-1533.7325
11.02804
-141.00483
324.16121
499.385
16.305507
2425.5809
4180.8189
1060.6015
1826.0508
1207.34
-925.07004
643.4951
1650.6946
-557.64162
10.638667
767.0726
-2580.6248
-2687.2991
-193.91259
2517.3017
527.44287
2321.9741
-430.61807
-990.20102
-990.41405
113.11539
1488.1552
-1439.7575
1573.3994
815.74635
1500.0739
1343.1216
-2727.0981
-5928.5002
2578.4164
1117.445
894.54752
1212.568
1385.6073
-930.83537
1231.9865
-214.37368
935.82082
-1683.7272
-1236.2662
1136.2154
-2229.5161
-1107.1726
-5020.6015
-2055.9093
-4927.6413
-3367.3757
-2457.4746
-7498.9424
-1024.1783
9759.9443
9749.966
-125.6712
-6850.3788
-2169.5691
9183.305
3152.2222
4536.3311
4082.7677
5163.8632
4357.4118
5451.06
3739.5015
4546.0599
3178.7743
1666.4496
409.71053
1750.4487
-7870.5691
-1409.219
26.003716
-131.17472
323.48654
503.83914
12.486552
2348.2151
4023.343
1034.357
1742.8991
1074.0899
-974.14905
505.91971
1598.9581
-539.76309
-101.26526
643.14594
-2718.6997
-2814.8177
-350.30825
2494.8574
472.84554
2310.6866
-512.40948
-1074.3617
-908.97328
195.83544
1570.106
-1423.304
1796.3585
1220.7361
1462.5999
1269.3384
-3298.0403
-6931.093
2461.5165
853.8496
894.48656
1119.8901
1207.4712
-735.40604
1060.6102
-245.88036
1017.5596
-1766.7172
-473.13691
1452.5199
-2086.217
-1002.106
-4930.2985
-1848.2341
-4491.2759
-3315.5555
-3001.6354
-8068.9581
-434.51319
9558.0889
9442.6147
-738.32099
-6605.4347
-2762.7308
9102.9448
2598.353
3879.6241
3830.776
4860.2631
3420.4649
4577.8114
3112.8231
4275.0094
2749.5962
947.00304
-318.98953
1696.0848
-7439.0721
-1352.0604
34.437322
-119.56123
323.71598
502.88243
6.0262481
2258.2621
3844.1048
994.76765
1626.5109
997.63479
-1007.108
361.40913
1532.6026
-518.3114
-214.27936
505.72233
-2918.7689
-2921.3439
-475.5924
2481.3619
361.94453
2314.4407
-476.31843
-1137.3682
-915.76874
174.84482
1434.9427
-1414.6942
1859.7347
1305.2662
1376.6639
1199.2657
-3741.7354
-7605.2754
2096.5963
287.61683
850.806
907.39657
1125.2358
-601.6887
1127.4717
-139.00185
1112.6847
-1710.5274
142.50982
1299.044
-1974.9985
-912.1072
-4980.9506
-1702.4098
-4259.3395
-3308.4516
-2990.8249
-7836.1153
-34.329025
8954.34
8885.1236
-1127.4297
-6173.3204
-3239.4652
8470.2435
1875.5632
3430.2058
3539.5269
4757.7282
2766.6479
3531.9803
2672.7674
3891.1028
2051.5463
-188.30897
-1585.1489
1580.3175
-6993.9657
-1236.017
47.61487
-106.14835
318.21097
496.24401
-2.7697528
2155.5983
3638.8821
936.30286
1467.0274
983.24537
-998.0654
234.51105
1445.4351
-489.46967
-344.64465
359.59107
-3007.3667
-2996.6619
-540.73397
2470.499
246.0134
2294.3511
-481.74002
-1189.5388
-972.8393
172.2356
1390.7372
-1290.8997
1725.3398
1229.6127
1318.3545
1133.8503
-3568.2263
-7585.0542
1600.456
-253.25639
836.19178
889.93061
1100.5518
-345.49872
1421.5265
48.451906
1299.7899
-1682.309
223.99357
758.52945
-1971.5522
-720.07522
-4971.1443
-1720.5375
-4115.8691
-3379.3021
-2838.4058
-7279.3452
203.50303
8120.9921
8503.9144
-1671.1783
-6282.7952
-3697.0893
7810.5135
-276.30233
3073.778
3432.7324
4766.3781
2364.6734
2768.5215
2384.3979
3420.9599
1661.3713
-1001.2187
-2257.8062
1455.2554
-6495.272
-1180.9658
62.127218
-90.875257
312.48285
483.39721
-13.449989
2042.2016
3425.9514
866.56924
1279.202
1020.0709
-943.96719
118.26341
1357.2468
-465.90938
-491.05
258.8857
-3026.6233
-3005.6329
-592.46372
2435.8819
139.51471
2213.4515
-514.25022
-1203.7935
-1031.5146
144.60871
1247.7489
-1126.3441
1834.6292
1137.4874
1241.3462
994.03974
-3127.6905
-6561.3044
1371.6665
-585.56273
629.49014
852.23873
1103.0512
-97.83352
1693.9008
222.57059
1405.2945
-1700.7796
701.24566
671.42537
-2280.1093
-876.90484
-4764.9437
-1521.2899
-3981.7657
-3394.7917
-2774.4086
-7005.8435
283.02148
7270.0865
7860.4068
-2619.9121
-5798.444
-6396.729
3857.908
-2507.1736
3096.9565
3071.5596
4676.7657
2172.4262
2400.2164
2172.0645
2952.618
1392.462
-1525.7854
-2440.4938
1291.5966
-6016.3741
-1044.375
77.426118
-73.219198
304.53287
464.14981
-25.492483
1917.3803
3227.1046
804.46916
1090.7535
1054.1488
-875.03177
45.202195
1334.552
-451.22413
-650.8179
178.22591
-2935.3609
-2956.631
-597.72637
2370.8537
46.028592
2054.0874
-633.03958
-1160.817
-1032.2588
115.66807
1125.6141
-1031.0705
1699.2425
1064.0833
1156.6151
853.98216
-2744.6642
-5096.8478
1221.3079
-614.578
528.70048
820.06366
1102.8429
56.85856
1840.414
399.51514
1366.3214
-1769.1111
799.95263
868.51571
-2456.1047
-1058.4448
-5075.5866
-1110.0622
-3801.6344
-3562.17
-2697.7496
-6708.5138
277.53778
6302.6789
6912.9589
-3044.3433
-6093.9679
-10772.848
1511.9526
-3404.6797
3799.5872
2548.7529
4635.8757
2151.1428
2144.9244
2281.6019
2535.6457
1003.6892
-1934.529
-2363.7535
1174.0683
-5498.9735
-1013.5181
95.892184
-52.195905
294.51047
438.48599
-38.910423
1778.7014
3046.6852
758.99469
918.40461
1070.0483
-867.57415
4.2991869
1420.5744
-441.46985
-783.15126
97.607313
-2731.2064
-2828.0719
-508.50333
2289.0298
-34.24155
1780.9905
-751.52906
-1033.611
-953.09502
84.066472
949.09363
-889.27204
1615.9014
1004.5743
1067.4396
720.01105
-2349.7243
-3561.695
916.77206
-514.92523
489.55492
810.32424
1071.7016
231.09169
1916.9171
551.63817
1261.3519
-1851.084
769.72848
823.0712
-2462.4519
-1161.6701
-4924.7261
-864.37278
-3593.2808
-3583.6865
-2437.9141
-5969.036
444.7378
5421.3866
5838.2268
-2945.83
-5252.9023
-12241.133
-153.96697
-3148.2392
4336.4062
2107.8389
4503.7206
2303.1826
2064.8367
2522.7378
2239.5699
603.85569
-2054.3149
-2059.7361
1063.3406
-5024.2973
-845.18414
115.85114
-28.975544
282.55337
408.33462
-54.36376
1626.5697
2868.0686
717.47477
742.66222
1084.2649
-923.81102
-8.696222
1577.1204