/*--------------------------------*- C++ -*----------------------------------*\
| =========                 |                                                 |
| \\      /  F ield         | OpenFOAM: The Open Source CFD Toolbox           |
|  \\    /   O peration     | Version:  2.3.0                                 |
|   \\  /    A nd           | Web:      www.OpenFOAM.org                      |
|    \\/     M anipulation  |                                                 |
\*---------------------------------------------------------------------------*/
FoamFile
{
    version     2.0;
    format      ascii;
    class       surfaceScalarField;
    location    "2.9e-05";
    object      phi;
}
// * * * * * * * * * * * * * * * * * * * * * * * * * * * * * * * * * * * * * //

dimensions      [0 3 -1 0 0 0 0];

internalField   nonuniform List<scalar> 
14825
(
1.0343086e-09
-2.0547248e-11
1.0547482e-09
-2.043962e-11
1.0749038e-09
-2.0155572e-11
1.0953923e-09
-2.0488463e-11
1.1158129e-09
-2.0420624e-11
1.1361972e-09
-2.0384291e-11
1.1563024e-09
-2.0105184e-11
1.1762188e-09
-1.9916463e-11
1.1961864e-09
-1.9967564e-11
1.2158556e-09
-1.9669179e-11
1.2358002e-09
-1.994461e-11
1.2550992e-09
-1.9299036e-11
1.2749131e-09
-1.9813854e-11
1.2937435e-09
-1.8830433e-11
1.313428e-09
-1.9684502e-11
1.3317713e-09
-1.8343301e-11
1.351317e-09
-1.9545733e-11
1.3692619e-09
-1.7944828e-11
1.3883906e-09
-1.9128722e-11
1.4062612e-09
-1.7870591e-11
1.4245667e-09
-1.8305504e-11
1.4427279e-09
-1.8161186e-11
1.4599154e-09
-1.7187504e-11
1.4784382e-09
-1.8522798e-11
1.4945432e-09
-1.6104992e-11
1.5132323e-09
-1.8689132e-11
1.5285648e-09
-1.533244e-11
1.5469142e-09
-1.834941e-11
1.5618092e-09
-1.4895024e-11
1.5794097e-09
-1.7600495e-11
1.5943633e-09
-1.4953582e-11
1.6109418e-09
-1.6578492e-11
1.6260368e-09
-1.5095013e-11
1.6412649e-09
-1.522815e-11
1.6567307e-09
-1.5465758e-11
1.6706807e-09
-1.3950053e-11
1.6862635e-09
-1.5582781e-11
1.6993038e-09
-1.3040254e-11
1.7144823e-09
-1.5178572e-11
1.7270354e-09
-1.2553018e-11
1.7412976e-09
-1.4262249e-11
1.7537947e-09
-1.2497121e-11
1.7670484e-09
-1.3253661e-11
1.7795268e-09
-1.2478398e-11
1.7915565e-09
-1.2029716e-11
1.8040072e-09
-1.2450662e-11
1.8149198e-09
-1.0912618e-11
1.8271613e-09
-1.2241566e-11
1.8374285e-09
-1.0267147e-11
1.8484555e-09
-1.1027003e-11
1.8590003e-09
-1.0544849e-11
1.8689684e-09
-9.9680728e-12
1.8789974e-09
-1.0028968e-11
1.8876455e-09
-8.6480978e-12
1.8972936e-09
-9.6481504e-12
1.9060416e-09
-8.7479981e-12
1.9146588e-09
-8.6171806e-12
1.9227326e-09
-8.0738296e-12
1.9299437e-09
-7.211004e-12
1.9377016e-09
-7.7579298e-12
1.9452162e-09
-7.5146527e-12
1.9521775e-09
-6.9612447e-12
1.9578218e-09
-5.6443454e-12
1.9638786e-09
-6.0568157e-12
1.9702836e-09
-6.4049823e-12
1.9754015e-09
-5.1179094e-12
1.9802208e-09
-4.8192934e-12
1.9847993e-09
-4.5784721e-12
1.9892242e-09
-4.424928e-12
1.9933676e-09
-4.1434189e-12
1.9970003e-09
-3.632661e-12
2.0005211e-09
-3.5207871e-12
2.0035481e-09
-3.0269704e-12
2.0059874e-09
-2.4393137e-12
-2.1759606e-12
2.8622576e-09
-8.0838942e-11
2.9222944e-09
-8.0476405e-11
2.9818387e-09
-7.9699914e-11
3.0421263e-09
-8.0775981e-11
3.1025096e-09
-8.0803987e-11
3.1625567e-09
-8.043135e-11
3.2225164e-09
-8.0064921e-11
3.2814165e-09
-7.8816493e-11
3.3411911e-09
-7.9742182e-11
3.3995659e-09
-7.8043964e-11
3.4593877e-09
-7.9766455e-11
3.5170571e-09
-7.6968466e-11
3.5765526e-09
-7.9309318e-11
3.6332939e-09
-7.5571744e-11
3.692398e-09
-7.8788617e-11
3.7482021e-09
-7.4147403e-11
3.8068659e-09
-7.8209505e-11
3.8619278e-09
-7.3006755e-11
3.9195082e-09
-7.6709059e-11
3.9745498e-09
-7.2912197e-11
4.0301167e-09
-7.3872472e-11
4.0859448e-09
-7.3989264e-11
4.138825e-09
-7.0067649e-11
4.1955296e-09
-7.522739e-11
4.2458909e-09
-6.6466335e-11
4.3029628e-09
-7.5761056e-11
4.3515256e-09
-6.3895232e-11
4.4076529e-09
-7.4476664e-11
4.4552327e-09
-6.247486e-11
4.5095144e-09
-7.1882169e-11
4.5572874e-09
-6.2726643e-11
4.6090325e-09
-6.8323513e-11
4.6571344e-09
-6.3196969e-11
4.7055707e-09
-6.3664385e-11
4.7545043e-09
-6.4399397e-11
4.799882e-09
-5.9327723e-11
4.8490684e-09
-6.4769189e-11
4.8922076e-09
-5.6179456e-11
4.9403134e-09
-6.328442e-11
4.9821799e-09
-5.4419516e-11
5.0280491e-09
-6.0131465e-11
5.0698017e-09
-5.4249674e-11
5.1131125e-09
-5.6564449e-11
5.1546889e-09
-5.4054839e-11
5.1950334e-09
-5.2374162e-11
5.2362872e-09
-5.3704487e-11
5.274081e-09
-4.870643e-11
5.3144925e-09
-5.2653107e-11
5.3506432e-09
-4.6417826e-11
5.3882759e-09
-4.8659673e-11
5.4247494e-09
-4.7018368e-11
5.4597441e-09
-4.4962749e-11
5.4946958e-09
-4.4980724e-11
5.5266146e-09
-4.0566831e-11
5.5604209e-09
-4.3454436e-11
5.5921753e-09
-4.0502424e-11
5.6240499e-09
-4.0491768e-11
5.6533854e-09
-3.7409323e-11
5.6814765e-09
-3.530216e-11
5.7108371e-09
-3.7118494e-11
5.7388106e-09
-3.5488168e-11
5.7655508e-09
-3.3701458e-11
5.7896962e-09
-2.9789765e-11
5.8142679e-09
-3.0628506e-11
5.8391813e-09
-3.1318394e-11
5.8615778e-09
-2.7514325e-11
5.8831001e-09
-2.6341629e-11
5.903587e-09
-2.5065365e-11
5.9236895e-09
-2.4527435e-11
5.9431237e-09
-2.3577657e-11
5.9615198e-09
-2.2028709e-11
5.9790365e-09
-2.1037545e-11
5.9954198e-09
-1.9410194e-11
6.0103539e-09
-1.7373462e-11
-1.6274858e-11
4.3661429e-09
-1.7887238e-10
4.463638e-09
-1.7797147e-10
4.5613915e-09
-1.7745335e-10
4.659446e-09
-1.7883051e-10
4.7585556e-09
-1.7991364e-10
4.8564651e-09
-1.7834078e-10
4.9554667e-09
-1.7906658e-10
5.0521489e-09
-1.754987e-10
5.1511003e-09
-1.7869358e-10
5.2474066e-09
-1.7435023e-10
5.3465431e-09
-1.78903e-10
5.442403e-09
-1.7282833e-10
5.5410902e-09
-1.7799655e-10
5.636231e-09
-1.7071248e-10
5.7343262e-09
-1.7688386e-10
5.8286406e-09
-1.6846179e-10
5.9262014e-09
-1.7577027e-10
6.0197229e-09
-1.6652832e-10
6.1161161e-09
-1.7310226e-10
6.2096059e-09
-1.6640193e-10
6.3037282e-09
-1.6799477e-10
6.3981809e-09
-1.68442e-10
6.4890313e-09
-1.6091806e-10
6.5845893e-09
-1.7078533e-10
6.6724449e-09
-1.5432199e-10
6.7684776e-09
-1.717937e-10
6.8541042e-09
-1.4952189e-10
6.9488683e-09
-1.6924079e-10
7.0331654e-09
-1.4677194e-10
7.1259573e-09
-1.6467408e-10
7.2101373e-09
-1.4690658e-10
7.3001071e-09
-1.5829332e-10
7.3841952e-09
-1.4728505e-10
7.470294e-09
-1.4976323e-10
7.5550769e-09
-1.4918235e-10
7.6374714e-09
-1.4172221e-10
7.7226326e-09
-1.4993039e-10
7.801858e-09
-1.354048e-10
7.8858612e-09
-1.4728761e-10
7.9628333e-09
-1.3139167e-10
8.044485e-09
-1.4178319e-10
8.1208548e-09
-1.3061941e-10
8.1993945e-09
-1.3510422e-10
8.2750829e-09
-1.2974316e-10
8.35018e-09
-1.2747128e-10
8.4250662e-09
-1.2859072e-10
8.4968835e-09
-1.2052371e-10
8.5702788e-09
-1.2604838e-10
8.6394075e-09
-1.1554656e-10
8.7101059e-09
-1.1935804e-10
8.7787634e-09
-1.1567591e-10
8.8459026e-09
-1.1210195e-10
8.9121053e-09
-1.1118343e-10
8.9755319e-09
-1.039934e-10
9.0403088e-09
-1.0823131e-10
9.1024684e-09
-1.0266203e-10
9.1656599e-09
-1.0368331e-10
9.2234769e-09
-9.5226355e-11
9.2814844e-09
-9.3309617e-11
9.3405805e-09
-9.6214573e-11
9.3968079e-09
-9.1715581e-11
9.4514575e-09
-8.8351085e-11
9.5040073e-09
-8.2339512e-11
9.5563036e-09
-8.2924824e-11
9.6075755e-09
-8.2590335e-11
9.6569875e-09
-7.6926305e-11
9.704709e-09
-7.406316e-11
9.7507377e-09
-7.1093981e-11
9.7963046e-09
-7.009442e-11
9.8408368e-09
-6.8109789e-11
9.8844696e-09
-6.5661543e-11
9.925994e-09
-6.2561924e-11
9.9658462e-09
-5.926239e-11
1.0003936e-08
-5.5463456e-11
-5.3017424e-11
5.5901508e-09
-3.1255251e-10
5.7231051e-09
-3.109257e-10
5.8576301e-09
-3.119784e-10
5.9915414e-09
-3.1274175e-10
6.1278787e-09
-3.1625091e-10
6.2619224e-09
-3.1238449e-10
6.3987603e-09
-3.1590456e-10
6.5321144e-09
-3.0885276e-10
6.66915e-09
-3.1572917e-10
6.8027441e-09
-3.0794438e-10
6.9401055e-09
-3.1626441e-10
7.0740539e-09
-3.0677667e-10
7.2109949e-09
-3.149376e-10
7.344944e-09
-3.0466154e-10
7.4813095e-09
-3.132494e-10
7.6148492e-09
-3.0200149e-10
7.7509459e-09
-3.1186695e-10
7.8837523e-09
-2.9933474e-10
8.0191472e-09
-3.0849712e-10
8.1517692e-09
-2.9902397e-10
8.2855023e-09
-3.0172782e-10
8.4189061e-09
-3.0184582e-10
8.5497549e-09
-2.9176686e-10
8.6841135e-09
-3.0514388e-10
8.8124961e-09
-2.8270463e-10
8.9473056e-09
-3.0660319e-10
9.0735536e-09
-2.7576993e-10
9.2071474e-09
-3.0283459e-10
9.3317848e-09
-2.7140931e-10
9.4643174e-09
-2.9720672e-10
9.5880138e-09
-2.7060291e-10
9.7186308e-09
-2.8891033e-10
9.8411579e-09
-2.6981217e-10
9.9687149e-09
-2.7732026e-10
1.0091132e-08
-2.7159947e-10
1.0215462e-08
-2.6605193e-10
1.0338203e-08
-2.726715e-10
1.0458947e-08
-2.5614854e-10
1.0580901e-08
-2.6924233e-10
1.0698341e-08
-2.4883106e-10
1.0819089e-08
-2.6253156e-10
1.0934939e-08
-2.4646935e-10
1.105332e-08
-2.5348548e-10
1.1167177e-08
-2.4359944e-10
1.1282504e-08
-2.4279906e-10
1.139489e-08
-2.4097651e-10
1.150701e-08
-2.3264305e-10
1.1617614e-08
-2.3665327e-10
1.1726166e-08
-2.2409827e-10
1.1835359e-08
-2.2855093e-10
1.1941644e-08
-2.2196093e-10
1.2047183e-08
-2.176407e-10
1.2150271e-08
-2.1427174e-10
1.2252378e-08
-2.0610008e-10
1.2353969e-08
-2.0982266e-10
1.2453534e-08
-2.0222724e-10
1.255444e-08
-2.0458897e-10
1.2647629e-08
-1.8841532e-10
1.2743806e-08
-1.8948705e-10
1.2839428e-08
-1.9183595e-10
1.2931211e-08
-1.8349891e-10
1.3020984e-08
-1.7812346e-10
1.3110763e-08
-1.7211874e-10
1.3198684e-08
-1.7084633e-10
1.3283997e-08
-1.6790323e-10
1.3369287e-08
-1.6221653e-10
1.3451518e-08
-1.5629371e-10
1.3532291e-08
-1.5186757e-10
1.3612267e-08
-1.5007031e-10
1.3690941e-08
-1.467834e-10
1.3768979e-08
-1.4369965e-10
1.3843637e-08
-1.3722011e-10
1.3916471e-08
-1.3209659e-10
1.398789e-08
-1.2688237e-10
-1.2233465e-10
6.5727807e-09
-4.7956188e-10
6.7394752e-09
-4.7762018e-10
6.9088866e-09
-4.8138988e-10
7.0770274e-09
-4.8088255e-10
7.2488219e-09
-4.8804533e-10
7.4175026e-09
-4.8106528e-10
7.590609e-09
-4.8901092e-10
7.759649e-09
-4.7789276e-10
7.9332923e-09
-4.8937251e-10
8.1036433e-09
-4.7829534e-10
8.2778389e-09
-4.9046001e-10
8.4496921e-09
-4.7862986e-10
8.6238569e-09
-4.8910243e-10
8.7966654e-09
-4.7747004e-10
8.9707285e-09
-4.8731246e-10
9.1436205e-09
-4.7489347e-10
9.3180412e-09
-4.8628762e-10
9.4903877e-09
-4.7168126e-10
9.6648236e-09
-4.8293306e-10
9.8369202e-09
-4.711206e-10
1.0010836e-08
-4.7564342e-10
1.0183344e-08
-4.7435363e-10
1.0355474e-08
-4.6389684e-10
1.0528591e-08
-4.7826105e-10
1.0699695e-08
-4.5380927e-10
1.0873108e-08
-4.8001602e-10
1.1042653e-08
-4.4531432e-10
1.1215328e-08
-4.7551015e-10
1.138323e-08
-4.3931135e-10
1.1556361e-08
-4.7033732e-10
1.1722406e-08
-4.3664816e-10
1.1895153e-08
-4.6165768e-10
1.2058835e-08
-4.3349406e-10
1.2230183e-08
-4.4866772e-10
1.2392692e-08
-4.3410906e-10
1.2562109e-08
-4.3546865e-10
1.272438e-08
-4.3494232e-10
1.2890752e-08
-4.2252032e-10
1.3052396e-08
-4.3088687e-10
1.3215049e-08
-4.1148366e-10
1.3377174e-08
-4.2465642e-10
1.3537129e-08
-4.0642472e-10
1.3698444e-08
-4.1480039e-10
1.3855017e-08
-4.0017217e-10
1.4014569e-08
-4.02351e-10
1.4169051e-08
-3.9545897e-10
1.4326076e-08
-3.8966768e-10
1.447729e-08
-3.8786772e-10
1.4630835e-08
-3.7764297e-10
1.4782871e-08
-3.8058746e-10
1.4932709e-08
-3.7179873e-10
1.508144e-08
-3.6637122e-10
1.5226775e-08
-3.5960728e-10
1.537369e-08
-3.5301449e-10
1.5517236e-08
-3.533692e-10
1.566132e-08
-3.4631094e-10
1.5804466e-08
-3.4773464e-10
1.5940043e-08
-3.2399316e-10
1.6081888e-08
-3.3133144e-10
1.6219613e-08
-3.2956155e-10
1.6353884e-08
-3.1776948e-10
1.6485824e-08
-3.100636e-10
1.6620829e-08
-3.071236e-10
1.6750998e-08
-3.010151e-10
1.6878498e-08
-2.9540323e-10
1.7006655e-08
-2.9037399e-10
1.7130775e-08
-2.8041354e-10
1.7254362e-08
-2.7545462e-10
1.7376881e-08
-2.7258953e-10
1.7498731e-08
-2.6863332e-10
1.7619368e-08
-2.6433649e-10
1.7735955e-08
-2.5380655e-10
1.7850453e-08
-2.4659522e-10
1.796393e-08
-2.4035891e-10
-2.3329733e-10
7.3476681e-09
-6.7738336e-10
7.5465945e-09
-6.7654665e-10
7.7486564e-09
-6.834517e-10
7.9496784e-09
-6.8190462e-10
8.1549455e-09
-6.9331245e-10
8.3571382e-09
-6.8325797e-10
8.5647399e-09
-6.9661262e-10
8.7686777e-09
-6.8183057e-10
8.9773364e-09
-6.9803117e-10
9.1839394e-09
-6.8489829e-10
9.3935525e-09
-7.0007312e-10
9.6028488e-09
-6.8792622e-10
9.8132697e-09
-6.995233e-10
1.0024392e-08
-6.8859277e-10
1.0235743e-08
-6.9866354e-10
1.0447446e-08
-6.865959e-10
1.0660083e-08
-6.9892448e-10
1.0871773e-08
-6.8337155e-10
1.108511e-08
-6.9626981e-10
1.1296866e-08
-6.828766e-10
1.1510968e-08
-6.8974536e-10
1.172303e-08
-6.8641582e-10
1.1936811e-08
-6.776781e-10
1.214929e-08
-6.9074023e-10
1.2363934e-08
-6.6845321e-10
1.257659e-08
-6.9267187e-10
1.279065e-08
-6.5937416e-10
1.3003269e-08
-6.8812929e-10
1.3216253e-08
-6.5229544e-10
1.3430685e-08
-6.8476879e-10
1.364145e-08
-6.4741369e-10
1.3857011e-08
-6.772181e-10
1.4064663e-08
-6.4114589e-10
1.4280921e-08
-6.6492625e-10
1.4486646e-08
-6.3983374e-10
1.4702824e-08
-6.5164648e-10
1.4907329e-08
-6.3944789e-10
1.5122013e-08
-6.3720428e-10
1.5325498e-08
-6.3437199e-10
1.5536924e-08
-6.2290913e-10
1.5742147e-08
-6.2987927e-10
1.5950396e-08
-6.1467417e-10
1.6156441e-08
-6.2084586e-10
1.6360662e-08
-6.0439297e-10
1.6566215e-08
-6.0790406e-10
1.6767956e-08
-5.9719937e-10
1.6972911e-08
-5.9462335e-10
1.7169655e-08
-5.846115e-10
1.7373553e-08
-5.8154072e-10
1.757148e-08
-5.7851438e-10
1.776989e-08
-5.7020869e-10
1.7965476e-08
-5.6195729e-10
1.8159386e-08
-5.5351773e-10
1.8355855e-08
-5.4948285e-10
1.8546255e-08
-5.4376964e-10
1.8741797e-08
-5.4185314e-10
1.8930252e-08
-5.3618983e-10
1.9115932e-08
-5.0967277e-10
1.9309431e-08
-5.2483053e-10
1.9493951e-08
-5.1408101e-10
1.9677194e-08
-5.0101267e-10
1.9858653e-08
-4.915229e-10
2.0044804e-08
-4.9327468e-10
2.0222935e-08
-4.7914546e-10
2.0400845e-08
-4.7331337e-10
2.0577499e-08
-4.670282e-10
2.075151e-08
-4.5442475e-10
2.0924899e-08
-4.4884309e-10
2.1096565e-08
-4.44256e-10
2.1268056e-08
-4.4012433e-10
2.1436669e-08
-4.3294918e-10
2.1602977e-08
-4.2011474e-10
2.1768115e-08
-4.1173287e-10
2.1931378e-08
-4.0362192e-10
-3.9382944e-10
7.9443205e-09
-9.0346735e-10
8.1742173e-09
-9.0644343e-10
8.4064932e-09
-9.1572757e-10
8.6394786e-09
-9.1489007e-10
8.8760247e-09
-9.2985853e-10
9.1111239e-09
-9.183572e-10
9.3513369e-09
-9.3682559e-10
9.5895887e-09
-9.2008239e-10
9.831724e-09
-9.4016647e-10
1.0073901e-08
-9.2707557e-10
1.0317553e-08
-9.4372488e-10
1.0563333e-08
-9.3370661e-10
1.0809022e-08
-9.4521143e-10
1.1057133e-08
-9.3670404e-10
1.1305452e-08
-9.4698226e-10
1.1554511e-08
-9.3565544e-10
1.1805549e-08
-9.4996215e-10
1.2055546e-08
-9.3336845e-10
1.2308038e-08
-9.4876208e-10
1.2559215e-08
-9.3405397e-10
1.2813603e-08
-9.4413323e-10
1.30657e-08
-9.3851258e-10
1.3321193e-08
-9.3317163e-10
1.357408e-08
-9.4362632e-10
1.3832281e-08
-9.2665501e-10
1.4085235e-08
-9.4562575e-10
1.4343953e-08
-9.1809211e-10
1.4597845e-08
-9.4202156e-10
1.4856478e-08
-9.1092776e-10
1.5113179e-08
-9.4146983e-10
1.5370047e-08
-9.0428226e-10
1.5629049e-08
-9.3621985e-10
1.5883009e-08
-8.9510556e-10
1.6144817e-08
-9.2673449e-10
1.6396992e-08
-8.9200857e-10
1.6660487e-08
-9.151413e-10
1.6910629e-08
-8.8959015e-10
1.7174453e-08
-9.0102798e-10
1.7423147e-08
-8.8306664e-10
1.7685347e-08
-8.8510906e-10
1.7936333e-08
-8.8086502e-10
1.8196149e-08
-8.7449064e-10
1.8448519e-08
-8.7321504e-10
1.8705184e-08
-8.6105835e-10
1.8957557e-08
-8.6027693e-10
1.9211571e-08
-8.512134e-10
1.9465462e-08
-8.485145e-10
1.9712984e-08
-8.3213362e-10
1.9970539e-08
-8.3909519e-10
2.0218079e-08
-8.2605477e-10
2.0470686e-08
-8.2281519e-10
2.0715888e-08
-8.071598e-10
2.0963964e-08
-8.0159383e-10
2.1212207e-08
-7.9772612e-10
2.1454985e-08
-7.8654753e-10
2.1706709e-08
-7.9357695e-10
2.1943575e-08
-7.7305577e-10
2.2186861e-08
-7.5295903e-10
2.243524e-08
-7.7320919e-10
2.2670319e-08
-7.4915954e-10
2.2908162e-08
-7.3885611e-10
2.3146233e-08
-7.2959354e-10
2.3386323e-08
-7.333649e-10
2.3617595e-08
-7.1041712e-10
2.3851667e-08
-7.0738625e-10
2.4079769e-08
-6.9512959e-10
2.4310838e-08
-6.8549433e-10
2.4538826e-08
-6.7683029e-10
2.4767207e-08
-6.7263768e-10
2.4995222e-08
-6.6813943e-10
2.5217273e-08
-6.5499951e-10
2.5438999e-08
-6.4184106e-10
2.565966e-08
-6.3239412e-10
2.5879204e-08
-6.2316576e-10
-6.1036166e-10
8.3891897e-09
-1.1559502e-09
8.6490269e-09
-1.1662806e-09
8.9089669e-09
-1.1756676e-09
9.1735979e-09
-1.179521e-09
9.4385602e-09
-1.1948209e-09
9.7066464e-09
-1.1864434e-09
9.9766631e-09
-1.2068423e-09
1.0249045e-08
-1.192464e-09
1.0522344e-08
-1.2134662e-09
1.0799444e-08
-1.2041753e-09
1.1075323e-08
-1.2196033e-09
1.1356571e-08
-1.2149547e-09
1.1636228e-08
-1.2248688e-09
1.1920091e-08
-1.2205673e-09
1.2204762e-08
-1.2316529e-09
1.2489738e-08
-1.2206314e-09
1.2779424e-08
-1.2396482e-09
1.3066258e-08
-1.220203e-09
1.3358719e-08
-1.2412227e-09
1.3648361e-08
-1.2236956e-09
1.394376e-08
-1.2395321e-09
1.4235493e-08
-1.2302457e-09
1.4533477e-08
-1.2311559e-09
1.4826805e-08
-1.2369544e-09
1.5129126e-08
-1.2289762e-09
1.54226e-08
-1.239099e-09
1.5726262e-08
-1.2217547e-09
1.6022435e-08
-1.2381945e-09
1.6326927e-08
-1.2154198e-09
1.6627044e-08
-1.241587e-09
1.6930599e-08
-1.2078373e-09
1.7233846e-08
-1.2394661e-09
1.7535797e-08
-1.1970572e-09
1.7843392e-08
-1.2343295e-09
1.8145054e-08
-1.1936701e-09
1.8455359e-08
-1.2254462e-09
1.8755069e-08
-1.1893001e-09
1.9066904e-08
-1.2128632e-09
1.9365373e-08
-1.1815363e-09
1.9678043e-08
-1.1977787e-09
1.9978274e-08
-1.1810958e-09
2.0290765e-08
-1.1869821e-09
2.0591669e-08
-1.174119e-09
2.0904037e-08
-1.1734261e-09
2.1204632e-08
-1.1608718e-09
2.1514848e-08
-1.1614297e-09
2.1817255e-08
-1.1509211e-09
2.2121782e-08
-1.136661e-09
2.2432296e-08
-1.1496086e-09
2.2732687e-08
-1.1264467e-09
2.3040892e-08
-1.1310199e-09
2.3338735e-08
-1.1050025e-09
2.3645604e-08
-1.1084629e-09
2.3945981e-08
-1.0981027e-09
2.4246634e-08
-1.0872012e-09
2.4553824e-08
-1.1007671e-09
2.4842022e-08
-1.0612539e-09
2.514856e-08
-1.0594968e-09
2.5451278e-08
-1.0759266e-09
2.5739118e-08
-1.0370003e-09
2.6036571e-08
-1.0363087e-09
2.6335417e-08
-1.0284396e-09
2.6628392e-08
-1.0263395e-09
2.6920198e-08
-1.0022238e-09
2.7212874e-08
-1.0000617e-09
2.7495629e-08
-9.778848e-10
2.7787702e-08
-9.7756738e-10
2.8071068e-08
-9.6019649e-10
2.8361666e-08
-9.6323523e-10
2.8645761e-08
-9.5223444e-10
2.8926087e-08
-9.3532531e-10
2.9209854e-08
-9.2560846e-10
2.9491873e-08
-9.1441326e-10
2.9770045e-08
-9.0133752e-10
-8.8693907e-10
8.7067077e-09
-1.4349498e-09
8.9938318e-09
-1.4534047e-09
9.2800784e-09
-1.4619142e-09
9.5747094e-09
-1.4741521e-09
9.8655706e-09
-1.4856821e-09
1.0165928e-08
-1.4868008e-09
1.0462474e-08
-1.5033884e-09
1.0768777e-08
-1.4987671e-09
1.1069985e-08
-1.5146743e-09
1.1382161e-08
-1.5163511e-09
1.1687536e-08
-1.5249782e-09
1.2004724e-08
-1.5321428e-09
1.2316024e-08
-1.5361688e-09
1.2636554e-08
-1.5410967e-09
1.2955245e-08
-1.5503446e-09
1.3277298e-08
-1.5426837e-09
1.3603702e-08
-1.5660528e-09
1.3927864e-08
-1.5443648e-09
1.4259517e-08
-1.5728756e-09
1.4587086e-08
-1.5512644e-09
1.4923761e-08
-1.5762076e-09
1.5253527e-08
-1.5600111e-09
1.5595423e-08
-1.5730527e-09
1.5927502e-08
-1.5690331e-09
1.6275148e-08
-1.5766222e-09
1.6608032e-08
-1.5719826e-09
1.6957775e-08
-1.5714982e-09
1.7295798e-08
-1.576217e-09
1.7647402e-08
-1.5670243e-09
1.7990762e-08
-1.584947e-09
1.8341908e-08
-1.5589832e-09
1.8689041e-08
-1.5865987e-09
1.9040625e-08
-1.5486416e-09
1.9392953e-08
-1.5866574e-09
1.9746586e-08
-1.5473028e-09
2.0102084e-08
-1.5809441e-09
2.045459e-08
-1.5418067e-09
2.0811669e-08
-1.5699415e-09
2.1163887e-08
-1.5337552e-09
2.1525015e-08
-1.5589059e-09
2.1877387e-08
-1.533468e-09
2.2240905e-08
-1.5505e-09
2.2592475e-08
-1.5256893e-09
2.2959785e-08
-1.5407359e-09
2.3310836e-08
-1.5119227e-09
2.3676012e-08
-1.5266056e-09
2.4025616e-08
-1.5005258e-09
2.4392686e-08
-1.5037311e-09
2.4751223e-08
-1.5081449e-09
2.5108202e-08
-1.483426e-09
2.5467667e-08
-1.4904853e-09
2.5821091e-08
-1.4584264e-09
2.6183968e-08
-1.47134e-09
2.6534876e-08
-1.4490107e-09
2.6898613e-08
-1.450938e-09
2.7253353e-08
-1.4555071e-09
2.7596688e-08
-1.4045888e-09
2.7970313e-08
-1.4331216e-09
2.8317781e-08
-1.4233947e-09
2.8659792e-08
-1.3790113e-09
2.9020429e-08
-1.396946e-09
2.9375763e-08
-1.3837734e-09
2.9719846e-08
-1.3704225e-09
3.0075499e-08
-1.3578766e-09
3.041935e-08
-1.3439127e-09
3.0762511e-08
-1.3210462e-09
3.1111032e-08
-1.3260881e-09
3.1449824e-08
-1.298989e-09
3.1805994e-08
-1.3194051e-09
3.2138002e-08
-1.2842423e-09
3.2478104e-08
-1.2754274e-09
3.28206e-08
-1.2681042e-09
3.3161874e-08
-1.2556877e-09
3.3500885e-08
-1.2403482e-09
-1.2223593e-09
8.9168416e-09
-1.7410114e-09
9.2261711e-09
-1.7627341e-09
9.5398416e-09
-1.7755846e-09
9.859115e-09
-1.7934255e-09
1.0177173e-08
-1.80374e-09
1.0505237e-08
-1.8148646e-09
1.0829097e-08
-1.827249e-09
1.11661e-08
-1.8357699e-09
1.1495132e-08
-1.8437062e-09
1.1841062e-08
-1.8622815e-09
1.2174698e-08
-1.858614e-09
1.2528264e-08
-1.8857091e-09
1.2868618e-08
-1.8765227e-09
1.3227865e-08
-1.9003441e-09
1.3576037e-08
-1.8985163e-09
1.3939154e-08
-1.9058004e-09
1.4296035e-08
-1.922934e-09
1.466212e-08
-1.9104497e-09
1.5026994e-08
-1.9377495e-09
1.5396075e-08
-1.9203454e-09
1.5769567e-08
-1.9496994e-09
1.6138925e-08
-1.9293692e-09
1.652264e-08
-1.9567684e-09
1.6894044e-08
-1.9404371e-09
1.7285372e-08
-1.9679499e-09
1.7657978e-08
-1.9445889e-09
1.8053333e-08
-1.9668525e-09
1.8432071e-08
-1.9549549e-09
1.8832397e-08
-1.9673503e-09
1.9216673e-08
-1.9692232e-09
1.9617038e-08
-1.9593486e-09
2.0005181e-08
-1.9747413e-09
2.0408531e-08
-1.9519916e-09
2.0802332e-08
-1.9804586e-09
2.1208866e-08
-1.9538367e-09
2.1607329e-08
-1.9794068e-09
2.2012854e-08
-1.9473319e-09
2.2411583e-08
-1.9686711e-09
2.2818015e-08
-1.9401873e-09
2.3223857e-08
-1.9647472e-09
2.3628191e-08
-1.9378024e-09
2.4037066e-08
-1.9593745e-09
2.4440582e-08
-1.9292055e-09
2.4854298e-08
-1.9544521e-09
2.5259744e-08
-1.9173684e-09
2.5669088e-08
-1.93595e-09
2.6064482e-08
-1.8959193e-09
2.6491744e-08
-1.9309937e-09
2.6888913e-08
-1.905313e-09
2.730264e-08
-1.8971531e-09
2.7702905e-08
-1.8907504e-09
2.8113763e-08
-1.8692842e-09
2.8521194e-08
-1.878771e-09
2.8916707e-08
-1.8445239e-09
2.9343712e-08
-1.8779431e-09
2.9728351e-08
-1.8401462e-09
3.0127194e-08
-1.8034319e-09
3.0566535e-08
-1.8724621e-09
3.0938271e-08
-1.7951307e-09
3.1331926e-08
-1.7726668e-09
3.1753384e-08
-1.8184035e-09
3.2146309e-08
-1.7766986e-09
3.25451e-08
-1.769214e-09
3.2956039e-08
-1.7688152e-09
3.3337907e-08
-1.725781e-09
3.3747778e-08
-1.7309174e-09
3.4131513e-08
-1.7098223e-09
3.4527479e-08
-1.6949558e-09
3.4942184e-08
-1.7341093e-09
3.5304614e-08
-1.6466726e-09
3.5704988e-08
-1.675801e-09
3.6096983e-08
-1.6600999e-09
3.6485917e-08
-1.6446216e-09
3.6877824e-08
-1.6322555e-09
-1.606085e-09
9.0329044e-09
-2.0710075e-09
9.3626808e-09
-2.0925106e-09
9.7032449e-09
-2.1161487e-09
1.0043366e-08
-2.1335468e-09
1.0390873e-08
-2.1512468e-09
1.0741201e-08
-2.1651924e-09
1.1096485e-08
-2.1825331e-09
1.1457443e-08
-2.1967274e-09
1.1819315e-08
-2.2055782e-09
1.2191897e-08
-2.2348642e-09
1.2558217e-08
-2.2249339e-09
1.2941862e-08
-2.2693536e-09
1.3314046e-08
-2.2487071e-09
1.3707446e-08
-2.2937444e-09
1.4085501e-08
-2.2765705e-09
1.4488161e-08
-2.3084607e-09
1.4872851e-08
-2.307624e-09
1.5282655e-08
-2.3202543e-09
1.5675282e-08
-2.3303755e-09
1.6091048e-08
-2.3361119e-09
1.6493019e-08
-2.3516698e-09
1.6909417e-08
-2.3457675e-09
1.7325624e-08
-2.372976e-09
1.7744432e-08
-2.3592446e-09
1.8169891e-08
-2.3934086e-09
1.8588909e-08
-2.3636069e-09
1.9022428e-08
-2.4003719e-09
1.9444951e-08
-2.3774776e-09
1.9889273e-08
-2.411673e-09
2.0315127e-08
-2.3950767e-09
2.0760293e-08
-2.4045145e-09
2.118763e-08
-2.4020781e-09
2.1639601e-08
-2.4039627e-09
2.2071037e-08
-2.4118946e-09
2.2524836e-08
-2.4076359e-09
2.296329e-08
-2.4178604e-09
2.3414515e-08
-2.3985577e-09
2.3849349e-08
-2.4035042e-09
2.4303239e-08
-2.3940773e-09
2.4744514e-08
-2.4060231e-09
2.5195911e-08
-2.3891995e-09
2.563583e-08
-2.3992926e-09
2.6089731e-08
-2.3831067e-09
2.6529827e-08
-2.3945489e-09
2.6990413e-08
-2.3779541e-09
2.7422191e-08
-2.3677279e-09
2.785736e-08
-2.3310882e-09
2.8331147e-08
-2.404781e-09
2.8755462e-08
-2.3296273e-09
2.9217084e-08
-2.3587757e-09
2.9644096e-08
-2.3177623e-09
3.0107972e-08
-2.3331606e-09
3.0540874e-08
-2.3116725e-09
3.0972569e-08
-2.276219e-09
3.1452262e-08
-2.3576362e-09
3.184427e-08
-2.2321538e-09
3.2283448e-08
-2.2426105e-09
3.2774739e-08
-2.3637522e-09
3.3124074e-08
-2.1444657e-09
3.3580913e-08
-2.2295065e-09
3.4079339e-08
-2.3168289e-09
3.4486037e-08
-2.1833974e-09
3.4956699e-08
-2.239876e-09
3.5408559e-08
-2.2206748e-09
3.5806595e-08
-2.1238167e-09
3.6281531e-08
-2.2058537e-09
3.6638744e-08
-2.0670348e-09
3.7072477e-08
-2.1286893e-09
3.7531203e-08
-2.192835e-09
3.781026e-08
-1.9257295e-09
3.8230731e-08
-2.0962726e-09
3.8542408e-08
-1.9717767e-09
3.8869872e-08
-1.9720852e-09
3.9139126e-08
-1.9015096e-09
-1.8747381e-09
9.0691989e-09
-2.4213683e-09
9.421354e-09
-2.4446657e-09
9.7841828e-09
-2.4789774e-09
1.0147432e-08
-2.4967959e-09
1.0519881e-08
-2.5236961e-09
1.0893748e-08
-2.5390595e-09
1.1277112e-08
-2.5658969e-09
1.1660942e-08
-2.5805573e-09
1.2054954e-08
-2.5995906e-09
1.2449513e-08
-2.629423e-09
1.2851339e-08
-2.6267597e-09
1.325714e-08
-2.6751545e-09
1.3667081e-08
-2.6586481e-09
1.4084653e-08
-2.7113164e-09
1.4500929e-08
-2.6928469e-09
1.4931948e-08
-2.7394793e-09
1.535428e-08
-2.7299565e-09
1.579658e-08
-2.762554e-09
1.6225769e-08
-2.759564e-09
1.6680314e-08
-2.7906569e-09
1.7114091e-08
-2.7854474e-09
1.7575426e-08
-2.8071024e-09
1.8020711e-08
-2.8182612e-09
1.8489182e-08
-2.8277157e-09
1.8940522e-08
-2.8447486e-09
1.9408818e-08
-2.831903e-09
1.9870098e-08
-2.8616521e-09
2.0337758e-08
-2.8451367e-09
2.0811795e-08
-2.8857109e-09
2.1282406e-08
-2.8656869e-09
2.1752118e-08
-2.8742265e-09
2.222157e-08
-2.8715302e-09
2.2700034e-08
-2.8824272e-09
2.3170163e-08
-2.8820237e-09
2.3646406e-08
-2.8838784e-09
2.4124415e-08
-2.8958691e-09
2.4594968e-08
-2.8691113e-09
2.5061273e-08
-2.8698088e-09
2.5540583e-08
-2.8733876e-09
2.6008601e-08
-2.8740415e-09
2.6493096e-08
-2.8736938e-09
2.694468e-08
-2.8508769e-09
2.7441307e-08
-2.8797339e-09
2.787928e-08
-2.8325219e-09
2.8383571e-08
-2.8822446e-09
2.8790141e-08
-2.774298e-09
2.9267657e-08
-2.8086044e-09
2.9803252e-08
-2.9403761e-09
3.0236992e-08
-2.7633676e-09
3.0748927e-08
-2.8707102e-09
3.1161416e-08
-2.7302513e-09
3.1660337e-08
-2.8320815e-09
3.2051015e-08
-2.7023509e-09
3.2390837e-08
-2.6160405e-09
3.2912404e-08
-2.8792033e-09
3.2989533e-08
-2.3092827e-09
3.3018522e-08
-2.2715992e-09
3.316602e-08
-2.511251e-09
3.3059568e-08
-2.0380137e-09
3.3222774e-08
-2.3927117e-09
3.3696528e-08
-2.7905832e-09
3.4048147e-08
-2.5350166e-09
3.4231642e-08
-2.4233705e-09
3.4417763e-08
-2.4067963e-09
3.4580203e-08
-2.2862568e-09
3.4639839e-08
-2.2654899e-09
3.4442404e-08
-1.8695989e-09
3.4409194e-08
-2.0954802e-09
3.4489089e-08
-2.2727298e-09
3.4098543e-08
-1.5351833e-09
3.4055374e-08
-2.0531034e-09
3.3608205e-08
-1.5246074e-09
3.3425973e-08
-1.7898534e-09
3.3037161e-08
-1.5126983e-09
-1.536481e-09
9.0425401e-09
-2.7925581e-09
9.4137973e-09
-2.815923e-09
9.7976857e-09
-2.8628658e-09
1.0182478e-08
-2.8815887e-09
1.0576239e-08
-2.9174565e-09
1.0974635e-08
-2.9374554e-09
1.1379927e-08
-2.9711895e-09
1.1790396e-08
-2.9910259e-09
1.2208612e-08
-3.0178068e-09
1.2630442e-08
-3.0512531e-09
1.306022e-08
-3.0565378e-09
1.3493195e-08
-3.1081288e-09
1.3935492e-08
-3.1009454e-09
1.4380169e-08
-3.1559929e-09
1.4832795e-08
-3.1454732e-09
1.5290753e-08
-3.1974375e-09
1.5753762e-08
-3.1929651e-09
1.6220671e-08
-3.2294639e-09
1.6694146e-08
-3.2330381e-09
1.7173263e-08
-3.2697747e-09
1.7648235e-08
-3.260419e-09
1.8136427e-08
-3.2952941e-09
1.8618174e-08
-3.300008e-09
1.9115076e-08
-3.324618e-09
1.9597173e-08
-3.326846e-09
2.0090234e-08
-3.3249633e-09
2.0580723e-08
-3.3521419e-09
2.1067105e-08
-3.3315182e-09
2.1566571e-08
-3.3851768e-09
2.2057565e-08
-3.356681e-09
2.2538359e-08
-3.3550201e-09
2.3032828e-08
-3.3659993e-09
2.3521187e-08
-3.3707864e-09
2.4016672e-08
-3.3775093e-09
2.4491005e-08
-3.3582104e-09
2.499442e-08
-3.3992845e-09
2.5434642e-08
-3.3093333e-09
2.5954224e-08
-3.3893908e-09
2.6436478e-08
-3.3556415e-09
2.694184e-08
-3.3794034e-09
2.7403038e-08
-3.3348916e-09
2.7826928e-08
-3.2747674e-09
2.8212917e-08
-3.2657224e-09
2.8489376e-08
-3.1089813e-09
2.8488889e-08
-2.8817575e-09
2.8391164e-08
-2.676573e-09
2.8527128e-08
-2.9445682e-09
2.9028755e-08
-3.4420036e-09
2.9027455e-08
-2.762067e-09
2.9323133e-08
-3.1663881e-09
2.9117384e-08
-2.5245026e-09
2.9169675e-08
-2.8843726e-09
2.8832697e-08
-2.3653727e-09
2.8403424e-08
-2.1867677e-09
2.8247246e-08
-2.7230258e-09
2.744147e-08
-1.5035064e-09
2.6704724e-08
-1.5348529e-09
2.6166559e-08
-1.9730868e-09
2.5183219e-08
-1.0546728e-09
2.4192104e-08
-1.4015966e-09
2.290807e-08
-1.5065499e-09
2.171951e-08
-1.346456e-09
2.064786e-08
-1.3517208e-09
1.9562767e-08
-1.3217036e-09
1.8374435e-08
-1.0979244e-09
1.7219027e-08
-1.1100818e-09
1.5873759e-08
-5.2433097e-10
1.4571844e-08
-7.935656e-10
1.3352655e-08
-1.0535405e-09
1.2143458e-08
-3.2598673e-10
1.1471656e-08
-1.3813005e-09
1.0209235e-08
-2.6218693e-10
9.3292136e-09
-9.0983198e-10
9.0248848e-09
-1.2083694e-09
-1.4068085e-09
8.9611828e-09
-3.1822354e-09
9.3485522e-09
-3.2032923e-09
9.7535979e-09
-3.2679115e-09
1.0155263e-08
-3.2832538e-09
1.0572605e-08
-3.3347988e-09
1.0990215e-08
-3.3550655e-09
1.1420657e-08
-3.4016311e-09
1.1853247e-08
-3.4236156e-09
1.2297839e-08
-3.4623996e-09
1.2745104e-08
-3.4985181e-09
1.3202248e-08
-3.5136816e-09
1.3664517e-08
-3.570398e-09
1.4134433e-08
-3.5708611e-09
1.4611947e-08
-3.6335074e-09
1.5091493e-08
-3.6250192e-09
1.5583913e-08
-3.6898573e-09
1.6072996e-08
-3.6820477e-09
1.6571279e-08
-3.7277473e-09
1.7070005e-08
-3.7317637e-09
1.7575464e-08
-3.7752335e-09
1.8070674e-08
-3.7556297e-09
1.8580844e-08
-3.8054642e-09
1.9076089e-08
-3.7952526e-09
1.9588895e-08
-3.8374236e-09
2.0080337e-08
-3.818288e-09
2.0575185e-08
-3.8198114e-09
2.1084525e-08
-3.861482e-09
2.1560729e-08
-3.8077223e-09
2.2076506e-08
-3.9009538e-09
2.2544776e-08
-3.8249509e-09
2.304778e-08
-3.8580247e-09
2.3539362e-08
-3.8575813e-09
2.4039e-08
-3.8704246e-09
2.4464385e-08
-3.8028934e-09
2.4830847e-08
-3.7246726e-09
2.4879248e-08
-3.4476856e-09
2.4608458e-08
-3.0385434e-09
2.4978986e-08
-3.7599185e-09
2.5060091e-08
-3.4367472e-09
2.5182955e-08
-3.502267e-09
2.5005497e-08
-3.1574333e-09
2.4654176e-08
-2.923447e-09
2.4232388e-08
-2.8439343e-09