/*--------------------------------*- C++ -*----------------------------------*\
| =========                 |                                                 |
| \\      /  F ield         | OpenFOAM: The Open Source CFD Toolbox           |
|  \\    /   O peration     | Version:  2.3.0                                 |
|   \\  /    A nd           | Web:      www.OpenFOAM.org                      |
|    \\/     M anipulation  |                                                 |
\*---------------------------------------------------------------------------*/
FoamFile
{
    version     2.0;
    format      ascii;
    class       volScalarField;
    location    "2";
    object      alpha.water;
}
// * * * * * * * * * * * * * * * * * * * * * * * * * * * * * * * * * * * * * //

dimensions      [0 0 0 0 0 0 0];

internalField   nonuniform List<scalar> 
2268
(
1
1
1
1
1
1
1
1
1
1
1
1
0.999999
0.999997
0.999997
0.999999
0.999999
0.999957
0.988918
0.978945
0.994122
0.99419
0.988995
1
1
1
1
1
1
1
1
1
1
0.999999
0.999998
0.999998
0.999997
0.999998
1
0.999999
0.999971
0.978713
0.978511
0.989883
0.996611
0.990129
1
1
1
1
1
1
1
1
0.999999
0.999999
0.999999
0.999998
0.999999
0.999999
0.999999
1
1
1
0.98527
0.978507
0.978503
0.997615
0.999881
1
1
1
1
1
1
1
1
0.999999
0.999999
0.999999
1
1
1
1
1
1
1
0.998659
0.978503
0.978503
0.994829
0.999891
1
1
1
1
1
1
1
1
0.999999
0.999999
1
1
1
1
1
1
1
1
1
0.989613
0.986003
0.996747
0.999933
1
1
1
1
1
1
1
1
1
1
1
1
1
1
1
1
1
1
1
0.999999
0.999832
0.999836
0.999974
1
1
1
1
1
1
1
1
1
1
1
1
1
1
1
1
1
0.999998
0.999996
0.999997
0.99999
0.999987
0.999987
1
1
1
1
0.999999
0.999999
0.999999
0.999999
1
1
1
1
1
1
1
1
1
1
0.999998
0.999992
0.999991
0.99999
0.999989
0.984585
0.972802
0.934497
0.93294
0.932069
0.929056
0.927614
0.92738
0.954958
0.982924
0.9954
0.99548
0.99548
0.986906
0.910958
0.907408
0.961893
0.964361
0.964361
0.984585
0.953426
0.951123
0.980145
0.98505
0.978323
0.949014
0.912469
0.909342
0.909407
0.947873
0.994305
0.99548
0.99527
0.907749
0.907315
0.907564
0.949454
0.964361
0.97391
0.954334
0.996268
0.996253
0.996256
0.996248
0.996234
0.988109
0.921131
0.909342
0.910062
0.980307
0.995281
0.995073
0.920049
0.907299
0.907198
0.926508
0.964359
0.984282
0.981059
0.995977
0.996251
0.996248
0.996233
0.996222
0.996213
0.994604
0.923787
0.949209
0.9935
0.99507
0.99508
0.976923
0.907198
0.907113
0.926447
0.964333
0.99596
0.996202
0.996231
0.996262
0.996188
0.996098
0.996097
0.996203
0.996211
0.958159
0.977719
0.994994
0.995079
0.995091
0.995115
0.90817
0.907155
0.937831
0.959984
0.986952
0.995977
0.996235
0.996284
0.996284
0.996205
0.996179
0.996214
0.996211
0.980435
0.856939
0.926944
0.994994
0.995079
0.994972
0.984244
0.911222
0.950964
0.950595
0.990162
0.995448
0.996184
0.996271
0.996332
0.996312
0.996267
0.996244
0.996227
0.882953
0.675859
0.671686
0.877582
0.994963
0.994792
0.994585
0.980384
0.976188
0.974153
0.990172
0.993025
0.994831
0.995727
0.995395
0.996262
0.99625
0.996224
0.99622
0.843457
0.671686
0.670748
0.671006
0.816795
0.974195
0.993639
0.99112
0.981647
0.973026
1
0.999996
0.999987
0.999979
0.999973
0.999972
0.999977
0.999985
0.999992
0.999997
0.999999
1
1
1
1
1
1
1
0.999999
0.999995
0.99999
0.99886
0.999992
0.721711
0.720402
0.722348
0.728725
0.744386
0.769302
0.799591
0.831402
0.860765
0.885239
0.906132
0.924983
0.941547
0.956302
0.970497
0.983294
0.991265
0.993168
0.993345
0.992004
0.987366
0.974786
0.94548
0.0328726
0.0388147
0.0413539
0.0456988
0.0544638
0.0678142
0.0859978
0.107841
0.134594
0.163978
0.193701
0.221921
0.249844
0.28017
0.314737
0.350783
0.384609
0.413485
0.428216
0.42204
0.390164
0.330555
0.24118
0.0015198
0.00151689
0.00151371
0.00148651
0.0014244
0.00135846
0.0013203
0.0013276
0.00131939
0.00132966
0.00138196
0.00141664
0.0012468
0.000498849
8.82268e-05
7.81731e-05
7.88838e-05
7.81776e-05
9.62762e-05
0.000294994
0.00114965
0.00241635
0.00360776
0.00316942
0.00331185
0.00386689
0.0052915
0.00801353
0.00864057
0.00866374
0.00392955
0.00568605
0.0102523
0.0150223
0.0151015
0.0151341
0.0151015
0.0149843
0.00185327
7.87449e-05
9.56473e-05
0.0111665
0.0262207
0.0259295
0.0237489
0.0142909
0.000273155
3.66752e-05
4.26103e-06
1.49111e-07
1.49092e-07
0.000134705
0.0014352
0.00663947
0.00740569
0.00691223
0.00610106
0.00798491
0.0114692
0.0144199
0.00639311
0.000559175
0.000196678
0.000673273
0.0165757
0.0260002
0.0264381
0.0257308
0.0195007
6.40878e-08
6.57761e-08
1.04147e-07
4.66333e-07
4.05859e-07
4.09492e-07
4.09368e-07
4.35034e-07
1.79851e-06
3.36578e-07
3.4766e-07
4.02605e-07
1.21251e-06
1.52568e-05
0.002802
0.000285876
0.00024854
0.000926154
0.000910298
0.00252684
0.00927324
0.00518542
1.36998e-05
1.35539e-09
4.37512e-08
1.61777e-06
4.02072e-06
3.82789e-06
8.56856e-07
3.66347e-06
1.19019e-05
8.34234e-06
3.11394e-07
2.26481e-06
1.17947e-05
0.000693903
0.002421
0.00274813
0.000285976
0.000219484
0.000242323
0.000939094
0.000651017
1.47366e-05
1.27556e-05
9.51428e-06
1.32324e-09
3.12774e-08
3.86814e-06
4.02072e-06
2.48517e-06
1.4829e-06
1.71291e-05
1.71728e-05
1.32157e-05
9.10899e-08
4.96563e-06
0.00023547
0.00106187
0.00232872
0.00273074
0.00253567
0.000560526
9.09901e-05
0.00116907
0.00113274
1.27556e-05
1.10795e-05
9.09161e-06
1.25002e-09
4.55334e-08
1.68437e-07
1.65034e-06
5.422e-08
1.21879e-06
4.79442e-06
1.0797e-05
1.51664e-06
5.68394e-10
2.16741e-08
1.30242e-06
5.05107e-05
0.000392465
0.00148297
0.00221986
0.000687834
5.77064e-05
0.000859002
0.00119695
0.000480677
1.27556e-05
1.89121e-05
1.12586e-09
4.95425e-10
4.87939e-10
4.82666e-10
4.78981e-10
4.76477e-10
4.75621e-10
4.75621e-10
4.75623e-10
4.77878e-10
7.38288e-09
1.6599e-07
9.25247e-08
6.63639e-07
4.86273e-05
0.000228554
0.000231375
5.12299e-05
0.000618454
0.000929385
0.000681258
4.79029e-05
1.93069e-05
3.0979e-08
5.02888e-10
1.06064e-09
1.09892e-09
1.15713e-09
1.11793e-09
8.44469e-10
4.79404e-10
4.78109e-10
4.67341e-10
3.02505e-09
2.58827e-08
3.27247e-08
5.25859e-08
3.82045e-07
1.4732e-06
1.86349e-06
4.25682e-05
0.000451645
0.000239063
9.06209e-05
4.2474e-05
2.86999e-05
6.02558e-08
5.14383e-10
1.83018e-09
2.24908e-09
2.29182e-09
2.2962e-09
1.88386e-09
8.11594e-10
4.87429e-10
4.37e-10
1.32438e-09
1.83182e-08
3.07841e-08
6.16106e-09
3.07424e-08
1.23446e-07
2.98444e-07
3.16759e-05
6.58213e-05
1.29479e-08
3.98991e-09
1.44136e-08
1.49277e-05
6.03109e-08
5.33625e-10
1.64505e-09
2.24886e-09
2.30062e-09
2.3004e-09
2.07883e-09
9.47515e-10
4.67692e-10
4.1494e-10
1.2028e-09
4.15012e-09
5.56308e-09
6.58107e-10
3.16844e-09
1.00274e-08
1.71165e-07
7.23266e-06
4.72104e-08
1.96646e-09
1.14564e-09
3.99088e-09
1.06253e-05
6.15791e-08
2.316e-09
1.29548e-09
1.32169e-09
1.84837e-09
2.07979e-09
1.94752e-09
1.14842e-09
5.03564e-10
3.12159e-10
3.11651e-10
1.97838e-10
1.60929e-10
1.77383e-10
3.6623e-10
1.00751e-09
1.33194e-08
1.66445e-08
2.28179e-09
4.66974e-10
7.12564e-10
1.14218e-09
6.41993e-06
6.1578e-08
2.50626e-08
3.30237e-09
1.07323e-09
1.13875e-09
1.28844e-09
1.3427e-09
1.30076e-09
7.45981e-10
3.19539e-10
2.22714e-10
1.80768e-10
1.50318e-10
1.37424e-10
1.29397e-10
1.63572e-10
1.90804e-10
9.57372e-10
4.28961e-10
2.79516e-10
6.95349e-10
2.19023e-08
2.35327e-05
4.34534e-08
3.4578e-08
1.69633e-08
1.07029e-09
1.06846e-09
1.06767e-09
9.88162e-10
9.16984e-10
8.41751e-10
4.61678e-10
2.38065e-10
1.72326e-10
1.45683e-10
1.37816e-10
1.07362e-10
9.58568e-11
9.539e-11
1.50747e-10
9.6165e-11
2.65031e-10
2.68884e-10
8.84449e-07
1.19319e-05
8.11953e-09
1.75214e-08
1.98148e-08
1.13526e-09
1.07519e-09
1.2752e-09
8.97256e-10
7.1281e-10
6.54856e-10
4.92984e-10
2.98122e-10
1.8554e-10
1.32332e-10
1.10906e-10
1.0263e-10
9.0448e-11
8.5732e-11
9.02581e-11
7.21992e-11
7.97901e-11
3.43831e-08
1.00064e-06
1.86211e-07
2.93023e-09
2.91487e-09
2.91189e-09
1.38718e-09
1.50663e-09
1.51021e-09
1.25554e-09
7.21607e-10
5.06612e-10
3.9565e-10
2.79474e-10
1.88209e-10
1.31206e-10
9.87605e-11
8.17213e-11
7.37527e-11
7.45852e-11
9.88025e-11
6.79008e-11
7.12593e-10
4.40426e-08
1.10069e-07
6.8614e-10
5.701e-06
1.1919e-05
1.08545e-09
1.08149e-09
1.10379e-09
1.47441e-09
1.43868e-09
9.73603e-10
4.8918e-10
3.36342e-10
2.41528e-10
1.74572e-10
1.26818e-10
9.25661e-11
6.94949e-11
5.50212e-11
4.8271e-11
5.28325e-11
6.35513e-11
9.59004e-10
4.5739e-09
3.2081e-11
2.80577e-11
3.31294e-05
3.32414e-05
2.22918e-05
1.08031e-09
1.08041e-09
1.0945e-09
1.32759e-09
1.06186e-09
5.7263e-10
3.17651e-10
2.0431e-10
1.46528e-10
1.07916e-10
8.00229e-11
5.83642e-11
4.19326e-11
3.10812e-11
2.62106e-11
2.9283e-11
1.09377e-10
1.60242e-11
1.33525e-11
2.37439e-11
3.32414e-05
3.32414e-05
3.32414e-05
4.28182e-06
9.84158e-09
8.6505e-10
8.6308e-10
8.41871e-10
5.95869e-10
3.10455e-10
1.84893e-10
1.25615e-10
8.54841e-11
6.07967e-11
4.27576e-11
2.86559e-11
2.04389e-11
1.54272e-11
1.29503e-11
1.63649e-11
1.44346e-11
1.01865e-11
1.0393e-11
1.61651e-05
3.06841e-05
2.00887e-05
3.42728e-06
1.31406e-07
2.84897e-08
8.29104e-10
8.4008e-10
5.09527e-10
2.63768e-10
1.49359e-10
1.00325e-10
6.15473e-11
3.9942e-11
2.70672e-11
1.87266e-11
1.32738e-11
9.58283e-12
7.07163e-12
5.5872e-12
4.33242e-12
3.5521e-12
3.58553e-12
5.58623e-08
2.70179e-06
4.30495e-07
3.74115e-07
7.71929e-08
1.07461e-08
7.93335e-10
8.33857e-10
4.98405e-10
2.44264e-10
1.24352e-10
6.91498e-11
4.16979e-11
2.67298e-11
1.77375e-11
1.20083e-11
8.23672e-12
5.69624e-12
3.9657e-12
2.78855e-12
1.97798e-12
1.4611e-12
1.21172e-12
1.85732e-09
5.08909e-09
1.35605e-09
4.18337e-10
1.76935e-09
4.0823e-10
3.83647e-10
3.23883e-10
2.2059e-10
1.34611e-10
7.88745e-11
4.63405e-11
2.81323e-11
1.77079e-11
1.14176e-11
7.4502e-12
4.88435e-12
3.20892e-12
2.11279e-12
1.39634e-12
9.28529e-13
6.25277e-13
4.45234e-13
9.99201e-11
2.48367e-10
9.39017e-11
7.72881e-11
8.90795e-11
1.57584e-10
1.81412e-10
1.49117e-10
1.03133e-10
6.59096e-11
4.0926e-11
2.53915e-11
1.58749e-11
9.98248e-12
6.28516e-12
3.94865e-12
2.47198e-12
1.54272e-12
9.61214e-13
5.99386e-13
3.75133e-13
2.36408e-13
1.51429e-13
2.27013e-11
3.76344e-11
3.85502e-11
6.13356e-11
8.46266e-11
9.01264e-11
7.91395e-11
6.01648e-11
4.19643e-11
2.79806e-11
1.82035e-11
1.16381e-11
7.32639e-12
4.54527e-12
2.78161e-12
1.68176e-12
1.00613e-12
5.96938e-13
3.52136e-13
2.07248e-13
1.22105e-13
7.23422e-14
4.34915e-14
1.65279e-11
2.05472e-11
3.21126e-11
3.79145e-11
3.88246e-11
3.55362e-11
2.88883e-11
2.1464e-11
1.50399e-11
1.01245e-11
6.60733e-12
4.19898e-12
2.60492e-12
1.57942e-12
9.37718e-13
5.46382e-13
3.13253e-13
1.77161e-13
9.9164e-14
5.51384e-14
3.06036e-14
1.71502e-14
1.00662e-14
3.08516e-12
8.84986e-12
1.11048e-11
1.25025e-11
1.22702e-11
1.0669e-11
8.38452e-12
6.11783e-12
4.2295e-12
2.80506e-12
1.79971e-12
1.12186e-12
6.80517e-13
4.02159e-13
2.31916e-13
1.30572e-13
7.18655e-14
3.88097e-14
2.06492e-14
1.08813e-14
5.7465e-15
3.19127e-15
2.24411e-15
4.0843e-13
1.62561e-12
2.43009e-12
2.80251e-12
2.70939e-12
2.30026e-12
1.77262e-12
1.27104e-12
8.62799e-13
5.61328e-13
3.52958e-13
2.15365e-13
1.27695e-13
7.36666e-14
4.11469e-14
2.22673e-14
1.17213e-14
6.02872e-15
3.04711e-15
1.53406e-15
8.20795e-16
6.16774e-16
9.51454e-16
5.13057e-14
2.33884e-13
3.7644e-13
4.38161e-13
4.20303e-13
3.52767e-13
2.68461e-13
1.89736e-13
1.26734e-13
8.10215e-14
4.99432e-14
2.98182e-14
1.72869e-14
9.63069e-15
5.15431e-15
2.6607e-15
1.33103e-15
6.49179e-16
3.13578e-16
1.64054e-16
1.39973e-16
2.85828e-16
8.38276e-16
6.10669e-15
2.72007e-14
4.33374e-14
4.97841e-14
4.72113e-14
3.92765e-14
2.96368e-14
2.07422e-14
1.36868e-14
8.60179e-15
5.20103e-15
3.03713e-15
1.6881e-15
8.94171e-16
4.53242e-16
2.20907e-16
1.04176e-16
4.84123e-17
2.51056e-17
2.57652e-17
6.9456e-17
2.44381e-16
8.37751e-16
6.9213e-16
2.79211e-15
4.11345e-15
4.50187e-15
4.15183e-15
3.39377e-15
2.52646e-15
1.74506e-15
1.13463e-15
7.01776e-16
4.11309e-16
2.27218e-16
1.18717e-16
5.89163e-17
2.79066e-17
1.26968e-17
5.66625e-18
2.93288e-18
3.73061e-18
1.28601e-17
5.31165e-17
2.10678e-16
7.828e-16
7.46772e-17
2.71022e-16
3.57898e-16
3.63555e-16
3.1857e-16
2.51718e-16
1.82031e-16
1.22712e-16
7.68375e-17
4.4835e-17
2.44638e-17
1.25306e-17
6.0514e-18
2.7689e-18
1.20822e-18
5.14273e-19
2.62655e-19
4.02699e-19
1.70209e-18
8.18227e-18
3.74593e-17
1.60734e-16
6.46584e-16
7.33105e-18
2.49171e-17
2.9892e-17
2.80015e-17
2.29391e-17
1.69856e-17
1.15105e-17
7.18078e-18
4.13989e-18
2.21378e-18
1.10249e-18
5.13701e-19
2.25104e-19
9.3381e-20
3.74924e-20
1.81839e-20
3.02572e-20
1.49285e-19
8.36356e-19
4.45871e-18
2.21944e-17
1.03242e-16
4.51008e-16
6.21647e-19
2.00153e-18
2.19309e-18
1.88848e-18
1.4259e-18
9.70899e-19
6.01899e-19
3.41332e-19
1.77768e-19
8.54061e-20
3.80472e-20
1.58068e-20
6.16684e-21
2.30448e-21
1.00598e-21
1.51729e-21
7.95589e-21
5.16242e-20
3.26299e-19
1.91926e-18
1.04583e-17
5.31218e-17
2.53637e-16
4.57144e-20
1.40705e-19
1.40904e-19
1.1109e-19
7.67737e-20
4.7535e-20
2.65525e-20
1.34413e-20
6.19738e-21
2.61834e-21
1.02058e-21
3.69864e-22
1.26831e-22
4.79972e-23
5.41634e-23
2.46049e-22
1.69576e-21
1.2829e-20
9.21567e-20
6.06815e-19
3.67232e-18
2.06375e-17
1.08973e-16
2.93107e-21
8.82128e-21
8.06653e-21
5.83438e-21
3.67424e-21
2.04926e-21
1.01596e-21
4.50022e-22
1.79443e-22
6.49828e-23
2.15794e-23
6.68144e-24
2.16879e-24
1.68328e-24
5.39997e-24
2.73624e-23
2.20483e-22
1.99965e-21
1.67782e-20
1.26981e-19
8.74311e-19
5.55191e-18
3.29964e-17
1.74182e-22
4.90475e-22
4.14381e-22
2.77e-22
1.59659e-22
7.95368e-23
3.43764e-23
1.29954e-23
4.34864e-24
1.30548e-24
3.57912e-25
9.86422e-26
5.53904e-26
1.23113e-25
3.87906e-25
1.46218e-24
1.38588e-23
1.58305e-22
1.62549e-21
1.47853e-20
1.20656e-19
8.97334e-19
6.18381e-18
1.05549e-23
2.33687e-23
1.92838e-23
1.2148e-23
6.47668e-24
2.86181e-24
1.05335e-24
3.27842e-25
8.80138e-26
2.08532e-26
4.72751e-27
2.04278e-27
3.51474e-27
8.41669e-27
1.62753e-26
3.04822e-26
2.79584e-25
4.26724e-24
5.81014e-23
6.89982e-22
7.2388e-21
6.81172e-20
5.84871e-19
6.31129e-25
9.39828e-25
8.06016e-25
5.11783e-25
2.53352e-25
9.75081e-26
2.93372e-26
7.05499e-27
1.40058e-27
2.46322e-28
7.82801e-29
1.29305e-28
2.58019e-28
4.27356e-28
4.18421e-28
2.61145e-28
7.01231e-28
1.53455e-26
3.28816e-25
6.07775e-24
9.80531e-23
1.39963e-21
1.79228e-20
3.45905e-26
2.59531e-26
2.85452e-26
1.94952e-26
9.04011e-27
2.98569e-27
6.96396e-28
1.14991e-28
1.40559e-29
2.44487e-30
4.39074e-30
9.81287e-30
1.44783e-29
1.4752e-29
5.69721e-30
1.17653e-30
1.64017e-31
8.55506e-32
3.99991e-30
2.00718e-28
8.81829e-27
3.45274e-25
1.22501e-23
0.999144
0.996832
0.992719
0.986275
0.904935
0.864648
0.813772
0.747243
0.156191
0.099375
0.0119866
0.00366854
0.00443338
0.00464218
0.00368574
0.00305642
0.00828051
0.015405
0.0276765
0.0207251
0.0301539
0.0302726
0.0303665
0.0306899
0.000155165
0.00179953
0.0237916
0.0310133
4.01418e-06
1.80205e-07
-1.54059e-06
0.000260694
3.53427e-06
9.23944e-07
3.19393e-07
3.02374e-07
5.85483e-05
1.38082e-05
3.17636e-07
3.12668e-07
0.00012602
5.8524e-05
3.12651e-07
3.01803e-07
0.000151319
0.00014792
7.27195e-06
3.00663e-07
0.000151319
0.000150925
2.42612e-05
1.83797e-07
0.000151319
0.000124018
2.08469e-08
4.38328e-08
0.000144807
7.95561e-05
5.84168e-09
2.08501e-08
2.42402e-05
1.19449e-10
2.82046e-10
5.63838e-09
1.22463e-10
1.16368e-10
9.54966e-11
8.67637e-11
2.52083e-10
8.19567e-11
8.97233e-11
7.86774e-11
5.70252e-11
7.78448e-11
8.50737e-11
7.44639e-11
5.0104e-11
5.19272e-11
6.28616e-11
6.63041e-11
2.86196e-11
3.7797e-11
4.45782e-11
5.08061e-11
1.3063e-11
1.71906e-11
2.10765e-11
2.57834e-11
4.0966e-12
5.0684e-12
6.3071e-12
8.08707e-12
1.18826e-12
1.26959e-12
1.45145e-12
1.79211e-12
3.87712e-13
3.55837e-13
3.48417e-13
3.71981e-13
1.22048e-13
1.01709e-13
8.91091e-14
8.35489e-14
3.35579e-14
2.64421e-14
2.17539e-14
1.91641e-14
7.80843e-15
6.35154e-15
5.56519e-15
5.39259e-15
2.08934e-15
2.19332e-15
2.55557e-15
3.2e-15
1.23748e-15
1.68168e-15
2.32684e-15
3.23257e-15
1.21479e-15
1.75519e-15
2.5203e-15
3.59194e-15
1.24286e-15
1.83173e-15
2.68143e-15
3.90002e-15
1.18063e-15
1.77219e-15
2.64975e-15
3.95192e-15
9.91297e-16
1.5173e-15
2.32481e-15
3.58031e-15
7.03009e-16
1.09937e-15
1.73642e-15
2.79812e-15
4.02451e-16
6.46347e-16
1.06766e-15
1.8523e-15
1.76651e-16
2.95397e-16
5.27624e-16
1.03893e-15
5.51677e-17
9.94483e-17
2.0533e-16
4.92184e-16
1.09827e-17
2.32891e-17
6.16373e-17
1.89719e-16
1.22688e-18
3.68521e-18
1.36234e-17
5.52937e-17
6.45077e-20
3.39087e-19
1.77315e-18
1.0651e-17
2.43511e-22
3.47897e-21
4.90371e-20
9.49933e-19
0.973053
0.879271
0.798807
0.814509
0.869707
0.912723
0.929835
0.989618
0.996123
0.958887
0.813379
0.670905
0.670748
0.671006
0.687171
0.76228
0.94752
0.981446
0.978101
0.472899
0.173112
0.127081
0.205854
0.371955
0.539792
0.607135
0.785069
0.919309
0.949427
0.930311
0.871523
0.742347
0.673528
0.674869
0.801093
0.976214
0.980346
0.979341
0.00305719
0.00300087
0.00315396
0.00406413
0.00670819
0.0687669
0.220789
0.350657
0.543567
0.775395
0.887938
0.885782
0.883683
0.881094
0.91291
0.967856
0.979057
0.979341
0.979056
0.00300224
0.00299238
0.00300224
0.00316161
0.0034012
0.00372385
0.0218961
0.0329762
0.0440891
0.156186
0.402053
0.600433
0.659776
0.716056
0.764495
0.774243
0.771049
0.861437
0.961818
0.00437702
0.0030009
0.00299238
0.00304103
0.00319875
0.00344721
0.00375113
0.00406866
0.00423361
0.00422274
0.0157277
0.156727
0.26791
0.298494
0.314454
0.322429
0.29903
0.440309
0.785676
0.0309862
0.00940292
0.00304103
0.00309311
0.0086752
0.0170534
0.0206071
0.0195481
0.0192187
0.0150383
0.0152079
0.0219545
0.0915058
0.131425
0.17658
0.215578
0.184688
0.165753
0.375813
0.0310133
0.0310133
0.029466
0.0329366
0.0341263
0.034333
0.0343619
0.0343619
0.0343619
0.0342887
0.0236296
0.0152514
0.0145941
0.0526155
0.133867
0.196965
0.184077
0.0961494
0.0935736
0.00109179
0.0104474
0.0196726
0.0220438
0.0189753
0.0150486
0.0134142
0.0139083
0.0183741
0.0260246
0.0271386
0.01948
0.000345141
0.00563676
0.0213639
0.0339976
0.0476457
0.0478827
0.0187722
1.60421e-07
3.74189e-05
0.000115666
0.000117787
2.7161e-05
1.06294e-05
1.05596e-05
1.05596e-05
1.05596e-05
1.35543e-05
0.00701527
0.00942201
0.000231137
3.56403e-05
3.61365e-05
3.49581e-05
3.80749e-05
4.69905e-05
6.81287e-05
3.18185e-07
3.29219e-07
4.34534e-07
9.88747e-06
8.76774e-05
0.00014753
0.000144675
9.7125e-05
6.04977e-05
4.94611e-05
3.74128e-05
0.000310151
0.000309706
3.13493e-05
3.5398e-05
3.35884e-05
5.38448e-05
6.07393e-05
7.93784e-05
3.12636e-07
3.31184e-07
5.23378e-07
7.35465e-05
0.000282294
0.000282116
0.000281405
0.000280986
0.000280719
0.000151164
3.66246e-05
3.68688e-05
8.9546e-05
2.98763e-05
2.90782e-05
3.13091e-05
4.40301e-05
5.79092e-05
7.58124e-05
3.01795e-07
3.22505e-07
4.40654e-07
5.54121e-05
0.000282331
0.00028151
0.00028065
0.00028016
0.000280256
0.000265861
2.43057e-05
2.3336e-05
2.24976e-05
2.69223e-05
2.95804e-05
3.09938e-05
7.42209e-05
0.000132208
0.000142376
1.05445e-06
7.17966e-07
8.76512e-07
1.10316e-06
8.18104e-05
0.000281111
0.000280062
0.000280344
0.000275684
0.000240268
4.17499e-05
2.24976e-05
2.13932e-05
2.07425e-05
4.37484e-05
0.00014075
0.000157255
0.00015724
0.000157204
5.1145e-06
1.62397e-05
1.288e-05
4.6113e-06
5.02466e-06
0.00011997
0.000277486
9.59307e-05
4.66184e-06
0.000113189
0.000178188
0.000170347
2.81547e-05
6.45403e-06
8.14836e-05
0.000157229
0.000157248
0.000157229
0.000157033
6.46934e-06
2.84818e-05
2.84987e-05
1.04799e-05
7.91773e-06
1.4703e-05
2.64078e-05
4.65245e-06
2.69398e-06
5.86322e-05
0.000178188
0.000177744
0.000133479
3.43788e-06
1.71163e-05
9.72686e-05
0.000157277
0.000157016
0.000123626
6.80165e-06
2.85034e-05
2.85079e-05
2.85115e-05
1.32066e-05
5.45504e-07
1.30566e-07
1.18039e-06
2.51998e-06
4.61904e-06
5.16529e-05
8.78399e-05
5.0076e-05
2.66898e-06
5.50257e-06
6.42532e-05
0.000157281
7.92666e-05
8.2693e-07
1.41345e-06
2.28558e-05
2.85055e-05
2.85141e-05
2.85143e-05
1.88071e-05
3.76368e-08
3.76357e-08
3.76358e-08
3.76847e-08
3.84879e-08
8.57032e-08
4.4956e-08
2.84481e-07
1.16954e-05
7.07647e-05
5.25305e-05
2.43031e-07
2.39118e-07
6.74075e-11
6.54554e-06
2.85024e-05
2.85055e-05
2.8499e-05
2.84878e-05
7.18154e-06
3.76357e-08
3.76621e-08
3.89706e-08
3.9793e-08
3.73042e-08
3.36896e-08
3.05176e-07
7.04836e-06
8.70803e-06
1.13577e-08
4.34164e-07
4.83993e-06
3.68269e-11
2.68109e-11
6.77328e-06
2.60498e-05
2.84874e-05
2.8248e-05
9.19391e-06
3.76615e-08
6.60112e-08
6.82209e-07
7.6952e-07
3.58147e-08
3.3688e-08
7.47543e-08
1.51713e-07
1.50449e-09
1.02069e-09
3.23084e-06
5.4413e-05
5.22841e-11
2.68109e-11
2.5557e-11
2.5557e-11
6.54535e-06
9.54657e-06
3.90146e-06
3.82968e-08
1.04283e-07
9.41882e-07
1.18123e-06
1.10696e-06
1.25414e-07
1.48316e-09
1.4831e-09
1.4344e-09
1.98369e-10
5.07372e-06
6.02154e-05
4.82335e-11
3.53695e-11
2.65916e-11
2.55746e-11
2.55553e-11
2.55553e-11
2.55624e-11
1.47895e-07
7.14281e-07
1.11401e-06
1.18123e-06
1.18123e-06
3.64469e-07
1.48317e-09
1.49019e-09
1.89698e-09
1.92359e-10
5.01458e-06
6.02154e-05
3.52951e-11
3.17381e-11
2.76937e-11
2.58872e-11
2.789e-11
3.04754e-11
2.57697e-11
1.07588e-09
4.63314e-07
9.13197e-07
8.28736e-07
2.38561e-07
5.08242e-08
3.2846e-09
2.72415e-09
1.45941e-09
1.85508e-10
7.78298e-06
6.01958e-05
1.38229e-11
1.78699e-11
2.00755e-11
2.20414e-11
2.5282e-11
3.11004e-11
3.68672e-11
3.69906e-11
3.74638e-11
5.11988e-07
8.07155e-07
3.05143e-07
7.64032e-09
5.92707e-09
1.86537e-09
4.24037e-10
1.81794e-10
1.09762e-05
6.00542e-05
3.45014e-12
5.83689e-12
9.81331e-12
1.4544e-11
1.99586e-11
2.60676e-11
3.29186e-11
4.05578e-11
3.79315e-11
1.08621e-08
2.26275e-07
3.15499e-07
3.00095e-07
9.35665e-08
2.93208e-09
1.85433e-10
1.77655e-10
8.88283e-06
5.98052e-05
6.54035e-13
1.35089e-12
3.17084e-12
6.31011e-12
1.16354e-11
1.93653e-11
2.62077e-11
3.17583e-11
3.78704e-11
3.31683e-11
3.48687e-11
6.20776e-08
1.35784e-07
1.13175e-07
2.50089e-08
1.79663e-10
1.58516e-10
1.05894e-06
5.69341e-05
1.14804e-13
2.59966e-13
7.98553e-13
2.13514e-12
5.06994e-12
1.01583e-11
1.56728e-11
2.07885e-11
2.54671e-11
3.08573e-11
3.41944e-11
3.43649e-11
3.65643e-11
4.85716e-09
5.65278e-09
1.33084e-09
1.39571e-10
1.58774e-10
4.61976e-05
2.37605e-14
5.51094e-14
1.93235e-13
6.48834e-13
1.86997e-12
4.36878e-12
7.82352e-12
1.18185e-11
1.6516e-11
2.42648e-11
3.37075e-11
3.82132e-11
4.51108e-11
4.51543e-11
4.56713e-11
1.33683e-10
1.36345e-10
1.42001e-10
4.9184e-05
9.45101e-15
2.3679e-14
7.18543e-14
2.35461e-13
7.17152e-13
1.8403e-12
3.76598e-12
6.5252e-12
1.04428e-11
1.70213e-11
2.55223e-11
3.95596e-11
6.17267e-11
8.42392e-11
1.51743e-10
1.42447e-10
1.39107e-10
8.25707e-06
5.04335e-05
8.23852e-15
2.15829e-14
5.58071e-14
1.47744e-13
3.92321e-13
9.74371e-13
2.1164e-12
4.04144e-12
7.15297e-12
1.24224e-11
2.01005e-11
3.22406e-11
5.07305e-11
7.72133e-11
1.38872e-10
1.41056e-10
1.42371e-10
1.27178e-05
5.04335e-05
9.37055e-15
2.4988e-14
6.19069e-14
1.46755e-13
3.39371e-13
7.59306e-13
1.59622e-12
3.10762e-12
5.70318e-12
1.0122e-11
1.70365e-11
2.78964e-11
4.44571e-11
6.93619e-11
1.50892e-10
1.47112e-10
1.44388e-10
1.07725e-05
5.04335e-05
1.13936e-14
3.14948e-14
7.76234e-14
1.76024e-13
3.78218e-13
7.80212e-13
1.54226e-12
2.90672e-12
5.25458e-12
9.21318e-12
1.55969e-11
2.581e-11
4.15932e-11
6.50768e-11
1.93388e-10
2.18668e-10
1.46222e-10
3.1572e-06
5.03815e-05
1.45353e-14
4.34002e-14
1.08198e-13
2.37295e-13
4.81084e-13
9.2819e-13
1.7231e-12
3.08693e-12
5.36341e-12
9.11016e-12
1.52001e-11
2.53714e-11
4.12996e-11
6.49663e-11
2.28791e-10
4.12844e-10
1.50368e-10
1.57534e-10
4.23178e-05
1.92848e-14
6.56175e-14
1.68125e-13
3.61122e-13
6.95868e-13
1.25782e-12
2.18209e-12
3.67113e-12
6.0341e-12
9.78851e-12
1.59864e-11
2.70509e-11
4.36429e-11
7.34144e-11
3.49795e-10
4.21915e-10
1.57098e-10
3.64795e-06
2.33428e-05
2.50381e-14
9.99564e-14
2.71889e-13
5.92079e-13
1.11896e-12
1.93324e-12
3.15494e-12
4.96387e-12
7.63943e-12
1.16908e-11
1.85652e-11
3.11776e-11
4.76896e-11
8.68079e-11
4.92181e-10
5.38251e-10
1.65989e-10
1.60103e-05
3.33605e-05
2.9307e-14
1.37179e-13
4.11853e-13
9.52134e-13
1.85144e-12
3.17618e-12
4.98651e-12
7.39957e-12
1.06943e-11
1.54588e-11
2.36481e-11
3.78561e-11
5.29354e-11
1.07176e-10
7.88029e-10
7.86272e-10
1.7609e-10
1.40826e-05
3.33605e-05
2.93295e-14
1.56644e-13
5.37914e-13
1.39135e-12
2.93912e-12
5.24265e-12
8.18494e-12
1.16637e-11
1.5997e-11
2.22521e-11
3.31567e-11
4.98845e-11
6.37711e-11
1.75653e-10
1.15144e-09
1.02956e-09
1.91992e-10
4.12963e-06
1.3231e-05
2.38562e-14
1.42544e-13
5.83478e-13
1.7928e-12
4.36661e-12
8.55556e-12
1.39193e-11
1.96917e-11
2.58841e-11
3.48518e-11
5.18732e-11
7.78611e-11
1.00095e-10
4.34714e-10
1.44609e-09
1.35846e-09
2.55703e-10
2.72072e-10
2.079e-09
1.47902e-14
1.01186e-13
5.1659e-13
1.99689e-12
5.88333e-12
1.32866e-11
2.3513e-11
3.43475e-11
4.43666e-11
5.70005e-11
8.51854e-11
1.44197e-10
3.10488e-10
1.03306e-09
1.49127e-09
1.40314e-09
4.68029e-10
4.04011e-10
2.22637e-09
6.50158e-15
5.44912e-14
3.5476e-13
1.79431e-12
6.74315e-12
1.77953e-11
3.53287e-11
5.52264e-11
7.31106e-11
9.08019e-11
1.29909e-10
2.97819e-10
7.11138e-10
1.16542e-09
1.19686e-09
9.37747e-10
3.6563e-10
3.63667e-10
4.55164e-09
1.93346e-15
2.24125e-14
1.9761e-13
1.30542e-12
6.36177e-12
1.9447e-11
4.36761e-11
7.55156e-11
1.04841e-10
1.33669e-10
1.89013e-10
3.62832e-10
7.1406e-10
8.75109e-10
7.36394e-10
3.65371e-10
3.62264e-10
3.62029e-10
6.65282e-09
3.68408e-16
6.91666e-15
8.61161e-14
7.58971e-13
4.72835e-12
1.66253e-11
4.33638e-11
8.67087e-11
1.40168e-10
1.79018e-10
2.44803e-10
3.77954e-10
4.16948e-10
5.3505e-10
1.77143e-08
3.81556e-10
1.32858e-06
3.63182e-10
1.71238e-08
3.79604e-17
1.32351e-15
2.35522e-14
2.62869e-13
2.61261e-12
1.0921e-11
3.69644e-11
8.25213e-11
1.62732e-10
2.77077e-10
3.4924e-10
4.68379e-10
4.69681e-10
4.56242e-10
4.56437e-10
9.68979e-07
2.12684e-06
2.08697e-06
2.05973e-07
)
;

boundaryField
{
    leftWall
    {
        type            zeroGradient;
    }
    rightWall
    {
        type            zeroGradient;
    }
    lowerWall
    {
        type            zeroGradient;
    }
    atmosphere
    {
        type            inletOutlet;
        inletValue      uniform 0;
        value           nonuniform List<scalar> 
46
(
0
0
0
0
0
0
0
0
0
0
0
0
0
0
0
0
0
0
0
0
0
0
0
0
0
0
0
0
0
0
0
0
0
0
8.25213e-11
1.62732e-10
2.77077e-10
3.4924e-10
4.68379e-10
4.69681e-10
4.56242e-10
4.56437e-10
9.68979e-07
2.12684e-06
2.08697e-06
2.05973e-07
)
;
    }
    defaultFaces
    {
        type            empty;
    }
}


// ************************************************************************* //
