/*--------------------------------*- C++ -*----------------------------------*\
| =========                 |                                                 |
| \\      /  F ield         | OpenFOAM: The Open Source CFD Toolbox           |
|  \\    /   O peration     | Version:  2.3.0                                 |
|   \\  /    A nd           | Web:      www.OpenFOAM.org                      |
|    \\/     M anipulation  |                                                 |
\*---------------------------------------------------------------------------*/
FoamFile
{
    version     2.0;
    format      ascii;
    class       volScalarField;
    location    "2";
    object      epsilon;
}
// * * * * * * * * * * * * * * * * * * * * * * * * * * * * * * * * * * * * * //

dimensions      [0 2 -3 0 0 0 0];

internalField   nonuniform List<scalar> 
2268
(
0.0093886
0.0445936
0.0808115
0.113367
0.142999
0.170624
0.196691
0.221214
0.244378
0.266351
0.28732
0.307527
0.326981
0.344812
0.360023
0.370931
0.374973
0.36841
0.342828
0.298444
0.231877
0.142017
0.0468685
0.015621
0.0290168
0.0444613
0.0589339
0.0723714
0.0849631
0.0968294
0.108077
0.118743
0.128832
0.138338
0.14728
0.155669
0.163286
0.169952
0.175305
0.178564
0.178292
0.172124
0.156931
0.129827
0.0948283
0.0743277
0.0241058
0.0296717
0.0406365
0.0514283
0.0616343
0.071267
0.0804075
0.0891048
0.0973765
0.105218
0.112624
0.119618
0.126256
0.132543
0.138508
0.144042
0.148685
0.15144
0.150646
0.144135
0.130686
0.114339
0.131103
0.0329983
0.0328559
0.041518
0.0506429
0.0594917
0.0679488
0.0760205
0.0837305
0.091096
0.0981294
0.104858
0.11136
0.117775
0.124267
0.131016
0.138047
0.145009
0.151036
0.154754
0.154774
0.151187
0.149472
0.206675
0.0421097
0.0370065
0.044027
0.0521452
0.0602522
0.0681006
0.0756394
0.0828757
0.0898356
0.0965598
0.103128
0.109696
0.116522
0.123936
0.13228
0.141696
0.151874
0.161956
0.170758
0.177604
0.184288
0.200507
0.316214
0.0508447
0.0415726
0.0473433
0.054783
0.0624376
0.0699418
0.0771993
0.0842091
0.0910128
0.0976902
0.104389
0.11137
0.119047
0.127951
0.138629
0.151359
0.165825
0.181057
0.195962
0.210657
0.229586
0.271875
0.478652
0.0591757
0.0462815
0.051103
0.0580869
0.0654684
0.0727846
0.0799084
0.0868399
0.0936452
0.100454
0.107499
0.115178
0.124102
0.135068
0.148896
0.166048
0.186136
0.207876
0.230069
0.253667
0.286919
0.368351
0.77346
0.0671384
0.0509625
0.0550991
0.0618097
0.0690513
0.0762871
0.0833764
0.0903329
0.0972571
0.104339
0.111921
0.120568
0.131148
0.144806
0.162746
0.185683
0.213054
0.242899
0.273528
0.306494
0.353879
0.484946
1.62195
0.12224
0.353965
0.653282
0.806707
0.819025
0.791761
0.756541
0.713704
0.639115
0.521466
0.412765
0.312546
0.226633
0.159658
0.108026
0.0835824
0.0691772
0.052572
0.0246669
0.128205
0.237655
0.359791
0.415597
0.412886
0.392719
0.369366
0.343514
0.309793
0.267591
0.229287
0.190217
0.152134
0.116999
0.0862936
0.0636256
0.0481339
0.0358952
0.0328041
0.161159
0.244911
0.340201
0.369832
0.359329
0.336226
0.31184
0.286787
0.257991
0.225821
0.196205
0.16789
0.140175
0.113158
0.0866679
0.0647696
0.0499839
0.0416586
0.0505538
0.175536
0.29073
0.363884
0.376519
0.357194
0.328757
0.300715
0.273216
0.243763
0.213202
0.185432
0.160384
0.136439
0.112829
0.0886748
0.068145
0.0545935
0.0495326
0.0701444
0.217257
0.368207
0.414055
0.405816
0.374617
0.338682
0.305093
0.273188
0.240783
0.209235
0.181384
0.157138
0.134704
0.112977
0.0909002
0.0719831
0.0601998
0.0581608
0.0920176
0.347722
0.497421
0.48818
0.449728
0.402908
0.357374
0.316533
0.278682
0.242004
0.208463
0.179962
0.155661
0.133861
0.113374
0.0932219
0.0761496
0.0663008
0.0675938
0.116218
0.81722
0.694939
0.580573
0.501769
0.43676
0.380182
0.330762
0.285881
0.244316
0.208559
0.179601
0.155305
0.13387
0.114276
0.0957839
0.080594
0.0726492
0.0772737
0.141178
1.72371
0.907742
0.667936
0.552311
0.470986
0.403237
0.344553
0.292244
0.245947
0.208307
0.179555
0.155913
0.134893
0.115969
0.0988118
0.085272
0.0790516
0.0869224
0.167568
0.0787503
0.0579867
0.0614212
0.067954
0.0751477
0.0823879
0.0895451
0.0966756
0.10395
0.111674
0.120392
0.131
0.144864
0.163846
0.190005
0.224626
0.266597
0.311913
0.357132
0.403785
0.464177
0.583446
0.95472
0.0934636
0.0668672
0.070215
0.0770329
0.0844607
0.0918904
0.099314
0.10691
0.114989
0.12408
0.135129
0.149698
0.170232
0.200241
0.244024
0.304535
0.378402
0.453123
0.518584
0.574907
0.630314
0.70462
0.835288
0.110368
0.0759812
0.0794974
0.0867881
0.0944483
0.101985
0.109656
0.117804
0.126891
0.137712
0.151778
0.171573
0.201066
0.246297
0.315807
0.417058
0.541949
0.653787
0.730909
0.780406
0.811877
0.837839
0.87252
0.139448
0.086632
0.0888714
0.0964458
0.104435
0.112022
0.119864
0.12857
0.138629
0.151217
0.168636
0.194554
0.234715
0.298255
0.401232
0.565324
0.778299
0.931143
0.99041
1.00395
0.99054
0.961444
0.940862
0.164438
0.0955609
0.0965792
0.103831
0.111953
0.119856
0.128077
0.137503
0.148645
0.162667
0.182893
0.214311
0.263867
0.343818
0.483016
0.74334
1.08326
1.11539
1.07044
1.01745
0.962621
0.899953
0.853799
0.1427
0.100132
0.103534
0.110758
0.118848
0.126499
0.134212
0.143715
0.155086
0.170331
0.19298
0.228222
0.283287
0.371513
0.520891
0.769294
0.996416
1.00025
0.923594
0.855725
0.798322
0.746361
0.702344
0.147126
0.10982
0.109769
0.115092
0.122169
0.129459
0.136893
0.146286
0.158649
0.175654
0.200834
0.239284
0.297399
0.384848
0.518672
0.691713
0.824682
0.862937
0.824883
0.755485
0.698176
0.652678
0.612136
0.174726
0.122996
0.116938
0.118816
0.123644
0.129926
0.137573
0.147623
0.161018
0.179773
0.206826
0.24582
0.300843
0.37926
0.488613
0.615953
0.707227
0.751672
0.741582
0.688618
0.64469
0.602306
0.5527
0.207126
0.133989
0.123108
0.122466
0.125575
0.130828
0.138042
0.147892
0.1614
0.180383
0.207116
0.244355
0.295197
0.3629
0.448659
0.541293
0.613825
0.655279
0.648368
0.61207
0.583845
0.547866
0.501074
0.23628
0.141324
0.126824
0.124587
0.126631
0.131057
0.137526
0.146497
0.158996
0.176647
0.201489
0.236296
0.283534
0.342044
0.408796
0.477218
0.533715
0.567183
0.561998
0.534504
0.509602
0.482025
0.445411
0.262692
0.14644
0.128442
0.124814
0.12604
0.129821
0.13563
0.143759
0.155106
0.170971
0.1931
0.22368
0.264512
0.314334
0.368328
0.420791
0.463166
0.486151
0.482272
0.46404
0.444135
0.421297
0.392908
0.285103
0.150187
0.12865
0.123544
0.123939
0.127138
0.132417
0.139884
0.150186
0.164325
0.183562
0.20929
0.24248
0.282321
0.325336
0.366131
0.398017
0.41445
0.413273
0.402637
0.38813
0.369409
0.347411
0.297837
0.151374
0.127368
0.121042
0.12066
0.123303
0.1281
0.134998
0.144403
0.156997
0.173599
0.195002
0.221606
0.252704
0.28589
0.317166
0.341551
0.354669
0.355943
0.349977
0.339486
0.325401
0.308786
0.301478
0.149886
0.124588
0.117449
0.116447
0.118593
0.122936
0.129293
0.137873
0.149092
0.163433
0.181299
0.20276
0.227154
0.252721
0.276599
0.295308
0.306016
0.308522
0.305273
0.298109
0.287987
0.275672
0.297154
0.145754
0.120301
0.11283
0.111444
0.113194
0.117111
0.122929
0.130713
0.140681
0.153086
0.168082
0.185557
0.204889
0.224739
0.243059
0.257482
0.266208
0.269124
0.267605
0.262908
0.255779
0.246739
0.285801
0.139213
0.114578
0.107234
0.105715
0.1072
0.110738
0.116023
0.123024
0.131828
0.142532
0.155144
0.169454
0.184897
0.200439
0.21462
0.225853
0.233002
0.235973
0.235555
0.23259
0.227633
0.221031
0.267742
0.13054
0.107566
0.100742
0.0993188
0.100663
0.103881
0.108653
0.114893
0.122604
0.131789
0.142369
0.154103
0.166498
0.178761
0.18986
0.198736
0.204665
0.207556
0.20785
0.20611
0.202743
0.19799
0.243827
0.120062
0.099465
0.0934745
0.0923274
0.0936384
0.0965966
0.100893
0.106414
0.113113
0.12094
0.129779
0.139391
0.149369
0.159117
0.167912
0.175047
0.180049
0.182823
0.183609
0.182775
0.18061
0.177295
0.215833
0.108251
0.0905241
0.0855859
0.0848438
0.0862067
0.0889655
0.0928386
0.0977032
0.10349
0.110125
0.117485
0.125357
0.13342
0.141236
0.148304
0.154149
0.158454
0.161117
0.162269
0.162139
0.160925
0.15876
0.186037
0.0956347
0.0810304
0.0772647
0.077009
0.0784872
0.0811036
0.0846145
0.0889033
0.0938951
0.0995117
0.105639
0.112105
0.118664
0.125003
0.130777
0.135667
0.139446
0.142019
0.143455
0.143885
0.143435
0.142197
0.156077
0.0827085
0.0713031
0.0687481
0.069013
0.0706465
0.0731681
0.0763787
0.0801779
0.0844975
0.0892676
0.0943938
0.0997427
0.105135
0.110354
0.11516
0.119338
0.122711
0.125215
0.12687
0.127741
0.127899
0.1274
0.126845
0.0700221
0.061698
0.0603179
0.0610909
0.0628904
0.0653479
0.0683117
0.0717037
0.0754692
0.0795524
0.083881
0.0883571
0.0928551
0.09723
0.101305
0.104932
0.107996
0.110439
0.112253
0.113458
0.114086
0.114166
0.100277
0.0582558
0.0526136
0.0522652
0.0534912
0.0554404
0.0578473
0.0606061
0.0636631
0.0669796
0.0705149
0.0742173
0.0780175
0.081828
0.0855469
0.0890618
0.0922695
0.0950881
0.0974653
0.0993773
0.10082
0.101796
0.102317
0.0770589
0.0475868
0.0443096
0.0448463
0.0464542
0.048524
0.0508814
0.0534639
0.0562414
0.0591908
0.062286
0.0654925
0.0687638
0.0720415
0.0752573
0.0783373
0.0812111
0.0838182
0.0861135
0.0880668
0.0896591
0.090879
0.0917221
0.0591551
0.0386275
0.0371829
0.0383631
0.040228
0.0423598
0.0446513
0.0470722
0.0496107
0.0522566
0.0549953
0.0578058
0.0606584
0.0635157
0.0663331
0.0690621
0.0716544
0.0740654
0.0762573
0.0781991
0.0798658
0.0812379
0.0823033
0.0475359
0.0320236
0.0316102
0.0331024
0.0350528
0.0371587
0.0393479
0.0416051
0.0439279
0.0463134
0.048755
0.0512406
0.0537525
0.0562671
0.0587563
0.0611884
0.0635302
0.0657493
0.0678149
0.0696987
0.0713751
0.072822
0.0740237
0.0414103
0.0278233
0.0277009
0.0291977
0.0310726
0.0330651
0.0351093
0.0371908
0.0393075
0.041459
0.0436423
0.045851
0.0480746
0.050299
0.0525061
0.0546757
0.0567852
0.0588113
0.0607299
0.0625171
0.0641497
0.0656065
0.0668709
0.039166
0.0256191
0.0253048
0.0266063
0.0283016
0.0301219
0.0319908
0.0338858
0.035801
0.0377347
0.0396851
0.0416487
0.0436194
0.0455886
0.047545
0.0494751
0.051364
0.0531952
0.0549507
0.0566114
0.058158
0.059572
0.0608379
0.0394941
0.0249307
0.0241796
0.0251929
0.0266639
0.0282882
0.02997
0.0316763
0.0333956
0.0351242
0.0368601
0.0386013
0.0403443
0.0420836
0.0438122
0.0455224
0.0472036
0.0488428
0.0504264
0.0519398
0.0533676
0.0546952
0.0559097
0.0416678
0.0254141
0.0241214
0.0248199
0.026059
0.0274853
0.0289813
0.0305032
0.0320347
0.0335697
0.0351064
0.0366432
0.0381781
0.039708
0.0412296
0.0427358
0.0442188
0.0456698
0.0470786
0.0484341
0.0497247
0.0509384
0.0520646
0.04539
0.0268965
0.0250144
0.0253975
0.0264089
0.0276408
0.0289543
0.0302963
0.0316465
0.0329978
0.0343477
0.035695
0.0370387
0.0383769
0.0397058
0.0410209
0.0423164
0.043586
0.0448219
0.046016
0.0471588
0.0482412
0.0492538
0.0506367
0.0293474
0.0268344
0.0268993
0.0276807
0.0287134
0.0298396
0.0309993
0.0321696
0.0333421
0.0345139
0.0356832
0.0368484
0.0380076
0.0391578
0.0402951
0.0414151
0.0425127
0.0435818
0.0446158
0.0456073
0.0465485
0.0474314
0.0575877
0.0328464
0.0296388
0.0293617
0.0298897
0.0307002
0.0316193
0.0325828
0.0335658
0.0345577
0.0355534
0.0365507
0.037547
0.0385393
0.0395239
0.040497
0.0414542
0.0423909
0.0433017
0.0441811
0.0450226
0.0458193
0.0465636
0.0665775
0.0375798
0.033564
0.0328789
0.0330953
0.0336328
0.034305
0.0350431
0.035819
0.03662
0.0374385
0.0382683
0.039104
0.0399401
0.0407715
0.0415933
0.0424005
0.0431882
0.0439512
0.0446842
0.0453809
0.0460347
0.0466374
0.0781432
0.0438239
0.0388002
0.0375752
0.0373705
0.0375495
0.0379134
0.0383866
0.0389339
0.0395346
0.0401739
0.0408397
0.0415219
0.0422117
0.0429015
0.0435843
0.0442541
0.0449051
0.0455318
0.0461285
0.0466888
0.0472053
0.0476691
0.0933401
0.0520739
0.0456464
0.0436236
0.0428125
0.0425083
0.0424867
0.0426509
0.0429468
0.0433379
0.043797
0.044303
0.0448394
0.0453926
0.0459517
0.0465075
0.0470523
0.0475792
0.048082
0.0485542
0.0489891
0.0493781
0.0497107
0.113877
0.0631349
0.0545499
0.05125
0.049531
0.0485711
0.048074
0.0478876
0.0479166
0.048096
0.0483797
0.0487342
0.0491345
0.0495619
0.0500018
0.0504424
0.0508745
0.0512901
0.051682
0.0520433
0.0523663
0.0526414
0.0528564
0.142812
0.0783275
0.0660662
0.0606327
0.0575682
0.0557574
0.054713
0.0541602
0.0539294
0.0539117
0.0540359
0.0542538
0.054532
0.0548464
0.0551793
0.055517
0.0558487
0.0561658
0.0564605
0.0567254
0.0569524
0.0571313
0.0572481
0.186591
0.0999858
0.0807262
0.0717194
0.066796
0.064007
0.0624253
0.0615533
0.0611115
0.0609377
0.0609341
0.0610397
0.0612145
0.0614311
0.0616701
0.0619169
0.0621603
0.0623913
0.0626023
0.0627862
0.062935
0.0630385
0.0630821
0.264295
0.132304
0.0982995
0.0837746
0.0767589
0.073156
0.0712364
0.0702012
0.0696574
0.0694007
0.0693184
0.0693449
0.0694394
0.0695751
0.0697333
0.0699003
0.0700661
0.0702223
0.0703624
0.07048
0.0705685
0.070619
0.0706182
0.461135
0.179127
0.115039
0.094583
0.0865822
0.0830054
0.0812549
0.0803496
0.0798746
0.0796367
0.0795379
0.079524
0.0795629
0.0796337
0.0797223
0.0798185
0.0799146
0.0800046
0.0800838
0.0801478
0.0801922
0.0802109
0.0801942
1.58651
0.212711
0.117059
0.100201
0.0954228
0.0936442
0.0928503
0.0924535
0.0922442
0.0921347
0.0920826
0.0920655
0.0920702
0.0920882
0.0921139
0.092143
0.0921726
0.0922003
0.0922243
0.092243
0.092255
0.0922581
0.0922488
3.04554
2.63974
2.50326
2.55664
1.01111
1.05432
1.05962
1.03868
0.902244
0.911853
0.910236
0.895435
0.934593
0.921523
0.893686
0.858708
0.822089
0.791367
0.75444
0.720891
0.666728
0.642124
0.616543
0.592748
0.576388
0.552124
0.530272
0.512327
0.515453
0.495152
0.478372
0.46511
0.468461
0.450021
0.434591
0.421168
0.418618
0.403094
0.388852
0.375262
0.371463
0.3586
0.34627
0.333901
0.330381
0.319802
0.309359
0.298618
0.295406
0.28683
0.278123
0.268997
0.265326
0.258487
0.251338
0.243715
0.238875
0.2335
0.227725
0.221497
0.215121
0.210966
0.206416
0.201478
0.193552
0.19041
0.186947
0.183166
0.174066
0.171744
0.169177
0.166363
0.156516
0.154869
0.153028
0.150991
0.140746
0.139645
0.138384
0.136963
0.126581
0.125914
0.125114
0.12418
0.113843
0.113518
0.113081
0.112531
0.102377
0.10232
0.102168
0.101919
0.0920718
0.0922214
0.0922897
0.0922757
0.0828632
0.0831659
0.0834005
0.0835657
0.0747254
0.0751354
0.075489
0.075785
0.0676555
0.0681321
0.0685631
0.0689471
0.0616545
0.0621626
0.0626343
0.0630684
0.0567152
0.0572245
0.0577057
0.0581573
0.0528239
0.0533081
0.0537703
0.0542099
0.0499429
0.0503841
0.0508075
0.0512126
0.0480335
0.0484188
0.0487889
0.0491434
0.0470678
0.0473885
0.0476951
0.0479872
0.0470378
0.0472889
0.0475255
0.0477472
0.0479645
0.0481443
0.0483079
0.0484549
0.0499048
0.0500151
0.0501068
0.050179
0.0529586
0.0530056
0.053031
0.0530336
0.0572741
0.057269
0.0572398
0.0571847
0.0630544
0.0630136
0.0629479
0.062855
0.0705645
0.0705088
0.0704303
0.070327
0.0801437
0.0800957
0.080031
0.0799485
0.0922275
0.0922077
0.0921816
0.0921493
1.34001
0.919618
0.733581
0.614414
0.517685
0.433888
0.361466
0.298262
0.246297
0.207103
0.179525
0.157899
0.138196
0.120223
0.10463
0.0929909
0.0889283
0.101334
0.203278
0.920048
0.817998
0.74672
0.653012
0.549942
0.449985
0.365244
0.296589
0.24326
0.205185
0.179982
0.161851
0.145388
0.129417
0.114813
0.103295
0.100149
0.117114
0.245326
0.850037
0.798531
0.741366
0.672071
0.572509
0.454048
0.36117
0.291492
0.240041
0.203913
0.180781
0.165437
0.152354
0.138778
0.124978
0.112611
0.108473
0.126448
0.259096
0.804245
0.721524
0.663705
0.613963
0.542798
0.449378
0.355075
0.286174
0.237368
0.203032
0.182043
0.168814
0.157801
0.145867
0.133006
0.119771
0.112964
0.12795
0.246325
0.673242
0.613469
0.578601
0.546085
0.491596
0.412776
0.332902
0.271976
0.230069
0.202092
0.184648
0.173714
0.163648
0.151537
0.139243
0.125387
0.11542
0.125182
0.227006
0.561596
0.529305
0.508309
0.480674
0.427923
0.362318
0.301756
0.254737
0.221395
0.199701
0.189532
0.185409
0.176244
0.158212
0.141925
0.128323
0.120385
0.125304
0.212857
0.490011
0.466297
0.444706
0.413358
0.368312
0.317409
0.271267
0.235049
0.209452
0.194479
0.19053
0.198744
0.20632
0.172151
0.144065
0.127592
0.123293
0.127526
0.179152
0.445986
0.41837
0.390592
0.358115
0.320176
0.280179
0.244065
0.215452
0.195499
0.185308
0.185957
0.197923
0.223567
0.192929
0.148944
0.125724
0.120945
0.131144
0.147057
0.402028
0.373233
0.345303
0.314568
0.282093
0.249647
0.220765
0.197669
0.18159
0.174554
0.177317
0.189673
0.200691
0.189689
0.155339
0.126277
0.116638
0.130482
0.124629
0.354149
0.32448
0.296094
0.269264
0.244056
0.220157
0.19864
0.180803
0.168118
0.163311
0.168736
0.180507
0.186945
0.170947
0.149232
0.123018
0.105336
0.10291
0.112248
0.313813
0.285155
0.258243
0.233936
0.212425
0.193686
0.177475
0.164083
0.154542
0.15059
0.154412
0.163536
0.167207
0.155527
0.137458
0.117375
0.101092
0.0929623
0.11335
0.280695
0.254806
0.230526
0.208828
0.189925
0.173874
0.160469
0.149645
0.141963
0.138234
0.139066
0.143418
0.145846
0.139787
0.127936
0.112468
0.0961637
0.0840113
0.106036
0.2535
0.230901
0.209566
0.190449
0.173808
0.159608
0.147846
0.138449
0.131563
0.127484
0.126427
0.127734
0.128678
0.12517
0.117591
0.105677
0.0904698
0.0763822
0.0901563
0.230585
0.211275
0.192882
0.176299
0.161862
0.149495
0.139088
0.130575
0.123859
0.119051
0.116381
0.115571
0.114939
0.111859
0.10598
0.0961916
0.0827585
0.0690585
0.077236
0.21064
0.194484
0.178905
0.164739
0.152381
0.141838
0.132823
0.125006
0.118285
0.112817
0.10876
0.106071
0.103823
0.100305
0.0947642
0.0863927
0.0755758
0.0651505
0.076155
0.192761
0.179575
0.166637
0.154722
0.144256
0.135311
0.127567
0.120484
0.113939
0.108126
0.10319
0.0991046
0.0954588
0.091298
0.0859039
0.0789822
0.0712445
0.0656709
0.0844421
0.176395
0.165941
0.155443
0.145599
0.136827
0.129229
0.12253
0.116198
0.110039
0.104204
0.0988667
0.0940266
0.0895151
0.0848963
0.0797625
0.0742966
0.0695364
0.0688443
0.0964259
0.161264
0.153218
0.144926
0.136961
0.129706
0.123269
0.117435
0.111782
0.106101
0.100471
0.095048
0.0898943
0.0849821
0.0801895
0.0754913
0.0713634
0.0691115
0.0724738
0.108523
0.147261
0.141236
0.13487
0.128571
0.122666
0.117252
0.112168
0.107117
0.101923
0.0966148
0.0913142
0.0861269
0.0811316
0.0764304
0.0722859
0.0693274
0.0690031
0.0755351
0.119265
0.13432
0.129931
0.125158
0.120311
0.115602
0.111099
0.106697
0.1022
0.0974849
0.09256
0.0875251
0.0825153
0.0776937
0.0733047
0.0697577
0.0677691
0.0688441
0.0777174
0.128929
0.122393
0.119299
0.115806
0.112153
0.10847
0.104796
0.101046
0.0970911
0.0928558
0.0883641
0.0837064
0.0790383
0.0745789
0.070648
0.0677177
0.0665463
0.0686843
0.0793056
0.138224
0.11142
0.109346
0.106876
0.104176
0.10135
0.0984024
0.095266
0.0918585
0.0881376
0.0841316
0.0799398
0.0757327
0.0717606
0.0683765
0.0660702
0.0656048
0.0686365
0.080934
0.147924
0.10134
0.100068
0.0984176
0.096496
0.0943714
0.0920489
0.0894823
0.0866136
0.0834229
0.079948
0.0762915
0.0726292
0.0692196
0.0664158
0.0647006
0.0648463
0.0686093
0.0822857
0.155869
0.0921134
0.0914722
0.0904762
0.0891935
0.087666
0.0858956
0.0838517
0.0814996
0.0788342
0.0759004
0.0728063
0.0697217
0.0668964
0.0646678
0.0635022
0.064176
0.0685146
0.0831972
0.161594
0.0837244
0.0835748
0.0830994
0.082339
0.0813174
0.0800335
0.0784681
0.0766027
0.074444
0.0720421
0.0695026
0.0669912
0.0647362
0.0630531
0.0623887
0.0635158
0.0682951
0.0836554
0.165596
0.0761822
0.0764059
0.0763371
0.0759975
0.0753983
0.0745366
0.0734005
0.0719828
0.0702985
0.0683998
0.0663866
0.0644154
0.0626934
0.0615107
0.0612932
0.0628033
0.0679093
0.0836687
0.168021
0.0695094
0.0700028
0.0702397
0.0702284
0.0699722
0.0694666
0.0687045
0.0676859
0.0664309
0.064991
0.0634588
0.0619757
0.0607344
0.0599964
0.0601659
0.0619892
0.0673232
0.0832499
0.168966
0.0637303
0.0644014
0.0648524
0.0650835
0.0650924
0.0648742
0.0644246
0.0637479
0.0628662
0.0618289
0.0607194
0.0596635
0.0588389
0.0584827
0.0589754
0.0610429
0.0665219
0.0824646
0.168775
0.0588615
0.0596286
0.0602107
0.0606034
0.0608014
0.0607997
0.060596
0.0601968
0.0596248
0.0589253
0.0581728
0.0574779
0.0569986
0.0569592
0.0577116
0.0599588
0.0655136
0.0813848
0.167717
0.054907
0.0556988
0.0563375
0.0568166
0.0571299
0.057273
0.0572453
0.0570548
0.0567234
0.0562921
0.0558265
0.0554235
0.0552223
0.0554317
0.0563842
0.0587549
0.0643242
0.0800508
0.166143
0.0518595
0.0526155
0.053245
0.0537413
0.0540992
0.0543156
0.0543923
0.0543387
0.0541759
0.0539408
0.0536908
0.0535105
0.053523
0.053917
0.055016
0.0574639
0.0629941
0.0784837
0.164285
0.0497104
0.0503779
0.0509402
0.0513904
0.051725
0.051944
0.0520524
0.052062
0.0519941
0.0518823
0.0517769
0.0517516
0.0519161
0.0524421
0.0536329
0.0561204
0.061572
0.0767232
0.161859
0.0484515
0.0489892
0.0494338
0.0497793
0.0500251
0.0501755
0.0502407
0.0502372
0.0501884
0.0501264
0.0500957
0.0501606
0.0504182
0.0510259
0.052268
0.0547494
0.0600919
0.0747976
0.158049
0.0480929
0.0484695
0.0487515
0.0489371
0.0490286
0.049036
0.0489778
0.0488794
0.04877
0.0486828
0.0486577
0.0487506
0.0490469
0.0496899
0.0509459
0.0533899
0.0585811
0.0728043
0.153525
0.0486721
0.0488641
0.0489468
0.0489195
0.0487887
0.0485711
0.0482981
0.0480112
0.0477529
0.047561
0.0474726
0.0475344
0.0478199
0.0484587
0.0497001
0.0520923
0.0571388
0.0709648
0.15005
0.0502654
0.0502592
0.0501153
0.0498259
0.0494004
0.0488617
0.0482606
0.047669
0.0471558
0.0467709
0.0465481
0.046523
0.0467546
0.0473582
0.0485684
0.050913
0.0558528
0.0693812
0.14707
0.0529966
0.0527941
0.052411
0.0518226
0.051026
0.0500485
0.048967
0.0479102
0.0470043
0.0463212
0.0458889
0.0457239
0.0458651
0.0464105
0.0475819
0.0498918
0.0547635
0.0680576
0.144319
0.0570448
0.0566715
0.0560654
0.0551679
0.0539333
0.052375
0.0505941
0.0488253
0.0473287
0.0462152
0.0454921
0.0451387
0.0451606
0.0456331
0.0467643
0.0490556
0.0538956
0.0670171
0.14226
0.0626488
0.0621643
0.0613987
0.06024
0.0585555
0.0562711
0.0534706
0.0505568
0.0481576
0.0464404
0.0453406
0.0447584
0.0446436
0.0450386
0.0461369
0.0484329
0.05329
0.0663463
0.14127
0.0701072
0.0696104
0.0688183
0.0675592
0.0655674
0.0625215
0.0582866
0.0533259
0.049492
0.0469467
0.0453912
0.0445581
0.0443052
0.0446308
0.0457132
0.0480474
0.0529886
0.0661261
0.141597
0.0797771
0.0793973
0.0787806
0.0777381
0.075894
0.0725559
0.0666995
0.0573791
0.0512085
0.0476016
0.0455588
0.0444898
0.0441199
0.044396
0.0454849
0.0478853
0.0529568
0.0663086
0.14304
0.0920845
0.0919452
0.0917179
0.0913095
0.090475
0.0884955
0.082925
0.0622262
0.0527581
0.0481196
0.0457053
0.0444827
0.0440449
0.0442988
0.0454069
0.0478548
0.0529182
0.0660072
0.142062
)
;

boundaryField
{
    leftWall
    {
        type            epsilonWallFunction;
        value           nonuniform List<scalar> 
50
(
0.0093886
0.015621
0.0241058
0.0329983
0.0421097
0.0508447
0.0591757
0.0671384
0.0787503
0.0934636
0.110368
0.139448
0.164438
0.1427
0.147126
0.174726
0.207126
0.23628
0.262692
0.285103
0.297837
0.301478
0.297154
0.285801
0.267742
0.243827
0.215833
0.186037
0.156077
0.126845
0.100277
0.0770589
0.0591551
0.0475359
0.0414103
0.039166
0.0394941
0.0416678
0.04539
0.0506367
0.0575877
0.0665775
0.0781432
0.0933401
0.113877
0.142812
0.186591
0.264295
0.461135
1.58651
)
;
        Cmu             0.09;
        kappa           0.41;
        E               9.8;
        value           nonuniform List<scalar> 
50
(
0.0093886
0.015621
0.0241058
0.0329983
0.0421097
0.0508447
0.0591757
0.0671384
0.0787503
0.0934636
0.110368
0.139448
0.164438
0.1427
0.147126
0.174726
0.207126
0.23628
0.262692
0.285103
0.297837
0.301478
0.297154
0.285801
0.267742
0.243827
0.215833
0.186037
0.156077
0.126845
0.100277
0.0770589
0.0591551
0.0475359
0.0414103
0.039166
0.0394941
0.0416678
0.04539
0.0506367
0.0575877
0.0665775
0.0781432
0.0933401
0.113877
0.142812
0.186591
0.264295
0.461135
1.58651
)
;
    }
    rightWall
    {
        type            epsilonWallFunction;
        value           nonuniform List<scalar> 
50
(
0.0246669
0.0328041
0.0505538
0.0701444
0.0920176
0.116218
0.141178
0.167568
0.203278
0.245326
0.259096
0.246325
0.227006
0.212857
0.179152
0.147057
0.124629
0.112248
0.11335
0.106036
0.0901563
0.077236
0.076155
0.0844421
0.0964259
0.108523
0.119265
0.128929
0.138224
0.147924
0.155869
0.161594
0.165596
0.168021
0.168966
0.168775
0.167717
0.166143
0.164285
0.161859
0.158049
0.153525
0.15005
0.14707
0.144319
0.14226
0.14127
0.141597
0.14304
0.142062
)
;
        Cmu             0.09;
        kappa           0.41;
        E               9.8;
        value           nonuniform List<scalar> 
50
(
0.0246669
0.0328041
0.0505538
0.0701444
0.0920176
0.116218
0.141178
0.167568
0.203278
0.245326
0.259096
0.246325
0.227006
0.212857
0.179152
0.147057
0.124629
0.112248
0.11335
0.106036
0.0901563
0.077236
0.076155
0.0844421
0.0964259
0.108523
0.119265
0.128929
0.138224
0.147924
0.155869
0.161594
0.165596
0.168021
0.168966
0.168775
0.167717
0.166143
0.164285
0.161859
0.158049
0.153525
0.15005
0.14707
0.144319
0.14226
0.14127
0.141597
0.14304
0.142062
)
;
    }
    lowerWall
    {
        type            epsilonWallFunction;
        value           nonuniform List<scalar> 
62
(
0.0093886
0.0445936
0.0808115
0.113367
0.142999
0.170624
0.196691
0.221214
0.244378
0.266351
0.28732
0.307527
0.326981
0.344812
0.360023
0.370931
0.374973
0.36841
0.342828
0.298444
0.231877
0.142017
0.0468685
0.0468685
0.0743277
0.131103
0.206675
0.316214
0.478652
0.77346
1.62195
3.04554
2.63974
2.50326
2.55664
0.12224
0.128205
0.161159
0.175536
0.217257
0.347722
0.81722
1.72371
0.12224
0.353965
0.653282
0.806707
0.819025
0.791761
0.756541
0.713704
0.639115
0.521466
0.412765
0.312546
0.226633
0.159658
0.108026
0.0835824
0.0691772
0.052572
0.0246669
)
;
        Cmu             0.09;
        kappa           0.41;
        E               9.8;
        value           nonuniform List<scalar> 
62
(
0.0093886
0.0445936
0.0808115
0.113367
0.142999
0.170624
0.196691
0.221214
0.244378
0.266351
0.28732
0.307527
0.326981
0.344812
0.360023
0.370931
0.374973
0.36841
0.342828
0.298444
0.231877
0.142017
0.0468685
0.0468685
0.0743277
0.131103
0.206675
0.316214
0.478652
0.77346
1.62195
3.04554
2.63974
2.50326
2.55664
0.12224
0.128205
0.161159
0.175536
0.217257
0.347722
0.81722
1.72371
0.12224
0.353965
0.653282
0.806707
0.819025
0.791761
0.756541
0.713704
0.639115
0.521466
0.412765
0.312546
0.226633
0.159658
0.108026
0.0835824
0.0691772
0.052572
0.0246669
)
;
    }
    atmosphere
    {
        type            inletOutlet;
        inletValue      uniform 0.1;
        value           nonuniform List<scalar> 
46
(
0.1
0.1
0.1
0.1
0.1
0.1
0.1
0.1
0.1
0.1
0.1
0.1
0.1
0.1
0.1
0.1
0.1
0.1
0.1
0.1
0.1
0.1
0.1
0.1
0.1
0.1
0.1
0.1
0.1
0.1
0.1
0.1
0.1
0.1
0.0622262
0.0527581
0.0481196
0.0457053
0.0444827
0.0440449
0.0442988
0.0454069
0.0478548
0.0529182
0.0660072
0.142062
)
;
    }
    defaultFaces
    {
        type            empty;
    }
}


// ************************************************************************* //
