/*--------------------------------*- C++ -*----------------------------------*\
| =========                 |                                                 |
| \\      /  F ield         | OpenFOAM: The Open Source CFD Toolbox           |
|  \\    /   O peration     | Version:  2.3.0                                 |
|   \\  /    A nd           | Web:      www.OpenFOAM.org                      |
|    \\/     M anipulation  |                                                 |
\*---------------------------------------------------------------------------*/
FoamFile
{
    version     2.0;
    format      ascii;
    class       volScalarField;
    location    "2";
    object      nut;
}
// * * * * * * * * * * * * * * * * * * * * * * * * * * * * * * * * * * * * * //

dimensions      [0 2 -1 0 0 0 0];

internalField   nonuniform List<scalar> 
2268
(
4.13274e-05
4.57043e-05
5.55368e-05
6.21976e-05
6.72243e-05
7.12761e-05
7.47258e-05
7.77527e-05
8.04248e-05
8.28393e-05
8.50789e-05
8.72024e-05
8.92892e-05
9.12811e-05
9.31123e-05
9.4639e-05
9.56357e-05
9.57493e-05
9.40181e-05
9.01564e-05
8.3021e-05
7.03255e-05
4.73495e-05
8.83879e-05
0.000357584
0.000486858
0.000573064
0.000638193
0.000690163
0.000733211
0.00077016
0.00080294
0.000833162
0.000862196
0.000890934
0.00091949
0.000948211
0.000975576
0.000998686
0.00101352
0.00101324
0.000982816
0.000931226
0.000850298
0.000632413
0.000151675
0.000101815
0.00059652
0.000877481
0.00106985
0.00121646
0.00133433
0.00143255
0.00151694
0.00159196
0.00166146
0.00172872
0.00179604
0.00186411
0.00193241
0.00199705
0.00205097
0.00208444
0.00208321
0.00202449
0.00189696
0.00164987
0.00110866
0.000184105
0.000112199
0.000751666
0.00116754
0.00146025
0.00168641
0.00187009
0.00202421
0.00215729
0.00227604
0.00238624
0.00249275
0.00259887
0.00270537
0.00281007
0.00290616
0.0029828
0.00302584
0.00301619
0.00292498
0.00271561
0.00229922
0.001483
0.000214739
0.000121448
0.000856354
0.00138531
0.00176768
0.00206709
0.00231254
0.00252
0.00270018
0.00286156
0.00301138
0.00315557
0.00329774
0.00343799
0.0035719
0.00368978
0.00377825
0.00382154
0.00379899
0.00367715
0.0033988
0.00284302
0.00179315
0.000248149
0.000129171
0.000933902
0.00155472
0.00201485
0.00237981
0.0026817
0.00293871
0.00316317
0.00336489
0.00355211
0.00373124
0.00390553
0.00407355
0.00422838
0.00435806
0.00444878
0.0044865
0.00445239
0.00431058
0.00398912
0.00333713
0.00209121
0.000285151
0.000135742
0.000996496
0.00169232
0.00221902
0.00264172
0.00299436
0.00329659
0.00356194
0.00380113
0.00402293
0.00423368
0.00443554
0.00462493
0.00479243
0.004925
0.00501112
0.00504195
0.00500326
0.00485878
0.00452727
0.00383078
0.00242247
0.000333282
0.00014146
0.00105079
0.00180938
0.00239291
0.00286602
0.00326379
0.00360686
0.00390952
0.00418305
0.00443632
0.00467505
0.00489971
0.00510411
0.00527669
0.00540506
0.00548299
0.00550981
0.00547751
0.0053504
0.00504433
0.00436929
0.00286699
0.00042101
6.34797e-05
8.94134e-05
0.000108714
0.00011639
0.000116537
0.000115379
0.000114216
0.000112882
0.000109733
0.000102706
9.4769e-05
8.6167e-05
7.7308e-05
6.88982e-05
5.99905e-05
5.54211e-05
5.24439e-05
4.91885e-05
6.13388e-05
0.000201652
0.000571476
0.000836904
0.000958334
0.00100519
0.00101774
0.00101769
0.00100608
0.000968239
0.000888905
0.000764897
0.00065824
0.000571243
0.000509562
0.000438275
0.000413617
0.000413245
0.000353873
0.000132861
0.00021772
0.000919019
0.00136397
0.0016364
0.00178941
0.00186751
0.00190284
0.00189958
0.00183627
0.00169257
0.00147906
0.00127359
0.00109255
0.000951357
0.000829083
0.000783308
0.000762924
0.000595227
0.000152237
0.000222522
0.00107952
0.00165164
0.00207639
0.0023528
0.00251536
0.00259939
0.00261398
0.00253991
0.00235964
0.00209254
0.00181795
0.00156499
0.00135813
0.00119803
0.00112467
0.00106571
0.00079997
0.000168363
0.00023696
0.00111417
0.0018093
0.00237802
0.00277615
0.00302274
0.0031551
0.00318967
0.00311368
0.00291568
0.0026182
0.00229855
0.00199615
0.00174184
0.00155225
0.00144825
0.00133806
0.000978937
0.0001824
0.000274109
0.00113006
0.00192938
0.00262649
0.0031294
0.00344494
0.00361526
0.0036663
0.00359238
0.00338768
0.00307561
0.00273031
0.00239701
0.00211034
0.00189568
0.001758
0.00158512
0.00112343
0.000196059
0.000360762
0.00119449
0.00209273
0.00289058
0.00346448
0.00382158
0.00401225
0.00407254
0.0040015
0.00379664
0.00348141
0.00312567
0.0027758
0.00246782
0.00223002
0.00205443
0.00181326
0.00124846
0.000208591
0.000471344
0.00139473
0.00238432
0.00322298
0.0038146
0.00417716
0.00436669
0.00442761
0.00435876
0.00415786
0.00384764
0.00349306
0.00313705
0.00281534
0.00255489
0.00233678
0.00202477
0.00136036
0.000220135
0.000149329
0.0011295
0.00197136
0.00262987
0.00317087
0.00363077
0.00403121
0.00438717
0.00471018
0.00500853
0.00528588
0.00553907
0.00575744
0.0059276
0.00604259
0.00610948
0.00614286
0.00614279
0.00607213
0.00585273
0.00534009
0.00427399
0.00238269
0.000158915
0.0012415
0.00216928
0.00290112
0.00351015
0.00403426
0.00449554
0.00490886
0.00528514
0.00563043
0.00594417
0.00621704
0.0064333
0.0065816
0.0066714
0.0067377
0.0068163
0.00690681
0.0069554
0.00689736
0.00665752
0.00613028
0.00519947
0.000170834
0.00137448
0.00236881
0.00315327
0.00381225
0.0043853
0.00489429
0.00535304
0.005771
0.00615076
0.0064868
0.00676398
0.00696428
0.00708429
0.00715837
0.00725605
0.00742437
0.00763523
0.00778883
0.00783501
0.00774571
0.00749582
0.00707457
0.000185674
0.00149695
0.0025583
0.00338743
0.00408779
0.00470156
0.00524996
0.0057455
0.00619529
0.00659903
0.00694733
0.00722077
0.00740228
0.00749774
0.00756864
0.00773308
0.00804252
0.00838847
0.00858906
0.00865728
0.00859986
0.00842534
0.00815524
0.00019631
0.00154706
0.00266609
0.00355384
0.00431192
0.00497532
0.00556438
0.00609269
0.0065683
0.00698842
0.00734196
0.00760937
0.00777557
0.0078527
0.00792768
0.00819393
0.0086516
0.00898466
0.00915917
0.00920876
0.009145
0.0089766
0.00873181
0.000185914
0.00146252
0.00263714
0.00361536
0.00445706
0.00518332
0.00581751
0.0063828
0.00688503
0.00732093
0.00767743
0.00793821
0.00809447
0.00817168
0.00826997
0.00853886
0.00891005
0.00924145
0.00944011
0.00951619
0.00948035
0.00934011
0.00911066
0.000182733
0.00131664
0.00254112
0.00361309
0.0045356
0.00532841
0.00601593
0.0066229
0.00715536
0.0076048
0.00796065
0.00821419
0.00836482
0.00844376
0.00855502
0.00874839
0.00899173
0.00935945
0.00963623
0.00975828
0.00976465
0.00965851
0.00945177
0.000189438
0.00134854
0.0025972
0.00370523
0.00466366
0.0054906
0.00621038
0.006843
0.00739158
0.00784721
0.00819575
0.00843741
0.00858617
0.00868187
0.00879392
0.00894711
0.00913655
0.00946343
0.00975461
0.00990535
0.0099522
0.00987851
0.00969176
0.000200657
0.00148233
0.00278408
0.00390834
0.0048729
0.00570467
0.00642823
0.00706031
0.00760348
0.00804967
0.00838751
0.00862277
0.00877637
0.00888333
0.00898796
0.00910798
0.00926928
0.00953142
0.00978403
0.00993692
0.0100029
0.00995624
0.00981095
0.00021022
0.00163894
0.00301624
0.00416264
0.00512659
0.00594846
0.00665687
0.00726904
0.00778951
0.00821376
0.00853546
0.00876464
0.00892421
0.00903947
0.00913463
0.00923278
0.00936299
0.00956032
0.00976643
0.00990349
0.00996308
0.00993547
0.00983025
0.000217772
0.00176435
0.00322675
0.00440675
0.00537509
0.00618534
0.00687266
0.00745759
0.0079485
0.00834387
0.00864515
0.00886299
0.00901888
0.00913518
0.00922714
0.00931299
0.00941575
0.00955965
0.00972351
0.00984344
0.00989475
0.00987361
0.00979522
0.000224835
0.00184811
0.00338436
0.00460289
0.00558205
0.00638488
0.0070529
0.00761093
0.00807153
0.0084401
0.00872179
0.0089269
0.00907319
0.00918132
0.00926751
0.00934483
0.00942982
0.00954088
0.00967117
0.00977225
0.00981285
0.00979469
0.00973397
0.000229156
0.00190631
0.00349695
0.00474539
0.00573394
0.00653112
0.00718302
0.00771845
0.00815443
0.00850113
0.00876684
0.00896203
0.00910146
0.00920254
0.00928119
0.00935042
0.00942334
0.00951271
0.00961337
0.00969127
0.0097228
0.00970758
0.00965862
0.000231189
0.00194006
0.00356382
0.00483106
0.00582537
0.0066179
0.00725751
0.00777612
0.00819411
0.00852509
0.00877982
0.00896924
0.00910623
0.00920524
0.00928027
0.0093435
0.00940592
0.0094761
0.00954972
0.00960556
0.00962822
0.00961574
0.00957509
0.000231193
0.00194877
0.00358513
0.0048595
0.00585497
0.00664328
0.00727444
0.00778211
0.00818889
0.00851065
0.00875976
0.00894756
0.00908569
0.00918631
0.00926119
0.00932095
0.00937478
0.0094289
0.00948101
0.0095192
0.00953371
0.00952209
0.00948763
0.000229143
0.00193259
0.00356234
0.00483253
0.00582428
0.00660828
0.00723429
0.00773648
0.00813847
0.00845721
0.0087059
0.00889594
0.00903808
0.00914277
0.00921997
0.00927876
0.00932695
0.00936975
0.00940688
0.00943233
0.00944032
0.00942888
0.00939955
0.00022503
0.00189346
0.00349828
0.00475355
0.00573664
0.00651579
0.00713932
0.00764074
0.00804357
0.0083649
0.008618
0.00881398
0.00896281
0.00907376
0.00915551
0.00921599
0.00926206
0.00929858
0.00932682
0.00934446
0.00934851
0.00933784
0.00931331
0.000218932
0.00183436
0.00339708
0.00462722
0.00559675
0.00637012
0.00699307
0.0074975
0.00790589
0.00823468
0.00849658
0.00870212
0.00886052
0.00898021
0.00906901
0.00913409
0.00918175
0.00921674
0.00924142
0.00925582
0.00925892
0.00925049
0.00923121
0.000211027
0.00175842
0.00326385
0.00445942
0.00541057
0.0061768
0.00680036
0.00731064
0.00772837
0.00806869
0.00834332
0.00856192
0.00873299
0.00886428
0.00896301
0.00903587
0.00908879
0.00912654
0.00915232
0.00916755
0.00917266
0.00916817
0.00915488
0.000201612
0.00167015
0.00310474
0.00425712
0.00518527
0.0059428
0.00656757
0.00708574
0.0075157
0.00787083
0.00816153
0.00839648
0.00858335
0.00872929
0.00884104
0.00892491
0.00898662
0.009031
0.00906184
0.00908143
0.00909119
0.00909226
0.00908566
0.000191038
0.00157199
0.00292562
0.00402777
0.00492919
0.0056767
0.00630303
0.00683056
0.00727487
0.00764733
0.00795684
0.00821093
0.00841647
0.00857996
0.00870769
0.00880562
0.0088793
0.00893373
0.00897293
0.00899979
0.00901642
0.00902444
0.00902508
0.000179396
0.00145776
0.0027284
0.00377839
0.00465181
0.00538906
0.00601752
0.00655553
0.00701569
0.00740725
0.00773752
0.00801288
0.00823933
0.00842275
0.00856895
0.0086835
0.00877192
0.00883916
0.00888934
0.00892576
0.00895096
0.00896695
0.0089752
0.000167061
0.00132318
0.00251457
0.003517
0.00436477
0.00509315
0.00572478
0.00627415
0.00675104
0.00716261
0.00751466
0.00781245
0.00806114
0.00826599
0.00843233
0.00856549
0.00867068
0.0087527
0.00881573
0.00886328
0.0088982
0.00892277
0.00893867
0.000154079
0.00119499
0.00230963
0.00326594
0.0040896
0.00480963
0.00544419
0.0060043
0.0064972
0.00692816
0.00730161
0.00762176
0.00789297
0.00811981
0.00830712
0.00845982
0.00858279
0.00868063
0.00875748
0.00881695
0.00886207
0.00889533
0.00891857
0.000141633
0.00110179
0.00214028
0.00305034
0.0038502
0.00456156
0.00519783
0.00576685
0.00627362
0.0067218
0.00711465
0.00745545
0.0077478
0.00799564
0.00820326
0.0083751
0.00851566
0.00862927
0.00871996
0.0087913
0.00884643
0.00888795
0.00891782
0.000131467
0.00104684
0.00202411
0.00289286
0.00367011
0.00437192
0.00500758
0.00558228
0.0060992
0.00656075
0.00696925
0.00732724
0.00763767
0.00790388
0.0081296
0.00831879
0.00847551
0.00860376
0.00870734
0.00878973
0.00885404
0.00890289
0.00893833
0.000124828
0.00102345
0.00196567
0.00280622
0.0035656
0.0042579
0.00489029
0.00546645
0.00598852
0.00645816
0.00687707
0.00724727
0.00757118
0.00785165
0.0080919
0.0082954
0.00846573
0.00860653
0.00872128
0.00881325
0.00888542
0.00894036
0.0089801
0.000121757
0.00102439
0.00196085
0.00279133
0.00354107
0.00422569
0.00485281
0.00542623
0.00594805
0.0064198
0.00684303
0.00721949
0.00755129
0.00784091
0.00809113
0.00830496
0.00848556
0.00863611
0.00875975
0.00885944
0.00893792
0.00899758
0.00904039
0.000121517
0.00104468
0.00200004
0.0028382
0.00358794
0.00426845
0.00488982
0.00545738
0.00597422
0.00644247
0.00686397
0.0072406
0.00757439
0.00786762
0.00812277
0.00834243
0.00852938
0.00868644
0.00881635
0.00892173
0.009005
0.00906829
0.00911335
0.000123323
0.00107955
0.00207037
0.00292977
0.00368839
0.00436939
0.00498617
0.00554646
0.00605509
0.00651537
0.00692996
0.0073012
0.0076314
0.00792284
0.0081778
0.00839877
0.0085882
0.00874852
0.00888206
0.00899106
0.00907758
0.00914345
0.00919015
0.000126622
0.00112424
0.00215923
0.00304819
0.00382252
0.00450866
0.00512313
0.00567628
0.00617499
0.0066242
0.00702778
0.00738898
0.0077106
0.00799523
0.00824538
0.00846342
0.00865157
0.00881193
0.00894651
0.00905716
0.00914556
0.0092132
0.00926127
0.000131102
0.00117544
0.00225792
0.00318059
0.00397522
0.00467042
0.00528511
0.00583194
0.00631991
0.00675586
0.00714521
0.00749235
0.00780102
0.00807449
0.00831552
0.00852656
0.00870975
0.00886699
0.009
0.0091103
0.00919923
0.00926791
0.00931723
0.00013664
0.00123214
0.00236341
0.00332195
0.00413997
0.00484715
0.0054639
0.00600485
0.00648118
0.00690174
0.00727378
0.00760328
0.00789514
0.00815336
0.00838121
0.00858134
0.00875595
0.00890686
0.00903557
0.00914337
0.00923127
0.00930008
0.00935039
0.000143352
0.00129548
0.00247797
0.00347503
0.00431921
0.00504024
0.00565956
0.00619373
0.00665629
0.00705858
0.00741
0.00771823
0.00798945
0.00822854
0.00843934
0.00862483
0.00878735
0.00892869
0.00905025
0.00915312
0.00923809
0.0093057
0.00935628
0.000151243
0.00136769
0.00260765
0.00364851
0.0045222
0.0052579
0.00587833
0.0064027
0.00684771
0.00722764
0.00755431
0.00783726
0.00808396
0.00830021
0.00849038
0.0086578
0.00880493
0.0089336
0.00904514
0.0091405
0.00922031
0.00928492
0.00933446
0.000160496
0.00145278
0.00276189
0.00385574
0.0047633
0.00551309
0.00613056
0.00663936
0.00706066
0.00741243
0.00770923
0.00796247
0.00818083
0.00837082
0.00853726
0.00868367
0.00881259
0.00892586
0.00902473
0.00911006
0.00918235
0.00924182
0.00928849
0.000171534
0.00155665
0.00295463
0.00411571
0.00506167
0.00582182
0.00642805
0.00691168
0.0073003
0.00761642
0.00787745
0.00809642
0.00828291
0.00844381
0.0085841
0.0087073
0.00881591
0.00891166
0.00899574
0.00906887
0.00913147
0.00918367
0.0092254
0.000185028
0.00168773
0.00320672
0.00445517
0.00544146
0.0062016
0.00678162
0.00722557
0.00756966
0.00784132
0.0080604
0.00824094
0.00839272
0.00852257
0.00863522
0.00873396
0.00882105
0.00889803
0.00896592
0.00902534
0.00907659
0.00911973
0.00915463
0.000202285
0.00185976
0.00355482
0.00491581
0.00593404
0.00667015
0.00719867
0.00758261
0.00786789
0.00808589
0.00825748
0.00839643
0.00851187
0.00860988
0.00869454
0.00876862
0.00883397
0.00889186
0.00894307
0.00898807
0.00902708
0.00906006
0.00908684
0.000226982
0.00210103
0.00407585
0.0055687
0.0065796
0.00724162
0.00767924
0.00797754
0.00818912
0.00834556
0.00846596
0.00856202
0.00864108
0.00870784
0.00876536
0.00881564
0.00886003
0.0088994
0.00893431
0.00896506
0.00899175
0.00901432
0.00903256
0.000273079
0.00252609
0.00496504
0.00653923
0.00742059
0.00791566
0.00820935
0.00839577
0.00852212
0.00861298
0.00868174
0.0087361
0.00878063
0.00881816
0.00885049
0.00887878
0.00890378
0.00892599
0.00894572
0.0089631
0.00897818
0.00899088
0.009001
0.00041735
0.00370446
0.00682507
0.00802042
0.00846051
0.00865294
0.00875309
0.00881272
0.00885195
0.00887979
0.00890077
0.00891737
0.00893101
0.00894255
0.00895253
0.0089613
0.00896908
0.008976
0.00898215
0.00898758
0.00899227
0.0089962
0.00899926
0.000513842
0.000487518
0.000477028
0.000478546
0.00419437
0.00391772
0.0037901
0.00376626
0.00669632
0.00647881
0.00630331
0.0061684
0.00790916
0.00773043
0.00754293
0.00736144
0.00850116
0.00833229
0.00815091
0.00797097
0.00889436
0.00874438
0.00858627
0.0084241
0.00925419
0.00911907
0.00898074
0.00883736
0.00951979
0.00940829
0.00929404
0.00917626
0.00967451
0.00958372
0.00948993
0.00939107
0.0097256
0.00965411
0.00957691
0.00949333
0.00971424
0.00965746
0.00959428
0.00952434
0.00966914
0.00962275
0.00957028
0.0095115
0.00960487
0.00956594
0.00952156
0.00947166
0.00952944
0.00949615
0.00945814
0.00941548
0.00944841
0.00941975
0.00938716
0.00935079
0.00936601
0.00934156
0.00931398
0.00928338
0.00928565
0.00926537
0.00924255
0.00921729
0.00920942
0.00919343
0.00917529
0.009155
0.00913894
0.00912704
0.0091133
0.00909763
0.00907549
0.00906749
0.0090578
0.00904633
0.00902055
0.00901621
0.00901024
0.00900251
0.00897609
0.00897513
0.00897249
0.00896804
0.00894462
0.00894673
0.00894699
0.00894529
0.00892906
0.00893378
0.00893642
0.0089369
0.00893209
0.00893887
0.00894329
0.00894526
0.00895547
0.00896368
0.00896919
0.00897194
0.00899912
0.00900812
0.00901405
0.00901689
0.00906043
0.00906966
0.00907547
0.00907787
0.00913389
0.00914305
0.00914844
0.00915012
0.00921111
0.00922027
0.00922541
0.00922653
0.00928279
0.00929218
0.00929738
0.0092984
0.00933966
0.00934965
0.0093554
0.00935691
0.00937399
0.00938494
0.00939174
0.00939436
0.00938102
0.00939305
0.00940117
0.00940534
0.00935976
0.00937265
0.009382
0.00938777
0.00931328
0.00932638
0.00933644
0.00934339
0.00924823
0.00926063
0.00927051
0.00927781
0.00917407
0.00918476
0.00919346
0.00920008
0.00910179
0.00911001
0.00911669
0.00912176
0.00904257
0.00904799
0.00905228
0.00905538
0.00900637
0.00900916
0.00901126
0.00901259
0.0090008
0.00900156
0.00900206
0.0090023
0.0012968
0.00227354
0.00314314
0.00388376
0.00439949
0.00471127
0.00487397
0.00491652
0.00484604
0.00466045
0.00437568
0.00403578
0.00368189
0.00334579
0.00304776
0.00275513
0.00233041
0.00151929
0.00023164
0.00406816
0.00436333
0.00469322
0.00498116
0.00521338
0.00536749
0.00544933
0.00545753
0.00538255
0.00521591
0.00496687
0.00464912
0.00429868
0.0039393
0.00358729
0.00320125
0.00265002
0.00168289
0.000245287
0.00602218
0.00589348
0.00582024
0.00585565
0.00590594
0.00592612
0.0059321
0.00591454
0.00583553
0.00568148
0.00545393
0.00516024
0.00481248
0.00442781
0.00401317
0.00352883
0.00285813
0.00177324
0.000249039
0.00708707
0.0067752
0.00654853
0.00647136
0.00643563
0.00639582
0.00634736
0.00630392
0.00622127
0.00606994
0.0058471
0.00555549
0.00519612
0.00477423
0.00428687
0.00370396
0.00293037
0.00177291
0.000242213
0.00768936
0.00734486
0.00709312
0.00695958
0.00686601
0.00677929
0.00670665
0.00663982
0.00654724
0.00639306
0.00615615
0.00583901
0.00543885
0.00495978
0.00439617
0.00372326
0.00286965
0.00168842
0.000234406
0.00816674
0.00782907
0.00756702
0.0073879
0.00723957
0.00712462
0.00703498
0.00694747
0.00683479
0.00666215
0.00640687
0.00605394
0.00558648
0.00501754
0.00434899
0.00357647
0.002711
0.00160468
0.000230333
0.00860372
0.00827526
0.0079984
0.00778027
0.00760244
0.00746093
0.00734148
0.00722036
0.00707439
0.00687272
0.00659297
0.00622013
0.00572695
0.00504768
0.00425124
0.00334458
0.00241631
0.00147082
0.000226655
0.00897622
0.00866435
0.0083841
0.00814813
0.00794815
0.0077749
0.00761493
0.00744832
0.00725475
0.0070119
0.00670513
0.00631129
0.00581909
0.00510963
0.00421133
0.00316073
0.00210745
0.00122999
0.00020912
0.00922002
0.00894801
0.00868773
0.0084521
0.00823933
0.00803829
0.00783792
0.00762249
0.00737571
0.00708197
0.00673817
0.006335
0.00581691
0.00517451
0.00428618
0.00316471
0.00197537
0.000992556
0.00019493
0.00934357
0.00910631
0.00887
0.00864663
0.00843457
0.00822036
0.00799187
0.00773631
0.00744178
0.00710025
0.00671463
0.0062944
0.00580354
0.00517804
0.00439438
0.00337595
0.00222402
0.00110644
0.000191186
0.00939689
0.00919185
0.00897989
0.00876836
0.00855575
0.00833021
0.00807791
0.00778681
0.00744992
0.00706486
0.00664064
0.00619659
0.00570803
0.00512758
0.00441434
0.00351106
0.00243623
0.00123545
0.0001915
0.00940352
0.00922755
0.00904012
0.00884316
0.0086318
0.00839423
0.00811745
0.00779146
0.00741377
0.00698836
0.00652638
0.00604862
0.00555237
0.00500076
0.00433527
0.00350318
0.00249502
0.00131327
0.000187713
0.00937996
0.00922888
0.00906327
0.00888042
0.00867211
0.00842555
0.00812854
0.00777305
0.00735979
0.00689777
0.00640313
0.00589408
0.00537601
0.00481929
0.00416855
0.00337119
0.00241205
0.0012891
0.000180716
0.00933741
0.00920755
0.009061
0.00889174
0.00868916
0.00843943
0.00813019
0.00775513
0.00731668
0.00682567
0.00630007
0.00575747
0.00520578
0.00462217
0.00396158
0.00317678
0.00225711
0.00120923
0.000176113
0.00928461
0.00917327
0.00904375
0.00888792
0.0086937
0.00844698
0.00813529
0.00775289
0.00730308
0.00679577
0.00624622
0.00567117
0.00508109
0.00446327
0.00378403
0.00300723
0.00212605
0.00114395
0.000177015
0.00922792
0.00913315
0.00901928
0.00887697
0.00869351
0.00845503
0.00814981
0.00777223
0.00732502
0.00681618
0.00625717
0.00566201
0.00504198
0.00439592
0.00370397
0.00294124
0.00208787
0.00112676
0.000182022
0.00917153
0.0090917
0.00899243
0.00886383
0.00869321
0.00846733
0.00817545
0.00781234
0.00737948
0.00688277
0.00633073
0.00573413
0.00510379
0.00444557
0.0037519
0.00299942
0.00214818
0.00116043
0.000188568
0.00911794
0.00905143
0.00896569
0.00885081
0.00869454
0.00848449
0.00821084
0.00786871
0.00745858
0.00698446
0.00645264
0.00587133
0.00524965
0.00459559
0.00390506
0.00314869
0.00227636
0.00123628
0.000195173
0.0090684
0.0090137
0.00894017
0.00883861
0.00869735
0.00850495
0.00825238
0.00793502
0.00755249
0.00710732
0.00660391
0.00604823
0.00544719
0.00480561
0.00411532
0.00334462
0.00243765
0.00133089
0.00020122
0.00902414
0.0089797
0.0089169
0.00882739
0.0087009
0.00852661
0.0082961
0.00800488
0.00765174
0.00723799
0.00676624
0.00624013
0.00566331
0.00503533
0.00434294
0.00355217
0.00260615
0.00143776
0.000206883
0.00898651
0.00895086
0.00889732
0.00881823
0.00870483
0.00854766
0.00833881
0.00807324
0.00774879
0.00736595
0.00692544
0.00642839
0.00587463
0.0052582
0.00456044
0.00374734
0.00276396
0.00154467
0.000212369
0.00895735
0.00892901
0.00888307
0.00881288
0.00871052
0.00856804
0.00837829
0.00813611
0.00783856
0.00748425
0.00707224
0.00660114
0.00606694
0.0054592
0.00475615
0.0039206
0.00289749
0.00162079
0.000217376
0.00893895
0.00891636
0.00887626
0.00881295
0.00871967
0.00858936
0.00841555
0.00819317
0.00791855
0.00758897
0.00720181
0.00675319
0.00623561
0.00563477
0.00492567
0.00406891
0.00300807
0.00167655
0.00022081
0.00893383
0.0089153
0.00887915
0.00882054
0.00873373
0.00861259
0.0084513
0.00824483
0.00798903
0.0076801
0.00731362
0.00688342
0.00637913
0.00578334
0.00506843
0.00419306
0.0030993
0.00172049
0.000223137
0.0089443
0.00892804
0.00889384
0.0088377
0.00875478
0.00863979
0.0084875
0.00829302
0.00805178
0.00775905
0.00740895
0.00699308
0.00649884
0.00590647
0.00518628
0.00429527
0.00317388
0.00175519
0.000224654
0.00897184
0.00895602
0.00892181
0.00886594
0.00878439
0.00867264
0.00852599
0.00833968
0.00810882
0.00782791
0.00748984
0.00708446
0.00659733
0.00600693
0.005282
0.00437808
0.00323399
0.00178196
0.000225399
0.00901649
0.00899942
0.00896337
0.00890577
0.0088233
0.0087121
0.00856794
0.00838622
0.00816182
0.0078886
0.00755849
0.00716015
0.00667745
0.00608775
0.00535854
0.00444416
0.00328191
0.00180265
0.00022552
0.00907627
0.00905663
0.00901733
0.00895637
0.00887105
0.00875809
0.00861367
0.00843336
0.0082119
0.00794267
0.0076169
0.0072224
0.00674189
0.00615177
0.00541869
0.00449602
0.00331975
0.00181907
0.000225252
0.00914689
0.00912401
0.00908068
0.00901536
0.00892588
0.00880944
0.00866258
0.00848106
0.00825955
0.00799116
0.00766663
0.00727318
0.00679301
0.00620149
0.00546487
0.00453577
0.00334903
0.00183218
0.00022467
0.00922187
0.00919596
0.00914869
0.00907888
0.00898476
0.0088639
0.00871317
0.00852852
0.00830468
0.00803462
0.00770882
0.00731418
0.00683261
0.00623901
0.00549909
0.00456501
0.00337054
0.0018415
0.000223903
0.00929327
0.00926542
0.00921528
0.00914184
0.00904357
0.00891831
0.0087632
0.0085744
0.00834674
0.00807322
0.00774427
0.0073467
0.00686232
0.00626603
0.00552296
0.00458496
0.00338473
0.00184616
0.000223002
0.00935243
0.00932465
0.00927364
0.00919843
0.00909756
0.00896899
0.00881
0.00861694
0.00838484
0.00810686
0.00777355
0.00737183
0.00688363
0.00628393
0.00553793
0.00459678
0.0033924
0.00184652
0.000221772
0.00939178
0.00936634
0.00931704
0.00924273
0.00914177
0.009012
0.00885068
0.00865427
0.00841799
0.0081353
0.00779707
0.00739051
0.00689783
0.00629428
0.00554525
0.00460185
0.00339507
0.00184503
0.000219901
0.00940564
0.00938451
0.00933971
0.00926943
0.00917157
0.0090436
0.00888248
0.00868456
0.00844524
0.00815835
0.00781524
0.00740362
0.00690618
0.00629856
0.00554652
0.00460139
0.00339409
0.00184342
0.00021779
0.00939129
0.00937579
0.00933767
0.00927441
0.00918311
0.00906054
0.00890297
0.00870627
0.00846583
0.0081759
0.0078285
0.00741207
0.00690991
0.00629823
0.00554323
0.00459658
0.00338934
0.0018397
0.000216133
0.00934966
0.00933993
0.00930952
0.00925545
0.00917381
0.0090604
0.0089103
0.00871827
0.0084793
0.00818807
0.00783743
0.00741677
0.00691025
0.00629472
0.00553687
0.00458866
0.00338118
0.00183262
0.000214596
0.00928556
0.00928039
0.00925721
0.00921287
0.00914291
0.00904196
0.00890352
0.00872007
0.00848563
0.00819519
0.00784269
0.00741871
0.00690842
0.0062895
0.00552911
0.00457945
0.00337148
0.0018236
0.000213133
0.00920758
0.00920476
0.00918679
0.00915074
0.00909257
0.00900612
0.00888321
0.0087123
0.00848544
0.00819795
0.00784507
0.00741881
0.00690561
0.006284
0.00552175
0.00457125
0.00336318
0.00181569
0.000212217
0.00912742
0.00912456
0.00910912
0.00907856
0.00902983
0.00895767
0.00885281
0.00869734
0.00848032
0.00819744
0.00784545
0.00741797
0.00690278
0.00627941
0.0055163
0.00456613
0.003359
0.00181154
0.00021193
0.00905843
0.00905426
0.00903972
0.00901231
0.00896958
0.00890872
0.00882019
0.0086795
0.0084727
0.0081951
0.00784474
0.00741688
0.00690057
0.00627638
0.00551353
0.0045651
0.00336031
0.00181257
0.000212381
0.00901342
0.00900882
0.00899653
0.00897392
0.00893803
0.00888491
0.00880161
0.00866287
0.00846448
0.00819218
0.00784373
0.00741599
0.00689923
0.00627491
0.00551313
0.0045676
0.00336633
0.00181811
0.000213483
0.00900219
0.00899988
0.00899445
0.00898439
0.00896712
0.00893516
0.00885325
0.0086469
0.00845564
0.00818935
0.00784284
0.00741547
0.00689866
0.00627448
0.0055138
0.00457139
0.00337354
0.00182353
0.00021343
)
;

boundaryField
{
    leftWall
    {
        type            nutkWallFunction;
        Cmu             0.09;
        kappa           0.41;
        E               9.8;
        value           nonuniform List<scalar> 
50
(
7.84032e-06
1.06391e-05
1.21919e-05
1.34299e-05
1.44855e-05
1.53569e-05
1.60945e-05
1.6734e-05
1.75851e-05
1.85704e-05
2.00804e-05
2.19571e-05
2.37475e-05
1.96461e-05
1.80062e-05
1.94448e-05
2.10958e-05
2.24464e-05
2.35544e-05
2.4472e-05
2.49878e-05
2.51618e-05
2.50421e-05
2.46475e-05
2.39698e-05
2.30074e-05
2.17832e-05
2.03874e-05
1.898e-05
1.71722e-05
1.51032e-05
1.29357e-05
1.10289e-05
9.53255e-06
8.6128e-06
8.23317e-06
8.26294e-06
8.58466e-06
9.1221e-06
9.83329e-06
1.07007e-05
1.17246e-05
1.29091e-05
1.42881e-05
1.59173e-05
1.7889e-05
2.03872e-05
2.39347e-05
3.04067e-05
4.92949e-05
)
;
    }
    rightWall
    {
        type            nutkWallFunction;
        Cmu             0.09;
        kappa           0.41;
        E               9.8;
        value           nonuniform List<scalar> 
50
(
1.20135e-05
1.53973e-05
1.75744e-05
1.94067e-05
2.1048e-05
2.25847e-05
2.39571e-05
2.52297e-05
2.66836e-05
2.8227e-05
2.8682e-05
2.81724e-05
2.74503e-05
2.69815e-05
2.60513e-05
2.515e-05
2.07591e-05
1.99577e-05
2.00129e-05
1.98437e-05
1.85961e-05
1.74395e-05
1.7171e-05
1.70931e-05
1.82119e-05
1.93063e-05
2.05743e-05
2.13827e-05
2.20933e-05
2.2783e-05
2.33057e-05
2.3667e-05
2.38934e-05
2.39613e-05
2.40307e-05
2.40208e-05
2.39504e-05
2.38488e-05
2.37279e-05
2.35116e-05
2.31221e-05
2.28947e-05
2.26593e-05
2.23004e-05
2.20007e-05
2.18585e-05
2.17952e-05
2.1829e-05
2.19455e-05
2.18929e-05
)
;
    }
    lowerWall
    {
        type            nutkWallFunction;
        Cmu             0.09;
        kappa           0.41;
        E               9.8;
        value           nonuniform List<scalar> 
62
(
3.65245e-06
5.62687e-06
6.85166e-06
7.65492e-06
8.25426e-06
8.73726e-06
9.14509e-06
9.49679e-06
9.80495e-06
1.00797e-05
1.0329e-05
1.05594e-05
1.07749e-05
1.0969e-05
1.11342e-05
1.12566e-05
1.13136e-05
1.12695e-05
1.10311e-05
1.05679e-05
9.75647e-06
8.33106e-06
5.74891e-06
5.74891e-06
1.74139e-05
2.0768e-05
2.38959e-05
2.72365e-05
3.09181e-05
3.57547e-05
4.46511e-05
5.4189e-05
5.18295e-05
5.09541e-05
5.1237e-05
7.83577e-06
2.32499e-05
2.49414e-05
2.55632e-05
2.72346e-05
3.1361e-05
4.05865e-05
5.11313e-05
7.83577e-06
1.09836e-05
1.32924e-05
1.41915e-05
1.42461e-05
1.41007e-05
1.39182e-05
1.36916e-05
1.32529e-05
1.24383e-05
1.15489e-05
1.05701e-05
9.53894e-06
8.5281e-06
7.49895e-06
6.90546e-06
6.50032e-06
5.97404e-06
5.21722e-06
)
;
    }
    atmosphere
    {
        type            calculated;
        value           nonuniform List<scalar> 
46
(
0.009
0.009
0.009
0.009
0.009
0.009
0.009
0.009
0.009
0.009
0.009
0.009
0.009
0.009
0.009
0.009
0.009
0.009
0.009
0.009
0.009
0.009
0.009
0.009
0.009
0.009
0.009
0.009
0.009
0.009
0.009
0.009
0.009
0.009
0.0086469
0.00845564
0.00818935
0.00784284
0.00741547
0.00689866
0.00627448
0.0055138
0.00457139
0.00337354
0.00182353
0.00021343
)
;
    }
    defaultFaces
    {
        type            empty;
    }
}


// ************************************************************************* //
