/*--------------------------------*- C++ -*----------------------------------*\
| =========                 |                                                 |
| \\      /  F ield         | OpenFOAM: The Open Source CFD Toolbox           |
|  \\    /   O peration     | Version:  2.3.0                                 |
|   \\  /    A nd           | Web:      www.OpenFOAM.org                      |
|    \\/     M anipulation  |                                                 |
\*---------------------------------------------------------------------------*/
FoamFile
{
    version     2.0;
    format      ascii;
    class       volScalarField;
    location    "2";
    object      p;
}
// * * * * * * * * * * * * * * * * * * * * * * * * * * * * * * * * * * * * * //

dimensions      [1 -1 -2 0 0 0 0];

internalField   nonuniform List<scalar> 
2268
(
670.81
671.155
672.692
675.052
677.976
681.343
685.065
689.048
693.2
697.432
701.669
705.852
709.935
713.886
717.685
721.323
724.811
728.248
731.426
734.96
738.89
742.572
745.046
611.93
612.115
613.457
615.729
618.621
622.009
625.788
629.854
634.102
638.435
642.767
647.035
651.193
655.223
659.129
662.937
666.682
670.544
674.975
678.77
681.134
682.893
685.673
552.859
553.155
554.293
556.398
559.203
562.582
566.413
570.575
574.947
579.413
583.875
588.26
592.524
596.656
600.687
604.67
608.658
612.878
618.08
621.878
623.336
623.223
626.504
493.608
494.114
495.145
497.095
499.811
503.175
507.056
511.316
515.815
520.42
525.017
529.525
533.895
538.124
542.248
546.327
550.416
554.677
559.756
563.591
564.801
563.96
567.858
434.199
434.89
435.909
437.75
440.4
443.765
447.71
452.08
456.716
461.463
466.197
470.824
475.294
479.601
483.783
487.881
491.925
495.975
500.414
504.103
505.268
505.27
509.933
374.637
375.459
376.509
378.277
380.89
384.283
388.321
392.828
397.622
402.526
407.404
412.154
416.719
421.097
425.317
429.387
433.293
437.006
440.719
443.733
444.75
446.406
452.627
314.938
315.832
316.911
318.628
321.228
324.68
328.847
333.524
338.503
343.582
348.613
353.49
358.148
362.593
366.846
370.863
374.567
377.855
380.77
382.761
383.131
386.365
395.39
255.123
256.013
257.087
258.767
261.388
264.943
269.283
274.162
279.341
284.59
289.758
294.749
299.477
303.975
308.254
312.191
315.616
318.341
320.282
320.953
319.946
322.183
336.425
611.065
610.243
630.585
656.157
677.493
695.183
710.732
724.408
736.745
749.591
765.524
786.881
808.601
827.858
839.965
850.021
860.291
872.247
882.32
552.44
549.692
568.967
593.533
615.542
634.696
652.068
667.33
679.699
691.844
708.111
730.119
752.693
772.783
788.296
797.987
805.31
814.131
824.566
492.506
489.868
508.236
530.641
552.503
572.804
591.832
609.001
623.569
636.887
653.265
673.806
696.691
717.52
735.989
745.684
752.465
758.171
768.009
432.218
431.167
448.966
470.268
491.57
512.21
531.763
549.83
566.47
581.162
596.789
616.481
639.734
661.327
681.436
692.671
699.728
704.07
712.961
372.221
374.366
391.914
411.751
432.199
452.865
472.887
491.773
508.868
524.816
538.177
557.356
581.866
604.313
624.903
639.429
647.316
651.238
659.659
311.813
319.95
336.152
353.77
373.271
393.925
414.544
434.675
452.603
468.634
481.407
498.885
523.274
546.847
567.722
584.478
595.306
599.79
608.272
247.979
266.54
280.388
295.072
313.895
334.82
356.36
378.377
398.188
416.919
434.995
449.522
467.485
489.05
510.415
527.967
542.292
548.565
557.907
180.98
208.748
219.26
232.019
252.004
274.472
297.686
322.731
345.639
370.682
393.839
407.305
420.609
435.854
453.519
471.086
488.65
497.698
508.315
161.432
162.132
163.101
164.757
167.508
171.366
176.11
181.4
186.935
192.441
197.774
202.839
207.658
212.209
216.545
220.373
223.31
225.015
225.254
223.515
219.48
214.358
207.226
49.7023
50.6378
51.4692
52.7809
54.9969
58.0939
61.9289
66.2276
70.8518
75.5006
79.9695
84.1062
87.975
91.8091
95.6925
99.2154
101.867
103.223
102.708
99.3945
93.0361
84.1224
72.6509
2.11914
2.45707
2.75436
3.25242
4.02212
4.97974
6.16475
7.58978
9.38348
11.3993
13.4357
15.317
17.0314
18.4963
19.7087
20.8547
22.348
24.4334
26.3549
26.1952
23.0282
18.1894
13.5626
-0.170922
-0.166808
-0.0860031
0.0902325
0.311887
0.465097
0.581096
0.679732
0.947387
1.33676
1.7599
2.10381
2.31843
2.11611
1.34291
0.339939
0.243838
1.74141
4.38505
6.21119
5.9834
4.90831
4.95245
-0.616884
-0.627849
-0.596039
-0.51659
-0.391534
-0.273797
-0.146557
0.100801
0.289053
0.498186
0.761038
1.07001
1.35165
1.31558
0.761578
0.417534
0.455927
0.945849
2.00373
4.24374
5.44558
5.34712
5.1171
-0.972989
-0.979132
-0.984896
-0.993542
-1.00368
-0.99194
-0.927041
-0.730712
-0.652409
-0.673087
-0.681986
-0.554081
-0.328493
-0.186004
-0.290246
-0.174097
-0.0863947
-0.2072
-0.160106
0.735003
1.66253
1.81625
1.56737
-1.1229
-1.11971
-1.12086
-1.12621
-1.13228
-1.13578
-1.14855
-1.18765
-1.20107
-1.19541
-1.17805
-1.15116
-1.08418
-0.978104
-0.798087
-0.647683
-0.608876
-0.781544
-0.956494
-0.808384
-0.505422
-0.609666
-0.681529
-1.25703
-1.25481
-1.25489
-1.25867
-1.26435
-1.27031
-1.27913
-1.29105
-1.2991
-1.29818
-1.28673
-1.26177
-1.22255
-1.17234
-1.10793
-0.955965
-0.943938
-1.05901
-1.13044
-1.12665
-1.14434
-1.1329
-1.0709
-1.39304
-1.39179
-1.39175
-1.39451
-1.39935
-1.40516
-1.41263
-1.42113
-1.42688
-1.42715
-1.42265
-1.4182
-1.41977
-1.4198
-1.39091
-1.26976
-1.24144
-1.29967
-1.33421
-1.32642
-1.30752
-1.28802
-1.2611
-1.5285
-1.5286
-1.52917
-1.53155
-1.53542
-1.54063
-1.54733
-1.55449
-1.5599
-1.56299
-1.56616
-1.57616
-1.59689
-1.61933
-1.62082
-1.58232
-1.54149
-1.53773
-1.54521
-1.50515
-1.46587
-1.44752
-1.43461
-1.66272
-1.66434
-1.66554
-1.66788
-1.67131
-1.67588
-1.68152
-1.68764
-1.69301
-1.69805
-1.7044
-1.71489
-1.73021
-1.74748
-1.76866
-1.78104
-1.75348
-1.73129
-1.72823
-1.69896
-1.65675
-1.62772
-1.61322
-1.79566
-1.79841
-1.80079
-1.80328
-1.80643
-1.81044
-1.8152
-1.82043
-1.82568
-1.83119
-1.83784
-1.84707
-1.85909
-1.87158
-1.88217
-1.88794
-1.8842
-1.88054
-1.88248
-1.86692
-1.83583
-1.80304
-1.78638
-1.92756
-1.93133
-1.9347
-1.9375
-1.9405
-1.94406
-1.94818
-1.95275
-1.9576
-1.96285
-1.9689
-1.97635
-1.98531
-1.9945
-2.0018
-2.00506
-2.00509
-2.00881
-2.01265
-1.99868
-1.97778
-1.95714
-1.94507
-2.05885
-2.06336
-2.06745
-2.07052
-2.07342
-2.07662
-2.08023
-2.08421
-2.08855
-2.0933
-2.09857
-2.10452
-2.11109
-2.11768
-2.12319
-2.12643
-2.12777
-2.1301
-2.13023
-2.12202
-2.11004
-2.09833
-2.09195
-2.18993
-2.19482
-2.19927
-2.20249
-2.20528
-2.20819
-2.21135
-2.21481
-2.2186
-2.22275
-2.22726
-2.23209
-2.23708
-2.24191
-2.24605
-2.24897
-2.25063
-2.25187
-2.25145
-2.24716
-2.24068
-2.23462
-2.23204
-2.32099
-2.32588
-2.33035
-2.33356
-2.33624
-2.33888
-2.34167
-2.34467
-2.34793
-2.35149
-2.35531
-2.3593
-2.36328
-2.36703
-2.37027
-2.37276
-2.37447
-2.37557
-2.37559
-2.3736
-2.37056
-2.36806
-2.36766
-2.45205
-2.45658
-2.46076
-2.46386
-2.46641
-2.46885
-2.47134
-2.47394
-2.47674
-2.47977
-2.483
-2.48634
-2.48964
-2.49272
-2.49543
-2.49765
-2.49935
-2.50057
-2.50109
-2.50061
-2.49971
-2.49935
-2.50043
-2.58294
-2.58683
-2.59054
-2.59349
-2.59594
-2.59821
-2.60045
-2.60274
-2.60515
-2.60773
-2.61047
-2.6133
-2.61611
-2.61878
-2.62118
-2.62325
-2.62497
-2.62635
-2.62732
-2.62783
-2.62821
-2.62902
-2.63067
-2.71344
-2.71644
-2.71972
-2.72256
-2.72495
-2.72709
-2.72913
-2.73116
-2.73325
-2.73545
-2.73778
-2.74021
-2.74265
-2.74502
-2.74723
-2.74923
-2.75101
-2.75256
-2.7539
-2.75505
-2.75621
-2.75766
-2.75961
-2.84373
-2.84593
-2.84853
-2.85136
-2.85365
-2.85563
-2.85747
-2.85927
-2.8611
-2.863
-2.865
-2.86709
-2.86924
-2.87137
-2.87344
-2.8754
-2.87723
-2.87895
-2.88056
-2.88213
-2.88377
-2.88564
-2.88787
-2.97536
-2.97676
-2.9781
-2.98034
-2.98226
-2.98395
-2.98554
-2.98712
-2.98873
-2.9904
-2.99215
-2.99398
-2.99588
-2.99782
-2.99976
-3.00167
-3.00354
-3.00537
-3.00719
-3.00903
-3.01098
-3.01311
-3.01553
-3.10801
-3.10845
-3.10872
-3.10965
-3.11081
-3.11206
-3.11336
-3.11473
-3.11617
-3.11767
-3.11923
-3.12087
-3.12259
-3.12437
-3.12619
-3.12805
-3.12992
-3.13182
-3.13375
-3.13577
-3.1379
-3.1402
-3.14274
-3.23917
-3.23909
-3.23874
-3.23856
-3.239
-3.23985
-3.2409
-3.2421
-3.24341
-3.24479
-3.24624
-3.24776
-3.24935
-3.25102
-3.25275
-3.25454
-3.2564
-3.25832
-3.26032
-3.26242
-3.26466
-3.26706
-3.26966
-3.36786
-3.36745
-3.36669
-3.36635
-3.36659
-3.36724
-3.36815
-3.36925
-3.37047
-3.37179
-3.37318
-3.37463
-3.37615
-3.37775
-3.37941
-3.38116
-3.38299
-3.3849
-3.38692
-3.38907
-3.39136
-3.39379
-3.39642
-3.49539
-3.49439
-3.49361
-3.49347
-3.49376
-3.49437
-3.49522
-3.49626
-3.49743
-3.49871
-3.50007
-3.50149
-3.50298
-3.50454
-3.50617
-3.50788
-3.50968
-3.51159
-3.5136
-3.51575
-3.51805
-3.52048
-3.5231
-3.623
-3.62174
-3.62087
-3.62065
-3.6209
-3.62145
-3.62225
-3.62324
-3.62438
-3.62562
-3.62696
-3.62836
-3.62984
-3.63138
-3.63299
-3.63468
-3.63647
-3.63835
-3.64035
-3.64248
-3.64475
-3.64716
-3.64973
-3.75071
-3.7494
-3.74841
-3.74805
-3.74818
-3.74865
-3.74938
-3.7503
-3.75139
-3.7526
-3.75391
-3.75529
-3.75675
-3.75827
-3.75987
-3.76155
-3.76331
-3.76517
-3.76714
-3.76924
-3.77147
-3.77382
-3.77634
-3.87845
-3.87717
-3.87612
-3.87564
-3.87566
-3.87602
-3.87666
-3.87751
-3.87853
-3.87969
-3.88096
-3.88231
-3.88374
-3.88524
-3.88681
-3.88846
-3.8902
-3.89202
-3.89395
-3.896
-3.89817
-3.90046
-3.90289
-4.0062
-4.00498
-4.00392
-4.00337
-4.00329
-4.00356
-4.00411
-4.00488
-4.00583
-4.00692
-4.00813
-4.00943
-4.01082
-4.01228
-4.01381
-4.01542
-4.01711
-4.01889
-4.02077
-4.02275
-4.02485
-4.02706
-4.02939
-4.13395
-4.13281
-4.13177
-4.13119
-4.13105
-4.13124
-4.13171
-4.13239
-4.13326
-4.13428
-4.13542
-4.13666
-4.13798
-4.13939
-4.14086
-4.14242
-4.14405
-4.14576
-4.14757
-4.14947
-4.15148
-4.15358
-4.1558
-4.26169
-4.26064
-4.25964
-4.25905
-4.25887
-4.25901
-4.2594
-4.26001
-4.26081
-4.26174
-4.2628
-4.26397
-4.26522
-4.26655
-4.26795
-4.26943
-4.27099
-4.27262
-4.27434
-4.27615
-4.27805
-4.28004
-4.28212
-4.3894
-4.38844
-4.3875
-4.38693
-4.38673
-4.38682
-4.38716
-4.3877
-4.38842
-4.38928
-4.39026
-4.39134
-4.3925
-4.39375
-4.39507
-4.39645
-4.39791
-4.39945
-4.40106
-4.40276
-4.40454
-4.4064
-4.40834
-4.51707
-4.51621
-4.51534
-4.51478
-4.51458
-4.51464
-4.51493
-4.51542
-4.51607
-4.51686
-4.51775
-4.51875
-4.51982
-4.52097
-4.52218
-4.52347
-4.52482
-4.52625
-4.52774
-4.52931
-4.53096
-4.53268
-4.53447
-4.64468
-4.64392
-4.64312
-4.64261
-4.6424
-4.64245
-4.64271
-4.64315
-4.64374
-4.64445
-4.64527
-4.64617
-4.64714
-4.64819
-4.64929
-4.65047
-4.6517
-4.653
-4.65437
-4.6558
-4.6573
-4.65887
-4.6605
-4.77223
-4.77157
-4.77086
-4.77038
-4.77019
-4.77023
-4.77047
-4.77087
-4.7714
-4.77204
-4.77277
-4.77358
-4.77445
-4.77539
-4.77638
-4.77743
-4.77854
-4.77971
-4.78094
-4.78222
-4.78357
-4.78497
-4.78644
-4.89972
-4.89916
-4.89854
-4.89812
-4.89795
-4.89799
-4.8982
-4.89856
-4.89904
-4.89961
-4.90026
-4.90097
-4.90174
-4.90256
-4.90343
-4.90436
-4.90533
-4.90636
-4.90744
-4.90857
-4.90976
-4.911
-4.91229
-5.02716
-5.02671
-5.02618
-5.02581
-5.02567
-5.02571
-5.02592
-5.02624
-5.02666
-5.02715
-5.02771
-5.02832
-5.02898
-5.02968
-5.03043
-5.03123
-5.03207
-5.03295
-5.03388
-5.03486
-5.03588
-5.03695
-5.03807
-5.15455
-5.15422
-5.15379
-5.15348
-5.15336
-5.15342
-5.1536
-5.15388
-5.15424
-5.15466
-5.15512
-5.15563
-5.15618
-5.15676
-5.15739
-5.15805
-5.15876
-5.15949
-5.16027
-5.16109
-5.16194
-5.16283
-5.16377
-5.28192
-5.28173
-5.2814
-5.28113
-5.28103
-5.28109
-5.28125
-5.28148
-5.28177
-5.28211
-5.28248
-5.28288
-5.28332
-5.28379
-5.28429
-5.28482
-5.28539
-5.28598
-5.2866
-5.28725
-5.28794
-5.28866
-5.28941
-5.40934
-5.40928
-5.40903
-5.40873
-5.40863
-5.40868
-5.40882
-5.409
-5.40922
-5.40947
-5.40975
-5.41006
-5.41039
-5.41074
-5.41112
-5.41152
-5.41194
-5.41239
-5.41286
-5.41335
-5.41387
-5.41441
-5.41498
-5.53686
-5.53703
-5.53677
-5.53626
-5.53613
-5.53618
-5.53629
-5.53643
-5.53658
-5.53676
-5.53695
-5.53715
-5.53738
-5.53762
-5.53788
-5.53815
-5.53844
-5.53874
-5.53906
-5.53939
-5.53974
-5.54011
-5.54049
-5.6643
-5.66579
-5.66523
-5.66458
-5.66446
-5.66447
-5.66452
-5.66458
-5.66465
-5.66472
-5.6648
-5.66489
-5.66499
-5.6651
-5.66521
-5.66533
-5.66545
-5.66558
-5.66572
-5.66586
-5.666
-5.66614
-5.66628
184.689
174.827
166.726
154.197
59.7547
51.5944
46.4207
43.9451
10.9241
8.20939
5.64834
5.67117
6.75722
7.81232
7.78036
7.23614
5.49719
5.50538
5.59957
5.87908
1.95202
2.26664
2.96516
3.74421
-0.647154
-0.546912
-0.0581563
0.379627
-1.04456
-1.03917
-1.09325
-1.1835
-1.25812
-1.26741
-1.27987
-1.29083
-1.43652
-1.44289
-1.45258
-1.46091
-1.61321
-1.61636
-1.62141
-1.62756
-1.78247
-1.78227
-1.78358
-1.78635
-1.94037
-1.93941
-1.93882
-1.93925
-2.08852
-2.08814
-2.08695
-2.08642
-2.23137
-2.23158
-2.22993
-2.22914
-2.3693
-2.36911
-2.3682
-2.36794
-2.50141
-2.5018
-2.50224
-2.50292
-2.63194
-2.63296
-2.63418
-2.63549
-2.76141
-2.76289
-2.7646
-2.76629
-2.88999
-2.89175
-2.89375
-2.89568
-3.01783
-3.01975
-3.02191
-3.02398
-3.14514
-3.14712
-3.14935
-3.15149
-3.27209
-3.27408
-3.27631
-3.27845
-3.39884
-3.40079
-3.40296
-3.40506
-3.52547
-3.52735
-3.52943
-3.53144
-3.65204
-3.65383
-3.65579
-3.6577
-3.77855
-3.78024
-3.78208
-3.78387
-3.90501
-3.9066
-3.90831
-3.90997
-4.03139
-4.03288
-4.03448
-4.03602
-4.15769
-4.15909
-4.16057
-4.162
-4.28389
-4.28519
-4.28657
-4.28789
-4.40999
-4.4112
-4.41247
-4.41369
-4.53599
-4.5371
-4.53827
-4.53939
-4.66188
-4.6629
-4.66397
-4.665
-4.78769
-4.7886
-4.78957
-4.7905
-4.9134
-4.91421
-4.91507
-4.9159
-5.03902
-5.03973
-5.04048
-5.0412
-5.16457
-5.16517
-5.1658
-5.16641
-5.29005
-5.29053
-5.29104
-5.29154
-5.41547
-5.41584
-5.41622
-5.41658
-5.54079
-5.54103
-5.54127
-5.54152
-5.66638
-5.66646
-5.66655
-5.66664
117.931
113.215
117.314
131.342
154.735
180.444
206.532
235.298
263.41
292.726
320.671
341.371
356.178
369.101
382.257
396.1
408.649
419.707
432.157
34.8931
24.9004
24.5772
31.7084
45.7124
67.2394
93.182
120.422
149.358
182.132
215.429
243.737
264.322
280.925
293.732
301.189
306.531
317.202
332.3
7.22954
8.80093
9.50739
9.94079
10.8998
16.0656
27.6062
39.5348
55.033
78.8128
108.38
137.972
162.702
181.872
194.767
200.944
204.779
217.357
236.042
6.88864
7.32602
7.7131
8.0576
8.47057
9.00239
10.1686
11.9864
13.892
20.141
33.7518
54.4413
73.588
88.3496
100.375
107.705
112.387
123.796
146.254
6.42856
6.84213
7.20325
7.53343
7.81638
8.02457
8.34891
8.94111
9.41893
9.36248
9.58312
15.1693
25.8227
36.0442
45.7482
52.5294
53.836
55.1343
72.8563
4.75764
5.70936
6.31496
6.64091
6.67943
6.45198
6.54231
6.8776
7.18574
7.31485
7.13724
6.55568
8.44531
14.2702
22.1913
27.4481
27.0262
21.8454
25.8628
0.605313
1.87518
3.00571
3.33201
3.10349
2.74881
2.74449
3.04551
3.50441
3.92837
3.92835
3.24391
1.72542
3.31997
7.38075
10.5947
10.2264
7.02625
4.84365
-1.26155
-1.06425
-0.713421
-0.557388
-0.538501
-0.555898
-0.521882
-0.422473
-0.18205
0.189803
0.605596
0.239675
-0.590288
-0.863261
-0.414009
0.221813
0.765456
0.669516
-0.555563
-1.32084
-1.41968
-1.52832
-1.52445
-1.46042
-1.40375
-1.38317
-1.39201
-1.42112
-1.4377
-1.26213
-1.2915
-1.43377
-1.58612
-1.69784
-1.7373
-1.7896
-1.81947
-1.75433
-1.47203
-1.49049
-1.51482
-1.51798
-1.50286
-1.49773
-1.5076
-1.5294
-1.55941
-1.59439
-1.66951
-1.76943
-1.75471
-1.79286
-1.82903
-1.83694
-1.83873
-1.8394
-1.84605
-1.63745
-1.65346
-1.66882
-1.67307
-1.66843
-1.66986
-1.67932
-1.69724
-1.72365
-1.7583
-1.80743
-1.86021
-1.88258
-1.90733
-1.93523
-1.94885
-1.9558
-1.9575
-1.95692
-1.79264
-1.80478
-1.81835
-1.8298
-1.83704
-1.83957
-1.84885
-1.86603
-1.88847
-1.91389
-1.94625
-1.97785
-1.99786
-2.01974
-2.04059
-2.05323
-2.06264
-2.06759
-2.06922
-1.94193
-1.95008
-1.96188
-1.9762
-1.9913
-1.99935
-2.00899
-2.02782
-2.04722
-2.06296
-2.07823
-2.09952
-2.11916
-2.13809
-2.153
-2.1637
-2.1739
-2.18195
-2.18683
-2.08738
-2.09281
-2.10255
-2.11578
-2.13216
-2.14883
-2.1625
-2.17768
-2.19095
-2.20198
-2.21027
-2.22573
-2.24243
-2.25947
-2.27313
-2.28326
-2.29216
-2.30095
-2.30768
-2.2296
-2.23392
-2.24193
-2.25307
-2.26773
-2.28527
-2.30135
-2.31083
-2.32038
-2.3334
-2.34529
-2.35772
-2.36932
-2.38226
-2.39516
-2.40566
-2.41409
-2.42381
-2.43089
-2.36865
-2.37283
-2.37959
-2.38868
-2.40054
-2.41429
-2.4276
-2.4377
-2.44803
-2.46103
-2.47513
-2.48704
-2.49648
-2.50464
-2.51559
-2.52717
-2.53759
-2.54563
-2.54917
-2.50453
-2.5091
-2.51503
-2.52284
-2.53224
-2.54295
-2.55406
-2.56406
-2.5742
-2.58562
-2.59807
-2.60926
-2.61788
-2.62609
-2.63669
-2.64853
-2.65842
-2.66215
-2.66252
-2.63772
-2.64267
-2.64864
-2.65544
-2.66344
-2.67216
-2.68134
-2.6904
-2.6997
-2.70971
-2.72009
-2.72982
-2.73848
-2.74731
-2.75753
-2.76805
-2.77455
-2.77686
-2.77604
-2.76892
-2.77377
-2.77997
-2.78666
-2.7938
-2.8013
-2.80884
-2.81663
-2.82495
-2.83381
-2.84291
-2.85172
-2.86007
-2.86849
-2.87738
-2.88546
-2.89074
-2.89332
-2.89169
-2.89855
-2.90317
-2.90896
-2.91558
-2.92234
-2.92913
-2.93561
-2.94245
-2.94993
-2.9579
-2.96607
-2.97409
-2.98189
-2.98958
-2.99712
-3.00374
-3.00834
-3.01111
-3.00976
-3.02699
-3.03142
-3.03668
-3.04258
-3.04886
-3.05518
-3.06132
-3.06772
-3.07462
-3.08188
-3.08929
-3.09662
-3.10373
-3.11059
-3.11706
-3.1226
-3.12654
-3.12905
-3.12776
-3.15457
-3.15883
-3.16371
-3.1691
-3.17479
-3.18061
-3.18649
-3.1926
-3.19904
-3.2057
-3.21243
-3.21907
-3.22547
-3.23154
-3.23708
-3.2417
-3.24493
-3.24655
-3.24563
-3.28153
-3.28565
-3.29024
-3.29523
-3.3005
-3.30592
-3.31148
-3.31723
-3.32321
-3.32933
-3.33544
-3.34141
-3.34711
-3.35243
-3.35715
-3.36098
-3.36353
-3.36442
-3.36311
-3.40809
-3.41206
-3.4164
-3.42108
-3.42599
-3.43107
-3.43629
-3.44166
-3.44718
-3.45277
-3.45831
-3.46365
-3.46869
-3.47329
-3.47727
-3.48038
-3.48229
-3.48259
-3.48068
-3.53437
-3.53818
-3.54229
-3.54669
-3.5513
-3.55605
-3.56093
-3.56591
-3.57098
-3.57606
-3.58104
-3.58581
-3.59023
-3.59416
-3.59744
-3.59986
-3.60109
-3.60069
-3.59847
-3.66049
-3.66412
-3.66801
-3.67214
-3.67644
-3.68088
-3.68541
-3.69001
-3.69464
-3.69924
-3.7037
-3.7079
-3.71174
-3.71506
-3.7177
-3.71944
-3.71993
-3.7187
-3.71612
-3.7865
-3.78995
-3.7936
-3.79746
-3.80146
-3.80558
-3.80976
-3.81399
-3.8182
-3.82233
-3.82629
-3.82998
-3.83328
-3.83604
-3.8381
-3.83923
-3.83903
-3.83701
-3.83395
-3.91244
-3.91568
-3.91909
-3.92269
-3.9264
-3.93019
-3.93403
-3.93788
-3.94168
-3.94538
-3.94888
-3.95209
-3.9549
-3.95716
-3.95873
-3.95937
-3.95867
-3.9561
-3.95274
-4.03832
-4.04135
-4.04452
-4.04784
-4.05126
-4.05474
-4.05824
-4.06172
-4.06513
-4.06841
-4.07148
-4.07426
-4.07663
-4.07848
-4.07965
-4.07994
-4.07895
-4.07618
-4.07238
-4.16413
-4.16694
-4.16988
-4.17294
-4.17607
-4.17924
-4.18241
-4.18554
-4.18858
-4.19147
-4.19414
-4.19652
-4.19851
-4.2
-4.20085
-4.20089
-4.19976
-4.19694
-4.19272
-4.28986
-4.29247
-4.29518
-4.29798
-4.30084
-4.30371
-4.30657
-4.30936
-4.31204
-4.31457
-4.31688
-4.3189
-4.32055
-4.32172
-4.3223
-4.32213
-4.32086
-4.31796
-4.31371
-4.41551
-4.41791
-4.4204
-4.42296
-4.42556
-4.42815
-4.43071
-4.43319
-4.43555
-4.43774
-4.43971
-4.4414
-4.44274
-4.44364
-4.44397
-4.44358
-4.44209
-4.43892
-4.43515
-4.54106
-4.54326
-4.54554
-4.54788
-4.55023
-4.55257
-4.55486
-4.55704
-4.55909
-4.56097
-4.56263
-4.56403
-4.5651
-4.56575
-4.56588
-4.5653
-4.56355
-4.55993
-4.55617
-4.66652
-4.66853
-4.6706
-4.67273
-4.67486
-4.67697
-4.67901
-4.68093
-4.68269
-4.68427
-4.68565
-4.68678
-4.68761
-4.68807
-4.68806
-4.68738
-4.68559
-4.6819
-4.67768
-4.79187
-4.7937
-4.79558
-4.79751
-4.79944
-4.80135
-4.80318
-4.80487
-4.80636
-4.80765
-4.80876
-4.80964
-4.81027
-4.81058
-4.81048
-4.80982
-4.80821
-4.80499
-4.80089
-4.91713
-4.91877
-4.92046
-4.92221
-4.92398
-4.92573
-4.92739
-4.92887
-4.93009
-4.93111
-4.93194
-4.93259
-4.93303
-4.93321
-4.93306
-4.93242
-4.9309
-4.92788
-4.92411
-5.04228
-5.04374
-5.04525
-5.04683
-5.04845
-5.05009
-5.05165
-5.05296
-5.05391
-5.05463
-5.05518
-5.0556
-5.05586
-5.05593
-5.05573
-5.05506
-5.05345
-5.05022
-5.04635
-5.16734
-5.1686
-5.16992
-5.17134
-5.17284
-5.17442
-5.17599
-5.17718
-5.17781
-5.1782
-5.17846
-5.17863
-5.17873
-5.17871
-5.17849
-5.17785
-5.17618
-5.17278
-5.16875
-5.2923
-5.29334
-5.29446
-5.29569
-5.29708
-5.29868
-5.30049
-5.30172
-5.3019
-5.30184
-5.30175
-5.30166
-5.3016
-5.30153
-5.30137
-5.30091
-5.29939
-5.29604
-5.29198
-5.41716
-5.41795
-5.41882
-5.41983
-5.42108
-5.42289
-5.42565
-5.42742
-5.42658
-5.42573
-5.42515
-5.42473
-5.42446
-5.42433
-5.4243
-5.42419
-5.42307
-5.42003
-5.41598
-5.54191
-5.54242
-5.54299
-5.54368
-5.54476
-5.54709
-5.55241
-5.55535
-5.55223
-5.55002
-5.54872
-5.54786
-5.54727
-5.54698
-5.54706
-5.54743
-5.54707
-5.54469
-5.54081
-5.66678
-5.66695
-5.66716
-5.6675
-5.6683
-5.6708
-5.67841
-5.67921
-5.67472
-5.67221
-5.67086
-5.66997
-5.66934
-5.6689
-5.66898
-5.67103
-5.67291
-5.67114
-5.66608
)
;

boundaryField
{
    leftWall
    {
        type            calculated;
        value           nonuniform List<scalar> 
50
(
670.81
611.93
552.859
493.608
434.199
374.637
314.938
255.123
161.432
49.7023
2.11914
-0.170922
-0.616884
-0.972989
-1.1229
-1.25703
-1.39304
-1.5285
-1.66272
-1.79566
-1.92756
-2.05885
-2.18993
-2.32099
-2.45205
-2.58294
-2.71344
-2.84373
-2.97536
-3.10801
-3.23917
-3.36786
-3.49539
-3.623
-3.75071
-3.87845
-4.0062
-4.13395
-4.26169
-4.3894
-4.51707
-4.64468
-4.77223
-4.89972
-5.02716
-5.15455
-5.28192
-5.40934
-5.53686
-5.6643
)
;
    }
    rightWall
    {
        type            calculated;
        value           nonuniform List<scalar> 
50
(
882.32
824.566
768.009
712.961
659.659
608.272
557.907
508.315
432.157
332.3
236.042
146.254
72.8563
25.8628
4.84365
-0.555563
-1.75433
-1.84605
-1.95692
-2.06922
-2.18683
-2.30768
-2.43089
-2.54917
-2.66252
-2.77604
-2.89169
-3.00976
-3.12776
-3.24563
-3.36311
-3.48068
-3.59847
-3.71612
-3.83395
-3.95274
-4.07238
-4.19272
-4.31371
-4.43515
-4.55617
-4.67768
-4.80089
-4.92411
-5.04635
-5.16875
-5.29198
-5.41598
-5.54081
-5.66608
)
;
    }
    lowerWall
    {
        type            calculated;
        value           nonuniform List<scalar> 
62
(
700.239
700.585
702.121
704.482
707.405
710.773
714.494
718.478
722.63
726.862
731.099
735.282
739.365
743.316
747.114
750.753
754.24
757.676
760.53
763.77
768.147
771.83
774.152
745.046
685.673
626.504
567.858
509.933
452.627
395.39
336.425
247.232
237.226
228.868
215.936
611.065
552.44
492.506
432.218
372.221
311.813
247.979
180.98
640.042
638.873
658.088
683.614
704.925
722.527
738.033
751.702
764.85
778.519
794.819
816.177
837.897
856.902
866.777
876.728
888.6
900.628
910.701
)
;
    }
    atmosphere
    {
        type            calculated;
        value           nonuniform List<scalar> 
46
(
-5.72906
-5.7293
-5.7293
-5.72927
-5.72925
-5.72923
-5.72922
-5.72921
-5.72921
-5.72922
-5.72922
-5.72924
-5.72925
-5.72927
-5.7293
-5.72932
-5.72934
-5.72937
-5.72938
-5.7294
-5.7294
-5.7294
-5.7294
-5.72939
-5.72938
-5.72937
-5.72934
-5.7293
-5.72925
-5.72919
-5.72914
-5.7291
-5.72907
-5.72904
-5.72904
-5.72904
-5.72904
-5.72904
-5.72904
-5.72904
-5.72904
-5.72904
-5.73459
-5.74121
-5.74098
-5.73022
)
;
    }
    defaultFaces
    {
        type            empty;
    }
}


// ************************************************************************* //
