/*--------------------------------*- C++ -*----------------------------------*\
| =========                 |                                                 |
| \\      /  F ield         | OpenFOAM: The Open Source CFD Toolbox           |
|  \\    /   O peration     | Version:  2.3.0                                 |
|   \\  /    A nd           | Web:      www.OpenFOAM.org                      |
|    \\/     M anipulation  |                                                 |
\*---------------------------------------------------------------------------*/
FoamFile
{
    version     2.0;
    format      ascii;
    class       volScalarField;
    location    "2";
    object      p_rgh;
}
// * * * * * * * * * * * * * * * * * * * * * * * * * * * * * * * * * * * * * //

dimensions      [1 -1 -2 0 0 0 0];

internalField   nonuniform List<scalar> 
2268
(
700.239
700.585
702.121
704.482
707.405
710.773
714.494
718.478
722.63
726.862
731.099
735.282
739.365
743.316
747.114
750.753
754.24
757.676
760.53
763.77
768.147
771.83
774.152
700.218
700.403
701.745
704.018
706.91
710.297
714.076
718.142
722.39
726.723
731.055
735.323
739.481
743.51
747.417
751.225
754.97
758.83
761.386
765.163
768.53
770.882
773.091
700.006
700.302
701.44
703.545
706.35
709.729
713.56
717.722
722.093
726.559
731.022
735.407
739.67
743.803
747.834
751.817
755.804
760.024
763.062
765.865
767.322
770.019
773.633
699.614
700.12
701.15
703.1
705.817
709.18
713.061
717.321
721.82
726.425
731.023
735.531
739.901
744.129
748.253
752.333
756.421
760.683
765.486
765.172
766.382
768.901
773.841
699.064
699.755
700.773
702.614
705.265
708.629
712.574
716.944
721.58
726.327
731.061
735.688
740.158
744.465
748.647
752.745
756.789
760.839
765.278
766.219
766.429
769.273
774.779
698.36
699.182
700.232
702
704.613
708.006
712.044
716.55
721.345
726.249
731.127
735.876
740.442
744.82
749.04
753.11
757.015
760.729
764.442
767.456
768.419
770.075
776.342
697.52
698.413
699.493
701.209
703.81
707.262
711.428
716.105
721.085
726.164
731.194
736.072
740.73
745.174
749.428
753.445
757.149
760.436
763.351
765.341
765.709
768.942
777.967
696.564
697.453
698.527
700.208
702.828
706.384
710.723
715.602
720.781
726.03
731.199
736.189
740.917
745.416
749.694
753.632
757.056
759.781
761.722
762.391
761.383
763.619
777.861
640.042
638.873
658.088
683.614
704.925
722.527
738.033
751.702
764.85
778.519
794.819
816.177
837.897
856.902
866.777
876.728
888.6
900.628
910.701
639.368
633.872
652.945
680.07
702.511
721.072
735.859
747.898
759.991
772.141
791.801
817.905
840.583
860.654
868.448
878.1
885.445
897.961
909.711
635.817
630.302
654.834
677.237
699.1
719.399
738.425
754.4
759.122
770.707
787.191
818.058
843.144
863.943
871.383
879.204
885.969
894.514
909.916
634.988
633.274
654.144
675.502
696.803
717.44
736.991
755.056
771.365
771.483
792.342
821.149
844.725
866.32
882.693
879.577
886.617
894.938
911.627
636.017
638.225
655.781
675.626
696.054
716.697
736.719
755.633
772.729
778.609
797.146
820.896
845.428
867.879
888.475
879.995
887.613
899.652
913.935
631.316
642.372
658.658
676.291
695.792
716.421
737.031
757.174
775.101
786.03
758.865
798.981
845.378
868.978
889.819
903.105
890.318
907.655
916.017
626.801
647.382
661.512
676.228
695.075
715.993
737.515
759.523
779.328
754.766
693.69
706.622
803.278
869.706
891.007
908.48
917.376
922.045
930.61
618.087
647.112
658.42
671.575
691.414
714.264
737.473
762.506
785.413
743.087
690.494
703.545
716.963
796.502
883.579
909.721
926.175
931.045
937.86
694.899
695.596
696.562
698.212
700.961
704.819
709.565
714.859
720.398
725.907
731.241
736.306
741.125
745.676
750.012
753.84
756.777
758.482
758.721
756.98
752.942
747.218
740.689
525.249
525.323
527.435
532.943
545.464
564.955
588.721
613.951
637.897
658.649
676.866
693.407
708.175
721.717
734.941
746.884
754.781
757.389
756.991
752.794
743.384
726.193
695.438
28.6446
33.6357
35.9213
39.8218
47.4551
58.867
74.2911
92.8207
115.564
140.59
165.901
189.881
213.462
238.674
266.955
296.327
324.309
349.006
362.463
357.467
329.339
277.822
203.207
2.11832
2.1198
2.19771
2.34925
2.51449
2.60782
2.68916
2.79444
3.05463
3.45333
3.92397
4.29937
4.35975
3.47819
2.33208
1.31998
1.22453
2.72146
5.38153
7.38814
7.9365
8.01175
9.13785
3.69204
3.82823
4.43352
5.98489
8.92238
9.68798
9.83916
5.1951
7.19819
12.1252
17.3165
17.7072
18.0226
17.9528
17.2777
3.3666
1.57153
2.07892
14.5753
32.3695
33.2704
30.919
20.9168
0.502842
0.222788
0.179479
0.16607
0.155936
0.323526
1.89476
8.1191
9.0849
8.49265
7.54419
9.85412
14.1155
17.6757
8.2742
1.63302
1.30085
1.73208
20.1986
32.01
33.4447
32.7792
25.314
0.161816
0.165009
0.163904
0.159024
0.152871
0.149384
0.136613
0.0975422
0.0858722
0.0896552
0.107026
0.133992
0.202008
0.32611
4.08249
1.00383
0.994723
1.69167
1.49637
3.71908
12.68
7.32967
0.620686
0.152805
0.155085
0.157216
0.156817
0.150875
0.140727
0.135862
0.135541
0.122475
0.112085
0.126288
0.16467
1.16459
3.64727
4.17242
0.856637
0.775016
0.692106
1.60203
1.20008
0.286244
0.294894
0.352325
0.141981
0.143279
0.149209
0.146682
0.139481
0.13214
0.148658
0.140223
0.128407
0.108013
0.119991
0.477914
1.74363
3.68629
4.33168
4.15368
1.15315
0.374883
1.99358
1.94564
0.247065
0.263991
0.287863
0.131716
0.131692
0.131323
0.131409
0.124886
0.12161
0.120837
0.123637
0.102837
0.0972313
0.0940923
0.0862158
0.147102
0.691811
2.49899
3.75966
1.25955
0.218193
1.53971
2.14027
0.991576
0.233852
0.256971
0.12269
0.121076
0.119876
0.117535
0.114107
0.109532
0.10389
0.0977727
0.0924037
0.0873637
0.0810281
0.0708134
0.0553723
0.0391166
0.103484
0.412028
0.44462
0.145497
1.16028
1.74413
1.34378
0.243133
0.206629
0.115006
0.112193
0.109821
0.107332
0.104174
0.100174
0.0954063
0.0901818
0.0849246
0.0794219
0.0727685
0.0635829
0.051575
0.0391264
0.0291645
0.0254811
0.0299592
0.111319
0.890182
0.499988
0.247744
0.188638
0.179008
0.108368
0.104474
0.10111
0.0983108
0.0953093
0.0917485
0.0876206
0.0830566
0.0782054
0.0729488
0.0669022
0.0594913
0.0505571
0.0413117
0.0340678
0.0309918
0.0313186
0.091411
0.157014
0.0371468
0.0580288
0.0786925
0.121092
0.102281
0.0976365
0.0935531
0.090482
0.0875848
0.0843791
0.0807693
0.0767835
0.072446
0.0676998
0.0624275
0.0564873
0.0499193
0.0433171
0.0378139
0.0345897
0.0335932
0.0465144
0.0308726
0.0389793
0.0509606
0.0626743
0.0919824
0.0964039
0.0913796
0.0869227
0.0837055
0.0809123
0.0780088
0.0748472
0.0713828
0.0675949
0.063445
0.0589309
0.0541024
0.0491059
0.0442814
0.0401421
0.0372266
0.0355866
0.0343563
0.0347483
0.0390337
0.0455137
0.051577
0.0688138
0.0905446
0.0855654
0.081045
0.0778259
0.075152
0.0725048
0.0697146
0.0667174
0.0634566
0.0598968
0.0560708
0.0520853
0.0481049
0.0443587
0.0411187
0.0386217
0.0369163
0.0358196
0.0357949
0.0377863
0.0408221
0.043382
0.100415
0.0846441
0.080085
0.0758586
0.0727197
0.0701683
0.0677306
0.0652459
0.0626395
0.0598425
0.0568129
0.0535784
0.0502396
0.0469422
0.0438565
0.041145
0.0389282
0.0372303
0.0360089
0.0354875
0.0359679
0.0368727
0.0394728
0.0663863
0.0788519
0.0749922
0.0712889
0.0682915
0.0658385
0.0635628
0.0613227
0.0590351
0.0566256
0.054048
0.0513082
0.0484761
0.0456632
0.0429989
0.040596
0.0385253
0.0368053
0.035421
0.0344511
0.0339463
0.0336548
0.0354182
0.0316009
0.0735336
0.0705352
0.0672598
0.064413
0.0620239
0.0598784
0.0578411
0.0558128
0.0537203
0.0515157
0.0491851
0.0467617
0.0443193
0.0419504
0.0397391
0.037737
0.0359624
0.034404
0.0330677
0.0319239
0.0308848
0.0296103
0.0273611
0.0850214
0.100905
0.0636374
0.0608111
0.0585153
0.0565358
0.0547008
0.0528991
0.0510663
0.0491616
0.0471612
0.0450702
0.0429278
0.0407931
0.0387255
0.0367656
0.034932
0.0332159
0.0315989
0.0300344
0.0284024
0.0265251
0.0242941
0.162519
0.16146
0.126895
0.0570251
0.0550967
0.0534117
0.0518235
0.0502409
0.0486255
0.0469545
0.0452078
0.0433777
0.041478
0.0395406
0.0376012
0.0356888
0.0338193
0.0319874
0.0301726
0.0283302
0.0263812
0.0242504
0.02183
0.159562
0.159125
0.158851
0.0664315
0.0517704
0.0504969
0.0491923
0.0478209
0.0463849
0.0448866
0.0433205
0.0416789
0.0399629
0.0381849
0.036361
0.034507
0.0326331
0.0307363
0.0287991
0.0267864
0.0246493
0.0223524
0.0198146
0.101675
0.149438
0.114991
0.0604394
0.0491738
0.0479952
0.0468471
0.0456466
0.0443419
0.0429592
0.0415077
0.0399867
0.0383938
0.0367303
0.0349989
0.0332041
0.0313493
0.0294299
0.0274307
0.0253252
0.0230829
0.0206915
0.0180882
0.045276
0.0547075
0.0477154
0.0478717
0.0466169
0.0457381
0.0447894
0.0436941
0.0424704
0.0411547
0.0397661
0.0383111
0.0367886
0.0351954
0.0335272
0.031781
0.0299535
0.0280368
0.0260166
0.0238719
0.0215831
0.0191499
0.016523
0.0427474
0.0437606
0.0445285
0.04467
0.0443815
0.0437704
0.0429181
0.0418795
0.0407037
0.039426
0.0380696
0.0366461
0.0351576
0.0336007
0.0319687
0.0302549
0.0284518
0.0265489
0.0245318
0.0223829
0.0200885
0.0176536
0.0150381
0.0403304
0.0415866
0.0424639
0.0426785
0.0424339
0.0418793
0.0410801
0.0400898
0.038954
0.0377064
0.0363722
0.0349664
0.0334944
0.0319547
0.0303416
0.028648
0.0268648
0.0249803
0.0229806
0.0208503
0.0185784
0.0161713
0.0135955
0.0378189
0.0391263
0.0401159
0.0404727
0.0403423
0.0398757
0.0391494
0.0382207
0.0371344
0.0359248
0.0346186
0.0332334
0.0317774
0.030252
0.0286542
0.0269782
0.0252157
0.0233554
0.0213842
0.0192883
0.0170589
0.0147015
0.0121881
0.0352726
0.0365524
0.0376027
0.0380774
0.0380642
0.0376985
0.0370604
0.0362078
0.0351851
0.0340276
0.0327635
0.0314117
0.0299828
0.0284813
0.0269071
0.0252566
0.023523
0.0216965
0.0197655
0.0177181
0.015547
0.0132576
0.0108261
0.0327169
0.0339348
0.0349954
0.0355434
0.0356228
0.0353502
0.0348023
0.034033
0.0330844
0.0319925
0.0307857
0.0294834
0.0280981
0.0266367
0.0251015
0.0234911
0.0218004
0.0200214
0.0181446
0.0161603
0.014063
0.0118586
0.00952713
0.0301595
0.0312987
0.0323366
0.0329197
0.0330623
0.0328662
0.0324012
0.0317142
0.0308446
0.0298273
0.0286899
0.0274521
0.026127
0.0247231
0.0232445
0.0216915
0.0200606
0.0183456
0.0165392
0.0146341
0.0126268
0.0105237
0.00830854
0.0276139
0.0286652
0.0296597
0.0302499
0.0304307
0.0302937
0.0298995
0.0292884
0.0284969
0.0275582
0.0264983
0.025336
0.024085
0.0227544
0.0213495
0.0198712
0.0183173
0.0166837
0.0149649
0.0131556
0.0112541
0.00926777
0.00718283
0.0250974
0.0260545
0.0269926
0.02757
0.0277712
0.0276776
0.0273406
0.026796
0.026078
0.0252175
0.0242385
0.0231592
0.0219929
0.0207488
0.019432
0.0180438
0.0165832
0.0150474
0.0134326
0.0117351
0.00995421
0.00809809
0.00615511
0.0226254
0.0234848
0.0243565
0.0249075
0.0251163
0.0250525
0.0247596
0.0242713
0.0236203
0.022835
0.0219379
0.0209461
0.0198725
0.0187249
0.0175078
0.0162226
0.0148689
0.0134452
0.0119488
0.010377
0.00872991
0.00701578
0.00522461
0.0202079
0.0209688
0.0217656
0.0222801
0.0224864
0.0224401
0.0221799
0.021739
0.0211488
0.0204356
0.0196206
0.0187198
0.0177444
0.0167009
0.0155923
0.0144201
0.0131844
0.0118844
0.0105183
0.00908391
0.00758161
0.0060194
0.00438832
0.0178501
0.0185118
0.0192259
0.0196963
0.0198905
0.0198512
0.019615
0.0192153
0.018682
0.0180398
0.017308
0.0165011
0.0156281
0.0146939
0.0137005
0.012649
0.0115398
0.0103725
0.00914602
0.00785818
0.00650953
0.00510726
0.00364285
0.015553
0.0161116
0.0167365
0.0171571
0.0173304
0.0172899
0.0170722
0.0167107
0.0162336
0.0156634
0.0150173
0.0143073
0.0135402
0.0127192
0.0118456
0.0109202
0.0099437
0.00891586
0.00783561
0.00670113
0.00551269
0.00427634
0.00298367
0.0133129
0.0137599
0.0142899
0.0146566
0.0148028
0.0147562
0.0145547
0.0142315
0.0138125
0.0133175
0.0127605
0.0121504
0.0114918
0.0107866
0.0100359
0.0092403
0.0084005
0.00751637
0.00658687
0.00561029
0.00458659
0.00352046
0.00240364
0.0111185
0.0114403
0.0118705
0.0121835
0.0123009
0.0122473
0.0120633
0.0117814
0.0114248
0.0110091
0.0105446
0.0100368
0.00948834
0.00890045
0.0082741
0.00761022
0.0069094
0.00617146
0.00539538
0.00457948
0.00372353
0.00283085
0.00189357
0.00893803
0.00912603
0.00945756
0.00973173
0.00982839
0.00977229
0.00961042
0.00937524
0.00908557
0.00875247
0.00838198
0.00797695
0.00753871
0.00706822
0.0065666
0.00603494
0.00547373
0.00488271
0.00426081
0.00360662
0.00291988
0.00220283
0.00144792
0.00671121
0.00677116
0.00702116
0.00732466
0.00742587
0.00737267
0.00723698
0.00705228
0.00683124
0.00658
0.00630154
0.00599701
0.00566701
0.00531236
0.00493416
0.00453335
0.00411027
0.00366456
0.00319532
0.00270159
0.00218335
0.00164213
0.0010703
0.00439172
0.0042134
0.00448051
0.00498629
0.00511987
0.00506774
0.00495772
0.00482233
0.00466667
0.00449284
0.00430182
0.00409378
0.00386881
0.00362733
0.00337003
0.00309755
0.00281012
0.0025075
0.0021892
0.00185471
0.00150412
0.00113914
0.000760047
0.00214057
0.000657072
0.00121755
0.00185796
0.00198714
0.00196839
0.00192027
0.00186205
0.00179537
0.00172086
0.00163864
0.00154848
0.00145031
0.00134445
0.00123157
0.0011125
0.00098795
0.000858512
0.000724735
0.000587034
0.000445888
0.000302297
0.000159898
717.699
706.606
696.313
680.35
655.863
621.194
582.544
536.292
134.017
86.8111
15.8186
9.32775
11.6924
12.9371
12.0366
10.9208
15.0869
22.4563
35.2295
28.3268
38.0382
38.4903
39.2976
40.4512
0.836612
3.04715
31.7594
41.4652
0.370923
0.370915
0.314407
0.593497
0.282321
0.269032
0.255647
0.24466
0.320801
0.240226
0.20816
0.199829
0.396971
0.27344
0.16456
0.158394
0.416955
0.410673
0.140908
0.124829
0.403174
0.403336
0.146327
0.0969227
0.399148
0.340588
0.074091
0.0746703
0.385541
0.23631
0.0562707
0.0571017
0.100475
0.042273
0.0431821
0.0434571
0.0351694
0.0347837
0.0343387
0.0336595
0.0298389
0.0288132
0.027593
0.0262881
0.0255614
0.0240795
0.0223738
0.0206816
0.0221751
0.0204149
0.0184159
0.0164813
0.0195232
0.017609
0.0154477
0.0133732
0.017412
0.015429
0.0131984
0.0110589
0.0156536
0.0136647
0.0114356
0.00929192
0.0141027
0.0121538
0.00998023
0.00788234
0.0126659
0.0107876
0.00870715
0.00669293
0.0112946
0.00950514
0.0075401
0.0056344
0.00997429
0.00828311
0.00644283
0.00465826
0.00871082
0.00712111
0.0054059
0.00374515
0.00751919
0.00602951
0.00443444
0.00289376
0.00641499
0.00502201
0.00354013
0.0021128
0.00540909
0.00411009
0.00273489
0.00141405
0.00450578
0.00329989
0.00202685
0.000807281
0.00370444
0.00259239
0.00141967
0.000298438
0.00300233
0.0019859
0.000913999
-0.000109651
0.00239589
0.0014777
0.000508905
-0.000416223
0.00188043
0.00106422
0.00020227
-0.000622057
0.0014492
0.000739951
-1.00672e-05
-0.000729988
0.0010929
0.000495917
-0.000136157
-0.000746216
0.000804739
0.000324765
-0.000183245
-0.000676463
0.000578957
0.000217144
-0.000161343
-0.000527706
0.00045336
0.000221117
-2.56446e-05
-0.000268966
5.96972e-05
-2.07221e-05
-0.000107775
-0.000194312
637.037
582.341
543.559
565.954
618.765
667.398
702.606
763.233
794.811
804.283
754.682
699.452
714.176
727.236
749.007
802.878
914.148
943.286
953.953
346.721
139.468
108.855
167.82
291.119
423.083
493.337
637.659
754.924
807.516
828.235
817.86
753.447
724.767
738.457
828.969
949.542
962.931
977.368
10.4074
11.9347
12.761
13.9072
16.9367
70.6989
201.284
314.908
481.469
686.787
804.483
832.387
855.473
872.616
910.426
959.629
972.235
985.035
1003.5
10.5241
10.9526
11.3486
11.8378
12.4684
13.2932
30.9624
42.8425
54.8402
162.889
399.782
600.629
673.667
739.539
795.554
811.736
813.517
907.012
1020.63
11.9852
10.9769
11.3293
11.7097
12.1556
12.6205
13.2589
14.1791
14.8274
14.7597
26.8674
178.135
303.665
345.485
371.68
386.7
363.831
511.101
885.659
41.8077
17.76
10.9968
11.383
17.8872
27.3641
31.5705
30.6792
30.6059
25.8929
25.9117
33.1446
115.594
167.657
227.879
278.308
242.106
214.994
462.319
41.6909
42.9608
42.1055
46.8858
48.1841
48.0947
48.1274
48.4284
48.8873
49.2173
35.538
24.1015
21.7394
72.1287
180.464
264.654
247.746
131.704
126.216
1.68598
15.06
28.4037
31.8994
27.5965
22.0487
19.7808
20.576
27.1062
38.2532
40.238
29.0856
1.30564
8.48549
31.0851
49.5146
69.2803
69.5183
27.2934
0.214433
0.172725
0.184078
0.191196
0.116256
0.147573
0.168042
0.159203
0.130093
0.118105
11.0307
14.6921
0.455696
0.00355918
-0.107397
-0.148667
-0.196194
-0.212387
-0.114828
0.188717
0.170274
0.146121
0.158634
0.302777
0.407172
0.392572
0.291902
0.201142
0.147861
0.0527591
0.405187
0.419172
-0.0806485
-0.110099
-0.121018
-0.0892034
-0.0784424
-0.0541831
0.148525
0.132544
0.117528
0.243524
0.620494
0.618745
0.608016
0.589346
0.562457
0.296734
0.0433093
-0.00903359
0.0625476
-0.0686303
-0.0979549
-0.107595
-0.0918557
-0.0688018
-0.0362915
0.118541
0.106442
0.0931029
0.186572
0.61245
0.608351
0.597437
0.579317
0.557055
0.504169
0.0107494
-0.0227
-0.0443164
-0.0577471
-0.0735275
-0.0834703
-0.0103648
0.0953626
0.113143
0.0960204
0.0871821
0.0757042
0.0618456
0.210885
0.608162
0.596391
0.578136
0.549258
0.461495
0.0424781
-0.0179684
-0.0398457
-0.0601026
-0.0282198
0.158353
0.181718
0.173636
0.168686
0.0846611
0.103246
0.0862559
0.0551712
0.0396865
0.271159
0.597543
0.190419
-0.0198874
0.20337
0.335407
0.303016
-0.0206525
-0.0845417
0.0637723
0.21717
0.20831
0.199475
0.192327
0.0713686
0.117318
0.109352
0.0570521
0.036541
0.034502
0.0451544
-0.0140154
-0.0280385
0.086698
0.347863
0.334417
0.221724
-0.088216
-0.0698823
0.102682
0.231304
0.220987
0.137653
0.0591193
0.107223
0.100467
0.091387
0.0426554
-0.00159514
-0.0158985
-0.0234763
-0.0305713
-0.0385129
0.0606881
0.13595
0.0355411
-0.086828
-0.0909456
0.0390002
0.252682
0.0567084
-0.135798
0.0356362
0.0854004
0.0937811
0.0859942
0.0765916
0.0412864
-0.0173858
-0.0273897
-0.0375216
-0.0489408
-0.0613906
-0.0724635
-0.0811837
-0.0887936
-0.0704729
0.0673717
0.0112784
-0.124952
-0.125339
0.0240493
0.0365064
0.0889279
0.0821373
0.0741208
0.065363
-0.000466059
-0.0285221
-0.0378275
-0.0478371
-0.0582064
-0.067942
-0.0766176
-0.0847212
-0.0770135
-0.083122
-0.112747
-0.113932
-0.101395
0.0180526
0.013198
0.0258551
0.0728338
0.0724809
0.064313
0.00372989
-0.029557
-0.0378013
-0.0449436
-0.0538011
-0.0646525
-0.0730041
-0.0813133
-0.0899914
-0.0984827
-0.103767
-0.0973574
0.0467728
0.0136123
0.00899184
0.00320699
-0.00341611
0.00886118
0.0108041
-0.0120996
-0.0301728
-0.0374644
-0.0429972
-0.0504657
-0.0587115
-0.0693641
-0.0774087
-0.0849503
-0.0915738
-0.0961812
-0.0841879
0.0775894
0.0103641
0.00593872
0.000682101
-0.00522072
-0.0115006
-0.0178194
-0.023959
-0.0299129
-0.035091
-0.0411423
-0.0483486
-0.0556789
-0.0652644
-0.0732324
-0.0796948
-0.0852331
-0.0891836
-0.076473
0.0923104
0.00798486
0.00372326
-0.00115564
-0.00654407
-0.0122336
-0.0180604
-0.0239378
-0.0300444
-0.0350208
-0.0402614
-0.0472612
-0.0557685
-0.0627613
-0.0689779
-0.0745185
-0.0791467
-0.0823767
-0.0594057
0.107101
0.00621435
0.00209801
-0.0024892
-0.00748794
-0.0127497
-0.0181778
-0.0237307
-0.0294819
-0.0354612
-0.0398987
-0.04504
-0.0526561
-0.0593392
-0.064662
-0.0693979
-0.0732336
-0.0757806
-0.0406242
0.121878
0.00485612
0.000885575
-0.00345501
-0.0081372
-0.0130517
-0.0181312
-0.0233475
-0.0287186
-0.034235
-0.0397915
-0.044595
-0.0496325
-0.0547243
-0.0600329
-0.0643203
-0.0674412
-0.0693488
-0.0393639
0.136166
0.00376475
-4.67099e-05
-0.00415807
-0.00855859
-0.0131615
-0.0179147
-0.0227904
-0.0277769
-0.032844
-0.0379235
-0.042909
-0.0474531
-0.0516114
-0.0556259
-0.0592204
-0.0617259
-0.0629494
-0.0588094
0.140907
0.00283999
-0.000794536
-0.00467826
-0.00880833
-0.0131123
-0.0175456
-0.0220773
-0.02668
-0.0313122
-0.0359059
-0.0403649
-0.0445739
-0.0484093
-0.0517115
-0.0543462
-0.0561042
-0.0565986
-0.0553719
0.116278
0.00202083
-0.00142073
-0.00507204
-0.00893261
-0.0129401
-0.0170534
-0.0212391
-0.0254613
-0.0296721
-0.0338046
-0.0377698
-0.0414599
-0.0447541
-0.0475144
-0.0495744
-0.0507046
-0.0505096
-0.0484838
0.140723
0.00127594
-0.00196145
-0.00537551
-0.008966
-0.0126775
-0.016471
-0.0203113
-0.0241585
-0.0279617
-0.031656
-0.0351593
-0.0383717
-0.0411777
-0.0434453
-0.0450149
-0.0456544
-0.0449476
-0.0100955
0.15816
0.000594681
-0.00243232
-0.00560756
-0.00892985
-0.0123481
-0.0158251
-0.0193251
-0.0228061
-0.0262174
-0.0294974
-0.0325709
-0.0353472
-0.0377195
-0.0395647
-0.0407381
-0.0410282
-0.0400389
0.0140517
0.170023
-1.98979e-05
-0.00283489
-0.00577385
-0.00883342
-0.0119654
-0.0151341
-0.0183037
-0.0214319
-0.0244698
-0.0273606
-0.0300364
-0.0324164
-0.0344044
-0.0358887
-0.0367416
-0.0367842
-0.035655
0.0119794
0.18119
-0.000558234
-0.0031636
-0.00587232
-0.00867822
-0.0115353
-0.0144089
-0.017263
-0.0200559
-0.0227416
-0.025269
-0.0275783
-0.0295985
-0.0312442
-0.0324148
-0.0329948
-0.0328251
-0.0315605
-0.0151261
0.191478
-0.00101049
-0.00341128
-0.0058982
-0.0084624
-0.0110597
-0.0136557
-0.0162138
-0.0186924
-0.0210486
-0.023238
-0.0252101
-0.0269038
-0.0282435
-0.0291374
-0.0294744
-0.0290843
-0.0275917
-0.0244241
0.165971
-0.00136956
-0.00357191
-0.00584681
-0.00818342
-0.0105391
-0.0128791
-0.0151647
-0.0173521
-0.0194012
-0.0212763
-0.022938
-0.024336
-0.0254048
-0.0260591
-0.0261885
-0.0256026
-0.0238524
-0.00369675
0.0893865
-0.00163113
-0.00364097
-0.00571409
-0.00783855
-0.00997352
-0.012083
-0.0141238
-0.0160449
-0.0178074
-0.019388
-0.0207618
-0.0218922
-0.0227253
-0.0231857
-0.0231695
-0.022493
-0.0207021
0.0575949
0.142674
-0.00179284
-0.00361503
-0.00549604
-0.00742439
-0.00936205
-0.0112719
-0.0131024
-0.014784
-0.016275
-0.0175735
-0.0186749
-0.0195594
-0.0201873
-0.0204964
-0.0203965
-0.0197381
-0.0181307
0.0524785
0.148826
-0.00185382
-0.00349105
-0.0051875
-0.00693513
-0.00870121
-0.0104497
-0.0121161
-0.0135894
-0.0148145
-0.0158311
-0.0166645
-0.0173145
-0.0177559
-0.0179378
-0.0177772
-0.017137
-0.0156192
0.00767021
0.0561392
-0.00181477
-0.00326552
-0.00478038
-0.00635927
-0.00798139
-0.00961588
-0.0111837
-0.0124864
-0.0134363
-0.0141554
-0.0147121
-0.0151286
-0.0153939
-0.0154624
-0.0152487
-0.0145844
-0.0129776
-0.00975308
-0.00587235
-0.00167768
-0.002933
-0.00426011
-0.00567437
-0.00717612
-0.0087546
-0.0103236
-0.0115122
-0.0121476
-0.0125332
-0.0127912
-0.0129676
-0.0130649
-0.0130443
-0.0128204
-0.0121804
-0.0105129
-0.00711761
-0.0030764
-0.00144217
-0.00248174
-0.00360065
-0.00483304
-0.00622195
-0.00782178
-0.00962921
-0.0108588
-0.0110356
-0.0109802
-0.0108883
-0.010803
-0.010734
-0.0106611
-0.0105068
-0.0100494
-0.00852857
-0.00518268
-0.00109683
-0.0011027
-0.00189559
-0.00276649
-0.00377166
-0.0050287
-0.0068313
-0.00960106
-0.0113613
-0.0105259
-0.00967936
-0.00909255
-0.00867351
-0.0083976
-0.00826823
-0.00824574
-0.00813491
-0.00701059
-0.00397574
0.000114402
-0.000660973
-0.00117376
-0.00173846
-0.002428
-0.00351213
-0.0058446
-0.0111604
-0.014105
-0.01098
-0.00877013
-0.00747084
-0.00660505
-0.00602133
-0.00572627
-0.00571266
-0.00618113
0.00153529
-0.00343676
0.000534026
-0.000335112
-0.000506948
-0.000717937
-0.00105408
-0.00185464
-0.00435481
-0.0119631
-0.0127634
-0.00827373
-0.00576239
-0.00441128
-0.00352693
-0.002893
-0.00245565
-0.00253395
0.000894372
0.00557652
0.00711238
0.00153322
)
;

boundaryField
{
    leftWall
    {
        type            fixedFluxPressure;
        gradient        uniform 0;
        value           nonuniform List<scalar> 
50
(
700.239
700.218
700.006
699.614
699.064
698.36
697.52
696.564
694.899
525.249
28.6446
2.11832
3.69204
0.502842
0.161816
0.152805
0.141981
0.131716
0.12269
0.115006
0.108368
0.102281
0.0964039
0.0905446
0.0846441
0.0788519
0.0735336
0.0850214
0.162519
0.159562
0.101675
0.045276
0.0427474
0.0403304
0.0378189
0.0352726
0.0327169
0.0301595
0.0276139
0.0250974
0.0226254
0.0202079
0.0178501
0.015553
0.0133129
0.0111185
0.00893803
0.00671121
0.00439172
0.00214057
)
;
    }
    rightWall
    {
        type            fixedFluxPressure;
        gradient        uniform 0;
        value           nonuniform List<scalar> 
50
(
910.701
909.711
909.916
911.627
913.935
916.017
930.61
937.86
953.953
977.368
1003.5
1020.63
885.659
462.319
126.216
27.2934
-0.114828
-0.0541831
-0.0362915
0.113143
0.168686
0.192327
0.137653
-0.135798
-0.125339
-0.101395
0.0467728
0.0775894
0.0923104
0.107101
0.121878
0.136166
0.140907
0.116278
0.140723
0.15816
0.170023
0.18119
0.191478
0.165971
0.0893865
0.142674
0.148826
0.0561392
-0.00587235
-0.0030764
-0.00109683
0.000114402
0.000534026
0.00153322
)
;
    }
    lowerWall
    {
        type            fixedFluxPressure;
        gradient        uniform 0;
        value           nonuniform List<scalar> 
62
(
700.239
700.585
702.121
704.482
707.405
710.773
714.494
718.478
722.63
726.862
731.099
735.282
739.365
743.316
747.114
750.753
754.24
757.676
760.53
763.77
768.147
771.83
774.152
774.152
773.091
773.633
773.841
774.779
776.342
777.967
777.861
717.699
706.606
696.313
680.35
640.042
639.368
635.817
634.988
636.017
631.316
626.801
618.087
640.042
638.873
658.088
683.614
704.925
722.527
738.033
751.702
764.85
778.519
794.819
816.177
837.897
856.902
866.777
876.728
888.6
900.628
910.701
)
;
    }
    atmosphere
    {
        type            totalPressure;
        rho             rho;
        psi             none;
        gamma           1;
        p0              uniform 0;
        value           nonuniform List<scalar> 
46
(
-2.1812e-05
-0.000255847
-0.000261459
-0.000233528
-0.000210618
-0.000193198
-0.000181126
-0.000174344
-0.000172776
-0.000176263
-0.000184573
-0.000197374
-0.000214179
-0.000234292
-0.000256761
-0.000280373
-0.000303688
-0.000325129
-0.000343128
-0.00035631
-0.000363688
-0.000364827
-0.000360048
-0.000351868
-0.000341682
-0.000325603
-0.000304465
-0.000264561
-0.000205817
-0.000149681
-0.000100293
-5.95142e-05
-2.88456e-05
-3.58853e-06
0
0
0
0
0
0
0
0
0
0
0
0
)
;
    }
    defaultFaces
    {
        type            empty;
    }
}


// ************************************************************************* //
