/*--------------------------------*- C++ -*----------------------------------*\
| =========                 |                                                 |
| \\      /  F ield         | OpenFOAM: The Open Source CFD Toolbox           |
|  \\    /   O peration     | Version:  2.3.0                                 |
|   \\  /    A nd           | Web:      www.OpenFOAM.org                      |
|    \\/     M anipulation  |                                                 |
\*---------------------------------------------------------------------------*/
FoamFile
{
    version     2.0;
    format      ascii;
    class       surfaceScalarField;
    location    "2";
    object      phi;
}
// * * * * * * * * * * * * * * * * * * * * * * * * * * * * * * * * * * * * * //

dimensions      [0 3 -1 0 0 0 0];

internalField   nonuniform List<scalar> 
4432
(
-1.4956e-06
1.4956e-06
-1.68816e-06
1.9256e-07
-1.3597e-06
-3.28456e-07
-9.15456e-07
-4.44239e-07
-4.80665e-07
-4.34789e-07
-9.40969e-08
-3.86558e-07
2.31013e-07
-3.25102e-07
4.87585e-07
-2.56572e-07
6.72561e-07
-1.84972e-07
7.87202e-07
-1.14642e-07
8.38905e-07
-5.1703e-08
8.38147e-07
7.61476e-10
7.93682e-07
4.44754e-08
7.02144e-07
9.15375e-08
5.36588e-07
1.65561e-07
2.40599e-07
2.96003e-07
-2.60273e-07
5.00869e-07
-1.0722e-06
8.11944e-07
-2.67173e-06
1.59954e-06
-4.71832e-06
2.04658e-06
-5.85026e-06
1.13195e-06
-4.41428e-06
-1.43598e-06
-4.41428e-06
-8.98418e-07
2.39402e-06
-9.00832e-07
1.94974e-07
-6.60262e-07
-5.69024e-07
-3.24844e-07
-7.79646e-07
3.62451e-08
-7.95872e-07
3.83545e-07
-7.33852e-07
6.91965e-07
-6.33513e-07
9.44539e-07
-5.09148e-07
1.13106e-06
-3.7149e-07
1.24814e-06
-2.31718e-07
1.29976e-06
-1.03312e-07
1.29511e-06
5.41708e-09
1.24328e-06
9.63167e-08
1.1463e-06
1.8853e-07
9.90495e-07
3.21379e-07
7.39923e-07
5.46603e-07
3.38285e-07
9.02505e-07
-2.99915e-07
1.45015e-06
-1.19902e-06
2.49865e-06
-2.2282e-06
3.07574e-06
-3.04207e-06
1.94583e-06
-2.86427e-06
-1.6138e-06
-7.27855e-06
-3.57464e-07
2.75148e-06
-3.51803e-07
1.89314e-07
-1.80498e-07
-7.40329e-07
8.33924e-08
-1.04353e-06
3.89961e-07
-1.10244e-06
7.01789e-07
-1.04568e-06
9.9028e-07
-9.22001e-07
1.23343e-06
-7.52296e-07
1.41656e-06
-5.54626e-07
1.53291e-06
-3.48054e-07
1.58418e-06
-1.54575e-07
1.57872e-06
1.08845e-08
1.52723e-06
1.47813e-07
1.43723e-06
2.78543e-07
1.30551e-06
4.53099e-07
1.11259e-06
7.39539e-07
8.22682e-07
1.19241e-06
3.96962e-07
1.87587e-06
-3.13043e-08
2.92692e-06
-5.21561e-07
3.56598e-06
-1.05906e-06
2.48332e-06
-1.33531e-06
-1.33755e-06
-8.61387e-06
3.67572e-08
2.71473e-06
6.07723e-08
1.65295e-07
1.90506e-07
-8.70066e-07
4.01595e-07
-1.25462e-06
6.62065e-07
-1.36291e-06
9.41094e-07
-1.32471e-06
1.20964e-06
-1.19055e-06
1.4427e-06
-9.85353e-07
1.62229e-06
-7.3422e-07
1.73874e-06
-4.64504e-07
1.79196e-06
-2.07791e-07
1.78997e-06
1.28733e-08
1.74569e-06
1.92089e-07
1.6725e-06
3.51739e-07
1.57729e-06
5.48318e-07
1.45461e-06
8.62228e-07
1.28798e-06
1.35904e-06
1.07667e-06
2.08718e-06
9.38388e-07
3.06521e-06
8.19151e-07
3.68521e-06
5.48688e-07
2.75379e-06
1.59699e-07
-9.48569e-07
-8.45417e-06
2.84128e-07
2.4306e-06
3.63785e-07
8.56362e-08
4.71968e-07
-9.78253e-07
6.40005e-07
-1.42265e-06
8.58635e-07
-1.58153e-06
1.10581e-06
-1.57189e-06
1.35433e-06
-1.43907e-06
1.57761e-06
-1.20864e-06
1.75515e-06
-9.11759e-07
1.87461e-06
-5.83972e-07
1.93423e-06
-2.67406e-07
1.94182e-06
5.27631e-09
1.91266e-06
2.21252e-07
1.86617e-06
3.98239e-07
1.81931e-06
5.95181e-07
1.77986e-06
9.01685e-07
1.74894e-06
1.38997e-06
1.74479e-06
2.09133e-06
1.84427e-06
2.96573e-06
2.01079e-06
3.51869e-06
1.97007e-06
2.79451e-06
1.36989e-06
-3.48392e-07
-7.08428e-06
4.30656e-07
1.99994e-06
5.70544e-07
-5.42544e-08
6.65419e-07
-1.07313e-06
7.94405e-07
-1.55164e-06
9.7188e-07
-1.75901e-06
1.18647e-06
-1.78649e-06
1.41446e-06
-1.66706e-06
1.62874e-06
-1.42292e-06
1.80695e-06
-1.08996e-06
1.93422e-06
-7.11248e-07
2.00696e-06
-3.40139e-07
2.03248e-06
-2.0238e-08
2.02788e-06
2.25856e-07
2.01838e-06
4.07741e-07
2.03088e-06
5.8269e-07
2.08569e-06
8.46879e-07
2.19904e-06
1.27662e-06
2.39762e-06
1.89274e-06
2.73316e-06
2.63019e-06
3.14908e-06
3.10276e-06
3.3315e-06
2.6121e-06
2.64933e-06
3.33779e-07
-4.43495e-06
5.16125e-07
1.48381e-06
6.95945e-07
-2.34077e-07
7.72874e-07
-1.15006e-06
8.60332e-07
-1.6391e-06
9.93834e-07
-1.89252e-06
1.17309e-06
-1.96575e-06
1.37895e-06
-1.87293e-06
1.58476e-06
-1.62873e-06
1.76696e-06
-1.27216e-06
1.90834e-06
-8.52628e-07
2.00307e-06
-4.34865e-07
2.05732e-06
-7.44884e-08
2.08875e-06
1.94425e-07
2.12761e-06
3.68892e-07
2.21011e-06
5.0019e-07
2.36837e-06
6.88622e-07
2.63177e-06
1.01322e-06
3.03409e-06
1.49042e-06
3.61255e-06
2.05173e-06
4.29562e-06
2.4197e-06
4.77193e-06
2.13579e-06
4.15705e-06
9.4866e-07
-2.77907e-07
5.67372e-07
9.16435e-07
7.56134e-07
-4.22841e-07
8.01286e-07
-1.19522e-06
8.40628e-07
-1.67845e-06
9.25514e-07
-1.9774e-06
1.06555e-06
-2.10578e-06
1.24669e-06
-2.05406e-06
1.44359e-06
-1.82562e-06
1.63258e-06
-1.46114e-06
1.79455e-06
-1.01459e-06
1.92102e-06
-5.61323e-07
2.01626e-06
-1.69732e-07
2.09649e-06
1.14199e-07
2.19551e-06
2.6987e-07
2.35788e-06
3.37824e-07
2.62632e-06
4.20171e-07
3.04224e-06
5.97306e-07
3.64763e-06
8.85029e-07
4.47672e-06
1.22265e-06
5.46944e-06
1.42698e-06
6.37355e-06
1.23168e-06
6.33928e-06
9.82915e-07
6.06138e-06
-8.57545e-06
8.57545e-06
-1.11567e-05
2.5813e-06
-6.62929e-06
-4.52742e-06
-7.71739e-07
-5.85754e-06
3.84285e-06
-4.61458e-06
7.27309e-06
-3.43023e-06
1.01652e-05
-2.89216e-06
1.29602e-05
-2.795e-06
1.51262e-05
-2.16594e-06
1.51071e-05
1.90431e-08
1.2572e-05
2.53516e-06
8.89101e-06
3.68093e-06
4.8161e-06
4.0749e-06
1.33228e-06
3.48382e-06
-3.61154e-06
4.94381e-06
-8.20117e-06
4.58962e-06
-1.0427e-05
2.22578e-06
-7.83749e-06
-2.58946e-06
-7.8375e-06
-6.40882e-06
1.49843e-05
-5.15735e-06
1.32983e-06
-7.61825e-07
-8.92296e-06
3.2938e-06
-9.91317e-06
6.30177e-06
-7.62256e-06
8.43356e-06
-5.56203e-06
1.0319e-05
-4.77755e-06
1.23864e-05
-4.86245e-06
1.41711e-05
-3.9506e-06
1.4683e-05
-4.92953e-07
1.33721e-05
3.84616e-06
1.0741e-05
6.31197e-06
7.09848e-06
7.71745e-06
2.88546e-06
7.69683e-06
-1.49307e-06
9.32235e-06
-5.21723e-06
8.3138e-06
-7.10593e-06
4.11443e-06
-5.96969e-06
-3.72564e-06
-1.38072e-05
-3.06158e-06
1.80458e-05
1.77695e-08
-1.74949e-06
3.57428e-06
-1.24795e-05
6.2945e-06
-1.26334e-05
7.96172e-06
-9.28977e-06
9.00845e-06
-6.60876e-06
1.00437e-05
-5.81276e-06
1.14268e-05
-6.24553e-06
1.29129e-05
-5.43669e-06
1.35218e-05
-1.10182e-06
1.26349e-05
4.73299e-06
1.04502e-05
8.49668e-06
7.34109e-06
1.08266e-05
3.52149e-06
1.15164e-05
2.40486e-07
1.26034e-05
-2.62527e-06
1.11796e-05
-4.1256e-06
5.61472e-06
-3.81993e-06
-4.03128e-06
-1.76272e-05
4.56902e-07
1.75889e-05
4.55763e-06
-5.85021e-06
7.56413e-06
-1.54859e-05
8.9073e-06
-1.39765e-05
9.21777e-06
-9.60024e-06
9.19461e-06
-6.5856e-06
9.42899e-06
-6.04713e-06
1.02306e-05
-7.0471e-06
1.14332e-05
-6.6393e-06
1.21937e-05
-1.86235e-06
1.16801e-05
5.24652e-06
9.77421e-06
1.04026e-05
7.12107e-06
1.34798e-05
3.90867e-06
1.47288e-05
1.30105e-06
1.5211e-05
-7.35955e-07
1.32166e-05
-1.83804e-06
6.71679e-06
-1.82695e-06
-4.04234e-06
-1.94541e-05
4.36769e-06
1.32213e-05
9.28162e-06
-1.07641e-05
1.1347e-05
-1.75513e-05
1.11242e-05
-1.37537e-05
1.0031e-05
-8.50705e-06
8.94504e-06
-5.49969e-06
8.41228e-06
-5.51439e-06
8.71321e-06
-7.34806e-06
9.60818e-06
-7.53427e-06
1.054e-05
-2.79421e-06
1.02737e-05
5.51286e-06
8.81351e-06
1.18628e-05
6.72744e-06
1.55658e-05
4.17863e-06
1.72776e-05
1.99422e-06
1.73953e-05
6.78805e-07
1.4532e-05
-3.26914e-08
7.42828e-06
-1.41782e-07
-3.93324e-06
-1.95959e-05
8.47953e-06
4.74174e-06
1.42172e-05
-1.65018e-05
1.47362e-05
-1.80704e-05
1.27495e-05
-1.17669e-05
1.02832e-05
-6.04075e-06
8.21324e-06
-3.42975e-06
6.97302e-06
-4.27418e-06
6.79118e-06
-7.16621e-06
7.42626e-06
-8.16931e-06
8.32563e-06
-3.69358e-06
8.47074e-06
5.36776e-06
7.63303e-06
1.27005e-05
6.21116e-06
1.69877e-05
4.35694e-06
1.91319e-05
2.64616e-06
1.91061e-05
1.71951e-06
1.54587e-05
1.40845e-06
7.73932e-06
8.81938e-07
-3.40672e-06
-1.8714e-05
1.40537e-05
-9.31194e-06
1.91234e-05
-2.15715e-05
1.73105e-05
-1.62576e-05
1.35311e-05
-7.9875e-06
9.86831e-06
-2.37796e-06
6.98229e-06
-5.43726e-07
5.13562e-06
-2.42749e-06
4.49368e-06
-6.52428e-06
4.76335e-06
-8.439e-06
5.50775e-06
-4.43797e-06
6.26609e-06
4.60942e-06
6.3105e-06
1.26561e-05
5.61849e-06
1.76797e-05
4.42523e-06
2.03251e-05
3.26244e-06
2.02689e-05
2.58811e-06
1.6133e-05
2.51381e-06
7.81361e-06
1.75406e-06
-2.64696e-06
-1.69599e-05
2.1417e-05
-3.0729e-05
2.30303e-05
-2.31847e-05
1.8544e-05
-1.17713e-05
1.32709e-05
-2.7144e-06
8.7513e-06
2.14161e-06
5.30905e-06
2.89852e-06
2.99705e-06
-1.15488e-07
1.97196e-06
-5.49918e-06
1.7968e-06
-8.26383e-06
2.43328e-06
-5.07446e-06
3.7568e-06
3.2859e-06
4.6925e-06
1.17204e-05
4.88144e-06
1.74908e-05
4.39683e-06
2.08097e-05
3.78699e-06
2.08787e-05
3.39069e-06
1.65293e-05
3.43702e-06
7.76729e-06
2.44412e-06
-1.65405e-06
-1.45158e-05
1.32708e-06
-4.10642e-07
1.64898e-06
-7.44746e-07
1.60237e-06
-1.1486e-06
1.51212e-06
-1.5882e-06
1.52771e-06
-1.993e-06
1.69268e-06
-2.27075e-06
1.99283e-06
-2.35423e-06
2.37984e-06
-2.21264e-06
2.81102e-06
-1.89232e-06
3.24051e-06
-1.44408e-06
3.64464e-06
-9.6544e-07
4.01575e-06
-5.4084e-07
4.38689e-06
-2.56937e-07
4.8247e-06
-1.6793e-07
5.45169e-06
-2.89168e-07
6.38642e-06
-5.14556e-07
7.75375e-06
-7.70018e-07
9.67558e-06
-1.0368e-06
1.2264e-05
-1.36579e-06
1.54979e-05
-1.80693e-06
1.91759e-05
-2.44633e-06
2.35504e-05
-3.39155e-06
-4.86062e-06
3.44724e-05
8.83693e-07
-1.29434e-06
1.15707e-06
-1.01812e-06
1.07378e-06
-1.06531e-06
8.96001e-07
-1.41042e-06
8.2067e-07
-1.91766e-06
8.90578e-07
-2.34064e-06
1.11357e-06
-2.57721e-06
1.45165e-06
-2.55071e-06
1.91908e-06
-2.35975e-06
2.48472e-06
-2.00972e-06
3.12049e-06
-1.60121e-06
3.78843e-06
-1.20878e-06
4.48312e-06
-9.51629e-07
5.24698e-06
-9.31787e-07
6.18254e-06
-1.22473e-06
7.4127e-06
-1.74471e-06
9.12571e-06
-2.48302e-06
1.15388e-05
-3.44988e-06
1.4854e-05
-4.68097e-06
1.91007e-05
-6.05361e-06
2.41834e-05
-7.52904e-06
3.04231e-05
-9.63131e-06
-1.29792e-05
3.85417e-05
-1.31494e-06
2.05971e-08
-3.751e-07
-1.95797e-06
-2.77297e-07
-1.16312e-06
-4.63649e-07
-1.22409e-06
-4.90529e-07
-1.89078e-06
-4.5359e-07
-2.37759e-06
-3.2429e-07
-2.7065e-06
-1.15046e-07
-2.75995e-06
3.7895e-07
-2.85373e-06
1.16098e-06
-2.79175e-06
2.16798e-06
-2.60821e-06
3.31544e-06
-2.35624e-06
4.60247e-06
-2.23866e-06
5.91132e-06
-2.24063e-06
7.08147e-06
-2.39489e-06
8.17777e-06
-2.84101e-06
9.59323e-06
-3.89848e-06
1.17988e-05
-5.65542e-06
1.52516e-05
-8.13383e-06
2.01146e-05
-1.09166e-05
2.5925e-05
-1.33395e-05
3.24902e-05
-1.61964e-05
-2.0078e-05
3.9589e-05
-3.12992e-06
3.15056e-06
-5.71249e-06
6.2457e-07
-6.84452e-06
-3.11322e-08
-6.39179e-06
-1.67677e-06
-4.18141e-06
-4.10119e-06
-2.92261e-06
-3.63638e-06
-2.12907e-06
-3.49999e-06
-2.49718e-06
-2.39185e-06
-2.15249e-06
-3.1984e-06
-1.05931e-06
-3.88492e-06
5.89596e-07
-4.2571e-06
2.55244e-06
-4.31907e-06
5.40922e-06
-5.09544e-06
8.43029e-06
-5.26168e-06
9.98854e-06
-3.95314e-06
9.19126e-06
-2.04374e-06
8.11796e-06
-2.82523e-06
7.77631e-06
-5.31378e-06
9.80882e-06
-1.01663e-05
1.58065e-05
-1.69142e-05
2.32073e-05
-2.07403e-05
2.90938e-05
-2.2083e-05
-1.96259e-05
2.86418e-05
-5.6757e-06
8.8263e-06
-8.84032e-06
3.78923e-06
-1.03565e-05
1.48502e-06
-1.06282e-05
-1.40506e-06
-9.92266e-06
-4.80667e-06
-9.66435e-06
-3.89467e-06
-1.01836e-05
-2.98069e-06
-8.1466e-06
-4.42886e-06
-5.2128e-06
-6.13218e-06
-2.59616e-06
-6.50154e-06
-3.53717e-07
-6.49953e-06
2.53366e-06
-7.20643e-06
7.02466e-06
-9.58641e-06
1.20325e-05
-1.02695e-05
1.27604e-05
-4.68105e-06
-4.837e-06
1.55537e-05
-4.35971e-05
3.59349e-05
-5.84773e-05
9.56651e-06
-4.95293e-05
-1.91144e-05
-3.8145e-05
-2.82985e-05
-2.85366e-05
-3.03486e-05
-2.27752e-05
-2.78445e-05
-1.88626e-05
-2.35386e-05
8.41494e-08
8.74222e-06
-2.06416e-06
5.9377e-06
-3.59696e-06
3.01792e-06
-5.27685e-06
2.74827e-07
-8.07104e-06
-2.01247e-06
-9.76114e-06
-2.20447e-06
-9.28076e-06
-3.46105e-06
-4.9449e-06
-8.76466e-06
-2.27882e-06
-8.79823e-06
-6.82146e-07
-8.0982e-06
4.32095e-08
-7.22488e-06
1.3951e-06
-8.5583e-06
3.07201e-06
-1.12633e-05
4.184e-06
-1.13815e-05
-5.65833e-07
6.86971e-08
-1.56619e-05
3.06496e-05
-3.19752e-05
5.2248e-05
-4.46122e-05
2.22035e-05
-4.59483e-05
-1.77783e-05
-4.38147e-05
-3.04321e-05
-3.98605e-05
-3.43028e-05
-3.78683e-05
-2.98366e-05
-1.62102e-05
-4.05207e-05
4.39462e-06
4.34758e-06
5.78206e-06
4.55044e-06
5.41685e-06
3.38312e-06
4.09786e-06
1.59397e-06
2.14059e-06
-5.51009e-08
1.09271e-06
-1.15647e-06
1.11959e-06
-3.48778e-06
-7.61963e-07
-6.88302e-06
-1.20685e-06
-8.35335e-06
-1.36342e-06
-7.94162e-06
-1.27441e-06
-7.31386e-06
-2.11897e-06
-7.7137e-06
-4.75102e-06
-8.63122e-06
-9.78692e-06
-6.34556e-06
-1.39905e-05
4.27216e-06
-1.59596e-05
3.26187e-05
-1.5525e-05
5.18135e-05
-2.17807e-05
2.84591e-05
-3.28546e-05
-6.70451e-06
-3.98347e-05
-2.34522e-05
-4.0865e-05
-3.32723e-05
-4.31417e-05
-2.756e-05
-1.04436e-05
-4.89082e-05
4.6402e-06
-2.92534e-07
7.19215e-06
1.99881e-06
8.15301e-06
2.42237e-06
8.05496e-06
1.69206e-06
7.41688e-06
5.83145e-07
6.8803e-06
-6.19686e-07
5.92395e-06
-2.53117e-06
3.74912e-06
-4.70813e-06
7.51185e-07
-5.35534e-06
-2.73298e-06
-4.45734e-06
-6.86566e-06
-3.18107e-06
-1.11186e-05
-3.46064e-06
-1.38752e-05
-5.87459e-06
-1.6028e-05
-4.19287e-06
-1.85612e-05
6.80522e-06
-1.37297e-05
2.77873e-05
-7.68461e-06
4.57683e-05
-1.209e-05
3.28645e-05
-2.11071e-05
2.31263e-06
-2.92566e-05
-1.53027e-05
-3.99221e-05
-2.26069e-05
-4.75545e-05
-1.99275e-05
-8.8666e-06
-4.91316e-05
3.29508e-06
-3.58752e-06
5.5881e-06
-2.94039e-07
7.01345e-06
9.97176e-07
7.68129e-06
1.02437e-06
7.76497e-06
4.99723e-07
7.48607e-06
-3.40558e-07
6.46937e-06
-1.51441e-06
4.26157e-06
-2.50029e-06
1.1101e-06
-2.20375e-06
-2.63931e-06
-7.07809e-07
-6.77498e-06
9.54666e-07
-1.09184e-05
6.82842e-07
-1.50333e-05
-1.75977e-06
-1.86734e-05
-5.52737e-07
-2.05579e-05
8.68962e-06
-1.686e-05
2.40893e-05
-1.01006e-05
3.90089e-05
-9.64401e-06
3.24078e-05
-1.387e-05
6.53867e-06
-2.00188e-05
-9.15391e-06
-2.9204e-05
-1.34219e-05
-3.72189e-05
-1.19127e-05
-7.30338e-06
-3.87822e-05
1.53824e-06
-5.12557e-06
2.97616e-06
-1.73187e-06
4.18821e-06
-2.14852e-07
4.98796e-06
2.24819e-07
5.3693e-06
1.18554e-07
5.29752e-06
-2.6862e-07
4.50518e-06
-7.22134e-07
2.82518e-06
-8.20252e-07
5.55546e-07
6.59528e-08
-1.94405e-06
1.79185e-06
-4.61629e-06
3.62702e-06
-8.31357e-06
4.38024e-06
-1.40764e-05
4.00312e-06
-1.98955e-05
5.26651e-06
-2.23024e-05
1.10965e-05
-2.02918e-05
2.20788e-05
-1.38432e-05
3.25604e-05
-9.38406e-06
2.79486e-05
-1.10283e-05
8.18276e-06
-1.55776e-05
-4.60441e-06
-2.10324e-05
-7.96723e-06
-2.68557e-05
-6.08916e-06
-5.18139e-06
-2.89775e-05
-2.33522e-07
-4.89195e-06
2.5943e-07
-2.22477e-06
9.03047e-07
-8.58431e-07
1.45316e-06
-3.25049e-07
1.78404e-06
-2.12149e-07
1.76819e-06
-2.52731e-07
1.2521e-06
-2.0602e-07
1.8249e-07
2.49582e-07
-1.17614e-06
1.42485e-06
-2.61693e-06
3.23281e-06
-4.23156e-06
5.2418e-06
-6.73929e-06
6.88793e-06
-1.09579e-05
8.22164e-06
-1.61245e-05
1.04331e-05
-1.98005e-05
1.47725e-05
-1.91297e-05
2.1408e-05
-1.32146e-05
2.66453e-05
-7.80725e-06
2.25414e-05
-8.29979e-06
8.67519e-06
-1.21345e-05
-7.69571e-07
-1.64284e-05
-3.67319e-06
-2.00829e-05
-2.43462e-06
-3.45438e-06
-2.18104e-05
-1.60887e-06
-3.28306e-06
-2.14332e-06
-1.69034e-06
-2.18139e-06
-8.20073e-07
-2.06574e-06
-4.40508e-07
-1.98174e-06
-2.95919e-07
-2.06457e-06
-1.69915e-07
-2.41379e-06
1.43307e-07
-3.02847e-06
8.64335e-07
-3.764e-06
2.16033e-06
-4.51194e-06
3.98067e-06
-5.36064e-06
6.09051e-06
-6.69383e-06
8.22098e-06
-8.87269e-06
1.04006e-05
-1.1518e-05
1.30785e-05
-1.33061e-05
1.65606e-05
-1.23885e-05
2.04903e-05
-8.38916e-06
2.26458e-05
-4.60658e-06
1.87588e-05
-5.39332e-06
9.46186e-06
-9.30399e-06
3.14099e-06
-1.34365e-05
4.59198e-07
-1.56489e-05
-2.21952e-07
-2.43658e-06
-1.66664e-05
-2.63128e-06
-6.51728e-07
-4.00053e-06
-3.2108e-07
-4.70428e-06
-1.16033e-07
-5.07296e-06
-7.16831e-08
-5.30845e-06
-6.03185e-08
-5.54191e-06
6.35177e-08
-5.84697e-06
4.48494e-07
-6.22051e-06
1.23802e-06
-6.58608e-06
2.52619e-06
-6.88999e-06
4.28489e-06
-7.18348e-06
6.38407e-06
-7.63771e-06
8.67495e-06
-8.36266e-06
1.11256e-05
-9.09705e-06
1.3813e-05
-9.16191e-06
1.66256e-05
-7.68499e-06
1.90135e-05
-4.68628e-06
1.96471e-05
-2.46578e-06
1.65383e-05
-3.71771e-06
1.07139e-05
-6.7339e-06
6.1571e-06
-9.63925e-06
3.36436e-06
-1.12862e-05
1.42495e-06
-1.51546e-06
-1.22073e-05
-3.28544e-06
2.6337e-06
-5.27206e-06
1.66572e-06
-6.51038e-06
1.12242e-06
-7.31088e-06
7.29098e-07
-7.86345e-06
4.92415e-07
-8.28518e-06
4.85481e-07
-8.6362e-06
7.99679e-07
-8.91845e-06
1.52013e-06
-9.09166e-06
2.6992e-06
-9.1233e-06
4.31653e-06
-9.02865e-06
6.28934e-06
-8.8645e-06
8.5107e-06
-8.63606e-06
1.08971e-05
-8.17829e-06
1.33553e-05
-7.18387e-06
1.56313e-05
-5.38307e-06
1.72126e-05
-3.04615e-06
1.73102e-05
-1.63857e-06
1.51307e-05
-2.28308e-06
1.13583e-05
-4.02723e-06
7.90158e-06
-5.82074e-06
5.15806e-06
-7.0726e-06
2.67689e-06
-4.47428e-07
-8.14067e-06
-3.59819e-06
6.23187e-06
-5.94488e-06
4.01248e-06
-7.54705e-06
2.72463e-06
-8.67652e-06
1.85871e-06
-9.49648e-06
1.31224e-06
-1.0103e-05
1.09199e-06
-1.05427e-05
1.23926e-06
-1.08206e-05
1.79806e-06
-1.09119e-05
2.79053e-06
-1.07906e-05
4.19516e-06
-1.04486e-05
5.94716e-06
-9.89029e-06
7.95236e-06
-9.09202e-06
1.00989e-05
-7.96777e-06
1.22309e-05
-6.41741e-06
1.4081e-05
-4.45226e-06
1.52472e-05
-2.40172e-06
1.52595e-05
-1.07457e-06
1.38037e-05
-9.90073e-07
1.12738e-05
-1.71085e-06
8.62257e-06
-2.67366e-06
6.12105e-06
-3.60684e-06
3.61012e-06
6.53274e-07
-4.70747e-06
-3.5832e-06
9.81515e-06
-6.04105e-06
6.47008e-06
-7.82708e-06
4.51079e-06
-9.16582e-06
3.19763e-06
-1.01801e-05
2.32657e-06
-1.09389e-05
1.85086e-06
-1.14742e-05
1.77442e-06
-1.17878e-05
2.11173e-06
-1.18611e-05
2.86395e-06
-1.16697e-05
4.00382e-06
-1.11946e-05
5.47191e-06
-1.04213e-05
7.17893e-06
-9.32823e-06
9.0059e-06
-7.88586e-06
1.07884e-05
-6.09673e-06
1.22919e-05
-4.0702e-06
1.32208e-05
-2.09776e-06
1.32871e-05
-6.43436e-07
1.23494e-05
-2.25861e-09
1.06325e-05
8.99326e-09
8.61133e-06
-3.53979e-07
6.48409e-06
-9.74439e-07
4.23067e-06
1.6978e-06
-2.01887e-06
-3.26012e-06
1.30753e-05
-5.60141e-06
8.81123e-06
-7.40768e-06
6.31716e-06
-8.8418e-06
4.63181e-06
-9.97305e-06
3.45785e-06
-1.08378e-05
2.7157e-06
-1.14516e-05
2.38801e-06
-1.1811e-05
2.47118e-06
-1.18993e-05
2.95235e-06
-1.16937e-05
3.79817e-06
-1.11724e-05
4.95053e-06
-1.03181e-05
6.32478e-06
-9.11955e-06
7.80745e-06
-7.58048e-06
9.24932e-06
-5.74857e-06
1.04599e-05
-3.75301e-06
1.12253e-05
-1.82607e-06
1.13603e-05
-2.65375e-07
1.07888e-05
7.36424e-07
9.63076e-06
1.2181e-06
8.12975e-06
1.27305e-06
6.42926e-06
9.35225e-07
4.56865e-06
2.59037e-06
4.27739e-08
-2.6711e-06
1.57461e-05
-4.69753e-06
1.08375e-05
-6.38744e-06
8.00708e-06
-7.82114e-06
6.0653e-06
-8.99719e-06
4.6339e-06
-9.91645e-06
3.63476e-06
-1.05781e-05
3.04961e-06
-1.09744e-05
2.86772e-06
-1.10898e-05
3.06783e-06
-1.09037e-05
3.6121e-06
-1.03964e-05
4.44317e-06
-9.5539e-06
5.48236e-06
-8.37418e-06
6.62785e-06
-6.87776e-06
7.753e-06
-5.12634e-06
8.70853e-06
-3.24075e-06
9.3396e-06
-1.40153e-06
9.52113e-06
1.84536e-07
9.20278e-06
1.37166e-06
8.44368e-06
2.12825e-06
7.37329e-06
2.46531e-06
6.09235e-06
2.37106e-06
4.66304e-06
3.17541e-06
1.78611e-06
-1.91343e-06
1.76592e-05
-3.44291e-06
1.23668e-05
-4.92308e-06
9.48732e-06
-6.27267e-06
7.41457e-06
-7.42461e-06
5.78581e-06
-8.34169e-06
4.55143e-06
-9.01113e-06
3.71904e-06
-9.42265e-06
3.27951e-06
-9.56192e-06
3.20712e-06
-9.41106e-06
3.46113e-06
-8.95356e-06
3.98556e-06
-8.17984e-06
4.70855e-06
-7.0939e-06
5.54185e-06
-5.72245e-06
6.38151e-06
-4.12625e-06
7.11241e-06
-2.40833e-06
7.62162e-06
-7.0826e-07
7.82104e-06
8.22255e-07
7.67231e-06
2.06476e-06
7.20124e-06
2.96073e-06
6.47741e-06
3.48462e-06
5.56856e-06
3.61558e-06
4.53216e-06
3.43292e-06
3.3581e-06
-1.12292e-06
1.87822e-05
-2.16416e-06
1.34078e-05
-3.24248e-06
1.05656e-05
-4.42466e-06
8.59666e-06
-5.46603e-06
6.82707e-06
-6.31063e-06
5.39557e-06
-6.93718e-06
4.34562e-06
-7.3322e-06
3.67476e-06
-7.48072e-06
3.35567e-06
-7.36605e-06
3.34639e-06
-6.9739e-06
3.59338e-06
-6.29759e-06
4.03214e-06
-5.34362e-06
4.58773e-06
-4.13852e-06
5.1763e-06
-2.73567e-06
5.7096e-06
-1.2185e-06
6.10441e-06
3.05739e-07
6.29675e-06
1.72259e-06
6.25545e-06
2.93548e-06
5.9884e-06
3.88139e-06
5.53158e-06
4.52341e-06
4.92661e-06
4.84423e-06
4.21138e-06
3.4213e-06
4.85585e-06
-4.6588e-07
1.9248e-05
-1.07505e-06
1.40171e-05
-1.66751e-06
1.11579e-05
-2.52097e-06
9.45032e-06
-3.33564e-06
7.64158e-06
-4.02219e-06
6.08185e-06
-4.54741e-06
4.87099e-06
-4.8885e-06
4.01604e-06
-5.02469e-06
3.4919e-06
-4.93693e-06
3.25863e-06
-4.61059e-06
3.2671e-06
-4.03932e-06
3.46088e-06
-3.22913e-06
3.77747e-06
-2.20289e-06
4.15e-06
-1.00416e-06
4.51089e-06
3.01867e-07
4.79833e-06
1.63379e-06
4.96475e-06
2.90493e-06
4.98426e-06
4.03815e-06
4.85519e-06
4.97616e-06
4.5936e-06
5.68197e-06
4.22082e-06
6.1385e-06
3.75486e-06
3.20641e-06
6.35341e-06
1.56563e-07
1.90912e-05
4.36397e-08
1.413e-05
-2.7399e-07
1.14752e-05
-6.93625e-07
9.87017e-06
-1.18058e-06
8.12829e-06
-1.63862e-06
6.53974e-06
-2.01445e-06
5.24702e-06
-2.26902e-06
4.27076e-06
-2.37113e-06
3.59405e-06
-2.29601e-06
3.18354e-06
-2.02619e-06
2.99736e-06
-1.55346e-06
2.98818e-06
-8.81191e-07
3.10514e-06
-2.68646e-08
3.29559e-06
9.76033e-07
3.50793e-06
2.07834e-06
3.69588e-06
3.21935e-06
3.82358e-06
4.33403e-06
3.86944e-06
5.36231e-06
3.82685e-06
6.25614e-06
3.69974e-06
6.98206e-06
3.49488e-06
7.52232e-06
3.2146e-06
2.85187e-06
7.87688e-06
1.16521e-06
1.79259e-05
1.28581e-06
1.40092e-05
1.16795e-06
1.1593e-05
1.10371e-06
9.93447e-06
9.42386e-07
8.28939e-06
7.24541e-07
6.75752e-06
5.14231e-07
5.45747e-06
3.62881e-07
4.42221e-06
3.10734e-07
3.64621e-06
3.88156e-07
3.1061e-06
6.16065e-07
2.7694e-06
1.00556e-06
2.59861e-06
1.5569e-06
2.55365e-06
2.25852e-06
2.5938e-06
3.08633e-06
2.67995e-06
4.00457e-06
2.77743e-06
4.96893e-06
2.85901e-06
5.93147e-06
2.90677e-06
6.8465e-06
2.91177e-06
7.67543e-06
2.87082e-06
8.38927e-06
2.78105e-06
8.96969e-06
2.63417e-06
2.41219e-06
9.40934e-06
2.1888e-06
1.57372e-05
2.5768e-06
1.36209e-05
2.73228e-06
1.14377e-05
2.89606e-06
9.77071e-06
2.97e-06
8.21538e-06
2.95399e-06
6.77354e-06
2.898e-06
5.51348e-06
2.85291e-06
4.4673e-06
2.86124e-06
3.63786e-06
2.95573e-06
3.01153e-06
3.15961e-06
2.56536e-06
3.48666e-06
2.27139e-06
3.94083e-06
2.09926e-06
4.51616e-06
2.01827e-06
5.1967e-06
1.9992e-06
5.95764e-06
2.01629e-06
6.76762e-06
2.04888e-06
7.59204e-06
2.08228e-06
8.39689e-06
2.10693e-06
9.15195e-06
2.11579e-06
9.83261e-06
2.10039e-06
1.04205e-05
2.04627e-06
1.92985e-06
1.09027e-05
2.55049e-06
1.31867e-05
3.55368e-06
1.26175e-05
4.08015e-06
1.09114e-05
4.46746e-06
9.38353e-06
4.73638e-06
7.94656e-06
4.89708e-06
6.61299e-06
4.98767e-06
5.42288e-06
5.05304e-06
4.40189e-06
5.13358e-06
3.55731e-06
5.26194e-06
2.88307e-06
5.46252e-06
2.36459e-06
5.75129e-06
1.98242e-06
6.13565e-06
1.71472e-06
6.61457e-06
1.53919e-06
7.17901e-06
1.43461e-06
7.81292e-06
1.3822e-06
8.49506e-06
1.36662e-06
9.20115e-06
1.37613e-06
9.90639e-06
1.40166e-06
1.05875e-05
1.43466e-06
1.12238e-05
1.46399e-06
1.17976e-05
1.47247e-06
1.43481e-06
1.22926e-05
2.43608e-06
1.07504e-05
3.93881e-06
1.11148e-05
4.88561e-06
9.96439e-06
5.56378e-06
8.70542e-06
6.05547e-06
7.45502e-06
6.40325e-06
6.26543e-06
6.64953e-06
5.17659e-06
6.83742e-06
4.21396e-06
7.0059e-06
3.38886e-06
7.18742e-06
2.7015e-06
7.40733e-06
2.14455e-06
7.68359e-06
1.70604e-06
8.02671e-06
1.37154e-06
8.44e-06
1.12585e-06
8.92015e-06
9.54379e-07
9.45813e-06
8.44112e-07
1.00405e-05
7.8416e-07
1.06509e-05
7.65653e-07
1.12717e-05
7.80796e-07
1.18852e-05
8.21056e-07
1.24744e-05
8.74754e-07
1.30225e-05
9.24388e-07
9.4546e-07
1.35119e-05
2.12883e-06
8.62128e-06
3.88364e-06
9.35998e-06
5.16515e-06
8.68244e-06
6.12582e-06
7.74452e-06
6.85052e-06
6.73038e-06
7.39501e-06
5.72109e-06
7.80661e-06
4.76493e-06
8.12881e-06
3.89172e-06
8.40008e-06
3.11761e-06
8.65291e-06
2.44863e-06
8.91356e-06
1.88384e-06
9.20176e-06
1.41782e-06
9.53072e-06
1.0426e-06
9.90747e-06
7.49133e-07
1.03334e-05
5.28467e-07
1.0805e-05
3.72503e-07
1.13148e-05
2.74297e-07
1.18526e-05
2.27811e-07
1.24064e-05
2.27051e-07
1.29629e-05
2.64558e-07
1.35082e-05
3.29489e-07
1.40271e-05
4.05554e-07
4.70595e-07
1.45021e-05
1.84137e-06
6.77984e-06
3.62922e-06
7.57192e-06
5.08477e-06
7.22653e-06
6.24625e-06
6.58262e-06
7.16508e-06
5.8116e-06
7.88754e-06
4.99865e-06
8.4569e-06
4.19545e-06
8.91357e-06
3.43498e-06
9.29386e-06
2.73726e-06
9.62936e-06
2.11302e-06
9.94645e-06
1.56665e-06
1.0266e-05
1.09825e-06
1.06032e-05
7.0537e-07
1.09681e-05
3.84274e-07
1.13657e-05
1.30909e-07
1.17967e-05
-5.85186e-08
1.22584e-05
-1.8738e-07
1.27453e-05
-2.58905e-07
1.32494e-05
-2.7695e-07
1.37613e-05
-2.47241e-07
1.42698e-05
-1.78925e-07
1.47616e-05
-8.61603e-08
1.2039e-08
1.52203e-05
1.62362e-06
5.15639e-06
3.32156e-06
5.87374e-06
4.80974e-06
5.7382e-06
6.0669e-06
5.32524e-06
7.10928e-06
4.76935e-06
7.96373e-06
4.14416e-06
8.66191e-06
3.49718e-06
9.23643e-06
2.86041e-06
9.71857e-06
2.255e-06
1.0137e-05
1.69439e-06
1.05168e-05
1.18663e-06
1.08789e-05
7.36078e-07
1.12394e-05
3.44729e-07
1.16103e-05
1.32989e-08
1.19992e-05
-2.58067e-07
1.24101e-05
-4.69393e-07
1.28436e-05
-6.20796e-07
1.32976e-05
-7.12771e-07
1.37677e-05
-7.46863e-07
1.42472e-05
-7.26693e-07
1.47276e-05
-6.59231e-07
1.51975e-05
-5.56027e-07
-4.32658e-07
1.56422e-05
1.45373e-06
3.7028e-06
3.01292e-06
4.31441e-06
4.44475e-06
4.30634e-06
5.70994e-06
4.06018e-06
6.80258e-06
3.67689e-06
7.73202e-06
3.21469e-06
8.51654e-06
2.71266e-06
9.17873e-06
2.19821e-06
9.74285e-06
1.69076e-06
1.0233e-05
1.2041e-06
1.06714e-05
7.48055e-07
1.10776e-05
3.2973e-07
1.14677e-05
-4.55754e-08
1.18545e-05
-3.7363e-07
1.22471e-05
-6.50822e-07
1.26517e-05
-8.73947e-07
1.30712e-05
-1.04022e-06
1.3506e-05
-1.14754e-06
1.39543e-05
-1.19512e-06
1.4412e-05
-1.18433e-06
1.48725e-05
-1.11976e-06
1.53266e-05
-1.01021e-06
-8.67835e-07
1.57617e-05
1.30348e-06
2.39928e-06
2.70968e-06
2.90812e-06
4.0403e-06
2.97574e-06
5.25599e-06
2.84479e-06
6.34072e-06
2.59221e-06
7.29245e-06
2.26291e-06
8.11851e-06
1.88666e-06
8.83222e-06
1.48453e-06
9.4507e-06
1.07221e-06
9.99272e-06
6.61983e-07
1.04769e-05
2.63814e-07
1.09204e-05
-1.13858e-07
1.13382e-05
-4.63576e-07
1.1743e-05
-7.78528e-07
1.21445e-05
-1.05239e-06
1.25499e-05
-1.2793e-06
1.29637e-05
-1.45394e-06
1.33881e-05
-1.57189e-06
1.38231e-05
-1.63012e-06
1.42666e-05
-1.62779e-06
1.47138e-05
-1.56711e-06
1.51577e-05
-1.45418e-06
-1.29799e-06
1.55879e-05
1.15673e-06
1.24237e-06
2.40795e-06
1.65679e-06
3.6182e-06
1.76557e-06
4.7517e-06
1.71146e-06
5.789e-06
1.55477e-06
6.72178e-06
1.33004e-06
7.55002e-06
1.05844e-06
8.28017e-06
7.54352e-07
8.92342e-06
4.28919e-07
9.49361e-06
9.17747e-08
1.00055e-05
-2.48094e-07
1.04736e-05
-5.81958e-07
1.09111e-05
-9.01171e-07
1.13297e-05
-1.1972e-06
1.17391e-05
-1.46171e-06
1.21466e-05
-1.68674e-06
1.25576e-05
-1.8649e-06
1.29755e-05
-1.98972e-06
1.34016e-05
-2.05621e-06
1.38352e-05
-2.06146e-06
1.42735e-05
-2.00547e-06
1.47111e-05
-1.89183e-06
-1.72669e-06
1.51398e-05
1.0094e-06
2.32798e-07
2.10744e-06
5.587e-07
3.19005e-06
6.83123e-07
4.22405e-06
6.77404e-07
5.18903e-06
5.89578e-07
6.07338e-06
4.45643e-07
6.87277e-06
2.59008e-07
7.58932e-06
3.77164e-08
8.22994e-06
-2.11772e-07
8.80453e-06
-4.82837e-07
9.32445e-06
-7.68043e-07
9.80147e-06
-1.05902e-06
1.02469e-05
-1.34662e-06
1.0671e-05
-1.62127e-06
1.10826e-05
-1.87325e-06
1.14889e-05
-2.09304e-06
1.18957e-05
-2.27161e-06
1.23068e-05
-2.40085e-06
1.27246e-05
-2.47406e-06
1.31497e-05
-2.48657e-06
1.35805e-05
-2.43641e-06
1.40136e-05
-2.32494e-06
-2.15582e-06
1.44426e-05
8.63653e-07
-6.30937e-07
1.81184e-06
-3.89392e-07
2.76448e-06
-2.69377e-07
3.69e-06
-2.48286e-07
4.56733e-06
-2.87849e-07
5.38299e-06
-3.70013e-07
6.13054e-06
-4.88601e-07
6.80967e-06
-6.41528e-07
7.42457e-06
-8.26748e-07
7.98224e-06
-1.04058e-06
8.49135e-06
-1.27724e-06
8.96124e-06
-1.52901e-06
9.40124e-06
-1.78667e-06
9.82008e-06
-2.04009e-06
1.02255e-05
-2.27867e-06
1.06243e-05
-2.49182e-06
1.1022e-05
-2.66931e-06
1.14228e-05
-2.80177e-06
1.18297e-05
-2.88114e-06
1.22443e-05
-2.90132e-06
1.26665e-05
-2.85872e-06
1.30941e-05
-2.75278e-06
-2.58506e-06
1.35232e-05
7.21829e-07
-1.35274e-06
1.52468e-06
-1.19201e-06
2.34785e-06
-1.09252e-06
3.16075e-06
-1.06133e-06
3.94123e-06
-1.06828e-06
4.67474e-06
-1.10347e-06
5.35409e-06
-1.16799e-06
5.97791e-06
-1.26542e-06
6.5488e-06
-1.39769e-06
7.07183e-06
-1.5637e-06
7.55359e-06
-1.75912e-06
8.00139e-06
-1.97692e-06
8.42271e-06
-2.20805e-06
8.82475e-06
-2.44213e-06
9.21417e-06
-2.66809e-06
9.59696e-06
-2.87466e-06
9.97834e-06
-3.05083e-06
1.03627e-05
-3.18633e-06
1.07535e-05
-3.27215e-06
1.11531e-05
-3.30111e-06
1.15625e-05
-3.26833e-06
1.19813e-05
-3.17178e-06
-3.01133e-06
1.24074e-05
5.83103e-07
-1.93574e-06
1.24589e-06
-1.85458e-06
1.94305e-06
-1.78978e-06
2.64315e-06
-1.76146e-06
3.32221e-06
-1.74723e-06
3.96528e-06
-1.74651e-06
4.56542e-06
-1.76815e-06
5.12116e-06
-1.82114e-06
5.63433e-06
-1.91085e-06
6.10876e-06
-2.03817e-06
6.54945e-06
-2.19991e-06
6.96205e-06
-2.3896e-06
7.35241e-06
-2.59844e-06
7.72632e-06
-2.81604e-06
8.08934e-06
-3.03113e-06
8.44668e-06
-3.23209e-06
8.80318e-06
-3.40749e-06
9.16317e-06
-3.54652e-06
9.53041e-06
-3.63959e-06
9.90792e-06
-3.6788e-06
1.02979e-05
-3.65844e-06
1.07014e-05
-3.57543e-06
-3.42842e-06
1.11184e-05
4.40784e-07
-2.37637e-06
9.70498e-07
-2.38422e-06
1.54942e-06
-2.36884e-06
2.14077e-06
-2.35275e-06
2.71798e-06
-2.32438e-06
3.26659e-06
-2.29513e-06
3.78087e-06
-2.28241e-06
4.26001e-06
-2.30021e-06
4.70569e-06
-2.35648e-06
5.12099e-06
-2.45345e-06
5.50971e-06
-2.58863e-06
5.87611e-06
-2.756e-06
6.22466e-06
-2.94696e-06
6.55991e-06
-3.15126e-06
6.8864e-06
-3.35763e-06
7.20859e-06
-3.55437e-06
7.53086e-06
-3.72989e-06
7.85737e-06
-3.87318e-06
8.19203e-06
-3.97438e-06
8.53841e-06
-4.02527e-06
8.89964e-06
-4.01973e-06
9.27835e-06
-3.95413e-06
-3.8265e-06
9.67648e-06
2.79318e-07
-2.65559e-06
6.89312e-07
-2.79426e-06
1.16447e-06
-2.84402e-06
1.65581e-06
-2.84401e-06
2.13445e-06
-2.80303e-06
2.58798e-06
-2.74869e-06
3.01313e-06
-2.70753e-06