/*--------------------------------*- C++ -*----------------------------------*\
| =========                 |                                                 |
| \\      /  F ield         | OpenFOAM: The Open Source CFD Toolbox           |
|  \\    /   O peration     | Version:  2.3.0                                 |
|   \\  /    A nd           | Web:      www.OpenFOAM.org                      |
|    \\/     M anipulation  |                                                 |
\*---------------------------------------------------------------------------*/
FoamFile
{
    version     2.0;
    format      ascii;
    class       volVectorField;
    location    "20";
    object      D;
}
// * * * * * * * * * * * * * * * * * * * * * * * * * * * * * * * * * * * * * //

dimensions      [0 1 0 0 0 0 0];

internalField   nonuniform List<vector> 
1000
(
(5.35297e-08 -2.04129e-08 0)
(5.04688e-08 -1.83491e-08 0)
(4.86448e-08 -1.70749e-08 0)
(4.76393e-08 -1.63069e-08 0)
(4.72003e-08 -1.58745e-08 0)
(4.71664e-08 -1.56726e-08 0)
(4.74286e-08 -1.56314e-08 0)
(4.79113e-08 -1.57044e-08 0)
(4.85607e-08 -1.58585e-08 0)
(4.93444e-08 -1.60752e-08 0)
(4.85108e-08 -2.21881e-08 0)
(4.52883e-08 -2.05452e-08 0)
(4.3357e-08 -1.95269e-08 0)
(4.22749e-08 -1.89146e-08 0)
(4.17729e-08 -1.85788e-08 0)
(4.16806e-08 -1.84365e-08 0)
(4.18845e-08 -1.84328e-08 0)
(4.23069e-08 -1.85308e-08 0)
(4.28971e-08 -1.87033e-08 0)
(4.36264e-08 -1.89332e-08 0)
(4.32726e-08 -2.38502e-08 0)
(4.00058e-08 -2.26866e-08 0)
(3.8043e-08 -2.19575e-08 0)
(3.69288e-08 -2.15234e-08 0)
(3.63908e-08 -2.12971e-08 0)
(3.6256e-08 -2.1222e-08 0)
(3.64112e-08 -2.12593e-08 0)
(3.67801e-08 -2.13818e-08 0)
(3.7313e-08 -2.15696e-08 0)
(3.79796e-08 -2.18088e-08 0)
(3.78494e-08 -2.53802e-08 0)
(3.46677e-08 -2.47187e-08 0)
(3.27499e-08 -2.42978e-08 0)
(3.16521e-08 -2.4053e-08 0)
(3.1107e-08 -2.39435e-08 0)
(3.0947e-08 -2.39397e-08 0)
(3.10627e-08 -2.40199e-08 0)
(3.13806e-08 -2.41683e-08 0)
(3.18528e-08 -2.43716e-08 0)
(3.24483e-08 -2.46204e-08 0)
(3.22719e-08 -2.67511e-08 0)
(2.93028e-08 -2.65922e-08 0)
(2.75118e-08 -2.64772e-08 0)
(2.64793e-08 -2.64216e-08 0)
(2.59569e-08 -2.64288e-08 0)
(2.57881e-08 -2.64967e-08 0)
(2.58718e-08 -2.66207e-08 0)
(2.61398e-08 -2.67953e-08 0)
(2.6547e-08 -2.70149e-08 0)
(2.70635e-08 -2.72744e-08 0)
(2.65701e-08 -2.79426e-08 0)
(2.39391e-08 -2.82532e-08 0)
(2.23493e-08 -2.84264e-08 0)
(2.14291e-08 -2.85485e-08 0)
(2.09571e-08 -2.86658e-08 0)
(2.0795e-08 -2.88015e-08 0)
(2.08534e-08 -2.89669e-08 0)
(2.10717e-08 -2.91672e-08 0)
(2.141e-08 -2.94031e-08 0)
(2.18412e-08 -2.96739e-08 0)
(2.07676e-08 -2.89295e-08 0)
(1.85876e-08 -2.96544e-08 0)
(1.72703e-08 -3.00799e-08 0)
(1.65046e-08 -3.0358e-08 0)
(1.61081e-08 -3.05719e-08 0)
(1.59662e-08 -3.07674e-08 0)
(1.60048e-08 -3.09698e-08 0)
(1.6174e-08 -3.11931e-08 0)
(1.64403e-08 -3.1444e-08 0)
(1.67809e-08 -3.17258e-08 0)
(1.48878e-08 -2.96906e-08 0)
(1.32573e-08 -3.07491e-08 0)
(1.22702e-08 -3.1378e-08 0)
(1.16947e-08 -3.17817e-08 0)
(1.13945e-08 -3.20734e-08 0)
(1.12841e-08 -3.23168e-08 0)
(1.13078e-08 -3.2549e-08 0)
(1.14282e-08 -3.2791e-08 0)
(1.16202e-08 -3.30545e-08 0)
(1.18666e-08 -3.33456e-08 0)
(8.95204e-09 -3.02027e-08 0)
(7.94634e-09 -3.14958e-08 0)
(7.33427e-09 -3.22675e-08 0)
(6.97618e-09 -3.27589e-08 0)
(6.78861e-09 -3.31042e-08 0)
(6.7183e-09 -3.33809e-08 0)
(6.7308e-09 -3.36335e-08 0)
(6.80276e-09 -3.38885e-08 0)
(6.91877e-09 -3.41606e-08 0)
(7.0681e-09 -3.44588e-08 0)
(2.98712e-09 -3.04379e-08 0)
(2.65174e-09 -3.18502e-08 0)
(2.44172e-09 -3.26925e-08 0)
(2.31841e-09 -3.32256e-08 0)
(2.25358e-09 -3.35965e-08 0)
(2.22876e-09 -3.38883e-08 0)
(2.23213e-09 -3.41505e-08 0)
(2.25572e-09 -3.4411e-08 0)
(2.29433e-09 -3.46874e-08 0)
(2.34449e-09 -3.49889e-08 0)
(8.22763e-08 -9.33247e-10 0)
(8.27104e-08 -6.53822e-10 0)
(8.30294e-08 -4.66312e-10 0)
(8.33932e-08 -3.50416e-10 0)
(8.38767e-08 -2.82551e-10 0)
(8.45096e-08 -2.46183e-10 0)
(8.53002e-08 -2.30718e-10 0)
(8.6245e-08 -2.29404e-10 0)
(8.73358e-08 -2.37652e-10 0)
(8.85623e-08 -2.52622e-10 0)
(8.17599e-08 -2.8503e-09 0)
(8.20749e-08 -1.97318e-09 0)
(8.23213e-08 -1.42684e-09 0)
(8.26412e-08 -1.09299e-09 0)
(8.30971e-08 -8.97311e-10 0)
(8.37119e-08 -7.92836e-10 0)
(8.44893e-08 -7.49261e-10 0)
(8.54236e-08 -7.46798e-10 0)
(8.65047e-08 -7.72105e-10 0)
(8.77207e-08 -8.15894e-10 0)
(8.06206e-08 -4.78481e-09 0)
(8.07115e-08 -3.34726e-09 0)
(8.08165e-08 -2.46785e-09 0)
(8.1047e-08 -1.93299e-09 0)
(8.14444e-08 -1.62014e-09 0)
(8.20189e-08 -1.45344e-09 0)
(8.27664e-08 -1.38456e-09 0)
(8.36761e-08 -1.38168e-09 0)
(8.47345e-08 -1.42328e-09 0)
(8.59271e-08 -1.49406e-09 0)
(7.89031e-08 -6.73343e-09 0)
(7.86732e-08 -4.81086e-09 0)
(7.85819e-08 -3.63738e-09 0)
(7.86867e-08 -2.92697e-09 0)
(7.90011e-08 -2.51248e-09 0)
(7.95181e-08 -2.29239e-09 0)
(8.02225e-08 -2.20243e-09 0)
(8.10966e-08 -2.20028e-09 0)
(8.21225e-08 -2.25747e-09 0)
(8.32822e-08 -2.35376e-09 0)
(7.66376e-08 -8.69576e-09 0)
(7.6013e-08 -6.38309e-09 0)
(7.56779e-08 -4.97492e-09 0)
(7.56287e-08 -4.12307e-09 0)
(7.58415e-08 -3.6271e-09 0)
(7.62877e-08 -3.36479e-09 0)
(7.6939e-08 -3.259e-09 0)
(7.77693e-08 -3.25905e-09 0)
(7.8755e-08 -3.33096e-09 0)
(7.98745e-08 -3.45083e-09 0)
(7.38549e-08 -1.06701e-08 0)
(7.27819e-08 -8.08461e-09 0)
(7.21743e-08 -6.50873e-09 0)
(7.19519e-08 -5.55659e-09 0)
(7.20506e-08 -5.00313e-09 0)
(7.2417e-08 -4.7118e-09 0)
(7.3008e-08 -4.59637e-09 0)
(7.37885e-08 -4.6001e-09 0)
(7.47284e-08 -4.6854e-09 0)
(7.58018e-08 -4.82609e-09 0)
(7.05862e-08 -1.26618e-08 0)
(6.90427e-08 -9.92231e-09 0)
(6.81491e-08 -8.2554e-09 0)
(6.7746e-08 -7.24776e-09 0)
(6.77246e-08 -6.66329e-09 0)
(6.80067e-08 -6.35751e-09 0)
(6.85335e-08 -6.23919e-09 0)
(6.92601e-08 -6.24816e-09 0)
(7.01502e-08 -6.34493e-09 0)
(7.11735e-08 -6.50265e-09 0)
(6.68688e-08 -1.46481e-08 0)
(6.48652e-08 -1.18945e-08 0)
(6.36904e-08 -1.02142e-08 0)
(6.31091e-08 -9.19821e-09 0)
(6.29688e-08 -8.61038e-09 0)
(6.31659e-08 -8.30594e-09 0)
(6.36268e-08 -8.19249e-09 0)
(6.42972e-08 -8.20871e-09 0)
(6.51346e-08 -8.31472e-09 0)
(6.61046e-08 -8.485e-09 0)
(6.27563e-08 -1.66187e-08 0)
(6.03269e-08 -1.39788e-08 0)
(5.88934e-08 -1.2364e-08 0)
(5.8146e-08 -1.13874e-08 0)
(5.78927e-08 -1.0825e-08 0)
(5.80071e-08 -1.05388e-08 0)
(5.84015e-08 -1.04396e-08 0)
(5.90134e-08 -1.0467e-08 0)
(5.97949e-08 -1.0582e-08 0)
(6.07093e-08 -1.07601e-08 0)
(5.82954e-08 -1.85472e-08 0)
(5.55062e-08 -1.61435e-08 0)
(5.38512e-08 -1.46677e-08 0)
(5.29588e-08 -1.37756e-08 0)
(5.26041e-08 -1.32663e-08 0)
(5.26401e-08 -1.3015e-08 0)
(5.29679e-08 -1.29406e-08 0)
(5.35174e-08 -1.2987e-08 0)
(5.42373e-08 -1.31166e-08 0)
(5.50935e-08 -1.32999e-08 0)
(8.99119e-08 -2.66139e-10 0)
(9.13843e-08 -2.72193e-10 0)
(9.29579e-08 -2.77249e-10 0)
(9.4623e-08 -2.80969e-10 0)
(9.63708e-08 -2.83082e-10 0)
(9.81937e-08 -2.83442e-10 0)
(1.00085e-07 -2.81785e-10 0)
(1.02038e-07 -2.77984e-10 0)
(1.04047e-07 -2.71772e-10 0)
(1.06106e-07 -2.63011e-10 0)
(1.08211e-07 -2.51384e-10 0)
(1.10356e-07 -2.36702e-10 0)
(1.12536e-07 -2.18518e-10 0)
(1.14747e-07 -1.96582e-10 0)
(1.16983e-07 -1.70362e-10 0)
(1.19239e-07 -1.39407e-10 0)
(1.21509e-07 -1.03018e-10 0)
(1.23787e-07 -6.09205e-11 0)
(1.26065e-07 -1.33821e-11 0)
(1.28336e-07 3.48618e-11 0)
(8.91063e-08 -8.48037e-10 0)
(9.06514e-08 -8.54867e-10 0)
(9.22868e-08 -8.62445e-10 0)
(9.40053e-08 -8.68177e-10 0)
(9.58e-08 -8.7048e-10 0)
(9.76644e-08 -8.68294e-10 0)
(9.95927e-08 -8.60793e-10 0)
(1.01579e-07 -8.4727e-10 0)
(1.03618e-07 -8.27033e-10 0)
(1.05705e-07 -7.99394e-10 0)
(1.07836e-07 -7.63567e-10 0)
(1.10004e-07 -7.18684e-10 0)
(1.12207e-07 -6.63754e-10 0)
(1.14439e-07 -5.97632e-10 0)
(1.16695e-07 -5.18938e-10 0)
(1.1897e-07 -4.26285e-10 0)
(1.21259e-07 -3.17886e-10 0)
(1.23557e-07 -1.91886e-10 0)
(1.25855e-07 -4.58583e-11 0)
(1.28145e-07 1.2389e-10 0)
(8.7382e-08 -1.53399e-09 0)
(8.90743e-08 -1.5254e-09 0)
(9.08378e-08 -1.52183e-09 0)
(9.26687e-08 -1.51854e-09 0)
(9.45629e-08 -1.51225e-09 0)
(9.65159e-08 -1.50055e-09 0)
(9.85237e-08 -1.48167e-09 0)
(1.00582e-07 -1.45405e-09 0)
(1.02687e-07 -1.41636e-09 0)
(1.04835e-07 -1.36719e-09 0)
(1.07021e-07 -1.30516e-09 0)
(1.09242e-07 -1.22866e-09 0)
(1.11493e-07 -1.13598e-09 0)
(1.13771e-07 -1.0251e-09 0)
(1.16071e-07 -8.93874e-10 0)
(1.18389e-07 -7.39618e-10 0)
(1.2072e-07 -5.59356e-10 0)
(1.23058e-07 -3.49331e-10 0)
(1.25396e-07 -1.03572e-10 0)
(1.27725e-07 1.87162e-10 0)
(8.48373e-08 -2.38624e-09 0)
(8.67409e-08 -2.3377e-09 0)
(8.86902e-08 -2.30231e-09 0)
(9.06854e-08 -2.2729e-09 0)
(9.27255e-08 -2.24408e-09 0)
(9.48092e-08 -2.21163e-09 0)
(9.69347e-08 -2.17236e-09 0)
(9.90999e-08 -2.12346e-09 0)
(1.01302e-07 -2.06265e-09 0)
(1.0354e-07 -1.98754e-09 0)
(1.05809e-07 -1.89597e-09 0)
(1.08107e-07 -1.78541e-09 0)
(1.10431e-07 -1.65336e-09 0)
(1.12778e-07 -1.49677e-09 0)
(1.15144e-07 -1.31246e-09 0)
(1.17525e-07 -1.0966e-09 0)
(1.19917e-07 -8.44734e-10 0)
(1.22314e-07 -5.50922e-10 0)
(1.2471e-07 -2.06388e-10 0)
(1.27098e-07 2.01921e-10 0)
(8.15554e-08 -3.45621e-09 0)
(8.37248e-08 -3.33618e-09 0)
(8.59095e-08 -3.24238e-09 0)
(8.81139e-08 -3.16481e-09 0)
(9.03411e-08 -3.09537e-09 0)
(9.2593e-08 -3.02741e-09 0)
(9.48706e-08 -2.9558e-09 0)
(9.7174e-08 -2.87607e-09 0)
(9.95031e-08 -2.78453e-09 0)
(1.01857e-07 -2.67758e-09 0)
(1.04234e-07 -2.55196e-09 0)
(1.06633e-07 -2.40406e-09 0)
(1.09052e-07 -2.23034e-09 0)
(1.11488e-07 -2.02665e-09 0)
(1.13939e-07 -1.78874e-09 0)
(1.16402e-07 -1.51127e-09 0)
(1.18872e-07 -1.1883e-09 0)
(1.21346e-07 -8.11972e-10 0)
(1.23818e-07 -3.7077e-10 0)
(1.26281e-07 1.51449e-10 0)
(7.76282e-08 -4.78161e-09 0)
(8.0106e-08 -4.55395e-09 0)
(8.25664e-08 -4.37099e-09 0)
(8.50178e-08 -4.21964e-09 0)
(8.74671e-08 -4.08837e-09 0)
(8.99196e-08 -3.96752e-09 0)
(9.23793e-08 -3.84939e-09 0)
(9.4849e-08 -3.72738e-09 0)
(9.73304e-08 -3.596e-09 0)
(9.98248e-08 -3.45008e-09 0)
(1.02332e-07 -3.28496e-09 0)
(1.04853e-07 -3.09574e-09 0)
(1.07386e-07 -2.87767e-09 0)
(1.0993e-07 -2.62532e-09 0)
(1.12484e-07 -2.33312e-09 0)
(1.15045e-07 -1.99439e-09 0)
(1.17611e-07 -1.60153e-09 0)
(1.20177e-07 -1.14466e-09 0)
(1.22741e-07 -6.09693e-10 0)
(1.25295e-07 2.26177e-11 0)
(7.31577e-08 -6.3843e-09 0)
(7.59733e-08 -6.01123e-09 0)
(7.87392e-08 -5.70652e-09 0)
(8.14668e-08 -5.45386e-09 0)
(8.41664e-08 -5.23779e-09 0)
(8.68465e-08 -5.04496e-09 0)
(8.95138e-08 -4.86468e-09 0)
(9.21734e-08 -4.68765e-09 0)
(9.48297e-08 -4.50626e-09 0)
(9.74855e-08 -4.31334e-09 0)
(1.00143e-07 -4.10265e-09 0)
(1.02804e-07 -3.86765e-09 0)
(1.05469e-07 -3.60224e-09 0)
(1.08137e-07 -3.2995e-09 0)
(1.10809e-07 -2.95259e-09 0)
(1.13484e-07 -2.55313e-09 0)
(1.16159e-07 -2.09205e-09 0)
(1.18832e-07 -1.55738e-09 0)
(1.21501e-07 -9.32559e-10 0)
(1.24159e-07 -1.9432e-10 0)
(6.82515e-08 -8.26955e-09 0)
(7.14208e-08 -7.7148e-09 0)
(7.45111e-08 -7.25647e-09 0)
(7.75353e-08 -6.87501e-09 0)
(8.05062e-08 -6.5508e-09 0)
(8.34346e-08 -6.26626e-09 0)
(8.63295e-08 -6.00751e-09 0)
(8.91986e-08 -5.762e-09 0)
(9.2048e-08 -5.51984e-09 0)
(9.4883e-08 -5.27135e-09 0)
(9.77072e-08 -5.00861e-09 0)
(1.00524e-07 -4.72303e-09 0)
(1.03335e-07 -4.40719e-09 0)
(1.06142e-07 -4.0523e-09 0)
(1.08946e-07 -3.65026e-09 0)
(1.11747e-07 -3.19086e-09 0)
(1.14544e-07 -2.66359e-09 0)
(1.17336e-07 -2.05422e-09 0)
(1.2012e-07 -1.34419e-09 0)
(1.22895e-07 -5.05667e-10 0)
(6.30196e-08 -1.04264e-08 0)
(6.65469e-08 -9.65851e-09 0)
(6.99715e-08 -9.01675e-09 0)
(7.3304e-08 -8.48131e-09 0)
(7.65599e-08 -8.02573e-09 0)
(7.97504e-08 -7.63084e-09 0)
(8.28877e-08 -7.27679e-09 0)
(8.59802e-08 -6.95004e-09 0)
(8.90372e-08 -6.63565e-09 0)
(9.20648e-08 -6.32363e-09 0)
(9.50691e-08 -6.00165e-09 0)
(9.80544e-08 -5.66142e-09 0)
(1.01024e-07 -5.29136e-09 0)
(1.03982e-07 -4.88343e-09 0)
(1.06929e-07 -4.42533e-09 0)
(1.09867e-07 -3.90783e-09 0)
(1.12795e-07 -3.3157e-09 0)
(1.15716e-07 -2.63611e-09 0)
(1.18626e-07 -1.8443e-09 0)
(1.21528e-07 -9.17792e-10 0)
(5.75765e-08 -1.28286e-08 0)
(6.14638e-08 -1.18172e-08 0)
(6.52229e-08 -1.09685e-08 0)
(6.88679e-08 -1.02542e-08 0)
(7.24128e-08 -9.64855e-09 0)
(7.58728e-08 -9.12439e-09 0)
(7.92592e-08 -8.66195e-09 0)
(8.25844e-08 -8.24054e-09 0)
(8.58573e-08 -7.84571e-09 0)
(8.90871e-08 -7.4612e-09 0)
(9.22803e-08 -7.07581e-09 0)
(9.54436e-08 -6.67546e-09 0)
(9.85814e-08 -6.25044e-09 0)
(1.01698e-07 -5.78689e-09 0)
(1.04797e-07 -5.27505e-09 0)
(1.0788e-07 -4.69937e-09 0)
(1.10949e-07 -4.04758e-09 0)
(1.14006e-07 -3.29909e-09 0)
(1.17052e-07 -2.43672e-09 0)
(1.20091e-07 -1.43132e-09 0)
(5.36193e-08 -1.50536e-08 0)
(5.7742e-08 -1.38525e-08 0)
(6.17137e-08 -1.28416e-08 0)
(6.55581e-08 -1.1985e-08 0)
(6.92917e-08 -1.12512e-08 0)
(7.29284e-08 -1.06135e-08 0)
(7.64811e-08 -1.00485e-08 0)
(7.99609e-08 -9.53613e-09 0)
(8.33782e-08 -9.05854e-09 0)
(8.67417e-08 -8.60002e-09 0)
(9.00594e-08 -8.14606e-09 0)
(9.3338e-08 -7.68335e-09 0)
(9.65831e-08 -7.19889e-09 0)
(9.97997e-08 -6.68003e-09 0)
(1.02992e-07 -6.11357e-09 0)
(1.06164e-07 -5.48556e-09 0)
(1.09317e-07 -4.77976e-09 0)
(1.12455e-07 -3.97836e-09 0)
(1.15581e-07 -3.06134e-09 0)
(1.18701e-07 -2.00694e-09 0)
(5.1457e-08 -1.68344e-08 0)
(5.56059e-08 -1.55838e-08 0)
(5.96307e-08 -1.44962e-08 0)
(6.35388e-08 -1.35562e-08 0)
(6.73401e-08 -1.27378e-08 0)
(7.10455e-08 -1.20164e-08 0)
(7.46653e-08 -1.13702e-08 0)
(7.82093e-08 -1.07799e-08 0)
(8.16864e-08 -1.02282e-08 0)
(8.5105e-08 -9.69962e-09 0)
(8.84725e-08 -9.1797e-09 0)
(9.17955e-08 -8.65489e-09 0)
(9.50799e-08 -8.11222e-09 0)
(9.83309e-08 -7.53869e-09 0)
(1.01553e-07 -6.92123e-09 0)
(1.04751e-07 -6.24562e-09 0)
(1.07928e-07 -5.49554e-09 0)
(1.11087e-07 -4.65308e-09 0)
(1.14235e-07 -3.7026e-09 0)
(1.17375e-07 -2.62401e-09 0)
(4.95685e-08 -1.85277e-08 0)
(5.36977e-08 -1.72576e-08 0)
(5.77319e-08 -1.6121e-08 0)
(6.16677e-08 -1.5116e-08 0)
(6.55074e-08 -1.42255e-08 0)
(6.92567e-08 -1.34295e-08 0)
(7.2923e-08 -1.27086e-08 0)
(7.65136e-08 -1.20452e-08 0)
(8.0036e-08 -1.14229e-08 0)
(8.34975e-08 -1.08269e-08 0)
(8.69048e-08 -1.02431e-08 0)
(9.02641e-08 -9.65814e-09 0)
(9.35812e-08 -9.05916e-09 0)
(9.68614e-08 -8.43337e-09 0)
(1.0011e-07 -7.76774e-09 0)
(1.03331e-07 -7.04838e-09 0)
(1.06529e-07 -6.25912e-09 0)
(1.09709e-07 -5.38286e-09 0)
(1.12875e-07 -4.40507e-09 0)
(1.16036e-07 -3.31081e-09 0)
(4.79198e-08 -2.01408e-08 0)
(5.20075e-08 -1.88667e-08 0)
(5.60217e-08 -1.77013e-08 0)
(5.99557e-08 -1.66489e-08 0)
(6.3807e-08 -1.56999e-08 0)
(6.75768e-08 -1.48395e-08 0)
(7.12691e-08 -1.40519e-08 0)
(7.48888e-08 -1.33214e-08 0)
(7.84416e-08 -1.26333e-08 0)
(8.19333e-08 -1.19737e-08 0)
(8.53697e-08 -1.13291e-08 0)
(8.87564e-08 -1.06869e-08 0)
(9.20989e-08 -1.00344e-08 0)
(9.54024e-08 -9.35937e-09 0)
(9.86721e-08 -8.6491e-09 0)
(1.01913e-07 -7.89019e-09 0)
(1.05129e-07 -7.06692e-09 0)
(1.08327e-07 -6.16279e-09 0)
(1.11512e-07 -5.16592e-09 0)
(1.1469e-07 -4.06231e-09 0)
(4.64733e-08 -2.16779e-08 0)
(5.05073e-08 -2.04092e-08 0)
(5.44837e-08 -1.92284e-08 0)
(5.83954e-08 -1.81431e-08 0)
(6.22374e-08 -1.71485e-08 0)
(6.60082e-08 -1.62345e-08 0)
(6.97088e-08 -1.53888e-08 0)
(7.33419e-08 -1.45984e-08 0)
(7.69112e-08 -1.38502e-08 0)
(8.04212e-08 -1.31318e-08 0)
(8.38766e-08 -1.24306e-08 0)
(8.72822e-08 -1.17348e-08 0)
(9.0643e-08 -1.10325e-08 0)
(9.3964e-08 -1.03118e-08 0)
(9.72502e-08 -9.56089e-09 0)
(1.00507e-07 -8.76692e-09 0)
(1.03739e-07 -7.91493e-09 0)
(1.06953e-07 -6.9894e-09 0)
(1.10152e-07 -5.97936e-09 0)
(1.13349e-07 -4.87427e-09 0)
(4.5198e-08 -2.31424e-08 0)
(4.91701e-08 -2.18858e-08 0)
(5.30976e-08 -2.06992e-08 0)
(5.69732e-08 -1.9592e-08 0)
(6.07911e-08 -1.85629e-08 0)
(6.45478e-08 -1.76054e-08 0)
(6.82424e-08 -1.67104e-08 0)
(7.18757e-08 -1.58674e-08 0)
(7.54497e-08 -1.50656e-08 0)
(7.89675e-08 -1.42938e-08 0)
(8.24327e-08 -1.35409e-08 0)
(8.58494e-08 -1.27959e-08 0)
(8.92219e-08 -1.20479e-08 0)
(9.25549e-08 -1.12858e-08 0)
(9.58532e-08 -1.04986e-08 0)
(9.9122e-08 -9.67427e-09 0)
(1.02367e-07 -8.79876e-09 0)
(1.05593e-07 -7.85745e-09 0)
(1.08808e-07 -6.84145e-09 0)
(1.12018e-07 -5.74128e-09 0)
(4.40651e-08 -2.45395e-08 0)
(4.79712e-08 -2.32991e-08 0)
(5.18433e-08 -2.21135e-08 0)
(5.56743e-08 -2.09927e-08 0)
(5.94577e-08 -1.99381e-08 0)
(6.31894e-08 -1.89459e-08 0)
(6.6867e-08 -1.80098e-08 0)
(7.049e-08 -1.71217e-08 0)
(7.4059e-08 -1.62727e-08 0)
(7.75758e-08 -1.54533e-08 0)
(8.10431e-08 -1.46539e-08 0)
(8.4464e-08 -1.38646e-08 0)
(8.78424e-08 -1.30754e-08 0)
(9.11824e-08 -1.22765e-08 0)
(9.44886e-08 -1.14576e-08 0)
(9.77662e-08 -1.06078e-08 0)
(1.0102e-07 -9.71396e-09 0)
(1.04258e-07 -8.76272e-09 0)
(1.07483e-07 -7.7462e-09 0)
(1.10707e-07 -6.65817e-09 0)
(4.30511e-08 -2.58744e-08 0)
(4.68893e-08 -2.46529e-08 0)
(5.07026e-08 -2.34728e-08 0)
(5.44835e-08 -2.23448e-08 0)
(5.82259e-08 -2.12718e-08 0)
(6.19251e-08 -2.02524e-08 0)
(6.55778e-08 -1.92824e-08 0)
(6.91825e-08 -1.83561e-08 0)
(7.27388e-08 -1.74663e-08 0)
(7.62476e-08 -1.66052e-08 0)
(7.97106e-08 -1.57646e-08 0)
(8.31301e-08 -1.4936e-08 0)
(8.65094e-08 -1.41105e-08 0)
(8.98521e-08 -1.32793e-08 0)
(9.31627e-08 -1.24335e-08 0)
(9.64459e-08 -1.1563e-08 0)
(9.97071e-08 -1.06559e-08 0)
(1.02952e-07 -9.69995e-09 0)
(1.06189e-07 -8.68917e-09 0)
(1.09423e-07 -7.61877e-09 0)
(4.21346e-08 -2.71531e-08 0)
(4.59055e-08 -2.59516e-08 0)
(4.96584e-08 -2.478e-08 0)
(5.33867e-08 -2.36492e-08 0)
(5.70841e-08 -2.25634e-08 0)
(6.07458e-08 -2.1523e-08 0)
(6.43683e-08 -2.05256e-08 0)
(6.79491e-08 -1.95672e-08 0)
(7.14872e-08 -1.86426e-08 0)
(7.49827e-08 -1.77454e-08 0)
(7.84363e-08 -1.68689e-08 0)
(8.185e-08 -1.60059e-08 0)
(8.52263e-08 -1.51489e-08 0)
(8.85683e-08 -1.42902e-08 0)
(9.18801e-08 -1.3422e-08 0)
(9.51663e-08 -1.25356e-08 0)
(9.84322e-08 -1.16202e-08 0)
(1.01684e-07 -1.06647e-08 0)
(1.04927e-07 -9.6644e-09 0)
(1.08172e-07 -8.61735e-09 0)
(4.12981e-08 -2.83812e-08 0)
(4.50028e-08 -2.71999e-08 0)
(4.86956e-08 -2.60386e-08 0)
(5.23702e-08 -2.49082e-08 0)
(5.60207e-08 -2.38139e-08 0)
(5.96423e-08 -2.27575e-08 0)
(6.32311e-08 -2.17381e-08 0)
(6.67844e-08 -2.07532e-08 0)
(7.03006e-08 -1.97991e-08 0)
(7.3779e-08 -1.88711e-08 0)
(7.722e-08 -1.79638e-08 0)
(8.06246e-08 -1.70712e-08 0)
(8.39949e-08 -1.61872e-08 0)
(8.73335e-08 -1.53055e-08 0)
(9.06442e-08 -1.44194e-08 0)
(9.39312e-08 -1.35216e-08 0)
(9.71998e-08 -1.26024e-08 0)
(1.00456e-07 -1.1652e-08 0)
(1.03706e-07 -1.06673e-08 0)
(1.06958e-07 -9.64773e-09 0)
(4.05246e-08 -2.95645e-08 0)
(4.41656e-08 -2.84027e-08 0)
(4.77998e-08 -2.72524e-08 0)
(5.14212e-08 -2.61246e-08 0)
(5.50244e-08 -2.50251e-08 0)
(5.86048e-08 -2.39566e-08 0)
(6.21584e-08 -2.29197e-08 0)
(6.56822e-08 -2.19131e-08 0)
(6.91743e-08 -2.09345e-08 0)
(7.26336e-08 -1.99805e-08 0)
(7.60598e-08 -1.90469e-08 0)
(7.94534e-08 -1.81292e-08 0)
(8.28158e-08 -1.72226e-08 0)
(8.61494e-08 -1.63219e-08 0)
(8.94572e-08 -1.54221e-08 0)
(9.27434e-08 -1.4517e-08 0)
(9.60131e-08 -1.35984e-08 0)
(9.9272e-08 -1.26575e-08 0)
(1.02526e-07 -1.16923e-08 0)
(1.05785e-07 -1.07044e-08 0)
(3.97998e-08 -3.07083e-08 0)
(4.338e-08 -2.95647e-08 0)
(4.69575e-08 -2.84256e-08 0)
(5.05272e-08 -2.73017e-08 0)
(5.4084e-08 -2.61993e-08 0)
(5.76233e-08 -2.5122e-08 0)
(6.11415e-08 -2.40714e-08 0)
(6.46354e-08 -2.30472e-08 0)
(6.81028e-08 -2.20484e-08 0)
(7.15421e-08 -2.10726e-08 0)
(7.49527e-08 -2.0117e-08 0)
(7.83345e-08 -1.91783e-08 0)
(8.16884e-08 -1.82528e-08 0)
(8.50161e-08 -1.7337e-08 0)
(8.83203e-08 -1.6427e-08 0)
(9.16047e-08 -1.55183e-08 0)
(9.4874e-08 -1.46039e-08 0)
(9.81339e-08 -1.36764e-08 0)
(1.01392e-07 -1.2735e-08 0)
(1.04654e-07 -1.1782e-08 0)
(3.91097e-08 -3.18175e-08 0)
(4.26324e-08 -3.06906e-08 0)
(4.61561e-08 -2.95622e-08 0)
(4.96763e-08 -2.84428e-08 0)
(5.31883e-08 -2.73393e-08 0)
(5.6688e-08 -2.62558e-08 0)
(6.01717e-08 -2.51945e-08 0)
(6.36364e-08 -2.41565e-08 0)
(6.70796e-08 -2.31413e-08 0)
(7.04995e-08 -2.21476e-08 0)
(7.3895e-08 -2.11738e-08 0)
(7.72654e-08 -2.02175e-08 0)
(8.06112e-08 -1.92766e-08 0)
(8.39333e-08 -1.83486e-08 0)
(8.72339e-08 -1.74315e-08 0)
(9.05161e-08 -1.65221e-08 0)
(9.37846e-08 -1.56152e-08 0)
(9.7045e-08 -1.47046e-08 0)
(1.00303e-07 -1.37903e-08 0)
(1.0357e-07 -1.28757e-08 0)
(3.84422e-08 -3.28966e-08 0)
(4.19105e-08 -3.17844e-08 0)
(4.53835e-08 -3.0666e-08 0)
(4.88568e-08 -2.95516e-08 0)
(5.23265e-08 -2.84481e-08 0)
(5.57888e-08 -2.73604e-08 0)
(5.92401e-08 -2.62914e-08 0)
(6.26774e-08 -2.52425e-08 0)
(6.60982e-08 -2.42143e-08 0)
(6.95003e-08 -2.32062e-08 0)
(7.28822e-08 -2.22175e-08 0)
(7.62429e-08 -2.12469e-08 0)
(7.95821e-08 -2.02932e-08 0)
(8.29e-08 -1.93557e-08 0)
(8.61981e-08 -1.84335e-08 0)
(8.94789e-08 -1.75256e-08 0)
(9.27463e-08 -1.66284e-08 0)
(9.60059e-08 -1.57374e-08 0)
(9.92662e-08 -1.48539e-08 0)
(1.02533e-07 -1.39813e-08 0)
(3.77842e-08 -3.39496e-08 0)
(4.12019e-08 -3.28504e-08 0)
(4.46276e-08 -3.1741e-08 0)
(4.80575e-08 -3.06314e-08 0)
(5.14881e-08 -2.9529e-08 0)
(5.49159e-08 -2.84389e-08 0)
(5.83377e-08 -2.73644e-08 0)
(6.17505e-08 -2.63075e-08 0)
(6.51516e-08 -2.52693e-08 0)
(6.85387e-08 -2.425e-08 0)
(7.19098e-08 -2.32494e-08 0)
(7.52635e-08 -2.22671e-08 0)
(7.85987e-08 -2.13032e-08 0)
(8.19151e-08 -2.03578e-08 0)
(8.52132e-08 -1.9432e-08 0)
(8.84944e-08 -1.85266e-08 0)
(9.17621e-08 -1.76403e-08 0)
(9.50218e-08 -1.67709e-08 0)
(9.82802e-08 -1.5921e-08 0)
(1.01549e-07 -1.50947e-08 0)
(3.71239e-08 -3.49803e-08 0)
(4.04947e-08 -3.38922e-08 0)
(4.38769e-08 -3.27908e-08 0)
(4.72672e-08 -3.1686e-08 0)
(5.06626e-08 -3.05854e-08 0)
(5.40599e-08 -2.94944e-08 0)
(5.74561e-08 -2.84166e-08 0)
(6.08482e-08 -2.73544e-08 0)
(6.42334e-08 -2.6309e-08 0)
(6.76091e-08 -2.52813e-08 0)
(7.0973e-08 -2.42715e-08 0)
(7.43234e-08 -2.32801e-08 0)
(7.76586e-08 -2.23077e-08 0)
(8.09775e-08 -2.13558e-08 0)
(8.42796e-08 -2.04267e-08 0)
(8.7565e-08 -1.95235e-08 0)
(9.08356e-08 -1.86477e-08 0)
(9.40958e-08 -1.78003e-08 0)
(9.73552e-08 -1.69867e-08 0)
(1.00622e-07 -1.62117e-08 0)
(3.6448e-08 -3.59922e-08 0)
(3.97759e-08 -3.49136e-08 0)
(4.31188e-08 -3.38191e-08 0)
(4.64742e-08 -3.27191e-08 0)
(4.98392e-08 -3.16211e-08 0)
(5.3211e-08 -3.05308e-08 0)
(5.65866e-08 -2.94516e-08 0)
(5.99628e-08 -2.83864e-08 0)
(6.33367e-08 -2.73364e-08 0)
(6.67055e-08 -2.6303e-08 0)
(7.00669e-08 -2.52865e-08 0)
(7.34184e-08 -2.42882e-08 0)
(7.67583e-08 -2.33091e-08 0)
(8.00848e-08 -2.23516e-08 0)
(8.33965e-08 -2.1419e-08 0)
(8.66921e-08 -2.05165e-08 0)
(8.99715e-08 -1.96484e-08 0)
(9.32372e-08 -1.8821e-08 0)
(9.64953e-08 -1.80452e-08 0)
(9.97615e-08 -1.73278e-08 0)
(3.57416e-08 -3.69886e-08 0)
(3.90304e-08 -3.5918e-08 0)
(4.23388e-08 -3.48298e-08 0)
(4.56647e-08 -3.37347e-08 0)
(4.90054e-08 -3.26403e-08 0)
(5.23579e-08 -3.15521e-08 0)
(5.57188e-08 -3.04736e-08 0)
(5.90849e-08 -2.94075e-08 0)
(6.2453e-08 -2.83554e-08 0)
(6.58203e-08 -2.73184e-08 0)
(6.91839e-08 -2.62978e-08 0)
(7.25417e-08 -2.52945e-08 0)
(7.58915e-08 -2.43105e-08 0)
(7.92314e-08 -2.33482e-08 0)
(8.25596e-08 -2.2412e-08 0)
(8.58738e-08 -2.15076e-08 0)
(8.91716e-08 -2.06425e-08 0)
(9.2451e-08 -1.98293e-08 0)
(9.57155e-08 -1.90893e-08 0)
(9.8977e-08 -1.8439e-08 0)
(3.49831e-08 -3.79727e-08 0)
(3.82365e-08 -3.69087e-08 0)
(4.15162e-08 -3.58268e-08 0)
(4.48196e-08 -3.47373e-08 0)
(4.81436e-08 -3.36478e-08 0)
(5.14843e-08 -3.25632e-08 0)
(5.4838e-08 -3.14871e-08 0)
(5.82008e-08 -3.04219e-08 0)
(6.15693e-08 -2.93696e-08 0)
(6.49406e-08 -2.83314e-08 0)
(6.83118e-08 -2.73086e-08 0)
(7.16808e-08 -2.63025e-08 0)
(7.50455e-08 -2.53153e-08 0)
(7.84045e-08 -2.43496e-08 0)
(8.1756e-08 -2.34099e-08 0)
(8.50982e-08 -2.2502e-08 0)
(8.84281e-08 -2.16343e-08 0)
(9.17412e-08 -2.08245e-08 0)
(9.50298e-08 -2.01117e-08 0)
(9.8296e-08 -1.95397e-08 0)
(3.41413e-08 -3.89457e-08 0)
(3.73644e-08 -3.78889e-08 0)
(4.0624e-08 -3.68146e-08 0)
(4.39151e-08 -3.57326e-08 0)
(4.72324e-08 -3.46493e-08 0)
(5.05711e-08 -3.35697e-08 0)
(5.39263e-08 -3.24972e-08 0)
(5.72938e-08 -3.14345e-08 0)
(6.06698e-08 -3.03835e-08 0)
(6.40512e-08 -2.93457e-08 0)
(6.74352e-08 -2.83224e-08 0)
(7.082e-08 -2.73153e-08 0)
(7.4204e-08 -2.63265e-08 0)
(7.75864e-08 -2.53592e-08 0)
(8.09664e-08 -2.44176e-08 0)
(8.43439e-08 -2.35068e-08 0)
(8.77197e-08 -2.26342e-08 0)
(9.10938e-08 -2.18206e-08 0)
(9.44608e-08 -2.11156e-08 0)
(9.78001e-08 -2.06148e-08 0)
(2.33965e-09 -3.53228e-08 0)
(7.04812e-09 -3.48186e-08 0)
(1.18224e-08 -3.37565e-08 0)
(1.66997e-08 -3.22085e-08 0)
(2.17063e-08 -3.02438e-08 0)
(2.68564e-08 -2.79407e-08 0)
(3.21498e-08 -2.53859e-08 0)
(3.7572e-08 -2.26691e-08 0)
(4.30956e-08 -1.98779e-08 0)
(4.86801e-08 -1.70936e-08 0)
(2.27734e-09 -3.56917e-08 0)
(6.85437e-09 -3.52359e-08 0)
(1.14844e-08 -3.4271e-08 0)
(1.61979e-08 -3.28594e-08 0)
(2.10168e-08 -3.1061e-08 0)
(2.59523e-08 -2.8943e-08 0)
(3.10046e-08 -2.65797e-08 0)
(3.61618e-08 -2.4049e-08 0)
(4.14015e-08 -2.14288e-08 0)
(4.66898e-08 -1.87988e-08 0)
(2.22228e-09 -3.60909e-08 0)
(6.68445e-09 -3.56761e-08 0)
(1.11888e-08 -3.47954e-08 0)
(1.57603e-08 -3.35036e-08 0)
(2.04165e-08 -3.18526e-08 0)
(2.51663e-08 -2.9901e-08 0)
(3.00096e-08 -2.77131e-08 0)
(3.49365e-08 -2.5357e-08 0)
(3.99281e-08 -2.29024e-08 0)
(4.4956e-08 -2.0422e-08 0)
(2.17317e-09 -3.65192e-08 0)
(6.53357e-09 -3.61397e-08 0)
(1.09274e-08 -3.53321e-08 0)
(1.53749e-08 -3.41452e-08 0)
(1.989e-08 -3.26246e-08 0)
(2.44797e-08 -3.08216e-08 0)
(2.9143e-08 -2.87929e-08 0)
(3.38715e-08 -2.65984e-08 0)
(3.86487e-08 -2.43001e-08 0)
(4.34492e-08 -2.19641e-08 0)
(2.12866e-09 -3.69757e-08 0)
(6.39738e-09 -3.66266e-08 0)
(1.06927e-08 -3.58828e-08 0)
(1.50307e-08 -3.47879e-08 0)
(1.94225e-08 -3.33826e-08 0)
(2.3873e-08 -3.17123e-08 0)
(2.83809e-08 -2.98273e-08 0)
(3.29384e-08 -2.7781e-08 0)
(3.75306e-08 -2.56286e-08 0)
(4.21351e-08 -2.34293e-08 0)
(2.08773e-09 -3.7459e-08 0)
(6.27246e-09 -3.71364e-08 0)
(1.04784e-08 -3.64483e-08 0)
(1.47184e-08 -3.54343e-08 0)
(1.9001e-08 -3.4131e-08 0)
(2.33297e-08 -3.2579e-08 0)
(2.77026e-08 -3.08235e-08 0)
(3.21122e-08 -2.8912e-08 0)
(3.65453e-08 -2.68942e-08 0)
(4.0981e-08 -2.48231e-08 0)
(2.04945e-09 -3.79676e-08 0)
(6.15604e-09 -3.76682e-08 0)
(1.02797e-08 -3.7029e-08 0)
(1.44307e-08 -3.60864e-08 0)
(1.86156e-08 -3.48734e-08 0)
(2.28366e-08 -3.34269e-08 0)
(2.70913e-08 -3.17876e-08 0)
(3.13726e-08 -2.99983e-08 0)
(3.56682e-08 -2.81038e-08 0)
(3.99593e-08 -2.61515e-08 0)
(2.01317e-09 -3.85001e-08 0)
(6.04589e-09 -3.82211e-08 0)
(1.00926e-08 -3.7625e-08 0)
(1.41616e-08 -3.67454e-08 0)
(1.82578e-08 -3.56126e-08 0)
(2.23826e-08 -3.42602e-08 0)
(2.6533e-08 -3.27251e-08 0)
(3.07023e-08 -3.10463e-08 0)
(3.4879e-08 -2.9264e-08 0)
(3.90459e-08 -2.7421e-08 0)
(1.9782e-09 -3.90548e-08 0)
(5.94015e-09 -3.87938e-08 0)
(9.91388e-09 -3.82359e-08 0)
(1.39062e-08 -3.74124e-08 0)
(1.79209e-08 -3.6351e-08 0)
(2.19586e-08 -3.50825e-08 0)
(2.60161e-08 -3.36408e-08 0)
(3.00869e-08 -3.20616e-08 0)
(3.41604e-08 -3.03812e-08 0)
(3.82208e-08 -2.86382e-08 0)
(1.94411e-09 -3.96302e-08 0)
(5.8372e-09 -3.93851e-08 0)
(9.74061e-09 -3.88613e-08 0)
(1.36601e-08 -3.80877e-08 0)
(1.75988e-08 -3.70901e-08 0)
(2.15566e-08 -3.58967e-08 0)
(2.55306e-08 -3.4539e-08 0)
(2.95142e-08 -3.30494e-08 0)
(3.34975e-08 -3.14612e-08 0)
(3.74663e-08 -2.98093e-08 0)
(1.91033e-09 -4.02245e-08 0)
(5.73558e-09 -3.99937e-08 0)
(9.57032e-09 -3.95004e-08 0)
(1.34197e-08 -3.87715e-08 0)
(1.72863e-08 -3.78311e-08 0)
(2.117e-08 -3.67052e-08 0)
(2.50677e-08 -3.54229e-08 0)
(2.89732e-08 -3.40142e-08 0)
(3.28773e-08 -3.25094e-08 0)
(3.6767e-08 -3.09402e-08 0)
(1.87653e-09 -4.08359e-08 0)
(5.63397e-09 -4.0618e-08 0)
(9.40061e-09 -4.01521e-08 0)
(1.31814e-08 -3.94637e-08 0)
(1.69786e-08 -3.85747e-08 0)
(2.07922e-08 -3.75098e-08 0)
(2.46193e-08 -3.62955e-08 0)
(2.8454e-08 -3.49597e-08 0)
(3.22878e-08 -3.35304e-08 0)
(3.61086e-08 -3.20362e-08 0)
(1.84218e-09 -4.14627e-08 0)
(5.53106e-09 -4.12563e-08 0)
(9.22936e-09 -4.08154e-08 0)
(1.2942e-08 -4.01636e-08 0)
(1.66713e-08 -3.93214e-08 0)
(2.04176e-08 -3.83116e-08 0)
(2.41781e-08 -3.7159e-08 0)
(2.79477e-08 -3.58892e-08 0)
(3.17182e-08 -3.45282e-08 0)
(3.54789e-08 -3.3102e-08 0)
(1.80699e-09 -4.21025e-08 0)
(5.42564e-09 -4.19068e-08 0)
(9.05437e-09 -4.14888e-08 0)
(1.26982e-08 -4.08705e-08 0)
(1.636e-08 -4.0071e-08 0)
(2.00402e-08 -3.91115e-08 0)
(2.37369e-08 -3.8015e-08 0)
(2.74453e-08 -3.68053e-08 0)
(3.11582e-08 -3.55063e-08 0)
(3.48656e-08 -3.4142e-08 0)
(1.77042e-09 -4.27534e-08 0)
(5.31655e-09 -4.25677e-08 0)
(8.8736e-09 -4.21708e-08 0)
(1.24472e-08 -4.15834e-08 0)
(1.60405e-08 -4.08232e-08 0)
(1.96548e-08 -3.99099e-08 0)
(2.32887e-08 -3.88649e-08 0)
(2.69386e-08 -3.77102e-08 0)
(3.05978e-08 -3.64678e-08 0)
(3.42573e-08 -3.51599e-08 0)
(1.73226e-09 -4.34129e-08 0)
(5.20256e-09 -4.32365e-08 0)
(8.68497e-09 -4.28595e-08 0)
(1.21856e-08 -4.23008e-08 0)
(1.57084e-08 -4.1577e-08 0)
(1.92554e-08 -4.07066e-08 0)
(2.28266e-08 -3.97093e-08 0)
(2.6419e-08 -3.86055e-08 0)
(3.0027e-08 -3.74153e-08 0)
(3.36422e-08 -3.6159e-08 0)
(1.69191e-09 -4.40785e-08 0)
(5.08233e-09 -4.3911e-08 0)
(8.48614e-09 -4.35528e-08 0)
(1.191e-08 -4.3021e-08 0)
(1.5359e-08 -4.23314e-08 0)
(1.88362e-08 -4.1501e-08 0)
(2.23428e-08 -4.05486e-08 0)
(2.5877e-08 -3.94924e-08 0)
(2.94346e-08 -3.83509e-08 0)
(3.30081e-08 -3.71423e-08 0)
(1.64918e-09 -4.47465e-08 0)
(4.95463e-09 -4.45883e-08 0)
(8.27427e-09 -4.4248e-08 0)
(1.16161e-08 -4.37417e-08 0)
(1.49864e-08 -4.30843e-08 0)
(1.83896e-08 -4.2292e-08 0)
(2.18281e-08 -4.13821e-08 0)
(2.53017e-08 -4.03714e-08 0)
(2.88076e-08 -3.92761e-08 0)
(3.23398e-08 -3.81126e-08 0)
(1.60457e-09 -4.54137e-08 0)
(4.81832e-09 -4.52648e-08 0)
(8.04637e-09 -4.49415e-08 0)
(1.1299e-08 -4.44595e-08 0)
(1.45842e-08 -4.3833e-08 0)
(1.79075e-08 -4.30773e-08 0)
(2.12724e-08 -4.22084e-08 0)
(2.468e-08 -4.12418e-08 0)
(2.81292e-08 -4.01916e-08 0)
(3.16164e-08 -3.90718e-08 0)
(1.56275e-09 -4.60771e-08 0)
(4.67552e-09 -4.59366e-08 0)
(7.80376e-09 -4.56295e-08 0)
(1.09602e-08 -4.5171e-08 0)
(1.41537e-08 -4.45746e-08 0)
(1.73903e-08 -4.38545e-08 0)
(2.06741e-08 -4.30253e-08 0)
(2.4007e-08 -4.21013e-08 0)
(2.73886e-08 -4.10953e-08 0)
(3.08186e-08 -4.00199e-08 0)
)
;

boundaryField
{
    left
    {
        type            symmetryPlane;
    }
    right
    {
        type            tractionDisplacement;
        traction        uniform (10000 0 0);
        pressure        uniform 0;
        value           nonuniform List<vector> 
30
(
(1.29471e-07 5.37131e-11 -7.84455e-26)
(1.29287e-07 2.2158e-10 -1.11844e-25)
(1.28885e-07 3.56925e-10 3.3724e-26)