/*--------------------------------*- C++ -*----------------------------------*\
| =========                 |                                                 |
| \\      /  F ield         | OpenFOAM: The Open Source CFD Toolbox           |
|  \\    /   O peration     | Version:  2.3.0                                 |
|   \\  /    A nd           | Web:      www.OpenFOAM.org                      |
|    \\/     M anipulation  |                                                 |
\*---------------------------------------------------------------------------*/
FoamFile
{
    version     2.0;
    format      ascii;
    class       volScalarField;
    location    "20";
    object      sigmaEq;
}
// * * * * * * * * * * * * * * * * * * * * * * * * * * * * * * * * * * * * * //

dimensions      [1 -1 -2 0 0 0 0];

internalField   nonuniform List<scalar> 
1000
(
10414.4
11143
12312.8
13071.3
13459.2
13598
13580.8
13470.9
13313.8
13097.2
12965.9
12555.9
13072.4
13500
13708.7
13742.6
13659.4
13505.1
13317.3
13065.8
15429.4
13965.6
13781.9
13819.5
13809.2
13716.1
13558.1
13360.7
13149.9
12897.7
17738.9
15309.4
14427.6
14041.9
13785
13548.6
13309.5
13069.3
12838.3
12588.4
19842.7
16547.9
14998.7
14182.9
13664.2
13273.8
12947.3
12661.1
12408.9
12160.7
21689
17639.2
15487.2
14259.1
13479.1
12929.9
12511.8
12176.6
11901.2
11653.6
23242.1
18557.3
15885.6
14288.3
13263.8
12561.6
12052.6
11667.6
11368.3
11119.9
24456.8
19272
16190.4
14288.7
13054.9
12217.2
11626
11195.1
10873.5
10623.4
25288.2
19762.2
16394.3
14273.3
12884.4
11944.2
11289.5
10822.8
10484.2
10233.4
25692.3
20019
16479.8
14231.2
12755.2
11758.1
11068.7
10583
10237
9989.26
8080.42
5163.61
3625.35
3003.72
2918.38
3120.45
3457.24
3846.53
4246.56
4636.93
7836.19
5111.64
4053.94
3812.97
3901.45
4124.08
4406.51
4714.21
5027.51
5334.5
7056.58
5068.28
4783.22
4995.81
5269.55
5526.43
5765.1
5991.47
6207.64
6415.71
5902.5
5080.75
5678.05
6289.31
6716.95
7008.86
7219.64
7383.95
7520.19
7642.19
4453.54
5246.65
6658.6
7581.31
8126.38
8444.9
8633.44
8747.71
8818.49
8867.93
2899.94
5665.9
7675.79
8812.41
9435.38
9766.75
9932.11
10002.2
10017
10004.1
1985.11
6360.91
8695.39
9943.96
10603.5
10931.3
11069.5
11097.9
11063
10995.7
3135.92
7319.02
9680.54
10945.9
11601.6
11910.1
12017
12005.7
11927
11811.7
5338.99
8468.44
10613.5
11800.9
12412.3
12685.6
12758.2
12712
12598.1
12443.2
7838.88
9767.77
11495
12509.3
13031.4
13249.9
13284.4
13210
13071.8
12918.7
4997.69
5330.33
5631.78
5904.01
6148.82
6367.83
6562.31
6733.36
6881.57
7007.47
7110.9
7191.78
7249.13
7282.35
7289.73
7269.67
7219.36
7135.68
7018.36
6889.79
5583.79
5795.8
6005.8
6207.53
6397.09
6572.11
6731.24
6873.49
6998.2
7104.63
7192.06
7259.6
7306.18
7330.47
7331.18
7306.45
7253.87
7169.29
7046.78
6887.52
6528.57
6588.01
6667.66
6760.55
6859.99
6960.58
7058.19
7149.43
7231.69
7302.7
7360.52
7403.29
7429.28
7436.75
7423.85
7388.32
7327.44
7235.92
7107.34
6938.89
7629.21
7542.59
7488.97
7464.69
7462.35
7475.38
7498.08
7525.49
7553.43
7578.29
7596.93
7606.59
7604.74
7588.92
7556.89
7505.96
7432.68
7331.91
7198.66
7021.63
8749.27
8540.51
8368.03
8235.08
8134.56
8059.91
8005.07
7964.47
7933.12
7906.59
7880.89
7852.51
7818.23
7775.23
7720.63
7651.4
7564.27
7454.29
7317.41
7131.89
9802.11
9502.03
9232.96
9008.21
8821.53
8667.04
8539.27
8432.84
8342.74
8264.2
8192.88
8124.81
8056.44
7984.4
7905.81
7817.58
7716.34
7597.69
7458.62
7267.18
10733.1
10374.9
10035.1
9739.33
9482.71
9260.52
9068.81
8902.86
8758.4
8630.64
8515.51
8408.68
8306.69
8205.99
8103.67
7996.4
7881.51
7755.04
7614.79
7423.89
11509
11126.2
10741.1
10396.8
10087.1
9812.04
9567.14
9351.23
9158.8
8987.72
8832.28
8690.37
8556.69
8429.65
8304.51
8180.11
8051.8
7918.68
7777.43
7601.33
12111.3
11728
11322.6
10947.7
10604.2
10290.4
10007.2
9751.39
9521.9
9314.11
9126.18
8953.22
8793.55
8642.59
8499.19
8358.85
8220.95
8081.1
7948.52
7798.75
12559.3
12176.6
11760.4
11372.3
11011.4
10676.7
10369.1
10087.5
9830.96
9596.9
9383.38
9187.16
9006.14
8837.28
8678.84
8527.74
8382.69
8244.7
8123.14
8007.65
12910
12447.7
12025.9
11636.4
11270.7
10930.2
10613
10320.6
10050.6
9803.08
9574.92
9365.6
9171.64
8992.77
8825.69
8670.51
8524.38
8391.22
8282.01
8209.65
12639.4
12390.2
12050.9
11706.6
11370.2
11047.7
10742
10454.8
10186.5
9937.03
9705.72
9491.54
9293.49
9110.54
8942.01
8786.95
8645.15
8521.63
8424.65
8365.93
12366.5
12209.7
11955.8
11671.4
11376.5
11083.2
10798.2
10525.3
10266.4
10022.8
9794.83
9582.52
9385.69
9204.35
9038.51
8888.45
8755.09
8641.8
8559.63
8515.23
12095
11990.1
11799.2
11570.6
11320.1
11060.9
10801.8
10548.4
10304.1
10071.3
9851.43
9645.44
9454.12
9278.2
9118.67
8976.37
8852.89
8754.1
8685.52
8653.59
11821.9
11754.4
11609.2
11426.7
11217.5
10993
10762
10531.2
10305
10086.6
9878.53
9682.49
9500.08
9332.82
9182.36
9050.39
8939.38
8852.85
8800.26
8784.07
11551.6
11511.7
11402
11256.7
11083.5
10891.5
10688.7
10481.7
10275.5
10073.9
9880.19
9696.74
9525.82
9369.63
9230.44
9110.36
9012.03
8941.59
8903.31
8901.27
11287.7
11269.7
11188
11072.8
10930.2
10767.4
10591.2
10407.8
10222.2
10038.8
9860.94
9691.78
9534.1
9390.63
9264.11
9157.26
9073.32
9015.94
8994.03
9008.26
11034.3
11032.5
10973.4
10883.1
10766.5
10629.3
10477.6
10316.7
10151.6
9986.58
9825.37
9671.41
9527.92
9398.1
9285.1
9191.88
9121.69
9080.7
9072.65
9100.07
10793.1
10804
10763
10693.2
10598.7
10484.1
10354.5
10214.7
10069.4
9922.48
9777.96
9639.43
9510.42
9394.48
9295.1
9215.76
9160.18
9131.82
9139.06
9180.67
10565.7
10585.5
10559.5
10507.1
10431.6
10336.9
10227.4
10107.2
9980.47
9851.13
9722.91
9599.53
9484.71
9382.28
9296.14
9229.93
9187.35
9174.37
9193.72
9245.94
10352.4
10379.2
10365.4
10327.6
10268.7
10191.7
10100.4
9998.44
9889.36
9776.76
9664.19
9555.3
9453.92
9364.1
9290.05
9236.02
9206.28
9204.06
9236.81
9300.91
10153.4
10185.3
10181.7
10156.7
10112.4
10051.6
9977.13
9892.18
9799.81
9703.16
9605.48
9510.25
9421.24
9342.67
9279.12
9235.22
9215.47
9226.13
9268.9
9341.98
9967.98
10004.3
10009.4
9995.72
9964.79
9918.86
9860.26
9791.52
9715.15
9633.82
9550.33
9467.88
9390.04
9321.07
9265.78
9229.67
9218.41
9236.17
9290.29
9374.8
9795.8
9835.41
9848.82
9845.64
9827.37
9795.62
9752.32
9699.24
9638.45
9571.94
9502.18
9431.75
9364.01
9302.86
9253.45
9221.62
9214.26
9239.95
9301.64
9395.41
9635.88
9679.59
9700.75
9707.73
9701.75
9683.98
9655.67
9618.04
9572.51
9520.63
9464.24
9405.49
9347.09
9292.46
9246.34
9215.26
9208.13
9233.56
9302.73
9408.72
9488.35
9536.57
9565.81
9583.35
9589.88
9586.29
9572.88
9550.6
9520.06
9482.69
9439.53
9392.53
9343.34
9294.82
9250.4
9216.34
9202.06
9223.75
9293.8
9409.69
9352.7
9406.82
9445.3
9474.37
9494.4
9505.22
9506.84
9499.43
9483.67
9460.32
9430.53
9395.41
9356.36
9314.77
9272.66
9233.88
9207.55
9210.65
9272.42
9401.95
9229.26
9290.2
9340.65
9383.6
9418.47
9444.05
9460.28
9466.99
9465.08
9455.05
9438.26
9415.35
9387.64
9355.46
9319.44
9279.36
9238.56
9213.41
9244
9380.88
9116.35
9187.6
9255.53
9316.09
9366.84
9407
9436.39
9455.69
9465.64
9467.52
9462.38
9451.54
9435.85
9416.24
9392.36
9362.01
9321.58
9271.86
9244.38
9344.32
9004.84
9107.71
9201.33
9281.28
9347.1
9399.48
9439.23
9467.79
9486.49
9497.13
9501.22
9500.55
9496.41
9490.08
9482.54
9475.29
9467.67
9452.81
9408.77
9242.84
9805.68
10028.4
10393.4
10862.1
11370.4
11859.1
12279.3
12595.6
12786.4
12841.1
9657.57
9849.47
10175.3
10601.7
11074
11541.4
11961
12300.7
12538.7
12631.2
9536.29
9701.44
9987.78
10368.1
10795.9
11227.9
11626.9
11964.2
12218.5
12339
9436.38
9579.04
9829.84
10167.3
10552.5
10948.4
11323.1
11650.5
11908.7
12050.9
9352.26
9475.82
9694.93
9992.96
10337.5
10697.2
11044.3
11355.3
11609
11764.3
9279.45
9386.49
9577.67
9840
10146.6
10470.8
10788.7
11079.5
11322.6
11483.9
9214.15
9307.12
9473.85
9704.25
9975.92
10266.4
10555
10823.1
11052.1
11213.1
9153.49
9234.26
9379.77
9581.99
9822.18
10081.4
10341.6
10586.5
10799.2
10955.7
9094.75
9165.25
9292.45
9470.01
9682.18
9912.81
10146.4
10368.5
10564.4
10712.9
9035.84
9097.51
9209.05
9365.28
9552.85
9757.94
9967.15
10167.8
10346.6
10486.1
8974.4
9028.86
9127.11
9265.1
9431.32
9613.95
9801.27
9981.99
10144.5
10274.2
8908.63
8956.93
9044.16
9166.76
9314.82
9478.07
9646.16
9809.09
9956.71
10077.3
8836.17
8879.75
8957.97
9067.8
9200.7
9347.56
9499.32
9647.03
9781.93
9893.72
8755.25
8795.1
8866.11
8965.73
9086.24
9219.86
9358.44
9494.08
9618.43
9723.41
8663.41
8700.92
8766.49
8858.07
8968.89
9092.36
9221.17
9347.93
9464.62
9564.27
8558.84
8594.74
8656.45
8741.92
8845.77
8962.15
9084.83
9206.28
9318.72
9415.92
8438.2
8474.05
8532.95
8614.23
8713.57
8826.12
8946.11
9066.36
9178.95
9277.05
8298.87
8334.55
8391.24
8470.39
8568.25
8680.4
8801.21
8924.26
9041.76
9146.97
8141.73
8171.74
8226.73
8306.96
8407.34
8522.56
8647.22
8775.51
8901
9022.08
7990.33
7989.08
8042.06
8121.99
8221.89
8336.79
8461.94
8592.54
8726.38
8870.8
)
;

boundaryField
{
    left
    {
        type            symmetryPlane;
    }
    right
    {
        type            calculated;
        value           nonuniform List<scalar> 
30
(
6887.68
6886.81
6947.63
7042.31
7164.13
7308.44
7470.27
7647.68
7836.27
8030.15
8206.03
8363.68
8512.16
8651.72
8781.64
8900.56
9007.36
9101.12
9181.56
9248.8
9303.54
9346.66
9379.26
9401.98
9415
9417.71
9410.11
9390.93
9346.92
9171.96
)
;
    }
    down
    {
        type            symmetryPlane;
    }
    up
    {
        type            calculated;
        value           nonuniform List<scalar> 
30
(
7993.08
7991.84
8048.28
8132.55
8236.53
8354.33
8480.4
8609.34
8738.53
8875.76
8999.24
9104.15
9199.14
9279.81
9346.18
9398.93
9439.11
9468.03
9487.2
9498.27
9502.91
9502.74
9499.2
9493.37
9486.38
9480.21
9474.82
9461.5
9411.19
9194.82
)
;
    }
    hole
    {
        type            calculated;
        value           nonuniform List<scalar> 
20
(
10393.6
13056.2
15610.6
18001.6
20174.3
22081.3
23684
24937.8
25795.2
26213.3
8221.04
7963.09
7132.92
5889.75
4280.91
2379.76
529.765
2410.24
4985.9
7681.34
)
;
    }
    frontAndBack
    {
        type            empty;
    }
}


// ************************************************************************* //
