/*--------------------------------*- C++ -*----------------------------------*\
| =========                 |                                                 |
| \\      /  F ield         | OpenFOAM: The Open Source CFD Toolbox           |
|  \\    /   O peration     | Version:  2.3.0                                 |
|   \\  /    A nd           | Web:      www.OpenFOAM.org                      |
|    \\/     M anipulation  |                                                 |
\*---------------------------------------------------------------------------*/
FoamFile
{
    version     2.0;
    format      ascii;
    class       volSymmTensorField;
    location    "20";
    object      sigma;
}
// * * * * * * * * * * * * * * * * * * * * * * * * * * * * * * * * * * * * * //

dimensions      [1 -1 -2 0 0 0 0];

internalField   nonuniform List<symmTensor> 
1000
(
(7792.09 -5434.48 3.32567e-13 4267.34 -2.08181e-13 2782.95)
(10478 -4162.05 1.99532e-14 1386.25 6.09657e-14 2737.91)
(11855.3 -3312.9 1.16714e-13 -190.002 5.36068e-14 2691.98)
(12559.1 -2710.32 1.57877e-14 -1066.8 -1.32007e-14 2652.06)
(12895.8 -2265.94 8.90959e-14 -1545.34 4.40158e-14 2619.32)
(13022.2 -1929.1 3.12118e-15 -1792.24 3.22006e-15 2591.53)
(13026.8 -1668.08 -7.07316e-14 -1900.54 -3.49553e-14 2567.59)
(12959.5 -1460.52 -1.1204e-13 -1928.74 -4.36995e-14 2545.57)
(12854.1 -1288.85 0 -1915.2 0 2524.37)
(12725.5 -1058.33 1.38351e-14 -1863.22 -2.87215e-15 2506.68)
(10474.8 -6489.91 1.92766e-13 4691.51 -1.30292e-13 3499.92)
(12469 -4448.55 -4.79014e-14 1933.63 2.47452e-14 3323.68)
(13400.7 -3175.89 6.06852e-14 396.504 2.60294e-14 3183.97)
(13798.3 -2341.31 1.82273e-14 -482.306 -1.09254e-14 3072.93)
(13907.1 -1774.49 -8.87675e-14 -987.43 -4.49504e-14 2981.45)
(13860.3 -1377.89 3.02588e-15 -1268.97 3.7344e-15 2905.69)
(13726.6 -1093.04 8.33153e-14 -1417.7 3.38191e-14 2840.51)
(13550.1 -880.236 -7.78359e-14 -1483.59 -2.816e-14 2784.58)
(13362.7 -708.353 -3.01918e-14 -1498.59 9.21462e-15 2737.87)
(13165.2 -500.176 -9.7592e-15 -1440.7 -1.49059e-14 2705.66)
(13405.2 -7252.21 1.32059e-13 4730.2 -1.17619e-13 4185.1)
(14511.7 -4589.23 -2.57617e-14 2330.01 9.30766e-15 3886.55)
(14888.1 -2972.68 -4.52348e-16 974.413 1.70501e-16 3660.58)
(14910.4 -1953.86 -9.97763e-15 165.888 3.96853e-15 3479.15)
(14759.3 -1290.84 -8.82681e-14 -322.165 -4.40523e-14 3331.65)
(14524.7 -848.545 -7.77316e-14 -617.001 -4.01355e-14 3209.46)
(14253.7 -546.091 -2.74484e-14 -792.671 -1.9954e-14 3106.39)
(13974.7 -331.864 3.02771e-14 -892.389 1.61752e-14 3018.99)
(13710.2 -170.587 -1.8286e-14 -942.025 6.54126e-15 2946.5)
(13456.4 4.44622 -7.75139e-15 -917.397 -1.37327e-14 2893.61)
(16469.4 -7629.28 2.47516e-13 4451.33 -1.06843e-13 4827.85)
(16534.9 -4548.48 -6.89099e-14 2592.49 -2.58226e-14 4414.02)
(16270.7 -2707.6 1.27932e-15 1518.33 -2.79478e-16 4105.15)
(15878.9 -1570.43 0 845.595 0 3859.5)
(15448.7 -850.08 7.75341e-14 409.688 4.35727e-14 3659.62)
(15021.8 -383.878 -8.5075e-16 122.182 -1.65457e-15 3494.76)
(14615.5 -77.1368 -6.69329e-14 -72.1423 -3.42158e-14 3356.15)
(14240 129.472 4.29553e-14 -204.156 3.84205e-14 3239.05)
(13904.8 274.559 -1.62641e-14 -292.103 6.94919e-15 3141.4)
(13598.2 416.734 4.99253e-14 -313.625 2.47927e-14 3065.66)
(19516.8 -7564.02 -2.49205e-13 3928.64 4.08928e-14 5410.5)
(18464.3 -4309.1 -1.62651e-13 2735.22 -4.50588e-14 4892.19)
(17523.2 -2383.23 1.39111e-14 2021.19 -7.91381e-16 4510.24)
(16698.1 -1211.19 8.54378e-15 1524.3 -2.12304e-16 4205.18)
(15984.7 -480.817 0 1165.92 0 3957.83)
(15367.7 -18.6393 1.45338e-13 898.754 6.74841e-14 3753.8)
(14832.6 276.838 9.7347e-14 693.778 4.7359e-14 3583)
(14368.2 467.522 4.84254e-14 533.343 3.41801e-14 3438.82)
(13968.5 592.991 -4.1154e-14 406.407 -5.01366e-15 3317.29)
(13615.5 704.117 -5.18099e-14 334.439 -2.41184e-14 3219.22)
(22397.8 -7029.39 -3.6929e-13 3269.36 5.40086e-14 5923.2)
(20224.4 -3867.67 1.28503e-13 2794.15 2.69039e-14 5311.97)
(18611.8 -2011.25 8.27844e-14 2466.08 2.31604e-14 4864.13)
(17367 -891.41 0 2167.07 0 4507.86)
(16382.6 -202.33 -7.30774e-14 1898.65 -3.07706e-14 4218.74)
(15587.9 226.88 1.35043e-17 1661.36 4.05714e-17 3980.59)
(14934.4 494.905 1.29367e-13 1451.13 5.02934e-14 3781.28)
(14390.1 661.841 6.0726e-14 1265.61 2.14319e-14 3612.87)
(13934.6 765.943 6.07483e-15 1102.93 -4.06409e-15 3470.2)
(13543.2 849.218 -4.32741e-14 981.271 -1.13122e-14 3351.8)
(24957.4 -6041.77 -5.63234e-14 2574.63 1.48249e-15 6353.55)
(21745.3 -3236.16 1.57778e-13 2796.24 3.86424e-14 5663.43)
(19516.6 -1600.02 0 2846.38 0 5160.7)
(17889.9 -620.549 -1.05513e-13 2739.45 -3.63869e-14 4760.62)
(16663.1 -22.5491 -9.56095e-17 2561.68 -7.50224e-17 4436.49)
(15711.4 345.423 -1.3452e-13 2356.13 -4.00736e-14 4169.44)
(14955.6 571.309 -2.94003e-15 2144.67 6.19642e-15 3946.22)
(14343.7 708.16 6.23132e-15 1938.85 -6.94013e-15 3757.52)
(13841.7 789.602 3.39321e-14 1744.31 1.07405e-15 3596.77)
(13420 848.813 -2.04969e-16 1577.35 1.62778e-16 3460.93)
(27044.4 -4649.02 -5.35356e-14 1948.21 -2.91223e-14 6690.61)
(22955.1 -2444.92 3.65472e-14 2772.77 2.37799e-14 5937.21)
(20215.9 -1166.31 -7.14831e-14 3148.26 -2.31379e-14 5391.73)
(18274 -403.888 -9.04414e-14 3208.59 -2.27086e-14 4957.53)
(16848.2 58.9261 7.29666e-17 3110.4 9.76581e-17 4605.84)
(15769.4 341.539 -1.136e-17 2934.3 -6.374e-17 4316.23)
(14931.6 512.659 -6.0934e-14 2723.28 -1.05227e-14 4074.19)
(14266.5 614.366 -5.29413e-14 2501.06 -1.54121e-14 3869.43)
(13729.1 672.896 3.4535e-15 2280.89 -4.45965e-15 3694.61)
(13285.4 712.29 5.65978e-15 2076.49 1.59776e-15 3545.04)
(28514.2 -2939.25 2.78469e-13 1473.72 -1.27402e-14 6920.29)
(23794.3 -1544.8 1.30169e-13 2744.1 3.1917e-15 6124.26)
(20690.4 -734.506 -1.05355e-14 3361.28 -1.39122e-14 5550.39)
(18523.7 -251.042 8.59194e-14 3546.81 8.68898e-15 5093.19)
(16956.2 42.2414 3.01318e-15 3507.56 7.45575e-15 4722.4)
(15787.5 220.538 6.60762e-14 3353.07 1.84387e-14 4417.06)
(14892.8 328.233 0 3142.5 0 4162)
(14191.5 391.68 0 2908.71 0 3946.21)
(13630.7 428.125 -2.36535e-14 2669.6 -4.05117e-15 3761.61)
(13173.2 451.765 1.98692e-14 2437.23 -1.38256e-14 3602.41)
(29256.4 -1036.12 6.59027e-15 1219.45 1.2489e-14 7032.88)
(24248.7 -642.117 -4.1605e-13 2748.52 -7.59037e-15 6230.13)
(20924.3 -379.847 5.08157e-14 3490.87 -1.22912e-14 5634.27)
(18620.4 -214.548 8.8294e-14 3735.9 3.26787e-15 5159.15)
(16969.9 -110.604 7.4416e-14 3722.34 2.90995e-15 4775.14)
(15750.3 -44.9778 0 3575.16 0 4459.73)
(14824.8 -3.04953 0 3362.47 0 4197.06)
(14104.9 23.49 4.6273e-16 3120.69 -4.08531e-15 3975.14)
(13533.7 40.7253 6.98622e-14 2869.96 2.63401e-15 3785.45)
(13072.7 53.0333 -1.05999e-15 2621.3 -2.57754e-16 3621.69)
(-378.578 314.699 -9.7778e-15 -9198.8 1.62332e-13 -2210.16)
(-151.413 109.451 1.41628e-15 -5813.87 -3.01757e-14 -1376.6)
(344.524 -55.4551 0 -3707.49 0 -776.07)
(1074.93 -151.533 5.06003e-15 -2357.13 1.36427e-14 -295.89)
(1872.4 -199.495 -9.56105e-15 -1471.43 8.30755e-15 92.5327)
(2658.75 -218.579 -8.10749e-15 -874.549 2.13686e-14 411.739)
(3399.53 -221.284 3.3739e-14 -461.366 1.85771e-14 678.037)
(4082.09 -214.741 4.49296e-14 -167.907 -1.34704e-16 903.274)
(4704.57 -203.454 -7.55026e-16 46.5547 -2.51314e-15 1096.41)
(5269.29 -192.117 4.0441e-15 207.513 4.88122e-15 1263.88)
(-419.293 712.523 -3.72462e-15 -8874.79 -3.69401e-14 -2144.79)
(24.277 -287.107 2.20237e-16 -5589.57 5.24805e-16 -1284.3)
(625.123 -814.746 -2.4996e-14 -3660.53 -2.96969e-14 -700.479)
(1399.07 -1079.96 -9.57227e-15 -2424.3 -6.26909e-15 -236.591)
(2207.65 -1197.82 1.2888e-14 -1602.95 3.52828e-15 139.546)
(2988.1 -1232.71 5.85862e-16 -1040.88 -6.75075e-15 449.358)
(3714.62 -1221.64 -1.5568e-14 -645.395 -7.32968e-15 708.283)
(4378.75 -1185.79 -4.56454e-14 -358.927 -6.20173e-15 927.652)
(4979.79 -1137.75 -3.73248e-14 -145.067 1.08344e-15 1115.71)
(5517.46 -1091.41 4.34152e-14 20.7785 -7.54004e-16 1278.05)
(-431.967 991.391 -5.35565e-15 -7898.88 -2.80434e-14 -1922.5)
(372.079 -599.869 4.55799e-14 -5159.26 4.75372e-14 -1104.73)
(1153.04 -1419.96 5.45754e-17 -3526.28 2.08806e-16 -547.672)
(2009.88 -1819.56 -7.88276e-14 -2463.87 -3.95522e-14 -104.768)
(2842.63 -1991.09 -6.75149e-14 -1745.4 -2.66231e-14 253.207)
(3615.64 -2035.89 -3.07146e-14 -1242.16 -1.08986e-14 547.725)
(4317.45 -2010.86 -1.78364e-14 -878.518 -1.28572e-14 793.599)
(4947.81 -1948.41 1.49769e-14 -607.143 -2.6926e-16 1001.69)
(5509.9 -1867.43 -6.75286e-14 -398.16 -9.63169e-15 1179.63)
(6000.97 -1790.35 -8.68764e-14 -231.467 -4.83313e-15 1331.42)
(-379.726 1048.16 -2.08881e-14 -6501.91 3.60263e-14 -1588.07)
(915.038 -933.864 1.34622e-15 -4531.62 -1.44301e-14 -834.596)
(1937.25 -1946.21 -2.80198e-14 -3321.18 5.12508e-15 -319.368)
(2890.51 -2430.42 5.31318e-15 -2503.77 1.33149e-14 89.2479)
(3747.19 -2628.57 6.31598e-16 -1927.21 4.68952e-16 419.996)
(4503.45 -2670.35 9.12483e-15 -1505.46 2.29787e-15 691.844)
(5167.17 -2626.82 -5.90952e-14 -1186.19 -1.32518e-14 918.689)
(5748.3 -2538.3 5.74703e-15 -936.568 1.13635e-14 1110.4)
(6255.43 -2428.05 1.48443e-14 -735.881 4.85093e-15 1273.74)
(6682.2 -2326.82 3.38177e-14 -570.701 1.03724e-14 1410.35)
(-187.777 821.187 3.97153e-14 -4806.97 -1.25991e-13 -1152.63)
(1662.64 -1322.41 -4.32065e-14 -3749.13 -2.8907e-15 -481.499)
(2947.68 -2404.58 -7.09938e-14 -3051.23 -3.21292e-14 -23.8953)
(4004.61 -2905.79 6.1831e-14 -2526.02 9.5803e-15 341.213)
(4877.01 -3096.81 5.70318e-14 -2119.79 2.02468e-14 636.281)
(5604.01 -3119.64 6.56983e-14 -1795.88 2.22654e-14 878.799)
(6215.12 -3052.21 6.82938e-14 -1530.65 2.28155e-14 1081.03)
(6732.2 -2938.43 -2.63955e-14 -1308.26 9.7173e-16 1251.68)
(7169.98 -2803.63 2.2981e-14 -1119.04 2.13787e-14 1396.37)
(7516.85 -2686.72 -1.01224e-14 -957.938 -1.11847e-14 1513.59)
(216.22 288.424 -3.33354e-15 -2969.31 1.66116e-13 -635.328)
(2624.46 -1772.51 -5.41791e-14 -2873.72 -1.66843e-15 -57.5216)
(4164.01 -2783.57 8.7651e-14 -2717.98 2.31756e-14 333.699)
(5304.1 -3230.58 1.07512e-15 -2508.9 -1.66251e-14 645.044)
(6175.21 -3377.45 6.70758e-14 -2287.19 2.5335e-14 897.236)
(6856.36 -3364.56 -6.00687e-14 -2070.65 -2.17285e-14 1104.39)
(7400.13 -3267.81 5.30587e-14 -1865.64 1.89338e-14 1277.19)
(7839.88 -3130.21 -2.59552e-14 -1674.59 1.25988e-15 1422.76)
(8196.16 -2976.58 4.79829e-14 -1499.89 -5.24132e-15 1545.29)
(8451.57 -2853.45 -5.60632e-15 -1346.12 -2.98822e-14 1639.72)
(928.421 -543.493 2.36015e-13 -1089.04 -3.76291e-13 -37.0666)
(3810.33 -2263 -2.17961e-14 -1945.3 3.98423e-14 430.394)
(5549.4 -3073.85 1.94582e-13 -2325.51 6.8557e-14 743.973)
(6735.21 -3395.24 4.64353e-15 -2426.58 -1.84626e-14 994.3)
(7576.94 -3463.12 3.44347e-15 -2389.9 1.09488e-14 1197.01)
(8192.51 -3398.81 -5.63999e-14 -2283.34 -2.05689e-14 1363.66)
(8653.95 -3268.34 -1.71935e-14 -2141.95 -1.54688e-15 1502.77)
(9005.02 -3108.99 0 -1985.58 0 1619.87)
(9271.22 -2942.6 -4.80321e-14 -1828.23 -1.84527e-14 1717.61)
(9428.39 -2823.01 7.47851e-14 -1686.28 1.92732e-14 1786.64)
(2017.68 -1630.4 8.93698e-14 686.3 -2.21742e-13 623.996)
(5214.64 -2779.2 8.83674e-14 -1016.32 -1.74126e-14 968.843)
(7058.72 -3266.78 -4.16153e-14 -1866.38 -3.78582e-14 1198.23)
(8235.82 -3402.63 8.32602e-14 -2251.23 5.76823e-14 1381.06)
(9013.21 -3362.33 -2.42194e-13 -2388.5 -9.21011e-14 1528.78)
(9540.96 -3234.69 7.19848e-14 -2389.59 3.007e-14 1650.32)
(9906.81 -3067.59 -1.55029e-14 -2313.27 -1.37659e-15 1752.36)
(10161.5 -2888.5 0 -2194.57 0 1838.53)
(10333.2 -2715.1 1.43468e-14 -2059.02 -2.14828e-15 1909.42)
(10390.6 -2607.86 1.67438e-14 -1934.45 -3.40782e-15 1951.42)
(3517.76 -2878.63 0 2223.71 0 1324.95)
(6810.24 -3288.95 -1.71943e-14 -119.73 1.90321e-14 1543.96)
(8640.7 -3365.22 -1.95311e-13 -1347.08 -1.26157e-13 1683.14)
(9739.36 -3271.5 -1.7118e-14 -1966.74 2.6808e-14 1793.68)
(10413.6 -3102.09 -1.51769e-15 -2255.08 1.0396e-14 1882.73)
(10832.1 -2903.99 6.25034e-14 -2354.57 2.39622e-14 1956.35)
(11091.4 -2699.68 0 -2342.87 0 2018.89)
(11246.4 -2503.52 0 -2266.42 0 2072.3)
(11326.7 -2325.46 0 -2158.89 0 2115.65)
(11296 -2233.91 1.08206e-13 -2054.2 1.82195e-14 2132.72)
(5454.82 -4190.06 1.9408e-13 3440.76 -1.93673e-13 2052.83)
(8580.68 -3763.65 -4.45131e-14 691.222 3.89865e-14 2139.67)
(10255.2 -3380.25 -4.30781e-14 -781.126 -3.89564e-14 2186.33)
(11195.5 -3031.71 -8.6789e-14 -1568.58 -6.165e-14 2221.61)
(11722.7 -2723.3 1.7647e-13 -1972.98 8.26724e-14 2249.94)
(12007.7 -2453.03 0 -2156.72 0 2273.3)
(12148.8 -2216.37 -7.01381e-14 -2207.41 -3.30605e-14 2294.17)
(12201 -2009.29 0 -2180.11 0 2312.52)
(12204.1 -1824.89 1.24885e-14 -2101.33 -2.44955e-15 2331.41)
(12136 -1733.4 -2.36008e-14 -2028.36 -1.18948e-14 2332.54)
(5766.51 -164.202 6.84119e-14 325.155 -7.57426e-15 1405.77)
(6224.23 -137.084 -8.56948e-15 434.323 -2.44736e-14 1536.59)
(6636.6 -114.859 -8.38259e-14 531.655 -9.81947e-15 1654.21)
(7010.46 -96.1048 -9.57505e-17 622.266 1.56595e-19 1761.4)
(7351 -80.2837 -5.09494e-15 709.842 -1.56028e-14 1860.19)
(7662.26 -66.8879 -3.02634e-14 797.003 -1.18303e-17 1952.14)
(7947.76 -55.5242 0 886.341 0 2038.64)
(8210.28 -45.8655 0 979.797 0 2120.79)
(8452.13 -37.6324 -6.32278e-14 1079.55 4.95078e-15 2199.62)
(8675.22 -30.5543 1.01654e-13 1187.34 1.56079e-14 2275.98)
(8880.93 -24.4035 9.7727e-14 1305.36 -2.12692e-14 2350.68)
(9070.5 -18.8975 -7.02146e-14 1435.49 -9.79263e-15 2424.46)
(9244.55 -13.8485 -3.54941e-14 1580.3 -6.79289e-15 2498.04)
(9403.83 -9.00586 -1.03933e-13 1742.02 -1.12587e-15 2572.12)
(9548.28 -4.12834 3.66921e-14 1923.7 1.07712e-14 2647.38)
(9677.58 1.16206 6.8996e-14 2128.13 -3.23797e-15 2724.39)
(9790.37 6.85252 8.85812e-16 2358.91 2.15322e-15 2803.68)
(9883.38 12.5259 3.37864e-14 2618.02 -1.2543e-15 2884.94)
(9955.99 14.4755 -3.46706e-14 2907.3 -8.71568e-16 2968.45)
(10029.5 1.24885 7.83901e-14 3223.91 4.08684e-15 3058.48)
(5975.22 -1009.27 9.06469e-14 155.938 7.1994e-15 1414.88)
(6394.7 -899.338 4.11638e-14 293.008 8.23297e-15 1543.32)
(6774 -808.55 -2.21473e-14 410.93 2.90129e-15 1658.06)
(7122.37 -728.392 6.65693e-14 518.33 5.52144e-15 1763.24)
(7442.32 -657.776 2.00832e-15 619.426 5.36981e-17 1860.4)
(7736.67 -595.443 -9.58309e-14 717.855 -3.08199e-15 1951.04)
(8007.98 -540.171 8.11686e-15 816.323 5.64705e-15 2036.38)
(8258.56 -490.846 -6.38227e-14 917.455 -5.4171e-16 2117.54)
(8490.22 -446.466 -1.70002e-15 1023.28 -7.82277e-17 2195.42)
(8704.61 -406.101 6.0926e-14 1136.11 -4.28728e-15 2270.93)
(8902.81 -368.9 4.12929e-14 1257.83 8.28003e-15 2344.76)
(9085.97 -334.038 -5.96818e-15 1390.88 -4.92441e-15 2417.73)
(9254.56 -300.782 -3.48775e-14 1537.32 -9.76894e-16 2490.43)
(9409.2 -268.216 0 1699.96 0 2563.65)
(9550.02 -235.733 -4.22976e-15 1881.26 -3.64318e-15 2637.99)
(9677.02 -202.361 -6.96903e-14 2084.56 -3.08401e-15 2714.21)
(9789.03 -167.326 -2.97329e-15 2312.98 -1.25526e-15 2792.77)
(9883.47 -129.367 2.054e-15 2570.91 7.61363e-16 2874.09)
(9957.85 -86.8491 1.22172e-15 2866.75 1.98796e-16 2959.52)
(10027.5 -33.9589 1.10935e-13 3225.15 2.77734e-14 3058.3)
(6392.63 -1661.14 -9.4569e-15 -83.9006 -1.74286e-15 1455.86)
(6750.49 -1492.22 6.3774e-14 83.517 3.55077e-15 1577.08)
(7069.47 -1350.97 -5.80689e-14 226.052 -1.87703e-16 1683.58)
(7367.95 -1224.6 1.9025e-14 355.355 -3.27303e-15 1782.3)
(7646.49 -1111.87 1.0431e-13 475.317 6.80267e-15 1874.26)
(7906.31 -1011.3 -9.89421e-14 589.72 -3.87593e-15 1960.62)
(8148.65 -921.332 -3.37393e-14 701.592 -4.96524e-16 2042.36)
(8374.73 -840.446 6.44749e-14 813.837 1.02251e-15 2120.44)
(8585.58 -767.191 1.64812e-15 928.767 1.36882e-16 2195.62)
(8782.18 -700.185 -5.72127e-15 1048.88 -2.9564e-15 2268.71)
(8965.18 -638.13 1.00304e-13 1176.25 3.16101e-15 2340.33)
(9135.29 -579.731 2.5261e-14 1313.36 -3.99144e-15 2411.23)
(9292.79 -523.793 -1.01675e-13 1462.37 -4.53348e-15 2481.96)
(9438.17 -469.124 -3.43234e-14 1626.09 -1.81632e-15 2553.29)
(9571.34 -414.467 3.00795e-14 1806.99 4.12034e-17 2625.77)
(9692.09 -358.391 3.09188e-14 2008.47 7.58667e-16 2700.13)
(9799.33 -299.435 -4.08297e-14 2233.91 -5.56598e-15 2776.9)
(9889.73 -234.675 -3.77917e-14 2488.13 -4.32096e-15 2856.43)
(9960.02 -159.39 2.48826e-14 2779.04 2.62635e-15 2939.78)
(10013 -62.0868 -3.30886e-14 3120.07 -1.38216e-14 3030.71)
(6985.13 -2164.92 -4.04709e-14 -409.457 -1.44401e-14 1517.46)
(7257.81 -1958.96 -1.30807e-14 -205.232 -4.21321e-15 1627.52)
(7495.2 -1785.01 3.14986e-14 -31.4536 6.09862e-16 1722.4)
(7724.97 -1627.43 -1.91446e-14 126.013 -7.57962e-15 1811.77)
(7945.6 -1485.06 1.06601e-14 270.793 3.82615e-15 1896.09)
(8156.51 -1356.56 -2.15042e-14 406.642 3.1886e-15 1976.11)
(8357.37 -1240.46 -7.735e-14 536.807 -1.8736e-14 2052.5)
(8548.15 -1135.19 -6.46919e-14 664.402 -1.6399e-15 2125.97)
(8728.81 -1039.17 2.20194e-14 792.039 -2.69133e-15 2197.12)
(8899.5 -950.802 6.73434e-14 922.384 2.57559e-15 2266.59)
(9060.21 -868.523 8.14876e-14 1057.72 9.42284e-15 2334.91)
(9211.13 -790.787 2.17754e-14 1200.6 9.27909e-15 2402.71)
(9352.16 -716.052 -8.199e-14 1353.28 2.3303e-15 2470.49)
(9483.32 -642.713 3.38188e-14 1518.5 2.448e-15 2538.88)
(9604.43 -569.2 2.86307e-14 1698.85 5.38983e-16 2608.45)
(9715.01 -493.613 -2.83913e-14 1897.63 -1.2219e-15 2679.84)
(9813.43 -413.512 4.70315e-15 2118.19 1.65373e-15 2753.45)
(9896.47 -324.737 2.93882e-14 2364.94 3.28096e-15 2829.56)
(9961.42 -220.926 -4.66896e-14 2644.19 -7.50522e-15 2908.99)
(9994.5 -87.7836 -9.45067e-15 2959.7 -6.17906e-15 2989.43)
(7715.29 -2509.36 8.39332e-14 -783.849 -7.92947e-16 1599.56)
(7883.71 -2292.21 -7.96455e-14 -544.255 -1.7376e-14 1693.72)
(8024.45 -2105.74 -1.81741e-14 -337.221 3.59731e-15 1773.98)
(8171.77 -1933.92 1.30664e-14 -149.402 4.65346e-15 1851.31)
(8322.27 -1775.98 3.95813e-14 22.8025 1.37075e-14 1925.79)
(8473.33 -1631.21 1.08256e-13 182.904 7.32855e-15 1997.59)
(8622.97 -1498.64 2.87131e-14 334.197 9.11987e-15 2067.04)
(8769.76 -1377.05 -6.56495e-14 479.812 -2.44554e-15 2134.52)
(8912.56 -1265.06 -5.07437e-14 622.572 -1.9773e-14 2200.42)
(9050.57 -1161.13 -8.95452e-14 765.192 -1.11952e-15 2265.18)
(9183.02 -1063.65 1.71223e-14 910.16 7.18109e-15 2329.2)
(9309.42 -970.939 2.50641e-14 1060 1.03042e-14 2392.94)
(9429.22 -881.27 -2.78147e-14 1217.1 -1.04455e-14 2456.84)
(9542.09 -792.869 9.20063e-14 1384.08 5.91212e-15 2521.42)
(9647.4 -703.726 2.29858e-14 1563.49 8.60694e-15 2587.13)
(9744.31 -611.447 -2.68532e-14 1758.36 -1.64387e-15 2654.46)
(9831.48 -513.091 4.65944e-14 1971.91 9.02013e-15 2723.86)
(9905.6 -403.42 1.0589e-13 2207.8 1.81862e-14 2795.4)
(9964.25 -274.924 -2.6783e-14 2471.28 -5.1722e-15 2869.74)
(9976.08 -112.16 -3.42323e-14 2758.38 -2.33371e-14 2938.72)
(8539.26 -2678.82 9.83232e-15 -1163.64 6.2992e-15 1702.07)
(8591.34 -2479.13 -9.99338e-15 -899.856 4.38881e-15 1774.96)
(8628.19 -2302.02 -1.01714e-13 -663.494 -7.00883e-15 1838.01)
(8685.25 -2134.44 -6.65399e-14 -447.994 -3.88465e-15 1900.91)
(8758.08 -1976.31 -3.84578e-15 -249.67 -4.91336e-16 1963.48)
(8842.07 -1828.07 4.88063e-16 -65.4887 2.39814e-17 2025.37)
(8933.68 -1689.79 3.65818e-14 107.35 1.42833e-14 2086.39)
(9030.2 -1560.92 1.63682e-13 271.866 8.42952e-15 2146.63)
(9129.38 -1440.61 1.66524e-14 430.685 5.24242e-15 2206.17)
(9229.5 -1327.63 -1.63521e-13 586.598 -1.02018e-14 2265.25)
(9328.97 -1220.57 -2.41635e-14 741.983 -8.81638e-15 2324.07)
(9426.67 -1117.8 1.6329e-13 899.451 1.31803e-14 2382.95)
(9521.48 -1017.58 6.10188e-15 1061.22 -7.84746e-15 2442.16)
(9612.52 -917.941 -1.6244e-13 1229.88 -1.72711e-14 2502.09)
(9698.98 -816.751 -3.51737e-14 1407.71 -4.57041e-15 2563.08)
(9779.96 -711.309 -2.59529e-14 1597.57 -9.19237e-15 2625.58)
(9853.6 -598.085 -2.54989e-14 1801.97 -8.30744e-15 2689.74)
(9917.19 -471.168 7.21699e-14 2024.37 1.46973e-14 2755.74)
(9968.55 -322.176 5.21595e-14 2268.77 1.21885e-14 2824)
(9960.94 -135.039 -3.39496e-14 2526.4 -2.69893e-14 2881.69)
(9408.41 -2668.21 -5.61849e-15 -1504.08 -4.00422e-15 1824.07)
(9340.39 -2514.28 -4.30651e-14 -1237.21 -5.70528e-15 1869.96)
(9274.54 -2367.92 0 -981.978 0 1913.67)
(9239.96 -2223.04 0 -746.697 0 1959.98)
(9232.48 -2080.39 -5.49025e-14 -527.657 -1.9602e-14 2008.81)
(9246.14 -1942 0 -322.639 0 2059.27)
(9276.03 -1809.33 -3.16531e-14 -130.311 -1.16221e-14 2110.55)
(9318.63 -1682.8 -5.01609e-14 52.1674 -1.7588e-14 2162.49)
(9370.54 -1562.41 4.2671e-14 226.502 1.59674e-14 2214.7)
(9429.38 -1447.43 2.9972e-14 395.692 1.07809e-14 2267.33)
(9492.65 -1336.9 -2.55529e-14 561.442 -9.75299e-15 2320.18)
(9558.71 -1229.38 3.19061e-14 726.676 3.0025e-15 2373.55)
(9625.72 -1123.29 3.56092e-14 892.96 1.34881e-14 2427.39)
(9692.67 -1016.72 1.06765e-14 1063.15 4.12333e-15 2482.11)
(9757.99 -907.424 4.26194e-14 1238.69 -6.35043e-15 2537.7)
(9820.64 -792.542 5.54417e-14 1422.62 7.10207e-15 2594.6)
(9878.81 -668.406 -1.11025e-13 1616.48 -2.34341e-14 2652.76)
(9930.31 -528.406 -9.48763e-14 1823.62 -2.05961e-14 2712.45)
(9972.4 -363.213 3.15191e-14 2046.15 8.06539e-15 2773.51)
(9951.09 -155.627 -3.0921e-14 2273.49 -2.84619e-14 2821.06)
(10274.3 -2484.92 2.28945e-14 -1763.57 -6.40158e-15 1964)
(10091 -2400.52 -2.85126e-14 -1524.15 -4.15481e-15 1976.97)
(9931.59 -2302.67 -1.09902e-13 -1264.8 -1.51973e-14 2000.03)
(9809.54 -2197.29 1.1353e-14 -1023.3 -4.43401e-15 2027.59)
(9724.14 -2084.62 2.76104e-15 -791.12 5.06633e-16 2061.47)
(9667.59 -1969.32 -3.37863e-14 -572.568 -3.17171e-15 2098.85)
(9635.67 -1853.41 3.71169e-14 -363.906 -1.31079e-14 2139.64)
(9623 -1739.23 4.57901e-14 -167.472 1.51393e-14 2182.04)
(9626.64 -1627.09 -1.23339e-13 21.5077 -6.52485e-16 2226.5)
(9642.37 -1517.56 -2.14509e-14 201.601 -7.13177e-15 2271.69)
(9668.17 -1409.8 1.35306e-14 377.959 -1.19969e-14 2318.34)
(9700.7 -1303.19 0 549.22 0 2365.37)
(9738.78 -1196.13 1.32804e-14 720.654 5.13522e-15 2413.71)
(9779.59 -1087.08 1.19716e-13 890.562 2.27664e-14 2462.34)
(9822.64 -973.785 4.58077e-14 1064.53 1.01256e-14 2512.42)
(9865.16 -853.422 -5.80305e-14 1240.45 -3.45189e-15 2562.83)
(9906.66 -722.138 3.1114e-16 1424.5 5.10179e-15 2614.88)
(9943.39 -573.223 0 1613.67 0 2667.01)
(9975.68 -396.182 2.12909e-14 1815.65 5.57432e-15 2721.08)
(9948.72 -172.682 -2.05413e-14 2004.38 -2.32816e-14 2758.41)
(11098.9 -2141.03 1.98217e-14 -1903.79 -1.37878e-15 2121.94)
(10816 -2137.72 -3.91468e-14 -1718.68 8.8821e-15 2099.38)
(10574.5 -2102.53 8.97602e-15 -1477.61 -4.43042e-15 2099.28)
(10373.3 -2050.39 -2.31906e-14 -1242.56 -9.39364e-15 2107.1)
(10214.4 -1982.13 3.88237e-14 -1012.04 2.33242e-14 2123.62)
(10091.5 -1902.29 1.48368e-13 -787.268 2.98193e-14 2147.13)
(9999.32 -1815 -5.61381e-14 -572.328 -5.32694e-15 2175.46)
(9933.14 -1722.94 -1.28182e-13 -365.657 -3.26622e-15 2207.88)
(9888.57 -1628.14 2.6139e-14 -169.029 -1.45046e-14 2242.97)
(9861.86 -1531.5 1.20728e-13 20.6559 2.98903e-15 2280.58)
(9849.42 -1433.41 -8.05636e-14 202.358 -2.30111e-14 2319.64)
(9848.58 -1333.41 -5.51984e-14 379.834 2.57972e-15 2360.4)
(9856.42 -1230.69 -5.95935e-14 551.929 -7.82912e-15 2401.93)
(9871.23 -1123.76 -2.95838e-15 722.776 -8.0114e-16 2444.77)
(9890.44 -1010.68 8.47521e-14 890.699 2.00521e-14 2487.96)
(9912.84 -888.569 1.24905e-14 1060.46 4.9146e-15 2532.3)
(9935.72 -753.857 0 1230 0 2576.7)
(9958.14 -599.377 1.80489e-14 1405.01 3.18184e-15 2622.27)
(9982.23 -416.058 -5.85828e-14 1578.03 -1.72997e-14 2667.75)
(9959.24 -186.824 5.21213e-14 1728.01 5.39244e-14 2697.06)
(11867.8 -1644.45 5.03183e-14 -1913.39 3.40488e-14 2297.17)
(11509.4 -1722.43 1.07023e-14 -1782.72 -5.36163e-15 2244.63)
(11186 -1767.4 3.727e-14 -1581.16 9.88619e-15 2216.49)
(10907.7 -1785.27 -8.05164e-14 -1376.88 -6.47278e-15 2199.43)
(10678 -1776.47 -1.01691e-13 -1166.87 -1.98548e-14 2194.88)
(10491.6 -1745.86 4.48532e-14 -954.098 -4.81824e-15 2200.97)
(10342.3 -1698.67 1.43267e-13 -744.313 2.94375e-14 2214.92)
(10225.4 -1638.86 4.79046e-14 -538.598 -4.8115e-15 2235.41)
(10135.3 -1569.75 -7.56453e-14 -340.091 -1.70864e-14 2260.44)
(10068.4 -1493.37 4.95596e-16 -147.683 -9.43848e-16 2289.39)
(10019.9 -1411 -4.80869e-15 36.977 1.76597e-14 2320.82)
(9987.22 -1323.09 -1.01776e-13 216.112 -2.03382e-14 2354.62)
(9966.58 -1229.22 5.74167e-14 388.464 8.12139e-15 2389.63)
(9956.34 -1128.65 -1.85675e-14 556.726 -1.54667e-14 2426.09)
(9953.29 -1019.38 -5.06687e-16 719.423 3.5474e-16 2462.93)
(9956.2 -898.988 -4.18026e-14 879.725 -1.16536e-14 2500.6)
(9961.99 -763.163 2.81714e-14 1036.02 6.43246e-15 2538)
(9972.96 -607.553 3.04219e-16 1191.74 2.85262e-16 2576.47)
(9988.61 -424.886 -1.74056e-14 1336.26 -4.34849e-15 2613.43)
(9979.2 -195.669 -7.56725e-15 1451.91 -7.45771e-15 2637.95)
(12469.3 -1187.45 -2.47745e-14 -1874.12 -2.04832e-14 2445.04)
(12060 -1320.48 -3.02798e-14 -1696.45 -1.70422e-14 2391.58)
(11656.5 -1440.72 -2.13547e-14 -1560.03 -5.42622e-15 2329.94)
(11328.5 -1513.65 2.71179e-14 -1392.95 1.45715e-14 2292.83)
(11055.6 -1549.94 -3.71204e-14 -1207.74 -3.34423e-14 2272.59)
(10828.1 -1558.11 -2.69991e-14 -1015.69 -2.1271e-14 2264.41)
(10640.3 -1543.84 -5.18172e-14 -819.513 -1.60631e-14 2266.33)
(10485.9 -1512.29 -7.03759e-15 -626.02 6.785e-15 2275.37)
(10361.2 -1466.89 8.86104e-14 -434.906 3.41813e-14 2290.67)
(10260.9 -1410.46 -5.49808e-15 -250.557 -5.63116e-16 2310.09)
(10182.3 -1344.59 4.06865e-14 -70.8335 1.81468e-14 2333.4)
(10120.9 -1270.22 -3.79633e-14 100.873 -1.69436e-14 2358.87)
(10074.9 -1187.43 0 267.692 0 2386.74)
(10040.6 -1095.59 -1.49959e-14 426.211 -7.21509e-15 2415.43)
(10017.1 -993.315 1.41276e-14 580.054 6.72716e-15 2445.49)
(10000.8 -877.802 -1.71445e-15 725.236 -1.88767e-16 2475.24)
(9991.68 -745.902 -2.5972e-14 866.644 -6.21447e-15 2505.77)
(9987.66 -593.857 5.44681e-16 998.316 1.23185e-17 2535.22)
(9996.24 -417.666 -1.10328e-14 1118.23 -5.01905e-15 2564.88)
(10015.9 -197.43 -4.27098e-15 1210.94 -4.75323e-15 2590.81)
(12419.7 -860.731 3.93917e-14 -1683.53 1.58378e-14 2477.58)
(12158.1 -1015.05 0 -1620.06 0 2431.85)
(11812.7 -1162.67 -3.27502e-14 -1529.17 -8.37083e-15 2373.13)
(11508.6 -1268.48 5.92275e-28 -1390.8 1.66907e-28 2334.88)
(11244 -1335.4 5.27004e-29 -1227.74 7.32727e-29 2311.45)
(11016.1 -1370.85 4.17032e-28 -1051.29 1.9504e-28 2299.56)
(10821.1 -1381.26 5.11345e-28 -868.633 1.46287e-28 2296.72)
(10655.7 -1371.63 -2.8986e-14 -684.589 -4.71454e-15 2301.02)
(10516.4 -1345.74 0 -502.594 0 2310.87)
(10400.1 -1306.35 2.80158e-14 -324.794 4.32885e-15 2325.06)
(10303.8 -1255.32 -2.34583e-28 -152.767 -1.08923e-29 2342.54)
(10224.9 -1193.73 -2.72781e-14 12.6316 -4.40699e-15 2362.5)
(10161 -1121.94 2.69811e-14 170.607 4.60813e-15 2384.21)
(10110.1 -1039.63 2.67293e-28 320.742 8.35715e-29 2407.11)
(10070.3 -945.593 -2.65055e-14 462.217 -5.33835e-15 2430.58)
(10039.7 -837.215 -1.82096e-28 594.342 -4.11504e-29 2454.01)
(10016.8 -711.361 2.6159e-14 716.583 6.57468e-15 2476.92)
(10004.5 -567.319 2.60365e-14 828.694 7.40201e-15 2499.96)
(10002.3 -402.714 -1.3738e-28 922.044 -3.72221e-29 2520.99)
(10012.7 -199.223 -3.43257e-14 986.849 -3.84827e-14 2538.36)
(12403.6 -545.789 1.96086e-14 -1418.63 -2.87404e-15 2534.99)
(12202.8 -709.054 -1.48557e-14 -1417.59 -1.35534e-14 2488.9)
(11913.7 -873.057 -4.78027e-14 -1383.8 -2.20731e-14 2429.98)
(11640.4 -1004.01 0 -1292.03 0 2388.08)
(11390.2 -1098.67 1.67445e-14 -1165.03 -5.26582e-15 2359.64)
(11166.1 -1161.25 1.97415e-15 -1017.29 -1.70476e-14 2342.04)
(10968.4 -1197.03 -4.39803e-14 -857.774 -1.6786e-14 2333.22)
(10795.5 -1210.63 -5.67822e-14 -692.863 -2.62927e-14 2331.37)
(10645.6 -1205.72 2.88328e-14 -526.774 5.02953e-15 2335.12)
(10516.6 -1185.08 -2.61882e-14 -362.795 -1.87765e-14 2343.18)
(10406.4 -1150.67 -1.28095e-14 -203.062 -8.87372e-15 2354.61)
(10313 -1103.74 -2.50928e-14 -49.4436 -1.67779e-14 2368.5)
(10234.5 -1044.86 -2.4613e-14 96.835 -1.58715e-14 2384.15)
(10169.4 -973.992 -1.20899e-14 234.381 -7.51652e-15 2400.87)
(10116.3 -890.202 -2.37897e-14 362.012 -1.42667e-14 2418.06)
(10073.7 -791.144 -2.34358e-14 478.077 -1.3579e-14 2435.02)
(10040.8 -674.168 -2.63314e-14 581.457 -6.87599e-15 2451.29)
(10017.1 -539.32 -1.13966e-14 669.729 -6.23272e-15 2466.19)
(10008.6 -387.06 -1.12401e-14 738.959 -6.04118e-15 2480.21)
(10012.7 -199.784 -4.398e-15 778.877 -5.93793e-15 2490.37)
(12324.5 -288.689 1.48155e-13 -1193.78 5.94524e-14 2568.63)
(12165.3 -446.781 1.31715e-14 -1225.7 1.30112e-14 2524.52)
(11926.5 -613.015 -7.9037e-14 -1228.92 -3.11412e-14 2468.68)
(11690.5 -756.142 1.22399e-27 -1175.43 4.07645e-28 2426.56)
(11464.6 -869.018 4.94265e-14 -1082.24 2.87238e-15 2395.92)
(11254.4 -952.266 0 -962.854 0 2374.98)
(11062.9 -1009.1 1.32695e-14 -827.236 1.10651e-14 2362.07)
(10890.6 -1043.06 -5.92223e-14 -682.438 -1.17127e-14 2355.72)
(10737.1 -1057.3 1.37837e-27 -533.721 3.67477e-28 2354.64)
(10601.7 -1054.34 5.72043e-14 -384.91 1.07686e-14 2357.73)
(10483.1 -1036.09 -1.25017e-14 -239.054 -9.0312e-15 2364.01)
(10380 -1003.83 -1.86748e-28 -98.465 -3.38629e-29 2372.67)
(10291.3 -958.273 -1.13092e-27 34.7752 -2.25898e-28 2382.93)
(10215.8 -899.603 1.19615e-14 158.906 7.75508e-15 2394.15)
(10152.6 -827.172 -5.53922e-28 271.92 -1.25002e-28 2405.65)
(10100.6 -738.811 -5.3318e-14 371.762 -1.30638e-14 2416.71)
(10059.1 -632.188 4.31916e-28 456.314 1.41971e-28 2426.63)
(10030.7 -508.9 4.13214e-14 524.016 9.06376e-15 2435.7)
(10014.2 -369.912 -1.12384e-14 568.946 -6.49936e-15 2442.26)
(10010 -198.479 -7.40428e-14 584.437 -8.41807e-14 2444.86)
(12202.7 -81.7428 2.24915e-14 -994.954 2.48506e-14 2586.4)
(12077.4 -230.839 4.47847e-14 -1046.99 2.25764e-14 2545.48)
(11880.2 -391.454 2.41438e-14 -1073.57 2.47538e-14 2493.83)
(11679.6 -536.971 1.70939e-28 -1048.92 1.54651e-29 2453.24)
(11481 -658.83 5.63307e-14 -984.547 3.15188e-14 2422.27)
(11290.2 -755.235 -1.834e-14 -891.56 4.15416e-15 2399.68)
(11110.8 -827.336 -1.7781e-14 -779.275 4.22082e-15 2384.2)
(10945.1 -877.32 2.48791e-14 -654.992 2.10223e-14 2374.64)
(10793.9 -907.498 2.92266e-14 -524.367 6.05481e-15 2369.89)
(10657.3 -919.923 4.1e-14 -391.815 1.54391e-14 2368.96)
(10535.1 -916.261 2.425e-14 -260.871 1.82621e-14 2370.98)
(10426.8 -897.729 -1.59333e-14 -134.463 2.93487e-15 2375.14)
(10331.6 -865.079 -3.83039e-15 -15.1464 1.075e-14 2380.73)
(10249.2 -818.632 1.17558e-14 94.7223 7.95316e-15 2387.06)
(10179 -757.948 5.02863e-14 192.725 2.16489e-14 2393.48)
(10120.6 -681.126 1.15215e-14 276.365 7.36544e-15 2399.31)
(10073.9 -586.209 5.90873e-30 343.145 1.62944e-30 2403.93)
(10037.9 -475.136 4.90527e-14 389.873 2.19834e-14 2406.42)
(10018.3 -350.472 2.2328e-14 413.582 1.38346e-14 2407.36)