/*--------------------------------*- C++ -*----------------------------------*\
| =========                 |                                                 |
| \\      /  F ield         | OpenFOAM: The Open Source CFD Toolbox           |
|  \\    /   O peration     | Version:  2.3.0                                 |
|   \\  /    A nd           | Web:      www.OpenFOAM.org                      |
|    \\/     M anipulation  |                                                 |
\*---------------------------------------------------------------------------*/
FoamFile
{
    version     2.0;
    format      ascii;
    class       volScalarField;
    location    "2.7";
    object      alpha.water;
}
// * * * * * * * * * * * * * * * * * * * * * * * * * * * * * * * * * * * * * //

dimensions      [0 0 0 0 0 0 0];

internalField   nonuniform List<scalar> 
2268
(
0.990712
0.995904
0.995962
0.992028
0.990529
0.990522
0.997391
0.999995
0.999961
0.999948
0.998989
0.998485
0.997464
0.986656
0.989803
0.996988
0.999762
0.999762
0.999669
0.999711
0.999823
0.999823
0.999804
0.899789
0.982451
0.993657
0.999992
0.999999
0.999704
0.999772
0.999999
0.999383
0.979071
0.953619
0.95615
0.977802
0.986445
0.989765
0.996554
0.999759
0.999762
0.999652
0.999562
0.999631
0.999823
0.999825
0.89234
0.962534
0.99945
0.999999
0.999999
0.999999
0.999999
0.999999
0.999997
0.961044
0.934882
0.932892
0.933116
0.960425
0.99221
0.993637
0.994779
0.996188
0.99944
0.999683
0.999588
0.999588
0.999839
0.89234
0.90286
0.994228
0.999992
0.999999
0.999999
0.999999
0.999921
0.996276
0.999803
0.999814
0.964402
0.9329
0.933845
0.967356
0.997706
0.997807
0.997637
0.999261
0.999933
0.99959
0.9996
0.999834
0.892417
0.892785
0.932532
0.985506
0.999961
0.999997
0.999978
0.99873
0.999543
0.999812
0.99983
0.999825
0.975473
0.938637
0.968586
0.999475
0.999873
0.999902
0.999916
0.999935
0.999914
0.99993
0.999887
0.974873
0.893119
0.893386
0.895658
0.960807
0.999008
0.999972
0.999766
0.999555
0.99947
0.999374
0.999809
0.999416
0.994191
0.993639
0.99793
0.999923
0.999856
0.999935
0.999935
0.999935
0.999936
0.999937
0.995639
0.965208
0.913459
0.901793
0.905393
0.977073
0.997286
0.993312
0.985718
0.988944
0.998035
0.999831
0.999773
0.9997
0.999436
0.999427
0.999925
0.999986
0.999684
0.99726
0.999935
0.999937
0.999937
0.995768
0.995806
0.995936
0.987687
0.968675
0.962676
0.976779
0.97605
0.976063
0.979316
0.998839
0.99993
0.999743
0.99953
0.999765
0.999981
0.999987
0.999988
0.989087
0.98898
0.993066
0.999093
0.999937
0.936111
0.942346
0.991031
0.997351
0.998463
0.997757
0.99775
0.997749
0.997747
0.997725
0.99709
0.997095
0.998393
0.998419
0.955065
0.92704
0.966226
0.965464
0.941161
0.936111
0.936113
0.954707
0.99917
0.999173
0.999036
0.998972
0.999169
0.999165
0.999163
0.999093
0.997209
0.998269
0.998408
0.989165
0.92708
0.913895
0.892158
0.877876
0.936113
0.936112
0.936465
0.999173
0.999174
0.999174
0.999174
0.999173
0.998946
0.999161
0.999151
0.99898
0.996816
0.998417
0.998409
0.967925
0.87788
0.877879
0.877876
0.947971
0.981475
0.937057
0.998724
0.999167
0.999174
0.999174
0.997526
0.995635
0.9987
0.997667
0.980828
0.974028
0.982208
0.998167
0.998062
0.896311
0.877879
0.877879
0.990078
0.99865
0.976993
0.997911
0.999174
0.999174
0.999174
0.995647
0.995637
0.998254
0.982206
0.937562
0.960121
0.990812
0.998087
0.998089
0.992158
0.889268
0.877991
0.975232
0.998672
0.999113
0.998913
0.999171
0.999174
0.998946
0.995673
0.997521
0.998759
0.97802
0.937502
0.939977
0.998087
0.998089
0.998089
0.997883
0.890305
0.965388
0.986048
0.994871
0.999165
0.999173
0.999173
0.999174
0.99886
0.998816
0.998799
0.998787
0.998689
0.96529
0.938786
0.969358
0.998087
0.998089
0.91184
0.923784
0.983868
0.989126
0.994468
0.990746
0.999165
0.999173
0.99765
0.982606
0.998799
0.998797
0.998797
0.998776
0.997751
0.940835
0.929742
0.990432
0.959607
0.907069
0.983843
0.983868
0.995653
0.995919
0.996295
0.996449
0.996603
0.987714
0.976499
0.976063
0.976037
0.98595
0.999734
0.999972
0.999961
0.999978
0.999987
0.999987
0.999988
0.999988
0.99829
0.991701
0.992162
0.998527
0.999912
0.995481
0.995372
0.99592
0.996495
0.996984
0.997258
0.99749
0.997614
0.998823
0.999968
0.999972
0.999973
0.999974
0.999977
0.999983
0.977677
0.947217
0.943414
0.967673
0.970326
0.97122
0.977266
0.990189
0.948976
0.863736
0.903757
0.974511
0.996474
0.99701
0.997258
0.99762
0.999668
0.999964
0.999968
0.98774
0.923341
0.794493
0.634908
0.482706
0.41163
0.388368
0.301975
0.216385
0.170118
0.143261
0.111517
0.288887
0.153883
0.210559
0.402302
0.727771
0.853727
0.806505
0.741367
0.700955
0.708216
0.698652
0.624772
0.446406
0.224058
0.0817711
0.0289506
0.0165951
0.00197867
0.000353708
0.00018147
5.21006e-05
5.16942e-05
4.75976e-05
7.41154e-05
5.35791e-05
4.02009e-05
3.75233e-05
0.0142508
0.120679
0.257477
0.260066
0.189586
0.108039
0.0833034
0.0612153
0.0361499
0.0150365
0.000826929
0.000435854
0.000212827
5.53156e-05
6.04543e-05
4.29215e-05
4.56027e-05
7.80123e-05
4.55235e-05
9.98274e-05
0.000110091
0.00025315
3.48484e-05
1.41451e-05
1.33933e-05
1.06152e-05
7.80801e-06
7.94263e-06
-6.75981e-06
1.9397e-05
6.65274e-05
2.23036e-05
5.22288e-05
0.000370978
0.000147118
9.38768e-05
2.51707e-05
3.44823e-05
3.30374e-05
3.86838e-05
4.78451e-05
2.753e-05
0.000163468
0.000704778
0.000822556
0.000500264
1.90938e-05
1.34762e-05
1.07773e-05
1.55778e-05
2.82498e-05
1.34023e-05
6.2197e-06
7.20777e-06
1.51678e-05
2.22627e-05
0.00101979
0.000250625
8.83816e-06
1.55317e-05
3.74467e-05
2.93538e-05
8.44834e-06
6.54605e-06
6.42062e-06
0.000317814
0.000819967
0.00082435
0.000678905
8.51119e-05
1.4278e-05
8.08008e-06
5.95779e-06
5.91373e-06
5.8946e-06
5.8945e-06
6.32887e-06
0.000252556
0.000451333
0.000568308
9.91512e-05
6.5048e-06
1.21052e-05
3.92779e-05
1.89059e-05
6.54479e-06
6.48271e-06
6.41048e-06
0.000229143
0.000528449
0.000793774
0.000674226
0.000787052
0.000449431
1.00754e-05
6.00985e-06
5.95394e-06
5.8946e-06
5.34029e-05
0.000537385
0.000714483
0.000696621
3.80664e-05
6.31898e-06
5.68948e-06
1.45128e-05
3.18822e-05
7.11064e-06
6.62367e-06
6.50688e-06
6.44096e-06
0.000229143
0.000229157
0.000377865
0.00101519
0.00105343
0.00104966
0.000240219
6.4873e-06
6.0132e-06
7.88832e-06
0.000425421
0.000714483
0.000714925
0.000715298
9.2968e-06
5.60748e-06
5.61857e-06
6.66592e-06
7.14044e-06
7.4923e-06
1.0762e-05
1.23737e-05
7.77519e-06
0.000254208
0.00045777
0.000715848
0.000653134
0.00102526
0.00105343
0.000928321
4.49259e-05
6.49256e-06
7.19069e-06
0.00033874
0.000708283
0.000714972
0.000311616
6.0171e-06
5.52646e-06
5.61811e-06
5.72331e-06
5.88177e-06
1.19932e-05
1.83549e-05
1.81505e-05
1.28772e-05
0.000745457
0.000745457
9.7207e-05
1.94357e-05
0.000153429
0.00103472
0.00105002
0.000487006
7.19072e-06
8.60596e-06
3.92475e-05
0.000148029
0.000146496
1.06305e-05
6.58137e-06
5.56585e-06
5.68436e-06
5.66331e-06
1.14194e-05
1.83574e-05
1.83549e-05
1.80262e-05
9.48349e-06
0.000745457
0.000342413
9.96796e-06
1.47018e-05
1.94357e-05
0.000273893
0.00105002
0.00101062
0.000112027
9.80149e-06
1.46843e-05
1.10274e-05
7.82217e-06
5.76111e-06
5.60348e-06
5.58375e-06
5.67948e-06
5.6645e-06
7.62674e-06
9.2062e-06
1.75094e-05
1.80261e-05
1.0042e-05
0.000277921
8.87126e-06
9.43287e-06
9.95793e-06
2.33316e-05
8.49494e-05
0.000542546
0.00101257
0.000972979
0.000100825
1.11042e-05
8.33484e-06
6.26783e-06
5.68386e-06
5.54034e-06
5.68802e-06
5.65957e-06
5.66774e-06
5.64721e-06
5.77092e-06
7.3721e-06
1.46425e-05
1.59291e-05
8.84476e-06
8.84476e-06
8.89243e-06
9.90385e-05
0.000743532
0.000582931
0.000354733
0.000676024
0.000964969
0.000969797
0.000493279
1.34089e-05
6.70041e-06
5.53782e-06
5.3131e-06
5.55092e-06
5.64882e-06
5.64542e-06
5.69578e-06
7.05511e-06
0.000188111
0.0003006
0.000146132
8.84476e-06
8.88248e-06
1.31358e-05
0.000617862
0.00154544
0.00152726
0.00109371
0.000776829
0.000839671
0.000969797
0.000970246
0.000953978
0.000570057
1.18034e-05
5.47793e-06
5.57524e-06
3.01323e-05
9.9632e-05
0.000126733
0.000536187
0.00189609
0.00179495
0.000333545
8.88248e-06
9.12043e-06
2.71945e-05
0.000993583
0.00154173
0.00153973
0.00153086
0.00152445
0.000639147
0.000549198
0.000770751
0.000755488
0.000378737
6.50133e-05
0.000208007
0.00127541
0.00189182
0.00191903
0.00190775
0.00189083
0.00190863
0.00191423
0.000522144
9.12044e-06
9.93987e-06
2.77255e-05
0.000910473
0.00158175
0.0015446
0.00153557
0.00137135
0.000355243
0.000351315
0.000335766
0.000323827
0.000306134
0.00029201
0.000325139
0.000368107
0.000402563
0.00188417
0.00188269
0.00189244
0.00189367
0.000866506
0.000523358
9.12329e-06
1.5028e-05
4.01361e-05
0.00033265
0.00159723
0.00156304
0.00119825
0.000558454
0.000400696
0.000428693
0.000498191
0.000505553
0.000522975
0.000464681
0.000408074
0.000867706
0.0017584
0.00181484
0.00184309
0.00173892
0.000495851
0.000452067
0.00086799
7.84976e-05
0.000348831
6.5754e-05
0.000106902
0.000895667
0.00100043
7.75853e-05
0.00059595
0.00110227
0.00110282
0.00109467
0.0010549
0.00106563
0.00114474
0.00121347
0.00125021
0.00123403
0.00111447
0.000430696
3.66473e-05
8.13734e-05
0.000791691
0.000876531
0.000279446
0.000889679
0.000102624
9.11661e-05
0.000143278
0.000198247
7.69943e-05
9.12879e-05
0.000532601
0.000310568
8.56741e-06
8.61044e-06
8.61044e-06
8.68435e-06
1.05139e-05
6.50577e-05
3.386e-05
3.14639e-05
3.15209e-05
3.14827e-05
0.000459595
0.000786802
0.000232733
0.000379373
0.000889679
0.000736798
0.000106801
0.00010489
0.000126844
9.72207e-05
1.00306e-05
9.84804e-06
9.18408e-06
8.63419e-06
8.54403e-06
8.6856e-06
2.18809e-05
1.79669e-05
0.000267882
0.000629428
6.78435e-05
3.15209e-05
0.000186889
0.000463011
0.000449721
6.01686e-06
0.000504
0.000889679
0.000888078
0.000391154
0.000106656
0.000275804
0.000350303
7.41752e-05
1.00378e-05
9.82835e-06
9.18411e-06
8.78612e-06
9.33428e-06
0.000128248
4.13835e-05
0.000287717
0.000754415
0.000105789
3.55369e-05
0.000341872
0.000461281
8.04851e-06
3.79652e-06
0.000912818
0.000901181
0.000505757
0.000596749
0.000355188
0.000289354
0.000348956
0.000215958
1.74439e-05
5.90062e-05
3.44158e-05
1.09003e-05
1.3165e-05
0.000131763
0.000129057
2.35577e-05
0.000753816
6.41308e-05
4.85978e-05
0.000289524
0.000214019
3.87657e-06
2.8823e-06
0.000912818
0.000391583
0.000329265
0.000435551
0.000448407
0.000161739
4.73222e-05
7.18336e-05
0.000406388
0.000909942
0.000721299
0.000191547
4.94945e-05
0.00013283
0.000131762
2.1802e-05
0.000409074
0.000344177
2.3383e-05
3.53654e-05
1.32924e-05
2.17041e-05
8.4519e-06
0.00091185
0.000237997
0.000477606
0.000413444
0.000100324
2.9855e-05
3.62374e-05
0.000345935
0.000948432
0.000950598
0.00095017
0.000713801
0.000133121
0.000119908
6.38287e-05
4.97727e-06
3.62526e-05
0.000546274
1.71805e-05
9.86294e-06
9.23278e-06
2.16628e-05
1.87461e-05
0.000394036
0.000237162
0.000748407
0.000749714
0.000139852
2.61147e-05
0.000150248
0.000945948
0.000948679
0.000949927
0.000951799
0.000674756
0.000181098
7.88468e-05
4.00557e-06
3.89114e-06
4.16739e-05
0.000546524
3.40912e-05
9.17737e-06
9.15704e-06
1.22781e-05
1.8957e-05
0.000194386
0.000444042
0.000749736
0.000742305
0.000137879
2.4516e-05
0.000248854
0.000935439
0.000947047
0.000951312
0.000656472
0.0002077
0.000194782
3.44778e-05
3.63831e-06
3.72425e-06
6.42257e-06
0.000546524
5.48626e-05
9.06276e-06
9.01354e-06
9.09778e-06
1.41671e-05
0.000227081
0.000725863
0.000740714
0.000196727
3.96024e-05
2.35037e-05
5.66249e-05
0.000423179
0.000627236
0.000374591
0.000173559
0.000218199
0.000134795
2.84472e-06
3.48242e-06
3.64052e-06
3.72635e-06
0.00054367
1.25812e-05
9.04656e-06
8.81413e-06
8.73998e-06
8.95838e-06
0.000638039
0.000732924
0.000193237
3.51854e-08
5.28712e-06
1.34595e-05
3.8753e-05
4.46357e-05
5.25001e-05
9.57412e-05
0.000181801
0.000185455
1.28743e-05
3.7216e-08
3.58132e-06
5.76849e-06
3.93066e-06
0.000291111
0.000124743
1.20938e-05
8.73219e-06
8.39824e-06
8.67143e-06
0.000419169
0.000567446
3.52462e-08
2.38713e-08
3.51556e-08
1.30287e-05
7.78455e-05
5.38935e-05
8.10659e-05
0.000150298
0.000142683
4.34793e-05
1.28067e-09
1.40786e-08
4.48223e-06
7.77957e-06
4.08007e-06
9.47967e-05
0.000575069
2.96794e-05
8.68614e-06
7.67991e-06
8.674e-06
0.000117059
1.08782e-07
2.3881e-08
2.12023e-08
2.31949e-08
4.8069e-06
0.000125287
0.000157494
0.000157917
0.00013681
4.43901e-05
1.55367e-10
2.39329e-10
1.2813e-09
8.98597e-07
6.33998e-06
4.21265e-06
0.00017151
0.000586362
7.54712e-05
8.48712e-06
8.41297e-06
8.55901e-06
6.34477e-06
2.42505e-08
2.1254e-08
2.09045e-08
2.114e-08
4.98593e-07
4.93635e-05
0.000116366
0.000100265
7.61924e-06
1.18997e-10
1.20977e-10
1.56466e-10
5.36659e-10
5.08405e-09
5.75803e-08
1.90921e-05
0.000415467
0.000586362
0.000150568
8.47197e-06
8.31234e-06
8.21259e-06
3.11871e-08
2.5544e-08
2.20255e-08
2.09043e-08
2.03691e-08
2.06368e-08
4.084e-09
1.06488e-05
1.60053e-10
1.18997e-10
1.06028e-10
1.45982e-10
2.34853e-10
1.19818e-09
1.29601e-08
1.53087e-07
1.70087e-05
0.000402772
0.000586362
0.00015597
8.2939e-06
8.21822e-06
8.0613e-06
6.60415e-08
7.61936e-08
9.49935e-08
2.09943e-08
5.99923e-08
7.34527e-08
3.46846e-09
2.52996e-09
1.50118e-09
1.83574e-10
9.90255e-11
4.65539e-10
5.60693e-10
1.06262e-09
1.20927e-08
1.25972e-07
5.86253e-06
0.000150521
0.00040894
0.000107853
8.49916e-06
8.24974e-06
8.19016e-06
9.58756e-12
9.76109e-08
9.75583e-08
1.82866e-08
5.58836e-07
1.59041e-06
4.08856e-09
9.728e-09
3.38791e-08
8.52786e-09
1.54741e-11
5.68102e-10
8.62516e-10
9.94482e-10
2.16318e-09
2.01745e-08
1.87084e-06
8.18069e-06
1.60491e-05
2.99632e-05
2.34909e-05
2.03216e-05
1.46535e-05
6.27501e-18
5.68309e-08
9.20326e-08
1.15474e-08
8.73979e-07
1.91998e-06
1.02732e-07
1.39957e-08
4.34492e-08
2.13673e-08
5.03304e-12
3.38676e-10
9.51944e-10
9.99052e-10
1.08921e-09
1.92498e-09
1.14401e-07
6.01695e-07
6.07409e-07
1.05639e-06
9.75241e-06
1.75148e-05
1.73309e-05
2.45857e-17
1.29343e-14
5.33296e-09
2.97e-09
8.30626e-07
1.92058e-06
1.08118e-07
2.02463e-09
4.13508e-08
9.91902e-09
2.46538e-12
9.89806e-11
6.46953e-10
1.02606e-09
9.5742e-10
7.75383e-10
3.61261e-09
3.16112e-08
7.18687e-08
2.35351e-07
8.72837e-07
6.34835e-06
1.03767e-05
1.09688e-16
7.40574e-14
1.63713e-13
1.81635e-11
3.15275e-07
1.91617e-06
6.7567e-13
7.13533e-13
8.68484e-10
8.04834e-14
2.09959e-12
1.1115e-11
2.12447e-10
7.70042e-10
9.6689e-10
7.16182e-10
4.7615e-10
1.51538e-09
1.09541e-08
1.10289e-07
6.76851e-07
2.46306e-07
2.99269e-07
2.98673e-16
1.49e-13
1.12349e-12
2.72143e-12
2.63151e-08
3.00104e-07
2.31199e-18
5.65861e-17
7.99497e-17
8.02498e-14
9.73727e-13
3.70511e-12
1.40422e-11
2.52549e-10
6.93028e-10
7.27775e-10
3.36105e-10
3.47943e-10
1.76598e-09
1.15954e-07
2.63368e-07
2.03637e-08
2.01926e-08
6.37776e-17
2.62863e-14
1.09391e-12
3.02895e-12
1.43343e-24
4.35746e-23
2.31129e-18
6.45039e-17
1.0866e-15
1.21979e-14
9.25623e-14
5.44007e-13
2.6354e-12
1.0857e-11
7.04168e-11
2.51354e-10
2.64248e-10
1.06589e-10
5.23846e-09
3.05553e-08
5.21468e-09
7.11773e-09
8.3165e-09
3.17811e-19
5.27687e-16
3.40961e-14
1.27925e-14
1.39272e-24
1.60793e-22
1.63321e-20
6.42858e-19
1.35096e-17
1.70996e-16
1.13238e-15
2.45573e-15
4.27978e-15
8.95258e-14
1.44434e-12
1.63584e-11
7.71277e-11
8.5634e-11
7.39881e-10
8.29836e-10
2.84378e-09
5.45075e-09
7.1174e-09
0.999863
0.999838
0.99958
0.992066
0.968002
0.883989
0.669907
0.409729
0.0411774
0.000152627
0.000254829
0.000249554
4.11599e-05
2.92222e-05
0.000366555
0.000476447
3.0729e-05
2.74902e-05
2.73526e-05
2.98722e-05
3.15635e-05
2.90731e-05
2.72178e-05
2.46031e-05
6.36567e-06
8.95357e-06
1.18169e-05
1.64672e-05
6.35421e-06
6.37893e-06
6.36003e-06
6.37909e-06
6.40629e-06
6.38247e-06
6.3803e-06
6.36489e-06
5.96516e-06
6.36788e-06
6.4574e-06
6.30307e-06
5.86137e-06
5.97162e-06
6.30895e-06
6.16259e-06
6.57321e-06
5.87719e-06
6.5396e-06
6.34147e-06
7.17917e-06
7.08315e-06
6.91025e-06
7.02651e-06
6.89499e-06
9.19169e-06
1.15263e-05
1.0534e-05
4.64736e-05
0.000385372
0.000374728
3.05019e-05
0.000173256
0.000644618
0.000832401
0.000523513
0.000291488
0.000467572
0.000860667
0.000892583
0.000491395
0.000669836
0.000982159
0.000986339
0.000976489
0.000981234
0.000983514
0.000983795
0.000802302
0.000377438
0.000441869
0.00043213
2.66942e-05
8.96744e-06
1.76909e-05
3.0517e-05
3.78527e-06
3.35241e-06
4.36615e-06
1.99058e-05
2.39473e-06
1.45857e-06
3.30636e-06
1.19007e-05
1.89986e-06
1.01327e-06
9.72093e-07
1.08327e-06
2.00578e-06
9.87585e-07
8.84746e-07
7.01014e-07
5.98374e-06
1.0325e-06
9.75944e-07
8.46863e-07
1.16358e-05
1.32819e-06
5.88029e-06
0.000134126
1.16536e-05
6.73562e-06
8.8748e-05
0.000338626
9.81524e-06
2.68371e-05
0.000327197
0.000439849
9.69418e-06
0.00015443
0.000444552
0.000445633
8.49866e-05
0.000443247
0.000443467
0.000441459
0.000394422
0.000443603
0.000442385
0.000442631
0.0002553
0.000449751
0.000444209
0.000442796
1.24142e-05
0.000157302
0.000275752
0.000442671
7.80214e-06
6.05514e-06
1.58677e-05
4.52758e-05
7.35357e-06
2.68852e-06
1.34884e-06
1.79669e-06
1.08632e-05
1.8872e-06
6.46021e-07
1.26358e-06
8.16793e-06
1.75273e-06
3.48868e-07
1.38627e-06
2.53242e-06
1.1624e-06
2.48139e-07
2.08189e-06
3.16406e-08
9.28794e-08
2.21465e-07
9.70129e-07
9.58065e-09
8.33335e-09
7.81667e-08
2.09077e-08
8.02943e-09
8.33234e-09
8.33345e-09
1.02261e-08
0.882577
0.732969
0.817311
0.813303
0.713149
0.767601
0.911937
0.926063
0.936122
0.959736
0.964556
0.940035
0.928699
0.917514
0.922104
0.971172
0.982244
0.983838
0.983868
0.120476
0.0302474
0.0443867
0.0352407
0.0351773
0.0880037
0.220614
0.303406
0.434833
0.689133
0.632065
0.489478
0.603472
0.790679
0.863486
0.896687
0.900458
0.904727
0.926587
0.000252861
0.000249672
0.000302659
0.000353498
0.0010986
0.00104043
0.000584066
0.00054403
0.00468021
0.07185
0.0742721
0.023812
0.000760166
0.0165329
0.0861259
0.14705
0.176461
0.185959
0.225561
0.000523414
0.000946731
0.00108878
0.00118494
0.00185227
0.0016102
0.000415111
0.00016864
0.00012283
0.000121596
0.000123954
0.000400067
0.000596644
0.000139486
0.000217883
0.000269791
0.000291141
0.00030812
0.000322469
7.58583e-05
1.74874e-05
5.0464e-05
0.000257974
0.0006162
0.00110623
0.000564216
0.000109092
4.9138e-05
4.20303e-05
3.91925e-05
3.70564e-05
0.00013733
7.40289e-05
0.00021098
0.000363741
0.00082886
0.000822903
0.000328337
2.05634e-05
1.72188e-05
1.46367e-05
1.53218e-05
1.71606e-05
0.000143812
0.000404786
0.000147454
3.51297e-05
3.40634e-05
3.4504e-05
3.44546e-05
3.58322e-05
4.40556e-05
0.000236814
0.00134883
0.00132302
0.00129952
0.000477396
2.09432e-05
1.45908e-05
1.36544e-05
1.45208e-05
0.000264985
0.000430906
0.000214578
3.42504e-05
3.40482e-05
3.412e-05
3.42624e-05
3.44335e-05
3.52175e-05
4.39516e-05
0.00102059
0.00135475
0.00109626
0.000599742
0.0003924
9.18727e-06
1.05788e-05
1.24358e-05
0.000278727
0.000468694
0.000444325
5.01171e-05
3.38783e-05
3.39109e-05
3.39512e-05
3.40367e-05
3.41963e-05
3.44937e-05
3.51206e-05
0.000382899
0.00136101
0.000948575
0.000379902
0.000379339
6.28369e-06
6.53438e-06
1.0527e-05
0.000428114
0.000468694
6.98417e-05
3.38274e-05
3.38612e-05
3.38782e-05
3.39109e-05
3.3951e-05
3.40328e-05
3.41522e-05
3.44494e-05
0.00033473
0.00136534
0.00129466
0.000379339
0.000379339
6.15207e-06
7.23596e-06
1.51644e-05
0.000412717
0.000338691
3.63208e-05
3.3805e-05
5.94203e-05
0.000201172
0.000145137
5.93879e-05
5.86855e-05
5.07458e-05
3.87848e-05
0.000436378
0.00136964
0.00136523
0.000533177
0.000470404
6.04093e-06
0.000325383
0.000332822
0.000411389
0.000327032
3.6833e-05
0.000106615
0.000382522
0.000382307
0.000374392
0.000360009
0.000339061
0.00031592
0.000175772
0.00113144
0.00137117
0.00136964
0.00124276
0.000281963
6.45295e-06
0.000844423
0.000837256
0.000407359
0.000302433
4.1786e-05
0.000190776
0.000382522
0.000382692
0.000380348
0.000172096
0.000177075
0.000198308
0.000239674
0.0010901
0.00137049
0.0013496
0.000252492
0.000247721
0.000294197
0.000948575
0.000846982
0.000184839
0.000137396
7.0122e-05
0.000379426
0.000382682
0.000279022
6.94431e-05
7.60233e-05
8.26034e-05
8.59307e-05
9.18027e-05
0.000131045
0.00100628
0.000948186
0.000247721
0.000247721
0.000575736
0.000986286
0.00099085
0.000223307
0.000129927
0.000135121
0.000372432
0.000373606
6.94431e-05
6.94431e-05
9.21759e-05
0.000240083
0.000192329
0.00011117
0.000111268
0.000113837
0.000641744
0.000544728
0.000295157
0.000599133
0.000990758
0.000991418
0.000944583
0.000129786
0.000188674
0.000369748
0.000301435
7.5529e-05
9.83575e-05
0.000402543
0.000548504
0.000548504
0.000548504
0.000297863
0.000135356
0.000154097
0.000339392
0.000397902
0.000510436
0.000875526
0.000992348
0.000991418
9.48876e-05
0.000104037
0.000302533
8.60052e-05
9.3583e-05
0.00022902
0.000338846
0.000229949
0.000407882
0.000542125
0.000533624
0.000225545
0.000154097
0.000179225
0.000397902
0.000927944
0.000991793
0.000991793
0.000952254
4.57744e-05
4.62552e-05
4.92551e-05
4.98517e-05
0.000228877
0.000236249
2.31663e-05
1.83434e-06
1.71705e-06
0.000210139
0.000529127
0.000529139
0.000161462
9.55487e-05
0.000210208
0.000987218
0.000988886
0.000991793
0.000210129
4.39398e-05
4.41215e-05
4.62552e-05
4.93522e-05
0.000303059
0.000199694
2.86157e-06
1.71703e-06
1.71705e-06
1.71705e-06
0.000465734
0.000532405
0.00021417
9.55487e-05
0.000301993
0.000986565
0.000917291
0.000369102
3.32517e-05
4.38816e-05
4.4017e-05
5.36909e-05
0.000226832
0.000201266
0.000101534
6.39621e-05
4.14805e-06
1.71705e-06
5.75461e-06
0.000515307
0.000532405
0.000121324
9.77112e-05
0.000880035
0.000317408
0.000159613
3.47426e-05
2.2004e-05
6.66806e-05
0.000120344
0.000245611
0.000289309
3.87324e-05
0.000214549
0.000212967
1.35908e-05
1.80482e-06
4.30555e-05
0.00052182
0.000528569
0.000105209
0.00012597
0.000880294
5.97597e-05
9.97172e-05
2.00063e-05
9.0038e-06
5.7585e-05
0.000100944
0.000129802
8.87354e-05
3.77329e-05
0.000215094
0.000214549
2.91693e-06
1.9493e-06
9.6177e-05
0.000513583
0.000255716
0.000105209
0.000260721
0.000880294
5.79412e-05
7.0439e-05
2.39567e-05
2.65263e-06
6.70412e-06
7.70114e-06
5.65704e-06
5.05329e-07
4.13847e-05
0.000215192
0.000107378
9.64491e-07
2.92428e-06
5.3998e-05
9.37445e-05
8.03113e-05
0.000150136
0.000456962
0.000280604
1.48617e-05
4.09847e-06
4.12634e-06
3.81404e-07
1.9522e-07
1.15625e-07
9.05281e-08
3.59191e-07
8.55065e-05
0.000215192
1.59847e-05
9.48213e-07
9.64493e-07
1.95212e-06
6.35196e-06
6.70427e-05
0.000455478
0.000457368
0.000168262
7.00625e-07
4.60824e-07
2.83573e-07
1.98569e-07
1.11247e-07
6.78553e-08
7.13807e-08
9.05921e-08
6.3916e-05
0.000212378
8.77958e-05
9.64493e-07
9.48259e-07
1.17178e-06
3.09303e-06
0.000127612
0.000457773
0.000420653
8.4865e-05
5.10085e-07
3.65612e-07
3.04698e-07
3.25701e-07
1.23231e-07
6.78567e-08
6.78567e-08
7.13806e-08
6.21581e-06
0.000191475
0.000261495
9.64519e-07
1.0912e-06
1.27492e-06
6.96685e-06
0.000287875
0.000465373
5.01164e-05
2.49526e-05
2.04939e-05
7.37704e-05
1.16358e-07
1.07213e-07
9.83094e-08
9.22212e-08
1.60108e-07
1.57945e-07
2.12251e-06
0.000163294
0.000305597
9.83505e-05
1.25305e-06
1.24262e-06
1.04534e-05
0.000356228
0.000465373
0.000143109
2.49526e-05
0.000249857
0.000211593
2.78774e-05
1.11627e-07
1.03701e-07
2.31211e-07
3.29786e-07
2.11328e-07
1.17693e-07
5.1744e-05
0.00031902
0.00031916
3.34636e-06
1.35574e-06
1.39773e-06
0.000136248
0.000465373
0.000155918
2.54532e-05
0.000392001
1.74656e-06
1.31661e-06
4.85722e-06
4.57396e-06
1.72445e-07
1.692e-07
1.82245e-07
5.18479e-09
1.06658e-07
0.000106598
0.000331762
0.000329205
2.09156e-05
2.38502e-06
3.32159e-06
5.75615e-05
9.1855e-06
2.80441e-05
0.000430952
0.000120613
2.29071e-08
6.72449e-07
3.98695e-06
1.84318e-06
4.58527e-08
4.44111e-08
1.36525e-09
5.36371e-09
9.04212e-08
8.53496e-05
0.000354238
0.000391209
0.000163871
7.2111e-06
8.46979e-06
8.59214e-06
0.00034565
0.000439585
0.00020206
1.27413e-08
1.20517e-08
1.13084e-08
2.38602e-07
2.61446e-07
2.58382e-08
1.36471e-09
1.36522e-09
4.8658e-09
9.033e-08
9.82938e-06
0.00039652
0.000445435
0.000182629
8.85082e-06
8.42247e-06
0.000468703
0.000443069
0.000207021
1.22721e-08
1.13128e-08
1.11313e-08
1.08951e-08
3.69279e-08
2.31186e-08
1.36529e-09
3.72952e-09
8.08973e-06
0.000147873
0.000232298
6.38865e-05
0.000327214
0.000811641
0.000102948
8.85081e-06
0.000478419
0.00044145
0.000317691
7.92086e-06
1.66964e-08
1.20262e-08
1.08487e-08
1.34933e-08
1.40542e-08
2.79671e-09
4.73266e-09
6.32658e-05
0.000364576
0.000364576
6.32965e-05
0.000110764
0.000856659
0.000302908
8.51948e-06
0.000564742
0.000443397
0.000305874
9.90215e-06
2.87333e-08
2.02828e-08
6.60696e-09
7.26605e-09
8.73948e-09
2.70753e-09
2.60051e-08
1.31773e-06
0.000277971
0.000364576
0.000109677
0.000170202
0.000856659
0.000251691
7.90706e-06
0.000706674
0.000378605
9.13391e-05
5.61531e-06
5.17141e-07
5.25023e-09
4.61441e-09
4.68443e-09
4.57813e-09
2.12562e-09
1.49012e-09
1.74888e-09
4.5042e-09
0.000161687
0.000141214
0.000150273
0.000740875
4.56437e-05
8.02188e-06
0.000760202
2.77137e-05
9.81106e-06
1.00953e-05
3.68123e-06
4.58278e-09
1.9022e-09
1.83715e-09
1.56416e-09
5.03658e-10
4.58057e-10
9.16287e-08
2.10203e-09
4.50459e-09
9.48072e-05
0.000767579
0.000904227
7.62776e-05
0.000449903
0.000760468
1.93356e-06
6.11079e-06
7.17096e-06
2.65869e-06
2.79053e-09
7.50294e-10
7.47665e-10
6.00428e-10
1.9352e-10
1.32997e-10
1.44947e-10
1.18889e-09
9.31084e-05
0.00026931
0.000906276
0.000906276
0.000635436
0.000272656
0.000229559
1.83816e-06
4.57947e-06
2.6639e-06
3.05447e-07
5.67946e-10
2.53898e-10
4.19474e-10
2.40947e-10
1.07684e-10
1.09329e-10
1.28171e-09
2.0966e-09
0.00012198
0.000741424
0.000906444
0.000324183
0.000137348
4.72923e-06
3.53178e-08
3.20759e-06
2.63044e-06
2.48577e-07
1.06168e-09
1.84693e-10
2.1583e-10
1.66225e-10
4.98491e-11
4.2974e-11
5.48195e-11
1.08777e-05
1.69771e-08
0.000499672
0.000734701
0.000384622
2.88633e-06
3.64606e-07
2.70478e-09
1.73497e-10
3.20241e-06
1.25335e-06
2.3531e-09
1.4309e-10
4.85101e-11
7.79652e-11
4.83266e-11
3.34501e-11
3.35623e-11
3.50392e-06
7.14788e-05
0.000159534
0.000680474
0.000672029
1.2705e-05
1.22135e-05
8.33487e-06
4.88653e-14
4.99901e-13
1.84272e-06
1.85126e-07
3.23637e-10
3.81696e-11
3.02375e-11
3.86363e-11
4.03649e-11
3.43933e-11
1.26679e-09
1.55319e-05
5.03848e-05
0.000157231
0.000482763
0.000298614
1.2701e-05
1.19344e-05
1.23444e-15
1.29745e-14
5.37037e-14
1.90125e-08
7.59056e-10
6.68411e-11
2.37363e-11
2.81286e-11
3.07215e-11
1.70881e-10
9.46263e-10
1.83117e-11
9.9279e-10
5.00448e-06
4.30298e-05
1.54717e-05
1.45061e-05
4.12213e-05
1.50312e-05
4.40628e-16
5.01099e-14
1.8755e-13
1.18604e-09
8.60112e-11
2.35169e-11
1.95408e-11
1.78937e-11
2.93616e-11
1.71866e-10
4.9524e-10
-2.34734e-13
-5.74543e-12
7.48026e-13
4.54708e-08
1.84829e-06
7.16959e-06
4.1225e-05
1.08542e-14
4.40626e-16
1.03778e-14
5.51316e-14
)
;

boundaryField
{
    leftWall
    {
        type            zeroGradient;
    }
    rightWall
    {
        type            zeroGradient;
    }
    lowerWall
    {
        type            zeroGradient;
    }
    atmosphere
    {
        type            inletOutlet;
        inletValue      uniform 0;
        value           nonuniform List<scalar> 
46
(
0
0
0
0
0
0
0
0
0
0
0
0
0
0
0
1.63584e-11
7.71277e-11
8.5634e-11
7.39881e-10
8.29836e-10
2.84378e-09
5.45075e-09
7.1174e-09
8.02943e-09
8.33234e-09
8.33345e-09
1.02261e-08
1.18604e-09
8.60112e-11
2.35169e-11
1.95408e-11
1.78937e-11
2.93616e-11
1.71866e-10
4.9524e-10
0
0
0
4.54708e-08
1.84829e-06
7.16959e-06
4.1225e-05
0
0
0
0
)
;
    }
    defaultFaces
    {
        type            empty;
    }
}


// ************************************************************************* //
