/*--------------------------------*- C++ -*----------------------------------*\
| =========                 |                                                 |
| \\      /  F ield         | OpenFOAM: The Open Source CFD Toolbox           |
|  \\    /   O peration     | Version:  2.3.0                                 |
|   \\  /    A nd           | Web:      www.OpenFOAM.org                      |
|    \\/     M anipulation  |                                                 |
\*---------------------------------------------------------------------------*/
FoamFile
{
    version     2.0;
    format      ascii;
    class       volScalarField;
    location    "2.7";
    object      p;
}
// * * * * * * * * * * * * * * * * * * * * * * * * * * * * * * * * * * * * * //

dimensions      [1 -1 -2 0 0 0 0];

internalField   nonuniform List<scalar> 
2268
(
891.773
894.246
895.715
895.035
892.16
887.517
883.167
876.389
867.825
862.255
857.617
847.326
832.577
819.226
809.396
799.976
789.237
780.019
774.865
772.521
769.832
764.354
762.207
834.567
835.605
837.093
836.094
833.479
828.542
823.94
817.552
808.671
803.316
799.489
789.16
773.765
759.736
749.68
740.321
729.713
720.489
715.245
713.099
710.637
704.8
702.426
780.249
778.427
778.737
776.984
775.481
772.321
767.105
758.745
749.03
745.238
742.722
732.09
715.745
701.2
690.659
680.651
669.222
659.714
654.544
652.61
650.158
644.496
642.36
726.002
723.052
720.575
717.883
717.359
715.803
710.599
700.29
689.575
685.57
682.935
672.572
656.985
642.18
630.84
619.991
608.069
598.309
592.754
590.511
588.189
583.464
582.209
671.694
669.311
664.642
659.721
659.011
658.571
653.244
642.093
630.714
625.526
621.761
610.973
595.558
582.046
570.453
558.544
546.563
536.301
529.573
526.401
524.42
521.177
520.869
614.868
615.575
612.204
605.624
601.808
600.991
595.684
584.372
572.715
566.569
561.146
548.764
533.09
520.17
508.704
496.797
484.816
473.585
464.873
460.231
458.541
456.721
456.509
554.342
560.13
558.894
552.767
547.59
543.821
538.18
527.383
516.21
509.12
501.628
487.569
471.221
457.914
446.671
434.968
422.793
410.193
398.845
392.406
390.631
389.426
386.418
493.189
500.986
501.168
495.518
490.952
487.194
480.922
471.345
461.122
452.859
443.077
427.983
411.108
397.06
385.164
372.867
360.051
346.066
332.518
324.139
321.58
320.039
308.712
550.073
552.035
563.496
564.677
557.359
581.799
601.219
610.533
620.944
631.764
631.48
626.279
632.985
649.694
658.133
658.525
657.974
661.479
667.83
493.428
495.109
505.233
504.086
492.047
518.807
541.284
550.738
561.963
573.072
571.169
563.084
569.892
588.723
599.852
603.273
601.109
603.889
612.463
436.023
438.522
447.731
441.252
429.263
457.007
480.058
490.295
503.411
515.569
510.636
500.058
505.385
524.451
539.706
548.065
549.246
550.627
559.6
377.396
380.663
391.642
380.381
367.741
396.944
418.915
429.716
445.34
458.775
450.258
438.41
442.884
461.642
480.084
493.128
499.555
499.446
507.427
315.436
321.249
336.655
322.093
307.745
337.732
359.499
370.45
388.583
400.951
392.184
380.976
383.798
401.811
421.962
438.745
448.696
449.403
455.67
251.454
262.346
281.833
264.851
251.926
279.444
301.504
312.659
330.625
343.577
336.533
326.466
328.247
343.71
365.131
384.218
394.845
398.782
401.717
192.797
204.981
225.043
207.078
196.319
220.352
244.002
255.214
272.178
287.006
282.045
272.385
274.382
287.365
309.094
329.377
341.154
346.335
345.548
118.981
143.185
162.521
147.226
138.493
161.236
186.608
197.058
213.341
231.244
227.617
218.646
221.309
234.136
254.345
275.691
289.715
290.824
289.18
397.133
403.332
402.112
398.145
396.903
395.87
391.594
384.239
375.026
364.646
352.8
337.794
320.57
304.476
289.919
275.68
262.093
246.68
230.982
220.306
215.189
208.661
171.168
256.178
255.241
253.559
256.198
262.966
268.447
269.046
265.172
256.536
245.514
235.452
224.105
207.085
186.241
163.558
142.542
127.279
114.319
100.445
89.6675
83.1457
79.572
74.5244
109.03
98.0795
102.308
120.245
142.679
154.084
157.439
154.538
146.247
136.628
128.494
120.343
102.6
77.2831
52.0871
34.3222
28.4689
24.5751
18.8217
13.5397
10.7151
9.18678
6.73986
18.6372
10.1954
13.6632
25.4639
51.0075
68.7669
74.1454
66.7662
58.7983
54.8448
52.0568
44.2945
31.2766
15.7587
5.45452
1.87924
0.804517
-0.0110792
-0.148813
-0.224519
-0.121875
-0.0514913
-0.0809011
0.332375
0.365976
0.406062
0.283717
0.896747
7.52483
16.0252
15.9723
11.3553
6.97275
4.66254
2.78566
1.56201
0.366255
-0.352166
-0.227574
-0.287715
-0.379732
-0.403361
-0.437263
-0.401942
-0.35231
-0.261878
0.147289
0.169428
0.161511
0.0719617
-0.0900927
-0.184034
-0.326367
-0.489747
-0.58752
-0.654763
-0.820386
-0.780274
-0.631396
-0.556584
-0.596639
-0.555548
-0.57125
-0.629549
-0.66424
-0.67546
-0.647744
-0.583167
-0.484264
-0.090066
-0.091665
-0.110257
-0.165165
-0.282349
-0.387102
-0.51773
-0.679366
-0.808654
-0.895506
-0.915673
-0.868366
-0.813509
-0.773257
-0.736979
-0.807014
-0.867628
-0.921118
-0.982809
-1.01191
-0.994636
-0.92521
-0.79681
-0.381127
-0.416448
-0.414816
-0.418845
-0.466418
-0.562393
-0.695687
-0.859372
-1.0059
-1.09396
-1.12131
-1.07937
-1.05562
-1.02846
-1.02112
-1.08591
-1.15895
-1.2574
-1.35404
-1.4036
-1.38249
-1.30654
-1.15319
-0.63886
-0.68329
-0.675271
-0.636412
-0.644867
-0.710748
-0.80666
-0.941345
-1.07971
-1.16641
-1.19272
-1.19826
-1.21125
-1.21489
-1.26326
-1.33504
-1.44348
-1.59364
-1.71916
-1.78334
-1.77764
-1.67097
-1.48653
-0.831935
-0.862827
-0.875519
-0.847436
-0.836591
-0.85726
-0.889952
-0.960759
-1.05188
-1.12198
-1.17924
-1.2291
-1.28025
-1.33837
-1.42209
-1.52751
-1.68508
-1.86986
-2.0107
-2.07908
-2.06688
-1.95633
-1.7561
-0.995673
-1.02506
-1.06808
-1.09103
-1.07985
-1.05052
-1.02115
-1.01463
-1.04311
-1.10587
-1.19867
-1.29217
-1.36007
-1.43359
-1.52605
-1.6642
-1.85625
-2.05553
-2.20418
-2.27536
-2.26045
-2.14702
-1.94353
-1.15689
-1.19999
-1.25857
-1.29307
-1.30472
-1.28574
-1.22307
-1.15631
-1.14243
-1.18237
-1.28553
-1.39936
-1.46911
-1.51769
-1.60802
-1.75977
-1.95522
-2.15001
-2.29617
-2.36727
-2.35272
-2.24208
-2.05167
-1.31743
-1.36096
-1.41265
-1.44048
-1.45268
-1.47226
-1.45097
-1.3783
-1.3257
-1.34082
-1.41182
-1.50364
-1.56253
-1.60951
-1.69245
-1.83069
-2.00448
-2.17757
-2.31024
-2.3762
-2.35856
-2.25708
-2.09793
-1.47552
-1.51317
-1.55454
-1.57072
-1.58427
-1.63046
-1.67441
-1.65843
-1.58476
-1.54189
-1.55917
-1.60918
-1.65193
-1.69723
-1.76934
-1.88081
-2.02161
-2.16528
-2.27694
-2.32948
-2.3095
-2.23078
-2.11983
-1.62706
-1.66676
-1.69869
-1.71311
-1.77924
-1.89976
-1.97471
-1.98852
-1.92467
-1.81814
-1.73695
-1.7089
-1.7192
-1.75196
-1.80466
-1.88423
-1.98858
-2.1044
-2.20408
-2.25737
-2.25574
-2.22865
-2.1772
-1.77254
-1.81588
-1.84323
-1.8788
-2.07479
-2.32943
-2.42765
-2.41129
-2.33074
-2.17231
-1.98877
-1.85594
-1.78855
-1.77268
-1.8045
-1.87229
-1.9631
-2.06247
-2.16269
-2.24916
-2.30459
-2.32134
-2.30411
-1.91128
-1.94438
-1.96604
-2.03895
-2.34707
-2.72486
-2.91062
-2.88204
-2.71368
-2.48224
-2.23759
-2.02809
-1.87947
-1.79644
-1.79435
-1.8646
-2.00599
-2.15526
-2.28736
-2.37827
-2.44592
-2.48265
-2.48722
-2.03773
-2.05635
-2.07567
-2.16486
-2.47408
-2.87494
-3.11331
-3.10452
-2.8863
-2.63258
-2.3729
-2.14479
-1.97779
-1.8854
-1.88522
-1.96242
-2.11217
-2.3065
-2.47832
-2.59412
-2.65705
-2.66758
-2.68087
-2.16176
-2.17203
-2.20253
-2.3034
-2.52252
-2.81079
-2.9979
-3.03054
-2.88935
-2.68075
-2.47131
-2.27167
-2.117
-2.03782
-2.04911
-2.13802
-2.33897
-2.6282
-2.80252
-2.86932
-2.85959
-2.83448
-2.9026
-2.30325
-2.32093
-2.36308
-2.47561
-2.62715
-2.77964
-2.89484
-2.94542
-2.90011
-2.7849
-2.63579
-2.48478
-2.37062
-2.3193
-2.3569
-2.45193
-2.63796
-2.84597
-2.95767
-2.99466
-2.9784
-2.97663
-3.05657
-2.48588
-2.51717
-2.53515
-2.64871
-2.76882
-2.83251
-2.88583
-2.95237
-2.97294
-2.94773
-2.87533
-2.78125
-2.69122
-2.63639
-2.65631
-2.72771
-2.8411
-2.96837
-3.02173
-3.04263
-3.05185
-3.09408
-3.15094
-2.71
-2.7369
-2.72322
-2.78759
-2.88431
-2.95856
-3.01781
-3.08346
-3.12164
-3.10926
-3.06599
-3.01006
-2.9428
-2.87031
-2.84974
-2.9013
-2.98097
-3.06242
-3.0752
-3.09304
-3.12417
-3.18259
-3.22692
-2.94125
-2.96984
-2.92951
-2.93783
-3.01758
-3.10905
-3.18916
-3.24413
-3.26891
-3.26026
-3.23204
-3.19635
-3.15155
-3.08572
-3.04018
-3.06364
-3.11647
-3.15572
-3.15409
-3.1665
-3.20492
-3.2724
-3.32526
-3.16236
-3.21172
-3.14153
-3.13437
-3.1918
-3.27564
-3.34078
-3.37196
-3.3842
-3.37964
-3.35755
-3.33067
-3.30143
-3.2583
-3.22364
-3.22343
-3.25821
-3.24982
-3.25275
-3.26559
-3.31751
-3.39173
-3.45609
-3.36564
-3.39887
-3.34417
-3.36285
-3.41968
-3.46205
-3.47482
-3.46844
-3.48183
-3.51908
-3.51989
-3.48079
-3.44383
-3.4134
-3.40236
-3.39352
-3.4185
-3.36659
-3.3788
-3.39094
-3.45518
-3.54211
-3.6121
-3.54866
-3.55944
-3.53819
-3.59758
-3.66652
-3.66447
-3.62562
-3.60118
-3.65963
-3.75722
-3.78795
-3.72036
-3.63999
-3.60123
-3.59625
-3.58275
-3.58646
-3.52579
-3.53246
-3.54401
-3.62188
-3.71667
-3.78898
-3.72813
-3.71269
-3.73613
-3.82925
-3.88786
-3.85621
-3.80206
-3.79954
-3.91799
-4.04125
-4.07461
-3.98525
-3.86819
-3.82088
-3.80525
-3.78556
-3.7744
-3.71275
-3.70512
-3.72687
-3.81773
-3.91832
-3.99802
-3.89259
-3.87678
-3.93475
-4.0351
-4.0658
-4.02416
-3.99049
-4.03078
-4.15531
-4.24813
-4.24875
-4.16061
-4.07883
-4.03673
-4.01493
-3.99631
-3.97903
-3.93939
-3.89186
-3.93631
-4.03623
-4.14546
-4.24053
-4.07076
-4.07413
-4.13601
-4.19504
-4.20108
-4.17633
-4.17444
-4.23382
-4.31076
-4.36061
-4.35603
-4.30253
-4.26015
-4.23084
-4.21916
-4.2134
-4.20106
-4.17731
-4.10476
-4.17322
-4.2707
-4.38863
-4.50171
-4.28862
-4.30363
-4.32562
-4.32757
-4.32516
-4.31856
-4.33065
-4.37846
-4.42797
-4.45566
-4.45654
-4.44355
-4.42126
-4.40898
-4.41825
-4.43863
-4.4388
-4.4307
-4.35296
-4.41906
-4.50888
-4.62867
-4.75185
-4.50406
-4.5139
-4.47901
-4.45604
-4.45065
-4.4528
-4.46894
-4.50351
-4.54029
-4.56629
-4.579
-4.57672
-4.56593
-4.57549
-4.60902
-4.6647
-4.687
-4.69615
-4.64571
-4.67991
-4.74099
-4.84411
-4.96403
-4.63631
-4.64423
-4.59939
-4.57411
-4.57116
-4.57895
-4.59864
-4.62803
-4.65848
-4.68157
-4.69317
-4.69472
-4.70131
-4.73104
-4.78892
-4.87065
-4.92692
-4.96516
-4.96769
-4.9417
-4.9438
-5.01645
-5.12242
-4.71862
-4.72094
-4.70288
-4.68436
-4.68417
-4.69479
-4.71503
-4.74017
-4.76464
-4.7831
-4.79454
-4.80535
-4.82595
-4.86659
-4.93901
-5.04045
-5.1344
-5.20985
-5.26612
-5.15163
-5.08543
-5.12493
-5.2092
-4.80461
-4.80832
-4.80813
-4.79814
-4.79759
-4.80655
-4.82183
-4.8412
-4.86012
-4.87571
-4.89082
-4.90812
-4.93289
-4.97445
-5.04607
-5.15169
-5.27006
-5.37966
-5.4111
-5.24578
-5.13779
-5.15218
-5.2159
-4.91158
-4.91809
-4.92217
-4.91759
-4.91641
-4.92246
-4.93169
-4.94426
-4.95785
-4.97189
-4.98633
-5.00251
-5.02386
-5.05713
-5.11247
-5.19768
-5.30082
-5.38235
-5.36959
-5.20685
-5.10998
-5.11698
-5.17059
-5.02966
-5.03638
-5.03919
-5.03843
-5.03746
-5.04143
-5.04604
-5.05328
-5.06195
-5.07151
-5.08152
-5.0926
-5.10641
-5.1264
-5.15849
-5.20841
-5.26706
-5.29698
-5.25083
-5.12687
-5.0622
-5.07222
-5.12065
-5.15112
-5.15646
-5.15747
-5.1581
-5.15786
-5.15979
-5.16117
-5.164
-5.16816
-5.17277
-5.17752
-5.18244
-5.18785
-5.19497
-5.20645
-5.22464
-5.24227
-5.23564
-5.18109
-5.09757
-5.05933
-5.06957
-5.10854
-5.27378
-5.27745
-5.27723
-5.27747
-5.27715
-5.27694
-5.2764
-5.27555
-5.27588
-5.27599
-5.27575
-5.27489
-5.27314
-5.2706
-5.26797
-5.26581
-5.2601
-5.24069
-5.1982
-5.14545
-5.12177
-5.12835
-5.15529
-5.39712
-5.39919
-5.39823
-5.39742
-5.39601
-5.3942
-5.39233
-5.38863
-5.38578
-5.38215
-5.37771
-5.37214
-5.3651
-5.3564
-5.34614
-5.33447
-5.32044
-5.30092
-5.27391
-5.24542
-5.23182
-5.23548
-5.25334
-5.52109
-5.52147
-5.52017
-5.51836
-5.51577
-5.51266
-5.50936
-5.50372
-5.4983
-5.49184
-5.48426
-5.47535
-5.46491
-5.45293
-5.43983
-5.42626
-5.41226
-5.3974
-5.38208
-5.36917
-5.36388
-5.36734
-5.37945
-5.64529
-5.64502
-5.64332
-5.64068
-5.63704
-5.63261
-5.62781
-5.62104
-5.61366
-5.60518
-5.59551
-5.58463
-5.57259
-5.55962
-5.54671
-5.53551
-5.52588
-5.51741
-5.51014
-5.50523
-5.50435
-5.50773
-5.51528
-5.77031
-5.77034
-5.7683
-5.76485
-5.75992
-5.75362
-5.74828
-5.7407
-5.73184
-5.72193
-5.71107
-5.69946
-5.68746
-5.67571
-5.6657
-5.65944
-5.65548
-5.65259
-5.651
-5.65081
-5.65217
-5.65472
-5.65798
102.17
100.344
106.675
97.7888
65.3567
55.5354
42.1264
26.0497
2.05193
0.77465
0.556287
0.527021
-0.0509788
0.0315431
0.107037
0.178813
-0.146568
-0.0739602
-0.0182449
0.0354248
-0.374647
-0.304679
-0.238644
-0.177573
-0.669916
-0.584951
-0.501224
-0.422006
-1.00189
-0.898076
-0.794029
-0.694567
-1.31018
-1.18918
-1.06645
-0.94786
-1.56278
-1.43039
-1.29637
-1.16571
-1.74698
-1.61411
-1.4829
-1.35678
-1.87129
-1.75232
-1.6406
-1.53645
-1.95402
-1.86347
-1.78532
-1.71323
-2.02231
-1.96677
-1.9317
-1.89966
-2.11699
-2.09077
-2.09977
-2.1087
-2.28399
-2.29693
-2.32868
-2.3657
-2.52435
-2.57449
-2.62915
-2.68019
-2.77599
-2.84676
-2.91513
-2.99379
-2.98841
-3.05658
-3.14014
-3.22132
-3.1398
-3.18852
-3.23764
-3.28821
-3.19178
-3.22036
-3.25161
-3.28518
-3.25658
-3.27621
-3.29528
-3.31509
-3.35707
-3.37391
-3.38573
-3.39396
-3.48906
-3.50391
-3.51138
-3.51152
-3.64118
-3.65143
-3.6544
-3.64958
-3.81661
-3.8261
-3.8283
-3.82087
-4.03584
-4.05318
-4.06041
-4.05137
-4.2959
-4.32339
-4.33385
-4.31922
-4.57785
-4.61719
-4.63628
-4.62157
-4.83896
-4.88742
-4.91557
-4.90526
-5.04981
-5.10167
-5.1316
-5.12865
-5.2037
-5.24947
-5.27609
-5.27867
-5.28304
-5.32004
-5.3372
-5.33281
-5.27194
-5.29825
-5.30987
-5.30284
-5.21408
-5.23268
-5.24108
-5.23876
-5.15861
-5.17577
-5.18596
-5.18835
-5.13886
-5.15384
-5.16533
-5.17222
-5.17777
-5.19001
-5.20122
-5.21046
-5.26916
-5.27862
-5.28798
-5.29642
-5.38963
-5.39612
-5.40256
-5.40856
-5.52108
-5.52482
-5.52853
-5.53208
-5.66003
-5.66121
-5.66229
-5.66325
68.2843
55.7399
61.8142
58.0216
53.4823
68.6927
97.4112
108.805
122.53
143.042
144.426
137.545
140.901
154.489
172.889
191.139
202.309
201.209
200.267
7.98386
2.86867
3.4062
3.09317
3.75961
6.90542
14.8955
20.0137
28.173
50.8458
50.4011
34.5493
37.3897
50.5259
65.5257
76.6346
81.1054
80.6615
82.7158
0.501623
0.552444
0.619294
0.812699
1.08091
1.08715
0.95558
0.792268
0.548146
3.14064
4.30091
0.982237
0.930308
1.76984
5.72377
10.139
12.0416
12.5167
15.0533
0.27396
0.378084
0.473265
0.616199
0.674391
0.724748
0.620941
0.367528
-0.126527
-0.646681
-0.453045
-0.109498
0.418148
0.555828
0.62103
0.764593
0.787583
0.778126
0.806409
0.115931
0.163609
0.196731
0.227531
0.216947
0.19131
0.0820177
-0.124844
-0.377173
-0.518222
-0.416794
-0.156242
0.152754
0.41383
0.554681
0.565888
0.498908
0.49543
0.55513
-0.0807745
-0.0169698
0.00463498
0.00604378
-0.0369342
-0.172851
-0.374166
-0.556939
-0.676039
-0.685196
-0.555644
-0.331259
-0.0806364
0.196521
0.496284
0.34054
0.0675411
0.013232
0.191938
-0.303243
-0.211213
-0.182143
-0.183697
-0.253017
-0.467433
-0.749479
-0.940487
-0.997791
-0.949482
-0.792414
-0.565005
-0.326137
-0.0506731
0.279274
0.0543791
-0.308939
-0.394325
-0.176356
-0.545664
-0.415979
-0.364305
-0.362382
-0.445164
-0.663129
-0.912369
-1.09551
-1.17039
-1.12413
-0.962873
-0.747302
-0.521458
-0.27338
-0.169566
-0.251352
-0.510012
-0.544526
-0.412107
-0.767499
-0.593325
-0.504915
-0.490041
-0.545155
-0.702218
-0.906349
-1.08279
-1.17166
-1.14183
-1.00538
-0.826858
-0.66093
-0.503982
-0.464705
-0.51214
-0.626453
-0.603146
-0.554707
-0.963417
-0.741887
-0.602387
-0.548484
-0.563578
-0.685511
-0.872459
-1.03625
-1.10225
-1.06664
-0.9634
-0.850005
-0.776558
-0.730777
-0.708748
-0.748968
-0.797196
-0.733493
-0.720692
-1.15745
-0.90803
-0.719266
-0.616562
-0.60997
-0.734131
-0.943487
-1.09286
-1.12399
-1.07957
-1.00884
-0.94474
-0.923926
-0.948784
-0.99248
-1.03821
-1.0339
-0.949306
-0.905888
-1.36493
-1.14641
-0.953681
-0.81321
-0.776858
-0.914203
-1.14248
-1.26855
-1.27804
-1.23141
-1.16254
-1.10931
-1.11049
-1.17385
-1.33754
-1.42004
-1.325
-1.17875
-1.09366
-1.59298
-1.46066
-1.30674
-1.1417
-1.08282
-1.20117
-1.40648
-1.48561
-1.47998
-1.42262
-1.32862
-1.25741
-1.26205
-1.34235
-1.54117
-1.67423
-1.56581
-1.3963
-1.28574
-1.85567
-1.84202
-1.74842
-1.53635
-1.47443
-1.54164
-1.69332
-1.72295
-1.68934
-1.6178
-1.50842
-1.42477
-1.4154
-1.47296
-1.61481
-1.72092
-1.67904
-1.53738
-1.43133
-2.1486
-2.24213
-2.20944
-1.99854
-1.90563
-1.89309
-1.98458
-1.97698
-1.91566
-1.8413
-1.75068
-1.68037
-1.66323
-1.69077
-1.75332
-1.78083
-1.71296
-1.57401
-1.50579
-2.44433
-2.59311
-2.61243
-2.45603
-2.27745
-2.19596
-2.23919
-2.20717
-2.14343
-2.07211
-2.03031
-2.02446
-2.04782
-2.05172
-2.01763
-1.94593
-1.80903
-1.64065
-1.58319
-2.77609
-2.93153
-2.94108
-2.80987
-2.5344
-2.41302
-2.42722
-2.39758
-2.33561
-2.29711
-2.30342
-2.34449
-2.38639
-2.39081
-2.32306
-2.1871
-1.98067
-1.76349
-1.71489
-3.12219
-3.23933
-3.20115
-2.99875
-2.68117
-2.56215
-2.55954
-2.55575
-2.5195
-2.50652
-2.5542
-2.63613
-2.68373
-2.68287
-2.61527
-2.45492
-2.19838
-1.95209
-1.89454
-3.32957
-3.3841
-3.27734
-3.03519
-2.77281
-2.68826
-2.68579
-2.68995
-2.70144
-2.70368
-2.79458
-2.90452
-2.95954
-2.96004
-2.89802
-2.72064
-2.41619
-2.19182
-2.12773
-3.34994
-3.3344
-3.21054
-3.01363
-2.855
-2.81737
-2.83186
-2.8263
-2.84095
-2.87536
-3.01435
-3.13002
-3.18998
-3.20441
-3.15787
-2.95343
-2.61408
-2.42287
-2.42225
-3.31745
-3.2657
-3.15092
-3.02595
-2.95556
-2.94737
-2.96377
-2.95981
-2.9515
-3.0177
-3.18897
-3.2944
-3.35886
-3.38483
-3.34823
-3.13099
-2.79547
-2.62647
-2.71812
-3.32347
-3.2596
-3.17006
-3.09937
-3.07043
-3.06874
-3.06657
-3.0666
-3.05042
-3.13507
-3.30498
-3.39274
-3.44974
-3.47492
-3.44389
-3.27692
-3.01307
-2.86284
-2.97254
-3.38641
-3.32609
-3.26014
-3.21345
-3.19267
-3.18704
-3.17257
-3.16897
-3.15683
-3.23966
-3.37426
-3.44164
-3.47331
-3.49374
-3.50575
-3.45152
-3.29531
-3.19853
-3.21977
-3.49251
-3.43644
-3.38496
-3.34785
-3.32711
-3.31549
-3.30117
-3.28896
-3.28353
-3.34015
-3.43149
-3.47058
-3.47385
-3.49877
-3.58798
-3.68185
-3.66357
-3.58458
-3.48771
-3.62454
-3.57118
-3.53054
-3.49819
-3.47623
-3.46132
-3.44842
-3.43351
-3.42452
-3.45173
-3.50068
-3.50433
-3.48897
-3.52128
-3.6739
-3.89339
-3.97802
-3.89016
-3.72589
-3.78893
-3.73252
-3.69381
-3.66069
-3.63536
-3.61719
-3.60189
-3.58505
-3.57336
-3.57906
-3.59092
-3.5603
-3.53126
-3.56015
-3.72583
-3.99464
-4.14034
-4.03339
-3.87566
-4.00681
-3.93603
-3.8757
-3.83088
-3.79872
-3.77517
-3.75631
-3.73834
-3.72385
-3.71829
-3.70859
-3.65773
-3.59639
-3.61126
-3.74798
-3.98304
-4.12035
-4.04493
-3.92557
-4.25676
-4.15852
-4.07513
-4.0088
-3.96434
-3.93318
-3.90934
-3.8892
-3.87225
-3.8611
-3.84883
-3.79989
-3.71427
-3.68728
-3.76347
-3.93034
-4.03814
-3.99594
-3.90095
-4.54037
-4.38707
-4.27479
-4.1892
-4.12957
-4.0894
-4.05998
-4.0369
-4.01829
-4.00439
-3.99159
-3.95644
-3.88554
-3.83109
-3.84358
-3.92982
-4.01367
-3.97362
-3.89024
-4.82179
-4.61886
-4.46882
-4.3637
-4.28968
-4.24111
-4.20679
-4.1812
-4.16098
-4.1457
-4.1325
-4.09969
-4.04812
-4.02796
-4.01194
-4.02915
-4.09503
-4.04409
-3.95992
-5.05679
-4.82461
-4.63903
-4.52177
-4.43947
-4.38568
-4.34847
-4.32162
-4.30111
-4.28797
-4.28257
-4.25337
-4.21074
-4.21285
-4.20953
-4.19352
-4.25584
-4.19427
-4.09856
-5.23043
-4.97587
-4.76518
-4.65966
-4.57654
-4.52184
-4.48437
-4.45808
-4.43999
-4.43165
-4.45243
-4.44327
-4.38407
-4.36597
-4.37505
-4.38992
-4.42992
-4.36853
-4.27215
-5.27775
-5.07335
-4.88526
-4.77269
-4.6987
-4.64923
-4.61414
-4.58979
-4.57487
-4.56884
-4.59576
-4.61599
-4.54651
-4.51191
-4.5083
-4.54984
-4.59243
-4.5269
-4.46423
-5.25441
-5.112
-4.96896
-4.87168
-4.80993
-4.76818
-4.7376
-4.7159
-4.70185
-4.69623
-4.71004
-4.72908
-4.68139
-4.64267
-4.62551
-4.67781
-4.71086
-4.65235
-4.661
-5.21396
-5.1263
-5.02967
-4.95857
-4.91252
-4.87987
-4.85523
-4.83657
-4.82287
-4.81436
-4.81557
-4.82035
-4.78875
-4.75885
-4.74755
-4.80879
-4.80571
-4.77463
-4.80393
-5.18044
-5.13678
-5.08203
-5.04021
-5.01066
-4.98756
-4.96859
-4.95288
-4.93991
-4.92913
-4.92436
-4.92058
-4.89393
-4.8692
-4.88191
-4.95352
-4.93489
-4.91391
-4.93736
-5.17835
-5.16782
-5.14649
-5.12629
-5.10908
-5.09365
-5.07971
-5.06721
-5.05582
-5.04671
-5.04264
-5.03426
-5.00764
-4.9929
-5.03343
-5.08022
-5.05962
-5.03508
-5.05148
-5.22358
-5.23067
-5.22739
-5.21982
-5.21069
-5.20074
-5.19066
-5.18129
-5.17239
-5.16998
-5.17519
-5.16682
-5.13837
-5.11946
-5.16488
-5.17938
-5.15909
-5.14778
-5.16124
-5.30917
-5.32047
-5.32373
-5.32199
-5.31731
-5.31076
-5.3033
-5.29591
-5.29013
-5.29899
-5.32609
-5.32818
-5.29365
-5.28866
-5.30653
-5.29324
-5.27228
-5.268
-5.27979
-5.41793
-5.42739
-5.43161
-5.4319
-5.42939
-5.42482
-5.4193
-5.41234
-5.41252
-5.42952
-5.46532
-5.4705
-5.45342
-5.46223
-5.46414
-5.43107
-5.4092
-5.40159
-5.40815
-5.53784
-5.54396
-5.54718
-5.54795
-5.54676
-5.54406
-5.54112
-5.53948
-5.54404
-5.55335
-5.5675
-5.57426
-5.58529
-5.62803
-5.67414
-5.61156
-5.56553
-5.54301
-5.54284
-5.66476
-5.6664
-5.66726
-5.66739
-5.66692
-5.66621
-5.66684
-5.67173
-5.67563
-5.67048
-5.65983
-5.67091
-5.69859
-5.75079
-5.87451
-5.79077
-5.72375
-5.68726
-5.67826
)
;

boundaryField
{
    leftWall
    {
        type            calculated;
        value           nonuniform List<scalar> 
50
(
891.773
834.567
780.249
726.002
671.694
614.868
554.342
493.189
397.133
256.178
109.03
18.6372
0.332375
0.147289
-0.090066
-0.381127
-0.63886
-0.831935
-0.995673
-1.15689
-1.31743
-1.47552
-1.62706
-1.77254
-1.91128
-2.03773
-2.16176
-2.30325
-2.48588
-2.71
-2.94125
-3.16236
-3.36564
-3.54866
-3.72813
-3.89259
-4.07076
-4.28862
-4.50406
-4.63631
-4.71862
-4.80461
-4.91158
-5.02966
-5.15112
-5.27378
-5.39712
-5.52109
-5.64529
-5.77031
)
;
    }
    rightWall
    {
        type            calculated;
        value           nonuniform List<scalar> 
50
(
667.83
612.463
559.6
507.427
455.67
401.717
345.548
289.18
200.267
82.7158
15.0533
0.806409
0.55513
0.191938
-0.176356
-0.412107
-0.554707
-0.720692
-0.905888
-1.09366
-1.28574
-1.43133
-1.50579
-1.58319
-1.71489
-1.89454
-2.12773
-2.42225
-2.71812
-2.97254
-3.21977
-3.48771
-3.72589
-3.87566
-3.92557
-3.90095
-3.89024
-3.95992
-4.09856
-4.27215
-4.46423
-4.661
-4.80393
-4.93736
-5.05148
-5.16124
-5.27979
-5.40815
-5.54284
-5.67826
)
;
    }
    lowerWall
    {
        type            calculated;
        value           nonuniform List<scalar> 
62
(
920.93
923.555
925.026
924.23
921.311
916.668
912.52
905.818
897.254
891.683
887.016
876.711
861.932
848.263
838.525
829.317
818.659
809.441
804.284
801.942
799.256
793.779
791.63
762.207
702.426
642.36
582.209
520.869
456.509
386.418
308.712
164.759
162.932
169.245
159.89
550.073
493.428
436.023
377.396
315.436
251.454
192.797
118.981
577.624
579.769
592.661
594.028
586.743
611.163
630.582
639.897
650.307
661.127
660.824
655.623
662.367
679.077
686.241
685.809
686.41
689.893
695.53
)
;
    }
    atmosphere
    {
        type            calculated;
        value           nonuniform List<scalar> 
46
(
-5.83319
-5.83407
-5.83176
-5.82789
-5.82225
-5.81414
-5.80977
-5.80155
-5.79214
-5.78178
-5.77071
-5.75929
-5.74805
-5.73794
-5.73071
-5.72904
-5.72904
-5.72904
-5.72904
-5.72904
-5.72906
-5.72907
-5.72908
-5.72909
-5.72909
-5.72909
-5.7291
-5.72905
-5.72904
-5.72904
-5.72904
-5.72904
-5.72904
-5.72904
-5.72904
-5.73155
-5.73773
-5.72917
-5.7293
-5.73962
-5.77007
-5.96498
-5.82136
-5.80462
-5.75887
-5.74592
)
;
    }
    defaultFaces
    {
        type            empty;
    }
}


// ************************************************************************* //
