/*--------------------------------*- C++ -*----------------------------------*\
| =========                 |                                                 |
| \\      /  F ield         | OpenFOAM: The Open Source CFD Toolbox           |
|  \\    /   O peration     | Version:  2.3.0                                 |
|   \\  /    A nd           | Web:      www.OpenFOAM.org                      |
|    \\/     M anipulation  |                                                 |
\*---------------------------------------------------------------------------*/
FoamFile
{
    version     2.0;
    format      ascii;
    class       volScalarField;
    location    "2.7";
    object      p_rgh;
}
// * * * * * * * * * * * * * * * * * * * * * * * * * * * * * * * * * * * * * //

dimensions      [1 -1 -2 0 0 0 0];

internalField   nonuniform List<scalar> 
2268
(
920.93
923.555
925.026
924.23
921.311
916.668
912.52
905.818
897.254
891.683
887.016
876.711
861.932
848.263
838.525
829.317
818.659
809.441
804.284
801.942
799.256
793.779
791.63
914.017
922.345
924.822
924.382
921.767
916.804
912.208
905.84
896.904
889.758
883.686
873.58
860.095
846.828
837.065
828.305
817.979
808.756
803.502
801.348
798.892
793.072
790.698
911.57
920.066
925.803
924.131
922.628
919.468
914.251
905.891
896.176
886.658
880.297
869.372
853.06
842.529
836.661
826.863
815.601
806.3
801.608
799.71
797.244
791.582
789.483
909.851
909.066
925.393
923.887
923.365
921.808
916.604
906.28
894.814
891.535
888.902
871.252
849.182
834.57
830.128
825.524
813.624
803.828
798.607
796.503
794.11
789.387
788.18
908.092
905.806
911.654
920.751
923.865
923.435
918.103
906.621
895.457
890.341
886.58
875.791
853.932
830.674
827.005
823.269
811.394
801.139
794.415
791.248
789.261
786.023
785.703
930.465
904.733
901.448
895.603
912.856
924.393
919.398
908.019
896.294
890.121
884.666
872.425
856.624
842.014
830.37
819.851
808.515
797.261
788.575
783.933
782.243
780.423
780.212
935.256
929.414
908.4
897.814
894.014
917.64
919.725
907.408
893.333
887.476
883.459
870.086
853.716
840.381
829.038
817.331
805.346
792.769
781.306
773.941
773.188
771.983
768.976
932.764
940.577
940.816
931.528
918.578
912.174
912.122
902.223
892.007
885.178
884.005
869.393
852.436
838.293
826.501
814.3
801.486
787.501
769.146
760.72
759.962
761.08
750.125
577.624
579.769
592.661
594.028
586.743
611.163
630.582
639.897
650.307
661.127
660.824
655.623
662.367
679.077
686.241
685.809
686.41
689.893
695.53
576.081
577.762
589.526
592.3
580.262
607.01
629.481
638.953
650.178
661.286
659.377
651.126
658.028
676.871
687.185
685.129
681.803
682.666
689.98
573.778
576.277
585.538
588.277
576.288
604.032
627.084
637.32
650.403
662.592
657.658
647.055
652.064
671.365
686.619
690.497
678.441
679.822
688.794
572.694
582.856
584.694
586.124
573.575
602.78
624.75
635.212
650.447
664.513
655.783
640.47
643.544
663.986
685.712
698.735
684.221
680.319
688.3
577.675
585.756
595.432
586.404
572.39
602.378
624.145
634.162
652.293
665.354
652.34
629.319
638.11
664.244
686.32
703.104
711.485
684.967
688.25
567.167
585.64
605.269
588.223
575.381
602.9
624.886
634.982
653.546
666.898
653.148
629.977
632.559
666.814
688.236
707.323
717.884
687.029
714.247
570.046
585.602
607.305
589.344
578.584
602.618
626.148
637.343
654.301
669.124
664.126
641.701
633.567
658.236
690.944
711.228
690.041
699.787
721.964
555.626
582.185
599.88
588.299
579.568
601.64
620.378
637.969
654.251
672.153
668.517
659.094
636.658
644.593
691.566
699.318
690.173
725.139
723.506
928.284
934.624
933.605
929.72
928.56
922.79
912.537
904.95
895.723
890.625
886.126
871.246
854.017
837.931
823.379
809.14
795.553
780.141
763.537
749.351
744.479
741.343
704.588
911.866
910.857
909.536
912.554
919.643
925.305
926.056
922.263
914.423
904.154
894.095
882.749
865.73
844.888
822.209
786.515
751.209
735.747
737.836
728.803
722.87
723.274
726.73
852.93
775.231
810.799
884.141
923.774
935.599
939.148
936.53
929.844
920.455
912.325
894.599
826.426
700.212
550.05
413.1
351.589
329.479
256.074
183.769
144.714
122.155
94.8497
281.897
150.852
205.79
391.72
712.835
844.981
807.476
740.941
696.274
698.914
687.44
612.585
437.585
220.144
80.6233
29.0795
16.7843
2.69488
1.08145
0.849333
0.834491
0.904505
0.871375
1.4432
1.45558
1.48184
1.35673
16.6551
133.246
283.088
285.71
208.271
119.635
91.7667
67.0683
39.9467
16.9363
1.53647
1.257
0.966425
0.711666
0.693347
0.641329
0.679421
0.762538
0.819402
1.42236
1.45638
1.61417
1.27177
1.08573
0.990918
0.845368
0.678737
0.58112
0.496847
0.361521
0.456223
0.553877
0.663352
0.992497
0.774296
0.696925
0.559045
0.53514
0.522247
0.556502
0.631691
0.707063
1.40436
2.09745
2.23
1.76148
1.02679
0.914827
0.780736
0.62526
0.512235
0.406328
0.376943
0.425518
0.490591
0.539948
1.8564
0.79926
0.428349
0.383449
0.349882
0.310391
0.30084
0.367825
0.496064
1.47632
2.14824
2.15604
1.94717
1.06328
0.867546
0.725522
0.558848
0.412256
0.324174
0.296817
0.339373
0.709917
1.01704
1.18913
0.463563
0.260039
0.169477
0.111104
0.0328553
0.0365576
0.11242
0.265667
1.24755
1.6621
2.077
1.93253
2.09709
1.51347
0.743814
0.602894
0.464439
0.377651
0.424191
1.16084
1.41943
1.38839
0.330136
0.209674
0.100268
-0.03636
-0.135248
-0.237412
-0.232461
-0.125964
0.0583662
1.20833
1.17746
1.41141
2.49653
2.5708
2.54387
1.16868
0.710218
0.618316
0.55132
1.18656
1.61613
1.56571
1.50821
0.253549
0.142012
-0.015539
-0.198586
-0.338636
-0.406438
-0.388812
-0.275592
-0.0829853
1.24315
1.57684
1.99413
1.85933
2.53425
2.61381
2.42004
0.850918
0.753887
0.692369
1.19093
1.75655
1.70058
0.907626
0.270092
0.131074
-0.0608155
-0.259913
-0.408274
-0.468557
-0.442295
-0.329229
-0.135154
2.17657
2.13347
0.83758
0.654632
0.898737
2.59982
2.69171
1.68385
0.781907
0.744667
0.699991
0.793791
0.721119
0.413204
0.315148
0.161456
-0.0337623
-0.228598
-0.363765
-0.421621
-0.407074
-0.297065
-0.122959
2.23445
1.37123
0.643423
0.625223
0.622647
1.12058
2.72033
2.71287
0.937935
0.714918
0.653846
0.554592
0.489178
0.438004
0.354748
0.216465
0.0428707
-0.130253
-0.258928
-0.321673
-0.287153
-0.184622
-0.0417089
1.28547
0.666978
0.626824
0.611777
0.627091
0.713926
1.65785
2.68853
2.67674
0.836775
0.625793
0.56981
0.522592
0.476035
0.403618
0.292466
0.151605
0.00794676
-0.103751
-0.156029
-0.132585
-0.0381685
0.0755527
0.67933
0.639635
0.607813
0.799275
2.20511
1.71779
1.12166
1.84165
2.56542
2.68297
1.67584
0.607914
0.582295
0.546876
0.493668
0.414637
0.310509
0.194683
0.0951239
0.0449315
0.460078
0.744085
0.442742
0.660153
0.616898
0.599796
2.021
4.05951
3.7611
2.61847
1.87146
2.10339
2.57529
2.75991
2.85355
1.99609
0.667144
0.620078
0.552524
0.520875
0.588927
0.55399
1.45389
4.67444
4.41402
0.910778
0.647811
0.61531
0.639448
3.01541
4.09631
3.71345
3.50524
3.51757
1.44252
1.44603
2.2521
2.42293
1.61684
0.904884
1.26933
3.90392
5.32454
5.24422
5.08354
4.94976
4.92722
4.90467
1.3725
0.648295
0.63186
0.659829
2.91796
4.39374
3.89409
3.63173
3.20382
0.720107
0.963376
1.18172
1.37808
1.49802
1.55286
1.64113
1.67819
1.62006
5.3655
5.18974
5.09986
5.04021
2.29833
1.37257
0.650606
0.65678
0.696183
1.40972
4.71142
4.32796
3.12521
1.31127
1.01323
1.29978
1.70271
1.92285
2.12603
2.04291
1.87401
3.0648
5.34371
5.21162
5.11596
4.75912
1.30792
1.21113
2.30101
0.837287
1.60607
0.74038
0.747554
2.89073
3.04302
0.243035
1.70052
3.21883
3.33566
3.46105
3.49636
3.64173
3.92321
4.08555
4.09742
3.86432
3.30846
1.2075
0.0241174
0.170496
2.23876
2.40564
1.39941
3.21976
0.813601
0.665276
0.70329
0.806391
0.385157
0.361987
1.68051
1.03199
0.188026
0.282238
0.372263
0.427314
0.412954
0.507053
0.298998
0.16446
0.111273
0.0902583
1.38006
2.33069
0.592599
1.65114
3.2365
2.76717
0.712388
0.609634
0.60474
0.451904
0.110784
0.0720283
0.0823108
0.123841
0.179483
0.247191
0.361368
0.369577
1.1076
2.17019
0.314476
0.186942
0.65997
1.50122
1.4008
-0.0453599
2.00186
3.24002
3.27509
1.63465
0.620474
1.08456
1.24915
0.287238
0.0518081
0.0597629
0.085876
0.120251
0.166857
0.623251
0.383489
1.16911
2.64912
0.47949
0.250374
1.24411
1.59788
0.041781
-0.0250397
3.36287
3.27383
1.9958
2.31321
1.43216
1.12386
1.26194
0.777293
0.0882138
0.234483
0.172737
0.119435
0.156396
0.603887
0.62933
0.269829
2.72489
0.381777
0.325888
1.13449
0.825138
0.0344282
-0.0333231
3.39894
1.52336
1.35778
1.71478
1.7034
0.647766
0.230581
0.323603
1.49273
3.23534
2.56775
0.734389
0.269249
0.594238
0.601502
0.221674
1.56554
1.38807
0.24199
0.272201
0.129944
0.072736
-0.0440874
3.45174
0.974881
1.87302
1.57882
0.363963
0.108124
0.170328
1.32816
3.47465
3.38499
3.35269
2.55524
0.510522
0.500921
0.300672
0.0987963
0.20954
2.13672
0.193746
0.155413
0.0752426
0.0259395
-0.0570452
1.55172
0.973432
2.88492
2.79674
0.429973
0.0311485
0.555113
3.56915
3.46103
3.3425
3.31623
2.35705
0.605746
0.266058
-0.00156211
0.0176961
0.171851
2.14422
0.21243
0.0963915
0.00545161
-0.0833264
-0.137745
0.781147
1.77306
2.91029
2.78089
0.386999
-0.0145884
0.896198
3.54032
3.46118
3.38503
2.23165
0.565174
0.596448
0.0117892
-0.0869825
-0.0680305
-0.0402011
2.11113
0.23636
0.0128392
-0.0872735
-0.196167
-0.271422
0.884401
2.89355
2.8916
0.637645
-0.00238037
-0.0425791
0.0929441
1.51257
2.25898
1.18973
0.38317
0.616787
0.322647
-0.180445
-0.166197
-0.159793
-0.147106
2.05524
-0.0150777
-0.0978
-0.196227
-0.314449
-0.42665
2.5297
2.9094
0.64235
-0.163311
-0.139053
-0.0984615
-0.00533164
-0.0286673
-0.0454616
0.106726
0.463851
0.492045
-0.203598
-0.244712
-0.239247
-0.250526
-0.258343
0.944407
0.330074
-0.204643
-0.30845
-0.429621
-0.551668
1.58139
2.20691
-0.189552
-0.166634
-0.161193
-0.107664
0.153928
0.0167239
0.0963788
0.367046
0.321702
-0.101108
-0.27662
-0.286123
-0.300514
-0.342064
-0.380212
-0.000643824
2.10777
-0.26343
-0.414465
-0.521894
-0.637563
0.294434
-0.229257
-0.184791
-0.159516
-0.156564
-0.14325
0.368383
0.481026
0.452441
0.33627
-0.0829115
-0.280223
-0.286812
-0.316535
-0.370456
-0.428194
-0.493847
0.20571
2.03271
-0.194365
-0.491876
-0.564856
-0.670181
-0.150151
-0.181141
-0.16309
-0.144569
-0.144379
-0.152832
0.0485324
0.327255
0.229773
-0.20885
-0.254846
-0.26566
-0.286257
-0.326893
-0.399292
-0.500497
-0.508125
1.21404
1.93281
0.0709091
-0.507321
-0.547544
-0.632265
-0.139578
-0.143318
-0.143142
-0.133158
-0.132612
-0.141567
-0.156923
-0.12669
-0.195238
-0.210828
-0.225934
-0.243238
-0.268007
-0.309562
-0.381127
-0.486092
-0.525913
1.16224
1.98637
0.145964
-0.43425
-0.448995
-0.513444
-0.121179
-0.127643
-0.131632
-0.127412
-0.126044
-0.132024
-0.141592
-0.15417
-0.16776
-0.181807
-0.196253
-0.212428
-0.233775
-0.267047
-0.322327
-0.406993
-0.482688
0.128023
1.37739
0.0993355
-0.279225
-0.287423
-0.341316
-0.114382
-0.120629
-0.123433
-0.123069
-0.119444
-0.118347
-0.130743
-0.137955
-0.146511
-0.156192
-0.166243
-0.177325
-0.191131
-0.211121
-0.243205
-0.293034
-0.342598
-0.341539
-0.256751
-0.0644641
-0.0315736
-0.0571545
-0.133417
-0.110648
-0.115704
-0.116535
-0.117569
-0.112987
-0.109648
-0.12018
-0.12346
-0.127475
-0.132197
-0.137046
-0.141966
-0.147378
-0.154495
-0.165976
-0.184164
-0.201228
-0.192141
-0.137561
-0.0517814
0.0302428
0.0590986
0.0192025
-0.108119
-0.111788
-0.11154
-0.111789
-0.107197
-0.101368
-0.11018
-0.109874
-0.110002
-0.110275
-0.110089
-0.109224
-0.10747
-0.104926
-0.102304
-0.100137
-0.0944176
-0.0748631
-0.0321611
0.0214328
0.0483992
0.0700727
0.0639213
-0.106263
-0.108335
-0.107372
-0.106556
-0.103488
-0.093212
-0.101474
-0.0977732
-0.094917
-0.0912884
-0.0868531
-0.0812794
-0.0742349
-0.0655365
-0.055271
-0.0436088
-0.0295751
-0.0100512
0.0170076
0.0460187
0.0626161
0.0566833
0.0391052
-0.105039
-0.105416
-0.104113
-0.102306
-0.0995718
-0.0949865
-0.0933108
-0.0876686
-0.0822499
-0.0757835
-0.0682072
-0.0592934
-0.0488568
-0.0368749
-0.0237738
-0.0101994
0.00379892
0.01866
0.0339826
0.0475088
0.0535971
0.0488263
0.0367119
-0.104043
-0.103772
-0.102073
-0.0994357
-0.0957941
-0.0913667
-0.0865668
-0.0797957
-0.0724157
-0.0639271
-0.0542625
-0.0433837
-0.0313372
-0.0183673
-0.0054634
0.00574
0.0153666
0.0238415
0.0311346
0.0361907
0.0369261
0.0335598
0.0260097
-0.103865
-0.103893
-0.101858
-0.0984024
-0.093481
-0.0871729
-0.0818371
-0.0742523
-0.0653985
-0.055486
-0.044628
-0.0330206
-0.0210153
-0.00926995
0.000739815
0.00700623
0.0109675
0.013854
0.0154499
0.0156414
0.0142907
0.0117547
0.00849946
635.564
633.725
639.918
627.028
702.964
637.861
483.586
296.311
35.0807
1.67802
1.53969
1.5063
0.895451
0.967132
1.34897
1.52054
0.919427
0.988688
1.04426
1.10053
0.821352
0.888436
0.952322
1.01036
0.622888
0.711174
0.798575
0.883761
0.416893
0.520737
0.624758
0.724246
0.234666
0.355633
0.478356
0.596924
0.107335
0.240385
0.374562
0.504962
0.0488861
0.18195
0.313769
0.439627
0.0518661
0.169502
0.282489
0.386264
0.096387
0.186736
0.264535
0.33686
0.153575
0.214068
0.254182
0.28408
0.275344
1.07557
1.04226
0.247154
0.544765
1.66732
2.08794
1.30682
0.750869
1.14693
2.08839
2.11823
1.19246
1.59618
2.35831
2.29077
2.51728
2.46232
2.38511
2.30471
2.10646
0.821699
0.960027
0.881131
-0.0734203
-0.155792
-0.160576
-0.155225
-0.0820713
-0.103066
-0.118929
-0.089644
-0.0614572
-0.0813701
-0.0871216
-0.0671282
-0.0696367
-0.0875182
-0.0951218
-0.0948882
-0.0959534
-0.109804
-0.113134
-0.10897
-0.13138
-0.158988
-0.161403
-0.154445
-0.203274
-0.259631
-0.249632
0.244785
-0.336617
-0.383336
-0.0731445
0.918459
-0.499332
-0.469988
0.722827
1.19208
-0.63452
-0.0808881
1.09786
1.11265
-0.396339
1.08696
1.05797
1.05232
0.950229
1.12135
1.08937
1.08786
0.414478
1.25934
1.21705
1.21503
-0.549198
0.0997043
0.640083
1.42499
-0.386659
-0.413619
-0.375065
-0.232026
-0.20723
-0.247291
-0.264066
-0.264249
-0.0436877
-0.103872
-0.121604
-0.125386
0.030041
-0.015297
-0.0337589
-0.0376428
0.0350858
0.0183808
0.00418772
0.00544253
0.0265905
0.0204386
0.014688
0.0127401
0.0202242
0.016476
0.0131547
0.00928349
0.00645786
0.00528276
0.00420151
0.00325171
539.173
446.897
497.92
491.992
434.077
478.307
583.947
602.868
621.955
655.051
659.004
639.055
636.37
643.997
664.843
709.243
726.313
726.063
725.137
87.916
23.4302
33.2714
26.9403
27.565
65.4707
160.719
220.314
314.953
504.956
466.96
357.286
435.134
571.454
634.361
667.316
674.268
676.633
693.071
1.48349
1.53181
1.64015
1.87337
2.72504
2.68574
2.1968
2.00214
4.99694
60.1883
63.2452
20.4126
2.30943
15.5002
73.9504
126.074
151.007
158.92
192.468
1.65834
2.1469
2.37108
2.60134
3.26557
3.09609
1.90697
1.42973
0.894071
0.372796
0.568573
1.16287
1.86904
1.59155
1.72795
1.91865
1.96103
1.96699
2.00831
1.22855
1.21592
1.28312
1.52832
1.88786
2.36852
1.69922
1.02212
0.707842
0.559449
0.657946
0.91629
1.32889
1.52456
1.80691
1.97595
2.38954
2.37991
1.92862
1.10248
1.16241
1.18103
1.18323
1.14238
1.15316
1.25413
0.773293
0.524091
0.513698
0.643761
0.868089
1.12031
1.40699
1.93002
3.0623
2.75941
2.67788
1.90434
1.00827
1.09215
1.12001
1.11957
1.37169
1.3702
0.810533
0.388103
0.330539
0.37894
0.536191
0.76382
1.00369
1.29037
2.87369
3.07763
2.38258
1.65999
1.61186
0.877105
1.00875
1.06304
1.44001
1.62478
1.3725
0.568046
0.362035
0.287197
0.333518
0.494893
0.71069
0.936952
1.18591
1.77955
3.07535
2.23581
1.40036
1.53199
0.777161
0.951719
1.04625
1.70149
1.7086
0.939907
0.680548
0.504155
0.415318
0.445199
0.581704
0.760354
0.926465
1.08387
1.58362
3.11662
2.89392
1.51359
1.56203
0.707005
0.930332
1.08298
1.79625
1.65838
1.03495
0.843826
0.722517
0.891625
0.834295
0.795316
0.907546
0.967825
0.993767
1.67523
3.18288
3.12734
1.81103
1.71972
0.638736
1.45774
1.65978
1.90262
1.75875
1.11698
1.03209
1.37482
1.34331
1.37362
1.41869
1.44543
1.42497
1.15014
2.811
3.19286
3.19444
3.05272
1.38244
0.557989
2.37594
2.55499
1.87492
1.711
1.07616
1.13226
1.37217
1.36301
1.40516
1.07655
1.13928
1.17863
1.19422
2.65374
3.10643
3.16159
1.21379
1.28978
1.04115
2.50432
2.45162
1.27002
1.23241
0.977243
1.40098
1.32848
1.12329
0.754415
0.861799
0.946391
0.948514
0.880152
0.761147
2.40812
2.39838
1.14331
1.25387
1.54825
2.4482
2.55165
1.10673
0.967055
0.911065
1.27169
1.24459
0.621577
0.693113
0.851568
1.25453
1.16081
0.928037
0.786391
0.685833
1.86738
1.79959
1.36686
1.50595
2.30686
2.34105
2.44498
0.676979
0.824017
1.14607
0.997658
0.543033
0.669533
1.45488
1.85855
1.87569
1.84815
1.21317
0.814497
0.925173
1.48732
1.68917
1.19668
1.92739
2.1895
2.34366
0.362516
0.466044
0.900987
0.411396
0.493393
0.890973
1.19734
0.940872
1.34614
1.66563
1.67924
1.00879
0.973573
1.20248
1.78674
2.11194
2.1183
2.10874
2.13976
0.11817
0.24077
0.23417
0.265329
0.78095
0.838135
0.29186
0.196735
0.154541
0.678269
1.55435
1.69034
0.965057
1.01521
1.35436
2.16471
2.052
2.09791
0.221782
0.0974495
0.216944
0.225234
0.237256
0.948145
0.686264
0.115184
0.0302104
-0.0173879
-0.016534
1.28495
1.62258
1.0329
0.963762
1.57027
2.20418
1.95677
0.537271
-0.155644
0.136333
0.221255
0.250665
0.728556
0.645889
0.365977
0.17047
-0.105998
-0.167793
-0.157049
1.32366
1.54864
0.708572
0.86719
3.10942
0.485646
0.0421195
-0.197298
-0.0374501
0.251155
0.444907
0.794847
0.927535
0.183894
0.660982
0.517389
-0.17832
-0.272569
-0.166989
1.2724
1.49648
0.604159
0.855769
3.05091
-0.0987642
0.0742356
-0.0528604
0.0387237
0.256532
0.396282
0.467443
0.346802
0.200356
0.67232
0.499399
-0.248194
-0.31559
-0.0556388
1.2475
0.682296
0.561127
1.202
2.99034
0.0221431
0.125496
0.0681838
0.0715622
0.113305
0.11814
0.11385
0.0975489
0.242878
0.707356
0.196821
-0.227136
-0.277948
-0.141769
0.0148394
0.139367
0.623817
1.74343
1.07655
-0.0498458
-0.0248808
0.0411589
0.0755511
0.0957178
0.101085
0.115475
0.119954
0.411758
0.754877
-0.0340097
-0.150775
-0.182392
-0.199579
-0.197145
0.0564253
1.48843
1.59142
0.620626
-0.0771776
-0.0219238
0.0289441
0.0657661
0.0862144
0.0976829
0.112013
0.124292
0.347337
0.796897
0.280792
-0.0543489
-0.0576783
-0.0818341
-0.164496
0.166193
1.31017
1.26258
0.214579
-0.084597
-0.0317566
0.00867083
0.0411017
0.0623429
0.0770589
0.0899542
0.104877
0.135581
0.763192
0.961738
0.0372159
0.0530254
0.0213658
-0.111143
0.662266
1.20502
-0.174887
-0.0995525
-0.050599
0.200786
-0.0300539
0.00303449
0.0283317
0.0464796
0.0620238
0.0788573
0.097733
0.68187
1.19079
0.46296
0.136655
0.107729
-0.0242409
0.972365
1.2261
0.153673
-0.121014
0.727357
0.653321
0.0183289
-0.0419317
-0.00979888
0.0142295
0.0334602
0.050987
0.0651183
0.266068
1.28734
1.33873
0.204804
0.182397
0.0458354
0.321148
1.42949
0.333707
-0.0407071
1.1896
-0.237971
-0.156263
-0.0760912
-0.0327361
-0.018787
0.00503633
0.0252329
0.0414908
0.0530359
0.481667
1.41095
1.48657
0.308217
0.15957
-0.00363616
0.100632
-0.0463047
0.122412
1.23738
0.138501
-0.23578
-0.147572
-0.0745676
-0.0430506
-0.0208823
0.00218831
0.020629
0.0345436
0.0476905
0.426853
1.58268
1.78631
0.856532
0.13819
0.0594196
0.0999629
1.54333
1.17097
0.385808
-0.304658
-0.199544
-0.125521
-0.0760077
-0.0415978
-0.016982
0.00313686
0.0184127
0.0316269
0.0647939
0.156879
1.78565
2.00515
0.894682
0.105894
0.155051
2.15397
1.13107
0.351777
-0.349677
-0.232416
-0.150116
-0.0963299
-0.0590057
-0.0322168
-0.0118017
0.00135332
0.0413961
0.669572
1.07396
0.350209
1.48189
3.57367
0.474595
0.132957
2.24078
1.1309
0.83967
-0.315748
-0.245087
-0.161987
-0.107292
-0.0698123
-0.0435174
-0.0254832
-0.0171276
0.241076
1.57904
1.63824
0.327673
0.527928
3.80252
1.32043
0.083541
2.6329
1.27282
0.853528
-0.300662
-0.232864
-0.158919
-0.109503
-0.0744151
-0.0500556
-0.0351697
-0.0290263
-0.0500954
1.18434
1.64659
0.525187
0.803283
3.87493
1.08872
0.0486514
3.28034
1.17486
-0.0214524
-0.277903
-0.204385
-0.145015
-0.103273
-0.0726924
-0.0509948
-0.0369519
-0.0313386
-0.0451451
-0.0641676
0.736992
0.680309
0.739685
3.43972
0.166734
0.0499225
3.54659
-0.291261
-0.289266
-0.191282
-0.150869
-0.12242
-0.08978
-0.0651447
-0.0464831
-0.0327837
-0.0242722
-0.0250519
-0.0302544
0.00135487
0.484915
3.71562
4.30828
0.349379
2.16837
3.62522
-0.255665
-0.191501
-0.131538
-0.111883
-0.095367
-0.072276
-0.0533086
-0.0376019
-0.0246317
-0.0138546
-0.00908756
-0.0052961
0.478539
1.36849
4.48351
4.4119
3.10061
1.3402
1.10513
-0.128619
-0.104286
-0.0926045
-0.0842867
-0.0686054
-0.0531817
-0.0392392
-0.0267364
-0.0153536
-0.0062441
-0.00216118
0.00622287
0.647054
3.78096
4.57137
1.59265
0.672458
0.029205
-0.0108356
-0.041359
-0.0514352
-0.0604459
-0.0541514
-0.0450201
-0.0350774
-0.0249986
-0.0156227
-0.00672934
-0.00431175
0.0466135
-0.00107058
2.60585
3.83763
1.98563
0.00117978
0.00845983
0.0178968
0.00442391
-0.001381
-0.0229828
-0.0328634
-0.0311337
-0.0264547
-0.019904
-0.0124401
-0.00505223
0.000724689
0.0103867
0.342572
0.80591
3.5939
3.55425
0.0514848
0.0621729
0.0626358
0.0228614
0.01107
0.00808981
-0.0103396
-0.0155524
-0.0158491
-0.0133373
-0.00876954
-0.00324898
0.00371591
0.00353816
0.0705693
0.223343
0.796277
2.57469
1.56951
0.0206332
0.0495529
0.00685856
0.0144645
0.00790674
0.00351063
-0.00270814
-0.00592676
-0.00670201
-0.00551122
-0.0028151
0.000133197
0.00177824
-0.00278874
-0.0120926
0.00144952
0.205188
0.0416028
-0.00648322
0.0952992
0.0128924
-0.0242816
-0.0017666
-0.00159546
0.00168655
4.77905e-05
-0.000813938
-0.000945568
-0.000478401
0.000231425
-0.000393222
-0.00528292
-0.00919085
-0.00403598
0.00660794
-0.00420573
-0.0216874
-0.0437644
0.0252938
-0.124328
-0.0573096
-0.0208173
-0.0118129
)
;

boundaryField
{
    leftWall
    {
        type            fixedFluxPressure;
        gradient        uniform 0;
        value           nonuniform List<scalar> 
50
(
920.93
914.017
911.57
909.851
908.092
930.465
935.256
932.764
928.284
911.866
852.93
281.897
1.4432
1.42236
1.40436
1.47632
1.24755
1.20833
1.24315
2.17657
2.23445
1.28547
0.67933
0.660153
0.647811
0.648295
0.650606
0.837287
1.39941
1.65114
2.00186
3.36287
3.39894
3.45174
1.55172
0.781147
0.884401
2.5297
1.58139
0.294434
-0.150151
-0.139578
-0.121179
-0.114382
-0.110648
-0.108119
-0.106263
-0.105039
-0.104043
-0.103865
)
;
    }
    rightWall
    {
        type            fixedFluxPressure;
        gradient        uniform 0;
        value           nonuniform List<scalar> 
50
(
695.53
689.98
688.794
688.3
688.25
714.247
721.964
723.506
725.137
693.071
192.468
2.00831
1.92862
1.90434
1.61186
1.53199
1.56203
1.71972
1.38244
1.28978
1.25387
1.36686
1.68917
1.78674
1.35436
1.57027
3.10942
3.05091
2.99034
1.07655
0.620626
0.214579
-0.0995525
-0.121014
-0.0407071
0.122412
1.54333
2.15397
2.24078
2.6329
3.28034
3.54659
3.62522
1.10513
-0.0108356
0.00442391
0.01107
0.00790674
-0.00159546
-0.0118129
)
;
    }
    lowerWall
    {
        type            fixedFluxPressure;
        gradient        uniform 0;
        value           nonuniform List<scalar> 
62
(
920.93
923.555
925.026
924.23
921.311
916.668
912.52
905.818
897.254
891.683
887.016
876.711
861.932
848.263
838.525
829.317
818.659
809.441
804.284
801.942
799.256
793.779
791.63
791.63
790.698
789.483
788.18
785.703
780.212
768.976
750.125
635.564
633.725
639.918
627.028
577.624
576.081
573.778
572.694
577.675
567.167
570.046
555.626
577.624
579.769
592.661
594.028
586.743
611.163
630.582
639.897
650.307
661.127
660.824
655.623
662.367
679.077
686.241
685.809
686.41
689.893
695.53
)
;
    }
    atmosphere
    {
        type            totalPressure;
        rho             rho;
        psi             none;
        gamma           1;
        p0              uniform 0;
        value           nonuniform List<scalar> 
46
(
-0.104146
-0.105032
-0.102717
-0.0988498
-0.0932128
-0.0851038
-0.0807316
-0.0725086
-0.0630987
-0.0527406
-0.0416708
-0.0302504
-0.0190127
-0.00890097
-0.00167083
0
0
0
0
0
0
0
0
0
0
0
0
0
0
0
0
0
0
0
0
-0.00251179
-0.00868503
-0.000127019
0
0
0
0
-0.0923195
-0.0755809
-0.0298298
-0.0168791
)
;
    }
    defaultFaces
    {
        type            empty;
    }
}


// ************************************************************************* //
