/*--------------------------------*- C++ -*----------------------------------*\
| =========                 |                                                 |
| \\      /  F ield         | OpenFOAM: The Open Source CFD Toolbox           |
|  \\    /   O peration     | Version:  2.3.0                                 |
|   \\  /    A nd           | Web:      www.OpenFOAM.org                      |
|    \\/     M anipulation  |                                                 |
\*---------------------------------------------------------------------------*/
FoamFile
{
    version     2.0;
    format      ascii;
    class       surfaceScalarField;
    location    "2.7";
    object      phi;
}
// * * * * * * * * * * * * * * * * * * * * * * * * * * * * * * * * * * * * * //

dimensions      [0 3 -1 0 0 0 0];

internalField   nonuniform List<scalar> 
4432
(
3.7865e-06
-3.7865e-06
6.9168e-06
-3.1303e-06
9.48365e-06
-2.56685e-06
1.23833e-05
-2.8996e-06
1.54408e-05
-3.05755e-06
1.59719e-05
-5.31111e-07
1.24534e-05
3.51856e-06
8.44052e-06
4.01285e-06
8.45874e-06
-1.82224e-08
1.24608e-05
-4.00209e-06
1.78442e-05
-5.38332e-06
2.18848e-05
-4.04064e-06
2.37736e-05
-1.8888e-06
2.36193e-05
1.54276e-07
2.14279e-05
2.19139e-06
1.77005e-05
3.72748e-06
1.38853e-05
3.81515e-06
1.12501e-05
2.63521e-06
9.14793e-06
2.10215e-06
6.10068e-06
3.04725e-06
1.86015e-06
4.24054e-06
-1.28946e-06
3.14961e-06
-1.28946e-06
2.39759e-06
-6.18409e-06
3.14492e-06
-3.87762e-06
3.83986e-06
-3.26179e-06
5.64745e-06
-4.70719e-06
8.24973e-06
-5.65982e-06
9.84968e-06
-2.13107e-06
9.52972e-06
3.83853e-06
9.37223e-06
4.17034e-06
1.21719e-05
-2.81786e-06
1.74341e-05
-9.2643e-06
2.31844e-05
-1.11336e-05
2.65926e-05
-7.44889e-06
2.69118e-05
-2.20799e-06
2.56953e-05
1.37079e-06
2.41198e-05
3.76691e-06
2.14206e-05
6.42668e-06
1.80406e-05
7.19513e-06
1.52339e-05
5.44187e-06
1.28693e-05
4.4668e-06
9.44712e-06
6.46944e-06
4.3408e-06
9.34686e-06
4.12284e-07
7.07813e-06
-8.77178e-07
2.35993e-06
-8.54402e-06
1.52376e-06
-3.04145e-06
1.52964e-06
-3.26767e-06
2.79975e-06
-5.97731e-06
3.92218e-06
-6.78225e-06
5.5703e-06
-3.7792e-06
8.38344e-06
1.02539e-06
1.21767e-05
3.77082e-07
1.62315e-05
-6.87264e-06
2.17376e-05
-1.47704e-05
2.78417e-05
-1.72378e-05
3.18092e-05
-1.14163e-05
3.18943e-05
-2.2931e-06
2.89855e-05
4.27961e-06
2.55757e-05
7.17668e-06
2.27125e-05
9.2899e-06
2.05725e-05
9.33516e-06
1.89021e-05
7.11222e-06
1.66665e-05
6.70244e-06
1.28895e-05
1.02464e-05
7.77074e-06
1.44656e-05
2.95338e-06
1.18955e-05
2.0762e-06
3.15517e-06
-1.16992e-05
3.4229e-06
-3.30918e-06
3.58125e-06
-3.42602e-06
5.06095e-06
-7.45701e-06
6.70146e-06
-8.42275e-06
9.0869e-06
-6.16464e-06
1.28489e-05
-2.73664e-06
1.67578e-05
-3.53181e-06
2.06435e-05
-1.07584e-05
2.53696e-05
-1.94965e-05
3.01846e-05
-2.20528e-05
3.38145e-05
-1.50461e-05
3.45343e-05
-3.01288e-06
3.20906e-05
6.72331e-06
2.85409e-05
1.07263e-05
2.57392e-05
1.20916e-05
2.41039e-05
1.09705e-05
2.27689e-05
8.44722e-06
2.05487e-05
8.92265e-06
1.67503e-05
1.40448e-05
1.15956e-05
1.96202e-05
5.72675e-06
1.77643e-05
7.80294e-06
3.39995e-06
-1.50991e-05
7.09901e-06
-7.00825e-06
8.55747e-06
-4.88448e-06
9.76979e-06
-8.66935e-06
1.18856e-05
-1.05385e-05
1.49544e-05
-9.23342e-06
1.85511e-05
-6.33339e-06
2.21073e-05
-7.08797e-06
2.58605e-05
-1.45116e-05
2.94893e-05
-2.31253e-05
3.21618e-05
-2.47253e-05
3.38003e-05
-1.66847e-05
3.41636e-05
-3.37622e-06
3.29218e-05
7.96514e-06
3.05269e-05
1.31213e-05
2.84772e-05
1.41413e-05
2.72585e-05
1.21892e-05
2.59958e-05
9.70993e-06
2.36836e-05
1.12349e-05
1.99998e-05
1.77286e-05
1.49713e-05
2.46487e-05
8.34815e-06
2.43875e-05
1.61511e-05
1.89644e-06
-1.69956e-05
8.23875e-06
-1.33506e-05
1.31303e-05
-9.77602e-06
1.5462e-05
-1.10011e-05
1.7433e-05
-1.25095e-05
2.01046e-05
-1.1905e-05
2.33831e-05
-9.61189e-06
2.71349e-05
-1.08398e-05
3.06645e-05
-1.80412e-05
3.28939e-05
-2.53547e-05
3.33308e-05
-2.51622e-05
3.26075e-05
-1.59613e-05
3.17552e-05
-2.52396e-06
3.10175e-05
8.70289e-06
2.9911e-05
1.42277e-05
2.89284e-05
1.51239e-05
2.83811e-05
1.27365e-05
2.7572e-05
1.0519e-05
2.54917e-05
1.33152e-05
2.20779e-05
2.11425e-05
1.74023e-05
2.93243e-05
1.05585e-05
3.12313e-05
2.67095e-05
5.95664e-07
-1.75913e-05
7.28044e-06
-2.00353e-05
1.43054e-05
-1.6801e-05
1.90467e-05
-1.57424e-05
2.23808e-05
-1.58436e-05
2.53482e-05
-1.48725e-05
2.86089e-05
-1.28726e-05
3.21406e-05
-1.43715e-05
3.46013e-05
-2.05018e-05
3.47258e-05
-2.54792e-05
3.27996e-05
-2.32361e-05
3.0249e-05
-1.34107e-05
2.84121e-05
-6.87087e-07
2.75368e-05
9.57817e-06
2.70451e-05
1.47195e-05
2.68779e-05
1.52911e-05
2.70714e-05
1.25431e-05
2.68498e-05
1.07405e-05
2.5278e-05
1.4887e-05
2.25306e-05
2.38899e-05
1.86414e-05
3.32134e-05
1.26451e-05
3.72276e-05
3.93547e-05
1.88548e-06
-1.94767e-05
9.18645e-06
-2.73363e-05
1.65107e-05
-2.41253e-05
2.18241e-05
-2.10558e-05
2.59493e-05
-1.99687e-05
2.94539e-05
-1.83771e-05
3.27867e-05
-1.62054e-05
3.55477e-05
-1.71325e-05
3.63707e-05
-2.13248e-05
3.43513e-05
-2.34597e-05
3.04191e-05
-1.93039e-05
2.65159e-05
-9.50745e-06
2.40609e-05
1.76791e-06
2.31263e-05
1.05127e-05
2.31599e-05
1.4686e-05
2.35293e-05
1.49217e-05
2.35096e-05
1.25627e-05
2.28154e-05
1.14348e-05
2.17919e-05
1.59105e-05
2.06674e-05
2.50144e-05
1.87802e-05
3.51006e-05
1.4164e-05
4.18439e-05
5.35187e-05
4.78092e-06
-4.78092e-06
5.21941e-06
-4.38493e-07
-1.19517e-06
6.41458e-06
-1.14939e-05
1.02987e-05
-1.70082e-05
5.51434e-06
-9.94561e-06
-7.06263e-06
-2.74088e-06
-7.20472e-06
7.48183e-07
-3.48907e-06
3.75443e-06
-3.00624e-06
9.7491e-06
-5.99468e-06
1.59687e-05
-6.21955e-06
1.65682e-05
-5.99514e-07
8.75627e-06
7.8119e-06
-2.50932e-06
1.12656e-05
-9.40862e-06
6.8993e-06
-1.20788e-05
2.67021e-06
-1.25437e-05
4.64846e-07
-8.19395e-06
-4.34974e-06
-8.19394e-06
2.47968e-06
-7.26059e-06
4.70708e-06
-2.6659e-06
-2.41113e-06
1.35328e-05
-1.15929e-05
1.94805e-05
-1.08944e-05
4.81585e-06
-2.34773e-06
-1.56093e-05
2.7026e-06
-1.2255e-05
4.3392e-06
-5.12569e-06
5.14593e-06
-3.81295e-06
9.20364e-06
-1.00524e-05
1.40824e-05
-1.10983e-05
1.66178e-05
-3.1349e-06
1.50181e-05
9.41156e-06
6.37819e-06
1.99055e-05
-3.8325e-06
1.711e-05
-8.76403e-06
7.60175e-06
-9.33602e-06
1.03684e-06
-5.76754e-06
-7.91823e-06
-1.39615e-05
-3.22806e-07
-6.93779e-06
3.0822e-06
-6.0709e-06
-1.11546e-06
1.77304e-05
-5.3355e-06
2.37005e-05
-1.94194e-06
1.4223e-06
2.32267e-06
-1.98739e-05
5.77668e-06
-1.5709e-05
5.16763e-06
-4.51665e-06
3.63669e-06
-2.28201e-06
5.43833e-06
-1.18541e-05
9.46259e-06
-1.51226e-05
1.18354e-05
-5.50768e-06
1.3228e-05
8.01895e-06
1.12287e-05
2.19048e-05
4.71905e-06
2.36197e-05
-1.03344e-06
1.33542e-05
-3.44658e-06
3.44999e-06
-2.60922e-06
-8.75561e-06
-1.65707e-05
-2.56043e-06
-4.37737e-06
1.25283e-06
-9.88416e-06
6.95845e-07
1.82874e-05
-1.92073e-07
2.45884e-05
3.67444e-06
-2.4442e-06
4.43624e-06
-2.06358e-05
4.86207e-06
-1.61349e-05
2.4128e-06
-2.06739e-06
2.11773e-07
-8.09757e-08
9.87061e-08
-1.1741e-05
3.28941e-06
-1.83133e-05
5.28942e-06
-7.50769e-06
7.30912e-06
5.99924e-06
9.78577e-06
1.94281e-05
8.33413e-06
2.50713e-05
4.41571e-06
1.72727e-05
1.08536e-06
6.78035e-06
-4.88099e-08
-7.62145e-06
-1.66195e-05
-3.49372e-06
-8.83647e-07
3.41418e-07
-1.37193e-05
3.48275e-06
1.51461e-05
5.46252e-06
2.26087e-05
6.58374e-06
-3.56542e-06
4.36208e-06
-1.84141e-05
1.58256e-06
-1.33553e-05
-1.4984e-06
1.01356e-06
-3.87969e-06
2.30031e-06
-4.36891e-06
-1.12518e-05
-3.39338e-06
-1.92888e-05
-1.65566e-06
-9.24542e-06
3.58429e-07
3.98515e-06
4.27592e-06
1.55106e-05
6.45077e-06
2.28964e-05
5.12859e-06
1.85948e-05
2.30516e-06
9.6038e-06
4.07004e-07
-5.7233e-06
-1.62125e-05
-1.09629e-06
2.12644e-07
1.00936e-06
-1.5825e-05
6.91383e-06
9.24164e-06
1.19135e-05
1.7609e-05
1.01236e-05
-1.77548e-06
3.505e-06
-1.17955e-05
-1.94303e-06
-7.90731e-06
-4.67025e-06
3.74077e-06
-6.75936e-06
4.38942e-06
-8.62243e-06
-9.3887e-06
-1.0012e-05
-1.78992e-05
-8.96355e-06
-1.02939e-05
-7.01906e-06
2.04065e-06
-2.855e-06
1.13466e-05
1.50577e-06
1.85357e-05
2.48827e-06
1.76123e-05
3.30634e-07
1.17614e-05
2.618e-07
-5.65447e-06
-1.59507e-05
5.12028e-06
-4.90764e-06
5.06977e-06
-1.57744e-05
1.07163e-05
3.59512e-06
1.71637e-05
1.11616e-05
1.32888e-05
2.09941e-06
2.99759e-06
-1.50431e-06
-3.6174e-06
-1.29232e-06
-5.62251e-06
5.74588e-06
-8.38027e-06
7.14718e-06
-1.21662e-05
-5.60273e-06
-1.58618e-05
-1.42036e-05
-1.60398e-05
-1.01159e-05
-1.36512e-05
-3.47921e-07
-9.89593e-06
7.59127e-06
-5.10774e-06
1.37475e-05
-3.13167e-06
1.56363e-05
-1.85334e-06
1.04831e-05
1.25956e-06
-8.76738e-06
-1.46911e-05
1.5927e-05
-2.08346e-05
1.53411e-05
-1.51885e-05
1.8096e-05
8.40228e-07
2.16857e-05
7.57191e-06
1.63652e-05
7.41988e-06
4.19099e-06
1.06699e-05
-3.96658e-06
6.86525e-06
-6.5446e-06
8.3239e-06
-9.57347e-06
1.0176e-05
-1.46569e-05
-5.19332e-07
-2.07855e-05
-8.07499e-06
-2.33469e-05
-7.55452e-06
-2.14752e-05
-2.21959e-06
-1.77528e-05
3.86884e-06
-1.37694e-05
9.76409e-06
-9.70455e-06
1.15714e-05
-2.99546e-06
3.77402e-06
1.70132e-06
-1.34642e-05
-1.29898e-05
1.07155e-05
-3.01922e-05
2.8694e-05
-4.53148e-05
4.35809e-05
-3.90121e-05
5.31823e-05
-3.06572e-05
5.97943e-05
-2.65808e-05
6.52644e-05
-2.38472e-05
6.97713e-05
-2.07123e-05
7.20991e-05
-1.94602e-05
7.00262e-05
-1.92519e-05
6.21287e-05
-1.55623e-05
5.09161e-05
-8.0913e-06
4.10002e-05
4.08457e-07
3.46263e-05
8.14174e-06
3.20395e-05
1.30996e-05
3.11669e-05
1.55585e-05
2.86874e-05
1.74012e-05
2.49794e-05
1.62707e-05
2.18777e-05
1.45364e-05
2.12891e-05
1.64991e-05
2.39488e-05
2.23546e-05
3.00494e-05
2.9e-05
3.95316e-05
3.23617e-05
3.33044e-05
5.97459e-05
1.46707e-05
-4.48629e-05
2.92776e-05
-5.99217e-05
4.03055e-05
-5.00401e-05
4.72942e-05
-3.76458e-05
5.10911e-05
-3.03777e-05
5.32476e-05
-2.60036e-05
5.34868e-05
-2.09515e-05
5.11506e-05
-1.71241e-05
4.57398e-05
-1.38411e-05
3.6976e-05
-6.79848e-06
2.63385e-05
2.54616e-06
1.66134e-05
1.01336e-05
7.54291e-06
1.72122e-05
-1.18973e-06
2.18322e-05
-9.3044e-06
2.36732e-05
-1.55507e-05
2.36475e-05
-1.78817e-05
1.86017e-05
-1.63763e-05
1.3031e-05
-1.45901e-05
1.47129e-05
-8.93207e-06
1.66966e-05
1.99547e-06
1.80725e-05
1.63254e-05
1.80318e-05
1.48901e-05
3.47396e-05
1.49918e-05
-5.98547e-05
2.18978e-05
-6.68277e-05
2.67058e-05
-5.4848e-05
3.05977e-05
-4.15377e-05
3.10853e-05
-3.08653e-05
2.82146e-05
-2.31329e-05
2.28196e-05
-1.55565e-05
1.63323e-05
-1.06368e-05
1.13985e-05
-8.90723e-06
7.1977e-06
-2.59771e-06
3.54183e-06
6.20203e-06
-7.17748e-07
1.43932e-05
-5.62275e-06
2.21172e-05
-1.1393e-05
2.76025e-05
-1.65829e-05
2.8863e-05
-1.57402e-05
2.28049e-05
-9.26782e-06
1.21293e-05
-8.94058e-06
1.27037e-05
-1.37692e-05
1.95415e-05
-1.60692e-05
1.89967e-05
-8.22297e-06
1.02262e-05
9.71622e-06
9.25883e-08
-2.52285e-05
4.98348e-05
1.44802e-05
-7.43349e-05
1.36393e-05
-6.59869e-05
1.66153e-05
-5.7824e-05
2.46609e-05
-4.95832e-05
2.97921e-05
-3.59966e-05
2.56681e-05
-1.9009e-05
1.84724e-05
-8.36075e-06
1.32427e-05
-5.40715e-06
1.17426e-05
-7.40714e-06
1.55219e-05
-6.37699e-06
2.37798e-05
-2.05593e-06
3.24733e-05
5.69976e-06
4.53463e-05
9.24418e-06
6.22194e-05
1.07294e-05
5.5016e-05
3.60664e-05
2.08387e-05
5.69822e-05
1.97674e-05
1.32005e-05
-1.56727e-05
4.81439e-05
-4.64433e-05
5.03123e-05
-6.30286e-05
3.55821e-05
-8.20374e-05
2.9235e-05
-8.31828e-05
1.23796e-06
-1.94773e-05
-8.8934e-05
-5.3626e-06
-6.89722e-05
-9.6251e-06
-6.17239e-05
-4.64008e-06
-6.28093e-05
5.11799e-07
-5.4735e-05
4.59167e-05
-8.14012e-05
7.57158e-05
-4.88079e-05
9.75656e-05
-3.02105e-05
0.000114572
-2.24131e-05
0.000114818
-7.65328e-06
9.46027e-05
1.38381e-05
7.82226e-05
1.43242e-05
8.43165e-05
-3.9416e-07
0.000110765
-1.72046e-05
0.000120094
1.40008e-06
7.79351e-05
7.82259e-05
2.71112e-05
0.000107806
-1.81313e-05
5.8443e-05
-4.42478e-05
7.42606e-05
-6.26224e-05
6.86872e-05
-8.00703e-05
5.303e-05
-7.99232e-05
2.90878e-05
-7.65035e-05
-2.18164e-06
-2.82691e-05
-6.77113e-05
-2.1363e-05
-4.76097e-05
-1.49207e-05
-6.81659e-05
1.67429e-05
-9.44727e-05
5.49021e-05
-9.28947e-05
6.21492e-05
-8.86484e-05
9.68777e-05
-8.35366e-05
0.000134551
-6.78837e-05
0.000154942
-4.28042e-05
0.000160768
-1.34787e-05
0.000170586
4.01943e-06
0.000173514
1.13964e-05
0.000154498
1.86222e-05
0.000111846
2.54472e-05
3.93699e-05
7.38766e-05
-1.51718e-05
0.000132767
-2.48948e-05
0.000117529
-5.61239e-05
8.96724e-05
-7.97668e-05
9.79038e-05
-9.65135e-05
8.54341e-05
-0.000103376
5.98925e-05
-9.92093e-05
2.49211e-05
-8.96683e-05
-1.17225e-05
-4.5561e-05
-7.23763e-05
-2.40424e-05
-2.35676e-05
-1.89694e-05
-7.32392e-05
-3.62703e-06
-0.000109815
2.19358e-05
-0.000118457
4.2856e-05
-0.000109569
6.70972e-05
-0.000107777
9.45424e-05
-9.53291e-05
0.000119932
-6.81936e-05
0.000137729
-3.12757e-05
0.000145636
-3.88757e-06
0.000135779
2.12529e-05
0.000102266
5.21354e-05
4.32278e-05
8.44857e-05
-1.69181e-05
0.000134022
-4.06755e-05
0.000156525
-5.51266e-05
0.00013198
-8.57461e-05
0.000120292
-0.000105263
0.000117421
-0.000114222
9.43931e-05
-0.000113365
5.90356e-05
-0.000105762
1.73184e-05
-9.18035e-05
-2.56811e-05
-6.82537e-05
-6.91107e-05
-1.16218e-05
-1.19456e-05
-1.02225e-05
-7.46379e-05
-8.97594e-07
-0.00011914
1.37472e-05
-0.000133102
3.29595e-05
-0.000128781
4.78905e-05
-0.000122708
6.12766e-05
-0.000108715
7.79873e-05
-8.49042e-05
8.77645e-05
-4.10527e-05
7.41331e-05
9.74376e-06
4.37287e-05
5.16573e-05
1.09061e-05
8.49581e-05
-1.95432e-05
0.000114935
-3.78023e-05
0.000152282
-4.77451e-05
0.000166467
-6.71754e-05
0.00015141
-9.06372e-05
0.000143754
-0.000101835
0.000128619
-0.000101676
9.4234e-05
-9.49645e-05
5.23241e-05
-8.17922e-05
4.14626e-06
-6.27082e-05
-4.47649e-05
-9.20697e-05
-3.88923e-05
2.40841e-06
-1.43546e-05
9.10867e-06
-8.1338e-05
2.14071e-05
-0.000131439
3.18769e-05
-0.000143572
3.78134e-05
-0.000134718
3.6736e-05
-0.000121631
3.0184e-05
-0.000102163
2.27273e-05
-7.74474e-05
1.03839e-05
-2.87093e-05
-1.15998e-05
3.17272e-05
-3.64693e-05
7.65271e-05
-4.69305e-05
9.54198e-05
-4.59196e-05
0.000113924
-4.0282e-05
0.000146644
-4.40287e-05
0.000170214
-5.74513e-05
0.000164833
-6.86214e-05
0.000154924
-6.88239e-05
0.000128822
-6.09897e-05
8.63997e-05
-4.79283e-05
3.92628e-05
-3.15475e-05
-1.22343e-05
-1.03468e-05
-6.59654e-05
-0.000113493
1.10769e-05
1.21836e-05
-2.65381e-05
3.11473e-05
-0.000100302
4.72889e-05
-0.000147581
5.43674e-05
-0.00015065
5.1826e-05
-0.000132177
4.05766e-05
-0.000110381
2.28572e-05
-8.44437e-05
-1.81233e-06
-5.27779e-05
-2.49427e-05
-5.57868e-06
-4.65393e-05
5.3324e-05
-6.01922e-05
9.01801e-05
-5.85877e-05
9.38151e-05
-4.78057e-05
0.000103142
-3.51556e-05
0.000133994
-2.91091e-05
0.000164168
-3.00464e-05
0.00016577
-2.71236e-05
0.000152002
-1.64494e-05
0.000118148
-1.63039e-06
7.15807e-05
1.58623e-05
2.17701e-05
3.48633e-05
-3.12351e-05
5.41109e-05
-8.52129e-05
-0.000131313
7.19309e-05
1.52726e-05
-4.18105e-05
4.47627e-05
-0.000129792
6.20159e-05
-0.000164834
6.59031e-05
-0.000154537
6.16201e-05
-0.000127894
5.04568e-05
-9.92181e-05
3.47321e-05
-6.87189e-05
9.59616e-06
-2.76418e-05
-1.37372e-05
1.77549e-05
-2.85545e-05
6.81413e-05
-3.76932e-05
9.93187e-05
-4.00355e-05
9.61572e-05
-3.41334e-05
9.72394e-05
-2.08725e-05
0.000120733
-4.48239e-06
0.000147778
8.96683e-06
0.000152321
2.59253e-05
0.000135043
4.5724e-05
9.83489e-05
6.56302e-05
5.16746e-05
8.57952e-05
1.60527e-06
0.000105215
-5.06543e-05
0.0001223
-0.000102299
-0.00014384
0.000134827
2.47743e-05
-6.65849e-05
5.25139e-05
-0.000157532
6.0372e-05
-0.000172692
5.89071e-05
-0.000153072
5.69284e-05
-0.000125915
5.25676e-05
-9.48571e-05
4.59879e-05
-6.21391e-05
3.88341e-05
-2.04878e-05
2.35548e-05
3.30341e-05
1.48206e-05
7.68755e-05
1.02549e-05
0.000103884
2.70637e-06
0.000103706
-5.6641e-07
0.000100512
9.01395e-06
0.000111152
3.04157e-05
0.000126376
5.55107e-05
0.000127226
8.2441e-05
0.000108113
0.000108584
7.22065e-05
0.000132402
2.78559e-05
0.000154341
-2.03339e-05
0.00017349
-6.98025e-05
0.000186724
-0.000115532
-0.000148508
0.000191392
3.11373e-05
-9.77221e-05
4.5085e-05
-0.00017148
4.02036e-05
-0.000167811
3.81706e-05
-0.00015104
4.54909e-05
-0.000133235
5.0199e-05
-9.95649e-05
5.07237e-05
-6.26638e-05
5.37646e-05
-2.35286e-05
5.9447e-05
2.73517e-05
6.07889e-05
7.55337e-05
6.1392e-05
0.000103281
5.62989e-05
0.000108799
5.1354e-05
0.000105457
5.72685e-05
0.000105238
7.74922e-05
0.000106152
0.00010651
9.82082e-05
0.000138389
7.62344e-05
0.000168364
4.22316e-05
0.000195268
9.51672e-07
0.000218015
-4.30804e-05
0.000233843
-8.56311e-05
0.000238619
-0.000120308
-0.000141336
0.000231448
2.77058e-05
-0.000125428
2.813e-05
-0.000171904
2.06363e-05
-0.000160317
2.55563e-05
-0.000155959
4.33232e-05
-0.000151002
5.52556e-05
-0.000111497
5.79676e-05
-6.53758e-05
6.11114e-05
-2.66723e-05
7.32698e-05
1.51934e-05
8.91502e-05
5.96532e-05
0.00010124
9.11915e-05
0.00010538
0.000104658
0.000107226
0.000103611
0.000114967
9.74972e-05
0.000133862
8.72569e-05
0.000162164
6.99061e-05
0.000194277
4.41214e-05
0.000225213
1.12962e-05
0.000251925
-2.57609e-05
0.000269328
-6.04826e-05
0.000274481
-9.07848e-05
0.000265765
-0.000111591
-0.000120644
0.000245073
1.75589e-05
-0.000142987
1.37126e-05
-0.000168058
1.24472e-05
-0.000159051
2.43354e-05
-0.000167847
4.24114e-05
-0.000169077
5.98623e-05
-0.000128948
6.77756e-05
-7.32891e-05
6.80191e-05
-2.69157e-05
7.3139e-05
1.00736e-05
9.09064e-05
4.18856e-05
0.000112149
6.99491e-05
0.000131698
8.51089e-05
0.000147558
8.77519e-05
0.000163363
8.16923e-05
0.000184213
6.64066e-05
0.00021118
4.29392e-05
0.000241343
1.39579e-05
0.000268628
-1.59882e-05
0.000284473
-4.16061e-05
0.000286429
-6.24382e-05
0.000277657
-8.20132e-05
0.000258372
-9.23064e-05
-9.22738e-05
0.000230002
6.89855e-06
-0.000149886
1.8306e-06
-0.00016299
2.5494e-06
-0.00015977
1.08932e-05
-0.000176191
2.03783e-05
-0.000178563
3.49854e-05
-0.000143555
5.34036e-05
-9.17073e-05
6.74125e-05
-4.09246e-05
7.19323e-05
5.55379e-06
8.01677e-05
3.36502e-05
0.000100176
4.99407e-05
0.000125371
5.99142e-05
0.000150212
6.29104e-05
0.000175891
5.60131e-05
0.000203297
3.90012e-05
0.000229979
1.62568e-05
0.00024914
-5.20275e-06
0.000258216
-2.50639e-05
0.000259112
-4.2502e-05
0.000254169
-5.74954e-05
0.000241857
-6.97017e-05
0.000221444
-7.18936e-05
-6.58778e-05
0.000195048
-4.69515e-06
-0.00014519
-1.36692e-05
-0.000154016
-2.3095e-05
-0.000150345
-2.88474e-05
-0.000170439
-2.88888e-05
-0.000178521
-1.84824e-05
-0.000153962
-1.38836e-06
-0.000108801
1.88315e-05
-6.11443e-05
3.16722e-05
-7.28692e-06
4.37801e-05
2.15422e-05
6.09861e-05
3.27348e-05
8.3305e-05
3.75953e-05
0.00010849
3.77251e-05
0.000133917
3.05863e-05
0.000156038
1.68801e-05
0.000174719
-2.42411e-06
0.00019069
-2.11737e-05
0.000204287
-3.86601e-05
0.000212065
-5.02808e-05
0.000211556
-5.69861e-05
0.000198395
-5.65411e-05
0.000175777
-4.92751e-05
-4.43855e-05
0.000154285
-1.42874e-05
-0.000130903
-3.06108e-05
-0.000137692
-5.55208e-05
-0.000125435
-7.84893e-05
-0.00014747
-8.95502e-05
-0.00016746
-8.86821e-05
-0.00015483
-8.09206e-05
-0.000116563
-7.04017e-05
-7.16632e-05
-5.00451e-05
-2.76435e-05
-2.65605e-05
-1.94245e-06
-2.38452e-06
8.55898e-06
2.63002e-05
8.91058e-06
6.16434e-05
2.38187e-06
9.94509e-05
-7.22127e-06
0.000132426
-1.60946e-05
0.000160769
-3.07675e-05
0.000182574
-4.2979e-05
0.000193742
-4.98273e-05
0.000193465
-5.0004e-05
0.000180596
-4.41167e-05
0.000153166
-2.91121e-05
0.000125449
-2.15574e-05
-2.53357e-05
0.000106399
-1.98684e-05
-0.000111035
-3.71314e-05
-0.000120429
-6.97928e-05
-9.27734e-05
-0.000106855
-0.000110408
-0.000131976
-0.000142339
-0.000144148
-0.000142658
-0.000146849
-0.000113862
-0.000140803
-7.7709e-05
-0.000118746
-4.97006e-05
-8.85718e-05
-3.21164e-05
-5.53641e-05
-2.46487e-05
-2.02049e-05
-2.62487e-05
1.68905e-05
-3.47135e-05
5.27258e-05
-4.30565e-05
8.22631e-05
-4.56318e-05
0.000109714
-5.82182e-05
0.000130103
-6.33687e-05
0.000136293
-5.60168e-05
0.000129324
-4.30352e-05
0.000105735
-2.05277e-05
7.61375e-05
4.8534e-07
6.18883e-05
-7.30816e-06
7.95547e-07
3.57571e-05
-2.09545e-05
-9.008e-05
-2.85948e-05
-0.000112789
-4.91976e-05
-7.21706e-05
-9.02367e-05
-6.93691e-05
-0.000128562
-0.000104014
-0.000153234
-0.000117986
-0.000163381
-0.000103716
-0.000156596
-8.44935e-05
-0.000135797
-7.05001e-05
-0.000110505
-5.7408e-05
-8.50014e-05
-5.01523e-05
-5.71693e-05
-5.40808e-05
-2.53566e-05
-6.65262e-05
9.03842e-06
-7.74514e-05
3.40242e-05
-7.06176e-05
5.4258e-05
-7.84522e-05
6.87105e-05
-7.78212e-05
6.60003e-05
-5.33068e-05
4.43723e-05
-2.14073e-05
2.07113e-05
3.13322e-06
1.17395e-05
9.45722e-06
-7.3627e-06
1.17941e-05
3.78026e-05
-4.43697e-05
-2.01066e-05
-6.99735e-05
-2.03997e-05
-0.000112496
-1.14282e-05
-8.11421e-05
-3.5888e-05
-4.49092e-05
-7.66336e-05
-6.32682e-05
-0.000113435
-8.11844e-05
-0.00013885
-7.83005e-05
-0.00015193
-7.14141e-05
-0.000150337
-7.20927e-05
-0.000136244
-7.15009e-05
-0.000113212
-7.31844e-05
-8.18725e-05
-8.54201e-05
-4.51464e-05
-0.000103252
-6.21267e-06
-0.000116385
1.95498e-05
-9.63801e-05
3.22012e-05
-9.11036e-05
3.84264e-05
-8.40466e-05
1.99057e-05
-3.47862e-05
-1.42201e-06
-7.95405e-08
-1.4912e-05
1.66231e-05
-3.01199e-05
2.46652e-05
-6.70114e-05
4.86855e-05
7.77894e-05
-0.000106998
-1.74143e-05
-5.25591e-05
-1.91393e-05
-0.000110771
8.0328e-06
-0.000108314
2.2061e-05
-5.89373e-05
-1.89878e-06
-3.93085e-05
-3.51563e-05
-4.7927e-05
-5.69159e-05
-5.65408e-05
-6.87984e-05
-5.95315e-05
-7.13951e-05
-6.94961e-05
-6.50231e-05
-7.7873e-05
-5.11155e-05
-8.7092e-05
-3.61798e-05
-0.000100356
-2.03335e-05
-0.000119099
1.50818e-06
-0.000138227
2.15588e-05
-0.000116431
2.16686e-05
-9.12134e-05
2.16927e-05
-8.40707e-05
3.51012e-06
-1.66036e-05
-1.99525e-05
2.33829e-05
-4.07603e-05
3.7431e-05
-7.35425e-05
5.74473e-05
-0.000115447
9.05899e-05
0.000112081
-0.000149738
-9.76276e-06
-4.27963e-05
-1.36302e-05
-0.000106903
6.48968e-06
-0.000128434
4.68779e-05
-9.93255e-05
5.64289e-05
-4.88596e-05
4.19813e-05
-3.34794e-05
2.95999e-05
-4.41595e-05
2.63821e-05
-5.63139e-05
2.70469e-05
-7.0161e-05
3.06683e-05
-8.14946e-05
3.25923e-05
-8.90162e-05
2.8563e-05
-9.63267e-05
2.18055e-05
-0.000112341
1.88924e-05
-0.000135314
2.73622e-05
-0.000124901
1.92389e-05
-8.30903e-05
8.58376e-06
-7.34155e-05
-7.15886e-06
-8.60882e-07
-3.22196e-05
4.84434e-05
-6.31278e-05
6.83392e-05
-0.000102755
9.70745e-05
-0.000138938
0.000126772
0.000134056
-0.000160913
-9.13782e-07
-4.18825e-05
-1.24744e-06
-0.00010657
1.06919e-05
-0.000140373
4.39253e-05
-0.000132559
7.67236e-05
-8.1658e-05
8.91327e-05
-4.58887e-05
8.87323e-05
-4.37592e-05
9.32204e-05
-6.08021e-05
0.000102402
-7.9343e-05
0.000109581
-8.86735e-05
0.000108192
-8.76275e-05
9.35909e-05
-8.17254e-05
6.967e-05
-8.84204e-05
4.67111e-05
-0.000112355
3.74717e-05
-0.000115661
2.45007e-05
-7.01195e-05
2.11667e-06
-5.10316e-05
-1.08744e-05
1.21301e-05
-4.06793e-05
7.82481e-05
-7.69895e-05
0.000104649
-0.00011427
0.000134355
-0.000138806
0.000151308
0.000143767
-0.000148517
4.58346e-06
-4.64661e-05
6.86473e-06
-0.000108851
2.21759e-05
-0.000155685
4.53956e-05
-0.000155779
6.93626e-05
-0.000105625
8.77515e-05
-6.42777e-05
0.000101227
-5.72345e-05
0.000116748
-7.63236e-05
0.000132772
-9.53671e-05
0.000142677
-9.85783e-05
0.000142536
-8.74864e-05
0.000126737
-6.59263e-05
9.75781e-05
-5.92614e-05
6.73822e-05
-8.21595e-05
4.32074e-05
-9.14867e-05
2.69288e-05
-5.3841e-05
-9.87315e-07
-2.31155e-05
-1.2261e-05
2.34038e-05
-4.28679e-05
0.000108855
-7.87584e-05
0.00014054
-0.000110075
0.000165671
-0.000127166
0.0001684
0.000149679
-0.000133077
3.6205e-06
-5.00867e-05
7.02385e-06
-0.000112254
2.14786e-05
-0.000170139
3.9068e-05
-0.000173368
5.01272e-05
-0.000116684
5.64143e-05
-7.05649e-05
7.16346e-05
-7.24549e-05
9.77569e-05
-0.000102446
0.000117233
-0.000114843
0.000125938
-0.000107284
0.000124295
-8.58428e-05
0.000110464
-5.20952e-05
9.01258e-05
-3.89235e-05
6.71646e-05
-5.91983e-05
4.16557e-05
-6.59778e-05
2.42873e-05
-3.64727e-05
-4.0037e-06
5.1754e-06
-1.17729e-05
3.11729e-05
-3.85928e-05
0.000135675
-7.1507e-05
0.000173454
-9.84878e-05
0.000192652
-0.00011493
0.000184842
0.000161353
-0.000126605
-8.49527e-07
-4.92371e-05
2.60121e-06
-0.000115705
9.00492e-06
-0.000176543
1.46054e-05
-0.000178969
2.14e-05
-0.000123479
3.40274e-05
-8.31922e-05
5.4379e-05
-9.28066e-05
7.30457e-05
-0.000121113
8.07072e-05
-0.000122505
8.02266e-05
-0.000106803
7.17997e-05
-7.7416e-05
6.15542e-05
-4.18498e-05
6.0113e-05
-3.74824e-05
5.08045e-05
-4.98898e-05
3.37955e-05
-4.89688e-05
2.12428e-05
-2.392e-05
-1.19002e-07
2.6537e-05
-8.10706e-06
3.91609e-05
-2.80109e-05
0.000155579
-5.835e-05
0.000203793
-8.37244e-05
0.000218026
-0.000103356
0.000204474
0.000180178
-0.00012218
-6.60097e-06
-4.26361e-05
-5.09602e-06
-0.00011721
-7.83096e-06
-0.000173808
-1.36626e-05
-0.000173137
-8.35821e-06
-0.000128783
8.49933e-06
-0.00010005
2.55765e-05
-0.000109884
3.30931e-05
-0.000128629
3.16339e-05
-0.000121045
2.3803e-05
-9.89723e-05
1.28856e-05
-6.64986e-05
1.91549e-05
-4.81192e-05
3.23444e-05
-5.0672e-05
3.16357e-05
-4.91813e-05
2.63483e-05
-4.36814e-05
2.15205e-05
-1.90923e-05
8.52403e-06
3.95334e-05
-2.57271e-07
4.79421e-05
-1.35194e-05
0.000168841
-4.14551e-05
0.000231729
-6.62426e-05
0.000242814
-8.83206e-05
0.000226551
0.000202138
-0.000110281
-1.02727e-05
-3.23635e-05
-1.29639e-05
-0.000114519
-2.19533e-05
-0.000164819
-3.23871e-05
-0.000162703
-2.88925e-05
-0.000132278
-1.54433e-05
-0.000113499
-6.4383e-06
-0.000118889
-7.89935e-06
-0.000127168
-1.42868e-05
-0.000114658
-2.06569e-05
-9.26023e-05
-1.50439e-05
-7.21117e-05
4.33001e-06
-6.74932e-05
1.17169e-05
-5.80589e-05
1.55282e-05
-5.29926e-05
2.11813e-05
-4.93346e-05
2.39847e-05
-2.18957e-05
2.16476e-05
4.18704e-05
6.52798e-06
6.30617e-05
1.81964e-06
0.000173549
-2.23729e-05
0.000255921
-4.64318e-05
0.000266872
-6.79059e-05
0.000248025
0.000221453
-8.72203e-05
-1.00146e-05
-2.23491e-05
-1.52695e-05
-0.000109264
-2.78098e-05
-0.000152278
-3.65361e-05
-0.000153977
-3.29838e-05
-0.00013583
-2.40329e-05
-0.00012245
-1.81762e-05
-0.000124745
-2.23168e-05
-0.000123028
-2.75518e-05
-0.000109423
-2.57186e-05
-9.44356e-05
-1.52318e-05
-8.25985e-05
-1.14834e-05
-7.12417e-05
-9.74034e-06
-5.9802e-05
2.46218e-06
-6.51952e-05
1.49957e-05
-6.18682e-05
2.33478e-05
-3.02478e-05
2.87299e-05
3.64883e-05
1.33407e-05
7.84509e-05
1.58208e-05
0.000171069
-2.90165e-06
0.000274643
-2.5896e-05
0.000289867
-4.45765e-05
0.000266706
0.000234815
-5.79392e-05
-3.64405e-06
-1.8705e-05
-8.91352e-06
-0.000103995
-2.07242e-05
-0.000140468
-2.84158e-05
-0.000146286
-2.73789e-05
-0.000136867
-2.2443e-05
-0.000127386
-1.9721e-05
-0.000127468
-2.13898e-05
-0.000121359
-2.31406e-05
-0.000107672
-2.4827e-05
-9.27493e-05
-2.97653e-05
-7.76603e-05
-3.47083e-05
-6.62988e-05
-2.50576e-05
-6.94527e-05
-1.03603e-05
-7.98925e-05
1.20651e-06
-7.34351e-05
1.42094e-05
-4.32507e-05
2.65903e-05
2.41074e-05
1.95783e-05
8.5463e-05
2.28075e-05
0.00016784
1.1931e-05
0.00028552
-7.09067e-06
0.000308888
-2.16014e-05
0.000281217
0.000242686
-2.94726e-05
8.82376e-06
-2.75288e-05
6.93143e-06
-0.000102103
-4.12256e-06
-0.000129414
-1.62061e-05
-0.000134202
-2.17841e-05
-0.000131289
-2.28774e-05
-0.000126293
-2.53196e-05
-0.000125026
-2.97954e-05
-0.000116883
-3.59874e-05
-0.00010148
-4.49447e-05
-8.37923e-05
-5.1551e-05
-7.10543e-05
-4.7433e-05
-7.0417e-05
-3.57521e-05
-8.11338e-05
-2.65137e-05
-8.9131e-05
-1.55645e-05
-8.43843e-05
-2.88642e-06
-5.59286e-05
1.37821e-05
7.43896e-06
1.96794e-05
7.95658e-05
2.09806e-05
0.000166538
1.7668e-05
0.000288833
7.99756e-06
0.000318559
2.31194e-07
0.000288983
0.000244428
-1.51045e-06
1.80602e-05
-4.55889e-05
1.93296e-05
-0.000103372
8.8609e-06
-0.000118945
-6.79964e-06
-0.000118542
-1.96543e-05
-0.000118435
-2.8248e-05
-0.000117699
-3.69425e-05
-0.000116331
-4.63788e-05
-0.000107447
-5.51982e-05
-9.26614e-05
-6.01882e-05
-7.88024e-05
-5.7532e-05
-7.37106e-05
-5.02514e-05
-7.76978e-05
-4.6024e-05
-8.53613e-05
-4.34557e-05
-9.16994e-05
-3.76492e-05
-9.01907e-05
-2.70228e-05
-6.65549e-05
-9.54059e-06
-1.00432e-05
1.99653e-06
6.80286e-05
6.71175e-06
0.000161823
1.21882e-05
0.000283356
1.65162e-05
0.000314231
1.98914e-05
0.000285608
0.000238034
2.62852e-05
1.70742e-05
-6.26633e-05
1.95283e-05
-0.000105826
1.0148e-05
-0.000109565
-3.2393e-06
-0.000105155
-1.81536e-05
-0.000103521
-3.14697e-05
-0.000104383
-4.25773e-05
-0.000105224
-5.2191e-05
-9.78339e-05
-5.69082e-05
-8.79444e-05
-5.55053e-05
-8.02054e-05
-5.15081e-05
-7.77079e-05
-5.03885e-05
-7.88175e-05
-5.345e-05
-8.22997e-05
-5.77207e-05
-8.74286e-05
-6.00298e-05
-8.78816e-05
-5.629e-05
-7.02946e-05
-4.34874e-05
-2.28459e-05
-3.03959e-05
5.49371e-05
-2.27886e-05
0.000154216
-2.89561e-06
0.000263463
1.81855e-05
0.00029315
3.49177e-05
0.000268876
0.000222791
5.01606e-05
1.12525e-05
-7.3916e-05
1.09567e-05
-0.000105531
4.09839e-06
-0.000102707
-3.73755e-06
-9.73191e-05
-1.4699e-05
-9.25593e-05
-2.73157e-05
-9.17668e-05
-3.60034e-05
-9.65363e-05
-4.22584e-05
-9.15791e-05
-4.45617e-05
-8.56411e-05
-4.4446e-05
-8.03211e-05
-4.54926e-05
-7.66613e-05
-4.95386e-05
-7.47715e-05
-5.67614e-05
-7.50768e-05
-6.66887e-05
-7.75012e-05
-7.70337e-05
-7.75365e-05
-8.29252e-05
-6.44032e-05
-7.97166e-05
-2.60545e-05
-6.85376e-05
4.37581e-05
-5.19719e-05
0.00013765
-1.85598e-05
0.000230051
1.65244e-05
0.000258065
4.49252e-05
0.000240475
0.000199742
6.79746e-05
6.61609e-06
-8.05324e-05
2.6882e-06
-0.000101603
-2.09363e-06
-9.79255e-05
-5.57983e-06
-9.38331e-05
-1.10187e-05
-8.71207e-05
-1.98869e-05
-8.28986e-05
-2.58293e-05
-9.05939e-05
-3.04583e-05
-8.695e-05
-3.42351e-05
-8.18644e-05
-3.7593e-05
-7.69632e-05
-4.17677e-05
-7.24866e-05
-4.75548e-05
-6.89844e-05
-5.61502e-05
-6.64812e-05
-6.86559e-05
-6.49955e-05
-8.38021e-05
-6.23903e-05
-9.68815e-05
-5.13238e-05
-0.000102246
-2.06898e-05
-9.48111e-05
3.63229e-05
-7.09862e-05
0.000113825
-2.83853e-05
0.00018745
1.47235e-05
0.000214957
5.01975e-05
0.000205001
0.00017225
7.76893e-05
3.49745e-06
-8.40298e-05
-1.97303e-06
-9.61327e-05
-5.94424e-06
-9.39544e-05
-7.96648e-06
-9.1811e-05
-9.94899e-06
-8.51382e-05
-1.50551e-05
-7.77925e-05
-1.98831e-05
-8.5766e-05
-2.44509e-05
-8.23822e-05
-2.91369e-05
-7.71784e-05
-3.35756e-05
-7.25245e-05
-3.82909e-05
-6.77713e-05
-4.41221e-05
-6.31531e-05
-5.23566e-05
-5.82466e-05
-6.43153e-05
-5.30368e-05
-7.99596e-05
-4.6746e-05
-9.56009e-05
-3.56826e-05
-0.000104403
-1.1888e-05
-9.93212e-05
3.12414e-05
-7.47564e-05