/*--------------------------------*- C++ -*----------------------------------*\
| =========                 |                                                 |
| \\      /  F ield         | OpenFOAM: The Open Source CFD Toolbox           |
|  \\    /   O peration     | Version:  2.3.0                                 |
|   \\  /    A nd           | Web:      www.OpenFOAM.org                      |
|    \\/     M anipulation  |                                                 |
\*---------------------------------------------------------------------------*/
FoamFile
{
    version     2.0;
    format      ascii;
    class       volVectorField;
    location    "40";
    object      D;
}
// * * * * * * * * * * * * * * * * * * * * * * * * * * * * * * * * * * * * * //

dimensions      [0 1 0 0 0 0 0];

internalField   nonuniform List<vector> 
1000
(
(5.77617e-08 -2.47116e-08 0)
(5.42398e-08 -2.22429e-08 0)
(5.20939e-08 -2.06902e-08 0)
(5.08554e-08 -1.97193e-08 0)
(5.02433e-08 -1.91346e-08 0)
(5.00778e-08 -1.88142e-08 0)
(5.02381e-08 -1.8678e-08 0)
(5.06399e-08 -1.86717e-08 0)
(5.12237e-08 -1.87578e-08 0)
(5.19538e-08 -1.89131e-08 0)
(5.23219e-08 -2.68599e-08 0)
(4.86064e-08 -2.4865e-08 0)
(4.634e-08 -2.35986e-08 0)
(4.50191e-08 -2.28029e-08 0)
(4.43427e-08 -2.23263e-08 0)
(4.41201e-08 -2.20728e-08 0)
(4.42245e-08 -2.19784e-08 0)
(4.45693e-08 -2.19992e-08 0)
(4.50954e-08 -2.21043e-08 0)
(4.57677e-08 -2.22727e-08 0)
(4.66454e-08 -2.88781e-08 0)
(4.28757e-08 -2.74234e-08 0)
(4.05755e-08 -2.64841e-08 0)
(3.92251e-08 -2.58895e-08 0)
(3.85167e-08 -2.55373e-08 0)
(3.82559e-08 -2.53608e-08 0)
(3.83152e-08 -2.53143e-08 0)
(3.8608e-08 -2.53653e-08 0)
(3.90753e-08 -2.54904e-08 0)
(3.96801e-08 -2.56729e-08 0)
(4.07723e-08 -3.07363e-08 0)
(3.70983e-08 -2.98543e-08 0)
(3.48557e-08 -2.92636e-08 0)
(3.35325e-08 -2.88838e-08 0)
(3.28263e-08 -2.86648e-08 0)
(3.25475e-08 -2.85711e-08 0)
(3.2572e-08 -2.85763e-08 0)
(3.2816e-08 -2.86603e-08 0)
(3.32223e-08 -2.88075e-08 0)
(3.37539e-08 -2.90059e-08 0)
(3.47389e-08 -3.24023e-08 0)
(3.13117e-08 -3.20934e-08 0)
(2.922e-08 -3.18513e-08 0)
(2.79811e-08 -3.16871e-08 0)
(2.73116e-08 -3.16022e-08 0)
(2.70344e-08 -3.15923e-08 0)
(2.7034e-08 -3.16503e-08 0)
(2.72324e-08 -3.17682e-08 0)
(2.75763e-08 -3.19385e-08 0)
(2.80312e-08 -3.21542e-08 0)
(2.85781e-08 -3.38464e-08 0)
(2.55436e-08 -3.40763e-08 0)
(2.36913e-08 -3.41629e-08 0)
(2.25912e-08 -3.42022e-08 0)
(2.19911e-08 -3.42443e-08 0)
(2.17341e-08 -3.43141e-08 0)
(2.17182e-08 -3.44225e-08 0)
(2.18743e-08 -3.45734e-08 0)
(2.21555e-08 -3.47665e-08 0)
(2.25309e-08 -3.49997e-08 0)
(2.23187e-08 -3.50392e-08 0)
(1.9809e-08 -3.57435e-08 0)
(1.82767e-08 -3.61192e-08 0)
(1.7364e-08 -3.6338e-08 0)
(1.68626e-08 -3.64925e-08 0)
(1.66427e-08 -3.66331e-08 0)
(1.66199e-08 -3.67866e-08 0)
(1.67372e-08 -3.69672e-08 0)
(1.69556e-08 -3.7181e-08 0)
(1.72498e-08 -3.74306e-08 0)
(1.59865e-08 -3.59536e-08 0)
(1.41138e-08 -3.70404e-08 0)
(1.2968e-08 -3.76498e-08 0)
(1.22835e-08 -3.80139e-08 0)
(1.19054e-08 -3.82594e-08 0)
(1.17368e-08 -3.84573e-08 0)
(1.17145e-08 -3.86476e-08 0)
(1.17959e-08 -3.88524e-08 0)
(1.19519e-08 -3.90836e-08 0)
(1.21634e-08 -3.93471e-08 0)
(9.60559e-09 -3.65629e-08 0)
(8.45428e-09 -3.7919e-08 0)
(7.74458e-09 -3.86936e-08 0)
(7.31908e-09 -3.91599e-08 0)
(7.08323e-09 -3.9469e-08 0)
(6.97692e-09 -3.97069e-08 0)
(6.96086e-09 -3.99226e-08 0)
(7.00863e-09 -4.01444e-08 0)
(7.10235e-09 -4.0388e-08 0)
(7.23025e-09 -4.06619e-08 0)
(3.20291e-09 -3.68382e-08 0)
(2.82075e-09 -3.83317e-08 0)
(2.57726e-09 -3.9189e-08 0)
(2.4307e-09 -3.97049e-08 0)
(2.34929e-09 -4.00444e-08 0)
(2.31213e-09 -4.0301e-08 0)
(2.30572e-09 -4.05286e-08 0)
(2.32103e-09 -4.07582e-08 0)
(2.35208e-09 -4.10076e-08 0)
(2.39506e-09 -4.12867e-08 0)
(8.90175e-08 -1.14047e-09 0)
(8.95244e-08 -8.13377e-10 0)
(8.98514e-08 -5.91763e-10 0)
(9.01917e-08 -4.52463e-10 0)
(9.06382e-08 -3.68068e-10 0)
(9.1231e-08 -3.19542e-10 0)
(9.19829e-08 -2.94662e-10 0)
(9.28932e-08 -2.85511e-10 0)
(9.39547e-08 -2.86825e-10 0)
(9.51573e-08 -2.95303e-10 0)
(8.84525e-08 -3.47608e-09 0)
(8.88229e-08 -2.4505e-09 0)
(8.90658e-08 -1.80699e-09 0)
(8.93554e-08 -1.40567e-09 0)
(8.97703e-08 -1.16186e-09 0)
(9.0342e-08 -1.02176e-09 0)
(9.10788e-08 -9.50468e-10 0)
(9.19771e-08 -9.2496e-10 0)
(9.30275e-08 -9.29693e-10 0)
(9.42181e-08 -9.54023e-10 0)
(8.72034e-08 -5.83331e-09 0)
(8.73148e-08 -4.15267e-09 0)
(8.73961e-08 -3.11507e-09 0)
(8.75832e-08 -2.4716e-09 0)
(8.79309e-08 -2.08107e-09 0)
(8.84565e-08 -1.85675e-09 0)
(8.9159e-08 -1.74297e-09 0)
(9.00291e-08 -1.70276e-09 0)
(9.10536e-08 -1.71099e-09 0)
(9.2218e-08 -1.75011e-09 0)
(8.53193e-08 -8.20536e-09 0)
(8.50635e-08 -5.95586e-09 0)
(8.49195e-08 -4.57103e-09 0)
(8.49626e-08 -3.71496e-09 0)
(8.5215e-08 -3.1963e-09 0)
(8.56743e-08 -2.89893e-09 0)
(8.63272e-08 -2.74877e-09 0)
(8.71566e-08 -2.69675e-09 0)
(8.8144e-08 -2.70939e-09 0)
(8.92714e-08 -2.76341e-09 0)
(8.28388e-08 -1.05904e-08 0)
(8.21296e-08 -7.8851e-09 0)
(8.17075e-08 -6.21941e-09 0)
(8.15739e-08 -5.19021e-09 0)
(8.17093e-08 -4.56741e-09 0)
(8.20868e-08 -4.21116e-09 0)
(8.26783e-08 -4.03247e-09 0)
(8.3457e-08 -3.97245e-09 0)
(8.43985e-08 -3.991e-09 0)
(8.54803e-08 -4.06028e-09 0)
(7.97998e-08 -1.29852e-08 0)
(7.85778e-08 -9.95799e-09 0)
(7.78421e-08 -8.09068e-09 0)
(7.7509e-08 -6.9363e-09 0)
(7.75123e-08 -6.23804e-09 0)
(7.77974e-08 -5.83963e-09 0)
(7.8319e-08 -5.64155e-09 0)
(7.90399e-08 -5.57792e-09 0)
(7.99287e-08 -5.60395e-09 0)
(8.09582e-08 -5.68869e-09 0)
(7.62425e-08 -1.53853e-08 0)
(7.44809e-08 -1.21803e-08 0)
(7.34149e-08 -1.01998e-08 0)
(7.28719e-08 -8.97367e-09 0)
(7.27358e-08 -8.23206e-09 0)
(7.29226e-08 -7.81008e-09 0)
(7.33695e-08 -7.60258e-09 0)
(7.4028e-08 -7.53988e-09 0)
(7.48595e-08 -7.57472e-09 0)
(7.58319e-08 -7.67466e-09 0)
(7.22109e-08 -1.77764e-08 0)
(6.99174e-08 -1.45462e-08 0)
(6.85253e-08 -1.25442e-08 0)
(6.77745e-08 -1.13024e-08 0)
(6.74996e-08 -1.05512e-08 0)
(6.75878e-08 -1.01254e-08 0)
(6.79585e-08 -9.919e-09 0)
(6.85525e-08 -9.86171e-09 0)
(6.93242e-08 -9.90606e-09 0)
(7.02368e-08 -1.00201e-08 0)
(6.77545e-08 -2.01432e-08 0)
(6.49693e-08 -1.70353e-08 0)
(6.3276e-08 -1.51024e-08 0)
(6.23323e-08 -1.39007e-08 0)
(6.1927e-08 -1.31741e-08 0)
(6.19207e-08 -1.27646e-08 0)
(6.22169e-08 -1.25704e-08 0)
(6.27463e-08 -1.25234e-08 0)
(6.34573e-08 -1.25775e-08 0)
(6.43098e-08 -1.2703e-08 0)
(6.29222e-08 -2.24632e-08 0)
(5.97182e-08 -1.96153e-08 0)
(5.77678e-08 -1.78358e-08 0)
(5.66578e-08 -1.67266e-08 0)
(5.61379e-08 -1.60568e-08 0)
(5.60457e-08 -1.56831e-08 0)
(5.62712e-08 -1.55127e-08 0)
(5.67366e-08 -1.54824e-08 0)
(5.7386e-08 -1.55485e-08 0)
(5.81796e-08 -1.56812e-08 0)
(9.64888e-08 -3.01573e-10 0)
(9.79479e-08 -2.99595e-10 0)
(9.95118e-08 -2.97267e-10 0)
(1.0117e-07 -2.94035e-10 0)
(1.02914e-07 -2.8942e-10 0)
(1.04734e-07 -2.83023e-10 0)
(1.06624e-07 -2.74468e-10 0)
(1.08576e-07 -2.63473e-10 0)
(1.10584e-07 -2.49742e-10 0)
(1.12641e-07 -2.33026e-10 0)
(1.14742e-07 -2.13014e-10 0)
(1.1688e-07 -1.89403e-10 0)
(1.19051e-07 -1.61784e-10 0)
(1.21248e-07 -1.29741e-10 0)
(1.23465e-07 -9.27194e-11 0)
(1.25697e-07 -5.00993e-11 0)
(1.27935e-07 -1.1485e-12 0)
(1.30173e-07 5.46179e-11 0)
(1.32402e-07 1.16411e-10 0)
(1.34615e-07 1.78174e-10 0)
(9.55901e-08 -9.63363e-10 0)
(9.7131e-08 -9.4473e-10 0)
(9.87641e-08 -9.29126e-10 0)
(1.00482e-07 -9.13259e-10 0)
(1.02278e-07 -8.94714e-10 0)
(1.04145e-07 -8.71758e-10 0)
(1.06075e-07 -8.43086e-10 0)
(1.08064e-07 -8.07647e-10 0)
(1.10105e-07 -7.64512e-10 0)
(1.12192e-07 -7.12796e-10 0)
(1.1432e-07 -6.51567e-10 0)
(1.16484e-07 -5.79803e-10 0)
(1.18679e-07 -4.96338e-10 0)
(1.20898e-07 -3.99815e-10 0)
(1.23137e-07 -2.88633e-10 0)
(1.25389e-07 -1.60989e-10 0)
(1.27648e-07 -1.48233e-11 0)
(1.29906e-07 1.51999e-10 0)
(1.32157e-07 3.41817e-10 0)
(1.3439e-07 5.58798e-10 0)
(9.36685e-08 -1.75052e-09 0)
(9.53751e-08 -1.69644e-09 0)
(9.71521e-08 -1.65167e-09 0)
(9.89959e-08 -1.61026e-09 0)
(1.00902e-07 -1.56745e-09 0)
(1.02867e-07 -1.51969e-09 0)
(1.04885e-07 -1.46432e-09 0)
(1.06953e-07 -1.39918e-09 0)
(1.09065e-07 -1.32248e-09 0)
(1.11217e-07 -1.23251e-09 0)
(1.13406e-07 -1.12754e-09 0)
(1.15626e-07 -1.00575e-09 0)
(1.17872e-07 -8.65074e-10 0)
(1.20141e-07 -7.03173e-10 0)
(1.22426e-07 -5.17364e-10 0)
(1.24723e-07 -3.04495e-10 0)
(1.27025e-07 -6.09215e-11 0)
(1.29327e-07 2.17794e-10 0)
(1.31619e-07 5.37979e-10 0)
(1.33891e-07 9.10748e-10 0)
(9.08349e-08 -2.73821e-09 0)
(9.2779e-08 -2.62027e-09 0)
(9.47641e-08 -2.52227e-09 0)
(9.67912e-08 -2.4353e-09 0)
(9.88598e-08 -2.35181e-09 0)
(1.00969e-07 -2.26592e-09 0)
(1.03116e-07 -2.17308e-09 0)
(1.053e-07 -2.06962e-09 0)
(1.07519e-07 -1.95249e-09 0)
(1.09768e-07 -1.81883e-09 0)
(1.12046e-07 -1.66593e-09 0)
(1.14348e-07 -1.49092e-09 0)
(1.16672e-07 -1.29072e-09 0)
(1.19013e-07 -1.06183e-09 0)
(1.21368e-07 -8.00317e-10 0)
(1.23731e-07 -5.01536e-10 0)
(1.26097e-07 -1.59994e-10 0)
(1.2846e-07 2.31248e-10 0)
(1.30812e-07 6.81873e-10 0)
(1.33144e-07 1.20768e-09 0)
(8.7185e-08 -3.98834e-09 0)
(8.94266e-08 -3.77036e-09 0)
(9.16747e-08 -3.58837e-09 0)
(9.39347e-08 -3.43008e-09 0)
(9.62106e-08 -3.28459e-09 0)
(9.85049e-08 -3.14306e-09 0)
(1.00819e-07 -2.99851e-09 0)
(1.03154e-07 -2.84522e-09 0)
(1.05509e-07 -2.67842e-09 0)
(1.07884e-07 -2.49378e-09 0)
(1.10278e-07 -2.28726e-09 0)
(1.12688e-07 -2.05469e-09 0)
(1.15112e-07 -1.79176e-09 0)
(1.17547e-07 -1.49365e-09 0)
(1.19991e-07 -1.15496e-09 0)
(1.22439e-07 -7.69377e-10 0)
(1.24887e-07 -3.29436e-10 0)
(1.2733e-07 1.74185e-10 0)
(1.29759e-07 7.5418e-10 0)
(1.32169e-07 1.43018e-09 0)
(8.28248e-08 -5.54613e-09 0)
(8.54101e-08 -5.18722e-09 0)
(8.79647e-08 -4.88596e-09 0)
(9.04984e-08 -4.62657e-09 0)
(9.30195e-08 -4.39418e-09 0)
(9.55343e-08 -4.1764e-09 0)
(9.80476e-08 -3.96322e-09 0)
(1.00563e-07 -3.74632e-09 0)
(1.03083e-07 -3.51877e-09 0)
(1.05609e-07 -3.27432e-09 0)
(1.08142e-07 -3.00726e-09 0)
(1.10681e-07 -2.71188e-09 0)
(1.13226e-07 -2.38235e-09 0)
(1.15775e-07 -2.01231e-09 0)
(1.18326e-07 -1.59476e-09 0)
(1.20877e-07 -1.12158e-09 0)
(1.23423e-07 -5.83262e-10 0)
(1.25961e-07 3.19375e-11 0)
(1.28484e-07 7.39556e-10 0)
(1.30987e-07 1.56278e-09 0)
(7.78725e-08 -7.43718e-09 0)
(8.08315e-08 -6.89554e-09 0)
(8.37237e-08 -6.43818e-09 0)
(8.6562e-08 -6.046e-09 0)
(8.93582e-08 -5.69984e-09 0)
(9.21219e-08 -5.38328e-09 0)
(9.48612e-08 -5.08278e-09 0)
(9.75825e-08 -4.78696e-09 0)
(1.00291e-07 -4.48624e-09 0)
(1.0299e-07 -4.17205e-09 0)
(1.05683e-07 -3.83667e-09 0)
(1.0837e-07 -3.47251e-09 0)
(1.11054e-07 -3.07203e-09 0)
(1.13733e-07 -2.62711e-09 0)
(1.16408e-07 -2.129e-09 0)
(1.19076e-07 -1.56762e-09 0)
(1.21735e-07 -9.31366e-10 0)
(1.24382e-07 -2.06043e-10 0)
(1.27013e-07 6.26708e-10 0)
(1.29622e-07 1.59361e-09 0)
(7.24544e-08 -9.66563e-09 0)
(7.58005e-08 -8.90277e-09 0)
(7.90483e-08 -8.25419e-09 0)
(8.22112e-08 -7.69809e-09 0)
(8.53035e-08 -7.21113e-09 0)
(8.83375e-08 -6.77271e-09 0)
(9.13237e-08 -6.36553e-09 0)
(9.4271e-08 -5.97471e-09 0)
(9.71869e-08 -5.58768e-09 0)
(1.00077e-07 -5.19318e-09 0)
(1.02947e-07 -4.78117e-09 0)
(1.05799e-07 -4.34186e-09 0)
(1.08636e-07 -3.8658e-09 0)
(1.1146e-07 -3.34289e-09 0)
(1.14271e-07 -2.76254e-09 0)
(1.17069e-07 -2.11259e-09 0)
(1.19853e-07 -1.37931e-09 0)
(1.22621e-07 -5.45947e-10 0)
(1.2537e-07 4.08595e-10 0)
(1.28098e-07 1.51454e-09 0)
(6.67015e-08 -1.22138e-08 0)
(7.04331e-08 -1.11987e-08 0)
(7.40413e-08 -1.03286e-08 0)
(7.75378e-08 -9.58058e-09 0)
(8.09381e-08 -8.92733e-09 0)
(8.42556e-08 -8.34505e-09 0)
(8.7503e-08 -7.81206e-09 0)
(9.06907e-08 -7.31046e-09 0)
(9.38285e-08 -6.82383e-09 0)
(9.69241e-08 -6.33852e-09 0)
(9.9984e-08 -5.84128e-09 0)
(1.03013e-07 -5.32054e-09 0)
(1.06017e-07 -4.76404e-09 0)
(1.08996e-07 -4.16026e-09 0)
(1.11954e-07 -3.49593e-09 0)
(1.14892e-07 -2.75749e-09 0)
(1.1781e-07 -1.92831e-09 0)
(1.20709e-07 -9.89968e-10 0)
(1.23586e-07 8.2363e-11 0)
(1.26443e-07 1.32021e-09 0)
(6.07508e-08 -1.50417e-08 0)
(6.48572e-08 -1.37513e-08 0)
(6.88184e-08 -1.26369e-08 0)
(7.26462e-08 -1.16736e-08 0)
(7.63555e-08 -1.08329e-08 0)
(7.99609e-08 -1.0087e-08 0)
(8.34752e-08 -9.41179e-09 0)
(8.6911e-08 -8.78474e-09 0)
(9.02787e-08 -8.18701e-09 0)
(9.35881e-08 -7.60088e-09 0)
(9.68471e-08 -7.01119e-09 0)
(1.00062e-07 -6.40284e-09 0)
(1.0324e-07 -5.76221e-09 0)
(1.06383e-07 -5.07457e-09 0)
(1.09496e-07 -4.32565e-09 0)
(1.12582e-07 -3.49869e-09 0)
(1.15641e-07 -2.57612e-09 0)
(1.18677e-07 -1.53595e-09 0)
(1.21689e-07 -3.52883e-10 0)
(1.24681e-07 1.00913e-09 0)
(5.63926e-08 -1.75928e-08 0)
(6.07271e-08 -1.60949e-08 0)
(6.48993e-08 -1.47981e-08 0)
(6.893e-08 -1.36678e-08 0)
(7.28334e-08 -1.2673e-08 0)
(7.6623e-08 -1.17859e-08 0)
(8.03111e-08 -1.09809e-08 0)
(8.39094e-08 -1.02352e-08 0)
(8.74287e-08 -9.52815e-09 0)
(9.08785e-08 -8.84111e-09 0)
(9.42674e-08 -8.15698e-09 0)
(9.76028e-08 -7.45974e-09 0)
(1.00891e-07 -6.73385e-09 0)
(1.04137e-07 -5.96387e-09 0)
(1.07346e-07 -5.13373e-09 0)
(1.10521e-07 -4.22625e-09 0)
(1.13665e-07 -3.22219e-09 0)
(1.16782e-07 -2.09967e-09 0)
(1.19874e-07 -8.32339e-10 0)
(1.22948e-07 6.14811e-10 0)
(5.39076e-08 -1.95798e-08 0)
(5.82576e-08 -1.80213e-08 0)
(6.24721e-08 -1.66375e-08 0)
(6.65578e-08 -1.5411e-08 0)
(7.05231e-08 -1.43161e-08 0)
(7.43774e-08 -1.33273e-08 0)
(7.81305e-08 -1.24214e-08 0)
(8.17921e-08 -1.15769e-08 0)
(8.53713e-08 -1.07743e-08 0)
(8.88767e-08 -9.9954e-09 0)
(9.23162e-08 -9.22326e-09 0)
(9.5697e-08 -8.44183e-09 0)
(9.90254e-08 -7.63547e-09 0)
(1.02307e-07 -6.78855e-09 0)
(1.05546e-07 -5.88497e-09 0)
(1.08748e-07 -4.90758e-09 0)
(1.11917e-07 -3.83744e-09 0)
(1.15056e-07 -2.65324e-09 0)
(1.18172e-07 -1.33085e-09 0)
(1.21269e-07 1.62423e-10 0)
(5.17049e-08 -2.14686e-08 0)
(5.60245e-08 -1.98804e-08 0)
(6.02378e-08 -1.84371e-08 0)
(6.43413e-08 -1.71339e-08 0)
(6.83365e-08 -1.59528e-08 0)
(7.22281e-08 -1.48733e-08 0)
(7.60226e-08 -1.38748e-08 0)
(7.97272e-08 -1.29381e-08 0)
(8.33491e-08 -1.20448e-08 0)
(8.68957e-08 -1.11778e-08 0)
(9.03739e-08 -1.03207e-08 0)
(9.37904e-08 -9.45784e-09 0)
(9.7151e-08 -8.57375e-09 0)
(1.00461e-07 -7.65299e-09 0)
(1.03727e-07 -6.6797e-09 0)
(1.06952e-07 -5.63714e-09 0)
(1.10143e-07 -4.50698e-09 0)
(1.13303e-07 -3.26904e-09 0)
(1.16439e-07 -1.90082e-09 0)
(1.19559e-07 -3.73272e-10 0)
(4.97544e-08 -2.32635e-08 0)
(5.40196e-08 -2.16633e-08 0)
(5.8201e-08 -2.01814e-08 0)
(6.22916e-08 -1.88198e-08 0)
(6.62883e-08 -1.75675e-08 0)
(7.01917e-08 -1.6409e-08 0)
(7.4005e-08 -1.53275e-08 0)
(7.77327e-08 -1.43061e-08 0)
(8.13802e-08 -1.33284e-08 0)
(8.49533e-08 -1.23785e-08 0)
(8.84578e-08 -1.14408e-08 0)
(9.18995e-08 -1.05005e-08 0)
(9.5284e-08 -9.54244e-09 0)
(9.86167e-08 -8.55183e-09 0)
(1.01903e-07 -7.51332e-09 0)
(1.05148e-07 -6.41084e-09 0)
(1.08357e-07 -5.22695e-09 0)
(1.11536e-07 -3.94277e-09 0)
(1.14692e-07 -2.53812e-09 0)
(1.17833e-07 -9.86523e-10 0)
(4.80215e-08 -2.49663e-08 0)
(5.2217e-08 -2.3366e-08 0)
(5.63464e-08 -2.18607e-08 0)
(6.04018e-08 -2.04561e-08 0)
(6.43775e-08 -1.91467e-08 0)
(6.82714e-08 -1.79214e-08 0)
(7.20838e-08 -1.67671e-08 0)
(7.58171e-08 -1.56697e-08 0)
(7.94746e-08 -1.46148e-08 0)
(8.30606e-08 -1.35881e-08 0)
(8.65797e-08 -1.25754e-08 0)
(9.00368e-08 -1.15625e-08 0)
(9.3437e-08 -1.05353e-08 0)
(9.67853e-08 -9.47963e-09 0)
(1.00087e-07 -8.38098e-09 0)
(1.03347e-07 -7.22421e-09 0)
(1.06572e-07 -5.99302e-09 0)
(1.09767e-07 -4.67005e-09 0)
(1.1294e-07 -3.23706e-09 0)
(1.16101e-07 -1.67121e-09 0)
(4.64741e-08 -2.65796e-08 0)
(5.05893e-08 -2.49879e-08 0)
(5.46535e-08 -2.34704e-08 0)
(5.8658e-08 -2.20355e-08 0)
(6.25961e-08 -2.06812e-08 0)
(6.64637e-08 -1.94005e-08 0)
(7.02594e-08 -1.81836e-08 0)
(7.39833e-08 -1.70191e-08 0)
(7.76374e-08 -1.58949e-08 0)
(8.12243e-08 -1.47984e-08 0)
(8.47476e-08 -1.37168e-08 0)
(8.82113e-08 -1.26371e-08 0)
(9.16196e-08 -1.15462e-08 0)
(9.49772e-08 -1.04309e-08 0)
(9.82891e-08 -9.27771e-09 0)
(1.01561e-07 -8.07254e-09 0)
(1.04798e-07 -6.80041e-09 0)
(1.08006e-07 -5.44557e-09 0)
(1.11195e-07 -3.99221e-09 0)
(1.14372e-07 -2.42029e-09 0)
(4.50817e-08 -2.81081e-08 0)
(4.91106e-08 -2.65308e-08 0)
(5.3101e-08 -2.50096e-08 0)
(5.70441e-08 -2.35541e-08 0)
(6.09326e-08 -2.21653e-08 0)
(6.47616e-08 -2.08394e-08 0)
(6.8528e-08 -1.95695e-08 0)
(7.22308e-08 -1.83468e-08 0)
(7.58703e-08 -1.71614e-08 0)
(7.94482e-08 -1.60024e-08 0)
(8.29667e-08 -1.48585e-08 0)
(8.6429e-08 -1.37182e-08 0)
(8.98388e-08 -1.25696e-08 0)
(9.32001e-08 -1.14005e-08 0)
(9.65178e-08 -1.01986e-08 0)
(9.97969e-08 -8.95099e-09 0)
(1.03043e-07 -7.64422e-09 0)
(1.06263e-07 -6.26418e-09 0)
(1.09465e-07 -4.79711e-09 0)
(1.12657e-07 -3.2267e-09 0)
(4.38173e-08 -2.95574e-08 0)
(4.7757e-08 -2.79984e-08 0)
(5.16686e-08 -2.64793e-08 0)
(5.55435e-08 -2.50108e-08 0)
(5.93744e-08 -2.35962e-08 0)
(6.31557e-08 -2.2234e-08 0)
(6.68836e-08 -2.09198e-08 0)
(7.0556e-08 -1.96473e-08 0)
(7.41723e-08 -1.84084e-08 0)
(7.77329e-08 -1.71942e-08 0)
(8.12392e-08 -1.5995e-08 0)
(8.46937e-08 -1.48006e-08 0)
(8.80993e-08 -1.36004e-08 0)
(9.14596e-08 -1.23835e-08 0)
(9.47789e-08 -1.11388e-08 0)
(9.80621e-08 -9.85482e-09 0)
(1.01315e-07 -8.51944e-09 0)
(1.04544e-07 -7.12026e-09 0)
(1.07756e-07 -5.64594e-09 0)
(1.10961e-07 -4.08288e-09 0)
(4.26564e-08 -3.09337e-08 0)
(4.65063e-08 -2.93949e-08 0)
(5.03367e-08 -2.78821e-08 0)
(5.41396e-08 -2.64065e-08 0)
(5.79077e-08 -2.49729e-08 0)
(6.16354e-08 -2.35819e-08 0)
(6.53183e-08 -2.22312e-08 0)
(6.89537e-08 -2.09166e-08 0)
(7.25401e-08 -1.96317e-08 0)
(7.60771e-08 -1.83696e-08 0)
(7.95656e-08 -1.71218e-08 0)
(8.3007e-08 -1.58798e-08 0)
(8.64037e-08 -1.46342e-08 0)
(8.97588e-08 -1.33755e-08 0)
(9.30763e-08 -1.2094e-08 0)
(9.63607e-08 -1.07794e-08 0)
(9.96175e-08 -9.42123e-09 0)
(1.02853e-07 -8.00866e-09 0)
(1.06074e-07 -6.53221e-09 0)
(1.09291e-07 -4.98171e-09 0)
(4.15775e-08 -3.22435e-08 0)
(4.53385e-08 -3.07256e-08 0)
(4.90874e-08 -2.92216e-08 0)
(5.28165e-08 -2.77431e-08 0)
(5.65191e-08 -2.6296e-08 0)
(6.01894e-08 -2.48826e-08 0)
(6.38231e-08 -2.35023e-08 0)
(6.74169e-08 -2.21524e-08 0)
(7.09688e-08 -2.08286e-08 0)
(7.44778e-08 -1.95252e-08 0)
(7.79441e-08 -1.82354e-08 0)
(8.13685e-08 -1.69521e-08 0)
(8.47528e-08 -1.56672e-08 0)
(8.80996e-08 -1.43727e-08 0)
(9.14124e-08 -1.306e-08 0)
(9.46955e-08 -1.17205e-08 0)
(9.79541e-08 -1.03449e-08 0)
(1.01194e-07 -8.92399e-09 0)
(1.04422e-07 -7.45037e-09 0)
(1.07647e-07 -5.91602e-09 0)
(4.05608e-08 -3.3493e-08 0)
(4.42351e-08 -3.19956e-08 0)
(4.79035e-08 -3.05019e-08 0)
(5.15588e-08 -2.90235e-08 0)
(5.51948e-08 -2.75673e-08 0)
(5.88061e-08 -2.61367e-08 0)
(6.23882e-08 -2.47326e-08 0)
(6.59377e-08 -2.33538e-08 0)
(6.94522e-08 -2.19973e-08 0)
(7.29304e-08 -2.0659e-08 0)
(7.63717e-08 -1.93335e-08 0)
(7.97764e-08 -1.80148e-08 0)
(8.31458e-08 -1.66964e-08 0)
(8.6482e-08 -1.53716e-08 0)
(8.9788e-08 -1.40332e-08 0)
(9.30678e-08 -1.2674e-08 0)
(9.63261e-08 -1.1286e-08 0)
(9.95688e-08 -9.86152e-09 0)
(1.02802e-07 -8.39448e-09 0)
(1.06035e-07 -6.87953e-09 0)
(3.95886e-08 -3.46884e-08 0)
(4.31792e-08 -3.32103e-08 0)
(4.67689e-08 -3.17274e-08 0)
(5.03515e-08 -3.02512e-08 0)
(5.39214e-08 -2.87891e-08 0)
(5.74734e-08 -2.73457e-08 0)
(6.10033e-08 -2.59229e-08 0)
(6.45075e-08 -2.45207e-08 0)
(6.79834e-08 -2.31374e-08 0)
(7.14293e-08 -2.177e-08 0)
(7.48442e-08 -2.04144e-08 0)
(7.82278e-08 -1.9066e-08 0)
(8.15809e-08 -1.77195e-08 0)
(8.49051e-08 -1.63695e-08 0)
(8.82028e-08 -1.50104e-08 0)
(9.14777e-08 -1.36362e-08 0)
(9.47342e-08 -1.22404e-08 0)
(9.79777e-08 -1.08164e-08 0)
(1.01215e-07 -9.35978e-09 0)
(1.04452e-07 -7.86624e-09 0)
(3.86446e-08 -3.5835e-08 0)
(4.21545e-08 -3.43747e-08 0)
(4.56683e-08 -3.29025e-08 0)
(4.91804e-08 -3.14299e-08 0)
(5.26857e-08 -2.99646e-08 0)
(5.61795e-08 -2.85119e-08 0)
(5.96578e-08 -2.70747e-08 0)
(6.3117e-08 -2.5654e-08 0)
(6.65544e-08 -2.42491e-08 0)
(6.9968e-08 -2.2858e-08 0)
(7.33563e-08 -2.14777e-08 0)
(7.67186e-08 -2.01047e-08 0)
(8.00552e-08 -1.8735e-08 0)
(8.33669e-08 -1.73644e-08 0)
(8.66556e-08 -1.59887e-08 0)
(8.99246e-08 -1.46037e-08 0)
(9.3178e-08 -1.32041e-08 0)
(9.64211e-08 -1.17845e-08 0)
(9.96598e-08 -1.03411e-08 0)
(1.02902e-07 -8.87135e-09 0)
(3.77132e-08 -3.69379e-08 0)
(4.11459e-08 -3.54936e-08 0)
(4.45868e-08 -3.40316e-08 0)
(4.80312e-08 -3.25633e-08 0)
(5.14745e-08 -3.10969e-08 0)
(5.49123e-08 -2.9638e-08 0)
(5.83409e-08 -2.81904e-08 0)
(6.17567e-08 -2.67556e-08 0)
(6.5157e-08 -2.53337e-08 0)
(6.85395e-08 -2.39238e-08 0)
(7.19022e-08 -2.25236e-08 0)
(7.52443e-08 -2.11306e-08 0)
(7.8565e-08 -1.97419e-08 0)
(8.18648e-08 -1.83547e-08 0)
(8.51449e-08 -1.69662e-08 0)
(8.84078e-08 -1.55736e-08 0)
(9.16571e-08 -1.41734e-08 0)
(9.48982e-08 -1.27614e-08 0)
(9.81377e-08 -1.13348e-08 0)
(1.01382e-07 -9.89048e-09 0)
(3.67791e-08 -3.80014e-08 0)
(4.01382e-08 -3.65713e-08 0)
(4.351e-08 -3.5119e-08 0)
(4.68903e-08 -3.36556e-08 0)
(5.02749e-08 -3.21897e-08 0)
(5.36599e-08 -3.07273e-08 0)
(5.70418e-08 -2.92725e-08 0)
(6.0417e-08 -2.78275e-08 0)
(6.37827e-08 -2.63931e-08 0)
(6.71363e-08 -2.49688e-08 0)
(7.04758e-08 -2.35532e-08 0)
(7.37995e-08 -2.21444e-08 0)
(7.71064e-08 -2.07406e-08 0)
(8.03961e-08 -1.93399e-08 0)
(8.3669e-08 -1.79412e-08 0)
(8.69265e-08 -1.65433e-08 0)
(9.01717e-08 -1.51449e-08 0)
(9.34099e-08 -1.37433e-08 0)
(9.66476e-08 -1.23361e-08 0)
(9.98932e-08 -1.09206e-08 0)
(3.5827e-08 -3.90298e-08 0)
(3.91165e-08 -3.76121e-08 0)
(4.24233e-08 -3.61688e-08 0)
(4.57436e-08 -3.47108e-08 0)
(4.90739e-08 -3.32469e-08 0)
(5.24104e-08 -3.17833e-08 0)
(5.57496e-08 -3.03245e-08 0)
(5.90882e-08 -2.8873e-08 0)
(6.24229e-08 -2.74299e-08 0)
(6.57511e-08 -2.59953e-08 0)
(6.90704e-08 -2.45683e-08 0)
(7.23789e-08 -2.31476e-08 0)
(7.56749e-08 -2.1732e-08 0)
(7.89575e-08 -2.03206e-08 0)
(8.22259e-08 -1.89134e-08 0)
(8.54804e-08 -1.75113e-08 0)
(8.87228e-08 -1.61154e-08 0)
(9.19574e-08 -1.47257e-08 0)
(9.51925e-08 -1.33418e-08 0)
(9.8437e-08 -1.1959e-08 0)
(3.48407e-08 -4.00268e-08 0)
(3.80649e-08 -3.86202e-08 0)
(4.13114e-08 -3.71853e-08 0)
(4.4577e-08 -3.57333e-08 0)
(4.78584e-08 -3.42727e-08 0)
(5.11518e-08 -3.28102e-08 0)
(5.44537e-08 -3.13502e-08 0)
(5.77606e-08 -2.98954e-08 0)
(6.1069e-08 -2.84473e-08 0)
(6.43762e-08 -2.70062e-08 0)
(6.76793e-08 -2.55715e-08 0)
(7.09764e-08 -2.41425e-08 0)
(7.42653e-08 -2.27182e-08 0)
(7.75446e-08 -2.12984e-08 0)
(8.08128e-08 -1.98839e-08 0)
(8.40689e-08 -1.84773e-08 0)
(8.73124e-08 -1.70824e-08 0)
(9.05455e-08 -1.57041e-08 0)
(9.37754e-08 -1.43463e-08 0)
(9.70172e-08 -1.30044e-08 0)
(3.38026e-08 -4.09961e-08 0)
(3.6966e-08 -3.95995e-08 0)
(4.01579e-08 -3.81729e-08 0)
(4.33751e-08 -3.67276e-08 0)
(4.66144e-08 -3.52721e-08 0)
(4.98716e-08 -3.38127e-08 0)
(5.31429e-08 -3.23541e-08 0)
(5.64244e-08 -3.0899e-08 0)
(5.97124e-08 -2.94491e-08 0)
(6.30037e-08 -2.80047e-08 0)
(6.62954e-08 -2.65658e-08 0)
(6.95852e-08 -2.51317e-08 0)
(7.2871e-08 -2.37018e-08 0)
(7.61513e-08 -2.2276e-08 0)
(7.94244e-08 -2.08555e-08 0)
(8.26885e-08 -1.94435e-08 0)
(8.59411e-08 -1.8046e-08 0)
(8.91799e-08 -1.66742e-08 0)
(9.24085e-08 -1.53435e-08 0)
(9.56428e-08 -1.40562e-08 0)
(3.2691e-08 -4.19414e-08 0)
(3.57989e-08 -4.05542e-08 0)
(3.89431e-08 -3.91365e-08 0)
(4.21204e-08 -3.76992e-08 0)
(4.53263e-08 -3.62505e-08 0)
(4.85561e-08 -3.47965e-08 0)
(5.18053e-08 -3.33416e-08 0)
(5.50691e-08 -3.18887e-08 0)
(5.83436e-08 -3.04395e-08 0)
(6.16251e-08 -2.89948e-08 0)
(6.49104e-08 -2.75545e-08 0)
(6.81973e-08 -2.61182e-08 0)
(7.14837e-08 -2.46856e-08 0)
(7.47684e-08 -2.32564e-08 0)
(7.80506e-08 -2.18319e-08 0)
(8.13292e-08 -2.04146e-08 0)
(8.46019e-08 -1.90109e-08 0)
(8.78642e-08 -1.76367e-08 0)
(9.11098e-08 -1.63254e-08 0)
(9.43452e-08 -1.5113e-08 0)
(3.14764e-08 -4.28656e-08 0)
(3.45357e-08 -4.14891e-08 0)
(3.76428e-08 -4.00823e-08 0)
(4.07916e-08 -3.86552e-08 0)
(4.39759e-08 -3.72152e-08 0)
(4.71898e-08 -3.57684e-08 0)
(5.04275e-08 -3.4319e-08 0)
(5.36836e-08 -3.28701e-08 0)
(5.69531e-08 -3.14237e-08 0)
(6.02319e-08 -2.99806e-08 0)
(6.35166e-08 -2.85409e-08 0)
(6.68046e-08 -2.71046e-08 0)
(7.00943e-08 -2.56714e-08 0)
(7.33852e-08 -2.42415e-08 0)
(7.66774e-08 -2.28159e-08 0)
(7.99724e-08 -2.13964e-08 0)
(8.32731e-08 -1.99876e-08 0)
(8.65824e-08 -1.86063e-08 0)
(8.99004e-08 -1.72983e-08 0)
(9.32129e-08 -1.61629e-08 0)
(2.38201e-09 -4.16029e-08 0)
(7.18457e-09 -4.10079e-08 0)
(1.20749e-08 -3.97527e-08 0)
(1.71039e-08 -3.79202e-08 0)
(2.23096e-08 -3.55914e-08 0)
(2.77146e-08 -3.28587e-08 0)
(3.33228e-08 -2.98254e-08 0)
(3.91184e-08 -2.66009e-08 0)
(4.50655e-08 -2.32954e-08 0)
(5.11078e-08 -2.00159e-08 0)
(2.31054e-09 -4.19578e-08 0)
(6.96189e-09 -4.14197e-08 0)
(1.16855e-08 -4.02792e-08 0)
(1.65242e-08 -3.86086e-08 0)
(2.15104e-08 -3.64774e-08 0)
(2.66638e-08 -3.39645e-08 0)
(3.19897e-08 -3.11581e-08 0)
(3.74772e-08 -2.81523e-08 0)
(4.30992e-08 -2.50439e-08 0)
(4.88119e-08 -2.19334e-08 0)
(2.24706e-09 -4.23455e-08 0)
(6.76563e-09 -4.18555e-08 0)
(1.13433e-08 -4.08142e-08 0)
(1.6016e-08 -3.92849e-08 0)
(2.08111e-08 -3.73281e-08 0)
(2.57454e-08 -3.50121e-08 0)
(3.08242e-08 -3.2413e-08 0)
(3.60399e-08 -2.96124e-08 0)
(4.1372e-08 -2.66954e-08 0)
(4.67855e-08 -2.37525e-08 0)
(2.19011e-09 -4.27646e-08 0)
(6.59042e-09 -4.23158e-08 0)
(1.10392e-08 -4.13603e-08 0)
(1.55663e-08 -3.99544e-08 0)
(2.01947e-08 -3.81511e-08 0)
(2.49386e-08 -3.60103e-08 0)
(2.98025e-08 -3.35986e-08 0)
(3.47809e-08 -3.09873e-08 0)
(3.98575e-08 -2.82516e-08 0)
(4.50034e-08 -2.54722e-08 0)
(2.13813e-09 -4.32138e-08 0)
(6.4311e-09 -4.28006e-08 0)
(1.0764e-08 -4.19195e-08 0)
(1.51618e-08 -4.06214e-08 0)
(1.96434e-08 -3.89532e-08 0)
(2.42206e-08 -3.6968e-08 0)
(2.88973e-08 -3.47248e-08 0)
(3.36687e-08 -3.22866e-08 0)
(3.85214e-08 -2.97199e-08 0)
(4.34309e-08 -2.70969e-08 0)
(2.08984e-09 -4.36913e-08 0)
(6.28353e-09 -4.33088e-08 0)
(1.05104e-08 -4.24926e-08 0)
(1.47913e-08 -4.12888e-08 0)
(1.9142e-08 -3.97395e-08 0)
(2.35721e-08 -3.78924e-08 0)
(2.80845e-08 -3.58e-08 0)
(3.2675e-08 -3.35188e-08 0)
(3.7332e-08 -3.11079e-08 0)
(4.20343e-08 -2.86319e-08 0)
(2.04417e-09 -4.4195e-08 0)
(6.14439e-09 -4.38395e-08 0)
(1.02725e-08 -4.30799e-08 0)
(1.44462e-08 -4.19587e-08 0)
(1.86784e-08 -4.05143e-08 0)
(2.2977e-08 -3.87894e-08 0)
(2.73441e-08 -3.68317e-08 0)
(3.17756e-08 -3.4692e-08 0)
(3.62613e-08 -3.24235e-08 0)
(4.07825e-08 -3.00838e-08 0)
(2.00029e-09 -4.4723e-08 0)
(6.01104e-09 -4.43909e-08 0)
(1.00457e-08 -4.36811e-08 0)
(1.41192e-08 -4.26327e-08 0)
(1.82426e-08 -4.12807e-08 0)
(2.24222e-08 -3.96642e-08 0)
(2.66594e-08 -3.78265e-08 0)
(3.09502e-08 -3.58139e-08 0)
(3.52853e-08 -3.36744e-08 0)
(3.96481e-08 -3.14599e-08 0)
(1.95747e-09 -4.5273e-08 0)
(5.8813e-09 -4.49615e-08 0)
(9.826e-09 -4.42956e-08 0)
(1.38046e-08 -4.33113e-08 0)
(1.78264e-08 -4.20411e-08 0)
(2.18967e-08 -4.05208e-08 0)
(2.60164e-08 -3.87901e-08 0)
(3.01814e-08 -3.68912e-08 0)
(3.43833e-08 -3.48681e-08 0)
(3.86071e-08 -3.27674e-08 0)
(1.91514e-09 -4.58427e-08 0)
(5.75333e-09 -4.55495e-08 0)
(9.6102e-09 -4.49223e-08 0)
(1.34973e-08 -4.3995e-08 0)
(1.74229e-08 -4.27974e-08 0)
(2.13914e-08 -4.13626e-08 0)
(2.54032e-08 -3.97272e-08 0)
(2.94546e-08 -3.793e-08 0)
(3.35374e-08 -3.60114e-08 0)
(3.76384e-08 -3.40136e-08 0)
(1.87274e-09 -4.64298e-08 0)
(5.62547e-09 -4.61527e-08 0)
(9.39541e-09 -4.55602e-08 0)
(1.31931e-08 -4.46836e-08 0)
(1.7026e-08 -4.35506e-08 0)
(2.08981e-08 -4.2192e-08 0)
(2.48095e-08 -4.06416e-08 0)
(2.87566e-08 -3.89354e-08 0)
(3.2732e-08 -3.71104e-08 0)
(3.67235e-08 -3.52051e-08 0)
(1.82979e-09 -4.70317e-08 0)
(5.49619e-09 -4.67691e-08 0)
(9.17892e-09 -4.62076e-08 0)
(1.28879e-08 -4.53764e-08 0)
(1.66302e-08 -4.43013e-08 0)
(2.04094e-08 -4.30108e-08 0)
(2.42258e-08 -4.15365e-08 0)
(2.80759e-08 -3.99115e-08 0)
(3.19528e-08 -3.81703e-08 0)
(3.58455e-08 -3.6348e-08 0)
(1.78578e-09 -4.7646e-08 0)
(5.36399e-09 -4.73964e-08 0)
(8.95818e-09 -4.68628e-08 0)
(1.2578e-08 -4.60725e-08 0)
(1.62302e-08 -4.50495e-08 0)
(1.99186e-08 -4.38203e-08 0)
(2.36434e-08 -4.24141e-08 0)
(2.74016e-08 -4.0862e-08 0)
(3.11869e-08 -3.91957e-08 0)
(3.49892e-08 -3.74477e-08 0)
(1.74024e-09 -4.82696e-08 0)
(5.22737e-09 -4.8032e-08 0)
(8.73058e-09 -4.75238e-08 0)
(1.22594e-08 -4.67706e-08 0)
(1.58208e-08 -4.57948e-08 0)
(1.94187e-08 -4.46209e-08 0)
(2.30537e-08 -4.32761e-08 0)
(2.67233e-08 -4.17895e-08 0)
(3.04218e-08 -4.01904e-08 0)
(3.414e-08 -3.85087e-08 0)
(1.69262e-09 -4.88998e-08 0)
(5.08478e-09 -4.86731e-08 0)
(8.49347e-09 -4.81882e-08 0)
(1.19284e-08 -4.7469e-08 0)
(1.53968e-08 -4.65362e-08 0)
(1.89029e-08 -4.54125e-08 0)
(2.24481e-08 -4.41236e-08 0)
(2.60306e-08 -4.26961e-08 0)
(2.96452e-08 -4.11574e-08 0)
(3.32837e-08 -3.95352e-08 0)
(1.6424e-09 -4.95329e-08 0)
(4.93459e-09 -4.93165e-08 0)
(8.24407e-09 -4.88534e-08 0)
(1.15808e-08 -4.81655e-08 0)
(1.49524e-08 -4.72721e-08 0)
(1.83639e-08 -4.61947e-08 0)
(2.18177e-08 -4.49567e-08 0)
(2.53125e-08 -4.35832e-08 0)
(2.88444e-08 -4.20994e-08 0)
(3.24057e-08 -4.05306e-08 0)
(1.58897e-09 -5.01652e-08 0)
(4.7751e-09 -4.99587e-08 0)
(7.97935e-09 -4.95161e-08 0)
(1.1212e-08 -4.88573e-08 0)
(1.44815e-08 -4.80006e-08 0)
(1.77939e-08 -4.6966e-08 0)
(2.11525e-08 -4.57754e-08 0)
(2.45575e-08 -4.44517e-08 0)
(2.80057e-08 -4.30182e-08 0)
(3.14906e-08 -4.1498e-08 0)
(1.53201e-09 -5.07922e-08 0)
(4.60483e-09 -5.05959e-08 0)
(7.69609e-09 -5.01727e-08 0)
(1.0817e-08 -4.95412e-08 0)
(1.39773e-08 -4.87188e-08 0)
(1.71842e-08 -4.77244e-08 0)
(2.0442e-08 -4.65784e-08 0)
(2.37524e-08 -4.53018e-08 0)
(2.71137e-08 -4.39155e-08 0)
(3.0521e-08 -4.24404e-08 0)
(1.47249e-09 -5.14093e-08 0)
(4.42303e-09 -5.12234e-08 0)
(7.39126e-09 -5.08186e-08 0)
(1.03909e-08 -5.02129e-08 0)
(1.3433e-08 -4.94233e-08 0)
(1.6526e-08 -4.84674e-08 0)
(1.96754e-08 -4.7364e-08 0)
(2.28839e-08 -4.61326e-08 0)
(2.61518e-08 -4.4792e-08 0)
(2.94764e-08 -4.33603e-08 0)
(1.41658e-09 -5.20128e-08 0)
(4.23149e-09 -5.18361e-08 0)
(7.06461e-09 -5.14484e-08 0)
(9.93257e-09 -5.08678e-08 0)
(1.2847e-08 -5.01101e-08 0)
(1.58166e-08 -4.91916e-08 0)
(1.88477e-08 -4.81297e-08 0)
(2.1944e-08 -4.69422e-08 0)
(2.51066e-08 -4.56465e-08 0)
(2.83356e-08 -4.42585e-08 0)
)
;

boundaryField
{
    left
    {
        type            symmetryPlane;
    }
    right
    {
        type            tractionDisplacement;
        traction        uniform (10000 0 0);
        pressure        uniform 0;
        value           nonuniform List<vector> 
30
(
(1.35717e-07 2.02343e-10 -7.57575e-26)
(1.35498e-07 6.82378e-10 -1.0788e-25)