/*--------------------------------*- C++ -*----------------------------------*\
| =========                 |                                                 |
| \\      /  F ield         | OpenFOAM: The Open Source CFD Toolbox           |
|  \\    /   O peration     | Version:  2.3.0                                 |
|   \\  /    A nd           | Web:      www.OpenFOAM.org                      |
|    \\/     M anipulation  |                                                 |
\*---------------------------------------------------------------------------*/
FoamFile
{
    version     2.0;
    format      ascii;
    class       volSymmTensorField;
    location    "40";
    object      sigma;
}
// * * * * * * * * * * * * * * * * * * * * * * * * * * * * * * * * * * * * * //

dimensions      [1 -1 -2 0 0 0 0];

internalField   nonuniform List<symmTensor> 
1000
(
(7756.89 -5550.69 3.72466e-13 4507.75 -2.40607e-13 2830.3)
(10824.9 -4233.13 1.82596e-14 1212.51 7.31118e-14 2777.86)
(12387.7 -3351.12 1.27138e-13 -576.931 6.35625e-14 2725.57)
(13185.7 -2724.8 2.02616e-14 -1559.95 -1.71171e-14 2682.87)
(13564.4 -2263.72 9.69287e-14 -2089.87 5.20029e-14 2647.96)
(13703.5 -1914.59 1.92582e-17 -2355.37 6.05762e-15 2618.8)
(13703 -1644.06 -7.68204e-14 -2462.66 -4.11931e-14 2593.92)
(13620.2 -1429.82 -1.17983e-13 -2476.24 -5.41535e-14 2571.68)
(13497.4 -1253.22 0 -2438.26 0 2552.11)
(13337.4 -1024.97 1.31331e-14 -2366.47 -1.9392e-15 2531.75)
(10675.3 -6783.59 2.22888e-13 5045.1 -1.53615e-13 3627.79)
(12999.7 -4573.22 -5.56221e-14 1872.6 3.03363e-14 3432.06)
(14079.2 -3200.44 6.61327e-14 124.086 3.08058e-14 3277.69)
(14536.2 -2306.06 2.30141e-14 -868.531 -1.46774e-14 3154.08)
(14663.1 -1702.16 -9.61598e-14 -1432.81 -5.31649e-14 3053.14)
(14611.1 -1282.31 -2.95592e-15 -1742.77 8.97927e-15 2969.62)
(14461.5 -982.748 8.53598e-14 -1898.55 4.3756e-14 2899.15)
(14262.1 -762.376 -8.08533e-14 -1959.57 -3.60294e-14 2839.04)
(14048.4 -590.56 -2.74145e-14 -1961.98 6.26307e-15 2789.18)
(13815.6 -393.98 -1.24558e-14 -1902.63 -1.60592e-14 2749.14)
(13895.3 -7697.35 1.65764e-13 5146.26 -1.42901e-13 4394.21)
(15230.6 -4753.01 -2.99123e-14 2369.01 1.17806e-14 4061.45)
(15693.1 -2979.93 -5.37009e-16 815.903 2.25101e-16 3809.76)
(15735.6 -1870.95 -1.24474e-14 -101.598 5.70286e-15 3607.85)
(15574.5 -1155.57 -9.54396e-14 -652.605 -5.19547e-14 3443.52)
(15315.9 -683.216 -8.08787e-14 -982.522 -4.97249e-14 3307.69)
(15014.8 -365.054 -3.23907e-14 -1174.92 -2.11102e-14 3193.81)
(14702.2 -146.128 3.27184e-14 -1280.31 1.89767e-14 3097.35)
(14401.7 10.4966 -1.63316e-14 -1328.9 4.72327e-15 3016.79)
(14105.4 172.142 -1.02063e-14 -1313.1 -1.47416e-14 2952.07)
(17279.3 -8185.54 2.87052e-13 4874.31 -1.28233e-13 5112.38)
(17441.9 -4738.65 -7.43594e-14 2712.24 -3.09172e-14 4650.96)
(17189.1 -2697.96 1.51362e-15 1477.04 -4.08668e-16 4307.57)
(16769 -1450.32 0 706.023 0 4032.7)
(16297.6 -667.749 8.05051e-14 207.977 5.36568e-14 3808.98)
(15825.3 -168.344 -5.0737e-15 -120.098 1.63189e-15 3624.28)
(15373.7 153.616 -7.17164e-14 -338.999 -4.0369e-14 3469.56)
(14953 362.553 5.01929e-14 -485.763 4.14011e-14 3338.6)
(14571.6 500.665 -1.42717e-14 -582.804 5.3349e-15 3228.17)
(14215.1 630.194 5.32316e-14 -620.376 2.94611e-14 3137.24)
(20660.3 -8176.59 -2.67848e-13 4319.32 4.52711e-14 5764.53)
(19551.2 -4510.48 -1.77006e-13 2921.37 -5.27778e-14 5185.97)
(18535.2 -2363.06 1.64182e-14 2090.22 -1.94781e-15 4759.7)
(17631.6 -1069.67 1.04957e-14 1514.29 -1.30938e-15 4418.27)
(16844.6 -272.993 0 1098.09 0 4140.61)
(16161 223.348 1.52313e-13 788.22 8.2087e-14 3911.36)
(15565.4 533.029 1.03563e-13 552.172 5.58973e-14 3719.44)
(15044.3 724.672 5.39749e-14 368.811 3.78117e-14 3556.87)
(14589.8 842.786 -4.07257e-14 224.703 -8.83093e-15 3418.72)
(14181.2 942.835 -5.4711e-14 131.098 -2.87207e-14 3302.84)
(23859.1 -7638.5 -4.20307e-13 3596.2 6.93288e-14 6335.83)
(21473.3 -4064.08 1.42885e-13 3026.85 2.846e-14 5653.88)
(19700.4 -1986.25 9.12772e-14 2636.12 2.51083e-14 5154.57)
(18326 -746.899 0 2279.53 0 4755.12)
(17236.9 7.01206 -7.51609e-14 1960.8 -3.87086e-14 4430.25)
(16355.4 468.925 3.56795e-17 1680.17 2.47721e-17 4162.05)
(15627.7 750.163 1.3447e-13 1434.49 6.17364e-14 3937.43)
(15017 917.835 6.27859e-14 1219.84 2.66728e-14 3746.97)
(14499.5 1015.2 5.17456e-15 1032.72 -3.43828e-15 3584.37)
(14048.4 1089.31 -4.41688e-14 884.772 -1.47263e-14 3446.11)
(26693.8 -6585.48 -6.50713e-14 2825.64 3.44353e-15 6812.19)
(23126.3 -3412.26 1.70368e-13 3059.82 4.4423e-14 6042.95)
(20661 -1578.18 0 3098.3 0 5482.92)
(18860.9 -491.372 -1.13788e-13 2957.76 -4.05839e-14 5035.08)
(17502.2 164.561 -1.28263e-16 2738.73 -5.50934e-17 4670.98)
(16446.3 561.802 -1.37894e-13 2491.71 -5.17736e-14 4370.3)
(15604.5 799.486 -1.31865e-15 2242.03 4.92298e-15 4118.42)
(14918.2 937.291 4.78829e-15 2002.07 -5.82114e-15 3904.68)
(14349.1 1013.5 3.35429e-14 1777.59 3.78158e-15 3721.54)
(13864.7 1065.8 -1.79482e-16 1580.7 1.47111e-16 3564.34)
(28991.4 -5075.36 -6.86022e-14 2124.77 -2.73344e-14 7180.65)
(24434.1 -2586.98 4.21597e-14 3050.64 2.39327e-14 6342.62)
(21397.5 -1153.08 -7.7608e-14 3459.64 -2.46855e-14 5736.27)
(19247.8 -305.712 -9.53209e-14 3508.41 -2.67247e-14 5251.43)
(17668.7 203.401 9.72685e-17 3378.81 8.17944e-17 4857.12)
(16471.8 509.424 -2.50258e-17 3164.13 -5.26363e-17 4531.37)
(15539 690.333 -6.22514e-14 2913.78 -1.45468e-14 4258.33)
(14793.7 793.292 -5.49867e-14 2654.3 -1.81188e-14 4026.47)
(14185.5 848.414 2.88917e-15 2399.81 -4.001e-15 3827.39)
(13677.3 883.26 5.83882e-15 2162.62 1.88847e-15 3655.38)
(30591.7 -3209.61 2.9898e-13 1590.4 -1.4109e-14 7426.63)
(25334.2 -1643.82 1.37857e-13 3022.09 5.31501e-15 6543.76)
(21894.4 -735.355 -1.23338e-14 3707.35 -1.36991e-14 5908.09)
(19496 -196.54 8.97637e-14 3899.55 1.13841e-14 5398.97)
(17760.5 127.146 4.00276e-15 3838.11 6.61016e-15 4984.29)
(16464.3 321.181 6.95884e-14 3648.5 1.94478e-14 4641.41)
(15468.4 435.533 0 3398.53 0 4353.91)
(14683.1 500.396 0 3125.33 0 4109.63)
(14049.3 535.169 -2.43409e-14 2848.94 -4.79536e-15 3899.58)
(13526.5 556.726 1.91128e-14 2581.98 -1.24022e-14 3717.33)
(31375.8 -1129.85 7.43655e-15 1301.71 1.29144e-14 7540.97)
(25822.5 -696.23 -4.42572e-13 3023.54 -9.04386e-15 6656.79)
(22137 -403.332 5.32654e-14 3851.83 -1.20266e-14 5997.42)
(19585.1 -218.645 9.26127e-14 4114.49 3.74774e-15 5469.14)
(17756.7 -103.512 7.76189e-14 4083.66 3.34632e-15 5040.08)
(16403.8 -31.5476 0 3903.28 0 4686.26)
(15373.4 13.4654 0 3650.96 0 4390.25)
(14567.5 41.3993 3.42971e-16 3368.72 -3.66319e-15 4139.14)
(13922.4 58.8421 7.16674e-14 3079.07 3.10603e-15 3923.41)
(13396.2 71.2779 -1.08916e-15 2793.66 -2.51871e-16 3736.13)
(-463.631 404.901 -1.18756e-14 -11232.3 1.98921e-13 -2699.05)
(-430.076 158.442 1.57299e-15 -7301.65 -3.77901e-14 -1784.24)
(-17.6996 -36.7982 0 -4838.43 0 -1120.65)
(696.182 -151.786 5.57362e-15 -3245.24 1.75754e-14 -588.244)
(1511.9 -210.545 -8.16527e-15 -2186.97 1.08188e-14 -155.786)
(2332.68 -235.595 -5.74901e-15 -1462.06 2.75484e-14 200.912)
(3114.42 -241.216 3.39721e-14 -949.606 2.3811e-14 499.572)
(3839.34 -235.821 4.35698e-14 -575.397 1.91956e-16 753.218)
(4502.88 -224.655 -9.31746e-16 -292.6 -3.02441e-15 971.604)
(5106.55 -213.159 4.32605e-15 -71.7729 5.71699e-15 1161.87)
(-534.258 970.111 -2.88203e-15 -10847.5 -4.63295e-14 -2626.57)
(-247.626 -209.149 2.40196e-16 -7035.53 6.15443e-16 -1680.73)
(285.849 -832.809 -2.5685e-14 -4780.6 -3.60723e-14 -1037.25)
(1053.2 -1149.78 -8.76453e-15 -3319.75 -7.63843e-15 -523.05)
(1883.46 -1295.91 1.19382e-14 -2336.1 4.5117e-15 -104.455)
(2699.01 -1345.19 -2.51877e-15 -1651.74 -8.29858e-15 241.679)
(3465.67 -1339.97 -1.74386e-14 -1160.03 -9.18763e-15 532.07)
(4170.5 -1304.91 -4.63314e-14 -794.546 -8.37323e-15 779.067)
(4810.72 -1254.75 -3.64544e-14 -512.86 4.3237e-16 991.814)
(5385.69 -1205.58 4.29258e-14 -286.776 1.40645e-17 1176.67)
(-601.086 1391.71 -4.74092e-15 -9715.83 -3.42896e-14 -2380.83)
(112.173 -486.844 5.0258e-14 -6533.19 5.80786e-14 -1481.77)
(861.107 -1457.11 4.5025e-17 -4617.31 2.48228e-16 -866.817)
(1726.39 -1937.49 -8.66627e-14 -3356.75 -4.96189e-14 -376.237)
(2587.98 -2152.56 -7.50857e-14 -2492.07 -3.35341e-14 22.1344)
(3397.9 -2219.45 -3.41018e-14 -1876.64 -1.36579e-14 351.061)
(4138.8 -2203.38 -2.35882e-14 -1423.02 -1.50238e-14 626.718)
(4807.27 -2141.88 1.44389e-14 -1076.46 2.67797e-16 860.957)
(5405.4 -2057.16 -7.04269e-14 -801.881 -1.2858e-14 1062.35)
(5931.84 -1974.93 -8.85993e-14 -575.827 -7.91077e-15 1236)
(-611.905 1550.49 -2.2419e-14 -8085.35 4.02414e-14 -2007.06)
(681.116 -791.396 1.70425e-15 -5797.36 -1.69406e-14 -1180.67)
(1712.18 -1993.97 -3.22028e-14 -4367.88 5.42205e-15 -612.853)
(2694.95 -2579.81 3.8773e-15 -3387.66 1.62729e-14 -159.856)
(3588.66 -2833.3 5.45183e-16 -2687.49 6.02862e-16 207.962)
(4383.94 -2903.24 8.34051e-15 -2167.95 3.3101e-15 511.383)
(5085.06 -2871.31 -6.1956e-14 -1768.14 -1.74178e-14 765.442)
(5700.78 -2784.05 1.06879e-14 -1449.44 1.22104e-14 981.078)
(6239.78 -2668.84 1.65645e-14 -1187.05 5.78193e-15 1166.01)
(6699.48 -2560.52 3.7477e-14 -964.427 1.23106e-14 1323.47)
(-487.269 1373.48 4.60636e-14 -6111.5 -1.46381e-13 -1522.79)
(1463.03 -1161.35 -4.79479e-14 -4876.29 -4.41833e-15 -787.674)
(2808.45 -2453.62 -7.83979e-14 -4033.41 -3.93735e-14 -282.684)
(3915.45 -3070.03 7.04923e-14 -3390.87 1.17256e-14 121.056)
(4833.82 -3323.85 6.32836e-14 -2888.94 2.47072e-14 448.817)
(5601.47 -3378.91 6.96565e-14 -2485.38 2.81929e-14 719.098)
(6247.63 -3325 7.59172e-14 -2151.68 2.75258e-14 945.218)
(6794.95 -3212.86 -2.50366e-14 -1868.46 -6.74526e-16 1136.88)
(7259.43 -3072.29 3.04807e-14 -1623.17 2.3282e-14 1300.68)
(7636.24 -2946.62 -1.37004e-14 -1407.65 -1.21029e-14 1437.37)
(-133.69 831.728 -1.32762e-14 -3955.89 1.9732e-13 -943.75)
(2467.75 -1607.03 -6.00492e-14 -3832.08 -2.828e-15 -314.846)
(4116.99 -2830.26 9.7359e-14 -3616.52 2.8358e-14 115.495)
(5331.75 -3394.19 3.33067e-15 -3340.28 -2.04566e-14 459.569)
(6257.69 -3605.86 7.40708e-14 -3055.02 3.06073e-14 739.076)
(6980.78 -3626.61 -6.63876e-14 -2779.73 -2.61668e-14 969.473)
(7556.3 -3544.44 5.88503e-14 -2520.56 2.26403e-14 1162.09)
(8020.97 -3408.93 -2.43169e-14 -2278.89 -6.47944e-16 1325.1)
(8397.93 -3249.11 4.57561e-14 -2055.45 -2.49092e-15 1463.65)
(8679.64 -3115.69 -1.43065e-14 -1851.59 -3.10655e-14 1575.7)
(548.274 -61.9176 2.67835e-13 -1770.11 -4.33572e-13 -281.961)
(3705.27 -2117.72 -2.53232e-14 -2725.08 4.68896e-14 226.198)
(5598.94 -3117.9 2.14634e-13 -3123.59 8.24349e-14 571.235)
(6881.85 -3546.51 7.57953e-15 -3209.81 -2.2818e-14 847.395)
(7786.93 -3674.07 8.83374e-16 -3142.78 1.43046e-14 1071.73)
(8444.65 -3641.41 -6.54916e-14 -2999.31 -2.29813e-14 1256.62)
(8933.66 -3525.23 -1.51977e-14 -2818.99 -3.73826e-15 1411.08)
(9303.31 -3368.36 0 -2623.3 0 1541.54)
(9582.93 -3195.87 -5.31825e-14 -2426.18 -2.18253e-14 1651.56)
(9761.88 -3064.51 8.03494e-14 -2239.56 2.42155e-14 1735.92)
(1640.64 -1252.87 1.10734e-13 289.448 -2.59585e-13 445.405)
(5176.71 -2672.52 9.86063e-14 -1617.23 -2.01083e-14 821.419)
(7211.81 -3312.03 -4.43514e-14 -2560.59 -4.53247e-14 1073.36)
(8501.33 -3533.13 8.87312e-14 -2976.46 6.96159e-14 1274.97)
(9347.18 -3539.98 -2.69277e-13 -3112.96 -1.07955e-13 1438.67)
(9915.29 -3437.63 7.92572e-14 -3096.54 3.56018e-14 1573.56)
(10302.6 -3282.68 -1.32514e-14 -2995.31 -3.6421e-15 1686.29)
(10567.7 -3106.49 0 -2848.36 0 1781.38)
(10743.9 -2927.77 1.33763e-14 -2681.77 -1.21166e-15 1860.49)
(10817 -2807.64 1.58906e-14 -2518.2 -2.45846e-15 1915.1)
(3197.56 -2646.56 0 2084.88 0 1219.03)
(6870.24 -3237.48 -1.99476e-14 -561.224 2.25525e-14 1455.93)
(8910.19 -3412.86 -2.10852e-13 -1938.45 -1.50493e-13 1608.86)
(10127 -3372.39 -2.31751e-14 -2625.35 3.35946e-14 1731.15)
(10867.9 -3231.69 -4.84623e-15 -2936.21 1.39167e-14 1830.39)
(11320.4 -3048.43 7.54659e-14 -3034.08 2.44458e-14 1912.24)
(11592.3 -2851.91 0 -3008.62 0 1980.84)
(11747.3 -2658.08 0 -2912.03 0 2038.91)
(11820.8 -2477.21 0 -2779.72 0 2086.4)
(11793.7 -2375.49 1.11828e-13 -2642.87 2.5615e-14 2111.73)
(5243.86 -4125.32 2.23258e-13 3514 -2.25338e-13 2021.04)
(8765.99 -3773.04 -5.1655e-14 393.547 4.65124e-14 2113.74)
(10650.6 -3424.63 -4.5469e-14 -1271.35 -4.66465e-14 2164.43)
(11704.2 -3092.25 -9.19458e-14 -2151.17 -7.42141e-14 2204.54)
(12289.4 -2790.49 1.93025e-13 -2595.55 9.748e-14 2237.04)
(12599 -2522.19 0 -2789 0 2263.84)
(12742.4 -2285.61 -7.64815e-14 -2833.52 -3.89455e-14 2286.67)
(12784.6 -2077.41 0 -2788.91 0 2306.7)
(12766.1 -1893.68 1.14348e-14 -2692.29 -1.54517e-15 2324.73)
(12680.6 -1802.81 -2.58743e-14 -2590.67 -1.37754e-14 2328.44)
(5638.29 -183.712 6.7234e-14 99.4462 -8.13793e-15 1324.09)
(6127.12 -154.011 -9.81899e-15 259.295 -2.69813e-14 1473.79)
(6566.44 -129.927 -8.38948e-14 402.838 -1.0924e-14 1608.3)
(6964.21 -109.437 -9.54653e-17 536.682 -2.28109e-19 1730.98)
(7325.65 -91.9041 -5.68559e-15 665.756 -1.5995e-14 1844.17)
(7655 -76.838 -3.02384e-14 793.962 -1.23283e-16 1949.76)
(7955.8 -63.8721 0 924.61 0 2049.33)
(8231.03 -52.6942 0 1060.42 0 2144.18)
(8483.15 -43.0188 -6.30182e-14 1203.93 4.29858e-15 2235.48)
(8714.19 -34.5659 1.01977e-13 1357.41 1.43107e-14 2324.22)
(8925.7 -27.0714 9.68057e-14 1523.26 -1.75705e-14 2411.3)
(9118.88 -20.253 -7.02546e-14 1703.83 -8.25834e-15 2497.55)
(9294.41 -13.8483 -3.55277e-14 1901.83 -5.28466e-15 2583.75)
(9452.69 -7.56193 -1.0318e-13 2120.07 -1.61468e-15 2670.64)
(9593.53 -1.08249 3.67764e-14 2361.89 6.28971e-15 2758.94)
(9716.23 5.94336 6.79233e-14 2630.89 -1.5593e-16 2849.33)
(9819.38 13.63 1.01705e-15 2931.07 6.34531e-17 2942.41)
(9900.83 21.128 3.29144e-14 3265.67 2.54005e-15 3038.42)
(9959.43 23.638 -3.39218e-14 3634.94 2.67149e-16 3137.16)
(10019.4 7.65475 7.72217e-14 4033.74 5.30706e-15 3243.02)
(5875.55 -1115.34 9.2107e-14 -95.2288 9.58951e-15 1333.92)
(6321.92 -994.198 4.28744e-14 95.8947 9.58389e-15 1481.04)
(6723.43 -894.892 -2.15968e-14 262.259 2.78843e-15 1612.08)
(7091.89 -806.86 6.76047e-14 414.775 6.578e-15 1732.31)
(7429.66 -728.771 2.01941e-15 559.205 7.78096e-17 1843.58)
(7739.53 -659.411 -9.64068e-14 700.215 -4.14568e-15 1947.63)
(8024.09 -597.601 8.95644e-15 841.46 5.60851e-15 2045.9)
(8285.68 -542.223 -6.38949e-14 986.071 -1.25286e-15 2139.63)
(8526.25 -492.225 -1.70917e-15 1136.71 -9.30793e-17 2229.91)
(8747.48 -446.603 6.0171e-14 1295.95 -2.99812e-15 2317.71)
(8950.61 -404.408 4.23104e-14 1466.21 7.66435e-15 2403.88)
(9136.66 -364.704 -6.66541e-15 1650.06 -4.06026e-15 2489.24)
(9306.17 -326.587 -3.47224e-14 1850.13 -1.43442e-15 2574.53)
(9459.47 -289.085 0 2069.39 0 2660.51)
(9596.45 -251.289 -4.8809e-15 2311.02 -2.12694e-15 2747.88)
(9716.73 -212.197 -6.88743e-14 2578.69 -4.18584e-15 2837.41)
(9819.41 -170.939 -3.28185e-15 2876.51 -2.18838e-16 2929.83)
(9902.83 -126.591 2.35961e-15 3209.87 -4.13432e-16 3026.01)
(9963.75 -77.2341 1.5327e-15 3588.26 -1.13931e-15 3127.39)
(10017.7 -14.9197 1.0923e-13 4041.03 3.68016e-14 3244.33)
(6351.77 -1832.76 -1.00376e-14 -369.393 -2.13877e-15 1380.55)
(6729.17 -1647.01 6.52253e-14 -144.218 5.36586e-15 1519.6)
(7061.1 -1493.1 -5.8525e-14 48.9858 -1.47453e-15 1640.79)
(7371.97 -1354.75 1.83275e-14 225.75 -3.01207e-15 1753.32)
(7661.91 -1230.46 1.06481e-13 391.39 8.89213e-15 1858.45)
(7931.93 -1118.87 -1.00224e-13 550.589 -5.68812e-15 1957.5)
(8183.12 -1018.56 -3.39312e-14 707.218 -1.10907e-15 2051.62)
(8416.63 -928.014 6.47383e-14 864.663 2.20876e-15 2141.84)
(8633.47 -845.738 1.67598e-15 1025.84 1.59946e-16 2229.07)
(8834.56 -770.244 -6.36375e-15 1193.54 -2.75968e-15 2314.18)
(9020.59 -700.083 1.00341e-13 1370.35 5.1702e-15 2397.91)
(9192.09 -633.813 2.40269e-14 1558.96 -2.49383e-15 2481.01)
(9349.33 -570.009 -1.01348e-13 1762.08 -6.76702e-15 2564.17)
(9492.39 -507.225 -3.4143e-14 1982.75 -2.60811e-15 2648.11)
(9621.03 -443.967 2.92464e-14 2224.16 1.61213e-15 2733.51)
(9734.68 -378.65 3.00003e-14 2490.12 2.52138e-15 2821.11)
(9832.17 -309.532 -4.14396e-14 2785.08 -4.54251e-15 2911.67)
(9911.05 -233.898 -3.77305e-14 3115.09 -4.20232e-15 3006.03)
(9967.27 -146.118 2.25244e-14 3489.28 7.78943e-15 3105.36)
(10001 -30.2474 -3.26047e-14 3923.44 -1.76614e-14 3213.32)
(7026.09 -2382.25 -4.53675e-14 -741.492 -1.66837e-14 1450.29)
(7308.65 -2156.86 -1.4483e-14 -475.365 -4.84675e-15 1576.91)
(7546.69 -1968.79 3.20678e-14 -248.496 1.5747e-15 1684.2)
(7778.31 -1797.43 -2.14568e-14 -40.734 -8.32909e-15 1785.6)
(8001.41 -1641.35 1.18008e-14 152.748 4.16227e-15 1881.73)
(8215.01 -1499.47 -2.07861e-14 336.365 2.63299e-15 1973.39)
(8418.51 -1370.55 -8.27285e-14 514.005 -2.02964e-14 2061.35)
(8611.58 -1253.11 -6.52136e-14 689.207 -3.28406e-15 2146.34)
(8794.03 -1145.57 2.12273e-14 865.121 -1.87035e-15 2229.04)
(8965.79 -1046.23 6.76796e-14 1044.73 4.36023e-15 2310.12)
(9126.74 -953.383 8.3448e-14 1230.83 1.08216e-14 2390.21)
(9276.78 -865.266 2.43615e-14 1426.24 8.32835e-15 2469.93)
(9415.68 -780.08 -7.93647e-14 1633.78 -2.02555e-15 2549.88)
(9543.09 -695.945 3.37006e-14 1856.52 3.521e-15 2630.68)
(9658.43 -610.902 2.76274e-14 2097.74 2.36782e-15 2712.96)
(9760.79 -522.747 -2.72828e-14 2361.27 -3.27264e-15 2797.4)
(9848.57 -428.771 5.48112e-15 2651.55 6.8249e-16 2884.64)
(9919.17 -324.855 2.80642e-14 2974.17 5.85289e-15 2975.39)
(9969.28 -203.222 -4.8313e-14 3336.35 -5.09564e-15 3070.53)
(9979.2 -43.8766 -9.18292e-15 3742.12 -9.49242e-15 3166.46)
(7853.72 -2750.87 8.50737e-14 -1169.22 2.91627e-15 1542.58)
(8021.09 -2514.92 -8.58798e-14 -864.403 -2.12618e-14 1651.54)
(8148.4 -2315.82 -1.74661e-14 -602.48 3.03569e-15 1741.37)
(8285.3 -2130.97 1.4554e-14 -361.7 5.2218e-15 1828.52)
(8427.69 -1959.39 4.39124e-14 -137.626 1.51978e-14 1913.09)
(8572.45 -1800.77 1.11295e-13 73.552 1.08279e-14 1995.23)
(8717.19 -1654.48 3.15265e-14 275.449 9.86532e-15 2075.22)
(8860.02 -1519.53 -6.64746e-14 471.521 -4.55698e-15 2153.43)
(8999.43 -1394.59 -5.67265e-14 665.004 -2.0184e-14 2230.25)
(9134.24 -1278.09 -8.91926e-14 858.98 -4.46214e-15 2306.13)
(9263.4 -1168.29 1.9345e-14 1056.38 6.89975e-15 2381.49)
(9386.05 -1063.33 2.83256e-14 1260.12 9.57812e-15 2456.81)
(9501.32 -961.177 -3.11812e-14 1473.09 -9.42125e-15 2532.56)
(9608.4 -859.677 9.07782e-14 1698.36 1.03933e-14 2609.25)
(9706.24 -756.422 2.61706e-14 1939.18 6.75247e-15 2687.4)
(9793.59 -648.631 -2.55828e-14 2199.2 -3.93435e-15 2767.57)
(9868.78 -532.871 4.82992e-14 2482.58 8.80013e-15 2850.31)
(9929.27 -403.984 1.05429e-13 2794.1 2.24402e-14 2936.16)
(9972.42 -252.863 -2.50916e-14 3139.53 -8.47295e-15 3025.84)
(9957.41 -57.275 -3.39305e-14 3513.29 -2.85001e-14 3108.62)
(8782.32 -2921.95 1.16602e-14 -1603.1 6.99207e-15 1656.74)
(8822.41 -2707.26 -9.04363e-15 -1273.03 4.03184e-15 1742.17)
(8831.61 -2521.9 -1.05388e-13 -981.427 -1.17073e-14 1811.58)
(8865.4 -2344.66 -6.86435e-14 -711.158 -6.73111e-15 1881.75)
(8918.87 -2175.29 -4.03271e-15 -458.166 -6.50741e-16 1952.47)
(8986.89 -2014.75 4.99642e-16 -219.761 4.3092e-17 2023.18)
(9065.4 -1863.54 4.10603e-14 6.88855 1.54601e-14 2093.6)
(9151.06 -1721.51 1.6649e-13 224.837 1.47538e-14 2163.67)
(9241.08 -1587.96 1.83022e-14 437.086 5.60955e-15 2233.42)
(9333.15 -1461.76 -1.65394e-13 646.667 -1.67602e-14 2303.03)
(9425.29 -1341.43 -2.70151e-14 856.469 -8.85752e-15 2372.71)
(9515.83 -1225.19 1.64287e-13 1069.41 2.02149e-14 2442.75)
(9603.25 -1110.99 2.3778e-15 1288.34 -5.52466e-15 2513.44)
(9686.17 -996.496 -1.62488e-13 1516.24 -2.50469e-14 2585.17)
(9763.2 -879.03 -3.52239e-14 1756.16 -6.25439e-15 2658.31)
(9832.83 -755.386 -2.98647e-14 2011.5 -7.07882e-15 2733.31)
(9893.21 -621.532 -2.9437e-14 2285.85 -5.66724e-15 2810.55)
(9942.07 -471.623 7.25397e-14 2583.33 1.78459e-14 2890.48)
(9977.21 -295.701 5.52893e-14 2908.52 1.07358e-14 2973.63)
(9939.61 -70.3976 -3.37116e-14 3248.18 -3.32518e-14 3043.34)
(9754.19 -2890.72 -6.67748e-15 -1991.42 -4.43251e-15 1791.41)
(9664.65 -2728.39 -4.52542e-14 -1661.01 -8.20055e-15 1846.99)
(9558.47 -2580.62 0 -1352.32 0 1893.73)
(9488.61 -2431.85 0 -1061.97 0 1944.61)
(9451.06 -2282.55 -6.09046e-14 -786.383 -2.24038e-14 1999.54)
(9439.28 -2135.34 0 -524.725 0 2057.2)
(9447.94 -1992.16 -3.52778e-14 -275.707 -1.2897e-14 2116.67)
(9472.63 -1854.02 -5.5707e-14 -37.0993 -1.93293e-14 2177.43)
(9509.4 -1721.22 4.77711e-14 193.378 1.71174e-14 2239.1)
(9555.02 -1593.3 3.34555e-14 418.512 1.13998e-14 2301.59)
(9606.58 -1469.31 -2.87901e-14 640.819 -1.00041e-14 2364.78)
(9661.69 -1347.77 3.21825e-14 863.168 4.58627e-15 2428.81)
(9718.16 -1226.83 4.03658e-14 1088.07 1.30779e-14 2493.75)
(9774.18 -1104.14 1.22167e-14 1318.44 3.82142e-15 2559.83)
(9827.89 -976.891 3.48142e-14 1556.85 1.46614e-15 2627.25)
(9877.61 -841.606 5.37799e-14 1806.4 1.17229e-14 2696.31)
(9921.42 -693.897 -1.13113e-13 2069.99 -2.83585e-14 2767.25)
(9957.29 -527.379 -9.37435e-14 2351.09 -2.76756e-14 2840.39)
(9983.19 -331.508 3.10073e-14 2653.06 1.06486e-14 2916.06)
(9929.28 -82.584 -3.05329e-14 2957.53 -3.71088e-14 2973.88)
(10711.3 -2666.77 2.17885e-14 -2285.56 -5.16805e-15 1944.41)
(10499.9 -2582.73 -2.99284e-14 -1989.9 -5.96037e-15 1963.84)
(10290.4 -2492.57 -1.15234e-13 -1682.87 -2.17707e-14 1986.36)
(10123.8 -2390.95 1.04271e-14 -1387.37 -3.9261e-15 2016.1)
(9999.19 -2278.35 2.92474e-15 -1099.45 6.58539e-16 2053.78)
(9909.29 -2159.25 -3.4932e-14 -822.319 -4.9289e-15 2096.99)
(9848.56 -2036.87 3.34125e-14 -555.832 -1.10297e-14 2144.47)
(9811.58 -1913.78 5.04574e-14 -300.341 1.71225e-14 2194.9)
(9794.01 -1791.22 -1.22636e-13 -53.6346 -7.5129e-15 2247.78)
(9791.54 -1669.85 -2.37063e-14 185.322 -7.82059e-15 2302.35)
(9800.84 -1549.3 8.49984e-15 419.525 -9.69145e-15 2358.55)
(9818.61 -1428.74 0 650.4 0 2415.93)
(9842.39 -1306.58 1.50946e-14 881.14 5.12642e-15 2474.66)
(9869.58 -1180.72 1.23869e-13 1113.17 2.8177e-14 2534.48)
(9898.36 -1048.37 4.78487e-14 1349.75 1.18728e-14 2595.72)
(9926.54 -905.962 -5.24209e-14 1592.24 -1.15378e-14 2658.18)
(9952.55 -748.862 5.74918e-15 1844.03 6.01736e-16 2722.29)
(9974.09 -570.364 0 2106.41 0 2787.81)
(9990.09 -359.492 1.90795e-14 2383.21 9.55668e-15 2855.38)
(9929.4 -92.8729 -1.94199e-14 2650.72 -3.70013e-14 2903.1)
(11604.8 -2267.19 1.97249e-14 -2440.89 -1.74025e-16 2114.75)
(11289 -2276.23 -3.78341e-14 -2216.71 6.71884e-15 2093.6)
(10993.8 -2258.59 8.1059e-15 -1935.18 -4.02704e-15 2090.46)
(10743.1 -2219.49 -2.56744e-14 -1652.26 -1.10001e-14 2097.88)
(10539.9 -2158.9 4.50646e-14 -1367.31 2.60085e-14 2116.76)
(10378 -2081.92 1.57237e-13 -1085.53 3.85391e-14 2144.41)
(10251.6 -1993.23 -5.77511e-14 -810.998 -8.52479e-15 2178.59)
(10155.4 -1896.41 -1.28706e-13 -544.685 -1.07489e-14 2217.85)
(10084.5 -1794.12 2.10147e-14 -287.344 -1.22246e-14 2260.89)
(10034.6 -1687.89 1.19677e-13 -37.6582 1.06912e-14 2306.98)
(10001.4 -1578.39 -8.75034e-14 205.064 -2.62715e-14 2355.34)
(9981.56 -1465.39 -5.18973e-14 443.039 -2.21321e-15 2405.68)
(9971.8 -1347.89 -6.01511e-14 677.357 -1.16739e-14 2457.5)
(9969.53 -1224.14 -3.18111e-15 910.449 -8.99303e-16 2510.76)
(9972.27 -1091.57 8.88693e-14 1143.28 2.38874e-14 2565.13)
(9978.13 -946.694 1.45269e-14 1378.23 4.49945e-15 2620.7)
(9985.16 -784.842 0 1615.98 0 2677.19)
(9991.98 -599.055 1.5691e-14 1858.77 6.75797e-15 2734.79)
(9998.25 -378.499 -5.77154e-14 2106.01 -2.33375e-14 2793.29)
(9942.84 -100.749 5.18354e-14 2337.31 6.95077e-14 2833.88)
(12417.7 -1705.32 5.68727e-14 -2430.21 3.84338e-14 2304.8)
(12022.5 -1810.85 9.73952e-15 -2280.28 -4.89505e-15 2248.21)
(11648.1 -1882.53 3.96595e-14 -2050.87 1.25425e-14 2214.74)
(11320.4 -1922.2 -8.25276e-14 -1808.9 -1.16168e-14 2194.96)
(11044.6 -1929.42 -1.07083e-13 -1552.01 -2.65441e-14 2190.61)
(10815.7 -1909.31 4.36454e-14 -1286.8 -2.14832e-15 2198.98)
(10628.1 -1867.33 1.5143e-13 -1019.86 3.8338e-14 2217.28)
(10476.5 -1808.28 4.60686e-14 -755.078 -1.68155e-15 2243.41)
(10355.8 -1736.08 -8.03852e-14 -495.446 -2.14626e-14 2275.47)
(10261.3 -1653.49 1.38911e-16 -241.717 -8.47124e-16 2312.21)
(10188.2 -1562.23 2.44135e-15 5.43998 1.55467e-14 2352.39)
(10132.9 -1463.01 -1.0638e-13 246.913 -2.61727e-14 2395.34)
(10091.6 -1355.53 5.80093e-14 482.951 1.21511e-14 2440.27)
(10061.4 -1238.64 -2.58289e-14 714.966 -1.353e-14 2486.85)
(10039.6 -1110.14 -2.1377e-16 943.205 1.54925e-16 2534.49)
(10024.2 -966.862 -4.44089e-14 1168.93 -1.35322e-14 2583.02)
(10013.2 -804.174 2.80247e-14 1391.79 9.01809e-15 2631.93)
(10006.5 -615.696 5.95911e-16 1612.26 7.99162e-17 2681.25)
(10003.7 -390.639 -1.47185e-14 1827.26 -8.50611e-15 2730.22)
(9968.54 -105.518 -8.25001e-15 2021.66 -4.81499e-15 2766.97)
(12999.2 -1213.67 -2.84867e-14 -2372.65 -2.28185e-14 2452.28)
(12560 -1376.83 -3.36182e-14 -2168.93 -1.95533e-14 2397.95)
(12123.5 -1522.97 -2.24919e-14 -2008.49 -6.96831e-15 2334.24)
(11756.8 -1618.95 3.04624e-14 -1808.67 1.67268e-14 2295.71)
(11442.9 -1674.75 -4.53835e-14 -1583.76 -3.65387e-14 2275.19)
(11175.3 -1697.63 -3.25996e-14 -1344.04 -2.32667e-14 2268.76)
(10949 -1693.37 -5.6065e-14 -1096.18 -1.95179e-14 2273.73)
(10759.1 -1667.1 -4.80364e-15 -846.438 6.14826e-15 2287.55)
(10601.4 -1622.87 9.86146e-14 -597.79 3.92296e-14 2308.54)
(10471.4 -1563.88 -5.55766e-15 -353.304 -9.53e-16 2334.95)
(10365.2 -1492.2 4.66256e-14 -113.482 1.9743e-14 2365.78)
(10278.8 -1408.99 -4.37603e-14 120.323 -1.80842e-14 2399.8)
(10209.1 -1314.41 0 348.762 0 2436.43)
(10152.8 -1207.67 -1.78137e-14 570.966 -7.20051e-15 2474.73)
(10107.9 -1087.07 1.69066e-14 787.734 6.50552e-15 2514.37)
(10071.8 -949.708 -1.57526e-15 997.766 -4.27288e-16 2554.52)
(10043.6 -791.626 -2.58427e-14 1201.36 -8.77078e-15 2595)
(10022.5 -607.032 3.60431e-16 1395.61 2.06154e-16 2634.95)
(10010.5 -386.23 -1.38818e-14 1577.42 -3.80498e-15 2674.13)
(10013.5 -104.073 -4.704e-15 1740.95 -3.32446e-15 2712.57)
(12924 -863.417 4.20527e-14 -2159.8 1.89874e-14 2484.06)
(12628.5 -1047.29 0 -2067.4 0 2437.17)
(12253.9 -1220.42 -3.4267e-14 -1953.14 -1.07764e-14 2377.1)
(11918.2 -1348.94 6.25968e-28 -1786.3 2.10882e-28 2338.14)
(11620 -1435.78 7.06684e-29 -1587.56 7.79807e-29 2315.18)
(11357.5 -1487.55 4.65101e-28 -1368.66 2.25444e-28 2305.13)
(11128.5 -1510.12 5.46439e-28 -1138.07 1.82356e-28 2305.48)
(10930.2 -1508.38 -2.98928e-14 -902.038 -6.7997e-15 2314.19)
(10759.8 -1486.27 0 -665.115 0 2329.53)
(10614.2 -1446.82 2.86718e-14 -430.391 6.40344e-15 2350.11)
(10490.5 -1392.18 -2.28266e-28 -199.96 -3.15122e-29 2374.75)
(10385.9 -1323.62 -2.76981e-14 24.8674 -6.55508e-15 2402.49)
(10297.7 -1241.52 2.72878e-14 243.141 6.82543e-15 2432.5)
(10223.5 -1145.43 2.89554e-28 454.14 9.76497e-29 2464.08)
(10161.5 -1033.98 -2.6593e-14 656.962 -7.76542e-15 2496.56)
(10109.9 -904.764 -1.82312e-28 850.449 -5.87169e-29 2529.32)
(10067.9 -754.319 2.60423e-14 1032.92 9.30689e-15 2561.73)
(10036.2 -578.304 2.58222e-14 1201.93 1.03483e-14 2593.4)
(10015.4 -368.453 -1.24232e-28 1351.79 -6.36939e-29 2623.21)
(10011.2 -101.65 -3.39608e-14 1474.87 -5.31313e-14 2650.63)
(12880.7 -524.906 1.86846e-14 -1864.36 -1.74649e-15 2542.24)
(12647.9 -717.808 -1.7496e-14 -1839.45 -1.50356e-14 2494.26)
(12330.5 -907.08 -5.19681e-14 -1783.05 -2.59697e-14 2434.02)
(12028.6 -1060.16 0 -1664.45 0 2391.73)
(11748.7 -1174.54 1.50772e-14 -1505.04 -4.09033e-15 2363.93)
(11494.2 -1253.99 -2.82889e-15 -1318.9 -1.68663e-14 2348.14)
(11265.7 -1303.19 -4.79914e-14 -1115.83 -1.99871e-14 2342.28)
(11062.5 -1326.42 -6.37647e-14 -903.08 -3.00896e-14 2344.49)
(10883.4 -1327.24 2.95948e-14 -685.977 7.26714e-15 2353.24)
(10726.3 -1308.51 -3.23947e-14 -468.517 -1.96766e-14 2367.18)
(10589.4 -1272.32 -1.59292e-14 -253.575 -9.15505e-15 2385.19)
(10470.5 -1220.01 -3.13555e-14 -43.3706 -1.69978e-14 2406.26)
(10367.7 -1152.15 -3.08917e-14 160.396 -1.57455e-14 2429.57)
(10279.2 -1068.58 -1.52342e-14 356.119 -7.27958e-15 2454.32)
(10203.6 -968.328 -3.00828e-14 542.173 -1.3445e-14 2479.8)
(10139.8 -849.438 -2.97281e-14 716.519 -1.24121e-14 2505.29)
(10087.2 -709.129 -2.62188e-14 876.689 -9.77652e-15 2530.12)
(10046.1 -543.936 -1.45336e-14 1019.04 -5.32371e-15 2553.5)
(10019.5 -347.416 -1.43656e-14 1138.29 -4.98413e-15 2574.87)
(10009.8 -98.3993 -4.88702e-15 1225.62 -4.74334e-15 2592.79)
(12767.2 -243.698 1.57297e-13 -1602.02 7.20307e-14 2576.59)
(12581.1 -431.596 1.57191e-14 -1617.52 1.43898e-14 2530.05)
(12315.8 -623.419 -8.43659e-14 -1601.2 -3.76124e-14 2472.6)
(12053.4 -788.643 1.29445e-27 -1523.22 5.05556e-28 2430.04)
(11800.7 -921.094 4.88856e-14 -1400.39 6.72007e-15 2400.06)
(11563.2 -1021.4 0 -1246.18 0 2380.85)
(11344 -1092.32 1.6261e-14 -1070.9 1.19405e-14 2370.72)
(11144.2 -1136.99 -6.08962e-14 -882.343 -1.6506e-14 2368.12)
(10963.8 -1158.31 1.45092e-27 -686.498 4.74453e-28 2371.68)
(10802.1 -1158.71 5.84387e-14 -487.959 1.55856e-14 2380.19)
(10658.1 -1140.1 -1.56643e-14 -290.332 -9.30818e-15 2392.57)
(10530.6 -1103.75 -1.88436e-28 -96.4764 -5.09464e-29 2407.88)
(10418.3 -1050.34 -1.14303e-27 91.1513 -3.31589e-28 2425.25)
(10319.9 -979.943 1.51768e-14 270.315 7.54114e-15 2443.9)
(10234.7 -891.911 -5.55686e-28 438.65 -1.82162e-28 2463.08)
(10161.9 -784.738 -5.32897e-14 593.488 -1.88782e-14 2482)
(10101.3 -656.254 4.52635e-28 731.609 1.77894e-28 2499.91)
(10054.5 -504.144 3.77085e-14 849.101 1.64173e-14 2516.22)
(10022.8 -323.096 -1.44466e-14 939.78 -5.51656e-15 2529.82)
(10008 -94.1552 -7.38695e-14 994.597 -1.1437e-13 2539.06)
(12603.5 -14.7777 2.71132e-14 -1363.48 2.74594e-14 2593.84)
(12456.2 -193.186 4.85306e-14 -1405.95 2.65464e-14 2550.05)
(12236.2 -379.418 2.92914e-14 -1416.96 2.71567e-14 2496.74)
(12012.2 -547.152 1.69334e-28 -1370.82 2.90369e-29 2455.7)
(11789.7 -688.651 6.29753e-14 -1279.76 3.61742e-14 2425.37)
(11574.5 -802.264 -1.64241e-14 -1155.24 2.52614e-15 2404.44)
(11370.5 -888.856 -1.56883e-14 -1006.95 2.49517e-15 2391.58)
(11180.1 -950.23 3.09579e-14 -842.734 2.24007e-14 2385.54)
(11004.4 -988.394 2.99042e-14 -668.854 8.59356e-15 2385.14)
(10843.9 -1005.21 4.47276e-14 -490.334 1.84104e-14 2389.29)
(10698.3 -1002.24 3.06345e-14 -311.262 1.87924e-14 2397.01)
(10567.2 -980.615 -1.3083e-14 -135.053 3.98554e-16 2407.41)
(10449.8 -941.022 2.39654e-15 35.2914 7.946e-15 2419.65)
(10345.8 -883.664 1.50255e-14 196.952 7.75767e-15 2432.95)
(10254.7 -808.183 5.69283e-14 347.036 2.38796e-14 2446.55)
(10176.3 -713.492 1.48094e-14 482.358 6.86022e-15 2459.68)
(10110.9 -598.013 5.88512e-30 599.25 2.34138e-30 2471.57)
(10059.4 -460.18 5.54335e-14 693.104 2.37862e-14 2481.34)