/*--------------------------------*- C++ -*----------------------------------*\
| =========                 |                                                 |
| \\      /  F ield         | OpenFOAM: The Open Source CFD Toolbox           |
|  \\    /   O peration     | Version:  2.3.0                                 |
|   \\  /    A nd           | Web:      www.OpenFOAM.org                      |
|    \\/     M anipulation  |                                                 |
\*---------------------------------------------------------------------------*/
FoamFile
{
    version     2.0;
    format      ascii;
    class       volScalarField;
    location    "2.65";
    object      p;
}
// * * * * * * * * * * * * * * * * * * * * * * * * * * * * * * * * * * * * * //

dimensions      [1 -1 -2 0 0 0 0];

internalField   nonuniform List<scalar> 
2268
(
983.096
981.294
976.811
966.929
952.588
937.181
921.669
904.085
887.754
874.215
857.465
836.743
816.719
799.913
784.263
768.462
753.953
743.756
737.781
733.771
729.579
722.495
722.3
925.751
923.05
918.917
908.666
894.088
877.559
862.312
844.789
828.147
815.437
798.774
777.615
757.587
740.514
724.9
708.979
694.42
684.124
678.132
674.277
669.888
662.859
662.545
872.275
866.867
861.81
850.922
837.669
821.916
803.896
784.622
769.297
758.736
741.7
719.339
698.422
681.668
665.619
648.914
633.981
623.595
617.612
613.659
609.119
602.884
602.862
820.104
813.085
804.943
793.688
781.823
765.852
745.816
724.737
710.059
699.925
683.373
660.609
639.329
621.704
605.225
588.352
573.283
562.272
555.368
551.145
547.163
542.671
543.783
768.669
761.57
749.867
737.053
725.762
709.264
687.583
665.475
650.195
639.311
622.185
599.626
579.275
560.947
544.135
527.672
512.357
499.966
491.311
486.613
483.823
481.615
483.961
717.768
711.233
698.934
682.73
669.681
652.437
629.53
606.779
590.804
578.446
559.554
537.132
517.128
499.208
482.855
466.844
451.046
436.677
425.652
420.402
418.884
418.792
421.879
665.596
661.795
650.384
631.845
614.266
595.552
571.766
548.708
532.563
518.568
497.887
474.617
454.638
437.414
421.404
405.442
389.048
372.628
359.467
353.661
352.631
353.674
355.494
612.101
611.572
599.435
580.071
559.481
538.738
515.009
492.508
475.664
459.502
437.633
413.676
393.229
375.901
359.518
342.987
326.124
309.005
294.663
288.106
286.505
287.393
283.666
543.779
540.637
547.596
540.551
529.402
553.282
571.348
578.218
587.47
598.869
603.217
602.881
614.266
636.255
653.156
662.174
665.571
671.309
681.677
487.204
483.244
489.415
479.09
463.812
490.08
510.98
517.829
527.61
539.613
542.818
539.528
550.399
574.602
594.315
607.937
609.551
612.921
625.331
430.33
427.299
431.642
414.87
400.636
428.517
448.657
456.261
467.763
481.153
482.324
476.638
486.107
509.7
533.361
552.561
558.128
559.917
572.977
373.379
372.178
374.52
353.562
339.02
367.233
385.638
393.914
407.904
423.03
422.009
414.847
424.186
446.485
472.154
496.247
508.507
510.606
522.121
314.899
316.96
318.409
295.444
279.527
306.745
323.711
331.905
348.098
364.381
362.596
356.921
365.278
385.877
412.434
440.303
458.111
463.032
472.184
255.519
262.084
263.506
238.737
224.14
247.875
263.555
270.382
288.425
304.958
305.062
302.465
309.384
327.292
354.571
385.155
405.586
415.303
422.2
194.67
207.442
208.264
181.588
169.196
189.497
204.454
209.384
227.904
245.694
248.698
247.644
255.409
272.061
298.468
331.046
355.443
365.857
370.447
128.807
148.855
148.322
122.646
111.126
131.139
145.835
148.226
166.719
186.935
191.715
191.471
201.396
220.036
246.037
279.336
306.315
313.707
317.441
529.662
529.677
514.509
492.592
471.349
449.977
427.658
406.801
387.491
368.082
345.819
321.528
299.092
279.868
261.881
244.488
227.674
211.496
195.722
188.315
185.218
182.775
159.62
413.793
406.465
385.2
362.426
344.025
324.672
304.756
285.349
264.341
245.526
226.302
200.574
171.164
143.944
123.342
110.023
100.345
89.1054
73.8945
64.329
60.4148
60.0553
60.5057
290.078
275.564
254.321
235.51
219.767
199.905
179.367
162.688
144.296
130.702
114.577
85.0326
50.6456
27.9103
21.8683
22.0227
22.1157
17.4505
8.51036
3.95627
2.32302
1.91769
1.42377
162.613
152.877
138.882
136.432
129.251
99.0969
68.8458
58.3
56.6362
49.3266
36.7442
19.3687
4.36074
0.727839
0.69989
0.925982
0.734704
0.0364275
-0.067851
-0.0354521
0.00127305
0.0460466
0.0789174
56.5583
49.1402
34.7469
29.3919
32.3443
22.9824
12.0847
7.15682
5.21046
3.17735
2.29397
0.856776
0.00340692
0.00172354
0.165037
0.129785
-0.246909
-0.317519
-0.326077
-0.287101
-0.218367
-0.148892
-0.0656101
4.16181
0.937881
0.337011
0.0959541
0.14945
0.605978
0.00284007
-0.665734
-0.959007
-0.79163
-0.408516
-0.281009
-0.397737
-0.477638
-0.369063
-0.390053
-0.600576
-0.667989
-0.652281
-0.560146
-0.443789
-0.32675
-0.221915
-0.0447328
-0.0581194
-0.117273
-0.21482
-0.399295
-0.55233
-0.674132
-0.833284
-0.92941
-0.893834
-0.715322
-0.59388
-0.605935
-0.752309
-0.796029
-0.895364
-1.00113
-1.01917
-0.967253
-0.874984
-0.738835
-0.584632
-0.439417
-0.228315
-0.23639
-0.29241
-0.393963
-0.540625
-0.658259
-0.808299
-0.982648
-1.13028
-1.08053
-0.966515
-0.896405
-0.929668
-1.05966
-1.17592
-1.27562
-1.34126
-1.37647
-1.34671
-1.26249
-1.10852
-0.914424
-0.717855
-0.448555
-0.477346
-0.516228
-0.572774
-0.63848
-0.716239
-0.833093
-0.964512
-1.0508
-1.07526
-1.07121
-1.11863
-1.2258
-1.35208
-1.47445
-1.57273
-1.67522
-1.75584
-1.76302
-1.66872
-1.49533
-1.26631
-1.02259
-0.68217
-0.713658
-0.724409
-0.708168
-0.69292
-0.709388
-0.75822
-0.828486
-0.920122
-1.006
-1.11362
-1.2548
-1.4043
-1.54672
-1.69078
-1.83887
-1.98588
-2.08595
-2.10183
-2.009
-1.83116
-1.5854
-1.31163
-0.873428
-0.876093
-0.869923
-0.813039
-0.754937
-0.722554
-0.71586
-0.774618
-0.872851
-1.00248
-1.16785
-1.35104
-1.52721
-1.70094
-1.88003
-2.06129
-2.22465
-2.32827
-2.34688
-2.26323
-2.08794
-1.84303
-1.56338
-1.05719
-1.04705
-1.02081
-0.975024
-0.903919
-0.830991
-0.796155
-0.833343
-0.93049
-1.07337
-1.25092
-1.44448
-1.63815
-1.83395
-2.02961
-2.21566
-2.37345
-2.47187
-2.48942
-2.41022
-2.24567
-2.02442
-1.77915
-1.26995
-1.28397
-1.28674
-1.29476
-1.23374
-1.12183
-1.02131
-1.00852
-1.08206
-1.20645
-1.36503
-1.54203
-1.72615
-1.91649
-2.10581
-2.28083
-2.42329
-2.50889
-2.51821
-2.44011
-2.2944
-2.12163
-1.95954
-1.47855
-1.53574
-1.60371
-1.64647
-1.62723
-1.53767
-1.40593
-1.30402
-1.30397
-1.38496
-1.5075
-1.64173
-1.78632
-1.94306
-2.10552
-2.25798
-2.3798
-2.4445
-2.43518
-2.35196
-2.23015
-2.12152
-2.07357
-1.65919
-1.73724
-1.80902
-1.84164
-1.83825
-1.82455
-1.76834
-1.68635
-1.63165
-1.63261
-1.66952
-1.73372
-1.81649
-1.92169
-2.04526
-2.16283
-2.25119
-2.29098
-2.26239
-2.17995
-2.08855
-2.04342
-2.10925
-1.84038
-1.90157
-1.95035
-1.97044
-1.96635
-1.98414
-2.00885
-2.03611
-2.0512
-2.00553
-1.92531
-1.86275
-1.8474
-1.89866
-1.98982
-2.08472
-2.15965
-2.1845
-2.14438
-2.06167
-1.98387
-1.96865
-2.13196
-2.00411
-2.06134
-2.09601
-2.1138
-2.14133
-2.20151
-2.28455
-2.37895
-2.40523
-2.3331
-2.19466
-2.04014
-1.93259
-1.94584
-2.03397
-2.13579
-2.22452
-2.22843
-2.14772
-2.06692
-1.9898
-1.99616
-2.24321
-2.16071
-2.2103
-2.25233
-2.2886
-2.4006
-2.54629
-2.72325
-2.83058
-2.7631
-2.59183
-2.37093
-2.18562
-2.09096
-2.10612
-2.18445
-2.28438
-2.36014
-2.35527
-2.24536
-2.15021
-2.06595
-2.12087
-2.40275
-2.29605
-2.33463
-2.38394
-2.46021
-2.62749
-2.84294
-3.12481
-3.25815
-3.0916
-2.78665
-2.49258
-2.27126
-2.17102
-2.21675
-2.35904
-2.5379
-2.65396
-2.6325
-2.49317
-2.32091
-2.21703
-2.30135
-2.54366
-2.40577
-2.43691
-2.47993
-2.55015
-2.6923
-2.93891
-3.27841
-3.42832
-3.28663
-3.00161
-2.70702
-2.43974
-2.31185
-2.37018
-2.56162
-2.74559
-2.85033
-2.8185
-2.69066
-2.52824
-2.42734
-2.48782
-2.67359
-2.50835
-2.53399
-2.56424
-2.61726
-2.72645
-2.94364
-3.23956
-3.4021
-3.34176
-3.1655
-2.97971
-2.77862
-2.6525
-2.6629
-2.78234
-2.88865
-2.94335
-2.91223
-2.81645
-2.69162
-2.62594
-2.69238
-2.81554
-2.62534
-2.64667
-2.66654
-2.72486
-2.8548
-3.05984
-3.26261
-3.38766
-3.40968
-3.37251
-3.28004
-3.14142
-2.9957
-2.91835
-2.95315
-3.00394
-3.00623
-2.98797
-2.92423
-2.84144
-2.81809
-2.89319
-2.98024
-2.79033
-2.8174
-2.81857
-2.86802
-3.02383
-3.25037
-3.44467
-3.51719
-3.55164
-3.55371
-3.5105
-3.42314
-3.2935
-3.16662
-3.1262
-3.15902
-3.11356
-3.10148
-3.04977
-2.99928
-3.00819
-3.08843
-3.17587
-3.01533
-3.05928
-3.03192
-3.02711
-3.16698
-3.44134
-3.64857
-3.6913
-3.73135
-3.75424
-3.73079
-3.66376
-3.54192
-3.38793
-3.31434
-3.3325
-3.27929
-3.2286
-3.19292
-3.16633
-3.20193
-3.29757
-3.39561
-3.2718
-3.32108
-3.27866
-3.24668
-3.36094
-3.54442
-3.69512
-3.8128
-3.87792
-3.89673
-3.87958
-3.82529
-3.72518
-3.58405
-3.51193
-3.51553
-3.48952
-3.37577
-3.35554
-3.35073
-3.41494
-3.52832
-3.63232
-3.50926
-3.56281
-3.5101
-3.48452
-3.52945
-3.6324
-3.75724
-3.87087
-3.93615
-3.95848
-3.94463
-3.90308
-3.84034
-3.75604
-3.71724
-3.7071
-3.70415
-3.58271
-3.55341
-3.56818
-3.65107
-3.77648
-3.88628
-3.70121
-3.72767
-3.68936
-3.69691
-3.73752
-3.78966
-3.84415
-3.95029
-4.04881
-4.065
-4.01957
-3.96244
-3.92898
-3.91515
-3.91496
-3.91595
-3.91801
-3.84469
-3.80122
-3.82491
-3.90886
-4.03956
-4.15471
-3.84034
-3.84348
-3.8308
-3.89116
-3.96372
-3.99821
-4.02471
-4.15548
-4.26784
-4.24419
-4.14786
-4.05979
-4.04882
-4.08652
-4.11178
-4.13969
-4.15154
-4.12774
-4.08479
-4.10625
-4.17779
-4.30615
-4.4247
-3.96846
-3.96658
-3.98122
-4.10101
-4.18793
-4.19928
-4.25043
-4.41172
-4.51289
-4.45163
-4.3054
-4.19948
-4.21021
-4.26308
-4.30927
-4.37526
-4.42006
-4.44883
-4.42023
-4.39861
-4.43551
-4.55221
-4.66875
-4.14237
-4.12909
-4.19157
-4.31328
-4.39032
-4.37535
-4.44721
-4.59627
-4.65621
-4.57733
-4.43451
-4.37129
-4.38757
-4.42604
-4.49374
-4.59204
-4.67964
-4.78619
-4.781
-4.67895
-4.65645
-4.73656
-4.84681
-4.38167
-4.37725
-4.42888
-4.49627
-4.53277
-4.53343
-4.58369
-4.65748
-4.68557
-4.63944
-4.55674
-4.53486
-4.54187
-4.57156
-4.6484
-4.76136
-4.8836
-5.03196
-5.04682
-4.87229
-4.79175
-4.82815
-4.92113
-4.63368
-4.65765
-4.66188
-4.65704
-4.65509
-4.66018
-4.68871
-4.72533
-4.73049
-4.71296
-4.68875
-4.67923
-4.67064
-4.69913
-4.76687
-4.87211
-5.0003
-5.11567
-5.1177
-4.9379
-4.82112
-4.82252
-4.88868
-4.81346
-4.85405
-4.83432
-4.78559
-4.76705
-4.7743
-4.79417
-4.81381
-4.8267
-4.82742
-4.81888
-4.80025
-4.78998
-4.80859
-4.85483
-4.93068
-5.02123
-5.08048
-5.04391
-4.88838
-4.78547
-4.77264
-4.81921
-4.91109
-4.93482
-4.9255
-4.87099
-4.86442
-4.87777
-4.89597
-4.91371
-4.92977
-4.93231
-4.91993
-4.90078
-4.89328
-4.90025
-4.92414
-4.96567
-5.0097
-5.01933
-4.95739
-4.8361
-4.75929
-4.74449
-4.7781
-4.97852
-4.98973
-4.99129
-4.96473
-4.95805
-4.97036
-4.98494
-4.99927
-5.00913
-5.00975
-4.99851
-4.98856
-4.98291
-4.98133
-4.98758
-5.00155
-5.01265
-4.99712
-4.93707
-4.84756
-4.79191
-4.77556
-4.79467
-5.06999
-5.07876
-5.0822
-5.0691
-5.05989
-5.06687
-5.07425
-5.08179
-5.08511
-5.08409
-5.07998
-5.07481
-5.06813
-5.06111
-5.05552
-5.0513
-5.04361
-5.02133
-4.97632
-4.91729
-4.87633
-4.85942
-4.86799
-5.18004
-5.1879
-5.18953
-5.18267
-5.17316
-5.17615
-5.17666
-5.17759
-5.17698
-5.17505
-5.17114
-5.16509
-5.15645
-5.14589
-5.13378
-5.12001
-5.10295
-5.07974
-5.04833
-5.01287
-4.9858
-4.97285
-4.97781
-5.29581
-5.30157
-5.30128
-5.29729
-5.29136
-5.29025
-5.28644
-5.283
-5.2791
-5.2745
-5.26835
-5.26047
-5.2503
-5.23787
-5.22323
-5.20645
-5.18722
-5.16578
-5.14278
-5.1213
-5.10581
-5.09911
-5.10336
-5.41325
-5.41678
-5.41515
-5.41223
-5.40828
-5.40366
-5.3985
-5.392
-5.38558
-5.37862
-5.37056
-5.36123
-5.35018
-5.33731
-5.32272
-5.30681
-5.29005
-5.27275
-5.25636
-5.2429
-5.23454
-5.23223
-5.23609
-5.53207
-5.53364
-5.53122
-5.52795
-5.52357
-5.51749
-5.51232
-5.50374
-5.4958
-5.48725
-5.47787
-5.46759
-5.45624
-5.44388
-5.43079
-5.41762
-5.40489
-5.393
-5.38275
-5.37509
-5.37097
-5.37073
-5.37393
-5.65194
-5.65225
-5.6495
-5.6454
-5.6397
-5.63278
-5.62753
-5.61827
-5.6094
-5.59983
-5.58966
-5.57902
-5.56802
-5.55687
-5.54606
-5.53646
-5.52844
-5.52179
-5.51664
-5.51321
-5.51177
-5.51233
-5.51458
-5.77218
-5.77288
-5.77012
-5.7655
-5.75841
-5.74751
-5.74428
-5.73564
-5.72584
-5.71548
-5.70492
-5.6945
-5.68453
-5.67539
-5.6677
-5.66248
-5.65942
-5.65724
-5.65587
-5.65535
-5.65556
-5.65633
-5.65746
109.219
106.878
108.028
97.7543
53.1559
45.2587
34.192
23.5127
0.62786
0.550043
0.539706
0.530756
0.140477
0.184603
0.243794
0.303724
-0.00308436
0.0195102
0.0577499
0.107472
-0.162123
-0.135889
-0.11727
-0.0977862
-0.354555
-0.310352
-0.277082
-0.253535
-0.599734
-0.535845
-0.484984
-0.447497
-0.869559
-0.784478
-0.71347
-0.656886
-1.12951
-1.02598
-0.937889
-0.864568
-1.36854
-1.2547
-1.15586
-1.07043
-1.60784
-1.50668
-1.41673
-1.33412
-1.86652
-1.8157
-1.7786
-1.75387
-2.10704
-2.15955
-2.23419
-2.31678
-2.28171
-2.43079
-2.57369
-2.69467
-2.37537
-2.5304
-2.66092
-2.77228
-2.45989
-2.57475
-2.68583
-2.78993
-2.57318
-2.65518
-2.75352
-2.85413
-2.68416
-2.77006
-2.85597
-2.93698
-2.7923
-2.8671
-2.92135
-2.96722
-2.88974
-2.93899
-2.98206
-3.02216
-3.0423
-3.08141
-3.11516
-3.14413
-3.23607
-3.27039
-3.29609
-3.31314
-3.45067
-3.47796
-3.49746
-3.50918
-3.68265
-3.70541
-3.72343
-3.73827
-3.93935
-3.96651
-3.99409
-4.02148
-4.21407
-4.24787
-4.28631
-4.32413
-4.49483
-4.53469
-4.57597
-4.6125
-4.74924
-4.79861
-4.83682
-4.86399
-4.93006
-4.97501
-5.0034
-5.01562
-4.99564
-5.03035
-5.04693
-5.04734
-4.94381
-4.97012
-4.98393
-4.98119
-4.85754
-4.87492
-4.88711
-4.88956
-4.80777
-4.82152
-4.83215
-4.83846
-4.81585
-4.82715
-4.83777
-4.84641
-4.88178
-4.89034
-4.89961
-4.90852
-4.98663
-4.99283
-4.99996
-5.00731
-5.10963
-5.11429
-5.11967
-5.12539
-5.24105
-5.24472
-5.24887
-5.25326
-5.3777
-5.3804
-5.38337
-5.38645
-5.51695
-5.51861
-5.52041
-5.52225
-5.65839
-5.65899
-5.65959
-5.66017
72.1453
64.0686
56.3059
44.0109
34.8791
46.8888
64.1211
68.9725
84.127
102.375
105.267
104.486
117.789
140.594
169.734
200.219
224.007
230.004
235.244
10.8721
4.79098
1.79427
1.42526
1.6234
2.62233
6.96493
10.2827
18.1161
25.5061
20.4155
15.6941
24.9064
41.7282
69.1489
93.8583
111.086
118.502
124.977
0.563373
0.608301
0.661417
0.810448
0.907901
1.06492
1.7323
2.04394
1.65414
0.660483
-0.215756
0.153187
1.5006
2.09136
7.76271
20.8525
30.4569
37.3704
43.4848
0.367279
0.396975
0.51339
0.630375
0.538569
0.410384
0.426428
0.309512
0.141569
0.0616668
0.238274
0.575401
0.922133
0.748991
0.306649
0.632823
0.560251
0.434115
0.783901
0.181729
0.171134
0.17268
0.220552
0.1105
-0.0585212
-0.202197
-0.336144
-0.387253
-0.270642
-0.00335168
0.203557
0.38339
0.491274
0.393184
0.40362
0.320912
0.297577
0.462836
-0.0577781
-0.0660844
-0.0771131
-0.0818495
-0.186878
-0.360423
-0.525954
-0.634865
-0.65818
-0.526051
-0.289405
-0.066685
0.138545
0.311392
0.299247
0.161464
-0.0385797
-0.0295446
0.121034
-0.228489
-0.226622
-0.22854
-0.252079
-0.394311
-0.583361
-0.750881
-0.841301
-0.836847
-0.68499
-0.45524
-0.213379
-0.0274634
0.0408075
0.0634514
-0.105456
-0.373285
-0.377225
-0.185852
-0.406781
-0.39126
-0.374445
-0.382514
-0.519502
-0.669607
-0.777576
-0.869951
-0.847451
-0.684248
-0.459675
-0.276498
-0.183278
-0.169424
-0.172916
-0.292423
-0.504649
-0.514083
-0.387967
-0.590499
-0.549962
-0.511783
-0.494129
-0.565808
-0.672041
-0.777625
-0.863528
-0.830892
-0.677154
-0.495228
-0.383782
-0.360864
-0.347023
-0.358471
-0.452422
-0.57692
-0.557028
-0.524384
-0.771641
-0.703784
-0.649113
-0.599981
-0.626442
-0.706629
-0.856691
-0.974336
-0.945089
-0.797587
-0.665962
-0.604069
-0.600448
-0.557543
-0.571067
-0.659643
-0.729621
-0.67729
-0.687728
-0.954041
-0.865261
-0.808805
-0.74817
-0.771107
-0.862222
-1.06386
-1.20396
-1.16823
-1.01723
-0.903018
-0.848508
-0.843056
-0.821024
-0.870164
-0.952786
-0.968976
-0.90005
-0.889241
-1.21715
-1.09957
-1.0231
-0.968609
-1.02166
-1.12611
-1.3418
-1.4747
-1.41424
-1.26082
-1.13765
-1.0593
-1.04603
-1.07663
-1.19405
-1.33715
-1.31646
-1.21029
-1.12846
-1.72041
-1.57214
-1.38161
-1.31708
-1.36587
-1.43945
-1.62313
-1.71772
-1.63487
-1.48812
-1.35148
-1.24922
-1.21993
-1.27058
-1.42696
-1.63262
-1.65645
-1.52289
-1.38271
-2.40713
-2.2493
-1.90449
-1.78973
-1.74658
-1.73965
-1.85306
-1.90268
-1.82231
-1.68527
-1.55383
-1.44208
-1.40567
-1.45602
-1.59218
-1.76738
-1.81027
-1.67162
-1.54662
-2.83713
-2.7276
-2.38374
-2.26541
-2.07327
-1.9851
-2.02462
-2.03742
-1.99653
-1.87126
-1.77527
-1.69655
-1.67593
-1.71396
-1.79083
-1.86181
-1.83459
-1.70125
-1.63422
-2.92065
-2.90649
-2.71763
-2.56306
-2.29227
-2.17033
-2.16837
-2.16593
-2.15294
-2.08021
-2.05402
-2.0712
-2.09502
-2.10723
-2.09848
-2.04314
-1.91694
-1.76116
-1.70841
-2.94163
-2.97717
-2.87445
-2.68679
-2.4297
-2.32229
-2.30508
-2.32582
-2.27925
-2.31399
-2.38761
-2.48602
-2.5595
-2.56992
-2.50044
-2.31868
-2.08316
-1.89103
-1.83887
-2.99668
-3.01402
-2.89926
-2.71336
-2.53452
-2.47464
-2.46189
-2.49456
-2.45949
-2.5347
-2.66471
-2.80212
-2.9047
-2.95644
-2.88235
-2.63166
-2.30775
-2.075
-2.02113
-3.02316
-2.99573
-2.87675
-2.73659
-2.6435
-2.62959
-2.63704
-2.65167
-2.69056
-2.73351
-2.87073
-3.01955
-3.12808
-3.20844
-3.15803
-2.8915
-2.53657
-2.30151
-2.23269
-3.0159
-2.97637
-2.88201
-2.80068
-2.77013
-2.7787
-2.8062
-2.81979
-2.85391
-2.88637
-3.03255
-3.16763
-3.2642
-3.33794
-3.29019
-3.05911
-2.74487
-2.53948
-2.49473
-3.05765
-3.01871
-2.95378
-2.90971
-2.90179
-2.91262
-2.94008
-2.9644
-2.95862
-2.9983
-3.15794
-3.26979
-3.34267
-3.38463
-3.34009
-3.16734
-2.92344
-2.76369
-2.78727
-3.1642
-3.1268
-3.07709
-3.04288
-3.03306
-3.0363
-3.04686
-3.0633
-3.05285
-3.10101
-3.25391
-3.34361
-3.38925
-3.40666
-3.37748
-3.27726
-3.11081
-2.97906
-3.05217
-3.31734
-3.27278
-3.22267
-3.18812
-3.1723
-3.16738
-3.16635
-3.1733
-3.16422
-3.20997
-3.33478
-3.39941
-3.41845
-3.42327
-3.42837
-3.42439
-3.35451
-3.2542
-3.2853
-3.50523
-3.44612
-3.38687
-3.34926
-3.32838
-3.31741
-3.31177
-3.30986
-3.3003
-3.32634
-3.40816
-3.44583
-3.44601
-3.44212
-3.49098
-3.58971
-3.64131
-3.61228
-3.52835
-3.73694
-3.65507
-3.57528
-3.52913
-3.5012
-3.4832
-3.47073
-3.45947
-3.44505
-3.45123
-3.48677
-3.49514
-3.47863
-3.46922
-3.55515
-3.74431
-3.89515
-3.91441
-3.75838
-4.03249
-3.92393
-3.80011
-3.72929
-3.68376
-3.65234
-3.6301
-3.61089
-3.59175
-3.58582
-3.58719
-3.56798
-3.5241
-3.51367
-3.60675
-3.83785
-4.03651
-4.0457
-3.89623
-4.34683
-4.21758
-4.05365
-3.93566
-3.86563
-3.81973
-3.78703
-3.76155
-3.73949
-3.72659
-3.71379
-3.67621
-3.60699
-3.5805
-3.653
-3.86177
-4.03884
-4.03129
-3.93339
-4.63512
-4.46963
-4.27766
-4.13164
-4.03642
-3.97797
-3.93806
-3.90849
-3.88414
-3.86549
-3.85328
-3.81902
-3.74592
-3.68348
-3.72027
-3.86416
-3.98636
-3.98079
-3.9094
-4.86504
-4.67483
-4.4449
-4.2912
-4.18878
-4.12484
-4.08149
-4.05069
-4.02509
-4.00537
-3.99014
-3.96671
-3.91996
-3.85187
-3.82959
-3.91602
-3.98144
-3.95727
-3.89698
-4.99094
-4.79826
-4.57094
-4.42016
-4.32236
-4.26091
-4.21785
-4.18631
-4.16112
-4.14082
-4.1234
-4.10064
-4.07037
-4.04042
-4.00194
-4.02571
-4.05794
-4.01526
-3.9493
-5.00461
-4.83787
-4.65597
-4.52425
-4.43964
-4.38531
-4.34626
-4.31688
-4.29425
-4.27585
-4.26251
-4.23202
-4.19787
-4.19909
-4.1794
-4.14349
-4.19536
-4.13852
-4.07109
-4.94594
-4.83054
-4.70558
-4.60796
-4.54395
-4.50145
-4.46882
-4.44443
-4.42615
-4.41342
-4.4199
-4.39401
-4.33338
-4.32516
-4.32832
-4.30708
-4.35993
-4.28267
-4.23046
-4.8779
-4.81706
-4.74366
-4.68362
-4.64145
-4.61003
-4.58697
-4.56894
-4.55577
-4.55074
-4.5712
-4.56637
-4.48945
-4.46343
-4.45683
-4.48186
-4.49995
-4.41731
-4.41304
-4.84212
-4.82337
-4.79143
-4.76206
-4.73829
-4.71868
-4.70283
-4.69061
-4.68172
-4.6821
-4.70046
-4.70825
-4.63716
-4.59703
-4.5705
-4.61779
-4.60461
-4.55134
-4.57971
-4.8588
-4.86414
-4.85835
-4.84844
-4.83751
-4.82675
-4.81697
-4.80891
-4.80267
-4.80295
-4.81562
-4.81432
-4.76177
-4.72171
-4.69002
-4.75349
-4.73682
-4.709
-4.73867
-4.92309
-4.93813
-4.94436
-4.94443
-4.94112
-4.93605
-4.93041
-4.92486
-4.91988
-4.91693
-4.91922
-4.91696
-4.88193
-4.84368
-4.82021
-4.90963
-4.89541
-4.86863
-4.88304
-5.02007
-5.03601
-5.04554
-5.0496
-5.04997
-5.04784
-5.04449
-5.04071
-5.03708
-5.03773
-5.04631
-5.04817
-5.03401
-4.98447
-4.9853
-5.04635
-5.0224
-4.99446
-5.0014
-5.13557
-5.14893
-5.15789
-5.16268
-5.1641
-5.16298
-5.16045
-5.15779
-5.15592
-5.16647
-5.19331
-5.21762
-5.22267
-5.15438
-5.16301
-5.17203
-5.1358
-5.11694
-5.12557
-5.26097
-5.27097
-5.27805
-5.28204
-5.2832
-5.282
-5.27937
-5.27637
-5.27608
-5.2976
-5.34929
-5.39479
-5.39144
-5.34493
-5.348
-5.32458
-5.27688
-5.25811
-5.26109
-5.39176
-5.39855
-5.40344
-5.40615
-5.40666
-5.40511
-5.4023
-5.39772
-5.40038
-5.42841
-5.48589
-5.52121
-5.51384
-5.50974
-5.52529
-5.49189
-5.42966
-5.409
-5.40518
-5.52535
-5.5293
-5.53219
-5.53378
-5.53397
-5.5328
-5.53099
-5.52984
-5.53747
-5.55558
-5.58012
-5.5959
-5.60394
-5.64144
-5.71602
-5.68865
-5.60587
-5.56552
-5.55357
-5.66111
-5.66223
-5.66296
-5.66326
-5.66314
-5.66272
-5.663
-5.66759
-5.67754
-5.67675
-5.66474
-5.67612
-5.70522
-5.75496
-5.88728
-5.87349
-5.7968
-5.71623
-5.69468
)
;

boundaryField
{
    leftWall
    {
        type            calculated;
        value           nonuniform List<scalar> 
50
(
983.096
925.751
872.275
820.104
768.669
717.768
665.596
612.101
529.662
413.793
290.078
162.613
56.5583
4.16181
-0.0447328
-0.228315
-0.448555
-0.68217
-0.873428
-1.05719
-1.26995
-1.47855
-1.65919
-1.84038
-2.00411
-2.16071
-2.29605
-2.40577
-2.50835
-2.62534
-2.79033
-3.01533
-3.2718
-3.50926
-3.70121
-3.84034
-3.96846
-4.14237
-4.38167
-4.63368
-4.81346
-4.91109
-4.97852
-5.06999
-5.18004
-5.29581
-5.41325
-5.53207
-5.65194
-5.77218
)
;
    }
    rightWall
    {
        type            calculated;
        value           nonuniform List<scalar> 
50
(
681.677
625.331
572.977
522.121
472.184
422.2
370.447
317.441
235.244
124.977
43.4848
0.783901
0.462836
0.121034
-0.185852
-0.387967
-0.524384
-0.687728
-0.889241
-1.12846
-1.38271
-1.54662
-1.63422
-1.70841
-1.83887
-2.02113
-2.23269
-2.49473
-2.78727
-3.05217
-3.2853
-3.52835
-3.75838
-3.89623
-3.93339
-3.9094
-3.89698
-3.9493
-4.07109
-4.23046
-4.41304
-4.57971
-4.73867
-4.88304
-5.0014
-5.12557
-5.26109
-5.40518
-5.55357
-5.69468
)
;
    }
    lowerWall
    {
        type            calculated;
        value           nonuniform List<scalar> 
62
(
1012.39
1010.62
1006.13
996.042
981.695
966.445
951.098
933.514
917.183
903.644
886.884
866.086
845.879
829.073
813.426
797.861
783.377
773.18
767.2
763.192
759.003
751.919
751.723
722.3
662.545
602.862
543.783
483.961
421.879
355.494
283.666
171.637
169.105
170.12
159.465
543.779
487.204
430.33
373.379
314.899
255.519
194.67
128.807
571.33
568.669
576.641
569.915
558.776
582.639
600.705
607.575
616.827
628.222
632.56
632.224
643.665
665.655
681.503
689.369
694.022
699.761
710.106
)
;
    }
    atmosphere
    {
        type            calculated;
        value           nonuniform List<scalar> 
46
(
-5.83225
-5.83437
-5.83138
-5.82676
-5.81939
-5.80335
-5.80423
-5.79558
-5.78516
-5.77451
-5.76391
-5.75389
-5.74477
-5.73705
-5.73144
-5.72905
-5.72904
-5.72904
-5.72904
-5.72904
-5.72904
-5.72904
-5.72904
-5.72904
-5.72904
-5.72904
-5.72904
-5.72904
-5.72904
-5.72904
-5.72904
-5.72904
-5.72904
-5.72904
-5.72904
-5.72918
-5.73844
-5.7318
-5.737
-5.74571
-5.79386
-6.02592
-5.92368
-5.85689
-5.77981
-5.75788
)
;
    }
    defaultFaces
    {
        type            empty;
    }
}


// ************************************************************************* //
