/*--------------------------------*- C++ -*----------------------------------*\
| =========                 |                                                 |
| \\      /  F ield         | OpenFOAM: The Open Source CFD Toolbox           |
|  \\    /   O peration     | Version:  2.3.0                                 |
|   \\  /    A nd           | Web:      www.OpenFOAM.org                      |
|    \\/     M anipulation  |                                                 |
\*---------------------------------------------------------------------------*/
FoamFile
{
    version     2.0;
    format      ascii;
    class       volScalarField;
    location    "2.65";
    object      p_rgh;
}
// * * * * * * * * * * * * * * * * * * * * * * * * * * * * * * * * * * * * * //

dimensions      [1 -1 -2 0 0 0 0];

internalField   nonuniform List<scalar> 
2268
(
1012.39
1010.62
1006.13
996.042
981.695
966.445
951.098
933.514
917.183
903.644
886.884
866.086
845.879
829.073
813.426
797.861
783.377
773.18
767.2
763.192
759.003
751.919
751.723
1006.98
1010.48
1006.56
996.911
982.375
965.824
950.598
933.077
916.111
901.105
884.243
864.747
845.195
827.993
812.382
796.994
782.69
772.396
766.38
762.52
758.149
751.13
750.818
1003.59
1010.35
1008.83
998.069
984.816
969.063
951.043
931.769
912.052
895.18
878.144
855.942
842.046
827.803
811.931
795.127
780.194
770.478
764.748
760.736
756.194
749.983
749.989
1003.95
1001.68
1010.91
999.693
987.828
971.858
951.821
930.579
912.889
900.595
875.465
851.824
830.545
824.107
811.095
793.834
778.885
768.15
761.361
757.127
753.096
748.635
749.76
1005.04
997.965
1006.55
1001.88
990.626
974.129
952.446
929.205
915.02
904.144
886.965
851.422
829.634
822.119
808.978
792.531
777.218
764.819
756.16
751.462
748.672
746.462
748.787
1010.31
1000.17
987.896
992.465
993.271
976.159
953.252
930.485
914.495
902.118
883.257
860.836
840.303
822.389
806.473
790.563
774.765
760.184
749.357
744.105
742.587
742.494
745.58
1046.2
1004.77
991.89
978.977
989.317
977.989
953.987
930.753
914.289
900.776
880.444
857.176
836.907
819.575
803.842
788.019
771.626
754.932
735.529
730.004
733.639
735.959
737.91
1051.3
1044.78
1020.21
990.569
979.679
971.13
946.9
924.342
913.198
900.892
879.033
855.065
834.408
817.122
800.901
784.423
767.559
746.047
723.259
716.74
716.381
720.939
724.21
571.33
568.669
576.641
569.915
558.776
582.639
600.705
607.575
616.827
628.222
632.56
632.224
643.665
665.655
681.503
689.369
694.022
699.761
710.106
569.857
565.898
572.862
567.304
552.026
578.26
599.154
606.04
615.82
627.824
630.984
627.406
638.392
662.802
682.36
689.489
690.918
694.241
703.074
568.085
565.055
569.422
561.893
547.659
575.54
595.68
603.283
614.772
628.169
629.338
623.359
631.777
655.925
680.191
696.277
687.378
689.17
702.231
566.954
571.242
571.572
559.394
544.852
573.065
591.471
599.321
613.043
628.789
627.827
618.077
623.35
649.473
677.772
701.866
694.958
691.562
703.077
575.724
581.572
582.853
560.075
544.168
571.386
588.352
595.59
611.751
628.77
626.288
607.303
620.07
649.693
676.807
704.677
722.423
697.707
704.848
569.8
585.411
586.955
562.188
547.591
571.325
586.792
592.697
611.264
628.304
625.839
604.957
611.102
646.474
677.694
708.277
715.186
701.631
715.478
569.714
586.884
590.523
563.848
551.456
571.757
586.589
591.521
610.042
627.832
630.835
625.974
610.919
627.425
680.341
712.918
698.514
711.954
746.985
565.23
586.575
584.912
562.777
550.347
558.26
571.41
584.401
607.647
627.865
632.631
632.239
627.59
627.601
661.451
695.7
702.158
746.757
751.908
1060.44
1060.52
1045.38
1023.54
991.15
968.24
945.921
925.064
915.595
901.504
879.252
854.964
832.532
813.328
795.342
777.949
760.194
743.344
726.054
715.094
709.318
707.763
691.84
1069.16
1061.93
1040.75
1018.04
999.693
980.386
960.542
941.741
921.59
904.108
884.923
859.195
829.8
802.595
757.591
689.467
656.54
647.523
649.33
642.344
642.436
650.153
659.253
1069.92
1055.53
1034.37
1015.73
1000.25
981.246
961.382
945.283
927.986
914.439
853.903
727.238
533.796
366.612
293.108
284.894
276.504
239.485
115.744
51.9937
30.1676
24.0895
19.6059
1066.23
1056.2
1040.27
1021.4
1021.52
909.649
786.094
757.845
730.2
663.907
479.515
247.448
68.7982
9.38931
2.83408
4.83112
17.3155
1.66839
1.1114
0.951148
0.969691
1.01963
1.05459
838.751
705.179
578.752
505.58
470.505
330.629
159.056
117.15
107.7
82.1639
50.8363
24.2887
4.71076
1.69821
2.00765
2.44527
1.49409
1.26828
1.1001
0.996184
0.879876
0.974494
1.05973
79.9165
11.1526
1.78812
1.5006
10.1176
22.6764
7.274
0.579606
0.226456
0.385089
0.777691
0.93392
0.954979
1.31292
1.65771
2.21493
1.43634
1.32382
0.795091
0.631285
0.747524
0.872499
0.971776
1.51692
1.50353
1.42562
1.28393
1.0724
0.898868
0.936348
0.670086
0.366274
0.399885
0.595174
0.722771
1.43832
1.77186
1.72428
1.53223
0.573962
0.459422
0.348133
0.442536
0.589687
0.758902
0.89449
1.48552
1.51001
2.1746
1.90699
1.05999
0.925551
0.773103
0.448553
0.287355
0.337533
0.453231
0.852998
1.85266
1.71253
1.56422
0.24279
0.0797891
0.0436281
0.0906604
0.219027
0.372977
0.563835
0.774137
1.41804
2.31769
2.65518
2.5632
0.905721
0.827234
0.710359
0.578936
0.492653
0.468141
0.473432
0.757125
1.26777
1.09172
0.29372
-0.0255661
-0.129697
-0.210426
-0.202118
-0.0981411
0.065975
0.279107
0.530214
1.33657
1.60058
2.40746
1.41577
0.981473
0.960056
0.911109
0.84084
0.749207
0.663381
0.571884
0.517611
0.287696
0.145264
-0.017606
-0.167408
-0.314457
-0.414513
-0.430375
-0.337529
-0.15985
0.0860655
0.359769
1.29754
1.29488
1.32352
1.47253
1.78748
1.16273
1.07935
1.02059
0.922357
0.792731
0.63064
0.445161
0.26912
0.0951051
-0.0837635
-0.264153
-0.427144
-0.529088
-0.540023
-0.462852
-0.290432
-0.045546
0.234123
1.26601
1.80202
2.31684
3.09846
3.49743
3.00572
1.2412
1.08774
0.990606
0.847741
0.6702
0.476452
0.283081
0.0873768
-0.108121
-0.287171
-0.42842
-0.525426
-0.542978
-0.46376
-0.31601
-0.100796
0.144713
2.62246
3.30001
3.3192
3.38459
3.50542
3.60633
3.02762
1.09082
0.965051
0.840552
0.682124
0.505044
0.321009
0.130609
-0.0586958
-0.211524
-0.349629
-0.435004
-0.444205
-0.366133
-0.235148
-0.0718119
0.0910316
3.45169
3.15691
1.68699
0.934132
1.86723
3.48925
3.62099
2.92163
0.955151
0.788406
0.665513
0.531315
0.386669
0.229913
0.0674708
-0.0849779
-0.206225
-0.25376
-0.233878
-0.169629
-0.0517692
0.0557899
0.102645
2.57435
0.568799
0.497348
0.468521
0.47581
0.964376
3.37163
3.56811
3.62282
2.33894
0.672111
0.565113
0.482426
0.377157
0.253613
0.136228
0.0480527
0.00874121
0.0400104
0.12539
0.216842
0.261459
0.549256
0.592064
0.530757
0.482106
0.462354
0.475706
0.503698
0.525848
3.11694
3.47605
3.5086
3.5692
2.33679
1.31356
1.10345
0.772999
0.442315
0.429908
0.384985
0.3394
0.374974
0.448079
0.467751
2.19156
0.554624
0.497397
0.465307
0.554768
0.859608
0.781142
1.48095
0.963276
0.914027
1.1076
1.1289
3.36724
5.07627
5.20441
5.20775
5.09893
5.00938
4.70215
1.37834
0.51455
0.574123
1.56191
2.53751
0.524338
0.47476
0.446715
1.37176
3.60752
3.95681
4.0574
3.52481
0.714295
0.818246
1.03619
1.29326
1.48344
1.52043
1.97329
5.29686
5.25191
5.26171
3.68309
0.631078
0.653314
2.62314
2.61393
0.515252
0.476718
0.440401
1.81923
3.96405
4.25664
3.97534
3.84143
1.45629
0.781724
1.07689
1.45357
1.55494
1.53549
4.6359
5.43186
5.34805
5.34375
2.79036
0.561981
1.0655
2.82107
2.60578
0.53009
0.500394
0.52119
0.809201
0.478201
2.69992
4.1407
3.97221
3.06774
1.59802
5.25738
5.53045
5.65668
5.58232
5.523
5.55752
5.51664
2.4461
0.332819
0.482112
1.23365
2.8467
2.34273
0.555424
0.537482
0.544438
0.510168
0.415203
2.40887
4.47928
4.11446
2.35557
4.03136
4.59104
4.308
2.63065
2.21557
1.68189
1.54459
0.955287
0.504987
0.262151
0.446065
1.71466
2.87147
0.586774
0.639423
1.02025
0.592304
0.546294
0.433094
1.77577
4.70907
0.584303
-0.22768
-0.191112
-0.0976254
0.0513994
1.1688
2.13823
2.08447
1.76893
0.963562
0.217533
0.280097
0.517995
1.63495
1.51566
0.220413
0.973392
3.60622
1.94145
0.550348
0.402503
1.06877
3.02487
0.135123
-0.244293
-0.246617
-0.203656
-0.116138
0.288086
0.833897
1.49264
2.63022
2.45653
0.257654
0.280583
0.472602
0.52068
0.231941
0.145131
1.494
3.60894
3.63634
0.838731
0.616142
2.19795
2.00561
0.153137
-0.294876
-0.321474
-0.298053
-0.231037
-0.108988
0.0564485
0.163754
1.7429
3.1778
0.547249
0.261134
0.285616
0.239323
0.143715
0.0477321
2.78668
3.59175
3.6226
2.96787
0.654643
0.378461
1.11859
1.20203
-0.0467084
-0.337212
-0.320895
-0.266375
-0.108613
0.464471
0.204176
0.0493326
3.17721
1.90723
0.217083
0.217877
0.150476
0.0382101
-0.0649785
3.62179
3.57877
1.91559
2.22107
1.66729
0.422661
0.247159
0.0841447
-0.0898665
-0.242603
-0.258595
-0.218156
0.380937
0.597071
0.329586
-0.0238978
1.30621
2.52852
0.376814
0.125773
0.0422558
-0.0830395
-0.192691
3.39982
1.20052
0.538233
0.469172
0.485955
1.27283
1.81541
2.51701
1.91115
0.292922
-0.197214
-0.149698
0.615887
0.606117
0.0736546
-0.11045
0.198047
2.47651
0.469862
-0.00534267
-0.0893561
-0.21995
-0.33395
1.06484
0.616718
0.612565
0.366257
0.231057
0.154986
3.91872
3.76506
3.66704
2.5055
-0.0891048
-0.107777
0.709709
0.363633
-0.180526
-0.208762
-0.220609
2.3748
0.543924
-0.160536
-0.232076
-0.360432
-0.478789
0.96067
0.641685
3.09696
2.27729
0.129004
0.0560002
3.52942
3.75778
3.66522
3.44428
0.164831
0.309
0.707836
-0.10828
-0.252567
-0.318593
-0.363386
2.07569
2.38189
-0.248489
-0.363632
-0.480117
-0.596618
1.57479
1.47861
3.38053
3.26088
0.455848
0.00276716
1.35289
3.79425
3.76667
0.973717
0.0748856
0.874597
0.683248
-0.226121
-0.310903
-0.409568
-0.497227
1.20256
2.28146
-0.0871318
-0.458257
-0.538065
-0.288647
1.51236
3.40614
3.37331
3.28503
0.900453
-0.048928
0.17166
2.95035
0.721545
0.139172
0.463798
0.870702
-0.233752
-0.281034
-0.337314
-0.447361
-0.57366
0.147885
2.21935
-0.100005
-0.467012
-0.503452
0.0269798
0.677494
3.35926
3.34654
2.6698
0.633264
-0.0496393
-0.0733094
-0.0918816
0.181604
0.643719
1.06883
0.612096
-0.256131
-0.284583
-0.3295
-0.404037
-0.541506
-0.237926
1.61651
-0.116419
-0.370094
-0.371548
-0.138532
-0.0414517
1.92405
1.57775
-0.152435
-0.132689
-0.0628228
0.0225768
0.210442
0.987052
0.986337
0.828167
-0.260555
-0.250289
-0.268887
-0.313184
-0.358987
-0.41257
-0.468078
-0.383033
-0.0534599
-0.122368
-0.191476
-0.241119
-0.24441
-0.269839
-0.260519
-0.206011
-0.199436
-0.194353
0.230392
0.851853
0.861653
0.509802
-0.255039
-0.235894
-0.228394
-0.235359
-0.259185
-0.283691
-0.299023
-0.328239
-0.288242
-0.148606
0.0226456
0.0267886
-0.0910539
-0.187545
-0.199555
-0.201119
-0.174555
-0.16788
-0.180165
-0.124175
0.0752389
0.017178
-0.219666
-0.20843
-0.198483
-0.192823
-0.191247
-0.197495
-0.210647
-0.200971
-0.176898
-0.145348
-0.0562843
0.0223767
0.0625244
0.0220834
-0.154042
-0.163176
-0.166808
-0.153732
-0.144541
-0.151565
-0.158953
-0.166499
-0.169829
-0.168814
-0.164701
-0.159533
-0.152855
-0.145826
-0.14024
-0.136019
-0.127757
-0.10261
-0.0597711
-0.00172982
0.0401693
0.0599504
0.0657123
-0.139514
-0.146825
-0.148496
-0.142103
-0.13217
-0.133966
-0.135975
-0.137024
-0.136255
-0.134497
-0.130668
-0.124614
-0.11598
-0.105414
-0.0933046
-0.0795327
-0.0624736
-0.0392715
-0.00782556
0.0277229
0.0557204
0.0779421
0.080712
-0.130147
-0.135283
-0.135004
-0.131552
-0.124151
-0.11107
-0.119905
-0.117215
-0.112992
-0.108528
-0.102689
-0.0948067
-0.0846324
-0.0721944
-0.057558
-0.0407828
-0.021554
-0.000117924
0.0228914
0.0443772
0.0620274
0.0800062
0.0759589
-0.122387
-0.12578
-0.123874
-0.121356
-0.11527
-0.0989578
-0.106267
-0.101132
-0.0943353
-0.0876117
-0.0796974
-0.0703738
-0.0593156
-0.0464488
-0.0318513
-0.0159409
0.000815923
0.0181127
0.0345004
0.0479963
0.0574593
0.0612275
0.0566964
-0.116021
-0.117586
-0.115164
-0.1119
-0.105714
-0.0872728
-0.0959127
-0.0876852
-0.0797496
-0.0711972
-0.0618205
-0.0515364
-0.0401853
-0.0278278
-0.0147316
-0.00155681
0.0111695
0.0230543
0.0333072
0.040977
0.0450973
0.045336
0.0421321
-0.110693
-0.111002
-0.108256
-0.104154
-0.0980612
-0.0868373
-0.0862847
-0.0770231
-0.0681552
-0.0585819
-0.0484161
-0.0377731
-0.0267681
-0.0156234
-0.00480933
0.00478453
0.012811
0.0194544
0.0246122
0.0280345
0.02948
0.0289235
0.0266731
-0.105739
-0.106437
-0.103679
-0.0990568
-0.0919712
-0.0810718
-0.077841
-0.0691966
-0.059393
-0.0490379
-0.0384769
-0.0280607
-0.0180894
-0.00895151
-0.00125557
0.00395893
0.00701867
0.00920546
0.0105756
0.0110976
0.0108853
0.0101164
0.00898838
641.154
637.192
637.191
623.668
599.462
510.612
387.045
266.01
1.48329
1.4611
1.48784
1.47678
1.11379
1.37041
1.68528
1.74403
1.10307
1.16308
1.31489
1.55498
1.02674
1.05213
1.07045
1.08999
0.996037
1.02646
1.0442
1.06275
0.895402
0.960109
1.01086
1.03763
0.703829
0.829542
0.915278
0.968161
0.541864
0.645259
0.761967
0.85533
0.428952
0.543397
0.645114
0.736125
0.316145
0.41877
0.514886
0.719554
0.184157
0.288489
0.346822
2.00659
0.121664
1.1994
2.25294
2.21999
2.1383
2.25348
2.15805
2.06939
2.22999
1.67736
0.909821
0.804436
1.90696
1.18137
1.07029
1.17049
1.47103
1.32273
2.1042
2.07374
1.50192
2.24009
2.22718
2.17821
1.16205
1.43587
0.287913
0.132949
0.199549
0.157116
0.111126
0.0751124
0.163794
0.135361
0.110737
0.0809975
0.0915783
0.0847787
0.0988052
0.0776643
0.0693567
0.0460168
0.0265159
0.0148034
-0.109191
-0.0690268
-0.0701856
-0.0895543
-0.245365
-0.270207
-0.286914
-0.306511
-0.319231
-0.355111
-0.443152
-0.469333
-0.265553
0.990964
0.130829
-0.27171
0.47246
0.955702
0.989983
0.88809
1.02892
0.975786
0.945048
0.926128
1.156
1.11758
1.07669
1.07655
0.28897
0.500707
1.31926
1.31784
-0.292487
-0.293781
-0.141216
0.407828
-0.13041
-0.149159
-0.157761
-0.159239
-0.0168549
-0.0316373
-0.040999
-0.0463869
0.0468564
0.0294729
0.0212619
0.0190209
0.0717101
0.0514702
0.0530539
0.0552224
0.0661401
0.05236
0.0557752
0.0592416
0.050172
0.0461448
0.0433387
0.0394926
0.038364
0.0356582
0.0326893
0.0296132
0.024303
0.0226384
0.0208378
0.0190041
0.00805586
0.00745878
0.00685495
0.00627159
557.353
507.253
499.924
414.692
323.046
393.802
465.163
438.348
491.928
567.026
578.085
596.8
618.581
639.661
656.81
708.441
744.48
755.036
760.284
119.418
49.2675
13.5072
2.43375
3.1135
17.9947
53.6967
96.5428
180.715
265.226
237.482
187.12
303.645
511.632
654.763
723.902
754.127
766.714
773.223
1.51093
1.55437
1.78286
1.97201
2.59878
3.53108
4.34875
4.93572
4.35629
1.92277
1.04523
1.15637
2.59409
4.46094
109.27
273.223
403.789
498.561
585.754
1.7414
2.62045
2.73305
2.24673
2.55367
2.2067
2.7472
4.99511
3.77819
1.12033
1.21073
1.54902
2.11154
1.86175
1.47977
1.83213
1.77365
1.65512
4.08611
1.49413
2.31017
2.6836
2.68327
2.11771
1.02959
0.872867
0.736406
0.738745
0.80995
1.07698
1.29087
1.73398
1.61572
1.70772
1.90181
2.18276
1.86002
2.00109
1.23338
1.1223
1.12144
1.63131
1.36327
0.849471
0.674763
0.565537
0.54215
0.675319
0.913646
1.14075
1.39458
1.52906
1.97215
2.70442
2.49032
2.02192
1.8419
1.08795
1.09008
1.08817
1.23985
1.4266
0.86424
0.578818
0.48836
0.492814
0.644828
0.87528
1.11895
1.3083
1.38543
2.87888
2.71208
2.07473
1.52821
1.71983
1.03838
1.05377
1.19743
2.09416
1.94264
0.978901
0.681689
0.589252
0.61171
0.77483
0.999742
1.18367
1.27887
1.30454
1.97605
2.7997
2.42361
1.57705
1.70317
0.985701
1.02397
1.36585
2.22829
1.8152
0.918634
0.811246
0.725205
0.757841
1.15828
1.55439
1.6832
1.57923
1.26022
1.43143
2.87606
2.99164
1.71992
1.75286
0.933191
0.999706
1.34961
2.36498
1.69855
1.01434
0.86176
0.758583
1.2958
1.54627
1.67555
1.73024
1.72782
1.32354
1.49368
3.22487
3.19792
2.04037
1.77594
0.870622
0.968027
1.27114
2.44835
1.54909
0.988961
0.786915
0.880955
1.35237
1.50337
1.61759
1.43675
1.48338
1.94497
1.99487
3.27276
3.2565
3.31597
1.76076
1.54643
1.12116
1.14208
2.44091
1.22819
0.855543
0.744639
1.22193
1.28275
1.43654
1.07988
0.945413
0.959456
1.09138
1.627
3.18481
3.20538
3.30599
2.37935
2.55353
1.81776
1.40486
2.37975
0.827224
0.671537
0.657359
1.14815
1.23846
0.8189
0.783852
0.886011
0.916143
0.866319
0.718026
2.49698
3.15565
1.79837
1.08131
2.13232
1.40205
2.1229
2.21777
0.496111
0.498924
0.443746
0.793899
0.842944
0.586051
0.712813
0.981801
1.03515
0.823025
0.695234
0.52288
2.7601
1.40017
1.06893
1.96522
1.60522
1.91117
2.00116
0.29243
0.382157
0.343636
0.528588
0.540893
0.552741
1.1531
1.98714
2.00776
1.5415
0.632116
0.578603
1.38757
1.6376
1.35091
0.926423
1.63834
1.80192
0.965616
0.201939
0.324917
0.342399
0.515563
0.452151
1.1339
1.7908
1.80871
1.79159
1.77268
1.33867
0.546663
0.595757
1.35866
1.52539
1.79361
1.77702
1.48289
-0.0649553
0.192137
0.301558
0.47178
0.439053
0.57298
1.3994
1.29159
0.801535
1.34738
1.50946
1.56932
0.826569
0.525657
0.738691
1.55367
1.99461
0.923512
-0.0267576
0.0419702
0.218675
0.394278
0.451975
0.411471
1.33881
0.812785
-9.93618e-05
-0.138837
-0.241496
1.1985
1.37776
0.898076
0.411111
0.650653
1.42512
0.243455
-0.0506722
0.0766821
0.211698
0.389489
0.414335
0.404517
0.732723
1.27196
0.0574061
-0.0821777
-0.231134
-0.339602
0.178924
1.27144
0.509126
0.309136
0.56098
1.88779
-0.0366172
0.0655984
0.267582
0.359512
0.387204
0.317007
0.385132
1.10408
0.204059
0.0390939
-0.118788
-0.254024
-0.350536
-0.406199
-0.130725
0.0794785
0.22629
0.566276
3.0795
0.039856
0.166753
0.33132
0.34517
0.198999
0.130508
0.246961
0.465427
0.104193
0.316475
0.00473123
-0.230945
-0.303831
-0.344949
-0.298825
-0.115708
0.158799
0.753177
3.0266
0.0608419
0.0983551
0.17377
0.137518
0.130144
0.126732
0.124896
0.0993765
0.135717
0.815923
0.528949
-0.179511
-0.225139
-0.242518
-0.212994
-0.108881
0.080127
1.69968
2.45242
0.0407447
0.016165
0.0658493
0.100108
0.115876
0.120798
0.121501
0.114568
0.223885
0.862486
0.720096
-0.110044
-0.129047
-0.133868
-0.13876
-0.132255
0.369493
2.08298
0.830353
-0.0115069
-0.0323698
0.0265838
0.0641363
0.0850032
0.0959761
0.101268
0.103188
0.20363
0.9
0.770441
-0.0311495
-0.0313414
-0.0274309
-0.0759045
-0.10345
1.48881
1.90509
0.744055
-0.195744
-0.115637
-0.0247141
0.0129139
0.0395944
0.0550437
0.0675122
0.0787683
0.0943869
0.552964
0.945256
0.280705
0.0613128
0.070776
-0.0143548
0.256346
1.39605
0.0040283
0.723715
-0.193656
0.642174
0.610587
-0.05666
-0.0197778
0.01163
0.0342084
0.0532718
0.0721006
0.379587
1.00166
1.01168
0.141146
0.151552
0.0597554
0.298741
1.38799
0.00624631
0.744459
0.0400398
0.860176
0.948822
0.00184917
-0.0764027
-0.0302802
0.00288308
0.0283279
0.0491813
0.0750008
0.96059
1.44716
0.879834
0.210074
0.137587
0.121602
0.917288
0.157972
0.595635
0.945144
0.584918
-0.326621
-0.181156
-0.0907926
-0.0616183
-0.0233886
0.0062071
0.0296995
0.0482383
0.203689
1.48194
1.73386
0.951974
0.196334
0.0583456
-0.0117353
-0.0571702
0.0176922
0.902976
0.983023
-0.266912
-0.250386
-0.124975
-0.0721151
-0.0422517
-0.0115094
0.0138503
0.0335404
0.0487822
0.16661
1.75118
1.94319
0.892536
0.138074
0.0677171
0.091883
1.00256
0.955289
0.819152
-0.283627
-0.255914
-0.158164
-0.0946688
-0.0525021
-0.0220674
0.00298539
0.0232922
0.0407051
0.0634763
0.094538
1.93828
2.45948
0.39203
0.116727
0.15934
2.26003
1.12215
0.0669262
-0.365707
-0.234856
-0.150284
-0.0959514
-0.0567777
-0.0274731
-0.00494387
0.0134502
0.0291921
0.10253
0.156292
0.154696
1.9632
1.15982
0.110276
0.161659
2.633
1.05488
-0.322687
-0.289901
-0.192871
-0.129363
-0.0868949
-0.0542628
-0.0298752
-0.0116368
0.00108397
0.0597405
1.30009
1.42727
0.196292
0.697509
4.49203
0.615317
0.143432
2.86618
0.0466337
-0.234669
-0.19462
-0.136414
-0.101401
-0.0703015
-0.0472356
-0.0292055
-0.0160676
-0.0110436
-0.0314985
1.71813
1.79567
0.530768
1.06124
4.58275
0.405232
0.135463
3.56114
-0.160316
-0.121018
-0.103372
-0.0860882
-0.0733753
-0.0537769
-0.0379181
-0.0257043
-0.0168277
-0.0172157
0.000528276
1.25705
1.8213
0.666187
0.786722
4.2962
0.274641
1.09183
3.9808
-0.0535024
-0.042874
-0.0431407
-0.0506439
-0.0474144
-0.0366607
-0.0268777
-0.0188222
-0.0125907
-0.0128703
-0.0246313
-0.024024
0.798714
0.907889
2.80706
4.85488
2.72539
3.378
3.4115
0.0145288
-0.000304564
-0.0162301
-0.028243
-0.0258428
-0.0207721
-0.0151341
-0.00958703
-0.00459893
-0.00165491
-0.00394823
-0.00166601
1.74304
0.93707
5.04465
4.95967
2.92205
0.922063
0.205761
0.0428189
0.0175642
-0.00423964
-0.00912879
-0.00949437
-0.00737073
-0.0040176
-0.000240517
0.00339127
0.00274109
-0.00582622
-0.00740338
2.0501
3.87764
5.13698
2.13271
0.168927
0.0467327
0.0391491
0.0459928
0.0182284
0.00778099
0.00298653
0.00156556
0.00268634
0.00521428
0.00787333
0.00974704
-0.000812033
0.0263474
0.672362
2.83667
3.91095
3.26671
0.00085599
0.0306273
0.0487208
0.0400965
0.0306686
0.019895
0.0128095
0.00881763
0.00766213
0.00886002
0.0114883
0.0144902
0.0147831
0.0594496
0.502317
0.520753
1.10666
2.50142
0.238511
0.215444
0.280258
0.0327483
0.0297644
0.0242952
0.0175085
0.012617
0.00990138
0.00939391
0.0109449
0.0137547
0.0183378
0.0156849
0.111123
0.356957
0.266611
-0.0239977
0.043716
0.17973
0.372234
0.285398
0.00705356
0.0108705
0.0159019
0.0119464
0.00905713
0.00746754
0.00727338
0.00844585
0.0102591
0.0114094
0.00377596
-0.0143277
-0.0289539
0.11419
-0.000949434
-0.0341839
0.135711
0.285011
-0.0646236
-0.0242678
-0.0123192
0.00533241
0.00421368
0.00348157
0.00317906
0.00330451
0.00372565
0.0034441
-0.0011419
-0.0110915
-0.0103097
0.00170405
-0.00180339
-0.0222865
-0.0244069
0.0727988
-0.0145272
-0.130353
-0.0497891
-0.0282325
)
;

boundaryField
{
    leftWall
    {
        type            fixedFluxPressure;
        gradient        uniform 0;
        value           nonuniform List<scalar> 
50
(
1012.39
1006.98
1003.59
1003.95
1005.04
1010.31
1046.2
1051.3
1060.44
1069.16
1069.92
1066.23
838.751
79.9165
1.51692
1.48552
1.41804
1.33657
1.29754
1.26601
2.62246
3.45169
2.57435
0.592064
0.554624
0.524338
0.515252
0.53009
0.555424
0.639423
0.973392
1.494
2.78668
3.62179
3.39982
1.06484
0.96067
1.57479
1.51236
0.677494
-0.0414517
-0.24441
-0.187545
-0.154042
-0.139514
-0.130147
-0.122387
-0.116021
-0.110693
-0.105739
)
;
    }
    rightWall
    {
        type            fixedFluxPressure;
        gradient        uniform 0;
        value           nonuniform List<scalar> 
50
(
710.106
703.074
702.231
703.077
704.848
715.478
746.985
751.908
760.284
773.223
585.754
4.08611
2.00109
1.8419
1.71983
1.70317
1.75286
1.77594
1.76076
2.37935
1.08131
1.06893
1.35091
1.52539
1.55367
1.42512
1.88779
3.0795
3.0266
2.45242
0.830353
0.744055
0.723715
0.744459
0.595635
0.0176922
1.00256
2.26003
2.633
2.86618
3.56114
3.9808
3.4115
0.205761
0.0391491
0.0400965
0.0297644
0.0108705
-0.0123192
-0.0282325
)
;
    }
    lowerWall
    {
        type            fixedFluxPressure;
        gradient        uniform 0;
        value           nonuniform List<scalar> 
62
(
1012.39
1010.62
1006.13
996.042
981.695
966.445
951.098
933.514
917.183
903.644
886.884
866.086
845.879
829.073
813.426
797.861
783.377
773.18
767.2
763.192
759.003
751.919
751.723
751.723
750.818
749.989
749.76
748.787
745.58
737.91
724.21
641.154
637.192
637.191
623.668
571.33
569.857
568.085
566.954
575.724
569.8
569.714
565.23
571.33
568.669
576.641
569.915
558.776
582.639
600.705
607.575
616.827
628.222
632.56
632.224
643.665
665.655
681.503
689.369
694.022
699.761
710.106
)
;
    }
    atmosphere
    {
        type            totalPressure;
        rho             rho;
        psi             none;
        gamma           1;
        p0              uniform 0;
        value           nonuniform List<scalar> 
46
(
-0.103212
-0.105333
-0.10234
-0.0977159
-0.0903521
-0.0743097
-0.0751941
-0.0665433
-0.0561219
-0.0454749
-0.0348724
-0.0248476
-0.0157296
-0.0080134
-0.00240411
-7.07149e-06
0
0
0
0
0
0
0
0
0
0
0
0
0
0
0
0
0
0
0
-0.000137857
-0.00939824
-0.00276492
0
0
0
0
0
-0.127851
-0.0507662
-0.0288422
)
;
    }
    defaultFaces
    {
        type            empty;
    }
}


// ************************************************************************* //
