/*--------------------------------*- C++ -*----------------------------------*\
| =========                 |                                                 |
| \\      /  F ield         | OpenFOAM: The Open Source CFD Toolbox           |
|  \\    /   O peration     | Version:  2.3.0                                 |
|   \\  /    A nd           | Web:      www.OpenFOAM.org                      |
|    \\/     M anipulation  |                                                 |
\*---------------------------------------------------------------------------*/
FoamFile
{
    version     2.0;
    format      ascii;
    class       surfaceScalarField;
    location    "2.65";
    object      phi;
}
// * * * * * * * * * * * * * * * * * * * * * * * * * * * * * * * * * * * * * //

dimensions      [0 3 -1 0 0 0 0];

internalField   nonuniform List<scalar> 
4432
(
4.84242e-06
-4.84242e-06
7.07245e-06
-2.23003e-06
9.11626e-06
-2.04382e-06
1.18436e-05
-2.72734e-06
1.36443e-05
-1.80072e-06
1.17544e-05
1.88987e-06
6.51564e-06
5.2388e-06
3.42408e-06
3.09156e-06
5.84886e-06
-2.42478e-06
1.08117e-05
-4.96283e-06
1.53113e-05
-4.49965e-06
1.81189e-05
-2.80756e-06
1.92288e-05
-1.1099e-06
1.84563e-05
7.7246e-07
1.5532e-05
2.9243e-06
1.19693e-05
3.56275e-06
9.80066e-06
2.16862e-06
9.04099e-06
7.59673e-07
7.72982e-06
1.31117e-06
4.53056e-06
3.19926e-06
3.41494e-08
4.49641e-06
-2.32389e-06
2.35804e-06
-2.32389e-06
2.68361e-06
-7.52603e-06
2.70133e-06
-2.24776e-06
2.75832e-06
-2.10081e-06
4.13253e-06
-4.10156e-06
5.33531e-06
-3.00351e-06
4.77627e-06
2.44893e-06
3.37876e-06
6.6363e-06
5.29112e-06
1.17921e-06
1.02018e-05
-7.33545e-06
1.57783e-05
-1.05393e-05
1.96396e-05
-8.36092e-06
2.0838e-05
-4.00597e-06
2.02313e-05
-5.03281e-07
1.88558e-05
2.14796e-06
1.67217e-05
5.05845e-06
1.43575e-05
5.92688e-06
1.29927e-05
3.53346e-06
1.22946e-05
1.45782e-06
1.07202e-05
2.88552e-06
7.22342e-06
6.69605e-06
2.41834e-06
9.30149e-06
-4.86145e-07
5.26253e-06
-2.81003e-06
1.51168e-06
-9.03771e-06
2.50073e-07
-9.86155e-07
-3.81471e-07
-1.46927e-06
2.72411e-07
-4.75544e-06
5.95414e-07
-3.32652e-06
1.65207e-06
1.39227e-06
4.88915e-06
3.39922e-06
9.45706e-06
-3.38871e-06
1.48788e-05
-1.27572e-05
2.12101e-05
-1.68707e-05
2.52277e-05
-1.23785e-05
2.55566e-05
-4.33486e-06
2.35988e-05
1.45453e-06
2.09056e-05
4.84115e-06
1.84869e-05
7.47715e-06
1.72443e-05
7.16955e-06
1.70292e-05
3.74848e-06
1.66745e-05
1.81259e-06
1.47335e-05
4.82645e-06
1.08966e-05
1.0533e-05
6.28004e-06
1.3918e-05
2.30696e-06
9.23562e-06
-5.03079e-07
1.8444e-06
-1.08821e-05
9.57778e-07
-9.9535e-08
6.16584e-07
-1.12807e-06
2.0473e-06
-6.18615e-06
3.24831e-06
-4.52753e-06
5.65655e-06
-1.01596e-06
9.54334e-06
-4.87567e-07
1.34817e-05
-7.32708e-06
1.86992e-05
-1.79747e-05
2.43372e-05
-2.25087e-05
2.80341e-05
-1.60754e-05
2.83735e-05
-4.6742e-06
2.63444e-05
3.48366e-06
2.37531e-05
7.43237e-06
2.17957e-05
9.43463e-06
2.09917e-05
7.97353e-06
2.08289e-05
3.91126e-06
2.02564e-05
2.38503e-06
1.83902e-05
6.69266e-06
1.49306e-05
1.39927e-05
1.03983e-05
1.84503e-05
5.18175e-06
1.44522e-05
4.67867e-06
2.65052e-06
-1.35326e-05
4.26182e-06
-1.71083e-06
4.43978e-06
-1.30602e-06
6.08126e-06
-7.82763e-06
8.58407e-06
-7.03034e-06
1.14985e-05
-3.93037e-06
1.46919e-05
-3.68094e-06
1.82781e-05
-1.09133e-05
2.26094e-05
-2.2306e-05
2.61645e-05
-2.60638e-05
2.80735e-05
-1.79845e-05
2.81042e-05
-4.70489e-06
2.66794e-05
4.9085e-06
2.48762e-05
9.23556e-06
2.38187e-05
1.0492e-05
2.35112e-05
8.28107e-06
2.34065e-05
4.01597e-06
2.26022e-05
3.18934e-06
2.06988e-05
8.59602e-06
1.77961e-05
1.68954e-05
1.36624e-05
2.25839e-05
7.69442e-06
2.04202e-05
1.23731e-05
2.68123e-06
-1.62139e-05
7.20964e-06
-6.23923e-06
9.83411e-06
-3.93049e-06
1.1155e-05
-9.14848e-06
1.34957e-05
-9.37107e-06
1.61827e-05
-6.61733e-06
1.92336e-05
-6.73189e-06
2.31302e-05
-1.48098e-05
2.63322e-05
-2.5508e-05
2.73371e-05
-2.70686e-05
2.65483e-05
-1.71958e-05
2.53823e-05
-3.53885e-06
2.42209e-05
6.0699e-06
2.32667e-05
1.01897e-05
2.30625e-05
1.06963e-05
2.34323e-05
7.91131e-06
2.37864e-05
3.66183e-06
2.31661e-05
3.80959e-06
2.13537e-05
1.04084e-05
1.90149e-05
1.92342e-05
1.56193e-05
2.59796e-05
9.63582e-06
2.64036e-05
2.20089e-05
1.19372e-06
-1.74076e-05
7.15853e-06
-1.2204e-05
1.29344e-05
-9.70637e-06
1.58651e-05
-1.20791e-05
1.82779e-05
-1.17839e-05
2.0811e-05
-9.15036e-06
2.41103e-05
-1.00312e-05
2.75368e-05
-1.82363e-05
2.87346e-05
-2.67058e-05
2.70127e-05
-2.53468e-05
2.40203e-05
-1.42033e-05
2.16432e-05
-1.1618e-06
2.02568e-05
7.45632e-06
1.96093e-05
1.08372e-05
1.99973e-05
1.03083e-05
2.10127e-05
6.89591e-06
2.14804e-05
3.19415e-06
2.07476e-05
4.54236e-06
1.9457e-05
1.1699e-05
1.82228e-05
2.04685e-05
1.61214e-05
2.8081e-05
1.12285e-05
3.12965e-05
3.32374e-05
6.83138e-07
-1.80907e-05
6.70474e-06
-1.82256e-05
1.34793e-05
-1.64809e-05
1.86144e-05
-1.72142e-05
2.25646e-05
-1.57342e-05
2.58901e-05
-1.24758e-05
2.89529e-05
-1.3094e-05
3.0706e-05
-1.99893e-05
2.92766e-05
-2.52765e-05
2.49101e-05
-2.09803e-05
2.01938e-05
-9.48694e-06
1.68621e-05
2.16983e-06
1.51987e-05
9.11979e-06
1.49213e-05
1.11146e-05
1.59251e-05
9.30448e-06
1.65547e-05
6.26635e-06
1.54832e-05
4.26559e-06
1.4084e-05
5.94162e-06
1.38113e-05
1.19717e-05
1.45521e-05
1.97277e-05
1.48113e-05
2.78217e-05
1.19205e-05
3.41874e-05
4.51579e-05
6.39059e-06
-6.39059e-06
6.89173e-06
-5.01137e-07
-4.38467e-07
7.3302e-06
-1.16276e-05
1.11891e-05
-1.63181e-05
4.69054e-06
-8.51305e-06
-7.80508e-06
-7.4873e-07
-7.76432e-06
3.93387e-06
-4.6826e-06
7.53074e-06
-3.59688e-06
1.33664e-05
-5.83567e-06
1.94622e-05
-6.09579e-06
2.02813e-05
-8.19084e-07
1.26946e-05
7.58665e-06
8.54844e-07
1.18398e-05
-7.09886e-06
7.95371e-06
-1.02698e-05
3.17091e-06
-1.20912e-05
1.82141e-06
-8.89103e-06
-3.20015e-06
-8.89103e-06
4.11125e-06
-1.05018e-05
6.01337e-06
-2.40326e-06
-2.05471e-06
1.53983e-05
-1.12371e-05
2.03716e-05
-8.97364e-06
2.42705e-06
1.83353e-07
-1.69621e-05
5.57265e-06
-1.31536e-05
7.64867e-06
-6.75861e-06
8.78676e-06
-4.73498e-06
1.2607e-05
-9.65588e-06
1.73421e-05
-1.08309e-05
2.0178e-05
-3.65499e-06
1.97663e-05
7.99836e-06
1.27453e-05
1.88607e-05
2.23672e-06
1.84623e-05
-5.58572e-06
1.09933e-05
-8.69743e-06
4.93313e-06
-5.92299e-06
-5.97459e-06
-1.4814e-05
1.21601e-06
-1.17178e-05
3.77639e-06
-4.96365e-06
-1.51134e-06
2.0686e-05
-4.55679e-06
2.3417e-05
1.32803e-06
-3.45777e-06
6.45683e-06
-2.20909e-05
9.74026e-06
-1.6437e-05
9.03214e-06
-6.05049e-06
7.28643e-06
-2.98928e-06
8.68748e-06
-1.10569e-05
1.25198e-05
-1.46632e-05
1.47595e-05
-5.89469e-06
1.66935e-05
6.0644e-06
1.62586e-05
1.92956e-05
1.03918e-05
2.43291e-05
3.04271e-06
1.83425e-05
-2.04071e-06
1.00166e-05
-1.86723e-06
-6.14807e-06
-1.66813e-05
-1.27395e-06
-1.04439e-05
1.47401e-06
-7.7116e-06
-4.5657e-07
2.26166e-05
9.62422e-07
2.1998e-05
7.1712e-06
-9.66655e-06
9.68176e-06
-2.46014e-05
9.65934e-06
-1.64146e-05
6.83999e-06
-3.23114e-06
3.68811e-06
1.62596e-07
3.24381e-06
-1.06126e-05
5.96135e-06
-1.73808e-05
7.8164e-06
-7.74974e-06
9.96534e-06
3.91546e-06
1.2755e-05
1.65059e-05
1.19756e-05
2.51085e-05
7.45139e-06
2.28667e-05
3.02416e-06
1.44438e-05
9.47829e-07
-4.07173e-06
-1.57334e-05
-2.38099e-06
-8.06291e-06
4.30352e-07
-1.05229e-05
2.50578e-06
2.05411e-05
7.03245e-06
1.74714e-05
1.05369e-05
-1.3171e-05
9.60753e-06
-2.3672e-05
6.62572e-06
-1.34328e-05
3.08586e-06
3.08739e-07
4.30901e-07
2.81754e-06
-1.91889e-06
-8.26279e-06
-1.42518e-06
-1.78745e-05
8.68427e-07
-1.00433e-05
2.71778e-06
2.0661e-06
6.13748e-06
1.30862e-05
8.50857e-06
2.27374e-05
7.16942e-06
2.42058e-05
4.06268e-06
1.75505e-05
1.65168e-06
-1.66073e-06
-1.40818e-05
-6.23477e-07
-7.43943e-06
9.39637e-07
-1.20861e-05
7.40077e-06
1.408e-05
1.4097e-05
1.07751e-05
1.33075e-05
-1.23815e-05
7.70704e-06
-1.80716e-05
2.70063e-06
-8.42642e-06
3.4005e-07
2.66933e-06
-1.66807e-06
4.82565e-06
-5.52198e-06
-4.40888e-06
-8.04526e-06
-1.53512e-05
-6.81076e-06
-1.12778e-05
-4.51094e-06
-2.33718e-07
-9.24933e-07
9.50021e-06
2.9302e-06
1.88823e-05
3.56501e-06
2.3571e-05
1.86928e-06
1.92463e-05
1.32758e-06
-1.11902e-06
-1.27542e-05
4.01969e-06
-1.14591e-05
4.60966e-06
-1.2676e-05
1.19782e-05
6.71147e-06
1.85733e-05
4.17998e-06
1.45579e-05
-8.36608e-06
5.60897e-06
-9.12264e-06
-1.52284e-07
-2.66517e-06
-4.11968e-07
2.92901e-06
-2.20835e-06
6.62204e-06
-7.88736e-06
1.27014e-06
-1.35287e-05
-9.7099e-06
-1.39812e-05
-1.08254e-05
-1.13598e-05
-2.85508e-06
-7.89613e-06
6.03653e-06
-3.9624e-06
1.49486e-05
-2.54225e-06
2.21509e-05
-1.00884e-06
1.77128e-05
1.55245e-06
-3.68031e-06
-1.12017e-05
1.14513e-05
-2.29104e-05
1.30223e-05
-1.42471e-05
1.86174e-05
1.11642e-06
2.24094e-05
3.8792e-07
1.64264e-05
-2.38309e-06
6.22121e-06
1.0826e-06
-8.02095e-07
4.35813e-06
-1.76197e-06
3.88889e-06
-2.53382e-06
7.39388e-06
-8.84009e-06
7.57642e-06
-1.69341e-05
-1.61591e-06
-2.0077e-05
-7.68246e-06
-1.88148e-05
-4.11723e-06
-1.57669e-05
2.98857e-06
-1.26292e-05
1.18109e-05
-8.83319e-06
1.83548e-05
-1.88403e-06
1.07637e-05
2.20008e-06
-7.76442e-06
-9.00165e-06
9.60945e-06
-2.77002e-05
2.65696e-05
-3.51858e-05
4.02705e-05
-3.01818e-05
4.91768e-05
-2.61206e-05
5.60627e-05
-2.26201e-05
6.1715e-05
-1.81281e-05
6.5073e-05
-1.64521e-05
6.36015e-05
-1.85178e-05
5.48601e-05
-1.65351e-05
4.06976e-05
-6.81779e-06
2.73393e-05
3.87138e-06
1.7887e-05
1.16221e-05
1.26386e-05
1.43682e-05
1.07443e-05
1.30089e-05
1.01207e-05
9.92812e-06
7.56855e-06
8.81846e-06
3.68544e-06
8.1487e-06
1.1722e-06
8.45486e-06
1.72167e-06
1.14222e-05
6.40215e-06
1.50472e-05
1.5469e-05
1.87549e-05
2.7338e-05
2.23184e-05
2.41816e-05
4.83144e-05
1.98211e-05
-4.75213e-05
3.9924e-05
-5.52887e-05
5.21303e-05
-4.23881e-05
5.64453e-05
-3.04356e-05
5.66346e-05
-2.28093e-05
5.50204e-05
-1.65139e-05
5.17008e-05
-1.31324e-05
4.48831e-05
-1.17001e-05
3.34604e-05
-5.11247e-06
1.94995e-05
7.14311e-06
4.76741e-06
1.86035e-05
-8.13908e-06
2.45286e-05
-1.92922e-05
2.55213e-05
-2.7191e-05
2.09077e-05
-3.18249e-05
1.45621e-05
-3.40617e-05
1.10552e-05
-3.41794e-05
8.26638e-06
-3.27794e-05
7.05485e-06
-3.20763e-05
1.07191e-05
-2.64245e-05
9.39534e-06
-1.42571e-05
6.58749e-06
3.2203e-06
4.84101e-06
3.80717e-06
2.35947e-05
1.78078e-05
-6.5329e-05
3.07405e-05
-6.82214e-05
3.88453e-05
-5.04929e-05
3.99197e-05
-3.151e-05
3.58818e-05
-1.87715e-05
2.81878e-05
-8.81995e-06
1.8135e-05
-3.07966e-06
8.91197e-06
-2.47702e-06
1.76222e-06
2.03726e-06
-3.1056e-06
1.20109e-05
-9.61718e-06
2.51151e-05
-1.93259e-05
3.42373e-05
-2.98017e-05
3.59971e-05
-3.31509e-05
2.42568e-05
-2.658e-05
7.99126e-06
-1.71301e-05
1.60526e-06
-1.02538e-05
1.39015e-06
-1.36911e-05
1.04921e-05
-2.27529e-05
1.97809e-05
-2.99334e-05
1.65759e-05
-2.47129e-05
1.36701e-06
-3.42717e-06
-1.64448e-05
-2.39436e-05
2.43236e-05
1.00056e-05
-7.53346e-05
2.00486e-05
-7.82644e-05
2.89252e-05
-5.93695e-05
2.96246e-05
-3.22094e-05
1.8772e-05
-7.91888e-06
6.21349e-06
3.73861e-06
-1.78855e-06
4.92238e-06
-2.8208e-07
-3.98349e-06
5.8545e-06
-4.09931e-06
1.62136e-05
1.65178e-06
3.18546e-05
9.47413e-06
5.47668e-05
1.13251e-05
8.25169e-05
8.24701e-06
6.79163e-05
3.88574e-05
2.00179e-05
5.58897e-05
-2.33687e-05
4.4992e-05
-3.20048e-05
1.00262e-05
-5.50286e-05
3.35158e-05
-5.39286e-05
1.8681e-05
-4.89285e-05
1.15759e-05
-5.38131e-05
6.2516e-06
-5.87679e-05
-1.14899e-05
-1.78624e-05
-6.4849e-05
1.18269e-05
-8.71614e-05
3.2343e-05
-9.87806e-05
5.46068e-05
-8.16333e-05
7.82945e-05
-5.58971e-05
9.54934e-05
-2.51178e-05
0.000103468
-4.23638e-06
9.10018e-05
1.73891e-05
6.40789e-05
2.29395e-05
4.76228e-05
1.23568e-05
6.13415e-05
-1.2067e-05
9.5764e-05
-2.49484e-05
0.000115019
-7.92989e-06
8.42799e-05
3.8986e-05
3.74599e-05
8.56774e-05
-1.33994e-05
0.000106749
-5.63706e-05
8.79631e-05
-9.77033e-05
5.13589e-05
-8.48859e-05
2.06985e-05
-6.44505e-05
-1.75438e-06
-4.95523e-05
-3.32222e-06
-3.60308e-05
-7.26999e-06
-2.14808e-05
-2.604e-05
-3.69879e-05
-2.3552e-06
1.93717e-05
-0.000106533
2.85901e-05
-0.000107999
3.80672e-05
-9.11106e-05
6.58179e-05
-8.36478e-05
0.000117888
-7.71876e-05
0.000156332
-4.26811e-05
0.000182109
-8.38768e-06
0.000207717
-2.66862e-06
0.000219144
9.29778e-07
0.000185515
2.15626e-05
0.000119545
4.10215e-05
3.39631e-05
7.76518e-05
-1.40278e-05
8.69769e-05
-3.37582e-05
0.000105408
-5.29998e-05
0.00012599
-7.32802e-05
0.000108243
-8.89395e-05
6.70182e-05
-9.17105e-05
2.34696e-05
-9.72474e-05
3.78253e-06
-8.85338e-05
-1.20358e-05
-6.00908e-05
-3.57129e-05
-2.67293e-05
-5.94014e-05
-7.32409e-05
9.52377e-06
-4.1954e-06
-0.000102338
-1.48763e-05
-9.73184e-05
-6.79658e-06
-9.91907e-05
6.72173e-06
-9.71661e-05
2.0926e-05
-9.13916e-05
5.25619e-05
-7.43172e-05
9.0201e-05
-4.60267e-05
0.000111963
-2.44312e-05
0.000112092
8.01067e-07
7.20913e-05
6.15632e-05
2.14292e-06
0.00011097
-4.78589e-05
0.000127654
-6.45978e-05
0.000103716
-6.98779e-05
0.000110688
-6.85025e-05
0.000124615
-7.37032e-05
0.000113444
-8.86492e-05
8.19643e-05
-0.000109449
4.42697e-05
-0.000114831
9.16494e-06
-9.74785e-05
-2.93885e-05
-6.78392e-05
-6.53521e-05
-3.29308e-05
-9.43096e-05
-0.000110921
4.74996e-06
-2.73676e-05
-7.497e-05
-3.62932e-05
-8.83927e-05
-2.66974e-05
-0.000108787
-1.3227e-05
-0.000110636
2.14155e-06
-0.000106761
2.02174e-05
-9.23929e-05
3.75497e-05
-6.33586e-05
3.2035e-05
-1.89168e-05
1.55701e-06
3.12792e-05
-3.56243e-05
9.87445e-05
-6.90637e-05
0.000144409
-8.05545e-05
0.000139144
-8.47904e-05
0.000107952
-8.36681e-05
0.000109566
-7.95301e-05
0.000120477
-8.56096e-05
0.000119524
-9.83291e-05
9.46839e-05
-0.000106548
5.24891e-05
-9.8509e-05
1.12561e-06
-8.0393e-05
-4.75044e-05
-5.56922e-05
-9.00529e-05
-2.39088e-05
-0.000126093
-0.000146708
1.18776e-05
-2.64485e-05
-4.85215e-05
-3.28262e-05
-8.20152e-05
-3.08973e-05
-0.000110716
-2.54567e-05
-0.000116077
-2.04597e-05
-0.000111758
-1.80272e-05
-9.48254e-05
-2.40339e-05
-5.7352e-05
-3.94452e-05
-3.50571e-06
-6.11112e-05
5.29452e-05
-7.51777e-05
0.000112811
-7.66054e-05
0.000145837
-7.40987e-05
0.000136638
-8.10269e-05
0.00011488
-8.50878e-05
0.000113627
-8.54121e-05
0.000120801
-8.33522e-05
0.000117464
-7.89714e-05
9.03033e-05
-6.97263e-05
4.3244e-05
-5.8243e-05
-1.03576e-05
-4.19006e-05
-6.38467e-05
-2.02225e-05
-0.000111731
7.22427e-06
-0.000153539
-0.000177423
3.79401e-05
-7.4551e-06
-4.10664e-05
-1.25952e-05
-7.68748e-05
-1.29474e-05
-0.000110364
-1.34822e-05
-0.000115542
-1.92142e-05
-0.000106026
-2.76023e-05
-8.64371e-05
-4.20539e-05
-4.29004e-05
-5.39688e-05
8.40922e-06
-6.25038e-05
6.14804e-05
-5.96368e-05
0.000109944
-4.93927e-05
0.000135593
-4.63376e-05
0.000133583
-5.53881e-05
0.00012393
-6.24176e-05
0.000120656
-5.96831e-05
0.000118067
-4.79519e-05
0.000105733
-3.12245e-05
7.35761e-05
-1.49595e-05
2.6979e-05
2.80781e-07
-2.55978e-05
1.58059e-05
-7.93717e-05
3.44489e-05
-0.000130374
5.64713e-05
-0.000175562
-0.000201038
8.00867e-05
1.83968e-06
-4.29061e-05
1.28697e-05
-8.79047e-05
2.12061e-05
-0.0001187
2.23807e-05
-0.000116717
1.58823e-05
-9.95273e-05
3.63134e-06
-7.41859e-05
-1.03518e-05
-2.89173e-05
-2.23441e-05
2.04014e-05
-2.60551e-05
6.51915e-05
-1.87595e-05
0.000102648
-8.33988e-06
0.000125173
-5.60034e-06
0.000130843
-1.01516e-05
0.000128482
-1.15215e-05
0.000122026
-3.48219e-06
0.000110028
1.40816e-05
8.8169e-05
3.40912e-05
5.35665e-05
5.14718e-05
9.5984e-06
6.68363e-05
-4.09623e-05
8.21823e-05
-9.47176e-05
9.78913e-05
-0.000146083
0.000114122
-0.000191792
-0.000216548
0.000129632
3.8047e-06
-4.67107e-05
3.0832e-05
-0.000114932
5.09754e-05
-0.000138844
5.95829e-05
-0.000125324
5.67698e-05
-9.67143e-05
4.69612e-05
-6.43774e-05
4.08163e-05
-2.27726e-05
3.3523e-05
2.76949e-05
2.99154e-05
6.87992e-05
3.38497e-05
9.87135e-05
4.12152e-05
0.000117807
4.6373e-05
0.000125685
5.01495e-05
0.000124705
5.70181e-05
0.000115157
6.9865e-05
9.71807e-05
8.75267e-05
7.05073e-05
0.000105615
3.54786e-05
0.000121766
-6.55305e-06
0.000136067
-5.52636e-05
0.000148839
-0.000107489
0.000159851
-0.000157095
0.00016935
-0.000201292
-0.000223324
0.000176127
1.78362e-05
-6.45473e-05
5.26303e-05
-0.000149726
7.50825e-05
-0.000161296
8.31094e-05
-0.000133351
8.32428e-05
-9.68479e-05
7.95214e-05
-6.0656e-05
7.97774e-05
-2.30284e-05
8.47134e-05
2.27591e-05
8.82683e-05
6.52442e-05
9.23802e-05
9.46014e-05
9.78023e-05
0.000112385
0.000105208
0.000118279
0.000115615
0.000114298
0.000129249
0.000101524
0.000145536
8.08937e-05
0.000162757
5.32862e-05
0.000178514
1.97221e-05
0.000192115
-2.01544e-05
0.000202641
-6.579e-05
0.000208849
-0.000113697
0.00021097
-0.000159215
0.000210534
-0.000200856
-0.000219437
0.000206646
3.36882e-05
-9.82353e-05
6.2941e-05
-0.000178979
7.40523e-05
-0.000172407
7.56604e-05
-0.000134959
7.72499e-05
-9.84375e-05
8.26729e-05
-6.60788e-05
9.26909e-05
-3.30462e-05
0.000109005
6.44474e-06
0.000127882
4.63674e-05
0.000142886
7.95973e-05
0.000153096
0.000102175
0.000163554
0.000107821
0.000177807
0.000100045
0.00019579
8.35403e-05
0.000215241
6.14429e-05
0.000233393
3.51343e-05
0.000247195
5.92023e-06
0.000256488
-2.94478e-05
0.000258806
-6.81078e-05
0.000252696
-0.000107587
0.000240431
-0.00014695
0.000225315
-0.00018574
-0.000200873
0.000206751
3.56655e-05
-0.000133901
4.45998e-05
-0.000187914
3.95526e-05
-0.00016736
3.92157e-05
-0.000134623
4.93367e-05
-0.000108558
6.36334e-05
-8.03753e-05
8.20396e-05
-5.14524e-05
0.000105277
-1.6793e-05
0.000130458
2.11864e-05
0.000154167
5.58883e-05
0.000176625
7.97174e-05
0.000197651
8.67948e-05
0.000220168
7.75283e-05
0.000244153
5.95549e-05
0.0002669
3.86965e-05
0.000285746
1.62882e-05
0.000297826
-6.15991e-06
0.000299306
-3.09277e-05
0.000288897
-5.76991e-05
0.000266744
-8.54339e-05
0.00023841
-0.000118616
0.000208243
-0.000155573
-0.000165153
0.000172524
2.33886e-05
-0.000157289
1.79478e-05
-0.000182473
1.21293e-05
-0.000161542
1.81458e-05
-0.000140639
3.70189e-05
-0.000127431
5.70323e-05
-0.000100389
8.00041e-05
-7.44243e-05
0.000102645
-3.94337e-05
0.000119475
4.35641e-06
0.00013646
3.89031e-05
0.000156761
5.94164e-05
0.000182298
6.12579e-05
0.000210723
4.91031e-05
0.000238229
3.20488e-05
0.000262893
1.40327e-05
0.000281179
-1.99801e-06
0.000289632
-1.46127e-05
0.000286292
-2.75879e-05
0.000269174
-4.05814e-05
0.000239208
-5.54677e-05
0.000202528
-8.19354e-05
0.000165177
-0.000118222
-0.000118146
0.000118169
1.02671e-05
-0.000167557
3.78177e-06
-0.000175987
6.01105e-06
-0.000163771
1.86015e-05
-0.00015323
3.93112e-05
-0.000148141
6.15315e-05
-0.000122609
8.23006e-05
-9.51934e-05
9.78924e-05
-5.50255e-05
0.000106952
-4.70278e-06
0.000113845
3.201e-05
0.000125191
4.80703e-05
0.000142132
4.43164e-05
0.000159327
3.19087e-05
0.000176824
1.45512e-05
0.000196975
-6.11782e-06
0.000216214
-2.12369e-05
0.000227835
-2.62337e-05
0.000227463
-2.72161e-05
0.00021313
-2.62487e-05
0.000185622
-2.79595e-05
0.000152192
-4.85053e-05
0.000117531
-8.35606e-05
-7.27526e-05
7.2138e-05
-1.07494e-06
-0.000166482
-4.64604e-06
-0.000172417
-1.32164e-06
-0.000167096
7.08151e-06
-0.000161633
1.87147e-05
-0.000159774
3.38343e-05
-0.000137729
4.67993e-05
-0.000108158
6.06707e-05
-6.88969e-05
7.37567e-05
-1.77889e-05
8.75228e-05
1.82438e-05
0.000103707
3.18859e-05
0.000122974
2.50494e-05
0.000145882
9.00101e-06
0.000167936
-7.50294e-06
0.000186336
-2.45182e-05
0.000196317
-3.12172e-05
0.00019798
-2.7897e-05
0.000190081
-1.93176e-05
0.000168746
-4.91364e-06
0.000136225
4.56234e-06
0.000106732
-1.9013e-05
7.26388e-05
-4.94669e-05
-2.96551e-05
2.95413e-05
-9.61627e-06
-0.000156865
-1.71416e-05
-0.000164891
-2.2953e-05
-0.000161284
-2.83946e-05
-0.000156191
-3.63899e-05
-0.000151779
-3.69034e-05
-0.000137215
-3.1377e-05
-0.000113685
-2.13024e-05
-7.89715e-05
-5.50054e-06
-3.35909e-05
1.58298e-05
-3.0867e-06
4.78227e-05
-1.07113e-07
8.26656e-05
-9.79341e-06
0.000116689
-2.50226e-05
0.000144393
-3.5207e-05
0.000159123
-3.92483e-05
0.000161728
-3.38224e-05
0.000155078
-2.12472e-05
0.000137419
-1.65781e-06
0.000106933
2.55718e-05
7.78648e-05
3.36308e-05
5.61298e-05
2.72188e-06
1.85801e-05
-1.19174e-05
1.94813e-05
-3.05564e-05
-1.77251e-05
-0.00013914
-3.1702e-05
-0.000150914
-4.97696e-05
-0.000143217
-7.72056e-05
-0.000128755
-0.000107641
-0.000121343
-0.000122908
-0.000121948
-0.000123403
-0.000113191
-0.000116009
-8.63649e-05
-9.53766e-05
-5.42235e-05
-6.05451e-05
-3.79181e-05
-2.32213e-05
-3.74309e-05
8.1727e-06
-4.11874e-05
3.4554e-05
-5.1404e-05
5.69071e-05
-5.75601e-05
7.1992e-05
-5.43333e-05
8.17892e-05
-4.36195e-05
7.7561e-05
-1.7019e-05
5.92936e-05
1.66096e-05
4.14239e-05
4.34416e-05
2.96598e-05
4.53949e-05
4.4361e-06
2.79456e-05
-4.17072e-05
3.42259e-05
7.23012e-05
-9.45271e-05
-2.38815e-05
-0.000115259
-4.12034e-05
-0.000133593
-6.56096e-05
-0.00011881
-0.000105082
-8.92831e-05
-0.00014551
-8.09147e-05
-0.000173305
-9.41529e-05
-0.00018372
-0.000102776
-0.000178674
-9.14117e-05
-0.000162995
-6.99019e-05
-0.000144173
-5.67403e-05
-0.000125155
-5.64491e-05
-9.80675e-05
-6.82746e-05
-6.26227e-05
-8.68489e-05
-2.71803e-05
-9.30026e-05
-3.80227e-06
-7.77113e-05
1.52904e-05
-6.27123e-05
2.10184e-05
-2.2747e-05
1.72767e-05
2.03511e-05
1.02693e-05
5.04489e-05
-5.68113e-06
6.13452e-05
-4.30526e-05
6.5317e-05
-9.23806e-05
8.35539e-05
0.000115383
-0.000135463
-2.72402e-05
-8.80188e-05
-4.13639e-05
-0.000119469
-5.75764e-05
-0.000102598
-9.09655e-05
-5.58939e-05
-0.000129646
-4.22343e-05
-0.000163746
-6.00528e-05
-0.00018636
-8.01614e-05
-0.00019664
-8.11321e-05
-0.000195351
-7.1191e-05
-0.00017981
-7.22809e-05
-0.00015151
-8.47493e-05
-0.000113854
-0.00010593
-7.07982e-05
-0.000129905
-3.28851e-05
-0.000130916
-1.25702e-05
-9.80261e-05
5.22436e-06
-8.05069e-05
1.92292e-05
-3.67518e-05
1.07675e-05
2.88128e-05
-3.88389e-06
6.51002e-05
-3.29108e-05
9.0372e-05
-7.63867e-05
0.000108793
-0.000120813
0.00012798
0.000145505
-0.000150934
-2.66643e-05
-6.13544e-05
-3.70481e-05
-0.000109085
-3.44936e-05
-0.000105152
-4.16232e-05
-4.87642e-05
-6.64865e-05
-1.73709e-05
-9.3025e-05
-3.35143e-05
-0.000116061
-5.71258e-05
-0.000127349
-6.9844e-05
-0.00012673
-7.18097e-05
-0.000116514
-8.24974e-05
-9.88374e-05
-0.000102426
-7.57677e-05
-0.000129
-4.66324e-05
-0.00015904
-1.66705e-05
-0.000160878
-2.21889e-06
-0.000112478
-4.72183e-07
-8.22536e-05
1.35327e-05
-5.07567e-05
7.81323e-06
3.45321e-05
-1.54675e-05
8.83808e-05
-4.88346e-05
0.000123739
-9.03875e-05
0.000150346
-0.000125794
0.000163387
0.000163171
-0.00014346
-2.03444e-05
-4.10098e-05
-2.90514e-05
-0.000100377
-1.74632e-05
-0.00011674
3.21236e-06
-6.94399e-05
-5.05898e-06
-9.09969e-06
-2.37539e-05
-1.48194e-05
-3.57217e-05
-4.51579e-05
-4.51151e-05
-6.04506e-05
-4.76413e-05
-6.92835e-05
-4.39782e-05
-8.61606e-05
-3.65523e-05
-0.000109852
-2.84919e-05
-0.00013706
-1.48089e-05
-0.000172723
3.79861e-06
-0.000179485
1.8844e-05
-0.000127523
7.51445e-06
-7.09242e-05
7.193e-06
-5.04354e-05
7.11985e-06
3.46052e-05
-1.85958e-05
0.000114096
-5.2856e-05
0.000157999
-8.94646e-05
0.000186954
-0.000116416
0.000190339
0.000174257
-0.000127502
-1.00189e-05
-3.09909e-05
-1.36564e-05
-9.674e-05
-4.39608e-06
-0.000126001
3.00175e-05
-0.000103854
6.84754e-05
-4.75576e-05
7.48115e-05
-2.11553e-05
6.37671e-05
-3.41134e-05
5.87583e-05
-5.54417e-05
5.57882e-05
-6.63134e-05
4.76702e-05
-7.80426e-05
3.66679e-05
-9.88494e-05
2.59369e-05
-0.000126329
2.19937e-05
-0.00016878
2.25693e-05
-0.000180061
3.10696e-05
-0.000136024
2.18632e-05
-6.17179e-05
7.96457e-06
-3.65368e-05
9.99579e-06
3.25739e-05
-1.24233e-05
0.000136515
-4.596e-05
0.000191536
-7.82971e-05
0.000219291
-0.000101332
0.000213374
0.000186228
-0.000113304
-6.43236e-07
-3.03477e-05
6.06938e-06
-0.000103453
1.45261e-05
-0.000134457
3.20544e-05
-0.000121382
6.68022e-05
-8.23054e-05
0.000107378
-6.17307e-05
0.00013836
-6.50954e-05
0.000152064
-6.91458e-05
0.000149584
-6.38341e-05
0.000130633
-5.90914e-05
0.000101862
-7.00784e-05
7.31059e-05
-9.75733e-05
5.32983e-05
-0.000148973
3.89006e-05
-0.000165663
3.18005e-05
-0.000128924
3.15161e-05
-6.14334e-05
1.34685e-05
-1.84893e-05
1.48032e-05
3.12391e-05
2.57087e-07
0.000151061
-3.15614e-05
0.000223354
-6.12103e-05
0.00024894
-8.39908e-05
0.000236154
0.00020198
-9.97425e-05
8.62109e-06
-3.89687e-05
1.7381e-05
-0.000112212
3.05943e-05
-0.000147671
4.70615e-05
-0.000137849
6.14953e-05
-9.67391e-05
8.06436e-05
-8.08789e-05
0.000111285
-9.57368e-05
0.000138606
-9.64668e-05
0.000153752
-7.89804e-05
0.000150416
-5.57555e-05
0.000125815
-4.54767e-05
9.50875e-05
-6.68463e-05
7.0156e-05
-0.000124041
4.61578e-05
-0.000141665
3.00837e-05
-0.00011285
3.1922e-05
-6.32718e-05
1.95931e-05
-6.1604e-06
1.99182e-05
3.0914e-05
1.36413e-05
0.000157338
-1.39668e-05
0.000250962
-4.13029e-05
0.000276276
-6.43904e-05
0.000259242
0.000219869
-8.22794e-05
1.16078e-05
-5.05765e-05
1.395e-05
-0.000114554
2.54929e-05
-0.000159213
4.67074e-05
-0.000159063
6.38966e-05
-0.000113928
7.51707e-05
-9.21531e-05
9.16652e-05
-0.000112231
0.000105319
-0.000110121
0.000113601
-8.72618e-05
0.000113785
-5.59398e-05
9.90471e-05
-3.07392e-05
8.48497e-05
-5.26489e-05
6.73613e-05
-0.000106553
4.14258e-05
-0.00011573
2.71278e-05
-9.85517e-05
3.11017e-05
-6.72458e-05
3.01534e-05
-5.21223e-06
2.66584e-05
3.4409e-05
2.45996e-05
0.000159397
3.44307e-06
0.000272119
-2.05227e-05
0.000300242
-4.1593e-05
0.000280312
0.000236287
-5.80105e-05
3.53421e-06
-5.41106e-05
-4.72186e-07
-0.000110548
5.41186e-06
-0.000165098
2.14202e-05
-0.000175072
3.8754e-05
-0.000131262
5.30702e-05
-0.000106469
6.18734e-05
-0.000121035
6.60419e-05
-0.000114289
6.53728e-05
-8.65927e-05
5.9905e-05
-5.0472e-05
5.30931e-05
-2.39274e-05
5.94333e-05
-5.89891e-05
4.86597e-05
-9.57793e-05
2.6792e-05
-9.3862e-05
2.03749e-05
-9.21346e-05
2.59898e-05
-7.28608e-05
3.44257e-05
-1.36481e-05
2.77228e-05
4.1112e-05
2.85233e-05
0.000158597
1.72016e-05
0.00028344
-1.64123e-07
0.000317608
-1.5576e-05
0.000295724
0.000246399
-2.56885e-05
-1.09987e-05
-4.31117e-05
-1.75448e-05
-0.000104002
-1.5923e-05
-0.000166719
-1.02334e-05
-0.000180761
1.09117e-06
-0.000142587
1.03301e-05
-0.000115708
1.17566e-05
-0.000122461
1.18018e-05
-0.000114335
7.32636e-06
-8.21172e-05
2.46277e-06
-4.56085e-05
1.81804e-05
-3.9645e-05
3.46291e-05
-7.54379e-05
1.92852e-05
-8.04355e-05
5.66076e-06
-8.02375e-05
4.14403e-06
-9.06178e-05
8.82534e-06
-7.7542e-05
2.05732e-05
-2.53958e-05
1.86997e-05
4.29856e-05
2.16014e-05
0.000155695
2.17818e-05
0.00028326
1.74611e-05
0.000321928
1.2746e-05
0.000300439
0.000248034
1.11111e-05
-1.99604e-05
-2.31513e-05
-2.59728e-05
-9.79893e-05
-2.96127e-05
-0.00016308
-3.28712e-05
-0.000177503
-3.0989e-05
-0.000144469
-2.80932e-05
-0.000118604
-3.1368e-05
-0.000119186
-3.60226e-05
-0.00010968
-3.88809e-05
-7.92588e-05
-2.52369e-05
-5.92526e-05
5.76783e-06
-7.06499e-05
6.57645e-06
-7.62466e-05
-1.20402e-05
-6.18189e-05
-1.72977e-05
-7.49801e-05
-1.91365e-05
-8.87791e-05
-1.92789e-05
-7.73995e-05
-9.00993e-06
-3.56646e-05
-4.53808e-06
3.85138e-05
3.7101e-06
0.000147447
1.50562e-05
0.000271914
2.78213e-05
0.000309163
3.7548e-05
0.000290712
0.000239704
4.58783e-05
-1.43281e-05
-8.82311e-06
-2.15534e-05
-9.07637e-05
-3.10324e-05
-0.000153601
-4.00349e-05
-0.0001685
-4.13415e-05
-0.000143162
-4.02119e-05
-0.000119734
-4.34543e-05
-0.000115944
-4.57015e-05
-0.000107433
-3.5408e-05
-8.95522e-05
-1.36473e-05
-8.10134e-05
-7.8629e-06
-7.64344e-05
-2.77677e-05
-5.63419e-05
-3.80836e-05
-5.1503e-05
-3.99213e-05
-7.31424e-05
-4.60959e-05
-8.26045e-05
-5.03932e-05
-7.31023e-05
-4.79269e-05
-3.81309e-05
-4.09803e-05
3.15672e-05
-2.80035e-05
0.00013447
2.9739e-07
0.000243613
3.02746e-05
0.000279186
5.4221e-05
0.000266766
0.000222177
7.17478e-05
2.77868e-06
-1.16017e-05
-3.42671e-06
-8.45582e-05
-1.90355e-05
-0.000137992
-3.26607e-05
-0.000154875
-3.49834e-05
-0.000140839
-3.239e-05
-0.000122327
-3.18838e-05
-0.00011645
-2.94506e-05
-0.000109866
-2.29482e-05
-9.60547e-05
-2.38687e-05
-8.00929e-05
-4.14754e-05
-5.88276e-05
-5.52858e-05
-4.25316e-05
-5.40215e-05
-5.27674e-05
-5.86915e-05
-6.84724e-05
-6.77843e-05
-7.35117e-05
-7.61567e-05
-6.47299e-05
-8.09487e-05
-3.33389e-05
-7.59442e-05
2.65626e-05
-5.52688e-05
0.000113795
-1.48267e-05
0.000203171
2.70458e-05
0.000237314
6.17288e-05
0.000232083
0.000197067
8.68384e-05
2.2413e-05
-3.40146e-05
2.10592e-05
-8.32042e-05
2.1919e-06
-0.000119124
-1.83798e-05
-0.000134303
-2.783e-05
-0.000131389
-2.93429e-05
-0.000120814
-3.15468e-05
-0.000114246
-3.5821e-05
-0.000105592
-4.30016e-05
-8.8874e-05
-5.64353e-05
-6.66591e-05
-6.67178e-05
-4.8545e-05
-6.31268e-05
-4.61225e-05
-6.08196e-05
-5.50746e-05
-6.85354e-05
-6.07566e-05
-7.96929e-05
-6.23544e-05
-9.01616e-05
-5.42613e-05
-9.63737e-05
-2.71269e-05
-9.24768e-05
2.26655e-05
-6.91569e-05
9.04746e-05
-2.49627e-05
0.000158977
2.05579e-05
0.000191793
5.9376e-05
0.000193265
0.000169107
8.73365e-05
2.27465e-05
-5.6761e-05
2.92587e-05
-8.97163e-05
1.43019e-05
-0.000104167
-7.01379e-06
-0.000112988
-2.41384e-05
-0.000114264
-3.54115e-05
-0.000109541
-4.42043e-05
-0.000105453
-5.53741e-05
-9.44219e-05
-6.53338e-05
-7.89142e-05
-6.93559e-05
-6.2637e-05
-6.41685e-05
-5.37322e-05
-5.80217e-05
-5.22693e-05
-6.01955e-05
-5.29009e-05
-6.90218e-05
-5.19304e-05
-8.13973e-05
-4.99791e-05
-9.33976e-05
-4.22612e-05
-9.92637e-05
-2.12611e-05
-9.39572e-05
1.73589e-05
-7.21616e-05
6.86789e-05
-3.25801e-05
0.000119395
9.59579e-06
0.000149617
4.61007e-05
0.00015676
0.000143187
7.20201e-05
1.43997e-05
-7.11606e-05
2.12398e-05
-9.65564e-05
1.37664e-05
-9.6694e-05
-1.20745e-06
-9.80138e-05
-1.83337e-05
-9.71381e-05
-3.5087e-05
-9.2788e-05
-4.58902e-05
-9.46501e-05
-5.44928e-05
-8.58192e-05
-5.7782e-05
-7.56248e-05
-5.49542e-05
-6.54646e-05
-5.0899e-05
-5.77872e-05
-5.06073e-05
-5.25609e-05
-5.52445e-05
-4.82638e-05
-6.33164e-05
-4.38586e-05
-7.48769e-05
-3.84187e-05
-8.74059e-05
-2.97324e-05
-9.48299e-05
-1.38373e-05
-9.10133e-05
1.35423e-05
-7.30662e-05
5.07317e-05
-4.21019e-05
8.8431e-05
-7.4686e-06
0.000114984
2.33047e-05
0.000125987
0.000121333
4.51593e-05
7.50534e-06
-7.86659e-05
8.91802e-06
-9.79691e-05
5.86938e-06
-9.36454e-05
-6.19079e-07
-9.15252e-05
-1.0848e-05
-8.69091e-05
-2.49392e-05
-7.86968e-05
-3.26977e-05
-8.68915e-05
-3.73346e-05
-8.11822e-05
-3.98045e-05
-7.31548e-05
-4.05468e-05
-6.47222e-05
-4.15385e-05
-5.67954e-05
-4.40361e-05
-5.00633e-05
-4.84941e-05
-4.38059e-05
-5.50629e-05
-3.72899e-05
-6.4094e-05
-2.93878e-05
-7.46463e-05
-1.91803e-05
-8.30634e-05
-5.4203e-06
-8.36998e-05
1.41786e-05
-7.27566e-05
3.97886e-05
-5.1471e-05