/*--------------------------------*- C++ -*----------------------------------*\
| =========                 |                                                 |
| \\      /  F ield         | OpenFOAM: The Open Source CFD Toolbox           |
|  \\    /   O peration     | Version:  2.3.0                                 |
|   \\  /    A nd           | Web:      www.OpenFOAM.org                      |
|    \\/     M anipulation  |                                                 |
\*---------------------------------------------------------------------------*/
FoamFile
{
    version     2.0;
    format      ascii;
    class       volVectorField;
    location    "2.65";
    object      U;
}
// * * * * * * * * * * * * * * * * * * * * * * * * * * * * * * * * * * * * * //

dimensions      [0 1 -1 0 0 0 0];

internalField   nonuniform List<vector> 
2268
(
(0.0275148 -0.0192012 0)
(0.0795679 -0.0137452 0)
(0.0897559 -0.00935341 0)
(0.11424 -0.00944829 0)
(0.148015 -0.00970279 0)
(0.162535 -0.00225008 0)
(0.110364 0.0149358 0)
(0.0334962 0.0158749 0)
(0.0448646 -0.00407329 0)
(0.0951403 -0.0139736 0)
(0.149736 -0.0141756 0)
(0.192896 -0.011127 0)
(0.218286 -0.00793739 0)
(0.223343 -0.00195461 0)
(0.199075 0.00686499 0)
(0.151636 0.0119358 0)
(0.118371 0.00763799 0)
(0.107762 0.00147376 0)
(0.101818 0.00249618 0)
(0.0783823 0.00883216 0)
(0.0261702 0.012359 0)
(-0.0265445 0.00478722 0)
(-0.0198363 -0.0088291 0)
(0.00863102 -0.0366362 0)
(0.0486575 -0.0127246 0)
(0.0189625 -0.0122802 0)
(0.0411295 -0.0209904 0)
(0.0494044 -0.0126695 0)
(0.0686719 0.0175955 0)
(0.0442589 0.0386779 0)
(0.030304 0.0173783 0)
(0.0897882 -0.0239265 0)
(0.151906 -0.0392921 0)
(0.205762 -0.0328217 0)
(0.236219 -0.0179018 0)
(0.238051 -0.00479647 0)
(0.225679 0.00853558 0)
(0.205711 0.0225957 0)
(0.172416 0.0268368 0)
(0.152377 0.0164631 0)
(0.146863 0.00691698 0)
(0.13655 0.0121468 0)
(0.111904 0.0273922 0)
(0.0535042 0.0369875 0)
(-0.00496997 0.0186686 0)
(-0.00301887 -0.0189244 0)
(0.00763782 -0.0456171 0)
(0.0222662 -0.00952912 0)
(-0.0152305 -0.00923722 0)
(0.003505 -0.0222541 0)
(0.00273264 -0.0162263 0)
(0.0104294 0.0143954 0)
(0.0263933 0.0311577 0)
(0.0796596 -0.00593667 0)
(0.140291 -0.0541704 0)
(0.209335 -0.0739641 0)
(0.271041 -0.0556869 0)
(0.297402 -0.0231568 0)
(0.286096 0.000723048 0)
(0.256112 0.0174657 0)
(0.220931 0.0331605 0)
(0.197022 0.0352263 0)
(0.194362 0.0199572 0)
(0.19689 0.00892589 0)
(0.186318 0.0210842 0)
(0.153071 0.0471091 0)
(0.0949836 0.0628403 0)
(0.0398796 0.0380899 0)
(0.0187608 -0.0130275 0)
(0.00721998 -0.052379 0)
(0.0298732 -0.000786151 0)
(-0.00646725 -0.00751003 0)
(0.0195303 -0.0287027 0)
(0.0296411 -0.0187752 0)
(0.0430847 0.00128271 0)
(0.081911 0.00575223 0)
(0.12751 -0.030581 0)
(0.187045 -0.0853452 0)
(0.249152 -0.109639 0)
(0.302681 -0.0796917 0)
(0.329426 -0.025278 0)
(0.318365 0.0134629 0)
(0.286994 0.0334233 0)
(0.255633 0.0461972 0)
(0.238854 0.0413109 0)
(0.238373 0.0204891 0)
(0.237434 0.0106761 0)
(0.226246 0.0305033 0)
(0.196353 0.0663367 0)
(0.14399 0.088172 0)
(0.0867376 0.064206 0)
(0.0401804 0.00917137 0)
(0.00247963 -0.0658615 0)
(0.0544913 -0.000985799 0)
(0.0376528 -0.00475917 0)
(0.0637073 -0.0397805 0)
(0.0815318 -0.0307925 0)
(0.110429 -0.0127621 0)
(0.144063 -0.0115744 0)
(0.184065 -0.0487722 0)
(0.240007 -0.11036 0)
(0.28364 -0.135227 0)
(0.309882 -0.0968801 0)
(0.324545 -0.0279069 0)
(0.316807 0.0223449 0)
(0.294672 0.0457213 0)
(0.275283 0.0553183 0)
(0.267062 0.0453427 0)
(0.267466 0.0222231 0)
(0.264703 0.0149139 0)
(0.250646 0.0404814 0)
(0.224426 0.0833117 0)
(0.182336 0.111514 0)
(0.125758 0.0947028 0)
(0.0591536 0.0451993 0)
(-0.00699026 -0.0832039 0)
(0.0655605 -0.0184975 0)
(0.0941596 -0.00885346 0)
(0.125079 -0.0439164 0)
(0.138308 -0.0455739 0)
(0.165968 -0.0294807 0)
(0.194215 -0.0275521 0)
(0.240277 -0.0695264 0)
(0.29379 -0.130845 0)
(0.313604 -0.146926 0)
(0.305818 -0.0989356 0)
(0.294911 -0.0249114 0)
(0.284144 0.0285723 0)
(0.27141 0.0530014 0)
(0.263152 0.0587203 0)
(0.263513 0.045433 0)
(0.268634 0.021834 0)
(0.269544 0.0189919 0)
(0.256968 0.050402 0)
(0.23342 0.0973028 0)
(0.202133 0.131763 0)
(0.153167 0.127073 0)
(0.0750286 0.0936354 0)
(-0.0203809 -0.0924984 0)
(0.049842 -0.0507099 0)
(0.114571 -0.0326684 0)
(0.17021 -0.0509061 0)
(0.197704 -0.0536084 0)
(0.218126 -0.0419514 0)
(0.248363 -0.0464368 0)
(0.298687 -0.0915754 0)
(0.336367 -0.144138 0)
(0.324515 -0.145065 0)
(0.286301 -0.0876357 0)
(0.256341 -0.0134744 0)
(0.238653 0.0368556 0)
(0.22766 0.0570303 0)
(0.224161 0.0573166 0)
(0.233782 0.0410177 0)
(0.242148 0.0179461 0)
(0.240487 0.0202742 0)
(0.230804 0.0581536 0)
(0.216702 0.107273 0)
(0.201222 0.146489 0)
(0.168576 0.15589 0)
(0.0921373 0.145756 0)
(-0.0183611 -0.0918257 0)
(0.0375017 -0.078589 0)
(0.112729 -0.0708991 0)
(0.186387 -0.078564 0)
(0.239716 -0.0718449 0)
(0.274442 -0.0554154 0)
(0.310365 -0.0615692 0)
(0.348846 -0.104381 0)
(0.35818 -0.143265 0)
(0.313467 -0.128336 0)
(0.249118 -0.0657185 0)
(0.205145 0.000546296 0)
(0.181064 0.0443467 0)
(0.170861 0.061475 0)
(0.174601 0.0543689 0)
(0.190088 0.0319071 0)
(0.182228 0.015174 0)
(0.163808 0.026733 0)
(0.15612 0.0645136 0)
(0.161532 0.109901 0)
(0.172813 0.15282 0)
(0.172153 0.179305 0)
(0.093992 0.214851 0)
(0.0355499 -0.0195344 0)
(0.0957553 -3.68843e-05 0)
(0.0812105 0.0161595 0)
(-0.0944959 0.0295905 0)
(-0.199913 0.0151938 0)
(-0.138883 -0.0214344 0)
(-0.045977 -0.0240247 0)
(0.0245559 -0.0165688 0)
(0.0652254 -0.0137018 0)
(0.117055 -0.0189686 0)
(0.182057 -0.0193971 0)
(0.244158 -0.00104681 0)
(0.222789 0.0249903 0)
(0.0843126 0.0349053 0)
(-0.0611737 0.0125314 0)
(-0.100495 0.00255577 0)
(-0.145481 0.00515899 0)
(-0.139429 -0.00956694 0)
(-0.046277 -0.0284679 0)
(0.00859159 -0.0469155 0)
(0.0727745 -0.00668974 0)
(0.0838644 0.0541102 0)
(-0.138534 0.076877 0)
(-0.148666 0.0209161 0)
(-0.0276672 -0.0639021 0)
(0.0342392 -0.0530273 0)
(0.0790034 -0.0313351 0)
(0.0954901 -0.0244481 0)
(0.116576 -0.0413148 0)
(0.1667 -0.0435249 0)
(0.208638 -0.00992674 0)
(0.255363 0.0411624 0)
(0.212492 0.0796828 0)
(0.081736 0.0677879 0)
(-0.0230594 0.0300773 0)
(-0.115886 0.0104958 0)
(-0.095195 -0.027384 0)
(-0.0228985 -0.064695 0)
(-0.0134656 -0.0581461 0)
(0.0352443 -0.0185134 0)
(0.0662978 0.0874494 0)
(-0.109974 0.108481 0)
(-0.0134622 0.00418766 0)
(0.0567446 -0.0968365 0)
(0.0963383 -0.0782114 0)
(0.110771 -0.0360445 0)
(0.0971962 -0.0215464 0)
(0.0820384 -0.0518256 0)
(0.109453 -0.0631267 0)
(0.15634 -0.025976 0)
(0.184625 0.0322428 0)
(0.21014 0.0948319 0)
(0.16564 0.108008 0)
(0.0837474 0.0729008 0)
(-0.023123 0.0342404 0)
(-0.0315109 -0.0324545 0)
(-0.000776657 -0.0808966 0)
(-0.0257552 -0.0548164 0)
(-0.00715172 -0.0304658 0)
(0.0497684 0.109483 0)
(-0.0663547 0.118002 0)
(0.0792703 -0.040486 0)
(0.111861 -0.119155 0)
(0.109301 -0.0859109 0)
(0.0970608 -0.0257603 0)
(0.0638919 -0.00676654 0)
(0.0324953 -0.0534293 0)
(0.0334788 -0.0808641 0)
(0.0858927 -0.034575 0)
(0.100118 0.0242929 0)
(0.137716 0.0889774 0)
(0.158185 0.123459 0)
(0.126033 0.103977 0)
(0.0434706 0.0619155 0)
(0.0127492 -0.0245876 0)
(0.0165334 -0.0782762 0)
(-0.0227539 -0.0445214 0)
(-0.028967 -0.0414438 0)
(0.0432259 0.113158 0)
(0.0020901 0.101058 0)
(0.138025 -0.0582626 0)
(0.132962 -0.122574 0)
(0.0832828 -0.0763474 0)
(0.0549172 -0.0071417 0)
(0.0218664 0.00830643 0)
(-0.00659048 -0.0481122 0)
(-0.0435957 -0.090408 0)
(0.00426601 -0.0429358 0)
(0.0193166 0.0153828 0)
(0.0482164 0.0728534 0)
(0.0967807 0.118605 0)
(0.107853 0.117324 0)
(0.059274 0.0825527 0)
(0.0217974 -0.0111592 0)
(0.0235947 -0.0724119 0)
(0.00578339 -0.0285248 0)
(-0.0158522 -0.0560589 0)
(0.0433321 0.0924571 0)
(0.104102 0.0743848 0)
(0.198159 -0.061086 0)
(0.134781 -0.104482 0)
(0.0382726 -0.0524508 0)
(0.0126411 0.00991975 0)
(-0.000417472 0.0189732 0)
(-0.0319738 -0.0334192 0)
(-0.105015 -0.0824643 0)
(-0.0903422 -0.051006 0)
(-0.0636421 0.00548394 0)
(-0.0378927 0.0550339 0)
(0.0186734 0.10226 0)
(0.0567914 0.117148 0)
(0.0287136 0.0925107 0)
(0.0076815 -0.00319173 0)
(0.0269151 -0.0661797 0)
(0.0573329 -0.0388669 0)
(0.048275 -0.052919 0)
(0.0653746 0.054101 0)
(0.178993 0.0335355 0)
(0.233285 -0.0514069 0)
(0.126035 -0.0659901 0)
(0.000346989 -0.0248131 0)
(-0.00632396 0.0181066 0)
(-0.000964104 0.0291383 0)
(-0.0433898 -0.0100259 0)
(-0.148172 -0.0608926 0)
(-0.171034 -0.0537562 0)
(-0.145742 -0.00713467 0)
(-0.116432 0.0365764 0)
(-0.0617089 0.0797557 0)
(-0.0197261 0.11245 0)
(-0.0328021 0.092683 0)
(0.00598529 -0.00899741 0)
(0.031858 -0.0578278 0)
(0.145801 -0.0997095 0)
(0.141299 -0.0760119 0)
(0.155871 0.00943326 0)
(0.23644 0.00801315 0)
(0.263291 -0.0224971 0)
(0.141113 -0.0106551 0)
(0.00105352 0.0035265 0)
(-0.0261939 0.0112757 0)
(-0.0082188 0.0359909 0)
(-0.0425109 0.0241361 0)
(-0.170361 -0.0263857 0)
(-0.228164 -0.0479425 0)
(-0.226561 -0.0199127 0)
(-0.201136 0.021475 0)
(-0.159934 0.0701091 0)
(-0.11546 0.106387 0)
(-0.0732416 0.0751888 0)
(0.0230753 -0.0279448 0)
(0.0308842 -0.0489606 0)
(0.0159887 -0.10275 0)
(0.0963306 -0.128544 0)
(0.18145 -0.123305 0)
(0.243938 -0.12327 0)
(0.283799 -0.113537 0)
(0.3152 -0.0907831 0)
(0.344233 -0.084358 0)
(0.355808 -0.108375 0)
(0.330793 -0.118263 0)
(0.259873 -0.0798923 0)
(0.172693 -0.016573 0)
(0.113507 0.0406444 0)
(0.0778679 0.0674857 0)
(0.0603586 0.0646242 0)
(0.0571982 0.0483632 0)
(0.0518087 0.0430083 0)
(0.0288 0.0419166 0)
(0.00959089 0.0472239 0)
(0.00187555 0.0731969 0)
(0.0172801 0.106043 0)
(0.054416 0.142043 0)
(0.127158 0.17962 0)
(0.185615 0.245093 0)
(0.0524137 -0.18996 0)
(0.162632 -0.246633 0)
(0.254917 -0.20488 0)
(0.301144 -0.165413 0)
(0.306432 -0.136234 0)
(0.298667 -0.106617 0)
(0.292244 -0.0929819 0)
(0.264951 -0.09569 0)
(0.217277 -0.066464 0)
(0.15042 0.00227355 0)
(0.0627691 0.0635969 0)
(-0.013861 0.0962238 0)
(-0.0773151 0.0993703 0)
(-0.126502 0.0761738 0)
(-0.159575 0.0513396 0)
(-0.176664 0.042154 0)
(-0.184645 0.0377998 0)
(-0.184612 0.0398191 0)
(-0.181398 0.0482646 0)
(-0.162761 0.0532788 0)
(-0.11287 0.0636234 0)
(-0.0325144 0.0738158 0)
(0.0719139 0.0590327 0)
(0.0507261 -0.324972 0)
(0.130831 -0.365396 0)
(0.191916 -0.270579 0)
(0.224872 -0.182656 0)
(0.205854 -0.128037 0)
(0.170548 -0.0819686 0)
(0.132624 -0.0550796 0)
(0.069595 -0.0395706 0)
(0.0216579 0.00340363 0)
(-0.000277511 0.0689143 0)
(-0.0334029 0.126895 0)
(-0.0845565 0.147092 0)
(-0.140285 0.140411 0)
(-0.171852 0.110108 0)
(-0.160327 0.0782716 0)
(-0.111297 0.0621197 0)
(-0.0587226 0.0497079 0)
(-0.0576554 0.0385649 0)
(-0.118869 0.0553931 0)
(-0.148264 0.0344889 0)
(-0.150515 0.000328057 0)
(-0.0792541 -0.0237723 0)
(0.0530058 -0.0293349 0)
(0.0225052 -0.392914 0)
(0.0781297 -0.372894 0)
(0.134683 -0.253776 0)
(0.186998 -0.118522 0)
(0.127744 -0.0406488 0)
(0.0567667 0.00254202 0)
(0.00203164 0.0233785 0)
(-0.0124621 0.0177554 0)
(0.0134153 0.0304818 0)
(0.0488648 0.0870731 0)
(0.116081 0.147814 0)
(0.181348 0.201798 0)
(0.292348 0.234301 0)
(0.516554 0.200998 0)
(0.360758 0.0595411 0)
(-0.114074 -0.0260982 0)
(-0.156382 -0.0302001 0)
(-0.277205 0.133489 0)
(-0.26347 0.198796 0)
(-0.268607 0.149925 0)
(-0.271515 0.0218331 0)
(-0.313451 -0.126102 0)
(-0.354819 -0.162419 0)
(0.0186403 -0.417805 0)
(0.112233 -0.453466 0)
(0.226451 -0.377191 0)
(0.364187 -0.239293 0)
(0.464944 -0.0579203 0)
(0.514245 0.0366485 0)
(0.588659 0.0402291 0)
(0.438925 -0.0489492 0)
(0.247042 -0.0823145 0)
(0.255759 -0.0770535 0)
(0.38445 -0.0679515 0)
(0.569528 -0.105624 0)
(0.624468 -0.107653 0)
(0.343889 0.220099 0)
(0.120706 0.423093 0)
(-0.232551 0.410241 0)
(-0.501551 0.190432 0)
(-0.493514 0.1442 0)
(-0.38521 -0.0163845 0)
(-0.292459 -0.0170454 0)
(-0.239712 0.0367477 0)
(-0.163741 -0.0214758 0)
(-0.0587744 -0.0822992 0)
(0.0547073 -0.51134 0)
(0.138061 -0.648403 0)
(0.166051 -0.565133 0)
(0.228875 -0.445302 0)
(0.500044 -0.283764 0)
(0.767043 -0.10093 0)
(0.887652 0.0645394 0)
(1.03074 0.205724 0)
(1.18626 0.218769 0)
(1.20601 0.0356342 0)
(0.877294 -0.100435 0)
(0.346057 0.080314 0)
(-0.0331869 0.449006 0)
(-0.124896 0.579109 0)
(-0.180864 0.679672 0)
(-0.384511 0.564551 0)
(-0.476072 0.294699 0)
(-0.474274 0.0794205 0)
(-0.497022 -0.0140017 0)
(-0.524812 -0.0101719 0)
(-0.408697 -0.0940486 0)
(-0.234135 -0.216672 0)
(-0.0480322 -0.28406 0)
(0.0175914 -0.632056 0)
(-0.0599534 -0.533451 0)
(-0.0849353 -0.426095 0)
(0.00702787 -0.417636 0)
(0.0434385 -0.444044 0)
(0.190798 -0.303646 0)
(0.376482 -0.124086 0)
(0.532455 -0.187291 0)
(0.648437 -0.177322 0)
(0.605289 0.101063 0)
(0.230146 0.415369 0)
(-0.19051 0.600031 0)
(-0.353093 0.542241 0)
(-0.373071 0.611476 0)
(-0.354356 0.696121 0)
(-0.396823 0.591306 0)
(-0.42207 0.398142 0)
(-0.528215 0.193669 0)
(-0.637209 0.0640095 0)
(-0.585354 -0.106075 0)
(-0.441629 -0.282512 0)
(-0.270406 -0.422871 0)
(-0.077289 -0.500185 0)
(-0.0853053 -0.484926 0)
(-0.199881 -0.457089 0)
(-0.188274 -0.551646 0)
(-0.110341 -0.551946 0)
(-0.038852 -0.534187 0)
(0.0674265 -0.473779 0)
(0.143652 -0.33109 0)
(0.213628 -0.135514 0)
(0.101088 0.128369 0)
(-0.0582922 0.490488 0)
(-0.28659 0.765696 0)
(-0.433172 0.74816 0)
(-0.459434 0.559453 0)
(-0.467305 0.583004 0)
(-0.437915 0.651415 0)
(-0.426061 0.639964 0)
(-0.489528 0.500033 0)
(-0.580599 0.276407 0)
(-0.569374 0.0254507 0)
(-0.476434 -0.232201 0)
(-0.366777 -0.441734 0)
(-0.21219 -0.612546 0)
(-0.032585 -0.708952 0)
(-0.104103 -0.318811 0)
(-0.179299 -0.475382 0)
(-0.179977 -0.595414 0)
(-0.156717 -0.611325 0)
(-0.112631 -0.611946 0)
(-0.096922 -0.517533 0)
(-0.114979 -0.327426 0)
(-0.159765 -0.0459759 0)
(-0.266567 0.290996 0)
(-0.366472 0.639206 0)
(-0.418549 0.829225 0)
(-0.400903 0.756344 0)
(-0.414353 0.597166 0)
(-0.464142 0.596939 0)
(-0.45991 0.65486 0)
(-0.450603 0.651251 0)
(-0.451548 0.504596 0)
(-0.41984 0.255624 0)
(-0.343434 -0.0335981 0)
(-0.262446 -0.317867 0)
(-0.168871 -0.56026 0)
(-0.0311115 -0.771253 0)
(0.123039 -0.890375 0)
(-0.034895 -0.232961 0)
(-0.0622871 -0.422099 0)
(-0.0784112 -0.585574 0)
(-0.0522712 -0.624534 0)
(-0.0849492 -0.588144 0)
(-0.112568 -0.468289 0)
(-0.189757 -0.240439 0)
(-0.26243 0.0302143 0)
(-0.32083 0.336879 0)
(-0.340077 0.620625 0)
(-0.298493 0.767186 0)
(-0.240095 0.732297 0)
(-0.264781 0.645749 0)
(-0.332066 0.62949 0)
(-0.342005 0.642038 0)
(-0.30495 0.599019 0)
(-0.228783 0.437962 0)
(-0.128055 0.185396 0)
(-0.040828 -0.103119 0)
(0.047129 -0.393655 0)
(0.137016 -0.66265 0)
(0.251667 -0.899093 0)
(0.371702 -1.03265 0)
(-0.0116378 -0.21733 0)
(0.0275461 -0.406176 0)
(0.0988339 -0.603285 0)
(0.146013 -0.618948 0)
(0.103517 -0.542191 0)
(0.0675346 -0.440782 0)
(-0.0238401 -0.178703 0)
(-0.101502 0.0866303 0)
(-0.148187 0.3406 0)
(-0.132868 0.570725 0)
(-0.075596 0.702322 0)
(-0.0219667 0.7172 0)
(-0.040009 0.687659 0)
(-0.0714023 0.655223 0)
(-0.0554338 0.609645 0)
(0.0126714 0.516725 0)
(0.121096 0.337933 0)
(0.229725 0.0959556 0)
(0.322113 -0.182677 0)
(0.40791 -0.473004 0)
(0.487711 -0.751165 0)
(0.577585 -0.998319 0)
(0.661428 -1.13483 0)
(-0.0487201 -0.233235 0)
(0.0886595 -0.532838 0)
(0.236179 -0.674377 0)
(0.320841 -0.63488 0)
(0.327869 -0.50851 0)
(0.2946 -0.360873 0)
(0.24062 -0.142562 0)
(0.191535 0.139 0)
(0.152992 0.36119 0)
(0.159863 0.535083 0)
(0.196898 0.650699 0)
(0.239277 0.696093 0)
(0.254881 0.693837 0)
(0.276732 0.65004 0)
(0.328264 0.563708 0)
(0.411961 0.427227 0)
(0.514295 0.236952 0)
(0.610204 0.00568522 0)
(0.696058 -0.262089 0)
(0.773494 -0.55083 0)
(0.834243 -0.826861 0)
(0.891844 -1.07197 0)
(0.934652 -1.19957 0)
(-0.0131245 -0.28856 0)
(0.203545 -0.709466 0)
(0.36183 -0.816487 0)
(0.436826 -0.712202 0)
(0.458706 -0.528486 0)
(0.452149 -0.331407 0)
(0.432383 -0.12394 0)
(0.433357 0.136968 0)
(0.457801 0.369325 0)
(0.480878 0.525031 0)
(0.505839 0.621042 0)
(0.54086 0.661734 0)
(0.585851 0.653442 0)
(0.64958 0.595223 0)
(0.731296 0.488975 0)
(0.823419 0.338494 0)
(0.914505 0.151915 0)
(0.99625 -0.0711952 0)
(1.06674 -0.331531 0)
(1.11733 -0.608003 0)
(1.13475 -0.86908 0)
(1.13867 -1.10365 0)
(1.12564 -1.21754 0)
(0.0716013 -0.409584 0)
(0.284598 -0.898292 0)
(0.382003 -0.938156 0)
(0.402294 -0.757083 0)
(0.412393 -0.551725 0)
(0.430163 -0.354153 0)
(0.479801 -0.150631 0)
(0.540353 0.0820004 0)
(0.62788 0.317429 0)
(0.728452 0.490334 0)
(0.797464 0.58753 0)
(0.846663 0.611853 0)
(0.90864 0.581314 0)
(0.995931 0.505918 0)
(1.0995 0.391888 0)
(1.20401 0.243519 0)
(1.29229 0.0643424 0)
(1.35907 -0.1398 0)
(1.39751 -0.370426 0)
(1.39129 -0.61015 0)
(1.33279 -0.841795 0)
(1.25828 -1.06137 0)
(1.16659 -1.15885 0)
(0.119292 -0.620119 0)
(0.247373 -1.02818 0)
(0.217908 -0.935386 0)
(0.203519 -0.716723 0)
(0.225402 -0.532183 0)
(0.304724 -0.378335 0)
(0.394584 -0.217582 0)
(0.498015 -0.0294846 0)
(0.633106 0.175168 0)
(0.764648 0.36966 0)
(0.89017 0.515143 0)
(1.00494 0.552297 0)
(1.11728 0.502775 0)
(1.24196 0.406005 0)
(1.37133 0.289094 0)
(1.48705 0.160649 0)
(1.57541 0.018672 0)
(1.61787 -0.145359 0)
(1.6014 -0.331019 0)
(1.51178 -0.520584 0)
(1.36474 -0.719942 0)
(1.20932 -0.92742 0)
(1.02707 -1.00174 0)
(0.091649 -0.819694 0)
(0.13213 -1.01094 0)
(0.052857 -0.862823 0)
(0.0765397 -0.709705 0)
(0.138164 -0.604258 0)
(0.25107 -0.457087 0)
(0.365125 -0.315247 0)
(0.491746 -0.138954 0)
(0.598364 0.0410523 0)
(0.689739 0.212513 0)
(0.784092 0.338962 0)
(0.906654 0.384066 0)
(1.05351 0.331963 0)
(1.20253 0.236032 0)
(1.34451 0.126717 0)
(1.46875 0.0170674 0)
(1.5438 -0.0833136 0)
(1.56395 -0.179283 0)
(1.51823 -0.272249 0)
(1.38399 -0.379157 0)
(1.20087 -0.537751 0)
(0.998604 -0.7332 0)
(0.745733 -0.75753 0)
(0.0407943 -0.896742 0)
(0.0454525 -0.961128 0)
(-0.00219967 -0.867767 0)
(0.072477 -0.790237 0)
(0.141191 -0.756553 0)
(0.275697 -0.61377 0)
(0.381266 -0.473011 0)
(0.47754 -0.256762 0)
(0.55741 0.0235865 0)
(0.601015 0.213114 0)
(0.634413 0.294846 0)
(0.722086 0.279706 0)
(0.809066 0.212885 0)
(0.894872 0.124362 0)
(0.995132 0.0310567 0)
(1.1105 -0.0423578 0)
(1.20586 -0.0883645 0)
(1.24387 -0.137249 0)
(1.20921 -0.181514 0)
(1.08745 -0.228973 0)
(0.935236 -0.351994 0)
(0.712981 -0.547604 0)
(0.488043 -0.509959 0)
(-0.00109008 -0.919245 0)
(-0.0159809 -0.941309 0)
(-0.0324233 -0.907431 0)
(0.0245496 -0.873568 0)
(0.0442603 -0.867679 0)
(0.147803 -0.745805 0)
(0.198685 -0.587912 0)
(0.280174 -0.375734 0)
(0.360677 -0.093342 0)
(0.448331 0.12166 0)
(0.522122 0.218201 0)
(0.610932 0.193222 0)
(0.712631 0.122306 0)
(0.835409 0.0285515 0)
(0.95751 -0.0957338 0)
(1.03479 -0.171102 0)
(1.06826 -0.176644 0)
(1.06162 -0.146929 0)
(0.995277 -0.095571 0)
(0.83371 -0.067338 0)
(0.677433 -0.176268 0)
(0.445974 -0.358663 0)
(0.261716 -0.284809 0)
(-0.0363016 -0.882221 0)
(-0.0778402 -0.918541 0)
(-0.101721 -0.903436 0)
(-0.127521 -0.886031 0)
(-0.194446 -0.869661 0)
(-0.198367 -0.767858 0)
(-0.221371 -0.622708 0)
(-0.140841 -0.423185 0)
(-0.0729406 -0.136619 0)
(0.0275317 0.0881325 0)
(0.184328 0.150093 0)
(0.354351 0.0813472 0)
(0.528907 -0.0359148 0)
(0.701464 -0.125504 0)
(0.825944 -0.182298 0)
(0.870376 -0.186848 0)
(0.863645 -0.1484 0)
(0.812319 -0.0721818 0)
(0.685644 0.0385421 0)
(0.500433 0.108049 0)
(0.384989 -0.0407699 0)
(0.175667 -0.177855 0)
(-0.0113841 -0.0386871 0)
(-0.0646524 -0.803883 0)
(-0.134986 -0.855895 0)
(-0.199368 -0.832793 0)
(-0.322926 -0.787742 0)
(-0.503472 -0.744429 0)
(-0.65886 -0.699015 0)
(-0.7021 -0.608078 0)
(-0.64913 -0.430614 0)
(-0.563524 -0.227972 0)
(-0.434233 -0.136666 0)
(-0.203337 -0.155127 0)
(-0.0279672 -0.175959 0)
(0.112259 -0.20226 0)
(0.241425 -0.226623 0)
(0.340259 -0.223017 0)
(0.425086 -0.167065 0)
(0.451311 -0.0713585 0)
(0.391842 0.0515645 0)
(0.272719 0.21023 0)
(0.214335 0.221592 0)
(0.151564 0.0636649 0)
(-0.117945 0.0528593 0)
(-0.379481 0.272336 0)
(-0.0890514 -0.687099 0)
(-0.177329 -0.765429 0)
(-0.258108 -0.70152 0)
(-0.43723 -0.585763 0)
(-0.675341 -0.545236 0)
(-0.896139 -0.58108 0)
(-1.00116 -0.577939 0)
(-0.990964 -0.470517 0)
(-0.911779 -0.31931 0)
(-0.815814 -0.224899 0)
(-0.729574 -0.207682 0)
(-0.595104 -0.244861 0)
(-0.438782 -0.341976 0)
(-0.243172 -0.392683 0)
(-0.0805531 -0.354529 0)
(0.0311006 -0.277901 0)
(0.116165 -0.0935683 0)
(0.124819 0.120168 0)
(0.0844032 0.257025 0)
(0.0602683 0.274788 0)
(-0.1093 0.238305 0)
(-0.399095 0.327848 0)
(-0.621761 0.519554 0)
(-0.107802 -0.542437 0)
(-0.196609 -0.675134 0)
(-0.235377 -0.574045 0)
(-0.368932 -0.373743 0)
(-0.600037 -0.333423 0)
(-0.813509 -0.428168 0)
(-0.96408 -0.500557 0)
(-1.04491 -0.478346 0)
(-1.06853 -0.400622 0)
(-1.02431 -0.368417 0)
(-0.901849 -0.408618 0)
(-0.713335 -0.506698 0)
(-0.48629 -0.612869 0)
(-0.265941 -0.6158 0)
(-0.113725 -0.491317 0)
(-0.0329159 -0.413761 0)
(0.0867429 -0.168051 0)
(0.105163 0.11864 0)
(0.0268293 0.300078 0)
(-0.0562032 0.397468 0)
(-0.291965 0.470851 0)
(-0.562591 0.579878 0)
(-0.744494 0.718754 0)
(-0.11355 -0.397216 0)
(-0.193944 -0.610573 0)
(-0.181639 -0.538158 0)
(-0.158576 -0.235325 0)
(-0.293466 -0.149034 0)
(-0.454303 -0.25237 0)
(-0.576174 -0.381868 0)
(-0.667521 -0.416807 0)
(-0.696164 -0.392451 0)
(-0.664529 -0.42661 0)
(-0.586901 -0.518592 0)
(-0.475687 -0.653106 0)
(-0.319038 -0.797837 0)
(-0.155945 -0.796139 0)
(-0.0364554 -0.560708 0)
(-0.00721978 -0.461837 0)
(0.00939169 -0.235124 0)
(0.105088 0.182862 0)
(-0.00315541 0.412835 0)
(-0.140426 0.576971 0)
(-0.381351 0.703713 0)
(-0.613679 0.795569 0)
(-0.74402 0.844272 0)
(-0.0965683 -0.275963 0)
(-0.153943 -0.563023 0)
(-0.1366 -0.596018 0)
(-0.00402316 -0.279083 0)
(0.0352407 -0.0134266 0)
(-0.140605 -0.135599 0)
(-0.160456 -0.284871 0)
(-0.208115 -0.373633 0)
(-0.26167 -0.412999 0)
(-0.25672 -0.493113 0)
(-0.216348 -0.611084 0)
(-0.185906 -0.756441 0)
(-0.106611 -0.931559 0)
(-0.0188439 -0.951553 0)
(0.0624742 -0.649486 0)
(0.0974742 -0.415944 0)
(0.000254033 -0.30333 0)
(0.0768097 0.187706 0)
(-0.00514748 0.549347 0)
(-0.174843 0.765573 0)
(-0.396332 0.916966 0)
(-0.58499 0.961314 0)
(-0.674132 0.912375 0)
(-0.0668866 -0.192265 0)
(-0.070701 -0.527586 0)
(-0.0522593 -0.662457 0)
(0.0286981 -0.498772 0)
(0.283177 -0.108385 0)
(0.435808 0.00336507 0)
(0.340935 -0.161568 0)
(0.322503 -0.302055 0)
(0.323137 -0.377063 0)
(0.278763 -0.467516 0)
(0.235531 -0.59518 0)
(0.152016 -0.737786 0)
(0.132102 -0.948018 0)
(0.132701 -0.996112 0)
(0.111631 -0.743582 0)
(0.176415 -0.345094 0)
(0.0649223 -0.24578 0)
(0.0544247 0.195188 0)
(0.0317891 0.69155 0)
(-0.151666 0.946085 0)
(-0.350337 1.10045 0)
(-0.509519 1.091 0)
(-0.587558 0.967342 0)
(-0.0449192 -0.161264 0)
(0.0265712 -0.533294 0)
(0.0540399 -0.698949 0)
(0.111807 -0.615033 0)
(0.243079 -0.390378 0)
(0.455101 -0.231191 0)
(0.660089 -0.208858 0)
(0.800595 -0.253753 0)
(0.838358 -0.286919 0)
(0.773709 -0.33516 0)
(0.636986 -0.446059 0)
(0.452979 -0.606654 0)
(0.335194 -0.863727 0)
(0.26268 -0.94667 0)
(0.147695 -0.738337 0)
(0.175086 -0.339086 0)
(0.124306 -0.146279 0)
(0.066794 0.157316 0)
(0.0885677 0.78312 0)
(-0.0804476 1.12001 0)
(-0.265406 1.26448 0)
(-0.410196 1.21007 0)
(-0.499524 1.0408 0)
(-0.0197777 -0.166121 0)
(0.0934054 -0.579469 0)
(0.11958 -0.76178 0)
(0.214084 -0.690135 0)
(0.287809 -0.48857 0)
(0.368414 -0.418672 0)
(0.5016 -0.478394 0)
(0.661622 -0.479867 0)
(0.802092 -0.390781 0)
(0.859747 -0.287101 0)
(0.776847 -0.282462 0)
(0.580078 -0.42035 0)
(0.438826 -0.722936 0)
(0.321558 -0.832497 0)
(0.165632 -0.655731 0)
(0.154003 -0.338229 0)
(0.149496 -0.0553773 0)
(0.100674 0.160611 0)
(0.134488 0.832704 0)
(0.0118423 1.28153 0)
(-0.163982 1.41666 0)
(-0.297833 1.33312 0)
(-0.399692 1.13257 0)
(0.0192916 -0.236145 0)
(0.0907811 -0.618276 0)
(0.0857371 -0.834642 0)
(0.175764 -0.806896 0)
(0.309854 -0.565835 0)
(0.385766 -0.464795 0)
(0.437988 -0.570231 0)
(0.512927 -0.576227 0)
(0.593428 -0.469856 0)
(0.643037 -0.320578 0)
(0.60691 -0.206429 0)
(0.480946 -0.292109 0)
(0.414459 -0.604992 0)
(0.295847 -0.691886 0)
(0.151649 -0.560442 0)
(0.129377 -0.354874 0)
(0.185528 -0.0214294 0)
(0.141555 0.171528 0)
(0.170134 0.857917 0)
(0.0990253 1.41945 0)
(-0.059072 1.55641 0)
(-0.177118 1.45464 0)
(-0.273065 1.22828 0)
(0.0279135 -0.291712 0)
(0.0105638 -0.608066 0)
(-0.00984677 -0.875125 0)
(0.0456502 -0.91977 0)
(0.164946 -0.678883 0)
(0.286645 -0.54152 0)
(0.292924 -0.642207 0)
(0.330483 -0.629411 0)
(0.35942 -0.494628 0)
(0.371455 -0.302413 0)
(0.315622 -0.141735 0)
(0.288598 -0.275958 0)
(0.313111 -0.546107 0)
(0.195091 -0.56025 0)
(0.106466 -0.50457 0)
(0.0918375 -0.385396 0)
(0.199959 -0.0575423 0)
(0.138376 0.181392 0)
(0.177735 0.848019 0)
(0.151787 1.50591 0)
(0.0372692 1.6741 0)
(-0.0515855 1.55883 0)
(-0.118887 1.30698 0)
(0.00362379 -0.274793 0)
(-0.0994596 -0.575952 0)
(-0.0976375 -0.898867 0)
(-0.0917486 -0.973579 0)
(-0.0299029 -0.755072 0)
(0.068942 -0.616609 0)
(0.0320513 -0.67263 0)
(0.0578387 -0.627775 0)
(0.0667659 -0.451049 0)
(0.0368359 -0.243628 0)
(0.0225451 -0.118955 0)
(0.168589 -0.37363 0)
(0.172709 -0.49421 0)
(0.0409195 -0.455793 0)
(0.024923 -0.491142 0)
(0.0109121 -0.40983 0)
(0.0958598 -0.112638 0)
(0.0847761 0.217341 0)
(0.129551 0.842389 0)
(0.139076 1.53377 0)
(0.100334 1.7421 0)
(0.0703485 1.62474 0)
(0.0569489 1.34796 0)
(-0.0388219 -0.187636 0)
(-0.150123 -0.555848 0)
(-0.143943 -0.901696 0)
(-0.187705 -0.970633 0)
(-0.169461 -0.776666 0)
(-0.135362 -0.637546 0)
(-0.178453 -0.651621 0)
(-0.182355 -0.578106 0)
(-0.205448 -0.392327 0)
(-0.194788 -0.231386 0)
(-0.0389923 -0.312102 0)
(0.0835407 -0.450746 0)
(-0.0201221 -0.380904 0)
(-0.0973211 -0.407534 0)
(-0.0975904 -0.487056 0)
(-0.120012 -0.418413 0)
(-0.093308 -0.168118 0)
(-0.0491695 0.237413 0)
(0.00789529 0.833231 0)
(0.0512269 1.51994 0)
(0.114241 1.73101 0)
(0.170705 1.6219 0)
(0.217625 1.33905 0)
(-0.0444346 -0.0915702 0)
(-0.110895 -0.52748 0)
(-0.125746 -0.868038 0)
(-0.206303 -0.936102 0)
(-0.221788 -0.768586 0)
(-0.211811 -0.633645 0)
(-0.231742 -0.621616 0)
(-0.252309 -0.571147 0)
(-0.232637 -0.447319 0)
(-0.124204 -0.399811 0)
(-0.00986727 -0.454236 0)
(-0.0797183 -0.368787 0)
(-0.199956 -0.285825 0)
(-0.202204 -0.403994 0)
(-0.232791 -0.464081 0)
(-0.271383 -0.405577 0)
(-0.296108 -0.194701 0)
(-0.268232 0.210399 0)
(-0.17071 0.795213 0)
(-0.0741311 1.42912 0)
(0.0836016 1.62005 0)
(0.229266 1.53201 0)
(0.336674 1.26831 0)
(0.0175631 -0.0247423 0)
(0.00344591 -0.47091 0)
(-0.035235 -0.795001 0)
(-0.153062 -0.882329 0)
(-0.197951 -0.771946 0)
(-0.181836 -0.651203 0)
(-0.176453 -0.629414 0)
(-0.170563 -0.606131 0)
(-0.137853 -0.537106 0)
(-0.0993722 -0.480907 0)
(-0.160397 -0.376743 0)
(-0.281311 -0.240483 0)
(-0.293511 -0.277311 0)
(-0.290345 -0.387982 0)
(-0.341697 -0.421831 0)
(-0.396602 -0.369441 0)
(-0.446784 -0.186044 0)
(-0.452891 0.165827 0)
(-0.356306 0.687802 0)
(-0.187158 1.23129 0)
(0.0374161 1.41387 0)
(0.245618 1.36318 0)
(0.401476 1.14269 0)
(0.0775332 -0.0912003 0)
(0.131897 -0.424552 0)
(0.091097 -0.683912 0)
(-0.0582618 -0.786134 0)
(-0.145564 -0.748618 0)
(-0.162348 -0.67016 0)
(-0.158856 -0.634839 0)
(-0.179003 -0.59968 0)
(-0.204084 -0.5178 0)
(-0.257281 -0.393011 0)
(-0.349535 -0.257676 0)
(-0.353919 -0.225143 0)
(-0.317263 -0.296567 0)
(-0.338134 -0.350091 0)
(-0.398319 -0.36717 0)
(-0.466685 -0.319948 0)
(-0.5204 -0.158299 0)
(-0.530833 0.135059 0)
(-0.450839 0.547353 0)
(-0.256235 0.973415 0)
(-0.00719227 1.15609 0)
(0.224678 1.14764 0)
(0.399971 0.988006 0)
(0.0748293 -0.239213 0)
(0.151057 -0.450936 0)
(0.149778 -0.585891 0)
(0.0226067 -0.659478 0)
(-0.0966767 -0.665656 0)
(-0.173421 -0.630619 0)
(-0.209842 -0.59729 0)
(-0.265902 -0.536688 0)
(-0.328356 -0.435913 0)
(-0.375676 -0.321708 0)
(-0.363176 -0.263712 0)
(-0.317593 -0.270315 0)
(-0.306136 -0.293349 0)
(-0.340185 -0.30107 0)
(-0.401356 -0.301601 0)
(-0.478458 -0.260795 0)
(-0.535923 -0.130833 0)
(-0.538068 0.106588 0)
(-0.46277 0.419798 0)
(-0.288359 0.73265 0)
(-0.0582618 0.906093 0)
(0.161236 0.932304 0)
(0.324723 0.833107 0)
(0.045969 -0.355545 0)
(0.0983119 -0.51199 0)
(0.118222 -0.535589 0)
(0.0423039 -0.558059 0)
(-0.0512594 -0.562067 0)
(-0.156823 -0.54331 0)
(-0.220983 -0.533822 0)
(-0.274228 -0.475873 0)
(-0.311519 -0.408385 0)
(-0.306666 -0.346141 0)
(-0.279621 -0.308505 0)
(-0.265131 -0.287281 0)
(-0.279435 -0.271053 0)
(-0.31328 -0.254762 0)
(-0.36699 -0.234851 0)
(-0.439489 -0.193573 0)
(-0.50396 -0.0989884 0)
(-0.517722 0.0763709 0)
(-0.455195 0.312959 0)
(-0.316857 0.54567 0)
(-0.1312 0.698879 0)
(0.053351 0.750058 0)
(0.190991 0.702894 0)
(0.0320903 -0.414018 0)
(0.0406875 -0.537505 0)
(0.0497068 -0.514937 0)
(0.0185308 -0.505187 0)
(-0.0235763 -0.487464 0)
(-0.10337 -0.458115 0)
(-0.163451 -0.487767 0)
(-0.189248 -0.451525 0)
(-0.211299 -0.408376 0)
(-0.214772 -0.360126 0)
(-0.219086 -0.314856 0)
(-0.227261 -0.277115 0)
(-0.246044 -0.246218 0)
(-0.274537 -0.216183 0)
(-0.316853 -0.179174 0)
(-0.37212 -0.128956 0)
(-0.430164 -0.0533554 0)
(-0.461818 0.0664027 0)
(-0.434086 0.232206 0)
(-0.341797 0.406954 0)
(-0.207643 0.53879 0)
(-0.06542 0.604039 0)
(0.0488584 0.598918 0)
(0.0240859 -0.439405 0)
(0.00986797 -0.525041 0)
(-0.00559855 -0.501935 0)
(-0.0120036 -0.486554 0)
(-0.0288634 -0.456734 0)
(-0.0584427 -0.397667 0)
(-0.10823 -0.454313 0)
(-0.123712 -0.429352 0)
(-0.152404 -0.386172 0)
(-0.167386 -0.342582 0)
(-0.183535 -0.300194 0)
(-0.194071 -0.262745 0)
(-0.210067 -0.225411 0)
(-0.231982 -0.185661 0)
(-0.262854 -0.138811 0)
(-0.300376 -0.0810709 0)
(-0.340504 -0.0090314 0)
(-0.371866 0.0813033 0)
(-0.37219 0.193635 0)
(-0.326003 0.316934 0)
(-0.24132 0.422808 0)
(-0.139994 0.488744 0)
(-0.0471553 0.508461 0)
(0.0131878 -0.450966 0)
(-0.000504396 -0.498738 0)
(-0.0285129 -0.487951 0)
(-0.0309771 -0.476955 0)
(-0.0485414 -0.449493 0)
(-0.0446741 -0.366142 0)
(-0.077905 -0.423863 0)
(-0.094802 -0.404307 0)
(-0.119516 -0.362311 0)
(-0.130896 -0.325999 0)
(-0.144572 -0.287488 0)
(-0.154882 -0.249947 0)
(-0.169415 -0.208505 0)
(-0.186326 -0.163172 0)
(-0.207775 -0.110873 0)
(-0.232664 -0.0499533 0)
(-0.257996 0.0202087 0)
(-0.27796 0.0990437 0)
(-0.283514 0.184432 0)
(-0.264016 0.271519 0)
(-0.216567 0.349593 0)
(-0.15048 0.405044 0)
(-0.0808018 0.431209 0)
(0.00504624 -0.455011 0)
(-0.00283871 -0.476573 0)
(-0.0254684 -0.470934 0)
(-0.0337525 -0.463983 0)
(-0.0522285 -0.44236 0)
(-0.044659 -0.362287 0)
(-0.0505075 -0.403574 0)
(-0.0691072 -0.385368 0)
(-0.0831521 -0.348952 0)