/*--------------------------------*- C++ -*----------------------------------*\
| =========                 |                                                 |
| \\      /  F ield         | OpenFOAM: The Open Source CFD Toolbox           |
|  \\    /   O peration     | Version:  2.3.0                                 |
|   \\  /    A nd           | Web:      www.OpenFOAM.org                      |
|    \\/     M anipulation  |                                                 |
\*---------------------------------------------------------------------------*/
FoamFile
{
    version     2.0;
    format      ascii;
    class       volScalarField;
    location    "60";
    object      sigmaEq;
}
// * * * * * * * * * * * * * * * * * * * * * * * * * * * * * * * * * * * * * //

dimensions      [1 -1 -2 0 0 0 0];

internalField   nonuniform List<scalar> 
1000
(
10586.2
11669.1
13223
14203.7
14703
14884.7
14867.9
14731.5
14534.9
14270.9
13522.6
13245.5
14035.3
14639.6
14940.3
15009.6
14926.1
14749.7
14527.5
14243.4
16359.7
14815.2
14781.1
14940.3
14998.1
14931.3
14771
14552.8
14308.7
14024.4
19023.1
16318.4
15452.2
15122.5
14902.7
14678.8
14431.2
14166.9
13900.3
13615
21445.7
17703.8
16040.8
15207.4
14687.9
14290.1
13945
13629.2
13338.1
13051.7
23567
18926.4
16540.1
15219.2
14394.8
13814.3
13364.4
12992.6
12675.4
12387.6
25334.1
19948.6
16945
15184.7
14071
13310.3
12754.3
12325
11981.1
11690.9
26699.4
20740.8
17253.1
15130.2
13765.9
12843
12188.9
11705.6
11336.4
11043.1
27615.2
21282.3
17461.2
15075.9
13523.6
12475.6
11744.2
11218
10829
10533.8
28035.3
21568.8
17548.1
15007.9
13348.3
12229.9
11455.2
10905.5
10507.5
10215.9
10320.1
6605.26
4572.95
3625.75
3319.62
3381.58
3635.85
3977.44
4349.04
4721.54
10035
6491.05
4965.93
4460.23
4397.47
4526.9
4745.72
5006.61
5283.3
5561.93
9127.67
6330.16
5651.11
5701.21
5898.91
6105.71
6301.14
6486.41
6663.05
6836.98
7768.45
6167.45
6513.76
7073.46
7486.09
7760.12
7943.88
8073.57
8170.72
8257.03
6031.39
6105.71
7470.46
8445.37
9024.98
9351.05
9525.8
9611.67
9645.07
9659.11
4023.47
6273.72
8468.31
9745.66
10444
10804
10967
11014.8
10994.7
10947.6
2127.35
6770.18
9474.53
10932.7
11698.9
12071.8
12216.9
12228.7
12162
12061.8
2381.87
7619.98
10466.8
11981.6
12762.7
13125.2
13243.9
13219.2
13110.4
12962.8
4789.79
8774.56
11429.5
12878.8
13620.3
13948
14031.2
13969.3
13822.9
13633.7
7635.33
10153.2
12351.7
13619.2
14266.4
14534.4
14573.3
14475.2
14299.2
14099.9
5067.7
5385.79
5673.29
5931.57
6161.16
6362.68
6536.78
6684.13
6805.23
6900.4
6969.67
7012.71
7028.83
7016.96
6975.59
6902.86
6796.72
6655.87
6482.61
6305.53
5778.11
5952.8
6130.79
6303.94
6466.2
6613.84
6744.46
6856.44
6948.6
7019.97
7069.57
7096.35
7099.07
7076.28
7026.35
6947.5
6837.9
6695.32
6514.79
6299.65
6901.01
6900.2
6926.57
6971.49
7026.26
7084.32
7140.44
7190.45
7230.99
7259.26
7272.81
7269.43
7246.96
7203.27
7136.17
7043.36
6922.25
6769.23
6578.77
6348.46
8185.22
8022.15
7898.27
7809
7745.45
7700.47
7667.71
7641.55
7617.04
7589.88
7556.29
7512.86
7456.48
7384.14
7292.94
7179.89
7041.72
6874.72
6675.05
6429.68
9475.47
9180.17
8925.31
8714.31
8539.01
8392.95
8269.94
8164.03
8069.64
7981.61
7895.26
7806.29
7710.77
7604.99
7485.39
7348.48
7190.86
7009.22
6801.28
6540.99
10677.5
10286.2
9926.85
9614.68
9342.89
9106.32
8899.83
8717.98
8555.31
8406.47
8266.39
8130.31
7993.78
7852.65
7703
7541.15
7363.77
7168.15
6953.25
6681.81
11731.3
11282.7
10848.7
10459.7
10110.8
9798.87
9520.3
9270.84
9045.76
8840.06
8648.78
8467.09
8290.42
8114.47
7935.25
7749.17
7553.24
7345.38
7125.72
6850.81
12597.6
12131.1
11653.8
11213.9
10809.3
10439.5
10102.8
9796.89
9517.97
9262.04
9024.51
8801.03
8587.08
8378.64
8171.85
7963.62
7751.39
7534.06
7312.84
7045.54
13250.2
12800.4
12309.3
11844.1
11406.5
10998.1
10620
10271.2
9949.77
9652.64
9376.34
9116.91
8870.57
8633.55
8402.7
8175.33
7950.05
7726.76
7508.79
7262.36
13697.8
13266.5
12779.9
12313
11866.3
11441.6
11041.1
10665.9
10315.7
9988.96
9683.45
9396.24
9124.3
8864.65
8614.82
8373.06
8139.09
7914.81
7705.8
7498.32
14002.1
13488.4
13015.2
12560.6
12120.9
11698.3
11295.2
10913.3
10553.1
10214.2
9895.21
9594.3
9309.24
9038.1
8779.23
8532.12
8297.58
8079.21
7884.82
7733.85
13677.3
13367.7
12979.5
12579.8
12179.4
11785.1
11401.8
11032.7
10679.7
10343.8
10024.7
9721.89
9434.29
9161.04
8901.77
8656.99
8428.83
8222.19
8046.01
7919.36
13341.7
13129.2
12826.2
12489.3
12136.1
11778.1
11422.7
11074.8
10737.5
10412.8
10101.8
9804.75
9521.87
9253.36
8999.89
8763.11
8546.27
8355.13
8199.6
8096.58
12994.3
12844.5
12607.6
12329.4
12024.9
11706.6
11383.5
11061.5
10745.1
10437.1
10139.6
9853.75
9580.82
9321.93
9078.74
8853.84
8651.35
8477.89
8343.36
8262.76
12636.8
12534.4
12349.3
12121.8
11863.2
11584.9
11295.8
11002.8
10710.7
10423.4
10143.5
9873.15
9614.34
9369.03
9139.7
8929.7
8743.83
8588.94
8475.27
8415.71
12275.5
12210.5
12067.7
11883.2
11666
11425.8
11170.8
10907.9
10642.3
10378.3
10119
9867.36
9625.86
9397.18
9184.42
8991.49
8823.57
8687.86
8594.06
8553.42
11916.9
11881.3
11773.6
11625.7
11445.2
11240.3
11018.2
10785.5
10547.3
10308.1
10071.5
9840.76
9618.87
9409
9214.7
9040.26
8891.09
8774.13
8699.04
8675.11
11566
11553.4
11474.7
11358.1
11210
11037.3
10846.3
10643
10432.4
10218.7
10006
9797.5
9596.7
9407.04
9232.38
9077.17
8946.82
8848.2
8790
8780.09
11226.4
11231.3
11176.7
11086.9
10967.4
10823.9
10662
10486.9
10303.3
10115.4
9926.89
9741.42
9562.49
9393.77
9239.25
9103.46
8991.67
8910.16
8867.19
8868.84
10900
10918.2
10883.6
10816.9
10722.6
10605.7
10470.8
10322.6
10165.2
10002.6
9838.36
9676.01
9519.13
9371.46
9237.04
9120.33
9026.33
8960.96
8931.18
8941.79
10587.7
10616.1
10598.1
10551.4
10479.7
10387
10277.3
10154.6
10022.5
9884.48
9744.02
9604.47
9469.31
9342.27
9227.38
9128.99
9051.83
9001.01
8982.83
9000.41
10289.5
10325.9
10322.2
10293.2
10241.9
10171.4
10085.3
9986.67
9878.74
9764.57
9647.2
9529.76
9415.58
9308.29
9211.87
9130.59
9068.89
9031.49
9023.15
9045.88
10004.8
10048
10057
10044.1
10011.5
9961.93
9897.95
9822.25
9737.45
9646.14
9550.96
9454.7
9360.44
9271.63
9192.16
9126.32
9078.52
9052.82
9053.36
9080.29
9732.88
9782.56
9803.61
9805.83
9791.03
9761.16
9718.27
9664.42
9601.7
9532.22
9458.22
9382.07
9306.47
9234.57
9170.13
9117.51
9081.37
9066.03
9074.39
9105.21
9473.24
9530.04
9563.12
9580.25
9582.73
9571.91
9549.25
9516.25
9474.52
9425.76
9371.78
9314.56
9256.32
9199.73
9148.17
9106.03
9078.58
9070.99
9086.99
9123
9225.91
9291.18
9337.1
9369.59
9389.43
9397.35
9394.19
9381
9359.01
9329.62
9294.31
9254.72
9212.57
9169.92
9129.36
9094.75
9071.82
9068.43
9090.69
9135.16
8991.71
9067.58
9127.99
9177.11
9214.94
9241.46
9257.03
9262.36
9258.5
9246.66
9228.24
9204.66
9177.35
9147.7
9117.25
9088.27
9065.65
9059.32
9084.31
9143.89
8772.58
8861.92
8939.79
9007.76
9064.58
9109.53
9142.7
9164.74
9176.69
9179.86
9175.72
9165.8
9151.57
9134.19
9114.36
9092.09
9068.69
9052.9
9068.93
9148.9
8570.24
8679.07
8779.73
8869.54
8946.15
9008.79
9057.67
9093.68
9118.09
9132.5
9138.74
9138.76
9134.47
9127.62
9119.15
9108.4
9092.94
9072.43
9067.29
9150.3
8384.63
8532.35
8662.63
8775.61
8870.99
8948.98
9010.27
9056.07
9088.09
9108.42
9119.45
9123.81
9124.21
9123.4
9124.08
9128.89
9139.37
9154.32
9165.68
9131.72
9991.58
10282.2
10759.2
11371.2
12035.3
12676.4
13232.1
13654.6
13910.7
13980.3
9803.3
10053.8
10478.7
11034.1
11649.6
12261
12814.1
13266.1
13585.9
13710.1
9644.41
9860.33
10233.9
10729.5
11287.4
11852.9
12379.2
12828.9
13172.1
13337.7
9508.95
9695.83
10023.3
10463.2
10965.8
11484.3
11978.2
12414.5
12764.5
12960.7
9390.01
9551.91
9838.01
10226.7
10676.4
11147.4
11604.9
12019.6
12364.7
12580.2
9281.68
9421.96
9671.47
10013.6
10413.8
10838.4
11257.5
11645.3
11977.5
12201.7
9179.18
9300.8
9518.24
9818.69
10173.4
10554.1
10934.7
11292.9
11606.7
11831.1
9078.69
9184.24
9373.79
9637.41
9951.13
10290.9
10634.4
10962.1
11254.5
11472.8
8977.03
9068.83
9234.29
9465.67
9742.84
10045.4
10354
10651.8
10921.4
11129.5
8871.44
8951.53
9096.29
9299.7
9544.71
9813.85
10090.5
10359.8
10606.6
10802.1
8759.36
8829.55
8956.69
9136.05
9353.07
9592.75
9840.67
10083.7
10308.6
10490.6
8638.3
8700.2
8812.5
8971.41
9164.39
9378.49
9601.08
9820.56
10025.3
10194
8505.66
8560.78
8660.76
8802.54
8975.23
9167.57
9368.46
9567.52
9754.42
9911
8358.67
8408.43
8498.45
8626.18
8782.1
8956.49
9139.48
9321.68
9493.72
9640.12
8194.2
8240.1
8322.38
8438.88
8581.43
8741.67
8910.84
9080.2
9241.01
9379.95
8008.77
8052.44
8129.02
8236.89
8369.4
8519.47
8679.22
8840.37
8994.43
9129.67
7798.58
7841.85
7914.34
8016.03
8142.02
8286.22
8441.4
8599.68
8752.6
8889.15
7560.67
7604.14
7673.3
7771.61
7895.33
8038.59
8194.5
8355.77
8514.21
8659.07
7297.32
7333.49
7399.95
7499.44
7626.48
7774.4
7936.43
8106.01
8276.26
8438.35
7038.08
7028.35
7091.96
7191.65
7319.13
7469.1
7636.44
7816.01
8003.46
8198.28
)
;

boundaryField
{
    left
    {
        type            symmetryPlane;
    }
    right
    {
        type            calculated;
        value           nonuniform List<scalar> 
30
(
6294.97
6290.16
6350.94
6447.72
6574.67
6728.19
6904.27
7098.25
7304.93
7521.76
7724.53
7911.65
8090.18
8257.63
8411.63
8550.45
8673
8778.86
8868.23
8941.84
9000.85
9046.84
9081.57
9107.09
9125.46
9139.03
9150.13
9159.62
9161.7
9107.21
)
;
    }
    down
    {
        type            symmetryPlane;
    }
    up
    {
        type            calculated;
        value           nonuniform List<scalar> 
30
(
7035.06
7025.38
7094.78
7201.9
7336.68
7492.35
7662.45
7840.73
8022.13
8206.48
8376.41
8526.54
8658.22
8772.03
8868.02
8946.51
9008.23
9054.43
9086.79
9107.43
9118.76
9123.41
9124.13
9123.69
9124.94
9130.85
9143.56
9161.8
9173.22
9114.08
)
;
    }
    hole
    {
        type            calculated;
        value           nonuniform List<scalar> 
20
(
10615.5
13666.2
16601.6
19351.3
21849.4
24035.4
25855.5
27261
28201.3
28632.9
10538
10243.9
9296.63
7866.28
6015.9
3799.22
1271.35
1505.7
4460.19
7522.06
)
;
    }
    frontAndBack
    {
        type            empty;
    }
}


// ************************************************************************* //
