/*--------------------------------*- C++ -*----------------------------------*\
| =========                 |                                                 |
| \\      /  F ield         | OpenFOAM: The Open Source CFD Toolbox           |
|  \\    /   O peration     | Version:  2.3.0                                 |
|   \\  /    A nd           | Web:      www.OpenFOAM.org                      |
|    \\/     M anipulation  |                                                 |
\*---------------------------------------------------------------------------*/
FoamFile
{
    version     2.0;
    format      ascii;
    class       volSymmTensorField;
    location    "60";
    object      sigma;
}
// * * * * * * * * * * * * * * * * * * * * * * * * * * * * * * * * * * * * * //

dimensions      [1 -1 -2 0 0 0 0];

internalField   nonuniform List<symmTensor> 
1000
(
(7758.59 -5579.5 3.82345e-13 4559 -2.48428e-13 2842.52)
(10919.3 -4250.42 1.78917e-14 1162.98 7.61293e-14 2788.21)
(12527.4 -3360.27 1.29772e-13 -678.552 6.60772e-14 2734.35)
(13348.3 -2728.13 2.13525e-14 -1687.74 -1.80733e-14 2690.9)
(13737 -2262.97 9.89132e-14 -2230.31 5.40221e-14 2655.4)
(13879 -1910.86 -7.34488e-16 -2500.38 6.74685e-15 2625.84)
(13876.9 -1638.06 -7.83683e-14 -2607.36 -4.27753e-14 2600.67)
(13790.1 -1422.25 -1.19519e-13 -2617.31 -5.67877e-14 2578.33)
(13662.6 -1244.51 0 -2573.32 0 2559.06)
(13494.7 -1016.73 1.29584e-14 -2496.45 -1.70825e-15 2538.07)
(10736.5 -6855.9 2.30252e-13 5125.45 -1.59293e-13 3660.46)
(13140 -4603.82 -5.75134e-14 1852 3.17008e-14 3459.7)
(14255.2 -3206.4 6.75072e-14 51.5252 3.20109e-14 3301.56)
(14726.5 -2297.3 2.41858e-14 -969.263 -1.55882e-14 3174.75)
(14857.5 -1684.33 -9.80363e-14 -1548.26 -5.52356e-14 3071.37)
(14804 -1258.83 -4.42108e-15 -1865.29 1.02409e-14 2985.85)
(14650 -955.754 8.59124e-14 -2022.87 4.6223e-14 2913.96)
(14444.5 -733.614 -8.16378e-14 -2082.72 -3.79934e-14 2852.72)
(14223.9 -561.831 -2.67181e-14 -2082.07 5.55603e-15 2801.97)
(13982.1 -367.888 -1.31412e-14 -2021.97 -1.63636e-14 2760.04)
(14028.6 -7806.63 1.73878e-13 5243.04 -1.49123e-13 4447.31)
(15418.1 -4793.45 -3.093e-14 2373.88 1.2381e-14 4105.84)
(15900.8 -2981.89 -5.57801e-16 772.158 2.38324e-16 3847.6)
(15947.8 -1850.71 -1.30541e-14 -172.466 6.12053e-15 3640.46)
(15783.8 -1122.46 -9.72619e-14 -739.203 -5.3945e-14 3471.83)
(15518.8 -642.755 -8.17043e-14 -1077.9 -5.21068e-14 3332.51)
(15209.8 -320.791 -3.36358e-14 -1274.51 -2.14345e-14 3215.83)
(14888.4 -100.738 3.33418e-14 -1381.36 1.96859e-14 3117.01)
(14578.5 54.7841 -1.58393e-14 -1429.73 4.29605e-15 3034.33)
(14271.5 213.311 -1.08307e-14 -1415.7 -1.50109e-14 2966.73)
(17492.2 -8321.92 2.96715e-13 4974.02 -1.33409e-13 5184.51)
(17676.5 -4785.73 -7.57413e-14 2737.76 -3.21942e-14 4710.98)
(17425.3 -2696.01 1.57128e-15 1462.68 -4.39661e-16 4358.77)
(16997.6 -1421.14 0 667.133 0 4076.48)
(16515.5 -623.225 8.12909e-14 153.524 5.61545e-14 3846.7)
(16031.5 -115.641 -6.12043e-15 -184.7 2.40208e-15 3656.95)
(15568.2 210.062 -7.29406e-14 -409.776 -4.19192e-14 3498.1)
(15135.7 419.592 5.20319e-14 -560.258 4.22077e-14 3363.57)
(14742.3 556.04 -1.37686e-14 -659.577 4.96398e-15 3249.86)
(14373.3 682.538 5.40799e-14 -700.739 3.06396e-14 3155.2)
(20955.8 -8326.7 -2.72591e-13 4412.21 4.6231e-14 5854.15)
(19830.8 -4560.4 -1.80622e-13 2963.81 -5.47292e-14 5260.29)
(18795.1 -2358.64 1.70361e-14 2103.46 -2.22133e-15 4822.75)
(17871.4 -1035.34 1.09779e-14 1507.67 -1.56674e-15 4472.08)
(17065.6 -222.277 0 1076.97 0 4186.74)
(16364.9 282.521 1.54124e-13 756.41 8.57152e-14 3951.08)
(15753.7 595.737 1.0516e-13 512.58 5.80452e-14 3753.77)
(15218 787.656 5.53922e-14 323.479 3.87662e-14 3586.5)
(14749.4 903.986 -4.0624e-14 175.079 -9.75088e-15 3444.1)
(14326.7 1001.3 -5.54593e-14 76.4202 -2.98799e-14 3323.8)
(24233.4 -7787.78 -4.32855e-13 3674.52 7.29533e-14 6440.28)
(21793.6 -4112.78 1.46467e-13 3081.31 2.88948e-14 5740.35)
(19979.8 -1980.66 9.34081e-14 2674.57 2.56307e-14 5227.94)
(18572.6 -711.835 0 2303.39 0 4817.53)
(17456.9 58.1164 -7.57238e-14 1972 -4.06578e-14 4483.6)
(16553.2 528.143 4.12095e-17 1680.51 2.12188e-17 4207.78)
(15806.5 812.683 1.35804e-13 1425.96 6.45697e-14 3976.72)
(15178.7 980.564 6.33254e-14 1204.03 2.79678e-14 3780.64)
(14645.3 1076.26 4.94571e-15 1010.81 -3.30316e-15 3612.95)
(14178.9 1148.04 -4.44039e-14 856.565 -1.55665e-14 3469.72)
(27136.5 -6718.8 -6.72152e-14 2886.26 3.90039e-15 6928.32)
(23479.8 -3455.9 1.73556e-13 3122.37 4.58891e-14 6138.97)
(20954.9 -1573.27 0 3157.26 0 5564.34)
(19110.9 -459.983 -1.15894e-13 3007.99 -4.16738e-14 5104.36)
(17718.7 210.285 -1.36384e-16 2778.51 -5.06919e-17 4730.12)
(16636.2 614.784 -1.38808e-13 2521.08 -5.46241e-14 4420.92)
(15772.4 855.41 -9.11232e-16 2261.84 4.64862e-15 4161.75)
(15067 993.457 4.42316e-15 2013.33 -5.58441e-15 3941.62)
(14480.6 1068.34 3.34503e-14 1781.38 4.41738e-15 3752.77)
(13980.3 1118.83 -1.72903e-16 1577.21 1.43936e-16 3590.18)
(29486.5 -5180.03 -7.22466e-14 2167.87 -2.69612e-14 7304.86)
(24812.4 -2622.15 4.35439e-14 3117.19 2.40087e-14 6445.28)
(21701.1 -1150.12 -7.91571e-14 3533.61 -2.51077e-14 5823.39)
(19498.8 -281.807 -9.65857e-14 3579.03 -2.77318e-14 5325.66)
(17880.9 238.744 1.03319e-16 3441.38 7.84197e-17 4920.52)
(16653.9 550.57 -2.84437e-17 3216.96 -5.02881e-17 4585.58)
(15696.8 733.9 -6.26099e-14 2956.75 -1.55137e-14 4304.66)
(14930.9 837.163 -5.55255e-14 2687.93 -1.87999e-14 4065.89)
(14304.5 891.397 2.7447e-15 2424.86 -3.91026e-15 3860.63)
(13779.7 925.019 5.8863e-15 2179.62 1.96163e-15 3682.92)
(31119.7 -3276.16 3.04192e-13 1619.31 -1.44158e-14 7555.16)
(25728 -1668.3 1.39839e-13 3089.12 5.83775e-15 6650.11)
(22203.7 -735.718 -1.27791e-14 3790.24 -1.36793e-14 5998.61)
(19746.9 -183.281 9.07716e-14 3983.53 1.2041e-14 5476.25)
(17968.8 147.915 4.24926e-15 3916.24 6.4378e-15 5050.38)
(16640.1 345.829 7.05021e-14 3717.7 1.97454e-14 4697.96)
(15618.4 461.834 0 3457.82 0 4402.19)
(14811.5 527.023 0 3174.72 0 4150.66)
(14158.8 561.356 -2.45246e-14 2889.01 -4.98205e-15 3934.12)
(13619.1 582.319 1.89179e-14 2613.48 -1.212e-14 3745.99)
(31914.7 -1153.09 7.646e-15 1322.44 1.30394e-14 7670.11)
(26224.9 -709.708 -4.49371e-13 3090.13 -9.40984e-15 6765)
(22448.6 -409.269 5.3905e-14 3938.65 -1.19898e-14 6089.37)
(19834.2 -219.823 9.37384e-14 4205.03 3.86934e-15 5547.52)
(17960.7 -101.922 7.84603e-14 4169.54 3.45697e-15 5106.98)
(16573.9 -28.4058 0 3980.67 0 4743.37)
(15516.7 17.3771 0 3718.34 0 4438.87)
(14688.8 45.6381 3.12525e-16 3425.93 -3.58185e-15 4180.31)
(14024.5 63.1242 7.2154e-14 3126.53 3.22459e-15 3957.93)
(13481.4 75.5609 -1.09703e-15 2832.01 -2.51429e-16 3764.64)
(-484.993 427.093 -1.24327e-14 -11746.4 2.08191e-13 -2822.62)
(-497.125 170.602 1.63229e-15 -7680.01 -3.97391e-14 -1887.03)
(-104.262 -32.0479 0 -5127.51 0 -1207.33)
(606.17 -151.671 5.70294e-15 -3473.24 1.85956e-14 -661.631)
(1426.71 -213.085 -7.85644e-15 -2371.35 1.14793e-14 -217.993)
(2256.16 -239.599 -5.20335e-15 -1613.88 2.91775e-14 148.22)
(3048.07 -245.937 3.40724e-14 -1076.01 2.5193e-14 455.09)
(3783.43 -240.817 4.32945e-14 -681.004 2.76527e-16 715.945)
(4457.04 -229.672 -9.75252e-16 -380.497 -3.16046e-15 940.741)
(5070.17 -218.121 4.39808e-15 -144.065 5.93959e-15 1136.79)
(-562.672 1032.97 -2.67561e-15 -11346.6 -4.87349e-14 -2748.29)
(-312.856 -189.836 2.46072e-16 -7403.65 6.37732e-16 -1780.73)
(205.065 -836.976 -2.59202e-14 -5066.94 -3.76771e-14 -1121.97)
(971.344 -1166.7 -8.60071e-15 -3549.47 -7.97851e-15 -594.953)
(1807.28 -1319.81 1.17389e-14 -2524.74 4.75744e-15 -165.568)
(2631.67 -1372.64 -3.25323e-15 -1809.26 -8.71164e-15 189.785)
(3408.3 -1368.86 -1.79058e-14 -1292.94 -9.67595e-15 488.16)
(4123.18 -1333.98 -4.65483e-14 -907.121 -8.94204e-15 742.167)
(4773 -1283.27 -3.6281e-14 -607.89 2.61811e-16 961.179)
(5357.02 -1233.34 4.28442e-14 -366.169 2.18009e-16 1151.73)
(-642.148 1489.21 -4.61001e-15 -10176.5 -3.58713e-14 -2496.6)
(50.1618 -458.862 5.14371e-14 -6883.31 6.07474e-14 -1576.88)
(792.058 -1465.85 4.30795e-17 -4896.29 2.57974e-16 -947.129)
(1659.99 -1966.14 -8.86374e-14 -3585.68 -5.2205e-14 -444.389)
(2529.02 -2191.98 -7.69786e-14 -2683.93 -3.53248e-14 -35.7483)
(3348.23 -2264.32 -3.49504e-14 -2039.92 -1.43754e-14 301.918)
(4098.87 -2250.44 -2.49869e-14 -1563.27 -1.55961e-14 585.138)
(4776.78 -2189.14 1.43261e-14 -1197.37 4.06287e-16 826.016)
(5383.76 -2103.44 -7.11948e-14 -905.851 -1.37018e-14 1033.36)
(5918.73 -2019.86 -8.90922e-14 -664.453 -8.7213e-15 1212.53)
(-667.723 1672.83 -2.27918e-14 -8488.76 4.12049e-14 -2113.03)
(625.705 -756.227 1.78128e-15 -6120.49 -1.75571e-14 -1268.03)
(1659.75 -2005.32 -3.32186e-14 -4635.57 5.46725e-15 -686.728)
(2650.34 -2616.2 3.55463e-15 -3614.15 1.7007e-14 -222.417)
(3553.55 -2883.34 5.25852e-16 -2882.59 6.3627e-16 154.837)
(4358.67 -2960.21 8.16661e-15 -2338.09 3.56463e-15 466.288)
(5069.13 -2931.11 -6.2714e-14 -1917.64 -1.84896e-14 727.268)
(5693.44 -2844.11 1.18856e-14 -1581.16 1.24334e-14 948.989)
(6240.29 -2727.6 1.69957e-14 -1302.84 6.02374e-15 1139.41)
(6707.85 -2617.43 3.83964e-14 -1065.44 1.28145e-14 1302.1)
(-558.687 1508.09 4.75711e-14 -6446.29 -1.51353e-13 -1616.53)
(1416.49 -1121.82 -4.91212e-14 -5164.88 -4.83295e-15 -865.012)
(2777.4 -2465.48 -8.02529e-14 -4284.91 -4.12199e-14 -347.888)
(3897.35 -3110.21 7.26279e-14 -3612.48 1.23028e-14 65.7387)
(4827.44 -3379.45 6.48499e-14 -3086.14 2.58527e-14 401.838)
(5605.34 -3442.4 7.06884e-14 -2662.16 2.97041e-14 679.196)
(6260.28 -3391.75 7.78293e-14 -2310.86 2.87399e-14 911.404)
(6815.13 -3279.94 -2.47359e-14 -2011.94 -1.09651e-15 1108.43)
(7286.19 -3137.86 3.2323e-14 -1752.17 2.37717e-14 1277.08)
(7670.05 -3009.92 -1.45816e-14 -1522.72 -1.23374e-14 1418.61)
(-216.628 964.472 -1.55704e-14 -4212.58 2.05128e-13 -1022.12)
(2432.54 -1566.72 -6.15081e-14 -4078.92 -3.15327e-15 -379.933)
(4109.27 -2841.82 9.97811e-14 -3847.23 2.96976e-14 60.4715)
(5342.96 -3434.39 3.86298e-15 -3553.55 -2.14041e-14 412.94)
(6282.76 -3661.9 7.58289e-14 -3251.87 3.19556e-14 699.437)
(7016.4 -3690.82 -6.79764e-14 -2961.38 -2.73042e-14 935.775)
(7599.88 -3612.14 6.03053e-14 -2688.19 2.35921e-14 1133.47)
(8070.75 -3477.04 -2.39461e-14 -2433.38 -1.1354e-15 1300.93)
(8452.79 -3315.59 4.52574e-14 -2197.31 -1.78032e-15 1443.57)
(8740.57 -3179.57 -1.64393e-14 -1980.69 -3.13603e-14 1559.97)
(458.958 55.9728 2.75618e-13 -1950.72 -4.47572e-13 -344.252)
(3683.89 -2082.41 -2.61774e-14 -2927.67 4.86222e-14 174.512)
(5616.02 -3128.96 2.19667e-13 -3329.48 8.59873e-14 527.661)
(6923.19 -3583.78 8.28063e-15 -3411.17 -2.3893e-14 810.466)
(7844.12 -3725.87 2.77313e-16 -3335.94 1.51359e-14 1040.35)
(8512.37 -3700.84 -6.77431e-14 -3182.73 -2.36147e-14 1229.92)
(9008.25 -3588.03 -1.47336e-14 -2992.18 -4.2898e-15 1388.32)
(9382.5 -3431.64 0 -2786.18 0 1522.23)
(9665.39 -3257.56 -5.44803e-14 -2578.67 -2.26904e-14 1635.4)
(9849.19 -3123.3 8.17684e-14 -2380.71 2.54864e-14 1723.5)
(1553.59 -1160.55 1.15868e-13 180.136 -2.68989e-13 400.09)
(5173.34 -2646.63 1.01148e-13 -1775.35 -2.07277e-14 784.15)
(7255.56 -3323.32 -4.50641e-14 -2740.57 -4.7198e-14 1041.92)
(8572.93 -3565.24 9.01511e-14 -3163.33 7.2617e-14 1248.37)
(9435.72 -3583.54 -2.76067e-13 -3299.03 -1.12022e-13 1416.16)
(10013.8 -3487.26 8.10908e-14 -3277.75 3.7014e-14 1554.48)
(10406.4 -3335.14 -1.27213e-14 -3169.84 -4.20949e-15 1669.97)
(10674 -3159.51 0 -3015.34 0 1767.39)
(10851.3 -2979.41 1.315e-14 -2840.57 -9.71068e-16 1848.63)
(10927.7 -2856.18 1.56911e-14 -2667.13 -2.21306e-15 1906.28)
(3126.03 -2589.94 0 2040.34 0 1192.24)
(6892.25 -3224.93 -2.06195e-14 -679.119 2.34175e-14 1433.8)
(8983.67 -3424.52 -2.14823e-13 -2092.45 -1.56625e-13 1590.28)
(10229.6 -3397.07 -2.464e-14 -2795.35 3.52632e-14 1715.59)
(10986.8 -3263.35 -5.64675e-15 -3111.34 1.47832e-14 1817.41)
(11447.7 -3083.63 7.86651e-14 -3208.41 2.46133e-14 1901.37)
(11722.6 -2888.88 0 -3179.15 0 1971.56)
(11877.5 -2695.48 0 -3077.14 0 2030.86)
(11949.2 -2513.86 0 -2938.27 0 2079.45)
(11922.5 -2409.73 1.12787e-13 -2793.3 2.75141e-14 2106.75)
(5200.83 -4109.76 2.30406e-13 3522.89 -2.33097e-13 2013.17)
(8819.88 -3775.24 -5.34005e-14 312.138 4.83591e-14 2107.39)
(10755.9 -3435.35 -4.6098e-14 -1399.5 -4.85719e-14 2159.16)
(11837.2 -3106.92 -9.32888e-14 -2301.77 -7.73644e-14 2200.48)
(12436.5 -2806.75 1.97208e-13 -2755.78 1.01238e-13 2234.02)
(12752 -2538.9 0 -2951.43 0 2261.67)
(12896 -2302.28 -7.80907e-14 -2994.19 -4.04429e-14 2285.02)
(12935.5 -2093.76 0 -2945.07 0 2305.49)
(12911.7 -1910.12 1.11804e-14 -2843.71 -1.31783e-15 2323.37)
(12821.5 -1819.38 -2.64538e-14 -2734.94 -1.42585e-14 2327.67)
(5610.21 -188.274 6.69966e-14 41.2278 -8.28625e-15 1304.18)
(6106.39 -157.923 -1.0131e-14 214.48 -2.76449e-14 1458.66)
(6552 -133.376 -8.39516e-14 370.369 -1.12177e-14 1597.47)
(6955.26 -112.461 -9.54282e-17 515.836 -3.34711e-19 1724.1)
(7321.44 -94.5133 -5.83354e-15 656.094 -1.60858e-14 1840.97)
(7654.81 -79.0453 -3.02361e-14 795.349 -1.53969e-16 1950.04)
(7958.96 -65.696 0 937.074 0 2052.93)
(8236.9 -54.1568 0 1084.18 0 2151.02)
(8491.15 -44.14 -6.29578e-14 1239.27 4.11641e-15 2245.48)
(8723.76 -35.3653 1.02038e-13 1404.77 1.394e-14 2337.35)
(8936.34 -27.5587 9.65508e-14 1583.08 -1.65523e-14 2427.56)
(9130.08 -20.4402 -7.02432e-14 1776.69 -7.83384e-15 2516.95)
(9305.7 -13.729 -3.55238e-14 1988.32 -4.87345e-15 2606.31)
(9463.52 -7.12199 -1.02953e-13 2220.91 -1.73826e-15 2696.41)
(9603.34 -0.291001 3.67832e-14 2477.86 5.09394e-15 2787.97)
(9724.39 7.11075 6.76292e-14 2762.92 6.50773e-16 2881.69)
(9825.3 15.2274 1.04949e-15 3080.21 -4.83134e-16 2978.19)
(9904.17 23.1136 3.26864e-14 3433.22 3.51986e-15 3077.86)
(9959.72 25.7259 -3.37267e-14 3821.85 5.63609e-16 3180.36)
(10016.9 9.07794 7.69086e-14 4240.51 5.59915e-15 3290.17)
(5854.53 -1141.04 9.25299e-14 -159.898 1.02261e-14 1314.15)
(6307.22 -1017.07 4.33191e-14 45.4532 9.94266e-15 1466)
(6713.86 -915.621 -2.14716e-14 224.709 2.75404e-15 1601.21)
(7086.89 -825.622 6.78849e-14 389.307 6.8624e-15 1725.28)
(7428.65 -745.678 2.02266e-15 545.374 8.43983e-17 1840.16)
(7741.92 -674.58 -9.6564e-14 697.813 -4.43453e-15 1947.63)
(8029.33 -611.16 9.16614e-15 850.507 5.59112e-15 2049.19)
(8293.21 -554.297 -6.39106e-14 1006.7 -1.44507e-15 2146.13)
(8535.57 -502.928 -1.71126e-15 1169.21 -9.69668e-17 2239.56)
(8758.09 -456.036 5.99714e-14 1340.66 -2.64744e-15 2330.48)
(8962.07 -412.647 4.25543e-14 1523.58 7.48632e-15 2419.77)
(9148.49 -371.803 -6.83761e-15 1720.6 -3.82258e-15 2508.25)
(9317.94 -332.561 -3.46719e-14 1934.43 -1.55153e-15 2596.7)
(9470.68 -293.94 0 2168.11 0 2685.87)
(9606.57 -254.96 -5.04163e-15 2424.94 -1.72243e-15 2776.5)
(9725.16 -214.617 -6.86438e-14 2708.67 -4.45772e-15 2869.35)
(9825.64 -172.016 -3.35772e-15 3023.62 5.30808e-17 2965.21)
(9906.59 -126.294 2.4352e-15 3375.42 -7.18654e-16 3065.08)
(9964.58 -75.4367 1.61001e-15 3773.8 -1.48365e-15 3170.4)
(10015.4 -10.9522 1.08772e-13 4249.25 3.898e-14 3291.83)
(6345.33 -1874.4 -1.01863e-14 -442.747 -2.24308e-15 1362.13)
(6727.24 -1684.39 6.56198e-14 -202.442 5.85175e-15 1505.72)
(7062.08 -1527.27 -5.86655e-14 4.19082 -1.82541e-15 1630.68)
(7375.66 -1385.92 1.81619e-14 193.603 -2.93562e-15 1746.75)
(7668.04 -1258.74 1.07048e-13 371.451 9.45763e-15 1855.27)
(7940.16 -1144.42 -1.00561e-13 542.627 -6.18062e-15 1957.57)
(8193.12 -1041.54 -3.39817e-14 711.203 -1.27579e-15 2054.84)
(8428.03 -948.62 6.48037e-14 880.674 2.52933e-15 2148.16)
(8645.93 -864.135 1.68279e-15 1054.1 1.6597e-16 2238.47)
(8847.72 -786.581 -6.52315e-15 1234.33 -2.70266e-15 2326.63)
(9034.1 -714.476 1.00328e-13 1424.07 5.69745e-15 2413.42)
(9205.59 -646.346 2.37121e-14 1626.06 -2.0915e-15 2499.61)
(9362.44 -580.717 -1.01233e-13 1843.12 -7.34056e-15 2585.9)
(9504.67 -516.087 -3.40856e-14 2078.32 -2.80898e-15 2673)
(9632.01 -450.912 2.90272e-14 2335.04 2.01855e-15 2761.63)
(9743.83 -383.574 2.97593e-14 2617.14 2.9729e-15 2852.53)
(9838.99 -312.265 -4.15761e-14 2929.31 -4.25539e-15 2946.53)
(9915.25 -234.29 -3.77024e-14 3277.87 -4.15133e-15 3044.56)
(9968.38 -143.774 2.19302e-14 3672.22 9.10015e-15 3147.83)
(9997.95 -23.6776 -3.24759e-14 4128.72 -1.8574e-14 3260)
(7039.92 -2435 -4.65947e-14 -826.63 -1.72669e-14 1433.84)
(7324.63 -2204.66 -1.48357e-14 -544.37 -5.0118e-15 1564.68)
(7562.61 -2012.98 3.22235e-14 -303.495 1.83553e-15 1675.18)
(7794.42 -1838.13 -2.2037e-14 -82.4089 -8.52204e-15 1779.7)
(8017.8 -1678.6 1.20872e-14 124.012 4.24846e-15 1878.88)
(8231.69 -1533.37 -2.0612e-14 320.335 2.47596e-15 1973.54)
(8435.43 -1401.26 -8.40777e-14 510.603 -2.06963e-14 2064.47)
(8628.64 -1280.82 -6.53462e-14 698.449 -3.72821e-15 2152.41)
(8811.1 -1170.44 2.10289e-14 887.148 -1.64536e-15 2238.06)
(8982.69 -1068.43 6.77558e-14 1079.75 4.83411e-15 2322.1)
(9143.28 -973.039 8.39219e-14 1279.16 1.11779e-14 2405.18)
(9292.71 -882.462 2.50008e-14 1488.27 8.06017e-15 2487.92)
(9430.72 -794.844 -7.86858e-14 1710 -3.17199e-15 2570.94)
(9556.9 -708.251 3.36595e-14 1947.5 3.79404e-15 2654.86)
(9670.58 -620.637 2.73667e-14 2204.19 2.83989e-15 2740.33)
(9770.79 -529.733 -2.69957e-14 2483.99 -3.79705e-15 2828.03)
(9855.98 -432.772 5.67296e-15 2791.6 4.25948e-16 2918.67)
(9923.7 -325.608 2.77244e-14 3132.83 6.49704e-15 3013.04)
(9970.51 -200.097 -4.87029e-14 3515.13 -4.44079e-15 3112.07)
(9975.36 -34.8484 -9.1072e-15 3942.54 -1.03077e-14 3211.82)
(7891.72 -2809.54 8.54091e-14 -1267.88 3.89268e-15 1528.58)
(8058.56 -2568.75 -8.74612e-14 -946.135 -2.2277e-14 1641.33)
(8182.44 -2366.33 -1.72997e-14 -669.794 2.87915e-15 1733.69)
(8316.56 -2178.12 1.49281e-14 -415.067 5.36874e-15 1823.42)
(8456.68 -2003.06 4.50014e-14 -177.3 1.55823e-14 1910.63)
(8599.56 -1840.93 1.12078e-13 47.3875 1.17727e-14 1995.45)
(8742.71 -1691.2 3.22321e-14 262.69 1.00552e-14 2078.17)
(8884.14 -1552.92 -6.66865e-14 472.133 -5.12693e-15 2159.14)
(9022.28 -1424.77 -5.82187e-14 679.044 -2.02683e-14 2238.77)
(9155.84 -1305.19 -8.90994e-14 886.586 -5.35693e-15 2317.48)
(9283.74 -1192.42 1.98967e-14 1097.79 6.81399e-15 2395.74)
(9405.03 -1084.54 2.91333e-14 1315.64 9.36836e-15 2474)
(9518.78 -979.475 -3.20124e-14 1543.14 -9.13109e-15 2552.75)
(9624.07 -874.984 9.04433e-14 1783.46 1.15481e-14 2632.51)
(9719.79 -768.579 2.6955e-14 2039.97 6.24649e-15 2713.79)
(9804.61 -657.4 -2.52565e-14 2316.48 -4.51975e-15 2797.17)
(9876.8 -537.902 4.87052e-14 2617.3 8.70711e-15 2883.26)
(9934.07 -404.914 1.05276e-13 2947.46 2.3447e-14 2972.66)
(9973.72 -248.915 -2.46629e-14 3312.84 -9.29157e-15 3066.13)
(9952.69 -46.0168 -3.38587e-14 3707.42 -2.96946e-14 3152.33)
(8846.33 -2981.05 1.21163e-14 -1715.49 7.16924e-15 1645.58)
(8883.18 -2762.44 -8.81372e-15 -1368.27 3.93311e-15 1734.21)
(8885.51 -2574.77 -1.06345e-13 -1062.2 -1.29547e-14 1805.38)
(8913.45 -2394.92 -6.91933e-14 -777.591 -7.49362e-15 1877.51)
(8961.95 -2222.59 -4.08056e-15 -510.259 -6.93234e-16 1950.39)
(9025.76 -2058.88 5.0267e-16 -257.594 4.82578e-17 2023.42)
(9100.69 -1904.37 4.2184e-14 -16.7521 1.57589e-14 2096.29)
(9183.26 -1759.01 1.67216e-13 215.318 1.64589e-14 2168.9)
(9270.58 -1622.15 1.87147e-14 441.704 5.70175e-15 2241.3)
(9360.2 -1492.68 -1.65862e-13 665.482 -1.85089e-14 2313.62)
(9450.05 -1369.12 -2.77238e-14 889.65 -8.85605e-15 2386.08)
(9538.35 -1249.66 1.64512e-13 1117.19 2.20591e-14 2458.97)
(9623.5 -1132.19 1.44942e-15 1351.08 -4.89853e-15 2532.6)
(9704.01 -1014.3 -1.62455e-13 1594.37 -2.70423e-14 2607.32)
(9778.37 -893.192 -3.52249e-14 1850.28 -6.6797e-15 2683.54)
(9844.97 -765.571 -3.08278e-14 2122.31 -6.50299e-15 2761.68)
(9901.98 -627.299 -3.04059e-14 2414.26 -4.95649e-15 2842.21)
(9947.26 -472.513 7.26048e-14 2730.38 1.85872e-14 2925.61)
(9978.67 -290.844 5.60491e-14 3075.34 1.03045e-14 3012.46)
(9934.2 -57.1594 -3.36597e-14 3434.81 -3.47048e-14 3085.16)
(9843.8 -2944.84 -6.94238e-15 -2116 -4.54186e-15 1783.34)
(9748.63 -2780.22 -4.5817e-14 -1769.17 -8.85045e-15 1841.42)
(9632.52 -2631.77 0 -1446.5 0 1889.08)
(9553.93 -2481.74 0 -1141.81 0 1941.26)
(9508.84 -2330.54 -6.24192e-14 -851.478 -2.31297e-14 1997.85)
(9490.57 -2180.93 0 -575.006 0 2057.44)
(9493.7 -2034.98 -3.61897e-14 -311.109 -1.32258e-14 2119.06)
(9513.59 -1893.85 -5.71001e-14 -57.7097 -1.9777e-14 2182.13)
(9546.2 -1757.89 4.90486e-14 187.605 1.74073e-14 2246.26)
(9588.09 -1626.74 3.43259e-14 427.552 1.15526e-14 2311.3)
(9636.26 -1499.44 -2.95965e-14 664.838 -1.00585e-14 2377.18)
(9688.17 -1374.53 3.22489e-14 902.287 5.00315e-15 2443.95)
(9741.55 -1250.08 4.15442e-14 1142.64 1.2947e-14 2511.74)
(9794.42 -1123.69 1.25975e-14 1388.76 3.73395e-15 2580.73)
(9844.86 -992.419 3.28613e-14 1643.5 3.51776e-15 2651.16)
(9891.07 -852.678 5.33484e-14 1909.93 1.28973e-14 2723.31)
(9931.15 -699.933 -1.13592e-13 2191.22 -2.95398e-14 2797.47)
(9963.13 -527.824 -9.34269e-14 2490.85 -2.94008e-14 2874)
(9985.19 -325.482 3.08692e-14 2812.42 1.12696e-14 2953.29)
(9923.69 -67.6201 -3.04349e-14 3135.69 -3.91618e-14 3013.7)
(10823.8 -2711.02 2.15241e-14 -2419.02 -4.84753e-15 1939.57)
(10605 -2626.89 -3.02922e-14 -2108.81 -6.42819e-15 1960.65)
(10383.3 -2538.25 -1.16606e-13 -1789.29 -2.34869e-14 1983.22)
(10205.7 -2437.19 1.02008e-14 -1479.79 -3.78559e-15 2013.66)
(10071.3 -2324.27 2.96663e-15 -1177.41 6.98547e-16 2052.44)
(9973.05 -2203.93 -3.52301e-14 -885.044 -5.39797e-15 2097.23)
(9904.97 -2079.71 3.25016e-14 -603.444 -1.04489e-14 2146.51)
(9861.67 -1954.21 5.16339e-14 -332.451 1.76389e-14 2199.05)
(9838.46 -1828.93 -1.22489e-13 -70.5115 -9.36714e-15 2254.14)
(9831.05 -1704.52 -2.42717e-14 184.027 -7.99752e-15 2311.17)
(9835.79 -1580.78 7.24769e-15 433.591 -9.05807e-15 2369.86)
(9849.39 -1456.82 0 680.288 0 2429.93)
(9869.12 -1331.07 1.55451e-14 926.76 5.11638e-15 2491.36)
(9892.45 -1201.33 1.24883e-13 1175.17 2.95599e-14 2554.07)
(9917.25 -1064.7 4.83456e-14 1428.19 1.23067e-14 2618.18)
(9941.49 -917.483 -5.10097e-14 1687.95 -1.36254e-14 2683.72)
(9963.37 -754.88 7.10015e-15 1957.17 -5.75583e-16 2750.9)
(9980.99 -570.186 0 2238.1 0 2819.79)
(9992.99 -352.259 1.85219e-14 2533.66 1.05481e-14 2890.77)
(9924.34 -76.4776 -1.9098e-14 2820.52 -4.03744e-14 2941.12)
(11734.8 -2297.86 1.9708e-14 -2578.4 1.36209e-16 2113.01)
(11410.4 -2309.8 -3.75166e-14 -2343.92 6.15439e-15 2092.26)
(11102 -2296.11 7.89113e-15 -2051.74 -3.91825e-15 2088.51)
(10839 -2259.81 -2.63039e-14 -1756.4 -1.14143e-14 2095.98)
(10624.9 -2200.69 4.6638e-14 -1457.38 2.66943e-14 2115.58)
(10453.2 -2124.03 1.59509e-13 -1160.85 4.08354e-14 2144.4)
(10318.2 -2034.65 -5.81744e-14 -870.827 -9.37852e-15 2180.16)
(10214.3 -1936.37 -1.28881e-13 -588.934 -1.27647e-14 2221.25)
(10136.7 -1831.98 1.97456e-14 -315.634 -1.15906e-14 2266.39)
(10080.6 -1723.2 1.19444e-13 -50.0863 1.27651e-14 2314.72)
(10041.8 -1610.78 -8.92443e-14 208.836 -2.71214e-14 2365.53)
(10016.7 -1494.54 -5.10808e-14 462.935 -3.49863e-15 2418.39)
(10002.1 -1373.49 -6.029e-14 713.822 -1.26858e-14 2472.9)
(9995.08 -1245.82 -3.23621e-15 963.489 -9.2394e-16 2528.9)
(9993.24 -1108.86 8.98777e-14 1213.48 2.48527e-14 2586.17)
(9994.55 -959.002 1.50294e-14 1465.61 4.37894e-15 2644.65)
(9997.24 -791.39 0 1721.11 0 2704.23)
(9999.88 -599.08 1.5099e-14 1981.51 7.66461e-15 2764.94)
(10001.7 -370.826 -5.7477e-14 2247.67 -2.48013e-14 2826.77)
(9938.47 -82.952 5.17822e-14 2499.08 7.31874e-14 2870.2)
(12559.1 -1720.03 5.8542e-14 -2563.13 3.95615e-14 2306.76)
(12154.4 -1832.21 9.49939e-15 -2407.88 -4.77395e-15 2249.19)
(11767.2 -1910.14 4.02715e-14 -2171 1.32277e-14 2214.51)
(11427.2 -1954.76 -8.30604e-14 -1919.13 -1.29578e-14 2194.18)
(11140.1 -1965.47 -1.08471e-13 -1650.06 -2.82906e-14 2190.01)
(10900.6 -1947.47 4.33621e-14 -1371.26 -1.43351e-15 2199.08)
(10703.4 -1906.33 1.53524e-13 -1089.48 4.06853e-14 2218.6)
(10543.2 -1847.06 4.56304e-14 -809.286 -8.34683e-16 2246.28)
(10414.6 -1773.73 -8.15927e-14 -533.614 -2.26221e-14 2280.23)
(10312.9 -1689.3 5.0386e-17 -263.682 -8.20017e-16 2319.05)
(10233.4 -1595.63 4.24105e-15 0.0909681 1.49592e-14 2361.57)
(10172 -1493.5 -1.07541e-13 258.219 -2.77147e-14 2406.97)
(10125 -1382.66 5.81619e-14 511.32 1.32162e-14 2454.54)
(10089.4 -1261.91 -2.76283e-14 760.425 -1.29946e-14 2503.8)
(10062.4 -1129.04 -1.41188e-16 1006.19 1.01705e-16 2554.28)
(10041.9 -980.753 -4.50464e-14 1249.36 -1.39958e-14 2605.67)
(10026.3 -812.364 2.79806e-14 1489.91 9.6696e-15 2657.58)
(10014.7 -617.069 6.68054e-16 1727.6 2.58318e-17 2709.77)
(10007.1 -383.325 -1.40453e-14 1960.9 -9.55191e-15 2761.85)
(9965.57 -86.7315 -8.45209e-15 2175.13 -4.10109e-15 2801.7)
(13136.3 -1219.7 -2.94339e-14 -2501.08 -2.34209e-14 2454.29)
(12689.5 -1390.16 -3.44706e-14 -2290.6 -2.02004e-14 2399.74)
(12244.4 -1542.48 -2.27853e-14 -2123.75 -7.36614e-15 2335.54)
(11867.9 -1643.78 3.13124e-14 -1915.3 1.72826e-14 2296.76)
(11543.9 -1703.93 -4.74691e-14 -1679.99 -3.73319e-14 2276.29)
(11266.3 -1729.92 -3.40116e-14 -1427.85 -2.37783e-14 2270.42)
(11030.5 -1727.61 -5.71481e-14 -1166.52 -2.04229e-14 2276.29)
(10831.7 -1702.13 -4.25001e-15 -902.07 5.97178e-15 2291.45)
(10665.7 -1657.72 1.01141e-13 -638.285 4.05527e-14 2314.02)
(10528 -1597.68 -5.57461e-15 -377.875 -1.05732e-15 2342.35)
(10414.7 -1524.25 4.81131e-14 -122.013 2.01555e-14 2375.23)
(10321.6 -1438.63 -4.52071e-14 128.449 -1.83742e-14 2411.56)
(10245.6 -1341.06 0 373.526 0 2450.56)
(10183.3 -1230.75 -1.85119e-14 612.933 -7.18741e-15 2491.44)
(10132.4 -1105.95 1.75934e-14 846.765 6.43586e-15 2533.66)
(10090.9 -963.81 -1.54064e-15 1074.3 -4.89425e-16 2576.58)
(10057.4 -800.202 -2.58046e-14 1294.8 -9.419e-15 2619.74)
(10031.4 -608.934 3.14656e-16 1505.96 2.56315e-16 2662.47)
(10013.9 -379.067 -1.45829e-14 1704.43 -3.46877e-15 2704.24)
(10012.6 -84.4018 -4.82958e-15 1886.26 -2.93297e-15 2745.9)
(13054.6 -863.595 4.27373e-14 -2282.52 1.97961e-14 2485.86)
(12750.7 -1054.64 0 -2183.08 0 2438.69)
(12368.8 -1233.89 -3.46614e-14 -2062.75 -1.13978e-14 2378.32)
(12025.2 -1367.68 6.34683e-28 -1888.39 2.22283e-28 2339.27)
(11718.6 -1458.99 7.52089e-29 -1680.28 7.91918e-29 2316.54)
(11447.6 -1514.26 4.77344e-28 -1450.28 2.33363e-28 2307.07)
(11210.1 -1539.28 5.5546e-28 -1207.14 1.91835e-28 2308.37)
(11003.6 -1538.92 -3.0133e-14 -957.462 -7.35253e-15 2318.33)
(10825.3 -1517.19 0 -706.034 0 2335.22)
(10672.3 -1477.23 2.88475e-14 -456.165 6.95724e-15 2357.57)
(10541.6 -1421.29 -2.2679e-28 -210.067 -3.70422e-29 2384.19)
(10430.2 -1350.69 -2.78114e-14 30.8303 -7.12789e-15 2414.08)
(10335.4 -1265.9 2.73707e-14 265.524 7.41426e-15 2446.38)
(10255 -1166.45 2.95104e-28 493.192 1.01301e-28 2480.34)
(10186.8 -1051.01 -2.66158e-14 712.879 -8.39973e-15 2515.31)
(10129.4 -917.239 -1.82352e-28 923.274 -6.32539e-29 2550.62)
(10082 -761.65 2.60082e-14 1122.41 1.00035e-14 2585.62)
(10044.7 -579.13 2.57607e-14 1307.29 1.10875e-14 2619.7)
(10018.9 -360.207 -1.20911e-28 1472.75 -7.03558e-29 2651.91)
(10010.5 -80.7426 -3.38763e-14 1611.6 -5.66585e-14 2682.02)
(13004.2 -519.417 1.84536e-14 -1979.36 -1.46156e-15 2544.2)
(12763.7 -719.506 -1.81712e-14 -1948.82 -1.54202e-14 2495.75)
(12439.3 -914.834 -5.30404e-14 -1886.74 -2.69785e-14 2435.22)
(12130.5 -1073.09 0 -1761.22 0 2392.91)
(11843.3 -1191.92 1.46622e-14 -1593.36 -3.78426e-15 2365.37)
(11581.2 -1275.02 -4.03946e-15 -1397.19 -1.68166e-14 2350.17)
(11345.2 -1326.95 -4.90211e-14 -1182.7 -2.08284e-14 2345.19)
(11134.5 -1351.94 -6.5545e-14 -957.343 -3.10898e-14 2348.58)
(10948 -1353.56 2.98e-14 -726.702 7.86252e-15 2358.77)
(10783.9 -1334.72 -3.39578e-14 -494.923 -1.99098e-14 2374.38)
(10640.1 -1297.58 -1.67126e-14 -265.05 -9.2263e-15 2394.25)
(10514.6 -1243.53 -3.29234e-14 -39.3853 -1.70471e-14 2417.36)
(10405.3 -1173.21 -3.2459e-14 180.244 -1.56998e-14 2442.83)
(10310.5 -1086.47 -1.60169e-14 392.16 -7.20843e-15 2469.85)
(10228.7 -982.39 -3.16452e-14 594.598 -1.32053e-14 2497.68)
(10158.8 -859.151 -3.12872e-14 785.382 -1.20751e-14 2525.58)
(10100.5 -713.987 -2.61864e-14 961.681 -1.05205e-14 2552.82)
(10054.4 -542.738 -1.53093e-14 1119.51 -5.06222e-15 2578.59)
(10022.5 -337.46 -1.51386e-14 1253.15 -4.68001e-15 2602.07)
(10008.8 -76.2589 -5.02574e-15 1354.06 -4.39974e-15 2622.2)
(12881.7 -232.66 1.59655e-13 -1707.77 7.52502e-14 2578.61)
(12689.2 -427.754 1.63735e-14 -1719.51 1.47486e-14 2531.48)
(12417.6 -625.689 -8.57473e-14 -1698.41 -3.92858e-14 2473.67)
(12148.9 -796.083 1.3128e-27 -1614.24 5.30961e-28 2431.09)
(11889.7 -932.971 4.87657e-14 -1483.78 7.7192e-15 2401.38)
(11645.7 -1036.98 0 -1320.52 0 2382.73)
(11419.8 -1110.78 1.70246e-14 -1134.85 1.21719e-14 2373.45)
(11213.3 -1157.44 -6.13488e-14 -934.745 -1.77749e-14 2371.96)
(11026.2 -1179.83 1.46992e-27 -726.346 5.02903e-28 2376.89)
(10858 -1180.39 5.87794e-14 -514.409 1.68716e-14 2386.98)
(10707.6 -1161.06 -1.64628e-14 -302.657 -9.38066e-15 2401.13)
(10573.7 -1123.18 -1.88946e-28 -94.0747 -5.55185e-29 2418.38)
(10455.1 -1067.48 -1.14651e-27 108.791 -3.59809e-28 2437.82)
(10350.5 -994.041 1.59809e-14 303.574 7.4769e-15 2458.64)
(10259.1 -902.305 -5.5622e-28 487.789 -1.97242e-28 2480.06)
(10180.3 -790.969 -5.32841e-14 658.575 -2.03974e-14 2501.29)
(10114.2 -657.962 4.57736e-28 812.387 1.87002e-28 2521.52)
(10061.9 -500.156 3.67954e-14 944.677 1.83209e-14 2539.98)
(10025.5 -310.962 -1.52435e-14 1049.08 -5.22702e-15 2555.66)
(10007.1 -70.9597 -7.38591e-14 1115.96 -1.21675e-13 2566.87)
(12707 1.11121 2.83083e-14 -1459.52 2.81379e-14 2595.58)
(12554.7 -184.355 4.95017e-14 -1499.94 2.75703e-14 2551.1)
(12329.4 -376.682 3.0622e-14 -1507.22 2.77879e-14 2497.44)
(12100 -549.608 1.68963e-28 -1455.74 3.2529e-29 2456.37)
(11871.9 -695.563 6.46982e-14 -1357.91 3.73954e-14 2426.3)
(11651 -812.921 -1.5941e-14 -1225.27 2.1049e-15 2405.93)
(11441.2 -902.484 -1.51624e-14 -1067.6 2.04513e-15 2393.9)
(11244.9 -965.98 3.2517e-14 -892.862 2.2772e-14 2388.93)
(11063.4 -1005.37 3.00924e-14 -707.435 9.26877e-15 2389.83)
(10897 -1022.52 4.56937e-14 -516.466 1.92061e-14 2395.5)
(10745.5 -1018.98 3.22576e-14 -324.146 1.89368e-14 2404.93)
(10608.5 -995.936 -1.23754e-14 -133.991 -2.82026e-16 2417.19)
(10485.3 -954.121 3.95594e-15 50.8993 7.1896e-15 2431.43)
(10375.4 -893.785 1.58482e-14 227.589 7.69957e-15 2446.84)
(10278.3 -814.669 5.86011e-14 393.038 2.44502e-14 2462.61)
(10194 -715.944 1.56322e-14 543.848 6.71032e-15 2477.97)
(10123 -596.197 5.87867e-30 675.983 2.52661e-30 2492.08)
(10066.6 -453.192 5.7019e-14 784.388 2.41787e-14 2504.07)