/*--------------------------------*- C++ -*----------------------------------*\
| =========                 |                                                 |
| \\      /  F ield         | OpenFOAM: The Open Source CFD Toolbox           |
|  \\    /   O peration     | Version:  2.3.0                                 |
|   \\  /    A nd           | Web:      www.OpenFOAM.org                      |
|    \\/     M anipulation  |                                                 |
\*---------------------------------------------------------------------------*/
FoamFile
{
    version     2.0;
    format      ascii;
    class       volScalarField;
    location    "1.75";
    object      alpha.water;
}
// * * * * * * * * * * * * * * * * * * * * * * * * * * * * * * * * * * * * * //

dimensions      [0 0 0 0 0 0 0];

internalField   nonuniform List<scalar> 
2268
(
0.99999
0.99999
0.999988
0.927136
0.872083
0.897046
0.995934
1
1
1
1
1
0.999999
0.999965
0.99994
0.999896
0.990548
0.982335
0.982335
0.992709
0.999308
0.999339
0.99981
0.99999
0.993501
0.826606
0.705368
0.705241
0.705142
0.914186
0.999084
1
1
1
1
1
0.999988
0.999705
0.99939
0.997805
0.993632
0.994155
0.996441
0.994232
0.995027
0.99981
0.999683
0.886076
0.70777
0.705241
0.705126
0.705145
0.80331
0.992677
1
1
1
0.999986
0.999972
0.999993
0.999996
0.999378
0.998396
0.998603
0.998611
0.998618
0.999292
0.999404
0.999063
0.996154
0.800585
0.708933
0.826488
0.856263
0.709045
0.711361
0.993664
1
1
0.999939
0.999847
0.999883
0.999996
0.999996
0.999996
0.998249
0.993886
0.989758
0.979088
0.994476
0.999405
0.999391
0.989422
0.847006
0.85785
0.99102
0.991008
0.949714
0.755657
0.990857
0.999995
0.999957
0.999847
0.999847
0.999907
0.999996
0.999996
0.999996
0.999695
0.974703
0.962858
0.962858
0.965068
0.990813
0.999398
0.988526
0.914934
0.981363
0.991012
0.991029
0.988524
0.94213
0.958243
0.999991
0.999979
0.999858
0.999907
0.999959
0.999995
0.999996
0.999996
0.999958
0.984581
0.963621
0.962858
0.974722
0.974368
0.997843
0.98576
0.915094
0.984767
0.991014
0.990939
0.991386
0.971303
0.957577
0.999991
0.999991
0.999985
0.999982
0.999955
0.999973
0.999995
0.999995
0.999972
0.999449
0.999251
0.988896
0.994764
0.99524
0.995517
0.98344
0.920442
0.977316
0.987122
0.991387
0.992159
0.992138
0.989374
0.999991
0.999991
0.99999
0.99997
0.999674
0.999633
0.999944
0.999918
0.999973
0.988368
0.944467
0.993622
0.995114
0.995942
0.995942
0.995088
0.995088
0.99504
0.960416
0.931748
0.931969
0.932663
0.945276
0.955186
0.970253
0.970768
0.960375
0.882977
0.882941
0.882905
0.882933
0.882969
0.916833
0.916844
0.995088
0.986391
0.909632
0.905066
0.911797
0.947491
0.937316
0.894276
0.887482
0.8847
0.918952
0.941375
0.889681
0.882915
0.882918
0.882905
0.882705
0.916763
0.893407
0.994704
0.939525
0.905965
0.910437
0.999002
0.999003
0.999009
0.999023
0.946084
0.882703
0.878553
0.878553
0.88032
0.913519
0.894471
0.882932
0.897074
0.916457
0.893407
0.993843
0.945278
0.906034
0.987827
0.998993
0.999007
0.999021
0.999026
0.999022
0.991929
0.939703
0.935354
0.962957
0.985189
0.983659
0.961721
0.967663
0.914072
0.893501
0.992725
0.988402
0.980472
0.996679
0.998848
0.998978
0.998992
0.999022
0.999029
0.999028
0.999029
0.999028
0.988967
0.987016
0.986929
0.986683
0.981677
0.893783
0.893766
0.994625
0.998241
0.998389
0.998491
0.998658
0.998669
0.998774
0.998756
0.998994
0.999029
0.999028
0.973021
0.944511
0.955921
0.986677
0.985588
0.921285
0.89396
0.893949
0.994648
0.998164
0.998279
0.998391
0.998129
0.996324
0.974866
0.974807
0.991947
0.99901
0.992552
0.945261
0.944361
0.944403
0.973006
0.985354
0.967915
0.893441
0.893957
0.996698
0.998134
0.998174
0.99766
0.9939
0.781301
0.555711
0.657732
0.885175
0.997613
0.983751
0.944702
0.944453
0.944397
0.980888
0.985072
0.984785
0.964379
0.910505
0.98336
0.977587
0.975554
0.972003
0.891339
0.807997
0.992122
0.991411
0.989008
0.967538
0.962338
0.951415
0.875747
0.884937
0.949336
0.997717
0.999973
0.993057
0.899944
0.98678
0.958723
0.973234
0.994989
0.975234
0.973623
0.9369
0.842126
0.62064
0.413744
0.406981
0.417996
0.315829
0.327112
0.443043
0.464868
0.310585
0.32638
0.606313
0.880636
0.996109
0.99905
0.960314
0.662272
0.327434
0.385328
0.58685
0.599765
0.52195
0.30617
0.0956385
0.000165221
0.000177027
0.000410034
0.0019488
0.00159903
0.0409207
0.134219
0.163918
0.108499
0.0354282
0.0297439
0.182023
0.435494
0.596457
0.377409
0.0382781
0.000819708
0.0280848
0.0874168
0.0378508
0.00782015
0.00016178
0.000157945
0.000162119
0.000159285
9.90063e-06
1.38244e-05
4.15473e-05
0.000373797
0.00039473
0.000252288
0.000852531
0.000194528
0.000182886
0.000150595
0.000180717
0.000273258
0.000297287
0.000321412
0.000378086
0.000729709
0.00266168
0.0006392
0.000340942
0.00032792
0.00041001
0.000414092
0.000158283
2.74352e-06
1.58447e-06
4.31233e-06
4.15522e-05
7.60003e-05
0.000254898
1.89651e-05
0.000176034
0.000206513
0.000132236
0.000150594
0.000180708
0.000235751
0.000296324
0.000324484
0.000405753
0.00321759
0.000566571
0.00062451
0.000686971
0.000669054
0.000157453
3.1803e-06
1.63484e-06
1.39989e-06
1.15348e-06
4.05844e-06
6.03552e-06
4.30104e-05
8.6742e-06
9.49362e-05
0.000208807
0.000120135
0.000246128
0.000227364
0.000503695
0.000324511
0.00030466
0.000275776
0.00174819
0.000548387
0.000631802
0.000591791
7.66647e-05
1.13389e-05
2.99161e-06
2.14713e-06
1.19609e-06
9.27078e-07
1.07474e-06
1.72714e-06
2.46976e-06
3.44761e-06
6.04706e-06
3.59011e-05
9.90397e-05
0.000309099
0.0015717
0.0077394
0.00208142
0.0002805
0.000225003
0.00026239
0.000546458
0.00057725
7.7614e-05
5.67238e-05
8.21531e-05
4.06665e-05
8.08229e-06
9.34458e-07
9.00947e-07
9.20553e-07
1.06339e-06
1.37131e-06
1.70252e-06
2.3912e-06
4.27929e-06
7.58778e-05
0.000535954
0.00806791
0.0100291
0.00737101
0.000236637
0.000235209
0.000246095
0.000550832
0.000331271
2.59207e-05
7.24184e-05
0.00080239
0.000586849
9.63866e-07
9.00827e-07
9.00502e-07
9.00954e-07
9.62418e-07
1.10589e-06
1.39629e-06
1.68879e-06
2.4159e-06
0.00058757
0.00803574
0.0100511
0.0100705
0.00840625
0.000235195
0.000232458
0.000235214
6.46501e-05
2.42285e-05
2.32355e-05
0.000449809
0.000896295
0.000895483
3.19163e-05
9.00449e-07
9.00903e-07
9.00633e-07
9.12207e-07
9.4593e-07
1.25292e-06
2.16248e-06
0.000312953
0.00741421
0.010017
0.0100705
0.0100291
0.00423841
0.000232365
0.000232539
0.00023134
0.000275202
3.3752e-05
2.28227e-05
0.000665873
0.000897945
0.000896295
0.000633916
8.96681e-07
9.00556e-07
9.05862e-07
8.04443e-07
8.98326e-07
1.62257e-06
0.00015254
0.00662105
0.00979192
0.00997327
0.0094227
0.0086393
0.00208638
0.000240808
0.000232427
0.000253337
0.000827022
0.000249333
1.17529e-05
0.00044687
0.000900608
0.000891717
0.00088936
0.000156946
9.33141e-07
1.17533e-06
1.06545e-06
1.00511e-05
6.4832e-05
0.00478332
0.00953789
0.0096756
0.00332032
0.000156765
0.000928365
0.00207329
0.000242531
0.000244099
0.00166109
0.000827022
0.000394318
3.23873e-06
5.83637e-05
0.000249911
0.000596936
0.000807584
0.000376492
1.43579e-06
3.3657e-06
1.37063e-05
5.5089e-05
0.00213498
0.0089146
0.00934225
0.0028108
0.000152999
0.000151546
0.000156529
0.00021119
0.000232246
0.00233616
0.0115476
0.000826082
0.000281626
6.61623e-07
3.3746e-07
1.34972e-07
2.72523e-08
5.02742e-05
0.000189501
5.71881e-05
1.41643e-05
3.20511e-05
0.000233717
0.00600185
0.00877447
0.00660491
0.000153255
0.000151546
0.000153255
0.00016727
0.000454941
0.00259863
0.00268576
0.0023883
0.000819401
6.33004e-05
1.99475e-08
2.61923e-08
1.21674e-08
8.49018e-09
2.72526e-08
7.81617e-06
4.01961e-05
4.43088e-05
4.81109e-05
0.000195361
0.00460034
0.00853277
0.00585001
0.00015812
0.000153255
0.000158207
0.000237828
0.00035196
0.000853165
0.000719963
6.39166e-05
0.000371989
9.44618e-09
9.02141e-09
8.22698e-09
7.40898e-09
7.34477e-09
8.48653e-09
4.886e-08
1.52687e-06
4.09047e-05
0.000138829
0.000213736
0.00159923
0.00651288
0.00676714
0.00380046
0.00015812
0.000630454
0.00318522
0.0019683
8.84238e-05
6.39965e-05
5.6777e-05
0.000103895
9.02053e-09
8.22697e-09
7.44272e-09
7.34202e-09
7.40593e-09
7.34188e-09
9.51286e-09
8.27125e-08
1.19296e-05
0.000113149
0.000292813
0.000798536
0.00307422
0.00673608
0.00676714
0.00354125
0.000753928
0.00326085
0.0040483
0.00362082
0.000743764
5.65188e-05
0.000474652
9.16795e-09
9.26216e-09
8.22621e-09
2.5173e-05
0.000174712
0.000172627
6.80511e-06
8.45647e-07
1.84352e-06
1.03377e-05
0.000206323
0.000344902
0.00016466
0.0015848
0.00626097
0.00683697
0.00665614
0.00325555
0.00370656
0.0063054
0.00771094
0.00650042
0.000533406
9.20417e-09
2.28947e-08
3.38284e-05
0.000412073
0.000491126
0.00049122
0.00048681
0.000130704
3.54027e-06
1.11713e-05
1.93551e-05
2.25488e-05
1.75658e-05
2.5132e-05
0.000479935
0.00317519
0.00790671
0.00791272
0.00791272
0.00791272
0.00789992
0.00151477
0.000536655
2.36177e-08
7.68186e-06
0.000361336
0.000489575
0.000491174
0.000489486
0.000488114
0.000488114
0.000118469
1.73764e-05
2.27948e-05
1.12308e-05
6.4016e-06
6.03995e-06
8.40461e-06
2.92286e-05
0.000622458
0.00123929
0.00689641
0.00771043
0.00494931
0.00143414
0.000549371
0.000118984
6.71147e-05
0.00044409
0.000385328
5.56915e-05
0.000114209
0.000422874
0.000486646
0.000485042
0.00017882
1.23863e-05
6.4043e-06
2.95751e-06
1.86182e-06
1.91279e-06
2.97804e-06
3.66566e-06
3.15987e-06
8.69665e-05
6.18646e-07
1.89732e-07
0.000194831
0.000549371
0.000379521
8.71046e-05
0.00025196
1.29738e-06
1.297e-06
1.30632e-06
1.44451e-06
0.000147442
0.000253388
0.000214544
2.13425e-05
2.90114e-06
1.71222e-06
1.29952e-06
9.9681e-07
5.17965e-07
5.58298e-07
1.37857e-07
-7.86663e-08
1.07779e-07
3.43454e-08
1.40702e-07
0.000549371
0.000186043
8.69879e-05
0.000100706
1.29716e-06
1.29738e-06
1.30789e-06
1.26014e-06
1.75823e-05
6.11921e-05
6.03903e-05
8.73928e-06
1.724e-06
1.31242e-06
1.10747e-06
7.64374e-07
3.96594e-07
1.68882e-07
6.82445e-08
3.60209e-08
1.06789e-07
1.8404e-08
1.9781e-07
0.000508003
8.86918e-05
7.2434e-05
1.12785e-06
1.29036e-06
1.32246e-06
1.50255e-06
9.6896e-07
1.87117e-05
4.4408e-05
5.07404e-05
4.44797e-05
3.16318e-05
8.75359e-06
6.22898e-07
3.17007e-07
2.10284e-07
9.59518e-08
3.3512e-08
1.39795e-08
1.41617e-08
6.88926e-09
2.19551e-09
0.000219962
0.000153352
4.76067e-05
9.39461e-07
1.38282e-06
2.31086e-06
1.90726e-06
9.28492e-07
9.45049e-07
5.05205e-06
4.32467e-05
4.83376e-05
4.85018e-05
4.01238e-05
3.2005e-06
2.23816e-07
7.77756e-08
2.64816e-08
1.24709e-08
7.00678e-09
5.12188e-09
2.38038e-09
2.09039e-09
8.22708e-05
0.000154685
5.84164e-05
9.03346e-07
9.82639e-07
2.29784e-06
9.15038e-07
9.19872e-07
9.24249e-07
9.36296e-07
3.63162e-06
4.85018e-05
4.85018e-05
4.85018e-05
4.77782e-05
8.35212e-06
1.91922e-07
3.68783e-08
8.75804e-09
3.27047e-09
2.29329e-09
2.09661e-09
2.04534e-09
8.07285e-05
0.000155556
7.25043e-05
9.03405e-07
9.084e-07
9.6596e-07
9.14509e-07
9.09446e-07
9.20096e-07
9.47719e-07
1.11886e-06
2.66235e-05
4.85018e-05
4.8524e-05
4.85011e-05
4.59807e-05
6.02314e-06
7.6949e-08
1.27307e-08
3.51708e-09
2.25831e-09
2.06482e-09
1.98262e-09
8.15548e-05
0.000155556
0.000131836
9.07187e-07
9.10982e-07
9.11405e-07
9.07833e-07
9.05415e-07
9.09667e-07
9.6781e-07
1.22267e-06
8.47452e-06
4.83073e-05
4.85374e-05
4.85186e-05
4.82155e-05
2.84961e-05
1.96278e-07
9.21035e-09
4.14262e-09
3.69262e-09
2.34168e-09
1.7941e-09
8.7325e-05
0.000155556
0.000101799
9.12325e-07
9.12922e-07
9.15882e-07
9.13917e-07
1.01277e-06
1.16385e-06
1.21783e-06
1.68517e-06
9.35219e-07
2.13806e-05
4.82653e-05
3.98474e-05
1.78425e-05
1.38012e-05
8.85814e-06
6.31012e-06
1.93879e-06
2.5231e-09
1.79067e-09
4.02169e-10
6.27478e-05
0.000102269
1.65194e-05
6.98307e-06
9.15535e-07
9.1799e-07
9.21605e-07
1.93115e-06
6.95878e-06
2.54199e-06
1.2369e-06
6.5622e-07
8.83354e-07
9.41406e-06
1.372e-06
1.15326e-06
7.06877e-06
1.20428e-05
1.20428e-05
2.18851e-06
5.61362e-10
1.63702e-09
8.57731e-11
1.78324e-05
5.32271e-06
1.75312e-06
9.57565e-07
9.17693e-07
9.22358e-07
9.25841e-07
1.0384e-06
8.7025e-06
5.86539e-05
7.94842e-05
3.71575e-07
3.71575e-07
3.715e-07
3.04169e-06
1.15326e-06
1.2535e-06
5.40968e-06
5.72856e-06
1.99166e-06
5.30533e-10
2.03206e-09
5.66212e-11
2.71516e-05
3.16035e-05
0.000344072
0.000140775
8.98735e-07
9.0883e-07
9.28401e-07
1.04908e-06
2.20646e-06
0.000101501
0.000149399
1.90431e-06
3.71463e-07
4.73524e-07
6.38032e-06
2.08271e-06
4.11415e-07
3.86069e-07
1.13567e-06
7.37573e-07
4.77739e-10
4.61448e-10
2.49855e-11
0.000199133
0.000615008
0.000704448
0.000704248
0.000305795
1.61548e-06
9.87538e-07
1.09755e-06
1.31113e-06
7.08344e-05
0.000149399
1.75427e-05
3.653e-07
4.12075e-07
6.72571e-06
6.82843e-06
2.1373e-06
4.43805e-10
4.44023e-10
4.4382e-10
3.43896e-08
1.46225e-09
3.15187e-12
0.000239507
0.000704448
0.000704448
0.000704448
0.000704248
0.000427938
7.25729e-06
1.53351e-06
1.4512e-06
4.54456e-05
0.000149399
8.48165e-05
4.69458e-07
9.2703e-08
1.65462e-06
6.85179e-06
6.84841e-06
1.0714e-07
4.43714e-10
4.93781e-09
3.22378e-08
1.0872e-09
4.44771e-12
6.94118e-05
0.000259067
0.000487671
0.000438255
0.000347804
0.000385649
0.00024474
4.82873e-05
2.32336e-06
3.19235e-05
0.000146979
0.000113148
2.28953e-06
2.845e-08
4.65693e-09
3.86517e-06
6.85117e-06
1.55136e-06
4.45269e-10
7.65831e-10
4.11497e-10
1.80699e-11
3.74131e-12
4.06346e-07
2.99694e-06
1.24672e-05
6.06812e-06
4.84027e-07
2.01926e-05
0.000193554
0.000198107
7.41351e-05
3.58429e-05
0.000139245
7.71376e-05
1.0701e-06
4.65762e-09
2.73452e-10
1.54824e-10
1.33176e-06
7.48365e-08
4.54708e-10
1.05404e-09
7.04271e-12
3.85702e-12
3.72606e-12
2.67022e-08
4.06725e-07
6.21084e-07
2.09107e-07
2.17142e-08
3.45568e-09
2.31961e-08
7.42815e-05
0.000256338
0.000110921
2.51357e-05
1.96351e-05
2.14862e-06
9.4109e-09
3.30653e-10
2.11492e-11
2.49837e-11
2.65569e-11
1.83898e-09
2.56825e-09
1.20756e-10
4.84364e-12
3.15188e-12
1.35049e-09
3.57279e-07
6.68142e-07
2.98492e-07
-3.28847e-09
1.37604e-12
3.94148e-09
2.31725e-08
0.000344562
0.000202424
3.67696e-05
5.72554e-05
1.0679e-05
2.90297e-08
4.09657e-10
4.56015e-11
2.9052e-11
1.31145e-10
2.51756e-09
2.70847e-09
8.25291e-11
3.68841e-12
2.46178e-12
1.98047e-11
1.70528e-12
2.63159e-13
-1.34268e-13
6.01972e-13
3.77925e-13
2.52849e-12
2.94877e-06
0.000373553
0.00045222
0.000379587
9.12571e-05
4.93449e-07
2.59253e-08
7.69602e-10
3.52929e-11
2.41909e-11
1.32107e-10
1.18973e-09
2.38916e-09
8.63087e-11
2.50502e-12
1.97364e-12
7.15676e-13
-1.14803e-13
2.70069e-14
9.27552e-15
4.7053e-15
3.43487e-16
-2.22136e-11
0.000200285
0.000458425
0.000457849
0.000458884
0.000215686
5.71921e-07
2.47356e-08
7.54477e-10
1.63843e-11
4.32812e-12
1.6374e-11
1.30502e-10
6.18035e-10
2.42669e-11
1.32051e-12
1.32867e-12
1.17883e-13
9.43279e-14
4.81387e-14
1.62539e-14
3.69243e-15
4.65557e-18
-1.8186e-13
0.00036709
0.000457849
0.000458672
0.000457849
0.000116592
1.37028e-07
1.72458e-09
9.61649e-12
1.1924e-12
1.55621e-12
7.2929e-13
2.85212e-12
7.81959e-12
4.21438e-13
3.16292e-13
6.36443e-13
1.6671e-14
1.78205e-14
5.99188e-15
1.1022e-15
1.3433e-16
4.65529e-18
2.91674e-21
0.000261226
0.000449127
0.000321988
0.000100791
2.01203e-06
5.04689e-08
1.61273e-11
7.73757e-13
2.7244e-13
7.54436e-16
-5.22427e-15
-1.83673e-14
-1.47391e-16
8.1685e-15
5.17496e-14
1.70237e-13
0.989539
0.984907
0.981305
0.983261
0.733648
0.750667
0.736222
0.712001
0.0630179
0.0318257
0.0146623
0.00621512
0.00396436
0.00274166
0.00224017
0.00169053
0.00541434
0.00225042
0.00184182
0.00146582
0.00380908
0.00364514
0.00240407
0.00142004
0.000272687
0.000613044
0.00215992
0.00209614
0.000254297
0.000345935
0.00106089
0.00142112
0.000543331
0.00218266
0.00310439
0.00388606
0.00025224
0.00691834
0.0124875
0.0124401
0.00851542
0.0123794
0.0124315
0.0123794
0.0122339
0.0123148
0.0122892
0.0123119
0.012157
0.0122616
0.00553546
0.00244505
0.00120392
0.000676464
0.000213628
9.10601e-05
6.03345e-05
5.92847e-05
5.80864e-05
6.0929e-05
5.65265e-05
5.64468e-05
5.64115e-05
5.66185e-05
5.64468e-05
5.6416e-05
5.6427e-05
5.64038e-05
0.00183122
0.000624001
0.000627096
0.000471808
0.00388593
0.00414561
0.00414738
0.00414152
0.000147455
0.000135506
0.000118211
0.000243837
0.000294061
6.54125e-05
1.69789e-07
4.02098e-07
2.22319e-07
2.05938e-07
1.76867e-07
2.21001e-07
3.46261e-07
3.33568e-07
2.87416e-07
7.11655e-08
2.18101e-09
2.33083e-09
2.02856e-09
4.2553e-09
2.13842e-09
2.16072e-09
-9.68898e-10
-4.34839e-08
2.09013e-09
1.67955e-09
-7.01857e-08
6.40255e-07
1.96582e-09
6.90054e-10
-1.23881e-07
7.97544e-06
3.21312e-09
6.72921e-07
3.36097e-07
0.000824349
1.99646e-08
6.78211e-06
0.00124775
0.00475399
1.29587e-12
2.00566e-05
0.00294206
0.004698
-3.97763e-09
1.82317e-12
0.00100018
0.00368877
8.34373e-13
-1.33501e-08
-8.89698e-10
4.42075e-13
1.25993e-12
-8.60365e-10
-4.15495e-10
-9.69397e-11
3.92277e-12
-1.90058e-11
-4.45507e-11
-1.9673e-11
2.53623e-12
1.02402e-12
4.72425e-12
9.61414e-12
4.07526e-12
5.44652e-12
9.10281e-12
1.92468e-11
2.91434e-12
3.86786e-12
5.964e-12
1.84104e-11
1.27288e-12
1.26171e-12
1.68928e-12
2.24029e-12
7.34231e-13
4.78812e-13
6.73069e-13
1.32761e-12
4.99596e-13
1.81552e-13
9.21618e-14
2.11586e-13
2.73638e-13
9.35861e-14
1.21434e-14
1.23577e-14
7.53631e-14
2.68784e-14
3.06971e-15
2.25282e-16
0.995649
0.997206
0.99098
0.897872
0.619331
0.178312
0.133405
0.347918
0.719625
0.97126
0.980326
0.966295
0.94506
0.953709
0.980353
0.984785
0.984773
0.98474
0.983674
0.650719
0.594588
0.444493
0.0444371
0.0391643
0.0391044
0.0769919
0.422352
0.618406
0.916066
0.978494
0.977854
0.977855
0.950089
0.914508
0.932504
0.983122
0.983937
0.983737
0.00739532
0.0294319
0.0702018
0.124482
0.178637
0.214665
0.214199
0.203791
0.418977
0.900866
0.97776
0.977853
0.977854
0.974306
0.947441
0.875028
0.703806
0.802336
0.768771
0.00242435
0.0276424
0.163462
0.179687
0.181381
0.182529
0.1507
0.0762281
0.293492
0.805512
0.977626
0.977849
0.977853
0.977849
0.977776
0.972799
0.787635
0.379439
0.132934
0.00141479
0.019703
0.0595716
0.104008
0.0694132
0.0174762
0.00181884
0.00192928
0.00299936
0.222338
0.84145
0.976052
0.97785
0.977777
0.937242
0.542457
0.265237
0.0494073
0.0275353
0.00134976
0.00181867
0.00133761
0.001334
0.00135251
0.0014957
0.00173357
0.00163489
0.00137237
0.00134712
0.133588
0.501906
0.667483
0.565177
0.184185
0.0660603
0.0869237
0.0284797
0.0233121
0.00128546
0.00162474
0.00133454
0.00133775
0.00134228
0.00176456
0.00182814
0.00167599
0.00163672
0.00148874
0.00169395
0.00224836
0.0169907
0.0318536
0.0486861
0.066326
0.0680891
0.0371488
0.0220242
0.00154124
0.00577925
0.00156913
0.00134228
0.00158083
0.0017599
0.00175356
0.00167687
0.00167118
0.00167687
0.00163996
0.00175005
0.00383864
0.00307816
0.00345126
0.0152654
0.0412512
0.0480038
0.0220242
0.00494558
0.00581674
0.00293226
0.0013681
0.00139589
0.00142825
0.00167771
0.00167217
0.00167639
0.00165727
0.00166802
0.00173221
0.00199935
0.00223274
0.00238994
0.00371038
0.0322462
0.0479682
0.0331022
0.0125429
0.002705
0.00163034
0.00160492
0.00160612
0.00159502
0.00161013
0.00173184
0.00163422
0.00165588
0.00174187
0.00480427
0.00375623
0.00239062
0.0114388
0.0136024
0.0169816
0.0423831
0.0179749
0.0123711
0.0123642
0.0120648
0.00566021
0.00637969
0.00392292
0.00406058
0.00736011
0.00642849
0.0030997
0.0071994
0.0139612
0.013874
0.00725412
0.0170867
0.0190932
0.00690929
0.00739583
0.00714895
0.0124619
0.0102451
0.00630044
0.00884452
0.00892126
0.00894452
0.00894452
0.00915502
0.00960137
0.0106326
0.012982
0.0138794
0.0143637
0.015228
0.0160245
0.0193676
0.00685041
0.00682671
0.00698783
0.0022502
0.00211123
0.00301223
0.00416443
0.00355505
0.00367443
0.00398678
0.00268675
0.00073553
0.000477807
0.000151606
0.00288935
0.0103712
0.0118018
0.0177715
0.0203028
0.016878
0.011322
0.00714895
0.000168661
0.000258715
0.000760967
0.00155015
0.00041246
6.26014e-05
1.03061e-05
1.64576e-06
4.21533e-07
2.57725e-07
2.40166e-07
2.42188e-07
2.40168e-07
0.00180983
0.016733
0.0203028
0.0203046
0.0203638
0.0146623
8.1782e-05
0.000592465
0.00510298
0.00583972
0.00557817
0.00317149
0.000278955
8.43506e-06
9.20732e-07
3.1677e-07
2.45571e-07
2.40168e-07
2.45572e-07
2.55826e-07
2.71782e-07
0.0167345
0.0203638
0.0203638
0.0174469
6.0056e-05
0.000983277
0.00583972
0.00583972
0.00583972
0.00579037
0.00380978
0.000451893
2.42422e-06
4.50843e-07
2.62327e-07
2.45572e-07
3.16385e-07
3.08575e-07
4.88832e-07
0.00181104
0.0156009
0.0145701
0.00526437
5.66107e-05
6.01308e-05
0.00567455
0.00583975
0.00579061
0.00569145
0.00528972
0.00103123
8.95398e-06
1.02143e-06
2.90282e-07
2.62329e-07
1.73154e-06
4.63509e-06
1.48012e-05
0.000242546
0.000902281
0.000678404
0.000132876
0.000954513
0.00104255
0.00543976
0.00575368
0.00285846
0.000941153
0.00136755
0.000832734
0.000199957
4.96382e-06
1.12644e-06
3.05484e-07
1.73503e-06
7.10251e-06
1.45546e-05
2.0693e-05
1.21609e-05
3.06778e-05
1.60425e-05
0.00412316
0.00407964
0.00224604
0.000547608
6.49335e-07
8.35673e-08
1.96446e-08
0.000893315
0.001719
0.000471439
3.71603e-06
4.27147e-07
5.16981e-07
9.84879e-07
3.81908e-06
3.64005e-06
3.91903e-06
4.96395e-06
1.77841e-06
0.000741635
0.000443331
9.53526e-08
-3.96739e-08
2.37845e-08
1.5613e-08
1.40047e-08
0.00125493
0.00187185
0.0016661
0.000124182
6.50337e-07
5.18009e-07
2.78363e-06
3.91472e-06
3.57487e-06
3.37553e-06
1.83417e-06
5.26857e-07
6.70533e-07
1.95571e-07
6.55042e-08
2.01399e-08
1.44366e-08
1.40163e-08
1.4115e-08
0.000408504
0.00193394
0.00193394
0.000433554
1.12458e-06
7.00433e-07
3.43504e-06
2.50036e-06
2.56522e-06
8.05547e-06
4.03233e-06
4.16315e-07
2.11722e-06
2.45548e-06
9.14948e-07
3.76027e-08
1.71962e-08
1.45221e-08
1.40047e-08
1.4625e-08
0.00149528
0.00193599
0.000605171
1.71004e-06
1.12781e-06
1.89457e-06
1.69508e-06
1.82221e-06
9.00851e-06
8.8311e-06
4.01942e-07
1.18245e-07
1.99836e-07
1.78564e-07
7.3979e-08
3.09825e-08
1.78598e-08
1.46254e-08
1.62523e-08
0.00100718
0.00192954
0.000660768
1.25432e-06
7.99633e-07
7.99632e-07
1.42493e-06
8.35343e-06
8.98149e-06
6.5768e-06
3.13258e-07
5.66012e-08
1.68622e-07
2.29719e-07
1.2462e-07
6.28363e-08
1.39299e-07
2.5177e-08
1.60906e-08
0.00097377
0.00196652
0.000840298
1.91685e-06
1.26931e-06
2.75759e-06
1.26473e-05
1.53346e-05
3.86649e-06
5.67579e-07
9.67036e-08
4.72551e-07
7.1061e-07
7.01482e-07
2.30265e-06
2.86455e-06
1.28116e-06
3.64136e-08
1.86825e-08
0.00127839
0.00199649
0.00107797
4.12717e-06
1.9169e-06
1.29794e-05
1.92578e-05
1.55154e-05
1.38707e-06
1.98632e-08
1.94227e-08
4.66362e-06
5.57219e-06
5.09334e-05
3.75395e-05
9.53629e-06
2.95652e-07
8.05753e-08
3.64128e-08
0.00165078
0.00200681
0.00123552
1.85124e-05
1.08717e-05
2.042e-05
1.9698e-05
6.2002e-06
2.96656e-07
1.71106e-08
1.74909e-08
0.000210158
0.000525137
0.000286408
2.84392e-05
1.14704e-06
4.33318e-07
2.7174e-07
9.7555e-05
0.00198175
0.00200681
0.00114873
1.63117e-05
2.3047e-05
2.24477e-05
1.2936e-05
3.67439e-07
1.65106e-08
1.68062e-08
1.71088e-08
0.00381538
0.00147676
5.37063e-05
6.8187e-06
4.41663e-06
1.14829e-06
4.3384e-07
0.00015778
0.00187896
0.00200681
0.00060155
1.08575e-05
1.10877e-05
1.31874e-05
3.62613e-06
5.65219e-09
1.43392e-08
8.6751e-08
1.73232e-08
0.00476778
0.000561315
3.93178e-05
1.29828e-05
6.80927e-06
0.000643331
0.0012013
0.00157354
0.000958712
0.000642249
5.94118e-05
9.14205e-07
7.30855e-08
6.86273e-07
5.48204e-09
1.03305e-09
4.2301e-08
1.22653e-07
1.00636e-07
0.00479254
0.000759891
6.75144e-05
0.000469779
0.00259664
0.00625704
0.00609121
0.00215473
1.1237e-05
4.47402e-06
1.71051e-07
1.88619e-08
5.78688e-09
6.13103e-09
5.97344e-10
3.4353e-10
7.92061e-08
1.22691e-07
1.22653e-07
0.00492694
0.00515227
0.00350245
0.00520708
0.00625874
0.00625876
0.00560555
0.000718398
1.4774e-06
5.72254e-07
1.89798e-08
1.0264e-09
5.01687e-10
5.06633e-10
1.59282e-10
2.43214e-10
4.5418e-08
1.22665e-07
4.63462e-08
0.00202841
0.00568611
0.00574459
0.00600168
0.00625874
0.00602478
0.00195535
1.67608e-06
2.43179e-07
4.77539e-08
-2.0824e-10
1.31239e-10
8.37e-11
9.12439e-11
5.91106e-11
2.14971e-10
3.96644e-09
3.98495e-08
2.33637e-10
8.75541e-14
0.00144883
0.00355902
0.00291236
0.000962765
0.000144462
0.00195597
4.3128e-07
3.58112e-08
6.09309e-09
-1.87326e-10
3.74032e-11
3.97821e-11
4.16993e-11
5.06352e-11
2.34023e-10
4.77883e-11
1.02621e-10
3.78036e-11
3.03006e-17
1.59714e-11
5.85995e-11
4.61589e-10
2.72186e-08
5.29098e-05
0.00113986
3.63044e-08
4.28464e-09
5.17097e-10
1.32537e-11
3.07149e-11
3.48074e-11
3.63731e-11
4.34216e-11
1.95612e-10
3.40656e-11
2.24389e-11
2.81932e-11
3.56405e-10
5.92865e-10
3.55571e-10
1.4293e-09
2.45717e-07
7.41605e-06
8.78689e-06
4.28841e-09
4.21988e-10
6.72935e-11
4.17739e-11
2.89903e-11
2.78144e-11
2.82792e-11
2.8331e-11
8.65096e-11
2.75455e-11
1.5742e-11
2.75042e-11
1.18837e-09
2.77098e-09
1.43967e-09
2.89415e-08
1.05097e-07
5.40837e-08
1.1589e-07
3.97233e-07
6.82108e-11
2.10832e-11
4.11339e-11
2.12719e-11
1.86488e-11
1.81158e-11
1.67219e-11
2.30572e-11
1.60645e-11
1.2649e-11
1.85476e-11
1.10269e-09
2.5907e-09
1.49011e-09
1.59239e-11
1.97522e-10
3.23686e-08
6.4444e-07
7.5518e-07
2.46602e-10
1.76224e-11
2.98845e-11
1.3749e-11
1.14036e-11
1.06241e-11
9.31782e-12
1.25709e-11
7.54505e-12
6.55188e-12
1.25879e-11
2.27672e-12
2.53547e-12
4.8033e-12
6.98964e-12
1.18663e-11
9.18941e-10
8.55261e-08
2.51641e-07
4.80772e-12
1.71948e-11
1.61176e-11
7.84064e-12
6.22552e-12
5.65325e-12
4.73788e-12
5.48457e-12
3.15612e-12
3.61177e-12
8.22429e-12
2.51179e-12
5.72616e-12
8.90935e-12
1.06741e-11
1.17695e-11
2.04614e-11
8.73343e-11
5.47588e-12
4.56561e-12
1.0165e-11
7.62595e-12
3.9054e-12
3.0205e-12
2.72153e-12
2.1866e-12
2.15842e-12
1.21767e-12
2.10335e-12
4.98446e-12
5.21405e-13
1.64909e-12
3.55658e-12
6.37062e-12
9.13038e-12
1.25956e-11
1.48226e-11
5.362e-12
4.27031e-12
4.97986e-12
3.20765e-12
1.69959e-12
1.30971e-12
1.18822e-12
9.19615e-13
7.80231e-13
4.48762e-13
1.23587e-12
2.74715e-12
5.2055e-14
3.24953e-13
1.33633e-12
3.46561e-12
5.57678e-12
7.36996e-12
1.15575e-11
8.75372e-12
2.4482e-12
2.03164e-12
1.19338e-12
6.53361e-13
5.12847e-13
4.73401e-13
3.55041e-13
2.62419e-13
1.62288e-13
7.00496e-13
1.36966e-12
4.93811e-16
8.24934e-15
8.50498e-14
4.79247e-13
1.25416e-12
1.83042e-12
3.87198e-12
4.00374e-12
1.03319e-12
7.05054e-13
3.96279e-13
2.25914e-13
1.83624e-13
1.73634e-13
1.27005e-13
8.29713e-14
5.8017e-14
3.73262e-13
6.19625e-13
)
;

boundaryField
{
    leftWall
    {
        type            zeroGradient;
    }
    rightWall
    {
        type            zeroGradient;
    }
    lowerWall
    {
        type            zeroGradient;
    }
    atmosphere
    {
        type            inletOutlet;
        inletValue      uniform 0;
        value           nonuniform List<scalar> 
46
(
0
0
0
0
0
0
0
0.000261226
0.000449127
0.000321988
0.000100791
2.01203e-06
5.04689e-08
1.61273e-11
0
0
0
0
0
0
0
0
0
0
0
0
0
0
0
0
0
0
0
0
4.00374e-12
1.03319e-12
7.05054e-13
3.96279e-13
2.25914e-13
1.83624e-13
1.73634e-13
1.27005e-13
8.29713e-14
5.8017e-14
3.73262e-13
6.19625e-13
)
;
    }
    defaultFaces
    {
        type            empty;
    }
}


// ************************************************************************* //
