/*--------------------------------*- C++ -*----------------------------------*\
| =========                 |                                                 |
| \\      /  F ield         | OpenFOAM: The Open Source CFD Toolbox           |
|  \\    /   O peration     | Version:  2.3.0                                 |
|   \\  /    A nd           | Web:      www.OpenFOAM.org                      |
|    \\/     M anipulation  |                                                 |
\*---------------------------------------------------------------------------*/
FoamFile
{
    version     2.0;
    format      ascii;
    class       surfaceScalarField;
    location    "1.75";
    object      phi;
}
// * * * * * * * * * * * * * * * * * * * * * * * * * * * * * * * * * * * * * //

dimensions      [0 3 -1 0 0 0 0];

internalField   nonuniform List<scalar> 
4432
(
1.66464e-06
-1.66464e-06
-8.8985e-07
2.55449e-06
-2.73407e-06
1.84422e-06
2.42122e-06
-5.15529e-06
9.63174e-06
-7.21053e-06
8.52701e-06
1.10474e-06
-2.55509e-06
1.10821e-05
-1.24208e-05
9.86567e-06
-1.66682e-05
4.24748e-06
-1.60964e-05
-5.71829e-07
-1.48954e-05
-1.20102e-06
-1.45815e-05
-3.13922e-07
-1.32418e-05
-1.33964e-06
-1.05518e-05
-2.69004e-06
-8.30648e-06
-2.24531e-06
-8.647e-06
3.40522e-07
-1.16314e-05
2.98435e-06
-1.54876e-05
3.85629e-06
-1.69333e-05
1.44569e-06
-1.46671e-05
-2.26628e-06
-1.08352e-05
-3.83184e-06
-5.79265e-06
-5.04256e-06
-5.79265e-06
-2.44189e-06
7.77243e-07
-6.65329e-06
6.7659e-06
-7.53006e-06
2.72099e-06
-8.73337e-07
-1.1812e-05
5.52794e-06
-1.36118e-05
6.77213e-06
-1.39455e-07
-1.59742e-06
1.94516e-05
-1.19608e-05
2.0229e-05
-1.38273e-05
6.11403e-06
-1.32296e-05
-1.16954e-06
-1.46766e-05
2.45951e-07
-1.55483e-05
5.57823e-07
-1.43993e-05
-2.48868e-06
-1.14692e-05
-5.62011e-06
-8.57914e-06
-5.13537e-06
-7.2613e-06
-9.77317e-07
-8.57482e-06
4.29787e-06
-1.01743e-05
5.45576e-06
-9.91365e-06
1.18506e-06
-8.47448e-06
-3.70544e-06
-6.94506e-06
-5.36126e-06
-4.04564e-06
-7.94198e-06
-9.83828e-06
-5.23373e-06
6.01097e-06
-1.04279e-05
1.19601e-05
-1.08515e-05
3.14458e-06
-4.99976e-06
-1.76638e-05
1.09701e-06
-1.97086e-05
3.33681e-06
-2.37926e-06
-1.45656e-06
2.4245e-05
-7.2583e-06
2.60307e-05
-9.82199e-06
8.67773e-06
-1.18289e-05
8.37353e-07
-1.48951e-05
3.31214e-06
-1.5967e-05
1.62975e-06
-1.44065e-05
-4.04919e-06
-1.12303e-05
-8.79633e-06
-8.26782e-06
-8.09783e-06
-5.33998e-06
-3.90517e-06
-2.87257e-06
1.83047e-06
-2.58915e-06
5.17234e-06
-3.5356e-06
2.1315e-06
-3.84013e-06
-3.40091e-06
-3.25751e-06
-5.94388e-06
-1.98722e-06
-9.21226e-06
-1.18255e-05
-7.56517e-06
1.35761e-05
-1.36581e-05
1.8053e-05
-1.39435e-05
3.43004e-06
-1.06177e-05
-2.09896e-05
-5.30262e-06
-2.50237e-05
-2.11957e-06
-5.56232e-06
-2.06926e-06
2.41947e-05
-3.59276e-06
2.75542e-05
-7.37365e-06
1.24586e-05
-1.16295e-05
5.09323e-06
-1.46944e-05
6.37698e-06
-1.47348e-05
1.67013e-06
-1.20975e-05
-6.68646e-06
-8.47979e-06
-1.2414e-05
-6.65322e-06
-9.92439e-06
-5.06348e-06
-5.49491e-06
-1.98224e-06
-1.25077e-06
-1.53643e-06
4.72654e-06
-4.61694e-06
5.21201e-06
-4.65498e-06
-3.36286e-06
-2.24197e-06
-8.35689e-06
-4.59069e-07
-1.09952e-05
-1.22846e-05
-8.85415e-06
2.24303e-05
-1.57093e-05
2.49081e-05
-1.65516e-05
4.27237e-06
-1.60428e-05
-2.14984e-05
-1.26918e-05
-2.83747e-05
-7.60433e-06
-1.06498e-05
-3.23596e-06
1.98263e-05
-3.49199e-06
2.78103e-05
-7.36832e-06
1.6335e-05
-1.19231e-05
9.64802e-06
-1.3709e-05
8.16289e-06
-1.20518e-05
1.28757e-08
-7.66073e-06
-1.10775e-05
-3.2738e-06
-1.6801e-05
-2.76744e-06
-1.04307e-05
-3.96442e-06
-4.29793e-06
-3.63128e-06
-1.58391e-06
-4.63178e-06
5.72704e-06
-8.35851e-06
8.93874e-06
-6.5165e-06
-5.20487e-06
-1.93178e-06
-1.29416e-05
7.72418e-07
-1.36994e-05
-1.15122e-05
-8.09794e-06
3.05282e-05
-1.43565e-05
3.11667e-05
-1.62185e-05
6.13434e-06
-1.806e-05
-1.96569e-05
-1.74437e-05
-2.8991e-05
-1.35999e-05
-1.44936e-05
-7.77951e-06
1.4006e-05
-6.87944e-06
2.69102e-05
-9.26678e-06
1.87223e-05
-1.21716e-05
1.25528e-05
-1.17504e-05
7.74171e-06
-8.22948e-06
-3.50804e-06
-2.47979e-06
-1.68272e-05
1.9078e-06
-2.11885e-05
2e-06
-1.05229e-05
-1.11031e-06
-1.18762e-06
-4.41065e-06
1.71643e-06
-6.94389e-06
8.26029e-06
-1.01433e-05
1.21381e-05
-7.36806e-06
-7.98007e-06
-2.02784e-06
-1.82818e-05
2.14091e-06
-1.78681e-05
-9.37125e-06
-5.43492e-06
3.59632e-05
-9.97418e-06
3.5706e-05
-1.22588e-05
8.41899e-06
-1.54599e-05
-1.64558e-05
-1.85161e-05
-2.59347e-05
-1.83336e-05
-1.46761e-05
-1.34839e-05
9.15626e-06
-1.10696e-05
2.44958e-05
-1.13985e-05
1.90512e-05
-1.15436e-05
1.26979e-05
-8.86023e-06
5.05831e-06
-4.05335e-06
-8.31492e-06
7.97891e-07
-2.16784e-05
3.68265e-06
-2.40733e-05
4.45541e-06
-1.12957e-05
2.09601e-06
1.17179e-06
-2.90104e-06
6.71348e-06
-6.25116e-06
1.16104e-05
-9.00493e-06
1.48919e-05
-6.64406e-06
-1.03409e-05
-2.70606e-06
-2.22198e-05
2.50962e-06
-2.30838e-05
-6.86162e-06
-2.05572e-06
3.80189e-05
-4.07546e-06
3.77257e-05
-4.7867e-06
9.13023e-06
-8.36295e-06
-1.28796e-05
-1.48001e-05
-1.94976e-05
-1.95184e-05
-9.95773e-06
-1.65317e-05
6.16957e-06
-1.25073e-05
2.04714e-05
-1.12879e-05
1.78318e-05
-9.65153e-06
1.10615e-05
-6.15488e-06
1.56166e-06
-1.66812e-06
-1.28017e-05
-7.53629e-07
-2.25929e-05
-2.98378e-07
-2.45286e-05
2.49143e-06
-1.40855e-05
4.10493e-06
-4.41712e-07
1.6533e-06
9.16511e-06
-2.4387e-06
1.57024e-05
-4.1361e-06
1.65893e-05
-1.29484e-06
-1.31822e-05
2.42564e-07
-2.37572e-05
1.88929e-06
-2.47305e-05
-4.97233e-06
-1.22005e-06
1.22005e-06
-9.73964e-06
8.51957e-06
-2.26155e-05
1.28758e-05
-3.17686e-05
9.15311e-06
-2.95831e-05
-2.18543e-06
-1.79771e-05
-1.16061e-05
-4.48083e-06
-1.34962e-05
8.04597e-06
-1.25268e-05
1.83341e-05
-1.02881e-05
2.58539e-05
-7.51974e-06
2.98577e-05
-4.00385e-06
3.0308e-05
-4.50268e-07
2.61116e-05
4.19634e-06
1.75067e-05
8.60492e-06
9.02268e-06
8.48404e-06
5.53214e-06
3.49054e-06
8.3242e-07
4.69972e-06
-5.02582e-06
5.85823e-06
-5.02582e-06
-7.8625e-06
9.08256e-06
-1.79719e-05
1.8629e-05
-2.62606e-05
2.11645e-05
-2.68943e-05
9.7868e-06
-1.94421e-05
-9.63766e-06
-8.09657e-06
-2.29515e-05
2.575e-06
-2.41678e-05
1.10257e-05
-2.09775e-05
1.79647e-05
-1.72271e-05
2.47285e-05
-1.42835e-05
3.09046e-05
-1.018e-05
3.60557e-05
-5.60131e-06
3.98e-05
4.51948e-07
3.8518e-05
9.88695e-06
2.98004e-05
1.72017e-05
1.77242e-05
1.55667e-05
6.24749e-06
1.61765e-05
-1.47453e-06
1.35802e-05
-6.50035e-06
-7.93882e-06
1.70214e-05
-1.36042e-05
2.42944e-05
-1.45762e-05
2.21365e-05
-9.45951e-06
4.67007e-06
5.32111e-07
-1.96293e-05
9.36857e-06
-3.1788e-05
1.71529e-05
-3.19522e-05
2.13731e-05
-2.51976e-05
2.33805e-05
-1.92346e-05
2.54106e-05
-1.63136e-05
2.83317e-05
-1.3101e-05
3.21684e-05
-9.43808e-06
3.77082e-05
-5.08782e-06
4.20558e-05
5.53936e-06
3.89926e-05
2.02648e-05
2.71834e-05
2.73759e-05
1.2771e-05
3.05889e-05
2.84158e-06
2.35096e-05
-3.65877e-06
-4.18799e-06
2.12094e-05
-4.58254e-06
2.46889e-05
-2.96283e-07
1.78503e-05
8.37102e-06
-3.99722e-06
1.77581e-05
-2.90164e-05
2.73288e-05
-4.13587e-05
3.25443e-05
-3.71677e-05
3.2981e-05
-2.56342e-05
3.11224e-05
-1.7376e-05
2.94907e-05
-1.46819e-05
2.96001e-05
-1.32105e-05
3.19103e-05
-1.17483e-05
3.61934e-05
-9.37094e-06
4.07036e-05
1.02917e-06
4.10878e-05
1.98806e-05
3.31715e-05
3.52922e-05
1.98998e-05
4.38605e-05
8.11083e-06
3.52986e-05
4.45206e-06
1.05047e-06
2.01589e-05
5.30785e-06
2.04315e-05
1.4558e-05
8.60008e-06
2.44182e-05
-1.38573e-05
3.6273e-05
-4.08712e-05
4.64717e-05
-5.15574e-05
4.91562e-05
-3.98523e-05
4.50303e-05
-2.15083e-05
3.87032e-05
-1.10489e-05
3.37716e-05
-9.75024e-06
3.14684e-05
-1.09074e-05
3.2529e-05
-1.28088e-05
3.60754e-05
-1.29174e-05
3.94858e-05
-2.38119e-06
4.05086e-05
1.88578e-05
3.59863e-05
3.98145e-05
2.56877e-05
5.41592e-05
1.33979e-05
4.75884e-05
1.785e-05
6.18842e-06
1.39705e-05
1.48564e-05
1.17635e-05
2.65073e-05
-3.05081e-06
4.02863e-05
-2.76363e-05
5.57688e-05
-5.63537e-05
6.54046e-05
-6.11932e-05
6.46105e-05
-3.90581e-05
5.58906e-05
-1.27884e-05
4.51959e-05
-3.5427e-07
3.73085e-05
-1.86283e-06
3.30026e-05
-6.60154e-06
3.32932e-05
-1.30994e-05
3.69184e-05
-1.65426e-05
3.93742e-05
-4.83697e-06
3.93372e-05
1.88948e-05
3.63012e-05
4.28505e-05
2.91672e-05
6.12932e-05
1.758e-05
5.91756e-05
3.54299e-05
8.43387e-06
5.53661e-06
2.22174e-05
-2.02e-06
3.94902e-05
-2.03237e-05
5.74834e-05
-4.56295e-05
7.12625e-05
-7.01328e-05
7.50194e-05
-6.49501e-05
6.9836e-05
-3.38747e-05
5.93898e-05
-2.34221e-06
4.74454e-05
1.15901e-05
3.85748e-05
7.00783e-06
3.34091e-05
-1.43587e-06
3.32401e-05
-1.29304e-05
3.65545e-05
-1.9857e-05
3.8409e-05
-6.69152e-06
3.74462e-05
1.98577e-05
3.4989e-05
4.53076e-05
3.01785e-05
6.61038e-05
1.98558e-05
6.94982e-05
5.52858e-05
1.94633e-05
-1.39267e-05
3.81701e-05
-2.07268e-05
5.66625e-05
-3.8816e-05
6.81649e-05
-5.71319e-05
6.78724e-05
-6.98403e-05
5.90771e-05
-5.61548e-05
5.15016e-05
-2.62992e-05
4.53389e-05
3.82054e-06
3.9861e-05
1.7068e-05
3.47403e-05
1.21286e-05
3.1285e-05
2.01938e-06
3.14578e-05
-1.31031e-05
3.3884e-05
-2.22832e-05
3.48156e-05
-7.62312e-06
3.37849e-05
2.08883e-05
3.23595e-05
4.6733e-05
2.9693e-05
6.87703e-05
2.0667e-05
7.85242e-05
7.59528e-05
6.3139e-06
3.1705e-05
1.20889e-05
3.19507e-05
1.43839e-05
6.83528e-06
7.31937e-06
-5.81505e-06
-5.94631e-06
-6.23196e-06
-2.22354e-05
6.33139e-06
-3.43826e-05
1.83168e-05
-3.05387e-05
1.66275e-05
-2.49787e-05
1.22718e-05
-1.91894e-05
5.27227e-06
-1.16012e-05
-6.02655e-06
-1.07913e-05
-1.36116e-05
-2.20565e-05
-1.13277e-05
-2.60244e-05
-2.05607e-05
-1.42283e-05
-2.58816e-05
9.59591e-07
-1.56296e-05
8.76621e-06
1.3585e-06
8.54803e-06
1.59206e-05
1.80393e-05
7.09801e-06
3.11651e-05
-2.6308e-05
3.15006e-05
-2.40927e-05
2.3515e-05
-1.6745e-05
-1.45413e-05
3.3084e-05
8.87679e-06
2.28282e-05
1.88961e-05
2.19314e-05
2.14613e-05
4.27002e-06
2.31653e-05
-7.51898e-06
3.56115e-05
-1.86782e-05
3.68609e-05
5.08201e-06
2.13692e-05
3.38085e-05
2.29064e-05
1.50903e-05
2.52292e-05
9.9491e-06
7.00974e-06
2.34917e-05
-1.59599e-05
1.69431e-05
-3.8103e-05
8.53148e-06
-5.35832e-05
4.15249e-06
-6.36557e-05
-1.04882e-05
-4.4851e-05
-4.46863e-05
-1.65742e-05
-4.39064e-05
2.25039e-06
-1.74661e-05
1.97702e-05
-1.59928e-06
5.17407e-05
-2.48724e-05
7.92701e-05
-5.38374e-05
7.38628e-05
-1.86855e-05
4.98232e-05
7.29464e-06
-3.73881e-06
3.90207e-05
-7.70383e-06
3.0532e-05
6.01767e-07
1.36258e-05
1.19789e-05
-7.10708e-06
4.71113e-05
-4.26514e-05
3.46884e-05
-6.25536e-06
5.11072e-05
-1.13368e-05
6.0084e-05
2.48316e-05
2.65017e-05
4.86726e-05
-4.45944e-05
8.10452e-05
-9.28828e-05
7.17801e-05
-7.60099e-05
7.02755e-08
-6.20613e-05
-5.41718e-06
-6.88146e-05
1.09058e-05
-0.000101092
2.17892e-05
-9.75551e-05
-4.82233e-05
-4.78884e-05
-9.35731e-05
-4.9673e-06
-6.03871e-05
3.65383e-05
-4.31049e-05
7.35222e-05
-6.18564e-05
5.53805e-05
-3.56957e-05
-6.76011e-06
4.34552e-05
-4.0647e-05
4.11816e-05
3.85115e-05
-8.28973e-05
-1.04095e-05
4.09415e-05
-3.96557e-05
4.2872e-05
-7.35119e-05
2.6749e-05
-7.79333e-05
-3.82302e-05
-1.31794e-05
-7.10094e-05
3.63938e-05
-6.091e-05
7.06533e-05
-9.42789e-06
8.25901e-05
3.67358e-05
6.95112e-05
9.4124e-05
3.0334e-05
0.000110957
-2.32706e-05
5.36748e-05
-4.69443e-05
1.82565e-05
-8.11416e-05
4.51032e-05
-0.00011751
5.81575e-05
-0.000131836
-3.38971e-05
-0.000127584
-9.78249e-05
-7.9378e-05
-0.000108594
-2.49504e-05
-9.75325e-05
-4.51806e-05
-4.16262e-05
-0.00012311
4.22339e-05
-0.000201752
0.000122096
-0.000251771
9.12012e-05
5.55812e-05
-0.000268841
-2.82847e-05
6.92262e-05
-4.5309e-05
5.98963e-05
-2.63686e-05
7.80846e-06
1.51863e-05
-7.97853e-05
5.65543e-05
-0.000112377
8.66979e-05
-9.10536e-05
0.000117627
-4.03568e-05
0.000140924
1.34383e-05
0.000154699
8.0349e-05
0.000144914
0.000120743
8.96529e-05
0.000108936
1.83757e-05
8.95338e-05
-3.58283e-05
9.93072e-05
-6.9646e-05
9.19753e-05
-0.000107187
3.64379e-06
-0.000128011
-7.70011e-05
-0.000123997
-0.000112608
-0.000102338
-0.000119191
-6.78916e-05
-7.60723e-05
-8.23114e-05
5.66535e-05
-0.000145928
0.000185713
-0.000191609
0.000136883
3.98541e-05
-0.000175882
1.23812e-05
5.68449e-05
2.38485e-05
4.84289e-05
5.0266e-05
-1.86091e-05
6.91749e-05
-9.86942e-05
8.39233e-05
-0.000127126
9.87694e-05
-0.0001059
0.000117935
-5.95224e-05
0.000136781
-5.40738e-06
0.000160047
5.70826e-05
0.000169798
0.000110991
0.000141758
0.000136976
8.40048e-05
0.000147288
3.36084e-05
0.000149704
7.38997e-06
0.000118194
-1.31473e-05
2.41809e-05
-2.51748e-05
-6.49738e-05
-3.07456e-05
-0.000107037
-2.01739e-05
-0.000129763
1.48003e-05
-0.000111046
3.28586e-05
3.85954e-05
-3.2534e-05
0.000251105
-9.41084e-05
0.000198457
4.1069e-05
-9.53231e-05
2.8009e-05
2.88359e-05
5.79585e-05
1.84795e-05
8.21919e-05
-4.28426e-05
8.12229e-05
-9.77253e-05
7.55548e-05
-0.000121458
7.78951e-05
-0.00010824
8.89753e-05
-7.06026e-05
0.000104782
-2.12145e-05
0.00012155
4.03148e-05
0.000133452
9.90891e-05
0.000126637
0.00014379
9.91666e-05
0.000174758
6.77312e-05
0.000181139
4.92435e-05
0.000136681
3.84148e-05
3.50096e-05
3.17532e-05
-5.83123e-05
3.3469e-05
-0.000108753
3.84165e-05
-0.000134711
4.65683e-05
-0.000119198
8.97495e-05
-4.58581e-06
5.50548e-05
0.0002858
-1.14918e-05
0.000265004
8.24258e-05
-5.28487e-05
2.17621e-05
7.0738e-06
5.6237e-05
-1.59955e-05
6.17671e-05
-4.83728e-05
4.21854e-05
-7.81435e-05
2.84403e-05
-0.000107713
3.08751e-05
-0.000110675
4.33253e-05
-8.30529e-05
5.95949e-05
-3.74841e-05
6.91215e-05
3.07882e-05
7.45775e-05
9.36332e-05
7.22651e-05
0.000146103
5.79999e-05
0.000189023
4.10023e-05
0.000198137
3.27082e-05
0.000144975
3.51033e-05
3.26143e-05
3.6419e-05
-5.9628e-05
4.82054e-05
-0.00012054
3.77211e-05
-0.000124227
2.54021e-05
-0.000106879
4.62937e-05
-2.54774e-05
4.48375e-05
0.000287256
1.39004e-05
0.000295941
0.000129418
-3.30913e-05
2.00077e-05
-1.29339e-05
3.77174e-05
-3.37052e-05
1.87318e-05
-2.93872e-05
-1.31034e-05
-4.63082e-05
-2.90426e-05
-9.17734e-05
-2.40162e-05
-0.000115701
-9.01216e-06
-9.80571e-05
4.31855e-06
-5.08149e-05
1.16225e-05
2.34843e-05
7.71617e-06
9.75395e-05
-3.87541e-06
0.000157694
-1.9128e-05
0.000204276
-2.98501e-05
0.000208859
-2.54556e-05
0.000140581
-1.00944e-05
1.72529e-05
9.24854e-06
-7.89714e-05
3.914e-06
-0.000115205
-7.93942e-06
-0.000112373
-2.36135e-05
-9.12051e-05
-3.88725e-05
-1.02184e-05
-2.8342e-05
0.000276726
-2.58781e-05
0.000293477
0.000144013
-4.04732e-05
2.7432e-05
-4.0366e-05
2.5785e-05
-3.20584e-05
-1.596e-05
1.23578e-05
-4.97775e-05
-1.24906e-05
-6.79357e-05
-7.36151e-05
-7.15833e-05
-0.000112053
-5.80223e-05
-0.000111618
-4.79651e-05
-6.08721e-05
-4.80015e-05
2.35208e-05
-6.25936e-05
0.000112132
-8.90121e-05
0.000184113
-0.000116485
0.000231749
-0.000122609
0.000214982
-9.04477e-05
0.00010842
-4.3024e-05
-3.01705e-05
-2.91539e-05
-9.28415e-05
-3.70469e-05
-0.000107312
-4.96643e-05
-9.97557e-05
-7.5995e-05
-6.48743e-05
-0.000123428
3.72148e-05
-0.00010612
0.000259417
-7.60436e-05
0.000263401
0.000123234
-5.52654e-05
3.3751e-05
-7.4117e-05
2.59364e-05
-2.42439e-05
-1.90675e-05
5.73617e-05
-5.39306e-05
2.23726e-05
-7.8364e-05
-4.91817e-05
-9.28842e-05
-9.75333e-05
-9.49201e-05
-0.000109582
-9.29496e-05
-6.28425e-05
-0.000101728
3.22997e-05
-0.000128776
0.000139179
-0.000170867
0.000226205
-0.00019972
0.000260602
-0.000174319
0.000189581
-0.000103397
3.74973e-05
-6.47193e-05
-6.88483e-05
-6.2012e-05
-9.55488e-05
-7.46538e-05
-9.46703e-05
-9.33472e-05
-8.10624e-05
-0.000122621
-3.56008e-05
-0.000161468
7.60629e-05
-0.000136348
0.000234297
-9.52055e-05
0.000222259
8.83297e-05
-6.03007e-05
3.04306e-05
-0.000104548
3.06018e-05
-2.44151e-05
7.30079e-06
8.06628e-05
-2.81218e-05
5.77952e-05
-6.06918e-05
-1.66117e-05
-8.53676e-05
-7.28576e-05
-0.000106703
-8.82472e-05
-0.000122127
-4.74183e-05
-0.000144058
5.42305e-05
-0.000180424
0.000175545
-0.00022346
0.000269241
-0.000229674
0.000266816
-0.000167086
0.000126993
-0.000106227
-2.33614e-05
-8.79475e-05
-8.71283e-05
-9.05059e-05
-9.29904e-05
-0.000110313
-7.48632e-05
-0.000138635
-5.27407e-05
-0.00016722
-7.01565e-06
-0.000177165
8.60086e-05
-0.000136594
0.000193726
-7.90652e-05
0.000164729
5.00379e-05
-4.07735e-05
2.28594e-05
-0.000127407
2.33932e-05
-2.4949e-05
2.56083e-05
7.84478e-05
1.07577e-05
7.26457e-05
-2.21069e-05
1.62529e-05
-6.11826e-05
-3.3782e-05
-9.79467e-05
-5.1483e-05
-0.000130805
-1.45603e-05
-0.000162489
8.59153e-05
-0.000197941
0.000210998
-0.000224833
0.000296132
-0.000208463
0.000250446
-0.00015071
6.92413e-05
-0.000123679
-5.03928e-05
-0.000116957
-9.38498e-05
-0.000129007
-8.09406e-05
-0.000159886
-4.39841e-05
-0.000188204
-2.4423e-05
-0.000207284
1.20641e-05
-0.000201614
8.03389e-05
-0.000137472
0.000129584
-8.03209e-05
0.000107578
3.9474e-05
-6.9757e-05
9.94235e-06
-0.000137349
2.56227e-06
-1.75689e-05
1.17689e-05
6.92412e-05
1.95438e-05
6.48707e-05
6.81064e-06
2.89861e-05
-3.23811e-05
5.40973e-06
-8.06304e-05
-3.23369e-06
-0.000121274
2.60836e-05
-0.000149868
0.000114509
-0.000170788
0.000231918
-0.000180926
0.00030627
-0.00017038
0.0002399
-0.000147459
4.63204e-05
-0.000145061
-5.27903e-05
-0.000155085
-8.38261e-05
-0.00018062
-5.54053e-05
-0.00020258
-2.20244e-05
-0.000211688
-1.53147e-05
-0.000203502
3.87855e-06
-0.000170929
4.77652e-05
-0.000116842
7.54974e-05
-7.91107e-05
6.98473e-05
5.27021e-05
-9.23388e-05
-7.63434e-06
-0.000129715
-2.78033e-05
2.60004e-06
-1.40748e-05
5.55126e-05
3.10293e-06
4.76929e-05
1.43431e-06
3.06546e-05
-1.72999e-05
2.4144e-05
-5.32614e-05
3.27278e-05
-9.05642e-05
6.33864e-05
-0.000108979
0.000132924
-0.000110159
0.000233098
-0.000106714
0.000302824
-0.000117712
0.000250898
-0.000139106
6.77148e-05
-0.000158611
-3.32852e-05
-0.000182313
-6.0124e-05
-0.000197044
-4.06747e-05
-0.00021267
-6.39866e-06
-0.00021535
-1.26351e-05
-0.000194428
-1.70426e-05
-0.000151593
4.92961e-06
-0.000115517
3.94215e-05
-0.00010082
5.51506e-05
6.58255e-05
-0.000113944
-1.92649e-05
-0.00011045
-3.57222e-05
1.90572e-05
-2.49718e-05
4.47621e-05
-1.1616e-05
3.43372e-05
-9.90644e-06
2.89449e-05
-1.4326e-05
2.85636e-05
-2.6863e-05
4.5265e-05
-4.54224e-05
8.19458e-05
-5.30658e-05
0.000140567
-4.04078e-05
0.00022044
-2.13058e-05
0.000283722
-3.48697e-05
0.000264462
-9.79874e-05
0.000130833
-0.000144127
1.28543e-05
-0.000170687
-3.35638e-05
-0.000183841
-2.75214e-05
-0.000189422
-8.17331e-07
-0.000201424
-6.33067e-07
-0.000195027
-2.344e-05
-0.000165567
-2.45299e-05
-0.000122336
-3.80954e-06
-9.4693e-05
2.75076e-05
5.79151e-05
-8.67825e-05
-1.79273e-05
-9.25229e-05
-2.99365e-05
3.10664e-05
-2.5259e-05
4.00845e-05
-1.90648e-05
2.81431e-05
-1.20616e-05
2.19417e-05
-3.25981e-06
1.9762e-05
3.12019e-06
3.88849e-05
3.85421e-06
8.1212e-05
6.5312e-06
0.00013789
2.39875e-05
0.000202984
5.1433e-05
0.000256277
5.89846e-05
0.00025691
-3.45869e-07
0.000190163
-8.17255e-05
9.4234e-05
-0.000129654
1.43648e-05
-0.000148265
-8.91029e-06
-0.000150177
1.09411e-06
-0.000159407
8.59731e-06
-0.000174482
-8.36548e-06
-0.000173114
-2.58976e-05
-0.000146703
-3.02204e-05
-9.81058e-05
-2.109e-05
2.74069e-06
-4.29315e-05
-1.43284e-05
-7.81946e-05
-2.38118e-05
4.05501e-05
-2.40979e-05
4.03706e-05
-1.80861e-05
2.21315e-05
-1.93086e-06
5.78652e-06
1.28149e-05
5.0163e-06
2.7976e-05
2.37237e-05
4.68546e-05
6.23335e-05
6.18146e-05
0.00012293
8.0072e-05
0.000184726
0.000105547
0.000230802
0.000122286
0.000240171
0.000101975
0.000210474
3.19356e-05
0.000164273
-5.22456e-05
9.8546e-05
-9.83807e-05
3.72248e-05
-0.000106235
8.94854e-06
-9.89939e-05
1.356e-06
-0.000105603
-1.75622e-06
-0.000116406
-1.50947e-05
-0.000117872
-2.87548e-05
-0.000100603
-3.83582e-05
-2.99703e-05
-6.78924e-05
-1.52627e-05
-6.2932e-05
-2.06871e-05
4.59746e-05
-2.11359e-05
4.08196e-05
-5.82197e-06
6.81759e-06
7.67001e-06
-7.70534e-06
1.47465e-05
-2.0602e-06
2.93421e-05
9.1281e-06
5.88115e-05
3.28641e-05
9.40232e-05
8.77187e-05
0.00012079
0.000157959
0.00014478
0.000206813
0.000164057
0.000220894
0.000168093
0.000206439
0.000147909
0.000184457
9.0828e-05
0.000155627
1.59485e-05
0.000112104
-3.87409e-05
6.36379e-05
-5.21916e-05
1.48068e-05
-4.70369e-05
-6.91086e-06
-4.01631e-05
-2.19685e-05
-3.20968e-05
-3.68211e-05
-2.10601e-05
-4.9395e-05
-3.24321e-05
-1.85983e-05
-1.82121e-05
-4.47197e-05
-1.69443e-05
4.47069e-05
-1.45498e-05
3.84254e-05
-2.7383e-06
-4.99391e-06
-2.64605e-06
-7.79744e-06
-1.3324e-06
-3.3739e-06
1.24089e-05
-4.61321e-06
4.21441e-05
3.12907e-06
8.57693e-05
4.40936e-05
0.000129123
0.000114606
0.000160859
0.000175077
0.000183623
0.00019813
0.000199302
0.000190759
0.000208038
0.000175722
0.000201104
0.00016256
0.000170714
0.000142494
0.00012173
0.000112622
6.90698e-05
6.74671e-05
2.97128e-05
3.24461e-05
1.75358e-05
-9.79138e-06
2.46372e-05
-4.39226e-05
3.59059e-05
-6.06638e-05
-5.61876e-05
5.96611e-05
-1.99484e-05
-2.47711e-05
-1.71886e-05
4.19472e-05
-1.46009e-05
3.58377e-05
-1.77336e-05
-1.86131e-06
-2.53443e-05
-1.86754e-07
-2.11773e-05
-7.54107e-06
-8.92092e-06
-1.68696e-05
1.20095e-05
-1.78013e-05
4.99825e-05
6.12056e-06
0.000100465
6.41227e-05
0.000145255
0.000130287
0.000177853
0.000165532
0.000200457
0.000168154
0.000219222
0.000156956
0.00023622
0.000145562
0.00024506
0.000133655
0.000241595
0.000116087
0.000224216
8.48461e-05
0.000207231
4.94319e-05
0.000187719
9.7202e-06
0.000170091
-2.62947e-05
0.000158083
-4.86563e-05
-5.71234e-05
0.000159019
-2.14783e-05
-3.29277e-06
-2.62212e-05
4.66901e-05
-2.66289e-05
3.62451e-05
-4.07254e-05
1.22351e-05
-4.95999e-05
8.68749e-06
-4.54599e-05
-1.16812e-05
-3.56587e-05
-2.66707e-05
-2.09883e-05
-3.24717e-05
7.58704e-06
-2.24548e-05
5.3974e-05
1.77357e-05
0.000106934
7.73273e-05
0.000151777
0.000120689
0.000183806
0.000136126
0.000206904
0.000133857
0.000227214
0.000125252
0.000246328
0.00011454
0.000262063
0.000100352
0.000269553
7.73554e-05
0.000271458
4.75267e-05
0.000267132
1.40462e-05
0.000259282
-1.84445e-05
0.000255586
-4.49597e-05
-6.11536e-05
0.000259616
-2.53482e-05
2.20554e-05
-3.8227e-05
5.95689e-05
-4.80117e-05
4.60297e-05
-6.88817e-05
3.3105e-05
-7.72697e-05
1.70754e-05
-7.89511e-05
-9.99967e-06
-7.44552e-05
-3.11665e-05
-6.29197e-05
-4.40073e-05
-4.22966e-05
-4.30779e-05
-1.6609e-06
-2.29e-05
5.48335e-05
2.08328e-05
0.000112709
6.28137e-05
0.000158532
9.0303e-05
0.000190088
0.000102301
0.000211008
0.000104333
0.000225948
9.96002e-05
0.000237648
8.86524e-05
0.000245238
6.97647e-05
0.000249223
4.35417e-05
0.00025033
1.29393e-05
0.000249904
-1.80178e-05
0.000248789
-4.38452e-05
-6.13644e-05
0.000248999
-3.13985e-05
5.34538e-05
-4.76104e-05
7.57806e-05
-6.67274e-05
6.51467e-05
-8.86391e-05
5.50166e-05
-9.9143e-05
2.75793e-05
-0.000103091
-6.05161e-06
-0.000100053
-3.42042e-05
-9.05159e-05
-5.35447e-05
-7.35324e-05
-6.00615e-05
-4.45861e-05
-5.18464e-05
5.33441e-06
-2.90877e-05
6.54527e-05
2.69536e-06
0.000121983
3.37727e-05
0.000165606
5.86776e-05
0.000193661
7.62781e-05
0.000208543
8.47177e-05
0.000214309
8.2886e-05
0.000214038
7.00361e-05
0.000210155
4.74244e-05
0.000204672
1.84227e-05
0.000198989
-1.23351e-05
0.0001938
-3.86563e-05
-5.78267e-05
0.000190262
-3.33907e-05
8.68445e-05
-5.3355e-05
9.5745e-05
-7.7319e-05
8.91107e-05
-9.89568e-05
7.66544e-05
-0.000111949
4.05715e-05
-0.000117909
-9.14055e-08
-0.000116228
-3.58849e-05
-0.000106687
-6.30865e-05
-8.92154e-05
-7.75324e-05
-6.28754e-05
-7.81864e-05
-2.49496e-05
-6.70135e-05
2.45646e-05
-4.68189e-05
7.79572e-05
-1.96199e-05
0.000125788
1.08469e-05
0.000161407
4.06595e-05
0.000182112
6.40124e-05
0.000189707
7.5291e-05
0.000187688
7.20544e-05
0.00017983
5.52822e-05
0.000169155
2.90977e-05
0.000157679
-8.58427e-07
0.000147424
-2.84016e-05
-5.12094e-05
0.000140806
-3.06001e-05
0.000117445
-5.33207e-05
0.000118466
-7.80133e-05
0.000113804
-0.000100431
9.90724e-05
-0.00011648
5.66208e-05
-0.000126217
9.64547e-06
-0.000128035
-3.40668e-05
-0.000120942
-7.01803e-05
-0.000104678
-9.37961e-05
-7.97446e-05
-0.000103119
-4.70366e-05
-9.97215e-05
-7.16687e-06
-8.66887e-05
3.63007e-05
-6.30875e-05
7.72746e-05
-3.0127e-05
0.000112937
4.99742e-06
0.000137328
3.96213e-05
0.000150171
6.24474e-05
0.000152692
6.9534e-05
0.000147632
6.03416e-05
0.0001381
3.86301e-05
0.000126646
1.0595e-05
0.000116633
-1.83884e-05
-4.65429e-05
0.000111966
-2.58168e-05
0.000143261
-4.76065e-05
0.000140256
-6.98718e-05
0.000136069
-9.23132e-05
0.000121514
-0.000111533
7.58411e-05
-0.00012603
2.41421e-05
-0.000133314
-2.67829e-05
-0.0001314
-7.20942e-05
-0.000119594
-0.000105602
-9.92209e-05
-0.000123493
-7.26568e-05
-0.000126286
-4.2069e-05
-0.000117277
-8.12808e-06
-9.70284e-05
2.57124e-05
-6.39674e-05
5.4944e-05
-2.42341e-05
7.93189e-05
1.52463e-05
9.58097e-05
4.59567e-05
0.000104674
6.06698e-05
0.000106455
5.85605e-05
0.000102791
4.22947e-05
9.59308e-05
1.74549e-05
8.86219e-05
-1.10795e-05
-4.20384e-05
8.41174e-05
-1.89768e-05
0.000162238
-3.68588e-05
0.000158138
-5.38778e-05
0.000153088
-7.35939e-05
0.00014123
-9.48804e-05
9.71276e-05
-0.00011412
4.33817e-05
-0.000127997
-1.29056e-05
-0.000133522
-6.65699e-05
-0.000128687
-0.000110436
-0.000114734
-0.000137446
-9.5556e-05
-0.000145463
-7.45739e-05
-0.000138258
-5.20237e-05
-0.000119578
-2.81171e-05
-8.7874e-05
-4.69281e-06
-4.76583e-05
1.72255e-05
-6.6721e-06
3.54722e-05
2.771e-05
4.98778e-05
4.62642e-05
5.92305e-05
4.92076e-05
6.27351e-05
3.87901e-05
6.11917e-05
1.89983e-05
5.5895e-05
-5.78291e-06
-3.36749e-05
4.75314e-05
-9.73415e-06
0.000171972
-2.24101e-05
0.000170814
-3.09004e-05
0.000161578
-4.35809e-05
0.000153911
-6.42058e-05
0.000117752
-8.66099e-05
6.57858e-05
-0.000107054
7.53827e-06
-0.000121766
-5.1858e-05
-0.000126416
-0.000105786
-0.000120376
-0.000143486
-0.000108247
-0.000157592
-9.55618e-05
-0.000150944
-8.31855e-05
-0.000131955
-6.95897e-05
-0.00010147
-5.49925e-05
-6.22554e-05
-3.84539e-05
-2.32109e-05
-1.94143e-05
8.67062e-06
-5.48789e-07
2.73986e-05
1.50824e-05
3.35764e-05
2.53641e-05
2.85087e-05
2.99995e-05
1.43628e-05
2.77569e-05
-3.5403e-06
-2.14543e-05
1.55363e-05
4.70368e-07
0.000171502
-3.65382e-06
0.000174938
-2.81793e-06
0.000160742
-5.13583e-06
0.000156229
-1.9346e-05
0.000131962
-4.09129e-05
8.73527e-05
-6.65786e-05
3.3204e-05
-9.03533e-05
-2.80833e-05
-0.000106995
-8.91436e-05
-0.000111434
-0.000139046
-0.000106614
-0.000162412
-0.000100086
-0.000157472
-9.44574e-05
-0.000137583
-8.82856e-05
-0.000107642
-8.05112e-05
-7.00298e-05
-6.96357e-05
-3.40865e-05
-5.38275e-05
-7.13715e-06
-3.39577e-05
7.52877e-06
-1.34078e-05
1.30265e-05
3.19148e-06
1.19097e-05
1.25586e-05
4.99568e-06
1.23971e-05
-3.37885e-06
-9.70163e-06
6.4446e-07
8.01219e-06
0.00016349
1.42471e-05
0.000168703
2.9088e-05
0.000145901
4.07468e-05
0.00014457
3.65103e-05
0.000136199
1.90952e-05
0.000104768
-6.07245e-06
5.83718e-05
-3.63625e-05
2.20685e-06
-6.55063e-05
-5.99997e-05
-8.40658e-05
-0.000120487
-8.96985e-05
-0.000156779
-8.88061e-05
-0.000158364
-8.69151e-05
-0.000139475
-8.38918e-05
-0.000110665
-7.74042e-05
-7.6517e-05
-6.80893e-05
-4.34015e-05
-5.43512e-05
-2.08749e-05
-3.69625e-05
-9.8601e-06
-1.826e-05
-5.67602e-06
-2.52615e-06
-3.82417e-06
6.62707e-06
-4.15744e-06
9.61753e-06
-6.36914e-06
-7.13523e-06
7.05147e-06
6.33858e-06
0.000157152
2.10964e-05
0.000153945
4.65415e-05
0.000120456
7.46604e-05
0.000116451
8.9792e-05
0.000121067
8.53306e-05
0.000109229
6.60604e-05
7.76421e-05
3.53099e-05
3.29573e-05
-2.35756e-06
-2.23322e-05
-3.75147e-05
-8.53297e-05
-5.85947e-05
-0.000135699
-6.57675e-05
-0.000151191
-6.73659e-05
-0.000137876
-6.70724e-05
-0.000110959
-6.16649e-05
-8.19244e-05
-5.20036e-05
-5.30628e-05
-4.03524e-05
-3.25263e-05
-2.73415e-05
-2.28709e-05
-1.42686e-05
-1.87484e-05
-2.33016e-06
-1.57624e-05
7.38912e-06
-1.38766e-05
1.50016e-05
-1.39815e-05
-1.52306e-05
2.30972e-05
6.71265e-06
0.000150439
1.50452e-05
0.000145613
3.84556e-05
9.70459e-05
7.56332e-05
7.92732e-05
0.000111781
8.49194e-05
0.000130938
9.0073e-05
0.000128748
7.98312e-05
0.000107541
5.41648e-05
6.89845e-05
1.62242e-05
2.28116e-05
-3.91566e-05
-1.55794e-05
-9.73083e-05
-3.48099e-05
-0.000131961
-4.16368e-05
-0.000131049
-4.50522e-05
-0.000107543
-4.40122e-05
-8.29647e-05
-3.72433e-05
-5.98307e-05
-2.82824e-05
-4.14871e-05
-1.93869e-05
-3.17666e-05
-1.02347e-05
-2.79007e-05
-7.70938e-07
-2.52261e-05
8.69011e-06
-2.33377e-05
1.83744e-05
-2.36657e-05
-2.68598e-05
3.00036e-05
2.1172e-05
0.000129267
2.23547e-05
0.00014443
2.83723e-05
9.10283e-05
5.22698e-05
5.53758e-05
9.07502e-05
4.6439e-05
0.000129102
5.17213e-05
0.000152021
5.6912e-05
0.000151632
5.45547e-05
0.000126658
4.11977e-05
8.0151e-05
7.35098e-06
3.26612e-05
-4.98187e-05
4.28971e-07
-9.97285e-05
-1.4002e-05
-0.000116619
-2.07896e-05
-0.000100755
-2.46674e-05
-7.90873e-05
-2.34333e-05
-6.10651e-05
-1.82671e-05
-4.66535e-05
-1.2468e-05
-3.75655e-05
-6.41802e-06
-3.39505e-05
4.86457e-07
-3.21306e-05
7.98845e-06
-3.08397e-05
1.59524e-05
-3.16295e-05
-3.56137e-05
2.47063e-05
3.65598e-05
9.27073e-05
4.94059e-05
0.000131584
5.00455e-05
9.03889e-05
5.74349e-05
4.79865e-05
7.77368e-05
2.61371e-05
0.000109515
1.99428e-05
0.000140965
2.54629e-05
0.000157726
3.77931e-05
0.000151209
4.77147e-05
0.00011948
3.90801e-05
7.38632e-05
-4.20176e-06
3.47476e-05
-6.06127e-05
1.21274e-05
-9.39985e-05
1.36672e-06
-8.99944e-05
-5.31759e-06
-7.24024e-05
-8.90684e-06
-5.74757e-05
-8.61409e-06
-4.69464e-05
-6.04815e-06
-4.01315e-05
-2.63584e-06
-3.73629e-05
1.67122e-06
-3.64377e-05
6.61922e-06
-3.57876e-05
1.15131e-05
-3.65234e-05
-3.98665e-05
1.57657e-05
3.22581e-05
6.04494e-05
6.37996e-05
0.000100043
8.24748e-05
7.17138e-05
9.84707e-05
3.19907e-05
0.000117001
7.60651e-06
0.000134754
2.18973e-06
0.000149369
1.08487e-05
0.000158866
2.82962e-05
0.000157456
4.91244e-05
0.000136946
5.95901e-05
0.000100001
3.27433e-05
6.22026e-05
-2.28145e-05
3.51098e-05
-6.69055e-05
1.99232e-05
-7.48081e-05
1.07128e-05
-6.31922e-05
4.68463e-06
-5.14478e-05
1.46559e-06
-4.37275e-05
8.09165e-07
-3.9475e-05
1.64189e-06
-3.81956e-05
3.34968e-06
-3.81455e-05
5.78332e-06
-3.82213e-05
8.29806e-06
-3.90382e-05
-4.14591e-05
9.89061e-06
1.27204e-05
4.77291e-05
4.99165e-05
6.28472e-05
8.63627e-05
3.52676e-05
0.000119492
-1.13847e-06
0.000152077
-2.49786e-05
0.000177033
-2.27662e-05
0.000184875
3.00631e-06
0.000178128
3.50437e-05
0.000164047
6.32044e-05
0.000141982
8.16554e-05
0.000111347
6.33779e-05
7.89332e-05
9.59994e-06
5.1786e-05
-3.97585e-05
3.33174e-05
-5.63394e-05
2.15149e-05
-5.13897e-05
1.43584e-05
-4.42914e-05
9.85446e-06
-3.92235e-05
7.19801e-06
-3.68186e-05
5.84054e-06
-3.68382e-05
5.38911e-06