/*--------------------------------*- C++ -*----------------------------------*\
| =========                 |                                                 |
| \\      /  F ield         | OpenFOAM: The Open Source CFD Toolbox           |
|  \\    /   O peration     | Version:  2.3.0                                 |
|   \\  /    A nd           | Web:      www.OpenFOAM.org                      |
|    \\/     M anipulation  |                                                 |
\*---------------------------------------------------------------------------*/
FoamFile
{
    version     2.0;
    format      ascii;
    class       volVectorField;
    location    "1.75";
    object      U;
}
// * * * * * * * * * * * * * * * * * * * * * * * * * * * * * * * * * * * * * //

dimensions      [0 1 -1 0 0 0 0];

internalField   nonuniform List<vector> 
2268
(
(0.0250867 -0.0112399 0)
(0.00902789 0.00484259 0)
(-0.0362937 0.00967765 0)
(-0.0172109 -0.00926881 0)
(0.0719446 -0.0234333 0)
(0.121777 0.000857184 0)
(0.0713193 0.0275187 0)
(-0.116445 0.0245887 0)
(-0.19547 0.00995026 0)
(-0.18793 -0.00441068 0)
(-0.174406 -0.00945362 0)
(-0.170558 -0.00393781 0)
(-0.160864 -0.00467559 0)
(-0.135868 -0.00703409 0)
(-0.103423 -0.00443063 0)
(-0.0844417 0.00391984 0)
(-0.107925 0.00947113 0)
(-0.165459 0.00787957 0)
(-0.198345 0.000681905 0)
(-0.18399 -0.0122779 0)
(-0.145722 -0.018278 0)
(-0.0948287 -0.0210001 0)
(-0.0328432 -0.0200138 0)
(-0.00236667 -0.00613777 0)
(-0.0634848 0.0251247 0)
(-0.101857 0.0132503 0)
(-0.0526721 -0.0469744 0)
(0.0359262 -0.0594287 0)
(0.0666131 0.00837601 0)
(0.08897 0.0838942 0)
(-0.115148 0.0791915 0)
(-0.185569 0.0279117 0)
(-0.130225 -0.00405877 0)
(-0.163976 -0.00522254 0)
(-0.17888 0.000148983 0)
(-0.175215 -0.00932706 0)
(-0.148022 -0.0215029 0)
(-0.112474 -0.0188704 0)
(-0.0804893 0.00107293 0)
(-0.0800642 0.0252069 0)
(-0.123517 0.0290241 0)
(-0.12105 0.00980022 0)
(-0.0966948 -0.0163971 0)
(-0.0917058 -0.0273675 0)
(-0.0639853 -0.038769 0)
(-0.0226254 -0.0459757 0)
(-0.0246853 0.0171924 0)
(-0.110865 0.0515848 0)
(-0.135462 0.0181152 0)
(-0.0906508 -0.081527 0)
(-0.0217031 -0.0922864 0)
(0.0384001 -0.0104142 0)
(0.0363364 0.119848 0)
(-0.058743 0.127798 0)
(-0.123874 0.0401168 0)
(-0.101696 -0.0064425 0)
(-0.161759 0.008359 0)
(-0.186725 0.00643019 0)
(-0.177825 -0.0172934 0)
(-0.144688 -0.0392111 0)
(-0.10944 -0.0369499 0)
(-0.0772755 -0.0134452 0)
(-0.0394939 0.0191205 0)
(-0.0323375 0.0327065 0)
(-0.0334364 0.00703423 0)
(-0.0422953 -0.019222 0)
(-0.041435 -0.0272149 0)
(-0.0325922 -0.0456984 0)
(-0.0079139 -0.0618034 0)
(-0.0423846 0.0523695 0)
(-0.146753 0.0821906 0)
(-0.161515 0.0192971 0)
(-0.140291 -0.107488 0)
(-0.105968 -0.123048 0)
(-0.0333873 -0.0176672 0)
(-0.0221235 0.135536 0)
(-0.0117996 0.153044 0)
(-0.0767615 0.0603686 0)
(-0.0970393 0.0166632 0)
(-0.162978 0.0271636 0)
(-0.18024 0.0102142 0)
(-0.157461 -0.0280357 0)
(-0.111084 -0.0563279 0)
(-0.0797639 -0.0497733 0)
(-0.0700377 -0.0280442 0)
(-0.0418014 -0.00132603 0)
(-0.00845616 0.0248632 0)
(-0.0326292 0.0195796 0)
(-0.0666074 -0.0139341 0)
(-0.0372959 -0.0340321 0)
(-0.0138662 -0.0521914 0)
(0.00598285 -0.0683377 0)
(-0.0490926 0.0962214 0)
(-0.167722 0.113595 0)
(-0.183249 0.0140068 0)
(-0.185283 -0.120993 0)
(-0.181309 -0.148185 0)
(-0.126569 -0.0475202 0)
(-0.0532672 0.1207 0)
(-0.00962321 0.153202 0)
(-0.0668799 0.0791932 0)
(-0.10914 0.0405669 0)
(-0.159966 0.040535 0)
(-0.160004 0.00603594 0)
(-0.116996 -0.0461638 0)
(-0.0502783 -0.075783 0)
(-0.022137 -0.0531432 0)
(-0.0391737 -0.0286008 0)
(-0.0473656 -0.0131415 0)
(-0.0389597 0.0253275 0)
(-0.0794155 0.0388358 0)
(-0.10123 -0.0199155 0)
(-0.0463075 -0.0536999 0)
(0.00109341 -0.0639482 0)
(0.0207799 -0.0620765 0)
(-0.0401433 0.143087 0)
(-0.158209 0.148195 0)
(-0.1699 0.0236945 0)
(-0.190876 -0.117349 0)
(-0.216168 -0.15981 0)
(-0.201284 -0.0705731 0)
(-0.107719 0.0903776 0)
(-0.0595021 0.147614 0)
(-0.0929592 0.0960283 0)
(-0.126855 0.0623378 0)
(-0.148997 0.0457871 0)
(-0.125495 -0.00695933 0)
(-0.062576 -0.0732953 0)
(0.00951633 -0.101268 0)
(0.0357802 -0.0532618 0)
(0.0117306 -0.0143678 0)
(-0.0340596 -0.00251237 0)
(-0.0670246 0.0375263 0)
(-0.110957 0.0564178 0)
(-0.107057 -0.0331889 0)
(-0.05935 -0.083534 0)
(0.0126446 -0.0816433 0)
(0.0433888 -0.0546863 0)
(-0.0162664 0.180673 0)
(-0.119856 0.179033 0)
(-0.11909 0.0354537 0)
(-0.1467 -0.101807 0)
(-0.197087 -0.153557 0)
(-0.242826 -0.0818578 0)
(-0.174981 0.0639413 0)
(-0.122002 0.138071 0)
(-0.130834 0.101959 0)
(-0.135163 0.0708056 0)
(-0.125846 0.0357756 0)
(-0.0805263 -0.0310622 0)
(-0.00891346 -0.105776 0)
(0.0256734 -0.128559 0)
(0.0566159 -0.061442 0)
(0.0530972 -0.000187633 0)
(0.00194186 0.0217093 0)
(-0.0608997 0.0534045 0)
(-0.106032 0.0690303 0)
(-0.084817 -0.0533059 0)
(-0.0628402 -0.114457 0)
(0.00449687 -0.110518 0)
(0.0594073 -0.0606451 0)
(0.0148711 0.206452 0)
(-0.0694056 0.202227 0)
(-0.0388387 0.0493867 0)
(-0.0552424 -0.0784634 0)
(-0.126442 -0.123581 0)
(-0.224382 -0.0671988 0)
(-0.221167 0.0410503 0)
(-0.149086 0.131962 0)
(-0.140113 0.108892 0)
(-0.121422 0.0697921 0)
(-0.0933309 0.022065 0)
(-0.045657 -0.0568387 0)
(0.00632668 -0.128319 0)
(-0.0255966 -0.136802 0)
(0.0162838 -0.0707933 0)
(0.0526281 0.0120495 0)
(0.0513068 0.0509823 0)
(-0.00444332 0.0746148 0)
(-0.0705369 0.0812817 0)
(-0.0143034 -0.070283 0)
(-0.0072775 -0.12558 0)
(0.0128946 -0.132335 0)
(0.0401803 0.00139813 0)
(0.0241676 -0.00583304 0)
(-0.0466289 0.0209731 0)
(-0.200803 0.0345821 0)
(-0.345354 0.0267055 0)
(-0.370211 -0.00290749 0)
(-0.267584 -0.0337525 0)
(-0.125193 -0.0394252 0)
(0.0199785 -0.0361612 0)
(0.151754 -0.0255565 0)
(0.26104 -0.0115757 0)
(0.329005 0.000406482 0)
(0.354893 0.00764289 0)
(0.338478 0.0175357 0)
(0.257811 0.0291253 0)
(0.133163 0.0162585 0)
(0.0852248 -0.00682428 0)
(0.0641205 0.00873917 0)
(-0.0564824 0.00975049 0)
(-0.0419226 -0.017231 0)
(-0.0270973 0.0220364 0)
(-0.148285 0.0680659 0)
(-0.288517 0.0848388 0)
(-0.343504 0.0483152 0)
(-0.26105 -0.0278047 0)
(-0.145777 -0.0905504 0)
(-0.0255149 -0.098117 0)
(0.0780381 -0.0891235 0)
(0.163209 -0.0763771 0)
(0.242606 -0.0617165 0)
(0.321568 -0.0392706 0)
(0.383716 -0.0128493 0)
(0.440953 0.0178261 0)
(0.467204 0.0544423 0)
(0.406384 0.0714035 0)
(0.286253 0.0468222 0)
(0.143255 0.0460527 0)
(-0.0283317 0.0444361 0)
(0.00382268 -0.0369195 0)
(-0.0386599 0.0635413 0)
(-0.137072 0.106528 0)
(-0.198333 0.107916 0)
(-0.165791 0.0374271 0)
(-0.0428247 -0.0749289 0)
(0.0628685 -0.135147 0)
(0.161171 -0.139887 0)
(0.224956 -0.115744 0)
(0.256848 -0.0927912 0)
(0.275101 -0.0792784 0)
(0.303958 -0.0605962 0)
(0.342444 -0.0395883 0)
(0.391369 -0.0139247 0)
(0.464839 0.0378152 0)
(0.492379 0.0948382 0)
(0.409988 0.107265 0)
(0.226833 0.111214 0)
(0.0319878 0.0849625 0)
(0.0456476 -0.0331624 0)
(-0.0204572 0.0946643 0)
(-0.0687784 0.121119 0)
(-0.0506396 0.101245 0)
(0.0369675 0.00339565 0)
(0.159913 -0.117652 0)
(0.275145 -0.177658 0)
(0.356517 -0.169978 0)
(0.382001 -0.128093 0)
(0.369069 -0.0940347 0)
(0.343013 -0.0801549 0)
(0.32932 -0.0681531 0)
(0.344689 -0.0535964 0)
(0.381595 -0.0358362 0)
(0.437074 0.0149323 0)
(0.489705 0.0980035 0)
(0.460722 0.154274 0)
(0.305677 0.181585 0)
(0.12024 0.142378 0)
(0.0869904 -0.00137231 0)
(0.0140473 0.109562 0)
(0.0158851 0.116108 0)
(0.0913071 0.0700799 0)
(0.209388 -0.0367147 0)
(0.354159 -0.162386 0)
(0.496293 -0.219593 0)
(0.568778 -0.183252 0)
(0.549923 -0.116621 0)
(0.480237 -0.0739274 0)
(0.408372 -0.0634361 0)
(0.361283 -0.0615783 0)
(0.354404 -0.0611033 0)
(0.385173 -0.0542128 0)
(0.428897 -0.00457182 0)
(0.469615 0.0930915 0)
(0.466304 0.183903 0)
(0.360814 0.241271 0)
(0.20631 0.204303 0)
(0.12585 0.0524168 0)
(0.0479561 0.0839143 0)
(0.104928 0.078411 0)
(0.213344 0.0167877 0)
(0.362635 -0.0909311 0)
(0.563857 -0.227983 0)
(0.720829 -0.272539 0)
(0.769783 -0.191671 0)
(0.705467 -0.0822227 0)
(0.578971 -0.0299754 0)
(0.461465 -0.0313985 0)
(0.386701 -0.0448247 0)
(0.36366 -0.0644548 0)
(0.392921 -0.0716828 0)
(0.437877 -0.0186809 0)
(0.458347 0.0893011 0)
(0.449315 0.20172 0)
(0.383509 0.284872 0)
(0.270056 0.263216 0)
(0.157115 0.130678 0)
(0.0572983 0.0687058 0)
(0.157136 0.0508281 0)
(0.326649 -0.0422369 0)
(0.551622 -0.174961 0)
(0.77161 -0.316396 0)
(0.855507 -0.330425 0)
(0.842573 -0.209019 0)
(0.760505 -0.0480323 0)
(0.616068 0.026204 0)
(0.478717 0.0129403 0)
(0.394242 -0.0205357 0)
(0.365299 -0.064158 0)
(0.387687 -0.090325 0)
(0.431886 -0.0281118 0)
(0.443492 0.0930889 0)
(0.421083 0.213731 0)
(0.379067 0.310145 0)
(0.302816 0.312819 0)
(0.173822 0.21798 0)
(0.155228 -0.0295634 0)
(0.320123 -0.0735265 0)
(0.536867 -0.162622 0)
(0.739198 -0.274869 0)
(0.827699 -0.371409 0)
(0.714776 -0.320206 0)
(0.604599 -0.163618 0)
(0.57822 0.00189915 0)
(0.506399 0.0715424 0)
(0.418912 0.0549505 0)
(0.362988 0.0098949 0)
(0.346832 -0.0606607 0)
(0.36171 -0.107374 0)
(0.392533 -0.0424039 0)
(0.404446 0.0911426 0)
(0.378741 0.222521 0)
(0.358027 0.32978 0)
(0.315134 0.358539 0)
(0.176866 0.314752 0)
(0.0432904 0.200403 0)
(0.0179679 0.214024 0)
(0.0921946 0.0564674 0)
(0.0769384 -0.0497365 0)
(0.0045971 -0.0616593 0)
(-0.0582357 0.00518919 0)
(-0.19439 0.0324495 0)
(-0.183693 0.0571085 0)
(-0.143995 0.052938 0)
(-0.121063 0.0301401 0)
(-0.0756926 -0.0231236 0)
(-0.0404765 -0.0935501 0)
(-0.0820017 -0.103117 0)
(-0.168184 -0.115736 0)
(-0.111641 -0.088197 0)
(-0.0337317 -0.0359977 0)
(0.0504111 0.023506 0)
(0.0561846 0.082656 0)
(0.01772 0.0910311 0)
(0.160402 -0.0847809 0)
(0.193373 -0.131572 0)
(0.144865 -0.128637 0)
(0.132544 -0.0941249 0)
(0.0333798 0.146638 0)
(0.0682707 0.164738 0)
(0.127806 0.0439102 0)
(0.100962 0.00334603 0)
(0.143548 -0.0137236 0)
(0.217967 0.0327416 0)
(0.165411 0.119373 0)
(0.0921751 0.102877 0)
(0.132264 0.0617492 0)
(0.110423 0.0168817 0)
(-0.00623526 -0.0336122 0)
(-0.151019 -0.0305063 0)
(-0.26794 -0.00716449 0)
(-0.352021 -0.109603 0)
(-0.311757 -0.175819 0)
(-0.152848 -0.110058 0)
(-0.00777367 0.000475155 0)
(0.0342672 0.0770363 0)
(0.159534 -0.00423616 0)
(0.374622 -0.179267 0)
(0.461063 -0.16875 0)
(0.342389 -0.0926133 0)
(0.231176 -0.0853431 0)
(-0.0645575 0.135253 0)
(-0.00873491 0.0961556 0)
(0.0145165 0.0117342 0)
(0.0880938 -0.0754059 0)
(0.236282 -0.121616 0)
(0.29593 0.0352172 0)
(0.293451 0.20518 0)
(0.297995 0.15016 0)
(0.0217705 0.122611 0)
(-0.504064 0.258103 0)
(-0.417951 0.183266 0)
(-0.337742 0.100587 0)
(-0.319846 0.032218 0)
(-0.47613 -0.0626384 0)
(-0.625291 -0.328118 0)
(-0.380508 -0.332361 0)
(-0.102529 -0.154949 0)
(0.0633473 -0.0781682 0)
(0.288857 -0.212339 0)
(0.398049 -0.35248 0)
(0.139791 -0.0696135 0)
(-0.15567 0.157529 0)
(-0.230351 0.0266084 0)
(-0.109495 0.159418 0)
(-0.0587909 0.0627222 0)
(-0.390086 -0.0250746 0)
(-0.485236 -0.251958 0)
(-0.185046 -0.0242166 0)
(0.0566213 -0.130246 0)
(0.282179 0.116175 0)
(0.407164 0.271289 0)
(0.638876 0.542068 0)
(-0.0147675 0.510526 0)
(0.164067 -0.089149 0)
(-0.303062 -0.13491 0)
(-0.191974 0.103936 0)
(-0.652459 0.288389 0)
(-0.703072 -0.242909 0)
(-0.790202 -0.631292 0)
(-0.557024 -0.547588 0)
(-0.268253 -0.477923 0)
(-0.0324366 -0.394581 0)
(-0.345795 0.0111811 0)
(-0.902005 0.561482 0)
(-1.32821 0.379637 0)
(-1.4387 0.444418 0)
(-0.115018 0.296163 0)
(-0.215304 0.298105 0)
(-0.333827 0.139394 0)
(0.0169898 -0.322013 0)
(0.225062 -0.598339 0)
(0.37843 -0.499572 0)
(0.532424 -0.222796 0)
(0.678305 0.0993345 0)
(0.875063 0.497971 0)
(0.732054 0.685593 0)
(0.713732 0.477185 0)
(0.364772 0.315553 0)
(-0.0642682 0.369931 0)
(-0.390851 0.390989 0)
(-0.485081 -0.129763 0)
(-0.654747 -0.528235 0)
(-0.705959 -0.636809 0)
(-0.597147 -0.533119 0)
(-0.420621 -0.115708 0)
(-0.221821 0.428142 0)
(-0.691423 0.862269 0)
(-1.07325 0.550371 0)
(-1.05238 0.141906 0)
(0.000683169 0.391868 0)
(0.0870728 0.356992 0)
(0.17258 -0.00783968 0)
(0.371131 -0.473083 0)
(0.439887 -0.658388 0)
(0.474105 -0.547235 0)
(0.557968 -0.285199 0)
(0.666792 0.0225561 0)
(0.797523 0.364276 0)
(0.903852 0.622981 0)
(0.886883 0.675147 0)
(0.684209 0.661454 0)
(0.31255 0.673499 0)
(0.0182646 0.573908 0)
(-0.0142103 0.13571 0)
(-0.0817695 -0.348905 0)
(-0.193015 -0.584022 0)
(-0.111931 -0.741666 0)
(-0.0215641 -0.614398 0)
(0.263173 0.296992 0)
(-0.0227832 1.21405 0)
(-0.461757 0.877993 0)
(-0.577793 0.154059 0)
(0.0518025 0.262376 0)
(0.219452 0.253085 0)
(0.395988 -0.133522 0)
(0.489481 -0.535335 0)
(0.422201 -0.688201 0)
(0.38215 -0.586909 0)
(0.425778 -0.357092 0)
(0.502471 -0.0820307 0)
(0.598508 0.242833 0)
(0.696731 0.541781 0)
(0.728797 0.749607 0)
(0.65624 0.881712 0)
(0.469594 0.915398 0)
(0.264106 0.722987 0)
(0.201808 0.218096 0)
(0.199507 -0.286773 0)
(0.149716 -0.529062 0)
(0.219897 -0.708638 0)
(0.200134 -0.668633 0)
(0.359869 0.0789023 0)
(0.492464 1.48238 0)
(0.0636576 1.30036 0)
(-0.196729 0.362446 0)
(0.04474 0.0836955 0)
(0.217957 -0.0179993 0)
(0.352973 -0.291218 0)
(0.33635 -0.511731 0)
(0.149882 -0.609307 0)
(0.117409 -0.569279 0)
(0.187327 -0.395021 0)
(0.254587 -0.15247 0)
(0.343791 0.178143 0)
(0.393119 0.503579 0)
(0.404517 0.773946 0)
(0.378366 0.987533 0)
(0.301571 1.04858 0)
(0.194365 0.805879 0)
(0.149242 0.233972 0)
(0.192103 -0.280567 0)
(0.243713 -0.634246 0)
(0.226202 -0.698349 0)
(0.126626 -0.618637 0)
(0.0834661 -0.208503 0)
(0.398501 1.42434 0)
(0.172362 1.56312 0)
(-0.071745 0.640066 0)
(0.0464731 -0.0239275 0)
(0.180006 -0.18675 0)
(0.217719 -0.26602 0)
(0.0324012 -0.323117 0)
(-0.176354 -0.521504 0)
(-0.18262 -0.605845 0)
(-0.0914123 -0.481857 0)
(-0.0287811 -0.238813 0)
(0.0606326 0.142585 0)
(0.0679788 0.500338 0)
(0.00812835 0.803226 0)
(-0.0499783 1.05969 0)
(-0.103968 1.11954 0)
(-0.145542 0.808819 0)
(-0.114548 0.187226 0)
(0.0255911 -0.376196 0)
(0.0301003 -0.651042 0)
(-0.0053671 -0.637316 0)
(-0.103127 -0.544896 0)
(-0.234412 -0.113632 0)
(-0.0884256 1.57769 0)
(-0.120839 1.62548 0)
(-0.222318 0.756224 0)
(0.0862517 -0.120484 0)
(0.193704 -0.184113 0)
(0.0821818 -0.0594978 0)
(-0.211277 -0.159287 0)
(-0.355424 -0.456683 0)
(-0.408207 -0.620623 0)
(-0.360721 -0.580799 0)
(-0.301458 -0.313583 0)
(-0.255729 0.116463 0)
(-0.272935 0.549088 0)
(-0.414706 0.902392 0)
(-0.547828 1.16977 0)
(-0.629204 1.17469 0)
(-0.59251 0.75814 0)
(-0.339224 -0.0257386 0)
(-0.186381 -0.486325 0)
(-0.183656 -0.602106 0)
(-0.228882 -0.575868 0)
(-0.356624 -0.445532 0)
(-0.528999 0.0602817 0)
(-0.659492 1.54002 0)
(-0.441556 1.53508 0)
(-0.3816 0.75761 0)
(0.0958073 -0.318019 0)
(0.237606 -0.149969 0)
(0.0580566 0.186783 0)
(-0.234288 -0.00347278 0)
(-0.377699 -0.356795 0)
(-0.470645 -0.58863 0)
(-0.520923 -0.621317 0)
(-0.521324 -0.349848 0)
(-0.518922 0.135527 0)
(-0.58811 0.657583 0)
(-0.808995 1.09222 0)
(-1.02816 1.34936 0)
(-1.05823 1.15783 0)
(-0.731788 0.383574 0)
(-0.407731 -0.319905 0)
(-0.344333 -0.523657 0)
(-0.363991 -0.550797 0)
(-0.441021 -0.484892 0)
(-0.600823 -0.2215 0)
(-0.741533 0.379726 0)
(-0.897258 1.33883 0)
(-0.576 1.3207 0)
(-0.413634 0.54001 0)
(0.0561357 -0.498342 0)
(0.231052 -0.130412 0)
(0.141951 0.391708 0)
(-0.0798139 0.205414 0)
(-0.253149 -0.207259 0)
(-0.384082 -0.478214 0)
(-0.513425 -0.543474 0)
(-0.636149 -0.308591 0)
(-0.712601 0.224596 0)
(-0.841663 0.851209 0)
(-1.10901 1.35286 0)
(-1.30647 1.46714 0)
(-1.10332 0.879529 0)
(-0.655055 -0.0398989 0)
(-0.49713 -0.435016 0)
(-0.4811 -0.522827 0)
(-0.515309 -0.476376 0)
(-0.661025 -0.365679 0)
(-0.877291 -0.108533 0)
(-0.909063 0.437414 0)
(-0.905558 1.15906 0)
(-0.555559 1.05729 0)
(-0.277803 0.360871 0)
(0.0121617 -0.648008 0)
(0.172986 -0.169396 0)
(0.144298 0.438037 0)
(0.094923 0.407459 0)
(-0.00797308 0.0354619 0)
(-0.209074 -0.285459 0)
(-0.415704 -0.373489 0)
(-0.625008 -0.158621 0)
(-0.788596 0.39437 0)
(-0.949828 1.06998 0)
(-1.19113 1.55375 0)
(-1.26565 1.40084 0)
(-0.92271 0.456884 0)
(-0.675095 -0.220697 0)
(-0.632265 -0.513996 0)
(-0.660864 -0.494556 0)
(-0.728551 -0.331597 0)
(-0.950989 -0.223975 0)
(-1.13723 0.0291753 0)
(-1.13192 0.515891 0)
(-0.911927 0.927869 0)
(-0.562317 0.749875 0)
(-0.354375 0.262625 0)
(-0.0334454 -0.743584 0)
(0.0773632 -0.152441 0)
(-0.0070604 0.40922 0)
(0.0955451 0.413949 0)
(0.0868067 0.174351 0)
(-0.0258634 -0.039401 0)
(-0.289692 -0.152841 0)
(-0.544747 0.0303788 0)
(-0.737205 0.561556 0)
(-0.842864 1.23221 0)
(-0.99823 1.63643 0)
(-1.0207 1.24886 0)
(-0.80444 0.238144 0)
(-0.730158 -0.319072 0)
(-0.798026 -0.495468 0)
(-0.895108 -0.366384 0)
(-1.02591 -0.152463 0)
(-1.15586 -0.0591493 0)
(-1.15491 0.0863828 0)
(-1.01003 0.33931 0)
(-0.755537 0.493663 0)
(-0.496727 0.418056 0)
(-0.40607 0.194856 0)
(-0.0834121 -0.736665 0)
(-0.0385691 -0.0179727 0)
(-0.179383 0.353089 0)
(0.00574918 0.304514 0)
(0.0219509 0.15313 0)
(-0.0201387 0.0869033 0)
(-0.149947 0.102849 0)
(-0.381333 0.245055 0)
(-0.552825 0.666487 0)
(-0.576325 1.26888 0)
(-0.597296 1.6661 0)
(-0.652737 1.3167 0)
(-0.669411 0.247316 0)
(-0.748733 -0.249488 0)
(-0.89548 -0.394322 0)
(-1.03916 -0.243323 0)
(-1.1119 -0.0791841 0)
(-1.19106 -0.0780684 0)
(-1.12498 -0.0428352 0)
(-0.921175 0.143279 0)
(-0.695419 0.296334 0)
(-0.549463 0.317004 0)
(-0.556296 0.339285 0)
(-0.101835 -0.641771 0)
(-0.125342 0.0624065 0)
(-0.220183 0.271955 0)
(-0.0607606 0.208256 0)
(-0.0611171 0.153964 0)
(-0.0546719 0.149397 0)
(-0.0868307 0.222804 0)
(-0.172135 0.402068 0)
(-0.275172 0.736903 0)
(-0.261115 1.22251 0)
(-0.164746 1.59962 0)
(-0.127748 1.4276 0)
(-0.334708 0.491163 0)
(-0.632805 -0.107235 0)
(-0.839487 -0.264306 0)
(-0.952537 -0.186013 0)
(-1.01194 -0.000293327 0)
(-1.07221 -0.0512284 0)
(-1.08691 -0.146977 0)
(-0.996422 -0.0976997 0)
(-0.75154 0.112825 0)
(-0.552928 0.290644 0)
(-0.483334 0.384669 0)
(-0.0882794 -0.538127 0)
(-0.118131 0.133748 0)
(-0.183878 0.220882 0)
(-0.0986436 0.163729 0)
(-0.0944624 0.150131 0)
(-0.0382784 0.155865 0)
(0.00934211 0.26223 0)
(0.0407441 0.469671 0)
(0.0255574 0.759575 0)
(0.0632063 1.14078 0)
(0.194331 1.45763 0)
(0.307302 1.43998 0)
(0.220122 0.958554 0)
(-0.199224 0.288758 0)
(-0.596775 -0.0738908 0)
(-0.761838 -0.102608 0)
(-0.793444 0.00243681 0)
(-0.831202 0.0156356 0)
(-0.91817 -0.121751 0)
(-0.948163 -0.167404 0)
(-0.886403 -0.138297 0)
(-0.677625 -0.0180661 0)
(-0.352472 0.186474 0)
(-0.0836987 -0.467067 0)
(-0.0892632 0.190276 0)
(-0.151081 0.211999 0)
(-0.11659 0.142188 0)
(-0.0564581 0.0923347 0)
(0.0346426 0.0685022 0)
(0.110332 0.172292 0)
(0.218156 0.421275 0)
(0.306542 0.734899 0)
(0.369725 1.05149 0)
(0.487499 1.31004 0)
(0.611415 1.34992 0)
(0.635459 1.13438 0)
(0.455489 0.757372 0)
(-0.0791348 0.256284 0)
(-0.451459 0.00911003 0)
(-0.575327 0.00319005 0)
(-0.539231 0.0688183 0)
(-0.536948 0.0277255 0)
(-0.607159 -0.120468 0)
(-0.642071 -0.209174 0)
(-0.606261 -0.202724 0)
(-0.476522 -0.136542 0)
(-0.0940264 -0.386955 0)
(-0.0821424 0.232364 0)
(-0.132928 0.219622 0)
(-0.0742827 0.0888494 0)
(0.0166145 -0.0343499 0)
(0.0545603 -0.0187445 0)
(0.108439 0.071141 0)
(0.224034 0.23164 0)
(0.427499 0.577845 0)
(0.586515 0.939029 0)
(0.708334 1.18103 0)
(0.82671 1.24162 0)
(0.905782 1.13622 0)
(0.899503 0.985658 0)
(0.698048 0.747597 0)
(0.269389 0.384318 0)
(-0.097976 0.11119 0)
(-0.282229 -0.0369739 0)
(-0.284999 -0.0455581 0)
(-0.231554 -0.060868 0)
(-0.189022 -0.102735 0)
(-0.132166 -0.18596 0)
(-0.119351 -0.153654 0)
(-0.105225 -0.29114 0)
(-0.0875359 0.254564 0)
(-0.0983007 0.219282 0)
(-0.0306573 -0.0158968 0)
(-0.0146762 -0.0605583 0)
(-0.0226773 -0.0194658 0)
(0.0183601 0.0169736 0)
(0.12217 0.0977101 0)
(0.328293 0.342714 0)
(0.597141 0.743664 0)
(0.79428 1.04217 0)
(0.927745 1.13508 0)
(1.03018 1.07589 0)
(1.10582 0.99586 0)
(1.12997 0.922723 0)
(1.02242 0.771322 0)
(0.81328 0.526846 0)
(0.464762 0.192144 0)
(0.273044 -0.0103716 0)
(0.0932995 -0.13046 0)
(0.0760132 -0.257286 0)
(0.21135 -0.324501 0)
(0.215193 -0.252968 0)
(-0.113207 -0.187432 0)
(-0.0998629 0.230513 0)
(-0.0672778 0.200863 0)
(-0.0874452 -0.039917 0)
(-0.130837 -0.0263406 0)
(-0.127173 -0.0188991 0)
(-0.083137 -0.0583888 0)
(-0.0150091 -0.0574768 0)
(0.13285 0.11507 0)
(0.410719 0.478504 0)
(0.685535 0.83028 0)
(0.883352 0.992738 0)
(1.01816 0.97755 0)
(1.1251 0.905346 0)
(1.22856 0.851561 0)
(1.30319 0.795938 0)
(1.3261 0.693568 0)
(1.24984 0.492169 0)
(1.16108 0.283677 0)
(1.03668 0.0102575 0)
(0.972768 -0.213551 0)
(0.903065 -0.334979 0)
(0.845858 -0.349283 0)
(-0.118719 -0.0767759 0)
(-0.129386 0.227666 0)
(-0.118893 0.178794 0)
(-0.200452 0.0217802 0)
(-0.247709 0.0348917 0)
(-0.257325 -0.0491188 0)
(-0.224638 -0.114481 0)
(-0.1739 -0.126133 0)
(-0.0798649 -0.043143 0)
(0.152527 0.229528 0)
(0.456642 0.58599 0)
(0.7142 0.797667 0)
(0.908103 0.839843 0)
(1.05011 0.79179 0)
(1.16544 0.727434 0)
(1.27187 0.66714 0)
(1.37151 0.595992 0)
(1.43353 0.471502 0)
(1.45837 0.309385 0)
(1.44811 0.11607 0)
(1.41929 -0.0739235 0)
(1.38483 -0.213584 0)
(1.38088 -0.28995 0)
(-0.130289 0.0478863 0)
(-0.16378 0.284748 0)
(-0.217983 0.210396 0)
(-0.328218 0.121859 0)
(-0.397131 0.0656734 0)
(-0.426455 -0.0620995 0)
(-0.422684 -0.156553 0)
(-0.388217 -0.205467 0)
(-0.309743 -0.172534 0)
(-0.146618 -0.0128679 0)
(0.153601 0.293435 0)
(0.464357 0.530578 0)
(0.73684 0.643706 0)
(0.944547 0.660209 0)
(1.08445 0.626968 0)
(1.17723 0.569571 0)
(1.24853 0.491555 0)
(1.30189 0.376902 0)
(1.33248 0.228295 0)
(1.34442 0.0601901 0)
(1.34394 -0.104806 0)
(1.34067 -0.237749 0)
(1.33751 -0.32907 0)
(-0.142467 0.204275 0)
(-0.203032 0.361943 0)
(-0.301904 0.294409 0)
(-0.428838 0.239125 0)
(-0.513754 0.117694 0)
(-0.553303 -0.0439699 0)
(-0.556827 -0.175128 0)
(-0.525487 -0.260274 0)
(-0.456019 -0.277702 0)
(-0.329131 -0.21133 0)
(-0.117266 -0.0498915 0)
(0.185544 0.172075 0)
(0.504428 0.344877 0)
(0.780966 0.453096 0)
(0.979256 0.50359 0)
(1.09408 0.504613 0)
(1.14606 0.458585 0)
(1.15838 0.36309 0)
(1.1445 0.224785 0)
(1.11596 0.0614805 0)
(1.08206 -0.102474 0)
(1.05323 -0.240474 0)
(1.03015 -0.335206 0)
(-0.140125 0.378216 0)
(-0.22486 0.457244 0)
(-0.350353 0.412835 0)
(-0.485881 0.352655 0)
(-0.578021 0.178473 0)
(-0.628042 -0.0207907 0)
(-0.640442 -0.191942 0)
(-0.610715 -0.314999 0)
(-0.53701 -0.370288 0)
(-0.41499 -0.353769 0)
(-0.238782 -0.275259 0)
(-0.00705961 -0.147315 0)
(0.264914 0.0128242 0)
(0.543849 0.179892 0)
(0.782168 0.318545 0)
(0.941724 0.408021 0)
(1.01731 0.432555 0)
(1.02737 0.385788 0)
(0.994765 0.275448 0)
(0.93988 0.123335 0)
(0.876204 -0.0408997 0)
(0.815092 -0.186606 0)
(0.769387 -0.296273 0)
(-0.123476 0.549448 0)
(-0.216602 0.574322 0)
(-0.35374 0.545985 0)
(-0.492004 0.469166 0)
(-0.593714 0.254062 0)
(-0.661975 0.0178359 0)
(-0.693842 -0.196494 0)
(-0.679957 -0.366078 0)
(-0.615423 -0.468351 0)
(-0.501114 -0.497066 0)
(-0.34307 -0.462898 0)
(-0.151126 -0.382602 0)
(0.0691918 -0.251748 0)
(0.294446 -0.0803571 0)
(0.50968 0.107656 0)
(0.687664 0.271635 0)
(0.794694 0.37233 0)
(0.831862 0.387343 0)
(0.817208 0.318568 0)
(0.770579 0.188186 0)
(0.709418 0.0305332 0)
(0.647101 -0.122931 0)
(0.607413 -0.25978 0)
(-0.100719 0.703319 0)
(-0.188424 0.697116 0)
(-0.31649 0.674593 0)
(-0.445546 0.590273 0)
(-0.557033 0.347745 0)
(-0.646794 0.0795696 0)
(-0.706085 -0.176585 0)
(-0.721287 -0.395178 0)
(-0.682983 -0.548379 0)
(-0.592778 -0.622456 0)
(-0.463856 -0.624066 0)
(-0.312279 -0.569744 0)
(-0.144226 -0.457585 0)
(0.0385332 -0.281077 0)
(0.210495 -0.0739932 0)
(0.372972 0.130288 0)
(0.49239 0.284296 0)
(0.558142 0.352679 0)
(0.578593 0.327738 0)
(0.565212 0.227946 0)
(0.531914 0.0864832 0)
(0.492498 -0.0688881 0)
(0.460954 -0.231262 0)
(-0.0724777 0.828305 0)
(-0.143287 0.806366 0)
(-0.243297 0.78354 0)
(-0.347023 0.707719 0)
(-0.45995 0.457056 0)
(-0.568196 0.167512 0)
(-0.657492 -0.123562 0)
(-0.711054 -0.390332 0)
(-0.713035 -0.596834 0)
(-0.658826 -0.715828 0)
(-0.565507 -0.745162 0)
(-0.458259 -0.70373 0)
(-0.348661 -0.600497 0)
(-0.228881 -0.426431 0)
(-0.100601 -0.209548 0)
(0.0443411 0.0114613 0)
(0.162418 0.193384 0)
(0.24678 0.29136 0)
(0.30321 0.297884 0)
(0.330854 0.228043 0)
(0.333051 0.107389 0)
(0.315781 -0.0393712 0)
(0.281567 -0.203789 0)
(-0.0370767 0.912533 0)
(-0.0810926 0.890426 0)
(-0.143937 0.857092 0)
(-0.198002 0.803944 0)
(-0.293546 0.574504 0)
(-0.409847 0.281136 0)
(-0.524137 -0.0312555 0)
(-0.620055 -0.341478 0)
(-0.674839 -0.602562 0)
(-0.669327 -0.771681 0)
(-0.614496 -0.827239 0)
(-0.546228 -0.78893 0)
(-0.484443 -0.685977 0)
(-0.421717 -0.513987 0)
(-0.347183 -0.293575 0)
(-0.25313 -0.0765152 0)
(-0.138629 0.103544 0)
(-0.0471886 0.206503 0)
(0.0447219 0.231657 0)
(0.111321 0.187393 0)
(0.14907 0.0938246 0)
(0.161308 -0.0277805 0)
(0.131634 -0.159339 0)
(-0.00117703 0.943737 0)
(-0.00125551 0.944039 0)
(-0.0258758 0.880022 0)
(-0.00876134 0.852614 0)
(-0.0600901 0.681984 0)
(-0.16384 0.406158 0)
(-0.288989 0.0944773 0)
(-0.421917 -0.24285 0)
(-0.535213 -0.55431 0)
(-0.594755 -0.783644 0)
(-0.587901 -0.875616 0)
(-0.555239 -0.837777 0)
(-0.523425 -0.730124 0)
(-0.499148 -0.563062 0)
(-0.461509 -0.349495 0)
(-0.407438 -0.144714 0)
(-0.32672 0.0123951 0)
(-0.229003 0.105342 0)
(-0.123813 0.13165 0)
(-0.0228017 0.109449 0)
(0.0496672 0.0493807 0)
(0.0782505 -0.0261357 0)
(0.0575148 -0.0936031 0)
(0.00660758 0.909291 0)
(0.0672674 0.95426 0)
(0.108131 0.856877 0)
(0.196677 0.83497 0)
(0.216307 0.748215 0)
(0.15159 0.531074 0)
(0.0369062 0.245973 0)
(-0.108415 -0.0885118 0)
(-0.271823 -0.433571 0)
(-0.408189 -0.732206 0)
(-0.469557 -0.882121 0)
(-0.487778 -0.859672 0)
(-0.471424 -0.750246 0)
(-0.467308 -0.590183 0)
(-0.440672 -0.393099 0)
(-0.394449 -0.207274 0)
(-0.328745 -0.0818873 0)
(-0.243514 -0.014294 0)
(-0.14695 0.00824832 0)
(-0.0509536 0.0107459 0)
(0.0195148 -0.0011283 0)
(0.0536744 -0.0273555 0)
(0.0581531 -0.0410901 0)
(-0.0133925 0.862849 0)
(0.0749187 0.876118 0)
(0.16752 0.743212 0)
(0.332355 0.740187 0)
(0.458744 0.733403 0)
(0.482415 0.616202 0)
(0.412521 0.395501 0)
(0.283571 0.112261 0)
(0.0974098 -0.226146 0)
(-0.110538 -0.581022 0)
(-0.259475 -0.814594 0)
(-0.353588 -0.848667 0)
(-0.358917 -0.752829 0)
(-0.369462 -0.603188 0)
(-0.356035 -0.433157 0)
(-0.310129 -0.264686 0)
(-0.248494 -0.151947 0)
(-0.180248 -0.0996075 0)
(-0.110289 -0.0751827 0)
(-0.0433572 -0.057982 0)
(0.0172357 -0.0499975 0)
(0.0657816 -0.0514633 0)
(0.105182 -0.0503646 0)
(0.00227798 0.843217 0)
(0.0520607 0.781296 0)
(0.123945 0.558726 0)
(0.302328 0.538648 0)
(0.512076 0.592096 0)
(0.670115 0.585883 0)
(0.715454 0.476142 0)
(0.654767 0.279002 0)
(0.496005 0.0119501 0)
(0.250868 -0.326974 0)
(0.0141457 -0.6446 0)
(-0.160285 -0.782355 0)
(-0.214501 -0.733031 0)
(-0.23869 -0.594764 0)
(-0.250438 -0.454054 0)
(-0.226711 -0.313574 0)
(-0.177251 -0.205769 0)
(-0.127223 -0.153449 0)
(-0.0789903 -0.13133 0)
(-0.0289532 -0.114032 0)
(0.02262 -0.101505 0)
(0.0737625 -0.0998622 0)
(0.129926 -0.109344 0)
(0.0816317 0.780253 0)
(0.107463 0.789398 0)
(0.125205 0.468471 0)
(0.202699 0.314283 0)
(0.374016 0.341476 0)
(0.592705 0.404783 0)
(0.77328 0.408694 0)
(0.844113 0.339085 0)
(0.784343 0.194479 0)
(0.577837 -0.0606335 0)
(0.298551 -0.39222 0)
(0.068132 -0.638634 0)
(-0.0556133 -0.679143 0)
(-0.100229 -0.566198 0)
(-0.129973 -0.443714 0)
(-0.139818 -0.335882 0)
(-0.116562 -0.245897 0)
(-0.0824162 -0.192006 0)
(-0.0504307 -0.17087 0)
(-0.0160252 -0.15813 0)
(0.0231423 -0.148822 0)
(0.0648401 -0.151595 0)
(0.109579 -0.171617 0)
(0.151581 0.613774 0)
(0.230106 0.782799 0)
(0.265143 0.51462 0)
(0.288116 0.261119 0)
(0.352504 0.151004 0)
(0.490121 0.152948 0)
(0.672241 0.205922 0)
(0.820951 0.253957 0)
(0.870953 0.261637 0)
(0.762807 0.149123 0)
(0.520777 -0.127858 0)
(0.280409 -0.430611 0)
(0.107129 -0.577468 0)
(0.0246364 -0.520275 0)
(-0.0142422 -0.412184 0)
(-0.0466151 -0.325454 0)
(-0.0537595 -0.259689 0)
(-0.0414067 -0.21483 0)
(-0.0232244 -0.195976 0)
(-0.00291867 -0.188168 0)
(0.022164 -0.182448 0)
(0.0497478 -0.186335 0)
(0.0749468 -0.206965 0)
(0.105828 0.39258 0)
(0.268087 0.651094 0)
(0.384756 0.495439 0)
(0.482861 0.276754 0)
(0.58594 0.135278 0)
(0.681379 0.072347 0)
(0.760036 0.0813018 0)
(0.828473 0.154644 0)
(0.874829 0.24863 0)
(0.829019 0.271524 0)
(0.641341 0.0927954 0)
(0.427562 -0.213227 0)
(0.251069 -0.43507 0)
(0.131047 -0.450468 0)
(0.075182 -0.369563 0)
(0.0364509 -0.296212 0)
(0.0116137 -0.248026 0)
(0.00300378 -0.218806 0)
(0.00574763 -0.207191 0)
(0.0128707 -0.204104 0)
(0.024231 -0.202089 0)
(0.0388546 -0.205472 0)
(0.0506264 -0.220388 0)
(6.41978e-05 0.279103 0)
(0.166413 0.444757 0)
(0.354519 0.309109 0)
(0.545884 0.101479 0)
(0.730778 -0.0367832 0)
(0.898909 -0.0423291 0)
(0.995589 0.0448247 0)
(0.984794 0.161392 0)
(0.930741 0.284029 0)
(0.846104 0.373275 0)
(0.679498 0.262578 0)
(0.502395 -0.0281126 0)
(0.348602 -0.284427 0)
(0.214179 -0.356098 0)
(0.136375 -0.312404 0)
(0.0908491 -0.260433 0)
(0.0615619 -0.224644 0)
(0.0433873 -0.207227 0)
(0.0340303 -0.204291 0)
(0.0298113 -0.206444 0)
(0.0290707 -0.208659 0)
(0.0320717 -0.213435 0)
(0.0341233 -0.224337 0)
(-0.0124323 0.245364 0)
(0.135423 0.229968 0)
(0.35775 0.0600165 0)
(0.56291 -0.122729 0)
(0.74578 -0.237715 0)
(0.930943 -0.208225 0)
(1.07481 -0.0154049 0)
(1.08314 0.222006 0)
(0.974469 0.403744 0)
(0.840502 0.504731 0)
(0.667334 0.415152 0)
(0.519915 0.134571 0)
(0.393096 -0.140207 0)
(0.260319 -0.249649 0)
(0.170455 -0.24145 0)
(0.1169 -0.217938 0)
(0.0845344 -0.199552 0)
(0.0656739 -0.190433 0)
(0.0521926 -0.19282 0)
(0.0418706 -0.199275 0)
(0.0339018 -0.204974 0)
(0.0287736 -0.211731 0)
(0.0235985 -0.220825 0)
(0.039296 0.173392 0)
(0.201474 0.0233122 0)
(0.382689 -0.129636 0)
(0.525963 -0.277829 0)
(0.665928 -0.414559 0)
(0.880353 -0.366268 0)
(1.07367 -0.0947392 0)
(1.10103 0.257346 0)
(0.969012 0.528552 0)
(0.774538 0.676563 0)
(0.580843 0.567631 0)
(0.476683 0.272435 0)
(0.380558 -0.0143919 0)
(0.260495 -0.142987 0)
(0.173422 -0.165466 0)
(0.119183 -0.170525 0)
(0.0851762 -0.17269 0)
(0.0663758 -0.174205 0)
(0.0540277 -0.180217 0)
(0.0435114 -0.188874 0)
(0.0342326 -0.196556 0)
(0.0263541 -0.204586 0)
(0.0180768 -0.212831 0)
(0.0755331 0.0386346 0)
(0.201329 -0.157741 0)
(0.325916 -0.260579 0)
(0.443726 -0.391375 0)
(0.533703 -0.610529 0)
(0.75323 -0.609041 0)
(1.03492 -0.172029 0)
(1.07478 0.409957 0)
(0.894143 0.779827 0)
(0.624423 0.872525 0)
(0.424644 0.668199 0)
(0.371426 0.34235 0)