/*--------------------------------*- C++ -*----------------------------------*\
| =========                 |                                                 |
| \\      /  F ield         | OpenFOAM: The Open Source CFD Toolbox           |
|  \\    /   O peration     | Version:  2.3.0                                 |
|   \\  /    A nd           | Web:      www.OpenFOAM.org                      |
|    \\/     M anipulation  |                                                 |
\*---------------------------------------------------------------------------*/
FoamFile
{
    version     2.0;
    format      ascii;
    class       volScalarField;
    location    "4e-06";
    object      alpha.fuel;
}
// * * * * * * * * * * * * * * * * * * * * * * * * * * * * * * * * * * * * * //

dimensions      [0 0 0 0 0 0 0];

internalField   nonuniform List<scalar> 
7500
(
1
1
1
1
1
1
1
1
1
1
1
1
1
1
1
1
1
1
1
1
1
1
1
1
1
1
1
1
1
1
1
1
1
1
1
1
1
1
1
1
0.40367778
0.00014367291
1.1533796e-08
3.0787588e-09
5.0723428e-10
5.3262604e-11
3.7945152e-12
1.9299806e-13
7.2653782e-15
2.0796694e-16
4.6267943e-18
8.1518998e-20
1.1563398e-21
1.3401008e-23
1.2857436e-25
1.0335786e-27
7.0382902e-30
4.1012378e-32
2.064269e-34
9.0540741e-37
3.4894888e-39
1.1911454e-41
3.6288245e-44
9.9398003e-47
2.4656919e-49
5.5787686e-52
1.1594046e-54
2.2288114e-57
3.9911306e-60
6.7042912e-63
1.0639147e-65
1.6063339e-68
2.3239823e-71
3.244913e-74
4.4041633e-77
1
1
1
1
1
1
1
1
1
1
1
1
1
1
1
1
1
1
1
1
1
1
1
1
1
1
1
1
1
1
1
1
1
1
1
1
1
1
1
1
0.7878146
0.08606897
5.8941138e-09
1.824127e-09
3.1242254e-10
3.2976099e-11
2.3395356e-12
1.17857e-13
4.3749509e-15
1.2311644e-16
2.6883878e-18
4.645875e-20
6.4635304e-22
7.3493375e-24
6.9223239e-26
5.4670748e-28
3.6606129e-30
2.0991685e-32
1.0406565e-34
4.4992409e-37
1.7105427e-39
5.763855e-42
1.7344726e-44
4.6955821e-47
1.151863e-49
2.5785528e-52
5.3047105e-55
1.009932e-57
1.7918494e-60
2.9835439e-63
4.6950599e-66
7.032337e-69
1.0097069e-71
1.3996774e-74
1.8867168e-77
1
1
1
1
1
1
1
1
1
1
1
1
1
1
1
1
1
1
1
1
1
1
1
1
1
1
1
1
1
1
1
1
1
1
1
1
1
1
1
1
0.99481861
0.3226948
0.00015858714
2.0472123e-09
2.5838976e-10
2.6382934e-11
1.797056e-12
8.6903659e-14
3.1099516e-15
8.4811763e-17
1.8029003e-18
3.0443559e-20
4.1513959e-22
4.6393372e-24
4.3053772e-26
3.3575724e-28
2.224277e-30
1.2641553e-32
6.2207216e-35
2.6732125e-37
1.0113386e-39
3.394575e-42
1.0184276e-44
2.7508549e-47
6.7370393e-50
1.5064789e-52
3.0971005e-55
5.8944583e-58
1.0457582e-60
1.7415358e-63
2.7414463e-66
4.107948e-69
5.9011659e-72
8.1847135e-75
1.1038703e-77
1
1
1
1
1
1
1
1
1
1
1
1
1
1
1
1
1
1
1
1
1
1
1
1
1
1
1
1
1
0.99999999
0.99999999
0.99999998
0.99999998
0.99999998
0.99999998
0.99999998
0.99999999
0.99999999
0.99999999
1
1
0.84861686
0.029060594
1.5277858e-09
2.1917881e-10
1.9869707e-11
1.3095603e-12
6.2771188e-14
2.234739e-15
6.0665702e-17
1.2838651e-18
2.1577061e-20
2.9268831e-22
3.2514976e-24
2.9974158e-26
2.3205233e-28
1.5252189e-30
8.5966918e-33
4.1938194e-35
1.7862079e-37
6.6965652e-40
2.2271854e-42
6.6206654e-45
1.7719353e-47
4.3001769e-50
9.5293464e-53
1.9417743e-55
3.6635624e-58
6.4445075e-61
1.0643372e-63
1.6619161e-66
2.4707739e-69
3.5222541e-72
4.8490295e-75
6.4927237e-78
1
1
1
1
1
1
1
1
1
1
1
1
1
1
1
1
1
1
1
1
1
1
1
1
1
1
1
1
0.99999999
0.99999999
0.99999997
0.99999995
0.99999993
0.99999993
0.99999994
0.99999995
0.99999997
0.99999998
0.99999999
1
1
0.6683623
0.027707003
1.2493871e-09
1.8390342e-10
1.5739784e-11
9.7593927e-13
4.483286e-14
1.5440036e-15
4.0745541e-17
8.416676e-19
1.3856327e-20
1.8464644e-22
2.0194745e-24
1.835761e-26
1.4031004e-28
9.1131473e-31
5.0794916e-33
2.4519783e-35
1.0339186e-37
3.8393676e-40
1.2653402e-42
3.7288521e-45
9.8972527e-48
2.3829187e-50
5.2407906e-53
1.0602029e-55
1.9864899e-58
3.4712876e-61
5.6965639e-64
8.8405554e-67
1.3065722e-69
1.8519698e-72
2.5354429e-75
3.3765575e-78
1
1
1
1
1
1
1
1
1
1
1
1
1
1
1
1
1
1
1
1
1
1
1
1
1
1
1
1
1
1
1
0.99999993
0.9999998
0.99999989
1
1
1
1
1
1
0.73812424
0.092929362
0.00010958128
1.1793415e-09
9.8982471e-11
8.5157142e-12
5.3556405e-13
2.4486713e-14
8.3857286e-16
2.2037326e-17
4.5350316e-19
7.4374316e-21
9.873042e-23
1.0758397e-24
9.745904e-27
7.4249483e-29
4.8079924e-31
2.6722971e-33
1.286518e-35
5.4109666e-38
2.0043912e-40
6.5902372e-43
1.9376216e-45
5.1313385e-48
1.2327161e-50
2.7051913e-53
5.4606124e-56
1.0209128e-58
1.7800692e-61
2.9146974e-64
4.5131637e-67
6.6548784e-70
9.4108238e-73
1.2853295e-75
1.7075747e-78
1
1
1
1
1
1
1
1
1
1
1
1
1
1
1
1
1
1
1
1
1
1
1
1
1
1
0.99999999
0.99999999
0.99999999
0.99999999
0.99999999
1
1
0.99999818
0.99998888
0.99995698
0.99994609
0.99997501
1
1
0.39280289
2.6444701e-09
1.2483607e-09
3.5127538e-10
4.8638912e-11
4.4275504e-12
2.7980011e-13
1.2823074e-14
4.3970347e-16
1.1561399e-17
2.3793686e-19
3.9016762e-21
5.1787179e-23
5.6427981e-25
5.1119524e-27
3.8950662e-29
2.5227466e-31
1.4025114e-33
6.7540476e-36
2.8415568e-38
1.0529212e-40
3.4628812e-43
1.0183875e-45
2.6974937e-48
6.4811333e-51
1.4223663e-53
2.8710683e-56
5.3670906e-59
9.3560299e-62
1.5314624e-64
2.3703019e-67
3.4931895e-70
4.9364765e-73
6.7368577e-76
8.9416992e-79
1
1
1
1
1
1
1
1
1
1
1
1
1
1
1
1
1
1
1
1
1
1
1
1
1
1
0.99999999
0.99999998
0.99999998
0.99999997
0.99999997
0.99999998
1
1
0.9998548
0.99965127
0.99976904
1
1
1
0.35913058
1.7997959e-09
7.9617274e-10
1.9031478e-10
2.6563699e-11
2.4173714e-12
1.5295525e-13
7.0201983e-15
2.410392e-16
6.3446238e-18
1.3069113e-19
2.1447395e-21
2.8487259e-23
3.1059827e-25
2.8153846e-27
2.1462464e-29
1.3906444e-31
7.7336928e-34
3.725116e-36
1.5674053e-38
5.8079362e-41
1.9099169e-43
5.615513e-46
1.4869083e-48
3.5708354e-51
7.832016e-54
1.5797843e-56
2.9507721e-59
5.13905e-62
8.4032304e-65
1.2991193e-67
1.9121964e-70
2.6987027e-73
3.6778063e-76
4.874329e-79
1
1
1
1
1
1
1
1
1
1
1
1
1
1
1
1
1
1
1
1
1
1
1
1
1
1
0.99999999
0.99999997
0.99999994
0.99999995
0.99999996
0.99999997
0.99999999
1
0.99950563
0.99959563
0.9999995
1
1
0.95711597
0.28543868
1.6141661e-09
5.626251e-10
1.2166455e-10
1.6328079e-11
1.4583772e-12
9.1397876e-14
4.1725073e-15
1.4276432e-16
3.7477741e-18
7.7020422e-20
1.2612424e-21
1.6717546e-23
1.8190153e-25
1.6455245e-27
1.2519661e-29
8.0965395e-32
4.4944141e-34
2.161076e-36
9.0783174e-39
3.3589019e-41
1.1030778e-43
3.2394312e-46
8.5689807e-49
2.0561994e-51
4.5072494e-54
9.0882302e-57
1.6973516e-59
2.9566322e-62
4.8370199e-65
7.4843652e-68
1.1030418e-70
1.5594566e-73
2.1301075e-76
2.8313493e-79
1
1
1
1
1
1
1
1
1
1
1
1
1
1
1
1
1
1
1
1
1
1
1
1
1
1
1
1
0.99999977
0.99999979
0.99999998
1
1
1
0.99973771
0.99942327
0.99986538
1
0.96532681
0.46259953
0.026469082
1.4090869e-09
4.5628872e-10
8.7862797e-11
1.0990487e-11
9.4668027e-13
5.8227662e-14
2.6285545e-15
8.9213172e-17
2.3266386e-18
4.7545571e-20
7.74736e-22
1.0224407e-23
1.1082909e-25
9.9932952e-28
7.5825921e-30
4.8930506e-32
2.7117157e-34
1.3024751e-36
5.4685693e-39
2.0233956e-41
6.6490564e-44
1.9550709e-46
5.1814705e-49
1.246632e-51
2.7421503e-54
5.5535681e-57
1.0429064e-59
1.8289127e-62
3.0166459e-65
4.7139111e-68
7.0297634e-71
1.0078854e-73
1.3996783e-76
1.8969278e-79
1
1
1
1
1
1
1
1
1
1
1
1
1
1
1
1
1
1
1
1
1
1
1
1
1
0.99999999
0.99999999
1
1
0.99999987
0.99998866
0.99998584
0.99999353
1
0.9998931
0.99944968
0.9997573
1
1
0.073728748
1.7040423e-09
1.0306452e-09
3.2646399e-10
6.0690122e-11
7.4274501e-12
6.3151468e-13
3.8467768e-14
1.7221802e-15
5.8022367e-17
1.5033702e-18
3.0548212e-20
4.9540854e-22
6.5134789e-24
7.0413993e-26
6.3392581e-28
4.8083112e-30
3.1056261e-32
1.725022e-34
8.3164514e-37
3.5104792e-39
1.3082583e-41
4.339122e-44
1.2908593e-46
3.4709385e-49
8.4993817e-52
1.9096701e-54
3.966491e-57
7.6731107e-60
1.3927883e-62
2.3898184e-65
3.9048403e-68
6.1200538e-71
9.2667008e-74
1.3650727e-76
1.9698306e-79
1
1
1
1
1
1
1
1
1
1
1
1
1
1
1
1
1
1
1
1
1
1
1
1
1
1
0.99999999
0.99999999
1
1
1
0.9999785
0.9999824
1
1
1
1
1
1
0.2517549
1.8846398e-09
8.6842929e-10
2.4935382e-10
4.4487102e-11
5.3422396e-12
4.4926455e-13
2.7120131e-14
1.203317e-15
4.0177358e-17
1.0321657e-18
2.0819634e-20
3.3574462e-22
4.3989587e-24
4.7505564e-26
4.2837851e-28
3.263907e-30
2.1243031e-32
1.193132e-34
5.8388006e-37
2.5123614e-39
9.5884129e-42
3.2729785e-44
1.0072842e-46
2.8165328e-49
7.2083799e-52
1.700575e-54
3.7234188e-57
7.6158752e-60
1.4644816e-62
2.6639277e-65
4.6119266e-68
7.64528e-71
1.22092e-73
1.8897835e-76
2.8527345e-79
1
1
1
1
1
1
1
1
1
1
1
1
1
1
1
1
1
1
1
1
1
1
1
1
1
1
1
1
1
0.9946223
0.99420158
0.99696726
1
0.97862253
0.7927901
0.65989697
0.7774643
0.97040995
1
0.59741778
1.0416049e-09
1.6689996e-10
1.7526648e-10
3.6559892e-11
4.4289774e-12
3.6480664e-13
2.1413361e-14
9.2372577e-16
3.0093926e-17
7.5860057e-19
1.5111866e-20
2.4231451e-22
3.1786028e-24
3.4609827e-26
3.16966e-28
2.4714567e-30
1.6591468e-32
9.6890917e-35
4.9687041e-37
2.2567812e-39
9.1494553e-42
3.3344002e-44
1.0993864e-46
3.2990321e-49
9.0612407e-52
2.2905919e-54
5.3585612e-57
1.1665417e-59
2.3766948e-62
4.558394e-65
8.2801924e-68
1.4333853e-70
2.3798757e-73
3.8145984e-76
5.9418888e-79
1
1
1
1
1
1
1
1
1
1
1
1
1
1
1
1
1
1
1
1
1
1
1
1
1
1
1
0.91016979
0.52510301
0.24260282
0.2318664
0.25243686
0.34769163
0.28351036
0.030222142
3.9437849e-09
0.022816241
0.484631
0.98225717
1
0.31806015
0.0024382454
5.3877785e-10
5.6867834e-11
4.7592803e-12
3.3573018e-13
1.8157723e-14
7.4279044e-16
2.3409598e-17
5.8050748e-19
1.1546792e-20
1.8742151e-22
2.5206397e-24
2.8468844e-26
2.7320086e-28
2.2503015e-30
1.6048183e-32
9.9840609e-35
5.4546235e-37
2.6327609e-39
1.1290246e-41
4.325419e-44
1.4885667e-46
4.6274581e-49
1.3068631e-51
3.3727417e-54
8.0025919e-57
1.7566241e-59
3.5901017e-62
6.8764043e-65
1.2426533e-67
2.1331985e-70
3.5027181e-73
5.5398995e-76
8.4987944e-79
1
1
1
1
1
1
1
1
1
1
1
1
1
1
1
1
1
1
1
1
1
1
0.99934597
0.98551817
0.91750139
0.78632456
0.52661324
0.069465282
4.1222638e-09
3.6297193e-09
3.6297193e-09
3.6297193e-09
3.6297192e-09
3.6297192e-09
3.6297193e-09
3.6300852e-09
3.6297206e-09
0.21428767
0.93286003
1
0.89447148
0.027729428
5.0289574e-10
5.2242395e-11
3.9805942e-12
2.7234568e-13
1.4527856e-14
5.8624326e-16
1.8432937e-17
4.6485876e-19
9.5896476e-21
1.6401589e-22
2.3490244e-24
2.8394077e-26
2.9161048e-28
2.5599717e-30
1.9321335e-32
1.2609984e-34
7.1584127e-37
3.5559442e-39
1.5552601e-41
6.0268475e-44
2.0825376e-46
6.4584462e-49
1.8094648e-51
4.6105136e-54
1.0756032e-56
2.3132489e-59
4.6180844e-62
8.6180686e-65
1.5140529e-67
2.5220916e-70
4.0123555e-73
6.1404889e-76
9.1057099e-79
1
1
1
1
1
1
1
1
1
1
1
1
1
1
1
1
1
1
1
0.98620764
0.89672191
0.5964073
0.31253595
0.20933596
0.029237186
4.2130766e-09
3.8755137e-09
3.8755137e-09
4.9463931e-09
5.3759217e-09
5.0884491e-09
1.2137172e-08
4.303889e-09
4.6991775e-09
4.9358229e-09
3.6381931e-09
0.019093582
0.17996658
0.31345554
0.41527595
0.18277955
0.0069474059
8.9688332e-10
4.0355581e-10
6.5720904e-11
4.6573585e-12
1.7397148e-13
3.9174859e-15
6.1359952e-17
8.2973167e-19
1.2154235e-20
1.9303088e-22
2.8725079e-24
3.6838789e-26
3.9852661e-28
3.637656e-30
2.8179377e-32
1.8659986e-34
1.0642212e-36
5.2672669e-39
2.2795119e-41
8.690284e-44
2.9400469e-46
8.8912072e-49
2.4209533e-51
5.9779234e-54
1.3482442e-56
2.7974608e-59
5.3786611e-62
9.6528685e-65
1.6288824e-67
2.6036013e-70
3.9712544e-73
5.8233852e-76
8.2705929e-79
1
1
1
1
1
1
1
1
1
1
1
1
1
1
1
1
0.9032947
0.6881852
0.50215948
0.2707677
0.0019037285
3.9562535e-09
3.9406494e-09
3.9406494e-09
3.9406494e-09
4.3645844e-09
4.8295174e-09
4.952503e-09
5.549955e-09
5.9429708e-09
5.713914e-09
7.0933956e-09
5.6894581e-07
4.6270265e-09
3.732338e-09
0.0012300247
0.029136484
0.01993687
3.5661747e-09
2.9384674e-09
2.3324791e-09
1.8562083e-09
5.4800955e-07
3.2704774e-09
9.9547808e-11
4.9357339e-12
1.7377153e-13
3.8485855e-15
6.0975873e-17
8.616715e-19
1.3444052e-20
2.24529e-22
3.4405343e-24
4.4720811e-26
4.8471943e-28
4.3947982e-30
3.3600055e-32
2.1854481e-34
1.2199655e-36
5.8944849e-39
2.4853695e-41
9.2176879e-44
3.0302688e-46
8.8968166e-49
2.3501384e-51
5.626425e-54
1.229724e-56
2.4715502e-59
4.6012339e-62
7.9926739e-65
1.3049981e-67
2.0175908e-70
2.9756529e-73
4.2178169e-76
5.7886699e-79
1
1
1
1
1
1
1
1
1
1
1
1
1
0.94735559
0.77646301
0.41266221
0.012211793
4.4887362e-09
4.3709733e-09
4.3709733e-09
4.3709733e-09
4.7343097e-09
7.5503254e-09
1.3389978e-08
4.7051755e-09
4.5756892e-09
3.8655893e-09
1.5977381e-07
1.5943517e-07
1.3920409e-07
2.1070304e-07
7.5965039e-09
2.984049e-06
6.5449224e-06
7.6258635e-05
5.9149873e-09
9.1997987e-05
6.7860724e-09
3.8455052e-05
1.2032661e-07
1.9084421e-09
1.3123425e-09
5.9084881e-08
3.969532e-09
1.4901673e-10
4.4200418e-12
1.024025e-13
1.8682177e-15
3.2333798e-17
6.5728265e-19
1.4371389e-20
2.7974136e-22
4.492055e-24
5.8856323e-26
6.3354811e-28
5.661014e-30
4.2433851e-32
2.6953352e-34
1.4646745e-36
6.8711251e-39
2.8068391e-41
1.0066998e-43
3.1955178e-46
9.0471453e-49
2.3020308e-51
5.3038621e-54
1.114752e-56
2.1531757e-59
3.8503896e-62
6.4219974e-65
1.0064776e-67
1.4933059e-70
2.1132852e-73
2.8748158e-76
3.7892198e-79
1
1
1
1
1
1
1
1
1
1
1
0.88453967
0.53107315
0.12511513
4.3880217e-09
3.5094128e-09
3.5094127e-09
5.2241882e-09
4.8415212e-09
5.2347136e-09
5.241632e-09
1.3814453e-07
8.2232071e-08
1.0343266e-07
1.9725098e-07
1.0891815e-07
4.3567962e-09
7.9883768e-08
6.9463831e-07
2.8231529e-06
2.8839869e-06
2.3069752e-06
4.7421995e-09
0.00016117085
5.0120796e-09
0.050661202
0.068014895
0.021811188
1.6512611e-08
7.0804732e-07
2.668179e-08
1.6798995e-09
7.52811e-10
5.0056381e-10
2.6879685e-11
9.2762965e-13
2.5332756e-14
7.6867385e-16
2.9215177e-17
1.0598176e-18
3.1077889e-20
7.1463475e-22
1.2984439e-23
1.8908702e-25
2.2391181e-27
2.1853037e-29
1.7795448e-31
1.2227654e-33
7.1627121e-36
3.610978e-38
1.5805486e-40
6.0564041e-43
2.0476234e-45
6.1542877e-48
1.6563811e-50
4.0205866e-53
8.8636547e-56
1.7871224e-58
3.3184034e-61
5.7141975e-64
9.1888015e-67
1.3895618e-69
1.9900328e-72
2.718109e-75
3.5656938e-78
1
1
1
1
1
1
1
1
1
0.84553394
0.45776402
0.019654707
3.2825005e-09
3.1044848e-09
1.3148413e-08
2.3102589e-08
3.7080862e-09
5.38108e-07
4.967104e-09
8.150409e-06
6.4070558e-06
1.1923947e-06
6.2161721e-09
8.4694074e-07
2.6986969e-06
3.8024118e-07
3.2933245e-09
2.6245019e-09
2.5973752e-09
2.594318e-09
2.5937866e-09
8.2178931e-05
5.3395383e-09
5.8977979e-09
5.5161487e-09
0.0012694555
2.1539674e-05
2.1507138e-05
2.1477247e-05
3.3924615e-07
6.2370718e-11
1.6195455e-11
2.2735972e-08
3.6532751e-09
2.3308298e-10
1.1404039e-11
5.8650445e-13
3.1444643e-14
1.4323335e-15
4.9889341e-17
1.3074909e-18
2.6119473e-20
4.0532237e-22
4.9783818e-24
4.9246062e-26
3.9867021e-28
2.6811278e-30
1.5192641e-32
7.3523535e-35
3.0781524e-37
1.12851e-39
3.6640298e-42
1.0642617e-44
2.7900582e-47
6.6516296e-50
1.4513466e-52
2.9144351e-55
5.413517e-58
9.3472355e-61
1.5078118e-63
2.28436e-66
3.2686511e-69
4.4435691e-72
5.7748439e-75
7.2205263e-78
1
1
1
1
1
1
1
0.9103473
0.54143859
0.014968277
3.7436123e-09
3.594385e-09
4.357424e-09
9.3018572e-09
7.9523316e-08
1.5722115e-07
3.4365936e-08
3.6371771e-09
4.3199804e-05
5.1894379e-05
2.1943885e-05
6.3188859e-09
5.5611704e-09
4.7791292e-09
4.0876104e-09
3.4162024e-09
2.5895883e-09
3.2072493e-09
4.1331885e-09
3.8564522e-09
2.9932859e-09
2.5872228e-09
0.0018335103
0.011420736
0.0060103195
3.8954217e-09
0.29293302
0.14518576
1.1648535e-09
7.9919204e-10
1.4784342e-06
4.1936162e-06
2.3943413e-07
4.7972195e-10
1.0298216e-10
3.0977785e-11
5.4227308e-12
4.8343002e-13
2.5325647e-14
8.6259363e-16
2.0420074e-17
3.5213337e-19
4.5822416e-21
4.6277086e-23
3.713578e-25
2.4173842e-27
1.3010852e-29
5.8971988e-32
2.2925873e-34
7.788137e-37
2.3554121e-39
6.4545971e-42
1.6265904e-44
3.8090279e-47
8.3338893e-50
1.7062186e-52
3.2670852e-55
5.8472541e-58
9.7855064e-61
1.5341245e-63
2.2604788e-66
3.1442694e-69
4.1505823e-72
5.2301266e-75
6.3306114e-78
1
1
1
1
1
1
0.74645339
0.12758878
4.6363191e-09
3.7287143e-09
5.5161522e-09
1.8019419e-06
5.2083886e-07
1.0961084e-08
1.4251497e-06
1.418937e-06
2.0804969e-07
3.8985652e-09
9.3762387e-06
6.4691047e-06
6.5298351e-09
0.0030485593
0.0065608017
0.0018386977
0.0048466539
0.022424924
0.0027638504
4.1832867e-09
4.8630676e-09
4.4824048e-09
3.8591407e-09
2.5872224e-09
0.006016852
0.036360516
0.027297149
0.0072968335
0.12576242
0.090216106
3.9424636e-10
8.4893645e-11
5.971898e-06
2.5400777e-06
4.7152973e-08
4.2448027e-10
7.3808863e-11
1.8660019e-09
2.6342583e-10
1.5437256e-11
5.07787e-13
1.0693837e-14
1.5579219e-16
1.6575789e-18
1.3462624e-20
8.7014825e-23
4.6735904e-25
2.1819763e-27
9.2258579e-30
3.6317568e-32
1.3435084e-34
4.650742e-37
1.4928201e-39
4.4072614e-42
1.1903841e-44
2.9336935e-47
6.5944522e-50
1.3539602e-52
2.5466679e-55
4.4062144e-58
7.0479375e-61
1.0481494e-63
1.4581894e-66
1.9100307e-69
2.3713856e-72
2.8096942e-75
3.1989309e-78
1
1
1
1
0.9539487
0.45994701
8.9277789e-09
6.7231821e-09
7.2003223e-07
4.577625e-09
0.00098740438
0.00015767458
1.0453732e-05
1.1891011e-06
2.1002206e-09
3.3430415e-09
8.1770136e-09
4.8189538e-09
5.6706111e-09
6.1660595e-09
6.5525473e-09
0.02166281
0.023658253
0.0214893
0.041297764
0.04270728
0.025084652
0.002406671
5.3195215e-09
4.5608214e-09
3.9276e-09
3.2446973e-09
3.6875658e-09
3.4488166e-09
0.0074030833
0.0093462546
9.0048297e-10
0.4195349
0.11635234
5.5305896e-10
3.2376508e-06
9.2237601e-10
5.9553758e-10
1.0282999e-10
3.325424e-11
1.1038694e-08
7.2081322e-10
2.0851386e-11
3.8080868e-13
5.2020942e-15
5.7161266e-17
5.1350831e-19
3.8024914e-21
2.3796257e-23
1.3106465e-25
6.616196e-28
3.1299435e-30
1.3855914e-32
5.6574575e-35
2.0995909e-37
7.0166395e-40
2.1031517e-42
5.6528494e-45
1.3654973e-47
2.9757615e-50
5.8789349e-53
1.0587802e-55
1.7487973e-58
2.6660053e-61
3.7759766e-64
5.0023058e-67
6.241016e-70
7.383878e-73
8.3426976e-76
9.0648389e-79
1
1
1
0.95892495
0.24752631
6.015381e-08
1.5880199e-06
0.00072280736
0.00017206126
3.0540249e-05
0.0014315507
7.2123379e-09
8.9453611e-07
3.4049038e-09
3.1658109e-09
3.5577243e-06
1.7987238e-07
3.442778e-07
6.6341336e-08
6.537998e-09
0.0060818794
4.7513098e-10
3.1065782e-10
3.1065252e-10
3.1065054e-10
3.1065036e-10
0.0027916403
0.044421124
0.029219313
0.015790256
0.023872267
0.022919107
0.0082858327
0.00013433944
1.5665469e-09
8.9669176e-05
6.8922838e-10
0.24064645
0.014477946
8.3057286e-10
5.7360203e-10
4.0756828e-10
1.6320098e-10
2.2762772e-11
3.2900209e-06
5.8890709e-08
5.4237781e-10
5.3432808e-12
7.1095776e-14
9.4180594e-16
1.0628262e-17
1.0031014e-19
8.12757e-22
5.8582339e-24
3.8411143e-26
2.2918807e-28
1.228666e-30
5.8419794e-33
2.4459045e-35
9.0030542e-38
2.9197911e-40
8.3788454e-43
2.1391152e-45
4.8876979e-48
1.0058477e-50
1.8764103e-53
3.194052e-56
4.9940267e-59
7.2201945e-62
9.7173183e-65
1.2256557e-67
1.4586599e-70
1.6491276e-73
1.7836072e-76
1.8581742e-79
1
1
1
0.26537567
6.0802753e-08
5.866865e-08
5.5514291e-08
0.0027427306
4.5297272e-05
6.5648459e-06
0.0012483323
0.00088887986
4.7052794e-09
6.0020219e-05
0.0052488832
6.0728626e-05
6.1093337e-09
1.3048419e-06
2.9591012e-09
0.0033206938
1.607906e-09
1.1707007e-09
6.1732994e-08
2.7636138e-08
5.8274069e-09
3.1065049e-10
0.051073028
0.052036334
0.050224405
0.048309926
0.047430271
0.04624252
0.043002237
0.00033889264
1.5279651e-09
1.1031663e-09
6.8797765e-10
9.7337088e-10
0.44798854
0.017274836
3.8783019e-10
2.2794811e-11
2.292317e-11
0.0018930365
2.7301475e-05
3.2298379e-10
2.6192132e-11
6.1435545e-13
1.1966172e-14
1.8657572e-16
2.3464837e-18
2.4850626e-20
2.3000347e-22
1.8847916e-24
1.3583027e-26
8.5086733e-29
4.6004915e-31
2.1451489e-33
8.6563243e-36
3.0405377e-38
9.35994e-41
2.5434351e-43
6.1451254e-46
1.329546e-48
2.5940853e-51
4.5958486e-54
7.443833e-57
1.1096753e-59
1.5327373e-62
1.9747701e-65
2.3892557e-68
2.7331175e-71
2.9765086e-74
3.1088087e-77
3.137214e-80
1
1
0.35154858
1.8747108e-07
2.871445e-07
0.00045848615
0.00089096182
0.0016786623
0.00079601206
5.4173718e-09
5.3998917e-09
1.4534055e-05
5.8468457e-09
0.003857969
0.020844945
9.9560533e-07
4.8993968e-09
3.8463151e-09
2.9738264e-09
9.5644258e-05
2.3945535e-09
7.0922538e-06
9.430871e-06
1.9281422e-09
9.4064687e-10
3.1065146e-10
0.012237448
0.0080086212
1.0394245e-09
9.6838316e-10
9.3376328e-10
9.1217794e-10
0.00062608232
0.00027442923
1.685509e-06
1.4118582e-09
6.4707186e-10
6.0683702e-10
0.20183692
8.0129153e-10
1.0331014e-10
0.1116343
0.13672448
0.003712157
3.938023e-10
8.8585226e-11
4.6365728e-12
1.5200421e-13
3.6073228e-15
6.4102142e-17
8.9277819e-19
1.0107405e-20
9.5297905e-23
7.5956728e-25
5.1642377e-27
3.0124405e-29
1.5144083e-31
6.5896951e-34
2.4939311e-36
8.2545234e-39
2.4040289e-41
6.2009774e-44
1.4262215e-46
2.9450614e-49
5.4974768e-52
9.3405664e-55
1.4544961e-57
2.0903029e-60
2.7923865e-63
3.4935971e-66
4.1266599e-69
4.6430563e-72
5.0262113e-75
5.2972322e-78
5.5086131e-81
1
0.6211361
0.0082467191
0.00015065672
1.101193e-07
0.0023990588
0.0023992295
6.7284937e-09
6.7145973e-09
2.1612707e-08
5.3768222e-09
6.5929697e-09
7.3767701e-09
0.0011792949
0.016804807
0.013403081
0.0050799057
3.2828534e-05
0.0016935882
0.0039947115
0.00072616587
0.00034513248
2.7628503e-08
0.15311017
0.015488076
1.1134955e-09
1.7496106e-09
0.00039333616
0.00091681206
0.0010774358
0.00104751
1.1000182e-09
0.006818293
0.0050288771
0.00044973032
1.3468948e-09
6.9375519e-10
6.950094e-10
9.3251887e-10
0.82488127
0.80349161
0.87438794
0.20729754
7.2052211e-10
2.9571596e-10
3.161213e-11
1.7654556e-12
6.2429108e-14
1.5112381e-15
2.6701318e-17
3.6138405e-19
3.8892252e-21
3.4293521e-23
2.5358858e-25
1.5988532e-27
8.6859335e-30
4.091608e-32
1.6785097e-34
6.0211269e-37
1.8975632e-39
5.283033e-42
1.3075609e-44
2.8966884e-47
5.7859612e-50
1.0501831e-52
1.7467025e-55
2.6869193e-58
3.8626553e-61
5.2509465e-64
6.8402306e-67
8.6618558e-70
1.0816429e-72
1.3489465e-75
1.6961568e-78
2.1614698e-81
0.97329723
0.078650701
1.9074666e-08
1.7621945e-08
1.0180285e-06
3.4848577e-07
0.0017926127
8.6919693e-06
6.8612238e-09
2.0458969e-07
5.9027015e-09
6.4497481e-09
6.0480111e-09
1.4350679e-09
1.4350635e-09
0.016587141
0.016053576
0.0096911695
0.0063210018
0.0059488422
0.0052421898
0.00035655192
0.11062589
0.2235302
0.21678815
0.015278187
2.8356185e-09
0.0040100255
0.0041940965
0.0043328241
0.0044994269
7.4527583e-06
5.8593203e-09
0.026642263
0.0026692551
6.6591832e-10
6.6100072e-10
1.1758202e-09
8.8514825e-10
0.41958914
0.85342495
0.50493569
0.015511593
6.3099424e-10
1.684558e-10
1.5869794e-11
8.0905796e-13
2.6007583e-14
5.7720609e-16
9.4096809e-18
1.1807555e-19
1.1846868e-21
9.8028737e-24
6.8485494e-26
4.1035312e-28
2.1283673e-30
9.6074625e-33
3.7901762e-35
1.3129392e-37
4.017737e-40
1.0943295e-42
2.6772208e-45
5.9454168e-48
1.212991e-50
2.3036794e-53
4.1282433e-56
7.0697826e-59
1.1690743e-61
1.8797062e-64
2.9490603e-67
4.519988e-70
6.7702898e-73
9.918593e-76
1.4240321e-78
2.010198e-81
0.32943481
1.1739612e-08
1.4914565e-08
1.9333473e-08
1.1231714e-08
9.2662836e-09
1.1908275e-08
1.0845081e-08
6.6388135e-08
2.0985341e-06
5.5067585e-09
5.8855013e-09
5.5222397e-09
3.4868112e-09
1.4405945e-09
2.0915905e-09
1.4733071e-09
0.0037587606
0.0041701985
0.00023085236
2.2463393e-09
0.019054808
0.16298333
0.071866166
0.21393185
0.084049659
5.1856331e-05
3.390139e-06
5.170614e-10
5.1691028e-10
5.1691015e-10
0.01266338
0.0077780951
0.019463187
0.019529574
0.0028514274
6.854763e-10
0.2607683
0.10762516
2.6541378e-09
0.1208038
1.4381659e-09
9.1653848e-10
6.0314453e-10
1.0069032e-10
7.5363247e-12
3.2503121e-13
9.1695352e-15
1.8309201e-16
2.7380532e-18
3.2069592e-20
3.0511397e-22
2.4259994e-24
1.6447226e-26
9.6303426e-29
4.9111044e-31
2.1968034e-33
8.6897024e-36
3.0705618e-38
9.8090456e-41
2.8692466e-43
7.7767639e-46
1.9713413e-48
4.7006335e-51
1.0569278e-53
2.2418385e-56
4.4854236e-59
8.4709881e-62
1.5131395e-64
2.5654878e-67
4.1487926e-70
6.437442e-73
9.6484056e-76
1.4068425e-78
2.0103314e-81
0.10524852
7.6091517e-09
0.00041604569
1.9039571e-08
1.5034351e-08
9.7364427e-09
1.1121125e-08
1.029302e-08
1.6165364e-08
2.4262975e-07
5.5025617e-09
5.5098099e-09
6.5585437e-09
4.5714507e-09
2.9519873e-09
1.4434048e-09
1.538554e-09
1.4378865e-09
0.00055528211
0.00011852173
5.8118583e-05
0.047697734
8.1068929e-10
6.3904973e-10
0.050830638
0.10687568
0.0050337821
1.4782589e-09
8.9167115e-10
1.0784965e-09
5.1839186e-10
0.01687668
0.017035821
0.010815293
0.010859263
8.2440616e-09
0.30289979
0.55033283
0.41381211
2.1305197e-09
1.6179029e-09
1.2635218e-09
1.2598749e-09
4.1841971e-10
4.9624857e-11
2.9969219e-12
1.1046722e-13
2.7639961e-15
5.0391606e-17
7.0629255e-19
7.9470994e-21
7.4311199e-23
5.9273451e-25
4.1092116e-27
2.5103752e-29
1.3668392e-31
6.6989724e-34
2.9794517e-36
1.2090607e-38
4.4875653e-41
1.5239357e-43
4.7329526e-46
1.3444338e-48
3.497494e-51
8.3560009e-54
1.8411894e-56
3.7621113e-59
7.1749175e-62
1.2865334e-64
2.1860474e-67
3.5488512e-70
5.5498327e-73
8.4275462e-76
1.2519365e-78
1.8316475e-81
1.5625367e-09
1.7633565e-09
0.0011731224
0.0011645196
1.3034957e-09
7.9294496e-09
7.9309308e-09
9.6616781e-09
1.4718275e-08
6.7790959e-08
1.1417646e-07
2.4470161e-07
2.6675257e-06
5.5702412e-09
3.9178156e-09
5.2324275e-07
2.9240786e-09
2.6299373e-07
2.8608596e-07
8.6246642e-06
0.016919823
1.2480022e-09
1.1051057e-09
9.3272991e-10
6.3906023e-10
0.05719835
0.0075601533
2.0174972e-09
1.6772697e-09
0.00011964252
9.5296784e-06
8.2804863e-09
8.2799946e-09
8.3212511e-09
8.2727195e-09
8.192605e-09
0.012343592
0.40849457
0.52757456
0.26332971
1.8015719e-09
1.2099918e-09
1.0030264e-09
2.1714289e-10
1.9845406e-11
1.002048e-12
3.2493587e-14
7.4495734e-16
1.2939252e-17
1.7985964e-19
2.0902185e-21
2.0969994e-23
1.8529833e-25
1.456603e-27
1.0218334e-29
6.3944155e-32
3.5637204e-34
1.7666813e-36
7.7908191e-39
3.0611915e-41
1.0751786e-43
3.3912807e-46
9.6619795e-49
2.5034822e-51
5.9444812e-54
1.3042958e-56
2.6676705e-59
5.1317539e-62
9.3668246e-65
1.6356549e-67
2.7527035e-70
4.4928282e-73
7.1487184e-76
1.1136504e-78
1.7048657e-81
4.0940727e-08
1.1906173e-06
1.3852178e-07
0.0017107072
9.3978516e-07
7.3551403e-09
1.1353975e-05
0.00016380739
1.4404911e-08
1.706103e-07
1.2494341e-08
1.2026293e-08
2.6178643e-06
0.0042799584
0.00034334781
6.5774068e-06
2.7149069e-09
1.9026268e-09
0.00010173232
9.2397532e-06
0.019282049
0.0014246399
1.7149614e-09
1.316933e-09
6.3906032e-10
0.03929193
0.0055419806
2.8065556e-09
0.0074606144
0.00079605485
1.2957166e-05
8.7691271e-09
8.3703727e-09
7.7799341e-09
7.7800132e-09
9.9625578e-06
1.8169881e-08
0.0079708241
0.17328469
0.070541386
0.0010626655
8.3525899e-10
5.8048267e-10
9.2544667e-11
6.9424807e-12
3.0908723e-13
9.3741844e-15
2.1310454e-16
3.8942104e-18
5.9998008e-20
7.991448e-22
9.2659056e-24
9.3323549e-26
8.1362563e-28
6.1326261e-30
4.0025323e-32
2.2706544e-34
1.1257854e-36
4.9103026e-39
1.898256e-41
6.5579966e-44
2.0428099e-46
5.7921484e-49
1.5096169e-51
3.6521576e-54
8.277177e-57
1.7716392e-59
3.6048135e-62
7.0075435e-65
1.3061893e-67
2.3411174e-70
4.0449426e-73
6.7551936e-76
1.0938013e-78
1.7233689e-81
1.8592265e-10
2.0926332e-10
1.5695308e-07
8.0966769e-06
2.4988493e-05
4.7668335e-09
3.5643729e-05
0.00062170014
2.4177489e-08
9.6110627e-09
1.065617e-08
1.0533716e-08
4.5682415e-09
0.0052122722
0.0030984756
4.0470192e-09
3.0117525e-09
1.9041511e-09
1.7101056e-05
0.016596511
2.3325171e-09
2.0598661e-09
2.1692124e-05
1.4503216e-09
6.3906058e-10
0.022013185
0.018037033
0.0013354999
0.0095669823
5.56142e-05
2.4189983e-05
0.031395437
0.055009397
0.01367102
8.1718763e-09
8.057673e-09
4.3529803e-08
5.1976462e-09
4.9658836e-09
5.2201813e-09
0.00043301337
3.5891994e-06
3.2428747e-10
4.7442323e-11
3.204886e-12
1.3411443e-13
4.0521077e-15
9.7513335e-17
1.9602817e-18
3.3294928e-20
4.764963e-22
5.7331601e-24
5.8120165e-26
4.9927412e-28
3.662665e-30
2.3149404e-32
1.2726159e-34
6.1467527e-37
2.6363541e-39
1.0153033e-41
3.5507283e-44
1.1399091e-46
3.391585e-49
9.422689e-52
2.4569772e-54
6.0305473e-57
1.3954057e-59
3.0469726e-62
6.2863916e-65
1.2278346e-67
2.2766521e-70
4.0220245e-73
6.7992533e-76
1.1052255e-78
1.7365719e-81
2.069882e-10
4.4808781e-09
4.8597519e-08
5.3079087e-07
1.1017274e-05
3.3772183e-09
4.6180275e-06
8.0952753e-09
0.0035489895
4.8313103e-05
2.6705462e-09
2.6722991e-09
5.9899609e-06
6.2373647e-09
0.003644596
0.00093847894
2.9938534e-09
2.2176835e-09
1.9518713e-09
0.02881763
0.0013111751
2.8906406e-09
3.2401789e-09
3.6529969e-05
7.6086206e-10
0.0029477229
0.020720447
0.009031943
9.819804e-09
0.0061500513
0.038869338
0.083367413
0.083367413
0.034184955
7.524711e-09
7.0527103e-09
3.7539746e-08
1.5021851e-08
4.6727829e-09
5.960626e-09
3.1701425e-09
1.0795793e-06
1.1057446e-08
1.8152105e-10
3.8242049e-12
9.5671874e-14
2.486211e-15
5.9128355e-17
1.1999845e-18
2.0206244e-20
2.8091575e-22
3.2437887e-24
3.1438927e-26
2.5888382e-28
1.8347311e-30
1.1342847e-32
6.2030984e-35
3.0430288e-37
1.3567019e-39
5.5566161e-42
2.1058393e-44
7.4098599e-47
2.421844e-49
7.3446715e-52
2.0645225e-54
5.3779994e-57
1.2997908e-59
2.921694e-62
6.1296486e-65
1.2055226e-67
2.2336984e-70
3.9205313e-73
6.5557623e-76
1.0505493e-78
1.6230717e-81
1.1392535e-10
5.371679e-09
8.5320493e-08
8.5410203e-08
8.7604322e-08
6.9108178e-05
0.00024190687
1.9764121e-05
0.0054291678
0.0023520822
0.00028124992
0.0013913505
0.00076052557
6.8013482e-06
0.0027162331
0.0059886634
0.00037623015
3.006505e-09
3.6399773e-05
2.5101096e-09
2.6192805e-09
7.486173e-05
1.2419642e-05
0.00014362627
1.579749e-08
1.7871522e-08
0.017971798
0.0045250039
1.0214856e-08
0.054652532
0.075386708
0.054989452
0.003032818
0.00052466239
1.6562265e-05
7.340064e-09
7.5584327e-09
7.6867958e-09
3.382547e-09
5.2383934e-09
2.8575865e-09
9.21853e-10
1.9112291e-09
5.4319405e-11
1.5594977e-12
4.7232764e-14
1.3421777e-15
3.244352e-17
6.4163451e-19
1.0335361e-20
1.3692014e-22
1.5142225e-24
1.4217716e-26
1.1539428e-28
8.2464054e-31
5.2814281e-33
3.0763257e-35
1.6451006e-37
8.1025481e-40
3.669294e-42
1.5218505e-44
5.7596606e-47
1.9850963e-49
6.2305811e-52
1.7841362e-54
4.6760828e-57
1.1265101e-59
2.5068989e-62
5.1813877e-65
1.000373e-67
1.8150028e-70
3.1134741e-73
5.0810367e-76
7.9377631e-79
1.1944886e-81
1.3563787e-10
5.3257198e-09
1.5704825e-07
1.7720855e-06
3.9950658e-07
0.00022599999
3.454991e-05
2.2322643e-05
0.0054291677
0.00037396411
1.8563648e-05
0.00054426398
5.2568229e-09
5.2174806e-09
0.0057427117
0.0054812868
0.0045663066
0.00036185621
2.261537e-09
2.9172513e-09
5.5924237e-05
0.00013195949
0.00011354022
6.6909935e-05
0.0060852324
0.012678754
0.00086985206
5.1140727e-09