/*--------------------------------*- C++ -*----------------------------------*\
| =========                 |                                                 |
| \\      /  F ield         | OpenFOAM: The Open Source CFD Toolbox           |
|  \\    /   O peration     | Version:  2.3.0                                 |
|   \\  /    A nd           | Web:      www.OpenFOAM.org                      |
|    \\/     M anipulation  |                                                 |
\*---------------------------------------------------------------------------*/
FoamFile
{
    version     2.0;
    format      ascii;
    class       volScalarField;
    location    "4e-06";
    object      k;
}
// * * * * * * * * * * * * * * * * * * * * * * * * * * * * * * * * * * * * * //

dimensions      [0 2 -2 0 0 0 0];

internalField   nonuniform List<scalar> 
7500
(
1.0012103e-05
1.00504e-05
1.0147164e-05
1.0295475e-05
1.0591992e-05
1.0794611e-05
1.1172531e-05
1.1627518e-05
1.1739421e-05
1.2043255e-05
1.2483719e-05
1.3455e-05
1.4362356e-05
1.5279995e-05
1.7125776e-05
2.0046068e-05
2.3015852e-05
2.4693449e-05
2.8663008e-05
3.0832016e-05
3.2879072e-05
3.3366511e-05
3.4660475e-05
3.8434549e-05
4.4475449e-05
4.7195044e-05
5.011313e-05
5.5862764e-05
7.3312825e-05
0.00011582505
0.00013893184
0.00014934318
0.00016351132
0.00020509027
0.000377104
0.0011557952
0.0045902339
0.019779821
0.095280761
0.53442627
2.7520253
3.5062362
1.3593837
0.21391263
0.024511874
0.0023928087
0.00031175055
7.1191467e-05
2.2285122e-05
7.9848851e-06
3.1134084e-06
1.297593e-06
5.7212397e-07
2.6486292e-07
1.2797355e-07
6.4207989e-08
3.3307884e-08
1.7796947e-08
9.7620361e-09
5.4807559e-09
3.1412333e-09
1.8335476e-09
1.0877186e-09
6.5464261e-10
3.9916817e-10
2.4637052e-10
1.5389895e-10
9.7384232e-11
6.2577243e-11
4.102846e-11
2.766499e-11
1.942079e-11
1.4408995e-11
1.1703213e-11
1.0250177e-11
1.0090533e-05
1.0484652e-05
1.0766875e-05
1.0970686e-05
1.1349769e-05
1.1568868e-05
1.2236052e-05
1.2530037e-05
1.2818075e-05
1.3226483e-05
1.3811799e-05
1.4958253e-05
1.5599381e-05
1.6642334e-05
1.7785297e-05
1.9918248e-05
2.2558116e-05
2.3935566e-05
2.5701216e-05
2.8260466e-05
3.0820095e-05
3.3274784e-05
3.6140863e-05
4.3454552e-05
5.5828509e-05
6.3197857e-05
6.8956909e-05
7.8126945e-05
0.00010306906
0.00016997185
0.00021491543
0.00023748545
0.00026318731
0.00033482939
0.00058861033
0.0015593265
0.0052635401
0.018475992
0.06735876
0.25981273
1.2792311
2.6563481
1.7325173
0.31179017
0.033393991
0.0028327821
0.00031747958
6.8470926e-05
2.1356944e-05
7.6776081e-06
3.0037037e-06
1.2558035e-06
5.5533479e-07
2.5780844e-07
1.2489339e-07
6.2818353e-08
3.2663221e-08
1.7490884e-08
9.6139683e-09
5.4080947e-09
3.1052257e-09
1.8156209e-09
1.0788033e-09
6.5024637e-10
3.9703974e-10
2.4537442e-10
1.5346066e-10
9.7214096e-11
6.2530721e-11
4.1034848e-11
2.769092e-11
1.9452031e-11
1.4437317e-11
1.1746276e-11
1.0267658e-11
1.0241618e-05
1.1724366e-05
1.3001652e-05
1.4349587e-05
1.4836616e-05
1.5567939e-05
1.7538424e-05
1.8241393e-05
1.8737806e-05
1.9608432e-05
2.1227034e-05
2.407843e-05
2.5920756e-05
2.7686236e-05
3.0691561e-05
3.5439756e-05
4.1582419e-05
4.9099283e-05
5.4940691e-05
6.5829708e-05
7.5237825e-05
8.367605e-05
9.7788746e-05
0.0001270997
0.00018956011
0.00022630425
0.0002497521
0.00028591745
0.00038732982
0.00063055534
0.00078445501
0.00086184196
0.00093003149
0.0010960593
0.0016378653
0.0036471337
0.011208118
0.037823148
0.12311802
0.37388546
1.0935498
1.8076697
1.5110527
0.32804817
0.036641127
0.0031859185
0.00036919117
8.1745965e-05
2.5761366e-05
9.3044591e-06
3.6505323e-06
1.5291504e-06
6.770928e-07
3.145961e-07
1.5247033e-07
7.6693522e-08
3.986496e-08
2.1331687e-08
1.1711049e-08
6.5763238e-09
3.7670449e-09
2.1956775e-09
1.2993251e-09
7.7910071e-10
4.7259502e-10
2.8966236e-10
1.7930084e-10
1.1214613e-10
7.1024022e-11
4.5751679e-11
3.0218598e-11
2.0735102e-11
1.5030803e-11
1.2003515e-11
1.03292e-11
1.0040266e-05
1.1559885e-05
1.7646829e-05
1.8845198e-05
2.0319635e-05
2.1880119e-05
2.4905011e-05
2.585147e-05
2.9794008e-05
3.4643619e-05
3.9289752e-05
4.5000588e-05
5.0189894e-05
6.1389586e-05
6.5184185e-05
7.2730329e-05
9.1385309e-05
0.00011269367
0.00013994487
0.00015844048
0.00020477323
0.00024910041
0.00029770469
0.00037531232
0.00059005169
0.00073923674
0.00080603031
0.00091085061
0.0011819639
0.0018859907
0.0024221886
0.0027158551
0.0028827431
0.0032379613
0.0043894333
0.0083786923
0.02235116
0.070970914
0.22917464
0.64131565
1.2217153
1.6447655
1.4347121
0.36461292
0.039594378
0.0034533895
0.0004167972
9.5214267e-05
3.0282933e-05
1.0972693e-05
4.3127615e-06
1.8087587e-06
8.0160812e-07
3.726798e-07
1.8068867e-07
9.0899216e-08
4.7242512e-08
2.5268354e-08
1.3861399e-08
7.7745622e-09
4.445917e-09
2.5854584e-09
1.5253797e-09
9.1107599e-10
5.4988194e-10
3.3488648e-10
2.0562847e-10
1.2731963e-10
7.9630604e-11
5.0521029e-11
3.2775257e-11
2.204292e-11
1.565284e-11
1.2297804e-11
1.0413762e-11
1.0189443e-05
1.0725606e-05
1.3107159e-05
1.6591107e-05
2.5789787e-05
4.6436518e-05
4.5804895e-05
4.9719817e-05
6.0579291e-05
6.6963702e-05
7.5250753e-05
9.7289016e-05
0.00010842031
0.0001243456
0.00014845896
0.0001638168
0.00020859758
0.00029624182
0.0003523879
0.00041663474
0.00049837888
0.00072570548
0.00089298299
0.001072112
0.0015337601
0.0019679884
0.0021495176
0.002442674
0.0032108114
0.005261566
0.0068765956
0.0076502601
0.007952241
0.0086097579
0.010662763
0.018446725
0.04619113
0.13736288
0.43529456
1.2672497
1.9992318
2.442206
2.0285698
0.44906466
0.046436382
0.0039266131
0.00047835961
0.0001117285
3.5879556e-05
1.3055285e-05
5.1442099e-06
2.1612931e-06
9.5911775e-07
4.4635074e-07
2.1655736e-07
1.0898794e-07
5.6649716e-08
3.0293337e-08
1.6608248e-08
9.3058341e-09
5.3135574e-09
3.0834994e-09
1.8140396e-09
1.0794245e-09
6.4831877e-10
3.9236712e-10
2.3900219e-10
1.464912e-10
9.0464026e-11
5.6501286e-11
3.5972056e-11
2.3679956e-11
1.6441437e-11
1.2684772e-11
1.0532669e-11
1.0110315e-05
1.1515017e-05
1.6382368e-05
1.8856002e-05
2.7761886e-05
4.8943774e-05
6.6110968e-05
8.7382289e-05
0.00010729431
0.00011644671
0.00013996083
0.00019330348
0.00022723792
0.00025578489
0.00028124451
0.00034760701
0.00047805068
0.00072019972
0.00092895327
0.0010369135
0.001216065
0.0017217405
0.00252239
0.0029541932
0.0038535205
0.0048809505
0.0054599376
0.0064809898
0.0094619341
0.016264132
0.020471327
0.022097048
0.022048239
0.022467981
0.025481285
0.037926284
0.083084559
0.22604192
0.63448551
1.9270615
4.3671436
5.8034207
3.242002
0.47613258
0.045423252
0.0038820436
0.00051695304
0.00012753611
4.155998e-05
1.5206725e-05
6.0137147e-06
2.533918e-06
1.1272511e-06
5.257232e-07
2.555439e-07
1.2881502e-07
6.7044308e-08
3.5888773e-08
1.9689664e-08
1.1035851e-08
6.3004831e-09
3.6536817e-09
2.1465337e-09
1.2744467e-09
7.629536e-10
4.596258e-10
2.7821807e-10
1.6910147e-10
1.0328174e-10
6.3599355e-11
3.9782495e-11
2.5647353e-11
1.7407698e-11
1.3180564e-11
1.0694349e-11
1.0188276e-05
1.3585148e-05
1.9314563e-05
2.1919146e-05
2.9615566e-05
4.770771e-05
5.8848304e-05
7.7873633e-05
0.00013889255
0.00017320458
0.00022716756
0.00031697077
0.00037864617
0.00043538512
0.00051882469
0.00068309902
0.0011603073
0.0018465649
0.0021482846
0.0025702773
0.0030491679
0.0045766454
0.0077858885
0.009043988
0.010732062
0.012771732
0.015019621
0.01946936
0.033417718
0.055839971
0.066906617
0.06903205
0.065861038
0.064667883
0.068420871
0.088312031
0.16830122
0.41533492
1.0178745
2.5020528
5.9030189
6.8468619
2.8216581
0.38779191
0.037010087
0.0034719732
0.00053372088
0.00014054323
4.6513281e-05
1.7118721e-05
6.7959301e-06
2.8723949e-06
1.2812421e-06
5.9894894e-07
2.917451e-07
1.4733338e-07
7.6804303e-08
4.1168013e-08
2.2609812e-08
1.268198e-08
7.2430516e-09
4.2000986e-09
2.4661665e-09
1.4624608e-09
8.7375714e-10
5.2479267e-10
3.1630104e-10
1.9111052e-10
1.1579467e-10
7.0559066e-11
4.3548888e-11
2.762469e-11
1.8415343e-11
1.3736132e-11
1.0892571e-11
1.0298216e-05
1.1354851e-05
1.3779502e-05
2.0113102e-05
3.219872e-05
6.1599143e-05
0.00013233498
0.00024108955
0.00026386021
0.00029320358
0.00036702412
0.00066855408
0.00094092209
0.0010675104
0.0012537887
0.0017682705
0.0033374715
0.0055146294
0.006285484
0.0071521222
0.0089710635
0.014260522
0.025465805
0.030501317
0.034746253
0.039722713
0.049202667
0.070311565
0.13165763
0.19342236
0.22381595
0.22746903
0.2115303
0.20368339
0.2104947
0.23722116
0.34402121
0.7504865
1.8059047
3.4644635
5.491441
5.5207451
1.8349635
0.24871793
0.025703902
0.0028976098
0.00053801657
0.00015107097
5.0739298e-05
1.878662e-05
7.4887068e-06
3.1757791e-06
1.4206614e-06
6.6582423e-07
3.250604e-07
1.6449176e-07
8.5902933e-08
4.6116833e-08
2.5361067e-08
1.4240137e-08
8.1391073e-09
4.7216505e-09
2.7724157e-09
1.6432557e-09
9.8068066e-10
5.8789781e-10
3.5331376e-10
2.1258855e-10
1.2806775e-10
7.7434399e-11
4.7312544e-11
2.964139e-11
1.9483301e-11
1.4364372e-11
1.1131272e-11
1.0620662e-05
1.4857604e-05
2.5187719e-05
5.7315701e-05
6.989421e-05
9.3181432e-05
0.00019966702
0.00035339888
0.00044181555
0.00061982062
0.00092459602
0.001721059
0.0023801396
0.0027875046
0.0034091439
0.0051106786
0.0106259
0.016920061
0.020087539
0.023105753
0.029728175
0.052870626
0.088856488
0.11193621
0.12286686
0.13830157
0.17341285
0.27252967
0.48414575
0.63546448
0.69829171
0.70790783
0.66225604
0.6446708
0.67434445
0.73185467
0.84556524
1.2468035
3.1615863
5.4153138
6.4115456
4.8363809
1.1866856
0.16774515
0.019046324
0.0025597731
0.00054476859
0.00015967111
5.4283613e-05
2.0220122e-05
8.0949008e-06
3.4450301e-06
1.5458601e-06
7.2648633e-07
3.5554663e-07
1.8031498e-07
9.4351653e-08
5.0740852e-08
2.7946381e-08
1.5711994e-08
8.9896705e-09
5.219006e-09
3.0657454e-09
1.8171679e-09
1.0839747e-09
6.491306e-10
3.8939996e-10
2.3364411e-10
1.4018192e-10
8.4284308e-11
5.1115082e-11
3.1725419e-11
2.0629522e-11
1.5077205e-11
1.141459e-11
1.115873e-05
1.9150221e-05
8.8519918e-05
0.00015346691
0.00018776845
0.00024916556
0.00041860697
0.00095888478
0.0011891816
0.001326614
0.0016918859
0.0031756394
0.0059541514
0.0075576627
0.009967325
0.016144075
0.03697759
0.05844838
0.067013112
0.0796539
0.10628555
0.19789734
0.3176894
0.37032654
0.41541388
0.4552595
0.55693758
0.94984587
1.5059147
1.7926162
1.92193
1.9441244
1.8535321
1.8437243
2.0590374
2.161344
2.2001376
2.4693476
3.6619055
9.0725049
10.439978
5.0343241
0.98017331
0.13201026
0.015728837
0.0023782554
0.00055139526
0.00016644299
5.7191623e-05
2.143189e-05
8.6183791e-06
3.6814465e-06
1.657305e-06
7.8111154e-07
3.8327282e-07
1.9483085e-07
1.0216191e-07
5.5044882e-08
3.0367833e-08
1.7098497e-08
9.7952137e-09
5.6924375e-09
3.3463404e-09
1.9843394e-09
1.1837559e-09
7.0858899e-10
4.2464146e-10
2.5434427e-10
1.5219072e-10
9.1150232e-11
5.4987402e-11
3.3899224e-11
2.1870102e-11
1.5885921e-11
1.1746249e-11
1.2334231e-05
6.5555506e-05
0.00016641912
0.00021946376
0.00026514953
0.00042510509
0.00082893773
0.001982787
0.0029589249
0.0033795238
0.0044844308
0.0082651402
0.018113822
0.023922519
0.03262046
0.059572012
0.14610074
0.20887074
0.23584221
0.27989827
0.38355356
0.7305619
1.0538456
1.163855
1.2692231
1.3518498
1.5939088
2.6535174
3.9605847
4.3678994
4.598179
4.7657468
4.6115864
4.6655168
5.3824394
5.4814289
4.9625051
4.6987787
5.505045
9.1309721
9.306986
3.6682935
0.7009556
0.099021949
0.012939944
0.002218689
0.0005539992
0.00017148008
5.9513755e-05
2.2436724e-05
9.0638944e-06
3.8867041e-06
1.7556299e-06
8.2995297e-07
4.0834469e-07
2.0808522e-07
1.0935428e-07
5.9038458e-08
3.2629985e-08
1.8401906e-08
1.0556907e-08
6.142585e-09
3.6145749e-09
2.1450059e-09
1.2801838e-09
7.6638734e-10
4.5912356e-10
2.7475393e-10
1.6414371e-10
9.8069685e-11
5.8957496e-11
3.6182645e-11
2.3218857e-11
1.6801995e-11
1.2130196e-11
2.2817172e-05
0.00011281336
0.00017873659
0.00030155602
0.00039666677
0.00088320086
0.0016867976
0.0035493551
0.0064181637
0.0082003478
0.012134818
0.02430308
0.060590295
0.082834703
0.11862378
0.24128404
0.55361432
0.71585347
0.80284066
0.95841806
1.3314794
2.4674122
3.181813
3.3435954
3.5416642
3.7307349
4.1824502
6.2819845
9.3002326
9.8578566
10.302922
11.556083
11.332
11.469629
13.237453
13.447444
11.44879
8.3641312
7.5547854
11.509283
12.261809
3.509572
0.58546313
0.080633652
0.011114897
0.0020965267
0.00055379407
0.00017500245
6.1302845e-05
2.3249769e-05
9.4363669e-06
4.0625529e-06
1.8415012e-06
8.7327861e-07
4.3087505e-07
2.2012753e-07
1.159512e-07
6.2732089e-08
3.4737919e-08
1.9624761e-08
1.127607e-08
6.5701643e-09
3.8708585e-09
2.2994164e-09
1.3734199e-09
8.2263662e-10
4.9292615e-10
2.949324e-10
1.7608559e-10
1.0507647e-10
6.3050502e-11
3.8595076e-11
2.4690066e-11
1.7836291e-11
1.2570037e-11
1.2496539e-05
3.9321309e-05
0.00028820861
0.00051276964
0.00072189538
0.0012666971
0.0024181673
0.0054500552
0.012747082
0.022344134
0.040508733
0.085973209
0.22388465
0.31083202
0.45752499
0.96235342
1.887229
2.3106785
2.6084781
3.1349806
4.285715
7.554804
8.9494264
9.0101121
9.2409067
9.5722875
10.245713
14.826284
22.980631
23.864503
25.275578
31.833115
31.670019
31.002573
35.270457
35.486021
28.760339
17.557956
10.933855
10.506628
12.119993
4.5696274
0.60402109
0.072599325
0.010006859
0.0020058647
0.00055139991
0.00017719939
6.260948e-05
2.3885984e-05
9.740718e-06
4.2107509e-06
1.9155881e-06
9.1135671e-07
4.5097619e-07
2.3100653e-07
1.2197454e-07
6.6135884e-08
3.6696435e-08
2.0769406e-08
1.1953881e-08
6.9757933e-09
4.1155323e-09
2.447772e-09
1.4635916e-09
8.7742378e-10
5.2611226e-10
3.149273e-10
1.8805322e-10
1.1219929e-10
6.7289133e-11
4.1153702e-11
2.6298565e-11
1.9000915e-11
1.3069677e-11
1.125371e-05
3.9506446e-05
0.0002838835
0.00078175368
0.0013647074
0.0026379706
0.0059581401
0.017516085
0.050956341
0.10227616
0.18721462
0.36859539
0.8842935
1.2253693
1.7714898
3.3771771
5.9776443
7.177424
8.3054189
9.8675677
12.670725
21.559108
24.465741
23.362258
23.405313
23.666435
24.707545
48.362907
69.095414
67.180679
70.762944
93.761108
109.68231
95.784775
105.84472
107.13435
77.599946
39.272552
19.91845
12.562158
10.729404
4.2006688
0.61769907
0.072138659
0.0095777345
0.001945594
0.00054725796
0.00017823696
6.3481504e-05
2.4359961e-05
9.9818196e-06
4.3330506e-06
1.9785598e-06
9.4445554e-07
4.6876023e-07
2.4077077e-07
1.2744596e-07
6.925976e-08
3.8510183e-08
2.1838073e-08
1.2591441e-08
7.3600314e-09
4.3488944e-09
2.590242e-09
1.5508033e-09
9.3081899e-10
5.5873285e-10
3.3477773e-10
2.0007756e-10
1.1946303e-10
7.1693144e-11
4.3874717e-11
2.8057422e-11
2.0308757e-11
1.3632967e-11
1.0428881e-05
2.2984547e-05
0.00022615124
0.0013720846
0.0048164151
0.013903855
0.032464309
0.091710634
0.25519411
0.4903866
0.87194427
1.6036353
3.4331953
4.6215854
6.4424259
10.443827
18.104762
23.132527
25.56297
30.413597
36.200484
63.451083
69.48962
61.114264
59.17389
59.562431
62.138412
146.88705
158.8999
123.379
110.2107
131.58926
149.76746
242.441
257.34897
246.60143
152.81985
72.524321
33.473445
17.250125
11.695425
4.2969323
0.75192326
0.077752399
0.0093879639
0.0018860972
0.00054065086
0.00017820457
6.3962945e-05
2.4685759e-05
1.0164444e-05
4.4311843e-06
2.0310807e-06
9.7284213e-07
4.8433879e-07
2.4946851e-07
1.3238694e-07
7.2113513e-08
4.0183723e-08
2.2832923e-08
1.3189794e-08
7.7233976e-09
4.5712122e-09
2.7269729e-09
1.6351423e-09
9.8287966e-10
5.908295e-10
3.5451607e-10
2.1218492e-10
1.2688954e-10
7.6280733e-11
4.6773095e-11
2.9978757e-11
2.1772564e-11
1.4264336e-11
9.4632203e-06
8.2892633e-05
0.00079059691
0.005857065
0.025544803
0.074739271
0.16324333
0.43370603
1.0766415
1.9459777
3.6397583
6.4584834
11.820396
15.435755
21.182607
31.481863
56.674309
76.491481
75.697312
93.180397
108.13028
231.36083
214.49425
153.75907
159.04116
128.32096
103.05115
102.88708
121.96487
115.03772
108.56784
117.49487
129.44697
266.23698
293.65926
262.54758
164.82779
102.62668
65.383872
34.125747
23.459032
7.2078172
0.84515106
0.076866635
0.0087532715
0.0018044885
0.00053151272
0.00017732727
6.4091087e-05
2.4876764e-05
1.0293226e-05
4.5068499e-06
2.0738059e-06
9.967806e-07
4.9782253e-07
2.5714765e-07
1.3681879e-07
7.4706829e-08
4.1721544e-08
2.3756066e-08
1.3749948e-08
8.0663811e-09
4.7827308e-09
2.8580935e-09
1.7166823e-09
1.033653e-09
6.2243617e-10
3.7416913e-10
2.2439773e-10
1.3449799e-10
8.1069194e-11
4.986511e-11
3.2075553e-11
2.3404469e-11
1.4968302e-11
7.8839091e-06
0.0005329457
0.0048056403
0.028639305
0.114104
0.3177482
0.69507834
1.8249331
3.9471015
6.9828767
14.515915
23.011633
35.715379
48.437509
64.266737
103.55823
199.04198
255.85056
201.58578
355.70798
371.39001
596.57567
393.69469
236.51269
204.18232
132.82455
109.08808
92.91401
109.80474
110.36552
113.57558
148.91417
153.82918
158.04795
168.08961
167.17508
135.90681
165.87268
164.32129
109.95799
41.772606
7.1097774
0.74954828
0.06574239
0.0077313491
0.0017165464
0.00052109174
0.00017572235
6.3911515e-05
2.494485e-05
1.037262e-05
4.5617001e-06
2.1073769e-06
1.0165308e-06
5.0932064e-07
2.6385553e-07
1.4076258e-07
7.7049285e-08
4.3128067e-08
2.4609572e-08
1.427288e-08
8.389448e-09
4.9836766e-09
2.9837186e-09
1.795486e-09
1.0831776e-09
6.5358037e-10
3.9375898e-10
2.3673503e-10
1.4230579e-10
8.6072737e-11
5.3163698e-11
3.4362839e-11
2.521748e-11
1.5748986e-11
1.4038761e-05
0.0034136692
0.026484953
0.14620897
0.51923134
1.3357663
2.7130751
7.1981381
13.517039
23.422286
53.644259
71.679586
104.43033
145.32963
216.34292
415.25203
782.04479
724.89425
448.80418
1088.1094
996.3505
370.50425
220.87728
212.95651
126.94199
102.86643
111.51895
108.14239
126.85178
127.91881
130.45335
136.42186
154.77267
197.77314
216.33797
198.46995
159.98205
149.37684
104.86596
78.205887
32.266244
5.197444
0.52853747
0.049742417
0.0067526022
0.0016419755
0.00051037214
0.00017346437
6.3482702e-05
2.4901164e-05
1.0406823e-05
4.5973337e-06
2.1324191e-06
1.0323472e-06
5.1894042e-07
2.6963879e-07
1.442391e-07
7.9150338e-08
4.4407658e-08
2.5395473e-08
1.4759542e-08
8.6930466e-09
5.1742624e-09
3.1039516e-09
1.8716071e-09
1.1314851e-09
6.8428411e-10
4.1330355e-10
2.4921294e-10
1.5032713e-10
9.1306928e-11
5.6680403e-11
3.6851337e-11
2.7225983e-11
1.6610837e-11
0.00010820851
0.020195631
0.12984644
0.62799282
2.0580458
5.1548731
9.4958987
26.333133
43.869926
75.694316
182.95495
218.79029
317.82285
505.62118
913.06897
1684.7508
1639.2097
756.75604
735.18626
777.67382
649.19351
171.51786
149.45212
130.27612
117.09426
109.1893
102.67802
115.28022
133.66771
141.88496
202.84657
203.27949
218.66035
291.77298
256.66604
200.03802
154.84634
149.00151
116.04607
53.050826
17.549767
2.8423264
0.33577424
0.039061001
0.0062890358
0.0016120962
0.00050138066
0.00017075588
6.2793085e-05
2.4767429e-05
1.0398985e-05
4.61528e-06
2.1495388e-06
1.0444779e-06
5.2678702e-07
2.745433e-07
1.4726885e-07
8.1019327e-08
4.5564627e-08
2.6115773e-08
1.5210866e-08
8.97761e-09
5.3546891e-09
3.2188865e-09
1.9450917e-09
1.1786009e-09
7.1456458e-10
4.3281712e-10
2.6184483e-10
1.5857631e-10
9.6784652e-11
6.0433228e-11
3.9554407e-11
2.9443017e-11
1.755833e-11
0.00037145356
0.10748375
0.59277255
2.425843
7.0897769
16.952508
29.686064
92.06042
136.33779
244.26835
648.61091
684.90018
1153.3106
1791.3777
2715.3075
2003.0516
571.84211
130.44734
442.40343
222.73919
97.591534
78.948273
120.40252
187.30195
144.37442
105.70474
98.745965
110.0241
221.64909
200.83934
275.68832
228.35471
244.7596
249.41106
263.06569
212.93437
153.26128
141.92139
118.58669
46.663123
11.389631
1.8879887
0.28899996
0.039329527
0.0066290684
0.0016432095
0.0004954069
0.00016771804
6.1894931e-05
2.4538841e-05
1.0356651e-05
4.6167842e-06
2.1593203e-06
1.0531642e-06
5.329631e-07
2.7861405e-07
1.4987202e-07
8.2665467e-08
4.6603231e-08
2.677245e-08
1.5627773e-08
9.2435614e-09
5.5251488e-09
3.3286098e-09
2.0159794e-09
1.2245452e-09
7.4443469e-10
4.5231059e-10
2.7464162e-10
1.6706393e-10
1.0251692e-10
6.4432434e-11
4.248776e-11
3.1883245e-11
1.8596076e-11
0.0058916701
0.51594619
2.4309067
8.3600824
21.638972
50.298059
86.425728
320.00432
406.55891
886.36683
1783.2082
1673.5307
1988.2276
2201.9523
2609.7063
332.39985
130.99705
94.086819
109.66689
76.99098
85.182226
92.464612
102.32258
208.59944
170.28049
120.40897
93.176993
162.20684
297.08606
228.62462
273.54791
243.39347
210.31911
225.04535
218.30064
260.83548
190.5997
160.51173
141.74994
54.201666
10.758307
1.748551
0.31512493
0.05084698
0.0084499161
0.0018033399
0.0004969046
0.0001645345
6.0817133e-05
2.4231751e-05
1.0279424e-05
4.6039163e-06
2.1622958e-06
1.0586398e-06
5.375687e-07
2.8189507e-07
1.5206843e-07
8.4097838e-08
4.7527676e-08
2.7367461e-08
1.6011166e-08
9.4913146e-09
5.6858267e-09
3.4332019e-09
2.0843046e-09
1.2693335e-09
7.7390353e-10
4.7179187e-10
2.8761194e-10
1.7580021e-10
1.0851603e-10
6.8688552e-11
4.5662284e-11
3.4561353e-11
1.9728653e-11
0.049080079
2.232027
8.8261143
25.927268
61.611719
146.10442
248.114
1157.1701
1268.7852
1810.6862
1657.2051
1649.2124
1110.4031
879.86406
480.0183
89.777617
112.67687
127.26637
89.552016
195.9616
120.57952
124.48896
129.21203
180.63455
176.97044
151.08787
135.50722
160.36599
252.15613
209.65668
196.40105
220.90265
231.43482
450.1696
384.74306
910.10851
452.75448
225.15091
194.7127
56.939134
11.866481
2.4761611
0.59024935
0.10269944
0.0145751
0.0022935703
0.00051245259
0.00016148767
5.9586799e-05
2.3855757e-05
1.01718e-05
4.5777427e-06
2.1590056e-06
1.06113e-06
5.4070111e-07
2.8442938e-07
1.5387755e-07
8.5325397e-08
4.8342126e-08
2.7902742e-08
1.6361943e-08
9.7212776e-09
5.8369024e-09
3.5327381e-09
2.1500969e-09
1.3129773e-09
8.0297682e-10
4.9126606e-10
3.0076218e-10
1.8479318e-10
1.1479127e-10
7.3215343e-11
4.9090229e-11
3.749136e-11
2.0960629e-11
0.31354108
8.6976433
28.347498
74.444306
172.38166
443.77494
767.84062
2580.2696
2362.7581
1210.6754
345.37636
606.35114
625.96929
450.18714
804.22665
166.78174
192.82416
127.09987
80.837962
126.28288
146.80347
146.38451
158.79899
274.16851
234.85042
212.29833
155.50919
179.6491
169.26394
165.61874
187.8194
311.92647
266.3099
696.46538
589.42819
638.94541
886.76193
407.46687
483.09496
134.92561
19.754482
5.3255835
1.6651223
0.27990975
0.031987807
0.0034588489
0.00055327947
0.00015866203
5.8219736e-05
2.3418899e-05
1.0037546e-05
4.5390423e-06
2.1502428e-06
1.0608131e-06
5.4245451e-07
2.8625899e-07
1.5531848e-07
8.6356963e-08
4.9050691e-08
2.8380217e-08
1.6680995e-08
9.933854e-09
5.9785518e-09
3.6272898e-09
2.2133823e-09
1.3554846e-09
8.3165713e-10
5.1073563e-10
3.1409672e-10
1.940493e-10
1.2135024e-10
7.8022512e-11
5.2783999e-11
4.0687151e-11
2.229649e-11
1.6860198
30.64679
81.129078
204.85867
501.82867
1521.3446
1809.747
1752.4353
1593.8031
405.76914
160.80076
503.99401
381.65171
250.08718
434.79569
145.4725
206.17977
105.84059
81.547011
81.433386
128.87168
116.27257
158.8017
182.12375
245.91559
222.01338
168.30642
164.12118
167.16696
195.88769
196.36802
693.32468
488.50927
453.5633
541.74554
499.04607
3449.8315
1010.0698
507.67405
293.33572
71.098607
44.543196
12.790788
1.3698958
0.10421792
0.0069575437
0.00065502832
0.0001564271
5.673324e-05
2.2928878e-05
9.8796537e-06
4.4894517e-06
2.136086e-06
1.0580227e-06
5.4291508e-07
2.8742482e-07
1.5640992e-07
8.7201226e-08
4.9657442e-08
2.8801792e-08
1.6969207e-08
1.0129445e-08
6.1109479e-09
3.7169256e-09
2.2741837e-09
1.3968605e-09
8.5994423e-10
5.3020066e-10
3.2761779e-10
2.0357442e-10
1.282036e-10
8.3119996e-11
5.6755898e-11
4.4162594e-11
2.374068e-11
7.9060283
95.55427
210.79277
575.51109
1636.3411
2265.1404
1959.7151
513.3157
565.14742
84.944808
124.86561
293.38803
191.14252
151.10708
53.992395
47.743832
39.10386
45.906752
74.293635
204.99399
195.30717
126.57381
97.512938
123.29885
206.02991
260.7199
189.12993
163.74543
173.14523
261.76527
259.51569
850.02606
615.09667
501.304
808.17905
759.57777
1924.975
2620.922
943.12905
575.8374
395.90506
203.16986
59.656096
5.3993201
0.30476487
0.012877628
0.00075873155
0.00015304639
5.511623e-05
2.2392709e-05
9.7009908e-06
4.4300928e-06
2.117192e-06
1.0528532e-06
5.421743e-07
2.8796664e-07
1.571702e-07
8.7866742e-08
5.0166406e-08
2.9169362e-08
1.722746e-08
1.0308449e-08
6.2342623e-09
3.8017118e-09
2.3325212e-09
1.4371071e-09
8.8783539e-10
5.4965892e-10
3.4132622e-10
2.1337004e-10
1.3535549e-10
8.8514834e-11
6.101674e-11
4.793065e-11
2.5298199e-11
33.008887
255.58335
532.52641
1678.1741
2352.7606
1260.6695
982.45932
130.29995
99.477724
31.636643
105.30192
149.05821
116.19137
234.12982
41.653634
25.570493
27.550118
40.136971
62.949795
277.72906
165.01055
99.982759
87.975041
123.08421
96.048999
124.76894
165.98158
175.21003
198.04827
265.76845
311.85788
333.39431
423.62562
497.8269
870.52189
967.94631
1121.7865
3746.2307
1125.7352
560.61361
414.18974
208.76907
61.913844
7.3847814
0.38732126
0.01431171
0.00075266844
0.00014736089
5.3378603e-05
2.1817373e-05
9.5042703e-06
4.3620511e-06
2.0940196e-06
1.0454986e-06
5.4034918e-07
2.8791759e-07
1.5761724e-07
8.8361925e-08
5.0581567e-08
2.9484812e-08
1.7456635e-08
1.0471267e-08
6.348666e-09
3.8817131e-09
2.3884131e-09
1.4762246e-09
9.1532553e-10
5.6910613e-10
3.5521956e-10
2.2344039e-10
1.4281239e-10
9.4215975e-11
6.5573945e-11
5.2000595e-11
2.697556e-11
125.85768
646.41597
1455.5061
2116.1263
1217.5327
549.44728
462.43409
38.758912
31.645888
30.47763
81.736999
111.17344
237.56938
485.05448
60.956104
21.820612
23.907788
47.266321
77.000918
90.253629
106.67486
115.51423
93.204744
92.851351
86.972315
87.550291
190.96897
216.98715
236.12332
229.31466
236.38617
255.62113
481.76665
1002.0541
961.33034
770.03879
1572.1175
1552.7595
1559.2403
689.43311
336.6544
172.5848
59.853382
8.0167517
0.38678882
0.013410498
0.00068205572
0.0001401989
5.1550195e-05
2.1209361e-05
9.2919462e-06
4.2863141e-06
2.0669825e-06
1.036168e-06
5.3746996e-07
2.8733134e-07
1.5776787e-07
8.8694987e-08
5.0906841e-08
2.9750007e-08
1.7657609e-08
1.0618297e-08
6.4543293e-09
3.9569936e-09
2.441876e-09
1.5142108e-09
9.4240753e-10
5.8853586e-10
3.6929587e-10
2.3378661e-10
1.505815e-10
1.0023819e-10
7.0439284e-11
5.637944e-11
2.8781085e-11
453.03993
1691.16
2376.5048
1234.58
525.84021
220.01823
193.4101
36.254485
16.895737
36.542705
62.278066
101.21907
250.46362
360.87044
69.85042
21.342883
23.731544
75.612909
81.048407
72.914352
141.61921
123.06576
118.58257
97.395998
88.911018
85.432066
205.73664
268.86655
244.83508
267.59172
339.71605
229.7412
747.86471
654.29274
905.25197
721.04232
2041.8749
3147.8648
1047.0021
637.76566
319.18647
185.42207
76.225551
7.4110484
0.31015094
0.0098354852
0.00055760899
0.00013227361
4.9657498e-05
2.057498e-05
9.0667514e-06
4.2040553e-06
2.0365849e-06
1.0250796e-06
5.3365629e-07
2.8623963e-07
1.5764174e-07
8.8876187e-08
5.1147142e-08
2.9967306e-08
1.7831504e-08
1.0750062e-08
6.5514839e-09
4.0276457e-09
2.4929386e-09
1.5510676e-09
9.6907406e-10
6.0793983e-10
3.8354824e-10
2.4440379e-10
1.5865762e-10
1.0657991e-10
7.5625215e-11
6.1071323e-11
3.0724504e-11
1417.696
3076.7815
2089.9693
661.86432
194.91313
71.683102
73.860567
47.076795
14.068273
31.290531
49.949545
81.186222
153.8144
112.52485
45.203947
22.262109
24.125517
97.900876
99.111677
97.370235
138.02412
139.58975
145.58959
118.04063
103.18256
91.814125
201.95104
252.51903
258.58968
291.59111
266.4009
179.12184
159.73851
361.95063
963.63079
1557.59
1762.7855
1209.2594
863.2437
637.21482
400.03473
288.99035
70.925847
4.5879357
0.1732449
0.0056621671
0.00044614623
0.00012505116
4.7794995e-05
1.9933504e-05
8.8332174e-06
4.1162435e-06
2.0029517e-06
1.0121892e-06
5.2885019e-07
2.8459543e-07
1.5721406e-07
8.8882942e-08
5.1289307e-08
3.0128263e-08
1.7972849e-08
1.0862975e-08
6.6377508e-09
4.0920727e-09
2.5405172e-09
1.5860512e-09
9.9480879e-10
6.2695564e-10
3.9772012e-10
2.5510853e-10
1.6691061e-10
1.1313167e-10
8.1049117e-11
6.6023742e-11
3.277888e-11
4065.2987
3046.4374
881.75115
164.89511
52.247645
26.885159
35.218449
39.055451
11.844286
27.164408
47.23572
84.99445
259.69125
77.788025
38.332789
22.507581
23.740614
99.648463
165.90331
105.59428
104.59153
146.82781
165.32832
125.86573
128.77746
103.5977
150.24513
173.74608
268.03436
280.12105
249.70765
178.7145
134.08568
220.90743
769.16104
1575.3322
1208.4459
623.32183
407.23259
506.64356
473.23665
288.25754
39.279852
2.1338942
0.079419262
0.0030333683
0.00037053405
0.00011741934
4.5571223e-05
1.9162033e-05
8.550872e-06
4.0091463e-06
1.9614192e-06
9.9586794e-07
5.224583e-07
2.8217697e-07
1.5638779e-07
8.8676518e-08
5.1307131e-08
3.0217489e-08
1.8072741e-08
1.0951986e-08
6.7103839e-09
4.1489465e-09
2.5840346e-09
1.6189517e-09
1.0195779e-09
6.4563056e-10
4.1189279e-10
2.6599485e-10
1.7543972e-10
1.2000932e-10
8.6805245e-11
7.1344567e-11
3.4962734e-11
7770.2758
1348.9183
216.03686
32.085808
20.255868
20.422275
29.017281
34.403422
13.40152
31.651161
46.518877
94.415277
297.88307
67.795142
38.932922
21.73836
23.820624
72.446308
180.09634
90.430845
108.79139
142.72126
126.65266
95.226684
137.27216
107.01646
131.9233
159.09336
278.68418
284.53825
292.88456
214.43738
124.358
156.71811
567.7694
997.74942
653.88789
386.87495
256.81743
286.45433
416.51511
183.62173
17.029564
0.85522443
0.033016287
0.0017707775
0.0003330416
0.000113608
4.463953e-05
1.890827e-05
8.485874e-06
3.9979232e-06
1.9640699e-06
1.0007599e-06
5.2663299e-07
2.8518798e-07
1.5842817e-07
9.0031162e-08
5.2200974e-08
3.0803446e-08
1.8456421e-08
1.1204022e-08
6.8768887e-09
4.2596875e-09
2.6585028e-09
1.6697169e-09
1.0547228e-09
6.7039599e-10
4.2970814e-10
2.7913073e-10
1.8541409e-10
1.2789806e-10
9.3326436e-11
7.730185e-11
3.7335115e-11
1562.0416
182.24277
31.62058
18.425523
22.360162
22.764758
31.262303
36.086685
16.880132
44.619623
45.255995
83.804303
80.516179
33.510507
29.238395
21.044124
26.413327
60.216187
151.38963
78.419204
117.73398
163.37009
135.53648
96.485863
132.86063
117.01688
137.07605
156.66285
296.46076
307.02799
288.12193
178.70432
122.57491
150.05843
449.83807
474.26146
505.97112
478.21522
373.06968
286.82749
262.8291
78.017998
6.2921538
0.31167133
0.013777845
0.0012234736
0.00030777218
0.00010906231
4.3284216e-05
1.8466073e-05
8.3380098e-06
3.9467994e-06
1.9458319e-06
9.9453175e-07
5.2483911e-07
2.8498037e-07
1.5871569e-07
9.0399837e-08
5.2524086e-08
3.1057014e-08
1.8646537e-08
1.1343561e-08
6.9784304e-09
4.3335116e-09
2.7122626e-09
1.709037e-09
1.0836926e-09
6.9195637e-10
4.4596736e-10
2.9160433e-10
1.952018e-10
1.3581893e-10
1.0001381e-10
8.3484182e-11
3.9811817e-11