/*--------------------------------*- C++ -*----------------------------------*\
| =========                 |                                                 |
| \\      /  F ield         | OpenFOAM: The Open Source CFD Toolbox           |
|  \\    /   O peration     | Version:  2.3.0                                 |
|   \\  /    A nd           | Web:      www.OpenFOAM.org                      |
|    \\/     M anipulation  |                                                 |
\*---------------------------------------------------------------------------*/
FoamFile
{
    version     2.0;
    format      ascii;
    class       volScalarField;
    location    "4e-06";
    object      nuSgs;
}
// * * * * * * * * * * * * * * * * * * * * * * * * * * * * * * * * * * * * * //

dimensions      [0 2 -1 0 0 0 0];

internalField   nonuniform List<scalar> 
7500
(
4.1431948e-10
4.2010971e-10
4.2710389e-10
4.3518047e-10
4.4639344e-10
4.5563368e-10
4.6857021e-10
4.8309744e-10
4.90473e-10
5.0185101e-10
5.1605825e-10
5.4101261e-10
5.6433134e-10
5.8756739e-10
6.2779351e-10
6.853692e-10
7.4091131e-10
7.7412732e-10
8.4116066e-10
8.7972083e-10
9.1592585e-10
9.3013243e-10
9.5549652e-10
1.0139818e-09
1.0990644e-09
1.1406235e-09
1.1839674e-09
1.2590266e-09
1.4524941e-09
1.8383085e-09
2.0270005e-09
2.1155613e-09
2.2280855e-09
2.5113168e-09
3.4267112e-09
6.0360542e-09
1.2101648e-08
2.5269823e-08
5.5783762e-08
1.3420521e-07
3.0641736e-07
3.4795379e-07
2.1794092e-07
8.6957369e-08
2.9604058e-08
9.3013681e-09
3.3758415e-09
1.6219384e-09
9.1227731e-10
5.4892155e-10
3.4451551e-10
2.2352883e-10
1.4915652e-10
1.0197659e-10
7.1220194e-11
5.068175e-11
3.6669586e-11
2.6924181e-11
2.0028091e-11
1.5071343e-11
1.1457963e-11
8.7900753e-12
6.797638e-12
5.2944343e-12
4.1502846e-12
3.2729699e-12
2.5964426e-12
2.0729288e-12
1.667607e-12
1.3550025e-12
1.1164562e-12
9.3854694e-13
8.1106013e-13
7.3328064e-13
6.8838739e-13
4.5753301e-10
4.7199864e-10
4.8394802e-10
4.9414655e-10
5.0829424e-10
5.1886029e-10
5.394016e-10
5.516455e-10
5.6376206e-10
5.7851914e-10
5.9709651e-10
6.2747822e-10
6.469455e-10
6.7452164e-10
7.0374438e-10
7.514987e-10
8.0685742e-10
8.3837062e-10
8.7616842e-10
9.2645911e-10
9.7546168e-10
1.0217384e-09
1.0732572e-09
1.1859861e-09
1.3545145e-09
1.4519043e-09
1.5277264e-09
1.6378224e-09
1.8944417e-09
2.4496178e-09
2.773189e-09
2.9345675e-09
3.1094465e-09
3.5296646e-09
4.7092696e-09
7.7121225e-09
1.4254723e-08
2.6865046e-08
5.1593492e-08
1.0293152e-07
2.2980229e-07
3.331472e-07
2.7064451e-07
1.1548141e-07
3.8009296e-08
1.1132485e-08
3.747391e-09
1.7497104e-09
9.8238474e-10
5.9208165e-10
3.722305e-10
2.4188994e-10
1.6164687e-10
1.1067032e-10
7.7393673e-11
5.5143335e-11
3.9944287e-11
2.9360829e-11
2.1863183e-11
1.6468216e-11
1.2531313e-11
9.6216991e-12
7.4466952e-12
5.8042897e-12
4.5531253e-12
3.5929813e-12
2.852017e-12
2.278229e-12
1.8336857e-12
1.4906188e-12
1.2286772e-12
1.0332317e-12
8.9304252e-13
8.0809136e-13
7.5787159e-13
5.0704018e-10
5.4903636e-10
5.849865e-10
6.2165763e-10
6.3926624e-10
6.6208424e-10
7.1036169e-10
7.3215931e-10
7.4978458e-10
7.7483575e-10
8.1424811e-10
8.7571944e-10
9.1734043e-10
9.5700325e-10
1.0169194e-09
1.1026577e-09
1.2050163e-09
1.3208225e-09
1.4091282e-09
1.5553934e-09
1.6765018e-09
1.7822776e-09
1.9419662e-09
2.2311405e-09
2.7455022e-09
3.0222184e-09
3.1981876e-09
3.4465089e-09
4.0397104e-09
5.1899612e-09
5.8280379e-09
6.149391e-09
6.4297211e-09
7.024758e-09
8.641147e-09
1.2974001e-08
2.2881202e-08
4.2281971e-08
7.6727559e-08
1.3582513e-07
2.3371781e-07
3.023054e-07
2.7803081e-07
1.3029938e-07
4.379583e-08
1.2986602e-08
4.445181e-09
2.1029983e-09
1.1868318e-09
7.1697973e-10
4.5139235e-10
2.9361264e-10
1.9633903e-10
1.3447822e-10
9.4063489e-11
6.7022679e-11
4.8541537e-11
3.5667095e-11
2.654316e-11
1.9976007e-11
1.5182492e-11
1.1639013e-11
8.9896757e-12
6.9887515e-12
5.4642413e-12
4.2941681e-12
3.3910753e-12
2.6916438e-12
2.1496784e-12
1.7313561e-12
1.4118838e-12
1.1734403e-12
1.0023345e-12
8.9858108e-13
8.3615337e-13
5.5223429e-10
5.996887e-10
7.4967425e-10
7.8365445e-10
8.2293396e-10
8.6340631e-10
9.3115141e-10
9.5876438e-10
1.0400023e-09
1.1329025e-09
1.218553e-09
1.3168997e-09
1.4041307e-09
1.5675503e-09
1.6301999e-09
1.737584e-09
1.9650289e-09
2.2011484e-09
2.4738571e-09
2.6543308e-09
3.0423921e-09
3.3826313e-09
3.7272005e-09
4.2173898e-09
5.3282678e-09
6.0084708e-09
6.3200095e-09
6.7666753e-09
7.7625528e-09
9.87336e-09
1.1265099e-08
1.2007823e-08
1.2451996e-08
1.3281369e-08
1.5560703e-08
2.1631113e-08
3.5543092e-08
6.3710245e-08
1.1515069e-07
1.9567685e-07
2.7173789e-07
3.1719844e-07
2.9800819e-07
1.5110619e-07
5.0079248e-08
1.4872832e-08
5.1953987e-09
2.4966029e-09
1.4154561e-09
8.5646697e-10
5.3969265e-10
3.512632e-10
2.3499373e-10
1.6100371e-10
1.1263842e-10
8.0262964e-11
5.8126883e-11
4.2700827e-11
3.1765152e-11
2.3891738e-11
1.8143289e-11
1.3892914e-11
1.0714374e-11
8.3132872e-12
6.4835478e-12
5.0789566e-12
3.9946669e-12
3.1547563e-12
2.5038226e-12
2.0012975e-12
1.6174376e-12
1.3308686e-12
1.1251511e-12
1.0004825e-12
9.2352595e-13
6.0301465e-10
6.26614e-10
7.0140029e-10
7.9884246e-10
1.0079794e-09
1.3685401e-09
1.3749348e-09
1.4487408e-09
1.6169321e-09
1.7185405e-09
1.8412586e-09
2.1155436e-09
2.2562628e-09
2.4406731e-09
2.6932428e-09
2.8565985e-09
3.2541983e-09
3.9143127e-09
4.308351e-09
4.7268691e-09
5.215543e-09
6.3482496e-09
7.1020081e-09
7.8469084e-09
9.462605e-09
1.0805196e-08
1.1381997e-08
1.2227729e-08
1.4126195e-08
1.8218847e-08
2.0981555e-08
2.2290492e-08
2.2887642e-08
2.398124e-08
2.687058e-08
3.5580731e-08
5.667553e-08
9.8369608e-08
1.7622908e-07
3.0257101e-07
3.8237498e-07
4.2517026e-07
3.897925e-07
1.8446474e-07
5.9657206e-08
1.7445067e-08
6.1224666e-09
2.9749051e-09
1.6947812e-09
1.0276373e-09
6.4836686e-10
4.2236883e-10
2.8275082e-10
1.9382008e-10
1.356439e-10
9.6675635e-11
7.0016773e-11
5.1429708e-11
3.8247408e-11
2.8752798e-11
2.1818291e-11
1.6689341e-11
1.2852685e-11
9.9536944e-12
7.7439934e-12
6.0473441e-12
4.7373184e-12
3.7223446e-12
2.9355818e-12
2.3280774e-12
1.8639308e-12
1.5173429e-12
1.2684602e-12
1.1177116e-12
1.0216619e-12
6.3486095e-10
6.8678417e-10
8.3013203e-10
9.0227171e-10
1.1088611e-09
1.4908412e-09
1.7540519e-09
2.0409697e-09
2.2883974e-09
2.41172e-09
2.674184e-09
3.1778969e-09
3.4833887e-09
3.7355327e-09
3.958448e-09
4.4464296e-09
5.2675283e-09
6.530097e-09
7.4892057e-09
7.9887718e-09
8.7333955e-09
1.0488473e-08
1.2811136e-08
1.3988946e-08
1.611799e-08
1.8297203e-08
1.9516958e-08
2.1441811e-08
2.612109e-08
3.4523641e-08
3.9040419e-08
4.0878092e-08
4.1146726e-08
4.1850353e-08
4.4899503e-08
5.5177346e-08
8.2254114e-08
1.3663021e-07
2.3049782e-07
4.0444294e-07
6.1293216e-07
7.1123223e-07
5.3503738e-07
2.0634914e-07
6.4134683e-08
1.8864871e-08
6.92587e-09
3.4605618e-09
1.9870358e-09
1.2088747e-09
7.6451904e-10
4.9902846e-10
3.3466537e-10
2.2977897e-10
1.6104831e-10
1.1493686e-10
8.3343399e-11
6.1283811e-11
4.5616751e-11
3.4317043e-11
2.6053084e-11
1.993273e-11
1.5348428e-11
1.1879943e-11
9.2326486e-12
7.1972876e-12
5.623605e-12
4.4026868e-12
3.4549732e-12
2.7221702e-12
2.1615163e-12
1.7423094e-12
1.4409019e-12
1.258517e-12
1.1378015e-12
6.6244157e-10
7.7605742e-10
9.3851195e-10
1.0137253e-09
1.1944253e-09
1.5362677e-09
1.7286217e-09
2.0140895e-09
2.7237484e-09
3.0792694e-09
3.5692842e-09
4.2663836e-09
4.7175273e-09
5.1166937e-09
5.6484337e-09
6.5529542e-09
8.6332468e-09
1.100726e-08
1.199696e-08
1.3257593e-08
1.4586051e-08
1.8047537e-08
2.376962e-08
2.5864276e-08
2.844095e-08
3.1314191e-08
3.4268307e-08
3.9365925e-08
5.2029601e-08
6.7840579e-08
7.4893658e-08
7.671308e-08
7.5549755e-08
7.5471024e-08
7.8251183e-08
8.9600802e-08
1.2465126e-07
1.9731047e-07
3.1120291e-07
4.9151769e-07
7.6045247e-07
8.2485088e-07
5.3324649e-07
1.9905527e-07
6.1913593e-08
1.9090608e-08
7.5344063e-09
3.8914618e-09
2.2530373e-09
1.3754493e-09
8.7200714e-10
5.703778e-10
3.8323048e-10
2.6357415e-10
1.8502625e-10
1.3224114e-10
9.6018426e-11
7.0688615e-11
5.2673014e-11
3.9661248e-11
3.0132163e-11
2.3065344e-11
1.7765055e-11
1.3749521e-11
1.0680618e-11
8.31795e-12
6.4887412e-12
5.0676532e-12
3.9630582e-12
3.1077902e-12
2.452567e-12
1.9620334e-12
1.6089466e-12
1.3955552e-12
1.2479938e-12
6.8413764e-10
7.2947219e-10
8.1574134e-10
1.0001376e-09
1.2837939e-09
1.8009207e-09
2.6764266e-09
3.6618557e-09
3.882218e-09
4.1461871e-09
4.6986868e-09
6.4218355e-09
7.7131045e-09
8.3157715e-09
9.1200688e-09
1.0958162e-08
1.5228602e-08
1.9797492e-08
2.1371612e-08
2.3047225e-08
2.6090107e-08
3.3242665e-08
4.4885336e-08
4.9625858e-08
5.3499876e-08
5.7769303e-08
6.4920428e-08
7.8350523e-08
1.0822476e-07
1.3239366e-07
1.4371633e-07
1.4618623e-07
1.4221833e-07
1.4077049e-07
1.4433136e-07
1.5451339e-07
1.8761842e-07
2.7937853e-07
4.3687185e-07
6.0989787e-07
7.7386136e-07
7.8189623e-07
4.5419736e-07
1.6846757e-07
5.4556476e-08
1.8450314e-08
8.0070496e-09
4.2727821e-09
2.4934086e-09
1.5275757e-09
9.7094798e-10
6.3648694e-10
4.2848913e-10
2.9523206e-10
2.0759393e-10
1.4859832e-10
1.0804782e-10
7.9647743e-11
5.9418457e-11
4.4786927e-11
3.4056686e-11
2.6088226e-11
2.0103642e-11
1.5563631e-11
1.2089274e-11
9.410902e-12
7.3345043e-12
5.7192268e-12
4.4620183e-12
3.4873062e-12
2.739624e-12
2.1792156e-12
1.775412e-12
1.5317834e-12
1.3548219e-12
7.0742255e-10
8.5043931e-10
1.1250735e-09
1.7238432e-09
1.9329384e-09
2.2655063e-09
3.3653334e-09
4.5421064e-09
5.1507977e-09
6.185853e-09
7.6584727e-09
1.0588978e-08
1.2616567e-08
1.3830201e-08
1.5489024e-08
1.9201014e-08
2.8025723e-08
3.5790866e-08
3.9458688e-08
4.2811506e-08
4.9115796e-08
6.6236684e-08
8.6818047e-08
9.8502363e-08
1.043034e-07
1.1182528e-07
1.265144e-07
1.6021689e-07
2.1568625e-07
2.4954308e-07
2.641301e-07
2.6848679e-07
2.6213175e-07
2.6102744e-07
2.6940663e-07
2.8318554e-07
3.0709004e-07
3.7615616e-07
6.0414799e-07
7.9738867e-07
8.7489092e-07
7.6611682e-07
3.8257249e-07
1.4498797e-07
4.9240736e-08
1.8192126e-08
8.4567839e-09
4.6129892e-09
2.7097431e-09
1.665963e-09
1.0617322e-09
6.9758682e-10
4.7058376e-10
3.2484331e-10
2.2881043e-10
1.6404781e-10
1.1945837e-10
8.8179774e-11
6.5866221e-11
4.970358e-11
3.7833694e-11
2.9006743e-11
2.2368416e-11
1.7325721e-11
1.3461546e-11
1.0478727e-11
8.1632588e-12
6.3596418e-12
4.954021e-12
3.8628624e-12
3.0248394e-12
2.3960272e-12
1.9425028e-12
1.6694586e-12
1.4602028e-12
7.3332746e-10
9.7740323e-10
2.1371911e-09
2.8609609e-09
3.2162433e-09
3.7641881e-09
4.9554376e-09
7.6151768e-09
8.6081519e-09
9.2261931e-09
1.0570113e-08
1.4687126e-08
2.039132e-08
2.3288086e-08
2.7103655e-08
3.4949478e-08
5.3579545e-08
6.8220445e-08
7.3962664e-08
8.1629835e-08
9.5434675e-08
1.317729e-07
1.689119e-07
1.8446839e-07
1.975881e-07
2.091523e-07
2.3386936e-07
3.087163e-07
3.9284742e-07
4.3309946e-07
4.5306892e-07
4.6030095e-07
4.5394023e-07
4.5719484e-07
4.8784012e-07
5.0458946e-07
5.138923e-07
5.4947848e-07
6.752556e-07
1.0724503e-06
1.1606663e-06
8.1305216e-07
3.6185683e-07
1.3392913e-07
4.6618123e-08
1.8277692e-08
8.8727982e-09
4.9141804e-09
2.9035344e-09
1.791379e-09
1.1447784e-09
7.539195e-10
5.0966002e-10
3.5249811e-10
2.487329e-10
1.7862647e-10
1.3027428e-10
9.6300834e-11
7.202723e-11
5.4418742e-11
4.1468501e-11
3.1824756e-11
2.4562294e-11
1.9038103e-11
1.4799364e-11
1.1523131e-11
8.9765902e-12
6.9904341e-12
5.4406001e-12
4.2360224e-12
3.309826e-12
2.6141509e-12
2.1119902e-12
1.8103908e-12
1.5656142e-12
7.7551445e-10
1.8209012e-09
2.9536383e-09
3.4517858e-09
3.8597027e-09
4.9699028e-09
7.0550981e-09
1.1088657e-08
1.3761578e-08
1.4936738e-08
1.7469455e-08
2.4072642e-08
3.6162301e-08
4.2158985e-08
4.9929179e-08
6.8413809e-08
1.0860655e-07
1.3160516e-07
1.4169333e-07
1.5636746e-07
1.8538424e-07
2.59066e-07
3.1499499e-07
3.3505137e-07
3.5407369e-07
3.697173e-07
4.0610513e-07
5.2995776e-07
6.5472336e-07
6.951662e-07
7.2102032e-07
7.4191153e-07
7.3752275e-07
7.4954359e-07
8.1333244e-07
8.2907372e-07
7.9671351e-07
7.8286836e-07
8.5558209e-07
1.1124142e-06
1.1336588e-06
7.1832985e-07
3.168813e-07
1.2017749e-07
4.383059e-08
1.830888e-08
9.2282714e-09
5.1781618e-09
3.0763247e-09
1.9046299e-09
1.2205323e-09
8.0574571e-10
5.4587659e-10
3.7829586e-10
2.6742506e-10
1.9237595e-10
1.405232e-10
1.0402958e-10
7.7914246e-11
5.8941277e-11
4.496737e-11
3.4546787e-11
2.6688624e-11
2.0703344e-11
1.6104783e-11
1.254584e-11
9.7760215e-12
7.6130135e-12
5.9231137e-12
4.6081352e-12
3.5959552e-12
2.8349762e-12
2.2852948e-12
1.9561102e-12
1.6722717e-12
1.056346e-09
2.3948448e-09
3.0721042e-09
4.0650277e-09
4.7475359e-09
7.2109651e-09
1.0140104e-08
1.4961599e-08
2.0457469e-08
2.3505104e-08
2.9055187e-08
4.177005e-08
6.6978296e-08
7.9508259e-08
9.65706e-08
1.3975253e-07
2.147447e-07
2.4765377e-07
2.6592288e-07
2.945262e-07
3.5181912e-07
4.8526852e-07
5.5823073e-07
5.7957174e-07
6.0400327e-07
6.2759843e-07
6.7261297e-07
8.3422244e-07
1.0270332e-06
1.0696842e-06
1.1061039e-06
1.1846742e-06
1.186187e-06
1.2064544e-06
1.3101066e-06
1.3345226e-06
1.2442926e-06
1.0745494e-06
1.0316639e-06
1.2861806e-06
1.340746e-06
7.2431888e-07
2.9869596e-07
1.1190749e-07
4.1939272e-08
1.838368e-08
9.5349516e-09
5.4085091e-09
3.2296621e-09
2.0064968e-09
1.2894248e-09
8.5331741e-10
5.7938667e-10
4.0233251e-10
2.8494843e-10
2.053365e-10
1.5023194e-10
1.1138413e-10
8.3539704e-11
6.3279845e-11
4.833643e-11
3.717725e-11
2.8750666e-11
2.2323923e-11
1.7379759e-11
1.3548465e-11
1.0562948e-11
8.2286456e-12
6.4027608e-12
4.9803773e-12
3.8844036e-12
3.0597332e-12
2.4636768e-12
2.1078896e-12
1.7811698e-12
7.800837e-10
1.4124704e-09
3.901489e-09
5.3070249e-09
6.418746e-09
8.6634421e-09
1.2191683e-08
1.8634585e-08
2.9004296e-08
3.9068025e-08
5.3499244e-08
7.924007e-08
1.2996516e-07
1.5559498e-07
1.9174723e-07
2.8239264e-07
4.014601e-07
4.5084514e-07
4.8603335e-07
5.404999e-07
6.4089932e-07
8.6275453e-07
9.5185614e-07
9.6792212e-07
9.9320879e-07
1.0240192e-06
1.0730005e-06
1.3070362e-06
1.6474472e-06
1.6993563e-06
1.7699352e-06
2.0098695e-06
2.0281442e-06
2.0297696e-06
2.189552e-06
2.220806e-06
2.0213586e-06
1.5965462e-06
1.2733994e-06
1.2614789e-06
1.3690148e-06
8.4926988e-07
3.1190391e-07
1.0921767e-07
4.0949728e-08
1.8512854e-08
9.7999166e-09
5.6083338e-09
3.364998e-09
2.0977212e-09
1.3518656e-09
8.9687332e-10
6.1033474e-10
4.2469804e-10
3.0136038e-10
2.1754541e-10
1.5942514e-10
1.1838101e-10
8.8914846e-11
6.7442194e-11
5.1581099e-11
3.9720006e-11
3.0751232e-11
2.390195e-11
1.8625937e-11
1.4532351e-11
1.1338528e-11
8.8383828e-12
6.8805439e-12
5.3537399e-12
4.1761895e-12
3.2894549e-12
2.6482809e-12
2.2668936e-12
1.8931716e-12
7.3646098e-10
1.4101871e-09
3.8612315e-09
6.5416372e-09
8.8198151e-09
1.2507328e-08
1.9163944e-08
3.3486224e-08
5.8182243e-08
8.3937263e-08
1.1559868e-07
1.6505121e-07
2.6004822e-07
3.1128466e-07
3.8047309e-07
5.3386158e-07
7.2158134e-07
8.0306155e-07
8.771412e-07
9.705142e-07
1.1160748e-06
1.4770491e-06
1.5960272e-06
1.5816046e-06
1.6050114e-06
1.6359558e-06
1.6939902e-06
2.4013343e-06
2.9075911e-06
2.9037392e-06
3.0177401e-06
3.516841e-06
3.8502891e-06
3.6414992e-06
3.8734572e-06
3.9426466e-06
3.3942398e-06
2.4421676e-06
1.7587748e-06
1.4122131e-06
1.3194023e-06
8.3446313e-07
3.2339519e-07
1.1167766e-07
4.1114244e-08
1.8720109e-08
1.0028677e-08
5.7803888e-09
3.4836839e-09
2.1790035e-09
1.4082432e-09
9.3663967e-10
6.3885734e-10
4.4547715e-10
3.1671465e-10
2.2903741e-10
1.6812562e-10
1.2503545e-10
9.404995e-11
7.1435351e-11
5.4706249e-11
4.2178485e-11
3.269279e-11
2.5439254e-11
1.9844727e-11
1.5498641e-11
1.2103741e-11
9.4431155e-12
7.3573145e-12
5.7290712e-12
4.4721715e-12
3.5250428e-12
2.8400416e-12
2.4341797e-12
2.0090161e-12
7.0349503e-10
1.0686823e-09
3.4282121e-09
8.6309304e-09
1.6519651e-08
2.8659036e-08
4.4693586e-08
7.6630629e-08
1.3034341e-07
1.8416326e-07
2.5019822e-07
3.455668e-07
5.1476332e-07
6.078255e-07
7.3010444e-07
9.4541874e-07
1.2655734e-06
1.4540063e-06
1.5530885e-06
1.7208245e-06
1.9065689e-06
2.5626653e-06
2.7220592e-06
2.5903942e-06
2.5859001e-06
2.6313788e-06
2.7253931e-06
4.2481233e-06
4.4784801e-06
3.9991049e-06
3.8294799e-06
4.2387593e-06
4.5798907e-06
5.9004715e-06
6.1546565e-06
6.0984997e-06
4.8587368e-06
3.3869687e-06
2.3280098e-06
1.6905466e-06
1.4078887e-06
8.6298516e-07
3.6501495e-07
1.1866378e-07
4.1679587e-08
1.8881504e-08
1.0215782e-08
5.9261727e-09
3.5869488e-09
2.2510018e-09
1.4589245e-09
9.7283049e-10
6.6508343e-10
4.6474963e-10
3.3106168e-10
2.3984499e-10
1.7635465e-10
1.3136153e-10
9.895447e-11
7.5265734e-11
5.771629e-11
4.4555765e-11
3.4577531e-11
2.6937439e-11
2.1037352e-11
1.6448315e-11
1.2859424e-11
1.0043603e-11
7.8338019e-12
6.1071033e-12
4.7731019e-12
3.7672704e-12
3.0397379e-12
2.6106607e-12
2.1293842e-12
6.6350915e-10
2.0120953e-09
6.3628877e-09
1.7723122e-08
3.7855202e-08
6.6188973e-08
9.9940152e-08
1.6634729e-07
2.6751225e-07
3.6691939e-07
5.1173321e-07
6.9486128e-07
9.5785922e-07
1.1149021e-06
1.3298125e-06
1.6500831e-06
2.2526638e-06
2.6619238e-06
2.6926412e-06
3.0368121e-06
3.3244474e-06
4.9403541e-06
4.8313624e-06
4.1535172e-06
4.2881817e-06
3.9091512e-06
3.55444e-06
3.6027601e-06
3.9781811e-06
3.9174603e-06
3.8579818e-06
4.0677532e-06
4.3265297e-06
6.2862551e-06
6.6874648e-06
6.4039146e-06
5.1378422e-06
4.1043456e-06
3.3160688e-06
2.4245537e-06
2.0341275e-06
1.1407462e-06
3.9514066e-07
1.205274e-07
4.1131155e-08
1.888294e-08
1.0360857e-08
6.0494204e-09
3.6758195e-09
2.3143293e-09
1.5042553e-09
1.0056479e-09
6.8913476e-10
4.8259062e-10
3.4444883e-10
2.4999855e-10
1.8413202e-10
1.3737233e-10
1.0363713e-10
7.8939225e-11
6.0615233e-11
4.6854616e-11
3.6407404e-11
2.8397917e-11
2.2204875e-11
1.7382219e-11
1.3606294e-11
1.0640495e-11
8.3106326e-12
6.4884653e-12
5.0796546e-12
4.0168941e-12
3.2480972e-12
2.7970878e-12
2.2548786e-12
5.9849247e-10
5.0488868e-09
1.5544955e-08
3.8883476e-08
7.9474906e-08
1.3572406e-07
2.0531513e-07
3.4008032e-07
5.1100774e-07
6.9410082e-07
1.0215062e-06
1.3122342e-06
1.6672391e-06
1.9793173e-06
2.3232762e-06
3.0041325e-06
4.2409241e-06
4.8943058e-06
4.420707e-06
5.9735427e-06
6.207093e-06
7.9976666e-06
6.6030053e-06
5.1999445e-06
4.907638e-06
4.0195816e-06
3.6982687e-06
3.4642719e-06
3.8215561e-06
3.8869118e-06
3.9993708e-06
4.6439155e-06
4.7853241e-06
4.9166963e-06
5.1386626e-06
5.1925698e-06
4.7429941e-06
5.3073226e-06
5.3495084e-06
4.4308202e-06
2.7646941e-06
1.1544857e-06
3.7935875e-07
1.1368286e-07
3.9441711e-08
1.879954e-08
1.0476227e-08
6.1521681e-09
3.7515531e-09
2.3695189e-09
1.5445602e-09
1.0352823e-09
7.1112603e-10
4.9907083e-10
3.5692058e-10
2.5952653e-10
1.9147619e-10
1.4307996e-10
1.0810598e-10
8.2461221e-11
6.3406729e-11
4.9077538e-11
3.8184152e-11
2.9821932e-11
2.3348221e-11
1.8301079e-11
1.4344961e-11
1.1234347e-11
8.7883436e-12
6.873713e-12
5.3923633e-12
4.2744744e-12
3.4658653e-12
2.9941526e-12
2.3859966e-12
7.8794379e-10
1.2625275e-08
3.6106799e-08
8.703933e-08
1.6816906e-07
2.7636467e-07
4.0330124e-07
6.7225456e-07
9.4220626e-07
1.2678556e-06
1.9604065e-06
2.3142017e-06
2.8512471e-06
3.4318212e-06
4.2703269e-06
6.031312e-06
8.4346873e-06
8.2722884e-06
6.6282093e-06
1.0505911e-05
1.0230317e-05
6.3463839e-06
4.9833135e-06
4.9747588e-06
3.9038086e-06
3.5707684e-06
3.7767817e-06
3.777076e-06
4.1534347e-06
4.2337214e-06
4.3388692e-06
4.501796e-06
4.8639587e-06
5.5761208e-06
5.9133047e-06
5.7416777e-06
5.2247952e-06
5.1160471e-06
4.3429893e-06
3.7991926e-06
2.4715506e-06
1.0044759e-06
3.2430927e-07
1.0071431e-07
3.7557851e-08
1.8742123e-08
1.0572648e-08
6.2357171e-09
3.8158171e-09
2.4170598e-09
1.5801376e-09
1.0619131e-09
7.3116535e-10
5.1425683e-10
3.6851869e-10
2.6845559e-10
1.9840441e-10
1.4849572e-10
1.1236847e-10
8.5836692e-11
6.6094118e-11
5.1226799e-11
3.9909334e-11
3.1210584e-11
2.4468197e-11
1.9205521e-11
1.507595e-11
1.1825631e-11
9.2673942e-12
7.263295e-12
5.7117652e-12
4.5404609e-12
3.6934934e-12
3.2025257e-12
2.523192e-12
2.1551452e-09
3.0299689e-08
7.899696e-08
1.7848606e-07
3.3170581e-07
5.3854182e-07
7.4931989e-07
1.278378e-06
1.6894101e-06
2.2707811e-06
3.610511e-06
4.0358599e-06
4.969622e-06
6.400964e-06
8.7798889e-06
1.2168041e-05
1.2240662e-05
8.4786588e-06
8.5161495e-06
8.9223475e-06
8.3013733e-06
4.343627e-06
4.1261205e-06
3.9190385e-06
3.7786732e-06
3.7098708e-06
3.6566374e-06
3.9370986e-06
4.3067852e-06
4.5064885e-06
5.4711254e-06
5.5597899e-06
5.8521388e-06
6.8591842e-06
6.52619e-06
5.8433973e-06
5.213195e-06
5.1844951e-06
4.6376687e-06
3.1777667e-06
1.8519248e-06
7.5502065e-07
2.6284774e-07
9.0789878e-08
3.6886832e-08
1.8906825e-08
1.0672905e-08
6.3037081e-09
3.8681993e-09
2.4579605e-09
1.6112011e-09
1.0857077e-09
7.4935454e-10
5.2821127e-10
3.7928244e-10
2.7681071e-10
2.049328e-10
1.5363012e-10
1.1643153e-10
8.9070214e-11
6.8680451e-11
5.3304446e-11
4.1584347e-11
3.2564845e-11
2.5565503e-11
2.0096081e-11
1.5799701e-11
1.2414745e-11
9.7481719e-12
7.6576383e-12
6.0382789e-12
4.8155124e-12
3.9314968e-12
3.4227047e-12
2.6668602e-12
3.9288063e-09
6.8887534e-08
1.6659189e-07
3.4672826e-07
6.09333e-07
9.6781185e-07
1.3145021e-06
2.3742505e-06
2.961518e-06
4.0605298e-06
6.7736854e-06
7.1217124e-06
9.4503537e-06
1.2037882e-05
1.5140334e-05
1.3278194e-05
7.2411e-06
3.5283572e-06
6.6263657e-06
4.7929819e-06
3.2328967e-06
2.9619571e-06
3.7247438e-06
4.7290742e-06
4.2251003e-06
3.6778302e-06
3.6151563e-06
3.8797989e-06
5.5972596e-06
5.4141134e-06
6.444063e-06
5.95654e-06
6.2616927e-06
6.416677e-06
6.6882987e-06
6.1057845e-06
5.2550461e-06
5.1290313e-06
4.7543655e-06
3.0237033e-06
1.5142644e-06
6.2482791e-07
2.4771077e-07
9.2579351e-08
3.8500409e-08
1.941321e-08
1.0793768e-08
6.3584933e-09
3.9101822e-09
2.4919316e-09
1.638304e-09
1.1067971e-09
7.6578921e-10
5.4099316e-10
3.8924875e-10
2.8461536e-10
2.1107645e-10
1.5849297e-10
1.2030158e-10
9.216602e-11
7.116853e-11
5.5312347e-11
4.3210442e-11
3.3885572e-11
2.6640746e-11
2.0973214e-11
1.6516586e-11
1.3002021e-11
1.0231001e-11
8.0570581e-12
6.3722342e-12
5.0999322e-12
4.1804436e-12
3.6551982e-12
2.8173522e-12
1.5378072e-08
1.4858587e-07
3.326472e-07
6.3561501e-07
1.0526655e-06
1.6506363e-06
2.2235413e-06
4.393547e-06
5.0815717e-06
7.6938749e-06
1.1183064e-05
1.1095129e-05
1.2378051e-05
1.3325623e-05
1.4832558e-05
5.4096653e-06
3.468835e-06
3.0014605e-06
3.3069871e-06
2.8265743e-06
3.0317091e-06
3.2196396e-06
3.4510579e-06
5.0189963e-06
4.6173121e-06
3.9522178e-06
3.5378049e-06
4.7484354e-06
6.5353145e-06
5.828726e-06
6.480331e-06
6.2113903e-06
5.8656596e-06
6.1623801e-06
6.1627301e-06
6.8384964e-06
5.9329758e-06
5.5246466e-06
5.2669652e-06
3.3034229e-06
1.4924581e-06
6.10039e-07
2.6252239e-07
1.0687708e-07
4.4149715e-08
2.0664025e-08
1.0987875e-08
6.4037647e-09
3.9425747e-09
2.519716e-09
1.6613826e-09
1.1254093e-09
7.8055389e-10
5.5265805e-10
3.9845237e-10
2.9189157e-10
2.1684951e-10
1.6309342e-10
1.2398458e-10
9.5128026e-11
7.3560927e-11
5.7252198e-11
4.4788747e-11
3.517352e-11
2.7694451e-11
2.1837303e-11
1.7226911e-11
1.358773e-11
1.0716145e-11
8.4618414e-12
6.7139738e-12
5.3939965e-12
4.4406053e-12
3.9004388e-12
2.9749671e-12
4.3578942e-08
3.0397249e-07
6.2446455e-07
1.1044773e-06
1.7551613e-06
2.7835971e-06
3.7324988e-06
8.2871811e-06
8.9144344e-06
1.093177e-05
1.0728089e-05
1.097112e-05
9.2227392e-06
8.405762e-06
6.3533635e-06
2.8101677e-06
3.2182367e-06
3.4946139e-06
2.9937862e-06
4.5208199e-06
3.6185398e-06
3.7501692e-06
3.8954449e-06
4.6942289e-06
4.7338772e-06
4.4548668e-06
4.2954693e-06
4.7561608e-06
6.0683793e-06
5.6286101e-06
5.5399187e-06
5.9730574e-06
6.2138308e-06
8.8058226e-06
8.2698112e-06
1.291755e-05
9.2509563e-06
6.6223974e-06
6.2503321e-06
3.4296219e-06
1.5883516e-06
7.3592335e-07
3.643623e-07
1.5409541e-07
5.8846574e-08
2.3659366e-08
1.13326e-08
6.4454625e-09
3.9661491e-09
2.5417334e-09
1.6807505e-09
1.1416533e-09
7.9373321e-10
5.6325827e-10
4.0692609e-10
2.9866012e-10
2.2226529e-10
1.6744008e-10
1.2748614e-10
9.7959871e-11
7.5860019e-11
5.9125547e-11
4.6320274e-11
3.6429359e-11
2.8727069e-11
2.2688669e-11
1.7930923e-11
1.4172088e-11
1.1203815e-11
8.8722055e-12
7.0637234e-12
5.6980745e-12
4.712273e-12
4.1587535e-12
3.1399593e-12
1.0805068e-07
5.8972202e-07
1.1017616e-06
1.8454125e-06
2.8991799e-06
4.7973727e-06
6.5016358e-06
1.2268344e-05
1.2074145e-05
8.8818673e-06
4.8713766e-06
6.623277e-06
6.9008186e-06
5.9973267e-06
8.2096734e-06
3.8268215e-06
4.2095553e-06
3.4945821e-06
2.8482875e-06
3.6366199e-06
4.003581e-06
4.080342e-06
4.3357388e-06
5.8098831e-06
5.4816307e-06
5.3111127e-06
4.6305988e-06
5.0684257e-06
5.0084598e-06
5.0420044e-06
5.4627982e-06
7.160478e-06
6.7275877e-06
1.1059825e-05
1.0340309e-05
1.0938559e-05
1.3089888e-05
9.0111483e-06
9.9621339e-06
5.344278e-06
2.0753287e-06
1.0933498e-06
6.2020025e-07
2.5790847e-07
8.8412434e-08
2.9476135e-08
1.1950387e-08
6.4859642e-09
3.981319e-09
2.5583285e-09
1.6966699e-09
1.1555993e-09
8.0545865e-10
5.7283264e-10
4.1470079e-10
3.0494059e-10
2.273363e-10
1.7154101e-10
1.3081146e-10
1.0066494e-10
7.8067999e-11
6.0933814e-11
4.7805934e-11
3.7653675e-11
2.9738983e-11
2.3527573e-11
1.8628816e-11
1.4755258e-11
1.169417e-11
9.2883159e-12
7.4216369e-12
6.012345e-12
4.9957026e-12
4.4304045e-12
3.3125384e-12
2.4559776e-07
1.0871695e-06
1.8338099e-06
3.0168868e-06
4.882338e-06
8.7796414e-06
9.8790823e-06
1.001932e-05
9.8387207e-06
5.107234e-06
3.3049132e-06
6.0098664e-06
5.3679422e-06
4.4570329e-06
6.0240523e-06
3.5695838e-06
4.3509083e-06
3.1898788e-06
2.8636259e-06
2.9252403e-06
3.7599405e-06
3.6474214e-06
4.3514282e-06
4.755152e-06
5.6360974e-06
5.4602677e-06
4.8456808e-06
4.8754452e-06
5.0117335e-06
5.5240281e-06
5.6297775e-06
1.0764568e-05
9.1920129e-06
9.0077645e-06
1.0009253e-05
9.7648643e-06
2.6090145e-05
1.434261e-05
1.0328008e-05
7.9721975e-06
3.9847452e-06
3.2014078e-06
1.7409564e-06
5.780738e-07
1.6174276e-07
4.2384983e-08
1.3187519e-08
6.5336958e-09
3.9885455e-09
2.5698337e-09
1.7093434e-09
1.1674246e-09
8.1572917e-10
5.814615e-10
4.2180371e-10
3.1075151e-10
2.3207439e-10
1.7540384e-10
1.3396547e-10
1.0324642e-10
8.0186908e-11
6.26783e-11
4.9246554e-11
3.8846987e-11
3.0730518e-11
2.4354225e-11
1.9320737e-11
1.5337357e-11
1.2187318e-11
9.7103113e-12
7.7879449e-12
6.3369714e-12
5.291108e-12
4.7156041e-12
3.492876e-12
5.2092871e-07
1.8841817e-06
2.9066834e-06
4.9808977e-06
8.6980878e-06
1.0584854e-05
1.0171189e-05
5.3719393e-06
5.8108899e-06
2.3202922e-06
2.8948411e-06
4.5624112e-06
3.7834209e-06
3.4535359e-06
2.1178946e-06
2.041882e-06
1.8934264e-06
2.1008258e-06
2.7352694e-06
4.6477057e-06
4.6382381e-06
3.8157865e-06
3.4210796e-06
3.9277332e-06
5.1817528e-06
5.9466728e-06
5.165067e-06
4.8992484e-06
5.1338791e-06
6.4304929e-06
6.5204247e-06
1.2013767e-05
1.0400924e-05
9.5534624e-06
1.2338183e-05
1.2163322e-05
1.9684876e-05
2.3344813e-05
1.4229345e-05
1.1294875e-05
9.5117092e-06
6.9187352e-06
3.8059576e-06
1.1621275e-06
2.8017236e-07
5.8429593e-08
1.438623e-08
6.552707e-09
3.9872708e-09
2.576551e-09
1.7189673e-09
1.177245e-09
8.2465065e-10
5.8916054e-10
4.2826369e-10
3.161104e-10
2.3649075e-10
1.7903574e-10
1.369528e-10
1.0570726e-10
8.2218646e-11
6.4360207e-11
5.0642881e-11
4.0009752e-11
3.1701948e-11
2.5168787e-11
2.0006786e-11
1.5918458e-11
1.2683334e-11
1.0138216e-11
8.1626644e-12
6.6719866e-12
5.5986025e-12
5.0144761e-12
3.6811552e-12
1.0419484e-06
3.0229154e-06
4.5409597e-06
8.3748834e-06
1.0286426e-05
7.7997589e-06
7.1233166e-06
2.680555e-06
2.4174918e-06
1.4057331e-06
2.64191e-06
3.2350723e-06
2.9372282e-06
4.2843466e-06
1.8555346e-06
1.4917558e-06
1.5877841e-06
1.9639697e-06
2.5190551e-06
5.416109e-06
4.2710922e-06
3.3996418e-06
3.2593367e-06
3.938496e-06
3.5527539e-06
4.1331327e-06
4.8639499e-06
5.096881e-06
5.5247927e-06
6.5227918e-06
7.198854e-06
7.5809696e-06
8.7008192e-06
9.6006204e-06
1.2918541e-05
1.385765e-05
1.5171917e-05
2.8189611e-05
1.5707434e-05
1.1264365e-05
9.8368978e-06
7.0937241e-06
3.9230157e-06
1.3755776e-06
3.1977907e-07
6.2383379e-08
1.4516001e-08
6.5158937e-09
3.9776105e-09
2.5787899e-09
1.7257293e-09
1.185173e-09
8.3229323e-10
5.9597184e-10
4.3411975e-10
3.210308e-10
2.4059603e-10
1.8244354e-10
1.3977782e-10
1.0805029e-10
8.4164995e-11
6.598065e-11
5.1995596e-11
4.1142369e-11
3.26535e-11
2.5971381e-11
2.0687023e-11
1.6498593e-11
1.3182221e-11
1.0572111e-11
8.5458731e-12
7.0174812e-12
5.9181228e-12
5.3269251e-12
3.8776398e-12
1.9904753e-06
4.7138696e-06
7.3760938e-06
9.2570628e-06
7.296067e-06
5.084959e-06
4.8329559e-06
1.4476879e-06
1.3518571e-06
1.3695135e-06
2.3128295e-06
2.7789388e-06
4.1814889e-06
6.1450585e-06
2.2386927e-06
1.3754815e-06
1.4774917e-06
2.130496e-06
2.7869748e-06
3.0905982e-06
3.4397289e-06
3.6623821e-06
3.3643293e-06
3.4324029e-06
3.3940632e-06
3.4777065e-06
5.2432186e-06
5.7031055e-06
6.0684017e-06
6.0977648e-06
6.3104653e-06
6.6864563e-06
9.3501932e-06
1.3731404e-05
1.3691166e-05
1.2470027e-05
1.8127476e-05
1.8323634e-05
1.8670917e-05
1.2620994e-05
8.9633492e-06
6.5208753e-06
3.9009864e-06
1.4499629e-06
3.2339055e-07
6.1129859e-08
1.3992394e-08
6.4375225e-09
3.960423e-09
2.5768442e-09
1.7298e-09
1.1913109e-09
8.3871918e-10
6.0194217e-10
4.393763e-10
3.2553754e-10
2.4439981e-10
1.8563367e-10
1.4244467e-10
1.1027814e-10
8.6027624e-11
6.7540663e-11
5.3305319e-11
4.2245195e-11
3.3585357e-11
2.6762087e-11
2.1361472e-11
1.7077754e-11
1.3683987e-11
1.1011998e-11
8.93766e-12
7.3737462e-12
6.2497899e-12
5.6527335e-12
4.0826921e-12
3.6927646e-06
7.473143e-06
9.2575267e-06
6.9581837e-06
4.7267345e-06
3.1770695e-06
3.0905203e-06
1.3862979e-06
9.792353e-07
1.4883483e-06
2.0058533e-06
2.6372181e-06
4.2742213e-06
5.2813383e-06
2.3898739e-06
1.3576877e-06
1.4702801e-06
2.6933821e-06
2.8599017e-06
2.7803243e-06
3.9692222e-06
3.7881444e-06
3.8049773e-06
3.5267697e-06
3.4446146e-06
3.4500905e-06
5.4681795e-06
6.3817561e-06
6.2146855e-06
6.6276878e-06
7.6149437e-06
6.3834724e-06
1.1736262e-05
1.1182593e-05
1.3394982e-05
1.2170444e-05
2.0844029e-05
2.6332558e-05
1.5447484e-05
1.2260229e-05
8.8178582e-06
6.8310409e-06
4.4505902e-06
1.4098321e-06
2.9293859e-07
5.297312e-08
1.2805547e-08
6.3307637e-09
3.9365103e-09
2.5710104e-09
1.7313832e-09
1.1957903e-09
8.4401081e-10
6.0712203e-10
4.4407358e-10
3.2964336e-10
2.4791375e-10
1.8861458e-10
1.4495875e-10
1.1239426e-10
8.7808719e-11
6.9041604e-11
5.4572871e-11
4.3318698e-11
3.4497763e-11
2.7541003e-11
2.203014e-11
1.7655898e-11
1.4188542e-11
1.1457732e-11
9.3377417e-12
7.7404565e-12
6.5937359e-12