/*--------------------------------*- C++ -*----------------------------------*\
| =========                 |                                                 |
| \\      /  F ield         | OpenFOAM: The Open Source CFD Toolbox           |
|  \\    /   O peration     | Version:  2.3.0                                 |
|   \\  /    A nd           | Web:      www.OpenFOAM.org                      |
|    \\/     M anipulation  |                                                 |
\*---------------------------------------------------------------------------*/
FoamFile
{
    version     2.0;
    format      ascii;
    class       surfaceScalarField;
    location    "4e-06";
    object      phi;
}
// * * * * * * * * * * * * * * * * * * * * * * * * * * * * * * * * * * * * * //

dimensions      [0 3 -1 0 0 0 0];

internalField   nonuniform List<scalar> 
14825
(
1.0338312e-09
-2.0069785e-11
1.0532538e-09
-1.942265e-11
1.0759224e-09
-2.2668593e-11
1.0974079e-09
-2.1485528e-11
1.1164274e-09
-1.9019427e-11
1.1327158e-09
-1.6288482e-11
1.154028e-09
-2.1312155e-11
1.1776215e-09
-2.3593474e-11
1.2004364e-09
-2.2814945e-11
1.2145274e-09
-1.4090981e-11
1.2364047e-09
-2.1877271e-11
1.2580144e-09
-2.1609726e-11
1.2749327e-09
-1.6918351e-11
1.2982346e-09
-2.3301818e-11
1.3130538e-09
-1.4819278e-11
1.3283755e-09
-1.5321684e-11
1.3525833e-09
-2.4207816e-11
1.3741889e-09
-2.1605567e-11
1.3877922e-09
-1.3603335e-11
1.4076278e-09
-1.9835528e-11
1.425274e-09
-1.7646241e-11
1.4439461e-09
-1.8672061e-11
1.4650667e-09
-2.1120638e-11
1.4803625e-09
-1.5295761e-11
1.5029178e-09
-2.25553e-11
1.5258123e-09
-2.2894541e-11
1.5391658e-09
-1.3353537e-11
1.5508222e-09
-1.1656361e-11
1.5740698e-09
-2.3247624e-11
1.6025429e-09
-2.8473095e-11
1.6308212e-09
-2.8278299e-11
1.6586325e-09
-2.781124e-11
1.67514e-09
-1.6507544e-11
1.6848626e-09
-9.7226418e-12
1.6862573e-09
-1.3946439e-12
1.6664359e-09
1.9821402e-11
1.6433904e-09
2.3045483e-11
1.653267e-09
-9.8765733e-12
1.6691683e-09
-1.5901306e-11
1.6293978e-09
3.9770493e-11
1.389752e-09
2.3964579e-10
1.1094508e-09
2.8030124e-10
8.1928681e-10
2.9016396e-10
6.0469195e-10
2.1459487e-10
4.4344784e-10
1.6124411e-10
3.3669761e-10
1.0675023e-10
2.6446982e-10
7.2227797e-11
2.1290105e-10
5.1568763e-11
1.7458471e-10
3.8316341e-11
1.4533416e-10
2.9250555e-11
1.2255949e-10
2.277467e-11
1.0454547e-10
1.8014022e-11
9.010486e-11
1.4440608e-11
7.8392114e-11
1.1712747e-11
6.8792376e-11
9.5997371e-12
6.0851303e-11
7.9410728e-12
5.4228305e-11
6.6229988e-12
4.8664932e-11
5.5633736e-12
4.3962732e-11
4.7021998e-12
3.9967794e-11
3.9949384e-12
3.6559562e-11
3.4082326e-12
3.364284e-11
2.9167222e-12
3.1141863e-11
2.5009766e-12
2.899596e-11
2.1459033e-12
2.7156268e-11
1.8396925e-12
2.5583292e-11
1.5729757e-12
2.4245034e-11
1.3382589e-12
2.3115567e-11
1.1294672e-12
2.2173958e-11
9.4160891e-13
2.1403423e-11
7.7053498e-13
2.0790706e-11
6.1271696e-13
2.0325601e-11
4.6510479e-13
2.000062e-11
3.2498108e-13
1.9810911e-11
1.8970912e-13
5.3874466e-14
2.8613395e-09
-7.9443375e-11
2.9176144e-09
-7.569753e-11
2.9845116e-09
-8.9565778e-11
3.0475913e-09
-8.4565223e-11
3.1033677e-09
-7.4795884e-11
3.1530797e-09
-6.6000426e-11
3.217382e-09
-8.5614519e-11
3.2860397e-09
-9.2251177e-11
3.3528415e-09
-8.9616747e-11
3.3947217e-09
-5.5971123e-11
3.4595518e-09
-8.6707401e-11
3.5258063e-09
-8.7864161e-11
3.5779091e-09
-6.902122e-11
3.6459801e-09
-9.1372816e-11
3.6896606e-09
-5.8499774e-11
3.7394311e-09
-6.5092149e-11
3.8130601e-09
-9.7836822e-11
3.8745058e-09
-8.30513e-11
3.9190792e-09
-5.8176724e-11
3.9789653e-09
-7.9721566e-11
4.0325616e-09
-7.1242614e-11
4.0897454e-09
-7.5855843e-11
4.1515152e-09
-8.2890463e-11
4.2000367e-09
-6.3817272e-11
4.2688311e-09
-9.1349623e-11
4.3376038e-09
-9.166731e-11
4.3768181e-09
-5.2567771e-11
4.4182585e-09
-5.3096842e-11
4.4884107e-09
-9.3399769e-11
4.5740597e-09
-1.141221e-10
4.6587206e-09
-1.1293925e-10
4.7486678e-09
-1.1775843e-10
4.8054258e-09
-7.3265476e-11
4.8290717e-09
-3.3368553e-11
4.8432818e-09
-1.5604744e-11
4.8275192e-09
3.558399e-11
4.7827722e-09
6.7792494e-11
4.7653714e-09
7.5242047e-12
4.7923847e-09
-4.2914577e-11
4.817429e-09
1.4726144e-11
4.6529977e-09
4.0407705e-10
3.9073861e-09
1.0259129e-09
2.5434165e-09
1.6541336e-09
1.7760021e-09
9.820093e-10
1.2853892e-09
6.5185697e-10
9.7544239e-10
4.1669707e-10
7.6721007e-10
2.8046012e-10
6.1845455e-10
2.0032428e-10
5.0779414e-10
1.4897676e-10
4.2323019e-10
1.138145e-10
3.5733113e-10
8.8673729e-11
3.0516669e-10
7.0178461e-11
2.6332003e-10
5.6287271e-11
2.2935546e-10
4.5677316e-11
2.0150061e-10
3.7454589e-11
1.7844499e-10
3.0996688e-11
1.5920573e-10
2.5862266e-11
1.4303662e-10
2.1732483e-11
1.2936447e-10
1.837435e-11
1.1774457e-10
1.5614835e-11
1.0782851e-10
1.3324294e-11
9.9341116e-11
1.140412e-11
9.2063367e-11
9.7787256e-12
8.5819899e-11
8.3893719e-12
8.0469523e-11
7.1900692e-12
7.5898189e-11
6.1443099e-12
7.2013579e-11
5.2228691e-12
6.8741014e-11
4.4020322e-12
6.6020334e-11
3.6622885e-12
6.3803474e-11
2.9873958e-12
6.2052678e-11
2.3635126e-12
6.0739136e-11
1.7786464e-12
5.984206e-11
1.2220572e-12
5.9348154e-11
6.8361556e-13
1.3979259e-13
4.3656138e-09
-1.7694762e-10
4.4511362e-09
-1.6121993e-10
4.5639984e-09
-2.0242804e-10
4.6720096e-09
-1.9257639e-10
4.7560566e-09
-1.5884288e-10
4.8442287e-09
-1.541726e-10
4.9547289e-09
-1.9611467e-10
5.0613255e-09
-1.9884783e-10
5.1656596e-09
-1.9395084e-10
5.2408838e-09
-1.3119533e-10
5.3466943e-09
-1.9251782e-10
5.4422119e-09
-1.8338181e-10
5.5372255e-09
-1.6403479e-10
5.6568214e-09
-2.1096871e-10
5.7287553e-09
-1.3043373e-10
5.8090786e-09
-1.4541541e-10
5.9238352e-09
-2.1259343e-10
6.0178475e-09
-1.7706355e-10
6.0922793e-09
-1.3260854e-10
6.1873565e-09
-1.7479876e-10
6.3020723e-09
-1.8595842e-10
6.4118488e-09
-1.8563234e-10
6.5089946e-09
-1.8003631e-10
6.588636e-09
-1.4345862e-10
6.7063869e-09
-2.0910055e-10
6.8172936e-09
-2.0257402e-10
6.86476e-09
-1.0003416e-10
6.946e-09
-1.3433686e-10
7.0783163e-09
-2.2571606e-10
7.2295984e-09
-2.6540418e-10
7.3773107e-09
-2.6065156e-10
7.5179521e-09
-2.5839979e-10
7.5989862e-09
-1.5429957e-10
7.6431649e-09
-7.7547241e-11
7.7018968e-09
-7.4336649e-11
7.7264513e-09
1.1029463e-11
7.6801104e-09
1.1413344e-10
7.6319743e-09
5.5660275e-11
7.5965361e-09
-7.4764358e-12
7.5245758e-09
8.6686519e-11
7.2407283e-09
6.8792457e-10
6.1185816e-09
2.1480595e-09
4.1673294e-09
3.6053858e-09
2.8608845e-09
2.2884542e-09
2.0535604e-09
1.459181e-09
1.5607356e-09
9.0952187e-10
1.2305109e-09
6.1068487e-10
9.9391995e-10
4.3691522e-10
8.1747219e-10
3.2542452e-10
6.8239331e-10
2.4889339e-10
5.769852e-10
1.9408184e-10
4.93451e-10
1.5371266e-10
4.2637167e-10
1.233666e-10
3.7187717e-10
1.0017181e-10
3.2714771e-10
8.2184055e-11
2.9009619e-10
6.8048206e-11
2.591559e-10
5.6802561e-11
2.3313651e-10
4.7751869e-11
2.1112307e-10
4.0387796e-11
1.924053e-10
3.4332598e-11
1.764265e-10
2.9303099e-11
1.6274682e-10
2.5083795e-11
1.5101615e-10
2.1509403e-11
1.4095412e-10
1.8451398e-11
1.323351e-10
1.5809093e-11
1.2497691e-10
1.3502499e-11
1.1873225e-10
1.1467526e-11
1.1348217e-10
9.6521187e-12
1.0913107e-10
8.0133872e-12
1.0560289e-10
6.5155753e-12
1.0283826e-10
5.128141e-12
1.0079234e-10
3.8245676e-12
9.9433387e-11
2.5810093e-12
9.87419e-11
1.3751025e-12
1.5335259e-13
5.5852135e-09
-3.0569044e-10
5.6975561e-09
-2.7356247e-10
5.8670908e-09
-3.7196278e-10
6.0132185e-09
-3.3870411e-10
6.1219726e-09
-2.6759692e-10
6.2540759e-09
-2.862759e-10
6.398674e-09
-3.4071276e-10
6.5490929e-09
-3.4926678e-10
6.6849362e-09
-3.2979411e-10
6.7921796e-09
-2.3843873e-10
6.9478414e-09
-3.4817959e-10
7.086238e-09
-3.2177844e-10
7.2116158e-09
-2.8941256e-10
7.3683601e-09
-3.6771308e-10
7.4686472e-09
-2.3072078e-10
7.5632037e-09
-2.3997192e-10
7.743685e-09
-3.9307478e-10
7.9293236e-09
-3.6270208e-10
8.0254929e-09
-2.2877792e-10
8.1019493e-09
-2.5125514e-10
8.2375663e-09
-3.2157541e-10
8.4541084e-09
-4.021744e-10
8.5972336e-09
-3.2316157e-10
8.6905215e-09
-2.3674644e-10
8.8656766e-09
-3.8425574e-10
9.0321803e-09
-3.6907772e-10
9.1378017e-09
-2.0565552e-10
9.2448511e-09
-2.4138625e-10
9.4203422e-09
-4.0120714e-10
9.6224535e-09
-4.675155e-10
9.8078635e-09
-4.4606158e-10
1.0008269e-08
-4.5880556e-10
1.0144348e-08
-2.9037846e-10
1.0201486e-08
-1.3468537e-10
1.0240778e-08
-1.1362817e-10
1.0257744e-08
-5.9369508e-12
1.0242176e-08
1.297018e-10
1.0237908e-08
5.9928536e-11
1.0201654e-08
2.8777308e-11
1.0036997e-08
2.5134366e-10
9.684375e-09
1.0405463e-09
8.5767321e-09
3.2557024e-09
6.098412e-09
6.0837058e-09
3.8524095e-09
4.5344568e-09
2.7432701e-09
2.5683204e-09
2.0931059e-09
1.5596861e-09
1.6556694e-09
1.0481214e-09
1.3405737e-09
7.5201097e-10
1.1047407e-09
5.6125749e-10
9.2378178e-10
4.2985231e-10
7.823337e-10
3.3552992e-10
6.7008547e-10
2.659609e-10
5.7984159e-10
2.1361047e-10
5.0645063e-10
1.7356277e-10
4.4615268e-10
1.4248201e-10
3.9616119e-10
1.180397e-10
3.5438207e-10
9.8581688e-11
3.1922282e-10
8.2911113e-11
2.8945835e-10
7.0152277e-11
2.6413695e-10
5.9653993e-11
2.4251225e-10
5.0927805e-11
2.2399431e-10
4.3601736e-11
2.0811339e-10
3.7390324e-11
1.9449335e-10
3.207144e-11
1.8283149e-10
2.7470945e-11
1.728836e-10
2.345039e-11
1.6445239e-10
1.9898737e-11
1.5737881e-10
1.6725707e-11
1.5153539e-10
1.3856805e-11
1.4682113e-10
1.1229838e-11
1.4315771e-10
8.7915572e-12
1.4048664e-10
6.4956367e-12
1.3876736e-10
4.3002841e-12
1.3797609e-10
2.1663748e-12
-1.2142591e-15
6.5531997e-09
-4.5311887e-10
6.7213471e-09
-4.4170983e-10
6.9309824e-09
-5.8159812e-10
7.0942743e-09
-5.0199601e-10
7.2464682e-09
-4.1979081e-10
7.3927797e-09
-4.3258737e-10
7.5709044e-09
-5.1883748e-10
7.7938931e-09
-5.7225549e-10
7.9622813e-09
-4.9818228e-10
8.0788706e-09
-3.5502799e-10
8.2836334e-09
-5.5294244e-10
8.4736636e-09
-5.1180864e-10
8.6314969e-09
-4.4724588e-10
8.7996245e-09
-5.3584065e-10
8.9720561e-09
-4.0315233e-10
9.1308446e-09
-3.9876048e-10
9.2947291e-09
-5.5695926e-10
9.4912025e-09
-5.5917549e-10
9.6707991e-09
-4.0837447e-10
9.8197718e-09
-4.0022787e-10
9.9769223e-09
-4.7872589e-10
1.017229e-08
-5.9754171e-10
1.0366919e-08
-5.1779061e-10
1.0534402e-08
-4.0423e-10
1.0748729e-08
-5.9858266e-10
1.0969713e-08
-5.9006183e-10
1.1123034e-08
-3.5897645e-10
1.1279849e-08
-3.9820116e-10
1.1501656e-08
-6.2301431e-10
1.1766645e-08
-7.3250468e-10
1.2021178e-08
-7.0059384e-10
1.2270457e-08
-7.0808475e-10
1.2426498e-08
-4.4641936e-10
1.2551471e-08
-2.5965831e-10
1.2668568e-08
-2.307254e-10
1.2630451e-08
3.2179948e-11
1.2517012e-08
2.4314108e-10
1.2514748e-08
6.2192428e-11
1.247859e-08
6.4935274e-11
1.2188445e-08
5.4148871e-10
1.1665057e-08
1.563934e-09
1.0256441e-08
4.6643185e-09
7.3264751e-09
9.0136719e-09
4.6358981e-09
7.2250338e-09
3.3459493e-09
3.8582692e-09
2.5733754e-09
2.3322599e-09
2.0441953e-09
1.5773015e-09
1.6597491e-09
1.1364572e-09
1.3707145e-09
8.5029215e-10
1.1483229e-09
6.5224391e-10
9.7414945e-10
5.0970334e-10
8.3571639e-10
4.0439397e-10
7.2427219e-10
3.2505467e-10
6.3353251e-10
2.6430245e-10
5.5890108e-10
2.1711344e-10
4.9696621e-10
1.7997456e-10
4.4516067e-10
1.5038723e-10
4.0153002e-10
1.2654177e-10
3.645692e-10
1.071131e-10
3.331081e-10
9.1115088e-11
3.0622839e-10
7.7807514e-11
2.8320386e-10
6.6626267e-11
2.6345604e-10
5.7138149e-11
2.4652167e-10
4.900581e-11
2.3202802e-10
4.19646e-11
2.1967449e-10
3.5803918e-11
2.0921853e-10
3.0354698e-11
2.004649e-10
2.5479335e-11
1.932576e-10
2.1064105e-11
1.8747351e-10
1.7013926e-11
1.8301787e-10
1.32472e-11
1.7982071e-10
9.6927965e-12
1.7783465e-10
6.2863489e-12
1.7703329e-10
2.9677264e-12
-4.1103554e-13
7.3320383e-09
-6.3531061e-10
7.5312836e-09
-6.4095509e-10
7.7490708e-09
-7.9938538e-10
7.9907636e-09
-7.436888e-10
8.1571812e-09
-5.8620835e-10
8.2977126e-09
-5.7311883e-10
8.5548321e-09
-7.7595692e-10
8.8030067e-09
-8.2043012e-10
8.9905482e-09
-6.8572374e-10
9.1863405e-09
-5.5082037e-10
9.3863749e-09
-7.5297679e-10
9.5993665e-09
-7.2480028e-10
9.8513813e-09
-6.9926064e-10
1.0025912e-08
-7.103717e-10
1.0187732e-08
-5.6497227e-10
1.043128e-08
-6.4230804e-10
1.0682423e-08
-8.0810274e-10
1.0886438e-08
-7.6319036e-10
1.1112232e-08
-6.341687e-10
1.1302943e-08
-5.9093881e-10
1.145098e-08
-6.267629e-10
1.1702734e-08
-8.4929566e-10
1.1990617e-08
-8.0567321e-10
1.2125493e-08
-5.3910616e-10
1.2383897e-08
-8.569864e-10
1.2652399e-08
-8.5856366e-10
1.2866692e-08
-5.7326947e-10
1.3064553e-08
-5.9606221e-10
1.3354897e-08
-9.1335818e-10
1.3692493e-08
-1.0701015e-09
1.4019942e-08
-1.028042e-09
1.4318937e-08
-1.0070799e-09
1.4481507e-08
-6.0898925e-10
1.4621643e-08
-3.9979449e-10
1.4846161e-08
-4.5524373e-10
1.5010691e-08
-1.3235043e-10
1.4980132e-08
2.7370021e-10
1.4887434e-08
1.5489032e-10
1.4719476e-08
2.3289355e-10
1.4298319e-08
9.6264582e-10
1.3606026e-08
2.2562272e-09
1.0671509e-08
7.5988352e-09
7.1959607e-09
1.248922e-08
5.1680292e-09
9.2529653e-09
3.8654878e-09
5.1608105e-09
3.0042452e-09
3.1935025e-09
2.3979909e-09
2.1835558e-09
1.9529008e-09
1.5815473e-09
1.6165483e-09
1.1866447e-09
1.3569509e-09
9.1184127e-10
1.1531973e-09
7.1345696e-10
9.9097506e-10
5.6661619e-10
8.6018796e-10
4.5584176e-10
7.5356083e-10
3.7092958e-10
6.6576026e-10
3.04914e-10
5.9282037e-10
2.5291445e-10
5.3175248e-10
2.1145513e-10
4.8027841e-10
1.7801583e-10
4.3664189e-10
1.5074963e-10
3.9947619e-10
1.2828079e-10
3.677078e-10
1.095759e-10
3.4048728e-10
9.3846784e-11
3.1713772e-10
8.0487717e-11
2.9711691e-10
6.9026619e-11
2.7998865e-10
5.9092862e-11
2.6540133e-10
5.0391236e-11
2.5307152e-10
4.268451e-11
2.4277147e-10
3.5779386e-11
2.3431972e-10
2.9515859e-11
2.2757368e-10
2.3759961e-11
2.2242444e-10
1.8396445e-11
2.1879257e-10
1.3324661e-11
2.1662566e-10
8.4532638e-12
2.1589648e-10
3.6969075e-12
-1.1551893e-12
7.9436833e-09
-8.607574e-10
8.1571295e-09
-8.5440132e-10
8.3918684e-09
-1.0341242e-09
8.6862678e-09
-1.0380883e-09
8.8779438e-09
-7.7788434e-10
9.0727954e-09
-7.6797046e-10
9.3406868e-09
-1.0438483e-09
9.6024592e-09
-1.0822026e-09
9.8725063e-09
-9.5577083e-10
1.0046695e-08
-7.2500925e-10
1.0313883e-08
-1.0201647e-09
1.05952e-08
-1.0061173e-09
1.0805395e-08
-9.0945608e-10
1.1063728e-08
-9.6870382e-10
1.1276997e-08
-7.7824117e-10
1.1481635e-08
-8.4694679e-10
1.1812306e-08
-1.138773e-09
1.2088777e-08
-1.039662e-09
1.2277444e-08
-8.2283587e-10
1.2551149e-08
-8.6464355e-10
1.2781128e-08
-8.567419e-10
1.3056867e-08
-1.1250346e-09
1.338571e-08
-1.1345162e-09
1.3650181e-08
-8.035771e-10
1.3777811e-08
-9.8461613e-10
1.4025999e-08
-1.1067517e-09
1.4340523e-08
-8.8779414e-10
1.4675882e-08
-9.3142091e-10
1.5013779e-08
-1.2512551e-09
1.5433643e-08
-1.4899654e-09
1.5823202e-08
-1.4176015e-09
1.616749e-08
-1.3513673e-09
1.6346157e-08
-7.8765626e-10
1.6506637e-08
-5.6027416e-10
1.6761684e-08
-7.1029164e-10
1.6993786e-08
-3.6445159e-10
1.7082181e-08
1.8530496e-10
1.7072715e-08
1.6435622e-10
1.6920047e-08
3.8556126e-10
1.6564929e-08
1.3177639e-09
1.4731631e-08
4.0895255e-09
1.0410255e-08
1.1920211e-08
7.467418e-09
1.5432058e-08
5.6433465e-09
1.1077037e-08
4.3212782e-09
6.4828789e-09
3.3900729e-09
4.1247078e-09
2.719215e-09
2.8544137e-09
2.2215363e-09
2.079226e-09
1.8433967e-09
1.5647844e-09
1.5505811e-09
1.2046568e-09
1.3202161e-09
9.43822e-10
1.1364652e-09
7.503671e-10
9.8808641e-10
6.0422053e-10
8.6694835e-10
4.9206764e-10
7.670745e-10
4.0478785e-10
6.8401199e-10
3.3597696e-10
6.1439969e-10
2.8106744e-10
5.556719e-10
2.3674362e-10
5.0584825e-10
2.0057328e-10
4.6338601e-10
1.7074303e-10
4.2707231e-10
1.458896e-10
3.959468e-10
1.249723e-10
3.6924377e-10
1.0719075e-10
3.4634977e-10
9.1920617e-11
3.267713e-10
7.8671338e-11
3.1011074e-10
6.7051797e-11
2.960479e-10
5.674735e-11
2.8432594e-10
4.7501347e-11
2.7474082e-10
3.9100983e-11
2.6713294e-10
3.1367837e-11
2.6138135e-10
2.4148042e-11
2.5739902e-10
1.7306982e-11
2.5513014e-10
1.0722149e-11
2.5454803e-10
4.279014e-12
-2.3055443e-12
8.3970324e-09
-1.1210829e-09
8.6410886e-09
-1.0984575e-09
8.899287e-09
-1.2923226e-09
9.202317e-09
-1.3411183e-09
9.4520278e-09
-1.0275951e-09
9.6816963e-09
-9.9763898e-10
9.9394505e-09
-1.3016025e-09
1.0310682e-08
-1.4534336e-09
1.0562425e-08
-1.207514e-09
1.0757059e-08
-9.1964332e-10
1.106052e-08
-1.3236258e-09
1.1322672e-08
-1.2682695e-09
1.1707893e-08
-1.2946772e-09
1.1902733e-08
-1.1635436e-09
1.2148199e-08
-1.0237072e-09
1.248799e-08
-1.1867374e-09
1.2771824e-08
-1.4226078e-09
1.3141316e-08
-1.4091531e-09
1.3359533e-08
-1.0410538e-09
1.3547194e-08
-1.0523043e-09
1.3873436e-08
-1.1829841e-09
1.4189862e-08
-1.4414604e-09
1.4530495e-08
-1.4751488e-09
1.4936923e-08
-1.2100052e-09
1.5210107e-08
-1.2578007e-09
1.5380024e-08
-1.2766681e-09
1.5617962e-08
-1.1257319e-09
1.6018684e-08
-1.3321434e-09
1.653424e-08
-1.7668107e-09
1.6864043e-08
-1.8197688e-09
1.7387256e-08
-1.9408147e-09
1.7852712e-08
-1.8168232e-09
1.8034344e-08
-9.6928869e-10
1.8197103e-08
-7.2303291e-10
1.8552189e-08
-1.0653774e-09
1.8924798e-08
-7.3706052e-10
1.9070364e-08
3.9739001e-11
1.9058276e-08
1.7644462e-10
1.8699053e-08
7.4478332e-10
1.7988044e-08
2.0287729e-09
1.5401991e-08
6.6755792e-09
1.0619818e-08
1.6702384e-08
7.8303016e-09
1.8221574e-08
6.0713824e-09
1.2835956e-08
4.7215141e-09
7.8327473e-09
3.7346208e-09
5.1116011e-09
3.0100602e-09
3.5789743e-09
2.4671694e-09
2.6221167e-09
2.0523952e-09
1.9795587e-09
1.7301004e-09
1.5269516e-09
1.4759142e-09
1.1980081e-09
1.2727608e-09
9.535206e-10
1.1084374e-09
7.6854385e-10
9.7408277e-10
6.264223e-10
8.631656e-10
5.1570502e-10
7.7080949e-10
4.2833308e-10
6.9332699e-10
3.5854994e-10
6.2789903e-10
3.0217158e-10
5.7234671e-10
2.5612561e-10
5.2497069e-10
2.1811906e-10
4.8443366e-10
1.8642663e-10
4.496759e-10
1.5973005e-10
4.1985202e-10
1.3701463e-10
3.9428452e-10
1.1748812e-10
3.7242838e-10
1.0052748e-10
3.5384468e-10
8.5635498e-11
3.3818032e-10
7.2411715e-11
3.2515254e-10
6.0529126e-11
3.145374e-10
4.9716121e-11
3.0616058e-10
3.9744663e-11
2.9989101e-10
3.041761e-11
2.9563579e-10
2.15622e-11
2.9333715e-10
1.302079e-11
2.9297039e-10
4.6457791e-12
-3.927046e-12
8.7048051e-09
-1.3981799e-09
8.9771485e-09
-1.370801e-09
9.2836438e-09
-1.5988179e-09
9.5961919e-09
-1.6536663e-09
9.8854261e-09
-1.3168294e-09
1.0127348e-08
-1.2395604e-09
1.0414178e-08
-1.5884331e-09
1.0799895e-08
-1.8391508e-09
1.1122416e-08
-1.5300349e-09
1.1398026e-08
-1.1952532e-09
1.1615865e-08
-1.541465e-09
1.1978321e-08
-1.6307248e-09
1.2348625e-08
-1.6649817e-09
1.2610852e-08
-1.4257705e-09
1.2869325e-08
-1.2821805e-09
1.3232005e-08
-1.5494169e-09
1.3634084e-08
-1.8246868e-09
1.3943687e-08
-1.7187558e-09
1.4284651e-08
-1.3820186e-09
1.4545126e-08
-1.3127784e-09
1.4882522e-08
-1.5203809e-09
1.5225739e-08
-1.7846772e-09
1.5490429e-08
-1.7398385e-09
1.5941123e-08
-1.6606997e-09
1.6327756e-08
-1.6444327e-09
1.6547402e-08
-1.4963149e-09
1.6875925e-08
-1.4542545e-09
1.7220262e-08
-1.6764799e-09
1.7720658e-08
-2.2672071e-09
1.8315912e-08
-2.4150229e-09
1.8645528e-08
-2.2704311e-09
1.9167481e-08
-2.3387762e-09
1.9528117e-08
-1.3299242e-09
1.9717763e-08
-9.1267854e-10
2.0218511e-08
-1.5661262e-09
2.0770115e-08
-1.2886638e-09
2.1049989e-08
-2.4013522e-10
2.0931143e-08
2.9529088e-10
2.0395453e-08
1.2804724e-09
1.9456783e-08
2.9674434e-09
1.6088211e-08
1.0044151e-08
1.1178316e-08
2.1612279e-08
8.2451575e-09
2.1154732e-08
6.4497759e-09
1.4631338e-08
5.071604e-09
9.2109192e-09
4.0413911e-09
6.141814e-09
3.2726983e-09
4.3476671e-09
2.6912917e-09
3.2035234e-09
2.2446475e-09
2.4262029e-09
1.8963609e-09
1.8752382e-09
1.6209666e-09
1.4734024e-09
1.4004048e-09
1.1740824e-09
1.221683e-09
9.4726566e-10
1.0753269e-09
7.727784e-10
9.5433343e-10
6.3669846e-10
8.5346202e-10
5.2920449e-10
7.6874224e-10
4.4326973e-10
6.9713368e-10
3.7378013e-10
6.3628296e-10
3.1697633e-10
5.8435232e-10
2.700497e-10
5.3989402e-10
2.3088493e-10
5.0175984e-10
1.9786423e-10
4.6903321e-10
1.6974126e-10
4.4097936e-10
1.4554197e-10
4.1700717e-10
1.2449967e-10
3.9664078e-10
1.0600188e-10
3.7949779e-10
8.9554712e-11
3.652725e-10
7.4754417e-11
3.5372355e-10
6.1265071e-11
3.4466397e-10
4.8804239e-11
3.3795443e-10
3.7127152e-11
3.3349766e-10
2.6018966e-11
3.312353e-10
1.5283149e-11
3.3114572e-10
4.7353586e-12
-6.0781187e-12
8.9175421e-09
-1.704942e-09
9.1754862e-09
-1.628745e-09
9.5260352e-09
-1.9493668e-09
9.9049282e-09
-2.0325594e-09
1.0208056e-08
-1.6199571e-09
1.0463108e-08
-1.4946128e-09
1.0765075e-08
-1.8903996e-09
1.1167451e-08
-2.2415268e-09
1.1564624e-08
-1.9272083e-09
1.1860294e-08
-1.490923e-09
1.2100952e-08
-1.782123e-09
1.2465902e-08
-1.9956749e-09
1.2917954e-08
-2.1170339e-09
1.321975e-08
-1.7275658e-09
1.3473942e-08
-1.5363724e-09
1.3871583e-08
-1.9470587e-09
1.4289304e-08
-2.2424078e-09
1.4693198e-08
-2.1226491e-09
1.4979836e-08
-1.6686569e-09
1.5361617e-08
-1.6945597e-09
1.5673587e-08
-1.8323504e-09
1.6138216e-08
-2.2493068e-09
1.653399e-08
-2.1356117e-09
1.6831799e-08
-1.9585088e-09
1.7316805e-08
-2.1294388e-09
1.7494894e-08
-1.6744038e-09
1.7746781e-08
-1.7061417e-09
1.8426531e-08
-2.3562304e-09
1.8904019e-08
-2.7446948e-09
1.9376599e-08
-2.8876025e-09
2.0010517e-08
-2.9043492e-09
2.0541468e-08
-2.8697276e-09
2.089579e-08
-1.6842456e-09
2.1085499e-08
-1.1023882e-09
2.1454743e-08
-1.93537e-09
2.1766079e-08
-1.5999998e-09
2.2509453e-08
-9.8350906e-10
2.2794443e-08
1.0300872e-11
2.2356787e-08
1.718128e-09
2.0538891e-08
4.7853398e-09
1.6187857e-08
1.4395185e-08
1.1330449e-08
2.6469687e-08
8.5607161e-09
2.3924465e-08
6.7687873e-09
1.6423266e-08
5.3758599e-09
1.0603847e-08
4.3136608e-09
7.2040131e-09
3.5092338e-09
5.1520941e-09
2.8953481e-09
3.817409e-09
2.4212145e-09
2.9003365e-09
2.0501758e-09
2.2462769e-09
1.7560127e-09
1.7675655e-09
1.5199089e-09
1.4101862e-09
1.3282374e-09
1.1389372e-09
1.1710194e-09
9.2999643e-10
1.0408569e-09
7.6686096e-10
9.3220049e-10
6.3786085e-10
8.4083747e-10
5.3463275e-10
7.6353604e-10
4.5108156e-10
6.9779083e-10
3.8272155e-10
6.4164276e-10
3.2619777e-10
5.9354676e-10
2.7898093e-10
5.5227629e-10
2.3913471e-10
5.1685159e-10
2.0516596e-10
4.8648694e-10
1.7590663e-10
4.6055019e-10
1.5043643e-10
4.3853266e-10
1.2801941e-10
4.2002598e-10
1.0806139e-10
4.0470429e-10
9.007611e-11
3.9231111e-10
7.3658249e-11
3.8264878e-10
5.8466571e-11
3.7557132e-10
4.4204613e-11
3.7097853e-10
3.0611748e-11
3.6881265e-10
1.7449038e-11
3.6905621e-10
4.4917901e-12
-8.8110311e-12
9.0603734e-09
-2.0624071e-09
9.3099874e-09
-1.878359e-09
9.6500396e-09
-2.2894191e-09
1.0087914e-08
-2.4704335e-09
1.0427848e-08
-1.9598918e-09
1.0723056e-08
-1.7898204e-09
1.1035925e-08
-2.2032687e-09
1.1447504e-08
-2.6531054e-09
1.1862848e-08
-2.3425525e-09
1.2230055e-08
-1.8581297e-09
1.2478321e-08
-2.0303889e-09
1.2862798e-08
-2.3801524e-09
1.3369171e-08
-2.6234072e-09
1.3702819e-08
-2.0612138e-09
1.3940712e-08
-1.774265e-09
1.4408775e-08
-2.4151217e-09
1.4890373e-08
-2.7240053e-09
1.5264717e-08
-2.4969933e-09
1.563128e-08
-2.0352203e-09
1.5969484e-08
-2.0327638e-09
1.6421963e-08
-2.2848288e-09
1.6901035e-08
-2.7283788e-09
1.7393158e-08
-2.6277348e-09
1.7754448e-08
-2.3197993e-09
1.8224018e-08
-2.5990088e-09
1.8519315e-08
-1.9697011e-09
1.8611619e-08
-1.7984453e-09
1.9277215e-08
-3.0218262e-09
2.0121249e-08
-3.588729e-09
2.0533181e-08
-3.2995344e-09
2.0907879e-08
-3.2790469e-09
2.1615724e-08
-3.5775731e-09
2.1976757e-08
-2.0452781e-09
2.2400515e-08
-1.5261468e-09
2.3064076e-08
-2.5989304e-09
2.3740843e-08
-2.2767668e-09
2.3468685e-08
-7.1135085e-10
2.3504347e-08
-2.536174e-11
2.3265782e-08
1.9566927e-09
1.9356927e-08
8.6941947e-09
1.4909341e-08
1.8842772e-08
1.1212668e-08
3.016636e-08
8.7979241e-09
2.6339209e-08
7.0359944e-09
1.8185196e-08
5.639364e-09
1.2000477e-08
4.5545698e-09
8.2888073e-09
3.721678e-09
5.9849859e-09
3.0807206e-09
4.4583665e-09
2.5831068e-09
3.3979503e-09
2.1923154e-09
2.6370683e-09
1.8816554e-09
2.0782255e-09
1.6317533e-09
1.6600883e-09
1.4284879e-09
1.3422026e-09
1.2614755e-09
1.0970088e-09
1.1229946e-09
9.053419e-10
1.0072385e-09
7.5361695e-10
9.0978978e-10
6.3208145e-10
8.2725341e-10
5.3361793e-10
7.5699307e-10
4.5298189e-10
6.9694432e-10
3.8624653e-10
6.4547704e-10
3.3044821e-10
6.0129588e-10
2.8331587e-10
5.6336537e-10
2.4309648e-10
5.3085475e-10
2.0841724e-10
5.0309562e-10
1.7819556e-10
4.7955028e-10
1.5156475e-10
4.5978752e-10
1.2782415e-10
4.434639e-10
1.0639974e-10
4.3030994e-10
8.6812204e-11
4.2011909e-10
6.8657424e-11
4.1274024e-10
5.1583466e-11
4.0807154e-10
3.5280441e-11
4.0605696e-10
1.9463618e-11
4.0668389e-10
3.8648616e-12
-1.2172272e-11
9.1083149e-09
-2.451884e-09
9.4103556e-09
-2.1803997e-09
9.7191005e-09
-2.5981641e-09
1.0160614e-08
-2.911947e-09
1.0567065e-08
-2.3663428e-09
1.0934092e-08
-2.1568473e-09
1.1251477e-08
-2.5206533e-09
1.1610682e-08
-3.0123106e-09
1.2028934e-08
-2.760805e-09
1.2493104e-08
-2.3222993e-09
1.2839968e-08
-2.3772528e-09
1.322034e-08
-2.7605247e-09
1.3675869e-08
-3.0789365e-09
1.4022882e-08
-2.4082269e-09
1.4367409e-08
-2.1187914e-09
1.4887832e-08
-2.9355449e-09
1.544361e-08
-3.2797838e-09
1.5776767e-08
-2.8301502e-09
1.6135967e-08
-2.3944202e-09
1.6579136e-08
-2.4759324e-09
1.7031616e-08
-2.7373094e-09
1.7656234e-08
-3.3529961e-09
1.8136735e-08
-3.1082361e-09
1.8474172e-08
-2.6572362e-09
1.8907469e-08
-3.032306e-09
1.9478663e-08
-2.5408944e-09
1.9687694e-08
-2.0074764e-09
2.0057307e-08
-3.3914393e-09
2.103193e-08
-4.5633518e-09
2.1606775e-08
-3.8743795e-09
2.2000458e-08
-3.6727299e-09
2.2505532e-08
-4.0826474e-09
2.2958722e-08
-2.4984686e-09
2.3434513e-08
-2.0019378e-09
2.4344215e-08
-3.5086319e-09
2.5305158e-08
-3.2377094e-09
2.5605494e-08
-1.0116874e-09
2.5346243e-08
2.338896e-10
2.4216721e-08
3.0862143e-09
2.1176207e-08
1.1734708e-08
1.5749504e-08
2.4269476e-08
1.1594178e-08
3.4321686e-08
9.0474663e-09
2.888592e-08
7.2622193e-09
1.9970443e-08
5.8668512e-09
1.3395845e-08
4.7670389e-09
9.3886197e-09
3.9119248e-09
6.8400999e-09
3.2487159e-09
5.1215754e-09
2.7312791e-09
3.9153871e-09
2.3235054e-09
3.044842e-09
1.9984606e-09
2.4032703e-09
1.7363869e-09
1.922162e-09
1.5227953e-09
1.5557942e-09
1.3469882e-09
1.2728159e-09
1.2009862e-09
1.051344e-09
1.0787731e-09
8.7583001e-10
9.7576217e-10
7.3509239e-10
8.8842104e-10
6.2095907e-10
8.1400208e-10
5.2740085e-10
7.5035045e-10
4.4989816e-10
6.9576239e-10
3.8503627e-10
6.488827e-10
3.3019557e-10
6.0862719e-10
2.8335199e-10
5.7412559e-10
2.4291884e-10
5.4467764e-10
2.0764352e-10
5.1972024e-10
1.7652216e-10
4.9880224e-10
1.4874215e-10
4.8156499e-10
1.2363699e-10
4.6772804e-10
1.0064915e-10
4.5707757e-10
7.9307902e-11
4.4945872e-10
5.9202308e-11
4.4476919e-10
3.9969971e-11
4.4295564e-10
2.1277174e-11
4.4401083e-10
2.809668e-12
-1.6202863e-11
9.052727e-09
-2.8332607e-09
9.4397395e-09
-2.5674121e-09
9.758154e-09
-2.9165786e-09
1.0150518e-08
-3.3043111e-09
1.0623204e-08
-2.8390291e-09
1.1094732e-08
-2.6283746e-09
1.1401332e-08
-2.8272532e-09
1.1707495e-08
-3.3184736e-09
1.2111395e-08
-3.1647049e-09
1.2661083e-08
-2.8719881e-09
1.313707e-08
-2.8532395e-09
1.348954e-08
-3.1129943e-09
1.3902936e-08
-3.492333e-09
1.4296704e-08
-2.8019949e-09
1.4737798e-08
-2.5598855e-09
1.5364493e-08
-3.5622395e-09
1.5813842e-08
-3.7291334e-09
1.6152472e-08
-3.1687799e-09
1.6591967e-08
-2.8339153e-09
1.7071538e-08
-2.9555029e-09
1.7596513e-08
-3.2622844e-09
1.8266909e-08
-4.0233922e-09
1.8809157e-08
-3.6504839e-09
1.9064752e-08
-2.9128318e-09
1.9459556e-08
-3.4271095e-09
2.0180979e-08
-3.2623175e-09
2.0663118e-08
-2.4896157e-09
2.09991e-08
-3.7274213e-09
2.1653768e-08
-5.2180198e-09
2.2432481e-08
-4.6530919e-09
2.3025869e-08
-4.2661181e-09
2.3716934e-08
-4.773713e-09
2.4072891e-08
-2.8544255e-09
2.433092e-08
-2.259967e-09
2.5644539e-08
-4.8222508e-09
2.6800424e-08
-4.3935947e-09
2.7225319e-08
-1.436582e-09
2.6762708e-08
6.9650059e-10
2.6468424e-08
3.380498e-09
2.5856749e-08
1.2346384e-08
2.1650795e-08
2.847543e-08
1.2158106e-08
4.3814375e-08
9.2067314e-09
3.1837295e-08
7.4434565e-09
2.1733718e-08
6.0619077e-09
1.4777394e-08
4.9537221e-09
1.0496805e-08
4.0817363e-09
7.7120858e-09
3.4005587e-09
5.802753e-09
2.8666281e-09
4.4493178e-09
2.4444267e-09
3.4670434e-09
2.1069579e-09
2.7407391e-09
1.8342287e-09
2.1948911e-09
1.6114952e-09
1.7785278e-09
1.427829e-09
1.456482e-09
1.275053e-09
1.2041199e-09
1.1469861e-09
1.0038969e-09
1.0389045e-09
8.43174e-10
9.4716293e-10
7.1270067e-10
8.6892065e-10
6.0564314e-10
8.0194632e-10
5.1687249e-10
7.4447333e-10
4.4250926e-10
6.9509487e-10
3.7957403e-10
6.5268456e-10
3.2576231e-10
6.1633783e-10
2.7926558e-10
5.853267e-10
2.3865465e-10
5.59066e-10
2.0278286e-10
5.3708736e-10
1.7072079e-10
5.1901914e-10
1.4170521e-10
5.0457174e-10
1.1509655e-10
4.9352558e-10
9.035406e-11
4.8572335e-10
6.7004538e-11
4.810633e-10
4.4630026e-11
4.7949588e-10
2.284459e-11
4.8101911e-10
1.2864406e-12
-2.0938691e-11
8.9400774e-09
-3.2018326e-09
9.3860885e-09
-3.0134232e-09
9.7576502e-09
-3.2881402e-09
1.0080975e-08
-3.6276359e-09
1.0603544e-08
-3.3615983e-09
1.1139424e-08
-3.1642544e-09
1.1447308e-08
-3.1351371e-09
1.1774244e-08
-3.64541e-09
1.218411e-08
-3.5745709e-09
1.2785173e-08
-3.4730512e-09
1.3323408e-08
-3.3914744e-09
1.3640753e-08
-3.4303395e-09
1.4043093e-08
-3.8946728e-09
1.4569955e-08
-3.3288563e-09
1.5099046e-08
-3.0889768e-09
1.5664623e-08
-4.1278163e-09
1.6086525e-08
-4.1510353e-09
1.6434724e-08
-3.5169793e-09
1.7019198e-08
-3.4183897e-09
1.7540091e-08
-3.4763953e-09
1.7965721e-08
-3.6879144e-09
1.8595952e-08
-4.653623e-09
1.9269136e-08
-4.3236686e-09
1.9552816e-08
-3.1965115e-09
2.0040039e-08
-3.9143328e-09
2.0813699e-08
-4.0359774e-09
2.1373812e-08
-3.0497289e-09
2.1557822e-08
-3.9114307e-09
2.233949e-08
-5.9996877e-09
2.3338956e-08
-5.6525584e-09
2.4217142e-08
-5.1443044e-09
2.5545649e-08
-6.1022191e-09
2.5834637e-08
-3.1434137e-09
2.6301594e-08
-2.7269237e-09
2.7677308e-08
-6.1979655e-09
2.875034e-08
-5.4666264e-09
2.9198661e-08
-1.8849034e-09
2.8333371e-08
1.5617911e-09
2.699358e-08
4.7202884e-09
2.5494076e-08
1.3845888e-08
2.0779618e-08
3.3189887e-08
1.3183584e-08
5.1410409e-08
9.5036832e-09
3.5517196e-08
7.6037083e-09
2.3633693e-08
6.2293699e-09
1.6151732e-08
5.1171237e-09
1.1609052e-08
4.2327414e-09
8.596468e-09
3.5373884e-09
6.4981059e-09
2.9899907e-09
4.9967155e-09
2.5557151e-09
3.9013191e-09
2.207641e-09
3.0888132e-09
1.9256684e-09
2.4768638e-09
1.6948989e-09
2.0092972e-09
1.504249e-09
1.647132e-09
1.3453995e-09
1.3629694e-09
1.2120448e-09
1.1372515e-09
1.0993545e-09
9.5586438e-10
1.0035926e-09
8.0846249e-10
9.2184267e-10
6.873931e-10
8.5180958e-10
5.8690558e-10
7.9167386e-10
5.0264498e-10