/*--------------------------------*- C++ -*----------------------------------*\
| =========                 |                                                 |
| \\      /  F ield         | OpenFOAM: The Open Source CFD Toolbox           |
|  \\    /   O peration     | Version:  2.3.0                                 |
|   \\  /    A nd           | Web:      www.OpenFOAM.org                      |
|    \\/     M anipulation  |                                                 |
\*---------------------------------------------------------------------------*/
FoamFile
{
    version     2.0;
    format      ascii;
    class       volVectorField;
    location    "4e-06";
    object      U;
}
// * * * * * * * * * * * * * * * * * * * * * * * * * * * * * * * * * * * * * //

dimensions      [0 1 -1 0 0 0 0];

internalField   nonuniform List<vector> 
7500
(
(460.04478 0.025835772 1.2665581e-16)
(459.92534 0.029103323 2.4757976e-15)
(458.40254 -0.097943547 2.9043543e-15)
(461.47841 0.077756909 -4.8023034e-16)
(461.33379 -0.02754662 2.8160535e-15)
(458.45543 0.073236279 5.8119726e-15)
(458.64678 0.036118337 2.6634066e-15)
(460.60804 -0.1796354 3.9561894e-15)
(460.32429 -0.078469131 5.1257398e-15)
(460.96693 0.13032246 1.9585414e-15)
(459.02354 0.10394781 1.2195141e-15)
(458.18526 -0.19903415 -5.7190979e-16)
(461.70241 0.046519492 8.3696597e-16)
(460.92335 0.21231475 1.2685207e-15)
(458.21243 -0.36691596 1.4211294e-15)
(460.04481 0.45504105 1.008682e-15)
(460.49847 -0.23681944 5.8888186e-16)
(457.88659 -0.19835528 -9.8887342e-16)
(459.41431 0.36669265 2.0177769e-16)
(460.77388 -0.28465748 2.0244467e-15)
(459.1282 0.17342021 -1.4235609e-15)
(459.16679 0.051409291 8.9021977e-16)
(458.73712 -0.20854605 1.3109616e-15)
(458.9533 0.11930091 -8.2787246e-16)
(461.0872 -0.18653392 7.3090836e-16)
(462.37209 -0.24254107 9.5979252e-16)
(462.11454 0.12795103 7.0625061e-16)
(459.93783 0.19096757 -2.1045455e-15)
(459.98631 -0.14168581 -6.0337514e-16)
(463.84024 -0.28883593 4.2485279e-15)
(466.53259 -0.25918656 -1.6355919e-15)
(469.51879 -0.15537172 1.3440808e-15)
(472.71075 0.16465096 3.2626279e-16)
(471.51392 0.1038178 -1.0421433e-15)
(468.50308 0.080257069 -9.2153419e-16)
(463.29191 0.76638952 1.5776045e-15)
(452.90701 1.0568637 -1.4713805e-15)
(445.67833 -0.034242697 -1.1391365e-15)
(446.96616 -0.12710627 3.1898653e-16)
(443.33879 2.5729485 1.1908057e-15)
(422.60068 9.343128 7.9242702e-16)
(314.85959 8.6267964 1.0861397e-16)
(244.50717 5.3353881 6.2986915e-16)
(180.8813 4.6156576 1.0078334e-16)
(132.03826 3.8457369 -1.4130175e-16)
(98.130068 2.5792403 -2.9266303e-16)
(75.541388 1.7380219 -1.8514314e-17)
(59.8177 1.2336913 7.5794609e-17)
(48.359312 0.91196593 1.1157784e-16)
(39.745067 0.69310906 -7.6737069e-17)
(33.123455 0.53748379 9.7263397e-17)
(27.945186 0.42351112 8.1365867e-20)
(23.837197 0.33825152 -4.2095797e-17)
(20.537389 0.2733759 -5.5669872e-18)
(17.857275 0.2232817 -4.553498e-17)
(15.65888 0.18408285 -3.0038633e-17)
(13.839695 0.15303185 2.2143186e-17)
(12.322558 0.12814946 -1.0549403e-17)
(11.048696 0.10799306 -3.0329664e-18)
(9.9728461 0.09149415 -5.347269e-18)
(9.0598075 0.077854181 2.3091574e-17)
(8.2819519 0.066467429 3.6343147e-18)
(7.6174192 0.056870781 -4.4440706e-17)
(7.0487885 0.048705353 -2.7233111e-17)
(6.5620911 0.041690928 1.4712458e-17)
(6.1460714 0.035605741 2.0409067e-17)
(5.7916286 0.030272828 -2.7783681e-18)
(5.4913921 0.025549093 -3.6365958e-19)
(5.2393984 0.021317301 -1.4095429e-17)
(5.0308425 0.017480281 -1.7035197e-17)
(4.8618882 0.0139557 1.129862e-17)
(4.729534 0.010672609 3.0057157e-17)
(4.6314095 0.0075682188 1.0839058e-19)
(4.5664376 0.004580627 -7.5438875e-19)
(4.5253016 0.0016002123 1.3611022e-17)
(460.25476 0.0017505143 6.0181507e-16)
(459.83113 0.079131427 -9.8336662e-16)
(458.32441 -0.0170746 -8.2941489e-17)
(461.449 -0.27733738 4.2806815e-16)
(461.2659 0.1920558 -3.3495666e-16)
(458.40169 0.27099714 -6.6159658e-17)
(458.79851 -0.1841312 1.3596679e-15)
(460.62997 -0.06446767 -1.5278342e-15)
(460.30842 -0.11126643 1.1282789e-15)
(461.02327 0.30176217 -1.3907216e-17)
(458.90626 -0.37620043 1.3577797e-15)
(458.01415 0.24520152 -4.2156125e-16)
(461.90282 0.064069262 3.8814918e-16)
(461.047 -0.69275897 -2.5164044e-16)
(458.07619 1.0838325 -6.0358042e-16)
(459.84366 -0.4882725 -1.3030349e-15)
(460.68416 -0.091245362 1.0756718e-15)
(458.14887 -0.0016685106 -9.6867254e-16)
(459.12771 -0.080428547 3.7557962e-16)
(460.66543 0.22606202 4.3039336e-16)
(459.43403 -0.26567793 3.9590689e-16)
(459.11067 -0.014564837 5.1096989e-17)
(458.64099 0.11015047 -7.572105e-17)
(458.90864 0.049604863 2.9387728e-16)
(461.1407 -0.20154387 -7.8052641e-16)
(462.47853 -0.19837154 5.2319597e-16)
(462.04176 0.0013496934 -9.2803988e-16)
(459.87378 0.11488073 -4.3120051e-16)
(459.82983 -0.27080113 1.8274922e-15)
(463.97414 -0.57630703 3.7921455e-16)
(466.8289 -0.57771841 4.5778304e-16)
(469.28771 -0.67356928 1.2437591e-15)
(472.98362 -0.29743559 1.1023244e-15)
(471.72551 0.34735448 -1.2092822e-15)
(467.16379 1.033812 1.44128e-15)
(462.99705 1.711993 -1.8807472e-15)
(455.81043 1.4376763 1.7046241e-15)
(447.25104 0.24042899 -1.460006e-15)
(442.46766 -0.15357021 -3.1090864e-15)
(441.56501 0.65967899 1.8820269e-15)
(437.67111 6.1084133 1.2130945e-15)
(406.38478 15.579332 1.9332498e-15)
(271.21499 19.350353 -2.1531051e-15)
(184.98 11.576732 -3.3373201e-16)
(132.22498 7.9596518 4.8870042e-16)
(97.930274 5.1468431 1.1811438e-16)
(75.396028 3.4671799 4.1768887e-17)
(59.725141 2.4724513 3.0645963e-16)
(48.297207 1.8349451 -9.5867541e-18)
(39.70122 1.3989146 4.6279768e-17)
(33.091406 1.087629 -2.9233092e-17)
(27.921195 0.85899583 6.0423907e-17)
(23.818913 0.68756169 -5.1050031e-17)
(20.523243 0.5568435 -2.4318228e-17)
(17.846186 0.45571149 9.5013388e-17)
(15.65008 0.37642584 2.0473239e-17)
(13.832632 0.31350409 -2.5125594e-18)
(12.31683 0.26299041 1.197904e-17)
(11.044003 0.22199725 -6.6394506e-17)
(9.9689652 0.18838286 -1.6223617e-17)
(9.0565695 0.16054423 -4.3406854e-18)
(8.2792268 0.13726375 1.7702099e-17)
(7.6151067 0.11760911 6.2885475e-19)
(7.0468097 0.10085678 -1.5690167e-17)
(6.5603841 0.086441023 1.9531222e-18)
(6.1445866 0.073913425 1.4172132e-17)
(5.790326 0.06291561 8.8638866e-18)
(5.4902392 0.053157333 1.007379e-17)
(5.2383683 0.04440039 1.0027869e-17)
(5.0299128 0.036447009 1.0090281e-17)
(4.8610398 0.029129295 4.840119e-18)
(4.7287504 0.022302453 -8.4301664e-19)
(4.6306754 0.015837526 1.2079834e-18)
(4.5657419 0.0096129746 1.4316147e-18)
(4.524624 0.0033666724 -2.1546574e-18)
(460.97784 0.053595087 5.1715105e-16)
(459.28169 0.15698388 -1.3636783e-15)
(457.71806 -0.3677262 -2.035359e-16)
(461.96053 0.14325265 2.5877029e-16)
(461.30486 -0.0034579281 -1.6600633e-17)
(457.87539 0.24941225 4.8265927e-16)
(459.3928 -0.026050652 9.5517222e-16)
(460.81682 -0.42037774 -9.1687821e-16)
(460.07858 -0.25869075 9.3257299e-16)
(460.78756 0.5457073 -6.1958186e-16)
(459.17431 0.18083186 4.0788569e-16)
(457.94067 -0.64414924 -1.3850704e-15)
(461.55541 0.33317436 -2.106873e-16)
(461.5133 0.19861734 7.6299093e-16)
(458.32966 -0.55664524 7.2033983e-16)
(459.24397 1.0073059 3.2782025e-16)
(460.54752 -0.749172 2.6958866e-16)
(458.64817 -0.11161755 -1.8938051e-16)
(459.43111 0.63025444 -1.1679502e-15)
(460.09013 -0.41272198 1.2307931e-16)
(459.17831 0.24994149 5.984487e-17)
(459.76685 -0.31610516 8.8483456e-16)
(458.82616 -0.30048782 7.0417693e-16)
(458.42755 0.39127289 -6.7833308e-16)
(461.04674 -0.47033037 -6.1066712e-17)
(462.91054 -0.33583317 -7.814923e-16)
(462.02669 0.66552018 2.3390387e-16)
(459.36151 0.20064429 -8.6424858e-16)
(459.43912 -0.65006607 5.1622942e-16)
(464.15454 -0.95356108 -3.2700808e-16)
(467.70497 -1.0200293 1.6418621e-15)
(469.82352 -0.95003527 -7.6433445e-16)
(472.25448 0.17985489 9.07334e-16)
(470.29716 0.63175699 -7.3074453e-16)
(466.52027 0.38747122 3.4257711e-16)
(464.56298 1.5927465 -6.2706365e-16)
(458.97737 2.9277915 7.4241688e-16)
(449.28001 2.0240592 -1.1901924e-15)
(441.32398 0.63091913 -2.0306207e-15)
(434.00269 1.3468997 2.2364011e-16)
(422.31438 7.7238386 -2.9117513e-16)
(398.81071 20.119187 -2.7080225e-15)
(278.32805 36.662037 -1.0261594e-15)
(185.92262 20.652319 -1.488312e-16)
(131.57184 13.205636 -1.0651623e-16)
(97.304532 8.3181518 -6.9937442e-17)
(75.014052 5.58856 2.6173985e-16)
(59.488439 3.9913881 -6.7406615e-17)
(48.13953 2.9666403 -1.1831402e-16)
(39.590357 2.2641627 -2.6694805e-16)
(33.010645 1.7618761 1.3860708e-16)
(27.860913 1.3925765 1.4991963e-17)
(23.773074 1.1154539 -1.2124614e-17)
(20.487841 0.90400854 -1.1386158e-16)
(17.818465 0.74031976 -3.0391868e-17)
(15.628099 0.61191381 -3.1065516e-18)
(13.814999 0.50994959 -7.9951309e-17)
(12.302528 0.42804468 1.2244439e-17)
(11.032283 0.36153813 -3.7813325e-18)
(9.9592656 0.30697123 -3.8981087e-17)
(9.048466 0.26175414 -3.5210399e-18)
(8.2723944 0.22391874 -2.3202837e-19)
(7.609294 0.19195735 7.5618612e-18)
(7.0418201 0.16469939 5.1023837e-18)
(6.5560621 0.14122906 -8.2119045e-18)
(6.140808 0.12082015 -4.1573559e-19)
(5.7869908 0.1028919 1.2816572e-17)
(5.4872654 0.086973734 -1.4446108e-18)
(5.2356882 0.072679125 2.2335528e-18)
(5.0274694 0.05968695 2.2330762e-18)
(4.8587844 0.047724287 -4.1618679e-19)
(4.7266403 0.036555445 -2.3760444e-19)
(4.6286712 0.02597007 2.0597237e-18)
(4.5638098 0.01577242 2.806578e-18)
(4.5226976 0.0055038575 8.3387254e-19)
(461.93336 0.012465688 -3.5541568e-17)
(457.58681 0.33568083 -1.2497618e-17)
(457.86623 -0.32613408 -8.4086659e-16)
(463.01545 -0.48056117 -2.5118481e-16)
(461.04507 0.55707031 -1.3616049e-16)
(457.67691 0.33391528 -6.1767981e-16)
(459.69941 -0.46155703 4.6883209e-16)
(460.54571 -0.1032231 -2.4622826e-16)
(460.70477 -0.23548037 3.0588163e-16)
(460.10472 0.62968836 -5.2559682e-16)
(459.3318 -0.65077079 -5.3589515e-16)
(458.44388 0.38797201 2.2386454e-16)
(461.33386 -0.017297424 9.1145594e-16)
(460.5966 -1.025541 5.4023666e-16)
(459.361 1.7759466 -3.0677683e-16)
(459.68638 -0.53571193 7.8042252e-16)
(458.73529 -0.28229618 9.4528501e-17)
(459.01222 -0.31592556 1.4032164e-17)
(461.01661 0.4192183 -6.4878663e-16)
(459.78173 0.45160969 1.8161367e-16)
(457.69323 -0.61403114 2.7070046e-16)
(459.80946 -0.17596219 2.6141742e-16)
(460.37587 -0.36118737 -6.6370339e-17)
(458.81684 0.17847504 -3.3263831e-16)
(460.01889 -0.53004419 9.2061159e-16)
(462.43266 -0.67777963 1.2157443e-16)
(462.19678 0.84403907 -2.3402635e-16)
(459.45267 0.5677013 -4.4593001e-16)
(459.74582 -1.0070803 6.0793271e-16)
(464.54115 -1.4561207 -1.1249199e-16)
(466.98865 -1.1947815 8.0908678e-16)
(468.68333 -1.3525807 3.005461e-16)
(472.50263 -0.13521691 -3.3839099e-17)
(471.94439 1.1831696 9.1253315e-17)
(467.33604 1.3270229 6.7294647e-16)
(463.04353 1.6248379 -5.3467681e-16)
(457.74539 2.3610874 8.2126758e-16)
(450.58883 2.2454116 -7.5240689e-17)
(443.81258 2.2178179 -1.1680048e-15)
(434.76292 3.0548749 -4.8565329e-16)
(417.46991 7.6737748 -7.3699233e-17)
(392.64877 21.472121 -5.8806149e-16)
(316.43802 41.663967 -5.5923368e-16)
(185.058 31.081519 -6.472536e-17)
(130.0675 18.376865 1.2119718e-16)
(96.328826 11.280005 -7.2416062e-18)
(74.455312 7.5732004 -2.5468705e-17)
(59.144872 5.4209131 -1.3888009e-16)
(47.910338 4.0361537 -8.9778078e-17)
(39.428901 3.0840813 -1.1759175e-17)
(32.892867 2.4020474 -2.8787731e-17)
(27.77291 1.8999893 -9.1073042e-18)
(23.706098 1.5229199 -3.7051853e-17)
(20.436075 1.2350135 -1.8852075e-17)
(17.777902 1.0119951 -5.4102174e-18)
(15.595913 0.83694782 1.3555784e-17)
(13.789159 0.69787138 -5.6228468e-18)
(12.281554 0.58609704 1.6792987e-17)
(11.015082 0.49529068 1.2150827e-17)
(9.9450185 0.42074948 -9.6057858e-18)
(9.0365528 0.35895035 -3.8515034e-18)
(8.2623404 0.30721458 -3.7055977e-18)
(7.6007314 0.26348929 -4.7509173e-18)
(7.0344611 0.22617979 3.5415012e-18)
(6.5496792 0.19403793 4.9907203e-18)
(6.1352192 0.16607349 -2.3312529e-18)
(5.782049 0.14149414 1.9117533e-18)
(5.4828503 0.11965754 -4.0780606e-18)
(5.2317 0.10003571 -4.036222e-18)
(5.023824 0.082189718 2.2060059e-18)
(4.8554095 0.065746159 1.6876007e-18)
(4.7234724 0.050382456 1.1362796e-20)
(4.6256514 0.035810198 -2.3610814e-19)
(4.5608832 0.021762895 -5.9411562e-19)
(4.5197851 0.0075980677 -3.5398418e-18)
(461.3873 0.18670905 -1.7576985e-16)
(456.12265 0.44130596 1.4905788e-16)
(461.05517 -0.96750865 2.3518872e-16)
(461.34394 0.027742805 2.7249926e-16)
(461.74151 0.40240173 -2.9124413e-16)
(458.33369 0.29275891 8.6446482e-17)
(458.28742 -0.15824395 -6.9609944e-17)
(459.75055 -0.63423181 -4.2492457e-16)
(462.91005 -0.095461796 -5.1025988e-17)
(459.34936 0.80907684 -1.6041429e-16)
(458.45944 -0.067446833 -5.5195631e-16)
(458.92356 -0.75624806 1.8926353e-16)
(462.44576 0.58311269 -7.6395647e-17)
(459.4805 -0.14581738 1.1569105e-16)
(457.78252 -0.50359492 -9.2716738e-17)
(461.22502 2.0035093 9.9107283e-17)
(459.30528 -1.4910263 2.5359193e-16)
(456.41392 -0.40861239 1.0899558e-16)
(461.69126 0.76057813 -2.2755801e-16)
(461.8099 0.22613625 3.9595626e-16)
(456.6877 0.31183096 3.4620561e-16)
(458.08221 -1.4637287 -6.3189156e-19)
(461.09189 0.11675846 1.1741504e-16)
(460.61074 0.38246145 -7.3274495e-17)
(459.79183 -1.0983937 -1.8688395e-18)
(461.0589 -0.65654898 4.34727e-16)
(461.93062 0.61421339 9.7265184e-17)
(459.69719 0.54764322 -3.8602731e-16)
(459.50125 -0.91047837 1.903466e-16)
(464.20305 -1.826226 1.9959259e-17)
(467.51678 -1.4714068 1.2056871e-16)
(469.62112 -1.5400693 3.5602517e-16)
(471.65726 -0.093272854 3.1019521e-16)
(469.64771 1.1615367 -5.8878532e-16)
(468.04911 1.534767 -5.0515933e-16)
(466.35941 2.9370098 -6.505727e-17)
(458.17825 4.1517301 -1.566379e-16)
(449.12004 2.7578867 -4.5816747e-16)
(444.50106 2.1641483 -5.863757e-16)
(435.51189 4.3334861 -8.7590397e-16)
(415.7946 10.653914 -3.426385e-16)
(388.06667 26.255274 -4.0845892e-17)
(307.02015 49.801555 -1.0641245e-15)
(177.0837 42.292966 -5.9603386e-17)
(127.0697 23.251683 -4.6550785e-18)
(94.994037 14.064038 -4.3423128e-17)
(73.740352 9.4784336 1.4452046e-17)
(58.706175 6.8088797 -1.4199088e-17)
(47.616467 5.0809056 -1.1855638e-16)
(39.221184 3.8880025 -3.6203345e-17)
(32.740993 3.0313947 2.0466874e-17)
(27.659237 2.3998897 -4.0867178e-17)
(23.619463 1.9251007 9.0873167e-18)
(20.369029 1.5622762 1.4502094e-17)
(17.725301 1.2810186 -1.4765677e-17)
(15.554125 1.0601109 -1.05491e-17)
(13.755571 0.88448775 4.4836924e-18)
(12.25426 0.74325659 9.6064079e-18)
(10.992671 0.62845327 -4.8475634e-18)
(9.9264348 0.53416077 -8.2884909e-18)
(9.020995 0.45594385 -5.2608006e-18)
(8.2491943 0.3904283 -1.3780781e-18)
(7.589521 0.33502682 1.1195002e-18)
(7.0248137 0.28772847 3.0831877e-18)
(6.5412994 0.24695852 -4.5941961e-18)
(6.1278708 0.21146691 -4.9725627e-18)
(5.7755407 0.18025287 5.6303155e-18)
(5.4770253 0.15250458 -1.8914927e-18)
(5.226428 0.12755423 -1.408664e-19)
(5.0189952 0.10484639 2.5377069e-18)
(4.850929 0.083908003 -1.4400847e-19)
(4.7192566 0.06433024 -1.3210723e-18)
(4.6216233 0.045747118 -2.631375e-18)
(4.5569701 0.027821264 4.3297658e-19)
(4.5158792 0.0097435688 -1.1561745e-18)
(461.17544 0.28508648 -2.5893757e-16)
(456.99472 0.24529983 -1.3090151e-17)
(460.74612 -0.84403674 -1.4301443e-16)
(458.82156 -0.30193124 4.2155648e-16)
(466.42732 0.71894019 -6.4323521e-16)
(454.08353 0.54795094 6.2560778e-16)
(459.1491 -0.37238545 -1.9154399e-16)
(461.32417 -0.87126449 -6.5154802e-18)
(460.78963 -0.059367438 -5.7452477e-18)
(459.73209 1.2552263 2.5165256e-16)
(460.83674 -0.99801894 -4.3099579e-16)
(456.0627 0.27077558 5.0344988e-16)
(462.70751 0.0058046569 8.4309525e-17)
(461.32442 -0.68120939 -3.4487316e-16)
(456.33873 1.7013159 1.0771582e-17)
(458.87718 -0.80270627 1.4053162e-17)
(461.50747 0.65240323 -3.615706e-17)
(457.90178 -1.3264441 1.7215694e-17)
(458.95912 0.57465975 1.9303034e-16)
(462.79558 0.84417962 -9.1790388e-17)
(458.35292 -0.23578415 4.4624568e-16)
(456.28589 -0.57307163 -1.0620374e-16)
(460.68286 -1.0069203 4.4295754e-16)
(461.80479 1.1813434 -2.9585972e-16)
(459.84929 -1.1905445 1.3142401e-16)
(460.22573 -1.1162198 6.4954332e-17)
(461.33304 0.69509351 4.4208897e-16)
(459.50236 0.17005061 -3.0368714e-16)
(459.37272 -1.1227389 -1.2069521e-16)
(464.00965 -1.9029167 8.5271482e-17)
(467.92155 -1.998875 4.2793226e-16)
(470.7065 -1.8978614 -3.8770402e-16)
(471.72682 0.3975319 2.6944426e-16)
(467.90965 1.461254 5.2685463e-17)
(465.51623 1.1429054 5.1142515e-16)
(466.69548 3.1413257 1.0613487e-16)
(463.02146 4.9994567 1.3927192e-16)
(452.49654 3.8328555 -1.6650058e-16)
(439.99337 4.4275862 3.038077e-16)
(429.44679 7.6441911 -7.4993875e-16)
(418.35522 13.646471 -2.1508228e-16)
(387.45277 33.293445 6.6469203e-16)
(239.45243 67.702524 1.3179188e-17)
(164.36606 49.623823 1.2279007e-17)
(123.109 27.095817 -6.9869922e-17)
(93.398866 16.583041 6.2773068e-17)
(72.897706 11.276884 -9.3479314e-17)
(58.184502 8.1388018 -4.6725148e-17)
(47.264611 6.0888984 -3.3790684e-17)
(38.971418 4.6667387 3.337288e-18)
(32.557874 3.642706 5.3919025e-18)
(27.521907 2.886516 -1.7718588e-17)
(23.514628 2.3173264 5.5611364e-18)
(20.287779 1.8819656 1.0278197e-17)
(17.661471 1.5442132 -8.3967731e-18)
(15.50335 1.278744 -7.7608112e-18)
(13.714708 1.0675544 -2.0237304e-18)
(12.221013 0.89761574 -3.818502e-18)
(10.965339 0.7593946 -8.8814896e-18)
(9.903742 0.64580302 -5.612041e-18)
(9.0019737 0.55152476 3.0878574e-19)
(8.2331018 0.47251271 -2.3371716e-19)
(7.5757809 0.40566192 -1.1728797e-18)
(7.012974 0.3485576 -6.2532199e-18)
(6.5310018 0.29930782 3.0203084e-18)
(6.1188282 0.25640981 2.5175925e-18)
(5.7675202 0.21865973 -3.273687e-18)
(5.469836 0.18508055 -2.9159974e-19)
(5.2199109 0.15486784 -6.5095297e-19)
(5.0130156 0.12735222 -1.3302951e-18)
(4.845371 0.10196292 -2.2166088e-19)
(4.7140172 0.078206454 1.3128605e-18)
(4.6166072 0.055640543 -1.5065029e-18)
(4.5520898 0.033860079 1.6248463e-19)
(4.5110011 0.011884473 1.4396804e-18)
(461.38452 0.43738546 -2.7030903e-16)
(458.46582 0.22409127 1.5264472e-16)
(459.30597 -0.85004067 -3.3814825e-16)
(458.32171 -0.70990488 7.5617429e-16)
(467.02636 0.94643233 -5.6064465e-16)
(452.98742 0.88175361 3.0624078e-16)
(461.9398 -0.82119669 -7.216858e-17)
(457.44529 -0.87010963 1.4903588e-16)
(463.72257 0.11510649 -1.4215915e-16)
(460.57231 0.8006694 1.1756214e-18)
(456.99237 0.019449685 9.8737876e-17)
(460.09571 -0.72269636 1.3977888e-16)
(461.87351 0.10320182 3.423456e-16)
(459.3563 0.25868138 -2.7465204e-16)
(458.75848 -0.10858448 7.9002978e-17)
(458.47661 1.6891313 -7.544751e-17)
(458.56367 -2.3602986 1.7414736e-16)
(461.44876 0.7874023 -1.0565367e-16)
(459.47301 -0.2578194 -3.1878695e-17)
(459.56754 0.72816296 -1.9626979e-17)
(460.15521 0.58670396 3.3607437e-17)
(456.43334 -1.4396301 -2.7417727e-17)
(458.54419 -0.44096419 2.7239463e-16)
(463.03668 0.40081027 -1.2078817e-16)
(461.12293 -0.32225505 -3.1003112e-16)
(459.36557 -1.2411328 5.3535219e-16)
(459.95551 0.55340286 -1.8210591e-16)
(459.39551 0.31352336 -8.1535699e-17)
(460.27728 -1.7763102 -2.1153109e-16)
(464.82456 -2.6053082 9.4197267e-17)
(468.58599 -2.1865847 1.1320724e-16)
(471.21288 -1.9820742 2.3221274e-16)
(471.40529 0.35874281 2.92323e-17)
(467.2973 1.6484832 1.4824808e-16)
(464.67425 1.4304602 3.0038062e-16)
(465.49118 2.7697506 -2.8173905e-16)
(463.33491 5.2157183 1.8672912e-16)
(455.49292 4.767468 3.174837e-16)
(442.59594 5.1889258 3.9799232e-17)
(428.18971 10.528799 -3.6022959e-16)
(413.24331 23.016106 -4.3130673e-16)
(325.52571 58.933903 -2.4141724e-16)
(211.15728 73.000321 -1.4570719e-16)
(155.8808 52.327473 -1.6604581e-16)
(119.41397 29.975499 -1.0776441e-16)
(91.696018 18.847709 -5.6884898e-17)
(71.956442 12.965894 -7.8575203e-17)
(57.591149 9.4079857 1.7555682e-17)
(46.860829 7.0582905 -1.5260062e-17)
(38.683372 5.4190642 -3.5837636e-18)
(32.346038 4.2351616 -1.0708056e-17)
(27.36269 3.3593177 -2.7867611e-18)
(23.392868 2.6992272 2.0773102e-17)
(20.193263 2.1938341 1.2032148e-17)
(17.587109 1.8014148 -1.6881427e-17)
(15.444113 1.4927401 3.5445569e-18)
(13.666971 1.247004 6.0751253e-18)
(12.182121 1.0491342 -5.8490515e-18)
(10.933325 0.88809281 1.2313846e-18)
(9.8771278 0.75566689 -3.6062412e-19)
(8.9796372 0.64569199 4.4377093e-18)
(8.2141806 0.55347207 -1.0678042e-18)
(7.5596052 0.47540207 -2.0552211e-19)
(6.9990177 0.40867642 1.6395281e-18)
(6.5188476 0.35109578 1.1076772e-19)
(6.108141 0.30091213 -2.5625273e-18)
(5.7580282 0.25672418 -7.4654139e-19)
(5.4613156 0.21739408 7.5824408e-19)
(5.2121758 0.18198414 -5.3180333e-18)
(5.0059078 0.14971367 2.8610507e-19)
(4.8387538 0.11991625 2.6040695e-18)
(4.7077692 0.092015531 -2.8267934e-18)
(4.6106166 0.065494514 -4.1418074e-19)
(4.5462517 0.039880118 3.3059854e-18)
(4.5051617 0.014022336 3.3576737e-18)
(460.005 0.23252741 6.6833043e-18)
(460.62211 0.50815473 -1.8484021e-16)
(458.48323 -0.76034059 2.903155e-16)
(459.92346 -0.89715842 7.0889396e-17)
(462.9978 1.0237706 -1.8131388e-16)
(457.51741 1.0271195 -7.7189354e-17)
(459.29103 -0.68135367 2.6626234e-16)
(457.23456 -1.2141005 -4.2133607e-17)
(467.12787 -0.20204836 3.3052849e-16)
(456.2281 1.7866816 -2.191843e-16)
(461.67919 -1.0457551 4.1764732e-16)
(456.31394 -0.1069011 8.5101172e-17)
(461.4398 0.11980652 5.9010609e-17)
(464.15095 -0.41444099 -8.0918151e-18)
(452.33717 1.8014205 -1.8958983e-16)
(463.19899 -0.77681507 1.3853255e-16)
(457.0585 0.19953506 3.9233141e-17)
(458.97244 -2.1444673 2.4669676e-17)
(462.8588 2.0998093 -9.7800048e-17)
(457.23085 -0.10579142 -2.5257611e-17)
(458.84836 0.66182853 1.0706224e-16)
(458.93721 -0.91507767 4.4599279e-17)
(456.53756 -1.5716327 2.4793757e-16)
(462.38287 0.87096788 -2.3817357e-16)
(463.78658 -0.61084543 -3.8023712e-16)
(459.03792 -0.40340512 9.1826559e-17)
(457.79625 0.27899434 8.9868855e-17)
(459.27036 -0.022176679 2.4866843e-16)
(461.95243 -2.1046456 2.4481554e-16)
(465.45122 -2.8258267 -4.3672437e-16)
(467.88304 -2.9832625 1.4999341e-16)
(471.96689 -2.3237742 7.7681321e-17)
(471.82401 1.127579 -1.2611687e-18)
(464.97335 2.0307297 -3.6097048e-16)
(462.92545 0.44074539 -2.2319025e-17)
(466.91341 2.9898948 -7.057133e-18)
(466.36301 4.9245859 -2.1891073e-16)
(458.38436 5.2016725 -4.5808373e-16)
(445.19831 6.408509 -7.0709178e-17)
(427.87205 10.728166 4.5449935e-16)
(406.56571 26.919597 -6.6869768e-16)
(287.75225 67.389958 -3.4695386e-16)
(196.24879 76.371363 -3.2866201e-16)
(149.63502 53.995057 -1.0080704e-16)
(115.98516 32.377866 -1.4655186e-16)
(89.932382 20.9037 -4.442568e-19)
(70.936891 14.548715 -4.1685873e-17)
(56.935971 10.615416 -1.9606409e-17)
(46.410643 7.9878683 -3.221171e-17)
(38.360506 6.1439938 2.2545077e-18)
(32.107811 4.8080065 -1.1850732e-18)
(27.183217 3.8177196 6.4365559e-18)
(23.255357 3.0703615 1.0377522e-17)
(20.086341 2.497538 -6.9805175e-18)
(17.502855 2.0523521 -1.2860445e-17)
(15.376898 1.7018816 -4.3710234e-18)
(13.612728 1.422659 -3.8916112e-18)
(12.137869 1.1976652 3.8988481e-18)
(10.896849 1.0144252 -1.8429778e-18)
(9.846765 0.86364844 -3.3548171e-18)
(8.9541218 0.7383566 -5.476701e-18)
(8.192539 0.63322959 -8.3466856e-18)
(7.5410802 0.54418049 5.2417128e-18)
(6.9830143 0.46802656 -7.7298845e-19)
(6.5048927 0.40227121 -2.0517393e-18)
(6.0958547 0.34492887 2.6839621e-18)
(5.7471016 0.29440674 1.9419586e-19)
(5.4514944 0.24941068 -8.7089073e-19)
(5.2032476 0.20887324 1.1943358e-18)
(4.9976921 0.17190523 8.3509302e-19)
(4.8310942 0.13774676 1.1761189e-18)
(4.7005267 0.10574039 -1.511376e-18)
(4.6036622 0.075295877 1.1524469e-18)
(4.5394655 0.045874657 2.5009666e-18)
(4.4983715 0.016159246 3.5280763e-20)
(460.24049 0.25109247 6.0967667e-17)
(459.37377 0.39366245 -8.3735831e-18)
(459.15185 -0.69572068 1.1109172e-16)
(460.67669 -0.86585181 -8.0701578e-17)
(462.19637 0.94897011 2.1750261e-16)
(459.51595 1.2184203 -1.4748076e-16)
(456.40631 -0.5602757 1.7600395e-16)
(459.3864 -1.6438205 1.3235465e-16)
(462.34839 0.22191894 -8.1619285e-17)
(461.98477 1.4562379 3.2527024e-16)
(459.24588 -0.26275231 -2.4306964e-16)
(453.39614 -0.5233161 2.9405145e-16)
(465.30716 -0.56611366 -5.3210982e-17)
(458.51483 0.93253432 3.5378114e-16)
(459.35658 0.31422698 -1.8732772e-16)
(455.90408 1.0316124 -3.3760281e-17)
(461.52737 -2.1928833 1.2033842e-16)
(456.95826 0.26213428 -1.7022943e-16)
(460.95917 -0.43466265 2.2960576e-16)
(459.99571 2.1050315 1.9823928e-17)
(456.0644 -0.43901697 4.3687729e-17)
(459.61175 -0.67223305 -3.7540058e-16)
(457.17818 -1.0348782 3.3664342e-16)
(458.84142 -0.3144853 -2.608733e-16)
(465.24342 0.24579279 3.7670815e-16)
(459.66991 -0.30934985 -1.9644683e-16)
(455.15924 0.38418907 -5.3546053e-17)
(457.65098 -0.44102389 3.7052265e-17)
(461.61582 -2.4052731 1.1964411e-16)
(466.67236 -3.1310942 -2.2464138e-16)
(467.42415 -2.8815788 -2.4994156e-16)
(469.91043 -2.9214183 1.6459903e-16)
(472.05936 1.362556 2.0367719e-16)
(464.29133 2.6620528 -4.0881171e-17)
(460.81602 0.7653776 -1.627637e-16)
(467.44079 0.59167193 -2.7203761e-16)
(469.14481 6.4732452 -2.1416733e-16)
(459.91773 6.9877105 2.4357527e-16)
(442.759 8.9954706 2.9943753e-16)
(422.77244 13.644154 1.3867899e-16)
(398.82252 29.809822 -1.0389353e-18)
(273.08204 77.061997 -1.9512571e-16)
(188.04068 79.738648 -1.2910778e-16)
(144.42205 55.501993 -4.0386432e-17)
(112.738 34.485283 -1.8170401e-16)
(88.130844 22.778603 -3.3782741e-17)
(69.854882 16.029347 -2.7844722e-17)
(56.227642 11.761024 2.9703359e-17)
(45.91912 8.8769452 7.5565445e-19)
(38.006044 6.8408632 1.6614573e-17)
(31.845371 5.3607038 -2.2256546e-18)
(26.985018 4.2613074 2.1478329e-17)
(23.103196 3.4304118 -2.339546e-17)
(19.967822 2.7928328 -2.0775598e-17)
(17.409313 2.2968344 1.3386641e-18)
(15.30216 1.9060178 1.0459058e-18)
(13.552324 1.5943991 -6.4589394e-18)
(12.088521 1.3431112 1.8817445e-18)
(10.856118 1.1383114 1.1442441e-18)
(9.8128148 0.9696807 6.8473699e-19)
(8.9255544 0.82946213 -7.097006e-19)
(8.1682778 0.71173714 9.5387929e-20)
(7.5202867 0.61195575 2.0681768e-18)
(6.9650285 0.52657205 3.1131786e-18)
(6.4891896 0.45280268 3.6559872e-18)
(6.0820118 0.38843253 6.6209921e-19)
(5.734775 0.33168327 -1.114215e-18)
(5.4404006 0.28110924 1.0814324e-18)
(5.1931493 0.23551685 2.0037835e-18)
(4.9883875 0.19391132 1.1837703e-18)
(4.8224079 0.15544149 -9.6410752e-19)
(4.6923025 0.11937083 -2.0808136e-19)
(4.5957556 0.085037627 9.276385e-19)
(4.5317406 0.05184008 -2.2751544e-18)
(4.4906382 0.018293879 9.4827601e-19)
(461.43364 0.32739525 -6.6872793e-17)
(458.72756 0.45679034 -2.3445607e-16)
(456.49828 -0.84351583 -5.8743105e-17)
(461.77619 -1.0335713 -3.3331438e-16)
(463.25853 0.96056507 1.4251042e-16)
(459.6285 1.4474702 -4.7074311e-17)
(456.86265 -0.49093003 -1.2240024e-17)
(457.78901 -1.8217215 1.9485742e-16)
(461.40442 -0.2396431 -3.7981261e-17)
(464.27161 1.8054509 -1.2935044e-16)
(457.16281 0.10682986 -1.2722606e-16)
(455.76666 -0.74177727 8.8485683e-17)
(459.37127 -0.61786056 5.7443943e-17)
(464.77289 0.4846518 8.2282197e-17)
(454.82467 1.845925 4.6385142e-17)
(459.30846 -0.82242591 6.1409256e-17)
(457.04489 -0.45262964 -2.8312926e-16)
(461.36632 -1.7784916 3.8121338e-16)
(457.8854 1.9099338 -3.1284041e-16)
(458.70232 -0.12987594 1.4504903e-17)
(458.34227 1.2123737 3.473731e-16)
(453.84011 -1.7631337 -5.6465989e-16)
(461.38788 -0.10783683 3.4830855e-16)
(456.05129 -0.77995602 -4.6713322e-17)
(462.6496 -0.28201764 -2.9104548e-16)
(462.66234 0.83956646 -2.4154414e-17)
(451.53265 0.37702711 3.2667933e-16)
(455.08022 -1.0083156 7.7027956e-17)
(461.92765 -2.8509344 -9.8490748e-17)
(466.56251 -3.0664959 1.5199636e-16)
(467.46817 -3.3040109 9.5703538e-17)
(467.11632 -3.0901972 -1.0112333e-16)
(472.07507 0.86864111 -1.3982569e-16)
(462.69065 3.1194892 2.6838854e-16)
(460.09114 0.14354827 1.6623828e-16)
(465.95767 2.2540608 6.9170437e-17)
(469.19422 3.3140066 -3.067079e-16)
(461.91918 7.8939309 1.1855059e-16)
(444.23242 12.805011 3.5823645e-16)
(421.83928 17.383672 1.1808844e-16)
(366.32897 48.642196 7.8629624e-17)
(251.81926 90.383887 -5.3074558e-16)
(179.60171 83.151246 -9.7026903e-17)
(139.38462 56.962986 2.1855131e-17)
(109.59194 36.361401 7.9085403e-17)
(86.30436 24.490653 7.2463714e-17)
(68.723132 17.4124 3.6243404e-17)
(55.473767 12.845598 -1.188897e-17)
(45.390884 9.7253507 -2.1270468e-17)
(37.62298 7.509307 -2.7654437e-18)
(31.56076 5.8928955 1.6251269e-18)
(26.769534 4.6897757 1.5386491e-17)
(22.937427 3.7791278 -2.124971e-18)
(19.838471 3.0795148 9.8670358e-18)
(17.307053 2.5346954 -4.4664767e-18)
(15.220328 2.105012 -4.0630975e-18)
(13.486089 1.7621104 -6.5870416e-18)
(12.034331 1.4853767 7.2548695e-19)
(10.811328 1.2596703 4.6184606e-18)
(9.7754312 1.0736944 -2.370274e-18)
(8.8940568 0.91894883 -2.4378007e-18)
(8.1414936 0.78894279 -1.7073713e-19)
(7.4973018 0.67868249 -8.6793654e-20)
(6.9451223 0.58427307 -1.3261287e-18)
(6.4717883 0.50265513 -3.481777e-18)
(6.066653 0.43139218 -2.8781857e-19)
(5.7210817 0.36852657 -2.0688919e-18)
(5.4280614 0.31246594 -3.9635977e-19)
(5.1819035 0.26189428 1.6548698e-18)
(4.9780126 0.21571424 -2.0943457e-18)
(4.8127103 0.17298575 -1.6193831e-18)
(4.6831094 0.13289522 8.2671421e-19)
(4.586907 0.09471068 -1.9119627e-18)
(4.5230862 0.057770459 -9.9081816e-19)
(4.4819706 0.0204238 8.0669667e-19)
(461.55416 0.20369425 1.0174386e-16)
(461.48901 0.92050164 -3.9114224e-19)
(453.42185 -1.0809233 7.9648376e-16)
(461.26837 -1.3591776 -3.7017273e-17)
(463.3026 0.94803993 1.0599673e-16)
(460.12748 1.6696851 4.3192579e-17)
(458.41977 -0.23861592 3.3874105e-16)
(457.44859 -2.1039629 -1.0000524e-16)
(460.73295 -0.47784826 3.1569065e-16)
(462.94682 1.7623979 -6.6815952e-17)
(459.54308 0.66458365 3.4808607e-16)
(454.26008 -0.59198855 -1.2745804e-17)
(460.3316 -1.461146 5.889475e-18)
(462.97689 0.94246378 1.851195e-16)
(456.26193 1.5424536 -2.9344491e-16)
(455.8334 0.27681792 6.9899385e-16)
(460.6286 -2.2454112 -7.7840791e-16)
(459.08855 0.0050581692 5.7151093e-16)
(460.50779 0.30565207 -3.2033823e-16)
(456.52762 1.9550895 2.8557084e-16)
(455.88233 -0.7563306 1.541622e-16)
(457.5611 -0.49057075 -1.6208749e-16)
(457.42782 -1.7079223 -1.2382252e-16)
(462.8581 0.9849862 1.9934295e-16)
(454.96425 -1.6518682 3.88442e-17)
(465.05824 2.0978013 1.1510127e-16)
(453.4857 0.98710195 2.2840827e-16)
(449.91424 -1.885496 1.2305978e-16)
(463.58032 -3.5597259 -3.391725e-16)
(467.36531 -3.2214499 -7.0097534e-17)
(464.80865 -2.7569613 7.4564143e-17)
(468.30521 -3.5220318 5.9444543e-17)
(466.95437 1.0186084 -3.6879377e-16)