/*--------------------------------*- C++ -*----------------------------------*\
| =========                 |                                                 |
| \\      /  F ield         | OpenFOAM: The Open Source CFD Toolbox           |
|  \\    /   O peration     | Version:  2.3.0                                 |
|   \\  /    A nd           | Web:      www.OpenFOAM.org                      |
|    \\/     M anipulation  |                                                 |
\*---------------------------------------------------------------------------*/
FoamFile
{
    version     2.0;
    format      ascii;
    class       volScalarField;
    location    "1.6e-05";
    object      nuSgs;
}
// * * * * * * * * * * * * * * * * * * * * * * * * * * * * * * * * * * * * * //

dimensions      [0 2 -1 0 0 0 0];

internalField   nonuniform List<scalar> 
7500
(
4.1404798e-10
4.1911129e-10
4.2475638e-10
4.3000098e-10
4.3487916e-10
4.3987957e-10
4.4487924e-10
4.498295e-10
4.5474855e-10
4.5993872e-10
4.6479811e-10
4.6994151e-10
4.7487101e-10
4.7981512e-10
4.8469207e-10
4.9011639e-10
4.9569117e-10
5.0263517e-10
5.0940955e-10
5.1696124e-10
5.2418983e-10
5.3150396e-10
5.3865599e-10
5.4541845e-10
5.5195598e-10
5.5795439e-10
5.6395693e-10
5.6942685e-10
5.7467358e-10
5.7911516e-10
5.8381178e-10
5.884093e-10
5.9252287e-10
5.9625184e-10
6.0000293e-10
6.0337036e-10
6.0729625e-10
6.1154072e-10
6.1489635e-10
6.2415835e-10
6.2742848e-10
6.309311e-10
6.3403536e-10
6.3743159e-10
6.4060823e-10
6.4421447e-10
6.4758525e-10
6.507469e-10
6.5360375e-10
6.5694772e-10
6.6022736e-10
6.6371907e-10
6.6752788e-10
6.7146089e-10
6.7499337e-10
6.7871435e-10
6.8269488e-10
6.8683044e-10
6.9230825e-10
6.9779384e-10
7.0214673e-10
7.0794987e-10
7.1448989e-10
7.1942284e-10
7.2628116e-10
7.3199137e-10
7.4118512e-10
7.4778499e-10
7.5736654e-10
7.6368109e-10
7.731884e-10
7.7945971e-10
7.8908215e-10
7.9561517e-10
8.0830606e-10
4.5548621e-10
4.6117603e-10
4.6673279e-10
4.7234097e-10
4.7787225e-10
4.8373955e-10
4.8981103e-10
4.9573662e-10
5.0179353e-10
5.078681e-10
5.1394957e-10
5.1943426e-10
5.2512991e-10
5.307624e-10
5.3648981e-10
5.4292523e-10
5.5035521e-10
5.6057111e-10
5.7120607e-10
5.8448646e-10
5.9594598e-10
6.0820882e-10
6.1870972e-10
6.2918927e-10
6.37898e-10
6.4628256e-10
6.5325244e-10
6.5941685e-10
6.6483663e-10
6.694123e-10
6.7405452e-10
6.778264e-10
6.818347e-10
6.8461726e-10
6.8829481e-10
6.9088493e-10
6.9479605e-10
6.9779315e-10
7.0138515e-10
7.1145396e-10
7.1461593e-10
7.184075e-10
7.2183511e-10
7.2535976e-10
7.2923737e-10
7.3367636e-10
7.3821268e-10
7.4302817e-10
7.4832508e-10
7.5416222e-10
7.6106131e-10
7.6777815e-10
7.7590096e-10
7.8510709e-10
7.932981e-10
8.0273562e-10
8.1638105e-10
8.2767592e-10
8.4306319e-10
8.6223369e-10
8.765313e-10
8.9770046e-10
9.199824e-10
9.3640951e-10
9.6151113e-10
9.8418318e-10
1.0243581e-09
1.0529179e-09
1.0908363e-09
1.1169311e-09
1.15571e-09
1.1817313e-09
1.2226586e-09
1.2501685e-09
1.3090703e-09
5.0106206e-10
5.078565e-10
5.1409453e-10
5.2087222e-10
5.2819279e-10
5.3720831e-10
5.4765318e-10
5.5727804e-10
5.6764166e-10
5.7640353e-10
5.8492117e-10
5.9192285e-10
5.9858545e-10
6.0507856e-10
6.1177573e-10
6.1944593e-10
6.2986629e-10
6.4844353e-10
6.7626408e-10
7.1156201e-10
7.3966632e-10
7.6889325e-10
7.904365e-10
8.1080083e-10
8.2540552e-10
8.3830697e-10
8.4706759e-10
8.5354449e-10
8.5910877e-10
8.5930225e-10
8.6221418e-10
8.6119714e-10
8.6303184e-10
8.6314245e-10
8.6671376e-10
8.6904404e-10
8.7486577e-10
8.7985775e-10
8.8678408e-10
9.031522e-10
9.1223981e-10
9.2336432e-10
9.3638272e-10
9.5390545e-10
9.7235687e-10
9.9795829e-10
1.0264196e-09
1.05838e-09
1.1062396e-09
1.1451444e-09
1.2030812e-09
1.2475482e-09
1.3088704e-09
1.3806292e-09
1.4324016e-09
1.4945863e-09
1.5902561e-09
1.6612617e-09
1.7652889e-09
1.8820599e-09
1.9651116e-09
2.0938211e-09
2.2114529e-09
2.2938613e-09
2.4139441e-09
2.5274375e-09
2.7231732e-09
2.853892e-09
3.0197621e-09
3.133827e-09
3.2928914e-09
3.4035491e-09
3.5670457e-09
3.6810899e-09
3.9195009e-09
5.5118472e-10
5.6037639e-10
5.6828468e-10
5.7961516e-10
5.9758274e-10
6.1913379e-10
6.4566148e-10
6.6606962e-10
6.8709598e-10
7.0138262e-10
7.135436e-10
7.2316118e-10
7.322265e-10
7.4140032e-10
7.5192127e-10
7.661861e-10
7.9104157e-10
8.4630222e-10
9.4995751e-10
1.0643945e-09
1.1554022e-09
1.2390836e-09
1.2993842e-09
1.3467141e-09
1.3759773e-09
1.39864e-09
1.4113637e-09
1.4215886e-09
1.4212896e-09
1.409403e-09
1.4065304e-09
1.3935469e-09
1.3938047e-09
1.401765e-09
1.4168463e-09
1.4341088e-09
1.4613872e-09
1.4943951e-09
1.5432206e-09
1.6286263e-09
1.6998931e-09
1.8104291e-09
1.9117144e-09
2.0711708e-09
2.1957363e-09
2.3647825e-09
2.5791818e-09
2.7496351e-09
3.0184138e-09
3.2234218e-09
3.530163e-09
3.7567465e-09
4.0246528e-09
4.3643104e-09
4.5884635e-09
4.8638082e-09
5.2544219e-09
5.542178e-09
5.978692e-09
6.4109579e-09
6.7355931e-09
7.243754e-09
7.6517759e-09
7.9376294e-09
8.348752e-09
8.7513467e-09
9.4423827e-09
9.8774568e-09
1.0421265e-08
1.0793407e-08
1.128865e-08
1.1642584e-08
1.2149877e-08
1.2517271e-08
1.3267849e-08
5.9779406e-10
6.1108193e-10
6.263961e-10
6.5240555e-10
6.9715234e-10
7.3827445e-10
7.8488607e-10
8.1983936e-10
8.5863397e-10
8.8541466e-10
9.051132e-10
9.2826404e-10
9.4654243e-10
9.672062e-10
9.9017182e-10
1.0281181e-09
1.0979786e-09
1.2601883e-09
1.5240704e-09
1.7627805e-09
1.9772541e-09
2.1469545e-09
2.2792617e-09
2.3661104e-09
2.4238552e-09
2.4747957e-09
2.5090692e-09
2.5447629e-09
2.5696963e-09
2.5973467e-09
2.6390332e-09
2.6926929e-09
2.7776897e-09
2.8816242e-09
3.0427482e-09
3.2022357e-09
3.4779199e-09
3.7090098e-09
4.0683858e-09
4.4624474e-09
4.8416483e-09
5.4206312e-09
5.8989693e-09
6.6244702e-09
7.1510485e-09
7.7647514e-09
8.7303246e-09
9.332575e-09
1.0248267e-08
1.0952643e-08
1.2075866e-08
1.2888891e-08
1.3712172e-08
1.4851098e-08
1.5586584e-08
1.6489383e-08
1.7700819e-08
1.8602677e-08
2.0012244e-08
2.1257533e-08
2.2334836e-08
2.3849712e-08
2.5030334e-08
2.5858178e-08
2.7070652e-08
2.8231163e-08
3.0261914e-08
3.1446817e-08
3.3005927e-08
3.4013322e-08
3.5343048e-08
3.6293676e-08
3.766052e-08
3.8656732e-08
4.0668622e-08
6.3660512e-10
6.6074591e-10
6.8304376e-10
7.1762345e-10
7.5991906e-10
8.1933699e-10
8.7259791e-10
9.2360919e-10
9.7238274e-10
1.0222987e-09
1.0529477e-09
1.0991985e-09
1.1269038e-09
1.1729183e-09
1.2055481e-09
1.2658144e-09
1.3680227e-09
1.5971049e-09
1.8577873e-09
2.1529883e-09
2.4277409e-09
2.628881e-09
2.8669543e-09
3.0641326e-09
3.2013701e-09
3.4415566e-09
3.6448397e-09
3.8933485e-09
4.2924026e-09
4.6164856e-09
5.1763752e-09
5.6499593e-09
6.4627129e-09
7.0783445e-09
8.0600569e-09
8.818013e-09
1.0095231e-08
1.1032434e-08
1.2549834e-08
1.372336e-08
1.555935e-08
1.70625e-08
1.9020368e-08
2.1137051e-08
2.2916065e-08
2.4786534e-08
2.7805587e-08
2.9547359e-08
3.2248206e-08
3.4229473e-08
3.748229e-08
3.9840986e-08
4.2098841e-08
4.5257795e-08
4.7295484e-08
4.9795445e-08
5.294981e-08
5.5368328e-08
5.9145443e-08
6.2295778e-08
6.5184035e-08
6.9008104e-08
7.1983486e-08
7.4092662e-08
7.7201502e-08
8.0053162e-08
8.5092027e-08
8.7978382e-08
9.175295e-08
9.4152203e-08
9.720048e-08
9.9452612e-08
1.0272337e-07
1.0509017e-07
1.0976146e-07
6.6516706e-10
7.3024495e-10
7.4690541e-10
7.9475025e-10
8.5154393e-10
9.3389802e-10
1.0147739e-09
1.1056412e-09
1.1804948e-09
1.2571276e-09
1.3001838e-09
1.3530345e-09
1.3768932e-09
1.4088372e-09
1.4431128e-09
1.5042234e-09
1.6073238e-09
1.8423253e-09
2.0532997e-09
2.4293049e-09
2.7290202e-09
3.2179009e-09
3.6865295e-09
4.4389826e-09
5.057735e-09
6.0940047e-09
7.0199597e-09
8.2562391e-09
1.0048464e-08
1.1415454e-08
1.3737794e-08
1.5565339e-08
1.8616173e-08
2.0681386e-08
2.3995032e-08
2.6356834e-08
3.0291911e-08
3.303102e-08
3.7445163e-08
4.0692748e-08
4.6013484e-08
4.9729092e-08
5.5607875e-08
5.9957836e-08
6.6020996e-08
7.0182386e-08
7.7420561e-08
8.180986e-08
8.883029e-08
9.3514517e-08
1.012569e-07
1.0671651e-07
1.1235428e-07
1.1960668e-07
1.2437487e-07
1.3020344e-07
1.3697063e-07
1.4303867e-07
1.5096651e-07
1.5793966e-07
1.6431719e-07
1.7266331e-07
1.7889722e-07
1.8366612e-07
1.9033211e-07
1.9623308e-07
2.0666274e-07
2.1290287e-07
2.2057561e-07
2.2560827e-07
2.3143412e-07
2.3596688e-07
2.4248652e-07
2.4740239e-07
2.5668915e-07
6.7615294e-10
7.3827692e-10
7.711516e-10
8.5768444e-10
1.0002381e-09
1.0821733e-09
1.2170636e-09
1.302827e-09
1.4124867e-09
1.4593551e-09
1.5034412e-09
1.5514662e-09
1.6038493e-09
1.6907865e-09
1.8116678e-09
2.0101214e-09
2.3218301e-09
2.8276904e-09
3.4844249e-09
4.5233013e-09
5.6395824e-09
7.4411151e-09
9.123172e-09
1.1818372e-08
1.4000365e-08
1.7605143e-08
2.0410941e-08
2.4501768e-08
2.9590131e-08
3.3402656e-08
4.0096293e-08
4.5106422e-08
5.3312238e-08
5.8592342e-08
6.7228189e-08
7.3154159e-08
8.2995122e-08
8.9572915e-08
1.0020647e-07
1.077239e-07
1.2025476e-07
1.2861404e-07
1.4218627e-07
1.5111986e-07
1.6559482e-07
1.7442247e-07
1.8926501e-07
1.9844928e-07
2.1386252e-07
2.2361668e-07
2.395839e-07
2.5011466e-07
2.630499e-07
2.767456e-07
2.8662133e-07
2.9859267e-07
3.1116829e-07
3.2525792e-07
3.3872329e-07
3.5315713e-07
3.6610478e-07
3.8231234e-07
3.9388273e-07
4.0412109e-07
4.1638194e-07
4.2758039e-07
4.4694528e-07
4.5921037e-07
4.7274426e-07
4.8240776e-07
4.91962e-07
5.003846e-07
5.1213088e-07
5.2151352e-07
5.3840919e-07
6.956572e-10
7.2433257e-10
7.8123758e-10
8.3353366e-10
9.2464893e-10
9.8908651e-10
1.0744764e-09
1.1397835e-09
1.198968e-09
1.2858638e-09
1.3950843e-09
1.5727081e-09
1.8539735e-09
2.3348168e-09
3.0523461e-09
4.0681223e-09
5.4703637e-09
7.5912716e-09
9.9151293e-09
1.3436717e-08
1.6872097e-08
2.2439014e-08
2.7166971e-08
3.4922056e-08
4.068196e-08
5.0462078e-08
5.7492957e-08
6.8475073e-08
8.0150775e-08
8.9219111e-08
1.057969e-07
1.173061e-07
1.3537752e-07
1.4735518e-07
1.6641114e-07
1.7953989e-07
2.0046048e-07
2.1429279e-07
2.3656284e-07
2.5179817e-07
2.7765236e-07
2.9427864e-07
3.210769e-07
3.3866207e-07
3.6706519e-07
3.8401222e-07
4.1220867e-07
4.2978454e-07
4.5933192e-07
4.7793522e-07
5.0824171e-07
5.2678159e-07
5.5471628e-07
5.7538393e-07
5.9880412e-07
6.2118416e-07
6.4301653e-07
6.7460196e-07
6.9683439e-07
7.2699718e-07
7.5424468e-07
7.8557921e-07
8.0753386e-07
8.2723788e-07
8.4896549e-07
8.6987789e-07
9.040268e-07
9.2640426e-07
9.485274e-07
9.6723968e-07
9.826873e-07
1.0003208e-06
1.0241252e-06
1.0436671e-06
1.0771353e-06
7.0488369e-10
7.5956246e-10
7.8215862e-10
8.1562822e-10
8.3826482e-10
8.6908572e-10
9.1069622e-10
9.8342683e-10
1.1281933e-09
1.419878e-09
1.9321078e-09
2.7993856e-09
4.0578116e-09
5.9124962e-09
8.540384e-09
1.1731117e-08
1.6167985e-08
2.2633506e-08
2.8995824e-08
3.8656842e-08
4.748776e-08
6.2127898e-08
7.3464635e-08
9.2374746e-08
1.0550241e-07
1.2824771e-07
1.4367633e-07
1.689274e-07
1.9154907e-07
2.1161618e-07
2.4707248e-07
2.7030368e-07
3.0156677e-07
3.3229747e-07
3.6249082e-07
3.9525896e-07
4.2831739e-07
4.5946977e-07
5.003501e-07
5.2903267e-07
5.7931916e-07
6.1022946e-07
6.5843199e-07
6.916299e-07
7.4330415e-07
7.7496746e-07
8.2684953e-07
8.6104118e-07
9.1796182e-07
9.5435248e-07
1.0126758e-06
1.0491966e-06
1.1042145e-06
1.1405707e-06
1.1995505e-06
1.2380512e-06
1.2886545e-06
1.3627648e-06
1.4082938e-06
1.4727864e-06
1.5393616e-06
1.5996932e-06
1.6365061e-06
1.6690157e-06
1.7023755e-06
1.7409944e-06
1.8008845e-06
1.8418976e-06
1.889006e-06
1.9356858e-06
1.9847266e-06
2.0486985e-06
2.1123716e-06
2.1566386e-06
2.2364241e-06
7.0829363e-10
7.7235504e-10
7.9160631e-10
8.2291691e-10
8.5321798e-10
9.2041384e-10
1.0947663e-09
1.4904042e-09
2.2329426e-09
3.480314e-09
5.3173023e-09
8.1497513e-09
1.1971596e-08
1.7493127e-08
2.5208587e-08
3.3425883e-08
4.6238705e-08
6.135728e-08
7.7212345e-08
9.9781086e-08
1.1995787e-07
1.5339972e-07
1.7687618e-07
2.1671466e-07
2.4332968e-07
2.8963089e-07
3.1966319e-07
3.7011098e-07
4.0757373e-07
4.5491938e-07
5.1138715e-07
5.5985265e-07
6.0677937e-07
6.8137366e-07
7.2354057e-07
7.9173035e-07
8.4644756e-07
9.1420012e-07
9.9009506e-07
1.0440409e-06
1.1384887e-06
1.1961742e-06
1.2816604e-06
1.3442958e-06
1.44451e-06
1.5131699e-06
1.6265953e-06
1.7011119e-06
1.8252562e-06
1.9026861e-06
2.0274009e-06
2.1074704e-06
2.2150366e-06
2.3028017e-06
2.469305e-06
2.5659224e-06
2.737379e-06
2.8931875e-06
2.9906111e-06
3.1347815e-06
3.3119324e-06
3.3856448e-06
3.403924e-06
3.4605351e-06
3.5225864e-06
3.6260661e-06
3.776297e-06
3.8772925e-06
4.0907231e-06
4.2947622e-06
4.5518982e-06
4.794816e-06
4.8778105e-06
4.9289971e-06
5.2150195e-06
7.0303563e-10
7.4242476e-10
7.7771833e-10
8.424845e-10
1.0023089e-09
1.410421e-09
2.2799778e-09
3.7972368e-09
6.2062339e-09
9.9241402e-09
1.5137332e-08
2.3254885e-08
3.3427892e-08
4.8868637e-08
6.715992e-08
8.6879793e-08
1.2063371e-07
1.4708588e-07
1.8948891e-07
2.2801705e-07
2.7405012e-07
3.3853515e-07
3.8143006e-07
4.5690015e-07
5.0649718e-07
5.9115947e-07
6.451024e-07
7.3555319e-07
7.9763844e-07
8.9893792e-07
9.6989244e-07
1.0871834e-06
1.1667207e-06
1.3042124e-06
1.3893377e-06
1.5188637e-06
1.6604291e-06
1.773162e-06
1.9472137e-06
2.0486187e-06
2.2221354e-06
2.3345597e-06
2.4833703e-06
2.6469891e-06
2.93079e-06
3.0882678e-06
3.4163188e-06
3.5434803e-06
3.8751041e-06
4.0258055e-06
4.3467e-06
4.5170454e-06
4.7219729e-06
5.0693114e-06
5.7809928e-06
5.9375416e-06
6.5766371e-06
6.7065426e-06
6.6702359e-06
7.1083802e-06
7.4892073e-06
7.4494084e-06
7.407583e-06
7.7409104e-06
7.8965509e-06
8.7134563e-06
8.7405253e-06
8.9831977e-06
9.4576477e-06
9.3786652e-06
9.4762428e-06
9.8048578e-06
1.0032513e-05
1.0524083e-05
1.1049971e-05
7.0668236e-10
7.2936325e-10
7.8721277e-10
1.0386744e-09
1.8003486e-09
3.3605716e-09
6.0997492e-09
1.0420583e-08
1.6934431e-08
2.6821497e-08
4.010458e-08
6.1854191e-08
8.5064589e-08
1.2330365e-07
1.5841673e-07
2.0516491e-07
2.719272e-07
3.2292816e-07
4.1031851e-07
4.72088e-07
5.6923261e-07
6.6971966e-07
7.4844769e-07
8.8672156e-07
9.7406631e-07
1.1214509e-06
1.2190584e-06
1.3802768e-06
1.4952149e-06
1.6907118e-06
1.8305278e-06
2.0850931e-06
2.2489144e-06
2.525704e-06
2.7241615e-06
3.049358e-06
3.3886484e-06
3.5974443e-06
3.9735013e-06
4.1551033e-06
4.5632054e-06
4.7642545e-06
5.1621898e-06
5.8597228e-06
6.7579286e-06
6.8615854e-06
7.6781923e-06
7.7345388e-06
8.8765362e-06
9.0911491e-06
9.9228711e-06
1.0139082e-05
1.0663958e-05
1.1562477e-05
1.1869313e-05
1.1868993e-05
1.316077e-05
1.2272091e-05
1.2085061e-05
1.252823e-05
1.0969225e-05
1.076844e-05
1.1264599e-05
1.1195944e-05
1.254076e-05
1.3068121e-05
1.178545e-05
1.1592795e-05
1.0929166e-05
1.0214161e-05
9.2344131e-06
1.0366349e-05
1.1306733e-05
1.2472058e-05
1.1351532e-05
7.023099e-10
7.7089245e-10
1.1043547e-09
2.2485263e-09
4.7216491e-09
9.1000102e-09
1.6277897e-08
2.7163521e-08
4.3103568e-08
6.780002e-08
9.8140088e-08
1.4889204e-07
1.9640399e-07
2.7589751e-07
3.4169034e-07
4.4990259e-07
5.3897111e-07
6.4990089e-07
7.913778e-07
9.0901504e-07
1.0799082e-06
1.2409743e-06
1.4075919e-06
1.6361659e-06
1.7955428e-06
2.0814368e-06
2.2765058e-06
2.5879884e-06
2.8242926e-06
3.3128223e-06
3.5943676e-06
4.2851388e-06
4.5659728e-06
5.2613109e-06
5.8230568e-06
6.8139616e-06
7.3464973e-06
7.7192582e-06
8.6375635e-06
8.9118044e-06
9.998638e-06
1.0430582e-05
1.1547476e-05
1.2718415e-05
1.2427569e-05
1.2933923e-05
1.2957958e-05
1.2942889e-05
1.4497285e-05
1.4359317e-05
1.2838481e-05
1.2847115e-05
1.4224091e-05
1.3095912e-05
1.0865765e-05
1.1218213e-05
9.6618072e-06
7.531907e-06
8.640217e-06
7.6257446e-06
5.0828042e-06
5.9383772e-06
6.1192314e-06
5.5644675e-06
7.1361626e-06
6.0982083e-06
5.0645166e-06
4.2483134e-06
3.7428327e-06
3.6097106e-06
3.3187476e-06
3.7353602e-06
4.5810787e-06
4.7350843e-06
3.5866795e-06
6.8630295e-10
9.4175672e-10
2.3693905e-09
5.8233101e-09
1.2386995e-08
2.3296412e-08
4.0518463e-08
6.5677266e-08
1.0177434e-07
1.6025205e-07
2.2092564e-07
3.246978e-07
4.1318115e-07
5.5636773e-07
6.7876123e-07
8.6734897e-07
1.0054656e-06
1.2427743e-06
1.4186873e-06
1.7047146e-06
1.956372e-06
2.2893171e-06
2.631219e-06
2.9960506e-06
3.3733205e-06
4.0560475e-06
4.4435061e-06
5.1225028e-06
5.6970942e-06
7.256868e-06
7.6064503e-06
9.574962e-06
9.6953297e-06
1.2097299e-05
1.1522377e-05
1.3053404e-05
1.301578e-05
1.326484e-05
1.3259062e-05
1.3358185e-05
1.3541641e-05
1.4512449e-05
1.4002335e-05
1.1817542e-05
9.5342871e-06
1.1458806e-05
7.9836367e-06
8.8827243e-06
8.2589287e-06
6.6758101e-06
6.1756396e-06
5.3902686e-06
5.8085202e-06
4.191167e-06
3.4155198e-06
4.5938534e-06
3.0119015e-06
2.6985934e-06
3.1127418e-06
2.6990002e-06
2.5614591e-06
2.6906851e-06
3.240749e-06
3.6769591e-06
3.8191351e-06
2.7110413e-06
2.2054061e-06
2.1863336e-06
1.9574681e-06
1.9357582e-06
2.0227014e-06
3.0772937e-06
3.1986284e-06
2.6522976e-06
2.0290211e-06
6.6804666e-10
1.917039e-09
6.1545703e-09
1.4964005e-08
3.0727016e-08
5.5729316e-08
9.3790253e-08
1.4722898e-07
2.231721e-07
3.4357364e-07
4.5447768e-07
6.4589714e-07
7.9947798e-07
1.031134e-06
1.2851983e-06
1.5511701e-06
1.8177017e-06
2.2616946e-06
2.5881534e-06
3.1879039e-06
3.6478391e-06
4.4260844e-06
5.0422192e-06
5.8666914e-06
7.0284794e-06
8.4775752e-06
9.331116e-06
1.0546088e-05
1.2128193e-05
1.3089501e-05
1.3549959e-05
1.4529348e-05
1.4319472e-05
1.6454598e-05
1.180383e-05
1.1712786e-05
1.0127705e-05
9.7118559e-06
6.5549912e-06
6.3838748e-06
6.2845654e-06
6.818979e-06
4.8554565e-06
3.0358644e-06
3.1841973e-06
3.5079758e-06
2.6140029e-06
3.6347994e-06
3.1774394e-06
2.0441227e-06
3.3454535e-06
3.4172788e-06
3.3035908e-06
2.3910864e-06
2.0107546e-06
2.6463352e-06
2.1186343e-06
2.1277539e-06
2.2820819e-06
2.1634494e-06
2.5111681e-06
3.0664513e-06
2.9897925e-06
3.0536335e-06
3.3970167e-06
2.6702199e-06
2.0631854e-06
1.9587921e-06
1.9677007e-06
1.8735431e-06
1.9206237e-06
2.5318239e-06
3.0192473e-06
2.7558546e-06
2.1176118e-06
6.2802656e-10
4.8899495e-09
1.5520681e-08
3.6127181e-08
7.1042194e-08
1.2390059e-07
2.0190725e-07
3.0619682e-07
4.5781097e-07
6.6996986e-07
8.6431957e-07
1.1940087e-06
1.4562608e-06
1.8620445e-06
2.3221201e-06
2.728403e-06
3.3801467e-06
4.2265907e-06
4.8828836e-06
6.3611806e-06
7.3618935e-06
9.2062892e-06
1.0348479e-05
1.1679747e-05
1.3055726e-05
1.3282031e-05
1.3628088e-05
1.3342712e-05
1.3979584e-05
1.2000694e-05
1.2969572e-05
7.7352898e-06
8.9042324e-06
7.2332108e-06
3.9178101e-06
3.7974717e-06
3.0210863e-06
2.7188255e-06
2.1193225e-06
2.3804367e-06
2.3647151e-06
2.4581535e-06
1.7020983e-06
1.4525078e-06
1.4905437e-06
1.4957643e-06
1.4509462e-06
2.4396423e-06
1.8804551e-06
1.5066805e-06
2.1005007e-06
2.2663304e-06
2.1876872e-06
2.3689045e-06
2.0000841e-06
2.0965664e-06
2.0488418e-06
1.9316571e-06
2.1064791e-06
2.2387035e-06
2.6777452e-06
2.7349235e-06
2.5005701e-06
2.6079521e-06
2.7963535e-06
2.3528664e-06
2.0150995e-06
1.9554138e-06
2.0451599e-06
1.9722232e-06
1.9617888e-06
2.2178376e-06
2.8697656e-06
2.7384499e-06
2.2805196e-06
1.0024016e-09
1.2262604e-08
3.6861068e-08
8.1597911e-08
1.5294137e-07
2.5623166e-07
4.0574164e-07
5.923397e-07
8.9212874e-07
1.2030359e-06
1.5644784e-06
2.1137087e-06
2.5916268e-06
3.4208159e-06
4.1603312e-06
5.1095374e-06
6.827693e-06
8.3380199e-06
9.8101776e-06
1.2159534e-05
1.2613249e-05
1.4124676e-05
1.3219039e-05
1.3025843e-05
1.2200881e-05
8.7460476e-06
7.518403e-06
7.6487896e-06
7.0259272e-06
4.7479689e-06
6.0569053e-06
2.1640843e-06
3.4400851e-06
2.2219248e-06
2.6766182e-06
2.1785378e-06
1.5894547e-06
1.4217281e-06
1.3863481e-06
1.8547595e-06
1.8317444e-06
1.4348002e-06
1.4138455e-06
1.4121911e-06
1.3474019e-06
1.3408816e-06
1.3992403e-06
2.0566688e-06
1.7993027e-06
1.5279664e-06
1.9229619e-06
2.2968285e-06
1.9217628e-06
1.8430199e-06
1.9198245e-06
1.9257943e-06
1.9149729e-06
1.9431032e-06
2.0811958e-06
2.4223693e-06
2.9188247e-06
2.9055139e-06
2.559036e-06
2.4337518e-06
2.39897e-06
2.0941845e-06
2.0152845e-06
1.9731617e-06
1.9954781e-06
2.0525009e-06
2.0883368e-06
2.1925919e-06
2.5432334e-06
2.5276984e-06
2.3786697e-06
4.7197197e-10
2.8987348e-08
8.2019903e-08
1.7213987e-07
3.0722587e-07
4.9512829e-07
7.556068e-07
1.0825903e-06
1.612093e-06
2.1019115e-06
2.8286808e-06
3.7243414e-06
4.7472127e-06
6.5654412e-06
8.0555793e-06
1.0433208e-05
1.1910123e-05
1.2877351e-05
1.3504035e-05
1.3078884e-05
1.129535e-05
9.086458e-06
5.8958765e-06
6.2892916e-06
4.3255782e-06
2.6558067e-06
2.9040959e-06
2.9137627e-06
2.6226375e-06
1.7513227e-06
1.9379553e-06
1.1460211e-06
1.9981785e-06
2.2504019e-06
2.4364428e-06
2.1245989e-06
1.6522751e-06
1.3915966e-06
1.3873799e-06
1.8230449e-06
1.5933342e-06
1.6667168e-06
1.4564029e-06
1.423364e-06
1.3074738e-06
1.3667102e-06
1.3784845e-06
1.7834854e-06
1.6028288e-06
1.369677e-06
1.9740921e-06
2.4645218e-06
2.2529758e-06
2.0913991e-06
1.9744976e-06
1.9704317e-06
2.0333739e-06
2.1454317e-06
2.1495893e-06
3.1969774e-06
3.0350892e-06
3.0628475e-06
2.7573292e-06
2.5523202e-06
2.346193e-06
2.1157717e-06
2.0873269e-06
2.0919623e-06
2.3768923e-06
2.165718e-06
2.0795123e-06
2.1839301e-06
2.3986528e-06
2.5102214e-06
2.4571277e-06
5.5955498e-09
6.5840105e-08
1.7206026e-07
3.3998606e-07
5.7762678e-07
8.9949111e-07
1.3288088e-06
1.9255655e-06
2.8392446e-06
3.730412e-06
5.1782426e-06
7.0487144e-06
9.4394609e-06
1.1290702e-05
1.274867e-05
1.287701e-05
1.1895863e-05
9.839114e-06
8.0299745e-06
5.6830739e-06
4.636817e-06
2.6868606e-06
1.775346e-06
2.3881605e-06
1.2456104e-06
1.082825e-06
2.2994857e-06
1.8500181e-06
1.5646434e-06
2.1909026e-06
1.1475261e-06
1.0765484e-06
1.3760838e-06
2.0950018e-06
1.3932079e-06
1.9006047e-06
1.6481391e-06
1.4434353e-06
1.4538391e-06
1.6547086e-06
1.7644461e-06
1.878974e-06
1.4481212e-06
1.4900499e-06
1.422626e-06
1.3639678e-06
1.4569858e-06
1.6935941e-06
1.7024083e-06
1.5172231e-06
1.5032128e-06
2.3314656e-06
2.2859312e-06
2.1894891e-06
2.2647796e-06
2.1265738e-06
2.2212556e-06
2.4901862e-06
2.5131361e-06
3.5888613e-06
2.9201867e-06
2.8358178e-06
2.6465018e-06
2.4967159e-06
2.2630935e-06
2.1748036e-06
2.2025073e-06
2.2163929e-06
2.1967421e-06
2.1370076e-06
2.1456089e-06
2.2008686e-06
2.2570675e-06
2.5382604e-06
2.5264502e-06
1.8456996e-08
1.4081557e-07
3.3945291e-07
6.3002166e-07
1.0242358e-06
1.5573073e-06
2.3078322e-06
3.4467166e-06
5.0803599e-06
6.9416615e-06
1.0321886e-05
1.1374787e-05
1.2451245e-05
1.162264e-05
1.0553762e-05
6.5144883e-06
5.0443234e-06
3.8286836e-06
2.8519416e-06
2.0542157e-06
1.8341046e-06
8.58288e-07
9.5134804e-07
1.167671e-06
8.2796221e-07
8.8883219e-07
1.4636921e-06
1.3806463e-06
2.0316845e-06
1.3547184e-06
7.8918623e-07
8.5319276e-07
1.3368044e-06
1.8064024e-06
1.1832602e-06
1.5554042e-06
1.5250806e-06
1.5024364e-06
1.4763227e-06
1.6812469e-06
1.9185936e-06
1.6920147e-06
1.4466664e-06
1.5991929e-06
1.4173987e-06
1.4550188e-06
1.5681452e-06
1.8548046e-06
1.8405043e-06
1.6543396e-06
1.7919465e-06
2.5684825e-06
2.5638346e-06
2.2715072e-06
2.3739253e-06
2.2740974e-06
2.3985392e-06
2.5805613e-06
3.760252e-06
3.0242966e-06
2.6237404e-06
2.7689135e-06
2.7140004e-06
2.640823e-06
2.3565452e-06
2.3031045e-06
2.3765046e-06
2.3946612e-06
2.2213056e-06
2.2120235e-06
2.3921951e-06
2.3546801e-06
2.3022196e-06
2.5128473e-06
2.5299744e-06
5.0064662e-08
2.8476928e-07
6.2959582e-07
1.1017758e-06
1.7383331e-06
2.6500628e-06
4.051149e-06
6.4405201e-06
9.7335e-06
1.1001478e-05
1.2535343e-05
1.0403843e-05
7.2026281e-06
5.3623479e-06
4.3108298e-06
2.1905882e-06
2.0211609e-06
1.6941375e-06
1.2948918e-06
7.9123257e-07
6.9392237e-07
7.5335899e-07
1.4764058e-06
1.1191932e-06
9.3718568e-07
9.6642117e-07
1.0727302e-06
1.444592e-06
2.9684652e-06
1.4523886e-06
7.1033222e-07
7.9719059e-07
1.4548198e-06
1.5983989e-06
1.0848607e-06
1.4005213e-06
1.4207736e-06
1.3960986e-06
1.8182314e-06
2.3904614e-06
2.0945055e-06
1.6997368e-06
1.5513342e-06
1.8419341e-06
1.6281462e-06
1.5750499e-06
1.6529505e-06
2.0684916e-06
1.7968602e-06
1.69014e-06
1.9564476e-06
2.1256196e-06
2.2425938e-06
2.3219147e-06
2.3533675e-06
2.6429128e-06
2.726924e-06
2.5572281e-06
3.7201037e-06
2.8564544e-06
2.6115876e-06
2.973253e-06
2.9970193e-06
2.8065804e-06
2.5344973e-06
2.5965025e-06
2.605144e-06
2.5553757e-06
2.3604485e-06
2.4623411e-06
2.4619085e-06
2.6168215e-06
2.450793e-06
2.5307843e-06
2.5410206e-06
1.2176917e-07
5.443846e-07
1.1030477e-06
1.8423881e-06
2.8920943e-06
4.5745921e-06
7.5745394e-06
1.0728737e-05
1.1921215e-05
1.0721478e-05
6.9221424e-06
4.1524489e-06
2.7088533e-06
2.4068724e-06
1.4456585e-06
8.8606857e-07
9.3877995e-07
9.4769923e-07
1.2532169e-06
7.0980382e-07
5.1730157e-07
8.4235579e-07
1.6263727e-06
1.2825029e-06
1.0282978e-06
9.8081857e-07
1.0291534e-06
1.5931444e-06
2.1934627e-06
1.4933249e-06
8.8367428e-07
7.3205486e-07
1.3119805e-06
1.3666418e-06
9.7820602e-07
1.1981692e-06
1.2002675e-06
1.6197423e-06
3.11991e-06
2.3923949e-06
2.0312172e-06
1.6154526e-06
1.6752054e-06
1.9476634e-06
1.7176488e-06
1.4670239e-06
1.583069e-06
1.9067694e-06
1.9076728e-06
1.6523513e-06
1.8740992e-06
2.2013399e-06
2.0671317e-06
2.6181808e-06
2.6643758e-06
3.0667496e-06
2.5898124e-06
2.3416291e-06
3.1240002e-06
2.7744788e-06
2.6687016e-06
3.1285672e-06
3.2311363e-06
3.0089981e-06
2.9391723e-06
2.7072182e-06
2.7596705e-06
2.6725791e-06
2.4349953e-06
2.5350882e-06
2.6492194e-06
2.6504177e-06
2.5350129e-06
2.55978e-06
2.6220664e-06
2.739024e-07
9.8546149e-07
1.8433076e-06
3.0031955e-06
4.8788296e-06
8.4343007e-06
1.0549844e-05
1.0765838e-05
7.0913951e-06
5.2027953e-06
2.4842054e-06
1.3299303e-06
9.9286405e-07
1.078511e-06
5.8956372e-07
8.2790901e-07
5.9722494e-07
5.7663459e-07
6.488418e-07
8.215222e-07
5.1353569e-07
8.2253623e-07
1.3398708e-06
1.2886376e-06
1.0800377e-06
9.2964671e-07
1.1083589e-06
1.5836669e-06
1.4183625e-06
1.6901556e-06
9.5231384e-07
7.0911003e-07
1.0465381e-06
1.4615539e-06
9.5775777e-07
1.0921722e-06
1.0778029e-06
1.6651682e-06
3.1143983e-06
2.325512e-06
2.1189843e-06
1.7422981e-06
1.6871456e-06
1.8096765e-06
1.7563656e-06
1.5154716e-06
1.6669046e-06
2.0325289e-06
1.818445e-06
1.6904341e-06
1.7908833e-06
1.9831251e-06
2.0361201e-06
2.8773283e-06
2.9649285e-06
2.9321907e-06
2.3893655e-06
2.4384588e-06
2.6039148e-06
2.8603853e-06
2.7188787e-06
3.462527e-06
3.4342727e-06
3.2468618e-06
2.9317204e-06
2.741388e-06
2.6315679e-06
3.078576e-06
3.0181712e-06
2.8419376e-06
2.6903308e-06
2.6717111e-06
2.5659873e-06
2.5904095e-06
2.6019634e-06
5.7769453e-07
1.6996451e-06
2.974627e-06
4.9216614e-06
8.6931811e-06
1.0687708e-05
8.961307e-06
5.4245799e-06
2.8344293e-06
2.2006307e-06
6.611585e-07
4.0211115e-07
4.8795965e-07
6.1350081e-07
5.1667679e-07
9.6282841e-07
5.7212773e-07
6.6411757e-07
5.8276164e-07
7.0250065e-07
5.0928222e-07
6.9688106e-07
1.0100088e-06
1.0778485e-06
1.1003858e-06
8.7933985e-07
1.0983695e-06
1.193748e-06
1.4714117e-06
1.43569e-06
8.9719222e-07
7.0195754e-07
1.1080462e-06
1.1431132e-06
9.5422604e-07
1.0144841e-06
1.0835603e-06
2.2812311e-06
1.9885939e-06
2.0991063e-06
2.7085697e-06
2.0966363e-06
1.8350881e-06
1.8384687e-06
1.7938361e-06
1.6331106e-06
1.7369809e-06
2.1955433e-06
1.7892589e-06
1.7394927e-06
1.8075004e-06
1.9440016e-06
1.9982485e-06
2.7829972e-06
2.6274011e-06
2.3270065e-06
2.3235381e-06
2.7007269e-06
2.6572335e-06
2.9412842e-06
2.7593118e-06
3.2244248e-06
3.2358807e-06
3.2340999e-06
2.9024831e-06
2.6911449e-06
2.7798743e-06
2.6571179e-06
2.728424e-06
2.7887217e-06
2.7155747e-06
2.7425358e-06
2.6887479e-06
2.6071803e-06
2.5858115e-06
1.1552495e-06
2.8078377e-06
4.7396728e-06
8.4125777e-06
1.0184378e-05
8.135361e-06
5.3302559e-06
2.2067942e-06
1.0903234e-06
7.6561575e-07
2.7106518e-07
2.3704868e-07
3.7055257e-07
4.5939489e-07
6.1082789e-07
7.3884287e-07
6.0098831e-07
7.5500829e-07
4.6924423e-07
6.395402e-07
5.2916778e-07
6.6704859e-07
8.4025162e-07
9.5073149e-07
1.1087971e-06
1.2272472e-06
1.1306021e-06
1.2748584e-06
1.1477456e-06
1.1206244e-06
7.5162827e-07
6.9982864e-07
1.1608977e-06
1.1740907e-06
9.9025794e-07
1.0837563e-06
1.1502565e-06
2.4699691e-06
1.9526451e-06
1.9810118e-06
2.1798675e-06
1.962843e-06
1.8773257e-06
1.8742447e-06
1.9891447e-06
1.7044142e-06
1.8269462e-06
2.1129743e-06
1.7999233e-06
1.6223744e-06
1.9908972e-06
2.0142793e-06
2.0581992e-06
2.3632892e-06
2.5775568e-06
2.6010712e-06
2.874542e-06
2.8183929e-06
3.1109914e-06
3.5670637e-06
2.8464062e-06
2.5799516e-06
2.6447352e-06
3.0900712e-06
3.0553942e-06
2.8887047e-06
2.6816965e-06
2.5043937e-06
2.5698751e-06
2.5852538e-06
2.704846e-06
2.7008848e-06
2.7729058e-06
2.6940973e-06
2.6664924e-06
2.2159683e-06
4.4751585e-06
7.7375319e-06
9.4899309e-06
7.1992886e-06
5.0544351e-06
2.4976178e-06
7.7368465e-07
7.5074737e-07
3.3799933e-07
2.4132852e-07
2.2303509e-07
3.2870307e-07
4.2254342e-07
5.817579e-07
4.6027262e-07
6.0936373e-07
7.2238132e-07
4.5616391e-07
5.6666556e-07
5.4322795e-07
6.7853253e-07
9.2484671e-07
1.0668702e-06
1.1490132e-06
2.0246981e-06
1.1519658e-06
9.4891332e-07
8.3307528e-07
9.7804368e-07
7.6918183e-07
7.0587755e-07
1.1804162e-06
1.1361017e-06
9.8522476e-07
1.0923495e-06
1.2494157e-06
2.3878518e-06
1.7462464e-06
1.911669e-06
2.4504282e-06
2.1331559e-06
1.9656466e-06
1.9510726e-06
2.0276301e-06
1.7037994e-06
1.5921134e-06
1.7725423e-06
1.6543558e-06
1.6563198e-06
2.1514193e-06
2.0280418e-06
2.0982904e-06
2.4414677e-06
2.6171088e-06
3.4482902e-06
3.0611439e-06
2.721357e-06
4.0621977e-06
3.44915e-06
2.60384e-06
2.4867341e-06
2.5525289e-06
3.1318227e-06
3.1532314e-06
3.0167123e-06
2.7177609e-06
2.5451248e-06
2.4665772e-06
2.5746789e-06
2.8882318e-06
2.7764723e-06
2.8257628e-06
2.84526e-06
2.6852096e-06
3.8579839e-06
7.1445591e-06
9.6557061e-06
7.3673326e-06
4.6433465e-06
2.7236917e-06
8.4788121e-07
3.2783759e-07
5.8789114e-07
2.9379442e-07
2.3785669e-07
2.2212371e-07
3.0768979e-07
3.7501974e-07
4.0313105e-07
3.7218362e-07
5.9798109e-07
6.1855782e-07
4.3088888e-07
5.1855579e-07
5.2808486e-07
6.9913184e-07
9.5573148e-07
1.2106048e-06
1.1866281e-06
2.39494e-06
1.1494036e-06
1.2084291e-06
7.3875031e-07
9.2033653e-07
8.0694702e-07
7.2395739e-07
1.1039548e-06
1.0741932e-06
9.6502334e-07
1.0790556e-06
1.6118688e-06
2.0721577e-06
1.7517313e-06
2.2925631e-06
2.2581188e-06
1.8166551e-06
1.8607724e-06
2.0036633e-06
1.968408e-06
1.5967183e-06
1.6233523e-06
1.7545572e-06
1.6144485e-06
2.0063262e-06
2.0160628e-06
2.0509227e-06
2.2347818e-06
2.5670678e-06
2.7975571e-06
3.2081353e-06
3.091834e-06
2.8526589e-06
3.5848295e-06
3.1114917e-06
2.5359966e-06
2.4139735e-06
2.5049916e-06
2.8141146e-06
3.0243453e-06
2.958827e-06
2.7182186e-06
2.6277072e-06
2.6686337e-06
3.1041085e-06
3.4461479e-06