/*--------------------------------*- C++ -*----------------------------------*\
| =========                 |                                                 |
| \\      /  F ield         | OpenFOAM: The Open Source CFD Toolbox           |
|  \\    /   O peration     | Version:  2.3.0                                 |
|   \\  /    A nd           | Web:      www.OpenFOAM.org                      |
|    \\/     M anipulation  |                                                 |
\*---------------------------------------------------------------------------*/
FoamFile
{
    version     2.0;
    format      ascii;
    class       surfaceScalarField;
    location    "1.6e-05";
    object      phi;
}
// * * * * * * * * * * * * * * * * * * * * * * * * * * * * * * * * * * * * * //

dimensions      [0 3 -1 0 0 0 0];

internalField   nonuniform List<scalar> 
14825
(
1.0340411e-09
-2.0279744e-11
1.0558135e-09
-2.1772377e-11
1.0742896e-09
-1.8476145e-11
1.0959583e-09
-2.1668677e-11
1.1150332e-09
-1.9074869e-11
1.1366352e-09
-2.1601998e-11
1.1561236e-09
-1.9488411e-11
1.1765939e-09
-2.047032e-11
1.1965412e-09
-1.9947304e-11
1.2163911e-09
-1.9849857e-11
1.2357776e-09
-1.9386559e-11
1.2553747e-09
-1.9597029e-11
1.2737575e-09
-1.8382863e-11
1.2934218e-09
-1.9664259e-11
1.3117584e-09
-1.8336622e-11
1.3310052e-09
-1.9246833e-11
1.3492566e-09
-1.8251343e-11
1.3687836e-09
-1.9527049e-11
1.3867013e-09
-1.7917663e-11
1.4062209e-09
-1.9519593e-11
1.4241819e-09
-1.7960986e-11
1.4424039e-09
-1.8222011e-11
1.4602546e-09
-1.7850717e-11
1.4784046e-09
-1.8150023e-11
1.4948253e-09
-1.6420686e-11
1.5137188e-09
-1.8893495e-11
1.5290358e-09
-1.5316988e-11
1.5468351e-09
-1.7799334e-11
1.5634763e-09
-1.6641215e-11
1.5781835e-09
-1.4707189e-11
1.5960304e-09
-1.7846886e-11
1.6101061e-09
-1.4075719e-11
1.626745e-09
-1.6638893e-11
1.6412572e-09
-1.4512147e-11
1.6569409e-09
-1.5683719e-11
1.6701257e-09
-1.3184817e-11
1.6873222e-09
-1.7196504e-11
1.6988964e-09
-1.1574231e-11
1.7141088e-09
-1.5212343e-11
1.7270601e-09
-1.2951332e-11
1.7406539e-09
-1.359376e-11
1.7541021e-09
-1.3448221e-11
1.7661484e-09
-1.2046278e-11
1.7798028e-09
-1.3654404e-11
1.7906065e-09
-1.0803732e-11
1.8039779e-09
-1.337133e-11
1.8151105e-09
-1.1132687e-11
1.8264078e-09
-1.1297283e-11
1.836861e-09
-1.0453216e-11
1.8483359e-09
-1.1474895e-11
1.8589262e-09
-1.0590284e-11
1.8673185e-09
-8.3922335e-12
1.8788356e-09
-1.1517182e-11
1.8877024e-09
-8.8668007e-12
1.895667e-09
-7.964603e-12
1.9057986e-09
-1.0131587e-11
1.9140017e-09
-8.2030228e-12
1.9202642e-09
-6.2625123e-12
1.9305113e-09
-1.0247177e-11
1.9371228e-09
-6.6114743e-12
1.9438767e-09
-6.7538701e-12
1.9529007e-09
-9.0240332e-12
1.9592398e-09
-6.3391306e-12
1.9646181e-09
-5.3782835e-12
1.9702904e-09
-5.6722711e-12
1.9756094e-09
-5.3190064e-12
1.9808275e-09
-5.2180469e-12
1.9861418e-09
-5.3143201e-12
1.9897744e-09
-3.6326544e-12
1.9941952e-09
-4.4207403e-12
1.9969896e-09
-2.7944582e-12
2.000731e-09
-3.7414066e-12
2.00316e-09
-2.4290109e-12
2.0059663e-09
-2.8062612e-12
-2.3964205e-12
2.8616458e-09
-7.9959602e-11
2.9249923e-09
-8.5118885e-11
2.9803385e-09
-7.3822361e-11
3.0436593e-09
-8.4989435e-11
3.1006099e-09
-7.6025508e-11
3.163915e-09
-8.4907089e-11
3.222066e-09
-7.7639396e-11
3.2827671e-09
-8.1171483e-11
3.3419588e-09
-7.9138979e-11
3.4014096e-09
-7.9300587e-11
3.4588988e-09
-7.6875786e-11
3.5180404e-09
-7.8738612e-11
3.5728539e-09
-7.3196393e-11
3.6321269e-09
-7.8937309e-11
3.6874443e-09
-7.3653971e-11
3.7453725e-09
-7.7175042e-11
3.8011192e-09
-7.3998058e-11
3.8598022e-09
-7.821e-11
3.9149993e-09
-7.3114788e-11
3.9739848e-09
-7.8505136e-11
4.0290583e-09
-7.3034425e-11
4.0852864e-09
-7.4450181e-11
4.1397205e-09
-7.2284724e-11
4.1957695e-09
-7.4199096e-11
4.2469619e-09
-6.7613097e-11
4.3042895e-09
-7.6221091e-11
4.3533566e-09
-6.4384089e-11
4.4075634e-09
-7.2006061e-11
4.4599932e-09
-6.9071073e-11
4.5068763e-09
-6.1590315e-11
4.5616435e-09
-7.2614085e-11
4.6076002e-09
-6.0032347e-11
4.6591067e-09
-6.8145384e-11
4.7057263e-09
-6.113175e-11
4.7557888e-09
-6.5746253e-11
4.7983903e-09
-5.5786317e-11
4.8522535e-09
-7.1059674e-11
4.8910162e-09
-5.0336975e-11
4.9397317e-09
-6.3927777e-11
4.9824998e-09
-5.5719433e-11
5.026621e-09
-5.7714968e-11
5.0713748e-09
-5.8202069e-11
5.1118038e-09
-5.2475295e-11
5.1559123e-09
-5.7762874e-11
5.1936099e-09
-4.8501311e-11
5.2363206e-09
-5.608201e-11
5.2747603e-09
-4.9572459e-11
5.3133649e-09
-4.9901861e-11
5.3498297e-09
-4.6918044e-11
5.3886929e-09
-5.0338048e-11
5.4261557e-09
-4.8053131e-11
5.4576834e-09
-3.9919874e-11
5.495431e-09
-4.9264808e-11
5.5284331e-09
-4.1868935e-11
5.5578846e-09
-3.7416074e-11
5.5938389e-09
-4.6085882e-11
5.6238236e-09
-3.8187697e-11
5.6502382e-09
-3.2677131e-11
5.6844921e-09
-4.450109e-11
5.7112187e-09
-3.3338056e-11
5.7368223e-09
-3.2357502e-11
5.7686683e-09
-4.0870038e-11
5.7932715e-09
-3.0942289e-11
5.8158292e-09
-2.7936007e-11
5.8396023e-09
-2.944532e-11
5.8630109e-09
-2.8727655e-11
5.8858241e-09
-2.8031222e-11
5.9076652e-09
-2.7155435e-11
5.9258656e-09
-2.1833064e-11
5.9448316e-09
-2.3386752e-11
5.9617086e-09
-1.9671463e-11
5.9796668e-09
-2.1699596e-11
5.9950991e-09
-1.7861281e-11
6.0104786e-09
-1.8185744e-11
-1.7049676e-11
4.365562e-09
-1.7741209e-10
4.467279e-09
-1.868359e-10
4.5596204e-09
-1.6616375e-10
4.6620397e-09
-1.8740872e-10
4.7562572e-09
-1.7024304e-10
4.8591993e-09
-1.8784912e-10
4.9549029e-09
-1.7334307e-10
5.0549817e-09
-1.8125023e-10
5.1517661e-09
-1.7592335e-10
5.2507185e-09
-1.7825302e-10
5.3449497e-09
-1.7110699e-10
5.4438129e-09
-1.7760186e-10
5.5346489e-09
-1.6403233e-10
5.6334848e-09
-1.777732e-10
5.7264585e-09
-1.6662768e-10
5.8227095e-09
-1.7342609e-10
5.9173898e-09
-1.6867838e-10
6.0149139e-09
-1.757341e-10
6.1090189e-09
-1.6721979e-10
6.2082369e-09
-1.7772315e-10
6.3017012e-09
-1.6649866e-10
6.3978728e-09
-1.7062175e-10
6.4907687e-09
-1.651807e-10
6.5855045e-09
-1.6893487e-10
6.6747591e-09
-1.5686774e-10
6.7705113e-09
-1.7197328e-10
6.856924e-09
-1.5079673e-10
6.949699e-09
-1.6478111e-10
7.0397199e-09
-1.5909192e-10
7.1239457e-09
-1.4581615e-10
7.2166119e-09
-1.6528024e-10
7.2993336e-09
-1.4275408e-10
7.3879934e-09
-1.5680516e-10
7.4708933e-09
-1.4403168e-10
7.558337e-09
-1.5318991e-10
7.6359488e-09
-1.3339814e-10
7.7272898e-09
-1.6240067e-10
7.8002935e-09
-1.2334066e-10
7.8853148e-09
-1.4894915e-10
7.963585e-09
-1.3398965e-10
8.0424799e-09
-1.3660984e-10
8.1221361e-09
-1.3785823e-10
8.1966259e-09
-1.2696508e-10
8.2755106e-09
-1.3664757e-10
8.3486376e-09
-1.2162837e-10
8.4251622e-09
-1.3260655e-10
8.497642e-09
-1.2205234e-10
8.5691076e-09
-1.2136746e-10
8.6386379e-09
-1.164483e-10
8.7108907e-09
-1.2259089e-10
8.7812674e-09
-1.1842981e-10
8.8452323e-09
-1.0388477e-10
8.9132804e-09
-1.1731289e-10
8.9790792e-09
-1.0766778e-10
9.0368778e-09
-9.5214686e-11
9.1058835e-09
-1.1509156e-10
9.1637326e-09
-9.6036819e-11
9.2216326e-09
-9.0577101e-11
9.2851676e-09
-1.0803607e-10
9.3405143e-09
-8.8684776e-11
9.3959662e-09
-8.7809391e-11
9.4581856e-09
-1.0308947e-10
9.5106451e-09
-8.3401755e-11
9.5603485e-09
-7.7639405e-11
9.6110066e-09
-8.0103435e-11
9.6607846e-09
-7.8505655e-11
9.7109511e-09
-7.8197734e-11
9.7571537e-09
-7.3358024e-11
9.8013098e-09
-6.598916e-11
9.8448139e-09
-6.6890843e-11
9.8869857e-09
-6.184321e-11
9.9301151e-09
-6.482908e-11
9.968468e-09
-5.621417e-11
1.0004759e-08
-5.4476947e-11
-5.440334e-11
5.5905104e-09
-3.1145175e-10
5.7272955e-09
-3.2362102e-10
5.8568776e-09
-2.9574585e-10
5.9958187e-09
-3.2634985e-10
6.1262951e-09
-3.0071946e-10
6.266608e-09
-3.2816198e-10
6.3983889e-09
-3.05124e-10
6.5362513e-09
-3.1911259e-10
6.6691624e-09
-3.0883447e-10
6.806973e-09
-3.160636e-10
6.9368578e-09
-3.009918e-10
7.075772e-09
-3.1651606e-10
7.2025355e-09
-2.9079578e-10
7.3404368e-09
-3.1567451e-10
7.4719546e-09
-2.9814547e-10
7.6054116e-09
-3.0688313e-10
7.7407871e-09
-3.0405388e-10
7.8764948e-09
-3.1144181e-10
8.0105432e-09
-3.0126817e-10
8.1498104e-09
-3.1699031e-10
8.2822131e-09
-2.989014e-10
8.4194844e-09
-3.0789306e-10
8.552916e-09
-2.9861232e-10
8.6859425e-09
-3.0196135e-10
8.8165156e-09
-2.8744083e-10
8.9503504e-09
-3.0580809e-10
9.0768201e-09
-2.7726641e-10
9.2102116e-09
-2.9817263e-10
9.338372e-09
-2.8725232e-10
9.46439e-09
-2.7183409e-10
9.5965354e-09
-2.9742564e-10
9.7189553e-09
-2.6517405e-10
9.8477331e-09
-2.8558294e-10
9.9701178e-09
-2.6641637e-10
1.0096463e-08
-2.7953491e-10
1.0214877e-08
-2.5181217e-10
1.0343052e-08
-2.9057583e-10
1.045715e-08
-2.3743829e-10
1.0579973e-08
-2.7177222e-10
1.0698602e-08
-2.5261852e-10
1.0817234e-08
-2.5524185e-10
1.0935961e-08
-2.5658525e-10
1.1051437e-08
-2.4244154e-10
1.116752e-08
-2.5273046e-10
1.1279915e-08
-2.340232e-10
1.1390922e-08
-2.4361388e-10
1.1504662e-08
-2.3579171e-10
1.1615363e-08
-2.3206892e-10
1.1726618e-08
-2.2770321e-10
1.1836001e-08
-2.3197404e-10
1.194408e-08
-2.2650831e-10
1.2048969e-08
-2.0877441e-10
1.2153673e-08
-2.2201625e-10
1.225788e-08
-2.1187514e-10
1.2351691e-08
-1.8902551e-10
1.2458562e-08
-2.2196236e-10
1.2550692e-08
-1.8816746e-10
1.2649116e-08
-1.8900082e-10
1.2747578e-08
-2.064979e-10
1.2837957e-08
-1.7906398e-10
1.2933812e-08
-1.8366465e-10
1.3031932e-08
-2.0120924e-10
1.3119425e-08
-1.708944e-10
1.3204347e-08
-1.6256192e-10
1.3289535e-08
-1.6529153e-10
1.3374694e-08
-1.6366417e-10
1.3463561e-08
-1.670648e-10
1.3542732e-08
-1.5252912e-10
1.3621835e-08
-1.4509211e-10
1.369891e-08
-1.4396562e-10
1.377343e-08
-1.3636327e-10
1.3849771e-08
-1.4117064e-10
1.3919485e-08
-1.2592778e-10
1.3989917e-08
-1.2490925e-10
-1.239654e-10
6.5758057e-09
-4.8148614e-10
6.7450007e-09
-4.9281603e-10
6.9112575e-09
-4.6200267e-10
7.0842817e-09
-4.9937398e-10
7.2492327e-09
-4.6567047e-10
7.4238463e-09
-5.0277556e-10
7.5901424e-09
-4.714201e-10
7.7634449e-09
-4.9241511e-10
7.9313473e-09
-4.7673687e-10
8.1073538e-09
-4.9207008e-10
8.2726668e-09
-4.6630487e-10
8.451878e-09
-4.957272e-10
8.6159977e-09
-4.5491549e-10
8.7924382e-09
-4.9211505e-10
8.9643203e-09
-4.7002753e-10
9.1335014e-09
-4.7606429e-10
9.3099819e-09
-4.8053435e-10
9.4818855e-09
-4.8334539e-10
9.6558457e-09
-4.7522838e-10
9.8347344e-09
-4.9587906e-10
1.0006714e-08
-4.7088061e-10
1.0183787e-08
-4.8496672e-10
1.0358352e-08
-4.7317696e-10
1.0530815e-08
-4.7442487e-10
1.0703535e-08
-4.601599e-10
1.0876758e-08
-4.7903176e-10
1.1044001e-08
-4.4450925e-10
1.121946e-08
-4.7363177e-10
1.1387374e-08
-4.5516608e-10
1.1557776e-08
-4.4223615e-10
1.1731077e-08
-4.7072674e-10
1.1895698e-08
-4.2979464e-10
1.2068337e-08
-4.5822221e-10
1.2232055e-08
-4.3013438e-10
1.2400344e-08
-4.4782412e-10
1.2561952e-08
-4.1341971e-10
1.2727392e-08
-4.5601592e-10
1.2886881e-08
-3.9692726e-10
1.3048438e-08
-4.333298e-10
1.321097e-08
-4.1514975e-10
1.3373335e-08
-4.1760746e-10
1.3533363e-08
-4.1661299e-10
1.3694003e-08
-4.0308131e-10
1.3852672e-08
-4.1139932e-10
1.4014015e-08
-3.9536678e-10
1.4164208e-08
-3.9380686e-10
1.4324614e-08
-3.961976e-10
1.4470299e-08
-3.7775408e-10
1.4627494e-08
-3.8489846e-10
1.4778755e-08
-3.8323496e-10
1.4936179e-08
-3.8393221e-10
1.5085881e-08
-3.584765e-10
1.5231905e-08
-3.6803976e-10
1.5379822e-08
-3.5979279e-10
1.5520453e-08
-3.296562e-10
1.5666697e-08
-3.6820653e-10
1.5800449e-08
-3.2191881e-10
1.5946026e-08
-3.3457825e-10
1.6084361e-08
-3.4483279e-10
1.621586e-08
-3.1056315e-10
1.6360845e-08
-3.2864924e-10
1.6499679e-08
-3.4004388e-10
1.6630744e-08
-3.0195864e-10
1.6758616e-08
-2.9043407e-10
1.6886332e-08
-2.9300807e-10
1.701148e-08
-2.8881204e-10
1.7145444e-08
-3.0102833e-10
1.7261989e-08
-2.6907407e-10
1.7387026e-08
-2.7012933e-10
1.7509467e-08
-2.6640719e-10
1.7627902e-08
-2.5479758e-10
1.7745511e-08
-2.5877994e-10
1.785604e-08
-2.364571e-10
1.7966004e-08
-2.3487251e-10
-2.3438583e-10
7.355287e-09
-6.8692661e-10
7.5541687e-09
-6.916977e-10
7.7555594e-09
-6.633934e-10
7.9594692e-09
-7.0328376e-10
8.1577364e-09
-6.6393767e-10
8.3626604e-09
-7.0769955e-10
8.5629758e-09
-6.7173551e-10
8.7692855e-09
-6.9872479e-10
8.971895e-09
-6.7934639e-10
9.1854737e-09
-7.0564877e-10
9.3872156e-09
-6.6804675e-10
9.6062201e-09
-7.1473173e-10
9.8103101e-09
-6.5900546e-10
1.0024459e-08
-7.0626385e-10
1.0237488e-08
-6.8305683e-10
1.044229e-08
-6.808662e-10
1.0658362e-08
-6.966063e-10
1.0866045e-08
-6.9102823e-10
1.1078455e-08
-6.8763868e-10
1.1293429e-08
-7.1085288e-10
1.1504982e-08
-6.8243389e-10
1.172137e-08
-7.0135443e-10
1.1936799e-08
-6.8860625e-10
1.2150366e-08
-6.8799178e-10
1.236412e-08
-6.7391375e-10
1.2580072e-08
-6.9498379e-10
1.2788654e-08
-6.5309119e-10
1.3006667e-08
-6.9164521e-10
1.3215406e-08
-6.6390443e-10
1.3431609e-08
-6.5843916e-10
1.3645824e-08
-6.8494149e-10
1.385568e-08
-6.3965068e-10
1.4073337e-08
-6.7587958e-10
1.4280647e-08
-6.3744487e-10
1.4494807e-08
-6.6198329e-10
1.4702336e-08
-6.2094889e-10
1.4908962e-08
-6.6264177e-10
1.5118586e-08
-6.065519e-10
1.5320586e-08
-6.3532954e-10
1.552867e-08
-6.2323365e-10
1.5734412e-08
-6.2335e-10
1.5937876e-08
-6.2007655e-10
1.6145149e-08
-6.103544e-10
1.6351135e-08
-6.1738483e-10
1.6563998e-08
-6.0823024e-10
1.6757665e-08
-5.8747343e-10
1.6971677e-08
-6.102102e-10
1.716512e-08
-5.7119691e-10
1.7376354e-08
-5.9613216e-10
1.7566187e-08
-5.7306794e-10
1.7767943e-08
-5.856888e-10
1.7964191e-08
-5.5472408e-10
1.8163668e-08
-5.6751641e-10
1.8359432e-08
-5.5555749e-10
1.8553903e-08
-5.2412657e-10
1.8743536e-08
-5.578395e-10
1.8925473e-08
-5.0385603e-10
1.9126418e-08
-5.3552303e-10
1.9304456e-08
-5.2287076e-10
1.9487562e-08
-4.9366934e-10
1.9685211e-08
-5.2629879e-10
1.9871267e-08
-5.2609938e-10
2.0048713e-08
-4.7940431e-10
2.0227542e-08
-4.6926329e-10
2.0405365e-08
-4.7083132e-10
2.0582006e-08
-4.6545274e-10
2.0769695e-08
-4.8871725e-10
2.0935584e-08
-4.3496315e-10
2.1108023e-08
-4.42569e-10
2.1273901e-08
-4.3228432e-10
2.1435262e-08
-4.1615897e-10
2.1604925e-08
-4.2844322e-10
2.1773545e-08
-4.0507739e-10
2.1930832e-08
-3.921595e-10
-3.9360184e-10
7.9554027e-09
-9.2409279e-10
8.1805703e-09
-9.1686533e-10
8.4156736e-09
-8.9849669e-10
8.6467441e-09
-9.3435427e-10
8.8797053e-09
-8.9689881e-10
9.112021e-09
-9.4001522e-10
9.3482868e-09
-9.0800135e-10
9.5858992e-09
-9.3633723e-10
9.8239214e-09
-9.1736854e-10
1.0073084e-08
-9.5481151e-10
1.0312117e-08
-9.0707991e-10
1.0567266e-08
-9.6987997e-10
1.0811974e-08
-9.0371344e-10
1.1062136e-08
-9.5642595e-10
1.1314607e-08
-9.3552802e-10
1.1556874e-08
-9.2313297e-10
1.1809825e-08
-9.4955787e-10
1.2054231e-08
-9.3543447e-10
1.2305491e-08
-9.3889829e-10
1.2553918e-08
-9.5927948e-10
1.2807667e-08
-9.3618349e-10
1.3060817e-08
-9.5450385e-10
1.3316479e-08
-9.4426827e-10
1.3574704e-08
-9.4621691e-10
1.3826477e-08
-9.2568656e-10
1.4087871e-08
-9.5637818e-10
1.4339247e-08
-9.0446737e-10
1.4599442e-08
-9.5184004e-10
1.4851082e-08
-9.1554453e-10
1.5112241e-08
-9.1959805e-10
1.5366674e-08
-9.393743e-10
1.5624419e-08
-8.9739568e-10
1.5886439e-08
-9.3789936e-10
1.6140434e-08
-8.9144079e-10
1.640282e-08
-9.2436851e-10
1.6657979e-08
-8.7610775e-10
1.6909762e-08
-9.1442549e-10
1.7171115e-08
-8.6790487e-10
1.7418724e-08
-8.8293785e-10
1.7676118e-08
-8.8062818e-10
1.7933126e-08
-8.8035785e-10
1.8185395e-08
-8.7234606e-10
1.8439792e-08
-8.6475125e-10
1.8696525e-08
-8.7411794e-10
1.8957934e-08
-8.6963881e-10
1.9193205e-08
-8.2274468e-10
1.9460111e-08
-8.7711645e-10
1.9701426e-08
-8.1251133e-10
1.9968856e-08
-8.6356187e-10
2.0209615e-08
-8.1382757e-10
2.0471185e-08
-8.4725824e-10
2.0713428e-08
-7.969678e-10
2.0959888e-08
-8.1397623e-10
2.1199514e-08
-7.9518309e-10
2.1456557e-08
-7.8116938e-10
2.1690372e-08
-7.9165453e-10
2.1934102e-08
-7.4758629e-10
2.2197884e-08
-7.9930564e-10
2.2417317e-08
-7.4230289e-10
2.2661394e-08
-7.377463e-10
2.2915128e-08
-7.8003335e-10
2.3155728e-08
-7.6669888e-10
2.3387302e-08
-7.1097819e-10
2.3618471e-08
-7.0043256e-10
2.3841954e-08
-6.9431495e-10
2.4072566e-08
-6.9606385e-10
2.4315144e-08
-7.3129601e-10
2.4543008e-08
-6.6282692e-10
2.4776306e-08
-6.7586697e-10
2.5006937e-08
-6.6291552e-10
2.5223799e-08
-6.330206e-10
2.5441053e-08
-6.4569743e-10
2.5656688e-08
-6.2071245e-10
2.5874857e-08
-6.103283e-10
-6.090802e-10
8.3974886e-09
-1.1848745e-09
8.6486471e-09
-1.1680238e-09
8.9157539e-09
-1.1656035e-09
9.1726387e-09
-1.1912391e-09
9.4420443e-09
-1.1663044e-09
9.701679e-09
-1.1996499e-09
9.9751051e-09
-1.1814275e-09
1.0243437e-08
-1.2046689e-09
1.0516757e-08
-1.1906883e-09
1.0797489e-08
-1.2355435e-09
1.1072606e-08
-1.1821973e-09
1.1358155e-08
-1.2554294e-09
1.1640772e-08
-1.1863299e-09
1.1924619e-08
-1.2402734e-09
1.2213015e-08
-1.2239241e-09
1.2494856e-08
-1.2049734e-09
1.2784897e-08
-1.239599e-09
1.306697e-08
-1.2175075e-09
1.3361405e-08
-1.2333335e-09
1.3641504e-08
-1.2393784e-09
1.3941022e-08
-1.2357016e-09
1.4229639e-08
-1.2431204e-09
1.4525331e-08
-1.2399606e-09
1.4829028e-08
-1.2499143e-09
1.5118481e-08
-1.2151387e-09
1.5426457e-08
-1.2643542e-09
1.5720446e-08
-1.1984564e-09
1.6021145e-08
-1.2525396e-09
1.6320008e-08
-1.214407e-09
1.6624493e-08
-1.2240837e-09
1.6920216e-08
-1.2350966e-09
1.7228807e-08
-1.205987e-09
1.7532634e-08
-1.2417263e-09
1.7839027e-08
-1.197834e-09
1.8147286e-08
-1.2326275e-09
1.8453681e-08
-1.1825022e-09
1.8754374e-08
-1.2151187e-09
1.9066903e-08
-1.1804342e-09
1.936666e-08
-1.1826945e-09
1.9671955e-08
-1.1859233e-09
1.9982506e-08
-1.1909091e-09
2.0285572e-08
-1.1754118e-09
2.0590304e-08
-1.1694833e-09
2.090149e-08
-1.1853044e-09
2.1213896e-08
-1.1820444e-09
2.150201e-08
-1.1108591e-09
2.1820261e-08
-1.195367e-09
2.2107372e-08
-1.0996227e-09
2.2425507e-08
-1.1816966e-09
2.2714931e-08
-1.1032519e-09
2.3032316e-08
-1.1646434e-09
2.3332367e-08
-1.0970186e-09
2.3645298e-08
-1.1269072e-09
2.3930814e-08
-1.0806991e-09
2.4252396e-08
-1.1027517e-09
2.4521576e-08
-1.0608341e-09
2.4827029e-08
-1.053039e-09
2.5146073e-08
-1.1183502e-09
2.5423917e-08
-1.020147e-09
2.5738718e-08
-1.0525468e-09
2.6049894e-08
-1.0912096e-09
2.6346944e-08
-1.0637489e-09
2.6638984e-08
-1.0030178e-09
2.6933215e-08
-9.9466394e-10
2.7221679e-08
-9.82779e-10
2.749874e-08
-9.7312423e-10
2.7790344e-08
-1.0229002e-09
2.8071105e-08
-9.435884e-10
2.8354885e-08
-9.5964626e-10
2.8645708e-08
-9.5373943e-10
2.8927475e-08
-9.147876e-10
2.9215447e-08
-9.336692e-10
2.9499868e-08
-9.0513291e-10
2.976384e-08
-8.7430035e-10
-8.8597314e-10
8.7074253e-09
-1.4645918e-09
8.9875154e-09
-1.4481138e-09
9.2828135e-09
-1.4609017e-09
9.5671296e-09
-1.4755551e-09
9.869668e-09
-1.4688428e-09
1.0157925e-08
-1.4879074e-09
1.0464582e-08
-1.4880841e-09
1.0763747e-08
-1.5038339e-09
1.1068961e-08
-1.4959019e-09
1.1380138e-08
-1.5467207e-09
1.1687167e-08
-1.489226e-09
1.2003018e-08
-1.5712811e-09
1.2318655e-08
-1.5019662e-09
1.2636412e-08
-1.5580308e-09
1.2959433e-08
-1.5469445e-09
1.327837e-08
-1.5239107e-09
1.3608735e-08
-1.5699646e-09
1.3925391e-08
-1.5341634e-09
1.4265989e-08
-1.5739315e-09
1.4578391e-08
-1.5517796e-09
1.4924255e-08
-1.5815656e-09
1.5248466e-08
-1.5673315e-09
1.5585641e-08
-1.5771363e-09
1.5931518e-08
-1.5957906e-09
1.6260436e-08
-1.5440573e-09
1.6613666e-08
-1.6175842e-09
1.69531e-08
-1.5378903e-09
1.7293258e-08
-1.5926972e-09
1.7642671e-08
-1.5638206e-09
1.7988332e-08
-1.5697441e-09
1.8329062e-08
-1.5758273e-09
1.8689746e-08
-1.566671e-09
1.9032199e-08
-1.5841789e-09
1.9398537e-08
-1.5641716e-09
1.9744897e-08
-1.5789877e-09
2.0107566e-08
-1.5451712e-09
2.0456752e-08
-1.5643049e-09
2.0816947e-08
-1.540629e-09
2.1172651e-08
-1.5383985e-09
2.1524093e-08
-1.5373658e-09
2.1888139e-08
-1.5549545e-09
2.2238965e-08
-1.5262381e-09
2.2593969e-08
-1.5244878e-09
2.2960729e-08
-1.5520639e-09
2.3315896e-08
-1.5372113e-09
2.3668099e-08
-1.4630626e-09
2.4031027e-08
-1.5582945e-09
2.4383588e-08
-1.4521839e-09
2.4751267e-08
-1.5493753e-09
2.5093033e-08
-1.4450183e-09
2.5457635e-08
-1.5292453e-09
2.5807661e-08
-1.4470449e-09
2.6176038e-08
-1.4952839e-09
2.6517736e-08
-1.4223966e-09
2.6913327e-08
-1.4983428e-09
2.7227846e-08
-1.3753536e-09
2.7600206e-08
-1.4253985e-09
2.7954734e-08
-1.4728787e-09
2.828214e-08
-1.3475527e-09
2.8678866e-08
-1.449273e-09
2.9044074e-08
-1.4564176e-09
2.9394356e-08
-1.4140312e-09
2.9747546e-08
-1.3562073e-09
3.0098621e-08
-1.3457387e-09
3.0446883e-08
-1.3310415e-09
3.0782011e-08
-1.3082516e-09
3.1116205e-08
-1.3570946e-09
3.145639e-08
-1.2837731e-09
3.1793594e-08
-1.2968503e-09
3.2142165e-08
-1.3023109e-09
3.2473515e-08
-1.2461379e-09
3.2815104e-08
-1.2752582e-09
3.3162065e-08
-1.2520933e-09
3.3501771e-08
-1.2140062e-09
-1.2234215e-09
8.9119175e-09
-1.7657292e-09
9.2200391e-09
-1.7562354e-09
9.539915e-09
-1.7807776e-09
9.8520063e-09
-1.7876464e-09
1.0181801e-08
-1.7986375e-09
1.0498611e-08
-1.8047172e-09
1.0832851e-08
-1.8223245e-09
1.1162949e-08
-1.8339314e-09
1.149574e-08
-1.8286937e-09
1.1839406e-08
-1.8903863e-09
1.2173964e-08
-1.8237841e-09
1.2525212e-08
-1.9225294e-09
1.2869762e-08
-1.8465159e-09
1.3223697e-08
-1.9119663e-09
1.3580567e-08
-1.9038145e-09
1.3933315e-08
-1.876658e-09
1.4303712e-08
-1.9403621e-09
1.4652988e-08
-1.883439e-09
1.5035752e-08
-1.9566961e-09
1.5383806e-08
-1.8998328e-09
1.5771829e-08
-1.9695891e-09
1.6134266e-08
-1.9297687e-09
1.6516222e-08
-1.9590923e-09
1.6898949e-08
-1.9785172e-09
1.7274951e-08
-1.9200594e-09
1.766569e-08
-2.0083227e-09
1.8053106e-08
-1.9253062e-09
1.8432149e-08
-1.9717402e-09
1.8833816e-08
-1.9654877e-09
1.9214851e-08
-1.9507793e-09
1.9607256e-08
-1.9682327e-09
2.0014474e-08
-1.9738892e-09
2.0397022e-08
-1.9667267e-09
2.082244e-08
-1.9895893e-09
2.1198715e-08
-1.9552625e-09
2.1623069e-08
-1.9695258e-09
2.2013877e-08
-1.9551128e-09
2.2416825e-08
-1.9435769e-09
2.2832533e-08
-1.9541062e-09
2.321956e-08
-1.9243928e-09
2.3640091e-08
-1.9754855e-09
2.4031162e-08
-1.9173094e-09
2.444092e-08
-1.9342455e-09
2.4856755e-08
-1.9678987e-09
2.5250376e-08
-1.9308323e-09
2.5669606e-08
-1.8822926e-09
2.606083e-08
-1.9495187e-09
2.6477028e-08
-1.8683819e-09
2.688585e-08
-1.9581974e-09
2.7288849e-08
-1.8480174e-09
2.7707984e-08
-1.9483803e-09
2.8106613e-08
-1.8456732e-09
2.8515472e-08
-1.9041433e-09
2.8898756e-08
-1.8056806e-09
2.9349903e-08
-1.9494899e-09
2.9702779e-08
-1.7282298e-09
3.0167281e-08
-1.8898998e-09
3.0531718e-08
-1.837316e-09
3.0909936e-08
-1.7257704e-09
3.1357784e-08
-1.8971213e-09
3.1769495e-08
-1.8681291e-09
3.2167101e-08
-1.811637e-09
3.2586145e-08
-1.7752516e-09
3.2987289e-08
-1.7468823e-09
3.3384789e-08
-1.7285418e-09
3.3770243e-08
-1.6937052e-09
3.4159993e-08
-1.7468446e-09
3.4574565e-08
-1.698345e-09
3.4952169e-08
-1.6744543e-09
3.5345091e-08
-1.6952332e-09
3.5736345e-08
-1.637392e-09
3.6124433e-08
-1.6633462e-09
3.6515119e-08
-1.6427788e-09
3.6919998e-08
-1.6188856e-09
-1.6110532e-09
9.0262845e-09
-2.0891053e-09
9.3599595e-09
-2.0899104e-09
9.7015968e-09
-2.1224149e-09
1.0040924e-08
-2.1269734e-09
1.0393966e-08
-2.1516799e-09
1.0738528e-08
-2.1492786e-09
1.1098416e-08
-2.1822131e-09
1.1456612e-08
-2.1921276e-09
1.1818308e-08
-2.1903894e-09
1.219012e-08
-2.2621981e-09
1.2555669e-08
-2.1893335e-09
1.2938453e-08
-2.3053127e-09
1.3313837e-08
-2.2219007e-09
1.3702702e-08
-2.3008312e-09
1.409057e-08
-2.2916818e-09
1.4479975e-08
-2.2660631e-09
1.4883108e-08
-2.3434954e-09
1.5271224e-08
-2.2715545e-09
1.5687011e-08
-2.3724834e-09
1.6078875e-08
-2.2916965e-09
1.6501177e-08
-2.3918916e-09
1.6906434e-08
-2.335026e-09
1.732906e-08
-2.3817182e-09
1.7747751e-08
-2.3972078e-09
1.8171994e-08
-2.3443029e-09
1.8594637e-08
-2.4309656e-09
1.9029089e-08
-2.3597578e-09
1.9446336e-08
-2.388987e-09
1.9892956e-08
-2.4121079e-09
2.0313279e-08
-2.3711019e-09
2.0749081e-08
-2.404035e-09
2.1197694e-08
-2.4225023e-09
2.1624291e-08
-2.3933239e-09
2.2095666e-08
-2.4609646e-09
2.2502032e-08
-2.3616276e-09
2.2986839e-08
-2.4543332e-09
2.3405126e-08
-2.3733998e-09
2.3846162e-08
-2.384613e-09
2.4320043e-08
-2.4279871e-09
2.4733279e-08
-2.3376285e-09
2.520202e-08
-2.4442265e-09
2.562318e-08
-2.3384694e-09
2.6090072e-08
-2.4011377e-09
2.6533478e-08
-2.4113048e-09
2.6964402e-08
-2.3617561e-09
2.7437956e-08
-2.3558472e-09
2.7844127e-08
-2.3556892e-09
2.8313974e-08
-2.3382293e-09
2.8757602e-08
-2.4018246e-09
2.9190752e-08
-2.2811681e-09
2.9650511e-08
-2.408139e-09
3.0100624e-08
-2.2957866e-09
3.054049e-08
-2.3440092e-09
3.0979193e-08
-2.2443838e-09
3.145798e-08
-2.428277e-09
3.1815139e-08
-2.0853885e-09
3.2365189e-08
-2.4399492e-09
3.2692751e-08
-2.1648782e-09
3.3130751e-08
-2.1637708e-09
3.3652754e-08
-2.4191242e-09
3.409524e-08
-2.3106147e-09
3.4534704e-08
-2.2511012e-09
3.5032375e-08
-2.2729222e-09
3.5487683e-08
-2.2021907e-09
3.5925153e-08
-2.1660118e-09
3.6312896e-08
-2.0814487e-09
3.6753396e-08
-2.1873443e-09
3.7228532e-08
-2.1734814e-09
3.7589924e-08
-2.0358461e-09
3.7961641e-08
-2.0669497e-09
3.8417731e-08
-2.0934827e-09
3.8783593e-08
-2.0292074e-09
3.912929e-08
-1.9884757e-09
3.9432367e-08
-1.9219626e-09
-1.8954167e-09
9.0640586e-09
-2.4343259e-09
9.4206564e-09
-2.4465082e-09
9.7817585e-09
-2.483517e-09
1.0147406e-08
-2.4926207e-09
1.0520545e-08
-2.5248186e-09
1.0892824e-08
-2.521558e-09
1.1276515e-08
-2.5659042e-09
1.1660841e-08
-2.5764541e-09
1.2052778e-08
-2.5823254e-09
1.2447617e-08
-2.6570375e-09
1.2849158e-08
-2.5908746e-09
1.3255461e-08
-2.7116155e-09
1.3667242e-08
-2.633682e-09
1.4084784e-08
-2.7183735e-09
1.4504755e-08
-2.7116527e-09
1.4930807e-08
-2.6921148e-09
1.5363053e-08
-2.7757419e-09
1.5793514e-08
-2.7020152e-09
1.6236599e-08
-2.8155679e-09
1.6676379e-08
-2.7314772e-09
1.7125757e-08
-2.8412695e-09
1.7576121e-08
-2.7853895e-09
1.8030179e-08
-2.8357766e-09
1.8486471e-08
-2.8535002e-09
1.8949747e-08
-2.8075785e-09
1.9405143e-08
-2.8863616e-09
1.9878083e-08
-2.8326984e-09
2.0334985e-08
-2.8458885e-09
2.0812308e-08
-2.8894304e-09
2.1275664e-08
-2.8344578e-09
2.1736893e-08
-2.8652641e-09
2.2224108e-08
-2.9097177e-09
2.2683705e-08
-2.8529214e-09
2.3184339e-08
-2.9615981e-09
2.3618254e-08
-2.7955423e-09
2.4141969e-08
-2.9780486e-09
2.4581825e-08
-2.813256e-09
2.504809e-08
-2.8508773e-09
2.5560708e-08
-2.9406054e-09
2.5997566e-08
-2.7744872e-09
2.648985e-08
-2.9365103e-09
2.6935595e-08
-2.7842145e-09
2.7442069e-08
-2.9076111e-09
2.7878445e-08
-2.8476807e-09
2.8347067e-08
-2.830378e-09
2.8827375e-08
-2.8361557e-09
2.9261977e-08
-2.7902917e-09
2.9781707e-08
-2.8579593e-09
3.0271953e-08
-2.8920701e-09
3.0697636e-08
-2.7068515e-09
3.1207291e-08
-2.9177941e-09
3.1661939e-08
-2.7504337e-09
3.2041272e-08
-2.7233424e-09
3.2431836e-08
-2.6349479e-09
3.2918572e-08
-2.9150135e-09
3.2835529e-08
-2.0023454e-09
3.368405e-08
-3.28847e-09
3.3082941e-08
-1.5637689e-09
3.2418167e-08
-1.4989971e-09
3.3489867e-08
-3.4908241e-09
3.4124661e-08
-2.9454092e-09
3.4810528e-08
-2.9369675e-09
3.523297e-08
-2.6953641e-09
3.5592293e-08
-2.5615143e-09
3.5888497e-08
-2.4622151e-09
3.5933907e-08
-2.1268589e-09
3.6135507e-08
-2.3889445e-09
3.6039198e-08
-2.0771725e-09
3.5813573e-08
-1.8102209e-09
3.5679894e-08
-1.9332705e-09
3.5811832e-08
-2.2254213e-09
3.5705127e-08
-1.9225023e-09
3.5732365e-08
-2.015713e-09
3.5496111e-08
-1.6857093e-09
-1.4914243e-09
9.0387655e-09
-2.8017411e-09
9.41201e-09
-2.8197528e-09
9.7951608e-09
-2.8666677e-09
1.0181028e-08
-2.8784879e-09
1.0576911e-08
-2.9207016e-09
1.0972712e-08
-2.9173591e-09
1.1380234e-08
-2.9734256e-09
1.1790164e-08
-2.9863849e-09
1.220892e-08
-3.0010808e-09
1.2629975e-08
-3.0780931e-09
1.3062135e-08
-3.0230345e-09
1.3494989e-08
-3.144469e-09
1.3938419e-08
-3.0771125e-09
1.4385401e-08
-3.1653553e-09
1.4835388e-08
-3.1616394e-09
1.5296326e-08
-3.1530535e-09
1.5758487e-08
-3.2379026e-09
1.6226576e-08
-3.1701037e-09
1.6697197e-08
-3.2861897e-09
1.7179996e-08
-3.2142753e-09
1.7651959e-08
-3.3132324e-09
1.8142271e-08
-3.2757018e-09
1.8620552e-08
-3.3140573e-09
1.9107078e-08
-3.3400263e-09
1.9602772e-08
-3.3032724e-09
2.0079181e-08
-3.3627707e-09
2.0584266e-08
-3.3377835e-09
2.1061611e-08
-3.3232334e-09
2.1566465e-08
-3.3942846e-09
2.2042356e-08
-3.3103489e-09
2.2525124e-08
-3.3480323e-09
2.3025639e-08
-3.410232e-09
2.3506392e-08
-3.3336743e-09
2.402227e-08
-3.4774769e-09
2.4457084e-08
-3.2303562e-09
2.5007788e-08
-3.5287528e-09
2.5420625e-08
-3.2260928e-09
2.5923641e-08
-3.3538931e-09
2.6475468e-08
-3.4924317e-09
2.6926449e-08
-3.2254683e-09
2.741156e-08
-3.4216217e-09
2.7772853e-08
-3.1455072e-09
2.8267521e-08
-3.4022794e-09
2.8529264e-08
-3.1094239e-09
2.8433946e-08
-2.7350595e-09
2.7994505e-08
-2.3967154e-09
2.8485997e-08
-3.2817836e-09
2.8748966e-08
-3.1209281e-09
2.9032036e-08
-3.1751401e-09
2.9086357e-08
-2.7611724e-09
2.9093382e-08
-2.9248192e-09
2.9293467e-08
-2.9505184e-09
2.8624792e-08
-2.0546673e-09
2.8479741e-08
-2.4898967e-09
2.86984e-08
-3.133673e-09
2.7269063e-08
-5.7300859e-10
2.755646e-08
-3.5758671e-09
2.6492691e-08
-4.9999936e-10
2.6013127e-08
-1.019433e-09
2.4999822e-08
-2.4775193e-09
2.4661995e-08
-2.6075829e-09
2.566445e-08
-3.9394224e-09
2.464682e-08
-1.6777341e-09
2.4487047e-08
-2.4017415e-09
2.3046094e-08
-1.0212614e-09
2.2106339e-08
-1.1871044e-09
2.2364369e-08
-2.6469743e-09
2.0289019e-08
-1.8222539e-12
2.0056649e-08
-1.5778509e-09
2.0136403e-08
-2.0130247e-09
1.9262375e-08
-1.3513928e-09
1.8839727e-08
-1.4998552e-09
1.8217678e-08
-1.3936632e-09
1.6804309e-08
-2.7234048e-10
-9.6735378e-10
8.9563516e-09
-3.1865872e-09
9.3471692e-09
-3.2105704e-09
9.7508819e-09
-3.2703804e-09
1.0155125e-08
-3.2827314e-09
1.0574304e-08
-3.3398798e-09
1.0989572e-08
-3.3326275e-09
1.1423051e-08
-3.4069042e-09
1.1854078e-08
-3.4174123e-09
1.2302174e-08
-3.4491763e-09
1.2745283e-08
-3.5212026e-09
1.3208971e-08
-3.4867222e-09
1.366543e-08
-3.6009287e-09
1.4139709e-08
-3.551391e-09
1.4615734e-08
-3.6413807e-09
1.5092387e-08
-3.6382919e-09
1.5588933e-08
-3.6495999e-09
1.6075087e-08
-3.7240564e-09
1.6577849e-08
-3.6728661e-09
1.7066849e-08
-3.7751896e-09
1.7584996e-08
-3.7324227e-09
1.8064079e-08
-3.792315e-09
1.8587235e-08
-3.7988576e-09
1.9065788e-08
-3.7926103e-09
1.957704e-08
-3.8512783e-09
2.0077463e-08
-3.8036953e-09
2.0563743e-08
-3.8490513e-09
2.1080627e-08
-3.8546667e-09
2.1557322e-08
-3.799929e-09
2.2076014e-08
-3.9129763e-09
2.2517088e-08
-3.7514229e-09
2.3041424e-08
-3.8723683e-09
2.3516161e-08
-3.8849688e-09
2.4028798e-08
-3.8463117e-09
2.4470912e-08
-3.9195911e-09
2.4752882e-08
-3.5123259e-09
2.4885275e-08
-3.6611462e-09
2.473722e-08
-3.0780377e-09
2.4892681e-08
-3.5093544e-09
2.5391892e-08
-3.9916421e-09
2.5105664e-08
-2.9392402e-09
2.5413568e-08
-3.7295264e-09
2.4469131e-08
-2.2010698e-09
2.4400816e-08