/*--------------------------------*- C++ -*----------------------------------*\
| =========                 |                                                 |
| \\      /  F ield         | OpenFOAM: The Open Source CFD Toolbox           |
|  \\    /   O peration     | Version:  2.3.0                                 |
|   \\  /    A nd           | Web:      www.OpenFOAM.org                      |
|    \\/     M anipulation  |                                                 |
\*---------------------------------------------------------------------------*/
FoamFile
{
    version     2.0;
    format      ascii;
    class       volVectorField;
    location    "1.6e-05";
    object      U;
}
// * * * * * * * * * * * * * * * * * * * * * * * * * * * * * * * * * * * * * //

dimensions      [0 1 -1 0 0 0 0];

internalField   nonuniform List<vector> 
7500
(
(460.01414 0.0034053828 9.2017e-18)
(460.10313 -0.037280534 3.3849031e-15)
(459.72189 0.090335134 2.2722873e-15)
(460.03581 -0.050453587 -9.8345996e-18)
(459.88642 0.022552595 2.1752894e-15)
(459.80366 -0.023923483 4.920807e-15)
(460.18011 0.028843066 2.4759453e-15)
(459.87945 -0.034088499 5.4836569e-15)
(460.16464 0.026823142 4.5284952e-15)
(460.31599 -0.010012884 1.4848704e-15)
(459.78708 -0.014672905 1.2520233e-15)
(460.29307 0.040574146 -1.5266168e-15)
(459.67616 -0.015592574 1.4851137e-15)
(459.78386 0.016341974 1.0978842e-15)
(459.65946 0.020070058 1.1031702e-15)
(459.4048 -0.033768258 1.1998633e-15)
(459.65828 0.04481104 1.0872321e-15)
(459.35505 -0.039159917 -8.9148805e-16)
(459.87668 0.010991115 1.1490568e-15)
(459.37217 -0.0090426045 7.657059e-16)
(460.19014 -0.010424406 -1.1661644e-15)
(459.61234 -0.0059868395 1.0960934e-15)
(460.13645 -0.0036485717 7.0313057e-16)
(460.03815 -0.0051153795 -1.5882527e-15)
(459.8821 0.016310385 1.3253225e-15)
(460.24903 -0.042349267 4.971652e-16)
(460.02312 0.058803907 1.2097666e-15)
(460.10409 -0.061200123 -1.4903658e-15)
(460.21867 0.026387589 -7.4552745e-16)
(459.99518 0.035353119 2.9989632e-15)
(460.22166 -0.071473244 -1.3193635e-15)
(460.00382 0.065682243 6.6447455e-16)
(460.05181 -0.035139553 1.253991e-15)
(460.05603 -0.011612996 -1.0134797e-15)
(459.93228 0.022941067 -1.5253252e-15)
(460.10837 0.02540216 9.760417e-16)
(459.82764 -0.087329675 -1.0506811e-15)
(460.08508 0.086373297 4.6655111e-16)
(459.95943 -0.026072943 7.3791814e-16)
(459.94728 0.014885324 8.9075329e-16)
(460.03455 -0.015733903 5.4745852e-16)
(459.89108 0.013912366 1.0838301e-15)
(459.90557 -0.0068129332 3.4427167e-15)
(459.90701 -0.010308262 2.295223e-15)
(460.04036 0.043307734 3.5488925e-16)
(459.75901 -0.055473458 -1.1130055e-15)
(460.06308 0.019181092 -1.4713786e-15)
(459.86255 0.0052935206 -1.3046253e-15)
(459.98026 0.021225082 8.5998289e-16)
(459.88742 -0.033111029 1.0194437e-15)
(459.92323 0.0082371132 7.6602843e-16)
(459.87762 0.044059933 2.0087175e-15)
(459.97602 -0.053885409 1.4012704e-16)
(459.81663 0.026659434 5.7252254e-16)
(460.06229 0.017985818 5.1835745e-16)
(459.81145 -0.0431877 -1.1576348e-15)
(459.7573 0.014991266 8.2717092e-16)
(460.00874 0.050667098 6.7184287e-16)
(459.65442 -0.076747201 6.5186324e-16)
(459.95683 0.034309785 4.291213e-16)
(459.92881 0.0048843223 6.0308194e-17)
(459.79387 -0.060391507 2.1075906e-15)
(460.05969 -0.0011804683 4.5328995e-16)
(459.95834 0.0093026236 -1.4112933e-15)
(460.0926 0.010317833 -1.7208105e-15)
(460.04512 0.012965427 6.9914833e-16)
(459.99045 -0.016954645 5.5751172e-16)
(460.0149 -0.018164062 4.405663e-16)
(460.07401 0.025156409 2.3049173e-16)
(460.07885 -0.016448284 -1.3967789e-15)
(459.97067 0.028873455 -1.5005431e-15)
(459.96908 -0.005194556 6.6683803e-16)
(459.93956 0.0016242261 2.2015527e-15)
(460.04756 -0.016153575 4.8129768e-16)
(459.99287 -0.0035530605 2.0616111e-15)
(459.97351 0.007047688 -1.972671e-16)
(460.15009 -0.043971955 2.0161459e-16)
(459.71306 0.095411076 -1.7616126e-16)
(460.06284 -0.066971895 2.6273845e-16)
(459.8872 0.078099734 -3.6718271e-16)
(459.85369 -0.10020306 3.7610267e-16)
(460.16108 0.048270967 -9.4797586e-17)
(459.93439 -0.016317862 2.4956252e-16)
(460.14258 -0.022888502 2.4712331e-16)
(460.33875 0.011940144 1.4416946e-16)
(459.7754 0.023140974 1.4146089e-16)
(460.27548 -0.025308343 2.4361782e-16)
(459.65168 0.08685223 -2.4087088e-17)
(459.74441 -0.04228665 -9.0109149e-16)
(459.6026 0.048072958 4.5644128e-17)
(459.36744 0.0012845172 -5.5152398e-16)
(459.59624 0.0060787583 5.6737356e-17)
(459.31656 -0.034626621 4.7822746e-16)
(459.83901 0.034483748 -5.3324293e-17)
(459.35225 -0.079962356 2.1509582e-16)
(460.16247 0.021264871 2.2951578e-16)
(459.63455 -0.0054488533 9.4539525e-17)
(460.12547 -0.028726782 -3.4013694e-17)
(460.07143 -0.012778464 1.0532613e-15)
(459.89078 0.040736531 -4.5518381e-19)
(460.27134 -0.089001619 2.9001406e-16)
(460.03376 0.085946313 -9.3750373e-16)
(460.12341 -0.050529848 -7.1849789e-16)
(460.24118 -0.014377408 1.5661214e-15)
(460.00468 0.069461939 2.3885034e-16)
(460.25168 -0.079247694 -4.0776461e-17)
(460.02329 0.075736115 1.2830899e-16)
(460.06086 -0.054264891 -9.805346e-17)
(460.08684 0.047743865 1.3681335e-16)
(459.93859 -0.047935637 -1.643094e-16)
(460.10942 0.071506621 1.6876333e-16)
(459.83983 -0.0935506 -9.649229e-18)
(460.09197 0.097395297 -7.648008e-16)
(459.94545 -0.062949336 1.1308812e-16)
(459.95483 0.057446051 -8.9507407e-17)
(460.0249 -0.036709926 5.319199e-17)
(459.89329 -0.010904115 -5.2749672e-16)
(459.90239 0.056070203 9.7747315e-17)
(459.914 -0.068171869 1.1572057e-16)
(460.03024 0.067669302 8.9039796e-17)
(459.76155 -0.051611608 -3.9724534e-16)
(460.06247 0.003172055 2.5196852e-16)
(459.8658 0.017110298 -2.4521952e-16)
(459.97487 0.01407386 2.0523898e-16)
(459.89694 -0.037042811 3.0151939e-16)
(459.93424 -0.0023468989 3.1071233e-16)
(459.88669 0.076311132 -4.5354149e-16)
(459.97832 -0.077658395 1.7849603e-16)
(459.82677 0.024047384 -3.4377948e-16)
(460.05047 0.053017569 3.6519712e-16)
(459.80407 -0.061129688 3.7936934e-16)
(459.75297 0.014768716 3.448981e-16)
(459.98542 0.070965653 1.3884932e-16)
(459.64033 -0.091047153 4.3606282e-16)
(459.96179 0.028887756 -3.4681872e-16)
(459.91237 0.015542753 2.1900489e-16)
(459.79322 -0.08237404 1.1486859e-16)
(460.06976 0.028019072 3.2876986e-16)
(459.96242 0.017059466 2.9627072e-19)
(460.09025 -0.0087781054 -5.470592e-16)
(460.03708 0.0063115109 2.8697954e-16)
(459.97977 0.00091690588 -3.4471239e-16)
(460.01583 -0.018689995 1.5584751e-16)
(460.06466 0.030755357 4.3993456e-17)
(460.07519 -0.022491261 -4.378235e-17)
(459.96592 0.0181075 5.596381e-16)
(459.96599 -0.0056143452 -3.9366645e-16)
(459.9369 0.03259128 2.2263252e-16)
(460.04867 -0.0054392441 1.6506235e-16)
(459.99645 -0.01342673 2.3473953e-16)
(459.91057 0.023070459 -1.2240939e-16)
(460.24441 -0.10898102 -7.6152206e-16)
(459.68446 0.15848338 1.6167941e-16)
(460.16139 -0.11070546 -5.0649284e-17)
(459.87628 0.10407895 -8.0778961e-17)
(459.95615 -0.11744646 7.3314684e-16)
(460.15728 0.042987961 1.2923626e-16)
(460.00786 -0.031381304 2.6268449e-17)
(460.10326 0.00018607908 -3.8347767e-17)
(460.37167 -0.015714906 2.2056677e-17)
(459.72055 0.057442785 -1.91071e-16)
(460.24338 -0.025196784 -8.6023741e-16)
(459.61339 0.10627195 -3.8236068e-16)
(459.66085 -0.029904639 5.543376e-16)
(459.55749 0.062367272 3.6692507e-16)
(459.29934 -0.0071988718 -5.5561315e-16)
(459.52072 0.034785421 7.7053238e-16)
(459.29421 -0.069980488 6.5291065e-17)
(459.764 0.034078956 4.8142618e-17)
(459.35378 -0.089989098 -1.4882093e-16)
(460.12788 0.0010203759 7.6463843e-17)
(459.66155 -0.02928591 5.7283984e-16)
(460.12324 0.011567101 6.0485817e-16)
(460.12811 -0.075550927 -1.7914489e-16)
(459.89185 0.085111408 1.0478594e-16)
(460.30384 -0.12814217 -6.2428551e-17)
(460.03714 0.10387538 -2.4026192e-16)
(460.11722 -0.049530791 -1.4131148e-16)
(460.27141 -0.04364997 -4.0559139e-16)
(460.00385 0.13074961 4.8495021e-16)
(460.29037 -0.13767435 5.6170388e-17)
(460.05248 0.11133384 -2.5353595e-19)
(460.08691 -0.051532145 -4.4284339e-16)
(460.12356 0.03602268 -5.9446962e-17)
(459.95562 -0.048165868 7.0851902e-17)
(460.11897 0.1251881 -4.6841978e-17)
(459.8457 -0.19811855 -4.3978806e-16)
(460.0893 0.20797771 -5.9102014e-16)
(459.91946 -0.11389173 1.265221e-16)
(459.9545 0.051432449 -2.9783699e-17)
(459.99504 0.013374423 2.6853599e-17)
(459.89616 -0.067478294 1.1034401e-17)
(459.88189 0.071369503 -4.4244163e-16)
(459.9052 -0.063276476 3.3357477e-17)
(460.01444 0.07267913 2.1052699e-16)
(459.74564 -0.053248973 4.0661264e-17)
(460.04626 0.010076687 5.1577361e-16)
(459.86403 -0.0010274579 4.272431e-16)
(459.95453 0.032539869 -3.058047e-16)
(459.90911 -0.045747018 -1.5688514e-17)
(459.95417 -0.053439086 3.7354509e-16)
(459.90284 0.10841122 7.723952e-16)
(459.98164 -0.066665809 1.2220462e-16)
(459.85081 -0.0095444559 5.3862907e-17)
(460.03724 0.092063375 5.0239474e-17)
(459.77912 -0.076476611 4.5901003e-16)
(459.74844 0.012585079 -8.7053693e-16)
(459.94478 0.083838373 2.3058925e-17)
(459.60959 -0.10270977 9.9608443e-17)
(459.96224 0.027802214 -4.1253331e-16)
(459.88809 0.042212174 -4.1589795e-16)
(459.79215 -0.13746213 -3.7683533e-16)
(460.07979 0.028094657 1.4609022e-16)
(459.947 0.063559817 1.2508601e-17)
(460.07807 -0.016495861 -4.4107425e-16)
(460.02133 -0.01245532 -8.1360026e-16)
(459.96078 -0.0050897008 7.8964504e-17)
(460.01144 -0.028911281 1.8296833e-16)
(460.05786 0.043701998 1.1015248e-16)
(460.08053 0.007464405 5.3765007e-17)
(459.97207 0.013366131 8.4462233e-17)
(459.98832 -0.030464841 7.1871455e-17)
(459.95183 0.026513443 3.4763842e-17)
(460.05541 0.013744948 4.4453781e-16)
(460.00693 -0.0077419442 4.2472017e-16)
(459.82811 0.026872003 -7.6767248e-17)
(460.43395 -0.14933751 2.5665294e-17)
(459.64687 0.20565812 -5.7435047e-16)
(460.36145 -0.13915816 -6.6743185e-16)
(459.87898 0.11160881 5.681847e-17)
(460.11302 -0.11858908 -4.8743135e-16)
(460.1423 0.046178086 -9.6362331e-17)
(460.08533 -0.049158038 2.2374641e-16)
(460.00695 0.023891018 -3.4948518e-17)
(460.37392 -0.019586969 -6.778823e-16)
(459.6202 0.060202111 -3.939556e-16)
(460.18635 -0.010226697 7.3369599e-16)
(459.59204 0.14214394 3.5619353e-16)
(459.59169 -0.054876046 5.3205431e-16)
(459.56767 0.10844563 4.1342874e-16)
(459.27524 -0.040585441 -1.0728219e-17)
(459.4921 0.057126455 8.6163096e-17)
(459.31391 -0.077176573 6.2147746e-17)
(459.70099 0.01605354 -4.3074581e-16)
(459.3847 -0.11159801 -5.3842298e-17)
(460.08051 0.012173642 -9.6082058e-17)
(459.70135 -0.079985509 5.3433574e-16)
(460.12213 0.033306052 -2.7868793e-17)
(460.18371 -0.089633656 2.4934016e-17)
(459.88266 0.087662813 4.409105e-16)
(460.31639 -0.13489675 2.1004782e-16)
(460.00847 0.10209899 -4.8442211e-16)
(460.05253 -0.04430338 -2.0615602e-17)
(460.28284 -0.05418935 3.660472e-16)
(459.95373 0.13677078 -3.4311976e-16)
(460.3052 -0.12494323 3.2196999e-16)
(460.09384 0.085824874 -1.9955897e-17)
(460.09667 -0.03374464 1.350703e-17)
(460.16723 0.049494898 3.1873406e-16)
(459.9974 -0.082223777 -8.0943328e-17)
(460.09589 0.19447634 -3.9817047e-17)
(459.85128 -0.25284465 -1.2614664e-16)
(460.0851 0.22079808 -2.791175e-16)
(459.84294 -0.071501981 3.3279062e-16)
(459.9358 0.014002085 4.990094e-17)
(459.93996 0.027786315 -7.2249557e-17)
(459.84931 -0.05726611 -1.6207899e-17)
(459.83859 0.04419946 -5.4522204e-17)
(459.86312 -0.061097236 -1.086069e-17)
(459.95646 0.078158869 -8.0080083e-17)
(459.70238 -0.049495298 3.1160955e-17)
(459.99433 0.02214912 -3.3431102e-17)
(459.84526 -0.020648789 -3.3204546e-17)
(459.91378 0.04885927 3.2311735e-17)
(459.89804 -0.046504713 3.5889102e-16)
(459.97377 -0.066513274 -2.84745e-17)
(459.93136 0.087236888 -7.5475986e-17)
(459.989 -0.053855973 2.8183475e-16)
(459.88432 -0.015997464 -1.6885847e-18)
(460.04758 0.12068314 -1.8342907e-17)
(459.75947 -0.12160285 3.4978135e-17)
(459.7548 0.061650583 -3.0085232e-16)
(459.90646 0.067755481 3.9040162e-17)
(459.57249 -0.11353264 3.5915081e-16)
(459.96178 0.027401157 6.8972467e-17)
(459.84915 0.050054273 9.5050265e-18)
(459.77353 -0.15168071 -5.3825931e-17)
(460.10022 -0.0076217403 -2.6900366e-16)
(459.9178 0.076022258 -2.6332848e-16)
(460.04979 0.021168596 2.3419838e-16)
(459.9899 -0.026181718 1.5972669e-17)
(459.94372 -0.032566736 3.1475244e-16)
(460.01594 -0.011204254 1.1981059e-16)
(460.07637 0.022835014 -2.9669017e-16)
(460.10691 0.029546393 -3.6401601e-16)
(459.98819 0.031313609 2.2777499e-16)
(460.03058 -0.046202107 4.9872634e-17)
(459.99347 0.018278471 5.1197122e-17)
(460.08456 0.01568853 -3.9577891e-17)
(460.02374 -0.0079664041 -2.8452825e-16)
(459.76582 0.007248777 -1.6401537e-17)
(460.74875 -0.13330042 -2.1434541e-17)
(459.6387 0.17593135 2.252411e-16)
(460.69216 -0.12407832 4.182853e-17)
(459.87768 0.13709082 -6.8419435e-18)
(460.32057 -0.15940753 -5.4685527e-18)
(460.02484 0.093363173 -4.4500507e-17)
(460.14329 -0.058717479 -5.2927953e-16)
(459.75079 0.030157932 -1.0492638e-17)
(460.34348 -0.021978319 -7.2640388e-17)
(459.43257 0.10149488 -5.0197907e-16)
(460.1531 -0.069839004 -3.2054685e-19)
(459.62441 0.23019311 2.0964031e-17)
(459.65544 -0.099786801 1.2696149e-18)
(459.71396 0.12302779 -2.7866798e-17)
(459.44158 -0.0055671732 -4.9627425e-17)
(459.58583 0.0091602146 4.83927e-16)
(459.47546 -0.051236227 -8.5954751e-17)
(459.68682 0.016415216 -1.975204e-17)
(459.46652 -0.15495822 4.2714314e-16)
(460.01116 0.017635564 3.346996e-16)
(459.71916 -0.085137194 -4.1693619e-17)
(460.05193 -0.018656919 -3.828265e-17)
(460.20337 -0.036145671 -1.2507314e-17)
(459.81508 0.043578547 7.0871973e-17)
(460.26935 -0.10932465 3.2049713e-16)
(459.95041 0.10654378 1.7247657e-17)
(459.91416 -0.085379007 2.7558423e-17)
(460.22706 0.0032197273 -4.1954488e-18)
(459.85932 0.085367623 -4.1819433e-16)
(460.24089 -0.12495935 2.83381e-16)
(460.09197 0.12459534 2.4813594e-16)
(460.07636 -0.096568804 2.8474785e-16)
(460.16864 0.091340589 -3.5509154e-16)
(460.01347 -0.069415238 -2.845518e-16)
(460.07487 0.15202883 -2.3557818e-16)
(459.80359 -0.17714567 -2.2135377e-16)
(460.06499 0.19358689 3.9561133e-17)
(459.74897 -0.071105919 -4.8116906e-18)
(459.84358 0.049626555 3.1429563e-17)
(459.8434 -0.013304047 8.0743718e-17)
(459.7521 -0.023064398 1.9086829e-16)
(459.71411 0.035426054 -4.0865908e-17)
(459.76723 -0.068311229 1.6776276e-16)
(459.85789 0.06962649 -2.2210149e-16)
(459.61935 -0.040921193 1.2015284e-17)
(459.90288 -0.0014235631 2.2147877e-16)
(459.80623 0.022441067 3.3588771e-16)
(459.84894 0.0034889345 3.1295336e-16)
(459.85929 -0.049790712 -2.4324153e-16)
(459.96305 -0.045647506 2.2239763e-16)
(459.92923 0.074448442 1.7922239e-16)
(459.99985 -0.071198847 -9.6599871e-18)
(459.91332 -0.011790759 2.2730998e-16)
(460.06718 0.15182907 -6.1252776e-17)
(459.7653 -0.16967054 -2.5070889e-16)
(459.78103 0.1079603 -1.9728391e-16)
(459.87365 0.055793522 2.3164888e-16)
(459.54515 -0.12302486 4.1902433e-17)
(459.95577 0.050239917 2.4199364e-16)
(459.80558 -0.016594916 5.7935447e-17)
(459.73926 -0.12965475 1.6241545e-17)
(460.10662 0.030841268 2.1206802e-16)
(459.88775 0.042455743 -7.6683272e-18)
(460.0258 0.016678755 2.6559428e-16)
(459.94505 -0.003857237 -1.7865868e-16)
(459.93428 -0.085724561 2.9816374e-18)
(460.01209 0.033212634 2.4211088e-17)
(460.0876 0.0084832282 -1.8087809e-16)
(460.13814 0.0041976482 3.0705721e-17)
(459.9962 0.04598577 3.3028623e-17)
(460.06173 -0.03821326 2.1270869e-16)
(460.01912 0.034727331 -1.9428676e-16)
(460.10134 0.02025418 -1.6361673e-17)
(460.02224 -0.010780192 -9.5369852e-18)
(459.93129 -0.032732822 8.2100656e-18)
(460.96315 -0.10967676 -2.936179e-16)
(459.75512 0.15558124 6.0194002e-17)
(460.93062 -0.12550074 -1.412677e-17)
(459.84694 0.17596053 -1.1863367e-16)
(460.46077 -0.17456824 4.0634894e-16)
(459.72226 0.12541468 -1.9202813e-16)
(460.19147 -0.061547568 -1.637377e-16)
(459.30847 0.065534647 4.4753812e-17)
(460.33072 -0.076992694 2.8822471e-16)
(459.2018 0.1718817 -4.1747667e-16)
(460.20932 -0.14089408 3.9020553e-16)
(459.71562 0.24932488 2.4692347e-17)
(459.97588 -0.082441839 -2.7961358e-16)
(459.9395 0.075385348 -5.3326343e-17)
(459.92897 0.060626681 2.2749178e-17)
(459.78192 -0.024793373 3.4706433e-18)
(459.83251 -0.032717792 2.6051613e-17)
(459.75339 0.019540951 2.1252277e-17)
(459.60629 -0.14960047 1.0124941e-17)
(459.86199 0.00030888469 3.3345517e-16)
(459.76132 -0.074149642 3.5934922e-17)
(459.78308 -0.055154664 1.0187814e-17)
(460.1863 -0.01333798 1.2428556e-17)
(459.66574 0.034624404 1.2674099e-17)
(460.15049 -0.11366427 6.1345036e-17)
(459.90136 0.14642077 2.9811212e-16)
(459.75749 -0.13899812 8.6189694e-19)
(460.11091 0.028880066 -2.898334e-16)
(459.74858 0.083641434 5.0841047e-17)
(460.05827 -0.16091181 -5.4443597e-18)
(460.02336 0.13828071 -2.1931821e-16)
(459.94185 -0.092647586 4.8597768e-17)
(460.11415 0.050143338 5.72087e-17)
(459.92297 -0.019691176 2.6864807e-16)
(460.05547 0.12939792 1.1266635e-17)
(459.7194 -0.16462971 2.8493993e-17)
(460.02041 0.23466507 4.144583e-17)
(459.67947 -0.080139583 2.9601604e-16)
(459.73756 0.049155845 -2.0961351e-16)
(459.71691 0.0046541513 -2.0012325e-16)
(459.66911 -0.02633083 -1.2949662e-17)
(459.57084 0.025332081 1.7147912e-17)
(459.66859 -0.05305416 2.7800912e-16)
(459.76742 0.02913106 6.1154253e-17)
(459.57313 0.014386618 2.5536712e-16)
(459.81643 -0.073600489 2.4245216e-17)
(459.7932 0.080267954 -1.9726656e-18)
(459.77619 -0.045275121 4.4014566e-17)
(459.811 -0.040604266 5.1503733e-17)
(459.91191 -0.068418625 2.0526041e-16)
(459.87687 0.062098686 7.5594625e-17)
(459.96304 -0.044835485 -1.4570746e-16)
(459.89179 -0.022581273 1.8211686e-17)
(460.06312 0.13359791 1.8767579e-16)
(459.77074 -0.15178171 -1.5800695e-16)
(459.80045 0.11097461 6.3990703e-17)
(459.84509 0.02754611 2.4559789e-16)
(459.53181 -0.10026485 3.5590015e-17)
(459.92071 0.084064904 -1.3825173e-16)
(459.73701 -0.086970092 -1.2259197e-16)
(459.70259 -0.15964704 6.6784255e-17)
(460.07999 0.079860317 2.5778751e-16)
(459.8255 0.080544157 4.1383321e-17)
(459.99148 -0.0071181646 -2.9985255e-16)
(459.90956 0.013034882 2.2722527e-16)
(459.8996 -0.14046397 -1.6420038e-16)
(460.00036 0.036191177 8.1313678e-17)
(460.04894 0.0086198393 2.2954676e-16)
(460.11984 -0.0054614936 4.810746e-17)
(459.96115 0.030454639 7.9030827e-17)
(460.02173 -0.025677465 4.7943065e-17)
(459.9821 0.054253228 -7.144765e-18)
(460.04578 0.027891049 -1.3399835e-16)
(459.95215 -0.0058107871 5.8203443e-17)
(460.5423 -0.090118383 -1.6426923e-17)
(460.49077 -0.068288384 -2.3748976e-16)
(460.12441 0.14223081 6.5598303e-17)
(460.56099 -0.13009465 1.8224249e-16)
(459.89867 0.18891634 2.0366762e-17)
(460.30027 -0.13186653 -3.7310501e-17)
(459.45062 0.13131981 3.7706303e-17)
(460.23286 -0.058703927 2.4225787e-17)
(458.97591 0.10353008 -1.9507303e-16)
(460.39029 -0.12621856 1.9523527e-16)
(459.09268 0.18241338 2.7589907e-17)
(460.37081 -0.16646058 5.6649946e-18)
(459.71494 0.20624376 3.7235582e-16)
(460.44772 -0.072313639 -2.6308578e-16)
(459.94827 0.037483088 5.8253848e-17)
(460.49237 0.10672496 2.1254782e-17)
(459.89825 -0.04332521 1.9125436e-17)
(460.1744 0.023621892 -7.1748162e-19)
(459.83875 0.013068474 -2.0151961e-16)
(459.82596 -0.1315289 4.2500745e-17)
(459.60652 0.036292065 6.2468003e-17)
(459.99586 -0.10150689 7.1995946e-17)
(459.35311 -0.036637497 2.4445817e-17)
(460.2626 -0.040292688 -1.2221228e-17)
(459.51035 0.042246503 -2.157437e-16)
(460.02876 -0.10481871 3.3245234e-16)
(459.92806 0.13438677 -2.3355296e-18)
(459.68936 -0.11944534 -2.3157131e-16)
(459.95376 0.033305759 -2.0145733e-16)
(459.79306 0.036928666 -1.0144042e-16)
(459.73158 -0.093922804 2.8953761e-16)
(460.00911 0.074600736 2.7966952e-17)
(459.68764 -0.096793546 3.1768949e-17)
(460.05381 0.097332465 9.4656405e-18)
(459.73639 -0.090475642 7.3096642e-17)
(460.09162 0.16101935 -2.499957e-16)
(459.61607 -0.12501384 2.6972183e-16)
(460.06116 0.16505142 2.7852072e-16)
(459.6994 0.023291732 5.2806206e-17)
(459.76149 -0.0034147973 2.3588344e-17)
(459.70467 0.021588928 -3.0985671e-17)
(459.7574 0.0056482384 -1.5907106e-16)
(459.56771 -0.0055212515 2.4045179e-16)
(459.73153 -0.031071021 2.9455802e-16)
(459.78667 -0.033848815 3.5841754e-17)
(459.69853 0.083275781 1.940445e-16)
(459.76593 -0.11847591 2.4218745e-17)
(459.89211 0.10026306 1.9072615e-16)
(459.7287 -0.087421669 1.7082403e-16)
(459.8004 0.0095969825 -1.5106904e-16)
(459.82687 -0.10190142 8.3259631e-17)
(459.82861 0.033761388 7.7084493e-17)
(459.88688 -0.029212618 7.8218698e-17)
(459.79973 0.011264772 1.7498585e-16)
(459.99759 0.077065921 -1.5998719e-16)
(459.77065 -0.093141624 -1.4598817e-16)
(459.73311 0.11245077 8.0766957e-17)
(459.8009 -0.057604316 2.2836375e-17)
(459.50035 -0.0070768688 4.9672467e-18)
(459.8331 0.059729961 -1.6109192e-16)
(459.62978 -0.12246856 -2.7280553e-17)
(459.63938 -0.1587211 2.2650931e-17)
(460.03003 0.041257235 -5.8203719e-17)
(459.76281 0.10525023 1.4408577e-17)
(459.89368 0.0543796 6.1961105e-17)
(459.88343 0.012526966 1.9194017e-16)
(459.7777 -0.14938392 -1.6126417e-16)
(459.94049 0.051030008 1.5118505e-16)
(459.90293 -0.03344994 -1.0688288e-16)
(459.96631 0.00079875717 -1.3996752e-16)
(459.77461 0.032349557 8.2514807e-18)
(459.78069 -0.053701247 3.1161513e-17)
(459.75134 0.072247208 -1.4461599e-16)
(459.76421 0.055817405 2.6871214e-17)
(459.6685 -0.0036399056 1.8130699e-16)
(461.19738 -0.12512143 -2.7771009e-17)
(459.30416 -0.020796479 -1.8480398e-16)
(460.69563 0.10267742 2.8644463e-16)
(459.54636 -0.09203348 3.5034625e-17)
(460.21464 0.15633069 -1.0433624e-16)
(459.82656 -0.070713067 4.0831827e-17)
(459.6002 0.11710824 6.6981436e-17)
(460.17477 -0.033940391 6.2781547e-17)
(459.15679 0.089695213 2.4770331e-16)
(460.38806 -0.12400006 4.494635e-17)
(459.28242 0.15236942 2.1344583e-16)
(460.4064 -0.18116187 -1.2439858e-18)
(459.63522 0.18135615 1.023941e-16)
(460.59831 -0.082092344 -6.6802277e-17)
(459.7691 0.0055520498 9.0904933e-17)
(460.55814 0.13582511 4.4112144e-17)
(459.95754 -0.053414635 1.4371099e-17)
(460.17371 0.059574777 7.3238405e-17)
(459.92102 0.025543095 -1.9981523e-16)
(460.07902 -0.10295034 4.4401087e-17)
(459.35518 0.041201325 8.4163352e-17)
(460.44469 -0.084270016 2.5634195e-16)
(458.97966 -0.033190481 1.2322827e-17)
(460.47618 -0.052129908 -1.7106385e-16)
(459.43611 0.023242674 -2.0326467e-16)
(459.9716 -0.081690462 3.1461661e-17)
(459.97192 0.11522624 4.9489985e-17)
(459.78414 -0.11269447 2.4633299e-16)
(459.74492 0.079415464 2.4087632e-16)
(460.0897 -0.013999711 -2.2693557e-16)
(459.34023 -0.06285538 8.8569003e-17)
(460.2636 0.095842607 -5.3956236e-18)
(459.33341 -0.1657897 1.1351478e-17)
(460.24737 0.139049 -1.5460622e-16)
(459.4771 -0.10339565 7.4248047e-17)
(460.30825 0.093459583 -1.989739e-16)
(459.5342 -0.020767935 -1.698507e-17)
(460.25787 0.077390646 -1.4665753e-16)
(459.80214 0.062389728 3.8363997e-17)
(459.9931 0.02702893 3.7520105e-16)
(459.79947 -0.036554247 -2.7480805e-18)
(460.06417 0.0498192 5.7183607e-19)
(459.65747 -0.0051661111 1.392199e-17)
(459.97719 -0.041158609 2.2842989e-16)
(459.79617 -0.074666569 -1.5411869e-16)
(459.97142 0.14514785 -1.7376571e-17)
(459.65724 -0.14801695 -1.8393475e-16)
(460.01854 0.14613085 6.2438679e-17)
(459.6351 -0.16307039 2.2002443e-17)
(459.79316 0.10823232 8.5347343e-17)
(459.67489 -0.15516893 3.143009e-17)
(459.72649 0.05156292 -1.4888303e-16)
(459.71873 -0.051897206 4.0986101e-18)
(459.60745 0.039692055 3.4853424e-17)
(459.72208 0.018053091 6.5891844e-17)
(459.67131 -0.0050065885 2.2068771e-17)
(459.39629 0.11056022 -1.4091336e-16)
(459.63158 -0.16754578 -7.8480845e-17)
(459.2656 0.095756834 1.3543142e-16)
(459.56533 0.018354659 1.3091827e-17)
(459.37253 -0.22328144 1.3948565e-16)
(459.39695 -0.11401611 -1.0855986e-16)
(459.75237 0.048309652 -1.7750302e-17)
(459.52249 0.035988441 1.9157572e-17)
(459.48783 0.10033335 -6.7658353e-17)
(459.5664 0.030798011 -1.285982e-16)
(459.21953 -0.14395424 -3.8892684e-17)
(459.45228 0.13475851 -1.3733109e-16)
(459.22521 -0.03525016 -1.1092898e-16)
(459.31506 -0.025464026 -1.3171094e-16)
(459.01101 0.068850776 -5.1032854e-18)
(458.9367 -0.075404326 1.376619e-16)
(458.90311 0.027758408 4.5102539e-17)
(458.83383 0.10024902 4.2787521e-17)
(458.69803 0.015563294 1.3844521e-16)
(461.15329 -0.11121744 -1.2982759e-17)
(458.58925 0.005163813 1.6814381e-16)
(460.99582 0.05555087 -3.6140043e-17)
(458.86212 -0.04323087 1.1209282e-16)
(460.53834 0.1000557 9.9837676e-17)
(459.52144 -0.023237106 -8.0106915e-17)
(459.9633 0.074332901 1.2507624e-16)
(460.05506 0.0022990382 7.3058558e-17)
(459.6498 0.068550395 1.1904913e-16)
(460.14287 -0.12675669 2.094459e-16)
(459.79732 0.16677979 -1.330481e-16)
(459.92771 -0.21277211 3.772934e-17)
(460.03954 0.18827173 2.2297488e-16)
(459.89866 -0.094211379 1.7719943e-16)
(460.20881 0.003385825 -1.0999061e-18)
(459.75484 0.11036775 1.1676131e-17)
(460.47869 -0.036952999 -4.6031566e-18)
(459.62245 0.072397329 -7.9304605e-17)
(460.25282 -0.011148251 2.9801482e-16)
(460.01547 -0.011368167 -2.499014e-17)
(459.40424 -0.024174609 -2.9398444e-17)
(460.60743 -0.027907364 -7.4411308e-18)
(458.96857 -0.033942667 1.4169699e-17)
(460.53106 -0.078354935 -6.2369752e-18)
(459.51544 0.070919089 2.6057738e-16)
(459.94515 -0.15721221 -1.7509801e-17)
(460.02446 0.16664276 -1.7988734e-16)
(459.92698 -0.11242871 1.6147398e-16)
(459.58467 0.057013831 -6.9181455e-18)
(460.52599 0.027658426 -2.0072934e-16)
(458.9058 -0.068506723 5.4424609e-17)
(460.90245 0.069925461 2.7481677e-17)
(458.79362 -0.11098778 2.278989e-16)
(460.82472 0.054936678 7.7766643e-18)
(459.12816 -0.070825527 -1.9156662e-16)
(460.64653 0.054387746 -2.3130974e-16)
(459.42352 -0.010451424 6.6404068e-17)
(460.46798 0.073937749 2.1614798e-16)
(459.72555 0.041673649 2.2385452e-17)
(460.25178 0.051457839 4.7273124e-18)
(459.57285 -0.034536539 2.4379384e-17)
(460.34213 0.022350171 3.6275513e-18)
(459.34348 0.040704471 3.396466e-17)
(460.12262 -0.054324986 -4.9337322e-18)
(459.34776 -0.11079249 3.929765e-17)
(460.06224 0.21499475 -2.7520528e-17)
(459.14477 -0.17564743 1.962479e-17)
(459.82595 0.20515307 -4.4265837e-18)
(459.18312 -0.23473693 -1.1609667e-16)
(459.3919 0.19387409 -8.6189343e-18)
(459.13839 -0.1751176 2.1559837e-17)
(459.15676 0.053500787 1.8075188e-16)
(459.04355 -0.036946226 -1.620654e-16)
(458.91746 0.066581689 -1.0324342e-17)
(458.77318 -0.095771931 4.09902e-17)
(459.02957 0.1649716 -1.7197113e-17)
(458.30313 0.032480048 -1.4643223e-16)
(458.76025 -0.20330983 -1.3952715e-16)
(458.22032 0.19368768 -1.3393564e-16)
(458.43755 -0.037768779 1.3797813e-17)
(458.20594 -0.28199241 -4.2294226e-18)
(458.17801 -0.1834395 -8.0386738e-18)
(458.37092 0.089524451 -1.2682759e-16)
(458.18485 0.010253025 -1.0853722e-16)
(457.78366 0.070948825 -3.5533768e-18)
(457.96903 0.066317817 -2.4860972e-17)
(457.196 -0.18173512 -3.0341557e-17)
(457.52506 0.1757046 -1.3485087e-16)
(456.95459 0.053723242 -1.2896032e-16)
(457.16688 -0.014702816 -3.0977047e-17)
(456.68331 0.10963692 -3.5280103e-17)
(456.52601 -0.029419008 -1.2897933e-16)
(456.38065 -0.030263097 -1.5121631e-17)
(456.26345 0.072411889 -2.3713338e-17)
(455.90858 0.025244992 -1.5904487e-17)
(460.62581 -0.082886092 -4.5725556e-17)
(458.8586 0.020227869 -1.0255578e-16)
(460.79304 0.011010111 -2.0635996e-16)
(459.04091 -0.011336673 -2.8306723e-16)
(460.47 0.048675258 -2.8572211e-17)
(459.70746 0.022496025 -1.9001643e-17)
(459.99263 0.023538138 -4.1648661e-17)
(460.10047 0.018418951 1.4936349e-16)
(459.89075 0.082982016 1.3612382e-16)
(459.84308 -0.15850045 -1.9035967e-16)
(460.34614 0.20689592 -3.8386426e-17)
(459.13366 -0.22913346 -1.6242718e-17)
(460.99328 0.18605214 1.5148802e-16)
(458.64107 -0.10638851 9.2211663e-17)
(461.44891 0.023568001 -2.2863171e-18)
(458.39839 0.083765185 8.0664712e-18)
(461.61663 -0.064545046 3.5969393e-17)
(458.55861 0.13719559 -7.4554924e-18)
(461.08278 -0.10072112 4.4408811e-17)
(459.265 0.095741247 -2.1681152e-17)
(460.11928 -0.096179303 2.9052846e-17)
(459.94672 0.023176952 2.5124947e-17)
(459.7044 -0.023979136 3.85119e-17)
(459.99111 -0.13455581 -5.1848677e-18)
(460.07125 0.15352121 -1.3120226e-16)
(459.67397 -0.22321402 -4.4971594e-18)
(460.30315 0.14997162 7.6029652e-17)
(459.8736 -0.031682377 1.8193607e-16)
(459.60997 -0.019608525 4.475455e-17)
(460.71932 0.064277125 6.7552158e-17)
(458.55941 -0.032267958 1.1310765e-17)
(461.39816 0.0066981567 3.2183947e-17)
(458.13747 -0.056710727 -1.077798e-16)
(461.32316 0.012491338 1.6673157e-16)
(458.54473 -0.070918966 3.1582308e-17)
(460.7458 0.032977521 -8.8833202e-18)
(459.03548 0.0086601963 2.0959271e-17)
(460.24399 0.036615761 3.8010576e-17)
(459.1306 0.053888251 2.2129883e-16)
(460.09167 0.05511496 1.9675947e-17)
(458.48426 -0.040879469 -2.3018792e-18)
(460.19573 0.08006024 1.6798582e-16)
(457.94588 0.013952387 3.0037653e-17)
(459.78855 -0.035150003 1.1225404e-17)
(457.75343 -0.11184699 -9.465901e-18)
(459.47531 0.22864475 -2.384679e-18)
(457.50543 -0.17194958 1.4923708e-16)
(458.73684 0.20132271 1.3035208e-16)
(457.49506 -0.20377969 -6.8767365e-18)
(457.86747 0.19073015 -3.0356491e-16)
(457.26878 -0.14885784 -1.1933988e-16)
(457.2488 0.097672109 -3.3925322e-17)
(456.86584 -0.075823215 1.2276223e-16)
(456.71668 0.19968534 -5.9457345e-17)
(456.16419 -0.26914695 2.9856078e-17)
(456.66693 0.36937038 8.1250134e-17)
(455.37676 -0.020447268 -1.7126107e-16)
(455.81839 -0.25132196 -1.2347827e-16)
(455.09359 0.33099991 1.3806787e-16)
(454.8631 -0.12195283 1.067128e-16)
(454.62267 -0.19747932 -2.2741193e-16)
(454.33596 -0.20192561 -2.0782405e-16)
(454.32033 -0.027751555 -1.6490225e-16)
(454.27189 0.077062431 4.1849664e-17)
(453.11071 0.014498655 -1.4501758e-17)
(453.6315 0.12263423 -4.8319483e-17)
(452.14539 -0.17410073 -9.0467199e-18)
(452.74903 0.048907704 -3.6084908e-17)
(451.73354 0.088834911 -7.0268394e-17)
(452.04586 -0.030022309 3.2323107e-17)
(451.3624 0.12883144 -2.0698619e-16)
(451.14255 0.017475445 5.2858041e-17)
(450.60291 -0.0064754246 -6.7566114e-17)
(450.56811 0.020568408 -5.5704872e-17)
(449.72829 -0.016762593 -6.1450515e-17)
(460.15685 -0.061866276 -2.7749712e-17)
(459.34096 0.029106529 2.8539389e-16)
(460.50765 -0.020474249 5.1739527e-16)
(459.36639 0.01066574 2.2775664e-16)
(460.3757 0.0052955213 -9.7484197e-17)
(459.84504 0.067569933 1.9276274e-16)
(460.01412 -9.2939355e-05 9.2744676e-17)
(460.08917 0.0041602549 1.6337215e-16)