/*--------------------------------*- C++ -*----------------------------------*\
| =========                 |                                                 |
| \\      /  F ield         | OpenFOAM: The Open Source CFD Toolbox           |
|  \\    /   O peration     | Version:  2.3.0                                 |
|   \\  /    A nd           | Web:      www.OpenFOAM.org                      |
|    \\/     M anipulation  |                                                 |
\*---------------------------------------------------------------------------*/
FoamFile
{
    version     2.0;
    format      ascii;
    class       volScalarField;
    location    "2.3";
    object      epsilon;
}
// * * * * * * * * * * * * * * * * * * * * * * * * * * * * * * * * * * * * * //

dimensions      [0 2 -3 0 0 0 0];

internalField   nonuniform List<scalar> 
2268
(
0.00617199
0.0273918
0.0488803
0.0697382
0.0902056
0.110762
0.131807
0.153621
0.176408
0.200313
0.225351
0.251296
0.277692
0.303586
0.327212
0.345809
0.356258
0.353865
0.331517
0.29276
0.232873
0.145153
0.0400566
0.0109064
0.0184983
0.0278482
0.0371791
0.0464078
0.0556344
0.0650027
0.0746687
0.0847884
0.0954843
0.106815
0.118764
0.13116
0.143613
0.155389
0.165362
0.172223
0.174334
0.169824
0.156132
0.130733
0.0964329
0.0694296
0.017146
0.0190562
0.0256911
0.0327005
0.039734
0.0467994
0.0539969
0.0614625
0.0693419
0.0777598
0.0867947
0.0964572
0.106638
0.117046
0.127129
0.136047
0.142833
0.146405
0.145515
0.138631
0.125103
0.108696
0.118544
0.023002
0.0209011
0.0261537
0.0321508
0.0383068
0.0445649
0.0510031
0.0577487
0.0649441
0.0727177
0.0811597
0.0902945
0.100039
0.110137
0.120091
0.12915
0.136469
0.14123
0.142599
0.139964
0.134103
0.130516
0.17451
0.0285875
0.0231879
0.0274959
0.032901
0.0386061
0.0445013
0.050649
0.0571718
0.0642111
0.071901
0.0803416
0.0895713
0.0995264
0.109969
0.120409
0.130097
0.138231
0.144168
0.147472
0.148351
0.149054
0.158234
0.244105
0.0341506
0.025731
0.0292839
0.0342893
0.0397417
0.0454851
0.0515699
0.0581156
0.0652636
0.0731549
0.0819024
0.091563
0.102097
0.11328
0.124596
0.135227
0.14436
0.151489
0.156566
0.160601
0.167556
0.191336
0.330558
0.0398742
0.0284823
0.0313674
0.0360754
0.0413873
0.0471028
0.053263
0.0599844
0.0674078
0.075683
0.084941
0.0952658
0.106653
0.118898
0.13142
0.143256
0.153526
0.161823
0.168479
0.175267
0.188081
0.229284
0.459567
0.0457888
0.0314313
0.0336945
0.0381596
0.0434011
0.0491728
0.0555075
0.0625173
0.0703391
0.079134
0.0890602
0.100241
0.112731
0.126357
0.140427
0.153728
0.165216
0.174587
0.182524
0.19143
0.208791
0.267447
0.748515
0.0509335
0.129584
0.212114
0.269826
0.298949
0.312545
0.308891
0.273053
0.209498
0.148257
0.114521
0.0949129
0.0748132
0.0591395
0.0576187
0.0633766
0.0684566
0.0597088
0.0224856
0.0608019
0.0900976
0.119539
0.139499
0.148964
0.152003
0.148736
0.136279
0.116509
0.0937213
0.0726762
0.0567802
0.0453348
0.0379908
0.0347667
0.0345109
0.0363157
0.0358332
0.0275392
0.0862916
0.0885051
0.109916
0.122551
0.12728
0.127011
0.122092
0.111911
0.0982574
0.0828819
0.0667551
0.0531026
0.0429991
0.0365201
0.0337245
0.0341109
0.0368349
0.0387727
0.0383215
0.105828
0.0947197
0.112677
0.121439
0.123174
0.120508
0.113916
0.103708
0.0917656
0.0790589
0.0657485
0.0537973
0.0445818
0.0386866
0.0363753
0.0373684
0.0403283
0.042907
0.0480396
0.122534
0.105313
0.120276
0.125628
0.124602
0.119696
0.111466
0.100706
0.089305
0.077838
0.0663612
0.0558392
0.0476023
0.0424889
0.040705
0.041912
0.0443671
0.0468501
0.0570347
0.14017
0.119829
0.130541
0.132215
0.128359
0.121255
0.111454
0.10003
0.088813
0.0781254
0.0679638
0.0586848
0.051514
0.0473097
0.0460413
0.047068
0.0485407
0.0505445
0.0656318
0.167284
0.138083
0.14218
0.139765
0.133041
0.123834
0.112597
0.100583
0.0895423
0.0795773
0.0704662
0.0622955
0.0561765
0.0528645
0.0520262
0.0525069
0.0527086
0.0540481
0.074314
0.240594
0.15852
0.153861
0.147273
0.137833
0.126727
0.114264
0.101861
0.0912145
0.0821375
0.0739676
0.0667509
0.0615486
0.0590311
0.058492
0.0580608
0.056831
0.0575911
0.0840904
0.0556617
0.036382
0.0376918
0.0418288
0.0470305
0.0529869
0.0597219
0.0673324
0.0759385
0.0857197
0.0968927
0.109675
0.124271
0.140601
0.157742
0.173775
0.187218
0.197985
0.207245
0.218041
0.23787
0.28687
0.42574
0.0704827
0.0441274
0.0441471
0.0478984
0.0531858
0.0596169
0.0672411
0.0760941
0.0861952
0.0977762
0.111206
0.126962
0.145769
0.168112
0.192281
0.213497
0.228922
0.239607
0.247631
0.256575
0.273039
0.306245
0.35765
0.0919499
0.0542674
0.0522162
0.055395
0.0608227
0.0679115
0.0768948
0.087596
0.0996764
0.113534
0.129846
0.149549
0.174719
0.207995
0.245591
0.273814
0.287552
0.293514
0.29528
0.296942
0.305906
0.327182
0.343842
0.135923
0.0682219
0.0622901
0.0647166
0.070427
0.0783041
0.0894958
0.102882
0.117244
0.133942
0.153807
0.178289
0.212214
0.263411
0.31905
0.339484
0.345972
0.345694
0.340907
0.331497
0.32602
0.338331
0.346521
0.179432
0.0795503
0.0702058
0.072615
0.0789959
0.0876881
0.10043
0.116301
0.133149
0.152374
0.174386
0.200799
0.237766
0.292195
0.335866
0.343872
0.34802
0.351483
0.35214
0.345559
0.336957
0.334786
0.336748
0.165786
0.0839669
0.0771311
0.078611
0.0843836
0.093832
0.107001
0.124607
0.145423
0.16548
0.18596
0.210368
0.244006
0.285473
0.316607
0.332178
0.34071
0.342473
0.341063
0.337063
0.334657
0.33983
0.340101
0.162513
0.0833334
0.0784067
0.0814328
0.0892403
0.0999761
0.113778
0.132466
0.153074
0.170271
0.188784
0.212459
0.244626
0.277844
0.302248
0.332321
0.350112
0.345003
0.338316
0.330945
0.327007
0.331735
0.33024
0.153335
0.0797019
0.0761328
0.0814761
0.0916455
0.104434
0.118717
0.135109
0.151147
0.16675
0.185686
0.209978
0.24079
0.270672
0.288868
0.317251
0.341802
0.350505
0.348365
0.33463
0.323504
0.320458
0.3181
0.14136
0.0761533
0.073767
0.0800235
0.0905607
0.103673
0.11782
0.132163
0.146032
0.161208
0.179782
0.202207
0.228446
0.254243
0.270448
0.287884
0.308442
0.329301
0.349916
0.343757
0.322349
0.308424
0.298959
0.133172
0.0740287
0.0717734
0.0776277
0.0872018
0.0990712
0.111985
0.125023
0.138163
0.153599
0.172468
0.192854
0.214351
0.235409
0.250919
0.262749
0.276821
0.293866
0.314088
0.327031
0.317087
0.297906
0.281609
0.131278
0.0736062
0.0703963
0.0750373
0.083021
0.0930847
0.104323
0.11608
0.128521
0.14333
0.161642
0.18142
0.200688
0.218131
0.231568
0.240763
0.249906
0.261156
0.274308
0.283239
0.283694
0.272768
0.25728
0.133904
0.0744872
0.0697197
0.07284
0.0791135
0.0873384
0.0968528
0.107233
0.11861
0.13196
0.148064
0.166012
0.183929
0.199643
0.211267
0.218465
0.224352
0.231845
0.240139
0.244622
0.24257
0.235675
0.22559
0.138755
0.075971
0.0695514
0.0711806
0.0758922
0.0824785
0.0904041
0.0993744
0.109423
0.121004
0.134504
0.149477
0.164712
0.17845
0.188876
0.195336
0.200034
0.205571
0.211338
0.213979
0.211076
0.204369
0.195609
0.144769
0.0776162
0.0695591
0.0698724
0.0732723
0.0784925
0.0850399
0.0926654
0.101316
0.111128
0.122227
0.13432
0.146622
0.157946
0.167029
0.173291
0.17786
0.182375
0.186526
0.188139
0.185541
0.179684
0.172053
0.149904
0.0788368
0.0693615
0.0686017
0.0709565
0.0750833
0.0804835
0.0869067
0.0942349
0.102444
0.111503
0.121194
0.131013
0.140205
0.147948
0.153809
0.158229
0.162012
0.164988
0.165959
0.163909
0.159218
0.152916
0.15275
0.0791664
0.0686579
0.0670876
0.0686408
0.0719062
0.0763614
0.0817477
0.0879119
0.0947551
0.102179
0.109997
0.117872
0.125324
0.131833
0.137071
0.141131
0.144313
0.146508
0.147092
0.145502
0.141869
0.136843
0.152621
0.0783727
0.067277
0.0651486
0.0661052
0.0686987
0.0723895
0.0769106
0.082093
0.0878089
0.093936
0.100312
0.1067
0.11278
0.118213
0.122747
0.126325
0.129006
0.130692
0.131061
0.12982
0.127032
0.123099
0.149264
0.0763884
0.0651597
0.0627062
0.0632398
0.0653168
0.068396
0.0722086
0.0765824
0.0813832
0.0864859
0.0917494
0.0969944
0.102
0.106529
0.110386
0.113465
0.115723
0.117073
0.117339
0.116382
0.114251
0.111207
0.142744
0.0732586
0.0623287
0.0597611
0.0600198
0.0617089
0.0643034
0.0675416
0.0712567
0.0753184
0.0796087
0.0840046
0.0883645
0.0925251
0.0963135
0.0995748
0.102198
0.104111
0.105234
0.10547
0.104757
0.103147
0.100813
0.133452
0.0691192
0.0588715
0.0563725
0.0564775
0.0578846
0.0600993
0.0628745
0.0660541
0.0695179
0.0731585
0.0768692
0.0805347
0.0840286
0.0872189
0.0899832
0.0922219
0.0938602
0.0948333
0.0950843
0.0945916
0.0934029
0.0916405
0.122425
0.0642822
0.0549424
0.0526307
0.0526785
0.0538908
0.0558119
0.0582152
0.0609593
0.0639368
0.067053
0.0702159
0.0733303
0.0762952
0.0790075
0.0813697
0.0832985
0.0847282
0.0856077
0.085903
0.0856105
0.0847721
0.0834747
0.110723
0.0590413
0.0506663
0.0486338
0.0487049
0.0497952
0.0514937
0.0535999
0.0559898
0.0585703
0.0612601
0.0639811
0.0666542
0.0691979
0.0715303
0.0735741
0.0752616
0.0765388
0.0773668
0.0777242
0.0776146
0.0770723
0.0761594
0.0986574
0.0534201
0.0461378
0.0444813
0.0446483
0.0456769
0.0472119
0.0490833
0.0511868
0.0534442
0.0557871
0.0581505
0.0604691
0.0626771
0.0647094
0.0665045
0.0680086
0.0691788
0.0699852
0.0704139
0.07047
0.07018
0.0695882
0.0866753
0.0475491
0.0414901
0.0402855
0.0406046
0.0416207
0.0430427
0.0447338
0.0466101
0.0486078
0.0506711
0.0527467
0.0547817
0.0567232
0.0585196
0.0601224
0.0614892
0.0625864
0.0633909
0.0638926
0.0640959
0.0640201
0.0636963
0.0749861
0.0417753
0.0369192
0.0361791
0.0366771
0.0377185
0.0390724
0.0406332
0.0423358
0.0441303
0.0459722
0.0478192
0.0496292
0.0513604
0.0529723
0.054427
0.0556914
0.0567391
0.0575521
0.0581221
0.0584519
0.0585547
0.0584519
0.0641108
0.0364168
0.0326411
0.0323162
0.0329901
0.0340818
0.0354055
0.0368797
0.0384557
0.0400957
0.0417661
0.0434341
0.0450672
0.0466332
0.0481007
0.0494405
0.050627
0.0516393
0.0524632
0.0530914
0.0535248
0.0537717
0.0538465
0.0548288
0.031735
0.0288664
0.0288757
0.0297003
0.0308494
0.0321663
0.033586
0.0350719
0.0365965
0.0381351
0.0396636
0.0411576
0.0425929
0.0439458
0.0451941
0.046318
0.0473013
0.0481323
0.0488044
0.049317
0.0496747
0.0498866
0.0478043
0.0280019
0.0257967
0.0260441
0.0269771
0.0281706
0.029486
0.0308674
0.0322861
0.0337219
0.0351571
0.0365747
0.0379569
0.0392862
0.040545
0.0417166
0.042786
0.0437406
0.0445706
0.0452701
0.045837
0.0462735
0.0465846
0.0432944
0.0254009
0.0235882
0.0239711
0.0249613
0.0261732
0.0274776
0.0288228
0.0301839
0.0315453
0.0328944
0.0342192
0.0355075
0.0367466
0.0379239
0.039027
0.0400447
0.0409668
0.0417855
0.0424951
0.0430928
0.0435787
0.0439557
0.0411875
0.023994
0.0223226
0.0227453
0.0237427
0.0249432
0.02622
0.0275218
0.028825
0.0301166
0.0313874
0.0326292
0.0338334
0.0349914
0.036094
0.0371322
0.0380974
0.0389816
0.0397782
0.040482
0.0410895
0.0415992
0.0420148
0.0412164
0.0237485
0.0220163
0.0224013
0.0233641
0.024526
0.0257564
0.0270026
0.0282413
0.0294612
0.0306551
0.0318174
0.0329424
0.0340238
0.0350551
0.0360295
0.0369403
0.0377812
0.0385463
0.0392308
0.0398309
0.0403451
0.040774
0.0431532
0.0246004
0.0226571
0.022947
0.023842
0.0249406
0.0261049
0.0272804
0.0284441
0.0295859
0.0307005
0.0317838
0.0328316
0.0338392
0.0348015
0.0357129
0.0365681
0.0373617
0.0380886
0.038744
0.0393242
0.039826
0.040248
0.0469195
0.0265212
0.0242464
0.0243941
0.0251891
0.0261967
0.0272709
0.0283562
0.0294308
0.0304859
0.0315172
0.0325214
0.0334945
0.0344322
0.0353294
0.0361809
0.0369817
0.037727
0.0384121
0.0390328
0.0395832
0.0400596
0.0404599
0.0526379
0.0295651
0.0268313
0.0267777
0.0274261
0.0283019
0.0292516
0.0302203
0.0311878
0.0321463
0.0330915
0.0340194
0.0349247
0.0358013
0.0366427
0.0374424
0.0381947
0.038895
0.0395395
0.0401216
0.0406359
0.0410787
0.0414477
0.0606544
0.0338952
0.0305166
0.0301579
0.0305773
0.0312539
0.0320275
0.0328436
0.0336826
0.034536
0.0353973
0.0362594
0.0371135
0.0379491
0.0387552
0.0395214
0.0402396
0.0409051
0.0415128
0.0420561
0.042532
0.0429374
0.0432701
0.0715278
0.039781
0.0354482
0.0345949
0.0346433
0.0350154
0.0355397
0.0361579
0.0368463
0.0375915
0.0383816
0.0392033
0.040041
0.0408763
0.0416889
0.0424593
0.0431729
0.0438232
0.0444024
0.0449112
0.04535
0.0457179
0.0460134
0.0859319
0.0475498
0.0417605
0.0400975
0.039556
0.039476
0.0396586
0.0400287
0.0405487
0.0411936
0.0419416
0.0427708
0.0436561
0.044567
0.0454669
0.0463159
0.0470816
0.0477473
0.048316
0.0487989
0.0492045
0.049537
0.0497972
0.104373
0.0574563
0.0494734
0.0465439
0.0451211
0.0444113
0.0441527
0.044229
0.0445736
0.045141
0.0458962
0.0468083
0.0478444
0.0489616
0.0500979
0.051169
0.0520884
0.0528264
0.053411
0.0538786
0.0542553
0.0545547
0.0547824
0.126671
0.0694399
0.0583366
0.0535859
0.0509637
0.0494531
0.0486718
0.0484272
0.0486049
0.0491311
0.0499574
0.0510505
0.0523815
0.0539086
0.0555462
0.0571241
0.0583836
0.0592818
0.0599124
0.060371
0.060718
0.0609834
0.0611798
0.151342
0.0827714
0.0676292
0.0605568
0.0564985
0.0540908
0.0527596
0.052201
0.0522368
0.0527613
0.0537179
0.0550861
0.0568711
0.0590818
0.0616629
0.064317
0.0662792
0.0674498
0.068138
0.068575
0.0688791
0.0691018
0.0692629
0.175174
0.0955985
0.0759603
0.0664294
0.0609558
0.0577184
0.0559056
0.0550873
0.0550195
0.055568
0.0566763
0.0583553
0.0606881
0.0638389
0.0679884
0.0728747
0.0763328
0.077847
0.078528
0.0788869
0.0791126
0.079271
0.0793842
0.192404
0.104402
0.0812231
0.0699225
0.0635041
0.0597424
0.0576375
0.0566674
0.0565436
0.0571148
0.0583288
0.0602296
0.0629924
0.0670222
0.0730934
0.0819624
0.0896796
0.0912429
0.0916559
0.0918136
0.0919
0.0919583
0.0919998
0.781852
0.550943
0.490894
0.52438
0.387441
0.361505
0.327182
0.292447
0.334775
0.318605
0.297142
0.274214
0.327313
0.312086
0.295244
0.277631
0.333837
0.32393
0.304971
0.285484
0.331328
0.323562
0.309087
0.289371
0.315448
0.305654
0.294597
0.279544
0.308584
0.297868
0.283975
0.26767
0.289005
0.280031
0.267397
0.252783
0.269225
0.260398
0.249286
0.236073
0.243294
0.233418
0.222951
0.212439
0.215359
0.207938
0.199973
0.191852
0.188078
0.182777
0.177052
0.17106
0.165878
0.161665
0.15724
0.152625
0.147779
0.144297
0.1407
0.136983
0.13265
0.129789
0.126839
0.123801
0.11974
0.117417
0.115016
0.112537
0.108552
0.106693
0.104757
0.102747
0.0987378
0.0972673
0.0957225
0.0941083
0.0900388
0.0888905
0.0876732
0.0863921
0.0822627
0.0813824
0.0804397
0.0794396
0.0752709
0.0746149
0.0739033
0.0731407
0.0689696
0.0685021
0.0679854
0.0674236
0.0633027
0.062993
0.0626401
0.0622472
0.0582437
0.0580645
0.0578476
0.0575954
0.0537876
0.0537138
0.053608
0.0534705
0.0499436
0.0499532
0.0499346
0.0498875
0.0467282
0.0468001
0.0468468
0.0468676
0.0441595
0.0442743
0.0443662
0.0444343
0.0422542
0.0423946
0.0425139
0.0426112
0.0410282
0.0411797
0.0413115
0.0414224
0.0405005
0.0406516
0.0407839
0.040896
0.0406987
0.0408408
0.0409645
0.0410685
0.0416647
0.041792
0.0419012
0.0419908
0.043461
0.0435707
0.0436623
0.0437342
0.0461773
0.0462687
0.0463422
0.046396
0.0499358
0.0500105
0.0500674
0.0501052
0.0548989
0.0549594
0.0550031
0.0550285
0.0612772
0.0613264
0.0613604
0.0613781
0.0693416
0.069381
0.069408
0.0694218
0.07944
0.0794681
0.079488
0.0794992
0.0920206
0.0920313
0.0920393
0.0920442
0.213432
0.181878
0.169908
0.157751
0.14459
0.130976
0.117047
0.104506
0.0951432
0.0879009
0.0811889
0.0751181
0.0710002
0.069524
0.0686766
0.0660207
0.0623913
0.0625444
0.0983839
0.229158
0.200826
0.183066
0.166576
0.150643
0.135274
0.120793
0.109165
0.102479
0.0985432
0.0943016
0.0896778
0.0863731
0.0848335
0.0815801
0.075704
0.0699997
0.0710992
0.12692
0.243029
0.214053
0.191606
0.171978
0.154337
0.138433
0.124593
0.114622
0.11031
0.109048
0.107506
0.104982
0.101982
0.0985044
0.09248
0.0838579
0.0765302
0.0802275
0.151649
0.252992
0.223238
0.197962
0.176146
0.157509
0.141874
0.129355
0.12136
0.119463
0.120684
0.121478
0.120476
0.116249
0.110296
0.101969
0.0900633
0.0811463
0.0906865
0.144803
0.260396
0.230187
0.203506
0.180376
0.161465
0.146571
0.135557
0.129732
0.131242
0.136938
0.141362
0.143155
0.134599
0.12248
0.109506
0.0939905
0.0803117
0.0792776
0.117437
0.26125
0.230396
0.206586
0.186229
0.168152
0.152825
0.140792
0.133151
0.131435
0.133262
0.134855
0.135113
0.125686
0.129266
0.121662
0.0974138
0.0761955
0.0717996
0.0883655
0.255914
0.228979
0.204988
0.185622
0.169497
0.155523
0.143614
0.133456
0.125879
0.12078
0.11764
0.115726
0.117578
0.130345
0.124058
0.0933977
0.0704681
0.0646161
0.0769891
0.244989
0.219966
0.197953
0.179934
0.165555
0.153574
0.142809
0.132273
0.122566
0.114899
0.110573
0.106709
0.102824
0.10504
0.0985467
0.0798271
0.0653749
0.0608686
0.078764
0.23194
0.208285
0.188329
0.172168
0.159766
0.149903
0.140214
0.128749
0.117309
0.108345
0.103072
0.0986556
0.0921259
0.0879097
0.0817158
0.0714355
0.0623972
0.0585817
0.0842414
0.216484
0.194151
0.175539
0.160281
0.147968
0.137465
0.127259
0.116488
0.106521
0.0984238
0.0931321
0.0888769
0.0837389
0.0785502
0.0733382
0.0669636
0.0599973
0.0572569
0.0882901
0.197132
0.178333
0.161363
0.146576
0.133984
0.123046
0.113173
0.104166
0.0961954
0.0895562
0.084762
0.0810496
0.0771085
0.0725037
0.0681779
0.0632841
0.0577012
0.0567056
0.0899346
0.179198
0.162748
0.147554
0.133989
0.12219
0.111938
0.102949
0.0951418
0.0884626
0.0828638
0.0785256
0.075133
0.0716894
0.0676305
0.0638075
0.0596936
0.0556613
0.0567563
0.0893936
0.161066
0.147399
0.134523
0.122786
0.112364
0.103255
0.0953786
0.088583
0.0827292
0.077725
0.073642
0.0703405
0.0670418
0.0633794
0.0599421
0.0565652
0.0541097
0.0570803
0.0893547
0.14467
0.133468
0.122791
0.112937
0.104078
0.0962894
0.0894851
0.0834625
0.0781523
0.0735098
0.0695333
0.0661732
0.0629318
0.0596181
0.0565835
0.0539447
0.0528133
0.0575889
0.0920638
0.130563
0.121471
0.112667
0.10444
0.0969903
0.0903751
0.0844747
0.0790963
0.0742184
0.0698554
0.0659993
0.0625837
0.0593677
0.0563227
0.0536723
0.0517132
0.0517442
0.0584382
0.0976227
0.118559
0.111169
0.103933
0.097108
0.0908375
0.0851574
0.0799944
0.0751916
0.0707251
0.0666403
0.0629427
0.0595521
0.0563925
0.0535588
0.0512732
0.0499558
0.0510432
0.0596436
0.104842
0.108252
0.10224
0.0963059
0.0906424
0.0853585
0.0804844
0.0759544
0.0716585
0.0675909
0.0637923
0.0602731
0.0569903
0.0539612
0.0513499
0.0494247
0.0486982
0.0506852
0.0608744
0.112509
0.09926
0.0943719
0.0895202
0.0848377
0.0803962
0.0762164
0.0722525
0.0684347
0.0647517
0.0612479
0.0579411
0.0548333
0.0520015
0.0496452
0.0480746
0.0478709
0.050605
0.0619764
0.119935
0.0912927
0.0873335
0.0833807
0.0795307
0.0758226
0.0722612
0.0688101
0.0654317
0.0621358
0.0589493
0.0558936
0.0530135
0.0504257
0.0483482
0.0471215
0.0473808
0.0507636
0.0632
0.127046
0.0841447
0.080964
0.0777618
0.0746137
0.071542
0.0685348
0.06556
0.0626023
0.0596802
0.0568191
0.0540522
0.0514453
0.049134
0.0473497
0.046451
0.0470966
0.0509379
0.0640222
0.132142
0.0776733
0.07515
0.0725817
0.0700274
0.0675008
0.0649855
0.0624551
0.0599023
0.0573457
0.0548144
0.052353
0.0500424
0.0480271
0.0465398
0.0459434
0.0469048
0.0510669
0.0644864
0.135144
0.0717823
0.0698154
0.0677853
0.0657373
0.0636802
0.0615997
0.0594759
0.057304
0.0551006
0.052898
0.0507492
0.0487434
0.0470274
0.0458296
0.0455085
0.0467271
0.0511088
0.0646586
0.135991
0.0664106
0.0649142
0.0633412
0.0617264
0.0600757
0.0583783
0.0566204
0.054799
0.0529298
0.0510467
0.0492069
0.0475029
0.0460789
0.0451551
0.0450794
0.0465017
0.0510179
0.0645627
0.135609
0.0615252
0.0604246
0.0592382
0.0579924
0.0566921
0.0553298
0.0538967
0.0523924
0.0508324
0.0492512
0.0477071
0.0462917
0.0451436
0.0444717
0.0446093
0.0461877
0.050777
0.0642893
0.135637
0.0571156
0.0563442
0.0554809
0.0545462
0.0535444
0.0524713
0.051322
0.050099
0.0488185
0.0475145
0.0462444
0.0450961
0.0442003
0.0437533
0.0440725
0.0457713
0.0504037
0.0639124
0.136082
0.0531884
0.0526855
0.0520869
0.0514093
0.0506568
0.0498278
0.0489211
0.0479417
0.0469066
0.0458492
0.0448244
0.0439148
0.0432425
0.0429906
0.0434616
0.0452536
0.0499124
0.0634168
0.136205
0.0497614
0.0494709
0.049083
0.0486113
0.0480604
0.047431
0.0467248
0.0459491
0.0451218
0.0442754
0.0434616
0.0427574
0.0422758
0.0421878
0.042782
0.0446422
0.0493047
0.0627629
0.135828
0.046859
0.0467291
0.0465012
0.0461869
0.0457913
0.0453172
0.0447685
0.0441547
0.0434944
0.0428191
0.0421776
0.0416414
0.0413151
0.0413589
0.0420484
0.0439519
0.0485862
0.0619271
0.135025
0.044508
0.0444914
0.0443767
0.0441741
0.0438892
0.0435264
0.0430916
0.0425961
0.0420591
0.0415117
0.0409999
0.0405907
0.0403818
0.0405242
0.0412814
0.0432046
0.0477767
0.0609098
0.13379
0.042736
0.0427904
0.0427464
0.0426132
0.0423967
0.0421023
0.0417378
0.0413158
0.0408563
0.0403902
0.0399619
0.0396352
0.0395026
0.0397079
0.0405045
0.0424256
0.0469102
0.059749
0.131867
0.0415717
0.0416606
0.0416501
0.0415483
0.041361
0.0410945
0.0407574
0.0403637
0.0399343
0.0395001
0.0391052
0.0388116
0.038709
0.0389365
0.0397396
0.041635
0.046014
0.0584791
0.128779
0.0410482
0.0411416
0.0411333
0.0410301
0.0408373
0.0405613
0.0402113
0.0398015
0.0393538
0.0388997
0.0384838
0.0381681
0.0380417
0.0382418
0.0390081
0.0408419
0.0450851
0.0571092
0.124791
0.0412073
0.0412821
0.0412515
0.0411206
0.0408937
0.0405761
0.0401765
0.0397092
0.0391958
0.0386684
0.0381726
0.0377723
0.0375585
0.0376694
0.0383418
0.0400623
0.0441264
0.0557221
0.121454
0.0421055
0.0421459
0.0420761
0.041899
0.0416167
0.0412329
0.0407544
0.0401935
0.0395707
0.0389174
0.0382797
0.0377243
0.0373471
0.0372922
0.0377991
0.0393464
0.0431941
0.0544179
0.119033
0.0438191
0.0438172
0.0436998
0.043467
0.0431184
0.0426544
0.0420782
0.0413985
0.0406315
0.0398052
0.0389639
0.0381759
0.037544
0.0372251
0.037474
0.0387766
0.0423712
0.0532386
0.116895
0.0464506
0.0464063
0.046242
0.0459551
0.0455417
0.0449979
0.0443217
0.043515
0.0425863
0.041555
0.0404573
0.0393571
0.0383618
0.0376472
0.0375031
0.0384533
0.0417329
0.0521823
0.114181
0.0501335
0.0500544
0.0498538
0.0495263
0.0490644
0.0484596
0.0477031
0.0467877
0.0457093
0.0444712
0.0430904
0.0416117
0.0401321
0.0388424
0.0380918
0.0385029
0.0413511
0.0512995
0.110939
0.0550381
0.0549386
0.0547211
0.0543784
0.0539002
0.0532738
0.0524837
0.0515125
0.0503401
0.0489458
0.0473115
0.0454354
0.043364
0.0412648
0.0395611
0.0391117
0.0413345
0.0507959
0.108996
0.0613783
0.0612769
0.0610685
0.0607453
0.0602962
0.0597063
0.058956
0.0580196
0.0568623
0.055436
0.0536741
0.0514909
0.0488012
0.0456202
0.0423658
0.0405178
0.0418182
0.0508751
0.109409
0.069421
0.0693367
0.0691651
0.0688999
0.0685316
0.0680465
0.0674259
0.0666423
0.0656548
0.0643974
0.0627594
0.060548
0.057432
0.0529436
0.0470174
0.0429139
0.042868
0.0515347
0.111855
0.0795016
0.0794486
0.0793373
0.0791643
0.0789238
0.0786072
0.0782016
0.0776873
0.0770322
0.0761783
0.0750113
0.0732788
0.0703675
0.0647718
0.053698
0.0461503
0.0443576
0.0526531
0.116079
0.0920465
0.092029
0.0919911
0.0919324
0.0918514
0.0917457
0.0916115
0.091443
0.0912296
0.0909506
0.0905576
0.0899071
0.08846
0.0837438
0.0609026
0.0490799
0.0456903
0.0537723
0.120204
)
;

boundaryField
{
    leftWall
    {
        type            epsilonWallFunction;
        value           nonuniform List<scalar> 
50
(
0.00617199
0.0109064
0.017146
0.023002
0.0285875
0.0341506
0.0398742
0.0457888
0.0556617
0.0704827
0.0919499
0.135923
0.179432
0.165786
0.162513
0.153335
0.14136
0.133172
0.131278
0.133904
0.138755
0.144769
0.149904
0.15275
0.152621
0.149264
0.142744
0.133452
0.122425
0.110723
0.0986574
0.0866753
0.0749861
0.0641108
0.0548288
0.0478043
0.0432944
0.0411875
0.0412164
0.0431532
0.0469195
0.0526379
0.0606544
0.0715278
0.0859319
0.104373
0.126671
0.151342
0.175174
0.192404
)
;
        Cmu             0.09;
        kappa           0.41;
        E               9.8;
        value           nonuniform List<scalar> 
50
(
0.00617199
0.0109064
0.017146
0.023002
0.0285875
0.0341506
0.0398742
0.0457888
0.0556617
0.0704827
0.0919499
0.135923
0.179432
0.165786
0.162513
0.153335
0.14136
0.133172
0.131278
0.133904
0.138755
0.144769
0.149904
0.15275
0.152621
0.149264
0.142744
0.133452
0.122425
0.110723
0.0986574
0.0866753
0.0749861
0.0641108
0.0548288
0.0478043
0.0432944
0.0411875
0.0412164
0.0431532
0.0469195
0.0526379
0.0606544
0.0715278
0.0859319
0.104373
0.126671
0.151342
0.175174
0.192404
)
;
    }
    rightWall
    {
        type            epsilonWallFunction;
        value           nonuniform List<scalar> 
50
(
0.0224856
0.0275392
0.0383215
0.0480396
0.0570347
0.0656318
0.074314
0.0840904
0.0983839
0.12692
0.151649
0.144803
0.117437
0.0883655
0.0769891
0.078764
0.0842414
0.0882901
0.0899346
0.0893936
0.0893547
0.0920638
0.0976227
0.104842
0.112509
0.119935
0.127046
0.132142
0.135144
0.135991
0.135609
0.135637
0.136082
0.136205
0.135828
0.135025
0.13379
0.131867
0.128779
0.124791
0.121454
0.119033
0.116895
0.114181
0.110939
0.108996
0.109409
0.111855
0.116079
0.120204
)
;
        Cmu             0.09;
        kappa           0.41;
        E               9.8;
        value           nonuniform List<scalar> 
50
(
0.0224856
0.0275392
0.0383215
0.0480396
0.0570347
0.0656318
0.074314
0.0840904
0.0983839
0.12692
0.151649
0.144803
0.117437
0.0883655
0.0769891
0.078764
0.0842414
0.0882901
0.0899346
0.0893936
0.0893547
0.0920638
0.0976227
0.104842
0.112509
0.119935
0.127046
0.132142
0.135144
0.135991
0.135609
0.135637
0.136082
0.136205
0.135828
0.135025
0.13379
0.131867
0.128779
0.124791
0.121454
0.119033
0.116895
0.114181
0.110939
0.108996
0.109409
0.111855
0.116079
0.120204
)
;
    }
    lowerWall
    {
        type            epsilonWallFunction;
        value           nonuniform List<scalar> 
62
(
0.00617199
0.0273918
0.0488803
0.0697382
0.0902056
0.110762
0.131807
0.153621
0.176408
0.200313
0.225351
0.251296
0.277692
0.303586
0.327212
0.345809
0.356258
0.353865
0.331517
0.29276
0.232873
0.145153
0.0400566
0.0400566
0.0694296
0.118544
0.17451
0.244105
0.330558
0.459567
0.748515
0.781852
0.550943
0.490894
0.52438
0.0509335
0.0608019
0.0862916
0.105828
0.122534
0.14017
0.167284
0.240594
0.0509335
0.129584
0.212114
0.269826
0.298949
0.312545
0.308891
0.273053
0.209498
0.148257
0.114521
0.0949129
0.0748132
0.0591395
0.0576187
0.0633766
0.0684566
0.0597088
0.0224856
)
;
        Cmu             0.09;
        kappa           0.41;
        E               9.8;
        value           nonuniform List<scalar> 
62
(
0.00617199
0.0273918
0.0488803
0.0697382
0.0902056
0.110762
0.131807
0.153621
0.176408
0.200313
0.225351
0.251296
0.277692
0.303586
0.327212
0.345809
0.356258
0.353865
0.331517
0.29276
0.232873
0.145153
0.0400566
0.0400566
0.0694296
0.118544
0.17451
0.244105
0.330558
0.459567
0.748515
0.781852
0.550943
0.490894
0.52438
0.0509335
0.0608019
0.0862916
0.105828
0.122534
0.14017
0.167284
0.240594
0.0509335
0.129584
0.212114
0.269826
0.298949
0.312545
0.308891
0.273053
0.209498
0.148257
0.114521
0.0949129
0.0748132
0.0591395
0.0576187
0.0633766
0.0684566
0.0597088
0.0224856
)
;
    }
    atmosphere
    {
        type            inletOutlet;
        inletValue      uniform 0.1;
        value           nonuniform List<scalar> 
46
(
0.192404
0.104402
0.0812231
0.0699225
0.0635041
0.0597424
0.0576375
0.0566674
0.0565436
0.0571148
0.0583288
0.0602296
0.0629924
0.0670222
0.0730934
0.0819624
0.1
0.1
0.1
0.1
0.1
0.1
0.1
0.1
0.1
0.1
0.1
0.1
0.1
0.1
0.1
0.1
0.1
0.1
0.1
0.1
0.1
0.1
0.1
0.1
0.1
0.0609026
0.0490799
0.0456903
0.0537723
0.120204
)
;
    }
    defaultFaces
    {
        type            empty;
    }
}


// ************************************************************************* //
