/*--------------------------------*- C++ -*----------------------------------*\
| =========                 |                                                 |
| \\      /  F ield         | OpenFOAM: The Open Source CFD Toolbox           |
|  \\    /   O peration     | Version:  2.3.0                                 |
|   \\  /    A nd           | Web:      www.OpenFOAM.org                      |
|    \\/     M anipulation  |                                                 |
\*---------------------------------------------------------------------------*/
FoamFile
{
    version     2.0;
    format      ascii;
    class       volScalarField;
    location    "2.3";
    object      k;
}
// * * * * * * * * * * * * * * * * * * * * * * * * * * * * * * * * * * * * * //

dimensions      [0 2 -2 0 0 0 0];

internalField   nonuniform List<scalar> 
2268
(
0.00155789
0.00344211
0.0050691
0.00642797
0.00763494
0.00875921
0.00984109
0.0109035
0.0119598
0.0130177
0.0140784
0.0151373
0.0161755
0.0171592
0.0180283
0.0186939
0.0190586
0.0189529
0.0181242
0.016667
0.0143033
0.0104517
0.00444767
0.00306886
0.0079711
0.0114591
0.0144033
0.0170309
0.0194783
0.0218296
0.024136
0.0264295
0.0287288
0.0310399
0.0333528
0.0356377
0.0378264
0.0397965
0.04136
0.0422701
0.042203
0.0406842
0.0377853
0.0330159
0.0247036
0.0105538
0.00415602
0.0106035
0.0149477
0.0186344
0.0219514
0.0250507
0.0280293
0.0309507
0.0338567
0.0367741
0.0397136
0.042666
0.0455957
0.0484187
0.0509828
0.0530586
0.0543504
0.0545111
0.0530914
0.0498659
0.0441598
0.0341436
0.015045
0.00506086
0.0126808
0.017635
0.0218323
0.0256259
0.0291813
0.0326041
0.0359656
0.0393147
0.0426844
0.0460905
0.0495265
0.0529541
0.0562792
0.0593273
0.0618373
0.0634847
0.0639183
0.0627133
0.0594948
0.0535004
0.0426921
0.0194239
0.00585467
0.0144973
0.0199728
0.0245859
0.0287648
0.0326926
0.0364833
0.0402146
0.0439408
0.0477008
0.0515158
0.0553834
0.0592663
0.0630629
0.0665768
0.0695127
0.0715209
0.0722508
0.0713089
0.0682683
0.0623145
0.0510967
0.0242052
0.0065993
0.0161592
0.0221178
0.0270994
0.0316148
0.0358702
0.0399898
0.0440567
0.0481295
0.0522532
0.0564548
0.0607393
0.0650735
0.0693506
0.0733488
0.0767272
0.0791092
0.080148
0.0794948
0.0767391
0.0710648
0.0598059
0.0295731
0.00732151
0.0177401
0.02415
0.0294713
0.0342939
0.0388506
0.0432776
0.047663
0.0520685
0.0565448
0.0611279
0.0658325
0.0706351
0.0754266
0.0799502
0.0838015
0.08657
0.0879138
0.0875481
0.0851303
0.079937
0.0692402
0.0368087
0.00803109
0.0192874
0.0261264
0.0317625
0.0368719
0.0417137
0.046437
0.0511341
0.0558675
0.0606941
0.0656627
0.0708019
0.0761056
0.0814672
0.0865792
0.0909455
0.0940986
0.095723
0.0956088
0.0935201
0.0889309
0.0796321
0.0507546
0.00512972
0.00961035
0.0133641
0.0157044
0.0168382
0.0173448
0.0171572
0.015728
0.01313
0.0103991
0.00881508
0.00780724
0.00666322
0.00574431
0.00571656
0.00611893
0.00641708
0.00582271
0.00375941
0.0102809
0.0202841
0.0285109
0.0330906
0.0354654
0.0364148
0.0358802
0.0333309
0.028673
0.0235557
0.0200816
0.017637
0.0150058
0.0126747
0.0121424
0.0126937
0.0127412
0.0112239
0.0060823
0.0130404
0.0268943
0.036608
0.0420277
0.0447505
0.0456131
0.0446131
0.0414653
0.0364855
0.031047
0.0268785
0.0236514
0.0204728
0.0178491
0.0169657
0.0171028
0.0167934
0.0143643
0.00757893
0.0150186
0.032263
0.0429731
0.0487307
0.0514717
0.0520763
0.0506215
0.0470599
0.0419767
0.0365556
0.0321378
0.0285237
0.0251375
0.0224514
0.021308
0.0211194
0.0203282
0.0169765
0.00881061
0.0166672
0.0373954
0.0487619
0.0545548
0.0570982
0.0573401
0.0554445
0.0515659
0.0464482
0.0411395
0.0366869
0.0329266
0.0295407
0.0269471
0.0256562
0.0251207
0.0236803
0.0194298
0.00988599
0.0183672
0.0428165
0.0543724
0.0599238
0.0621012
0.0619139
0.0596009
0.0554807
0.0503897
0.045264
0.0409005
0.037146
0.0338909
0.0314784
0.0301064
0.0291422
0.0269471
0.0218413
0.0108782
0.0207894
0.048817
0.0599257
0.0649653
0.066652
0.0660065
0.0633162
0.0590351
0.0540545
0.0492004
0.045009
0.0413611
0.038296
0.0360807
0.0346435
0.0331461
0.0301376
0.024241
0.0118636
0.0264326
0.0554328
0.0653715
0.0696802
0.0708054
0.069711
0.0667017
0.0623528
0.0576074
0.0531426
0.0491904
0.0456935
0.0428097
0.0407621
0.0392338
0.0370808
0.0332171
0.0266224
0.0129736
0.00914907
0.0217127
0.0291941
0.0352939
0.0408238
0.0460931
0.0512736
0.0564591
0.0617075
0.0670844
0.0726637
0.078509
0.0846615
0.0910312
0.0972093
0.102465
0.106203
0.108185
0.108337
0.10663
0.102884
0.0959976
0.0809568
0.0107153
0.0252006
0.0334946
0.0401542
0.0462016
0.0520269
0.0578536
0.063756
0.0697479
0.0759173
0.0823971
0.0893432
0.0969613
0.105302
0.113637
0.120371
0.12458
0.126436
0.126197
0.124158
0.120592
0.115018
0.104681
0.0127985
0.0293259
0.0383188
0.045433
0.051941
0.058304
0.0648774
0.0716405
0.0784519
0.0854687
0.0929403
0.101169
0.110778
0.122395
0.134489
0.142954
0.146426
0.146796
0.144807
0.14107
0.13657
0.131338
0.121944
0.0167562
0.0345795
0.0439416
0.0514276
0.0583731
0.0652235
0.072792
0.0806279
0.0882308
0.0961542
0.10468
0.114246
0.126287
0.142813
0.159369
0.165272
0.166657
0.16532
0.161677
0.155459
0.148408
0.143485
0.136329
0.0201965
0.0391288
0.0488335
0.0567799
0.0641677
0.0713696
0.0795109
0.088254
0.0966817
0.105343
0.114362
0.124243
0.136886
0.154114
0.167294
0.170105
0.171114
0.170981
0.169081
0.164074
0.15713
0.150514
0.144619
0.0190954
0.0409075
0.0525998
0.0606961
0.0680415
0.0756283
0.0839004
0.0932906
0.103198
0.112037
0.120381
0.129516
0.141152
0.154607
0.164527
0.169866
0.17244
0.172181
0.170155
0.166382
0.161952
0.158703
0.154093
0.0189116
0.0410721
0.0535845
0.0626265
0.0711457
0.0794498
0.0880164
0.0977876
0.107537
0.115272
0.122963
0.131995
0.143394
0.154508
0.162584
0.172287
0.177737
0.175927
0.172912
0.168799
0.164837
0.162709
0.158844
0.0183133
0.0399803
0.0527758
0.0629571
0.072745
0.0821466
0.0910427
0.099917
0.107905
0.115167
0.12322
0.132715
0.143924
0.154215
0.160477
0.169753
0.177333
0.179806
0.178585
0.173369
0.168263
0.16498
0.161754
0.0173865
0.0386366
0.0516063
0.0622994
0.0724542
0.0822153
0.0912513
0.09944
0.106729
0.114046
0.122229
0.131347
0.141299
0.150553
0.156306
0.162299
0.168953
0.175341
0.181121
0.178677
0.171424
0.165868
0.161288
0.0166438
0.0374781
0.0503508
0.0609814
0.0708806
0.0802963
0.0890223
0.0968934
0.104127
0.111806
0.120375
0.129037
0.137628
0.145584
0.151285
0.155578
0.16041
0.165938
0.172065
0.175692
0.172246
0.165695
0.159639
0.0163543
0.0367397
0.0492561
0.0594544
0.0687683
0.0775433
0.0857402
0.0932997
0.100494
0.108174
0.1168
0.125517
0.133584
0.140561
0.145775
0.14932
0.152709
0.15659
0.160792
0.16346
0.16348
0.159688
0.154125
0.0164698
0.0365074
0.0485069
0.0581021
0.0667182
0.0747756
0.0823652
0.0895242
0.0964841
0.103782
0.111767
0.120048
0.127888
0.134512
0.13932
0.142336
0.144768
0.147566
0.150379
0.15173
0.15096
0.148556
0.144869
0.0167903
0.0366612
0.0480985
0.057065
0.0649973
0.072366
0.0793426
0.0860198
0.0925682
0.0992901
0.106396
0.113711
0.120758
0.126888
0.131482
0.13441
0.136564
0.138839
0.140964
0.141814
0.140735
0.138332
0.135092
0.0172134
0.0369352
0.0478747
0.0562727
0.0635967
0.0703511
0.0767502
0.0829093
0.0889503
0.0950308
0.101264
0.10756
0.113621
0.119005
0.123276
0.126287
0.128518
0.130559
0.13226
0.132874
0.13191
0.129737
0.126828
0.0175887
0.0371203
0.0476429
0.0555585
0.0623675
0.0685972
0.0744779
0.0801292
0.0856401
0.0910958
0.0965488
0.10195
0.107123
0.111795
0.115678
0.118653
0.120925
0.122795
0.124183
0.124667
0.12393
0.12214
0.119652
0.0178032
0.03708
0.0472408
0.0547518
0.0611335
0.0669169
0.0723382
0.0775203
0.0825349
0.0874317
0.0922344
0.0969124
0.101362
0.105417
0.1089
0.111715
0.113918
0.115631
0.116807
0.117222
0.11669
0.11528
0.113229
0.0178001
0.0367274
0.0465566
0.0537226
0.0597452
0.0651496
0.0701753
0.0749444
0.079521
0.0839397
0.0882124
0.0923191
0.0961973
0.0997469
0.102856
0.105445
0.107509
0.109077
0.110113
0.110497
0.110128
0.109041
0.107392
0.017554
0.0360185
0.0455289
0.0523951
0.0581108
0.0631936
0.0678828
0.0722988
0.0765026
0.0805235
0.0843697
0.0880282
0.0914603
0.094603
0.0973825
0.0997375
0.101638
0.103075
0.104015
0.104393
0.10416
0.103339
0.102039
0.0170601
0.0349457
0.0441402
0.0507408
0.0561895
0.0609996
0.065405
0.0695241
0.073417
0.077112
0.0806173
0.0839247
0.0870088
0.0898285
0.0923329
0.0944743
0.0962189
0.0975439
0.0984211
0.0988135
0.0986994
0.0981029
0.0970993
0.0163357
0.0335386
0.0424115
0.0487608
0.0539795
0.0585596
0.0627275
0.0665995
0.070236
0.0736661
0.0768994
0.0799315
0.082745
0.0853114
0.0875946
0.0895579
0.0911706
0.0924086
0.0932493
0.0936721
0.0936704
0.0932673
0.0925178
0.0154561
0.0318441
0.040372
0.0464927
0.0515133
0.0558992
0.0598685
0.0635358
0.066962
0.0701776
0.0731943
0.0760104
0.0786141
0.0809848
0.0830962
0.0849203
0.0864318
0.0876101
0.0884384
0.0889057
0.0890133
0.0887825
0.0882543
0.0144799
0.0299059
0.0381019
0.0440069
0.0488513
0.0530701
0.0568718
0.060369
0.0636231
0.0666658
0.0695105
0.0721581
0.0746005
0.0768228
0.0788054
0.0805272
0.0819687
0.0831138
0.0839508
0.0844747
0.0846906
0.084617
0.0842849
0.0134304
0.0278404
0.0356909
0.0413893
0.0460706
0.050141
0.0537995
0.0571554
0.0602697
0.0631744
0.0658841
0.0684018
0.0707221
0.0728345
0.0747244
0.0763764
0.0777757
0.0789106
0.0797737
0.0803634
0.0806861
0.0807575
0.0806013
0.0123435
0.0257385
0.0332144
0.038718
0.0432494
0.0471889
0.0507267
0.0539679
0.0569713
0.0597686
0.0623748
0.0647945
0.0670248
0.0690584
0.070885
0.0724934
0.073873
0.0750157
0.0759171
0.0765777
0.0770038
0.0772084
0.0772096
0.0112328
0.0236116
0.0307435
0.0360648
0.040466
0.0442981
0.0477413
0.0508951
0.0538152
0.0565324
0.0590622
0.0614103
0.0635762
0.0655553
0.0673408
0.068925
0.0703008
0.071463
0.0724091
0.0731407
0.0736635
0.073988
0.0741282
0.0101413
0.0215504
0.0283733
0.0335258
0.0378196
0.0415726
0.0449497
0.0480429
0.0509049
0.0535655
0.0560407
0.0583376
0.060458
0.0623998
0.0641592
0.0657314
0.0671123
0.0682986
0.0692895
0.0700868
0.0706957
0.0711244
0.0713837
0.00915087
0.0197294
0.0262475
0.0312431
0.0354482
0.0391447
0.0424783
0.045532
0.0483548
0.0509758
0.0534114
0.0556704
0.0577567
0.0596708
0.0614115
0.0629766
0.0643641
0.0655727
0.0666024
0.0674554
0.0681358
0.0686503
0.069007
0.00835319
0.0182895
0.0245291
0.0293809
0.0335078
0.0371589
0.0404603
0.0434853
0.0462786
0.0488679
0.0512707
0.0534971
0.0555531
0.0574416
0.0591637
0.0607196
0.0621089
0.0633319
0.0643895
0.0652838
0.0660182
0.0665979
0.0670293
0.00781011
0.0173205
0.0233404
0.0280719
0.0321308
0.0357407
0.0390121
0.0420093
0.0447731
0.0473302
0.0496985
0.0518899
0.0539121
0.0557704
0.0574679
0.0590066
0.060388
0.0616134
0.0626843
0.0636027
0.0643718
0.0649953
0.0654787
0.00753913
0.0168551
0.0227425
0.0273933
0.0314009
0.0349742
0.0382139
0.0411786
0.0439065
0.0464239
0.0487497
0.0508975
0.0528771
0.0546955
0.0563579
0.0578679
0.0592283
0.0604415
0.0615094
0.0624341
0.0632181
0.0638645
0.0643786
0.00752538
0.0168883
0.0227486
0.0273724
0.0313544
0.0348999
0.0381067
0.0410318
0.0437137
0.04618
0.0484514
0.0505437
0.0524685
0.0542349
0.0558496
0.0573177
0.0586431
0.0598289
0.0608775
0.0617911
0.0625718
0.0632223
0.0637462
0.0077435
0.0174019
0.0233492
0.0280076
0.0319953
0.0355249
0.0386982
0.041576
0.0442005
0.0466027
0.0488064
0.05083
0.0526875
0.0543896
0.0559443
0.0573579
0.0586351
0.0597797
0.0607944
0.0616815
0.0624429
0.0630801
0.0635957
0.00817472
0.018382
0.0245326
0.0292879
0.0333121
0.036836
0.0399734
0.0427946
0.045349
0.0476737
0.049797
0.0517405
0.0535202
0.0551484
0.0566339
0.0579834
0.0592023
0.0602946
0.0612636
0.0621118
0.0628398
0.0634491
0.0639416
0.00881554
0.0198305
0.0262953
0.0312012
0.0352832
0.0388038
0.0418972
0.044649
0.0471199
0.0493549
0.0513879
0.0532438
0.0549408
0.0564914
0.0579045
0.0591863
0.0603419
0.0613755
0.0622912
0.0630902
0.0637738
0.064344
0.0648024
0.00967908
0.0217647
0.0286369
0.0337267
0.03787
0.041376
0.0444088
0.0470743
0.0494478
0.0515838
0.0535223
0.0552914
0.0569102
0.0583903
0.0597387
0.060959
0.0620548
0.06303
0.0638883
0.0646316
0.0652636
0.0657869
0.0662036
0.0107896
0.0242007
0.0315396
0.0368143
0.0409976
0.0444612
0.0474076
0.0499675
0.0522319
0.0542659
0.0561152
0.0578106
0.0593709
0.0608049
0.0621141
0.063296
0.0643485
0.0652746
0.0660765
0.0667622
0.0673385
0.0678103
0.0681809
0.012168
0.0271217
0.0349354
0.0403568
0.0445323
0.0479115
0.0507404
0.0531762
0.0553258
0.0572641
0.0590425
0.0606943
0.0622374
0.0636756
0.0650002
0.0661939
0.0672412
0.0681373
0.0688922
0.0695223
0.0700414
0.0704594
0.070782
0.013806
0.0304351
0.0386726
0.0441653
0.048266
0.0515121
0.0541941
0.0564936
0.0585316
0.0603918
0.0621316
0.0637885
0.0653818
0.0669106
0.0683507
0.0696536
0.0707649
0.0716689
0.0723924
0.0729705
0.0734317
0.0737941
0.074068
0.0156347
0.0339366
0.0424939
0.0479603
0.0519158
0.0549864
0.0575025
0.0596643
0.0616038
0.0634124
0.0651556
0.0668801
0.0686152
0.0703654
0.0720918
0.0736876
0.0749858
0.0759539
0.0766618
0.0771881
0.0775873
0.0778908
0.0781147
0.0175033
0.0372933
0.0460345
0.0513824
0.055142
0.0580174
0.0603677
0.0624046
0.0642664
0.0660518
0.0678377
0.0696896
0.071665
0.0738049
0.0760884
0.0783227
0.0800353
0.0811318
0.0818232
0.0822827
0.0826072
0.082844
0.0830142
0.0191794
0.0400539
0.0488456
0.054025
0.0575849
0.0602837
0.0624953
0.064435
0.0662438
0.0680267
0.0698744
0.0718798
0.0741541
0.0768349
0.0800353
0.083564
0.0861793
0.0874275
0.0880427
0.0883891
0.088612
0.0887674
0.0888768
0.0203179
0.0416913
0.0504494
0.0554933
0.0589188
0.0615079
0.0636376
0.0655225
0.0673039
0.0690908
0.0709844
0.073102
0.0756126
0.0787946
0.0830865
0.0888216
0.0940237
0.0951764
0.0955172
0.0956606
0.0957419
0.0957961
0.0958337
0.0506658
0.040374
0.038089
0.0405557
0.0908669
0.0826624
0.0765125
0.0730397
0.111163
0.104683
0.0993482
0.0954521
0.126837
0.121325
0.116509
0.112342
0.140441
0.136585
0.131177
0.126002
0.149251
0.14609
0.14165
0.136145
0.152797
0.149163
0.145504
0.140969
0.157346
0.153455
0.148899
0.143802
0.157012
0.153616
0.149258
0.14439
0.154906
0.151591
0.147579
0.142893
0.149005
0.145368
0.141491
0.137563
0.141019
0.138203
0.13515
0.131997
0.132168
0.13008
0.127795
0.12537
0.124358
0.122644
0.120813
0.11887
0.117529
0.116066
0.114526
0.112904
0.111437
0.110195
0.108888
0.107516
0.105909
0.104868
0.103768
0.102609
0.100833
0.099975
0.0990606
0.0980895
0.0961355
0.0954393
0.0946887
0.0938844
0.0917641
0.09121
0.0906044
0.0899483
0.0876845
0.0872559
0.086779
0.0862551
0.0838778
0.0835608
0.0831988
0.0827931
0.080339
0.0801216
0.0798624
0.0795625
0.077076
0.0769472
0.0767793
0.0765733
0.0741071
0.0740559
0.073968
0.0738443
0.0714584
0.0714733
0.0714541
0.0714005
0.0691603
0.0692299
0.069267
0.069271
0.0672438
0.0673559
0.0674367
0.0674856
0.065737
0.0658792
0.0659913
0.0660723
0.0646632
0.0648239
0.0649552
0.0650564
0.0640414
0.0642098
0.0643499
0.0644605
0.0638881
0.0640552
0.0641948
0.0643057
0.0642203
0.0643789
0.0645108
0.0646149
0.0650593
0.0652042
0.0653233
0.0654155
0.0664336
0.0665614
0.0666646
0.0667419
0.0683813
0.0684906
0.0685766
0.0686381
0.0709521
0.0710428
0.0711121
0.0711587
0.0742085
0.0742817
0.0743357
0.0743695
0.0782267
0.0782837
0.0783245
0.0783484
0.0830978
0.0831397
0.0831691
0.0831857
0.0889301
0.0889567
0.0889754
0.088986
0.0958521
0.0958613
0.095868
0.0958718
0.0471513
0.065948
0.0734896
0.0764522
0.0766207
0.0748385
0.0714395
0.0672141
0.0631603
0.0595221
0.0560377
0.0527518
0.0500578
0.0481894
0.0461623
0.0426339
0.0372781
0.0296596
0.0145191
0.0723093
0.0791544
0.0828924
0.0839472
0.0830424
0.0806015
0.0770515
0.0733267
0.070549
0.068347
0.0658071
0.0629255
0.0602973
0.0580261
0.0544767
0.049114
0.0423356
0.0339046
0.0172475
0.091938
0.0916899
0.0915122
0.0904444
0.0884373
0.0855868
0.0821958
0.0791974
0.0775845
0.0766035
0.075112
0.0728627
0.070046
0.0665538
0.0613429
0.0542955
0.0462314
0.0375904
0.019291
0.107241
0.102903
0.0996325
0.0965738
0.0934954
0.0903671
0.0873347
0.0851173
0.0845717
0.0846604
0.0840644
0.0822668
0.0787019
0.0737615
0.0669978
0.0579646
0.0484413
0.0403999
0.0186697
0.119499
0.112844
0.107444
0.102753
0.098765
0.0954073
0.0927004
0.0912829
0.0921052
0.093937
0.0946557
0.0937251
0.0882482
0.0804953
0.0712099
0.0598545
0.0474583
0.0354197
0.0160488
0.128286
0.120184
0.114323
0.109399
0.104884
0.100844
0.0974624
0.0952242
0.0947367
0.0950129
0.0945455
0.0928589
0.0866848
0.0845443
0.0764947
0.0608274
0.0442834
0.030494
0.013229
0.133852
0.125976
0.11919
0.113756
0.109155
0.105007
0.101221
0.0976111
0.0944437
0.0916347
0.0889817
0.0861511
0.0840211
0.0848424
0.0767741
0.0587846
0.0417862
0.0283293
0.0120931
0.136575
0.128546
0.121534
0.115814
0.111199
0.107213
0.103339
0.0990989
0.0946228
0.090349
0.0868173
0.0827359
0.0777918
0.0744982
0.066865
0.0536154
0.0405067
0.0283864
0.0123223
0.137252
0.129034
0.122055
0.116367
0.111929
0.108244
0.104304
0.0992031
0.0935347
0.0882762
0.0839148
0.0792416
0.0729839
0.0672262
0.0601388
0.0506619
0.0402977
0.0287815
0.0128754
0.135757
0.127481
0.120452
0.114552
0.109609
0.105148
0.100473
0.0951209
0.0895886
0.0842872
0.0796426
0.0749014
0.0692935
0.063288
0.0569014
0.0493548
0.0401222
0.0288993
0.0132598
0.131666
0.124261
0.117402
0.11121
0.105669
0.100539
0.0955292
0.0904977
0.0854708
0.080549
0.0759892
0.0714899
0.0665037
0.0608824
0.0550277
0.0482127
0.0395433
0.0286563
0.0133987
0.126953
0.120169
0.113672
0.107608
0.102023
0.0968187
0.0918439
0.0870359
0.0823479
0.077745
0.0733394
0.0690194
0.0643273
0.0590178
0.0534083
0.0468581
0.0385887
0.0280588
0.0133463
0.12124
0.11535
0.109548
0.103983
0.0987268
0.093772
0.0890663
0.0845217
0.0800641
0.0756496
0.0713406
0.067089
0.062506
0.0574026
0.0519283
0.0455651
0.0376804
0.0275521
0.0133807
0.115461
0.110428
0.105379
0.100447
0.0957093
0.0911924
0.0868403
0.0825384
0.0782508
0.0739631
0.0696937
0.0654286
0.0609031
0.0559813
0.0506666
0.0445545
0.0371307
0.0275585
0.0136999
0.11005
0.105791
0.101436
0.0971126
0.0929071
0.0888389
0.0848326
0.0807761
0.0766581
0.072495
0.0682943
0.0640249
0.0595466
0.0547875
0.0496757
0.0439028
0.0370522
0.02819
0.0142805
0.1051
0.101495
0.0977583
0.0939994
0.0902781
0.0865991
0.0829085
0.0791114
0.0751943
0.0711882
0.0671022
0.0628906
0.0584936
0.0538946
0.0490199
0.0436363
0.0373818
0.0292539
0.0149885
0.100564
0.0975128
0.0943169
0.0910548
0.0877674
0.0844551
0.0810662
0.0775283
0.0738375
0.0700195
0.0660816
0.0619921
0.0577339
0.0533204
0.0487002
0.0436918
0.0379535
0.0304594
0.0157068
0.0963659
0.0937875
0.0910644
0.0882465
0.0853544
0.0823823
0.0792889
0.0760237
0.0725754
0.0689702
0.0652152
0.0612976
0.0572259
0.0530237
0.0486549
0.0439645
0.0386101
0.031547
0.0163782
0.0924463
0.0902774
0.087966
0.0855456
0.0830191
0.0803713
0.0775658
0.0745701
0.0713847
0.0680206
0.0644802
0.06077
0.0569141
0.0529353
0.0488007
0.0443578
0.0392508
0.0323457
0.0170077
0.0887647
0.0869571
0.0850065
0.0829379
0.0807463
0.0784069
0.0758856
0.0731623
0.0702411
0.0671286
0.0638303
0.0603571
0.0567339
0.0529808
0.0490634
0.0448271
0.0398729
0.0329754
0.0174451
0.0852992
0.083813
0.0821824
0.0804259
0.0785351
0.0764835
0.0742404
0.0717899
0.0691338
0.0662782
0.0632307
0.0600054
0.0566235
0.0530959
0.0493783
0.0453044
0.0404391
0.033467
0.0176861
0.0820411
0.0808414
0.0794958
0.0780178
0.0763976
0.0746113
0.0726327
0.0704463
0.0680508
0.065451
0.0626557
0.0596783
0.0565341
0.053222
0.0496844
0.0457392
0.0409204
0.0338372
0.0177363
0.0789927
0.0780474
0.0769553
0.0757256
0.0743489
0.0728048
0.071071
0.0691328
0.066986
0.0646337
0.0620837
0.0593462
0.0564286
0.0533169
0.0499388
0.0460954
0.0412961
0.0341009
0.0177056
0.0761651
0.0754439
0.0745751
0.0735651
0.0724055
0.0710791
0.0695673
0.0678564
0.0659405
0.0638206
0.0615016
0.058989
0.0562814
0.0533518
0.0501132
0.0463519
0.0415612
0.0342844
0.0177263
0.0735771
0.0730503
0.0723751
0.0715563
0.0705866
0.0694521
0.0681372
0.0666293
0.0649218
0.0630132
0.060905
0.0585969
0.0560783
0.0533103
0.0501931
0.0465018
0.041724
0.0344068
0.0177763
0.0712534
0.0708912
0.0703798
0.0697232
0.0689156
0.0679455
0.0668001
0.0654684
0.063943
0.0622203
0.0602978
0.0581693
0.0558157
0.0531876
0.050175
0.0465466
0.0417913
0.0344667
0.0177926
0.0692224
0.0689946
0.0686171
0.0680933
0.0674187
0.0665845
0.0655798
0.0643949
0.0630224
0.0614564
0.0596909
0.0577141
0.0554993
0.0529885
0.0500643
0.0464916
0.0417637
0.0344518
0.0177647
0.0675135
0.0673901
0.0671166
0.0666961
0.0661254
0.0653974
0.0645032
0.0634344
0.062183
0.060742
0.059102
0.0572464
0.0551424
0.0527255
0.0498727
0.0463467
0.0416438
0.0343494
0.0176991
0.0661553
0.0661073
0.0659087
0.0655626
0.0650667
0.0644153
0.0636009
0.062616
0.0614528
0.0601029
0.0585545
0.0567874
0.0547644
0.0524166
0.0496171
0.0461267
0.0414414
0.0341566
0.0175933
0.0651743
0.0651745
0.0650236
0.0647247
0.0642757
0.063672
0.0629071
0.0619739
0.0608648
0.0595706
0.0580779
0.0563645
0.0543904
0.0520843
0.0493178
0.0458503
0.0411749
0.0338881
0.0174223
0.0645951
0.0646192
0.0644919
0.0642155
0.0637881
0.0632052
0.0624608
0.0615481
0.0604592
0.0591845
0.05771
0.0560125
0.0540516
0.0517558
0.0489972
0.0455359
0.0408626
0.0335634
0.0171429
0.0644418
0.0644695
0.0643455
0.064071
0.0636434
0.063058
0.0623083
0.0613869
0.0602858
0.0589947
0.0574995
0.0557771
0.0537885
0.0514645
0.0486806
0.0451997
0.0405136
0.0331955
0.0167872
0.0647407
0.0647564
0.0646202
0.0643319
0.0638876
0.0632813
0.0625053
0.0615508
0.0604084
0.0590669
0.0575115
0.0557205
0.0536574
0.051258
0.0484041
0.0448656
0.0401407
0.0328104
0.0164956
0.0655226
0.0655159
0.0653579
0.0650462
0.0645752
0.0639368
0.0631207
0.0621158
0.0609095
0.0594882
0.0578355
0.0559301
0.0537394
0.051207
0.0482258
0.0445797
0.0397825
0.0324439
0.0162838
0.066826
0.0667921
0.0666086
0.0662712
0.0657716
0.0650988
0.0642393
0.0631773
0.0618955
0.0603747
0.0585941
0.0565301
0.0541527
0.0514161
0.0482327
0.0444118
0.0394928
0.0321164
0.0160936
0.0686981
0.0686378
0.0684322
0.0680744
0.0675538
0.066856
0.0659629
0.0648528
0.0635008
0.0618782
0.0599539
0.0576952
0.0550691
0.0520393
0.0485479
0.0444511
0.0393302
0.0318452
0.0158476
0.0711969
0.0711163
0.0708981
0.0705336
0.0700099
0.0693092
0.0684089
0.0672803
0.0658882
0.0641896
0.0621345
0.0596678
0.0567369
0.0533033
0.0493467
0.0448131
0.0393609
0.0316695
0.0155531
0.0743907
0.0743002
0.0740846
0.0737343
0.0732351
0.072567
0.0717037
0.0706101
0.0692401
0.0675327
0.0654087
0.0627701
0.059509
0.0555425
0.0508806
0.0456543
0.0396725
0.0316541
0.0153816
0.0783585
0.0782711
0.0780768
0.0777666
0.0773264
0.0767366
0.0759698
0.0749879
0.073737
0.0721394
0.0700813
0.0673974
0.0638629
0.0592373
0.0534689
0.0471464
0.0403548
0.0318664
0.015434
0.0831904
0.0831189
0.082965
0.0827215
0.0823769
0.0819145
0.0813104
0.0805297
0.0795199
0.0781977
0.0764249
0.0739619
0.0703894
0.0650534
0.0574209
0.0493896
0.0414385
0.0323202
0.015679
0.088989
0.0889434
0.0888455
0.088691
0.0884728
0.0881802
0.0877973
0.0873001
0.0866503
0.0857822
0.0845711
0.0827535
0.0797154
0.0739899
0.0627541
0.0521789
0.0427774
0.0329451
0.0160864
0.0958731
0.0958576
0.0958244
0.0957723
0.0956993
0.095602
0.0954752
0.0953113
0.0950971
0.0948089
0.0943952
0.0937155
0.0922815
0.0879581
0.0682665
0.0545623
0.0438706
0.0334928
0.0164776
)
;

boundaryField
{
    leftWall
    {
        type            kqRWallFunction;
        value           nonuniform List<scalar> 
50
(
0.00155789
0.00306886
0.00415602
0.00506086
0.00585467
0.0065993
0.00732151
0.00803109
0.00914907
0.0107153
0.0127985
0.0167562
0.0201965
0.0190954
0.0189116
0.0183133
0.0173865
0.0166438
0.0163543
0.0164698
0.0167903
0.0172134
0.0175887
0.0178032
0.0178001
0.017554
0.0170601
0.0163357
0.0154561
0.0144799
0.0134304
0.0123435
0.0112328
0.0101413
0.00915087
0.00835319
0.00781011
0.00753913
0.00752538
0.0077435
0.00817472
0.00881554
0.00967908
0.0107896
0.012168
0.013806
0.0156347
0.0175033
0.0191794
0.0203179
)
;
    }
    rightWall
    {
        type            kqRWallFunction;
        value           nonuniform List<scalar> 
50
(
0.00375941
0.0060823
0.00757893
0.00881061
0.00988599
0.0108782
0.0118636
0.0129736
0.0145191
0.0172475
0.019291
0.0186697
0.0160488
0.013229
0.0120931
0.0123223
0.0128754
0.0132598
0.0133987
0.0133463
0.0133807
0.0136999
0.0142805
0.0149885
0.0157068
0.0163782
0.0170077
0.0174451
0.0176861
0.0177363
0.0177056
0.0177263
0.0177763
0.0177926
0.0177647
0.0176991
0.0175933
0.0174223
0.0171429
0.0167872
0.0164956
0.0162838
0.0160936
0.0158476
0.0155531
0.0153816
0.015434
0.015679
0.0160864
0.0164776
)
;
    }
    lowerWall
    {
        type            kqRWallFunction;
        value           nonuniform List<scalar> 
62
(
0.00155789
0.00344211
0.0050691
0.00642797
0.00763494
0.00875921
0.00984109
0.0109035
0.0119598
0.0130177
0.0140784
0.0151373
0.0161755
0.0171592
0.0180283
0.0186939
0.0190586
0.0189529
0.0181242
0.016667
0.0143033
0.0104517
0.00444767
0.00444767
0.0105538
0.015045
0.0194239
0.0242052
0.0295731
0.0368087
0.0507546
0.0506658
0.040374
0.038089
0.0405557
0.00512972
0.0102809
0.0130404
0.0150186
0.0166672
0.0183672
0.0207894
0.0264326
0.00512972
0.00961035
0.0133641
0.0157044
0.0168382
0.0173448
0.0171572
0.015728
0.01313
0.0103991
0.00881508
0.00780724
0.00666322
0.00574431
0.00571656
0.00611893
0.00641708
0.00582271
0.00375941
)
;
    }
    atmosphere
    {
        type            inletOutlet;
        inletValue      uniform 0.1;
        value           nonuniform List<scalar> 
46
(
0.0203179
0.0416913
0.0504494
0.0554933
0.0589188
0.0615079
0.0636376
0.0655225
0.0673039
0.0690908
0.0709844
0.073102
0.0756126
0.0787946
0.0830865
0.0888216
0.1
0.1
0.1
0.1
0.1
0.1
0.1
0.1
0.1
0.1
0.1
0.1
0.1
0.1
0.1
0.1
0.1
0.1
0.1
0.1
0.1
0.1
0.1
0.1
0.1
0.0682665
0.0545623
0.0438706
0.0334928
0.0164776
)
;
    }
    defaultFaces
    {
        type            empty;
    }
}


// ************************************************************************* //
