/*--------------------------------*- C++ -*----------------------------------*\
| =========                 |                                                 |
| \\      /  F ield         | OpenFOAM: The Open Source CFD Toolbox           |
|  \\    /   O peration     | Version:  2.3.0                                 |
|   \\  /    A nd           | Web:      www.OpenFOAM.org                      |
|    \\/     M anipulation  |                                                 |
\*---------------------------------------------------------------------------*/
FoamFile
{
    version     2.0;
    format      ascii;
    class       surfaceScalarField;
    location    "2.3";
    object      phi;
}
// * * * * * * * * * * * * * * * * * * * * * * * * * * * * * * * * * * * * * //

dimensions      [0 3 -1 0 0 0 0];

internalField   nonuniform List<scalar> 
4432
(
-5.71621e-07
5.71621e-07
-7.86e-07
2.14375e-07
-8.31598e-07
4.55943e-08
-8.38075e-07
6.47306e-09
-8.65923e-07
2.78472e-08
-9.18099e-07
5.21822e-08
-9.80261e-07
6.21697e-08
-1.03843e-06
5.81733e-08
-1.08333e-06
4.49022e-08
-1.10714e-06
2.38147e-08
-1.10726e-06
1.31565e-10
-1.08205e-06
-2.52103e-08
-1.03481e-06
-4.72508e-08
-9.77958e-07
-5.68297e-08
-9.37023e-07
-4.09318e-08
-9.49525e-07
1.24838e-08
-1.06054e-06
1.11019e-07
-1.37929e-06
3.1874e-07
-2.40829e-06
1.02902e-06
-3.71626e-06
1.30799e-06
-4.21334e-06
4.97061e-07
-3.0894e-06
-1.12394e-06
-3.0894e-06
-4.65108e-07
1.03673e-06
-5.49613e-07
2.98872e-07
-5.99967e-07
9.59425e-08
-6.57364e-07
6.38719e-08
-7.2828e-07
9.87728e-08
-8.06342e-07
1.30255e-07
-8.79654e-07
1.3549e-07
-9.37521e-07
1.16045e-07
-9.72787e-07
8.01815e-08
-9.81229e-07
3.22569e-08
-9.58668e-07
-2.24309e-08
-9.05924e-07
-7.79319e-08
-8.29046e-07
-1.24129e-07
-7.42126e-07
-1.43746e-07
-6.70431e-07
-1.12629e-07
-6.51957e-07
-6.02271e-09
-7.35164e-07
1.94261e-07
-9.94449e-07
5.78031e-07
-1.45723e-06
1.49178e-06
-2.02744e-06
1.8782e-06
-2.48579e-06
9.55387e-07
-2.22035e-06
-1.38936e-06
-5.30977e-06
-2.93347e-07
1.33007e-06
-3.71659e-07
3.77176e-07
-4.42868e-07
1.67148e-07
-5.30868e-07
1.51875e-07
-6.26669e-07
1.94582e-07
-7.19757e-07
2.2335e-07
-7.99277e-07
2.15012e-07
-8.56477e-07
1.73245e-07
-8.85378e-07
1.09091e-07
-8.81968e-07
2.88477e-08
-8.43492e-07
-6.09094e-08
-7.71391e-07
-1.50017e-07
-6.7242e-07
-2.23101e-07
-5.60879e-07
-2.55295e-07
-4.61011e-07
-2.12497e-07
-4.0766e-07
-5.93939e-08
-4.42769e-07
2.29383e-07
-5.95078e-07
7.30338e-07
-7.24215e-07
1.6209e-06
-9.29312e-07
2.08331e-06
-1.21345e-06
1.23952e-06
-1.27066e-06
-1.33215e-06
-6.58044e-06
-1.348e-07
1.46487e-06
-2.19401e-07
4.61771e-07
-3.11413e-07
2.59159e-07
-4.20871e-07
2.61337e-07
-5.33443e-07
3.07161e-07
-6.36478e-07
3.26389e-07
-7.19652e-07
2.98189e-07
-7.75589e-07
2.29183e-07
-7.99386e-07
1.32893e-07
-7.87193e-07
1.66597e-08
-7.36714e-07
-1.1139e-07
-6.49492e-07
-2.37233e-07
-5.32083e-07
-3.40515e-07
-3.97991e-07
-3.89402e-07
-2.695e-07
-3.40987e-07
-1.77446e-07
-1.51462e-07
-1.53732e-07
2.05668e-07
-1.89137e-07
7.6574e-07
-1.56728e-07
1.58849e-06
-1.28711e-07
2.05531e-06
-2.22718e-07
1.33352e-06
-3.06998e-07
-1.24787e-06
-6.88744e-06
-9.39855e-09
1.47426e-06
-8.63963e-08
5.38764e-07
-1.9175e-07
3.64515e-07
-3.14297e-07
3.83888e-07
-4.36612e-07
4.2948e-07
-5.4492e-07
4.34698e-07
-6.29359e-07
3.82628e-07
-6.83688e-07
2.83511e-07
-7.03945e-07
1.53156e-07
-6.86262e-07
-1.01687e-09
-6.28078e-07
-1.69577e-07
-5.30556e-07
-3.34754e-07
-3.99452e-07
-4.71626e-07
-2.46789e-07
-5.42076e-07
-9.23255e-08
-4.95448e-07
3.75631e-08
-2.81363e-07
1.21081e-07
1.22145e-07
1.72276e-07
7.14548e-07
2.9626e-07
1.46451e-06
4.74962e-07
1.87662e-06
5.58534e-07
1.24993e-06
4.21027e-07
-1.11037e-06
-6.46641e-06
9.23563e-08
1.3819e-06
2.79398e-08
6.03179e-07
-7.89771e-08
4.71435e-07
-2.05124e-07
5.10038e-07
-3.29611e-07
5.53968e-07
-4.3796e-07
5.43044e-07
-5.20883e-07
4.6555e-07
-5.73203e-07
3.3583e-07
-5.91793e-07
1.7175e-07
-5.72444e-07
-2.03607e-08
-5.11893e-07
-2.30131e-07
-4.10587e-07
-4.36062e-07
-2.73088e-07
-6.09128e-07
-1.09538e-07
-7.05629e-07
6.29937e-08
-6.67975e-07
2.21642e-07
-4.40021e-07
3.50746e-07
-6.95992e-09
4.6647e-07
5.98831e-07
6.40813e-07
1.29016e-06
8.7647e-07
1.64095e-06
1.04668e-06
1.0797e-06
9.04933e-07
-9.68625e-07
-5.56148e-06
1.68371e-07
1.21352e-06
1.28014e-07
6.43537e-07
2.98369e-08
5.69616e-07
-8.95955e-08
6.29472e-07
-2.07731e-07
6.721e-07
-3.10062e-07
6.4537e-07
-3.88134e-07
5.43624e-07
-4.37887e-07
3.85585e-07
-4.56909e-07
1.90775e-07
-4.40409e-07
-3.68576e-08
-3.84236e-07
-2.86309e-07
-2.88048e-07
-5.32252e-07
-1.55091e-07
-7.42081e-07
6.55871e-09
-8.67277e-07
1.82395e-07
-8.43808e-07
3.51846e-07
-6.09477e-07
5.0177e-07
-1.56879e-07
6.43732e-07
4.56877e-07
8.22319e-07
1.11157e-06
1.03125e-06
1.43203e-06
1.17635e-06
9.34599e-07
1.04984e-06
-8.42105e-07
-4.51163e-06
2.22742e-07
9.90783e-07
2.13695e-07
6.52587e-07
1.34463e-07
6.4885e-07
3.23728e-08
7.31562e-07
-7.04734e-08
7.74943e-07
-1.60291e-07
7.35184e-07
-2.29876e-07
6.1321e-07
-2.76375e-07
4.32087e-07
-2.97879e-07
2.1228e-07
-2.89014e-07
-4.57233e-08
-2.44805e-07
-3.30523e-07
-1.6456e-07
-6.12497e-07
-5.0487e-08
-8.56151e-07
9.15033e-08
-1.00927e-06
2.49623e-07
-1.00193e-06
4.04656e-07
-7.64513e-07
5.42807e-07
-2.95034e-07
6.66277e-07
3.334e-07
7.87334e-07
9.90493e-07
8.72658e-07
1.3467e-06
8.22344e-07
9.84922e-07
4.36039e-07
-4.55793e-07
-4.0756e-06
-5.0598e-06
5.0598e-06
-8.4619e-06
3.4021e-06
-7.9922e-06
-4.69701e-07
-6.31332e-06
-1.67887e-06
-4.21124e-06
-2.10208e-06
-1.6773e-06
-2.53394e-06
9.89577e-07
-2.66687e-06
2.42451e-06
-1.43494e-06
6.13422e-07
1.81106e-06
-3.17923e-06
3.79265e-06
-5.93056e-06
2.75134e-06
-7.08036e-06
1.1498e-06
-8.91634e-06
1.83597e-06
-1.31552e-05
4.23885e-06
-1.62719e-05
3.11667e-06
-1.55166e-05
-7.55326e-07
-1.12939e-05
-4.22265e-06
-4.50331e-06
-6.79059e-06
-4.5033e-06
-5.73944e-06
1.07992e-05
-7.29619e-06
4.95885e-06
-7.1555e-06
-6.10394e-07
-6.29817e-06
-2.5362e-06
-4.90534e-06
-3.49491e-06
-3.1445e-06
-4.2948e-06
-1.43354e-06
-4.37784e-06
-6.47076e-07
-2.22141e-06
-1.64264e-06
2.80663e-06
-4.43271e-06
6.58271e-06
-6.93954e-06
5.25819e-06
-8.40342e-06
2.61367e-06
-1.02996e-05
3.73212e-06
-1.27069e-05
6.64615e-06
-1.38824e-05
4.2922e-06
-1.31919e-05
-1.44581e-06
-1.02492e-05
-7.16533e-06
-5.06537e-06
-1.19745e-05
-9.56866e-06
-5.11873e-06
1.5918e-05
-6.25464e-06
6.09477e-06
-6.6464e-06
-2.18645e-07
-6.33676e-06
-2.84584e-06
-5.47277e-06
-4.35889e-06
-4.26909e-06
-5.49848e-06
-3.1742e-06
-5.47273e-06
-2.84272e-06
-2.55286e-06
-3.5994e-06
3.56332e-06
-5.38262e-06
8.36592e-06
-7.35068e-06
7.22627e-06
-8.81402e-06
4.07703e-06
-1.00112e-05
4.92929e-06
-1.09245e-05
7.55945e-06
-1.13051e-05
4.67283e-06
-1.07904e-05
-1.96059e-06
-8.31526e-06
-9.64043e-06
-4.4936e-06
-1.57961e-05
-1.40623e-05
-4.38072e-06
2.02987e-05
-5.64182e-06
7.35588e-06
-6.41588e-06
5.55409e-07
-6.54816e-06
-2.71357e-06
-6.12767e-06
-4.77937e-06
-5.35941e-06
-6.26673e-06
-4.64159e-06
-6.19054e-06
-4.60413e-06
-2.5903e-06
-5.36375e-06
4.32295e-06
-6.50171e-06
9.50387e-06
-7.86162e-06
8.58618e-06
-9.06549e-06
5.2809e-06
-9.69345e-06
5.55725e-06
-9.65736e-06
7.52334e-06
-9.34866e-06
4.36415e-06
-8.46276e-06
-2.84649e-06
-6.2756e-06
-1.18276e-05
-3.65453e-06
-1.84172e-05
-1.77168e-05
-3.82753e-06
2.41262e-05
-5.34595e-06
8.87429e-06
-6.44787e-06
1.65734e-06
-6.94171e-06
-2.21972e-06
-6.90088e-06
-4.82018e-06
-6.48614e-06
-6.68146e-06
-6.024e-06
-6.65268e-06
-6.14072e-06
-2.47358e-06
-6.9134e-06
5.09562e-06
-7.62243e-06
1.02129e-05
-8.37693e-06
9.34066e-06
-9.24259e-06
6.14656e-06
-9.45106e-06
5.76572e-06
-8.69259e-06
6.76484e-06
-7.71865e-06
3.39021e-06
-6.33485e-06
-4.23031e-06
-4.58445e-06
-1.3578e-05
-2.80404e-06
-2.01976e-05
-2.05208e-05
-3.5998e-06
2.7726e-05
-5.38799e-06
1.06625e-05
-6.73813e-06
3.00749e-06
-7.51253e-06
-1.44533e-06
-7.79615e-06
-4.53655e-06
-7.68867e-06
-6.78895e-06
-7.38942e-06
-6.95194e-06
-7.51879e-06
-2.34422e-06
-8.21637e-06
5.79319e-06
-8.58246e-06
1.0579e-05
-8.87294e-06
9.63114e-06
-9.2739e-06
6.54752e-06
-9.10584e-06
5.59766e-06
-7.86318e-06
5.52216e-06
-6.25065e-06
1.77768e-06
-4.56094e-06
-5.92003e-06
-3.06155e-06
-1.50774e-05
-1.92397e-06
-2.13352e-05
-2.24448e-05
-3.76782e-06
3.14938e-05
-5.82951e-06
1.27242e-05
-7.2821e-06
4.46009e-06
-8.23747e-06
-4.89972e-07
-8.79359e-06
-3.98043e-06
-8.98272e-06
-6.59982e-06
-8.82234e-06
-7.11232e-06
-8.80276e-06
-2.36379e-06
-9.25741e-06
6.24785e-06
-9.32443e-06
1.0646e-05
-9.17925e-06
9.48596e-06
-9.06128e-06
6.42954e-06
-8.50055e-06
5.03693e-06
-6.93453e-06
3.95613e-06
-4.88019e-06
-2.76664e-07
-2.95572e-06
-7.84452e-06
-1.52255e-06
-1.65105e-05
-9.34467e-07
-2.19233e-05
-2.33793e-05
-4.70797e-06
3.62018e-05
-6.716e-06
1.47322e-05
-8.04785e-06
5.79196e-06
-9.06602e-06
5.2819e-07
-9.84587e-06
-3.20057e-06
-1.0339e-05
-6.10666e-06
-1.03878e-05
-7.06359e-06
-1.01556e-05
-2.59597e-06
-1.00961e-05
6.18842e-06
-9.66611e-06
1.0216e-05
-9.15584e-06
8.97569e-06
-8.53021e-06
5.80391e-06
-7.57772e-06
4.08444e-06
-5.75031e-06
2.12873e-06
-3.40452e-06
-2.62245e-06
-1.27297e-06
-9.97606e-06
1.27868e-07
-1.79114e-05
2.73378e-07
-2.20688e-05
-2.31059e-05
5.73156e-07
4.17627e-07
6.79237e-07
5.4651e-07
5.98592e-07
7.29494e-07
4.62939e-07
8.67212e-07
3.18553e-07
9.19323e-07
1.86237e-07
8.67497e-07
7.60292e-08
7.23419e-07
-9.08817e-09
5.17207e-07
-6.67766e-08
2.69969e-07
-8.34519e-08
-2.90475e-08
-4.58402e-08
-3.68133e-07
4.35389e-08
-7.01868e-07
1.79766e-07
-9.92365e-07
3.57357e-07
-1.18685e-06
5.67923e-07
-1.21249e-06
7.72116e-07
-9.68696e-07
9.31175e-07
-4.5409e-07
1.00712e-06
2.57452e-07
8.96858e-07
1.10077e-06
3.43218e-07
1.90036e-06
-1.20438e-06
2.53251e-06
-4.7934e-06
3.13322e-06
4.53047e-06
-1.33995e-05
4.39729e-07
-2.2101e-08
6.39512e-07
3.46729e-07
7.08118e-07
6.60886e-07
7.38323e-07
8.37004e-07
7.4585e-07
9.11792e-07
7.11795e-07
9.01551e-07
6.47278e-07
7.87938e-07
5.74965e-07
5.8952e-07
4.99826e-07
3.45104e-07
4.61671e-07
9.10317e-09
4.47583e-07
-3.54045e-07
4.25822e-07
-6.80102e-07
3.50202e-07
-9.16743e-07
2.06708e-07
-1.04337e-06
8.49111e-08
-1.0907e-06
-1.47403e-08
-8.69056e-07
-1.0952e-07
-3.59328e-07
-3.33912e-07
4.81848e-07
-1.05415e-06
1.82102e-06
-2.79674e-06
3.64293e-06
-6.48486e-06
6.22062e-06
-1.29191e-05
9.56745e-06
1.3254e-05
-2.16426e-05
-3.56372e-07
3.34277e-07
6.05355e-08
-7.01963e-08
5.00345e-07
2.21071e-07
8.55904e-07
4.81429e-07
1.14574e-06
6.21949e-07
1.20525e-06
8.4204e-07
1.01036e-06
9.82825e-07
8.38472e-07
7.61409e-07
7.53169e-07
4.30411e-07
7.25503e-07
3.67833e-08
6.60156e-07
-2.88686e-07
4.8521e-07
-5.05157e-07
-1.3659e-07
-2.94955e-07
-1.31929e-06
1.3932e-07
-2.41511e-06
5.09974e-09
-3.17793e-06
-1.06243e-07
-3.50436e-06
-3.28927e-08
-3.84644e-06
8.23975e-07
-5.05196e-06
3.02647e-06
-7.89579e-06
6.48684e-06
-1.41559e-05
1.24807e-05
-2.36943e-05
1.91058e-05
2.1653e-05
-3.20933e-05
-5.75402e-06
6.08829e-06
-4.89183e-06
-9.32453e-07
-2.41374e-06
-2.25706e-06
-1.196e-06
-7.36344e-07
-4.77839e-08
-5.2628e-07
1.65904e-07
6.28333e-07
-2.72066e-06
3.86941e-06
-4.96806e-06
3.00883e-06
-4.75223e-06
2.14581e-07
-5.25325e-06
5.3777e-07
-5.81792e-06
2.75947e-07
-6.76373e-06
4.40632e-07
-1.00732e-05
3.01449e-06
-2.07323e-05
1.07984e-05
-3.35961e-05
1.2869e-05
-3.4885e-05
1.18261e-06
-3.11268e-05
-3.79104e-06
-2.6231e-05
-4.07184e-06
-2.17115e-05
-1.49294e-06
-1.7314e-05
2.08925e-06
-1.70398e-05
1.22065e-05
-2.52846e-05
2.73506e-05
3.20406e-05
-3.56724e-05
-1.04403e-05
1.65285e-05
-1.39732e-05
2.60035e-06
-1.39736e-05
-2.25672e-06
-1.47969e-05
8.68603e-08
-1.46845e-05
-6.38743e-07
-1.46062e-05
5.501e-07
-1.74389e-05
6.70217e-06
-1.89307e-05
4.50061e-06
-1.98912e-05
1.17509e-06
-2.13688e-05
2.01536e-06
-2.34774e-05
2.38453e-06
-2.60025e-05
2.96573e-06
-3.13095e-05
8.32146e-06
-4.44199e-05
2.39089e-05
-5.64484e-05
2.48975e-05
-5.65451e-05
1.27933e-06
-5.49695e-05
-5.36664e-06
-5.20965e-05
-6.94498e-06
-4.63773e-05
-7.21215e-06
-3.90275e-05
-5.26053e-06
-3.13708e-05
4.54998e-06
-2.7982e-05
2.39618e-05
3.07959e-05
-2.67376e-05
-1.67438e-06
1.82027e-05
-7.46574e-06
8.39158e-06
-1.53773e-05
5.65471e-06
-2.04214e-05
5.13085e-06
-2.21841e-05
1.12387e-06
-2.25357e-05
9.01681e-07
-2.09391e-05
5.10558e-06
-2.15484e-05
5.10992e-06
-2.6397e-05
6.02371e-06
-3.05023e-05
6.12064e-06
-3.3529e-05
5.41123e-06
-3.6332e-05
5.76866e-06
-4.08002e-05
1.27896e-05
-4.7167e-05
3.02758e-05
-5.33484e-05
3.10789e-05
-5.69138e-05
4.84473e-06
-6.05049e-05
-1.77548e-06
-6.24271e-05
-5.02271e-06
-6.0656e-05
-8.98323e-06
-5.78894e-05
-8.02722e-06
-5.27783e-05
-5.61227e-07
-4.47332e-05
1.59169e-05
2.45879e-05
-3.8525e-05
-2.12993e-06
2.03325e-05
-7.95192e-06
1.42134e-05
-1.33724e-05
1.1075e-05
-1.72806e-05
9.03892e-06
-2.19815e-05
5.82452e-06
-2.58899e-05
4.81012e-06
-2.78097e-05
7.0253e-06
-3.32051e-05
1.05053e-05
-4.03101e-05
1.31286e-05
-4.40292e-05
9.83971e-06
-4.34223e-05
4.80421e-06
-4.24329e-05
4.77924e-06
-4.22613e-05
1.26181e-05
-3.95905e-05
2.76048e-05
-3.87914e-05
3.02798e-05
-5.03091e-05
1.63626e-05
-6.29766e-05
1.0892e-05
-6.89878e-05
9.88463e-07
-7.05245e-05
-7.44656e-06
-7.16209e-05
-6.93075e-06
-6.99006e-05
-2.28157e-06
-6.02781e-05
6.29441e-06
1.51488e-05
-5.0839e-05
-2.49373e-06
2.28261e-05
-6.49207e-06
1.82115e-05
-1.06147e-05
1.51975e-05
-1.46976e-05
1.31215e-05
-1.99023e-05
1.1029e-05
-2.57318e-05
1.06395e-05
-3.15987e-05
1.28922e-05
-3.74294e-05
1.6336e-05
-4.22687e-05
1.7968e-05
-4.38001e-05
1.13712e-05
-4.27786e-05
3.78266e-06
-4.11263e-05
3.1269e-06
-3.73548e-05
8.84664e-06
-3.10936e-05
2.13438e-05
-3.05999e-05
2.97861e-05
-4.04257e-05
2.61886e-05
-5.11429e-05
2.16091e-05
-6.17799e-05
1.16257e-05
-7.217e-05
2.9436e-06
-7.5123e-05
-3.9779e-06
-7.3015e-05
-4.38957e-06
-6.59592e-05
-7.61464e-07
5.31664e-06
-5.61271e-05
-1.5916e-06
2.44176e-05
-4.53594e-06
2.11557e-05
-7.94044e-06
1.86019e-05
-1.17172e-05
1.68979e-05
-1.6439e-05
1.57506e-05
-2.17295e-05
1.593e-05
-2.66878e-05
1.78505e-05
-3.07935e-05
2.04415e-05
-3.35198e-05
2.06943e-05
-3.6089e-05
1.39405e-05
-3.7953e-05
5.64668e-06
-3.83084e-05
3.48221e-06
-3.57799e-05
6.31813e-06
-2.98609e-05
1.54248e-05
-2.69477e-05
2.6873e-05
-3.04073e-05
2.96484e-05
-3.49264e-05
2.61279e-05
-4.25256e-05
1.92247e-05
-5.48286e-05
1.52465e-05
-6.6384e-05
7.57774e-06
-6.61328e-05
-4.64087e-06
-6.18237e-05
-5.07042e-06
-1.47669e-06
-5.50303e-05
-6.07115e-07
2.50247e-05
-2.66639e-06
2.32148e-05
-5.35743e-06
2.12927e-05
-8.47077e-06
2.00111e-05
-1.21193e-05
1.9399e-05
-1.59178e-05
1.97284e-05
-1.91311e-05
2.10639e-05
-2.12659e-05
2.25762e-05
-2.26148e-05
2.20431e-05
-2.56971e-05
1.70228e-05
-3.05194e-05
1.0469e-05
-3.32655e-05
6.22837e-06
-3.3417e-05
6.46967e-06
-3.05766e-05
1.25844e-05
-2.62374e-05
2.25338e-05
-2.49194e-05
2.83305e-05
-2.36408e-05
2.48494e-05
-2.50777e-05
2.06617e-05
-3.00258e-05
2.01944e-05
-4.10434e-05
1.85954e-05
-5.26359e-05
6.95165e-06
-5.55865e-05
-2.11978e-06
-5.84916e-06
-5.12141e-05
3.87694e-09
2.50207e-05
-1.27706e-06
2.44957e-05
-3.18123e-06
2.31965e-05
-5.44087e-06
2.22706e-05
-7.92488e-06
2.18828e-05
-1.03167e-05
2.212e-05
-1.2128e-05
2.28751e-05
-1.30663e-05
2.35145e-05
-1.37125e-05
2.26893e-05
-1.59331e-05
1.92432e-05
-1.9988e-05
1.45238e-05
-2.46254e-05
1.08657e-05
-2.78376e-05
9.68204e-06
-2.78361e-05
1.2583e-05
-2.45038e-05
1.92015e-05
-2.06806e-05
2.45074e-05
-1.67898e-05
2.09584e-05
-1.49486e-05
1.88206e-05
-1.39396e-05
1.91854e-05
-1.68826e-05
2.15384e-05
-2.42227e-05
1.42918e-05
-3.08924e-05
4.54999e-06
-3.19692e-06
-3.35446e-05
1.698e-07
2.48509e-05
-4.86553e-07
2.51518e-05
-1.64592e-06
2.43556e-05
-3.06339e-06
2.36879e-05
-4.54693e-06
2.33663e-05
-5.85775e-06
2.34307e-05
-6.71581e-06
2.37331e-05
-7.01665e-06
2.38152e-05
-7.23292e-06
2.29056e-05
-8.45804e-06
2.04683e-05
-1.11179e-05
1.71834e-05
-1.46552e-05
1.44029e-05
-1.80881e-05
1.31148e-05
-1.99483e-05
1.44432e-05
-1.86862e-05
1.79394e-05
-1.47622e-05
2.05834e-05
-1.16874e-05
1.78837e-05
-9.12804e-06
1.62612e-05
-7.28139e-06
1.73388e-05
-5.74093e-06
1.99981e-05
-6.99315e-06
1.55441e-05
-9.69225e-06
7.24902e-06
-5.86567e-07
-1.23027e-05
7.49864e-08
2.47759e-05
-1.91103e-07
2.54177e-05
-7.66067e-07
2.49306e-05
-1.48897e-06
2.44107e-05
-2.20427e-06
2.40816e-05
-2.74451e-06
2.39711e-05
-2.96153e-06
2.39501e-05
-2.85668e-06
2.37105e-05
-2.76826e-06
2.28172e-05
-3.31989e-06
2.102e-05
-4.826e-06
1.86895e-05
-7.0228e-06
1.65997e-05
-9.33671e-06
1.54286e-05
-1.06663e-05
1.57728e-05
-1.00768e-05
1.73501e-05
-7.76518e-06
1.82715e-05
-6.2426e-06
1.63611e-05
-4.77135e-06
1.479e-05
-3.21831e-06
1.57857e-05
-2.26493e-07
1.70061e-05
1.17966e-06
1.41379e-05
7.36843e-07
7.69171e-06
1.03601e-06
-8.85689e-07
-1.24216e-07
2.49e-05
-2.12234e-07
2.55054e-05
-3.97327e-07
2.51157e-05
-6.21219e-07
2.46346e-05
-7.90334e-07
2.42507e-05
-8.04457e-07
2.39853e-05
-5.96438e-07
2.37421e-05
-2.07322e-07
2.33215e-05
1.30457e-07
2.24794e-05
5.3904e-08
2.10964e-05
-6.33681e-07
1.9377e-05
-1.80258e-06
1.77688e-05
-3.06558e-06
1.66914e-05
-3.73829e-06
1.64453e-05
-3.1993e-06
1.68115e-05
-1.71954e-06
1.67916e-05
-8.40429e-07
1.54819e-05
-3.45575e-07
1.42948e-05
1.13606e-06
1.43039e-05
3.73326e-06
1.4409e-05
5.72713e-06
1.21441e-05
6.08081e-06
7.33808e-06
1.92864e-06
5.18793e-06
-3.41257e-07
2.5241e-05
-3.79691e-07
2.55437e-05
-3.40163e-07
2.50759e-05
-2.44684e-07
2.45392e-05
-5.79695e-08
2.40639e-05
2.67565e-07
2.36597e-05
7.51865e-07
2.32578e-05
1.34336e-06
2.27301e-05
1.88608e-06
2.19368e-05
2.16471e-06
2.08176e-05
2.05496e-06
1.94867e-05
1.63022e-06
1.81937e-05
1.13729e-06
1.71846e-05
9.79266e-07
1.66033e-05
1.48125e-06
1.63094e-05
2.45005e-06
1.58227e-05
3.19031e-06
1.47415e-05
3.78832e-06
1.36969e-05
4.95357e-06
1.31386e-05
6.90109e-06
1.24616e-05
8.65136e-06
1.03938e-05
9.22427e-06
6.76512e-06
2.46844e-06
8.68437e-06
-5.14885e-07
2.57557e-05
-5.56886e-07
2.55855e-05
-4.02948e-07
2.49218e-05
-1.25547e-07
2.42619e-05
2.70091e-07
2.36682e-05
7.95611e-07
2.31341e-05
1.44744e-06
2.2606e-05
2.17618e-06
2.20013e-05
2.87583e-06
2.1237e-05
3.41426e-06
2.02791e-05
3.71356e-06
1.91875e-05
3.80986e-06
1.80972e-05
3.85033e-06
1.71439e-05
4.05732e-06
1.63965e-05
4.59328e-06
1.57733e-05
5.37215e-06
1.50439e-05
6.07864e-06
1.40351e-05
6.78036e-06
1.29953e-05
7.83101e-06
1.2088e-05
9.3239e-06
1.09686e-05
1.07039e-05
9.01372e-06
1.13539e-05
6.11504e-06
2.81291e-06
1.10094e-05
-5.97099e-07
2.63528e-05
-6.41317e-07
2.56295e-05
-4.30365e-07
2.47111e-05
-6.23567e-08
2.38939e-05
4.37128e-07
2.31688e-05
1.06324e-06
2.2508e-05
1.80189e-06
2.18674e-05
2.61164e-06
2.11916e-05
3.41944e-06
2.04291e-05
4.1407e-06
1.95577e-05
4.72254e-06
1.86057e-05
5.17812e-06
1.76417e-05
5.58692e-06
1.6735e-05
6.06709e-06
1.59164e-05
6.70148e-06
1.5139e-05
7.45552e-06
1.42897e-05
8.20301e-06
1.32875e-05
8.98416e-06
1.22141e-05
9.96543e-06
1.11068e-05
1.11592e-05
9.77492e-06
1.225e-05
7.92313e-06
1.2846e-05
5.51916e-06
2.93626e-06
1.27228e-05
-5.5827e-07
2.6911e-05
-5.63872e-07
2.56349e-05
-3.12384e-07
2.44599e-05
9.34659e-08
2.34879e-05
6.28146e-07
2.26342e-05
1.28559e-06
2.18507e-05
2.05273e-06
2.11004e-05
2.89735e-06
2.0347e-05
3.76805e-06
1.95583e-05
4.60766e-06
1.87182e-05
5.37707e-06
1.78365e-05
6.07485e-06
1.69439e-05
6.73848e-06
1.60715e-05
7.42645e-06
1.52284e-05
8.18022e-06
1.43851e-05
8.988e-06
1.34817e-05
9.80277e-06
1.24726e-05
1.06442e-05
1.13726e-05
1.15776e-05
1.01736e-05
1.25806e-05
8.77216e-06
1.34663e-05
7.03762e-06
1.3996e-05
4.98967e-06
2.90423e-06
1.40281e-05
-3.84937e-07
2.72957e-05
-2.88308e-07
2.55382e-05
1.36944e-08
2.41579e-05
4.2977e-07
2.30718e-05
9.56581e-07
2.21075e-05
1.60121e-06
2.1206e-05
2.358e-06
2.03435e-05
3.20353e-06
1.95014e-05
4.10038e-06
1.86615e-05
5.007e-06
1.78116e-05
5.89205e-06
1.69516e-05
6.74549e-06
1.60904e-05
7.57988e-06
1.52371e-05
8.42004e-06
1.43883e-05
9.2837e-06
1.35216e-05
1.01656e-05
1.25999e-05
1.10462e-05
1.1592e-05
1.19302e-05
1.04888e-05
1.2833e-05
9.27102e-06
1.37205e-05
7.88478e-06
1.44773e-05
6.28085e-06
1.4962e-05
4.50499e-06
2.75176e-06
1.51145e-05
-9.05156e-08
2.7386e-05
1.85406e-07
2.52624e-05
5.59325e-07
2.37838e-05
9.7133e-07
2.26599e-05
1.4656e-06
2.16133e-05
2.07435e-06
2.05973e-05
2.80096e-06
1.96169e-05
3.62789e-06
1.86744e-05
4.52584e-06
1.77636e-05
5.46206e-06
1.68756e-05
6.40963e-06
1.60041e-05
7.35406e-06
1.51461e-05
8.29388e-06
1.42974e-05
9.23498e-06
1.34475e-05
1.01809e-05
1.25758e-05
1.11255e-05
1.16555e-05
1.20558e-05
1.06617e-05
1.29661e-05
9.57868e-06
1.38489e-05
8.38825e-06
1.46696e-05
7.06418e-06
1.53543e-05
5.59602e-06
1.5823e-05
4.03624e-06
2.52511e-06
1.60497e-05
2.79078e-07
2.7107e-05
8.146e-07
2.47268e-05
1.27223e-06
2.33261e-05
1.67371e-06
2.22585e-05
2.12995e-06
2.11572e-05
2.70331e-06
2.0024e-05
3.40102e-06
1.89192e-05
4.20652e-06
1.78689e-05
5.09406e-06
1.68761e-05
6.03613e-06
1.59337e-05
7.00906e-06
1.50313e-05
7.99679e-06
1.41585e-05
8.99079e-06
1.33036e-05
9.98689e-06
1.24515e-05
1.09803e-05
1.15825e-05
1.1962e-05
1.06739e-05
1.29188e-05
9.70479e-06
1.38384e-05
8.65911e-06
1.47042e-05
7.52257e-06
1.54844e-05
6.28399e-06
1.61305e-05
4.95002e-06
1.65963e-05
3.57047e-06
2.25127e-06
1.68702e-05
7.33487e-07
2.63735e-05
1.39223e-06
2.40679e-05
2.00865e-06
2.27096e-05
2.41003e-06
2.18571e-05
2.86239e-06
2.07047e-05
3.43569e-06
1.94507e-05
4.1307e-06
1.82242e-05
4.92923e-06
1.70705e-05
5.80805e-06
1.59974e-05
6.74435e-06
1.49973e-05
7.71851e-06
1.4057e-05
8.71549e-06
1.31615e-05
9.72442e-06
1.22948e-05
1.07367e-05
1.14393e-05
1.17434e-05
1.05758e-05
1.2733e-05
9.68421e-06
1.36915e-05
8.74639e-06
1.46029e-05
7.74779e-06
1.54476e-05
6.67795e-06
1.61983e-05
5.53343e-06
1.6821e-05
4.32732e-06
1.72877e-05
3.1038e-06
1.94585e-06
1.75932e-05
1.05111e-06
2.53223e-05
1.73727e-06
2.33815e-05
2.46507e-06
2.19818e-05
2.9946e-06
2.13275e-05
3.55056e-06
2.01486e-05
4.19996e-06
1.88012e-05
4.9405e-06
1.74836e-05
5.75894e-06
1.62522e-05
6.63943e-06
1.5117e-05
7.56677e-06
1.40699e-05
8.52754e-06
1.30962e-05
9.51032e-06
1.21787e-05
1.05053e-05
1.12999e-05
1.1503e-05
1.04416e-05
1.24936e-05
9.58533e-06
1.34646e-05
8.71326e-06
1.44017e-05
7.80952e-06
1.52879e-05
6.8617e-06
1.61039e-05
5.86219e-06
1.68261e-05
4.8113e-06
1.74298e-05
3.72361e-06
1.78964e-05
2.63717e-06
1.61889e-06
1.82233e-05
1.05944e-06
2.42628e-05
1.90879e-06
2.2532e-05
2.61867e-06
2.12718e-05
3.38929e-06
2.05568e-05
4.16219e-06
1.93756e-05
4.95992e-06
1.80033e-05
5.78913e-06
1.66543e-05
6.65086e-06
1.53906e-05
7.54266e-06
1.42253e-05
8.46026e-06
1.31523e-05
9.3984e-06
1.21581e-05
1.03511e-05
1.12262e-05
1.13117e-05
1.03396e-05
1.22724e-05
9.48104e-06
1.32241e-05
8.63384e-06
1.41553e-05
7.78233e-06
1.50522e-05
6.91293e-06
1.58989e-05
6.01533e-06
1.66772e-05
5.08403e-06
1.73676e-05
4.12103e-06
1.79509e-05
3.14027e-06
1.84139e-05
2.17415e-06
1.27789e-06
1.87548e-05
1.15652e-06
2.31062e-05
2.00782e-06
2.16806e-05
2.78789e-06
2.04917e-05
3.77919e-06
1.95655e-05
4.77504e-06
1.83799e-05
5.72829e-06
1.705e-05
6.65168e-06
1.57309e-05
7.55967e-06
1.44826e-05
8.46271e-06
1.33222e-05
9.36705e-06
1.22479e-05
1.02753e-05
1.12499e-05
1.11872e-05
1.03145e-05
1.21e-05
9.42703e-06
1.30087e-05
8.57249e-06
1.39063e-05
7.73656e-06
1.47829e-05
6.90604e-06
1.56264e-05
6.06967e-06
1.64228e-05
5.21919e-06
1.71562e-05
4.35071e-06
1.78103e-05
3.46698e-06
1.83699e-05
2.58064e-06
1.88248e-05
1.71919e-06
9.29007e-07
1.91736e-05
1.45425e-06
2.16517e-05
2.28124e-06
2.08535e-05
3.22423e-06
1.95484e-05
4.3417e-06
1.8448e-05
5.46071e-06
1.7261e-05
6.51081e-06
1.59998e-05
7.4956e-06
1.47461e-05
8.43192e-06
1.35462e-05
9.33602e-06
1.24179e-05
1.02202e-05
1.13637e-05
1.10924e-05
1.03777e-05
1.19568e-05
9.4502e-06
1.28144e-05
8.5696e-06
1.3663e-05
7.72396e-06
1.4498e-05
6.90174e-06
1.53118e-05
6.09237e-06
1.60947e-05
5.28697e-06
1.68347e-05
4.47926e-06
1.75187e-05
3.66671e-06
1.81332e-05
2.85246e-06
1.8666e-05
2.04782e-06
1.9109e-05
1.27629e-06
5.77332e-07
1.94607e-05
1.67905e-06
1.99724e-05
2.75468e-06
1.97778e-05
3.84993e-06
1.84529e-05
5.01664e-06
1.72813e-05
6.16932e-06
1.61084e-05
7.25217e-06
1.49171e-05
8.25843e-06
1.37398e-05
9.20004e-06
1.26043e-05
1.00925e-05
1.15252e-05
1.09497e-05
1.05065e-05
1.1782e-05
9.54545e-06
1.25964e-05
8.63586e-06
1.33965e-05
7.76952e-06
1.41829e-05
6.93764e-06
1.49531e-05
6.13159e-06
1.57021e-05
5.34349e-06
1.64224e-05
4.56681e-06
1.71045e-05
3.79716e-06
1.7738e-05
3.0333e-06
1.83118e-05
2.27868e-06
1.88162e-05
1.54354e-06
1.92444e-05
8.48219e-07
2.26698e-07
1.95953e-05
1.78824e-06
1.81842e-05
3.1464e-06
1.84196e-05
4.38815e-06
1.7211e-05
5.60432e-06
1.60651e-05
6.76848e-06
1.49444e-05
7.8552e-06
1.38305e-05
8.8602e-06
1.27347e-05
9.79233e-06
1.1672e-05
1.06651e-05
1.06524e-05
1.14918e-05
9.67977e-06
1.22838e-05
8.75356e-06
1.30495e-05
7.87021e-06
1.37945e-05
7.02459e-06
1.45214e-05
6.21094e-06
1.52297e-05
5.42344e-06
1.59166e-05
4.6568e-06
1.65768e-05
3.90675e-06
1.72034e-05
3.17071e-06
1.77882e-05
2.44867e-06
1.83226e-05
1.7445e-06
1.87986e-05
1.06769e-06
1.92108e-05
4.36167e-07
-1.2043e-07
1.95581e-05
1.78675e-06
1.63976e-05
3.33934e-06
1.6867e-05
4.7095e-06
1.58408e-05
5.97706e-06
1.47977e-05
7.15424e-06
1.37674e-05
8.23923e-06
1.27456e-05
9.23541e-06
1.17385e-05
1.01523e-05
1.0755e-05
1.10027e-05
9.80208e-06
1.17993e-05
8.8833e-06
1.25536e-05
7.99932e-06
1.32751e-05
7.14886e-06
1.39704e-05
6.32941e-06
1.46437e-05
5.5379e-06
1.52962e-05
4.77115e-06
1.5927e-05
4.02629e-06
1.65328e-05
3.30116e-06
1.71088e-05
2.59489e-06
1.76489e-05
1.90867e-06
1.81467e-05
1.24687e-06
1.8596e-05
6.18592e-07
1.89923e-05
3.99929e-08
-4.62776e-07
1.93347e-05
1.71703e-06
1.46807e-05
3.35506e-06
1.52291e-05
4.79897e-06
1.43969e-05
6.10174e-06
1.3495e-05
7.28766e-06
1.25814e-05
8.36787e-06
1.16652e-05
9.35207e-06
1.07541e-05
1.02517e-05
9.85536e-06
1.10794e-05
8.97448e-06
1.18477e-05
8.11501e-06
1.25684e-05
7.27874e-06
1.32512e-05
6.46622e-06
1.39036e-05
5.67721e-06
1.45306e-05
4.91107e-06
1.5135e-05
4.16701e-06
1.57171e-05
3.44436e-06
1.62754e-05
2.74291e-06
1.68071e-05
2.06335e-06
1.73078e-05
1.40801e-06
1.77729e-05
7.8184e-07
1.81977e-05
1.93787e-07
1.85789e-05
-3.41232e-07
-7.99874e-07
1.8916e-05
1.61597e-06
1.30648e-05
3.24401e-06
1.3601e-05
4.69748e-06
1.29435e-05
6.00237e-06
1.21903e-05
7.18044e-06
1.14032e-05
8.24637e-06
1.05991e-05
9.21248e-06
9.78793e-06
1.00911e-05
8.97678e-06
1.08949e-05
8.17084e-06
1.16361e-05
7.37388e-06
1.23262e-05
6.58868e-06
1.29751e-05
5.81739e-06
1.35907e-05
5.06177e-06
1.41786e-05
4.32334e-06
1.47422e-05
3.60348e-06
1.52831e-05
2.90354e-06
1.5801e-05
2.22499e-06
1.62944e-05
1.56987e-06
1.67609e-05
9.41522e-07
1.71972e-05
3.45497e-07
1.76002e-05
-2.09228e-07
1.79675e-05
-7.08622e-07
-1.13158e-06
1.82992e-05
1.49727e-06
1.15676e-05
3.0493e-06
1.2049e-05
4.45601e-06
1.15371e-05
5.7249e-06
1.09214e-05
6.87068e-06
1.02572e-05
7.90621e-06
9.56345e-06
8.84325e-06
8.85092e-06
9.69357e-06
8.12658e-06
1.04691e-05
7.39541e-06
1.11816e-05
6.66146e-06
1.18421e-05
5.92834e-06
1.246e-05
5.19958e-06
1.30431e-05
4.47872e-06
1.35972e-05
3.76924e-06
1.41262e-05
3.07453e-06
1.46319e-05
2.3977e-06
1.51152e-05
1.74161e-06
1.55757e-05
1.10934e-06
1.60121e-05
5.05023e-07
1.64228e-05
-6.52407e-08
1.68059e-05
-5.92368e-07
1.71602e-05
-1.06292e-06
-1.45756e-06
1.74861e-05
1.36568e-06
1.0202e-05
2.80044e-06
1.06143e-05
4.11813e-06
1.02197e-05
5.31662e-06
9.72289e-06
6.40417e-06
9.16954e-06
7.38991e-06
8.57772e-06
8.28337e-06
7.95757e-06
9.09476e-06
7.31532e-06
9.83475e-06
6.65552e-06
1.05141e-05
5.98223e-06
1.11427e-05
5.29972e-06
1.17297e-05
4.61267e-06
1.22822e-05
3.92619e-06
1.28058e-05
3.24564e-06
1.3304e-05
2.57624e-06
1.37789e-05
1.92271e-06
1.42316e-05
1.2889e-06
1.46624e-05
6.78433e-07
1.50714e-05
9.59324e-08
1.54583e-05
-4.52102e-07
1.58223e-05
-9.56425e-07
1.61633e-05
-1.40397e-06
-1.7768e-06
1.64825e-05
1.22521e-06
8.97673e-06
2.51796e-06
9.32171e-06
3.71754e-06
9.02032e-06
4.81856e-06
8.62174e-06
5.82472e-06
8.16333e-06
6.74149e-06
7.66104e-06
7.57578e-06
7.1234e-06
8.33579e-06
6.55538e-06
9.03063e-06
5.96072e-06
9.66966e-06
5.34324e-06
1.02619e-05
4.70756e-06
1.08152e-05
4.05929e-06
1.13364e-05
3.40501e-06
1.183e-05
2.75188e-06
1.22991e-05
2.10703e-06
1.2745e-05
1.47672e-06
1.31686e-05
8.65245e-07
1.3571e-05
2.76029e-07
1.39531e-05
-2.86306e-07
1.4316e-05
-8.15006e-07
1.46601e-05
-1.30061e-06
1.49863e-05
-1.73023e-06
-2.08705e-06
1.52965e-05
1.08003e-06
7.89668e-06
2.21695e-06
8.18501e-06
3.28018e-06
7.95704e-06
4.26474e-06
7.63705e-06
5.17142e-06
7.25671e-06
6.00276e-06
6.82981e-06
6.76332e-06
6.36291e-06
7.45937e-06
5.85937e-06
8.09836e-06
5.32177e-06
8.68825e-06
4.7534e-06
9.23689e-06
4.15894e-06
9.75141e-06
3.54474e-06
1.02376e-05
2.9187e-06
1.06995e-05
2.28988e-06
1.11387e-05
1.66768e-06
1.15551e-05
1.06024e-06
1.19487e-05
4.71546e-07
1.23212e-05
-9.64949e-08
1.26747e-05
-6.39887e-07
1.30113e-05
-1.15173e-06
1.33328e-05
-1.62222e-06
1.36409e-05
-2.03848e-06
-2.38447e-06
1.39383e-05
9.33199e-07
6.96356e-06
1.90872e-06
7.20956e-06
2.82696e-06
7.03859e-06
3.68429e-06
6.7797e-06
4.47955e-06
6.46158e-06
5.21326e-06
6.09621e-06
5.88814e-06
5.68809e-06
6.50882e-06
5.23875e-06
7.08123e-06
4.74945e-06
7.61203e-06
4.22268e-06
8.10811e-06
3.6629e-06
8.57598e-06
3.07683e-06
9.02103e-06
2.47355e-06
9.44658e-06
1.8642e-06
9.85291e-06
1.26124e-06
1.02369e-05
6.76158e-07
1.05969e-05
1.11425e-07
1.09353e-05
-4.34986e-07
1.12557e-05
-9.60448e-07
1.15616e-05
-1.4578e-06
1.18559e-05
-1.91658e-06
1.2141e-05
-2.32365e-06
-2.66351e-06
1.242e-05
7.8648e-07
6.17717e-06
1.60318e-06
6.39268e-06
2.37703e-06
6.26455e-06
3.1045e-06
6.05228e-06
3.78305e-06
5.78316e-06
4.41201e-06
5.46734e-06
4.99292e-06
5.10726e-06
5.52909e-06
4.70271e-06
6.02509e-06
4.2536e-06
6.48648e-06
3.76143e-06
6.9194e-06
3.23004e-06
7.33018e-06
2.66602e-06
7.72456e-06
2.07909e-06
8.10617e-06
1.48249e-06
8.47408e-06
8.93238e-07
8.82016e-06
3.29971e-07
9.13979e-06
-2.08316e-07
9.43689e-06
-7.32238e-07
9.71736e-06
-1.24107e-06
9.9861e-06
-1.72668e-06
1.02467e-05
-2.1773e-06
1.05022e-05
-2.57914e-06
-2.91703e-06
1.07558e-05
6.42947e-07
5.53416e-06
1.31278e-06
5.72255e-06
1.95171e-06
5.62552e-06
2.55425e-06
5.44982e-06
3.11721e-06
5.22026e-06
3.63975e-06
4.94486e-06
4.12282e-06
4.62429e-06
4.56868e-06
4.25703e-06
4.9806e-06
3.84187e-06
5.36292e-06
3.37926e-06
5.72106e-06
2.87196e-06
6.06154e-06
2.32553e-06
6.39157e-06
1.749e-06
6.71712e-06