/*--------------------------------*- C++ -*----------------------------------*\
| =========                 |                                                 |
| \\      /  F ield         | OpenFOAM: The Open Source CFD Toolbox           |
|  \\    /   O peration     | Version:  2.3.0                                 |
|   \\  /    A nd           | Web:      www.OpenFOAM.org                      |
|    \\/     M anipulation  |                                                 |
\*---------------------------------------------------------------------------*/
FoamFile
{
    version     2.0;
    format      ascii;
    class       volScalarField;
    location    "15";
    object      p;
}
// * * * * * * * * * * * * * * * * * * * * * * * * * * * * * * * * * * * * * //

dimensions      [0 2 -2 0 0 0 0];

internalField   nonuniform List<scalar> 
1720
(
0.000667455
0.000666873
0.000398997
0.000227625
0.000216561
0.000279264
0.000327959
0.000333133
0.000306423
0.000266663
0.000224468
0.000178463
0.000125507
6.12535e-05
-1.12656e-05
-9.01489e-05
-0.000177666
-0.000264298
-0.000345417
-0.000421653
-0.000486804
-0.000555401
-0.000646629
-0.000878759
-0.00146256
-0.00258223
-0.00413074
-0.00579114
-0.00738455
-0.00882858
-0.0100915
-0.0111434
-0.0119396
-0.012439
-0.0126301
-0.0124872
-0.0119919
-0.0111618
-0.0100266
-0.00864739
-0.00709581
-0.00544432
-0.00382425
-0.00227904
-0.000807353
0.000114786
0.000371206
0.00021423
0.000237691
0.000289155
0.000312474
0.000302169
0.000278811
0.000239142
0.000202975
0.000162685
0.000121541
9.32621e-05
6.32568e-05
2.6521e-05
0.00209614
0.00184871
0.00106157
0.000677855
0.00070468
0.000871505
0.000981109
0.000983124
0.000909886
0.000803549
0.000685437
0.000551929
0.000393468
0.000201868
-2.09786e-05
-0.000269862
-0.000535359
-0.000801435
-0.0010555
-0.00128911
-0.00149876
-0.00169573
-0.00189951
-0.00213277
-0.00232752
-0.0024695
-0.00271786
-0.00298826
-0.00309274
-0.00300515
-0.00284176
-0.00267933
-0.00243224
-0.00210844
-0.00169299
-0.00123123
-0.000752856
-0.000289422
0.000132565
0.000491132
0.000775678
0.000988659
0.0011475
0.00124109
0.00128873
0.00117647
0.00105206
0.00102255
0.00107848
0.00112765
0.0011243
0.00106626
0.00097968
0.000862008
0.000745002
0.000604483
0.000472843
0.00033794
0.000206739
0.000116341
0.00367004
0.00289469
0.00162507
0.00114851
0.00125366
0.00150229
0.00164396
0.00163235
0.00151923
0.00135794
0.0011732
0.000955792
0.000691626
0.000367867
-1.47177e-05
-0.000446857
-0.000910226
-0.00137915
-0.00182682
-0.00223275
-0.00258315
-0.00287908
-0.00313221
-0.00336129
-0.00361238
-0.00397905
-0.00442874
-0.0048769
-0.00529425
-0.00566507
-0.00592167
-0.00599009
-0.00589474
-0.00566244
-0.00533402
-0.00491073
-0.00440134
-0.00383248
-0.00323301
-0.00261255
-0.00199415
-0.00137151
-0.00075977
-0.000165479
0.000472378
0.00109204
0.00153115
0.00176665
0.00188383
0.00192952
0.00190028
0.00179736
0.00164569
0.00144365
0.00121844
0.000966639
0.000719408
0.00050048
0.000274644
0.000152858
0.00496992
0.00390326
0.00221209
0.00165064
0.00184197
0.00215983
0.00231927
0.00229118
0.00214695
0.0019434
0.00170354
0.00140765
0.00103865
0.000576103
2.30559e-05
-0.000612108
-0.00130581
-0.00201811
-0.00269848
-0.00329881
-0.00378454
-0.00415107
-0.00442947
-0.00467368
-0.00494753
-0.00527627
-0.00563064
-0.00600437
-0.00635083
-0.0066224
-0.00677082
-0.0067803
-0.00664583
-0.00635353
-0.00589547
-0.00528175
-0.00455246
-0.00374332
-0.0028837
-0.00200163
-0.00112692
-0.000290738
0.000485238
0.00116505
0.00167727
0.00206342
0.0023212
0.0025506
0.00268058
0.00271324
0.00265865
0.00251392
0.00229157
0.00200057
0.00165128
0.0012724
0.000884243
0.000564551
0.000269817
0.000161682
0.00629415
0.00486389
0.00278288
0.00215435
0.00244407
0.00283145
0.00300856
0.0029705
0.00280821
0.00257825
0.0022974
0.00193122
0.00145932
0.000848498
0.000108822
-0.000758505
-0.00172366
-0.00273752
-0.00371658
-0.00455883
-0.00518462
-0.00558791
-0.0058454
-0.00605961
-0.00630361
-0.00659792
-0.0069285
-0.00727548
-0.0075917
-0.00782916
-0.00794624
-0.00791138
-0.00769182
-0.00726599
-0.00664007
-0.00584463
-0.0049237
-0.00392396
-0.00289595
-0.00188375
-0.000919546
-3.35666e-05
0.000747451
0.00141446
0.00200062
0.00249108
0.0029317
0.00321587
0.0033737
0.0034153
0.00334695
0.00317034
0.00288989
0.00252969
0.00207021
0.00157523
0.00105749
0.000616701
0.000206547
0.000112088
0.00759726
0.00574908
0.0033219
0.00265414
0.00305368
0.00351476
0.00371653
0.00368244
0.00352006
0.00328441
0.00297945
0.00255606
0.00198449
0.00121377
0.000259827
-0.000891103
-0.00217868
-0.00356361
-0.00492946
-0.00608015
-0.00685704
-0.0072564
-0.00742706
-0.00754961
-0.0077325
-0.00799634
-0.00832012
-0.00867131
-0.00901059
-0.00927902
-0.00941486
-0.00936807
-0.00909678
-0.00856594
-0.00778456
-0.00680197
-0.00567651
-0.00447318
-0.00325337
-0.00206827
-0.000954029
6.73033e-05
0.000989748
0.00181478
0.00253304
0.00310456
0.00353674
0.00383406
0.00398786
0.00400297
0.00389135
0.00366563
0.0033325
0.00292708
0.0024005
0.00183317
0.00123242
0.000672456
0.000156817
7.559e-05
0.0088524
0.00656193
0.00383381
0.00316388
0.00367532
0.00420693
0.00444026
0.00443017
0.00429344
0.00408143
0.00377566
0.00331767
0.00265232
0.0017178
0.000503722
-0.00103047
-0.00274509
-0.00459101
-0.00641355
-0.00789612
-0.00876802
-0.00912018
-0.00916361
-0.00915478
-0.00924642
-0.00945392
-0.00975801
-0.0101378
-0.0105557
-0.0109192
-0.0111299
-0.0111129
-0.010818
-0.0102096
-0.0092736
-0.00805717
-0.00666159
-0.0051865
-0.00371105
-0.00229296
-0.000970697
0.000229195
0.00129093
0.00219973
0.00294572
0.003539
0.00389738
0.00419499
0.00430229
0.00424211
0.00404389
0.00374917
0.00338261
0.00297581
0.00246416
0.00192157
0.00129804
0.000683509
0.000127831
4.72127e-05
0.0100303
0.00728596
0.00430201
0.00370008
0.00432357
0.00490494
0.00517216
0.00521015
0.00513458
0.00498552
0.00471754
0.00426039
0.00351669
0.00242687
0.000897375
-0.00116918
-0.0036234
-0.00619577
-0.00847449
-0.0100605
-0.0108295
-0.010963
-0.0108081
-0.0106792
-0.0107038
-0.0108607
-0.0111602
-0.0116057
-0.0121534
-0.0126899
-0.0130633
-0.0131443
-0.0128477
-0.0121546
-0.0110589
-0.00958993
-0.0078671
-0.00605566
-0.00427628
-0.00260271
-0.00108161
0.000258214
0.00140478
0.00235628
0.00311961
0.00370002
0.00410094
0.00419696
0.00412028
0.00391848
0.00365781
0.00336268
0.00302627
0.00266519
0.00223016
0.00175676
0.00117471
0.00060305
7.1554e-05
8.53611e-06
0.011127
0.00797693
0.0045854
0.00425908
0.00501504
0.00560809
0.00590928
0.0060192
0.00604432
0.00600455
0.00583705
0.00543693
0.00466656
0.00343591
0.00153068
-0.00123559
-0.00496665
-0.00942883
-0.012294
-0.0133584
-0.0131991
-0.0124919
-0.011848
-0.0117098
-0.0116622
-0.0117055
-0.0120073
-0.0126067
-0.0133804
-0.0142027
-0.0148899
-0.0152433
-0.015096
-0.014375
-0.0131076
-0.0113792
-0.00933259
-0.00716681
-0.00506283
-0.00312994
-0.00142223
3.88872e-05
0.0012546
0.00222754
0.00294324
0.00338113
0.00355696
0.00351113
0.00333818
0.00312645
0.00289576
0.00265034
0.00238612
0.00210242
0.00176658
0.00138879
0.000925775
0.000440884
-1.78734e-05
-5.49875e-05
0.0121211
0.00858679
0.00489994
0.00475003
0.00563523
0.00628488
0.00664275
0.0068461
0.00700571
0.00712631
0.00714001
0.00689232
0.00622593
0.00488125
0.00261949
-0.00138512
-0.00634852
-0.015674
-0.0199664
-0.0203172
-0.0179474
-0.0148657
-0.012433
-0.0123327
-0.0120864
-0.0118657
-0.0122043
-0.0129479
-0.0139281
-0.0149941
-0.0159932
-0.0167304
-0.016969
-0.0164735
-0.0151956
-0.0132849
-0.0109738
-0.00850526
-0.00610146
-0.00392196
-0.00204283
-0.000478888
0.000763298
0.0016519
0.00217171
0.00237923
0.00238468
0.00231716
0.00213979
0.00200551
0.00188292
0.00175981
0.00162069
0.00145571
0.00123919
0.000968554
0.000655894
0.000254603
-8.37564e-05
-0.000105985
0.0129992
0.00911157
0.00522262
0.00516622
0.00617146
0.00690752
0.00734364
0.00766006
0.00797788
0.00831151
0.00858138
0.0086311
0.00827316
0.00707666
0.00478702
-0.00237443
-0.00795228
-0.0150809
-0.0130557
-0.0125278
-0.0119874
-0.0118801
-0.0122003
-0.0129424
-0.0139908
-0.015211
-0.0164412
-0.0174747
-0.018017
-0.0178115
-0.0167403
-0.0148847
-0.0124867
-0.00985545
-0.00727748
-0.00495093
-0.00297277
-0.00139642
-0.000269769
0.000400062
0.000686206
0.00073617
0.000675152
0.000594807
0.000633371
0.000689573
0.000754805
0.000808595
0.000832896
0.000817736
0.000743121
0.000605371
0.000419424
0.000132748
-9.90135e-05
-0.000149055
0.0137393
0.00954473
0.00550384
0.00551425
0.00662626
0.00745248
0.00797555
0.00841388
0.00890262
0.00948355
0.0100644
0.010565
0.0107068
0.0102143
0.00815353
0.0024739
-0.0120247
-0.0118891
-0.012215
-0.0129267
-0.0139455
-0.0151786
-0.0164778
-0.0176221
-0.018345
-0.0183633
-0.0175211
-0.0158463
-0.013562
-0.0109897
-0.00844209
-0.00613535
-0.00422715
-0.00282056
-0.00192501
-0.00146254
-0.00134832
-0.00136914
-0.0013477
-0.00124924
-0.00102161
-0.00072966
-0.000425988
-0.000151819
6.96228e-05
0.000229488
0.000320865
0.000334337
0.000281991
0.000109363
-9.09585e-05
-0.00018009
0.01432
0.00987831
0.00572727
0.00579118
0.00699171
0.00789409
0.00849996
0.00905026
0.00970911
0.0105283
0.0114515
0.0124278
0.0132312
0.0137397
0.0122304
0.00877924
-0.0119163
-0.0117675
-0.0121041
-0.0127161
-0.013617
-0.014744
-0.0159737
-0.0171125
-0.0178949
-0.018055
-0.0174369
-0.0160313
-0.0140186
-0.0116976
-0.00938211
-0.00731336
-0.00567529
-0.00454149
-0.00392597
-0.00374615
-0.00373272
-0.00370717
-0.00355551
-0.00325347
-0.00277181
-0.00219514
-0.0016096
-0.00107863
-0.000633549
-0.000280588
-3.04113e-05
0.000128339
0.000210159
0.000147844
-3.16351e-05
-0.000162119
0.0147241
0.0101077
0.0058843
0.00598785
0.00725116
0.00820942
0.00887966
0.00951809
0.0103152
0.0113293
0.0125531
0.0139379
0.015398
0.0166921
0.0169362
-0.0116676
-0.0117507
-0.0122037
-0.0129263
-0.0138437
-0.0148631
-0.0158213
-0.0165151
-0.0167123
-0.0162803
-0.0151803
-0.0135424
-0.0116322
-0.00975502
-0.00812953
-0.00692824
-0.0062659
-0.00606238
-0.00607639
-0.00612382
-0.00607952
-0.00581611
-0.00525877
-0.00448041
-0.00358696
-0.00269953
-0.00190267
-0.00123024
-0.000665803
-0.000259887
-3.47655e-05
0.000159104
0.000240615
9.97018e-05
-9.56129e-05
0.0149396
0.0102294
0.00596877
0.0060948
0.00739116
0.00838094
0.0090868
0.00977703
0.0106511
0.0117818
0.0131767
0.0148277
0.0167004
0.0186451
0.0200943
-0.0110085
-0.0111131
-0.0114356
-0.0119433
-0.0125812
-0.0132721
-0.013896
-0.014289
-0.0143731
-0.0140125
-0.0131907
-0.0120113
-0.0106794
-0.00943771
-0.00850195
-0.00793937
-0.00776383
-0.00789974
-0.00812381
-0.00829828
-0.00821774
-0.00780245
-0.0070116
-0.00594266
-0.00474357
-0.00357437
-0.00254183
-0.00166996
-0.000930318
-0.000396868
-4.24677e-05
0.000201077
0.000317136
0.000240956
-1.81857e-05
0.0149598
0.0102411
0.00597733
0.00610571
0.00740533
0.0083982
0.00910733
0.00980178
0.0106813
0.0118193
0.0132236
0.014888
0.0167796
0.0187583
0.0202527
-0.0102015
-0.0103417
-0.0105562
-0.0108455
-0.0111841
-0.0115157
-0.0117756
-0.0118669
-0.0117531
-0.0113888
-0.0107966
-0.0100641
-0.00933139
-0.00876633
-0.00848849
-0.00847006
-0.00881863
-0.00933066
-0.00978283
-0.0100275
-0.0099032
-0.00932198
-0.00831522
-0.00699737
-0.00554897
-0.00416219
-0.00295629
-0.00191932
-0.00107071
-0.000466718
-1.57629e-05
0.000268243
0.00041099
0.000361151
3.67725e-05
0.014784
0.0101425
0.00590965
0.00602012
0.00729305
0.00826048
0.00894028
0.00959122
0.0104044
0.01144
0.0126908
0.0141136
0.0156254
0.0170048
0.0174193
-0.00951961
-0.00964825
-0.00972796
-0.00978274
-0.00981252
-0.00979802
-0.00971378
-0.00952922
-0.00923694
-0.00886026
-0.0084511
-0.00809745
-0.00788109
-0.00787032
-0.00813768
-0.0087741
-0.00952212
-0.0102804
-0.0108947
-0.0111588
-0.0109572
-0.0102447
-0.0090681
-0.00757307
-0.00595975
-0.00443904
-0.00313791
-0.00201231
-0.00112681
-0.000452555
2.92514e-05
0.000336739
0.000484239
0.000446213
7.24796e-05
0.0144171
0.0099352
0.00576847
0.0058433
0.00705958
0.00797674
0.00859816
0.00916842
0.00985354
0.0107069
0.0116749
0.0127109
0.013603
0.0142352
0.0130013
0.00988336
-0.00908711
-0.00924111
-0.00915198
-0.00904382
-0.00885412
-0.00857926
-0.00821941
-0.00780998
-0.00737143
-0.00693056
-0.00653936
-0.00626793
-0.00621114
-0.00645242
-0.00707115
-0.00786243
-0.00883679
-0.00987764
-0.0107868
-0.0114363
-0.0116507
-0.0113684
-0.0105464
-0.00925723
-0.00766994
-0.00598766
-0.00443762
-0.00311758
-0.00198613
-0.00108521
-0.000409354
7.20869e-05
0.00038254
0.000517546
0.000486527
9.88385e-05
0.0138693
0.00962205
0.00555931
0.00558379
0.00671731
0.00756321
0.00810722
0.00857175
0.00909577
0.00972158
0.0103627
0.0109413
0.0111975
0.0108662
0.00906703
0.00387895
-0.00907065
-0.00900748
-0.0088049
-0.00850704
-0.00809334
-0.00757066
-0.00696547
-0.00630127
-0.00566564
-0.00512542
-0.00476716
-0.00468613
-0.00492681
-0.00551185
-0.00643412
-0.00757018
-0.00876871
-0.00989656
-0.0108153
-0.0114046
-0.0115703
-0.0111997
-0.0102932
-0.0089505
-0.00735331
-0.00571679
-0.00422589
-0.00293085
-0.00187252
-0.0010187
-0.000371339
9.02366e-05
0.000389221
0.000502694
0.000475905
0.000120897
0.0131564
0.00920692
0.00529023
0.00525007
0.00628169
0.00704174
0.00750301
0.00785075
0.0082103
0.00859764
0.0089376
0.00908048
0.00885048
0.00783877
0.00580514
-0.000724754
-0.00574562
-0.012201
-0.00983548
-0.00949886
-0.00916777
-0.00895527
-0.00856442
-0.0080818
-0.00747373
-0.00675881
-0.00597714
-0.00520751
-0.00452412
-0.00399425
-0.00371211
-0.00376764
-0.00420452
-0.00500522
-0.0060898
-0.00731831
-0.00853769
-0.00962974
-0.0104919
-0.0110042
-0.011054
-0.010574
-0.00960661
-0.00827639
-0.00676096
-0.00524298
-0.00386723
-0.00270095
-0.00173052
-0.00095055
-0.000353614
7.22697e-05
0.000352245
0.000447053
0.000420857
0.000131301
0.0122989
0.00869695
0.00497718
0.00484461
0.00575982
0.00643683
0.0068229
0.00706094
0.00726643
0.00744589
0.00753559
0.00738603
0.0068523
0.00568374
0.00367123
5.13395e-05
-0.00438885
-0.0126833
-0.0161486
-0.016014
-0.0136356
-0.011077
-0.00941522
-0.00949002
-0.00926617
-0.00889126
-0.00837377
-0.00773356
-0.00698022
-0.00613916
-0.00527582
-0.00446763
-0.00383327
-0.0033852
-0.00321078
-0.00338361
-0.00392364
-0.00478979
-0.00588436
-0.00706876
-0.00821099
-0.00919961
-0.00991734
-0.0102736
-0.0101897
-0.00961876
-0.00863897
-0.00739726
-0.00603882
-0.00470614
-0.00349556
-0.00245414
-0.00159172
-0.000899371
-0.000363713
1.85216e-05
0.000275679
0.000363167
0.000337082
0.000117634
0.0113179
0.00809751
0.00466974
0.00436046
0.00514857
0.00577107
0.0061023
0.00624834
0.0063212
0.00634165
0.00625164
0.00594725
0.00530283
0.0042288
0.00253342
5.37172e-05
-0.00329041
-0.00724361
-0.00961974
-0.0103626
-0.0100851
-0.00943092
-0.00892706
-0.00881551
-0.00863143
-0.00830703
-0.00782661
-0.00719716
-0.00644656
-0.00564232
-0.00484192
-0.00412061
-0.00355434
-0.00320618
-0.0031278
-0.00337443
-0.00394169
-0.00477663
-0.00578501
-0.00683217
-0.00780652
-0.00861856
-0.00915245
-0.0092851
-0.00901735
-0.00841992
-0.00755472
-0.00648919
-0.00533874
-0.00421256
-0.00317879
-0.0022735
-0.00150963
-0.000889303
-0.000403632
-5.88288e-05
0.00017463
0.000262591
0.000241748
7.91324e-05
0.0102272
0.00741079
0.00439121
0.00380429
0.00446014
0.00507186
0.00536959
0.00544349
0.00541488
0.00532462
0.00513048
0.00476278
0.00413058
0.00317799
0.00181643
-2.38454e-05
-0.00221632
-0.00448359
-0.00642738
-0.00769094
-0.00822436
-0.00824458
-0.00803667
-0.0078222
-0.00762291
-0.00735777
-0.00697336
-0.00646743
-0.00588003
-0.0052201
-0.00456518
-0.00401233
-0.00358368
-0.00333033
-0.0033099
-0.00357156
-0.00408792
-0.004802
-0.00564704
-0.00649327
-0.00723365
-0.00777403
-0.0080635
-0.00805853
-0.00777196
-0.00725856
-0.00652807
-0.00564207
-0.00471009
-0.0037963
-0.00294074
-0.00217305
-0.00150696
-0.000951002
-0.000500522
-0.000171064
5.60477e-05
0.000155208
0.000153099
3.44318e-05
0.00904607
0.00668777
0.00392335
0.00326607
0.003809
0.00437082
0.00463375
0.0046579
0.00456496
0.0044079
0.00416883
0.00379112
0.00322082
0.0024022
0.00132593
-3.71886e-05
-0.00155902
-0.00318396
-0.00476053
-0.00596985
-0.00661597
-0.0068123
-0.00671693
-0.00654107
-0.00636775
-0.00616981
-0.00590088
-0.00554314
-0.00511666
-0.00464621
-0.00419246
-0.00382063
-0.00352788
-0.00337823
-0.00344527
-0.00370049
-0.0041207
-0.00467298
-0.00529674
-0.00591484
-0.00643302
-0.00679457
-0.00696038
-0.0069374
-0.00670812
-0.00625351
-0.00562005
-0.00489948
-0.00415671
-0.00343016
-0.00273944
-0.0021075
-0.00154622
-0.00106491
-0.000659219
-0.000342722
-0.000106572
2.39109e-05
6.67754e-05
6.75028e-06
0.00777929
0.00587133
0.00340747
0.00274952
0.00317875
0.00366877
0.00389802
0.00389509
0.00377166
0.00358493
0.00333805
0.00298378
0.00249194
0.00181633
0.000972868
-4.86757e-05
-0.00118749
-0.00240509
-0.00358276
-0.00453425
-0.00510777
-0.00531929
-0.00530929
-0.00522634
-0.0051259
-0.00500388
-0.00483434
-0.00460348
-0.00432497
-0.00401967
-0.00373379
-0.00352169
-0.00337711
-0.00332524
-0.00340337
-0.00362446
-0.003953
-0.00437529
-0.00483348
-0.00527951
-0.00566346
-0.00593706
-0.00606715
-0.00603163
-0.00581457
-0.00542624
-0.0049153
-0.00432828
-0.00371281
-0.00311216
-0.00253947
-0.00200887
-0.00153477
-0.00112921
-0.000785965
-0.000509526
-0.000292187
-0.000142566
-5.377e-05
-3.23834e-05
0.00645604
0.00497718
0.00286059
0.00223879
0.00255528
0.00296907
0.00317051
0.00315928
0.00303004
0.00284143
0.00260927
0.00229996
0.00189289
0.001357
0.000703311
-6.60414e-05
-0.000918735
-0.00180614
-0.00264415
-0.00333001
-0.00378486
-0.00401076
-0.00407495
-0.00405732
-0.00400473
-0.00393191
-0.00382962
-0.00369207
-0.00353262
-0.00335921
-0.00319608
-0.00311348
-0.00312036
-0.00316036
-0.00325875
-0.00345174
-0.00372653
-0.00405482
-0.00440257
-0.004734
-0.00502345
-0.00523673
-0.00534315
-0.00531335
-0.00514901
-0.00486689
-0.00447871
-0.00400397
-0.00347154
-0.00293069
-0.00241394
-0.00192961
-0.00149001
-0.00111085
-0.000791866
-0.000535793
-0.000339284
-0.00020718
-0.000119554
-9.24927e-05
0.00510498
0.00400169
0.00227803
0.00172046
0.00193434
0.00227507
0.00245489
0.00244845
0.00233057
0.00215983
0.00195859
0.00170692
0.00138773
0.000981305
0.000492081
-7.12292e-05
-0.00068337
-0.00130364
-0.00187967
-0.00235937
-0.00270539
-0.00291093
-0.00300249
-0.00302053
-0.00300175
-0.00296457
-0.00290382
-0.00282791
-0.00274687
-0.00268017
-0.00264278
-0.00260154
-0.0026254
-0.00275109
-0.00291689
-0.00311075
-0.00336145
-0.0036607
-0.00397969
-0.00429081
-0.00455927
-0.0047609
-0.00487876
-0.0049077
-0.00483858
-0.00466193
-0.00439042
-0.00404114
-0.00362495
-0.00316307
-0.00269478
-0.00223192
-0.00178008
-0.00135362
-0.000975051
-0.000646329
-0.000373416
-0.000163196
-2.5308e-05
1.5827e-06
0.00377343
0.00297235
0.00167569
0.00120029
0.00132261
0.00158976
0.00174736
0.00175165
0.0016576
0.00152007
0.00136334
0.00117744
0.000948192
0.000662953
0.000323743
-5.94912e-05
-0.000467566
-0.000874628
-0.00125089
-0.00157087
-0.00181472
-0.00197271
-0.00205643
-0.0020828
-0.00207769
-0.00206488
-0.00203411
-0.0020006
-0.00196352
-0.00194804
-0.00213021
-0.00248819
-0.00274099
-0.00295929
-0.00321801
-0.00351502
-0.00382308
-0.00412208
-0.004399
-0.0046399
-0.00482874
-0.00495387
-0.00500598
-0.00497825
-0.00487434
-0.0047032
-0.00447762
-0.00421892
-0.00393605
-0.00363475
-0.0033125
-0.00299176
-0.00266839
-0.00234469
-0.00201135
-0.00168087
-0.00135441
-0.00102861
-0.000669459
-0.000292284
0.00216062
0.00190043
0.00109391
0.000709078
0.000747185
0.000926926
0.00104707
0.00105883
0.000997034
0.000905185
0.000804073
0.000689618
0.000551509
0.000382312
0.000183053
-3.75873e-05
-0.000270065
-0.000501627
-0.000715569
-0.0008998
-0.00104378
-0.00114033
-0.00119489
-0.00121335
-0.00121279
-0.00120769
-0.00120486
-0.00122471
-0.00119188
-0.00112793
-0.00109185
-0.00104977
-0.00105279
-0.00103219
-0.000976019
-0.000926562
-0.000901409
-0.000890934
-0.000883398
-0.000869197
-0.000837524
-0.000777879
-0.000683562
-0.000552527
-0.000385879
-0.000188964
2.75048e-05
0.000250195
0.000463063
0.000654504
0.000806323
0.0009091
0.000956598
0.000956287
0.000904532
0.000816749
0.000703357
0.00057002
0.00040969
0.000196001
0.000689361
0.000686518
0.000410833
0.000238042
0.000231121
0.000299082
0.000351764
0.000360329
0.000337368
0.000302744
0.000266235
0.00022709
0.000180413
0.000124276
5.7627e-05
-1.35703e-05
-8.7808e-05
-0.000164005
-0.000233779
-0.000294959
-0.000341557
-0.000374441
-0.000393516
-0.000395472
-0.000401568
-0.000392582
-0.000399935
-0.00045329
-0.000438578
-0.000684706
-0.00179479
-0.00304269
-0.00406996
-0.0049789
-0.00591671
-0.00691106
-0.00794297
-0.00899579
-0.0100537
-0.0110933
-0.0120832
-0.0129839
-0.013753
-0.0143507
-0.01474
-0.0148894
-0.0147819
-0.0144138
-0.0138006
-0.0129568
-0.0119202
-0.0107236
-0.00942128
-0.00804918
-0.00667975
-0.00532891
-0.00405622
-0.00284818
-0.00175195
-0.00068438
)
;

boundaryField
{
    upstream
    {
        type            fixedValue;
        value           uniform 0;
    }
    downstream
    {
        type            fixedValue;
        value           uniform 0;
    }
    upANDdown
    {
        type            fixedValue;
        value           uniform 0;
    }
    frontAndBack
    {
        type            empty;
    }
    cylinder
    {
        type            zeroGradient;
    }
}


// ************************************************************************* //
