/*--------------------------------*- C++ -*----------------------------------*\
| =========                 |                                                 |
| \\      /  F ield         | OpenFOAM: The Open Source CFD Toolbox           |
|  \\    /   O peration     | Version:  2.3.0                                 |
|   \\  /    A nd           | Web:      www.OpenFOAM.org                      |
|    \\/     M anipulation  |                                                 |
\*---------------------------------------------------------------------------*/
FoamFile
{
    version     2.0;
    format      ascii;
    class       surfaceScalarField;
    location    "15";
    object      phi;
}
// * * * * * * * * * * * * * * * * * * * * * * * * * * * * * * * * * * * * * //

dimensions      [0 3 -1 0 0 0 0];

internalField   nonuniform List<scalar> 
3330
(
1.99253e-07
-3.56528e-09
1.99179e-07
-1.08779e-08
1.98544e-07
-1.48704e-08
1.97943e-07
-1.71567e-08
1.97655e-07
-1.94326e-08
1.97512e-07
-2.21952e-08
1.9737e-07
-2.54439e-08
1.97195e-07
-2.88065e-08
1.97036e-07
-3.20435e-08
1.96924e-07
-3.49581e-08
1.96895e-07
-3.754e-08
1.96962e-07
-3.97566e-08
1.97158e-07
-4.15265e-08
1.97488e-07
-4.28005e-08
1.97993e-07
-4.3372e-08
1.98625e-07
-4.31523e-08
1.99404e-07
-4.22436e-08
2.00316e-07
-4.03556e-08
2.01302e-07
-3.75785e-08
2.02319e-07
-3.39282e-08
2.03233e-07
-2.9467e-08
2.04049e-07
-2.43212e-08
2.04859e-07
-1.85982e-08
2.06962e-07
-1.33949e-08
2.12182e-07
-7.90949e-09
2.17514e-07
-4.25785e-10
2.20997e-07
4.34017e-09
2.23504e-07
8.42246e-09
2.25034e-07
1.23634e-08
2.25436e-07
1.61577e-08
2.24685e-07
1.96276e-08
2.22919e-07
2.2564e-08
2.20248e-07
2.49168e-08
2.16698e-07
2.66982e-08
2.12381e-07
2.78045e-08
2.07325e-07
2.82773e-08
2.01802e-07
2.78379e-08
1.95886e-07
2.67112e-08
1.89996e-07
2.46083e-08
1.84141e-07
2.20374e-08
1.79058e-07
1.84027e-08
1.74756e-07
1.45548e-08
1.71704e-07
1.0279e-08
1.7088e-07
5.1463e-09
1.71071e-07
1.34506e-09
1.74532e-07
-3.68367e-09
1.79771e-07
-9.17735e-09
1.84145e-07
-1.57408e-08
1.87944e-07
-2.19356e-08
1.91234e-07
-2.75288e-08
1.94509e-07
-3.22239e-08
1.97813e-07
-3.59673e-08
2.01327e-07
-3.81261e-08
2.04807e-07
-3.91315e-08
2.08422e-07
-3.82355e-08
2.11576e-07
-3.55827e-08
2.14793e-07
-3.21855e-08
2.17255e-07
-2.53547e-08
2.19163e-07
-2.12748e-08
-1.13569e-08
1.9855e-07
-5.76521e-09
1.98044e-07
-1.0372e-08
1.96845e-07
-1.36706e-08
1.95963e-07
-1.62754e-08
1.95543e-07
-1.90121e-08
1.95352e-07
-2.20042e-08
1.95269e-07
-2.53608e-08
1.95165e-07
-2.87026e-08
1.95128e-07
-3.20072e-08
1.95179e-07
-3.50092e-08
1.95447e-07
-3.78072e-08
1.95924e-07
-4.02335e-08
1.9669e-07
-4.22929e-08
1.97723e-07
-4.38334e-08
1.99032e-07
-4.46815e-08
2.00668e-07
-4.47874e-08
2.02413e-07
-4.39892e-08
2.0428e-07
-4.22223e-08
2.06189e-07
-3.9488e-08
2.07998e-07
-3.57364e-08
2.09643e-07
-3.11126e-08
2.11181e-07
-2.58592e-08
2.12965e-07
-2.03825e-08
2.14246e-07
-1.46754e-08
2.14422e-07
-8.08535e-09
2.16365e-07
-2.36915e-09
2.17968e-07
2.73753e-09
2.1849e-07
7.90019e-09
2.18617e-07
1.22365e-08
2.18778e-07
1.59964e-08
2.18791e-07
1.96152e-08
2.18103e-07
2.32518e-08
2.16573e-07
2.64463e-08
2.14215e-07
2.90564e-08
2.11294e-07
3.07253e-08
2.07914e-07
3.16579e-08
2.04242e-07
3.15097e-08
2.00437e-07
3.0516e-08
1.96701e-07
2.83446e-08
1.93233e-07
2.55054e-08
1.90216e-07
2.14192e-08
1.87785e-07
1.69865e-08
1.86188e-07
1.18755e-08
1.85447e-07
5.88754e-09
1.86378e-07
4.14118e-10
1.86392e-07
-3.69819e-09
1.86798e-07
-9.58246e-09
1.87679e-07
-1.66227e-08
1.89314e-07
-2.35702e-08
1.91665e-07
-2.98793e-08
1.94681e-07
-3.52398e-08
1.98259e-07
-3.95453e-08
2.02375e-07
-4.22427e-08
2.06635e-07
-4.3391e-08
2.11355e-07
-4.29559e-08
2.15666e-07
-3.98934e-08
2.20385e-07
-3.69043e-08
2.23829e-07
-2.87994e-08
2.27267e-07
-2.47124e-08
-1.3023e-08
1.94522e-07
-6.18606e-09
1.94113e-07
-9.96305e-09
1.93873e-07
-1.34304e-08
1.93439e-07
-1.58412e-08
1.93045e-07
-1.86188e-08
1.92831e-07
-2.17903e-08
1.92792e-07
-2.53215e-08
1.92773e-07
-2.86838e-08
1.92921e-07
-3.21553e-08
1.93199e-07
-3.52869e-08
1.93816e-07
-3.84243e-08
1.94743e-07
-4.11604e-08
1.96078e-07
-4.36278e-08
1.97799e-07
-4.55541e-08
1.99964e-07
-4.68467e-08
2.0245e-07
-4.72736e-08
2.05211e-07
-4.67499e-08
2.0808e-07
-4.50919e-08
2.10861e-07
-4.22691e-08
2.13412e-07
-3.82871e-08
2.15631e-07
-3.33314e-08
2.17524e-07
-2.77522e-08
2.19045e-07
-2.19031e-08
2.20265e-07
-1.58955e-08
2.22136e-07
-9.95681e-09
2.24151e-07
-4.3841e-09
2.2537e-07
1.51843e-09
2.26622e-07
6.6485e-09
2.27277e-07
1.1581e-08
2.26999e-07
1.62748e-08
2.25793e-07
2.08215e-08
2.23956e-07
2.50886e-08
2.21501e-07
2.89007e-08
2.18465e-07
3.20934e-08
2.14746e-07
3.44435e-08
2.10596e-07
3.58083e-08
2.06098e-07
3.60077e-08
2.01509e-07
3.51046e-08
1.96829e-07
3.30251e-08
1.92434e-07
2.99004e-08
1.88081e-07
2.57715e-08
1.84247e-07
2.08208e-08
1.80858e-07
1.52642e-08
1.77463e-07
9.28283e-09
1.74474e-07
3.40274e-09
1.7474e-07
-3.96361e-09
1.76393e-07
-1.12357e-08
1.78772e-07
-1.90019e-08
1.81676e-07
-2.64739e-08
1.85181e-07
-3.33839e-08
1.89129e-07
-3.91883e-08
1.9354e-07
-4.39561e-08
1.98508e-07
-4.72104e-08
2.03833e-07
-4.87167e-08
2.09899e-07
-4.90214e-08
2.15697e-07
-4.56918e-08
2.22128e-07
-4.33357e-08
2.27385e-07
-3.40565e-08
2.32491e-07
-2.98182e-08
-1.61423e-08
1.92138e-07
-6.32637e-09
1.91931e-07
-9.75597e-09
1.91293e-07
-1.27925e-08
1.90923e-07
-1.54719e-08
1.90564e-07
-1.82595e-08
1.90312e-07
-2.15384e-08
1.90271e-07
-2.52803e-08
1.90266e-07
-2.86789e-08
1.90542e-07
-3.24317e-08
1.90963e-07
-3.57077e-08
1.91918e-07
-3.93789e-08
1.93174e-07
-4.24164e-08
1.95126e-07
-4.55798e-08
1.97523e-07
-4.79515e-08
2.00554e-07
-4.9877e-08
2.04162e-07
-5.08817e-08
2.0808e-07
-5.06678e-08
2.12038e-07
-4.90503e-08
2.15843e-07
-4.60744e-08
2.19129e-07
-4.15726e-08
2.21776e-07
-3.59783e-08
2.23884e-07
-2.98608e-08
2.25646e-07
-2.3665e-08
2.27296e-07
-1.75458e-08
2.2895e-07
-1.16103e-08
2.30352e-07
-5.78587e-09
2.31739e-07
1.31363e-10
2.32627e-07
5.76029e-09
2.32893e-07
1.13146e-08
2.32323e-07
1.6845e-08
2.30922e-07
2.22224e-08
2.28672e-07
2.7339e-08
2.25581e-07
3.19911e-08
2.2168e-07
3.59949e-08
2.17063e-07
3.90606e-08
2.11834e-07
4.1037e-08
2.06131e-07
4.17106e-08
2.0021e-07
4.10255e-08
1.94285e-07
3.89502e-08
1.88606e-07
3.55799e-08
1.83321e-07
3.10563e-08
1.78675e-07
2.54662e-08
1.74788e-07
1.91519e-08
1.72181e-07
1.18894e-08
1.71829e-07
3.75466e-09
1.71553e-07
-3.68731e-09
1.72215e-07
-1.18978e-08
1.73536e-07
-2.03226e-08
1.75336e-07
-2.82737e-08
1.77662e-07
-3.57102e-08
1.80431e-07
-4.19573e-08
1.83837e-07
-4.7362e-08
1.88167e-07
-5.15404e-08
1.93437e-07
-5.39872e-08
2.00231e-07
-5.58155e-08
2.07243e-07
-5.27035e-08
2.15618e-07
-5.17101e-08
2.22956e-07
-4.13944e-08
2.3001e-07
-3.68723e-08
-2.11297e-08
1.89801e-07
-6.28042e-09
1.89597e-07
-9.55251e-09
1.88905e-07
-1.21006e-08
1.88499e-07
-1.50655e-08
1.88063e-07
-1.78237e-08
1.87717e-07
-2.11926e-08
1.87595e-07
-2.51575e-08
1.87523e-07
-2.86079e-08
1.87829e-07
-3.27369e-08
1.88307e-07
-3.61865e-08
1.89505e-07
-4.05766e-08
1.91055e-07
-4.39664e-08
1.93654e-07
-4.81787e-08
1.96737e-07
-5.10344e-08
2.0086e-07
-5.39997e-08
2.05629e-07
-5.56507e-08
2.1098e-07
-5.60196e-08
2.1652e-07
-5.45903e-08
2.21588e-07
-5.11425e-08
2.25574e-07
-4.55579e-08
2.28518e-07
-3.89229e-08
2.30825e-07
-3.21672e-08
2.32765e-07
-2.56054e-08
2.34543e-07
-1.93236e-08
2.36079e-07
-1.3146e-08
2.37287e-07
-6.99406e-09
2.38412e-07
-9.94067e-10
2.39103e-07
5.07002e-09
2.39285e-07
1.11325e-08
2.38747e-07
1.73828e-08
2.37251e-07
2.37186e-08
2.34587e-07
3.00026e-08
2.3064e-07
3.59385e-08
2.25491e-07
4.11435e-08
2.19404e-07
4.51479e-08
2.12748e-07
4.7693e-08
2.0582e-07
4.86388e-08
1.98904e-07
4.79409e-08
1.92219e-07
4.56358e-08
1.85969e-07
4.183e-08
1.80293e-07
3.67316e-08
1.75375e-07
3.03842e-08
1.71384e-07
2.31435e-08
1.68025e-07
1.52482e-08
1.64646e-07
7.13387e-09
1.62799e-07
-1.84061e-09
1.61918e-07
-1.1017e-08
1.61637e-07
-2.00413e-08
1.61483e-07
-2.81202e-08
1.61454e-07
-3.56808e-08
1.61847e-07
-4.23506e-08
1.63339e-07
-4.88538e-08
1.66461e-07
-5.46626e-08
1.71558e-07
-5.90842e-08
1.79072e-07
-6.33294e-08
1.87712e-07
-6.1343e-08
1.98311e-07
-6.23095e-08
2.08687e-07
-5.17709e-08
2.18764e-07
-4.69486e-08
-2.81202e-08
1.87544e-07
-6.10176e-09
1.87225e-07
-9.23371e-09
1.86566e-07
-1.14408e-08
1.86005e-07
-1.45045e-08
1.85443e-07
-1.72625e-08
1.84991e-07
-2.07399e-08
1.84678e-07
-2.48445e-08
1.8447e-07
-2.83996e-08
1.84655e-07
-3.29224e-08
1.85113e-07
-3.66446e-08
1.86455e-07
-4.19181e-08
1.88235e-07
-4.5747e-08
1.91554e-07
-5.14973e-08
1.95324e-07
-5.48042e-08
2.00913e-07
-5.95889e-08
2.06828e-07
-6.1566e-08
2.14025e-07
-6.32165e-08
2.21725e-07
-6.22898e-08
2.28313e-07
-5.77311e-08
2.33096e-07
-5.03405e-08
2.36634e-07
-4.24609e-08
2.3885e-07
-3.43833e-08
2.40253e-07
-2.70084e-08
2.41298e-07
-2.03688e-08
2.42088e-07
-1.39359e-08
2.42808e-07
-7.71348e-09
2.43567e-07
-1.75364e-09
2.44202e-07
4.43497e-09
2.44421e-07
1.09135e-08
2.43983e-07
1.78216e-08
2.42531e-07
2.51703e-08
2.39765e-07
3.27688e-08
2.35432e-07
4.02716e-08
2.29652e-07
4.69226e-08
2.22593e-07
5.22071e-08
2.14595e-07
5.56912e-08
2.06122e-07
5.71118e-08
1.97625e-07
5.64379e-08
1.89406e-07
5.38545e-08
1.81689e-07
4.95476e-08
1.74634e-07
4.37864e-08
1.68287e-07
3.67309e-08
1.62584e-07
2.88464e-08
1.57641e-07
2.0192e-08
1.53846e-07
1.09289e-08
1.50763e-07
1.24212e-09
1.47693e-07
-7.94724e-09
1.44065e-07
-1.64131e-08
1.39868e-07
-2.39232e-08
1.35941e-07
-3.17538e-08
1.3344e-07
-3.98497e-08
1.33404e-07
-4.88176e-08
1.36225e-07
-5.74841e-08
1.42011e-07
-6.48702e-08
1.5073e-07
-7.20481e-08
1.61233e-07
-7.18462e-08
1.73386e-07
-7.4462e-08
1.85997e-07
-6.43818e-08
1.98018e-07
-5.89699e-08
-3.71068e-08
1.85351e-07
-5.78316e-09
1.84832e-07
-8.71453e-09
1.84165e-07
-1.07739e-08
1.83394e-07
-1.37329e-08
1.82707e-07
-1.65757e-08
1.82132e-07
-2.01649e-08
1.815e-07
-2.42126e-08
1.81073e-07
-2.79723e-08
1.80913e-07
-3.27623e-08
1.81316e-07
-3.70477e-08
1.825e-07
-4.31027e-08
1.84583e-07
-4.78298e-08
1.88322e-07
-5.52362e-08
1.93114e-07
-5.9596e-08
2.00907e-07
-6.73823e-08
2.08132e-07
-6.87913e-08
2.17689e-07
-7.2773e-08
2.27943e-07
-7.25438e-08
2.36057e-07
-6.58456e-08
2.40822e-07
-5.51047e-08
2.43203e-07
-4.48419e-08
2.43391e-07
-3.4572e-08
2.43256e-07
-2.68729e-08
2.43364e-07
-2.04774e-08
2.43153e-07
-1.37248e-08
2.42972e-07
-7.53262e-09
2.43324e-07
-2.10541e-09
2.43876e-07
3.88313e-09
2.44194e-07
1.05958e-08
2.43938e-07
1.80771e-08
2.42642e-07
2.64664e-08
2.40061e-07
3.53496e-08
2.36027e-07
4.43059e-08
2.3021e-07
5.27397e-08
2.22647e-07
5.97696e-08
2.1379e-07
6.45489e-08
2.04172e-07
6.67291e-08
1.94303e-07
6.63072e-08
1.84576e-07
6.35813e-08
1.75318e-07
5.88055e-08
1.66709e-07
5.23959e-08
1.58771e-07
4.46687e-08
1.51699e-07
3.59187e-08
1.457e-07
2.61908e-08
1.40236e-07
1.6393e-08
1.33904e-07
7.57373e-09
1.25683e-07
2.74043e-10
1.16732e-07
-7.46251e-09
1.08466e-07
-1.56571e-08
1.02866e-07
-2.61531e-08
1.01111e-07
-3.80953e-08
1.03114e-07
-5.08207e-08
1.08174e-07
-6.25437e-08
1.15735e-07
-7.24316e-08
1.25347e-07
-8.16598e-08
1.36945e-07
-8.34442e-08
1.49227e-07
-8.67438e-08
1.62545e-07
-7.77e-08
1.75087e-07
-7.15117e-08
-4.66292e-08
1.83363e-07
-5.40879e-09
1.82664e-07
-8.01527e-09
1.81456e-07
-9.56621e-09
1.80583e-07
-1.28591e-08
1.79933e-07
-1.59259e-08
1.79146e-07
-1.93785e-08
1.78068e-07
-2.31338e-08
1.77275e-07
-2.71795e-08
1.76582e-07
-3.20696e-08
1.76721e-07
-3.71869e-08
1.77441e-07
-4.38226e-08
1.79764e-07
-5.01524e-08
1.8351e-07
-5.89828e-08
1.89764e-07
-6.58497e-08
1.99569e-07
-7.71867e-08
2.11053e-07
-8.02761e-08
2.2353e-07
-8.52494e-08
2.35271e-07
-8.42854e-08
2.41723e-07
-7.22974e-08
2.43269e-07
-5.66509e-08
2.42438e-07
-4.40102e-08
2.39578e-07
-3.17119e-08
2.36496e-07
-2.3791e-08
2.34317e-07
-1.82989e-08
2.31481e-07
-1.08887e-08
2.2949e-07
-5.54206e-09
2.28894e-07
-1.50901e-09
2.2969e-07
3.08691e-09
2.31318e-07
8.96821e-09
2.32955e-07
1.64403e-08
2.33793e-07
2.56278e-08
2.32935e-07
3.62078e-08
2.29956e-07
4.72847e-08
2.24757e-07
5.79389e-08
2.17469e-07
6.70574e-08
2.08264e-07
7.37547e-08
1.97722e-07
7.72708e-08
1.86585e-07
7.74441e-08
1.75551e-07
7.46152e-08
1.65022e-07
6.93346e-08
1.55053e-07
6.23652e-08
1.45837e-07
5.38842e-08
1.37681e-07
4.40745e-08
1.2972e-07
3.41525e-08
1.19988e-07
2.61251e-08
1.07617e-07
1.99446e-08
9.45443e-08
1.33464e-08
8.39159e-08
3.16597e-09
7.82859e-08
-1.00272e-08
7.81019e-08
-2.5969e-08
8.1735e-08
-4.17284e-08
8.73756e-08
-5.64614e-08
9.4152e-08
-6.932e-08
1.01747e-07
-8.00267e-08
1.09905e-07
-8.98179e-08
1.20263e-07
-9.38022e-08
1.30512e-07
-9.6993e-08
1.42495e-07
-8.96827e-08
1.53627e-07
-8.26438e-08
-5.52648e-08
1.8144e-07
-4.91631e-09
1.80156e-07
-6.73141e-09
1.80463e-07
-9.87314e-09
1.79231e-07
-1.16277e-08
1.77507e-07
-1.42012e-08
1.76034e-07
-1.79062e-08
1.74455e-07
-2.15545e-08
1.73126e-07
-2.58504e-08
1.71699e-07
-3.0643e-08
1.71149e-07
-3.66362e-08
1.71034e-07
-4.37081e-08
1.73087e-07
-5.22053e-08
1.76453e-07
-6.23491e-08
1.83932e-07
-7.33284e-08
1.95945e-07
-8.92002e-08
2.13729e-07
-9.80601e-08
2.32773e-07
-1.04292e-07
2.37112e-07
-8.8625e-08
2.34694e-07
-6.98798e-08
2.26931e-07
-4.88873e-08
2.17506e-07
-3.45854e-08
2.0571e-07
-1.99161e-08
1.97996e-07
-1.60772e-08
1.89521e-07
-9.82337e-09
1.82627e-07
-3.99528e-09
1.79442e-07
-2.35711e-09
1.79245e-07
-1.31126e-09
1.82018e-07
3.13178e-10
1.87435e-07
3.55176e-09
1.94367e-07
9.50832e-09
2.01572e-07
1.84225e-08
2.07238e-07
3.05418e-08
2.0967e-07
4.48527e-08
2.08329e-07
5.92798e-08
2.03565e-07
7.18216e-08
1.96081e-07
8.12382e-08
1.86466e-07
8.68866e-08
1.75514e-07
8.83956e-08
1.63971e-07
8.61587e-08
1.52229e-07
8.10767e-08
1.40962e-07
7.36319e-08
1.30687e-07
6.41589e-08
1.20082e-07
5.46794e-08
1.06594e-07
4.76406e-08
9.0119e-08
4.26002e-08
7.43648e-08
3.56988e-08
6.3891e-08
2.38202e-08
6.02418e-08
6.81513e-09
6.22446e-08
-1.203e-08
6.75327e-08
-3.12571e-08
7.4654e-08
-4.88497e-08
8.23267e-08
-6.41341e-08
8.98265e-08
-7.68198e-08
9.68337e-08
-8.7034e-08
1.02777e-07
-9.57616e-08
1.10092e-07
-1.01116e-07
1.17037e-07
-1.03938e-07
1.26487e-07
-9.91324e-08
1.35173e-07
-9.13302e-08
-6.19668e-08
1.79734e-07
-4.35891e-09
1.78749e-07
-5.74661e-09
1.77817e-07
-8.94112e-09
1.76576e-07
-1.03867e-08
1.7486e-07
-1.24855e-08
1.72928e-07
-1.59738e-08
1.70763e-07
-1.93904e-08
1.68642e-07
-2.37284e-08
1.66338e-07
-2.83397e-08
1.64563e-07
-3.48613e-08
1.63077e-07
-4.22215e-08
1.63556e-07
-5.26848e-08
1.66192e-07
-6.49845e-08
1.73662e-07
-8.0799e-08
1.92033e-07
-1.07571e-07
2.07172e-07
-1.13199e-07
2.17332e-07
-1.14453e-07
2.86839e-07
-1.58132e-07
2.1696e-07
1.68072e-07
1.33487e-07
1.13571e-07
8.33246e-08
1.41691e-08
7.68144e-08
-3.3132e-09
7.53491e-08
-2.52994e-09
8.04847e-08
-7.49277e-09
8.95265e-08
-1.0353e-08
1.01301e-07
-1.14613e-08
1.14317e-07
-9.46404e-09
1.27651e-07
-3.82557e-09
1.40908e-07
5.16493e-09
1.53258e-07
1.81916e-08
1.6349e-07
3.46214e-08
1.70019e-07
5.27506e-08
1.71899e-07
6.99419e-08
1.6937e-07
8.37673e-08
1.63287e-07
9.29688e-08
1.54469e-07
9.72139e-08
1.43808e-07
9.68193e-08
1.32583e-07
9.23017e-08
1.21466e-07
8.47487e-08
1.0887e-07
7.67554e-08
9.25859e-08
7.09635e-08
7.37709e-08
6.64557e-08
5.72915e-08
5.90796e-08
4.75424e-08
4.54479e-08
4.54665e-08
2.58962e-08
4.91652e-08
3.11639e-09
5.64873e-08
-1.93521e-08
6.54612e-08
-4.0231e-08
7.46396e-08
-5.80282e-08
8.30642e-08
-7.25587e-08
9.03255e-08
-8.40811e-08
9.6365e-08
-9.30734e-08
1.00772e-07
-1.00169e-07
1.04933e-07
-1.05278e-07
1.08365e-07
-1.0737e-07
1.14117e-07
-1.04884e-07
1.19856e-07
-9.70693e-08
-6.63259e-08
1.78168e-07
-3.68958e-09
1.77177e-07
-4.75508e-09
1.75794e-07
-7.55859e-09
1.74239e-07
-8.83198e-09
1.72338e-07
-1.05842e-08
1.69956e-07
-1.3592e-08
1.67217e-07
-1.66508e-08
1.64147e-07
-2.06584e-08
1.60794e-07
-2.49865e-08
1.57323e-07
-3.13905e-08
1.53855e-07
-3.8754e-08
1.51281e-07
-5.01107e-08
1.50386e-07
-6.40897e-08
1.5394e-07
-8.43524e-08
1.71949e-07
-1.2558e-07
2.72585e-07
-2.13835e-07
1.58132e-07
1.41691e-08
1.08559e-08
1.53523e-08
-7.02624e-09
2.74927e-08
-1.96332e-08
4.08428e-08
-2.37031e-08
5.3891e-08
-2.45095e-08
6.68768e-08
-2.24498e-08
7.99221e-08
-1.68709e-08
9.23931e-08
-7.30607e-09
1.03936e-07
6.64864e-09
1.14143e-07
2.44143e-08
1.22259e-07
4.46353e-08
1.27324e-07
6.48766e-08
1.28704e-07
8.2387e-08
1.26514e-07
9.51591e-08
1.21443e-07
1.02285e-07
1.14364e-07
1.03898e-07
1.05426e-07
1.0124e-07
9.31552e-08
9.70199e-08
7.63418e-08
9.35688e-08
5.73292e-08
8.99761e-08
4.15905e-08
8.21943e-08
3.32829e-08
6.73872e-08
3.27935e-08
4.59373e-08
3.82696e-08
2.04202e-08
4.69024e-08
-5.51643e-09
5.73811e-08
-2.98309e-08
6.80383e-08
-5.08881e-08
7.79036e-08
-6.78935e-08
8.63006e-08
-8.09556e-08
9.28817e-08
-9.06623e-08
9.76171e-08
-9.78088e-08
1.00606e-07
-1.03157e-07
1.0244e-07
-1.07112e-07
1.03674e-07
-1.08605e-07
1.05806e-07
-1.07016e-07
1.08195e-07
-9.9458e-08
-6.81185e-08
1.76825e-07
-2.90561e-09
1.75767e-07
-3.69738e-09
1.74146e-07
-5.93705e-09
1.7227e-07
-6.95578e-09
1.70081e-07
-8.39555e-09
1.67264e-07
-1.07753e-08
1.6393e-07
-1.3317e-08
1.59937e-07
-1.66648e-08
1.55373e-07
-2.04229e-08
1.50065e-07
-2.60825e-08
1.43988e-07
-3.26774e-08
1.37364e-07
-4.3486e-08
1.29374e-07
-5.60999e-08
1.22338e-07
-7.73159e-08
1.09148e-07
-1.1239e-07
-1.04688e-07
1.82891e-09
-8.85516e-09
9.57904e-09
-2.73833e-08
1.88398e-08
-3.29639e-08
2.78259e-08
-3.34955e-08
3.65785e-08
-3.12025e-08
4.53214e-08
-2.56138e-08
5.39413e-08
-1.5926e-08
6.23701e-08
-1.78011e-09
7.02819e-08
1.65024e-08
7.72742e-08
3.76431e-08
8.27097e-08
5.9441e-08
8.59818e-08
7.91149e-08
8.67086e-08
9.44323e-08
8.45915e-08
1.04402e-07
7.89345e-08
1.09555e-07
6.86738e-08
1.115e-07
5.39391e-08
1.11755e-07
3.79233e-08
1.09585e-07
2.55439e-08
1.02356e-07
2.02311e-08
8.75071e-08
2.1755e-08
6.58634e-08
2.85701e-08
3.91222e-08
3.8445e-08
1.05453e-08
4.98253e-08
-1.68968e-08
6.1631e-08
-4.16366e-08
7.29063e-08
-6.21634e-08
8.29206e-08
-7.79078e-08
9.11065e-08
-8.91415e-08
9.70322e-08
-9.6588e-08
1.00438e-07
-1.01215e-07
1.01694e-07
-1.04413e-07
1.0165e-07
-1.07067e-07
1.0137e-07
-1.08326e-07
1.00798e-07
-1.06444e-07
1.00111e-07
-9.87702e-08
-6.75094e-08
1.75766e-07
-2.02812e-09
1.74631e-07
-2.56246e-09
1.72832e-07
-4.1385e-09
1.70729e-07
-4.8526e-09
1.68232e-07
-5.89863e-09
1.65029e-07
-7.57182e-09
1.61133e-07
-9.42154e-09
1.56317e-07
-1.18485e-08
1.50574e-07
-1.46796e-08
1.43458e-07
-1.89662e-08
1.34845e-07
-2.40647e-08
1.24188e-07
-3.28296e-08
1.10494e-07
-4.2405e-08
9.57658e-08
-6.25881e-08
1.04688e-07
-1.21312e-07
-8.85514e-09
6.87139e-10
-3.69256e-08
4.53128e-09
-3.68081e-08
8.02628e-09
-3.69905e-08
1.13244e-08
-3.45006e-08
1.49117e-08
-2.92011e-08
1.903e-08
-2.00442e-08
2.34228e-08
-6.17295e-09
2.86342e-08
1.12911e-08
3.39553e-08
3.23219e-08
3.87252e-08
5.46712e-08
4.21192e-08
7.57209e-08
4.31003e-08
9.34512e-08
4.06315e-08
1.06871e-07
3.42967e-08
1.15889e-07
2.48215e-08
1.20975e-07
1.50522e-08
1.21524e-07
8.92419e-09
1.15713e-07
8.22317e-09
1.03057e-07
1.24784e-08
8.32518e-08
2.08251e-08
5.75167e-08
3.20519e-08
2.78953e-08
4.42779e-08
-1.68069e-09
5.69281e-08
-2.9547e-08
6.92538e-08
-5.39622e-08
8.05096e-08
-7.34192e-08
9.01032e-08
-8.75014e-08
9.76394e-08
-9.66777e-08
1.02854e-07
-1.01803e-07
1.05409e-07
-1.03769e-07
1.05269e-07
-1.04274e-07
1.03028e-07
-1.04826e-07
1.00564e-07
-1.05862e-07
9.77295e-08
-1.03609e-07
9.46543e-08
-9.5695e-08
-6.52885e-08
1.75026e-07
-1.08348e-09
1.73827e-07
-1.36358e-09
1.719e-07
-2.21131e-09
1.69644e-07
-2.59643e-09
1.66912e-07
-3.16723e-09
1.63407e-07
-4.06685e-09
1.59074e-07
-5.08831e-09
1.53628e-07
-6.40223e-09
1.46952e-07
-8.0043e-09
1.38311e-07
-1.03248e-08
1.27564e-07
-1.33173e-08
1.12885e-07
-1.81507e-08
9.46855e-08
-2.42058e-08
6.91307e-08
-3.70332e-08
-5.21814e-08
-4.66456e-09
-3.22611e-08
-5.45457e-09
-3.6018e-08
-7.44902e-09
-3.4996e-08
-9.43223e-09
-3.25174e-08
-1.10872e-08
-2.75461e-08
-1.20193e-08
-1.91121e-08
-1.19883e-08
-6.20391e-09
-1.07563e-08
1.00591e-08
-8.5504e-09
3.0116e-08
-5.93112e-09
5.2052e-08
-3.7783e-09
7.35681e-08
-2.94095e-09
9.26138e-08
-3.74613e-09
1.07676e-07
-5.66138e-09
1.17805e-07
-7.02392e-09
1.22338e-07
-6.06285e-09
1.20563e-07
-1.9771e-09
1.11627e-07
5.23467e-09
9.58448e-08
1.57027e-08
7.27838e-08
2.89245e-08
4.42949e-08
4.28718e-08
1.3948e-08
5.63731e-08
-1.51819e-08
6.94812e-08
-4.26551e-08
8.16329e-08
-6.6114e-08
9.2162e-08
-8.39483e-08
1.00496e-07
-9.58358e-08
1.06481e-07
-1.02662e-07
1.10205e-07
-1.05527e-07
1.11869e-07
-1.05433e-07
1.11091e-07
-1.03496e-07
1.07317e-07
-1.01052e-07
1.0231e-07
-1.00854e-07
9.69984e-08
-9.82978e-08
9.22049e-08
-9.09015e-08
-6.23544e-08
1.7463e-07
-1.01728e-10
1.73393e-07
-1.27225e-10
1.71394e-07
-2.12353e-10
1.69049e-07
-2.51113e-10
1.66191e-07
-3.09354e-10
1.62522e-07
-3.97322e-10
1.57932e-07
-4.9897e-10
1.5215e-07
-6.19925e-10
1.44911e-07
-7.6548e-10
1.35531e-07
-9.44535e-10
1.23382e-07
-1.16822e-09
1.06676e-07
-1.4452e-09
8.42826e-08
-1.81223e-09
4.9525e-08
-2.27561e-09
-2.6564e-09
-5.43332e-09
-2.68277e-08
-1.13247e-08
-3.01267e-08
-1.74587e-08
-2.88619e-08
-2.31142e-08
-2.68619e-08
-2.82075e-08
-2.24528e-08
-3.26504e-08
-1.46692e-08
-3.59307e-08
-2.92362e-09
-3.79853e-08
1.21137e-08
-3.85348e-08
3.06655e-08
-3.75828e-08
5.11e-08
-3.54162e-08
7.14015e-08
-3.23468e-08
8.95444e-08
-2.85383e-08
1.03868e-07
-2.3794e-08
1.1306e-07
-1.7712e-08
1.16256e-07
-9.86591e-09
1.12717e-07
-9.18558e-11
1.01853e-07
1.36962e-08
8.20567e-08
3.00643e-08
5.64158e-08
4.63026e-08
2.80566e-08
6.10236e-08
-7.72958e-10
7.5006e-08
-2.91643e-08
8.76729e-08
-5.5322e-08
9.86875e-08
-7.71286e-08
1.07647e-07
-9.29077e-08
1.14061e-07
-1.0225e-07
1.17873e-07
-1.06475e-07
1.19665e-07
-1.07319e-07
1.19949e-07
-1.05717e-07
1.17698e-07
-1.01245e-07
1.12549e-07
-9.59033e-08
1.05921e-07
-9.42256e-08
9.89443e-08
-9.13213e-08
9.2912e-08
-8.48693e-08
-5.88542e-08
1.74591e-07
8.8483e-10
1.73349e-07
1.11452e-09
1.71341e-07
1.79532e-09
1.68986e-07
2.10469e-09
1.66115e-07
2.56157e-09
1.62427e-07
3.29026e-09
1.57817e-07
4.11159e-09
1.52007e-07
5.18982e-09
1.44735e-07
6.50597e-09
1.35317e-07
8.47413e-09
1.23118e-07
1.10301e-08
1.06371e-07
1.53023e-08
8.38769e-08
2.06817e-08
4.91704e-08
3.2431e-08
4.65139e-08
-5.72889e-09
-2.10988e-08
-1.44818e-08
-2.13737e-08
-2.27327e-08
-2.06111e-08
-3.00671e-08
-1.95274e-08
-3.63476e-08
-1.61724e-08
-4.16017e-08
-9.41507e-09
-4.54066e-08
8.81293e-10
-4.78753e-08
1.45825e-08
-4.85017e-08
3.12919e-08
-4.71237e-08
4.9722e-08
-4.38483e-08
6.81261e-08
-3.89358e-08
8.46319e-08
-3.25098e-08
9.74419e-08
-2.45659e-08
1.05116e-07
-1.49125e-08
1.06603e-07
-1.79182e-09
9.95961e-08
1.60043e-08
8.40568e-08
3.56282e-08
6.24327e-08
5.40494e-08
3.79945e-08
7.04583e-08
1.16477e-08
8.52773e-08
-1.55919e-08
9.84676e-08
-4.23546e-08
1.09705e-07
-6.65597e-08
1.18659e-07
-8.60822e-08
1.25163e-07
-9.94122e-08
1.29076e-07
-1.06162e-07
1.30491e-07
-1.0789e-07
1.30415e-07
-1.07242e-07
1.28404e-07
-1.03706e-07
1.24643e-07
-9.74841e-08
1.18993e-07
-9.0254e-08
1.11435e-07
-8.66671e-08
1.03179e-07
-8.30658e-08
9.60798e-08
-7.77697e-08
-5.48342e-08
1.74912e-07
1.84363e-09
1.73697e-07
2.32938e-09
1.71744e-07
3.74838e-09
1.69457e-07
4.3919e-09
1.66687e-07
5.33158e-09
1.63129e-07
6.84731e-09
1.58733e-07
8.50778e-09
1.53204e-07
1.07187e-08
1.46431e-07
1.32793e-08
1.37675e-07
1.72305e-08
1.26773e-07
2.19322e-08
1.11954e-07
3.0121e-08
9.35166e-08
3.9119e-08
6.77647e-08
5.81829e-08
1.14279e-07
-6.1862e-09
-1.49126e-08
-1.52101e-08
-1.23498e-08
-2.34629e-08
-1.23582e-08
-3.09766e-08
-1.20136e-08
-3.74235e-08
-9.72546e-09
-4.24941e-08
-4.34449e-09
-4.5869e-08
4.25628e-09
-4.75757e-08
1.62892e-08
-4.74105e-08
3.11267e-08
-4.52221e-08
4.75336e-08
-4.09355e-08
6.38395e-08
-3.45133e-08
7.82096e-08
-2.56405e-08
8.85692e-08
-1.35166e-08
9.29926e-08
3.44448e-09
8.96416e-08
2.42677e-08
7.87729e-08
4.59331e-08
6.23914e-08
6.5755e-08
4.26109e-08
8.34118e-08
2.03377e-08
9.90724e-08
-4.01292e-09
1.12754e-07
-2.92738e-08
1.24352e-07
-5.39519e-08
1.33535e-07
-7.57436e-08
1.39945e-07
-9.24915e-08
1.43485e-07
-1.02953e-07
1.44529e-07
-1.07206e-07
1.43936e-07
-1.07297e-07
1.41548e-07
-1.04854e-07
1.36967e-07
-9.91249e-08
1.31931e-07
-9.24486e-08
1.25896e-07
-8.42185e-08
1.18002e-07
-7.87738e-08
1.09044e-07
-7.4108e-08
1.01209e-07
-6.99338e-08
-5.03024e-08
1.75582e-07
2.74381e-09
1.74421e-07
3.49029e-09
1.7258e-07
5.58902e-09
1.70427e-07
6.54487e-09
1.67866e-07
7.89219e-09
1.6458e-07
1.01334e-08
1.6058e-07
1.25077e-08
1.55638e-07
1.56614e-08
1.49731e-07
1.91856e-08
1.42419e-07
2.45425e-08
1.33552e-07
3.07992e-08
1.2259e-07
4.10832e-08
1.085e-07
5.32095e-08
9.31718e-08
7.35108e-08
9.98512e-08
1.07599e-07
9.98512e-08
9.69256e-10
-9.69217e-10
-7.94563e-09
-5.99767e-09
-1.40032e-08
-6.29222e-09
-1.95267e-08
-6.83472e-09
-2.48339e-08
-6.70647e-09
-2.98432e-08
-4.71609e-09
-3.41114e-08
-7.62914e-11
-3.71366e-08
7.28146e-09
-3.82256e-08
1.73782e-08
-3.69708e-08
2.98719e-08
-3.30764e-08
4.36393e-08
-2.61542e-08
5.69173e-08
-1.55177e-08
6.75731e-08
-7.40776e-10
7.37922e-08
1.80626e-08
7.41892e-08
3.93002e-08
6.84039e-08
6.0708e-08
5.73651e-08
8.07828e-08
4.23166e-08
9.89034e-08
2.44902e-08
1.14924e-07
4.31702e-09
1.29022e-07
-1.81107e-08
1.4108e-07
-4.13314e-08
1.50767e-07
-6.36396e-08
1.57575e-07
-8.25515e-08
1.61159e-07
-9.60752e-08
1.61667e-07
-1.03461e-07
1.60208e-07
-1.05747e-07
1.56998e-07
-1.04088e-07
1.51672e-07
-9.95275e-08
1.4537e-07
-9.28227e-08
1.3923e-07
-8.63088e-08
1.32824e-07
-7.7812e-08
1.25094e-07
-7.1044e-08
1.15989e-07
-6.50026e-08
1.07803e-07
-6.17479e-08
-4.52468e-08
1.76579e-07
3.5577e-09
1.75486e-07
4.58299e-09
1.73808e-07
7.26714e-09
1.71866e-07
8.48742e-09
1.6959e-07
1.01683e-08
1.66666e-07
1.3057e-08
1.6319e-07
1.59839e-08
1.59031e-07
1.98201e-08
1.54242e-07
2.39748e-08
1.48674e-07
3.01102e-08
1.42248e-07
3.72258e-08
1.35198e-07
4.81329e-08
1.26697e-07
6.17102e-08
1.18969e-07
8.12388e-08
1.05379e-07
1.21189e-07
2.0523e-07
-2.96735e-09
1.99816e-09
-7.57913e-09
-1.38585e-09
-1.02979e-08
-3.57345e-09
-1.19342e-08
-5.19834e-09
-1.31165e-08
-5.52419e-09
-1.39952e-08
-3.83733e-09
-1.42689e-08
1.97413e-10
-1.37508e-08
6.76333e-09
-1.17934e-08
1.54209e-08
-7.57893e-09
2.56574e-08
-3.65583e-10
3.64259e-08
1.02458e-08
4.63059e-08
2.4151e-08
5.36679e-08
4.08922e-08
5.70511e-08
5.96387e-08
5.54427e-08
7.91415e-08
4.89012e-08
9.81659e-08
3.83407e-08
1.15689e-07
2.47936e-08
1.31403e-07
8.7762e-09
1.45699e-07
-9.97908e-09
1.58204e-07
-3.06154e-08
1.68641e-07
-5.17686e-08
1.76159e-07
-7.1158e-08
1.80132e-07
-8.65243e-08
1.80639e-07
-9.65822e-08
1.78251e-07
-1.01073e-07
1.73685e-07
-1.0118e-07
1.67437e-07
-9.78401e-08
1.60541e-07
-9.26312e-08
1.53444e-07
-8.57258e-08
1.46393e-07
-7.92577e-08
1.39634e-07
-7.10532e-08
1.32287e-07
-6.36973e-08
1.2353e-07
-5.62457e-08
1.15297e-07
-5.35147e-08
-3.97069e-08
1.77872e-07
4.26236e-09
1.76838e-07
5.6174e-09
1.75387e-07
8.71814e-09
1.7375e-07
1.01239e-08
1.71745e-07
1.21732e-08
1.69234e-07
1.55677e-08
1.66325e-07
1.88931e-08
1.63052e-07
2.30934e-08
1.59436e-07
2.75903e-08
1.55644e-07
3.39026e-08
1.51762e-07
4.11082e-08
1.48645e-07
5.12497e-08
1.47047e-07
6.33082e-08
1.49612e-07
7.86741e-08
1.66044e-07
1.04757e-07
2.61266e-07
1.10009e-07
1.50054e-07
1.11212e-07
1.50054e-07
8.49671e-09
-8.49668e-09
3.98275e-09
4.51399e-09
3.57855e-09
2.40239e-09
3.0784e-09
-8.85683e-10
3.00036e-09
-3.49538e-09
3.43349e-09
-5.63145e-09
4.41176e-09
-6.50243e-09
6.24151e-09
-5.66706e-09
9.10287e-09
-2.66394e-09
1.3232e-08
2.63425e-09
1.90736e-08
9.57923e-09
2.70188e-08
1.77123e-08
3.7271e-08
2.61737e-08
4.98875e-08
3.36894e-08
6.4655e-08
3.89004e-08
8.108e-08
4.0626e-08
9.83552e-08
3.81675e-08
1.15625e-07
3.16314e-08
1.3211e-07
2.1856e-08
1.47379e-07
9.52434e-09
1.61682e-07
-5.52702e-09
1.74747e-07
-2.30436e-08
1.86095e-07
-4.19632e-08
1.94554e-07
-6.02282e-08
1.99153e-07
-7.57565e-08
1.99627e-07
-8.69989e-08
1.96566e-07
-9.35207e-08
1.90948e-07
-9.54551e-08
1.83857e-07
-9.40897e-08
1.7612e-07
-9.01026e-08
1.68283e-07
-8.47939e-08
1.60447e-07
-7.78904e-08
1.52803e-07
-7.16135e-08
1.45763e-07
-6.40136e-08
1.38949e-07
-5.68832e-08
1.31004e-07
-4.83001e-08
1.23023e-07
-4.55337e-08
-3.38416e-08
1.79401e-07
4.85787e-09
1.78366e-07
6.65273e-09
1.77357e-07
9.72698e-09
1.76022e-07
1.14586e-08
1.74194e-07
1.40015e-08
1.72113e-07
1.76491e-08
1.69765e-07
2.12413e-08
1.67406e-07
2.54523e-08
1.64821e-07
3.01751e-08
1.62669e-07
3.60542e-08
1.6075e-07
4.3027e-08
1.60606e-07
5.13937e-08
1.62525e-07
6.13892e-08
1.68923e-07
7.22765e-08
1.85846e-07
8.78339e-08
1.99018e-07
9.68365e-08
2.07534e-07
1.02696e-07
2.70297e-07
8.72913e-08
2.00176e-07
7.0121e-08
1.4972e-07
5.04554e-08
1.12472e-07
3.7248e-08
8.838e-08
2.40924e-08
6.07334e-08
1.915e-08
5.31157e-08
1.21317e-08
4.94942e-08
6.02397e-09
4.69942e-08
1.61434e-09
4.5271e-08
-1.77213e-09
4.3872e-08
-4.23244e-09
4.30469e-08
-5.67738e-09
4.31918e-08
-5.81191e-09
4.47676e-08
-4.2397e-09
4.8228e-08
-8.26155e-10
5.3846e-08
3.96122e-09
6.2033e-08
9.52532e-09
7.27013e-08
1.55054e-08
8.55678e-08
2.08229e-08
1.0016e-07
2.43081e-08
1.15869e-07
2.49166e-08
1.3202e-07
2.20172e-08
1.47914e-07
1.57369e-08
1.63036e-07
6.73433e-09
1.77442e-07
-4.88224e-09
1.9117e-07
-1.92548e-08
2.03504e-07
-3.5377e-08
2.12724e-07
-5.11832e-08
2.17463e-07
-6.49672e-08
2.17645e-07
-7.59386e-08
2.14039e-07
-8.33927e-08
2.0775e-07
-8.72317e-08
1.99909e-07
-8.76143e-08
1.91363e-07
-8.55438e-08
1.82597e-07
-8.13368e-08
1.74138e-07
-7.63346e-08
1.66097e-07
-6.9849e-08
1.58363e-07
-6.38802e-08
1.51226e-07
-5.68759e-08
1.44881e-07
-5.05384e-08
1.3799e-07
-4.14095e-08
1.30535e-07
-3.80789e-08
-2.79095e-08
1.81088e-07
5.38733e-09
1.79741e-07
7.99901e-09
1.79971e-07
9.49708e-09
1.78641e-07
1.27893e-08
1.76797e-07
1.58448e-08
1.75164e-07
1.92829e-08
1.73392e-07
2.30131e-08
1.71807e-07
2.70368e-08
1.7009e-07
3.18928e-08
1.69142e-07
3.70023e-08
1.68579e-07
4.35894e-08
1.70007e-07
4.99656e-08
1.72677e-07
5.87194e-08
1.79197e-07
6.57569e-08
1.90099e-07
7.69321e-08
2.06293e-07
8.06424e-08
2.23175e-07
8.58136e-08
2.25248e-07
8.52187e-08
2.21395e-07
7.39738e-08
2.1161e-07
6.02399e-08
1.99656e-07
4.92026e-08
1.85347e-07
3.84011e-08
1.7365e-07
3.08472e-08
1.61023e-07
2.47582e-08
1.499e-07
1.71475e-08
1.40533e-07
1.09815e-08
1.32421e-07
6.33961e-09
1.25212e-07
2.97679e-09
1.1904e-07
4.9459e-10
1.13998e-07
-7.69566e-10
1.10545e-07