/*--------------------------------*- C++ -*----------------------------------*\
| =========                 |                                                 |
| \\      /  F ield         | OpenFOAM: The Open Source CFD Toolbox           |
|  \\    /   O peration     | Version:  2.3.0                                 |
|   \\  /    A nd           | Web:      www.OpenFOAM.org                      |
|    \\/     M anipulation  |                                                 |
\*---------------------------------------------------------------------------*/
FoamFile
{
    version     2.0;
    format      ascii;
    class       volScalarField;
    location    "5e-06";
    object      alpha.fuel;
}
// * * * * * * * * * * * * * * * * * * * * * * * * * * * * * * * * * * * * * //

dimensions      [0 0 0 0 0 0 0];

internalField   nonuniform List<scalar> 
7500
(
1
1
1
1
1
1
1
1
1
1
1
1
1
1
1
1
1
1
1
1
1
1
1
1
1
1
1
1
1
1
1
1
1
1
1
1
1
1
1
1
1
1
1
1
1
1
1
1
1
0.65410286
0.035272129
1.8525891e-08
6.8069725e-09
1.6664124e-09
2.6652629e-10
2.7646165e-11
1.934886e-12
9.6307303e-14
3.56698e-15
1.0184735e-16
2.3050339e-18
4.2296543e-20
6.4141498e-22
8.1741722e-24
8.8868414e-26
8.3570485e-28
6.8863181e-30
5.0339647e-32
3.3036744e-34
1.9692381e-36
1.0784028e-38
5.487326e-41
2.6237245e-43
1.1920899e-45
5.2042232e-48
1
1
1
1
1
1
1
1
1
1
1
1
1
1
1
1
1
1
1
1
1
1
1
1
1
1
1
1
1
1
1
1
1
1
1
1
1
1
1
1
1
1
1
1
1
1
1
1
1
1
0.34770697
7.0787693e-09
2.7071771e-09
7.136907e-10
1.1911077e-10
1.2608321e-11
8.9285414e-13
4.4843452e-14
1.6741781e-15
4.8156565e-17
1.0975166e-18
2.0274195e-20
3.0945585e-22
3.9688689e-24
4.3420511e-26
4.1086616e-28
3.4066034e-30
2.5056965e-32
1.6546407e-34
9.9243603e-37
5.4688458e-39
2.8002629e-41
1.3473816e-43
6.1605915e-46
2.7065106e-48
1
1
1
1
1
1
1
1
1
1
1
1
1
1
1
1
1
1
1
1
1
1
1
1
1
1
1
1
1
1
1
1
1
1
1
1
1
1
1
1
1
1
0.99999999
1
1
1
1
1
1
1
0.48788945
4.082043e-09
1.6403814e-09
4.4530662e-10
7.5636488e-11
8.1136096e-12
5.8222172e-13
2.9660666e-14
1.1240257e-15
3.2830073e-17
7.5978291e-19
1.4249882e-20
2.2075474e-22
2.8722148e-24
3.1858841e-26
3.0544022e-28
2.5639647e-30
1.907798e-32
1.2733601e-34
7.7127708e-37
4.2881682e-39
2.2133274e-41
1.0725265e-43
4.9341202e-46
2.1790511e-48
1
1
1
1
1
1
1
1
1
1
1
1
1
1
1
1
1
1
1
1
1
1
1
1
1
1
1
1
1
1
1
1
1
1
1
1
1
1
0.99999999
0.99999999
0.99999999
0.99999998
0.99999998
0.99999998
0.99999998
0.99999999
0.99999999
0.99999999
1
1
0.39717911
2.9852165e-09
1.2904923e-09
3.6639827e-10
6.4606001e-11
7.13344e-12
5.2403894e-13
2.7233575e-14
1.0497179e-15
3.1103121e-17
7.2855964e-19
1.3803568e-20
2.1567362e-22
2.8263533e-24
3.1539628e-26
3.0388557e-28
2.5610128e-30
1.9111949e-32
1.278025e-34
7.7470396e-37
4.3055963e-39
2.2188168e-41
1.0721609e-43
4.9123523e-46
2.1578639e-48
1
1
1
1
1
1
1
1
1
1
1
1
1
1
1
1
1
1
1
1
1
1
1
1
1
1
1
1
1
1
1
1
1
1
1
1
1
0.99999999
0.99999999
0.99999999
0.99999998
0.99999997
0.99999997
0.99999996
0.99999996
0.99999996
0.99999997
0.99999997
0.99999999
1
0.57730865
0.005348533
1.5773355e-09
4.5444799e-10
7.7774536e-11
8.3329451e-12
6.0238032e-13
3.1238614e-14
1.21256e-15
3.631536e-17
8.5930912e-19
1.6390616e-20
2.565629e-22
3.3501511e-24
3.7054394e-26
3.5218249e-28
2.9159995e-30
2.1310333e-32
1.3921048e-34
8.2295456e-37
4.4558242e-39
2.235962e-41
1.0520834e-43
4.6956148e-46
2.0106472e-48
1
1
1
1
1
1
1
1
1
1
1
1
1
1
1
1
1
1
1
1
1
1
1
1
1
1
1
1
1
1
1
1
1
1
1
1
1
0.99999999
0.99999999
0.99999999
0.99999998
0.99999998
0.99999998
0.99999998
0.99999999
1
1
1
1
1
0.95033034
0.13083215
1.491198e-09
5.7974707e-10
1.080631e-10
1.1736637e-11
8.4170894e-13
4.2643073e-14
1.5928584e-15
4.5370164e-17
1.0142029e-18
1.8241423e-20
2.6974212e-22
3.3416284e-24
3.5258262e-26
3.2155618e-28
2.5690366e-30
1.8206325e-32
1.1581635e-34
6.6897473e-37
3.548533e-39
1.74803e-41
8.0862981e-44
3.5520531e-46
1.4981059e-48
1
1
1
1
1
1
1
1
1
1
1
1
1
1
1
1
1
1
1
1
1
1
1
1
1
1
1
1
1
1
1
1
1
1
1
0.99999999
0.99999999
0.99999999
0.99999999
0.99999999
0.99999999
0.99999999
0.99999999
1
1
1
0.99999379
0.99999065
0.99999715
1
1
0.82139807
0.12027461
1.0246139e-09
1.7921447e-10
1.6733265e-11
1.0168436e-12
4.5266592e-14
1.5506782e-15
4.1791187e-17
9.0285979e-19
1.5945394e-20
2.3459211e-22
2.9245344e-24
3.1364154e-26
2.932787e-28
2.4201177e-30
1.7818995e-32
1.182729e-34
7.1469056e-37
3.9698288e-39
2.0465693e-41
9.8877659e-44
4.5212885e-46
1.9762807e-48
1
1
1
1
1
1
1
1
1
1
1
1
1
1
1
1
1
1
1
1
1
1
1
1
1
1
1
1
1
1
1
1
1
1
1
0.99999999
0.99999999
0.99999999
0.99999998
0.99999998
0.99999998
0.99999999
1
0.99999824
0.99983562
0.99964988
0.9997873
0.99999827
1
1
1
0.99233401
0.19141949
8.7472362e-10
1.5826177e-10
1.4364921e-11
8.4232892e-13
3.6327489e-14
1.2139051e-15
3.2090039e-17
6.8198351e-19
1.1853383e-20
1.7141954e-22
2.0965663e-24
2.2015662e-26
2.0124443e-28
1.621614e-30
1.1651585e-32
7.5444859e-35
4.4463574e-37
2.4081548e-39
1.2100478e-41
5.6953871e-44
2.5356243e-46
1.078442e-48
1
1
1
1
1
1
1
1
1
1
1
1
1
1
1
1
1
1
1
1
1
1
1
1
1
1
1
1
1
1
1
1
1
1
1
0.99999999
0.99999999
0.99999999
0.99999997
0.99999994
0.99999994
0.99999997
1
0.99995774
0.99949765
0.99949765
0.99973254
1
1
1
0.88534074
0.31582428
0.016891142
1.3618298e-09
5.3395115e-10
7.6460008e-11
5.1677397e-12
2.0032195e-13
5.0307188e-15
8.9376329e-17
1.2141235e-18
1.3670272e-20
1.3817438e-22
1.3221709e-24
1.2057021e-26
1.0246731e-28
7.9432715e-31
5.5654957e-33
3.5270877e-35
2.033959e-37
1.0762511e-39
5.2748419e-42
2.4184012e-44
1.0478613e-46
4.3356039e-49
1
1
1
1
1
1
1
1
1
1
1
1
1
1
1
1
1
1
1
1
1
1
1
1
1
1
1
1
1
1
1
1
1
1
1
1
1
1
1
0.99999993
0.99999986
0.99999992
1
1
0.99995743
0.99978495
0.99978563
0.99997647
1
0.86029347
0.15908853
2.8077915e-09
2.0508521e-09
1.5048821e-09
3.7930333e-10
3.8706591e-11
2.0729599e-12
6.8158422e-14
1.530464e-15
2.5655887e-17
3.5081907e-19
4.2560505e-21
4.8261193e-23
5.1314427e-25
4.9964199e-27
4.3651155e-29
3.3960197e-31
2.3575284e-33
1.4704879e-35
8.3161113e-38
4.3068897e-40
2.0639971e-42
9.2509168e-45
3.9201188e-47
1.5878522e-49
1
1
1
1
1
1
1
1
1
1
1
1
1
1
1
1
1
1
1
1
1
1
1
1
1
1
1
1
1
1
1
1
1
1
1
1
1
1
1
1
1
1
1
1
1
1
1
1
1
0.96517925
0.11946619
2.6410524e-09
1.8691325e-09
8.9017004e-10
1.4816522e-10
1.1561e-11
5.2068679e-13
1.5521963e-14
3.4184209e-16
6.1437597e-18
9.7350876e-20
1.4038694e-21
1.8255505e-23
2.0983136e-25
2.1083698e-27
1.8511712e-29
1.4288798e-31
9.7840884e-34
6.0044898e-36
3.3383375e-38
1.6999998e-40
8.0179033e-43
3.5419557e-45
1.4822137e-47
5.9429105e-50
1
1
1
1
1
1
1
1
1
1
1
1
1
1
1
1
1
1
1
1
1
1
1
1
1
1
1
1
1
1
1
1
1
1
1
1
1
1
0.90713546
0.59530975
0.4650811
0.55938391
0.7492878
0.85048707
0.89508529
0.93200316
0.98207951
0.99971697
1
1
0.53648542
1.9691566e-09
1.1614341e-09
3.5603643e-10
4.3703474e-11
2.8521226e-12
1.1898732e-13
3.6351544e-15
9.0197219e-17
1.9275112e-18
3.5886986e-20
5.7570279e-22
7.8835265e-24
9.2116325e-26
9.242328e-28
8.0396301e-30
6.1298841e-32
4.1434601e-34
2.5115692e-36
1.3809618e-38
6.967213e-41
3.2626369e-43
1.4345135e-45
5.9904035e-48
2.4032223e-50
1
1
1
1
1
1
1
1
1
1
1
1
1
1
1
1
1
1
1
1
1
1
1
1
1
1
1
1
1
1
1
1
0.99966227
0.99556132
0.99274357
0.97879615
0.91949655
0.59587826
0.07203937
4.1080467e-09
3.6297428e-09
3.6297428e-09
3.6297428e-09
3.6297428e-09
0.0027267432
0.01961042
0.20144047
0.79580218
1
1
0.40515124
7.5485478e-05
5.7659384e-10
1.2127524e-10
1.22851e-11
7.5893298e-13
3.3580557e-14
1.1746627e-15
3.386836e-17
8.0988396e-19
1.6026741e-20
2.6309552e-22
3.6115069e-24
4.1915285e-26
4.1635673e-28
3.5838834e-30
2.7062085e-32
1.8143458e-34
1.0929031e-36
5.9846077e-39
3.0138747e-41
1.4120669e-43
6.2257793e-46
2.6125586e-48
1.0552317e-50
1
1
1
1
1
1
1
1
1
1
1
1
1
1
1
1
1
1
1
1
1
1
1
1
1
1
1
0.99985433
0.98945848
0.94266052
0.79241635
0.59231174
0.32966234
0.23782619
0.23876605
0.19052938
0.034878371
4.0890654e-09
3.6634558e-09
5.6819535e-09
6.6965894e-09
5.4684499e-09
4.2743492e-09
3.7377518e-09
3.6297255e-09
3.6960579e-09
0.037399204
0.30262286
0.48433387
0.30569563
0.0083226589
1.0809977e-09
3.8582631e-10
6.3669049e-11
5.7410792e-12
3.3837339e-13
1.4977057e-14
5.3759164e-16
1.5900694e-17
3.8505857e-19
7.6247686e-21
1.2439277e-22
1.692442e-24
1.9464853e-26
1.918057e-28
1.6406461e-30
1.2336313e-32
8.2543512e-35
4.9738115e-37
2.7307862e-39
1.3819209e-41
6.5195218e-44
2.8997791e-46
1.229559e-48
5.0249052e-51
1
1
1
1
1
1
1
1
1
1
1
1
1
1
1
1
1
1
1
1
1
1
1
0.98213784
0.87807376
0.69794494
0.52348899
0.32411956
0.23020117
0.064105619
4.1522978e-09
3.629766e-09
3.6297659e-09
3.6297659e-09
3.6297659e-09
3.629766e-09
3.6297666e-09
5.776508e-09
7.5388263e-09
8.9409078e-09
9.283351e-09
8.868558e-09
5.8835876e-09
3.6298196e-09
3.6297251e-09
0.007723846
0.02004718
0.01214501
2.5884839e-09
1.9290692e-09
1.4370959e-09
1.0583028e-09
2.9678983e-10
4.0690073e-11
3.4881867e-12
2.1989618e-13
1.0956675e-14
4.3187425e-16
1.3321599e-17
3.2286045e-19
6.2415102e-21
9.8075626e-23
1.2764569e-24
1.4004665e-26
1.3164778e-28
1.0763847e-30
7.7636878e-33
5.0065241e-35
2.9237833e-37
1.5655097e-39
7.7773502e-42
3.6261253e-44
1.6042318e-46
6.8060955e-49
2.7975841e-51
1
1
1
1
1
1
1
1
1
1
1
1
1
1
1
1
1
1
1
0.97178713
0.85460533
0.65291586
0.47922379
0.260998
0.00076481784
3.8825185e-09
3.8755163e-09
3.8755163e-09
3.8755163e-09
3.8755165e-09
6.3526801e-09
7.6838128e-09
8.2244747e-09
7.5739126e-09
8.0875792e-09
1.0456174e-08
1.2111938e-08
1.2283922e-08
1.1807584e-08
1.0380204e-08
8.4767805e-09
5.3697898e-09
3.1015409e-09
0.0003837928
0.0013944225
0.0040144761
0.0014204041
3.7769057e-05
5.9380298e-08
2.3076217e-09
1.6534655e-09
8.9460504e-10
2.0573196e-10
2.7824177e-11
2.6850515e-12
1.9413951e-13
1.0439284e-14
4.1749028e-16
1.2621053e-17
2.9521425e-19
5.4727172e-21
8.2235818e-23
1.0225376e-24
1.0724214e-26
9.6595916e-29
7.6030216e-31
5.3179248e-33
3.3594621e-35
1.9464633e-37
1.0490876e-39
5.3261327e-42
2.5747419e-44
1.1961134e-46
5.3828408e-49
2.3644535e-51
1
1
1
1
1
1
1
1
1
1
1
1
1
1
1
1
0.93152459
0.73246421
0.48391506
0.19462021
5.0919167e-09
3.9406565e-09
3.9406565e-09
3.9406565e-09
3.9406653e-09
6.5715636e-09
6.0644538e-09
7.6070965e-09
1.0681733e-08
1.207496e-08
1.2820574e-08
1.3267975e-08
1.33157e-08
1.2184086e-08
1.1625733e-08
1.1891581e-08
1.2682575e-08
1.2082712e-08
1.0296869e-08
7.1327777e-09
4.2514958e-09
3.6979637e-09
3.1014817e-09
0.0030196162
0.01399221
0.0078500404
3.0198255e-09
2.7114611e-09
4.2207838e-09
3.4580613e-09
1.7692261e-09
6.9552409e-10
1.5044885e-10
2.1757409e-11
2.2286714e-12
1.6174708e-13
8.4030603e-15
3.2032253e-16
9.2246972e-18
2.0646842e-19
3.6872845e-21
5.3846191e-23
6.5825254e-25
6.8932291e-27
6.3254341e-29
5.1971538e-31
3.8967451e-33
2.7061098e-35
1.75804e-37
1.074736e-39
6.204612e-42
3.3933872e-44
1.7651455e-46
8.7791009e-49
4.2023901e-51
1
1
1
1
1
1
1
1
1
1
1
1
1
0.93251831
0.72216137
0.38303533
0.05060913
4.7813061e-09
4.3709776e-09
4.3709776e-09
4.6377558e-09
4.6286963e-09
6.784739e-09
7.6844194e-09
7.8882376e-09
9.1670362e-09
7.9780036e-09
8.2301948e-09
1.2413481e-08
1.2529177e-08
1.2654783e-08
1.3109449e-08
1.2842813e-08
1.3490394e-08
1.3350964e-08
1.2492112e-08
1.3001052e-08
5.2883046e-08
8.0516039e-09
7.6266465e-09
1.5995113e-05
4.83414e-06
3.1020335e-09
0.010360597
0.017081974
0.0019565631
2.3973044e-09
2.3085298e-09
2.9953459e-09
3.6437211e-09
1.6836326e-09
5.4217793e-10
1.148647e-10
1.6511392e-11
1.6234772e-12
1.1092147e-13
5.4196763e-15
1.9587971e-16
5.4142216e-18
1.1812696e-19
2.0970118e-21
3.1193814e-23
3.99832e-25
4.5255812e-27
4.6083963e-29
4.2703653e-31
3.620038e-33
2.8128943e-35
2.0066074e-37
1.3179346e-39
8.0079107e-42
4.5306493e-44
2.4055268e-46
1.209064e-48
5.8081035e-51
1
1
1
1
1
1
1
1
1
1
1
0.87677781
0.53546713
0.10006738
4.2256044e-09
3.5094432e-09
3.5094435e-09
4.8992452e-09
1.3470504e-08
6.3491697e-09
5.9677492e-09
6.5582808e-09
9.395371e-09
9.4840729e-09
6.1380569e-09
7.2177081e-09
2.0030416e-08
1.1075081e-05
1.1765889e-08
1.1165097e-08
1.0345037e-08
9.5422288e-09
8.9359725e-09
9.955769e-09
9.9450053e-09
1.9777684e-07
7.6012323e-08
3.0091454e-09
2.5065338e-06
3.4465276e-05
4.2671468e-05
2.8155438e-05
3.285285e-09
2.8501056e-09
0.02243967
2.1377857e-09
1.808217e-09
1.8433544e-09
2.6920485e-09
3.2174777e-09
1.4229492e-09
4.0398962e-10
8.1306558e-11
1.1001225e-11
1.008737e-12
6.4767903e-14
3.0332076e-15
1.0824899e-16
3.0773577e-18
7.268803e-20
1.4767491e-21
2.6360775e-23
4.1636271e-25
5.8081838e-27
7.1298742e-29
7.693574e-31
7.3164283e-33
6.1666292e-35
4.6423844e-37
3.150009e-39
1.9454658e-41
1.1049087e-43
5.8313335e-46
2.8902742e-48
1.3602305e-50
1
1
1
1
1
1
1
1
1
0.84854243
0.43944794
0.00097917457
3.113707e-09
3.1045229e-09
1.7217135e-08
3.1716184e-08
2.6098774e-08
1.4745272e-08
8.209479e-09
4.1866934e-07
6.0973378e-09
6.2004643e-09
8.0926153e-09
8.668287e-09
2.4298389e-09
1.6292091e-09
8.4766024e-10
0.002406169
0.018796925
0.10344406
0.10673861
0.019033467
8.2688927e-09
7.2441927e-09
3.329451e-07
3.5331817e-07
1.6760433e-07
2.8490269e-09
2.7986269e-05
6.0816536e-05
1.5305217e-05
2.835912e-09
2.6204419e-09
2.6204395e-09
2.7543319e-09
0.066387663
1.4454156e-09
1.2733863e-09
2.3076689e-09
2.5290712e-09
1.0536589e-09
2.6707628e-10
5.0485037e-11
6.4550273e-12
5.7079588e-13
3.7058177e-14
1.8866618e-15
7.9671265e-17
2.8752915e-18
8.8834417e-20
2.3232981e-21
5.0963946e-23
9.3596064e-25
1.4455011e-26
1.8929587e-28
2.1236192e-30
2.0637615e-32
1.757385e-34
1.3264963e-36
8.9777194e-39
5.5106036e-41
3.102518e-43
1.6202132e-45
7.9356012e-48
3.686933e-50
1
1
1
1
1
1
1
0.89658417
0.51728303
0.010223168
8.3651708e-09
8.3439619e-09
1.3103392e-07
3.0650311e-08
5.480516e-08
7.6940438e-08
6.3161404e-08
3.3807371e-08
1.0451244e-08
2.9326269e-09
2.0975525e-05
6.309394e-09
7.0102993e-09
7.6689246e-09
0.0010538656
0.0010886125
4.3503239e-06
1.3722867e-09
0.13567105
0.17134358
0.17414181
0.073973448
8.6689178e-09
7.8537808e-09
1.0743308e-08
2.2436203e-09
2.2326618e-09
1.6311832e-08
1.5273051e-09
1.5177775e-09
1.9655084e-09
2.4506354e-09
0.0011270291
0.0030584416
0.0010414779
2.8212056e-09
0.23124979
0.049818376
4.2529188e-10
1.5739921e-09
5.6557596e-10
1.4382287e-10
2.8485546e-11
3.9264602e-12
4.0752843e-13
3.4399046e-14
2.406454e-15
1.369552e-16
6.2186987e-18
2.2394754e-19
6.4289472e-21
1.4874747e-22
2.8112146e-24
4.401337e-26
5.7888445e-28
6.4835948e-30
6.2654361e-32
5.2904683e-34
3.9515185e-36
2.6419962e-38
1.5997318e-40
8.872733e-43
4.5585623e-45
2.1935682e-47
9.9933168e-50
1
1
1
1
1
1
0.75887623
0.11938721
6.5169686e-09
5.6593011e-09
0.00010587397
5.6451871e-05
4.3206143e-06
3.0845287e-08
3.5650811e-07
8.9715288e-08
1.4336477e-07
5.4101489e-08
1.8042171e-08
2.9560886e-09
3.5813995e-06
9.233771e-05
1.3834358e-05
0.00020073271
0.002475665
0.0025086955
0.00063794585
1.3814539e-09
7.5293721e-10
7.3464452e-10
0.010758362
0.047043367
0.012661176
5.1296497e-09
4.5037728e-09
2.5169761e-09
2.7526149e-09
3.1660157e-09
3.2630965e-08
1.5177945e-09
0.01399453
0.024894226
0.0078525446
0.00090670736
3.4792115e-06
2.701016e-09
0.062041698
3.3424641e-10
7.3274993e-11
2.6810472e-10
1.883878e-10
8.7008922e-11
2.5187109e-11
4.863015e-12
6.8626316e-13
7.3022367e-14
5.8547051e-15
3.5322833e-16
1.6151788e-17
5.6771152e-19
1.5610101e-20
3.420648e-22
6.0834027e-24
8.9340246e-26
1.1012517e-27
1.1569358e-29
1.0509532e-31
8.3689748e-34
5.9198207e-36
3.7676095e-38
2.1848577e-40
1.1690121e-42
5.8437426e-45
2.7637323e-47
1.2521367e-49
1
1
1
1
0.97422632
0.48951609
9.9723428e-09
7.6381449e-09
8.0535455e-09
6.4547022e-09
0.001424705
0.00047357922
4.5852548e-08
6.5960682e-05
6.3688689e-07
1.2334978e-08
5.2165107e-08
4.5928716e-08
1.4770214e-08
7.6994208e-09
5.8955865e-09
7.5776489e-06
0.00073603553
0.0010647462
4.5301304e-09
4.5820041e-09
1.0716496e-05
2.0301174e-09
0.0019329661
0.00020319443
7.901953e-10
0.014175548
0.013701215
0.00056042606
3.0919299e-09
2.9599772e-09
0.019213257
0.0030355044
2.3676644e-09
1.8159567e-09
0.050383817
0.052482419
0.032949698
3.7401302e-09
3.1401677e-09
2.7074433e-09
2.8272101e-09
0.3462206
0.072093231
1.3639992e-10
7.7729925e-11
7.7729926e-11
8.357722e-11
1.5194275e-11
2.0469551e-12
2.1740297e-13
1.7064151e-14
9.7362348e-16
4.099112e-17
1.3053503e-18
3.2264029e-20
6.3412394e-22
1.0130629e-23
1.3419007e-25
1.5005345e-27
1.4401117e-29
1.2046961e-31
8.9139839e-34
5.9179052e-36
3.574862e-38
1.9924665e-40
1.0388347e-42
5.1353042e-45
2.4378985e-47
1.1246689e-49
1
1
1
0.95614726
0.27593582
1.3580681e-08
1.1968573e-08
0.00046350689
0.00026833641
5.2981416e-05
0.0014249202
1.9777434e-05
6.2374002e-05
0.00032732935
2.6591561e-05
1.3374307e-08
1.4207694e-08
2.5426666e-08
1.3989475e-08
1.4114481e-08
0.00014209607
1.5881058e-05
3.1212477e-10
3.1073471e-10
3.3329729e-06
0.00081726164
2.729565e-09
0.0082123622
0.0095932829
0.00095466908
1.2820491e-09
1.3810789e-09
0.018464942
0.03852421
0.019212808
0.015544971
0.045852664
0.033589989
0.0073168364
0.022346076
2.6489088e-09
0.037446587
0.01781235
4.0835848e-09
1.4145948e-07
8.0132173e-08
2.7232328e-09
0.11518746
0.57502533
0.46764716
0.4093159
0.010516794
3.1474539e-10
6.0190124e-11
9.5469575e-12
1.0023959e-12
6.962579e-14
3.3527989e-15
1.1725406e-16
3.1017687e-18
6.4263087e-20
1.0736231e-21
1.4815533e-23
1.7224873e-25
1.7159298e-27
1.4874646e-29
1.1392049e-31
7.8307001e-34
4.9109096e-36
2.85667e-38
1.5655695e-40
8.1934096e-43
4.1385147e-45
2.0330877e-47
9.7723679e-50
1
1
0.98847398
0.24806718
1.7755537e-08
1.5790349e-08
0.00076537156
0.0023954729
0.00089176947
1.7632665e-05
0.0005236016
0.00074117158
1.4917051e-09
1.4476545e-09
1.457948e-09
0.0060710824
5.2007174e-05
2.7094568e-08
1.9601285e-05
7.5199871e-05
0.00014322013
1.1932718e-09
1.1438863e-09
9.7916274e-10
1.0738683e-09
0.011311915
0.071855823
0.072640292
0.0038717572
6.1224613e-09
0.00037321862
1.3804404e-09
0.033652997
0.049664194
0.049664194
0.048137694
0.018550811
0.044400431
0.046308789
0.0010693067
2.5854213e-09
1.8385095e-09
0.03885557
0.017532239
1.4865024e-08
3.16436e-07
7.6881931e-08
4.1840778e-09
0.53413677
0.57502533
0.31882349
0.0053153097
5.604626e-10
3.3684913e-10
5.1073924e-11
3.7352166e-12
1.7505018e-13
6.1236682e-15
1.7174731e-16
3.9280948e-18
7.3257307e-20
1.1202932e-21
1.4262346e-23
1.5446634e-25
1.459388e-27
1.234591e-29
9.5797565e-32
6.9471379e-34
4.7610585e-36
3.0957942e-38
1.9095656e-40
1.1163764e-42
6.1899103e-45
3.2645892e-47
1.6461072e-49
1
1
0.31958182
1.8887582e-08
1.6336648e-08
0.00076145759
0.0023268471
7.1144273e-09
7.1144296e-09
8.8446212e-09
2.5097627e-05
0.00048541413
2.5414252e-06
1.4495985e-09
0.0097781062
0.018805281
0.015505958
0.0099654616
0.0084623309
7.7989238e-05
2.362714e-07
0.0011032369
0.0017178618
0.00040276184
0.00033030815
2.2184174e-09
0.02139231
0.0010423608
5.6640571e-09
5.8269991e-09
0.020897313
0.085354173
0.055559433
0.0055071421
3.3768747e-05
2.0318958e-09
2.0996682e-09
2.2981714e-09
2.3809995e-09
2.8148319e-09
2.4609352e-09
2.0821247e-09
0.0098922375
0.010958269
0.0014847916
9.5573495e-09
9.2746223e-09
3.9364047e-09
0.03755905
0.25636944
0.0060364661
0.00012567638
2.2215581e-07
2.7835126e-10
4.7421081e-11
3.656837e-12
1.7346014e-13
5.802609e-15
1.4806749e-16
3.0251834e-18
5.1140508e-20
7.3582902e-22
9.2819463e-24
1.0573289e-25
1.1125729e-27
1.0917239e-29
9.9634036e-32
8.391735e-34
6.4827395e-36
4.5849317e-38
2.9759385e-40
1.7825004e-42
9.9266578e-45
5.1843207e-47
2.5620592e-49
1
0.6451922
0.025288366
0.00029807278
1.7524403e-08
0.0022581028
0.0016068657
7.1798121e-09
7.5213671e-09
9.3739328e-09
6.6912693e-09
5.6180817e-09
4.0949565e-09
1.4475694e-09
0.019854792
2.7052215e-07
1.4418646e-09
1.4418645e-09
1.4417968e-09
2.5323936e-09
2.452955e-09
0.0041098962
0.0039677301
0.0038032286
7.0808493e-05
2.1831818e-09
1.5207954e-09
8.7005789e-10
0.0029126788
0.01019009
0.0017276704
0.021262306
0.016329331
0.0039743381
3.3038829e-09
6.7150046e-06
0.0016895369
0.020837168
0.012498418
0.020778403
0.010240437
0.0016573411
6.1428626e-09
6.3248723e-09
0.0001336576
4.0750738e-06
3.1446433e-09
3.9287572e-09
1.9231425e-09
1.675753e-09
1.3489876e-09
1.1146797e-09
6.0726908e-08
1.9214789e-09
7.8345411e-11
3.3886473e-12
1.1971266e-13
3.3528078e-15
7.7389185e-17
1.5334422e-18
2.7018832e-20
4.3500136e-22
6.4729696e-24
8.8441654e-26
1.0926075e-27
1.2045359e-29
1.177854e-31
1.0221604e-33
7.9121411e-36
5.5048893e-38
3.4739657e-40
2.008034e-42
1.0739009e-44
5.3680734e-47
2.5332446e-49
0.96236589
0.075866679
1.8418054e-08
1.6884561e-08
2.685559e-06
0.00020973254
8.5163711e-09
1.3604415e-06
8.5448776e-09
7.1354989e-09
8.4063267e-09
1.4095576e-08
5.9294737e-08
1.4476316e-09
0.013903497
0.00051274746
2.4499771e-09
1.4727919e-09
1.4416875e-09
0.0032121555
0.00016497574
0.0014393144
9.8907392e-10
9.8906194e-10
9.8907877e-10
2.2331222e-06
1.6305771e-09
8.7005622e-10
0.01325221
0.013385417
0.0042503755
3.947875e-09
3.2531141e-09
2.7425646e-09
2.575826e-09
2.6504455e-09
0.030327503
0.072006201
0.054153599
0.052384317
0.048829886
0.0052206721
5.9859025e-09
7.3708914e-09
1.4570626e-09
1.1581097e-09
2.8439386e-09
3.2681096e-09
2.2310108e-09
1.8299516e-09
1.4892764e-09
8.8520036e-10
6.1073778e-10
3.9029625e-10
2.8800608e-11
1.3645042e-12
4.7944347e-14
1.3979362e-15
3.6635945e-17
8.9348792e-19
2.0095205e-20
4.042459e-22
7.0784833e-24
1.0638626e-25
1.3688994e-27
1.514774e-29
1.453301e-31
1.2208964e-33
9.0763356e-36
6.0359422e-38
3.6297986e-40
1.9951991e-42
1.0131232e-44
4.8021694e-47
2.1463255e-49
0.31240648
1.1321104e-08
1.5248289e-08
1.8345831e-08
6.0679534e-09
5.4479689e-09
5.5813718e-09
8.2894204e-09
0.00035831674
7.6395747e-07
9.2429602e-09
2.6023223e-07
6.1356399e-07
2.4809908e-09
3.8884486e-09
2.4040518e-09
3.5269816e-09
2.3223913e-09
1.4416992e-09
0.0050999512
2.4615385e-09
2.1079581e-09
1.6676629e-09
1.7083738e-09
1.0110951e-09
7.8227999e-06
6.9231188e-06
1.4723124e-09
1.4900612e-09
1.4850784e-09
0.01021155
0.0038214703
3.9768291e-09
0.0022029507
0.0062264289
0.0014236429
2.2959177e-09
0.0065937157
0.030999023
0.0058393802
1.6209818e-08
0.0073968149
5.5655897e-09
5.392545e-09
1.5753142e-09
1.1491917e-09
1.383381e-09
2.4352932e-09
2.0471448e-09
1.7226888e-09
1.3647803e-09
7.5518103e-10
4.9316454e-10
1.2170655e-10
9.5129537e-12
4.8009693e-13
2.0007231e-14
7.6832358e-16
2.7040659e-17
8.286751e-19
2.1289532e-20
4.5197907e-22
7.9346492e-24
1.1609756e-25
1.4312955e-27
1.5045659e-29
1.3649242e-31
1.0814209e-33
7.5706437e-36
4.7366333e-38
2.6782091e-40
1.3835564e-42
6.6004537e-45
2.9385161e-47
1.2335439e-49
0.10316696
7.2269255e-09
0.0006243249
1.9261285e-08
1.5647298e-08
5.4426843e-09
1.0352215e-05
0.0008595287
0.0054020386
8.3761937e-09
8.4862898e-09
5.0241883e-09
4.9124537e-09
2.4354161e-05
4.0650198e-09
4.6894471e-07
0.0035893425
1.6756714e-05
2.4874558e-09
1.4462091e-09
0.0032098476
0.0016496381
0.00085898109
5.0941253e-05
2.9107397e-09
1.7098421e-09
9.5448953e-06
0.00105611
0.00022629224
1.7477165e-09
0.0044037008
0.0017416122
4.0946432e-09
0.017511401
0.023125901
0.01258607
2.4106148e-09
2.5687365e-09
0.032336393
0.0010169555
0.00086762472
2.433958e-09
0.012098715
1.013087e-09
9.7103474e-10
9.7103473e-10
1.2899246e-09
1.3282188e-09
1.7590317e-09
1.5055725e-09
1.1222449e-09
5.9437128e-10
2.7717431e-10
4.4826758e-11
3.845229e-12
2.6294667e-13
1.5752616e-14
7.8978319e-16
3.1692673e-17
1.0047367e-18
2.5297554e-20
5.1218205e-22
8.4603152e-24
1.157005e-25
1.3287087e-27
1.2988206e-29
1.094717e-31
8.0549244e-34
5.2360797e-36
3.0419647e-38
1.5973138e-40
7.6645292e-43
3.3970952e-45
1.405512e-47
5.4859991e-50
1.562692e-09
1.564173e-09
0.00093346129
0.00057556654
1.8782987e-09
3.6280103e-09
4.0858812e-06
0.0034848134
0.0054023074
8.3652194e-09
8.7636249e-09
7.9878729e-09
3.834831e-09
0.0011725851
4.7408145e-05
6.2070929e-08
0.0059888711
0.00049311439
2.6882922e-09
1.4462093e-09
0.007388613
0.0073956303
0.0070024544
0.00055690331
2.4054226e-09
1.7654996e-09
1.109317e-09
0.0039052543
0.0014766304
2.2814274e-09
2.1282294e-09
0.011080453
0.012066984
0.0013552438
1.2335166e-05
1.7399269e-09
1.7397911e-09
0.048773816
0.05559174
0.0090951032
0.0055880087
2.3515279e-09
2.1297809e-09
0.04920446
0.022685826
0.078754524
0.022004649
1.7729882e-09
1.4442551e-09
1.2369207e-09
8.7186268e-10
4.4131903e-10
1.5254332e-10
2.5769354e-11
3.0630062e-12
2.7898599e-13
1.9060941e-14
9.7102011e-16
3.734821e-17
1.1054498e-18
2.5685103e-20
4.7743969e-22
7.2254574e-24
9.0479103e-26
9.5166249e-28
8.5262967e-30
6.5936594e-32
4.4570623e-34
2.6654506e-36
1.4267706e-38
6.9136946e-41
3.066336e-43
1.2581891e-45
4.8271096e-48
1.7504649e-50
1.9790088e-09
6.0241506e-09
7.5284601e-06
0.0012506406
1.8814524e-09
1.8897225e-08
2.7098305e-08
1.107431e-08
0.0054027906
8.3652572e-09
9.0275455e-09
6.0255515e-09
4.0390722e-09
0.0011642769
4.7557512e-05
0.0051330766
0.0053148211
0.0015156011
2.2540666e-09
1.4462238e-09
0.0036471106
0.0059801309
3.5898482e-09
0.0013928177
0.00019126847
2.7526947e-05
1.1188672e-09
1.3863757e-09
1.0958533e-09
1.750629e-07
3.059677e-06
4.465009e-07
0.0096465669
0.012151423
0.0020602694
2.3112825e-09
1.7397914e-09
0.019904457
0.026693701
0.0026120775
1.4755214e-09
0.012333297
2.1819078e-09
2.1296385e-09
0.23703659
0.23849414
0.059893717
1.5219127e-09
1.1111336e-09
9.3593089e-10
6.5169041e-10
4.1916672e-10
1.5986567e-10
3.4653352e-11
4.7675082e-12
4.3772506e-13
2.7968545e-14
1.2905682e-15
4.4390495e-17
1.169376e-18
2.4152465e-20
3.9928746e-22
5.3821599e-24
6.0153944e-26
5.6612744e-28
4.5514434e-30
3.1684025e-32
1.9344598e-34
1.0486574e-36
5.1072017e-39
2.2602241e-41
9.1901879e-44
3.4700813e-46
1.2296973e-48
4.1352716e-51
1.8284552e-09
2.3022148e-08
9.1830399e-09
9.1080232e-09
5.7521057e-08
2.0571305e-08
1.414964e-08
1.1690832e-08
0.0020770298
7.1111162e-06
3.2198657e-09
4.4202353e-09
2.0287782e-06
1.0824553e-08
0.00063310371
0.0059887775
1.8332145e-05
2.2066629e-05
0.00012684802
2.5066272e-09
3.0046424e-09
3.0713397e-09
3.5592295e-09
0.001256222
0.0010962024
8.2232686e-05
0.0025238765
0.00067364981
1.6117528e-09
2.0220729e-09
4.7958661e-06
0.0015349558
0.00078171544
1.8100265e-09
1.6067526e-09
2.0323793e-09
2.0711387e-09
2.2943152e-09
1.8862008e-09
1.4584681e-09
1.4531706e-09
0.033062849
0.021099632
2.3268458e-09
0.010609267
0.237436
0.23740141
0.0044435508
7.679811e-11
6.3254986e-10
4.4542145e-10
7.4055698e-10
3.1516659e-10
6.5128583e-11
7.8900969e-12
6.2001935e-13
3.3711294e-14
1.327385e-15
3.9192859e-17
8.9260989e-19
1.6057926e-20
2.3293895e-22
2.774884e-24
2.7595455e-26
2.3256958e-28
1.6844253e-30
1.0622536e-32
5.9059495e-35
2.9296521e-37
1.3115978e-39
5.3589167e-42
2.019914e-44
7.0976694e-47
2.3497177e-49
7.4118329e-52
1.8914617e-09
2.5495476e-08
2.0882757e-07
5.5863491e-09
1.3366045e-08
4.9333694e-06
4.9551593e-05
2.2525138e-06
3.1510508e-09
2.9868822e-06
3.2166785e-09
5.0034444e-06
0.00018462964
1.5120113e-05
2.7990301e-05
0.0041031006
7.6852569e-05
2.7308497e-08
0.0020060781
0.0083516075
2.1237935e-09
2.1242884e-09
0.00017553076
7.8056743e-10
7.5228964e-10
8.3986517e-10
0.00067231931
6.1641694e-06
2.2266626e-09
0.00046528637
6.4865355e-09
0.0056493788
0.0036456267
0.00035198235
1.7704328e-09
0.0044002196
2.6032824e-05
0.0087945369
0.0024359196
1.7943236e-09
1.4476778e-09
1.2904508e-09
0.0005713947
5.2361689e-06
4.5727619e-10
0.00613326
0.04780704
0.0010031003
7.6797426e-11
3.6417827e-10
2.5084534e-10
4.6440071e-10
6.5568666e-10
1.3747059e-10
1.3995462e-11
8.7578532e-13
3.7520905e-14
1.172909e-15
2.7933436e-17
5.2321811e-19
7.9008116e-21
9.8110645e-23
1.0185227e-24
8.9656648e-27
6.7770305e-29
4.4506546e-31
2.5679394e-33
1.3159613e-35
6.0540768e-38
2.5269551e-40
9.670274e-43
3.4281027e-45
1.137211e-47
3.5675342e-50
1.0705149e-52
9.4096377e-10
2.1884969e-08
4.0770534e-07
1.4420289e-05
1.082003e-08
7.348054e-05
6.46007e-05
5.5618107e-06
5.1087007e-06
1.6731868e-08
0.00055434496
2.1671109e-05
0.00018262136
4.612932e-06
1.622381e-09
0.00081290009
6.8243252e-05
2.9294989e-05
3.0270935e-09
0.010738796
0.0104661
0.0095325931
0.0049635564
1.5157946e-09
7.5286538e-10
2.8176768e-06
8.0060593e-09
7.7964467e-09
0.029587726
0.044157361
0.025551147
0.0025625934
0.0037655536
0.001205488
0.007128205
0.0092581692
0.0014465505
0.0004871575
0.00041367706
2.4851712e-05
1.3297886e-09
1.2733018e-09
0.052227142
4.1548956e-10
2.2352812e-10
4.4404091e-10
6.7756759e-10
6.2674593e-10
3.3806559e-09
1.5692256e-10
9.8789685e-11
2.796836e-11
1.73479e-09
2.2676823e-10
1.5159044e-11
6.8113663e-13
2.2633584e-14
5.7924142e-16
1.1691095e-17
1.897869e-19
2.5236675e-21
2.7952583e-23
2.6173533e-25
2.0987607e-27
1.4578154e-29
8.8647577e-32
4.7670912e-34
2.2898485e-36
9.9239539e-39
3.9198982e-41
1.4255393e-43
4.8215513e-46
1.531943e-48
4.6215033e-51
1.3393026e-53
9.3984764e-10
1.8799483e-08
1.5632348e-07
1.5208497e-06
0.00018535764
0.00022327155
1.3313643e-08
1.4707316e-08
7.2685799e-05
0.00034870421
0.00026588908
9.5989196e-11
8.4494089e-11
9.1848817e-10
1.0707413e-09
1.6990285e-09
2.6009047e-09
0.00071659011
3.7521547e-09
0.00087640676
5.8534342e-05
1.7131913e-09
7.1425038e-10
9.4299829e-10
1.0164299e-09
8.6479672e-10
0.00017284336
0.0074227954
0.045163049
0.044104184
0.042881182
0.0060649275
3.0445983e-09
0.011877687
0.01316138
0.0003350651
1.3132344e-09
1.2860471e-09
1.2874698e-09
1.0028108e-09
1.0475777e-09
1.2566075e-09
1.0221132e-09
0.095561994
0.038577504
6.9584679e-10
6.6480461e-10
3.2624692e-10
6.7777699e-10
5.1586477e-11
1.8686175e-11
2.9056691e-07
1.0230603e-08
2.975761e-10
8.9803894e-12
2.8181201e-13
7.8535566e-15
1.7805634e-16
3.2370472e-18
4.773141e-20
5.8065486e-22
5.924601e-24
5.1440034e-26
3.8479329e-28
2.5071289e-30
1.4372485e-32
7.3206559e-35
3.3458056e-37
1.3858841e-39
5.2559865e-42
1.8440636e-44
6.0482951e-47
1.8741411e-49
5.5504054e-52
1.591227e-54
1.1749671e-10
1.3140708e-08
2.0507126e-07
1.853813e-06
9.104881e-06
0.00021572113
8.9416445e-07
0.00035570562
2.6689794e-05
0.0028098281
2.5320639e-07
8.0860949e-11
2.1413828e-07
0.00010852475
1.0795744e-09
0.00024285489
0.00032277539
0.00071525854
0.00035445751
2.1457408e-09
1.288966e-09
1.2690298e-09
2.2618201e-09
1.0853961e-09
1.6112055e-09
4.8439533e-06
1.6310913e-09
0.037569054
0.0069435225
1.251062e-09
1.2522749e-09
0.015205614
0.0015924529
0.0020198341
0.010164872
0.0013676516
1.6692579e-09
1.5771869e-09
1.6629963e-09
1.0477217e-09
8.4960684e-10
1.0025098e-09
1.012078e-09
0.039381195
0.0023005119
4.4262255e-10
5.2505636e-10
1.0541491e-10
1.8707319e-11
1.8712885e-11
0.00018228146
1.9115564e-06
2.1834909e-10
4.8365987e-11
2.1262229e-12
7.1819223e-14