/*--------------------------------*- C++ -*----------------------------------*\
| =========                 |                                                 |
| \\      /  F ield         | OpenFOAM: The Open Source CFD Toolbox           |
|  \\    /   O peration     | Version:  2.3.0                                 |
|   \\  /    A nd           | Web:      www.OpenFOAM.org                      |
|    \\/     M anipulation  |                                                 |
\*---------------------------------------------------------------------------*/
FoamFile
{
    version     2.0;
    format      ascii;
    class       volScalarField;
    location    "5e-06";
    object      k;
}
// * * * * * * * * * * * * * * * * * * * * * * * * * * * * * * * * * * * * * //

dimensions      [0 2 -2 0 0 0 0];

internalField   nonuniform List<scalar> 
7500
(
1.000592e-05
1.0030799e-05
1.0073066e-05
1.0197458e-05
1.0502182e-05
1.0808079e-05
1.1075446e-05
1.1159118e-05
1.1457133e-05
1.1960618e-05
1.2524844e-05
1.2938636e-05
1.3390985e-05
1.3659492e-05
1.4020095e-05
1.4378833e-05
1.4651707e-05
1.4868391e-05
1.5246429e-05
1.5514483e-05
1.6189126e-05
1.6811291e-05
1.7722751e-05
1.8827076e-05
1.9781794e-05
2.0821901e-05
2.2926783e-05
2.6268374e-05
2.8937056e-05
3.0620018e-05
3.171569e-05
3.3547263e-05
3.7450108e-05
4.2054452e-05
4.4860743e-05
4.7941699e-05
5.2748117e-05
6.4831099e-05
8.1222406e-05
0.00012611402
0.00017171412
0.00021542187
0.00030800798
0.00051070761
0.0013371807
0.004471791
0.01966171
0.097011668
0.53138772
2.5051235
4.0989955
2.3208406
0.53355151
0.097571182
0.014428237
0.0019289632
0.00031259683
7.2696136e-05
2.1952876e-05
7.7087924e-06
2.9855284e-06
1.2400187e-06
5.4235227e-07
2.4642324e-07
1.1501011e-07
5.4568385e-08
2.6046153e-08
1.2362957e-08
5.7559694e-09
2.5836915e-09
1.0929741e-09
4.234863e-10
1.4417469e-10
4.6936982e-11
1.4329745e-11
1.0006159e-05
1.0038275e-05
1.0101954e-05
1.0242444e-05
1.0501099e-05
1.0809815e-05
1.1041828e-05
1.1196387e-05
1.1464577e-05
1.1866424e-05
1.2363936e-05
1.2762102e-05
1.3219704e-05
1.3510061e-05
1.4116269e-05
1.4694344e-05
1.536245e-05
1.5889189e-05
1.639312e-05
1.7436748e-05
1.8899445e-05
1.9607436e-05
2.037625e-05
2.207712e-05
2.3503359e-05
2.4683723e-05
2.6225912e-05
3.0305957e-05
3.3804711e-05
3.6263384e-05
3.8579952e-05
4.1613535e-05
4.9126205e-05
6.2093734e-05
7.0460273e-05
7.7084481e-05
8.666648e-05
0.00010354563
0.00014763748
0.00024209344
0.00032262797
0.00036430309
0.00048184243
0.00063618753
0.0013373513
0.0033791371
0.011330319
0.052652466
0.27655541
1.4165468
2.6529611
2.1590641
0.66325669
0.12618765
0.017337797
0.0020701733
0.0003071469
6.9612386e-05
2.1065535e-05
7.4363821e-06
2.8931928e-06
1.2062487e-06
5.2930243e-07
2.4118126e-07
1.1285125e-07
5.366878e-08
2.567224e-08
1.2210704e-08
5.6967995e-09
2.5627191e-09
1.0868472e-09
4.2257236e-10
1.4452195e-10
4.7834038e-11
1.4618231e-11
1.0033936e-05
1.016286e-05
1.0250448e-05
1.0523439e-05
1.0794039e-05
1.1509136e-05
1.2138078e-05
1.2734669e-05
1.3620728e-05
1.5243565e-05
1.6460858e-05
1.7479045e-05
1.810755e-05
1.8781948e-05
2.0448483e-05
2.1734974e-05
2.3160918e-05
2.4637736e-05
2.5660326e-05
2.7638893e-05
3.174097e-05
3.4602508e-05
3.7023677e-05
4.2864822e-05
4.8086775e-05
5.1368565e-05
5.6018641e-05
6.907893e-05
8.2379173e-05
9.1656399e-05
0.00010013678
0.00011208124
0.00014116001
0.00019615133
0.00023138971
0.00025817803
0.00029429192
0.0003613657
0.00050521435
0.00086837161
0.0011764086
0.0012684239
0.0013624508
0.0015178091
0.0020161022
0.0043341493
0.011032731
0.039848243
0.20311099
1.1662371
2.3759052
2.125481
0.72238761
0.13754874
0.01935275
0.0023753645
0.00036096988
8.3087837e-05
2.5356718e-05
8.9974374e-06
3.5124651e-06
1.4678392e-06
6.4511568e-07
2.9426594e-07
1.3777785e-07
6.5538905e-08
3.1344597e-08
1.4898369e-08
6.9410124e-09
3.1147368e-09
1.3153288e-09
5.0753566e-10
1.7109705e-10
5.5213998e-11
1.5705691e-11
1.0086188e-05
1.0445281e-05
1.0529533e-05
1.0962458e-05
1.1966156e-05
1.4274653e-05
1.6276061e-05
1.8281723e-05
2.093969e-05
2.4519372e-05
2.6827477e-05
2.9247319e-05
3.0207428e-05
3.2228234e-05
3.5111003e-05
3.8479718e-05
4.2940931e-05
4.5783807e-05
4.8822995e-05
5.3556683e-05
6.4909509e-05
7.5454588e-05
8.2496263e-05
9.549242e-05
0.00011747002
0.00012857848
0.00014219159
0.00017949656
0.00022415843
0.00025717273
0.00028945802
0.00033761475
0.00045771997
0.00064316403
0.0007469136
0.00083846956
0.0009592102
0.0011782556
0.0016504483
0.0029252497
0.0040232985
0.0044520009
0.0047411087
0.0048475138
0.0052641353
0.0070498607
0.015206485
0.040754882
0.13950898
0.84797884
3.9828385
3.4505894
1.0198622
0.187617
0.025742467
0.0030094483
0.00043182231
9.7329962e-05
2.9735028e-05
1.0589604e-05
4.1453978e-06
1.7356706e-06
7.6387369e-07
3.4878163e-07
1.6341676e-07
7.7769834e-08
3.7201567e-08
1.7680742e-08
8.233552e-09
3.6910892e-09
1.5558054e-09
5.9827099e-10
2.0034226e-10
6.4026111e-11
1.7193355e-11
1.001674e-05
1.0182801e-05
1.1023721e-05
1.2594906e-05
1.6092861e-05
1.9837267e-05
2.6160438e-05
3.0494186e-05
3.3080053e-05
3.6012097e-05
4.1311428e-05
4.5552405e-05
4.8697321e-05
5.3382527e-05
6.0183433e-05
6.7279968e-05
7.7975079e-05
8.7179504e-05
9.3404133e-05
0.00010691092
0.00013728171
0.00016639887
0.00018568137
0.00020676815
0.00026547555
0.00032132904
0.00037337278
0.00050396963
0.00061202887
0.00070899973
0.00083966351
0.0010640623
0.0015922965
0.0021223118
0.002361399
0.0026032843
0.0030248363
0.0039181964
0.0060210951
0.010955547
0.01469263
0.016048914
0.016191581
0.015367914
0.015437473
0.017653516
0.027566308
0.066329075
0.18131921
0.61595177
3.0631753
9.4545795
4.0743859
0.59727945
0.061460708
0.0052432829
0.00056831515
0.00011561908
3.5087994e-05
1.2556869e-05
4.9349744e-06
2.0720598e-06
9.137825e-07
4.1786919e-07
1.9601543e-07
9.3365721e-08
4.4690185e-08
2.1248151e-08
9.8960384e-09
4.4354309e-09
1.868239e-09
7.173474e-10
2.3950033e-10
7.6307511e-11
1.9369386e-11
1.007394e-05
1.0705725e-05
1.2105414e-05
1.4022727e-05
1.7686212e-05
2.3675107e-05
2.973974e-05
3.7786669e-05
4.3971542e-05
4.6821921e-05
5.4482439e-05
6.3188893e-05
6.812316e-05
7.5337145e-05
8.9076839e-05
0.00011060174
0.00014625524
0.00016159993
0.00018180629
0.00022314768
0.00030054597
0.00036643785
0.00040875048
0.00046383215
0.00060917282
0.00082909054
0.0011303202
0.0015937008
0.0018158917
0.0021420324
0.0028275759
0.0040216232
0.0061979822
0.0077979715
0.0084106458
0.0092050415
0.010690207
0.014326027
0.025554151
0.044615288
0.054701551
0.057291874
0.056870085
0.049449064
0.045464164
0.047285006
0.064064857
0.137119
0.33392307
0.76274208
2.2300108
5.6458253
4.6964759
0.88608954
0.085068667
0.0065803511
0.00066321573
0.0001333759
4.0835271e-05
1.4724657e-05
5.8186061e-06
2.4531928e-06
1.0854601e-06
4.9776682e-07
2.3406522e-07
1.1173416e-07
5.358969e-08
2.5526979e-08
1.1909765e-08
5.3470478e-09
2.256054e-09
8.6787867e-10
2.9045171e-10
9.3140737e-11
2.2482396e-11
1.0451954e-05
1.2855146e-05
1.6662601e-05
1.962462e-05
2.3719952e-05
3.2336462e-05
4.045422e-05
4.9913356e-05
7.0794628e-05
7.3433072e-05
8.3029907e-05
0.00010747996
0.00011934381
0.00013256472
0.00015616479
0.00021226971
0.00029739422
0.00034207197
0.00039945809
0.00054294554
0.00075989551
0.00093172963
0.0010604779
0.001268326
0.001780864
0.0029486204
0.0044815668
0.0060021539
0.0067216047
0.0081012508
0.011975191
0.018082169
0.026639224
0.031885024
0.033697824
0.036469192
0.042249507
0.058263675
0.11033582
0.17482037
0.20059028
0.203498
0.19816563
0.16638725
0.13451713
0.13080935
0.14554696
0.24552281
0.73142951
1.3269329
2.4077943
3.9476676
3.5148198
0.97554345
0.098774162
0.0074975491
0.00073686916
0.00014816806
4.5853454e-05
1.667382e-05
6.6283307e-06
2.8072071e-06
1.2466158e-06
5.7343586e-07
2.703883e-07
1.2940168e-07
6.2215025e-08
2.97083e-08
1.3896669e-08
6.2576933e-09
2.6502791e-09
1.025157e-09
3.4630848e-10
1.1324523e-10
2.6499058e-11
1.1133629e-05
1.281646e-05
1.9216771e-05
2.5066167e-05
3.7229197e-05
4.1292229e-05
5.1569342e-05
5.9451897e-05
7.0068674e-05
8.3754928e-05
0.00011555839
0.00016165625
0.00019861568
0.00022723141
0.00027563936
0.00040284859
0.00061219871
0.00073275169
0.00092352942
0.0015096676
0.0023145321
0.0028698616
0.0034972519
0.0045889497
0.0074635724
0.013311852
0.020713952
0.026637736
0.029286278
0.034943016
0.055005641
0.082283395
0.11297444
0.1287917
0.13427788
0.14324072
0.16351155
0.2252159
0.41629805
0.59830904
0.65409767
0.65185258
0.62316104
0.52460582
0.41622463
0.36948833
0.37470376
0.44724236
0.89150003
2.528539
3.5848966
4.4640457
4.4013774
1.4063098
0.13041749
0.0088740984
0.00080098595
0.00015965475
5.0078625e-05
1.838586e-05
7.3571446e-06
3.1312708e-06
1.3960584e-06
6.4436055e-07
3.0475793e-07
1.4626894e-07
7.0523975e-08
3.3775569e-08
1.5851489e-08
7.1667529e-09
3.0519104e-09
1.1904691e-09
4.081314e-10
1.374441e-10
3.164318e-11
1.0725068e-05
1.6374637e-05
2.2354316e-05
2.3777537e-05
2.5750788e-05
3.0071856e-05
4.3202805e-05
6.4339379e-05
7.4443502e-05
0.00010037321
0.00016389463
0.00028609959
0.00032821167
0.00040759911
0.00057524047
0.0010348997
0.0017535576
0.002247607
0.0031405363
0.0060750812
0.010046731
0.012401275
0.015514699
0.021307288
0.038892401
0.064761598
0.097775953
0.12006147
0.12836121
0.14966513
0.23478071
0.34039689
0.43317706
0.46785728
0.47971785
0.50245935
0.56016735
0.75149683
1.3026497
1.7399884
1.8332726
1.7896544
1.6799419
1.4573555
1.204874
1.0402494
1.0027126
1.0441808
1.386387
3.591209
11.405573
15.55528
10.765099
1.5194402
0.12407258
0.008226747
0.00077967841
0.0001663399
5.3505997e-05
1.9861984e-05
8.0044885e-06
3.4249087e-06
1.5335266e-06
7.1041302e-07
3.3711549e-07
1.6231111e-07
7.8507604e-08
3.7726957e-08
1.7775272e-08
8.0761594e-09
3.4628851e-09
1.365412e-09
4.77105e-10
1.6665909e-10
3.8179441e-11
1.1821382e-05
1.6030337e-05
2.6211884e-05
2.6285014e-05
2.9976765e-05
4.3788929e-05
7.5326702e-05
0.00019186154
0.00022320631
0.00028330189
0.00041605934
0.00073257678
0.0010397606
0.001474066
0.002471767
0.0046728606
0.0077033631
0.010753433
0.015966365
0.032273638
0.053578017
0.064293932
0.078608208
0.10728085
0.20405702
0.29769293
0.41468893
0.495525
0.51596856
0.58579393
0.89408936
1.2055024
1.4117917
1.4606168
1.4698861
1.5043965
1.6502703
2.1807942
3.5217823
4.4777209
4.6639666
4.4388728
4.0929591
3.7454084
3.2087649
2.7107821
2.4335381
2.3965391
2.6297786
4.9187557
17.071844
23.446307
9.6231108
1.1292042
0.087281592
0.0060637167
0.00070084177
0.00016931998
5.6196828e-05
2.110929e-05
8.5712836e-06
3.688089e-06
1.6588945e-06
7.7150425e-07
3.6741101e-07
1.7750329e-07
8.6154971e-08
4.1558715e-08
1.9667683e-08
8.9869845e-09
3.8846683e-09
1.5513853e-09
5.5439089e-10
2.01885e-10
4.6406021e-11
1.0545702e-05
1.3424926e-05
2.5895222e-05
3.4988934e-05
5.8993329e-05
0.00012225234
0.0002288899
0.00046408542
0.00063978165
0.00081526443
0.0012934836
0.0028249907
0.0044196724
0.0072677809
0.014001719
0.025688037
0.041444501
0.06182806
0.091145683
0.1667183
0.26973286
0.31736993
0.37778225
0.50556443
0.94700617
1.1997014
1.5278757
1.7789238
1.8329988
2.0406864
2.9059924
3.5963382
3.8893521
3.9052945
3.876803
3.9483063
4.3502936
5.9445074
8.9146551
10.810715
11.904685
11.538367
10.554943
9.7398389
8.4752986
6.9924578
5.5602459
4.8132455
4.7497365
6.3596182
15.623605
17.249881
5.0480454
0.55310245
0.045906619
0.0039798019
0.00062431784
0.00017057563
5.824235e-05
2.2139337e-05
9.0599204e-06
3.921333e-06
1.7722577e-06
8.2763726e-07
3.9563371e-07
1.9183731e-07
9.3462148e-08
4.5269882e-08
2.152938e-08
9.9005782e-09
4.3187714e-09
1.749779e-09
6.4116552e-10
2.4420922e-10
5.6661491e-11
1.1001849e-05
1.836396e-05
3.1496217e-05
0.0001033639
0.00015557647
0.00029628523
0.00060143257
0.00099175869
0.0016590849
0.002862998
0.0057732431
0.014909975
0.025690615
0.043925845
0.083941594
0.14484082
0.20981738
0.3442944
0.4761457
0.74990173
1.1574295
1.3883902
1.6054529
2.0751367
3.6335749
4.2588611
4.9227056
5.5980266
5.7425927
6.3006834
8.1382298
9.2056838
9.4110562
9.3152494
9.2516292
9.5982498
11.361069
17.162277
22.335025
24.878879
35.978305
40.063792
35.238412
28.194553
23.410625
18.829299
13.842704
9.6961672
8.153381
9.0414637
13.39809
11.092895
2.3739347
0.27038083
0.025233999
0.0028721583
0.00057752516
0.00017088555
5.9709728e-05
2.296526e-05
9.4735263e-06
4.1254336e-06
1.8738151e-06
8.7885643e-07
4.2178965e-07
2.053118e-07
1.0042784e-07
4.8860392e-08
2.3361227e-08
1.081827e-08
4.766634e-09
1.9619774e-09
7.3865358e-10
2.9481339e-10
6.9322469e-11
1.4611792e-05
4.8171014e-05
9.6601315e-05
0.00017179733
0.0003339222
0.00062521763
0.0012610581
0.0028973129
0.0066759435
0.014349884
0.031850387
0.084170569
0.1481255
0.2383542
0.4271669
0.71631813
0.96091417
1.5429513
2.0342473
2.8705887
4.3202084
5.2707934
5.9545417
7.3242579
11.901504
13.4529
14.23105
16.109227
16.440289
17.736166
20.903613
20.907608
20.958701
20.628779
20.99944
26.342449
36.992164
52.153453
52.246859
54.337362
66.957918
100.18332
93.80541
71.690557
57.252244
45.211989
33.172204
21.293853
14.631771
14.463568
17.9197
9.9061995
1.4636642
0.15534199
0.015989435
0.0023066773
0.000545659
0.00017012839
6.0652869e-05
2.3601191e-05
9.8157073e-06
4.3013599e-06
1.9638297e-06
9.2522841e-07
4.4589214e-07
2.1792729e-07
1.0705083e-07
5.2329774e-08
2.5163652e-08
1.1741054e-08
5.2295142e-09
2.1892692e-09
8.4809341e-10
3.5494923e-10
8.4806467e-11
1.5280138e-05
8.1205372e-05
0.00016158154
0.00033809652
0.00079043192
0.0021245563
0.0052574656
0.014676776
0.038065334
0.080543602
0.17275986
0.42453793
0.71296786
1.1024928
1.7636327
2.9211153
3.7398775
5.6149718
7.1115473
9.9295474
14.553363
17.300244
19.582495
23.386602
36.340265
39.200853
39.364496
45.515861
47.104358
50.09002
53.996498
49.380034
42.819408
43.080374
49.935214
112.42151
98.725467
79.020533
70.55361
72.282814
85.29537
88.43092
103.0283
113.36018
108.94095
89.59334
73.22877
46.699829
32.044967
34.506607
39.091839
9.7099376
1.0003078
0.098275783
0.011178938
0.0019630392
0.00051897024
0.00016836014
6.1128328e-05
2.406198e-05
1.0090435e-05
4.450232e-06
2.0426227e-06
9.6684197e-07
4.6796234e-07
2.2968675e-07
1.1333035e-07
5.5677347e-08
2.6936743e-08
1.266964e-08
5.7084683e-09
2.4328576e-09
9.7074484e-10
4.2595283e-10
1.0355658e-10
1.0542565e-05
3.6331503e-05
0.00015571238
0.0010334796
0.0033433255
0.01046918
0.027485264
0.079444714
0.21382593
0.40634495
0.8327519
1.8432225
2.7720038
4.4655237
6.1513916
10.153235
12.6766
17.687516
22.433221
34.049464
45.450836
51.037805
63.521751
75.058937
116.32503
116.98775
104.26234
159.03355
161.84039
176.1168
142.24878
104.4198
74.564589
67.315008
123.45103
110.2499
109.2423
86.507313
95.149735
107.36788
136.81273
132.66104
130.32311
147.05832
149.2247
144.46356
174.56284
187.00823
160.63203
120.57839
41.651803
5.7719118
0.59802905
0.061417445
0.0081787767
0.0017190439
0.00049418819
0.00016565583
6.1188264e-05
2.4362721e-05
1.0301933e-05
4.5732916e-06
2.1105668e-06
1.0038063e-06
4.8802918e-07
2.4059569e-07
1.192662e-07
5.8902321e-08
2.8680303e-08
1.3604478e-08
6.2043804e-09
2.6938702e-09
1.1078298e-09
5.0924717e-10
1.2605205e-10
1.2915453e-05
8.3962177e-05
0.00081644416
0.0042550237
0.01665279
0.052795717
0.13772802
0.39134598
1.0336831
1.7755399
3.6188219
6.6991833
9.4504044
14.945333
19.804879
32.295017
39.951098
54.602076
73.113237
122.43296
134.07784
149.41505
258.72123
278.33821
438.13588
321.61242
268.29605
685.95421
520.98006
330.92827
165.12962
141.10729
109.39267
76.641512
74.918093
70.530813
93.404119
89.565689
78.984109
97.799885
115.99245
115.8994
106.1788
133.03716
122.90983
168.59323
192.37565
284.29787
249.26354
114.44618
25.651591
3.0727625
0.33397412
0.038249484
0.006242391
0.001534388
0.00047048251
0.00016219526
6.0893891e-05
2.4518386e-05
1.0454576e-05
4.6718739e-06
2.1680782e-06
1.0362491e-06
5.0612877e-07
2.5066219e-07
1.2485883e-07
6.2003847e-08
3.0393889e-08
1.4545762e-08
6.7179715e-09
2.9733713e-09
1.2605455e-09
6.0626239e-10
1.5279916e-10
7.9560243e-06
0.00047980376
0.0045465197
0.024114893
0.088487189
0.2609544
0.63917791
1.7090848
4.1410035
6.5769771
13.774199
20.941453
29.0328
45.65021
62.541419
102.65345
129.80489
192.21492
274.26468
455.5459
392.41043
477.70015
1101.1029
913.29095
756.87064
329.90904
627.90075
1243.201
547.79237
205.73005
131.2801
115.91441
162.08221
109.27207
78.950948
115.40159
109.60902
113.10359
112.39065
174.02821
162.3633
189.57862
189.37539
203.62754
164.85127
163.35118
323.11336
250.0517
187.18257
68.883732
11.950667
1.5204612
0.17964036
0.024364648
0.0049797415
0.0013887691
0.00044761192
0.00015813481
6.0300678e-05
2.4542481e-05
1.0552793e-05
4.7473793e-06
2.2156077e-06
1.0643136e-06
5.223038e-07
2.5989668e-07
1.3010933e-07
6.4981054e-08
3.207682e-08
1.5493468e-08
7.2497355e-09
3.2722622e-09
1.4301192e-09
7.1843276e-10
1.8431039e-10
4.6742071e-07
0.0029819206
0.025437647
0.12511292
0.4199623
1.1434029
2.6016637
6.6937903
14.016373
21.424399
46.710315
61.494948
87.936512
150.71325
215.84401
355.95334
483.23916
810.73938
1205.346
1029.2736
801.59066
1504.5766
1493.2522
710.49322
186.62963
100.29773
391.49807
197.18702
122.85926
88.824676
133.79449
124.8765
245.49105
183.88105
109.20727
127.4508
118.73131
98.582186
116.16438
145.64041
157.14754
156.46756
185.31694
313.42503
232.81292
315.68575
320.24159
289.6142
123.97395
25.126459
4.6998475
0.70072222
0.095143956
0.016419094
0.0041525873
0.0012703255
0.00042550438
0.00015361006
5.9437596e-05
2.4451059e-05
1.0601003e-05
4.8012509e-06
2.2536336e-06
1.088157e-06
5.3660288e-07
2.6831191e-07
1.3501944e-07
6.7833069e-08
3.3728217e-08
1.644729e-08
7.8000574e-09
3.5913019e-09
1.6176501e-09
8.4725558e-10
2.211052e-10
3.2706891e-05
0.017750148
0.13212083
0.57460149
1.7411386
4.3681378
9.262051
23.243148
42.839283
66.160836
154.27663
187.13651
288.60001
589.30803
863.73977
1376.989
1595.8806
2152.2706
1636.6183
343.08857
720.92195
842.72462
218.4463
131.38263
83.15587
83.730368
162.7201
231.41182
105.91515
85.019862
161.35633
163.79909
297.07499
308.9009
182.73357
130.39693
119.2777
100.01042
125.45895
151.37014
182.30077
187.34836
254.93126
235.30994
259.17199
255.96256
748.62368
570.72932
133.82903
24.901718
2.4388186
0.3647712
0.056584326
0.01220003
0.0035990126
0.0011707767
0.00040412092
0.00014873329
5.8352922e-05
2.425954e-05
1.0603052e-05
4.8349488e-06
2.2826546e-06
1.1079473e-06
5.490798e-07
2.7592267e-07
1.3959153e-07
7.0559046e-08
3.5347e-08
1.7406768e-08
8.3690735e-09
3.93131e-09
1.8241763e-09
9.9412436e-10
2.6371349e-10
0.00088546773
0.094806111
0.60753198
2.3162541
6.3541325
14.631043
29.795662
75.124475
129.4295
209.1364
539.9071
591.35224
1162.8764
1764.8498
2184.6207
1996.6319
1726.1273
995.1737
174.50175
73.907256
228.26136
258.65008
113.05762
104.36273
69.864001
98.676513
138.20298
142.68573
99.171968
111.74103
138.69649
149.23219
153.37069
209.96148
168.59453
130.30251
127.47034
122.19308
118.46204
149.12098
187.39384
200.14045
186.21235
281.18077
212.80868
227.57491
511.28828
1249.6872
180.6385
29.147944
2.5688846
0.29579131
0.044570276
0.010397344
0.0032193582
0.0010852848
0.00038349472
0.0001436011
5.7083836e-05
2.3974755e-05
1.0564476e-05
4.8499432e-06
2.3031831e-06
1.1238618e-06
5.5979295e-07
2.827457e-07
1.438286e-07
7.3158178e-08
3.6931925e-08
1.837116e-08
8.9567303e-09
4.2927463e-09
2.0507927e-09
1.1605062e-09
3.1263372e-10
0.0090722657
0.45177617
2.4625187
8.2009508
20.703215
43.941971
91.613222
246.22867
414.97986
738.94243
1651.3946
1621.8982
2447.3292
1838.9583
1292.6297
935.6865
269.69402
112.89688
47.668563
58.704669
172.35672
161.36936
86.79433
82.218845
54.537812
57.470118
89.37363
103.58973
106.85884
167.60708
175.42415
161.43931
179.78682
170.14868
137.64794
138.3716
141.03379
154.25415
156.1475
188.0489
208.17488
201.77165
174.47186
183.50813
144.63314
149.18107
230.42033
1146.9562
831.29047
29.670984
2.8629114
0.36433364
0.051163328
0.010861828
0.0031433765
0.001020834
0.0003640571
0.00013830411
5.566305e-05
2.3611032e-05
1.0489076e-05
4.8474284e-06
2.3157379e-06
1.1360849e-06
5.6880456e-07
2.8879951e-07
1.4773424e-07
7.562972e-08
3.8481588e-08
1.933955e-08
9.5628364e-09
4.6760156e-09
2.2981617e-09
1.34759e-09
3.6839817e-10
0.067030923
1.9491491
8.8038439
25.869877
61.07763
125.72811
289.98186
878.32557
1524.0152
1925.2724
1939.1329
1846.7776
1570.8404
302.86456
245.13075
595.41356
432.49671
80.255868
57.307945
54.540135
108.37318
157.86066
51.20909
50.921054
49.612743
56.766019
78.111625
63.263256
70.1476
120.68449
218.97316
167.83922
173.71844
142.74592
127.22534
165.02287
172.74606
144.81151
136.97947
203.12987
250.34691
230.73456
178.2381
164.17522
243.72786
188.7705
168.68718
543.54024
1261.8055
750.91747
65.525416
3.7459928
0.27578146
0.025456426
0.0038572172
0.0010037405
0.00034657087
0.000132917
5.4119499e-05
2.3179187e-05
1.0379607e-05
4.8296052e-06
2.3208397e-06
1.1448061e-06
5.7618023e-07
2.9410418e-07
1.5131265e-07
7.7973008e-08
3.9994452e-08
2.0310809e-08
1.0186954e-08
5.0813371e-09
2.567321e-09
1.5566126e-09
4.3138446e-10
0.40559744
7.5340867
28.026153
74.632563
172.90587
363.9901
1052.7938
2347.4885
2568.9018
1686.141
510.90046
719.87343
571.34855
163.50069
166.79541
110.05702
159.14622
68.430453
73.336099
45.90416
76.987014
75.141159
47.485513
62.174986
63.63837
47.272361
63.480082
52.726833
82.325573
163.08688
139.5021
127.78627
118.43369
140.14009
177.34572
170.08333
187.61899
153.31046
157.18373
272.00784
303.23518
267.94708
199.40221
174.90267
189.00053
228.90766
175.43269
241.96917
767.27593
721.62405
348.55158
37.30941
2.1749209
0.11164463
0.006946643
0.0010321995
0.00032991538
0.00012745333
5.2477885e-05
2.2689198e-05
1.0240526e-05
4.7972537e-06
2.3189302e-06
1.1502175e-06
5.8198816e-07
2.9868119e-07
1.5456854e-07
8.0187463e-08
4.1468861e-08
2.1283618e-08
1.0828424e-08
5.5088796e-09
2.8587329e-09
1.7888108e-09
5.0206191e-10
2.1211782
26.10988
80.710403
204.56886
513.22431
1182.606
2040.7289
2135.4896
1167.1964
342.92424
188.81061
406.2414
183.03055
104.58641
169.91378
110.00967
172.68393
49.255217
62.098042
60.304729
64.087598
43.824425
48.681246
84.376334
76.030179
49.950722
50.177195
45.487775
57.968706
158.74171
159.11296
118.91998
127.22653
153.12312
158.1625
214.37748
202.21481
178.2109
184.95533
331.91364
323.51679
283.00057
235.36242
231.01321
188.05705
271.17056
230.31079
186.74479
333.07394
406.2663
266.89632
44.688613
3.2621782
0.15398637
0.0078528814
0.00099601051
0.00031199834
0.00012193009
5.0760481e-05
2.2150223e-05
1.0075369e-05
4.7516909e-06
2.3108114e-06
1.1525139e-06
5.8629873e-07
3.0255329e-07
1.5750719e-07
8.2272621e-08
4.2903055e-08
2.2256501e-08
1.1486529e-08
5.9584312e-09
3.1727059e-09
2.0448078e-09
5.8084197e-10
9.7957849
82.242161
214.25122
567.81783
1703.0617
2137.0699
1383.0871
600.46443
200.32742
76.315652
141.33159
297.14474
658.99996
75.974022
100.67924
59.221623
93.079911
41.795054
30.781495
78.629548
63.721026
52.716536
52.253524
102.92512
88.261437
56.474289
44.999975
44.306508
64.961158
121.24166
146.84263
136.20776
212.79994
143.73997
148.00503
321.99411
252.21914
175.25305
181.25341
330.38201
324.21181
299.16062
237.7221
176.69347
112.55647
201.89017
318.37438
218.00635
222.2312
237.63649
191.48085
44.387225
3.2172366
0.14843245
0.0072473525
0.00090853408
0.00029340897
0.00011640018
4.8987482e-05
2.1570619e-05
9.887466e-06
4.6943749e-06
2.296717e-06
1.1518622e-06
5.8918367e-07
3.0574429e-07
1.6013435e-07
8.4228129e-08
4.4295219e-08
2.3227735e-08
1.2160192e-08
6.4296973e-09
3.5102041e-09
2.3255116e-09
6.678498e-10
40.742474
233.26182
549.24755
1676.7624
2320.1396
1553.3209
661.49837
202.88286
28.969737
47.182232
120.02516
230.43705
668.9782
30.242285
62.004089
68.927482
62.346096
43.140063
28.114229
33.212979
57.291187
53.289175
44.823802
141.1761
122.82918
64.732021
47.560486
51.516294
73.348479
78.592789
171.4124
229.54345
192.39152
124.21555
102.04047
239.77186
275.65588
237.61367
322.57216
312.36636
330.88794
272.00834
291.02052
196.95897
127.27283
166.96281
386.96019
333.79326
237.95639
242.97248
208.27148
38.870897
2.4106014
0.10475087
0.0051471417
0.00079181259
0.00027498869
0.00011091739
4.7176981e-05
2.095806e-05
9.6799382e-06
4.626555e-06
2.2771849e-06
1.1485504e-06
5.9071645e-07
3.0827896e-07
1.6245626e-07
8.6053786e-08
4.5643418e-08
2.4195564e-08
1.2848293e-08
6.922152e-09
3.8706693e-09
2.6318145e-09
7.6351939e-10
155.8461
602.28317
1483.873
2165.1595
1099.7788
744.49479
243.2673
44.51428
14.039883
33.32412
107.01606
149.63398
84.304022
21.12292
44.254012
38.899954
17.762944
20.069848
34.356518
30.400961
49.856767
84.411239
42.052153
82.256387
143.84102
88.63642
52.121148
71.716798
79.089398
81.424676
101.02394
126.57633
113.39883
116.61794
122.73913
177.83846
239.00733
284.60537
432.46842
320.59382
352.17668
288.97267
301.03991
397.31168
261.32877
149.45081
339.22577
433.44781
392.09684
369.95795
194.22811
20.721578
1.165392
0.051193914
0.0032336499
0.00069494462
0.00025776659
0.00010552514
4.5344198e-05
2.031924e-05
9.4556066e-06
4.5493978e-06
2.2527311e-06
1.1426858e-06
5.9096361e-07
3.1018225e-07
1.6447942e-07
8.7749449e-08
4.6945739e-08
2.5158055e-08
1.3549487e-08
7.4353782e-09
4.253813e-09
2.9636605e-09
8.6807709e-10
499.54289
1620.8321
2465.7157
1375.0584
485.05689
333.43479
68.428256
33.780719
11.316779
32.352044
78.226067
80.089351
26.820054
17.998365
35.21488
18.096992
13.807646
17.681918
52.416682
39.848764
48.908346
62.115793
39.681565
39.732077
139.91041
96.6971
60.282185
111.66534
89.918813
90.967681
111.77873
125.21269
128.41087
127.90709
157.96924
188.53635
293.18067
279.51674
515.40501
311.98428
351.51872
291.56801
289.89831
407.23491
257.89452
233.51034
186.83626
430.73289
460.83174
369.35954
101.2787
8.6246283
0.47386146
0.022890391
0.002198044
0.00062439973
0.00024163281
0.00010022957
4.3501538e-05
1.9660959e-05
9.2175939e-06
4.4642559e-06
2.2239223e-06
1.1345061e-06
5.9002754e-07
3.1149158e-07
1.6621615e-07
8.9317629e-08
4.8201266e-08
2.6113504e-08
1.4262173e-08
7.9684688e-09
4.6602645e-09
3.3209247e-09
9.8159944e-10
1497.0402
3061.6188
2160.591
736.92762
195.93348
126.59471
35.09226
65.900761
10.343739
29.801949
51.412848
49.035467
24.131064
17.613227
28.605324
17.616093
13.060192
20.003619
71.501706
51.458669
45.816319
39.707095
40.579891
36.468996
101.99901
94.79322
87.878058
94.821948
89.88581
91.729437
92.102885
96.890853
95.973139
91.879135
129.34267
160.65297
281.74602
301.51062
273.54621
231.7967
351.86238
279.07242
322.98262
389.20566
1380.9398
1006.5147
146.37501
318.29718
406.62416
237.57436
40.02476
3.1274308
0.17651553
0.010700278
0.0016966966
0.00057169626
0.00022689549
9.517869e-05
4.169163e-05
1.8995203e-05
8.9690984e-06
4.3718273e-06
2.1907902e-06
1.1239174e-06
5.8780457e-07
3.1211644e-07
1.6760276e-07
9.0714314e-08
4.9380229e-08
2.704195e-08
1.4973313e-08
8.5110746e-09
5.0827743e-09
3.6992522e-09
1.1032983e-09
4250.9645
3146.7187
849.76733
194.38834
67.43478
39.263264
27.724878
59.78886
9.4729351
25.031973
45.324401
80.508027
31.814652
16.443169
23.424102
18.442435
14.231622
15.5044
76.650201
72.35137
44.876706
33.398271
40.227456
36.965766
63.657841
88.940706
80.472838
123.01197
101.24992
88.984986
101.70746
122.0153
112.37461
116.04442
255.59595
190.88129
170.51356
280.97173
393.23075
203.61176
409.63385
368.65533
368.69535
556.15981
1468.9442
2299.569
632.28911
135.88923
214.88127
96.481733
13.777566
1.0539179
0.065065421
0.0058953955
0.0014219211
0.00052275785
0.00021135231
8.971225e-05
3.9696329e-05
1.8247085e-05
8.6835917e-06
4.2625088e-06
2.1498405e-06
1.1096819e-06
5.8385176e-07
3.1184947e-07
1.6852039e-07
9.1888865e-08
5.0464095e-08
2.7938396e-08
1.5683212e-08
9.0684754e-09
5.5248015e-09
4.1007377e-09
1.2352061e-09
7980.2626
1466.5011
210.21266
38.707572
26.692399
19.564313
23.311318
39.807723
7.5377471
23.030461
54.690578
185.65454
36.96343
16.507417
19.547861
15.081104
15.302499
26.2482
76.035642
99.229198
47.858194
32.630154
40.443347
39.495079
61.426278
82.615858
80.591485
143.13353
104.1161
90.422933
117.38104
117.85566
84.966568
82.98427
152.76585
170.90467
164.81058
219.75606
249.78846
165.09635
360.6772
372.91369
347.90287
607.23094
797.13868
1011.2572
987.36632
118.47933
85.619464
33.883834
4.3587717
0.34370156
0.026275982
0.0040303483
0.0012659379
0.00048813746
0.00020057553
8.6116166e-05
3.8463031e-05
1.7819265e-05
8.536678e-06
4.2146518e-06
2.1366774e-06
1.1083124e-06
5.860206e-07
3.1470115e-07
1.7108884e-07
9.3902378e-08
5.1977624e-08
2.9062927e-08
1.6521275e-08
9.7061086e-09
6.0231487e-09
4.5429615e-09
1.3830541e-09
1565.8247
212.91283
32.569916
14.39982
15.769304
22.405736
22.516117
24.729001
6.1946306
24.139408
69.456102
248.65355
42.120581
17.400638
16.383472
13.749532
17.267985
43.213718
73.232776
106.28555
71.592864
32.40475
40.111472
43.200148
71.62313
76.189223
97.255917
123.18399
94.33532
94.87558
105.87635
89.040689
85.803423
101.76052
125.87572
211.16354
169.05377
259.29831
349.68194
183.55603
110.71035
474.96917
308.82621
422.92937
390.04687
493.52587
437.34164
79.663047
29.508892
10.794745
1.3313039
0.11563225
0.013039807
0.0031896625
0.0011458986
0.00045458846
0.00018928407
8.2086964e-05
3.6976611e-05
1.7258709e-05
8.3232651e-06
4.1342506e-06
2.1078048e-06
1.0990128e-06
5.8399402e-07
3.1532255e-07
1.7244551e-07
9.5314147e-08
5.3207582e-08
3.0062279e-08
1.7311946e-08
1.0330908e-08
6.5286578e-09
5.0005791e-09
1.5383852e-09
108.60198
17.071132
6.4515682
14.128312
15.585562
26.326564
17.766338
11.625594
5.8746501
24.89197
68.862054
171.89362
41.151804
15.619699
15.228177
15.958217
18.869394
50.340893
72.007169
63.392727
94.486164
33.359599
40.337117
51.204495
76.582931
74.279798
95.725657
94.775076
94.414746
98.55325
111.84294
130.23028
108.55631
106.10823
124.82391
245.84358
174.85652
308.00362
275.96571
95.609748
84.388202
1101.3947
422.05707
421.37929
353.18146
334.30035
306.12993
36.726931
8.9162541
3.2813787
0.42124257
0.044408863
0.00822951
0.0027107727
0.0010428738
0.00042226622
0.00017794667
7.7913329e-05
3.5389714e-05
1.6640286e-05
8.0782705e-06
4.0368026e-06
2.0697288e-06
1.085181e-06
5.7993479e-07
3.1489473e-07
1.7328851e-07
9.6465693e-08
5.4308251e-08
3.100209e-08
1.8080817e-08
1.0953512e-08
7.0410431e-09
5.4727327e-09
1.7012033e-09
4.7680421
1.4180736
2.8021579
15.604098
17.832435
25.095322
8.0425314