/*--------------------------------*- C++ -*----------------------------------*\
| =========                 |                                                 |
| \\      /  F ield         | OpenFOAM: The Open Source CFD Toolbox           |
|  \\    /   O peration     | Version:  2.3.0                                 |
|   \\  /    A nd           | Web:      www.OpenFOAM.org                      |
|    \\/     M anipulation  |                                                 |
\*---------------------------------------------------------------------------*/
FoamFile
{
    version     2.0;
    format      ascii;
    class       volScalarField;
    location    "5e-06";
    object      nuSgs;
}
// * * * * * * * * * * * * * * * * * * * * * * * * * * * * * * * * * * * * * //

dimensions      [0 2 -1 0 0 0 0];

internalField   nonuniform List<scalar> 
7500
(
4.1419154e-10
4.1969985e-10
4.2554161e-10
4.3310398e-10
4.444969e-10
4.5591783e-10
4.6652991e-10
4.7326692e-10
4.8454011e-10
5.0012626e-10
5.1690758e-10
5.305298e-10
5.4491353e-10
5.5553747e-10
5.6802463e-10
5.8045934e-10
5.9114879e-10
6.0069429e-10
6.1348246e-10
6.2404019e-10
6.4270584e-10
6.6022189e-10
6.8324652e-10
7.09677e-10
7.3298619e-10
7.5762503e-10
8.0082118e-10
8.6335678e-10
9.1253929e-10
9.4519162e-10
9.6847868e-10
1.002678e-09
1.0663124e-09
1.1371951e-09
1.1818985e-09
1.2293326e-09
1.2972707e-09
1.4467141e-09
1.6287076e-09
2.0616131e-09
2.4204168e-09
2.7273815e-09
3.2805657e-09
4.2488788e-09
6.9144562e-09
1.2715504e-08
2.6809522e-08
5.9873188e-08
1.4087214e-07
3.0746134e-07
3.953024e-07
2.98942e-07
1.4404074e-07
6.1894305e-08
2.391386e-08
8.7845403e-09
3.5524238e-09
1.7207803e-09
9.497626e-10
5.652296e-10
3.532384e-10
2.2859179e-10
1.5178906e-10
1.0272077e-10
7.0447882e-11
4.8710006e-11
3.3777903e-11
2.3356149e-11
1.5993545e-11
1.0752708e-11
7.0174829e-12
4.382705e-12
2.5655515e-12
1.4685044e-12
8.1392889e-13
4.5561612e-10
4.6184184e-10
4.6876651e-10
4.7746405e-10
4.8892139e-10
5.0154988e-10
5.1240346e-10
5.2146224e-10
5.3316725e-10
5.4796835e-10
5.6493409e-10
5.7958792e-10
5.9555912e-10
6.0773945e-10
6.269665e-10
6.4547253e-10
6.6584879e-10
6.8306978e-10
6.9974784e-10
7.2772843e-10
7.63867e-10
7.8431854e-10
8.0587313e-10
8.4534343e-10
8.7886186e-10
9.0738615e-10
9.4215418e-10
1.020071e-09
1.0849399e-09
1.1314725e-09
1.1749693e-09
1.2284088e-09
1.3434058e-09
1.5200068e-09
1.6293402e-09
1.7147028e-09
1.8291334e-09
2.0111737e-09
2.4154397e-09
3.1420253e-09
3.6494788e-09
3.9014415e-09
4.5134949e-09
5.2164307e-09
7.6063871e-09
1.2158736e-08
2.2386808e-08
4.8520184e-08
1.1179005e-07
2.5432209e-07
3.498234e-07
3.1716827e-07
1.7665693e-07
7.7426749e-08
2.8835845e-08
1.0010439e-08
3.8734525e-09
1.852276e-09
1.0234068e-09
6.1066813e-10
3.8250637e-10
2.4800339e-10
1.6494698e-10
1.1178458e-10
7.6761916e-11
5.3137508e-11
3.688803e-11
2.5533074e-11
1.7502241e-11
1.1779875e-11
7.6975646e-12
4.8157705e-12
2.8255032e-12
1.6307181e-12
9.0428918e-13
5.0187291e-10
5.1116886e-10
5.1941919e-10
5.3236613e-10
5.452634e-10
5.6927099e-10
5.9096153e-10
6.1174498e-10
6.3925966e-10
6.8317426e-10
7.1703167e-10
7.4612184e-10
7.6671955e-10
7.8822784e-10
8.3005641e-10
8.6352499e-10
8.9932352e-10
9.3563678e-10
9.6301829e-10
1.0078354e-09
1.0889201e-09
1.1461159e-09
1.194915e-09
1.2957021e-09
1.3828057e-09
1.4398863e-09
1.5146617e-09
1.6940721e-09
1.8630241e-09
1.978718e-09
2.082261e-09
2.2176079e-09
2.5049505e-09
2.9717342e-09
3.2479125e-09
3.451896e-09
3.707675e-09
4.132852e-09
4.9150552e-09
6.545814e-09
7.6656963e-09
8.0078985e-09
8.3485978e-09
8.8630281e-09
1.0273173e-08
1.5147123e-08
2.4299946e-08
4.6431248e-08
1.0538322e-07
2.5383689e-07
3.6415867e-07
3.4616111e-07
2.0279987e-07
8.8920846e-08
3.3511955e-08
1.1795261e-08
4.6190572e-09
2.2259933e-09
1.2350975e-09
7.3888442e-10
4.6360561e-10
3.009339e-10
2.0031059e-10
1.3582284e-10
9.3298572e-11
6.4592575e-11
4.4836077e-11
3.1023786e-11
2.1251142e-11
1.4285438e-11
9.3149164e-12
5.8055211e-12
3.3817604e-12
1.9272038e-12
1.0310533e-12
5.5349574e-10
5.7004505e-10
5.7908699e-10
5.9769309e-10
6.31516e-10
6.9738589e-10
7.5275144e-10
8.0626505e-10
8.7187644e-10
9.5309365e-10
1.0069194e-09
1.0616628e-09
1.089322e-09
1.1357752e-09
1.1964412e-09
1.2638746e-09
1.3469965e-09
1.4029931e-09
1.4611955e-09
1.5432234e-09
1.712903e-09
1.8617025e-09
1.9620364e-09
2.1273149e-09
2.3774124e-09
2.5058573e-09
2.6544772e-09
3.003861e-09
3.3804926e-09
3.6459243e-09
3.89425e-09
4.2337156e-09
4.9617619e-09
5.9192666e-09
6.4188935e-09
6.8428088e-09
7.3631232e-09
8.2089732e-09
9.7720169e-09
1.3215543e-08
1.5593957e-08
1.6502763e-08
1.713112e-08
1.7423113e-08
1.8260159e-08
2.1250109e-08
3.1381298e-08
5.1652134e-08
9.607237e-08
2.3809293e-07
5.1863895e-07
4.8516446e-07
2.6506108e-07
1.1423628e-07
4.2515392e-08
1.4604227e-08
5.5572902e-09
2.6501539e-09
1.4712334e-09
8.8175847e-10
5.5401109e-10
3.5996329e-10
2.3976654e-10
1.6265682e-10
1.1177027e-10
7.7398274e-11
5.3730337e-11
3.7176488e-11
2.5459928e-11
1.7106172e-11
1.1143769e-11
6.9334531e-12
4.0253213e-12
2.2828338e-12
1.1866581e-12
5.9788251e-10
6.105522e-10
6.4324402e-10
6.9601871e-10
7.9624077e-10
8.9447585e-10
1.0390792e-09
1.1345782e-09
1.1948484e-09
1.2602719e-09
1.3642516e-09
1.4475905e-09
1.5121222e-09
1.5991676e-09
1.7147893e-09
1.8306818e-09
1.989607e-09
2.1234377e-09
2.2181128e-09
2.3944561e-09
2.7373231e-09
3.0398278e-09
3.2384987e-09
3.4460401e-09
3.9368081e-09
4.366127e-09
4.7437229e-09
5.5541197e-09
6.1674231e-09
6.6878482e-09
7.3316811e-09
8.3131398e-09
1.0241611e-08
1.1906408e-08
1.2645233e-08
1.3366449e-08
1.4503314e-08
1.6613814e-08
2.0726391e-08
2.813282e-08
3.2779903e-08
3.4466291e-08
3.4824359e-08
3.4124507e-08
3.43971e-08
3.6989562e-08
4.6477042e-08
7.2484159e-08
1.2047918e-07
2.2321329e-07
5.0031946e-07
8.8339743e-07
5.8277241e-07
2.2420714e-07
7.226243e-08
2.1204569e-08
7.0129032e-09
3.1772783e-09
1.758002e-09
1.0561926e-09
6.6492168e-10
4.3263175e-10
2.8846419e-10
1.9584313e-10
1.3465293e-10
9.3285062e-11
6.4779518e-11
4.4830273e-11
3.0703432e-11
2.0627004e-11
1.3432702e-11
8.3513764e-12
4.8412778e-12
2.7413978e-12
1.3854661e-12
6.3371788e-10
6.6221045e-10
7.1358983e-10
7.780881e-10
8.8505467e-10
1.0368803e-09
1.1764521e-09
1.3421286e-09
1.4649707e-09
1.5292831e-09
1.6684619e-09
1.816939e-09
1.9072557e-09
2.0273077e-09
2.2277442e-09
2.508119e-09
2.9135712e-09
3.0932409e-09
3.3131666e-09
3.705996e-09
4.3417037e-09
4.8386988e-09
5.1571605e-09
5.5430139e-09
6.4084399e-09
7.5410788e-09
8.8801243e-09
1.0632716e-08
1.1443169e-08
1.2528935e-08
1.4509372e-08
1.7439104e-08
2.1815918e-08
2.4655166e-08
2.5795594e-08
2.7183385e-08
2.9504653e-08
3.439657e-08
4.6257982e-08
6.1539126e-08
6.8598322e-08
7.066688e-08
7.0862982e-08
6.6499402e-08
6.4163559e-08
6.5839322e-08
7.7100771e-08
1.1346942e-07
1.781112e-07
2.7073992e-07
4.6555434e-07
7.4489104e-07
6.8310347e-07
2.9831186e-07
9.291979e-08
2.5977695e-08
8.2892963e-09
3.7359851e-09
2.0774133e-09
1.253515e-09
7.9173836e-10
5.1649636e-10
3.4514531e-10
2.3478291e-10
1.6171328e-10
1.1221725e-10
7.8048178e-11
5.4093342e-11
3.7100904e-11
2.4960079e-11
1.6277483e-11
1.0135228e-11
5.8857353e-12
3.3455068e-12
1.6497214e-12
6.7095898e-10
7.5491868e-10
8.7170345e-10
9.5919985e-10
1.0689463e-09
1.2647913e-09
1.4332268e-09
1.6124711e-09
1.9445883e-09
2.0049975e-09
2.1578699e-09
2.4843572e-09
2.6484855e-09
2.8233622e-09
3.0989122e-09
3.6529129e-09
4.3707294e-09
4.7375706e-09
5.1732194e-09
6.0933037e-09
7.2815529e-09
8.1430903e-09
8.7724109e-09
9.6858063e-09
1.1585583e-08
1.5046161e-08
1.8718804e-08
2.1857384e-08
2.3334505e-08
2.5840029e-08
3.1684856e-08
3.9261718e-08
4.804847e-08
5.2994316e-08
5.4915828e-08
5.7579121e-08
6.2454519e-08
7.3900919e-08
1.0246011e-07
1.2992327e-07
1.4018125e-07
1.4220332e-07
1.4131556e-07
1.3038701e-07
1.1803608e-07
1.1717932e-07
1.2442095e-07
1.6264987e-07
2.8253102e-07
3.8294237e-07
5.1904532e-07
6.6866845e-07
6.3474016e-07
3.3638082e-07
1.0765972e-07
2.983154e-08
9.404961e-09
4.2407904e-09
2.3720603e-09
1.4381044e-09
9.1153133e-10
5.9630357e-10
3.9941251e-10
2.7226254e-10
1.8788623e-10
1.306148e-10
9.1003434e-11
6.3183472e-11
4.3415171e-11
2.9267284e-11
1.9132783e-11
1.1952338e-11
6.9772338e-12
4.0070498e-12
1.946536e-12
7.1134597e-10
7.7500066e-10
9.6333185e-10
1.116514e-09
1.380441e-09
1.4744886e-09
1.670759e-09
1.8184229e-09
2.0005754e-09
2.2159984e-09
2.6365131e-09
3.1578184e-09
3.543718e-09
3.8366366e-09
4.2761857e-09
5.2303926e-09
6.5222503e-09
7.2165632e-09
8.192063e-09
1.0588681e-08
1.3252124e-08
1.4912779e-08
1.6633714e-08
1.9248876e-08
2.479546e-08
3.3442359e-08
4.2122926e-08
4.8225548e-08
5.1042944e-08
5.6272218e-08
7.1246614e-08
8.7922782e-08
1.0393442e-07
1.1193805e-07
1.1527692e-07
1.2006673e-07
1.2934721e-07
1.5304569e-07
2.0975332e-07
2.5345561e-07
2.6707996e-07
2.6867358e-07
2.6468604e-07
2.446692e-07
2.1953849e-07
2.0834552e-07
2.1130935e-07
2.3248327e-07
3.3050794e-07
5.6041951e-07
6.7178588e-07
7.5462063e-07
7.5420398e-07
4.2906612e-07
1.3149236e-07
3.4514688e-08
1.0433366e-08
4.6863493e-09
2.640364e-09
1.6092968e-09
1.0239262e-09
6.7182776e-10
4.5112548e-10
3.0819303e-10
2.1311496e-10
1.4844186e-10
1.0362365e-10
7.2088954e-11
4.9641682e-11
3.3549367e-11
2.2003344e-11
1.3810519e-11
8.1258328e-12
4.7382404e-12
2.2842828e-12
7.1089117e-10
8.9280122e-10
1.0599055e-09
1.1103103e-09
1.1732557e-09
1.2870064e-09
1.5654201e-09
1.9380419e-09
2.1143038e-09
2.48929e-09
3.2243971e-09
4.3173256e-09
4.6850798e-09
5.2885586e-09
6.3624751e-09
8.6404034e-09
1.1385025e-08
1.304462e-08
1.5602033e-08
2.1952121e-08
2.8552849e-08
3.2079273e-08
3.627748e-08
4.2975945e-08
5.8683154e-08
7.6521809e-08
9.4998194e-08
1.0634161e-07
1.1105837e-07
1.2110448e-07
1.5315481e-07
1.8617757e-07
2.1200172e-07
2.2236881e-07
2.2722721e-07
2.3464381e-07
2.499488e-07
2.9203355e-07
3.8779717e-07
4.519927e-07
4.6782784e-07
4.6603586e-07
4.5519033e-07
4.2735593e-07
3.9164246e-07
3.6673423e-07
3.6281684e-07
3.7304148e-07
4.3304795e-07
7.0209164e-07
1.2602821e-06
1.4823156e-06
1.2418263e-06
4.6978811e-07
1.3516537e-07
3.5040363e-08
1.0859244e-08
5.0488018e-09
2.8820479e-09
1.7671903e-09
1.1289472e-09
7.4306972e-10
5.0027966e-10
3.4256994e-10
2.3739673e-10
1.6569775e-10
1.1591015e-10
8.081298e-11
5.5785325e-11
3.7812754e-11
2.489699e-11
1.5718819e-11
9.3416597e-12
5.5504699e-12
2.670532e-12
7.547875e-10
8.9424845e-10
1.1629793e-09
1.184019e-09
1.2850794e-09
1.578009e-09
2.1020994e-09
3.4063615e-09
3.7294008e-09
4.2635855e-09
5.2416947e-09
7.0542008e-09
8.5212257e-09
1.0284863e-08
1.3497158e-08
1.8802929e-08
2.4455126e-08
2.9261856e-08
3.6102367e-08
5.1960026e-08
6.7758284e-08
7.5108853e-08
8.4021964e-08
9.9286605e-08
1.3848287e-07
1.6912873e-07
2.0180471e-07
2.2297993e-07
2.2995102e-07
2.4758049e-07
3.0901954e-07
3.6246317e-07
3.9617214e-07
4.0693165e-07
4.121803e-07
4.2097605e-07
4.4506632e-07
5.1637703e-07
6.6221023e-07
7.5342859e-07
7.7577418e-07
7.6345628e-07
7.3944188e-07
7.1337979e-07
6.658485e-07
6.1707708e-07
5.8945162e-07
5.8967213e-07
6.2261613e-07
8.5819282e-07
1.6111977e-06
1.9026239e-06
1.2281095e-06
4.2382494e-07
1.1869722e-07
3.1512758e-08
1.0790068e-08
5.3410381e-09
3.0984587e-09
1.9120813e-09
1.2266885e-09
8.10059e-10
5.4688153e-10
3.7539186e-10
2.6072824e-10
1.8237971e-10
1.2786167e-10
8.9356103e-11
6.1848522e-11
4.2061655e-11
2.7819577e-11
1.7684615e-11
1.0633458e-11
6.4538395e-12
3.1118762e-12
7.170866e-10
8.2401999e-10
1.1651062e-09
1.3782493e-09
1.8205804e-09
2.6651909e-09
3.7072802e-09
5.3646312e-09
6.3990743e-09
7.3363028e-09
9.3822316e-09
1.4073664e-08
1.7862657e-08
2.3237404e-08
3.271147e-08
4.4925001e-08
5.784466e-08
7.1602295e-08
8.808596e-08
1.2068072e-07
1.5546289e-07
1.7075161e-07
1.8859749e-07
2.20826e-07
3.0584479e-07
3.4829091e-07
3.97604e-07
4.3391929e-07
4.4540929e-07
4.7516064e-07
5.7319422e-07
6.4449107e-07
6.7731217e-07
6.8576278e-07
6.9026426e-07
7.0364188e-07
7.4595218e-07
8.8055033e-07
1.0887634e-06
1.2104176e-06
1.2821439e-06
1.2739842e-06
1.2296438e-06
1.1918821e-06
1.1217307e-06
1.0278471e-06
9.245125e-07
8.6753656e-07
8.6907699e-07
1.0140197e-06
1.6024426e-06
1.697463e-06
9.2563467e-07
3.0882158e-07
8.9665691e-08
2.6604854e-08
1.0617763e-08
5.5917509e-09
3.2917578e-09
2.0444216e-09
1.3173201e-09
8.7286873e-10
5.9096396e-10
4.0667387e-10
2.8311662e-10
1.9849159e-10
1.3948106e-10
9.7721319e-11
6.7834982e-11
4.6300758e-11
3.07769e-11
1.9714731e-11
1.2009001e-11
7.4575112e-12
3.6142396e-12
7.335135e-10
9.6622942e-10
1.2896101e-09
2.3799287e-09
2.9732218e-09
4.1765594e-09
6.0548641e-09
7.9087217e-09
1.0401137e-08
1.3888539e-08
2.0040888e-08
3.2716949e-08
4.3613387e-08
5.7898345e-08
8.1235834e-08
1.0827816e-07
1.3220245e-07
1.7175044e-07
2.0479104e-07
2.6052453e-07
3.2801937e-07
3.6401311e-07
3.9652922e-07
4.5658716e-07
6.1179041e-07
6.7055035e-07
7.2971249e-07
7.8750064e-07
8.0703354e-07
8.5518124e-07
9.8306149e-07
1.057357e-06
1.0809834e-06
1.0872602e-06
1.0952507e-06
1.1274625e-06
1.2395166e-06
1.5392296e-06
1.7738644e-06
1.8910074e-06
2.2966223e-06
2.4472523e-06
2.3173292e-06
2.0925874e-06
1.9247515e-06
1.7422053e-06
1.5074913e-06
1.2730796e-06
1.1778382e-06
1.2512628e-06
1.536438e-06
1.4100469e-06
6.5783486e-07
2.238704e-07
6.8957838e-08
2.3454877e-08
1.0602545e-08
5.813412e-09
3.4634871e-09
2.1647059e-09
1.4010432e-09
9.3158814e-10
6.3256861e-10
4.3643611e-10
3.0457206e-10
2.1403905e-10
1.507722e-10
1.059121e-10
7.37485e-11
5.0534551e-11
3.3774271e-11
2.1815472e-11
1.3475442e-11
8.5697706e-12
4.1828669e-12
8.4352522e-10
1.5633574e-09
2.2587514e-09
3.0718371e-09
4.3655172e-09
6.0865291e-09
8.8041625e-09
1.3586794e-08
2.0990041e-08
3.1308617e-08
4.7438469e-08
7.8404938e-08
1.0571332e-07
1.3625238e-07
1.8527656e-07
2.4363465e-07
2.8646554e-07
3.6841198e-07
4.2921446e-07
5.1720614e-07
6.4347328e-07
7.2063216e-07
7.7642209e-07
8.7268424e-07
1.1271564e-06
1.2139707e-06
1.2645829e-06
1.3624131e-06
1.3934303e-06
1.4650017e-06
1.6095983e-06
1.6288477e-06
1.6498971e-06
1.6557113e-06
1.689482e-06
1.9134189e-06
2.2924572e-06
2.7516047e-06
2.783608e-06
2.8687823e-06
3.2177917e-06
3.9765188e-06
3.8869479e-06
3.4320816e-06
3.0974079e-06
2.7793892e-06
2.4036775e-06
1.9441504e-06
1.6267215e-06
1.6323524e-06
1.833595e-06
1.3756402e-06
5.3350409e-07
1.7533979e-07
5.6744779e-08
2.1738582e-08
1.0663085e-08
6.0041545e-09
3.6148312e-09
2.2734563e-09
1.4780765e-09
9.8631445e-10
6.7174033e-10
4.6469963e-10
3.2510458e-10
2.2902715e-10
1.6173815e-10
1.1393105e-10
7.9591963e-11
5.4766596e-11
3.6816153e-11
2.3992145e-11
1.5039032e-11
9.7977644e-12
4.8224978e-12
8.5815457e-10
2.0217857e-09
2.9130748e-09
4.3020142e-09
6.7123091e-09
1.1224414e-08
1.8001876e-08
3.0652294e-08
5.028705e-08
7.4487453e-08
1.1104639e-07
1.7713403e-07
2.3350202e-07
2.9526509e-07
3.7962839e-07
4.9650783e-07
5.7075398e-07
7.1029429e-07
8.1165374e-07
9.735574e-07
1.1961186e-06
1.3231395e-06
1.4278912e-06
1.5824285e-06
1.9999306e-06
2.1054886e-06
2.1382006e-06
2.329581e-06
2.4007076e-06
2.5073273e-06
2.6360988e-06
2.5522139e-06
2.4057216e-06
2.4421465e-06
2.6605266e-06
4.0387613e-06
3.8284803e-06
3.4641835e-06
3.3101074e-06
3.3875494e-06
3.7200789e-06
3.8286882e-06
4.1766044e-06
4.4270308e-06
4.3848676e-06
4.0171692e-06
3.6684996e-06
2.9588014e-06
2.4751131e-06
2.5934075e-06
2.7868644e-06
1.4021158e-06
4.5425123e-07
1.4370038e-07
4.890948e-08
2.068088e-08
1.0728577e-08
6.1647051e-09
3.747072e-09
2.3712192e-09
1.5486532e-09
1.0371522e-09
7.0852738e-10
4.914869e-10
3.4472456e-10
2.4346075e-10
1.7238149e-10
1.2178009e-10
8.536752e-11
5.8999671e-11
3.9906114e-11
2.624917e-11
1.6705265e-11
1.1147866e-11
5.5370324e-12
7.0731898e-10
1.3436072e-09
2.8446561e-09
7.4906262e-09
1.3763479e-08
2.486854e-08
4.112369e-08
7.1322251e-08
1.1931194e-07
1.6764134e-07
2.4451058e-07
3.7048283e-07
4.6254634e-07
5.9747484e-07
7.1342276e-07
9.3217317e-07
1.0589911e-06
1.2714175e-06
1.4549108e-06
1.8207815e-06
2.1363197e-06
2.2983616e-06
2.6025485e-06
2.8707527e-06
3.6256283e-06
3.6877999e-06
3.5303097e-06
4.4202795e-06
4.5197279e-06
4.7779605e-06
4.3506305e-06
3.7758954e-06
3.2315635e-06
3.1091354e-06
4.2627509e-06
4.077691e-06
4.1079856e-06
3.6990973e-06
3.9249885e-06
4.2176273e-06
4.8153023e-06
4.795079e-06
4.8054561e-06
5.1606701e-06
5.2548226e-06
5.2255704e-06
5.8048242e-06
6.0707906e-06
5.6843006e-06
4.974934e-06
2.9533022e-06
1.1102917e-06
3.6088903e-07
1.1677335e-07
4.3020798e-08
1.9909771e-08
1.0774832e-08
6.2959786e-09
3.8613965e-09
2.4585523e-09
1.6130163e-09
1.0842119e-09
7.4298122e-10
5.1682184e-10
3.6344291e-10
2.5734467e-10
1.8270445e-10
1.2946065e-10
9.1076681e-11
6.323584e-11
4.3046959e-11
2.8590192e-11
1.8478463e-11
1.262583e-11
6.3299925e-12
7.7514376e-10
2.0250345e-09
6.4660632e-09
1.5106059e-08
3.0564535e-08
5.5630192e-08
9.1798045e-08
1.5801504e-07
2.62121e-07
3.50483e-07
5.1025931e-07
7.0769115e-07
8.5646745e-07
1.0970479e-06
1.2858396e-06
1.6712575e-06
1.8913313e-06
2.2490218e-06
2.6462829e-06
3.4810063e-06
3.701897e-06
3.9701813e-06
5.3061292e-06
5.58833e-06
7.1174238e-06
6.1887092e-06
5.735244e-06
9.3025599e-06
8.2220048e-06
6.6443332e-06
4.757974e-06
4.4577928e-06
3.9772955e-06
3.3727942e-06
3.3777929e-06
3.3191812e-06
3.8676624e-06
3.834287e-06
3.6446688e-06
4.1044965e-06
4.5231186e-06
4.5743328e-06
4.4289773e-06
5.0142196e-06
4.873927e-06
5.7718179e-06
6.2332407e-06
7.6597185e-06
7.2491108e-06
4.9639667e-06
2.3746684e-06
8.3037429e-07
2.7655181e-07
9.4534836e-08
3.8571179e-08
1.9311402e-08
1.0797623e-08
6.4008579e-09
3.9593331e-09
2.5360133e-09
1.6714156e-09
1.1276091e-09
7.7515618e-10
5.4072985e-10
3.812711e-10
2.7068379e-10
1.9270903e-10
1.369737e-10
9.6720378e-11
6.7476466e-11
4.6240799e-11
3.1018198e-11
2.0362035e-11
1.4235968e-11
7.2043928e-12
6.0122348e-10
4.7905566e-09
1.5120055e-08
3.5680137e-08
6.9987388e-08
1.2299788e-07
1.9688606e-07
3.2910905e-07
5.2340892e-07
6.7362552e-07
9.9506624e-07
1.2518176e-06
1.5031929e-06
1.9215244e-06
2.2918785e-06
2.9909803e-06
3.4247879e-06
4.2422032e-06
5.1564016e-06
6.7600707e-06
6.380334e-06
7.1566242e-06
1.1042714e-05
1.0218239e-05
9.4487484e-06
6.3348856e-06
8.87269e-06
1.2671909e-05
8.5356714e-06
5.3068503e-06
4.2998039e-06
4.0971796e-06
4.9120149e-06
4.0882131e-06
3.5217486e-06
4.3142218e-06
4.2594655e-06
4.3825437e-06
4.4241724e-06
5.5741745e-06
5.4506117e-06
5.9614958e-06
6.0299273e-06
6.3268933e-06
5.7593603e-06
5.7993667e-06
8.249455e-06
7.3388768e-06
6.420284e-06
3.937568e-06
1.6578937e-06
5.9769978e-07
2.0762394e-07
7.7264854e-08
3.529225e-08
1.8828412e-08
1.079747e-08
6.4819885e-09
4.042321e-09
2.6040958e-09
1.7241032e-09
1.1674628e-09
8.0510894e-10
5.6323762e-10
3.982212e-10
2.8348314e-10
2.0239702e-10
1.4431982e-10
1.0229901e-10
7.1722337e-11
4.9488857e-11
3.3535067e-11
2.2359047e-11
1.5981449e-11
8.1624103e-12
1.4377548e-10
1.1799895e-08
3.5385706e-08
8.0515522e-08
1.5124144e-07
2.5569188e-07
3.9493373e-07
6.4827566e-07
9.594515e-07
1.2125774e-06
1.8293252e-06
2.1434985e-06
2.6164122e-06
3.4948077e-06
4.2654002e-06
5.5840904e-06
6.6303161e-06
8.7484069e-06
1.0862346e-05
1.0217928e-05
9.176125e-06
1.2789009e-05
1.2957143e-05
9.0867072e-06
4.7334324e-06
3.5259034e-06
7.0763997e-06
5.100314e-06
4.0875498e-06
3.5279457e-06
4.3940811e-06
4.3070925e-06
6.1257686e-06
5.376715e-06
4.2013577e-06
4.6011109e-06
4.5010752e-06
4.1561587e-06
4.5709658e-06
5.1845675e-06
5.4544264e-06
5.5113345e-06
6.0726609e-06
7.99456e-06
6.9737872e-06
8.2179396e-06
8.3748911e-06
8.0573306e-06
5.332429e-06
2.4279694e-06
1.0618855e-06
4.1458053e-07
1.544436e-07
6.4854749e-08
3.2965537e-08
1.8426327e-08
1.0776106e-08
6.5418019e-09
4.1109876e-09
2.6634445e-09
1.7713316e-09
1.2038945e-09
8.3289818e-10
5.8437309e-10
4.143059e-10
2.9574789e-10
2.1177008e-10
1.5149925e-10
1.0781248e-10
7.5973509e-11
5.279191e-11
3.6141772e-11
2.4471072e-11
1.7865207e-11
9.2056406e-12
1.1848557e-09
2.8406024e-08
7.9685811e-08
1.707302e-07
3.0510002e-07
4.957453e-07
7.4003594e-07
1.2010346e-06
1.6694474e-06
2.1229713e-06
3.3154819e-06
3.7325129e-06
4.735643e-06
6.910412e-06
8.5394261e-06
1.1000643e-05
1.20778e-05
1.4298736e-05
1.2706276e-05
5.9262984e-06
8.7479639e-06
9.6281022e-06
4.9884223e-06
3.9356467e-06
3.1843295e-06
3.2487048e-06
4.6032413e-06
5.578169e-06
3.8337078e-06
3.4884322e-06
4.8796182e-06
4.9907675e-06
6.8212293e-06
7.0576402e-06
5.5066145e-06
4.7178358e-06
4.5754428e-06
4.2475036e-06
4.8220902e-06
5.3677965e-06
5.9687298e-06
6.129807e-06
7.24256e-06
7.0467016e-06
7.4881297e-06
7.5337524e-06
1.3041593e-05
1.1524534e-05
5.647134e-06
2.464615e-06
7.8026841e-07
3.0522786e-07
1.2158018e-07
5.7087168e-08
3.1349953e-08
1.8076507e-08
1.0735238e-08
6.5824287e-09
4.1666595e-09
2.7147031e-09
1.8133082e-09
1.2370265e-09
8.5858412e-10
6.0416525e-10
4.2953843e-10
3.074834e-10
2.208298e-10
1.5851193e-10
1.1326024e-10
8.0229626e-11
5.6149852e-11
3.8839466e-11
2.6698932e-11
1.9888344e-11
1.0335341e-11
6.0658927e-09
6.4697484e-08
1.6865313e-07
3.3880593e-07
5.7685485e-07
8.9910746e-07
1.3169263e-06
2.1447703e-06
2.885512e-06
3.7571966e-06
6.1800561e-06
6.6174994e-06
9.489464e-06
1.1948417e-05
1.3580444e-05
1.3256899e-05
1.2580644e-05
9.7455057e-06
4.1616548e-06
2.7609021e-06
4.9442674e-06
5.3612216e-06
3.6093463e-06
3.5300244e-06
2.9391288e-06
3.5534592e-06
4.2768704e-06
4.4183039e-06
3.7440095e-06
4.0383995e-06
4.5707064e-06
4.8152666e-06
4.956705e-06
5.8873809e-06
5.354332e-06
4.7763373e-06
4.7925305e-06
4.7592086e-06
4.7518661e-06
5.405323e-06
6.1422083e-06
6.4332165e-06
6.2878218e-06
7.8279415e-06
6.898168e-06
7.2245879e-06
1.0965412e-05
1.7356613e-05
6.6799717e-06
2.7158955e-06
8.1593795e-07
2.8015019e-07
1.1002044e-07
5.3753275e-08
3.0252642e-08
1.7763506e-08
1.0677245e-08
6.6058212e-09
4.2103663e-09
2.758061e-09
1.8503907e-09
1.2669829e-09
8.8222824e-10
6.2264403e-10
4.4393261e-10
3.1869524e-10
2.2957766e-10
1.6535751e-10
1.186413e-10
8.4489636e-11
5.9561921e-11
4.1627444e-11
2.9043659e-11
2.2052275e-11
1.1551766e-11
1.9082733e-08
1.390391e-07
3.3480313e-07
6.2953658e-07
1.0296532e-06
1.542821e-06
2.2893003e-06
3.8539552e-06
5.1339286e-06
7.0249571e-06
1.0761808e-05
1.0922632e-05
1.3733e-05
1.2177819e-05
1.0438961e-05
9.0762232e-06
4.9772395e-06
3.2878288e-06
2.1802725e-06
2.4681798e-06
4.3124804e-06
4.2533393e-06
3.1784265e-06
3.1509825e-06
2.6130976e-06
2.7304391e-06
3.4648484e-06
3.7946725e-06
3.9194992e-06
4.990664e-06
5.1894961e-06
5.058701e-06
5.42321e-06
5.3583088e-06
4.893623e-06
4.9808192e-06
5.1035582e-06
5.4158864e-06
5.5279809e-06
6.1530898e-06
6.5651453e-06
6.5531259e-06
6.1771432e-06
6.4206599e-06
5.7761121e-06
5.9433727e-06
7.4823427e-06
1.6907535e-05
1.4576168e-05
2.788208e-06
8.7677714e-07
3.1658944e-07
1.200673e-07
5.5980125e-08
3.046896e-08
1.7565292e-08
1.0610202e-08
6.6139601e-09
4.2430475e-09
2.7941435e-09
1.8828006e-09
1.2938522e-09
9.0389256e-10
6.3984026e-10
4.5750275e-10
3.293892e-10
2.3801514e-10
1.7203545e-10
1.2395431e-10
8.8752044e-11
6.3026915e-11
4.450476e-11
3.1503126e-11
2.4355497e-11
1.2855595e-11
5.092859e-08
2.8405804e-07
6.2367621e-07
1.1032542e-06
1.7475373e-06
2.582206e-06
4.0351478e-06
7.21998e-06
9.7699961e-06
1.1272363e-05
1.160481e-05
1.1609672e-05
1.096947e-05
4.9316646e-06
4.5401867e-06
7.236983e-06
6.3051003e-06
2.7751136e-06
2.3949173e-06
2.3850079e-06
3.4305006e-06
4.2230128e-06
2.4523312e-06
2.4923702e-06
2.5064742e-06
2.730638e-06
3.2612736e-06
2.9872816e-06
3.2006955e-06
4.2704392e-06
5.8496103e-06
5.206465e-06
5.3835411e-06
4.9586528e-06
4.755509e-06
5.5005439e-06
5.7142511e-06
5.3110443e-06
5.2424427e-06
6.4778026e-06
7.295529e-06
7.1039427e-06
6.331636e-06
6.1611173e-06
7.6097082e-06
6.7875671e-06
6.5019522e-06
1.1824976e-05
1.8251149e-05
1.4260327e-05
4.2658859e-06
1.0327424e-06
2.8368097e-07
8.7241273e-08
3.4369559e-08
1.7741925e-08
1.0548241e-08
6.6086161e-09
4.265569e-09
2.8234094e-09
1.9106712e-09
1.3178601e-09
9.2363945e-10
6.5578544e-10
4.7026373e-10
3.3957133e-10
2.4614372e-10
1.7854496e-10
1.2919752e-10
9.3014838e-11
6.6542855e-11
4.7469655e-11
3.4077914e-11
2.6797104e-11
1.4244727e-11
1.2289321e-07
5.4886034e-07
1.0954991e-06
1.8477444e-06
2.9035847e-06
4.3447707e-06
7.6130513e-06
1.1701867e-05
1.2589849e-05
1.0481836e-05
5.9247981e-06
7.216704e-06
6.5928722e-06
3.6142731e-06
3.7387695e-06
3.1086573e-06
3.8243151e-06
2.5641734e-06
2.7129079e-06
2.1925611e-06
2.8992736e-06
2.923398e-06
2.3709358e-06
2.766728e-06
2.8534721e-06
2.5062009e-06
2.9585428e-06
2.7458474e-06
3.4929257e-06
5.0033166e-06
4.7079876e-06
4.5830859e-06
4.4864552e-06
4.9611193e-06
5.6718983e-06
5.6436373e-06
6.0210302e-06
5.5273871e-06
5.6825061e-06
7.5880917e-06
8.1309982e-06
7.7553259e-06
6.7869376e-06
6.4469575e-06
6.7959883e-06
7.5828925e-06
6.7292232e-06
8.0097332e-06
1.4453321e-05
1.4201316e-05
9.9980913e-06
3.3130984e-06
8.1006756e-07
1.8583488e-07
4.6928934e-08
1.8311229e-08
1.047752e-08
6.5901437e-09
4.2786957e-09
2.8462954e-09
1.9342972e-09
1.339047e-09
9.4151588e-10
6.7051151e-10
4.8223082e-10
3.4924787e-10
2.5396488e-10
1.8488512e-10
1.343689e-10
9.7275544e-11
7.01071e-11
5.0520259e-11
3.6764801e-11
2.937629e-11
1.5718869e-11
2.7547466e-07
1.0034765e-06
1.829072e-06
3.0147521e-06
4.9374614e-06
7.7407495e-06
1.04906e-05
1.1060277e-05
8.4196349e-06
4.6951054e-06
3.5812052e-06
5.3956557e-06
3.7173719e-06
2.8822905e-06
3.7658274e-06
3.104149e-06
3.9818314e-06
2.1760766e-06
2.4989134e-06
2.5173059e-06
2.6514853e-06
2.2392647e-06
2.4092679e-06
3.2366179e-06
3.1338519e-06
2.5899731e-06
2.6458039e-06
2.5667249e-06
2.9512742e-06
4.9727639e-06
5.0676735e-06
4.4581604e-06
4.6909745e-06
5.2338162e-06
5.4082374e-06
6.4000811e-06
6.3166094e-06
6.0244806e-06
6.2338667e-06
8.4802398e-06
8.4999902e-06
8.0694506e-06
7.4680603e-06
7.5068533e-06
6.8706599e-06
8.3676849e-06
7.8197019e-06
7.138832e-06
9.6642038e-06
1.0817304e-05
8.884434e-06
3.6832453e-06
1.0080695e-06
2.2182711e-07
5.072931e-08
1.8292922e-08
1.0365045e-08
6.5589335e-09
4.2831529e-09
2.8632171e-09
1.9539038e-09
1.357527e-09
9.5764338e-10
6.8405102e-10
4.9341982e-10
3.5842537e-10
2.6148016e-10
1.9105485e-10
1.3946606e-10
1.0153131e-10
7.3716919e-11
5.3653117e-11
3.9559977e-11
3.208753e-11
1.7276891e-11
5.7985409e-07
1.7480143e-06
2.9304312e-06
4.9474941e-06
8.8736451e-06
1.0281268e-05
8.5447631e-06
5.8100847e-06
3.4596485e-06
2.1992827e-06
3.0798029e-06
4.5915281e-06
7.0250384e-06
2.4488046e-06
2.8920648e-06
2.2741136e-06
2.9212356e-06
2.0045376e-06
1.7606343e-06
2.8784649e-06
2.6493255e-06
2.4625529e-06
2.5043202e-06
3.5885843e-06
3.3915408e-06
2.7676575e-06
2.5194281e-06
2.5484647e-06
3.1446133e-06
4.3763715e-06
4.904787e-06
4.8091023e-06
6.1176692e-06
5.1156284e-06
5.2800211e-06
7.9193591e-06
7.1253984e-06
6.0366522e-06
6.2379578e-06
8.5553875e-06
8.6075083e-06
8.3955525e-06
7.5975105e-06
6.6480531e-06
5.3842853e-06
7.31598e-06
9.3190574e-06
7.8206666e-06
8.0064223e-06
8.3934786e-06
7.6369904e-06
3.7263997e-06
1.0165562e-06
2.212148e-07
4.9514396e-08
1.775572e-08
1.0217997e-08
6.5163483e-09
4.2796375e-09
2.8745686e-09
1.9697096e-09
1.3734399e-09
9.7202988e-10
6.9642849e-10
5.038468e-10
3.6711058e-10
2.6869114e-10
1.9705295e-10
1.4448642e-10
1.057787e-10
7.7368508e-11
5.6864654e-11
4.2464041e-11
3.4928357e-11
1.8913797e-11
1.1575892e-06
2.8878959e-06
4.6117009e-06
8.3713601e-06
1.0214867e-05
8.6578718e-06
5.845065e-06
3.3448394e-06
1.3045909e-06
1.7167099e-06
2.8205643e-06
4.0223716e-06
7.0478513e-06
1.5397972e-06
2.2638767e-06
2.4492009e-06
2.3885501e-06
2.0361176e-06
1.6834631e-06
1.8729693e-06
2.5166742e-06
2.4819333e-06
2.3265042e-06
4.2180317e-06
4.0176258e-06
2.977047e-06
2.6036481e-06
2.7637409e-06
3.3622191e-06
3.5470977e-06
5.3371096e-06
6.2903978e-06
5.8635684e-06
4.7956569e-06
4.4229277e-06
6.897045e-06
7.5208857e-06
7.0994962e-06
8.4081523e-06
8.408277e-06
8.7922284e-06
8.0971527e-06
8.5052673e-06
7.1040196e-06
5.7967186e-06
6.7380309e-06
1.0408264e-05
9.806672e-06
8.3982218e-06
8.6058404e-06
8.0784528e-06
3.5379254e-06
8.929943e-07
1.8864393e-07
4.2369697e-08
1.6835414e-08
1.004949e-08
6.4639163e-09
4.2688138e-09
2.8807283e-09
1.9819264e-09
1.3869022e-09
9.8474654e-10
7.0770556e-10
5.1352849e-10
3.7531055e-10
2.755995e-10
2.0287815e-10
1.4942705e-10
1.100142e-10
8.1058059e-11
6.0150542e-11
4.5468576e-11
3.7896584e-11
2.0629669e-11
2.214955e-06
4.5501099e-06
7.4476245e-06
9.3636974e-06
6.9342768e-06
5.9190944e-06
3.505337e-06
1.5514537e-06
9.0043818e-07
1.4320398e-06
2.6464198e-06
3.2239892e-06
2.4909205e-06
1.2823534e-06
1.9074897e-06
1.8365207e-06
1.2735406e-06
1.3882794e-06
1.8616141e-06
1.7937168e-06
2.3515555e-06
3.1307331e-06
2.2598187e-06
3.2306429e-06
4.3648646e-06
3.4992118e-06
2.7391987e-06
3.2787239e-06
3.5120769e-06
3.6335637e-06
4.1253662e-06
4.7051546e-06
4.5363495e-06
4.6843794e-06
4.8921034e-06
5.9927195e-06
7.0680634e-06
7.8447852e-06
9.8330064e-06
8.6064698e-06
9.1676592e-06
8.4378733e-06
8.7486719e-06
1.0207593e-05
8.4058952e-06
6.4532737e-06
9.8679406e-06
1.1319177e-05
1.0922526e-05
1.0762187e-05
7.9085814e-06
2.6193561e-06
6.2977322e-07
1.3379776e-07
3.4080506e-08
1.6009755e-08
9.8788159e-09
6.403025e-09
4.251273e-09
2.8820374e-09
1.9907498e-09
1.3980247e-09
9.9586316e-10
7.1789027e-10
5.2247864e-10
3.830322e-10
2.8220686e-10
2.0852901e-10
1.5428494e-10
1.1423386e-10
8.478118e-11
6.350722e-11
4.8567656e-11
4.0983813e-11
2.2421889e-11
3.8776605e-06
7.3161054e-06
9.4296838e-06
7.3433943e-06
4.5397365e-06
3.9111353e-06
1.8382719e-06
1.3381665e-06
8.0141951e-07
1.4004096e-06
2.2480572e-06
2.345861e-06
1.3986676e-06
1.1794645e-06
1.6968896e-06
1.2501915e-06
1.1214938e-06
1.3024609e-06
2.2999247e-06
2.0554001e-06
2.3325761e-06
2.6912803e-06
2.2010811e-06
2.2525642e-06
4.3210358e-06
3.6705129e-06
2.95993e-06
4.1127377e-06
3.7662368e-06
3.864286e-06
4.3680566e-06
4.7126124e-06
4.8631668e-06
4.9442883e-06
5.5955615e-06
6.223341e-06
7.8983208e-06
7.8467338e-06
1.0838228e-05
8.5750047e-06
9.2536932e-06
8.5659612e-06
8.6794092e-06
1.0450813e-05
8.4471674e-06
8.1622654e-06
7.412485e-06
1.142414e-05
1.199196e-05
1.0893283e-05
5.7866391e-06
1.7127383e-06
4.0712e-07
9.0724336e-08
2.8499833e-08
1.5396103e-08
9.7060597e-09
6.3340353e-09
4.2275238e-09
2.8788738e-09
1.9964224e-09
1.4069541e-09
1.0054646e-09
7.2703141e-10
5.3072711e-10
3.902901e-10
2.8851964e-10
2.1400706e-10
1.5905854e-10
1.1843424e-10
8.8532807e-11
6.6929307e-11
5.1761103e-11
4.4182466e-11