/*--------------------------------*- C++ -*----------------------------------*\
| =========                 |                                                 |
| \\      /  F ield         | OpenFOAM: The Open Source CFD Toolbox           |
|  \\    /   O peration     | Version:  2.3.0                                 |
|   \\  /    A nd           | Web:      www.OpenFOAM.org                      |
|    \\/     M anipulation  |                                                 |
\*---------------------------------------------------------------------------*/
FoamFile
{
    version     2.0;
    format      ascii;
    class       volScalarField;
    location    "5e-06";
    object      p;
}
// * * * * * * * * * * * * * * * * * * * * * * * * * * * * * * * * * * * * * //

dimensions      [1 -1 -2 0 0 0 0];

internalField   nonuniform List<scalar> 
7500
(
-62601.248
22026.587
76025.684
-69739.648
44189.861
30155.183
-75277.472
81659.299
8304.7736
-25361.35
83615.994
37324.72
-50440.014
118887.62
57191.055
-96546.863
173369.58
58038.161
-83386.434
238639.26
191727.98
-61085.729
221.09216
247876.6
398270.47
89667.787
-221912.44
51278.662
237904.94
119003.55
13517.393
-140923.94
-159613.73
-143443.73
-171763.56
12291.396
-88921.615
-470743.93
-407869.82
-253550.21
-480793.17
-728174.24
-753144.23
-903308.08
-1028115.5
-445621.37
99012.938
162534.05
647628.78
806058.33
1404177.9
1359410.9
1224827.3
1001097.8
783334.94
609439.68
482049.26
388543.29
318468.78
264577.69
222085.01
187840.14
159715.44
136228.03
116313
99185.016
84251.246
71054.564
59235.353
48504.998
38626.995
29403.163
20662.867
12257.191
4044.8531
-62193.887
22430.468
74105.045
-68610.644
44317.126
29272.874
-73768.086
80886.956
10128.035
-27178.952
82119.983
39898.802
-52808.564
118611.35
60033.489
-97323.125
171748.3
60709.073
-81081.663
235167.12
187120.1
-58806.831
6490.8932
246666.21
393285.99
92603.801
-217961.39
46813.64
236155.75
122987.06
10526.267
-144775.01
-155769.52
-144465.11
-173206.18
10079.696
-90657.112
-462739.29
-403206.27
-268890.09
-486642.32
-720839.98
-761945.6
-877164.47
-992106.04
-404854.94
56762.094
60084.67
555121.22
1087049.8
1415586.8
1341814.4
1226739.4
999940.48
781544.02
607982.25
481075.73
387913
318054.41
264295.8
221886.08
187695.19
159607.06
136145.35
116248.94
99134.811
84211.604
71023.15
59210.485
48485.451
38611.875
29391.82
20654.841
12252.171
4042.6514
-62267.503
24923.48
70196.399
-65811.889
43388.368
27022.261
-69139.121
76427.788
14719.873
-28913.48
78934.748
43533.087
-54772.257
117425.88
61895.225
-94502.797
163959.6
63421.918
-71034.732
228470.77
180693.68
-58465.177
15001.723
246707.76
379800.65
91655.988
-202469.96
47956.466
230524.48
129224.59
10196.24
-151196.07
-154982.12
-149571.52
-173749
22394.014
-99645.24
-468314.29
-391064.76
-270355.53
-498792.3
-702617.9
-768127.33
-998660.71
-959283.52
-394822.97
-34476.951
10349.029
646124.05
1328483.8
1410504.4
1325597.8
1226357.6
995022.54
776299.26
603987.67
478461.91
386232.71
316949.91
263542.31
221352.4
187304.96
159314.39
135921.48
116075.11
98998.371
84103.761
70937.667
59142.863
48432.411
38571.021
29361.418
20633.665
12239.412
4037.8574
-63292.698
27386.706
65960.878
-62278.513
43475.887
22983.638
-61726.289
69835.92
18405.959
-27664.296
71119.532
48795.308
-56081.074
114738.18
66330.925
-91359.943
153664.69
64891.182
-58485.333
220302.52
174583.8
-52603.065
27975.946
245263.61
358680.26
85484.987
-184760.51
49320.42
225978.12
142280.68
6679.8532
-159104.35
-148425.28
-157616.48
-174867.16
39954.018
-108132.24
-478915.6
-378203.76
-264262.23
-512090.41
-739413.67
-792010.43
-942194.75
-846897.46
-414633.98
-209131.6
-169692.3
434907.34
1368684.8
1455811.7
1308155.7
1223867
986549.28
768272.39
598030.43
474596.51
383753.04
315318.46
262427.09
220560.88
186725.14
158878.84
135587.85
115815.75
98794.581
83942.539
70809.778
59041.642
48353.001
38509.877
29315.973
20602.118
12220.579
4031.0866
-62995.352
29456.563
60156.491
-57547.785
42112.4
21038.204
-54903.579
62343.171
23758.219
-28814.895
65422.102
51523.335
-56171.937
111948.76
68569.613
-85338.795
140584.13
70601.907
-43167.465
204753.37
167630.13
-40011.928
43349.315
244080.83
334856.61
76808.619
-164293.24
51401.003
214325.59
155508.94
7993.1237
-172465.4
-144325.13
-163840.02
-175863.73
62147.711
-116529.33
-486934.32
-362679.52
-251404.71
-518346.89
-761731.38
-816489.15
-951543.63
-827048
-431530.89
-208161.66
60026.431
302959.76
904907.96
1162011.6
1275035.2
1226702.5
976220.34
757944.02
590268.99
469572.8
380535.42
313198.05
260973.3
219525.98
185965.05
158306.61
135148.71
115473.79
98525.475
83729.352
70640.462
58907.489
48247.663
38428.72
29255.648
20560.278
12195.696
4022.3356
-62193.056
31670.895
54251.601
-53790.002
41990.726
17908.197
-46913.157
54817.044
27319.403
-27480.907
57647.114
55220.872
-58330.42
109056.22
72977.431
-79603.038
127841.45
74010.529
-27058.509
192270.14
156592.74
-30580.188
62446.047
248359.76
312090.24
66746.648
-142649.65
51110.611
205182.76
165827.26
4033.742
-179654.64
-145907.12
-174213.55
-166642.59
72348.363
-138311.06
-482761.35
-344123.68
-248089.57
-509131.64
-755607.48
-845745.96
-963589.67
-893712.86
-471565.7
-243313.09
-142499.6
211936.21
768032.66
1136646.7
1111449.7
1219705
966468.72
745404
580715.1
463475.77
376646.46
310630.62
259206.86
218264.22
185035.69
157605.26
134609.36
115053.05
98193.854
83466.266
70431.241
58741.524
48117.213
38328.132
29180.842
20508.403
12164.907
4011.6546
-60880.179
32716.208
48975.282
-49056.715
39397.743
17124.767
-40656.739
49378.746
30673.056
-27533.658
53298.515
55089.335
-57162.693
103956.35
74812.674
-70449.024
114050.39
77109.786
-12698.967
180447.83
146559.58
-22312.854
83083.902
249382.59
293647.16
59607.165
-121724.18
49936.81
192857.16
181601.85
-4013.2338
-190913
-140148.26
-192963.13
-156981.13
96142.386
-167592.54
-486444.17
-317571.95
-250996.89
-523910.24
-745567.75
-853181.95
-966162.83
-830240.95
-485184.4
-364787.27
-224569.13
111663.86
444281.27
1017609.8
603621.33
1148563.2
927961.73
728651.48
569340.84
456393.51
372153.02
307656.82
257152.25
216790.91
183946.98
156781.48
133974.47
114556.83
97802.077
83154.982
70183.35
58544.637
47962.283
38208.553
29091.85
20446.674
12128.307
3999.0714
-59165.691
33347.685
43379.416
-43394.094
37417.723
13462.878
-32106.793
42444.167
33912.006
-25598.637
47397.487
56633.22
-56695.491
101641.16
73905.629
-62596.057
102541.4
79013.405
2015.1756
165229.25
134911.59
-8464.7967
106662.84
248163.04
266172.83
56860.714
-95479.245
47822.064
183308.57
189904.24
-8083.5718
-200358.33
-143493.81
-206316.2
-149298.83
116223.74
-188256.59
-496417.8
-302476.03
-247142.39
-514665.95
-758921.48
-864162.42
-950188.88
-892426.89
-539659.99
-237289.68
-165661.89
-13823.863
75223.136
891101.11
420678.28
819275.16
873580.34
705793.44
556006.57
448426.6
367125.09
304317.33
254833.47
215120.9
182708.58
155841.77
133248.51
113988.3
97352.42
82797.148
69897.981
58317.689
47783.49
38070.415
28988.96
20375.273
12085.991
3984.6142
-57313.345
33033.516
38331.646
-37545.535
35146.457
10921.545
-26544.965
38382.402
35027.804
-23637.107
42374.476
54541.423
-50830.081
97438.913
73758.172
-55535.526
91345.904
81704.853
15670.522
149250.08
120292.36
5925.9185
133085.55
247864.48
241161.57
49775.462
-71865.361
51947.476
180829.1
197859.06
-25725.042
-199459.9
-145995.01
-230797.48
-133129.11
135862.62
-208723.92
-500681.16
-307547
-248651.94
-499713.73
-765743.92
-853009.92
-940128.36
-935729.89
-599320.78
-366346.2
-267734.53
49931.389
-71525.733
885237.4
521073.64
664579.23
819577.58
676920.05
541175.68
439745.91
361640.07
300653.25
252274.35
213268.91
181329.99
154792.51
132435.91
113350.57
96847.113
82394.375
69576.305
58061.529
47581.441
37914.143
28872.461
20294.38
12038.058
3968.3094
-55391.557
33548.17
33146.807
-32252.017
34131.079
7476.8092
-20363.946
33275.043
36564.182
-21206.297
37716.282
48867.058
-43078.791
96749.12
69756.625
-45246.244
78721.154
84543.949
28901.269
131921.78
106694.05
21529.021
153897.75
242683.95
222783.26
52098.112
-55296.06
47719.858
189750.33
211662.35
-41002.985
-213412.7
-141826.07
-250109.39
-122110.08
153884.22
-223303.69
-491977.37
-320488.18
-265484.05
-489186.18
-777122.32
-859241.95
-893994.02
-930729.25
-685445.27
-386956.57
-232733.81
-73617.483
-386343.07
739937.51
537710.51
622212.67
760886.6
646445.9
525661.28
430552.77
355777.73
296705.08
249498.28
211249.38
179820.62
153640.04
131541.06
112646.76
96288.393
81948.287
69219.505
57777.016
47356.756
37740.177
28742.653
20204.187
11984.609
3950.1896
-53373.591
32840.851
30061.524
-28319.581
32524.744
6266.8648
-15842.925
30471.851
35188.748
-16892.727
34649.496
41121.119
-35936.912
97194.481
67613.392
-35531.396
68867.784
82127.923
44425.312
117017.5
89350.749
38954.255
175175.56
229879.93
203164.43
57440.015
-32627.111
42881.868
192268.51
229044.81
-45653.516
-204254.5
-177228.5
-263919.02
-114238.9
165572.03
-230823.57
-489046.8
-311120.66
-280989.82
-501959.52
-799229.54
-898865.16
-873762.48
-846179.23
-706031.62
-469477.29
-386214.87
-275234.45
-302313.28
507299.64
536482.62
619588.47
710208.15
617294.39
509938.07
421018
349612.61
292511.58
246527.84
209076.45
178189.7
152390.62
130568.32
111879.97
95678.501
81460.517
68828.777
57465.027
47110.072
37548.971
28599.848
20104.893
11925.755
3930.2881
-51688.222
32372.53
27006.138
-23604.954
29563.648
4853.5445
-9951.1893
27696.251
34517.419
-15161.199
33242.462
34912.304
-28957.523
95020.212
66764.265
-24557.597
62063.24
79179.316
51328.272
110878.81
76115.524
53040.576
190599.05
217381.41
187893.85
56239.231
-19287.317
48926.166
207454.06
234826.6
-53901.599
-187352.48
-188863.27
-310896.66
-97153.996
189211.12
-238468.94
-478339.62
-330421.23
-270716.78
-493461.03
-839186.3
-927384.99
-895368.83
-854852.45
-706801.07
-517923.74
-421714.08
-306611.52
-186909.71
371942.94
511282.28
607978.92
667026.85
590058.73
494295.68
411278.92
343211.55
288109.05
243384.65
206763.74
176446.23
151050.4
129522
111053.28
95019.672
80932.706
68405.33
57126.452
46842.041
37340.992
28444.371
19996.71
11861.613
3908.6408
-49698.757
31271.894
24184.051
-18988.435
27013.592
1787.338
-3960.6085
26635.341
32743.452
-10657.445
26069.004
30535.932
-17868.339
90385.778
63860.47
-14146.728
56711.791
80903.083
56033.907
97425.446
69939.969
76459.16
200522.79
194281.9
174713.32
60235.309
-8941.2025
38246.633
238805.9
258491.46
-68845.831
-182944.38
-193225.44
-334867.3
-107318.46
186524.85
-224343.48
-447674.42
-316499.32
-272471.62
-498064.09
-841197.29
-928775.99
-894190.51
-858541.45
-711125.2
-556146.78
-594469.35
-416011.45
-288346.44
199037.72
474558.79
588307.76
629701.06
564782
478926.33
401443.93
336633.09
283530.97
240089.12
204324.4
174599
149625.41
128406.37
110169.76
94314.142
80366.498
67950.384
56762.193
46553.326
37116.723
28276.56
19879.858
11792.307
3885.2861
-47921.749
30810.063
20708.448
-14702.36
25887.696
-2420.6498
1060.376
26462.139
29978.392
-4254.0075
20481.454
19103.857
-3174.8686
88120.021
59203.733
-5359.0507
51035.515
79489.87
68374.741
84015.326
53061.697
103313.56
222845.8
172432.66
154049.14
56990.183
2952.1791
37968.52
239515.35
280873.63
-50931.45
-182144.84
-202179.97
-323277.67
-120637.41
128651.49
-214045.88
-437831.69
-306183.68
-271569.76
-510383.19
-851134.31
-930070.75
-894694.45
-855177.91
-704478.82
-559372.29
-507927.28
-560691.26
-560150.23
-13082.835
447525.81
564236.85
596937.65
541386.79
463959.1
391597.91
329927.67
278807.78
236660.41
201770.96
172656.47
148121.57
127225.6
109232.42
93564.133
79763.542
67465.165
56373.168
46244.607
36876.657
28096.763
19754.568
11717.966
3860.2651
-46183.827
30592.738
17795.16
-12119.221
26178.188
-6257.7396
4696.6926
27701.437
26095.868
802.27639
17657.375
9635.8811
5053.3846
88029.866
56117.839
608.03055
50213.006
74196.366
74530.557
82215.118
38414.689
115110.92
240533.97
166061
152795.73
52934.161
-9468.8953
50724.33
240867.15
274329.88
-45335.625
-182234.4
-201941.48
-319393.13
-109772.17
115394.42
-229982.22
-427989.41
-303772.65
-272497.95
-525060.77
-866906.47
-939150.05
-898788.04
-865377.63
-702043.91
-551489.56
-538456.67
-582822.58
-524711.08
-108755.44
404389.79
538904.01
568188.57
519786.41
449478.13
381806.1
323138.08
273966.86
233116.36
199115.34
170626.83
146544.6
125983.82
108244.29
92771.86
79125.487
66950.909
55960.3
45916.572
36621.301
27905.341
19621.08
11638.727
3833.6208
-44977.741
30424.311
15869.587
-10447.266
25515.69
-8177.3581
7402.8585
28886.867
25270.474
2846.6765
10915.52
6796.314
13968.11
82720.2
56666.735
2329.8266
49608.797
75480.075
75094.056
75023.658
34259.377
133398.02
234534.27
154250.07
162122.1
49319.016
-4197.6573
52872.207
242866.41
272324.85
-46827.317
-184151.34
-205437.79
-319089.43
-113765.54
102569.57
-234673.51
-422991.16
-297403.52
-271992.88
-538580.9
-873565.36
-948291.56
-903650.35
-870424.11
-684979.09
-542522.33
-533469.08
-588061.58
-504867.66
-94777.054
375028.57
516723.36
543061.97
499876.89
435529.79
372116.98
316300.09
269032.6
229473.42
196368.81
168517.94
144900.09
124685.06
107208.3
91939.519
78453.979
66408.857
55524.526
45569.924
36351.172
27702.662
19479.639
11554.73
3805.3989
-43838.14
29583.049
15015.092
-8617.4155
23432.044
-9917.7027
11806.928
27102.387
26742.471
9234.12
-3144.9695
1998.0188
29937.232
74635.621
56042.655
9595.2241
40047.381
78527.958
79619.533
63790.46
37216.339
138451.73
229861
151000.01
170773.89
43365.479
-9335.1362
61677.852
248388.91
268246.12
-50171.959
-179560.28
-215645.72
-326912.11
-106989.23
90091.201
-241217.87
-420954.44
-288582.41
-270944.03
-545026.16
-895273.39
-961508.26
-927696.46
-879262.22
-702561.46
-528621.68
-499683.64
-561075.49
-475028.09
-78292.127
354302.54
498551.53
521168.28
481528.41
422129.92
362564.93
309443.17
264026.56
225746.75
193541.97
166337.3
143193.44
123333.25
106127.38
91069.289
77750.66
65840.252
55066.788
45205.373
36066.799
27489.107
19330.503
11466.125
3775.647
-42733.798
28271.853
14176.233
-5669.5765
20983.062
-13443.06
18790.151
24523.904
24011.001
21718.809
-14570.478
-11061.262
47495.232
69340.843
46119.672
22015.054
37445.783
80544.482
79839.183
61498.129
37020.898
139004.66
237316.28
151100.55
163341.1
42651.711
-10226.562
41237.53
241207.83
262224.01
-53702.582
-178093.66
-229092.84
-332302.22
-111083.53
70786.032
-251980.57
-424166.38
-283706.51
-263015.88
-549708.08
-929917.28
-978436.36
-924664.88
-877426.41
-704161.07
-548292.54
-487031.09
-534351.6
-440522.67
-66105.922
339623.37
484604.98
502137.54
464591.46
409271.37
353172.76
302591.27
258967.67
221950.19
190644.8
164092.11
141429.87
121932.26
105004.39
90163.324
77017.166
65246.34
54588.037
44823.639
35768.718
27265.065
19173.934
11373.063
3744.4149
-41552.111
26916.161
12625.629
-2381.7488
20368.523
-19846.954
25984.25
26163.221
16726.039
30157.076
-15989.154
-27862.602
60162.902
67006.557
46175.002
22539.632
37057.249
82360.101
82152.644
58601.237
38390.212
135823.85
227772.03
153994.61
157924.44
37895.256
-26499.602
32065.724
228480.78
253905.36
-55589.081
-176502.8
-239356.3
-337080.07
-121236.06
50523.994
-267426.38
-429651.59
-281052.07
-261414.57
-566889.82
-949464.12
-1013066.1
-932639.62
-897328.59
-756281.71
-534454.56
-487479.85
-516468.56
-415829.19
-59128.008
330007.03
474975.84
485606.06
448904.59
396930.2
343954.01
295763.58
253872.45
218096.39
187686.6
161789.18
139614.43
120485.81
103842.14
89223.756
76255.121
64628.367
54089.225
44425.447
35457.475
27030.929
19010.2
11275.7
3711.7538
-40423.456
26065.858
10241.611
-79.362657
22304.624
-26372.345
28295.894
32859.697
12676.921
29843.564
-15332.478
-29756.094
61882.598
66541.968
46387.872
22917.289
37349.804
82144.058
81310.886
54226.931
39550.809
129092.49
219649.53
155512.39
152235.73
32599.98
-39161.312
31604.481
211550.85
248109.05
-56510.994
-180431.84
-244983.74
-328932.34
-127712.98
36961.235
-285417
-440394.06
-275471.33
-256144.13
-579372.67
-971039
-1008344
-935165.19
-938558.12
-848524.48
-570506.62
-459091.69
-496167.65
-402833.42
-55104.537
326126.08
469966.12
471215.38
434298.31
385070.7
334914.97
288975.32
248755.31
214196.82
184676.09
159435.02
137751.95
118997.55
102643.39
88252.686
75466.138
63987.574
53571.31
44011.532
35133.621
26787.105
18839.577
11174.2
3677.7169
-39302.863
25926.535
7877.793
56.509663
24650.36
-28061.974
23695.529
37503.099
14888.883
31078.541
-16056.667
-30151.913
63753.463
66588.892
44918.492
22655.194
36443.585
81364.754
79315.256
49561.39
37089.965
125821.06
213391.91
154747.39
144086.44
29269.928
-41317.085
32571.076
178742.27
207786.85
-89745.012
-238643.88
-246031.49
-314617.57
-131309.93
31466.051
-297005.51
-454814.26
-266081.42
-257056.92
-583773.72
-981495.57
-1079652.8
-948374.16
-940666.26
-878486.89
-694842.49
-434175.21
-440033.57
-387294.83
-57198.686
327606.01
469781.75
458529.09
420592.78
373649.28
326056.58
282238.41
243628.76
210261.94
181621.38
157035.79
135847.09
117471.02
101410.83
87252.182
74651.814
63325.199
53035.249
43582.629
34797.714
26534
18662.346
11068.727
3642.3589
-38322.434
26511.1
6598.159
-938.66147
22580.926
-22413.69
16414.547
37503.024
15287.64
32520.065
-15898.764
-30946.5
63856.14
66724.21
43900.777
22316.287
37245.205
80547.832
76508.696
47148.461
37203.462
127980.03
205297.62
152245.08
134914.15
22673.56
-33345.74
37794.86
155417.4
181367.05
-90287.738
-251248.36
-243023.52
-318238.21
-128673.66
34209.359
-298732.65
-468742.03
-257862.67
-263414.57
-606173.48
-1015682.7
-1038949.7
-950218.88
-935607.84
-929906.16
-822185.99
-524622.01
-446114.87
-380828.66
-69715.288
329747.34
473922.11
446999.36
407611.28
362619.33
317376.13
275562.15
238503.67
206301.2
178530
154597.3
133904.31
115909.62
100147.09
86224.28
73813.732
62642.474
52482.001
43139.478
34450.317
26272.029
18478.79
10959.451
3605.7353
-37722.369
27290.692
7268.9301
226.47501
14245.236
-14975.995
15498.769
37498.95
15875.036
32048.452
-16706.272
-30570.585
64547.244
67460.836
40903.792
19819.9
38127.638
80868.217
74740.833
46663.709
38428.58
127544.12
192856.38
149506.25
124929.86
18684.624
-31083.795
38368.826
147563.18
154471.65
-103148.75
-234580.51
-242956
-318118.84
-113276.63
25237.872
-309328.21
-490140.54
-245891.06
-258413.21
-655444.43
-1086217.1
-1139077.5
-964258.82
-933117.83
-938541.97
-862909.74
-674109.25
-531046.44
-391355.35
-74500.443
342239.79
483103.15
436256
395204.95
351934.66
308868.7
268953.82
233389.52
202323.19
175408.96
152125.08
131927.89
114316.67
98854.737
85170.977
72953.451
61940.619
51912.52
42682.821
34091.996
26001.609
18289.199
10846.544
3567.9024
-37856.734
27152.631
9502.547
5945.3998
6820.8851
-13569.631
16282.434
37134.702
15939.418
31834.839
-17528.644
-30136.786
64957.656
64748.379
35032.163
18718.375
38232.454
78377.828
71494.952
46521.025
38501.915
124682.16
179383.76
146462.67
112898.45
10669.701
-37302.419
27783.367
153443.73
135036.36
-117299.32
-239607.03
-230656.97
-319661.34
-99428.658
15157.302
-329583.73
-520015.17
-229371.68
-245765.55
-670948.25
-1130897.6
-1178923.1
-971025.15
-933291.51
-953647.11
-889003.54
-934971.71
-822097.64
-430038.96
-82512.868
396022.22
498184.22
425674.82
383199.75
341548.11
300528.13
262419.15
228294.58
198335.69
172264.79
149624.33
129921.92
112695.36
97536.269
84094.231
72072.511
61220.847
51327.758
42213.399
33723.32
25723.163
18093.863
10730.186
3528.9181
-39024.537
24789.855
11383.564
11462.79
5807.569
-13187.94
15988.54
36745.945
16895.221
31738.547
-18316.647
-30690.976
64898.839
58885.919
29424.775
19146.46
37325.685
74902.541
66860.21
45283.438
36292.825
120713.51
164593.84
141812.15
98294.388
-10025.25
-38508.803
48327.932
178053.36
130872.35
-114842.55
-244616.35
-258606.87
-325254.12
-95889.465
13525.537
-320489.26
-528584.02
-210103.91
-192396.67
-681646.08
-1126773.6
-1163954.9
-987447.39
-946005.68
-968233.45
-907804.95
-1010801.7
-919815.11
-480577.46
134452.84
458897.38
490358.46
413746.92
371411.45
331418.04
292348.49
255962.83
223226.14
194345.79
169103.51
147099.94
127890.3
111048.77
96194.115
82995.96
71172.429
60484.358
50728.66
41731.954
33344.859
25437.114
17893.074
10610.549
3488.8386
-40282.269
19527.123
11157.761
12622.249
5424.5889
-13094.647
15598.931
35502.829
17606.258
31696.799
-18873.229
-29926.95
64323.631
54828.478
25937.382
20259.656
36481.658
70456.197
62612.46
41814.436
30113.912
112449.56
148819.02
136283.85
84873.852
-27573.889
-40717.714
65715.654
194488.83
112471.17
-101769.35
-249929.05
-254401.61
-300743.24
-79858.254
-37926.626
-326078.66
-519315.33
-201160.96
-155988.79
-692614.46
-1157735
-1139918
-1007537.8
-969334.88
-985519.21
-916861.96
-1045330.6
-892602.39
-391385.65
179012.52
476288.82
465663.35
400444.71
359742.18
321517.21
284325.16
249588.83
218190.6
190359.9
165930.73
144556.56
125836.75
109379.87
94830.631
81878.036
70254.693
59732.334
50116.167
41239.222
32957.182
25143.887
17687.128
10487.778
3447.7195
-37220.619
12235.907
9940.6385
13236.434
5167.7672
-12533.086
15201.685
34154.447
18159.446
31713.227
-19516.513
-27151.559
64231.881
51565.579
23616.798
22091.526
35199.021
64800.099
59621.922
37735.641
20608.423
99732.45
133725.81
128615.48
73139.498
-40236.833
-36980.807
75899.754
196902.42
99457.631
-120897.23
-256725.4
-250580.78
-294465.27
-107029.17
-80475.277
-359457.03
-511799.05
-193203.79
-163529.66
-691429.4
-1163044.4
-1129753.5
-1021120.9
-997701.94
-991082.88
-921959.33
-1049141.3
-891200.21
-349260.73
176460.89
441204.07
438940.98
386482.2
348189.73
311831.69
276455.09
243300.6
213193.68
186383.89
162751.67
141998.51
123764.81
107691.51
93448.102
80742.289
69320.767
58965.946
49491.208
40735.938
32560.858
24843.909
17476.316
10361.65
3405.6203
-22835.088
6634.0653
9127.1702
13431.327
5028.3268
-11711.783
14972.382
32640.882
18621.268
31714.949
-20616.902
-24349.27
63271.68
48297.853
22791.158
23459.776
33401.995
64605.153
56897.14
33751.818
9869.9324
85673.404
120794.54
117607.31
60830.371
-48674.414
-37538.985
80565.728
184686.43
93184.907
-130856.17
-261774.05
-261878.92
-292257.72
-105024.75
-80886.093
-437185.2
-590562.2
-161064.55
-195839.66
-684268.83
-1149175.9
-1113619.7
-1018969.4
-1051118.9
-1072698.6
-920845.76
-1025734.2
-879633.02
-334087.32
162525
405111.64
413921.97
372273.97
336787.64
302355.36
268736.48
237101.28
208240.46
182423.06
159571.12
139429.91
121677.85
105986.43
92048.742
79590.5
68372.084
58186.344
48854.702
40222.831
32156.455
24537.607
17260.957
10233.155
3362.6179
1335.4603
5279.0003
8998.4566
13262.217
4841.6243
-10749.56
15029.107
31270.015
19137.89
31658.452
-22344.464
-23740.193
61259.515
45454.666
22761.833
23959.99
31997.153
62858.917
54223.523
28698.174
1348.0882
74892.173
109487.14
107322.25
48240.541
-52125.546
-42865.452
87915.686
176545.8
82704.919
-129985.65
-253214.57
-262378.94
-295172.21
-85277.311
-43790.741
-449789.17
-646068.51
-269200.64
-181440.54
-699831.92
-1138351.3
-1096214.5
-1036027.6
-1119162.6
-1195424.3
-905576.19
-968254.86
-842551.75
-299360.11
158934.21
374068.04
390871.58
358126.38
325576.27
293086.71
261168.57
230993.68
203335.5
178482.27
156393.56
136854.6
119579.09
104267.26
90634.688
78424.402
67410.047
57394.66
48207.56
39700.622
31744.535
24225.404
17041.348
10102.1
3318.7687
9040.5763
6879.7306
8939.1646
13131.128
4631.9971
-9705.0433
15307.074
30207.018
19712.716
31450.723
-24447.212
-23904.668
59151.017
42113.776
22245.775
23846.793
31299.145
62607.686
52634.549
23311.605
-4041.6801
66442.104
97150.354
97261.437
35855.991
-51993.993
-45578.023
84674.735
170048.62
74579.853
-129491.65
-288503.51
-276098.4
-303227.84
-46255.237
-22350.251
-455874.94
-612360.35
-282701.34
-154083.15
-705594.73
-1141406.1
-1083837.9
-1053963.3
-1161439.6
-1221119.6
-866464.45
-880208.98
-784640.44
-252792.68
158596.42
347487.22
369819.53
344254.34
314593.58
284026.82
253751.2
224980.35
198482.87
174565.95
153223.13
134276.19
117471.57
102536.52
89208.006
77245.682
66436.027
56592.005
47550.678
39170.028
31325.658
23907.724
16817.786
9968.6468
3274.1316
42.862446
7890.631
9058.1659
13037.232
4380.172
-8767.7069
15639.433
29338.518
20293.806
31051.537
-26485.595
-24786.674
56891.806
38865.354
21657.952
24265.61
30914.219
63296.759
52089.675
18348.406
-7497.394
58315.944
86922.842
88125.93
25676.779
-52940.468
-50421.914
84518.561
158350.72
68117.519
-124191.27
-294306.24
-282373.08
-295173.4
-28567.722
-14493.653
-470531.65
-626130.89
-297946.92
-149481.52
-697357.1
-1148317.2
-1098375.4
-1074877.4
-1137080
-1229660.7
-769421.13
-780740.91
-720596.33
-206404.82
158074.07
324877.8
350441.36
330637.78
303749.9
275083.1
246411.34
219007.63
193643.86
170646.19
150039.68
131680.1
115344.77
100786.67
87763.374
76050.681
65447.62
55776.927
46883.317
38630.844
30900.011
23585.02
16590.884
9833.4735
3229.3567
10.738402
7755.5471
9175.0388
12971.697
4111.958
-7924.4582
15878.04
28526.67
20789.778
30448.32
-27858.374
-25886.222
55069.855
35608.813
21285.672
25022.064
30922.244
64461.925
52126.269
14774.164
-7387.4758
51923.709
81276.554
82972.219
15380.359
-55707.383
-58735.867
83812.985
146405.42
68419.312
-114625.83
-271491.77
-287194.39
-304989.9
-18625.833
-5731.6119
-475015.56
-580575.31
-303098.72
-169165.44
-733735.94
-1112864.7
-1097224.1
-1066473.1
-1010305
-1088699
-686135.33
-752859.71
-668952.35
-163725.77
158287.78
305867.16
332614.33
317333.49
293040.03
266232.83
239128.29
213059.83
188806.93
166714.44
146836.71
129061.3
113194.7
99014.524
86298.218
74837.294
64443.087
54947.967
46204.235
38081.987
30466.616
23256.378
16359.745
9695.6571
3183.4565
256.74075
7903.9234
9336.144
12846.103
3826.7427
-7168.5703
15978.563
27846.221
21099.386
29617.978
-27823.756
-26489.447
54290.273
32021.62
20853.917
25843.885
31860.859
65761.915
51642.312
14976.194
-3629.4906
48210.087
77239.85
77476.758
7072.0807
-55836.146
-66571.675
76774.338
134067.3
69547.007
-99325.864
-265750.04
-294632.09
-304315.74
-10456.556
-9843.4757
-466004.89
-569593.48
-327317.13
-194647.67
-768023.93
-1046752.8
-1115322.8
-1043965.7
-967382.19
-752641.84
-618940.13
-770169.23
-638048.58
-126827.61
159555.44
290158.49
316366.84
304509.97
282571.03
257548.13
231957.36
207181.23
184007.64
162799
143636.59
126437.39
111035.2
97230.918
84821.016
73612.144
63427.588
54109.127
45516.514
37525.807
30027.245
22923.113
16125.331
9555.8928
3136.9307
677.87273
7971.5207
9462.9154
12700.023
3547.5968
-6464.8122
15925.45
27163.105
21210.022
28522.886
-26502.81
-26826.887
53726.668
28760.457
20823.433
27463.76
33308.945
66614.133
48908.174
18358.28
2539.5947
48102.582
72392.682
68665.506
-1481.9728
-54710.391
-74845.237
69003.023
122241.21
64735.729
-96070.554
-262580.87
-303922.81
-306165.51
-3226.9467
-21683.817
-459023.71
-554030.77
-334621.51
-242838.66
-745112.49
-1041740.7
-1113582.7
-1041581.1
-962286.62
-764668.91
-668400.05
-801994.22
-635442.27
-95831.267
163400.02
277356.93
301550.57
292193.96
272357.91
249033.16
224900.91
201374.78
179249.42
158903.39
140442.6
123811.25
108868.71
95437.92
83333.49
72376.661
62402.303
53261.381
44820.953
36962.952
29582.414
22585.621
15887.923
9414.3526
3089.8367
1110.1553
8080.2121
9541.7374
12510.53
3308.1962
-5794.0524
15730.218
26481.761
21124.498
27179.609
-24870.712
-27721.267
52675.151
25517.93
21169.643
28718.048
34088.19
66914.459
46762.427
22572.611
9896.6406
47691.616
67567.226
59774.403
-13305.104
-62558.422
-83478.372
65196.433
105123.26
56797.189
-95877.452
-268161.76
-321914.28
-316332.68
-9237.4009
-41062.909
-454764.71
-526363.43
-341273.79
-288628.38
-730870.45
-1060717.5
-1027945.7
-1055898.8
-950793.66
-782648.56
-723199.23
-845113.82
-645229.17
-70789.191
171646.4
267084.71
288002.46
280386.23
262408.24
240690.65
217960.93
195643.09
174535.43
155030.84
137257.77
121185.6
106697.58
93637.506
81837.298
71132.226
61368.383
52405.679
44118.333
36394.061
29132.631
22244.291
15647.799
9271.2058
3042.2312
1581.4491
8114.4795
9568.4658
12290.836
3156.3375
-5105.3541
15483.504
25804.872
20902.786
25747.712
-24051.958
-29710.917
51201.1
22074.97
21510.128
30086.567
34054.092
65925.994
46865.877
25648.109
16891.763
48312.125
69297.272
49464.363
-21671.854
-74516.326
-91715.645
70894.597
70368.763
43591.173
-71918.566
-284287.79
-349157.9
-327946.73
-30966.991
-45972.757
-440803.61
-515954.05
-350832.38
-334103.78
-757298.66
-1058905.9
-923606.36
-1119770.1
-915897.57
-766941.99
-772520
-907963.15
-675481.25
-49248.512
183268.4
258959.64
275542.87
269066.9
252722.91
232521.86
211138.96
189988.47
169868.48
151184.32
134084.94
118562.97
104524.02
91831.56
80334.03
69880.173
60326.939
51542.947
43409.421
35819.755
28678.395
21899.508
15405.232
9126.6203
2994.1701
2020.1681
8209.6824
9541.022
12070.755
3137.3713
-4335.5238
15262.274
25146.599
20326.368
24230.388
-23584.642
-31710.825
49644.646
18581.226
21957.912
31500.688
34087.528
64183.19
47980.97
30183.556
22566.829
53509.29
74524.52
37218.732
-26752.654
-86112.002
-97328.712
56838.39
52030.961
43898.496
-70061.499
-298268.62
-366782.3
-344482.04
-57105.02
-34045.903
-427369.99
-494699.35
-357240.35
-415453.35
-782106.6
-1040452.8
-961862.35
-1039063.1
-870912.96
-741627.42
-820985.77
-992080.29
-708954.5
-29743.031
199300.66
252295.36
263982.28
258201.11
243297.43
224526.64
204436.07
184412.86
165251.1
147366.53
130926.7
115945.72
102350.1
90021.873
78825.208
68621.786
59279.05
50674.086
42694.96
35240.647
28220.195
21551.649
15160.496
8980.763
2945.7085
2478.8471
8184.2545
9496.6972
11872.577
3270.6349
-3429.5488
15074.053
24516.808
19383.838
22588.173
-22647.701
-33321.34
48065.957
15210.295
22459.954
32768.667
35023.615
62651.15
50129.201
38288.99
26673.119
56827.388
79138.812
27255.65
-28996.23
-95789.437
-95282.924
34774.743
48749.203
43840.936
-87557.407
-291203.38
-382311.8
-351185.61
-74900.357
-33214.914
-415294.12
-469111.93
-362343.01
-412850.48
-807749.94
-998449.54
-969774.98
-965420.07
-832028.3
-734249.7
-843618.47
-1061273.6
-736829.3
4910.5452
219311.35
246828.7
253175.52
247743.31
234123.25
216703.69
197852.89
178917.93
160685.53
143579.92
127785.47
113336.09
100177.79
88210.143
77312.284
67358.297
58225.755
49799.966
41975.677
34657.332
27758.511
21201.084
14913.857
8833.7965
2896.9003
2889.9798
8260.1153
9453.775