/*--------------------------------*- C++ -*----------------------------------*\
| =========                 |                                                 |
| \\      /  F ield         | OpenFOAM: The Open Source CFD Toolbox           |
|  \\    /   O peration     | Version:  2.3.0                                 |
|   \\  /    A nd           | Web:      www.OpenFOAM.org                      |
|    \\/     M anipulation  |                                                 |
\*---------------------------------------------------------------------------*/
FoamFile
{
    version     2.0;
    format      ascii;
    class       surfaceScalarField;
    location    "5e-06";
    object      phi;
}
// * * * * * * * * * * * * * * * * * * * * * * * * * * * * * * * * * * * * * //

dimensions      [0 3 -1 0 0 0 0];

internalField   nonuniform List<scalar> 
14825
(
1.0328711e-09
-1.9109758e-11
1.0547483e-09
-2.1877127e-11
1.0772609e-09
-2.2512633e-11
1.0935307e-09
-1.6269841e-11
1.1164527e-09
-2.2921984e-11
1.1340846e-09
-1.76319e-11
1.1572186e-09
-2.3133979e-11
1.1783431e-09
-2.1124478e-11
1.1946645e-09
-1.6321391e-11
1.2163173e-09
-2.1652884e-11
1.2353618e-09
-1.904444e-11
1.2584768e-09
-2.3115047e-11
1.2757075e-09
-1.7230624e-11
1.2934588e-09
-1.7751373e-11
1.3116373e-09
-1.817852e-11
1.3321744e-09
-2.0537054e-11
1.3537806e-09
-2.1606159e-11
1.3680376e-09
-1.4257081e-11
1.3869683e-09
-1.8930621e-11
1.4093526e-09
-2.2384368e-11
1.4262681e-09
-1.6915475e-11
1.4414824e-09
-1.521425e-11
1.4582144e-09
-1.6732059e-11
1.4797322e-09
-2.1517821e-11
1.5005663e-09
-2.0834037e-11
1.5118746e-09
-1.1308301e-11
1.5275681e-09
-1.5693507e-11
1.5512625e-09
-2.3694465e-11
1.5656587e-09
-1.4396179e-11
1.5823037e-09
-1.6644955e-11
1.602444e-09
-2.014033e-11
1.6143885e-09
-1.1944514e-11
1.6304555e-09
-1.6067005e-11
1.6524272e-09
-2.1971623e-11
1.6638271e-09
-1.1399918e-11
1.6765121e-09
-1.2685067e-11
1.6930417e-09
-1.652953e-11
1.7088757e-09
-1.5834031e-11
1.7264646e-09
-1.7588874e-11
1.74402e-09
-1.7555392e-11
1.7590149e-09
-1.4994902e-11
1.7887055e-09
-2.9690678e-11
1.8199962e-09
-3.1290639e-11
1.8115679e-09
8.4283006e-12
1.7737456e-09
3.7822258e-11
1.7920919e-09
-1.8346262e-11
1.8177921e-09
-2.5700166e-11
1.8044908e-09
1.3301287e-11
1.7228869e-09
8.1603888e-11
1.5461563e-09
1.7673056e-10
1.3556835e-09
1.9047283e-10
1.0569736e-09
2.9870993e-10
8.438167e-10
2.1315686e-10
6.4150908e-10
2.0230762e-10
4.7521612e-10
1.6629296e-10
3.5844183e-10
1.167743e-10
2.7954337e-10
7.8898454e-11
2.2480382e-10
5.473955e-11
1.8533624e-10
3.9467577e-11
1.5588602e-10
2.9450227e-11
1.333071e-10
2.257892e-11
1.1563546e-10
1.7671642e-11
1.0158768e-10
1.4047776e-11
9.0290849e-11
1.1296833e-11
8.1131581e-11
9.1592684e-12
7.3667732e-11
7.4638495e-12
6.7574204e-11
6.0935285e-12
6.2608471e-11
4.9657326e-12
5.8587867e-11
4.0206046e-12
5.5374225e-11
3.2136424e-12
5.286336e-11
2.5108652e-12
5.0977745e-11
1.8856143e-12
4.966151e-11
1.3162359e-12
4.887577e-11
7.8573933e-13
2.4376021e-13
2.8581925e-09
-7.5336343e-11
2.9230178e-09
-8.6702412e-11
2.9885266e-09
-8.8021453e-11
3.0366992e-09
-6.4442384e-11
3.1034828e-09
-8.9705637e-11
3.1566664e-09
-7.0815513e-11
3.2255084e-09
-9.1975924e-11
3.2880905e-09
-8.3706605e-11
3.3377521e-09
-6.5982991e-11
3.4003291e-09
-8.4229847e-11
3.4579721e-09
-7.6687501e-11
3.5268952e-09
-9.2038118e-11
3.5781107e-09
-6.8446144e-11
3.6319717e-09
-7.1612378e-11
3.6871926e-09
-7.3399363e-11
3.7498852e-09
-8.3229671e-11
3.815336e-09
-8.7056929e-11
3.8577522e-09
-5.6673296e-11
3.9160066e-09
-7.7185073e-11
3.9839566e-09
-9.0334397e-11
4.0343584e-09
-6.7317197e-11
4.0822378e-09
-6.3093723e-11
4.1341235e-09
-6.8617744e-11
4.1987695e-09
-8.6163787e-11
4.2614084e-09
-8.3472994e-11
4.2998051e-09
-4.9704956e-11
4.3464484e-09
-6.2336784e-11
4.4194658e-09
-9.6711872e-11
4.4666135e-09
-6.154393e-11
4.5171389e-09
-6.7170275e-11
4.5773739e-09
-8.0375359e-11
4.6199954e-09
-5.4566029e-11
4.674679e-09
-7.0750627e-11
4.737876e-09
-8.5168593e-11
4.7767956e-09
-5.0319475e-11
4.8314401e-09
-6.7329619e-11
4.8894651e-09
-7.455453e-11
4.9177571e-09
-4.4126066e-11
4.9784023e-09
-7.8234053e-11
5.0651325e-09
-1.0428557e-10
5.1323736e-09
-8.2235998e-11
5.2044073e-09
-1.0172437e-10
5.3184127e-09
-1.4529605e-10
5.3354026e-09
-8.5616184e-12
5.2566564e-09
1.165685e-10
5.2243198e-09
1.3990329e-11
5.239141e-09
-4.0521383e-11
5.2722202e-09
-1.977791e-11
5.2503232e-09
1.0350088e-10
5.0041188e-09
4.2293493e-10
4.4191534e-09
7.7543826e-10
3.392603e-09
1.3252604e-09
2.5421507e-09
1.0636092e-09
1.8877321e-09
8.5672623e-10
1.3910491e-09
6.6297592e-10
1.0493834e-09
4.5844004e-10
8.195024e-10
3.0877942e-10
6.6000607e-10
2.1423588e-10
5.4490401e-10
1.5456963e-10
4.5893393e-10
1.154203e-10
3.9296794e-10
8.8544914e-11
3.4130422e-10
6.9335362e-11
3.0021343e-10
5.5138574e-11
2.6715692e-10
4.4353337e-11
2.4034981e-10
3.5966382e-11
2.1850497e-10
2.9308687e-11
2.0067591e-10
2.3922596e-11
1.8615663e-10
1.9485015e-11
1.744157e-10
1.5761533e-11
1.6505163e-10
1.2577706e-11
1.5776234e-10
9.800158e-12
1.5232388e-10
7.3240799e-12
1.4857599e-10
5.0641177e-12
1.4640846e-10
2.9532746e-12
7.8988683e-13
4.3601862e-09
-1.6741301e-10
4.467159e-09
-1.9367526e-10
4.5711027e-09
-1.9196517e-10
4.6503653e-09
-1.4370498e-10
4.7559673e-09
-1.953076e-10
4.8498071e-09
-1.6465526e-10
4.9642808e-09
-2.064497e-10
5.0641211e-09
-1.8354691e-10
5.1477427e-09
-1.4960458e-10
5.2479262e-09
-1.8441337e-10
5.3437328e-09
-1.7249402e-10
5.4506518e-09
-1.9895711e-10
5.5372779e-09
-1.550723e-10
5.6340268e-09
-1.6836131e-10
5.7266462e-09
-1.6601872e-10
5.8290664e-09
-1.8564989e-10
5.9349396e-09
-1.9293007e-10
6.0038881e-09
-1.2562186e-10
6.0968021e-09
-1.7009908e-10
6.2102938e-09
-2.0382609e-10
6.3071818e-09
-1.6420522e-10
6.3942053e-09
-1.5011717e-10
6.4820148e-09
-1.5642727e-10
6.5884804e-09
-1.9262933e-10
6.6931492e-09
-1.8814181e-10
6.7612039e-09
-1.1775968e-10
6.8319767e-09
-1.3310963e-10
6.9584667e-09
-2.2320183e-10
7.0484984e-09
-1.515756e-10
7.1368527e-09
-1.5552462e-10
7.2378576e-09
-1.8138025e-10
7.317649e-09
-1.3435744e-10
7.4135738e-09
-1.6667538e-10
7.5176974e-09
-1.8929226e-10
7.5985649e-09
-1.3118693e-10
7.6840924e-09
-1.5285716e-10
7.7770397e-09
-1.6750186e-10
7.8665485e-09
-1.3363486e-10
7.9484007e-09
-1.6008622e-10
8.0789956e-09
-2.3488049e-10
8.2495941e-09
-2.5283451e-10
8.3035306e-09
-1.5566083e-10
8.3584518e-09
-2.0021724e-10
8.5050029e-09
-1.5511276e-10
8.5548394e-09
6.6732032e-11
8.4449835e-09
1.2384622e-10
8.3937884e-09
1.067369e-11
8.4722158e-09
-9.8205303e-11
8.4623607e-09
1.1335605e-10
8.0814788e-09
8.0381675e-10
7.2358431e-09
1.621074e-09
5.4863015e-09
3.0748019e-09
4.1073274e-09
2.4425833e-09
3.0512052e-09
1.9128484e-09
2.2473675e-09
1.4668137e-09
1.6976579e-09
1.0081496e-09
1.3287614e-09
6.776759e-10
1.0725588e-09
4.7043843e-10
8.8728311e-10
3.3984536e-10
7.4862718e-10
2.5407623e-10
6.4206662e-10
1.9510547e-10
5.5850843e-10
1.5289356e-10
4.9198931e-10
1.216577e-10
4.3844089e-10
9.7901763e-11
3.9499792e-10
7.940935e-11
3.5959187e-10
6.4714739e-11
3.3070054e-10
5.2813925e-11
3.0718829e-10
4.2997264e-11
2.8820055e-10
3.4749278e-11
2.7309237e-10
2.7685885e-11
2.6137957e-10
2.1512962e-11
2.5270467e-10
1.5998975e-11
2.4681391e-10
1.0954876e-11
2.4353521e-10
6.2319742e-12
1.3795432e-12
5.5841469e-09
-2.9508923e-10
5.7275371e-09
-3.3706542e-10
5.8663727e-09
-3.3080079e-10
5.9799309e-09
-2.5726317e-10
6.1240171e-09
-3.3939378e-10
6.2595688e-09
-3.0020697e-10
6.416227e-09
-3.6310795e-10
6.5506939e-09
-3.1801377e-10
6.6604301e-09
-2.5934082e-10
6.7966359e-09
-3.2061917e-10
6.9409172e-09
-3.1677523e-10
7.089813e-09
-3.4785294e-10
7.208238e-09
-2.7349737e-10
7.3454775e-09
-3.0560079e-10
7.466272e-09
-2.8681319e-10
7.6018173e-09
-3.2119521e-10
7.7643894e-09
-3.5550212e-10
7.8861054e-09
-2.4733791e-10
8.0071016e-09
-2.9109528e-10
8.1423595e-09
-3.3908398e-10
8.2756059e-09
-2.9745159e-10
8.422105e-09
-2.9661624e-10
8.5442078e-09
-2.7853006e-10
8.6822134e-09
-3.3063496e-10
8.8456125e-09
-3.5154096e-10
8.9585487e-09
-2.306958e-10
9.073251e-09
-2.4781202e-10
9.2328146e-09
-3.8276536e-10
9.3554877e-09
-2.7424867e-10
9.4892272e-09
-2.892642e-10
9.6338676e-09
-3.260206e-10
9.7514774e-09
-2.5196725e-10
9.8849648e-09
-3.0016282e-10
1.0018809e-08
-3.2313634e-10
1.0123088e-08
-2.3546598e-10
1.0259897e-08
-2.8966578e-10
1.0406227e-08
-3.1383202e-10
1.0530082e-08
-2.5748964e-10
1.0658912e-08
-2.8891677e-10
1.0854654e-08
-4.3062235e-10
1.1060736e-08
-4.5891692e-10
1.1274781e-08
-3.6970541e-10
1.1467318e-08
-3.9275448e-10
1.1432867e-08
-1.2066148e-10
1.1458831e-08
4.0767947e-11
1.1415159e-08
1.6751804e-10
1.1155511e-08
2.7032166e-10
1.1384027e-08
-3.2672108e-10
1.1654709e-08
-1.573258e-10
1.0922994e-08
1.5355314e-09
9.2656692e-09
3.2783991e-09
6.9555822e-09
5.3848889e-09
5.416079e-09
3.9820865e-09
4.1127691e-09
3.2161583e-09
3.0398409e-09
2.5397419e-09
2.3012687e-09
1.7467218e-09
1.8064253e-09
1.1725193e-09
1.4621592e-09
8.1470452e-10
1.2124501e-09
5.8955446e-10
1.0250613e-09
4.4146511e-10
8.8074077e-10
3.3942596e-10
7.6739186e-10
2.6624247e-10
6.7704879e-10
2.1200077e-10
6.0425877e-10
1.7069178e-10
5.4517196e-10
1.3849616e-10
4.9700408e-10
1.1288262e-10
4.577039e-10
9.2114107e-11
4.2574021e-10
7.4960949e-11
3.999609e-10
6.0528592e-11
3.7949723e-10
4.8149552e-11
3.636984e-10
3.731179e-11
3.5208591e-10
2.7611466e-11
3.4432277e-10
1.8718019e-11
3.4018394e-10
1.0370802e-11
1.7753103e-12
6.5648287e-09
-4.5414661e-10
6.7403026e-09
-5.1253936e-10
6.9222042e-09
-5.1270235e-10
7.0720072e-09
-4.0706619e-10
7.2440589e-09
-5.1144544e-10
7.4121024e-09
-4.6825053e-10
7.6077677e-09
-5.5877321e-10
7.7797947e-09
-4.9004073e-10
7.919221e-09
-3.9876717e-10
8.0809048e-09
-4.8230299e-10
8.2816487e-09
-5.175191e-10
8.4769062e-09
-5.431104e-10
8.617653e-09
-4.142442e-10
8.794601e-09
-4.8254877e-10
8.9697366e-09
-4.6194884e-10
9.1410164e-09
-4.9247502e-10
9.3244113e-09
-5.3889694e-10
9.4789487e-09
-4.0187531e-10
9.6474398e-09
-4.5958644e-10
9.8378044e-09
-5.2944854e-10
1.0018867e-08
-4.7851413e-10
1.0168771e-08
-4.465203e-10
1.0322224e-08
-4.319834e-10
1.0509015e-08
-5.1742581e-10
1.0721527e-08
-5.640524e-10
1.0892519e-08
-4.0168827e-10
1.1053855e-08
-4.0914762e-10
1.125552e-08
-5.8443094e-10
1.1403827e-08
-4.2255584e-10
1.1589444e-08
-4.7488081e-10
1.1790738e-08
-5.2731435e-10
1.1941398e-08
-4.0262738e-10
1.2124929e-08
-4.8369359e-10
1.2320701e-08
-5.1890826e-10
1.2457008e-08
-3.7177377e-10
1.2589295e-08
-4.2195279e-10
1.2732107e-08
-4.5664361e-10
1.2910444e-08
-4.3582665e-10
1.3105679e-08
-4.8415144e-10
1.3337565e-08
-6.6250906e-10
1.3604916e-08
-7.2626761e-10
1.3899734e-08
-6.6452321e-10
1.4155327e-08
-6.483476e-10
1.4251218e-08
-2.1655204e-10
1.426854e-08
2.3445419e-11
1.4305067e-08
1.3099067e-10
1.4360962e-08
2.1442722e-10
1.3989268e-08
4.4972479e-11
1.353215e-08
2.9979254e-10
1.3801092e-08
1.266589e-09
1.2542464e-08
4.5370274e-09
9.6411117e-09
8.2862412e-09
7.0795934e-09
6.5436048e-09
5.1883871e-09
5.1073647e-09
3.7787349e-09
3.949394e-09
2.8595683e-09
2.6658884e-09
2.2519031e-09
1.7801845e-09
1.8286402e-09
1.2379674e-09
1.5204352e-09
8.9775952e-10
1.2883425e-09
6.7355776e-10
1.1091188e-09
5.1864966e-10
9.6808061e-10
4.072807e-10
8.5550479e-10
3.245766e-10
7.6470598e-10
2.6149059e-10
6.9094855e-10
2.122536e-10
6.3079957e-10
1.730316e-10
5.81726e-10
1.4118768e-10
5.4183529e-10
1.1485166e-10
5.0970324e-10
9.2660646e-11
4.8425673e-10
7.359606e-11
4.6469349e-10
5.6875029e-11
4.5042606e-10
4.1878894e-11
4.4104409e-10
2.8099991e-11
4.3627778e-10
1.5137115e-11
1.7606042e-12
7.3370006e-09
-6.4130059e-10
7.5535483e-09
-7.2908712e-10
7.7762279e-09
-7.3538191e-10
7.951211e-09
-5.8204931e-10
8.1463822e-09
-7.0661668e-10
8.3450266e-09
-6.6689484e-10
8.5667863e-09
-7.8053292e-10
8.7861143e-09
-7.0936878e-10
8.9681522e-09
-5.8080511e-10
9.1599422e-09
-6.7409297e-10
9.3896444e-09
-7.4722123e-10
9.6349847e-09
-7.8845073e-10
9.8180102e-09
-5.9726975e-10
1.0009116e-08
-6.7365496e-10
1.0220699e-08
-6.7353148e-10
1.0453923e-08
-7.2569932e-10
1.0670664e-08
-7.5563783e-10
1.0862578e-08
-5.9378881e-10
1.1086552e-08
-6.8356029e-10
1.1306735e-08
-7.496323e-10
1.1506836e-08
-6.7861427e-10
1.171154e-08
-6.5122505e-10
1.1921067e-08
-6.4151009e-10
1.210193e-08
-6.9828933e-10
1.2358556e-08
-8.2067836e-10
1.2584882e-08
-6.2801351e-10
1.2813748e-08
-6.3801367e-10
1.3053511e-08
-8.2419421e-10
1.3235808e-08
-6.048529e-10
1.3468561e-08
-7.0763366e-10
1.3718065e-08
-7.7681845e-10
1.3916596e-08
-6.0115812e-10
1.4158206e-08
-7.2530393e-10
1.4387574e-08
-7.4827585e-10
1.456781e-08
-5.5201019e-10
1.4797028e-08
-6.5117085e-10
1.4985818e-08
-6.4543381e-10
1.5181827e-08
-6.3183486e-10
1.5481839e-08
-7.8416429e-10
1.5776487e-08
-9.5715713e-10
1.5966574e-08
-9.1635436e-10
1.6192019e-08
-8.8996816e-10
1.6485471e-08
-9.4179971e-10
1.6709155e-08
-4.402362e-10
1.6811926e-08
-7.9324784e-11
1.6879532e-08
6.338392e-11
1.6974876e-08
1.1908339e-10
1.694245e-08
7.7398206e-11
1.6730431e-08
5.1181171e-10
1.6492593e-08
1.5044269e-09
1.6498959e-08
4.5306622e-09
1.5426386e-08
9.3588139e-09
9.841191e-09
1.21288e-08
6.2880828e-09
8.6604728e-09
4.4555663e-09
5.7819106e-09
3.3705735e-09
3.7508812e-09
2.6648551e-09
2.4859029e-09
2.1720585e-09
1.730764e-09
1.8113917e-09
1.2584264e-09
1.538641e-09
9.4630841e-10
1.3273613e-09
7.299294e-10
1.160716e-09
5.7392594e-10
1.0274765e-09
4.5781611e-10
9.1987947e-10
3.6908766e-10
8.3240342e-10
2.9972965e-10
7.6103435e-10
2.4440067e-10
7.0280462e-10
1.9941742e-10
6.5549434e-10
1.6216194e-10
6.174324e-10
1.3072259e-10
5.8736032e-10
1.0366814e-10
5.6433911e-10
7.9896242e-11
5.4768397e-10
5.8534033e-11
5.3692053e-10
3.8863425e-11
5.3174192e-10
2.031573e-11
1.1379163e-12
7.9476394e-09
-8.7070344e-10
8.1752802e-09
-9.5672797e-10
8.4213907e-09
-9.8149239e-10
8.6438119e-09
-8.0447049e-10
8.8657073e-09
-9.2851212e-10
9.0943743e-09
-8.9556179e-10
9.3507598e-09
-1.0369185e-09
9.6128403e-09
-9.7144922e-10
9.8182057e-09
-7.8617049e-10
1.0045979e-08
-9.0186651e-10
1.0330683e-08
-1.0319254e-09
1.0591014e-08
-1.048781e-09
1.0804729e-08
-8.109852e-10
1.1054087e-08
-9.2301311e-10
1.1273364e-08
-8.9280852e-10
1.1548016e-08
-1.0003508e-09
1.1820563e-08
-1.0281855e-09
1.2029932e-08
-8.0315764e-10
1.2283616e-08
-9.3724423e-10
1.2583567e-08
-1.0495833e-09
1.2820544e-08
-9.155906e-10
1.3063047e-08
-8.9372844e-10
1.3318643e-08
-8.9710573e-10
1.3561871e-08
-9.4151746e-10
1.3776483e-08
-1.0352902e-09
1.4025339e-08
-8.7686957e-10
1.4349931e-08
-9.6260604e-10
1.4666029e-08
-1.1402924e-09
1.4852851e-08
-7.9167481e-10
1.5133639e-08
-9.8842159e-10
1.5442627e-08
-1.0858067e-09
1.5706907e-08
-8.6543802e-10
1.5999771e-08
-1.0181678e-09
1.625829e-08
-1.0067944e-09
1.6478077e-08
-7.7179716e-10
1.6743514e-08
-9.1660785e-10
1.6987964e-08
-8.8988473e-10
1.7258239e-08
-9.0210909e-10
1.7616577e-08
-1.1425023e-09
1.8059518e-08
-1.4000983e-09
1.8472614e-08
-1.3294505e-09
1.8676421e-08
-1.0937753e-09
1.8795013e-08
-1.0603919e-09
1.9164529e-08
-8.0975208e-10
1.9311894e-08
-2.2668991e-10
1.9042206e-08
3.3307217e-10
1.9082889e-08
7.8400577e-11
1.93186e-08
-1.5831293e-10
1.9204969e-08
6.254423e-10
1.8697559e-08
2.0118371e-09
1.8351409e-08
4.8768126e-09
1.7089075e-08
1.0621148e-08
1.2488146e-08
1.6729729e-08
7.4181914e-09
1.3730427e-08
5.0630887e-09
8.1370133e-09
3.832305e-09
4.9816649e-09
3.0452634e-09
3.2729445e-09
2.4926632e-09
2.2833641e-09
2.0855669e-09
1.6655227e-09
1.7761693e-09
1.255706e-09
1.5356455e-09
9.7045321e-10
1.3454436e-09
7.6412781e-10
1.1930811e-09
6.1017864e-10
1.0698711e-09
4.9229765e-10
9.6960614e-10
3.9999461e-10
8.8775814e-10
3.2624867e-10
8.2097163e-10
2.6620393e-10
7.6673295e-10
2.1640061e-10
7.2314878e-10
1.7430677e-10
6.8879389e-10
1.3802303e-10
6.6260685e-10
1.0608329e-10
6.438167e-10
7.7324178e-11
6.3189396e-10
5.0786168e-11
6.2650182e-10
2.5707869e-11
-2.7151495e-13
8.3838609e-09
-1.1178575e-09
8.6345092e-09
-1.2073763e-09
8.9231329e-09
-1.2701161e-09
9.1705922e-09
-1.0519298e-09
9.4338615e-09
-1.1917814e-09
9.6984583e-09
-1.1601585e-09
9.9672238e-09
-1.305684e-09
1.0285094e-08
-1.2893196e-09
1.0541846e-08
-1.0429225e-09
1.0742359e-08
-1.102379e-09
1.1069832e-08
-1.3593988e-09
1.1391937e-08
-1.370886e-09
1.1637606e-08
-1.0566537e-09
1.1917685e-08
-1.2030929e-09
1.2175492e-08
-1.1506147e-09
1.248278e-08
-1.3076391e-09
1.2821706e-08
-1.3671112e-09
1.306818e-08
-1.0496316e-09
1.3321131e-08
-1.1901953e-09
1.364769e-08
-1.3761431e-09
1.392256e-08
-1.1904601e-09
1.4185143e-08
-1.1563114e-09
1.4507164e-08
-1.2191269e-09
1.4818187e-08
-1.2525404e-09
1.511421e-08
-1.3313137e-09
1.5364647e-08
-1.1273066e-09
1.5685144e-08
-1.2831023e-09
1.6047073e-08
-1.502222e-09
1.6304164e-08
-1.048765e-09
1.6558944e-08
-1.243202e-09
1.6976324e-08
-1.5031866e-09
1.7328968e-08
-1.2180824e-09
1.7663217e-08
-1.3524163e-09
1.7947981e-08
-1.291559e-09
1.822268e-08
-1.0464955e-09
1.8528299e-08
-1.2222273e-09
1.8797029e-08
-1.1586145e-09
1.9134158e-08
-1.2392378e-09
1.9558006e-08
-1.5663512e-09
2.0057412e-08
-1.8995035e-09
2.0556767e-08
-1.8288063e-09
2.0866714e-08
-1.4037215e-09
2.1088916e-08
-1.282594e-09
2.1404121e-08
-1.124957e-09
2.175218e-08
-5.7474912e-10
2.1961649e-08
1.2360305e-10
2.1821187e-08
2.1886223e-10
2.1475351e-08
1.8752352e-10
2.1325581e-08
7.7521259e-10
2.068383e-08
2.6535872e-09
1.9777361e-08
5.7832825e-09
1.8351443e-08
1.2047065e-08
1.3569751e-08
2.1511421e-08
8.0232138e-09
1.9276965e-08
5.5326156e-09
1.0627611e-08
4.2396523e-09
6.2746283e-09
3.3933026e-09
4.1192941e-09
2.7908828e-09
2.885784e-09
2.343292e-09
2.1131135e-09
2.0011768e-09
1.5978212e-09
1.7341634e-09
1.2374667e-09
1.5224124e-09
9.7587878e-10
1.3524337e-09
7.8015733e-10
1.2147685e-09
6.2996288e-10
1.1026211e-09
5.1214202e-10
1.0110154e-09
4.178544e-10
9.3625398e-10
3.4096532e-10
8.7556239e-10
2.770922e-10
8.2684921e-10
2.2301995e-10
7.8854054e-10
1.763317e-10
7.5946632e-10
1.3515751e-10
7.3878014e-10
9.8010357e-11
7.2590578e-10
6.3660528e-11
7.2048349e-10
3.1130164e-11
-2.628767e-12
8.6910043e-09
-1.3811537e-09
9.0006294e-09
-1.5170013e-09
9.2899638e-09
-1.5594506e-09
9.5727218e-09
-1.3346877e-09
9.8647551e-09
-1.4838148e-09
1.0141424e-08
-1.4368271e-09
1.0455323e-08
-1.6195831e-09
1.0796144e-08
-1.6301413e-09
1.1105107e-08
-1.3518848e-09
1.1345456e-08
-1.3427283e-09
1.1658954e-08
-1.6728964e-09
1.2033376e-08
-1.7453082e-09
1.2319818e-08
-1.3430963e-09
1.2607824e-08
-1.491099e-09
1.2926717e-08
-1.4695073e-09
1.3275289e-08
-1.6562107e-09
1.3630283e-08
-1.7221059e-09
1.3944321e-08
-1.3636689e-09
1.4217699e-08
-1.4635741e-09
1.460082e-08
-1.7592633e-09
1.4942712e-08
-1.5323528e-09
1.5190961e-08
-1.4045595e-09
1.5510204e-08
-1.5383705e-09
1.5863884e-08
-1.6062202e-09
1.6223161e-08
-1.690591e-09
1.655095e-08
-1.4550954e-09
1.6951587e-08
-1.6837389e-09
1.7304768e-08
-1.855403e-09
1.7541205e-08
-1.2852021e-09
1.7907701e-08
-1.6096978e-09
1.8277109e-08
-1.8725954e-09
1.8734283e-08
-1.6752561e-09
1.917258e-08
-1.7907132e-09
1.9465025e-08
-1.584004e-09
1.9779072e-08
-1.3605427e-09
2.0150445e-08
-1.5936002e-09
2.0469871e-08
-1.4780402e-09
2.0861782e-08
-1.6311489e-09
2.1342448e-08
-2.0470178e-09
2.195868e-08
-2.515735e-09
2.2466543e-08
-2.3366691e-09
2.2715591e-08
-1.6527697e-09
2.2958958e-08
-1.5259608e-09
2.3193354e-08
-1.3593537e-09
2.3617814e-08
-9.9920825e-10
2.4133953e-08
-3.9253661e-10
2.4396394e-08
-4.3578396e-11
2.461435e-08
-3.0432457e-11
2.4305589e-08
1.0839731e-09
2.2844375e-08
4.1148014e-09
2.1377686e-08
7.2499717e-09
1.7645988e-08
1.5778763e-08
1.1757235e-08
2.7400174e-08
7.9247679e-09
2.3109432e-08
5.8776293e-09
1.267475e-08
4.5959064e-09
7.5563511e-09
3.7101541e-09
5.0050465e-09
3.0673614e-09
3.5285767e-09
2.5849758e-09
2.595499e-09
2.2139459e-09
1.9688511e-09
1.9231195e-09
1.5282931e-09
1.6917743e-09
1.207224e-09
1.5056478e-09
9.6628387e-10
1.3546552e-09
7.809555e-10
1.2315078e-09
6.3528943e-10
1.1308456e-09
5.1851661e-10
1.0486741e-09
4.2313681e-10
9.8198997e-10
3.4377632e-10
9.2852723e-10
2.7648268e-10
8.8658081e-10
2.1827813e-10
8.5488534e-10
1.6685298e-10
8.3252917e-10
1.2036653e-10
8.1889725e-10
7.7292447e-11
8.1361313e-10
3.6414287e-11
-6.078577e-12
8.917017e-09
-1.6873906e-09
9.223248e-09
-1.8232324e-09
9.5413317e-09
-1.8775343e-09
9.8583009e-09
-1.6516569e-09
1.0169648e-08
-1.795162e-09
1.0491858e-08
-1.7590368e-09
1.0794555e-08
-1.9222799e-09
1.1172734e-08
-2.0083208e-09
1.1544166e-08
-1.7233163e-09
1.1823979e-08
-1.6225415e-09
1.2153734e-08
-2.0026517e-09
1.2527196e-08
-2.1187699e-09
1.2872794e-08
-1.6886941e-09
1.3205433e-08
-1.8237379e-09
1.3572117e-08
-1.8361915e-09
1.3967687e-08
-2.0517809e-09
1.4281741e-08
-2.0361596e-09
1.4674592e-08
-1.7565205e-09
1.501208e-08
-1.8010616e-09
1.5389086e-08
-2.1362693e-09
1.5811137e-08
-1.9544042e-09
1.612973e-08
-1.7231519e-09
1.6441845e-08
-1.8504863e-09
1.681288e-08
-1.9772543e-09
1.723908e-08
-2.1167918e-09
1.7581022e-08
-1.7970369e-09
1.7990015e-08
-2.0927321e-09
1.8484226e-08
-2.3496137e-09
1.8707189e-08
-1.5081649e-09
1.9039764e-08
-1.9422728e-09
1.9615532e-08
-2.4483634e-09
2.0104231e-08
-2.163955e-09
2.0549428e-08
-2.235911e-09
2.0864867e-08
-1.8994423e-09
2.1167871e-08
-1.6635466e-09
2.1412896e-08
-1.8386255e-09
2.1968776e-08
-2.0339206e-09
2.2493496e-08
-2.1558687e-09
2.3027709e-08
-2.5812309e-09
2.3711842e-08
-3.1998681e-09
2.437421e-08
-2.9990372e-09
2.469632e-08
-1.9748796e-09
2.4761111e-08
-1.5907512e-09
2.4991004e-08
-1.5892474e-09
2.5377049e-08
-1.3852529e-09
2.596457e-08
-9.8005775e-10
2.6345436e-08
-4.2444455e-10
2.6166304e-08
1.4870014e-10
2.5461881e-08
1.7883958e-09
2.5024652e-08
4.55203e-09
2.1534147e-08
1.0740478e-08
1.39367e-08
2.3376209e-08
9.7515227e-09
3.1585352e-08
7.8529254e-09
2.5008029e-08
6.1676222e-09
1.4360053e-08
4.9092595e-09
8.8147139e-09
3.9976876e-09
5.9166183e-09
3.3229082e-09
4.2033562e-09
2.8110903e-09
3.1073168e-09
2.4147857e-09
2.3651557e-09
2.1027291e-09
1.8403497e-09
1.8536838e-09
1.4562694e-09
1.6528351e-09
1.1671325e-09
1.4896113e-09
9.4417931e-10
1.3563217e-09
7.6857909e-10
1.2472842e-09
6.275541e-10
1.1582506e-09
5.1217039e-10
1.0860197e-09
4.160072e-10
1.0281737e-09
3.3432869e-10
9.8289324e-10
2.6355861e-10
9.4883041e-10
2.0091581e-10
9.2501802e-10
1.4417891e-10
9.1080964e-10
9.1500835e-11
9.0581799e-10
4.1405939e-11
-1.0749932e-11
9.0366107e-09
-2.021093e-09
9.3524416e-09
-2.1390633e-09
9.6788272e-09
-2.2039199e-09
1.0045051e-08
-2.0178811e-09
1.0410147e-08
-2.1602571e-09
1.0750651e-08
-2.099541e-09
1.1053047e-08
-2.2246763e-09
1.1420561e-08
-2.3758341e-09
1.1870269e-08
-2.1730251e-09
1.2201e-08
-1.9532717e-09
1.254311e-08
-2.3447624e-09
1.2905004e-08
-2.4806635e-09
1.3288453e-08
-2.072143e-09
1.3732665e-08
-2.26795e-09
1.4120039e-08
-2.2235653e-09
1.4523747e-08
-2.4554888e-09
1.4837236e-08
-2.3496488e-09
1.5242421e-08
-2.1617058e-09
1.5708765e-08
-2.2674057e-09
1.6083151e-08
-2.5106552e-09
1.6514094e-08
-2.3853468e-09
1.6934037e-08
-2.1430955e-09
1.7227611e-08
-2.14406e-09
1.7665443e-08
-2.4150864e-09
1.8224825e-08
-2.6761734e-09
1.8563817e-08
-2.1360285e-09
1.8943621e-08
-2.4725362e-09
1.9400089e-08
-2.8060818e-09
1.9826275e-08
-1.9343516e-09
2.0215167e-08
-2.3311645e-09
2.0695775e-08
-2.9289708e-09
2.1310066e-08
-2.7782469e-09
2.1723449e-08
-2.6492931e-09
2.2193358e-08
-2.3693518e-09
2.2580743e-08
-2.0509315e-09
2.2929575e-08
-2.1874571e-09
2.3216833e-08
-2.321179e-09
2.3746612e-08
-2.6856473e-09
2.4508538e-08
-3.3431575e-09
2.5353381e-08
-4.0447105e-09
2.6038583e-08
-3.6842391e-09
2.6371996e-08
-2.3082929e-09
2.6906725e-08
-2.12548e-09
2.7150578e-08
-1.8331008e-09
2.7179945e-08
-1.41462e-09
2.7680243e-08
-1.480356e-09
2.8180504e-08
-9.2470512e-10
2.8229102e-08
1.001021e-10
2.7965024e-08
2.0524735e-09
2.5910752e-08
6.6063019e-09
2.0598685e-08
1.6052545e-08
1.2254039e-08
3.1720854e-08
9.1940611e-09
3.464533e-08
7.9219121e-09
2.6280178e-08
6.4180543e-09
1.5863911e-08
5.1848435e-09
1.0047925e-08
4.2577942e-09
6.8436676e-09
3.5584258e-09
4.9027246e-09
3.0221539e-09
3.6435887e-09
2.6040265e-09
2.7832831e-09
2.2732155e-09
2.1711606e-09
2.0082968e-09
1.7211881e-09
1.794106e-09
1.3813233e-09
1.619714e-09
1.1185713e-09
1.4771146e-09
9.1117847e-10
1.3603631e-09
7.4430566e-10
1.2649989e-09
6.0753459e-10
1.1876529e-09
4.9335316e-10
1.1257773e-09
3.962043e-10
1.0774547e-09
3.1188119e-10
1.041267e-09
2.3710355e-10
1.0162006e-09
1.6924531e-10
1.0015847e-09
1.0611678e-10
9.9702634e-10
4.5964254e-11
-1.6756796e-11
9.087739e-09
-2.389994e-09
9.4008585e-09
-2.4521828e-09
9.7544857e-09
-2.5575471e-09
1.0162186e-08
-2.4255818e-09
1.0556022e-08
-2.5540927e-09
1.0933438e-08
-2.4769574e-09
1.1230601e-08
-2.5218393e-09
1.1609195e-08
-2.754428e-09
1.2068308e-08
-2.6321377e-09
1.2482134e-08
-2.3670983e-09
1.2841961e-08
-2.7045894e-09
1.3193273e-08
-2.8319755e-09
1.3639677e-08
-2.5185468e-09
1.412441e-08
-2.7526826e-09
1.4577429e-08
-2.6765842e-09
1.4943281e-08
-2.8213413e-09
1.5306872e-08
-2.7132399e-09
1.5775044e-08
-2.6298774e-09
1.62597e-08
-2.752062e-09
1.6683312e-08
-2.9342675e-09
1.7068344e-08
-2.770378e-09
1.761619e-08
-2.6909415e-09
1.7977651e-08
-2.505521e-09
1.8378069e-08
-2.8155052e-09
1.9044283e-08
-3.3423869e-09
1.9480052e-08
-2.5717978e-09
1.9819292e-08
-2.8117757e-09
2.0239671e-08
-3.2264615e-09
2.074255e-08
-2.43723e-09
2.1283737e-08
-2.8723519e-09
2.1748095e-08
-3.3933283e-09
2.2224035e-08
-3.2541873e-09
2.2708086e-08
-3.1333438e-09
2.3295715e-08
-2.9569814e-09
2.3855586e-08
-2.6108028e-09
2.4174896e-08
-2.5067671e-09
2.4704154e-08
-2.8504367e-09
2.5269063e-08
-3.2505561e-09
2.5501448e-08
-3.5755428e-09
2.6570751e-08
-5.1140128e-09
2.7944122e-08
-5.0576103e-09
2.8460741e-08
-2.8249125e-09
2.8702559e-08
-2.3672978e-09
2.9384615e-08
-2.5151567e-09
2.9763078e-08
-1.7930826e-09
2.9536459e-08
-1.2537376e-09
3.0196024e-08
-1.5842702e-09
3.0456491e-08
-1.6036491e-10
2.9465113e-08
3.0438518e-09
2.7256346e-08
8.8150685e-09
2.0825494e-08
2.2483398e-08
1.2180688e-08
4.036566e-08
9.1985102e-09
3.7627507e-08
8.0312483e-09
2.744744e-08
6.6312394e-09
1.726392e-08
5.4265031e-09
1.1252661e-08
4.4923487e-09
7.777822e-09
3.7748717e-09
5.6202016e-09
3.2187168e-09
4.1997436e-09
2.7820138e-09
3.2199861e-09
2.4348081e-09
2.5183664e-09
2.1557705e-09
2.0002256e-09
1.9295691e-09
1.6075247e-09
1.7450377e-09
1.3031028e-09
1.5939354e-09
1.0622807e-09
1.4701111e-09
8.6813002e-10
1.3689316e-09
7.087141e-10
1.2868885e-09
5.7539629e-10
1.2213248e-09
4.6176792e-10
1.1702409e-09
3.629651e-10
1.1321599e-09
2.7518455e-10
1.1060308e-09
1.9537449e-10
1.0911645e-09
1.2098302e-10
1.0871678e-09
4.9961015e-11
-2.4198826e-11
9.0545048e-09
-2.7731485e-09
9.3976314e-09
-2.7953093e-09
9.7972242e-09
-2.9571399e-09
1.0216255e-08
-2.8446128e-09
1.0607769e-08
-2.9456064e-09
1.1022157e-08
-2.8913454e-09
1.1337441e-08
-2.8371236e-09
1.1743531e-08
-3.1605183e-09
1.2196778e-08
-3.0853841e-09
1.2646176e-08
-2.8164967e-09
1.3087574e-08
-3.145987e-09
1.3420396e-08
-3.1647973e-09
1.3952371e-08
-3.0505223e-09
1.4418008e-08
-3.2183191e-09
1.4839693e-08
-3.0982698e-09
1.531606e-08
-3.2977081e-09
1.5693777e-08
-3.0909571e-09
1.6254976e-08
-3.1910763e-09
1.67188e-08
-3.2158862e-09
1.7110091e-08
-3.3255577e-09
1.7573588e-08
-3.2338756e-09
1.8185082e-08
-3.3024357e-09
1.8660668e-08
-2.9811069e-09
1.902997e-08
-3.1848072e-09
1.9637459e-08
-3.949876e-09
2.0179039e-08
-3.1133775e-09
2.0514654e-08
-3.1473911e-09
2.1096363e-08
-3.8081697e-09
2.1523726e-08
-2.8645933e-09
2.2064396e-08
-3.4130214e-09
2.257912e-08
-3.9080528e-09
2.2885072e-08
-3.560139e-09
2.3550267e-08
-3.7985386e-09
2.4336839e-08
-3.7435542e-09
2.50138e-08
-3.2877631e-09
2.5164429e-08
-2.657396e-09
2.5065851e-08
-2.7518591e-09
2.538383e-08
-3.5685354e-09
2.6412605e-08
-4.604317e-09
2.984162e-08
-8.543028e-09
3.4052677e-08
-9.2686672e-09
3.3395415e-08
-2.1676509e-09
3.2037084e-08
-1.0089674e-09
3.1186073e-08
-1.6641452e-09
3.1320055e-08
-1.927065e-09
3.2000419e-08
-1.9341009e-09
3.2268556e-08
-1.8524074e-09
3.2408376e-08
-3.0018535e-10
3.104949e-08
4.4027384e-09
2.7878451e-08
1.1986107e-08
1.9816133e-08
3.0545716e-08
1.1892894e-08
4.8288899e-08
9.2247538e-09
4.0295648e-08
8.1236912e-09
2.8548503e-08
6.8100087e-09
1.8577603e-08
5.6376894e-09
1.242498e-08
4.7031883e-09
8.712323e-09
3.9732265e-09
6.3501635e-09
3.4013485e-09
4.7716216e-09
2.9491031e-09
3.6722316e-09
2.5877401e-09
2.8797294e-09
2.2962625e-09
2.2917032e-09
2.0593318e-09
1.8444554e-09
1.8656542e-09
1.4967804e-09
1.7068302e-09
1.2211047e-09
1.5765544e-09
9.9840579e-10
1.470059e-09
8.1520954e-10
1.3837234e-09
6.617319e-10
1.3148017e-09
5.3068961e-10
1.2612266e-09
4.1654024e-10
1.2214736e-09
3.1493748e-10
1.1944625e-09
2.2238566e-10
1.1794923e-09
1.3595322e-10
1.1761732e-09
5.3280065e-11
-3.3162114e-11
8.9639522e-09
-3.1655951e-09
9.3678463e-09
-3.1992034e-09
9.7877789e-09
-3.3770725e-09
1.0191432e-08
-3.2482661e-09
1.0584585e-08
-3.3387595e-09
1.102888e-08
-3.33564e-09
1.1370569e-08
-3.1788122e-09
1.1828085e-08
-3.6180353e-09
1.2265006e-08
-3.5223049e-09
1.2756203e-08
-3.3076932e-09
1.3262771e-08
-3.6525554e-09
1.3604046e-08
-3.5060719e-09
1.4173497e-08
-3.6199739e-09
1.461886e-08
-3.663682e-09
1.5032984e-08
-3.5123934e-09
1.5624374e-08
-3.8890985e-09
1.6054621e-08
-3.5212037e-09
1.658776e-08
-3.7242154e-09
1.707758e-08
-3.7057062e-09
1.7463054e-08
-3.711032e-09
1.799612e-08
-3.7669416e-09
1.8616251e-08
-3.9225665e-09
1.9158274e-08
-3.5231303e-09
1.9530416e-08
-3.5569483e-09
2.0022726e-08
-4.4421862e-09
2.0637306e-08
-3.7279582e-09
2.104922e-08
-3.5593042e-09
2.1666368e-08
-4.4253185e-09
2.227232e-08
-3.4705449e-09
2.248278e-08
-3.6234818e-09
2.337013e-08
-4.7954026e-09
2.3399625e-08
-3.5896339e-09
2.394672e-08
-4.3456336e-09
2.5435674e-08
-5.2325085e-09
2.6292427e-08
-4.1445159e-09
2.6974019e-08
-3.3389878e-09
2.7682438e-08
-3.4602777e-09
2.9948951e-08
-5.8350491e-09
2.8635597e-08
-3.2909629e-09
3.0086548e-08
-9.993979e-09
3.8406328e-08
-1.7588447e-08
3.9161661e-08
-2.9229843e-09
3.6523638e-08
1.6290551e-09
3.2859007e-08
2.0004862e-09
3.1868021e-08
-9.3607861e-10
3.2605602e-08
-2.6716822e-09
3.3225527e-08
-2.4723328e-09
3.3296237e-08
-3.7089519e-10
3.3007891e-08
4.6910842e-09
2.7954163e-08
1.7039836e-08
1.6999402e-08
4.1500477e-08
1.0674986e-08
5.4613315e-08
9.1463153e-09
4.1824319e-08
8.1900482e-09
2.950477e-08
6.9590565e-09
1.9808594e-08
5.8216442e-09
1.3562393e-08
4.8920838e-09
9.6418835e-09