/*--------------------------------*- C++ -*----------------------------------*\
| =========                 |                                                 |
| \\      /  F ield         | OpenFOAM: The Open Source CFD Toolbox           |
|  \\    /   O peration     | Version:  2.3.0                                 |
|   \\  /    A nd           | Web:      www.OpenFOAM.org                      |
|    \\/     M anipulation  |                                                 |
\*---------------------------------------------------------------------------*/
FoamFile
{
    version     2.0;
    format      ascii;
    class       volVectorField;
    location    "5e-06";
    object      U;
}
// * * * * * * * * * * * * * * * * * * * * * * * * * * * * * * * * * * * * * //

dimensions      [0 1 -1 0 0 0 0];

internalField   nonuniform List<vector> 
7500
(
(459.98287 0.043823488 3.6109205e-17)
(459.27279 -0.016729935 4.0985585e-15)
(460.26165 -0.092086109 2.8029786e-15)
(460.71224 0.20982908 -6.8990275e-16)
(459.21664 -0.24560107 3.0991266e-15)
(459.20548 0.22018907 5.6937274e-15)
(460.61096 -0.15354294 2.3259345e-15)
(460.32419 -0.079982241 5.871106e-15)
(460.12136 0.23818229 3.6533972e-15)
(459.84925 -0.19906209 1.6878257e-15)
(458.6462 0.10739957 9.4859462e-16)
(460.42347 -0.084114551 -1.3710049e-15)
(461.62074 0.0088287458 1.4344635e-15)
(458.64771 0.139132 1.1247732e-15)
(459.2506 -0.064085298 9.0966011e-16)
(460.70816 -0.01939992 1.5614592e-15)
(458.97203 -0.014682428 8.3300407e-16)
(460.16701 0.010531984 -1.5542524e-15)
(460.23531 0.010782437 1.4845846e-15)
(458.35139 -0.069985896 9.5579875e-16)
(459.58532 0.035434454 -1.1204321e-15)
(460.48239 0.13672588 1.7002169e-15)
(459.75722 -0.022439149 1.1566799e-15)
(458.84091 -0.11326189 -1.9811602e-15)
(458.76999 -0.033759784 1.844071e-15)
(460.20707 0.12810906 2.0170028e-16)
(460.0382 -0.089546021 1.0755669e-15)
(459.56972 -0.14905309 -1.1092892e-15)
(460.07983 0.12622036 -1.3927027e-15)
(459.46846 -0.078710514 2.646583e-15)
(460.45954 -0.091110258 -1.1685463e-15)
(460.94981 0.18452809 1.2885801e-15)
(459.35167 0.034970278 1.100372e-15)
(460.83973 -0.19480614 -1.3450569e-15)
(462.58806 -0.057636776 -1.7100295e-15)
(459.95759 0.18776457 8.6529093e-16)
(460.1449 0.19020859 -1.3003809e-15)
(463.27456 -0.37541517 9.2919859e-16)
(462.71398 -0.040902214 1.6040869e-15)
(462.25144 0.24681569 1.5618262e-15)
(464.28512 -0.23727376 4.7168779e-16)
(468.26012 -0.63955854 3.7851726e-16)
(475.41798 0.42775729 4.3502352e-15)
(477.17455 0.38001599 1.797689e-15)
(467.08443 0.73977003 2.5180882e-16)
(456.24127 0.21427602 -3.9508958e-16)
(452.50593 -0.94452573 -1.8417647e-15)
(453.04733 0.26997598 -3.0830193e-15)
(450.43882 3.4297867 9.8414191e-16)
(429.73845 6.5681766 8.3503786e-16)
(352.2243 5.8872139 1.2236669e-15)
(278.15137 6.0945413 7.5907984e-16)
(231.9365 4.0157334 8.4847768e-17)
(179.02765 4.4317421 3.5642467e-17)
(133.16293 3.8425386 -1.7292175e-16)
(99.177031 2.7243162 -2.7108468e-16)
(75.893939 1.8363401 -1.7323422e-17)
(59.960445 1.2672367 -6.651305e-17)
(48.678569 0.90837023 -1.3692617e-17)
(40.402372 0.67416616 -3.5199441e-17)
(34.148419 0.5144236 7.1224775e-17)
(29.311437 0.40096101 3.072367e-17)
(25.503135 0.31759423 -1.2832655e-16)
(22.464002 0.25460425 -9.8808137e-17)
(20.014415 0.20587452 2.7249177e-17)
(18.026479 0.16738813 6.1389259e-17)
(16.407081 0.13641092 -8.2064394e-18)
(15.087265 0.11102177 -9.1522473e-19)
(14.015338 0.08983336 -3.4516812e-17)
(13.152269 0.071818052 -4.9453134e-17)
(12.468528 0.05619418 2.4006845e-17)
(11.942032 0.042350875 8.0035197e-17)
(11.555732 0.029794258 4.5240161e-18)
(11.301447 0.018134799 -5.3749001e-18)
(11.13931 0.0063066744 3.2264138e-17)
(459.96284 0.084347086 4.6477288e-16)
(459.27516 -0.15972851 2.5895575e-16)
(460.43149 -0.018153945 -1.0734356e-16)
(460.652 0.053232875 -8.4592e-17)
(459.09406 0.17584143 -5.742947e-16)
(459.19093 -0.12485387 2.1917415e-16)
(460.6194 -0.07042831 9.4365206e-17)
(460.3788 0.09480475 -1.5478878e-16)
(460.17539 -0.099601039 1.1596872e-15)
(459.93762 0.16840882 7.891592e-17)
(458.68737 -0.07522018 -1.9099227e-16)
(460.32631 -0.23190938 2.9648855e-16)
(461.66611 0.20885691 -4.1226032e-17)
(458.57029 -0.038541175 -1.1699818e-15)
(459.07932 0.14990356 -2.0402715e-16)
(460.79744 -0.12699401 -6.8133944e-16)
(459.0882 -0.12264415 6.3340777e-17)
(460.19666 0.32596093 1.4951031e-16)
(460.13832 -0.12595292 8.1750814e-16)
(458.29526 -0.18190071 3.2342422e-16)
(459.74453 0.050442764 8.9033367e-16)
(460.42379 0.068533003 -1.129597e-18)
(459.66829 0.079661846 1.2856698e-15)
(458.87988 -0.12624721 9.6196899e-17)
(458.72233 -0.135858 1.6356951e-15)
(460.29382 0.29692016 -1.0015803e-15)
(460.04442 0.12021063 -9.2253934e-16)
(459.39985 -0.42643648 -6.0847994e-16)
(460.22181 0.01715254 6.9894914e-16)
(459.56738 0.034347017 1.5142924e-15)
(460.37181 -0.19908477 -2.7281545e-16)
(460.74709 0.080551357 4.8236116e-16)
(459.61382 -0.036665092 -5.2866955e-16)
(461.07333 -0.22687345 1.1271918e-15)
(462.07667 0.34654845 -2.7962692e-15)
(459.84616 -0.24962711 2.9794677e-15)
(461.32203 -0.36390576 -1.4455114e-15)
(462.74631 0.60697646 -1.9175886e-15)
(460.64877 -0.31500448 1.6878201e-15)
(463.39781 -0.84608095 -3.5036055e-16)
(467.2134 0.25508356 -1.2120449e-15)
(466.95238 -0.424165 8.2981218e-16)
(471.38421 -2.1961039 1.26865e-15)
(478.30215 1.457609 9.7836248e-16)
(472.00938 2.812578 -3.9424946e-16)
(456.95613 -0.56030534 7.7053157e-16)
(448.84035 0.70759789 -1.2877271e-15)
(449.96425 1.1549083 -1.3456975e-15)
(451.49415 0.85999535 4.6853017e-16)
(438.26251 5.1642237 3.1709777e-15)
(410.64951 8.7616454 3.5367677e-15)
(319.4852 15.321863 2.5932303e-15)
(242.52915 11.999697 3.0192544e-16)
(180.66368 9.9772265 -3.1173397e-16)
(133.14052 7.8458115 6.3505438e-16)
(98.968071 5.4470121 2.7682845e-16)
(75.731874 3.6698292 3.8783516e-17)
(59.854493 2.543758 1.1651138e-16)
(48.609399 1.8328463 -3.1099787e-16)
(40.355604 1.3666969 -1.1616064e-16)
(34.115502 1.0470436 -4.7954198e-17)
(29.287429 0.81887126 7.5767887e-17)
(25.4851 0.65049578 1.2446845e-17)
(22.450121 0.522798 -5.4404965e-17)
(20.003509 0.42368363 2.0951413e-18)
(18.017754 0.34517168 5.338919e-17)
(16.399984 0.28180636 3.2926911e-17)
(15.0814 0.22973952 3.1102227e-17)
(14.010413 0.18618261 3.6625767e-17)
(13.148066 0.14906352 3.1968762e-17)
(12.464878 0.11680121 2.2939152e-17)
(11.9388 0.088156683 1.0615827e-18)
(11.552808 0.062124381 9.3427457e-19)
(11.298743 0.037916275 5.1528942e-18)
(11.136736 0.013254434 -5.0169287e-18)
(459.9767 0.16352512 4.1194885e-16)
(459.35136 -0.092469566 -7.8395936e-16)
(460.68703 -0.29600665 -9.0083453e-18)
(460.60069 0.61778275 5.9502668e-17)
(458.68521 -0.6155341 -5.6861357e-16)
(459.06411 0.5188586 8.7753633e-16)
(460.90244 -0.44637204 -3.2382546e-16)
(460.56452 -0.21080332 5.6150858e-16)
(460.20076 0.64176843 6.4499939e-17)
(459.99735 -0.40365396 -4.7803336e-17)
(458.72533 0.19255939 1.3156578e-16)
(460.19248 -0.31749497 -9.8195718e-16)
(461.41321 0.20180941 -2.373277e-16)
(458.67546 0.18929285 -4.54024e-17)
(459.12368 -0.050807172 1.3083734e-15)
(460.57487 -0.071256135 -1.2612161e-15)
(459.24886 -0.2683765 1.457229e-15)
(460.5277 0.39735628 -8.5368466e-16)
(459.99801 0.046448027 1.1301878e-15)
(457.98349 -0.34507476 -9.0537312e-16)
(459.89802 0.09999487 1.2005963e-15)
(460.72994 0.16057197 -3.6870295e-16)
(459.55914 0.034642791 1.5210437e-15)
(458.6032 -0.32190665 -5.0614647e-16)
(458.7713 -0.23910931 1.1166226e-15)
(460.43578 0.48340481 -5.2518985e-16)
(460.03705 0.22842045 -5.8968376e-16)
(459.24786 -0.55248311 -4.047877e-16)
(460.18033 0.13046994 -8.5520554e-16)
(459.73962 -0.068380052 5.0960413e-16)
(460.22398 -0.24309641 1.8337992e-16)
(460.69015 0.22160739 -6.2818941e-16)
(459.85299 -0.2084895 6.8029882e-16)
(461.04323 -0.39770131 -7.6665705e-16)
(462.00202 0.058171059 -1.5579817e-17)
(460.8427 0.084426013 6.8708606e-16)
(459.57463 -0.15083134 -1.1428031e-15)
(462.77738 -0.13613311 -1.1666641e-15)
(462.55731 -0.264575 6.5313831e-16)
(460.70705 -0.61095338 5.3067464e-18)
(467.66196 -0.99266696 6.4747407e-16)
(472.01871 -0.55192175 -2.881576e-16)
(467.46443 -0.26890325 9.806876e-16)
(472.93901 -0.33203712 -8.2350506e-16)
(476.98044 2.0222052 3.5346142e-16)
(461.4525 2.8179991 -8.452374e-17)
(447.9021 -0.66084727 -3.2583743e-16)
(449.61249 -0.1197791 1.5379335e-16)
(449.7888 5.1955949 -4.5040519e-16)
(436.72943 9.5783754 -3.9353723e-15)
(414.79693 14.640807 -1.8363718e-15)
(319.93936 26.0055 -1.702673e-15)
(241.28292 21.576094 3.4193044e-16)
(179.81412 16.930532 -7.7686004e-16)
(132.408 12.868537 -5.1325092e-16)
(98.3382 8.8258374 2.5768757e-17)
(75.299355 5.9311742 -4.8934326e-16)
(59.579211 4.1147175 -4.4239092e-17)
(48.43129 2.9696984 -1.5853579e-18)
(40.235572 2.2179802 -1.8688025e-16)
(34.031116 1.7015398 -3.5595295e-17)
(29.225897 1.3322527 -5.3456753e-18)
(25.438866 1.059341 2.6359329e-17)
(22.414508 0.85210475 3.1119267e-17)
(19.975488 0.69108314 -1.9934213e-17)
(17.995286 0.56341012 -1.0535058e-17)
(16.381649 0.46027654 3.9038436e-17)
(15.06618 0.37546077 -2.4501718e-18)
(13.997561 0.30444879 7.8454591e-18)
(13.137017 0.24388281 9.5961832e-18)
(12.455194 0.19119792 -9.4281772e-19)
(11.930132 0.1443819 -1.005971e-18)
(11.544867 0.10179914 3.9832082e-18)
(11.291286 0.062168955 8.3160307e-18)
(11.129482 0.021735187 2.118291e-18)
(460.37444 0.13558188 -9.1473962e-18)
(459.26038 -0.26816987 2.2685633e-16)
(460.57275 -0.076768609 -7.7884585e-16)
(460.4971 0.37226781 -5.1887614e-16)
(458.60122 0.14025988 -3.8253618e-16)
(459.17928 -0.24130604 -7.638004e-17)
(460.98978 -0.21043735 -2.5229966e-16)
(461.24085 -0.025449939 1.390364e-16)
(460.0202 0.14024796 1.4678619e-16)
(459.27501 0.19644554 -8.3922428e-16)
(458.8032 -0.19096125 -2.2465979e-16)
(460.28988 -0.20052846 5.6318318e-16)
(461.05917 0.22033896 5.0422256e-16)
(458.70653 0.044771966 2.7046454e-17)
(459.5876 0.26069633 8.2201205e-16)
(460.39858 -0.27518561 -5.8605094e-17)
(458.85555 -0.33323531 2.6990069e-16)
(460.89774 0.61586358 -1.1176749e-16)
(460.32072 0.041955614 -3.1894185e-16)
(457.63983 -0.42390144 4.2586641e-17)
(459.59843 0.05755471 7.6610213e-17)
(461.18719 0.14944185 3.5466387e-16)
(459.95949 0.1205437 4.140964e-18)
(458.083 -0.44919656 -2.3746693e-16)
(458.31083 -0.46680557 7.3294291e-16)
(460.58532 0.53692083 -2.3571596e-16)
(460.26552 0.41009167 -2.2810529e-16)
(459.36786 -0.8092913 2.1729237e-16)
(459.72917 0.13457839 2.8064925e-16)
(459.52245 0.065163 -9.8545713e-17)
(460.20566 -0.38945483 3.2728139e-16)
(461.04113 0.29041198 -4.5044962e-16)
(460.11021 -0.1671027 3.2018319e-16)
(461.16895 -0.49087266 6.2663569e-16)
(461.94705 0.38646322 -3.6991705e-16)
(459.84491 -0.20979107 3.9429357e-16)
(460.0193 -0.41635929 2.6345017e-17)
(463.30809 0.21530695 -7.0836607e-16)
(461.98862 -0.13296229 7.1546291e-16)
(461.22038 -1.497861 2.4931309e-16)
(467.51455 -1.6656715 4.1727445e-18)
(468.27402 -0.18938691 1.2273038e-16)
(474.14239 -1.1089666 4.3810428e-17)
(473.37304 0.49463704 -2.1302805e-16)
(465.45236 2.5965703 6.3145314e-16)
(469.37853 2.4001899 -1.3197151e-16)
(456.64125 3.3951123 -1.6882756e-16)
(439.21976 -0.35592715 9.1891026e-16)
(453.09181 -1.3652573 -6.7844408e-16)
(442.43905 12.077482 -1.2439552e-15)
(406.33005 29.210425 -2.3950958e-15)
(289.91263 35.461958 -1.1818404e-15)
(229.77296 27.38911 -3.5875813e-16)
(176.9714 22.428796 -4.2145386e-16)
(131.15035 17.497401 -2.2118465e-16)
(97.384945 12.01497 1.3350199e-16)
(74.65902 8.067234 -5.1077754e-17)
(59.17415 5.6019286 5.2946926e-17)
(48.169419 4.0496883 8.097366e-17)
(40.058909 3.0292647 -3.3314082e-17)
(33.906743 2.3268717 -2.1179491e-17)
(29.135088 1.8237507 -1.1498274e-17)
(25.370552 1.4514135 -1.3945525e-17)
(22.361827 1.1683583 2.6223158e-18)
(19.933991 0.94821646 1.6501333e-17)
(17.961972 0.7735211 -5.637138e-18)
(16.354427 0.63229416 5.9795093e-18)
(15.043548 0.51606505 -9.4280603e-18)
(13.978415 0.41868105 -1.2985213e-17)
(13.12052 0.33556095 2.8762169e-18)
(12.440698 0.26320158 2.6346749e-18)
(11.917121 0.19885214 9.7903383e-19)
(11.532907 0.14027356 -7.9355262e-19)
(11.280008 0.085713231 -6.0190778e-19)
(11.118499 0.029992443 -8.5607615e-18)
(460.8542 0.2532288 -4.3914306e-17)
(458.63788 -0.26544387 1.0683568e-16)
(460.48841 -0.30511464 1.3227037e-16)
(461.21451 0.87350233 -1.8145529e-17)
(458.90677 -0.72688394 -1.3210148e-16)
(459.45228 0.5964318 -2.0161658e-19)
(460.87962 -0.9024047 -3.9635237e-18)
(461.00902 -0.022134645 -4.6065035e-16)
(460.07263 0.90727469 -1.4718757e-16)
(458.47379 -0.39247711 -8.0168999e-17)
(458.13247 0.090505519 -1.9608024e-16)
(461.00836 -0.54035895 -3.5843729e-17)
(461.36295 0.58047847 1.3018188e-16)
(458.08446 -0.089920792 -1.0060183e-16)
(459.62996 0.17550082 1.3292721e-16)
(460.94892 -0.030341574 -6.7404103e-17)
(458.47669 -0.56706298 4.7185115e-16)
(460.17358 0.60700176 -8.9679937e-17)
(460.78845 0.1517682 -6.1378528e-19)
(458.17141 -0.44213068 2.3758982e-16)
(459.06781 0.050861462 2.932979e-16)
(460.98971 0.10649857 1.2662783e-16)
(460.49563 0.24865055 4.5196364e-17)
(458.06322 -0.35981559 -4.5596952e-17)
(457.53281 -0.70298513 1.7200816e-16)
(460.1152 0.48347961 2.9292596e-16)
(460.43907 0.3727043 -2.6934696e-17)
(459.82718 -0.83404444 -1.0311306e-16)
(459.61646 0.047880679 1.3054162e-16)
(458.63604 -0.0051792426 -4.9626925e-16)
(460.57225 -0.35948295 4.0329408e-16)
(461.45525 0.12074325 3.8868798e-16)
(459.78393 -0.1117626 3.6152151e-17)
(461.28766 -0.41333858 -6.4963183e-17)
(462.66684 0.22939183 -4.0691546e-16)
(459.7207 0.14006552 -7.3956084e-18)
(458.98168 -0.22061273 -4.1960259e-16)
(462.47042 -0.21780287 3.8377134e-18)
(462.19559 -0.17409946 -3.1261235e-17)
(462.59966 -1.105041 3.3311522e-16)
(466.43333 -1.7530594 8.9099346e-17)
(469.70886 -1.8932332 5.8742117e-16)
(472.79575 -1.1792507 -3.5727841e-16)
(472.67904 1.4412373 5.9172985e-16)
(469.70775 1.9130726 -3.9697939e-16)
(461.07844 4.0202372 2.9415741e-16)
(457.40691 5.0872486 -4.113974e-16)
(456.71967 0.62633328 2.884805e-16)
(435.5725 2.3197036 3.9230253e-16)
(436.83647 10.724358 -1.5533794e-15)
(434.38882 28.33119 -1.6285042e-15)
(319.72185 66.71676 -1.3467568e-15)
(244.05162 37.219694 -1.9542759e-16)
(179.49883 28.113982 2.4767713e-17)
(130.23246 22.220992 -9.0014858e-17)
(96.187449 15.152055 -2.8173668e-17)
(73.828899 10.141768 2.5928854e-18)
(58.649696 7.0499536 6.0629661e-17)
(47.83018 5.1071907 -2.1541432e-18)
(39.829516 3.8276724 -4.1218701e-17)
(33.744824 2.9446971 -2.3182274e-17)
(29.016589 2.3108292 -1.2404386e-17)
(25.281228 1.8409111 3.220668e-18)
(22.29282 1.4831761 1.6311017e-17)
(19.879543 1.2046334 -1.1453809e-17)
(17.91819 0.98337401 -1.633763e-17)
(16.318592 0.80434336 1.5117055e-17)
(15.013707 0.65687798 -3.6414772e-18)
(13.953123 0.53322132 -1.042666e-18)
(13.098686 0.4275912 6.9607038e-18)
(12.421473 0.3355606 -8.5740591e-19)
(11.899823 0.25364964 -2.8128249e-18)
(11.516969 0.17902207 -7.4195129e-18)
(11.264939 0.10945706 1.0961282e-18)
(11.103786 0.038353375 -2.7353665e-18)
(460.74173 0.22993324 7.9064962e-17)
(458.4485 -0.32896135 -2.3749861e-16)
(461.27827 -0.27443124 -8.938284e-18)
(462.08105 0.4824915 -1.3626606e-16)
(458.4981 0.25632045 -2.114399e-16)
(459.56975 -0.39836628 3.5081266e-16)
(459.95931 -0.23424672 -8.3162326e-17)
(460.68109 -0.19523226 -3.5663711e-16)
(460.01061 0.60012085 1.3510732e-16)
(458.9055 0.31879461 2.9615273e-16)
(458.16605 -0.63391647 -1.0696939e-16)
(460.35949 -0.36911862 1.8557507e-16)
(462.22137 0.46428647 1.523908e-16)
(458.31623 0.18278527 -4.99602e-16)
(458.32805 0.064870916 1.5496128e-16)
(461.12623 -0.11896507 3.6023197e-17)
(459.38782 -0.38657496 1.3048163e-17)
(459.47758 0.53472143 5.5288276e-17)
(460.15225 0.10795281 7.6189404e-17)
(458.99783 -0.33286659 -1.5045637e-16)
(459.46484 -0.1098074 4.1600114e-16)
(460.59228 0.17196812 5.9182125e-17)
(460.2994 0.27811436 9.3490863e-17)
(458.29194 -0.15888296 -1.1082621e-16)
(457.29946 -0.8384059 1.5413396e-16)
(459.53119 0.33064725 -3.8732754e-17)
(460.46232 0.3081193 3.94472e-16)
(460.39521 -1.0091469 -5.8647381e-17)
(459.64086 0.40748258 -1.0754497e-17)
(458.38959 -0.36468108 -1.0181048e-16)
(460.24638 -0.57385173 1.3085637e-16)
(461.50877 0.47207776 -2.9802209e-16)
(460.01316 -0.45191476 8.0697501e-17)
(461.86729 -0.46232895 1.3949129e-16)
(461.86416 0.57690139 3.8372524e-16)
(459.45719 -0.20137382 -1.094744e-16)
(460.2073 -0.016817763 1.4121964e-16)
(460.52753 0.14361844 9.4246216e-17)
(460.39817 -0.71014 1.3357904e-16)
(464.22289 -1.7009028 4.0116478e-17)
(469.06661 -1.7056584 -3.3747261e-16)
(469.01594 -1.0854713 4.2016618e-16)
(470.40733 -2.0041457 -6.382052e-17)
(473.00674 1.0725037 2.206173e-16)
(470.13892 3.3353495 4.9926156e-16)
(460.91451 2.4280285 2.0188088e-16)
(458.31041 2.7796586 -3.0453944e-16)
(456.85274 4.4778183 4.047313e-17)
(442.88751 6.0684989 2.0655569e-16)
(429.91213 9.5853386 -2.4047823e-16)
(421.88318 24.810063 -6.1970276e-16)
(457.4081 40.29526 -2.0281826e-15)
(301.68373 58.718032 -1.0795369e-15)
(184.87667 39.75968 -1.8680706e-16)
(129.10503 27.596369 -1.4929429e-16)
(94.683121 18.226267 -6.5152465e-17)
(72.815029 12.124565 -4.1777265e-17)
(58.0158 8.4379216 -1.8855795e-17)
(47.420197 6.1278558 -3.3951866e-17)
(39.55147 4.602768 -3.2214077e-17)
(33.547932 3.5470991 -6.4726396e-19)
(28.872096 2.7873058 -1.3084246e-17)
(25.172056 2.2229062 -9.1114829e-19)
(22.208312 1.7925727 -2.1551505e-17)
(19.812744 1.4570774 6.5281352e-18)
(17.864387 1.1902906 8.9531709e-18)
(16.274484 0.97421487 -9.5646103e-18)
(14.976915 0.79607852 -4.5977082e-18)
(13.92189 0.64657631 -2.257095e-18)
(13.071677 0.51876257 -2.894785e-18)
(12.397648 0.40731216 -1.1239785e-18)
(11.878346 0.30803463 3.452997e-18)
(11.497141 0.21750987 -3.5937504e-18)
(11.246155 0.13306133 2.9301944e-19)
(11.085424 0.046690211 3.3893722e-18)
(461.17317 0.36358957 -1.0920932e-17)
(459.59407 -0.43939172 -1.1912611e-16)
(459.36131 -0.52667408 -7.8686814e-17)
(462.28104 1.067012 2.5365117e-16)
(458.35367 -0.56707203 -1.1322354e-16)
(459.53655 0.73322331 -1.3572894e-17)
(458.86288 -1.1917906 1.7554924e-16)
(460.98983 0.12867848 -1.7465702e-16)
(461.00808 0.83452656 -1.399947e-16)
(458.05167 -0.028661529 1.499966e-16)
(459.12001 -0.23486442 1.8536077e-16)
(460.61934 -0.91734839 -2.3571239e-18)
(461.28586 0.88776115 3.9438018e-16)
(459.43108 -0.04627767 -4.0800026e-16)
(458.17157 0.28673643 3.5587363e-17)
(459.8747 -0.32909722 2.3255529e-16)
(460.31107 -0.44670756 -1.1805414e-16)
(460.12873 0.75524179 1.6019214e-16)
(459.09514 -0.017091031 -3.1692788e-16)
(459.14406 -0.3832658 7.4220385e-17)
(460.33675 0.1052712 -2.7519522e-17)
(460.1795 0.094374887 1.6746267e-16)
(459.8575 0.31758898 4.4852563e-17)
(458.73902 -0.10677769 -1.2397806e-18)
(457.56927 -0.64890706 -2.0381688e-16)
(458.98152 0.1662805 2.8479403e-16)
(460.16332 0.096102635 6.9665846e-17)
(461.16637 -0.95553759 -1.260691e-16)
(459.90492 0.30454382 -2.3814696e-16)
(457.312 -0.00089358561 -2.0619034e-16)
(459.69743 -0.96792074 2.9374356e-16)
(461.34707 0.35297201 1.1488627e-16)
(460.51209 -0.33367732 -5.2181015e-17)
(461.9587 -0.6322687 1.8862859e-16)
(461.7047 0.74743039 -5.0201894e-18)
(458.78313 0.00079218685 -1.7148327e-16)
(459.46988 -0.18475027 1.1664543e-16)
(461.02808 0.18879206 4.7937881e-16)
(460.19957 -0.89153683 -3.0384808e-17)
(463.61142 -2.3618472 1.5297195e-16)
(469.67221 -1.8047463 -6.6200422e-17)
(472.53841 -1.2153288 1.4038318e-16)
(468.58937 -1.3233088 -6.7723173e-17)
(469.55488 0.92523327 5.5075573e-16)
(471.71031 2.7567836 -1.6625045e-16)
(463.78251 4.8951935 3.9950652e-16)
(455.46498 4.2578585 -1.6692988e-16)
(456.49816 2.282492 3.0975745e-16)
(450.07638 4.7612394 -3.8879372e-16)
(431.38729 10.282752 -3.7969008e-16)
(411.80342 23.790538 -1.0845807e-15)
(397.61606 43.997878 -1.3689397e-15)
(343.42643 64.398345 -1.255106e-15)
(190.57454 54.360248 2.3623409e-17)
(127.06448 33.78022 -6.2886925e-17)
(92.803915 21.218513 3.4781772e-18)
(71.626664 13.997469 3.9512963e-17)
(57.28281 9.7578228 -3.6726517e-17)
(46.945962 7.1076364 1.4142858e-17)
(39.228646 5.3521949 -1.7565949e-18)
(33.318462 4.1325929 1.8083329e-17)
(28.703157 3.252203 -2.4398823e-18)
(25.04408 2.5967363 -1.2514561e-18)
(22.109029 2.0960897 3.4305572e-18)
(19.734114 1.7052255 1.317939e-18)
(17.800942 1.3940399 -8.7067436e-18)
(16.222384 1.1417416 -1.5870073e-18)
(14.933386 0.93354467 3.0176734e-18)
(13.884876 0.75865643 -1.4657568e-17)
(13.039616 0.60900929 -1.346858e-18)
(12.369319 0.47840851 7.0166306e-18)
(11.852767 0.3619738 -7.2455161e-18)
(11.473485 0.25571651 -1.8112708e-18)
(11.223708 0.15651491 7.610562e-18)
(11.063453 0.055009817 8.2112978e-18)
(462.06978 0.18619841 -1.0430893e-16)
(457.57647 -0.23084588 -1.8704996e-17)
(459.85691 -0.37365259 1.2343347e-16)
(461.74282 0.49161358 1.9221924e-16)
(457.906 0.40084571 -2.8140017e-16)
(460.4338 -0.31829831 2.3723164e-16)
(458.9915 -0.1655128 2.4204453e-17)
(459.82782 -0.76931584 2.9891721e-17)
(462.7978 1.2019625 2.3461367e-16)
(458.57619 0.31615848 -1.1040679e-16)
(457.53675 -0.83432393 4.5900413e-16)
(461.35584 -0.46339944 -2.3747227e-16)
(461.79002 0.57840822 2.6492619e-16)
(458.75889 0.28079734 -2.9091299e-16)
(458.95583 0.18516074 1.4246755e-16)
(459.38891 -0.35140216 8.6218265e-17)
(459.75043 -0.62701368 9.5164797e-17)
(461.22304 0.90166742 -9.7357568e-17)
(458.56682 0.067172438 -7.8394934e-17)
(458.37417 -0.72408356 3.1790094e-17)
(460.88862 0.24167379 6.5166325e-17)
(459.52778 0.41781421 3.084077e-16)
(458.94749 0.10564804 4.9753984e-17)
(458.71723 -0.064536668 -2.2556119e-16)
(458.12133 -0.70583459 -3.6432334e-16)
(458.54796 0.56119595 1.2433583e-16)
(459.09287 -0.30945172 -2.3041542e-17)
(461.46442 -1.0984293 4.1539798e-16)
(460.40733 0.89242307 7.1263767e-17)
(456.10146 -0.58439108 -9.8894907e-17)
(458.46422 -0.61569361 9.1984314e-19)
(461.68072 -0.10952243 1.3196542e-17)
(460.62588 -0.59884471 -1.7026992e-16)
(461.52485 -0.29338093 -9.2858962e-17)
(461.26996 0.58070009 -4.2331091e-17)
(458.27871 -0.040590213 2.1104403e-17)
(458.82274 0.11383009 -4.4811126e-16)
(460.18328 -0.27281321 1.9595287e-16)
(459.86556 -1.1695079 -2.4875206e-16)
(463.58968 -2.5022109 8.6158361e-16)
(470.3214 -2.4201375 -4.6245613e-16)
(472.21335 -1.1038983 3.7578609e-16)
(468.69716 -0.34146472 -2.1377254e-16)
(467.57052 -0.087237012 3.1181611e-16)
(467.97788 2.9148345 -2.8472365e-16)
(465.78251 6.1060268 9.3217959e-17)
(460.80585 4.6711782 -2.0472096e-16)
(454.28611 4.4136821 2.1539769e-16)
(452.7624 7.3354225 -1.4900608e-16)
(439.8121 12.866899 -1.5053608e-16)
(411.04602 23.583073 2.6707485e-16)
(380.16545 46.564732 -7.441679e-17)
(338.39028 67.815091 3.1623342e-16)
(176.31107 69.402753 4.6629599e-16)
(121.71141 39.998912 -3.3171784e-17)
(90.344233 23.961294 -1.3822276e-17)
(70.268366 15.731476 -3.4083432e-17)
(56.461704 11.002321 1.0777447e-17)
(46.414027 8.0431918 -2.8416795e-17)
(38.864853 6.0738872 -1.9060465e-17)
(33.05874 4.6997576 -1.69703e-17)
(28.51127 3.704496 -3.9860262e-17)
(24.898305 2.9616388 1.6521496e-17)
(21.995668 2.3931447 -4.1797156e-18)
(19.64415 1.9486239 -1.0852594e-17)
(17.728216 1.5942625 9.0018189e-18)
(16.162559 1.3066352 1.6886737e-18)
(14.88332 1.0690431 -1.6678052e-18)
(13.842236 0.86927231 2.266228e-18)
(13.002622 0.69817827 2.090822e-18)
(12.33658 0.54872758 3.4224442e-18)
(11.823158 0.4153725 -4.0626693e-18)
(11.446061 0.29357206 2.3172761e-18)
(11.197649 0.17977346 6.6199507e-18)
(11.037915 0.063276132 4.3148985e-19)
(460.03813 0.38075556 -9.9713671e-17)
(458.61929 -0.29506021 2.7304512e-16)
(461.25502 -0.71416942 -1.6604533e-16)
(459.96714 1.0839446 2.6971831e-16)
(460.1976 -0.48137982 -1.6967762e-17)
(459.02611 0.69521713 7.7837274e-17)
(459.0605 -1.1149526 -5.3922993e-17)
(460.09611 -0.14892234 1.3104726e-16)
(461.9801 0.59006931 8.8925448e-17)
(460.4319 0.95490321 5.4155132e-17)
(457.03634 -0.91071558 1.2460354e-16)
(459.31537 -0.9953281 -3.1115672e-16)
(463.31174 1.1493788 4.0163274e-16)
(458.43883 -0.072716586 -3.5970424e-19)
(458.22001 0.54315175 5.0506346e-17)
(461.04925 -0.55067167 1.119454e-16)
(458.71129 -0.69990899 3.8668516e-17)
(461.20217 0.89537913 -1.3518264e-16)
(459.2274 0.33842028 2.7105483e-16)
(457.25127 -0.94337309 1.391725e-16)
(461.08411 0.25951013 -1.7127542e-16)
(459.8616 0.52376647 1.1546706e-16)
(458.00838 0.23092908 -6.6063662e-17)
(457.68178 -0.19993323 -1.4670984e-17)
(458.38984 -0.44004124 1.2490365e-16)
(459.08454 0.22657688 4.717284e-17)
(457.84275 -0.17213243 -3.1532674e-16)
(461.27698 -1.2418096 2.4386571e-16)
(460.86463 0.88938148 3.9601288e-17)
(455.56629 0.031891312 -3.4705237e-16)
(457.3668 -1.81759 8.0003326e-17)
(461.18644 0.47141579 -2.0130612e-16)
(460.85241 -0.99316207 1.9610066e-16)
(461.56511 -0.21670995 -3.767906e-17)
(459.80726 0.93692954 -6.1943365e-17)
(456.71417 -0.11422759 -3.1537936e-16)
(458.08979 0.028918771 8.2621609e-18)
(459.15421 -0.22544483 2.7093395e-16)
(458.62239 -1.9722224 -2.9773567e-17)
(462.95637 -3.056591 -1.1054576e-16)
(470.75089 -2.5514319 1.4125579e-17)
(470.72805 -0.35392241 -1.3832984e-16)
(467.07579 -0.11959682 2.9821077e-16)
(466.53174 0.23683724 -1.9088447e-16)
(466.12869 2.2759711 7.8195663e-18)
(465.78461 4.489068 -2.4656939e-16)
(463.08604 5.8999116 4.9835542e-17)
(457.42156 5.7271539 -3.8844248e-16)
(451.19622 9.4926311 -1.633837e-16)
(435.36589 19.273094 5.7902906e-17)
(414.40292 28.025306 -6.5823089e-17)
(379.17094 48.67636 3.6469736e-16)
(258.48793 97.727014 3.3429687e-17)
(149.31814 80.905858 -5.8039221e-16)
(114.46376 44.250651 -1.0778063e-16)
(87.478469 26.221751 2.8916973e-17)
(68.781521 17.300489 -2.650419e-17)
(55.566691 12.166044 8.2207093e-18)
(45.831174 8.9320689 -4.2219804e-18)
(38.463877 6.7662342 6.5143197e-18)
(32.771063 5.2474427 -1.2258487e-18)
(28.297908 4.1433399 -5.2045645e-18)
(24.73572 3.3169809 1.5466735e-17)
(21.868916 2.6832552 1.3603156e-17)
(19.543339 2.1868986 1.0512943e-17)
(17.646565 1.7906643 3.1512448e-18)
(16.095272 1.4686618 -2.537675e-18)
(14.826915 1.2023866 4.3723965e-18)
(13.794119 0.97827375 4.7756653e-18)
(12.960812 0.78614944 3.6497212e-18)
(12.299521 0.61817476 -2.3530661e-18)
(11.789592 0.46815857 -9.6247293e-19)
(11.414926 0.33102544 2.4497493e-18)
(11.168025 0.20280537 -5.6120242e-18)
(11.008857 0.07147549 1.9558735e-18)
(460.3561 0.35575289 2.9254604e-17)
(460.28529 -0.4264931 -1.1831477e-16)
(458.62268 -0.39916222 -2.7560773e-16)
(462.01661 0.53662284 -1.1260945e-16)
(458.12693 0.3465721 -1.2702804e-16)
(460.82546 -0.11100873 1.8237196e-16)
(458.54678 -0.21794041 -3.0770282e-16)
(458.36737 -1.2029839 2.7747068e-16)
(462.06149 1.1647096 8.3745223e-17)
(461.20569 0.71763341 -3.6539502e-16)
(458.18403 -0.55130554 1.8331095e-16)
(458.66058 -1.2379378 -2.2560988e-16)
(461.39763 0.95145746 2.0382902e-16)
(459.90251 0.38774772 2.3802591e-16)
(457.59542 0.14713814 -2.2108433e-16)
(463.06196 -0.36917428 1.9436857e-16)
(459.1547 -0.83244636 -3.37959e-17)
(459.44974 0.93482016 2.2912551e-18)
(460.58838 0.39132709 1.0755733e-17)
(457.68515 -0.93809721 8.7347148e-17)
(460.02519 0.054786976 -8.1567236e-17)
(462.08024 0.92626031 5.1890203e-17)
(457.16971 0.0099770147 2.3269456e-17)
(456.1587 0.038139123 9.3785175e-17)
(458.72794 -0.58771612 -3.1147259e-16)
(460.33779 0.89022943 2.0886523e-16)
(457.68402 -0.9825279 -3.3497449e-17)
(461.15282 -1.1997878 2.1694623e-16)
(460.21226 1.6513786 3.3410969e-17)
(455.61153 -0.34698963 -3.4044723e-18)
(457.0014 -1.1859642 1.9653449e-16)
(461.87833 -1.4087319 -3.2697789e-16)
(460.36509 -0.06937757 -1.6222857e-17)
(461.48078 -0.32084804 9.5807507e-17)
(459.67807 1.1046339 2.8059752e-16)
(455.02493 -0.015735994 -1.989644e-16)
(456.44311 0.60372792 1.6369064e-16)
(458.98885 -0.68220139 -2.8311104e-16)
(458.64022 -2.2749538 4.7324922e-16)
(461.67926 -4.0215429 -2.8843513e-16)
(469.52213 -2.9135766 9.0207044e-17)
(470.98916 -0.036654954 1.2849448e-16)
(466.31225 0.85708699 1.4098379e-16)
(464.64703 1.4814437 -1.391272e-16)
(464.13728 1.2839661 1.7001932e-16)
(465.31969 3.60938 -3.3639001e-16)
(464.14171 5.1453306 3.0786889e-16)
(460.98926 5.2356192 3.6559179e-16)
(449.18198 9.6905397 -8.4627331e-16)
(432.87505 22.391957 -1.4516359e-15)
(389.84921 43.49428 -5.2561385e-17)
(283.29429 79.393918 3.7800773e-16)
(178.03428 106.45488 6.2398826e-17)
(131.85005 82.432155 -7.7761442e-17)
(107.94054 46.21074 -1.0871435e-16)
(84.551298 28.014297 -3.1429737e-17)
(67.217483 18.703808 -2.0571126e-17)
(54.612554 13.247316 -1.1798539e-17)
(45.204106 9.7728607 1.4713517e-17)
(38.029425 7.4280854 -6.9673006e-18)
(32.457686 5.7747326 -8.0875087e-18)
(28.064528 4.5680153 -1.4001351e-18)
(24.557302 3.6621977 -6.6577115e-18)
(21.729451 2.9659751 -8.4201339e-18)
(19.432168 2.4196942 -1.1533808e-17)
(17.556342 1.9829599 -1.1908387e-18)
(16.020786 1.6275906 -5.9600929e-18)
(14.76437 1.3333875 -2.2145227e-18)
(13.740677 1.0855082 5.6882818e-18)
(12.914303 0.87279963 -4.7598633e-18)
(12.258235 0.68665221 -4.8393987e-18)
(11.752142 0.52025698 2.0666927e-18)
(11.380142 0.36802226 -4.4425056e-18)
(11.134886 0.22557634 -2.5292676e-18)
(10.976323 0.079602062 1.6576028e-18)
(461.90689 0.34132621 3.2095125e-17)
(459.21758 -0.21594011 2.3403926e-16)
(458.87625 -0.63069116 5.1427819e-16)
(459.43581 0.79838602 1.9763756e-16)
(460.69403 -0.19061231 -1.1000034e-17)
(460.84875 0.59077854 1.491644e-16)
(460.25477 -0.70894535 2.0689959e-16)
(456.47944 -0.56384264 -9.2481835e-17)
(460.38968 0.02542963 3.5927378e-16)
(463.01507 1.5695266 -1.1602297e-16)
(458.31197 -0.84870408 3.5252388e-16)
(459.47917 -0.96583929 5.7023812e-17)
(458.45379 0.75392931 -2.4989039e-18)
(460.26059 0.3301119 8.2555452e-17)
(460.13962 0.2209913 -1.4202935e-16)
(463.19611 -0.63800765 3.4914633e-16)
(459.77265 -0.39850075 -1.7688584e-16)
(457.70417 0.59443507 2.2471518e-17)
(460.33179 0.64913493 1.0189207e-16)
(460.78805 -0.98656758 2.3984508e-16)
(457.42751 -0.18407568 -7.4314372e-17)
(463.25461 0.96410266 1.6521912e-16)
(457.75684 0.71527885 -2.3100525e-16)
(454.21754 -0.53613663 2.273803e-16)
(459.0861 -0.60276664 1.5244131e-16)
(461.99872 0.68206773 4.8746196e-17)
(458.07685 -0.067085837 1.7869797e-16)
(460.1019 -1.868141 -5.6051581e-18)
(458.91767 1.6800135 5.5136467e-17)
(457.20721 0.63940536 -3.4950753e-17)
(457.39571 -2.2498893 -1.1703917e-16)