/*--------------------------------*- C++ -*----------------------------------*\
| =========                 |                                                 |
| \\      /  F ield         | OpenFOAM: The Open Source CFD Toolbox           |
|  \\    /   O peration     | Version:  2.3.0                                 |
|   \\  /    A nd           | Web:      www.OpenFOAM.org                      |
|    \\/     M anipulation  |                                                 |
\*---------------------------------------------------------------------------*/
FoamFile
{
    version     2.0;
    format      ascii;
    class       volScalarField;
    location    "2.3e-05";
    object      alpha.fuel;
}
// * * * * * * * * * * * * * * * * * * * * * * * * * * * * * * * * * * * * * //

dimensions      [0 0 0 0 0 0 0];

internalField   nonuniform List<scalar> 
7500
(
1
1
1
1
1
1
1
1
1
1
1
1
1
1
1
1
1
1
1
1
1
1
1
1
1
1
1
1
1
1
1
1
1
1
1
1
1
1
1
1
1
1
1
1
1
1
1
1
1
1
1
1
1
1
1
1
1
1
1
1
1
1
1
1
1
1
1
1
1
1
1
1
1
1
1
1
1
1
1
1
1
1
1
1
1
1
1
1
1
1
1
1
1
1
1
1
1
1
1
1
1
1
1
1
1
1
1
1
1
1
1
1
1
1
1
1
1
1
1
1
1
1
1
1
1
1
1
1
1
1
1
1
1
1
1
1
1
1
1
1
1
1
1
1
1
1
1
1
1
1
1
1
1
1
1
1
1
1
1
1
1
1
1
1
1
1
1
1
1
1
1
1
1
1
1
1
1
1
1
1
1
1
1
1
1
1
1
1
1
1
1
1
1
1
1
1
1
1
1
1
1
1
1
1
1
1
1
1
1
1
1
1
1
1
1
1
1
1
1
1
1
1
1
1
1
1
1
1
1
1
1
1
1
1
1
1
1
1
1
1
1
1
1
1
1
1
1
1
1
1
1
1
1
1
1
1
1
1
1
1
1
1
1
1
1
1
1
1
1
1
1
1
1
1
1
1
1
1
1
1
1
1
1
1
1
1
1
1
1
1
1
1
1
1
1
1
1
1
1
1
1
1
1
1
1
1
1
1
1
1
1
1
1
1
1
1
1
1
1
1
1
1
1
1
1
1
1
1
1
1
1
1
1
1
1
1
1
1
1
1
1
1
1
1
1
1
1
1
1
1
1
1
1
1
1
1
1
1
1
1
1
1
1
1
1
1
1
1
1
1
1
1
1
1
1
1
1
1
1
1
1
1
1
1
1
1
1
1
1
1
1
1
1
1
1
1
1
1
1
1
1
1
1
1
1
1
1
1
1
1
1
1
1
1
1
1
1
1
1
1
1
1
1
1
1
1
1
1
1
1
1
1
1
1
1
1
1
1
1
1
1
1
1
1
1
1
1
1
1
1
1
1
1
1
1
1
1
1
1
1
1
1
1
1
1
1
1
1
1
1
1
1
1
1
1
1
1
1
1
1
1
1
1
1
1
1
1
1
1
1
1
1
1
1
1
1
1
1
1
1
1
1
1
1
1
1
1
1
1
1
1
1
1
1
1
1
1
1
1
1
1
1
1
1
1
1
1
1
1
1
1
1
1
1
1
1
1
1
1
1
1
1
1
1
1
1
1
1
1
1
1
1
1
1
1
1
1
1
1
1
1
1
1
1
1
1
1
1
1
1
1
1
1
1
1
1
1
1
1
1
1
1
1
1
1
1
1
1
1
1
1
1
1
1
1
1
1
1
1
1
1
1
1
1
1
1
1
1
1
1
1
1
1
1
1
1
1
1
1
1
1
1
1
1
1
1
1
1
1
1
1
1
1
1
1
1
1
1
1
1
1
1
1
1
1
1
1
1
1
1
1
1
1
1
1
1
1
1
1
1
1
1
1
1
1
1
1
1
1
1
1
1
1
1
1
1
1
1
1
1
1
1
1
1
1
1
1
1
1
1
1
1
1
1
1
1
1
1
1
1
1
1
1
1
1
1
1
1
1
1
1
1
1
1
1
1
1
1
1
1
1
1
1
1
1
1
1
1
1
1
1
1
1
1
1
1
1
1
1
1
1
1
1
0.99931632
0.9960237
0.99129777
0.98461397
0.97620413
0.96717528
0.94911729
1
1
1
1
1
1
1
1
1
1
1
1
1
1
1
1
1
1
1
1
1
1
1
1
1
1
1
1
1
1
1
1
1
1
1
1
1
1
1
1
1
1
1
1
1
1
1
1
1
1
1
1
0.99994008
0.99520057
0.98486278
0.96918253
0.94794664
0.91916112
0.88111758
0.82441005
0.76269536
0.70648835
0.65033348
0.6003365
0.55116027
0.49627014
0.4411863
0.38542717
0.32877088
0.27515532
0.23102317
0.19214628
0.15849863
0.13427243
0.091418493
1
1
1
1
1
1
1
1
1
1
1
1
1
1
1
1
1
1
1
1
1
1
1
1
1
1
1
1
1
1
1
1
1
1
1
1
1
1
1
1
1
1
0.99253194
0.97590049
0.94770981
0.90981406
0.83380933
0.74673762
0.65902448
0.57219796
0.49198635
0.41367812
0.33503266
0.26743306
0.1953296
0.13732652
0.090023215
0.034050962
8.5163913e-10
3.6404812e-10
3.6404815e-10
3.6404802e-10
3.6404772e-10
3.6404725e-10
3.6404712e-10
3.6404712e-10
3.6404712e-10
3.6404715e-10
3.6404721e-10
3.6404727e-10
3.6404733e-10
3.640474e-10
3.6404749e-10
3.6404771e-10
3.6404823e-10
1
1
1
1
1
1
1
1
1
1
1
1
1
1
1
1
1
1
1
1
1
1
1
1
1
1
1
1
1
1
1
1
1
1
0.98799381
0.96108064
0.91283283
0.81039676
0.69666171
0.57950724
0.46755165
0.35874565
0.25398649
0.16348412
0.093024742
0.0016310032
7.8359533e-10
7.5545078e-10
7.5545077e-10
7.5545077e-10
7.5545077e-10
7.5545078e-10
7.5545077e-10
7.5545077e-10
7.5545077e-10
7.5545078e-10
7.5545078e-10
7.5545079e-10
7.9017941e-10
3.6910499e-10
7.6153163e-08
1.7120671e-07
2.3538551e-07
8.4161693e-08
7.928709e-10
8.4366528e-10
1.3203743e-09
1.4731062e-08
2.3213092e-08
2.288156e-08
2.0038659e-08
2.19385e-08
2.2403807e-08
4.9133517e-08
8.2506547e-08
1
1
1
1
1
1
1
1
1
1
1
1
1
1
1
1
1
1
1
1
1
1
1
1
1
1
1
1
0.98192468
0.92761889
0.81583087
0.67294321
0.52024317
0.37453912
0.23079253
0.12737901
0.00038040313
3.1313845e-09
3.1257224e-09
3.1257224e-09
3.1257224e-09
3.1257224e-09
3.1257225e-09
3.1257225e-09
3.1257227e-09
3.1257347e-09
3.1691525e-09
3.2089227e-09
1.1759274e-09
1.1618368e-09
1.7741754e-09
2.2563862e-09
1.1460815e-09
7.5624271e-10
1.1294771e-09
1.2924735e-09
1.245564e-09
1.4743492e-09
1.4413834e-09
8.1175829e-10
8.104404e-10
2.7423099e-05
2.8030949e-09
2.3700338e-09
2.3700291e-09
1.4212497e-09
1.6244586e-09
3.347073e-07
2.7108183e-07
2.706118e-07
1.8617071e-08
7.6260127e-08
9.0805031e-08
7.0693466e-08
7.1017066e-08
1
1
1
1
1
1
1
1
1
1
1
1
1
1
1
1
1
1
1
1
1
1
1
0.97763769
0.90232563
0.74128166
0.55550363
0.36218589
0.20227177
0.025344771
3.9098268e-09
3.629802e-09
3.6298153e-09
3.6298159e-09
3.629801e-09
3.629801e-09
3.6298648e-09
8.1777242e-09
1.0597482e-08
1.0843657e-08
1.3317387e-08
1.8621957e-08
1.9837309e-08
1.7529152e-08
2.8326228e-08
4.1307373e-08
3.6393166e-09
3.4168234e-09
8.6863191e-06
3.0190186e-05
2.1919087e-09
1.8075896e-09
0.0035030014
3.0357734e-05
0.00038261644
0.012944149
1.840519e-09
1.4748634e-09
0.0014648324
0.00054226142
1.0872669e-07
8.1448467e-10
0.0031144875
0.0015386333
2.1843532e-09
1.7849149e-09
1.9952387e-05
1.7584876e-05
1.989305e-06
1.5583996e-09
1.2742493e-09
5.6884273e-07
3.4693424e-07
1.8417538e-09
2.2841893e-05
1
1
1
1
1
1
1
1
1
1
1
1
1
1
1
1
1
1
1
0.9646556
0.84734709
0.64480294
0.41041564
0.19894767
4.9951892e-09
3.7402759e-09
3.7402758e-09
3.7402809e-09
3.7404123e-09
3.7503024e-09
4.5414155e-09
4.773349e-09
4.3242065e-06
2.4486844e-06
4.3819717e-09
4.2806636e-09
4.4685554e-08
4.2327843e-08
3.6203336e-08
1.9132031e-08
2.3404087e-08
5.4367151e-08
8.6200126e-09
8.037585e-09
7.6063217e-09
5.0994592e-06
5.9588798e-05
3.7937675e-09
0.00024014272
0.002325968
0.010354821
0.045912435
0.070880621
0.016105029
0.016543442
0.020011736
0.011263855
0.00097702041
0.0015727622
0.0011678108
9.476263e-07
8.1105407e-10
0.0060795302
2.2982935e-09
1.9881568e-09
0.0059023838
0.0044223263
1.6956454e-05
1.817152e-09
1.5675475e-09
1.2712256e-09
1.056904e-08
1.4711084e-09
1.497004e-09
0.00021658163
1
1
1
1
1
1
1
1
1
1
1
1
1
1
1
1
0.92167407
0.72128296
0.45646752
0.1601051
4.8007186e-09
3.7865696e-09
3.7865695e-09
3.7865695e-09
4.4806033e-09
6.8761449e-09
3.7477988e-09
7.2148259e-07
2.3572758e-05
0.00029535309
0.0013114517
0.0013176388
7.1843959e-05
1.5471907e-07
0.0047682477
0.0027055428
1.6902437e-08
1.5983397e-08
1.5447035e-08
1.48625e-08
1.1240183e-06
5.4568809e-08
4.6909927e-06
2.361681e-06
8.1040099e-09
8.1065738e-09
0.00037092112
3.8817175e-09
3.9512254e-09
4.0038955e-09
0.066168645
0.07088062
0.070880621
0.038555395
0.00075903724
1.952311e-08
0.011723218
0.011723428
0.0015731714
1.3313504e-09
4.6316507e-09
8.1079433e-10
8.1076953e-10
0.011043367
0.011484001
0.014573856
0.0029519317
1.1527704e-08
5.1116392e-06
9.2765924e-05
3.7377616e-05
1.0230291e-06
1.4682396e-09
3.4878151e-05
1.301915e-06
1
1
1
1
1
1
1
1
1
1
1
1
1
0.93127436
0.71807604
0.408178
0.048262664
5.4751496e-09
5.2442185e-09
5.247461e-09
5.8779795e-09
4.8803372e-09
4.7330415e-09
4.5965114e-09
3.6684332e-06
3.5510846e-06
4.97719e-09
4.3430984e-09
0.0024049833
0.0025375246
0.002536439
0.0013411973
2.8371009e-06
0.00038130689
0.007993326
0.0062632122
0.0017739461
0.0032263354
0.0036316239
0.0012595695
6.1486375e-08
8.5442428e-06
8.9968575e-06
6.0424544e-05
6.4578477e-05
2.3381431e-06
9.2728533e-09
0.011064182
0.0042437746
4.6094332e-09
4.6754379e-09
0.013242133
0.066982845
0.070880638
0.016005575
2.0051491e-08
0.011723419
0.0050890374
1.4115188e-09
1.1126625e-09
8.1295251e-10
3.930021e-05
1.1258457e-09
0.0089606573
0.014786037
0.00025892549
2.3902561e-09
0.00028072613
0.0003030992
0.00030309933
0.0001433627
2.4034129e-08
2.3640135e-08
1.1812769e-09
1.1811e-09
1
1
1
1
1
1
1
1
1
1
1
0.87001788
0.54798624
0.10524795
4.8678714e-09
4.1404681e-09
4.1404682e-09
5.064356e-09
9.40639e-06
0.00039063895
0.0043724957
0.004156834
0.00129791
0.00078309058
0.00029090316
5.8582557e-09
4.8409057e-09
4.3743566e-09
4.6854893e-09
0.00072994308
3.8793949e-09
3.8793953e-09
3.8793957e-09
0.0012565793
0.0026473104
0.0037540417
0.011993907
0.011935257
0.0079531033
0.0002070327
6.1495227e-08
3.4713299e-07
6.8205842e-09
6.8122937e-09
0.00021301994
0.00021269576
0.00014104755
0.0017730448
0.001729114
0.018088643
0.0032853172
9.694995e-08
0.0056433183
0.022309916
0.0039884437
0.038428735
0.010418235
8.1150247e-09
0.0010671134
0.00041655253
0.00021062308
4.5612336e-08
0.010287656
0.0010778103
0.0067464539
0.00091389044
2.3757333e-09
2.0317185e-09
0.00010841784
3.1800533e-06
5.0817077e-06
4.8065416e-06
2.4557806e-09
2.6553362e-09
2.9289002e-09
1
1
1
1
1
1
1
1
1
0.84799186
0.45713413
0.0057124684
4.518912e-09
4.4597959e-09
5.5373546e-09
5.1775333e-09
5.1743573e-09
0.0010458861
0.0028797349
0.0077819002
0.007789736
0.0066703338
0.0027032325
0.0026328068
0.00013614308
0.004400015
5.4676205e-09
4.4960105e-09
4.4875844e-09
3.8772093e-09
4.0641837e-09
4.1922388e-09
4.0094618e-09
3.8778458e-09
3.9313234e-09
0.00011898029
0.0030662145
6.3141148e-09
6.2705907e-09
0.00013167625
2.0357306e-05
8.399774e-09
7.8961943e-09
7.4865047e-09
6.8058185e-09
6.8058182e-09
0.00018755347
6.2325711e-09
0.0097186876
0.023687069
0.014967427
9.68472e-08
0.010352896
0.00014645705
0.00014645688
0.046954906
0.0012481056
0.0043138813
0.014285949
0.0027207342
4.5525447e-08
4.5461016e-08
0.01306128
0.0017042326
4.5898975e-05
0.00056360153
0.00012887532
2.0474439e-09
1.7235374e-09
1.4997158e-09
1.7024955e-09
1.7005167e-09
2.0722198e-09
2.2663805e-09
2.500351e-09
1
1
1
1
1
1
1
0.89331258
0.51061639
0.0084833434
5.7258425e-09
5.6329327e-09
1.0685973e-08
6.3465603e-09
0.00084060001
0.00016207509
0.0017949738
0.0082781747
1.4210948e-08
4.6736469e-09
4.6736467e-09
4.6736473e-09
4.6736479e-09
4.6736483e-09
0.0035352424
0.0057873541
0.0022347903
4.4960511e-09
5.5713035e-09
4.6632644e-09
4.7221172e-09
4.4619994e-09
4.7406529e-09
3.8780323e-09
9.6089012e-05
6.4112971e-09
6.4060059e-09
0.00014926244
6.6993689e-09
7.3776639e-09
7.7877776e-09
4.3029194e-07
8.2679532e-09
7.8038452e-09
7.1685528e-09
7.1650492e-09
6.8395148e-09
6.135654e-09
0.00130323
0.0073572593
0.0024924106
9.6045038e-08
0.048040313
0.026340811
0.026300804
0.014594208
6.5056327e-09
0.010532995
0.014285949
0.0025554091
0.0065211983
0.011205792
0.0080202817
0.013154167
0.013147436
0.00016884236
8.0563726e-10
5.5993714e-05
2.3413701e-05
1.7264188e-09
1.698391e-09
1.930375e-09
2.1474834e-09
0.00038758339
0.0027193034
1
1
1
1
1
1
0.73724754
0.10647258
1.0383226e-08
9.5937975e-09
6.922221e-07
4.5947179e-07
1.0954857e-08
0.0042527072
0.0042526994
0.00076345241
0.0059966584
1.4676647e-07
4.9838791e-05
5.54896e-09
4.6736673e-09
5.5801652e-09
5.4367896e-09
6.358489e-09
5.8800805e-09
0.00035913323
0.0058745133
4.496678e-09
6.4237037e-07
4.7121419e-09
0.0021721266
4.3096027e-09
4.7710753e-09
3.8780352e-09
0.00018314804
0.0017883487
2.5638764e-05
0.00098663761
0.00032395674
0.0088843023
0.00059591947
7.9529455e-08
0.00025487152
0.0044447354
0.00062540744
0.00080360588
6.2273224e-09
6.1356524e-09
6.135652e-09
6.3237057e-09
0.01333084
9.6437846e-08
0.033927533
0.067898698
0.067898564
0.030207875
6.4836239e-09
6.1626677e-09
0.0032096294
5.0716438e-05
0.012002214
0.006502425
9.3502745e-10
0.0066056509
0.0019500207
1.38015e-05
6.9416038e-10
6.9711079e-10
0.0014166215
0.0027054479
0.0024294541
0.0038057408
0.0030931604
0.0065801442
0.0065698779
1
1
1
1
0.9696185
0.47892186
1.2158333e-08
9.8921649e-09
1.1359419e-08
5.6871095e-06
2.1804882e-05
1.6372131e-06
3.6838727e-05
0.0046032358
1.3632254e-08
1.3320655e-08
1.3422678e-08
0.00013301888
0.00047494765
0.0003376062
9.3786579e-05
0.000511795
0.00025087415
4.8094452e-09
5.6843473e-09
0.00042334923
0.0058745748
4.4967213e-09
4.4967694e-09
0.0039625356
0.0047415797
4.3096129e-09
5.0723563e-09
4.2209621e-09
3.7517963e-05
0.0068503674
6.8011767e-08
3.5844113e-08
0.0044338517
0.010547322
0.0071134008
7.9619966e-08
0.0010349354
0.0049761132
0.0049883054
0.0050198433
0.0050280611
0.00040338549
6.2960642e-09
0.004851485
0.01602924
0.014109271
0.0077260493
0.06789883
0.067898698
0.014970795
6.7515728e-09
6.3701846e-09
5.984986e-09
0.011601895
0.012002214
0.0036233369
8.3646261e-10
7.7808218e-10
5.0929395e-10
2.9707475e-10
4.8629671e-10
7.320391e-10
7.7610004e-05
0.0092304559
0.0095224399
0.0094921223
0.0094373684
0.00079394322
9.1359104e-10
1
1
1
0.95675216
0.26680461
1.5395688e-08
1.3788718e-08
1.1592063e-08
8.7352538e-06
5.3862362e-05
4.1111288e-07
4.1092386e-07
4.1086191e-07
0.00062870988
5.6745755e-05
1.3652097e-08
0.00031172192
3.5622691e-05
9.8036832e-05
0.0011350648
0.0001040456
0.0011219388
0.001127747
5.0179955e-09
8.8369222e-05
0.0020837788
0.00078177179
4.4967736e-09
5.3015199e-09
3.3853524e-05
0.0032766976
5.1883012e-09
0.00040771227
4.4100579e-05
4.0678931e-08
0.0068499562
0.0044883623
3.6404863e-08
0.0039679925
0.0040869998
0.0086151803
0.0020414319
2.7943175e-09
2.3728386e-09
2.3683902e-09
2.3594468e-09
0.00047699683
1.1733574e-08
0.00057637962
0.01519659
0.004846567
2.2608903e-09
2.1722083e-09
0.0010342027
0.0063395257
2.3295894e-09
0.0025769868
0.0022298242
8.7745456e-05
0.0039129478
0.0032656757
0.00073250489
1.1263961e-05
1.7851585e-05
9.4129743e-09
3.0009779e-10
2.0587712e-06
0.00074059928
5.5268861e-06
4.2917299e-10
4.2911274e-10
4.2911274e-10
4.3273331e-10
5.9416268e-10
8.7117387e-10
1
1
0.98750041
0.24993966
1.7396309e-08
1.5394408e-08
0.00089200828
0.00031646059
0.00011770266
2.8445932e-07
1.7882645e-06
1.9137765e-05
3.0888006e-05
1.4055632e-08
5.0719571e-05
2.0760908e-06
1.9488755e-07
1.9487283e-07
4.1332466e-05
0.00025769924
0.00040127826
3.4612689e-09
0.00024444085
6.3842313e-06
0.00096431702
0.003794893
1.0274006e-07
0.0001052555
0.0049828403
0.00015333632
4.6164049e-09
0.00018737208
0.00044445234
0.00029503641
5.7163292e-06
0.001654105
0.0067088965
0.00056917996
0.0036003137
4.3015185e-08
4.2846665e-08
0.0002211836
6.569534e-05
4.3405204e-05
6.3937563e-05
7.3688685e-06
2.2645037e-09
0.0084104728
0.016029211
2.9803266e-06
5.4653114e-09
6.7275047e-08
1.8821717e-09
1.9174174e-09
2.1854518e-09
1.8821101e-09
0.0033212288
0.0034745879
0.0003920237
2.3507896e-09
2.3589749e-09
2.5664726e-09
0.00088195746
3.5620762e-09
2.2137181e-07
2.8430326e-10
0.00089673639
0.0013678967
0.00049370631
7.4928523e-10
4.6467154e-10
4.2911293e-10
8.5937193e-05
0.0014500235
0.0025102302
1
1
0.31650741
3.1929671e-08
2.9370388e-08
1.5893118e-08
0.0018795638
0.0014074629
2.8374857e-07
6.5772809e-06
4.524221e-06
4.5176448e-05
4.5276117e-05
9.4225506e-07
0.00010992769
4.8700692e-05
3.5397955e-06
0.0006283521
0.0035473014
6.9463059e-09
3.2617738e-05
3.459961e-09
3.544905e-09
4.0521684e-09
0.0037872684
0.0016348727
8.2323385e-09
0.0004503534
0.0070132715
0.00094108083
3.8806537e-09
0.00024645261
2.9863178e-09
2.9257529e-09
7.0720552e-05
3.3316962e-08
0.0020427716
0.0018830465
4.274383e-08
4.2766423e-08
4.3584477e-08
4.3927753e-08
4.3940077e-08
0.00019638322
0.0001967
1.215087e-05
2.2547067e-09
2.2630904e-09
0.014646864
0.0082399909
0.00040698413
1.2929098e-08
0.010595834
0.010995266
0.0022026078
1.885195e-09
1.6402903e-09
1.6402903e-09
2.0067772e-09
2.2201257e-09
0.00014443914
4.3008912e-08
1.4965211e-05
1.0843713e-05
1.2374073e-06
2.8591791e-10
0.00080805441
0.00042598596
0.0005839558
4.3436598e-05
5.8441229e-10
4.2911325e-10
0.0005420423
0.002932436
0.0029555856
1
0.6462624
0.024814172
0.00027321983
3.1554526e-08
9.7738634e-05
0.0012375979
4.3874421e-08
3.8359145e-07
1.9763898e-05
6.8294587e-09
6.8235232e-09
6.8308967e-09
6.870778e-09
4.5784968e-05
2.8061855e-07
6.4250712e-08
0.0009217567
0.0075402638
0.0075216491
0.0028823705
3.4666336e-09
1.4179005e-05
0.0036996207
0.0037092939
3.5641712e-08
0.0028571398
0.0012489768
0.0018415468
0.0013000207
3.214195e-09
2.9348467e-09
3.5050023e-09
2.925758e-09
0.00020528315
0.019523677
4.2743618e-08
4.2545164e-08
4.2548954e-08
4.2911089e-08
3.9873388e-06
1.1412835e-07
2.2539481e-06
1.712931e-09
1.7087381e-09
1.7087726e-09
1.960061e-09
1.785215e-09
3.6515864e-06
0.016071671
0.010169938
0.00031042169
0.0046959996
0.0088758008
0.0002819992
2.0852673e-09
1.8574893e-09
1.6404678e-09
0.0017161097
0.0003200329
8.1898114e-06
2.9452757e-09
0.00010510695
8.9459644e-05
6.3754865e-10
3.3996615e-10
3.3009805e-10
2.7666012e-10
2.522155e-10
2.5221537e-10
4.2037819e-10
7.0113501e-10
8.7016923e-10
6.1882981e-10
0.002485132
0.97023541
0.081083741
2.8888627e-08
2.5702443e-08
4.1140944e-08
0.0014924617
4.237642e-08
4.4190856e-08
8.2594332e-08
2.0117505e-08
2.0094262e-08
1.482431e-08
2.0031752e-07
8.5701407e-09
9.7529647e-09
1.0458575e-08
0.00117835
0.0052242811
0.0052327029
0.0070898248
4.0001277e-08
4.6911729e-07
1.4922475e-08
0.00043882225
1.701223e-05
3.4597576e-08
0.0035077507
0.00062553207
5.0369779e-07
0.0019261005
0.0014794491
5.2225516e-07
4.2726374e-07
3.3586814e-09
3.5256376e-09
0.019564705
0.00024339781
4.3206767e-08
4.2927993e-08
0.00015334522
3.9963348e-06
5.8896067e-05
4.1803801e-06
2.0253849e-09
2.0203828e-09
2.0267549e-09
2.1643918e-09
1.7955182e-09
7.890198e-10
0.0022439057
0.010411821
0.0008585216
2.8174158e-08
2.8344306e-08
0.0013270763
2.0992622e-09
0.00069209662
1.432217e-08
0.0025409423
0.002532822
0.0016147056
0.0017001107
0.0017106242
4.4836996e-06
6.7185855e-10
5.0575485e-10
0.00019539541
2.1217056e-05
4.4007486e-10
2.5221566e-10
0.00095053792
0.0040987373
0.0027493597
6.7479145e-06
2.1644088e-06
0.32225796
3.7200156e-08
3.3132948e-08
1.1925364e-06
0.00016761788
0.0013708879
8.9325555e-08
7.8448637e-08
1.65931e-07
2.1432287e-07
2.2487569e-08
1.4891413e-08
2.7819004e-06
2.9314315e-05
0.00041189768
0.000126646
0.00021777988
0.0018171004
3.7141956e-09
4.9663432e-09
4.6514975e-07
1.5953175e-08
1.4892768e-08
1.3875888e-08
1.3388538e-08
1.2788516e-08
0.00088607143
2.8785163e-05
3.0742604e-05
0.0019264913
0.00043404909
1.0490373e-06
7.9835325e-07
6.2195776e-05
1.6603321e-05
0.00027038399
0.00269212
0.010339239
0.0019637895
0.0011987448
0.00016566533
8.7134841e-05
2.7611329e-09
2.4362949e-09
0.0043647561
0.0065083828
0.013289127
1.0030196e-09
7.7929465e-10
7.792947e-10
0.0091061827
0.0016690791
2.8213129e-08
0.00085219816
0.010910225
0.012644478
0.012687055
0.0083710162
9.0933479e-07
1.3235084e-08
1.3183656e-08
0.00019431708
0.00021962704
1.1181033e-09
9.0747585e-10
0.0002828491
0.00079017741
4.7386037e-05
4.9334311e-10
2.7650263e-10
0.00419482
0.0042883559
0.0042883558
0.0016791774
2.8313215e-06
0.10273005
4.4448947e-08
1.5683888e-06
1.9223834e-05
0.0002309299
2.3576643e-08
3.288607e-07
1.2319524e-07
2.6259885e-07
2.1802702e-07
2.5128649e-08
1.928107e-08
1.8043517e-08
3.9370444e-05
0.0016243069
0.0001276042
2.61352e-09
2.6286996e-09
2.5114121e-09
3.5109802e-09
7.1123718e-06
0.00140814
0.0015886671
0.00057338292
1.3829839e-08
1.282523e-08
6.6939803e-09
0.00090519022
9.3084306e-05
0.0016026933
0.00013132875
5.9388997e-09
2.3859284e-07
0.00061449699
6.8158353e-08
6.8088643e-08
0.011280341
0.011282479
0.011301683
2.0890212e-08
0.00099386665
0.00099355037
0.00054073882
0.0075605026
0.023863581
0.02392428
0.024052093
0.024102111
0.010284993
1.1128306e-09
0.0014090574
0.0042806179
0.00030717355
0.0010112337
0.00094651567
0.0034199212
0.01290849
0.01290849
0.0027560041
0.00030130568
2.5992656e-05
8.7943567e-09
8.8118008e-09
0.0031042103
0.004461891
0.0041365358
1.3458595e-06
6.3993756e-05
5.9429998e-06
0.00024890419
2.0680811e-05
0.00086840559
0.0019443641
0.0021822817
9.1670753e-05
1.7499456e-08
0.00042881378
4.6972338e-06
2.3502458e-08
2.3501672e-08
2.6003945e-08
2.767241e-08
2.0965526e-07
1.1490796e-06
2.1514001e-07
3.1157192e-08
2.0169149e-08
1.8264639e-08
1.9189591e-06
0.0016243069
0.00012079346
1.6332558e-09
1.6278113e-09
1.6278114e-09
2.468284e-09
0.00019366241
0.0042270368
0.0021441912
0.00035852827
1.5843736e-05
6.1278543e-09
6.095964e-09
4.5627732e-09
4.5624397e-09
0.00020961836
2.7976005e-05
5.3377936e-09
1.8105362e-09
0.0013450623
0.00089038156
0.00010015564
0.0010131888
7.7717254e-07
0.0042754789
2.7820461e-07
1.0499182e-09
1.0499169e-09
0.0042386678
0.013155189
1.1715023e-09
1.1925627e-09
1.2591747e-09
0.0092257725
0.0026528787
1.5088705e-09
0.0053753376
0.014038972
0.0069073617
4.4806974e-05
1.1301692e-08
1.1460081e-08
0.0053988863
0.0087187659
0.013159203
0.0081609776
7.807631e-10
0.0066624504
0.0067015757
0.0068749534
0.0068897255
6.2101171e-10
5.7297877e-05
0.00013871459
2.2973637e-09
0.0015903578
3.1857912e-05
2.2087158e-10
2.1744733e-10
2.1744717e-10
4.8333682e-05
2.0943371e-05
0.00061464877
2.1753628e-05
2.6687106e-08
2.5876358e-08
6.2937866e-08
2.6993636e-06
2.1221054e-07
2.1133647e-07
2.0262838e-05
2.1304397e-07
2.0875597e-08
1.9772028e-08
2.0377618e-08
0.0016243044
3.5492217e-05
0.0036569712
0.004059639
0.0037029307
3.1295927e-09
0.00036843754
0.0042270378
3.4726903e-07
0.0017891752
0.0032062138
0.00084636236
5.6602711e-09
5.1084426e-09
4.5621106e-09
4.0795162e-09
4.1061958e-09
3.8160146e-08
9.3264686e-09
2.0159302e-09
7.3937251e-06
5.2111972e-05
3.0154457e-09
0.00076056604
3.9325321e-09
3.701454e-09
3.396909e-09
1.1262687e-09
1.1052984e-09
1.0883237e-09
1.0962068e-09
0.00059050957
0.0044803184
5.4865118e-06
9.1682344e-09
1.9249504e-06
0.014038972
0.014038972
0.013923969
0.00086333532
0.0031479926
0.0004182518
2.0966153e-08
2.0771785e-08
0.0019031788
7.841897e-10
7.807631e-10
0.005812883
0.0071719671
5.7629276e-10
5.7623083e-10
5.7623082e-10
0.00032777295
5.4177696e-08
2.2606007e-09
2.1050312e-09
2.1006734e-09
4.5974394e-09
1.4864559e-09
2.2143813e-10
8.2784177e-07
1.0911148e-07
1.1033378e-07
0.00060563293
0.00045062674
0.00021014368
2.9747864e-08
1.1924835e-05
1.1044623e-05
2.1362549e-07
2.0238838e-05
8.6875488e-06
1.0107373e-05
0.00031145555
2.9258857e-05
0.00079983361
0.00063535499
2.6977513e-05
0.00052555081
0.0084882957
3.8849028e-05
0.00079133553
0.00013046466
1.7920974e-05
1.7710791e-09
0.0032030126
6.2985748e-09
5.6676598e-09
0.0017617878
0.00042873691
3.6257865e-09
3.6465679e-09
3.2313725e-09
2.8488149e-09
2.4147274e-09
2.3940351e-09
2.8312463e-09
3.1315361e-09
0.006515889
0.006534498
0.0016788582
1.970777e-09
1.4811098e-09
0.00013802207
4.8088955e-05
3.7671293e-06
1.2822004e-08
0.026329277
0.026425186
0.026336872
0.0071092424
0.0047779974
0.0040648859
0.00065931849
5.8568092e-10
0.011282968
0.0013737709
2.1100976e-08
5.2222026e-05
4.1648766e-05
4.094604e-05
7.8086192e-10
1.0438109e-09
0.00060537819
7.5981968e-07
8.3907372e-10
5.7811709e-10
0.00026696786
1.4572281e-05
0.0020461591
2.7813459e-05
2.2661777e-09
5.6026094e-09
2.0126697e-09
3.173813e-10
1.1271132e-05
1.1198953e-07
5.5533196e-05
0.00060321909
0.00060167325
0.00059901144
2.6868546e-08
3.1763761e-08
1.1033027e-05
5.0941718e-06
7.1360602e-08
1.3902499e-05
0.00021936453
0.00046573755
0.00030777803
4.0125095e-08
0.001242945
1.514567e-05
2.0294076e-06
0.008488296
1.2359501e-05
0.00064186508
2.5879907e-09
5.3052087e-06
3.3817764e-08
1.510634e-09
0.0038156704
0.0040801528
0.0056744401
0.0025662901
0.0011749069
0.00040302533
0.00011594429
0.0018843548
0.0014147211
0.006700009
3.1557791e-09
0.00091340749
1.2048224e-07
0.00053376331
0.022894252
0.020173181
0.011721686
0.0090645758
8.9286622e-10
0.00015882399
1.3062217e-08
9.4671168e-09
0.0081732901
0.012131179
7.9002019e-10
5.3575767e-10
5.3461577e-10
5.1396337e-10
4.4303843e-10
0.009680469
0.00021395306
0.00023702767
0.00022582743
0.00028052975
0.00027297213
1.0145668e-09
9.7147026e-10
9.0197127e-10
1.1635377e-09
1.0799987e-09
3.1926354e-06
8.9860167e-10
8.4945347e-10
0.0060718661
0.00033774535
2.4238909e-09
4.0848428e-08
2.7155539e-10
1.1847098e-06
1.8744113e-05
3.5065156e-06
4.5541483e-09
4.5541051e-09
4.5545698e-09
4.5557857e-09
3.9699411e-08
6.2348885e-08
2.9860506e-08
2.9845095e-08
7.1254915e-08
4.3013955e-07
1.6785986e-09
1.6785181e-09
0.00034773851
4.9775924e-06
0.00011374439
5.8982609e-06
3.3299759e-06
0.0015381451
2.5769762e-09
2.5749442e-09
2.5840193e-09
2.5157186e-09
9.5114392e-09
1.5108451e-09
0.0062759433
0.0062759411
1.206669e-07
3.0956153e-08
0.0040507762
0.0034174004
0.0034802175
0.0057538376
0.0057681781
0.0057804894
0.001749427
0.0052396046
7.2934331e-05
1.2121106e-07
0.021124731
0.023375182
0.023323183
6.3144946e-10
4.9423787e-10
6.0762343e-05
0.010924603
0.0046839915
1.8221802e-05
1.2868534e-09
1.0284271e-09
2.0300066e-05
0.00023544473
8.5545768e-05
4.9480174e-10
0.0032426327
0.0039404341
0.0076048782
2.9888192e-09
3.0129875e-06
0.00049175017
0.0024686692
7.5219728e-10
7.5219725e-10
0.001110693
0.00095671856
0.0011566365
5.0358804e-05
9.746101e-10
0.0060705393
0.0045455067
6.3732144e-05
3.5153745e-10
2.2454964e-10
1.8285304e-05
1.7958537e-05
3.4872822e-06
6.535856e-09
1.8811232e-08
1.102691e-07
2.8369077e-07
4.4785284e-08
1.3964563e-07
1.2851894e-07
4.1546477e-08
3.2920478e-08
1.6094688e-07
1.2442203e-08
5.9784965e-09
1.5791677e-09
1.7213104e-09
0.00011799775
2.7120225e-06
2.5120303e-07
0.0011172675
0.0079924868
3.1239465e-09
2.9865612e-09
2.6282903e-09
3.1227872e-09
1.5021806e-07
0.0062767402
0.00090118794
1.7998119e-06
3.4971132e-05
2.1911274e-10
1.85537e-10
1.8879453e-10
3.8346546e-10
4.1087645e-10
3.4646454e-06
0.010849631
2.3383144e-05
2.158742e-05
0.00046886407
5.15135e-10
4.8971228e-10
4.8971228e-10
7.509847e-10
5.4605433e-10
4.9299918e-10
0.011975745
0.011976699
0.0092814828
1.3332285e-09
0.0058721108
0.00020987244
0.0019819427
0.00049670431
7.9020804e-08
0.0026632857
0.017158754
0.001777131
3.0675186e-09
0.00019518438
0.00341988
0.0034039432
0.0011946905
0.0011943196
0.0011884505
0.0011897996
0.0011506199
8.7209828e-05
0.0011406052
0.00025890597
0.0051025206
0.00097727724
3.5302189e-10
2.2457128e-10
1.3563968e-05
8.7528788e-44
7.8524801e-09
8.8207738e-09
1.25669e-08
2.037172e-07
3.3477474e-06
4.6361156e-08
1.5323293e-07
1.4063801e-07
3.8840575e-08
3.7662587e-08
2.5660653e-07
1.0039661e-08
1.6496939e-08
4.479137e-09
1.6077989e-09
0.00041362456
5.3572193e-06
4.1359615e-06
0.0011787378
0.0085389192
0.00088574962
3.6279077e-09
3.272335e-09
0.00033825238
0.002520357
0.00061819166
1.9845092e-08
1.5252812e-05
0.00010513275
7.7532191e-05
1.85537e-10
8.6588787e-06
0.0030136455
0.00026462563
2.2770341e-09
0.0079780839
0.00028786373
2.6843248e-09
0.0055042615
0.00056043958
7.3930448e-10
7.6472229e-10
4.8283897e-06
1.4960419e-06
5.8507665e-10
8.196305e-05
0.0032498738
0.0017079224
0.016340161
0.016405264
0.0029672534
1.0049059e-09
7.8265866e-10
8.0615037e-10
0.0010227878
0.017158754
8.9951328e-07
3.2235915e-09
0.0014907558
0.0034194538
7.2025618e-10
8.5672984e-05
0.00058119273
2.6053487e-10
2.5592563e-10
2.552749e-10
0.00035402106
0.0037555507
9.6625402e-07
0.0051025136
0.00091902944
2.244305e-10
2.5644417e-10
7.3311301e-16
1.2911929e-38
9.8588461e-09
9.5680985e-09
1.5878351e-07
1.1038898e-08
3.142501e-06
0.00011915989
1.4042486e-07
2.1474488e-07
1.1227711e-06
3.843406e-08
2.3599383e-07
7.8598461e-09
7.3688667e-09
3.3155735e-09
2.432849e-09
0.00030292039
3.8951383e-06
3.8948454e-06
0.00030849911
0.0085389192
0.003590128
0.0011982511
0.0013067203
0.0041392034
0.0041392032
2.2025025e-07
1.9403992e-08
1.4257708e-05
6.7825825e-06
0.00020388947
1.855387e-10
1.8529113e-10
0.0045950136
0.00064846398
0.0013636494
2.9779188e-09
0.00042757202
3.1204275e-09
0.00036086196
1.3988345e-09
1.0395624e-09
0.00017380764
2.3545981e-05
1.0849717e-09
8.4946162e-10
1.0556502e-09
1.0558699e-09
1.1761298e-09
0.0023757977
0.011692912
0.0094393557
9.4105846e-10
7.8647809e-10
0.0022058501
0.011525666
0.011384651
4.0369548e-10
1.9699778e-05
0.00066765869
0.00052119834
7.3383845e-10
5.9000093e-10
4.5606209e-10
2.9136841e-10
2.8822003e-06
2.6998695e-10
0.00037303413
0.0026166485
6.1562999e-05
0.00075569931
2.4661492e-10
2.6923908e-10
4.4822042e-10
9.8268928e-12
1.4532985e-36
1.0188963e-05
5.6041305e-09
3.3070601e-09
9.287465e-09
6.7986413e-09
0.00025213967
1.403517e-07
1.4132256e-07
2.6258137e-06
5.2921393e-07
4.5669611e-09
4.3062883e-09
3.5833887e-09
2.8763754e-09
1.1843661e-05
0.0001907782
3.8955649e-06
0.00014303873
2.1535964e-08
0.0011007007
2.92027e-09
0.0023670846
0.002371704
0.00044375598
0.0015895628
0.0024770239
3.545309e-08
2.4950893e-09
1.8985718e-09
1.4921022e-09
1.3995457e-09
2.5854956e-10
2.7395997e-10
0.0001334444
0.00085086614
2.5535293e-09
0.0020040485
0.0024522431
9.4274483e-05
0.018354574
0.010934756
0.00055348614
5.1055456e-08
0.00021996356
0.0013454479
0.00085670097
9.8782064e-05
0.0016937726
3.3070882e-08
3.3018107e-08
0.017108756
0.010867149
0.01255356
0.014417891
0.014417891
1.8708114e-06
3.9882656e-10
4.0362337e-10
4.5177862e-10
4.0248889e-10
8.3935329e-05
5.78261e-10
5.9873578e-10
4.5485849e-10
1.8502637e-05
3.5233831e-07
1.1095412e-10
1.1096557e-10
1.6498843e-06
2.0922579e-10
6.459217e-09
4.1551107e-10
5.7112451e-10
1.0181931e-10
1.1952417e-14
2.3120218e-05
2.32476e-05
3.4406668e-09
4.7507708e-09
6.4308596e-09
1.1161783e-05
0.00028159339
4.3668727e-05
2.8905842e-07
3.8266898e-05
2.6434472e-06
0.00012405477
5.5601276e-06
3.0408697e-09
3.2377188e-05
0.00070125278
2.7032852e-05
2.3957051e-05
1.4792831e-07
3.3937649e-09
2.8951381e-09
2.443153e-09
2.4429139e-09
2.4429086e-09
2.4429085e-09
0.00075078537
0.00016347631
0.001966806
0.00080229043
5.232268e-05
1.7938713e-09
2.5173606e-09
1.7116288e-10
0.0013942747
2.5335172e-09
2.4468224e-09
2.4784944e-09
0.0028993845
0.02980475
0.029945178
0.023486504
0.00032333932
2.0807925e-07
8.7231531e-05
0.0023168393
0.0023168392
0.00023589144
0.011017299
0.01101334
0.00021042183
0.017224404
0.017254424
0.00013028998
0.0064296189
0.013862997
0.00085971247
4.3067543e-10
0.0017969507
0.0019930084
3.919757e-06
0.0013022238
0.0012775304
0.00045963393
0.00037451386
2.9656627e-06
2.7276954e-10
1.1635366e-10
1.4209967e-10
1.1349829e-10
5.2612207e-09
1.4569537e-07
5.7445999e-10
7.5544864e-10
1.5229744e-06
4.0637984e-17
6.0382192e-08
2.7859208e-05
3.9796461e-08
4.9882925e-09
6.3645549e-09
6.4272991e-05
0.00074663869
0.00043200396
3.612889e-09
3.8210908e-05
1.7706794e-06
0.0018177739
5.4036262e-05
3.6139813e-09
1.4123449e-05
0.00041472818
3.3129307e-05
3.4260924e-09
3.2925295e-09
3.2933406e-09
0.00014391787
8.9545283e-07
1.7901296e-08
2.5855907e-09
2.820065e-09
3.1705893e-09
0.0024441062
0.0024400685
0.0023280689
0.00018916164
2.1108042e-09
6.735434e-09
1.7121208e-10