/*--------------------------------*- C++ -*----------------------------------*\
| =========                 |                                                 |
| \\      /  F ield         | OpenFOAM: The Open Source CFD Toolbox           |
|  \\    /   O peration     | Version:  2.3.0                                 |
|   \\  /    A nd           | Web:      www.OpenFOAM.org                      |
|    \\/     M anipulation  |                                                 |
\*---------------------------------------------------------------------------*/
FoamFile
{
    version     2.0;
    format      ascii;
    class       volScalarField;
    location    "2.3e-05";
    object      k;
}
// * * * * * * * * * * * * * * * * * * * * * * * * * * * * * * * * * * * * * //

dimensions      [0 2 -2 0 0 0 0];

internalField   nonuniform List<scalar> 
7500
(
9.9993106e-06
9.9963437e-06
9.9966354e-06
9.9964505e-06
9.9956476e-06
9.9958764e-06
9.9969053e-06
9.9990425e-06
1.0003497e-05
1.0006203e-05
1.0010457e-05
1.0015077e-05
1.0018387e-05
1.0023375e-05
1.0027988e-05
1.003201e-05
1.0034575e-05
1.0039911e-05
1.0042104e-05
1.0042851e-05
1.0041916e-05
1.0040049e-05
1.0041635e-05
1.0046958e-05
1.0057914e-05
1.0074847e-05
1.0094257e-05
1.010877e-05
1.0120508e-05
1.0127016e-05
1.0132832e-05
1.0138213e-05
1.0143499e-05
1.0150345e-05
1.0159072e-05
1.0165854e-05
1.0178442e-05
1.0184279e-05
1.0188641e-05
1.0195949e-05
1.0202929e-05
1.0212953e-05
1.0218443e-05
1.0221541e-05
1.0227121e-05
1.0240337e-05
1.0253152e-05
1.0258026e-05
1.0266321e-05
1.0283037e-05
1.0288797e-05
1.0293555e-05
1.0301348e-05
1.031104e-05
1.0330812e-05
1.0343829e-05
1.0361599e-05
1.0384828e-05
1.0412129e-05
1.0438859e-05
1.0474628e-05
1.0510959e-05
1.0583142e-05
1.0628731e-05
1.072247e-05
1.07775e-05
1.08838e-05
1.0948733e-05
1.1075342e-05
1.1152295e-05
1.1302197e-05
1.1389925e-05
1.1563393e-05
1.1669397e-05
1.1956098e-05
9.9988507e-06
9.9978847e-06
9.9969292e-06
9.9970356e-06
9.9973256e-06
9.9983528e-06
1.000009e-05
1.0001557e-05
1.0003097e-05
1.0005193e-05
1.000901e-05
1.001203e-05
1.0017486e-05
1.002173e-05
1.0028325e-05
1.0033888e-05
1.0038522e-05
1.0040912e-05
1.0041798e-05
1.0041718e-05
1.0042039e-05
1.0043931e-05
1.0048236e-05
1.0057452e-05
1.006392e-05
1.0076075e-05
1.0082962e-05
1.0091923e-05
1.0101739e-05
1.0110745e-05
1.0129638e-05
1.0148396e-05
1.0181045e-05
1.0206077e-05
1.0241171e-05
1.0262295e-05
1.0289098e-05
1.0303187e-05
1.0322628e-05
1.0335448e-05
1.0352491e-05
1.037018e-05
1.0390897e-05
1.0423997e-05
1.0458813e-05
1.0522393e-05
1.0572155e-05
1.0656363e-05
1.0721504e-05
1.0811376e-05
1.0936004e-05
1.1033789e-05
1.1196564e-05
1.1326873e-05
1.1565562e-05
1.1753527e-05
1.2062555e-05
1.2303326e-05
1.2672764e-05
1.298406e-05
1.3441609e-05
1.380631e-05
1.4408863e-05
1.484348e-05
1.5651693e-05
1.6209431e-05
1.7208455e-05
1.7886057e-05
1.9036617e-05
1.9836201e-05
2.1059966e-05
2.191847e-05
2.3446679e-05
2.4452881e-05
2.6905994e-05
1.0001936e-05
1.000471e-05
1.00107e-05
1.0015696e-05
1.0024763e-05
1.0032215e-05
1.0045287e-05
1.0055232e-05
1.0071462e-05
1.0083158e-05
1.010156e-05
1.0113308e-05
1.0131344e-05
1.0143244e-05
1.0161778e-05
1.0173073e-05
1.0189546e-05
1.0198769e-05
1.0209433e-05
1.0214557e-05
1.0217561e-05
1.0220684e-05
1.0224715e-05
1.0231402e-05
1.023906e-05
1.0251529e-05
1.026564e-05
1.0290254e-05
1.0337886e-05
1.0382864e-05
1.0477389e-05
1.0565262e-05
1.0744393e-05
1.0855979e-05
1.1061365e-05
1.1187235e-05
1.1404112e-05
1.155005e-05
1.1788221e-05
1.197988e-05
1.2280896e-05
1.2624971e-05
1.2993676e-05
1.3614038e-05
1.4180405e-05
1.5162226e-05
1.5927817e-05
1.7255523e-05
1.8290987e-05
1.9760011e-05
2.18231e-05
2.3415594e-05
2.6071429e-05
2.8140802e-05
3.1913556e-05
3.4742314e-05
3.9284445e-05
4.3017657e-05
4.7617862e-05
5.248841e-05
5.8529297e-05
6.3366228e-05
7.104677e-05
7.6693704e-05
8.6918226e-05
9.4038108e-05
0.00010614219
0.00011495263
0.00012804548
0.00013758997
0.00015136082
0.00016135056
0.00017800942
0.00018935599
0.00021540662
1.0040942e-05
1.0077661e-05
1.0156054e-05
1.0211073e-05
1.0312533e-05
1.0382111e-05
1.0502039e-05
1.0575593e-05
1.0692794e-05
1.0757794e-05
1.0853295e-05
1.090471e-05
1.097602e-05
1.1018154e-05
1.107626e-05
1.1110006e-05
1.1151107e-05
1.1173719e-05
1.119217e-05
1.1192689e-05
1.1186326e-05
1.1186254e-05
1.1185307e-05
1.1199305e-05
1.1214293e-05
1.1248388e-05
1.1308256e-05
1.143617e-05
1.1697843e-05
1.200021e-05
1.2562568e-05
1.3132615e-05
1.4216981e-05
1.5106132e-05
1.6728494e-05
1.8076074e-05
2.0511988e-05
2.2528597e-05
2.599157e-05
2.8946091e-05
3.4032283e-05
3.8822799e-05
4.4821751e-05
5.4707582e-05
6.2630176e-05
7.6147078e-05
8.6711729e-05
0.0001052257
0.00011955504
0.0001386644
0.00016598513
0.00018643767
0.00022057263
0.00024617769
0.00029282817
0.00032641607
0.00037970998
0.00042806739
0.00047323811
0.00053221819
0.00060051545
0.00065134632
0.00073121435
0.00079101511
0.00089847234
0.00097140117
0.0010941229
0.0011805816
0.0013102844
0.0014012173
0.0015332664
0.0016261739
0.0017759326
0.0018793764
0.0021110504
1.0230596e-05
1.0648179e-05
1.1120257e-05
1.1624063e-05
1.2200677e-05
1.2753229e-05
1.3356436e-05
1.3792437e-05
1.4277011e-05
1.4542596e-05
1.4855306e-05
1.499549e-05
1.5158098e-05
1.5228965e-05
1.5303789e-05
1.5299609e-05
1.5333388e-05
1.5277099e-05
1.5282892e-05
1.5198871e-05
1.5173169e-05
1.5210236e-05
1.5294109e-05
1.5483276e-05
1.5811279e-05
1.6448609e-05
1.7426892e-05
1.9244374e-05
2.1797556e-05
2.5027695e-05
3.1044534e-05
3.7266452e-05
4.8365866e-05
5.8488737e-05
7.719904e-05
9.3695379e-05
0.00012366022
0.00014854174
0.00019208114
0.00022840499
0.00029276115
0.000345139
0.00043021753
0.00053104828
0.00061807592
0.00077047546
0.00088563041
0.0010830701
0.0012341888
0.0014176558
0.0016976745
0.0018952728
0.0022262569
0.0024644684
0.0028987985
0.0032049064
0.0036719378
0.0041454653
0.0044858698
0.0050240676
0.005600164
0.0060073876
0.0066561114
0.0071340087
0.0079868044
0.008548451
0.009494649
0.0101533
0.011130317
0.011777752
0.012752563
0.013398457
0.014422836
0.015126047
0.016688953
1.0711443e-05
1.34143e-05
1.4984801e-05
1.7993193e-05
1.9592642e-05
2.2227917e-05
2.3560509e-05
2.5327618e-05
2.6250204e-05
2.7162703e-05
2.7719052e-05
2.7990102e-05
2.8130956e-05
2.8056356e-05
2.8073174e-05
2.7862946e-05
2.7888934e-05
2.7740254e-05
2.7869887e-05
2.815079e-05
2.8836713e-05
3.0162019e-05
3.2574089e-05
3.7022131e-05
4.3414817e-05
5.5622059e-05
6.9557602e-05
9.6085591e-05
0.00012558154
0.00016580713
0.00023965511
0.00030689437
0.00042761697
0.0005371147
0.0007419578
0.00091133684
0.0012198375
0.0014629503
0.0018955884
0.0022368398
0.0028451381
0.0033113774
0.0041444016
0.0048535212
0.0057034439
0.0070227724
0.0079250636
0.0094129796
0.010694095
0.012039256
0.014169974
0.015580304
0.017982329
0.019647411
0.022658792
0.024816429
0.027745567
0.03117798
0.033327676
0.036796437
0.040248719
0.042758775
0.046857094
0.049679223
0.054615658
0.057834046
0.063275277
0.067094432
0.072474923
0.075870614
0.08115322
0.084483057
0.089741724
0.093277766
0.10109202
1.1604339e-05
1.8292526e-05
2.1330183e-05
2.8357189e-05
3.1020182e-05
3.7492069e-05
3.9701717e-05
4.4551924e-05
4.636394e-05
4.9082917e-05
5.0372938e-05
5.1279285e-05
5.1886178e-05
5.2187954e-05
5.2659143e-05
5.3295998e-05
5.4615278e-05
5.6923295e-05
6.1628379e-05
6.9476898e-05
8.4904469e-05
0.00010678792
0.00014539905
0.00020661555
0.00028698026
0.00043313792
0.00058612235
0.00088149081
0.0011574519
0.001622685
0.0022626643
0.002856366
0.0039677269
0.0049038988
0.0066413094
0.0079760474
0.010441417
0.012271564
0.015579581
0.018003223
0.022354477
0.025500355
0.031287277
0.035348325
0.042198359
0.049113314
0.055074342
0.063327118
0.072419874
0.079274952
0.091146845
0.098692305
0.11204038
0.12086019
0.13642936
0.14777974
0.16189358
0.17942055
0.19012308
0.20790894
0.22118127
0.23601314
0.25389042
0.26617985
0.28774112
0.3022332
0.32568184
0.34222083
0.36465396
0.37889601
0.40031811
0.41351994
0.43404389
0.4479581
0.47853453
1.1186778e-05
1.8057066e-05
2.1678824e-05
3.2007739e-05
3.7059085e-05
4.9684691e-05
5.4741953e-05
6.4819154e-05
7.0477783e-05
7.4989278e-05
7.8032716e-05
8.0091033e-05
8.3094106e-05
8.6638334e-05
9.3144058e-05
0.0001036397
0.00012467996
0.00015771158
0.0002264652
0.00031872192
0.00051020304
0.0007357449
0.0011970845
0.0016858252
0.0025870153
0.0037371443
0.0051176664
0.0075857661
0.0097101184
0.013677259
0.017418993
0.022218808
0.030022068
0.036026709
0.046949629
0.055115972
0.070462529
0.080955714
0.10006756
0.11317098
0.1370384
0.15327701
0.18315758
0.20318609
0.24025411
0.26433115
0.30240729
0.33546372
0.37673001
0.40648184
0.45931176
0.49078263
0.54731026
0.58282568
0.6452142
0.69136252
0.74944625
0.81388935
0.85615508
0.92864891
0.97320649
1.0417791
1.0989174
1.1467277
1.2276086
1.2811074
1.3644922
1.426041
1.5037809
1.5567259
1.6296987
1.6776911
1.7505132
1.8024926
1.9158896
1.0386568e-05
1.4569987e-05
1.8947631e-05
2.7435294e-05
4.225758e-05
5.3340766e-05
7.6652653e-05
8.6827964e-05
0.00010827167
0.00011519067
0.00013004831
0.00013980976
0.00015843998
0.00019005949
0.00025272065
0.00035761165
0.00058416135
0.00090648832
0.0015979459
0.0024155515
0.0041581924
0.0059683701
0.0097654014
0.013320804
0.020688713
0.026987361
0.039034653
0.051448564
0.065863655
0.089242444
0.10883925
0.1407782
0.17342162
0.20959549
0.26040041
0.30148071
0.37448367
0.41993858
0.50476759
0.56118465
0.66480498
0.7306784
0.851536
0.93067817
1.0761662
1.1657369
1.3214961
1.4277608
1.5892254
1.6985547
1.8912307
2.0024533
2.2037021
2.3267664
2.5481859
2.7068286
2.9262704
3.118355
3.3006949
3.5737831
3.7473763
4.0087532
4.1861484
4.4214603
4.6683327
4.8981602
5.1910219
5.4296327
5.6936443
5.9160895
6.1973879
6.4145246
6.7417769
6.9855955
7.4913833
1.4889672e-05
3.6720099e-05
4.5558669e-05
6.5034006e-05
7.7083306e-05
8.5937825e-05
0.00010528789
0.00011477756
0.00013800342
0.00016236802
0.00021449516
0.00029692162
0.00045511558
0.00075228544
0.0013380518
0.0022439258
0.0042917814
0.006816931
0.012270248
0.018011504
0.03039461
0.041860614
0.066084957
0.086448686
0.12891712
0.16169875
0.22852578
0.27729422
0.37270271
0.44458184
0.56372988
0.67041721
0.82968827
0.96843906
1.1629218
1.3303416
1.5980145
1.7677871
2.0877096
2.2911083
2.6605799
2.8924633
3.3171793
3.5938412
4.0903458
4.404453
4.948867
5.3055625
5.9000638
6.2839316
6.9385241
7.336285
8.0632377
8.508063
9.3419944
9.9771421
10.850621
11.529101
12.613492
13.616519
14.581996
15.599408
16.334696
17.399202
18.17902
19.422154
20.341861
21.735482
22.84695
24.450111
26.119977
27.468952
29.53564
30.931111
33.399536
1.4208635e-05
4.0731984e-05
5.3608666e-05
8.9614618e-05
0.00010044091
0.00012573986
0.00013916262
0.00016447194
0.00021724522
0.00033716736
0.00059747669
0.001164211
0.0022873614
0.00463725
0.008869177
0.015426233
0.030294721
0.04604247
0.079931364
0.11230693
0.18169545
0.23906297
0.35935296
0.45137001
0.64222572
0.77786406
1.0533138
1.2411524
1.6130989
1.8610352
2.3484195
2.6674173
3.2847951
3.6935257
4.4530169
4.9640811
5.8884798
6.4992935
7.5967465
8.3067763
9.5892579
10.41586
11.854884
12.849975
14.650238
15.881458
17.960861
19.364173
21.6759
23.21122
25.759168
27.37231
30.578309
32.611684
37.412388
41.120069
44.963383
48.771924
56.392712
60.942837
65.974178
69.11764
72.628246
78.001477
81.842728
88.696248
94.664325
109.76824
117.09696
134.6395
143.93104
151.32981
167.38251
172.77814
181.67019
1.0293601e-05
1.2058522e-05
1.5050325e-05
2.1199584e-05
3.403147e-05
6.2658382e-05
0.00013390935
0.00031126785
0.00072871494
0.0016694178
0.0036241103
0.0078817382
0.01562402
0.032951133
0.056587987
0.097068075
0.17991838
0.25605156
0.42209958
0.56891295
0.87396586
1.1036959
1.5773287
1.917287
2.6113688
3.0819074
4.0337104
4.6639351
5.9060314
6.7310395
8.3736782
9.458303
11.623398
13.021596
15.633242
17.508619
20.781445
23.083516
27.249491
30.005479
35.004365
38.145437
43.493486
48.130027
57.418428
62.88196
72.59101
78.590215
89.787071
96.545621
111.03525
117.09082
144.48068
152.09747
202.02629
218.59323
228.85667
257.31568
326.38903
325.42732
337.83285
351.60995
376.21249
420.43545
433.93795
481.55862
545.4096
567.6671
560.90176
632.36289
599.34126
626.64726
692.02544
684.57329
667.97544
1.0539125e-05
1.1256844e-05
1.3356394e-05
2.2475887e-05
6.1161842e-05
0.00020075481
0.00062554518
0.0017678092
0.0044795946
0.010700011
0.02331568
0.052760266
0.09709983
0.19774833
0.31188313
0.5427566
0.85978859
1.1781975
1.8665569
2.4049777
3.4736331
4.2507143
5.8157035
6.9202612
9.1218129
10.665867
13.788331
15.904139
20.021165
22.981355
29.142839
33.164597
41.768422
46.762654
56.719054
65.979959
78.410711
89.132065
109.94098
120.2004
146.79772
156.64771
188.01703
220.87135
287.32221
295.0716
345.53765
373.49569
443.24969
473.61337
571.28538
567.55607
731.51566
650.55743
874.42459
867.41612
810.44786
1211.7614
1147.3489
893.0062
837.27476
900.17113
948.39541
827.16478
938.67556
999.80399
855.39753
627.93978
661.58741
509.70353
466.75098
620.63881
467.59996
413.85289
317.95888
1.1889889e-05
1.6239824e-05
3.032672e-05
0.00010474586
0.00041035351
0.0014467122
0.004405967
0.011848213
0.02853528
0.066474941
0.13701243
0.3019465
0.50700847
0.96128611
1.4185532
2.4068108
3.336499
4.6828812
6.9256245
8.6251495
11.874881
14.482404
19.328649
22.966398
30.239706
35.844136
47.325254
54.949686
70.932772
83.58689
113.38098
127.26193
170.39416
185.04626
243.68295
300.19607
340.7058
422.86791
526.91043
550.70689
722.60121
702.41087
896.09698
905.14807
1004.1599
952.52522
1083.3567
1042.4777
1129.5526
1107.1658
943.12875
989.71681
913.19767
764.18699
782.17476
594.09596
581.03719
729.91241
272.62084
324.69907
289.98454
358.12712
244.1752
183.74491
359.68687
166.72086
106.33932
58.067834
65.187524
40.208531
48.455918
69.258493
35.191533
26.217781
22.099215
1.0307243e-05
2.1942864e-05
0.00011639098
0.00065088703
0.0027648015
0.0094146051
0.027203962
0.069243267
0.1574625
0.3695762
0.68613513
1.4167979
2.1999868
3.8439548
5.4629419
8.8205272
11.521898
16.718697
22.203321
28.443931
38.402163
48.725452
62.773995
77.786775
108.09591
130.99964
181.99932
208.95201
300.55429
360.60308
514.775
550.62136
799.00361
796.08951
1027.3568
1060.0126
1120.9954
1351.6293
1186.0909
1280.8519
1217.5994
993.91391
1173.8933
821.18934
587.1712
501.61765
475.28841
388.60606
440.07192
258.26706
160.50118
220.42753
86.76624
174.94437
94.238223
69.185037
156.03626
122.01837
19.467647
21.990219
48.234626
45.72503
21.822179
29.49782
77.954112
14.532282
11.365798
10.099101
8.5768346
7.9789462
14.666204
16.831701
9.9794791
7.3874682
6.8798306
9.9873563e-06
7.5494012e-05
0.00073315113
0.0041451576
0.016845534
0.053605295
0.14544407
0.35013521
0.74744033
1.6973743
2.8781476
5.5006132
8.0853061
13.16265
18.996967
28.621129
37.423051
55.464831
69.813025
96.015175
133.56501
171.9164
225.73615
313.14943
461.88085
574.57144
791.68547
909.38556
1127.2592
1309.4371
1347.7326
1433.8642
1532.0174
1225.6943
1222.638
940.4382
848.28716
610.67058
311.95215
437.27606
175.35033
237.42925
182.57146
61.869166
45.289592
49.417634
43.748953
35.901546
38.827677
20.226353
17.345411
20.094508
12.581735
32.777411
22.096053
46.818807
75.006624
41.688734
9.2246961
7.2196869
20.327423
18.045208
13.288171
18.386977
29.361673
8.3640311
6.72259
6.7487834
5.9922197
4.992656
7.8947775
8.1409873
6.6431025
5.6856999
5.8993269
1.0065129e-05
0.00049496464
0.0047188476
0.024426834
0.091011118
0.26729549
0.67699934
1.5478361
3.0659722
6.5196546
10.355795
18.447948
26.593868
42.666412
63.956508
88.518215
125.26278
189.13257
244.10816
379.29732
533.60528
711.70315
970.69498
1265.5552
1373.0452
1621.7009
1542.9846
1583.044
1275.6504
1219.4885
758.13526
820.96815
223.15399
394.91798
162.72673
165.38282
179.0696
49.679864
31.102555
36.90138
16.74414
44.696603
16.575023
10.896557
9.1957661
12.209961
11.066097
9.5115958
7.1501732
12.711523
9.9060905
9.1753914
6.3630393
11.550844
13.733639
49.243053
55.26504
26.651496
7.393615
6.5241747
12.705686
12.931807
5.7099815
11.375398
14.360899
7.2499162
6.6161426
6.3202822
6.0377054
5.0290506
5.8834113
5.8821311
5.6369703
5.3505243
5.5140547
1.146655e-05
0.0031558866
0.027148282
0.12713415
0.42984562
1.1606516
2.7518231
5.8174283
11.087036
21.694354
33.566425
57.634534
85.177584
146.27213
210.10156
303.62208
497.32053
728.87357
962.71439
1365.299
1458.108
1671.5012
1632.1708
1488.0357
1126.4771
795.53035
408.90938
522.55839
222.21495
182.22694
88.217727
95.349672
30.59886
64.994829
24.60805
37.86333
34.677593
10.967887
19.256486
11.770911
8.8747534
17.408412
6.7814824
14.143531
7.8512799
6.7573486
6.154587
5.2195883
26.481938
15.062789
16.383442
12.329789
7.7032469
7.6586339
20.409716
30.016995
44.876864
17.375993
6.6840396
6.9448828
9.2151118
8.3376282
5.4297685
8.433403
9.7415356
6.9371698
6.7161585
6.1551077
5.6773466
5.2486588
4.7716659
5.5468378
6.0320251
5.501053
5.5341531
4.1230226e-05
0.017890402
0.13757112
0.57984331
1.7739608
4.4127589
9.930623
19.144893
37.395231
65.842278
105.90091
184.96372
292.63104
547.34999
783.82825
1259.951
1474.7606
1732.0226
1691.1398
1527.5644
1068.1125
874.99937
410.71459
265.43444
138.85301
82.795901
41.600347
75.242552
19.67911
24.236651
9.9782767
8.5828178
3.9696577
8.2871961
4.6882301
13.74173
16.754803
10.536695
44.575448
15.173863
9.7542605
9.5268952
7.0755428
17.511435
10.688801
5.7809769
5.3197287
5.5181209
10.617266
14.609722
13.018052
13.322219
8.8269615
7.8714783
22.892441
36.402873
32.197294
12.844142
6.4999009
7.1803493
9.5212295
6.2221766
6.3457288
10.312211
9.0149401
8.1191812
7.0372766
6.0522285
5.9089884
5.8444737
5.1232629
6.3434524
7.0196442
6.6191885
6.0992339
0.00052950568
0.094004406
0.62210896
2.3252776
6.4329923
14.862725
30.990008
60.734682
118.16379
203.4156
359.57583
686.76893
1168.049
1599.2906
1908.6949
1903.2366
1421.766
916.50167
545.03
305.14757
186.35986
169.16354
39.738023
30.171624
12.89286
17.599466
9.479512
9.4003079
4.560105
8.1716941
1.8187795
2.0357405
2.3070109
5.0257033
3.4689175
10.584847
5.0538574
11.287013
51.359705
18.255276
10.694941
7.4714183
10.283777
14.281131
13.016726
8.080944
5.6747407
4.6313895
8.6745116
16.199224
11.943261
10.969875
7.4771619
8.1089276
20.760039
23.770205
20.434098
6.9499773
6.4268722
8.8877718
9.6819594
5.7890702
8.109078
7.4278817
6.5189957
8.9462307
7.0971302
6.2143232
6.5374035
6.1667006
6.2898638
6.6921256
7.1127925
6.9857512
6.4059629
0.0070399675
0.44710995
2.507846
8.2347607
20.807972
45.599583
93.763474
195.29881
379.26744
729.75133
1425.5461
1844.7728
2007.6434
1646.5296
1100.2813
437.61314
210.89632
133.06052
68.776827
52.356562
52.896426
29.265529
8.7459884
4.3972389
3.3676769
10.173551
4.8008508
3.181067
3.52652
10.331691
1.4277016
1.4809345
2.0078374
6.3221663
4.1750399
7.9677621
6.9272839
12.966303
26.261456
15.284846
9.0049042
6.3156123
6.6085078
10.669043
15.222975
8.6902179
5.1222286
5.3561549
25.469841
17.358131
13.21667
9.9968164
8.6721899
7.2931634
16.598441
11.814438
6.4587307
5.9411669
6.5895761
9.4556539
8.5741991
7.6353204
11.254369
6.3688636
5.8521548
8.355659
6.5759765
6.1874029
6.8078342
7.2363407
6.2888888
6.4660762
7.2740001
7.3619126
6.7279978
0.056353268
1.9020749
8.9642259
26.015726
61.808117
134.68969
290.92539
676.93824
1434.0059
1842.3812
2118.5171
1655.1013
655.8251
310.25003
154.3831
39.592519
26.426394
27.997218
9.1139914
9.0274291
14.448159
5.5444468
4.1341118
2.8681501
4.3430424
4.9777076
3.4281313
2.1621224
3.5201224
7.0925832
2.0995195
1.4008202
2.2610047
3.5793906
3.9637171
5.935204
5.2612223
9.4454475
56.24213
13.741311
9.1740449
5.7154747
5.167951
10.750814
14.540481
9.0529723
5.2077048
4.4210713
17.55787
8.8663678
17.577719
11.13804
9.6444696
6.6266546
9.5870359
8.7512258
7.2713561
5.5596756
6.3732489
9.4146688
32.14971
11.875686
17.539013
6.1422613
8.9610752
6.2542561
5.8713991
6.0999187
10.431316
10.509975
7.5368346
7.9028055
7.9252483
7.7493476
6.7784581
0.35501819
7.2456922
28.675706
75.192754
176.76166
407.70425
1021.4516
1836.5472
2300.2612
1686.1277
724.35552
317.32043
77.123929
55.176084
16.990197
3.0311105
4.5182594
7.8340543
4.1004653
3.7815338
6.5575502
9.3073106
2.5460114
2.7694677
2.3803718
3.0162737
2.7781968
1.9620107
4.1401311
5.1378264
3.2092719
1.4038457
3.0043995
2.0401014
2.5257365
5.2175672
3.9217679
13.803053
31.901566
12.24608
6.2645188
4.7266639
5.0236135
12.843054
14.973499
11.360426
6.8627138
4.7321141
11.908595
6.8999418
11.017065
10.328697
8.7552696
6.0573878
6.213538
7.5098512
6.0342083
5.722269
5.9714372
16.267758
26.545702
15.191288
7.8349195
10.931868
10.225505
5.5194261
5.6873184
6.5619868
10.662733
11.393103
9.3986013
9.3858366
8.2963906
7.650638
6.619434
1.8986535
24.822465
83.751385
206.1326
520.86925
1399.7982
1987.1774
1848.5101
917.44025
376.55828
134.74401
32.625225
6.1567342
10.218851
3.0665373
0.88348246
1.7633646
1.8319743
1.8118089
2.997209
5.4657776
14.829078
1.9916759
1.883221
2.4446883
4.56936
2.263323
2.0700792
4.4208268
4.271421
3.6936774
1.5085635
3.8399813
2.1049886
2.1660635
4.0420373
2.2308434
3.0189822
12.211198
8.0215819
5.1626414
4.8835017
4.9824955
12.990054
15.831487
11.574315
8.6462968
4.8421773
6.0231489
5.0368173
5.0977567
11.330942
8.5248462
5.2580113
6.2653751
8.2054499
6.432525
6.8678347
6.9748058
18.014742
12.02742
12.225837
10.027229
14.775834
7.8100926
5.3801436
5.68215
7.3296832
7.3489086
8.9873683
11.157369
9.8646485
7.7463187
7.1547081
6.904511
8.8929291
77.502376
228.9306
568.6788
1713.7027
2221.5943
1405.7962
475.33761
179.50469
51.800531
14.686872
2.6791417
0.87102281
3.2604152
1.1192873
0.74043729
1.3255088
0.9827418
1.944946
2.8870732
5.6930815
16.223801
3.0859634
2.3233785
3.41779
8.3151754
2.2317565
3.0165401
4.5803014
3.7199689
3.5692304
1.6035065
2.891882
1.9871175
2.0158631
3.1128888
2.1158311
2.4911708
5.3194893
7.9452931
4.7173289
5.7263269
4.7811588
6.5818278
6.3537543
7.5940397
7.8627662
5.216019
4.574438
5.4156653
5.371434
11.632941
8.2507453
5.4547774
10.558619
8.5831397
6.4334621
9.1902823
7.8758322
10.434411
10.536564
10.857978
9.7082865
8.0043857
7.4328373
5.811501
5.8433396
7.7845909
7.878714
7.984319
9.6081781
8.1628217
7.1253992
7.0412382
7.1838185
37.367563
223.17338
612.04539
1715.5974
2332.1984
1165.2194
441.20477
98.896764
23.341627
6.6301595
1.573397
0.72580274
0.54097131
1.5670269
0.9608134
0.75753683
1.2392245
0.88312666
1.1433436
2.915824
5.3114191
8.3332981
4.2889918
3.776286
5.8991513
9.1955573
3.125064
3.3445373
4.5993261
2.9164207
2.6062225
1.7978947
1.4974568
1.5946866
1.9218776
2.62035
2.1004263
1.8743884
6.5224532
9.9293307
4.7588556
5.3678116
4.478344
4.2661352
5.6659322
4.4188126
6.9530367
5.9319741
4.9093715
6.4692968
7.2448095
7.1824691
7.2910839
5.422784
9.6389743
8.2472038
5.5125629
11.732673
8.4402614
27.887793
15.600766
10.605822
7.3147027
9.6937712
6.4946194
5.933386
5.8136627
7.2071079
8.5376749
7.6773841
6.8277239
6.760607
6.7638194
6.9113942
7.4072169
144.27333
603.04293
1718.9288
2268.3577
1096.6447
325.24492
93.120954
11.816145
2.5007187
1.7457611
0.523299
0.68054219
0.52842607
0.85090445
0.97535069
0.74453886
1.2341697
0.93413073
1.0151184
2.8778284
4.8652029
6.2335314
4.6294115
3.89503
7.6075719
6.6185367
3.1957035
3.4415131
4.5535162
2.6709307
2.4229245
2.0718915
1.4061356
1.5268568
1.9684571
2.6176633
2.0993153
1.9955722
5.9690542
4.8560526
3.4458174
6.2786707
4.9154109
4.1145391
3.5796257
3.9847017
5.8003605
5.8397062
6.8009848
6.6811056
7.4144664
6.0810991
5.9711619
5.859698
7.9988145
6.6856045
5.6966515
11.230945
7.795371
32.192653
15.924621
9.1633331
6.670041
7.433688
6.3581654
5.743071
5.6360664
6.6963608
7.3465553
5.7939586
5.8055294
6.4759339
6.7201583
7.2657603
7.9111458
483.55399
1624.9327
2752.8757
1391.3476
358.18669
56.781507
12.14633
1.3914057
0.44986189
0.66521452
0.45617509
0.80063206
0.53898233
0.56733637
1.1165615
0.7880779
1.21441
1.5253688
0.97752745
2.7453572
4.4100668
6.3168381
4.752595
3.6006055
5.0564423
4.3380598
3.5622517
10.656317
4.6397645
2.6976473
2.4973355
2.1133798
1.4284629
1.7981418
1.9423104
2.5445171
2.1544896
2.4166387
3.5877742
3.4322759
2.6996028
3.3092803
3.4018
2.9821121
3.2648749
3.7749979
5.5356549
5.5673653
9.3873239
4.6553783
5.1816633
8.2683194
5.3377392
5.5682199
11.63746
7.0843363
5.7576296
6.2416781
6.7514865
10.158282
11.524685
9.0004551
6.8185008
7.5644388
6.6977951
5.2463773
5.2958751
5.1691845
5.6972274
5.2919376
5.6409333
6.5521774
7.3364099
8.2360184
8.5309321
1473.7131
3257.9033
2213.5237
567.22293
61.700587
7.1106061
1.5249906
0.54397006
0.25588902
0.31181407
0.45260977
0.95640415
0.5592095
0.52630611
1.1928126
0.82502823
1.1689477
2.1752431
0.97650569
2.6202808
3.6283634
3.4698227
3.2225873
2.7652485
2.4105214
3.6549326
4.2010396
25.749738
4.8077813
4.932024
3.1469412
2.021989
1.5152039
1.8213355
1.8065623
2.2822898
2.2190595
3.0733494
2.2345721
3.54986
2.7773826
3.0978057
2.7023085
2.7530742
3.6251014
3.7314934
6.7737846
5.3120243
8.7702953
3.9144504
4.1005095
8.5055812
6.6132175
7.3287489
7.363773
6.375297
6.2103822
5.9945877
6.2318117
8.428545
20.397112
10.149964
7.0245747
7.4686455
6.4821265
4.47392
4.3644586
4.9889204
5.5817762
5.2999421
5.8057216
7.3970004
9.0439209
8.6865746
9.1125306
4260.8896
3467.6962
837.30926
103.68756
6.4137968
1.0568563
0.51614458
0.503664
0.25151633
0.22468915
0.46652115
1.0019995
0.57448821
0.62695109
1.3170656
0.81932085
1.083506
1.9419866
1.0000612
2.4430214
2.8593757
2.6519282
2.7099779
1.8646575
1.6404441
3.3709609
3.6712342
23.84004
4.8229963
10.013353
4.3258393
2.0072323
1.6760655
1.4072635
1.6844205
1.87239
2.375788
4.3293045
2.7441109
2.6116237
2.6399251
3.4871152
2.5466013
2.6387063
3.9790294
4.0500543
7.7834759
5.9760199
6.9903139
3.6605879
3.6361593
6.066473
6.0008554
7.6394319
5.3858424
4.954438
9.2068783
6.392624
6.7049715
11.920542
20.864264
11.236789
6.1251907
7.0189907
6.0398198
2.8189833
3.4203534
5.2389205
5.800593
5.8516841
7.3674724
9.631106
10.067278
8.8193522
8.9465489
8083.8503
1738.1173
147.66616
11.568279
0.91836901
0.48151075
0.43723148
0.54571793
0.30506123
0.21241001
0.48929576
1.0062222
0.58206203
0.87173012
1.4406575
0.86506614
1.0098283
1.0559008
1.0857987
2.2305813
2.1606724
2.4850247
2.7581063
1.7255627
1.3712057
2.9702008
3.0570263
8.0791807
3.7375551
8.1287136
4.2776622
2.0451332
1.8003801
1.5300425
1.9826245
1.8104046
2.4894015
5.174747
2.5405934
2.3886447
3.1761176
2.584624
2.0264541
3.4455182
4.0230844
4.1607361
6.3409632
7.0340702
6.8668398
3.5508805
3.2071283
3.8348289
4.1145828
6.0392929
5.2745052
4.5098997
10.815929
5.3584138
12.39541
14.009777
13.435535
11.001351
5.4085693
6.4789703
5.9195418
2.2770535
2.813836
5.6615445
6.810416
7.4438667
9.7273193
10.965957
10.580456
8.9292004
8.3790657
1658.7827
329.89212
15.522986
1.3924611
0.56297201
0.44489845
0.43908688
0.56040186
0.3940943
0.22050693
0.51139552
1.0417611
0.57662956
1.0093768
1.5962822
0.92160689
0.98055302
0.60983423
1.0846394
2.0523241
1.8316241
2.4095104
2.8946691
1.7361776
1.4159172
2.4316342
2.7479448
2.5523238
3.4960978
3.2274196
3.2387644
2.2220181
1.9318207
1.5914377
2.2147809
1.8611798
2.5114228
6.0213463
2.6782729
2.3635371
4.16887
2.1419813
1.8967452
4.003897
4.6535862
5.7220625
6.3797776
9.5534777
7.0786799
3.4298856
3.0783841
4.099898
3.5977629
5.2830535
4.7304845
4.5121633
7.6973835
7.5865003
18.851532
12.949915
11.876754
10.181287
5.616122
6.3172276
4.6372534
1.7541456
2.3859004
5.4878101
8.7453713
9.9759629
10.542239
11.337986
11.611118
9.3394575
8.6234744
121.94202
31.528409
1.64629
0.65498638
0.56107028
0.45308065
0.4442665
0.57575605
0.53120912
0.24337647
0.52894495
1.1613796
0.57649731
1.0068256
1.8118006
0.96214313
0.94109377
0.49255942
1.0794342
1.8609471
1.812856
2.2567684
3.1602955
1.8334223
1.4960158
1.6668364
2.2180293
2.5315105
3.5090929
1.539674
2.5433615
2.5236418
2.0231117
1.7284681
2.7627262
2.161692
2.6656368
7.4817305
2.491307
2.7405671
2.8414603
1.9168495
1.8710175
6.699264
4.2686308
6.6203735
7.2978609
7.3912272
6.7391584
3.5186801
2.9339336
4.2379464
3.5162619
3.9728112
4.4054001
4.35978
5.8265135
8.706098
13.215451
8.4460115
9.2246097
9.2877709
6.0826001
6.0937817
3.1453426
1.5718229
2.0720594
5.508237
10.528571
11.836881
10.393928
11.495631
12.53968
9.0411248
7.9583629
5.1592116
2.5482916
0.71862944
0.62135496
0.61062711
0.45296245
0.44945906
0.6234009
0.73906851
0.26895121
0.54306127
1.2956304
0.71454811
0.91219653
2.064246
1.0395754
0.91715387
0.4899237
1.0800067
1.8704171
2.1674422
2.0560148
2.8052533
1.889835
1.7618623
1.5320576
2.1927692
3.4253595
3.4999913
2.2022975
3.473832
3.0892525
2.1511619
1.887872
6.3878995
3.046446
2.7377505
11.343349
2.4844615
3.3164991
2.7872416
1.9243907
1.8891412
7.2702977
3.1889189
6.8321477
6.3546867
5.8794074
5.991032
3.5295937
2.7217742
3.4317136
3.3644205
3.7588647
5.6814474
4.3717513
5.7329643
9.5768802
9.2185239
7.0236671
8.9419812
9.8474174
6.3523852
4.2353633
2.4909282
1.5150577
2.0729682
6.2674075
11.670664
12.304691
9.0391478
12.923979
11.941695
7.6789949
7.85119
1.2579515
0.87679992
0.68176814
0.62734656
0.66144849
0.44875243
0.45600341
0.69867919
1.0689107
0.30457368
0.54843471
1.3864644
1.6464784
1.1125375
2.4668833
1.1128861
0.88033746
0.55006416
1.0540564
1.89731
3.3168074
2.0185591
1.9274105
1.6891859
1.9677834
1.6054586
2.397126
3.8891372
3.3168692
2.1497951
3.2785854
3.3543388
2.2279365
2.0600803
6.0229901
3.3080471
2.6487462
17.318793
4.0568302
4.5743484
3.2046031
2.0867872
1.9264542
3.0689372
2.9727368
5.323985
3.8852923
4.5019427
4.9138902
3.5246373
2.8879435
3.3721917
3.8585046
4.805931
8.1158332
5.4500227
6.262648
7.6901797
8.0489588
6.7675116
10.043336
9.6496581
10.068335
3.7332814
2.4466977
1.4633296
2.5257343
8.3035823
12.300074
12.096302
8.2225739
13.791675
10.100802
6.4307647
9.0716316
1.1576634
0.80935452
0.68368163
0.64918974
0.73469648
0.43559067
0.46742959
0.78398469
1.3242224
0.37069727
0.53375597
1.4594877
5.6076904
2.1275733
2.9883055
1.202686
0.82568281
0.64765328
1.0444658
2.0709576
5.0625378
2.0770463
1.7290785
1.3009559
1.9411735
1.8863351
2.1176987
2.7802606
2.7963398
1.696561
4.4530798
4.6211647
2.2319247
1.9438784
3.8539715
3.2381976
2.1032783
15.393627
7.4068648
5.4278451
3.3783075
2.1555759
1.8611948
2.88841
2.970758
4.4781634
3.0667572
4.2868615
4.6283969
3.0190365
3.2787061
4.2843328
4.9334198