/*--------------------------------*- C++ -*----------------------------------*\
| =========                 |                                                 |
| \\      /  F ield         | OpenFOAM: The Open Source CFD Toolbox           |
|  \\    /   O peration     | Version:  2.3.0                                 |
|   \\  /    A nd           | Web:      www.OpenFOAM.org                      |
|    \\/     M anipulation  |                                                 |
\*---------------------------------------------------------------------------*/
FoamFile
{
    version     2.0;
    format      ascii;
    class       volScalarField;
    location    "2.3e-05";
    object      nuSgs;
}
// * * * * * * * * * * * * * * * * * * * * * * * * * * * * * * * * * * * * * //

dimensions      [0 2 -1 0 0 0 0];

internalField   nonuniform List<scalar> 
7500
(
4.1405472e-10
4.1897841e-10
4.2392412e-10
4.2881416e-10
4.336451e-10
4.3845271e-10
4.4323257e-10
4.4799217e-10
4.5275962e-10
4.5744354e-10
4.6211885e-10
4.6675898e-10
4.7132472e-10
4.7588616e-10
4.8039514e-10
4.8484615e-10
4.8921772e-10
4.9361284e-10
4.978866e-10
5.0207943e-10
5.0618449e-10
5.1021979e-10
5.1429711e-10
5.1842577e-10
5.2265717e-10
5.2700334e-10
5.3137508e-10
5.3557816e-10
5.3966663e-10
5.4357303e-10
5.4741716e-10
5.5120561e-10
5.5494742e-10
5.5868803e-10
5.6243708e-10
5.660889e-10
5.6985947e-10
5.7339798e-10
5.7685057e-10
5.8619122e-10
5.8999671e-10
5.9384987e-10
5.9753055e-10
6.0109949e-10
6.046996e-10
6.0848513e-10
6.1221946e-10
6.1567609e-10
6.1919407e-10
6.2292626e-10
6.2628646e-10
6.2957428e-10
6.3291326e-10
6.3626955e-10
6.3989728e-10
6.4327658e-10
6.4676405e-10
6.5038336e-10
6.5409242e-10
6.5774603e-10
6.6164738e-10
6.6553005e-10
6.7051277e-10
6.7461832e-10
6.8021679e-10
6.8455232e-10
6.9048011e-10
6.9505953e-10
7.0155877e-10
7.0644706e-10
7.1360497e-10
7.187585e-10
7.2657232e-10
7.3222049e-10
7.4346746e-10
4.5544971e-10
4.6091177e-10
4.6632338e-10
4.7170937e-10
4.7704965e-10
4.8235772e-10
4.8763348e-10
4.9285335e-10
4.9802563e-10
5.0316251e-10
5.08294e-10
5.1335676e-10
5.184339e-10
5.234318e-10
5.2844352e-10
5.3338069e-10
5.3824533e-10
5.4300121e-10
5.4766692e-10
5.5225621e-10
5.5680634e-10
5.6135026e-10
5.6591273e-10
5.7056608e-10
5.7509453e-10
5.79739e-10
5.8418546e-10
5.8864487e-10
5.9308257e-10
5.9744977e-10
6.0206394e-10
6.0663059e-10
6.1157088e-10
6.1624168e-10
6.2117566e-10
6.2564451e-10
6.3024362e-10
6.3440925e-10
6.3869427e-10
6.4920644e-10
6.537358e-10
6.5824386e-10
6.6280682e-10
6.6772556e-10
6.7266195e-10
6.7848897e-10
6.8383744e-10
6.9026775e-10
6.9604914e-10
7.0260156e-10
7.1025247e-10
7.1700024e-10
7.2582553e-10
7.3356331e-10
7.4476473e-10
7.5428221e-10
7.6761741e-10
7.7870632e-10
7.9377553e-10
8.0691847e-10
8.2447143e-10
8.3903098e-10
8.6061178e-10
8.7695637e-10
9.040101e-10
9.2347299e-10
9.5504651e-10
9.7721484e-10
1.0117497e-09
1.036381e-09
1.0715142e-09
1.0967821e-09
1.1380715e-09
1.1659378e-09
1.2268301e-09
5.0107198e-10
5.0717598e-10
5.133089e-10
5.1936436e-10
5.2547421e-10
5.3149122e-10
5.3760762e-10
5.4359147e-10
5.4969704e-10
5.5563106e-10
5.6170245e-10
5.6754136e-10
5.7350899e-10
5.7925513e-10
5.8514287e-10
5.9077406e-10
5.9650691e-10
6.0197821e-10
6.0744123e-10
6.1268755e-10
6.1781653e-10
6.2289485e-10
6.2794676e-10
6.33027e-10
6.3808476e-10
6.4324115e-10
6.4839905e-10
6.5384098e-10
6.5997218e-10
6.6597986e-10
6.7354233e-10
6.8086094e-10
6.9108941e-10
6.9911535e-10
7.1012804e-10
7.1855405e-10
7.2986617e-10
7.3887051e-10
7.5078347e-10
7.6884197e-10
7.8322682e-10
7.989168e-10
8.1530319e-10
8.3939626e-10
8.6157415e-10
8.9590033e-10
9.2329807e-10
9.6620623e-10
1.0000537e-09
1.0448523e-09
1.1036575e-09
1.1489529e-09
1.21833e-09
1.2718723e-09
1.360868e-09
1.4265001e-09
1.5238007e-09
1.6016901e-09
1.6925428e-09
1.7846325e-09
1.8924714e-09
1.9772464e-09
2.102119e-09
2.1927174e-09
2.3433693e-09
2.4467238e-09
2.6090973e-09
2.7251153e-09
2.8863766e-09
3.0024534e-09
3.159865e-09
3.2733554e-09
3.4493961e-09
3.5689673e-09
3.8184062e-09
5.522529e-10
5.5992386e-10
5.6872426e-10
5.7684609e-10
5.8625926e-10
5.947483e-10
6.0466349e-10
6.1322753e-10
6.2303928e-10
6.3130978e-10
6.4045053e-10
6.4826213e-10
6.5663168e-10
6.6409247e-10
6.7199542e-10
6.791179e-10
6.8641969e-10
6.9310406e-10
6.996056e-10
7.0548727e-10
7.1108634e-10
7.1681947e-10
7.2246011e-10
7.2852233e-10
7.3455948e-10
7.4116913e-10
7.4858284e-10
7.5821447e-10
7.7224542e-10
7.8757083e-10
8.1127901e-10
8.3500021e-10
8.7445948e-10
9.0715952e-10
9.6062395e-10
1.0047148e-09
1.0767355e-09
1.1351053e-09
1.2263078e-09
1.3146148e-09
1.4342034e-09
1.5410703e-09
1.6656748e-09
1.85093e-09
1.9917409e-09
2.2085006e-09
2.3697111e-09
2.6245773e-09
2.8124277e-09
3.0446437e-09
3.3481382e-09
3.5662285e-09
3.8980826e-09
4.1380174e-09
4.5344804e-09
4.8097322e-09
5.2111857e-09
5.5578124e-09
5.869313e-09
6.2510739e-09
6.6680285e-09
6.9731746e-09
7.4182276e-09
7.7461852e-09
8.2876298e-09
8.6501771e-09
9.214505e-09
9.6065209e-09
1.0156553e-08
1.0539702e-08
1.1062755e-08
1.1430997e-08
1.1984709e-08
1.2368089e-08
1.3149057e-08
6.0423114e-10
6.2434818e-10
6.4605438e-10
6.6865552e-10
6.9329767e-10
7.1719587e-10
7.4245723e-10
7.6303848e-10
7.8496149e-10
8.0086812e-10
8.1808827e-10
8.3055883e-10
8.4363913e-10
8.5414107e-10
8.6471258e-10
8.7299176e-10
8.8228409e-10
8.8889973e-10
8.9722911e-10
9.0282067e-10
9.100345e-10
9.1905555e-10
9.2944064e-10
9.4299616e-10
9.6076128e-10
9.8783856e-10
1.0248444e-09
1.0853378e-09
1.1639161e-09
1.2565327e-09
1.4097545e-09
1.5557527e-09
1.7849488e-09
1.9765704e-09
2.2863784e-09
2.5357961e-09
2.9324546e-09
3.2348229e-09
3.7019309e-09
4.0620851e-09
4.627161e-09
5.0543899e-09
5.6765248e-09
6.3434559e-09
6.8826333e-09
7.7275707e-09
8.3305837e-09
9.2623124e-09
9.9398746e-09
1.0708585e-08
1.1778464e-08
1.2507511e-08
1.362246e-08
1.4401982e-08
1.5693608e-08
1.6578128e-08
1.7825876e-08
1.9025108e-08
1.9877576e-08
2.1126629e-08
2.2398989e-08
2.3294858e-08
2.4619588e-08
2.5589099e-08
2.7180485e-08
2.8226829e-08
2.9858714e-08
3.098949e-08
3.256192e-08
3.3612394e-08
3.5095052e-08
3.609281e-08
3.7569228e-08
3.8596786e-08
4.0667972e-08
6.534619e-10
7.4126244e-10
7.9393384e-10
8.8138704e-10
9.3153501e-10
1.0046899e-09
1.0471237e-09
1.0988085e-09
1.1319036e-09
1.1647957e-09
1.1900829e-09
1.209267e-09
1.2256142e-09
1.2371738e-09
1.2506295e-09
1.2588694e-09
1.2722893e-09
1.2815878e-09
1.2971985e-09
1.3162975e-09
1.3448616e-09
1.3882211e-09
1.4558534e-09
1.5660162e-09
1.7108071e-09
1.9532419e-09
2.2028788e-09
2.610778e-09
3.0092913e-09
3.4858023e-09
4.2241061e-09
4.8174581e-09
5.7302793e-09
6.4706904e-09
7.6616176e-09
8.5532295e-09
9.9666328e-09
1.0991755e-08
1.2598765e-08
1.3779292e-08
1.5644632e-08
1.6989232e-08
1.9129711e-08
2.0833737e-08
2.272597e-08
2.5373357e-08
2.7117532e-08
2.972991e-08
3.1874255e-08
3.4014436e-08
3.7110895e-08
3.9130644e-08
4.2269141e-08
4.4420596e-08
4.7955871e-08
5.0448205e-08
5.3615091e-08
5.7120295e-08
5.9348221e-08
6.2662806e-08
6.5848857e-08
6.8188958e-08
7.1710495e-08
7.4172157e-08
7.811525e-08
8.0734367e-08
8.4808459e-08
8.7697526e-08
9.1522271e-08
9.4021185e-08
9.7625974e-08
9.9997424e-08
1.0345726e-07
1.0587201e-07
1.1062359e-07
7.0698047e-10
9.0053068e-10
9.8626735e-10
1.1530286e-09
1.222422e-09
1.3618909e-09
1.4198342e-09
1.5234099e-09
1.5736845e-09
1.6392046e-09
1.6807636e-09
1.7160158e-09
1.7463186e-09
1.7714861e-09
1.7995114e-09
1.8303856e-09
1.87303e-09
1.9326e-09
2.0319624e-09
2.1796908e-09
2.4339539e-09
2.7568007e-09
3.2482462e-09
3.9093255e-09
4.6508094e-09
5.766727e-09
6.7695111e-09
8.3763251e-09
9.6830814e-09
1.1564692e-08
1.3772747e-08
1.560454e-08
1.8543413e-08
2.0782925e-08
2.4379425e-08
2.6927487e-08
3.1047938e-08
3.3915706e-08
3.8501214e-08
4.1693279e-08
4.6796918e-08
5.033879e-08
5.6151284e-08
6.0097821e-08
6.6111002e-08
7.1801117e-08
7.6536148e-08
8.2604302e-08
8.8901436e-08
9.3600231e-08
1.0098722e-07
1.0572609e-07
1.1332657e-07
1.1839942e-07
1.2652767e-07
1.3244131e-07
1.3940445e-07
1.4757256e-07
1.5274152e-07
1.6058665e-07
1.6651129e-07
1.7290131e-07
1.8025134e-07
1.8549536e-07
1.9382151e-07
1.9961516e-07
2.0821255e-07
2.1444593e-07
2.2239583e-07
2.2773789e-07
2.3514457e-07
2.4005232e-07
2.4701228e-07
2.5201911e-07
2.615796e-07
7.1304182e-10
9.1990213e-10
1.0231836e-09
1.2616757e-09
1.3772835e-09
1.6174042e-09
1.7213855e-09
1.8987322e-09
2.0064072e-09
2.096833e-09
2.1665442e-09
2.2227103e-09
2.2921207e-09
2.3690353e-09
2.4857847e-09
2.652934e-09
2.943402e-09
3.3479873e-09
4.0566604e-09
4.8652722e-09
6.2219344e-09
7.5507789e-09
9.731688e-09
1.1666887e-08
1.4598166e-08
1.7719343e-08
2.0937414e-08
2.5735241e-08
2.9391103e-08
3.5205732e-08
4.0093331e-08
4.5688373e-08
5.3578381e-08
5.9203325e-08
6.8164177e-08
7.4478025e-08
8.4910613e-08
9.1758296e-08
1.0283792e-07
1.1023174e-07
1.2224782e-07
1.3028331e-07
1.4349717e-07
1.5226839e-07
1.6679468e-07
1.7622113e-07
1.8983261e-07
2.01346e-07
2.1485048e-07
2.2469789e-07
2.4046193e-07
2.5021247e-07
2.6595693e-07
2.7621869e-07
2.9247219e-07
3.0464549e-07
3.1914075e-07
3.3460037e-07
3.4523421e-07
3.6167621e-07
3.7240585e-07
3.8751226e-07
4.0024701e-07
4.1113882e-07
4.2772673e-07
4.3931204e-07
4.5580179e-07
4.684178e-07
4.8350808e-07
4.9445775e-07
5.0845961e-07
5.1845006e-07
5.3217022e-07
5.4261374e-07
5.6207601e-07
6.9958281e-10
8.4216759e-10
9.7580698e-10
1.1926576e-09
1.502968e-09
1.7140765e-09
2.0851559e-09
2.2514097e-09
2.5498311e-09
2.6667067e-09
2.8722254e-09
3.0180395e-09
3.2551602e-09
3.611316e-09
4.2171762e-09
5.0791461e-09
6.5711347e-09
8.284234e-09
1.1129107e-08
1.3842311e-08
1.8369162e-08
2.2254571e-08
2.8781305e-08
3.3980251e-08
4.2800397e-08
4.9397692e-08
6.0023938e-08
6.961263e-08
7.9553137e-08
9.3515935e-08
1.0427789e-07
1.197298e-07
1.3414e-07
1.4883605e-07
1.6741263e-07
1.8175585e-07
2.0436598e-07
2.1830418e-07
2.413996e-07
2.5669129e-07
2.8172129e-07
2.9778162e-07
3.240764e-07
3.4151261e-07
3.701337e-07
3.8822455e-07
4.1651645e-07
4.3621138e-07
4.6364597e-07
4.828511e-07
5.1319388e-07
5.318424e-07
5.6186023e-07
5.8134856e-07
6.1255219e-07
6.3560149e-07
6.6527172e-07
6.9127823e-07
7.1581806e-07
7.4961128e-07
7.7245023e-07
8.0391424e-07
8.2656023e-07
8.5462709e-07
8.8341809e-07
9.1024644e-07
9.4252319e-07
9.6948359e-07
9.9840558e-07
1.0234184e-06
1.0532516e-06
1.0773834e-06
1.1104634e-06
1.1363627e-06
1.1829435e-06
8.4709699e-10
1.3534393e-09
1.5332338e-09
1.8624079e-09
2.0607141e-09
2.2106474e-09
2.485238e-09
2.6346642e-09
2.932451e-09
3.2277544e-09
3.7635946e-09
4.4909907e-09
5.6376258e-09
7.347361e-09
9.9305894e-09
1.3029818e-08
1.8253599e-08
2.3298221e-08
3.1648951e-08
3.8816858e-08
5.1034912e-08
6.0605067e-08
7.703892e-08
8.912689e-08
1.1007168e-07
1.2464833e-07
1.4980892e-07
1.6680282e-07
1.9543619e-07
2.1568495e-07
2.453754e-07
2.7030397e-07
3.0370791e-07
3.313519e-07
3.6662379e-07
3.9587476e-07
4.3796313e-07
4.6491607e-07
5.0985851e-07
5.38935e-07
5.8593003e-07
6.1628522e-07
6.656866e-07
6.987964e-07
7.5177259e-07
7.8657131e-07
8.4058567e-07
8.7737259e-07
9.325865e-07
9.7000277e-07
1.0271696e-06
1.0642749e-06
1.1241754e-06
1.163364e-06
1.2280019e-06
1.2782625e-06
1.3425841e-06
1.3937e-06
1.4679372e-06
1.5356865e-06
1.5999996e-06
1.6659809e-06
1.7160873e-06
1.7827086e-06
1.8339911e-06
1.9077524e-06
1.9646968e-06
2.0435149e-06
2.1079817e-06
2.1939149e-06
2.2811821e-06
2.3531891e-06
2.4543681e-06
2.5261777e-06
2.6400087e-06
8.3235775e-10
1.4353228e-09
1.6763828e-09
2.2057275e-09
2.3755476e-09
2.7029389e-09
2.8907026e-09
3.1936464e-09
3.7288626e-09
4.7179221e-09
6.3765558e-09
9.0347159e-09
1.2850452e-08
1.8561666e-08
2.6034608e-08
3.4813892e-08
4.9455352e-08
6.1789323e-08
8.248923e-08
9.9048874e-08
1.2759446e-07
1.4819654e-07
1.8393982e-07
2.0865476e-07
2.5186541e-07
2.8045127e-07
3.3013048e-07
3.6244561e-07
4.1783872e-07
4.5376356e-07
5.1527895e-07
5.5505002e-07
6.2244988e-07
6.6691054e-07
7.3978529e-07
7.8897946e-07
8.6786724e-07
9.207237e-07
1.0050671e-06
1.0610217e-06
1.1507217e-06
1.2104293e-06
1.3031668e-06
1.3690161e-06
1.4748011e-06
1.5490262e-06
1.661611e-06
1.7400762e-06
1.8565731e-06
1.9372241e-06
2.0575849e-06
2.1382722e-06
2.2781626e-06
2.3713271e-06
2.559743e-06
2.7043137e-06
2.8494407e-06
2.9900212e-06
3.2390669e-06
3.3919503e-06
3.5548079e-06
3.6645995e-06
3.783122e-06
3.9480047e-06
4.0720094e-06
4.2680372e-06
4.439055e-06
4.8119709e-06
5.0027726e-06
5.3993822e-06
5.6185209e-06
5.797777e-06
6.1358799e-06
6.27274e-06
6.4716463e-06
7.095107e-10
7.8296822e-10
8.9146061e-10
1.0778124e-09
1.3905791e-09
1.9206722e-09
2.8570404e-09
4.4306803e-09
6.8932709e-09
1.0605437e-08
1.5878436e-08
2.378731e-08
3.4011748e-08
5.0146573e-08
6.6699282e-08
8.864078e-08
1.2242118e-07
1.4811417e-07
1.928184e-07
2.2691821e-07
2.8503582e-07
3.2455326e-07
3.9304069e-07
4.3887809e-07
5.1864441e-07
5.7041961e-07
6.605447e-07
7.1880268e-07
8.1843737e-07
8.8390462e-07
9.9718065e-07
1.0717666e-06
1.2013413e-06
1.2854889e-06
1.4237343e-06
1.5227619e-06
1.6764114e-06
1.785118e-06
1.9593246e-06
2.0767208e-06
2.265324e-06
2.3879434e-06
2.5744928e-06
2.7340663e-06
3.014351e-06
3.1837964e-06
3.452119e-06
3.6244302e-06
3.908622e-06
4.088796e-06
4.4230723e-06
4.5811289e-06
5.1320087e-06
5.3096966e-06
6.1701333e-06
6.4706415e-06
6.6743112e-06
7.1336461e-06
8.0976465e-06
8.1487354e-06
8.3665542e-06
8.6004212e-06
8.9631543e-06
9.5457789e-06
9.7691306e-06
1.0365987e-05
1.1111063e-05
1.1416001e-05
1.1427435e-05
1.2217791e-05
1.1976148e-05
1.2329038e-05
1.3043185e-05
1.3058869e-05
1.2984262e-05
7.1638849e-10
7.5574226e-10
8.3988827e-10
1.1110878e-09
1.8683289e-09
3.4489514e-09
6.2008303e-09
1.0612971e-08
1.7193976e-08
2.7035339e-08
4.0587972e-08
6.2075007e-08
8.5590196e-08
1.2410495e-07
1.5831338e-07
2.1207459e-07
2.7097294e-07
3.2193388e-07
4.1114318e-07
4.7340596e-07
5.7699246e-07
6.4715246e-07
7.6731704e-07
8.4827479e-07
9.8678796e-07
1.0809319e-06
1.2447573e-06
1.3537128e-06
1.5377127e-06
1.6676161e-06
1.9005213e-06
2.0514723e-06
2.3291567e-06
2.4928574e-06
2.7766056e-06
3.028224e-06
3.3375983e-06
3.5971744e-06
4.0379208e-06
4.2667901e-06
4.7644921e-06
4.9724148e-06
5.5029221e-06
6.0241575e-06
6.9388379e-06
7.1004562e-06
7.7577669e-06
8.1422707e-06
8.9534206e-06
9.3408881e-06
1.0352961e-05
1.0412517e-05
1.1926935e-05
1.1346943e-05
1.3269988e-05
1.3330656e-05
1.2995253e-05
1.602404e-05
1.5722084e-05
1.3984498e-05
1.3651178e-05
1.4268392e-05
1.4761967e-05
1.389453e-05
1.4916466e-05
1.5512743e-05
1.4457775e-05
1.2480347e-05
1.2905535e-05
1.141093e-05
1.0998928e-05
1.2774354e-05
1.1166968e-05
1.0579542e-05
9.3377669e-06
7.5699112e-10
9.0413525e-10
1.2620265e-09
2.394528e-09
4.8363618e-09
9.2623381e-09
1.6479733e-08
2.7540643e-08
4.3539396e-08
6.7670063e-08
9.8892417e-08
1.4938561e-07
1.9690796e-07
2.7570876e-07
3.4046889e-07
4.5068461e-07
5.3909556e-07
6.4866595e-07
8.0097362e-07
9.0736109e-07
1.0804563e-06
1.2105977e-06
1.4186062e-06
1.5681477e-06
1.8243564e-06
2.0133264e-06
2.3444586e-06
2.5596409e-06
2.9459962e-06
3.2389519e-06
3.8198735e-06
4.0972327e-06
4.7990182e-06
5.0614171e-06
5.8772846e-06
6.5997273e-06
7.112161e-06
8.0137036e-06
9.0458808e-06
9.3503607e-06
1.0827764e-05
1.0790549e-05
1.23175e-05
1.2509562e-05
1.3312583e-05
1.3098468e-05
1.4110206e-05
1.3979497e-05
1.4694958e-05
1.4690141e-05
1.3688576e-05
1.4155693e-05
1.3724979e-05
1.2671689e-05
1.293733e-05
1.1377133e-05
1.1352012e-05
1.2835951e-05
7.9131665e-06
8.7105695e-06
8.3020749e-06
9.3040011e-06
7.7466393e-06
6.7755079e-06
9.5571646e-06
6.559277e-06
5.2803713e-06
3.9328269e-06
4.1995462e-06
3.3237363e-06
3.6766564e-06
4.4288784e-06
3.1806796e-06
2.7657246e-06
2.5578593e-06
6.9938035e-10
1.0441846e-09
2.4593926e-09
5.9445636e-09
1.2516154e-08
2.358278e-08
4.0912706e-08
6.6585753e-08
1.0238641e-07
1.5987689e-07
2.2194465e-07
3.2481281e-07
4.1206751e-07
5.5433533e-07
6.7231618e-07
8.6884368e-07
1.0096083e-06
1.2361067e-06
1.4474365e-06
1.6641693e-06
1.963691e-06
2.2456926e-06
2.587185e-06
2.9224525e-06
3.4950332e-06
3.9024039e-06
4.6642729e-06
5.0667402e-06
6.1592849e-06
6.836863e-06
8.2763079e-06
8.670718e-06
1.0578419e-05
1.069214e-05
1.2297115e-05
1.264389e-05
1.3159379e-05
1.4621709e-05
1.3857778e-05
1.4567348e-05
1.4365228e-05
1.3124974e-05
1.4422422e-05
1.2195032e-05
1.0423656e-05
9.7373538e-06
9.5783738e-06
8.7512415e-06
9.4085518e-06
7.2809342e-06
5.7973578e-06
6.8613597e-06
4.3469829e-06
6.2322929e-06
4.6179351e-06
3.9941914e-06
6.0544835e-06
5.4034669e-06
2.178046e-06
2.3357767e-06
3.4902686e-06
3.4282833e-06
2.3890615e-06
2.8016305e-06
4.5933847e-06
2.0000376e-06
1.7835711e-06
1.6951688e-06
1.5749938e-06
1.5314228e-06
2.0929176e-06
2.2599183e-06
1.7538129e-06
1.5206997e-06
1.4788261e-06
6.816363e-10
1.9202016e-09
6.1273608e-09
1.4909762e-08
3.0740907e-08
5.6055091e-08
9.4334443e-08
1.4946375e-07
2.2289297e-07
3.4268141e-07
4.5505497e-07
6.4126625e-07
7.9219829e-07
1.0295429e-06
1.2593396e-06
1.573327e-06
1.8305131e-06
2.2667203e-06
2.5858688e-06
3.0826596e-06
3.6948105e-06
4.2586487e-06
4.9563544e-06
5.9274984e-06
7.3077451e-06
8.2719078e-06
9.8519251e-06
1.0710973e-05
1.2094254e-05
1.3216814e-05
1.3592879e-05
1.4210167e-05
1.4884203e-05
1.3488041e-05
1.3645473e-05
1.2120112e-05
1.1655663e-05
1.0011918e-05
7.2432288e-06
8.6789776e-06
5.5613011e-06
6.54718e-06
5.8076574e-06
3.4194322e-06
2.9585908e-06
3.1248813e-06
2.9725056e-06
2.7219652e-06
2.861054e-06
2.0868296e-06
1.9527117e-06
2.1234795e-06
1.6974241e-06
2.7673648e-06
2.2947997e-06
3.373311e-06
4.3112801e-06
3.2451028e-06
1.5410304e-06
1.3761468e-06
2.330625e-06
2.2161235e-06
1.9190414e-06
2.2777362e-06
2.903981e-06
1.5636e-06
1.4140369e-06
1.4290276e-06
1.3580592e-06
1.2501149e-06
1.5851713e-06
1.6230449e-06
1.4781803e-06
1.378633e-06
1.4155921e-06
6.7623487e-10
4.8656542e-09
1.540394e-08
3.5910167e-08
7.0978499e-08
1.2448331e-07
2.0262742e-07
3.1319911e-07
4.5037309e-07
6.7068356e-07
8.6280081e-07
1.1749292e-06
1.4386694e-06
1.8576657e-06
2.317662e-06
2.7774299e-06
3.3643345e-06
4.2080518e-06
4.864665e-06
6.1684359e-06
7.4401759e-06
8.7353431e-06
1.0368197e-05
1.2028515e-05
1.2726409e-05
1.4045172e-05
1.390883e-05
1.4299402e-05
1.3025534e-05
1.2920426e-05
1.0332908e-05
1.0903839e-05
5.7636066e-06
7.7719931e-06
5.056024e-06
5.1646604e-06
5.4443107e-06
2.904546e-06
2.3273677e-06
2.5668e-06
1.7503815e-06
2.8946617e-06
1.7839282e-06
1.4635814e-06
1.3602604e-06
1.5855377e-06
1.5266695e-06
1.4313353e-06
1.2548153e-06
1.6914865e-06
1.5094257e-06
1.4682761e-06
1.235685e-06
1.6823207e-06
1.8533983e-06
3.5454483e-06
3.7939921e-06
2.6610639e-06
1.4154617e-06
1.3426429e-06
1.8918148e-06
1.9268402e-06
1.2924852e-06
1.8413661e-06
2.0881111e-06
1.4972467e-06
1.4432857e-06
1.4233144e-06
1.4034978e-06
1.2921803e-06
1.4098112e-06
1.421813e-06
1.4037509e-06
1.379181e-06
1.4118191e-06
7.1211023e-10
1.2139221e-08
3.6556159e-08
8.1163289e-08
1.5301073e-07
2.5761327e-07
4.0617099e-07
6.0435092e-07
8.5332199e-07
1.220193e-06
1.5507331e-06
2.0751279e-06
2.5750413e-06
3.4429312e-06
4.2082779e-06
5.1573022e-06
6.7262247e-06
8.2949628e-06
9.7077034e-06
1.1768235e-05
1.237593e-05
1.3479789e-05
1.354645e-05
1.3150227e-05
1.1629126e-05
9.9300911e-06
7.2320443e-06
8.3028111e-06
5.4972532e-06
5.0531404e-06
3.5680167e-06
3.7635998e-06
2.1626955e-06
3.1965973e-06
1.9943551e-06
2.5078458e-06
2.4325295e-06
1.386291e-06
1.8610584e-06
1.4739292e-06
1.2962043e-06
1.838333e-06
1.1616727e-06
1.6982696e-06
1.2806645e-06
1.2023298e-06
1.1610202e-06
1.0816815e-06
2.4645336e-06
1.8798806e-06
1.982615e-06
1.7390569e-06
1.3896846e-06
1.4006926e-06
2.3111027e-06
2.8324671e-06
3.4996215e-06
2.2002011e-06
1.3785898e-06
1.4194735e-06
1.6514928e-06
1.5864722e-06
1.2928285e-06
1.6268438e-06
1.7652586e-06
1.5038096e-06
1.4935746e-06
1.443137e-06
1.3987659e-06
1.3571854e-06
1.3057303e-06
1.4203854e-06
1.4943154e-06
1.4395401e-06
1.4563982e-06
1.3303126e-09
2.8518029e-08
8.1312813e-08
1.7150718e-07
3.0796231e-07
4.9827092e-07
7.6627996e-07
1.0900201e-06
1.559767e-06
2.1178542e-06
2.7469226e-06
3.710781e-06
4.768601e-06
6.6598633e-06
8.1348151e-06
1.052276e-05
1.1610433e-05
1.2827026e-05
1.2916187e-05
1.2504898e-05
1.0648081e-05
9.8107389e-06
6.8400762e-06
5.5940426e-06
4.1148043e-06
3.2305254e-06
2.3275103e-06
3.1807582e-06
1.6525046e-06
1.8625433e-06
1.2134464e-06
1.142422e-06
7.8850805e-07
1.1559891e-06
8.8202312e-07
1.5315453e-06
1.7148383e-06
1.3786796e-06
2.8743018e-06
1.6995111e-06
1.380654e-06
1.3822849e-06
1.206592e-06
1.9223241e-06
1.520701e-06
1.1322015e-06
1.0993693e-06
1.133193e-06
1.5905938e-06
1.8877976e-06
1.8027158e-06
1.8445999e-06
1.5185193e-06
1.4500607e-06
2.500295e-06
3.1874641e-06
3.0301611e-06
1.934348e-06
1.3906251e-06
1.4769094e-06
1.7183146e-06
1.403312e-06
1.4315401e-06
1.8431984e-06
1.7404667e-06
1.6679541e-06
1.5679436e-06
1.4680581e-06
1.4643934e-06
1.4701052e-06
1.3892591e-06
1.5601539e-06
1.6562201e-06
1.6228585e-06
1.5717964e-06
4.6907649e-09
6.4423354e-08
1.7066445e-07
3.3946523e-07
5.8042343e-07
9.0619815e-07
1.3430612e-06
1.9284503e-06
2.7570743e-06
3.7054524e-06
5.0434549e-06
7.1314215e-06
9.5105459e-06
1.1374182e-05
1.2693875e-05
1.2943131e-05
1.141775e-05
9.3523675e-06
7.3548929e-06
5.6099944e-06
4.467473e-06
4.3357161e-06
2.1398422e-06
1.8980355e-06
1.2626021e-06
1.500701e-06
1.1201093e-06
1.1340608e-06
8.0284165e-07
1.0920914e-06
5.2340831e-07
5.6240643e-07
6.0792038e-07
9.1085814e-07
7.6803417e-07
1.3613221e-06
9.5427115e-07
1.4464417e-06
3.1288579e-06
1.8912393e-06
1.467358e-06
1.2429746e-06
1.4776525e-06
1.7641523e-06
1.706043e-06
1.3613881e-06
1.1552209e-06
1.0566228e-06
1.4638345e-06
2.0246791e-06
1.7593259e-06
1.7060787e-06
1.4250139e-06
1.5011546e-06
2.4293648e-06
2.6288953e-06
2.4646613e-06
1.4532476e-06
1.4127429e-06
1.6792804e-06
1.7714181e-06
1.3842255e-06
1.6553981e-06
1.6007218e-06
1.5149339e-06
1.7926587e-06
1.6126807e-06
1.5240156e-06
1.5784745e-06
1.5479666e-06
1.5783909e-06
1.6435926e-06
1.7104506e-06
1.7109457e-06
1.6535704e-06
1.6810012e-08
1.383192e-07
3.3787042e-07
6.3083293e-07
1.0322549e-06
1.5716513e-06
2.3160105e-06
3.4323151e-06
4.9080513e-06
6.9811315e-06
9.9988588e-06
1.1648955e-05
1.2438343e-05
1.1523074e-05
9.6310159e-06
6.2070488e-06
4.401365e-06
3.5693805e-06
2.6188813e-06
2.3309128e-06
2.3890553e-06
1.8113304e-06
1.008953e-06
7.2870263e-07
6.4933975e-07
1.1488088e-06
8.030427e-07
6.6497047e-07
7.1203039e-07
1.2390758e-06
4.681653e-07
4.8450949e-07
5.7311498e-07
1.0328718e-06
8.5226757e-07
1.1952135e-06
1.1310791e-06
1.5702153e-06
2.267036e-06
1.7542375e-06
1.3654309e-06
1.159381e-06
1.2021999e-06
1.5481561e-06
1.8739218e-06
1.4344699e-06
1.1155953e-06
1.1554029e-06
2.5514089e-06
2.1326062e-06
1.8838498e-06
1.6583556e-06
1.5631826e-06
1.4505756e-06
2.2140788e-06
1.889663e-06
1.4132289e-06
1.3708183e-06
1.4599001e-06
1.7682229e-06
1.7022859e-06
1.6238377e-06
1.9926576e-06
1.514946e-06
1.4674729e-06
1.7717461e-06
1.5879767e-06
1.5560584e-06
1.6486923e-06
1.7167801e-06
1.6162913e-06
1.6549653e-06
1.7723521e-06
1.8001696e-06
1.7373062e-06
4.6696422e-08
2.8060691e-07
6.2933141e-07
1.1063598e-06
1.7579565e-06
2.6726487e-06
4.0417072e-06
6.3384454e-06
9.4770944e-06
1.1027032e-05
1.2129705e-05
1.0990689e-05
7.0878353e-06
4.9914327e-06
3.6030865e-06
1.8661853e-06
1.5585457e-06
1.6390787e-06
9.5507484e-07
9.7031729e-07
1.2525724e-06
7.9143373e-07
6.9678165e-07
5.9151368e-07
7.4158965e-07
8.0860162e-07
6.8321614e-07
5.5225612e-07
7.1699617e-07
1.0352591e-06
5.7278475e-07
4.7564992e-07
6.141802e-07
7.8521104e-07
8.3938561e-07
1.0431611e-06
9.9723745e-07
1.3564059e-06
3.3592076e-06
1.6848254e-06
1.3965809e-06
1.1180707e-06
1.0781393e-06
1.5766176e-06
1.8586808e-06
1.4864239e-06
1.1424203e-06
1.0664688e-06
2.1529301e-06
1.5495524e-06
2.2094572e-06
1.7807909e-06
1.6775939e-06
1.4075714e-06
1.7134802e-06
1.6566259e-06
1.5278887e-06
1.35159e-06
1.4637959e-06
1.7993982e-06
3.3626683e-06
2.0665354e-06
2.5391157e-06
1.5190076e-06
1.8545663e-06
1.5659152e-06
1.5332817e-06
1.5792013e-06
2.0865264e-06
2.1158724e-06
1.8099799e-06
1.8720512e-06
1.8933868e-06
1.8907328e-06
1.785613e-06
1.1497557e-07
5.3825303e-07
1.1081214e-06
1.854666e-06
2.9357812e-06
4.5982723e-06
7.498873e-06
1.0350336e-05
1.191339e-05
1.0481795e-05
7.0547445e-06
4.7913714e-06
2.4222483e-06
2.0996002e-06
1.1932621e-06
5.1589919e-07
6.4437856e-07
8.6759288e-07
6.4149417e-07
6.2930282e-07
8.4615763e-07
1.0288714e-06
5.4899629e-07
5.8392459e-07
5.5186964e-07
6.3306398e-07
6.1892871e-07
5.2967716e-07
7.833016e-07
8.8805157e-07
7.1408216e-07
4.8036968e-07
7.1456962e-07
5.9858296e-07
6.7688066e-07
9.8846717e-07
8.7050918e-07
1.6585232e-06
2.5600127e-06
1.6100539e-06
1.1686863e-06
1.0300372e-06
1.0772512e-06
1.7469913e-06
1.9128581e-06
1.6892816e-06
1.3309374e-06
1.1201228e-06
1.8006202e-06
1.3886596e-06
1.7775283e-06
1.7432028e-06
1.6253027e-06
1.3688347e-06
1.4035332e-06
1.5618932e-06
1.4169919e-06
1.3963794e-06
1.4433201e-06
2.4100955e-06
3.1142909e-06
2.3828504e-06
1.7306175e-06
2.0671093e-06
2.0213442e-06
1.5013322e-06
1.5405183e-06
1.6725011e-06
2.1546263e-06
2.2506188e-06
2.0654325e-06
2.085309e-06
1.9805693e-06
1.9211601e-06
1.8048998e-06
2.6062491e-07
9.7842428e-07
1.863211e-06
3.0262526e-06
4.9740995e-06
8.421621e-06
1.0352041e-05
1.0290304e-05
7.4646627e-06
4.9199689e-06
3.0253159e-06
1.5290754e-06
6.8178812e-07
9.0095097e-07
5.0590648e-07
2.7818013e-07
4.0237219e-07
4.1966983e-07
4.2684328e-07
5.6120149e-07
7.7433378e-07
1.30258e-06
4.8731926e-07
4.8353928e-07
5.619494e-07
7.8334315e-07
5.6192419e-07
5.475521e-07
8.1501293e-07
8.1571509e-07
7.7212094e-07
5.0212296e-07
8.1496466e-07
6.1365312e-07
6.3290653e-07
8.7881215e-07
6.6345593e-07
7.8412041e-07
1.6017813e-06
1.3183344e-06
1.073757e-06
1.0600247e-06
1.0865825e-06
1.7801025e-06
1.993492e-06
1.728748e-06
1.5151238e-06
1.1495378e-06
1.2995936e-06
1.2044582e-06
1.2278577e-06
1.8546639e-06
1.6295958e-06
1.2962365e-06
1.4329069e-06
1.6603602e-06
1.488284e-06
1.5566383e-06
1.5876939e-06
2.5821369e-06
2.1348086e-06
2.1775277e-06
1.9948582e-06
2.4492968e-06
1.8008818e-06
1.5114533e-06
1.5705251e-06
1.8033209e-06
1.8253067e-06
2.0402708e-06
2.2974901e-06
2.1830807e-06
1.9547391e-06
1.8980428e-06
1.8836623e-06
5.5248631e-07
1.696896e-06
3.0291571e-06
4.9512436e-06
8.9013239e-06
1.0482616e-05
8.6146265e-06
5.1693973e-06
3.2749122e-06
1.8119298e-06
9.9281413e-07
4.3598452e-07
2.5539993e-07
5.0729201e-07
3.0493609e-07
2.5428231e-07
3.4860204e-07
3.0737708e-07
4.4256603e-07
5.5156531e-07
7.9189509e-07
1.3661187e-06
6.0859369e-07
5.3916594e-07
6.6739698e-07
1.0619955e-06
5.6107281e-07
6.6496596e-07
8.3500177e-07
7.6658074e-07
7.6468288e-07
5.2179324e-07
7.1316583e-07
6.014811e-07
6.1620887e-07
7.7866002e-07
6.5262037e-07
7.1972255e-07
1.0686471e-06
1.3267419e-06
1.0382719e-06
1.1615426e-06
1.0774649e-06
1.2830911e-06
1.2792577e-06
1.4188986e-06
1.4645042e-06
1.2097031e-06
1.1486953e-06
1.2671013e-06
1.2791006e-06
1.9076785e-06
1.6279328e-06
1.3410293e-06
1.8899283e-06
1.7258012e-06
1.5130436e-06
1.831015e-06
1.7159817e-06
1.9992879e-06
2.0333362e-06
2.0887923e-06
1.9984678e-06
1.835863e-06
1.7895773e-06
1.6005228e-06
1.6230865e-06
1.8944025e-06
1.9269758e-06
1.9611633e-06
2.174776e-06
2.0261299e-06
1.9131972e-06
1.9219559e-06
1.9616296e-06
1.1086084e-06
2.8247558e-06
4.8682053e-06
8.4677486e-06
1.0241378e-05
7.4986731e-06
4.7735893e-06
2.3353051e-06
1.171029e-06
6.4353127e-07
3.2293791e-07
2.2574354e-07
2.0041853e-07
3.5050519e-07
2.8181372e-07
2.567616e-07
3.3674776e-07
2.9132246e-07
3.3949148e-07
5.5495452e-07
7.6628157e-07
9.8147459e-07
7.1965955e-07
6.8986114e-07
8.8046779e-07
1.1220576e-06
6.6740369e-07
7.0419516e-07
8.4193306e-07
6.8329288e-07
6.5809827e-07
5.5670842e-07
5.1730441e-07
5.4337267e-07
6.0699689e-07
7.2101385e-07
6.5650657e-07
6.3055302e-07
1.1956185e-06
1.4991147e-06
1.0544106e-06
1.1374697e-06
1.0550788e-06
1.045523e-06
1.2230664e-06
1.096165e-06
1.395187e-06
1.3073218e-06
1.2062896e-06
1.4042463e-06
1.5067e-06
1.5208041e-06
1.5530378e-06
1.3572979e-06
1.8335287e-06
1.7181693e-06
1.4228639e-06
2.1022986e-06
1.8055939e-06
3.3230267e-06
2.5160785e-06
2.0998542e-06
1.7649145e-06
2.056004e-06
1.7027538e-06
1.6465318e-06
1.6486752e-06
1.8566532e-06
2.0436662e-06
1.9596906e-06
1.868579e-06
1.8798008e-06
1.9007033e-06
1.942027e-06
2.0319348e-06
2.1311301e-06
4.5529789e-06
8.0158272e-06
9.5842511e-06
6.9243894e-06
3.912278e-06
2.1687606e-06
7.9933175e-07
3.8001836e-07
3.277692e-07
1.8505858e-07
2.1742325e-07
1.972095e-07
2.5737784e-07
2.8318241e-07
2.5407677e-07
3.3569338e-07
2.9950816e-07
3.1999519e-07
5.5187747e-07
7.3458769e-07
8.507716e-07
7.4979472e-07
7.0300683e-07
1.0038121e-06
9.5619202e-07
6.782656e-07
7.1823922e-07
8.4271035e-07
6.5809117e-07
6.3888148e-07
6.0197872e-07
5.0514472e-07
5.3600462e-07
6.1953676e-07
7.2705622e-07
6.6242035e-07
6.5689087e-07
1.1552125e-06
1.0592273e-06
9.0682669e-07
1.2437654e-06
1.1179181e-06
1.0387673e-06
9.8380533e-07
1.0537288e-06
1.2903562e-06
1.3138384e-06
1.4385081e-06
1.4462672e-06
1.5451922e-06
1.4189731e-06
1.4255341e-06
1.4314537e-06
1.6950103e-06
1.5702902e-06
1.4685928e-06
2.0888891e-06
1.7626924e-06
3.6276407e-06
2.5834885e-06
1.9841049e-06
1.7135992e-06
1.8310357e-06
1.7137761e-06
1.6481582e-06
1.6519612e-06
1.8216448e-06
1.9300444e-06
1.7335805e-06
1.7549265e-06
1.8742295e-06
1.9304018e-06
2.0292645e-06
2.1404877e-06
3.8150996e-06
7.3253542e-06
9.9636607e-06
7.3867617e-06
3.9011175e-06
1.61399e-06
7.7448777e-07
2.7158301e-07
1.5978577e-07
2.0080989e-07
1.7167118e-07
2.3454781e-07
1.9827682e-07
2.0940577e-07
3.021564e-07
2.6089029e-07
3.3259808e-07
3.8254932e-07
3.1408221e-07
5.3949619e-07
7.004335e-07
8.5823809e-07
7.617405e-07
6.7810089e-07
8.2145802e-07
7.7744164e-07
7.1953057e-07
1.2705021e-06
8.5552028e-07
6.6545438e-07
6.5290066e-07
6.1224651e-07
5.1292369e-07
5.8623055e-07
6.2046421e-07
7.2298409e-07
6.7707894e-07
7.2961016e-07
9.0426669e-07
8.9941287e-07
8.1094389e-07
9.125842e-07
9.4020317e-07
8.9431305e-07
9.5043696e-07
1.0378056e-06
1.2759033e-06
1.2988062e-06
1.7115511e-06
1.2229582e-06
1.3088863e-06
1.676986e-06
1.3663924e-06
1.4149965e-06
2.0737349e-06
1.6399441e-06
1.4982589e-06
1.580641e-06
1.6654571e-06
2.0693331e-06
2.2323288e-06
1.9977339e-06
1.7605624e-06
1.8773192e-06
1.7881381e-06
1.6017478e-06
1.6285745e-06
1.6280604e-06
1.729257e-06
1.6859786e-06
1.7607061e-06
1.9192065e-06