/*--------------------------------*- C++ -*----------------------------------*\
| =========                 |                                                 |
| \\      /  F ield         | OpenFOAM: The Open Source CFD Toolbox           |
|  \\    /   O peration     | Version:  2.3.0                                 |
|   \\  /    A nd           | Web:      www.OpenFOAM.org                      |
|    \\/     M anipulation  |                                                 |
\*---------------------------------------------------------------------------*/
FoamFile
{
    version     2.0;
    format      ascii;
    class       volScalarField;
    location    "2.3e-05";
    object      p;
}
// * * * * * * * * * * * * * * * * * * * * * * * * * * * * * * * * * * * * * //

dimensions      [1 -1 -2 0 0 0 0];

internalField   nonuniform List<scalar> 
7500
(
-18157.698
-18144.403
2505.624
2483.0111
5411.266
-2891.7824
4430.8236
2544.6663
4897.5811
-2675.231
4435.5331
160.0978
8252.6249
-868.32121
3539.3291
861.4981
-376.62145
7215.1831
-6677.6799
10642.435
-7474.7165
11309.804
-5724.1424
7863.4266
1346.204
1150.0463
4999.1993
-1562.3657
9525.8582
-2387.014
9201.1741
-2016.4771
10945.542
1334.5088
6606.0968
5906.0429
3540.3472
9066.4612
5898.2584
4746.8512
8936.406
6304.2016
3365.9249
10685.948
-618.49003
10975.381
-3859.2791
6974.7486
-49.953528
-4728.6892
20878.746
-1073.0569
13510.053
5901.2284
7635.5109
28839.085
17451.764
27337.925
20019.563
20045.767
21347.413
29621.965
41758.471
15812.653
31965.616
43295.948
38411.282
55453.513
45821.759
38068.054
23817.681
8384.8173
16821.682
20500.301
9232.0061
-18245.358
-17620.477
2159.8216
2254.3591
5275.1744
-2335.4909
4043.9141
2732.531
4850.12
-2556.081
4319.3353
200.08807
8070.3494
-745.47008
3528.2202
959.77003
-506.12057
7058.0166
-6262.0338
10104.857
-6725.9175
10312.969
-4670.6081
6874.3858
2053.6068
862.20791
4881.1203
-1105.7911
8864.6015
-1758.9865
8599.8733
-1193.1371
10046.449
1953.9811
6128.1973
6270.0012
3522.5995
9070.5613
5552.4149
5045.9822
9077.9729
5507.7939
4750.1842
9129.5317
744.3923
10945.402
-4966.7863
6733.8152
838.20457
-3903.986
18779.49
-45.83823
13284.798
5970.4133
8696.6862
27095.254
18401.575
28181.334
17731.322
20851.479
24081.394
27617.222
39736.318
18045.411
32707.46
42272.527
37895.782
56302.519
46765.684
36181.466
23858.149
10022.881
16534.469
20288.057
9165.017
-18584.404
-16602.625
1326.1106
2430.6628
4837.5985
-1919.4084
4138.8096
2677.1477
4649.4801
-2077.3154
3945.1389
499.61194
7703.7464
-590.79475
3594.4232
549.75658
241.91224
6010.3721
-5050.294
8765.1669
-5155.8074
8505.7373
-3156.2852
5995.1253
2328.361
1125.5781
4032.7779
121.54771
7244.4569
-119.44925
7028.8211
285.97958
9102.9
2278.1506
6039.5624
6136.2662
3823.7576
9134.1413
5297.1146
4732.8609
10002.164
4069.0284
6403.01
7644.4141
2137.5574
10814.971
-5668.5531
6217.5988
913.14958
-1757.1361
15795.807
1216.6028
13419.47
5449.0183
10358.712
25076.32
19279.585
29175.202
15009.249
21526.421
27958.012
25322.298
35247.208
21937.149
34527.438
40654.848
37857.534
55645.405
48468.208
34943.906
22782.141
11893.567
16525.635
20239.622
9204.5267
-19460.709
-15171.724
636.67114
2426.2319
4576.3814
-1542.2857
4004.4796
2835.0459
4361.4102
-1658.9043
3676.6864
798.02406
7316.2665
-411.20291
3535.3326
391.88373
613.72256
5149.0785
-3539.4443
6715.7938
-2641.1047
5782.7754
-1001.9504
4850.7738
2545.6379
1745.9665
2762.0186
1750.3606
5154.9092
1872.6302
5270.5899
2043.5778
7764.7641
2872.3605
6054.2872
5753.3389
4205.973
9024.7572
5377.191
4413.929
10620.043
2666.3596
8300.3488
5865.702
3717.8171
10774.24
-6337.7169
5433.2425
907.99609
719.08048
13144.74
1905.0088
12967.648
5650.0089
11972.6
23392.695
19842.609
29124.172
13269.225
22051.433
31911.948
24172.86
29264.186
25578.187
36991.842
39365.651
38744.242
54442.387
49184.607
33268.959
21966.133
14637.636
16859.734
19917.603
9135.2367
-20458.394
-13741.362
298.9408
2288.2812
4242.6919
-1126.4901
3772.0391
2941.443
4133.3486
-1198.7203
3379.0816
1218.3574
6618.0943
249.65565
2931.3654
784.76346
628.51291
4183.2187
-1654.798
4343.2725
75.143899
2992.9016
1267.0165
3457.3422
3024.6402
2189.3969
1807.5584
2992.7664
3414.2483
3544.3925
3683.0955
3907.1792
6128.5
3731.0604
6053.559
5427.9894
4539.0326
8618.0615
5582.3954
4712.815
10364.22
1983.2401
9856.4284
4313.1107
5247.0323
10215.326
-6330.2078
3964.3705
1326.4271
2767.1443
11238.162
2693.136
11523.186
6609.532
13124.584
22450.507
20789.168
26757.598
12863.485
23702.57
34062.6
23289.383
23931.663
29137.264
39005.645
37895.133
40414.943
53478.432
49276.178
31191.775
21232.738
17662.528
17408.47
19373.678
9006.2246
-21126.418
-12658.366
170.44244
2268.2043
3679.0236
-704.01857
3629.557
2974.8544
3815.7381
-437.91986
2800.1732
1954.7696
5546.5006
1161.0337
2327.3071
1007.3334
958.08918
3023.3889
21.988309
2463.805
2150.1036
893.25392
3083.1414
2179.3762
3791.6061
1909.5387
1702.9238
3651.1326
2085.4492
4931.111
2236.4681
5526.9377
4733.8934
4489.5163
6150.7134
5211.8992
4787.097
8130.354
5513.7863
5561.249
9447.1323
2318.7693
10399.936
3644.6421
6758.2892
8366.102
-5281.8188
2227.5924
2114.5436
4026.8008
9649.8737
3971.1603
9758.1491
8045.175
13457.376
21940.531
22380.492
22376.809
13654.386
26993.328
34020.082
22127.303
20064.498
32790.042
40604.67
36286.231
42623.482
52228.505
48182.102
30362.001
20927.857
20019.981
18727.309
18688.609
8429.7724
-21505.554
-11930.28
138.11495
2310.9842
3193.3324
-351.50768
3407.8317
3161.6375
3385.8353
445.04288
2129.4501
2741.8334
4543.4359
1853.415
2026.5012
985.98699
1389.0793
2190.7846
1013.4776
1374.0115
3298.6291
-331.52531
4352.9614
1243.5472
4460.6122
1315.0527
1977.1444
3925.8056
1407.8528
5622.9732
1596.1005
6136.6403
3999.4696
5189.2723
5979.8275
5386.5074
4845.2303
7474.0344
5645.2035
6175.3506
8124.5771
3966.174
9757.8509
3801.4028
8194.5157
5565.2023
-4048.5591
1224.987
3087.7699
4376.0679
8445.1675
4614.9836
8798.1015
9685.5174
13373.836
22177.624
22757.581
17118.206
16407.097
30119.429
31620.672
21678.501
18432.483
34941.288
40987.094
36194.456
46069.493
50184.118
44796.508
31160.818
21262.964
20760.988
21475.546
18617.013
7067.9971
-21809.192
-11463.748
243.22521
2320.1871
2893.5568
-91.077748
3131.7411
3356.1263
3062.6942
1199.2609
1613.6085
3319.6452
3785.5173
2378.1033
1731.6475
1124.8708
1473.2279
1904.9137
1446.4055
871.04126
3634.6926
-818.343
5138.268
842.86968
4636.3224
790.87419
2431.4001
3571.0679
1812.3344
5329.3152
1894.3665
5913.7831
3480.4195
6266.7417
5452.6415
5736.6533
4920.5703
6479.24
6318.535
6235.0682
6760.3603
6194.1504
8690.921
4992.986
8686.0257
2873.344
-3587.2247
1236.8343
3941.3922
4249.2851
8183.719
3542.3994
9110.7581
11056.102
13846.569
23735.943
20150.11
13221.353
22053.256
30592.547
27045.659
22228.394
19922.969
35505.688
38887.377
37969.757
51090.287
47457.926
39779.897
33583.547
22412.292
19996.727
24677.586
18986.468
5348.0044
-22149.952
-11204.684
514.31393
2285.0768
2651.6138
106.94928
2929.4518
3414.7214
2917.4524
1743.3129
1308.4235
3719.3695
3107.9639
2919.8519
1327.7942
1489.9884
1208.8844
1975.2445
1659.5621
602.845
3514.3976
-824.85605
5465.3394
1068.6469
4394.5607
230.54416
3025.6114
2824.1956
2771.3896
4745.2805
2365.0808
5343.6734
3154.1794
7241.689
5255.0432
6041.0258
4693.0467
5915.5763
6864.8643
5491.3327
6297.7708
7719.0954
7852.9064
7617.1375
7584.3232
622.13359
-3396.4335
1713.71
4326.6727
3913.4973
8098.7991
2176.3008
10237.078
11468.782
16404.058
24620.118
14450.803
12885.445
29495.586
27453.645
21762.363
23431.824
23410.313
35576.732
35647.299
41109.258
56236.764
43853.065
34406.283
37090.367
23855.99
19387.577
28031.959
18973.544
3633.3257
-22578.323
-11083.717
890.21704
2222.5605
2468.7704
221.33639
2773.5361
3452.2905
2824.3371
2163.6097
1147.457
3967.9577
2578.0865
3335.8479
965.3917
1885.0176
967.00981
1957.315
1979.7256
392.29532
3055.7384
-411.66565
5341.412
1881.0904
3804.7229
-128.00674
3272.0566
2250.8505
3735.1646
4413.5589
2622.2521
4280.0501
3659.5292
7481.1881
5499.792
6637.0205
3637.1359
6610.9482
6544.5087
4081.7606
7388.2095
7746.2965
7748.2447
10774.802
5966.4552
-1686.321
-2628.1084
2382.7607
3471.5345
4712.1274
5616.4948
2381.015
11363.534
9874.4413
23669.69
21474.581
7183.5263
18413.841
34921.826
20763.776
17209.499
24235.429
26718.057
33664.615
33615.33
46642.473
58930.111
40455.317
30626.038
39597.604
24992.963
19987.538
30641.386
19159.459
3248.6541
-23087.049
-10980.878
1299.0802
2135.2227
2366.2643
308.36988
2567.9107
3566.548
2743.6835
2506.9437
1132.0257
4008.2843
2306.204
3485.4277
802.12347
2026.7457
1129.2649
1596.5862
2417.1953
355.41708
2164.0232
379.29907
5003.7086
3019.3405
2872.6595
4.5959557
3000.1594
1773.5139
4900.8437
4213.0081
2753.5803
2703.5309
4975.5362
7034.0672
6276.617
7013.42
2136.3434
8761.9599
5144.816
2566.4547
9318.5773
6259.8082
9152.868
13153.024
4977.382
-3702.0401
-1656.8141
3459.8496
1528.2827
6976.0657
621.244
3053.3042
12262.317
7001.4532
35184.33
14671.176
1063.9089
30504.678
36435.996
13438.716
14528.033
24155.906
28644.415
28016.377
32912.487
51973.214
56112.124
39084.92
30013.088
37812.961
27084.882
21914.085
28747.988
18699.974
4784.7112
-23624.309
-10791.725
1684.862
2027.7289
2265.5186
486.92104
2275.3352
3728.5014
2699.0213
2715.5383
1284.2176
3935.9699
2200.1477
3364.3234
937.40629
1823.821
1604.2022
1119.7635
2767.8864
533.86512
885.6487
1369.6156
4746.6293
4207.5827
1742.2582
445.88898
2595.4223
866.14337
6353.0586
4398.1965
2268.1116
1353.2842
6509.4513
5798.4577
8160.4511
6375.9863
861.26662
11975.26
2280.4234
2115.3174
9911.1421
4500.4155
11147.196
13938.782
4783.8946
-4624.2512
-325.95127
3259.457
674.242
8027.4619
-3992.0617
3805.8534
9081.8411
7869.5165
37430.125
9424.795
1236.8519
38688.691
37880.588
12730.167
12558.31
23538.665
28209.227
25762.479
34290.19
53175.077
51846.778
38651.017
30953.944
34095.465
28701.747
24245.84
26578.841
17439.791
4687.3811
-24145.266
-10503.306
1993.6169
1949.8927
2094.9218
734.7833
1971.551
3876.5812
2668.216
2835.8614
1462.8951
3887.7021
2246.8796
2983.6021
1218.4949
1659.5734
1924.969
852.04762
2945.7788
893.63352
-644.80769
2300.4862
4788.286
5208.1292
684.37969
838.0514
2247.9935
-406.76462
7329.853
5644.7482
483.81441
802.3794
7634.7644
3590.5621
10441.113
4845.1099
528.80435
14873.861
-1588.0154
3475.6126
7494.8479
3589.9655
11539.788
12153.493
4274.328
-2716.9195
994.38838
2669.5065
963.73102
7715.1564
-4257.1583
3953.557
6352.2161
9998.8895
35500.023
5743.546
1554.8953
35097.539
41725.669
16335.851
14284.295
24138.26
28186.984
25441.409
35032.398
54198.181
54133.669
38343.842
32398.776
34858.297
24766.453
25285.027
28834.026
17162.302
4772.0876
-24644.628
-10146.625
2190.5356
1917.9503
1920.3692
907.70688
1772.8833
4019.4704
2578.5709
2997.5274
1584.9163
3754.3618
2521.4053
2509.9677
1299.7172
1915.9629
1879.4011
792.33111
3035.5491
1267.2165
-2158.7673
2837.6698
5171.8571
5770.5161
-118.20781
1183.9988
1611.7341
-1622.9244
7043.9041
7531.8558
-2094.3163
715.96214
7748.0483
1678.3436
10388.043
2541.6236
2700.6531
15496.39
-1714.9253
4180.8773
6170.6777
3657.6644
11710.684
10598.8
2121.9841
-2394.3582
2756.7567
3162.2266
1561.5467
8349.5663
-2911.979
4989.2496
6929.8196
11963.657
37546.785
3348.4782
5428.7656
36421.128
31987.395
15461.542
15859.139
26321.095
27720.74
24270.481
36449.459
53120.329
51721.724
39265.165
31267.029
33961.009
28445.259
23702.895
25857.973
17667.408
5218.4553
-25158.018
-9698.8208
2246.8563
1913.6544
1863.274
930.11457
1670.3352
4264.3368
2340.6868
3193.4197
1816.5578
3379.9106
2912.4974
2158.967
1056.9487
2520.8636
1612.3475
729.43897
3058.2747
1455.0756
-3431.9978
2848.6433
5424.8218
5630.987
-570.01562
1570.8298
629.10857
-2801.3067
5662.4736
8970.4504
-1508.318
1337.6994
7590.642
1718.4179
9970.9859
242.77758
3830.7522
16501.348
-955.01093
5006.8462
7185.7749
4037.6912
12339.787
11869.711
1648.477
-3142.3368
3036.3093
2176.7019
1699.176
5852.6064
-4402.3129
3489.8904
4785.3496
11583.974
35737.911
423.94898
-1629.3035
34537.419
28974.05
13364.308
12678.418
25830.243
27435.071
23652.382
34230.212
52158.179
49381.049
38174.099
32936.223
31702.801
25262.089
24340.64
24306.831
17126.2
5289.1328
-25650.292
-9134.4137
2161.1042
1914.4832
1937.8186
863.41878
1525.6545
4709.0081
2008.3061
3260.3782
2287.1337
2869.5754
3187.7039
1895.7528
679.71556
3011.5096
1343.928
547.05458
2749.4174
1256.3942
-4242.0548
2537.2009
4801.4255
4730.0721
201.04141
2119.4447
580.69055
-2905.2005
4825.6971
8579.7841
-410.03114
2158.8218
8121.7307
2844.6677
10497.445
26.573902
4275.9399
15202.379
-2493.6594
5014.8145
5731.4705
4340.1925
11445.559
10394.903
2457.6531
-2879.6351
3325.3586
2382.9377
1624.1929
7322.6526
-2475.276
4524.1734
3925.1911
13135.453
35298.651
-4593.0055
-3878.508
34563.126
24400.542
10805.081
12464.608
26783.361
28218.712
22614.873
32408.113
46519.198
45371.749
36979.894
30041.225
29687.966
27060.222
25235.338
23044.859
16502.62
5298.4092
-26058.473
-8509.6086
2005.3005
1863.4663
2108.9189
779.65557
1261.0048
5268.1843
1780.2725
3113.5326
2849.5691
2445.8799
3191.025
1480.4028
442.43145
2614.2773
1337.8155
251.66909
1834.8308
605.81581
-3309.2223
3129.1135
4668.6154
3806.8265
886.79204
2800.3043
1131.5164
-2577.9259
5509.4892
8330.8195
-789.66134
2080.5233
6812.9684
1417.6001
10368.857
-770.19725
3933.3098
16216.552
-1420.6469
5397.6476
5426.7994
4067.8534
12119.482
9006.27
822.40061
-4232.3976
3339.9217
1957.4163
1382.7892
2332.637
-2439.7029
4154.4903
1745.2758
8030.4058
32248.441
-5632.8453
-1715.9188
32541.487
20938.555
9907.6949
10787.677
25525.539
28379.011
23151.36
34368.182
44496.775
42170.778
34727.521
28590.541
28501.518
28117.128
27134.803
23133.7
16005.111
5179.1774
-26427.931
-7896.4036
1851.8629
1730.2008
2366.8783
653.41549
1002.1021
5616.3361
1855.6883
2749.6182
3234.0937
2239.1941
2599.685
932.21604
381.02582
1203.2755
1625.3535
999.58555
1948.9345
-139.60066
-2400.2932
4105.0517
5298.3916
3759.6057
830.46192
2608.6176
55.142656
-3795.4311
5401.7342
8189.2074
-483.04783
2208.2607
7171.8222
2449.1229
10090.917
199.29147
3467.0115
12937.535
-1950.6028
5038.1155
5523.6383
3173.2356
11286.563
7156.7341
300.54946
-3342.3021
3063.0885
554.06817
1155.3469
195.8518
-3614.5853
5174.4511
697.68423
5528.0853
26988.23
-2983.8865
6845.2616
29639.733
18983.882
9921.7882
10175.655
23419.842
27371.947
24839.574
35101.262
45633.178
39835.832
33445.393
27351.693
27320.976
28465.727
28592.051
23439.131
15490.431
4974.8802
-26815.243
-7320.987
1682.2899
1584.0613
2656.2184
445.68167
958.10251
5369.7826
2347.4318
1965.2198
3308.9467
2187.3303
1371.434
671.21394
1253.4661
956.67632
1686.93
1757.857
2897.8054
-375.70624
-2995.6745
3690.9289
4766.3436
3425.865
903.25882
2778.3573
823.6689
-3218.7962
5446.517
8102.691
-599.20323
2565.8396
6922.7087
1633.2508
9396.4691
745.2566
4111.7105
10125.603
-2020.8954
4741.3498
5332.3604
3198.8504
10832.979
5293.856
-493.07555
-3215.4285
2846.4146
-34.795945
3286.2369
2911.6529
-3839.4518
5609.3533
-1403.738
4725.2824
17385.854
-1443.415
13808.19
27715.068
19124.637
10941.274
10080.73
23207.003
27121.072
22573.056
35916.779
45317.924
37738.615
32890.302
26513.898
25718.073
29361.36
29451.859
23391.701
15137.973
4710.182
-27212.503
-6758.3713
1409.0356
1560.2677
2824.5679
287.33451
1083.5846
4486.1028
3012.2393
847.98904
2886.1234
2958.2077
1423.3611
495.66202
2218.626
1333.7238
1573.4603
1158.9387
2114.5137
-674.98847
-2781.422
4194.0786
5117.1457
3547.1177
775.34127
2445.9412
506.04801
-3628.3109
5345.1099
8049.489
-826.72432
2316.5128
6902.166
2108.4276
8928.7269
1186.7009
4576.9959
9498.1662
-2167.5987
5381.8935
4762.2835
2201.3789
9630.5545
3716.3403
-924.27437
-3093.3199
2379.5206
46.099148
4088.3219
4644.1096
-3653.2859
5307.3647
-2660.5996
5039.5253
12601.455
-4307.3985
13471.686
26894.813
19961.985
12264.253
10617.922
23805.524
27724.047
24556.122
37461.767
42697.375
35735.003
30992.777
25779.566
24901.572
29301.124
29601.122
23256.853
14989.314
4319.8997
-27554.265
-6153.9184
968.425
1738.9715
2714.0843
435.0076
988.57515
3369.5073
3069.1287
1594.0208
2515.8538
3901.0884
2071.5863
362.82952
1642.8943
841.31787
1466.2321
1503.5296
2376.6998
-656.41401
-2833.9511
4053.948
4785.9616
3539.5324
696.48226
2329.1742
1084.0099
-3418.1224
5029.2852
7888.0892
-949.86173
2031.4114
6696.6558
2133.1408
8839.8292
599.8537
4960.8966
9908.1333
-2095.0928
5853.8475
4072.73
1563.7705
9283.5449
3540.1254
-895.39154
-2393.3225
2074.8847
-206.86284
4535.1729
5714.4087
-4130.8897
4742.5871
-2128.6568
5014.6742
12381.227
-46.6171
15061.669
26247.457
22678.198
14249.111
11680.504
24582.302
28648.054
23922.274
38073.265
42007.736
34267.588
28697.073
25070.192
25166.619
28421.308
28937.234
22620.264
14867.962
3896.182
-27766.602
-5468.0216
427.27623
2056.9966
2310.1823
896.61211
550.91566
2912.9512
3046.6281
2758.0032
2587.9363
3525.072
1685.187
222.5889
1915.4091
901.78253
1489.0023
1165.9833
2321.614
-596.65644
-3022.8299
4012.0981
4535.7417
3442.8014
504.22203
2043.1405
930.79924
-3542.1285
4439.8866
7693.0112
-1026.2149
1657.919
6411.3343
2268.7451
8583.6721
239.6025
3399.2065
9609.027
-1305.7903
5288.952
2765.6927
1829.448
9293.9304
3112.2701
-678.38532
-1202.9617
2087.0162
-877.37697
4470.5196
5711.1846
-3277.6268
3249.032
-2152.7755
5245.0132
12257.739
4292.5668
16006.444
25081.74
25402.398
13844.788
12625.678
25356.293
29458.54
23284.768
37179.337
40389.344
32849.714
27379.365
24288.44
25320.745
29098.737
27749.858
21790.59
14067.544
3233.2544
-27908.896
-4687.8482
47.043454
2361.354
1830.1598
1114.0293
1281.4323
3005.2771
3108.7284
2443.0348
2410.4656
3522.1527
1780.0685
190.16613
1801.5654
736.35257
1503.9236
1177.3927
2362.2047
-498.95544
-3372.3132
3651.086
4381.1514
3287.0096
202.86618
1930.4793
1400.5573
-3476.2271
3580.5989
7315.5233
-1102.9266
1335.7405
5953.385
2245.2653
8035.4534
-1238.5916
2586.776
8726.7983
-2266.7759
5081.3221
2145.7835
2618.2887
8579.7763
1862.2115
-478.69632
446.76551
2407.6481
-2036.7281
4216.4862
4577.5938
-3095.6304
1430.4635
-3995.9863
5121.6319
10252.756
8803.0268
17052.695
23838.18
25929.625
15357.957
12640.551
23796.656
29842.461
24755.76
36925.369
37814.344
31858.214
27598.935
23721.092
26171.659
31158.579
26569.56
21119.57
12425.176
2220.3429
-28391.476
-3829.6884
209.26285
2520.4801
1678.1356
1156.1409
2389.8651
2810.0845
2704.4872
2413.461
2475.202
3440.4408
1705.0997
164.51924
1815.5221
648.36136
1568.9499
1111.7003
2262.9219
-524.18696
-3433.5801
3262.6449
4363.677
3397.786
-162.51318
1702.0383
1660.869
-3588.0632
2519.6368
6986.3335
-1045.9405
1080.3398
5564.9232
2136.012
7415.7662
-894.92411
2095.3914
8227.1687
-852.56502
5125.145
1143.3658
3442.9654
8632.0949
1185.5264
-73.790222
649.92112
1600.1268
-3103.6769
4605.1221
5009.8027
-2544.2352
534.8677
-6066.4096
5032.8143
10433.816
9247.9267
17905.025
22869.287
24381.935
16499.5
12538.706
22056.467
30750.979
24968.987
37321.327
36333.962
31156.339
29322.895
23767.481
26644.463
33304.639
25385.016
20284.587
10400.955
1088.2595
-29958.314
-2927.4589
983.20303
2566.8894
1939.6716
1133.9648
2226.5858
2878.897
2773.7912
2387.0229
2436.5048
3375.2368
1703.2283
196.36138
1761.583
531.37313
1586.1331
1107.3542
2279.6624
-683.10457
-3340.1745
2860.7122
4279.375
3330.6522
-519.96548
1433.4034
1848.1958
-3487.5935
844.69686
6421.1884
-1274.2881
923.83196
5065.1419
1856.7723
6752.935
-1187.546
1047.8364
7419.1284
-318.37815
5470.2912
571.13462
4186.9813
8802.5817
1747.2689
1012.3328
-599.78707
1022.7745
-4097.3256
5551.2402
5141.3396
-2476.2724
249.96666
-5556.4583
5090.1584
10141.359
8609.5606
18848.822
22415.387
23219.747
17235.172
12024.151
19486.459
30794.531
24510.795
38335.224
36451.382
30963.231
30740.294
23916.15
26647.324
33753.203
23749.839
19148.908
8157.4665
-231.3216
-32415.771
-2220.4649
1421.6635
2785.3491
2004.8425
944.06345
2204.5176
2914.3681
2743.0517
2383.7902
2458.1266
3280.9545
1697.6507
237.57368
1675.3004
409.79015
1565.5943
1038.5923
2246.4392
-870.91021
-3048.0121
2521.0986
3986.0646
3350.4599
-790.85153
1254.3187
1908.2
-3543.9718
-1777.0089
5602.182
-1246.0354
883.6789
4540.7334
1313.0206
6193.4316
-1804.5804
108.38176
6533.5589
-477.90118
5582.4211
479.5393
5016.0372
9179.3276
2405.9442
2307.2539
-922.51251
864.8616
-5476.7004
4825.9461
4907.3123
-2840.207
564.42007
-4219.7179
5215.6104
9333.1894
8699.1449
20255.313
22042.259
22122.118
17213.034
10074.065
16745.633
30039.132
24060.975
37986.106
36040.162
30922.886
32179.704
24426.284
26606.498
32599.175
21954.684
17994.25
6024.4692
-1587.8955
-32184.084
-2813.695
785.55355
3138.1071
1968.8397
895.24764
2136.6345
2899.0821
2761.4861
2384.931
2459.4583
3174.2189
1695.7338
278.20242
1540.7182
281.75375
1527.1574
983.76874
2303.7425
-1098.4384
-2652.9297
2155.4438
3494.9579
3354.022
-902.83533
1335.0959
1754.9167
-3706.099
-4839.9359
4666.7494
-1424.3907
857.2725
4150.6117
885.68761
5652.093
-1855.8809
-438.17212
6080.9572
-142.00063
5586.1871
386.23704
5429.9444
8959.5166
2378.8167
2745.4806
-877.28705
980.95285
-6596.3281
4604.4261
4576.1621
-3112.5715
1019.9896
-2419.7474
5070.607
8727.3793
9385.7056
20762.956
21760.092
21584.978
17341.281
10196.41
14840.995
30067.842
23883.953
37184.178
35450.865
30285.559
33012.032
24894.753
26443.324
30999.581
20356.887
16915.205
3956.2977
-2619.8762
-22755.252
-5257.38
254.2662
3301.9092
1962.1566
911.238
2125.2497
2895.2166
2773.7255
2386.6904
2460.3251
3058.7489
1678.7763
313.48734
1371.6219
148.51747
1490.2184
933.52408
2314.5805
-1443.5673
-2662.9903
1634.8453
3047.6824
3273.9936
-879.4379
1490.542
1387.9884
-3981.367
-7186.9793
3913.9
-1419.2966
924.85534
3766.608
416.76045
5148.2909
-1839.5374
-745.78909
5749.3333
-261.59285
5476.8851
646.04705
5800.7611
8207.0668
2110.2649
2888.2347
-964.16226
269.02258
-7405.5278
4174.3959
3930.3811
-3782.107
1395.1883
-1234.593
4170.1361
8016.4787
9770.4007
20858.416
21666.391
21193.504
17454.144
10170.48
12148.057
30327.858
23451.507
36166.276
34605.588
29769.099
33025.516
24048.551
26084.278
28972.011
18709.888
15734.639
1848.9398
-3639.8875
-4594.3836
-6326.5468
174.9376
3201.5052
1948.9915
906.66423
2127.7634
2892.497
2787.489
2389.1658
2451.0867
2932.207
1655.741
342.13188
1185.8769
0.68663341
1420.8005
809.58031
2335.7645
-1791.2782
-2965.2567
1025.5846
2757.307
3199.6597
-847.31814
1604.6789
985.95067
-4001.0147
-8267.0995
3270.9217
-1231.1147
1113.3365
3309.3549
-213.36459
4587.5058
-1767.5912
-785.68403
5547.2268
-101.43576
5361.3226
587.32467
5802.0433
7550.8955
1937.503
3265.8471
-885.52908
-1148.7861
-8423.4736
3200.8428
3242.7297
-3029.6408
1884.6586
-525.28208
4268.3488
6659.4962
9642.2017
21368.771
21449.101
20483.836
17718.824
9932.2018
8543.1905
29760.686
22411.554
35036.925
33453.573
29260.729
33179.115
23125.303
25849.47
26816.402
17420.654
14752.266
-13.999241
-4542.3317
-730.77738
-4776.9329
117.70818
3178.7984
1924.9396
904.60077
2130.0425
2889.0821
2799.016
2391.8762
2425.1603
2792.0857
1630.4666
368.15396
993.58467
-133.70199
1375.8644
731.99811
2347.4689
-2081.4243
-3329.5992
467.29931
2525.9065
3104.3255
-828.38561
1635.142
858.99
-3613.6905
-7851.5126
2842.6758
-835.49096
1385.0996
2943.6056
-765.21535
3905.9827
-1664.547
-632.05601
5027.1179
-134.68235
5232.1372
902.93132
5953.6187
6206.1151
1874.73
4339.1283
-613.61385
-3308.6969
-9714.2625
2031.2637
2513.6262
-2680.0227
2292.0773
-400.40985
5090.062
5698.2926
9157.1267
22414.819
21131.934
19651.946
18406.611
8441.697
5768.6725
29327.965
20495.018
33610.735
32207.588
28718.811
33044.71
21812.678
25739.204
25248.321
16127.652
14079.2
-1150.2971
-4878.2447
-10192.797
-3781.4334
203.05219
3169.3157
1878.9326
903.05334
2131.2671
2885.0247
2809.7135
2394.6103
2379.3235
2635.3433
1613.7517
393.29891
810.5062
-274.85104
1343.0308
644.00645
2360.995
-2314.8405
-3714.7828
-41.103054
2334.5714
3032.4235
-824.0815
1534.1358
1015.2896
-2782.9828
-6107.9199
2682.4005
-233.01657
1743.738
2641.3236
-1183.6594
3339.397
-1435.9073
-343.7431
4739.0396
-164.44192
5155.2766
1092.4584
5890.3557
4616.4587
1224.9091
4676.6639
-472.22151
-4347.7173
-9211.0672
413.70372
1818.4334
-2545.7225
2661.6246
-829.92397
5573.0728
5258.3477
8641.0732
21959.681
20423.571
19831.816
19436.242
7022.8982
4438.7671
28883.424
18054.838
31649.428
31209.146
28345.12
32638.323
20328.587
24839.85
23720.604
15140.732
13204.563
-2343.3329
-5079.1216
-9954.3261
-3994.2544
249.68621
3152.5234
1828.5814
901.11005
2129.2154
2879.1191
2818.139
2396.9307
2316.7346
2458.3951
1598.7288
421.98049
654.59854
-411.62772
1355.6656
566.54184
2350.9596
-2511.3348
-4127.2095
-443.28627
2212.3326
2966.1209
-892.32486
1357.9938
1423.0289
-1893.8065
-3862.1254
2745.5251
411.22295
2203.1896
2444.0398
-1645.0355
2926.2921
-1493.5419
47.863784
4666.2093
142.80002
5055.4585
1219.1164
5639.8083
3296.6135
716.16777
4954.9832
-222.33152
-4646.3755
-8302.9276
-154.35875
1645.4229
-2240.2936
2989.0016
-1262.5597
5611.7154
4343.5506
7510.3461
21443.761
19410.485
19140.689
19561.388
5532.8247
3944.4442
27966.928
16862.622
30661.586
29872.75
27470.712
31986.946
18771.24
23806.486
22160.405
14246.362
12752.772
-3001.7064
-5292.2345
-9324.117
-3690.93
276.33638
3128.5487
1765.7573
898.81782
2123.1442
2870.3032
2823.1048
2397.8273
2243.2639
2261.9795
1578.5815
455.85855
535.11382
-534.8228
1322.2218
408.20236
2336.5124
-2687.2804
-4575.2963
-611.02711
2189.2291
2866.6099
-1020.5133
1051.7256
1861.8654
-1106.2037
-1862.3085
2882.5382
944.08964
2675.321
2244.9055
-2232.8543
2447.0249
-1568.1532
711.53407
4549.3821
573.33909
4962.4691
1295.544
5510.9279
2299.9237
550.14776
5143.1509
-0.41043772
-3817.0002
-8729.0603
322.18701
2681.3835
-2208.3351
3276.1369
-1464.6431
5481.4716
3354.0105
5783.7356
21087.462
19251.176
17784.233
18811.787
2668.8364
3104.9265
27878.704
16828.217
29703.459
28714.87
26479.193
30809.416
16903.589
22177.25
20897.352
13248.792
12112.156
-3076.8863
-4698.3552
-8528.8315
-3473.7191
287.54558
3100.132
1703.5993
896.62535
2110.319
2856.6775
2822.5787
2397.324
2167.493
2048.2093
1548.4906
491.55138
453.77049
-636.8663
1322.8038
284.16703
2259.9893
-2870.4412
-5092.3608
-655.50879
2275.7769
2749.9295
-1220.856
710.30564
2212.144
-321.54976
-392.75848
3066.2605
1162.5775
2958.0258
1973.4236
-2571.6663
1957.3727
-1521.12
1686.7121
4369.5511
1052.9346
4949.774
1428.7855
5315.7095
2021.4071
487.36644
4982.5477
57.399214
-3622.0899
-7450.5832
1082.3282
3916.4344
-2403.8912
3511.5315
-1478.2257
5373.9594
2282.4982
4753.9583
20521.611
18913.844
16434.577
17471.073
1649.7301
3180.4749
27541.63
17463.588
28964.688
27616.915
25838.18
29670.772
15149.699
20287.056
19261.746
12290.198
11189.616
-3252.3995
-4194.6674
-7736.6673
-3199.0384
276.54244
3055.2834
1619.2855
894.41989
2088.2625
2834.9693
2814.5287
2397.2611
2091.3736
1822.706
1499.4554
530.567
407.92747
-734.91708
1330.1011
152.87586
2149.7824
-2996.723
-5567.4607
-661.94801
2425.5925
2573.541
-1441.7256
404.90798
2535.8082
166.56601
386.2723
3066.4633
1268.6734
3089.9974
1757.7334
-2524.5926
1482.7451
-1214.7322
2685.2637
4221.8087
1360.182
4577.8985
1666.6582
5098.9105
2406.6922
693.99894
4466.9413
214.65878
-3300.8759
-7992.2664
1881.6778
4571.1733
-2837.6701
3627.9081
-1447.6559
5132.2767
1032.4789
4428.22
19558.147
18337.207
14971.898
15958.568
1722.8224
4917.4577
26832.673
18639.382
28181.189
26600.697
25514.873
29371.38
13781.473
18799.84
17666.244
10946.995
10597.187
-2530.327
-3630.0122
-6937.862
-3018.2183
266.26838
3012.5633
1534.3523
891.30927
2054.2939
2801.0707
2795.8964
2398.375
2016.3353
1635.7725
1447.2183
564.56109
404.40501
-803.19353
1350.4637
18.406319
2085.4675
-3002.8889
-5973.6283
-558.78513
2545.8952
2349.3748
-1676.0875
122.14973
2690.16
359.53586
832.57226
3042.524
1238.2691
3107.6937
1625.1985
-2203.2091
1329.9895
-598.08966
3549.9939
3940.7508
1427.5078
4563.8112
1682.6004
5004.3961
2660.517
505.39696
4069.9593
119.58088
-2807.3356
-7957.8443
2158.9995
4746.232
-2800.909
3828.8565
-1233.4474
4737.5741
372.35452
4528.0423
17570.16
17179.456
13273.368
13961.842
1114.0306
6286.7257
26333.587
19193.773
27310.213
26016.529
25145.873
28898.818
13197.467
17437.557
16800.528
9569.3331
9650.0423
-1007.2808
-2268.9876
-6205.3026
-2747.8743
243.21608
2964.5051
1438.3957
885.60873
2004.1225
2749.1264
2761.3543
2399.7764
1940.0766
1583.1155
1403.5258
618.63547
475.41534
-856.18288
1377.151
-126.07851
2026.1215
-2745.3918
-6202.1855
-248.5593
2587.1998
2094.4388
-1863.8848
-91.644182
2789.0802
531.05855
1142.8864
3111.4599
1063.1215
3084.1149
1508.9379
-1806.9975
1402.6234
5.7996562
4169.3926
3384.8575
1312.43
4637.3747
1725.0134
4929.0416
2440.9089
32.17128
3721.742
280.32813
-2254.4802
-8060.3823
2093.3882
4423.1638
-3020.1978
3906.9117
-644.0165
4284.5084
477.57759
5630.5891
15764.615
15882.275
10749.711
11560.499
2344.9215
8317.161
25938.77
18589.265
26470.716
25288.669
24487.004
27889.873
12968.334
16722.255
16242.384
9147.0348
7941.1468
-5.5027551
-830.90206
-5490.4229
-2637.0959
215.21598
2909.3863
1331.6452
874.77092
1936.81
2671.9242
2706.4402
2398.5768
1859.8055
1682.981
1382.6629
693.01581
640.13063
-870.59504
1410.6584
-279.56381
1941.3218
-2215.1696
-6159.3143
190.96525
2553.4035
1850.8761
-1939.0777
-177.51045
2892.1501
626.89848
1254.5411
3047.9037
751.7526
3011.1876
1445.7631
-1405.392
1429.3657
544.84626
4700.6833
2999.8136
775.50233
4626.6376
1879.9183
4903.016
2262.5139
243.44746
3766.3196
371.67273
-1706.0138
-7730.2579
2243.1306
3393.2904
-3200.8606
3911.1135
70.292804
4138.8933
1571.5029
6539.6394
14181.69
14587.551
8571.5818
9665.9251
4705.6145
11718.72
26582.311
19112.79
25548.389
24504.562
23761.623
26514.339
12828.111
16388.451
15558.391
9237.115
6162.1115
-52.027754
-27.349999
-4868.1594
-2356.9399
171.32968
2848.6275
1214.6356
857.38279
1851.0976
2565.6131
2634.8902
2393.4055
1778.6053
1850.1217
1364.6657
780.86799
870.71523
-856.26657
1440.523
-413.55984
1889.9292
-1573.7646
-5923.1569
589.27991
2460.8795
1611.7149
-1937.0868
-187.04866
2902.8649
573.5496
1204.1447
2836.9923
571.24251
2955.6433
1366.9313
-1208.0499
1429.8512
1168.0726
5082.0022
2798.0845
767.50986
4617.1094
2141.9094
5031.6428
2345.7093
165.0793
3579.5964
478.52091
-1025.6309
-6949.0341
3168.7934
2860.2357
-2830.027
3898.7707