/*--------------------------------*- C++ -*----------------------------------*\
| =========                 |                                                 |
| \\      /  F ield         | OpenFOAM: The Open Source CFD Toolbox           |
|  \\    /   O peration     | Version:  2.3.0                                 |
|   \\  /    A nd           | Web:      www.OpenFOAM.org                      |
|    \\/     M anipulation  |                                                 |
\*---------------------------------------------------------------------------*/
FoamFile
{
    version     2.0;
    format      ascii;
    class       surfaceScalarField;
    location    "2.3e-05";
    object      phi;
}
// * * * * * * * * * * * * * * * * * * * * * * * * * * * * * * * * * * * * * //

dimensions      [0 3 -1 0 0 0 0];

internalField   nonuniform List<scalar> 
14825
(
1.034377e-09
-2.0615597e-11
1.05451e-09
-2.0133043e-11
1.0755535e-09
-2.1043461e-11
1.0951896e-09
-1.9636117e-11
1.1161672e-09
-2.0977632e-11
1.1355327e-09
-1.9365463e-11
1.1566547e-09
-2.1122065e-11
1.1756596e-09
-1.9004901e-11
1.1966354e-09
-2.0975792e-11
1.2152294e-09
-1.8593915e-11
1.2362377e-09
-2.1008337e-11
1.2544206e-09
-1.8182891e-11
1.2753673e-09
-2.0946688e-11
1.293047e-09
-1.7679681e-11
1.3138506e-09
-2.0803625e-11
1.3312541e-09
-1.7403503e-11
1.3515282e-09
-2.0274161e-11
1.3690534e-09
-1.7525136e-11
1.3882088e-09
-1.9155431e-11
1.4064208e-09
-1.8212003e-11
1.4240302e-09
-1.7609382e-11
1.4431798e-09
-1.9149628e-11
1.4590731e-09
-1.5893315e-11
1.4789528e-09
-1.9879676e-11
1.493804e-09
-1.485116e-11
1.5134181e-09
-1.961414e-11
1.5281316e-09
-1.4713452e-11
1.5466469e-09
-1.8515341e-11
1.5617923e-09
-1.5145401e-11
1.5787533e-09
-1.6960946e-11
1.5945626e-09
-1.580931e-11
1.609998e-09
-1.5435455e-11
1.626406e-09
-1.6408014e-11
1.6404033e-09
-1.3997264e-11
1.6567612e-09
-1.6357876e-11
1.6700783e-09
-1.3317155e-11
1.6859364e-09
-1.5858038e-11
1.6989477e-09
-1.3011328e-11
1.7142388e-09
-1.5291057e-11
1.726559e-09
-1.232026e-11
1.7412833e-09
-1.4724323e-11
1.7533702e-09
-1.2086894e-11
1.7666259e-09
-1.3255671e-11
1.779424e-09
-1.2798142e-11
1.7907592e-09
-1.1335115e-11
1.8042363e-09
-1.3477139e-11
1.8144844e-09
-1.0248061e-11
1.8272581e-09
-1.277377e-11
1.8365125e-09
-9.2544036e-12
1.8486254e-09
-1.2112904e-11
1.8587093e-09
-1.0083843e-11
1.8679877e-09
-9.2784519e-12
1.8790284e-09
-1.1040694e-11
1.8869609e-09
-7.9325191e-12
1.8973336e-09
-1.0372618e-11
1.905836e-09
-8.5024003e-12
1.9137681e-09
-7.9321159e-12
1.9228287e-09
-9.0605875e-12
1.9301825e-09
-7.3538313e-12
1.9370135e-09
-6.8309542e-12
1.9441e-09
-7.0865348e-12
1.9523751e-09
-8.2750867e-12
1.9577327e-09
-5.3576202e-12
1.9626136e-09
-4.880892e-12
1.9696564e-09
-7.0428312e-12
1.9745651e-09
-4.9086328e-12
1.9798567e-09
-5.2916833e-12
1.9844438e-09
-4.5870696e-12
1.9889039e-09
-4.460121e-12
1.9935967e-09
-4.6927348e-12
1.9961327e-09
-2.5360761e-12
1.9997156e-09
-3.5828818e-12
2.0028516e-09
-3.1359498e-12
2.0055033e-09
-2.6517289e-12
-2.3213936e-12
2.8624058e-09
-8.1055498e-11
2.9216921e-09
-7.9419313e-11
2.983342e-09
-8.269337e-11
3.0416342e-09
-7.7928349e-11
3.1033313e-09
-8.2674729e-11
3.161074e-09
-7.710815e-11
3.2231849e-09
-8.3232929e-11
3.2801846e-09
-7.6004659e-11
3.3421135e-09
-8.2904678e-11
3.3981613e-09
-7.4641686e-11
3.4603701e-09
-8.3217113e-11
3.515419e-09
-7.3231771e-11
3.5776846e-09
-8.3212298e-11
3.6314567e-09
-7.1451802e-11
3.6936044e-09
-8.2951296e-11
3.746683e-09
-7.0482171e-11
3.8076578e-09
-8.1248884e-11
3.861123e-09
-7.0990398e-11
3.9193315e-09
-7.7363907e-11
3.9747266e-09
-7.360709e-11
4.0289454e-09
-7.1828246e-11
4.0869417e-09
-7.7145907e-11
4.1367968e-09
-6.5748367e-11
4.1967191e-09
-7.9801961e-11
4.2440806e-09
-6.221274e-11
4.3033205e-09
-7.8853949e-11
4.3504308e-09
-6.1823816e-11
4.406946e-09
-7.5030496e-11
4.4551024e-09
-6.3301789e-11
4.5078223e-09
-6.9680858e-11
4.5576976e-09
-6.5684621e-11
4.6066171e-09
-6.4354972e-11
4.6580585e-09
-6.784944e-11
4.7033403e-09
-5.9278988e-11
4.7546182e-09
-6.7635811e-11
4.798385e-09
-5.7083934e-11
4.8481838e-09
-6.5656846e-11
4.8914418e-09
-5.6269339e-11
4.9394149e-09
-6.3264213e-11
4.9812529e-09
-5.4158181e-11
5.0278943e-09
-6.1365734e-11
5.0686875e-09
-5.2880089e-11
5.1123104e-09
-5.6878631e-11
5.1541616e-09
-5.4649323e-11
5.193497e-09
-5.067049e-11
5.2367976e-09
-5.6777795e-11
5.272971e-09
-4.6421399e-11
5.315008e-09
-5.4810785e-11
5.3484731e-09
-4.2719488e-11
5.3888087e-09
-5.2448556e-11
5.4239393e-09
-4.5214437e-11
5.4578478e-09
-4.3186935e-11
5.4947793e-09
-4.7972162e-11
5.5250368e-09
-3.8190021e-11
5.5609199e-09
-4.6255732e-11
5.5917379e-09
-3.9320362e-11
5.6224885e-09
-3.8682716e-11
5.6543341e-09
-4.0906217e-11
5.6818744e-09
-3.4894117e-11
5.7096678e-09
-3.4624405e-11
5.7364942e-09
-3.3912903e-11
5.7661286e-09
-3.790947e-11
5.789343e-09
-2.8572041e-11
5.8106289e-09
-2.6166768e-11
5.8378584e-09
-3.4272406e-11
5.8591904e-09
-2.6240588e-11
5.8820841e-09
-2.8185358e-11
5.9030844e-09
-2.5587439e-11
5.9229877e-09
-2.4363393e-11
5.9435161e-09
-2.5221074e-11
5.9590674e-09
-1.808743e-11
5.9766037e-09
-2.1119124e-11
5.9934807e-09
-2.0013041e-11
6.0089801e-09
-1.8151101e-11
-1.685549e-11
4.366203e-09
-1.7914894e-10
4.4631164e-09
-1.7633271e-10
4.5628203e-09
-1.823973e-10
4.6590685e-09
-1.7417661e-10
4.7592029e-09
-1.8280911e-10
4.8549382e-09
-1.7284344e-10
4.9558858e-09
-1.8418054e-10
5.0508461e-09
-1.7096493e-10
5.1519764e-09
-1.8403493e-10
5.2458221e-09
-1.6848746e-10
5.3476998e-09
-1.8509481e-10
5.4403055e-09
-1.658374e-10
5.5426552e-09
-1.8556203e-10
5.6335489e-09
-1.6234549e-10
5.7362891e-09
-1.8569151e-10
5.8261255e-09
-1.603186e-10
5.9278031e-09
-1.8292646e-10
6.018074e-09
-1.6126134e-10
6.1164872e-09
-1.7577703e-10
6.2093222e-09
-1.664421e-10
6.3027957e-09
-1.6530173e-10
6.3989477e-09
-1.7329792e-10
6.4869932e-09
-1.5379389e-10
6.5856274e-09
-1.784362e-10
6.6704451e-09
-1.4703037e-10
6.7685866e-09
-1.7699544e-10
6.8526164e-09
-1.4585361e-10
6.9479312e-09
-1.7034534e-10
7.0325619e-09
-1.4793249e-10
7.1238363e-09
-1.609553e-10
7.2101021e-09
-1.5195041e-10
7.2971134e-09
-1.5136622e-10
7.3851779e-09
-1.5591397e-10
7.467424e-09
-1.4152506e-10
7.5555566e-09
-1.5576841e-10
7.6356511e-09
-1.3717845e-10
7.7217598e-09
-1.5176553e-10
7.8011947e-09
-1.3570422e-10
7.8843832e-09
-1.4645279e-10
7.962216e-09
-1.3199098e-10
8.0440313e-09
-1.43181e-10
8.1188854e-09
-1.2773416e-10
8.1986469e-09
-1.366401e-10
8.273451e-09
-1.2945346e-10
8.3492507e-09
-1.264702e-10
8.4256753e-09
-1.3320238e-10
8.495684e-09
-1.164301e-10
8.5714051e-09
-1.3053185e-10
8.6370007e-09
-1.0831515e-10
8.7110233e-09
-1.264711e-10
8.7774373e-09
-1.1162848e-10
8.8442304e-09
-1.0998008e-10
8.9121835e-09
-1.1592525e-10
8.9735518e-09
-9.9558255e-11
9.0415124e-09
-1.1421641e-10
9.1016653e-09
-9.947323e-11
9.1648731e-09
-1.0189053e-10
9.2261766e-09
-1.0220966e-10
9.2809267e-09
-8.9644205e-11
9.3404348e-09
-9.4132556e-11
9.3953681e-09
-8.8846247e-11
9.4525915e-09
-9.513283e-11
9.5035551e-09
-7.9535663e-11
9.55162e-09
-7.4231588e-11
9.606909e-09
-8.9561462e-11
9.6537819e-09
-7.3113476e-11
9.7033627e-09
-7.7766127e-11
9.7512352e-09
-7.3459949e-11
9.7961231e-09
-6.9251285e-11
9.8410241e-09
-7.0122094e-11
9.881366e-09
-5.8429357e-11
9.9227553e-09
-6.2508369e-11
9.9631869e-09
-6.0444724e-11
1.0001914e-08
-5.6878149e-11
-5.4394738e-11
5.5899121e-09
-3.1259029e-10
5.7230631e-09
-3.0948371e-10
5.8581498e-09
-3.1748405e-10
5.99164e-09
-3.0766676e-10
6.1277607e-09
-3.1892982e-10
6.2609698e-09
-3.0605256e-10
6.3985584e-09
-3.2176915e-10
6.5312455e-09
-3.0365203e-10
6.6696974e-09
-3.2248684e-10
6.8015096e-09
-3.0029966e-10
6.9413035e-09
-3.248887e-10
7.0719458e-09
-2.964797e-10
7.2128982e-09
-3.265144e-10
7.3417336e-09
-2.9118094e-10
7.4838512e-09
-3.2780914e-10
7.6116079e-09
-2.8807523e-10
7.7532418e-09
-3.2456036e-10
7.8814999e-09
-2.8951944e-10
8.0203521e-09
-3.1462927e-10
8.1508933e-09
-2.9698333e-10
8.2856019e-09
-3.000103e-10
8.4187534e-09
-3.0644935e-10
8.5490494e-09
-2.8408991e-10
8.6840305e-09
-3.1341737e-10
8.8114322e-09
-2.7443203e-10
8.9465385e-09
-3.1210172e-10
9.0721883e-09
-2.715034e-10
9.2058748e-09
-3.0403189e-10
9.330472e-09
-2.725297e-10
9.4620047e-09
-2.9248793e-10
9.5869065e-09
-2.7685224e-10
9.7157442e-09
-2.8020392e-10
9.8416024e-09
-2.8177217e-10
9.9660031e-09
-2.6592574e-10
1.0092392e-08
-2.8215726e-10
1.0214117e-08
-2.5890366e-10
1.0338488e-08
-2.7613656e-10
1.0459007e-08
-2.5622258e-10
1.057978e-08
-2.6722615e-10
1.0698915e-08
-2.5112623e-10
1.0818592e-08
-2.6285791e-10
1.0932881e-08
-2.4202277e-10
1.1053706e-08
-2.5746593e-10
1.1164767e-08
-2.4051413e-10
1.1283447e-08
-2.4514991e-10
1.1395228e-08
-2.4498366e-10
1.1506094e-08
-2.2729616e-10
1.1619804e-08
-2.4424147e-10
1.1725012e-08
-2.1352323e-10
1.1836967e-08
-2.3842641e-10
1.1940525e-08
-2.1518671e-10
1.2046706e-08
-2.1616087e-10
1.2151335e-08
-2.2055408e-10
1.2250904e-08
-1.991273e-10
1.2356447e-08
-2.1975893e-10
1.2453122e-08
-1.9614829e-10
1.2556341e-08
-2.051096e-10
1.2652935e-08
-1.9880347e-10
1.2742103e-08
-1.7881296e-10
1.2842695e-08
-1.9472389e-10
1.2932653e-08
-1.7880428e-10
1.3023139e-08
-1.8561921e-10
1.3110338e-08
-1.6673481e-10
1.3194726e-08
-1.5861942e-10
1.3284468e-08
-1.7930357e-10
1.3365524e-08
-1.5416904e-10
1.3450616e-08
-1.6285843e-10
1.3535326e-08
-1.5816983e-10
1.3613634e-08
-1.4755975e-10
1.3690526e-08
-1.4701346e-10
1.3766169e-08
-1.3407223e-10
1.3839691e-08
-1.3603053e-10
1.3912934e-08
-1.3368809e-10
1.3985615e-08
-1.2955891e-10
-1.2481901e-10
6.571924e-09
-4.7874303e-10
6.7401653e-09
-4.7772502e-10
6.9080487e-09
-4.8536737e-10
7.0778597e-09
-4.7747778e-10
7.247726e-09
-4.8879613e-10
7.4175292e-09
-4.758558e-10
7.5898871e-09
-4.9412698e-10
7.7596158e-09
-4.7338073e-10
7.9336934e-09
-4.9656445e-10
8.1031909e-09
-4.6979718e-10
8.2792243e-09
-5.0092212e-10
8.4480494e-09
-4.6530476e-10
8.6260215e-09
-5.0448653e-10
8.7935481e-09
-4.587075e-10
8.9734934e-09
-5.0775441e-10
9.1404453e-09
-4.5502721e-10
9.3206203e-09
-5.047353e-10
9.4882099e-09
-4.5710912e-10
9.6667797e-09
-4.9319902e-10
9.8357833e-09
-4.6598693e-10
1.0012402e-08
-4.7662939e-10
1.0181995e-08
-4.760416e-10
1.0356746e-08
-4.5884121e-10
1.0526738e-08
-4.8340966e-10
1.0700278e-08
-4.4797182e-10
1.0870799e-08
-4.8262278e-10
1.1042007e-08
-4.4271168e-10
1.1213267e-08
-4.7529118e-10
1.1381535e-08
-4.4079831e-10
1.15538e-08
-4.6475318e-10
1.1720408e-08
-4.4345952e-10
1.1892851e-08
-4.5264701e-10
1.2058695e-08
-4.476168e-10
1.2228467e-08
-4.3569747e-10
1.2395224e-08
-4.4891424e-10
1.2562005e-08
-4.2568487e-10
1.2727273e-08
-4.4140379e-10
1.2892e-08
-4.2095031e-10
1.3053767e-08
-4.2899242e-10
1.3217693e-08
-4.1505231e-10
1.3377737e-08
-4.2290196e-10
1.353623e-08
-4.0051602e-10
1.370031e-08
-4.2154633e-10
1.3852949e-08
-3.9315244e-10
1.4018855e-08
-4.1105594e-10
1.4170604e-08
-3.9673291e-10
1.432714e-08
-3.8383166e-10
1.4480782e-08
-3.9788369e-10
1.463142e-08
-3.6416171e-10
1.4784826e-08
-3.9183245e-10
1.4933615e-08
-3.63975e-10
1.5082761e-08
-3.6530766e-10
1.5229505e-08
-3.6729769e-10
1.5373493e-08
-3.4311545e-10
1.5520883e-08
-3.6714908e-10
1.5662098e-08
-3.3736328e-10
1.5810406e-08
-3.5341769e-10
1.5946312e-08
-3.3470913e-10
1.6079376e-08
-3.1187658e-10
1.6227314e-08
-3.4266228e-10
1.6358117e-08
-3.0960693e-10
1.6488436e-08
-3.159388e-10
1.6619435e-08
-2.9773312e-10
1.6749108e-08
-2.8829276e-10
1.6878786e-08
-3.0898215e-10
1.7001073e-08
-2.7645535e-10
1.7129494e-08
-2.9127998e-10
1.7258032e-08
-2.8670763e-10
1.7378009e-08
-2.6753707e-10
1.7496605e-08
-2.6560881e-10
1.7617781e-08
-2.5524847e-10
1.7731987e-08
-2.5023677e-10
1.7846187e-08
-2.4788761e-10
1.7960775e-08
-2.441475e-10
-2.3659645e-10
7.3454056e-09
-6.743021e-10
7.5481026e-09
-6.8042199e-10
7.7462437e-09
-6.8350841e-10
7.9514792e-09
-6.8271335e-10
8.1531491e-09
-6.9046602e-10
8.3585442e-09
-6.8125089e-10
8.5641238e-09
-6.997066e-10
8.7698906e-09
-6.7914752e-10
8.9781441e-09
-7.0481797e-10
9.1847046e-09
-6.7635762e-10
9.3954053e-09
-7.1162288e-10
9.6024559e-09
-6.7235531e-10
9.8156928e-09
-7.1772344e-10
1.0022593e-08
-6.6560805e-10
1.0238512e-08
-7.2367301e-10
1.0445587e-08
-6.6210267e-10
1.0662803e-08
-7.2195058e-10
1.0870653e-08
-6.6495923e-10
1.1087859e-08
-7.1040491e-10
1.1295947e-08
-6.7407495e-10
1.1513859e-08
-6.9454207e-10
1.1720731e-08
-6.8291364e-10
1.1939994e-08
-6.7810403e-10
1.2145628e-08
-6.890435e-10
1.2366436e-08
-6.687794e-10
1.2572743e-08
-6.8893008e-10
1.2791805e-08
-6.6177389e-10
1.3000882e-08
-6.8436817e-10
1.3215749e-08
-6.5566516e-10
1.3428873e-08
-6.7787736e-10
1.364037e-08
-6.5495678e-10
1.3856491e-08
-6.6876784e-10
1.4064761e-08
-6.558868e-10
1.4281074e-08
-6.5201049e-10
1.4490459e-08
-6.5829842e-10
1.470436e-08
-6.3958595e-10
1.4913591e-08
-6.5063563e-10
1.5124807e-08
-6.3216621e-10
1.5331878e-08
-6.3606336e-10
1.5542114e-08
-6.2528794e-10
1.5745083e-08
-6.2587092e-10
1.595172e-08
-6.0715325e-10
1.6159001e-08
-6.288275e-10
1.6359592e-08
-5.9374329e-10
1.6572348e-08
-6.2381172e-10
1.6769546e-08
-5.939315e-10
1.6975134e-08
-5.8941928e-10
1.7174827e-08
-5.9757703e-10
1.7376763e-08
-5.6609694e-10
1.7573202e-08
-5.8827197e-10
1.7771854e-08
-5.6262682e-10
1.7965638e-08
-5.590919e-10
1.8162186e-08
-5.6384582e-10
1.8354979e-08
-5.3590821e-10
1.8547261e-08
-5.5943072e-10
1.8742134e-08
-5.3223662e-10
1.8936937e-08
-5.4822106e-10
1.9116783e-08
-5.1455434e-10
1.930471e-08
-4.998035e-10
1.9502595e-08
-5.4054772e-10
1.9679443e-08
-4.8645522e-10
1.9858634e-08
-4.9512987e-10
2.003806e-08
-4.7715909e-10
2.022093e-08
-4.7116283e-10
2.0395497e-08
-4.8354896e-10
2.056845e-08
-4.4940801e-10
2.0748721e-08
-4.7155088e-10
2.0927114e-08
-4.6510034e-10
2.1095054e-08
-4.3547715e-10
2.126098e-08
-4.3153562e-10
2.1432647e-08
-4.269146e-10
2.1596004e-08
-4.1359449e-10
2.1762004e-08
-4.1388753e-10
2.1925384e-08
-4.0752702e-10
-3.9706223e-10
7.9399478e-09
-8.9601336e-10
8.1768127e-09
-9.172869e-10
8.4025856e-09
-9.0928129e-10
8.6427503e-09
-9.2287801e-10
8.8739633e-09
-9.2167903e-10
9.1145081e-09
-9.217957e-10
9.351304e-09
-9.3650249e-10
9.5926476e-09
-9.2049114e-10
9.8333387e-09
-9.4550909e-10
1.0076503e-08
-9.1952198e-10
1.0320374e-08
-9.5549387e-10
1.0565227e-08
-9.1720818e-10
1.0812205e-08
-9.6470147e-10
1.1058162e-08
-9.1156476e-10
1.1308484e-08
-9.739958e-10
1.1555279e-08
-9.0889685e-10
1.1808392e-08
-9.7506349e-10
1.2056243e-08
-9.1281024e-10
1.2311362e-08
-9.6552443e-10
1.2558963e-08
-9.2167548e-10
1.2817402e-08
-9.5298184e-10
1.3063075e-08
-9.2858667e-10
1.3325715e-08
-9.4074403e-10
1.3569606e-08
-9.3293393e-10
1.3836728e-08
-9.3590202e-10
1.408102e-08
-9.3322191e-10
1.434799e-08
-9.2874354e-10
1.4596612e-08
-9.3299046e-10
1.4859045e-08
-9.1809772e-10
1.5113297e-08
-9.3213003e-10
1.5372103e-08
-9.1376246e-10
1.5630759e-08
-9.2742349e-10
1.5884091e-08
-9.0921899e-10
1.6146591e-08
-9.1451001e-10
1.6400284e-08
-9.1199174e-10
1.6662092e-08
-9.0139365e-10
1.6917122e-08
-9.0566593e-10
1.7175424e-08
-8.904679e-10
1.7432332e-08
-8.9297177e-10
1.7688833e-08
-8.8178938e-10
1.7940365e-08
-8.7740264e-10
1.8197749e-08
-8.6453682e-10
1.8449269e-08
-8.8034776e-10
1.8703809e-08
-8.4828372e-10
1.8961661e-08
-8.8166303e-10
1.9209295e-08
-8.415656e-10
1.9464328e-08
-8.4445269e-10
1.97146e-08
-8.4784892e-10
1.9970108e-08
-8.2160453e-10
2.0215952e-08
-8.3411658e-10
2.0471981e-08
-8.1865511e-10
2.0710868e-08
-7.9797933e-10
2.0962974e-08
-8.159516e-10
2.1204108e-08
-7.7704279e-10
2.1447257e-08
-8.0257964e-10
2.1702781e-08
-7.8776078e-10
2.1943664e-08
-7.8910395e-10
2.2175418e-08
-7.4630779e-10
2.2427861e-08
-7.5224624e-10
2.2673758e-08
-7.8644553e-10
2.290419e-08
-7.1688725e-10
2.3141241e-08
-7.3218104e-10
2.3373689e-08
-7.0960619e-10
2.3613975e-08
-7.114489e-10
2.3834911e-08
-7.0448515e-10
2.4066872e-08
-6.8136926e-10
2.4304212e-08
-7.0889048e-10
2.4536365e-08
-6.9725393e-10
2.4761215e-08
-6.6032699e-10
2.4986984e-08
-6.5730499e-10
2.5213507e-08
-6.5343698e-10
2.5430926e-08
-6.310133e-10
2.5652373e-08
-6.353347e-10
2.5871204e-08
-6.2635823e-10
-6.1325962e-10
8.3845354e-09
-1.1438419e-09
8.6529159e-09
-1.1856674e-09
8.90507e-09
-1.1614354e-09
9.1787644e-09
-1.1965724e-09
9.4367564e-09
-1.179671e-09
9.7125654e-09
-1.1976047e-09
9.9769473e-09
-1.2008844e-09
1.0254717e-08
-1.1982608e-09
1.0524363e-08
-1.2151549e-09
1.0804591e-08
-1.1997499e-09
1.1079055e-08
-1.2299579e-09
1.1361103e-08
-1.1992562e-09
1.1640239e-08
-1.2438372e-09
1.1923925e-08
-1.1952507e-09
1.2207579e-08
-1.2576506e-09
1.2492846e-08
-1.1941636e-09
1.2781233e-08
-1.2634505e-09
1.3068328e-08
-1.1999051e-09
1.3361419e-08
-1.2586153e-09
1.3648407e-08
-1.2086641e-09
1.3947488e-08
-1.2520627e-09
1.4233126e-08
-1.2142248e-09
1.4538112e-08
-1.2457298e-09
1.4823069e-08
-1.2178909e-09
1.5134261e-08
-1.247094e-09
1.54194e-08
-1.2183606e-09
1.5731831e-08
-1.2411748e-09
1.6021966e-08
-1.2231254e-09
1.6331398e-08
-1.22753e-09
1.662668e-08
-1.2274121e-09
1.6934804e-08
-1.2218857e-09
1.7234426e-08
-1.2270464e-09
1.7535796e-08
-1.2105887e-09
1.784407e-08
-1.2227839e-09
1.8143346e-08
-1.211268e-09
1.8454442e-08
-1.2124894e-09
1.875582e-08
-1.2070439e-09
1.9062308e-08
-1.1969561e-09
1.9371909e-08
-1.2025726e-09
1.9673186e-08
-1.1830668e-09
1.9979523e-08
-1.1837394e-09
2.0286684e-08
-1.1716975e-09
2.0587592e-08
-1.1812555e-09
2.0899671e-08
-1.1603627e-09
2.1203877e-08
-1.1858699e-09
2.1508847e-08
-1.1465353e-09
2.1813062e-08
-1.148668e-09
2.211898e-08
-1.1537665e-09
2.2425726e-08
-1.1283505e-09
2.2726147e-08
-1.1345375e-09
2.3038972e-08
-1.1314799e-09
2.3327239e-08
-1.0862468e-09
2.3643956e-08
-1.1326689e-09
2.3931982e-08
-1.0650684e-09
2.4235369e-08
-1.105967e-09
2.4550126e-08
-1.1025171e-09
2.4832858e-08
-1.0718366e-09
2.5128398e-08
-1.0418473e-09
2.5447958e-08
-1.0718059e-09
2.5737774e-08
-1.0762619e-09
2.603188e-08
-1.010993e-09
2.6328538e-08
-1.0288392e-09
2.6619294e-08
-1.0003627e-09
2.6918248e-08
-1.0104021e-09
2.7192751e-08
-9.7898843e-10
2.74906e-08
-9.7921871e-10
2.7783837e-08
-1.0021276e-09
2.8065973e-08
-9.7938968e-10
2.8351154e-08
-9.4550741e-10
2.8639916e-08
-9.4606711e-10
2.8921084e-08
-9.3460557e-10
2.9205688e-08
-9.1561655e-10
2.949263e-08
-9.2227681e-10
2.976472e-08
-8.9844897e-10
-8.8947911e-10
8.7064993e-09
-1.4226331e-09
8.9977695e-09
-1.4769375e-09
9.2795128e-09
-1.4431788e-09
9.5802632e-09
-1.4973228e-09
9.8651181e-09
-1.4645259e-09
1.0173151e-08
-1.5056373e-09
1.0462379e-08
-1.4901128e-09
1.0776142e-08
-1.5120239e-09
1.1070539e-08
-1.5095517e-09
1.1388762e-08
-1.517973e-09
1.1689467e-08
-1.5306627e-09
1.2010041e-08
-1.5198304e-09
1.2318069e-08
-1.5518656e-09
1.2640447e-08
-1.5176287e-09
1.2955443e-08
-1.5726468e-09
1.3280008e-08
-1.5187276e-09
1.3602321e-08
-1.5857638e-09
1.392927e-08
-1.5268541e-09
1.4259773e-08
-1.5891182e-09
1.4586267e-08
-1.5351584e-09
1.4925846e-08
-1.5916419e-09
1.525121e-08
-1.5395885e-09
1.5597832e-08
-1.5923519e-09
1.5924935e-08
-1.5449937e-09
1.627756e-08
-1.5997189e-09
1.6605501e-08
-1.5463016e-09
1.696091e-08
-1.5965841e-09
1.7293829e-08
-1.5560443e-09
1.7649906e-08
-1.5836066e-09
1.7985856e-08
-1.563363e-09
1.8345397e-08
-1.5814263e-09
1.8684486e-08
-1.5661354e-09
1.9037726e-08
-1.5638287e-09
1.939079e-08
-1.5758475e-09
1.9738097e-08
-1.558575e-09
2.0100071e-08
-1.5744633e-09
2.0447746e-08
-1.5547197e-09
2.0805661e-08
-1.5548703e-09
2.1166855e-08
-1.5637672e-09
2.1514301e-08
-1.5305124e-09
2.1878695e-08
-1.548134e-09
2.2232496e-08
-1.5254978e-09
2.2588185e-08
-1.5369444e-09
2.2955522e-08
-1.5277e-09
2.3307813e-08
-1.5381607e-09
2.3671713e-08
-1.5104356e-09
2.4023822e-08
-1.5007773e-09
2.438982e-08
-1.5197637e-09
2.4745903e-08
-1.4844338e-09
2.5105888e-08
-1.4945229e-09
2.5467596e-08
-1.4931878e-09
2.5809462e-08
-1.428113e-09
2.6185782e-08
-1.5089885e-09
2.6520342e-08
-1.3996283e-09
2.6896398e-08
-1.4820232e-09
2.7255675e-08
-1.4617938e-09
2.7583381e-08
-1.3995427e-09
2.7955143e-08
-1.4136095e-09
2.8323661e-08
-1.4403241e-09
2.8656738e-08
-1.4093389e-09
2.9021923e-08
-1.3761777e-09
2.9370314e-08
-1.3772302e-09
2.9724486e-08
-1.3545349e-09
3.0068758e-08
-1.3546739e-09
3.0399648e-08
-1.309878e-09
3.0768864e-08
-1.348435e-09
3.1111373e-08
-1.3446369e-09
3.1441971e-08
-1.3099879e-09
3.1791642e-08
-1.2951778e-09
3.2141658e-08
-1.2960836e-09
3.2467559e-08
-1.2605061e-09
3.2817561e-08
-1.2656188e-09
3.3167321e-08
-1.2720367e-09
3.3497309e-08
-1.2284365e-09
-1.2227998e-09
8.9225752e-09
-1.7344282e-09
9.2275185e-09
-1.7818809e-09
9.5440586e-09
-1.7597189e-09
9.8607442e-09
-1.8140084e-09
1.0178866e-08
-1.7826475e-09
1.0508665e-08
-1.8354363e-09
1.0828319e-08
-1.8097676e-09
1.1170089e-08
-1.8537933e-09
1.1492703e-08
-1.832166e-09
1.184475e-08
-1.8700198e-09
1.2172051e-08
-1.8579639e-09
1.2531437e-08
-1.8792158e-09
1.2865807e-08
-1.8862361e-09
1.3229992e-08
-1.8818135e-09
1.3572262e-08
-1.9149167e-09
1.3940093e-08
-1.8865586e-09
1.42916e-08
-1.9372705e-09
1.4662233e-08
-1.8974871e-09
1.5024698e-08
-1.9515832e-09
1.5394674e-08
-1.9051349e-09
1.5769087e-08
-1.9660542e-09
1.6136705e-08
-1.9072071e-09
1.6521477e-08
-1.9771236e-09
1.6892396e-08
-1.9159127e-09
1.7283774e-08
-1.9910974e-09
1.765607e-08
-1.9185969e-09
1.805261e-08
-1.9931245e-09
1.8429737e-08
-1.9331714e-09
1.8831755e-08
-1.9856244e-09
1.9209688e-08
-1.941296e-09
1.962025e-08
-1.9919881e-09
1.9997598e-08
-1.943484e-09
2.0407376e-08
-1.9736067e-09
2.079872e-08
-1.9671915e-09
2.120019e-08
-1.9600448e-09
2.1608008e-08
-1.9822811e-09
2.2003068e-08
-1.9497798e-09
2.241389e-08
-1.9656926e-09
2.2818091e-08
-1.9679682e-09
2.3217704e-08
-1.9301253e-09
2.3632395e-08
-1.9628249e-09
2.4031073e-08
-1.9241759e-09
2.4441532e-08
-1.9474031e-09
2.4853629e-08
-1.9397968e-09
2.5256601e-08
-1.9411325e-09
2.5669643e-08
-1.9234774e-09
2.6069106e-08
-1.9002405e-09
2.6484266e-08
-1.9349238e-09
2.6888289e-08
-1.8884568e-09
2.7306258e-08
-1.9124925e-09
2.7703547e-08
-1.8904764e-09
2.8109222e-08
-1.8337876e-09
2.8521011e-08
-1.9207778e-09
2.8902074e-08
-1.7806916e-09
2.9353858e-08
-1.9338071e-09
2.9722423e-08
-1.8303586e-09
3.010834e-08
-1.7854601e-09
3.0558271e-08
-1.8635402e-09
3.0944489e-08
-1.8265417e-09
3.1322882e-08
-1.7877326e-09
3.1754803e-08
-1.8080978e-09
3.2139006e-08
-1.7614341e-09
3.2562194e-08
-1.7777227e-09
3.2928813e-08
-1.7212923e-09
3.3318104e-08
-1.6991695e-09
3.3753395e-08
-1.7837255e-09
3.4130796e-08
-1.722038e-09
3.4511792e-08
-1.6909847e-09
3.4918239e-08
-1.7016241e-09
3.5317165e-08
-1.6950097e-09
3.5681875e-08
-1.6252158e-09
3.6094539e-08
-1.6782837e-09
3.6486682e-08
-1.6641793e-09
3.6866845e-08
-1.6085991e-09
-1.6024762e-09
9.0380967e-09
-2.0696166e-09
9.3606202e-09
-2.1044044e-09
9.7079104e-09
-2.1070091e-09
1.0038907e-08
-2.1450054e-09
1.0393604e-08
-2.1373435e-09
1.0737219e-08
-2.1790518e-09
1.1096697e-08
-2.1692459e-09
1.1454347e-08
-2.2114429e-09
1.181728e-08
-2.195099e-09
1.2190101e-08
-2.2428404e-09
1.2554907e-08
-2.2227705e-09
1.2942471e-08
-2.2667795e-09
1.3309741e-08
-2.2535065e-09
1.3709471e-08
-2.2815437e-09
1.4080574e-08
-2.2860192e-09
1.4489518e-08
-2.2955029e-09
1.4868244e-08
-2.3159959e-09
1.5283251e-08
-2.3124948e-09
1.5672392e-08
-2.3407236e-09
1.6090971e-08
-2.3237138e-09
1.6491251e-08
-2.3663341e-09
1.6908235e-08
-2.3241921e-09
1.7322719e-08
-2.3916067e-09
1.7744368e-08
-2.3375624e-09
1.8167e-08
-2.4137288e-09
1.8588924e-08
-2.3405218e-09
1.9020597e-08
-2.4247973e-09
1.9445679e-08
-2.3582535e-09
1.9886074e-08
-2.4260189e-09
2.0313252e-08
-2.3684739e-09
2.076203e-08
-2.4407663e-09
2.1181775e-08
-2.363229e-09
2.1644242e-08
-2.4360738e-09
2.206315e-08
-2.3860992e-09
2.2524316e-08
-2.4212108e-09
2.2959721e-08
-2.4176859e-09
2.3406072e-08
-2.3961313e-09
2.3858142e-08
-2.4177628e-09
2.4293797e-08
-2.4036227e-09
2.4747342e-08
-2.3836703e-09
2.519306e-08
-2.4085433e-09
2.5632594e-08
-2.3637097e-09
2.6090026e-08
-2.4048357e-09
2.6526708e-08
-2.3764784e-09
2.6980435e-08
-2.3948595e-09
2.7419373e-08
-2.362415e-09
2.7865712e-08
-2.3465796e-09
2.8303807e-08
-2.3730188e-09
2.8760735e-08
-2.3453856e-09
2.9214524e-08
-2.3662812e-09
2.9637377e-08
-2.313329e-09
3.0107758e-08
-2.3041689e-09
3.052284e-08
-2.3358593e-09
3.0956018e-08
-2.2138696e-09
3.1470932e-08
-2.4487212e-09
3.1815228e-08
-2.1746547e-09
3.2252143e-08
-2.2223756e-09
3.2766203e-08
-2.3775995e-09
3.3116253e-08
-2.176592e-09
3.3577251e-08
-2.2487305e-09
3.4066431e-08
-2.2972785e-09
3.4476144e-08
-2.1711467e-09
3.4991893e-08
-2.2934718e-09
3.5327339e-08
-2.0567382e-09
3.5768604e-08
-2.1404348e-09
3.62836e-08
-2.2987215e-09
3.6638389e-08
-2.0768269e-09
3.7027039e-08
-2.0796341e-09
3.7454124e-08
-2.1287094e-09
3.7857722e-08
-2.0986073e-09
3.8144904e-08
-1.9123979e-09
3.8547691e-08
-2.081071e-09
3.8902591e-08
-2.0190789e-09
3.9181401e-08
-1.8874089e-09
-1.8895135e-09
9.0682958e-09
-2.4190743e-09
9.4190871e-09
-2.4551957e-09
9.7847345e-09
-2.4726565e-09
1.0142195e-08
-2.5024662e-09
1.0521859e-08
-2.5170075e-09
1.0887963e-08
-2.5451552e-09
1.1279978e-08
-2.5612616e-09
1.1655497e-08
-2.5869615e-09
1.2057559e-08
-2.5971615e-09
1.2445341e-08
-2.6306219e-09
1.2852852e-08
-2.6302821e-09
1.3256193e-08
-2.6701203e-09
1.3666489e-08
-2.6638026e-09
1.4086156e-08
-2.7012106e-09
1.4498296e-08
-2.6981595e-09
1.4933247e-08
-2.7304538e-09
1.5351243e-08
-2.7339911e-09
1.5797187e-08
-2.7584388e-09
1.6223193e-08
-2.7667299e-09
1.6681257e-08
-2.7817785e-09
1.7112529e-08
-2.7976054e-09
1.7574282e-08
-2.7859458e-09
1.8018187e-08
-2.8355109e-09
1.8490529e-08
-2.809905e-09
1.8937256e-08
-2.8604556e-09
1.9410807e-08
-2.8140731e-09
1.9867877e-08
-2.8818665e-09
2.0340592e-08
-2.8309684e-09
2.0804809e-08
-2.8902362e-09
2.1287015e-08
-2.85068e-09
2.1747196e-08
-2.9009476e-09
2.2218078e-08
-2.8341105e-09
2.2706294e-08
-2.92429e-09
2.3152968e-08
-2.8327738e-09
2.3653641e-08
-2.921883e-09
2.4104001e-08
-2.868046e-09
2.4589993e-08
-2.882124e-09
2.5063697e-08
-2.8914667e-09
2.5517413e-08
-2.8573386e-09
2.6016092e-08
-2.8823489e-09
2.6472758e-08
-2.8652098e-09
2.6942172e-08
-2.8331231e-09
2.7434604e-08
-2.8972684e-09
2.7864284e-08
-2.8061579e-09
2.8363289e-08
-2.8938645e-09
2.8777187e-08
-2.7763131e-09
2.9287092e-08
-2.8564846e-09
2.9739691e-08
-2.8256173e-09
3.025588e-08
-2.8615747e-09
3.0739975e-08
-2.8503765e-09
3.1142369e-08
-2.7157232e-09
3.1674232e-08
-2.8360315e-09
3.200808e-08
-2.6697072e-09
3.2300852e-08
-2.506642e-09
3.29799e-08
-3.1277686e-09
3.3016801e-08
-2.211556e-09
3.282701e-08
-2.0325847e-09
3.287963e-08
-2.4302199e-09
3.3110327e-08
-2.4072887e-09
3.3237855e-08
-2.3762584e-09
3.3627418e-08
-2.6868422e-09
3.3951367e-08
-2.4950952e-09
3.4407011e-08
-2.7491158e-09
3.425458e-08
-1.9043071e-09
3.3996625e-08
-1.8824798e-09
3.4499338e-08
-2.8014345e-09
3.443586e-08
-2.0133496e-09
3.4297776e-08
-1.94155e-09
3.4280232e-08
-2.1111652e-09
3.4195188e-08
-2.013563e-09
3.4053474e-08
-1.7706843e-09
3.3746497e-08
-1.7740939e-09
3.3747723e-08
-2.0203045e-09
3.358989e-08
-1.7295757e-09
-1.7010013e-09
9.0404161e-09
-2.78814e-09
9.4142533e-09
-2.829033e-09
9.7968121e-09
-2.8552152e-09
1.018195e-08
-2.8876044e-09
1.0576933e-08
-2.9119902e-09
1.097355e-08
-2.9417722e-09
1.1382131e-08
-2.9698425e-09
1.178796e-08
-2.9927902e-09
1.2211602e-08
-3.0208038e-09
1.2626724e-08
-3.0457437e-09
1.3063061e-08
-3.0666191e-09
1.3490498e-08
-3.0975574e-09
1.3936949e-08
-3.1102532e-09
1.4378421e-08
-3.1426828e-09
1.4832597e-08
-3.1523356e-09
1.5288397e-08
-3.1862542e-09
1.5753201e-08
-3.1987943e-09
1.621831e-08
-3.2235478e-09
1.669247e-08
-3.2408903e-09
1.7173372e-08
-3.2626807e-09
1.7647758e-08
-3.2719909e-09
1.81332e-08
-3.2713883e-09
1.8617053e-08
-3.3193633e-09
1.9116233e-08
-3.3090851e-09
1.9592231e-08
-3.3364535e-09
2.0093333e-08
-3.3151756e-09
2.0575727e-08
-3.3642608e-09
2.1070421e-08
-3.3256616e-09
2.1553116e-08
-3.3729321e-09
2.2066555e-08
-3.3641188e-09
2.2525103e-08
-3.3594958e-09
2.3029541e-08
-3.3385481e-09
2.352615e-08
-3.420899e-09
2.398737e-08
-3.2939941e-09
2.4500833e-08
-3.4353453e-09
2.4953857e-08
-3.3210703e-09
2.5426043e-08
-3.3543097e-09
2.5943938e-08
-3.4093622e-09
2.6393974e-08
-3.3073742e-09
2.6951896e-08
-3.4402711e-09
2.7370186e-08
-3.2835002e-09
2.7789149e-08
-3.2520855e-09
2.8237561e-08
-3.3456805e-09
2.847378e-08
-3.0423767e-09
2.8531662e-08
-2.9517463e-09
2.8125719e-08
-2.3703708e-09
2.8606059e-08
-3.3368238e-09
2.8848044e-08
-3.0676024e-09
2.8962184e-08
-2.9757151e-09
2.9297484e-08
-3.1856767e-09
2.9079561e-08
-2.4978005e-09
2.9156886e-08
-2.9133559e-09
2.8801692e-08
-2.3145133e-09
2.8090649e-08
-1.7955987e-09
2.8140381e-08
-3.1775004e-09
2.7368849e-08
-1.4400246e-09
2.6406905e-08
-1.0706404e-09
2.5531417e-08
-1.5547316e-09
2.4587331e-08
-1.4632029e-09
2.3547224e-08
-1.336151e-09
2.2502342e-08
-1.6419604e-09
2.1738756e-08
-1.7315094e-09
2.0495724e-08
-1.5060836e-09
1.912327e-08
-5.3185359e-10
1.7820585e-08
-5.7979427e-10
1.6279368e-08
-1.2602175e-09
1.5002361e-08
-7.3634243e-10
1.5008774e-08
-1.9479635e-09
1.3088806e-08
-1.9119669e-10
1.2728466e-08
-1.6532236e-09
1.3046424e-08
-2.0886424e-09
1.0620406e-08
6.5192419e-10
1.0808316e-08
-2.2082146e-09
1.1544971e-08
-2.4662303e-09
-1.8083341e-09
8.9625238e-09
-3.1791584e-09
9.3490184e-09
-3.2155276e-09
9.7545165e-09
-3.2607134e-09
1.0155427e-08
-3.2885149e-09
1.0572358e-08
-3.3289208e-09
1.0990391e-08
-3.3598052e-09
1.1419249e-08
-3.3987005e-09
1.1852569e-08
-3.4261112e-09
1.2296394e-08
-3.4646281e-09
1.2742725e-08
-3.4920752e-09
1.3201594e-08
-3.5254874e-09
1.3662252e-08
-3.5582158e-09
1.4134105e-08
-3.5821061e-09
1.4609881e-08
-3.6184587e-09
1.5091427e-08
-3.6338823e-09
1.5580056e-08
-3.6748829e-09
1.6075036e-08
-3.6937745e-09
1.6566316e-08
-3.7148272e-09
1.7070641e-08
-3.745216e-09
1.757377e-08
-3.7658088e-09
1.8073236e-08
-3.7714569e-09
1.8573131e-08
-3.7712838e-09
1.9078224e-08
-3.8244563e-09
1.9585828e-08
-3.8166893e-09
2.0075408e-08
-3.8260332e-09
2.0575257e-08
-3.8150242e-09
2.1074688e-08
-3.8636917e-09
2.1566037e-08
-3.8170108e-09
2.20462e-08
-3.8530949e-09
2.2567299e-08
-3.8852185e-09
2.3013072e-08
-3.8052682e-09
2.3534755e-08
-3.860232e-09
2.4050406e-08
-3.9365494e-09
2.4377603e-08
-3.6211909e-09
2.4894461e-08
-3.9522035e-09
2.4807641e-08
-3.2342507e-09
2.4633744e-08
-3.1804125e-09
2.5141468e-08
-3.9170864e-09
2.5134699e-08
-3.3006052e-09
2.5216804e-08
-3.5223764e-09
2.5116474e-08
-3.1831692e-09
2.4596152e-08
-2.7317636e-09
2.4276508e-08
-3.0260372e-09
2.3476835e-08
-2.2427036e-09