/*--------------------------------*- C++ -*----------------------------------*\
| =========                 |                                                 |
| \\      /  F ield         | OpenFOAM: The Open Source CFD Toolbox           |
|  \\    /   O peration     | Version:  2.3.0                                 |
|   \\  /    A nd           | Web:      www.OpenFOAM.org                      |
|    \\/     M anipulation  |                                                 |
\*---------------------------------------------------------------------------*/
FoamFile
{
    version     2.0;
    format      ascii;
    class       volVectorField;
    location    "2.3e-05";
    object      U;
}
// * * * * * * * * * * * * * * * * * * * * * * * * * * * * * * * * * * * * * //

dimensions      [0 1 -1 0 0 0 0];

internalField   nonuniform List<vector> 
7500
(
(459.97915 -0.0012077989 -1.6610343e-17)
(460.05112 0.0075341081 2.8311952e-15)
(459.86838 -0.018286784 2.3172965e-15)
(459.97897 0.011689984 -5.183013e-16)
(459.8756 -0.0038177775 3.8146626e-15)
(459.96621 0.011065585 5.7077675e-15)
(459.93175 -0.025421279 2.0062148e-15)
(459.92416 0.034159608 5.603801e-15)
(459.95675 -0.038224641 4.9551752e-15)
(459.93957 0.035893263 1.3101476e-15)
(459.94806 -0.037324589 7.4399092e-16)
(459.94253 0.034946778 -1.7257695e-15)
(459.92958 -0.034904893 1.6346489e-15)
(459.95554 0.03684851 1.5855335e-15)
(459.94869 -0.035170272 1.3267067e-15)
(459.95558 0.033267389 6.9284694e-16)
(459.96709 -0.039426797 9.8337553e-16)
(459.92461 0.043463814 -9.8594364e-16)
(459.99815 -0.037189419 1.2029916e-15)
(459.89895 0.027276791 8.7380056e-16)
(459.98865 -0.010519146 -1.4397492e-15)
(459.89881 -0.0087192426 1.3384504e-15)
(459.96559 0.03058613 1.2317188e-15)
(459.91764 -0.049462406 -2.074908e-15)
(459.93846 0.064436657 1.1422529e-15)
(459.95687 -0.072021291 1.1490151e-15)
(459.91907 0.070247524 1.4467693e-15)
(459.96922 -0.061646371 -1.2549939e-15)
(459.89334 0.049761616 -1.3550267e-15)
(459.94437 -0.035641348 3.0338243e-15)
(459.91697 0.025563065 -7.4558867e-16)
(459.91813 -0.01344586 7.2356206e-16)
(459.93564 -0.0057879829 3.7412451e-16)
(459.8916 0.023996952 -1.2821455e-15)
(459.92662 -0.032766487 -2.7898047e-16)
(459.8706 0.041767939 1.0477189e-15)
(459.90024 -0.04322941 -1.1899673e-15)
(459.8917 0.037197617 1.1066854e-15)
(459.86427 -0.038277924 7.4860472e-16)
(459.97928 0.043056763 1.1097011e-15)
(459.8228 -0.048405415 7.2139023e-16)
(459.99671 0.042827892 3.8714101e-16)
(459.84339 -0.023099538 3.1316494e-15)
(459.9467 -0.0033690968 2.9185862e-15)
(459.91276 0.029498101 2.9809197e-16)
(459.88778 -0.048532216 -1.7521169e-15)
(459.99078 0.032320115 -1.0702794e-15)
(459.86388 -0.019068004 -1.116537e-15)
(459.99633 0.041351151 4.5706257e-16)
(459.89669 -0.045388542 7.2257555e-16)
(459.93654 0.014558204 6.6592067e-16)
(459.87296 0.015494402 2.7575497e-15)
(459.95761 -0.022466363 5.7165327e-16)
(459.8788 0.035220524 5.8639462e-16)
(459.97229 -0.035024409 3.0602589e-16)
(459.86073 0.0058745634 -1.0390504e-15)
(459.94627 0.017826371 5.4834082e-16)
(459.89402 -0.023033621 1.2080458e-16)
(459.90669 0.0066601137 3.6025358e-16)
(459.92092 0.02273988 5.0579768e-16)
(459.86973 -0.0059726312 6.5075287e-16)
(459.87765 -0.037957666 2.1132837e-15)
(459.78999 0.029595565 1.7398814e-16)
(459.84685 0.017829076 -9.4932803e-16)
(459.79546 -0.024395435 -1.221229e-15)
(459.73419 0.0053510851 3.2610508e-16)
(459.81929 -0.0054588479 5.309016e-17)
(459.69623 0.010906718 4.1437473e-16)
(459.79677 -0.018873255 6.5469078e-16)
(459.76842 -0.014870187 -1.2631993e-15)
(459.86117 0.037365073 -1.6176127e-15)
(459.8501 -0.01151815 7.4167355e-16)
(459.86941 -0.011303254 2.2737712e-15)
(459.79835 -0.0046832282 6.582607e-16)
(459.86646 -0.0021165293 2.2088305e-15)
(459.97618 0.00057529729 6.4242764e-17)
(460.05314 0.010231046 -5.8371222e-17)
(459.86423 -0.029251709 2.2445941e-17)
(459.98255 0.037317229 -7.6608018e-18)
(459.87155 -0.037186625 5.1547598e-17)
(459.96532 0.053472656 6.1657479e-17)
(459.93128 -0.055133473 2.0565617e-16)
(459.92484 0.052725928 4.4036924e-17)
(459.95535 -0.051872697 3.1085219e-16)
(459.94339 0.059485448 2.284487e-16)
(459.94609 -0.068830823 2.823059e-16)
(459.94634 0.072640817 2.2829321e-16)
(459.92758 -0.079897874 2.444082e-16)
(459.95733 0.086441789 -5.4415806e-16)
(459.94679 -0.089798068 1.4661556e-16)
(459.95553 0.086063181 -6.1750213e-16)
(459.96778 -0.073910342 2.1678274e-16)
(459.92451 0.05263793 5.3075571e-16)
(459.99773 -0.024807982 1.4305425e-16)
(459.9014 -0.00093534769 4.2584162e-16)
(459.98735 0.029547391 8.192834e-17)
(459.90267 -0.057094318 5.2980274e-16)
(459.96429 0.087294383 2.3108852e-16)
(459.91977 -0.10688764 1.2126567e-15)
(459.93696 0.11465705 6.0056583e-17)
(459.95594 -0.11410027 6.2107282e-16)
(459.91734 0.10245931 -6.3892713e-16)
(459.96721 -0.083015521 -2.4550293e-16)
(459.88984 0.061645851 1.8485728e-15)
(459.94263 -0.033072793 3.781378e-16)
(459.91108 0.0072457667 2.092107e-16)
(459.91526 0.020360582 1.971725e-16)
(459.93388 -0.044193735 1.876106e-17)
(459.89192 0.059120229 3.9083953e-16)
(459.92897 -0.060345606 6.6623019e-17)
(459.87582 0.066692492 3.5977836e-16)
(459.90308 -0.061057417 1.5710625e-16)
(459.89598 0.052547742 -5.9575939e-16)
(459.86542 -0.05780579 4.0996761e-17)
(459.97584 0.056579392 2.9277131e-16)
(459.82144 -0.050243505 7.6422531e-17)
(459.9944 0.037192739 -5.7770514e-16)
(459.83996 -0.014472938 2.4824953e-16)
(459.95025 -0.010499285 1.3741221e-16)
(459.91347 0.034113017 6.7142365e-17)
(459.89022 -0.061100359 -4.3387763e-16)
(460.0012 0.057449459 -4.4256881e-17)
(459.86897 -0.061123123 -4.7361386e-16)
(459.99977 0.078857702 2.4079948e-16)
(459.8965 -0.061020841 2.8813797e-16)
(459.9466 0.0106511 2.0551812e-16)
(459.86763 0.042497421 -3.354141e-16)
(459.95915 -0.055669118 1.4306411e-16)
(459.87385 0.058041672 -4.8836974e-16)
(459.96629 -0.046117271 2.3560159e-16)
(459.86577 0.0072062958 2.8769772e-16)
(459.94253 0.024275748 2.4616763e-16)
(459.89869 -0.033789147 2.339664e-16)
(459.91547 0.016386323 1.7255525e-16)
(459.93036 0.023917755 -4.819872e-16)
(459.86741 0.00088565007 2.4308462e-16)
(459.89177 -0.057201653 2.8006735e-16)
(459.79707 0.054271611 2.9343983e-16)
(459.84698 0.048228877 2.7042846e-16)
(459.79153 -0.060946775 -3.3502736e-16)
(459.74161 0.021208737 2.6161219e-16)
(459.81832 -0.013482473 -3.5692868e-16)
(459.70023 0.012316662 1.7564394e-16)
(459.79536 0.006394314 2.1068496e-16)
(459.77662 -0.034292479 1.8888374e-16)
(459.86431 0.036924986 7.8149843e-16)
(459.83898 -0.0095365499 -5.0211856e-16)
(459.87139 -0.0061394859 1.3117205e-16)
(459.79208 -0.00029253878 1.5369636e-16)
(459.86952 -0.0045347972 1.5170725e-16)
(459.95522 -0.0040247513 3.8553109e-17)
(460.06803 0.03321541 -7.8525594e-16)
(459.85069 -0.053876569 7.5566422e-17)
(459.99126 0.064999909 -9.4610482e-17)
(459.86019 -0.062398304 6.3549245e-17)
(459.96665 0.076850025 4.14391e-16)
(459.91826 -0.080332357 1.5240435e-16)
(459.92873 0.080822444 9.2033032e-18)
(459.94566 -0.086082836 -1.1644021e-16)
(459.94845 0.098511903 1.7534061e-16)
(459.93795 -0.10939863 1.1393855e-18)
(459.95111 0.1153046 -8.9750643e-16)
(459.92009 -0.12658714 -3.5076802e-16)
(459.95846 0.13139265 7.0696307e-16)
(459.93983 -0.13161175 6.5927444e-16)
(459.95741 0.12210944 -6.6131399e-16)
(459.96048 -0.10333395 4.2755402e-16)
(459.92844 0.077595864 -2.8722564e-17)
(459.99432 -0.043169891 -9.3253408e-17)
(459.90539 0.0040033313 -1.3016546e-16)
(459.98883 0.044054582 2.1424384e-17)
(459.90691 -0.094127384 4.2252163e-16)
(459.96752 0.14254233 5.9147675e-16)
(459.91772 -0.16935666 -1.3016645e-16)
(459.93771 0.17418169 5.022381e-17)
(459.94729 -0.16738026 9.5536889e-18)
(459.911 0.14568932 -5.8605207e-16)
(459.9568 -0.11396651 -2.720808e-17)
(459.87616 0.080604392 -4.2889954e-16)
(459.9307 -0.035608459 4.734102e-16)
(459.89296 -0.0010156732 1.0660853e-16)
(459.9035 0.037308666 -1.144749e-16)
(459.91981 -0.07035615 -4.2641706e-16)
(459.89437 0.092170975 -4.5044483e-17)
(459.93041 -0.094180409 1.9567788e-16)
(459.89138 0.094661396 -1.7205044e-17)
(459.91522 -0.080465768 -4.6445372e-16)
(459.90658 0.069808739 -5.8512718e-16)
(459.87501 -0.074124012 3.72517e-17)
(459.97061 0.06733088 -1.0490083e-16)
(459.81965 -0.058403025 -8.7667259e-18)
(459.98375 0.044208609 4.459454e-17)
(459.83891 -0.01716591 -3.6142527e-16)
(459.94978 -0.013521105 -3.1647076e-17)
(459.91933 0.04198268 -2.2126488e-18)
(459.90261 -0.077792398 -4.3169972e-17)
(460.01355 0.075779458 2.580935e-16)
(459.88818 -0.08761289 3.7652176e-16)
(460.01196 0.10295252 -4.5442528e-16)
(459.90185 -0.072550735 -1.2346898e-16)
(459.9649 0.010279191 5.0961187e-16)
(459.86673 0.046948021 7.8554593e-16)
(459.95737 -0.061997966 4.4113668e-17)
(459.87746 0.075542591 -1.1218465e-16)
(459.95385 -0.066703526 -1.157892e-16)
(459.87615 0.016882442 3.5180412e-16)
(459.93956 0.011084551 -7.4452098e-16)
(459.90687 -0.025359689 2.8143174e-17)
(459.93739 0.028857064 1.2326766e-17)
(459.94346 0.0051077479 -4.3963173e-16)
(459.87451 0.030682303 -3.9946243e-16)
(459.91179 -0.079409417 -3.1292374e-16)
(459.82057 0.051152428 2.6362122e-17)
(459.83679 0.090900916 1.0674036e-16)
(459.78227 -0.079085279 -3.2958807e-16)
(459.75844 0.036457663 -8.2636949e-16)
(459.80869 -0.033687994 5.2826394e-17)
(459.71856 -0.0055329818 9.0677929e-17)
(459.78729 0.020075227 8.2278568e-17)
(459.78662 -0.035398761 3.624765e-17)
(459.87319 0.04936863 -9.7599364e-19)
(459.82784 -0.0052315367 2.1200215e-17)
(459.87867 -0.014821118 -3.3553724e-18)
(459.78214 -0.0041378485 3.8385046e-16)
(459.88154 -0.0078963425 3.7813542e-16)
(459.86178 -0.0084137718 1.7503403e-18)
(460.13681 0.05326172 7.7923092e-17)
(459.78756 -0.069414474 -6.8344861e-16)
(460.03525 0.072329745 -6.3389322e-16)
(459.81622 -0.06818768 1.0385734e-16)
(459.98471 0.079114713 -5.6013062e-16)
(459.88114 -0.092503162 1.2026175e-16)
(459.94377 0.098334455 -8.0386495e-17)
(459.91212 -0.10679025 2.6228569e-17)
(459.96741 0.11776508 -3.2714264e-16)
(459.91 -0.12593587 -5.3764401e-16)
(459.9633 0.12958742 3.7444923e-16)
(459.89727 -0.14208662 5.9415313e-16)
(459.96384 0.15043719 5.6119919e-16)
(459.92027 -0.159378 6.0171066e-16)
(459.9621 0.1586581 -6.14119e-17)
(459.95022 -0.15314517 -5.2100922e-17)
(459.93452 0.13262765 1.7479968e-17)
(459.9901 -0.090227906 -4.4940616e-16)
(459.91757 0.03491998 9.2145029e-17)
(459.98657 0.030466822 -5.8771349e-17)
(459.91877 -0.096002797 5.8127541e-16)
(459.96555 0.15673217 -7.0179012e-17)
(459.91625 -0.19208183 1.2831834e-16)
(459.92637 0.20374405 3.6316615e-16)
(459.93212 -0.19369868 5.4014223e-17)
(459.88544 0.16756147 -4.0955028e-16)
(459.93369 -0.13103851 8.5546628e-18)
(459.84131 0.099144215 4.0712097e-16)
(459.90471 -0.05128138 -3.2011076e-16)
(459.85527 0.017307707 3.2844227e-16)
(459.87949 0.018822205 8.648271e-17)
(459.89701 -0.062958503 1.4974802e-17)
(459.89201 0.091560793 3.2595063e-16)
(459.93518 -0.10179404 -4.6494802e-17)
(459.91888 0.099543806 5.4983913e-17)
(459.94553 -0.088119621 -3.3523681e-17)
(459.93312 0.077270487 -3.5580668e-16)
(459.90675 -0.069683761 3.240681e-16)
(459.97367 0.063516445 7.5316191e-17)
(459.83488 -0.06567027 -1.1492658e-17)
(459.97524 0.063732018 1.3236082e-17)
(459.84504 -0.04128847 -3.1976167e-17)
(459.95664 0.0031836689 -6.6943694e-18)
(459.93005 0.022770463 -2.3838643e-17)
(459.92702 -0.067255491 -4.5962483e-17)
(460.03297 0.068390542 -6.4477441e-17)
(459.92495 -0.090976433 2.7145163e-19)
(460.0291 0.12022316 -5.1107417e-17)
(459.92747 -0.086548711 3.0515065e-16)
(459.98635 0.027162422 -5.3096043e-18)
(459.88879 0.025652182 8.9935963e-17)
(459.96166 -0.051470755 3.230867e-16)
(459.89275 0.090832015 -5.6061428e-17)
(459.94439 -0.088133 3.0555235e-18)
(459.89403 0.031663485 7.0236332e-17)
(459.94409 -0.018644017 -3.4728295e-16)
(459.91891 -0.016523756 -8.6160908e-19)
(459.96745 0.058028914 3.4812936e-16)
(459.95428 -0.029332659 -2.0744254e-17)
(459.90203 0.053385823 2.2893124e-17)
(459.91653 -0.07616564 4.917131e-18)
(459.86423 0.042472039 -3.0896984e-16)
(459.82421 0.10333944 -2.2952126e-16)
(459.76752 -0.080796021 2.1095826e-16)
(459.76957 0.051605996 -6.7517602e-17)
(459.78398 -0.042827805 2.8517439e-16)
(459.74365 -0.020184311 -2.9322355e-18)
(459.77909 0.012217002 -2.6715508e-16)
(459.80923 -0.034263085 -1.7495601e-16)
(459.88633 0.06178745 3.3603459e-16)
(459.827 2.8757289e-05 -9.7645417e-19)
(459.89671 -0.021513363 -7.496697e-17)
(459.79125 -0.0079881166 -1.7313363e-17)
(459.90785 -0.013800138 -2.2550454e-16)
(459.57114 -0.0040386205 1.9694555e-17)
(460.33834 0.046809995 8.0040599e-18)
(459.59441 -0.059005065 2.22855e-16)
(460.16324 0.058126011 -3.3090323e-17)
(459.69298 -0.062991312 -6.3232892e-19)
(460.0629 0.080034386 -8.0781548e-17)
(459.78311 -0.094753799 -4.0029556e-18)
(460.01468 0.097374327 -4.3218424e-16)
(459.82196 -0.1035981 -3.011178e-17)
(460.0339 0.11951882 -6.5662008e-17)
(459.83695 -0.13418397 -4.3845491e-16)
(460.00922 0.14270149 -1.1823064e-17)
(459.84451 -0.16331993 1.4351464e-17)
(459.99332 0.18270781 -1.058518e-18)
(459.88462 -0.20173717 -4.5417416e-17)
(459.99377 0.20388746 8.0215659e-17)
(459.92952 -0.19892947 4.250778e-16)
(459.9798 0.16846329 -8.2538811e-18)
(459.97046 -0.11630794 -7.7694881e-17)
(459.96749 0.057614635 2.5332797e-16)
(459.96578 0.0072078128 3.536278e-16)
(459.9534 -0.066445051 1.0705501e-17)
(459.93646 0.12488787 7.4034402e-17)
(459.93079 -0.15762081 3.2596463e-17)
(459.88009 0.17739978 -3.9959412e-17)
(459.92827 -0.17148337 2.6542198e-16)
(459.82838 0.16241031 4.3313043e-17)
(459.92194 -0.13735309 -5.187047e-17)
(459.78738 0.11972082 2.8288034e-17)
(459.89177 -0.078125111 -3.510973e-16)
(459.81802 0.047768399 2.9991342e-16)
(459.86738 -0.010920449 3.3092157e-16)
(459.88442 -0.042253234 3.6693664e-16)
(459.89843 0.06867072 -3.5380824e-16)
(459.95026 -0.08980944 -3.1647373e-16)
(459.95568 0.080363204 -2.1587226e-16)
(459.99691 -0.075400618 -2.1813363e-16)
(459.98545 0.061121823 2.3089303e-17)
(459.97417 -0.047176308 -4.6824593e-17)
(460.01207 0.057637242 -1.0918076e-16)
(459.89293 -0.06928202 4.719183e-17)
(459.99854 0.084271578 3.0698541e-16)
(459.8736 -0.076577144 7.4874532e-17)
(459.98277 0.042441775 2.2093599e-16)
(459.94442 -0.031722696 -2.8660544e-16)
(459.9605 -0.032064151 9.7570294e-17)
(460.04569 0.054791032 2.4120905e-16)
(459.96949 -0.095178287 2.1603594e-16)
(460.04305 0.13458404 2.9743694e-16)
(459.96012 -0.1011565 -2.4306308e-16)
(460.00955 0.054225326 2.8160254e-16)
(459.92019 0.010115718 2.1370749e-16)
(459.9728 -0.0513139 1.716657e-17)
(459.91531 0.10129278 2.2415581e-16)
(459.93109 -0.10674495 5.5025866e-17)
(459.90881 0.055191617 -1.5178512e-16)
(459.93764 -0.047490591 -2.673446e-16)
(459.92494 -0.022395496 1.5192689e-16)
(459.98381 0.096384728 4.5094227e-17)
(459.94207 -0.063437447 2.8504523e-16)
(459.9324 0.052815547 5.3171062e-17)
(459.90689 -0.050528604 8.3567351e-18)
(459.90513 0.053377667 2.1264817e-16)
(459.80121 0.10141296 4.5601426e-17)
(459.75664 -0.091047454 2.0710673e-16)
(459.76773 0.059373491 -2.6488395e-16)
(459.75426 -0.042481549 1.9161442e-17)
(459.75229 -0.025813191 -2.38846e-17)
(459.77 0.014944203 -1.8250227e-16)
(459.83483 -0.030260485 2.7909112e-17)
(459.90671 0.050303556 3.109192e-17)
(459.84776 0.0040374393 2.7449971e-16)
(459.91962 -0.027318481 -1.8176438e-16)
(459.82194 -0.011201338 -3.4090445e-17)
(459.92062 -0.015622816 -5.3550796e-18)
(458.89676 0.0058962592 5.2792459e-17)
(460.78102 0.025409435 -2.4718548e-16)
(459.15891 -0.033902259 5.6942508e-18)
(460.44489 0.035908393 -1.5578668e-17)
(459.43041 -0.046790738 -1.1240977e-16)
(460.26621 0.070025816 3.1580225e-16)
(459.59531 -0.087693206 -1.7518056e-16)
(460.20015 0.093375833 -2.0287193e-16)
(459.66704 -0.10379947 4.6798646e-17)
(460.19759 0.12463781 4.2323659e-16)
(459.71885 -0.14433039 -3.8081958e-16)
(460.14207 0.15802768 2.7136488e-16)
(459.76512 -0.18446955 -2.1751929e-17)
(460.10398 0.20660816 -3.1286602e-16)
(459.8316 -0.22332411 6.7225101e-17)
(460.10415 0.21536163 1.0624583e-16)
(459.88621 -0.20534428 -2.8149541e-17)
(460.10316 0.16812977 3.0782091e-17)
(459.91621 -0.12372175 3.094948e-18)
(460.08695 0.07901879 -5.1277644e-17)
(459.89628 -0.024097054 3.2786745e-16)
(460.04719 -0.016195584 1.1119691e-16)
(459.84841 0.069451429 5.4583673e-18)
(460.00477 -0.091876031 5.022249e-17)
(459.77824 0.11888807 4.3690362e-18)
(460.00032 -0.12005135 -2.1102929e-17)
(459.73585 0.13381475 3.0204618e-16)
(460.00073 -0.11804657 5.0090499e-18)
(459.73385 0.11084108 -2.7522805e-16)
(459.96965 -0.078762992 3.8402601e-17)
(459.80681 0.052583551 1.3563354e-17)
(459.93284 -0.028581304 -1.8227268e-16)
(459.89119 -0.0195258 8.4305718e-17)
(459.95138 0.032815191 4.8234483e-17)
(459.961 -0.063072946 2.6624454e-16)
(460.00816 0.044239759 4.2406241e-17)
(460.03345 -0.053441076 5.2403118e-17)
(460.05128 0.035480799 3.2155868e-17)
(460.04505 -0.023729455 2.6321089e-16)
(460.08025 0.046556038 -2.023068e-16)
(459.96412 -0.051542771 -1.8259505e-16)
(460.05747 0.090857371 4.2679063e-17)
(459.90069 -0.10353263 3.0557721e-18)
(460.02052 0.087849376 2.7514035e-16)
(459.93061 -0.089929186 4.9878889e-17)
(459.98293 0.0062170647 2.7394164e-16)
(460.01686 0.040564649 1.6869797e-17)
(459.98319 -0.085532013 2.4372763e-17)
(460.02497 0.12045227 4.346925e-17)
(459.96181 -0.10105541 4.151421e-17)
(460.00937 0.068066518 2.3726252e-16)
(459.91983 0.012049311 -2.4814315e-17)
(459.96207 -0.048066549 -1.3019357e-16)
(459.90961 0.10099056 9.6988858e-17)
(459.89006 -0.11725754 2.6304421e-16)
(459.88956 0.066591963 -1.241532e-16)
(459.87997 -0.061643533 3.3498732e-17)
(459.8993 -0.017281546 2.0137241e-16)
(459.93915 0.1173886 1.8810659e-17)
(459.89147 -0.094721992 -1.2502548e-16)
(459.91424 0.055019022 -9.1853024e-17)
(459.88295 -0.021511002 5.211257e-17)
(459.90891 0.056116461 2.0516056e-16)
(459.76756 0.09568824 -2.0619782e-17)
(459.73695 -0.07148621 -3.6280094e-16)
(459.75343 0.055682017 2.5572594e-16)
(459.72603 -0.051094613 -1.4144553e-16)
(459.73434 -0.050886956 3.546356e-17)
(459.75682 0.021292817 2.2361365e-16)
(459.82109 -0.0041066192 5.310068e-17)
(459.90029 0.020539051 7.0210925e-17)
(459.84094 0.018550805 5.0182548e-17)
(459.89458 -0.02548915 1.775984e-17)
(459.81678 -0.029022881 -1.2472031e-16)
(459.86191 -0.017800485 4.8828263e-17)
(457.69678 0.021781456 -1.984589e-17)
(461.63259 0.0012954205 -2.3113336e-16)
(458.35462 -0.0078740809 7.9062195e-17)
(461.03663 0.012586374 1.8570925e-16)
(458.94175 -0.02801179 2.001325e-17)
(460.70134 0.04808001 -1.5564298e-17)
(459.30282 -0.074401993 -7.3732198e-18)
(460.53909 0.084880954 -1.7563784e-17)
(459.50519 -0.099020432 -1.7298223e-16)
(460.45753 0.11942674 2.1897322e-16)
(459.6491 -0.13843338 9.2284642e-18)
(460.35239 0.15218445 3.8481604e-17)
(459.73929 -0.17634946 4.091177e-16)
(460.28281 0.19426687 -3.1677016e-16)
(459.80778 -0.21056072 6.4592195e-17)
(460.25852 0.20161787 2.9706291e-18)
(459.83578 -0.1969158 1.4758954e-17)
(460.25682 0.16575447 1.4087403e-17)
(459.81491 -0.13184537 -2.2135404e-16)
(460.25944 0.10227601 5.6723021e-18)
(459.74537 -0.055572039 2.2615742e-17)
(460.23938 0.042383499 6.2331785e-17)
(459.6682 0.0064504571 4.9113277e-17)
(460.21694 -0.01477612 6.542121e-19)
(459.59954 0.039856622 -1.2460498e-16)
(460.23852 -0.03734846 3.1109088e-16)
(459.58816 0.056792715 -3.2582835e-17)
(460.25508 -0.050995242 -1.6574262e-16)
(459.64112 0.061580581 -1.6718011e-16)
(460.21013 -0.057774263 -2.2296242e-16)
(459.7519 0.049494735 2.5598312e-16)
(460.13587 -0.053106488 9.2209698e-17)
(459.8328 0.019107216 7.0415329e-17)
(460.09157 -0.011878874 1.2843054e-16)
(459.88871 -0.033621981 6.1819304e-17)
(460.08454 0.016200804 -1.8733336e-16)
(459.96694 -0.042369194 2.634069e-16)
(460.10138 0.013924402 2.0942203e-16)
(460.00306 0.0023404262 3.779149e-17)
(460.12642 0.014579263 6.1303834e-17)
(459.93111 -0.010605532 7.7444538e-18)
(460.10142 0.08139145 -1.0229925e-16)
(459.83828 -0.10507151 2.7875757e-16)
(460.04969 0.10751397 2.2502921e-16)
(459.83244 -0.12085691 4.6670504e-17)
(459.99038 0.033631922 2.1378614e-16)
(459.91155 0.021955836 2.484437e-17)
(459.96215 -0.051750701 1.9636505e-16)
(459.93619 0.079581246 2.2856416e-16)
(459.92673 -0.074056513 -2.0542311e-16)
(459.94444 0.04847977 1.8405995e-17)
(459.87974 0.026423319 5.7034773e-17)
(459.88665 -0.029805784 -6.0268463e-19)
(459.86312 0.089070302 1.8104276e-16)
(459.78761 -0.10035815 -5.0016402e-17)
(459.82808 0.043616371 -1.3457842e-16)
(459.75567 -0.073881456 2.032129e-17)
(459.82868 0.019834931 1.8389642e-17)
(459.80673 0.094949945 1.9738704e-17)
(459.79565 -0.12712837 -1.3851845e-16)
(459.80862 0.069016547 4.0348466e-17)
(459.81728 0.011444842 -8.4196218e-18)
(459.82071 0.054145585 -1.5214352e-16)
(459.70434 0.052032208 6.3982644e-18)
(459.64365 -0.020051961 3.0366895e-17)
(459.68243 0.062003793 1.8171025e-16)
(459.61548 -0.062090011 -1.4409738e-16)
(459.63677 -0.079069671 1.9444502e-16)
(459.64476 0.018620087 -1.0254281e-16)
(459.67572 0.020571538 -1.5578085e-16)
(459.74009 -0.014335856 2.9512011e-17)
(459.67372 0.027621376 3.5909835e-17)
(459.6796 -0.008230272 -1.2535716e-16)
(459.62247 -0.037702137 2.2200696e-17)
(459.61481 -0.019331055 1.6309243e-16)
(456.17891 0.044711957 -1.1015447e-17)
(463.04093 -0.030167726 -1.7577021e-16)
(457.1024 0.020669425 2.6595727e-16)
(462.24231 -0.020623434 1.9515463e-17)
(458.02335 -0.0082516067 -1.17959e-16)
(461.63193 0.023425269 8.5944222e-17)
(458.73522 -0.060104127 -5.6067951e-18)
(461.15399 0.065448263 6.2111252e-17)
(459.27639 -0.079518873 2.2674282e-16)
(460.7793 0.094141627 5.3299256e-17)
(459.66886 -0.11216103 2.4518474e-16)
(460.48362 0.12414354 1.1757896e-17)
(459.85193 -0.14495482 1.19146e-16)
(460.31455 0.16725433 -1.5031911e-16)
(459.90405 -0.1840184 7.1083702e-17)
(460.23189 0.18553648 5.9108637e-17)
(459.876 -0.18681022 4.3700856e-17)
(460.23448 0.17219653 5.2964098e-17)
(459.76523 -0.14646925 -1.3336141e-16)
(460.34007 0.13009049 3.8160705e-18)
(459.58437 -0.091617598 2.5258234e-17)
(460.47411 0.10016603 2.8185219e-16)
(459.42382 -0.0571934 6.0574424e-17)
(460.56354 0.060655942 -2.5956525e-16)
(459.33539 -0.047112097 -1.1738602e-16)
(460.62982 0.048378625 6.0675492e-17)
(459.33155 -0.024469067 2.2633639e-18)
(460.64514 0.0098466919 3.1639356e-16)
(459.39954 0.021686007 2.387204e-16)
(460.56955 -0.04341263 -2.4766342e-16)
(459.50082 0.048288691 -1.6502468e-17)
(460.45998 -0.062214744 3.42594e-17)
(459.55821 0.039664388 3.1130864e-17)
(460.33259 -0.023092411 -1.594502e-16)
(459.62089 -0.024141087 3.3583799e-17)
(460.2179 0.0014853696 -1.5331577e-16)
(459.71172 -0.030963689 8.6889645e-17)
(460.1671 -0.0061595744 -1.7372595e-16)
(459.76232 0.017803682 9.0957577e-17)
(460.1677 -0.0068264313 3.7314468e-16)
(459.70465 0.024190756 2.5780578e-17)
(460.15075 0.057526569 2.504245e-17)
(459.61006 -0.069457434 -6.8730181e-18)
(460.10726 0.085516599 2.1378231e-16)
(459.60907 -0.12857585 -1.7204233e-16)
(460.03013 0.055733795 4.1476455e-18)
(459.70861 -0.0066719092 -1.084489e-16)
(459.94815 -0.0069960518 3.5510212e-17)
(459.74353 0.026277368 -7.9390495e-19)
(459.87747 -0.021740476 5.4702882e-17)
(459.74773 0.011092811 8.1982279e-18)
(459.812 0.052488694 -1.2086409e-16)
(459.65569 -0.023939667 5.1171391e-17)
(459.76235 0.082165202 2.8495812e-17)
(459.52464 -0.07517041 1.3845358e-18)
(459.67322 0.0075375395 6.698128e-17)
(459.472 -0.073364146 -1.5395776e-16)
(459.62151 0.069660585 -1.591616e-16)
(459.46896 0.037097943 1.7749907e-16)
(459.52303 -0.14532478 4.4815346e-17)
(459.45663 0.088297412 1.6233659e-16)
(459.51678 0.035971184 -1.0240382e-16)
(459.40303 0.06976244 -1.9780023e-17)
(459.36296 0.0011027193 1.2140597e-17)
(459.17285 0.018362094 -1.4041767e-16)
(459.25995 0.067473767 -1.1721261e-16)
(459.04428 -0.061807535 -2.9400711e-17)
(459.12431 -0.090070804 -1.2948801e-16)
(459.0202 0.032752547 -9.3233886e-17)
(459.03246 0.033188245 -9.9744786e-17)
(459.00007 -0.03328326 1.8963528e-17)
(458.95242 0.025786476 1.0088251e-16)
(458.83728 -0.0094622271 -1.2660342e-17)
(458.81012 -0.03127363 7.3895613e-18)
(458.70083 -0.012994958 1.2946387e-16)
(455.35061 0.057245529 2.1901208e-17)
(464.46075 -0.056085556 1.4553646e-16)
(455.81521 0.043389987 -6.2582814e-17)
(463.94089 -0.053913227 8.3668506e-17)
(456.59229 0.015244217 1.1279991e-16)
(463.21912 -0.0077966143 -1.3135826e-16)
(457.49732 -0.033685853 8.4733595e-17)
(462.32682 0.029526707 3.1715894e-17)
(458.44747 -0.045407088 1.1569621e-16)
(461.42281 0.055113244 1.869363e-16)
(459.27803 -0.072642721 -6.9144648e-17)
(460.66836 0.087922695 3.0609354e-17)
(459.78275 -0.10700535 1.7991229e-16)
(460.19678 0.14072545 1.7886921e-16)
(460.01284 -0.15319157 3.9439013e-17)
(459.94585 0.16761499 3.5232989e-18)
(460.07783 -0.17282875 3.0831017e-18)
(459.89716 0.17337492 -1.200036e-16)
(459.97158 -0.15582802 2.871822e-16)
(460.10798 0.14537859 6.0557732e-18)
(459.68271 -0.11749885 7.233819e-17)
(460.45978 0.13460879 -4.8353591e-17)
(459.36163 -0.10156797 4.1140066e-17)
(460.72995 0.11258848 -3.5586971e-17)
(459.1626 -0.1124072 2.3437333e-16)
(460.86752 0.10701653 -2.2790049e-19)
(459.09604 -0.082541404 -2.4407708e-16)
(460.88286 0.062033904 1.9894758e-16)
(459.10841 -0.023737157 6.8875894e-17)
(460.82495 -0.0022358809 -2.0695083e-16)
(459.1059 0.0077390816 -1.6652851e-17)
(460.78346 -0.022417812 -2.6429193e-17)
(459.06929 0.025886921 2.2693738e-16)
(460.66007 -0.014735093 -3.5637147e-17)
(459.12767 -0.0075625868 -1.759211e-16)
(460.47153 -0.017268628 -1.696705e-16)
(459.25253 -0.023037425 8.7176484e-17)
(460.34384 -0.0024347643 1.9460308e-16)
(459.31533 -0.0083630412 7.0083034e-18)
(460.30727 0.016394967 -2.4614777e-17)
(459.2486 0.026758073 2.8546488e-17)
(460.25734 0.037492553 -3.2343016e-18)
(459.15071 -0.028475519 3.7544345e-17)
(460.15076 0.057009064 -4.4043197e-18)
(459.15136 -0.12956791 2.9410668e-17)
(459.9902 0.067764526 -1.7465229e-17)
(459.23523 -0.018087849 1.6104365e-17)
(459.77555 -0.0031914082 2.5234055e-17)
(459.21041 0.0092394217 -1.1591184e-16)
(459.59768 0.0039324728 -3.094305e-17)
(459.10074 -0.01159379 4.9522764e-17)
(459.43709 0.11030332 1.5699803e-16)
(458.87797 -0.07570742 -1.6221411e-16)
(459.24404 0.1372961 1.0927526e-17)
(458.64006 -0.084379759 -1.0443013e-17)
(458.96401 -0.029792548 1.5221223e-17)
(458.48903 -0.013636701 -1.0738097e-16)
(458.71154 0.085415468 -1.3971367e-16)
(458.30884 -0.031284745 -1.3165703e-16)
(458.4261 -0.12874456 -3.4705794e-17)
(458.13476 0.10430527 -3.7983986e-18)
(458.25557 0.0493233 2.8702336e-17)
(457.84716 0.098292582 -1.523359e-16)
(457.9183 -0.0095888842 -1.3667642e-16)
(457.40353 0.072442339 -7.1657517e-18)
(457.57481 0.04007293 1.4093089e-17)
(457.01478 -0.052910208 1.9411892e-17)
(457.19804 -0.080059485 -1.3096204e-16)
(456.82216 0.04821108 -1.7154127e-16)
(456.83083 0.031043151 -2.5646811e-17)
(456.56094 -0.015527798 9.4068418e-18)
(456.55646 0.030933288 -1.209628e-16)
(456.16283 -0.01921127 -1.750561e-17)
(456.18821 -0.020558114 -1.1996072e-17)
(455.79453 -0.013061817 -2.08306e-17)
(456.50215 0.045401606 -1.7672388e-17)
(464.23652 -0.051047464 -1.5948792e-16)
(455.82056 0.042923925 -2.0273201e-16)
(464.60419 -0.060269826 -2.4935218e-16)
(455.61386 0.02968114 5.4469711e-17)
(464.47848 -0.031736853 -9.4616581e-17)
(455.93831 0.0010635122 -7.3027273e-17)
(463.79807 -0.0079876346 8.9301379e-17)
(456.73586 -0.0030634379 1.057006e-16)
(462.79447 0.01333391 -1.874529e-16)
(457.75952 -0.030757195 2.9551047e-18)
(461.7308 0.050228751 -3.3757485e-17)
(458.68976 -0.067898469 1.383623e-16)
(460.85289 0.10423484 1.0100048e-16)
(459.40333 -0.11348534 7.3633961e-17)
(460.20725 0.1350534 -1.7382031e-17)
(459.89873 -0.14328008 1.6412425e-17)
(459.82143 0.14689598 -3.6323547e-18)
(460.1283 -0.13990829 1.1041073e-17)
(459.77966 0.13617278 1.4277299e-17)
(460.04278 -0.12918647 7.2851037e-17)
(460.01045 0.15814986 -1.5580247e-17)
(459.74889 -0.13677727 6.559026e-17)
(460.28553 0.15306853 -1.0113344e-17)
(459.47439 -0.16052728 -1.4824754e-16)
(460.47109 0.15547943 -4.4579582e-18)
(459.31951 -0.13837932 6.8121436e-17)
(460.51548 0.12433859 2.3560173e-16)
(459.23701 -0.084755344 4.2737288e-17)
(460.53463 0.062630837 -5.3562385e-18)
(459.05434 -0.061039709 3.3964209e-17)
(460.66993 0.042666755 -5.7918317e-18)
(458.7684 -0.0049308616 -1.3994345e-16)
(460.72647 -0.001439584 1.7586263e-16)
(458.59086 0.0019550135 2.8638116e-17)
(460.62813 -0.019970658 2.4506393e-17)
(458.54113 -0.027376682 5.5287541e-17)
(460.46766 0.022853766 1.8180316e-17)
(458.46967 -0.063839278 2.1080147e-16)
(460.31717 0.076086883 5.017869e-17)
(458.29889 -0.0095952925 4.8971353e-17)
(460.03052 0.047919494 1.4996191e-16)
(458.12966 0.00018019547 -1.4263949e-17)
(459.60725 0.019558849 -3.8525561e-17)
(458.00106 -0.08366523 -2.9297112e-20)
(459.16916 0.023508498 1.7439248e-18)
(457.8474 0.029042028 1.4267477e-16)
(458.68353 -0.053968889 1.5765121e-16)
(457.4915 0.026936037 -5.4515185e-19)
(458.27562 0.015299837 -3.1009237e-16)
(457.00126 -0.058306169 -1.1957571e-16)
(457.85411 0.22225094 -2.4940996e-17)
(456.4455 -0.16104902 9.1895877e-17)
(457.23569 0.23367826 -4.9002363e-17)
(455.96486 -0.08724243 2.3981173e-17)
(456.42404 -0.091726007 1.1420325e-16)
(455.55905 0.10746791 -1.3730337e-16)
(455.68367 0.046023243 -1.3014576e-16)
(454.94276 -0.10121254 1.1832112e-16)
(454.98824 -0.067210111 4.9443709e-17)
(454.34247 0.060104113 -1.7445591e-16)
(454.48504 0.068118224 -2.2323986e-16)
(453.59088 0.08790896 -1.6277358e-16)
(453.78682 0.034894078 6.2740317e-17)
(452.72334 0.15786357 -1.3903111e-17)
(452.9845 0.031408144 -2.1208264e-17)
(451.9004 -0.024213597 -2.2059715e-17)
(452.19534 -0.0074302818 -7.3868267e-17)
(451.3527 0.045090837 -2.7159121e-17)
(451.39608 0.026544945 8.6037291e-17)
(450.66442 0.040531011 -2.4012656e-16)
(450.75333 0.036217152 5.0766416e-17)
(449.82596 -0.003153222 -2.7984655e-17)
(449.90896 0.053201993 -2.2292594e-17)
(448.99379 0.01383157 -6.1872928e-17)
(458.92373 0.030143661 -1.9835621e-18)
(461.88778 -0.022422613 2.3726146e-16)
(457.75679 0.02242063 4.8608918e-16)
(462.82911 -0.035153139 1.7951514e-16)
(456.67953 0.0209671 -7.1406865e-17)
(463.65072 -0.023491853 1.6568186e-16)
(455.95206 0.0079262421 1.0951877e-16)