/*--------------------------------*- C++ -*----------------------------------*\
| =========                 |                                                 |
| \\      /  F ield         | OpenFOAM: The Open Source CFD Toolbox           |
|  \\    /   O peration     | Version:  2.3.0                                 |
|   \\  /    A nd           | Web:      www.OpenFOAM.org                      |
|    \\/     M anipulation  |                                                 |
\*---------------------------------------------------------------------------*/
FoamFile
{
    version     2.0;
    format      ascii;
    class       volScalarField;
    location    "2.6e-05";
    object      alpha.fuel;
}
// * * * * * * * * * * * * * * * * * * * * * * * * * * * * * * * * * * * * * //

dimensions      [0 0 0 0 0 0 0];

internalField   nonuniform List<scalar> 
7500
(
1
1
1
1
1
1
1
1
1
1
1
1
1
1
1
1
1
1
1
1
1
1
1
1
1
1
1
1
1
1
1
1
1
1
1
1
1
1
1
1
1
1
1
1
1
1
1
1
1
1
1
1
1
1
1
1
1
1
1
1
1
1
1
1
1
1
1
1
1
1
1
1
1
1
1
1
1
1
1
1
1
1
1
1
1
1
1
1
1
1
1
1
1
1
1
1
1
1
1
1
1
1
1
1
1
1
1
1
1
1
1
1
1
1
1
1
1
1
1
1
1
1
1
1
1
1
1
1
1
1
1
1
1
1
1
1
1
1
1
1
1
1
1
1
1
1
1
1
1
1
1
1
1
1
1
1
1
1
1
1
1
1
1
1
1
1
1
1
1
1
1
1
1
1
1
1
1
1
1
1
1
1
1
1
1
1
1
1
1
1
1
1
1
1
1
1
1
1
1
1
1
1
1
1
1
1
1
1
1
1
1
1
1
1
1
1
1
1
1
1
1
1
1
1
1
1
1
1
1
1
1
1
1
1
1
1
1
1
1
1
1
1
1
1
1
1
1
1
1
1
1
1
1
1
1
1
1
1
1
1
1
1
1
1
1
1
1
1
1
1
1
1
1
1
1
1
1
1
1
1
1
1
1
1
1
1
1
1
1
1
1
1
1
1
1
1
1
1
1
1
1
1
1
1
1
1
1
1
1
1
1
1
1
1
1
1
1
1
1
1
1
1
1
1
1
1
1
1
1
1
1
1
1
1
1
1
1
1
1
1
1
1
1
1
1
1
1
1
1
1
1
1
1
1
1
1
1
1
1
1
1
1
1
1
1
1
1
1
1
1
1
1
1
1
1
1
1
1
1
1
1
1
1
1
1
1
1
1
1
1
1
1
1
1
1
1
1
1
1
1
1
1
1
1
1
1
1
1
1
1
1
1
1
1
1
1
1
1
1
1
1
1
1
1
1
1
1
1
1
1
1
1
1
1
1
1
1
1
1
1
1
1
1
1
1
1
1
1
1
1
1
1
1
1
1
1
1
1
1
1
1
1
1
1
1
1
1
1
1
1
1
1
1
1
1
1
1
1
1
1
1
1
1
1
1
1
1
1
1
1
1
1
1
1
1
1
1
1
1
1
1
1
1
1
1
1
1
1
1
1
1
1
1
1
1
1
1
1
1
1
1
1
1
1
1
1
1
1
1
1
1
1
1
1
1
1
1
1
1
1
1
1
1
1
1
1
1
1
1
1
1
1
1
1
1
1
1
1
1
1
1
1
1
1
1
1
1
1
1
1
1
1
1
1
1
1
1
1
1
1
1
1
1
1
1
1
1
1
1
1
1
1
1
1
1
1
1
1
1
1
1
1
1
1
1
1
1
1
1
1
1
1
1
1
1
1
1
1
1
1
1
1
1
1
1
1
1
1
1
1
1
1
1
1
1
1
1
1
1
1
1
1
1
1
1
1
1
1
1
1
1
1
1
1
1
1
1
1
1
1
1
1
1
1
1
1
1
1
1
1
1
1
1
1
1
1
1
1
1
1
1
1
1
1
1
1
1
1
1
1
1
1
1
1
1
1
1
1
1
1
1
1
1
1
1
1
1
1
1
1
1
1
1
1
1
1
1
1
1
1
1
1
1
1
1
1
1
1
1
1
1
1
1
1
1
1
1
1
1
1
1
1
1
0.99902077
0.99569761
0.99069146
0.98409734
0.97615314
0.96745385
0.95008711
1
1
1
1
1
1
1
1
1
1
1
1
1
1
1
1
1
1
1
1
1
1
1
1
1
1
1
1
1
1
1
1
1
1
1
1
1
1
1
1
1
1
1
1
1
1
1
1
1
1
1
1
0.99961854
0.99404319
0.98473365
0.96902206
0.94820623
0.92296706
0.88993652
0.83276354
0.76961485
0.7111475
0.65029158
0.59504229
0.54396075
0.48859449
0.43635213
0.37892039
0.32238993
0.27176545
0.22578626
0.18911924
0.15846037
0.13525374
0.093356846
1
1
1
1
1
1
1
1
1
1
1
1
1
1
1
1
1
1
1
1
1
1
1
1
1
1
1
1
1
1
1
1
1
1
1
1
1
1
1
1
1
1
0.99200263
0.97506977
0.94730617
0.91030599
0.83662377
0.75041848
0.66322988
0.57539535
0.49130468
0.40765444
0.33065713
0.25486154
0.1954279
0.13665704
0.089125593
0.044495977
9.7613958e-10
3.6405019e-10
3.640515e-10
3.6405041e-10
3.6404858e-10
3.6404858e-10
3.6404858e-10
3.6404858e-10
3.6404858e-10
3.6404859e-10
3.640486e-10
3.6404861e-10
3.6404861e-10
3.6404874e-10
3.6404884e-10
3.6404893e-10
3.6404903e-10
1
1
1
1
1
1
1
1
1
1
1
1
1
1
1
1
1
1
1
1
1
1
1
1
1
1
1
1
1
1
1
1
1
1
0.98884908
0.9616133
0.91483874
0.81398679
0.69778251
0.58106534
0.46481628
0.35323993
0.24754412
0.1589856
0.091779786
0.0032809868
8.0465859e-10
7.4823222e-10
7.4823222e-10
7.4823222e-10
7.4823326e-10
7.4823427e-10
7.4823248e-10
7.4822964e-10
7.4822964e-10
7.4822964e-10
7.4824902e-10
7.4824919e-10
7.5300265e-10
7.355319e-10
6.6152888e-07
1.275161e-06
7.7230286e-10
7.8081946e-10
6.9523985e-10
1.1727325e-09
2.4486918e-09
3.3958436e-09
3.7364263e-09
3.7200761e-09
6.6872802e-10
4.4782928e-08
2.7739249e-08
1.9339428e-08
1.8956527e-08
1
1
1
1
1
1
1
1
1
1
1
1
1
1
1
1
1
1
1
1
1
1
1
1
1
1
1
1
0.98178085
0.92828627
0.81570627
0.67272978
0.52248648
0.3726398
0.23506439
0.12860486
0.0028774988
2.6851994e-09
2.642716e-09
2.642716e-09
2.642716e-09
2.642716e-09
2.642716e-09
2.6427161e-09
2.6427161e-09
2.6427181e-09
3.7233139e-09
2.9232987e-09
2.5884845e-09
2.752648e-09
4.7947672e-07
7.1059319e-07
6.1001536e-07
1.2101856e-09
1.1391324e-09
7.4855681e-10
1.5509009e-06
1.300732e-09
7.5309517e-10
3.6748296e-05
0.00012868344
0.00024490674
7.5561301e-05
1.3779508e-09
3.2138769e-06
7.5806431e-10
7.2710197e-10
1.0997733e-09
1.4899414e-09
1.8863619e-09
1.5271505e-05
1.0466574e-05
2.0168376e-08
1.9760788e-08
2.2530638e-08
1
1
1
1
1
1
1
1
1
1
1
1
1
1
1
1
1
1
1
1
1
1
1
0.97713878
0.90175281
0.74088137
0.55446625
0.36319453
0.2023378
0.0262219
3.6690584e-09
3.3824007e-09
3.3821708e-09
3.3816976e-09
3.3808575e-09
3.3805033e-09
3.3805035e-09
3.4734397e-09
3.7142766e-09
4.3100238e-09
5.4513089e-09
3.1164875e-09
7.4936815e-09
1.1174106e-08
1.3930624e-08
1.4481252e-08
2.8532548e-08
1.3721822e-09
9.0972856e-10
9.9559332e-10
2.2989273e-05
6.0327261e-06
3.7653689e-09
0.011168184
0.0085278606
1.0338725e-09
1.494479e-09
2.1022326e-06
0.0010215142
0.00052420489
1.2630832e-07
0.00015806827
0.0013494289
0.0028374042
0.0025703176
0.0004329524
0.0022292027
0.0021881978
0.0026469272
0.0028640297
0.0016157405
2.974737e-08
2.9329849e-08
2.9104107e-08
2.7932691e-08
1
1
1
1
1
1
1
1
1
1
1
1
1
1
1
1
1
1
1
0.96469683
0.84915495
0.64271347
0.41065421
0.19712684
4.989523e-09
3.7414171e-09
3.7414146e-09
3.7414044e-09
3.7414038e-09
3.7414027e-09
4.4265032e-09
8.3153063e-05
0.00014869042
0.00013468979
6.7632833e-05
4.2232865e-09
4.1499589e-09
4.0911452e-09
4.3183076e-09
4.8408049e-09
5.3098266e-09
1.1793879e-06
1.1301013e-06
9.8153257e-09
9.3201328e-09
1.8506451e-08
1.5561433e-07
7.531748e-07
6.4563886e-06
5.2942084e-06
4.1248103e-09
3.7606498e-09
3.760501e-09
0.029654275
0.070880935
0.029886032
0.036928406
0.004802605
0.00022528596
1.248089e-07
0.0013819419
1.1555148e-05
0.0010230798
0.0030895395
0.0018505411
3.1157584e-05
0.0052322619
0.0052187037
0.0052018578
0.0051977055
0.0013265805
2.9282601e-08
2.8949069e-08
2.85286e-08
2.8234257e-08
1
1
1
1
1
1
1
1
1
1
1
1
1
1
1
1
0.9217785
0.72171974
0.45738932
0.16077864
5.3123827e-09
4.2899708e-09
4.2910604e-09
4.2977801e-09
5.13363e-09
8.3017407e-07
1.6406714e-06
1.8417102e-07
2.1354308e-07
4.8611699e-09
0.0011202232
0.0013401428
0.0013390675
9.472687e-05
0.00032239927
0.0058066774
0.004063258
0.00053885395
0.0033978468
0.0019818552
0.00035547846
0.00010351645
3.9653941e-07
7.6836085e-06
3.5266281e-06
3.1531619e-07
1.5827565e-07
4.5905121e-06
1.3798378e-05
4.5399549e-06
4.1297336e-09
4.3528396e-09
0.0019776412
1.1031281e-08
0.017708517
0.010804683
0.069630659
0.0095604102
7.3487702e-08
0.0012457562
0.005463069
0.0015696783
1.7669501e-09
1.3522622e-09
1.5693994e-09
0.0051857172
0.003842612
2.4893632e-09
2.4267849e-09
2.4267856e-09
2.4267868e-09
3.1526282e-06
5.0488032e-05
0.00011988015
7.1211665e-05
1
1
1
1
1
1
1
1
1
1
1
1
1
0.93102514
0.7171144
0.40785173
0.048664632
5.6810617e-09
5.2683641e-09
5.2684557e-09
6.0933337e-09
1.1161672e-05
0.00027380491
0.00096863181
0.0015096631
0.0012469251
9.8357396e-07
4.658791e-09
3.9870154e-09
0.0020328266
0.0025373034
0.00013589192
4.4054606e-09
4.4132213e-09
0.0079907519
0.0079936372
0.0056222108
0.0011738538
0.0074748387
0.0074748386
0.0042015361
7.928616e-09
9.1012256e-07
4.2429313e-05
4.246685e-05
6.0281125e-08
0.0016815298
1.489163e-05
8.9446709e-09
8.497848e-09
0.0035493294
0.018573344
0.0076233131
6.2042573e-08
1.0734377e-08
1.0822498e-08
0.055419601
0.069630667
0.032200194
0.011944855
0.0035677219
1.2952249e-05
1.6474158e-09
1.7075471e-09
0.00023689123
0.010019952
0.0027047115
2.8622751e-09
2.6690202e-09
7.7565912e-09
4.6783684e-09
1.833901e-09
0.00023241719
0.00029192957
0.00015060609
1
1
1
1
1
1
1
1
1
1
1
0.86981131
0.54710818
0.10446999
5.1153855e-09
4.3937235e-09
4.3943977e-09
5.4398896e-09
6.1915093e-09
1.1417113e-05
0.00079271856
0.0027446529
0.0060776832
0.0060825081
0.0042658642
0.00035218749
5.6305053e-09
5.6389544e-09
5.6045452e-09
5.4243598e-09
6.1069774e-05
3.8817285e-09
4.3938686e-09
1.5763784e-05
0.00085809339
0.0079935896
5.4747748e-09
0.0048286503
0.0034842035
0.0012814635
7.6892104e-09
7.3280932e-09
1.2742366e-07
9.6918198e-09
9.8141219e-09
0.0018698734
0.0034695934
0.0025463165
6.5932481e-05
8.497743e-09
0.019904438
0.021833444
0.013912078
1.0389696e-08
1.0319717e-08
0.029467301
0.0040367234
0.0052376002
0.00086010839
1.0867282e-09
1.052644e-09
7.8657486e-10
0.00037992866
0.0073453258
0.010456894
0.0076395198
0.00048179575
3.2500722e-09
6.4792293e-07
1.1396426e-07
8.7619964e-09
2.908483e-09
1.7969294e-09
1.7969234e-09
1.7969236e-09
1
1
1
1
1
1
1
1
1
0.84793107
0.45681035
0.005252249
4.7788056e-09
4.7481797e-09
6.045964e-09
0.00023982206
7.6543747e-05
0.0021724278
0.00089723672
0.0032931457
0.0075475484
5.9833452e-09
5.677539e-09
5.5510116e-09
0.0011975221
0.0043978825
4.5518745e-09
6.8223542e-09
7.3444696e-09
5.410511e-09
4.2985685e-09
4.8732988e-09
4.8765566e-09
3.8941087e-09
3.8938249e-09
0.0012880933
3.7183936e-05
4.8138022e-09
4.7305081e-09
5.1320235e-09
0.00297097
0.00037267693
1.1383933e-07
9.1236416e-07
9.8591069e-09
0.0033736367
0.0020473035
0.0031736624
0.00023533269
8.7303369e-09
0.0027098076
9.9362784e-09
0.00081484577
9.7724067e-09
0.02468619
0.070880818
0.023078535
1.369336e-07
1.3659476e-07
0.00011789158
0.0062919927
7.7511e-10
0.0024478699
0.01263131
0.00096009162
4.9650434e-05
4.9650463e-05
0.00042157918
0.00025929761
2.8742105e-09
2.5725026e-09
2.3011408e-09
2.0005921e-09
2.0544379e-09
2.0804677e-09
1
1
1
1
1
1
1
0.8932803
0.51040208
0.0084436511
4.8188626e-09
4.727047e-09
4.7249344e-09
6.612373e-09
0.0010306065
0.0022523358
0.0013540732
0.0062523604
0.0045900265
2.618368e-08
0.00021012784
8.1999443e-07
0.00031802955
5.7170842e-09
0.0050222152
0.0050213468
4.5518655e-09
4.8593705e-09
4.9397447e-09
4.3792035e-09
4.2974039e-09
4.8248635e-09
4.8727165e-09
4.3778037e-09
3.8938443e-09
1.8989706e-07
0.0040139357
0.00044044229
5.0174859e-09
0.0021859294
0.010321257
0.00025342542
1.1338397e-07
0.0011297049
0.00070184411
0.00099285714
3.4174198e-09
0.0010450929
0.00016095576
9.1185716e-09
9.4558822e-09
9.8505933e-09
9.5175814e-09
9.6888266e-09
0.054627997
0.070880817
0.011054042
1.3707896e-07
1.3678304e-07
0.0026620991
0.011417726
1.7076554e-05
3.0653696e-06
0.00038051602
0.011867292
0.010429812
0.00046909039
0.00045811139
0.00020670139
0.00018557951
0.00145771
0.0019019926
0.00010239508
2.3819961e-09
0.002072044
1
1
1
1
1
1
0.73727648
0.10650902
1.1440666e-08
1.0695983e-08
4.1105117e-05
9.8410512e-06
4.827037e-09
0.00070661108
0.0021816581
0.00069433221
0.0018179536
1.8670689e-07
1.8650669e-07
4.9659085e-07
2.4474873e-07
2.5062345e-07
0.00084977405
4.7816681e-05
0.0022197839
0.0036100526
0.00086713275
5.9768345e-09
7.4010621e-05
4.3846164e-09
0.00059137005
0.00012553841
1.903906e-05
1.9450257e-05
5.9405169e-05
1.5254049e-06
0.0039562156
0.00045985484
5.2537184e-09
0.0060456338
0.0058698701
0.0060106399
0.00060002803
0.00014225405
0.0019938352
2.6268639e-05
3.8199954e-09
2.202384e-05
1.6812311e-05
2.1009084e-07
9.117101e-09
0.0057980169
6.4649766e-07
0.010423875
0.0080330398
0.070880817
0.011072253
0.0094874335
0.0019577317
2.4609709e-09
0.0085091736
0.00329724
1.155693e-09
4.3763841e-05
0.012805322
0.0051355343
2.7765646e-05
1.5819141e-07
1.581975e-07
0.0011984913
0.002725349
0.0027253489
0.0015379219
0.0029989962
0.0030090477
1
1
1
1
0.96970696
0.4780922
1.2319181e-08
1.0056324e-08
1.9639039e-05
0.000219906
0.00022884858
8.4328425e-05
1.5628666e-05
7.8747025e-09
8.3229673e-09
7.6482195e-09
7.6166369e-09
0.00010452502
3.7203193e-05
7.6180812e-07
0.00027409298
0.0012656431
0.00017384402
7.4968696e-09
8.6604612e-09
0.0033219659
0.0051788195
1.7544803e-07
0.001229698
0.0047308317
0.0047381941
0.0009832898
0.00028164929
0.00023236164
0.00010081486
6.7686915e-06
3.5477948e-06
0.00066171421
0.0014560462
5.7306581e-09
5.6378619e-09
0.0060158811
0.0032606363
0.00018259627
1.39433e-09
1.3392188e-09
3.3439776e-09
1.0732951e-09
0.0011213257
1.3684222e-08
0.0045847071
0.010064888
0.0039543553
2.9005271e-09
2.9607094e-09
0.042258765
0.024084447
0.027672418
0.0038764859
2.1547935e-09
1.9049142e-09
0.0095556995
1.288863e-09
0.0012241871
0.012805322
0.00018368961
0.00012704812
1.4744831e-05
2.8337978e-05
4.4385892e-06
0.00011002039
0.00059991387
0.0020245672
3.1372021e-08
3.2530487e-08
1
1
1
0.95670008
0.26696278
1.5875669e-08
1.4263796e-08
1.9087385e-05
0.0010184129
0.001021133
0.00014035362
1.5607998e-05
3.6470561e-05
9.3204524e-09
0.00043719695
1.6887661e-05
9.8335759e-06
4.2759733e-05
0.00079239465
0.00079239456
0.00061040167
0.0013638571
6.1306406e-09
6.7908698e-09
0.00036096155
0.0034940328
0.0029114518
0.00042981998
5.4845426e-05
0.002205937
0.0047381933
0.00034779365
3.8498196e-09
3.6801964e-09
5.6772747e-06
3.5478333e-06
3.5484162e-06
0.0012799311
0.0021554998
0.00025086902
5.656072e-09
0.0021525815
0.0035206487
0.0034456098
4.1849133e-07
1.7354203e-09
2.8718798e-07
1.0747253e-09
0.00015754546
0.0044984293
0.0015583604
2.9586784e-09
2.9420201e-09
9.5741715e-09
3.1776298e-05
3.0918598e-05
0.034387913
0.00039040101
2.2305311e-09
5.9183721e-05
1.9048524e-09
0.011394227
0.0018212627
2.6194596e-09
0.0024167345
2.3910632e-08
0.00032698695
4.4195445e-06
3.9759726e-09
4.3926616e-06
3.9285707e-10
3.7482393e-10
3.7481659e-10
3.7481709e-10
0.00066326737
1
1
0.9872628
0.24969713
2.0342446e-08
1.8339103e-08
0.00010531224
0.00061574625
8.9392945e-09
8.3072806e-09
8.3039648e-09
8.3037611e-09
8.4792445e-09
4.9750728e-05
0.0011008262
0.00076244061
2.1077623e-05
3.2902073e-08
4.8997532e-05
0.00044233518
0.00093913823
5.2875275e-09
4.363176e-07
1.9931643e-05
1.9953505e-05
0.00017267132
8.6541237e-05
0.0017351135
0.0037080043
5.4972223e-06
0.0034748529
9.5808038e-05
4.3708139e-09
4.2796558e-09
4.2864088e-09
0.0056509122
0.00016621942
6.2340438e-09
5.6387535e-09
5.5472822e-09
5.6072649e-09
8.6321988e-05
0.00014845333
0.00018238652
0.00013807026
1.085152e-05
2.1300301e-09
2.1761163e-09
1.1114873e-09
1.538331e-09
0.00012218779
0.00026285278
0.00061692296
3.8049254e-09
0.033727345
0.0011617473
0.0079133147
0.00081005415
2.1892583e-09
1.9002206e-09
1.9002185e-09
0.0071648745
0.0027405961
2.2492017e-09
2.4398787e-09
2.3672315e-08
5.0270579e-10
0.00012744343
8.7523647e-06
6.9361587e-10
1.2645973e-06
1.4399971e-08
5.6234367e-10
4.6611877e-10
0.0018688398
1
1
0.3159166
2.2877697e-08
2.0345307e-08
0.00015836204
0.0003946508
7.7112946e-08
7.8383253e-08
1.8564972e-06
4.5988541e-08
1.0311658e-08
6.3760419e-07
0.00011249688
1.8265183e-09
0.00078944083
0.00011348687
3.0240393e-08
2.9061429e-09
0.00012127157
0.0012227389
5.2875334e-09
5.4908659e-09
5.608168e-09
0.0011556082
5.2933381e-05
8.6165694e-05
0.00060660986
0.0040737397
0.00026892834
2.383396e-08
2.454981e-08
0.00030917317
7.8783952e-05
4.3982843e-09
0.0056646806
1.067967e-07
0.0061512923
0.0003369352
5.9816066e-09
9.9813632e-08
1.4762248e-09
1.4752695e-09
1.4747772e-09
1.474342e-09
2.9925859e-05
1.7519852e-09
1.2849304e-09
7.9573969e-10
0.0011940336
0.0085863746
0.011877379
0.01187738
0.0015181834
0.016953562
0.00025423908
0.02962082
0.0031606338
2.3259262e-09
2.110659e-09
2.1058869e-09
2.3802244e-09
2.0320938e-05
6.9266801e-06
1.6164696e-06
7.8672244e-08
2.6414313e-10
0.00043596928
0.00037419631
5.4202901e-10
2.6164772e-10
2.6163845e-10
1.03638e-06
0.00050065894
7.5340061e-10
1
0.64577106
0.024552671
0.00026716851
2.2113428e-08
0.00033181829
6.8589253e-08
1.0318904e-07
2.3018352e-07
5.9298989e-06
1.7752566e-07
1.0636785e-08
3.649344e-07
8.9940787e-05
1.8265184e-09
1.8522576e-09
1.9000456e-09
1.8978025e-09
1.8977952e-09
1.9974451e-09
0.00070098126
6.032959e-09
6.1964507e-09
0.0037844712
0.0037876239
0.0020293965
8.6295526e-09
8.2171054e-09
0.0036279187
0.00073098154
2.318104e-08
0.00098075332
0.00097886404
0.0001592288
4.3623331e-09
3.886035e-09
0.0097061644
0.012843714
0.0018519049
0.00016894754
7.862521e-08
1.4829754e-09
7.3291984e-08
6.4310372e-08
7.5259805e-09
7.6303834e-09
0.015447608
0.01698585
8.7834265e-06
0.010497107
0.012033287
0.011719094
0.0014150019
0.0052697146
0.0007172687
0.024529197
0.045705602
0.0018465465
2.375883e-09
0.0006509778
0.0002480152
8.071628e-06
1.1440277e-09
1.1128312e-09
6.2514246e-06
1.6920467e-07
4.0775556e-10
0.00031990471
6.8235497e-10
6.3755004e-10
4.339237e-10
3.1064013e-10
0.00027893761
7.6681321e-10
7.163148e-10
0.96962542
0.080672917
3.1353133e-08
2.8120234e-08
1.79325e-06
2.7848811e-08
6.7924918e-08
2.3076295e-07
2.0990073e-07
2.3173745e-08
2.3101961e-08
1.0277785e-08
2.1656416e-07
1.8272871e-09
1.8265188e-09
1.1162635e-05
0.0047420683
0.0043931697
0.0053657821
0.006275576
3.9841278e-08
5.2368173e-05
0.00063321346
0.0012513392
0.0025798163
3.4368088e-05
7.7912161e-09
8.3641222e-09
8.3664882e-09
0.00030024492
2.2649682e-08
0.0012372774
3.9969177e-09
3.726939e-09
5.6497387e-07
3.1613297e-09
0.010386834
0.010132641
0.00019878516
0.00056362886
9.3226622e-08
4.2132602e-06
7.3623372e-08
1.2597605e-07
1.4868024e-09
0.0015802077
0.01943848
0.01943848
0.0026238497
3.2663539e-08
0.00027558286
1.5539045e-07
0.007693569
0.0081601704
0.0013104182
0.064005563
0.021699221
0.0083115488
0.0055047446
0.005497303
0.0020161891
1.083049e-09
9.6564849e-10
1.1977305e-09
1.1994228e-09
1.397608e-09
0.00012465824
7.080885e-10
6.8757639e-10
0.0027610924
2.1299649e-05
2.3736756e-05
7.1595755e-10
7.0597235e-10
8.3922827e-10
0.32136299
6.5330808e-08
6.1244725e-08
2.9532323e-08
2.5123514e-08
1.1275504e-07
1.8337315e-07
2.7324751e-07
1.8423046e-07
1.8223726e-07
3.6476276e-08
9.4397827e-09
2.1864465e-07
1.7967925e-08
1.8266353e-09
0.0003504892
0.001805077
0.0075409577
0.0075409576
0.0024310714
0.00013279208
0.0002779536
0.001714297
9.5871572e-09
7.5930994e-09
6.705367e-09
6.7438992e-09
0.00033122071
1.2182597e-05
0.003847064
0.0014063234
6.0184744e-05
4.816225e-09
4.1950756e-09
3.8833256e-09
3.198293e-09
2.9903502e-09
3.0368976e-09
0.010828119
0.00038409466
0.00017608039
0.00016182903
3.3390594e-05
3.2759295e-08
1.7548434e-09
0.016948749
0.0056904826
0.0021514149
0.00019037799
0.0037506515
0.00051575733
0.0035783413
0.014042907
0.0063643275
0.0029416389
0.027625065
9.2358728e-05
0.012915802
0.0030385522
7.5392352e-10
7.0513769e-10
8.5856401e-10
8.8280879e-10
0.0027778636
0.0034285994
0.0019596749
0.0016243471
9.7908643e-10
3.4088615e-07
0.0054837326
0.00069613159
9.5311191e-10
7.1902082e-10
6.9877203e-10
8.8956126e-07
0.10250749
6.7699003e-08
5.8648169e-08
6.2306003e-07
3.1736329e-08
1.2369548e-07
1.5905607e-07
3.5291776e-07
7.8430582e-07
1.278979e-07
1.082896e-08
7.9418966e-09
6.0692851e-09
4.7581011e-09
3.0057747e-09
1.6386645e-09
2.8217531e-07
0.0075409579
0.0058480053
3.5449712e-09
0.00027337242
3.7161743e-09
0.0010608572
0.00048654345
7.5103563e-09
6.7411329e-09
0.00013651133
0.0021489298
0.00012649589
0.0018802556
0.0020397286
0.00032961972
5.2753072e-09
1.7661365e-05
3.0963787e-09
2.9906186e-09
2.9904837e-09
9.8641524e-05
0.011140159
0.00025495262
0.00053276551
0.00053680344
0.00017504494
3.3609506e-08
0.0075736688
0.00121394
6.6676949e-09
6.7947004e-09
0.018025873
0.018076998
0.0026261679
0.014042907
0.014042907
0.0054073979
5.6622713e-05
1.4499443e-08
0.0079813806
0.012969343
0.0045876
0.00070930912
1.0117699e-09
1.1215978e-09
0.0034434451
0.0050701385
0.005078019
0.0050708325
1.3046725e-09
1.2060036e-09
0.003575332
0.0054837328
0.005483733
0.00025355624
8.361256e-10
6.983444e-10
1.8722717e-05
2.4681931e-08
9.0111396e-05
5.8310956e-08
5.4921977e-08
5.2705574e-08
7.8712415e-08
8.1624346e-08
3.8301097e-07
7.8267316e-07
1.2934733e-07
8.5791412e-06
0.0015007998
3.5445129e-05
3.8361005e-09
2.5664788e-09
1.6409603e-09
5.4830619e-06
0.00090503061
3.7806613e-09
2.6071332e-09
2.6069937e-09
3.6582452e-09
3.7862419e-09
0.00085621266
0.00028349953
4.0663209e-07
0.0028388888
4.6892042e-09
4.3243007e-09
4.0316612e-06
0.0019660952
5.0243668e-05
5.73507e-09
8.5677401e-05
8.5635777e-05
3.2460915e-06
3.3668226e-09
3.7585606e-09
0.00082548589
2.767541e-05
1.4830703e-09
1.0501291e-09
1.0501291e-09
0.0015549828
9.7452433e-05
3.382088e-09
0.0017967539
0.0049568345
0.015055702
0.0044162183
0.00090310253
0.0016491415
0.0080864723
0.0028123412
1.4606865e-08
1.4251579e-08
0.012925726
0.01151827
0.013159317
0.0042921775
1.2160948e-09
7.9288992e-07
0.0001111756
1.2589605e-09
1.2483203e-09
1.2519927e-09
1.4200645e-09
0.0026952536
0.0048799217
0.0044005973
0.0054837332
0.0007027773
8.60392e-10
7.274634e-10
1.8726612e-05
7.7074502e-06
0.0002490447
0.00025104716
1.1918872e-05
5.4980701e-08
5.3642667e-06
1.0884298e-05
3.6118655e-07
3.5894231e-07
5.7553836e-06
2.80567e-05
0.0020218402
0.00015347711
5.2662291e-09
3.5024932e-06
2.6098144e-09
3.0352505e-07
4.6150814e-09
3.7945426e-09
9.2723315e-06
2.6070653e-09
9.0849892e-09
4.7585079e-09
0.00012094936
0.0017640024
0.0021645987
0.0021501286
0.00071972037
4.8602425e-09
5.2857166e-09
6.0536786e-09
6.153628e-09
0.0014079266
2.6216366e-05
9.5674105e-06
3.2441225e-09
0.0019620989
0.0017118594
3.4332432e-08
3.4223917e-08
0.0014248606
1.4136811e-09
1.3475629e-09
1.4972786e-09
1.6223374e-09
0.00023711066
0.0097010694
0.0097010694
6.6314908e-07
0.0043064959
0.011905275
0.0010970222
2.4501124e-09
0.0094275938
0.00052640148
1.43202e-08
0.012591066
0.00094259415
0.0067092986
1.4809175e-09
1.4544138e-09
3.3052226e-07
1.5707998e-09
0.00014734171
1.4386275e-09
5.2995478e-05
0.00031896034
0.0037535397
1.2903372e-10
1.1920495e-10
0.00016094456
0.00025763401
1.0857216e-09
5.0230577e-07
1.1400348e-05
3.5036528e-08
3.5521085e-08
0.00040716331
0.00040963052
0.00017330953
6.7727087e-08
1.3124963e-05
5.5893379e-06
3.6089137e-07
1.4895992e-05
4.7335408e-05
0.002022415
0.00041608194
0.00023005975
0.00017557658
0.0003382249
3.3316279e-09
4.5105259e-06
0.00018426188
0.00018478329
2.6111863e-09
7.8611311e-09
9.0576127e-08
1.6134021e-09
1.6133068e-09
0.0012238765
2.5849378e-07
0.002798604
0.00035958516
5.7418259e-09
1.4113091e-06
3.2194873e-07
0.0046757688
3.9527135e-07
2.4510231e-09
0.0037596539
0.0090672984
0.0060440513
0.0067164446
0.015548552
0.021880669
0.0096281646
0.0046311147
0.00029757105
1.6507055e-09
0.005408648
0.0036575713
0.00099239529
1.1191517e-07
0.022163265
0.01092518
6.4990139e-05
2.5348247e-09
0.00067231332
0.003681147
0.00012695331
6.1667496e-09
6.1170718e-09
6.3324553e-09
0.00030621741
0.0033930594
1.3877579e-09
1.3941268e-09
0.00056652694
0.00054499187
0.0010438162
0.0013336451
0.0017114366
0.00013937531
1.188585e-10
1.188585e-10
1.207449e-10
0.00013144162
2.7998038e-05
1.752962e-10
3.8818616e-08
4.0056198e-08
2.7226491e-08
0.00040877301
0.00040863817
6.5861685e-08
2.0755273e-06
5.5882009e-06
3.8213041e-06
6.5315508e-09
3.0527967e-05
0.0020234082
0.00094645697
0.00043225667
7.847221e-07
0.0011902226
0.0014800847
4.4521882e-08
6.3123309e-05
0.00018486573
8.3046002e-09
4.6302582e-09
3.3922639e-09
2.1751204e-09
3.7240251e-09
2.8717097e-09
2.2341394e-09
0.001738233
0.0017335936
0.00062403461
1.1780151e-06
0.0011248487
0.0031135573
0.0033741612
0.000249733
0.012492979
0.0010448852
3.2191957e-08
3.2154787e-08
0.021008599
0.020618841
0.021020846
0.020923637
0.00044796928
1.8557908e-09
0.00090479217
7.5555789e-08
4.7816679e-07
0.003599343
0.0044607927
1.4487888e-09
1.2881871e-09
3.3422469e-07
1.9508951e-09
0.0080968888
5.8935647e-09
5.8409108e-09
5.9466801e-09
3.0258894e-05
0.00498477
0.005096482
0.00028635304
0.0035543765
8.2532094e-09
0.0011686772
1.1742536e-10
1.1741102e-10
1.2664311e-10
0.0003030323
1.1898826e-10
1.189642e-10
1.0895736e-06
0.00016959788
1.5783677e-05
1.1564526e-10
4.6864701e-08
2.7654794e-07
2.6954529e-08
2.3600436e-08
2.4585321e-08
6.547288e-08
1.93667e-07
6.9756594e-09
6.6148749e-09
6.5109409e-09
1.3980205e-05
0.0020234066
8.1735063e-09
9.8622732e-05
7.8181991e-07
5.184713e-07
0.0022061288
0.0016734391
6.9945088e-08
2.8087389e-05
0.0019577951
4.7210413e-09
3.8740932e-09
5.2287472e-07
3.1177759e-09
2.5076708e-09
2.230173e-09
2.2185189e-09
2.3094549e-09
0.0019450857
1.4832076e-05
0.001520932
5.5562342e-10
0.0056282321
0.0057613021
0.0088836131
6.4881303e-06
5.0320755e-05
7.4850177e-06
5.0069053e-10
4.9976674e-10
4.9966756e-10
4.9966756e-10
5.180263e-10
1.0952423e-08
4.9691656e-10
0.00068577501
0.0026231133
0.023534933
0.0094255139
1.7776387e-09
1.5253018e-09
6.0394e-05
1.9342908e-09
0.0034584499
0.0044430951
5.8431539e-09
0.00010500559
0.0015594897
1.4433131e-09
1.5372981e-09
2.4835763e-05
0.0019233657
2.1610163e-05
2.553729e-09
6.0944292e-08
2.1501419e-10
2.4705321e-10
1.1315954e-10
6.7779165e-09
1.2444428e-10
5.3383382e-07
0.00016959792
1.3152991e-05
1.4628454e-10
4.5590535e-08
2.9509076e-08
2.9077551e-08
1.2051164e-05
0.00028858162
6.4413646e-08
3.2310883e-07
7.9350848e-07
1.5270647e-07
6.4954964e-09
6.4302209e-06
0.002023548
3.3016844e-09
3.2486007e-09
2.4100417e-09
0.00012673844
0.00047879337
0.0026518165
1.1656061e-07
0.00012930386
0.0030209629
0.0018249501
4.4330797e-09
2.5672601e-06
0.001696973
2.4531187e-09
2.2121927e-09
2.6485837e-09
2.4731807e-06
2.0436822e-10
1.9813617e-10
1.9813603e-10
5.3972014e-10
5.6307636e-10
0.0026087554
1.113277e-07
1.1175283e-07
1.1218055e-07
7.7326695e-05
4.3360821e-05
2.2061048e-06
7.4398827e-10
7.3529908e-10
2.393379e-06
2.0361942e-07
4.9695086e-10
0.0031039072
0.0020412529
0.020838462
0.011744628
0.013105248
0.0043894343
1.8942404e-09
1.8828845e-09
1.6695837e-06
0.0083026307
0.0020907159
3.1159903e-08
6.3637847e-05
4.0875858e-05
0.0013132065
0.00042836086
4.272358e-05
4.2718768e-05
3.3043139e-10
1.5629212e-09
6.0022698e-10
7.1773713e-10
3.9371471e-09
9.3842061e-10
8.090478e-10
5.2499884e-10
0.00012098782
9.9220468e-05
1.9235288e-07
4.7120392e-08
4.3216825e-08
3.2324592e-08
1.4192189e-05
0.00033593248
6.435936e-08
7.103875e-07
2.4046265e-06
2.386813e-06
6.4729026e-09
7.3949215e-06
0.001016986
1.0422103e-06
5.0402479e-09
5.4111667e-09
0.00041044711
1.2196929e-05
0.0026518166
3.598827e-08
3.0007603e-05
0.00096340518
0.0027521339
0.00059951625
3.2495113e-06
0.0035435714
0.0031227083
0.0034119589
0.00061978978
3.4646691e-07
1.1050485e-05
4.9382629e-10
1.1956655e-07
9.9018415e-05
0.00018378882
0.00022412976
1.1087582e-07
0.004057715
0.00092614365
0.0044468968
0.0013064494
1.3133809e-09
1.0396611e-09
0.00020341803
1.710547e-05
9.3332094e-10
7.151385e-10
8.4430292e-10
1.0851122e-09
1.4436982e-09
1.4588637e-09
0.016723983
0.010171011
1.5610991e-09
4.721376e-07
4.6986073e-05
0.0067341805
0.0012532109
0.0014098701
7.9243279e-09
8.0135802e-09
0.0017311093
0.006572835
0.00029807113
8.1869384e-06
3.3047726e-10
3.5106436e-09
1.8180563e-09
1.3673993e-09
1.5304679e-08
1.8574038e-06
8.9236958e-10
7.2640702e-10
7.4305688e-10
0.00011466939
5.6765815e-06
4.8005251e-08
4.5680893e-08
1.8197807e-07
2.1178519e-07
0.00033593256
8.1328911e-05
6.7385884e-09
6.3495108e-09
6.3321856e-09
6.4491571e-09
5.8698184e-06
9.8764408e-09
1.0961893e-08
3.3222298e-08
1.1601866e-05
1.1722022e-05
1.2167495e-05
0.0011050016
5.1592863e-09
0.0013363727
2.965152e-07
0.0015722944
0.0022485944
0.0015980655
1.7356223e-08
0.0062769644
0.0062770463
0.0036611771
3.4636539e-07
0.00012766385
2.061153e-10
2.0603051e-10
0.00087091655
0.00087214682
0.00085469153
0.0059053486
0.0059472268
0.0013723077
0.00032611494
1.051053e-07
0.00034852975
0.011771619
0.0099818536
1.3048093e-09
9.3332219e-10
0.0003218786
0.0025074473
0.0033441147
0.0019619503
0.00030908519
0.016722797
0.0067397054
1.3023754e-09
1.0049516e-09
1.0073154e-09
1.255253e-09
1.50691e-09
0.0013220551
0.00097162407
0.00049606081
0.0004748783
0.0056489699
0.00028494502
2.9477493e-09
3.3758672e-06
6.7296521e-10
6.6913518e-09
1.0093031e-09
1.0194374e-09
7.023047e-06
5.9026899e-05
7.8619875e-05
8.2520495e-06
7.7823717e-05
8.8836942e-06
3.1619179e-07
4.8236922e-07
3.0953685e-07
6.4386862e-05
0.00033593261
0.00033050216
6.7482492e-09
7.5960824e-09
6.3192674e-09
7.1473037e-09
4.5871327e-07
1.2782033e-06
0.00012338439
1.9475209e-06
0.00024103931
0.0004752364
1.1594001e-05
0.00053998882
0.0077278393
0.0085257251
5.7500474e-05
2.389802e-09
2.2694524e-09
2.2694657e-09
0.0014338809
0.0052882783
0.0050062107
0.0023761901
0.0007105699
1.1572916e-09
5.701615e-10
1.9644881e-09
7.6637474e-10
7.66076e-10
8.115281e-10
0.0026541066
3.6531066e-08
3.6677041e-08
3.6381992e-08
0.0056833826
0.026521264
0.026802849
7.8035691e-07
3.8846071e-08
9.949201e-10
0.0024934338
0.0048324518
0.0048120109
0.00044216296
7.5670918e-08
0.0010662534
0.0025003904
0.011294858
0.014615275
0.011488019
1.2321106e-09
1.5099176e-09
1.665924e-06
0.0005474975
0.00078251533
0.00023678754
2.5776861e-09
2.8167421e-09
2.9422401e-09
1.3909565e-05
6.7764948e-10
2.2959425e-08
7.8789011e-10
8.9942506e-10
2.1889048e-06
8.2668456e-05
8.2578956e-05
1.8882135e-05
1.4180245e-10
1.0061232e-06
3.9198445e-08
4.8129543e-07
2.4430855e-07
0.00022501489
0.00031809227
1.9748039e-06
7.5701663e-09
4.8413707e-05
5.0700661e-09
1.7236794e-06
4.6844066e-07
3.7515276e-06
0.00018308181
1.8507491e-06
6.7353511e-05
0.00050711816
3.0934606e-09
0.00050310762
0.0085257209
0.0040193188
0.00061247993
0.00018218734
2.2724431e-09
2.6663935e-08
0.0043117842
9.4897082e-06
8.5103419e-08
8.4505771e-08
0.0020224144
0.0006815551
1.861303e-05
2.3109165e-09
2.3446769e-07
1.1795024e-09
1.0467965e-09
1.3634874e-09
9.4577023e-06
0.0076620886
0.00038340363
0.026505667
0.026511883
0.002960841
2.5297583e-06
3.8857722e-08
0.00021962565
9.2111682e-10
8.7948969e-10
8.794892e-10
9.1782315e-10
4.3028977e-05
1.9888661e-05
0.014784247
6.116638e-05
0.0087626142
0.017158947
5.0599313e-05
1.3087919e-09
3.5092351e-06
4.5770748e-05
3.2556013e-10
0.00071816646
2.361726e-09
0.00011243421
8.2950227e-05
6.0533178e-09
8.2478946e-09
4.7424392e-08
9.245925e-10
2.1034865e-09
9.6275986e-11
9.6228024e-11
9.6212396e-11
9.6196861e-11
9.6181644e-11
9.6166489e-11
3.8983016e-08
3.598501e-08
3.8389203e-08
4.2554676e-08
0.00033602051
2.0072975e-06
4.1594833e-05
8.4066834e-05
5.0701043e-09
2.9117458e-05
4.4632711e-05
1.3932854e-08
1.403586e-08
7.6949002e-05
0.0012705724
1.930382e-09
2.0782961e-09
0.00015395645
0.0085193372
5.7819627e-08
0.00039221997
0.00052448233
5.111144e-09
1.30553e-05
0.0043117841
0.00011723102
0.00049168532
1.0479339e-05
0.00084698656
0.0012152622
0.00011441513
2.6171873e-09