/*--------------------------------*- C++ -*----------------------------------*\
| =========                 |                                                 |
| \\      /  F ield         | OpenFOAM: The Open Source CFD Toolbox           |
|  \\    /   O peration     | Version:  2.3.0                                 |
|   \\  /    A nd           | Web:      www.OpenFOAM.org                      |
|    \\/     M anipulation  |                                                 |
\*---------------------------------------------------------------------------*/
FoamFile
{
    version     2.0;
    format      ascii;
    class       volScalarField;
    location    "2.6e-05";
    object      nuSgs;
}
// * * * * * * * * * * * * * * * * * * * * * * * * * * * * * * * * * * * * * //

dimensions      [0 2 -1 0 0 0 0];

internalField   nonuniform List<scalar> 
7500
(
4.1403316e-10
4.1910289e-10
4.2443158e-10
4.2931254e-10
4.3424354e-10
4.3922141e-10
4.4400261e-10
4.4874464e-10
4.5343053e-10
4.5805729e-10
4.6263998e-10
4.6718828e-10
4.7171174e-10
4.7619709e-10
4.8068687e-10
4.851172e-10
4.8958132e-10
4.9394821e-10
4.9830178e-10
5.0256643e-10
5.0673712e-10
5.1085061e-10
5.149054e-10
5.1893634e-10
5.2296578e-10
5.2697236e-10
5.3098634e-10
5.349487e-10
5.3889997e-10
5.427775e-10
5.4667308e-10
5.5054854e-10
5.5425922e-10
5.579855e-10
5.6159699e-10
5.6529426e-10
5.6891288e-10
5.7269598e-10
5.7631606e-10
5.8583647e-10
5.8974263e-10
5.9362438e-10
5.9730031e-10
6.008782e-10
6.0444643e-10
6.0791413e-10
6.113452e-10
6.147291e-10
6.1812715e-10
6.2159998e-10
6.2490071e-10
6.2817289e-10
6.3149187e-10
6.3476445e-10
6.3814368e-10
6.4144641e-10
6.4496457e-10
6.483911e-10
6.5220045e-10
6.5575235e-10
6.5993729e-10
6.6377667e-10
6.6872088e-10
6.7292597e-10
6.7865973e-10
6.8322246e-10
6.8969977e-10
6.9465565e-10
7.0190575e-10
7.0708175e-10
7.1473409e-10
7.2008551e-10
7.28176e-10
7.3382707e-10
7.4495304e-10
4.5545115e-10
4.6098404e-10
4.6652905e-10
4.719144e-10
4.7727223e-10
4.8258979e-10
4.8784008e-10
4.9304351e-10
4.9820441e-10
5.0332683e-10
5.0840899e-10
5.1345763e-10
5.1848418e-10
5.2342753e-10
5.2835848e-10
5.3320199e-10
5.3801251e-10
5.4274027e-10
5.4742313e-10
5.5205504e-10
5.5665027e-10
5.6120155e-10
5.6574394e-10
5.7023204e-10
5.7475352e-10
5.792011e-10
5.8374441e-10
5.881775e-10
5.9277826e-10
5.9721273e-10
6.0185536e-10
6.0646046e-10
6.1092251e-10
6.1584144e-10
6.2055636e-10
6.2606665e-10
6.3102789e-10
6.3696765e-10
6.4201082e-10
6.542076e-10
6.5946896e-10
6.6507408e-10
6.7033202e-10
6.7542364e-10
6.8072431e-10
6.8583578e-10
6.9143603e-10
6.9674659e-10
7.028204e-10
7.0855435e-10
7.1536194e-10
7.2185966e-10
7.2999118e-10
7.3749998e-10
7.4729958e-10
7.5624289e-10
7.6837837e-10
7.7912935e-10
7.9459853e-10
8.0720768e-10
8.2591215e-10
8.4063722e-10
8.6348036e-10
8.8107225e-10
9.081947e-10
9.2861803e-10
9.617328e-10
9.8457563e-10
1.0212431e-09
1.0451119e-09
1.0826566e-09
1.1074128e-09
1.1462474e-09
1.1725903e-09
1.2302176e-09
5.0104476e-10
5.0719183e-10
5.1344769e-10
5.194742e-10
5.2559503e-10
5.3154827e-10
5.3755799e-10
5.4343409e-10
5.4932998e-10
5.5512676e-10
5.6089853e-10
5.6658247e-10
5.7223943e-10
5.7777436e-10
5.8328661e-10
5.8869407e-10
5.9407742e-10
5.9939589e-10
6.0472127e-10
6.1000049e-10
6.1535794e-10
6.2065298e-10
6.2615133e-10
6.3156294e-10
6.3743014e-10
6.4313731e-10
6.4971436e-10
6.5587162e-10
6.6340852e-10
6.7015118e-10
6.7851594e-10
6.8727426e-10
6.9531943e-10
7.0688961e-10
7.1715549e-10
7.3270903e-10
7.4496103e-10
7.6441007e-10
7.7852833e-10
8.076567e-10
8.2339072e-10
8.4449825e-10
8.6629811e-10
8.8525625e-10
9.1145998e-10
9.356412e-10
9.7059362e-10
9.9947982e-10
1.04226e-09
1.0775099e-09
1.1312107e-09
1.1750562e-09
1.2408376e-09
1.292333e-09
1.3689616e-09
1.4305358e-09
1.5207196e-09
1.5929175e-09
1.701824e-09
1.7807352e-09
1.9001044e-09
1.9867071e-09
2.1196145e-09
2.2153809e-09
2.3592812e-09
2.4641752e-09
2.6289873e-09
2.7394254e-09
2.9088896e-09
3.0181346e-09
3.1811702e-09
3.2900335e-09
3.4521181e-09
3.5644544e-09
3.8011886e-09
5.5184758e-10
5.5902003e-10
5.6718425e-10
5.74335e-10
5.8228638e-10
5.8941606e-10
5.9723387e-10
6.0428285e-10
6.1189744e-10
6.1886724e-10
6.2623493e-10
6.3305502e-10
6.4010257e-10
6.4672122e-10
6.5357245e-10
6.6013534e-10
6.6705116e-10
6.737826e-10
6.8121479e-10
6.8833811e-10
6.9664394e-10
7.0439829e-10
7.140019e-10
7.2291703e-10
7.3496119e-10
7.4598329e-10
7.6226762e-10
7.7646974e-10
7.9880018e-10
8.1751425e-10
8.4767824e-10
8.7591409e-10
9.0795054e-10
9.6198348e-10
1.0054135e-09
1.0768652e-09
1.1354486e-09
1.235917e-09
1.3108519e-09
1.4451872e-09
1.5361245e-09
1.6643575e-09
1.8108731e-09
1.9282159e-09
2.1023856e-09
2.2524511e-09
2.4777779e-09
2.6448869e-09
2.8996236e-09
3.090004e-09
3.3850153e-09
3.6007868e-09
3.9270598e-09
4.1606648e-09
4.5147695e-09
4.7775769e-09
5.1648508e-09
5.457524e-09
5.8978582e-09
6.2007503e-09
6.659657e-09
6.9812233e-09
7.4675511e-09
7.8071474e-09
8.3156039e-09
8.6813494e-09
9.250198e-09
9.6256054e-09
1.0188083e-08
1.0552207e-08
1.1077765e-08
1.1431311e-08
1.1944875e-08
1.2305896e-08
1.3048113e-08
6.0116486e-10
6.1185153e-10
6.2709202e-10
6.3730241e-10
6.5085108e-10
6.6049313e-10
6.7278552e-10
6.8225061e-10
6.9393404e-10
7.0339562e-10
7.1479493e-10
7.2430846e-10
7.3578695e-10
7.4559853e-10
7.5783693e-10
7.6854172e-10
7.8286724e-10
7.9531467e-10
8.1320972e-10
8.2819356e-10
8.5075419e-10
8.6960701e-10
8.9900588e-10
9.2520029e-10
9.6804093e-10
1.0080548e-09
1.0756649e-09
1.1376886e-09
1.243885e-09
1.3370798e-09
1.4970474e-09
1.6324333e-09
1.8351532e-09
2.0870618e-09
2.2991616e-09
2.6459504e-09
2.931935e-09
3.3924233e-09
3.7261971e-09
4.253782e-09
4.6490052e-09
5.2062953e-09
5.8290542e-09
6.299731e-09
7.0119194e-09
7.6023648e-09
8.4634464e-09
9.0774665e-09
1.0027867e-08
1.070538e-08
1.1756593e-08
1.24852e-08
1.3600944e-08
1.436787e-08
1.5558526e-08
1.6391661e-08
1.7644168e-08
1.8556835e-08
1.9945311e-08
2.0870075e-08
2.228921e-08
2.324751e-08
2.4694054e-08
2.5678934e-08
2.7177061e-08
2.8235575e-08
2.98898e-08
3.0960437e-08
3.2544038e-08
3.357692e-08
3.5017521e-08
3.5982897e-08
3.737502e-08
3.8351608e-08
4.0334223e-08
6.3855934e-10
6.5440804e-10
6.7872337e-10
6.9327534e-10
7.1548975e-10
7.2905377e-10
7.4960974e-10
7.6267117e-10
7.8241545e-10
7.9600677e-10
8.1668732e-10
8.3196595e-10
8.5618182e-10
8.7475026e-10
9.0564172e-10
9.2936123e-10
9.702249e-10
1.0019796e-09
1.0568862e-09
1.102195e-09
1.179485e-09
1.251431e-09
1.3723371e-09
1.4953969e-09
1.7015302e-09
1.9065193e-09
2.2421642e-09
2.5507458e-09
3.0567607e-09
3.4831161e-09
4.1879064e-09
4.7478687e-09
5.6278789e-09
6.4804501e-09
7.2858443e-09
8.6138005e-09
9.6037273e-09
1.1143163e-08
1.224454e-08
1.4025975e-08
1.5312496e-08
1.7196156e-08
1.905785e-08
2.0545549e-08
2.2814809e-08
2.4721181e-08
2.7143486e-08
2.8986636e-08
3.1868902e-08
3.3829096e-08
3.6850041e-08
3.8891946e-08
4.2058117e-08
4.4184062e-08
4.7523663e-08
4.9751667e-08
5.3133596e-08
5.5599996e-08
5.9328975e-08
6.1749332e-08
6.5478676e-08
6.7916611e-08
7.1570576e-08
7.4039742e-08
7.7841132e-08
8.050779e-08
8.4654153e-08
8.7356006e-08
9.1181113e-08
9.3737393e-08
9.7177372e-08
9.9499184e-08
1.0281028e-07
1.0514219e-07
1.0976138e-07
6.6376502e-10
6.8109486e-10
7.0861459e-10
7.27264e-10
7.573128e-10
7.7640779e-10
8.0786145e-10
8.2795067e-10
8.6204722e-10
8.8496622e-10
9.2530917e-10
9.5495794e-10
1.0085586e-09
1.0503791e-09
1.1249089e-09
1.1880849e-09
1.2980098e-09
1.4065103e-09
1.5896972e-09
1.7898102e-09
2.1158829e-09
2.4747158e-09
3.0316698e-09
3.6074913e-09
4.5242919e-09
5.3609006e-09
6.679115e-09
7.8050777e-09
9.6303511e-09
1.1060037e-08
1.3421413e-08
1.5182105e-08
1.8089052e-08
2.0342943e-08
2.3117966e-08
2.7051171e-08
2.9722408e-08
3.4031118e-08
3.714507e-08
4.2214388e-08
4.5634969e-08
5.0953543e-08
5.5012813e-08
5.992233e-08
6.5155409e-08
7.0789106e-08
7.5590048e-08
8.13489e-08
8.8047769e-08
9.2829808e-08
1.0013098e-07
1.0503385e-07
1.1260057e-07
1.1761494e-07
1.2538689e-07
1.3059145e-07
1.3804934e-07
1.4417573e-07
1.5215659e-07
1.5775384e-07
1.6601451e-07
1.7133528e-07
1.7905376e-07
1.844053e-07
1.9263972e-07
1.9842674e-07
2.0723426e-07
2.1309105e-07
2.211044e-07
2.2655475e-07
2.3369692e-07
2.3861552e-07
2.454196e-07
2.5034638e-07
2.5976094e-07
6.8754751e-10
7.1284403e-10
7.5126376e-10
7.9088043e-10
8.2028583e-10
8.6119177e-10
8.9271675e-10
9.4349064e-10
9.8399673e-10
1.0382888e-09
1.1038433e-09
1.1643591e-09
1.2651586e-09
1.3737283e-09
1.5482227e-09
1.7800122e-09
2.1494033e-09
2.6355923e-09
3.3970313e-09
4.2664901e-09
5.5775547e-09
6.9842409e-09
8.9425426e-09
1.0926176e-08
1.4051888e-08
1.6592795e-08
2.0656142e-08
2.3919872e-08
2.9309649e-08
3.3243543e-08
3.9821795e-08
4.4474511e-08
5.2331251e-08
5.7783329e-08
6.614911e-08
7.446805e-08
8.1132176e-08
9.214937e-08
9.9649244e-08
1.1150282e-07
1.1921418e-07
1.3167563e-07
1.3996464e-07
1.5347314e-07
1.6217088e-07
1.7626431e-07
1.8538564e-07
2.0015221e-07
2.10893e-07
2.2376743e-07
2.3781297e-07
2.4873607e-07
2.6365725e-07
2.7496174e-07
2.8942865e-07
3.0165488e-07
3.1502393e-07
3.2888322e-07
3.4291006e-07
3.557101e-07
3.7097765e-07
3.8220484e-07
3.9679151e-07
4.0759561e-07
4.2370036e-07
4.3527184e-07
4.5248215e-07
4.6432119e-07
4.8029818e-07
4.9112481e-07
5.052817e-07
5.154101e-07
5.2890132e-07
5.3922346e-07
5.583048e-07
7.0580513e-10
7.8195768e-10
8.2046631e-10
8.9250401e-10
9.326361e-10
1.0085084e-09
1.0550504e-09
1.1397216e-09
1.2008847e-09
1.3034317e-09
1.4205948e-09
1.6029116e-09
1.8913612e-09
2.3420076e-09
3.0354203e-09
4.0070269e-09
5.5108345e-09
7.2579852e-09
9.9952867e-09
1.2734329e-08
1.6740137e-08
2.1441283e-08
2.6240468e-08
3.2372764e-08
4.1005625e-08
4.7438354e-08
5.8068601e-08
6.619795e-08
7.9811498e-08
8.9103671e-08
1.0478142e-07
1.154339e-07
1.3356311e-07
1.4557896e-07
1.6556836e-07
1.7933183e-07
1.9842051e-07
2.1927014e-07
2.3539992e-07
2.5857958e-07
2.7470756e-07
3.0050774e-07
3.1702837e-07
3.4353759e-07
3.6066572e-07
3.8832265e-07
4.0634757e-07
4.3570838e-07
4.5441775e-07
4.8376546e-07
5.0549214e-07
5.3115696e-07
5.5667949e-07
5.8098636e-07
6.0639469e-07
6.3108499e-07
6.5579156e-07
6.8419705e-07
7.0881325e-07
7.3729169e-07
7.6502187e-07
7.9170684e-07
8.1758882e-07
8.4338459e-07
8.7312507e-07
8.9910968e-07
9.3371059e-07
9.5923206e-07
9.924538e-07
1.0154269e-06
1.0464041e-06
1.0702404e-06
1.1017896e-06
1.1275881e-06
1.1743258e-06
7.0336568e-10
7.752683e-10
8.2355783e-10
9.3246027e-10
9.8751872e-10
1.1003576e-09
1.1714187e-09
1.2969821e-09
1.4648438e-09
1.7614367e-09
2.2563376e-09
3.0520532e-09
4.2455602e-09
5.9580806e-09
8.496679e-09
1.161563e-08
1.6534223e-08
2.1490576e-08
2.9525441e-08
3.6735813e-08
4.7052999e-08
6.0585651e-08
7.0784908e-08
8.8085306e-08
1.0541318e-07
1.2108642e-07
1.4517503e-07
1.6307615e-07
1.9258011e-07
2.1172939e-07
2.4423031e-07
2.6582588e-07
3.0239992e-07
3.2598466e-07
3.6510791e-07
3.9055679e-07
4.3323919e-07
4.6056945e-07
5.0389805e-07
5.3815812e-07
5.7532983e-07
6.2044951e-07
6.5190596e-07
7.0221754e-07
7.3548059e-07
7.8780985e-07
8.2295954e-07
8.7943488e-07
9.1681902e-07
9.7609817e-07
1.0145632e-06
1.073175e-06
1.1142184e-06
1.1664836e-06
1.218051e-06
1.2643653e-06
1.3242528e-06
1.3817907e-06
1.4422329e-06
1.5045096e-06
1.5707233e-06
1.6355094e-06
1.686999e-06
1.7580387e-06
1.8107839e-06
1.8837955e-06
1.9544825e-06
2.0136453e-06
2.0944434e-06
2.1594703e-06
2.2557974e-06
2.3314415e-06
2.4332768e-06
2.5091328e-06
2.6356069e-06
7.4764062e-10
8.1840067e-10
9.2528924e-10
1.0223229e-09
1.0933296e-09
1.2066752e-09
1.4092265e-09
1.8036973e-09
2.5196653e-09
3.6996734e-09
5.5138447e-09
8.1728504e-09
1.1893024e-08
1.7084937e-08
2.4631792e-08
3.2989939e-08
4.6476156e-08
5.8677014e-08
7.8970673e-08
9.5517255e-08
1.2081029e-07
1.4896824e-07
1.715623e-07
2.1157813e-07
2.3960123e-07
2.8468455e-07
3.180301e-07
3.6157978e-07
4.1323311e-07
4.5013682e-07
5.1125921e-07
5.5186951e-07
6.1924328e-07
6.628051e-07
7.3369127e-07
7.8117754e-07
8.5944644e-07
9.11545e-07
9.9739189e-07
1.0537195e-06
1.1414935e-06
1.2141571e-06
1.2835614e-06
1.3816606e-06
1.4496092e-06
1.5573696e-06
1.6346236e-06
1.7595787e-06
1.8395928e-06
1.9650105e-06
2.0447639e-06
2.1717751e-06
2.2512516e-06
2.3917173e-06
2.5050628e-06
2.6287468e-06
2.8201106e-06
2.9654645e-06
3.1221198e-06
3.2580998e-06
3.4720696e-06
3.5980112e-06
3.728622e-06
3.9246334e-06
4.0517624e-06
4.2702272e-06
4.4024547e-06
4.5883279e-06
4.9294224e-06
5.1799569e-06
5.6266101e-06
5.8444805e-06
6.1501863e-06
6.3101538e-06
6.5859138e-06
8.2751927e-10
1.0254528e-09
1.1730877e-09
1.2986701e-09
1.4799202e-09
1.8580612e-09
2.641052e-09
4.0884535e-09
6.4447289e-09
1.0008046e-08
1.5213055e-08
2.2697376e-08
3.2627068e-08
4.7015598e-08
6.5292501e-08
8.5914172e-08
1.1743172e-07
1.4426207e-07
1.8864923e-07
2.2240169e-07
2.7821886e-07
3.2402312e-07
3.7569075e-07
4.5057404e-07
5.0099791e-07
5.8364343e-07
6.3961187e-07
7.332845e-07
8.0056568e-07
8.9056247e-07
9.8764377e-07
1.0702074e-06
1.1921249e-06
1.2766491e-06
1.4062333e-06
1.5020205e-06
1.6612063e-06
1.7707851e-06
1.9543909e-06
2.072464e-06
2.2669634e-06
2.3910103e-06
2.5669703e-06
2.7799668e-06
2.9511574e-06
3.2306142e-06
3.4103824e-06
3.7378328e-06
3.8834581e-06
4.1976657e-06
4.3425e-06
4.7207377e-06
4.8494593e-06
5.519678e-06
5.7506102e-06
6.1693457e-06
6.883412e-06
7.1023368e-06
7.2244106e-06
7.6442081e-06
8.4632678e-06
8.5972872e-06
8.8919926e-06
9.6317043e-06
9.7861345e-06
1.0458545e-05
1.0648702e-05
1.1473179e-05
1.1941844e-05
1.2144742e-05
1.2449409e-05
1.2940476e-05
1.3078555e-05
1.3348241e-05
1.3579258e-05
7.7988239e-10
9.2806767e-10
1.0730848e-09
1.381414e-09
2.1084944e-09
3.6488205e-09
6.3362561e-09
1.0667076e-08
1.7158209e-08
2.6544493e-08
4.0030149e-08
5.9473873e-08
8.2731908e-08
1.2038805e-07
1.5435979e-07
2.06417e-07
2.6248604e-07
3.2111413e-07
4.0249079e-07
4.6791676e-07
5.7189707e-07
6.4543058e-07
7.6298807e-07
8.6077668e-07
9.7060936e-07
1.1057885e-06
1.2148743e-06
1.3850957e-06
1.5022503e-06
1.7025078e-06
1.8477266e-06
2.0721882e-06
2.270194e-06
2.4752627e-06
2.7134462e-06
2.9697321e-06
3.3710065e-06
3.6017616e-06
4.0656163e-06
4.291506e-06
4.7767087e-06
5.0021446e-06
5.5386589e-06
6.189345e-06
6.6762495e-06
7.3276051e-06
7.7611779e-06
8.5981632e-06
8.7368827e-06
9.6557704e-06
9.8349743e-06
1.1044377e-05
1.0926591e-05
1.2279913e-05
1.1974698e-05
1.2729387e-05
1.4286408e-05
1.3809937e-05
1.3567622e-05
1.4699724e-05
1.5054264e-05
1.397925e-05
1.4868973e-05
1.4909223e-05
1.4128965e-05
1.4399386e-05
1.4838254e-05
1.5740252e-05
1.3698994e-05
1.3282629e-05
1.2081915e-05
1.2052187e-05
1.0791234e-05
1.077111e-05
1.0189241e-05
7.2452009e-10
8.502993e-10
1.2034118e-09
2.3476443e-09
4.7993776e-09
9.2287461e-09
1.6410834e-08
2.7408498e-08
4.3320545e-08
6.5797328e-08
9.8459525e-08
1.4184785e-07
1.9218317e-07
2.7062286e-07
3.3528942e-07
4.4614264e-07
5.2742283e-07
6.6568061e-07
7.687203e-07
9.2201384e-07
1.0715132e-06
1.2210085e-06
1.4247063e-06
1.57712e-06
1.8369144e-06
2.0235489e-06
2.3164343e-06
2.5906423e-06
2.8549489e-06
3.3312762e-06
3.6588861e-06
4.1862273e-06
4.5457134e-06
5.0741523e-06
5.702919e-06
6.6268494e-06
7.4233389e-06
7.9030896e-06
9.2307602e-06
9.4538186e-06
1.0852429e-05
1.0913639e-05
1.2484692e-05
1.2392515e-05
1.3453759e-05
1.3753805e-05
1.4416131e-05
1.3841258e-05
1.4030641e-05
1.4296125e-05
1.471616e-05
1.3787427e-05
1.3727196e-05
1.3076629e-05
1.2511594e-05
1.3151379e-05
1.1716683e-05
9.9121781e-06
1.1020534e-05
1.0083832e-05
8.1279344e-06
7.9387291e-06
8.733488e-06
7.2310295e-06
6.9598187e-06
6.7337958e-06
8.5820552e-06
5.8419419e-06
4.2007682e-06
4.2380727e-06
3.5074261e-06
3.2269828e-06
2.7776656e-06
2.8335275e-06
2.6636183e-06
6.9809794e-10
1.0092616e-09
2.4152423e-09
5.8569111e-09
1.2389034e-08
2.3368808e-08
4.0584991e-08
6.6025076e-08
1.0160462e-07
1.5164697e-07
2.2782248e-07
3.0311539e-07
4.1424726e-07
5.446112e-07
6.6635566e-07
8.6096085e-07
1.0009064e-06
1.2456222e-06
1.4181483e-06
1.7202854e-06
1.9347659e-06
2.291724e-06
2.592347e-06
2.9527621e-06
3.517002e-06
3.91031e-06
4.6058014e-06
5.0809094e-06
5.8927556e-06
7.2063181e-06
7.8629168e-06
9.1187906e-06
9.7752413e-06
1.1459106e-05
1.1647014e-05
1.320619e-05
1.3247942e-05
1.415457e-05
1.475759e-05
1.4333859e-05
1.4966548e-05
1.3413855e-05
1.437436e-05
1.2133162e-05
1.2645892e-05
1.0986383e-05
1.0937626e-05
7.5973553e-06
7.7578515e-06
6.4627599e-06
7.4082112e-06
5.1263937e-06
6.63358e-06
4.3386312e-06
5.2489091e-06
5.461926e-06
3.2040003e-06
3.2788391e-06
5.4664917e-06
4.0623808e-06
2.2188668e-06
2.581606e-06
3.2036071e-06
2.3597922e-06
2.5918698e-06
3.2275761e-06
3.5706896e-06
1.6236357e-06
1.3700342e-06
1.3983585e-06
1.3432113e-06
1.2429419e-06
1.1589986e-06
1.1832506e-06
1.1763429e-06
6.7065177e-10
1.9131652e-09
6.1168477e-09
1.4864685e-08
3.0587709e-08
5.5703307e-08
9.3758524e-08
1.4822646e-07
2.2103907e-07
3.2795791e-07
4.6358164e-07
6.0566617e-07
8.2281038e-07
9.96374e-07
1.2666446e-06
1.5538144e-06
1.8179802e-06
2.269301e-06
2.5828684e-06
3.1889917e-06
3.6177403e-06
4.4050446e-06
4.9532978e-06
6.085314e-06
7.2533919e-06
8.1359321e-06
9.846548e-06
1.0706896e-05
1.2286729e-05
1.3295948e-05
1.3686294e-05
1.4480925e-05
1.439858e-05
1.4419105e-05
1.2686676e-05
1.3112455e-05
1.1565902e-05
1.1085534e-05
8.2290625e-06
8.3560039e-06
5.8115656e-06
6.318054e-06
5.6442308e-06
4.767892e-06
5.1601006e-06
3.4460521e-06
2.8627013e-06
2.1151608e-06
2.5330981e-06
2.6472702e-06
2.2441364e-06
1.5651679e-06
2.1158478e-06
1.6154785e-06
2.5368964e-06
2.5339562e-06
1.8496749e-06
2.4262151e-06
3.6553375e-06
1.9035745e-06
1.3552943e-06
1.6189911e-06
2.8025448e-06
1.8868909e-06
2.4826214e-06
2.5784102e-06
2.1351792e-06
1.0978814e-06
1.1184998e-06
1.2398659e-06
1.259725e-06
1.2231086e-06
1.1280431e-06
1.1322549e-06
1.1414624e-06
6.3221244e-10
4.8174772e-09
1.5339292e-08
3.574352e-08
7.0576719e-08
1.2362406e-07
2.0161579e-07
3.1002742e-07
4.4643327e-07
6.6600188e-07
8.5798694e-07
1.1535266e-06
1.4639204e-06
1.8049634e-06
2.331407e-06
2.7387641e-06
3.3709033e-06
4.2243525e-06
4.8438064e-06
6.352868e-06
7.2456352e-06
9.1401012e-06
1.0106301e-05
1.193482e-05
1.2525921e-05
1.3366519e-05
1.4353905e-05
1.3931468e-05
1.3470043e-05
1.1853979e-05
1.1064955e-05
9.8239427e-06
7.6734485e-06
5.9961863e-06
5.5760212e-06
4.8414018e-06
5.0476267e-06
3.7348772e-06
2.3725171e-06
2.5021938e-06
1.9841107e-06
2.3790782e-06
1.7722897e-06
2.5761475e-06
2.6875839e-06
1.4689182e-06
1.2676897e-06
1.2411291e-06
1.6722522e-06
1.6776873e-06
1.3955732e-06
1.1312259e-06
1.1536196e-06
1.2093641e-06
1.6540035e-06
1.8434596e-06
1.6510426e-06
2.1044132e-06
2.3495573e-06
1.4539307e-06
1.2594931e-06
1.5503603e-06
1.5348472e-06
1.7342713e-06
1.8895159e-06
1.9388547e-06
1.4868146e-06
1.0232577e-06
1.0769385e-06
1.1704597e-06
1.301412e-06
1.3232197e-06
1.2686807e-06
1.2233105e-06
1.1501255e-06
2.6670227e-10
1.2061044e-08
3.6428332e-08
8.0750814e-08
1.5195936e-07
2.5544856e-07
4.0481109e-07
5.9687723e-07
8.4680507e-07
1.2116178e-06
1.5434354e-06
2.0768122e-06
2.5675866e-06
3.3656691e-06
4.2326778e-06
5.1103517e-06
6.7749533e-06
8.2618899e-06
9.6786643e-06
1.1884489e-05
1.2411409e-05
1.3902754e-05
1.3157089e-05
1.2573724e-05
1.091747e-05
1.0157013e-05
7.7792618e-06
7.9884475e-06
5.2215714e-06
4.3154272e-06
3.8835578e-06
2.9366946e-06
2.233881e-06
1.5683392e-06
2.059629e-06
2.0047175e-06
2.1365774e-06
1.4444305e-06
1.4969412e-06
1.375526e-06
1.0877114e-06
1.3983533e-06
1.4890607e-06
1.368107e-06
1.3178584e-06
1.2122121e-06
1.1583595e-06
1.3680049e-06
1.6511936e-06
1.4283972e-06
1.1959071e-06
1.0904666e-06
1.1519961e-06
1.2539753e-06
1.5578332e-06
1.7723141e-06
1.5463863e-06
1.9402155e-06
1.9457027e-06
1.4686042e-06
1.4983343e-06
1.3735379e-06
2.3249014e-06
1.6721232e-06
1.8129464e-06
1.6400581e-06
1.278442e-06
1.0300302e-06
1.0627959e-06
1.1028893e-06
1.5795648e-06
1.526094e-06
1.2158523e-06
1.0719933e-06
1.124875e-06
7.9973755e-10
2.8390885e-08
8.1022095e-08
1.7053805e-07
3.0555216e-07
4.9344438e-07
7.6032541e-07
1.0783318e-06
1.5527971e-06
2.1024703e-06
2.7381447e-06
3.7145366e-06
4.7397312e-06
6.5534321e-06
8.178595e-06
1.0281691e-05
1.1826166e-05
1.256032e-05
1.3162568e-05
1.2614621e-05
1.1452578e-05
9.2825774e-06
6.5681302e-06
5.0757634e-06
4.076748e-06
3.7928626e-06
2.4959504e-06
3.1191365e-06
1.5495041e-06
1.5334994e-06
1.3981239e-06
8.1558358e-07
8.307863e-07
7.858659e-07
9.2222821e-07
1.5272301e-06
1.2235485e-06
1.0709726e-06
1.536523e-06
1.2940146e-06
1.0745848e-06
1.1371862e-06
1.4236929e-06
1.2170982e-06
1.7112259e-06
1.3014156e-06
9.8121639e-07
1.7761584e-06
1.4853784e-06
1.3659725e-06
1.2542902e-06
1.2648203e-06
1.1451715e-06
1.3841897e-06
1.3739691e-06
1.7458519e-06
1.6563307e-06
1.9090451e-06
1.7026766e-06
1.6014261e-06
1.8227237e-06
1.7600027e-06
1.6598191e-06
1.3409584e-06
1.8082529e-06
1.4761351e-06
1.2339056e-06
1.0443514e-06
1.1418333e-06
1.1613325e-06
1.6669602e-06
1.7744601e-06
1.5814147e-06
1.3171263e-06
1.3404712e-06
4.9442175e-09
6.4312282e-08
1.7004729e-07
3.3724409e-07
5.7512573e-07
8.9572905e-07
1.3317173e-06
1.902941e-06
2.750499e-06
3.6813435e-06
5.0404421e-06
7.1254074e-06
9.3964518e-06
1.1472025e-05
1.2626448e-05
1.2708022e-05
1.1627216e-05
9.1384889e-06
7.4754722e-06
5.7363674e-06
4.9358238e-06
2.8408753e-06
2.153334e-06
1.7550928e-06
1.5192993e-06
1.7098457e-06
9.6169296e-07
9.3204911e-07
7.7580075e-07
8.9713587e-07
4.8249743e-07
4.3861017e-07
7.4014876e-07
6.7844946e-07
6.4087231e-07
1.1014915e-06
1.0125559e-06
1.077033e-06
1.6378495e-06
1.2743986e-06
1.1804353e-06
1.0582296e-06
1.5978461e-06
1.4381994e-06
2.0924153e-06
1.3592686e-06
9.6902749e-07
1.6918535e-06
1.5235361e-06
1.5906886e-06
1.5127594e-06
1.439756e-06
1.370865e-06
1.4263601e-06
1.3599923e-06
1.6113994e-06
1.8659585e-06
1.8548984e-06
1.6313147e-06
1.6464485e-06
2.3472294e-06
1.7438338e-06
1.6968669e-06
1.546869e-06
1.5802016e-06
1.2977946e-06
1.0774187e-06
1.0552833e-06
1.1725917e-06
1.1950365e-06
1.4137486e-06
1.8001562e-06
1.8842465e-06
1.7315104e-06
1.4839649e-06
1.7203297e-08
1.3810417e-07
3.3650901e-07
6.2595623e-07
1.0211736e-06
1.5530326e-06
2.2896305e-06
3.3745406e-06
4.9134563e-06
6.9294782e-06
1.0022517e-05
1.1585109e-05
1.2376789e-05
1.1855071e-05
9.3752296e-06
6.4498119e-06
4.5474676e-06
3.5216989e-06
2.7900956e-06
2.4170398e-06
2.4955142e-06
1.3402322e-06
9.718845e-07
8.3092469e-07
8.8407701e-07
1.0284471e-06
6.0037724e-07
5.3825326e-07
7.5022177e-07
8.841671e-07
4.1049219e-07
5.0230374e-07
8.0744081e-07
5.4792044e-07
5.9201956e-07
8.7943657e-07
6.4847952e-07
9.3292314e-07
2.0892033e-06
1.2379608e-06
1.0208671e-06
1.0750853e-06
1.4201316e-06
1.1170337e-06
1.393444e-06
1.174988e-06
9.7836634e-07
1.317128e-06
1.547979e-06
1.572667e-06
1.511507e-06
1.2908823e-06
1.3301047e-06
1.30441e-06
1.2656247e-06
1.5096434e-06
1.6087082e-06
1.9767612e-06
1.5988781e-06
1.6143543e-06
3.1012917e-06
1.6466445e-06
2.6433213e-06
1.8011044e-06
1.6954695e-06
1.3669754e-06
1.1412525e-06
1.0952745e-06
1.1483311e-06
1.2120876e-06
1.407255e-06
1.6041098e-06
1.8335369e-06
1.7603956e-06
1.5060605e-06
4.7434865e-08
2.8019614e-07
6.2632472e-07
1.0958801e-06
1.7355307e-06
2.6364808e-06
3.9946551e-06
6.2383106e-06
9.506809e-06
1.0921112e-05
1.2135043e-05
1.0911967e-05
7.2043072e-06
5.3763817e-06
3.2907697e-06
2.147715e-06
1.4798026e-06
1.5759068e-06
1.0548279e-06
1.014708e-06
1.1413476e-06
1.168069e-06
6.6085503e-07
8.1520707e-07
8.7375719e-07
6.7143044e-07
6.6257896e-07
5.2749793e-07
7.5598591e-07
8.4496465e-07
5.5115701e-07
6.0100105e-07
5.8546246e-07
4.794411e-07
7.0548045e-07
8.5067899e-07
5.9833655e-07
9.5319577e-07
9.3447288e-07
1.0748803e-06
8.9108968e-07
1.0262835e-06
1.0220868e-06
9.128718e-07
1.1749564e-06
1.1566344e-06
9.4540437e-07
1.4006871e-06
1.4791597e-06
2.150448e-06
1.8958709e-06
1.5033371e-06
1.126506e-06
1.3324841e-06
1.2578192e-06
1.501397e-06
1.6719025e-06
1.318199e-06
1.4252708e-06
1.434462e-06
3.0115256e-06
2.4016075e-06
1.9349408e-06
1.7232577e-06
1.6349698e-06
1.3314673e-06
1.271849e-06
1.1381875e-06
1.206326e-06
1.2607289e-06
1.4939953e-06
1.6287195e-06
1.571381e-06
1.5282411e-06
1.4798815e-06
1.1640003e-07
5.3731912e-07
1.1016838e-06
1.8321311e-06
2.8914757e-06
4.5285265e-06
7.4119829e-06
1.0274614e-05
1.1921901e-05
1.0316307e-05
7.0007154e-06
4.7603641e-06
2.6063824e-06
2.1348505e-06
9.6001083e-07
6.4573675e-07
5.0220926e-07
8.2882733e-07
6.5713007e-07
6.0905204e-07
6.7948098e-07
9.0831611e-07
5.6267769e-07
5.4493566e-07
7.0900701e-07
7.4532576e-07
5.3616338e-07
5.3600377e-07
7.8422381e-07
8.4107987e-07
6.7766526e-07
7.2893782e-07
5.112092e-07
4.2199039e-07
5.8263865e-07
8.1984997e-07
5.9351128e-07
6.9088085e-07
7.9178637e-07
1.1073637e-06
9.0318033e-07
8.7423405e-07
1.159488e-06
1.2140536e-06
1.5432674e-06
1.27991e-06
8.7903717e-07
9.1063051e-07
1.529825e-06
1.880089e-06
1.8268511e-06
1.2337055e-06
1.0310303e-06
1.1680708e-06
1.2943328e-06
1.5593664e-06
1.562546e-06
1.3154884e-06
1.6139931e-06
1.7514525e-06
1.7838301e-06
2.2384528e-06
1.5450765e-06
1.732378e-06
1.4617085e-06
1.4848363e-06
1.3977112e-06
1.1680914e-06
1.3114132e-06
1.3148177e-06
1.5235222e-06
1.5353569e-06
1.4802937e-06
1.4533128e-06
1.5471633e-06
2.6333927e-07
9.7609612e-07
1.8493792e-06
2.9775674e-06
4.8877446e-06
8.2828354e-06
1.023462e-05
1.0322874e-05
7.4968117e-06
4.7826087e-06
3.0169699e-06
1.5810372e-06
8.0330049e-07
6.9138897e-07
3.5213781e-07
2.7664004e-07
2.8716153e-07
4.2989876e-07
4.5684933e-07
5.1872293e-07
4.7463914e-07
4.5807086e-07
4.6452003e-07
4.5469735e-07
7.4764635e-07
1.2574865e-06
4.4245608e-07
6.2819123e-07
8.5226137e-07
8.0339414e-07
6.626771e-07
6.7156455e-07
5.0661332e-07
4.2411938e-07
4.9703756e-07
7.951028e-07
6.1972935e-07
6.2349438e-07
8.423937e-07
9.4039828e-07
8.269461e-07
7.827789e-07
1.879166e-06
1.4663033e-06
1.2976107e-06
1.0213752e-06
8.8149012e-07
9.2157362e-07
1.5574416e-06
1.3367113e-06
1.2548698e-06
1.0250608e-06
1.0198934e-06
1.155845e-06
1.3778769e-06
1.7449407e-06
1.5617475e-06
1.4160007e-06
1.3833234e-06
2.1055817e-06
1.9381298e-06
2.1314492e-06
1.7123152e-06
1.5803008e-06
1.6010644e-06
1.5089603e-06
1.2114541e-06
1.1217395e-06
1.3611144e-06
1.371243e-06
1.3989111e-06
1.3706662e-06
1.3608222e-06
1.4674397e-06
1.7714645e-06
5.5751583e-07
1.6908147e-06
2.9993431e-06
4.8453617e-06
8.7328535e-06
1.0340944e-05
8.6006283e-06
5.3816319e-06
3.2972936e-06
1.7753637e-06
1.0119393e-06
4.375404e-07
2.7179356e-07
2.6489756e-07
2.9880024e-07
2.4347915e-07
2.5524868e-07
3.0842728e-07
4.351628e-07
4.780238e-07
4.6198913e-07
4.3767384e-07
4.8999762e-07
4.3020396e-07
7.1072791e-07
1.171293e-06
5.2570984e-07
8.7608826e-07
8.8088011e-07
7.5651641e-07
7.178705e-07
5.6940586e-07
4.8845169e-07
4.4768544e-07
4.8542908e-07
7.4472084e-07
5.7197055e-07
6.3285687e-07
1.1712875e-06
7.0099275e-07
6.3695604e-07
8.4581595e-07
1.3510361e-06
1.0675708e-06
8.6036536e-07
8.4673447e-07
9.1688673e-07
9.96708e-07
1.4316373e-06
1.3513676e-06
1.1287341e-06
1.0600375e-06
1.0857462e-06
1.2571171e-06
1.3276112e-06
1.8044539e-06
1.3759552e-06
1.4175705e-06
1.5243196e-06
2.0384262e-06
1.982666e-06
2.0822689e-06
1.7482725e-06
1.7248539e-06
1.7760812e-06
1.3802155e-06
1.135365e-06
1.0503374e-06
1.3905272e-06
1.3983313e-06
1.4821743e-06
1.4238183e-06
1.4824399e-06
1.8244273e-06
1.9380511e-06
1.1176992e-06
2.8087799e-06
4.8043963e-06
8.2402349e-06
1.0045771e-05
7.4697325e-06
4.9273488e-06
2.591975e-06
1.1139283e-06
5.7996603e-07
3.531985e-07
2.4193954e-07
1.8512203e-07
2.0862019e-07
2.9574405e-07
2.4063132e-07
2.5508299e-07
2.7312404e-07
4.1752623e-07
4.5647302e-07
4.5234626e-07
4.5253151e-07
5.1462968e-07
4.709256e-07
6.9717842e-07
7.9281368e-07
6.4233515e-07
1.5558105e-06
8.9793863e-07
7.0517539e-07
7.4884783e-07
5.6273127e-07
4.8558151e-07
4.6353511e-07
4.8991346e-07
6.9801069e-07
5.6538615e-07
7.4883747e-07
7.0194803e-07
6.211868e-07
6.0461974e-07
1.1107097e-06
9.0289535e-07
9.8138474e-07
8.1091596e-07
8.5729233e-07
1.0215275e-06
1.0902707e-06
1.3995906e-06
1.3702927e-06
1.1652514e-06
1.1305589e-06
1.0822054e-06
1.3358686e-06
1.3738896e-06
1.6872549e-06
1.4155697e-06
1.2401745e-06
1.3530102e-06
1.750924e-06
1.7416153e-06
2.0596416e-06
1.6546265e-06
1.3095085e-06
1.3154126e-06
1.0245809e-06
1.0681294e-06
1.0690332e-06
1.4347717e-06
1.4645934e-06
1.4946952e-06
1.5596882e-06
1.861996e-06
2.0129712e-06
1.9911353e-06
2.1472352e-06
4.5119456e-06
7.8784848e-06
9.3494777e-06
6.8657869e-06
4.0525983e-06
2.3444784e-06
8.9581194e-07
3.3336681e-07
1.9656319e-07
1.9283977e-07
2.3849046e-07
1.8540653e-07
2.2960189e-07
3.0670712e-07
2.4523199e-07
2.604284e-07
2.6411481e-07
3.9254584e-07
4.1927867e-07
3.892233e-07
4.5422396e-07
4.627471e-07
4.6824809e-07
8.2778075e-07
7.3355973e-07
7.2823144e-07
2.2293341e-06
9.2658327e-07
6.6383614e-07
6.8970292e-07
5.5934699e-07
5.2153486e-07
4.7625105e-07
4.6764454e-07
6.7543298e-07
5.9347812e-07
8.42982e-07
6.631593e-07
6.2926441e-07
6.2321417e-07
1.1166536e-06
9.9681235e-07
8.2170254e-07
7.4417162e-07
8.4442835e-07
1.1062018e-06
1.1133809e-06
1.4880113e-06
1.2528014e-06
1.0294625e-06
1.1592591e-06
1.0097766e-06
1.1071793e-06
1.3675225e-06
1.6838874e-06
1.5283034e-06
1.2618996e-06
1.6073069e-06
1.7247899e-06
1.6409307e-06
1.984032e-06
1.610454e-06
1.2631668e-06
1.2668269e-06
9.5731936e-07
1.1153321e-06
1.1185772e-06
1.5192577e-06
1.6396574e-06
1.6934907e-06
1.7730991e-06
2.0972908e-06
2.0112204e-06
1.8881747e-06
3.8118777e-06
7.2395447e-06
9.711737e-06
7.2601931e-06
4.0129285e-06
1.7755589e-06
8.4737054e-07
3.007653e-07
1.9266778e-07
1.1128985e-07
1.6508312e-07
2.3489726e-07
1.9894785e-07
2.6766724e-07
3.1607873e-07
2.4620565e-07
2.6210016e-07
2.6099407e-07
3.6574023e-07
3.9149227e-07
3.6619723e-07
4.4743822e-07
5.0473652e-07
4.4207518e-07
9.3454245e-07
7.5334481e-07
7.289718e-07
2.0959246e-06
9.3279811e-07
6.7967683e-07
6.1015978e-07
5.7169177e-07
5.6496004e-07
5.0932382e-07
4.5535484e-07
6.6955579e-07
6.1037391e-07
7.9677582e-07
6.6360057e-07
6.4329534e-07
6.3981513e-07
7.8461206e-07
1.091019e-06
9.2252176e-07
8.0100228e-07
1.2116105e-06
1.1954838e-06
1.080781e-06
1.4420226e-06
1.1526718e-06
1.0502067e-06
9.987043e-07
9.3717277e-07
1.0888651e-06
1.3979861e-06
1.5292011e-06
1.526932e-06
1.191502e-06
1.3190092e-06
1.6494134e-06
1.6072753e-06
1.8995413e-06
1.6764017e-06
1.2276944e-06
1.372492e-06
9.3868916e-07
1.023708e-06
1.2538313e-06
1.7134451e-06
1.9004328e-06
1.7768349e-06
1.864281e-06
2.0885924e-06