/*--------------------------------*- C++ -*----------------------------------*\
| =========                 |                                                 |
| \\      /  F ield         | OpenFOAM: The Open Source CFD Toolbox           |
|  \\    /   O peration     | Version:  2.3.0                                 |
|   \\  /    A nd           | Web:      www.OpenFOAM.org                      |
|    \\/     M anipulation  |                                                 |
\*---------------------------------------------------------------------------*/
FoamFile
{
    version     2.0;
    format      ascii;
    class       surfaceScalarField;
    location    "2.6e-05";
    object      phi;
}
// * * * * * * * * * * * * * * * * * * * * * * * * * * * * * * * * * * * * * //

dimensions      [0 3 -1 0 0 0 0];

internalField   nonuniform List<scalar> 
14825
(
1.0347009e-09
-2.0939531e-11
1.0538913e-09
-1.9190449e-11
1.0754709e-09
-2.1579585e-11
1.0951839e-09
-1.9712918e-11
1.116409e-09
-2.1225129e-11
1.1359814e-09
-1.9572457e-11
1.1564437e-09
-2.0462252e-11
1.1763143e-09
-1.9870638e-11
1.1960559e-09
-1.9741581e-11
1.2162684e-09
-2.0212538e-11
1.2353343e-09
-1.9065874e-11
1.2557562e-09
-2.0421908e-11
1.2742228e-09
-1.8466599e-11
1.2945644e-09
-2.0341571e-11
1.3126351e-09
-1.8070721e-11
1.3326352e-09
-2.0000049e-11
1.3505677e-09
-1.7932513e-11
1.3699749e-09
-1.9407197e-11
1.3879748e-09
-1.7999963e-11
1.4065034e-09
-1.852857e-11
1.4247297e-09
-1.8226265e-11
1.4423271e-09
-1.7597413e-11
1.4606804e-09
-1.8353299e-11
1.4774558e-09
-1.6775431e-11
1.4956622e-09
-1.8206352e-11
1.5118246e-09
-1.6162426e-11
1.5297942e-09
-1.7969574e-11
1.5453699e-09
-1.5575755e-11
1.5630179e-09
-1.7648005e-11
1.5780235e-09
-1.5005558e-11
1.5952522e-09
-1.7228745e-11
1.6100261e-09
-1.4773909e-11
1.6261173e-09
-1.6091108e-11
1.6412403e-09
-1.5122996e-11
1.6558471e-09
-1.4606871e-11
1.6714399e-09
-1.5592775e-11
1.6848187e-09
-1.3378833e-11
1.7003033e-09
-1.548457e-11
1.7131046e-09
-1.280131e-11
1.7279247e-09
-1.4820086e-11
1.740288e-09
-1.2363314e-11
1.7542282e-09
-1.3940167e-11
1.766498e-09
-1.2269794e-11
1.7794822e-09
-1.2984217e-11
1.7914001e-09
-1.1917881e-11
1.8034412e-09
-1.2041115e-11
1.815275e-09
-1.1833814e-11
1.8261296e-09
-1.0854587e-11
1.8382317e-09
-1.2102114e-11
1.8479553e-09
-9.7235543e-12
1.8586893e-09
-1.0734066e-11
1.8684611e-09
-9.7717818e-12
1.8785613e-09
-1.0100242e-11
1.8880302e-09
-9.4688674e-12
1.8969052e-09
-8.8750006e-12
1.9058837e-09
-8.9784575e-12
1.9136859e-09
-7.8022608e-12
1.9223469e-09
-8.6610047e-12
1.9301846e-09
-7.8377023e-12
1.938028e-09
-7.8433063e-12
1.9447146e-09
-6.6866562e-12
1.9509434e-09
-6.2287683e-12
1.9579527e-09
-7.0093227e-12
1.9645289e-09
-6.5761828e-12
1.9693245e-09
-4.7956142e-12
1.9748057e-09
-5.4811798e-12
1.9800148e-09
-5.2091165e-12
1.9846868e-09
-4.6719677e-12
1.9892298e-09
-4.5430774e-12
1.9931656e-09
-3.9357785e-12
1.9971115e-09
-3.9459236e-12
2.0005991e-09
-3.4875154e-12
2.0029851e-09
-2.3859948e-12
2.0055176e-09
-2.5325418e-12
-2.3747528e-12
2.8632007e-09
-8.2174337e-11
2.9202404e-09
-7.6230164e-11
2.9831489e-09
-8.4488008e-11
3.0416361e-09
-7.8200127e-11
3.1039133e-09
-8.3502347e-11
3.1622314e-09
-7.7890544e-11
3.2227244e-09
-8.0955224e-11
3.2818413e-09
-7.8987571e-11
3.340681e-09
-7.8581272e-11
3.4007639e-09
-8.0295461e-11
3.4581363e-09
-7.64383e-11
3.518757e-09
-8.1042604e-11
3.5748649e-09
-7.4574423e-11
3.6352474e-09
-8.0724158e-11
3.6906139e-09
-7.3437205e-11
3.7501123e-09
-7.9498397e-11
3.805306e-09
-7.3126213e-11
3.8633787e-09
-7.7479955e-11
3.9188095e-09
-7.3430685e-11
3.9748657e-09
-7.4584843e-11
4.0307514e-09
-7.411192e-11
4.0848165e-09
-7.1662539e-11
4.1407658e-09
-7.4302631e-11
4.1931513e-09
-6.9160899e-11
4.2485408e-09
-7.3595855e-11
4.2995672e-09
-6.7188804e-11
4.3544071e-09
-7.2809439e-11
4.4038779e-09
-6.5046634e-11
4.4581306e-09
-7.190065e-11
4.5060355e-09
-6.2910455e-11
4.5594704e-09
-7.0663635e-11
4.6066656e-09
-6.1969179e-11
4.657362e-09
-6.6787482e-11
4.7053993e-09
-6.316027e-11
4.7523027e-09
-6.1510246e-11
4.801641e-09
-6.493111e-11
4.8455386e-09
-5.7276445e-11
4.894486e-09
-6.4431971e-11
4.9370768e-09
-5.5392113e-11
4.9841145e-09
-6.1857814e-11
5.0257672e-09
-5.4016018e-11
5.0707883e-09
-5.8961223e-11
5.1117196e-09
-5.3201043e-11
5.1546955e-09
-5.5960138e-11
5.1944138e-09
-5.1636184e-11
5.2351353e-09
-5.2762674e-11
5.2745637e-09
-5.1262222e-11
5.3123592e-09
-4.865008e-11
5.3523966e-09
-5.2139442e-11
5.3871181e-09
-4.4445056e-11
5.4240694e-09
-4.7685359e-11
5.4583872e-09
-4.4089574e-11
5.494026e-09
-4.5739098e-11
5.5274165e-09
-4.2859394e-11
5.5596515e-09
-4.1109986e-11
5.5921403e-09
-4.1467199e-11
5.621059e-09
-3.6721023e-11
5.65294e-09
-4.0541953e-11
5.6826128e-09
-3.7510533e-11
5.7109885e-09
-3.6218996e-11
5.7375218e-09
-3.3219934e-11
5.7631617e-09
-3.1868664e-11
5.7896831e-09
-3.3530711e-11
5.8152206e-09
-3.2113676e-11
5.8370909e-09
-2.6665939e-11
5.8602336e-09
-2.8623848e-11
5.8825003e-09
-2.7475847e-11
5.9031452e-09
-2.5316859e-11
5.9239269e-09
-2.5324771e-11
5.9431691e-09
-2.3178011e-11
5.9615401e-09
-2.2316952e-11
5.9790676e-09
-2.1014987e-11
5.9941841e-09
-1.7502452e-11
6.0090583e-09
-1.740679e-11
-1.6992214e-11
4.3672259e-09
-1.8129075e-10
4.4612381e-09
-1.7024233e-10
4.5627918e-09
-1.8604175e-10
4.6588629e-09
-1.742712e-10
4.7601938e-09
-1.8483327e-10
4.8562833e-09
-1.7397998e-10
4.9556424e-09
-1.8031435e-10
5.0528107e-09
-1.7615584e-10
5.1504407e-09
-1.762113e-10
5.2489045e-09
-1.7875923e-10
5.345201e-09
-1.7273479e-10
5.4442974e-09
-1.8013908e-10
5.5394143e-09
-1.6969125e-10
5.6382146e-09
-1.7952453e-10
5.7326648e-09
-1.6788733e-10
5.8304878e-09
-1.7732139e-10
5.9247414e-09
-1.6737989e-10
6.0211238e-09
-1.738623e-10
6.1154589e-09
-1.6776577e-10
6.2098922e-09
-1.6901816e-10
6.3043623e-09
-1.6858203e-10
6.3970004e-09
-1.6430061e-10
6.4910231e-09
-1.6832536e-10
6.5821e-09
-1.6023782e-10
6.6751513e-09
-1.6664715e-10
6.7646253e-09
-1.5666278e-10
6.8571443e-09
-1.6532847e-10
6.9442227e-09
-1.5212497e-10
7.0365874e-09
-1.6426543e-10
7.1211184e-09
-1.4744142e-10
7.2131474e-09
-1.6269267e-10
7.2962247e-09
-1.4504642e-10
7.3851532e-09
-1.55716e-10
7.4689383e-09
-1.4694542e-10
7.553061e-09
-1.4563291e-10
7.6386606e-09
-1.5053071e-10
7.7187982e-09
-1.3741402e-10
7.8040324e-09
-1.4966623e-10
7.8822051e-09
-1.3356473e-10
7.9650051e-09
-1.4465783e-10
8.0417107e-09
-1.3072161e-10
8.1222678e-09
-1.3951838e-10
8.1970384e-09
-1.2797161e-10
8.2756632e-09
-1.3458498e-10
8.3485471e-09
-1.2452002e-10
8.4243586e-09
-1.2857423e-10
8.4965177e-09
-1.2342133e-10
8.5685297e-09
-1.20662e-10
8.6412946e-09
-1.2490437e-10
8.7087276e-09
-1.1187805e-10
8.7780649e-09
-1.1702268e-10
8.8441757e-09
-1.1020035e-10
8.9122176e-09
-1.1378099e-10
8.9763973e-09
-1.0703909e-10
9.0399212e-09
-1.0463387e-10
9.102734e-09
-1.0428006e-10
9.1610104e-09
-9.4997427e-11
9.2241695e-09
-1.0370101e-10
9.2835377e-09
-9.6878736e-11
9.3396058e-09
-9.228713e-11
9.3951037e-09
-8.871787e-11
9.4497706e-09
-8.6535469e-11
9.5037859e-09
-8.7546077e-11
9.5562101e-09
-8.4537827e-11
9.6055647e-09
-7.6020562e-11
9.6558681e-09
-7.8927218e-11
9.7041195e-09
-7.5727312e-11
9.7505292e-09
-7.1726542e-11
9.7972305e-09
-7.2026066e-11
9.8422401e-09
-6.8187608e-11
9.8846914e-09
-6.4768241e-11
9.9260953e-09
-6.2418938e-11
9.9647156e-09
-5.6122671e-11
1.0002146e-08
-5.4837278e-11
-5.4408121e-11
5.590981e-09
-3.1580108e-10
5.7211173e-09
-3.003786e-10
5.8584567e-09
-3.2338112e-10
5.991057e-09
-3.0687148e-10
6.1291495e-09
-3.2292578e-10
6.2620697e-09
-3.0690025e-10
6.3988904e-09
-3.1713498e-10
6.5328849e-09
-3.1015037e-10
6.6688317e-09
-3.1215815e-10
6.8040471e-09
-3.1397455e-10
6.9396524e-09
-3.0834013e-10
7.0753668e-09
-3.1585343e-10
7.2105132e-09
-3.0483772e-10
7.3459979e-09
-3.1500921e-10
7.4808297e-09
-3.0271916e-10
7.615687e-09
-3.1217865e-10
7.7503169e-09
-3.020098e-10
7.8844e-09
-3.0794542e-10
8.0187207e-09
-3.0208641e-10
8.1518253e-09
-3.0212282e-10
8.2855588e-09
-3.0231545e-10
8.4181846e-09
-2.9692647e-10
8.550567e-09
-3.0070776e-10
8.6826995e-09
-2.923703e-10
8.8136756e-09
-2.9762321e-10
8.9444777e-09
-2.874649e-10
9.0751751e-09
-2.960259e-10
9.2028616e-09
-2.7981152e-10
9.3343513e-09
-2.9575508e-10
9.4585883e-09
-2.7167844e-10
9.5910147e-09
-2.9511909e-10
9.7128249e-09
-2.6685655e-10
9.8430552e-09
-2.859463e-10
9.9647381e-09
-2.6862832e-10
1.0090643e-08
-2.7153743e-10
1.0214255e-08
-2.7414281e-10
1.0335844e-08
-2.5900323e-10
1.0459675e-08
-2.7349749e-10
1.0578321e-08
-2.522108e-10
1.0700239e-08
-2.6657518e-10
1.0816879e-08
-2.4736165e-10
1.0936849e-08
-2.5948885e-10
1.105073e-08
-2.4185263e-10
1.1168992e-08
-2.5284646e-10
1.1279885e-08
-2.3541367e-10
1.1395484e-08
-2.4417303e-10
1.1505114e-08
-2.3305118e-10
1.1618149e-08
-2.3369699e-10
1.1727632e-08
-2.3438722e-10
1.1834889e-08
-2.1913535e-10
1.1941296e-08
-2.2342967e-10
1.2046398e-08
-2.153022e-10
1.215243e-08
-2.1981284e-10
1.2253475e-08
-2.0808401e-10
1.2355403e-08
-2.0656232e-10
1.245386e-08
-2.0273684e-10
1.2549611e-08
-1.9074828e-10
1.2651061e-08
-2.0515173e-10
1.274608e-08
-1.9189761e-10
1.2837232e-08
-1.8343915e-10
1.2929966e-08
-1.8145174e-10
1.3021633e-08
-1.7820222e-10
1.3110271e-08
-1.7618361e-10
1.3196886e-08
-1.7115326e-10
1.3283264e-08
-1.6239884e-10
1.3369015e-08
-1.6467771e-10
1.3451815e-08
-1.5852715e-10
1.3533634e-08
-1.5354577e-10
1.3614873e-08
-1.5326511e-10
1.3694689e-08
-1.4800357e-10
1.3770183e-08
-1.4026197e-10
1.3844165e-08
-1.3640188e-10
1.3915897e-08
-1.2785466e-10
1.3986103e-08
-1.2504333e-10
-1.2430708e-10
6.5732575e-09
-4.832873e-10
6.7384291e-09
-4.6555016e-10
6.9088761e-09
-4.9382815e-10
7.0769275e-09
-4.7492288e-10
7.2493774e-09
-4.9537565e-10
7.4181791e-09
-4.7570194e-10
7.590829e-09
-4.897849e-10
7.7605848e-09
-4.7990614e-10
7.9338776e-09
-4.8545102e-10
8.1047141e-09
-4.8481098e-10
8.2790279e-09
-4.8265397e-10
8.4503229e-09
-4.8714842e-10
8.6252072e-09
-4.7972201e-10
8.7964997e-09
-4.8630173e-10
8.9717647e-09
-4.779842e-10
9.1429156e-09
-4.8332956e-10
9.3182828e-09
-4.7737698e-10
9.489563e-09
-4.7922555e-10
9.6644512e-09
-4.7697465e-10
9.8360881e-09
-4.7375969e-10
1.0009816e-08
-4.7604366e-10
1.01827e-08
-4.6981044e-10
1.0354221e-08
-4.7222848e-10
1.0528288e-08
-4.6643713e-10
1.0698275e-08
-4.6761061e-10
1.0871718e-08
-4.6090731e-10
1.1041705e-08
-4.6601367e-10
1.1211968e-08
-4.5007407e-10
1.1383713e-08
-4.6750009e-10
1.1550095e-08
-4.3806094e-10
1.172422e-08
-4.6924405e-10
1.1887501e-08
-4.3013709e-10
1.2061036e-08
-4.5948142e-10
1.2223168e-08
-4.3076023e-10
1.2394164e-08
-4.4253296e-10
1.2557711e-08
-4.3769033e-10
1.2724859e-08
-4.2615107e-10
1.2889358e-08
-4.3799642e-10
1.3052738e-08
-4.1559109e-10
1.3216514e-08
-4.3035119e-10
1.3377523e-08
-4.0837011e-10
1.35397e-08
-4.2166635e-10
1.3697612e-08
-3.9976442e-10
1.3858924e-08
-4.141585e-10
1.4013006e-08
-3.8949596e-10
1.4172538e-08
-4.0370516e-10
1.4324033e-08
-3.8454569e-10
1.4482482e-08
-3.9214659e-10
1.4631731e-08
-3.8363573e-10
1.4785161e-08
-3.7256587e-10
1.4933241e-08
-3.7150884e-10
1.5083821e-08
-3.6588223e-10
1.5231381e-08
-3.6737368e-10
1.5375659e-08
-3.5236149e-10
1.5521892e-08
-3.5279572e-10
1.5660555e-08
-3.4139932e-10
1.5801872e-08
-3.3206585e-10
1.5947125e-08
-3.5040447e-10
1.6082813e-08
-3.2758571e-10
1.6217136e-08
-3.1776165e-10
1.6354396e-08
-3.1871207e-10
1.6489724e-08
-3.1352966e-10
1.6619591e-08
-3.0605157e-10
1.67482e-08
-2.9976226e-10
1.6879547e-08
-2.93745e-10
1.7006729e-08
-2.9186023e-10
1.7131904e-08
-2.8370183e-10
1.7257065e-08
-2.7870648e-10
1.7381147e-08
-2.7734759e-10
1.7504354e-08
-2.7121017e-10
1.762197e-08
-2.578787e-10
1.7737654e-08
-2.5208586e-10
1.7850451e-08
-2.4065121e-10
1.7962069e-08
-2.3666095e-10
-2.3548526e-10
7.3483778e-09
-6.818185e-10
7.5468362e-09
-6.6400858e-10
7.7483197e-09
-6.9531169e-10
7.9503814e-09
-6.7698455e-10
8.1549296e-09
-6.9992382e-10
8.3585916e-09
-6.7936392e-10
8.5651332e-09
-6.9632656e-10
8.7698819e-09
-6.8465486e-10
8.9787655e-09
-6.9433457e-10
9.1847644e-09
-6.9080992e-10
9.3959705e-09
-6.9386001e-10
9.6027946e-09
-6.9397255e-10
9.8156579e-09
-6.9258534e-10
1.0022937e-08
-6.9358075e-10
1.0237213e-08
-6.9226005e-10
1.0444896e-08
-6.9101268e-10
1.0660092e-08
-6.9257323e-10
1.0868925e-08
-6.8805856e-10
1.1083997e-08
-6.9204673e-10
1.1294367e-08
-6.8412918e-10
1.1508396e-08
-6.9007245e-10
1.1721538e-08
-6.8295301e-10
1.1933362e-08
-6.8405189e-10
1.214915e-08
-6.822256e-10
1.2359949e-08
-6.7840943e-10
1.2576225e-08
-6.7718326e-10
1.2787304e-08
-6.7709254e-10
1.300144e-08
-6.6421049e-10
1.3214868e-08
-6.8092814e-10
1.3425472e-08
-6.4866511e-10
1.3642348e-08
-6.8611995e-10
1.3849942e-08
-6.3773043e-10
1.4067357e-08
-6.7689707e-10
1.4273393e-08
-6.3679644e-10
1.4490712e-08
-6.5985119e-10
1.4696918e-08
-6.4389692e-10
1.491228e-08
-6.4151285e-10
1.5119317e-08
-6.450332e-10
1.5331141e-08
-6.2741512e-10
1.5538441e-08
-6.3765148e-10
1.5747503e-08
-6.1743157e-10
1.5953882e-08
-6.2804617e-10
1.6160003e-08
-6.0588498e-10
1.6367008e-08
-6.2116382e-10
1.6568243e-08
-5.9073066e-10
1.6774449e-08
-6.0991153e-10
1.6972566e-08
-5.826628e-10
1.718083e-08
-6.0041045e-10
1.7374015e-08
-5.7682021e-10
1.7577734e-08
-5.7628496e-10
1.7769584e-08
-5.6335864e-10
1.7971675e-08
-5.6797359e-10
1.8163534e-08
-5.5923227e-10
1.8358328e-08
-5.4715624e-10
1.8552654e-08
-5.4712109e-10
1.873683e-08
-5.2557567e-10
1.8931595e-08
-5.2683103e-10
1.912451e-08
-5.4331899e-10
1.930592e-08
-5.0899641e-10
1.9491935e-08
-5.0377585e-10
1.9679643e-08
-5.0642004e-10
1.9864478e-08
-4.9836513e-10
2.0040586e-08
-4.8215992e-10
2.0219403e-08
-4.7857849e-10
2.0401107e-08
-4.7544928e-10
2.0575699e-08
-4.6645181e-10
2.0751666e-08
-4.5966912e-10
2.0926963e-08
-4.5400355e-10
2.1100517e-08
-4.5090175e-10
2.1271441e-08
-4.4213442e-10
2.143781e-08
-4.2424718e-10
2.1603735e-08
-4.1801087e-10
2.1766742e-08
-4.0365854e-10
2.1927996e-08
-3.9791493e-10
-3.9594351e-10
7.9463981e-09
-9.0998003e-10
8.1754689e-09
-8.9307946e-10
8.4068298e-09
-9.2667255e-10
8.6406848e-09
-9.1083959e-10
8.8756825e-09
-9.3492145e-10
9.1127908e-09
-9.1647228e-10
9.3511965e-09
-9.3473219e-10
9.590151e-09
-9.236094e-10
9.8323943e-09
-9.3657792e-10
1.0073191e-08
-9.3160699e-10
1.0319097e-08
-9.3976547e-10
1.0561468e-08
-9.3634412e-10
1.0810425e-08
-9.4154224e-10
1.1053914e-08
-9.3706972e-10
1.1305778e-08
-9.4412338e-10
1.1550331e-08
-9.3556597e-10
1.180436e-08
-9.4660238e-10
1.2051393e-08
-9.3509139e-10
1.2306069e-08
-9.4672252e-10
1.2555946e-08
-9.3400689e-10
1.2810323e-08
-9.4444913e-10
1.3064137e-08
-9.3676715e-10
1.3317134e-08
-9.3704869e-10
1.3574773e-08
-9.3986454e-10
1.3827809e-08
-9.3144506e-10
1.4086823e-08
-9.3619745e-10
1.434078e-08
-9.3104942e-10
1.4599373e-08
-9.2280359e-10
1.4856083e-08
-9.3763873e-10
1.5112163e-08
-9.047446e-10
1.5372644e-08
-9.4660081e-10
1.5626933e-08
-8.9201972e-10
1.5887761e-08
-9.3772532e-10
1.6141162e-08
-8.9019749e-10
1.6404226e-08
-9.2291492e-10
1.6655736e-08
-8.9540651e-10
1.6920017e-08
-9.0579406e-10
1.7170868e-08
-8.9588473e-10
1.7433439e-08
-8.8998606e-10
1.7685675e-08
-8.8988745e-10
1.7945846e-08
-8.7760221e-10
1.8198237e-08
-8.8043693e-10
1.8455713e-08
-8.6336138e-10
1.8710394e-08
-8.758448e-10
1.8962062e-08
-8.4239858e-10
1.9216165e-08
-8.640145e-10
1.9465058e-08
-8.3155567e-10
1.9724423e-08
-8.5977579e-10
1.9966035e-08
-8.1843174e-10
2.0224392e-08
-8.3464198e-10
2.0465354e-08
-8.0432083e-10
2.0723345e-08
-8.2596422e-10
2.0960926e-08
-7.9681375e-10
2.121264e-08
-7.9887037e-10
2.1457081e-08
-7.915622e-10
2.1693812e-08
-7.6230595e-10
2.1948716e-08
-7.8173577e-10
2.2190476e-08
-7.8507828e-10
2.2424248e-08
-7.4276841e-10
2.2668504e-08
-7.4803228e-10
2.2910753e-08
-7.4866935e-10
2.3149544e-08
-7.3715536e-10
2.3377373e-08
-7.0998981e-10
2.3613406e-08
-7.1461062e-10
2.3845775e-08
-7.0781911e-10
2.4073403e-08
-6.940794e-10
2.4306229e-08
-6.9249471e-10
2.4537524e-08
-6.8529934e-10
2.4768317e-08
-6.8169432e-10
2.4993377e-08
-6.6719441e-10
2.5216822e-08
-6.4769244e-10
2.5437632e-08
-6.3882109e-10
2.5655024e-08
-6.2105026e-10
2.5873736e-08
-6.1662698e-10
-6.1260949e-10
8.3921028e-09
-1.165376e-09
8.6497045e-09
-1.1506812e-09
8.9097667e-09
-1.1867347e-09
9.1731428e-09
-1.1742157e-09
9.4375627e-09
-1.1993413e-09
9.706223e-09
-1.1851326e-09
9.9750152e-09
-1.2035243e-09
1.0247009e-08
-1.1956029e-09
1.0520869e-08
-1.2104383e-09
1.0795812e-08
-1.2065503e-09
1.1074966e-08
-1.2189192e-09
1.1352375e-08
-1.2137526e-09
1.1636689e-08
-1.2258565e-09
1.1915776e-08
-1.2161573e-09
1.2205062e-08
-1.2334089e-09
1.2485988e-08
-1.2164919e-09
1.2778739e-08
-1.2393533e-09
1.306412e-08
-1.220473e-09
1.3357826e-08
-1.240428e-09
1.3648273e-08
-1.2244541e-09
1.3942045e-08
-1.2382209e-09
1.4237661e-08
-1.2323836e-09
1.4531413e-08
-1.2308009e-09
1.4831426e-08
-1.2398767e-09
1.5126849e-08
-1.2268688e-09
1.5428132e-08
-1.2374803e-09
1.5725684e-08
-1.2286013e-09
1.6028166e-08
-1.2252854e-09
1.6328935e-08
-1.2384083e-09
1.663057e-08
-1.2063788e-09
1.6934739e-08
-1.2507704e-09
1.7236933e-08
-1.1942135e-09
1.7540359e-08
-1.2411512e-09
1.7843735e-08
-1.1935739e-09
1.8151297e-08
-1.2304764e-09
1.8451043e-08
-1.1951523e-09
1.8763607e-08
-1.218358e-09
1.9060304e-08
-1.1925823e-09
1.9374548e-08
-1.2042302e-09
1.9672824e-08
-1.1881634e-09
1.9985853e-08
-1.1906311e-09
2.0285567e-08
-1.1801508e-09
2.0596809e-08
-1.1746035e-09
2.0901025e-08
-1.1800609e-09
2.1206532e-08
-1.1479056e-09
2.1511021e-08
-1.1685029e-09
2.1814575e-08
-1.1351103e-09
2.2125406e-08
-1.1706062e-09
2.2420164e-08
-1.1131901e-09
2.2733669e-08
-1.1481469e-09
2.3028563e-08
-1.0992153e-09
2.3344322e-08
-1.1417226e-09
2.3632892e-08
-1.0853842e-09
2.3946744e-08
-1.112722e-09
2.4239414e-08
-1.0842328e-09
2.4537825e-08
-1.0607161e-09
2.4851433e-08
-1.0953445e-09
2.514052e-08
-1.0741649e-09
2.543572e-08
-1.0379684e-09
2.5739879e-08
-1.0521917e-09
2.6039118e-08
-1.0479076e-09
2.6332063e-08
-1.0301005e-09
2.6618778e-08
-9.9670547e-10
2.6917859e-08
-1.0136911e-09
2.7201065e-08
-9.9102527e-10
2.7489386e-08
-9.8239981e-10
2.77799e-08
-9.8300959e-10
2.8069829e-08
-9.7522841e-10
2.8360019e-08
-9.7188414e-10
2.8639175e-08
-9.4635057e-10
2.8927124e-08
-9.3564073e-10
2.9208772e-08
-9.2046959e-10
2.9488178e-08
-9.0045638e-10
2.9765703e-08
-8.9415135e-10
-8.8937971e-10
8.7066563e-09
-1.4443242e-09
8.9932158e-09
-1.4372407e-09
9.2790424e-09
-1.4725612e-09
9.5717315e-09
-1.4669048e-09
9.8636727e-09
-1.4912825e-09
1.0162768e-08
-1.4842282e-09
1.0460863e-08
-1.5016191e-09
1.0764614e-08
-1.4993538e-09
1.1069339e-08
-1.5151632e-09
1.1377416e-08
-1.5146273e-09
1.1689044e-08
-1.5305474e-09
1.2000622e-08
-1.5253305e-09
1.23196e-08
-1.5448341e-09
1.2633412e-08
-1.5299698e-09
1.2959449e-08
-1.5594454e-09
1.3275998e-08
-1.5330415e-09
1.3606631e-08
-1.5699864e-09
1.3929675e-08
-1.5435168e-09
1.4261309e-08
-1.5720617e-09
1.4591946e-08
-1.5550917e-09
1.4923807e-08
-1.5700812e-09
1.5260475e-08
-1.5690518e-09
1.5594501e-08
-1.5648271e-09
1.5935914e-08
-1.5812894e-09
1.6273064e-08
-1.5640185e-09
1.6615935e-08
-1.5803517e-09
1.6956313e-08
-1.568979e-09
1.7302782e-08
-1.571754e-09
1.7646605e-08
-1.5822316e-09
1.7994617e-08
-1.5543912e-09
1.8341744e-08
-1.5978974e-09
1.8692463e-08
-1.5449323e-09
1.9038697e-08
-1.5873856e-09
1.9393696e-08
-1.5485728e-09
1.9745142e-08
-1.5819216e-09
2.00965e-08
-1.5465113e-09
2.0456442e-08
-1.5782993e-09
2.0801592e-08
-1.5377325e-09
2.1168582e-08
-1.5712201e-09
2.1513734e-08
-1.5333155e-09
2.1881319e-08
-1.5582157e-09
2.2229195e-08
-1.5280273e-09
2.2595129e-08
-1.5405369e-09
2.2949688e-08
-1.5346205e-09
2.3310313e-08
-1.5085299e-09
2.3665935e-08
-1.5241256e-09
2.402597e-08
-1.4951446e-09
2.4387161e-08
-1.5317974e-09
2.4739595e-08
-1.4656242e-09
2.5105608e-08
-1.5141602e-09
2.545769e-08
-1.4512968e-09
2.5825747e-08
-1.5097801e-09
2.6167658e-08
-1.427295e-09
2.6543201e-08
-1.4882646e-09
2.6880044e-08
-1.4210766e-09
2.7249589e-08
-1.4302605e-09
2.7612579e-08
-1.4583351e-09
2.7948097e-08
-1.4096827e-09
2.8306823e-08
-1.3966941e-09
2.8668592e-08
-1.4139605e-09
2.9024027e-08
-1.4033433e-09
2.9364348e-08
-1.3704216e-09
2.9720388e-08
-1.3527447e-09
3.0074319e-08
-1.3676231e-09
3.0403447e-08
-1.3201523e-09
3.076166e-08
-1.3406136e-09
3.1101202e-08
-1.3225518e-09
3.1455028e-08
-1.3290539e-09
3.18012e-08
-1.3180558e-09
3.2132805e-08
-1.277956e-09
3.2484907e-08
-1.2877426e-09
3.2820757e-08
-1.2563195e-09
3.3161046e-08
-1.2407452e-09
3.3499508e-08
-1.2326138e-09
-1.2235273e-09
8.9126804e-09
-1.7462245e-09
9.2270964e-09
-1.7516568e-09
9.536391e-09
-1.7818558e-09
9.8582735e-09
-1.7887872e-09
1.0175172e-08
-1.8081805e-09
1.0504241e-08
-1.813298e-09
1.0829936e-08
-1.8273138e-09
1.1164117e-08
-1.8335348e-09
1.1498721e-08
-1.8497668e-09
1.1838246e-08
-1.8541531e-09
1.2180869e-08
-1.8731706e-09
1.2525725e-08
-1.8701863e-09
1.2876469e-08
-1.8955781e-09
1.3225587e-08
-1.879088e-09
1.3584034e-08
-1.9178916e-09
1.3937798e-08
-1.8868061e-09
1.4301959e-08
-1.9341471e-09
1.4663195e-08
-1.9047525e-09
1.5030405e-08
-1.9392726e-09
1.5399782e-08
-1.9244681e-09
1.5769647e-08
-1.9399468e-09
1.6144028e-08
-1.9434324e-09
1.6520502e-08
-1.9413016e-09
1.6900092e-08
-1.9608786e-09
1.728051e-08
-1.9444369e-09
1.7663816e-08
-1.9636575e-09
1.8046998e-08
-1.9521617e-09
1.8438645e-08
-1.9634007e-09
1.8824182e-08
-1.9677682e-09
1.9221112e-08
-1.9513212e-09
1.9609907e-08
-1.9866925e-09
2.0009327e-08
-1.9443526e-09
2.039997e-08
-1.9780284e-09
2.0805526e-08
-1.9541295e-09
2.1200332e-08
-1.9767274e-09
2.160535e-08
-1.9515289e-09
2.2009289e-08
-1.9822386e-09
2.2404508e-08
-1.9329516e-09
2.2822157e-08
-1.9888691e-09
2.3212974e-08
-1.9241318e-09
2.363321e-08
-1.9784525e-09
2.4027702e-08
-1.922519e-09
2.4445694e-08
-1.9585291e-09
2.4846024e-08
-1.93495e-09
2.5260248e-08
-1.9227538e-09
2.5661867e-08
-1.9257447e-09
2.607504e-08
-1.9083175e-09
2.6477951e-08
-1.9347088e-09
2.6886385e-08
-1.8740576e-09
2.7297386e-08
-1.9251614e-09
2.7704443e-08
-1.8583539e-09
2.8115816e-08
-1.9211529e-09
2.8507705e-08
-1.8191839e-09
2.8936052e-08
-1.9166116e-09
2.9307646e-08
-1.792671e-09
2.9749274e-08
-1.8718882e-09
3.0144549e-08
-1.8536105e-09
3.0526828e-08
-1.7919621e-09
3.0938002e-08
-1.8078675e-09
3.1350746e-08
-1.8267043e-09
3.1752371e-08
-1.8049683e-09
3.2126055e-08
-1.7441057e-09
3.2564265e-08
-1.7909554e-09
3.2946834e-08
-1.7501919e-09
3.3318206e-08
-1.6915238e-09
3.3749002e-08
-1.7714102e-09
3.4116606e-08
-1.6901556e-09
3.4540374e-08
-1.7528222e-09
3.4927021e-08
-1.7047019e-09
3.5305513e-08
-1.6564484e-09
3.5715913e-08
-1.6981426e-09
3.6097592e-08
-1.6379985e-09
3.6486708e-08
-1.6298616e-09
3.6875542e-08
-1.6214476e-09
-1.6032543e-09
9.0305282e-09
-2.0738444e-09
9.3661765e-09
-2.0873051e-09
9.7010795e-09
-2.1167588e-09
1.004687e-08
-2.1345779e-09
1.0389438e-08
-2.1507488e-09
1.0745034e-08
-2.1688933e-09
1.1097331e-08
-2.1796107e-09
1.1459642e-08
-2.195846e-09
1.1822412e-08
-2.2125375e-09
1.2191418e-08
-2.223159e-09
1.2563137e-08
-2.2448894e-09
1.2940044e-08
-2.2470933e-09
1.3319871e-08
-2.2754045e-09
1.3704765e-08
-2.2639821e-09
1.4091484e-08
-2.3046113e-09
1.4484613e-08
-2.2799352e-09
1.4878069e-08
-2.3276023e-09
1.5279117e-08
-2.3058008e-09
1.5679726e-08
-2.3398813e-09
1.6088128e-08
-2.3328705e-09
1.6495624e-08
-2.3474429e-09
1.6906687e-08
-2.3544949e-09
1.7326927e-08
-2.3615419e-09
1.774331e-08
-2.3772619e-09
1.8168325e-08
-2.3694516e-09
1.8589954e-08
-2.3852863e-09
1.9017943e-08
-2.3801506e-09
1.9451484e-08
-2.396942e-09
1.9878724e-08
-2.3950081e-09
2.0324152e-08
-2.3967488e-09
2.0750211e-08
-2.4127516e-09
2.1196244e-08
-2.3903861e-09
2.1629529e-08
-2.4113134e-09
2.2079681e-08
-2.4042817e-09
2.2512646e-08
-2.4096916e-09
2.2969711e-08
-2.4085948e-09
2.3404471e-08
-2.4169982e-09
2.3850618e-08
-2.3790991e-09
2.4303965e-08
-2.4422155e-09
2.4737003e-08
-2.35717e-09
2.5198545e-08
-2.4399946e-09
2.563032e-08
-2.3542941e-09
2.6094629e-08
-2.4228377e-09
2.6523059e-08
-2.3633803e-09
2.6986652e-08
-2.3863469e-09
2.7419018e-08
-2.3581107e-09
2.7873701e-08
-2.3630001e-09
2.8305146e-08
-2.3661542e-09
2.8759902e-08
-2.3288132e-09
2.9203936e-08
-2.3691958e-09
2.9654624e-08
-2.3090422e-09
3.0100665e-08
-2.3671939e-09
3.0530695e-08
-2.2492135e-09
3.0996448e-08
-2.3823647e-09
3.1393851e-08
-2.1900741e-09
3.1895335e-08
-2.3733713e-09
3.228844e-08
-2.246716e-09
3.2713681e-08
-2.217203e-09
3.3132869e-08
-2.2270559e-09
3.3619529e-08
-2.313364e-09
3.4063633e-08
-2.2490723e-09
3.4447708e-08
-2.128181e-09
3.5009811e-08
-2.3530582e-09
3.5371473e-08
-2.1118536e-09
3.5771943e-08
-2.0919935e-09
3.6279062e-08
-2.2785293e-09
3.6600601e-08
-2.0116952e-09
3.7116162e-08
-2.2683828e-09
3.7463783e-08
-2.0523233e-09
3.7800473e-08
-1.9931385e-09
3.8250938e-08
-2.1486075e-09
3.8542788e-08
-1.9298487e-09
3.8868738e-08
-1.9558108e-09
3.9182508e-08
-1.9352183e-09
-1.8854208e-09
9.0705811e-09
-2.4255875e-09
9.4233448e-09
-2.4400687e-09
9.7850614e-09
-2.4784755e-09
1.0149093e-08
-2.498609e-09
1.0519727e-08
-2.5213829e-09
1.0896366e-08
-2.5455324e-09
1.1276346e-08
-2.5595912e-09
1.1663462e-08
-2.5829616e-09
1.2053646e-08
-2.6027218e-09
1.2450686e-08
-2.6201989e-09
1.2850312e-08
-2.6445154e-09
1.3258038e-08
-2.6548188e-09
1.3666888e-08
-2.6842545e-09
1.4085431e-08
-2.6825254e-09
1.4501664e-08
-2.7208444e-09
1.4931421e-08
-2.709692e-09
1.5356304e-08
-2.7524856e-09
1.5794199e-08
-2.743696e-09
1.6229748e-08
-2.7754299e-09
1.6676035e-08
-2.7791579e-09
1.7119705e-08
-2.7911122e-09
1.7568125e-08
-2.8029156e-09
1.8028176e-08
-2.8215927e-09
1.8481948e-08
-2.8310332e-09
1.8946948e-08
-2.8344525e-09
1.9402305e-08
-2.8406433e-09
1.9875364e-08
-2.8532089e-09
2.033714e-08
-2.8587185e-09
2.0807145e-08
-2.8650126e-09
2.1288581e-08
-2.8781848e-09
2.1744545e-08
-2.8687156e-09
2.2227092e-08
-2.8729329e-09
2.2692047e-08
-2.8762692e-09
2.3176963e-08
-2.8891974e-09
2.3630441e-08
-2.8631692e-09
2.413489e-08
-2.9130436e-09
2.4571253e-08
-2.8533614e-09
2.5069101e-08
-2.8769476e-09
2.5524312e-08
-2.8974266e-09
2.6004676e-08
-2.8375336e-09
2.6479376e-08
-2.9146943e-09
2.6941661e-08
-2.816579e-09
2.7438495e-08
-2.9196724e-09
2.78682e-08
-2.7930851e-09
2.8373149e-08
-2.8912961e-09
2.8785995e-08
-2.7709564e-09
2.9289134e-08
-2.8661392e-09
2.9757563e-08
-2.8345835e-09
3.0241949e-08
-2.8131985e-09
3.0726613e-08
-2.8538599e-09
3.1188161e-08
-2.7705908e-09
3.16401e-08
-2.8191329e-09
3.2032517e-08
-2.6416299e-09
3.2501963e-08
-2.8518111e-09
3.261096e-08
-2.2990705e-09
3.315763e-08
-2.9200419e-09
3.3336133e-08
-2.4252186e-09
3.3005926e-08
-1.8869962e-09
3.2592547e-08
-1.8136765e-09
3.3382138e-08
-3.1029549e-09
3.3889908e-08
-2.7568427e-09
3.3768613e-08
-2.006886e-09
3.4340701e-08
-2.925146e-09
3.4353812e-08
-2.1249644e-09
3.4342816e-08
-2.0809979e-09
3.4518117e-08
-2.4538302e-09
3.4168474e-08
-1.662052e-09
3.4465927e-08
-2.5658358e-09
3.4188982e-08
-1.7753782e-09
3.3862548e-08
-1.6667053e-09
3.408236e-08
-2.3684187e-09
3.3683884e-08
-1.5313727e-09
3.3483789e-08
-1.7557159e-09
3.3327126e-08
-1.7785553e-09
-1.6015899e-09
9.0424035e-09
-2.7966407e-09
9.414178e-09
-2.8118432e-09
9.7985246e-09
-2.8628221e-09
1.018144e-08
-2.8815244e-09
1.0577764e-08
-2.9177069e-09
1.0973644e-08
-2.9414128e-09
1.1381304e-08
-2.9672509e-09
1.1790101e-08
-2.9917588e-09
1.220858e-08
-3.0212001e-09
1.2631013e-08
-3.0426322e-09
1.305885e-08
-3.0723531e-09
1.3495931e-08
-3.0918993e-09
1.3933515e-08
-3.1218381e-09
1.4384666e-08
-3.1336766e-09
1.4830215e-08
-3.1663934e-09
1.5295176e-08
-3.1746528e-09
1.5751337e-08
-3.2086473e-09
1.622377e-08
-3.216129e-09
1.6692395e-08
-3.2440544e-09
1.7174792e-08
-3.2615549e-09
1.7648425e-08
-3.2647455e-09
1.8132351e-08
-3.2868414e-09
1.8622597e-08
-3.3118384e-09
1.9108246e-08
-3.3166826e-09
1.9602806e-08
-3.3290126e-09
2.0079244e-08
-3.3170812e-09
2.0590374e-08
-3.3643391e-09
2.1057134e-08
-3.3254782e-09
2.1567127e-08
-3.375006e-09
2.2053163e-08
-3.3642205e-09
2.2537253e-08
-3.3528059e-09
2.3023411e-08
-3.3590904e-09
2.3521113e-08
-3.3739716e-09
2.4009187e-08
-3.3772717e-09
2.4474739e-08
-3.3287212e-09
2.4999155e-08
-3.4374597e-09
2.539396e-08
-3.2481657e-09
2.5953404e-08
-3.4363916e-09
2.6406911e-08
-3.3509338e-09
2.6930813e-08
-3.3614357e-09
2.7374151e-08
-3.3580323e-09
2.7822716e-08
-3.2651437e-09
2.8216471e-08
-3.3134277e-09
2.8497576e-08
-3.0741904e-09
2.8352677e-08
-2.7463966e-09
2.8375675e-08
-2.7939549e-09
2.8720369e-08
-3.2108328e-09
2.9035649e-08
-3.1498633e-09
2.9066027e-08
-2.8435765e-09
2.9274587e-08
-3.0624199e-09
2.9173265e-08
-2.6692695e-09
2.9175489e-08
-2.8213564e-09
2.8659912e-08
-2.1260535e-09
2.8801687e-08
-2.9935859e-09
2.7685623e-08
-1.1830062e-09
2.7490961e-08
-2.7253799e-09
2.6794492e-08
-1.7287498e-09
2.6029828e-08
-1.1223324e-09
2.5218031e-08
-1.0018793e-09
2.4061678e-08
-1.946602e-09
2.2899245e-08
-1.59441e-09
2.1970327e-08
-1.0779673e-09
2.0677342e-08
-1.6321611e-09
1.9226395e-08
-6.7401755e-10
1.8025842e-08
-8.8044506e-10
1.7091208e-08
-1.5191965e-09
1.5356223e-08
7.293291e-11
1.3824311e-08
-1.0339237e-09
1.3082252e-08
-1.0333189e-09
1.2023787e-08
-6.0824003e-10
1.1239496e-08
-1.5841284e-09
1.0569055e-08
-8.6093143e-10
1.0142492e-08
-1.329153e-09
9.5864278e-09
-1.222491e-09
-1.4762454e-09
8.9602237e-09
-3.1853588e-09
9.3503423e-09
-3.2019618e-09
9.7536184e-09
-3.2660982e-09
1.0156544e-08
-3.2844502e-09
1.0573549e-08
-3.3347116e-09
1.0990365e-08
-3.3582286e-09
1.142253e-08
-3.3994159e-09
1.1852361e-08
-3.4215899e-09
1.2299723e-08
-3.4685627e-09
1.2743574e-08
-3.4864833e-09
1.3203483e-08
-3.532262e-09
1.3664322e-08
-3.5527378e-09
1.4134764e-08
-3.59228e-09
1.4613745e-08
-3.612658e-09
1.5089736e-08
-3.642384e-09
1.5586686e-08
-3.6716033e-09
1.6069605e-08
-3.6915658e-09
1.657425e-08
-3.7207747e-09
1.7064161e-08
-3.7339645e-09
1.7580277e-08
-3.7776715e-09
1.8063549e-08
-3.7480174e-09
1.8581643e-08
-3.8049354e-09
1.9072493e-08
-3.8026884e-09
1.9587266e-08
-3.8314555e-09
2.0077694e-08
-3.81944e-09
2.0568152e-08
-3.8075397e-09
2.1088815e-08
-3.8850017e-09
2.1552835e-08
-3.7894989e-09
2.2069008e-08
-3.8911789e-09
2.2544247e-08
-3.8394595e-09
2.304247e-08
-3.8510285e-09
2.3515866e-08
-3.8324865e-09
2.4055043e-08
-3.9131489e-09
2.442223e-08
-3.7444583e-09
2.4812905e-08
-3.7193967e-09
2.4849031e-08
-3.4735849e-09
2.4842134e-08
-3.241269e-09
2.5055493e-08
-3.6497508e-09
2.5237532e-08
-3.532973e-09
2.5220188e-08
-3.3440912e-09
2.5048378e-08
-3.1862221e-09
2.4734707e-08
-2.9514728e-09
2.4250942e-08