/*--------------------------------*- C++ -*----------------------------------*\
| =========                 |                                                 |
| \\      /  F ield         | OpenFOAM: The Open Source CFD Toolbox           |
|  \\    /   O peration     | Version:  2.3.0                                 |
|   \\  /    A nd           | Web:      www.OpenFOAM.org                      |
|    \\/     M anipulation  |                                                 |
\*---------------------------------------------------------------------------*/
FoamFile
{
    version     2.0;
    format      ascii;
    class       volVectorField;
    location    "2.6e-05";
    object      U;
}
// * * * * * * * * * * * * * * * * * * * * * * * * * * * * * * * * * * * * * //

dimensions      [0 1 -1 0 0 0 0];

internalField   nonuniform List<vector> 
7500
(
(460.0248 -0.005801806 4.2300346e-16)
(460.04582 0.041885823 3.568665e-15)
(460.0429 -0.05579941 2.6287614e-15)
(460.02718 0.019357651 -8.873669e-16)
(459.9527 -0.04231193 3.0243921e-15)
(460.03273 0.033614296 6.2658387e-15)
(459.93019 -0.018480328 1.7484187e-15)
(460.05951 0.015237141 4.6000127e-15)
(459.94323 -0.0082028776 4.6533274e-15)
(460.05927 -0.0019501013 2.0660277e-15)
(459.95823 0.0066769501 1.5462486e-15)
(460.02097 -0.015618963 -1.1879459e-15)
(459.99925 0.02107026 1.2797084e-15)
(459.96505 -0.025380512 9.1186012e-16)
(460.06093 0.029771408 1.1365401e-15)
(459.91827 -0.034415121 1.1105575e-15)
(460.10721 0.036829242 7.522604e-16)
(459.88181 -0.036304636 -1.3873669e-15)
(460.09906 0.032935661 1.3535687e-15)
(459.91402 -0.024042906 1.0750397e-15)
(460.05847 0.013778069 -1.554307e-15)
(459.96704 -0.0042441058 8.5292781e-16)
(459.9931 -0.0063055658 1.0338761e-15)
(460.01147 0.018616599 -1.6348825e-15)
(459.93201 -0.02639621 1.2925504e-15)
(460.04105 0.032724491 6.6573436e-16)
(459.9111 -0.034724594 1.1288766e-15)
(460.01362 0.036774901 -1.5475862e-15)
(459.93055 -0.036031738 -3.7946159e-16)
(459.97338 0.038806629 3.1410485e-15)
(459.96951 -0.041841869 -1.3451641e-15)
(459.92095 0.036345559 1.1309355e-15)
(460.014 -0.022812563 1.6079218e-15)
(459.87768 0.010724058 -1.0976648e-15)
(459.99958 0.0026923266 -1.4916544e-15)
(459.85879 -0.012445256 1.053488e-15)
(459.97472 0.021631383 -6.5190359e-16)
(459.89159 -0.031477508 7.9133156e-16)
(459.95904 0.033275546 9.2669863e-16)
(459.91486 -0.036020432 7.403246e-16)
(459.9652 0.036093885 5.1473004e-16)
(459.92374 -0.02744306 9.4404446e-16)
(459.96801 0.013064294 2.7278719e-15)
(459.92171 -0.013301255 2.7257719e-15)
(459.95188 0.013707686 6.0411695e-16)
(459.9361 -0.0027686125 -1.8844808e-15)
(459.95474 -0.0063596109 -1.0799867e-15)
(459.91945 0.0074861645 -1.2721511e-15)
(459.96192 -0.025462532 7.5324596e-16)
(459.89887 0.030009676 9.9917875e-16)
(460.01639 -0.0020310605 4.7376533e-16)
(459.95501 -0.00070208777 2.5199907e-15)
(459.94072 -0.011089235 4.336192e-16)
(459.92117 0.0091176562 8.8656136e-16)
(459.91602 0.0017532555 7.1517708e-16)
(459.90123 0.0035994128 -1.4455339e-15)
(459.95078 0.0075516306 4.5248997e-16)
(459.89036 -0.019462909 2.0993076e-16)
(459.86098 0.0090538854 4.7684118e-16)
(459.88834 -0.01334118 7.0727122e-16)
(459.91304 0.011050753 6.6842259e-16)
(459.92311 0.022734061 2.3740474e-15)
(459.94241 -0.023106747 5.0250489e-16)
(459.85081 -0.01872977 -1.521969e-15)
(459.83537 0.028803945 -1.7517521e-15)
(459.86685 0.002347688 6.3912959e-16)
(459.84436 0.0017729649 1.3320894e-16)
(459.85584 -0.0071006137 6.4457781e-16)
(459.86953 -0.01237977 5.7106137e-16)
(459.84597 0.00679273 -1.5934095e-15)
(459.87069 -0.012724141 -1.5303223e-15)
(459.8599 -0.0021342572 7.2512883e-16)
(459.87539 0.022527954 2.3691996e-15)
(459.93495 -0.0021981362 9.0327066e-16)
(459.88382 -0.0069012974 2.2196477e-15)
(460.01863 -0.017738285 -5.340673e-17)
(460.03995 0.069680656 4.0182356e-17)
(460.03666 -0.065957465 -9.5464661e-17)
(460.02387 0.023671207 1.3500212e-16)
(459.95264 -0.04840211 -8.7992987e-17)
(460.02901 0.032760176 1.7005055e-16)
(459.92916 -0.013256567 1.7896643e-16)
(460.05422 0.0096825314 1.512683e-16)
(459.94264 0.0054504723 1.910228e-16)
(460.05468 -0.016222869 3.2162499e-16)
(459.95663 0.025340213 2.3952797e-16)
(460.01745 -0.037548214 2.6865441e-16)
(459.99586 0.045272169 1.2472433e-16)
(459.96255 -0.050820171 -6.3856499e-16)
(460.05623 0.055123897 4.3140257e-17)
(459.91614 -0.053913769 -5.3968516e-16)
(460.10264 0.04651982 2.0147264e-16)
(459.87795 -0.034762943 2.5095404e-16)
(460.09544 0.020798076 2.0019321e-16)
(459.90812 -0.0052041433 3.6504064e-16)
(460.05529 -0.0094152381 1.2332989e-16)
(459.96168 0.021478828 8.4987517e-17)
(459.99023 -0.031927346 1.8778989e-16)
(460.00757 0.039391043 1.1732285e-15)
(459.9285 -0.039754973 -8.1023434e-17)
(460.03847 0.042899723 1.7539271e-16)
(459.90594 -0.044515475 -6.5703851e-16)
(460.01035 0.048995468 -2.4984856e-16)
(459.92371 -0.050398943 1.612722e-15)
(459.96922 0.054744026 2.3533183e-16)
(459.96125 -0.053090234 1.6675793e-16)
(459.92084 0.043261931 2.6829924e-16)
(460.00345 -0.026402149 1.7858403e-16)
(459.87897 0.012393242 2.6427014e-16)
(459.99058 0.012557518 -2.6290461e-17)
(459.8574 -0.035290312 2.0888977e-16)
(459.9691 0.056098463 1.5220972e-16)
(459.88653 -0.065120122 -6.8817653e-16)
(459.95873 0.056952343 6.3281461e-18)
(459.90766 -0.051534029 1.3814271e-16)
(459.96828 0.042743315 1.236412e-17)
(459.91527 -0.028393758 -5.5433479e-16)
(459.97061 0.015887321 1.3447687e-16)
(459.91886 -0.013293647 1.6710526e-16)
(459.95173 0.01231568 1.1889139e-16)
(459.93291 -0.0028483368 -5.7644067e-16)
(459.95336 -0.0051021385 1.3108837e-16)
(459.9163 0.012043773 -3.1087349e-16)
(459.96285 -0.039889991 2.3205048e-16)
(459.90069 0.037796301 2.2409994e-16)
(460.0135 -0.0054184264 5.7352867e-17)
(459.95499 0.012400271 -4.1585501e-16)
(459.94318 -0.020095979 1.6619699e-16)
(459.92476 0.0021136893 -4.5191272e-16)
(459.91606 0.010333495 2.0571768e-16)
(459.90371 -0.0020924551 2.3066979e-16)
(459.94808 0.027772469 3.1695824e-16)
(459.8906 -0.030824273 1.6091749e-16)
(459.86032 0.0023590421 2.1032771e-16)
(459.88492 -0.0099081228 -3.3400603e-16)
(459.91224 0.012097767 3.8171923e-16)
(459.91181 0.019481863 1.8356256e-16)
(459.92918 -0.014642926 2.9382977e-16)
(459.84963 -0.019672535 2.6782747e-16)
(459.83011 0.03305556 -5.1013262e-16)
(459.8617 0.00026879215 1.8803947e-16)
(459.84106 -0.0049193161 -4.4931048e-16)
(459.85715 0.0043564696 1.1560001e-16)
(459.87357 -0.0075928727 2.7548096e-16)
(459.84978 0.0037278657 2.7117172e-16)
(459.87278 -0.010788375 7.0090977e-16)
(459.86552 -0.015216668 -4.2711423e-16)
(459.87682 0.016070454 2.874709e-16)
(459.93102 0.0061926342 2.6360575e-16)
(459.88381 -0.0046934788 1.9604992e-16)
(459.99716 -0.030602777 5.2284721e-17)
(460.03794 0.11001689 -9.1260298e-16)
(460.017 -0.083940268 9.2378571e-17)
(460.01846 0.044383433 1.2092182e-17)
(459.94711 -0.0705761 -1.0237698e-16)
(460.02022 0.046032618 5.8247528e-16)
(459.92589 -0.020523171 2.5349529e-16)
(460.04316 0.011307612 -3.645634e-17)
(459.93893 0.018443494 -2.1726991e-17)
(460.04683 -0.03674239 -5.3885049e-17)
(459.94884 0.053624875 -1.4182007e-17)
(460.0148 -0.069767533 -5.6952721e-16)
(459.98265 0.074898319 -6.0090811e-16)
(459.96375 -0.07628534 6.7601791e-16)
(460.04057 0.073397038 5.4237411e-16)
(459.91661 -0.062187804 -7.0812995e-16)
(460.08823 0.049284404 7.0856703e-16)
(459.87411 -0.033266231 4.2859496e-17)
(460.08104 0.013690979 2.2426706e-16)
(459.89946 0.0075726667 -1.0336846e-16)
(460.04111 -0.024428683 -5.3033187e-17)
(459.95008 0.03758661 4.1974458e-16)
(459.97844 -0.046275621 6.0590719e-16)
(459.99596 0.051521295 -1.2429436e-16)
(459.91973 -0.049931134 3.8260161e-16)
(460.02339 0.058169009 -3.7356703e-17)
(459.898 -0.062742485 -5.9953188e-16)
(459.99012 0.07074093 -5.6820003e-17)
(459.90947 -0.074039863 -3.0006203e-16)
(459.94926 0.080295171 5.9102517e-16)
(459.93721 -0.075714496 -4.5828601e-17)
(459.91032 0.061509027 -9.427923e-17)
(459.97409 -0.033694047 -2.8864587e-16)
(459.87605 0.0061437297 2.1134475e-17)
(459.96053 0.034545878 -1.4509698e-17)
(459.85505 -0.062139923 8.3934006e-17)
(459.94994 0.078451756 -4.2704634e-16)
(459.87332 -0.080412691 -4.8565665e-16)
(459.95648 0.068373583 6.4544495e-17)
(459.89038 -0.062856789 -2.1014364e-17)
(459.9732 0.04949171 1.2500751e-16)
(459.89986 -0.037545503 -1.3995883e-17)
(459.97308 0.028314673 -4.4887384e-16)
(459.91138 -0.026415311 -1.2964541e-16)
(459.9497 0.025890303 2.3643636e-16)
(459.92804 -0.012266867 -6.2152161e-17)
(459.95061 -0.0018072089 5.656621e-16)
(459.90919 0.019715382 5.3888504e-16)
(459.96401 -0.055284635 -4.316985e-16)
(459.905 0.04756075 -6.8948157e-17)
(460.0139 -0.017291812 3.719146e-16)
(459.95719 0.02595361 8.2062107e-16)
(459.94568 -0.02609634 -3.0465462e-17)
(459.93555 -0.00018375973 -6.4006884e-17)
(459.91815 0.014072436 1.3980069e-16)
(459.91 -0.012494397 3.6395988e-16)
(459.94347 0.050481333 -9.3799336e-16)
(459.88343 -0.043033256 2.5438873e-17)
(459.85855 -0.0016024206 4.9655063e-17)
(459.87488 0.00052705331 -4.591387e-16)
(459.90187 0.011656654 -3.3703633e-16)
(459.88867 0.022009998 -3.5623799e-16)
(459.90297 -0.013152089 2.5130199e-17)
(459.83481 -0.023889954 1.0151641e-16)
(459.81312 0.038533771 -3.0371059e-16)
(459.84786 -0.0010323136 -7.7520427e-16)
(459.83744 -0.0061225529 1.1528176e-17)
(459.8626 0.0061961013 6.5748951e-17)
(459.88165 -0.019117674 1.0677495e-16)
(459.85928 0.0031429145 4.1939938e-17)
(459.88294 0.0030642253 -3.383761e-17)
(459.87521 -0.015861621 -1.622461e-17)
(459.89054 0.017479872 -3.3351741e-17)
(459.93216 0.0081813227 3.6229691e-16)
(459.88842 -0.010293679 3.8705313e-16)
(459.92114 -0.042228498 -3.2076296e-17)
(460.07262 0.14653974 4.8070608e-17)
(459.95107 -0.10321606 -6.60189e-16)
(460.03695 0.070372498 -5.2986942e-16)
(459.90593 -0.098115873 -8.3181799e-17)
(460.02777 0.062901492 -5.3304164e-16)
(459.89372 -0.033970749 1.2319729e-16)
(460.04723 0.016778992 6.7881069e-17)
(459.90899 0.020638824 -1.3525955e-17)
(460.05726 -0.042465121 -4.011237e-16)
(459.91891 0.058975514 -5.0140689e-16)
(460.03064 -0.076339714 5.0455364e-16)
(459.95223 0.077618222 5.0033893e-16)
(459.98002 -0.078125145 6.2739211e-16)
(460.01061 0.072597314 5.8137691e-16)
(459.92928 -0.059342624 4.1509506e-17)
(460.05745 0.050211914 -1.1121395e-16)
(459.87905 -0.0361133 -1.6893089e-17)
(460.04856 0.017899905 -4.0200867e-16)
(459.89199 0.0043169756 -1.3427504e-16)
(460.00637 -0.021489919 -1.0027949e-17)
(459.93135 0.036355702 6.0790017e-16)
(459.94847 -0.048874307 -1.0065331e-16)
(459.96783 0.057386929 5.6916075e-17)
(459.90036 -0.056999684 4.6667936e-16)
(459.98427 0.066513693 8.7860549e-17)
(459.8818 -0.066733453 -4.6496538e-16)
(459.94259 0.076436333 -6.7359852e-17)
(459.88219 -0.082915766 4.4230859e-16)
(459.90056 0.096049446 -2.7182288e-16)
(459.89104 -0.097432514 4.3929127e-16)
(459.87603 0.08536576 1.8323531e-17)
(459.91475 -0.050611649 -4.3042804e-17)
(459.85829 0.01549525 4.253728e-16)
(459.9058 0.031522917 -1.0582084e-17)
(459.84086 -0.061173415 1.2892728e-17)
(459.91792 0.073803943 -5.1150717e-17)
(459.85827 -0.077728788 -2.614978e-16)
(459.94574 0.068060234 3.0206459e-16)
(459.8795 -0.065059684 -3.0656695e-17)
(459.97627 0.05335331 -6.3267373e-17)
(459.89474 -0.052372032 -9.2286046e-18)
(459.97807 0.049430189 -4.1426257e-18)
(459.9131 -0.054437488 -3.4511323e-17)
(459.95508 0.047858849 -3.9501699e-17)
(459.92819 -0.025874245 7.5317599e-17)
(459.96042 0.0092706605 -1.51421e-17)
(459.90782 0.015066484 2.6968747e-17)
(459.97695 -0.058569365 2.0734324e-17)
(459.91877 0.053148092 3.1287905e-16)
(460.02561 -0.023200463 -4.4295068e-17)
(459.97207 0.027195936 2.5126315e-17)
(459.9557 -0.028687179 3.4629278e-16)
(459.95463 0.0036978632 -2.6663425e-17)
(459.92228 0.010878922 -2.7990155e-17)
(459.91994 -0.013181839 -2.5543714e-17)
(459.93748 0.063700942 -2.6231914e-16)
(459.86869 -0.051891772 5.5190215e-17)
(459.85519 -0.0067773666 2.4467677e-16)
(459.85843 0.011234471 -2.8087218e-17)
(459.8853 0.015341603 -6.7040533e-18)
(459.86042 0.025737295 2.3642808e-19)
(459.86955 -0.0098703605 -3.1847308e-16)
(459.81753 -0.02543173 -1.4917792e-16)
(459.7933 0.033908201 3.4289288e-16)
(459.83222 -0.007268459 -3.766297e-17)
(459.83568 -0.0019398739 2.7906738e-16)
(459.86951 0.0051025784 -1.0306789e-16)
(459.90212 -0.036221483 -3.2172047e-16)
(459.88796 -0.013274132 -1.5423793e-16)
(459.912 0.01397835 3.1683176e-16)
(459.90298 -0.0059111775 -2.8970469e-18)
(459.92186 0.024724966 -5.9248759e-17)
(459.95056 0.017334659 -4.769336e-17)
(459.9084 -0.012764229 -2.4265439e-16)
(459.69943 -0.042149652 6.8754579e-18)
(460.24134 0.1574237 -4.2264302e-18)
(459.75353 -0.1096813 2.3823776e-16)
(460.16716 0.079355755 -6.5583354e-17)
(459.75277 -0.1130359 1.2423279e-19)
(460.1244 0.069447349 1.4936542e-17)
(459.76879 -0.044345169 -3.7336608e-17)
(460.12682 0.026952444 -5.0713404e-16)
(459.80265 0.0061058934 -1.7405727e-17)
(460.13642 -0.019924918 -2.9779922e-17)
(459.82834 0.029992648 -4.3845979e-16)
(460.10494 -0.047112153 -3.9590512e-17)
(459.87583 0.050017256 -2.6251695e-17)
(460.03747 -0.055654083 4.3289343e-17)
(459.94343 0.055277963 -3.1867561e-17)
(459.96899 -0.046240324 1.2686462e-17)
(459.99114 0.041421946 5.0620435e-16)
(459.90251 -0.025469662 -4.1306436e-17)
(459.97835 0.011086422 1.0830139e-17)
(459.89626 0.010823262 4.0509286e-16)
(459.92987 -0.022762935 2.197639e-16)
(459.91299 0.03314998 -1.067808e-16)
(459.87639 -0.038565886 4.4858426e-17)
(459.92966 0.038227203 -1.8065018e-17)
(459.84138 -0.030666866 1.0681782e-16)
(459.93399 0.039816336 3.5542156e-16)
(459.8337 -0.042932601 -8.8279779e-19)
(459.88518 0.068902831 -3.9189897e-17)
(459.83324 -0.085128149 4.5827208e-18)
(459.84279 0.11174374 -3.5269842e-16)
(459.82888 -0.12355767 3.8394678e-16)
(459.83314 0.11650673 3.0609037e-16)
(459.84544 -0.08242174 2.8234305e-16)
(459.83382 0.050442658 -2.9992243e-16)
(459.85045 -0.0053882799 -3.1230463e-16)
(459.83153 -0.037118285 -3.0367041e-16)
(459.89088 0.056882167 -3.2069549e-16)
(459.86422 -0.07428638 -7.3120452e-18)
(459.94362 0.064164894 8.7948518e-17)
(459.90341 -0.06729235 -1.7538446e-17)
(459.98887 0.061507014 -4.9041448e-17)
(459.93398 -0.067325213 2.6414744e-16)
(459.9991 0.06356185 4.7891116e-17)
(459.95454 -0.070226344 2.5741927e-16)
(459.98846 0.057335702 -2.7292919e-16)
(459.96111 -0.041223352 9.7195606e-17)
(459.99907 0.031079514 3.4294578e-16)
(459.93253 -0.0070816358 1.9233847e-16)
(460.0173 -0.042979037 2.3429591e-16)
(459.95439 0.042333536 -2.1174144e-16)
(460.05374 -0.0078118296 2.7668165e-16)
(460.0014 0.020985791 1.8778895e-16)
(459.97701 -0.033428031 -5.7216902e-18)
(459.97974 0.014009775 2.7159081e-16)
(459.93184 -0.00044807091 1.9326083e-17)
(459.93171 0.002157858 -2.5745838e-16)
(459.93312 0.065860778 -1.9290497e-16)
(459.85385 -0.060383626 2.1681751e-16)
(459.86142 -0.0031147202 1.149902e-17)
(459.85757 0.016316252 2.5079909e-16)
(459.88715 0.014311641 5.2702195e-18)
(459.86066 0.022603033 -2.0370395e-18)
(459.86491 -0.00072543807 1.761344e-16)
(459.82859 -0.0083693063 4.9538432e-17)
(459.79783 0.021117377 3.296286e-16)
(459.83879 -0.023069758 -1.9342781e-16)
(459.85066 -0.0057569198 -5.0938576e-17)
(459.88398 0.0023082299 -2.6385851e-17)
(459.92782 -0.035543691 -1.3539858e-16)
(459.92968 -0.033409679 -2.481365e-17)
(459.958 0.0040891335 -2.1992646e-17)
(459.94948 0.0028630166 2.3188743e-16)
(459.97007 0.024479339 -2.0627648e-16)
(459.98906 0.022141438 -2.3406513e-18)
(459.93977 -0.0095143327 2.3339436e-17)
(459.28346 -0.037384842 6.6133952e-17)
(460.63839 0.14887678 -2.9841275e-16)
(459.34352 -0.10416745 5.8207663e-17)
(460.52108 0.074183339 -4.6445059e-17)
(459.39482 -0.1131179 -1.7635997e-16)
(460.41605 0.070380394 3.9577708e-16)
(459.4661 -0.055872857 -1.3060503e-16)
(460.36868 0.046123273 -1.7895779e-16)
(459.5459 -0.02145686 -9.1750615e-18)
(460.34761 0.011672752 3.8450255e-16)
(459.60907 -0.0044242056 -3.5369927e-16)
(460.2823 -0.013894093 3.5270837e-16)
(459.68793 0.015227177 -1.5299427e-17)
(460.173 -0.0182907 -3.3761307e-16)
(459.76989 0.018906301 4.8235062e-18)
(460.07651 -0.010170478 5.2393497e-17)
(459.81625 0.010621688 2.0354817e-17)
(459.99471 0.0020892473 -3.5565319e-17)
(459.80291 -0.0024541581 7.5811823e-17)
(459.96997 0.017054107 8.2462614e-17)
(459.76071 -0.011621036 2.012399e-16)
(459.95512 0.011040062 -4.3816633e-17)
(459.73044 -0.0026726622 4.0793869e-17)
(459.93737 -0.0037306485 1.150709e-16)
(459.73302 0.0079519985 3.4442851e-18)
(459.92539 0.013044026 4.62654e-17)
(459.76122 -0.028234704 3.5748174e-16)
(459.88664 0.068140007 8.0640637e-18)
(459.77891 -0.086624501 -2.9129991e-16)
(459.86571 0.1187241 4.17975e-17)
(459.78275 -0.13740636 2.3057973e-17)
(459.87594 0.1362959 -2.2991592e-16)
(459.81387 -0.11195186 2.3322003e-17)
(459.88443 0.086918339 -3.9531989e-17)
(459.84246 -0.048714412 2.8298482e-16)
(459.88962 -0.0093235657 1.3542565e-16)
(459.90532 0.028140617 1.5959048e-17)
(459.93015 -0.062811939 4.236952e-17)
(459.96894 0.054614034 3.0023324e-16)
(459.98599 -0.06890511 -2.0567391e-16)
(460.01683 0.061151237 -2.2378288e-16)
(460.02767 -0.065170012 -3.5428288e-17)
(460.03604 0.055098503 7.6426392e-17)
(460.04496 -0.065506942 2.80746e-16)
(460.03585 0.06169312 2.1349418e-17)
(460.03507 -0.061735569 2.8227926e-16)
(460.046 0.05572714 3.6075008e-17)
(459.98007 -0.040474941 5.8747328e-17)
(460.05448 -0.0055278301 6.0909552e-18)
(459.99745 0.016786121 1.8936053e-17)
(460.06846 0.011519179 2.4585346e-16)
(460.02146 0.013297925 4.3730748e-17)
(459.98492 -0.030275342 -1.5793797e-16)
(459.99347 0.02715435 3.6713704e-18)
(459.93475 -0.0092513233 2.2554644e-16)
(459.94221 0.021639833 -8.9993311e-17)
(459.93057 0.056133411 2.6585617e-17)
(459.85309 -0.071787254 2.0904239e-16)
(459.887 0.014224634 4.6143168e-17)
(459.8838 0.026477307 -1.4623253e-16)
(459.91813 0.0043955265 -1.0318592e-16)
(459.9054 0.0079473329 3.7244304e-17)
(459.9007 0.0073484625 1.2595564e-16)
(459.87569 0.016227261 4.5194696e-17)
(459.82208 0.01717837 -2.8623403e-16)
(459.86065 -0.026008418 2.0658477e-16)
(459.86504 -0.014297137 -1.2116409e-16)
(459.88425 -0.012764219 6.7610647e-17)
(459.92148 -0.031568338 2.6957071e-16)
(459.9288 -0.038776507 6.2984564e-17)
(459.95852 -0.0053016607 2.8538207e-17)
(459.95137 0.0090239171 5.972456e-17)
(459.96395 0.031492945 3.6842812e-17)
(459.98019 0.013978236 -1.2510659e-16)
(459.91731 -0.013684478 3.8318378e-17)
(458.82818 -0.038168464 2.8780919e-17)
(461.14314 0.1401995 -3.1127973e-16)
(458.81055 -0.096578529 2.4311701e-17)
(461.03707 0.068325095 2.5501106e-16)
(458.86276 -0.10745069 4.3312805e-17)
(460.88357 0.069689676 -3.8038554e-17)
(458.98689 -0.064901264 4.9376464e-18)
(460.75523 0.0591261 -1.7799641e-17)
(459.13108 -0.039045387 -1.6595127e-16)
(460.65527 0.028863002 2.4071747e-16)
(459.24908 -0.025299681 6.5952729e-18)
(460.53075 0.011632823 3.8410049e-17)
(459.35967 -0.016634021 3.9709961e-16)
(460.39922 0.021358336 -3.6371434e-16)
(459.43011 -0.019783306 1.9877516e-17)
(460.32821 0.029870056 1.8389282e-18)
(459.44346 -0.021689329 8.2819453e-17)
(460.28629 0.026470136 4.2033153e-17)
(459.43056 -0.013215303 -2.2681649e-16)
(460.26801 0.021200265 2.1499978e-17)
(459.44407 -0.0020306526 5.3452998e-17)
(460.20828 -0.00067360343 -6.8778445e-18)
(459.51227 0.01223145 7.2754282e-17)
(460.12137 -0.01670465 6.2231227e-17)
(459.61773 0.015597613 -2.6754081e-16)
(460.07061 0.0017675592 3.3993092e-16)
(459.71092 -0.012014083 8.093235e-17)
(460.05197 0.044636247 -1.9724406e-16)
(459.75066 -0.064968787 -2.0000559e-16)
(460.06931 0.10145327 -2.155642e-16)
(459.76972 -0.13513416 2.5634675e-16)
(460.09266 0.14391743 1.1458681e-16)
(459.8237 -0.13368828 4.055186e-17)
(460.07933 0.11320626 5.069167e-17)
(459.86652 -0.079581515 4.4516037e-17)
(460.05368 0.015053474 -2.0645682e-16)
(459.92506 -0.0078766804 3.2071033e-16)
(460.06507 -0.036330687 2.7477874e-16)
(459.96421 0.023295142 8.2650481e-18)
(460.10171 -0.037324238 2.2849188e-17)
(459.9892 0.024598625 -5.9693188e-17)
(460.12773 -0.038414365 -2.0918987e-16)
(459.99928 0.040109795 3.1194815e-16)
(460.12668 -0.064132362 2.8214034e-16)
(460.00044 0.07356465 4.850431e-17)
(460.08582 -0.078250158 2.2558866e-16)
(460.00504 0.074087006 2.9524494e-17)
(459.99692 -0.077693819 1.8566078e-16)
(459.99792 0.041550722 1.8737287e-16)
(459.99857 -0.0067438421 -1.428151e-16)
(459.99089 0.033303064 4.8541945e-17)
(460.00165 -0.014261316 2.1554566e-17)
(459.91507 -0.003144827 5.6117309e-17)
(459.9705 0.022021387 1.5661612e-16)
(459.87773 -0.0013082532 -1.815439e-16)
(459.92612 0.043293981 -1.2501567e-16)
(459.87737 0.026792868 6.4847398e-17)
(459.83448 -0.078660386 4.9687171e-17)
(459.86519 0.02787461 1.1988494e-17)
(459.87279 0.029465947 -1.3806551e-16)
(459.87758 0.0016888706 7.3205695e-18)
(459.89952 -0.011024894 -1.636766e-17)
(459.85647 0.023558283 -9.9650591e-17)
(459.84839 0.02495918 4.580691e-17)
(459.74247 0.011591483 3.2189424e-17)
(459.78082 -0.0036719543 1.7297615e-16)
(459.74638 -0.010628003 -1.0043028e-16)
(459.75128 -0.031589313 1.2448144e-16)
(459.75325 -0.034199154 -1.6151868e-16)
(459.75842 -0.04403511 -1.1221716e-16)
(459.76125 -0.007218109 7.145945e-17)
(459.7552 0.01142892 4.7433275e-17)
(459.73791 0.044328061 -1.37109e-16)
(459.75057 0.018251155 3.8865944e-17)
(459.66826 -0.014061696 1.8930891e-16)
(458.47321 -0.043145995 5.0615934e-17)
(461.48508 0.13931424 -2.2110884e-16)
(458.38671 -0.093778049 2.1588816e-16)
(461.41797 0.069215069 1.5417188e-17)
(458.402 -0.10229978 -1.0687541e-16)
(461.26974 0.067268814 4.430262e-17)
(458.54616 -0.062556213 6.9516944e-17)
(461.07365 0.057829559 4.3258835e-17)
(458.75751 -0.0395703 2.530894e-16)
(460.88231 0.036890206 6.9188579e-17)
(458.94405 -0.041874774 2.41243e-16)
(460.72832 0.035586296 9.4988575e-18)
(459.0613 -0.043548073 2.9967012e-17)
(460.67387 0.050311371 -1.1418635e-16)
(459.05333 -0.047543313 9.6643753e-17)
(460.76113 0.06142221 4.0623356e-17)
(458.95569 -0.052967214 1.1237017e-16)
(460.87721 0.056991112 -1.0220545e-18)
(458.8983 -0.045683714 -2.246331e-16)
(460.92238 0.050344504 7.7772933e-17)
(458.98784 -0.026356822 7.41963e-17)
(460.80598 0.01749704 3.1671017e-16)
(459.21195 0.0026034785 3.3511858e-17)
(460.59808 -0.022268033 -2.5326444e-16)
(459.46826 0.028515706 -1.8240325e-16)
(460.44044 -0.025767276 6.2891534e-17)
(459.64171 0.01524856 1.190173e-17)
(460.38002 0.021630009 2.6190737e-16)
(459.68734 -0.058362296 3.1285426e-16)
(460.38968 0.099385934 -2.0822787e-16)
(459.69704 -0.14113728 -2.1941123e-17)
(460.38146 0.14815027 -2.0032213e-17)
(459.75702 -0.13522282 1.272741e-17)
(460.30202 0.11701366 -1.3682132e-16)
(459.79732 -0.089945989 1.9282485e-17)
(460.21511 0.040815951 -1.9577717e-16)
(459.82169 -0.049115951 2.4400588e-17)
(460.18799 0.010261848 -1.6599961e-16)
(459.80207 -0.032109944 6.2701275e-17)
(460.19355 0.014462362 3.6702367e-16)
(459.77422 -0.012685981 2.7464511e-17)
(460.18678 -0.017714627 1.3223883e-17)
(459.76356 0.031632205 5.465293e-17)
(460.13652 -0.057428208 2.486254e-16)
(459.77681 0.07247008 -1.9197287e-16)
(460.04729 -0.06729125 -3.3280734e-18)
(459.77821 0.066433388 -1.8337492e-16)
(459.93461 -0.10326314 4.1512249e-17)
(459.75687 0.084331108 2.3849325e-17)
(459.92403 -0.042250549 6.7150959e-17)
(459.71947 0.080161254 1.0362933e-17)
(459.90398 -0.068088921 -1.3213507e-16)
(459.64991 0.045073373 1.1657808e-17)
(459.84187 -0.0097966665 2.1685734e-17)
(459.61135 0.011996658 3.4370341e-17)
(459.76291 0.069580551 5.2657686e-17)
(459.57554 -0.025018598 -1.6671219e-16)
(459.62753 -0.069550291 -1.0472981e-16)
(459.54489 0.046152521 1.5321722e-16)
(459.60346 0.0084432432 1.6421333e-17)
(459.47544 -0.0056865137 1.6063643e-16)
(459.57641 -0.018120848 -1.7184269e-16)
(459.4011 0.055322622 -1.7700344e-17)
(459.44718 0.027088863 4.402658e-17)
(459.21372 0.0039144765 -8.807364e-17)
(459.28678 0.015407883 -1.5182906e-16)
(459.13177 0.0054829028 3.4024101e-17)
(459.15161 -0.030132049 -7.1202479e-17)
(459.05126 -0.035325142 -1.4522858e-16)
(459.07272 -0.032585468 -1.2585943e-16)
(458.98127 -0.011201921 2.6256761e-17)
(458.98856 0.010934399 1.5631972e-16)
(458.87779 0.044322747 2.131344e-17)
(458.88935 0.02454226 9.0309641e-18)
(458.72403 -0.008811077 1.2586525e-16)
(457.90689 -0.045000661 1.2938966e-17)
(461.84306 0.13848448 1.6629755e-16)
(458.0095 -0.091723167 -3.6935443e-17)
(461.66395 0.072905689 1.0551546e-16)
(458.1504 -0.095800455 7.7772435e-17)
(461.47076 0.062602215 -1.3478725e-16)
(458.36505 -0.053062645 1.0182402e-16)
(461.23481 0.052400656 5.2691939e-17)
(458.65048 -0.038778188 1.0641365e-16)
(461.00548 0.043831826 2.0139221e-16)
(458.90236 -0.05414851 -8.4674406e-17)
(460.87435 0.048080156 1.7007021e-17)
(459.00899 -0.059847861 1.910813e-16)
(460.93926 0.068396591 1.3859193e-16)
(458.89617 -0.073680016 4.9804614e-17)
(461.21584 0.093817746 1.621438e-17)
(458.64135 -0.091747079 3.29216e-17)
(461.52294 0.095961948 -1.3598746e-16)
(458.45563 -0.088261641 2.1509573e-16)
(461.66795 0.07966462 3.3732266e-17)
(458.51593 -0.046377809 3.506149e-17)
(461.52474 0.022985104 -2.8745805e-17)
(458.78946 0.008616115 4.1133741e-17)
(461.20884 -0.039901456 1.1677263e-17)
(459.11941 0.042651687 2.0519705e-16)
(460.90607 -0.034235801 -9.5885537e-18)
(459.35712 0.013584808 -2.0187755e-16)
(460.70838 0.034415791 2.4024708e-16)
(459.43802 -0.068892132 2.0281851e-17)
(460.60817 0.096064308 -2.3096498e-16)
(459.47205 -0.12556178 2.5757009e-17)
(460.5 0.12911636 -1.7514684e-17)
(459.55922 -0.10810369 2.5375253e-16)
(460.32471 0.10854981 7.4968886e-19)
(459.61026 -0.094604944 -1.8402583e-16)
(460.1907 0.068192503 -2.2703962e-16)
(459.5789 -0.080389971 2.6046497e-17)
(460.18416 0.045049343 1.8543622e-16)
(459.45753 -0.061128045 1.5358215e-17)
(460.20809 0.034570555 -4.0290876e-18)
(459.34616 -0.030989635 2.7483952e-17)
(460.16231 0.015509886 -1.3735396e-17)
(459.30584 -0.0084094357 5.2957837e-17)
(460.01513 -0.015299442 -1.8112471e-18)
(459.32361 0.042823785 2.3552506e-17)
(459.82334 -0.032231956 9.1583454e-19)
(459.27365 0.048526811 1.8256411e-17)
(459.66196 -0.12756206 -1.539598e-17)
(459.1569 0.13048189 -1.0384324e-16)
(459.59011 -0.092832457 -1.2474434e-17)
(459.00167 0.12960313 8.337616e-18)
(459.46072 -0.12073767 1.4876179e-16)
(458.84734 0.10764435 -1.3410617e-16)
(459.24914 -0.054299979 2.0175958e-18)
(458.70635 0.036684967 1.4915897e-17)
(459.00597 0.089975671 3.3210352e-18)
(458.50476 -0.081231978 -1.2118182e-16)
(458.71544 -0.04700441 -1.2635103e-16)
(458.3164 0.075327511 -1.6400345e-16)
(458.48744 -0.0059986843 -6.015942e-18)
(458.0328 -0.037572322 4.2091862e-17)
(458.29775 -0.0083352154 5.5435232e-17)
(457.78568 0.079514639 -1.5607411e-16)
(457.95352 0.029035647 -1.655299e-16)
(457.40564 0.028645216 2.4943686e-18)
(457.56586 0.017396931 2.2124851e-18)
(457.11428 0.016788921 -4.3894328e-17)
(457.18152 -0.012455821 -1.6921634e-16)
(456.82221 -0.039213285 -1.3182222e-16)
(456.89292 0.0028130065 1.7899743e-17)
(456.55135 0.00086759943 8.3401309e-18)
(456.60148 0.020531357 -9.9209796e-17)
(456.2357 0.052735676 1.3174767e-17)
(456.26011 0.036705053 -4.1040814e-17)
(455.83429 -0.0050746326 -4.5058604e-17)
(457.07832 -0.03952628 -7.1556388e-17)
(462.59436 0.12625929 -1.301841e-16)
(457.42819 -0.081813259 -1.6452406e-16)
(462.23162 0.065764168 -2.5676202e-16)
(457.83216 -0.081484319 5.9978857e-17)
(461.88121 0.05039756 -7.9721343e-17)
(458.21102 -0.044308421 -7.5158301e-17)
(461.57426 0.047570001 1.2716415e-16)
(458.564 -0.040047564 1.3131581e-16)
(461.33365 0.043364162 -1.9842433e-16)
(458.83297 -0.052762733 -2.8901144e-18)
(461.195 0.046010237 -1.0840192e-17)
(458.94873 -0.066787088 1.5878014e-16)
(461.22133 0.080377919 6.7707844e-17)
(458.85731 -0.095910505 2.2482742e-17)
(461.43417 0.11946851 -4.2449325e-17)
(458.60867 -0.11933758 4.0627931e-17)
(461.7013 0.11884946 -6.0236439e-19)
(458.36425 -0.10242961 3.4676023e-17)
(461.8612 0.078770368 2.6594984e-18)
(458.29961 -0.037991461 1.6832079e-17)
(461.77877 0.015246511 1.1144057e-17)
(458.41033 0.016020226 2.5389504e-17)
(461.53899 -0.039027405 2.2841555e-17)
(458.60633 0.033461545 -1.5442092e-16)
(461.24717 -0.020473215 1.6926446e-17)
(458.82995 0.008761596 3.4964833e-17)
(460.92266 0.035195416 1.8653134e-16)
(459.03843 -0.04693681 5.7400169e-17)
(460.60528 0.061732112 5.3647689e-17)
(459.23433 -0.090278993 3.5833664e-17)
(460.30772 0.099074916 -1.2341838e-17)
(459.40088 -0.07480147 -9.5838834e-17)
(460.01012 0.092714493 2.0745449e-16)
(459.44782 -0.074278825 -3.1034855e-18)
(459.80925 0.065832209 1.1988548e-17)
(459.31052 -0.075758183 4.0508294e-17)
(459.79861 0.054393673 4.9009696e-17)
(458.98942 -0.069839502 1.9371625e-16)
(459.8074 0.060891267 -7.6518891e-18)
(458.66929 -0.077562257 1.7636162e-17)
(459.6498 0.085188017 1.684014e-16)
(458.44973 -0.059917 4.2239259e-17)
(459.28831 0.022443803 1.3666504e-17)
(458.3243 0.036053651 1.2976389e-17)
(458.81896 -0.015294472 -2.1557712e-17)
(458.04011 0.046642023 1.4944152e-16)
(458.43959 -0.12942594 1.487055e-16)
(457.57604 0.14839525 -3.9004197e-17)
(458.14212 -0.10615147 -3.2155506e-16)
(457.04154 0.15451118 -1.5560247e-16)
(457.71588 -0.15773383 -4.2479208e-17)
(456.58388 0.18788483 1.4613033e-16)
(457.11802 -0.10240551 -1.2820372e-18)
(456.13865 0.10020192 2.0197422e-17)
(456.48018 0.089240313 1.0002704e-16)
(455.52521 -0.10144795 -1.7255172e-16)
(455.83611 -0.0040842575 -1.7556713e-16)
(454.9215 0.068705713 1.321649e-16)
(455.14679 0.0097429227 1.2609408e-16)
(454.14646 -0.084500867 -1.2568082e-16)
(454.62644 0.021080885 -2.543257e-16)
(453.52885 0.068788503 -1.6496735e-16)
(453.87164 0.0083822244 1.3656865e-16)
(452.76344 0.086635045 1.4527431e-17)
(453.0431 0.0071694089 -7.1098144e-17)
(452.05711 0.030524129 -6.1115348e-17)
(452.23673 -0.014002527 -8.4838553e-17)
(451.34566 -0.050081261 -9.5056429e-17)
(451.56944 0.01540303 6.855312e-17)
(450.6988 -0.0034875287 -1.469514e-16)
(450.87415 0.031717812 1.0019188e-16)
(449.98497 0.050388346 -4.3741481e-17)
(450.05333 0.073119474 -4.7057675e-17)
(449.09764 0.019951858 -6.1585606e-17)
(457.05529 -0.032638346 -3.562522e-17)
(462.98559 0.10690939 2.9656716e-16)
(457.16375 -0.066564707 5.3323092e-16)
(462.78555 0.049810192 1.5158616e-16)