/*--------------------------------*- C++ -*----------------------------------*\
| =========                 |                                                 |
| \\      /  F ield         | OpenFOAM: The Open Source CFD Toolbox           |
|  \\    /   O peration     | Version:  2.3.0                                 |
|   \\  /    A nd           | Web:      www.OpenFOAM.org                      |
|    \\/     M anipulation  |                                                 |
\*---------------------------------------------------------------------------*/
FoamFile
{
    version     2.0;
    format      ascii;
    class       volScalarField;
    location    "1.1";
    object      alpha.water;
}
// * * * * * * * * * * * * * * * * * * * * * * * * * * * * * * * * * * * * * //

dimensions      [0 0 0 0 0 0 0];

internalField   nonuniform List<scalar> 
2268
(
1
1
1
1
1
1
1
1
1
1
1
0.999619
0.995659
0.992919
0.992518
0.981187
0.978198
0.978198
0.9782
0.989352
0.999999
0.999999
0.99999
1
1
1
1
1
1
1
1
1
1
0.999998
0.993861
0.96279
0.953866
0.965717
0.976511
0.991316
0.99327
0.990924
0.995856
0.998478
0.999999
0.99999
1
1
1
1
1
1
1
1
1
1
0.999994
0.980084
0.953866
0.953866
0.953866
0.970202
0.999999
0.999999
0.999999
0.999999
0.999999
0.999999
0.999993
1
1
1
1
1
1
1
1
1
1
0.999997
0.990375
0.955264
0.953866
0.965651
0.999992
0.999997
0.999999
0.999999
0.999999
0.999999
0.999999
0.999998
1
1
1
1
0.999997
0.999972
0.999975
1
1
1
0.999999
0.998925
0.991662
0.98689
0.999884
0.999983
0.99999
0.999996
0.999997
0.999998
0.999999
0.999999
0.999999
0.999998
1
1
1
1
0.999753
0.999474
0.999999
1
1
0.999999
0.999999
0.999992
0.999963
0.99994
0.99993
0.999907
0.999874
0.99448
0.978429
0.963533
0.975683
0.996524
0.993875
0.99773
1
1
1
0.999787
0.999386
0.999677
1
1
1
1
0.999999
0.999986
0.998992
0.980068
0.948384
0.921201
0.896387
0.867647
0.859722
0.860431
0.984549
0.95957
0.959762
0.992405
0.999999
1
0.999999
0.999599
0.99947
0.999935
1
1
1
0.999994
0.993263
0.902863
0.834183
0.828137
0.836868
0.84438
0.853489
0.858894
0.937546
0.994053
0.984888
0.984876
0.91299
0.788289
0.788289
0.790679
0.836097
0.979518
0.987627
0.987707
0.987707
0.845301
0.719453
0.794421
0.889658
0.889658
0.8809
0.80909
0.792158
0.984888
0.959596
0.767244
0.798022
0.907463
0.895995
0.916078
0.979435
0.987508
0.987627
0.985717
0.757124
0.718679
0.722111
0.889658
0.869215
0.737166
0.735521
0.743955
0.985564
0.91199
0.760731
0.949264
0.979415
0.977764
0.97597
0.987125
0.987295
0.987517
0.834176
0.718679
0.718679
0.769829
0.888983
0.839624
0.505943
0.396945
0.701592
0.986327
0.916238
0.760731
0.938304
0.980577
0.977109
0.942767
0.956352
0.987122
0.974383
0.939686
0.755068
0.718754
0.872896
0.886886
0.420014
0.111707
0.107795
0.296298
0.993938
0.862691
0.830512
0.968123
0.981704
0.943106
0.942506
0.962275
0.986236
0.985503
0.957646
0.932552
0.857675
0.861522
0.352033
0.112662
0.107845
0.104242
0.104242
0.993938
0.862723
0.984338
0.983364
0.983029
0.976424
0.978048
0.98399
0.985428
0.942607
0.821916
0.927393
0.917575
0.630447
0.121912
0.117894
0.164305
0.191567
0.107969
0.993938
0.943901
0.984956
0.984477
0.982092
0.98221
0.981957
0.982474
0.844962
0.482383
0.5998
0.823093
0.61864
0.209529
0.136345
0.188006
0.206877
0.206329
0.206881
0.99391
0.993284
0.992648
0.97548
0.824291
0.978919
0.956395
0.588971
0.132679
0.0318827
0.0873545
0.167251
0.106191
0.0484867
0.14407
0.164535
0.172718
0.206858
0.206662
0.918814
0.900903
0.910229
0.982577
0.999993
0.999998
0.999996
0.999875
0.999954
1
1
0.999998
0.999947
0.961954
0.737932
0.644115
0.649068
0.746455
0.873201
0.950241
0.972345
0.991505
0.99429
0.749409
0.631948
0.788547
0.957124
0.999936
0.999995
0.999996
0.999998
0.999999
1
1
0.999994
0.999515
0.939135
0.541954
0.25141
0.188686
0.225999
0.301128
0.318777
0.35655
0.57893
0.820901
0.289767
0.152369
0.518615
0.822116
0.999238
0.999993
0.999997
0.999997
0.999998
1
0.999979
0.999568
0.961614
0.37129
0.0907432
0.0951988
0.0677659
0.0271278
0.00816423
0.00302382
0.00252958
0.00264439
0.0386692
0.0752149
0.0752167
0.0752153
0.242368
0.956042
0.999995
0.999996
0.999997
0.999997
0.999956
0.999232
0.942594
0.255435
0.0118447
0.105384
0.228485
0.230328
0.235341
0.117563
0.0587979
0.00361674
0.00264434
0.004386
0.0754367
0.0752167
0.349417
0.957112
0.957433
0.934549
0.953031
0.993254
0.99801
0.959587
0.72162
0.223028
0.00312469
0.000757019
0.0194189
0.146675
0.235341
0.238511
0.239095
0.242074
0.144817
0.0571425
0.00695007
0.0821078
0.348941
0.701986
0.703443
0.271163
0.27895
0.587589
0.739661
0.723106
0.355415
0.0897952
0.00295547
0.000477011
7.53906e-05
1.79216e-05
5.44201e-05
0.00910894
0.184912
0.242074
0.244468
0.244468
0.246084
0.144221
0.305147
0.569574
0.563183
0.0312253
0.0135332
0.0145997
0.0545453
0.129325
0.165033
0.0830703
0.00299721
0.000493485
8.46005e-05
2.71318e-05
1.93455e-05
7.9807e-06
2.59841e-06
6.57882e-06
0.0346944
0.199032
0.246084
0.2477
0.2477
0.378704
0.556498
0.228506
0.0135332
0.012234
0.0123445
0.0135297
0.0163906
0.0126748
0.00424383
0.0108591
0.000144631
2.81753e-05
2.44404e-05
2.46324e-05
6.16822e-06
-2.71502e-07
1.24855e-07
-2.23454e-06
1.23513e-05
0.0423392
0.194332
0.248479
0.545164
0.279824
0.0732484
0.0161588
0.0122341
0.0122342
0.0130481
0.0162543
0.0149213
0.00138588
0.00208342
0.0011805
3.83275e-05
4.64376e-05
4.68523e-05
1.10329e-05
9.85215e-09
-2.85727e-09
-1.90538e-07
-8.70264e-09
-4.20748e-06
-4.24676e-06
0.0255192
0.698238
0.178273
0.0396186
0.043583
0.0291062
0.0356787
0.0362038
0.036179
0.0271072
0.000412351
7.72988e-05
0.000258898
4.92358e-05
4.74918e-05
4.16847e-05
1.612e-06
9.87966e-09
9.71001e-09
1.06392e-08
1.16909e-08
-2.00216e-09
4.72445e-09
-3.5639e-07
0.698238
0.117259
0.0375354
0.0464955
0.0464328
0.0383295
0.0321297
0.0267555
0.0116189
5.83242e-05
1.53225e-05
3.71596e-06
1.61402e-05
1.61074e-05
9.94289e-09
9.85236e-09
9.8511e-09
1.06385e-08
1.24454e-08
8.99612e-09
6.37608e-09
4.32206e-09
8.42253e-10
0.696216
0.0920761
0.0318217
0.0464328
0.02217
0.0069578
0.00270176
0.0011614
6.35651e-05
1.64407e-05
2.6504e-06
4.82067e-07
7.16342e-08
8.90471e-09
9.8279e-09
1.04349e-08
1.31251e-08
1.83279e-08
2.55945e-08
2.14708e-08
4.02928e-09
8.28911e-10
1.74443e-10
0.368137
0.102324
0.0190819
0.0144892
0.000220897
4.86095e-05
3.33485e-05
3.57447e-05
1.14157e-05
2.05631e-06
3.4979e-07
8.80934e-08
4.27576e-08
2.92386e-08
1.19674e-08
2.2192e-08
4.98405e-08
8.41097e-08
1.26517e-07
1.01048e-07
3.35644e-08
5.19227e-09
5.55847e-10
0.206894
0.0990617
0.00153166
9.46544e-05
1.47931e-05
9.13419e-06
9.15989e-06
8.11299e-06
2.28971e-06
4.71381e-07
1.22131e-07
9.06254e-08
6.78009e-08
4.76785e-08
1.17533e-07
1.31038e-07
2.76179e-07
4.84297e-07
2.00087e-06
1.24534e-06
2.08033e-07
3.5105e-08
5.30485e-09
0.488453
0.0723586
9.47934e-05
1.49097e-05
2.81096e-06
2.07589e-06
2.61316e-06
2.02478e-06
6.18494e-07
2.3951e-07
1.95974e-07
1.32216e-07
7.00345e-08
5.18704e-07
2.43592e-06
2.85315e-06
4.08033e-06
1.71251e-05
3.63564e-05
3.13783e-05
6.73021e-06
2.196e-07
3.49007e-08
0.490453
0.0471052
1.53408e-05
2.58547e-06
8.28116e-07
6.1133e-07
7.55759e-07
7.39704e-07
4.6983e-07
3.7217e-07
2.39803e-07
1.57929e-07
2.76126e-07
2.57255e-05
8.67419e-05
0.000100293
7.27943e-05
5.98914e-05
5.65082e-05
5.22253e-05
4.48794e-05
1.09607e-05
2.22069e-07
0.490453
0.0403048
1.66842e-06
5.9367e-07
3.37826e-07
2.19091e-07
2.58972e-07
4.2265e-07
6.28778e-07
4.7106e-07
3.90692e-07
9.06294e-07
2.80532e-05
0.000151925
0.000153662
0.000153571
0.000101094
3.28605e-05
4.52501e-05
5.14133e-05
5.18274e-05
5.20148e-05
9.58086e-06
0.213791
0.0586755
3.56957e-05
-1.42835e-06
2.16225e-07
9.8746e-08
1.30877e-07
2.78085e-07
4.10628e-07
6.15473e-07
1.36252e-06
4.68234e-05
0.000159386
0.000158118
0.000157235
7.98342e-05
8.92469e-06
1.11938e-05
1.32195e-05
1.68771e-05
3.48929e-05
5.62038e-05
5.58491e-05
0.000573635
0.0582031
0.00506891
4.755e-07
1.10196e-07
6.06048e-08
8.33374e-08
1.40077e-07
2.12263e-07
7.04395e-07
2.13355e-05
0.000160661
0.000159885
0.000158667
0.000155622
4.98832e-06
7.49689e-06
8.90957e-06
1.17385e-05
1.68904e-05
2.20363e-05
5.27439e-05
7.17746e-05
0.000573635
0.0567576
0.0102846
3.91713e-06
-8.20582e-07
4.60376e-08
5.79156e-08
8.05061e-08
1.75958e-07
7.77934e-07
4.53508e-05
0.000159946
0.000159755
0.0001595
7.15239e-05
3.98248e-06
4.98832e-06
6.7917e-06
3.29753e-05
5.03452e-05
3.12627e-05
5.44517e-05
7.28817e-05
0.000573873
0.0458644
0.0123419
5.93914e-06
2.0936e-08
3.77868e-08
4.51817e-08
5.82784e-08
1.37238e-07
5.6748e-06
0.00012987
0.000159979
0.000160095
0.000160315
7.10081e-06
3.58349e-06
3.72898e-06
4.22601e-05
7.29583e-05
7.24277e-05
7.29425e-05
7.29134e-05
7.29108e-05
0.000576115
0.0316552
0.0207616
0.000125744
-3.00791e-07
3.52961e-08
3.939e-08
5.05005e-08
2.1376e-07
5.37423e-06
0.000117181
0.000160095
0.000160211
0.000109608
4.45828e-06
1.85855e-06
2.06559e-05
7.11322e-05
7.2365e-05
7.29475e-05
7.27145e-05
7.28046e-05
7.28817e-05
0.000589866
0.0195455
0.0207231
0.00025257
-1.80372e-07
3.66553e-08
3.77593e-08
6.25299e-08
4.7138e-07
3.81026e-06
6.63011e-05
0.000160101
0.000160211
5.21174e-05
1.84696e-06
1.26057e-06
3.76069e-05
6.86179e-05
7.15204e-05
7.27311e-05
7.27146e-05
7.29591e-05
7.28241e-05
0.0006535
0.00554831
0.0202729
-2.77725e-06
2.01855e-08
3.72874e-08
3.75321e-08
6.13567e-08
2.89057e-07
2.44713e-07
0.000119133
0.000159053
0.000160157
7.39183e-05
1.23491e-06
6.24871e-07
1.60704e-05
4.19217e-05
6.11452e-05
7.39697e-05
7.26632e-05
7.19596e-05
2.56086e-05
0.00075149
0.000371408
0.00390636
-1.14682e-06
-7.79764e-09
3.74756e-08
3.75271e-08
3.7499e-08
3.94116e-08
9.27444e-08
0.000113838
0.000156723
0.000159449
5.71153e-05
4.21537e-07
1.70322e-07
7.11067e-09
7.75991e-13
5.59828e-06
2.75248e-05
3.83172e-05
9.92086e-06
1.88598e-08
0.0105751
4.8296e-05
-2.86446e-06
-1.56967e-06
2.8431e-08
3.75093e-08
3.75532e-08
3.76575e-08
3.91962e-08
5.56609e-08
3.09976e-05
5.94942e-05
2.89865e-05
1.14415e-05
5.89296e-07
1.87383e-09
1.15151e-11
4.17879e-12
6.32079e-12
6.09358e-12
6.09358e-12
6.09358e-12
6.54252e-12
0.0358158
1.87774e-05
-6.18598e-07
-3.12205e-07
3.22317e-08
3.75531e-08
3.75793e-08
3.76496e-08
3.80847e-08
1.14554e-07
2.02288e-07
4.97927e-06
9.41129e-06
4.85042e-07
5.50717e-08
9.22509e-10
1.84758e-11
4.50326e-12
6.32571e-12
6.24505e-12
6.36946e-12
6.84798e-12
8.86777e-12
0.144606
1.90491e-05
-4.61656e-07
-7.1748e-08
3.69323e-08
3.75796e-08
3.76452e-08
3.77105e-08
3.78666e-08
3.9192e-08
8.97481e-08
7.49654e-06
1.02703e-05
3.33213e-06
3.96988e-08
2.53549e-09
-6.00159e-10
1.73576e-11
6.99231e-12
6.60793e-12
6.48315e-12
6.60164e-12
8.57529e-12
0.258281
0.000289262
-4.00033e-07
3.33746e-08
3.74813e-08
3.76003e-08
4.64256e-08
7.75344e-08
4.02238e-08
4.19022e-08
5.43177e-08
9.60286e-06
1.68475e-05
8.6286e-06
5.32108e-08
3.32975e-09
5.67369e-11
9.71742e-12
8.74052e-12
7.49976e-12
6.7063e-12
5.51358e-12
6.19302e-12
0.258411
0.0046655
2.0353e-07
-8.83048e-08
3.62943e-08
3.76604e-08
7.6625e-08
9.19094e-08
4.74556e-08
4.64646e-08
7.71405e-07
1.72598e-05
1.73667e-05
4.64622e-06
3.04143e-08
2.14786e-09
9.88948e-11
1.1915e-11
9.05034e-12
8.17044e-12
7.08481e-12
4.42822e-12
3.95776e-12
0.258411
0.0114612
5.68637e-06
-9.28163e-07
4.26305e-08
4.05199e-08
5.91852e-08
9.07654e-08
4.93771e-08
5.0454e-08
1.56947e-05
1.79059e-05
1.08814e-05
2.14824e-07
8.87689e-09
6.23668e-10
4.57754e-11
1.11532e-11
9.28608e-12
8.29584e-12
6.83728e-12
3.31531e-12
2.38173e-12
0.218379
0.0274288
1.89461e-06
1.65158e-07
1.53751e-08
4.99641e-08
5.51277e-08
5.33633e-08
5.07674e-08
1.28679e-05
1.74021e-05
1.58282e-05
1.15584e-06
2.23283e-08
2.3374e-09
1.83323e-10
2.58292e-11
1.06692e-11
8.88367e-12
7.20109e-12
5.03836e-12
2.07136e-12
1.08707e-12
0.0144793
0.0312118
8.8812e-05
5.43623e-08
7.91739e-08
4.5194e-08
5.59628e-08
5.42814e-08
5.26914e-08
4.74766e-06
1.02343e-05
5.85062e-06
2.28824e-07
9.39084e-09
8.85072e-10
1.54122e-10
4.39931e-11
1.17226e-11
8.30442e-12
5.11005e-12
2.23457e-12
1.00203e-12
3.27221e-13
0.000892879
0.0311987
0.00813752
1.23021e-05
1.17797e-07
3.35578e-08
5.74656e-08
5.58336e-08
5.42814e-08
5.57371e-08
5.35305e-06
5.01476e-06
4.69947e-07
9.37088e-09
1.06054e-09
1.85904e-10
4.3166e-11
1.0302e-11
7.07267e-12
2.99969e-12
1.19212e-12
3.74938e-13
8.50346e-14
0.00082672
0.0276245
0.0270641
0.00377841
1.0197e-05
5.12986e-07
7.40713e-08
5.74666e-08
5.56474e-08
2.15178e-05
3.97456e-05
5.42128e-06
1.02357e-07
1.30214e-08
1.68752e-09
2.23859e-10
3.02123e-11
7.97209e-12
5.66603e-12
1.92148e-12
5.38066e-13
1.22645e-13
2.15736e-14
3.31385e-05
0.00204417
0.0193723
0.0193448
0.0052505
1.09233e-05
5.14615e-07
0.000644798
0.00142298
0.000751646
1.76894e-05
1.6537e-06
2.18477e-07
2.49026e-08
2.51952e-09
2.72054e-10
2.81294e-11
6.28855e-12
3.14603e-12
1.0469e-12
2.03894e-13
3.42789e-14
4.89779e-15
1.25686e-07
4.46465e-07
0.00365534
0.0157475
0.0151798
0.00885397
0.00656354
0.00946133
0.00793184
0.000944097
2.24516e-05
3.03146e-06
3.52317e-07
3.50494e-08
2.97761e-09
2.28479e-10
2.22314e-11
4.26386e-12
1.95698e-12
4.59334e-13
6.18757e-14
7.86619e-15
1.03615e-15
7.21006e-08
1.25324e-07
9.45672e-06
0.00338249
0.0111533
0.0109746
0.0103399
0.0101125
0.00628884
0.000269692
1.15019e-05
1.38302e-06
1.43284e-07
1.27506e-08
9.71107e-10
7.5887e-11
7.11528e-12
1.82903e-12
1.00052e-12
1.12743e-13
1.23633e-14
1.34792e-15
2.3837e-16
1.60912e-08
4.44606e-08
1.95454e-06
4.67545e-05
0.00148972
0.00623678
0.00825503
0.00531886
0.00103619
4.9779e-05
2.79705e-06
2.92165e-07
2.60278e-08
2.00143e-09
1.34885e-10
1.20052e-11
2.69583e-12
1.43908e-12
1.70951e-13
1.65246e-14
1.64266e-15
1.86963e-16
7.92841e-17
2.91262e-09
1.03212e-08
6.64364e-07
8.67406e-06
5.05791e-05
0.000285485
0.00046936
0.000135183
2.00551e-05
8.61236e-06
6.72485e-07
4.26653e-08
3.20957e-09
2.11053e-10
1.67552e-11
3.02177e-12
1.83894e-12
2.11102e-13
1.81647e-14
1.61071e-15
1.58772e-16
3.14814e-17
3.53537e-17
1.69197e-09
3.84386e-09
1.12124e-07
1.58703e-06
7.30367e-06
2.35083e-05
2.91371e-05
1.17204e-05
2.90642e-06
5.0508e-07
7.50028e-08
5.35914e-09
3.43198e-10
2.32823e-11
3.21806e-12
1.56641e-12
2.11932e-13
1.48026e-14
1.07531e-15
9.37116e-17
1.32435e-17
9.92444e-18
1.61518e-17
1.6915e-09
1.69258e-09
1.22961e-08
1.41678e-07
1.24098e-06
7.44822e-06
1.17465e-05
2.91295e-06
5.0955e-07
6.53659e-08
6.20896e-09
4.41429e-10
3.02791e-11
3.65071e-12
1.97551e-12
1.23155e-13
4.69665e-15
2.04217e-16
1.53309e-17
2.35815e-18
2.04086e-18
3.48674e-18
5.56654e-18
0.994292
0.994292
0.994292
0.994292
0.866312
0.841173
0.670822
0.536515
0.0900799
0.0763676
0.0286943
0.0107538
0.00375323
0.00262757
0.00123109
0.000926011
0.00240519
0.00135657
0.00100154
0.000854961
0.0374182
0.00731545
0.00134504
0.000935394
0.248479
0.187972
0.0873649
0.0404289
0.249258
0.249258
0.249258
0.247933
0.187067
0.238941
0.247291
0.236612
-2.28104e-07
9.07744e-07
2.26144e-06
0.0517043
1.7265e-10
-1.95799e-08
-7.85755e-07
-4.22567e-06
7.25484e-11
7.40848e-11
6.82658e-11
4.87458e-11
1.01349e-10
6.54087e-11
5.35574e-11
4.70947e-11
7.95525e-10
1.68111e-10
1.47224e-10
1.63994e-10
5.88519e-09
7.64512e-10
1.51152e-10
9.81061e-11
4.19418e-08
5.85583e-09
1.24271e-09
2.41078e-10
2.90158e-07
5.94805e-08
1.75237e-08
1.15842e-09
1.97973e-05
1.52701e-06
2.01091e-08
6.2616e-10
6.89359e-05
1.62372e-05
8.30233e-08
1.63887e-09
7.28891e-05
4.5733e-05
5.37261e-07
1.23421e-09
7.28817e-05
5.0691e-05
9.09941e-07
-5.3878e-12
7.28824e-05
2.32522e-05
7.33042e-11
7.54667e-12
3.38329e-05
3.20364e-10
7.08993e-12
9.5647e-12
8.9741e-12
1.02912e-11
1.09943e-11
1.15728e-11
9.00378e-12
9.48133e-12
1.6618e-11
1.70009e-11
1.00341e-11
1.45896e-11
1.84085e-11
1.97512e-11
1.33357e-11
1.58758e-11
1.17182e-11
9.07218e-12
1.23216e-11
1.22813e-11
9.73852e-12
6.14307e-12
7.65693e-12
7.28731e-12
5.43836e-12
3.24161e-12
3.51551e-12
2.64425e-12
1.72227e-12
9.38167e-13
1.71797e-12
1.08893e-12
5.85092e-13
2.74146e-13
5.85027e-13
2.92995e-13
1.32983e-13
6.34499e-14
1.42824e-13
5.96436e-14
2.52624e-14
1.65494e-14
2.79263e-14
1.06794e-14
5.42325e-15
6.13805e-15
5.8694e-15
2.38382e-15
1.89507e-15
2.89603e-15
1.37777e-15
8.56907e-16
9.61325e-16
1.48497e-15
4.25799e-16
4.16264e-16
5.4967e-16
8.4411e-16
1.81457e-16
2.2339e-16
3.21401e-16
5.50493e-16
8.98555e-17
1.20187e-16
1.9011e-16
3.64667e-16
4.45286e-17
6.33655e-17
1.12692e-16
2.33679e-16
2.03415e-17
3.15136e-17
6.18026e-17
1.28833e-16
6.75291e-18
1.14003e-17
2.2886e-17
4.43727e-17
0.983774
0.992648
0.985154
0.97938
0.675043
0.385125
0.160256
0.0408205
0.0312441
0.0316184
0.0316369
0.028067
0.0166241
0.00999048
0.0346821
0.0148211
0.0179515
0.196753
0.20645
0.485399
0.842741
0.945826
0.952351
0.755704
0.0433814
0.0347437
0.0324764
0.0315615
0.0979062
0.139314
0.130614
0.0181354
0.00820112
0.00890016
0.00972323
0.0326908
0.170258
0.206349
0.014901
0.316874
0.880539
0.952088
0.861106
0.168276
0.0324724
0.0320781
0.0320932
0.0724125
0.139367
0.136263
0.00858107
0.00829325
0.0216636
0.0435267
0.197856
0.205755
0.206033
0.00086323
0.000863318
0.23314
0.863993
0.863144
0.703514
0.215891
0.0324768
0.0476846
0.0828962
0.0795096
0.0239454
0.0155745
0.0555851
0.176936
0.197083
0.203573
0.205754
0.205755
0.000843087
0.000826524
0.000825574
0.124247
0.35438
0.233675
0.261425
0.0889029
0.0330048
0.0528012
0.0997904
0.120966
0.116943
0.179344
0.185584
0.191943
0.108084
0.0903505
0.203322
0.000825965
0.000803259
0.000761784
0.00075775
0.000757912
0.000757733
0.116969
0.0829287
0.0135395
0.0063778
0.0537622
0.01015
0.0065145
0.0852449
0.179344
0.115141
0.00336115
0.0196503
0.204706
0.00178456
0.000776147
0.000761475
0.000758066
0.000757734
0.000961055
0.00779094
0.019383
0.00581002
0.00498866
0.00498851
0.00502484
0.00510519
0.0224826
0.0300494
0.00374728
0.000362022
0.00619763
0.204731
0.124349
0.0195791
0.000818824
0.000761475
0.000758066
0.11459
0.0276857
0.00557614
0.00498839
0.0049854
0.00500231
0.00500231
0.037331
0.0380007
0.00282061
0.000362022
0.000197479
0.0060761
0.204731
0.223288
0.217381
0.0893223
0.0716729
0.0912719
0.194692
0.0506339
0.00501334
0.00507754
0.00498482
0.00617243
0.0601162
0.082496
0.0685763
0.00646711
0.000197479
0.000126813
0.00298265
0.0775212
0.106815
0.160051
0.187029
0.18863
0.191661
0.194692
0.130806
0.0703703
0.0463569
0.101259
0.102779
0.102779
0.0845312
0.011714
0.000541352
0.000156525
0.000111761
0.00022805
0.00162618
-1.29316e-09
-6.19622e-09
0.0584338
0.085082
0.0943144
0.0753067
0.13251
0.137564
0.137564
0.13643
0.0795695
0.00289401
1.47263e-05
2.85748e-05
4.64567e-05
5.87661e-05
6.66683e-05
7.01581e-05
0.0736465
4.2139e-11
4.42594e-12
-1.01389e-09
3.19643e-10
1.51269e-09
4.73236e-09
0.000519086
0.0173931
0.000455723
6.4952e-07
2.83373e-06
6.68112e-06
8.80038e-06
1.15166e-05
3.67654e-05
4.65083e-05
5.67921e-05
0.00747402
0.100436
4.19623e-11
4.19279e-11
4.17405e-11
6.16967e-11
3.1559e-10
1.4935e-09
4.4226e-09
1.23017e-09
1.597e-09
4.72524e-07
3.80016e-06
2.49602e-07
5.85594e-07
2.00367e-06
8.03101e-06
3.31565e-05
0.000741147
0.0588626
0.100436
1.56455e-10
1.34971e-10
5.08046e-11
3.25853e-09
1.98933e-08
2.50089e-08
7.22854e-09
1.896e-09
8.15328e-10
8.63887e-09
7.67248e-08
9.80369e-09
4.2705e-08
3.28853e-07
2.96582e-06
2.95105e-05
0.00198171
0.0325833
0.0640931
8.49217e-11
7.35889e-11
1.49818e-11
3.67378e-09
2.1586e-08
2.54553e-08
2.54556e-08
1.04405e-08
8.15229e-10
8.15882e-10
1.23921e-09
1.44447e-09
4.7631e-09
4.2646e-08
4.55254e-07
4.82675e-05
0.000481807
0.000637321
0.00101442
3.28968e-11
2.07284e-11
1.56161e-11
1.69741e-11
3.13218e-10
8.81999e-09
6.70398e-09
7.50667e-10
1.09824e-09
8.46555e-10
1.15174e-09
1.12515e-09
1.37102e-09
4.8252e-09
5.99568e-08
1.54051e-06
6.26572e-06
9.30317e-05
0.000141452
1.29792e-10
1.26745e-11
1.45702e-11
2.09876e-11
2.13522e-11
2.236e-11
2.63684e-11
6.88238e-11
2.01174e-10
6.53138e-10
1.09631e-09
1.12462e-09
1.12506e-09
1.37111e-09
5.46434e-09
6.99228e-08
2.43858e-05
0.00016728
0.000170084
2.34074e-10
1.05623e-11
1.18033e-11
2.30123e-11
4.06493e-11
7.77807e-11
4.30577e-10
1.96177e-09
4.48253e-10
1.18313e-09
1.12695e-09
4.28926e-09
2.65425e-09
2.65246e-09
3.58637e-09
3.05101e-08
4.03572e-05
0.000126601
2.92977e-05
9.41564e-12
9.19618e-12
8.93121e-12
1.68813e-11
3.21186e-11
6.11099e-11
9.5348e-11
6.0492e-09
1.03148e-07
6.55548e-07
1.77528e-07
1.85117e-08
5.79217e-09
3.82413e-09
4.35372e-09
1.61579e-06
2.05689e-05
8.82482e-06
8.82763e-06
6.89749e-12
7.69681e-12
7.9554e-12
1.31811e-11
2.15024e-11
3.11812e-11
1.98583e-10
3.20499e-09
1.65066e-06
9.79862e-06
1.15694e-06
1.11365e-08
2.51832e-09
2.40499e-09
3.67233e-09
5.91544e-06
6.87714e-05
3.66706e-06
1.83742e-05
5.94471e-12
7.68032e-12
7.98863e-12
9.7325e-12
1.26064e-11
5.2243e-11
9.20844e-10
4.84279e-07
7.81763e-06
1.10703e-05
1.5437e-06
1.42354e-09
1.42726e-09
1.47633e-09
4.64833e-09
1.47795e-05
7.2956e-05
3.75963e-06
7.00766e-05
6.81963e-12
7.64763e-12
8.11375e-12
8.8732e-12
1.69296e-11
1.53971e-10
3.37273e-09
3.80175e-06
1.16665e-05
1.10881e-05
1.42764e-09
1.42698e-09
1.42605e-09
1.89493e-09
1.67429e-08
2.96476e-05
7.29173e-05
1.8197e-06
7.00766e-05
1.08436e-11
7.3612e-12
7.73375e-12
8.72832e-12
1.97692e-11
1.71262e-10
4.91623e-09
5.416e-06
1.16746e-05
9.54166e-06
1.79661e-09
1.42717e-09
1.79635e-09
8.47452e-09
3.64052e-06
2.79819e-05
1.30597e-05
1.15442e-07
6.99846e-05
1.14103e-11
6.72528e-12
6.54766e-12
7.13322e-12
1.35726e-11
1.27337e-10
2.60476e-09
2.71796e-06
1.1625e-05
1.10357e-05
1.43502e-07
1.33268e-07
5.37907e-06
1.67081e-05
2.21727e-05
1.25187e-05
8.17897e-08
8.18284e-08
6.97291e-05
1.57372e-11
5.79387e-12
4.27108e-12
5.94229e-12
7.37356e-12
1.61696e-11
1.90596e-10
1.22787e-08
3.62423e-06
6.99657e-06
1.00012e-05
2.07147e-05
2.3009e-05
2.27321e-05
2.24363e-05
1.49168e-06
9.35274e-07
8.17897e-08
6.94352e-05
2.03408e-11
4.76169e-12
3.00333e-12
4.62863e-12
6.28203e-12
1.24261e-11
5.39566e-11
1.15282e-09
7.81158e-07
4.67481e-06
1.27263e-05
2.30506e-05
2.30705e-05
2.08136e-05
1.05026e-05
1.05776e-05
1.01015e-05
8.93769e-08
5.97112e-05
6.20632e-12
3.37554e-12
2.19758e-12
4.07698e-12
1.20397e-11
3.51836e-11
4.17861e-11
9.46768e-11
1.53668e-09
1.4379e-06
9.29115e-06
1.27941e-05
1.52393e-05
1.34687e-05
1.10645e-05
1.47829e-05
1.21609e-05
4.42161e-07
5.4985e-06
3.77997e-12
1.62742e-12
1.45779e-12
2.98051e-12
7.92502e-12
3.66083e-11
9.91212e-11
8.04143e-11
8.79179e-11
3.35638e-07
7.64031e-06
1.11272e-05
9.32466e-06
9.66984e-06
1.47322e-05
1.47829e-05
1.48706e-06
1.16081e-08
1.16075e-08
1.68151e-12
7.72237e-13
9.74151e-13
2.02607e-12
5.13158e-12
1.67282e-11
4.23667e-11
7.88109e-11
7.74629e-11
4.23575e-11
1.32787e-11
5.35269e-06
5.46484e-06
1.33481e-05
1.33656e-05
3.6212e-06
1.37588e-08
1.16162e-08
1.16075e-08
4.57578e-13
3.50284e-13
6.5988e-13
1.36654e-12
3.06848e-12
9.32966e-12
2.24616e-11
8.06398e-11
2.76873e-10
4.96381e-11
1.31693e-11
1.26897e-11
1.26897e-11
2.00463e-06
1.68714e-11
3.39764e-11
5.33669e-08
1.2511e-07
1.55396e-08
1.38316e-13
2.00783e-13
4.50979e-13
9.14898e-13
1.9194e-12
5.49358e-12
1.43329e-11
3.6134e-11
1.55191e-10
1.59989e-10
6.99227e-11
3.55234e-11
2.21461e-11
1.68338e-11
1.68337e-11
2.22133e-11
2.17608e-07
2.17608e-07
2.25949e-08
5.3111e-14
1.28362e-13
3.01333e-13
5.92179e-13
1.18134e-12
3.19798e-12
7.58135e-12
1.29833e-11
2.3717e-11
4.5465e-11
5.9909e-11
5.97211e-11
1.07714e-10
1.06211e-10
6.97938e-11
8.38897e-10
2.17526e-07
2.11622e-07
1.29192e-08
2.85965e-14
8.41801e-14
1.95084e-13
3.65931e-13
6.92316e-13
1.78422e-12
3.9828e-12
6.22043e-12
7.9158e-12
2.01801e-11
2.49673e-11
4.66713e-11
1.16946e-10
1.41116e-10
7.96271e-11
1.2453e-09
1.15321e-07
2.71004e-08
1.28737e-09
1.78832e-14
5.49664e-14
1.21675e-13
2.12789e-13
3.73273e-13
8.94316e-13
1.80739e-12
2.77212e-12
3.97741e-12
1.05297e-11
1.286e-11
1.83541e-11
3.94565e-11
9.19378e-11
4.64083e-11
1.35616e-12
4.4838e-14
4.51038e-14
5.43792e-11
1.17209e-14
3.53085e-14
7.22493e-14
1.14399e-13
1.80992e-13
4.04466e-13
7.25231e-13
1.08275e-12
1.63449e-12
4.02048e-12
5.03206e-12
6.31288e-12
1.15788e-11
2.32561e-11
1.09646e-11
1.0242e-12
1.05296e-13
4.32944e-12
5.50615e-11
7.78157e-15
2.18952e-14
4.00099e-14
5.56115e-14
7.68596e-14
1.71563e-13
2.86202e-13
4.2065e-13
6.38164e-13
1.49785e-12
1.76614e-12
1.76149e-12
2.70457e-12
3.63736e-12
2.17316e-12
2.71664e-13
1.27092e-13
6.40691e-12
2.29695e-11
5.06801e-15
1.27293e-14
2.01058e-14
2.3843e-14
2.75234e-14
6.46661e-14
1.01442e-13
1.42033e-13
1.99245e-13
4.10591e-13
4.22205e-13
2.90705e-13
3.44329e-13
2.96635e-13
1.62915e-13
2.16793e-14
8.97499e-14
6.80904e-12
4.64166e-12
3.12532e-15
6.70007e-15
8.89114e-15
8.77675e-15
8.13054e-15
1.98236e-14
2.7602e-14
3.4154e-14
4.01409e-14
5.45575e-14
4.34421e-14
1.42497e-14
-5.02818e-15
-1.09946e-14
-8.98415e-15
-2.78439e-15
4.20181e-14
4.1557e-12
6.0162e-13
1.76724e-15
3.07322e-15
3.34122e-15
2.6766e-15
1.92664e-15
4.71461e-15
5.40512e-15
4.79368e-15
3.5003e-15
1.45104e-15
2.2747e-16
-6.406e-16
-1.30683e-15
-1.37333e-15
-9.19835e-16
-2.07686e-16
1.40405e-14
1.78191e-12
1.24246e-13
8.66889e-16
1.17278e-15
1.01235e-15
6.36638e-16
3.44534e-16
8.26111e-16
6.99789e-16
1.75681e-16
-1.1852e-16
-1.4697e-16
-8.89449e-17
-4.32357e-17
-1.86017e-17
-7.30893e-18
-2.44262e-18
1.49952e-17
3.50261e-15
5.46755e-13
3.74653e-14
3.35313e-16
3.35789e-16
2.21246e-16
1.03955e-16
4.03296e-17
1.00894e-16
5.36042e-17
-1.58531e-17
-2.8113e-17
-1.54488e-17
-5.56093e-18
-1.67784e-18
-4.68317e-19
-1.26321e-19
-2.78975e-20
1.09787e-18
3.78656e-16
8.54584e-14
5.24224e-15
7.68766e-17
5.35825e-17
2.57063e-17
8.30402e-18
2.09793e-18
7.18095e-18
1.67406e-18
1.04175e-20
-2.68408e-20
-3.62085e-21
-2.60833e-22
-1.2476e-23
-4.59531e-25
-1.61701e-26
-7.78588e-28
-5.46982e-29
-7.53299e-30
-1.05936e-30
-2.80623e-31
)
;

boundaryField
{
    leftWall
    {
        type            zeroGradient;
    }
    rightWall
    {
        type            zeroGradient;
    }
    lowerWall
    {
        type            zeroGradient;
    }
    atmosphere
    {
        type            inletOutlet;
        inletValue      uniform 0;
        value           nonuniform List<scalar> 
46
(
1.6915e-09
1.69258e-09
1.22961e-08
1.41678e-07
1.24098e-06
7.44822e-06
1.17465e-05
2.91295e-06
5.0955e-07
6.53659e-08
6.20896e-09
4.41429e-10
3.02791e-11
3.65071e-12
1.97551e-12
0
0
0
0
0
0
0
0
0
0
0
0
0
0
0
0
0
0
0
0
0
0
0
0
0
0
0
0
0
0
0
)
;
    }
    defaultFaces
    {
        type            empty;
    }
}


// ************************************************************************* //
