/*--------------------------------*- C++ -*----------------------------------*\
| =========                 |                                                 |
| \\      /  F ield         | OpenFOAM: The Open Source CFD Toolbox           |
|  \\    /   O peration     | Version:  2.3.0                                 |
|   \\  /    A nd           | Web:      www.OpenFOAM.org                      |
|    \\/     M anipulation  |                                                 |
\*---------------------------------------------------------------------------*/
FoamFile
{
    version     2.0;
    format      ascii;
    class       volScalarField;
    location    "1.1";
    object      p;
}
// * * * * * * * * * * * * * * * * * * * * * * * * * * * * * * * * * * * * * //

dimensions      [1 -1 -2 0 0 0 0];

internalField   nonuniform List<scalar> 
2268
(
1021.7
1020.44
1020.2
1022.15
1022.74
1024.02
1026.59
1027.37
1025.17
1017.77
1003.64
980.162
948.096
915.739
883.607
851.857
824.485
799.849
776.812
758.972
747.887
743.137
742.153
962.232
960.481
960.091
962.648
963.033
964.658
967.95
969.304
967.586
960.524
946.617
923.291
891.664
858.131
823.917
791.045
763.94
739.006
716.057
698.463
687.57
683.04
682.892
903.024
902.616
902.434
902.682
902.008
904.582
909.442
911.863
910.741
904.186
890.671
868.765
838.528
802.776
765.79
731.259
701.61
675.407
652.999
636.206
626.155
622.353
623.242
843.749
844.698
844.789
842.792
840.1
843.735
851.23
855.363
854.974
848.979
835.873
814.759
785.183
748.213
708.92
670.237
637.113
609.514
587.797
572.215
563.103
560.583
563.242
784.226
786.181
786.133
782.836
778.188
782.585
793.564
799.876
800.436
795.058
782.391
761.691
732.631
694.86
651.961
607.158
570.384
541.215
520.424
506.089
498.282
497.709
502.969
724.382
726.083
725.746
722.401
717.138
722.021
736.65
745.271
747.205
742.55
730.475
710.417
681.746
642.054
592.448
542.924
502.008
471.339
451.801
438.633
432.678
434.353
442.812
663.789
664.05
662.57
661.022
657.33
663.071
679.995
691.77
695.145
691.531
680.262
660.963
632.398
588.365
531.166
478.577
434.561
403.581
386.941
376.208
370.565
375.352
383.313
600.684
595.431
595.228
598.99
598.657
604.919
622.59
637.167
643.074
641.457
631.457
612.953
583.915
534.747
474.463
418.009
369.614
338.266
325.335
315.096
310.381
314.994
323.929
708.584
710.349
661.659
692.466
691.246
568.988
460.167
436.329
449.904
450.013
438.854
442.201
478.032
484.755
453.821
424.206
409.322
415.176
419.694
651.075
651.153
607.169
632.119
620.792
490.036
386.662
370.06
393.789
394.928
371.119
377.512
429.634
437.058
395.727
362.934
354.116
363.238
372.005
597.287
597.806
561.559
567.224
533.258
388.225
298.739
302.578
337.748
338.477
302.742
305.291
365.364
377.739
336.005
312.414
308.176
320.799
326.53
544.582
549.364
520.176
507.719
445.462
288.828
218.271
238.58
280.896
282.516
236.134
232.686
294.035
309.792
271.293
265.264
281.09
295.889
294.43
491.749
504.367
480.02
457.666
366.967
204.384
148.252
179.628
225.377
226.497
175.404
168.194
221.366
233.709
210.52
225.637
256.291
280.209
280.192
438.418
459.581
434.345
414.221
306.672
137.99
88.2541
128.876
168.93
163.594
118.158
104.354
144.204
158.757
168.948
189.853
216.345
255.563
270.219
380.905
410.464
387.325
377.528
273.406
108.232
56.2206
89.0034
113.023
107.581
85.9793
68.0901
88.5665
105.711
128.415
145.375
166.759
220.163
251.679
325.529
360.311
342.506
343.045
265.724
132.838
77.9119
74.8161
76.5789
84.5626
80.1307
69.2571
70.9344
80.212
88.7312
98.2578
121.068
181.866
227.79
499.184
477.71
486.099
500.657
508.137
516.462
533.146
550.251
560.551
563.773
557.075
539.301
512.243
459.176
398.227
336.146
280.955
243.289
224.373
208.146
200.695
211.086
229.375
358.729
324.871
349.742
372.248
386.117
395.227
409.947
427.42
443.944
459.498
469.09
463.53
414.777
328.648
270.427
251.8
203.12
162.945
133.227
111.463
98.6335
108.936
123.833
259.296
248.089
255.184
263.919
266.45
261.164
268.793
285.201
312.57
345.551
358.62
337.543
248.837
158.423
170.691
170.471
148.578
117.646
98.4901
83.6612
77.4332
76.2211
73.1265
220.69
216.942
214.964
200.985
167.368
135.668
122.703
128.273
160.507
197.313
202.288
145.224
48.3572
33.0283
48.5142
77.9647
92.3
90.4936
84.2767
75.8774
73.6407
71.1297
64.1045
206.844
204.79
196.43
137.913
69.8667
44.7529
30.1858
26.3274
46.3999
62.9677
51.4164
14.7784
2.79145
2.57817
2.99362
9.37855
23.8739
43.811
54.13
59.1926
63.0187
65.1707
59.7503
208.927
194.652
141.5
69.5261
37.6291
32.2689
31.8832
28.0625
36.2978
25.4595
6.14102
0.734782
-0.270237
-0.525599
-0.319854
-0.110048
1.37312
10.2956
19.9273
31.9641
42.0817
49.2432
51.1641
226.081
184.308
62.9314
26.92
19.4496
14.2309
9.27195
8.94263
10.4921
5.52389
2.41604
0.516282
-0.257436
-0.543191
-0.568391
-0.358812
-0.201154
-0.236637
1.97248
10.2742
17.7183
27.2627
35.3936
250.493
149.792
29.1462
21.8991
16.081
10.0514
5.78899
4.65473
4.03486
2.32822
1.20603
0.087887
-0.284579
-0.523622
-0.559774
-0.469497
-0.447014
-0.465304
-0.488451
-0.497139
1.97717
9.87608
15.8295
192.506
68.5696
18.4312
19.9927
13.7873
9.07628
4.98859
3.23171
2.22688
1.20586
0.390219
-0.191967
-0.386318
-0.503617
-0.552717
-0.559569
-0.585026
-0.633904
-0.691922
-0.73485
-0.78986
-0.847546
0.846806
88.1449
24.4298
14.0508
15.4571
10.7324
7.07517
3.47463
1.20051
-0.823232
-0.449494
-0.322409
-0.480523
-0.502129
-0.550348
-0.617269
-0.674682
-0.730011
-0.785904
-0.843299
-0.913512
-0.987899
-1.04629
-1.08844
23.5754
0.894143
7.41783
8.73054
5.06247
2.01574
0.0794642
-1.23636
-2.4856
-1.4602
-0.941703
-0.835135
-0.730233
-0.734419
-0.777816
-0.837776
-0.899162
-0.957537
-1.01423
-1.07416
-1.13003
-1.19068
-1.25236
10.9318
-8.84316
1.89551
1.63483
-0.649327
-1.57262
-2.22346
-2.6709
-2.62499
-1.84269
-1.42291
-1.22641
-1.07322
-1.02389
-1.02772
-1.06266
-1.10781
-1.1545
-1.20167
-1.25038
-1.29892
-1.34904
-1.39138
-2.41031
-9.03477
-1.13048
-1.87521
-2.16853
-2.16622
-2.37218
-2.61602
-2.53809
-2.08534
-1.8361
-1.64403
-1.49384
-1.41145
-1.37762
-1.37384
-1.38311
-1.39608
-1.41389
-1.44131
-1.47828
-1.52055
-1.56038
-5.21253
-5.11968
-2.16775
-2.42556
-2.30982
-2.31036
-2.45914
-2.63161
-2.62144
-2.41688
-2.28059
-2.12971
-2.00729
-1.91895
-1.85572
-1.80306
-1.75163
-1.70264
-1.66652
-1.65632
-1.67256
-1.70498
-1.74359
3.96933
-2.57816
-2.15473
-2.42509
-2.38621
-2.4752
-2.63532
-2.79816
-2.86006
-2.82511
-2.78342
-2.71833
-2.65923
-2.58769
-2.48706
-2.35562
-2.20894
-2.07011
-1.96266
-1.90374
-1.89265
-1.91253
-1.94665
9.7789
-1.95694
-2.19482
-2.47657
-2.50091
-2.68626
-2.88519
-3.07476
-3.20341
-3.28981
-3.37222
-3.44608
-3.48284
-3.42617
-3.26108
-3.01217
-2.74095
-2.49594
-2.31343
-2.20397
-2.16246
-2.16176
-2.18324
7.98125
-2.04187
-2.30774
-2.57149
-2.69947
-2.96392
-3.19561
-3.41315
-3.60871
-3.82253
-4.07286
-4.31552
-4.45345
-4.39369
-4.13179
-3.74384
-3.33789
-2.99642
-2.74975
-2.60111
-2.52625
-2.49092
-2.47667
7.63271
-2.79687
-2.56941
-2.85207
-3.03145
-3.32163
-3.55824
-3.79838
-4.06964
-4.43032
-4.86945
-5.28064
-5.4982
-5.39706
-5.00791
-4.48614
-3.97325
-3.56512
-3.29339
-3.13443
-3.03441
-2.94461
-2.85741
-5.77402
-5.37197
-3.23406
-3.3921
-3.50632
-3.75423
-3.96597
-4.22366
-4.57372
-5.07963
-5.69273
-6.24394
-6.47666
-6.30409
-5.793
-5.15906
-4.59766
-4.18168
-3.93582
-3.79933
-3.68251
-3.52348
-3.33265
-5.84768
-5.28527
-4.24949
-4.1035
-4.07456
-4.22617
-4.39539
-4.66184
-5.0759
-5.69339
-6.42935
-7.04448
-7.23497
-6.98479
-6.39366
-5.7041
-5.14866
-4.78471
-4.60459
-4.51197
-4.38393
-4.15103
-3.84515
-6.11923
-5.71668
-5.15728
-4.705
-4.59645
-4.67048
-4.79822
-5.06187
-5.50869
-6.17978
-6.96652
-7.57075
-7.69833
-7.37291
-6.72812
-6.06443
-5.55125
-5.26621
-5.16076
-5.11546
-4.98528
-4.69278
-4.28887
-6.70211
-7.18926
-6.04216
-5.19016
-5.01149
-5.0277
-5.11675
-5.36652
-5.80889
-6.46888
-7.22491
-7.77437
-7.85085
-7.47673
-6.82121
-6.18607
-5.73336
-5.5108
-5.45522
-5.44762
-5.3298
-5.02825
-4.5651
-7.23268
-8.56633
-6.80603
-5.57532
-5.30435
-5.25634
-5.30871
-5.53556
-5.93848
-6.53193
-7.20119
-7.67421
-7.7018
-7.31272
-6.67361
-6.07312
-5.67057
-5.48143
-5.45375
-5.46825
-5.36499
-5.0766
-4.67799
-7.30268
-8.30237
-6.49385
-5.64122
-5.39514
-5.32218
-5.35929
-5.56039
-5.90283
-6.39389
-6.93183
-7.30528
-7.28862
-6.89965
-6.31328
-5.77951
-5.42893
-5.26128
-5.23606
-5.25003
-5.16233
-4.92799
-4.6207
-6.68697
-7.08879
-6.22861
-5.39913
-5.28273
-5.23865
-5.28899
-5.46304
-5.73154
-6.10285
-6.49034
-6.74169
-6.69088
-6.34712
-5.85885
-5.41794
-5.1241
-4.97467
-4.93403
-4.9245
-4.85091
-4.69141
-4.49472
-5.61336
-5.80397
-5.43203
-5.09003
-5.08074
-5.07892
-5.15117
-5.29647
-5.49038
-5.74704
-5.9945
-6.13049
-6.07155
-5.8098
-5.43787
-5.0966
-4.86093
-4.7295
-4.67145
-4.64154
-4.58802
-4.49807
-4.39256
-3.77776
-4.61867
-4.68858
-4.78775
-4.87267
-4.91804
-5.00356
-5.11915
-5.24684
-5.40418
-5.54336
-5.60866
-5.55756
-5.37559
-5.11239
-4.86336
-4.68497
-4.57661
-4.5148
-4.47947
-4.44437
-4.40024
-4.35029
-2.65205
-4.11207
-4.2245
-4.58978
-4.73322
-4.8006
-4.88677
-4.97231
-5.04546
-5.12374
-5.18778
-5.21612
-5.18153
-5.06812
-4.89305
-4.72008
-4.59189
-4.50851
-4.45617
-4.42547
-4.40385
-4.38316
-4.35866
-1.63126
-4.02082
-4.00812
-4.558
-4.67442
-4.74581
-4.81759
-4.8737
-4.90508
-4.92794
-4.94705
-4.95919
-4.94396
-4.87889
-4.76515
-4.64838
-4.55889
-4.49748
-4.45893
-4.4356
-4.42219
-4.41137
-4.39779
3.69297
-4.39073
-4.3301
-4.59625
-4.69827
-4.74313
-4.79293
-4.82428
-4.82776
-4.81964
-4.8184
-4.82585
-4.82318
-4.78301
-4.70687
-4.62784
-4.56573
-4.52193
-4.49371
-4.47814
-4.46977
-4.46401
-4.45667
3.23529
-5.59586
-4.60819
-4.71306
-4.75225
-4.76826
-4.80211
-4.8169
-4.80643
-4.78873
-4.78295
-4.78651
-4.78439
-4.75232
-4.69761
-4.64245
-4.59897
-4.56838
-4.54926
-4.53933
-4.53511
-4.53283
-4.52951
6.07989
-5.52327
-4.46016
-4.79381
-4.78285
-4.79953
-4.83248
-4.8413
-4.8305
-4.81799
-4.81399
-4.81219
-4.79718
-4.76411
-4.72117
-4.68118
-4.65071
-4.63026
-4.61853
-4.61352
-4.61257
-4.61296
-4.61244
-4.90347
-5.8122
-4.24764
-4.69425
-4.77713
-4.82964
-4.87409
-4.88827
-4.88598
-4.8835
-4.87956
-4.86492
-4.83685
-4.80166
-4.76629
-4.73679
-4.71604
-4.70358
-4.69785
-4.69698
-4.69877
-4.70134
-4.70283
-6.00323
-5.94638
-4.40844
-4.70859
-4.8334
-4.88639
-4.93853
-4.95897
-4.96019
-4.96422
-4.95749
-4.92818
-4.88929
-4.85407
-4.82539
-4.80443
-4.79163
-4.78573
-4.78492
-4.78746
-4.7916
-4.79589
-4.79917
-5.71217
-5.09129
-4.36561
-4.88278
-4.93179
-4.98584
-5.04294
-5.05865
-5.04942
-5.05722
-5.03831
-4.99066
-4.94631
-4.91457
-4.89364
-4.88094
-4.87527
-4.875
-4.87832
-4.88369
-4.88979
-4.89556
-4.90016
-5.65498
-5.60778
-4.9923
-5.05562
-5.11076
-5.0684
-5.15025
-5.22751
-5.15805
-5.13796
-5.09552
-5.04451
-5.00369
-4.98011
-4.96903
-4.96493
-4.96591
-4.97052
-4.97727
-4.98496
-4.99262
-4.99954
-5.00512
-5.69587
-5.69993
-5.65634
-5.31658
-5.24517
-5.53044
-5.50965
-5.49253
-5.27857
-5.16185
-5.11454
-5.08515
-5.06231
-5.05329
-5.05296
-5.0568
-5.06349
-5.07204
-5.08144
-5.09084
-5.09962
-5.10731
-5.11356
-5.72783
-5.76913
-5.79501
-5.7157
-5.46249
-5.39168
-5.24509
-5.25496
-5.18158
-5.15279
-5.14143
-5.13772
-5.13612
-5.14023
-5.14795
-5.15758
-5.16835
-5.17962
-5.19073
-5.20114
-5.21048
-5.21852
-5.22506
-5.73446
-5.76255
-5.7988
-5.79564
-5.70801
-5.40362
-5.16212
-5.1495
-5.21377
-5.20866
-5.21717
-5.22452
-5.23321
-5.24356
-5.25531
-5.26794
-5.28079
-5.29333
-5.30505
-5.31565
-5.32495
-5.33285
-5.33928
-5.72434
-5.73757
-5.76199
-5.75664
-5.70256
-5.59085
-5.43743
-5.35329
-5.339
-5.33921
-5.33708
-5.34292
-5.35225
-5.36302
-5.37492
-5.3877
-5.40039
-5.41251
-5.42371
-5.43379
-5.44258
-5.44999
-5.456
-5.71722
-5.72238
-5.72682
-5.7181
-5.67955
-5.6064
-5.53659
-5.50082
-5.49127
-5.48323
-5.48007
-5.48324
-5.48927
-5.49705
-5.50612
-5.51582
-5.52582
-5.53624
-5.54629
-5.55541
-5.56329
-5.56983
-5.57507
-5.72122
-5.7232
-5.72296
-5.71989
-5.71522
-5.71572
-5.70714
-5.67368
-5.65171
-5.64173
-5.63847
-5.6388
-5.64117
-5.6445
-5.64781
-5.65162
-5.65834
-5.66661
-5.67451
-5.68145
-5.68727
-5.69201
-5.69579
228.643
238.381
249.346
264.871
132.495
131.312
118.449
104.094
60.5233
57.3767
57.1616
56.2056
57.4808
55.8259
55.8671
55.7323
56.4704
55.3041
54.9241
54.8195
53.9223
53.6949
53.4017
53.6362
41.3076
43.9864
48.4817
51.8201
23.977
29.867
36.1071
40.8104
9.56428
12.6089
15.1224
19.6447
-1.20171
-1.12651
-0.52252
1.82679
-1.27174
-1.2616
-1.24629
-1.29936
-1.41333
-1.4304
-1.45047
-1.46678
-1.58614
-1.60267
-1.61889
-1.63427
-1.77204
-1.7896
-1.80625
-1.82224
-1.97377
-1.99077
-2.00705
-2.0226
-2.20366
-2.21673
-2.22921
-2.241
-2.47662
-2.47826
-2.48089
-2.48379
-2.80969
-2.78679
-2.76931
-2.75517
-3.20672
-3.14167
-3.09158
-3.05101
-3.63238
-3.51576
-3.42433
-3.35188
-4.01176
-3.85598
-3.72777
-3.62441
-4.271
-4.10274
-3.96203
-3.84884
-4.40089
-4.24322
-4.11079
-4.00279
-4.40783
-4.28641
-4.18203
-4.09454
-4.35851
-4.27917
-4.20919
-4.14734
-4.31797
-4.2725
-4.22932
-4.18848
-4.31156
-4.28603
-4.25987
-4.23365
-4.33695
-4.32191
-4.30574
-4.28889
-4.38501
-4.37591
-4.36575
-4.35486
-4.44928
-4.4438
-4.43744
-4.43042
-4.52554
-4.5224
-4.51854
-4.51409
-4.61081
-4.60926
-4.60711
-4.60444
-4.70293
-4.70254
-4.70162
-4.70023
-4.8005
-4.80096
-4.80094
-4.80048
-4.90248
-4.90358
-4.90422
-4.90446
-5.00817
-5.00975
-5.0109
-5.01165
-5.11708
-5.11899
-5.12049
-5.12161
-5.22882
-5.23089
-5.23258
-5.23393
-5.34303
-5.34512
-5.34688
-5.34831
-5.45951
-5.46149
-5.46318
-5.46457
-5.57808
-5.57978
-5.58122
-5.58242
-5.69801
-5.69926
-5.70034
-5.70125
284.619
283.943
265.557
280.226
249.829
157.382
109.839
77.77
65.5131
71.625
81.7355
80.6129
70.665
66.4917
66.9324
78.4305
100.031
134.606
199.421
98.7806
138.451
148.955
176.608
137.253
122.6
102.509
73.0913
49.9623
44.3715
76.5785
81.0069
69.0267
65.1097
66.2777
74.2599
92.2706
130.001
188.787
55.7833
67.3867
86.7907
118.235
104.874
107.069
90.1428
65.6314
48.9097
40.4924
45.3444
51.8653
60.8337
64.7149
64.2659
69.3293
86.4544
133.324
181.511
55.361
55.3881
64.6466
89.0131
84.7526
91.0404
71.0486
59.7433
53.0385
49.7704
36.929
44.3661
54.1881
58.5707
51.1374
52.7732
65.6104
97.5937
144.864
54.7594
54.3796
53.9506
60.0802
75.1667
69.4433
56.7399
52.7564
39.5141
26.5668
19.8179
21.9729
32.7075
26.8755
23.1622
23.0412
22.7649
30.5802
79.6643
53.9802
53.8246
53.3391
53.2553
53.3378
54.1462
55.0758
39.5879
28.5465
14.6474
-1.24707
2.15332
9.38927
9.48627
5.64128
5.52975
7.95288
11.3119
29.8299
53.4318
53.5286
53.3312
53.1319
52.99
52.5446
45.945
34.8792
24.7077
12.4502
2.86318
3.24305
8.57568
8.95269
2.76281
2.82331
4.60679
6.12128
16.6162
46.9986
52.4591
52.993
52.8571
52.7202
47.7036
31.9434
28.1587
25.9661
20.6671
13.4045
9.04849
7.81585
4.70907
2.11208
2.00144
2.65552
2.91603
13.2688
27.5844
38.9911
46.7751
47.7376
47.075
35.3488
23.0246
26.8561
28.823
27.1978
19.3377
9.79121
4.67158
0.0166376
-0.190082
0.562917
1.21031
0.744505
3.92915
5.35297
9.7989
21.5825
25.9211
27.1261
19.1543
16.597
25.0944
27.7181
21.8044
12.0647
4.93553
2.80956
-2.14896
-1.41749
-0.545107
0.0878859
-0.173373
0.102096
-1.34708
-1.07435
2.10053
3.90399
4.63495
3.37913
6.78197
7.96651
7.63901
7.34311
1.90885
-1.31386
-1.95492
-2.18321
-1.65825
-1.10486
-0.597191
-0.457033
-1.42089
-1.48336
-1.47753
-1.58167
-1.5847
-1.54256
-1.60647
-1.96877
-2.16836
-1.96924
-2.00244
-2.36894
-2.21132
-2.08159
-1.94446
-1.65854
-1.33873
-0.889668
-0.549047
0.412959
-1.65854
-1.6893
-1.74336
-1.76777
-1.79159
-1.88613
-2.09083
-2.33838
-2.21805
-2.18907
-2.17587
-2.11382
-2.088
-1.95476
-1.76361
-1.52283
-1.15651
-1.17704
3.00564
-1.84813
-1.88137
-1.9184
-1.94947
-1.99202
-2.07552
-2.19091
-2.24532
-2.21071
-2.21959
-2.1867
-2.14274
-2.12068
-2.02928
-1.8849
-1.71574
-1.44947
-0.787527
1.82798
-2.04709
-2.07678
-2.1057
-2.13374
-2.16896
-2.2215
-2.28375
-2.31723
-2.31287
-2.3011
-2.27665
-2.2408
-2.20217
-2.13428
-2.04144
-1.9731
-1.97591
-2.08649
-1.77676
-2.25895
-2.27932
-2.29822
-2.31745
-2.3413
-2.37163
-2.39992
-2.41243
-2.4086
-2.3939
-2.36981
-2.34374
-2.31133
-2.26301
-2.2063
-2.18307
-2.19217
-2.12398
-1.99909
-2.48777
-2.49181
-2.49635
-2.50259
-2.51213
-2.52448
-2.53486
-2.53669
-2.52711
-2.50812
-2.48503
-2.46183
-2.43683
-2.40468
-2.3711
-2.36763
-2.38644
-2.32746
-2.23958
-2.73458
-2.71376
-2.6993
-2.68981
-2.68482
-2.68267
-2.6801
-2.67296
-2.65807
-2.63711
-2.61654
-2.59714
-2.57703
-2.55416
-2.53247
-2.53429
-2.55958
-2.52351
-2.46118
-2.9944
-2.94118
-2.90384
-2.87692
-2.85761
-2.84321
-2.8309
-2.81722
-2.79965
-2.78089
-2.76515
-2.74881
-2.72985
-2.70914
-2.69055
-2.6878
-2.70627
-2.68992
-2.64348
-3.25424
-3.16584
-3.1046
-3.06049
-3.02797
-3.00321
-2.9832
-2.96497
-2.94817
-2.93719
-2.92895
-2.91465
-2.89244
-2.86721
-2.84513
-2.8332
-2.83822
-2.83526
-2.8029
-3.49722
-3.37684
-3.29501
-3.23625
-3.19267
-3.15951
-3.13344
-3.11213
-3.0987
-3.09826
-3.09879
-3.08531
-3.0578
-3.02433
-2.99454
-2.97328
-2.9688
-2.97556
-2.95213
-3.69898
-3.56357
-3.46911
-3.40051
-3.34908
-3.30971
-3.2789
-3.2551
-3.24437
-3.25097
-3.2575
-3.24478
-3.21324
-3.1723
-3.13488
-3.10891
-3.10129
-3.11195
-3.09531
-3.85718
-3.72122
-3.6236
-3.55109
-3.4956
-3.45241
-3.41803
-3.39152
-3.37924
-3.38479
-3.39162
-3.37959
-3.34713
-3.30288
-3.26254
-3.24011
-3.23424
-3.24295
-3.23367
-3.9721
-3.85018
-3.75838
-3.68771
-3.63197
-3.58732
-3.55067
-3.521
-3.50239
-3.49826
-3.49862
-3.48596
-3.45639
-3.41633
-3.38207
-3.36893
-3.37043
-3.37353
-3.3699
-4.05611
-3.95644
-3.87646
-3.81197
-3.75912
-3.71524
-3.67789
-3.64562
-3.61938
-3.60128
-3.58919
-3.57415
-3.55217
-3.52794
-3.51066
-3.50433
-3.5072
-3.50631
-3.50479
-4.12498
-4.04843
-3.98263
-3.9267
-3.87888
-3.83767
-3.80141
-3.76871
-3.73875
-3.71182
-3.68974
-3.67255
-3.6617
-3.65402
-3.64895
-3.64485
-3.64166
-3.63885
-3.63829
-4.19075
-4.13396
-4.08186
-4.03511
-3.99343
-3.95619
-3.92251
-3.89156
-3.86257
-3.83509
-3.81146
-3.79695
-3.7892
-3.78677
-3.78357
-3.77901
-3.77416
-3.7706
-3.76943
-4.26008
-4.21859
-4.17824
-4.14017
-4.10484
-4.0722
-4.042
-4.01392
-3.98772
-3.96324
-3.9421
-3.92775
-3.92029
-3.91686
-3.91356
-3.90939
-3.90523
-3.90195
-3.89934
-4.33548
-4.30539
-4.27454
-4.24409
-4.21475
-4.18684
-4.16047
-4.13573
-4.11271
-4.0916
-4.07345
-4.05986
-4.05115
-4.0467
-4.04303
-4.03924
-4.03594
-4.03325
-4.03047
-4.41742
-4.39573
-4.37238
-4.34831
-4.3243
-4.30085
-4.2783
-4.25693
-4.23702
-4.2189
-4.20323
-4.19102
-4.18222
-4.17713
-4.17299
-4.16906
-4.16639
-4.16404
-4.16171
-4.50549
-4.49
-4.47245
-4.45361
-4.43419
-4.41475
-4.39574
-4.37754
-4.36056
-4.3451
-4.33165
-4.32079
-4.31252
-4.3069
-4.30253
-4.29852
-4.29623
-4.29409
-4.29236
-4.59894
-4.58804
-4.57499
-4.56036
-4.54481
-4.52886
-4.51302
-4.4977
-4.48333
-4.47022
-4.45871
-4.44915
-4.44151
-4.43587
-4.43133
-4.42768
-4.4253
-4.4234
-4.42223
-4.69697
-4.68952
-4.67994
-4.66871
-4.65637
-4.64342
-4.63035
-4.61757
-4.60549
-4.59439
-4.58453
-4.57616
-4.56922
-4.56383
-4.55946
-4.55607
-4.55372
-4.55195
-4.55125
-4.79889
-4.79405
-4.78719
-4.77867
-4.76897
-4.75855
-4.74787
-4.73729
-4.72718
-4.71781
-4.70938
-4.70209
-4.6959
-4.69093
-4.68687
-4.68373
-4.68148
-4.67984
-4.6793
-4.90413
-4.90129
-4.89653
-4.89018
-4.88264
-4.87433
-4.86566
-4.85696
-4.84855
-4.84067
-4.8335
-4.82719
-4.82175
-4.81729
-4.8136
-4.81075
-4.80864
-4.80718
-4.80654
-5.01224
-5.01091
-5.00778
-5.00312
-4.99733
-4.99076
-4.98377
-4.97666
-4.96971
-4.96311
-4.95706
-4.95165
-4.94694
-4.94301
-4.93972
-4.93719
-4.93527
-4.934
-4.93324
-5.12284
-5.1226
-5.1207
-5.11736
-5.11295
-5.1078
-5.1022
-5.09643
-5.09072
-5.08525
-5.08018
-5.07561
-5.07158
-5.06819
-5.06533
-5.06311
-5.0614
-5.06031
-5.05955
-5.23558
-5.23605
-5.23503
-5.2327
-5.22939
-5.22538
-5.22093
-5.21629
-5.21165
-5.20717
-5.20299
-5.19918
-5.1958
-5.19293
-5.19049
-5.18859
-5.18712
-5.18617
-5.1855
-5.35016
-5.35106
-5.35063
-5.34905
-5.34657
-5.34347
-5.33998
-5.33628
-5.33256
-5.32895
-5.32555
-5.32244
-5.31968
-5.3173
-5.31528
-5.31369
-5.31245
-5.31166
-5.31107
-5.46642
-5.46752
-5.46743
-5.46633
-5.46447
-5.46208
-5.45934
-5.45643
-5.45349
-5.45063
-5.44793
-5.44546
-5.44325
-5.44135
-5.43973
-5.43844
-5.43743
-5.4368
-5.43626
-5.58404
-5.58508
-5.58511
-5.58431
-5.5829
-5.58105
-5.57893
-5.57669
-5.57443
-5.57224
-5.57019
-5.56831
-5.56664
-5.56519
-5.56397
-5.56298
-5.56219
-5.56169
-5.56119
-5.70248
-5.70327
-5.70326
-5.70261
-5.70151
-5.7001
-5.69853
-5.69689
-5.69527
-5.69373
-5.6923
-5.69101
-5.68987
-5.68889
-5.68807
-5.68739
-5.68684
-5.68648
-5.68591
)
;

boundaryField
{
    leftWall
    {
        type            calculated;
        value           nonuniform List<scalar> 
50
(
1021.7
962.232
903.024
843.749
784.226
724.382
663.789
600.684
499.184
358.729
259.296
220.69
206.844
208.927
226.081
250.493
192.506
88.1449
23.5754
10.9318
-2.41031
-5.21253
3.96933
9.7789
7.98125
7.63271
-5.77402
-5.84768
-6.11923
-6.70211
-7.23268
-7.30268
-6.68697
-5.61336
-3.77776
-2.65205
-1.63126
3.69297
3.23529
6.07989
-4.90347
-6.00323
-5.71217
-5.65498
-5.69587
-5.72783
-5.73446
-5.72434
-5.71722
-5.72122
)
;
    }
    rightWall
    {
        type            calculated;
        value           nonuniform List<scalar> 
50
(
419.694
372.005
326.53
294.43
280.192
270.219
251.679
227.79
199.421
188.787
181.511
144.864
79.6643
29.8299
16.6162
13.2688
3.92915
0.102096
-1.42089
0.412959
3.00564
1.82798
-1.77676
-1.99909
-2.23958
-2.46118
-2.64348
-2.8029
-2.95213
-3.09531
-3.23367
-3.3699
-3.50479
-3.63829
-3.76943
-3.89934
-4.03047
-4.16171
-4.29236
-4.42223
-4.55125
-4.6793
-4.80654
-4.93324
-5.05955
-5.1855
-5.31107
-5.43626
-5.56119
-5.68591
)
;
    }
    lowerWall
    {
        type            calculated;
        value           nonuniform List<scalar> 
62
(
1051.13
1049.87
1049.63
1051.58
1052.17
1053.45
1056.02
1056.8
1054.6
1047.2
1033.07
1009.58
977.398
944.96
912.816
880.734
853.274
828.638
805.601
788.088
777.316
772.566
771.582
742.153
682.892
623.242
563.242
502.969
442.812
383.313
323.929
290.884
300.622
311.586
327.111
708.584
651.075
597.287
544.582
491.749
438.418
380.905
325.529
737.569
739.334
688.531
715.671
714.451
592.264
484.777
465.156
478.97
479.081
467.922
467.082
499.213
508.141
480.006
450.391
435.25
438.992
443.012
)
;
    }
    atmosphere
    {
        type            calculated;
        value           nonuniform List<scalar> 
46
(
-5.72905
-5.72905
-5.72911
-5.72985
-5.73614
-5.77167
-5.79627
-5.74571
-5.73196
-5.72941
-5.72908
-5.72904
-5.72904
-5.72904
-5.72904
-5.72915
-5.73178
-5.7364
-5.74147
-5.74621
-5.75028
-5.75364
-5.75639
-5.75813
-5.75919
-5.76014
-5.76094
-5.76195
-5.76255
-5.76246
-5.76182
-5.76082
-5.7596
-5.75827
-5.75692
-5.75561
-5.75439
-5.75328
-5.75229
-5.75143
-5.7507
-5.75008
-5.74959
-5.74915
-5.74892
-5.74813
)
;
    }
    defaultFaces
    {
        type            empty;
    }
}


// ************************************************************************* //
