/*--------------------------------*- C++ -*----------------------------------*\
| =========                 |                                                 |
| \\      /  F ield         | OpenFOAM: The Open Source CFD Toolbox           |
|  \\    /   O peration     | Version:  2.3.0                                 |
|   \\  /    A nd           | Web:      www.OpenFOAM.org                      |
|    \\/     M anipulation  |                                                 |
\*---------------------------------------------------------------------------*/
FoamFile
{
    version     2.0;
    format      ascii;
    class       volScalarField;
    location    "1.1";
    object      p_rgh;
}
// * * * * * * * * * * * * * * * * * * * * * * * * * * * * * * * * * * * * * //

dimensions      [1 -1 -2 0 0 0 0];

internalField   nonuniform List<scalar> 
2268
(
1051.13
1049.87
1049.63
1051.58
1052.17
1053.45
1056.02
1056.8
1054.6
1047.2
1033.07
1009.58
977.398
944.96
912.816
880.734
853.274
828.638
805.601
788.088
777.316
772.566
771.582
1050.52
1048.77
1048.38
1050.94
1051.32
1052.95
1056.24
1057.59
1055.87
1048.81
1034.9
1011.04
976.67
942.35
909.181
877.261
851.462
826.7
803.544
786.386
775.724
771.328
771.179
1050.17
1049.76
1049.58
1049.83
1049.16
1051.73
1056.59
1059.01
1057.89
1051.33
1037.82
1012.98
978.893
943.141
906.155
874.026
848.757
822.554
800.146
783.353
773.302
769.5
770.388
1049.75
1050.7
1050.79
1048.8
1046.11
1049.74
1057.24
1061.37
1060.98
1054.98
1041.88
1018.78
981.982
944.724
907.857
876.241
843.118
815.519
793.802
778.221
769.108
766.589
769.247
1049.09
1051.05
1051
1047.7
1043.05
1047.44
1058.42
1064.74
1065.3
1059.92
1047.26
1026.27
995.289
956.255
916.795
872.018
835.246
806.078
785.288
770.953
763.146
762.573
767.833
1048.1
1049.81
1049.47
1046.12
1040.86
1045.66
1060.2
1068.99
1070.93
1066.27
1054.2
1034.14
1005.47
965.765
916.152
866.625
825.701
795.021
773.739
755.38
744.608
750.211
765.411
1044.03
1045.76
1045.15
1043.6
1039.91
1045.57
1062.34
1074.23
1077.73
1074.11
1062.84
1043.54
1014.98
970.942
913.363
853.541
797.415
756.046
729.922
708.204
699.532
704.591
759.989
1024.29
1019.13
1033.32
1040.43
1040.1
1046.36
1063.85
1078.37
1084.49
1082.9
1072.9
1054.39
1025.35
973.216
873.066
786.325
735.263
707.766
698.147
691.926
689.594
728.892
762.747
737.569
739.334
688.531
715.671
714.451
592.264
484.777
465.156
478.97
479.081
467.922
467.082
499.213
508.141
480.006
450.391
435.25
438.992
443.012
738.03
735.877
674.928
702.592
700.919
569.151
467.549
456.534
480.976
482.125
458.148
444.379
493.11
500.836
474.283
439.687
419.222
428.199
437.71
742.312
732.016
673.533
706.913
677.379
532.103
442.354
447.832
483.028
483.789
425.513
411.083
471.156
491.051
466.832
435.985
382.696
379.297
429.811
747.774
738.132
676.94
701.027
647.47
490.123
412.498
435.602
484.252
483.249
429.726
388.284
442.16
489.64
454.02
351.909
304.285
318.279
355.614
755.009
732.9
700.038
714.096
626.99
454.194
397.903
434.511
486.599
487.525
429.061
415.212
448.571
461.931
303.933
255.713
285.092
308.056
308.039
760.181
738.908
753.004
732.564
624.906
454.089
404.878
447.421
487.941
468.756
384.289
404.596
441.271
362.967
208.698
228.304
269.804
317.839
305.46
761.169
771.605
764.157
754.177
649.143
484.014
431.906
464.887
436.349
292.33
315.605
383.058
325.393
186.175
180.909
217.613
246.21
299.404
331.132
764.283
798.79
780.704
773.672
629.677
564.981
500.122
334.993
135.532
99.0643
119.095
143.456
118.206
102.036
152.708
171.259
197.677
273.532
319.369
989.385
958.365
971.723
1024.84
1041.6
1049.93
1066.61
1083.65
1093.99
1097.24
1090.54
1072.77
1045.68
972.367
792.03
679.95
627.398
641.634
690.265
715.095
719.423
740.026
759.799
852.501
741.353
869.267
1002.7
1044.74
1053.89
1068.61
1086.08
1102.6
1118.16
1127.75
1122.19
1073.12
947.261
627.692
417.888
327.934
312.312
332.029
321.878
333.903
490.532
664.648
486.989
368.189
662.081
908.479
1049.71
1045.01
1052.65
1069.05
1096.42
1129.41
1142.46
1121.06
1002.63
449.954
242.534
245.802
202.428
139.673
105.667
86.8129
80.1979
79.0757
104.191
289.905
286.158
284.179
421.999
1036.5
1044.71
1031.75
1037.32
1069.56
1106.32
1110.64
1002.14
281.238
44.6941
145.126
286.37
302.379
305.126
191.949
130.183
77.8343
74.4402
68.9967
285.82
283.539
558.486
1127.85
1060.13
1011.37
1015.9
1053.6
1078.59
1055.46
798.036
246.247
7.05415
4.39458
24.0917
161.959
268.065
291.277
302.2
310.34
213.68
125.245
67.9654
305.19
599.983
955.756
885.47
352.871
356.531
713.635
885.956
875.017
438.289
111.308
5.31748
1.44172
0.721164
0.860344
1.11243
13.0833
225.635
301.476
316.286
326.404
335.437
219.372
618.975
916.555
786.977
68.2777
38.1021
34.2522
80.5572
176.196
223.571
113.417
7.54713
2.43423
1.13577
0.776262
0.741071
0.936064
1.08681
1.05644
47.7821
266.987
334.815
346.433
354.564
785.276
934.984
352.388
42.3694
34.7215
28.8474
26.2543
29.1494
23.2961
9.71514
17.91
1.70142
1.16493
0.920629
0.884748
0.949019
0.962433
0.944701
0.91823
0.930086
63.0184
284.986
367.202
1030.04
499.211
132.292
46.3071
34.0832
29.3723
26.5327
29.6925
26.6436
4.86612
5.12014
3.15334
1.20748
1.10262
1.05415
0.992374
0.950012
0.901114
0.842809
0.80016
0.738711
0.680965
41.5152
1247.87
321.766
81.4208
89.4023
60.667
67.9106
65.181
62.8657
45.7958
1.89463
1.46601
1.60909
1.23975
1.18864
1.11209
0.988209
0.930224
0.87433
0.816937
0.746725
0.672316
0.613932
0.571184
1270.76
211.826
76.1524
93.4467
89.6667
72.1667
59.1723
48.2709
20.0237
0.429236
0.871039
0.956905
1.08397
1.07972
1.00761
0.947654
0.886268
0.827894
0.7712
0.711266
0.655398
0.594745
0.533053
1341.71
168.813
64.544
92.1716
43.5772
13.6183
4.84398
1.45647
-0.59306
0.0993011
0.492753
0.685114
0.837522
0.886739
0.882909
0.847966
0.802825
0.756142
0.708985
0.660269
0.611693
0.561567
0.51923
748.33
201.104
39.7134
29.6282
0.316528
-0.0315604
-0.268552
-0.507524
-0.479069
-0.0453539
0.20041
0.391948
0.542044
0.624411
0.658209
0.662011
0.652797
0.639891
0.622174
0.594693
0.557586
0.515258
0.475423
443.598
210.899
3.29986
-0.0602184
-0.116885
-0.12964
-0.278371
-0.453103
-0.455505
-0.254861
-0.119332
0.0314818
0.153848
0.242151
0.305533
0.358215
0.40996
0.459404
0.4988
0.507364
0.488882
0.45609
0.417419
1121.84
164.968
0.347957
-0.104852
-0.0936019
-0.184269
-0.34316
-0.507346
-0.572456
-0.538368
-0.49678
-0.431838
-0.372885
-0.300314
-0.195309
-0.0629162
0.0865677
0.255192
0.406562
0.454111
0.408916
0.374162
0.339623
1193.68
113.93
0.253523
-0.0589599
-0.0875259
-0.273401
-0.471983
-0.66159
-0.790897
-0.877526
-0.960262
-1.03431
-1.07079
-0.95281
-0.640733
-0.359183
-0.154204
0.059724
0.234082
0.333227
0.357036
0.276026
0.22868
1253.35
102.629
0.233071
-0.0334055
-0.162033
-0.426789
-0.658374
-0.875504
-1.07053
-1.28475
-1.53529
-1.77664
-1.84579
-1.47213
-1.20582
-0.818105
-0.545134
-0.376573
-0.0985093
0.0657504
0.141663
0.177464
0.0841838
578.787
155.89
0.187279
-0.194094
-0.369101
-0.659588
-0.896116
-1.13587
-1.40677
-1.76691
-2.20405
-2.49436
-2.4126
-2.31483
-1.92803
-1.61207
-1.28774
-0.873585
-0.596462
-0.42778
-0.279856
-0.133388
-0.0471294
-1.38995
159.463
13.6657
-0.603811
-0.719041
-0.967097
-1.17877
-1.4363
-1.78616
-2.2907
-2.84636
-3.00967
-3.24454
-3.07536
-2.57275
-2.3582
-1.78982
-1.36991
-1.11617
-0.965333
-0.834191
-0.589658
-0.345851
-1.26667
162.749
28.5832
-1.17994
-1.16479
-1.31387
-1.48306
-1.74945
-2.16322
-2.77896
-3.38525
-3.66699
-3.85804
-3.6086
-3.27341
-2.78035
-2.22198
-1.85279
-1.59649
-1.45334
-1.38082
-1.08046
-0.720957
-1.34055
136.488
35.3292
-1.64962
-1.55903
-1.63301
-1.76073
-2.02433
-2.47091
-3.1252
-3.5351
-4.04797
-4.17519
-3.84911
-3.66921
-3.0162
-2.50257
-2.10062
-1.90202
-1.85834
-1.7266
-1.43418
-1.03028
-1.71939
95.9844
62.7144
-1.63033
-1.84989
-1.86503
-1.95407
-2.20381
-2.64566
-3.28935
-3.69214
-4.10601
-4.18212
-3.96788
-3.64457
-3.01765
-2.50555
-2.12351
-2.06404
-2.0546
-1.93751
-1.63568
-1.17228
-2.00754
58.9177
64.5458
-1.45802
-2.01719
-1.96847
-2.02084
-2.2476
-2.64919
-3.23167
-3.69568
-3.86061
-3.88785
-3.85379
-3.37979
-2.78123
-2.25931
-1.96831
-1.9311
-1.94162
-1.83842
-1.54922
-1.15106
-1.66161
14.0277
66.0401
-2.23774
-1.98213
-1.90911
-1.94622
-2.14724
-2.4889
-2.98012
-3.1127
-3.35004
-3.32962
-3.23468
-2.89613
-2.36444
-1.9612
-1.7054
-1.61464
-1.58488
-1.50164
-1.2697
-1.12045
-0.492621
-2.23787
11.117
-1.86505
-1.74462
-1.70039
-1.75072
-1.92477
-2.19326
-2.56438
-2.54984
-2.6496
-2.58915
-2.6071
-2.31922
-1.8792
-1.58594
-1.43653
-1.3761
-1.28907
-1.17734
-1.11821
-0.956522
36.7514
-1.96389
-1.77918
-1.43244
-1.41731
-1.41545
-1.4877
-1.633
-1.8269
-2.08351
-2.21772
-2.24943
-2.30214
-2.1046
-1.77238
-1.43326
-1.1976
-1.06617
-1.00811
-0.978211
-0.924695
-0.834737
-0.729225
135.564
-0.759079
-0.902398
-1.0004
-1.08402
-1.12937
-1.21489
-1.33048
-1.45817
-1.61522
-1.75407
-1.80129
-1.73342
-1.58523
-1.32365
-1.07483
-0.896447
-0.788083
-0.726279
-0.690941
-0.655841
-0.611714
-0.56176
566.644
-0.123871
-0.312587
-0.676338
-0.819358
-0.886734
-0.9729
-1.05844
-1.13159
-1.20987
-1.27371
-1.27309
-1.22766
-1.14137
-0.979176
-0.806354
-0.678177
-0.594787
-0.542448
-0.511751
-0.490128
-0.469443
-0.444946
1044.54
1.18523
0.0291763
-0.518949
-0.63535
-0.706741
-0.778492
-0.834474
-0.866005
-0.888856
-0.907916
-0.881526
-0.837067
-0.805159
-0.726023
-0.609452
-0.519975
-0.458564
-0.420021
-0.396684
-0.383274
-0.372459
-0.35888
1082.83
19.1816
-0.165143
-0.432513
-0.534014
-0.578862
-0.628508
-0.659791
-0.66345
-0.655334
-0.651087
-0.589939
-0.586822
-0.599576
-0.542633
-0.46372
-0.401623
-0.357818
-0.329598
-0.314028
-0.305662
-0.299898
-0.292559
1114.82
47.8047
-0.294524
-0.427732
-0.462763
-0.478782
-0.512552
-0.527206
-0.516919
-0.499208
-0.426398
-0.420483
-0.448459
-0.462092
-0.40827
-0.353148
-0.30967
-0.279082
-0.259957
-0.250029
-0.24581
-0.243526
-0.240212
973.563
119.855
-0.0373034
-0.378588
-0.368283
-0.384808
-0.417739
-0.426566
-0.415783
-0.346741
-0.322743
-0.327885
-0.377586
-0.349518
-0.306665
-0.266684
-0.236213
-0.215759
-0.20403
-0.199026
-0.198069
-0.198458
-0.197941
65.3019
140.278
0.694831
-0.154314
-0.237077
-0.289744
-0.334145
-0.34833
-0.346048
-0.322279
-0.293452
-0.298695
-0.296115
-0.261929
-0.226596
-0.197101
-0.176345
-0.163885
-0.15816
-0.157284
-0.159082
-0.161644
-0.163139
2.82267
144.111
38.1791
0.0136228
-0.167964
-0.221345
-0.273381
-0.293826
-0.295053
-0.299071
-0.26766
-0.239926
-0.222214
-0.189139
-0.160503
-0.139544
-0.126741
-0.120841
-0.120038
-0.122571
-0.126709
-0.131008
-0.13428
3.03401
131.89
129.934
17.9881
-0.0929182
-0.193303
-0.252508
-0.268293
-0.25907
-0.164169
-0.0580366
-0.174634
-0.155736
-0.124432
-0.103553
-0.0908578
-0.0851932
-0.0849237
-0.0882404
-0.0936094
-0.099711
-0.10548
-0.110074
-0.576987
9.34509
95.0478
94.8497
25.5864
-0.0994876
-0.232447
2.85396
6.74459
3.46817
-0.0933799
-0.121119
-0.0873459
-0.0647144
-0.053743
-0.049657
-0.0506364
-0.0552471
-0.0619948
-0.0696799
-0.0773476
-0.0842605
-0.0898467
-0.654771
-0.657216
17.7904
79.0193
76.2321
44.0935
32.5811
47.1898
39.7021
4.63256
0.0389824
-0.0294144
-0.0200631
-0.0126423
-0.0124755
-0.0163323
-0.0230172
-0.0315714
-0.0409662
-0.0503696
-0.0591488
-0.0668413
-0.073088
-0.56179
-0.602816
-0.580543
16.9053
57.2596
56.4084
53.2794
52.0964
32.4376
1.40462
0.083592
0.0350848
0.0302818
0.0255038
0.01772
0.00808105
-0.00268487
-0.0139569
-0.0250653
-0.0354754
-0.0448185
-0.0528549
-0.0593938
-0.443518
-0.471452
-0.497613
-0.257654
7.45687
32.8522
43.7613
28.2546
5.55395
0.345311
0.0884695
0.0678845
0.0577898
0.0473058
0.0355479
0.0229187
0.0100695
-0.00246701
-0.0141906
-0.024789
-0.0340866
-0.0419887
-0.0484214
-0.308275
-0.321459
-0.342341
-0.293654
-0.0128401
1.36986
2.51816
0.79419
0.185561
0.123445
0.0826112
0.0733599
0.0638171
0.0530363
0.041132
0.0283542
0.0156682
0.00354234
-0.00766015
-0.0177342
-0.026522
-0.0339373
-0.0399486
-0.175964
-0.181107
-0.184953
-0.168063
-0.0978744
0.0649827
0.16595
0.105314
0.0660673
0.0608183
0.061589
0.0580343
0.0519762
0.044197
0.0351318
0.0254293
0.0154258
0.00500397
-0.00504503
-0.0141657
-0.022043
-0.0285833
-0.0338181
-0.0547656
-0.0567519
-0.0564436
-0.0526488
-0.0417494
-0.00711774
0.0257996
0.00925564
0.017617
0.0250782
0.0280062
0.0276403
0.0252771
0.0219395
0.0186307
0.0148272
0.00810284
-0.000171286
-0.00806477
-0.0150047
-0.0208319
-0.0255689
-0.0293497
759.068
768.806
779.771
795.296
703.19
685.465
560.511
457.781
131.846
117.962
80.4151
65.4105
61.7983
59.1211
57.8941
57.4823
59.9897
57.74
56.9931
56.7371
98.4225
63.3277
56.1191
55.8791
361.478
286.504
161.886
104.989
376.447
382.337
388.577
391.413
297.964
380.557
395.875
384.021
0.458127
0.53521
1.14145
89.2415
0.513677
0.523774
0.537726
0.478512
0.497275
0.480206
0.460135
0.44383
0.44966
0.433134
0.41691
0.401532
0.388956
0.371399
0.354748
0.338756
0.312432
0.295424
0.279141
0.263592
0.207827
0.194669
0.182181
0.170389
0.0606935
0.0584716
0.0557374
0.0527894
-0.0952729
-0.120956
-0.107483
-0.0933941
-0.227823
-0.309492
-0.304381
-0.264039
-0.508166
-0.470549
-0.510604
-0.439712
-0.753251
-0.66481
-0.687655
-0.587053
-0.87818
-0.866727
-0.799478
-0.686288
-1.00202
-0.955475
-0.823042
-0.71504
-0.994884
-0.873466
-0.769087
-0.681595
-0.820372
-0.741038
-0.67105
-0.609201
-0.654642
-0.609172
-0.565985
-0.525154
-0.523038
-0.497503
-0.47135
-0.445124
-0.423236
-0.408192
-0.392021
-0.375166
-0.346097
-0.336993
-0.326836
-0.315943
-0.285167
-0.27969
-0.273336
-0.266309
-0.236241
-0.233097
-0.229237
-0.224787
-0.196311
-0.194761
-0.192616
-0.189945
-0.163242
-0.162848
-0.161932
-0.160535
-0.135615
-0.13607
-0.13605
-0.13559
-0.112398
-0.1135
-0.114144
-0.114382
-0.0928907
-0.0944724
-0.0956222
-0.0963785
-0.0766124
-0.078517
-0.0800152
-0.0811395
-0.0631533
-0.0652262
-0.06692
-0.0682648
-0.052166
-0.0542625
-0.0560167
-0.05745
-0.0434558
-0.0454388
-0.0471247
-0.0485208
-0.0368347
-0.0385274
-0.0399729
-0.0411764
-0.0315642
-0.0328162
-0.0339
-0.03481
809.439
813.491
791.111
802.704
610.116
363.161
195.778
100.058
82.6976
89.0089
99.1293
96.1042
80.058
72.3494
85.9491
86.8626
110.131
239.996
309.979
418.833
693.635
771.97
803.917
635.167
151.804
126.029
95.1196
71.3886
109.453
168.906
167.61
81.6185
71.1647
72.7927
81.3165
114.44
242.689
325.224
68.2358
316.306
777.101
864.572
779.966
239.624
116.355
91.5347
74.8248
97.9805
155.263
159.353
68.3372
71.9929
82.0139
104.198
242.173
295.229
343.633
57.054
57.0812
277.28
874.55
869.519
730.84
268.017
90.1459
97.2519
125.961
110.044
67.021
69.241
109.959
212.729
232.662
251.392
285.357
332.627
56.6648
56.2678
55.8379
189.488
442.35
311.914
327.881
145.646
74.6493
82.1558
123.957
147.991
154.568
213.21
215.944
222.393
135.473
124.966
290.773
56.0964
55.9145
55.3809
55.2924
55.3751
56.1833
191.718
136.802
45.3885
23.1941
62.1841
15.0694
18.0943
109.383
214.532
140.054
13.0055
35.2319
268.096
57.0067
55.8093
55.5931
55.3894
55.2471
55.0626
57.2281
61.0391
33.4486
20.1371
10.5498
10.9763
16.4121
39.0903
42.6114
8.91702
6.35602
15.3596
280.642
223.544
81.4445
55.5561
55.3394
55.1977
210.505
72.3463
37.4221
34.4016
29.0985
21.8597
17.5037
61.8034
59.6399
7.49451
3.92115
4.34348
12.8835
303.025
371.529
373.878
185.285
159.182
188.574
335.442
102.206
36.079
38.1443
36.377
30.338
103.514
132.713
106.713
11.2622
2.40077
2.9398
6.85339
124.342
184.172
276.914
333.44
340.436
346.667
343.722
235.206
143.468
106.264
191.409
184.19
177.06
144.67
18.9396
1.1406
1.37472
1.93347
1.86508
4.45942
0.438328
0.711049
108.11
157.444
174.642
139.484
244.917
255.114
254.787
252.468
145.616
5.63338
-0.143245
-0.34683
0.210026
0.785371
1.30713
1.45351
131.722
0.427243
0.43308
0.328933
0.325912
0.368051
0.304143
0.932618
32.9404
0.811199
-0.0905904
-0.452927
-0.287958
-0.154189
-0.0118706
0.322245
0.660643
1.12934
15.6272
194.025
0.377258
0.346497
0.29244
0.268034
0.244211
0.149676
-0.0550185
-0.302572
-0.182246
-0.152307
-0.132337
-0.0775097
-0.0510086
0.0851151
0.28852
0.580406
2.38661
120.571
209.304
0.312867
0.279622
0.242599
0.211532
0.169021
0.0855347
-0.0298998
-0.0843216
-0.0497163
-0.0585794
-0.0255408
0.0182786
0.0404054
0.132429
0.282494
0.508969
4.98971
71.7155
142.355
0.239104
0.209407
0.180489
0.152462
0.117278
0.0647436
0.00249679
-0.0310191
-0.0266823
-0.0149045
0.00954002
0.0453923
0.0840284
0.152007
0.245791
0.423331
1.41068
1.65528
2.82626
0.152439
0.132065
0.113169
0.0939351
0.0700836
0.0397728
0.0114768
-0.00104448
0.00279036
0.0174885
0.0415812
0.0676466
0.10006
0.148385
0.20523
0.232027
0.234307
0.511521
0.75305
0.0488067
0.0447699
0.0402321
0.0339881
0.0244515
0.0121039
0.00171529
-0.000105902
0.00946803
0.0284652
0.0515506
0.0747549
0.0997544
0.131898
0.165492
0.169128
0.211932
0.633016
0.727999
-0.0728072
-0.0519861
-0.0375268
-0.0280311
-0.0230471
-0.0208933
-0.0183267
-0.0111818
0.00370727
0.0246714
0.0452343
0.0646423
0.0847527
0.107622
0.129315
0.127569
0.209507
0.474907
0.278502
-0.207429
-0.154214
-0.11687
-0.0899545
-0.0706445
-0.0562451
-0.0439295
-0.0302332
-0.012391
0.00790347
0.0223162
0.0382149
0.0571321
0.0778389
0.0964297
0.103663
0.137964
0.121619
0.168062
-0.34208
-0.253679
-0.19244
-0.148327
-0.11581
-0.0910459
-0.071035
-0.0527966
-0.0312005
0.00347733
-0.0134211
-0.002452
0.019728
0.0449555
0.0670479
0.0961687
0.274012
0.0875691
0.162714
-0.459861
-0.339485
-0.257655
-0.198893
-0.155317
-0.122151
-0.0960761
-0.0733069
-0.0376234
-0.0273122
-0.056745
-0.0479472
-0.0204418
0.0130314
0.0428297
0.10892
0.289933
0.073206
0.297865
-0.536423
-0.401019
-0.30656
-0.23796
-0.186527
-0.14716
-0.116336
-0.0805339
-0.0449625
-0.053385
-0.0949413
-0.082223
-0.0506852
-0.00974549
0.0277283
0.14731
0.291641
0.0563485
0.288646
-0.569434
-0.433477
-0.335853
-0.263341
-0.207858
-0.164658
-0.13027
-0.0859811
-0.053153
-0.0657033
-0.103869
-0.0918381
-0.0593761
-0.0151014
0.0371608
0.139541
0.0963992
0.0451773
0.283941
-0.559164
-0.437242
-0.345439
-0.27477
-0.21903
-0.174374
-0.137719
-0.0987914
-0.0498149
-0.0476944
-0.0851883
-0.0725683
-0.0251039
0.0535816
0.106472
0.0866946
0.0427884
0.0396874
0.280787
-0.517969
-0.418301
-0.338325
-0.273834
-0.220987
-0.177109
-0.139757
-0.107446
-0.068436
-0.0384132
-0.0157008
0.0372066
0.067296
0.0905482
0.106778
0.0390734
0.0342396
0.0321195
0.278772
-0.461651
-0.385096
-0.319299
-0.263365
-0.215553
-0.174344
-0.138083
-0.10538
-0.0725639
-0.0313845
0.0201672
0.0751382
0.0860651
0.0854811
0.0528198
0.0571932
0.0586372
0.0248024
0.243566
-0.402228
-0.345437
-0.293333
-0.246589
-0.204907
-0.167664
-0.133983
-0.103037
-0.0740431
-0.0411272
0.0122312
0.0400018
0.057002
0.0527344
0.046833
0.0654677
0.0603883
0.019598
0.0399028
-0.346357
-0.304872
-0.264516
-0.226451
-0.191118
-0.158485
-0.128276
-0.100202
-0.0740037
-0.0482107
0.0014907
0.0294732
0.0298877
0.0346631
0.0577624
0.0621242
0.0143053
0.011815
0.014421
-0.296565
-0.266472
-0.235631
-0.205179
-0.175834
-0.147922
-0.121557
-0.0968118
-0.0737913
-0.052686
-0.0345328
0.000655211
0.00981736
0.0460687
0.0498171
0.0142802
0.00302747
0.00571308
0.00848731
-0.253309
-0.231622
-0.208268
-0.184201
-0.160192
-0.136742
-0.114189
-0.0928187
-0.0729152
-0.0547921
-0.0391195
-0.0269114
-0.0181095
-0.00468549
-0.00888154
-0.00495488
-0.00206297
0.000587591
0.00246479
-0.216189
-0.200697
-0.183149
-0.164304
-0.144886
-0.125446
-0.106432
-0.0882417
-0.0712531
-0.0558002
-0.0423472
-0.0314889
-0.0232129
-0.0175928
-0.013225
-0.00921831
-0.00599436
-0.00385284
-0.00295904
-0.184443
-0.173543
-0.160489
-0.145863
-0.130308
-0.114367
-0.0985218
-0.0832068
-0.0688314
-0.0557207
-0.0442089
-0.0346544
-0.027016
-0.0213723
-0.0168304
-0.0131816
-0.00984801
-0.0079685
-0.0076778
-0.157278
-0.149824
-0.140253
-0.129017
-0.116673
-0.103728
-0.0906558
-0.0778793
-0.0657933
-0.0546936
-0.0448386
-0.0364647
-0.0295297
-0.0241393
-0.0197688
-0.0163682
-0.0135047
-0.0121391
-0.0115477
-0.134002
-0.129163
-0.122301
-0.113781
-0.104082
-0.0936682
-0.0829793
-0.0724023
-0.0622958
-0.0529213
-0.0444979
-0.0372024
-0.0310112
-0.0260449
-0.0219837
-0.0188439
-0.0165973
-0.0149576
-0.0144136
-0.114047
-0.111208
-0.106453
-0.100094
-0.0925551
-0.0842513
-0.0755786
-0.0668805
-0.0584728
-0.0505863
-0.0434192
-0.0371121
-0.0316686
-0.0272072
-0.0235176
-0.020668
-0.0185632
-0.0171033
-0.0164595
-0.0969633
-0.0956358
-0.0925061
-0.0878486
-0.0820509
-0.075484
-0.0684948
-0.0613857
-0.0544308
-0.047836
-0.0417804
-0.0363776
-0.0316598
-0.0277304
-0.0244469
-0.0219095
-0.0199896
-0.0187212
-0.0179666
-0.0823722
-0.0821338
-0.0802271
-0.0768902
-0.072479
-0.0673258
-0.0617312
-0.0559606
-0.05025
-0.044782
-0.0397138
-0.0351404
-0.031114
-0.0277165
-0.0248549
-0.0226356
-0.0209329
-0.0198373
-0.019081
-0.0699171
-0.0703899
-0.0693682
-0.0670394
-0.0637212
-0.0597115
-0.0552703
-0.0506293
-0.0459888
-0.0415091
-0.0373232
-0.0335136
-0.0301402
-0.0272612
-0.0248258
-0.0229248
-0.0214526
-0.0205079
-0.0198373
-0.059303
-0.0601971
-0.0597758
-0.0581875
-0.0557122
-0.0526136
-0.0491175
-0.0454241
-0.0417017
-0.0380874
-0.03469
-0.0315809
-0.0288168
-0.0264362
-0.0244193
-0.0228316
-0.0215932
-0.0207995
-0.0202127
-0.050366
-0.0514625
-0.0513733
-0.0502796
-0.0484208
-0.0460248
-0.043287
-0.0403771
-0.0374347
-0.0345722
-0.0318752
-0.029403
-0.0272005
-0.0252925
-0.023677
-0.0223902
-0.021381
-0.0207421
-0.0202096
-0.042789
-0.0438323
-0.0438598
-0.043065
-0.0416473
-0.0397981
-0.037683
-0.0354408
-0.0331825
-0.0309944
-0.0289396
-0.0270619
-0.0253913
-0.0239417
-0.0227172
-0.0217276
-0.0209432
-0.0204431
-0.0199451
-0.0360343
-0.0368291
-0.0368136
-0.0361688
-0.0350636
-0.0336571
-0.0320825
-0.0304458
-0.028827
-0.0272843
-0.0258561
-0.0245666
-0.0234299
-0.022449
-0.0216237
-0.0209521
-0.0204009
-0.0200399
-0.0194645
)
;

boundaryField
{
    leftWall
    {
        type            fixedFluxPressure;
        gradient        uniform 0;
        value           nonuniform List<scalar> 
50
(
1051.13
1050.52
1050.17
1049.75
1049.09
1048.1
1044.03
1024.29
989.385
852.501
486.989
289.905
285.82
305.19
618.975
785.276
1030.04
1247.87
1270.76
1341.71
748.33
443.598
1121.84
1193.68
1253.35
578.787
-1.38995
-1.26667
-1.34055
-1.71939
-2.00754
-1.66161
-0.492621
36.7514
135.564
566.644
1044.54
1082.83
1114.82
973.563
65.3019
2.82267
3.03401
-0.576987
-0.654771
-0.56179
-0.443518
-0.308275
-0.175964
-0.0547656
)
;
    }
    rightWall
    {
        type            fixedFluxPressure;
        gradient        uniform 0;
        value           nonuniform List<scalar> 
50
(
443.012
437.71
429.811
355.614
308.039
305.46
331.132
319.369
309.979
325.224
343.633
332.627
290.773
268.096
280.642
303.025
124.342
4.45942
131.722
194.025
209.304
142.355
2.82626
0.75305
0.727999
0.278502
0.168062
0.162714
0.297865
0.288646
0.283941
0.280787
0.278772
0.243566
0.0399028
0.014421
0.00848731
0.00246479
-0.00295904
-0.0076778
-0.0115477
-0.0144136
-0.0164595
-0.0179666
-0.019081
-0.0198373
-0.0202127
-0.0202096
-0.0199451
-0.0194645
)
;
    }
    lowerWall
    {
        type            fixedFluxPressure;
        gradient        uniform 0;
        value           nonuniform List<scalar> 
62
(
1051.13
1049.87
1049.63
1051.58
1052.17
1053.45
1056.02
1056.8
1054.6
1047.2
1033.07
1009.58
977.398
944.96
912.816
880.734
853.274
828.638
805.601
788.088
777.316
772.566
771.582
771.582
771.179
770.388
769.247
767.833
765.411
759.989
762.747
759.068
768.806
779.771
795.296
737.569
738.03
742.312
747.774
755.009
760.181
761.169
764.283
737.569
739.334
688.531
715.671
714.451
592.264
484.777
465.156
478.97
479.081
467.922
467.082
499.213
508.141
480.006
450.391
435.25
438.992
443.012
)
;
    }
    atmosphere
    {
        type            totalPressure;
        rho             rho;
        psi             none;
        gamma           1;
        p0              uniform 0;
        value           nonuniform List<scalar> 
46
(
0
0
0
0
0
0
0
0
0
0
0
0
0
0
0
-0.000105208
-0.00273982
-0.00735526
-0.0124283
-0.0171671
-0.021239
-0.024596
-0.0273536
-0.0290946
-0.0301505
-0.0310985
-0.031903
-0.0329054
-0.0335149
-0.0334173
-0.0327844
-0.0317842
-0.0305608
-0.0292297
-0.0278791
-0.0265718
-0.0253501
-0.0242389
-0.0232501
-0.0223903
-0.0216559
-0.0210363
-0.0205497
-0.020108
-0.0198813
-0.0190943
)
;
    }
    defaultFaces
    {
        type            empty;
    }
}


// ************************************************************************* //
