/*--------------------------------*- C++ -*----------------------------------*\
| =========                 |                                                 |
| \\      /  F ield         | OpenFOAM: The Open Source CFD Toolbox           |
|  \\    /   O peration     | Version:  2.3.0                                 |
|   \\  /    A nd           | Web:      www.OpenFOAM.org                      |
|    \\/     M anipulation  |                                                 |
\*---------------------------------------------------------------------------*/
FoamFile
{
    version     2.0;
    format      ascii;
    class       volVectorField;
    location    "1.1";
    object      U;
}
// * * * * * * * * * * * * * * * * * * * * * * * * * * * * * * * * * * * * * //

dimensions      [0 1 -1 0 0 0 0];

internalField   nonuniform List<vector> 
2268
(
(0.0243995 -0.0198248 0)
(0.0688142 -0.0170955 0)
(0.0851052 -0.000598873 0)
(0.0265132 0.0159898 0)
(-0.0466252 0.0141318 0)
(-0.0521901 0.000324022 0)
(-0.0330071 -0.0029361 0)
(-0.0245531 0.000584772 0)
(-0.0353787 0.00256442 0)
(-0.0522019 0.00343244 0)
(-0.0682123 -2.41487e-06 0)
(-0.0645709 -0.0117557 0)
(-0.0466244 -0.0158173 0)
(-0.0578931 0.00629191 0)
(-0.14361 0.0276776 0)
(-0.207049 0.0150197 0)
(-0.156205 -0.0127305 0)
(-0.0773297 -0.0200682 0)
(-0.032468 -0.0118729 0)
(-0.0100182 -0.00770779 0)
(0.00257351 -0.0068765 0)
(0.0127873 -0.00428989 0)
(0.0114564 0.00078753 0)
(0.0070415 -0.0295233 0)
(0.0101964 -0.0152707 0)
(0.0223077 0.0190583 0)
(-0.0259409 0.0428695 0)
(-0.0728517 0.0264562 0)
(-0.0665935 -0.00474899 0)
(-0.0451682 -0.011631 0)
(-0.029157 0.00164166 0)
(-0.0447316 0.0115088 0)
(-0.0760521 0.0147745 0)
(-0.107042 0.00702872 0)
(-0.132855 -0.00275579 0)
(-0.177328 0.0141075 0)
(-0.224333 0.0413612 0)
(-0.237661 0.0359722 0)
(-0.165491 -0.0102624 0)
(-0.0571963 -0.050434 0)
(-0.0043784 -0.0451295 0)
(0.0245634 -0.0225444 0)
(0.0389897 -0.00935683 0)
(0.0365268 -0.00392266 0)
(0.026912 -0.000695909 0)
(0.0207854 0.00944119 0)
(-0.00445932 -0.0246963 0)
(-0.0196255 -0.0153493 0)
(-0.0321158 0.0272352 0)
(-0.0587105 0.0570095 0)
(-0.0809771 0.0331996 0)
(-0.0794272 -0.0117133 0)
(-0.0578749 -0.0239962 0)
(-0.0364607 0.000583313 0)
(-0.0450035 0.0217248 0)
(-0.0724644 0.0304044 0)
(-0.106708 0.0252354 0)
(-0.151608 0.0192732 0)
(-0.207337 0.0320981 0)
(-0.223405 0.0364998 0)
(-0.159752 -0.00164292 0)
(-0.0518872 -0.0619704 0)
(0.00581869 -0.0819031 0)
(0.0289346 -0.0587325 0)
(0.0497431 -0.0300254 0)
(0.060779 -0.0100666 0)
(0.0547467 0.00202719 0)
(0.0344415 0.00520697 0)
(0.0242533 0.0217053 0)
(0.000875813 -0.0194049 0)
(-0.00849959 -0.00497288 0)
(-0.0309078 0.0355418 0)
(-0.0528503 0.0653484 0)
(-0.0714792 0.0399964 0)
(-0.0717255 -0.0161902 0)
(-0.0621936 -0.035219 0)
(-0.0434145 -0.00312396 0)
(-0.0459465 0.0291059 0)
(-0.067174 0.0443613 0)
(-0.0972889 0.0442949 0)
(-0.137947 0.0407038 0)
(-0.170351 0.0384485 0)
(-0.146477 0.0127499 0)
(-0.06136 -0.0415625 0)
(0.00912434 -0.0859839 0)
(0.0362745 -0.0902172 0)
(0.0509174 -0.0652213 0)
(0.0640571 -0.0350499 0)
(0.0700705 -0.00959528 0)
(0.0652284 0.00934011 0)
(0.0467132 0.0147623 0)
(0.0209528 0.0353885 0)
(0.0140569 -0.0215751 0)
(0.028021 -0.00104037 0)
(0.0108775 0.0454999 0)
(-0.0160653 0.0752126 0)
(-0.0406733 0.0482826 0)
(-0.0404674 -0.015406 0)
(-0.047086 -0.0399105 0)
(-0.0446527 -0.00675178 0)
(-0.0491131 0.0344564 0)
(-0.0682861 0.0555105 0)
(-0.0937557 0.0591674 0)
(-0.120853 0.0543378 0)
(-0.126071 0.0355784 0)
(-0.0802363 -0.0124753 0)
(-0.0105629 -0.0697373 0)
(0.0352111 -0.103757 0)
(0.056409 -0.103404 0)
(0.066054 -0.0764773 0)
(0.070576 -0.0434875 0)
(0.0759002 -0.013929 0)
(0.0748214 0.0136582 0)
(0.0592078 0.0272628 0)
(0.0209755 0.0500816 0)
(0.0347031 -0.0365033 0)
(0.0767342 -0.00550763 0)
(0.0738965 0.0566558 0)
(0.0427333 0.0879932 0)
(0.0113465 0.057802 0)
(0.00470567 -0.0103548 0)
(-0.01037 -0.034832 0)
(-0.0317871 -0.00258634 0)
(-0.0500095 0.0429717 0)
(-0.0746164 0.0666385 0)
(-0.100561 0.0697072 0)
(-0.118616 0.0589305 0)
(-0.109109 0.0231729 0)
(-0.0623156 -0.0395806 0)
(-0.00325427 -0.0958722 0)
(0.0356683 -0.123059 0)
(0.0521065 -0.110446 0)
(0.056176 -0.0748113 0)
(0.0593045 -0.0426641 0)
(0.0746914 -0.0149546 0)
(0.0817798 0.0171547 0)
(0.0660492 0.0420572 0)
(0.0265125 0.0711142 0)
(0.0552148 -0.0655934 0)
(0.135033 -0.018313 0)
(0.145806 0.0614972 0)
(0.11084 0.101516 0)
(0.0745866 0.073911 0)
(0.0549092 0.000110748 0)
(0.0332685 -0.025799 0)
(0.00137481 0.0140138 0)
(-0.0440048 0.0578224 0)
(-0.084351 0.0813743 0)
(-0.116634 0.0818123 0)
(-0.135209 0.0615348 0)
(-0.125295 0.0092822 0)
(-0.0766435 -0.0685555 0)
(-0.0303078 -0.125737 0)
(-0.019166 -0.12921 0)
(0.00211303 -0.103939 0)
(0.0307632 -0.0654732 0)
(0.0508099 -0.0390926 0)
(0.0770007 -0.0151768 0)
(0.0972715 0.0241534 0)
(0.0884619 0.05869 0)
(0.044583 0.0865064 0)
(0.0657792 -0.12656 0)
(0.168258 -0.0527751 0)
(0.210646 0.070188 0)
(0.181018 0.11961 0)
(0.138711 0.0891548 0)
(0.10654 0.0105925 0)
(0.0681153 -0.020619 0)
(0.0434103 0.0282978 0)
(-0.0117995 0.0826381 0)
(-0.0774453 0.100599 0)
(-0.126132 0.091367 0)
(-0.156416 0.0650922 0)
(-0.146875 -0.00731292 0)
(-0.115248 -0.102401 0)
(-0.138704 -0.117926 0)
(-0.126762 -0.123297 0)
(-0.0635746 -0.128907 0)
(-0.0043084 -0.093184 0)
(0.0210208 -0.061713 0)
(0.0349251 -0.0415371 0)
(0.077774 0.0231518 0)
(0.101018 0.073859 0)
(0.0650224 0.135052 0)
(0.122381 -0.0414817 0)
(0.0655892 0.0143487 0)
(-0.156934 0.015224 0)
(0.0126158 -0.0542928 0)
(0.33923 -0.0879773 0)
(0.619247 -0.0380146 0)
(0.732419 0.0127296 0)
(0.642199 0.0347894 0)
(0.48264 0.0250925 0)
(0.412198 -0.00624294 0)
(0.426588 -0.00857441 0)
(0.358915 0.0277535 0)
(0.145356 0.0427728 0)
(-0.12148 0.0476095 0)
(-0.287192 0.0348002 0)
(-0.343662 0.00562005 0)
(-0.282744 -0.023889 0)
(-0.16666 -0.0359817 0)
(-0.0360032 -0.0265838 0)
(0.014931 -0.033398 0)
(-0.00446838 0.0696247 0)
(-0.14882 0.0305664 0)
(0.180506 -0.18095 0)
(0.4336 -0.239586 0)
(0.653478 -0.122046 0)
(0.773967 0.00186572 0)
(0.780053 0.0617365 0)
(0.692796 0.0607215 0)
(0.614177 0.022264 0)
(0.545079 0.0286489 0)
(0.458821 0.112082 0)
(0.20063 0.155597 0)
(-0.220314 0.134688 0)
(-0.311235 0.0632121 0)
(-0.306999 -0.00634444 0)
(-0.292193 -0.0498209 0)
(-0.170519 -0.0900239 0)
(0.00312036 -0.0614336 0)
(0.0058638 -0.0310074 0)
(-0.0166357 0.0750683 0)
(0.0270031 -0.0299534 0)
(0.300237 -0.286806 0)
(0.423143 -0.336024 0)
(0.577294 -0.172144 0)
(0.661333 -0.0117748 0)
(0.648481 0.0721117 0)
(0.588842 0.0802028 0)
(0.51996 0.0355027 0)
(0.392683 0.0649847 0)
(0.307105 0.199485 0)
(0.0926545 0.275127 0)
(-0.240672 0.217265 0)
(-0.244713 0.10112 0)
(-0.353608 0.0170961 0)
(-0.41521 -0.0688185 0)
(-0.247586 -0.160261 0)
(0.0303726 -0.0976209 0)
(0.0181723 -0.0308437 0)
(0.0054869 0.0522388 0)
(0.152849 -0.0819613 0)
(0.355251 -0.34744 0)
(0.339132 -0.38699 0)
(0.450146 -0.190044 0)
(0.497464 -0.00273448 0)
(0.456491 0.0890731 0)
(0.415182 0.0987155 0)
(0.258848 0.092459 0)
(0.0614425 0.136019 0)
(0.0600215 0.272618 0)
(-0.0573126 0.376869 0)
(-0.213011 0.273374 0)
(-0.315775 0.131917 0)
(-0.677043 0.071887 0)
(-0.800837 -0.0597853 0)
(-0.389446 -0.301227 0)
(-0.0354759 -0.146115 0)
(0.0162994 -0.0373613 0)
(0.046156 0.00557182 0)
(0.212713 -0.141639 0)
(0.340589 -0.37267 0)
(0.201082 -0.40974 0)
(0.305071 -0.200487 0)
(0.311091 -0.00207855 0)
(0.251297 0.0996476 0)
(0.141536 0.15834 0)
(-0.119311 0.17403 0)
(-0.195164 0.176474 0)
(-0.139265 0.292136 0)
(-0.120904 0.392905 0)
(-0.226419 0.309538 0)
(-0.709799 0.31106 0)
(-1.16615 0.238609 0)
(-0.842933 -0.210641 0)
(-0.5019 -0.487409 0)
(-0.262591 -0.249421 0)
(0.00861444 -0.043782 0)
(0.0757016 -0.0534732 0)
(0.233468 -0.187094 0)
(0.279183 -0.360703 0)
(0.0405143 -0.399618 0)
(0.110225 -0.210967 0)
(0.0625402 0.0160637 0)
(-0.036244 0.154771 0)
(-0.225126 0.232668 0)
(-0.403088 0.190363 0)
(-0.340467 0.122549 0)
(-0.256603 0.2236 0)
(-0.2733 0.376427 0)
(-0.667728 0.482093 0)
(-1.2469 0.552302 0)
(-1.12084 0.155387 0)
(-0.56012 -0.39701 0)
(-0.441798 -0.606674 0)
(-0.279783 -0.422103 0)
(0.0557017 -0.0758348 0)
(0.140333 -0.118502 0)
(0.238229 -0.195896 0)
(0.190442 -0.309532 0)
(-0.116516 -0.337149 0)
(-0.187049 -0.182668 0)
(-0.233213 0.0463782 0)
(-0.374795 0.237346 0)
(-0.584585 0.296099 0)
(-0.707997 0.196703 0)
(-0.714532 0.165555 0)
(-0.709138 0.330232 0)
(-0.944432 0.573205 0)
(-1.39404 0.74682 0)
(-1.2657 0.492913 0)
(-0.753476 -0.0856482 0)
(-0.428799 -0.503014 0)
(-0.296025 -0.681331 0)
(-0.201399 -0.577961 0)
(0.136192 -0.138022 0)
(0.176776 -0.158819 0)
(0.208729 -0.162746 0)
(0.100797 -0.227029 0)
(-0.228517 -0.222159 0)
(-0.472919 -0.042199 0)
(-0.603228 0.173989 0)
(-0.732894 0.320098 0)
(-0.87192 0.355061 0)
(-1.01269 0.252905 0)
(-1.03396 0.15568 0)
(-1.13099 0.391815 0)
(-1.37604 0.654003 0)
(-1.3623 0.573696 0)
(-1.0684 0.228605 0)
(-0.506376 -0.262075 0)
(-0.311558 -0.574712 0)
(-0.149283 -0.731211 0)
(-0.120855 -0.676859 0)
(0.0532605 -0.229554 0)
(0.169848 -0.135229 0)
(0.227287 0.0267179 0)
(0.252797 0.125013 0)
(0.23825 0.134955 0)
(0.193106 0.066254 0)
(0.117247 0.015287 0)
(0.0600344 0.0614317 0)
(0.0143559 0.128189 0)
(-0.0714751 0.154042 0)
(-0.129314 0.139275 0)
(-0.146046 0.0712815 0)
(-0.182633 -0.011974 0)
(-0.31182 -0.0289283 0)
(-0.370836 -0.0773455 0)
(-0.301708 -0.192372 0)
(-0.222318 -0.20223 0)
(-0.14488 -0.138572 0)
(-0.128952 -0.0963591 0)
(-0.140981 -0.0834063 0)
(-0.112295 -0.0318011 0)
(-0.0446977 0.0281562 0)
(0.0584051 0.143237 0)
(-0.000905031 -0.354062 0)
(0.186202 -0.162789 0)
(0.11363 0.000904417 0)
(0.17007 0.0802414 0)
(0.236037 0.131023 0)
(0.245781 0.132053 0)
(0.195465 0.0997191 0)
(0.110277 0.126201 0)
(0.0277949 0.209012 0)
(-0.0593118 0.228215 0)
(-0.133482 0.165392 0)
(-0.283564 0.178096 0)
(-0.495736 0.192767 0)
(-0.618862 0.0335151 0)
(-0.660132 -0.181602 0)
(-0.666772 -0.249329 0)
(-0.516704 -0.246037 0)
(-0.34518 -0.13655 0)
(-0.303589 -0.0597814 0)
(-0.356303 -0.0547835 0)
(-0.377916 -0.0562098 0)
(-0.325386 -0.0639852 0)
(-0.248081 -0.0560794 0)
(-0.0367075 -0.477947 0)
(0.202759 -0.137172 0)
(-0.0206701 0.0182846 0)
(0.0467929 0.00407675 0)
(0.15701 0.046833 0)
(0.226462 0.081662 0)
(0.194549 0.118433 0)
(0.0818439 0.203028 0)
(-0.0205733 0.289042 0)
(-0.155516 0.315446 0)
(-0.384766 0.364655 0)
(-0.610576 0.38633 0)
(-0.803879 0.254627 0)
(-1.02474 0.096562 0)
(-1.26509 0.108737 0)
(-1.09164 -0.40632 0)
(-0.855881 -0.571863 0)
(-0.559971 -0.441667 0)
(0.022166 -0.154474 0)
(0.219306 -0.124416 0)
(0.977479 0.115859 0)
(0.497372 0.130743 0)
(-0.338323 0.102782 0)
(0.0129003 -0.584344 0)
(0.138765 -0.121938 0)
(0.150073 0.0759178 0)
(0.119713 -0.145788 0)
(0.0671059 -0.0289468 0)
(-0.0122862 0.119083 0)
(-0.123962 0.225062 0)
(-0.22729 0.33123 0)
(-0.354478 0.439956 0)
(-0.546816 0.544572 0)
(-0.762811 0.600695 0)
(-0.91559 0.546713 0)
(-1.12044 0.464355 0)
(-1.52286 0.393197 0)
(-1.40602 -0.309483 0)
(-1.18401 -0.756404 0)
(-1.08487 -0.78996 0)
(-0.961382 -0.727444 0)
(-0.793695 -0.66196 0)
(-0.614369 -0.593175 0)
(-0.19777 -0.301276 0)
(0.548975 0.168492 0)
(0.732491 0.617702 0)
(0.0172258 -0.65758 0)
(-0.0453345 -0.143674 0)
(-0.121068 0.0332794 0)
(-0.354759 0.113593 0)
(-0.453204 0.200472 0)
(-0.556723 0.300682 0)
(-0.654737 0.390216 0)
(-0.736619 0.500815 0)
(-0.812142 0.64245 0)
(-0.924121 0.750188 0)
(-1.02688 0.736704 0)
(-1.08977 0.680311 0)
(-1.25409 0.783508 0)
(-1.33783 0.604442 0)
(-1.10667 -0.273814 0)
(-1.04162 -0.817835 0)
(-1.06879 -0.859021 0)
(-1.00735 -0.828036 0)
(-0.903264 -0.763817 0)
(-0.804089 -0.718985 0)
(-0.692248 -0.664559 0)
(-0.50849 -0.603306 0)
(-0.0347746 -0.389949 0)
(-0.0134578 -0.514574 0)
(-0.373499 0.104984 0)
(-0.569723 0.237011 0)
(-0.693416 0.248531 0)
(-0.796503 0.291701 0)
(-0.984822 0.373932 0)
(-1.0544 0.444844 0)
(-1.0391 0.537495 0)
(-0.985672 0.679834 0)
(-0.970989 0.802729 0)
(-1.04309 0.783714 0)
(-1.11408 0.805671 0)
(-1.16 1.00513 0)
(-1.00925 0.679494 0)
(-0.673627 -0.250222 0)
(-0.750666 -0.769825 0)
(-0.906241 -0.81792 0)
(-0.956045 -0.90088 0)
(-0.918266 -0.859223 0)
(-0.843319 -0.802448 0)
(-0.758836 -0.730637 0)
(-0.68485 -0.683094 0)
(-0.612574 -0.63427 0)
(-0.0656431 -0.140087 0)
(-0.608164 0.324684 0)
(-0.740403 0.32934 0)
(-0.667475 0.355047 0)
(-0.819383 0.467139 0)
(-0.964559 0.436636 0)
(-1.04963 0.357157 0)
(-1.01674 0.40997 0)
(-0.899162 0.536392 0)
(-0.72835 0.699663 0)
(-0.629754 0.872655 0)
(-0.816825 0.834793 0)
(-0.727165 0.749772 0)
(-0.541993 0.185336 0)
(-0.401503 -0.489481 0)
(-0.462237 -0.620019 0)
(-0.573417 -0.632976 0)
(-0.737315 -0.83267 0)
(-0.846637 -0.881938 0)
(-0.849859 -0.868044 0)
(-0.796529 -0.814445 0)
(-0.726206 -0.751961 0)
(-0.661275 -0.685663 0)
(0.188418 0.128477 0)
(-0.48523 0.579613 0)
(-0.552862 0.330688 0)
(-0.465738 0.417216 0)
(-0.540728 0.558468 0)
(-0.547316 0.545729 0)
(-0.498126 0.434727 0)
(-0.439532 0.337038 0)
(-0.412064 0.400059 0)
(-0.381988 0.64016 0)
(-0.589828 0.78363 0)
(-0.326215 0.922338 0)
(-0.34823 0.625575 0)
(-0.245277 0.0533138 0)
(-0.193161 -0.471801 0)
(-0.286981 -0.585798 0)
(-0.352152 -0.524663 0)
(-0.413865 -0.614676 0)
(-0.565734 -0.761627 0)
(-0.713765 -0.850982 0)
(-0.77774 -0.860535 0)
(-0.756046 -0.812717 0)
(-0.701835 -0.758493 0)
(0.184601 -0.00113412 0)
(0.013131 0.883214 0)
(0.292645 0.576927 0)
(-0.125444 0.40633 0)
(-0.00718273 0.51691 0)
(0.0108888 0.471426 0)
(0.0782859 0.400319 0)
(0.173444 0.304239 0)
(0.129068 0.349401 0)
(0.260294 0.805121 0)
(-0.380415 0.767059 0)
(-0.254922 0.811279 0)
(-0.184431 0.615241 0)
(-0.14432 0.0505041 0)
(-0.170546 -0.394825 0)
(-0.319833 -0.5007 0)
(-0.362862 -0.530735 0)
(-0.372643 -0.573556 0)
(-0.377952 -0.616353 0)
(-0.403419 -0.662796 0)
(-0.521406 -0.79257 0)
(-0.648436 -0.833152 0)
(-0.696803 -0.826345 0)
(0.024538 -0.187297 0)
(0.261409 0.67494 0)
(0.352148 0.709882 0)
(0.0369161 0.504321 0)
(0.120554 0.522627 0)
(0.0897282 0.399534 0)
(0.154012 0.313637 0)
(0.218879 0.268392 0)
(0.167017 0.347304 0)
(0.219295 1.10699 0)
(-0.368498 1.03189 0)
(-0.273325 0.772804 0)
(-0.246729 0.522782 0)
(-0.217137 0.0132216 0)
(-0.33944 -0.290129 0)
(-0.452362 -0.417433 0)
(-0.486903 -0.522209 0)
(-0.481341 -0.609759 0)
(-0.445629 -0.661526 0)
(-0.401798 -0.684685 0)
(-0.359318 -0.683434 0)
(-0.34282 -0.666866 0)
(-0.401287 -0.76811 0)
(-0.0680669 -0.322087 0)
(0.195268 0.605709 0)
(0.0576441 0.794763 0)
(-0.0623031 0.4925 0)
(0.0203383 0.460318 0)
(-0.00615442 0.341192 0)
(0.0354862 0.265999 0)
(0.0677585 0.28005 0)
(-0.0382286 0.515263 0)
(-0.324934 1.49394 0)
(-0.611328 1.20654 0)
(-0.469744 0.799269 0)
(-0.443027 0.457941 0)
(-0.446394 0.0802969 0)
(-0.554644 -0.165561 0)
(-0.610087 -0.355234 0)
(-0.618879 -0.509925 0)
(-0.593105 -0.630705 0)
(-0.544415 -0.714881 0)
(-0.487906 -0.761716 0)
(-0.426879 -0.765425 0)
(-0.36952 -0.733341 0)
(-0.336106 -0.668767 0)
(-0.124416 -0.34886 0)
(0.154796 0.63094 0)
(-0.0566755 0.898599 0)
(-0.161336 0.482532 0)
(0.0358003 0.447684 0)
(0.031667 0.374364 0)
(0.0137218 0.251072 0)
(-0.284056 0.381061 0)
(-0.650915 0.918835 0)
(-0.88117 1.58041 0)
(-0.826885 1.16271 0)
(-0.70763 0.767133 0)
(-0.700197 0.446452 0)
(-0.741705 0.144544 0)
(-0.800849 -0.110064 0)
(-0.811458 -0.339086 0)
(-0.777211 -0.531909 0)
(-0.704334 -0.679 0)
(-0.61177 -0.773729 0)
(-0.520252 -0.818235 0)
(-0.445076 -0.821767 0)
(-0.392776 -0.801024 0)
(-0.353633 -0.753658 0)
(-0.158009 -0.429341 0)
(0.157415 0.644335 0)
(-0.0897908 1.06234 0)
(-0.138283 0.485578 0)
(0.0469136 0.439015 0)
(-0.153979 0.465884 0)
(-0.45734 0.535224 0)
(-0.869804 0.844552 0)
(-1.117 1.25147 0)
(-1.12469 1.42494 0)
(-0.958045 1.02897 0)
(-0.938067 0.740767 0)
(-0.983262 0.476849 0)
(-1.04765 0.196705 0)
(-1.07632 -0.0893969 0)
(-1.04238 -0.36923 0)
(-0.946014 -0.612965 0)
(-0.809418 -0.793004 0)
(-0.658827 -0.895918 0)
(-0.518953 -0.923715 0)
(-0.408542 -0.894708 0)
(-0.336466 -0.8367 0)
(-0.30024 -0.771092 0)
(-0.185689 -0.457047 0)
(0.137832 0.698683 0)
(-0.238759 1.08129 0)
(-0.0965639 0.434784 0)
(-0.232974 0.544321 0)
(-0.494083 0.709873 0)
(-0.839177 0.907482 0)
(-1.13901 1.14905 0)
(-1.23835 1.31623 0)
(-1.15382 1.25196 0)
(-1.09118 0.988907 0)
(-1.18012 0.794455 0)
(-1.27764 0.549658 0)
(-1.34569 0.241379 0)
(-1.32803 -0.114497 0)
(-1.21411 -0.472169 0)
(-1.03389 -0.770253 0)
(-0.826472 -0.972761 0)
(-0.623047 -1.07054 0)
(-0.451124 -1.07097 0)
(-0.32551 -1.00317 0)
(-0.245664 -0.902497 0)
(-0.206335 -0.794826 0)
(-0.220406 -0.305487 0)
(0.113375 0.806726 0)
(-0.335891 1.04913 0)
(-0.0935813 0.600564 0)
(-0.451654 0.761308 0)
(-0.706062 1.00177 0)
(-0.979752 1.17779 0)
(-1.14203 1.28662 0)
(-1.1686 1.3019 0)
(-1.15694 1.21492 0)
(-1.25417 1.08167 0)
(-1.4186 0.920346 0)
(-1.54009 0.638289 0)
(-1.56256 0.237645 0)
(-1.44548 -0.232001 0)
(-1.22466 -0.673507 0)
(-0.95955 -1.00776 0)
(-0.688897 -1.20929 0)
(-0.445033 -1.27719 0)
(-0.261573 -1.225 0)
(-0.149336 -1.10136 0)
(-0.096525 -0.955458 0)
(-0.0831209 -0.814954 0)
(-0.289864 -0.347683 0)
(0.202028 0.877122 0)
(-0.291592 1.0801 0)
(-0.0840825 0.816549 0)
(-0.535115 1.01809 0)
(-0.731484 1.24392 0)
(-0.926094 1.34239 0)
(-1.01759 1.36289 0)
(-1.07702 1.34962 0)
(-1.19688 1.32598 0)
(-1.40286 1.2596 0)
(-1.59475 1.06603 0)
(-1.6775 0.680373 0)
(-1.59251 0.132387 0)
(-1.36088 -0.462584 0)
(-1.06376 -0.964703 0)
(-0.742729 -1.31013 0)
(-0.428986 -1.48738 0)
(-0.159121 -1.50035 0)
(0.0271533 -1.36739 0)
(0.117674 -1.16458 0)
(0.123147 -0.96306 0)
(0.0815038 -0.792224 0)
(-0.28313 -0.302335 0)
(0.287582 0.862878 0)
(0.0313571 1.23882 0)
(-0.0214049 1.05079 0)
(-0.476484 1.26758 0)
(-0.625596 1.43092 0)
(-0.780413 1.46173 0)
(-0.872649 1.45969 0)
(-1.01174 1.4914 0)
(-1.23053 1.53336 0)
(-1.47453 1.46959 0)
(-1.6305 1.18085 0)
(-1.61537 0.630183 0)
(-1.42579 -0.0783959 0)
(-1.14173 -0.760849 0)
(-0.814278 -1.30065 0)
(-0.468247 -1.6499 0)
(-0.128709 -1.79941 0)
(0.147831 -1.73818 0)
(0.332045 -1.5048 0)
(0.407532 -1.19598 0)
(0.372441 -0.915872 0)
(0.268385 -0.711934 0)
(-0.172255 -0.283034 0)
(0.306613 0.674194 0)
(0.205777 1.30935 0)
(0.109741 1.38535 0)
(-0.344443 1.50663 0)
(-0.466546 1.59374 0)
(-0.617521 1.58403 0)
(-0.741327 1.60623 0)
(-0.944419 1.70173 0)
(-1.20044 1.7728 0)
(-1.41958 1.64321 0)
(-1.49649 1.19293 0)
(-1.39037 0.474273 0)
(-1.15662 -0.330578 0)
(-0.862472 -1.07057 0)
(-0.527316 -1.65056 0)
(-0.170777 -2.01181 0)
(0.155029 -2.11816 0)
(0.405246 -1.97413 0)
(0.564509 -1.63939 0)
(0.623265 -1.21255 0)
(0.570154 -0.828956 0)
(0.424454 -0.575884 0)
(-0.0905262 -0.572998 0)
(0.268811 0.603679 0)
(0.253958 1.24596 0)
(0.231575 1.68938 0)
(-0.206919 1.74785 0)
(-0.312527 1.7518 0)
(-0.469429 1.72459 0)
(-0.615584 1.7893 0)
(-0.839517 1.93319 0)
(-1.0757 1.98905 0)
(-1.23219 1.75033 0)
(-1.23484 1.14259 0)
(-1.07792 0.29977 0)
(-0.838499 -0.580011 0)
(-0.535518 -1.39533 0)
(-0.224968 -2.00402 0)
(0.108041 -2.35281 0)
(0.369269 -2.39414 0)
(0.551611 -2.16659 0)
(0.656741 -1.74075 0)
(0.685282 -1.21395 0)
(0.630989 -0.729079 0)
(0.482045 -0.414861 0)
(0.0226166 -0.476424 0)
(0.21345 0.464715 0)
(0.256693 1.18548 0)
(0.266901 1.91643 0)
(-0.107125 1.98498 0)
(-0.195028 1.90344 0)
(-0.3423 1.87196 0)
(-0.48273 1.9758 0)
(-0.684226 2.14043 0)
(-0.863534 2.14742 0)
(-0.950315 1.78685 0)
(-0.896395 1.04842 0)
(-0.720963 0.119323 0)
(-0.487546 -0.819364 0)
(-0.212464 -1.69406 0)
(0.0547251 -2.31541 0)
(0.304168 -2.61956 0)
(0.457831 -2.58243 0)
(0.539981 -2.27912 0)
(0.573136 -1.78599 0)
(0.564819 -1.19356 0)
(0.516139 -0.635073 0)
(0.396101 -0.263226 0)
(0.230321 -0.715415 0)
(0.201143 0.320094 0)
(0.262128 1.17393 0)
(0.229672 2.10373 0)
(-0.0566359 2.18968 0)
(-0.114558 2.03515 0)
(-0.23445 2.00226 0)
(-0.339954 2.13188 0)
(-0.487522 2.29228 0)
(-0.592129 2.23598 0)
(-0.621561 1.76975 0)
(-0.532935 0.93854 0)
(-0.357015 -0.0435201 0)
(-0.13906 -1.03209 0)
(0.0603461 -1.93604 0)
(0.26543 -2.54367 0)
(0.379157 -2.76646 0)
(0.396856 -2.6468 0)
(0.369451 -2.29248 0)
(0.330824 -1.76796 0)
(0.292462 -1.14868 0)
(0.254476 -0.556248 0)
(0.177643 -0.152412 0)
(0.250859 -0.985696 0)
(0.162772 0.417324 0)
(0.254783 1.20203 0)
(0.139247 2.16443 0)
(-0.0736527 2.33873 0)
(-0.0657323 2.12785 0)
(-0.145964 2.09132 0)
(-0.193544 2.23261 0)
(-0.270989 2.37242 0)
(-0.295803 2.25821 0)
(-0.272922 1.71981 0)
(-0.171646 0.832253 0)
(-0.0132777 -0.173517 0)
(0.170726 -1.22343 0)
(0.292431 -2.10643 0)
(0.37662 -2.64749 0)
(0.339139 -2.76438 0)
(0.222468 -2.57687 0)
(0.0969188 -2.20967 0)
(-0.00161031 -1.69271 0)
(-0.0608046 -1.08137 0)
(-0.0867502 -0.494303 0)
(-0.112295 -0.0873901 0)
(0.0703695 -1.20425 0)
(0.0742358 0.528711 0)
(0.176187 1.25285 0)
(-0.0868876 2.28696 0)
(-0.160159 2.40891 0)
(-0.0470438 2.15589 0)
(-0.077445 2.12201 0)
(-0.054403 2.26491 0)
(-0.0615455 2.37722 0)
(-0.00704122 2.218 0)
(0.0622655 1.6431 0)
(0.165723 0.738545 0)
(0.30707 -0.28195 0)
(0.422937 -1.3361 0)
(0.465554 -2.17141 0)
(0.408485 -2.60394 0)
(0.230249 -2.61683 0)
(0.00865587 -2.39712 0)
(-0.183543 -2.05829 0)
(-0.327264 -1.57915 0)
(-0.404141 -1.00369 0)
(-0.413472 -0.461879 0)
(-0.394764 -0.0741483 0)
(-0.166326 -1.25095 0)
(-0.0819771 0.561 0)
(-0.0207478 1.41413 0)
(-0.33535 2.39883 0)
(-0.251802 2.3602 0)
(-0.0440709 2.09875 0)
(-0.0226285 2.08792 0)
(0.0690621 2.22844 0)
(0.121003 2.31284 0)
(0.24294 2.12057 0)
(0.345021 1.54138 0)
(0.45234 0.662754 0)
(0.584384 -0.362919 0)
(0.636256 -1.36858 0)
(0.576343 -2.1108 0)
(0.393098 -2.42554 0)
(0.113335 -2.36457 0)
(-0.162703 -2.15628 0)
(-0.396943 -1.86631 0)
(-0.573592 -1.43899 0)
(-0.659091 -0.925407 0)
(-0.658367 -0.448279 0)
(-0.612564 -0.109897 0)
(-0.343382 -1.1295 0)
(-0.264402 0.470886 0)
(-0.253071 1.49332 0)
(-0.558864 2.37685 0)
(-0.284852 2.18314 0)
(-0.0349352 1.9632 0)
(0.0296248 1.99814 0)
(0.169942 2.13307 0)
(0.266273 2.19093 0)
(0.431856 1.97807 0)
(0.559089 1.4187 0)
(0.67755 0.587133 0)
(0.787818 -0.408941 0)
(0.775404 -1.32795 0)
(0.63208 -1.94863 0)
(0.365116 -2.15682 0)
(0.0402807 -2.06289 0)
(-0.247857 -1.89151 0)
(-0.503764 -1.6499 0)
(-0.693161 -1.28708 0)
(-0.780901 -0.857657 0)
(-0.773868 -0.470501 0)
(-0.695607 -0.216188 0)
(-0.449162 -0.672339 0)
(-0.517136 0.806338 0)
(-0.572631 1.57833 0)
(-0.611856 2.21999 0)
(-0.248923 1.91617 0)
(-0.00872942 1.78593 0)
(0.086277 1.87182 0)
(0.245102 1.99943 0)
(0.370974 2.03229 0)
(0.552415 1.8104 0)
(0.698218 1.27715 0)
(0.828878 0.476692 0)
(0.896717 -0.434421 0)
(0.835374 -1.22836 0)
(0.64861 -1.72637 0)
(0.351671 -1.85484 0)
(0.0381136 -1.76164 0)
(-0.234576 -1.62677 0)
(-0.483509 -1.43013 0)
(-0.662847 -1.14671 0)
(-0.743455 -0.820512 0)
(-0.723147 -0.536955 0)
(-0.62506 -0.36246 0)
(-0.547664 -0.325401 0)
(-0.447943 0.939078 0)
(-0.625453 1.57848 0)
(-0.496093 1.97592 0)
(-0.1536 1.62776 0)
(0.0368144 1.61114 0)
(0.143093 1.73276 0)
(0.294743 1.85119 0)
(0.434416 1.86076 0)
(0.61109 1.63543 0)
(0.767737 1.12565 0)
(0.894974 0.384558 0)
(0.92423 -0.414527 0)
(0.842739 -1.09424 0)
(0.646132 -1.48718 0)
(0.363075 -1.56653 0)
(0.0910995 -1.49166 0)
(-0.145032 -1.38739 0)
(-0.357621 -1.23569 0)
(-0.507212 -1.031 0)
(-0.572413 -0.80307 0)
(-0.554184 -0.608401 0)
(-0.484009 -0.479355 0)
(-0.665046 0.180858 0)
(-0.0530612 1.024 0)
(-0.493874 1.50073 0)
(-0.269785 1.74956 0)
(-0.0389319 1.38388 0)
(0.0924258 1.46573 0)
(0.190276 1.60402 0)
(0.319509 1.70872 0)
(0.456745 1.69592 0)
(0.61913 1.4652 0)
(0.775721 0.979563 0)
(0.880073 0.317444 0)
(0.894985 -0.379344 0)
(0.823094 -0.95595 0)
(0.638346 -1.26081 0)
(0.392339 -1.31553 0)
(0.168198 -1.26542 0)
(-0.024439 -1.19011 0)
(-0.192184 -1.08041 0)
(-0.311335 -0.93867 0)
(-0.370786 -0.782782 0)
(-0.37697 -0.642107 0)
(-0.353039 -0.531981 0)
(-0.671256 0.243217 0)
(0.570963 1.07719 0)
(-0.237148 1.55977 0)
(0.0304389 1.60493 0)
(0.0594672 1.24119 0)
(0.14294 1.35559 0)
(0.218915 1.49945 0)
(0.319959 1.58582 0)
(0.442538 1.54828 0)
(0.589676 1.30619 0)
(0.730255 0.850208 0)
(0.813124 0.262085 0)
(0.844487 -0.352667 0)
(0.791252 -0.83246 0)
(0.628478 -1.06381 0)
(0.425402 -1.1069 0)
(0.24341 -1.08029 0)
(0.0867677 -1.03054 0)
(-0.0478834 -0.953857 0)
(-0.149722 -0.852715 0)
(-0.213306 -0.739797 0)
(-0.24331 -0.63147 0)
(-0.250724 -0.538881 0)
(-0.580303 0.177958 0)
(0.493011 0.857652 0)
(0.119826 1.61691 0)
(0.219484 1.59275 0)
(0.147304 1.22569 0)
(0.176784 1.28686 0)
(0.227777 1.4237 0)
(0.301603 1.48791 0)
(0.404919 1.42018 0)
(0.533653 1.16658 0)
(0.64916 0.741365 0)
(0.739802 0.199529 0)
(0.798557 -0.347477 0)
(0.756139 -0.730869 0)
(0.617097 -0.899296 0)
(0.452372 -0.936067 0)
(0.302843 -0.927124 0)
(0.17048 -0.896306 0)
(0.0547649 -0.842232 0)
(-0.038931 -0.767956 0)
(-0.106003 -0.683609 0)
(-0.147792 -0.600429 0)
(-0.170288 -0.526677 0)
(-0.466125 0.19558 0)
(0.427716 0.707142 0)
(0.0480077 1.608 0)
(0.265154 1.65878 0)
(0.190569 1.27041 0)
(0.18956 1.25737 0)
(0.223276 1.37564 0)
(0.274096 1.4134 0)
(0.357227 1.31362 0)
(0.463846 1.05046 0)
(0.576745 0.632163 0)
(0.698003 0.113738 0)
(0.764982 -0.354787 0)
(0.722545 -0.643816 0)
(0.604174 -0.762432 0)
(0.468927 -0.794887 0)
(0.342525 -0.796841 0)
(0.226627 -0.778801 0)
(0.123102 -0.740677 0)
(0.0366551 -0.68714 0)
(-0.0293445 -0.625375 0)
(-0.0753506 -0.562928 0)
(-0.105065 -0.504895 0)
(-0.344158 0.208407 0)
(0.395801 0.719412 0)
(-0.273843 1.57659 0)
(0.332742 1.64443 0)
(0.217397 1.30003 0)
(0.196609 1.25078 0)
(0.216162 1.34891 0)
(0.244727 1.35915 0)
(0.310166 1.22731 0)
(0.413228 0.937269 0)
(0.554315 0.500098 0)
(0.69079 0.0151866 0)
(0.741749 -0.360412 0)
(0.692763 -0.56496 0)
(0.589006 -0.646236 0)
(0.474126 -0.674759 0)
(0.363866 -0.682921 0)
(0.260596 -0.67403 0)
(0.167615 -0.648715 0)
(0.0889854 -0.611597 0)
(0.0265131 -0.567882 0)
(-0.0202441 -0.522038 0)
(-0.0535141 -0.477305 0)
(-0.261875 0.031973 0)
(0.364345 0.797713 0)
(-0.115647 1.23583 0)
(0.413765 1.51962 0)
(0.304554 1.33481 0)
(0.223872 1.27149 0)
(0.206462 1.34261 0)
(0.216577 1.32158 0)
(0.285862 1.14218 0)
(0.419586 0.802922 0)
(0.586013 0.354125 0)
(0.70358 -0.0686235 0)
(0.723709 -0.350411 0)
(0.664924 -0.488057 0)
(0.5701 -0.543485 0)
(0.46879 -0.569281 0)
(0.370645 -0.5817 0)
(0.278426 -0.580369 0)
(0.195518 -0.566235 0)
(0.124646 -0.542858 0)
(0.0666093 -0.513221 0)
(0.0207303 -0.480513 0)
(-0.0137907 -0.447013 0)
(-0.182945 -0.0573645 0)
(0.286576 0.764981 0)
(0.164716 1.20229 0)
(0.335896 1.38961 0)
(0.362566 1.37795 0)
(0.242074 1.33058 0)
(0.178014 1.36019 0)
(0.196694 1.26937 0)
(0.312289 1.01419 0)
(0.489987 0.636993 0)
(0.648122 0.218723 0)
(0.720911 -0.1198 0)
(0.706355 -0.319437 0)
(0.6367 -0.409121 0)
(0.546708 -0.449098 0)
(0.454909 -0.474606 0)
(0.366829 -0.491186 0)
(0.284778 -0.496998 0)
(0.211104 -0.492689 0)
(0.147339 -0.480301 0)
(0.0938612 -0.461943 0)
(0.0501055 -0.439864 0)
(0.015675 -0.415713 0)
(-0.229163 0.0393358 0)
(0.167135 0.5952 0)
(0.283426 1.13306 0)
(0.370925 1.40866 0)
(0.376038 1.4212 0)
(0.266273 1.41453 0)
(0.185664 1.3907 0)
(0.242675 1.17077 0)
(0.420071 0.81151 0)
(0.604345 0.4633 0)
(0.711628 0.127509 0)
(0.734077 -0.129571 0)
(0.687033 -0.26657 0)
(0.605746 -0.325708 0)
(0.518576 -0.359986 0)
(0.434388 -0.388484 0)
(0.355178 -0.410208 0)
(0.282259 -0.422969 0)
(0.216784 -0.427017 0)
(0.159491 -0.423641 0)
(0.110547 -0.414427 0)
(0.0695504 -0.400969 0)
(0.036195 -0.384599 0)
(-0.0221197 -0.00530629 0)
(-0.00317063 0.212186 0)
(0.243745 0.944022 0)
(0.405439 1.36941 0)
(0.469454 1.52685 0)
(0.395493 1.5171 0)
(0.38112 1.38815 0)
(0.529883 1.02403 0)
(0.647382 0.670535 0)
(0.717483 0.395186 0)
(0.765221 0.0995219 0)
(0.742947 -0.0990403 0)
(0.661349 -0.19035 0)
(0.56917 -0.236748 0)
(0.48507 -0.275185 0)
(0.407798 -0.310039 0)
(0.336633 -0.337771 0)
(0.271894 -0.357141 0)
(0.213857 -0.368458 0)
(0.16271 -0.372619 0)
(0.118379 -0.370834 0)
(0.0804959 -0.364375 0)
(0.0489209 -0.354464 0)
(0.0520047 0.0412044 0)
(-0.0656708 0.158087 0)
(0.129341 0.678407 0)
(0.340132 1.18442 0)
(0.496003 1.46055 0)
(0.57579 1.50732 0)
(0.654932 1.33646 0)
(0.7344 0.974738 0)
(0.782473 0.629245 0)
(0.798167 0.376164 0)
(0.796776 0.123377 0)
(0.719486 -0.0220109 0)
(0.613291 -0.0945475 0)
(0.52145 -0.147681 0)
(0.443828 -0.196742 0)
(0.374223 -0.23928 0)
(0.311143 -0.273389 0)
(0.254335 -0.299033 0)
(0.20352 -0.316663 0)
(0.158447 -0.32707 0)
(0.118882 -0.331324 0)
(0.0845142 -0.330603 0)
(0.0554069 -0.326123 0)
(0.0260068 0.0474599 0)
(-0.0785989 0.239472 0)
(-0.0274391 0.482617 0)
(0.200521 0.944525 0)
(0.402655 1.27764 0)
(0.560742 1.3803 0)
(0.683732 1.25032 0)
(0.76431 0.93351 0)
(0.798864 0.599556 0)
(0.794869 0.350568 0)
(0.73673 0.185087 0)
(0.636675 0.079152 0)
(0.540543 0.000240369 0)
(0.461687 -0.0678626 0)
(0.393865 -0.12723 0)
(0.333282 -0.176948 0)
(0.279031 -0.217265 0)
(0.230614 -0.248665 0)
(0.187299 -0.271691 0)
(0.148508 -0.287161 0)
(0.113954 -0.296222 0)
(0.0834703 -0.300175 0)
(0.0573609 -0.300338 0)
(-0.0178049 0.0877727 0)
(-0.114489 0.268113 0)
(-0.146459 0.445563 0)
(-0.000587697 0.721412 0)
(0.22619 1.04854 0)
(0.438 1.20419 0)
(0.598956 1.11553 0)
(0.694876 0.851418 0)
(0.713002 0.558898 0)
(0.670335 0.398468 0)
(0.601879 0.274936 0)
(0.52486 0.167393 0)
(0.454943 0.0763613 0)
(0.392274 -0.00153261 0)
(0.33598 -0.068077 0)
(0.28581 -0.12426 0)
(0.241675 -0.170579 0)
(0.202535 -0.207061 0)
(0.167073 -0.234268 0)
(0.134637 -0.253398 0)
(0.105121 -0.265973 0)
(0.0785993 -0.273507 0)
(0.0555777 -0.277462 0)
(-0.0326317 0.159182 0)
(-0.125161 0.329483 0)
(-0.193146 0.434664 0)
(-0.150592 0.605184 0)
(0.00818792 0.819726 0)
(0.223641 0.954978 0)
(0.405547 0.92117 0)
(0.487816 0.752568 0)
(0.524589 0.589199 0)
(0.506673 0.454561 0)
(0.462616 0.333667 0)
(0.415328 0.22677 0)
(0.365714 0.132909 0)
(0.316602 0.0510055 0)
(0.271695 -0.0205857 0)
(0.233231 -0.083143 0)
(0.200169 -0.134637 0)
(0.169962 -0.174248 0)
(0.141372 -0.203643 0)
(0.114494 -0.224946 0)
(0.0897109 -0.240008 0)
(0.0673043 -0.25035 0)
(0.0478039 -0.257425 0)
(-0.0275877 0.231967 0)
(-0.0998796 0.40812 0)
(-0.155867 0.462619 0)
(-0.153253 0.555703 0)
(-0.0706913 0.690557 0)
(0.0815622 0.788261 0)
(0.234779 0.794425 0)
(0.336551 0.711469 0)
(0.383122 0.590603 0)
(0.380608 0.472001 0)
(0.356925 0.366094 0)
(0.322489 0.267665 0)