/*--------------------------------*- C++ -*----------------------------------*\
| =========                 |                                                 |
| \\      /  F ield         | OpenFOAM: The Open Source CFD Toolbox           |
|  \\    /   O peration     | Version:  2.3.0                                 |
|   \\  /    A nd           | Web:      www.OpenFOAM.org                      |
|    \\/     M anipulation  |                                                 |
\*---------------------------------------------------------------------------*/
FoamFile
{
    version     2.0;
    format      ascii;
    class       volScalarField;
    location    "0.05";
    object      alpha.water;
}
// * * * * * * * * * * * * * * * * * * * * * * * * * * * * * * * * * * * * * //

dimensions      [0 0 0 0 0 0 0];

internalField   nonuniform List<scalar> 
725
(
1
1
1.00003
1.00001
0.941582
1
1
0.999999
1.00001
0.990141
1
1
0.999995
1.00004
1
1
1
0.999991
1.00003
1
1
1
0.999967
1.00001
0.855604
0.720671
0.174004
0.168057
0.752806
0.999986
0.999918
0.999941
1.00001
1.00003
1.00001
0.854233
0.518866
0.0374984
0.0683065
0.478173
0.77698
0.999882
0.999895
0.999891
0.999941
0.999967
1.00001
1.00001
1.00001
1.00001
1.00002
1.00002
1.00002
1.00003
1.00003
1.00002
1.00001
1.00001
0.999981
1
1.00001
0.595551
0.0282233
0.0107752
0.0694683
0.235983
0.615145
0.989827
0.991026
0.556676
0.699618
0.193273
0.163625
0.676913
0.999986
0.999924
0.999891
0.999878
0.999932
1
0.857662
0.518411
0.0285861
0.0676945
0.419877
0.745393
0.999847
0.999873
0.999868
0.999824
0.999778
0.99977
0.999811
0.999855
0.999879
0.999892
0.999901
0.999909
0.999916
0.999921
0.999909
0.999897
0.999924
0.999964
1
1
0.60217
0.0223289
0.0106879
0.0109531
0.300351
0.54661
0.970675
0.987422
0.32337
0.323815
0.0896532
0.156071
0.850876
0.999986
0.999946
0.999924
0.999897
0.999926
1.00001
0.897231
0.371895
0.0177549
0.0417475
0.107349
0.786303
0.999796
0.999867
0.999854
0.999788
0.999657
0.999581
0.999621
0.999711
0.999778
0.999819
0.999841
0.999854
0.999863
0.999869
0.999868
0.99987
0.99991
0.999956
0.999999
1
0.596135
0.0212746
0.0106373
0.0100469
0.170141
0.823527
0.998662
0.958915
0.303338
0.105772
0.0594513
0.0669757
0.733522
0.99997
0.99998
0.999978
0.999918
0.999934
1.00001
0.958217
0.313734
0.011515
0.00784402
0.014957
0.686994
0.999823
0.999865
0.999862
0.999761
0.999527
0.999304
0.9993
0.999449
0.999593
0.999696
0.999762
0.999802
0.999824
0.999835
0.999837
0.999844
0.99989
0.999908
1.00001
1
0.608931
0.0299074
0.0100006
0.00932174
0.115453
0.913576
0.999726
0.999757
0.339955
0.0236262
0.0541125
0.500618
0.946673
0.997796
0.999963
0.999864
0.9999
0.999939
1.00001
0.974532
0.25478
0.00586149
0.00390416
0.0113057
0.49268
0.999898
0.999847
0.999819
0.999701
0.99929
0.99885
0.998772
0.998983
0.999228
0.999396
0.999498
0.999568
0.999633
0.999696
0.999751
0.999798
0.999863
0.999915
1.00001
0.958197
0.6104
0.0368462
0.00933887
0.00933227
0.1462
0.952818
0.999929
0.99982
0.307789
0.00414513
0.0971416
0.849498
0.886906
0.975797
0.999854
0.999624
0.999858
0.999927
1.00004
0.987676
0.248692
0.00398029
0.00352521
0.00873159
0.449309
0.999898
0.999842
0.99982
0.999663
0.998983
0.998017
0.997675
0.998204
0.998754
0.999105
0.999297
0.999416
0.999526
0.999634
0.999723
0.999787
0.999858
0.999737
1
0.941586
0.54139
0.00984858
0.00935372
0.00931856
0.166044
0.96399
0.999971
0.98151
0.212889
0.0270126
0.178211
0.883048
0.892964
0.960073
0.998838
0.999862
0.999839
0.999929
1.00011
0.989717
0.252923
0.00379938
0.00371218
0.00376073
0.354402
0.999897
0.999854
0.999813
0.999594
0.998763
0.997831
0.997488
0.997908
0.99846
0.99886
0.999109
0.999278
0.999423
0.999563
0.999684
0.999772
0.999852
0.999765
1.00002
0.932389
0.650564
0.0335012
0.00948547
0.00869918
0.165838
0.961134
0.99997
0.97248
0.172668
0.0647579
0.482057
0.917264
0.897385
0.954331
0.999162
0.999789
0.999806
0.999948
1.00014
0.993723
0.244948
0.0036253
0.00351724
0.00357897
0.34965
0.998751
0.999866
0.9998
0.999502
0.998619
0.997754
0.997423
0.997785
0.998306
0.998714
0.999001
0.999207
0.999369
0.999513
0.999647
0.999754
0.999844
0.999756
0.999961
0.951366
0.652802
0.0439675
0.0072987
0.00728718
0.192662
0.962587
0.99997
0.96395
0.144468
0.108554
0.61579
0.939615
0.904913
0.994685
0.999733
0.999204
0.999688
0.999978
1.00012
0.994864
0.224316
0.00337252
0.00331397
0.00406296
0.407619
0.999908
0.999874
0.999783
0.999396
0.998546
0.997784
0.997488
0.997791
0.998282
0.998694
0.998998
0.999219
0.999377
0.9995
0.999621
0.999736
0.999836
0.999928
0.999971
0.968719
0.605956
0.0527598
0.00724761
0.00637378
0.228068
0.976432
0.999977
0.948577
0.117063
0.221264
0.591753
0.94985
0.981069
0.999944
0.999763
0.999422
0.999676
1
1.00011
0.9965
0.22311
0.00335043
0.00333443
0.00313947
0.330273
0.999908
0.999866
0.999769
0.999321
0.998599
0.997903
0.997646
0.99796
0.99846
0.998849
0.999061
0.999269
0.999431
0.999524
0.999613
0.99972
0.999827
0.999799
0.999983
0.969251
0.510326
0.0734322
0.00653186
0.00624996
0.245898
0.985386
0.999977
0.935911
0.0966829
1
1
1
1.00006
0.953337
1
1
1
1.0001
0.999954
1
1
1
1.00001
1
1
1
1
0.999935
1
1
1
0.999999
0.99994
0.994751
0.555255
0.704726
0.958151
0.999923
0.99995
0.99984
0.999772
0.9998
1.00002
1.00004
1
0.221148
0.00335141
0.0033517
0.00334503
0.244371
0.999908
0.999822
0.999695
0.999386
0.998958
0.998508
0.998381
0.998632
0.998999
0.999251
0.999555
0.999688
0.999666
0.999658
0.999667
0.999709
0.999756
0.999977
0.999985
0.992013
0.570457
0.0739095
0.00583942
0.00597989
0.257141
0.992193
0.999824
0.897152
0.0523466
0.846264
0.890384
0.977388
0.999949
0.99995
0.999894
0.999865
0.99986
1.00002
1.00003
1
0.219004
0.00335186
0.00335377
0.00335579
0.180759
0.999905
0.999795
0.999649
0.999503
0.999322
0.999124
0.999125
0.999304
0.999481
0.999575
0.999622
0.999648
0.999665
0.999678
0.999692
0.999717
0.999755
0.999842
0.999929
0.998383
0.533139
0.00578981
0.00523744
0.00501197
0.317981
0.999457
0.999564
0.829966
0.0137289
0.845705
0.969098
0.987364
0.998346
1.00006
0.999932
0.999938
0.999954
1.00004
1.00003
0.985829
0.212411
0.00343425
0.00335879
0.00341812
0.126876
0.985351
0.999908
0.999666
0.999614
0.999553
0.999497
0.99953
0.999615
0.999681
0.999715
0.99973
0.999736
0.999738
0.999737
0.999739
0.999748
0.999761
0.999815
0.999879
0.999982
0.530444
0.00528147
0.00501196
0.00500162
0.378647
0.999454
0.999424
0.761989
0.0188163
0.872595
0.977632
0.985713
0.994772
1.00006
1.00003
1.00001
1.00002
1.00004
1.00003
0.975094
0.20941
0.0034482
0.00339638
0.00342089
0.0952873
0.949592
0.999908
0.999713
0.999698
0.999692
0.999704
0.999745
0.999792
0.999822
0.999836
0.99984
0.999836
0.999828
0.999819
0.999811
0.999808
0.999808
0.999835
0.999893
0.999982
0.45696
0.00500645
0.00500726
0.00500599
0.421463
0.999418
0.999313
0.701496
0.0977558
0.980927
0.993679
0.99396
0.988929
0.999958
1.00002
1.00001
1.00002
1.00004
1.00002
0.960337
0.204796
0.00349575
0.00344518
0.00347998
0.089666
0.929657
0.999908
0.999879
0.999904
0.999933
0.999951
0.999969
0.999991
1.00001
1.00001
0.999982
0.999956
0.999936
0.999926
0.999921
0.99992
0.999929
0.999946
1.00005
0.998919
0.449062
0.00500644
0.00500645
0.00500723
0.439263
0.999307
0.996622
0.690211
0.127744
)
;

boundaryField
{
    AirInlet
    {
        type            fixedValue;
        value           uniform 0;
    }
    WaterInlet
    {
        type            fixedValue;
        value           uniform 1;
    }
    ChannelWall
    {
        type            zeroGradient;
    }
    Outlet
    {
        type            inletOutlet;
        inletValue      uniform 0;
        value           nonuniform List<scalar> 
15
(
0
0
0.303338
0.339955
0.307789
0
0
0
0
0
0
0
0.0188163
0
0.127744
)
;
    }
    FrontAndBack
    {
        type            empty;
    }
}


// ************************************************************************* //
