/*--------------------------------*- C++ -*----------------------------------*\
| =========                 |                                                 |
| \\      /  F ield         | OpenFOAM: The Open Source CFD Toolbox           |
|  \\    /   O peration     | Version:  2.3.0                                 |
|   \\  /    A nd           | Web:      www.OpenFOAM.org                      |
|    \\/     M anipulation  |                                                 |
\*---------------------------------------------------------------------------*/
FoamFile
{
    version     2.0;
    format      ascii;
    class       volScalarField;
    location    "0.05";
    object      p_rgh;
}
// * * * * * * * * * * * * * * * * * * * * * * * * * * * * * * * * * * * * * //

dimensions      [1 -1 -2 0 0 0 0];

internalField   nonuniform List<scalar> 
725
(
-717.508
-753.186
-753.099
-616.552
-371.924
-723.37
-754.494
-757.882
-632.651
-497.843
-726.623
-758.094
-775.152
-705.802
-738.863
-727.013
-763.309
-799.04
-838.438
-1130.49
-724.593
-769.576
-822.116
-1009.26
-2308.64
296.045
485.035
325.904
-509.409
-576.35
-452.052
-390.032
-374.096
-376.998
-389.3
-338.527
-309.085
-302.726
-412.586
-397.756
-345.389
-479.995
-503.881
-513.66
-524.548
-530.426
-533.221
-535.626
-538.452
-541.165
-543.557
-545.695
-547.651
-549.428
-551.045
-552.757
-555.272
-557.806
-569.452
-569.643
-593.815
-618.284
-598.34
-563.218
-539.407
-498.742
-650.578
-84.1649
-13.8962
479.3
366.296
455.606
365.143
-646.274
-635.144
-461.83
-389.01
-372.706
-378.03
-398.673
-361.209
-316.571
-288.533
-412.914
-560.059
-427.313
-498.773
-507.226
-513.22
-524.78
-531.165
-534.285
-536.55
-539.133
-541.694
-544.021
-546.143
-548.123
-549.914
-551.528
-553.2
-555.67
-557.842
-568.968
-569.83
-608.105
-670.513
-601.618
-569.16
-580.865
-419.103
-492.772
-297.895
-298.863
24.2488
66.3511
559.211
397.939
-1037.64
-674.925
-461.511
-383.35
-367.274
-373.846
-401.794
-449.117
-480.126
-273.078
-379.027
-477.148
-478.973
-525.818
-509.56
-512.012
-525.361
-531.512
-534.493
-536.624
-539.185
-541.72
-544.027
-546.151
-548.162
-549.956
-551.531
-553.07
-555.403
-556.941
-567.76
-568.467
-609.001
-697.899
-607.047
-574.174
-571.417
-661.29
-736.831
-351.007
-629.55
14.9599
471.498
802.144
788.355
-1060.65
-648.419
-444.502
-370.751
-358.5
-364.35
-390.526
-443.545
-475.053
-258.158
-272.128
-262.747
-700.539
-611.378
-519.106
-514.679
-527.271
-532.233
-534.713
-536.587
-539.21
-541.761
-544.059
-546.183
-548.23
-550.003
-551.492
-552.83
-554.924
-555.682
-565.686
-569.274
-619.54
-625.566
-624.184
-574.932
-571.232
-602.443
-622.442
-454.445
-491.658
-191.237
1116.87
909.439
-404.559
-583.491
-554.512
-418.999
-357.938
-347.847
-350.374
-366.779
-409.442
-411.452
-247.254
-242.208
-284.514
-381.449
-620.571
-530.885
-522.627
-530.32
-533.055
-534.843
-536.389
-539.17
-541.8
-544.127
-546.247
-548.337
-550.063
-551.422
-552.467
-554.368
-554.209
-562.303
-567.788
-805.24
-1454.05
-594.831
-571.851
-570.219
-610.288
-542.164
-523.846
-558.804
-249.941
1254.35
650.899
210.833
-185.992
-573.496
-414.95
-352.104
-342.429
-342.515
-351.576
-310.803
-282.168
-249.675
-237.455
-262.578
-829.829
-682.677
-535.081
-526.801
-532.354
-533.413
-533.76
-535.261
-538.825
-541.823
-544.234
-546.311
-548.453
-550.152
-551.44
-552.249
-554.319
-553.245
-558.151
-537.117
-542.15
-100.884
-474.159
-583.216
-558.8
-621.674
-662.153
-555.627
-734.677
-238.544
1192.29
332.163
297.862
-250.388
-192.448
-398.844
-339.739
-340.222
-339.763
-347.436
-276.63
-221.167
-251.876
-238.681
-243.815
-350.558
-697.677
-531.607
-527.911
-533.071
-533.338
-533.032
-534.881
-538.522
-541.724
-544.228
-546.287
-548.429
-550.124
-551.403
-552.156
-554.247
-552.901
-557.298
-530.023
-326.954
887.55
-588.906
-583.825
-553.967
-597.897
-708.707
-559.789
-804.064
-202.438
1225.34
255.387
308.062
-293.537
4.59975
-385.324
-337.416
-337.705
-337.116
-342.908
-293.453
-279.605
-251.162
-244.706
-242.981
-9.05516
-648.792
-527.037
-529.05
-533.65
-532.685
-531.18
-532.189
-535.712
-539.457
-542.313
-545.258
-547.142
-548.964
-551.144
-552.019
-554.103
-552.544
-554.599
-523.785
-488.988
1314.15
-625.559
-560.556
-548.89
-705.787
-674.001
-557.207
-875.446
-152.538
1185.32
1030.77
419.683
-253.204
-304.247
-376.45
-332.161
-334.061
-334.296
-336.849
-349.069
-340.982
-247.975
-244.861
-260.695
968.954
-546.241
-529.612
-530.318
-533.88
-530.983
-532.058
-534.781
-535.862
-538.6
-541.592
-545.169
-547.568
-549.215
-550.656
-551.704
-553.93
-552.24
-547.386
-522.455
-418.558
202.514
-605.927
-560.115
-545.198
-594.913
-593.327
-553.533
-949.062
-91.757
964.881
763.949
525.576
-141.161
-286.727
-359.836
-332.962
-331.04
-331.495
-332.558
-364.411
-358.975
-247.45
-246.482
-260.897
-81.7159
-570.157
-533.641
-531.811
-533.589
-532.231
-533.551
-535.153
-537.967
-541.957
-544.791
-546.699
-548.335
-549.892
-551.285
-551.324
-553.739
-552.069
-551.884
-528.548
-456.851
333.153
-549.161
-550.045
-543.219
-455.016
-503.292
-555.31
-990.758
-49.8342
40.369
-0.38467
-3.21134
-56.0862
50.5642
37.2972
1.48705
-4.04299
-49.9989
-13.9749
37.0443
2.96328
-1.98851
-41.0278
27.2099
39.813
3.58865
-1.40706
-37.6297
19.2657
45.5406
3.62718
-0.25924
-27.6596
58.4754
490.738
1143.84
492.031
-16.8311
-234.031
-317.721
-332.585
-327.69
-324.497
-322.037
-303.955
-279.858
-250.6
-246.897
-250.768
-539.033
-745.201
-555.742
-536.89
-535.779
-536.228
-535.523
-536.268
-538.826
-542.205
-544.844
-546.925
-548.514
-550.003
-551.515
-552.711
-553.228
-551.79
-549.689
-551.55
-492.727
-325.79
-521.807
-541.811
-534.759
-433.776
-460.746
-556.606
-1047.56
25.1585
192.194
252.048
342.911
42.6765
-182.502
-276.959
-310.069
-314.764
-313.358
-303.969
-254.881
-253.307
-251.656
-245.749
-250.334
-342.928
-618.363
-562.81
-544.159
-539.312
-537.882
-536.936
-537.338
-539.334
-542.186
-544.707
-546.788
-548.453
-549.945
-551.348
-552.472
-552.971
-552.027
-551.3
-534.526
-477.247
-538.751
-601.154
-551.628
-533.345
-524.362
-436.877
-499.738
-1307.05
90.3035
227.369
164.01
222.27
49.2276
-161.339
-245.657
-291.435
-303.156
-304.268
-293.87
-261.327
-251.19
-251.53
-244.9
-249.779
-288.357
-567.836
-569.428
-550.531
-542.455
-539.224
-537.806
-537.918
-539.573
-542.145
-544.612
-546.713
-548.399
-549.874
-551.213
-552.288
-552.903
-552.575
-554.536
-556.317
-562.728
-687.503
-582.014
-549.801
-538.854
-466.993
-345.969
-373.52
-1426.95
100.408
133.305
143.91
169.135
49.2236
-154.534
-226.436
-277.967
-294.481
-298.041
-290.089
-289.069
-252.933
-251.179
-244.394
-248.47
-272.852
-637.542
-585.941
-555.962
-544.793
-540.116
-538.227
-538.13
-539.638
-542.106
-544.559
-546.659
-548.354
-549.822
-551.105
-552.106
-552.709
-553.089
-557.868
-575.271
-639.284
-689.041
-570.004
-547.488
-542.866
-412.307
-268.694
-91.7965
-634.819
-71.441
333.909
172.481
169.609
75.3873
-151.382
-217.901
-270.761
-289.553
-294.794
-288.662
-310.15
-251.62
-249.956
-244.111
-248.741
-268.93
-679.456
-597.191
-557.499
-544.971
-539.491
-537.3
-537.187
-538.779
-541.284
-543.839
-546.085
-547.874
-549.381
-550.612
-551.493
-551.906
-552.438
-558.823
-584.878
-678.867
-735.423
-566.093
-546.271
-543.397
-404.682
-239.291
16.4487
-464.612
-73.6894
)
;

boundaryField
{
    AirInlet
    {
        type            fixedFluxPressure;
        gradient        nonuniform List<scalar> 5(2.75694e+06 -3.64495e+06 -1.37799e+06 2.74052e+07 3.92263e+07);
        value           nonuniform List<scalar> 5(1281.92 1155.84 1211.56 1459.37 1357.14);
    }
    WaterInlet
    {
        type            fixedFluxPressure;
        gradient        nonuniform List<scalar> 10(-0.0345696 -24.4706 -18.331 0.00925563 -0.502377 -0.13802 0.815341 -11.6198 -6.98766 0.692248);
        value           nonuniform List<scalar> 10(-717.508 -723.371 -726.623 -727.013 -724.593 40.369 37.2972 37.0442 39.8129 45.5406);
    }
    ChannelWall
    {
        type            fixedFluxPressure;
        gradient        uniform 0;
        value           nonuniform List<scalar> 
110
(
-724.593
-769.576
-822.116
-1009.26
-2308.64
40.369
-0.38467
-3.21134
-56.0862
50.5642
45.5406
3.62718
-0.25924
-27.6596
58.4754
333.909
172.481
169.609
75.3873
-151.382
-217.901
-270.761
-289.553
-294.794
-288.662
-310.15
-251.62
-249.956
-244.111
-248.741
-268.93
-679.456
-597.191
-557.499
-544.971
-539.491
-537.3
-537.187
-538.779
-541.284
-543.839
-546.085
-547.874
-549.381
-550.612
-551.493
-551.906
-552.438
-558.823
-584.878
-678.867
-735.423
-566.093
-546.271
-543.397
-404.682
-239.291
16.4487
-464.612
-73.6894
-717.508
-753.186
-753.099
-616.552
-371.924
296.045
485.035
325.904
-509.409
-576.35
-452.052
-390.032
-374.096
-376.998
-389.3
-338.527
-309.085
-302.726
-412.586
-397.756
-345.389
-479.995
-503.881
-513.66
-524.548
-530.426
-533.221
-535.626
-538.452
-541.165
-543.557
-545.695
-547.651
-549.428
-551.045
-552.757
-555.272
-557.806
-569.452
-569.643
-593.815
-618.284
-598.34
-563.218
-539.407
-498.742
-650.578
-84.1649
-13.8962
479.3
)
;
    }
    Outlet
    {
        type            totalPressure;
        rho             rho;
        psi             none;
        gamma           1;
        p0              uniform 0;
        value           nonuniform List<scalar> 
15
(
-0.0480189
-0.0132229
0
0
0
-0.129042
-0.107413
-0.158053
-0.274546
-0.334323
-0.454878
-0.0392335
0
0
0
)
;
    }
    FrontAndBack
    {
        type            empty;
    }
}


// ************************************************************************* //
