/*--------------------------------*- C++ -*----------------------------------*\
| =========                 |                                                 |
| \\      /  F ield         | OpenFOAM: The Open Source CFD Toolbox           |
|  \\    /   O peration     | Version:  2.3.0                                 |
|   \\  /    A nd           | Web:      www.OpenFOAM.org                      |
|    \\/     M anipulation  |                                                 |
\*---------------------------------------------------------------------------*/
FoamFile
{
    version     2.0;
    format      ascii;
    class       surfaceScalarField;
    location    "0.05";
    object      phi;
}
// * * * * * * * * * * * * * * * * * * * * * * * * * * * * * * * * * * * * * //

dimensions      [0 3 -1 0 0 0 0];

internalField   nonuniform List<scalar> 
1380
(
3.08321e-13
1.91679e-13
2.52495e-13
5.58259e-14
1.74204e-13
7.82912e-14
-4.73864e-13
6.48068e-13
1.92819e-12
-2.40205e-12
5.95489e-13
9.61895e-14
5.75458e-13
7.58572e-14
3.84013e-13
2.69736e-13
-9.18027e-13
1.95011e-12
4.30168e-12
-3.29152e-12
6.82406e-13
-8.62168e-14
7.12937e-13
4.53266e-14
6.62343e-13
3.2033e-13
1.19121e-13
2.49333e-12
4.16559e-12
2.55207e-13
6.00761e-13
-1.86978e-13
6.34514e-13
1.1573e-14
7.67716e-13
1.87128e-13
1.51922e-12
1.74183e-12
5.26765e-12
4.17158e-13
3.13022e-13
3.24595e-13
5.11724e-13
2.25355e-12
7.5212e-12
-1.13658e-12
-1.26547e-12
-2.85831e-13
-8.50746e-13
-1.19829e-12
9.12462e-13
-2.2384e-12
1.04011e-12
-1.89773e-12
-3.40668e-13
-7.31771e-13
-1.16596e-12
-5.90032e-14
-6.72768e-13
1.93904e-13
-2.52907e-13
4.25353e-13
-2.31449e-13
6.14246e-13
-1.88893e-13
1.62978e-14
5.97948e-13
2.08007e-13
-1.91709e-13
-2.26951e-13
4.34957e-13
-9.02203e-13
6.75252e-13
3.41634e-12
-4.31855e-12
2.5366e-12
8.7974e-13
1.12243e-12
1.41418e-12
5.09367e-13
6.1306e-13
3.22361e-13
1.87005e-13
2.07788e-13
1.14572e-13
1.57688e-13
5.01002e-14
1.55815e-13
1.8733e-15
1.70369e-13
-1.45536e-14
1.73748e-13
-3.37972e-15
1.6957e-13
4.17857e-15
1.6451e-13
5.05967e-15
1.60892e-13
3.61859e-15
1.58539e-13
2.35243e-15
1.5889e-13
-3.50955e-16
1.64238e-13
-5.34763e-15
1.77105e-13
-1.28672e-14
1.94959e-13
-1.78539e-14
2.35123e-13
-4.01642e-14
2.34686e-13
4.36991e-16
6.33769e-13
-3.99083e-13
1.4253e-12
-7.91533e-13
-3.56058e-13
1.78136e-12
-3.49867e-12
3.14261e-12
-9.31502e-12
5.81635e-12
1.201e-12
-1.0516e-11
1.1964e-12
4.60034e-15
4.31471e-12
-3.11831e-12
3.07221e-12
1.2425e-12
-5.18961e-13
3.59117e-12
2.25465e-12
-1.33465e-12
-3.22234e-12
2.23251e-12
-4.4179e-12
-1.39486e-12
4.53983e-12
-3.77017e-12
3.41541e-12
-2.4441e-12
-1.66674e-12
-7.74276e-13
-2.83578e-12
1.70726e-13
-1.61777e-12
4.61875e-13
-5.44056e-13
7.37327e-13
-5.06902e-13
1.0673e-12
-5.18863e-13
1.42314e-14
1.65101e-12
-2.51601e-13
7.41221e-14
2.29648e-12
-2.11312e-12
-1.02705e-12
3.99878e-12
7.17424e-13
-6.06302e-12
2.71823e-12
-1.12107e-12
1.83356e-12
2.29885e-12
1.04497e-12
1.40165e-12
7.0776e-13
5.24218e-13
4.95049e-13
3.27282e-13
4.05048e-13
1.40102e-13
4.02102e-13
4.81944e-15
4.28172e-13
-4.06234e-14
4.35357e-13
-1.05646e-14
4.27581e-13
1.19538e-14
4.17418e-13
1.52229e-14
4.09387e-13
1.16497e-14
4.03377e-13
8.36204e-15
4.00746e-13
2.28053e-15
4.02623e-13
-7.22429e-15
4.07503e-13
-1.77474e-14
4.07729e-13
-1.808e-14
4.22494e-13
-5.49291e-14
4.89416e-13
-6.64848e-14
1.1987e-12
-1.10836e-12
1.84842e-12
-1.44126e-12
7.73907e-14
3.55239e-12
-3.01609e-12
6.23609e-12
-5.81944e-12
8.6197e-12
-1.53437e-12
-1.48011e-11
1.85785e-12
-3.38762e-12
5.61234e-12
-6.8728e-12
5.02968e-12
1.82516e-12
5.72907e-13
8.04794e-12
4.26641e-12
9.27632e-12
-1.22435e-11
3.789e-12
1.06941e-12
-2.82325e-12
1.11521e-11
-2.31596e-12
2.90812e-12
-9.94201e-13
-2.9885e-12
-5.80505e-14
-3.77193e-12
5.41994e-13
-2.21782e-12
6.15141e-13
-6.17203e-13
5.30778e-13
-4.2254e-13
4.0209e-13
-3.90175e-13
6.4637e-13
1.40673e-12
1.65403e-12
-9.33535e-13
5.17862e-12
-5.63771e-12
-1.21692e-12
1.03943e-11
4.42893e-13
-7.72283e-12
4.09451e-12
-4.77268e-12
2.93537e-12
3.45798e-12
1.64696e-12
2.69006e-12
9.80896e-13
1.19028e-12
6.98143e-13
6.10035e-13
5.99211e-13
2.39034e-13
5.9069e-13
1.33402e-14
6.12442e-13
-6.23761e-14
6.15535e-13
-1.36571e-14
6.0641e-13
2.10792e-14
5.96396e-13
2.52359e-14
5.87757e-13
2.0289e-14
5.78049e-13
1.80696e-14
5.67591e-13
1.27394e-14
5.53577e-13
6.78925e-15
5.25805e-13
1.00245e-14
4.60908e-13
4.68178e-14
3.78003e-13
2.79757e-14
5.04572e-13
-1.93053e-13
1.14281e-12
-1.7466e-12
1.07917e-12
-1.37762e-12
1.03819e-12
3.59337e-12
-1.78556e-12
9.05985e-12
-6.89759e-12
1.37317e-11
-1.00512e-11
-1.16475e-11
3.51909e-12
-1.69579e-11
4.60659e-12
-7.9603e-12
5.06586e-12
1.36589e-12
8.99886e-12
4.11494e-12
6.06513e-12
1.09779e-11
-2.28042e-11
5.33145e-12
6.71585e-12
5.91549e-13
1.5892e-11
9.5208e-13
2.54759e-12
1.46314e-12
-3.49955e-12
1.24787e-12
-3.55666e-12
1.00507e-12
-1.97502e-12
7.2633e-13
-3.38462e-13
2.78548e-13
2.52423e-14
-2.97053e-13
1.85426e-13
3.43578e-13
7.66103e-13
2.88901e-12
-3.47897e-12
1.27242e-12
-4.02112e-12
-5.90301e-12
1.75697e-11
-4.08163e-12
-9.54422e-12
2.29634e-12
-1.11507e-11
2.77082e-12
2.9835e-12
1.85621e-12
3.60467e-12
1.10791e-12
1.93858e-12
8.24348e-13
8.93602e-13
7.48084e-13
3.15299e-13
7.28923e-13
3.25017e-14
7.28118e-13
-6.15714e-14
7.16191e-13
-1.72995e-15
7.07381e-13
2.98887e-14
7.04102e-13
2.8515e-14
7.01165e-13
2.32259e-14
6.92034e-13
2.72002e-14
6.77619e-13
2.71549e-14
6.53664e-13
3.07439e-14
6.03565e-13
6.01242e-14
4.89061e-13
1.61322e-13
3.14651e-13
2.02386e-13
4.0143e-13
-2.79832e-13
7.06975e-13
-2.05215e-12
4.61569e-13
-1.13222e-12
-1.60636e-12
5.6613e-12
3.44456e-12
4.00893e-12
-2.05282e-12
1.92291e-11
-5.66923e-12
-8.03105e-12
2.09913e-12
-2.47263e-11
2.83399e-12
-8.69516e-12
3.65807e-12
5.41815e-13
6.26369e-12
1.50931e-12
5.69499e-12
-4.42497e-12
-1.0858e-11
-7.28447e-12
9.57535e-12
5.26645e-13
8.08088e-12
2.84847e-12
2.25765e-13
2.94818e-12
-3.59926e-12
2.17397e-12
-2.78246e-12
1.35686e-12
-1.1579e-12
8.00928e-13
2.17466e-13
2.37859e-13
5.88311e-13
-4.52145e-13
8.75431e-13
-4.07301e-13
7.21259e-13
2.34852e-12
-6.23479e-12
-1.64391e-12
-2.86915e-14
-5.45608e-12
2.13819e-11
1.34931e-12
-1.63496e-11
-9.53965e-13
-8.84738e-12
1.13682e-12
8.92712e-13
1.31639e-12
3.4251e-12
1.02366e-12
2.23131e-12
8.85605e-13
1.03166e-12
8.6501e-13
3.35894e-13
8.24501e-13
7.30111e-14
7.74201e-13
-1.1272e-14
7.34669e-13
3.78021e-14
7.3025e-13
3.43079e-14
7.41066e-13
1.76988e-14
7.50687e-13
1.36049e-14
7.48866e-13
2.90209e-14
7.39047e-13
3.6974e-14
7.18882e-13
5.09096e-14
6.72163e-13
1.06843e-13
5.4843e-13
2.85054e-13
3.08885e-13
4.41931e-13
1.68773e-13
-1.3972e-13
1.22237e-13
-2.00561e-12
1.89735e-12
-2.90733e-12
1.11182e-11
-3.5596e-12
8.66078e-12
6.46639e-12
5.09795e-12
2.27919e-11
3.38537e-12
-6.31847e-12
9.2194e-13
-2.22629e-11
8.54602e-13
-8.62782e-12
2.16451e-12
-7.68093e-13
1.20828e-12
2.46554e-12
6.58488e-12
-2.24353e-12
-8.41448e-12
-1.15147e-12
8.48328e-12
3.34276e-13
6.59513e-12
6.26502e-13
-6.64609e-14
5.67525e-13
-3.54028e-12
4.76299e-13
-2.69123e-12
2.9076e-13
-9.7236e-13
1.73716e-13
3.3451e-13
6.47776e-14
6.97249e-13
-6.99031e-14
1.01011e-12
-2.08404e-13
8.5976e-13
-7.15318e-14
-6.37166e-12
-7.10499e-13
6.10277e-13
-2.24426e-12
2.29157e-11
-8.99638e-13
-1.76942e-11
-6.43907e-13
-9.10311e-12
2.50951e-14
2.2371e-13
1.88446e-13
3.26175e-12
1.96421e-13
2.22334e-12
1.98962e-13
1.02912e-12
2.0522e-13
3.29636e-13
1.91746e-13
8.64849e-14
1.66952e-13
1.35217e-14
1.53624e-13
5.11298e-14
1.54634e-13
3.32978e-14
1.60127e-13
1.22056e-14
1.64572e-13
9.16028e-15
1.66455e-13
2.71382e-14
1.66454e-13
3.6975e-14
1.64715e-13
5.26485e-14
1.56723e-13
1.14835e-13
1.37795e-13
3.03983e-13
7.79196e-14
5.01806e-13
2.67983e-14
-8.85983e-14
-1.34825e-14
-1.96533e-12
1.61061e-13
-3.08187e-12
6.14062e-13
-4.0126e-12
-1.51531e-12
8.59577e-12
1.8148e-12
1.94618e-11
7.42499e-13
-5.24617e-12
-4.1831e-13
-2.1102e-11
-2.7476e-14
-9.01866e-12
2.28744e-13
-1.02431e-12
-5.53586e-13
3.24787e-12
7.04298e-12
-6.07859e-13
-7.60662e-12
-1.58153e-13
8.03358e-12
7.02789e-13
5.73419e-12
2.20095e-13
4.16232e-13
4.5883e-13
-3.77902e-12
4.69518e-13
-2.70192e-12
2.84519e-13
-7.87361e-13
1.71769e-13
4.47261e-13
7.18077e-14
7.9721e-13
-3.33049e-14
1.11522e-12
-4.16385e-13
1.24284e-12
-2.06586e-12
-4.72218e-12
-4.08454e-13
-1.04713e-12
-7.29063e-13
2.32363e-11
-1.04456e-11
-7.97765e-12
-9.30448e-13
-1.86183e-11
-2.43112e-15
-7.04307e-13
1.57591e-13
3.10173e-12
1.86179e-13
2.19475e-12
1.99778e-13
1.01552e-12
2.10206e-13
3.19208e-13
1.94289e-13
1.02403e-13
1.64317e-13
4.34937e-14
1.49073e-13
6.63737e-14
1.50979e-13
3.13916e-14
1.5766e-13
5.52419e-15
1.63e-13
3.82074e-15
1.65733e-13
2.44054e-14
1.66582e-13
3.61255e-14
1.65849e-13
5.33819e-14
1.59311e-13
1.21373e-13
1.4264e-13
3.20653e-13
8.35478e-14
5.60898e-13
8.46716e-15
-1.35174e-14
-9.13008e-14
-1.86556e-12
-4.91142e-14
-3.12406e-12
-3.74672e-12
-3.14991e-13
-2.21579e-13
5.07063e-12
2.47569e-12
1.67646e-11
7.23489e-13
-3.49397e-12
-7.7698e-13
-1.96016e-11
-2.50884e-14
-9.77055e-12
1.44154e-13
-1.19355e-12
-5.57194e-13
3.94922e-12
7.41759e-12
-4.26649e-13
-6.97997e-12
6.26815e-13
6.98011e-12
1.11466e-12
5.24634e-12
4.86423e-13
1.04447e-12
5.34238e-13
-3.82683e-12
4.52251e-13
-2.61993e-12
2.73716e-13
-6.08826e-13
1.68831e-13
5.52145e-13
7.99787e-14
8.86063e-13
-4.36838e-15
1.19957e-12
-2.34585e-13
1.47306e-12
-1.32497e-12
-3.6318e-12
-1.79144e-13
-2.19296e-12
2.01026e-12
2.10469e-11
-4.76963e-12
-1.19777e-12
-5.00481e-13
-2.28874e-11
7.55616e-15
-1.21234e-12
1.29892e-13
2.97939e-12
1.75884e-13
2.14876e-12
2.00095e-13
9.91306e-13
2.15527e-13
3.03776e-13
1.97943e-13
1.19987e-13
1.58812e-13
8.26244e-14
1.43436e-13
8.17502e-14
1.46659e-13
2.81682e-14
1.54737e-13
-2.55334e-15
1.60675e-13
-2.11796e-15
1.64108e-13
2.09725e-14
1.66155e-13
3.40787e-14
1.66466e-13
5.30706e-14
1.61584e-13
1.26256e-13
1.4727e-13
3.34968e-13
8.98487e-14
6.18319e-13
-3.85404e-14
1.14872e-13
-3.54254e-13
-1.54985e-12
-9.9356e-13
-2.48475e-12
-5.20579e-12
3.89724e-12
2.21073e-12
-2.34589e-12
3.58499e-12
1.53903e-11
2.82659e-12
-2.73558e-12
3.77642e-14
-1.68127e-11
2.16747e-14
-9.75446e-12
7.78516e-14
-1.24973e-12
-8.08892e-13
4.83596e-12
7.71335e-12
-1.87801e-13
-6.59217e-12
1.41595e-12
5.37636e-12
1.31293e-12
5.34936e-12
8.53619e-13
1.50379e-12
6.42393e-13
-3.61561e-12
4.44004e-13
-2.42154e-12
2.57159e-13
-4.21981e-13
1.64406e-13
6.44897e-13
8.79707e-14
9.62499e-13
-1.67786e-15
1.28922e-12
1.26491e-13
1.34489e-12
1.30753e-12
-4.81284e-12
-2.37269e-13
-6.48153e-13
1.24005e-12
1.95696e-11
1.14679e-11
-1.14256e-11
7.51006e-13
-1.21705e-11
-1.13433e-13
-3.47905e-13
1.0232e-13
2.76364e-12
1.64631e-13
2.08645e-12
1.99387e-13
9.56551e-13
2.14611e-13
2.88551e-13
1.93687e-13
1.40911e-13
1.60614e-13
1.15698e-13
1.4353e-13
9.8834e-14
1.45616e-13
2.60819e-14
1.53216e-13
-1.01535e-14
1.59879e-13
-8.78109e-15
1.64469e-13
1.63833e-14
1.66163e-13
3.23848e-14
1.66645e-13
5.25885e-14
1.63639e-13
1.29261e-13
1.52172e-13
3.46435e-13
9.82036e-14
6.72288e-13
-6.26929e-14
2.75768e-13
-5.00508e-13
-1.11204e-12
-8.92552e-13
-2.09271e-12
1.41332e-12
1.59137e-12
2.95101e-12
-3.88358e-12
3.92183e-12
1.44195e-11
4.61897e-12
-3.43272e-12
1.05454e-12
-1.32483e-11
1.02304e-14
-8.71015e-12
-5.29529e-15
-1.23421e-12
-9.31106e-13
5.76177e-12
8.23736e-12
-1.78865e-12
-4.60352e-12
9.8964e-13
2.59807e-12
1.3922e-12
4.9468e-12
9.97799e-13
1.89819e-12
7.08989e-13
-3.3268e-12
4.33152e-13
-2.14571e-12
2.36526e-13
-2.25354e-13
1.5923e-13
7.22193e-13
9.61036e-14
1.02562e-12
2.76568e-14
1.35767e-12
1.50497e-13
1.22205e-12
1.15409e-12
-5.81644e-12
-7.31514e-14
5.7909e-13
1.48615e-12
1.80103e-11
3.31739e-12
-1.32569e-11
-8.61077e-14
-8.76704e-12
-1.2974e-13
-3.04273e-13
7.61637e-14
2.55774e-12
1.52769e-13
2.00984e-12
1.93116e-13
9.16204e-13
2.06449e-13
2.75218e-13
1.89078e-13
1.58282e-13
1.61722e-13
1.43054e-13
1.48639e-13
1.11917e-13
1.50112e-13
2.4609e-14
1.56079e-13
-1.61208e-14
1.61665e-13
-1.43675e-14
1.65633e-13
1.24156e-14
1.67651e-13
3.03671e-14
1.675e-13
5.27391e-14
1.65447e-13
1.31314e-13
1.57042e-13
3.5484e-13
1.10208e-13
7.19121e-13
-5.7436e-14
4.43412e-13
-4.19275e-13
-7.50197e-13
-4.32671e-13
-2.07931e-12
1.5914e-12
-4.32701e-13
3.1377e-12
-5.42988e-12
3.71794e-12
1.38392e-11
3.68679e-12
-3.40156e-12
8.15514e-13
-1.0377e-11
-7.78281e-14
-7.81681e-12
-8.9189e-14
-1.22285e-12
-1.02777e-12
6.70035e-12
8.82079e-12
3.06407e-13
1.93593e-13
2.76925e-13
2.94823e-14
2.342e-13
4.27251e-14
7.93744e-13
-5.59545e-13
3.21983e-13
4.71761e-13
5.99505e-13
9.40877e-14
6.23936e-13
5.05144e-15
7.03574e-13
-3.69122e-14
9.36465e-13
-7.92435e-13
6.42557e-14
1.19419e-12
6.84723e-13
-9.06356e-14
7.33807e-13
-4.40324e-14
7.90208e-13
-9.33133e-14
7.77286e-13
-7.79513e-13
-7.60808e-14
9.17622e-13
5.99167e-13
-1.89802e-13
6.09511e-13
-5.43765e-14
6.124e-13
-9.62026e-14
5.47297e-13
-7.1441e-13
-4.55464e-13
9.26681e-13
3.10198e-13
2.55821e-13
1.59619e-13
-5.54791e-13
-1.01026e-12
-2.86555e-12
-1.26621e-12
8.21699e-13
-1.08918e-12
4.42652e-12
1.34197e-12
4.60665e-12
1.71806e-12
2.87099e-12
-1.59113e-12
1.56386e-12
-8.38579e-13
8.37964e-13
5.00539e-13
6.66099e-13
8.94058e-13
5.45406e-13
1.14632e-12
4.06266e-13
1.49681e-12
9.39345e-14
1.53438e-12
-2.91125e-12
-2.81125e-12
-9.69456e-13
-1.3627e-12
4.16738e-12
1.28734e-11
-1.9524e-12
-7.13709e-12
-3.52737e-12
-7.19207e-12
-1.18729e-12
-2.64435e-12
3.46071e-14
1.33584e-12
5.41171e-13
1.50328e-12
7.64839e-13
6.92535e-13
8.09327e-13
2.3073e-13
7.83243e-13
1.84365e-13
7.34128e-13
1.9217e-13
7.15648e-13
1.30397e-13
7.17644e-13
2.26129e-14
7.29413e-13
-2.78898e-14
7.40774e-13
-2.57287e-14
7.5384e-13
-6.50287e-16
7.64666e-13
1.95411e-14
7.69328e-13
4.80765e-14
7.67632e-13
1.3301e-13
7.58326e-13
3.64146e-13
6.53037e-13
8.2441e-13
1.41723e-13
9.54726e-13
-3.04436e-13
-3.04038e-13
1.30144e-12
-3.68519e-12
4.00813e-12
-3.13939e-12
1.99333e-11
-2.1355e-11
1.47423e-11
1.90302e-11
1.66438e-12
9.67638e-12
-1.90053e-13
-8.52261e-12
-8.61028e-13
-7.14583e-12
-1.41109e-12
-6.72779e-13
-8.10403e-12
1.33933e-11
9.22858e-12
2.15436e-13
-2.87455e-13
1.94727e-14
-8.93215e-13
1.64289e-12
-2.81443e-13
2.30051e-12
1.06044e-12
1.29408e-12
-5.84692e-13
5.8824e-13
-1.32745e-13
4.59328e-13
6.29451e-13
5.87445e-13
7.65942e-13
6.98597e-13
1.03517e-12
7.72616e-13
1.42279e-12
4.58559e-13
1.84844e-12
-9.58603e-13
-1.39409e-12
-5.29786e-14
-2.26833e-12
2.82441e-12
9.99604e-12
1.66045e-12
-5.97313e-12
-7.83813e-13
-4.74781e-12
-1.01103e-12
-2.41714e-12
-2.3378e-13
5.58591e-13
3.12169e-13
9.57327e-13
5.53008e-13
4.51697e-13
6.1851e-13
1.65228e-13
6.45585e-13
1.5729e-13
6.71088e-13
1.66667e-13
6.94652e-13
1.06834e-13
7.00863e-13
1.64018e-14
6.98929e-13
-2.59562e-14
6.98611e-13
-2.54107e-14
7.04962e-13
-7.00065e-15
7.15906e-13
8.59642e-15
7.31465e-13
3.25182e-14
7.62077e-13
1.02398e-13
8.38134e-13
2.88089e-13
9.74453e-13
6.88091e-13
9.54013e-13
9.75166e-13
4.6509e-13
1.84885e-13
-1.20741e-12
-2.01269e-12
-1.33091e-13
-4.21371e-12
2.06574e-12
-2.35539e-11
6.53537e-12
1.45606e-11
1.47307e-12
1.47387e-11
-6.34317e-13
-6.41523e-12
-1.87096e-12
-5.90918e-12
-2.42872e-12
-1.1502e-13
-6.54876e-12
1.75133e-11
5.11736e-12
-1.10061e-13
7.40227e-13
-4.13528e-13
-5.89748e-13
1.14488e-14
-7.06421e-13
5.70603e-13
5.01284e-13
2.3044e-13
-2.44529e-13
-7.35189e-15
1.05047e-13
2.10944e-13
4.11156e-13
5.07453e-13
4.69432e-13
8.22168e-13
7.20451e-13
1.14136e-12
1.10359e-12
1.08204e-12
1.90775e-12
1.08733e-13
-4.20778e-13
4.74347e-13
-2.63394e-12
3.37125e-12
7.09914e-12
5.39326e-13
-3.1412e-12
-6.39352e-14
-4.14455e-12
-7.24985e-13
-1.75609e-12
-3.1934e-13
1.52946e-13
1.44017e-13
4.93971e-13
3.58756e-13
2.36958e-13
4.293e-13
9.46838e-14
4.87199e-13
9.93907e-14
5.49759e-13
1.04107e-13
5.92778e-13
6.38147e-14
6.01546e-13
7.6338e-15
5.93528e-13
-1.79379e-14
5.85683e-13
-1.75666e-14
5.86099e-13
-7.41634e-15
5.94295e-13
4.00082e-16
6.13894e-13
1.29194e-14
6.64638e-13
5.16549e-14
7.92455e-13
1.60272e-13
1.07209e-12
4.08457e-13
1.40199e-12
6.45261e-13
1.39085e-12
1.96028e-13
3.68896e-13
-9.90736e-13
1.95084e-12
-5.79565e-12
-6.37329e-12
-1.52298e-11
-3.04038e-12
1.12277e-11
1.48207e-12
1.02162e-11
-1.12222e-12
-3.81093e-12
-2.9541e-12
-4.0773e-12
-2.90199e-12
-1.67126e-13
5.06243e-12
9.5489e-12
3.16043e-12
-2.43415e-13
1.91032e-12
-4.55182e-13
-3.77981e-13
-5.13523e-13
-6.48079e-13
-1.02193e-13
8.99541e-14
-2.54419e-13
-9.23029e-14
-2.00697e-13
5.13248e-14
8.64745e-14
1.23985e-13
3.99548e-13
1.56358e-13
8.2218e-13
2.97819e-13
1.37523e-12
5.50543e-13
1.95745e-12
1.32553e-12
1.4931e-12
4.3569e-14
7.55579e-13
-1.89641e-12
4.61645e-12
3.23827e-12
1.62965e-12
-1.54406e-13
1.3708e-13
-2.65198e-12
-4.93216e-13
-1.12579e-12
-3.20677e-13
-1.95934e-14
1.73947e-14
1.55899e-13
1.80734e-13
7.36192e-14
2.43378e-13
3.20398e-14
3.06799e-13
3.59692e-14
3.7401e-13
3.68968e-14
4.16298e-13
2.15271e-14
4.22935e-13
9.96402e-16
4.12622e-13
-7.62496e-15
4.02057e-13
-7.00136e-15
3.98092e-13
-3.45166e-15
4.00122e-13
-1.63037e-15
4.12125e-13
9.16841e-16
4.52834e-13
1.09458e-14
5.68771e-13
4.43352e-14
8.47554e-13
1.29674e-13
1.27346e-12
2.19355e-13
1.42166e-12
4.7826e-14
8.13471e-13
-3.82546e-13
-2.48333e-12
-2.49885e-12
-1.14194e-11
-6.2937e-12
-5.21828e-12
5.02659e-12
1.22088e-12
3.77705e-12
-1.43595e-12
-1.1541e-12
-3.77137e-12
-1.74188e-12
-3.94778e-12
9.27758e-15
-1.50465e-12
7.10578e-12
9.33356e-13
9.00067e-13
5.22086e-13
-1.25994e-13
-3.60394e-14
-1.28342e-13
-7.70171e-14
4.69682e-14
2.03327e-13
5.01146e-13
1.05169e-12
2.37722e-12
2.42079e-12
5.24379e-13
3.76264e-12
3.60824e-12
9.56259e-13
-1.69533e-13
-1.89127e-13
-3.32279e-14
4.03914e-14
7.24311e-14
1.084e-13
1.45297e-13
1.66825e-13
1.67821e-13
1.60196e-13
1.53194e-13
1.49743e-13
1.48112e-13
1.49029e-13
1.59975e-13
2.0431e-13
3.33984e-13
5.53339e-13
6.01165e-13
2.18619e-13
-2.28023e-12
-8.57393e-12
-3.54734e-12
2.29711e-13
-9.24393e-13
-2.66628e-12
-2.657e-12
4.44878e-12
)
;

boundaryField
{
    AirInlet
    {
        type            calculated;
        value           nonuniform List<scalar> 5(-2e-13 -2e-13 -2e-13 -2e-13 -2e-13);
    }
    WaterInlet
    {
        type            calculated;
        value           nonuniform List<scalar> 10(-5e-13 -5e-13 -5e-13 -5e-13 -5e-13 -5e-13 -5e-13 -5e-13 -5e-13 -5e-13);
    }
    ChannelWall
    {
        type            calculated;
        value           uniform 0;
    }
    Outlet
    {
        type            calculated;
        value           nonuniform List<scalar> 
15
(
-2.77361e-12
-1.43885e-12
7.20014e-12
6.63383e-12
3.18391e-13
-1.01168e-12
-9.31804e-13
-1.10465e-12
-1.45512e-12
-1.6112e-12
-8.51182e-12
-2.43754e-12
7.01936e-12
7.22422e-13
5.38213e-12
)
;
    }
    FrontAndBack
    {
        type            empty;
        value           nonuniform 0();
    }
}


// ************************************************************************* //
