/*--------------------------------*- C++ -*----------------------------------*\
| =========                 |                                                 |
| \\      /  F ield         | OpenFOAM: The Open Source CFD Toolbox           |
|  \\    /   O peration     | Version:  2.3.0                                 |
|   \\  /    A nd           | Web:      www.OpenFOAM.org                      |
|    \\/     M anipulation  |                                                 |
\*---------------------------------------------------------------------------*/
FoamFile
{
    version     2.0;
    format      ascii;
    class       volVectorField;
    location    "0.05";
    object      U;
}
// * * * * * * * * * * * * * * * * * * * * * * * * * * * * * * * * * * * * * //

dimensions      [0 1 -1 0 0 0 0];

internalField   nonuniform List<vector> 
725
(
(0.0455297 0.00689689 -4.88298e-31)
(0.0506374 0.00228032 -7.48859e-32)
(0.0157734 0.00119396 -4.70893e-31)
(0.0482199 0.00967573 0)
(-0.20658 0.0502349 6.73554e-30)
(0.0877282 0.014201 -2.37223e-30)
(0.106094 0.0101183 -1.05265e-30)
(0.056039 0.0109118 -5.45099e-30)
(0.0712688 0.0695676 0)
(-0.381819 0.1358 7.13075e-29)
(0.100168 0.0102806 -1.01829e-30)
(0.124948 0.0156881 -1.26132e-30)
(0.0830759 0.0241657 -1.26328e-29)
(0.12772 0.129975 0)
(-0.158193 0.221024 8.88171e-29)
(0.0890345 0.00389024 1.99696e-30)
(0.108345 0.0165858 -2.64948e-30)
(0.0857302 0.0254512 -1.90433e-29)
(0.153811 0.139075 0)
(0.120613 0.242178 4.15914e-28)
(0.0465171 0.00206006 2.38731e-30)
(0.0535102 0.010056 -2.71153e-30)
(0.054673 0.0149167 -5.96518e-30)
(0.130582 0.0658565 -3.43251e-29)
(0.398683 0.167033 3.62291e-28)
(-0.198762 0.0239031 0)
(-0.00450356 0.0332311 0)
(-0.0745817 -0.0019261 0)
(-0.214694 -0.0225169 0)
(-0.2532 -0.00213609 0)
(-0.144032 -0.0193427 0)
(-0.0297007 -0.0108439 0)
(0.0136727 -0.00474695 0)
(0.0274642 -0.00396144 0)
(0.0689185 -0.00227291 0)
(0.0508919 0.00907408 0)
(-0.0310083 0.000460946 0)
(0.113209 0.026949 0)
(-0.22762 0.0121274 0)
(0.141172 -0.122129 0)
(0.434637 0.0172886 0)
(0.190528 0.0339611 0)
(0.0783099 0.0128813 0)
(0.0425979 0.0027711 0)
(0.0281126 0.00175909 0)
(0.0191831 0.000746115 0)
(0.0168164 3.49124e-05 0)
(0.0181862 -0.000215317 0)
(0.019339 -2.88574e-05 0)
(0.0191467 5.95292e-05 0)
(0.018546 6.12209e-05 0)
(0.0180371 4.19615e-05 0)
(0.0176989 3.40058e-05 0)
(0.0175436 6.45006e-06 0)
(0.0178649 -7.34254e-05 0)
(0.0187534 -0.000206008 0)
(0.0201306 -0.000207337 0)
(0.0253445 -0.000865252 0)
(0.0218874 0.000888309 0)
(0.0370074 -0.00535083 0)
(0.112012 -0.0201285 0)
(0.167888 0.0379338 0)
(-0.164682 0.00164515 0)
(-1.1422 0.0547671 0)
(-0.00302858 -0.281173 0)
(0.0590604 0.0121214 0)
(0.341341 -0.0518977 0)
(0.466017 0.0476909 0)
(0.148425 0.0534841 0)
(-0.264382 0.00226079 0)
(-0.199276 -0.0906504 0)
(0.0646491 -0.151336 0)
(0.0825819 0.134959 0)
(-0.381366 0.117898 0)
(-0.377366 -0.0452092 0)
(-0.172269 -0.10491 0)
(-0.0129338 -0.0587869 0)
(0.0449412 -0.0209539 0)
(0.0547997 -0.0212161 0)
(0.120232 -0.0211265 0)
(0.084677 0.0554972 0)
(-0.0718918 -0.001847 0)
(0.179924 -0.00852279 0)
(0.0284778 0.0509695 0)
(-0.19255 -0.270082 0)
(0.330011 0.0525593 0)
(0.264673 0.105861 0)
(0.151444 0.045793 0)
(0.0905785 0.0154324 0)
(0.0634255 0.0103145 0)
(0.0477422 0.00452283 0)
(0.0436947 0.000141171 0)
(0.0462743 -0.00133426 0)
(0.0484571 -0.000336409 0)
(0.0481038 0.000381193 0)
(0.0469225 0.000473449 0)
(0.0458736 0.000337978 0)
(0.0451113 0.000197489 0)
(0.0446021 -6.49837e-05 0)
(0.044715 -0.000535288 0)
(0.0450617 -0.00121441 0)
(0.0449403 -0.00176274 0)
(0.0487371 -0.00346374 0)
(0.0384419 -0.000804043 0)
(0.0810512 -0.0336335 0)
(0.173912 -0.0628208 0)
(0.226809 0.128875 0)
(-0.185948 0.274614 0)
(-0.584821 0.401553 0)
(-0.518138 -0.695017 0)
(0.0412038 0.0113488 0)
(0.436788 -0.266024 0)
(0.702673 0.0686409 0)
(0.387957 0.290092 0)
(-0.211015 0.139457 0)
(0.401582 -0.365887 0)
(1.17381 -0.16074 0)
(-0.238112 0.3625 0)
(-0.36034 0.142099 0)
(-0.151232 -0.132794 0)
(-0.0575455 -0.175115 0)
(0.0403678 -0.102287 0)
(0.0722478 -0.0320746 0)
(0.0618386 -0.0278803 0)
(0.0607299 -0.0299023 0)
(0.0455412 0.0829662 0)
(0.0475666 -0.0101013 0)
(0.608865 -0.228668 0)
(0.0788939 0.327162 0)
(-0.216701 -0.381466 0)
(0.32689 -0.149322 0)
(0.470127 0.146871 0)
(0.249217 0.0992295 0)
(0.125091 0.0395638 0)
(0.0868075 0.0226816 0)
(0.0695873 0.00943395 0)
(0.0650565 0.000335991 0)
(0.0669441 -0.00274265 0)
(0.0686288 -0.000715479 0)
(0.0679834 0.000813616 0)
(0.0667924 0.00104848 0)
(0.0657775 0.000823876 0)
(0.0648094 0.000633254 0)
(0.063704 0.000283079 0)
(0.062697 -0.00021319 0)
(0.0607288 -0.000625463 0)
(0.0552856 -0.000164835 0)
(0.0507129 -0.00189302 0)
(0.0265359 -0.00595444 0)
(0.0968238 -0.0734804 0)
(0.127227 -0.0713127 0)
(0.150874 0.193311 0)
(0.0377734 0.428431 0)
(-0.44736 0.528664 0)
(-1.65187 -0.682876 0)
(0.184096 -0.48553 0)
(0.401193 -0.400032 0)
(0.663625 0.072208 0)
(0.553037 0.355898 0)
(0.951119 0.339423 0)
(0.382875 -0.811097 0)
(1.33843 0.113676 0)
(0.0261703 0.848173 0)
(0.0566225 0.16941 0)
(0.197749 -0.150346 0)
(0.151481 -0.188844 0)
(0.117986 -0.113118 0)
(0.096184 -0.0285348 0)
(0.0633849 -0.0123891 0)
(-0.00382146 -0.00625003 0)
(-0.0445488 0.055691 0)
(0.0934607 -0.0833131 0)
(0.63467 -0.230058 0)
(-0.58785 0.722734 0)
(-0.580554 -0.450571 0)
(0.0157491 -0.435736 0)
(0.417314 0.152753 0)
(0.26163 0.165518 0)
(0.138175 0.0803465 0)
(0.098968 0.0380206 0)
(0.0854775 0.0141541 0)
(0.0818758 0.000953345 0)
(0.0809233 -0.00354666 0)
(0.0801196 -0.000644366 0)
(0.0788872 0.00129158 0)
(0.0783531 0.00147534 0)
(0.0781644 0.00120299 0)
(0.0775632 0.00118616 0)
(0.076264 0.000998923 0)
(0.0745769 0.000894033 0)
(0.0711986 0.00160491 0)
(0.0618343 0.00479664 0)
(0.0508854 0.004596 0)
(0.0129666 -0.013853 0)
(0.0868117 -0.102881 0)
(0.0347134 -0.0536815 0)
(0.106117 0.240318 0)
(-0.053109 0.331376 0)
(0.199082 0.833549 0)
(-0.948999 -0.622936 0)
(0.220786 -1.19793 0)
(0.138453 -0.436212 0)
(0.475627 0.0688018 0)
(0.397805 0.148412 0)
(0.756328 0.283301 0)
(0.303643 -1.09358 0)
(-0.542642 0.377182 0)
(-0.333426 0.572349 0)
(0.316833 0.0797216 0)
(0.396735 -0.18201 0)
(0.305957 -0.166249 0)
(0.181432 -0.0835158 0)
(0.110649 -0.00378706 0)
(0.0656911 0.0164714 0)
(-0.0161942 0.0291244 0)
(-0.0818698 0.0304516 0)
(-0.0269048 -0.260815 0)
(0.350927 -0.0936121 0)
(-0.549774 0.96998 0)
(0.0524725 -0.85403 0)
(-0.313891 -0.460998 0)
(0.133016 0.117716 0)
(0.150198 0.18461 0)
(0.11848 0.10916 0)
(0.100213 0.0505394 0)
(0.0969271 0.0171765 0)
(0.0954637 0.00221555 0)
(0.0885706 -0.00295046 0)
(0.082529 0.000477374 0)
(0.0806599 0.00175621 0)
(0.0816584 0.00142321 0)
(0.0831033 0.00112412 0)
(0.083568 0.00158443 0)
(0.0828591 0.0017735 0)
(0.0815472 0.0022443 0)
(0.078785 0.00438247 0)
(0.0693501 0.0116571 0)
(0.0567143 0.0153184 0)
(0.00647115 -0.0147524 0)
(0.0444121 -0.103319 0)
(0.0176991 -0.0881735 0)
(0.360871 -0.0840099 0)
(1.24476 0.314865 0)
(0.999954 1.16405 0)
(0.593389 -0.35396 0)
(0.219275 -1.24126 0)
(-0.0792324 -0.426563 0)
(0.256177 -0.00523714 0)
(0.210244 0.0225011 0)
(0.0577226 0.258239 0)
(-1.26364 -0.493883 0)
(-0.961571 0.464897 0)
(0.00156545 0.362534 0)
(0.300026 -0.0014059 0)
(0.297687 -0.17741 0)
(0.295222 -0.136297 0)
(0.181486 -0.0532071 0)
(0.106462 0.0138221 0)
(0.0671708 0.0322472 0)
(-0.00378805 0.0473755 0)
(-0.070084 0.0392368 0)
(-0.109448 -0.320595 0)
(-0.107101 0.0160931 0)
(-0.484404 1.12773 0)
(-0.868081 -0.776603 0)
(-0.505247 -0.447891 0)
(-0.069467 0.0273281 0)
(0.0847595 0.168164 0)
(0.0983465 0.111852 0)
(0.0967219 0.0517013 0)
(0.102533 0.0166992 0)
(0.102617 0.00395821 0)
(0.0891788 -1.75737e-05 0)
(0.0776363 0.00220363 0)
(0.0759805 0.00170118 0)
(0.0786575 0.000762558 0)
(0.0814971 0.000578805 0)
(0.0830462 0.00141258 0)
(0.0834085 0.0018587 0)
(0.083048 0.00260023 0)
(0.0818031 0.00555996 0)
(0.074614 0.0147494 0)
(0.0639881 0.0235905 0)
(0.0120847 -0.00597726 0)
(0.025587 -0.100193 0)
(0.00836842 -0.151914 0)
(0.137224 -0.215186 0)
(-0.7509 0.443459 0)
(0.910168 1.06629 0)
(0.882151 -0.287747 0)
(-0.106192 -1.09394 0)
(-0.20223 -0.443009 0)
(0.163128 -0.0454579 0)
(0.0406437 0.139111 0)
(-0.530863 0.339062 0)
(-0.711453 -0.389323 0)
(-0.495117 0.440853 0)
(0.387408 0.30426 0)
(0.226735 0.00376668 0)
(0.154344 -0.184571 0)
(0.264778 -0.134278 0)
(0.178857 -0.0438027 0)
(0.104171 0.0196693 0)
(0.0679104 0.0374891 0)
(0.00243441 0.0533353 0)
(-0.0736484 0.0523853 0)
(-0.210542 -0.276281 0)
(-1.07294 -0.0216031 0)
(-0.363996 1.15735 0)
(-5.18325 -0.664822 0)
(-0.580929 -0.71436 0)
(-0.171982 -0.0152091 0)
(0.0640338 0.159075 0)
(0.0900388 0.11071 0)
(0.0953236 0.0512697 0)
(0.10476 0.0162673 0)
(0.105262 0.0046957 0)
(0.0890302 0.00137631 0)
(0.0752648 0.00291882 0)
(0.073811 0.00162626 0)
(0.0771654 0.000454531 0)
(0.0805159 0.000333468 0)
(0.0824617 0.00129817 0)
(0.0832722 0.00183577 0)
(0.0833108 0.00266184 0)
(0.082638 0.00592099 0)
(0.076441 0.0156574 0)
(0.0668379 0.0265836 0)
(0.0149134 -0.00291854 0)
(0.00587659 -0.0970335 0)
(-0.121092 -0.159162 0)
(-0.0438874 -0.0975439 0)
(-2.36539 0.283721 0)
(0.997535 0.9196 0)
(1.02283 -0.201563 0)
(-0.121192 -1.02296 0)
(-0.23135 -0.472429 0)
(0.130807 -0.0562987 0)
(0.0127524 0.178662 0)
(-0.519339 0.363626 0)
(-0.70315 -0.344425 0)
(-0.131071 0.396892 0)
(0.746959 0.273295 0)
(0.340427 0.0338722 0)
(0.235155 -0.192167 0)
(0.271279 -0.133647 0)
(0.170743 -0.0349215 0)
(0.1004 0.0251356 0)
(0.0687027 0.0422328 0)
(0.0098534 0.0580195 0)
(-0.0396061 0.0683574 0)
(-0.122726 -0.206557 0)
(-0.68095 -0.0758688 0)
(-0.205477 1.11085 0)
(-1.34664 -0.214285 0)
(-0.273185 -1.04828 0)
(-0.117852 -0.0493909 0)
(0.0466065 0.152203 0)
(0.0813529 0.108802 0)
(0.0939389 0.0502961 0)
(0.106983 0.0155964 0)
(0.107669 0.00554712 0)
(0.0884387 0.00313809 0)
(0.0723748 0.00370216 0)
(0.0712443 0.00148902 0)
(0.0753138 7.70348e-05 0)
(0.0791641 4.86096e-05 0)
(0.0814939 0.00114471 0)
(0.0828032 0.00176315 0)
(0.0832904 0.00266751 0)
(0.0831867 0.00621031 0)
(0.0781404 0.0164285 0)
(0.0696159 0.0295242 0)
(0.0188956 0.00203597 0)
(-0.0536346 -0.0869908 0)
(-0.453357 -0.139337 0)
(-0.432589 0.0822417 0)
(-2.52634 0.0932488 0)
(1.56152 0.756046 0)
(2.15491 -0.137295 0)
(0.414147 -0.904081 0)
(-0.133891 -0.490455 0)
(0.101945 -0.0618716 0)
(-0.0361749 0.218998 0)
(-0.638371 0.380393 0)
(-0.744913 -0.351683 0)
(0.188661 0.305182 0)
(0.986514 0.265519 0)
(0.476319 0.0657862 0)
(0.371172 -0.187273 0)
(0.284186 -0.127219 0)
(0.160159 -0.0258838 0)
(0.0951596 0.0300717 0)
(0.0693012 0.0463876 0)
(0.0178393 0.0623849 0)
(0.0109565 0.0702255 0)
(0.0436181 -0.214604 0)
(0.613701 -0.057192 0)
(0.00365539 1.00441 0)
(6.2537 -0.326409 0)
(0.335018 -0.877504 0)
(0.0501324 -0.0352473 0)
(0.0301607 0.144171 0)
(0.0722792 0.106103 0)
(0.0921489 0.0488059 0)
(0.107076 0.0148168 0)
(0.106346 0.00654111 0)
(0.0877377 0.00499798 0)
(0.0728275 0.00454011 0)
(0.0711143 0.00135304 0)
(0.0746982 -0.000324233 0)
(0.0785517 -0.000274535 0)
(0.0813354 0.000939143 0)
(0.0829044 0.00166545 0)
(0.083325 0.00264582 0)
(0.0835279 0.00640381 0)
(0.0797585 0.0170638 0)
(0.0726883 0.0323269 0)
(0.0248544 0.00952785 0)
(-0.0951453 -0.0667455 0)
(-0.467228 -0.112213 0)
(-0.178002 0.155396 0)
(0.832286 -0.141083 0)
(2.03163 0.763269 0)
(3.0211 -0.174288 0)
(0.808498 -0.743078 0)
(-0.0223736 -0.460776 0)
(0.0734691 -0.0623596 0)
(-0.0833839 0.263395 0)
(-0.759634 0.399051 0)
(-1.24525 -0.268455 0)
(-0.0679446 0.181801 0)
(0.860394 0.258204 0)
(0.549073 0.0890891 0)
(0.442959 -0.173639 0)
(0.285308 -0.114694 0)
(0.147989 -0.0161645 0)
(0.0889977 0.0343575 0)
(0.0697138 0.0498699 0)
(0.0252705 0.0664335 0)
(0.0265504 0.0641423 0)
(0.0497222 -0.265044 0)
(0.579782 -0.0166962 0)
(0.159045 0.951732 0)
(2.49733 -0.609687 0)
(-0.0794967 -0.52882 0)
(-0.101516 -0.0165218 0)
(0.0122777 0.133285 0)
(0.0631823 0.102595 0)
(0.0888515 0.0469086 0)
(0.103736 0.01409 0)
(0.102544 0.00749676 0)
(0.0868858 0.00654192 0)
(0.0748652 0.00529485 0)
(0.073633 0.00126244 0)
(0.07649 -0.00067136 0)
(0.0796278 -0.000585804 0)
(0.0820602 0.000718713 0)
(0.083558 0.00156881 0)
(0.0838994 0.002632 0)
(0.0839765 0.0065314 0)
(0.081246 0.0175711 0)
(0.076225 0.0348661 0)
(0.0329547 0.0179003 0)
(-0.0955946 -0.0463214 0)
(-0.325091 -0.105641 0)
(-0.0455472 0.0299005 0)
(1.20645 -0.238449 0)
(2.07918 0.726725 0)
(2.56639 -0.179777 0)
(0.567892 -0.58578 0)
(-0.0453644 -0.412751 0)
(0.0397436 -0.0625797 0)
(-0.126355 0.311599 0)
(-0.826609 0.426134 0)
(0.0476315 -0.00216914 0)
(0.04704 -0.00756484 1.91055e-31)
(0.0490792 -0.00811518 -8.06784e-31)
(-0.00453895 -0.0116426 3.09723e-30)
(0.265365 -0.0283153 0)
(0.0924422 -0.00397566 0)
(0.101422 -0.0128288 0)
(0.101518 -0.0131807 0)
(0.065173 -0.0461259 2.93956e-30)
(0.195359 -0.0151387 0)
(0.104535 -0.010391 0)
(0.118985 -0.0129616 0)
(0.115346 -0.0153889 0)
(0.0719899 -0.0475137 1.87414e-30)
(0.14833 -0.0110553 0)
(0.0916756 -0.0142898 0)
(0.101992 -0.0093439 0)
(0.0938879 -0.0115136 0)
(0.0519374 -0.0478448 -9.2903e-31)
(0.116944 -0.0237494 0)
(0.0474888 -0.00679926 0)
(0.0483124 -0.00248179 0)
(0.0368434 -0.0025255 0)
(-0.00616288 -0.0173071 -7.05461e-31)
(-0.147399 -0.00866903 0)
(-0.296279 -0.104405 0)
(-0.192733 -0.0746414 0)
(0.359045 0.150379 0)
(0.506083 0.101894 0)
(0.450696 -0.122971 0)
(0.240258 -0.0714479 0)
(0.112339 0.0132894 0)
(0.0750654 0.0443777 0)
(0.0714347 0.0573142 0)
(0.0431658 0.0740937 0)
(0.0460293 0.0729774 0)
(0.00548986 -0.232884 0)
(-0.51319 0.00703519 0)
(0.231646 0.772987 0)
(0.157953 -0.598987 0)
(-0.347894 -0.326669 0)
(-0.250809 -0.0807943 0)
(-0.035934 0.0978152 0)
(0.0380608 0.0903652 0)
(0.0767843 0.0409172 0)
(0.0907954 0.0124831 0)
(0.0904448 0.00951353 0)
(0.0836562 0.00975702 0)
(0.0790643 0.00682399 0)
(0.0791745 0.00112654 0)
(0.0803891 -0.00139209 0)
(0.0817276 -0.00125972 0)
(0.0831393 0.000186742 0)
(0.0844384 0.00127946 0)
(0.0853182 0.00261694 0)
(0.0854399 0.00684205 0)
(0.0851336 0.0187042 0)
(0.0864185 0.0409036 0)
(0.061759 0.0391571 0)
(-0.0386427 -0.016807 0)
(0.0120496 -0.139013 0)
(0.171814 -0.143532 0)
(0.804591 -0.570157 0)
(2.55422 0.537807 0)
(0.690407 0.152373 0)
(0.0859528 -0.436539 0)
(-0.147918 -0.370657 0)
(-0.0664229 -0.0624368 0)
(-0.261076 0.49712 0)
(-1.12033 0.460768 0)
(0.0544401 -0.0356914 0)
(-0.0357715 -0.0844564 0)
(0.0685974 0.00478055 0)
(0.232092 0.0665884 0)
(0.230278 -0.0486756 0)
(0.0857662 -0.0164697 0)
(0.0499363 0.0352576 0)
(0.0554561 0.0449246 0)
(0.074569 0.0572169 0)
(0.0756141 0.0750294 0)
(0.0933548 0.0836541 0)
(0.0605123 -0.101137 0)
(-0.296492 -0.0880658 0)
(0.351891 0.565485 0)
(0.3179 -0.356818 0)
(-0.0693262 -0.245928 0)
(-0.139674 -0.139935 0)
(-0.0654837 0.0429551 0)
(0.0111403 0.0616457 0)
(0.0545524 0.0284131 0)
(0.0672689 0.00993868 0)
(0.0706371 0.00911725 0)
(0.0729154 0.00968843 0)
(0.0757984 0.00633818 0)
(0.0778023 0.00102487 0)
(0.0778543 -0.00145926 0)
(0.077546 -0.00139416 0)
(0.0778873 -0.000265122 0)
(0.0787601 0.000697834 0)
(0.0802166 0.00213651 0)
(0.082044 0.00624209 0)
(0.0873286 0.0172602 0)
(0.102425 0.0406479 0)
(0.113535 0.0551479 0)
(0.0913415 0.000715924 0)
(-0.0188191 -0.154022 0)
(-0.164651 -0.218734 0)
(-0.143008 -1.36678 0)
(0.979982 0.947802 0)
(0.214073 0.675086 0)
(0.0721335 -0.372607 0)
(-0.20486 -0.327066 0)
(-0.219021 -0.0158041 0)
(-0.332446 0.784792 0)
(-0.584458 0.300487 0)
(0.024492 0.00160462 0)
(-0.0416765 -0.0142157 0)
(-0.0279046 -0.0270447 0)
(0.0271994 0.0401654 0)
(0.0755682 -0.0177487 0)
(-0.0148015 0.00413948 0)
(0.0119391 0.0290827 0)
(0.0389024 0.0323841 0)
(0.0746632 0.0458207 0)
(0.109705 0.0650324 0)
(0.135804 0.0925314 0)
(0.131358 -0.0441608 0)
(-0.158113 -0.132406 0)
(0.374393 0.425925 0)
(0.152749 -0.226171 0)
(0.0206158 -0.232144 0)
(-0.0830479 -0.10925 0)
(-0.0670906 0.0130153 0)
(-0.00419101 0.0347855 0)
(0.0340538 0.0165693 0)
(0.0448781 0.00646481 0)
(0.0506792 0.00666976 0)
(0.0576903 0.00703273 0)
(0.0641067 0.00437589 0)
(0.0669749 0.000595568 0)
(0.0665288 -0.00115298 0)
(0.0653718 -0.00113451 0)
(0.0649431 -0.0004242 0)
(0.0652701 0.000168436 0)
(0.066693 0.00112444 0)
(0.0694511 0.0039351 0)
(0.0781464 0.01154 0)
(0.100175 0.0286275 0)
(0.136895 0.044731 0)
(0.174991 0.0123431 0)
(0.117686 -0.072549 0)
(-0.0202236 -0.265301 0)
(0.0414365 -0.964639 0)
(-0.692779 0.800945 0)
(0.117578 0.614722 0)
(0.0148779 -0.252364 0)
(-0.272952 -0.250156 0)
(-0.344154 -0.00193476 0)
(-0.346818 0.722087 0)
(1.14148 0.268519 0)
(0.0287197 0.0872839 0)
(-0.0560414 -0.0344973 0)
(-0.0543604 -0.0410795 0)
(-0.0450302 0.0101351 0)
(0.00495678 -0.00784724 0)
(-0.045098 0.00508867 0)
(-0.00349179 0.0128496 0)
(0.0254316 0.0150705 0)
(0.06522 0.0260268 0)
(0.126789 0.0427781 0)
(0.167417 0.0832658 0)
(0.224858 -0.0103758 0)
(-0.0140105 -0.14564 0)
(0.314738 0.26142 0)
(0.389564 -0.0280919 0)
(0.0987245 -0.176337 0)
(-0.045603 -0.0740564 0)
(-0.057496 -4.27668e-05 0)
(-0.0130863 0.0145766 0)
(0.015753 0.00700659 0)
(0.0239352 0.00300966 0)
(0.0302171 0.00334269 0)
(0.0380688 0.00342459 0)
(0.044675 0.00201494 0)
(0.0472376 0.000149934 0)
(0.0465454 -0.000662942 0)
(0.0451451 -0.000633723 0)
(0.0443221 -0.00032145 0)
(0.0440821 -0.000132376 0)
(0.0447215 0.000155793 0)
(0.0465213 0.00121245 0)
(0.0540208 0.00449641 0)
(0.0734921 0.0125213 0)
(0.115696 0.0208391 0)
(0.17146 0.00526942 0)
(0.141115 -0.0311034 0)
(-0.0040124 -0.211536 0)
(-0.77574 -0.545457 0)
(-1.24725 0.41122 0)
(0.148178 0.340834 0)
(-0.0368785 -0.115155 0)
(-0.318924 -0.146399 0)
(-0.46988 0.00755812 0)
(-0.343951 0.497389 0)
(0.0420695 0.0564777 0)
(-0.0101792 0.0699831 0)
(0.143826 -0.00302925 0)
(0.00124615 -0.0128414 0)
(-0.021738 0.000486997 0)
(0.00246338 -0.00225922 0)
(-0.0204665 -7.15166e-05 0)
(6.79966e-05 0.000374267 0)
(0.0122587 0.00147439 0)
(0.0347927 0.00442345 0)
(0.088527 0.0116272 0)
(0.142146 0.0382606 0)
(0.279652 0.0166844 0)
(0.106869 0.0116185 0)
(0.156239 0.0641409 0)
(0.528279 -0.0124105 0)
(0.197533 -0.0621367 0)
(0.000255416 -0.0269799 0)
(-0.0290878 -0.00168655 0)
(-0.0115154 0.00188327 0)
(0.00254679 0.000837313 0)
(0.00636395 0.000401643 0)
(0.00991061 0.000491029 0)
(0.0142543 0.000503141 0)
(0.0177307 0.000274936 0)
(0.01888 -2.95928e-05 0)
(0.0182838 -0.000131035 0)
(0.0173711 -0.000106231 0)
(0.0167897 -4.57752e-05 0)
(0.016465 -3.91884e-05 0)
(0.0163865 -4.13124e-05 0)
(0.0165313 -1.26297e-05 0)
(0.0190095 0.000300241 0)
(0.0270288 0.00126484 0)
(0.0486527 0.00210477 0)
(0.0794114 -0.000551792 0)
(0.0522507 -0.00717069 0)
(-0.0291795 -0.0588983 0)
(-0.620734 -0.177027 0)
(-0.896363 0.0821383 0)
(0.0397045 0.101349 0)
(-0.0399923 -0.00670426 0)
(-0.202926 -0.0358891 0)
(-0.348857 -0.00637223 0)
(-0.123151 0.248666 0)
(0.714521 0.0468092 0)
)
;

boundaryField
{
    AirInlet
    {
        type            fixedValue;
        value           uniform (0.1 0 0);
    }
    WaterInlet
    {
        type            fixedValue;
        value           uniform (0.1 0 0);
    }
    ChannelWall
    {
        type            fixedValue;
        value           uniform (0 0 0);
    }
    Outlet
    {
        type            pressureInletOutletVelocity;
        value           nonuniform List<vector> 
15
(
(-0.308179 0 0)
(-0.159872 0 0)
(0.951119 0.339423 0)
(0.756328 0.283301 0)
(0.0577226 0.258239 0)
(-0.505841 0 0)
(-0.465902 0 0)
(-0.552324 0 0)
(-0.727562 0 0)
(-0.805599 0 0)
(-0.945757 0 0)
(-0.270838 0 0)
(1.14148 0.268519 0)
(0.0420695 0.0564777 0)
(0.714521 0.0468092 0)
)
;
    }
    FrontAndBack
    {
        type            empty;
    }
}


// ************************************************************************* //
