/*--------------------------------*- C++ -*----------------------------------*\
| =========                 |                                                 |
| \\      /  F ield         | OpenFOAM: The Open Source CFD Toolbox           |
|  \\    /   O peration     | Version:  2.3.0                                 |
|   \\  /    A nd           | Web:      www.OpenFOAM.org                      |
|    \\/     M anipulation  |                                                 |
\*---------------------------------------------------------------------------*/
FoamFile
{
    version     2.0;
    format      ascii;
    class       volScalarField;
    location    "1.3e-05";
    object      alpha.fuel;
}
// * * * * * * * * * * * * * * * * * * * * * * * * * * * * * * * * * * * * * //

dimensions      [0 0 0 0 0 0 0];

internalField   nonuniform List<scalar> 
7500
(
1
1
1
1
1
1
1
1
1
1
1
1
1
1
1
1
1
1
1
1
1
1
1
1
1
1
1
1
1
1
1
1
1
1
1
1
1
1
1
1
1
1
1
1
1
1
1
1
1
1
1
1
1
1
1
1
1
1
1
1
1
1
1
1
1
1
1
1
1
1
1
1
1
1
1
1
1
1
1
1
1
1
1
1
1
1
1
1
1
1
1
1
1
1
1
1
1
1
1
1
1
1
1
1
1
1
1
1
1
1
1
1
1
1
1
1
1
1
1
1
1
1
1
1
1
1
1
1
1
1
1
1
1
1
1
1
1
1
1
1
1
1
1
1
1
1
1
1
1
1
1
1
1
1
1
1
1
1
1
1
1
1
1
1
1
1
1
1
1
1
1
1
1
1
1
1
1
1
1
1
1
1
1
1
1
1
1
1
1
1
1
1
1
1
1
1
1
1
1
1
1
1
1
1
1
1
1
1
1
1
1
1
1
1
1
1
1
1
1
1
1
1
1
1
1
1
1
1
1
1
1
1
1
1
1
1
1
1
1
1
1
1
1
1
1
1
1
1
1
1
1
1
1
1
1
1
1
1
1
1
1
1
1
1
1
1
1
1
1
1
1
1
1
1
1
1
1
1
1
1
1
1
1
1
1
1
1
1
1
1
1
1
1
1
1
1
1
1
1
1
1
1
1
1
1
1
1
1
1
1
1
1
1
1
1
1
1
1
1
1
1
1
1
1
1
1
1
1
1
1
1
1
1
1
1
1
1
1
1
1
1
1
1
1
1
1
1
1
1
1
1
1
1
1
1
1
1
1
1
1
1
1
1
1
1
1
1
1
1
1
1
1
1
1
1
1
1
1
1
1
1
1
1
1
1
1
1
1
1
1
1
1
1
1
1
1
1
1
1
1
1
1
1
1
1
1
1
1
1
1
1
1
1
1
1
1
1
1
1
1
1
1
1
1
1
1
1
1
1
1
1
1
1
1
1
1
1
1
1
1
1
1
1
1
1
1
1
1
1
1
1
1
1
1
1
1
1
1
1
1
1
1
1
1
1
1
1
1
1
1
1
1
1
1
1
1
1
1
1
1
1
1
1
1
1
1
1
1
1
1
1
1
1
1
1
1
1
1
1
1
1
1
1
1
1
1
1
1
1
1
1
1
1
1
1
1
1
1
1
1
1
1
1
1
1
1
1
1
1
1
1
1
1
1
1
1
1
1
1
1
1
1
1
1
1
1
1
1
1
1
1
1
1
1
1
1
1
1
1
1
1
1
1
1
1
1
1
1
1
1
1
1
1
1
1
1
1
1
1
1
1
1
1
1
1
1
1
1
1
1
1
1
1
1
1
1
1
1
1
1
1
1
1
1
1
1
1
1
1
1
1
1
1
1
1
1
1
1
1
1
1
1
1
1
1
1
1
1
1
1
1
1
1
1
1
1
1
1
1
1
1
1
1
1
1
1
1
1
1
1
1
1
1
1
1
1
1
1
1
1
1
1
1
1
1
1
1
1
1
1
1
1
1
1
1
1
1
1
1
1
1
1
1
1
1
1
1
1
1
1
1
1
1
1
1
1
1
1
1
1
1
1
1
1
1
1
1
1
1
1
1
1
1
1
1
1
1
1
1
1
1
1
1
1
1
1
1
1
1
1
1
1
1
1
1
1
1
1
1
1
1
1
0.99994763
0.99997976
0.99998283
0.99865035
0.99330191
0.97446729
0.9278749
0.88672916
1
1
1
1
1
1
1
1
1
1
1
1
1
1
1
1
1
1
1
1
1
1
1
1
1
1
1
1
1
1
1
1
1
1
1
1
1
1
1
1
1
1
1
1
1
1
1
1
1
1
1
1
0.99790632
0.98998195
0.97636744
0.95520529
0.92979931
0.91061828
0.89358292
0.8661023
0.82484198
0.76947822
0.69810972
0.61265071
0.51040395
0.41399531
0.3380509
0.32646896
0.33067049
0.33204859
0.32392133
0.28312042
0.1787174
0.046770022
9.1125198e-10
1
1
1
1
1
1
1
1
1
1
1
1
1
1
1
1
1
1
1
1
1
1
1
1
1
1
1
1
1
1
1
1
1
1
1
1
1
1
1
1
1
1
0.99232277
0.97622327
0.94748228
0.91097538
0.83541921
0.74889959
0.67690253
0.59676116
0.51397948
0.43307918
0.33034896
0.23316893
0.16098102
0.09945943
0.05219344
0.032184276
0.0096498511
5.6651531e-10
3.6404244e-10
3.6404243e-10
3.6404241e-10
3.6404241e-10
3.6404241e-10
3.6404241e-10
3.6404241e-10
3.6404245e-10
3.6404277e-10
3.6404287e-10
3.6404295e-10
3.6404298e-10
3.6404302e-10
3.6404322e-10
3.8212436e-10
1
1
1
1
1
1
1
1
1
1
1
1
1
1
1
1
1
1
1
1
1
1
1
1
1
1
1
1
1
1
1
1
1
1
0.989574
0.96222989
0.9137949
0.8131158
0.6921031
0.57459824
0.46402066
0.35381703
0.25043846
0.16321011
0.091835717
0.0046281474
8.3035575e-10
7.5542871e-10
7.554287e-10
7.554287e-10
7.5542868e-10
7.5542866e-10
7.5542865e-10
7.5542862e-10
7.5542859e-10
7.5542858e-10
7.5553118e-10
7.5614924e-10
7.5637022e-10
8.7798521e-10
8.106639e-10
1.464793e-08
8.2395816e-10
8.6379388e-10
1.0111583e-09
1.1739899e-09
4.729898e-10
1.2967427e-08
1.3743828e-07
4.0510526e-08
2.7951514e-08
1.4456287e-08
1.0727069e-08
1.1615862e-08
1.3439308e-08
1
1
1
1
1
1
1
1
1
1
1
1
1
1
1
1
1
1
1
1
1
1
1
1
1
1
1
1
0.98058319
0.93184255
0.80791498
0.67188876
0.52579882
0.3727223
0.23988854
0.13083578
0.0011257109
3.1425214e-09
3.1256967e-09
3.1256967e-09
3.1256967e-09
3.1256967e-09
3.1256967e-09
3.1256967e-09
3.1256968e-09
3.1256974e-09
3.5592857e-09
4.7346423e-09
4.9177389e-09
6.2157584e-09
8.0872826e-09
9.5854222e-09
1.0163944e-08
8.4614887e-09
4.9115003e-09
7.5623927e-10
4.5163581e-06
1.4895782e-05
2.7525638e-06
1.2636128e-09
1.1699881e-09
1.9516341e-05
2.4602203e-05
1.3270038e-09
1.2002411e-09
8.5780534e-10
1.0303971e-06
9.3234667e-07
4.7856782e-09
4.174559e-09
7.0483305e-07
1.1249736e-08
1.098796e-08
1.1345674e-08
1.1650192e-08
1
1
1
1
1
1
1
1
1
1
1
1
1
1
1
1
1
1
1
1
1
1
1
0.97692953
0.90561701
0.73994469
0.56026814
0.36322422
0.19673267
0.028368166
3.913444e-09
3.6297817e-09
3.6297817e-09
3.6297817e-09
3.6297817e-09
3.6297817e-09
3.6297854e-09
5.5232191e-09
6.8951912e-09
7.9892929e-09
3.6270712e-09
1.0270726e-08
9.901126e-09
9.3446568e-09
7.8877825e-09
7.3687017e-09
8.1580485e-09
1.1132596e-08
1.3158362e-08
1.416402e-08
1.2766332e-08
1.4357911e-08
1.5654513e-08
1.0641512e-08
6.608141e-09
4.198283e-09
2.3267259e-09
2.1722505e-09
0.00094576807
0.0015627906
0.0010085954
4.7554385e-08
0.0013342503
0.003891562
0.0033549225
1.3788109e-09
2.3972315e-07
5.4721812e-09
5.1817138e-09
4.6533937e-09
4.9243031e-09
8.6412311e-05
0.0015070108
0.0046308254
0.0030116462
1
1
1
1
1
1
1
1
1
1
1
1
1
1
1
1
1
1
1
0.96411948
0.84548959
0.6385887
0.41019491
0.19773681
5.008996e-09
3.7402385e-09
3.7402385e-09
3.7402378e-09
3.7402381e-09
3.7402409e-09
6.1434866e-09
4.6012401e-09
4.2345628e-09
4.5329727e-09
4.9246815e-09
6.8120308e-09
9.8127834e-09
1.7919673e-08
1.3944723e-08
8.1676801e-09
2.5935857e-06
4.89636e-08
8.9789807e-09
6.644169e-09
6.5884255e-09
7.839582e-09
1.172484e-08
1.4321697e-08
1.3972297e-08
1.1782127e-08
7.515286e-09
8.4504655e-09
1.1636785e-08
5.1472377e-09
2.9008628e-09
2.3298297e-09
8.7068769e-08
2.1729263e-09
0.0001503458
0.0063683042
0.0063970165
0.0016422765
4.0793402e-08
0.0072803198
0.016877263
0.0084610193
4.9624132e-05
0.00066341303
0.0074326226
0.006677874
0.0010163912
0.0006846603
0.007008764
0.0071315137
0.006393096
1
1
1
1
1
1
1
1
1
1
1
1
1
1
1
1
0.92149124
0.72017314
0.45507016
0.15753314
4.9420358e-09
3.9406924e-09
3.9406924e-09
3.9406924e-09
4.6426609e-09
4.4290258e-09
2.3863747e-07
5.010632e-09
7.4518145e-08
1.1118596e-07
4.5036826e-08
5.1783204e-09
5.1741162e-09
4.8904859e-09
5.4048621e-09
8.9629131e-09
1.2807442e-08
7.6640741e-09
5.0227313e-09
1.2478439e-05
3.8162356e-05
1.2473445e-06
6.3768445e-09
6.3636345e-09
6.8063004e-09
1.0147458e-08
8.4066803e-09
5.5344667e-08
2.9403216e-08
3.9545852e-09
3.5459526e-09
3.0884725e-09
2.5022497e-09
2.7502052e-09
2.4271012e-09
1.8455413e-06
4.1384241e-06
5.9121314e-08
1.1672814e-08
1.1377219e-08
0.00065795981
0.00071316903
7.5200265e-05
1.0063671e-05
0.010676148
0.013043181
0.00015707903
0.0066054654
0.0078437514
0.0078437513
0.0073309107
1.5453318e-09
1.123415e-09
0.00085011511
0.0016984982
1
1
1
1
1
1
1
1
1
1
1
1
1
0.92880731
0.71761978
0.40598781
0.046532976
4.7699511e-09
4.371033e-09
4.3710328e-09
5.8391004e-09
5.8512118e-09
4.7675045e-09
4.8343122e-09
0.00010385549
0.00012934213
2.9639772e-05
3.9834892e-05
3.5035331e-05
7.5288105e-09
2.299236e-07
8.3436339e-07
5.717957e-09
5.6003357e-09
2.9943082e-05
5.8393275e-09
5.2124739e-09
4.9656696e-09
5.4100582e-09
5.7529147e-09
1.8959923e-05
0.00014954998
0.00024508982
2.6413097e-05
7.3863955e-09
7.9062938e-09
8.3298472e-09
3.0601916e-07
8.5660001e-09
1.6782962e-05
0.00069475206
0.001188491
0.00033010509
4.6185339e-06
8.768995e-05
3.3807294e-05
8.6721858e-09
8.6816517e-09
0.03365024
0.0060247241
1.994457e-08
2.9999977e-05
0.00014904091
2.0457613e-05
8.3359997e-10
0.013002812
0.0108896
0.0021763407
0.0010328159
0.0020097822
0.00088058864
0.00010560437
1.1866167e-09
1.2365227e-09
1.2277064e-09
1
1
1
1
1
1
1
1
1
1
1
0.86746436
0.54821913
0.10251042
4.2270155e-09
3.5104875e-09
3.5104875e-09
3.4890954e-08
5.3105583e-08
5.2837323e-09
3.0432076e-07
5.8652845e-09
0.00090129513
0.0015137874
0.0026755741
0.0021789741
1.1055762e-06
8.7929829e-05
7.4975293e-09
7.5062514e-09
3.7226788e-06
1.0653099e-05
2.3284774e-05
0.00075794302
0.00088673758
0.00024304166
5.3421515e-09
2.7459631e-05
6.1444563e-09
6.2988794e-09
6.8209104e-09
7.2205917e-09
0.0001457155
2.2395011e-07
0.0065804336
0.0055007012
0.0017081118
5.6067559e-06
8.6365289e-09
0.00062186399
0.0013912596
0.0014073173
0.0010401805
0.00035934801
9.0410619e-06
4.6434545e-09
0.0014223348
0.029078828
0.063872557
0.062332623
0.012156289
6.697036e-09
1.9109918e-06
4.673406e-08
8.3230833e-10
0.0073211553
0.010851029
0.0078778905
0.00040163666
1.6118645e-09
1.3489441e-09
1.1974375e-09
9.533208e-10
8.889821e-05
0.00087268582
1
1
1
1
1
1
1
1
1
0.84728203
0.45846099
0.0039535616
3.953378e-09
3.9127063e-09
4.9267388e-09
4.5886964e-09
4.4319205e-09
1.7903482e-07
1.2741204e-07
4.884897e-08
7.3555791e-09
6.3658165e-09
0.0033879993
0.0033812227
0.0030921719
0.00025522086
1.1054233e-06
1.9988693e-05
1.7282241e-05
6.824966e-09
7.4586324e-09
6.7915714e-09
0.00041938366
0.0013131614
0.0001505168
0.00086585471
0.001063203
2.7666944e-05
0.041124027
0.048272943
0.045971925
0.0067616863
7.6699981e-08
0.0086089712
0.0094222464
0.0094104438
0.0056547556
1.9399501e-08
0.00024683987
2.5929292e-09
2.4375002e-09
8.0854191e-05
0.0010947896
0.00076536508
5.13286e-09
4.6170143e-09
0.0076930817
0.049529307
0.039021493
0.062799935
0.051308218
0.0001037242
1.603329e-09
1.3311921e-09
1.0891613e-09
1.3735668e-09
0.0053642957
0.0021130344
0.0039982963
0.0029196629
0.00099960486
0.00080604235
4.0216373e-06
1.1059183e-09
0.004680737
1
1
1
1
1
1
1
0.89465698
0.51380535
0.0089306988
1.1913528e-08
1.1823358e-08
2.2438911e-07
2.7333994e-05
3.9177303e-05
2.2113938e-05
5.5646056e-05
1.0581682e-05
5.1376796e-08
5.0352029e-08
0.0027569048
0.00060202081
3.4372372e-08
3.432581e-08
0.0013487765
2.1482178e-07
3.1221181e-05
0.00012307113
3.3449003e-05
4.2927291e-08
0.00037356062
7.7180218e-09
7.0802153e-09
0.00020060828
0.00015589083
5.3308292e-09
0.00031964254
2.7875437e-05
0.049195512
0.092969809
0.092969809
0.074775473
7.7033926e-08
0.0015361187
1.5556245e-05
2.1621228e-09
2.1594298e-09
1.0427306e-05
2.2560247e-09
2.2322847e-09
2.6775363e-09
2.9558003e-09
0.00021719655
0.00011248889
5.0635447e-09
0.0042658662
4.7360924e-05
1.2087728e-09
1.2082712e-09
1.4054049e-09
0.023697351
0.012122879
2.6402003e-05
0.00039917877
0.00021779871
5.1187033e-06
2.0298623e-09
1.8395864e-09
1.8395864e-09
0.0032260985
0.0048397468
0.0048397468
0.0038392004
1.306949e-09
0.00607582
1
1
1
1
1
1
0.73988419
0.10884766
1.6509003e-08
1.5713567e-08
6.8129604e-08
1.8387672e-05
0.00021916867
0.00040366305
0.00040420902
7.3995474e-05
0.00053998584
2.3514279e-07
0.0018526484
0.0038935182
0.0053776049
1.2876985e-05
3.5080265e-08
0.00034357671
0.0045669083
0.0018690134
2.0002778e-07
1.9916215e-07
0.00020041552
0.00076804334
0.00084301954
0.00036299776
5.0003791e-06
1.1859938e-05
6.2664853e-05
6.0712112e-09
6.0968164e-09
0.013324924
2.3093965e-08
0.040998771
0.019608035
2.1158756e-09
0.0013070074
1.8154426e-05
5.3915193e-09
6.1928499e-09
8.9102333e-09
2.1759623e-09
2.2175561e-09
2.4680466e-09
0.0015600627
0.00052699687
2.6148303e-09
2.1287548e-09
0.00090617161
0.00066170998
9.2655244e-05
1.4818852e-09
1.333074e-09
1.2082706e-09
1.2082704e-09
0.0073038241
0.0073797408
0.0034978848
0.00082459877
1.9858793e-09
1.7596893e-09
1.9886124e-09
2.1434574e-09
2.1772613e-09
0.0034669797
0.003999001
0.0041024805
0.0036071909
0.00091410479
1
1
1
1
0.97027675
0.48158148
1.7334378e-08
1.5066003e-08
0.00010707906
3.5415418e-05
9.5214818e-05
0.00023204925
6.255817e-09
2.8446796e-06
0.0004047312
9.3741507e-05
0.00053496327
0.0045609217
0.0045532729
0.0045530557
0.0023986401
0.00091367719
5.3053103e-05
0.0013928149
9.6254812e-05
0.0038420172
0.001080735
1.9395065e-07
0.00029340488
0.00068659615
0.00039329508
0.00052768618
3.2807612e-05
5.0939874e-09
5.1973853e-09
0.0024263571
3.6889838e-05
0.0029036126
0.00046198011
0.00099147745
2.0113545e-09
2.0220024e-09
3.1102338e-05
3.9306108e-06
5.5899216e-09
5.7048308e-09
8.8393378e-08
2.5599678e-09
2.4779876e-09
0.00028729203
0.0022539371
0.0016906792
2.5683192e-09
2.1071685e-09
2.542856e-09
2.6541385e-09
3.1708882e-05
6.7124107e-06
1.4921187e-09
1.2421586e-09
1.2100697e-09
0.0012493749
5.5158444e-06
1.8053455e-09
6.8970544e-05
1.7414678e-09
1.7332838e-09
0.0014958769
0.00050703191
0.00018796387
1.5080802e-09
1.463197e-09
1.4617381e-09
1.4613053e-09
0.00026876851
1
1
1
0.95659832
0.26743559
2.1612847e-08
2.0023986e-08
0.00063116043
0.00063045093
0.00030292767
4.0937733e-09
3.0395103e-09
3.3149359e-09
5.0185763e-09
0.00040524259
0.013502426
9.7216612e-05
0.00084690794
1.4563832e-07
1.4564461e-07
1.4633716e-07
0.00010653642
4.0647157e-05
1.5966195e-08
1.6503713e-08
0.0038409569
0.003841851
0.0022775061
4.6942976e-09
4.6942951e-09
4.6942927e-09
4.6942889e-09
4.6942861e-09
4.6942636e-09
0.0012137419
0.0028199362
0.00053079684
2.2977655e-09
1.8480329e-09
2.2135069e-09
2.0793322e-09
3.1233521e-08
2.7029728e-09
2.6987255e-09
0.0091014541
0.0012790365
1.1023083e-05
0.011778154
0.00026347075
0.0018583766
0.00010456958
0.0002345574
2.4513234e-09
0.00070845129
0.0024575309
0.0018881928
0.00030898139
2.024877e-09
1.7814168e-09
1.2275407e-09
7.0378441e-07
1.7280263e-09
1.3300771e-05
1.1417888e-08
2.1550193e-09
0.0045098675
0.0048878688
0.0057973014
0.00089413534
1.9259145e-09
1.7470874e-09
1.2595063e-05
4.3970826e-06
8.748993e-09
1.788325e-09
1
1
0.9868365
0.24918655
2.7052448e-08
2.5065478e-08
0.003132922
0.0031324681
0.00019839136
5.8669416e-09
5.8725688e-09
4.4028621e-09
3.1676587e-08
6.5204507e-09
0.00031049692
0.013502425
0.0044025371
1.9174028e-07
5.8824468e-06
9.9430069e-05
0.0021100185
2.7372007e-08
0.00015941895
1.6859294e-08
0.00099902479
0.00096588885
0.0038418506
0.00066307665
5.4275482e-09
5.0609737e-09
5.3995654e-09
5.2562532e-09
5.1999883e-09
4.7566351e-09
4.226798e-09
0.0020517947
2.9547774e-09
2.2312597e-09
2.231409e-09
2.1111303e-09
2.6863434e-09
2.9324797e-09
2.368641e-09
0.010710558
0.013212428
0.0045641639
2.317639e-05
0.039556507
0.010427085
2.0919695e-09
1.6728097e-09
0.0037275787
0.0079165094
0.0079568937
0.0079478495
0.0043668707
2.4955699e-09
2.1235329e-09
1.7975739e-09
1.5095869e-09
1.458859e-09
1.5079e-09
1.4899955e-09
6.6056765e-09
2.1544257e-09
0.0017955466
0.0057973004
0.002406707
2.1489353e-09
1.8684286e-09
2.027546e-05
3.2562382e-05
1.4206433e-05
2.1384146e-09
1.9723026e-09
1
1
0.31426135
3.1398819e-08
2.8898316e-08
0.0034147454
0.0046045811
0.00044003628
7.802604e-07
7.6114073e-07
8.5226882e-05
8.1277351e-06
3.3400262e-08
7.9349669e-06
0.0032549871
0.0069006454
0.013501721
0.003351188
0.00091383964
0.0014065967
0.0029440144
1.1967128e-05
1.2318604e-05
0.0022132247
0.0064990303
3.8804149e-05
0.0038418504
1.1804433e-05
0.00027694216
5.9386901e-09
0.012683693
0.000573234
0.00068229762
5.1373071e-09
4.6589867e-09
4.6460461e-09
0.0012181531
0.0016018602
0.0056928052
2.2400185e-09
0.037104461
0.011325864
2.8892182e-09
5.8169719e-05
1.1862663e-09
0.0066418849
0.0018206818
0.039556506
0.029039739
1.1164558e-05
1.7525959e-09
0.00011318254
0.0034977432
0.0016682797
2.055366e-09
1.9852198e-09
0.0063810654
0.019661246
0.01549024
0.0037391618
1.7860609e-09
1.7723873e-09
1.6800593e-09
2.6237183e-08
2.2861218e-09
2.3674995e-09
0.0043905814
0.00097934575
2.1782466e-09
1.8832906e-09
3.9284866e-05
2.3446765e-05
2.6842964e-08
0.0037193662
0.0046320751
1
0.64187975
0.023899798
0.00027779287
0.0002270716
0.0040969552
0.00024717922
7.495986e-06
3.5590374e-05
0.00010669426
0.00011960676
2.196392e-05
3.5281622e-08
0.00049812042
0.0032707925
0.00045197353
0.013501717
0.00030636964
6.8818133e-09
0.00020190318
0.00091375285
0.00067884488
0.0051751932
0.0068917785
0.0049225816
0.00067319354
0.0012014439
0.0011295061
0.0010913654
0.0018726027
0.019376916
0.0024092671
0.0028286638
0.00071562763
2.1690692e-05
1.2342905e-06
1.0994433e-06
3.635086e-09
0.057767185
0.031179001
0.043161012
0.01416631
0.00043266797
1.2934079e-09
9.895617e-10
9.8955321e-10
0.032095388
0.039556506
0.039556506
0.0078430892
1.8995146e-09
1.4342357e-09
1.7311205e-09
1.9295667e-09
1.9341479e-09
1.9417514e-09
0.017976994
0.028890575
0.028786494
0.0072775545
1.7064548e-09
1.4434536e-09
1.1581756e-06
8.4029348e-08
3.3022461e-07
2.5921127e-06
1.3019249e-08
1.2808586e-08
1.1977107e-05
2.5815179e-06
2.4529736e-10
2.3337093e-10
0.011263668
0.019327493
0.011846907
0.96877766
0.079668702
1.0289503e-08
7.0261003e-09
0.0010909562
3.7186181e-08
3.6848861e-08
3.9094433e-06
5.912822e-09
5.910831e-09
5.9077054e-09
2.2168359e-05
1.3419086e-05
0.00068952817
0.00029327717
0.0004462998
0.0041252418
5.3058661e-06
6.8823966e-09
6.8972768e-09
6.170845e-09
6.1708446e-09
0.0069358178
1.4336919e-06
1.433606e-06
0.00082576674
6.1264827e-08
2.0498641e-05
5.4360546e-08
0.0030686526
0.01098629
0.011716878
0.00359848
0.0030484074
0.0029193165
1.891396e-05
3.5684305e-09
3.6544017e-09
0.015966416
0.098253616
0.00021204888
4.852873e-09
0.00019824427
3.9361074e-06
1.4739911e-09
9.8955324e-10
0.037948783
0.022203927
0.039556506
0.039449074
3.5348124e-05
1.6447061e-09
6.8266942e-06
0.0026547281
2.2945674e-09
0.0021700189
0.00061855532
0.00030720237
4.5112717e-10
4.4840447e-10
0.001334774
0.0016348124
0.0001647674
8.7275904e-10
6.8483818e-10
0.00035318517
0.00081700635
0.00017498226
4.2425871e-10
2.3651931e-10
3.71835e-10
2.3337096e-10
0.012914726
0.01225935
0.00075301903
0.3203482
4.4750728e-08
1.4217268e-05
1.0685565e-08
1.1038512e-08
0.00025720529
0.00084873549
1.355417e-08
1.3462658e-08
9.0527022e-08
5.9064882e-09
6.4470788e-09
8.7785705e-07
1.9727434e-05
3.0261865e-09
3.0261852e-09
4.0754836e-09
1.0328047e-05
7.07109e-09
6.0826461e-09
6.359131e-09
6.1810525e-09
0.0069360371
0.00062922127
1.433606e-06
0.0026569097
0.0018055265
2.5328043e-07
0.00032428132
1.9226816e-09
1.7718723e-09
0.01171674
0.0010175879
3.4898878e-09
3.9852893e-09
4.8379163e-09
0.0029540391
0.00046455473
9.7846612e-09
0.023103658
0.027586481
0.00045827485
9.1260342e-09
9.0551238e-09
6.6705774e-05
1.2959249e-09
0.0037462257
9.7975585e-10
0.037397636
0.002649852
8.2021286e-06
1.8518027e-09
1.648437e-09
0.021624709
0.011803099
0.00044791438
5.5303506e-05
1.4527922e-05
2.5485528e-07
6.531287e-10
4.4839841e-10
6.7095092e-05
8.2834995e-05
1.5664528e-05
8.9510752e-10
0.00011736802
0.00012938047
0.00017714517
6.8713136e-10
4.8107512e-10
6.4216252e-10
4.8177258e-10
3.987664e-10
4.0129915e-10
4.6612379e-05
0.10231728
4.0057765e-08
0.00018819112
0.00014923675
3.8214858e-05
0.00022101572
0.00018781803
8.2474175e-06
6.8714316e-09
6.8193273e-09
5.800141e-09
3.1984821e-05
3.3930127e-07
9.8436362e-07
3.2295166e-09
3.0331087e-09
3.0275431e-09
4.6237863e-09
0.002452285
0.00019190979
7.1231917e-09
1.9460835e-06
0.0069360562
0.0028335174
1.4342695e-06
0.00071671692
5.4207272e-05
0.00065250197
0.0011955851
0.00016784529
1.7818603e-09
0.01170853
0.00069034716
4.0969322e-09
9.3829352e-08
5.139457e-09
0.00032582374
2.0145316e-09
0.00041592746
5.8151191e-06
0.11267061
0.015010336
9.2107865e-09
8.119996e-05
8.0500438e-05
0.0043167426
0.00020656644
7.9560075e-10
4.0881475e-10
4.0886724e-10
6.4053334e-10
7.0539988e-10
1.6469298e-09
0.017096451
0.022774055
0.0026236928
1.4924229e-09
1.2860081e-09
1.0897128e-09
8.7419887e-10
6.4297258e-10
4.553774e-10
4.553555e-10
4.5535482e-10
1.7671562e-06
2.4885143e-08
6.0793738e-10
4.4733868e-10
0.00085160229
0.017449891
0.020793232
0.0025986693
5.5143664e-10
7.8200636e-05
5.7316043e-06
1.8241124e-09
3.4446251e-08
0.00018818792
0.00018818154
6.2381628e-09
6.238693e-09
8.0366435e-09
8.0463464e-09
3.0526104e-08
6.1942919e-09
4.9228525e-09
0.00015829256
9.7572302e-06
3.820302e-09
3.349932e-09
3.0262801e-09
0.0056422555
0.0056780076
0.0056481959
8.5255795e-05
7.1843193e-09
0.0015231286
0.0046059945
0.0069044583
0.00027365204
0.00077100082
2.7545711e-09
2.7104994e-09
1.7618707e-09
1.7618476e-09
1.7618012e-09
0.0091811434
0.00013322473
0.00021050859
2.0877988e-05
0.0043979085
0.00050467591
1.5640799e-09
9.5631223e-10
9.5632374e-10
0.11262784
0.030828134
9.2947317e-09
0.00049313492
1.6360407e-09
0.015144806
0.003618254
6.7564556e-10
4.1038433e-10
4.0885882e-10
0.0005560732
0.013671961
0.013072148
0.00057504944
0.0042521396
0.0012086353
1.715433e-09
1.4779442e-09
1.8898938e-05
3.0871753e-05
1.0050563e-05
6.7120202e-10
6.2540228e-10
4.5574788e-10
5.8685492e-07
1.4868825e-06
8.5427133e-08
4.4734077e-10
0.0084556452
0.021476708
0.021394814
0.0036241132
7.0405211e-10
0.00030466886
4.0211535e-05
4.8122711e-09
8.736989e-06
0.00011886733
7.7658262e-05
7.0511749e-09
1.1273959e-08
1.1941854e-08
1.5813193e-08
4.0051875e-08
5.4712947e-07
4.9230184e-09
0.00012905711
3.8748011e-06
4.4704053e-09
3.3994379e-09
3.0380016e-09
0.002514166
0.006111776
2.2072546e-07
0.00089481817
0.0038169621
0.0038098657
2.379112e-07
0.0069044587
0.0013590906
0.005529591
0.0016197486
3.2547699e-09
3.400739e-08
2.1878379e-08
2.0375507e-09
0.003219082
0.0048292171
0.00041206811
9.7347739e-09
0.0079965355
0.0057211262
1.5399341e-09
1.0412147e-09
9.5631145e-10
0.023098848
0.045474703
0.00062599299
1.7716406e-09
1.5708922e-09
1.1581513e-09
9.8025133e-10
7.5473909e-10
5.0262786e-10
8.6988158e-06
0.022702356
0.022702356
0.022702356
0.0016794093
0.00085136878
0.0048279631
0.0031291589
0.00021912325
6.4405385e-05
6.3891988e-05
6.3467977e-05
3.2177402e-05
8.6276706e-10
7.0396433e-10
7.0237948e-10
1.6182852e-07
8.6839942e-08
4.5116838e-10
6.1875606e-10
0.0078399214
7.8249316e-11
5.2470039e-15
4.1413701e-09
4.9272985e-15
1.9286902e-17
2.6943503e-06
0.00016766267
1.9983622e-09
1.9984822e-09
9.219347e-09
1.2221214e-08
1.1930929e-08
1.3720848e-08
1.5604593e-08
3.193427e-05
4.9712781e-09
5.1002745e-09
3.4539852e-09
3.3600591e-09
3.9689105e-09
1.3675823e-06
7.4078534e-09
6.6802515e-09
0.00019424958
0.006070316
0.0060701275
3.3467861e-09
3.367996e-09
0.00040970508
9.9688807e-09
0.00084856041
9.7935295e-05
6.4004184e-07
7.6469024e-07
2.6310625e-09
9.7027898e-05
2.6989711e-08
0.0090984791
0.00013903857
1.6865914e-05
7.4715038e-10
1.2824695e-09
7.3111978e-05
1.4152087e-09
0.010887372
0.0014788345
0.045471662
0.0062994724
2.093766e-09
0.012245188
0.010309384
0.0028971954
3.1416619e-05
4.4370715e-10
0.0059401005
0.0074498262
0.0038723274
0.011602607
0.00045363059
0.009414736
0.0093477463
0.0092892993
0.0020922094
1.0579237e-09
8.4122477e-10
8.4148246e-10
0.00046455712
0.0010802608
0.0024192752
0.00043442242
7.1473699e-10
1.3383724e-09
5.8245806e-10
7.068117e-10
2.9881464e-05
1.36425e-05
1.499943e-10
2.9051277e-10
1.3743937e-10
4.4458986e-15
6.1319324e-05
0.00016656944
2.3171121e-09
2.8544461e-09
7.6943972e-09
8.1682759e-09
2.2843309e-06
2.5222497e-05
2.5049977e-05
3.1825063e-05
6.1337084e-09
4.9413086e-09
0.0001002268
6.6996778e-05
1.6927745e-07
4.6450122e-09
6.4639434e-09
7.1081842e-09
0.00039100292
0.0059689833
0.0060702831
2.2028412e-07
3.3683772e-09
4.2111296e-09
2.5078256e-05
1.9019092e-09
1.8710302e-09
1.4173206e-09
1.0864186e-09
0.011202993
0.010341106
2.8112885e-08
0.0065247268
0.00011151467
9.8864724e-05
7.460804e-10
0.012211978
0.0078187292
0.039594412
0.11435032
0.00923977
0.027880525
0.010232205
2.3636351e-09
0.01568322
0.015703702
0.015731192
0.00066564836
5.0301537e-10
0.008835484
4.4284141e-10
6.6642714e-10
9.0695186e-10
1.0714594e-09
0.0025928757
6.0908801e-10
5.9659704e-10
0.0015733594
0.00030321632
1.0705471e-09
1.0079896e-07
7.7301332e-10
0.0016239532
0.0030104703
0.00072200107
5.2783966e-10
4.8199507e-10
6.2802409e-05
7.008068e-06
4.7680469e-10
3.6038335e-10
4.3269189e-08
6.6435431e-07
2.6245391e-10
0.00012922128
5.9966866e-05
2.8870673e-09
2.8735284e-09
3.09745e-09
3.3834301e-09
9.5771646e-06
4.9758171e-05
4.9417873e-05
4.9083291e-05
7.1921078e-09
0.00016402375
5.8331218e-09
0.00031639335
5.4068316e-05
2.2627856e-05
5.8456782e-09
4.7285576e-09
9.3965798e-05
3.1612321e-09
3.7561844e-07
0.0060702832
0.0029935967
0.00016069866
0.00018398682
0.00021481163
3.0316306e-05
1.4796211e-09
1.6008366e-09
1.0864189e-09
0.015569356
7.3390127e-10
0.00062626154
1.5645931e-08
0.00028568987
1.1394738e-09
7.3586846e-10
0.00086703189
0.00087319614
0.099116751
0.11435032
0.010904951
0.014156297
0.0050831373
0.0080894685
5.5235022e-10
3.998803e-10
3.998803e-10
0.00038801437
2.0021789e-05
3.8974179e-10
3.8952126e-10
0.00044893371
9.0293596e-10
0.0020211262
8.3288427e-10
8.0042305e-10
8.6939796e-10
2.0865959e-06
0.00010317704
7.1166066e-05
4.8159785e-08
8.651566e-10
7.2402959e-10
7.2015089e-10
0.0030656568
0.0026148172
0.002891811
0.00098322286
7.3491566e-10
5.8808942e-10
5.6936983e-10
5.7223458e-10
1.3460476e-06
0.00055180449
3.1788204e-11
1.1161642e-09
5.0427882e-09
4.4829852e-09
5.9343264e-09
6.1345107e-05
3.5584801e-07
8.5858709e-06
5.4356275e-09
5.4360433e-09
6.1164472e-08
0.00053760094
9.1694681e-05
0.00021186656
8.628213e-07
2.2566322e-05
9.2531716e-06
6.3094145e-06
2.6968226e-07
4.8572054e-08
2.0532894e-09
0.00016177869
0.008368978
0.00064941231
3.1488851e-09
6.7789225e-06
0.0049581363
1.5302599e-09
8.451487e-07
1.5976479e-09
1.3373103e-09
6.1992734e-10
0.00112865
1.5202361e-08
0.0003299617
1.8855651e-05
7.3600909e-10
4.3714307e-10
0.042926727
4.1739915e-09
0.0040332769
3.6390317e-10
0.021526687
0.018522085
0.00068492095
7.7503471e-10
6.3403426e-10
6.5190164e-10
3.9927224e-10
1.8878641e-07
3.6196967e-08
5.7209991e-10
2.3075935e-05
0.028046858
0.021996984
5.5196542e-10
6.4010443e-07
7.5209115e-08
2.0384818e-08
0.00019975358
2.8688783e-05
1.2810991e-09
1.0192276e-09
1.2235849e-06
7.1700304e-10
0.00055590628
0.0034109704
0.0034109704
0.00032285932
8.8670049e-10
1.0392644e-09
6.2990832e-10
8.7220939e-10
7.7735098e-12
0.00206417
0.0025355463
9.2493608e-09
7.1247584e-09
1.9581276e-05
6.7044593e-05
4.4661778e-05
4.4535075e-05
1.0454131e-08
9.9492775e-09
1.5523309e-08
1.1893399e-08
0.00053759886
0.00014992676
7.9929047e-08
1.5758097e-05
3.7984026e-06
1.6040076e-05
1.2124768e-06
5.1006049e-08
4.9676719e-08
0.000101934
4.0847079e-06
0.008368978
0.00080628799
2.5113811e-09
2.6859329e-05
0.0049507351
0.00425257
2.0343316e-06
0.0001104306
1.3144159e-05
6.7414946e-10
0.00053446637
0.00072156192
6.8526926e-10
4.3273704e-10
5.1358031e-10
4.1642103e-10
0.00035814109
1.169427e-05
5.7932276e-10
4.0681993e-10
3.2559035e-10
0.029071548
0.0081157533
1.0842145e-09
2.0236414e-07
1.4580785e-07
1.697531e-08
1.1734851e-08
1.1596981e-08
3.9321653e-10
0.00071231443
0.0097976904
3.2469688e-10
2.7560456e-10
2.3215295e-06
2.9452568e-08
3.022104e-08
4.8798723e-05
2.3752025e-07
0.011604841
0.002294461
9.2685796e-10
7.1081808e-10
6.1285412e-10
0.0015049915
0.00017541299
1.3103569e-09
1.0862693e-09
6.1269561e-10
3.4694897e-10
7.0275395e-10
7.7738109e-12
0.0010023129
0.007162213
2.3577676e-08
4.0954788e-05
0.00027975803
0.00025345865
3.9837036e-09
2.5286221e-05
2.4129619e-05
1.0322426e-08
1.1220048e-08
1.2018022e-08
0.00020394442
3.5130566e-05
7.9021708e-08
8.4125287e-05
1.07404e-08
9.8017715e-09
9.807014e-09
1.2767125e-05
2.0724167e-05
6.0237176e-05
2.0139282e-09
0.0083687541
0.0083687691
0.0080687013
0.0052054936
6.0794093e-10
1.3494639e-09
1.3631029e-09
0.00021114886
5.7760874e-05
8.7413959e-10
0.00025299614
0.0028416804
9.1861094e-05
7.3872255e-10
8.6811097e-10
4.2523909e-10
3.6858811e-05
7.3080104e-06
8.9569266e-10
6.3385956e-09
3.2559507e-10
0.014734635
0.0087298652
3.8348677e-05
1.0524592e-06
3.9521184e-07
1.2988803e-09
4.7567854e-08
5.5522505e-09
4.1417775e-10
0.018574745
0.0099321209
1.1028092e-05
4.0918952e-10
2.5576522e-10
2.2752831e-05
8.2376123e-05
1.8855117e-09
0.0023563473
0.012650029
0.012791262
0.00064840143
6.6331773e-10
5.0579775e-10
6.5433309e-10
5.1752548e-10
2.6589064e-07
8.615663e-09
3.7083191e-10
3.3907602e-10
5.1505881e-10
7.7740883e-12
0.00078504409
0.005610976
2.700729e-09
9.2442513e-05
0.00027955946
0.00027819326
2.2758685e-09
3.5573974e-09
1.2426552e-05
5.2071939e-07
2.2375049e-06
3.5558336e-06
4.9506352e-09
0.00032234532
7.8149447e-08
1.250841e-05
1.1089635e-08
1.0035753e-08
0.0003383807
0.0003425972
0.00034077017
2.4031515e-09
2.0053167e-09
0.0082198752
0.00047416668
0.00082385984
0.0051913618
5.4829099e-08
1.7116301e-09
1.7231702e-09
3.3586117e-06
6.9191117e-10
6.7101413e-10
1.3693191e-05
0.0018946096
1.4717748e-05
0.0053692145
0.023297389
5.5069139e-05
0.00050985294
1.3084273e-07
3.4296014e-06
8.3949545e-08
6.1362803e-10
0.0030601309
0.001655783
0.00012256712
9.6137934e-10
7.5546399e-10
1.035462e-09
1.3741624e-09
1.6299112e-09
0.00010529668
0.0075155184
0.0022503299
2.9578187e-05
4.2827617e-10
2.7437081e-10
6.5993023e-05
1.8953454e-09
1.8870051e-09
0.0050202664
1.8700569e-10
0.010129955
0.0073554245
0.00038983651
5.7274608e-05
5.5730048e-10
4.0117218e-10
9.4394694e-07
5.2166842e-07
5.055604e-10
1.1730495e-09
4.5360942e-10
9.8995814e-09
3.3613293e-10
1.5302624e-10
5.249372e-09
5.2432806e-09
5.3726389e-09
2.2180301e-05
6.0139556e-08
1.8843917e-09
1.8837736e-09
1.593489e-05
5.8824809e-05
0.00015997768
3.3171179e-07
4.2790817e-05
0.00022440099
0.00022570154
0.00023536357
1.9693603e-05
4.635016e-05
0.00016380533
3.007808e-09
1.9695218e-08
2.0075882e-09
2.1823373e-09
2.1503474e-09
2.1553432e-09
0.0012266062
0.0015608932
4.9374356e-05
0.00015757835
5.7499115e-05
1.2469059e-09
1.0941917e-08
5.8009749e-10
9.8368346e-10
1.3697964e-09
0.030074824
0.030425498
0.0018916767
2.0675317e-07
0.0015421786
0.00011731464
5.1589073e-10
0.00022028068
0.003733724
0.0015263302
1.4527761e-09
1.2168073e-09
1.1035666e-09
0.02253945
0.030471819
0.021296215
0.0069411394
4.1912781e-10
3.6982902e-10
6.9607051e-06
4.7608468e-06
6.8532156e-07
5.5743356e-11
1.1105969e-06
0.00028635181
1.8481684e-10
1.521701e-10
0.00042055118
0.010243186
0.0069494229
0.0001044109
5.1424908e-10
4.0138674e-10
3.2570574e-07
1.8751433e-07
6.6595322e-10
4.4753925e-09
1.1074319e-09
8.5438775e-09
5.2374061e-10
8.3618182e-11
9.2074532e-09
2.3744901e-06
1.31937e-05
5.7358358e-05
7.50382e-09
8.6059093e-05
9.3387858e-10
9.3400728e-10
9.6455156e-10
0.00015941525
1.9852671e-06
6.878501e-08
3.7511429e-05
0.00028432008
0.00028297212
7.7499948e-05
2.2822168e-08
1.6270407e-05
2.9424325e-09
2.4482148e-09
2.0053088e-09
2.4099575e-09
2.312092e-09
1.7608956e-09
7.6838068e-10
0.0038521686
0.0027359675
0.0016310693