/*--------------------------------*- C++ -*----------------------------------*\
| =========                 |                                                 |
| \\      /  F ield         | OpenFOAM: The Open Source CFD Toolbox           |
|  \\    /   O peration     | Version:  2.3.0                                 |
|   \\  /    A nd           | Web:      www.OpenFOAM.org                      |
|    \\/     M anipulation  |                                                 |
\*---------------------------------------------------------------------------*/
FoamFile
{
    version     2.0;
    format      ascii;
    class       volScalarField;
    location    "1.3e-05";
    object      k;
}
// * * * * * * * * * * * * * * * * * * * * * * * * * * * * * * * * * * * * * //

dimensions      [0 2 -2 0 0 0 0];

internalField   nonuniform List<scalar> 
7500
(
9.9988394e-06
1.000741e-05
1.0031793e-05
1.0031469e-05
1.0036582e-05
1.0044957e-05
1.0057171e-05
1.0072131e-05
1.0093943e-05
1.0117775e-05
1.015926e-05
1.021917e-05
1.0297067e-05
1.0334647e-05
1.0403371e-05
1.0475142e-05
1.054789e-05
1.0610427e-05
1.0615426e-05
1.0609605e-05
1.061256e-05
1.0615042e-05
1.0613978e-05
1.0612914e-05
1.061907e-05
1.0632945e-05
1.0659951e-05
1.0679824e-05
1.0716126e-05
1.0752249e-05
1.0806202e-05
1.0847655e-05
1.0923717e-05
1.1077324e-05
1.1252789e-05
1.1379239e-05
1.1534126e-05
1.1580564e-05
1.1654678e-05
1.1764994e-05
1.1785432e-05
1.1805541e-05
1.1853648e-05
1.1888339e-05
1.191064e-05
1.1926278e-05
1.1997825e-05
1.2005724e-05
1.2034664e-05
1.205321e-05
1.2098904e-05
1.2177025e-05
1.2294706e-05
1.2343752e-05
1.2381739e-05
1.2447453e-05
1.24993e-05
1.2557481e-05
1.261219e-05
1.2649605e-05
1.2708888e-05
1.2777476e-05
1.2923566e-05
1.3034811e-05
1.3162332e-05
1.3242852e-05
1.3395152e-05
1.3471926e-05
1.35733e-05
1.3674885e-05
1.3875737e-05
1.4106511e-05
1.4441251e-05
1.45727e-05
1.4847361e-05
9.9992018e-06
1.0004699e-05
1.0018093e-05
1.0025484e-05
1.0046011e-05
1.0065303e-05
1.0102955e-05
1.0138811e-05
1.0204009e-05
1.0256529e-05
1.0349984e-05
1.0437329e-05
1.0576539e-05
1.0672512e-05
1.0821043e-05
1.0899719e-05
1.0973128e-05
1.1002593e-05
1.101624e-05
1.1010655e-05
1.1000289e-05
1.0988796e-05
1.0977183e-05
1.0980329e-05
1.0983808e-05
1.1003307e-05
1.1020986e-05
1.1068731e-05
1.1104535e-05
1.1167302e-05
1.1207629e-05
1.1296917e-05
1.1382573e-05
1.1560851e-05
1.1703011e-05
1.1860569e-05
1.1999827e-05
1.2087913e-05
1.2197034e-05
1.2289992e-05
1.2350529e-05
1.2417089e-05
1.2455226e-05
1.2511793e-05
1.2557771e-05
1.2596931e-05
1.2672146e-05
1.2727227e-05
1.2813598e-05
1.2928706e-05
1.3214192e-05
1.3383713e-05
1.3700841e-05
1.3914283e-05
1.420711e-05
1.4504517e-05
1.4777374e-05
1.4977876e-05
1.5313345e-05
1.5746057e-05
1.6129514e-05
1.6935117e-05
1.7609964e-05
1.859865e-05
1.9580757e-05
2.0089193e-05
2.0998094e-05
2.158156e-05
2.2196753e-05
2.3557461e-05
2.4583378e-05
2.6361673e-05
2.9421128e-05
3.066836e-05
3.2854106e-05
1.0000289e-05
1.0014346e-05
1.004894e-05
1.0061799e-05
1.0102644e-05
1.0130082e-05
1.0188516e-05
1.0242421e-05
1.0331005e-05
1.0395855e-05
1.0502644e-05
1.0605567e-05
1.0742772e-05
1.0857367e-05
1.0983327e-05
1.1116558e-05
1.1219634e-05
1.1294054e-05
1.1332138e-05
1.1334105e-05
1.1340137e-05
1.1349135e-05
1.1362554e-05
1.1398749e-05
1.1424585e-05
1.1494144e-05
1.1535655e-05
1.1625706e-05
1.1694547e-05
1.1826867e-05
1.1939588e-05
1.2196211e-05
1.2405898e-05
1.2875482e-05
1.3142164e-05
1.3686849e-05
1.4015971e-05
1.4353671e-05
1.4887511e-05
1.5190286e-05
1.5647288e-05
1.6215587e-05
1.6606883e-05
1.7264784e-05
1.8022992e-05
1.8674542e-05
1.9875556e-05
2.0806642e-05
2.2302144e-05
2.3667382e-05
2.6676794e-05
2.8720334e-05
3.2466311e-05
3.5009007e-05
3.8821147e-05
4.2934338e-05
4.6169848e-05
4.8643738e-05
5.252612e-05
5.8079694e-05
6.2989818e-05
7.3493883e-05
8.1143948e-05
9.446878e-05
0.00010523681
0.00011097531
0.00012076947
0.0001261368
0.00013328542
0.00014893068
0.00016023752
0.00017946618
0.00021403297
0.00022734788
0.00024785113
1.0001634e-05
1.0041551e-05
1.0138786e-05
1.0176454e-05
1.0285413e-05
1.030698e-05
1.037018e-05
1.0419135e-05
1.0533708e-05
1.0615125e-05
1.0788308e-05
1.0983498e-05
1.122246e-05
1.1480497e-05
1.1696743e-05
1.207046e-05
1.2199259e-05
1.2444608e-05
1.246034e-05
1.2544783e-05
1.2610776e-05
1.273904e-05
1.2847924e-05
1.3036161e-05
1.3141054e-05
1.3334997e-05
1.3463898e-05
1.3699134e-05
1.395909e-05
1.4484183e-05
1.5042135e-05
1.6195249e-05
1.7157155e-05
1.9297362e-05
2.0645169e-05
2.364058e-05
2.5674609e-05
2.8456926e-05
3.3225469e-05
3.6262867e-05
4.0864225e-05
4.7924338e-05
5.326577e-05
6.262164e-05
7.2405939e-05
8.1661579e-05
9.893595e-05
0.00011159411
0.00013211273
0.00014937935
0.00018508971
0.00021117146
0.00025904957
0.00028710148
0.00033039582
0.00037840375
0.00041208471
0.00043921371
0.00048171013
0.00054010995
0.0005929508
0.00070890569
0.00078785772
0.00092529797
0.0010278371
0.0010864564
0.0011810932
0.0012307293
0.0012977902
0.0014394652
0.0015465392
0.0017370811
0.0020478716
0.0021684435
0.0023318254
1.000824e-05
1.0126094e-05
1.044265e-05
1.0587208e-05
1.0899583e-05
1.0895078e-05
1.0908588e-05
1.0928068e-05
1.1003047e-05
1.1107329e-05
1.1419241e-05
1.1780998e-05
1.2546357e-05
1.3434029e-05
1.4028784e-05
1.5102294e-05
1.5506955e-05
1.6388727e-05
1.6651186e-05
1.7236715e-05
1.7547904e-05
1.80831e-05
1.8659973e-05
1.9563922e-05
2.0340092e-05
2.1707064e-05
2.302323e-05
2.5576037e-05
2.8162104e-05
3.3243389e-05
3.8405102e-05
4.7821781e-05
5.6461681e-05
7.5035327e-05
8.818757e-05
0.00011793487
0.00013937762
0.00017241411
0.00022541064
0.0002599573
0.00031460458
0.00039310858
0.00045436832
0.00056665052
0.00066554613
0.00077027698
0.00096395475
0.0010896234
0.0012971025
0.0014722799
0.0017886785
0.0020874168
0.0025427685
0.0027794908
0.0031579144
0.0035793355
0.0038587835
0.0040842361
0.0044536496
0.004908933
0.0053516028
0.0063361066
0.0069607338
0.0079946982
0.0087917208
0.0092463511
0.0099402502
0.010278579
0.010754792
0.011720594
0.012502609
0.013955877
0.016041886
0.016851079
0.017826456
1.0025287e-05
1.0226147e-05
1.0726728e-05
1.1051086e-05
1.1516426e-05
1.197825e-05
1.2078729e-05
1.2527528e-05
1.2666057e-05
1.2982871e-05
1.3551518e-05
1.4626337e-05
1.5838051e-05
1.8266177e-05
1.9579487e-05
2.2417835e-05
2.3904989e-05
2.7320439e-05
2.9060004e-05
3.2669047e-05
3.518462e-05
3.9424697e-05
4.3790415e-05
5.1164839e-05
5.9953654e-05
7.6233828e-05
9.3122787e-05
0.00012785729
0.00015833612
0.0002181948
0.00027477284
0.00036903228
0.0004576243
0.00064349011
0.00077726573
0.0010692953
0.0012776215
0.0016168613
0.0021121194
0.0024273996
0.0029486974
0.0036173292
0.0041616501
0.0051951466
0.0059606136
0.0068818285
0.0084483145
0.0094031778
0.010985075
0.012516941
0.014366498
0.016852055
0.020127608
0.021682065
0.024182244
0.026925938
0.028724815
0.030123301
0.03254342
0.0352146
0.037933019
0.043964133
0.04765773
0.053450399
0.058065721
0.060949909
0.064369865
0.066069156
0.068528375
0.073323799
0.077428062
0.085240499
0.09565847
0.099751096
0.10386271
1.0026796e-05
1.0155288e-05
1.0490434e-05
1.1092431e-05
1.1592887e-05
1.2993568e-05
1.34874e-05
1.5078648e-05
1.5692887e-05
1.7459351e-05
2.0276892e-05
2.5164437e-05
3.1863144e-05
4.2570488e-05
4.953253e-05
6.5314164e-05
7.2647778e-05
9.1882055e-05
0.00010017327
0.00012133073
0.00014067583
0.00017840933
0.00021875484
0.00029560005
0.00038359113
0.00055362476
0.00072724117
0.0010904682
0.0013883162
0.0019294218
0.002558847
0.0032591144
0.0040447255
0.005655067
0.0067174695
0.0089644563
0.010582149
0.013196247
0.016833231
0.01904291
0.022807872
0.02724248
0.030883531
0.037815366
0.042522673
0.048187055
0.057708051
0.063428705
0.071758162
0.08279978
0.090713528
0.10370307
0.12176601
0.12982808
0.14257631
0.15554905
0.16501986
0.17151155
0.18308292
0.19484753
0.20717417
0.23351414
0.24959746
0.27517957
0.29376979
0.30791972
0.31934901
0.32549597
0.33449664
0.35164222
0.36733194
0.39841062
0.43636706
0.45355133
0.46512454
1.0177722e-05
1.0600705e-05
1.1755729e-05
1.3493754e-05
1.5964404e-05
1.8982259e-05
2.0757421e-05
2.2491675e-05
2.3902443e-05
2.6596475e-05
3.2175532e-05
4.2912145e-05
6.6019622e-05
0.00010472093
0.00014629753
0.0002379093
0.00028140003
0.00039615197
0.00045422722
0.00061233052
0.00076798824
0.0011093846
0.0014555011
0.002169811
0.0028789127
0.0042952921
0.0056565766
0.0084249329
0.010835819
0.01416346
0.019969841
0.023906327
0.029820679
0.039818608
0.04612145
0.059755387
0.070213731
0.084083713
0.10541115
0.11740185
0.13748168
0.16126898
0.17897733
0.21253032
0.23624969
0.26209894
0.30619023
0.33327721
0.36429741
0.41651243
0.44894497
0.49710134
0.57282381
0.60613558
0.65715092
0.70528312
0.74424954
0.76708017
0.8083272
0.8468429
0.89246637
0.97754711
1.0413192
1.1261724
1.1881094
1.2375839
1.2671695
1.283126
1.3061306
1.3479104
1.3958786
1.4914594
1.6195182
1.6816795
1.7029707
1.0611262e-05
1.2477627e-05
1.7383238e-05
2.1508224e-05
3.0840371e-05
3.3442553e-05
4.0001891e-05
4.1495393e-05
4.5110956e-05
4.6890992e-05
5.3539199e-05
6.6265453e-05
9.6611045e-05
0.00015810069
0.00025091922
0.00047159816
0.00067223593
0.001204583
0.0017083535
0.0029526538
0.0041743936
0.0068943873
0.0094048998
0.014796772
0.019514222
0.029221341
0.037551113
0.053873836
0.069847613
0.086166127
0.12022264
0.14152579
0.17329996
0.22151956
0.25199552
0.31727956
0.36835408
0.42371909
0.52221894
0.57404845
0.65422301
0.75476885
0.8227758
0.94715893
1.0443408
1.1400222
1.3005708
1.410439
1.5002227
1.6832304
1.8030474
1.955572
2.2149333
2.3359144
2.5031223
2.6616861
2.7971962
2.867193
2.9875963
3.1015906
3.2640965
3.4937324
3.744066
3.99549
4.1868431
4.31711
4.3935496
4.4308928
4.4781156
4.5563275
4.6960943
5.0004929
5.4928885
5.7740909
5.8245402
1.1054765e-05
1.4955124e-05
1.9373382e-05
2.3557727e-05
3.2375003e-05
3.5822575e-05
4.5563762e-05
4.983758e-05
6.3137819e-05
7.8914969e-05
0.00011578513
0.00018775423
0.00032563017
0.00065482858
0.0011359716
0.0023388749
0.0037233362
0.0072827283
0.010952473
0.019617563
0.027668713
0.045574186
0.06048795
0.093076783
0.11842104
0.17110238
0.21263358
0.29079875
0.37436632
0.44163418
0.59200544
0.68374285
0.81682644
1.0075511
1.1256976
1.3724516
1.5694331
1.7656318
2.122171
2.3059619
2.5861914
2.901266
3.1805807
3.5618921
3.9162283
4.2807251
4.7812642
5.1938209
5.4583418
6.0005657
6.4356753
6.9404198
7.7961087
8.216211
8.7358659
9.1891431
9.7730001
10.06919
10.505252
10.9022
11.554576
12.103808
13.048129
13.836092
14.372237
14.658562
14.913113
15.086998
15.293467
15.696858
16.555678
18.437249
20.750267
21.858086
21.752261
1.0928716e-05
1.6459922e-05
1.8909494e-05
2.7449871e-05
3.0662948e-05
3.8175889e-05
4.9670343e-05
7.2681106e-05
0.0001306648
0.00025384169
0.00052456602
0.0010925236
0.002143312
0.0048269076
0.0083954969
0.017113679
0.026555788
0.049748222
0.072110109
0.12276185
0.16563882
0.26025918
0.331665
0.48723465
0.59674564
0.81790889
0.98993573
1.2885423
1.6329706
1.8717488
2.403637
2.7360984
3.1682695
3.8720736
4.2731152
5.0644547
5.7388652
6.4570925
7.561942
8.1588955
9.1773808
9.9649982
11.470562
12.506376
14.064015
15.736862
16.985902
18.788276
19.645385
21.369704
22.882668
25.180687
28.316377
29.748529
31.676634
33.480486
37.016723
39.569598
41.758319
42.866739
44.793201
45.772845
49.257072
51.466539
53.450796
54.995903
56.504541
59.471363
63.645483
69.812286
82.101962
96.420861
98.5554
96.507801
90.906164
1.0257728e-05
1.4434209e-05
1.8022256e-05
2.9364691e-05
4.1131016e-05
7.0217186e-05
0.00013762024
0.0002997679
0.00069804011
0.0015781301
0.0035099823
0.0076433962
0.014935928
0.033886259
0.056094082
0.10873929
0.16048514
0.28298438
0.39117093
0.62647936
0.80864928
1.2041097
1.4799102
2.072581
2.4690117
3.1881712
3.9255177
4.7987381
6.0024898
6.8399639
8.3717214
9.6488211
10.886435
13.463869
14.91676
17.738625
19.883225
22.81617
26.126556
28.498226
31.995238
35.944693
44.515494
48.349176
55.61871
62.151297
65.95981
76.002866
77.611678
85.443693
91.857569
109.94315
119.36088
125.5269
141.54606
149.98994
179.1926
197.54659
199.44146
188.09632
190.56147
187.64704
218.14071
219.87417
229.97446
244.41772
249.20127
311.76013
350.89213
342.27143
353.24694
345.54291
303.83605
237.45536
228.48686
1.3770175e-05
2.7000016e-05
3.3741616e-05
4.9414997e-05
9.8209651e-05
0.00025190488
0.00070414275
0.0018460711
0.0046504322
0.010652217
0.023581115
0.0508649
0.093204024
0.20209762
0.31237953
0.56565244
0.79301764
1.313356
1.7345687
2.6159356
3.2562463
4.6208339
5.5373362
7.4894897
8.8860906
10.884362
14.140127
16.201656
20.341209
23.596274
27.067019
33.626755
37.849738
48.489224
53.904827
66.429
73.583325
86.483193
96.439117
111.53028
127.3136
162.99601
216.8507
214.03577
260.85482
276.30214
286.17782
368.01683
338.63811
403.75053
420.39524
459.56242
400.46616
526.4158
482.59581
587.80762
629.45193
612.50337
570.94891
419.00745
453.9315
427.92415
409.05308
424.71261
421.47061
439.0679
537.89499
691.45647
547.69121
385.4113
311.87781
187.67337
113.02676
78.833695
78.37049
1.5404831e-05
3.9779017e-05
6.3196881e-05
0.00014990171
0.00046059668
0.001491649
0.0043950844
0.011595227
0.028644775
0.063810877
0.13901101
0.28004606
0.49061269
0.98629426
1.4285507
2.4138532
3.2467325
5.0690072
6.4588433
9.2611158
11.307241
15.676937
18.620039
25.347326
29.9248
38.234779
47.565005
54.679273
72.313282
81.441422
96.351603
132.75185
144.02451
215.09692
218.58919
296.48563
306.46255
375.6761
413.85716
540.3278
608.00525
753.28395
702.01423
745.76824
943.19201
863.03832
835.35123
883.28318
807.29394
706.39582
689.26812
470.34152
438.72101
629.21802
461.41858
692.32519
384.74521
264.29599
166.52654
126.63798
150.76655
125.32133
87.315041
100.08809
86.51418
113.73472
216.56131
129.13041
72.1056
49.475586
33.059993
28.212786
25.016603
22.230412
19.902327
1.1066829e-05
2.8225477e-05
0.00013043372
0.00067182455
0.0027494199
0.0093043267
0.026603626
0.06683429
0.16030995
0.33608374
0.71854263
1.2592849
2.2366633
3.9295058
5.48661
8.7125356
11.470526
17.099112
21.428299
29.934984
36.901584
52.307973
62.09215
90.813722
107.00019
141.37076
168.66467
201.96816
301.34243
324.55945
415.80277
617.16458
597.75248
789.99793
733.38115
1021.6167
915.8979
1041.7748
1044.3015
1447.0037
1402.3186
823.52691
616.98213
936.605
596.29842
576.02867
556.65621
226.47514
230.04377
140.87102
89.30573
52.403457
71.757949
71.828305
62.725608
75.505383
46.755199
32.991207
25.104652
22.619792
21.434182
21.600033
24.499285
22.420958
24.965536
51.145717
59.274398
36.578555
30.803081
26.819009
24.23841
22.047459
22.085589
22.159907
21.577005
9.5779484e-06
7.3746513e-05
0.00073633215
0.0041067971
0.016489722
0.052646982
0.14211244
0.33467873
0.79654856
1.5124663
2.9963625
4.9993088
8.9261924
12.876632
19.104694
27.816719
37.875796
54.528849
69.395204
98.670015
127.72769
191.0111
223.60393
389.61017
427.64485
596.26114
678.89361
894.43578
1107.1428
1153.2524
1494.4264
1252.122
1152.6566
846.87571
897.14083
642.15108
507.37024
793.57826
502.9688
369.77722
290.30706
100.23923
96.793545
124.37353
59.483581
57.915023
62.747894
37.487214
27.649519
19.261486
20.801336
19.520636
23.830519
37.544
36.763859
38.853713
27.525509
21.581386
22.601012
19.509008
15.828701
16.737502
16.506392
15.07104
14.956713
25.029991
29.546846
25.450632
26.269768
24.617217
22.358785
22.709982
21.869899
25.368158
43.841483
8.1867199e-06
0.00048038361
0.0046784648
0.023968914
0.088633715
0.26205648
0.66351227
1.4540863
3.2963532
5.8119499
10.677728
18.188945
29.137657
40.516017
64.018152
85.95633
132.10558
179.45162
245.13058
378.92131
532.90106
769.65829
912.22663
1297.1379
1235.4016
1500.17
1410.4517
1592.2101
1250.5492
1480.7255
855.33748
340.40027
277.04573
93.783922
142.91365
92.998462
72.529051
154.41288
92.084975
124.24815
55.62927
35.372531
40.121624
53.808842
28.99341
26.965472
21.015267
20.596148
15.645035
15.300681
18.166449
17.949323
18.374813
17.535749
21.094355
20.518108
27.291971
22.723213
23.010585
24.253793
22.854686
27.868521
30.93633
24.710498
24.936161
25.446275
25.187892
25.20176
26.228005
24.350363
24.675318
24.015108
21.675449
27.476334
33.131953
3.9886501e-05
0.0031340369
0.027010406
0.12475356
0.41797172
1.1412946
2.7199807
5.497752
11.639754
19.780983
35.806671
60.662498
88.505283
130.71066
215.08231
299.5219
515.1625
683.45508
1042.2286
1357.4786
1624.6422
1601.5851
1727.2822
1268.103
965.58521
598.621
528.58297
347.5941
299.84785
573.35662
54.376341
32.094174
26.692036
21.518873
34.176498
36.113346
38.513597
43.145059
45.513035
46.044839
24.984936
20.897196
26.96743
30.970872
21.884265
15.996078
28.893597
20.411007
17.004577
20.423276
18.112881
15.673514
15.090209
17.409537
22.446143
20.19924
22.20454
22.065257
19.349636
26.178992
27.244424
36.827344
37.446098
30.449419
33.612376
30.088811
24.590753
26.033659
29.369198
26.915383
23.40621
26.397862
26.341782
23.503008
23.107221
1.6498059e-05
0.017970267
0.13712989
0.56988611
1.7239488
4.3864044
9.6235264
18.519731
37.20715
63.768311
120.4996
190.07472
288.52666
481.06986
832.83901
1200.6139
1515.5811
1669.6979
1939.0476
1583.0357
1315.4714
581.6619
461.57093
152.31385
116.60595
74.29816
102.48043
45.722658
73.167622
78.94587
13.71725
13.962201
14.990368
19.657185
65.106109
56.843585
37.290534
53.428347
32.543031
20.12944
20.009819
21.220562
21.588358
22.997155
20.586348
15.44443
17.053089
17.048156
17.022876
17.468668
17.839026
18.69584
17.372658
32.43723
36.003589
23.502382
19.038093
17.37392
17.501984
22.463648
25.065992
31.874642
30.735376
23.491559
23.580392
25.704448
24.576926
24.978728
29.659909
27.598475
24.667176
30.287385
36.294128
36.692424
36.107702
0.00080746716
0.09596595
0.61953626
2.2849306
6.2378072
15.096399
29.842086
58.544193
116.94503
210.51905
413.91662
666.27247
1118.9377
1602.3585
1982.7832
1823.2365
1415.5645
1081.4029
749.77788
266.72757
179.14143
80.974616
56.767991
33.14101
23.061887
20.323356
29.534325
16.953951
47.910727
140.27344
10.590215
11.047265
16.629523
16.934132
26.738577
23.385167
31.131397
39.908246
45.245468
23.564154
25.461611
35.360545
22.670101
20.082354
19.953091
18.067495
27.634261
19.437357
15.860066
19.420893
24.427193
19.80083
19.758729
34.049282
32.246456
21.462541
25.05796
20.363479
22.595383
22.014996
21.592684
21.546796
22.633019
23.500247
21.859011
24.203797
24.213254
25.533305
28.069569
30.226457
31.75993
44.331662
53.261971
46.985969
30.609717
0.0087184727
0.45651635
2.489378
8.0819199
20.098837
45.701617
89.54238
187.65244
391.23972
778.03605
1533.0994
1729.1118
1948.5941
1820.4252
1095.8573
435.25289
251.1627
206.67035
81.673622
30.275246
25.302915
34.624309
21.834308
28.802214
20.593814
31.593574
21.373874
19.288641
49.052464
47.089311
11.554283
7.7545454
15.945167
21.187574
30.070001
20.37509
31.86071
30.01173
37.279556
29.572997
35.456237
43.795048
28.322749
30.50577
31.18681
20.378201
21.690488
15.972983
14.88469
16.417968
29.27593
27.153398
22.61076
19.367264
23.716074
21.237431
20.520158
20.701848
34.614371
32.149281
20.804821
17.298092
19.292488
24.682018
22.341178
21.79378
23.573059
26.986695
27.938031
33.784065
44.12038
51.53767
58.837446
57.808702
45.026999
0.065738554
1.9380616
8.8523881
25.490981
59.246058
133.78206
271.46079
660.7049
1538.0684
2019.6995
2018.5757
1365.8834
692.22652
414.61221
138.87823
51.246924
48.990928
52.913584
18.541454
10.479504
14.319248
18.72124
14.360727
30.766479
32.144225
26.972528
18.132195
17.793776
34.946851
13.697762
10.601863
7.6769043
11.310379
44.706015
35.91208
17.764633
32.470807
27.482579
29.386332
39.202208
42.922978
44.708508
34.135789
42.348978
38.069255
20.272897
14.593825
15.138624
14.426919
16.82716
30.27969
26.513128
21.004724
18.444513
28.929326
24.968362
21.89559
22.604251
36.594187
35.67673
28.123676
20.954372
24.58403
25.23744
22.812625
19.804486
20.970629
26.817873
29.1573
35.880211
39.473329
49.044614
58.539695
57.275316
42.983291
0.40188266
7.351833
28.096221
73.586956
167.23385
410.92012
917.49962
1846.3888
2483.1164
1797.1893
503.44073
220.15073
123.48552
61.448986
16.954036
8.0594779
13.038505
18.278117
13.049492
6.7091688
10.568409
15.119421
18.393119
29.468054
22.897549
19.324857
12.831604
18.958315
39.310893
16.06342
9.0634621
7.7580161
11.91274
112.54779
46.923533
16.386767
28.161128
26.514373
29.567205
37.630209
46.993308
35.316866
37.715871
42.123836
30.319346
22.707907
17.732262
15.506356
17.046227
24.516752
27.451368
27.147179
22.514119
19.451542
22.643937
22.12408
21.242986
22.707372
29.55003
33.780662
36.619859
28.626986
27.091958
30.079465
27.774505
21.970779
22.149553
29.159643
31.495371
45.993015
48.753774
59.576775
58.703859
55.609853
45.087792
2.1100864
24.997463
81.152509
202.11584
482.91072
1451.2319
1871.3355
1907.3117
1064.7986
344.90887
61.78756
32.431357
22.810372
7.933258
4.2718636
3.6159553
7.0998523
8.6405216
9.3836871
9.7769121
6.5656737
5.314058
13.630824
15.572858
17.805948
13.622423
11.025024
31.18248
111.27077
12.356758
6.7483724
7.1932149
11.932805
58.938609
30.947184
16.361035
23.381325
27.435497
30.628386
23.072904
27.318541
30.357914
50.960211
34.350561
16.995889
24.59801
20.567232
14.793374
17.327631
29.383152
27.152153
30.603191
31.622723
23.219528
23.223194
20.245884
20.371997
25.402371
30.146124
36.51667
35.750987
25.757878
30.222932
30.620137
26.5245
24.635036
22.358423
28.510637
33.514821
57.470302
67.455725
62.830436
61.98881
52.334418
41.093715
9.7648136
77.142272
218.65497
562.20175
1558.1388
2179.4854
1413.5044
624.70996
225.05809
36.106054
5.86307
7.2911379
6.1870791
3.2672412
3.0072133
2.7503738
5.0827657
6.1904637
10.139496
7.1405091
4.2682059
4.72769
9.975152
11.133466
16.803486
12.403732
8.7538378
20.664606
61.640075
14.863507
6.4282306
6.2848751
12.663969
20.475628
15.441653
18.260852
22.204942
41.700125
27.271646
25.377335
21.49514
23.290703
70.477381
31.11562
16.209684
15.313463
13.114647
13.57094
24.04942
28.068972
26.564924
26.181272
25.007984
25.020282
28.055439
24.739405
26.89903
27.078032
27.496161
30.095404
45.159931
33.30057
34.802105
32.171975
25.613642
25.25256
23.67784
32.260737
38.512436
48.249904
68.16105
60.848205
58.356222
51.786526
43.794347
40.690523
218.33968
574.80739
1671.5319
2206.966
1115.572
572.86535
244.1485
33.582775
3.4524078
2.0788211
4.2748903
3.8137925
3.157761
2.8656263
2.5717577
4.1696441
5.3054287
8.7237709
6.0530907
3.7690418
4.2827504
8.7528472
10.944591
10.802336
10.88076
8.8189324
16.744998
14.328854
7.0698359
5.3971419
5.7130497
20.133779
20.078468
9.6995319
9.967322
26.932583
45.771333
32.545494
35.485084
20.692041
25.599316
72.210186
25.314708
19.031726
13.808215
12.240202
13.360384
18.261821
21.784351
26.135996
25.700982
21.858686
26.672074
47.00667
39.072855
40.694247
36.556145
34.8128
31.144054
34.121068
34.220869
29.339841
29.453036
27.308359
39.604765
31.547749
41.801111
41.512789
78.567275
61.797874
61.363251
66.238102
62.459097
54.877589
156.2133
574.69481
1587.6552
2165.8466
1099.3744
425.63691
253.97386
70.460349
23.930634
1.3112791
1.7728474
3.3062962
2.7452319
2.3888694
2.8852415
3.2724533
3.5893716
5.2537385
9.2456275
7.3460143
4.9407952
4.5694764
8.9667332
9.8474229
10.400402
8.6124881
8.3678163
12.88017
11.310228
6.2011883
4.9716338
5.4532998
18.155615
13.18261
8.3981747
9.0677582
25.897054
45.292431
41.970495
43.769018
22.590726
30.432707
49.770064
30.141728
20.149291
13.29156
12.890969
13.882939
16.706114
26.738027
26.275694
28.347734
34.036765
56.742423
70.50232
108.17532
81.382087
62.597557
38.688608
32.899291
30.965857
32.293971
31.08524
27.126449
28.17531
25.63202
30.198508
32.789386
39.124832
54.423635
54.923843
69.127315
93.139904
82.818058
61.592805
491.19871
1519.4576
2543.9115
1308.4653
422.13619
143.16446
87.436593
12.870906
4.2116706
1.2389181
1.6269649
2.8258972
2.2646531
2.167646
3.5501999
7.6749836
3.5016166
6.9336969
4.9316224
8.026815
4.6069651
4.6795745
8.481708
10.065597
10.582416
6.5815667
7.3459015
19.554533
12.259646
6.2917344
4.9499449
5.4560013
12.458949
10.146956
8.0364835
10.62195
30.819829
67.156727
70.576797
42.811072
22.692688
21.139485
34.619879
32.617959
17.828789
12.543072
13.21731
15.342256
25.097453
36.150219
25.623847
30.68143
107.30805
106.53214
86.882216
151.74512
84.845978
47.318703
33.005597
33.515726
30.661233
32.56758
32.304521
26.338697
25.129707
27.628482
30.76213
33.536102
41.415856
60.461534
53.434693
70.846828
98.071357
76.070666
46.045471
1455.0943
2992.2112
2081.2726
557.35355
119.45828
38.095804
24.969635
4.0230415
2.3969754
1.315227
1.6380207
2.4828275
2.0177162
1.910079
4.3678169
13.853593
3.7316087
10.793605
4.5423495
6.1677807
3.6343935
4.9873159
7.9183914
12.712857
12.006447
6.8758472
7.2488425
27.44809
13.867476
6.4155706
5.1346677
5.612239
11.252057
8.6127504
7.968768
13.818829
29.457034
36.279243
119.09872
66.15519
18.304658
16.165446
46.787249
36.121167
16.041406
12.696467
11.782962
15.543437
34.262015
30.500948
19.384208
29.745849
64.015895
99.361639
64.112194
45.968311
38.073895
38.198529
34.956382
36.854637
31.487414
33.392195
29.881344
22.980793
23.191971
24.473322
29.573936
44.90174
45.191767
45.435893
35.497878
47.037815
46.137604
28.420107
33.869163
4142.9754
3177.9696
814.91099
113.19163
22.486714
11.121773
8.7844543
4.2132739
3.9111218
1.4698146
1.6580894
2.2985767
1.8047185
1.7313747
4.6085149
14.787002
4.2307833
8.2393712
4.317688
4.7373835
3.8973055
5.8255644
8.7335095
10.985287
13.112649
24.21547
7.9954052
17.614587
11.121545
6.4904642
5.4742451
5.9152649
11.666462
7.6096411
7.8212962
8.0897697
13.610979
24.703871
19.545816
33.287589
14.16939
13.596109
72.135957
33.324665
15.776234
13.254968
12.897915
15.482529
35.92936
29.091159
15.586332
23.126502
56.162533
57.304357
47.050658
32.608851
33.599973
41.267196
39.807095
32.937026
27.074269
27.516657
24.277658
23.087908
23.889063
33.707164
29.746667
45.242079
41.577148
39.723495
32.684656
39.175
33.608069
24.036633
33.656668
7726.8836
1557.7474
173.7929
14.361681
5.3292754
4.9419194
4.4330697
4.1299879
4.601361
1.5992206
1.4387039
2.1845278
1.6804413
1.735563
3.1995399
9.5888903
5.4722776
3.9123631
3.6782554
3.8406339
3.7069919
6.3319207
10.380867
9.9593248
14.583107
61.413959
9.3699058
12.62719
11.751133
7.6067648
5.627668
6.2017495
9.8889535
6.8587988
7.729001
6.6453654
18.300942
21.316132
10.084375
13.15997
13.603031
14.223857
65.100204
26.532316
14.089652
13.29593
12.014365
16.037897
49.402895
28.977641
14.452466
27.091227
47.279314
46.158438
42.840596
37.076738
52.203531
41.728139
43.950308
24.684496
20.469836
27.67553
25.367689
32.100188
29.179428
30.107948
29.290584
34.229531
40.865902
37.928841
32.391966
36.7007
30.327306
29.50534
28.66819
1465.126
247.8693
19.776106
2.0731591
2.5882845
3.0750984
3.0555072
3.2913784
4.0281641
1.9581279
1.4079025
2.0127734
1.6454791
1.5365222
2.4098023
3.4203335
5.3239086
5.2054259
3.5791467
3.8082757
3.4931305
6.9446806
10.046615
10.652055
14.994258
42.403174
13.610223
28.479075
15.581844
8.0590713
5.6514374
6.4406965
10.076551
6.550947
6.8521343
6.3394141
16.649066
19.589017
8.3181927
8.8810377
15.789237
14.709709
35.102989
19.456475
13.816315
12.203884
12.054651
14.278136
25.471281
21.680494
13.942216
43.634655
40.997912
51.686542
48.498378
45.610624
40.45534
43.231758
42.862449
20.470454
16.737435
19.685424
20.479989
28.630884
28.117603
33.626316
31.088597
31.124252
49.045977
44.529804
28.167079
36.385691
37.00775
35.437009
28.011457
97.921785
22.149063
1.9461463
0.88014575
1.9609588
2.3921925
2.4820306
2.4978424
3.0248769
2.4441099
1.4133939
1.9522395
1.6798376
1.8038782
2.2235179
2.1699046
4.781628
13.376814
3.6433358
4.7532582
3.5918199
7.621621
8.7959232
13.920058
14.763402
34.576674
19.785272
30.470098
13.597419
8.2615216
5.6142577
6.2857436
10.53467
6.4986016
6.5062725
6.9688157
10.041792
8.9106426
7.3575392
8.8524756
17.798317
15.433772
21.117336
16.560025
14.083535
14.038894
12.702245
14.258504
24.712419
17.694926
14.124038
48.339545
34.282709
47.255842
59.05231
48.051991
36.297106
37.027611
26.765025
16.431722
16.122051
18.31713
22.877364
18.961788
21.681562
32.094223
31.182111
33.382561
46.748252
46.761712
29.156516
32.431112
20.038788
16.694994
17.921579
3.6990078
1.5406419
0.53886734
0.754768
1.7032969
2.0875696
2.1928643
2.2343836
2.4275496
2.5574639
1.4545791
2.1216163
1.8473892
2.0711972
1.9836504
2.0530448
4.2994664
14.996782
3.2671687
7.2607281
3.6580505
8.2369566
6.9126238
13.127763
12.241701
34.728432
70.593623
14.290459
8.8893145
8.4344505
5.597565
6.0550273
10.616695
6.5414003
6.3775143
7.4796418
7.4531369
6.3500339
6.6272399
8.433636
20.614543
16.260467
18.773429
15.47587
16.642151
14.703764
14.166723
18.236098
37.21555
17.733242
14.474492
41.016045
35.20245
35.742971
53.557332
37.365007
30.567855
39.613436
27.049553
15.786463
17.268194
22.808062
19.449161
16.651121
17.501435
24.422865
25.19905
34.907742
35.984912
44.02308
23.891723
26.104134
17.326967
15.944996
26.055659
0.97701689
0.51865807
0.44882031
0.73404894
1.5790581
1.9401108
2.0339026
2.2076773
2.2857323
2.4602007
1.5247299
2.2459203
2.1535993
1.6634395
1.9256501
1.99921
3.9173486
7.2435093
3.203179
7.6532635
3.4747243
8.9411199
5.882952
9.4856996
10.736484
74.325121
40.584323
7.9562151
7.151256
6.4643181
5.6596931
6.4199957
11.114492
6.6303569
6.4497456
6.7812113
6.0604434
6.141098
7.8970627
7.3811783
21.33919
16.432865
14.280683
15.948987
20.137693
15.712167
20.296761
19.975183
34.600895
12.781874
14.411861
30.120437
43.847869
31.482132
64.893478
30.541011
24.750873
27.307584
25.08468
15.264367
19.582142
19.560118
17.363836
16.40943
16.5624
18.540023
39.359104
45.721563
30.323673
15.259398
7.2340481
22.981134
16.092239
22.675091
23.42441
0.93813703
0.48059494
0.44686319
0.71663483
1.4947765
1.8694183
1.9965653
2.3203961
2.3409002
2.4407874
1.6181649
1.9278802
2.331766
1.5886635
1.9633117
2.1805616
3.6223784
9.2956353
3.5179412
6.7436241
3.9457363
9.6585684
6.9514551
8.0989241
5.4762286
25.071293
46.583562
7.2137614
8.1561554
5.2076074
5.9778236
6.7684873
10.369623
6.9765951
6.7029878
6.6959864
6.3460158
7.4328075
9.2540573
8.1959416
23.530153
16.403327
15.677121
21.30268
16.074834
13.083925
26.462578
18.756132
14.719364
9.9771316
10.711992
36.8908
32.470369
24.977186
75.126256
27.505146
25.092432
25.864698
21.409347
14.977963
20.508992
20.027639
18.436134
17.168749
16.493689