/*--------------------------------*- C++ -*----------------------------------*\
| =========                 |                                                 |
| \\      /  F ield         | OpenFOAM: The Open Source CFD Toolbox           |
|  \\    /   O peration     | Version:  2.3.0                                 |
|   \\  /    A nd           | Web:      www.OpenFOAM.org                      |
|    \\/     M anipulation  |                                                 |
\*---------------------------------------------------------------------------*/
FoamFile
{
    version     2.0;
    format      ascii;
    class       volScalarField;
    location    "1.3e-05";
    object      p_rgh;
}
// * * * * * * * * * * * * * * * * * * * * * * * * * * * * * * * * * * * * * //

dimensions      [1 -1 -2 0 0 0 0];

internalField   nonuniform List<scalar> 
7500
(
15339.286
-25734.329
-10488.457
7645.2865
-7133.1727
23850.908
-12043.115
5539.1111
13550.279
13941.702
-4649.6811
11136.569
11947.502
11229.399
4972.0654
-3955.9929
24695.675
2282.321
17087.282
5436.4333
7100.7089
29922.089
-7175.9474
26784.644
14032.552
1224.8042
21741.936
6303.4882
10310.547
23573.582
304.74042
59644.446
2532.824
41387.47
38691.201
-15739.438
58729.987
-11036.53
27614.295
63416.861
23103.267
27439.082
56027.266
65286.455
23222.648
-3907.7362
73591.862
107801.56
79968.079
-27246.37
16915.307
91652.384
20327.123
22196.503
34767.654
25353.528
41527.272
44731.774
38311.065
14220.364
-30660.152
12061.059
-14684.685
-13510.535
56039.573
-4254.2303
49363.143
85935.373
12573.393
119946.86
80859.741
-35985.452
54118.261
57932.021
-13639.072
14507.58
-24959.353
-10042.978
7556.3589
-7254.2905
23333.74
-11534.745
5070.513
13789.315
13413.346
-3447.8765
10916.209
11344.914
10830.025
6060.0115
-3968.2361
23428.817
4351.2168
14910.605
6699.191
7347.7443
28418.64
-4910.7672
24360.411
15021.244
2172.6792
19769.847
8151.1299
8977.4953
24039.234
2511.9657
54461
6800.6749
40459.789
37555.449
-14015.057
55092.365
-5354.4858
25941.669
59610.498
27729.283
25850.511
55564.417
66471.151
20591.282
657.15309
73678.238
101832.63
80732.756
-22867.753
13931.327
91374.43
23357.952
19719.991
35158.367
26873.024
39797.318
44270.495
40176.655
15212.64
-32236.704
12238.96
-13427.277
-15160.737
53029.542
-673.23994
50478.417
84277.359
15663.053
115208.55
80773.869
-31050.573
54578.126
56157.732
-14731.76
13683.693
-24180.284
-10017.415
7883.3007
-7136.9457
22316.368
-10450.926
3768.2298
14857.963
12870.314
-2767.5876
10266.938
12513.289
9947.4646
4535.3481
-944.18352
19989.315
7212.8551
13029.757
6878.3978
9485.6312
24787.908
-1424.0123
22881.499
13625.418
4872.8414
17396.054
8488.5401
9857.6028
22321.737
7756.2681
47178.673
11635.172
39934.131
34410.056
-8734.4939
46091.886
2013.1875
27769.166
51430.632
32057.312
26679.138
54713.961
66500.063
17508.652
7017.0398
74568.113
94434.423
78078.745
-12529.284
12056.975
85486.578
28348.318
15567.624
36198.249
31870.281
36436.642
43000.679
42877.4
15266.031
-33106.42
9811.0461
-11237.626
-13286.535
44789.957
4132.6032
54906.988
76055.81
23824.722
110182.07
71391.517
-20693.117
58620.958
53104.999
-15636
11963.459
-22465.356
-9644.0615
7741.9663
-6683.9922
20966.682
-9167.1661
2119.3954
16252.829
11664.235
-1160.0349
9599.7385
12591.368
9963.3156
3353.3655
1183.9029
16238.068
11329.963
9650.0736
7557.0527
12706.524
19952.592
2970.6003
21027.456
12127.497
7399.7882
15112.184
8884.825
10495.131
20964.055
13138.994
38377.754
18633.591
38572.354
30477.758
-1388.39
33903.897
11660.316
30939.449
40331.773
38315.886
27532.51
52273.657
66426.245
13447.388
16655.132
76806.778
84451.385
73906.354
1724.6078
10094.567
76130.062
35575.816
10815.959
34978.917
38275.888
35744.409
38270.701
45968.322
16574.161
-35724.277
6510.4571
-7364.9569
-10408.377
35988.996
9134.7047
55699.165
68636.254
36327.296
104259.56
62216.465
-5934.5957
59731.171
45413.805
-15165.945
9535.0093
-20626.582
-8700.7872
7569.928
-6229.4071
19143.2
-7598.853
1104.6885
16363.079
10979.234
1158.9731
8043.0678
13586.62
8606.2692
3054.6454
4424.9224
10668.636
15736.671
7027.0866
6971.2044
16590.546
15536.616
6815.0987
19545.306
10441.481
9762.0011
13110.027
9136.476
10668.357
20528.424
16989.818
30348.467
26643.996
35639.26
27785.834
4674.6958
23494.277
20813.859
33262.568
29974.937
43254.307
31171.811
50491.845
62921.591
10274.229
26720.402
78358.048
75106.87
68635.267
18610.903
8031.7978
64848.092
42917.401
6237.0577
34587.609
41673.846
37370.412
33980.246
46077.818
19484.348
-37562.155
586.65085
-1702.232
-8499.8006
26726.341
18829.293
53064.403
60022.242
50661.827
96820.112
53109.251
12909.874
59794.204
34666.758
-14669.109
7015.5274
-18999.677
-7650.3894
8094.265
-6417.877
17587.732
-6583.9741
697.57393
16514.708
9465.5254
4445.0626
6134.6193
14474.26
7766.288
2097.5362
7444.1836
7063.2044
17371.304
5446.3194
7467.8636
17959.62
13434.84
9466.3985
17806.929
10356.3
10026.024
13041.961
8362.1328
10317.956
21844.367
17950.439
25903.167
33432.696
30247.785
28922.069
7331.9332
14784.462
31129.77
32023.996
23315.5
45719.459
35036.843
51505.388
56241.261
9702.8087
36896.249
76683.361
66929.282
63322.599
34586.298
9837.3067
54108.029
46481.695
3970.6355
37254.207
42270.592
37495.806
33713.362
43340.808
19733.838
-36571.234
-6542.5344
4979.5341
-6035.7256
15175.512
29417.18
50597.213
52195.941
64723.457
88941.472
43885.279
30555.394
61751.012
25376.714
-14076.367
4423.8153
-17125.727
-6926.7817
8869.2698
-6857.738
16574.479
-5998.2781
-284.64509
17997.874
7277.0024
6914.6494
5958.809
13854.006
7214.3777
2469.6923
7845.6617
6051.07
18158.946
2946.9266
9396.6056
17936.001
11763.483
12568.816
14963.607
11893.079
8761.3856
13834.436
7522.1484
9841.7174
24178.292
15587.433
25464.652
38181.823
24314.645
31079.651
8810.4022
8266.2695
38899.368
30848.916
19264.763
45916.377
38964.831
52956.639
47597.139
13682.99
44931.99
71759.635
62960.97
59083.145
45197.216
14345.954
46252.11
44190.148
4525.6317
43224.601
40976.192
36549.169
35676.619
40199.95
17561.515
-35007.711
-13534.714
8054.4814
-1864.6372
8323.7809
34773.874
49211.256
50903.829
72717.695
79928.187
40489.203
42904.96
59868.509
18497.168
-10665.541
1795.4153
-14887.085
-6568.2349
9582.0925
-7126.9144
15467.033
-5029.2506
-1782.9609
19067.976
6698.9546
7767.082
6099.1803
14159.76
5348.478
3640.202
8143.7498
5042.463
18183.701
2694.5439
9213.8167
18591.677
11516.599
13354.261
13775.935
12740.362
6975.9103
15892.283
5542.6143
10409.451
26747.841
10493.008
29557.99
39377.68
19561.285
33799.611
7441.3473
7406.301
41619.921
29715.996
18969.683
44249.373
42488.615
52848.062
40225.019
20932.815
49453.312
64191.081
62492.393
56992.752
52626.717
19848.641
39753.503
38118.475
6161.6538
49757.716
41396.456
37585.235
37427.442
35816.622
15554.5
-33152.551
-19463.302
5906.7191
-3363.7078
10305.128
37929.19
44328.123
60120.587
77422.459
66896.562
46545.095
54827.991
49380.895
10570.148
-5898.3341
-853.69499
-12618.562
-6087.886
10120.109
-7121.6477
13950.714
-3996.2968
-2203.7101
18401.459
7055.6883
9567.1356
4363.6496
14974.612
4580.3003
3356.4934
8745.8906
5716.8653
15289.781
5329.2473
9117.7919
16940.402
14296.39
12061.946
13424.066
13785.108
4182.2908
19036.492
3013.1332
11725.683
28229.052
6074.3123
35252.234
38737.491
15286.753
35949.276
6361.2534
8149.33
41572.77
29262.122
20058.899
42636.934
46911.242
47086.693
36644.738
32583.726
48687.487
56412.957
63332.922
54185.245
58683.145
30250.168
31173.615
29010.286
13190.448
49710.802
40517.796
45534.117
40510.643
27774.319
13101.337
-28728.697
-24408.309
3066.3073
-10833.137
11689.011
41306.747
38059.663
72686.311
84772.127
55156.436
55648.233
68959.764
38956.991
678.6591
-3955.9718
-3451.6817
-10407.608
-5330.4405
10328.771
-6880.7357
12562.94
-3991.9631
-1265.7952
17713.977
6150.1312
12529.58
3006.2524
13844.661
5024.0242
3722.7528
7670.9288
8054.5022
12131.429
6887.8277
11261.049
14391.531
16078.8
12304.598
12419.923
14140.201
2295.9529
21503.033
832.45596
14477.581
26041.921
6120.6685
38946.676
35608.021
15977.487
32881.368
9337.7985
9035.7339
37003.438
31444.534
22384.105
40391.944
52775.147
38148.017
33298.992
47107.642
45648.28
50489.413
64341.34
49684.928
61129.962
45043.473
25282.473
15298.47
23129.121
48847.109
35679.343
53418.005
49761.564
21581.921
6293.8059
-23944.039
-28077.644
-65.526723
-14909.66
9555.2566
39541.379
34966.926
76998.63
88067.849
51724.657
64874.909
79394.784
36102.978
-2964.7724
-3604.1446
-5845.2715
-8355.4681
-4475.7679
10339.34
-6649.1993
11789.365
-4736.6617
-701.16131
18506.846
4836.6065
14031.276
3444.7075
12536.854
3683.5627
5788.6394
6821.2028
8749.2381
10947.589
7766.8602
11718.371
15059.805
15228.705
12891.932
12956.497
12432.885
1226.6675
23499.522
-371.52003
17154.418
21472.599
9460.4677
42970.132
28093.088
20272.448
28137.857
12829.087
11269.726
31065.388
31651.299
25838.5
40352.633
55624.423
31324.942
31181.533
58113.421
41438.581
50590.299
64484.178
42167.047
63334.782
57802.343
21747.88
7778.068
28459.802
44304.194
36300.646
55989.75
55513.886
24409.601
-443.18923
-21251.665
-31680.048
-6664.7797
-14487.941
10276.573
34177.599
36410.009
78719.218
82203.145
50371.69
69152.129
79655.27
34745.169
-171.85397
-2546.1161
-8008.6468
-6543.6322
-3678.4908
10354.829
-6548.8506
11063.254
-4828.762
-1231.7371
19220.64
5348.861
13984.299
3318.1456
13162.565
1510.3251
6793.7428
7790.6674
8495.44
8970.4354
10894.863
9752.6838
16642.481
15614.58
11720.015
14300.571
11108.121
29.336154
23304.583
2277.4038
15125.065
19132.681
15317.696
43974.215
23612.214
21324.617
24038.727
18076.357
11040.912
27498.767
31468.491
26481.279
42051.968
54878.002
27676.466
31488.81
63593.061
37925.015
52099.704
69202.521
32968.895
62230.621
67332.449
13389.039
9242.6834
33549.188
37642.504
39468.746
56671.437
55198.126
27772.248
-1432.5793
-21795.296
-31745.575
-8755.3888
-13927.711
9691.3207
33036.848
39379.376
78078.317
80334.294
50441.16
68169.518
77522.951
35165.158
-2061.8525
-3911.053
-10018.438
-4947.1032
-3028.005
10311.123
-6173.3483
9651.4837
-4215.1844
-1184.2533
18141.535
6878.4122
14694.701
1778.9601
13857.708
1059.7692
6765.2738
7858.3948
9821.5101
5867.9904
13740.211
9691.3185
15596.398
17251.219
11939.765
13473.151
10373.082
1368.1651
18589.306
9516.4023
8409.7734
16207.63
27333.178
37329.143
24163.665
22677.49
18110.537
22589.874
12878.039
23652.489
31990.754
28196.953
40868.963
49915.318
27606.302
33430.15
62424.628
39480.869
54158.555
67633.244
32633.906
63994.977
63908.981
10856.391
10608.068
32360.528
38408.251
38948.832
55031.873
54079.975
28945.208
1644.5767
-22092.704
-31414.633
-8068.973
-14856.729
9923.5952
31956.539
39862.751
79325.137
81882.916
54549.933
70163.241
75351.811
33435.272
-2228.7029
-4647.7777
-11862.44
-3498.3597
-2447.7151
9914.2324
-5138.3259
7834.0887
-4247.899
415.1858
16677.388
7141.6177
16208.908
839.88994
13277.922
996.48964
8418.3206
6022.9013
10817.207
4852.2394
13558.016
12152.215
14579.136
16282.019
14491.633
12555.155
7537.4202
5130.1626
13189.605
15476.526
4588.5605
8863.8554
41738.737
29063.764
23732.582
24006.202
15327.801
21600.784
14879.087
24849.277
30814.67
29256.088
40574.505
44358.312
26802.633
34886.551
60311.364
38847.816
57079.789
67331.485
31792.086
66329.786
67038.548
9017.9697
9553.6745
32366.377
35671.175
42955.133
55439.321
52173.161
30353.121
1415.031
-20522.394
-31019.424
-13131.177
-15248.745
9909.7797
31445.895
44698.719
75622.005
77860.158
55805.77
69557.835
72698.833
31504.493
-5054.2016
-6277.1074
-13526.713
-2145.7795
-1746.0335
9034.6072
-3803.0513
6557.3111
-5425.3836
2255.065
16634.49
6686.2679
16577.396
801.5011
13194.901
-567.16351
11047.87
5583.9029
8909.4289
5737.0205
12396.76
13500.549
15943.418
14334.583
15103.429
13552.912
4259.1079
6893.9462
11768.853
14483.84
4480.5842
8195.2725
44533.017
28068.376
24536.257
22716.992
14953.99
19697.677
15149.959
27278.009
31654.02
28822.467
45797.521
48370.346
23416.124
35966.829
59441.043
37697.443
58754.971
66594.318
32247.502
65686.452
65719.096
8276.7882
11782.468
33587.48
34248.327
40440.473
50121.419
48834.962
30088.832
3227.14
-20473.015
-31273.608
-12193.813
-17696.268
11007.697
36295.671
41975.074
70967.722
73945.984
55542.878
69041.021
69044.248
27045.065
-8680.3386
-8147.1037
-14971.365
-945.58962
-825.84055
8019.9243
-2897.2377
5965.1457
-6627.3262
3066.0241
17287.58
7378.6636
16055.597
-187.33127
14185.818
-1807.7958
11338.577
7977.5576
6269.9013
5175.7514
12190.178
12968.6
16690.229
15040.125
13162.336
13480.568
4401.6818
7534.7994
11973.337
14546.515
2731.1922
8195.7718
46187.573
28809.982
25417.341
22981.835
14984.253
19967.658
13254.795
26842.327
32508.125
27904.756
39451.244
46479.392
26247.576
36160.057
57742.668
37939.052
57291.075
67156.827
34980.168
63764.244
63502.766
3281.4137
8108.4485
34110.913
31861.402
44195.525
46532.822
44711.86
24508.015
2291.358
-17850.339
-34238.401
-19716.295
-17866.745
6417.6718
27581.717
40477.634
68728.263
64409.543
51164.339
70365.705
68838.74
23440.615
-13969.719
-11720.583
-16133.754
-14.733711
164.35962
7413.0608
-2506.0373
5125.2329
-6991.6145
3509.6636
17097.289
8862.6515
16310.243
-1780.3115
13755.595
-586.87855
9417.4568
9433.4938
6530.9637
2824.9384
11889.844
11923.358
17852.496
15453.022
13118.391
12479.45
4390.6935
8635.2216
12409.307
15772.136
1812.7873
8296.6766
46751.401
27488.865
25457.823
22114.129
15122.276
20311.934
15117.506
26268.107
32228.216
28801.801
37259.597
41229.293
21183.159
36867.917
56599.251
36904.101
57763.381
63782.768
33890.989
63390.324
57010.85
-5107.8414
6638.0241
35004.046
27957.533
44692.874
45113.174
39955.471
18666.387
6212.4803
-17788.994
-36808.25
-25055.24
-23205.029
-5714.6718
4978.3613
36307.957
67234.821
56952.937
41665.893
66940.165
66822.122
20940.705
-14089.181
-12125.247
-17048.398
633.82605
913.77148
7305.5137
-1832.292
3331.7999
-7066.5832
4602.2522
16378.766
9703.3567
16576.448
-1196.0827
10065.517
1771.7273
8059.3774
8048.1446
7161.6164
3323.8639
12080.042
11091.846
18627.594
16465.326
13561.142
12778.631
4344.4804
8571.6359
11396.08
14073.505
1763.8347
8385.4057
46898.596
27198.5
25588.845
21451.036
15741.472
18964.99
12110.548
25304.509
30461.669
29219.398
37299.573
37040.97
20783.498
37339.191
56971.108
36756.132
56685.339
61556.786
34114.123
64391.585
53967.544
-13551.82
7687.8914
33396.339
23397.957
45032.806
43096.33
37220.055
16022.934
5354.6767
-18167.396
-35852.471
-27893.906
-24372.996
-10162.645
-4567.0257
29088.326
62884.373
52481.515
38003.818
64454.963
64741.381
19342.165
-16762.421
-11789.67
-17818.667
1160.8622
1218.8965
7201.9387
-277.44457
1121.9092
-7698.1809
5925.3874
16183.113
10077.448
14600.948
1850.383
5395.6583
2829.7468
8633.2543
7916.8442
7230.2694
4064.6476
12768.281
11014.201
18421.683
16371.761
12547.132
12114.095
4622.3372
8697.1952
12114.532
15411.598
1939.1108
8168.762
42829.721
25938.453
25674.921
20722.051
15606.466
15507.027
8658.4227
22871.882
27100.157
34145.327
39654.285
33354.066
22363.597
37566.906
54438.154
36110.613
56503.323
62652.163
34350.39
69092.303
52631.939
-23351.889
10334.395
36071.054
19075.215
39546.533
39843.489
33543.716
19380.764
7188.5109
-21555.302
-35388.665
-27459.954
-27859.595
-10298.313
1068.7001
23051.781
57839.777
47315.112
37431.85
61300.892
61121.13
16646.971
-17365.437
-12239.647
-18495.228
1771.4049
1196.5315
6640.5628
1583.3784
-389.29936
-8993.3152
6766.9434
16012.51
11128.992
11198.944
3465.3209
5064.6895
2941.5355
9479.5583
8340.4806
7139.1434
3394.6868
12139.071
10992.446
18097.589
16923.755
13000.281
10981.047
5056.4101
8202.4539
11232.559
14135.268
1299.1541
8455.3901
39197.399
23863.474
25684.234
20342.603
14686.902
9110.8325
7401.0445
21449.072
26178.135
34950.044
36180.318
30189.242
21693.416
37596.361
55030.779
35789.685
56606.437
63384.795
34207.425
72648.324
46024.822
-34677.354
9472.8017
41056.135
16337.504
36186.7
35002.49
29033.091
23882.945
14235.8
-21766.294
-35985.319
-30253.788
-31459.465
-12022.114
4455.7547
22040.289
57831.784
43998.538
37135.985
58257.639
61175.81
11428.938
-21804.604
-15098.322
-19084.494
2561.255
1229.1353
5726.0217
2726.9809
-909.53849
-10767.964
7249.5726
14895.968
12598.46
10499.736
4682.5674
5560.0261
2823.0176
9032.7831
7740.2791
7187.166
3617.1047
12363.512
11071.203
17674.068
16780.621
12584.906
10302.982
5484.5778
7504.6091
11463.111
14196.352
1677.5471
9005.1364
37004.436
22274.304
24356.739
20107.646
11989.761
4138.3274
6957.1404
22350.868
11434.137
33428.549
36986.08
27788.862
19556.667
40626.636
57138.06
34635.225
56624.379
61487.087
31424.562
73339.248
37952.962
-45688.33
5858.2489
44857.129
18108.338
34087.575
35619.242
31502.266
25152.907
9077.8166
-17708.484
-42166.736
-36135.812
-34606.702
-10674.94
1538.3852
23960.002
57441.994
42285.437
37406.454
57071.165
61022.884
7005.7513
-25321.22
-15951.105
-19566.501
3416.3649
1702.0021
4948.3236
3128.0818
-1151.3264
-12617.587
7399.8977
14752.637
14118.766
10605.829
4320.7534
5130.5038
2572.3809
9263.3189
7763.1972
7362.2958
3011.3168
12001.139
11152.343
16954.457
16365.343
12725.165
9982.9822
5850.7619
6533.2778
11099.291
13974.772
2261.9165
9637.1133
35500.033
21145.196
22995.276
19001.96
12264.872
1298.5005
5375.294
26586.708
9863.407
33657.95
40012.624
24793.675
18036.271
40549.779
56502.559
33964.472
56563.175
59844.897
29778.872
72434.502
30465.364
-52734.245
7034.3629
48109.663
19963.641
33138.531
41746.722
32822.016
24998.482
-1820.1826
-21136.968
-51345.034
-40811.165
-36510.662
-11632.46
507.41575
20801.163
45729.792
42107.006
42863.844
52171.397
47819.306
1301.8848
-24681.756
-15217.113
-19998.324
4094.5061
2770.8928
4535.0276
3743.0138
-1673.699
-12138.536
7687.1886
14898.582
13769.902
10365.577
4317.1763
5487.2608
2456.5008
9006.3577
7681.2839
7600.6115
3035.1434
11716.794
11203.568
16294.803
15736.034
12023.097
9544.3007
5911.821
5985.2169
11470.566
13319.942
2116.5728
8880.6642
33349.04
20111.817
23296.54
19643.278
12729.327
1246.6585
3134.7759
29928.789
10960.515
34251.285
39834.025
20019.879
13473.952
38658.586
54253.011
33841.965
55935.471
57267.326
29990.832
70964.574
25315.892
-57907.482
7286.8489
50689.361
19801.523
32468.523
38511.648
28363.262
25363.785
-6720.2758
-29042.11
-54571.239
-44181.978
-37457.062
-12245.339
458.01184
16252.464
48633.318
43940.296
45554.817
54969.99
45211.467
2846.082
-19290.047
-13942.146
-20707.769
4408.4589
4310.179
4211.925
4585.3151
-1751.4795
-11118.859
7603.033
14479.681
13821.855
10245.344
4294.0233
5484.4023
2250.08
8720.2337
7796.3981
7761.7609
3038.6028
11358.97
11097.967
16329.47
15360.498
10574.036
8824.4402
5146.054
5614.0568
10714.054
12255.309
1323.7005
7530.7186
31158.615
18744.906
24633.66
20193.026
14633.066
2055.199
863.14683
32667.69
11980.214
30298.328
32742.42
14752.132
8337.8158
34160.5
48151.893
33820.03
54494.734
50895.328
27773.401
69873.641
21422.708
-61297.037
6708.2816
53093.349
18323.645
31313.274
37773.434
27621.449
25858.055
-3497.7639
-32667.055
-55917.972
-45924.221
-39563.178
-10593.41
-1431.5081
13034.918
51974.998
49054.232
47900.828
56800.492
43167.862
5459.1287
-14735.491
-10772.923
-22308.716
4368.0047
5899.784
3869.2793
4970.1138
-1719.3517
-11407.825
7747.7193
14452.473
13672.554
9989.1401
4316.0694
5609.9766
1996.647
8379.992
7880.6247
7834.9522
3111.2583
10926.398
10866.869
16117.91
15262.01
8808.3872
7714.9396
3354.4691
4957.8558
9711.6588
12053.639
1582.0897
7292.1261
29369.649
17085.284
24530.554
20477.287
15846.54
5960.6121
-695.77655
30344.389
13423.736
27375.314
25485.235
13629.736
6303.4982
28651.078
42144.129
34748.261
52987.8
38748.568
21988.637
68395.821
14498.008
-60394.1
8928.3161
54667.858
16269.116
29945.069
36593.031
27916.26
24495.975
-3074.9487
-33447.794
-52158.318
-42592.996
-40497.163
-15819.242
-7471.801
5300.7381
55002.087
55066.802
50979.026
51114.587
37661.339
4717.778
-14495.31
-8911.0208
-24581
4052.9736
6430.4759
4070.113
4949.4611
-1936.3648
-11382.985
7687.6995
14205.119
13334.448
9681.6393
4319.2661
5543.924
1740.7228
8095.2586
7896.2454
7926.3005
3176.8599
10386.372
10466.223
15853.891
15123.703
7355.1645
6058.3725
962.87539
4326.695
8724.6733
13309.493
2780.0608
7552.8832
26853.459
15750.043
23743.705
21012.242
16021.484
10914.837
168.31105
28617.193
15103.42
27849.204
17416.939
14717.307
5699.3928
23022.634
38077.414
35499.441
51771.187
25695.079
15478.856
66380.496
9478.5906
-59362.809
17265.502
56865.844
14130.479
28483.644
35171.309
27342.227
22847.745
-3747.6352
-38120.824
-49371.91
-40844.429
-41125.251
-20512.22
-16599.325
1735.2943
58483.029
56474.123
55159.039
50897.899
30734.378
1579.4781
-14469.224
-7750.5576
-24121.067
2876.8035
5674.501
4438.9168
4837.9929
-2027.7261
-11360.653
7660.3579
13925
13058.309
9343.8449
4312.1032
5536.7244
1507.3742
7808.1659
7945.0117
7888.0353
3313.2356
9776.3422
9969.1958
15559.998
14924.433
5960.7498
4210.9089
-1744.4116
4445.868
7709.3193
14067.773
3110.876
7881.7192
23420.62
14651.75
22161.258
20644.823
15377.752
11763.403
5255.2642
26552.919
14861.265
29158.892
13023.679
18798.569
6570.7832
20066.329
37017.412
36086.409
48636.352
22942.505
14955.814
65612.741
9343.3236
-59172.377
25086.996
61316.649
11972.492
27893.327
32329.575
28323.438
20105.12
-2614.1981
-41783.422
-50907.434
-41938.635
-43514.536
-26153.102
-17368.064
10558.074
66240.053
58009.309
61991.617
59654.267
30811.392
-3343.6608
-11629.344
-4749.2213
-14678.353
486.18127
5092.6599
4638.8434
4819.9707
-2106.4637
-11194.083
7853.5234
13665.909
12850.283
9028.1295
4329.2737
5475.8623
1246.6593
7554.4047
8005.9177
7756.564
3028.9719
9073.1285
9828.5019
15421.922
14583.806
4748.2153
3207.2606
-3998.6205
3281.7699
6478.6451
14287.821
3047.5854
7824.7
21030.735
14362.47
20158.931
19176.666
15601.43
12642.53
8195.4396
24705.408
9751.925
27733.545
33525.868
23933.383
7747.8776
17342.453
37390.469
36041.031
44881.637
29501.717
17161.241
63555.59
4669.0669
-58624.741
32965.151
59457.007
13215.155
29878.14
29134.861
23982.816
14375.731
-5992.6739
-43960.503
-50085.705
-43340.058
-46185.767
-30704.341
-18614.051
26145.283
70471.157
58606.185
68847.858
61449.474
33821.79
5025.223
-4491.9861
-2032.9063
3424.3948
-419.49667
4978.8023
4619.0697
4794.7333
-2101.4055
-11038.385
7945.6605
13417.716
12635.608
8701.1031
4383.3277
5392.6375
953.25434
7341.316
8019.8157
7589.2753
2787.1691
8403.0934
9815.0883
15284.018
13991.93
3885.0153
2395.629
-5896.4175
3004.8535
5422.0893
15047.436
3383.4944
8111.3195
19563.315
14381.404
18173.713
17309.662
15272.283
11116.383
8997.2339
24832.818
8515.4771
26684.322
47743.828
26998.823
7025.7935
13120.505
36948.067
35599.762
43004.584
35751.591
20081.847
58224.778
-10674.254
-58448.014
33655.257
46789.333
15243.375
33132.208
29669.482
23619.084
10809.408
-10714.139
-44735.408
-52409.878
-47669.852
-49314.64
-30713.524
-15529.831
31091.752
69623.233
58853.535
71262.756
62976.048
38283.555
14415.249
1930.5363
-60.536307
7846.3587
1159.7779
4850.7824
4639.8965
4819.6955
-2083.872
-10922.142
7928.6871
13178.695
12404.717
8397.0211
4410.272
5304.6658
711.53886
7096.264
7928.5569
7318.6914
2927.8677
7774.3208
9549.5604
15108.304
13174.053
3294.4175
1944.9245
-7145.1157
2402.6967
5050.0081
16111.424
4256.598
8004.7193
18527.461
13698.309
15890.554
15629.434
14873.088
8361.9861
7477.5604
27371.604
9728.1291
27781.863
43523.118
25141.805
8104.4352
9441.1362
36000.59
35832.188
41501.319
38690.925
21465.817
54562.684
-26767.612
-68841.264
30987.695
25153.052
17478.217
36607.243
29023.012
24292.491
8290.3559
-13535.383
-42620.316
-54379.681
-51820.638
-52749.766
-31089.94
-12755.597
30116.654
64137.071
57777.626
68553.704
66463.306
44494.458
20980.462
6230.0714
1760.9313
-1309.63
2129.441
4849.278
4661.2976
4858.5704
-2083.6417
-10816.09
7828.85
12946.026
12144.878
8127.5513
4492.9586
5213.0233
530.37065
6706.7049
7659.2663
6997.2828
3183.8013
7211.0531
9071.7834
14860.527
12012.566
3019.754
1877.8902
-6948.1548
2138.1676
5574.8659
17333.063
5170.6901
7558.9771
17864.298
12151.52
13145.12
14717.53
14178.827
4662.1845
8195.5384
31198.222
10696.391
28637.367
21437.507
18463.133
11401.65
8576.6236
35680.535
36046.419
39213.653
38452.635
22770.595
53547.992
-38112.258
-69822.19
24959.442
18829.981
22733.412
39672.051
27746.016
27204.784
8057.2449
-15629.046
-39874.398
-55393
-55971.686
-57161.974
-32612.609
-10808.701
28579.69
56250.304
54635.712
73863.218
71044.902
46897.862
26884.97
9350.9578
2103.0626
-1403.9705
1945.4843
4848.196
4678.8313
4902.4557
-2098.1704
-10721.374
7662.9844
12703.53
11871.34
7863.3297
4594.8767
5106.3166
378.48926
6157.8259
7181.1275
6416.8147
3692.9527
6609.9196
8470.2116
14479.677
10456.937
2755.0579
1627.4867
-5351.6629
3557.0944
7039.8343
18025.283
5853.0215
8375.225
17065.005
10161.074
10278.539
13999.282
12936.27
2097.2976
7760.4056
30907.649
9890.3699
29141.62
16131.946
17300.456
15062.301
11540.094
36041.125
35881.54
38012.682
37079.605
23249.858
55616.821
-43905.111
-65891.422
13061.434
19735.301
25431.881
41915.425
25279.216
27133.746
4480.4008
-20797.466
-41040.368
-57302.73
-61098.907
-65418.993
-37834.788
-11119.028
26146.321
53762.292
55687.34
68454.618
70846.706
48571.201
29503.465
11775.62
3383.4929
-1229.1973
2110.7171
4866.2884
4704.1322
4940.3551
-2137.9265
-10636.458
7460.4025
12451.948
11594.795
7620.4938
4705.4309
4989.2299
244.13319
5568.3481
6541.9662
5693.0909
4146.9565
5935.5056
7844.6538
13877.326
8447.0867
2477.7278
1505.7385
-2475.0482
5812.6335
8602.3641
16919.371
6292.2321
8379.118
16042.547
8622.8739
7360.3432
12959.878
11621.098
-481.98577
5460.9115
31083.189
9726.8373
30414.46
23111.159
18811.106
18499.45
15549.242
35928.057
35515.183
39024.41
36348.065
23379.78
57755.301
-27994.621
-70270.841
18792.542
24257.822
26622.257
42744.379
22299.741
25307.872
718.67008
-27397.289
-41108.631
-59406.397
-67165.269
-75087.392
-48217.319
-16969.692
23394.658
53453.528
56572.53
69039.295
69221.89
50076.801
33206.253
13023.45
3102.8478
-879.84856
2216.112
4885.4507
4733.6553
4971.5591
-2204.8124
-10571.276
7229.9753
12190.076
11321.097
7381.6899
4813.6169
4877.6059
180.70908
5076.9396
5782.7229
4809.5461
4530.972
5151.8746
7089.9289
13119.774
5979.6936
2105.4856
1405.6654
1627.4741
7715.4253
9498.7893
16151.915
6577.0629
9254.5591
15018.933
7142.4492
4711.9888
11945.01
10795.784
-1856.228
4865.1166
31629.185
9472.296
32163.578
27198.717
18914.54
20837.049
19121.772
35329.782
35464.341
37519.914
36307.55
23609.383
57277.796
-9808.7906
-68246.629
29021.699
28851.348
25913.091
38258.046
19077.979
24407.115
168.63388
-34313.318
-42765.773
-59955.216
-72242.687
-82871.488
-58358.207
-22732.099
25357.352
61216.307
58947.632
73035.265
70016.246
45542.323
34240.691
14917.515
2041.6761
-516.96473
2376.8586
4906.1352
4764.5355
4993.4348
-2300.4127
-10529.878
6977.401
11918.015
11047.374
7109.3329
4893.1398
4777.2272
208.73367
4603.797
4945.5411
3734.3366
4832.6508
4526.5859
6434.4952
12277.695
3023.1618
1219.8355
1545.0199
4803.0768
8541.332
9970.7219
16267.727
7002.4328
10161.936
13887.615
6221.5632
2833.1811
10441.737
9999.8319
-2829.5212
6705.655
32654.496
10151.241
17998.156
31862.27
18493.897
22011.181
21752.46
35483.233
34688.917
36304.002
37153.837
25178.625
55395.434
-0.68958739
-56657.371
37811.314
29978.866
24357.513
30879.35
18358.892
28920.83
-9041.3344
-39554.331
-48163.253
-64057.512
-79511.974
-90641.651
-67959.082
-26125.504
30515.24
67591.934
62408.336
68443.973
65650.377
49246.906
35894.529
16550.844
1578.8322
-96.218962
2485.9237
4927.5336
4796.6437
5007.4929
-2422.9453
-10511.617
6704.3784
11633.745
10753.704
6806.3097
4941.4492
4678.3377
293.57931
4092.2134
4021.3557
2543.365
5171.105
4333.6837
5992.5183
11430.48
-15.731049
433.02924
1151.097
6250.3966
8760.3477
10062.567
16105.046
7388.5059
10803.735
12722.255
6229.6389
1394.02
8045.6978
8852.3164
-4111.2268
5736.3836
32158.292
10947.512
17306.42
33248.152
16351.179
23717.411
23797.679
35127.442
33541.002
35572.545
37498.399
26237.052
53099.092
13089.411
-46520.967
39314.802
28859.053
24124.78
30793.085
19847.533
35884.021
-11086.366
-39227.462
-53245.281
-71186.469
-86954.57
-99208.852
-76658.791
-30731.458
26786.656
64974.618
62325.087
69451.341
62267.553
52058.618
40054.389
17747.517
310.76268
299.33906
2686.5667
4949.053
4827.2538
5012.0304
-2571.7635
-10519.101
6414.5412
11331.275
10441.214
6489.5722
4978.479
4569.7662
441.08494
3584.552
2988.7605
1549.2785
5698.0842
4659.9156
5692.7817
10739.189
-1714.7222
-616.38947
249.38373
7411.9687
9179.0506
9900.3106
15439.107
7775.9164
11016.704
12237.889
6867.1091
404.07595
5475.203
7331.5047
-5618.4099
5819.6487
32061.813
11351.02
18958.695
33148.996
14672.472
25126.479
25097.39
34507.792
33254.671
34765.429
36331.49
26778.741
48270.739
17880.085
-35449.51
38155.911
24615.431
24662.283
36005.692
21092.413
42838.636
-10406.785
-38102.202
-57022.111
-80623.969
-95549.146
-106978.4
-84403.328
-38047.497
21190.078
62663.898
63973.737
68524.287
61086.491
53778.79
42890.087
17469.877
-339.02073
747.76467
2765.8902
4968.8456
4855.1933
5008.8634
-2748.4657
-10507.45
6105.8957
10999.685
10116.49
6201.7753
5016.3326
4453.3806
619.62659
3176.5273
1924.8214
902.03704
6411.0224
5485.7293
5495.6783
10351.79
-1178.0549
-1240.3027
-213.75693
8391.3054
9583.4229
9994.5876
14754.65
8091.3735
11614.674
12524.153
7791.9088
263.27703
2894.3971
6371.0478
-6811.629
5291.5797
32530.526
11294.197
21908.6
31740.243
12856.372
26389.898
25708.402
34265.562
33621.878
33853.033
35584.522
27136.386
46155.392
13280.756
-23666.337
40452.021
22018.531
26267.514
38911.33
21917.856
45522.082
-11110.023
-37745.326
-58349.85
-90722.824
-103544.04
-113953.22
-91704.252
-45804.665
16587.1
61465.479
65416.833
71254.03
59864.16
52412.546
46309.49
18377.319
202.59745
1160.7808
3026.6028
4969.8867
4876.7177
4997.4576
-2946.0825
-10480.34
5782.0028
10649.627
9780.3047
5965.2352
5053.03
4367.6498
865.75855
3025.1885
965.93524
666.63415
7157.2377
6483.2021
5387.2858
10359.146
985.08322
-1073.4443
-357.62847
8865.5049
9874.6545
10371.462
14490.287
8252.4774
12583.173
13432.652
8419.9998
1343.4475
1331.4638
4956.177
-5050.357
5295.6095
30815.082
11721.161
24193.883
27391.01
10927.699
26807.524
25369.238
34061.001
33776.786
33049.429
34578.824
27093.847