/*--------------------------------*- C++ -*----------------------------------*\
| =========                 |                                                 |
| \\      /  F ield         | OpenFOAM: The Open Source CFD Toolbox           |
|  \\    /   O peration     | Version:  2.3.0                                 |
|   \\  /    A nd           | Web:      www.OpenFOAM.org                      |
|    \\/     M anipulation  |                                                 |
\*---------------------------------------------------------------------------*/
FoamFile
{
    version     2.0;
    format      ascii;
    class       surfaceScalarField;
    location    "1.3e-05";
    object      phi;
}
// * * * * * * * * * * * * * * * * * * * * * * * * * * * * * * * * * * * * * //

dimensions      [0 3 -1 0 0 0 0];

internalField   nonuniform List<scalar> 
14825
(
1.0348778e-09
-2.1116418e-11
1.0536943e-09
-1.8816551e-11
1.0757262e-09
-2.203185e-11
1.0949601e-09
-1.9233915e-11
1.1164338e-09
-2.1473721e-11
1.1360135e-09
-1.957968e-11
1.15622e-09
-2.0206537e-11
1.1764431e-09
-2.0223056e-11
1.1959407e-09
-1.9497559e-11
1.2163914e-09
-2.0450724e-11
1.235071e-09
-1.8679626e-11
1.2561627e-09
-2.109168e-11
1.2735192e-09
-1.7356538e-11
1.2956572e-09
-2.2137934e-11
1.3112767e-09
-1.5619496e-11
1.3339042e-09
-2.2627585e-11
1.3497261e-09
-1.5821899e-11
1.3702837e-09
-2.0557597e-11
1.3883455e-09
-1.8061773e-11
1.4058002e-09
-1.7454645e-11
1.4255292e-09
-1.9729038e-11
1.4421702e-09
-1.6641014e-11
1.4603767e-09
-1.8206484e-11
1.4785546e-09
-1.8177862e-11
1.4947936e-09
-1.6239069e-11
1.5128635e-09
-1.8069828e-11
1.5292082e-09
-1.6344725e-11
1.5461674e-09
-1.6959243e-11
1.562128e-09
-1.5960571e-11
1.5783247e-09
-1.619673e-11
1.5941228e-09
-1.5798042e-11
1.612223e-09
-1.8100277e-11
1.6226002e-09
-1.0377156e-11
1.6446922e-09
-2.2092007e-11
1.6529793e-09
-8.2871408e-12
1.6733076e-09
-2.0328212e-11
1.6850372e-09
-1.1729638e-11
1.697641e-09
-1.2603791e-11
1.7156715e-09
-1.8030526e-11
1.7265251e-09
-1.0853633e-11
1.7395938e-09
-1.3068694e-11
1.7543902e-09
-1.4796336e-11
1.7653714e-09
-1.0981179e-11
1.7796045e-09
-1.4233125e-11
1.7909824e-09
-1.1377906e-11
1.8010786e-09
-1.0096232e-11
1.8166481e-09
-1.5569468e-11
1.8268793e-09
-1.0231205e-11
1.836353e-09
-9.4736572e-12
1.845243e-09
-8.8900712e-12
1.8598867e-09
-1.4643703e-11
1.8663616e-09
-6.4748535e-12
1.87861e-09
-1.2248418e-11
1.8874954e-09
-8.8854323e-12
1.8956811e-09
-8.1856276e-12
1.9050593e-09
-9.3782438e-12
1.91464e-09
-9.5806526e-12
1.9208932e-09
-6.253289e-12
1.9294347e-09
-8.5414844e-12
1.93708e-09
-7.6452381e-12
1.9445011e-09
-7.4210816e-12
1.9518562e-09
-7.3551231e-12
1.957899e-09
-6.042858e-12
1.9653536e-09
-7.4545564e-12
1.9713646e-09
-6.0110376e-12
1.973306e-09
-1.9413711e-12
1.9820706e-09
-8.7645701e-12
1.9839519e-09
-1.8813345e-12
1.987727e-09
-3.7751136e-12
1.9952168e-09
-7.4897973e-12
1.9938774e-09
1.3394596e-12
1.9977929e-09
-3.915592e-12
2.0034138e-09
-5.6208257e-12
2.007232e-09
-3.8182579e-12
-2.2201814e-12
2.8639012e-09
-8.3051715e-11
2.9193516e-09
-7.4266925e-11
2.9840225e-09
-8.6702744e-11
3.0408649e-09
-7.6076306e-11
3.1042428e-09
-8.4851679e-11
3.162088e-09
-7.7424803e-11
3.2223256e-09
-8.0444132e-11
3.2819057e-09
-7.9803195e-11
3.3406762e-09
-7.8268051e-11
3.400802e-09
-8.0576489e-11
3.457604e-09
-7.5481706e-11
3.5199227e-09
-8.3410306e-11
3.5727689e-09
-7.0202775e-11
3.6386855e-09
-8.8054569e-11
3.6864291e-09
-6.3363077e-11
3.7543097e-09
-9.0508166e-11
3.802337e-09
-6.3849203e-11
3.8652728e-09
-8.3493353e-11
3.9189048e-09
-7.1693784e-11
3.9739708e-09
-7.2520643e-11
4.0324919e-09
-7.8250223e-11
4.084578e-09
-6.8727092e-11
4.1400985e-09
-7.3726952e-11
4.195595e-09
-7.3674383e-11
4.2467613e-09
-6.7405393e-11
4.3017899e-09
-7.3098359e-11
4.3530405e-09
-6.7595381e-11
4.4061999e-09
-7.011862e-11
4.4555563e-09
-6.5316986e-11
4.5074715e-09
-6.8111913e-11
4.5564763e-09
-6.4802866e-11
4.6121054e-09
-7.3729382e-11
4.6487709e-09
-4.7042642e-11
4.714398e-09
-8.7719044e-11
4.7449672e-09
-3.8856418e-11
4.8064736e-09
-8.1834545e-11
4.8462796e-09
-5.1535642e-11
4.8880412e-09
-5.4365437e-11
4.9433573e-09
-7.3346655e-11
4.9817005e-09
-4.9196805e-11
5.024747e-09
-5.6115151e-11
5.072293e-09
-6.2342352e-11
5.1118776e-09
-5.0565769e-11
5.1564229e-09
-5.8778478e-11
5.1944747e-09
-4.9429683e-11
5.2308436e-09
-4.6465078e-11
5.2786589e-09
-6.3384791e-11
5.3148168e-09
-4.638914e-11
5.3498145e-09
-4.4471391e-11
5.3816757e-09
-4.0751205e-11
5.4302259e-09
-6.3193871e-11
5.456636e-09
-3.2885005e-11
5.4969249e-09
-5.2537298e-11
5.5291301e-09
-4.1090688e-11
5.5606484e-09
-3.9703852e-11
5.5946398e-09
-4.3369663e-11
5.6283951e-09
-4.3335961e-11
5.6545193e-09
-3.2377547e-11
5.6848188e-09
-3.8840948e-11
5.7132481e-09
-3.6074522e-11
5.739251e-09
-3.3423973e-11
5.767009e-09
-3.5113183e-11
5.7878265e-09
-2.686027e-11
5.8181025e-09
-3.7730578e-11
5.8422664e-09
-3.0175009e-11
5.8583935e-09
-1.8068373e-11
5.8893314e-09
-3.9702483e-11
5.9021681e-09
-1.471812e-11
5.9189754e-09
-2.0582367e-11
5.9475862e-09
-3.6100603e-11
5.9527903e-09
-3.8646579e-12
5.9709801e-09
-2.2105376e-11
5.9975894e-09
-3.2230113e-11
6.0144874e-09
-2.0716239e-11
-1.6119802e-11
4.3688362e-09
-1.8377842e-10
4.4592344e-09
-1.6466515e-10
4.5644367e-09
-1.9190498e-10
4.6573825e-09
-1.6902214e-10
4.7611576e-09
-1.8862681e-10
4.8557078e-09
-1.7197499e-10
4.9555131e-09
-1.8024941e-10
5.0524236e-09
-1.7671368e-10
5.1509284e-09
-1.7677283e-10
5.2485492e-09
-1.7819729e-10
5.3446829e-09
-1.7161547e-10
5.4459667e-09
-1.8469409e-10
5.5358878e-09
-1.6012388e-10
5.6440215e-09
-1.9618822e-10
5.7255334e-09
-1.4487498e-10
5.8383279e-09
-2.0330269e-10
5.9182159e-09
-1.4373716e-10
6.0261913e-09
-1.9146877e-10
6.1126583e-09
-1.581608e-10
6.2104783e-09
-1.7034068e-10
6.3058675e-09
-1.736394e-10
6.3966845e-09
-1.5954406e-10
6.4907911e-09
-1.678336e-10
6.5842394e-09
-1.6712261e-10
6.673308e-09
-1.5647403e-10
6.7666738e-09
-1.6646413e-10
6.8546554e-09
-1.5557704e-10
6.9481368e-09
-1.6359996e-10
7.0326063e-09
-1.4978649e-10
7.1241944e-09
-1.5970008e-10
7.2100867e-09
-1.5069512e-10
7.3017428e-09
-1.6538545e-10
7.3755248e-09
-1.2082471e-10
7.4807896e-09
-1.9298385e-10
7.5429259e-09
-1.0099264e-10
7.6461993e-09
-1.8510794e-10
7.718344e-09
-1.2368034e-10
7.7982725e-09
-1.3429397e-10
7.8896219e-09
-1.6469601e-10
7.9631821e-09
-1.2275707e-10
8.0408807e-09
-1.3381369e-10
8.1221898e-09
-1.4365147e-10
8.1964557e-09
-1.2483172e-10
8.2762612e-09
-1.3858393e-10
8.3466377e-09
-1.1980617e-10
8.421765e-09
-1.2159241e-10
8.5029174e-09
-1.4453722e-10
8.5706752e-09
-1.1414695e-10
8.638567e-09
-1.1236316e-10
8.7012639e-09
-1.0344812e-10
8.7860128e-09
-1.4794278e-10
8.8433143e-09
-9.0186414e-11
8.9175702e-09
-1.2679323e-10
8.9785735e-09
-1.0209397e-10
9.0423452e-09
-1.0347561e-10
9.1090733e-09
-1.1009777e-10
9.1715446e-09
-1.0580728e-10
9.2286703e-09
-8.9503216e-11
9.2870004e-09
-9.7171011e-11
9.3449787e-09
-9.4052804e-11
9.3974553e-09
-8.5900601e-11
9.4579285e-09
-9.5586341e-11
9.5020805e-09
-7.1012303e-11
9.5667907e-09
-1.0244081e-10
9.6150526e-09
-7.8436878e-11
9.6584953e-09
-6.1511061e-11
9.71479e-09
-9.5997247e-11
9.7485507e-09
-4.8478827e-11
9.7908564e-09
-6.288806e-11
9.8474305e-09
-9.2674621e-11
9.8745046e-09
-3.0938839e-11
9.9197439e-09
-6.7344609e-11
9.9757617e-09
-8.8247897e-11
1.0011587e-08
-5.6541163e-11
-5.2103822e-11
5.594109e-09
-3.214167e-10
5.7178891e-09
-2.8844525e-10
5.8609898e-09
-3.3500571e-10
5.9886395e-09
-2.966718e-10
6.1310148e-09
-3.3100208e-10
6.260893e-09
-3.0185327e-10
6.3994568e-09
-3.1881319e-10
6.5318172e-09
-3.0907406e-10
6.6699848e-09
-3.1494039e-10
6.8031207e-09
-3.1133326e-10
6.9394712e-09
-3.0796596e-10
7.0778188e-09
-3.2304165e-10
7.2062213e-09
-2.8852636e-10
7.3535134e-09
-3.434803e-10
7.4706883e-09
-2.6204996e-10
7.6269625e-09
-3.5957684e-10
7.7398205e-09
-2.565952e-10
7.8959262e-09
-3.4757447e-10
8.0122292e-09
-2.744638e-10
8.1567013e-09
-3.1481272e-10
8.2853505e-09
-3.0228862e-10
8.4182375e-09
-2.9243102e-10
8.5517165e-09
-3.0131261e-10
8.6832315e-09
-2.9863759e-10
8.8133507e-09
-2.8659331e-10
8.9464986e-09
-2.9961198e-10
9.0730733e-09
-2.8215177e-10
9.210073e-09
-3.0059966e-10
9.3300483e-09
-2.6976183e-10
9.4644551e-09
-2.9410683e-10
9.5899114e-09
-2.7615145e-10
9.7158539e-09
-2.9132794e-10
9.837033e-09
-2.4200384e-10
9.9760674e-09
-3.3201822e-10
1.0079904e-08
-2.0482927e-10
1.0224774e-08
-3.2997792e-10
1.0332776e-08
-2.3168247e-10
1.045959e-08
-2.6110828e-10
1.0585349e-08
-2.904541e-10
1.0699534e-08
-2.3694271e-10
1.0818734e-08
-2.5301377e-10
1.0937637e-08
-2.6255445e-10
1.1054822e-08
-2.4201608e-10
1.1171261e-08
-2.5502306e-10
1.1272712e-08
-2.2125759e-10
1.1390236e-08
-2.3911621e-10
1.150713e-08
-2.6143139e-10
1.1616608e-08
-2.2362462e-10
1.1725624e-08
-2.2137958e-10
1.1826649e-08
-2.0447329e-10
1.1943702e-08
-2.6499523e-10
1.2046608e-08
-1.9309307e-10
1.2162045e-08
-2.4222993e-10
1.2255221e-08
-1.952701e-10
1.2360641e-08
-2.0889508e-10
1.2466313e-08
-2.1577031e-10
1.2561975e-08
-2.0146911e-10
1.2657421e-08
-1.849494e-10
1.275321e-08
-1.929598e-10
1.284531e-08
-1.8615304e-10
1.2932653e-08
-1.7324294e-10
1.3032364e-08
-1.9529806e-10
1.3109251e-08
-1.4789857e-10
1.3212063e-08
-2.0525269e-10
1.3292368e-08
-1.5874235e-10
1.3377058e-08
-1.4620092e-10
1.3466229e-08
-1.851683e-10
1.3530992e-08
-1.132421e-10
1.3609925e-08
-1.4182098e-10
1.3696897e-08
-1.796465e-10
1.3755187e-08
-8.9228313e-11
1.383638e-08
-1.4853796e-10
1.3926103e-08
-1.7797124e-10
1.3999155e-08
-1.2959314e-10
-1.2041719e-10
6.579165e-09
-4.9481037e-10
6.7344641e-09
-4.4374435e-10
6.9122286e-09
-5.1277021e-10
7.0732308e-09
-4.5767399e-10
7.25152e-09
-5.0929129e-10
7.4156653e-09
-4.6599858e-10
7.592311e-09
-4.954589e-10
7.7582426e-09
-4.7500567e-10
7.9362603e-09
-4.9295812e-10
8.102237e-09
-4.7730988e-10
8.2797067e-09
-4.8543567e-10
8.4523548e-09
-4.9568981e-10
8.6204096e-09
-4.5658112e-10
8.8046838e-09
-5.2775455e-10
8.9593448e-09
-4.1671089e-10
9.1578056e-09
-5.5803769e-10
9.3039394e-09
-4.0272901e-10
9.5083067e-09
-5.5194171e-10
9.653006e-09
-4.1916318e-10
9.8490972e-09
-5.1090389e-10
1.0009618e-08
-4.6280942e-10
1.0184239e-08
-4.6705198e-10
1.035629e-08
-4.7336383e-10
1.0526556e-08
-4.6890332e-10
1.0700452e-08
-4.6048963e-10
1.087289e-08
-4.7204975e-10
1.1039318e-08
-4.4857993e-10
1.1221659e-08
-4.8294011e-10
1.1379832e-08
-4.279356e-10
1.155966e-08
-4.7393458e-10
1.1725376e-08
-4.4186764e-10
1.1888605e-08
-4.5455664e-10
1.2062419e-08
-4.1581764e-10
1.2232444e-08
-5.0204387e-10
1.2386824e-08
-3.5920906e-10
1.2569498e-08
-5.1265179e-10
1.2719148e-08
-3.8133239e-10
1.2893487e-08
-4.3544753e-10
1.3056288e-08
-4.5325509e-10
1.3213847e-08
-3.9450179e-10
1.3378887e-08
-4.1805287e-10
1.3537322e-08
-4.2098945e-10
1.370172e-08
-4.0641413e-10
1.3858129e-08
-4.1143286e-10
1.4006466e-08
-3.6959375e-10
1.4175197e-08
-4.0784782e-10
1.4326732e-08
-4.1296608e-10
1.4467848e-08
-3.6474072e-10
1.4617758e-08
-3.7129001e-10
1.4769223e-08
-3.5593819e-10
1.4927468e-08
-4.2324037e-10
1.5085288e-08
-3.5091309e-10
1.5241328e-08
-3.9826909e-10
1.5374463e-08
-3.2840511e-10
1.5533837e-08
-3.6826952e-10
1.5681353e-08
-3.6328676e-10
1.5816791e-08
-3.3690616e-10
1.5952187e-08
-3.2034637e-10
1.609729e-08
-3.380622e-10
1.622368e-08
-3.1254278e-10
1.6356254e-08
-3.0581706e-10
1.6497533e-08
-3.3657706e-10
1.6623071e-08
-2.7343657e-10
1.6763496e-08
-3.4567835e-10
1.6889692e-08
-2.8493765e-10
1.7018732e-08
-2.7524106e-10
1.7143118e-08
-3.0955396e-10
1.7241788e-08
-2.1191292e-10
1.7373383e-08
-2.734161e-10
1.7496703e-08
-3.0296564e-10
1.7606541e-08
-1.9906653e-10
1.7732624e-08
-2.7462087e-10
1.7865035e-08
-3.1038261e-10
1.7978658e-08
-2.4321587e-10
-2.3068816e-10
7.3584388e-09
-7.0340261e-10
7.5430867e-09
-6.283922e-10
7.7521019e-09
-7.2178547e-10
7.9458478e-09
-6.5141989e-10
8.155578e-09
-7.1902144e-10
8.3547025e-09
-6.6512313e-10
8.5664165e-09
-7.0717283e-10
8.7648671e-09
-6.734563e-10
8.9827768e-09
-7.1086783e-10
9.178031e-09
-6.7256404e-10
9.3983428e-09
-7.0574753e-10
9.6018028e-09
-6.9914981e-10
9.811062e-09
-6.6584033e-10
1.0030584e-08
-7.4727703e-10
1.0222752e-08
-6.0887856e-10
1.0462656e-08
-7.9794195e-10
1.0643199e-08
-5.8327196e-10
1.089566e-08
-8.044021e-10
1.1070005e-08
-5.9350824e-10
1.1316149e-08
-7.5704819e-10
1.1506034e-08
-6.5269411e-10
1.1729053e-08
-6.9007114e-10
1.1938293e-08
-6.8260387e-10
1.2146282e-08
-6.7689219e-10
1.2365342e-08
-6.7954966e-10
1.2575579e-08
-6.8228642e-10
1.2785484e-08
-6.5848537e-10
1.3010834e-08
-7.0829037e-10
1.3211197e-08
-6.2829859e-10
1.3436803e-08
-6.9954024e-10
1.3643066e-08
-6.4813085e-10
1.3848491e-08
-6.599813e-10
1.4073539e-08
-6.4086588e-10
1.4276758e-08
-7.0526243e-10
1.4486164e-08
-5.6861583e-10
1.4706794e-08
-7.3328097e-10
1.4908273e-08
-5.8281137e-10
1.5130506e-08
-6.5768108e-10
1.5335404e-08
-6.5815268e-10
1.5536591e-08
-5.9568891e-10
1.5743943e-08
-6.2540535e-10
1.5943776e-08
-6.2082168e-10
1.6154008e-08
-6.1664682e-10
1.6354005e-08
-6.1142941e-10
1.6551999e-08
-5.6758775e-10
1.6773146e-08
-6.2899526e-10
1.6971203e-08
-6.1102241e-10
1.716511e-08
-5.5864852e-10
1.7365703e-08
-5.7188289e-10
1.7565304e-08
-5.5553945e-10
1.774378e-08
-6.0171637e-10
1.7960593e-08
-5.677252e-10
1.8174406e-08
-6.1208268e-10
1.8355401e-08
-5.0940036e-10
1.8567728e-08
-5.8059617e-10
1.8765907e-08
-5.6146526e-10
1.8949781e-08
-5.2078041e-10
1.912903e-08
-4.9959519e-10
1.9326241e-08
-5.3527318e-10
1.949652e-08
-4.8282231e-10
1.9677319e-08
-4.8661618e-10
1.9864777e-08
-5.2403476e-10
2.004447e-08
-4.5312927e-10
2.022646e-08
-5.2766908e-10
2.040836e-08
-4.6683778e-10
2.0598169e-08
-4.650493e-10
2.0768322e-08
-4.7970716e-10
2.0921448e-08
-3.6503931e-10
2.1099118e-08
-4.5108564e-10
2.1248734e-08
-4.5258142e-10
2.1403484e-08
-3.538173e-10
2.1590853e-08
-4.6198982e-10
2.1784485e-08
-5.0401436e-10
2.1949265e-08
-4.0799569e-10
-3.9202007e-10
7.959924e-09
-9.4509009e-10
8.1733041e-09
-8.4177226e-10
8.4108649e-09
-9.5934632e-10
8.6370175e-09
-8.7757247e-10
8.8730843e-09
-9.5508829e-10
9.1078846e-09
-8.9992341e-10
9.3499416e-09
-9.4922982e-10
9.5815322e-09
-9.0504693e-10
9.8360175e-09
-9.6535309e-10
1.006163e-08
-8.9817684e-10
1.0322181e-08
-9.6629871e-10
1.0556942e-08
-9.3391011e-10
1.0806987e-08
-9.1588514e-10
1.1060741e-08
-1.0010318e-09
1.1293091e-08
-8.4122839e-10
1.1569381e-08
-1.0742318e-09
1.1787317e-08
-8.0120779e-10
1.2079312e-08
-1.0963971e-09
1.2290146e-08
-8.0434228e-10
1.2580352e-08
-1.0472537e-09
1.2804522e-08
-8.7686497e-10
1.3076868e-08
-9.6241718e-10
1.3320216e-08
-9.2595159e-10
1.3574806e-08
-9.3148247e-10
1.383237e-08
-9.3711304e-10
1.4079846e-08
-9.2976235e-10
1.4337284e-08
-9.159232e-10
1.4599394e-08
-9.7040077e-10
1.4850408e-08
-8.7931285e-10
1.5113584e-08
-9.627161e-10
1.5368427e-08
-9.0297385e-10
1.5618705e-08
-9.1025965e-10
1.5892632e-08
-9.14792e-10
1.6137363e-08
-9.4999388e-10
1.6399535e-08
-8.3078756e-10
1.6658796e-08
-9.9254179e-10
1.6916796e-08
-8.4081208e-10
1.7179741e-08
-9.2062544e-10
1.7436459e-08
-9.1487104e-10
1.7685004e-08
-8.4423431e-10
1.7943776e-08
-8.8417722e-10
1.8199202e-08
-8.7624788e-10
1.8447375e-08
-8.6481944e-10
1.8693555e-08
-8.5760987e-10
1.8943869e-08
-8.1790143e-10
1.9197383e-08
-8.8250922e-10
1.9448005e-08
-8.6164426e-10
1.9698348e-08
-8.0899149e-10
1.9945562e-08
-8.1909735e-10
2.0216512e-08
-8.2648863e-10
2.0450982e-08
-8.3618672e-10
2.071555e-08
-8.3229275e-10
2.0962693e-08
-8.5922617e-10
2.1193196e-08
-7.3990351e-10
2.1457086e-08
-8.4448641e-10
2.1705235e-08
-8.0961342e-10
2.1965e-08
-7.8054593e-10
2.2198517e-08
-7.3311209e-10
2.2447243e-08
-7.8399921e-10
2.2670883e-08
-7.0646193e-10
2.2909597e-08
-7.2533007e-10
2.3147059e-08
-7.6149708e-10
2.3390039e-08
-6.9610951e-10
2.3611626e-08
-7.4925566e-10
2.3836099e-08
-6.9131132e-10
2.4081544e-08
-7.1049409e-10
2.4301105e-08
-6.992686e-10
2.4529664e-08
-5.9359793e-10
2.4769106e-08
-6.905275e-10
2.498419e-08
-6.6766555e-10
2.5203848e-08
-5.7347478e-10
2.5437629e-08
-6.9577109e-10
2.5658076e-08
-7.2446126e-10
2.5898411e-08
-6.4833073e-10
-6.1279941e-10
8.4047919e-09
-1.2131751e-09
8.6503037e-09
-1.0872841e-09
8.9138357e-09
-1.2228783e-09
9.1716727e-09
-1.1354094e-09
9.4332502e-09
-1.2166658e-09
9.7003951e-09
-1.1670683e-09
9.9707561e-09
-1.2195908e-09
1.0236604e-08
-1.1708945e-09
1.0520225e-08
-1.2489741e-09
1.0785605e-08
-1.1635573e-09
1.1072793e-08
-1.2534864e-09
1.1351107e-08
-1.2122239e-09
1.1633012e-08
-1.1977902e-09
1.1923282e-08
-1.2913025e-09
1.2197319e-08
-1.1152652e-09
1.2500693e-08
-1.3776057e-09
1.2768368e-08
-1.068883e-09
1.3079049e-08
-1.4070778e-09
1.3347941e-08
-1.073234e-09
1.3660022e-08
-1.3593346e-09
1.3932541e-08
-1.149384e-09
1.4250552e-08
-1.2804288e-09
1.4523306e-08
-1.1987054e-09
1.483629e-08
-1.2444663e-09
1.5123465e-08
-1.2242883e-09
1.5419445e-08
-1.2257419e-09
1.5716138e-08
-1.2126167e-09
1.6009481e-08
-1.2637433e-09
1.6326694e-08
-1.1965263e-09
1.6609987e-08
-1.2460089e-09
1.6931308e-08
-1.224295e-09
1.7225752e-08
-1.2047036e-09
1.7542188e-08
-1.2312276e-09
1.7842474e-08
-1.2502801e-09
1.8148951e-08
-1.1372642e-09
1.8447459e-08
-1.29105e-09
1.8767029e-08
-1.1603819e-09
1.9059804e-08
-1.2134006e-09
1.9375412e-08
-1.230479e-09
1.9669537e-08
-1.1383593e-09
1.9974929e-08
-1.1895695e-09
2.0293394e-08
-1.1947131e-09
2.0588239e-08
-1.1596638e-09
2.0882689e-08
-1.15206e-09
2.1206641e-08
-1.1418541e-09
2.1503559e-08
-1.1794266e-09
2.1810001e-08
-1.1680867e-09
2.2111204e-08
-1.1101943e-09
2.23933e-08
-1.1011936e-09
2.2716559e-08
-1.1497473e-09
2.30068e-08
-1.1264273e-09
2.3329886e-08
-1.1553788e-09
2.3646231e-08
-1.1755715e-09
2.3943211e-08
-1.0368835e-09
2.4236603e-08
-1.1378788e-09
2.4525547e-08
-1.0985567e-09
2.4852513e-08
-1.1075123e-09
2.5135657e-08
-1.0162559e-09
2.5458628e-08
-1.1069705e-09
2.5745954e-08
-9.9378743e-10
2.6046837e-08
-1.026213e-09
2.6333148e-08
-1.0478081e-09
2.6642217e-08
-1.0051791e-09
2.6923958e-08
-1.030996e-09
2.7221886e-08
-9.892401e-10
2.7502074e-08
-9.9068213e-10
2.7779977e-08
-9.771714e-10
2.8055923e-08
-8.6954378e-10
2.83297e-08
-9.6430443e-10
2.8604594e-08
-9.4255968e-10
2.8908987e-08
-8.7786768e-10
2.9213249e-08
-1.0000332e-09
2.9499035e-08
-1.0102467e-09
2.9785886e-08
-9.3518249e-10
-8.9973075e-10
8.7129382e-09
-1.4984052e-09
8.9952142e-09
-1.3695601e-09
9.2816735e-09
-1.5093376e-09
9.5705667e-09
-1.4243027e-09
9.8614836e-09
-1.5075826e-09
1.0155312e-08
-1.4608971e-09
1.0457633e-08
-1.5219119e-09
1.0754274e-08
-1.467535e-09
1.1064647e-08
-1.5593473e-09
1.1374372e-08
-1.4732817e-09
1.1679224e-08
-1.5583388e-09
1.2008708e-08
-1.5417075e-09
1.2310385e-08
-1.4994679e-09
1.2642156e-08
-1.6230737e-09
1.2953254e-08
-1.4263624e-09
1.3279755e-08
-1.7041076e-09
1.3605199e-08
-1.3943265e-09
1.3923305e-08
-1.7251837e-09
1.4264066e-08
-1.4139949e-09
1.458572e-08
-1.6809889e-09
1.4918549e-08
-1.482213e-09
1.5270972e-08
-1.6328519e-09
1.5575064e-08
-1.5027974e-09
1.5949548e-08
-1.6189497e-09
1.6254467e-08
-1.5292079e-09
1.6614745e-08
-1.5860199e-09
1.6949878e-08
-1.5477492e-09
1.727646e-08
-1.5903254e-09
1.7661515e-08
-1.5815819e-09
1.796439e-08
-1.5488837e-09
1.8348841e-08
-1.6087456e-09
1.8689081e-08
-1.5449435e-09
1.9041997e-08
-1.5841442e-09
1.9397165e-08
-1.6054479e-09
1.9750408e-08
-1.4905067e-09
2.0083535e-08
-1.6241777e-09
2.0467062e-08
-1.5439087e-09
2.0791271e-08
-1.5376096e-09
2.1161596e-08
-1.6008035e-09
2.1510763e-08
-1.4875272e-09
2.1863311e-08
-1.5421169e-09
2.2235499e-08
-1.5669015e-09
2.2582905e-08
-1.5070699e-09
2.2929422e-08
-1.498577e-09
2.3315666e-08
-1.5280977e-09
2.3665757e-08
-1.5295171e-09
2.4026584e-08
-1.5289137e-09
2.4408798e-08
-1.4924086e-09
2.4730554e-08
-1.4229494e-09
2.5094414e-08
-1.5136078e-09
2.5440982e-08
-1.4729955e-09
2.5790721e-08
-1.5051179e-09
2.6153484e-08
-1.538334e-09
2.6549806e-08
-1.433206e-09
2.6882547e-08
-1.4706193e-09
2.7243705e-08
-1.4597148e-09
2.7625314e-08
-1.489121e-09
2.7953694e-08
-1.3446359e-09
2.8308692e-08
-1.4619686e-09
2.8682227e-08
-1.3673222e-09
2.9041573e-08
-1.3855596e-09
2.9373436e-08
-1.3796714e-09
2.9740524e-08
-1.372267e-09
3.0081644e-08
-1.3721154e-09
3.0440935e-08
-1.3485314e-09
3.077857e-08
-1.3283175e-09
3.1123749e-08
-1.3223497e-09
3.1457427e-08
-1.2032223e-09
3.1757325e-08
-1.2642026e-09
3.2086612e-08
-1.2718462e-09
3.2442089e-08
-1.2333444e-09
3.2770244e-08
-1.3281885e-09
3.3116042e-08
-1.3560451e-09
3.351901e-08
-1.3381498e-09
-1.2592118e-09
8.9094408e-09
-1.7970659e-09
9.2277319e-09
-1.6878512e-09
9.5347467e-09
-1.8163524e-09
9.8556432e-09
-1.7451991e-09
1.0174998e-08
-1.8269376e-09
1.0496558e-08
-1.7824573e-09
1.0830581e-08
-1.8559347e-09
1.1155944e-08
-1.7928978e-09
1.14961e-08
-1.8995037e-09
1.1840218e-08
-1.8173994e-09
1.217005e-08
-1.8881714e-09
1.2538909e-08
-1.9105658e-09
1.2863659e-08
-1.8242182e-09
1.3232605e-08
-1.9920201e-09
1.3579881e-08
-1.7736381e-09
1.3930745e-08
-2.0549716e-09
1.4308215e-08
-1.7717965e-09
1.4646478e-08
-2.0634468e-09
1.5038418e-08
-1.805935e-09
1.5388928e-08
-2.0314987e-09
1.5767603e-08
-1.8608874e-09
1.6152134e-08
-2.0173832e-09
1.6505677e-08
-1.8563402e-09
1.691638e-08
-2.029653e-09
1.7263274e-08
-1.8761016e-09
1.7671289e-08
-1.9940352e-09
1.8048821e-08
-1.9252818e-09
1.8422004e-08
-1.9635081e-09
1.8856381e-08
-2.0159586e-09
1.9192631e-08
-1.8851337e-09
1.9630228e-08
-2.0463425e-09
2.0014689e-08
-1.9294052e-09
2.0403711e-08
-1.973166e-09
2.0804745e-08
-2.0064817e-09
2.1207395e-08
-1.8931567e-09
2.1580367e-08
-1.9971492e-09
2.20196e-08
-1.9831423e-09
2.2389653e-08
-1.9076621e-09
2.2808604e-08
-2.019755e-09
2.3211577e-08
-1.8904998e-09
2.3625956e-08
-1.9564959e-09
2.4024453e-08
-1.9653985e-09
2.4441958e-08
-1.9245754e-09
2.482692e-08
-1.8835387e-09
2.5266673e-08
-1.967851e-09
2.5657831e-08
-1.9206751e-09
2.6063073e-08
-1.9341556e-09
2.6506286e-08
-1.9356212e-09
2.6870803e-08
-1.7874663e-09
2.7290733e-08
-1.9335385e-09
2.7721463e-08
-1.903725e-09
2.8091269e-08
-1.8749245e-09
2.848607e-08
-1.9331352e-09
2.8935238e-08
-1.8823735e-09
2.9290874e-08
-1.8262552e-09
2.971837e-08
-1.8872111e-09
3.0192923e-08
-1.9636738e-09
3.057953e-08
-1.7312426e-09
3.0956629e-08
-1.8390682e-09
3.1352207e-08
-1.7629005e-09
3.1754816e-08
-1.7881684e-09
3.2148709e-08
-1.7735641e-09
3.2556213e-08
-1.7797712e-09
3.2957163e-08
-1.7730658e-09
3.3392596e-08
-1.7839636e-09
3.376682e-08
-1.7025418e-09
3.4212478e-08
-1.7680076e-09
3.4634172e-08
-1.6249165e-09
3.4938186e-08
-1.5682165e-09
3.5283106e-08
-1.616766e-09
3.568876e-08
-1.6389984e-09
3.604347e-08
-1.6828991e-09
3.6441069e-08
-1.7536436e-09
3.6954787e-08
-1.8518679e-09
-1.6905965e-09
9.0196702e-09
-2.1138278e-09
9.3672579e-09
-2.035439e-09
9.6944272e-09
-2.1435217e-09
1.0047935e-08
-2.0987066e-09
1.0387554e-08
-2.1665569e-09
1.0744898e-08
-2.1398015e-09
1.1098931e-08
-2.2099676e-09
1.1459195e-08
-2.1531621e-09
1.1823493e-08
-2.2638012e-09
1.2195686e-08
-2.1895927e-09
1.2558741e-08
-2.2512263e-09
1.2949434e-08
-2.3012585e-09
1.3312143e-08
-2.1869279e-09
1.370669e-08
-2.386567e-09
1.4093147e-08
-2.1600952e-09
1.4471613e-08
-2.4334367e-09
1.4892578e-08
-2.1927623e-09
1.5258318e-08
-2.4291866e-09
1.5690859e-08
-2.238476e-09
1.6078943e-08
-2.4195823e-09
1.6492517e-08
-2.2744616e-09
1.6914589e-08
-2.4394553e-09
1.7316759e-08
-2.2585095e-09
1.7755688e-08
-2.4685819e-09
1.8160512e-08
-2.2809263e-09
1.8597729e-08
-2.4312523e-09
1.9026861e-08
-2.3544133e-09
1.94373e-08
-2.3739468e-09
1.9916399e-08
-2.4950586e-09
2.0289965e-08
-2.2586991e-09
2.0771754e-08
-2.5281314e-09
2.1200952e-08
-2.358603e-09
2.1621171e-08
-2.3933854e-09
2.2080845e-08
-2.4661555e-09
2.2511704e-08
-2.3240157e-09
2.2955788e-08
-2.4412335e-09
2.3406289e-08
-2.4336437e-09
2.3834219e-08
-2.3355921e-09
2.4290726e-08
-2.4762621e-09
2.4743234e-08
-2.3430071e-09
2.5206589e-08
-2.4198512e-09
2.5616969e-08
-2.3757788e-09
2.6103695e-08
-2.4113011e-09
2.6511274e-08
-2.291118e-09
2.7003029e-08
-2.4596051e-09
2.7404433e-08
-2.3220797e-09
2.7861628e-08
-2.3913505e-09
2.8356935e-08
-2.4309277e-09
2.8742e-08
-2.1725314e-09
2.9181588e-08
-2.3731272e-09
2.9668774e-08
-2.3909107e-09
3.0035745e-08
-2.2418958e-09
3.0531131e-08
-2.4285204e-09
3.1032796e-08
-2.3840387e-09
3.1368008e-08
-2.1614667e-09
3.1865023e-08
-2.3842267e-09
3.2344158e-08
-2.442809e-09
3.2803061e-08
-2.190145e-09
3.327705e-08
-2.3130574e-09
3.3684316e-08
-2.1701663e-09
3.4066624e-08
-2.1704768e-09
3.4512776e-08
-2.2197161e-09
3.4996533e-08
-2.2635282e-09
3.5449409e-08
-2.2259418e-09
3.5972433e-08
-2.3069878e-09
3.6253658e-08
-1.9837669e-09
3.6815536e-08
-2.3298859e-09
3.7321964e-08
-2.1313443e-09
3.7564244e-08
-1.8104964e-09
3.7909441e-08
-1.9619626e-09
3.854951e-08
-2.2790675e-09
3.8896343e-08
-2.0297324e-09
3.9089308e-08
-1.9466086e-09
3.9172948e-08
-1.9355076e-09
-1.9216983e-09
9.0606191e-09
-2.4556089e-09
9.4288601e-09
-2.40368e-09
9.7791379e-09
-2.4937995e-09
1.015919e-08
-2.4787587e-09
1.0516732e-08
-2.5240986e-09
1.0908626e-08
-2.5316954e-09
1.1275012e-08
-2.5763542e-09
1.1672659e-08
-2.5508087e-09
1.2052564e-08
-2.6437066e-09
1.2455578e-08
-2.592606e-09
1.2850093e-08
-2.6457418e-09
1.3258474e-08
-2.7096397e-09
1.3667647e-08
-2.5961001e-09
1.4079258e-08
-2.7981786e-09
1.4508436e-08
-2.5892726e-09
1.491819e-08
-2.8431915e-09
1.5371913e-08
-2.6464849e-09
1.5773568e-08
-2.8308415e-09
1.6243116e-08
-2.7080243e-09
1.6661957e-08
-2.8384234e-09
1.7119852e-08
-2.7323568e-09
1.7572443e-08
-2.8920456e-09
1.801866e-08
-2.7047271e-09
1.849312e-08
-2.9430419e-09
1.8939788e-08
-2.7275946e-09
1.941147e-08
-2.9029335e-09
1.9882888e-08
-2.8258316e-09
2.0325319e-08
-2.8163781e-09
2.0840613e-08
-3.0103528e-09
2.1241294e-08
-2.6593801e-09
2.1777119e-08
-3.0639564e-09
2.2222148e-08
-2.8036313e-09
2.2681717e-08
-2.852955e-09
2.3181011e-08
-2.9654495e-09
2.3626285e-08
-2.7692889e-09
2.4132813e-08
-2.9477614e-09
2.4579805e-08
-2.8806365e-09
2.5050647e-08
-2.8064335e-09
2.5516803e-08
-2.9424187e-09
2.6028848e-08
-2.8550517e-09
2.6485138e-08
-2.8761408e-09
2.6942075e-08
-2.8327159e-09
2.7433597e-08
-2.9028239e-09
2.7879376e-08
-2.7368965e-09
2.8387706e-08
-2.9679351e-09
2.8757991e-08
-2.6923644e-09
2.9321866e-08
-2.9552259e-09
2.9847084e-08
-2.9561455e-09
3.0238242e-08
-2.5636892e-09
3.0704188e-08
-2.8390732e-09
3.1253748e-08
-2.940471e-09
3.1518373e-08
-2.5065204e-09
3.2089199e-08
-2.9993472e-09
3.2553294e-08
-2.8481337e-09
3.2651217e-08
-2.2593893e-09
3.3070331e-08
-2.8033406e-09
3.3288411e-08
-2.6608889e-09
3.3482456e-08
-2.3841901e-09
3.3915084e-08
-2.7456854e-09
3.410225e-08
-2.3573321e-09
3.4642145e-08
-2.7103718e-09
3.4919928e-08
-2.4974999e-09
3.524746e-08
-2.5910597e-09
3.5019461e-08
-1.997943e-09
3.5674484e-08
-2.9620107e-09
3.5529592e-08
-1.8388746e-09
3.5186648e-08
-1.986942e-09
3.5809096e-08
-2.753792e-09
3.5790095e-08
-1.7914955e-09
3.5828639e-08
-2.0005065e-09
3.6258543e-08
-2.7089724e-09
3.6317028e-08
-2.0882173e-09
3.6214928e-08
-1.8445086e-09
3.6659605e-08
-2.3801842e-09
-2.2028413e-09
9.0412484e-09
-2.825507e-09
9.4208268e-09
-2.7832583e-09
9.798358e-09
-2.8713307e-09
1.0193652e-08
-2.8740524e-09
1.0576216e-08
-2.906663e-09
1.0989339e-08
-2.9448179e-09
1.1376642e-08
-2.9636572e-09
1.1801639e-08
-2.9758059e-09
1.2201027e-08
-3.0430945e-09
1.263617e-08
-3.0277493e-09
1.3055707e-08
-3.065279e-09
1.3492707e-08
-3.1466393e-09
1.3938337e-08
-3.0417305e-09
1.437354e-08
-3.2333811e-09
1.4841988e-08
-3.0577213e-09
1.52819e-08
-3.2831031e-09
1.5764756e-08
-3.129341e-09
1.6208551e-08
-3.2746362e-09
1.6701166e-08
-3.2006396e-09
1.7159598e-08
-3.2968556e-09
1.7654538e-08
-3.227297e-09
1.8129007e-08
-3.3665144e-09
1.8621502e-08
-3.1972223e-09
1.9117141e-08
-3.4386807e-09
1.9596257e-08
-3.2067099e-09
2.009539e-08
-3.4020669e-09
2.0585219e-08
-3.315661e-09
2.1067956e-08
-3.2991149e-09
2.1578782e-08
-3.5211783e-09
2.2014088e-08
-3.0946866e-09
2.257666e-08
-3.6265287e-09
2.3012051e-08
-3.2390218e-09
2.3519541e-08
-3.3604448e-09
2.4005166e-08
-3.451075e-09
2.4481681e-08
-3.2458041e-09
2.4989402e-08
-3.4554823e-09
2.542327e-08
-3.314504e-09
2.5926621e-08
-3.3097847e-09
2.6413038e-08
-3.4288353e-09
2.6974263e-08
-3.4162769e-09
2.7392485e-08
-3.2943627e-09
2.7863589e-08
-3.3038202e-09
2.8108039e-08
-3.1472742e-09
2.8539509e-08
-3.1683663e-09
2.8660617e-08
-3.0890426e-09
2.8155091e-08
-2.1868385e-09
2.8395644e-08
-3.1957789e-09
2.9400656e-08
-3.9611581e-09
2.894026e-08
-2.1032931e-09
2.924448e-08
-3.1432928e-09
3.0272292e-08
-3.9682833e-09
2.9319964e-08
-1.5541925e-09
2.9744144e-08
-3.4235272e-09
2.9684633e-08
-2.7886221e-09
2.8676915e-08
-1.2516722e-09
2.8590602e-08
-2.7170277e-09
2.7923416e-08
-1.9937024e-09
2.7630407e-08
-2.0911815e-09
2.8571013e-08
-3.6862906e-09
2.8216659e-08
-2.0029785e-09
2.8436411e-08
-2.9301239e-09
2.6986374e-08
-1.0474627e-09
2.5656861e-08
-1.2615469e-09
2.5485341e-08
-1.8264228e-09
2.5116327e-08
-2.5929971e-09
2.518389e-08
-1.9064377e-09
2.3102931e-08
9.4017572e-11
2.1375696e-08
-1.0265578e-09
2.1646206e-08
-2.0620053e-09
2.0585826e-08
-9.4012602e-10
2.059356e-08
-2.7167069e-09
2.3738172e-08
-5.2328295e-09
2.6579876e-08
-4.6862125e-09
2.6907443e-08
-2.7077511e-09
-1.6605956e-09
8.9635483e-09
-3.2175498e-09
9.3517146e-09
-3.1714246e-09
9.7567202e-09
-3.2763363e-09
1.0162023e-08
-3.2793556e-09
1.0574434e-08
-3.3190735e-09
1.1000895e-08
-3.3712786e-09
1.1417151e-08
-3.3799139e-09
1.186163e-08
-3.4202849e-09
1.2288e-08
-3.4694647e-09
1.2752235e-08
-3.4919838e-09
1.3195976e-08
-3.5090196e-09
1.3667425e-08
-3.6180883e-09
1.4137736e-08
-3.5120415e-09
1.4606667e-08
-3.7023123e-09
1.5104144e-08
-3.5551989e-09
1.5570189e-08
-3.7491479e-09
1.6088606e-08
-3.6477577e-09
1.6555101e-08
-3.7411312e-09
1.7074517e-08
-3.7200558e-09
1.7563228e-08
-3.7855668e-09
1.8074765e-08
-3.7388332e-09
1.8572503e-08
-3.8642531e-09
1.9081404e-08
-3.706123e-09
1.9591183e-08
-3.9484601e-09
2.0075817e-08
-3.6913441e-09
2.0589465e-08
-3.9157149e-09
2.1066901e-08
-3.7930962e-09
2.159446e-08
-3.8266742e-09
2.2055684e-08
-3.9824028e-09
2.2506061e-08
-3.5450631e-09
2.3102308e-08
-4.2227753e-09
2.3494131e-08
-3.6308449e-09
2.4038569e-08
-3.9048836e-09
2.4477634e-08
-3.8901391e-09
2.4769389e-08
-3.5375599e-09
2.4921943e-08
-3.6080359e-09
2.466131e-08
-3.0538706e-09
2.4871596e-08
-3.5200711e-09
2.5263161e-08
-3.8204004e-09
2.5147965e-08
-3.3010804e-09
2.5093144e-08
-3.2395425e-09
2.4929254e-08
-3.1399297e-09
2.4257451e-08
-2.4754713e-09
2.3969556e-08