/*--------------------------------*- C++ -*----------------------------------*\
| =========                 |                                                 |
| \\      /  F ield         | OpenFOAM: The Open Source CFD Toolbox           |
|  \\    /   O peration     | Version:  2.3.0                                 |
|   \\  /    A nd           | Web:      www.OpenFOAM.org                      |
|    \\/     M anipulation  |                                                 |
\*---------------------------------------------------------------------------*/
FoamFile
{
    version     2.0;
    format      ascii;
    class       volVectorField;
    location    "1.3e-05";
    object      U;
}
// * * * * * * * * * * * * * * * * * * * * * * * * * * * * * * * * * * * * * //

dimensions      [0 1 -1 0 0 0 0];

internalField   nonuniform List<vector> 
7500
(
(460.07479 -0.013027049 1.6738648e-16)
(460.09423 0.061795918 3.7051996e-15)
(459.62151 -0.06440575 2.3646819e-15)
(460.49488 0.026672658 -1.0683491e-15)
(459.32772 -0.037819777 3.5113626e-15)
(460.88248 0.023821102 5.2880836e-15)
(458.82914 -0.012263558 2.7471361e-15)
(461.48706 0.0098512049 5.6057247e-15)
(458.09879 -0.003182998 3.9510115e-15)
(462.14309 -0.00033255137 1.5706224e-15)
(457.55014 0.036630151 8.9304186e-16)
(462.8001 -0.066969072 -8.7945709e-16)
(456.95143 0.048801055 1.6287357e-15)
(462.91931 -0.027976175 9.6861881e-16)
(457.37484 0.061480011 1.3087221e-15)
(462.06707 -0.11316404 1.1682877e-15)
(458.70161 0.11519082 1.0656064e-15)
(460.38822 -0.086896945 -1.8545606e-15)
(460.40258 0.026786894 1.7451309e-15)
(458.96884 0.034717808 7.2816488e-16)
(461.36764 -0.076158034 -1.8698995e-15)
(458.60512 0.075240332 9.3300302e-16)
(461.15509 -0.048914126 1.2096121e-15)
(459.22401 0.0029177776 -1.2653601e-15)
(460.3552 0.049318928 1.4553492e-15)
(459.90776 -0.057100867 4.9597472e-16)
(459.92105 0.043699147 1.5473707e-15)
(459.90161 -0.013674984 -1.5758184e-15)
(460.23496 -0.012584312 -1.7389555e-15)
(459.36289 0.041107832 3.2454674e-15)
(460.42359 -0.044124315 -1.0558903e-15)
(459.50077 -0.01530239 1.1079305e-15)
(459.86318 0.10864274 1.1322995e-15)
(460.18224 -0.15827186 -1.6463375e-15)
(459.4231 0.15555162 -1.0014418e-15)
(460.25601 -0.15001521 1.2173615e-15)
(459.89851 0.11084813 -1.6397233e-15)
(459.69799 0.0044431255 7.6059494e-16)
(460.20262 -0.1296254 7.4819812e-16)
(459.72255 0.12119969 1.1868961e-15)
(459.68034 -0.017897021 1.2662674e-15)
(460.21255 -0.073610523 7.5464631e-16)
(459.69998 0.088344259 2.740747e-15)
(459.77131 -0.059755894 2.7001835e-15)
(460.02162 0.020971218 8.2289619e-16)
(460.0396 0.055322479 -1.6491109e-15)
(459.62022 -0.13050955 -1.1371083e-15)
(459.93827 0.04494319 -1.1225362e-15)
(459.53171 0.06649012 1.474556e-16)
(459.88213 -0.0055639116 5.7675686e-16)
(460.35369 -0.065191742 7.0193384e-16)
(459.05104 0.10335161 2.4971651e-15)
(460.31983 -0.071905319 3.8128275e-16)
(459.92528 0.010802429 3.4134717e-16)
(459.79035 0.0083325108 6.7565513e-16)
(460.00875 -0.012733909 -8.1441692e-16)
(460.15302 -0.014133178 5.355202e-16)
(459.79926 0.038353034 2.7967788e-16)
(459.84684 -0.0051354287 3.8391731e-16)
(459.89395 -0.021967585 5.132605e-16)
(460.08654 -0.011718749 4.1640772e-16)
(459.60078 0.012988677 2.172124e-15)
(459.96455 -0.028469605 3.7967562e-16)
(460.0093 -0.028566545 -1.4560126e-15)
(459.70042 0.023319175 -1.5483551e-15)
(460.10167 0.058166812 6.8394196e-16)
(459.98387 -0.08937397 1.9816021e-16)
(459.55425 0.08818455 6.1846817e-16)
(459.89668 -0.027448034 9.131266e-17)
(459.44013 -0.063108392 -1.5578218e-15)
(459.34988 0.11856296 -1.0134983e-15)
(460.07623 -0.04448 3.9657176e-16)
(459.56923 -0.069351298 1.8040301e-15)
(460.12243 -0.026890305 4.4725315e-16)
(460.25396 0.0006375767 2.0183475e-15)
(460.05477 -0.035589077 -4.8764682e-17)
(460.15502 0.089863313 3.5656618e-17)
(459.52596 -0.083697113 8.6425062e-17)
(460.61159 0.065852215 8.4185705e-17)
(459.17171 -0.06601085 -1.0042373e-16)
(461.07225 0.039134733 2.5339971e-16)
(458.59324 -0.00345883 -1.1795995e-18)
(461.76497 -0.014416806 2.7997937e-16)
(457.76324 0.017458646 2.204516e-17)
(462.5261 -0.021314807 4.4862116e-16)
(457.10751 0.016397915 -4.4365628e-18)
(463.26957 -0.036135982 3.3533804e-16)
(456.48233 0.084809325 5.7308585e-18)
(463.36974 -0.16216309 -6.7271337e-16)
(456.97837 0.21839015 1.7174339e-16)
(462.39732 -0.20099641 -5.6747129e-16)
(458.47521 0.14521635 1.3016744e-16)
(460.53031 -0.07947352 1.6704226e-16)
(460.35503 0.022737585 2.3357569e-16)
(458.97627 0.021744595 2.1113048e-16)
(461.38936 -0.054300487 3.9975891e-17)
(458.59539 0.041761778 2.4228532e-16)
(461.15467 -0.0030140979 1.5228203e-16)
(459.1947 -0.046654559 8.9779112e-16)
(460.3839 0.061823823 5.78441e-17)
(459.82461 -0.037800881 4.584605e-16)
(459.98426 0.016447619 -8.8101307e-16)
(459.8512 -0.00077366548 -6.0378298e-16)
(460.25453 0.023878263 1.6124651e-15)
(459.39524 -0.0093301983 4.3767726e-16)
(460.37822 0.031642053 1.2962361e-16)
(459.57442 -0.12443141 2.3448309e-16)
(459.81613 0.23892915 -3.1715098e-17)
(460.18207 -0.30973898 4.2323063e-16)
(459.45123 0.31146146 -4.5746354e-17)
(460.19716 -0.24978512 2.6371542e-16)
(459.90754 0.11135627 -4.4392624e-16)
(459.70911 0.08006444 -3.7197743e-16)
(460.12381 -0.16319009 -3.115737e-16)
(459.79442 0.090144695 2.5882196e-16)
(459.65114 0.034085189 -4.3043525e-17)
(460.19003 -0.058565113 -3.867342e-16)
(459.74537 0.03856335 2.0004031e-16)
(459.78099 -0.041729804 1.7539505e-16)
(459.98489 0.039077755 3.8678673e-16)
(460.08674 0.039495943 -6.5777333e-16)
(459.61822 -0.12934328 2.7041751e-16)
(459.92034 0.039953794 -3.8489268e-16)
(459.57466 0.053052647 2.7695916e-16)
(459.87199 0.09415904 1.4123591e-16)
(460.30986 -0.20558846 9.5951119e-18)
(459.09813 0.16130606 -1.7196263e-16)
(460.29975 -0.11044441 -8.8535255e-17)
(459.91472 0.046739519 -4.9582733e-16)
(459.79505 0.036092476 2.4485952e-16)
(460.02497 -0.056869267 4.0705402e-16)
(460.12039 -0.045720488 3.9911143e-16)
(459.83281 0.098025377 3.0936268e-16)
(459.83945 -0.048924013 3.5202999e-16)
(459.85785 0.015864529 -3.9379369e-16)
(460.09499 -0.001924151 2.8551e-16)
(459.63234 -0.029763694 8.4276327e-17)
(459.93511 0.052066608 -3.0554354e-17)
(460.00661 -0.081174569 3.3732782e-16)
(459.73133 -0.01845759 -5.0525319e-16)
(460.1075 0.15488098 -7.3481489e-17)
(459.97328 -0.15631745 -5.0996074e-16)
(459.55669 0.095349033 4.9895715e-17)
(459.87894 0.054070895 5.992214e-18)
(459.46005 -0.15125961 3.6252887e-17)
(459.34013 0.2114274 8.2233606e-16)
(460.04793 -0.0097162443 -6.9266913e-16)
(459.57107 -0.11757059 6.2407598e-18)
(460.14164 -0.037796898 2.1710859e-16)
(460.25648 -0.0063515457 2.372714e-16)
(460.03392 -0.047378488 -1.192748e-16)
(460.24239 0.14926955 -5.9370672e-16)
(459.39989 -0.15608109 -6.711699e-17)
(460.76203 0.1149942 4.153534e-17)
(458.95581 -0.12116004 -8.9307253e-17)
(461.32044 0.078431135 1.0787617e-15)
(458.28712 -0.037177075 -3.3544602e-16)
(462.10636 0.020969919 1.5400412e-16)
(457.36964 0.012911745 -3.3798919e-16)
(462.94558 -0.039096315 3.4231226e-16)
(456.62605 0.06851488 -1.8995013e-16)
(463.79168 -0.10961523 -5.9232952e-16)
(455.9363 0.16460661 -6.9737486e-16)
(463.9083 -0.23521259 7.741804e-16)
(456.48512 0.26569763 5.7056532e-16)
(462.82961 -0.27269444 -2.9473367e-16)
(458.11794 0.25097629 5.3081913e-16)
(460.81522 -0.18997138 3.1661565e-16)
(460.16971 0.092116318 -3.378184e-16)
(459.10252 0.01281962 7.5558108e-17)
(461.33958 -0.08347593 -9.1939286e-17)
(458.60421 0.077972035 6.5113204e-16)
(461.1705 -0.021746464 7.0869786e-16)
(459.06829 -0.037679146 -4.4023984e-18)
(460.47793 0.053267452 3.7077745e-17)
(459.65035 -0.027430307 -7.1842461e-18)
(460.07105 0.017366154 -4.5704202e-16)
(459.79972 -0.024536205 -1.0121056e-16)
(460.2663 0.072865252 -6.2022903e-16)
(459.4457 -0.05926449 4.4779007e-16)
(460.33096 0.083015767 9.6245811e-17)
(459.63836 -0.19189905 1.1685829e-16)
(459.76197 0.33379053 -3.5797813e-16)
(460.16444 -0.43084429 1.4493362e-16)
(459.46653 0.43837944 1.3605553e-16)
(460.14089 -0.36553439 -5.3553783e-17)
(459.90429 0.17154099 -3.670026e-16)
(459.75404 0.11740525 -3.4439616e-16)
(460.05382 -0.26214966 2.7553901e-16)
(459.88563 0.16317492 -1.7065434e-17)
(459.64414 0.01225803 1.8325805e-16)
(460.19797 -0.1020881 8.770238e-17)
(459.74586 0.0954121 -1.6270613e-16)
(459.82281 -0.07557386 5.3102498e-17)
(459.96221 0.0619713 2.7344736e-16)
(460.08733 0.09252777 3.3684119e-17)
(459.65398 -0.22306419 5.6540691e-16)
(459.90549 0.070626977 4.4665404e-16)
(459.59776 0.053984653 -3.1600183e-16)
(459.87286 0.14518091 -1.6569222e-17)
(460.25923 -0.3092118 4.6741999e-16)
(459.13853 0.20440879 7.4924566e-16)
(460.28698 -0.13906023 -6.2788153e-17)
(459.94568 0.039972908 -1.0407999e-16)
(459.76184 0.045455524 -2.630074e-17)
(460.06342 -0.040362931 4.7900852e-16)
(460.11547 -0.087812613 -7.1353005e-16)
(459.85997 0.11779383 2.6169404e-17)
(459.82686 -0.026095552 1.0309884e-16)
(459.8305 -0.014118186 -4.0416292e-16)
(460.06891 0.056557717 -5.0893569e-16)
(459.66049 -0.056618603 -4.2473638e-16)
(459.91939 0.10869543 -2.7274219e-17)
(459.98317 -0.13760644 1.8269861e-16)
(459.78229 -0.031048882 -2.9364002e-16)
(460.09137 0.17407306 -7.2680464e-16)
(459.96086 -0.16486044 -7.5451037e-17)
(459.58834 0.18748971 -6.4748151e-17)
(459.81728 0.078680026 1.0426115e-16)
(459.46493 -0.24343507 2.4886255e-18)
(459.36403 0.28667509 1.0216275e-16)
(459.99979 -0.016367726 1.0035283e-16)
(459.56419 -0.21458181 1.1021414e-16)
(460.17074 -0.016254695 4.7476512e-16)
(460.26829 0.0046935923 3.9063733e-16)
(460.00096 -0.086362666 -1.1895383e-16)
(460.38873 0.24757703 1.2957766e-16)
(459.23304 -0.23468236 -7.855915e-16)
(460.93764 0.17013737 -3.7472255e-16)
(458.69587 -0.16071727 -1.446914e-16)
(461.58134 0.099225075 -3.0042978e-16)
(457.96069 -0.043005877 -1.5640567e-16)
(462.45638 0.018939487 2.0898699e-16)
(456.98365 -0.010385862 4.936934e-17)
(463.33781 -0.0025960625 -3.1878514e-16)
(456.1855 0.032026767 -7.3997668e-16)
(464.24691 -0.097734633 6.0550825e-16)
(455.48166 0.1708116 3.3856769e-16)
(464.36094 -0.26626206 6.8356654e-16)
(456.01488 0.3714105 2.2401516e-16)
(463.25818 -0.43191705 2.6971724e-16)
(457.72071 0.40342622 -2.6870957e-16)
(461.15153 -0.29611436 4.1875262e-16)
(459.97512 0.16283633 -5.7530157e-16)
(459.25148 -0.024510914 9.3733679e-17)
(461.30546 -0.059193143 -8.1052748e-17)
(458.59967 0.056915597 4.2160173e-16)
(461.21324 0.0023189753 -6.3895721e-17)
(458.90446 -0.071454549 7.8081529e-17)
(460.58459 0.093854011 4.3748162e-16)
(459.45227 -0.075493452 1.3198918e-16)
(460.15231 0.059056953 -4.2642378e-16)
(459.70673 -0.069422185 1.6660607e-16)
(460.31754 0.097276985 3.7501359e-16)
(459.43157 -0.057146482 -3.3979661e-16)
(460.32559 0.060908592 2.298917e-16)
(459.67239 -0.16581351 2.1673026e-17)
(459.69456 0.37292347 3.2742082e-17)
(460.16087 -0.53609731 5.1128002e-16)
(459.45523 0.5592811 -4.3306836e-17)
(460.13765 -0.44388389 6.6170727e-17)
(459.93965 0.18173218 6.6837829e-17)
(459.77819 0.13135673 -3.806512e-16)
(460.09444 -0.27507295 3.0724002e-16)
(460.01425 0.11942379 -8.2561293e-17)
(459.6003 0.089307287 -3.8395826e-17)
(460.28287 -0.15783133 -4.3794473e-17)
(459.71042 0.075213006 -7.0192883e-17)
(459.81593 -0.054130107 1.8333294e-17)
(459.99277 0.096758412 -7.2663199e-17)
(459.99587 0.066057227 -7.1038645e-18)
(459.68974 -0.19884491 -1.2574809e-17)
(459.90381 0.027590587 4.8929296e-17)
(459.55744 0.085949353 1.1689354e-17)
(459.84518 0.16887533 3.5643562e-16)
(460.22107 -0.38430947 8.4147479e-18)
(459.14458 0.21989765 -5.4799308e-18)
(460.26766 -0.16182753 3.0266063e-16)
(460.01123 0.046328576 -6.3595105e-17)
(459.75324 0.01048938 -1.5227811e-17)
(460.13852 -0.034779788 8.7126055e-18)
(460.12308 -0.055362269 -2.9212632e-16)
(459.89998 0.048268111 2.4187029e-17)
(459.81973 0.051405225 3.0683944e-16)
(459.80136 -0.038498118 2.9972018e-17)
(460.01558 0.053272122 -2.8804443e-17)
(459.66001 -0.076002598 5.1374853e-17)
(459.90328 0.188375 -2.6622135e-16)
(459.93135 -0.21933618 -2.9218649e-16)
(459.80939 0.031206401 3.5204795e-16)
(460.06421 0.11172174 3.7682527e-17)
(459.9721 -0.19376107 2.583229e-16)
(459.5978 0.27803653 8.5864692e-18)
(459.71519 0.085335249 -2.8074476e-16)
(459.47348 -0.26330958 -2.2254848e-16)
(459.38399 0.34160305 2.6019565e-16)
(459.92374 -0.082751103 -6.7624034e-18)
(459.57461 -0.33941638 3.0741706e-17)
(460.21625 6.9342205e-05 4.0904738e-17)
(460.29547 0.026592448 -2.5049462e-16)
(459.96926 -0.11498629 -9.4562906e-17)
(460.66289 0.305592 7.2499905e-17)
(459.00706 -0.26480014 2.0160541e-16)
(461.13079 0.20061878 1.4190843e-17)
(458.40078 -0.21341508 -1.0217706e-16)
(461.76539 0.14071495 -5.5660803e-18)
(457.67688 -0.067741852 -7.8426129e-17)
(462.73625 0.054203286 -4.4953523e-16)
(456.61705 -0.063448348 -3.4196294e-17)
(463.76992 0.075945472 1.4976182e-16)
(455.61321 -0.034875354 -5.1157408e-16)
(464.85882 -0.071270271 1.2262111e-17)
(454.82479 0.19443632 -5.6640555e-17)
(464.97702 -0.35167389 7.3462101e-18)
(455.37118 0.49015463 -1.1560304e-18)
(463.76291 -0.54474747 9.7917538e-17)
(457.24017 0.48181699 1.3417508e-16)
(461.5756 -0.40149043 2.2207634e-16)
(459.74394 0.30340019 -1.3280749e-16)
(459.46807 -0.17256999 4.1672866e-16)
(461.32343 0.066351559 2.110396e-16)
(458.55012 0.00049385734 6.731553e-17)
(461.40847 0.025878157 -1.719808e-18)
(458.66212 -0.046551599 -3.3930867e-17)
(460.78213 0.060211069 -2.1628423e-17)
(459.21957 -0.038003691 3.0863836e-16)
(460.24975 0.032860911 2.2463454e-17)
(459.53438 -0.095241361 6.157071e-17)
(460.41658 0.14377871 -9.3588518e-17)
(459.36966 -0.096331548 -1.9611507e-16)
(460.36835 0.068125308 2.8553936e-16)
(459.70811 -0.11794061 1.6874075e-16)
(459.65337 0.29177747 3.0523772e-16)
(460.19349 -0.47076883 -3.1153866e-16)
(459.42566 0.55101127 -1.7990639e-16)
(460.159 -0.52162663 -2.8064142e-16)
(459.99666 0.32722752 -2.5690031e-16)
(459.79258 -0.030057823 -9.0296725e-17)
(460.15016 -0.2028086 6.9536958e-17)
(460.17395 0.15754957 -4.59585e-17)
(459.54868 0.02703032 4.0774383e-17)
(460.34198 -0.062963198 2.4660238e-16)
(459.65292 0.029698942 -7.368389e-17)
(459.8071 -0.09745287 3.5456246e-16)
(459.98843 0.17134727 -2.8835217e-16)
(459.84664 -0.0016260723 -6.5384733e-17)
(459.71209 -0.18611154 3.0040351e-16)
(459.83714 0.072193229 2.3031022e-16)
(459.45336 0.088484089 2.7579898e-16)
(459.76259 0.18163231 -2.2298906e-16)
(460.15353 -0.38874124 2.1919843e-16)
(459.10184 0.18009243 2.2355194e-16)
(460.26509 -0.2003117 -8.7800063e-18)
(460.09618 0.10588124 2.0227059e-16)
(459.73551 -0.04420952 1.3859131e-17)
(460.26817 -0.1044344 -2.3157164e-16)
(460.17176 0.014701105 -1.9027933e-16)
(459.92132 0.041824075 3.2003711e-16)
(459.8293 -0.0030226778 1.8881582e-17)
(459.76414 0.053128042 2.0127569e-16)
(459.93657 0.053139741 2.9280989e-17)
(459.61416 -0.13222691 7.8963432e-17)
(459.84314 0.24183738 2.9878166e-16)
(459.86929 -0.28679975 -1.717603e-17)
(459.79692 0.093779265 1.6217231e-16)
(459.98941 0.11026206 -2.7544838e-16)
(460.00988 -0.23184973 3.1826505e-17)
(459.63396 0.34587778 -3.99281e-17)
(459.61062 0.06131738 -2.4724885e-16)
(459.48229 -0.25903835 3.7543152e-17)
(459.40255 0.39082978 3.5218819e-17)
(459.82463 -0.071736937 2.4641927e-16)
(459.59347 -0.40468533 -1.6684052e-16)
(460.28901 -0.0479259 2.5255485e-17)
(460.34933 0.014787166 1.9567123e-17)
(460.02035 -0.16165945 -7.2616324e-17)
(461.01109 0.37497451 -2.4006844e-16)
(458.80057 -0.28642512 2.256193e-19)
(461.27404 0.23965307 1.6720452e-17)
(458.22603 -0.25541682 -1.5330951e-16)
(461.6422 0.18214528 3.3554685e-16)
(457.68698 -0.14234026 -1.6440329e-16)
(462.60552 0.13974105 -1.6411874e-16)
(456.52633 -0.16000746 -4.5874466e-17)
(463.93801 0.13927503 5.5658662e-16)
(455.09212 -0.074900543 -4.2793787e-16)
(465.41645 -0.05233431 4.1480136e-16)
(454.04977 0.17838685 -2.1202048e-16)
(465.66127 -0.31899157 -2.208995e-16)
(454.6416 0.47689692 -8.795237e-17)
(464.3023 -0.58417284 1.255663e-16)
(456.74062 0.61347187 -1.2757003e-16)
(461.9995 -0.64479623 1.6361166e-16)
(459.48704 0.54102195 -1.7501649e-16)
(459.70368 -0.34411412 2.6147382e-16)
(461.35431 0.1249487 1.864597e-16)
(458.41193 0.046180943 2.9254061e-17)
(461.79616 -0.042379754 2.7434691e-17)
(458.23292 0.034304655 -1.0321038e-17)
(461.22553 0.028723482 3.5792115e-17)
(458.8403 -0.064095779 8.6481594e-17)
(460.50079 0.11702759 3.7629603e-16)
(459.24969 -0.22162946 -2.8207739e-17)
(460.60134 0.23077461 -2.8414897e-16)
(459.19305 -0.14244306 3.7932492e-17)
(460.47783 0.048360862 5.6380051e-17)
(459.66982 -0.018979065 -1.4202531e-16)
(459.60224 0.17235345 1.029184e-17)
(460.26583 -0.39923465 4.4509482e-18)
(459.29324 0.56442052 3.0718226e-16)
(460.19317 -0.58581713 1.0998925e-16)
(460.00463 0.37401437 1.5278359e-17)
(459.7646 -0.043333823 3.9675507e-17)
(460.18179 -0.23993812 2.9292886e-16)
(460.29334 0.23240282 -2.5192309e-16)
(459.47878 -0.037124187 -1.6610019e-16)
(460.438 0.0068701666 4.7542905e-19)
(459.52041 -0.0013385303 4.2938261e-17)
(459.8236 -0.061063467 3.3093165e-16)
(459.99179 0.1935577 4.7879551e-17)
(459.59864 -0.075881706 2.2969431e-16)
(459.71613 -0.15215097 8.0290696e-17)
(459.79309 0.12172499 3.0512496e-17)
(459.26098 0.06549922 1.0106299e-16)
(459.65622 0.15317785 7.9762019e-17)
(460.12267 -0.27855754 1.9110498e-16)
(459.0102 0.047533508 6.1322617e-17)
(460.22295 -0.22923504 -1.3284745e-16)
(460.23879 0.18619211 6.0296858e-17)
(459.67217 -0.12949688 2.740808e-16)
(460.33951 -0.13230208 -9.2898797e-17)
(460.26377 0.018735246 2.9090062e-17)
(459.93557 0.11593082 2.0153911e-16)
(459.81008 -0.08728392 3.2521986e-17)
(459.74817 0.1192643 -1.1198179e-16)
(459.88298 0.074932374 -1.054452e-16)
(459.52048 -0.14197939 4.269469e-17)
(459.74934 0.24222009 2.2095303e-16)
(459.81927 -0.28273648 2.5735818e-17)
(459.81315 0.027247685 -3.1034534e-16)
(459.9044 0.12493947 1.8810509e-16)
(460.0436 -0.17437777 -1.2023957e-16)
(459.72271 0.36947257 5.2177775e-17)
(459.54338 -0.00086492642 1.6057588e-16)
(459.51426 -0.19543736 1.7966837e-17)
(459.44999 0.316765 2.1068063e-17)
(459.74904 -0.092406745 4.8346279e-17)
(459.58188 -0.3625902 3.5682645e-17)
(460.33508 -0.046448847 -1.1487036e-16)
(460.38748 -0.00087865116 5.375166e-17)
(460.09842 -0.22367628 -6.2883902e-17)
(461.28167 0.44767854 -1.8044989e-16)
(458.74929 -0.31389298 -7.5446607e-17)
(461.31137 0.28286252 2.3590887e-16)
(458.2985 -0.26215521 1.8917197e-17)
(461.16736 0.19302501 3.119374e-17)
(458.04936 -0.17906666 -2.4338298e-17)
(461.87133 0.18220172 6.7853244e-17)
(456.97716 -0.19447631 -2.5211203e-16)
(463.28292 0.1827533 2.970087e-16)
(455.40607 -0.14920652 -1.1888328e-16)
(464.89443 0.039583654 1.8112959e-16)
(454.32387 0.082840856 1.8495985e-16)
(465.30936 -0.28498222 -1.8044099e-16)
(454.90334 0.52405258 -7.0859074e-17)
(464.06898 -0.72394662 1.0987069e-16)
(456.9425 0.77486646 -3.710555e-17)
(461.80492 -0.8277429 9.9295402e-17)
(459.52232 0.6843006 -3.8665121e-16)
(459.65855 -0.48253853 1.6023474e-16)
(461.27814 0.26196703 -1.0705096e-16)
(458.30711 -0.076111197 1.0328918e-16)
(462.09331 0.070870693 1.2449974e-16)
(457.73953 -0.027504686 -5.8368878e-17)
(461.95996 0.072990446 -1.301108e-16)
(458.06674 -0.076847435 3.3202163e-16)
(461.27259 0.13709475 7.0179948e-17)
(458.41727 -0.26097659 -2.2792503e-16)
(461.13195 0.27609931 -2.0815048e-16)
(458.59717 -0.22518386 -1.1031863e-16)
(460.63585 0.083861717 2.4665148e-16)
(459.55289 0.032572186 5.4191427e-18)
(459.44926 0.053386162 9.0399486e-17)
(460.4432 -0.25515209 6.269618e-17)
(459.15521 0.41860356 2.600034e-17)
(460.24035 -0.48432764 -1.9772174e-16)
(460.03479 0.317269 2.6295992e-16)
(459.75176 -0.11367222 2.735968e-16)
(460.08187 -0.1413903 2.9371467e-17)
(460.4922 0.18856435 6.8816897e-17)
(459.22912 -0.050888444 7.2907597e-17)
(460.58448 0.046734941 -1.7446722e-16)
(459.44522 0.0062903307 2.4125242e-16)
(459.7176 -0.066708635 2.5546245e-16)
(460.04196 0.27824454 4.9253213e-17)
(459.4568 -0.19222663 2.4573185e-16)
(459.57788 -0.081672544 -2.0683626e-18)
(459.90153 0.16500649 2.080769e-16)
(459.22528 0.050735247 2.1031093e-16)
(459.46776 0.028613966 -1.4823586e-16)
(460.18231 -0.094297199 8.5480639e-17)
(459.03961 -0.085800866 6.6405472e-17)
(459.95036 -0.28483024 4.2495605e-17)
(460.34968 0.29844516 1.5862974e-16)
(459.5673 -0.18789064 -1.5137666e-16)
(460.18102 -0.1832842 -1.4416823e-16)
(460.20434 0.039040682 3.6586607e-17)
(459.99626 0.14876013 -3.681462e-17)
(459.73853 -0.12737123 -3.5622e-18)
(459.668 0.14245623 -1.3684392e-16)
(459.89826 0.087973794 6.4126764e-17)
(459.46818 -0.14934784 5.3636458e-17)
(459.62801 0.18883055 -1.2730385e-16)
(459.72979 -0.14156594 3.2910852e-19)
(459.83706 0.002038295 3.3699119e-17)
(459.8204 -0.024325452 1.7254874e-16)
(459.97505 -0.034983055 -1.5801658e-16)
(459.77063 0.36758843 1.4863613e-16)
(459.45392 -0.09424783 -1.4277494e-16)
(459.44798 -0.047403006 -1.1422585e-16)
(459.36987 0.28356894 4.9571513e-17)
(459.5729 -0.26774892 1.1242893e-17)
(459.37871 -0.39041047 -1.3177389e-16)
(460.12203 -0.014817001 2.3251752e-17)
(460.18223 0.016656601 1.5992998e-16)
(460.00055 -0.29629756 -3.0903924e-17)
(461.19402 0.50912712 -1.5759084e-16)
(459.0588 -0.30955852 2.1058797e-16)
(460.97372 0.30268939 3.8350141e-17)
(458.7643 -0.22400661 -1.1704765e-16)
(460.50889 0.171978 4.6037501e-17)
(458.55852 -0.16206357 6.0595174e-17)
(460.96523 0.17442705 6.2409406e-17)
(457.74636 -0.24128829 2.166862e-16)
(461.92049 0.28701152 7.2261839e-17)
(456.97732 -0.29065276 1.8581235e-16)
(462.64776 0.13723732 7.2295346e-17)
(456.90063 0.044867616 -4.0311247e-17)
(462.55485 -0.3235739 2.0545667e-18)
(457.75173 0.57633008 3.7499173e-18)
(461.53891 -0.77990304 1.0784805e-16)
(459.12628 0.82360843 1.0968917e-18)
(460.11975 -0.90253402 1.0407232e-16)
(460.29017 0.82218249 -2.8576791e-16)
(459.41352 -0.67765292 1.3418514e-16)
(460.80417 0.46132249 3.1766541e-17)
(458.78725 -0.22756852 3.0683528e-16)
(461.83116 0.12350173 -2.0204829e-17)
(457.55852 0.0068200167 -1.7859961e-16)
(462.73358 -0.0015529956 -1.5200144e-16)
(456.86181 0.018580726 1.3778379e-17)
(462.75198 0.11042218 9.9830829e-17)
(456.723 -0.25752944 1.8567773e-16)
(462.44697 0.27756756 2.2798932e-16)
(457.45956 -0.19861764 -1.1718543e-16)
(461.09313 -0.0024184393 -8.7319644e-18)
(459.49464 0.15055423 1.2567112e-17)
(459.36158 -0.13762538 8.4756139e-17)
(460.67059 -0.094242331 -1.8962182e-16)
(459.27949 0.30785468 5.8171619e-18)
(460.21647 -0.45149917 -2.1898278e-16)
(459.99491 0.33014182 2.9897618e-18)
(459.9558 -0.18718783 -1.2218546e-16)
(459.50793 -0.10557064 6.6431708e-17)
(460.83287 0.22651763 3.2609269e-16)
(458.7935 -0.072567021 -3.2821638e-18)
(460.47439 0.0084434571 5.5132956e-17)
(459.46601 0.083867795 5.4099688e-17)
(459.56773 -0.006422537 2.0112959e-16)
(459.91419 0.17001907 -1.2362705e-16)
(459.62012 -0.13905664 6.3862864e-17)
(459.38283 -0.10768589 -1.7605327e-16)
(460.05319 0.20855131 3.6350658e-17)
(459.37164 0.10672264 1.0884719e-17)
(459.25422 -0.059497964 6.0044739e-17)
(460.14388 -0.058604605 1.9808407e-17)
(459.12263 -0.096260761 -1.3023359e-16)
(459.3572 -0.30382065 5.3880876e-17)
(460.3205 0.26058557 2.8868433e-17)
(459.20806 -0.14869706 7.6463008e-18)
(459.68783 -0.11225114 5.3597988e-17)
(459.89454 -0.092758277 -1.3625815e-16)
(459.86153 0.19443001 -9.8202483e-17)
(459.4632 -0.13831085 1.3901628e-16)
(459.42829 0.18594485 -5.9951312e-18)
(459.73604 0.025045583 1.4322313e-16)
(459.20338 -0.10162806 -1.1664131e-16)
(459.21279 0.04837046 -1.3987087e-17)
(459.44549 -0.073882634 3.5531331e-17)
(459.38644 0.1233165 -1.0612333e-16)
(459.30453 -0.096922833 -1.3667565e-16)
(459.46004 0.041400067 4.5948716e-17)
(459.39891 0.42782977 -1.3027471e-16)
(458.85999 -0.17052503 -1.3057547e-16)
(458.81075 -0.0012864422 -1.1699127e-16)
(458.68058 0.30918013 7.9940741e-18)
(458.71605 -0.34171568 1.3412357e-16)
(458.38768 -0.46374812 -3.1657628e-17)
(459.10661 -0.10391624 -1.50752e-17)
(459.19108 0.0022163154 1.3242954e-16)
(459.67666 -0.3287619 -2.1920163e-17)
(460.58929 0.51251166 1.1703411e-16)
(459.75867 -0.27165693 -7.78132e-17)
(460.02442 0.27450488 1.1695707e-16)
(459.70702 -0.15385632 8.551393e-17)
(459.7738 0.13432262 -1.0219607e-16)
(459.15528 -0.11024294 9.0102117e-17)
(460.45746 0.16362312 8.8970461e-18)
(458.3756 -0.26633995 1.4560935e-16)
(460.96904 0.29270853 1.3713974e-16)
(458.66953 -0.24156373 -3.5778725e-17)
(460.35159 -0.012882694 -6.238665e-18)
(460.14485 0.18471638 2.1486843e-16)
(458.99208 -0.42054303 1.4202662e-16)
(461.66052 0.59162502 4.065074e-17)
(457.92575 -0.76685724 6.1624814e-17)
(462.21448 0.82332613 -2.8401768e-18)
(457.84133 -0.91230025 -1.0622163e-16)
(461.53436 0.84884706 2.5998273e-16)
(459.07325 -0.68772182 5.3286447e-18)
(460.38473 0.45171798 2.7166154e-17)
(459.61921 -0.24779282 2.9501223e-17)
(461.04173 0.20076952 -1.4804685e-17)
(458.05633 -0.097342555 1.3620512e-17)
(462.91522 0.11898999 2.5911317e-16)
(456.11041 -0.044522734 -4.7092828e-17)
(464.136 0.15938411 -1.839442e-16)
(455.31382 -0.20258971 2.1108009e-16)
(463.92691 0.16004781 2.0393695e-18)
(456.56708 -0.064917593 -2.2395535e-16)
(461.94388 -0.11154936 1.7659641e-17)
(459.1198 0.16109876 3.1498955e-17)
(459.92793 -0.10987202 2.4929323e-16)
(460.28116 -0.1773669 -3.2867467e-17)
(459.68181 0.37506451 -1.7245058e-16)
(459.97843 -0.39536614 -2.1157331e-16)
(459.6159 0.19094057 6.8940602e-17)
(460.25247 -0.024531055 1.7790384e-16)
(458.63694 -0.15868953 -1.7659981e-17)
(460.9126 0.20920863 -4.0956898e-17)
(458.46754 0.0065158365 4.8018355e-17)
(460.03626 -0.090037762 1.7522652e-17)
(459.32456 0.045641286 4.1359319e-17)
(459.56977 0.18385818 -1.5376265e-18)
(459.31563 0.0095003457 4.0099331e-17)
(459.92372 -0.11875882 -1.3402583e-17)
(458.93552 -0.085656321 9.594856e-18)
(459.89507 0.14612386 -1.0799853e-17)
(459.35019 0.18033677 -1.059654e-16)
(458.73288 -0.052233553 2.2048984e-17)
(459.56636 0.017853643 -4.9091107e-18)
(458.9716 -0.20797461 9.4121316e-17)
(458.2301 -0.23399647 -9.55989e-17)
(459.7559 0.24222637 4.9604739e-17)
(458.35169 -0.2262624 2.1611872e-17)
(458.63742 0.017893928 -4.6977357e-17)
(458.83317 -0.12711638 -9.1614932e-17)
(459.08402 0.17051805 -7.4407766e-17)
(458.50009 -0.21081807 -1.8394806e-16)
(458.3538 0.24346169 -8.1649309e-18)
(458.65769 0.027269202 -3.4421044e-17)
(457.96129 -0.078778814 -7.642997e-18)
(457.55066 -0.035902978 -9.9088585e-17)
(458.04643 -0.12966496 -1.4896216e-16)
(457.55657 0.083398556 -2.9013788e-17)
(457.4281 0.0083926444 1.5395636e-17)
(457.45207 0.021732264 5.3877087e-18)
(457.68398 0.49329125 -1.2621195e-16)
(456.74573 0.033472755 -1.0827314e-16)
(456.64596 0.020592866 3.4339014e-18)
(456.34997 0.23617904 -4.1904097e-17)
(456.17793 -0.28041172 -1.4500408e-16)
(455.53571 -0.44964712 -5.203431e-18)
(456.30405 -0.27874965 -2.2079089e-18)
(456.43996 -0.073611226 -8.7574079e-18)
(459.02891 -0.30267495 -6.6205683e-17)
(460.17259 0.45254382 -8.3196384e-17)
(460.1649 -0.22547537 -2.3476524e-16)
(459.22671 0.24086548 -3.1160823e-16)
(460.58565 -0.11879407 9.9216758e-17)
(459.21182 0.13764168 -3.9381414e-17)
(459.94359 -0.13491778 -5.8621885e-17)
(460.20827 0.22741442 6.8048525e-17)
(459.07233 -0.30304342 1.5142898e-16)
(460.72109 0.23537486 -2.7779631e-16)
(459.59991 -0.12100386 7.8570937e-17)
(459.53534 -0.14265117 -9.380307e-17)
(461.67054 0.24273953 2.1199642e-16)
(457.36494 -0.41669358 5.503186e-17)
(463.47273 0.57803197 7.4804894e-17)
(456.35238 -0.73367538 -2.4189953e-17)
(463.36549 0.75554399 3.5454124e-17)
(457.18864 -0.76744264 -1.3759789e-17)
(461.89571 0.62972299 4.4188476e-17)
(458.85499 -0.45042567 -1.1892304e-17)
(460.56501 0.27850189 6.0280565e-17)
(459.56422 -0.23614885 8.6054997e-18)
(460.75205 0.32635735 5.4230876e-17)
(458.63894 -0.29741919 -1.9105497e-17)
(462.12741 0.30785837 -1.5178948e-16)
(456.98626 -0.14733408 2.1505651e-17)
(463.58325 0.17931416 6.0134182e-17)
(455.95805 -0.11210249 1.840475e-16)
(463.81036 -0.0060918257 4.3922858e-17)
(456.70106 0.082593123 3.8615378e-17)
(462.36418 -0.16100737 7.5359354e-18)
(458.34383 0.083258378 4.6838675e-17)
(460.79668 -0.0069259018 -1.7894511e-16)
(459.03109 -0.16045061 1.5571142e-16)
(460.25196 0.24315987 9.1269354e-17)
(459.0668 -0.11941879 -7.4556248e-18)
(459.45713 -0.072854097 8.8322347e-18)
(459.69567 0.1216158 9.4144158e-18)
(458.39823 -0.13836469 1.9749187e-16)
(459.89849 0.17249764 -1.5122358e-17)
(458.60895 0.02964896 4.3688454e-17)
(458.98304 -0.11536924 2.0603614e-16)
(458.60464 -0.0072862707 3.9627365e-18)
(459.43998 0.21503529 -1.6190273e-17)
(457.63337 -0.053115466 -2.3753877e-17)
(459.66832 -0.073379686 5.9550086e-18)
(457.42849 -0.074947559 1.5563834e-16)
(458.76264 0.0017107656 1.1954867e-16)
(458.14378 0.31582698 -2.684353e-17)
(457.23296 -0.10633374 -3.1412881e-16)
(457.51741 0.10104259 -1.2464587e-16)
(457.51457 -0.13614935 -1.6680767e-17)
(455.83429 -0.31778833 1.3192741e-16)
(457.48139 0.14716032 1.4082458e-17)
(455.8558 -0.03366006 -1.2160658e-18)
(456.20957 -0.11834712 8.5069007e-17)
(455.73034 -0.16306181 -1.8355753e-16)
(456.32379 0.30028035 -1.5476102e-16)
(455.71289 -0.2284066 9.8222439e-17)
(455.2035 0.1148699 3.4706125e-17)
(454.99837 0.10468062 -1.356896e-16)
(454.35979 0.03391128 -1.8148033e-16)
(453.339 -0.083471351 -1.0972094e-16)
(453.65737 -0.073455993 9.6962209e-17)
(453.10064 -0.092233957 -5.2159989e-17)
(453.09522 -0.015936156 -7.4621428e-17)
(452.58374 -0.059393574 -4.8669957e-17)
(453.27414 0.33392084 -4.9943739e-17)
(451.8775 0.30770249 -5.4951077e-17)
(451.75035 0.19877761 2.8224946e-17)
(450.73201 0.23935802 -1.8950813e-16)
(450.51321 -0.050021619 1.0741188e-16)
(449.63869 -0.30942266 -4.1198127e-17)
(450.53308 -0.40340272 -8.7802711e-17)
(450.67707 -0.15063768 -9.3608806e-17)
(458.07686 -0.24259228 -5.7395765e-17)
(460.74678 0.36129987 2.9686332e-16)
(459.70397 -0.16762941 4.9387462e-16)
(459.55726 0.18561539 1.6378379e-16)
(460.75945 -0.091048964 -7.9855203e-17)
(459.16385 0.13491063 2.340684e-16)
(460.83562 -0.15324939 7.2563041e-17)
(459.61233 0.23289283 1.6224941e-16)
(460.46753 -0.23788454 1.0504559e-16)
(459.76633 0.12682906 1.510068e-16)
(460.86074 -0.017665296 1.9773903e-16)
(458.73876 -0.21806252 6.7113107e-17)
(462.28637 0.32283434 8.718839e-17)
(457.00019 -0.50748256 -1.0792595e-16)