/*--------------------------------*- C++ -*----------------------------------*\
| =========                 |                                                 |
| \\      /  F ield         | OpenFOAM: The Open Source CFD Toolbox           |
|  \\    /   O peration     | Version:  2.3.0                                 |
|   \\  /    A nd           | Web:      www.OpenFOAM.org                      |
|    \\/     M anipulation  |                                                 |
\*---------------------------------------------------------------------------*/
FoamFile
{
    version     2.0;
    format      ascii;
    class       volScalarField;
    location    "2.5e-05";
    object      alpha.fuel;
}
// * * * * * * * * * * * * * * * * * * * * * * * * * * * * * * * * * * * * * //

dimensions      [0 0 0 0 0 0 0];

internalField   nonuniform List<scalar> 
7500
(
1
1
1
1
1
1
1
1
1
1
1
1
1
1
1
1
1
1
1
1
1
1
1
1
1
1
1
1
1
1
1
1
1
1
1
1
1
1
1
1
1
1
1
1
1
1
1
1
1
1
1
1
1
1
1
1
1
1
1
1
1
1
1
1
1
1
1
1
1
1
1
1
1
1
1
1
1
1
1
1
1
1
1
1
1
1
1
1
1
1
1
1
1
1
1
1
1
1
1
1
1
1
1
1
1
1
1
1
1
1
1
1
1
1
1
1
1
1
1
1
1
1
1
1
1
1
1
1
1
1
1
1
1
1
1
1
1
1
1
1
1
1
1
1
1
1
1
1
1
1
1
1
1
1
1
1
1
1
1
1
1
1
1
1
1
1
1
1
1
1
1
1
1
1
1
1
1
1
1
1
1
1
1
1
1
1
1
1
1
1
1
1
1
1
1
1
1
1
1
1
1
1
1
1
1
1
1
1
1
1
1
1
1
1
1
1
1
1
1
1
1
1
1
1
1
1
1
1
1
1
1
1
1
1
1
1
1
1
1
1
1
1
1
1
1
1
1
1
1
1
1
1
1
1
1
1
1
1
1
1
1
1
1
1
1
1
1
1
1
1
1
1
1
1
1
1
1
1
1
1
1
1
1
1
1
1
1
1
1
1
1
1
1
1
1
1
1
1
1
1
1
1
1
1
1
1
1
1
1
1
1
1
1
1
1
1
1
1
1
1
1
1
1
1
1
1
1
1
1
1
1
1
1
1
1
1
1
1
1
1
1
1
1
1
1
1
1
1
1
1
1
1
1
1
1
1
1
1
1
1
1
1
1
1
1
1
1
1
1
1
1
1
1
1
1
1
1
1
1
1
1
1
1
1
1
1
1
1
1
1
1
1
1
1
1
1
1
1
1
1
1
1
1
1
1
1
1
1
1
1
1
1
1
1
1
1
1
1
1
1
1
1
1
1
1
1
1
1
1
1
1
1
1
1
1
1
1
1
1
1
1
1
1
1
1
1
1
1
1
1
1
1
1
1
1
1
1
1
1
1
1
1
1
1
1
1
1
1
1
1
1
1
1
1
1
1
1
1
1
1
1
1
1
1
1
1
1
1
1
1
1
1
1
1
1
1
1
1
1
1
1
1
1
1
1
1
1
1
1
1
1
1
1
1
1
1
1
1
1
1
1
1
1
1
1
1
1
1
1
1
1
1
1
1
1
1
1
1
1
1
1
1
1
1
1
1
1
1
1
1
1
1
1
1
1
1
1
1
1
1
1
1
1
1
1
1
1
1
1
1
1
1
1
1
1
1
1
1
1
1
1
1
1
1
1
1
1
1
1
1
1
1
1
1
1
1
1
1
1
1
1
1
1
1
1
1
1
1
1
1
1
1
1
1
1
1
1
1
1
1
1
1
1
1
1
1
1
1
1
1
1
1
1
1
1
1
1
1
1
1
1
1
1
1
1
1
1
1
1
1
1
1
1
1
1
1
1
1
1
1
1
1
1
1
1
1
1
1
1
1
1
1
1
1
1
1
1
1
1
1
1
1
1
1
1
1
1
1
1
1
1
1
1
1
1
1
1
1
1
1
1
1
1
1
1
1
1
1
1
1
1
1
1
1
1
1
1
1
1
1
1
1
1
1
1
1
1
1
1
1
1
1
1
1
1
1
1
1
1
1
1
1
1
0.99909947
0.99580853
0.99094371
0.98447866
0.97643646
0.96761545
0.95030171
1
1
1
1
1
1
1
1
1
1
1
1
1
1
1
1
1
1
1
1
1
1
1
1
1
1
1
1
1
1
1
1
1
1
1
1
1
1
1
1
1
1
1
1
1
1
1
1
1
1
1
1
0.99963524
0.99454225
0.98510638
0.96872018
0.94731819
0.91989807
0.8815326
0.82427686
0.76439827
0.70953637
0.65186674
0.59953901
0.54897245
0.4924905
0.43843475
0.37958697
0.3232841
0.27251321
0.22756909
0.19118277
0.15935185
0.13542345
0.093563541
1
1
1
1
1
1
1
1
1
1
1
1
1
1
1
1
1
1
1
1
1
1
1
1
1
1
1
1
1
1
1
1
1
1
1
1
1
1
1
1
1
1
0.99218613
0.97553137
0.94786704
0.91092761
0.83759374
0.75221931
0.66373045
0.57706659
0.49134193
0.41081934
0.33085861
0.26058522
0.1976694
0.13600914
0.08839299
0.035958314
8.3934447e-10
3.6404834e-10
3.6404833e-10
3.6404833e-10
3.6404833e-10
3.6404834e-10
3.6404837e-10
3.6404839e-10
3.6404839e-10
3.640484e-10
3.6404842e-10
3.6404842e-10
3.6404846e-10
3.640485e-10
3.6404857e-10
3.6404865e-10
3.6404879e-10
1
1
1
1
1
1
1
1
1
1
1
1
1
1
1
1
1
1
1
1
1
1
1
1
1
1
1
1
1
1
1
1
1
1
0.9886363
0.96133628
0.91464291
0.81391629
0.69857025
0.58185614
0.46554619
0.35333102
0.2488187
0.16091803
0.092842072
0.004203743
8.1595225e-10
7.4823138e-10
7.4823137e-10
7.4823159e-10
7.4823112e-10
7.4823034e-10
7.4822964e-10
7.4822964e-10
7.4822964e-10
7.483305e-10
7.4828137e-10
7.4822964e-10
1.1107689e-09
7.722413e-10
7.9723562e-10
7.4279297e-10
6.921682e-10
9.3563923e-09
1.6146351e-08
1.0590105e-08
7.1947573e-10
5.7789938e-09
9.867236e-09
2.0904405e-09
1.3438772e-08
1.4724159e-08
1.7113296e-08
2.0559721e-08
2.4784896e-08
1
1
1
1
1
1
1
1
1
1
1
1
1
1
1
1
1
1
1
1
1
1
1
1
1
1
1
1
0.98142486
0.92748697
0.81430898
0.67160176
0.52114237
0.37194946
0.2333731
0.12763106
0.0028485162
3.1659808e-09
3.1257313e-09
3.1257313e-09
3.1257313e-09
3.1257313e-09
3.1257313e-09
3.1257314e-09
3.1257315e-09
3.1257331e-09
3.1634992e-09
7.0111463e-09
4.7023684e-09
2.1966169e-07
3.6811492e-07
2.9918033e-07
1.4460616e-09
1.2196214e-09
7.4850371e-10
1.8861552e-05
5.4832815e-06
7.6460925e-10
0.00010022835
0.00020310885
0.00057687192
0.00028984559
9.3361633e-06
1.1713305e-09
7.2709194e-10
7.270901e-10
7.0672198e-06
3.0553526e-09
2.682393e-09
2.3849856e-09
1.0239476e-06
2.9061303e-08
2.1187408e-08
2.4292795e-08
2.4567054e-08
1
1
1
1
1
1
1
1
1
1
1
1
1
1
1
1
1
1
1
1
1
1
1
0.97725313
0.90183426
0.74173831
0.55432926
0.36231773
0.20059132
0.024413494
3.8892216e-09
3.6310246e-09
3.6306705e-09
3.6303395e-09
3.6298424e-09
3.6298025e-09
3.6305994e-09
8.3105808e-09
7.4255409e-09
7.6018676e-09
7.4758664e-09
2.9440223e-08
3.8192309e-09
2.6182222e-08
2.2364811e-08
1.5129756e-08
3.4796848e-09
3.059209e-09
2.578707e-09
2.1827554e-06
4.5168229e-05
4.4750443e-09
0.00085927246
0.033078761
0.0078132582
0.00060611271
3.7772743e-06
0.0011166812
0.0012321164
0.00066528203
0.001298483
0.0011666422
0.00094379461
0.0024815836
0.0011221252
0.00014450654
0.0057828105
0.0042463339
0.0027231711
0.00041128133
2.222915e-08
2.1875887e-08
4.0674263e-08
2.339574e-08
2.9569019e-07
1
1
1
1
1
1
1
1
1
1
1
1
1
1
1
1
1
1
1
0.96466847
0.84889746
0.64316109
0.41064498
0.19758774
4.931548e-09
3.7403302e-09
3.7403278e-09
3.7403272e-09
3.7403681e-09
3.7432161e-09
4.5048491e-09
0.00012853259
0.00011171955
8.1630302e-05
9.7873082e-06
4.47592e-09
4.2454474e-06
9.0576192e-08
1.997088e-08
1.9418907e-08
7.9202947e-09
4.000908e-07
5.6252312e-07
1.3138457e-07
9.1606862e-09
8.4726302e-09
1.4298828e-06
1.2309432e-05
1.0862465e-05
1.6643481e-08
4.1416301e-09
4.1413337e-09
0.028086161
0.070880849
0.031465748
3.7780136e-06
3.777554e-06
9.8101857e-05
0.00013456898
2.4661261e-09
2.1104623e-09
1.8110957e-09
0.0020781761
0.0038512884
0.00068124625
3.1131023e-05
0.0061572039
0.0061400827
0.0061351934
0.0010802966
2.2488142e-08
2.2275644e-08
2.2557485e-08
2.2843107e-08
1.9981975e-06
1
1
1
1
1
1
1
1
1
1
1
1
1
1
1
1
0.92171338
0.72173197
0.4575246
0.16081816
5.2318902e-09
4.2579465e-09
4.2610674e-09
4.268046e-09
3.5502158e-07
1.5712435e-06
4.334965e-07
2.8905117e-07
8.4952265e-06
8.9705117e-05
0.0013042174
0.0013400635
0.0011806509
2.8481527e-07
0.00066897565
0.0066932942
0.0035497748
1.5510284e-08
1.4812458e-08
1.4202965e-08
0.00010257808
5.2439747e-05
3.6219501e-06
1.4464246e-06
2.2838528e-05
8.9799445e-09
3.2057524e-05
2.9311351e-05
5.1480577e-09
5.012521e-09
4.6212974e-09
4.4275783e-09
0.0081958352
0.025888553
0.021548323
0.045038354
0.033446435
5.5542975e-08
0.00074270773
0.0066081469
0.0018356142
1.5251731e-09
1.9261941e-09
0.0015647224
1.6982618e-07
0.013683191
0.0019300589
2.4567505e-09
2.4267749e-09
2.4267749e-09
1.5658361e-05
0.00010047596
0.00011287894
6.3032537e-05
1.5660861e-06
1
1
1
1
1
1
1
1
1
1
1
1
1
0.93138396
0.71774058
0.40820606
0.048575251
5.481223e-09
5.2683609e-09
5.2683609e-09
6.0678649e-09
0.00014968212
0.00087252297
0.0011492475
0.00075499075
1.631916e-05
5.080632e-09
4.3967442e-09
0.00042318869
0.0025354425
0.002537257
0.00046072135
4.5258722e-09
4.6075254e-09
0.0079882204
0.0079935665
0.0015179806
0.0015062723
0.0069049362
0.0047721675
0.00098977371
6.6522549e-09
3.3645959e-08
3.701855e-05
4.4570724e-05
8.0171871e-06
7.8534089e-09
7.8117827e-09
0.00046614265
0.0032440259
0.014296864
0.0066692654
1.5705217e-08
1.5149683e-08
0.021200479
0.070150652
0.070129477
0.03913879
0.019882783
0.019824627
0.00540834
1.0216169e-09
1.4569204e-09
1.5755545e-09
0.01045343
0.00704111
4.3740487e-05
2.7522022e-09
2.6792138e-09
2.4287158e-09
6.8597211e-05
0.00029361764
0.0002936174
0.00014869678
8.9741146e-09
1
1
1
1
1
1
1
1
1
1
1
0.8703101
0.54784066
0.10525481
4.8333882e-09
4.1404806e-09
4.1404807e-09
5.0869571e-09
5.9001384e-09
6.764674e-09
0.0015232843
0.007118658
0.0071642012
0.0071635709
0.00067012452
8.9543588e-07
5.649984e-09
5.0224335e-09
3.881917e-09
3.8832291e-09
4.6312188e-06
3.879792e-09
4.3913682e-09
0.0001918157
0.0018603445
0.0050337676
0.0061202017
0.007856512
0.0079185527
0.0038837716
9.775533e-06
6.1993429e-09
1.4703512e-07
7.1803483e-09
7.1785687e-09
7.6238949e-09
7.9757589e-09
5.9437741e-05
6.9498583e-09
0.011135773
0.022611247
0.022611247
0.0015650857
1.51651e-08
0.070837913
0.070880762
0.00092360343
0.0010177518
2.556452e-06
2.5563838e-06
2.3483433e-05
7.1874755e-10
0.0047707519
0.0014026692
0.010645862
0.0044825075
5.8668892e-06
2.9614322e-09
1.1328658e-06
3.7892104e-07
1.6908448e-09
1.2405316e-05
8.6385268e-06
2.0069209e-09
8.4818319e-09
1
1
1
1
1
1
1
1
1
0.84840429
0.45707543
0.0058188726
4.7496614e-09
4.7481692e-09
6.1533906e-09
5.4474464e-09
5.2382182e-09
0.001897736
7.8011601e-05
0.0049252494
0.0075578133
5.6104258e-09
5.6163886e-09
5.5509964e-09
0.00058804545
0.0054313998
4.5518592e-09
8.401354e-09
1.3266523e-08
4.3056949e-09
4.2974549e-09
4.8549765e-09
4.820624e-09
3.8791032e-09
4.3787702e-09
5.0036707e-09
4.7749459e-09
4.7304806e-09
4.7304806e-09
4.985728e-09
5.6778169e-09
5.6782979e-09
1.0050445e-07
1.7451966e-07
7.6315982e-09
0.0016931449
0.00050514466
1.1053945e-06
6.910704e-09
6.8374652e-09
0.0057752592
0.0016161194
0.0053532825
1.5522699e-08
0.056902526
0.070880763
0.0050761047
6.9734966e-08
6.4322229e-05
0.00012829223
0.00033754783
7.0786872e-10
0.0056043092
0.012631263
0.00013879127
0.00012365946
5.4735403e-05
3.3214813e-09
8.4152746e-06
2.2361472e-09
2.0295044e-09
1.7759125e-09
1.7758581e-09
1.9617499e-09
2.2360006e-09
1
1
1
1
1
1
1
0.89343867
0.51078548
0.0087962752
4.779647e-09
4.6881457e-09
4.692477e-09
6.5699836e-09
0.0018046092
0.0017181876
0.0010796181
0.0072970537
0.0023151019
7.6485717e-09
0.00016777411
1.1490128e-07
0.00020215701
5.6721429e-09
0.0047737567
0.0054203089
4.551844e-09
4.7012393e-09
5.0843231e-09
4.5556984e-09
4.2971602e-09
4.912682e-09
4.9409965e-09
4.3676295e-09
4.1310877e-09
2.0743711e-07
0.00029385466
5.4684042e-09
4.7304844e-09
0.0015104301
0.009608743
0.00054188573
1.0075188e-07
0.0020988604
0.0010623263
0.0034695156
0.0034695156
0.00020828651
1.1509586e-05
6.4056079e-06
3.4547062e-08
3.4484919e-08
0.0030368783
0.036980616
0.00038647823
0.018652885
6.6361153e-08
0.0033430616
0.00086505747
0.0015226591
0.01125186
7.0735465e-10
7.0735465e-10
0.012611363
0.0089240608
0.0071171777
8.5594584e-08
0.00078426269
0.00015458397
0.00021150579
2.2863874e-09
2.0351247e-09
1.9809504e-09
0.00027358535
0.0028333938
1
1
1
1
1
1
0.73734102
0.10669084
7.7628407e-09
7.008515e-09
7.0106473e-09
5.9450807e-09
4.7115214e-09
0.0019579011
0.0026324734
0.0026330919
0.0026335342
1.6237146e-07
1.6208399e-07
2.5338434e-07
2.8790166e-06
1.2411616e-07
0.00085034741
6.4486665e-06
0.00024713657
0.0023261705
0.0041889178
4.977683e-09
8.6216541e-05
4.5659607e-09
0.0025683776
6.7405562e-05
0.0001108212
4.0188692e-05
0.00011832528
3.5164744e-05
0.0050969726
0.00027986671
4.8728292e-09
0.010466926
0.010547452
0.0040478856
1.0084176e-07
0.0017205185
0.0034433484
0.0020507297
0.0025675943
0.00069521586
1.4298177e-08
1.3824494e-08
0.0018494549
0.002179483
0.00024843414
0.041761043
0.0084374858
2.8312552e-09
0.0016495379
0.0019153107
4.6633918e-05
1.4035277e-08
0.011456833
0.0080214306
7.5009874e-10
0.0018004662
0.012806175
0.001900738
8.5535098e-08
0.00090130421
9.6202318e-05
0.0019287948
0.002067419
0.0023650522
0.0014022192
0.0040103385
0.0040119895
1
1
1
1
0.96968246
0.47775987
1.1816284e-08
9.6595365e-09
9.764965e-09
9.4112021e-09
1.3181549e-05
1.0840158e-05
1.4611339e-05
6.4437654e-09
6.4376024e-09
6.4376017e-09
6.4644349e-09
0.00012649197
0.00039768354
5.2527859e-08
1.78854e-05
0.00021729842
0.00084963701
4.8931103e-09
5.7978542e-09
0.0021397991
0.0051786856
8.7110763e-05
0.0034040073
0.0047331493
0.0047380052
0.00028356058
0.00026861963
0.00026851997
3.7677426e-05
5.8250779e-05
0.0047621737
0.00070933703
0.0015325516
4.7863378e-05
0.0013576798
0.0041533543
0.0010846421
7.683938e-07
1.1484654e-09
1.1483684e-09
1.1483683e-09
0.0024015108
0.00028897115
1.3983621e-08
0.013133611
0.01312757
0.00076982775
0.0024029884
0.00099908494
2.5493145e-09
0.029006244
0.0086474013
2.6210761e-08
0.00037209192
0.0046187599
0.011999558
5.6161495e-10
5.2570191e-10
0.0063117094
3.7144735e-05
0.00021936017
4.1999309e-06
0.00026576355
2.6584601e-05
0.0037495515
0.0037566399
0.003757016
3.8578038e-07
1.1619581e-08
1
1
1
0.95654471
0.2668897
1.4921594e-08
1.33855e-08
3.6899707e-05
0.00090568845
0.0006888639
1.5637657e-06
3.7385591e-05
3.7385201e-05
1.6409004e-06
8.0922012e-09
7.4064063e-09
3.0908368e-05
2.5108396e-05
0.00034519434
0.00090231443
1.899213e-05
0.0010083857
8.5484156e-05
5.5262024e-09
0.00049477471
0.0035011715
0.00086459338
0.00046893693
4.8423727e-09
0.0019856782
0.0047380054
0.00010196078
4.0040209e-09
1.5021707e-06
3.2069039e-05
3.5439589e-06
3.5439687e-06
0.0028030884
0.002840709
0.00028700084
5.5606344e-09
0.0030387637
0.003521092
0.00092641707
1.5054083e-09
1.4517957e-09
1.1483868e-09
0.00041553013
1.3693028e-09
0.006172906
0.0011397344
1.9478667e-09
2.2999605e-09
2.298725e-09
2.3073762e-09
2.3034616e-09
0.03818641
0.0046210824
2.6223239e-08
0.00034569819
3.4352622e-09
0.011996959
0.0012176172
2.9896539e-10
5.3747327e-10
3.1432741e-10
0.00044034039
2.2345944e-05
0.0003763778
9.5804387e-05
3.824537e-10
3.7478673e-10
3.7478672e-10
5.9866824e-10
0.0017561444
1
1
0.98743392
0.24954823
1.9046102e-08
1.7138701e-08
5.4493256e-06
0.00128718
0.0012900795
2.035179e-06
4.4671778e-06
8.6831239e-06
1.8611209e-05
1.1097157e-06
0.0011345079
7.9298945e-05
4.3428755e-08
4.3640878e-08
9.4098968e-06
0.00013345346
0.00030038126
0.0023311389
5.3163298e-09
3.842102e-05
3.8488758e-05
0.0014721798
0.00018768312
0.0007051672
4.8415144e-09
5.438178e-09
0.00098942875
1.9836378e-05
3.9684779e-09
3.4692614e-09
3.4317244e-09
0.0061758589
6.048504e-05
5.5288093e-09
5.5257382e-09
5.524102e-09
5.5246799e-09
0.00064238887
0.00047665281
0.00017623121
2.7480438e-05
1.4043344e-06
1.3685579e-09
8.5859527e-10
1.0047312e-09
1.219146e-09
1.6264569e-09
1.9259362e-09
0.0022145004
2.4386344e-09
0.062258898
0.053586592
0.021028519
4.0125683e-09
5.4300932e-05
3.4133027e-09
3.3983223e-09
0.00011173381
0.00095217228
3.8793326e-10
6.3738208e-10
1.7768491e-08
2.5461268e-10
2.5460654e-10
2.5953373e-10
7.7464681e-05
1.9224477e-05
4.471237e-10
3.7478675e-10
0.0017718429
0.0041740998
1
1
0.31629272
2.1572337e-08
1.9152895e-08
0.00028908902
0.00055404745
4.5146163e-08
4.4775938e-08
2.0289679e-06
1.3710916e-06
7.8116497e-09
7.8699028e-09
1.9783668e-05
0.0016246601
0.00040211775
4.2446019e-08
1.0482411e-05
5.0037732e-08
5.014326e-08
0.00078370683
0.0012621423
5.28578e-09
5.5474666e-09
0.0028109214
1.0073104e-06
0.00011836176
0.00085197979
4.8415144e-09
4.9912278e-09
5.3442807e-09
5.9306947e-09
3.823308e-07
8.5042577e-08
3.3282984e-09
0.0061911469
6.3593272e-09
5.9586359e-09
7.4730913e-06
4.2311719e-08
2.368341e-08
2.3786186e-08
2.3889115e-08
1.9147318e-05
5.7458846e-05
5.5165588e-05
1.4041544e-09
8.8222468e-10
7.9454547e-10
0.005274958
0.0099210163
0.0042691193
0.0056347823
0.0024877654
0.025372975
0.067902072
0.014748797
3.7344955e-09
3.473639e-09
3.6049938e-09
3.514928e-09
3.3579307e-09
0.00010040474
1.1213539e-05
3.4708758e-06
5.6454427e-09
5.3631952e-09
5.1578233e-10
4.7789004e-06
2.6323565e-10
2.5423279e-10
2.7478569e-10
3.9716996e-10
0.002587444
0.00094992696
1
0.64589544
0.024669306
0.00027137608
1.6669485e-07
0.00073676468
7.2841595e-08
7.205268e-08
3.0239658e-07
9.0064659e-06
1.2952055e-08
1.256057e-08
9.4669655e-09
0.00012218355
0.00037991767
0.00037423288
4.116858e-08
0.00061231949
0.0052340847
0.0059986036
0.0024650735
5.2857782e-09
5.2857832e-09
0.003785172
0.0037875477
0.00066733383
3.4565332e-05
0.00070484604
4.8423037e-09
4.841527e-09
4.8415288e-09
0.00060901957
0.00027451166
4.3002055e-09
9.6965846e-06
9.4868536e-05
0.0017667306
0.0047169629
0.0001693625
4.2732262e-08
6.1869129e-07
2.3945635e-08
7.6690339e-08
1.2766493e-09
1.2638547e-09
1.2638553e-09
1.5296773e-09
7.9450358e-10
0.0072474031
0.012017055
0.012033237
0.01203283
0.0010362296
0.0076942926
3.7552665e-09
0.033394994
0.0020812404
3.985235e-09
0.0017999007
0.00012514716
7.0248155e-05
3.1905064e-09
3.3559585e-09
7.3933145e-06
6.2131066e-06
1.2804632e-08
5.5515459e-09
0.00037808108
6.1109767e-05
4.3195483e-10
3.0993597e-10
3.5378641e-10
0.0011819072
3.4387999e-10
2.8882757e-10
0.96951623
0.080631335
3.1138004e-08
2.805362e-08
5.2634479e-05
0.00024574848
1.0820684e-07
1.8291606e-07
2.6012489e-07
2.2515513e-08
2.2461498e-08
1.1144285e-08
2.4282186e-07
4.8889459e-05
1.8265183e-09
0.00032956507
0.0033369598
0.0075406653
0.0075406649
0.0052428971
6.2867695e-09
6.1015101e-09
6.1312301e-09
0.00095855464
0.0019578378
0.00011988481
5.7526139e-09
5.683848e-09
5.439111e-09
0.00082707901
0.00018996727
0.0012568397
0.00021007048
3.454615e-09
9.3169427e-07
3.0924289e-09
0.012843447
0.012843645
5.2641894e-05
0.00037887016
6.2024351e-07
3.1927826e-05
7.698302e-08
2.255409e-07
1.5522413e-09
1.6379764e-09
1.6997705e-09
1.2150055e-09
9.862205e-05
4.2229724e-09
0.002631608
1.0142859e-07
1.0159568e-07
0.008529323
3.5054203e-09
3.2162203e-09
2.9300803e-09
0.0079722259
0.0043075554
0.0041607584
0.0025088114
0.00030319036
3.25183e-09
3.4415299e-09
3.6718217e-09
3.8348809e-09
0.00037884014
0.00047523065
1.5444489e-05
5.3960107e-10
3.9921344e-10
0.00020306011
6.5830001e-10
6.8067803e-10
5.9551134e-10
0.32141336
5.714235e-08
5.3248995e-08
2.8052675e-08
2.3770793e-08
2.3773214e-08
1.8107195e-07
2.2196736e-07
2.4218005e-07
2.1221376e-07
3.0535921e-08
9.4142355e-09
4.0475853e-07
1.828157e-09
1.8265185e-09
0.00082528697
0.00082764296
0.0075406654
0.0061891708
5.4833102e-07
0.00025460052
4.9227998e-05
0.0010329718
6.9964353e-09
6.4105118e-09
5.6713239e-09
0.00070342506
0.000268108
0.0017331271
0.0020109814
0.002009394
0.00013780044
2.4264495e-09
2.8485086e-09
2.9883973e-09
2.9912868e-09
0.0070958094
0.0088718465
0.009036877
0.00078303435
0.00011419147
0.00016113753
1.9022112e-05
1.0129784e-07
0.00051884914
0.01179939
0.018732044
0.01624189
1.8362266e-08
0.00024317829
4.4027848e-08
0.0042875459
0.010552716
0.0013616454
0.002882948
0.0084336437
0.0097243046
0.012960367
0.0029197547
7.5953344e-10
7.051104e-10
1.0132866e-09
0.0018212998
0.0020120708
0.0037900822
0.0011130872
0.0010283756
9.5849624e-10
1.1298923e-09
0.00024432594
5.5605542e-05
6.6206179e-10
6.3574374e-10
8.4375742e-10
8.1006671e-10
0.10277059
5.9187404e-08
5.1066174e-08
8.9820428e-07
2.5453485e-08
2.0853734e-07
1.7918082e-07
2.4580821e-07
3.3496644e-07
2.0608344e-07
3.4563996e-08
9.463464e-09
1.4292037e-08
2.7709107e-09
1.8295189e-09
7.5244447e-05
2.8597409e-09
0.00060052184
4.3452184e-09
5.032165e-06
0.00075847795
0.00018580726
0.0017838774
0.00069012736
6.4191099e-09
5.6243104e-09
0.0034439343
0.0019882075
0.0040736611
0.0020125686
0.0020109812
0.00022159804
2.3150332e-09
3.5246541e-05
5.4015226e-06
0.0015098054
1.0155292e-08
1.0051531e-08
0.011152327
3.7668147e-06
0.0006542543
0.00065481501
0.00032445044
1.0121784e-07
0.0113225
0.019956475
0.019975653
0.020022632
0.020028949
0.012231057
2.0839016e-06
0.014042818
0.014042818
0.0016218975
0.00024271276
0.0026535888
0.012960639
0.012960502
0.0036569619
0.00063417058
1.0155811e-09
9.0863988e-10
0.00080837111
0.0056376575
0.0056530181
0.0056397665
1.0949417e-09
8.9088239e-10
0.0019726785
0.0054837052
0.00067024761
7.0553424e-10
6.903633e-10
7.4830871e-10
9.528817e-10
1.9519037e-08
0.00013397275
5.096559e-08
4.7080091e-08
4.4894887e-08
1.8119165e-07
1.8166943e-07
2.5967226e-07
8.7109568e-07
1.938486e-07
4.6611007e-08
1.1547672e-08
1.1185112e-08
4.0473637e-09
2.5365754e-09
1.63037e-09
1.8489915e-09
2.4153417e-09
3.087104e-09
0.00010646212
2.6063201e-09
2.7120113e-09
0.00065392482
0.00085685751
0.00068816176
5.4681326e-05
0.0023965579
1.1523909e-05
0.004073661
0.00018375939
0.0007805571
2.5971413e-09
1.8393992e-09
0.00019815495
0.0001422444
0.014792199
0.00076130241
1.0469998e-08
0.0026057283
6.1128828e-05
1.0522893e-09
1.04999e-09
1.0499896e-09
0.0036259582
1.8613889e-09
1.6939626e-09
1.7102845e-09
1.8050781e-09
0.0099786889
0.00030586306
5.8974124e-08
0.012401446
0.014042818
0.0012010728
2.7568062e-08
5.0987972e-07
0.012960776
0.0076442788
0.013159279
0.0042937725
1.1101758e-09
9.1776613e-10
1.0753439e-09
1.0811948e-09
0.00039370137
1.2023548e-09
1.1706247e-09
1.0244729e-09
0.0054469518
0.0054837051
0.00045824769
5.6926409e-10
4.1928626e-10
5.3474527e-10
1.5866249e-05
0.00020360579
0.00034410971
0.00034666558
9.2421087e-06
4.6695991e-08
1.4675552e-06
1.007091e-05
2.619392e-07
2.6213996e-07
1.7439545e-05
4.7508587e-08
1.0841606e-06
6.5502102e-09
5.3057921e-09
8.4265423e-06
2.8272768e-09
1.6306672e-09
1.6443893e-09
6.2171525e-05
0.00018677272
2.6063433e-09
4.5956997e-09
4.6353616e-09
0.00038937394
0.0021582287
0.0021645564
1.1422541e-05
1.121587e-05
0.0030395619
3.1715684e-09
2.763594e-09
2.2873881e-09
2.2557224e-09
2.0173879e-09
0.00022925959
0.010582826
0.00029205528
0.0029783146
2.386997e-09
1.9383816e-09
1.4740877e-09
1.3623653e-09
1.3077762e-09
1.520098e-09
3.9916987e-06
2.0323512e-09
0.00071334753
0.0065844364
5.2623445e-08
0.0060085278
0.011909951
0.00039941756
0.0043240074
0.0096095574
2.3826797e-06
4.7781337e-09
0.0019020585
0.00026705548
0.0048949422
1.0794193e-09
1.0350587e-09
8.7480497e-10
8.7535285e-10
3.9266807e-05
1.5078404e-08
0.00042722129
3.6758763e-05
0.0017315611
4.7173838e-08
0.0054836997
0.0022497283
3.5034644e-06
4.6610956e-10
2.8652125e-06
1.8796314e-05
0.00034759509
1.117673e-08
0.00042882122
0.00043076415
5.8562968e-05
4.0350369e-07
1.2700758e-05
6.8584203e-06
2.6433546e-07
1.7416547e-05
9.8663659e-06
1.0960257e-06
0.0001925363
0.00023664402
0.00012231046
0.00066462349
0.0021945321
0.00098983421
7.6995418e-05
0.00018677678
2.6568685e-09
4.8995171e-09
3.1226933e-07
1.6130273e-09
1.6130008e-09
0.0010678006
8.7252828e-05
0.0024531435
3.6812112e-09
3.6031385e-09
1.3781388e-06
2.6834003e-09
0.001476097
2.6450661e-09
2.8759672e-05
3.8344081e-09
0.0010229465
0.0058906931
0.0058945333
0.017723797
0.016159526
0.0074195204
0.000922728
0.00067905309
1.1352871e-09
0.0037997841
0.018596889
0.018643076
0.012469181
0.023976343
0.004343131
9.3837084e-10
6.4268063e-10
0.00054627166
0.0058823709
4.7977214e-09
4.9736701e-09
5.1170712e-09
5.3093108e-09
0.00054068934
0.0007162599
9.1141274e-10
0.0032005345
0.00080492327
0.00038553105
0.0011219718
0.00064660471
0.0037555917
0.00010065847
0.0040671247
0.0050893283
7.3067208e-05
3.7005589e-10
1.4494949e-05
1.6103885e-05
0.00034758344
1.0675331e-08
1.0874459e-08
0.00042981496
0.00042755208
4.9167429e-08
1.1057248e-06
6.8541478e-06
3.4821686e-06
3.3580792e-08
5.3914954e-06
0.00045956418
0.00041077356
0.00040902521
7.4396923e-07
0.0010113391
0.0018838055
0.0026517191
1.4910692e-05
8.5423308e-05
1.7981391e-07
3.3934216e-09
2.7723717e-09
7.1637406e-09
2.2114022e-09
2.6753941e-09
2.0945075e-08
0.0033471022
7.5921749e-05
0.00057290091
2.8737918e-05
0.00019898238
0.0052736352
0.004696485
1.360992e-06
3.3580539e-09
0.0036592003
6.8546889e-08
3.2148265e-08
0.022800117
0.022838252
0.022797417
0.020413198
0.00054416929
8.6242964e-10
0.0068274425
6.1294583e-08
6.1310803e-08
0.0237702
0.0040297559
1.3312263e-09
1.1220832e-09
5.3486153e-07
1.3107661e-09
0.0087784694
0.0087494063
0.00038899439
5.1658157e-09
0.00010353443
0.004085532
0.0056979791
0.00317613
0.0065728144
0.00039533194
0.0013245328
1.3564297e-05
0.00094371623
0.0027452649
0.00078926374
1.1864978e-10
1.1864422e-10
1.0200679e-06
2.1037484e-10
3.5246643e-11
1.0992384e-15
0.00034757184
1.0677752e-08
5.0358517e-08
5.2901042e-09
5.2889525e-09
5.354783e-08
4.8138479e-08
3.4633277e-08
3.448033e-08
3.3537298e-08
4.1480735e-06
0.0019239892
1.3738615e-05
0.00012245876
2.1323679e-06
1.0902473e-07
1.1320054e-07
0.002651518
3.2799359e-09
3.2736705e-09
3.2034148e-09
3.8429093e-09
3.3197316e-09
2.4017181e-09
2.5342606e-09
2.086209e-09
2.0862112e-09
2.3724916e-09
0.00010761858
0.0026721346
2.6513281e-10
0.0031741492
0.0036211714
0.0054580785
0.005470825
0.0016033765
0.0028914209
0.00051859367
3.2452732e-08
3.2214428e-08
0.0046933994
5.1767048e-10
4.9966553e-10
4.9990572e-10
8.0289363e-10
4.968202e-10
0.00021224656
0.0012992798
0.013134048
0.0057028853
0.0010821818
0.00010726327
0.00011268025
1.2769214e-09
0.0032415504
0.0069004256
0.00062626364
0.00018121333
0.0017170571
1.3144132e-09
9.2066993e-07
0.0065728121
0.0016323975
3.6804372e-09
9.5620705e-05
1.8010776e-10
1.1489878e-10
1.1658031e-10
0.00013719295
6.0788052e-08
2.2275601e-10
1.944792e-06
0.00013273987
2.9263652e-06
1.0160459e-10
0.00027221821
1.0677946e-08
4.6618262e-08
1.7763784e-07
6.8109351e-09
6.3419039e-08
1.3966204e-07
3.948716e-07
2.5975108e-06
3.3450951e-08
1.8700021e-06
0.0019152341
1.4991005e-06
1.7725895e-09
1.6923605e-09
0.000130023
1.2516479e-06
0.00033530113
0.0026645933
2.562328e-09
3.4649669e-09
3.9925119e-09
3.3776808e-09
2.9171656e-09
0.0002002316
0.0014875718
0.0043450981
0.00066385115
6.5733663e-10
1.957679e-10
1.883178e-10
1.8810952e-10
2.2369643e-10
2.632879e-10
0.0032883836
0.00025471137
3.2843062e-08
3.2637257e-08
3.2462983e-08
2.7813039e-05
5.2083435e-10
5.1983604e-10
7.2583412e-10
8.985924e-08
7.2202201e-09
4.9682087e-10
0.0039416665
0.0039895657
2.3243547e-05
0.014394324
0.0046980472
0.0022430683
1.5102538e-09
1.1922054e-09
1.1935869e-09
1.2867786e-09
6.582163e-05
7.6673215e-09
0.00038080738
1.5014316e-09
0.00010043233
0.0040783358
1.4616688e-08
2.331206e-05
9.3563472e-10
7.545569e-09
1.4973123e-10
1.7121113e-10
1.1185985e-10
1.1027155e-08
2.3494878e-10
1.0024366e-06
0.00016959453
7.8108668e-06
1.0795693e-10
0.00034661349
1.0678776e-08
3.5516058e-08
5.2607844e-07
8.1246267e-05
6.5043279e-08
1.5689027e-07
3.1204927e-06
3.1234222e-06
3.3326424e-08
3.315364e-07
0.0019189865
5.2338739e-09
6.2363901e-09
2.475059e-09
0.00041021232
8.6729978e-07
0.00030049885
0.0084546591
2.6829981e-09
0.0027574957
0.0013562216
2.3501375e-05
0.00048349182
0.0060302641
0.0062769372
0.0062769368
0.00023880212
5.2546577e-05
2.8119659e-05
1.9878394e-10
1.3011358e-07
0.00017323958
0.00030417555
3.9988558e-05
3.9988194e-05
0.0027849967
0.00021479478
0.0044500229
0.00098114233
7.7354188e-10
7.5823276e-10
2.5247904e-05
5.4525236e-06
1.0427618e-09
7.0821595e-10
7.1846726e-10
8.7875392e-10
0.0040778829
5.8810311e-05
0.013753354
0.0028294253
1.6939767e-09
4.3082836e-06
1.0009156e-09
1.0394238e-09
1.098428e-09
0.0022612774
1.7521107e-09
1.7248275e-09
1.7251729e-09
1.9076641e-09
0.00062390951
8.7476569e-05
1.0647425e-09
1.1083681e-08
3.3116251e-10
4.7601095e-10
1.0668179e-09
2.0141688e-09
2.9314044e-09
1.9016772e-09
0.00016958956
3.3739942e-05
1.3591786e-10
0.00034658905
1.0716546e-08
2.9716935e-08
6.8432744e-07
0.00033280297
0.0001661035
8.3486433e-09
8.4676247e-09
5.9014248e-07
2.6137761e-08
2.1108117e-08
0.0019191512
1.6363717e-07
1.419925e-08
7.1539757e-06
7.1745688e-06
2.3236195e-05
0.00066284083
0.0084550567
0.0011829883
0.0031958011
0.0031868041
0.0028585057
0.001977197
2.2986956e-09
0.0062768979
0.0027417224
3.2171632e-05
1.3435228e-07
0.00015406416
1.9755182e-10
1.974244e-10
0.0011571576
0.0011606093
0.00084924458
0.0068923897
0.0069246335
0.0017265649
0.00056412
1.5024006e-09
1.1812675e-09
0.0042226699
0.00083142543
2.0644509e-08
1.6795671e-06
0.0006150672
0.00013089589
0.0041747961
0.003484657
0.00014685558
0.016724104
0.0035087374
3.5256717e-05
1.2177101e-08
0.0059965236
1.0973942e-09
0.0019491585
0.00094738821
0.00043202456
0.00065610916
1.8882901e-09
2.0674812e-05
0.00032236005
4.7956071e-09
4.4624302e-06
4.9263068e-10
5.1609187e-10
6.7915167e-10
1.2437848e-09
3.5471877e-09
2.1244207e-09
2.017204e-09
0.00016953091
8.8322591e-05
1.2327685e-10
0.00021153071
1.7214998e-07
3.2054071e-08
3.9904027e-05
0.00033280441
0.00026763953
8.2973978e-09
8.2830613e-09
7.276828e-09
8.1715696e-09
3.6777208e-07
0.0019191514
5.6333162e-05
6.351231e-09
0.00029249026
0.00050801476
4.7994603e-06
0.00013540914
0.0063619517
0.0085306695
2.487024e-09
2.2694437e-09
2.2694435e-09
2.2694637e-09
2.2694777e-09
0.0022476063
3.6611236e-09
0.00218253
8.0336615e-05
8.9583705e-08
2.3211476e-09
2.3721106e-09
4.9313352e-10
5.7204883e-10
0.00032781782
0.0048151533
3.6521103e-09
4.0328471e-09
4.2106454e-09
0.012888738
0.024853611
0.024838578
0.00078430762
5.4615727e-06
1.0352505e-07
0.0036775159
0.0059470739
0.0065659452
5.0402081e-08
4.147381e-08
0.01672071
0.0026392231
0.01100425
0.017130349
0.017158929
0.00075155407
0.0067602987
9.7838528e-07
0.00035150872
0.00082769122
0.00061867537
5.1091388e-09
5.0415084e-09
4.9217582e-09
1.586908e-05
4.996444e-10
7.1423684e-10
7.1284155e-10
8.8164323e-10
1.0345898e-07
2.0538215e-05
0.0001007889
9.450264e-06
3.9541016e-05
2.577853e-07
3.3847682e-08
1.035615e-06
3.3710855e-08
0.00010063821
0.00033280586
4.208988e-06
6.1579012e-06
4.2694201e-05
7.2615041e-09
7.4051165e-06
1.4959273e-05
0.0012795036
0.0002746872
6.0798162e-09
6.2572251e-09
0.00069867435
1.1701218e-08
1.1455314e-08
1.1570179e-08
0.0061076797
0.00060492217
3.0812858e-09
2.3813165e-09
4.9778737e-08
2.9275782e-09
3.3428874e-09
3.1999774e-09
0.0021847925
0.0016869696
0.00022827393
1.8032177e-09
1.3272511e-09
1.0429716e-06
0.00025047042
2.7981645e-09
3.1591414e-09
3.537072e-09
0.0041178122
0.0045857164
0.027805091
0.027801744
0.00019863583
9.29111e-08
9.2855427e-08
0.00080002389
2.6866983e-09
2.6491403e-09
0.0013135926
0.00047511032
4.1770933e-08
0.0045225977
0.016595058
0.00016572205
0.0049990675
0.017158929
0.017158929
0.0028810576
1.6738731e-09
3.8332764e-07
8.9605241e-05
0.0010821571
5.1222713e-09
0.00022817845
0.00014639887
6.0533164e-09
8.396117e-09
9.1555811e-10
7.8233402e-10
8.8893741e-10
5.1341966e-07
0.00014460156
0.00014488976
1.3745324e-06
6.7104323e-06
3.8080956e-08
3.4730641e-08
3.4369317e-08
3.419802e-08
4.4442489e-08
0.00033280443
2.3144691e-05
2.8870648e-06
0.00014722834
6.8975234e-09
3.2212107e-05
4.9031805e-05
4.8389004e-09
4.8388709e-09
5.4205317e-09
6.312148e-09
6.1857481e-05
3.1430355e-05
1.0817579e-08
1.0819119e-08
2.7257434e-05
0.0010549561
0.00041315256
2.3038897e-09
2.7068309e-09
0.0039362452
5.2801065e-05
0.0011897866
0.00037105701
0.0018037191
0.0010301498