/*--------------------------------*- C++ -*----------------------------------*\
| =========                 |                                                 |
| \\      /  F ield         | OpenFOAM: The Open Source CFD Toolbox           |
|  \\    /   O peration     | Version:  2.3.0                                 |
|   \\  /    A nd           | Web:      www.OpenFOAM.org                      |
|    \\/     M anipulation  |                                                 |
\*---------------------------------------------------------------------------*/
FoamFile
{
    version     2.0;
    format      ascii;
    class       volScalarField;
    location    "2.5e-05";
    object      k;
}
// * * * * * * * * * * * * * * * * * * * * * * * * * * * * * * * * * * * * * //

dimensions      [0 2 -2 0 0 0 0];

internalField   nonuniform List<scalar> 
7500
(
9.9986077e-06
1.000068e-05
1.0017922e-05
1.0016977e-05
1.0019905e-05
1.0029399e-05
1.0032933e-05
1.0038245e-05
1.0044878e-05
1.0047562e-05
1.0049427e-05
1.0049193e-05
1.0048647e-05
1.004831e-05
1.0048344e-05
1.0049008e-05
1.0051367e-05
1.0056309e-05
1.0064119e-05
1.0073919e-05
1.0082907e-05
1.0089556e-05
1.0094723e-05
1.0097666e-05
1.0100723e-05
1.0103881e-05
1.0108153e-05
1.0112912e-05
1.0118276e-05
1.0124909e-05
1.0131612e-05
1.0136505e-05
1.014271e-05
1.0145895e-05
1.0150892e-05
1.0153865e-05
1.0157203e-05
1.015905e-05
1.0158623e-05
1.0159691e-05
1.0162513e-05
1.0167679e-05
1.017351e-05
1.0174147e-05
1.0175095e-05
1.0176381e-05
1.0178107e-05
1.0181162e-05
1.0186607e-05
1.019219e-05
1.0204298e-05
1.0215496e-05
1.0239498e-05
1.0257981e-05
1.0295105e-05
1.0319886e-05
1.0369913e-05
1.0399331e-05
1.0453131e-05
1.048483e-05
1.0549434e-05
1.0584013e-05
1.0650628e-05
1.0691571e-05
1.0772577e-05
1.0826182e-05
1.093004e-05
1.0996896e-05
1.1123672e-05
1.11993e-05
1.1345297e-05
1.1431466e-05
1.1597859e-05
1.169934e-05
1.1970676e-05
9.9993844e-06
1.0002872e-05
1.001064e-05
1.0011809e-05
1.0014603e-05
1.0017732e-05
1.0020151e-05
1.002117e-05
1.0023155e-05
1.0023496e-05
1.0024099e-05
1.0024557e-05
1.0025491e-05
1.0027194e-05
1.0030106e-05
1.0036033e-05
1.0040391e-05
1.0048737e-05
1.0053666e-05
1.0062499e-05
1.0070714e-05
1.007921e-05
1.0093876e-05
1.0106286e-05
1.0129722e-05
1.0148245e-05
1.0177401e-05
1.0198623e-05
1.0225483e-05
1.0242894e-05
1.0261915e-05
1.027383e-05
1.028597e-05
1.0293872e-05
1.0301532e-05
1.0307625e-05
1.0312494e-05
1.0315734e-05
1.0320018e-05
1.0325652e-05
1.0332759e-05
1.0343212e-05
1.0356815e-05
1.0376107e-05
1.0400733e-05
1.0432521e-05
1.0479661e-05
1.0530945e-05
1.0609779e-05
1.0686382e-05
1.0819668e-05
1.0937454e-05
1.114694e-05
1.1310047e-05
1.1602329e-05
1.1821509e-05
1.2212069e-05
1.2484146e-05
1.2934179e-05
1.3272252e-05
1.3759059e-05
1.4133914e-05
1.4771041e-05
1.5218062e-05
1.5986202e-05
1.6545143e-05
1.7503846e-05
1.8211067e-05
1.9337941e-05
2.0086055e-05
2.1384432e-05
2.2198722e-05
2.3615527e-05
2.4572628e-05
2.690633e-05
1.0000217e-05
1.0003422e-05
1.0011751e-05
1.0014076e-05
1.0020794e-05
1.0023735e-05
1.0030108e-05
1.0032652e-05
1.0038738e-05
1.0041042e-05
1.0045515e-05
1.0049594e-05
1.0055725e-05
1.0066913e-05
1.007847e-05
1.0101629e-05
1.0120635e-05
1.0158306e-05
1.0187297e-05
1.0237732e-05
1.0291919e-05
1.0343936e-05
1.0439886e-05
1.0522407e-05
1.0673265e-05
1.079227e-05
1.0969325e-05
1.1098249e-05
1.1260833e-05
1.1364146e-05
1.1482512e-05
1.1553099e-05
1.1638157e-05
1.169842e-05
1.1772688e-05
1.1842511e-05
1.1929231e-05
1.2028409e-05
1.2153068e-05
1.231579e-05
1.2511338e-05
1.2816444e-05
1.3142449e-05
1.36664e-05
1.4170042e-05
1.4798788e-05
1.5826477e-05
1.6740459e-05
1.8116795e-05
1.9349136e-05
2.1439163e-05
2.3157705e-05
2.6063207e-05
2.8253855e-05
3.2057846e-05
3.4964982e-05
3.9966612e-05
4.3577831e-05
4.9381292e-05
5.3698992e-05
6.0043462e-05
6.5018698e-05
7.3144051e-05
7.8959615e-05
8.8660312e-05
9.5774143e-05
0.00010739923
0.00011626211
0.00012934449
0.00013826397
0.0001527103
0.00016211855
0.00017742487
0.0001882222
0.00021319598
1.0010748e-05
1.0024049e-05
1.0057242e-05
1.0068861e-05
1.00947e-05
1.0105184e-05
1.0130364e-05
1.0140021e-05
1.0167327e-05
1.018034e-05
1.0209228e-05
1.0235849e-05
1.0276539e-05
1.0344055e-05
1.0412017e-05
1.0536474e-05
1.0647479e-05
1.0814628e-05
1.1031604e-05
1.1211667e-05
1.1531735e-05
1.1769221e-05
1.2248818e-05
1.2627547e-05
1.335049e-05
1.3882443e-05
1.474563e-05
1.5340001e-05
1.6209237e-05
1.675021e-05
1.7547816e-05
1.8089196e-05
1.8957247e-05
1.9680064e-05
2.0860279e-05
2.1980378e-05
2.3848917e-05
2.5658028e-05
2.8443406e-05
3.2039677e-05
3.5427477e-05
4.1256195e-05
4.6579328e-05
5.5495661e-05
6.2844028e-05
7.3364772e-05
8.8673506e-05
0.00010109654
0.00011987062
0.00013659612
0.00016499222
0.00018619852
0.00022143896
0.00024743129
0.00029305581
0.00032679885
0.0003842253
0.00042465453
0.00048950824
0.00053483962
0.00060601388
0.00065905338
0.00074434939
0.00080499421
0.00090618542
0.00097881683
0.0010964579
0.001183892
0.0013118113
0.0013990358
0.0015329134
0.0016211256
0.0017604865
0.0018589067
0.0020810563
1.0047637e-05
1.0106375e-05
1.023177e-05
1.0279476e-05
1.0385225e-05
1.0425888e-05
1.0537457e-05
1.0583878e-05
1.0727873e-05
1.0799734e-05
1.0993398e-05
1.1106552e-05
1.1382662e-05
1.1589522e-05
1.2072806e-05
1.2412526e-05
1.3108887e-05
1.3573685e-05
1.4507864e-05
1.5120279e-05
1.6336893e-05
1.7198673e-05
1.8962555e-05
2.0279439e-05
2.2942276e-05
2.4893126e-05
2.8679705e-05
3.1433701e-05
3.6460187e-05
4.0351821e-05
4.7260747e-05
5.3219587e-05
6.3825514e-05
7.3413789e-05
9.0689005e-05
0.00010616199
0.00013421859
0.00015843543
0.00020001221
0.00024352625
0.00028716652
0.00036604055
0.00042869179
0.00053319553
0.00061426786
0.00074370241
0.00090460014
0.0010326628
0.0012306276
0.0014142535
0.0016944564
0.0018921882
0.0022262229
0.0024696672
0.0029018255
0.0032022272
0.0037128838
0.0040606578
0.0046219914
0.0050002273
0.0056079114
0.0060321072
0.0067145148
0.0071923934
0.0079986649
0.0085563883
0.0094650578
0.010121207
0.011070541
0.011735484
0.012677193
0.013299365
0.014274802
0.014950039
0.016459357
1.0087923e-05
1.0191027e-05
1.0438821e-05
1.0549473e-05
1.0853632e-05
1.1011105e-05
1.1454611e-05
1.1700399e-05
1.2360912e-05
1.2731507e-05
1.3617572e-05
1.413044e-05
1.5300175e-05
1.6065782e-05
1.7723843e-05
1.8765968e-05
2.0879944e-05
2.226844e-05
2.5019982e-05
2.7036884e-05
3.0949462e-05
3.4290082e-05
4.082066e-05
4.7103429e-05
5.9259857e-05
7.1280409e-05
9.4142715e-05
0.00011633901
0.00015774409
0.00019651431
0.00026791339
0.00033288806
0.00045249509
0.00055730117
0.00075174584
0.00091397042
0.0012173671
0.0014571727
0.0018969079
0.0022645276
0.0027336719
0.0034707789
0.0039979294
0.004907895
0.0055992059
0.0067952126
0.0079335229
0.0090630335
0.010579238
0.012092429
0.014068519
0.015469585
0.017911069
0.019642552
0.022684113
0.024662018
0.028029815
0.030388368
0.034010448
0.03636407
0.040210041
0.042726308
0.046811217
0.049626836
0.054410517
0.057589473
0.062815477
0.066524967
0.071764283
0.075448032
0.080451034
0.083725235
0.088844671
0.092281142
0.099914919
1.0192596e-05
1.0380688e-05
1.091114e-05
1.1283716e-05
1.2244241e-05
1.2913941e-05
1.4408872e-05
1.5359207e-05
1.7441003e-05
1.8703103e-05
2.1088819e-05
2.3081995e-05
2.543407e-05
2.8305633e-05
3.1465497e-05
3.4696722e-05
3.9884948e-05
4.485908e-05
5.4154412e-05
6.4475463e-05
8.4332548e-05
0.00010776211
0.00015354159
0.00020594379
0.00030764879
0.00041648395
0.00062549731
0.00083236441
0.0012249306
0.0015826813
0.0022542652
0.0028326621
0.0039119183
0.0047979025
0.0064607711
0.007751185
0.010203619
0.011995852
0.015395062
0.017808295
0.021762708
0.02632009
0.029772976
0.036004966
0.040465423
0.048535042
0.053844007
0.062761513
0.069995468
0.079887913
0.089853156
0.097702841
0.11163638
0.12058409
0.1358044
0.14577256
0.16278552
0.17535833
0.19238317
0.20333016
0.22141986
0.23288019
0.25157603
0.26425431
0.28546542
0.29929639
0.3223183
0.33802115
0.36040632
0.3758401
0.39646193
0.40990036
0.43048779
0.4442987
0.47453712
1.0643193e-05
1.2166288e-05
1.4068768e-05
1.5897188e-05
1.9082e-05
2.1231804e-05
2.4597492e-05
2.7017261e-05
3.1261582e-05
3.3692235e-05
3.7756206e-05
4.128166e-05
4.5856068e-05
5.1943171e-05
6.0523964e-05
7.2832752e-05
9.6043445e-05
0.00012926434
0.0001952292
0.00028243549
0.00046009731
0.00067232837
0.0011033264
0.0015687715
0.0024970599
0.0034123484
0.0052063388
0.0068395759
0.0099904905
0.012632813
0.017660047
0.021661397
0.029174897
0.034927248
0.045750867
0.053594467
0.068600117
0.078815636
0.098474658
0.11142652
0.13521514
0.15399631
0.17486479
0.20739202
0.22823533
0.26581076
0.29031866
0.33443257
0.36256058
0.41150241
0.44711996
0.48913769
0.54276941
0.57890296
0.63718297
0.68307668
0.74618462
0.79912394
0.85948677
0.9030451
0.97110983
1.0175107
1.0838256
1.1337208
1.2091293
1.2609291
1.3463071
1.4035045
1.4873306
1.5420956
1.6170141
1.6668643
1.7416153
1.7938861
1.9058982
1.1251293e-05
1.6597438e-05
1.8749931e-05
2.4265196e-05
2.6313239e-05
3.2215515e-05
3.4689332e-05
4.0302795e-05
4.4301458e-05
4.890279e-05
5.6083591e-05
6.5587538e-05
8.3232398e-05
0.00011277134
0.00016970035
0.00026760818
0.00047037744
0.00076315028
0.0013766726
0.0021288494
0.0037096067
0.0054175201
0.0089591047
0.012393253
0.019367234
0.02553327
0.03780932
0.047931441
0.067675866
0.082840164
0.11183098
0.1332391
0.17337284
0.20226426
0.25627955
0.29324317
0.36373889
0.40907312
0.49693378
0.55164999
0.65597067
0.7207274
0.83326014
0.9340155
1.0203426
1.1716027
1.2651594
1.4285782
1.5327658
1.7147868
1.8305463
2.0185876
2.1573574
2.3299413
2.4914964
2.6849252
2.8812659
3.078823
3.2855115
3.4679227
3.6927841
3.8995615
4.1086423
4.336071
4.5717373
4.7955325
5.1091125
5.337039
5.6525817
5.8592891
6.1657842
6.3862831
6.7120176
6.9581817
7.4614405
1.0380984e-05
1.3923606e-05
1.6053957e-05
2.3636251e-05
2.6798104e-05
3.6286216e-05
4.0464989e-05
5.1723699e-05
6.065499e-05
7.8291908e-05
0.00011134352
0.00017643685
0.00030463517
0.00054858657
0.0010554823
0.0018869242
0.0036848075
0.0059986376
0.010944863
0.01634933
0.027807053
0.038868595
0.061967673
0.082016376
0.12305561
0.15559061
0.22099599
0.26996344
0.36600132
0.43425831
0.56305177
0.65426766
0.8215163
0.93767232
1.1507506
1.2916347
1.5569844
1.7239665
2.0468409
2.2433944
2.6176251
2.8464285
3.2653307
3.5366508
3.9663434
4.3928829
4.7626693
5.3280463
5.7274168
6.3444337
6.7714126
7.4280813
7.8504065
8.5401535
9.0196145
9.829445
10.583094
11.454626
12.321769
13.150307
14.143101
15.114049
15.879322
17.010492
17.806853
19.02823
20.254149
21.246671
22.768867
24.005053
25.96568
27.387203
29.464942
30.896162
33.477144
1.1680323e-05
1.5895008e-05
1.8824583e-05
2.4604604e-05
2.7211861e-05
3.2249506e-05
4.2195432e-05
6.4530431e-05
0.00011660936
0.00023264865
0.00048724817
0.0010119116
0.0020502482
0.0040239158
0.0081598946
0.0141792
0.027314243
0.042191386
0.074054508
0.10501658
0.17048468
0.22716853
0.34516881
0.43754614
0.62596945
0.76184788
1.0358278
1.2259887
1.5964763
1.8552402
2.293828
2.664378
3.2062551
3.6430136
4.3453856
4.8292124
5.7263111
6.3134257
7.4286872
8.1258394
9.436373
10.254284
11.722938
12.706921
14.465588
15.806836
17.706967
19.621304
21.225622
23.575292
25.156885
27.684834
29.419096
32.361529
34.894373
39.73067
44.311934
48.771839
52.426506
57.471055
63.932557
67.103701
71.083782
77.338314
81.395527
89.459659
94.067278
100.74862
118.00799
128.37038
147.31583
155.55126
168.65268
174.60502
186.40812
1.3256827e-05
2.4981202e-05
3.1576872e-05
3.9000886e-05
4.8066578e-05
7.0250589e-05
0.0001278058
0.00028142136
0.00065630296
0.001512843
0.0033739981
0.0072395421
0.014484381
0.028601566
0.054719831
0.091597279
0.16660348
0.24466034
0.40564616
0.54794976
0.84328174
1.0761952
1.5541684
1.8987031
2.5911763
3.0646735
4.0193817
4.6621127
5.8702152
6.8747269
7.9847283
9.7053675
11.086001
12.938812
14.971813
16.859208
20.214761
22.473461
26.793162
29.513944
34.753947
37.857078
44.029791
48.435304
57.756284
63.702465
73.369465
79.75552
87.144672
97.884339
105.20864
119.94537
127.51485
154.88351
170.90483
220.69854
241.2135
247.76605
263.57489
311.21261
345.45269
349.58359
371.98345
429.38194
436.96736
495.48627
512.06187
573.8135
611.65785
620.50481
646.53995
682.47295
679.71568
700.94438
718.4087
1.2345763e-05
1.7970977e-05
2.3391403e-05
3.7285504e-05
8.1724775e-05
0.00023249632
0.00066665975
0.0018160081
0.0045131539
0.01041931
0.022961427
0.048650756
0.091154876
0.1851748
0.29619942
0.50955879
0.81287963
1.1831114
1.7937772
2.3583619
3.4250901
4.2383994
5.8421343
6.9616551
9.1809332
10.744398
13.900391
16.0559
20.067715
23.413849
27.554219
34.169832
38.590127
46.325312
52.588421
64.420624
77.979923
87.476976
109.95524
119.61166
147.42979
156.48805
201.60961
221.80828
294.85974
309.39796
349.38417
372.22326
421.0645
474.17346
520.23263
612.2422
622.48657
746.0045
704.1734
939.54323
914.90421
842.24406
955.10746
1057.8518
986.60633
832.51004
992.52108
934.36891
815.84071
902.44138
978.8987
917.34097
656.11527
667.46674
567.61562
493.64915
410.44934
458.42327
388.35491
1.1491281e-05
1.5897712e-05
3.0151743e-05
0.00010561729
0.00041172346
0.001452116
0.0043836333
0.011768121
0.028317322
0.06303922
0.13756576
0.27198165
0.48486066
0.92507081
1.3777011
2.3692797
3.212775
4.9717127
6.4016017
8.9635837
11.708625
14.752829
19.489214
23.197835
30.749806
36.379631
47.94464
55.688499
70.855206
84.436741
105.38125
130.79366
150.19185
185.74635
220.91491
312.16292
347.94944
406.80197
536.15577
556.21995
704.88601
714.83945
897.27024
862.52734
1142.3542
1034.3214
1014.4657
1002.2347
1032.0969
1103.1078
1076.2904
903.40477
935.03299
828.78896
726.37006
780.50551
515.81068
517.97563
641.29942
342.4729
266.04693
288.70683
339.26857
195.30381
198.07522
208.5897
238.8144
118.07403
59.126046
57.377179
39.731866
32.478471
31.643113
32.716048
25.296003
1.0394849e-05
2.1798758e-05
0.00011550423
0.00064405447
0.002734182
0.0093217234
0.026835014
0.068265984
0.15551019
0.33340613
0.7283118
1.2349603
2.2375044
3.6862975
5.3773524
8.6967966
11.414292
17.121079
21.438494
30.437796
37.334492
50.462822
62.945411
79.258418
111.24303
133.41635
183.54432
213.10928
295.07092
370.44991
474.85326
583.82963
677.41538
889.66754
904.74373
1189.4426
1096.1786
1341.316
1258.4137
1248.9949
1278.5845
1070.3711
1082.2833
910.65837
795.30499
576.60664
450.61136
301.15078
301.5172
290.29022
204.43572
141.33642
162.89618
82.828436
138.34102
79.213442
39.728339
103.75079
107.3206
27.630253
17.387556
47.512557
35.221994
14.869443
43.146639
51.109473
19.001377
9.1550429
7.4156444
7.2214325
5.708791
5.0320766
5.694811
6.099677
5.6318151
9.7193711e-06
7.4220829e-05
0.00073020651
0.0041334065
0.016730836
0.053194506
0.14370339
0.34512613
0.73769257
1.5567876
3.0022491
4.8870017
8.6937178
12.294653
19.422108
27.936705
37.410975
55.767929
69.767836
102.25063
128.20388
181.68243
226.07056
329.28388
472.66086
572.43296
814.26566
920.03285
1166.1163
1263.6733
1393.8088
1438.6957
1467.1279
1325.1772
1089.7393
1071.8109
809.73491
725.97566
364.60176
402.11209
205.56358
210.28056
182.50567
176.40883
82.45184
43.097553
34.32809
31.226174
34.167268
29.581227
15.925115
13.484903
17.953807
12.185263
32.615612
17.58095
19.59355
48.711595
22.267719
7.2389352
7.4240726
18.026287
17.760409
8.3276343
33.465954
24.173863
8.4198313
5.2000603
5.2932725
5.21767
4.4904929
4.0198954
4.1658681
4.6214765
4.5934722
9.7684925e-06
0.00048225836
0.0046730889
0.024246808
0.090173749
0.26469482
0.66900303
1.5217698
3.0254581
6.4316507
10.229671
17.556785
27.515617
40.093775
65.257519
86.591996
129.98805
187.14866
241.81449
398.85106
509.25609
771.49575
931.76592
1276.8907
1363.6974
1542.4395
1625.9912
1517.701
1334.5926
1081.3951
851.31473
712.83896
331.41451
247.98546
223.89934
120.49882
170.7642
82.307956
35.824857
39.592074
21.299331
30.357692
16.819782
37.661817
14.598877
11.97774
9.4786256
7.4371649
16.905705
11.477015
8.3695569
7.4331537
7.2646868
6.4170814
16.658919
15.016861
22.258199
31.40553
14.908483
6.9039393
5.96579
11.743173
7.2803378
7.1053264
16.334776
11.3201
5.7333323
4.5314666
5.3698574
5.0013918
4.6225822
4.8220568
4.3613967
4.6380863
4.7651173
1.528832e-05
0.0030989062
0.026933187
0.12619546
0.42535363
1.1466588
2.7207675
5.7085535
10.971543
21.355513
33.182354
57.0414
84.457396
138.0442
216.41349
298.6594
514.62922
706.05075
969.22383
1388.0021
1466.9465
1760.1057
1522.4259
1401.2414
1002.958
849.05488
420.18467
478.44604
210.41705
158.43827
99.675669
67.42316
25.223652
20.915802
31.984605
20.70342
45.138558
12.507297
20.243348
14.828919
8.0401906
11.27242
10.47329
13.686696
7.8523373
10.235827
8.2915871
5.8869177
8.8665723
8.6712312
7.4665653
6.7894866
8.5385509
7.630246
11.201457
14.327594
20.336566
23.906052
10.242347
6.993258
6.0092584
8.0985436
13.074817
9.9221157
15.29639
8.682113
5.1092529
4.000068
4.3210144
4.4001922
4.5652365
3.9175098
3.4114734
3.5811081
4.2527425
0.00020326162
0.017716736
0.13658041
0.57538582
1.7536736
4.3509242
9.8178757
18.830563
37.249992
64.67014
104.97227
182.63983
290.06787
527.35206
804.09592
1195.7568
1540.8504
1654.6289
1773.5532
1551.1112
1200.8857
869.05923
357.8767
228.60378
126.27986
109.67192
40.033929
74.614846
18.231839
21.402633
10.249085
4.6266202
5.3897746
4.4912465
7.0752509
9.866453
6.5662932
5.1219697
20.684314
10.86853
7.8128158
8.3498011
12.270429
5.9179849
11.527986
7.9313726
7.4045613
7.8425737
11.273991
11.132973
7.8425157
6.3016329
7.2350183
7.0725872
8.3560571
11.047565
11.486004
18.834292
8.9577302
9.1477721
9.0479092
10.020219
7.2339188
5.9831912
9.2199755
7.1609847
4.7880125
3.8654377
3.9926854
4.7314326
7.6892031
5.745039
4.0636481
4.1273299
4.5672157
0.00057672416
0.093556793
0.61822939
2.3052756
6.3485775
14.610888
30.631084
59.509855
117.70402
200.27942
358.20007
675.4301
1151.573
1620.1419
1880.0947
1852.4419
1455.2156
897.2621
557.25207
311.62903
226.23428
100.59435
35.448624
25.301834
14.76272
20.705677
6.4524236
8.1755474
4.8161033
5.8681261
1.4398528
1.2042292
2.0606712
4.095348
2.8884321
5.1492228
6.1534461
6.0942928
18.920799
11.70225
7.8181999
7.0139069
16.658409
9.1937129
15.012277
7.5079517
5.7415987
16.168885
12.222974
12.937938
9.3709607
7.0911654
8.3536009
7.1017692
6.9195053
10.446966
9.1005677
17.234175
8.6392513
10.050999
12.751658
9.2146889
9.3607379
6.9272617
9.0500275
4.8131311
3.715429
3.811462
4.7005281
5.1527135
10.80781
8.737943
6.0261573
5.6858562
5.1567001
0.0072893805
0.44546195
2.4914647
8.1516312
20.483158
44.837147
92.277278
190.17804
379.3304
716.3913
1424.7642
1819.5684
1985.8775
1722.8325
1024.0786
480.24691
212.88041
136.54222
68.01961
55.831276
58.542801
27.459909
11.717097
5.0899777
5.4265004
7.5474031
2.461079
2.1046377
3.1691599
6.5845136
1.1810622
1.2766885
3.6249278
2.6251695
2.6857753
5.5518324
6.6982961
7.3757866
32.001753
9.2136814
8.0504879
6.1833944
9.2941391
6.0946292
11.102786
6.5182659
5.2159368
7.4088377
8.3896691
13.460459
9.2284579
7.2117471
8.7394366
7.4355933
7.0152555
11.877186
6.7006401
15.547471
8.3355879
10.157464
26.981783
6.9037837
19.375616
8.5519134
8.0541276
4.9628266
3.8400037
3.8283209
5.1520966
5.3200138
9.8828321
10.369302
8.3334307
6.3502929
5.2379996
0.057545178
1.896555
8.8982421
25.69379
60.629895
132.13028
286.43966
661.30226
1434.3662
1813.57
2113.3477
1651.1284
665.3871
343.57201
131.44313
53.081865
22.432161
29.177183
9.367801
10.605644
16.16332
15.055011
7.3445325
4.9170036
5.4577606
3.2326545
2.4278287
1.7924726
3.7689888
5.9643511
2.2238537
1.3048079
4.3124193
1.9686844
3.4322603
5.1536347
2.7155712
7.7797019
10.253829
7.2278399
4.3291727
5.2134648
5.0884529
4.092942
6.6897923
5.9137704
4.5423452
8.4413558
12.981868
12.213324
15.321502
7.0031029
6.5950348
6.3434789
6.8922407
11.435149
10.086592
6.0289522
6.2581498
5.8942515
43.254275
13.742846
12.736747
6.726774
5.6201942
4.8681866
4.4413385
3.6524647
4.48277
5.1061931
6.8304792
8.195534
7.7285644
5.9672553
5.1356599
0.36012033
7.2259336
28.424175
74.00029
172.60605
399.27112
1006.9161
1810.0309
2283.3048
1676.4317
719.72895
317.56449
82.772354
56.695677
12.43795
4.6563417
2.7819913
8.6767796
3.5910013
4.1435187
6.1297882
11.898904
4.1761216
2.7401367
3.3170324
4.051425
1.8005062
1.8855385
4.1137365
5.1878236
3.0955015
2.1125549
1.767468
1.4169937
2.5574179
4.2717663
2.1718859
3.3050149
3.9446381
6.5554696
4.2188209
4.0221957
4.0257736
4.6520131
9.7473221
6.0872145
4.4417167
6.3326945
12.446058
6.1188631
6.0170084
4.365098
6.0813862
7.1525148
7.9812197
9.1931257
7.0944391
5.2984305
8.1983872
6.9588004
15.002673
14.656445
6.8505835
9.4706252
5.5068745
5.9347457
4.7307932
3.4154213
4.2548631
5.3105206
6.6262788
7.8486929
6.7379413
5.0858298
5.1146911
1.9183541
24.745473
82.818809
201.82761
505.98505
1369.6749
1965.3934
1844.9306
902.32376
368.82379
133.35389
34.296785
7.3557892
7.4536848
1.7515187
0.84333757
0.99954991
2.0573761
1.7831267
3.3158146
4.2188081
6.1002867
2.5669281
1.6450126
3.6175096
9.8159479
1.4184443
2.0996383
4.4805011
4.0140422
3.196161
2.8060259
1.3613466
1.1073295
1.8255655
3.392141
1.970632
2.5547823
3.5552167
7.4592993
4.3525402
3.2715172
5.9586341
5.9292259
10.636376
5.8057111
3.6077301
3.9801074
11.103684
6.0778343
3.8558498
4.0472849
4.3822532
7.4169891
7.5155951
7.8858635
5.8955204
6.6141245
6.5562023
13.922693
10.822845
13.522341
8.9529297
8.0152495
7.6718386
6.0777245
4.0767294
3.3976055
4.5227944
4.9656942
6.8391362
5.2983324
4.6023335
4.8372821
5.6410698
8.9616091
77.192332
225.52729
553.03511
1657.8557
2178.1518
1409.3849
502.15473
182.62258
51.02951
14.547886
2.6988131
0.89094191
1.3841359
1.0242739
0.64731034
0.80960649
1.0146812
1.979092
2.8253783
2.7486239
1.9009235
2.2766785
1.5601756
3.5713045
10.136454
1.841181
2.6455358
4.9217214
3.6649706
3.9121626
2.5464694
1.3456693
1.0943824
1.5199781
3.0923807
1.7569104
2.0993764
4.2798621
4.92256
2.6365612
3.5758132
6.421657
3.9974637
3.8344883
3.1185567
3.2407414
3.6818735
10.284755
4.7839525
4.1458066
4.388029
4.1890314
4.4890211
7.7594526
7.0782906
4.7940503
7.4651399
6.7356657
19.386145
13.761088
12.685442
8.4111663
8.2445723
7.83023
5.7195434
3.4462786
3.4107678
4.7927456
4.4866409
4.1870029
4.1586227
4.3981262
5.761629
7.129201
37.588563
221.93215
599.64278
1655.4524
2265.8948
1152.477
459.09101
116.36222
23.898118
5.8359294
1.6552612
0.84601971
0.46356525
0.56988175
1.0299178
0.68155418
0.8091086
0.76250543
1.6674228
2.4572652
2.3653608
1.6648522
2.7023128
1.969818
3.8933048
5.006006
2.943278
4.389765
5.113433
3.3697893
3.5577022
1.854615
1.3706928
1.2261489
1.2858997
3.00886
1.7506544
2.1321249
3.7270585
2.4507068
1.9952033
5.3428663
3.6034787
4.2199301
2.6844485
2.8011684
3.2784717
3.7722365
7.6755292
4.0826371
4.8847688
5.0168727
4.2495271
6.9427792
7.4177836
6.2818631
5.8288178
5.9486317
5.9521947
16.040458
12.331322
11.293678
7.4003008
5.8047346
4.3907975
3.8800271
3.0238162
2.9920274
4.9409078
4.5083045
4.2254624
4.354482
5.7178592
8.0188966
7.8062405
144.95579
598.20907
1672.1305
2182.32
1083.5466
339.45776
101.72487
13.92169
2.1415175
0.78636627
0.54336486
0.76242564
0.45177417
0.50505802
1.1207505
0.71547082
0.83906964
0.72695403
1.4557185
2.2131328
1.948009
1.6769001
2.6688341
2.0191329
6.1622506
3.8160401
4.3007779
16.656342
5.4056488
2.822387
2.5696349
1.7024856
1.3684837
1.3041531
1.194084
2.6020837
1.803777
3.2287705
2.2786144
2.084125
1.8194307
5.4488569
3.1038361
2.7175753
2.3036764
2.9002949
3.9588037
4.252692
5.46616
3.7792609
3.3434463
5.3395391
4.1672985
5.0849092
7.9969583
6.2851288
6.1704882
4.0748778
7.8219458
8.6682724
10.416369
9.972484
6.5520342
4.7372284
4.3016976
2.5014334
2.5482918
2.7441301
5.6133096
4.8092952
4.9323044
5.4421269
8.8310016
8.6908388
7.8509783
482.54223
1608.967
2650.1987
1346.3746
375.039
65.34797
13.014923
1.5283366
0.39932258
0.22976528
0.44927068
0.87127641
0.50959721
0.63902613
1.166046
0.74000654
0.8377717
0.73779632
1.3493238
1.9448396
1.363774
1.7658661
1.9921826
1.9493708
6.3494786
3.7520209
4.8014489
36.352969
5.7117259
2.9437405
2.1642857
1.7064448
1.5763032
1.2469261
1.1941457
2.0901065
1.8001927
3.7404696
2.1567198
2.1513008
1.9439623
2.2800118
3.0881698
2.5677842
2.465473
3.8379124
4.723747
5.2863423
4.5811681
3.6719682
3.3726565
3.9853762
3.6223048
4.1982453
6.6251989
7.4131897
5.1153929
3.7773295
4.7114892
7.4659898
9.7182995
9.5665712
6.4862108
4.2464023
4.593205
1.9874532
2.3609238
2.7896561
5.8162067
5.8557285
6.2459436
7.1837131
9.7868
8.6279455
7.307538
1466.4332
3197.3635
2096.9806
552.78003
73.908235
8.0785572
1.571976
0.50428206
0.34677583
0.17541509
0.43776755
0.94318437
0.53419361
0.88958709
1.3016724
0.73525413
0.8143154
0.80744289
1.2602841
1.7115381
1.2237219
1.7671857
2.037065
1.8080928
3.1324154
2.6762136
4.1462918
26.62634
5.2591976
4.3632967
2.2794217
2.0674862
1.7995465
1.3161173
1.4033697
1.9593556
1.8301259
3.6260356
1.7708766
1.8261332
1.9433033
1.967828
3.5121937
2.9209312
2.7503135
6.1146435
5.6861452
5.9807877
4.4533096
3.5900027
3.9300732
2.982546
2.914523
4.6837593
6.4654272
7.656747
4.8966798
4.4851751
3.6858485
8.0748586
7.5105921
8.5758948
6.3407595
4.1205937
3.997676
1.7804105
1.8006445
3.1667716
6.1212188
7.1582014
6.8242358
7.6930247
8.9265401
6.9100004
6.6487459
4226.3604
3396.1479
760.7203
108.00806
8.0091813
1.0630658
0.45339979
0.47089793
0.5793527
0.17894619
0.43627437
0.94370039
0.55290171
1.0218608
1.4306235
0.75829038
0.79945771
1.061185
1.1772668
1.555435
1.2314812
1.7808195
2.5673
1.4646205
1.3908047
1.768144
3.0154388
6.5371061
3.7138757
8.5520105
3.0371499
2.5591653
1.9586072
1.355184
1.5482671
1.8004347
1.9695714
3.4968102
1.7907042
1.8453478
2.4029782
1.9449598
2.2862613
3.9520848
3.6809539
7.7432215
5.8834163
5.9511662
4.4694622
4.0830779
3.0013152
2.7038024
2.7680684
3.9484982
7.3091823
6.7550598
5.4861009
5.1826589
5.2751646
6.1561627
7.1987217
8.3126642
6.9307709
3.9676445
4.1792282
1.5897428
1.6970256
4.4778547
6.9809255
8.2841709
6.8383242
7.698544
7.7748856
5.9167724
6.037787
7961.0706
1666.5867
133.29687
12.63073
0.98661218
0.35684126
0.35838115
0.60086507
0.9566147
0.21500335
0.4389035
0.9466703
0.56880631
1.0395336
1.6093538
0.82267651
0.77778653
1.3272832
1.1099729
1.4195862
1.5422472
2.0110005
2.5143554
1.380489
1.6704221
1.6302476
2.4593762
3.5445145
3.5488662
13.312406
3.5005934
3.0893279
2.1129793
1.3674328
1.4030279
1.7727195
2.2249193
3.7978322
1.7963869
1.6882145
2.7803
1.5850761
1.6363356
5.997204
4.4123239
5.5993737
3.0562207
4.5079429
4.509077
4.3698585
2.6330535
3.0463386
2.8483826
4.5131627
5.6397436
5.322384
8.8649857
4.4737459
9.6784835
5.3927005
6.6596745
8.6501314
6.8044441
3.1417136
3.0144113
1.351897
1.6793113
6.3569218
7.4618749
8.5987884
6.0668301
7.8343528
7.3110219
5.7168241
5.756281
1591.3514
286.28094
13.254078
1.42095
0.50145703
0.29349361
0.36641001
0.75874342
1.2005647
0.27301563
0.43953104
0.94540917
0.65647752
0.97550367
1.8107489
0.8646968
0.71972016
1.3308066
1.082609
1.4480722
2.4782865
2.0763654
2.0634833
2.559087
1.9685203
1.633816
1.9892299
4.1117464
3.5219753
11.859125
5.912391
3.8029633
2.1819848
1.434955
1.3881769
1.74015
2.3526218
6.2148675
2.1242427
2.0232178
2.2389821
1.5148215
1.6163404
4.0947569
3.2613827
3.0293549
2.2303171
2.5105953
5.0320856
5.0849095
2.7781829
3.1444485
2.8423653
4.8051837
4.1338557
4.5531505
8.7739718
6.3810013
14.765343
5.8070841
7.1936017
8.2852577
4.9658526
3.1285642
2.4899211
1.1868784
1.9581272
7.037036
7.6035472
8.6441132
5.412559
8.5009106
7.4456617
6.1018856
5.3961813
115.42261
25.230528
1.2591317
0.50086787
0.52473834
0.28882621
0.39864099
0.87124147
1.229399
0.36820122
0.43585383
0.94634496
1.2339483
0.97418494
2.039163
0.92451763
0.67964056
1.1372986
1.0907344
1.5348912
3.533917
2.1358974
1.433826
3.6609609
1.864449
1.546408
1.7665715
2.8226706
2.6593463
3.157753
4.5938508
4.2612455
2.1836603
1.4519601
1.6215451
1.7165867
2.2287804
9.9971762
2.8437359
2.9669887
1.9696343
1.6436643
1.7569898
4.3955242
3.3329037
2.5144604
1.7977096
2.3440489
5.6813917
5.4841459
2.8567738
2.4544077
2.3430368
3.6131541
3.3856868
3.9383677
7.2374385
8.9052634
11.108137
6.0578474
6.7473799
6.8689845
3.8295176
4.1406851
2.550032
1.0094693
2.9995625
6.820483
7.134837
7.1119867
5.2763658
8.8297597
8.4111106
7.0193661
5.3390196
4.7200202
1.8306247
0.51840005
0.44698312
0.5607996
0.29059066
0.43082263
0.88877851
1.1082914
0.52070331
0.43185938
0.98902701
3.4235757
1.2999092
2.3155042
0.97766005
0.65288151
0.78595136
1.1025869
1.6306073
3.6684719
2.241066
1.3297611
2.0024775
1.3629691
1.3135547
1.794638
2.0128534
2.4410696
3.8268812
7.4489628
4.8016944
1.7458431
1.3903221
1.806184
1.750987
1.9126181
10.209439
5.1759162
4.4123929
2.3130587
2.0109498
1.8523957
2.89694
2.3912376
2.1686112
1.8002131
2.5171813
5.2093674
4.6001484
2.5776501
2.3233177
2.3565416
2.5497175
3.3265359
3.6167575
6.6742662
8.1261934
6.3427786
5.6208716
7.1811861
6.1638644
3.7338444
4.4214125
2.4460367
0.90810279
3.6775591
6.9996336
6.7276982
6.4164188
5.4409489
7.4409789
9.5113656
7.2037617
5.005347
1.0565828
0.71027907
0.49441571
0.44799957
0.56656339
0.29552724
0.4555003
0.86021496
1.0827979
0.76485844
0.43680254
1.1334794
8.089189
2.2858527
2.5322174
0.98321379
0.64889728
0.55773772
1.1056023
1.6231845
2.8620748
2.2481876
1.3561565
1.1324929
1.1361835
1.1583927
1.3976535
1.7382326
2.3455076
2.552129
6.5885382
4.3722849
1.4013138
1.3127976
4.7342767
1.9665646
1.9099123
3.4694181
5.5102245
4.8776315
2.7719099
2.2475177
1.8990919
2.255304
2.02593
2.1432264
2.1102912
2.8848279
4.7739255
2.884321
2.2688128
2.5514562
2.7895762
2.5436366
4.5031117
3.8678398
5.8781566
6.3891114
5.1840679
5.7722092
7.2722642
6.4928144
4.1505701
4.3698871
2.7236261
0.82482996
3.8279176
7.139376
6.6032958
6.5200412
6.1305435
6.1347424
9.460571
6.990927
3.2334069
0.96219615
0.67589346
0.50438568
0.44586599
0.55948857
0.30361774
0.47206116
0.81710079
1.2222382
1.3505529
0.46954652
1.2183994
10.201901
4.1862358
2.6429479
0.90400815
0.64353912
0.44493319
1.0463031
1.6008542
2.5827885
2.2199255
1.1416605
1.1628096
1.0891831
1.1276458
1.3586385
1.8439855
2.3900511
2.3572755
5.4881611
2.4772771
1.2439323
1.3181557
10.017349
2.7502401
2.3104356
2.2217803
3.8847883
3.7872008
3.8632389
2.3972168
2.1507938
2.2790596
2.0009284
2.2680877
2.814197
2.9336395
4.4148329
2.4927908
2.3599205
2.701645