/*--------------------------------*- C++ -*----------------------------------*\
| =========                 |                                                 |
| \\      /  F ield         | OpenFOAM: The Open Source CFD Toolbox           |
|  \\    /   O peration     | Version:  2.3.0                                 |
|   \\  /    A nd           | Web:      www.OpenFOAM.org                      |
|    \\/     M anipulation  |                                                 |
\*---------------------------------------------------------------------------*/
FoamFile
{
    version     2.0;
    format      ascii;
    class       volScalarField;
    location    "2.5e-05";
    object      nuSgs;
}
// * * * * * * * * * * * * * * * * * * * * * * * * * * * * * * * * * * * * * //

dimensions      [0 2 -1 0 0 0 0];

internalField   nonuniform List<scalar> 
7500
(
4.1404016e-10
4.1906927e-10
4.2437522e-10
4.2925418e-10
4.3417098e-10
4.3918729e-10
4.4403054e-10
4.4886951e-10
4.5369511e-10
4.5838796e-10
4.6301747e-10
4.675533e-10
4.7203601e-10
4.7647771e-10
4.8088246e-10
4.8525675e-10
4.896269e-10
4.9401579e-10
4.9843205e-10
5.0285542e-10
5.0721656e-10
5.1147618e-10
5.1565479e-10
5.1973238e-10
5.2376828e-10
5.2776215e-10
5.317407e-10
5.3568789e-10
5.3960711e-10
5.4351645e-10
5.4738418e-10
5.5115917e-10
5.5492584e-10
5.5856556e-10
5.6221061e-10
5.6575499e-10
5.692646e-10
5.7268732e-10
5.7600017e-10
5.8514801e-10
5.88827e-10
5.9253213e-10
5.9621535e-10
5.9970433e-10
6.0315957e-10
6.06582e-10
6.0997486e-10
6.1336512e-10
6.1678547e-10
6.2016849e-10
6.2370939e-10
6.2718261e-10
6.3101037e-10
6.3463037e-10
6.3879046e-10
6.4253165e-10
6.4702347e-10
6.5083734e-10
6.5537903e-10
6.5919275e-10
6.640058e-10
6.6783887e-10
6.7264721e-10
6.7660966e-10
6.818043e-10
6.8609666e-10
6.9194532e-10
6.9658661e-10
7.0308782e-10
7.0793429e-10
7.1496428e-10
7.2006801e-10
7.2765434e-10
7.3315931e-10
7.4392056e-10
4.5546187e-10
4.6102672e-10
4.6664305e-10
4.7205778e-10
4.774617e-10
4.8282495e-10
4.8812236e-10
4.9333634e-10
4.9852468e-10
5.0362254e-10
5.0867698e-10
5.1367783e-10
5.1864098e-10
5.2357449e-10
5.2849043e-10
5.3343769e-10
5.3829542e-10
5.4321275e-10
5.4799044e-10
5.5282736e-10
5.5760077e-10
5.6233526e-10
5.6719647e-10
5.719496e-10
5.7697156e-10
5.8181148e-10
5.8691489e-10
5.917485e-10
5.9670408e-10
6.0134149e-10
6.0598221e-10
6.1036806e-10
6.1471422e-10
6.1888653e-10
6.2300354e-10
6.2702475e-10
6.3095975e-10
6.347954e-10
6.3861353e-10
6.4889871e-10
6.5311247e-10
6.5738742e-10
6.6171891e-10
6.6618997e-10
6.7079164e-10
6.7558524e-10
6.8083949e-10
6.8619375e-10
6.9241303e-10
6.9852827e-10
7.0646456e-10
7.1386334e-10
7.2421526e-10
7.3301826e-10
7.4594761e-10
7.5646044e-10
7.7236003e-10
7.8440773e-10
8.0192078e-10
8.1582444e-10
8.3415037e-10
8.4892712e-10
8.7136073e-10
8.879526e-10
9.1361931e-10
9.3298698e-10
9.6320855e-10
9.8605344e-10
1.0197255e-09
1.0428876e-09
1.079737e-09
1.1037716e-09
1.142162e-09
1.1687891e-09
1.2268378e-09
5.0102891e-10
5.0714334e-10
5.1333583e-10
5.1932234e-10
5.2537018e-10
5.3126657e-10
5.3720131e-10
5.4298078e-10
5.4880328e-10
5.5446945e-10
5.6014209e-10
5.6575078e-10
5.7136468e-10
5.7707146e-10
5.8273938e-10
5.8869596e-10
5.9448644e-10
6.0078286e-10
6.0678234e-10
6.1338218e-10
6.2006052e-10
6.2663937e-10
6.3451971e-10
6.4196627e-10
6.5147383e-10
6.5998779e-10
6.7025385e-10
6.7902584e-10
6.88803e-10
6.9674027e-10
7.0510987e-10
7.1197957e-10
7.1925919e-10
7.2573479e-10
7.3260541e-10
7.3929873e-10
7.4648094e-10
7.5401586e-10
7.6231336e-10
7.7954642e-10
7.90541e-10
8.0495227e-10
8.1995737e-10
8.4100894e-10
8.6125929e-10
8.8509784e-10
9.2035618e-10
9.5167673e-10
9.9528032e-10
1.0339323e-09
1.093906e-09
1.1426084e-09
1.2181379e-09
1.2744246e-09
1.363941e-09
1.4310641e-09
1.536974e-09
1.612085e-09
1.7235979e-09
1.8050954e-09
1.9167944e-09
2.0028619e-09
2.1329203e-09
2.2248734e-09
2.3667366e-09
2.469205e-09
2.6245017e-09
2.7405929e-09
2.9009807e-09
3.0097982e-09
3.1739199e-09
3.2811363e-09
3.4437279e-09
3.5582664e-09
3.7987622e-09
5.5142193e-10
5.5843252e-10
5.6595083e-10
5.7281506e-10
5.8003439e-10
5.867627e-10
5.9386737e-10
6.0046639e-10
6.0753766e-10
6.1413246e-10
6.2115681e-10
6.2806634e-10
6.3536432e-10
6.4345704e-10
6.5153414e-10
6.6135659e-10
6.7073991e-10
6.8187594e-10
6.945691e-10
7.0608512e-10
7.2198124e-10
7.3526061e-10
7.5602647e-10
7.7358286e-10
8.0147434e-10
8.2338915e-10
8.548181e-10
8.7814142e-10
9.0904156e-10
9.3047631e-10
9.588321e-10
9.7998765e-10
1.0097727e-09
1.0354289e-09
1.0727167e-09
1.1079198e-09
1.1610195e-09
1.2113809e-09
1.2828446e-09
1.383081e-09
1.4633065e-09
1.5886332e-09
1.6980185e-09
1.8642139e-09
1.9951385e-09
2.1677774e-09
2.3963675e-09
2.5725665e-09
2.8161371e-09
3.021852e-09
3.338109e-09
3.5639405e-09
3.9057302e-09
4.1485399e-09
4.5362425e-09
4.8125514e-09
5.2420785e-09
5.5356126e-09
5.9693551e-09
6.2664498e-09
6.6984858e-09
7.0143083e-09
7.4845591e-09
7.8143321e-09
8.3231271e-09
8.683132e-09
9.224332e-09
9.61998e-09
1.0162469e-08
1.0531494e-08
1.1061481e-08
1.141324e-08
1.1932477e-08
1.230055e-08
1.305531e-08
5.9880387e-10
6.0825667e-10
6.1970792e-10
6.287948e-10
6.3964018e-10
6.4846156e-10
6.594685e-10
6.6841831e-10
6.8043481e-10
6.9015488e-10
7.0376123e-10
7.1479202e-10
7.3106547e-10
7.4512163e-10
7.6802685e-10
7.8632133e-10
8.1577858e-10
8.3787882e-10
8.7418292e-10
9.0048346e-10
9.4428797e-10
9.7728507e-10
1.0349229e-09
1.0792113e-09
1.1573114e-09
1.2152373e-09
1.3147262e-09
1.3871097e-09
1.5053145e-09
1.5954931e-09
1.739407e-09
1.8591623e-09
2.0504702e-09
2.2144454e-09
2.4781037e-09
2.6992292e-09
3.0550804e-09
3.3408149e-09
3.7775846e-09
4.194393e-09
4.5827355e-09
5.2051869e-09
5.6664502e-09
6.3562676e-09
6.8613981e-09
7.592122e-09
8.4193293e-09
9.044205e-09
9.9255237e-09
1.0695727e-08
1.1767296e-08
1.2497328e-08
1.3622356e-08
1.4417165e-08
1.57018e-08
1.6571197e-08
1.7924989e-08
1.8829496e-08
2.017691e-08
2.1076444e-08
2.2414477e-08
2.3342737e-08
2.4727363e-08
2.5693596e-08
2.7200659e-08
2.823993e-08
2.9812148e-08
3.0940473e-08
3.2474365e-08
3.3552026e-08
3.4991189e-08
3.5959095e-08
3.7375929e-08
3.837157e-08
4.0387261e-08
6.3415754e-10
6.4609586e-10
6.6265053e-10
6.7488212e-10
6.9333038e-10
7.0712809e-10
7.3012269e-10
7.4683588e-10
7.7672693e-10
7.9744946e-10
8.3413794e-10
8.5920702e-10
9.0387782e-10
9.3619439e-10
9.9371504e-10
1.0331245e-09
1.1008663e-09
1.1482542e-09
1.2290862e-09
1.2899922e-09
1.3932572e-09
1.4801737e-09
1.629752e-09
1.7664112e-09
1.9987678e-09
2.2111469e-09
2.562782e-09
2.8727875e-09
3.3727013e-09
3.7948817e-09
4.4662053e-09
5.0173292e-09
5.8946125e-09
6.5911634e-09
7.7119887e-09
8.5655791e-09
9.9565355e-09
1.0970029e-08
1.2603149e-08
1.3864311e-08
1.5335109e-08
1.7393336e-08
1.8788627e-08
2.0950111e-08
2.2517338e-08
2.4958883e-08
2.7132001e-08
2.9172041e-08
3.1702625e-08
3.4089467e-08
3.6977802e-08
3.8991359e-08
4.2185305e-08
4.4415102e-08
4.7982659e-08
5.0291012e-08
5.388903e-08
5.6392344e-08
5.9953062e-08
6.2293566e-08
6.581721e-08
6.8163064e-08
7.1675382e-08
7.4133039e-08
7.7968409e-08
8.0563478e-08
8.4499761e-08
8.7324566e-08
9.1072463e-08
9.3758981e-08
9.7202697e-08
9.954792e-08
1.0293888e-07
1.053049e-07
1.0997766e-07
6.6258199e-10
6.7838266e-10
7.0539508e-10
7.2733509e-10
7.6800652e-10
7.9928563e-10
8.5535813e-10
8.9447444e-10
9.6519093e-10
1.0118702e-09
1.0875121e-09
1.1512959e-09
1.2226596e-09
1.3046351e-09
1.3910253e-09
1.4768607e-09
1.6006345e-09
1.7156241e-09
1.9047686e-09
2.099771e-09
2.4257424e-09
2.7693467e-09
3.3379603e-09
3.9029653e-09
4.8153752e-09
5.6547762e-09
6.993199e-09
8.1395684e-09
9.9613417e-09
1.1421251e-08
1.3747161e-08
1.5539657e-08
1.8412538e-08
2.055709e-08
2.4045776e-08
2.6545201e-08
3.0692352e-08
3.353254e-08
3.8272537e-08
4.1466949e-08
4.6173357e-08
5.1141486e-08
5.4775574e-08
6.0653449e-08
6.47393e-08
7.1377163e-08
7.5676428e-08
8.2234585e-08
8.7400689e-08
9.3961397e-08
1.0026798e-07
1.0519477e-07
1.1312206e-07
1.182641e-07
1.2623753e-07
1.3153881e-07
1.3978793e-07
1.4589242e-07
1.536467e-07
1.588085e-07
1.6660108e-07
1.7174989e-07
1.794279e-07
1.8482321e-07
1.9305354e-07
1.9864295e-07
2.0713459e-07
2.1312604e-07
2.2109675e-07
2.2681765e-07
2.3400928e-07
2.3899941e-07
2.4599832e-07
2.5098762e-07
2.6048476e-07
6.9550213e-10
7.5508714e-10
8.2425909e-10
8.8916095e-10
9.8829807e-10
1.057306e-09
1.1538874e-09
1.2258369e-09
1.336283e-09
1.4054946e-09
1.5070351e-09
1.595767e-09
1.7027496e-09
1.8343437e-09
2.0037781e-09
2.2239587e-09
2.5833611e-09
3.031038e-09
3.7665202e-09
4.5799508e-09
5.9085205e-09
7.2180326e-09
9.3428155e-09
1.1254561e-08
1.4342117e-08
1.6931848e-08
2.1118023e-08
2.4436731e-08
2.9812406e-08
3.3834821e-08
4.0369795e-08
4.5111633e-08
5.2817027e-08
5.8292944e-08
6.7288335e-08
7.3442828e-08
8.3780952e-08
9.0537349e-08
1.0201614e-07
1.0937886e-07
1.2143186e-07
1.3058865e-07
1.4021099e-07
1.5383628e-07
1.6256918e-07
1.7671365e-07
1.8599967e-07
2.0103632e-07
2.1077132e-07
2.2608128e-07
2.372491e-07
2.497928e-07
2.6485136e-07
2.7528757e-07
2.9064623e-07
3.0281443e-07
3.1844553e-07
3.3155136e-07
3.4590529e-07
3.5665547e-07
3.7200448e-07
3.8297208e-07
3.9748915e-07
4.0880049e-07
4.2449522e-07
4.3583857e-07
4.5275429e-07
4.6470173e-07
4.8085619e-07
4.9212879e-07
5.0647698e-07
5.1677446e-07
5.3081598e-07
5.4131676e-07
5.6060847e-07
7.2812227e-10
8.9885465e-10
9.7070283e-10
1.1216384e-09
1.1859997e-09
1.3320886e-09
1.4027262e-09
1.5338832e-09
1.6310339e-09
1.7375344e-09
1.886184e-09
2.0671255e-09
2.3593164e-09
2.7817626e-09
3.4557534e-09
4.3937422e-09
5.8965394e-09
7.6010972e-09
1.0329864e-08
1.2994899e-08
1.7350061e-08
2.1202722e-08
2.7567523e-08
3.2775854e-08
4.1410918e-08
4.8048482e-08
5.9074323e-08
6.7191085e-08
8.0640146e-08
9.0099082e-08
1.0570134e-07
1.1647974e-07
1.3412113e-07
1.4620989e-07
1.6608269e-07
1.7925554e-07
2.0141278e-07
2.1546148e-07
2.3951906e-07
2.5450133e-07
2.7984319e-07
2.9574694e-07
3.2057984e-07
3.4212438e-07
3.6040595e-07
3.8920006e-07
4.0754149e-07
4.3633623e-07
4.5533564e-07
4.8515279e-07
5.0489326e-07
5.3398069e-07
5.5592077e-07
5.8174506e-07
6.0570014e-07
6.3302466e-07
6.6013613e-07
6.8688252e-07
7.1416976e-07
7.3842556e-07
7.6680302e-07
7.9289002e-07
8.1887264e-07
8.4633438e-07
8.7423063e-07
9.0066008e-07
9.3505757e-07
9.6118154e-07
9.9479881e-07
1.0184937e-06
1.0505627e-06
1.0750091e-06
1.1080098e-06
1.1341307e-06
1.1805771e-06
7.0731006e-10
8.3341773e-10
9.1015196e-10
1.1227779e-09
1.2150373e-09
1.4364753e-09
1.5407015e-09
1.7686486e-09
1.9441022e-09
2.2413448e-09
2.7116058e-09
3.4619109e-09
4.6123836e-09
6.2742618e-09
8.8199075e-09
1.1948443e-08
1.6913641e-08
2.1855192e-08
2.9890819e-08
3.6982424e-08
4.8814244e-08
5.839902e-08
7.4600455e-08
8.6812016e-08
1.0754024e-07
1.2227139e-07
1.4732019e-07
1.6458319e-07
1.936712e-07
2.1316606e-07
2.4522777e-07
2.6702847e-07
3.0220853e-07
3.2604599e-07
3.647002e-07
3.9007317e-07
4.3230407e-07
4.5911765e-07
5.048434e-07
5.3329363e-07
5.811809e-07
6.1136132e-07
6.6046365e-07
6.9321397e-07
7.4028956e-07
7.8553751e-07
8.2462083e-07
8.7922968e-07
9.1884058e-07
9.746612e-07
1.0147248e-06
1.0709127e-06
1.1092397e-06
1.1655559e-06
1.2066275e-06
1.2687658e-06
1.3259297e-06
1.3891912e-06
1.4508628e-06
1.5091676e-06
1.5757369e-06
1.6398585e-06
1.691998e-06
1.7626826e-06
1.815121e-06
1.8883066e-06
1.9604565e-06
2.0204058e-06
2.1043764e-06
2.1738556e-06
2.2744344e-06
2.3496849e-06
2.4514289e-06
2.5247502e-06
2.6430741e-06
7.5467731e-10
8.9662773e-10
9.933868e-10
1.1557679e-09
1.2364813e-09
1.3688671e-09
1.5917499e-09
2.0004292e-09
2.73192e-09
3.9190271e-09
5.7583862e-09
8.4230607e-09
1.216618e-08
1.7290642e-08
2.4971904e-08
3.3377092e-08
4.6959602e-08
5.9148812e-08
7.9398882e-08
9.5780082e-08
1.2359545e-07
1.4446279e-07
1.802731e-07
2.0543474e-07
2.4865732e-07
2.7754901e-07
3.2737877e-07
3.6022472e-07
4.1568028e-07
4.5305654e-07
5.0925463e-07
5.5473372e-07
6.1496342e-07
6.6233456e-07
7.3079014e-07
7.7818779e-07
8.5583328e-07
9.074627e-07
9.9388763e-07
1.0494026e-06
1.1415117e-06
1.2010042e-06
1.2958943e-06
1.3613743e-06
1.4654775e-06
1.5453827e-06
1.649825e-06
1.751591e-06
1.8371884e-06
1.9523578e-06
2.0333881e-06
2.1504444e-06
2.2345632e-06
2.3622147e-06
2.4721018e-06
2.6582333e-06
2.8287235e-06
2.9900186e-06
3.1230856e-06
3.2939176e-06
3.4993725e-06
3.6108156e-06
3.7426812e-06
3.9311861e-06
4.0608691e-06
4.2863654e-06
4.4250344e-06
4.6100347e-06
5.0221959e-06
5.2721801e-06
5.6842016e-06
5.8780873e-06
6.1591168e-06
6.3058154e-06
6.5554929e-06
8.0518389e-10
1.1269477e-09
1.2912602e-09
1.4618969e-09
1.652635e-09
2.0337082e-09
2.7911695e-09
4.2129065e-09
6.5418216e-09
1.0095852e-08
1.532073e-08
2.2797639e-08
3.274783e-08
4.6719802e-08
6.5589061e-08
8.6106641e-08
1.1780421e-07
1.4478203e-07
1.8902303e-07
2.2269825e-07
2.7998744e-07
3.2048432e-07
3.9014446e-07
4.3674593e-07
5.1663531e-07
5.6882249e-07
6.5937044e-07
7.1866223e-07
8.1595195e-07
8.9328916e-07
9.7374621e-07
1.0856744e-06
1.1732412e-06
1.2813962e-06
1.3932903e-06
1.4942548e-06
1.6533966e-06
1.7613714e-06
1.9428495e-06
2.0596406e-06
2.2572065e-06
2.3789005e-06
2.5903168e-06
2.7427234e-06
3.0232064e-06
3.2045007e-06
3.4705797e-06
3.6512022e-06
3.8506779e-06
4.1170464e-06
4.3054575e-06
4.6366341e-06
4.8212857e-06
5.358106e-06
5.6750248e-06
6.5017267e-06
6.852128e-06
7.0000207e-06
7.2768438e-06
7.9687795e-06
8.4603821e-06
8.5756029e-06
8.912634e-06
9.646807e-06
9.8031714e-06
1.0514821e-05
1.0766026e-05
1.1477637e-05
1.1933275e-05
1.2102695e-05
1.2438779e-05
1.2866497e-05
1.2926658e-05
1.3214093e-05
1.3465511e-05
7.7536339e-10
9.5488535e-10
1.1114887e-09
1.4310671e-09
2.1596826e-09
3.7116083e-09
6.4013655e-09
1.0756678e-08
1.7258261e-08
2.6678363e-08
4.027845e-08
5.9608485e-08
8.2928677e-08
1.2009465e-07
1.5428147e-07
2.0548647e-07
2.634773e-07
3.2260452e-07
4.0304796e-07
4.6879548e-07
5.7294662e-07
6.4621433e-07
7.6905869e-07
8.5080801e-07
9.8998058e-07
1.084904e-06
1.2498052e-06
1.3601562e-06
1.5394993e-06
1.6832347e-06
1.8479953e-06
2.0823308e-06
2.238787e-06
2.481173e-06
2.6735898e-06
2.9922263e-06
3.3284173e-06
3.56362e-06
4.0381825e-06
4.2563278e-06
4.7747384e-06
4.96988e-06
5.6983666e-06
6.0369211e-06
7.0292644e-06
7.2707845e-06
7.800827e-06
8.1283893e-06
8.7264797e-06
9.3464096e-06
9.8795426e-06
1.0814662e-05
1.1002263e-05
1.2150853e-05
1.1908283e-05
1.3873824e-05
1.380734e-05
1.3359261e-05
1.4344601e-05
1.522061e-05
1.481863e-05
1.3721679e-05
1.5101476e-05
1.4767502e-05
1.3906277e-05
1.4738072e-05
1.5466296e-05
1.5084574e-05
1.2852051e-05
1.3058011e-05
1.2129277e-05
1.1392753e-05
1.0462315e-05
1.1134666e-05
1.0319816e-05
7.4419391e-10
8.9456118e-10
1.2583805e-09
2.404468e-09
4.8444281e-09
9.2796203e-09
1.6437912e-08
2.7447401e-08
4.3372797e-08
6.5898118e-08
9.9091908e-08
1.4177954e-07
1.9255914e-07
2.704654e-07
3.355306e-07
4.4715688e-07
5.2900577e-07
6.6837092e-07
7.7007507e-07
9.2499136e-07
1.0728661e-06
1.221848e-06
1.4244863e-06
1.5760292e-06
1.8396791e-06
2.0283098e-06
2.3597507e-06
2.5767909e-06
2.944385e-06
3.2553759e-06
3.682651e-06
4.1536961e-06
4.5055543e-06
5.0709826e-06
5.5959866e-06
6.7299857e-06
7.1873681e-06
7.8599979e-06
9.1248967e-06
9.3970468e-06
1.0694214e-05
1.0885595e-05
1.2325561e-05
1.2211492e-05
1.4199116e-05
1.3649289e-05
1.3654201e-05
1.3707015e-05
1.4046735e-05
1.4663195e-05
1.4623036e-05
1.3524364e-05
1.3888098e-05
1.3196436e-05
1.2467281e-05
1.3040448e-05
1.0695868e-05
1.0813028e-05
1.2136716e-05
8.9457989e-06
7.9520362e-06
8.3537154e-06
9.1313371e-06
6.9853723e-06
7.0922142e-06
7.3368125e-06
7.9131204e-06
5.6080801e-06
3.9995354e-06
3.9704256e-06
3.3292707e-06
3.0328786e-06
3.0160631e-06
3.0895227e-06
2.7366179e-06
7.0234625e-10
1.0407502e-09
2.450006e-09
5.9132803e-09
1.2446654e-08
2.3466162e-08
4.0634323e-08
6.6114195e-08
1.0174971e-07
1.5185199e-07
2.2866438e-07
3.0325342e-07
4.1556627e-07
5.4284847e-07
6.670287e-07
8.6272828e-07
1.0048828e-06
1.2508935e-06
1.4222885e-06
1.721509e-06
1.936201e-06
2.2853785e-06
2.590715e-06
2.9499678e-06
3.5455457e-06
3.9382356e-06
4.6840287e-06
5.1168954e-06
6.1028407e-06
6.92958e-06
7.9489109e-06
8.9283581e-06
9.7403353e-06
1.13031e-05
1.1539989e-05
1.3393589e-05
1.3012902e-05
1.4565819e-05
1.427402e-05
1.4385049e-05
1.4720583e-05
1.3620444e-05
1.3848233e-05
1.2842188e-05
1.2131222e-05
1.0439853e-05
9.3264043e-06
7.7038334e-06
7.7878396e-06
7.7191378e-06
6.5428863e-06
5.4941981e-06
5.9561824e-06
4.2883241e-06
5.5951247e-06
4.2738791e-06
3.0550234e-06
4.9825951e-06
5.1138957e-06
2.6182371e-06
2.0955531e-06
3.4946518e-06
3.0351856e-06
1.9891304e-06
3.417329e-06
3.7507831e-06
2.3061257e-06
1.6139934e-06
1.4645013e-06
1.4569144e-06
1.305766e-06
1.2356696e-06
1.3248569e-06
1.3818123e-06
1.3379887e-06
6.7242913e-10
1.9039409e-09
6.1150435e-09
1.4888613e-08
3.0636074e-08
5.5839896e-08
9.3768245e-08
1.4839078e-07
2.2143477e-07
3.2818326e-07
4.6476208e-07
6.0444123e-07
8.2146381e-07
9.9501795e-07
1.2733533e-06
1.5544015e-06
1.8302178e-06
2.2729053e-06
2.5850318e-06
3.1811828e-06
3.6198986e-06
4.3779381e-06
4.9600242e-06
6.0782823e-06
7.3925324e-06
8.2565e-06
9.991434e-06
1.0773494e-05
1.2300935e-05
1.2983802e-05
1.3823282e-05
1.4234088e-05
1.4565579e-05
1.4024739e-05
1.2882524e-05
1.2938997e-05
1.1387725e-05
1.0916284e-05
7.830646e-06
8.3227008e-06
6.0213823e-06
6.1615039e-06
5.8066109e-06
5.7740034e-06
3.9919573e-06
2.9182255e-06
2.6330777e-06
2.5385481e-06
2.6838639e-06
2.5236917e-06
1.8710574e-06
1.7395356e-06
2.0276752e-06
1.6873164e-06
2.7880477e-06
2.067128e-06
2.2034997e-06
3.5078037e-06
2.3942695e-06
1.3779801e-06
1.4084854e-06
2.2149614e-06
2.218596e-06
1.5328833e-06
3.100309e-06
2.6582197e-06
1.5825015e-06
1.2543885e-06
1.2764005e-06
1.2779751e-06
1.1955101e-06
1.1405107e-06
1.1705627e-06
1.2429312e-06
1.2491294e-06
6.6619544e-10
4.8027948e-09
1.5329072e-08
3.5777594e-08
7.0651217e-08
1.2387624e-07
2.0142721e-07
3.105507e-07
4.4738755e-07
6.6614166e-07
8.5753065e-07
1.1461993e-06
1.4633894e-06
1.8007896e-06
2.3411164e-06
2.7470443e-06
3.4272033e-06
4.1859234e-06
4.8417566e-06
6.3254371e-06
7.2684408e-06
9.0948867e-06
1.0158165e-05
1.2082265e-05
1.2683014e-05
1.369764e-05
1.427805e-05
1.4001175e-05
1.3323062e-05
1.2166906e-05
1.09495e-05
1.0160428e-05
7.0238909e-06
6.1587427e-06
5.9307017e-06
4.4084709e-06
5.3165558e-06
3.7385997e-06
2.4978088e-06
2.6587338e-06
1.9741688e-06
2.3855852e-06
1.7970513e-06
2.7209646e-06
1.7139093e-06
1.5703877e-06
1.4129295e-06
1.2656639e-06
1.9294707e-06
1.6072529e-06
1.3874324e-06
1.3215451e-06
1.3203343e-06
1.2539225e-06
2.0412648e-06
1.9578898e-06
2.4077766e-06
2.8886676e-06
2.0099554e-06
1.3811671e-06
1.2963239e-06
1.8361527e-06
1.4594324e-06
1.4552877e-06
2.2269957e-06
1.8709061e-06
1.3435488e-06
1.2051802e-06
1.3236012e-06
1.288622e-06
1.2496508e-06
1.2873342e-06
1.2347526e-06
1.2840812e-06
1.3124426e-06
8.2226297e-10
1.2029133e-08
3.6411055e-08
8.08631e-08
1.5220913e-07
2.5605566e-07
4.0387258e-07
5.9866891e-07
8.4886586e-07
1.2106264e-06
1.5418357e-06
2.0644224e-06
2.5641321e-06
3.3446959e-06
4.2710233e-06
5.1149807e-06
6.8422729e-06
8.1640621e-06
9.7404677e-06
1.1865676e-05
1.2413382e-05
1.383245e-05
1.3083103e-05
1.2760951e-05
1.0973047e-05
1.025871e-05
7.3310747e-06
7.9446401e-06
5.3493323e-06
4.7117813e-06
3.7926566e-06
3.1648155e-06
1.9635716e-06
1.8133673e-06
2.2737064e-06
1.8544387e-06
2.7752843e-06
1.4803848e-06
1.9081507e-06
1.654346e-06
1.2337537e-06
1.4792896e-06
1.4436537e-06
1.6706175e-06
1.2807508e-06
1.4797792e-06
1.3475942e-06
1.1487492e-06
1.4260598e-06
1.4263232e-06
1.3384318e-06
1.2904894e-06
1.4630912e-06
1.3980943e-06
1.7121351e-06
1.9568967e-06
2.3558555e-06
2.5807236e-06
1.7065353e-06
1.4244086e-06
1.3336345e-06
1.5635604e-06
2.0061715e-06
1.7646012e-06
2.2120202e-06
1.6823424e-06
1.3027022e-06
1.1633849e-06
1.220296e-06
1.2426557e-06
1.2771741e-06
1.1936817e-06
1.123781e-06
1.1614742e-06
1.2767007e-06
2.9537486e-09
2.8379277e-08
8.1019501e-08
1.7084668e-07
3.0619631e-07
4.9476754e-07
7.6191757e-07
1.0810348e-06
1.5567351e-06
2.0989183e-06
2.7348523e-06
3.6873962e-06
4.7476708e-06
6.5370692e-06
8.239316e-06
1.025119e-05
1.1867736e-05
1.253717e-05
1.3227163e-05
1.2600908e-05
1.1290514e-05
9.7773809e-06
6.3849512e-06
5.1914519e-06
3.9240867e-06
3.7180606e-06
2.2832699e-06
3.1674628e-06
1.5905788e-06
1.7502645e-06
1.2298025e-06
8.3877122e-07
9.1878713e-07
8.5100748e-07
1.0835437e-06
1.2977459e-06
1.0735286e-06
9.6123514e-07
1.9579657e-06
1.4383393e-06
1.2356386e-06
1.2940764e-06
1.5889507e-06
1.1175132e-06
1.5792687e-06
1.3261642e-06
1.2970256e-06
1.3509447e-06
1.6390484e-06
1.6479348e-06
1.399207e-06
1.268646e-06
1.3747842e-06
1.3745078e-06
1.5105876e-06
1.7559444e-06
1.8098414e-06
2.3423766e-06
1.6325094e-06
1.667012e-06
1.6750597e-06
1.7808268e-06
1.5284441e-06
1.4039855e-06
1.760148e-06
1.5664421e-06
1.2933193e-06
1.1732348e-06
1.2037429e-06
1.3227325e-06
1.7019649e-06
1.4847424e-06
1.2601392e-06
1.281483e-06
1.3601425e-06
4.8954479e-09
6.4269791e-08
1.7013147e-07
3.3800204e-07
5.7660264e-07
8.9848796e-07
1.3352609e-06
1.9089059e-06
2.7517052e-06
3.6767768e-06
5.0337974e-06
7.0723052e-06
9.4432316e-06
1.144809e-05
1.2598412e-05
1.2769246e-05
1.1551281e-05
9.2536825e-06
7.436901e-06
5.6692607e-06
4.9222646e-06
3.3434454e-06
2.0210558e-06
1.7381249e-06
1.3510614e-06
1.6277554e-06
9.2412099e-07
1.0576056e-06
8.2506919e-07
9.2544938e-07
4.6570364e-07
4.325573e-07
5.7454789e-07
8.2223835e-07
7.0083316e-07
9.494879e-07
1.0529785e-06
1.0628527e-06
1.8990846e-06
1.514213e-06
1.2545855e-06
1.2043168e-06
1.8806707e-06
1.4154686e-06
1.8321557e-06
1.312235e-06
1.1620062e-06
1.9742601e-06
1.7376324e-06
1.8094294e-06
1.5583927e-06
1.3716933e-06
1.5062171e-06
1.4048404e-06
1.402543e-06
1.7428175e-06
1.6448025e-06
2.2884592e-06
1.6379527e-06
1.7857941e-06
2.0329317e-06
1.7463961e-06
1.7785733e-06
1.5458387e-06
1.7849592e-06
1.314896e-06
1.1668405e-06
1.1935436e-06
1.3384688e-06
1.4149893e-06
2.069011e-06
1.8780914e-06
1.5743841e-06
1.5435745e-06
1.4835986e-06
1.7105194e-08
1.3806405e-07
3.3676512e-07
6.2764075e-07
1.0241665e-06
1.5584567e-06
2.2975823e-06
3.3870183e-06
4.9084587e-06
6.9169323e-06
9.9961163e-06
1.1569104e-05
1.2370733e-05
1.1787049e-05
9.2915224e-06
6.5023789e-06
4.4220203e-06
3.6157776e-06
2.6044247e-06
2.4070175e-06
2.5133315e-06
1.7545633e-06
1.1678216e-06
7.8400394e-07
8.2426469e-07
9.894873e-07
5.749662e-07
5.4088461e-07
6.7499014e-07
9.8917697e-07
4.25811e-07
4.4985943e-07
7.7006462e-07
6.6556754e-07
6.8356605e-07
9.9768965e-07
1.1122275e-06
1.1842824e-06
2.5025681e-06
1.3619917e-06
1.2910447e-06
1.1471809e-06
1.4257046e-06
1.1701072e-06
1.60036e-06
1.2423448e-06
1.1257536e-06
1.3588825e-06
1.4643314e-06
1.8779721e-06
1.5741635e-06
1.408533e-06
1.5692316e-06
1.4646714e-06
1.4393989e-06
1.8946745e-06
1.4394516e-06
2.2175525e-06
1.6419598e-06
1.8326684e-06
3.0197504e-06
1.5440898e-06
2.6145676e-06
1.7554878e-06
1.7215571e-06
1.3654496e-06
1.2134722e-06
1.2239843e-06
1.4342575e-06
1.4720127e-06
2.0261584e-06
2.0957682e-06
1.8970347e-06
1.671918e-06
1.5329083e-06
4.7187669e-08
2.8019945e-07
6.2701095e-07
1.0994931e-06
1.7411203e-06
2.6471337e-06
4.010427e-06
6.2648148e-06
9.4782847e-06
1.0940472e-05
1.2114896e-05
1.0977491e-05
7.139319e-06
5.2526467e-06
3.3246333e-06
2.1608334e-06
1.4359395e-06
1.6732624e-06
9.6828215e-07
1.0517203e-06
1.3248352e-06
1.3041453e-06
9.2872615e-07
7.7448697e-07
8.3133079e-07
6.5162773e-07
5.7496104e-07
5.0283634e-07
7.4190855e-07
9.493545e-07
5.8950107e-07
4.5906007e-07
8.4821425e-07
5.8233099e-07
7.810886e-07
9.7205397e-07
7.1644994e-07
1.2310051e-06
1.4343297e-06
1.2219265e-06
9.593744e-07
1.0678404e-06
1.0698147e-06
9.7279979e-07
1.260729e-06
1.201377e-06
1.0669469e-06
1.473637e-06
1.8512395e-06
1.818655e-06
2.0627899e-06
1.4120621e-06
1.3872547e-06
1.3771683e-06
1.4528378e-06
1.8936989e-06
1.7995182e-06
1.4074766e-06
1.4505178e-06
1.4237675e-06
3.9004079e-06
2.2230633e-06
2.1637604e-06
1.5896416e-06
1.4687165e-06
1.3815418e-06
1.3335462e-06
1.2219923e-06
1.3678156e-06
1.4748139e-06
1.7230776e-06
1.9064073e-06
1.8697448e-06
1.6591471e-06
1.5542468e-06
1.1579881e-07
5.3751864e-07
1.1032507e-06
1.8399009e-06
2.9010662e-06
4.5504675e-06
7.4453264e-06
1.0275345e-05
1.1869399e-05
1.0451614e-05
7.0321786e-06
4.7932136e-06
2.5093818e-06
2.1283161e-06
1.0209655e-06
6.3942025e-07
5.0563064e-07
9.1306559e-07
6.0032154e-07
6.5873439e-07
8.1809398e-07
1.1633288e-06
7.0311409e-07
5.8082424e-07
6.5146181e-07
7.3369597e-07
4.9826047e-07
5.192521e-07
7.8080071e-07
8.9236201e-07
7.0131066e-07
5.8927755e-07
5.480769e-07
4.9886431e-07
6.8111263e-07
8.9440036e-07
6.4781487e-07
8.1156012e-07
9.0020145e-07
1.1779958e-06
9.5906848e-07
9.5018273e-07
9.6434746e-07
1.051422e-06
1.5433477e-06
1.2365567e-06
1.0707427e-06
1.2957831e-06
1.8408049e-06
1.307701e-06
1.3136325e-06
1.1332406e-06
1.3545679e-06
1.487434e-06
1.5906984e-06
1.7280936e-06
1.5364423e-06
1.3436709e-06
1.6911707e-06
1.5762953e-06
2.3412425e-06
2.3405278e-06
1.6182574e-06
1.9240022e-06
1.4833734e-06
1.5567931e-06
1.4050122e-06
1.206621e-06
1.3610701e-06
1.5365599e-06
1.7342601e-06
1.9069206e-06
1.7848801e-06
1.5663747e-06
1.5865449e-06
2.6197356e-07
9.7690571e-07
1.8528085e-06
2.9944849e-06
4.9025152e-06
8.3305124e-06
1.0295144e-05
1.0280335e-05
7.4029104e-06
4.8691787e-06
3.0096699e-06
1.5677573e-06
7.4522749e-07
7.6945927e-07
3.8234332e-07
2.7178649e-07
3.0294176e-07
4.4473868e-07
4.2345118e-07
5.9027641e-07
6.8029473e-07
8.354538e-07
5.5323685e-07
4.5192433e-07
6.8358151e-07
1.1481285e-06
4.4484693e-07
5.5144755e-07
8.204952e-07
7.9075742e-07
7.1824097e-07
6.8481635e-07
4.8524222e-07
4.4507839e-07
5.8103553e-07
8.0506851e-07
6.2356295e-07
7.2132242e-07
8.642853e-07
1.2712899e-06
9.8591939e-07
8.6761072e-07
1.1882631e-06
1.202648e-06
1.6339941e-06
1.2243674e-06
9.787011e-07
1.0421982e-06
1.764531e-06
1.3230859e-06
1.0678703e-06
1.1084449e-06
1.1683833e-06
1.539527e-06
1.5693728e-06
1.6277052e-06
1.4248073e-06
1.5276152e-06
1.5393128e-06
2.2700052e-06
2.0250857e-06
2.2900783e-06
1.8849687e-06
1.8039477e-06
1.784871e-06
1.606454e-06
1.3302843e-06
1.2277696e-06
1.4319499e-06
1.5165668e-06
1.7987607e-06
1.5999212e-06
1.5067117e-06
1.5606688e-06
1.7026184e-06
5.5461563e-07
1.6934985e-06
3.0065568e-06
4.8826673e-06
8.7550823e-06
1.0379618e-05
8.6256152e-06
5.3132176e-06
3.3032314e-06
1.7983945e-06
9.8810535e-07
4.3758219e-07
2.5830374e-07
3.3053004e-07
2.917065e-07
2.3775425e-07
2.7244296e-07
3.1233206e-07
4.4643404e-07
5.4564019e-07
5.502393e-07
4.6762149e-07
5.227366e-07
4.4182391e-07
6.8222086e-07
1.1725462e-06
5.0961718e-07
6.2273272e-07
8.6556339e-07
7.6089284e-07
8.0057592e-07
6.5755536e-07
4.8648496e-07
4.4636975e-07
5.3507675e-07
7.7609082e-07
5.9469588e-07
6.6070639e-07
9.585488e-07
1.0443041e-06
7.7621488e-07
9.1787699e-07
1.2487057e-06
9.9994587e-07
9.937944e-07
9.0926766e-07
9.4021054e-07
1.0163508e-06
1.7223958e-06
1.1909097e-06
1.1237355e-06
1.1716427e-06
1.1599698e-06
1.2165377e-06
1.6201579e-06
1.5672269e-06
1.3061118e-06
1.6502375e-06
1.5869187e-06
2.7251292e-06
2.3237322e-06
2.2577382e-06
1.8601758e-06
1.8632036e-06
1.8367938e-06
1.5878095e-06
1.2464828e-06
1.2539506e-06
1.502937e-06
1.4701291e-06
1.4356403e-06
1.4461785e-06
1.5031038e-06
1.7385675e-06
1.9541584e-06
1.1118819e-06
2.8168896e-06
4.8186277e-06
8.3179943e-06
1.0094749e-05
7.4575588e-06
4.8693877e-06
2.5331365e-06
1.1849061e-06
6.0375769e-07
3.3123265e-07
2.4372287e-07
1.855266e-07
2.1137256e-07
2.9177218e-07
2.4354454e-07
2.7210287e-07
2.7069731e-07
4.0998067e-07
5.0945139e-07
5.1136593e-07
4.3869072e-07
5.7123827e-07
4.9824425e-07
7.1528301e-07
8.2788838e-07
6.4770133e-07
8.0676241e-07
8.8774195e-07
7.3448542e-07
7.688999e-07
5.6542179e-07
4.9492467e-07
4.7646578e-07
4.9650904e-07
7.7261822e-07
5.9935699e-07
6.7250906e-07
9.0379563e-07
7.4476723e-07
6.8273485e-07
1.1348236e-06
9.4642704e-07
1.0398457e-06
8.4186392e-07
8.727558e-07
9.5803388e-07
1.042515e-06
1.5083177e-06
1.11554e-06
1.2371869e-06
1.2710216e-06
1.1856494e-06
1.535786e-06
1.6084567e-06
1.4995358e-06
1.4631095e-06
1.4969402e-06
1.5162845e-06
2.5202008e-06
2.2369489e-06
2.1668791e-06
1.7752111e-06
1.5909948e-06
1.4000602e-06
1.3314848e-06
1.1890165e-06
1.1962806e-06
1.554689e-06
1.5017149e-06
1.4699772e-06
1.5086456e-06
1.7475719e-06
2.0918462e-06
2.0859466e-06
2.1361646e-06
4.5346943e-06
7.9059579e-06
9.4007311e-06
6.8829132e-06
3.996845e-06
2.2667388e-06
8.6763115e-07
3.516681e-07
2.1998252e-07
1.8857323e-07
2.301321e-07
1.8234607e-07
1.9829027e-07
3.0355707e-07
2.490676e-07
2.7679251e-07
2.6421551e-07
3.831985e-07
4.83965e-07
4.6482411e-07
4.4126502e-07
5.692988e-07
5.0615857e-07
9.0343951e-07
7.2605679e-07
7.8684658e-07
1.5800987e-06
9.1818205e-07
6.7649259e-07
6.5793966e-07
5.4568166e-07
4.9833574e-07
4.9537452e-07
4.8252691e-07
7.2488938e-07
6.1402528e-07
8.3556087e-07
7.137474e-07
6.9391992e-07
6.5894009e-07
1.1586635e-06
8.8834054e-07
8.4420608e-07
7.8922547e-07
8.9898412e-07
1.0660169e-06
1.1211879e-06
1.2896373e-06
1.0877468e-06
1.0376233e-06
1.3296429e-06
1.1909005e-06
1.3334639e-06
1.6948136e-06
1.5225329e-06
1.5284504e-06
1.258243e-06
1.7656944e-06
1.8824011e-06
2.0894412e-06
2.0698533e-06
1.6983729e-06
1.4616952e-06
1.4096396e-06
1.0877304e-06
1.1108013e-06
1.1661291e-06
1.6870771e-06
1.5794178e-06
1.6175696e-06
1.7181295e-06
2.2129058e-06
2.2193663e-06
2.1323326e-06
3.8111062e-06
7.2892779e-06
9.7760822e-06
7.2663988e-06
3.9918345e-06
1.7314639e-06
8.0170172e-07
2.8463297e-07
1.5054295e-07
1.1801751e-07
1.7036706e-07
2.4467684e-07
1.9279608e-07
2.2224277e-07
3.0877941e-07
2.5280818e-07
2.7624849e-07
2.6605305e-07
3.6900899e-07
4.540784e-07
3.8950723e-07
4.5377107e-07
4.9318087e-07
4.9894626e-07
9.2051714e-07
7.2302391e-07
8.3535889e-07
2.3466145e-06
9.4921811e-07
6.9514511e-07
6.0780736e-07
5.5015322e-07
5.3881312e-07
4.8817646e-07
4.8650361e-07
6.5525488e-07
6.1890872e-07
9.07712e-07
7.0110142e-07
7.1206325e-07
6.8815265e-07
7.5748619e-07
8.9581413e-07
8.2986384e-07
8.2592416e-07
1.046418e-06
1.1786275e-06
1.2656019e-06
1.1956583e-06
1.0861344e-06
1.0559744e-06
1.1642748e-06
1.1256134e-06
1.2286582e-06
1.564673e-06
1.6775752e-06
1.412227e-06
1.2296315e-06
1.3912746e-06
1.7740423e-06
2.0499288e-06
2.0596032e-06
1.7171273e-06
1.4065667e-06
1.4807885e-06
9.8585452e-07
1.087376e-06
1.1960101e-06
1.7472204e-06
1.7735162e-06
1.8527227e-06
2.0095711e-06