/*--------------------------------*- C++ -*----------------------------------*\
| =========                 |                                                 |
| \\      /  F ield         | OpenFOAM: The Open Source CFD Toolbox           |
|  \\    /   O peration     | Version:  2.3.0                                 |
|   \\  /    A nd           | Web:      www.OpenFOAM.org                      |
|    \\/     M anipulation  |                                                 |
\*---------------------------------------------------------------------------*/
FoamFile
{
    version     2.0;
    format      ascii;
    class       surfaceScalarField;
    location    "2.5e-05";
    object      phi;
}
// * * * * * * * * * * * * * * * * * * * * * * * * * * * * * * * * * * * * * //

dimensions      [0 3 -1 0 0 0 0];

internalField   nonuniform List<scalar> 
14825
(
1.0347495e-09
-2.0988085e-11
1.053916e-09
-1.9166505e-11
1.0756982e-09
-2.1782267e-11
1.0950918e-09
-1.9393596e-11
1.1166049e-09
-2.1513118e-11
1.1356698e-09
-1.9064859e-11
1.1567978e-09
-2.1127971e-11
1.1758398e-09
-1.9042065e-11
1.1965325e-09
-2.069262e-11
1.2157805e-09
-1.9248088e-11
1.2357846e-09
-2.0004028e-11
1.2553663e-09
-1.9581685e-11
1.2744265e-09
-1.9060282e-11
1.2943594e-09
-1.9932855e-11
1.3125357e-09
-1.8176345e-11
1.3327249e-09
-2.0189148e-11
1.3501985e-09
-1.7473594e-11
1.3702579e-09
-2.0059462e-11
1.3873934e-09
-1.7135429e-11
1.4069514e-09
-1.9558061e-11
1.4240706e-09
-1.7119186e-11
1.4427177e-09
-1.8647052e-11
1.4600932e-09
-1.7375474e-11
1.4776064e-09
-1.7513226e-11
1.4953153e-09
-1.7708875e-11
1.5117774e-09
-1.6462122e-11
1.529599e-09
-1.7821674e-11
1.5453415e-09
-1.574247e-11
1.5628526e-09
-1.7511064e-11
1.5781257e-09
-1.5273086e-11
1.5950884e-09
-1.6962705e-11
1.6099406e-09
-1.4852202e-11
1.6262989e-09
-1.6358286e-11
1.640837e-09
-1.4538091e-11
1.6565062e-09
-1.566929e-11
1.6707362e-09
-1.4229938e-11
1.685586e-09
-1.484986e-11
1.6997577e-09
-1.4171667e-11
1.7136085e-09
-1.3850769e-11
1.7276737e-09
-1.4065241e-11
1.7403296e-09
-1.265591e-11
1.7543602e-09
-1.4030617e-11
1.7663419e-09
-1.1981639e-11
1.7795166e-09
-1.3174684e-11
1.7912053e-09
-1.1688757e-11
1.8036529e-09
-1.2447555e-11
1.814836e-09
-1.1183161e-11
1.8268801e-09
-1.2044082e-11
1.8374861e-09
-1.0605954e-11
1.8479154e-09
-1.0429358e-11
1.8586649e-09
-1.0749474e-11
1.8684551e-09
-9.7901845e-12
1.8786748e-09
-1.0219719e-11
1.8875527e-09
-8.8778796e-12
1.8969183e-09
-9.3656294e-12
1.9051824e-09
-8.2640389e-12
1.9142306e-09
-9.0482144e-12
1.9220357e-09
-7.8051636e-12
1.9301658e-09
-8.1300978e-12
1.9382018e-09
-8.035911e-12
1.9437872e-09
-5.5854168e-12
1.9512025e-09
-7.4153178e-12
1.9582511e-09
-7.0485656e-12
1.9639409e-09
-5.6898249e-12
1.9692563e-09
-5.315379e-12
1.974691e-09
-5.4347209e-12
1.9797797e-09
-5.0887461e-12
1.9851331e-09
-5.3534133e-12
1.9889272e-09
-3.7941057e-12
1.9933259e-09
-4.3986021e-12
1.9974436e-09
-4.1177579e-12
2.0000811e-09
-2.6374729e-12
2.0028264e-09
-2.7453409e-12
2.0056253e-09
-2.7988535e-12
-2.3893568e-12
2.8633547e-09
-8.237682e-11
2.9202679e-09
-7.6079772e-11
2.9837461e-09
-8.5260427e-11
3.0413985e-09
-7.7046029e-11
3.1044325e-09
-8.4547135e-11
3.1614709e-09
-7.6103232e-11
3.2235735e-09
-8.3230603e-11
3.2806595e-09
-7.612806e-11
3.3418393e-09
-8.1872426e-11
3.3995724e-09
-7.6981129e-11
3.4592279e-09
-7.9659547e-11
3.5178386e-09
-7.8192343e-11
3.5752908e-09
-7.6512495e-11
3.6348182e-09
-7.9460244e-11
3.6902436e-09
-7.3601812e-11
3.7504193e-09
-8.0364779e-11
3.8042957e-09
-7.135004e-11
3.864082e-09
-7.9845732e-11
3.9173581e-09
-7.0411555e-11
3.9758898e-09
-7.80898e-11
4.0292077e-09
-7.0437057e-11
4.0856063e-09
-7.5045604e-11
4.1394323e-09
-7.1201465e-11
4.1933139e-09
-7.1394844e-11
4.2477611e-09
-7.2156108e-11
4.299324e-09
-6.8025026e-11
4.3538977e-09
-7.2395392e-11
4.4038542e-09
-6.5698941e-11
4.4576277e-09
-7.1284565e-11
4.5064538e-09
-6.409919e-11
4.5589194e-09
-6.9428257e-11
4.606627e-09
-6.2559821e-11
4.6577242e-09
-6.7455525e-11
4.704512e-09
-6.1325845e-11
4.7539127e-09
-6.5070054e-11
4.8000484e-09
-6.0365563e-11
4.8473909e-09
-6.2192438e-11
4.8932497e-09
-6.0030463e-11
4.938397e-09
-5.8997992e-11
4.9833805e-09
-5.9048813e-11
5.0262569e-09
-5.5532248e-11
5.0707806e-09
-5.8554335e-11
5.1116736e-09
-5.2874614e-11
5.1546583e-09
-5.6159447e-11
5.1939773e-09
-5.1007736e-11
5.2357145e-09
-5.4184727e-11
5.2735146e-09
-4.8983241e-11
5.3142057e-09
-5.2735225e-11
5.3503219e-09
-4.6722116e-11
5.3872441e-09
-4.7351558e-11
5.4236646e-09
-4.7170001e-11
5.4584033e-09
-4.4528853e-11
5.4943121e-09
-4.6128588e-11
5.5259241e-09
-4.0489869e-11
5.5598104e-09
-4.3251907e-11
5.5901753e-09
-3.8628971e-11
5.6225168e-09
-4.1389679e-11
5.6526114e-09
-3.7899798e-11
5.6823108e-09
-3.7829429e-11
5.7113503e-09
-3.7075419e-11
5.7357071e-09
-2.9942283e-11
5.7637445e-09
-3.5452685e-11
5.7901584e-09
-3.3462453e-11
5.8139418e-09
-2.9473198e-11
5.8370725e-09
-2.8446143e-11
5.859866e-09
-2.822823e-11
5.8817646e-09
-2.6987286e-11
5.9043899e-09
-2.7978781e-11
5.9235449e-09
-2.2949103e-11
5.9434175e-09
-2.4271164e-11
5.9622191e-09
-2.2919309e-11
5.9779706e-09
-1.8388978e-11
5.9937034e-09
-1.8478214e-11
6.0093247e-09
-1.8420113e-11
-1.7098024e-11
4.3674944e-09
-1.8176166e-10
4.4613195e-09
-1.699049e-10
4.5635174e-09
-1.8745838e-10
4.658646e-09
-1.7217456e-10
4.7608375e-09
-1.867387e-10
4.8554052e-09
-1.7067089e-10
4.9566179e-09
-1.8444331e-10
5.0513426e-09
-1.7085276e-10
5.1517537e-09
-1.822835e-10
5.2475065e-09
-1.7273394e-10
5.3464082e-09
-1.7856123e-10
5.4432584e-09
-1.7504257e-10
5.5397923e-09
-1.7304639e-10
5.6376794e-09
-1.7734735e-10
5.7321292e-09
-1.6805159e-10
5.8307248e-09
-1.7896036e-10
5.9235178e-09
-1.6414309e-10
6.0216248e-09
-1.7795277e-10
6.1138467e-09
-1.6263337e-10
6.2106715e-09
-1.7491464e-10
6.3027664e-09
-1.6253195e-10
6.3974798e-09
-1.6975902e-10
6.4895792e-09
-1.6330089e-10
6.5819583e-09
-1.6377393e-10
6.6741411e-09
-1.6433888e-10
6.7642951e-09
-1.5817906e-10
6.856242e-09
-1.6434223e-10
6.9445937e-09
-1.5405071e-10
7.0356551e-09
-1.6234595e-10
7.1223771e-09
-1.5082118e-10
7.2120403e-09
-1.5909144e-10
7.2969648e-09
-1.4748434e-10
7.3852887e-09
-1.5577939e-10
7.4684284e-09
-1.4446559e-10
7.5550523e-09
-1.5169399e-10
7.6369661e-09
-1.422793e-10
7.7214468e-09
-1.4667319e-10
7.8024107e-09
-1.409943e-10
7.8844774e-09
-1.4106474e-10
7.9636954e-09
-1.3826678e-10
8.0432835e-09
-1.3512033e-10
8.121646e-09
-1.3691682e-10
8.1976706e-09
-1.2889923e-10
8.2753158e-09
-1.3380465e-10
8.3482113e-09
-1.2390324e-10
8.4250604e-09
-1.3103383e-10
8.4953639e-09
-1.1928678e-10
8.5706633e-09
-1.2803466e-10
8.6380042e-09
-1.1406299e-10
8.7088666e-09
-1.1821393e-10
8.7767751e-09
-1.1507847e-10
8.8438125e-09
-1.1156626e-10
8.9119689e-09
-1.14285e-10
8.9739002e-09
-1.024212e-10
9.0396719e-09
-1.0902356e-10
9.1000488e-09
-9.9005911e-11
9.1631305e-09
-1.0447139e-10
9.2244567e-09
-9.9225985e-11
9.2831011e-09
-9.6473835e-11
9.340123e-09
-9.4097278e-11
9.394036e-09
-8.3855271e-11
9.4508111e-09
-9.2227793e-11
9.5041424e-09
-8.6793834e-11
9.5552227e-09
-8.0553484e-11
9.6061922e-09
-7.9415574e-11
9.6553729e-09
-7.7408952e-11
9.7032471e-09
-7.4861552e-11
9.7521859e-09
-7.6917556e-11
9.7974373e-09
-6.8200523e-11
9.8427884e-09
-6.9622255e-11
9.8851201e-09
-6.5250988e-11
9.9250314e-09
-5.8300256e-11
9.9642465e-09
-5.7693335e-11
1.0002537e-08
-5.6710378e-11
-5.4674082e-11
5.5914702e-09
-3.1676118e-10
5.7212821e-09
-2.9971675e-10
5.8592322e-09
-3.2540852e-10
5.9910605e-09
-3.0400283e-10
6.1298117e-09
-3.2548995e-10
6.2614941e-09
-3.0235326e-10
6.3996036e-09
-3.2255284e-10
6.5316964e-09
-3.0294551e-10
6.6695776e-09
-3.2016474e-10
6.8029903e-09
-3.0614661e-10
6.9402144e-09
-3.1578537e-10
7.0745448e-09
-3.0937293e-10
7.2104065e-09
-3.0890809e-10
7.3452898e-09
-3.1223068e-10
7.4801374e-09
-3.0289918e-10
7.6152984e-09
-3.1412139e-10
7.7492166e-09
-2.9806123e-10
7.8837972e-09
-3.1253336e-10
8.0174847e-09
-2.9632086e-10
8.1513228e-09
-3.0875278e-10
8.2845364e-09
-2.957455e-10
8.4175142e-09
-3.0273682e-10
8.549576e-09
-2.9536273e-10
8.6818875e-09
-2.9608542e-10
8.8127492e-09
-2.9520057e-10
8.9442379e-09
-2.8966782e-10
9.074099e-09
-2.9420332e-10
9.2042243e-09
-2.8417596e-10
9.3333652e-09
-2.9148691e-10
9.4615728e-09
-2.7902874e-10
9.5897037e-09
-2.8722234e-10
9.7156098e-09
-2.7339045e-10
9.8429119e-09
-2.8308152e-10
9.9660613e-09
-2.6761492e-10
1.0092687e-08
-2.7832009e-10
1.021361e-08
-2.6320211e-10
1.0339355e-08
-2.7241787e-10
1.0458022e-08
-2.5966118e-10
1.0581984e-08
-2.6502719e-10
1.0698353e-08
-2.546358e-10
1.0820067e-08
-2.5683401e-10
1.0935522e-08
-2.5237179e-10
1.1052323e-08
-2.4570077e-10
1.116821e-08
-2.4969167e-10
1.1279664e-08
-2.3535701e-10
1.1395596e-08
-2.4696594e-10
1.150408e-08
-2.2777062e-10
1.1618921e-08
-2.4287583e-10
1.1723292e-08
-2.1843319e-10
1.1833918e-08
-2.2884037e-10
1.1938531e-08
-2.1969118e-10
1.204479e-08
-2.1782583e-10
1.2150379e-08
-2.1987348e-10
1.2250104e-08
-2.021465e-10
1.2353688e-08
-2.1260773e-10
1.2451439e-08
-1.9675642e-10
1.2552493e-08
-2.0552586e-10
1.2652541e-08
-1.9927394e-10
1.2746404e-08
-1.9033691e-10
1.2838873e-08
-1.8656559e-10
1.2931599e-08
-1.7658164e-10
1.3023619e-08
-1.8424757e-10
1.311104e-08
-1.742155e-10
1.3197646e-08
-1.6715919e-10
1.3285001e-08
-1.6677083e-10
1.3368912e-08
-1.6131974e-10
1.34515e-08
-1.5744969e-10
1.3535227e-08
-1.6064446e-10
1.3615928e-08
-1.4890102e-10
1.3695701e-08
-1.4939593e-10
1.3769596e-08
-1.3914613e-10
1.3843142e-08
-1.3184543e-10
1.3915475e-08
-1.3002689e-10
1.3986406e-08
-1.2764152e-10
-1.2474361e-10
6.5742019e-09
-4.8519179e-10
6.7386972e-09
-4.6421202e-10
6.9098366e-09
-4.9654795e-10
7.07733e-09
-4.7149621e-10
7.2500703e-09
-4.9823021e-10
7.4182857e-09
-4.7056874e-10
7.5909443e-09
-4.952114e-10
7.7601108e-09
-4.72112e-10
7.9333738e-09
-4.9342779e-10
8.1040969e-09
-4.7686969e-10
8.2782108e-09
-4.898992e-10
8.4494211e-09
-4.8058327e-10
8.6240644e-09
-4.8355137e-10
8.7951261e-09
-4.8329238e-10
8.9705886e-09
-4.7836173e-10
9.1412918e-09
-4.8482455e-10
9.3171848e-09
-4.7395426e-10
9.4871536e-09
-4.8250215e-10
9.6636004e-09
-4.7276766e-10
9.8335903e-09
-4.7874271e-10
1.0009579e-08
-4.7173411e-10
1.0180414e-08
-4.7357142e-10
1.0354103e-08
-4.6905176e-10
1.0526857e-08
-4.6884004e-10
1.0698103e-08
-4.6644596e-10
1.0872078e-08
-4.6364297e-10
1.1041384e-08
-4.6350995e-10
1.1215144e-08
-4.5793541e-10
1.1383877e-08
-4.6022044e-10
1.1555846e-08
-4.5099713e-10
1.1724039e-08
-4.5541561e-10
1.1893665e-08
-4.430166e-10
1.2061568e-08
-4.5098424e-10
1.2227878e-08
-4.3392482e-10
1.2396651e-08
-4.4709375e-10
1.2559384e-08
-4.2593508e-10
1.2729436e-08
-4.4246947e-10
1.2888275e-08
-4.1850008e-10
1.3057698e-08
-4.3445043e-10
1.3214298e-08
-4.1123602e-10
1.3381712e-08
-4.2424778e-10
1.3537481e-08
-4.0814067e-10
1.3699239e-08
-4.074591e-10
1.3856887e-08
-4.0733957e-10
1.4012076e-08
-3.9054571e-10
1.4170859e-08
-4.0574944e-10
1.4323103e-08
-3.8001395e-10
1.447942e-08
-3.9919336e-10
1.4626636e-08
-3.6564837e-10
1.4781736e-08
-3.8394117e-10
1.4929218e-08
-3.6717247e-10
1.5080752e-08
-3.6936024e-10
1.522716e-08
-3.6628195e-10
1.5372127e-08
-3.4711279e-10
1.5518108e-08
-3.5858905e-10
1.565984e-08
-3.3848868e-10
1.5805908e-08
-3.5159346e-10
1.594995e-08
-3.4331582e-10
1.6084785e-08
-3.2517178e-10
1.6221065e-08
-3.2284607e-10
1.6359958e-08
-3.154747e-10
1.6492494e-08
-3.1678349e-10
1.6621346e-08
-3.0306733e-10
1.6751738e-08
-2.9755116e-10
1.6881944e-08
-2.9697719e-10
1.7007247e-08
-2.8662227e-10
1.713223e-08
-2.8243239e-10
1.7257524e-08
-2.8593932e-10
1.738227e-08
-2.7364659e-10
1.7504891e-08
-2.7201743e-10
1.761955e-08
-2.5380431e-10
1.7735783e-08
-2.4807887e-10
1.7849259e-08
-2.4350284e-10
1.7961356e-08
-2.3973803e-10
-2.3609012e-10
7.3498671e-09
-6.8521228e-10
7.5471309e-09
-6.6147582e-10
7.7494787e-09
-6.9889582e-10
7.9510469e-09
-6.7306435e-10
8.1555849e-09
-7.0276818e-10
8.3591858e-09
-6.7416965e-10
8.564464e-09
-7.0048967e-10
8.7697793e-09
-6.7742726e-10
8.9767393e-09
-7.0038784e-10
9.1839327e-09
-6.8406307e-10
9.3934198e-09
-6.9938632e-10
9.6010295e-09
-6.8819296e-10
9.8130561e-09
-6.9557794e-10
1.002043e-08
-6.9066661e-10
1.0235209e-08
-6.9314086e-10
1.0442134e-08
-6.9174939e-10
1.0658966e-08
-6.9078574e-10
1.0865296e-08
-6.8883206e-10
1.1083832e-08
-6.9130435e-10
1.1290723e-08
-6.8563326e-10
1.1509489e-08
-6.9049969e-10
1.1718772e-08
-6.8285455e-10
1.1934961e-08
-6.8524086e-10
1.2148375e-08
-6.8225459e-10
1.2361663e-08
-6.797336e-10
1.2578164e-08
-6.8014378e-10
1.2788945e-08
-6.7429133e-10
1.3006822e-08
-6.7581229e-10
1.3217309e-08
-6.7070699e-10
1.3433785e-08
-6.6747313e-10
1.3644332e-08
-6.6596276e-10
1.3859099e-08
-6.5778342e-10
1.4069193e-08
-6.610789e-10
1.4281243e-08
-6.4597465e-10
1.4493486e-08
-6.5933646e-10
1.4700906e-08
-6.3335554e-10
1.491691e-08
-6.5847355e-10
1.5118947e-08
-6.2053643e-10
1.533564e-08
-6.5114425e-10
1.5535901e-08
-6.1149661e-10
1.5750444e-08
-6.3879089e-10
1.5950022e-08
-6.0771884e-10
1.6159893e-08
-6.1732944e-10
1.6362308e-08
-6.0975466e-10
1.6565464e-08
-5.9370166e-10
1.6769934e-08
-6.1021978e-10
1.6971979e-08
-5.820592e-10
1.7173463e-08
-6.0067681e-10
1.7370605e-08
-5.6279061e-10
1.7572703e-08
-5.8603945e-10
1.7766914e-08
-5.6138339e-10
1.7968567e-08
-5.7101324e-10
1.8159599e-08
-5.5731394e-10
1.8356376e-08
-5.4388987e-10
1.8547191e-08
-5.4940338e-10
1.8739373e-08
-5.3067156e-10
1.8935975e-08
-5.4819526e-10
1.9127072e-08
-5.3441295e-10
1.9308815e-08
-5.0691426e-10
1.9497113e-08
-5.1114374e-10
1.9686741e-08
-5.0510312e-10
1.9865389e-08
-4.9543151e-10
2.0041706e-08
-4.7938439e-10
2.0223756e-08
-4.7960081e-10
2.0401352e-08
-4.7457318e-10
2.057566e-08
-4.60931e-10
2.0751499e-08
-4.5827097e-10
2.0925419e-08
-4.5985954e-10
2.1100458e-08
-4.4868575e-10
2.1269901e-08
-4.4145992e-10
2.1432936e-08
-4.1683939e-10
2.1599832e-08
-4.1497527e-10
2.1763857e-08
-4.075278e-10
2.1925615e-08
-4.0149607e-10
-3.9670195e-10
7.9476352e-09
-9.1461098e-10
8.1755134e-09
-8.8935402e-10
8.4074865e-09
-9.3086893e-10
8.6410261e-09
-9.066039e-10
8.8757916e-09
-9.3753372e-10
9.1129395e-09
-9.1131753e-10
9.3497812e-09
-9.3733136e-10
9.5894419e-09
-9.1708793e-10
9.8295797e-09
-9.4052569e-10
1.0071618e-08
-9.2610179e-10
1.0315844e-08
-9.4361219e-10
1.0559136e-08
-9.3148426e-10
1.0807267e-08
-9.4370974e-10
1.1051525e-08
-9.349244e-10
1.1303809e-08
-9.4542482e-10
1.1548534e-08
-9.3647433e-10
1.1804407e-08
-9.4665917e-10
1.2049186e-08
-9.3361096e-10
1.2308048e-08
-9.5016575e-10
1.2553861e-08
-9.3144629e-10
1.2814081e-08
-9.5072035e-10
1.3063023e-08
-9.3179586e-10
1.3321434e-08
-9.4365216e-10
1.3575542e-08
-9.3636286e-10
1.3831852e-08
-9.3604352e-10
1.4089628e-08
-9.379197e-10
1.4343837e-08
-9.2849972e-10
1.4604787e-08
-9.3676288e-10
1.4859201e-08
-9.2512032e-10
1.5119609e-08
-9.2788141e-10
1.5374623e-08
-9.2097694e-10
1.5635135e-08
-9.1829527e-10
1.5888418e-08
-9.1436209e-10
1.6148588e-08
-9.0614431e-10
1.6404489e-08
-9.1523822e-10
1.6659449e-08
-8.8831476e-10
1.6921684e-08
-9.2070891e-10
1.7169543e-08
-8.6839584e-10
1.7434908e-08
-9.1650868e-10
1.768223e-08
-8.5881851e-10
1.7945885e-08
-9.0244613e-10
1.8193264e-08
-8.5509809e-10
1.8453842e-08
-8.7790703e-10
1.8704303e-08
-8.6021545e-10
1.8958861e-08
-8.4825999e-10
1.9211234e-08
-8.6259262e-10
1.9466745e-08
-8.3757003e-10
1.9715427e-08
-8.4935962e-10
1.9967949e-08
-8.1531193e-10
2.0220156e-08
-8.3824702e-10
2.0468378e-08
-8.0960526e-10
2.0721738e-08
-8.2437347e-10
2.096032e-08
-7.9589521e-10
2.1212534e-08
-7.9610454e-10
2.1449871e-08
-7.867404e-10
2.1699825e-08
-7.8062536e-10
2.1950222e-08
-7.9859161e-10
2.2189456e-08
-7.7364719e-10
2.2426209e-08
-7.4366721e-10
2.2671439e-08
-7.563737e-10
2.2914315e-08
-7.4797949e-10
2.3145372e-08
-7.2648856e-10
2.3375719e-08
-7.0973111e-10
2.361509e-08
-7.1897155e-10
2.3841056e-08
-7.0053997e-10
2.4071467e-08
-6.9134131e-10
2.4304281e-08
-6.9108503e-10
2.4534685e-08
-6.9026398e-10
2.4767075e-08
-6.8107606e-10
2.4991142e-08
-6.6552662e-10
2.5212995e-08
-6.3869241e-10
2.543385e-08
-6.3583011e-10
2.5652233e-08
-6.2591102e-10
2.5871698e-08
-6.2096069e-10
-6.1338935e-10
8.3914708e-09
-1.1693749e-09
8.6494613e-09
-1.1473445e-09
8.908692e-09
-1.1900997e-09
9.1730302e-09
-1.1709421e-09
9.4365133e-09
-1.2010168e-09
9.705806e-09
-1.1806102e-09
9.9734964e-09
-1.2050218e-09
1.0245937e-08
-1.1895289e-09
1.0519433e-08
-1.2140216e-09
1.0794515e-08
-1.2011831e-09
1.1074073e-08
-1.2231707e-09
1.1351449e-08
-1.2088597e-09
1.1635869e-08
-1.2281301e-09
1.1916124e-08
-1.2151796e-09
1.2205099e-08
-1.2343992e-09
1.2487846e-08
-1.219222e-09
1.2780804e-08
-1.2396171e-09
1.3065519e-08
-1.218326e-09
1.3361822e-08
-1.2464688e-09
1.364866e-08
-1.2182843e-09
1.3947447e-08
-1.2495069e-09
1.4237266e-08
-1.2216152e-09
1.4536641e-08
-1.243027e-09
1.4830799e-08
-1.2305212e-09
1.5130934e-08
-1.2361786e-09
1.5427552e-08
-1.2345378e-09
1.5727153e-08
-1.2281003e-09
1.6028945e-08
-1.2385548e-09
1.6329121e-08
-1.2252964e-09
1.6632401e-08
-1.2311608e-09
1.6933074e-08
-1.22165e-09
1.7239797e-08
-1.225019e-09
1.7536543e-08
-1.2111075e-09
1.7847435e-08
-1.2170363e-09
1.8146535e-08
-1.2143383e-09
1.8452687e-08
-1.1944668e-09
1.8761091e-08
-1.2291133e-09
1.9057622e-08
-1.1649265e-09
1.9373448e-08
-1.2323344e-09
1.9669766e-08
-1.1551371e-09
1.9984399e-08
-1.2170787e-09
2.0282825e-08
-1.1535245e-09
2.0595538e-08
-1.1906197e-09
2.0897694e-08
-1.1623719e-09
2.1206097e-08
-1.1566625e-09
2.1509909e-08
-1.1664045e-09
2.1820051e-08
-1.1477126e-09
2.2117928e-08
-1.1472363e-09
2.2428203e-08
-1.1255872e-09
2.2730004e-08
-1.1400475e-09
2.3036947e-08
-1.1165488e-09
2.3341708e-08
-1.1291338e-09
2.3636145e-08
-1.0903327e-09
2.3945209e-08
-1.1051681e-09
2.4230923e-08
-1.0724544e-09
2.4546165e-08
-1.0958677e-09
2.4846631e-08
-1.0990576e-09
2.5135507e-08
-1.0625231e-09
2.5438325e-08
-1.046485e-09
2.573986e-08
-1.0579088e-09
2.6037941e-08
-1.0460603e-09
2.6325327e-08
-1.0138746e-09
2.661707e-08
-1.0014739e-09
2.6916959e-08
-1.0188607e-09
2.7195236e-08
-9.7881768e-10
2.7488836e-08
-9.8494113e-10
2.7778853e-08
-9.8110209e-10
2.8069514e-08
-9.8092499e-10
2.835875e-08
-9.7031197e-10
2.8638779e-08
-9.4555507e-10
2.8927121e-08
-9.2703439e-10
2.9207708e-08
-9.1641785e-10
2.9489127e-08
-9.0733016e-10
2.9766721e-08
-8.9855374e-10
-8.8970511e-10
8.7043395e-09
-1.4460063e-09
8.9933652e-09
-1.4363703e-09
9.2766136e-09
-1.4733481e-09
9.5725254e-09
-1.4668538e-09
9.8620682e-09
-1.4905597e-09
1.016395e-08
-1.482492e-09
1.0460105e-08
-1.5011763e-09
1.0765697e-08
-1.4951214e-09
1.1070372e-08
-1.5186964e-09
1.1378361e-08
-1.5091723e-09
1.1691789e-08
-1.5365987e-09
1.20019e-08
-1.5189712e-09
1.2322088e-08
-1.5483175e-09
1.2635876e-08
-1.5289673e-09
1.2961046e-08
-1.55957e-09
1.3279702e-08
-1.5378774e-09
1.3607958e-08
-1.5678735e-09
1.3932235e-08
-1.5426029e-09
1.4262779e-08
-1.5770128e-09
1.4591818e-08
-1.5473235e-09
1.4925919e-08
-1.5836076e-09
1.5257347e-08
-1.5530429e-09
1.5596675e-08
-1.5823549e-09
1.5930234e-08
-1.5640802e-09
1.6275307e-08
-1.5812521e-09
1.6608624e-08
-1.5678543e-09
1.6956553e-08
-1.5760299e-09
1.7296865e-08
-1.5788663e-09
1.7645442e-08
-1.5738733e-09
1.799071e-08
-1.5764288e-09
1.8338458e-08
-1.5693987e-09
1.8691467e-08
-1.5780275e-09
1.9032658e-08
-1.5522985e-09
1.9396163e-08
-1.5805413e-09
1.9737876e-08
-1.5560518e-09
2.0099368e-08
-1.5559588e-09
2.0452094e-08
-1.5818393e-09
2.0801138e-08
-1.5139702e-09
2.1167218e-08
-1.5984148e-09
2.1513819e-08
-1.5017374e-09
2.1879927e-08
-1.5831873e-09
2.2231046e-08
-1.504643e-09
2.2594294e-08
-1.5538675e-09
2.2949586e-08
-1.5176641e-09
2.3312352e-08
-1.5194288e-09
2.3667407e-08
-1.5214594e-09
2.4030919e-08
-1.5112249e-09
2.4381002e-08
-1.4973187e-09
2.4749181e-08
-1.4937669e-09
2.5100356e-08
-1.4912223e-09
2.546723e-08
-1.4834229e-09
2.581886e-08
-1.4807639e-09
2.6174206e-08
-1.445679e-09
2.6534614e-08
-1.4655759e-09
2.6875649e-08
-1.4134889e-09
2.7257908e-08
-1.478127e-09
2.7600482e-08
-1.4416314e-09
2.7944156e-08
-1.4061971e-09
2.8314372e-08
-1.4167015e-09
2.8668297e-08
-1.4118332e-09
2.9020333e-08
-1.3980969e-09
2.9361872e-08
-1.3554126e-09
2.9722618e-08
-1.3622207e-09
3.0070768e-08
-1.3670107e-09
3.0400558e-08
-1.3086075e-09
3.0763702e-08
-1.3480848e-09
3.1102747e-08
-1.3201477e-09
3.1457559e-08
-1.3357366e-09
3.1798643e-08
-1.3113957e-09
3.2134521e-08
-1.2814338e-09
3.2485303e-08
-1.2778154e-09
3.2818982e-08
-1.2500969e-09
3.3163409e-08
-1.2517579e-09
3.3501976e-08
-1.2371203e-09
-1.2229733e-09
8.9118685e-09
-1.7470947e-09
9.2278932e-09
-1.752395e-09
9.5352828e-09
-1.7807376e-09
9.860586e-09
-1.792157e-09
1.0174557e-08
-1.8045303e-09
1.0507908e-08
-1.8158437e-09
1.0829489e-08
-1.822757e-09
1.1168152e-08
-1.8337846e-09
1.1499328e-08
-1.8498719e-09
1.1841405e-08
-1.8512496e-09
1.2182883e-08
-1.8780767e-09
1.2527428e-08
-1.8635162e-09
1.2878152e-08
-1.8990412e-09
1.3226275e-08
-1.8770913e-09
1.3584194e-08
-1.9174886e-09
1.3938445e-08
-1.8921284e-09
1.4300245e-08
-1.9296731e-09
1.4663312e-08
-1.9056705e-09
1.5027145e-08
-1.9408452e-09
1.5398485e-08
-1.9186638e-09
1.5766759e-08
-1.9518818e-09
1.6140389e-08
-1.9266726e-09
1.6519365e-08
-1.9613308e-09
1.6893328e-08
-1.938043e-09
1.7283207e-08
-1.971132e-09
1.7653514e-08
-1.9381612e-09
1.8051547e-08
-1.9740625e-09
1.8428944e-08
-1.9562636e-09
1.8828671e-08
-1.9735998e-09
1.9214768e-08
-1.962526e-09
1.9611347e-08
-1.9659776e-09
2.0007858e-08
-1.9745389e-09
2.0397134e-08
-1.9415745e-09
2.0808972e-08
-1.9923793e-09
2.1194437e-08
-1.9415166e-09
2.1611544e-08
-1.9730659e-09
2.2003124e-08
-1.9734192e-09
2.2409104e-08
-1.9199507e-09
2.2817954e-08
-2.0072645e-09
2.32162e-08
-1.8999835e-09
2.3629499e-08
-1.9964864e-09
2.4032438e-08
-1.9075817e-09
2.4441913e-08
-1.9633423e-09
2.4845661e-08
-1.9214118e-09
2.5263081e-08
-1.936849e-09
2.5662663e-08
-1.9210413e-09
2.6074624e-08
-1.9231859e-09
2.6474009e-08
-1.8967034e-09
2.6893034e-08
-1.9127921e-09
2.7292623e-08
-1.8908115e-09
2.7712419e-08
-1.9032187e-09
2.8106537e-08
-1.8748818e-09
2.8519842e-08
-1.858984e-09
2.8915555e-08
-1.8612888e-09
2.9316637e-08
-1.8145708e-09
2.9751219e-08
-1.9127091e-09
3.0123466e-08
-1.813879e-09
3.05277e-08
-1.8104305e-09
3.0949597e-08
-1.8385989e-09
3.134909e-08
-1.8113263e-09
3.1744405e-08
-1.7934117e-09
3.2129154e-08
-1.740162e-09
3.2566565e-08
-1.7996318e-09
3.2935556e-08
-1.736001e-09
3.3315446e-08
-1.6884976e-09
3.3747731e-08
-1.7803698e-09
3.4118068e-08
-1.6904854e-09
3.4538749e-08
-1.7564174e-09
3.4918646e-08
-1.691292e-09
3.5306316e-08
-1.6691039e-09
3.5709411e-08
-1.6809108e-09
3.6091843e-08
-1.632529e-09
3.6487484e-08
-1.6473983e-09
3.6876333e-08
-1.6259699e-09
-1.6021551e-09
9.0324483e-09
-2.0766348e-09
9.366454e-09
-2.0864007e-09
9.7021188e-09
-2.1164023e-09
1.0048337e-08
-2.1383756e-09
1.0389966e-08
-2.1461591e-09
1.0747521e-08
-2.1733981e-09
1.1096655e-08
-2.1718915e-09
1.1462643e-08
-2.1997721e-09
1.1820941e-08
-2.2081698e-09
1.2194046e-08
-2.2243551e-09
1.256163e-08
-2.2456602e-09
1.2941375e-08
-2.2432613e-09
1.3318178e-08
-2.2758447e-09
1.3704197e-08
-2.2631101e-09
1.4089919e-08
-2.3032107e-09
1.4483243e-08
-2.2854522e-09
1.4876217e-08
-2.3226471e-09
1.5278433e-08
-2.3078866e-09
1.5676495e-08
-2.3389069e-09
1.6088951e-08
-2.3311198e-09
1.6492066e-08
-2.3549968e-09
1.6907668e-08
-2.3422744e-09
1.732471e-08
-2.378373e-09
1.7742311e-08
-2.3556441e-09
1.8170805e-08
-2.3996263e-09
1.8583552e-08
-2.3509084e-09
1.9025063e-08
-2.4155732e-09
1.9442231e-08
-2.3734313e-09
1.9887805e-08
-2.4191744e-09
2.0316027e-08
-2.3907478e-09
2.0756749e-08
-2.4067e-09
2.1190876e-08
-2.4086658e-09
2.1632285e-08
-2.3829832e-09
2.2076975e-08
-2.4370693e-09
2.2511395e-08
-2.3759364e-09
2.2972766e-08
-2.434437e-09
2.3396573e-08
-2.3972267e-09
2.3858836e-08
-2.3822129e-09
2.4294048e-08
-2.4424772e-09
2.4743596e-08
-2.3495314e-09
2.5192036e-08
-2.4449266e-09
2.5638519e-08
-2.3540647e-09
2.6088201e-08
-2.4130238e-09
2.6523953e-08
-2.3571643e-09
2.6991999e-08
-2.4048948e-09
2.7420348e-08
-2.3493899e-09
2.7869272e-08
-2.3721101e-09
2.8306908e-08
-2.3343389e-09
2.8763332e-08
-2.3692163e-09
2.920384e-08
-2.3313195e-09
2.9659201e-08
-2.3585798e-09
3.0092371e-08
-2.3080523e-09
3.0547624e-08
-2.3142363e-09
3.0960618e-08
-2.2742837e-09
3.1420973e-08
-2.2749257e-09
3.1881328e-08
-2.3730639e-09
3.2255805e-08
-2.1883557e-09
3.27177e-08
-2.2723261e-09
3.3150645e-08
-2.2715436e-09
3.3616918e-08
-2.2775988e-09
3.4045821e-08
-2.2223148e-09
3.4457166e-08
-2.1515071e-09
3.5009189e-08
-2.3516546e-09
3.5343815e-08
-2.070627e-09
3.5761161e-08
-2.1058435e-09
3.6270707e-08
-2.2899157e-09
3.6604063e-08
-2.0238414e-09
3.7102587e-08
-2.2549415e-09
3.7443681e-08
-2.0323869e-09
3.781496e-08
-2.0403829e-09
3.8226071e-08
-2.0920213e-09
3.8526748e-08
-1.9332061e-09
3.887612e-08
-1.99677e-09
3.9186754e-08
-1.9366037e-09
-1.8879426e-09
9.0723315e-09
-2.4301283e-09
9.4228481e-09
-2.4369172e-09
9.7858336e-09
-2.4793879e-09
1.0148977e-08
-2.5015186e-09
1.0520087e-08
-2.5172696e-09
1.0896179e-08
-2.5494905e-09
1.1276474e-08
-2.5521857e-09
1.1663193e-08
-2.5864917e-09
1.2053579e-08
-2.5985551e-09
1.2450666e-08
-2.6214424e-09
1.2849932e-08
-2.6449261e-09
1.3258477e-08
-2.6518063e-09
1.3665765e-08
-2.6831333e-09
1.4085578e-08
-2.6829227e-09
1.4500743e-08
-2.7183755e-09
1.4931566e-08
-2.7162757e-09
1.535573e-08
-2.7468107e-09
1.5795246e-08
-2.7474027e-09
1.6228171e-08
-2.7718324e-09
1.6678838e-08
-2.7817861e-09
1.7117017e-08
-2.7931758e-09
1.7571473e-08
-2.7967305e-09
1.8024843e-08
-2.8317434e-09
1.848511e-08
-2.8159105e-09
1.8944805e-08
-2.859322e-09
1.9402007e-08
-2.8081101e-09
1.9875833e-08
-2.8893991e-09
2.0332952e-08
-2.83055e-09
2.0810441e-08
-2.8966635e-09
2.1282026e-08
-2.8623327e-09
2.174981e-08
-2.8744845e-09
2.2217007e-08
-2.875863e-09
2.2700007e-08
-2.8659831e-09
2.3163829e-08
-2.9008914e-09
2.3639211e-08
-2.8513185e-09
2.4128251e-08
-2.9234767e-09
2.4571386e-08
-2.8403614e-09
2.5076002e-08
-2.8868288e-09
2.5518221e-08
-2.8846966e-09
2.6013748e-08
-2.8450584e-09
2.6476534e-08
-2.907713e-09
2.6955151e-08
-2.8326811e-09
2.7433041e-08
-2.8909135e-09
2.7873624e-08
-2.7977475e-09
2.8379203e-08
-2.9104742e-09
2.879261e-08
-2.7627964e-09
2.928268e-08
-2.8621806e-09
2.976361e-08
-2.8152683e-09
3.0243116e-08
-2.8487224e-09
3.0732842e-08
-2.8210461e-09
3.1187415e-08
-2.8131529e-09
3.1628399e-08
-2.7490358e-09
3.208304e-08
-2.7688779e-09
3.2362942e-08
-2.5541855e-09
3.2709977e-08
-2.6219604e-09
3.3222818e-08
-2.8859052e-09
3.314101e-08
-2.1065478e-09
3.2731713e-08
-1.8630285e-09
3.2765699e-08
-2.3055303e-09
3.3501012e-08
-3.012911e-09
3.3710457e-08
-2.4317602e-09
3.3731022e-08
-2.1720721e-09
3.4402527e-08
-3.0231597e-09
3.4202332e-08
-1.8704321e-09
3.4262298e-08
-2.1658093e-09
3.4447027e-08
-2.474645e-09
3.4126813e-08
-1.703627e-09
3.4526691e-08
-2.6548193e-09
3.417649e-08
-1.6821858e-09
3.399438e-08
-1.8582735e-09
3.4052648e-08
-2.1502886e-09
3.3672814e-08
-1.5533729e-09
3.3546511e-08
-1.8704664e-09
3.340738e-08
-1.797473e-09
-1.6235899e-09
9.0431485e-09
-2.8019264e-09
9.4140288e-09
-2.8077975e-09
9.79824e-09
-2.8635991e-09
1.0181876e-08
-2.8851544e-09
1.0577109e-08
-2.9125029e-09
1.0974126e-08
-2.9465075e-09
1.1381467e-08
-2.9595261e-09
1.1789828e-08
-2.9948537e-09
1.2209921e-08
-3.018648e-09
1.2629818e-08
-3.0413386e-09
1.3061089e-08
-3.0761974e-09
1.3494191e-08
-3.0849086e-09
1.3935259e-08
-3.1242009e-09
1.4382687e-08
-3.1303507e-09
1.4831264e-08
-3.1669528e-09
1.5293988e-08
-3.1789999e-09
1.5751464e-08
-3.2042864e-09
1.6224176e-08
-3.2201145e-09
1.6690821e-08
-3.2384778e-09
1.7176649e-08
-3.2676143e-09
1.7645673e-08
-3.2621995e-09
1.813449e-08
-3.2855469e-09
1.8618616e-08
-3.31587e-09
1.9111551e-08
-3.3088449e-09
1.9597743e-08
-3.3455149e-09
2.0082623e-08
-3.29299e-09
2.0584263e-08
-3.3910384e-09
2.1058666e-08
-3.3049532e-09
2.156156e-08
-3.3995575e-09
2.2053143e-08
-3.3539157e-09
2.2536419e-08
-3.3577609e-09
2.3017162e-08
-3.3566057e-09
2.3529532e-08
-3.3783524e-09
2.3995538e-08
-3.3668976e-09
2.4490646e-08
-3.3464267e-09
2.4989889e-08
-3.4227201e-09
2.5404171e-08
-3.2546432e-09
2.5960376e-08
-3.4430336e-09
2.6412126e-08
-3.3364468e-09
2.6933952e-08
-3.3668845e-09
2.7388777e-08
-3.3625373e-09
2.7831987e-08
-3.2758918e-09
2.8216901e-08
-3.2758276e-09
2.8449824e-08
-3.0306699e-09
2.8498811e-08
-2.9594616e-09
2.833165e-08
-2.5956352e-09
2.8597215e-08
-3.127746e-09
2.8919483e-08
-3.1375359e-09
2.9010395e-08
-2.9396342e-09
2.9229528e-08
-3.0401792e-09
2.9173618e-08
-2.7572427e-09
2.9144822e-08
-2.7202402e-09
2.8853034e-08
-2.4770893e-09
2.8441672e-08
-2.1428241e-09
2.7730707e-08
-1.9109949e-09
2.7562187e-08
-2.7173857e-09
2.6651709e-08
-1.1960693e-09
2.5868512e-08
-1.0798319e-09
2.5092588e-08
-1.529606e-09
2.3929492e-08
-1.8498153e-09
2.2775927e-08
-1.2781955e-09
2.1868563e-08
-1.2647075e-09
2.0563349e-08
-1.717946e-09
1.8993808e-08
-3.0089127e-10
1.7874604e-08
-1.0466053e-09
1.6689187e-08
-1.2892279e-09
1.524105e-08
-2.5549019e-10
1.3897994e-08
-1.3117632e-09
1.2924218e-08
-7.0841011e-10
1.2162941e-08
-1.0969968e-09
1.1316076e-08
-1.3034229e-09
1.0996995e-08
-1.2342927e-09
1.0565381e-08
-1.4388516e-09
9.8222e-09
-1.0542924e-09
-1.574984e-09
8.9614362e-09
-3.1918571e-09
9.3500918e-09
-3.1964531e-09
9.7536378e-09
-3.2671451e-09
1.0156804e-08
-3.2883211e-09
1.0572663e-08
-3.328361e-09
1.099154e-08
-3.3653845e-09
1.1421481e-08
-3.3894675e-09
1.1853376e-08
-3.4267486e-09
1.2299118e-08
-3.4643901e-09
1.2743575e-08
-3.4857958e-09
1.3203963e-08
-3.5365855e-09
1.3662659e-08
-3.5436047e-09
1.4135801e-08
-3.5973426e-09
1.4610857e-08
-3.6054064e-09
1.5091253e-08
-3.6473492e-09
1.5583654e-08
-3.6714013e-09
1.6071575e-08
-3.6922068e-09
1.657228e-08
-3.7208194e-09
1.7065149e-08
-3.7313469e-09
1.7579224e-08
-3.7816898e-09
1.8064197e-08
-3.7471723e-09
1.8581176e-08
-3.8025263e-09
1.907058e-08
-3.8052739e-09
1.9589334e-08
-3.8275985e-09
2.007343e-08
-3.8296106e-09
2.0570732e-08
-3.7902923e-09
2.1079223e-08
-3.8995299e-09
2.1553909e-08
-3.7796388e-09
2.2056325e-08
-3.9019739e-09
2.254683e-08
-3.8444204e-09
2.3034132e-08
-3.8450632e-09
2.3516397e-08
-3.83887e-09
2.4063976e-08
-3.9259315e-09
2.4406593e-08
-3.7095151e-09
2.4842096e-08
-3.7819293e-09
2.4897176e-08
-3.4778003e-09
2.4835856e-08
-3.1933236e-09
2.5055014e-08
-3.6621915e-09
2.5285425e-08
-3.5668571e-09
2.513804e-08
-3.2195003e-09
2.5136671e-08
-3.3611681e-09
2.4729086e-08
-2.868307e-09
2.4324439e-08