/*--------------------------------*- C++ -*----------------------------------*\
| =========                 |                                                 |
| \\      /  F ield         | OpenFOAM: The Open Source CFD Toolbox           |
|  \\    /   O peration     | Version:  2.3.0                                 |
|   \\  /    A nd           | Web:      www.OpenFOAM.org                      |
|    \\/     M anipulation  |                                                 |
\*---------------------------------------------------------------------------*/
FoamFile
{
    version     2.0;
    format      ascii;
    class       volScalarField;
    location    "0.068";
    object      alpha.water;
}
// * * * * * * * * * * * * * * * * * * * * * * * * * * * * * * * * * * * * * //

dimensions      [0 0 0 0 0 0 0];

internalField   nonuniform List<scalar> 
725
(
1
1
1
0.999955
1
1
1
1
0.999991
1
1
1
1
1.00001
1
1
1
1
1.00006
0.999272
1
1
1
1.00001
0.929262
0.692831
0.0141102
0.00054508
0.00054571
0.00427514
0.0138485
0.00323652
0.149368
0.969088
0.999921
0.999807
0.999776
0.999772
0.999803
0.99983
0.999847
0.99986
0.999875
0.999893
0.999915
0.999942
0.999968
0.999984
0.999998
1.00001
1.00002
1.00002
1.00002
1.00002
1.00002
1.00002
1
0.894748
0.199178
0.000410065
0.000408576
0.000337003
0.00921182
0.643182
0.999631
0.999603
0.999637
1
0.983123
0.270081
0.675056
0.00211295
0.000544975
0.000548222
0.00674482
0.040954
0.00332025
0.148922
0.98423
0.999921
0.999836
0.999791
0.999726
0.999695
0.999699
0.999734
0.999779
0.999817
0.999839
0.999845
0.999844
0.999842
0.999844
0.99985
0.999861
0.999876
0.999895
0.999914
0.999936
0.999975
1.00001
1.00001
0.8993
0.198647
0.000385032
0.000409877
0.000336912
0.0129122
0.635535
0.99968
0.999648
0.999804
1
0.95451
0.165874
0.634055
0.00633371
0.000547648
0.000554143
0.0121674
0.0417635
0.00490902
0.187102
0.999913
0.999913
0.999853
0.999787
0.999764
0.99973
0.999681
0.999649
0.999647
0.999675
0.999719
0.999778
0.999917
0.999909
0.9999
0.999895
0.999893
0.999892
0.999894
0.999897
0.999906
0.999931
1.00002
1.00001
0.901754
0.197864
0.000354443
0.000352959
0.000336856
0.0138926
0.632677
1
1.00017
0.999972
1
0.892352
0.0950799
0.467678
0.00136371
0.000551921
0.000555247
0.0421814
0.0318069
0.00572591
0.338296
0.999911
0.999907
0.999838
0.999724
0.99986
0.999779
0.999744
0.999702
0.999667
0.999653
0.999661
0.999684
0.999714
0.999743
0.999762
0.999845
0.999945
0.999927
0.999918
0.999913
0.999912
0.999957
1.00001
1.00001
0.906581
0.196859
0.000374065
0.000384631
0.000336801
0.0169326
0.624978
0.999675
0.999646
0.999825
1
0.86791
0.0880789
0.338749
0.000672704
0.00055512
0.00400157
0.0535757
0.0393179
0.0355734
0.405549
0.99991
0.999589
0.999822
0.999583
0.999569
0.99957
0.999848
0.999789
0.999744
0.999716
0.999704
0.999707
0.999724
0.99975
0.999779
0.999806
0.99983
0.999854
0.999874
0.999888
0.999899
0.999944
1.00001
1.00001
0.910805
0.194095
0.000697628
0.00121139
0.00033679
0.0176024
0.623066
0.999643
0.999635
0.99977
1
0.864555
0.0767978
6.06422e-07
0.0136997
0.000677618
0.0397628
0.0535757
0.0388381
0.0931667
0.600549
0.999291
0.989406
0.999481
0.999446
0.999604
0.999667
0.999675
0.999748
0.999766
0.999759
0.999752
0.999755
0.999766
0.999782
0.999804
0.999828
0.999848
0.999864
0.999876
0.999886
0.999898
0.999943
1.00009
1.00007
0.913835
0.192345
0.00100957
0.00142157
0.000338988
0.017792
0.620863
0.999447
0.99941
0.99969
1
0.902758
0.084532
0.00119233
0.0183857
0.000774116
0.0520692
0.0528166
0.0341386
0.112196
0.72229
0.998842
0.989403
0.999419
0.999225
0.999596
0.999675
0.999707
0.999871
0.999792
0.999776
0.999766
0.999763
0.999769
0.999784
0.999803
0.999824
0.999843
0.99986
0.999874
0.999885
0.999898
0.999947
1.00008
1.00007
0.914962
0.191192
0.00118613
0.00124299
0.00034779
0.0172861
0.621451
0.999393
0.999356
0.999639
1.00007
0.91644
0.0994313
0.00659442
0.0183857
0.000924377
0.00964795
0.0516702
0.0303882
0.178349
0.760864
0.998732
0.995423
0.993857
0.998821
0.999622
0.999689
0.999696
0.999728
0.999766
0.999772
0.999768
0.999766
0.999771
0.999784
0.999802
0.999822
0.999842
0.99986
0.999875
0.999886
0.999898
0.999955
1.00009
1.00006
0.91595
0.19059
0.00128959
0.00130265
0.000359906
0.0173063
0.62073
0.999359
0.999322
0.999605
1.0001
0.93391
0.117139
0.00563403
0.0117068
0.00121747
0.00157476
0.049728
0.0280755
0.386109
0.758008
0.999999
0.999995
0.993852
0.99938
0.999736
0.999707
0.999689
0.999818
0.999804
0.999786
0.999774
0.999769
0.999772
0.999783
0.9998
0.99982
0.99984
0.99986
0.999877
0.99989
0.999902
0.999953
1.00008
1.00006
0.915788
0.190672
0.00121528
0.00128921
0.000365449
0.0167608
0.621392
0.999336
0.999306
0.999581
1.00009
0.948928
0.141142
0.235304
0.00196388
0.00150705
0.00199073
0.0184743
0.0225376
0.488977
0.766468
0.99974
0.999952
0.998577
0.999755
0.999774
0.999709
0.999688
0.999691
0.999747
0.999767
0.999769
0.999767
0.99977
0.99978
0.999796
0.999814
0.999832
0.999856
0.999877
0.999895
0.999908
0.999964
1.00009
1.00009
0.915289
0.191614
0.00100687
0.00135929
0.000368541
0.0168655
0.620553
0.999349
0.999312
0.999569
0.999996
0.959786
0.174842
1
1
1
1
1.00001
1
1
1
0.999999
1.00001
1
1
1
0.999998
1
1
1
1
0.999998
0.999964
1
1
1
0.999992
0.999978
0.943408
0.187825
0.0116676
0.0193491
0.0183207
0.0193328
0.508226
0.850461
0.999948
0.999954
0.999893
0.999881
0.999793
0.99971
0.999702
0.99972
0.999777
0.999774
0.999767
0.999763
0.999764
0.999771
0.99978
0.999789
0.999793
0.999801
0.999963
0.999941
0.999929
0.999962
1.00002
1.00002
0.914551
0.192233
0.000692875
0.000839881
0.000330438
0.0156404
0.62197
0.999504
0.999497
0.999582
0.999996
0.992968
0.290874
1
0.953044
0.733001
0.128186
0.0193329
0.12522
0.565838
0.96018
0.999913
0.999844
0.999882
0.999838
0.999762
0.999678
0.99965
0.99987
0.999817
0.99978
0.99976
0.999747
0.999747
0.999759
0.999778
0.9998
0.999819
0.999835
0.999849
0.999862
0.999874
0.999966
1.00012
1.00007
0.915008
0.192714
0.00040175
0.000398609
0.000330299
0.0138873
0.62164
0.999528
0.999509
0.999615
1
0.993807
0.272058
0.995562
0.984106
0.983836
0.659598
0.0991523
0.275219
0.66395
0.998942
0.999883
0.999858
0.999847
0.999809
0.999736
0.999716
0.99975
0.999777
0.999771
0.999746
0.999727
0.999725
0.99974
0.999763
0.999788
0.999811
0.999831
0.999848
0.999863
0.999876
0.999894
0.999993
1.00006
1.00003
0.912208
0.192793
0.000401545
0.000400355
0.000330196
0.0098932
0.626902
1
1.00005
0.999813
1
0.985827
0.245956
0.999692
0.94185
0.889793
0.889786
0.643614
0.403085
0.765477
0.991847
0.999884
0.999883
0.999836
0.999755
0.999866
0.999782
0.999766
0.999758
0.999762
0.999779
0.9998
0.99982
0.999839
0.999856
0.999874
0.999892
0.999909
0.999926
0.999943
0.999964
1.00001
1.00003
1.00004
1.00001
0.912196
0.192182
0.000387664
0.000397005
0.000330129
0.00720308
0.629269
0.999577
0.999546
0.999693
0.999999
0.921742
0.111667
0.999978
0.979197
0.821081
0.835111
0.593314
0.397134
0.83893
0.971618
0.99987
0.999691
0.999739
0.999751
0.999751
0.999782
0.99985
0.99993
1.00001
1.00001
1.00001
1.00002
1.00002
1.00002
1.00002
1.00002
1.00002
1.00002
1.00002
1.00003
1.00003
1.00003
1.00004
1.00001
0.908457
0.192815
0.000373303
0.00037182
0.000330112
0.00251279
0.636538
0.999799
0.999795
0.999704
0.999999
0.81468
0.0984787
)
;

boundaryField
{
    AirInlet
    {
        type            fixedValue;
        value           uniform 0;
    }
    WaterInlet
    {
        type            fixedValue;
        value           uniform 1;
    }
    ChannelWall
    {
        type            zeroGradient;
    }
    Outlet
    {
        type            inletOutlet;
        inletValue      uniform 0;
        value           nonuniform List<scalar> 
15
(
0
0
0.0950799
0.0880789
0.0767978
0.084532
0.0994313
0.117139
0
0
0
0
0
0.111667
0.0984787
)
;
    }
    FrontAndBack
    {
        type            empty;
    }
}


// ************************************************************************* //
