/*--------------------------------*- C++ -*----------------------------------*\
| =========                 |                                                 |
| \\      /  F ield         | OpenFOAM: The Open Source CFD Toolbox           |
|  \\    /   O peration     | Version:  2.3.0                                 |
|   \\  /    A nd           | Web:      www.OpenFOAM.org                      |
|    \\/     M anipulation  |                                                 |
\*---------------------------------------------------------------------------*/
FoamFile
{
    version     2.0;
    format      ascii;
    class       volScalarField;
    location    "0.068";
    object      p_rgh;
}
// * * * * * * * * * * * * * * * * * * * * * * * * * * * * * * * * * * * * * //

dimensions      [1 -1 -2 0 0 0 0];

internalField   nonuniform List<scalar> 
725
(
638.586
595.418
584.462
570.251
514.919
632.458
595.882
585.27
577.133
533.144
629.816
595.791
586.116
588.972
534.069
630.148
594.597
584.858
588.519
551.745
633.576
592.162
578.44
549.854
383.618
265.934
-81.6646
-91.6131
-96.7883
-39.8246
145.082
31.3502
-142.915
-524.391
-677.476
-566.243
-564.658
-550.433
-543.743
-540.912
-540.582
-541.038
-542.106
-543.51
-544.854
-545.961
-547.249
-548.705
-550.037
-551.066
-552.525
-554.17
-555.926
-557.681
-559.724
-562.078
-564.953
-572.221
-565.823
-567.867
-568.049
-567.967
-569.101
-557.364
-571.288
-539.821
-564.926
-382.505
106.246
130.353
388.682
-86.0976
-91.7891
-105.091
-85.9651
-62.3962
-21.603
-211.704
-615.284
-698.415
-567.92
-562.529
-549.946
-543.458
-541.276
-540.913
-541.279
-542.264
-543.681
-545.11
-546.326
-547.732
-549.23
-550.618
-551.657
-553.086
-554.652
-556.312
-557.952
-559.78
-561.773
-564.212
-568.94
-567.069
-568.118
-568.1
-567.902
-568.063
-561.207
-575.445
-549.177
-593.61
-448.868
-324.897
-17.0516
438.946
-86.7808
-91.4259
-114.796
-109.69
-31.7858
-38.8158
-347.748
-634.816
-718.036
-563.605
-559.774
-548.342
-542.751
-540.759
-539.961
-540.891
-542.116
-543.601
-545.093
-546.259
-547.685
-549.241
-550.715
-551.8
-553.191
-554.656
-556.294
-557.851
-559.531
-561.322
-563.204
-565.77
-567.333
-568.018
-567.427
-567.835
-568.101
-564.51
-580.934
-556.813
-646.212
-615.747
-1068.44
140.381
368.602
-75.634
-88.1442
-127.874
-102.094
-48.8777
-28.9712
-529.394
-684.822
-753.893
-543.801
-555.943
-544.809
-540.973
-540.344
-540.062
-540.805
-541.738
-543.092
-544.61
-546.238
-547.636
-549.038
-550.742
-551.639
-553.149
-554.662
-556.332
-557.822
-559.4
-560.8
-562.007
-562.796
-568.023
-568.071
-567.794
-567.84
-567.859
-566.233
-585.786
-572.813
-682.251
-710.687
-1298.33
203.369
-172.568
-67.575
-74.9924
-181.22
91.0609
-0.475671
-61.2254
-583.577
-756.458
-808.27
-501.569
-546.424
-539.378
-537.952
-539.001
-539.389
-540.961
-542.119
-543.397
-544.745
-546.217
-547.677
-549.172
-550.647
-552.119
-553.531
-554.851
-556.3
-557.739
-559.277
-560.227
-560.791
-559.753
-568.479
-568.276
-568.391
-567.971
-567.898
-565.89
-587.588
-574.65
-684.346
-727.564
-1543.56
252.951
-296.888
-193.544
-52.151
1003.75
210.544
72.4303
-156.718
-642.761
-699.805
-280.333
-469.626
-537.772
-536.843
-537.076
-536.15
-538.88
-540.817
-541.977
-543.379
-544.789
-546.331
-547.707
-549.05
-550.256
-552.05
-553.516
-554.82
-556.294
-557.689
-559.208
-558.926
-560.028
-559.552
-568.71
-568.329
-567.757
-567.787
-567.463
-565.735
-586.885
-568.973
-666.276
-671.103
-1527.01
216.79
-327.617
-54.5526
-41.3715
1193.07
218.068
119.021
-219.962
-312.276
-676.523
-291.456
-456.089
-533.571
-535.725
-536.647
-536.599
-534.164
-540.698
-541.945
-543.371
-544.793
-546.322
-547.676
-549.05
-550.348
-552.061
-553.508
-554.767
-556.253
-557.677
-559.211
-559.02
-559.792
-559.344
-568.76
-568.311
-566.227
-567.689
-567.445
-565.825
-586.427
-566.827
-657.964
-644.889
-1434.88
117.579
-513.056
-38.9919
-30.3655
586.705
216.646
174.029
-488.379
157.861
-658.261
-291.936
-447.727
-518.829
-535.158
-536.242
-536.537
-539.13
-541.538
-541.911
-543.359
-544.795
-546.296
-547.672
-549.083
-550.383
-552.058
-553.503
-554.772
-556.294
-557.67
-559.196
-558.758
-559.676
-559.053
-568.605
-568.285
-568.016
-567.691
-567.451
-565.871
-585.777
-564.595
-647.908
-614.345
-1243.98
15.6917
-503.494
179.523
-21.6402
660.793
233.917
202.376
-569.268
190.678
-648.276
-290.876
-433.185
-532.423
-534.596
-535.825
-536.435
-538.904
-540.202
-541.373
-543.142
-544.706
-546.256
-547.673
-549.09
-550.4
-552.052
-553.502
-554.788
-556.315
-557.709
-559.181
-558.938
-559.725
-559.511
-568.473
-568.334
-567.744
-567.849
-567.475
-565.88
-585.083
-561.901
-636.81
-581.306
-996.194
-69.9264
-411.781
512.808
-18.2133
637.221
310.893
231.846
-184.45
176.935
-627.031
-308.34
-582.355
-532.517
-533.639
-535.354
-536.216
-538.822
-540.218
-541.97
-543.323
-544.773
-546.29
-547.684
-549.099
-550.428
-552.055
-553.524
-554.781
-556.324
-557.739
-559.177
-558.677
-559.853
-559.759
-568.465
-568.382
-566.398
-567.874
-567.587
-565.919
-584.341
-560.078
-625.18
-547.391
-760.844
-91.8036
408.42
366.867
359.848
326.92
456.878
404.869
368.378
360.98
328.413
465.112
404.42
369.062
361.073
333.931
442.443
406.981
368.933
360.311
336.985
393.921
413.133
368.316
359.878
338.483
382.98
28.5633
378.183
-38.3945
88.4694
345.045
264.037
-208.53
-392.802
-529.527
-348.901
-544.825
-527.776
-530.712
-534.024
-536.241
-538.414
-540.314
-541.866
-543.286
-544.756
-546.258
-547.681
-549.097
-550.46
-551.965
-553.369
-554.387
-556.199
-557.765
-559.088
-559.879
-560.228
-559.18
-568.777
-568.442
-570.779
-567.87
-567.946
-566.171
-582.113
-556.041
-593.902
-462.071
-136.813
29.9074
77.7945
304.202
231.593
108.269
365.606
-66.0699
-451.71
-401.356
-435.155
-392.765
-507.911
-520.347
-526.551
-531.78
-535.357
-537.913
-539.998
-541.745
-543.175
-544.593
-546.056
-547.553
-549.074
-550.566
-552.154
-553.624
-554.979
-556.366
-557.618
-559.286
-559.536
-560.617
-560.344
-569.526
-568.212
-568.003
-567.842
-567.934
-568.79
-579.473
-542.761
-558.612
-375.693
136.044
83.7754
166.776
467.635
1137.98
47.1367
197.604
-309.953
-611.856
-346.937
-404.662
-413.759
-488.737
-513.532
-523.017
-530.51
-535.055
-537.899
-539.9
-541.404
-542.801
-544.408
-545.99
-547.571
-549.116
-550.621
-552.186
-553.661
-555.045
-556.524
-557.81
-559.375
-560.468
-561.607
-562.976
-568.679
-568.162
-568.059
-567.858
-568.055
-571.827
-579.19
-538.771
-573.525
-424.023
-129.348
1.45512
211.914
398.181
425.237
120.152
66.6849
-456.749
-573.699
-342.667
-384.347
-421.069
-479.036
-509.197
-520.362
-529.681
-534.629
-537.583
-539.707
-541.494
-543.067
-544.463
-546.011
-547.587
-549.128
-550.642
-552.2
-553.73
-555.367
-556.68
-558.035
-559.507
-560.869
-562.554
-566.384
-568.914
-568.132
-568.018
-567.869
-567.94
-574.407
-580.732
-549.48
-616.071
-545.189
-884.861
175.969
225.841
270.928
449.336
39.554
-52.7118
-469.389
-403.649
-319.869
-377.391
-426.701
-475.02
-507.745
-520.399
-529.542
-534.21
-536.811
-538.615
-540.494
-542.189
-543.688
-545.306
-546.949
-548.557
-550.154
-551.787
-553.381
-555.092
-556.491
-557.989
-559.571
-561.092
-563.334
-569.908
-567.238
-567.93
-567.797
-567.892
-568.696
-575.132
-581.514
-555.182
-651.451
-633.948
-1147.88
273.178
)
;

boundaryField
{
    AirInlet
    {
        type            fixedFluxPressure;
        gradient        nonuniform List<scalar> 5(-12.6615 8.08076e+06 2.00418e+06 -16923.1 -1.51065e+07);
        value           nonuniform List<scalar> 5(-296.889 -246.81 -493.015 -503.663 -562.846);
    }
    WaterInlet
    {
        type            fixedFluxPressure;
        gradient        nonuniform List<scalar> 10(0.00014115 -0.424926 -0.678197 0.040759 0.02986 -0.139397 -15.2634 -8.36122 -8.62695 -5.07939);
        value           nonuniform List<scalar> 10(638.586 632.458 629.816 630.148 633.576 408.42 404.869 404.42 406.981 413.133);
    }
    ChannelWall
    {
        type            fixedFluxPressure;
        gradient        uniform 0;
        value           nonuniform List<scalar> 
110
(
633.576
592.162
578.44
549.854
383.618
408.42
366.867
359.848
326.92
456.878
413.133
368.316
359.878
338.483
382.98
225.841
270.928
449.336
39.554
-52.7118
-469.389
-403.649
-319.869
-377.391
-426.701
-475.02
-507.745
-520.399
-529.542
-534.21
-536.811
-538.615
-540.494
-542.189
-543.688
-545.306
-546.949
-548.557
-550.154
-551.787
-553.381
-555.092
-556.491
-557.989
-559.571
-561.092
-563.334
-569.908
-567.238
-567.93
-567.797
-567.892
-568.696
-575.132
-581.514
-555.182
-651.451
-633.948
-1147.88
273.178
638.586
595.418
584.462
570.251
514.919
265.934
-81.6646
-91.6131
-96.7883
-39.8246
145.082
31.3502
-142.915
-524.391
-677.476
-566.243
-564.658
-550.433
-543.743
-540.912
-540.582
-541.038
-542.106
-543.51
-544.854
-545.961
-547.249
-548.705
-550.037
-551.066
-552.525
-554.17
-555.926
-557.681
-559.724
-562.078
-564.953
-572.221
-565.823
-567.867
-568.049
-567.967
-569.101
-557.364
-571.288
-539.821
-564.926
-382.505
106.246
130.353
)
;
    }
    Outlet
    {
        type            totalPressure;
        rho             rho;
        psi             none;
        gamma           1;
        p0              uniform 0;
        value           nonuniform List<scalar> 
15
(
-0.198024
-0.366485
0
0
0
0
0
0
-0.000258831
-0.100785
-0.304195
-0.31968
-0.266218
0
0
)
;
    }
    FrontAndBack
    {
        type            empty;
    }
}


// ************************************************************************* //
