/*--------------------------------*- C++ -*----------------------------------*\
| =========                 |                                                 |
| \\      /  F ield         | OpenFOAM: The Open Source CFD Toolbox           |
|  \\    /   O peration     | Version:  2.3.0                                 |
|   \\  /    A nd           | Web:      www.OpenFOAM.org                      |
|    \\/     M anipulation  |                                                 |
\*---------------------------------------------------------------------------*/
FoamFile
{
    version     2.0;
    format      ascii;
    class       surfaceScalarField;
    location    "0.068";
    object      phi;
}
// * * * * * * * * * * * * * * * * * * * * * * * * * * * * * * * * * * * * * //

dimensions      [0 3 -1 0 0 0 0];

internalField   nonuniform List<scalar> 
1380
(
3.10193e-13
1.89807e-13
2.81855e-13
2.83385e-14
2.86413e-13
-4.55831e-15
4.51073e-13
-1.6466e-13
-4.50885e-13
9.01958e-13
6.01459e-13
8.8348e-14
6.233e-13
6.49716e-15
6.42986e-13
-2.42447e-14
7.93464e-13
-3.15137e-13
-4.4835e-13
7.90928e-13
6.86324e-13
-9.79757e-14
7.24392e-13
-3.15714e-14
7.22859e-13
-2.2711e-14
5.68744e-13
-1.61022e-13
1.2652e-13
-6.12624e-15
5.97819e-13
-1.95795e-13
6.0017e-13
-3.39228e-14
5.80851e-13
-3.39204e-15
2.95869e-13
1.23961e-13
1.17278e-12
-7.50395e-13
3.04205e-13
2.70282e-13
2.6689e-13
3.90851e-13
1.56363e-12
1.0193e-12
-1.17339e-13
-4.00122e-12
5.02052e-12
-1.54052e-11
1.1404e-11
-3.13168e-11
1.59116e-11
-2.7245e-11
-4.07179e-12
1.64095e-11
-4.36545e-11
1.25975e-11
3.81199e-12
2.09844e-12
1.04991e-11
2.56449e-13
1.84199e-12
1.93452e-14
2.37104e-13
-9.24707e-15
2.85921e-14
7.8152e-15
-1.70622e-14
6.17607e-14
-5.39454e-14
1.09058e-13
-4.72972e-14
1.39951e-13
-3.08928e-14
1.47297e-13
-7.3459e-15
1.50595e-13
-3.29809e-15
1.50772e-13
-1.77536e-16
1.47403e-13
3.3692e-15
1.44264e-13
3.13869e-15
1.45485e-13
-1.22139e-15
1.45066e-13
4.19584e-16
1.41348e-13
3.7175e-15
1.393e-13
2.04859e-15
1.45516e-13
-6.21682e-15
1.50197e-13
-4.68126e-15
1.53676e-13
-3.4786e-15
1.55242e-13
-1.56616e-15
1.58736e-13
-3.49396e-15
1.63511e-13
-4.77478e-15
1.92642e-13
-2.91315e-14
3.21074e-13
-1.28432e-13
6.88475e-13
-3.67401e-13
5.1386e-13
1.74615e-13
3.46934e-13
1.66926e-13
2.69974e-13
7.69585e-14
5.85599e-13
-3.15629e-13
5.76581e-13
9.01805e-15
3.5945e-13
2.1713e-13
2.05709e-13
1.53741e-13
9.56997e-14
1.10009e-13
-1.56688e-13
2.52387e-13
-5.99289e-13
4.42601e-13
-3.92718e-12
3.32789e-12
1.7321e-12
2.04852e-13
4.68737e-13
-5.96819e-12
1.11936e-11
-1.72063e-11
2.26422e-11
-1.84597e-11
1.7165e-11
-6.90049e-12
-1.5631e-11
1.17281e-12
-5.17278e-11
5.73301e-12
-7.48211e-13
5.89699e-13
1.56424e-11
3.29055e-14
2.39879e-12
9.1945e-14
1.78065e-13
1.31916e-13
-1.13788e-14
1.3331e-13
-1.84567e-14
2.31132e-13
-1.51767e-13
3.25169e-13
-1.41335e-13
3.79446e-13
-8.51699e-14
3.93116e-13
-2.10158e-14
3.95475e-13
-5.65752e-15
3.92445e-13
2.8525e-15
3.85185e-13
1.06287e-14
3.79261e-13
9.06233e-15
3.8064e-13
-2.59963e-15
3.79505e-13
1.55476e-15
3.7324e-13
9.98171e-15
3.6972e-13
5.5689e-15
3.80221e-13
-1.67187e-14
3.89065e-13
-1.35252e-14
3.95218e-13
-9.63163e-15
3.96953e-13
-3.30022e-15
3.97643e-13
-4.18476e-15
3.96909e-13
-4.04017e-15
4.07577e-13
-3.98001e-14
4.85814e-13
-2.06669e-13
6.33625e-13
-5.15211e-13
5.67056e-13
2.41183e-13
4.01551e-13
3.32427e-13
5.85509e-13
-1.07e-13
6.95323e-13
-4.25452e-13
5.32247e-13
1.72093e-13
4.81936e-13
2.67441e-13
4.42221e-13
1.93457e-13
3.96355e-13
1.55875e-13
3.14456e-13
3.34285e-13
-4.91943e-14
8.06252e-13
-5.20787e-12
8.48656e-12
4.22283e-12
-4.67365e-13
9.29976e-13
-3.69678e-12
1.4423e-11
-1.2484e-11
3.14294e-11
-8.77743e-12
1.34584e-11
-3.06423e-12
-2.13442e-11
-1.82685e-11
-3.65236e-11
-3.2728e-12
-1.57439e-11
-6.75959e-13
1.30456e-11
-1.75339e-13
1.89817e-12
1.8198e-13
-1.79254e-13
3.12978e-13
-1.42378e-13
2.83165e-13
1.13565e-14
3.84014e-13
-2.52616e-13
4.9856e-13
-2.5588e-13
5.63643e-13
-1.50253e-13
5.88725e-13
-4.60984e-14
5.85357e-13
-2.2894e-15
5.77683e-13
1.05263e-14
5.68691e-13
1.96207e-14
5.61905e-13
1.58477e-14
5.63157e-13
-3.85123e-15
5.62481e-13
2.23031e-15
5.57691e-13
1.47718e-14
5.53592e-13
9.66809e-15
5.62082e-13
-2.52089e-14
5.70068e-13
-2.15114e-14
5.78375e-13
-1.79389e-14
5.80067e-13
-4.99218e-15
5.7848e-13
-2.59716e-15
5.75934e-13
-1.49457e-15
5.67917e-13
-3.17826e-14
5.7772e-13
-2.16472e-13
5.86049e-13
-5.2354e-13
5.8257e-13
2.44662e-13
2.92068e-13
6.22925e-13
9.89669e-13
-8.04602e-13
7.71793e-13
-2.07583e-13
5.10625e-13
4.33261e-13
5.61945e-13
2.16121e-13
5.74126e-13
1.81276e-13
6.2378e-13
1.06221e-13
8.01653e-13
1.56413e-13
1.28377e-12
3.24132e-13
5.18782e-12
4.58251e-12
3.01896e-12
-2.80629e-12
2.98587e-12
-5.69232e-12
1.7309e-11
-5.69251e-12
3.14295e-11
-4.81993e-12
1.25858e-11
-3.77266e-12
-2.23915e-11
-6.18199e-12
-3.41142e-11
-9.51948e-12
-1.24064e-11
-2.53142e-12
6.0575e-12
-2.69045e-13
-3.64205e-13
2.00341e-13
-6.4864e-13
4.48544e-13
-3.9058e-13
4.02121e-13
5.77794e-14
5.2058e-13
-3.71075e-13
6.33409e-13
-3.68708e-13
6.8666e-13
-2.03504e-13
7.16323e-13
-7.57614e-14
7.13264e-13
7.69832e-16
7.03117e-13
2.06729e-14
6.95362e-13
2.7376e-14
6.94536e-13
1.66738e-14
6.92047e-13
-1.36319e-15
6.90446e-13
3.8315e-15
6.91366e-13
1.38522e-14
6.90957e-13
1.00771e-14
6.91642e-13
-2.58945e-14
6.9779e-13
-2.76585e-14
7.06553e-13
-2.67028e-14
7.0887e-13
-7.30922e-15
7.09624e-13
-3.35088e-15
7.05862e-13
2.26767e-15
6.9607e-13
-2.19906e-14
6.549e-13
-1.75302e-13
5.39157e-13
-4.07798e-13
6.01992e-13
1.81827e-13
3.53078e-13
8.71834e-13
5.51822e-13
-1.00335e-12
5.04854e-13
-1.60621e-13
5.11924e-13
4.26192e-13
6.11694e-13
1.1635e-13
6.57448e-13
1.35523e-13
7.33521e-13
3.01477e-14
9.31046e-13
-4.11118e-14
1.47587e-12
-2.20697e-13
7.52549e-12
-1.4671e-12
-5.86961e-13
1.76028e-11
-1.30533e-11
-6.71907e-12
4.16309e-11
2.05104e-13
2.45054e-11
5.87064e-12
6.92029e-12
-5.26423e-13
-1.59944e-11
-6.53641e-12
-2.81042e-11
-4.99529e-12
-1.39476e-11
-3.19802e-12
4.26023e-12
-5.44652e-13
-3.01757e-12
1.57192e-13
-1.35048e-12
4.83729e-13
-7.17117e-13
5.03599e-13
3.79095e-14
6.45657e-13
-5.13134e-13
7.30778e-13
-4.53829e-13
7.64285e-13
-2.3701e-13
7.89946e-13
-1.01423e-13
7.83628e-13
7.08784e-15
7.7667e-13
2.76307e-14
7.73409e-13
3.06364e-14
7.7164e-13
1.84433e-14
7.68221e-13
2.05516e-15
7.68565e-13
3.48803e-15
7.71115e-13
1.13022e-14
7.74165e-13
7.02684e-15
7.73265e-13
-2.49945e-14
7.73141e-13
-2.75341e-14
7.78357e-13
-3.19191e-14
7.83131e-13
-1.2083e-14
7.86032e-13
-6.2523e-15
7.86571e-13
1.7292e-15
7.73427e-13
-8.84743e-15
7.0847e-13
-1.10345e-13
5.19869e-13
-2.19197e-13
5.72827e-13
1.2887e-13
8.98547e-13
5.46108e-13
-2.69209e-13
1.64411e-13
1.29891e-13
-5.59724e-13
5.4814e-13
7.9434e-15
5.95024e-13
6.94666e-14
6.68705e-13
6.18418e-14
7.52783e-13
-5.39304e-14
9.05046e-13
-1.93375e-13
1.36251e-12
-6.78157e-13
5.46298e-12
-5.56758e-12
-3.65359e-12
3.10546e-13
-1.31639e-11
-1.40852e-12
4.335e-11
4.80112e-13
2.26167e-11
8.00822e-12
-6.07823e-13
1.83609e-12
-9.82229e-12
-1.66496e-12
-2.46032e-11
-1.66823e-12
-1.39443e-11
-6.36629e-13
3.22863e-12
-2.22464e-13
-3.43174e-12
3.333e-14
-1.60628e-12
8.57363e-14
-7.69523e-13
1.29821e-13
-6.17526e-15
1.57757e-13
-5.41069e-13
1.70982e-13
-4.67054e-13
1.75757e-13
-2.41786e-13
1.77715e-13
-1.0338e-13
1.76814e-13
7.98934e-15
1.75546e-13
2.88985e-14
1.75491e-13
3.06914e-14
1.75612e-13
1.8322e-14
1.75452e-13
2.21501e-15
1.75667e-13
3.27325e-15
1.76395e-13
1.05744e-14
1.76947e-13
6.47399e-15
1.76118e-13
-2.41646e-14
1.75485e-13
-2.69011e-14
1.75831e-13
-3.22653e-14
1.76883e-13
-1.31347e-14
1.77188e-13
-6.55821e-15
1.77547e-13
1.37066e-15
1.7167e-13
-2.97071e-15
1.4874e-13
-8.74146e-14
1.17536e-13
-1.87994e-13
1.13193e-13
1.33213e-13
1.96924e-13
4.62374e-13
1.887e-13
1.72635e-13
1.25309e-13
-4.96334e-13
1.20601e-13
1.26512e-14
1.28763e-13
6.13043e-14
1.55612e-13
3.49929e-14
1.5165e-13
-4.99679e-14
1.8789e-13
-2.29615e-13
2.3377e-13
-7.24037e-13
1.27093e-12
-6.60474e-12
-3.73152e-12
-1.81127e-12
-1.11526e-11
-3.76196e-12
4.53007e-11
-1.60267e-12
2.04575e-11
8.3637e-12
-1.05742e-11
2.79362e-12
-4.25221e-12
-1.72665e-12
-2.00829e-11
-1.65693e-12
-1.4014e-11
-3.52898e-13
1.9246e-12
-1.68638e-13
-3.616e-12
4.27016e-14
-1.81762e-12
7.67687e-14
-8.0359e-13
1.33262e-13
-6.26685e-14
1.63171e-13
-5.70978e-13
1.7402e-13
-4.77904e-13
1.76885e-13
-2.44651e-13
1.78259e-13
-1.04755e-13
1.77036e-13
9.2124e-15
1.76033e-13
2.99015e-14
1.76266e-13
3.04592e-14
1.76555e-13
1.80329e-14
1.76544e-13
2.22525e-15
1.76869e-13
2.94818e-15
1.77556e-13
9.88789e-15
1.77984e-13
6.04566e-15
1.77086e-13
-2.32661e-14
1.7621e-13
-2.60257e-14
1.76358e-13
-3.24131e-14
1.77321e-13
-1.40973e-14
1.77577e-13
-6.81413e-15
1.78282e-13
6.65475e-16
1.70902e-13
4.40931e-15
1.45156e-13
-6.1669e-14
1.18242e-13
-1.6108e-13
1.15994e-13
1.35461e-13
1.75643e-13
4.02724e-13
4.0574e-13
-5.74606e-14
1.4436e-13
-2.34955e-13
1.1966e-13
3.73521e-14
1.30743e-13
5.02205e-14
1.57146e-13
8.59032e-15
1.46085e-13
-3.89069e-14
1.76085e-13
-2.59615e-13
1.77838e-13
-7.25791e-13
8.21373e-13
-7.24828e-12
-3.69717e-12
-2.78182e-12
-8.17076e-12
-9.36945e-13
4.34558e-11
-1.38492e-12
2.09054e-11
7.34948e-12
-1.93086e-11
2.74212e-12
3.55153e-13
-1.14649e-12
-1.61943e-11
8.03388e-14
-1.52408e-11
9.80721e-14
1.90686e-12
2.27456e-14
-3.54067e-12
5.23176e-14
-1.84719e-12
5.80145e-14
-8.09287e-13
1.3749e-13
-1.42144e-13
1.68735e-13
-6.02223e-13
1.76456e-13
-4.85624e-13
1.77365e-13
-2.4556e-13
1.77755e-13
-1.05145e-13
1.76475e-13
1.04931e-14
1.75978e-13
3.03977e-14
1.76476e-13
2.99618e-14
1.76929e-13
1.75799e-14
1.77013e-13
2.14129e-15
1.77267e-13
2.69441e-15
1.77889e-13
9.2657e-15
1.78333e-13
5.60093e-15
1.77411e-13
-2.2344e-14
1.76434e-13
-2.50485e-14
1.76458e-13
-3.24368e-14
1.77294e-13
-1.49337e-14
1.77486e-13
-7.00557e-15
1.77963e-13
1.88608e-16
1.70494e-13
1.18776e-14
1.43535e-13
-3.471e-14
1.17944e-13
-1.35488e-13
1.12431e-13
1.40974e-13
1.79813e-13
3.35342e-13
4.42779e-13
-3.20426e-13
1.4487e-13
6.29532e-14
1.1863e-13
6.35926e-14
1.33073e-13
3.57771e-14
1.56878e-13
-1.52138e-14
1.4295e-13
-2.4979e-14
1.55629e-13
-2.72295e-13
1.05717e-13
-6.75878e-13
8.2678e-14
-7.22524e-12
-3.81731e-12
-2.32738e-12
-5.64338e-12
3.53253e-12
3.75959e-11
-1.42858e-12
2.58665e-11
4.45633e-12
-2.51935e-11
2.33007e-12
2.48141e-12
-2.56663e-13
-1.36076e-11
-2.87308e-13
-1.52102e-11
3.05594e-13
1.31396e-12
1.39309e-13
-3.37439e-12
1.02733e-13
-1.81061e-12
6.31921e-14
-7.69746e-13
1.46159e-13
-2.25111e-13
1.74329e-13
-6.30393e-13
1.78276e-13
-4.89571e-13
1.76795e-13
-2.4408e-13
1.76111e-13
-1.04461e-13
1.75486e-13
1.11186e-14
1.75353e-13
3.05299e-14
1.76119e-13
2.91959e-14
1.76743e-13
1.69562e-14
1.76822e-13
2.06214e-15
1.77003e-13
2.51307e-15
1.77631e-13
8.63847e-15
1.78062e-13
5.16931e-15
1.77162e-13
-2.14439e-14
1.76139e-13
-2.40256e-14
1.76008e-13
-3.23051e-14
1.76733e-13
-1.56591e-14
1.76852e-13
-7.12442e-15
1.77369e-13
-3.28746e-16
1.7028e-13
1.89673e-14
1.45292e-13
-9.7218e-15
1.19591e-13
-1.09788e-13
1.11234e-13
1.49331e-13
1.77389e-13
2.69187e-13
8.4909e-14
-2.27946e-13
1.47906e-13
-4.42524e-17
1.18512e-13
9.29875e-14
1.32939e-13
2.13496e-14
1.56204e-13
-3.84791e-14
1.39396e-13
-8.17059e-15
1.37432e-13
-2.70331e-13
4.87201e-14
-5.87166e-13
-2.83866e-13
-6.89265e-12
-4.0516e-12
-2.01361e-12
-3.42977e-12
5.34919e-12
3.02331e-11
1.29491e-12
2.99208e-11
4.53104e-12
-2.84296e-11
1.9648e-12
5.04765e-12
7.13449e-13
-1.23562e-11
1.42214e-13
-1.4639e-11
4.54192e-13
1.00198e-12
2.29946e-13
-3.15014e-12
1.36629e-13
-1.7173e-12
8.93832e-14
-7.225e-13
1.5995e-13
-2.95678e-13
1.79961e-13
-6.50404e-13
1.79439e-13
-4.89049e-13
1.75982e-13
-2.40623e-13
1.74186e-13
-1.02664e-13
1.7415e-13
1.11549e-14
1.74349e-13
3.03304e-14
1.75302e-13
2.82434e-14
1.7592e-13
1.63379e-14
1.75955e-13
2.02675e-15
1.76144e-13
2.32476e-15
1.76752e-13
8.02964e-15
1.77181e-13
4.74108e-15
1.76271e-13
-2.05345e-14
1.75228e-13
-2.29821e-14
1.75006e-13
-3.20838e-14
1.75587e-13
-1.62397e-14
1.75723e-13
-7.26e-15
1.76026e-13
-6.318e-16
1.70339e-13
2.46536e-14
1.4818e-13
1.24373e-14
1.1567e-13
-7.72777e-14
1.10492e-13
1.5451e-13
1.55538e-13
2.2414e-13
5.15488e-14
-1.23957e-13
1.00953e-13
-4.94489e-14
1.20566e-13
7.33755e-14
1.30828e-13
1.10877e-14
1.53896e-13
-6.15478e-14
1.41276e-13
4.45004e-15
1.22426e-13
-2.51481e-13
1.60255e-15
-4.66343e-13
-7.98066e-13
-6.09299e-12
-3.95009e-12
3.00086e-13
1.99914e-13
2.60505e-13
3.9581e-14
2.3846e-13
2.20444e-14
5.00784e-13
-2.62324e-13
-4.01809e-13
9.02593e-13
5.94406e-13
1.05508e-13
5.91628e-13
4.23591e-14
5.3813e-13
7.55421e-14
5.1942e-13
-2.43614e-13
-1.91393e-14
1.3675e-13
6.86455e-13
-8.09474e-14
7.20551e-13
8.26362e-15
6.89797e-13
1.06296e-13
3.96419e-13
4.97642e-14
1.11949e-12
-7.42215e-13
6.04778e-13
-1.85726e-13
6.29902e-13
-1.68598e-14
6.74436e-13
6.17618e-14
6.01742e-13
1.22458e-13
8.78623e-13
8.42614e-13
3.14274e-13
2.97415e-13
3.59177e-13
4.81635e-13
1.36026e-12
9.75031e-13
-3.50221e-12
2.13102e-11
9.89791e-12
3.64354e-11
1.47956e-11
1.10183e-11
-3.01256e-12
5.54382e-12
1.05221e-11
1.05931e-11
-1.74055e-11
5.53642e-12
-9.5823e-12
3.59731e-12
2.94109e-12
1.67178e-12
-1.22461e-12
1.08784e-12
-1.13336e-12
7.37701e-13
-3.72361e-13
9.17065e-13
-4.75042e-13
8.8365e-13
-6.16989e-13
8.15619e-13
-4.21019e-13
7.71943e-13
-1.96946e-13
7.52797e-13
-8.35181e-14
7.59778e-13
4.17318e-15
7.65152e-13
2.49563e-14
7.71941e-13
2.14547e-14
7.7482e-13
1.34588e-14
7.74249e-13
2.59785e-15
7.74888e-13
1.6856e-15
7.77106e-13
5.81228e-15
7.79376e-13
2.47067e-15
7.74371e-13
-1.55292e-14
7.70794e-13
-1.94054e-14
7.67444e-13
-2.8733e-14
7.67945e-13
-1.67413e-14
7.7053e-13
-9.8448e-15
7.68899e-13
9.99625e-16
7.58445e-13
3.51074e-14
6.89629e-13
8.12525e-14
4.72532e-13
1.3982e-13
5.81401e-13
4.56408e-14
1.28212e-12
-4.76576e-13
1.70641e-13
9.87522e-13
2.30638e-13
-1.09444e-13
5.4397e-13
-2.39955e-13
5.93338e-13
-3.82802e-14
6.58433e-13
-1.26643e-13
6.68972e-13
-6.08864e-15
4.75228e-13
-5.77374e-14
-2.18628e-14
3.07477e-14
-4.34619e-12
-1.76866e-12
-1.26966e-12
4.58589e-13
-3.82405e-12
8.34867e-12
2.00782e-12
1.7094e-11
6.05025e-12
6.8214e-12
7.26008e-12
8.11368e-12
9.22986e-12
6.40891e-12
-1.57007e-11
3.4785e-12
-6.6519e-12
2.65824e-12
3.76135e-12
1.63493e-12
-2.01295e-13
1.24214e-12
-7.40578e-13
1.06969e-12
-1.99907e-13
1.03591e-12
-4.4126e-13
8.85585e-13
-4.66667e-13
7.60091e-13
-2.95524e-13
7.04568e-13
-1.41423e-13
6.67783e-13
-4.67335e-14
6.73168e-13
-1.21181e-15
6.84589e-13
1.35361e-14
6.93513e-13
1.25299e-14
6.95526e-13
1.14462e-14
6.94025e-13
4.09923e-15
6.94379e-13
1.33155e-15
6.97159e-13
3.03218e-15
6.99199e-13
4.30706e-16
6.93962e-13
-1.02922e-14
6.87783e-13
-1.32267e-14
6.81989e-13
-2.2938e-14
6.77621e-13
-1.23735e-14
6.76069e-13
-8.29315e-15
6.78548e-13
-1.4797e-15
6.74897e-13
3.87589e-14
6.20928e-13
1.35222e-13
4.688e-13
2.91948e-13
5.70095e-13
-5.56539e-14
5.18964e-13
-4.25444e-13
6.23836e-13
8.82656e-13
4.43567e-13
7.08293e-14
5.14483e-13
-3.1087e-13
6.21966e-13
-1.45763e-13
6.57198e-13
-1.61875e-13
6.2167e-13
2.944e-14
2.94624e-13
2.69309e-13
-4.9478e-13
8.20151e-13
-4.75373e-12
2.49029e-12
1.17495e-12
-3.70533e-12
-8.60932e-13
-1.07431e-12
-6.23193e-13
6.53334e-12
-1.55741e-12
1.14028e-11
2.3906e-12
1.16189e-11
9.01382e-12
4.43406e-12
-8.51589e-12
9.73758e-13
-3.1916e-12
1.72106e-12
3.01405e-12
1.49368e-12
2.60884e-14
1.16556e-12
-4.12455e-13
1.08814e-12
-1.22486e-13
9.49246e-13
-3.02368e-13
7.59405e-13
-2.76826e-13
6.27408e-13
-1.63527e-13
5.63939e-13
-7.79545e-14
5.45112e-13
-2.79066e-14
5.46416e-13
-2.51529e-15
5.54938e-13
5.01434e-15
5.62885e-13
4.58232e-15
5.66215e-13
8.11683e-15
5.67253e-13
3.06121e-15
5.67882e-13
7.0194e-16
5.69602e-13
1.31276e-15
5.70089e-13
-5.64025e-17
5.64968e-13
-5.17106e-15
5.56709e-13
-4.96734e-15
5.5065e-13
-1.6879e-14
5.44266e-13
-5.98965e-15
5.41401e-13
-5.42851e-15
5.41916e-13
-1.99465e-15
5.41709e-13
3.89657e-14
5.38146e-13
1.38785e-13
4.92918e-13
3.37177e-13
4.90765e-13
-5.35013e-14
4.63225e-13
-3.97901e-13
7.99592e-13
5.46295e-13
7.31532e-13
1.38894e-13
5.18188e-13
-9.75243e-14
5.87155e-13
-2.1473e-13
5.96144e-13
-1.70864e-13
5.96104e-13
2.94801e-14
4.70063e-13
3.95349e-13
1.91477e-13
1.09874e-12
-4.41108e-12
7.09285e-12
3.33054e-12
-7.86609e-13
7.68291e-13
-1.74839e-12
3.38584e-13
2.64709e-13
-3.57051e-12
4.38015e-12
-1.72485e-12
9.43199e-12
3.96198e-12
2.89352e-12
-1.97743e-12
4.07576e-13
-7.05651e-13
1.49023e-12
1.93139e-12
1.32206e-12
1.94256e-13
9.63299e-13
-5.36895e-14
8.91459e-13
-5.0646e-14
7.20768e-13
-1.31677e-13
5.45648e-13
-1.01706e-13
4.37962e-13
-5.58406e-14
3.863e-13
-2.62926e-14
3.6962e-13
-1.12263e-14
3.69517e-13
-2.412e-15
3.74041e-13
4.90696e-16
3.77926e-13
6.97108e-16
3.83202e-13
2.84072e-15
3.85167e-13
1.09703e-15
3.85785e-13
8.40233e-17
3.86793e-13
3.04724e-16
3.86697e-13
3.93142e-17
3.83068e-13
-1.54247e-15
3.7925e-13
-1.1491e-15
3.68532e-13
-6.16091e-15
3.64305e-13
-1.76207e-15
3.61359e-13
-2.4832e-15
3.6005e-13
-6.85567e-16
3.75571e-13
2.34455e-14
4.23002e-13
9.13534e-14
4.86405e-13
2.73774e-13
5.18582e-13
-8.5678e-14
3.53113e-13
-2.32431e-13
6.26838e-13
2.72577e-13
6.37203e-13
1.28532e-13
5.46864e-13
-7.18347e-15
5.24883e-13
-1.92749e-13
4.90983e-13
-1.36964e-13
4.98621e-13
2.18416e-14
6.27593e-13
2.66378e-13
1.01464e-12
7.11688e-13
1.1428e-12
6.96469e-12
2.80439e-12
2.12855e-12
2.46713e-12
-1.10337e-12
-2.82822e-12
1.13376e-12
-8.43664e-13
-1.54931e-12
3.82077e-13
5.76333e-13
5.22644e-13
4.71998e-13
3.40321e-13
2.38615e-13
1.82774e-13
1.56482e-13
1.45255e-13
1.42843e-13
1.43334e-13
1.44031e-13
1.46872e-13
1.47969e-13
1.48053e-13
1.48358e-13
1.48397e-13
1.46855e-13
1.45706e-13
1.39545e-13
1.37783e-13
1.353e-13
1.34614e-13
1.5806e-13
2.49413e-13
5.23187e-13
4.3751e-13
2.05082e-13
4.7766e-13
6.06193e-13
5.9901e-13
4.06261e-13
2.69297e-13
2.91139e-13
5.57517e-13
1.2692e-12
8.23389e-12
)
;

boundaryField
{
    AirInlet
    {
        type            calculated;
        value           nonuniform List<scalar> 5(-2e-13 -2e-13 -2e-13 -2e-13 -2e-13);
    }
    WaterInlet
    {
        type            calculated;
        value           nonuniform List<scalar> 10(-5e-13 -5e-13 -5e-13 -5e-13 -5e-13 -5e-13 -5e-13 -5e-13 -5e-13 -5e-13);
    }
    ChannelWall
    {
        type            calculated;
        value           uniform 0;
    }
    Outlet
    {
        type            calculated;
        value           nonuniform List<scalar> 
15
(
-5.65928e-12
-7.6986e-12
6.39169e-12
1.11314e-11
8.52962e-12
1.34886e-12
7.87025e-13
2.02809e-13
-4.95711e-14
-8.99576e-13
-7.02662e-12
-7.19834e-12
-6.56667e-12
1.66895e-12
1.10383e-11
)
;
    }
    FrontAndBack
    {
        type            empty;
        value           nonuniform 0();
    }
}


// ************************************************************************* //
