/*--------------------------------*- C++ -*----------------------------------*\
| =========                 |                                                 |
| \\      /  F ield         | OpenFOAM: The Open Source CFD Toolbox           |
|  \\    /   O peration     | Version:  2.3.0                                 |
|   \\  /    A nd           | Web:      www.OpenFOAM.org                      |
|    \\/     M anipulation  |                                                 |
\*---------------------------------------------------------------------------*/
FoamFile
{
    version     2.0;
    format      ascii;
    class       volVectorField;
    location    "0.068";
    object      U;
}
// * * * * * * * * * * * * * * * * * * * * * * * * * * * * * * * * * * * * * //

dimensions      [0 1 -1 0 0 0 0];

internalField   nonuniform List<vector> 
725
(
(0.0478965 0.00717285 -2.51095e-31)
(0.0505763 0.00182131 4.32317e-32)
(0.0393361 0.000412927 4.05485e-32)
(0.0384998 -0.00226534 0)
(0.0802394 -0.00902173 -6.43684e-31)
(0.0923757 0.0146721 -1.09492e-30)
(0.10515 0.00755683 1.59805e-31)
(0.0886213 0.00436053 2.19499e-31)
(0.0837779 -0.00919394 0)
(0.0955519 -0.0236369 -1.76289e-30)
(0.105223 0.0102649 -2.36877e-31)
(0.121755 0.0113592 -1.42433e-32)
(0.101809 0.00886801 -1.07318e-32)
(0.0930969 -0.0046394 0)
(0.0100165 -0.0106514 -9.47994e-31)
(0.0929889 0.00354407 1.44556e-30)
(0.103353 0.0123498 -2.18118e-31)
(0.0829959 0.0109038 -1.46984e-30)
(0.0776541 0.0120916 0)
(-0.035173 0.0278923 2.04416e-29)
(0.0479789 0.00189677 1.53506e-30)
(0.0489022 0.00811394 -3.90856e-31)
(0.0386022 0.00758599 -8.51664e-31)
(0.0410614 0.0142461 -4.55101e-30)
(0.0724659 0.0594834 2.36471e-29)
(0.0996849 -0.0114012 0)
(0.0617468 0.0412254 0)
(-1.00092 0.219855 0)
(-3.35872 0.331897 0)
(-3.71172 -0.516658 0)
(-0.506079 -2.1137 0)
(2.96177 -0.675571 0)
(0.402584 0.259447 0)
(0.0319715 0.047129 0)
(0.0122478 0.00700547 0)
(-0.00225576 0.0012194 0)
(-0.00170007 -0.00028738 0)
(0.00424579 -0.000703398 0)
(0.00988409 -0.000588902 0)
(0.0143618 -0.000451284 0)
(0.0162809 -8.74466e-05 0)
(0.0165929 -7.66697e-05 0)
(0.0167798 -2.65399e-05 0)
(0.0165742 4.28497e-05 0)
(0.016149 4.87565e-05 0)
(0.0160795 -3.19399e-05 0)
(0.0161999 -1.97934e-06 0)
(0.0159141 5.50962e-05 0)
(0.0154707 4.2341e-05 0)
(0.0157642 -9.92603e-05 0)
(0.0164513 -5.56916e-05 0)
(0.0169439 -5.26678e-05 0)
(0.0171428 -2.42528e-05 0)
(0.0175275 -9.90629e-05 0)
(0.0177246 -0.000143287 0)
(0.0187927 -0.00066442 0)
(0.0261758 -0.00300203 0)
(0.0459617 -0.01068 0)
(0.0886371 0.000540672 0)
(0.0424393 -0.0230313 0)
(0.0231996 0.00298854 0)
(0.0540016 -0.0055844 0)
(0.0636798 0.0183448 0)
(0.05472 0.00731387 0)
(0.0137871 0.00476532 0)
(0.0410495 0.00229851 0)
(-0.0296725 0.00846161 0)
(-0.0107112 0.0134914 0)
(-0.132238 0.0499477 0)
(-0.650103 0.0435112 0)
(0.104234 0.00812253 0)
(0.0044784 0.449094 0)
(-1.49569 0.904257 0)
(-2.6365 1.00294 0)
(-0.848767 -0.258936 0)
(-0.726748 -2.66383 0)
(1.00002 0.494695 0)
(0.217426 0.676514 0)
(-0.0200895 0.113292 0)
(0.0175126 0.015035 0)
(0.0140616 0.000813711 0)
(0.00971607 -0.00148288 0)
(0.0200181 -0.00506403 0)
(0.0317351 -0.0044149 0)
(0.0402197 -0.0027446 0)
(0.0435756 -0.000626853 0)
(0.0439716 -0.000293307 0)
(0.0437978 2.9573e-06 0)
(0.0431786 0.000311947 0)
(0.0423475 0.000283107 0)
(0.0421778 -9.95812e-05 0)
(0.0423396 5.00494e-05 0)
(0.0418252 0.000339701 0)
(0.0410487 0.000177039 0)
(0.0415458 -0.00056695 0)
(0.0427537 -0.000435387 0)
(0.0437189 -0.000305685 0)
(0.0439979 -0.000129336 0)
(0.0444151 -0.000240503 0)
(0.0439555 -0.000296858 0)
(0.0444994 -0.00212881 0)
(0.0472836 -0.00947696 0)
(0.0582715 -0.024242 0)
(0.077358 0.0142708 0)
(0.0514404 0.026505 0)
(0.0402919 0.00522169 0)
(0.0922594 -0.0219497 0)
(0.0520732 -0.0106769 0)
(0.0751395 0.0131818 0)
(0.0222704 0.00969063 0)
(0.088642 0.00767499 0)
(-0.0193508 0.0161828 0)
(0.10116 0.0358843 0)
(-0.119532 0.293176 0)
(-0.890856 0.0892814 0)
(0.00586647 0.0177132 0)
(-0.0298998 0.577304 0)
(-1.08558 1.3801 0)
(-1.56351 0.796164 0)
(0.264516 -1.07515 0)
(-1.20097 -2.18884 0)
(-1.36465 -0.489581 0)
(-0.00810554 0.803732 0)
(-0.0792659 0.129208 0)
(0.0229658 0.00401684 0)
(0.0329866 -0.00228555 0)
(0.026631 -0.00043101 0)
(0.0359218 -0.0100501 0)
(0.0500199 -0.00982362 0)
(0.0602306 -0.00583099 0)
(0.0647851 -0.00156379 0)
(0.0655594 -0.000210304 0)
(0.0646258 0.000294455 0)
(0.0635917 0.000753651 0)
(0.0626889 0.000655269 0)
(0.0624769 -0.000182848 0)
(0.0626029 9.18297e-05 0)
(0.0622282 0.000660803 0)
(0.0615604 0.000392391 0)
(0.0618746 -0.00110197 0)
(0.0628496 -0.00089944 0)
(0.0639661 -0.000675852 0)
(0.0643458 -0.000196585 0)
(0.0647381 -0.000161564 0)
(0.0639637 -0.000156115 0)
(0.0640211 -0.00188374 0)
(0.0629478 -0.0113051 0)
(0.0632053 -0.0275582 0)
(0.0660372 0.0123388 0)
(0.0430441 0.0226454 0)
(0.051517 -0.0234879 0)
(0.127522 -0.0151397 0)
(0.0444044 0.020414 0)
(0.0836932 0.0134058 0)
(0.0308862 0.00953703 0)
(0.112995 0.00619314 0)
(0.00449945 0.0119993 0)
(0.212896 0.0285033 0)
(0.0459298 0.415913 0)
(0.802982 0.301863 0)
(-0.0767795 0.145554 0)
(-0.344156 1.06705 0)
(-1.08196 1.68356 0)
(-0.66107 1.05579 0)
(0.356507 -1.1819 0)
(-1.21124 -1.74747 0)
(-0.956807 -0.737375 0)
(-0.364923 0.438234 0)
(-0.103341 0.0424893 0)
(0.0211261 -0.0244038 0)
(0.0420652 -0.0134506 0)
(0.0409065 0.0010117 0)
(0.0502799 -0.0153964 0)
(0.0654477 -0.0157104 0)
(0.0743825 -0.00900924 0)
(0.0786489 -0.00305105 0)
(0.0798882 -5.41681e-05 0)
(0.0786571 0.000783698 0)
(0.0775691 0.0012064 0)
(0.0771312 0.000837267 0)
(0.0770057 -0.000165906 0)
(0.0768203 0.000155329 0)
(0.0767482 0.000765463 0)
(0.0767154 0.00053992 0)
(0.0767932 -0.00132739 0)
(0.077089 -0.00128172 0)
(0.0781115 -0.00113507 0)
(0.0785848 -0.000280477 0)
(0.079178 -0.000101874 0)
(0.0783749 4.62424e-05 0)
(0.0785652 -0.00123931 0)
(0.0763455 -0.0100838 0)
(0.0668937 -0.0243917 0)
(0.0569916 0.0106554 0)
(0.0605033 0.038094 0)
(0.0393928 -0.0594453 0)
(0.0659254 -0.00225377 0)
(0.0374994 0.0275279 0)
(0.0895312 0.00850942 0)
(0.0374426 0.00796104 0)
(0.125993 0.00390611 0)
(0.0154325 0.00185148 0)
(0.236518 0.001913 0)
(0.0446501 0.0619271 0)
(1.29107 0.0706439 0)
(0.245418 0.0134758 0)
(1.86117 1.25761 0)
(-1.33211 1.27266 0)
(0.732799 1.50528 0)
(0.907987 -1.01261 0)
(-1.07043 -1.67232 0)
(-0.571667 -0.754841 0)
(-0.387532 0.251474 0)
(-0.190881 -0.0862232 0)
(0.0270971 -0.0400481 0)
(0.0291565 -0.0264721 0)
(0.0540204 0.00565075 0)
(0.0643953 -0.0218669 0)
(0.0783263 -0.0209767 0)
(0.0837235 -0.0113181 0)
(0.0867083 -0.00466459 0)
(0.0878996 0.000191441 0)
(0.086606 0.00124836 0)
(0.0859729 0.00150995 0)
(0.0858289 0.000911437 0)
(0.0855516 4.95848e-05 0)
(0.0853168 0.000202327 0)
(0.0855027 0.000646507 0)
(0.0859002 0.000429061 0)
(0.0860409 -0.00131896 0)
(0.085759 -0.00143828 0)
(0.0862088 -0.00152935 0)
(0.0866245 -0.000480587 0)
(0.0875251 -0.000250157 0)
(0.0869759 0.00014653 0)
(0.0878904 -0.000971087 0)
(0.0847267 -0.00779738 0)
(0.0700788 -0.0151676 0)
(0.0514083 0.00678929 0)
(0.102867 0.0364481 0)
(0.0282983 -0.00738579 0)
(-0.0342412 -0.0269225 0)
(0.0373478 0.00750343 0)
(0.09083 0.00415917 0)
(0.0355603 0.00577589 0)
(0.129161 -0.00127367 0)
(0.0174325 -0.00480722 0)
(0.232997 -0.0224725 0)
(0.0129514 -0.218207 0)
(1.0185 -0.156896 0)
(-1.35469 -0.644345 0)
(1.99887 2.03625 0)
(-3.38203 1.19032 0)
(4.11612 -0.0105051 0)
(2.9845 -0.624677 0)
(-0.769104 -1.33378 0)
(-1.12033 -0.676562 0)
(-0.372334 0.183432 0)
(-0.244297 -0.163279 0)
(0.0136512 -0.0745532 0)
(0.0178593 -0.0371694 0)
(0.0608208 0.00106813 0)
(0.0732497 -0.0263438 0)
(0.0842385 -0.0230529 0)
(0.0869543 -0.0119927 0)
(0.0886122 -0.00512785 0)
(0.0890366 0.000373911 0)
(0.0878576 0.00141752 0)
(0.0876708 0.0015367 0)
(0.0878283 0.0009211 0)
(0.0877641 0.000108354 0)
(0.0877032 0.000169817 0)
(0.0879714 0.000546679 0)
(0.0884432 0.00033716 0)
(0.0884304 -0.00123002 0)
(0.0877137 -0.00136371 0)
(0.0877955 -0.00160672 0)
(0.0880197 -0.000631494 0)
(0.0888649 -0.000320687 0)
(0.0882525 7.89217e-05 0)
(0.0894306 -0.000310739 0)
(0.0818146 -0.00496669 0)
(0.0672133 -0.0101436 0)
(0.0521614 0.00646829 0)
(0.0646911 0.0254081 0)
(0.11798 0.00925306 0)
(0.0862725 -0.0268848 0)
(0.0305653 -0.000244443 0)
(0.0916142 0.00329339 0)
(0.0354824 0.00242441 0)
(0.127908 -0.00268347 0)
(0.0120523 -0.0105398 0)
(0.211721 -0.0352423 0)
(0.0112617 -0.305491 0)
(0.889648 -0.184269 0)
(-2.62609 -0.729329 0)
(1.3248 2.27867 0)
(-5.46509 1.09077 0)
(4.20636 -0.532809 0)
(3.58885 -0.383384 0)
(-0.708581 -1.10623 0)
(-1.06765 -0.650269 0)
(-0.296915 0.13234 0)
(-0.141722 -0.179309 0)
(0.0122388 -0.086676 0)
(0.0155847 -0.0395943 0)
(0.0605909 -0.00147073 0)
(0.0765886 -0.0278105 0)
(0.0862876 -0.023663 0)
(0.087873 -0.0121819 0)
(0.0889475 -0.00521927 0)
(0.08914 0.000433042 0)
(0.0880194 0.00147316 0)
(0.0880028 0.00153225 0)
(0.0882684 0.000911303 0)
(0.0882823 0.000113088 0)
(0.0882846 0.000155424 0)
(0.0885571 0.000511234 0)
(0.089006 0.000312231 0)
(0.0889512 -0.00118695 0)
(0.0881356 -0.00132493 0)
(0.0881005 -0.00161967 0)
(0.0882524 -0.000681901 0)
(0.089078 -0.000335817 0)
(0.0885063 5.08145e-05 0)
(0.0897167 2.5478e-05 0)
(0.0804452 -0.00374381 0)
(0.0660763 -0.0087109 0)
(0.0524349 0.00670525 0)
(0.052486 0.0217356 0)
(0.169467 0.003174 0)
(0.157803 -0.0180254 0)
(0.029967 0.000922368 0)
(0.0925249 0.00281415 0)
(0.0360382 0.00110342 0)
(0.12716 -0.00231785 0)
(0.00968069 -0.012303 0)
(0.194668 -0.0366734 0)
(-0.0234761 -0.34797 0)
(0.585035 -0.179708 0)
(-2.80084 -0.522831 0)
(0.972724 2.28041 0)
(-3.35951 1.01577 0)
(3.57468 -0.857367 0)
(3.24676 -0.121436 0)
(-0.515668 -0.887184 0)
(-0.175631 -0.757626 0)
(0.0387315 0.0953828 0)
(0.0368216 -0.183028 0)
(0.025112 -0.0929412 0)
(0.0104085 -0.0406794 0)
(0.0554989 -0.00502153 0)
(0.0802305 -0.0293501 0)
(0.0881186 -0.0241359 0)
(0.088477 -0.0122817 0)
(0.0887898 -0.00526171 0)
(0.0887829 0.000497194 0)
(0.0878834 0.00151196 0)
(0.0880537 0.00151383 0)
(0.0884269 0.000892129 0)
(0.0885022 0.000110061 0)
(0.0885083 0.000140793 0)
(0.08874 0.000478327 0)
(0.089179 0.000290822 0)
(0.0891257 -0.00114072 0)
(0.0882834 -0.00127767 0)
(0.0881795 -0.00162338 0)
(0.088258 -0.000727268 0)
(0.0890378 -0.000345989 0)
(0.0884105 2.01515e-05 0)
(0.0896245 0.000408944 0)
(0.0798263 -0.00240778 0)
(0.0656196 -0.00743393 0)
(0.0519893 0.00692064 0)
(0.0573068 0.0182283 0)
(0.174175 -0.00979471 0)
(0.167696 -0.0036639 0)
(0.0317326 0.00263543 0)
(0.0933887 0.00215784 0)
(0.0366326 -0.000172671 0)
(0.126317 -0.00162388 0)
(0.00728106 -0.0134131 0)
(0.170082 -0.0353113 0)
(-0.0850913 -0.364579 0)
(0.148361 -0.194588 0)
(-1.72932 -0.301434 0)
(0.709207 2.12411 0)
(-0.385209 1.19905 0)
(1.72918 -0.980488 0)
(2.36563 0.125285 0)
(-0.11114 -0.725357 0)
(-0.247216 -0.772142 0)
(0.0983378 0.0752405 0)
(0.123707 -0.17495 0)
(0.052397 -0.0927698 0)
(0.0216016 -0.0398641 0)
(0.0569208 -0.009203 0)
(0.0844826 -0.0308988 0)
(0.0896608 -0.0244399 0)
(0.0886692 -0.0122719 0)
(0.088067 -0.005254 0)
(0.0880212 0.000546967 0)
(0.0875199 0.00152847 0)
(0.0878263 0.00148162 0)
(0.088304 0.000864452 0)
(0.0884154 0.000105031 0)
(0.0883982 0.000129744 0)
(0.0886061 0.000447143 0)
(0.0890469 0.000269437 0)
(0.088994 -0.00109505 0)
(0.0881604 -0.00122668 0)
(0.0880002 -0.00162051 0)
(0.0879938 -0.000766499 0)
(0.0887393 -0.000352313 0)
(0.0881024 -7.30058e-06 0)
(0.0892675 0.000784381 0)
(0.0803849 -0.00109125 0)
(0.0663491 -0.00618861 0)
(0.0516445 0.00731536 0)
(0.0629865 0.0152179 0)
(0.0808152 -0.0149614 0)
(0.0654563 0.00255907 0)
(0.0337161 0.00413634 0)
(0.0932887 0.00141774 0)
(0.0364828 -0.00136282 0)
(0.125305 -0.000779269 0)
(0.0050361 -0.0136506 0)
(0.148419 -0.0315471 0)
(-0.115624 -0.355094 0)
(-0.102486 -0.204205 0)
(-0.972015 -0.19826 0)
(0.243707 1.6527 0)
(1.76497 1.40074 0)
(2.49441 -1.35961 0)
(1.58891 0.171761 0)
(0.447983 -0.649024 0)
(-0.0133644 -0.745125 0)
(0.223531 0.0531178 0)
(0.182089 -0.162587 0)
(0.0737964 -0.089214 0)
(0.0343748 -0.0374388 0)
(0.0683475 -0.0131395 0)
(0.0888953 -0.0321576 0)
(0.0908694 -0.0245298 0)
(0.088615 -0.0121452 0)
(0.0871831 -0.00519098 0)
(0.0871029 0.0005625 0)
(0.0869913 0.00152656 0)
(0.0873916 0.00143843 0)
(0.0879075 0.000832885 0)
(0.0880003 0.00010175 0)
(0.0879642 0.000120529 0)
(0.0881709 0.000416717 0)
(0.0886082 0.000247531 0)
(0.0885391 -0.00104915 0)
(0.0877309 -0.00117579 0)
(0.0875336 -0.00161099 0)
(0.0874387 -0.000799238 0)
(0.0881599 -0.000360087 0)
(0.0875065 -2.74102e-05 0)
(0.0886064 0.00110457 0)
(0.0813867 9.68808e-05 0)
(0.0671022 -0.00475468 0)
(0.0490084 0.00774954 0)
(0.0703823 0.0121864 0)
(0.0590115 -0.00989088 0)
(0.0296772 -0.000188088 0)
(0.0365411 0.00434193 0)
(0.0922769 0.000778729 0)
(0.0357978 -0.00249889 0)
(0.124996 -3.60493e-05 0)
(0.00397754 -0.0130659 0)
(0.132813 -0.0261203 0)
(-0.146095 -0.323321 0)
(-0.499632 -0.195996 0)
(0.0482921 -0.00189403 0)
(0.0467195 -0.00757949 4.88282e-32)
(0.0380279 -0.00733817 -1.99045e-33)
(0.0147536 -0.00979086 7.40022e-31)
(0.144603 -0.0321762 0)
(0.0942048 -0.00341325 0)
(0.10038 -0.0116024 0)
(0.0863979 -0.0100234 0)
(0.0429257 -0.0245632 7.81977e-31)
(0.120797 -0.044564 0)
(0.106956 -0.0100347 0)
(0.119503 -0.0105026 0)
(0.106301 -0.00547567 0)
(0.0660448 -0.0113733 8.21365e-31)
(0.0566635 0.0201553 0)
(0.0939197 -0.0144522 0)
(0.104251 -0.00666833 0)
(0.0943691 -0.000550022 0)
(0.0795774 0.003865 -1.81947e-31)
(0.0904852 0.066206 0)
(0.0486822 -0.00708172 0)
(0.0507818 -0.00150242 0)
(0.0455494 0.00094639 0)
(0.0458777 0.00276903 -6.37417e-32)
(0.0910792 0.0219081 0)
(-0.0101013 -0.135437 0)
(0.34207 0.725169 0)
(3.84766 1.16206 0)
(3.53353 -0.722284 0)
(-0.625638 0.668337 0)
(1.50645 -0.678514 0)
(0.505914 -0.628143 0)
(0.573601 0.0851828 0)
(0.291667 -0.0983003 0)
(0.125941 -0.0718748 0)
(0.0763407 -0.0267665 0)
(0.105833 -0.0224287 0)
(0.100527 -0.0337765 0)
(0.0932503 -0.0238741 0)
(0.0875026 -0.0114147 0)
(0.0840262 -0.00484849 0)
(0.0838138 0.000462742 0)
(0.0846779 0.00147299 0)
(0.0854519 0.00129484 0)
(0.08605 0.000746193 0)
(0.086087 0.000101042 0)
(0.0859924 9.50792e-05 0)
(0.08619 0.000340978 0)
(0.086596 0.000182618 0)
(0.0864564 -0.000913569 0)
(0.0857626 -0.00105409 0)
(0.0854467 -0.00156086 0)
(0.0850688 -0.000870896 0)
(0.0857247 -0.000417395 0)
(0.0850929 1.46234e-05 0)
(0.085876 0.00170845 0)
(0.0827413 0.00285798 0)
(0.0685923 0.00111738 0)
(0.0436407 0.00617759 0)
(0.119746 -0.0033769 0)
(0.0836319 0.016071 0)
(-0.00918112 -0.00661457 0)
(0.0373825 -0.00234585 0)
(0.0901555 -0.000134804 0)
(0.0351195 -0.0052299 0)
(0.124086 0.000339765 0)
(0.00215902 -0.009312 0)
(0.0992583 -0.012218 0)
(-0.131138 -0.185802 0)
(-0.780241 -0.106215 0)
(-0.11412 -0.210868 0)
(0.25383 0.193406 0)
(1.48197 0.443664 0)
(1.95319 0.317806 0)
(-0.063188 0.495555 0)
(1.2701 -0.961502 0)
(0.317907 -0.476384 0)
(0.376822 0.168151 0)
(0.237146 -0.0194654 0)
(0.146481 -0.0422229 0)
(0.113818 -0.0127462 0)
(0.130486 -0.0238133 0)
(0.105485 -0.0276553 0)
(0.0890948 -0.018152 0)
(0.0801833 -0.00850494 0)
(0.0754097 -0.00323496 0)
(0.0741503 1.53129e-05 0)
(0.0753942 0.00096988 0)
(0.0766621 0.00085972 0)
(0.0773056 0.000626446 0)
(0.0772328 0.000176387 0)
(0.0770708 7.74256e-05 0)
(0.0772903 0.000218292 0)
(0.0776998 6.03363e-05 0)
(0.0775148 -0.000654401 0)
(0.0767396 -0.0008402 0)
(0.0761025 -0.00131898 0)
(0.075295 -0.000766617 0)
(0.0754175 -0.000507177 0)
(0.0748411 2.75989e-05 0)
(0.0756765 0.00184642 0)
(0.0735738 0.0056309 0)
(0.0639355 0.011919 0)
(0.0465911 -0.00241703 0)
(0.0651886 -0.0276845 0)
(0.0671982 0.0557541 0)
(0.0589576 -0.000981142 0)
(0.0357343 -0.016596 0)
(0.0902585 -0.00440542 0)
(0.0390964 -0.00743039 0)
(0.120158 -0.000216646 0)
(-0.00545261 0.00517542 0)
(0.0543922 0.0187996 0)
(-0.177617 -0.00225845 0)
(-0.813105 0.00322278 0)
(-0.274052 -0.132724 0)
(-0.465112 -0.00656463 0)
(0.277372 0.100202 0)
(1.06278 0.310911 0)
(1.37674 0.517788 0)
(1.17524 -0.512021 0)
(-0.00673641 -0.196163 0)
(0.174965 0.181858 0)
(0.197479 -0.00653057 0)
(0.140742 -0.0299842 0)
(0.11661 -0.00841203 0)
(0.124124 -0.0190616 0)
(0.0930069 -0.0184981 0)
(0.0746676 -0.0112406 0)
(0.0649876 -0.00535936 0)
(0.0608912 -0.00169791 0)
(0.0603159 -0.000111865 0)
(0.0611963 0.000423916 0)
(0.0621952 0.000397944 0)
(0.0628374 0.000506043 0)
(0.0630076 0.00020636 0)
(0.0630168 5.44586e-05 0)
(0.0631926 9.75656e-05 0)
(0.0634307 -6.56123e-06 0)
(0.0631495 -0.000380686 0)
(0.0623473 -0.000435203 0)
(0.0615361 -0.00102891 0)
(0.0606039 -0.000459728 0)
(0.0604819 -0.000351377 0)
(0.0597242 -0.000132759 0)
(0.0604139 0.00206922 0)
(0.060215 0.00743237 0)
(0.0587342 0.016967 0)
(0.053535 -0.00146678 0)
(0.0495451 -0.0221293 0)
(0.0653547 0.0397613 0)
(0.102614 0.00610731 0)
(0.0437526 -0.0168359 0)
(0.086616 -0.0105493 0)
(0.0346397 -0.00882268 0)
(0.112032 0.00213941 0)
(-0.0025649 0.0186617 0)
(0.108958 0.0533674 0)
(-0.0873174 0.24385 0)
(-0.763534 0.0670044 0)
(0.069687 0.0346594 0)
(-0.224915 -0.043187 0)
(-0.147471 -0.237756 0)
(0.179133 -0.042001 0)
(0.961327 0.342677 0)
(0.864502 -0.238112 0)
(-0.0894136 -0.0776135 0)
(0.164692 0.137396 0)
(0.164589 0.0094172 0)
(0.121717 -0.00803541 0)
(0.0964993 -0.00448416 0)
(0.0979956 -0.0109451 0)
(0.0678632 -0.00909636 0)
(0.052862 -0.00506287 0)
(0.0448918 -0.00241403 0)
(0.041457 -0.000982263 0)
(0.0408534 -0.000165688 0)
(0.0413193 7.71044e-05 0)
(0.0418216 8.45698e-05 0)
(0.0423393 0.000266356 0)
(0.0427211 0.000104682 0)
(0.0428177 1.43637e-05 0)
(0.0429301 3.07434e-05 0)
(0.0430526 -3.05754e-06 0)
(0.0428282 -0.000145561 0)
(0.0423981 -0.000108128 0)
(0.0415629 -0.000573022 0)
(0.0405508 -0.000173633 0)
(0.0404398 -0.000202713 0)
(0.039598 -5.8905e-05 0)
(0.0403458 0.0018516 0)
(0.0433582 0.00669167 0)
(0.0502326 0.0173423 0)
(0.0586785 -0.00559699 0)
(0.045703 -0.0264803 0)
(0.0443937 0.0205428 0)
(0.0852352 0.00946469 0)
(0.0519496 0.0141397 0)
(0.080506 -0.0114048 0)
(0.0276466 -0.00910725 0)
(0.0957276 0.000350728 0)
(-0.00508775 0.0158623 0)
(0.177018 0.0421154 0)
(0.0155571 0.386289 0)
(0.205142 0.21436 0)
(0.183492 0.0384939 0)
(0.354617 0.0672537 0)
(0.14291 -0.0880022 0)
(-0.473542 -0.0988355 0)
(0.0309855 0.089156 0)
(0.145663 -0.0179466 0)
(-0.356924 0.00841898 0)
(0.0305613 0.0508163 0)
(0.0491373 0.00761332 0)
(0.0696982 0.00172674 0)
(0.0511903 -0.00103356 0)
(0.049894 -0.00287064 0)
(0.0297506 -0.0014663 0)
(0.0226519 -0.000792025 0)
(0.0184789 -0.000350208 0)
(0.0165237 -0.000187285 0)
(0.0158924 -5.71085e-05 0)
(0.0158943 -1.93192e-05 0)
(0.0159653 -1.28913e-05 0)
(0.0161719 4.25367e-05 0)
(0.0163998 1.18125e-05 0)
(0.0164452 -4.56766e-06 0)
(0.0164722 1.68382e-06 0)
(0.0165153 3.96534e-06 0)
(0.0164207 -1.99252e-05 0)
(0.0162942 5.17396e-06 0)
(0.0158628 -9.54879e-05 0)
(0.0153281 -7.90034e-06 0)
(0.0152178 -4.09319e-05 0)
(0.0147106 -2.79302e-05 0)
(0.0153527 0.000416862 0)
(0.021262 0.00208878 0)
(0.0356299 0.00838715 0)
(0.066906 -0.000615627 0)
(0.0305201 0.0144718 0)
(0.0281285 0.00580671 0)
(0.0693829 0.00120564 0)
(0.065975 -0.0284235 0)
(0.0598018 -0.00727008 0)
(0.0192406 -0.00419815 0)
(0.0529597 0.00140073 0)
(-0.00293674 0.00640807 0)
(0.165234 0.0183497 0)
(0.0828526 0.212317 0)
(1.34595 0.135356 0)
)
;

boundaryField
{
    AirInlet
    {
        type            fixedValue;
        value           uniform (0.1 0 0);
    }
    WaterInlet
    {
        type            fixedValue;
        value           uniform (0.1 0 0);
    }
    ChannelWall
    {
        type            fixedValue;
        value           uniform (0 0 0);
    }
    Outlet
    {
        type            pressureInletOutletVelocity;
        value           nonuniform List<vector> 
15
(
(-0.628809 0 0)
(-0.8554 0 0)
(0.802982 0.301863 0)
(1.29107 0.0706439 0)
(1.0185 -0.156896 0)
(0.889648 -0.184269 0)
(0.585035 -0.179708 0)
(0.148361 -0.194588 0)
(-0.0247856 -0 0)
(-0.449788 -0 0)
(-0.780736 -0 0)
(-0.799816 0 0)
(-0.72963 0 0)
(0.205142 0.21436 0)
(1.34595 0.135356 0)
)
;
    }
    FrontAndBack
    {
        type            empty;
    }
}


// ************************************************************************* //
