/*--------------------------------*- C++ -*----------------------------------*\
| =========                 |                                                 |
| \\      /  F ield         | OpenFOAM: The Open Source CFD Toolbox           |
|  \\    /   O peration     | Version:  2.3.0                                 |
|   \\  /    A nd           | Web:      www.OpenFOAM.org                      |
|    \\/     M anipulation  |                                                 |
\*---------------------------------------------------------------------------*/
FoamFile
{
    version     2.0;
    format      ascii;
    class       volScalarField;
    location    "0.08";
    object      alpha.water;
}
// * * * * * * * * * * * * * * * * * * * * * * * * * * * * * * * * * * * * * //

dimensions      [0 0 0 0 0 0 0];

internalField   nonuniform List<scalar> 
725
(
1
1
0.999996
1
0.967921
1
1
0.999999
0.99996
0.990547
1
1
1
0.999995
0.999995
1
1
1
0.999992
0.999994
1
1
1
1.00006
0.983595
0.88382
0.876526
0.987096
0.999182
0.999175
0.454499
0.00122192
0.00122186
0.0012125
0.00125692
0.181884
0.870641
0.999627
0.999466
0.999502
0.999623
0.999691
0.99976
0.999832
0.999899
0.999947
0.999969
0.999981
1
1.00002
1.00002
1.00002
1.00002
1.00002
1.00002
1.00002
1.00002
1.00002
1.00002
1.00006
1.00001
0.947026
0.323828
0.000758613
0.000743239
6.23204e-05
2.32101e-05
4.01353e-06
5.24126e-07
2.7102e-08
0.622348
0.859341
0.998334
0.999527
0.998959
0.476898
0.00194099
0.00124098
0.00119216
0.00118568
0.18124
0.849555
0.999856
0.999781
0.999692
0.999573
0.999491
0.999453
0.999462
0.999513
0.999597
0.999683
0.999751
0.9998
0.999833
0.999857
0.999875
0.999891
0.999906
0.999919
0.999931
0.999947
0.999961
0.999989
1.00002
1.00001
0.948854
0.312867
0.000870933
0.000949715
3.3385e-05
3.03588e-05
1.09392e-05
3.02976e-06
3.76303e-07
0.597944
0.849517
0.999587
0.99953
0.999526
0.50904
0.00442405
0.00119412
0.00118497
0.00118206
0.170685
0.833433
0.999932
0.999933
0.999852
0.999744
0.999625
0.999513
0.999416
0.999399
0.999447
0.999501
0.999547
0.999591
0.999637
0.999685
0.999732
0.999777
0.999813
0.99984
0.999858
0.999873
0.999891
0.999916
1.00002
1.00001
0.939511
0.308998
0.000832459
0.000966619
0.000217212
3.61164e-05
2.67894e-05
1.14863e-05
2.41678e-06
0.592352
0.840423
0.999594
0.999362
0.999473
0.657645
0.0282266
0.00118603
0.00118383
0.00117882
0.159301
0.820224
0.999967
0.999928
0.99988
0.999853
0.999759
0.999562
0.999279
0.99917
0.99928
0.999378
0.999424
0.999434
0.999431
0.999432
0.999448
0.999493
0.999555
0.99962
0.999679
0.999734
0.999788
0.99983
0.999981
1
0.942054
0.291777
0.000292321
0.000277666
0.000128423
5.75874e-05
3.11358e-05
1.89646e-05
5.41312e-06
0.400652
0.882025
0.999603
0.999192
0.999491
0.660509
0.046594
0.00115938
0.00117912
0.00116656
0.152886
0.832879
1
1.00001
0.999967
0.999916
0.999778
0.999464
0.9989
0.998555
0.998638
0.998826
0.998971
0.999062
0.99912
0.999155
0.999184
0.999233
0.999302
0.999384
0.999469
0.999557
0.999651
0.999711
0.99995
1
0.945036
0.275005
0.000391529
0.000528531
0.000145526
0.00010348
5.71104e-05
1.9555e-05
2.20965e-05
0.0306857
0.812548
0.999642
0.999624
0.999647
0.742639
0.0651431
0.00114611
0.00116344
0.00115572
0.150641
0.851331
1.00002
1.00014
1.00006
0.999927
0.999777
0.999243
0.998177
0.997526
0.997853
0.998379
0.998651
0.998814
0.998948
0.999039
0.999098
0.99917
0.999254
0.999342
0.999432
0.999523
0.999614
0.999652
1.00001
1.00005
0.95291
0.267587
0.0004227
0.00345263
0.000410895
0.000150961
7.1267e-05
0.000164675
8.61159e-05
0.110325
0.801622
0.999738
0.999651
0.99977
0.752484
0.0660537
0.00114735
0.00132338
0.00111692
0.150078
0.855215
0.999953
0.999876
1.00003
0.999912
0.999651
0.998881
0.99776
0.997135
0.997442
0.998017
0.998381
0.998624
0.998816
0.998955
0.999054
0.999147
0.999239
0.99933
0.999421
0.99951
0.999589
0.999625
1.00002
1.00006
0.951861
0.263469
0.000418478
0.00346411
0.000735152
0.000123205
8.07753e-05
0.000279294
0.000124869
0.0180409
0.766985
0.999878
0.999871
0.999879
0.781113
0.0799796
0.00109548
0.00317037
0.00106355
0.150566
0.861089
0.999732
0.999585
1.00003
0.999858
0.999367
0.998403
0.997359
0.996851
0.997219
0.997849
0.99829
0.998588
0.998795
0.998949
0.999073
0.999174
0.999265
0.999352
0.999438
0.999521
0.999589
0.999622
1.00003
1.00006
0.958113
0.261311
0.000435988
0.00317256
0.000901325
0.00012284
9.19891e-05
0.000274891
0.000126457
0.0986429
0.815427
0.999878
0.999865
0.999881
0.780642
0.0863888
0.00105409
0.00320145
0.00101563
0.149441
0.864201
0.999562
0.999496
0.99994
0.999783
0.999245
0.998384
0.997393
0.996892
0.997233
0.997865
0.998363
0.998703
0.998905
0.999051
0.99918
0.999272
0.999344
0.999414
0.999486
0.999556
0.999612
0.99964
1.00002
1.00004
0.960275
0.252505
0.00183334
0.0037153
0.00131696
0.000142374
9.5791e-05
0.000119777
9.62732e-05
0.0434002
0.74856
0.999881
0.999881
0.999881
0.802717
0.116642
0.00103709
0.00263603
0.000980847
0.149985
0.869718
0.999544
0.999398
1
0.999802
0.999458
0.998671
0.997619
0.997065
0.997365
0.998012
0.99856
0.998919
0.999101
0.999218
0.999328
0.999397
0.999445
0.999493
0.999548
0.999604
0.999649
0.999668
1.00001
1.00002
0.962927
0.251128
0.00194522
0.00396378
0.00187253
0.000146154
9.66e-05
0.000100468
8.12221e-05
1
1
1
1.00007
0.966312
1
1
1
1.0001
0.996937
1
1
1
1.00003
1
1
1
1
0.999854
0.990459
1
1
0.999998
1.00001
0.923234
0.502959
0.877286
0.999873
0.999866
0.999874
0.807139
0.114044
0.000984381
0.000979819
0.000979775
0.145497
0.878594
0.999655
0.999651
0.999705
0.999787
0.999612
0.999277
0.998688
0.998327
0.998412
0.99874
0.999044
0.999237
0.999347
0.999418
0.999474
0.999514
0.999548
0.999588
0.999636
0.999687
0.999735
0.999786
0.999921
1
0.955866
0.244624
0.00192212
0.00192062
0.00160443
0.000146853
9.20679e-05
0.000168921
7.30885e-05
0.589607
0.754896
0.983158
0.999868
0.999863
0.888853
0.183172
0.000980493
0.000979816
0.00097956
0.140003
0.892966
0.999571
0.99948
0.999099
0.998907
0.99901
0.999075
0.999008
0.999036
0.999218
0.999413
0.999536
0.99959
0.99962
0.999642
0.999667
0.99969
0.999711
0.999732
0.999754
0.999777
0.999794
0.999821
0.999939
1
0.96448
0.238627
0.00160247
0.00243846
0.00117998
6.986e-05
7.74744e-05
0.000464918
5.8547e-05
0.680439
0.811573
0.995917
0.999867
0.999862
0.968203
0.23908
0.00098292
0.000982651
0.000979904
0.109443
0.896713
0.99965
0.998986
0.998661
0.998864
0.999157
0.999312
0.999374
0.99946
0.999555
0.999618
0.999742
0.999844
0.99982
0.999806
0.999799
0.999796
0.999798
0.999806
0.999818
0.999835
0.99985
0.999872
0.999969
1
0.955169
0.237067
0.00101946
0.00266166
0.000689488
6.16777e-05
0.000103816
0.000549181
1.54836e-05
0.680608
0.761848
0.953316
0.999862
0.999863
0.99986
0.415645
0.00184068
0.000996783
0.000999851
0.0778301
0.895151
0.99965
0.999143
0.999187
0.999431
0.999597
0.99962
0.999636
0.999672
0.999723
0.999763
0.99979
0.999811
0.999831
0.99985
0.999867
0.999882
0.999894
0.999905
0.999914
0.999924
0.999933
0.999949
1.00001
1.00001
0.958343
0.240987
0.00101629
0.00218954
0.000747509
5.50827e-05
8.53211e-05
0.00056617
0.000876854
0.801529
0.810655
0.937191
0.999861
0.999856
0.99986
0.47854
0.00439112
0.0012714
0.00149808
0.0716563
0.879873
0.999648
0.999615
0.999735
0.999806
0.999836
0.999861
0.999947
1.00003
1.00004
1.00003
1.00002
1.00002
1.00001
1.00001
1.00002
1.00002
1.00003
1.00003
1.00002
1.00002
1.00003
1.00003
1.00005
1.00002
0.954353
0.248318
0.0010163
0.00190882
0.00129186
5.55041e-05
0.000372598
0.00149335
0.00157872
)
;

boundaryField
{
    AirInlet
    {
        type            fixedValue;
        value           uniform 0;
    }
    WaterInlet
    {
        type            fixedValue;
        value           uniform 1;
    }
    ChannelWall
    {
        type            zeroGradient;
    }
    Outlet
    {
        type            inletOutlet;
        inletValue      uniform 0;
        value           nonuniform List<scalar> 
15
(
0
0
2.41678e-06
5.41312e-06
2.20965e-05
8.61159e-05
0.000124869
0.000126457
9.62732e-05
8.12221e-05
7.30885e-05
5.8547e-05
0
0
0.00157872
)
;
    }
    FrontAndBack
    {
        type            empty;
    }
}


// ************************************************************************* //
