/*--------------------------------*- C++ -*----------------------------------*\
| =========                 |                                                 |
| \\      /  F ield         | OpenFOAM: The Open Source CFD Toolbox           |
|  \\    /   O peration     | Version:  2.3.0                                 |
|   \\  /    A nd           | Web:      www.OpenFOAM.org                      |
|    \\/     M anipulation  |                                                 |
\*---------------------------------------------------------------------------*/
FoamFile
{
    version     2.0;
    format      ascii;
    class       surfaceScalarField;
    location    "0.08";
    object      phi;
}
// * * * * * * * * * * * * * * * * * * * * * * * * * * * * * * * * * * * * * //

dimensions      [0 3 -1 0 0 0 0];

internalField   nonuniform List<scalar> 
1380
(
3.03453e-13
1.96547e-13
2.21507e-13
8.1946e-14
-9.45501e-14
3.16057e-13
-1.64453e-12
1.54998e-12
1.69015e-12
-3.33468e-12
5.95659e-13
1.00887e-13
5.80215e-13
9.73908e-14
4.97396e-13
3.98876e-13
4.86851e-16
2.04689e-12
1.94106e-12
-2.50422e-13
6.86861e-13
-8.59735e-14
7.41752e-13
4.25001e-14
8.82192e-13
2.58435e-13
1.70905e-12
1.22003e-12
9.62765e-13
2.68734e-12
6.04538e-13
-1.90512e-13
6.55074e-13
-8.03593e-15
8.35617e-13
7.78921e-14
1.6428e-12
4.1285e-13
9.55976e-13
1.64959e-12
3.09488e-13
3.01453e-13
3.79345e-13
7.92194e-13
1.74817e-12
1.89431e-12
-5.22899e-12
1.42969e-12
4.64618e-13
2.53864e-13
1.17583e-12
2.40531e-13
1.33335e-14
3.09952e-13
-6.94218e-14
-4.7962e-12
5.10616e-12
-1.70959e-12
-3.08662e-12
-2.58024e-12
8.70655e-13
-3.99996e-12
1.41972e-12
-4.57268e-12
5.72714e-13
8.9422e-13
-5.4669e-12
8.66996e-13
2.72239e-14
4.47252e-13
4.19745e-13
2.66041e-13
1.81211e-13
1.97492e-13
6.8549e-14
1.56441e-13
4.10507e-14
1.26844e-13
2.95978e-14
1.26375e-13
4.68442e-16
1.46747e-13
-2.0372e-14
1.82409e-13
-3.56612e-14
1.94119e-13
-1.17104e-14
1.84134e-13
9.98505e-15
1.72481e-13
1.1653e-14
1.66959e-13
5.52249e-15
1.62791e-13
4.16789e-15
1.55004e-13
7.78714e-15
1.51045e-13
3.95872e-15
1.50094e-13
9.50403e-16
1.48969e-13
1.12598e-15
1.47295e-13
1.67395e-15
1.45535e-13
1.76003e-15
1.43044e-13
2.49037e-15
1.39497e-13
3.54734e-15
1.32266e-13
7.23045e-15
1.37482e-13
-5.21512e-15
2.25272e-13
-8.77901e-14
5.68933e-13
-3.43661e-13
1.18371e-12
-6.14772e-13
1.24671e-12
-6.30085e-14
2.60634e-12
-1.35962e-12
1.58791e-12
1.01843e-12
1.42741e-12
1.605e-13
1.33216e-12
9.52438e-14
3.65045e-13
9.6712e-13
2.15299e-13
-5.33053e-13
-4.94636e-12
-5.8543e-13
5.16995e-13
-6.87968e-13
1.27837e-12
1.05595e-14
-6.85194e-13
1.38847e-12
-1.44734e-12
3.43341e-12
3.06121e-12
6.32986e-13
-2.86185e-13
-4.21264e-12
5.71628e-12
-4.8646e-12
2.07168e-12
-1.79332e-12
-2.49857e-12
9.27275e-13
-8.18749e-12
1.12076e-12
-1.66258e-13
8.12323e-13
7.28178e-13
5.95158e-13
3.98376e-13
4.77213e-13
1.86494e-13
4.01252e-13
1.17012e-13
3.62317e-13
6.85324e-14
3.51536e-13
1.12496e-14
3.85543e-13
-5.43789e-14
4.48482e-13
-9.86e-14
4.70822e-13
-3.40497e-14
4.5351e-13
2.72971e-14
4.31671e-13
3.34915e-14
4.21066e-13
1.61275e-14
4.12849e-13
1.23854e-14
3.98478e-13
2.21584e-14
3.90748e-13
1.16878e-14
3.88787e-13
2.91129e-15
3.86461e-13
3.45243e-15
3.82752e-13
5.38282e-15
3.78497e-13
6.01496e-15
3.73166e-13
7.82175e-15
3.64917e-13
1.17965e-14
3.49041e-13
2.31061e-14
3.43726e-13
1.00089e-16
3.55926e-13
-9.99902e-14
3.41288e-13
-3.29023e-13
1.04899e-12
-1.32247e-12
7.93088e-13
1.92893e-13
1.35266e-12
-1.91919e-12
2.38337e-12
-1.22895e-14
2.47987e-12
6.40046e-14
2.32257e-12
2.52544e-13
6.69871e-13
2.61982e-12
6.80046e-13
-7.25053e-13
-1.53397e-12
-1.01061e-12
8.02554e-13
-8.50251e-13
1.118e-12
2.01549e-13
-1.73699e-12
1.81191e-12
-3.0577e-12
4.46932e-12
4.03803e-13
1.79347e-12
2.38967e-12
-4.01408e-12
1.15238e-11
-2.47607e-12
5.33668e-13
7.94516e-13
-5.76915e-12
7.00912e-13
-8.09389e-12
8.52073e-13
-3.17419e-13
8.54215e-13
7.26036e-13
7.65739e-13
4.86851e-13
6.67009e-13
2.85225e-13
5.93281e-13
1.9074e-13
5.42335e-13
1.19478e-13
5.39667e-13
1.39175e-14
5.72029e-13
-8.67399e-14
6.38209e-13
-1.64781e-13
6.58632e-13
-5.44717e-14
6.36653e-13
4.9276e-14
6.1222e-13
5.79236e-14
6.03308e-13
2.50399e-14
5.96875e-13
1.88186e-14
5.80277e-13
3.87562e-14
5.70746e-13
2.12185e-14
5.68526e-13
5.13174e-15
5.65657e-13
6.32157e-15
5.60761e-13
1.02783e-14
5.5451e-13
1.22663e-14
5.46503e-13
1.58282e-14
5.34302e-13
2.39982e-14
5.11448e-13
4.59604e-14
4.94319e-13
1.72286e-14
5.30875e-13
-1.36546e-13
6.91042e-13
-4.89189e-13
5.92767e-13
-1.2242e-12
6.6216e-13
1.23501e-13
3.42877e-12
-4.6858e-12
4.02947e-12
-6.13003e-13
3.27815e-12
8.15324e-13
2.75006e-12
7.80655e-13
8.49052e-13
4.52083e-12
1.25113e-12
3.77014e-13
-2.6139e-13
-2.69947e-14
1.20656e-12
-3.82761e-13
1.47377e-12
4.5943e-13
-2.57919e-12
1.63307e-12
-4.23134e-12
2.17477e-12
-1.379e-13
2.04288e-12
2.52157e-12
-2.10265e-12
1.56694e-11
5.45045e-14
-1.62349e-12
1.07235e-12
-6.78699e-12
3.8752e-13
-7.40906e-12
7.39032e-13
-6.68931e-13
8.04039e-13
6.61028e-13
8.2157e-13
4.6932e-13
7.7398e-13
3.32815e-13
7.20549e-13
2.44171e-13
6.87417e-13
1.5261e-13
6.89179e-13
1.21552e-14
7.11203e-13
-1.08763e-13
7.55919e-13
-2.09497e-13
7.58714e-13
-5.72668e-14
7.32499e-13
7.54912e-14
7.12817e-13
7.76059e-14
7.13764e-13
2.40928e-14
7.15941e-13
1.66418e-14
7.00948e-13
5.37493e-14
6.91694e-13
3.04726e-14
6.90249e-13
6.57638e-15
6.87825e-13
8.7459e-15
6.83326e-13
1.47772e-14
6.77374e-13
1.82182e-14
6.69702e-13
2.34997e-14
6.59953e-13
3.37476e-14
6.39983e-13
6.59309e-14
6.28225e-13
2.89857e-14
5.92944e-13
-1.01265e-13
5.86992e-13
-4.83237e-13
6.64906e-13
-1.30211e-12
-1.08197e-12
1.87038e-12
9.43322e-12
-1.5201e-11
6.47732e-12
2.3429e-12
3.78393e-12
3.5087e-12
2.76846e-12
1.79613e-12
9.29358e-13
6.35993e-12
1.7432e-12
2.56569e-13
1.23021e-12
-6.73593e-15
1.46987e-12
9.91096e-14
1.36793e-12
-1.45812e-13
-2.33426e-12
-1.00971e-12
-3.36744e-12
-3.03842e-12
1.89081e-12
-3.18463e-12
2.66777e-12
-1.54383e-12
1.40286e-11
4.68906e-12
-7.85638e-12
2.11422e-12
-4.21215e-12
3.78849e-13
-5.6737e-12
5.94713e-13
-8.84795e-13
6.28092e-13
6.2765e-13
7.86905e-13
3.10508e-13
8.10095e-13
3.09625e-13
8.13181e-13
2.41085e-13
8.32956e-13
1.32836e-13
8.43841e-13
1.26982e-15
8.16437e-13
-8.13592e-14
8.00504e-13
-1.93564e-13
7.64862e-13
-2.16242e-14
7.39558e-13
1.00795e-13
7.34202e-13
8.2961e-14
7.51742e-13
6.55341e-15
7.67474e-13
9.09201e-16
7.59845e-13
6.13791e-14
7.54071e-13
3.62457e-14
7.54277e-13
6.37028e-15
7.53301e-13
9.72216e-15
7.51211e-13
1.68676e-14
7.48641e-13
2.07885e-14
7.45445e-13
2.66957e-14
7.43538e-13
3.56545e-14
7.43974e-13
6.54948e-14
7.5799e-13
1.49696e-14
8.34979e-13
-1.78255e-13
1.03587e-12
-6.84124e-13
9.13418e-13
-1.17967e-12
-2.5782e-12
5.362e-12
7.76727e-12
-2.55465e-11
5.77498e-12
4.33518e-12
3.02812e-12
6.25557e-12
1.97916e-12
2.8451e-12
1.03739e-12
7.30169e-12
1.77637e-12
8.60264e-13
5.69947e-13
1.74675e-13
2.15546e-12
1.53192e-13
1.38941e-12
-4.77665e-14
-2.13331e-12
-4.87696e-13
-2.92751e-12
-1.10653e-12
2.50964e-12
-3.53427e-13
1.91467e-12
7.04881e-13
1.29703e-11
1.50999e-12
-8.66149e-12
7.11771e-13
-3.41393e-12
1.47747e-13
-5.10967e-12
1.32531e-13
-8.6958e-13
1.32086e-13
6.28095e-13
1.68956e-13
2.73637e-13
1.79379e-13
2.99203e-13
1.93354e-13
2.27109e-13
2.09318e-13
1.16872e-13
2.12161e-13
-1.57278e-15
1.9474e-13
-6.39382e-14
1.70962e-13
-1.69787e-13
1.55757e-13
-6.41891e-15
1.53168e-13
1.03384e-13
1.56623e-13
7.95062e-14
1.6249e-13
6.86433e-16
1.6714e-13
-3.74139e-15
1.68557e-13
5.99627e-14
1.68469e-13
3.63337e-14
1.68599e-13
6.23972e-15
1.68802e-13
9.52e-15
1.68994e-13
1.66748e-14
1.69145e-13
2.06379e-14
1.69575e-13
2.62656e-14
1.707e-13
3.45295e-14
1.73552e-13
6.26433e-14
1.74047e-13
1.44739e-14
1.91052e-13
-1.95259e-13
2.51463e-13
-7.44535e-13
8.95057e-14
-1.01771e-12
-3.93047e-13
5.84455e-12
4.59402e-13
-2.63989e-11
7.22029e-13
4.07256e-12
4.20902e-13
6.55669e-12
1.65232e-13
3.10076e-12
2.65304e-13
7.20161e-12
1.67525e-12
1.28781e-13
6.41166e-13
1.00192e-13
2.18405e-12
2.2184e-13
1.26776e-12
-5.9658e-14
-1.85181e-12
-5.73853e-13
-2.41332e-12
-1.06782e-12
3.00361e-12
1.06659e-13
7.4019e-13
1.11589e-12
1.1961e-11
1.65574e-12
-9.20135e-12
8.21586e-13
-2.57977e-12
2.0272e-13
-4.49081e-12
1.34477e-13
-8.01336e-13
1.32821e-13
6.29751e-13
1.66789e-13
2.3967e-13
1.79168e-13
2.86824e-13
1.97842e-13
2.08435e-13
2.18209e-13
9.65047e-14
2.2173e-13
-5.09342e-15
1.99289e-13
-4.14971e-14
1.6781e-13
-1.38309e-13
1.49266e-13
1.21256e-14
1.48047e-13
1.04603e-13
1.53462e-13
7.4091e-14
1.60198e-13
-6.04951e-15
1.65156e-13
-8.69961e-15
1.67669e-13
5.74501e-14
1.68375e-13
3.56275e-14
1.68804e-13
5.81035e-15
1.6924e-13
9.08406e-15
1.69613e-13
1.63015e-14
1.69805e-13
2.04466e-14
1.70425e-13
2.56456e-14
1.72207e-13
3.27471e-14
1.75641e-13
5.92097e-14
1.73703e-13
1.6412e-14
1.81907e-13
-2.03464e-13
1.64805e-13
-7.27432e-13
4.6336e-14
-8.99239e-13
6.77382e-14
5.82315e-12
-2.19255e-13
-2.61119e-11
6.51292e-13
3.20201e-12
2.82349e-13
6.92564e-12
1.0319e-13
3.27992e-12
2.31263e-13
7.07354e-12
1.46886e-12
4.92744e-13
3.48422e-13
2.4674e-13
2.43005e-12
2.86785e-13
1.22772e-12
-6.18249e-14
-1.5032e-12
-6.0867e-13
-1.86647e-12
-9.87233e-13
3.38217e-12
3.08487e-13
-5.5553e-13
1.22117e-12
1.10483e-11
1.63781e-12
-9.61799e-12
8.40386e-13
-1.78235e-12
2.29736e-13
-3.88016e-12
1.30574e-13
-7.02174e-13
1.34677e-13
6.25647e-13
1.63344e-13
2.11003e-13
1.77951e-13
2.72218e-13
2.01508e-13
1.84878e-13
2.26952e-13
7.10605e-14
2.32658e-13
-1.07994e-14
2.04365e-13
-1.32037e-14
1.63395e-13
-9.73387e-14
1.40977e-13
3.45432e-14
1.41834e-13
1.03746e-13
1.50093e-13
6.58317e-14
1.57933e-13
-1.38891e-14
1.64066e-13
-1.48327e-14
1.68394e-13
5.31222e-14
1.7e-13
3.40214e-14
1.70378e-13
5.43186e-15
1.70783e-13
8.6787e-15
1.71242e-13
1.58425e-14
1.71523e-13
2.01657e-14
1.71794e-13
2.53752e-14
1.73517e-13
3.10241e-14
1.77078e-13
5.5649e-14
1.72761e-13
2.07289e-14
1.65871e-13
-1.96574e-13
9.34832e-15
-5.70909e-13
2.17911e-13
-1.1078e-12
-1.12624e-12
7.16731e-12
6.05563e-13
-2.78437e-11
3.02385e-13
3.50519e-12
1.29611e-13
7.09841e-12
-6.14628e-14
3.47099e-12
2.83178e-13
6.7289e-12
1.26507e-12
7.91435e-14
4.69279e-13
5.00749e-13
2.00845e-12
3.35323e-13
1.39314e-12
-4.64524e-14
-1.12142e-12
-5.1288e-13
-1.40004e-12
-9.33828e-13
3.80312e-12
-6.58619e-13
-8.30738e-13
1.5569e-12
8.83282e-12
9.83656e-13
-9.04474e-12
8.95994e-13
-1.69469e-12
2.49577e-13
-3.23374e-12
1.27917e-13
-5.80514e-13
1.3601e-13
6.17554e-13
1.59333e-13
1.87679e-13
1.748e-13
2.56751e-13
2.03073e-13
1.56604e-13
2.33827e-13
4.03068e-14
2.37761e-13
-1.47336e-14
2.06771e-13
1.77861e-14
1.58546e-13
-4.91135e-14
1.37846e-13
5.52434e-14
1.43836e-13
9.77563e-14
1.53566e-13
5.61019e-14
1.59926e-13
-2.02487e-14
1.64707e-13
-1.96137e-14
1.68849e-13
4.89795e-14
1.70932e-13
3.19386e-14
1.71383e-13
4.98092e-15
1.71776e-13
8.28581e-15
1.72318e-13
1.53006e-14
1.72691e-13
1.97925e-14
1.73217e-13
2.48488e-14
1.74703e-13
2.9538e-14
1.7877e-13
5.15827e-14
1.72267e-13
2.72321e-14
1.59063e-13
-1.83371e-13
3.04304e-14
-4.42276e-13
1.74449e-13
-1.25182e-12
-5.09118e-13
7.85087e-12
-8.94535e-14
-2.82634e-11
-4.92136e-15
3.42066e-12
-5.83451e-14
7.15183e-12
-1.26998e-13
3.53964e-12
3.3208e-13
6.26982e-12
1.10101e-12
6.80226e-13
-1.09472e-14
3.72322e-13
2.31635e-12
3.3642e-13
1.42904e-12
-3.3517e-14
-7.51486e-13
-4.09683e-13
-1.02388e-12
-7.79011e-13
4.17245e-12
-1.73454e-12
1.24789e-13
7.57282e-13
6.341e-12
1.38997e-12
-9.67742e-12
8.50778e-13
-1.1555e-12
2.98192e-13
-2.68115e-12
1.34147e-13
-4.16469e-13
1.37233e-13
6.14468e-13
1.53948e-13
1.70964e-13
1.70264e-13
2.40436e-13
1.97689e-13
1.29179e-13
2.22763e-13
1.52324e-14
2.24784e-13
-1.67549e-14
1.98673e-13
4.3898e-14
1.59554e-13
-9.99535e-15
1.42203e-13
7.25946e-14
1.47065e-13
9.28947e-14
1.56089e-13
4.70779e-14
1.61307e-13
-2.54668e-14
1.65002e-13
-2.33086e-14
1.69009e-13
4.49721e-14
1.7128e-13
2.96678e-14
1.71746e-13
4.51482e-15
1.72135e-13
7.89643e-15
1.72745e-13
1.4691e-14
1.73253e-13
1.92849e-14
1.73912e-13
2.41895e-14
1.75427e-13
2.80225e-14
1.79202e-13
4.78086e-14
1.72899e-13
3.35344e-14
1.6526e-13
-1.75732e-13
1.14451e-13
-3.91468e-13
4.98977e-14
-1.18727e-12
-4.58903e-14
7.94666e-12
-6.19702e-13
-2.76896e-11
-3.12345e-13
3.1133e-12
-2.21283e-13
7.06077e-12
-1.84774e-13
3.50313e-12
3.46192e-13
5.73885e-12
9.91809e-13
3.04561e-13
1.95439e-13
2.73204e-13
3.13567e-14
2.92145e-13
-1.89403e-14
6.46166e-13
-3.54022e-13
-1.23079e-12
1.87696e-12
5.96762e-13
9.86773e-14
6.08255e-13
1.98632e-14
6.18535e-13
-2.92198e-14
8.58883e-13
-5.9437e-13
-1.63441e-12
1.2625e-12
6.84449e-13
-8.57722e-14
7.29706e-13
-2.53929e-14
7.26137e-13
-2.5651e-14
9.07254e-13
-7.75487e-13
-1.39748e-12
6.70326e-13
6.00669e-13
-1.86441e-13
6.10741e-13
-3.54646e-14
5.64478e-13
2.06124e-14
1.83428e-13
-3.94438e-13
-5.94467e-13
-6.19588e-13
3.13559e-13
2.78094e-13
2.98706e-13
-9.57315e-14
-6.90198e-13
1.62215e-13
1.7038e-12
-2.64633e-13
2.7432e-12
8.20326e-13
3.44085e-13
-2.00803e-14
8.89197e-14
-1.6265e-12
5.82547e-13
1.13667e-12
1.40927e-12
-1.91108e-12
3.17254e-12
3.29053e-12
1.13939e-12
4.63782e-12
-1.10247e-11
4.42637e-12
-9.44054e-13
1.71168e-12
3.35469e-14
6.74169e-13
6.21038e-13
6.19479e-13
6.69159e-13
6.2742e-13
1.63022e-13
6.97055e-13
1.70801e-13
8.02371e-13
2.38626e-14
8.67926e-13
-5.03219e-14
8.63193e-13
-1.20221e-14
8.058e-13
1.0129e-13
7.03636e-13
9.21684e-14
6.73711e-13
1.0252e-13
6.96871e-13
6.97341e-14
7.27211e-13
1.67383e-14
7.34847e-13
-3.31027e-14
7.37966e-13
-2.64283e-14
7.56839e-13
2.60998e-14
7.67624e-13
1.88822e-14
7.69176e-13
2.96286e-15
7.71126e-13
5.94633e-15
7.74402e-13
1.14149e-14
7.78262e-13
1.5425e-14
7.83352e-13
1.91002e-14
7.90656e-13
2.07181e-14
8.02223e-13
3.62416e-14
7.90576e-13
4.51813e-14
7.27904e-13
-1.13059e-13
4.67168e-13
-1.30732e-13
-1.98617e-13
-5.21483e-13
2.9192e-12
4.82885e-12
-4.71359e-12
-2.00568e-11
-4.75319e-12
3.1529e-12
-1.92785e-12
4.23544e-12
-6.61016e-13
2.23629e-12
6.67253e-13
4.41059e-12
5.65196e-13
2.00154e-12
9.64759e-13
1.96807e-12
2.77667e-12
1.68075e-12
6.31404e-13
1.19966e-12
5.70012e-13
8.88435e-14
1.69336e-12
-3.39931e-13
1.83805e-12
-5.85681e-13
3.41829e-12
1.33928e-12
-7.85564e-13
2.76401e-12
-1.24494e-11
5.14987e-12
-3.32992e-12
2.14481e-12
3.0386e-12
7.6771e-13
1.99814e-12
6.2228e-13
8.14589e-13
5.55109e-13
2.30194e-13
5.96851e-13
1.29059e-13
6.50371e-13
-2.96565e-14
6.69724e-13
-6.96752e-14
6.5205e-13
5.6513e-15
6.49856e-13
1.03484e-13
6.36562e-13
1.05462e-13
6.51367e-13
8.77156e-14
6.76824e-13
4.42777e-14
6.91175e-13
2.38701e-15
6.85713e-13
-2.76406e-14
6.80661e-13
-2.13768e-14
6.93571e-13
1.31901e-14
7.02152e-13
1.03009e-14
7.03641e-13
1.47403e-15
7.05766e-13
3.82128e-15
7.09768e-13
7.41332e-15
7.15032e-13
1.01609e-14
7.21815e-13
1.23173e-14
7.29977e-13
1.25558e-14
7.39528e-13
2.66911e-14
7.29958e-13
5.47512e-14
5.99974e-13
1.69239e-14
4.19921e-13
4.93221e-14
1.16249e-12
-1.26405e-12
2.5308e-12
3.46053e-12
1.24493e-12
-1.87709e-11
-8.3089e-13
5.22872e-12
-1.62105e-12
5.02559e-12
-1.16367e-12
1.77891e-12
4.90978e-13
2.75594e-12
9.03779e-13
-2.55762e-14
1.66066e-12
1.07843e-12
1.67267e-12
1.59124e-12
1.18592e-13
1.74711e-12
4.14143e-13
1.63452e-12
1.80594e-12
-2.57072e-13
3.72964e-12
-5.16412e-13
3.67763e-12
1.17827e-12
-2.48024e-12
7.20689e-13
-1.19919e-11
2.70813e-12
-5.31736e-12
1.58838e-12
4.15835e-12
4.80672e-13
3.10585e-12
5.08051e-13
7.8721e-13
4.40116e-13
2.98129e-13
4.64719e-13
1.04456e-13
4.76429e-13
-4.13664e-14
4.58581e-13
-5.18281e-14
4.54359e-13
9.87362e-15
4.86791e-13
7.10518e-14
5.21062e-13
7.11904e-14
5.55978e-13
5.28001e-14
5.78312e-13
2.19439e-14
5.83084e-13
-2.38497e-15
5.7268e-13
-1.7237e-14
5.64431e-13
-1.31275e-14
5.71742e-13
5.87824e-15
5.77391e-13
4.65261e-15
5.78487e-13
3.78039e-16
5.80523e-13
1.78482e-15
5.84399e-13
3.53741e-15
5.89501e-13
5.05881e-15
5.95893e-13
5.92534e-15
6.029e-13
5.54888e-15
6.14935e-13
1.46564e-14
6.22355e-13
4.73304e-14
5.93807e-13
4.54726e-14
6.49358e-13
-6.22992e-15
1.55332e-12
-2.16801e-12
4.42336e-12
5.90496e-13
-5.7849e-12
-8.56265e-12
-3.27912e-12
2.72294e-12
-1.96872e-12
3.71519e-12
-2.41173e-12
2.22192e-12
-1.42645e-12
1.77065e-12
6.02386e-13
-8.76215e-13
1.91729e-12
6.68362e-13
1.28092e-13
1.34277e-12
-5.55813e-13
1.69929e-12
5.76156e-14
2.52626e-12
9.78977e-13
3.00253e-12
3.25337e-12
3.81862e-12
2.86154e-12
4.09986e-12
-2.76148e-12
-1.42949e-12
-6.46251e-12
-3.6024e-12
-3.14445e-12
-9.43271e-13
1.49922e-12
-1.17671e-13
2.28025e-12
1.89742e-13
4.79797e-13
2.74809e-13
2.13062e-13
3.20049e-13
5.9216e-14
2.91491e-13
-1.28089e-14
2.60166e-13
-2.05034e-14
2.65093e-13
4.94671e-15
3.0907e-13
2.7075e-14
3.55438e-13
2.48217e-14
3.90667e-13
1.75712e-14
4.06322e-13
6.28904e-15
4.05627e-13
-1.68977e-15
3.94678e-13
-6.28835e-15
3.86504e-13
-4.95324e-15
3.90495e-13
1.88668e-15
3.93741e-13
1.40695e-15
3.94223e-13
-1.03684e-16
3.95611e-13
3.96593e-16
3.98244e-13
9.0463e-16
4.0173e-13
1.57322e-15
4.05807e-13
1.84814e-15
4.09953e-13
1.40285e-15
4.19211e-13
5.39831e-15
4.42257e-13
2.4284e-14
4.46352e-13
4.13778e-14
4.34799e-13
5.32329e-15
-1.73415e-13
-1.5598e-12
2.13186e-13
2.03894e-13
-5.38648e-12
-2.96299e-12
-3.89813e-12
1.23459e-12
-1.92084e-12
1.73791e-12
-1.32808e-12
1.62916e-12
-5.7368e-13
1.01626e-12
1.4051e-12
1.22709e-12
1.35518e-12
7.99369e-13
8.56985e-13
1.83596e-12
5.08933e-12
7.95088e-12
5.1894e-12
-1.27312e-12
-4.41757e-12
-2.91835e-12
-6.38097e-13
-1.583e-13
5.47621e-14
1.13978e-13
1.01169e-13
8.06654e-14
8.5612e-14
1.12687e-13
1.37509e-13
1.5508e-13
1.61369e-13
1.59679e-13
1.53391e-13
1.48438e-13
1.50324e-13
1.51731e-13
1.51627e-13
1.52024e-13
1.52929e-13
1.54502e-13
1.5635e-13
1.57753e-13
1.63151e-13
1.87435e-13
2.28813e-13
2.34136e-13
-1.32566e-12
-1.12176e-12
-4.08476e-12
-2.85017e-12
-1.11226e-12
5.16904e-13
1.53317e-12
)
;

boundaryField
{
    AirInlet
    {
        type            calculated;
        value           nonuniform List<scalar> 5(-2e-13 -2e-13 -2e-13 -2e-13 -2e-13);
    }
    WaterInlet
    {
        type            calculated;
        value           nonuniform List<scalar> 10(-5e-13 -5e-13 -5e-13 -5e-13 -5e-13 -5e-13 -5e-13 -5e-13 -5e-13 -5e-13);
    }
    ChannelWall
    {
        type            calculated;
        value           uniform 0;
    }
    Outlet
    {
        type            calculated;
        value           nonuniform List<scalar> 
15
(
1.49741e-13
2.05125e-13
2.77969e-13
4.37286e-13
1.00421e-12
3.66432e-13
4.3765e-13
4.86965e-13
4.9614e-13
4.55397e-13
1.09387e-12
1.52395e-13
-1.12506e-12
-1.37639e-12
2.93826e-12
)
;
    }
    FrontAndBack
    {
        type            empty;
        value           nonuniform 0();
    }
}


// ************************************************************************* //
