/*--------------------------------*- C++ -*----------------------------------*\
| =========                 |                                                 |
| \\      /  F ield         | OpenFOAM: The Open Source CFD Toolbox           |
|  \\    /   O peration     | Version:  2.3.0                                 |
|   \\  /    A nd           | Web:      www.OpenFOAM.org                      |
|    \\/     M anipulation  |                                                 |
\*---------------------------------------------------------------------------*/
FoamFile
{
    version     2.0;
    format      ascii;
    class       volScalarField;
    location    "2.8e-05";
    object      alpha.fuel;
}
// * * * * * * * * * * * * * * * * * * * * * * * * * * * * * * * * * * * * * //

dimensions      [0 0 0 0 0 0 0];

internalField   nonuniform List<scalar> 
7500
(
1
1
1
1
1
1
1
1
1
1
1
1
1
1
1
1
1
1
1
1
1
1
1
1
1
1
1
1
1
1
1
1
1
1
1
1
1
1
1
1
1
1
1
1
1
1
1
1
1
1
1
1
1
1
1
1
1
1
1
1
1
1
1
1
1
1
1
1
1
1
1
1
1
1
1
1
1
1
1
1
1
1
1
1
1
1
1
1
1
1
1
1
1
1
1
1
1
1
1
1
1
1
1
1
1
1
1
1
1
1
1
1
1
1
1
1
1
1
1
1
1
1
1
1
1
1
1
1
1
1
1
1
1
1
1
1
1
1
1
1
1
1
1
1
1
1
1
1
1
1
1
1
1
1
1
1
1
1
1
1
1
1
1
1
1
1
1
1
1
1
1
1
1
1
1
1
1
1
1
1
1
1
1
1
1
1
1
1
1
1
1
1
1
1
1
1
1
1
1
1
1
1
1
1
1
1
1
1
1
1
1
1
1
1
1
1
1
1
1
1
1
1
1
1
1
1
1
1
1
1
1
1
1
1
1
1
1
1
1
1
1
1
1
1
1
1
1
1
1
1
1
1
1
1
1
1
1
1
1
1
1
1
1
1
1
1
1
1
1
1
1
1
1
1
1
1
1
1
1
1
1
1
1
1
1
1
1
1
1
1
1
1
1
1
1
1
1
1
1
1
1
1
1
1
1
1
1
1
1
1
1
1
1
1
1
1
1
1
1
1
1
1
1
1
1
1
1
1
1
1
1
1
1
1
1
1
1
1
1
1
1
1
1
1
1
1
1
1
1
1
1
1
1
1
1
1
1
1
1
1
1
1
1
1
1
1
1
1
1
1
1
1
1
1
1
1
1
1
1
1
1
1
1
1
1
1
1
1
1
1
1
1
1
1
1
1
1
1
1
1
1
1
1
1
1
1
1
1
1
1
1
1
1
1
1
1
1
1
1
1
1
1
1
1
1
1
1
1
1
1
1
1
1
1
1
1
1
1
1
1
1
1
1
1
1
1
1
1
1
1
1
1
1
1
1
1
1
1
1
1
1
1
1
1
1
1
1
1
1
1
1
1
1
1
1
1
1
1
1
1
1
1
1
1
1
1
1
1
1
1
1
1
1
1
1
1
1
1
1
1
1
1
1
1
1
1
1
1
1
1
1
1
1
1
1
1
1
1
1
1
1
1
1
1
1
1
1
1
1
1
1
1
1
1
1
1
1
1
1
1
1
1
1
1
1
1
1
1
1
1
1
1
1
1
1
1
1
1
1
1
1
1
1
1
1
1
1
1
1
1
1
1
1
1
1
1
1
1
1
1
1
1
1
1
1
1
1
1
1
1
1
1
1
1
1
1
1
1
1
1
1
1
1
1
1
1
1
1
1
1
1
1
1
1
1
1
1
1
1
1
1
1
1
1
1
1
1
1
1
1
1
1
1
1
1
1
1
1
1
1
1
1
1
1
1
1
1
1
1
1
1
1
1
1
1
1
1
1
1
1
1
1
1
1
1
1
1
1
1
1
1
1
1
1
1
1
1
1
1
1
1
1
1
1
1
1
1
1
1
1
1
1
1
1
1
1
1
1
1
1
1
1
1
1
1
1
1
1
1
1
1
1
1
1
1
1
1
1
1
1
1
1
1
1
1
1
1
1
1
1
1
1
1
1
1
1
1
1
1
1
1
1
1
0.99959382
0.99670422
0.99214371
0.98512897
0.97557214
0.96465991
0.94523935
1
1
1
1
1
1
1
1
1
1
1
1
1
1
1
1
1
1
1
1
1
1
1
1
1
1
1
1
1
1
1
1
1
1
1
1
1
1
1
1
1
1
1
1
1
1
1
1
1
1
1
1
0.9996906
0.99437631
0.98436349
0.9694259
0.9484489
0.92184133
0.88901194
0.83305096
0.76905642
0.70819008
0.64697319
0.58761617
0.53405204
0.48056317
0.43121589
0.38263786
0.33152889
0.28550261
0.23922707
0.19625331
0.15683538
0.12644954
0.082425033
1
1
1
1
1
1
1
1
1
1
1
1
1
1
1
1
1
1
1
1
1
1
1
1
1
1
1
1
1
1
1
1
1
1
1
1
1
1
1
1
1
1
0.99238875
0.97525893
0.9475176
0.91027462
0.83750132
0.74957068
0.66345601
0.57653529
0.49419102
0.41086218
0.33211613
0.25859304
0.19223533
0.13823906
0.089983347
0.041956336
9.5912141e-10
3.6404939e-10
3.6404938e-10
3.6404937e-10
3.640496e-10
3.6404972e-10
3.640491e-10
3.640491e-10
3.640491e-10
3.6404954e-10
3.6404947e-10
3.6404935e-10
3.6404929e-10
3.6404929e-10
3.6404929e-10
3.6404929e-10
3.6405694e-10
1
1
1
1
1
1
1
1
1
1
1
1
1
1
1
1
1
1
1
1
1
1
1
1
1
1
1
1
1
1
1
1
1
1
0.98844101
0.96125911
0.91399239
0.81429748
0.69940439
0.58235409
0.46775594
0.3549639
0.25109903
0.15985972
0.091894101
0.0032778631
7.5528559e-10
6.9839277e-10
6.9839277e-10
6.9839276e-10
6.9839276e-10
6.9839305e-10
6.9839305e-10
6.9839428e-10
6.9861966e-10
6.9957967e-10
6.9875092e-10
6.9831513e-10
7.1311167e-10
7.1723041e-10
7.2742235e-10
3.6652688e-10
1.2008119e-07
3.5194186e-07
7.5694967e-10
7.8412686e-10
7.081159e-10
2.0325783e-07
4.6639194e-08
2.8628394e-08
7.4435478e-10
7.2818275e-10
7.2523251e-10
7.2712281e-10
1.1801728e-06
1
1
1
1
1
1
1
1
1
1
1
1
1
1
1
1
1
1
1
1
1
1
1
1
1
1
1
1
0.98169015
0.92797358
0.81546492
0.67101882
0.52151681
0.37022394
0.23169423
0.126958
0.0020558598
2.6737512e-09
2.6427173e-09
2.6427173e-09
2.6427173e-09
2.6427173e-09
2.6427173e-09
2.6427173e-09
2.6427174e-09
2.6427182e-09
3.3737724e-09
3.513644e-09
3.7137895e-09
3.4143264e-09
1.1255012e-09
1.1446381e-07
9.4589061e-10
3.8971703e-07
5.548612e-05
0.00014230757
3.0951165e-05
1.1577198e-09
1.2591485e-09
8.020086e-10
5.8473133e-10
7.3758211e-10
8.068267e-10
8.6606632e-05
0.00090224893
0.0013173357
0.00025784368
2.9393404e-08
2.9114558e-08
2.8915065e-08
0.00055026417
0.0010722155
0.0011018964
0.00068773683
5.3151151e-05
1
1
1
1
1
1
1
1
1
1
1
1
1
1
1
1
1
1
1
1
1
1
1
0.97677402
0.90097497
0.74010978
0.55431061
0.3631302
0.20194354
0.025681323
3.4827492e-09
3.2008485e-09
3.2007288e-09
3.2004395e-09
3.2001173e-09
3.2001173e-09
3.2575831e-09
3.2358628e-09
3.3071628e-09
3.3774007e-09
3.4301349e-09
3.4998973e-09
3.0960805e-09
6.8586694e-09
6.1569595e-09
8.1111098e-09
1.3502866e-08
3.9701315e-09
4.3105287e-09
3.8918985e-09
1.1640221e-05
7.1595816e-06
1.4131562e-09
8.8762278e-10
0.0029572487
8.1228072e-07
1.332736e-09
0.032662673
0.010457128
1.0951633e-09
5.7510786e-10
0.00099660719
0.00010552919
4.1889195e-05
0.0029584697
0.0029584693
0.0020617768
0.00056781105
0.00093578925
0.0022567715
0.0029809665
0.0029809665
0.0029782789
0.0017428927
2.2464979e-09
1
1
1
1
1
1
1
1
1
1
1
1
1
1
1
1
1
1
1
0.9642499
0.84810833
0.64098681
0.40948363
0.19522546
4.9800646e-09
3.7414738e-09
3.7414738e-09
3.7414632e-09
3.7414276e-09
3.7414271e-09
4.1501852e-09
4.3895664e-05
9.4837499e-05
8.1930082e-05
3.9946568e-09
3.8213517e-09
0.00022196098
0.00045496511
4.0897233e-09
3.9747496e-09
4.0660373e-09
4.0732421e-09
2.5880657e-06
2.3157565e-07
6.8841314e-09
1.1857395e-08
1.1866392e-08
0.00082639467
0.0023229917
0.0012778566
8.7466419e-05
4.810945e-09
4.2694918e-09
3.9095993e-09
3.760511e-09
0.017083013
0.045377456
0.06963144
0.014909227
1.5525816e-09
0.0011084827
0.003867142
0.0016523418
1.8747666e-09
0.00017926687
0.0003982756
1.9333837e-09
0.0032813014
0.0032729046
0.0032703024
0.0023349082
0.00050602073
1.6309268e-09
1.5614317e-09
1.8475105e-09
1
1
1
1
1
1
1
1
1
1
1
1
1
1
1
1
0.92161957
0.72067926
0.45640974
0.15912465
5.3230072e-09
4.3082046e-09
4.3082052e-09
4.308255e-09
5.0824685e-09
4.7951807e-09
3.4488187e-06
4.9252938e-06
1.0305607e-07
5.3454961e-09
0.00058348693
0.0012486068
0.0012474172
0.00037839732
0.0017383801
0.0016112124
0.0044247624
0.0021904898
0.0035722941
0.0033507069
0.0042147677
0.0026939852
0.00012745675
2.6709107e-05
6.8695262e-07
1.2543905e-08
1.1875346e-08
0.0033128168
0.0033949081
0.0033876141
0.00072186724
4.3239363e-09
3.7606688e-09
3.7606686e-09
3.8311938e-09
0.0093687666
0.06963144
0.06963144
0.03447871
1.9963987e-09
0.0031184749
0.0030164552
1.4224183e-09
1.5148111e-09
1.4172834e-09
1.4288836e-09
1.4180584e-09
0.00014346229
1.4819943e-09
1.477634e-09
1.4769387e-09
1.4764684e-09
1.6188365e-09
1.561445e-09
2.862369e-05
1
1
1
1
1
1
1
1
1
1
1
1
1
0.9311055
0.71733622
0.40745939
0.048160885
5.6882513e-09
5.280415e-09
5.2796489e-09
6.1048768e-09
5.2631824e-09
1.4903223e-07
7.9086184e-06
0.0012485074
0.0041925032
0.0037469008
5.0886067e-09
3.9892564e-09
0.00050816841
0.0025364738
7.1359675e-06
3.9359625e-09
3.9359614e-09
0.0060491947
0.0046783869
0.00022767189
0.0002276721
0.0063462797
0.0069765909
0.0069850515
0.0055468544
7.9993889e-05
3.4261048e-05
1.3347247e-05
1.2662982e-08
0.0027493362
1.1067773e-05
0.00011734263
1.0958279e-09
1.2647821e-09
0.0042763594
0.0032332692
0.0052738761
0.00046825934
4.425136e-09
0.043137195
0.027663209
0.023527961
0.019090159
2.6225204e-09
2.1451017e-09
3.8009412e-08
1.7496286e-09
1.4172823e-09
0.0088469399
0.0088252702
0.0018734271
1.8877823e-09
3.8098174e-06
1.0083065e-06
1.5461008e-09
1.82952e-09
1.6864882e-09
7.4503901e-05
1
1
1
1
1
1
1
1
1
1
1
0.86969561
0.54779325
0.10489046
5.2906445e-09
4.5650603e-09
4.5650603e-09
5.6026686e-09
0.00029776335
6.5231936e-05
0.0010045165
0.00057942667
2.0553947e-08
0.0038948356
0.0057421446
0.0057421443
1.9527924e-07
5.3858332e-09
5.3519025e-09
5.3531861e-09
7.2275991e-05
4.3902592e-09
5.2306087e-09
4.4382237e-09
3.8939831e-09
0.0079897084
0.00027705413
0.00047964089
0.0013672036
4.8225706e-08
4.8428027e-08
0.00013261449
1.8673138e-05
1.0214418e-06
1.4158269e-08
0.00019430117
0.00060516475
3.8300012e-05
1.1948063e-09
1.0797014e-09
1.0742986e-09
0.010539862
0.021375317
0.021375317
0.0087516805
4.120885e-09
3.6495224e-09
3.245943e-09
2.9015229e-09
0.00049280631
2.4746888e-09
2.4062866e-09
2.406305e-09
0.0035347666
0.0029879995
0.0066939395
0.0061071342
0.00074554607
0.00021691241
0.00012431979
8.9147623e-10
1.2945812e-09
0.001258184
4.8006063e-05
2.6560688e-08
1
1
1
1
1
1
1
1
1
0.84763574
0.45692953
0.0054013296
4.8562115e-09
4.8003256e-09
6.0252845e-09
5.6260205e-09
6.27507e-09
0.0013895782
0.0047864586
0.0039605149
0.00674659
0.0013877263
2.0445422e-08
1.9713272e-08
0.00047299956
3.8230821e-06
3.7545716e-08
5.5490704e-09
5.0268515e-09
5.4856627e-09
5.1071196e-09
4.9247146e-09
4.9256588e-09
4.3957432e-09
3.8939833e-09
0.0079895084
0.0051175369
2.9806612e-09
2.8095148e-09
0.00015257037
0.0039805566
0.0012571599
1.449948e-08
1.3825568e-08
1.4143482e-08
0.0023074741
0.0001594884
1.8156509e-09
1.3962121e-09
1.0743166e-09
0.00055389808
0.00031871551
0.01137805
0.00036710886
0.0088691788
6.3983978e-05
3.6706844e-09
0.0016128882
3.223873e-09
3.3990519e-09
0.0033683406
0.00063572883
2.4419412e-09
0.0072387788
0.00088297543
9.2021706e-10
8.5435583e-10
5.9805768e-10
5.9805661e-10
5.9805564e-10
5.9805488e-10
0.0013450732
0.0024422851
0.0010628248
0.00038998434
1
1
1
1
1
1
1
0.89274836
0.50982902
0.0081734067
5.9359957e-09
5.8472005e-09
5.8321442e-09
5.9274942e-06
0.00032136052
6.2296911e-09
0.0015602591
0.0047989732
0.0042556038
1.2741603e-08
1.2881012e-08
1.2933404e-08
5.95072e-05
0.00016205966
0.0049800406
0.00024085412
4.5539727e-09
5.2191225e-09
4.9454933e-09
5.1952056e-09
4.5797339e-09
5.2094758e-09
0.00016083513
6.5315132e-06
3.9090463e-09
0.0048889147
4.5578195e-09
0.00019204992
2.8083694e-09
0.0044627417
0.0065771731
0.0024088428
1.481646e-08
8.0054966e-05
0.0010376875
0.00037414872
1.8577637e-05
0.0060849093
1.6708442e-09
1.0759608e-09
9.9696412e-06
2.1453395e-09
2.5607398e-09
2.7665105e-09
0.0024276752
0.010612914
0.00093650426
2.3398373e-06
0.0059975439
7.2505287e-05
0.010680681
0.0092677226
2.8569782e-09
2.9602174e-09
0.0003539709
0.0087452351
0.0034677816
9.6153934e-10
9.9490119e-10
7.9340132e-10
5.9810263e-10
0.001374573
0.001508003
0.0019062826
0.0019062825
1
1
1
1
1
1
0.73654315
0.10575062
1.3791284e-08
1.3806162e-08
2.4238504e-05
5.3971304e-05
1.0908195e-05
7.9083974e-05
0.00077691765
0.00010194968
1.1189738e-08
1.1135712e-08
1.1209619e-08
5.0084837e-05
0.00027094116
3.7518488e-05
0.00046209543
0.0012603232
0.0049800402
0.004637612
4.5520516e-09
5.1543615e-09
4.9890146e-09
4.4267511e-09
2.8044869e-05
0.00099257992
0.00099126786
9.1904996e-05
1.1635297e-08
5.1801075e-09
4.5575284e-09
0.00055070532
2.7377697e-09
2.0411813e-09
2.0033461e-09
0.0055654895
0.0015835268
0.00025454024
0.0026243994
0.0010152089
0.00039032806
0.01346722
0.0059738027
1.6313264e-09
1.9151968e-09
1.828216e-09
0.0014658594
0.0016542418
1.4220884e-08
0.0035573887
0.00022005446
0.021808845
0.023682812
0.0011151614
0.0037476126
0.0018419982
7.4245787e-05
0.0016477567
0.012801752
0.012805414
0.0050991692
1.247593e-09
1.1911513e-09
8.8761057e-08
6.4881814e-08
3.7506408e-10
3.7504844e-10
0.00013293279
0.00037711999
1
1
1
1
0.96941644
0.47543111
1.2345286e-08
1.0092831e-08
1.3003904e-08
7.037904e-05
0.00022928589
0.00022900143
0.0001390092
1.9279505e-08
1.9690509e-08
0.00036778083
1.290437e-05
7.5864983e-06
1.2207873e-08
0.00077164232
0.0010634265
0.00058537013
1.6470648e-08
3.0946093e-05
0.0043272301
0.0049715201
4.5871721e-09
0.00061552186
0.00040527569
4.4425801e-09
4.4575551e-09
0.0022686701
4.5748635e-09
9.4463724e-05
0.00014109475
1.4848874e-05
5.0097192e-09
5.5305055e-09
0.0010960415
0.00018818549
2.0501442e-09
0.0023127617
0.0059145013
0.0059145009
0.0026296776
7.9730643e-06
2.4828384e-09
0.004194793
0.011948798
0.0018902952
2.0218499e-09
0.0038794131
0.0085495338
0.0060005321
1.4137072e-08
1.3674364e-08
1.3495138e-08
0.070507936
0.0043997708
3.1549135e-09
3.4116996e-09
3.253452e-09
3.3109526e-09
0.0068671273
0.012805414
0.0014986755
4.2715462e-05
1.5184672e-09
1.333854e-05
5.9173779e-06
4.1032526e-07
5.5250986e-10
5.6856907e-10
3.7490144e-10
4.3187492e-10
1
1
1
0.95633477
0.26641426
1.5580757e-08
1.3966498e-08
1.2013294e-08
0.00032712633
0.00042095623
7.0824605e-05
4.2657157e-09
4.2703304e-09
2.1023137e-06
0.00012982003
0.00073639146
0.00029037535
0.00045299148
0.0010411951
0.0011174131
0.00015541811
5.2907048e-09
1.6279795e-08
1.7498876e-08
0.00036410757
0.0035627515
0.0042026202
0.004197963
0.0041742527
0.004205862
0.0033396148
4.4034138e-09
4.1400937e-09
3.6831049e-09
1.1037334e-05
4.7432806e-06
5.5036637e-09
0.0044150705
0.0021240502
0.00078693953
2.5163024e-09
2.5472657e-09
0.00078823848
0.0028818369
0.00025345234
2.8978704e-09
2.3220408e-09
2.3587463e-09
0.01117572
0.005059344
2.396451e-09
5.3114419e-06
2.1407591e-07
1.1810319e-08
0.0024714698
1.3381647e-08
0.053205785
0.011664564
2.6615542e-09
3.7335578e-06
1.3684913e-06
3.0111267e-09
3.0110183e-09
3.0918051e-09
0.0092482293
5.2523927e-08
4.7043486e-05
0.00018659006
0.00014739811
1.0676508e-09
9.4857465e-10
8.7749901e-10
7.4118453e-10
3.7492714e-10
5.193659e-05
1
1
0.98727971
0.2493134
1.7597509e-08
1.5591288e-08
2.3331519e-05
0.00014390785
6.3904074e-09
5.9739874e-09
6.1494949e-09
5.8117017e-09
5.551043e-09
0.00024753047
0.00042340517
0.00035850148
0.00047156554
0.00019619617
0.0011172664
0.00084826233
6.0513999e-09
6.0420239e-09
5.6099674e-09
5.025449e-06
6.9673245e-09
7.8384326e-09
0.002908415
8.5243147e-09
8.396676e-09
0.0036176988
0.0047383499
0.00055192984
3.2629532e-05
4.2299506e-09
4.6625562e-09
4.661361e-09
0.0049960549
0.012843894
0.00069856579
2.9967898e-09
2.2729133e-08
3.3086063e-09
1.5713026e-09
1.5712913e-09
1.5712895e-09
5.2895156e-06
2.3227686e-09
0.00031815746
0.0013833241
1.105835e-05
1.0583087e-05
6.3097157e-05
0.005017697
0.00099256985
5.0912201e-08
0.054254511
0.070869931
0.027661784
2.4380688e-09
2.1658267e-09
1.9495913e-09
0.0029236622
0.0084363646
0.00013469157
3.1195199e-09
5.2485654e-08
8.5661299e-10
0.00033352813
5.4127308e-05
0.0006227821
2.1521832e-07
9.4540118e-10
7.8378062e-10
4.5493273e-10
0.0001805919
1
1
0.31609636
2.2922076e-08
2.0383829e-08
1.6240663e-08
8.7697901e-05
2.7122417e-08
2.6524616e-08
6.6382456e-07
1.5657886e-05
0.0012944121
3.0961604e-05
1.83773e-09
1.8265216e-09
1.8378742e-09
8.5792706e-05
1.5639551e-06
0.00044875714
0.00017581674
5.4596507e-07
2.3583983e-05
6.4706421e-09
6.3413874e-09
6.3403664e-09
0.00031225677
9.5197748e-09
8.5672061e-09
9.2469661e-09
1.0051406e-08
0.0046642868
0.0041723029
0.0021354116
8.4578532e-05
4.6774973e-09
0.0048149563
0.012843894
0.012843894
0.0029340733
3.2124363e-09
1.1142517e-08
8.3205722e-09
8.1967352e-09
3.8170816e-09
1.8268642e-09
1.4853598e-09
0.0016570723
0.0020721779
0.00027780198
0.0015309819
0.0016126767
0.010700665
0.011647759
0.0066522804
5.1209844e-08
0.021554324
0.070869931
0.019680551
2.7106101e-09
0.00029400491
1.6779849e-06
0.010102308
0.0035269723
2.7642397e-09
2.8028561e-09
6.8234476e-08
7.0167337e-10
4.2220103e-10
0.0013522342
0.005484379
0.0052363143
3.4087582e-06
1.00532e-09
3.5116385e-05
7.3979097e-09
1
0.64604217
0.024720664
0.00027038032
2.2216912e-08
3.3031143e-06
7.3296445e-08
7.326405e-08
4.244107e-08
5.272795e-09
0.00010312742
0.0021895957
0.00024208928
3.4204073e-09
1.8325509e-09
2.1443663e-06
4.5371208e-09
5.3397527e-09
5.9213653e-09
6.866115e-05
5.3468935e-09
0.00021902427
0.0011450455
0.0034003954
0.0034046816
0.0037723554
0.00043517824
9.1216295e-09
9.6369097e-09
4.6187689e-06
3.5518812e-09
2.6402159e-09
2.6402159e-09
0.00040473307
9.5379614e-05
0.00049978569
0.0030732153
0.0024989187
0.0024942928
2.761431e-09
2.1437822e-09
5.8861913e-09
4.5940837e-09
4.2359501e-09
2.5017052e-06
1.5127687e-09
0.012355428
0.00091108129
0.0048553407
0.009916441
0.0099133305
0.0081787503
0.0039450685
0.011521216
0.0087573779
7.5898216e-09
0.022129177
0.010247744
0.0040728774
0.0041035864
0.0012690504
0.010102308
1.0789766e-07
2.7323086e-09
2.3155028e-06
2.8589807e-08
5.886309e-10
4.2220092e-10
0.0054840645
0.005484379
0.0054843789
0.0028812956
7.1085408e-05
7.6662558e-09
7.6102571e-09
0.96995618
0.080767721
3.1669302e-08
2.8435976e-08
3.4204013e-08
3.4204707e-08
1.5042479e-07
1.7006421e-07
5.9379147e-08
5.2727354e-09
0.00018224101
0.0021895964
0.00047130744
3.5872654e-09
1.8358596e-09
2.5163085e-05
3.5756802e-09
4.5231576e-09
0.00063524228
0.002864542
5.3453165e-09
5.2412739e-09
0.0023132085
0.0023170574
0.0013690801
6.9903621e-09
4.4048573e-05
9.8390681e-09
1.3534217e-05
3.1091561e-09
3.1023763e-09
3.1023433e-09
3.0153681e-09
2.039535e-09
2.0395341e-09
2.0395719e-09
1.6366847e-09
1.8374336e-09
0.0041597845
0.00078711862
2.4378674e-09
2.8053412e-09
3.3809013e-05
5.4373224e-06
1.1105228e-05
0.0010887987
0.0012141386
2.7250997e-08
0.00028308045
7.9568311e-08
7.949569e-08
7.9543725e-08
0.0048845037
0.012716354
0.012669943
7.2715699e-09
7.3946689e-09
0.024878127
0.004849928
0.00024479134
0.0021571206
0.00035815464
8.5495403e-08
2.3328253e-09
2.0271169e-09
2.2332103e-09
7.0033218e-05
4.4033797e-10
0.0036474235
0.0023920376
0.0016059415
0.0043062823
0.00030981612
7.8075302e-09
7.2343015e-06
0.32168945
4.1101787e-08
3.7098455e-08
8.3619051e-07
3.4632126e-08
1.0256122e-07
2.1783413e-07
1.4711064e-07
3.5749364e-08
5.2728313e-09
0.0001688823
0.002189597
0.00073000321
4.8152317e-09
2.8841463e-09
1.6409192e-09
0.0037240516
4.5328833e-09
8.5216351e-05
0.00063347539
7.3759712e-06
5.2656957e-09
4.5253919e-09
4.5234668e-09
4.3856851e-09
6.3560838e-09
4.8903491e-09
0.00080490977
0.001760277
0.002508443
0.00047044203
5.1637241e-05
5.3506443e-09
2.460984e-09
2.0766085e-09
1.6396152e-09
1.6366847e-09
0.00023574138
0.011092636
0.0012921343
2.5927148e-05
0.00010768992
0.00010737073
9.4269694e-06
1.3168185e-07
0.0095277465
0.0013425247
2.7483289e-08
7.4027918e-05
0.0065517122
0.0026351792
7.9591096e-08
0.013484813
0.012744737
3.745005e-07
0.033644217
0.019220768
0.041519921
0.0030204258
8.8229768e-10
7.0517847e-10
8.7999862e-10
9.0995625e-10
0.0035968614
0.0021825137
0.002024889
0.0017029934
4.124616e-10
1.1885859e-10
1.1885859e-10
1.188586e-10
0.00031796411
0.00039012711
3.2033549e-06
1.3203451e-05
0.10233891
4.731794e-08
3.9654554e-08
0.00041113991
0.00010177678
1.0427653e-07
3.0084107e-07
1.2446814e-06
1.1676121e-06
5.2730089e-09
0.00021936684
0.0010693951
0.00091026147
1.0052308e-06
2.8278578e-09
1.6408993e-09
0.0054352539
0.0016196383
2.6802807e-09
2.6072799e-09
2.607614e-09
2.7148226e-08
4.0011029e-06
3.5950204e-09
2.2859802e-06
5.5935827e-09
4.8566765e-09
0.0014892343
6.0462583e-09
0.0011234789
0.002039943
0.0015303357
5.6193327e-09
5.6876162e-05
2.7775613e-05
5.5225273e-07
1.6550221e-09
3.4288102e-05
0.006009806
0.00024859989
0.00015137423
0.00034487668
2.0310784e-09
2.0076071e-09
0.0037141817
1.7348737e-09
4.4691784e-05
0.0033348892
0.014422348
0.018077063
0.016373421
0.010373467
1.1625028e-08
0.0042238042
0.00034880497
0.013137866
0.046617248
0.036685155
0.0069672413
0.00069900511
1.0205076e-09
2.6632981e-06
0.0044884647
0.0045003957
0.0045091273
0.004505835
1.9849729e-08
0.0033628442
1.1885868e-10
1.1885871e-10
1.9031291e-10
1.1885886e-10
2.9896709e-05
6.8027908e-09
6.6066459e-09
2.5030523e-08
2.3941179e-05
1.8732308e-05
0.00041113806
0.00041113826
2.5366662e-06
6.6235055e-09
5.3985658e-09
5.308459e-09
5.2655729e-09
0.000146189
1.153719e-08
0.00088723958
8.3403463e-06
2.584157e-09
1.6420505e-09
0.0025132447
0.0075512749
0.0018844674
2.6072802e-09
2.7407712e-09
3.4579728e-09
6.4643864e-05
0.00079551964
0.00010192745
5.5295986e-05
4.8783178e-09
5.2200004e-09
5.9896245e-09
4.0811873e-08
0.0020399425
4.9913545e-06
0.0024270058
0.0012945616
0.00013541755
1.2612909e-09
1.2612824e-09
5.4405884e-06
2.4044763e-09
2.7992595e-09
0.00011768155
2.7184162e-09
2.3808379e-09
6.6065797e-06
1.575823e-09
1.5780265e-09
0.0069744461
0.0069352841
0.0011854923
0.0075091304
0.016347635
0.0014696563
1.1585488e-08
1.1404064e-08
1.1638157e-08
1.196274e-06
0.046617248
0.013693429
0.013671357
0.011643877
1.3085324e-09
1.3768549e-05
0.0011355755
2.3583047e-09
0.00014428489
8.499608e-09
0.00018644054
0.0036196313
1.5329228e-10
1.1885888e-10
2.5097221e-10
1.1886041e-10
0.00010632592
1.2902302e-05
6.8417517e-09
8.0772524e-07
0.00028576211
0.00028972351
0.00038807911
0.00041113806
1.428231e-05
2.3038142e-06
3.899824e-08
2.1821034e-08
5.3965232e-09
1.0031403e-05
1.1537195e-08
0.0008116326
6.948453e-05
1.0127218e-05
3.3350613e-08
0.00042633243
0.0075512739
0.0075497065
2.6072811e-09
3.384513e-09
0.00071852384
1.6917971e-09
4.5409219e-05
1.6447398e-09
0.0025733379
0.002152925
0.0012420693
0.0020107576
1.4775962e-07
0.00097662018
0.00060200233
0.0037683097
2.2731566e-08
8.8391764e-10
8.8385875e-10
0.003334174
0.00076964636
0.00013959569
0.010028144
0.021880786
0.0056107683
0.0098498123
0.0040379113
1.6308901e-09
3.1620455e-05
0.0015341108
8.9642378e-10
8.8414709e-10
1.1099438e-09
0.013523496
0.0078729721
1.1690974e-08
0.0083107296
0.0054907759
9.230218e-07
0.0022380353
0.0027068944
0.0045762336
5.0764259e-08
0.0030382671
3.1433459e-05
5.062135e-08
5.8181279e-05
2.138397e-08
0.00025391699
0.0012236192
0.0015481168
3.3445697e-05
1.1885894e-10
2.9283613e-10
1.1886039e-10
0.00016773406
9.3628931e-05
7.0679072e-09
5.9293401e-08
6.1372486e-08
0.00028837317
1.9206742e-07
0.00041113719
5.0350471e-06
1.1617518e-05
1.7419386e-07
2.1640042e-08
5.2703638e-09
0.0001281261
1.1561342e-08
0.0011038357
6.0172689e-06
0.00019023618
0.00075233796
0.00043307644
0.0071608265
0.0034181125
3.5243889e-09
0.0010711148
0.0029300712
1.6217609e-09
2.1706283e-09
1.6377858e-09
0.00037734579
0.0025987279
0.0025938225
0.0025896838
1.1168014e-09
7.2800282e-10
0.001778355
0.0010199566
1.9145789e-09
1.4155725e-09
8.8374987e-10
0.0067996325
0.00024581165
0.007767492
0.021880786
0.021880786
0.021880786
0.021789408
0.0037310221
1.1880164e-09
0.0023125661
0.00018930827
1.2986657e-09
8.8414717e-10
0.0071413891
0.0057814932
0.0044417551
0.00016630372
0.00019884621
0.0067199583
0.00031792686
0.0096159877
2.2304325e-08
2.2133204e-08
0.00085211169
0.0044521305
3.5379875e-09
2.6342817e-06
0.00023735281
0.00011465597
0.00069725429
0.00026726069
6.8906549e-07
7.9721066e-05
1.1888598e-10
2.4879146e-10
1.1895477e-10
9.0720167e-06
0.00011333437
5.1351696e-06
5.7609163e-08
8.5177421e-08
3.4372274e-08
8.2201295e-07
0.00028505728
1.9569946e-06
3.0754535e-06
3.074661e-06
1.0289262e-06
5.2672355e-09
0.0001286515
1.2014212e-08
0.0005977941
0.00087463121
8.774411e-08
0.00075111019
4.4472819e-06
7.2406422e-09
8.0591268e-09
0.00038286362
0.0029301368
0.0029301114
1.6217663e-09
1.1006822e-07
1.0271926e-08
1.2532615e-09
0.00051986763
8.551968e-10
8.9680945e-10
0.00062279181
3.4195351e-10
2.0493294e-10
2.0492899e-10
0.00039664203
0.0035569434
9.6435059e-10
4.7376956e-05
7.8143042e-10
7.8104195e-10
0.00022861228
0.0026241342
0.0037675635
5.3051624e-10
5.1936297e-10
7.4364671e-10
4.980937e-10
6.6160647e-10
9.2422685e-10
1.1598462e-09
0.0013195313
1.959193e-09
1.7743101e-09
1.5413178e-09
1.5438412e-09
0.0053804844
0.0035294419
0.005973433
2.2398264e-08
0.00045051805
0.0026333572
0.0026364471
0.0026195854
2.3348955e-09
2.3562671e-09
0.0011465938
1.7036628e-10
1.8042853e-10
1.8828357e-05
7.7447472e-06
2.9448282e-10
7.6915457e-06
5.6504592e-10
1.2235762e-10
0.00011329606
1.2754332e-05
5.7668532e-08
2.8354542e-07
1.1218865e-07
2.3138543e-06
9.8373432e-07
2.6603199e-08
6.9687488e-09
5.551434e-09
5.2975225e-09
5.2680235e-09
4.8406298e-05
1.0341026e-07
1.2279836e-08
0.00031925993
1.3658296e-07
5.3631823e-09
5.3169105e-09
5.9916628e-09
1.0989904e-05
0.0012213442
0.0010205838
0.0019388111
2.1295533e-09
8.3531887e-07
1.8158619e-09
1.2531826e-09
1.3146449e-09
8.4188635e-10
5.4515396e-05
0.0010587991
1.1021164e-05
9.8939335e-09
2.0493064e-10
0.0039989165
0.0049055182
0.0025564156
1.4191207e-09
1.1038921e-09
1.0614589e-09
9.1296786e-10
5.0425117e-10
4.9967814e-10
5.5955811e-10
7.6813065e-10
2.699311e-06
5.056734e-10
0.00025579591
0.0022370739
0.011233832
0.015069901
0.0080264986
0.00095732577
1.784987e-09
1.5346449e-09
1.7108326e-09
1.2874919e-05
4.542894e-08
0.00066777013
0.0011843591
2.7302007e-08
2.7340699e-08
0.00073676785
0.00086669053
2.4308587e-09
0.00057196768
1.7050431e-10
3.9359125e-09
6.8041183e-08
6.4708371e-10
1.1840653e-05
5.1043356e-05
4.4873794e-05
1.913669e-10
0.00011323899
3.0588162e-05
5.9823716e-08
6.0037085e-08
6.2270161e-08
6.3980066e-05
0.00033616804
6.6506814e-09
7.1263998e-09
3.2226572e-07
1.8461657e-08
5.4430079e-09
6.5858411e-09
1.1675937e-07
6.5659377e-07
3.8419221e-08
3.970575e-08
2.3591765e-05
4.6108217e-09
7.9184771e-09
4.9980414e-07
6.2085357e-09
6.2757112e-09
6.2632179e-09
5.9277228e-05
2.6683932e-07
0.0017824113
0.00028648991
2.9906741e-06
1.3526695e-09
7.2285063e-10
2.0565956e-10
2.0667512e-10
8.4871524e-08
6.5863141e-10
6.6233947e-10
7.1617361e-10
2.3444303e-05
0.0012587481
0.002045732
0.00024667056
0.00011834541
1.28829e-05
7.5124181e-10
9.6006588e-10
0.00045373492
2.3173764e-05
5.4097901e-10
0.00023249605
0.0059788424
0.022618571
0.022618571
0.022560362
0.012975589
0.00096045989
1.7533842e-09
1.7438362e-09
1.9026748e-09
5.5431262e-07
4.3594231e-05
0.0001980422
0.0012359257
0.00086921012
6.1737173e-10
0.00030082521
1.5801373e-06
6.8324535e-10
1.9969326e-09
2.8442725e-09
8.0194068e-09
6.2223778e-10
2.2854029e-05
4.2494453e-05
4.558859e-05
2.6653398e-08
0.00010664788
5.3175357e-05
2.1460943e-07
8.3644577e-08
6.3737823e-08
1.0219389e-07
0.00033616817
6.6489153e-09
1.496833e-06
1.4950393e-06
1.0485923e-06
5.6344557e-09
1.8415601e-06
1.1727787e-07
2.1555161e-07
3.744499e-08
0.0011337641
0.00036360816
0.00080718973
4.337749e-09
4.3453661e-09
2.685467e-05
7.246268e-05
2.5701897e-05
0.0011991981
0.00012875492
0.0062808461
0.001404566
9.5295127e-06
0.0042476915
0.00054564521
2.0568197e-10
2.5513825e-10
1.4954601e-07
0.00027747515
2.979435e-05
0.00033580734
1.6506326e-06
0.007922
0.0079102548
0.0039062557
1.7088799e-09
1.3784913e-09
1.1174918e-09
0.015970736
0.0036066101
2.5144421e-09
1.5768402e-06
1.7306627e-09
1.6271347e-09
0.0025318009
0.00034296493
1.0051008e-07
0.016487124
0.0037933952
1.9943758e-09
1.7438352e-09
1.7544345e-09
1.753283e-09
1.9172206e-09
0.00044230015
0.0022998003
0.0022994959
4.4917369e-10
6.0555652e-10
9.559953e-08
5.1603749e-10
1.8628487e-09
5.2938259e-09
2.8601623e-09
4.3873809e-10
3.3814891e-10
1.2271695e-10
1.1704002e-10
2.2972797e-05
5.9802526e-05
2.5880729e-05
2.1313271e-07
8.6439171e-08
4.9621946e-06
4.3196239e-05
0.0003361663
6.6222825e-09
6.7924418e-09
4.8524491e-09
4.912045e-09
5.7369868e-09
1.0069558e-08
2.3653198e-06
1.5094633e-06
3.7447765e-08
0.0013003961
2.9362211e-07
0.0020725087
4.3616502e-09
0.00060595998
0.005910255
0.00022800334
1.716878e-05
0.0011293739
0.00092705158
0.0057421607
0.0062808464
9.6882549e-06
0.0057196355
0.001820393
6.0868417e-10
6.7445674e-10
2.1572494e-10
0.00049060008
0.00048255838
0.0013220083
1.6506078e-06
0.0032013129
1.5253495e-09
1.5024042e-09
1.7178558e-09
0.0046343467
0.019226117
0.019214516
0.00022928779
2.2782885e-09
0.00019888763
0.0014805589
0.00017259233
1.6068385e-05
4.0301356e-05
1.0066302e-07
0.005744696
0.0080011049
6.6444058e-05
0.00015844116
1.7634766e-09
0.0010439913
1.9095937e-09
1.9095939e-09
1.9704563e-09
0.0012831862
4.4917348e-10
4.4917668e-10
4.4948295e-10
4.494998e-10
1.6177407e-09
1.2389237e-08
1.0209728e-09
6.180659e-10
6.0176949e-05
8.072273e-07
2.1917365e-10
1.0680512e-10
1.0569603e-05
9.0060659e-06
4.3050272e-08
4.3393028e-08
0.00012795686
0.00030185824
0.00029089319
0.00029375269
5.856697e-09
5.9191356e-09
3.9655369e-08
2.5384839e-07
1.1145237e-08
8.5316796e-05
0.00011719185
5.7146934e-08
0.0013003988
2.3282558e-05
0.0013388238
0.0025293483
0.00048150666
0.0059020305
3.7348268e-05
2.8639546e-06
2.2695435e-09
2.2695432e-09
2.2695428e-09
0.0062807087
0.0038478752
0.00019574148
0.00078769546
0.00024830854
1.1134946e-09
1.8593275e-09
9.8534367e-10
1.4755842e-09
8.4795933e-07
0.0040412872
0.0018991351
1.7948473e-09
1.764857e-09
0.0013298312
0.02680297
0.02680297
0.00073138037
2.1044699e-09
2.1518803e-09
0.00014344067
0.0039120421
0.00036369781
0.00022197357
5.3241394e-05
0.00034477591
0.00012228508
0.0083625883
0.00061393625
8.0324629e-05
0.0077110266
0.004224897
1.9095937e-09
2.0733331e-09
0.0001046776
0.0010372574
4.4929635e-10
1.7409224e-05
5.7632054e-10
9.9517908e-06
1.6182552e-09
3.0443089e-08
8.5102588e-10
7.1393838e-05
9.3675552e-05
1.5108857e-06
1.1858594e-09
6.8570956e-09
1.7833707e-10
6.9042748e-07
4.3164749e-08
4.1546744e-08
4.1981959e-08
0.00030185108
3.1809018e-05
5.8290418e-05
6.3173731e-09
1.4069874e-05
7.9215076e-08
1.1145303e-05
2.7964188e-07
4.1996127e-08
0.0001171744
2.462382e-05
0.00079674196
0.00049056251
4.5087106e-06
0.001603649
8.0599508e-08
8.0187946e-08
8.0489764e-08
0.00033009099
2.7732746e-09
2.8729529e-09
2.9348863e-09
0.00042908521
0.0062807445
0.00095131208
0.0018469398
0.0017712731
0.00020721572
2.3819958e-09
5.5174967e-07
0.0014053221
0.00016151967
0.010106281
0.0013867467
0.0018117297
0.0019505949
0.021347073
0.0098521787
0.0057872974
0.00010422533
1.9368105e-09
5.7095462e-06
1.8885311e-09
1.5153552e-06
8.9742e-10
4.6880736e-06
2.7525277e-08
0.0033341161
0.01358143
5.0266456e-10
0.017035862
0.0015047425
0.0072328134
0.00011294189
7.3455569e-05
2.207326e-09
0.00013511259
0.0016906113
0.00036702785
7.2436287e-05
5.5263351e-05
7.1970906e-09
5.7330367e-09
9.1219946e-08
9.2731798e-10
9.3600224e-05
7.1453405e-05
5.1669888e-05
4.0351672e-08
1.3547804e-08
9.438897e-11
9.430628e-11
4.2819121e-08
4.2805901e-08
4.3376828e-08
1.8606781e-07
0.00030789267
2.3740733e-06
4.6027144e-05
4.5878871e-05
3.4781484e-09
1.1114145e-05
4.1200337e-08
4.1869551e-08
4.2029312e-08
0.00010496598
2.6706592e-09
2.6707228e-09
4.4541138e-06
4.508322e-06
0.00048224826
0.00028630118
3.9818678e-06
0.00062044823
0.0010192859
0.0018777022
3.005107e-09
3.2577369e-09
0.0039319777