/*--------------------------------*- C++ -*----------------------------------*\
| =========                 |                                                 |
| \\      /  F ield         | OpenFOAM: The Open Source CFD Toolbox           |
|  \\    /   O peration     | Version:  2.3.0                                 |
|   \\  /    A nd           | Web:      www.OpenFOAM.org                      |
|    \\/     M anipulation  |                                                 |
\*---------------------------------------------------------------------------*/
FoamFile
{
    version     2.0;
    format      ascii;
    class       volScalarField;
    location    "2.8e-05";
    object      k;
}
// * * * * * * * * * * * * * * * * * * * * * * * * * * * * * * * * * * * * * //

dimensions      [0 2 -2 0 0 0 0];

internalField   nonuniform List<scalar> 
7500
(
9.9982109e-06
1.0001553e-05
1.0000533e-05
1.000163e-05
1.0000633e-05
9.9982557e-06
9.9985697e-06
9.9973483e-06
9.9968571e-06
9.9970752e-06
9.9971149e-06
9.9975271e-06
9.9985774e-06
9.9999997e-06
1.0001145e-05
1.0002208e-05
1.0003084e-05
1.0004957e-05
1.0008692e-05
1.0013567e-05
1.0020285e-05
1.0026005e-05
1.003085e-05
1.0034776e-05
1.0039372e-05
1.0042774e-05
1.0045921e-05
1.0047932e-05
1.0051278e-05
1.0056804e-05
1.0066858e-05
1.0076914e-05
1.00875e-05
1.0094667e-05
1.0100357e-05
1.0104284e-05
1.0106408e-05
1.0107867e-05
1.0108799e-05
1.0109453e-05
1.0111241e-05
1.011354e-05
1.0117249e-05
1.0121539e-05
1.0130016e-05
1.0134068e-05
1.0141553e-05
1.014651e-05
1.0155515e-05
1.0165413e-05
1.0183667e-05
1.0194704e-05
1.0218374e-05
1.0234315e-05
1.0264504e-05
1.0290214e-05
1.0334419e-05
1.0371312e-05
1.042952e-05
1.0480307e-05
1.055244e-05
1.0610808e-05
1.0690762e-05
1.0747472e-05
1.083705e-05
1.0890235e-05
1.0989786e-05
1.1050042e-05
1.116625e-05
1.1236516e-05
1.1371612e-05
1.1454073e-05
1.1613424e-05
1.1707738e-05
1.1954437e-05
9.9993341e-06
9.9973169e-06
9.9969917e-06
9.9969404e-06
9.9962557e-06
9.9964905e-06
9.9967762e-06
9.9969078e-06
9.9973671e-06
9.9978579e-06
9.9983785e-06
9.9989959e-06
9.9999876e-06
1.0001374e-05
1.0003767e-05
1.0006211e-05
1.0010471e-05
1.001368e-05
1.0018799e-05
1.0023343e-05
1.0028712e-05
1.0033226e-05
1.003882e-05
1.0042475e-05
1.0046921e-05
1.0051241e-05
1.0055453e-05
1.0061816e-05
1.0066745e-05
1.0075099e-05
1.0080763e-05
1.0088791e-05
1.0095998e-05
1.0104246e-05
1.0111597e-05
1.011859e-05
1.012641e-05
1.0134069e-05
1.0145688e-05
1.0157806e-05
1.0178279e-05
1.019704e-05
1.0230007e-05
1.0257908e-05
1.0306393e-05
1.0348099e-05
1.0420515e-05
1.0483296e-05
1.0590911e-05
1.068309e-05
1.0840275e-05
1.0965635e-05
1.1178438e-05
1.13453e-05
1.163988e-05
1.1860092e-05
1.2251682e-05
1.2544382e-05
1.306011e-05
1.3433246e-05
1.4098059e-05
1.4525246e-05
1.5250814e-05
1.5747904e-05
1.6581029e-05
1.7127989e-05
1.8055858e-05
1.8685792e-05
1.9783698e-05
2.0515184e-05
2.1785033e-05
2.2622358e-05
2.4068271e-05
2.4980539e-05
2.7122862e-05
1.0002761e-05
1.0004885e-05
1.0011239e-05
1.0016197e-05
1.0024224e-05
1.0032946e-05
1.0042734e-05
1.0050949e-05
1.0061439e-05
1.0068521e-05
1.0078687e-05
1.0086248e-05
1.0097845e-05
1.0106295e-05
1.011998e-05
1.013042e-05
1.0148323e-05
1.0161102e-05
1.0183469e-05
1.0197933e-05
1.0222183e-05
1.0238424e-05
1.0259364e-05
1.0276305e-05
1.0291532e-05
1.0310749e-05
1.0324952e-05
1.0346693e-05
1.0363681e-05
1.0391979e-05
1.0415521e-05
1.0456829e-05
1.0492018e-05
1.0551452e-05
1.0610993e-05
1.0691512e-05
1.0809286e-05
1.092783e-05
1.1127565e-05
1.131867e-05
1.1652017e-05
1.1945679e-05
1.2462032e-05
1.2902519e-05
1.3668861e-05
1.4315352e-05
1.5419247e-05
1.634429e-05
1.7886403e-05
1.9187285e-05
2.1343679e-05
2.3067123e-05
2.5871323e-05
2.8096193e-05
3.1855975e-05
3.4697888e-05
3.9512728e-05
4.3139403e-05
4.9252783e-05
5.3775869e-05
6.147943e-05
6.6636949e-05
7.5111623e-05
8.1179197e-05
9.0954301e-05
9.7705743e-05
0.00010871858
0.00011644084
0.00012934483
0.00013824245
0.00015299158
0.00016291417
0.00017912105
0.00018963586
0.00021282854
1.0045336e-05
1.0074575e-05
1.0146463e-05
1.0188035e-05
1.0264465e-05
1.0316676e-05
1.0391236e-05
1.0433347e-05
1.0495376e-05
1.0528077e-05
1.0577298e-05
1.0604658e-05
1.0647511e-05
1.0675283e-05
1.0722959e-05
1.075429e-05
1.0811263e-05
1.084838e-05
1.0920083e-05
1.0964461e-05
1.1043304e-05
1.1100632e-05
1.1164026e-05
1.1226442e-05
1.1283023e-05
1.1364593e-05
1.1441331e-05
1.1569333e-05
1.1704598e-05
1.1948251e-05
1.2203992e-05
1.2681422e-05
1.3153924e-05
1.4037095e-05
1.4872012e-05
1.6254299e-05
1.8015871e-05
1.9877751e-05
2.309771e-05
2.5997765e-05
3.1034802e-05
3.5308135e-05
4.2854932e-05
4.9103566e-05
6.0032152e-05
6.8815072e-05
8.3887122e-05
9.5897103e-05
0.00011620166
0.00013248853
0.00015966545
0.00018049679
0.00021438972
0.0002405148
0.0002841146
0.00031649287
0.00037056656
0.00041025218
0.00047696045
0.00052493691
0.00060531905
0.00065901891
0.00074698195
0.00080851218
0.00090666111
0.0009746909
0.0010842908
0.0011607262
0.0012862799
0.001372911
0.0015143074
0.0016080697
0.0017582365
0.0018554702
0.0020631979
1.0269859e-05
1.044846e-05
1.0850602e-05
1.1100684e-05
1.1433299e-05
1.1672285e-05
1.1935569e-05
1.2062718e-05
1.2247501e-05
1.2316137e-05
1.2441606e-05
1.247874e-05
1.2554129e-05
1.2576161e-05
1.2625624e-05
1.2642781e-05
1.2702303e-05
1.2758921e-05
1.2896935e-05
1.3001479e-05
1.3203197e-05
1.3409294e-05
1.3630414e-05
1.4021316e-05
1.4462565e-05
1.5234538e-05
1.6151959e-05
1.7812652e-05
1.9711854e-05
2.3263939e-05
2.6966873e-05
3.3994273e-05
4.0688523e-05
5.3383348e-05
6.4745144e-05
8.5842051e-05
0.00010524563
0.0001321125
0.00017414553
0.00020896279
0.00027003414
0.00032054106
0.00040995285
0.000480331
0.00060381831
0.00069801215
0.00086175871
0.00098508857
0.0011989168
0.0013594468
0.0016327603
0.0018301576
0.0021575775
0.0023981206
0.0028009151
0.0030898564
0.0035719953
0.0039124428
0.0044920453
0.0048881287
0.0055511763
0.0059847211
0.0067025014
0.0071791378
0.0079465969
0.0084645748
0.0093011341
0.0098712298
0.010803919
0.011438098
0.012473195
0.013137972
0.014200569
0.014873516
0.016288743
1.0595349e-05
1.1162497e-05
1.2034672e-05
1.2594087e-05
1.3139234e-05
1.3507051e-05
1.3867803e-05
1.4054906e-05
1.4346031e-05
1.4442947e-05
1.4640261e-05
1.4689381e-05
1.4817126e-05
1.4861654e-05
1.4997355e-05
1.5098926e-05
1.5334992e-05
1.5553983e-05
1.6009654e-05
1.6593554e-05
1.7739237e-05
1.9346338e-05
2.1913548e-05
2.6547599e-05
3.2324881e-05
4.2958595e-05
5.5312635e-05
7.8334758e-05
0.00010296687
0.00014951849
0.00019482541
0.00028138987
0.00035856411
0.00050602009
0.00062904652
0.0008618936
0.0010502782
0.0013772742
0.0017322887
0.0020731539
0.0026744373
0.0031341151
0.0039372506
0.0045438837
0.0056067897
0.0063825067
0.0077435797
0.0087092171
0.010417842
0.011615453
0.013699007
0.015115616
0.017521575
0.019192462
0.022007618
0.023947353
0.027192088
0.029400139
0.033206034
0.035662254
0.039790847
0.042418424
0.046814622
0.049574602
0.054092681
0.057021801
0.061797059
0.064960689
0.070107373
0.07357614
0.079255348
0.082759692
0.088362252
0.091807857
0.098969951
1.0402557e-05
1.1040166e-05
1.1911334e-05
1.2467515e-05
1.3167258e-05
1.3598782e-05
1.4088737e-05
1.4349006e-05
1.4638054e-05
1.4737139e-05
1.4901964e-05
1.4989484e-05
1.5195808e-05
1.543376e-05
1.5889456e-05
1.66149e-05
1.7952427e-05
2.0302365e-05
2.4823442e-05
3.204068e-05
4.6254417e-05
6.5749575e-05
0.00010072697
0.00015423105
0.00022245853
0.00035010271
0.00048559767
0.00074245628
0.00099444944
0.0014741847
0.0019057467
0.0027355176
0.0034243275
0.0047459716
0.0057736073
0.007729037
0.0091997231
0.011982453
0.014028986
0.017436416
0.021241976
0.024417924
0.029775343
0.034070508
0.040758613
0.045767685
0.05421843
0.059943593
0.070155686
0.07689834
0.088828032
0.096585897
0.10970732
0.11871751
0.1331163
0.14325222
0.15959686
0.17048275
0.1892219
0.20072147
0.22009525
0.23219925
0.25245062
0.26464641
0.28481487
0.29746049
0.31814779
0.33194363
0.35330693
0.36849105
0.39188409
0.4064488
0.42899422
0.44272918
0.47074113
1.0019586e-05
1.0160917e-05
1.0464526e-05
1.0742218e-05
1.1328236e-05
1.1666175e-05
1.2235651e-05
1.2582911e-05
1.2849945e-05
1.3218299e-05
1.3568371e-05
1.4171686e-05
1.5310358e-05
1.7535999e-05
2.1925137e-05
3.0135174e-05
4.6199185e-05
7.4209484e-05
0.00013066569
0.0002123205
0.00037842381
0.00058147565
0.00098683864
0.0014292313
0.0021623062
0.0033140715
0.004490016
0.0067149255
0.008722701
0.012545212
0.015709607
0.021821883
0.026534577
0.035572207
0.042140682
0.054642881
0.063462668
0.080201582
0.091650315
0.11321706
0.12755312
0.15297386
0.17251986
0.20332948
0.22450297
0.26041547
0.29172685
0.32247066
0.36758715
0.39717942
0.44862966
0.48651937
0.5336895
0.58111303
0.63004497
0.67984531
0.73718444
0.78385232
0.8540697
0.89806318
0.97141512
1.017203
1.09235
1.1378627
1.2125022
1.2591554
1.3353858
1.3853613
1.4628782
1.5198776
1.6023912
1.6562958
1.7356697
1.7863416
1.8877502
1.0343692e-05
1.0813645e-05
1.1241823e-05
1.1428993e-05
1.1790979e-05
1.1888598e-05
1.2075028e-05
1.2406709e-05
1.3028788e-05
1.434852e-05
1.7068423e-05
2.2948744e-05
3.5038293e-05
5.9452089e-05
0.00010803859
0.00019736951
0.00038158547
0.00066423756
0.0012549936
0.002003422
0.0035592818
0.0052421509
0.0086625006
0.011961449
0.01853944
0.024816365
0.034231771
0.048317164
0.061199633
0.084458147
0.10245868
0.13713854
0.16182064
0.20890313
0.24119572
0.30256279
0.34354054
0.42074883
0.47081901
0.56515366
0.62498907
0.73707503
0.80735278
0.93773738
1.0190044
1.1659134
1.2641137
1.401439
1.555143
1.6800174
1.8491406
2.0068575
2.1560635
2.3517271
2.4884295
2.7032111
2.8574476
3.0691342
3.2809195
3.4619657
3.7081016
3.88669
4.1599587
4.336947
4.6122369
4.7899122
5.0698781
5.2594159
5.5568663
5.7663476
6.0828108
6.3057071
6.6356108
6.872405
7.3405339
1.0444402e-05
1.1043881e-05
1.2023262e-05
1.2423457e-05
1.3287985e-05
1.3712464e-05
1.459075e-05
1.6531525e-05
2.1252802e-05
3.2822654e-05
5.9015249e-05
0.00011712415
0.00023664672
0.00047683628
0.00095394269
0.0017716205
0.0034955554
0.0057881368
0.010653918
0.016094935
0.027441725
0.038389959
0.060713697
0.080201353
0.11983467
0.15158071
0.21551356
0.26346602
0.35041636
0.43940478
0.53089959
0.68059683
0.78216504
0.97387125
1.1004503
1.3395999
1.4936328
1.7811618
1.963563
2.3057434
2.5198611
2.9202045
3.1686527
3.6281799
3.9144385
4.4340157
4.7608153
5.3076235
5.8005959
6.2739026
6.8981073
7.4252742
7.9991354
8.6240089
9.1573484
9.9411523
10.518013
11.482988
12.224676
13.124092
14.012081
14.934688
16.035401
16.904802
17.968787
18.774641
19.95528
20.828056
22.211507
23.265384
24.987941
26.434116
28.646741
30.217816
33.082249
1.0267504e-05
1.0579843e-05
1.1378935e-05
1.1915469e-05
1.3153573e-05
1.5653909e-05
2.2374651e-05
3.9829674e-05
8.3940779e-05
0.00018939517
0.00042364067
0.00093356617
0.0019467092
0.0039790255
0.0078978727
0.013953862
0.026557193
0.041539029
0.073123288
0.10460177
0.16939931
0.22573874
0.33993122
0.43114007
0.61563738
0.75126035
1.0219584
1.2099546
1.5812755
1.8307869
2.2890643
2.6809121
3.11954
3.7517093
4.1962426
4.9937476
5.5242406
6.5085901
7.1504606
8.3498877
9.1141552
10.526852
11.419223
13.068481
14.168527
16.185359
17.486434
19.861303
21.483434
23.785343
26.116186
27.814536
30.457581
32.512976
35.743166
39.628242
42.765229
48.483538
52.560552
56.496257
60.595062
66.877288
71.740023
76.60171
81.518682
85.967363
93.05438
97.874635
109.44287
117.73696
137.21396
148.22647
167.32835
175.21221
190.44502
1.0716024e-05
1.1774772e-05
1.2583833e-05
1.4221927e-05
1.9224858e-05
3.6058249e-05
8.8148408e-05
0.00023363811
0.00059661892
0.0014513354
0.0032825222
0.0072744595
0.014608718
0.030039891
0.053686989
0.092635934
0.16208883
0.24367374
0.40115615
0.54875446
0.83620494
1.071662
1.5342279
1.8848287
2.5713205
3.0545958
3.9926366
4.6328984
5.8557761
6.6745865
8.2458075
9.3051318
11.306626
12.730041
14.870862
17.135503
19.454038
23.040402
25.631638
30.29727
33.386315
38.878847
42.572585
50.102393
55.479158
65.931393
71.252089
84.27099
90.793363
102.88048
109.2025
118.19575
135.07616
147.52007
181.14721
202.67652
218.89228
269.48119
271.6819
282.85823
315.48661
371.43266
380.32068
415.81423
433.86978
464.56554
512.35291
536.50363
616.79092
630.14853
646.65675
682.49053
718.54971
724.93012
744.25743
1.1877565e-05
1.3696102e-05
1.6351101e-05
2.6179143e-05
6.507867e-05
0.00020345715
0.00061939371
0.0017265749
0.0043530723
0.010350405
0.022544564
0.05041623
0.092602982
0.18754855
0.29658447
0.53527817
0.76906444
1.2173407
1.7455755
2.4079196
3.3619681
4.2642775
5.7752894
7.0047456
9.1163805
10.794711
13.625262
16.005613
19.481672
22.66887
28.068301
32.240036
39.69199
44.83949
53.634141
62.758708
76.302023
89.584426
103.38288
124.43522
138.52254
165.42891
184.14336
241.37933
268.85088
326.62281
339.76793
439.75888
448.87145
509.6632
522.88596
584.09095
664.15445
686.14482
811.21656
789.42607
832.81207
1047.0634
925.13817
856.33134
1048.5949
981.85076
869.25061
936.25362
865.18996
866.79987
795.65649
954.5184
832.78088
772.32789
627.88427
607.09534
509.76674
470.52272
384.64377
1.0766117e-05
1.411102e-05
2.7241365e-05
0.00010074617
0.00040303569
0.0014283712
0.0043291021
0.011621067
0.027899008
0.064916558
0.13363239
0.28940628
0.48718869
0.92439177
1.3699932
2.35132
3.193101
4.9809362
6.3617765
9.0287829
11.582547
14.887465
19.549176
23.32518
30.667358
36.280292
46.063725
54.939394
65.814478
85.216118
103.02234
126.19496
153.87878
179.53525
226.01499
292.56851
355.4788
407.30536
517.57165
570.98963
686.7753
744.26168
847.36199
906.99427
1081.1091
1014.5181
1084.4761
1230.9811
1071.9737
975.08021
944.8997
1015.5912
859.76197
885.53628
736.74252
636.58281
729.0177
503.71289
494.89802
451.22123
398.5103
251.63217
264.6738
202.52056
202.36822
154.84837
165.61234
231.41033
86.639809
88.354313
64.423455
57.764051
35.282334
30.350829
23.349275
1.0044646e-05
1.923396e-05
0.00011017386
0.00062906386
0.0027023053
0.0092221358
0.026593075
0.067736767
0.15376638
0.36043333
0.66933718
1.3502624
2.1318723
3.7413077
5.3298684
8.6616949
11.348588
17.036446
21.38151
30.515369
37.443916
51.182313
63.271809
79.705649
109.61671
130.71966
172.38969
203.75597
279.63153
379.88382
449.74551
587.39026
678.29542
857.43801
955.03262
1082.5441
1197.0728
1210.705
1408.9944
1244.2341
1337.696
1014.1878
1087.0142
855.81907
921.13995
592.57622
886.20481
312.19686
310.42065
181.62305
193.12219
142.25026
103.19121
177.16687
69.362187
74.503018
132.24144
46.026394
64.344533
97.108386
53.654022
17.698936
30.481107
27.440402
20.139749
16.480726
41.210005
23.732576
5.5914518
5.6624346
5.5413489
6.1889276
5.9434233
5.2247953
4.2130086
9.7169743e-06
7.569831e-05
0.00073497724
0.0041341255
0.01666655
0.05280956
0.14245823
0.34321443
0.7297334
1.6536332
2.8084083
5.2603423
8.0269664
12.871895
18.608882
28.410551
37.055853
55.816247
69.873453
103.37766
128.73402
184.98332
226.59616
330.15514
452.25951
545.2488
749.17244
887.62161
1136.9409
1254.1479
1316.5908
1480.4846
1438.341
1397.4963
1156.86
962.95716
970.06941
654.6579
520.1467
346.71125
245.177
144.23263
203.7056
129.42797
107.33365
77.364196
149.30391
24.376589
18.859256
17.836916
25.035612
19.90172
14.870077
15.989446
8.8771225
17.106896
29.631421
12.26927
20.850602
38.128996
16.951786
6.3462196
35.491331
22.718268
12.491783
12.245196
24.852701
6.5190539
3.0691873
2.8562831
2.9989693
4.1850868
4.9109946
5.3072858
4.7383228
8.557471e-06
0.00049528974
0.0047254312
0.024340979
0.089995423
0.26293977
0.66279633
1.5205247
2.9874097
6.3526449
10.127346
18.105919
26.702043
41.380168
63.280105
88.408877
123.44981
193.21207
242.8322
405.88805
508.14979
780.59912
929.23672
1257.1924
1327.4665
1411.0375
1561.241
1561.7377
1289.1166
1042.2914
807.01889
694.1684
438.7914
277.24769
163.34117
161.87282
142.9531
63.459104
42.340009
24.931219
16.904339
14.491105
23.759234
19.703642
19.029806
25.836385
24.104967
4.8552186
4.6807224
10.164411
9.997169
8.2678973
7.1681416
7.3559324
5.2547587
10.352987
12.945281
7.4000759
9.4837584
15.023479
8.0217359
5.6806834
8.606804
10.042843
13.440658
9.6337485
14.840686
3.7937407
2.9446158
2.7701472
2.8300066
3.8451123
4.7573549
5.4096134
4.5783082
6.9739245e-07
0.003173069
0.027170583
0.12633761
0.42338989
1.1367522
2.69048
5.6895552
10.757235
21.220944
32.95006
57.966723
84.500248
141.99414
210.01588
302.4274
486.94861
747.28876
953.92225
1409.2267
1465.8898
1787.4016
1626.0146
1404.8008
1001.1815
758.05139
570.60689
569.95092
162.23308
137.55643
96.243431
68.184143
34.048174
18.253405
13.607168
43.547793
14.037414
13.765654
9.7534119
6.1657085
4.5004278
4.5273373
9.4917259
7.2601384
13.08918
8.7851372
8.4947557
4.4966317
4.1730081
6.0859178
10.733105
7.4853501
5.2990297
5.4901471
4.5147904
7.7148135
7.8090569
5.9628691
8.7525159
7.3261384
6.3448686
7.1296665
14.444782
7.1382446
5.4190584
5.9036537
9.0790575
3.0934946
2.7680226
3.1336173
2.8893924
3.2386109
4.3250863
5.1074067
4.3539802
2.2421974e-05
0.017985222
0.13725201
0.57409709
1.7402724
4.3025924
9.7133554
18.58957
36.082143
65.014544
104.33744
187.44292
286.28858
536.69613
787.64189
1241.3653
1492.7865
1718.8916
1722.0815
1574.6952
1223.5782
711.87128
424.01131
218.88874
133.49034
113.65531
80.557413
60.235032
12.796622
15.671562
15.518393
6.0484831
5.4466817
2.6333294
3.2469992
15.170155
4.3951656
16.134596
11.913189
5.9001626
4.5559131
3.6372631
5.2394593
9.1250302
17.301197
9.969278
5.5243455
5.1727331
4.5875538
5.2144714
7.1451735
5.6793576
4.7118144
4.8301869
4.3738619
5.8643444
7.6753418
6.0142092
5.6385898
5.4804395
5.918967
10.093864
8.3234156
6.2087707
7.2697776
4.3753874
5.7302609
2.7137281
2.5550924
2.5412362
2.4682938
3.3544894
3.6433658
4.6674594
4.5393005
0.00064618271
0.094826053
0.61901517
2.2923089
6.2790936
14.410975
30.230805
58.592815
115.74026
201.37438
353.67424
694.39189
1114.6164
1657.4077
1917.5949
1856.6553
1500.74
884.58447
584.8021
339.63586
226.24283
69.74599
34.493735
22.445622
19.096907
29.803551
15.706454
5.7822693
5.5512188
5.5127848
3.1307302
1.6845292
3.6059253
1.4848192
1.5931135
9.1470199
1.9289753
3.6949293
11.406979
6.139978
4.0266145
3.2447475
4.7816401
5.1346112
6.7096281
9.8367589
5.490247
4.2413312
4.6517361
6.462986
5.1346394
8.5900721
5.2823073
3.9891948
4.3361949
6.1332636
6.9001084
6.1481609
4.7189302
4.6488534
7.5762963
7.8213307
9.6013715
9.2251997
7.0317977
3.5581497
3.8212803
2.6720477
2.6261209
2.5197712
2.470321
3.3751463
3.6191278
3.899845
3.8800269
0.0077756041
0.45018557
2.4872633
8.0798299
20.193239
44.121171
90.840389
186.74083
377.17886
720.4236
1399.8664
1826.3655
1973.7067
1784.7646
1076.1403
445.70583
246.17717
123.56659
102.33162
60.05377
48.731421
7.9091236
3.5566982
3.9748617
6.9267707
11.219222
5.0436187
3.4138746
3.6392445
3.374093
1.5751023
2.6827157
1.6557227
0.97631426
1.1280789
7.2106005
1.7690881
1.868248
12.183384
4.5831262
2.4216938
4.4058918
6.4473042
4.6018618
4.8034271
4.5737857
4.3403855
2.6503284
3.2635335
9.7193297
6.5617276
6.4559884
4.9858378
3.6403964
3.7202742
5.2319102
9.8177713
6.1943996
4.7038688
5.225778
10.514388
12.605008
13.064511
8.1229413
5.7384109
3.7541318
2.9059856
2.9398595
2.6950736
2.6821262
2.7170745
3.1355963
3.261856
3.7138828
3.6190064
0.060572139
1.9113031
8.8518504
25.380286
59.554361
129.78122
281.74899
647.01986
1443.1793
1802.5609
2095.6829
1595.5174
706.02157
382.84676
128.85194
43.815681
27.905448
21.086966
16.691544
7.3637374
5.8422387
2.5079418
1.5608628
2.3996235
6.3927131
6.2377904
6.2543743
5.4022458
3.7072517
2.8597796
1.4850476
3.7409971
1.5493825
0.90732896
1.3797415
4.8975463
1.8642764
1.6598679
2.4111145
2.4650784
2.1714101
3.8028632
5.5308119
4.7145538
4.8592693
4.4054026
4.1682163
2.5000022
2.9577078
18.112468
12.162349
7.5097745
5.1466491
3.4847561
3.6191559
5.3588518
9.1167218
4.2869059
4.8401608
16.069268
14.39341
13.589068
6.7238849
5.1077713
6.389754
3.8429664
2.6587318
2.5845305
2.6383435
2.7564635
3.1058237
3.4306807
3.2979803
3.2960789
3.7106768
0.37669047
7.260612
28.157726
72.817023
168.86636
391.73442
989.36705
1794.8657
2343.6402
1608.8645
721.36656
304.11698
103.47986
55.092227
9.7809017
3.7486753
3.1285677
4.8186032
4.4278552
2.193829
2.5893707
1.5183801
1.3223563
1.8710636
3.6780307
4.2627991
7.8927281
12.102025
4.2541554
2.8673146
1.9123296
1.8682863
1.392492
0.92230343
1.2297941
2.9969822
1.5143833
1.4987911
2.2621875
2.2852383
1.9154364
2.3140565
16.885862
8.7390154
5.0726626
4.2311625
3.2400046
2.3074007
3.932213
24.402766
11.204907
7.1795226
3.993505
3.1280938
3.7231095
5.5719703
6.8533154
4.018958
5.6549892
10.569529
10.15318
9.8372895
5.8823702
4.514013
6.563303
3.9742738
3.1984647
2.3088906
2.779836
2.8224934
3.4931357
3.7067277
3.7660187
3.7027273
4.5749353
1.999327
24.77523
81.602324
197.82381
492.89823
1343.3606
1933.9748
1868.3584
977.49423
334.03388
143.20157
33.573838
11.45285
5.0870483
1.428523
0.84816418
0.86244635
2.0438246
3.0073865
1.6866605
2.2512357
1.3657478
1.3196637
1.722291
4.6598924
8.7237215
4.4337319
19.488655
4.6886671
3.0464327
2.0892475
1.6193891
1.2733403
0.96779886
0.99231406
2.1342474
1.444297
1.5287086
5.0668042
2.2918455
1.3478353
2.5366126
39.656844
16.176232
5.3864227
2.9656385
2.7782023
2.3175444
4.7278536
7.1364148
10.266008
6.9309725
3.7198895
3.0598744
3.7669208
12.232955
7.7782406
4.3322613
5.0554046
8.4072306
7.7807961
8.8770176
5.6602933
4.5135918
4.1820849
3.8603536
3.2077232
1.9395715
3.2085338
3.3550874
3.6987233
3.6222117
3.8196118
4.5767065
4.8423045
9.3199929
76.888699
220.70637
540.23188
1608.4569
2145.4396
1411.3005
539.25717
192.6478
42.060039
17.666769
2.762928
1.5436395
1.1557536
1.0568438
0.62629258
0.60242286
1.1914063
1.8900919
1.4464269
2.0232698
1.372017
1.6259731
1.6422944
4.7103862
16.066646
3.1396541
20.872582
5.0100764
3.1083784
2.0955746
1.640616
1.3838947
1.0951894
0.98381399
1.7059146
1.400982
2.006425
5.5249279
1.3936443
1.275949
4.6474975
8.8333016
6.8681343
2.9097496
2.159317
2.2204862
2.4555626
3.4453936
7.6998845
7.910159
5.2093442
3.4128118
2.6675587
3.3246437
10.717707
7.3525621
4.2046959
5.298721
6.2941065
4.6449264
6.9825511
5.3003411
2.965457
4.7932027
2.1299089
2.6765329
2.1002372
3.8841999
4.7301964
3.9395237
3.9244168
4.5057823
4.8085519
4.2940548
39.043704
219.34497
582.07565
1610.4681
2204.7182
1163.8614
486.12799
136.44114
21.803548
4.2128151
2.3342361
0.67540311
0.56961138
0.92732079
1.0282544
0.60692736
0.56987687
0.90433627
1.4819764
1.442432
2.3987315
1.2930584
2.3245259
1.5798173
3.4905671
8.2486522
2.9358054
10.702611
4.2634181
2.9220066
2.297811
1.7771331
1.6337103
1.2957531
1.1260823
1.6165634
1.5548465
2.3703882
1.8871247
1.2148626
1.3983865
3.6015982
10.414358
4.8277224
2.4640592
2.5136563
2.3748493
2.5508767
2.8067625
10.826464
6.9454722
3.9487915
2.4223111
2.1986928
3.0125548
5.8029365
5.7858291
3.7172768
3.2024305
3.8864798
3.6893818
5.9653733
5.3895263
2.7626436
4.0470704
1.7568153
2.6776182
2.3292768
4.5678981
5.5666678
4.0780567
4.2401203
5.855104
4.8935946
3.7250946
150.46543
584.02161
1609.515
2119.3465
1069.7144
364.2881
119.96508
18.462349
2.2563751
0.84389904
0.5956308
0.59838541
0.5011852
1.0180074
1.0284789
0.59389473
0.57900452
0.75339255
1.2536395
1.3554622
2.7254234
1.322629
2.5247489
1.5009092
4.3315943
4.8896133
2.6929685
4.6166931
3.4860086
2.3206219
2.4453144
1.9761759
1.7943768
1.3289743
1.0348883
1.5835324
1.698352
2.0744493
1.4181403
1.3102428
1.5741334
3.9095831
2.8158614
4.026435
3.0995155
3.2100936
2.8474317
2.5831524
2.8187092
6.0973284
4.4423133
3.2588292
2.2291803
2.2363259
4.0145821
7.7396762
6.9579496
3.5576861
4.6449515
3.9264441
3.6197124
5.483292
5.0237504
2.3335641
2.6726115
1.849336
2.5761331
3.1433554
4.7410846
5.7026426
3.5756138
4.030509
5.8045402
4.1757134
3.5858498
486.49021
1555.9358
2544.0214
1312.6666
382.83659
75.926312
17.620093
2.5451445
1.1196179
0.71304577
0.40600553
0.63859176
0.52678283
0.99791681
1.0284828
0.5850848
0.59338699
0.72628104
1.16529
1.2757133
2.4380468
1.4029454
2.2084046
1.2243879
4.72198
4.2806459
2.5115356
4.6753354
3.4589924
2.3342753
2.2383076
2.2297034
1.9833881
1.2283358
0.92023437
1.5692822
1.5609235
1.7560625
1.362629
1.2753311
1.6865759
2.617068
1.6059355
6.6337828
4.2568909
5.3959478
4.5085013
2.6633286
2.7159092
3.7120032
2.9016158
2.4617359
2.0285771
3.2514133
4.433433
12.482812
6.823213
3.6096526
3.1988519
3.9998278
3.9015155
5.446702
4.1831195
2.5455265
2.905688
1.3073054
1.3921509
3.9233628
4.6773559
4.9964289
3.3544646
3.8794405
3.9275239
3.9779911
3.6014655
1458.373
3065.9699
2020.386
550.83593
81.148965
10.010417
2.3807151
1.0212064
1.2729065
0.76308972
0.40109041
0.69203216
0.48959544
0.88954386
1.0347968
0.58501045
0.61105025
0.70038168
1.1106122
1.2313299
2.0079915
1.3618601
1.3571588
1.2011652
2.4040682
1.9142706
1.941078
5.5870196
3.636941
3.3053345
2.0308884
2.9253086
2.0441052
1.0745647
0.96812171
1.500334
1.9550541
2.214334
1.2728339
1.4268441
1.6800196
1.3575751
1.4111099
6.5367695
4.1130526
5.5813783
5.6179607
2.6578014
3.4106343
3.3101607
2.6757999
2.404458
2.2013472
3.4215968
4.1313303
9.745695
5.873741
3.7531754
2.5655285
3.8049702
3.93291
5.4331881
3.9041604
3.4963758
2.7666537
1.0874716
1.2466153
4.8666791
4.2917069
4.2550501
3.3118347
4.142852
4.0271271
4.2142929
3.7169358
4172.7395
3251.1809
736.75458
113.986
9.4743764
1.3722235
0.69000599
0.81280102
1.183626
0.89989596
0.41518269
0.73589532
0.47739909
0.77439435
1.0335445
0.58103079
0.62057094
0.64347483
1.0282917
1.2028667
2.1433406
1.3239617
1.0903416
1.1186944
2.33699
1.5688063
1.6719171
3.3687329
3.9512893
8.1533328
3.182847
3.5162989
2.0364733
1.0406479
1.1388064
1.4391032
2.6397346
3.7543204
1.4685941
1.2677883
1.5273887
1.257915
1.470642
2.438361
3.3242211
2.8000191
3.0685587
2.4804181
3.2338696
3.4549195
2.8837326
2.1080431
2.3852946
3.1730838
4.1134124
8.9359576
5.6256765
4.0338486
3.453697
4.5447921
4.7251546
5.2515624
4.2182564
4.6755908
2.6441769
0.94892917
1.4577717
5.0293924
3.8919198
4.2510247
3.3290254
4.1503335
4.811836
4.869834
3.7622492
7824.0934
1569.9226
140.23266
14.206783
1.0877318
0.38005112
0.48576163
0.72162019
0.83894287
1.2466114
0.45862174
0.78673272
0.59794817
0.70967678
1.031882
0.56417124
0.61894846
0.59837198
0.96128628
1.2035621
2.1888992
1.240878
1.1461021
2.6162277
1.7566586
1.3793361
1.5212271
1.5481195
4.4792284
19.257697
3.53298
3.767444
1.7246746
1.0258326
1.0727886
1.4081623
1.7498853
4.7127727
2.2763408
1.8488003
1.3638576
1.6379842
1.5201061
1.7492038
2.3531618
2.1170015
1.8918369
2.9633904
2.3847323
4.7120836
3.450995
2.2621466
2.3253028
2.9149098
2.5314969
6.3756618
5.4036183
3.6235036
7.5098723
6.1043724
3.5336301
5.0957708
4.512431
4.4412974
1.5172736
0.84209387
2.0384411
3.8855231
3.3792274
3.8292107
3.6846538
3.8695527
5.7302567
5.1794104
3.4423847
1519.1223
246.96641
14.041086
1.5452546
0.32109326
0.26658095
0.45259446
0.61587683
0.789082
1.3359784
0.49532432
0.84362144
1.2983948
0.76565954
1.0090526
0.53916234
0.58796792
0.57777405
0.90491062
1.2371165
1.9849154
1.1565985
1.1496956
8.4925383
1.541117
1.0839722
1.2338621
1.3435842
4.5145453
13.506039
5.5572303
4.027622
1.3010495
1.0607472
1.298504
1.4175574
2.0443763
4.057453
3.0920094
3.1753314
1.6104839
1.6240454
1.53276
1.7753208
2.0518877
1.9766599
2.0285656
3.3586218
2.2201186
3.9361112
3.3895639
2.4409501
1.6607081
2.043094
2.1637394
5.8053125
4.9480512
3.5721041
11.882078
8.2262236
3.6633295
4.8178215
4.9781821
4.2437155
2.7937658
0.86642217
2.7004538
3.7313452
3.2365406
3.3016806
3.9663651
4.4266363
6.5975282
5.6310033
3.0420743
104.06788
20.770587
1.156861
0.33302421
0.26489785
0.25739341
0.43665356
0.5582528
0.83031236
1.1413793
0.50853544
0.94100702
3.3204902
1.0072584
0.9650038
0.49027707
0.55750926
0.58159578
0.87273412
1.2725339
1.9565869
1.1194567
0.87369456
4.7211391
1.1498542
0.94128667
1.053944
1.3716804
2.6630091
6.9447459
7.5175659
3.3844737
1.2329054
1.1801336
2.7941195
1.4971196
2.0117287
2.2475281
3.1062135
3.9593224
2.1346425
2.0961425
1.6134507
1.851763
2.1161094
2.1510922
3.9477262
3.5301359
2.2597066
3.3740339
3.014529
2.0715981
1.5375725
2.0795211
2.1418628
4.9181247
4.5720444
4.8541449
7.8518689
9.2970073
3.8437214
4.901041
8.6431449
4.8482937
2.5931675
1.0495569
2.9889263
3.8571255
3.1070722
3.3554073
4.250391
6.8012841
7.2383222
6.6789004
2.9302307
3.6518322
1.272314
0.323937
0.24433831
0.26291614
0.26186703
0.42365677
0.54626891
0.88674825
0.98235549
0.50385656
1.0486071
6.4394757
1.4247828
0.88746629
0.44579854
0.55639628
0.63463132
0.86049302
1.3218045
2.0174542
1.0938364
0.80450447
1.2752478
0.8921487
0.79305434
0.97362883
1.2036044
1.7613367
7.2897262
19.592831
1.7405505
1.322499
1.3028934
7.4662896
1.7929817
1.5992153
1.8247714
2.1760849
4.0557638
2.6208397
2.5119134
1.6951149
1.8972403
1.5726908
2.8414213
3.1883472
3.5065219
2.4991438
2.4139928
2.6077213
1.8927818
1.6077778
1.6534087
2.1461893
3.7568566
4.8335006
6.8604418
5.1646405
5.9094588
4.3145828
5.7443722
12.548139
3.1227579
2.0198385
1.0200024
3.0613623
4.1546725
2.9854416
3.2710445
4.8823243
9.0929999
7.1757186
7.0626685
3.2767772
0.65368035
0.40041713
0.29155317
0.24076453
0.27010542
0.26719551
0.41495225
0.55245094
0.91156451
1.0153008
0.50601019
1.1031996
7.6173755
1.4129693
0.82474693
0.43330713
0.56908106
0.75431007
0.81951667
1.4114612
2.0196204
1.0397282
0.67866198
1.4326301
0.94661368
0.75116431
1.0316035
1.1538691
1.575954
2.5430945
3.7398143
1.9186698
1.397217
1.4052772
10.242064
2.4925469
2.8897656
1.5837499
1.6765141
2.3827368
2.6517534
2.2237238
1.7664454
2.1456392
1.4865827
1.6931976
2.0322405
3.2461824
2.9768112
2.0564084
2.8177458
1.9557241
1.819417
1.6319366
2.3515402
3.8013567
6.4548139
6.7971071
4.4481608
4.3346712
5.4321313
6.1315116
6.7996152
1.6918502
1.9950143
0.94147872
2.9576377
3.3748451
3.007694
2.6437056
5.4620012
9.2051385
7.6416958
6.7651592
3.4389197
0.59493511
0.36925446
0.31318568
0.25085592
0.28182016
0.27299034
0.4101076
0.56720366
0.92934028
1.0272123
0.51882462
1.0601547
4.1848608
2.2762514
0.78574178
0.43396855
0.57012176
0.80606573
0.82984116
1.7351072
1.9662887
0.98595408
0.67431326
1.2878302
1.2471978
0.73458071
1.1459464
1.1960042
1.6156329
2.658234
1.7524109
1.2037038
1.3431217
1.5459489
5.8101627
2.5024598
2.2326446
1.6109947
1.5433311
1.5932746
2.0151136
1.8234016
1.8211337
2.7477442