/*--------------------------------*- C++ -*----------------------------------*\
| =========                 |                                                 |
| \\      /  F ield         | OpenFOAM: The Open Source CFD Toolbox           |
|  \\    /   O peration     | Version:  2.3.0                                 |
|   \\  /    A nd           | Web:      www.OpenFOAM.org                      |
|    \\/     M anipulation  |                                                 |
\*---------------------------------------------------------------------------*/
FoamFile
{
    version     2.0;
    format      ascii;
    class       volScalarField;
    location    "2.8e-05";
    object      nuSgs;
}
// * * * * * * * * * * * * * * * * * * * * * * * * * * * * * * * * * * * * * //

dimensions      [0 2 -1 0 0 0 0];

internalField   nonuniform List<scalar> 
7500
(
4.1403195e-10
4.1908757e-10
4.2400676e-10
4.2892523e-10
4.3375324e-10
4.3850489e-10
4.4326947e-10
4.4795422e-10
4.5260933e-10
4.5723486e-10
4.6181079e-10
4.6634984e-10
4.7085852e-10
4.7533093e-10
4.7975174e-10
4.8412546e-10
4.8844948e-10
4.9275283e-10
4.9705763e-10
5.0134688e-10
5.0563901e-10
5.0986284e-10
5.1402083e-10
5.1811138e-10
5.2217519e-10
5.261638e-10
5.301013e-10
5.3396408e-10
5.3781765e-10
5.416854e-10
5.4563215e-10
5.4953668e-10
5.5341345e-10
5.5715363e-10
5.608094e-10
5.6437201e-10
5.6783942e-10
5.7124285e-10
5.7458592e-10
5.8369948e-10
5.8733973e-10
5.9095251e-10
5.9456451e-10
5.9815186e-10
6.0182197e-10
6.053196e-10
6.0887853e-10
6.123204e-10
6.1584348e-10
6.1935329e-10
6.2307858e-10
6.2654402e-10
6.3035916e-10
6.3389789e-10
6.3784039e-10
6.4160726e-10
6.4591521e-10
6.4995996e-10
6.5463845e-10
6.5905055e-10
6.641004e-10
6.686837e-10
6.7391337e-10
6.7837618e-10
6.8384153e-10
6.881233e-10
6.9383389e-10
6.9826783e-10
7.0443214e-10
7.0910955e-10
7.1579299e-10
7.2077966e-10
7.2814245e-10
7.334224e-10
7.4341581e-10
4.5546072e-10
4.6089868e-10
4.6632484e-10
4.7170713e-10
4.7702413e-10
4.823128e-10
4.8755269e-10
4.9273878e-10
4.9788297e-10
5.0297804e-10
5.0802397e-10
5.130225e-10
5.179809e-10
5.2289995e-10
5.2779608e-10
5.3264454e-10
5.3749278e-10
5.4226435e-10
5.4703939e-10
5.517507e-10
5.5643676e-10
5.6105104e-10
5.6564751e-10
5.7014109e-10
5.7460863e-10
5.7902411e-10
5.8338802e-10
5.8776616e-10
5.9205439e-10
5.9639566e-10
6.0060973e-10
6.0484651e-10
6.0901115e-10
6.1315971e-10
6.1723351e-10
6.2124853e-10
6.2524117e-10
6.2918104e-10
6.3319668e-10
6.4360311e-10
6.4821191e-10
6.5272574e-10
6.5765543e-10
6.6238466e-10
6.6774249e-10
6.728462e-10
6.7891548e-10
6.8463959e-10
6.9179704e-10
6.9842067e-10
7.0713699e-10
7.1478242e-10
7.2523776e-10
7.3415978e-10
7.4715376e-10
7.576939e-10
7.736117e-10
7.8629783e-10
8.0581519e-10
8.2075755e-10
8.4436388e-10
8.605992e-10
8.8539882e-10
9.0327812e-10
9.304614e-10
9.4927819e-10
9.782788e-10
9.9882293e-10
1.0314114e-09
1.0539691e-09
1.0898035e-09
1.1142539e-09
1.1530585e-09
1.1784503e-09
1.2317645e-09
5.0109263e-10
5.0718041e-10
5.1332272e-10
5.1937735e-10
5.2546009e-10
5.315106e-10
5.3753931e-10
5.434757e-10
5.4942344e-10
5.5522763e-10
5.6106616e-10
5.6678158e-10
5.7256007e-10
5.7819912e-10
5.839382e-10
5.895343e-10
5.9529908e-10
6.0086554e-10
6.0666831e-10
6.1218878e-10
6.1795626e-10
6.2343519e-10
6.2900984e-10
6.3441458e-10
6.3971765e-10
6.4509638e-10
6.5026949e-10
6.5563156e-10
6.6079506e-10
6.6627213e-10
6.7155077e-10
6.7735805e-10
6.8292469e-10
6.8923996e-10
6.955211e-10
7.0245358e-10
7.1057677e-10
7.186929e-10
7.2944178e-10
7.4732334e-10
7.6290958e-10
7.7712662e-10
7.9844969e-10
8.1716698e-10
8.4589122e-10
8.7052094e-10
9.084382e-10
9.4034841e-10
9.8893158e-10
1.0295989e-09
1.0914673e-09
1.1403715e-09
1.2136455e-09
1.2708638e-09
1.3596398e-09
1.4255878e-09
1.5282217e-09
1.603955e-09
1.7213537e-09
1.806387e-09
1.9395795e-09
2.0276334e-09
2.1614176e-09
2.2559277e-09
2.3971595e-09
2.4939805e-09
2.6405728e-09
2.7426987e-09
2.9009845e-09
3.009564e-09
3.1768415e-09
3.2891778e-09
3.4601497e-09
3.5716038e-09
3.7954873e-09
5.5237372e-10
5.5983814e-10
5.6845566e-10
5.76195e-10
5.8489134e-10
5.9287109e-10
6.0146525e-10
6.0908949e-10
6.1726097e-10
6.2453307e-10
6.3225484e-10
6.392812e-10
6.4673063e-10
6.5367794e-10
6.6119121e-10
6.6815758e-10
6.7587902e-10
6.8293917e-10
6.910494e-10
6.9825749e-10
7.0652594e-10
7.1407084e-10
7.2177252e-10
7.2940446e-10
7.36807e-10
7.4498775e-10
7.5297458e-10
7.6261601e-10
7.7246838e-10
7.8586394e-10
7.9961696e-10
8.2053092e-10
8.4113103e-10
8.7447148e-10
9.0575315e-10
9.5274105e-10
1.0090968e-09
1.0662344e-09
1.1560263e-09
1.2458666e-09
1.3695872e-09
1.4696585e-09
1.6287192e-09
1.7535686e-09
1.9499927e-09
2.0994845e-09
2.3307953e-09
2.5055392e-09
2.7727045e-09
2.97607e-09
3.2837815e-09
3.5089491e-09
3.8430603e-09
4.0901465e-09
4.4665055e-09
4.7360589e-09
5.1480606e-09
5.4409315e-09
5.8923508e-09
6.2081662e-09
6.6946445e-09
7.0141249e-09
7.4977828e-09
7.8313885e-09
8.3253113e-09
8.664812e-09
9.1730092e-09
9.5253954e-09
1.0063088e-08
1.0432701e-08
1.0994146e-08
1.1367188e-08
1.192485e-08
1.2289175e-08
1.2999173e-08
6.053895e-10
6.1846529e-10
6.3817323e-10
6.5342887e-10
6.7114067e-10
6.8612879e-10
7.0185553e-10
7.1358961e-10
7.2703187e-10
7.3701663e-10
7.4868236e-10
7.5766186e-10
7.6776385e-10
7.7619073e-10
7.8541413e-10
7.9358103e-10
8.0302787e-10
8.1234274e-10
8.2422132e-10
8.3501104e-10
8.4890536e-10
8.6293236e-10
8.7743326e-10
8.9737278e-10
9.1887122e-10
9.5068366e-10
9.8664423e-10
1.0441847e-09
1.1068315e-09
1.2114486e-09
1.3139118e-09
1.4858824e-09
1.6371642e-09
1.8883351e-09
2.093851e-09
2.4271984e-09
2.705318e-09
3.0506909e-09
3.5248619e-09
3.885355e-09
4.4439302e-09
4.8709488e-09
5.5412207e-09
6.0329431e-09
6.8027868e-09
7.3552099e-09
8.2175435e-09
8.8334179e-09
9.7968089e-09
1.0486433e-08
1.1551082e-08
1.2290775e-08
1.3410689e-08
1.4206797e-08
1.542637e-08
1.6277847e-08
1.7581611e-08
1.8482661e-08
1.9891254e-08
2.0838852e-08
2.2300805e-08
2.325087e-08
2.4705232e-08
2.5669908e-08
2.7111982e-08
2.8088009e-08
2.9552865e-08
3.0555996e-08
3.2080926e-08
3.3124181e-08
3.4708514e-08
3.574024e-08
3.727862e-08
3.827324e-08
4.0177393e-08
6.4991104e-10
6.7618988e-10
7.1150172e-10
7.3738768e-10
7.6284746e-10
7.8318238e-10
8.033587e-10
8.1853795e-10
8.3677557e-10
8.4935877e-10
8.6489311e-10
8.7603552e-10
8.8949503e-10
9.0042734e-10
9.1409273e-10
9.267022e-10
9.4343435e-10
9.5965242e-10
9.8317269e-10
1.0105981e-09
1.054805e-09
1.1118029e-09
1.1940922e-09
1.3261058e-09
1.4762181e-09
1.7165543e-09
1.9644025e-09
2.3573174e-09
2.724897e-09
3.310157e-09
3.8085904e-09
4.612939e-09
5.2472497e-09
6.2805978e-09
7.0545977e-09
8.3179727e-09
9.248039e-09
1.0665039e-08
1.2043871e-08
1.326555e-08
1.5168055e-08
1.652825e-08
1.8645499e-08
2.0158226e-08
2.2532583e-08
2.4189075e-08
2.6805238e-08
2.8596942e-08
3.1459868e-08
3.3410388e-08
3.6488957e-08
3.8542685e-08
4.1724104e-08
4.390329e-08
4.7261764e-08
4.955698e-08
5.3077631e-08
5.5467827e-08
5.9239816e-08
6.1689514e-08
6.5473236e-08
6.7917031e-08
7.1677989e-08
7.4094016e-08
7.7740351e-08
8.0165429e-08
8.381197e-08
8.6291777e-08
9.0014973e-08
9.2588579e-08
9.6477667e-08
9.8972248e-08
1.0265903e-07
1.0503451e-07
1.0945636e-07
6.6937159e-10
6.9959946e-10
7.3701709e-10
7.6453685e-10
7.9642823e-10
8.202054e-10
8.4580264e-10
8.6455864e-10
8.8423802e-10
8.9820316e-10
9.1417583e-10
9.2777706e-10
9.4506034e-10
9.6335975e-10
9.8848989e-10
1.0219842e-09
1.0738639e-09
1.1541713e-09
1.2896038e-09
1.4802176e-09
1.7964853e-09
2.1631706e-09
2.7035913e-09
3.3775847e-09
4.0947468e-09
5.1845853e-09
6.1617129e-09
7.6874104e-09
8.9753926e-09
1.1022825e-08
1.2639884e-08
1.527087e-08
1.7226872e-08
2.0445535e-08
2.2731088e-08
2.6507249e-08
2.9143414e-08
3.3513807e-08
3.6535048e-08
4.1031702e-08
4.5617602e-08
4.9258823e-08
5.4777751e-08
5.9001575e-08
6.4973409e-08
6.9312418e-08
7.5939094e-08
8.0367265e-08
8.7500661e-08
9.2186518e-08
9.9694364e-08
1.0459174e-07
1.1214044e-07
1.1734519e-07
1.2498192e-07
1.3039673e-07
1.3841207e-07
1.4384996e-07
1.523791e-07
1.5778647e-07
1.66102e-07
1.714986e-07
1.7973952e-07
1.8496028e-07
1.9283344e-07
1.9803277e-07
2.0579016e-07
2.1120138e-07
2.1890831e-07
2.2458914e-07
2.3265434e-07
2.3799104e-07
2.455712e-07
2.5054391e-07
2.5944082e-07
6.7481914e-10
6.9005623e-10
7.1087868e-10
7.3091554e-10
7.6147763e-10
7.8373907e-10
8.1382597e-10
8.3657059e-10
8.5672928e-10
8.8034325e-10
9.0342696e-10
9.3497858e-10
9.8388663e-10
1.0658148e-09
1.2060272e-09
1.4305407e-09
1.7917129e-09
2.2965807e-09
3.0814044e-09
3.9709748e-09
5.3584987e-09
6.7126482e-09
8.8358604e-09
1.0742367e-08
1.3346193e-08
1.6686245e-08
1.9611508e-08
2.4213029e-08
2.7856664e-08
3.3717305e-08
3.8075295e-08
4.5278437e-08
5.0370396e-08
5.8828694e-08
6.4578937e-08
7.4157693e-08
8.058274e-08
9.1329914e-08
9.8417796e-08
1.1025418e-07
1.179412e-07
1.3015441e-07
1.3926771e-07
1.5232211e-07
1.6123444e-07
1.7491103e-07
1.8645022e-07
1.9740827e-07
2.1222736e-07
2.2211188e-07
2.376493e-07
2.4912334e-07
2.6262668e-07
2.7581255e-07
2.8901367e-07
3.0209733e-07
3.1651922e-07
3.2836803e-07
3.448135e-07
3.5567031e-07
3.7206296e-07
3.8291418e-07
3.9904923e-07
4.0954656e-07
4.2508688e-07
4.3553192e-07
4.5091417e-07
4.6168834e-07
4.7688706e-07
4.885707e-07
5.0418171e-07
5.1513359e-07
5.2990914e-07
5.4017726e-07
5.5793302e-07
6.9813739e-10
7.2552935e-10
7.5163126e-10
7.6977701e-10
7.9391196e-10
8.0921868e-10
8.2759719e-10
8.5104596e-10
8.8451664e-10
9.4117448e-10
1.0405498e-09
1.2227443e-09
1.5307753e-09
2.0197809e-09
2.7573432e-09
3.773331e-09
5.3109214e-09
7.0914161e-09
9.8627956e-09
1.2606272e-08
1.6994886e-08
2.0856725e-08
2.7107351e-08
3.2199805e-08
4.0516262e-08
4.7369144e-08
5.6210054e-08
6.7460899e-08
7.6684715e-08
9.0974707e-08
1.0117514e-07
1.1817193e-07
1.2957572e-07
1.4859002e-07
1.6112101e-07
1.8208174e-07
1.9574071e-07
2.1851468e-07
2.3314055e-07
2.5759743e-07
2.7315474e-07
2.9908222e-07
3.1555682e-07
3.4280536e-07
3.6016954e-07
3.8825395e-07
4.0737303e-07
4.3217174e-07
4.5864737e-07
4.8020906e-07
5.0745107e-07
5.3242695e-07
5.5575403e-07
5.8445849e-07
6.0532724e-07
6.3517663e-07
6.5740193e-07
6.8580089e-07
7.136705e-07
7.3779107e-07
7.6839171e-07
7.9158037e-07
8.2397057e-07
8.4641987e-07
8.7809436e-07
9.0013214e-07
9.3146035e-07
9.5416613e-07
9.8634036e-07
1.0103836e-06
1.04347e-06
1.0682058e-06
1.1016852e-06
1.1271186e-06
1.1709728e-06
7.0946725e-10
7.4224578e-10
7.8765135e-10
8.1400257e-10
8.5559285e-10
8.8304951e-10
9.2516158e-10
9.9989233e-10
1.1507843e-09
1.4512328e-09
1.9741321e-09
2.8206192e-09
4.0652349e-09
5.8495802e-09
8.384935e-09
1.1577624e-08
1.6473573e-08
2.1468302e-08
2.9490853e-08
3.6693574e-08
4.8492524e-08
5.8038337e-08
7.3841791e-08
8.5846066e-08
1.0612349e-07
1.206855e-07
1.4548137e-07
1.6259055e-07
1.8950292e-07
2.1442547e-07
2.3812318e-07
2.7234839e-07
2.948817e-07
3.3227992e-07
3.5664046e-07
3.9724989e-07
4.234178e-07
4.6667148e-07
4.944667e-07
5.4065357e-07
5.7022454e-07
6.1923352e-07
6.5061289e-07
7.0212691e-07
7.3542978e-07
7.8920663e-07
8.2446032e-07
8.7754298e-07
9.2469195e-07
9.6922841e-07
1.0241737e-06
1.0707103e-06
1.1196979e-06
1.1712642e-06
1.2158055e-06
1.2759549e-06
1.3218465e-06
1.39091e-06
1.4451352e-06
1.5076626e-06
1.5684212e-06
1.6300992e-06
1.700293e-06
1.7571981e-06
1.8233556e-06
1.8756817e-06
1.9459385e-06
2.0004032e-06
2.0784603e-06
2.140102e-06
2.2312015e-06
2.3084378e-06
2.4171528e-06
2.49688e-06
2.6274391e-06
7.0756492e-10
7.315119e-10
7.7233642e-10
8.0429986e-10
8.5966706e-10
9.536986e-10
1.1590982e-09
1.5716082e-09
2.317863e-09
3.5360016e-09
5.3693845e-09
8.0904225e-09
1.1855e-08
1.7193926e-08
2.4567697e-08
3.3110813e-08
4.6304255e-08
5.8689756e-08
7.8898091e-08
9.5590731e-08
1.2320139e-07
1.4400745e-07
1.7890014e-07
2.0392532e-07
2.4659665e-07
2.7561369e-07
3.2517964e-07
3.5786137e-07
4.136966e-07
4.5006085e-07
5.0872556e-07
5.5645228e-07
6.0659039e-07
6.7214289e-07
7.181395e-07
7.9133351e-07
8.4059731e-07
9.2138196e-07
9.7509798e-07
1.0637715e-06
1.1218532e-06
1.2168614e-06
1.2789973e-06
1.3806066e-06
1.4503522e-06
1.5637767e-06
1.6395189e-06
1.7622708e-06
1.8483123e-06
1.9610361e-06
2.0717947e-06
2.1554759e-06
2.2736609e-06
2.3677356e-06
2.5019876e-06
2.6548046e-06
2.7789168e-06
2.9811682e-06
3.1270757e-06
3.2658631e-06
3.4068088e-06
3.6047188e-06
3.7599176e-06
3.9124201e-06
4.0639401e-06
4.2018677e-06
4.4011459e-06
4.5438054e-06
4.8365057e-06
5.0491031e-06
5.4858498e-06
5.7380212e-06
6.1348871e-06
6.3167702e-06
6.6260963e-06
7.2392255e-10
7.7370134e-10
8.1514655e-10
8.827927e-10
1.04517e-09
1.4570215e-09
2.3180252e-09
3.83862e-09
6.2372769e-09
9.8884891e-09
1.5111614e-08
2.2852552e-08
3.2888087e-08
4.7880124e-08
6.4967112e-08
8.6593462e-08
1.1619711e-07
1.4448982e-07
1.8797399e-07
2.2286172e-07
2.7881015e-07
3.1980863e-07
3.8763355e-07
4.3514729e-07
5.1465205e-07
5.6788648e-07
6.5717304e-07
7.16407e-07
8.1494783e-07
8.8019018e-07
9.8953761e-07
1.0630529e-06
1.1848582e-06
1.2710163e-06
1.3885851e-06
1.5064492e-06
1.6219879e-06
1.7834502e-06
1.9002702e-06
2.0867939e-06
2.2123481e-06
2.4107902e-06
2.5470917e-06
2.7895248e-06
2.9630099e-06
3.2600809e-06
3.4201342e-06
3.7531382e-06
3.930464e-06
4.2208085e-06
4.3864168e-06
4.6026931e-06
4.9621724e-06
5.2291882e-06
5.8426036e-06
6.2306119e-06
6.5273949e-06
7.3003328e-06
7.3879064e-06
7.5970962e-06
8.0851141e-06
8.8395303e-06
9.0119596e-06
9.4931727e-06
9.7683632e-06
1.0181448e-05
1.0769085e-05
1.1098223e-05
1.1983243e-05
1.2196381e-05
1.2439903e-05
1.2866663e-05
1.3290797e-05
1.3438279e-05
1.3705618e-05
7.6051894e-10
8.3361186e-10
9.2928819e-10
1.1991339e-09
1.9272249e-09
3.4720868e-09
6.1702663e-09
1.0488466e-08
1.6949422e-08
2.6590001e-08
3.9911149e-08
6.0680405e-08
8.3584793e-08
1.2086194e-07
1.5438172e-07
2.1060848e-07
2.5627807e-07
3.2723798e-07
3.9759581e-07
4.7369541e-07
5.6764258e-07
6.481841e-07
7.646463e-07
8.5343706e-07
9.8649408e-07
1.0874411e-06
1.2373748e-06
1.3580245e-06
1.5168535e-06
1.6562397e-06
1.8651548e-06
2.0226747e-06
2.2705241e-06
2.4410586e-06
2.7000411e-06
2.9533776e-06
3.2924136e-06
3.606291e-06
3.9156359e-06
4.3413018e-06
4.628254e-06
5.1098838e-06
5.4459394e-06
6.2976231e-06
6.7120916e-06
7.4704336e-06
7.6927254e-06
8.835071e-06
9.0100201e-06
9.6898673e-06
9.9047047e-06
1.0563104e-05
1.1364532e-05
1.1653167e-05
1.278138e-05
1.2717259e-05
1.3173334e-05
1.4895324e-05
1.4117755e-05
1.3694323e-05
1.5277068e-05
1.490168e-05
1.4132598e-05
1.4782388e-05
1.4320689e-05
1.4444103e-05
1.3943772e-05
1.5387207e-05
1.4479306e-05
1.4046337e-05
1.275697e-05
1.2634205e-05
1.1659603e-05
1.1280651e-05
1.0270389e-05
7.2032988e-10
8.4279498e-10
1.1961075e-09
2.3483658e-09
4.7930445e-09
9.2034381e-09
1.6335351e-08
2.727537e-08
4.3051245e-08
6.6872158e-08
9.7664985e-08
1.4625063e-07
1.9302087e-07
2.7036611e-07
3.3459066e-07
4.4545888e-07
5.2738356e-07
6.6899061e-07
7.6767597e-07
9.2834936e-07
1.0670742e-06
1.2274107e-06
1.4266759e-06
1.5803491e-06
1.8372111e-06
2.0255386e-06
2.3129999e-06
2.5594011e-06
2.8377193e-06
3.2703655e-06
3.6412005e-06
4.0800209e-06
4.5605205e-06
4.9854784e-06
5.6602129e-06
6.5153428e-06
7.2647164e-06
7.8648595e-06
8.9653594e-06
9.5209925e-06
1.0555936e-05
1.1107358e-05
1.1977869e-05
1.2522313e-05
1.3813244e-05
1.3517991e-05
1.4117494e-05
1.5190912e-05
1.4315522e-05
1.3786049e-05
1.3701422e-05
1.4339537e-05
1.3317368e-05
1.3640738e-05
1.2555981e-05
1.1776927e-05
1.2715689e-05
1.0663118e-05
1.0661753e-05
1.0268353e-05
9.7323786e-06
7.7989158e-06
8.0652537e-06
7.1132612e-06
7.1686591e-06
6.3214152e-06
6.5896731e-06
7.8510617e-06
4.8414881e-06
4.9269861e-06
4.2393731e-06
4.0446976e-06
3.1847803e-06
2.9757487e-06
2.6292078e-06
6.9041386e-10
9.7760854e-10
2.392806e-09
5.8440583e-09
1.2373886e-08
2.3340476e-08
4.0450733e-08
6.5857429e-08
1.0117761e-07
1.5788692e-07
2.1921099e-07
3.1709419e-07
4.0563828e-07
5.4688389e-07
6.6407712e-07
8.6098546e-07
1.0019864e-06
1.2477979e-06
1.420397e-06
1.7237013e-06
1.9390363e-06
2.3016131e-06
2.5974232e-06
2.958279e-06
3.5195332e-06
3.8982314e-06
4.5394655e-06
5.0033459e-06
5.9410321e-06
7.0172599e-06
7.7359087e-06
8.9555426e-06
9.7466601e-06
1.1096475e-05
1.1856369e-05
1.2777563e-05
1.3598586e-05
1.3838484e-05
1.5103905e-05
1.4357607e-05
1.505702e-05
1.325816e-05
1.3878467e-05
1.244951e-05
1.305571e-05
1.0583435e-05
1.3079171e-05
7.8438477e-06
7.901986e-06
6.1057367e-06
6.3592672e-06
5.5119313e-06
4.7406063e-06
6.2717556e-06
3.9618285e-06
4.1448586e-06
5.5737581e-06
3.3186646e-06
3.9597353e-06
4.9084561e-06
3.6811248e-06
2.1329137e-06
2.8235381e-06
2.7021604e-06
2.3347497e-06
2.129901e-06
3.3961884e-06
2.5986274e-06
1.2716793e-06
1.2901017e-06
1.286474e-06
1.3703655e-06
1.353467e-06
1.2788814e-06
1.1572426e-06
6.7234622e-10
1.922798e-09
6.134987e-09
1.4889908e-08
3.057716e-08
5.5637485e-08
9.3361121e-08
1.4797923e-07
2.2023697e-07
3.3823716e-07
4.4950803e-07
6.2710439e-07
7.8933505e-07
1.0181084e-06
1.2464098e-06
1.5675285e-06
1.8215104e-06
2.2738897e-06
2.5869877e-06
3.1986667e-06
3.6273753e-06
4.4175293e-06
4.9657868e-06
6.0863184e-06
7.2312315e-06
8.0580698e-06
9.583754e-06
1.0582027e-05
1.2146079e-05
1.2934774e-05
1.3434917e-05
1.4439332e-05
1.4421973e-05
1.4402343e-05
1.3273335e-05
1.2264363e-05
1.2464273e-05
1.0366234e-05
9.3530043e-06
7.7281347e-06
6.5760178e-06
5.102922e-06
6.134597e-06
4.9457362e-06
4.5546357e-06
3.9098722e-06
5.4912908e-06
2.2429132e-06
1.9939655e-06
1.9596933e-06
2.3459833e-06
2.1132686e-06
1.8453413e-06
1.9328395e-06
1.4545329e-06
2.0390685e-06
2.7097715e-06
1.7604694e-06
2.3168316e-06
3.16252e-06
2.12833e-06
1.3142275e-06
3.136266e-06
2.5318377e-06
1.8941553e-06
1.891911e-06
2.7188123e-06
1.4044948e-06
9.7193349e-07
9.4555048e-07
9.7699483e-07
1.1637085e-06
1.2709447e-06
1.3319654e-06
1.2686716e-06
6.2353467e-10
4.8672518e-09
1.5414682e-08
3.5847003e-08
7.0581323e-08
1.2346488e-07
2.0049065e-07
3.1042362e-07
4.4456547e-07
6.6203761e-07
8.53231e-07
1.1639865e-06
1.4415925e-06
1.8294504e-06
2.3053736e-06
2.775714e-06
3.3398992e-06
4.2531926e-06
4.8519345e-06
6.3809935e-06
7.2605416e-06
9.1483875e-06
1.0144369e-05
1.1988707e-05
1.2513398e-05
1.3101196e-05
1.3990872e-05
1.4202847e-05
1.3094105e-05
1.1944901e-05
1.0660831e-05
1.0026485e-05
8.0820411e-06
6.511978e-06
5.0655605e-06
5.1095604e-06
4.864394e-06
3.2827289e-06
2.7154539e-06
2.1098058e-06
1.758735e-06
1.6482053e-06
2.1358292e-06
1.9680925e-06
1.9567948e-06
2.3064036e-06
2.2532069e-06
1.0226313e-06
1.0152616e-06
1.5125539e-06
1.5163488e-06
1.3937759e-06
1.3115316e-06
1.3425201e-06
1.1464427e-06
1.6256667e-06
1.8362293e-06
1.4022085e-06
1.6030975e-06
2.0374314e-06
1.5031895e-06
1.2770749e-06
1.5868255e-06
1.7301556e-06
2.0201008e-06
1.7259353e-06
2.1616076e-06
1.102723e-06
9.8014446e-07
9.5902855e-07
9.7777756e-07
1.1495547e-06
1.2895849e-06
1.3867756e-06
1.2864592e-06
1.7561818e-10
1.2172222e-08
3.6571171e-08
8.0908631e-08
1.5185737e-07
2.5494717e-07
4.0161834e-07
5.9767188e-07
8.4053447e-07
1.2068061e-06
1.5364294e-06
2.0810995e-06
2.5647825e-06
3.3922103e-06
4.2074198e-06
5.1471459e-06
6.6557153e-06
8.3990964e-06
9.6632732e-06
1.1956054e-05
1.2408911e-05
1.3939295e-05
1.3520878e-05
1.2777149e-05
1.0963325e-05
9.6933565e-06
8.543111e-06
8.6711455e-06
4.6970892e-06
4.3903135e-06
3.7267863e-06
3.1826255e-06
2.2813382e-06
1.6940275e-06
1.4830226e-06
2.6895183e-06
1.5476658e-06
1.5530711e-06
1.3244933e-06
1.0667511e-06
9.2304356e-07
9.374887e-07
1.3743396e-06
1.2167467e-06
1.6535654e-06
1.3709125e-06
1.3640043e-06
1.0039797e-06
9.7832797e-07
1.1949249e-06
1.6047172e-06
1.3550085e-06
1.152597e-06
1.1859303e-06
1.086975e-06
1.4359654e-06
1.459853e-06
1.2888881e-06
1.5775459e-06
1.4579156e-06
1.3703695e-06
1.4670531e-06
2.108656e-06
1.4967185e-06
1.3166081e-06
1.3872736e-06
1.7365482e-06
1.0230914e-06
9.7669094e-07
1.0486679e-06
1.0160656e-06
1.0853326e-06
1.2653425e-06
1.3870786e-06
1.2918074e-06
9.8103106e-10
2.8593503e-08
8.1218453e-08
1.7065525e-07
3.0502411e-07
4.9201183e-07
7.5785106e-07
1.074095e-06
1.5321377e-06
2.1044998e-06
2.7265701e-06
3.7355674e-06
4.7166408e-06
6.5947296e-06
8.1545806e-06
1.0444861e-05
1.1681174e-05
1.2778311e-05
1.3033811e-05
1.2696343e-05
1.139669e-05
8.8490894e-06
6.9499165e-06
5.079943e-06
4.0345626e-06
3.7849802e-06
3.2388877e-06
2.8459251e-06
1.3325626e-06
1.4977048e-06
1.5132692e-06
9.5903583e-07
9.2362483e-07
6.5163218e-07
7.3403472e-07
1.6091782e-06
8.7829644e-07
1.7060439e-06
1.4859306e-06
1.059761e-06
9.4357274e-07
8.5410097e-07
1.0383022e-06
1.3876595e-06
1.9347168e-06
1.4868083e-06
1.1203128e-06
1.0971558e-06
1.0455469e-06
1.1278195e-06
1.3355516e-06
1.2043799e-06
1.1094527e-06
1.1358998e-06
1.0928932e-06
1.2793436e-06
1.4794657e-06
1.3236444e-06
1.2952153e-06
1.2902942e-06
1.3548123e-06
1.787359e-06
1.639508e-06
1.4302073e-06
1.5629492e-06
1.2244364e-06
1.4148661e-06
9.830345e-07
9.6295166e-07
9.6938928e-07
9.6429152e-07
1.1345348e-06
1.1931962e-06
1.3627574e-06
1.3559795e-06
5.1818641e-09
6.4704288e-08
1.7023955e-07
3.370501e-07
5.7343856e-07
8.9232003e-07
1.3265078e-06
1.8941407e-06
2.7286541e-06
3.6868139e-06
5.0018955e-06
7.1708908e-06
9.2904687e-06
1.1579003e-05
1.2723435e-05
1.2783759e-05
1.1730573e-05
9.1880762e-06
7.61852e-06
5.9185353e-06
4.9223576e-06
2.7839862e-06
1.9936491e-06
1.6370834e-06
1.5366445e-06
1.9528929e-06
1.4418048e-06
8.8943552e-07
8.8580198e-07
8.969918e-07
6.8671007e-07
5.1159742e-07
7.6002914e-07
4.9509565e-07
5.2048343e-07
1.2654891e-06
5.8955406e-07
8.275886e-07
1.4745513e-06
1.0968208e-06
9.003615e-07
8.191269e-07
1.0075913e-06
1.0578121e-06
1.2248653e-06
1.5020241e-06
1.1362869e-06
1.0111496e-06
1.0719561e-06
1.278868e-06
1.153559e-06
1.5097207e-06
1.1977399e-06
1.0528981e-06
1.1102814e-06
1.3353731e-06
1.4322125e-06
1.366849e-06
1.2105566e-06
1.2145061e-06
1.5669962e-06
1.6089507e-06
1.8012889e-06
1.7839031e-06
1.5733905e-06
1.1305497e-06
1.1833452e-06
9.9934304e-07
1.0004429e-06
9.8949976e-07
9.8916934e-07
1.1672354e-06
1.2200915e-06
1.2783605e-06
1.286909e-06
1.7666469e-08
1.3879413e-07
3.3648105e-07
6.2487044e-07
1.0168926e-06
1.5459637e-06
2.2796238e-06
3.3562708e-06
4.8945186e-06
6.9363714e-06
9.9083901e-06
1.1590692e-05
1.2332767e-05
1.1997038e-05
9.5247736e-06
6.2641787e-06
4.7552874e-06
3.4396858e-06
3.1944763e-06
2.4963796e-06
2.2930714e-06
9.4163734e-07
6.4341326e-07
6.9282144e-07
9.3126265e-07
1.2064041e-06
8.2309631e-07
6.8887391e-07
7.2332083e-07
7.080936e-07
4.9173925e-07
6.5211123e-07
5.2044074e-07
4.0588993e-07
4.430119e-07
1.1370067e-06
5.7159208e-07
5.9603035e-07
1.5441269e-06
9.6059155e-07
7.0809218e-07
9.6835669e-07
1.1874465e-06
1.0167608e-06
1.0526338e-06
1.0406723e-06
1.0269312e-06
8.1274952e-07
9.1329483e-07
1.5957959e-06
1.3273772e-06
1.332687e-06
1.1852621e-06
1.0248416e-06
1.0482066e-06
1.2574999e-06
1.74239e-06
1.3997279e-06
1.2334513e-06
1.3145185e-06
1.885071e-06
2.0864142e-06
2.146934e-06
1.7108929e-06
1.4531418e-06
1.1875882e-06
1.0556276e-06
1.0725931e-06
1.0373384e-06
1.0451889e-06
1.0623888e-06
1.1524671e-06
1.1868498e-06
1.2785926e-06
1.2741722e-06
4.8412834e-08
2.8128679e-07
6.2537432e-07
1.0927647e-06
1.725608e-06
2.6234973e-06
3.9774545e-06
6.1967937e-06
9.5073586e-06
1.0907215e-05
1.2064158e-05
1.0791043e-05
7.354084e-06
5.5447477e-06
3.2917004e-06
1.9631929e-06
1.6015669e-06
1.4224906e-06
1.2925024e-06
8.7635662e-07
7.9650082e-07
5.3228493e-07
4.2814212e-07
5.4104752e-07
8.9972385e-07
9.0518074e-07
9.228292e-07
8.7294638e-07
7.3580713e-07
6.5737487e-07
4.8172777e-07
7.7730224e-07
5.0842208e-07
3.9533406e-07
4.9523241e-07
9.4759517e-07
5.9362257e-07
5.6861086e-07
6.9552842e-07
7.136022e-07
6.7944858e-07
9.1200765e-07
1.1153473e-06
1.0440612e-06
1.0744863e-06
1.0369072e-06
1.0220634e-06
8.0196349e-07
8.8363242e-07
2.2147373e-06
1.8378628e-06
1.4622512e-06
1.2254905e-06
1.0207267e-06
1.0527871e-06
1.2963608e-06
1.7108162e-06
1.1868402e-06
1.2756454e-06
2.3508386e-06
2.2499732e-06
2.2105907e-06
1.5721357e-06
1.385197e-06
1.5660455e-06
1.227478e-06
1.0317831e-06
1.0279365e-06
1.0493491e-06
1.0835894e-06
1.1618971e-06
1.2334377e-06
1.2213973e-06
1.2330946e-06
1.3211388e-06
1.1843296e-07
5.3880691e-07
1.0980675e-06
1.8251316e-06
2.8694669e-06
4.5073153e-06
7.3801607e-06
1.0232209e-05
1.2025198e-05
1.0238826e-05
7.0401742e-06
4.6906297e-06
2.8057697e-06
2.0980041e-06
9.0536999e-07
5.7372381e-07
5.3620181e-07
6.8042972e-07
6.6661158e-07
4.7932168e-07
5.3171336e-07
4.1556528e-07
3.9565211e-07
4.7995762e-07
6.859963e-07
7.5259212e-07
1.0432123e-06
1.3154962e-06
7.9401488e-07
6.6341632e-07
5.5122169e-07
5.5416311e-07
4.8647672e-07
4.0247174e-07
4.7231777e-07
7.4915262e-07
5.4094153e-07
5.4651808e-07
6.8171119e-07
6.9551676e-07
6.4623123e-07
7.2071327e-07
1.9750154e-06
1.4410792e-06
1.1133689e-06
1.0309428e-06
9.1449743e-07
7.8216711e-07
1.0346903e-06
2.6115155e-06
1.7926178e-06
1.4533591e-06
1.0976822e-06
9.8366723e-07
1.0864409e-06
1.3453648e-06
1.5101065e-06
1.1702429e-06
1.4045562e-06
1.9426663e-06
1.9260303e-06
1.9175081e-06
1.4995467e-06
1.3283045e-06
1.6194186e-06
1.2739686e-06
1.155271e-06
9.920885e-07
1.1001383e-06
1.1202047e-06
1.259178e-06
1.3104766e-06
1.334402e-06
1.3365204e-06
1.500497e-06
2.6744531e-07
9.7749292e-07
1.8391507e-06
2.9646342e-06
4.8387005e-06
8.2501012e-06
1.0212524e-05
1.0345402e-05
7.7051021e-06
4.6338451e-06
3.118817e-06
1.5511458e-06
9.2988881e-07
6.3567196e-07
3.4529456e-07
2.7256312e-07
2.8139926e-07
4.4327156e-07
5.4992932e-07
4.2099228e-07
4.9695001e-07
3.9530524e-07
3.9667596e-07
4.6241762e-07
7.7584221e-07
1.0823688e-06
7.8648269e-07
1.6800527e-06
8.3933909e-07
6.8888719e-07
5.8069863e-07
5.2024017e-07
4.6929557e-07
4.1609321e-07
4.2837938e-07
6.3858436e-07
5.3383346e-07
5.5797512e-07
1.0317896e-06
7.0467399e-07
5.486412e-07
7.6397189e-07
3.0654789e-06
1.9864526e-06
1.1627969e-06
8.7507071e-07
8.588454e-07
7.952743e-07
1.1514041e-06
1.4336847e-06
1.7424458e-06
1.4505386e-06
1.0764693e-06
9.8883829e-07
1.1110604e-06
2.0272944e-06
1.6365744e-06
1.236332e-06
1.3516949e-06
1.7639721e-06
1.717057e-06
1.8554871e-06
1.4987908e-06
1.3537129e-06
1.3178122e-06
1.2802988e-06
1.1800135e-06
9.276482e-07
1.2060845e-06
1.2465895e-06
1.3228137e-06
1.3228662e-06
1.3726213e-06
1.5180518e-06
1.5774756e-06
5.6559674e-07
1.6901645e-06
2.9742489e-06
4.8258174e-06
8.6236591e-06
1.0301381e-05
8.6314751e-06
5.5060074e-06
3.392687e-06
1.6327101e-06
1.0888846e-06
4.4274943e-07
3.4000003e-07
3.0203286e-07
2.9630805e-07
2.3386253e-07
2.3501162e-07
3.3844002e-07
4.3628046e-07
3.9040584e-07
4.720857e-07
3.9727559e-07
4.4176239e-07
4.5330236e-07
7.8350145e-07
1.4762148e-06
6.6548263e-07
1.7491737e-06
8.7329816e-07
7.0073723e-07
5.8592987e-07
5.2779657e-07
4.9334618e-07
4.4653431e-07
4.3048093e-07
5.7642753e-07
5.3105121e-07
6.4591418e-07
1.0890872e-06
5.5565785e-07
5.399825e-07
1.0464215e-06
1.4645293e-06
1.310701e-06
8.6570643e-07
7.5661182e-07
7.7826404e-07
8.3001264e-07
9.9690873e-07
1.5108715e-06
1.5522161e-06
1.2765915e-06
1.0469985e-06
9.3779248e-07
1.060509e-06
1.9284955e-06
1.6175153e-06
1.2384964e-06
1.407505e-06
1.5527746e-06
1.3500477e-06
1.6750502e-06
1.4766507e-06
1.1174345e-06
1.4370969e-06
9.68943e-07
1.0984932e-06
9.8398513e-07
1.3530049e-06
1.5095045e-06
1.3925662e-06
1.4048653e-06
1.5213889e-06
1.5882763e-06
1.5166072e-06
1.1331993e-06
2.8004225e-06
4.7475198e-06
8.2042016e-06
9.957543e-06
7.4943021e-06
5.0107216e-06
2.7429965e-06
1.1317895e-06
5.1297224e-07
3.9334375e-07
2.1776474e-07
2.0565538e-07
2.6963187e-07
2.9153648e-07
2.2982462e-07
2.2836011e-07
2.9479998e-07
3.8651037e-07
3.9032324e-07
5.149605e-07
3.8661587e-07
5.2980577e-07
4.462032e-07
6.7727758e-07
1.0627169e-06
6.4687859e-07
1.259708e-06
8.1060527e-07
6.8394692e-07
6.179341e-07
5.5348472e-07
5.4032687e-07
4.8980278e-07
4.6463153e-07
5.6631794e-07
5.6484477e-07
7.0909032e-07
6.4311321e-07
5.2437076e-07
5.7157351e-07
9.3172736e-07
1.6089495e-06
1.1122116e-06
8.0656604e-07
8.2675358e-07
8.1538586e-07
8.5728969e-07
9.1209796e-07
1.8165948e-06
1.4752451e-06
1.1276348e-06
8.9516058e-07
8.6426374e-07
1.0250376e-06
1.4412407e-06
1.4577042e-06
1.1833368e-06
1.1121977e-06
1.2405234e-06
1.2235678e-06
1.5748376e-06
1.5149581e-06
1.0975897e-06
1.3441427e-06
8.959461e-07
1.1188826e-06
1.0555063e-06
1.4948525e-06
1.668701e-06
1.4441095e-06
1.488703e-06
1.7684208e-06
1.6341293e-06
1.4409565e-06
2.1763829e-06
4.480598e-06
7.75652e-06
9.2641035e-06
6.8388398e-06
4.1404441e-06
2.4615878e-06
9.9915445e-07
3.6097556e-07
2.2788775e-07
1.9743441e-07
2.0387734e-07
1.9205908e-07
2.8151804e-07
2.9079275e-07
2.2692169e-07
2.2993036e-07
2.6897721e-07
3.5560792e-07
3.7875112e-07
5.4980686e-07
3.9189068e-07
5.5371792e-07
4.3639659e-07
7.5744881e-07
8.2186669e-07
6.2263308e-07
8.3187851e-07
7.3734224e-07
6.1341861e-07
6.4182659e-07
5.8790945e-07
5.7063584e-07
5.000664e-07
4.4921148e-07
5.6548955e-07
5.9581124e-07
6.6974721e-07
5.6307821e-07
5.5020353e-07
6.1291313e-07
9.8145376e-07
8.4612735e-07
1.0275856e-06
9.1545556e-07
9.4577926e-07
9.0408397e-07
8.7381896e-07
9.2608649e-07
1.3816376e-06
1.196044e-06
1.0387569e-06
8.7100524e-07
8.8431547e-07
1.200825e-06
1.6895497e-06
1.6230512e-06
1.1756852e-06
1.3606572e-06
1.2669095e-06
1.2317116e-06
1.534824e-06
1.4871645e-06
1.0258988e-06
1.1111075e-06
9.352651e-07
1.1168528e-06
1.248076e-06
1.5504733e-06
1.7198652e-06
1.3772518e-06
1.4786028e-06
1.7940802e-06
1.5383795e-06
1.4410833e-06
3.8266649e-06
7.1681449e-06
9.5782465e-06
7.1748611e-06
4.0331189e-06
1.8663519e-06
9.3281628e-07
3.6730931e-07
2.5207711e-07
2.0790404e-07
1.619562e-07
2.0947227e-07
1.9602004e-07
2.7772534e-07
2.8999399e-07
2.2479298e-07
2.3249096e-07
2.6396865e-07
3.429224e-07
3.6776085e-07
5.2079324e-07
4.0446253e-07
5.1925533e-07
3.9542676e-07
7.9382527e-07
7.7227982e-07
6.0416646e-07
8.4154665e-07
7.3868136e-07
6.1901582e-07
6.1811396e-07
6.288703e-07
6.0439677e-07
4.8452371e-07
4.2707744e-07
5.6777541e-07
5.7631234e-07
6.2194932e-07
5.5727916e-07
5.4825106e-07
6.4097902e-07
8.1154699e-07
6.459983e-07
1.3338537e-06
1.0852663e-06
1.2407707e-06
1.1514613e-06
8.9832165e-07
9.2061191e-07
1.0920394e-06
9.7946131e-07
9.150431e-07
8.4234987e-07
1.0812678e-06
1.2799535e-06
2.1768859e-06
1.6310207e-06
1.2020298e-06
1.1463859e-06
1.2984969e-06
1.2988539e-06
1.5540758e-06
1.3789773e-06
1.0890268e-06
1.1777677e-06
7.995634e-07
8.3499124e-07
1.4183674e-06
1.566852e-06
1.6382288e-06
1.3577599e-06
1.476772e-06