/*--------------------------------*- C++ -*----------------------------------*\
| =========                 |                                                 |
| \\      /  F ield         | OpenFOAM: The Open Source CFD Toolbox           |
|  \\    /   O peration     | Version:  2.3.0                                 |
|   \\  /    A nd           | Web:      www.OpenFOAM.org                      |
|    \\/     M anipulation  |                                                 |
\*---------------------------------------------------------------------------*/
FoamFile
{
    version     2.0;
    format      ascii;
    class       volScalarField;
    location    "2.8e-05";
    object      p;
}
// * * * * * * * * * * * * * * * * * * * * * * * * * * * * * * * * * * * * * //

dimensions      [1 -1 -2 0 0 0 0];

internalField   nonuniform List<scalar> 
7500
(
-7828.174
-8006.9849
-15319.149
-8738.7968
0.95678933
6790.3982
8149.0621
3980.3497
1847.7707
-1419.5337
3585.3514
-633.86046
5108.2145
-1585.3183
4666.3391
416.33995
2643.4864
1127.5722
-263.90436
1151.7319
-196.66778
3022.0687
1169.887
2679.285
-1048.5473
3843.9067
-3401.1249
4809.4046
-5416.556
5221.9925
-19.48453
5273.6859
2278.4691
1890.3116
4410.1442
562.64568
6823.1362
-1362.253
7418.6453
-1350.236
5403.4721
205.34402
3502.717
3809.8853
864.5843
4371.4695
-27.427344
4021.8733
-2392.2338
2998.1963
4006.9613
1638.2585
-4911.9168
-11155.261
5911.2393
12759.686
8325.3878
9282.9682
7624.8737
5486.454
18806.346
16740.206
-631.74375
3953.2741
10390.017
9439.5263
12222.951
10675.728
11922.187
16215.178
14620.999
13841.348
13808.836
9060.8546
634.2114
-8541.8663
-7985.4984
-13934.825
-8475.7498
-387.69639
5895.4911
8002.1914
4013.2196
2375.1205
-1547.8322
3666.8654
-703.315
4927.3441
-1256.4492
4231.6757
888.34274
2101.2543
1629.1856
-657.33883
1440.6158
-236.10594
2928.189
1238.6953
2530.8893
-731.84046
3361.0816
-2793.6384
3964.4679
-4535.8608
4680.214
207.15927
5298.5414
2020.8446
2174.2002
4154.9518
890.58243
6503.6757
-921.40535
6632.0051
-573.96081
5114.5374
317.02616
3228.273
3920.3799
1150.5228
3839.5987
516.93077
3287.4723
-1229.4099
2716.4452
3151.8856
1339.11
-4694.5542
-9554.607
4933.9511
12061.223
8842.0979
8801.3063
8565.9603
6538.3127
16937.062
15489.305
1545.3691
5067.4736
8686.4053
8552.9994
12991.209
11566.167
11770.541
15808.815
14915.567
13715.724
13374.032
9111.3169
744.75378
-9010.6996
-8489.7938
-12584.573
-7781.9183
-433.33626
4773.7428
7834.6404
3942.3498
2733.4062
-1236.5026
3243.4946
-160.53698
4184.8435
-617.47261
3706.1794
1304.9737
1743.8222
1887.7696
-902.0325
1592.2976
-164.56579
2640.6148
1876.0591
1610.1946
346.58292
2292.354
-2042.175
3304.7899
-4050.1885
4587.7033
213.87926
5201.3649
1946.477
2531.6103
3452.8586
2001.4734
5197.5837
263.97811
5672.6252
-53.881558
4969.5157
439.00351
3414.3074
3309.6326
1926.7234
3063.9385
1205.3899
2140.6483
-28.847366
3215.2072
2078.6267
614.47073
-4896.8557
-7200.1504
4227.7364
10856.501
9233.7201
8369.0862
9508.9711
8000.1657
15134.655
13440.292
3590.8326
6459.4342
7640.4072
7770.2685
12811.016
12460.414
11913.353
15537.198
15566.196
13397.123
12600.609
9106.1204
904.6272
-9497.1673
-9297.9129
-11059.012
-7040.3101
-182.16788
3797.2581
7248.1401
4094.8473
2700.0892
-597.10899
2814.1703
272.53395
3594.7478
-55.601776
3105.999
1922.8953
1184.6598
2288.1305
-1090.8208
1462.6708
254.35383
2041.7799
2699.7152
734.36949
1327.8639
1258.1793
-1235.3028
2279.6885
-3043.7685
4122.2612
368.78125
5232.667
1520.4475
3396.9966
2326.9764
3307.0448
3904.6648
1394.2733
4464.658
790.19531
4586.8846
734.87174
3799.482
2396.5829
2864.1066
2349.0941
1986.703
611.92688
1174.182
3883.9393
1339.0744
-343.65381
-5585.0187
-4426.7393
3805.872
9440.9903
9315.7616
8064.706
10560.445
9595.2565
13030.44
11231.808
6164.7728
7507.2086
6663.8741
7269.8823
12045.4
13602.256
12524.475
15055.154
16157.617
13009.541
11633.406
9033.5753
1150.8314
-10219.815
-10073.766
-9512.3253
-6178.717
72.919104
3106.6529
6369.4272
4226.2382
2757.6372
-123.23831
2636.9997
584.53853
3037.2801
573.38377
2401.1851
2527.7226
718.28205
2580.2257
-1146.1715
1283.4473
624.51546
1568.5342
3216.1072
222.53433
2152.1961
183.56009
-258.66892
913.61686
-1685.3577
3549.1885
417.74049
5338.1044
1154.8798
4145.0269
1553.4239
4221.5984
2890.2362
2433.4427
2891.1329
1986.4443
4039.9762
1202.9667
4001.0642
1730.5088
3491.3677
1977.7892
2677.0215
-873.44271
2417.758
4051.1052
1099.4958
-1605.3699
-6159.4815
-1490.7548
3301.9178
8122.7092
8885.1236
8078.0089
12010.111
10878.289
10658.732
9219.8245
8961.1437
8168.9725
5909.9557
7077.0676
11086.014
14522.446
13386.448
14827.871
16484.928
12641.935
10627.561
8613.536
1404.677
-11145.186
-10630.908
-8164.5646
-5088.4119
169.8491
2583.0561
5532.7926
4150.2269
2989.9077
254.58483
2469.4781
935.07879
2500.3659
1090.507
1918.198
2780.1506
548.03857
2647.8977
-1131.8338
1308.3025
684.37621
1403.3824
3452.503
-124.17407
2879.1807
-735.86772
419.67907
-81.524842
-582.59874
3085.9186
565.82229
4922.4841
1394.8884
4392.2438
1433.0631
4774.4525
1910.5312
3388.3837
1453.7236
3060.3844
3335.5202
2075.6853
3770.6468
1524.0435
3621.0727
1960.0997
2969.4579
-1826.7239
3742.2966
3501.7289
1049.3393
-3162.7786
-5885.4311
1012.1399
2887.628
7115.3019
7602.1764
8815.8461
13554.326
11216.811
8604.96
8166.384
11249.792
8042.3129
5668.1299
7145.0425
10431.725
15107.3
14078.602
15132.872
16474.406
12276.173
9936.7321
7906.6007
1459.1137
-12170.92
-10886.775
-7034.16
-3907.4586
164.014
2110.8578
4757.5598
4063.4354
3099.8877
741.86753
2268.5116
1150.4035
2220.859
1310.6363
1749.4221
2775.3479
505.09706
2635.2541
-1135.4469
1431.6777
660.3801
1398.2262
3496.9977
-176.63204
3170.2544
-1229.8291
597.18515
-548.29731
333.03056
2504.3109
949.78488
4055.4656
2043.7524
4293.3713
1848.3885
4949.9255
1195.3184
3921.6285
369.14788
4090.491
2527.5582
3013.5651
3452.4216
1676.7367
3316.1388
2241.2171
2557.602
-1817.5056
4849.5992
2402.1761
782.99346
-4716.9902
-4253.7881
2328.9977
2783.1918
6498.2269
5611.9756
10753.303
14523.482
10010.712
7308.991
8571.3255
12593.313
7276.0469
5800.9592
7028.8919
10343.252
15642.271
14882.823
15594.838
15777.683
12082.825
9735.1911
7076.859
1343.7026
-13244.017
-10879.902
-6041.2099
-2871.3154
97.565343
1729.8633
3953.9703
4095.0297
3087.7388
1208.5688
2186.7485
1215.7305
2080.23
1428.5566
1687.5818
2701.1745
527.48529
2547.1471
-1083.79
1429.1964
739.72591
1457.4702
3444.8351
61.796859
2976.3689
-1397.7825
420.07771
-579.67766
1104.792
1908.4844
1276.3441
3044.5899
2906.2409
3978.7762
2663.8956
4865.8232
758.06014
3894.4479
-255.8234
4754.2567
2286.1287
3397.5758
3266.7761
2282.8546
2659.4145
2628.0291
1541.9818
-447.81654
5324.4203
907.37109
-194.97667
-5757.4731
-1704.9915
2428.3545
3288.7607
5512.9377
4071.7353
14087.511
14080.953
7433.6338
7305.8046
10142.011
12264.005
6636.5333
6246.3188
6555.9324
10777.786
15895.386
16187.095
16018.405
14297.737
12313.754
10135.595
6079.5429
1058.8137
-14334.576
-10718.108
-5118.9858
-2065.588
-41.848768
1481.0977
3225.3744
4069.6944
3194.1723
1517.7227
2149.0004
1347.1185
1879.8564
1574.4039
1636.9636
2612.7608
604.83935
2360.7254
-884.92885
1240.4724
851.21686
1559.8026
3476.6927
414.72932
2453.2334
-1464.1898
65.180829
-244.97875
1798.255
1368.114
1417.0836
2074.3003
3617.4628
3805.5585
3619.6337
4674.2452
673.01092
3057.2545
-59.712774
4683.7238
2593.3275
3556.1164
2891.2321
3357.0571
2107.2331
2508.3487
399.53392
2518.972
4977.6234
-567.87387
-2558.6871
-5663.2885
720.67575
1771.2056
5116.5764
2889.2181
4244.3591
18700.827
11185.172
4135.5241
9296.3126
12394.188
9782.5047
6183.949
6715.8408
6203.0052
11706.228
15873.826
18118.355
15950.567
12552.283
12819.329
10987.681
5379.7719
737.92911
-15435.819
-10433.443
-4265.1115
-1450.0111
-215.1259
1268.8307
2757.0135
3854.6584
3427.7497
1772.8921
2032.7936
1542.3094
1702.6826
1679.9771
1588.3538
2575.3529
638.73431
2152.7321
-596.94609
999.39546
833.36905
1740.7077
3645.9532
842.29857
1801.3873
-1775.8929
-177.09232
188.35563
2559.5471
1064.6805
1136.4359
1403.295
3884.7251
3881.842
4653.1987
4384.8515
948.46062
1692.3977
608.01665
4344.9115
2833.0145
3686.148
2503.5939
4348.3085
2325.0858
1458.4527
-608.84257
6909.7241
3729.9373
-1616.9076
-5856.2051
-4543.9536
2281.654
561.82735
8027.6882
-1551.122
6860.4367
24093.189
5501.8111
900.15913
12957.68
14235.812
6732.5753
5938.2377
6180.5915
6179.4479
12294.689
16141.008
20597.17
14919.911
11419.317
13218.998
11536.189
5311.4417
786.55294
-16536.869
-10015.442
-3509.4289
-993.49871
-344.50774
1018.153
2515.3963
3597.8636
3618.2656
2026.0473
1955.8818
1604.61
1670.355
1720.1654
1489.7003
2663.2231
554.60562
2026.1777
-354.2763
827.26135
621.88946
1979.6226
4013.0176
1262.2538
1213.8789
-2411.4567
-369.90306
681.65504
3339.0296
1050.587
609.41537
803.23374
3952.2645
4092.7034
5426.8524
4406.5511
1164.94
472.96455
1257.1419
3984.7317
2898.037
3401.9667
2362.6577
4813.0994
3269.3153
-435.97715
-860.2653
11357.344
2248.5558
-2756.7822
-8484.0709
-3202.5351
1955.8876
-97.893095
9816.0727
-6325.8126
11414.156
28152.828
-643.75645
-741.44105
15959.074
13645.857
5190.382
5519.0309
4220.1143
6539.4834
11178.108
16858.777
21114.533
12900.362
11540.201
12683.822
11221.083
5592.7089
1397.8492
-17619.349
-9489.5174
-2840.3119
-719.88259
-394.27125
784.22815
2302.8118
3459.4533
3748.0958
2145.9107
2068.1843
1496.4974
1749.1996
1727.6602
1342.8632
2834.6259
367.83464
1997.9688
-140.60084
651.17891
344.59041
2126.8488
4621.7047
1731.6232
501.30947
-2909.3588
-849.81255
1139.9694
4400.6161
823.34369
375.95862
73.084042
3806.2444
4494.9543
5469.7943
4843.584
1349.1413
-355.85458
1675.5313
3669.9569
2728.404
2558.3551
2333.3048
4275.6366
4436.2986
-2698.7471
154.77907
13862.034
1005.4159
-4341.3186
-9911.9802
-2222.8166
-145.65232
546.89397
7195.5795
-6862.4778
13164.022
27116.189
1566.9218
791.83542
15556.704
12756.284
5209.3677
4381.0082
4094.1008
6539.803
9988.9101
17900.49
20267.117
12458.338
12110.985
11647.277
10799.723
5416.5593
1228.4534
-18679.233
-8898.8831
-2219.9225
-633.77473
-392.35679
645.3259
2033.9399
3413.0872
3897.6368
2100.6008
2298.1191
1348.147
1873.133
1719.5349
1192.0042
3023.8525
125.63713
1955.9659
238.22085
251.1326
151.38133
2260.8637
5012.6081
2713.7332
-730.13395
-2923.5316
-1523.7864
963.46896
5977.2721
382.58769
221.39371
-466.78787
3308.6008
4756.4947
4860.0326
4848.2152
1689.2322
-399.1807
1518.4944
3404.5537
2292.9128
1095.332
2085.165
2858.697
4060.4548
-1678.0004
1684.6645
13924.362
782.87647
-5183.5497
-9940.3866
-2146.3213
-761.91427
1387.8399
3639.8089
-6711.471
13992.768
23533.935
2015.4938
3531.9904
15345.979
14456.341
6043.0422
4195.1983
4479.7057
6930.637
9582.5831
18376.712
20477.122
12557.577
13215.236
11506.972
10693.564
5229.7455
1252.4134
-19708.152
-8268.7001
-1639.0738
-663.47125
-383.6744
578.92046
1793.6926
3380.6221
4040.3326
2018.3963
2492.2616
1254.7687
1979.0739
1773.8989
1030.9415
3188.6443
-31.963367
1677.0903
920.24239
-456.2667
-123.46878
2778.2609
4525.6524
4236.5414
-2211.9466
-2790.4958
-2046.6599
-120.52349
7011.6734
485.11617
-150.50453
-742.63031
2698.3936
4309.348
3642.3532
3461.1422
3027.443
473.73358
1626.9545
3318.9069
2354.1059
577.83384
1931.0658
1747.2088
2116.8985
-1197.3395
3313.3344
14599.643
1204.3083
-4586.1515
-9985.0253
-1095.3383
-426.50261
2844.9263
3870.1529
-8032.0036
17418.352
21874.906
-295.27128
7261.7427
14115.732
10624.375
7048.1797
4177.7396
4246.1411
6919.5082
10526.936
18523.85
19128.755
12450.442
12931.245
11307.256
10648.44
5089.0669
1332.8527
-20682.852
-7598.3168
-1135.9951
-714.54735
-362.561
479.19606
1652.4586
3404.0499
4077.171
1968.187
2639.9863
1204.9483
1983.0025
1966.8215
875.7924
3217.7339
59.275115
1132.7736
1594.1956
-1155.5471
-830.81278
3712.2954
3168.1814
5123.4239
-2977.144
-2828.525
-2509.5503
-1675.5424
6268.7433
990.85121
612.04298
-296.36282
2780.5298
4219.4765
3191.0485
1313.196
3538.8516
1752.9744
2155.7714
4069.8135
2693.5962
2038.7069
2273.8749
2166.1759
1465.888
-2105.6638
4647.2508
14106.284
-582.61794
-4318.1073
-10241.657
-2182.027
-1643.3984
1416.1043
3777.7345
-7238.1742
14192.415
21315.125
-593.3605
3905.0339
15044.091
10799.885
6189.9924
4458.3607
4322.5474
5962.7577
8951.6248
18406.752
17750.444
12243.414
12802.956
11135.583
10183.765
4754.9616
1251.1787
-21565.411
-6887.9458
-759.0883
-744.90563
-272.16504
283.18827
1545.3101
3597.5158
3989.4747
1885.8726
2830.0579
1140.5971
1853.0439
2175.5505
854.62098
2848.0991
334.86298
716.17713
1433.3867
-1593.5363
-1810.6159
4463.869
1355.365
4384.9282
-2189.243
-2148.4471
-2609.4814
-1723.3013
5443.6888
736.11099
1384.6269
590.05103
3384.87
4705.808
3876.0859
1198.5198
3366.7821
1962.0897
1316.6475
3582.818
1581.0753
534.06853
2220.1147
1635.395
1611.9553
-1434.328
3403.2189
13581.308
-496.98899
-4855.3513
-10243.53
-1176.1058
-1136.7539
2778.9045
1409.7039
-8595.0936
16814.399
21624.097
-1161.0753
7219.7627
14662.242
8897.6915
6671.3161
5000.5847
4538.8058
5667.5313
7255.115
18080.522
16045.199
11504.234
12501.492
10673.105
9234.5518
4314.2874
1239.5775
-22316.114
-6169.4521
-496.89742
-804.79242
-38.150277
0.75123431
1371.44
3978.4139
3860.7023
1708.4663
3053.0752
1047.1761
1552.6568
2096.3385
1136.4224
1612.3026
611.24902
697.42696
391.48922
-2361.1885
-968.0294
5032.8989
1201.9451
3325.1508
-1671.1439
-993.05177
-2335.4844
-1048.143
5679.0663
521.36067
1332.6028
-168.17696
2904.1693
3889.8002
2899.9573
1261.064
3785.24
2391.3417
1831.6203
3690.5064
2107.0416
1247.0877
2559.8518
1084.0813
1102.5785
-877.7795
3872.6522
10247.252
-1894.1292
-5981.9859
-10983.915
-1403.5485
-2487.6834
1362.1977
-1014.4704
-9002.2768
12992.143
13703.131
1147.4
7849.1935
13671.363
10003.239
6536.6375
4085.6079
4961.3877
6533.2579
6743.6406
16916.311
15304.072
11332.909
12366.88
10075.789
8115.9994
3871.0252
1258.2749
-22972.078
-5480.6013
-306.87008
-975.17264
382.37723
-368.59597
1160.5119
4355.7909
3855.9269
1371.2124
3148.7301
995.59385
759.65862
1697.8192
1552.9563
-387.11439
1097.0661
1502.7898
503.17162
-3150.3237
-199.96102
5860.748
1868.9171
3345.8169
-2001.2802
-1176.3047
-3032.7189
-1929.4021
5695.9789
353.20002
1575.3622
294.45795
3135.5997
4089.7752
3153.1127
1105.0902
3145.5613
2060.9791
1260.661
3723.8769
1537.7182
170.13862
2644.3651
-292.21106
568.75723
393.14527
4127.162
8597.0304
-2647.7223
-6773.4116
-10811.496
-1121.8887
-3044.8518
1349.0125
-2484.713
-9114.2814
10259.606
11183.479
4178.4854
9498.0249
12409.293
8880.6281
7764.447
5023.7535
4539.7076
6041.7143
6584.4644
16330.421
14348.82
11007.073
12113.383
9235.7234
6935.4621
3778.0537
1402.7692
-23602.681
-4828.4145
-193.11899
-1241.129
914.20141
-796.33202
1010.6562
4388.8634
4195.1341
624.13474
3028.2637
989.4389
-605.09681
1445.7954
2476.5208
-753.42636
1197.8944
2458.1816
1223.4906
-3285.0285
-269.94403
5462.2629
906.47856
3095.338
-1956.8978
-836.28133
-2527.9572
-1677.5246
5487.2948
476.91961
1368.0769
-338.3296
2852.0339
3831.7829
3223.6928
757.48994
2644.6401
2015.7501
1167.7599
3514.4434
1434.2235
723.35909
2656.6018
-991.53921
369.44771
655.6395
5173.3194
7725.2479
-3726.6025
-7071.5455
-10382.702
-1300.7517
-3526.0035
3436.0247
-4213.0609
-11351.261
8584.8768
10750.442
4625.7401
9045.1777
11320.953
8763.1965
8407.8733
5098.0607
5495.0899
8790.2299
7204.7913
14679.13
13403.169
10621.736
11673.337
8194.2792
5844.2056
3693.3481
1561.1846
-24216.8
-4175.8604
-206.86491
-1468.9556
1326.8655
-1050.5522
787.566
3939.1655
4738.6711
-445.02256
2540.8703
1750.8533
-615.66248
1312.9535
3389.316
-325.73417
1056.7956
1830.0745
369.98921
-3491.9521
-118.07371
5824.1051
1060.2482
3031.0167
-1936.3538
-900.55402
-3602.2675
-2324.4013
4891.1121
-80.650175
1361.063
-161.52379
2794.3417
3622.7328
3233.3128
1199.7284
2046.4567
2176.9947
1218.3729
2740.1944
983.6788
-414.39503
2767.5255
-935.65017
589.46614
681.0986
5041.82
5461.6975
-4430.2668
-7011.0649
-9941.337
-1015.8334
-4418.0584
3105.3238
-7502.7488
-15742.511
7360.1172
10975.364
3777.8437
8806.9734
9596.1571
7977.2824
9345.7425
4932.3556
3564.2564
7197.6243
7680.0071
13801.276
13093.302
10167.692
11350.178
7504.4182
5711.5532
3745.3486
1563.8684
-24749.781
-3471.1964
-376.50925
-1532.3923
1359.7601
-783.02404
130.47426
3243.2597
4731.8279
287.06759
2182.6451
2689.7787
-47.788369
1194.619
2866.4223
-789.58582
902.50294
2058.5427
751.79173
-3331.2146
-152.95185
5622.0206
902.45092
2992.5599
-1835.1149
-792.61031
-3879.9017
-3132.6969
4326.4188
-195.92905
1016.7702
-325.84999
2486.8484
3321.072
2867.3144
629.79323
1377.2769
2285.3362
1266.2974
2676.9032
807.17399
542.63617
3005.2906
-720.48142
466.75198
363.89667
3336.5451
3021.5965
-4761.6142
-7531.5222
-9346.3745
-637.00888
-4643.746
2098.5095
-8634.2456
-17287.211
6791.4604
12855.018
3454.7162
7935.5718
7859.8187
7675.3425
9940.2901
4401.9563
4419.3033
9176.4461
8163.8702
14107.13
12487.264
9776.9828
11126.254
7007.7676
5556.3422
3806.1663
1612.1447
-25135.772
-2689.7659
-613.73949
-1419.7484
942.40091
-2.7069464
-842.79052
2950.3763
4697.7573
1434.3521
2222.3555
2314.7532
-425.96917
1097.3764
3062.497
-679.02104
868.76988
1859.1144
417.70903
-3362.2529
-162.37262
5437.9079
903.23332
2992.2928
-1612.1074
-817.73039
-4420.236
-3954.2355
3634.6838
-215.88757
811.40306
-540.99066
2308.9341
3107.9258
2843.3107
556.64009
1397.4922
2192.5451
1101.2502
2601.4472
917.47946
-198.87976
3356.9182
-526.09446
271.76817
17.004406
2968.5272
873.48432
-5506.7306
-8663.806
-10967.882
-112.13053
-4490.4495
1378.2521
-7903.0534
-16008.215
6695.0555
12628.693
4116.1564
7473.0822
6832.6724
8080.788
10609.353
4047.3269
4634.1756
8761.3237
7918.0144
12535.967
11626.266
9326.0662
10826.556
6589.8235
5042.7156
3781.1081
1859.5288
-25444.143
-1839.1116
-668.01518
-1208.5897
327.2858
531.57392
-279.0212
3086.6228
4766.9615
1139.8762
2018.4211
2341.5468
-266.00419
1054.7935
2892.7285
-726.21976
856.39135
1908.3971
402.41648
-3475.1842
-343.2131
5068.4807
773.76639
2930.4516
-1271.7745
-645.53214
-4737.3855
-4311.5667
2834.4109
-453.64674
662.53286
-642.70788
2219.8204
2803.2347
2293.4207
707.26149
1565.7231
2020.164
1356.8149
2495.4353
1024.8757
-65.540238
3827.6799
-452.57211
583.32009
16.064323
3406.9736
-829.38569
-7000.6975
-8467.8148
-10877.057
27.46466
-4214.0922
839.84732
-4965.0806
-14399.635
6528.3552
7411.302
6685.609
7396.5605
6602.6903
8596.1604
10851.475
4178.962
6109.0492
8854.4325
7872.9945
13591.197
10906.307
8787.8991
10408.654
5963.368
4629.2813
3848.9754
2129.3365
-26074.496
-963.83406
-215.28475
-1007.8177
51.421728
647.29679
728.91951
2898.5743
4345.3209
1142.4588
2068.0237
2291.6011
-357.58782
1036.6698
2725.1693
-737.32628
817.1621
1786.2244
191.70163
-3504.67
-491.68751
4719.4479
730.40785
2859.742
-1132.9373
-554.34987
-4664.9522
-4256.7002
2021.1782
-432.32879
676.715
-659.87053
2128.2086
2464.3005
2020.0712
679.77105
1733.0625
1792.9928
964.55565
2559.1958
1186.0675
-86.166016
3998.4948
-97.356342
1052.2308
-219.646
3656.4332
-1204.0971
-7088.7477
-7084.4295
-8684.0037
166.57685
-4291.2309
-804.30807
-2487.6541
-13023.079
5607.4022
5368.0134
6940.67
7128.5446
6339.0748
6956.8617
10245.663
4861.246
7136.9276
8426.7136
7852.5229
12768.259
9892.4717
8312.4681
9940.4089
5286.8518
4288.5423
3803.2805
2204.1733
-27733.073
-132.48605
740.56897
-892.46046
272.68145
664.32421
562.78515
2947.2418
4392.3813
1128.8963
2038.044
2230.4817
-333.92564
1017.1114
2523.8136
-791.75226
764.42451
1689.6065
32.673058
-3509.7645
-651.84808
4307.1359
646.42277
2726.6469
-1010.0548
-529.77921
-4254.5176
-3857.7886
1419.1202
-634.26015
674.32986
-622.43649
2044.0034
2094.4156
1426.0594
495.06114
2047.5427
1762.1897
1149.1318
2346.6887
1192.9427
-281.76604
3695.2473
390.38125
1213.6248
-481.17402
3707.2855
-1639.4675
-6969.3417
-6139.3565
-7437.6783
111.54272
-4340.3601
-365.10526
-4181.4364
-11454.716
6858.187
7819.9428
7224.6768
6702.4206
4674.9931
5658.7496
10725.8
5519.6576
6938.0984
8164.7796
7984.6372
12955.538
9903.8642
7994.9371
9510.6732
4542.9027
3901.2478
3706.9081
2182.7361
-30206.495
399.15863
1239.8963
-663.37071
328.51791
501.38307
541.87048
2930.7511
4345.0757
1129.1838
2070.827
2137.5304
-393.13018
992.74654
2336.7225
-837.12489
694.33806
1547.045
-156.81597
-3458.1996
-788.30942
3949.4599
535.0697
2516.2612
-923.5803
-592.16786
-3606.5926
-3250.0611
1168.2281
-881.52428
779.46425
-485.07118
2007.1079
1812.8411
1006.0188
307.26909
2312.0283
1786.1823
843.44798
2083.2189
1135.9608
-995.61159
3656.3467
511.43708
843.81454
-750.35444
3570.5146
-2315.0278
-7824.8603
-5495.562
-6872.9789
-36.186622
-4464.3614
-379.1725
-6165.5368
-10826.59
7212.0311
10666.853
7661.1378
6631.3206
3427.9491
4612.2165
10957.15
5662.5371
6594.4179
7803.1995
8418.1909
12911.364
10198.531
7678.2907
9136.7766
3859.3336
3299.1928
3498.3019
2124.6362
-30001.976
-377.51508
647.7609
-316.03602
295.90881
453.52549
501.06391
2901.6815
4297.1779
1131.6731
2069.3952
2019.918
-410.25966
966.03899
2171.0798
-885.55465
612.58265
1404.2592
-342.93616
-3360.9065
-912.95024
3716.2286
435.80028
2411.0828
-815.79648
-684.80121
-2895.4163
-2538.1665
1041.0402
-1182.8149
889.4991
-309.54417
1966.1383
1469.2906
468.38666
81.873943
2716.4785
1600.1678
964.42423
2000.372
1119.6551
-639.05702
3247.4662
299.40966
657.89261
-964.77058
3305.8977
-1819.6887
-7847.7357
-4530.6434
-6571.248
-404.6529
-4562.6797
-558.60384
-8801.2286
-12064.587
5772.1157
12713.704
8118.8307
6137.0036
1714.4912
3371.8465
9927.9486
5002.7109
7020.0643
7732.1291
8297.8488
12511.586
10181.243
7424.8794
8533.4518
3642.8577
3028.5309
3140.1863
2075.2453
-20777.552
-2803.641
138.75074
-154.69728
292.06021
448.4835
492.46675
2862.8848
4221.746
1129.0681
2054.8139
1880.2299
-473.22458
936.19493
2040.0069
-920.03184
540.75294
1263.285
-533.13023
-3178.8288
-1023.4198
3562.5595
380.46437
2356.7288
-741.23328
-822.72523
-2224.6858
-1960.7873
907.00908
-1400.9445
1013.4637
-17.860147
1941.0172
1218.3564
30.894319
-431.39433
2567.7913
1623.9608
988.21282
1731.2224
1137.0214
-598.90918
2568.4393
-32.471967
324.12575
-1178.6498
2872.5679
-458.29662
-7097.7085
-3850.709
-6316.529
-397.39672
-4685.1254
-1351.3318
-8414.3313
-13225.368
5400.0004
12250.144
7976.0626
5248.9721
-155.94224
1599.5233
9301.8903
4306.8991
7247.7539
7565.383
8044.9534
11537.103
9847.0795
7205.1277
7747.7785
3743.3929
3025.0028
2579.0074
1972.0201
-2928.4554
-3788.4759
59.932539
-250.60589
287.68427
456.66381
493.81689
2816.2225
4127.0237
1115.4294
1994.1648
1724.3441
-498.92149
903.17239
1942.2848
-948.91483
467.39009
1132.298
-736.93602
-2998.974
-1103.8055
3448.8388
308.1395
2396.3187
-719.73414
-934.68164
-1788.0973
-1508.0469
759.74287
-1523.3868
1167.8889
385.73213
1920.3135
1038.5466
-349.86832
-1164.4606
2452.9786
1590.2864
1011.8944
1573.1315
1203.6203
-361.97527
1892.8592
-466.00704
149.89221
-1437.4124
2532.0029
-170.04466
-6796.4507
-3622.1535
-6152.9515
-462.23132
-5010.0072
-2808.2831
-6667.8139
-10438.818
5820.7997
11519.848
8736.8787
4601.5717
-2171.877
-267.1554
8605.469
3748.9061
7368.0806
7264.578
7786.9295
10656.65
9441.922
6928.82
6860.3641
3433.3537
2908.7592
2132.0365
1881.7747
1137.2007
-2252.0335
7.0891636
-278.81647
292.12263
468.98117
493.77837
2772.1922
4012.2263
1085.2683
1920.8329
1559.8862
-564.52241
857.64622
1877.3356
-960.50088
402.88766
1013.4895
-947.25336
-2872.3732
-1206.6778
3319.6462
320.10307
2458.7403
-837.88867
-1071.5815
-1527.1701
-1179.6057
704.16785
-1627.8218
1300.2741
785.84301
1879.6451
860.38796
-686.79225
-1885.4715
2546.3425
1520.4596
1007.8388
1460.8165
1228.6151
-346.0145
1526.4609
-582.26748
337.34724
-1491.5177
1679.849
-880.25914
-5540.1426
-2962.8369
-5900.0975
-562.72354
-5072.2601
-3489.1945
-5638.6462
-5698.9694
6202.3158
11388.95
9974.9468
4143.7152
-4076.6995
-1844.682
7884.2985
3329.4385
7615.5497
6869.2485
7489.7648
9777.7606
8481.0401
6371.0631
6314.5168
3104.9863
2762.5499
1718.5405
1843.6212
-8116.8652
-1314.7517
60.017138
-277.46006
290.5911
480.18822
489.66735
2732.1038
3882.5047
1043.8534
1834.7391
1391.3357
-607.13361
797.9053
1833.2881
-956.91462
284.76694
886.06981
-1166.7766
-2817.8765
-1318.2114
3189.582
303.44933
2425.7202
-1079.0026
-1172.3229
-1347.574
-965.7073
867.6772
-1625.5725
1424.6156
966.23612
1818.0664
677.68557
-1106.1404
-2919.6748
2112.6245
1420.6013
1008.2142
1356.6679
1193.4768
-360.64367
1297.8306
-619.72848
615.69225
-1503.8938
1065.0405
-1023.8025
-5139.358
-2656.3549
-5593.0339
-912.22982
-4901.8094
-3390.9142
-5549.4521
-6160.0745
5811.5871
11712.874
10530.638
3804.7837
-4606.4701
-2491.1311
8116.5345
3422.0907
7014.8047
6296.3048
7203.3584
8215.8364
7436.8202
5735.4851
6071.2556
2948.229
2553.9908
1398.5367
1839.5722
-8136.5232
-1536.2016
75.908188
-266.05207
287.38001
488.35546
480.14291
2685.345
3741.6846
1000.6736
1756.3663
1218.5949
-674.86517
717.70153
1801.3615
-936.05615
196.76621
746.32808
-1355.5647
-2821.7543
-1442.9402
3089.9597
282.99782
2360.876
-1268.6414
-1246.0888
-1192.0297
-784.68889
1286.4484
-1407.059
1566.4468
1124.3004
1751.9303
541.12767
-1585.7424
-4299.6532
2033.1248
1284.2461
894.69277
1271.815
1119.8164
-359.81139
1069.5815
-636.97177
773.59536
-1565.2586
531.62099
-754.32671
-4813.862
-2513.6649
-5454.1792
-1227.0265
-4549.4083
-3360.0774
-5514.8508
-6113.5907
5446.9033
11763.675
10992.803
3063.51
-5498.8698
-2887.9823
8991.9597
3393.6375
6215.568
5734.5183
6805.6582
7017.8615
6841.0621
5103.1482
5867.8852
2988.6155
2127.631
1220.3018
1898.8161
-7869.3516
-1410.7578
86.325558
-252.41933
282.5796
492.50519
465.67317
2623.4137
3602.8882
967.46326
1684.2459
1062.8433
-731.52267
621.51204
1769.3564
-903.94295
106.73257
613.01435
-1622.9566
-2845.6356
-1573.6553
2989.11
223.07696
2355.1268
-1320.6729
-1365.1145
-1053.391
-627.76367
1603.1251
-1292.6459
1717.188
1482.0847
1672.4637
387.66078
-1998.3067
-5765.0542
1651.7602
1055.4891
871.83811
1201.8138
966.30482
-278.75315
915.77761
-555.65237
876.59825
-1640.066
222.11227
-786.33504
-4252.8656
-2192.1589
-5127.0832
-1540.8503
-4307.3026
-3261.9949
-5164.1865
-5949.9379
5187.0708
11399.205
11427.888
2402.7885
-6793.2748
-3265.9397
9870.4309
2888.6158
5194.1104
5425.3575
6376.7838
5959.3942
6441.7945
4443.1251
5519.3289
3170.5258
1682.0406
1066.4728
1998.8241
-7428.1054
-1355.6376
87.681833
-236.95499
276.35313
491.84147
446.76525
2545.0415
3470.064
944.55715
1615.7263
965.96589
-783.70898
519.03734
1723.2955
-863.85612
-1.3161168
509.47006
-1825.2944
-2879.7183
-1682.3956
2843.192
114.9303
2345.1172
-1298.1247
-1460.9149
-1011.787
-618.1898
1535.0405
-1218.2544
1771.8912
1491.6977
1583.4677
242.06698
-2420.1423
-7301.0377
1175.4635
574.72259
546.50758
1003.6066
786.19394
-231.40444
953.3931
-468.81107
953.27747
-1587.3424
-61.874651
-1087.7573
-3827.0658
-1989.9676
-5113.3022
-1661.2922
-4145.1404
-3240.0806
-4539.9138
-5680.9538
4985.8003
10659.565
11017.487
1902.1027
-6752.4207
-3674.5142
9580.7516
1517.2616
4471.0186
5062.0457
6165.0352
4865.5034
5471.92
4025.3959
5035.1528
3047.4891
993.29234
354.14648
2045.4766
-6975.6263
-1241.6204
93.299373
-219.56439
271.98899
485.99952
424.90796
2452.1692
3329.4736
919.40663
1530.7945
947.43833
-791.13999
403.27287
1665.7384
-838.22246
-129.64705
427.02258
-2011.1473
-2932.2204
-1776.3395
2685.5127
-1.1040661
2289.8314
-1316.3069
-1506.7626
-1038.674
-596.683
1513.1594
-1129.1534
1510.0875
1382.898
1511.3333
221.10947
-2833.6048
-8518.4931
811.76032
226.38947
580.35995
973.31269
758.8729
-57.062553
1271.2373
-350.85524
1050.1156
-1585.6259
-347.35185
-1421.8684
-3430.675
-1790.513
-5160.1001
-1784.8922
-4012.7122
-3331.3221
-3926.8
-5249.1768
4691.7499
9674.0879
10416.023
1355.5462
-6098.7456
-5036.3207
7879.4487
-1114.6282
4164.4566
4784.4517
6015.0658
3848.4322
4327.9178
3688.9711
4594.1925
2481.1264
-47.722335
-769.72162
1971.0629
-6473.371
-1189.8182
98.860213
-199.30109
257.88634
474.29201
400.5095
2343.7204
3157.85
880.30708
1405.7179
1002.5812
-756.80877
310.30532
1642.0286
-821.46112
-279.77127
347.27223
-2165.9077
-3019.7612
-1829.8322
2613.3895
-99.250537
2229.4915
-1374.9286
-1570.6259
-1075.0246
-576.15341
1447.5458
-991.46152
1517.2307
1256.787
1450.3167
321.14763
-2846.892
-8407.7395
789.32542
100.64199
452.96163
948.0825
778.76984
170.88465
1634.1925
-164.03276
1194.7803
-1594.3954
-57.098993
-1676.6561
-3145.5684
-1579.8138
-5074.3058
-1842.9888
-3898.5854
-3366.383
-3379.3107
-4600.0971
4390.2547
8346.3057
9620.0593
295.2216
-6343.035
-7971.0073
4817.3398
-2866.8663
4329.5793
4144.4272
5827.4967
3272.3603
3499.2239
3277.7058
4086.4022
1825.8981
-1105.5538
-1833.0923
1786.7776
-5993.4886
-1055.5672
104.23628
-177.10752
246.05684
456.64676
373.8589
2219.0783
2952.1788
817.81596
1229.2936
1068.7148
-717.8669
245.53351
1701.0745
-826.20317
-454.933
277.53966
-2272.6067
-3139.8919
-1871.6893
2565.0861
-183.15221
2151.6187
-1456.3917
-1658.0941
-1076.1909
-528.95883
1356.0606
-938.72215
1397.1896
1176.0869
1388.1645
432.33638
-2726.1048
-6900.3299
1187.2545
206.10741
280.84941
922.29649
793.25584
382.07217
1854.7006
-1.3847348
1345.8184
-1640.298
184.84895
-1414.5169
-3166.8304
-1572.9499
-5431.094
-1767.8181
-3751.7938
-3589.881
-2993.442
-3954.8485
4095.7509
6939.4012
8848.2051
-151.93612
-5779.3556
-10848.426
2276.8328
-3255.71
4924.6739
3566.2327
5686.8843
2790.6514
2736.4217
3025.6376
3544.8576
1411.614
-1692.4504
-2427.9064
1685.4098
-5477.7271
-1025.6292
111.91406
-152.15424
232.1038
433.23251
345.44731
2081.2342
2738.4194
742.25028
1020.9382
1096.1588
-740.07492
194.06887
1853.7068
-855.51283
-631.14393
209.7932
-2328.1474
-3222.9183
-1873.3529
2516.1151
-256.44086
2017.201
-1611.2625
-1680.3522
-1004.0144
-450.33945
1216.8471
-831.88492
1304.2244
1120.3136
1307.3399
463.95887
-2702.7019
-5018.595
1425.057
297.74739
206.46558
932.39932
786.64476
580.80404
1900.9721
119.89756
1298.8303
-1721.8138
469.10807
-1154.5221
-3261.9643
-1674.9699
-5430.1718
-1419.653
-3543.9074
-3550.61
-2662.4425
-3327.1623
3843.9723
5674.7201
7972.7906
-105.09882
-3998.4965
-10597.237
277.97704
-2761.7027
5416.6477
3187.8217
5450.1668
2659.7349
2405.5288
2998.3545
3112.1384
1134.5578
-2084.3897
-2948.7791
1600.6219
-5004.9802
-858.9916
119.68525
-122.74437
216.04951
407.03965
316.08299
1930.7466
2544.9049
677.40352