/*--------------------------------*- C++ -*----------------------------------*\
| =========                 |                                                 |
| \\      /  F ield         | OpenFOAM: The Open Source CFD Toolbox           |
|  \\    /   O peration     | Version:  2.3.0                                 |
|   \\  /    A nd           | Web:      www.OpenFOAM.org                      |
|    \\/     M anipulation  |                                                 |
\*---------------------------------------------------------------------------*/
FoamFile
{
    version     2.0;
    format      ascii;
    class       surfaceScalarField;
    location    "2.8e-05";
    object      phi;
}
// * * * * * * * * * * * * * * * * * * * * * * * * * * * * * * * * * * * * * //

dimensions      [0 3 -1 0 0 0 0];

internalField   nonuniform List<scalar> 
14825
(
1.0344012e-09
-2.0639808e-11
1.0546388e-09
-2.0237578e-11
1.0748073e-09
-2.0168556e-11
1.0955989e-09
-2.079158e-11
1.1157809e-09
-2.0182057e-11
1.1364738e-09
-2.0692819e-11
1.1560965e-09
-1.9622743e-11
1.1764615e-09
-2.0365022e-11
1.1959411e-09
-1.9479532e-11
1.216116e-09
-2.0174914e-11
1.2355621e-09
-1.9446095e-11
1.2552973e-09
-1.9735254e-11
1.2747455e-09
-1.9448185e-11
1.2938716e-09
-1.9126054e-11
1.3134062e-09
-1.9534617e-11
1.3318602e-09
-1.8454048e-11
1.3514297e-09
-1.9569447e-11
1.3692419e-09
-1.7812248e-11
1.3886965e-09
-1.9454597e-11
1.4060149e-09
-1.7318401e-11
1.4251134e-09
-1.9098521e-11
1.442202e-09
-1.7088578e-11
1.460652e-09
-1.8449985e-11
1.4777144e-09
-1.7062355e-11
1.4953105e-09
-1.7596099e-11
1.5125515e-09
-1.7241072e-11
1.5290851e-09
-1.6533521e-11
1.5464941e-09
-1.7409032e-11
1.5618721e-09
-1.5378051e-11
1.5794834e-09
-1.7611246e-11
1.5940289e-09
-1.4545473e-11
1.6113697e-09
-1.7340821e-11
1.6253449e-09
-1.3975184e-11
1.6420584e-09
-1.6713535e-11
1.6558654e-09
-1.3807035e-11
1.6715324e-09
-1.5666943e-11
1.6855081e-09
-1.3975749e-11
1.6998947e-09
-1.4386574e-11
1.7141419e-09
-1.4247223e-11
1.7271534e-09
-1.3011437e-11
1.7414534e-09
-1.4300044e-11
1.7535022e-09
-1.204874e-11
1.7674591e-09
-1.3956949e-11
1.7790033e-09
-1.1544229e-11
1.7920466e-09
-1.3043245e-11
1.8034157e-09
-1.1369153e-11
1.8153567e-09
-1.1940983e-11
1.8267447e-09
-1.1387982e-11
1.8372248e-09
-1.0480156e-11
1.8487339e-09
-1.1509094e-11
1.8586698e-09
-9.9358074e-12
1.8691879e-09
-1.0518195e-11
1.8781943e-09
-9.0063365e-12
1.8877138e-09
-9.5195221e-12
1.8974323e-09
-9.7184604e-12
1.9057487e-09
-8.3164518e-12
1.9143074e-09
-8.5586691e-12
1.9223773e-09
-8.0699068e-12
1.9297328e-09
-7.3555482e-12
1.9376702e-09
-7.9373477e-12
1.9455214e-09
-7.8512181e-12
1.9514927e-09
-5.971322e-12
1.9574804e-09
-5.9876964e-12
1.9643553e-09
-6.8749145e-12
1.9701327e-09
-5.777344e-12
1.9752281e-09
-5.0954404e-12
1.9801148e-09
-4.8866874e-12
1.9847412e-09
-4.6263711e-12
1.9893955e-09
-4.654323e-12
1.9932742e-09
-3.8786732e-12
1.9970114e-09
-3.7371791e-12
2.0006721e-09
-3.6607604e-12
2.0035606e-09
-2.8884842e-12
2.0060096e-09
-2.4490171e-12
-2.1432455e-12
2.8624706e-09
-8.1144472e-11
2.9221022e-09
-7.9869205e-11
2.9815411e-09
-7.9607466e-11
3.0426785e-09
-8.1928913e-11
3.1023472e-09
-7.9850763e-11
3.1633596e-09
-8.1705248e-11
3.2219374e-09
-7.8200514e-11
3.2820876e-09
-8.0515298e-11
3.3405327e-09
-7.7924554e-11
3.4002097e-09
-7.9851976e-11
3.4588514e-09
-7.808781e-11
3.5174685e-09
-7.835232e-11
3.576252e-09
-7.8231691e-11
3.6334844e-09
-7.635843e-11
3.6925007e-09
-7.8550905e-11
3.7482925e-09
-7.4245833e-11
3.8072951e-09
-7.8572129e-11
3.8617852e-09
-7.2302344e-11
3.9203524e-09
-7.8021709e-11
3.9739087e-09
-7.0874701e-11
4.0314815e-09
-7.6671355e-11
4.0846402e-09
-7.0247241e-11
4.1406197e-09
-7.4429545e-11
4.1937453e-09
-7.0187918e-11
4.2477402e-09
-7.1590989e-11
4.3012921e-09
-7.0793033e-11
4.3527675e-09
-6.8008885e-11
4.4065983e-09
-7.1239843e-11
4.4553987e-09
-6.4178451e-11
4.5096585e-09
-7.1871046e-11
4.5565029e-09
-6.1389918e-11
4.6100795e-09
-7.0917388e-11
4.6554427e-09
-5.933835e-11
4.7075844e-09
-6.8855272e-11
4.7523812e-09
-5.860386e-11
4.8020393e-09
-6.5324995e-11
4.8472377e-09
-5.9174171e-11
4.8936857e-09
-6.0834526e-11
4.9395016e-09
-6.006312e-11
4.9825098e-09
-5.6019696e-11
5.0284176e-09
-6.0207803e-11
5.069097e-09
-5.2728113e-11
5.114085e-09
-5.8945002e-11
5.1534746e-09
-5.0933793e-11
5.1960648e-09
-5.5633457e-11
5.2349607e-09
-5.026503e-11
5.2749484e-09
-5.1928761e-11
5.313472e-09
-4.9911549e-11
5.3501689e-09
-4.7177041e-11
5.3887598e-09
-5.0100016e-11
5.4239983e-09
-4.517426e-11
5.4601273e-09
-4.6647223e-11
5.4927789e-09
-4.1657915e-11
5.5266433e-09
-4.3383968e-11
5.560596e-09
-4.3671121e-11
5.5917213e-09
-3.9441756e-11
5.6227861e-09
-3.9623519e-11
5.6524274e-09
-3.7711193e-11
5.681244e-09
-3.6172122e-11
5.7105446e-09
-3.723794e-11
5.7394303e-09
-3.6736957e-11
5.7640667e-09
-3.0607734e-11
5.7890363e-09
-3.0957295e-11
5.8152594e-09
-3.3097952e-11
5.8388662e-09
-2.9384199e-11
5.861377e-09
-2.7606199e-11
5.8829266e-09
-2.6436254e-11
5.9034312e-09
-2.5130968e-11
5.9241698e-09
-2.5392955e-11
5.9431132e-09
-2.28221e-11
5.9616126e-09
-2.2236526e-11
5.9793968e-09
-2.1445003e-11
5.9956219e-09
-1.9113553e-11
6.0104988e-09
-1.7325897e-11
-1.6125117e-11
4.3663597e-09
-1.7939461e-10
4.4635339e-09
-1.7704342e-10
4.5609044e-09
-1.7697797e-10
4.6601739e-09
-1.8119848e-10
4.7582727e-09
-1.7794953e-10
4.8575428e-09
-1.8097538e-10
4.9547909e-09
-1.754486e-10
5.0529478e-09
-1.786722e-10
5.1503843e-09
-1.7536105e-10
5.2481026e-09
-1.7757023e-10
5.3460875e-09
-1.7607275e-10
5.4427644e-09
-1.7502923e-10
5.5409303e-09
-1.7639758e-10
5.6362873e-09
-1.7171543e-10
5.734649e-09
-1.769126e-10
5.8286201e-09
-1.6821696e-10
5.9268255e-09
-1.767775e-10
6.0195534e-09
-1.6503029e-10
6.1170672e-09
-1.7553546e-10
6.2089552e-09
-1.6276275e-10
6.3051957e-09
-1.7291177e-10
6.3966798e-09
-1.6173134e-10
6.4910999e-09
-1.6884972e-10
6.5823274e-09
-1.6141538e-10
6.6747521e-09
-1.6401575e-10
6.7661958e-09
-1.6223664e-10
6.8557797e-09
-1.5759287e-10
6.9472651e-09
-1.6272524e-10
7.0336314e-09
-1.5054475e-10
7.1258311e-09
-1.6407074e-10
7.2095257e-09
-1.4508451e-10
7.3011231e-09
-1.6251472e-10
7.3825047e-09
-1.4072003e-10
7.4726533e-09
-1.5900388e-10
7.5527647e-09
-1.3871524e-10
7.6402859e-09
-1.5284622e-10
7.7204036e-09
-1.3929178e-10
7.8040572e-09
-1.4448815e-10
7.8846109e-09
-1.4061683e-10
7.96372e-09
-1.3512879e-10
8.0445136e-09
-1.4100137e-10
8.120305e-09
-1.2851951e-10
8.2000365e-09
-1.3867652e-10
8.2738071e-09
-1.2470442e-10
8.3509239e-09
-1.3275028e-10
8.423464e-09
-1.2280511e-10
8.4975629e-09
-1.2602762e-10
8.5684985e-09
-1.2084715e-10
8.6389955e-09
-1.1767405e-10
8.7099371e-09
-1.2104161e-10
8.7778415e-09
-1.1307873e-10
8.845723e-09
-1.1452864e-10
8.9096171e-09
-1.0555203e-10
8.9753633e-09
-1.0913021e-10
9.0398976e-09
-1.0820539e-10
9.1022252e-09
-1.017694e-10
9.1632002e-09
-1.0059847e-10
9.222167e-09
-9.6678041e-11
9.2816876e-09
-9.5692694e-11
9.3399929e-09
-9.5543258e-11
9.3974397e-09
-9.4183747e-11
9.450204e-09
-8.337199e-11
9.5040645e-09
-8.4817788e-11
9.5575005e-09
-8.6534004e-11
9.6077071e-09
-7.9590798e-11
9.657422e-09
-7.7321085e-11
9.7050611e-09
-7.4075363e-11
9.7510362e-09
-7.1106097e-11
9.7971739e-09
-7.1530599e-11
9.8415266e-09
-6.71748e-11
9.8850309e-09
-6.5740887e-11
9.9266541e-09
-6.3068128e-11
9.9666771e-09
-5.9136609e-11
1.0004492e-08
-5.5140905e-11
-5.2570177e-11
5.5902101e-09
-3.1313396e-10
5.7232071e-09
-3.1004049e-10
5.8569746e-09
-3.1074548e-10
5.9922648e-09
-3.1648866e-10
6.1275823e-09
-3.13267e-10
6.2630166e-09
-3.1640969e-10
6.3983455e-09
-3.1077749e-10
6.5328397e-09
-3.1316637e-10
6.6688112e-09
-3.1133263e-10
6.8032954e-09
-3.1205444e-10
6.9401753e-09
-3.1295257e-10
7.0741631e-09
-3.0901702e-10
7.2112764e-09
-3.1351092e-10
7.3446275e-09
-3.0506649e-10
7.4818427e-09
-3.1412786e-10
7.61454e-09
-3.0091426e-10
7.7514418e-09
-3.1367923e-10
7.8835936e-09
-2.971821e-10
8.0196617e-09
-3.1160356e-10
8.1514334e-09
-2.9453444e-10
8.28639e-09
-3.0786842e-10
8.417791e-09
-2.931323e-10
8.5513593e-09
-3.0241808e-10
8.6821206e-09
-2.9217665e-10
8.8145962e-09
-2.9649137e-10
8.9450163e-09
-2.9265673e-10
9.0753457e-09
-2.879223e-10
9.2051667e-09
-2.925462e-10
9.3328516e-09
-2.7822971e-10
9.4634811e-09
-2.9470023e-10
9.5883273e-09
-2.6993069e-10
9.718876e-09
-2.9306344e-10
9.8405374e-09
-2.6238133e-10
9.9704839e-09
-2.8895042e-10
1.008974e-08
-2.5797127e-10
1.021823e-08
-2.813362e-10
1.0336379e-08
-2.574413e-10
1.046159e-08
-2.6969859e-10
1.0579344e-08
-2.5837127e-10
1.0700038e-08
-2.5582214e-10
1.0818147e-08
-2.5911078e-10
1.0935032e-08
-2.454049e-10
1.1052526e-08
-2.561696e-10
1.1166278e-08
-2.3845638e-10
1.1281854e-08
-2.4832725e-10
1.1393176e-08
-2.3412692e-10
1.1506487e-08
-2.3933803e-10
1.1614713e-08
-2.2907303e-10
1.172583e-08
-2.2879131e-10
1.1833588e-08
-2.2879952e-10
1.1940563e-08
-2.2005404e-10
1.2045424e-08
-2.1938988e-10
1.2147746e-08
-2.0787405e-10
1.2251768e-08
-2.1315209e-10
1.2352542e-08
-2.0897925e-10
1.2453643e-08
-2.0287006e-10
1.255081e-08
-1.9776533e-10
1.2646697e-08
-1.9256537e-10
1.2744945e-08
-1.9394071e-10
1.2839066e-08
-1.8966466e-10
1.2932044e-08
-1.8716095e-10
1.3021563e-08
-1.7289182e-10
1.3113029e-08
-1.7628328e-10
1.3200445e-08
-1.7395008e-10
1.3286055e-08
-1.6520115e-10
1.3371354e-08
-1.6262013e-10
1.3453561e-08
-1.5628188e-10
1.3534327e-08
-1.5187194e-10
1.3614128e-08
-1.5133231e-10
1.3693273e-08
-1.4631899e-10
1.3770674e-08
-1.4314186e-10
1.3844825e-08
-1.3721942e-10
1.391837e-08
-1.326818e-10
1.3989151e-08
-1.2592144e-10
-1.2119863e-10
6.5724394e-09
-4.7980202e-10
6.7399066e-09
-4.7750775e-10
6.9080813e-09
-4.7892016e-10
7.0778559e-09
-4.8626324e-10
7.2486731e-09
-4.8408418e-10
7.4187659e-09
-4.8650253e-10
7.5907985e-09
-4.8281011e-10
7.7605449e-09
-4.8291277e-10
7.9337543e-09
-4.8454196e-10
8.1041924e-09
-4.8249257e-10
8.2787749e-09
-4.8753511e-10
8.4494976e-09
-4.797397e-10
8.6246815e-09
-4.8869485e-10
8.7957157e-09
-4.7610069e-10
8.9712203e-09
-4.8963242e-10
9.142642e-09
-4.7233596e-10
9.3179628e-09
-4.8900004e-10
9.4899177e-09
-4.6913699e-10
9.6645141e-09
-4.8619994e-10
9.8368779e-09
-4.6689828e-10
1.0010845e-08
-4.8183549e-10
1.018302e-08
-4.6530713e-10
1.0356263e-08
-4.7566168e-10
1.0527654e-08
-4.6356705e-10
1.0701187e-08
-4.7002409e-10
1.0871562e-08
-4.6303182e-10
1.1044287e-08
-4.606473e-10
1.1213314e-08
-4.6157319e-10
1.1384969e-08
-4.4988484e-10
1.1554571e-08
-4.6430207e-10
1.1723847e-08
-4.3920688e-10
1.1894147e-08
-4.6336413e-10
1.2059559e-08
-4.277927e-10
1.223059e-08
-4.5998113e-10
1.2392614e-08
-4.1999597e-10
1.2563818e-08
-4.5254008e-10
1.2723454e-08
-4.1707674e-10
1.2892893e-08
-4.391381e-10
1.3050769e-08
-4.1624682e-10
1.3217083e-08
-4.2213691e-10
1.3374929e-08
-4.1695623e-10
1.3537835e-08
-4.0831107e-10
1.369544e-08
-4.1377423e-10
1.3854576e-08
-3.9759268e-10
1.4011884e-08
-4.0563546e-10
1.416765e-08
-3.8989229e-10
1.4323593e-08
-3.9528124e-10
1.4473761e-08
-3.792416e-10
1.4630407e-08
-3.8543745e-10
1.4779622e-08
-3.7801454e-10
1.4931931e-08
-3.7236237e-10
1.5078035e-08
-3.6549456e-10
1.5225501e-08
-3.553399e-10
1.537287e-08
-3.6052079e-10
1.5515794e-08
-3.5190332e-10
1.5662176e-08
-3.4925228e-10
1.580063e-08
-3.3621894e-10
1.5941119e-08
-3.3305402e-10
1.6084452e-08
-3.372737e-10
1.6220382e-08
-3.2559505e-10
1.6355522e-08
-3.2230064e-10
1.648982e-08
-3.0718997e-10
1.6626087e-08
-3.1255065e-10
1.6753879e-08
-3.0174218e-10
1.6883703e-08
-2.950248e-10
1.7010789e-08
-2.8970627e-10
1.7135239e-08
-2.8073203e-10
1.7258682e-08
-2.7531441e-10
1.7379937e-08
-2.7258807e-10
1.7502911e-08
-2.692922e-10
1.7622276e-08
-2.6250771e-10
1.7737555e-08
-2.5249749e-10
1.7853086e-08
-2.4821367e-10
1.7965278e-08
-2.3811299e-10
-2.3089045e-10
7.3468002e-09
-6.7675563e-10
7.5476927e-09
-6.7840027e-10
7.7478538e-09
-6.790812e-10
7.951247e-09
-6.8965645e-10
8.1552001e-09
-6.8803731e-10
8.3592298e-09
-6.9053225e-10
8.5657889e-09
-6.8936919e-10
8.7702697e-09
-6.873936e-10
8.9786844e-09
-6.929567e-10
9.1846774e-09
-6.8848557e-10
9.3951021e-09
-6.9795978e-10
9.6023065e-09
-6.8694411e-10
9.8141596e-09
-7.0054795e-10
1.0022637e-08
-6.8457763e-10
1.023568e-08
-7.0267593e-10
1.0445476e-08
-6.8213158e-10
1.0659112e-08
-7.0263606e-10
1.0870583e-08
-6.8060835e-10
1.108389e-08
-6.9950677e-10
1.1296851e-08
-6.7985924e-10
1.1510068e-08
-6.9505269e-10
1.1723489e-08
-6.787282e-10
1.193673e-08
-6.8890218e-10
1.2149612e-08
-6.7644955e-10
1.2364697e-08
-6.8510924e-10
1.2576019e-08
-6.7435355e-10
1.2791841e-08
-6.7646928e-10
1.3001501e-08
-6.7123267e-10
1.3218125e-08
-6.6650901e-10
1.3428096e-08
-6.7427363e-10
1.3643302e-08
-6.5441305e-10
1.3854694e-08
-6.7475602e-10
1.4066098e-08
-6.3919617e-10
1.4279292e-08
-6.7317541e-10
1.4487575e-08
-6.2827884e-10
1.4702201e-08
-6.6716583e-10
1.4907409e-08
-6.222852e-10
1.5122352e-08
-6.5408073e-10
1.5324218e-08
-6.1811317e-10
1.5538695e-08
-6.3661368e-10
1.5739158e-08
-6.1741915e-10
1.5951869e-08
-6.2102232e-10
1.6152154e-08
-6.1405902e-10
1.6361417e-08
-6.0685599e-10
1.6562619e-08
-6.0683741e-10
1.6768397e-08
-5.9567051e-10
1.6969229e-08
-5.9611285e-10
1.7168248e-08
-5.782602e-10
1.7373993e-08
-5.9118306e-10
1.7569324e-08
-5.733449e-10
1.7770716e-08
-5.7375444e-10
1.7962408e-08
-5.571871e-10
1.8161513e-08
-5.5444521e-10
1.8355704e-08
-5.5471144e-10
1.8547223e-08
-5.4342198e-10
1.874339e-08
-5.4541945e-10
1.8927668e-08
-5.204967e-10
1.9120249e-08
-5.2563541e-10
1.9312316e-08
-5.293405e-10
1.9495435e-08
-5.0871436e-10
1.9678802e-08
-5.0566792e-10
1.9865081e-08
-4.9346815e-10
2.0050401e-08
-4.9787116e-10
2.0225197e-08
-4.7653788e-10
2.0406899e-08
-4.7672668e-10
2.0581073e-08
-4.6388031e-10
2.0756347e-08
-4.5600674e-10
2.0929107e-08
-4.4807348e-10
2.1098845e-08
-4.4232653e-10
2.1271422e-08
-4.4186923e-10
2.1438301e-08
-4.2938698e-10
2.1603129e-08
-4.1732561e-10
2.1769452e-08
-4.1453589e-10
2.1931075e-08
-3.9973652e-10
-3.899319e-10
7.9438582e-09
-9.0237733e-10
8.1762796e-09
-9.1082163e-10
8.4063371e-09
-9.0913867e-10
8.6422417e-09
-9.2556108e-10
8.8766872e-09
-9.224828e-10
9.114244e-09
-9.280891e-10
9.3525428e-09
-9.2766798e-10
9.5917087e-09
-9.2655946e-10
9.8327819e-09
-9.340299e-10
1.0074367e-08
-9.3007026e-10
1.0318477e-08
-9.420697e-10
1.0562148e-08
-9.3061609e-10
1.0809174e-08
-9.4757367e-10
1.1054762e-08
-9.3016525e-10
1.1304659e-08
-9.5257342e-10
1.1552022e-08
-9.2949409e-10
1.1803924e-08
-9.5453803e-10
1.2053975e-08
-9.3065919e-10
1.2306138e-08
-9.5167038e-10
1.2559174e-08
-9.3289478e-10
1.2811811e-08
-9.476897e-10
1.3066457e-08
-9.3337425e-10
1.3320103e-08
-9.4254862e-10
1.3575027e-08
-9.3137307e-10
1.3832108e-08
-9.4219083e-10
1.4085252e-08
-9.2749715e-10
1.4344332e-08
-9.3554981e-10
1.4596581e-08
-9.2348124e-10
1.4857935e-08
-9.2786271e-10
1.5110549e-08
-9.2688831e-10
1.5371722e-08
-9.1558586e-10
1.5626314e-08
-9.2934801e-10
1.5884826e-08
-8.9770776e-10
1.6141628e-08
-9.2997718e-10
1.639911e-08
-8.8576154e-10
1.6657521e-08
-9.2557648e-10
1.6912286e-08
-8.7704991e-10
1.7172977e-08
-9.1477167e-10
1.7423245e-08
-8.6838138e-10
1.7687262e-08
-9.0063052e-10
1.7934408e-08
-8.6456518e-10
1.8199309e-08
-8.859239e-10
1.8445556e-08
-8.6030533e-10
1.8708472e-08
-8.6977208e-10
1.8955648e-08
-8.5401349e-10
1.9215432e-08
-8.5545465e-10
1.9462349e-08
-8.430297e-10
1.9716012e-08
-8.3192351e-10
1.9971971e-08
-8.4714149e-10
2.0219079e-08
-8.2045297e-10
2.0472966e-08
-8.2764171e-10
2.0714744e-08
-7.9896551e-10
2.0968996e-08
-8.0869654e-10
2.1211593e-08
-7.9730853e-10
2.1458385e-08
-7.9021387e-10
2.1705666e-08
-7.9270054e-10
2.1941882e-08
-7.5671334e-10
2.2191974e-08
-7.7572666e-10
2.243421e-08
-7.7157744e-10
2.2669629e-08
-7.4413289e-10
2.2906805e-08
-7.4284408e-10
2.3150532e-08
-7.3719511e-10
2.3387011e-08
-7.343502e-10
2.3615919e-08
-7.0544584e-10
2.3853243e-08
-7.1405035e-10
2.4078168e-08
-6.888054e-10
2.431169e-08
-6.8952932e-10
2.453858e-08
-6.749635e-10
2.4765995e-08
-6.6974132e-10
2.4994547e-08
-6.7042109e-10
2.521574e-08
-6.5057936e-10
2.5436972e-08
-6.3855839e-10
2.565827e-08
-6.3583314e-10
2.5877109e-08
-6.1857636e-10
-6.05705e-10
8.39097e-09
-1.1566405e-09
8.6508493e-09
-1.1707009e-09
8.910213e-09
-1.1685023e-09
9.1757056e-09
-1.1910537e-09
9.438965e-09
-1.1857421e-09
9.7088305e-09
-1.1979547e-09
9.9763228e-09
-1.1951602e-09
1.0250197e-08
-1.200434e-09
1.0521316e-08
-1.205149e-09
1.0798954e-08
-1.2077079e-09
1.107459e-08
-1.2177056e-09
1.1355007e-08
-1.2110326e-09
1.1635651e-08
-1.2282182e-09
1.1918214e-08
-1.2127285e-09
1.2203849e-08
-1.2382081e-09
1.2488305e-08
-1.2139503e-09
1.2777756e-08
-1.2439883e-09
1.3065692e-08
-1.2185956e-09
1.3356501e-08
-1.2424792e-09
1.364902e-08
-1.2254137e-09
1.3941232e-08
-1.2399022e-09
1.423669e-08
-1.2288317e-09
1.4531516e-08
-1.2373747e-09
1.4828307e-08
-1.2281643e-09
1.5128258e-08
-1.2421421e-09
1.5423336e-08
-1.2225747e-09
1.572626e-08
-1.2384744e-09
1.6022344e-08
-1.2195647e-09
1.6328471e-08
-1.2339898e-09
1.6625679e-08
-1.2240967e-09
1.6932609e-08
-1.2225158e-09
1.7232498e-08
-1.2292366e-09
1.7538452e-08
-1.2036616e-09
1.7840612e-08
-1.2321381e-09
1.8148992e-08
-1.1941408e-09
1.8451885e-08
-1.2284699e-09
1.875894e-08
-1.1841044e-09
1.9065035e-08
-1.2208669e-09
1.9367595e-08
-1.1709418e-09
1.9680444e-08
-1.213479e-09
1.9978261e-08
-1.1623823e-09
2.0294817e-08
-1.2024798e-09
2.0590871e-08
-1.1563597e-09
2.090837e-08
-1.1872711e-09
2.1204507e-08
-1.1501502e-09
2.151964e-08
-1.1705881e-09
2.1814585e-08
-1.137974e-09
2.2126749e-08
-1.144088e-09
2.2431923e-08
-1.1523155e-09
2.2734289e-08
-1.1228187e-09
2.3040493e-08
-1.1338459e-09
2.3337985e-08
-1.0964571e-09
2.3648553e-08
-1.1192649e-09
2.3942821e-08
-1.0915764e-09
2.4248851e-08
-1.096244e-09
2.4545875e-08
-1.0897246e-09
2.4841072e-08
-1.0519101e-09
2.5150045e-08
-1.0847002e-09
2.5443425e-08
-1.0649572e-09
2.5735662e-08
-1.0363696e-09
2.6032622e-08
-1.039804e-09
2.6334974e-08
-1.039547e-09
2.6623571e-08
-1.0229473e-09
2.6916513e-08
-9.9838828e-10
2.7209416e-08
-1.0069531e-09
2.7490791e-08
-9.7018016e-10
2.7785419e-08
-9.8415803e-10
2.8067563e-08
-9.571074e-10
2.8359064e-08
-9.6124147e-10
2.8641478e-08
-9.5283578e-10
2.8923635e-08
-9.3273647e-10
2.9208825e-08
-9.2374773e-10
2.9490191e-08
-9.1719939e-10
2.9768992e-08
-8.9737725e-10
-8.8247637e-10
8.7097671e-09
-1.4386995e-09
8.9930247e-09
-1.4539585e-09
9.2819978e-09
-1.4574755e-09
9.5728498e-09
-1.4819057e-09
9.8655861e-09
-1.4784785e-09
1.0164415e-08
-1.4967834e-09
1.0461177e-08
-1.4919227e-09
1.0767641e-08
-1.5068978e-09
1.1068138e-08
-1.5056461e-09
1.1380992e-08
-1.5205612e-09
1.1686612e-08
-1.5233262e-09
1.2003918e-08
-1.5283381e-09
1.231596e-08
-1.54026e-09
1.2636326e-08
-1.5330949e-09
1.2955013e-08
-1.5568951e-09
1.3277998e-08
-1.5369353e-09
1.3602327e-08
-1.5683169e-09
1.3929365e-08
-1.5456339e-09
1.42572e-08
-1.570314e-09
1.4589542e-08
-1.5577563e-09
1.4920719e-08
-1.5710792e-09
1.5256426e-08
-1.5645382e-09
1.5592878e-08
-1.5738262e-09
1.5930787e-08
-1.5660737e-09
1.6274023e-08
-1.5853783e-09
1.6610269e-08
-1.5588207e-09
1.695803e-08
-1.5862353e-09
1.7297264e-08
-1.5587992e-09
1.7649305e-08
-1.5860305e-09
1.7990902e-08
-1.565693e-09
1.8344224e-08
-1.5758384e-09
1.8689411e-08
-1.5744233e-09
1.9043388e-08
-1.5576391e-09
1.9391365e-08
-1.5801145e-09
1.9751037e-08
-1.5538133e-09
2.0098879e-08
-1.5763115e-09
2.0459058e-08
-1.5442838e-09
2.0809395e-08
-1.5712036e-09
2.1166833e-08
-1.52838e-09
2.1526079e-08
-1.5727244e-09
2.1877946e-08
-1.5142501e-09
2.2242706e-08
-1.567239e-09
2.2592046e-08
-1.5057002e-09
2.2961566e-08
-1.5567907e-09
2.3310149e-08
-1.4987336e-09
2.3676707e-08
-1.5371463e-09
2.4022997e-08
-1.484264e-09
2.439503e-08
-1.5161206e-09
2.4747773e-08
-1.5050584e-09
2.5107895e-08
-1.4829413e-09
2.5463149e-08
-1.4891001e-09
2.5821425e-08
-1.4547322e-09
2.6181758e-08
-1.4795985e-09
2.6533076e-08
-1.4428939e-09
2.6897639e-08
-1.4608071e-09
2.7240966e-08
-1.4330517e-09
2.7602325e-08
-1.4132692e-09
2.7967374e-08
-1.4497495e-09
2.8306328e-08
-1.4039108e-09
2.8658697e-08
-1.3887387e-09
2.9019265e-08
-1.4003723e-09
2.9371755e-08
-1.3920372e-09
2.9715445e-08
-1.3666375e-09
3.0075348e-08
-1.3582912e-09
3.0413925e-08
-1.34553e-09
3.0761174e-08
-1.317429e-09
3.1109303e-08
-1.3322874e-09
3.1448626e-08
-1.2964304e-09
3.1806434e-08
-1.3190486e-09
3.213348e-08
-1.2798823e-09
3.2478579e-08
-1.2778358e-09
3.2823022e-08
-1.2681902e-09
3.3161351e-08
-1.2555289e-09
3.3502413e-08
-1.2384386e-09
-1.2183248e-09
8.9169435e-09
-1.7448629e-09
9.2236637e-09
-1.7606787e-09
9.5403129e-09
-1.7741246e-09
9.8548785e-09
-1.7964714e-09
1.0177714e-08
-1.8013135e-09
1.050152e-08
-1.8205898e-09
1.0829981e-08
-1.8203833e-09
1.1163537e-08
-1.8404543e-09
1.149626e-08
-1.8383693e-09
1.1839384e-08
-1.8636855e-09
1.2176261e-08
-1.8602025e-09
1.2527704e-08
-1.8797809e-09
1.2870183e-08
-1.8827396e-09
1.3228026e-08
-1.8909375e-09
1.3576955e-08
-1.9058242e-09
1.3940298e-08
-1.9002783e-09
1.4295322e-08
-1.9233413e-09
1.4664307e-08
-1.9146184e-09
1.5024847e-08
-1.9308547e-09
1.5399601e-08
-1.93251e-09
1.576595e-08
-1.9374282e-09
1.6143414e-08
-1.9420021e-09
1.6518999e-08
-1.9494112e-09
1.6899265e-08
-1.94634e-09
1.7283078e-08
-1.9691916e-09
1.7661564e-08
-1.9373064e-09
1.8052678e-08
-1.977349e-09
1.8434648e-08
-1.9407688e-09
1.8832659e-08
-1.9840417e-09
1.9217522e-08
-1.9505563e-09
1.9617896e-08
-1.9762127e-09
2.0005538e-08
-1.9620651e-09
2.040963e-08
-1.9617305e-09
2.0800648e-08
-1.971133e-09
2.121147e-08
-1.9646349e-09
2.1603745e-08
-1.9685864e-09
2.2015506e-08
-1.9560448e-09
2.2408069e-08
-1.9637673e-09
2.2820545e-08
-1.9408559e-09
2.3221914e-08
-1.9740929e-09
2.3629163e-08
-1.9214998e-09
2.4036042e-08
-1.9741173e-09
2.4440236e-08
-1.9098945e-09
2.4854366e-08
-1.9709206e-09
2.5258532e-08
-1.9028992e-09
2.5665784e-08
-1.9443983e-09
2.6065633e-08
-1.8841137e-09
2.649156e-08
-1.942047e-09
2.688607e-08
-1.8995687e-09
2.7301868e-08
-1.8987389e-09
2.7698237e-08
-1.8854699e-09
2.8118535e-08
-1.8750293e-09
2.8514554e-08
-1.8756175e-09
2.8924377e-08
-1.8527168e-09
2.9337426e-08
-1.873857e-09
2.9716069e-08
-1.8116944e-09
3.0144615e-08
-1.841815e-09
3.0555951e-08
-1.8610852e-09
3.0925616e-08
-1.7735764e-09
3.1335423e-08
-1.7985459e-09
3.175482e-08
-1.8197692e-09
3.2135652e-08
-1.7728687e-09
3.2543889e-08
-1.7748746e-09
3.295781e-08
-1.7722121e-09
3.3329634e-08
-1.7173541e-09
3.3750704e-08
-1.7384995e-09
3.4128821e-08
-1.7104042e-09
3.4530309e-08
-1.6979185e-09
3.4944006e-08
-1.7327458e-09
3.5300032e-08
-1.6359082e-09
3.5708727e-08
-1.6865305e-09
3.6102389e-08
-1.6618522e-09
3.6486291e-08
-1.6394307e-09
3.6881726e-08
-1.6338734e-09
-1.6025701e-09
9.0302384e-09
-2.072193e-09
9.3622011e-09
-2.0926414e-09
9.7020163e-09
-2.1139399e-09
1.0042291e-08
-2.1367461e-09
1.0391241e-08
-2.1502635e-09
1.0740016e-08
-2.1693648e-09
1.1098518e-08
-2.178885e-09
1.1455984e-08
-2.1979206e-09
1.182233e-08
-2.204715e-09
1.2189759e-08
-2.2311152e-09
1.2561396e-08
-2.2318392e-09
1.2939875e-08
-2.2582595e-09
1.3316798e-08
-2.2596634e-09
1.370557e-08
-2.2797096e-09
1.4087861e-08
-2.2881148e-09
1.4486707e-08
-2.2991244e-09
1.4873913e-08
-2.3105468e-09
1.5282295e-08
-2.3230006e-09
1.5674672e-08
-2.3232314e-09
1.6092654e-08
-2.3504921e-09
1.6490144e-08
-2.3349187e-09
1.6912757e-08
-2.3646151e-09
1.7321976e-08
-2.3586296e-09
1.7749567e-08
-2.3739314e-09
1.8166511e-08
-2.3861352e-09
1.859298e-08
-2.3637758e-09
1.9019977e-08
-2.4043455e-09
1.9449181e-08
-2.3699733e-09
1.9885524e-08
-2.4203844e-09
2.0318261e-08
-2.3832935e-09
2.0757762e-08
-2.4157136e-09
2.1188304e-08
-2.3926074e-09
2.1638441e-08
-2.4118676e-09
2.2069518e-08
-2.4022103e-09
2.2525038e-08
-2.4201545e-09
2.2960604e-08
-2.4041525e-09
2.3414684e-08
-2.4101248e-09
2.3845753e-08
-2.3948361e-09
2.4306113e-08
-2.4012163e-09
2.4739849e-08
-2.4078284e-09
2.5199369e-08
-2.3810202e-09
2.5633464e-08
-2.4082125e-09
2.6090603e-08
-2.3670335e-09
2.6531193e-08
-2.4115101e-09
2.6988805e-08
-2.360511e-09
2.7416659e-08
-2.3722526e-09
2.7864345e-08
-2.3318001e-09
2.8328284e-08
-2.4059856e-09
2.8754176e-08
-2.3254608e-09
2.9214416e-08
-2.3589787e-09
2.9639158e-08
-2.310212e-09
3.0114249e-08
-2.3501208e-09
3.0527168e-08
-2.2885361e-09
3.0989533e-08
-2.3150815e-09
3.1432397e-08
-2.3167208e-09
3.1832234e-08
-2.2115317e-09
3.230918e-08
-2.3187617e-09
3.2745174e-08
-2.2970787e-09
3.3107027e-08
-2.1354295e-09
3.3589468e-08
-2.2809867e-09
3.4081791e-08
-2.3120925e-09
3.4460717e-08
-2.1517943e-09
3.4960897e-08
-2.2750552e-09
3.54087e-08
-2.2200148e-09
3.5788817e-08
-2.097471e-09
3.628732e-08
-2.2370025e-09
3.6627699e-08
-2.0507828e-09
3.7083445e-08
-2.1536645e-09
3.753621e-08
-2.1855106e-09
3.7792232e-08
-1.8919308e-09
3.8239116e-08
-2.1334143e-09
3.8565851e-08
-1.9885874e-09
3.8864264e-08
-1.9378437e-09
3.9152849e-08
-1.9224581e-09
-1.8819873e-09
9.0682765e-09
-2.4216315e-09
9.4222446e-09
-2.4466094e-09
9.78348e-09
-2.4751753e-09
1.0148762e-08
-2.5020283e-09
1.0518994e-08
-2.5204955e-09
1.0895009e-08
-2.5453798e-09
1.1276606e-08
-2.5604813e-09
1.1661682e-08
-2.582997e-09
1.2055036e-08
-2.5980696e-09
1.2448869e-08
-2.6249476e-09
1.285228e-08
-2.6352507e-09
1.3255701e-08
-2.6616805e-09
1.3669024e-08
-2.672986e-09
1.408238e-08
-2.693065e-09
1.4503881e-08
-2.7096165e-09
1.4928969e-08
-2.7242123e-09
1.5357237e-08
-2.7388148e-09
1.5793737e-08
-2.7595e-09
1.622791e-08
-2.7574045e-09
1.667891e-08
-2.8014929e-09
1.7114394e-08
-2.7704021e-09
1.7575193e-08
-2.8254139e-09
1.8020619e-08
-2.8040559e-09
1.8491284e-08
-2.8445969e-09
1.8939406e-08
-2.8342568e-09
1.9411092e-08
-2.8354624e-09
1.9868628e-08
-2.8618806e-09
2.0342564e-08
-2.8439102e-09
2.0805355e-08
-2.883175e-09
2.1288566e-08
-2.8665047e-09
2.1746155e-08
-2.8733019e-09
2.2224058e-08
-2.8705112e-09
2.2695736e-08
-2.8835451e-09
2.3171092e-08
-2.8775666e-09
2.364197e-08
-2.891032e-09
2.4125352e-08
-2.8875349e-09
2.4589731e-08
-2.8745037e-09
2.505984e-08
-2.864945e-09
2.5540219e-08
-2.8815952e-09
2.6002683e-08
-2.8702929e-09
2.6496909e-08
-2.8752461e-09
2.6940126e-08
-2.8514293e-09
2.7442897e-08
-2.8698049e-09
2.7879739e-08
-2.8483513e-09
2.8381203e-08
-2.8619758e-09
2.8777631e-08
-2.7686798e-09
2.92815e-08
-2.8356701e-09
2.9790187e-08
-2.9146722e-09
3.0238067e-08
-2.7733406e-09
3.0734854e-08
-2.8557663e-09
3.1156042e-08
-2.7313999e-09
3.1669665e-08
-2.8637433e-09
3.2012928e-08
-2.6317998e-09
3.2455278e-08
-2.7574309e-09
3.2853682e-08
-2.7151246e-09
3.2875279e-08
-2.2331293e-09
3.3193324e-08
-2.6368065e-09
3.3312318e-08
-2.4160725e-09
3.2820193e-08
-1.6433049e-09
3.30863e-08
-2.5470939e-09
3.37662e-08
-2.9919916e-09
3.3951189e-08
-2.3367838e-09
3.4166404e-08
-2.4902703e-09
3.4458819e-08
-2.5124297e-09
3.4481247e-08
-2.1198993e-09
3.4590805e-08
-2.3465604e-09
3.4384134e-08
-1.8441117e-09
3.4360494e-08
-2.1300244e-09
3.4513691e-08
-2.3387072e-09
3.4016266e-08
-1.3945058e-09
3.401575e-08
-2.1328987e-09
3.3677066e-08
-1.6499033e-09
3.3423867e-08
-1.6846442e-09
3.3107124e-08
-1.6057151e-09
-1.586919e-09
9.0429113e-09
-2.7931925e-09
9.4135787e-09
-2.8172768e-09
9.7980105e-09
-2.8596071e-09
1.0182188e-08
-2.8862062e-09
1.0575671e-08
-2.9139776e-09
1.0974638e-08
-2.9443475e-09
1.1378829e-08
-2.9646718e-09
1.1791205e-08
-2.9953737e-09
1.2207005e-08
-3.0138696e-09
1.2631516e-08
-3.0494587e-09
1.3058959e-08
-3.0626931e-09
1.3494423e-08
-3.0971443e-09
1.393535e-08
-3.1139133e-09
1.4380723e-08
-3.1384378e-09
1.4833814e-08
-3.1627074e-09
1.5290299e-08
-3.1806973e-09
1.5755412e-08
-3.203928e-09
1.6219311e-08
-3.2233996e-09
1.6696244e-08
-3.2343366e-09
1.7171751e-08
-3.2770007e-09
1.7649958e-08
-3.2486086e-09
1.8133718e-08
-3.3091737e-09
1.8621283e-08
-3.2916213e-09
1.9113173e-08
-3.3364866e-09
1.9599286e-08
-3.32037e-09
2.0087951e-08
-3.3241268e-09
2.0583008e-08
-3.356938e-09
2.1067808e-08
-3.3287105e-09
2.1561534e-08
-3.3769009e-09
2.2061448e-08
-3.3664189e-09
2.2532771e-08
-3.3446242e-09
2.3033255e-08
-3.3709953e-09
2.3515243e-08
-3.3655333e-09
2.4017994e-08
-3.3803172e-09
2.4480691e-08
-3.3537298e-09
2.4998339e-08
-3.4051825e-09
2.5422044e-08
-3.2982086e-09
2.5954687e-08
-3.3975877e-09
2.6429651e-08
-3.3565594e-09
2.6936992e-08
-3.3776345e-09
2.7398836e-08
-3.3370896e-09
2.7826702e-08
-3.2792952e-09
2.8197005e-08
-3.2401074e-09
2.8537597e-08
-3.1889436e-09
2.8525841e-08
-2.8502203e-09
2.8407191e-08
-2.6500298e-09
2.8522394e-08
-2.9508725e-09
2.9049586e-08
-3.4418643e-09
2.9128358e-08
-2.8521131e-09
2.9288235e-08
-3.0156425e-09
2.9139403e-08
-2.5825685e-09
2.9171752e-08
-2.8960921e-09
2.8807121e-08
-2.2671687e-09
2.8509557e-08
-2.4598671e-09
2.8270596e-08
-2.4761634e-09
2.7317374e-08
-1.2799077e-09
2.682114e-08
-2.1405716e-09
2.6139099e-08
-1.7340317e-09
2.5228765e-08
-7.329712e-10
2.4185043e-08
-1.5033719e-09
2.2781346e-08
-1.588294e-09
2.1646756e-08
-1.2021948e-09
2.0718874e-08
-1.5623882e-09
1.9519575e-08
-1.3131302e-09
1.8367923e-08
-9.6824773e-10
1.7114613e-08
-1.0932505e-09
1.5874519e-08
-6.0401761e-10
1.4347453e-08
-6.0295761e-10
1.3147605e-08
-1.1388594e-09
1.2362144e-08
-6.0904513e-10
1.1304824e-08
-1.075579e-09
1.0117816e-08
-4.6289472e-10
9.8805162e-09
-1.4473447e-09
9.4004233e-09
-1.1256222e-09
-1.2595023e-09
8.960787e-09
-3.182474e-09
9.3484737e-09
-3.2049635e-09
9.753553e-09
-3.2646864e-09
1.0154759e-08
-3.2874122e-09
1.0572545e-08
-3.3317641e-09
1.0989436e-08
-3.3612386e-09
1.1420877e-08
-3.3961125e-09
1.1852807e-08
-3.4273034e-09
1.2297934e-08
-3.4589965e-09
1.2745183e-08
-3.4967073e-09
1.3202193e-08
-3.5197038e-09
1.3665493e-08
-3.5604437e-09
1.413406e-08
-3.582481e-09
1.4613528e-08
-3.6179054e-09
1.5090507e-08
-3.6396862e-09
1.5585576e-08
-3.6757669e-09
1.6071704e-08
-3.6900552e-09
1.6572222e-08
-3.7239183e-09
1.7069125e-08
-3.7312396e-09
1.7576009e-08
-3.7838843e-09
1.8069683e-08
-3.7422834e-09
1.8578956e-08
-3.8184458e-09
1.9077614e-08
-3.7902796e-09
1.958641e-08
-3.845283e-09
2.0082071e-08
-3.8160306e-09
2.0571059e-08
-3.8131145e-09
2.1088965e-08
-3.8748439e-09
2.1558509e-08
-3.7982553e-09
2.207269e-08
-3.8910815e-09
2.2547858e-08
-3.8415874e-09
2.3044772e-08
-3.8415378e-09
2.3534188e-08
-3.860411e-09
2.4036015e-08
-3.8673609e-09
2.4459906e-08
-3.8042082e-09
2.4811537e-08
-3.7053601e-09
2.4882429e-08
-3.4760752e-09
2.4592819e-08
-3.0085982e-09
2.5004711e-08
-3.8094798e-09
2.5032751e-08
-3.3845993e-09
2.5212829e-08
-3.5577128e-09
2.4954524e-08
-3.0787841e-09
2.4707734e-08
-3.0325055e-09
2.416868e-08
-2.701054e-09
2.3549808e-08