/*--------------------------------*- C++ -*----------------------------------*\
| =========                 |                                                 |
| \\      /  F ield         | OpenFOAM: The Open Source CFD Toolbox           |
|  \\    /   O peration     | Version:  2.3.0                                 |
|   \\  /    A nd           | Web:      www.OpenFOAM.org                      |
|    \\/     M anipulation  |                                                 |
\*---------------------------------------------------------------------------*/
FoamFile
{
    version     2.0;
    format      ascii;
    class       volVectorField;
    location    "2.8e-05";
    object      U;
}
// * * * * * * * * * * * * * * * * * * * * * * * * * * * * * * * * * * * * * //

dimensions      [0 1 -1 0 0 0 0];

internalField   nonuniform List<vector> 
7500
(
(460.01458 -0.0064339795 -7.9344883e-17)
(460.04236 0.029185421 2.8258277e-15)
(460.00287 -0.0023215237 2.2153446e-15)
(460.06055 -0.024193232 -9.8026303e-16)
(459.96038 -0.0056745387 3.24452e-15)
(459.98852 -0.011922055 5.8174145e-15)
(459.96011 0.019108241 1.5198089e-15)
(459.96293 -0.0019047044 5.0376416e-15)
(459.99441 0.011669245 4.9905106e-15)
(459.97304 -0.013987108 2.0247474e-15)
(459.99087 0.013197392 1.8031331e-15)
(459.98103 -0.017641937 -1.7124425e-15)
(459.98974 0.01841237 6.812978e-16)
(459.98842 -0.015721892 1.1901024e-15)
(460.01895 0.0088163018 1.6166737e-15)
(459.96575 -0.00024869508 1.3728483e-15)
(460.06047 -0.0099597741 1.0781167e-15)
(459.95443 0.021806405 -1.4499755e-15)
(460.07374 -0.029544814 1.0870594e-15)
(459.96748 0.034580286 7.5835733e-16)
(460.04289 -0.03459646 -1.1058638e-15)
(459.98361 0.029330464 1.138207e-15)
(460.00835 -0.026275875 1.2207257e-15)
(459.99036 0.02626407 -1.8409749e-15)
(460.01423 -0.024533188 1.0180173e-15)
(459.96854 0.019249911 1.0080903e-15)
(460.04326 -0.010325402 1.0172804e-15)
(459.94218 -0.003031126 -1.5374376e-15)
(460.05574 0.02285987 -7.0081913e-16)
(459.94712 -0.040325715 3.4527663e-15)
(460.02277 0.049526446 -1.4870018e-15)
(459.97212 -0.051725864 6.9130484e-16)
(460.00119 0.046080426 1.016e-15)
(459.99778 -0.037896157 -1.33508e-15)
(459.99998 0.031714817 -4.0718044e-16)
(459.99388 -0.026653216 4.7929568e-16)
(459.99286 0.022639477 -1.5238985e-15)
(459.99348 -0.019890467 1.4198728e-15)
(459.98535 0.0082981939 1.1164933e-15)
(460.00044 0.009144839 8.3850327e-16)
(459.98206 -0.021836137 1.1516103e-15)
(460.00366 0.023503665 5.7158626e-16)
(459.98155 -0.028091989 2.0921897e-15)
(459.99157 0.03459295 2.9369637e-15)
(459.99012 -0.031727962 5.0523112e-16)
(459.97767 0.024512426 -1.5893532e-15)
(459.98737 -0.013887647 -1.341975e-15)
(459.96058 0.0066364554 -1.2822699e-15)
(459.98436 0.0082530714 5.6062507e-16)
(459.95913 -0.02737828 5.4334106e-16)
(459.95943 0.019048869 1.4602034e-15)
(459.97942 -0.0069124517 2.83403e-15)
(459.96532 0.024172738 1.4563751e-16)
(460.02167 -0.0090127774 5.8454371e-16)
(459.91666 -0.01734171 2.8225944e-16)
(459.92968 0.017981593 -1.1788225e-15)
(459.90732 -0.00025390009 6.1739609e-16)
(459.92108 0.0023031657 4.8780907e-16)
(459.90195 0.012455162 6.6523451e-16)
(459.93994 -0.019799192 4.147453e-16)
(459.88305 -0.017753496 3.9347738e-16)
(459.90027 0.03079207 2.4072461e-15)
(459.95884 0.015505821 2.4161081e-16)
(459.95311 -0.029281865 -1.6189079e-15)
(459.9103 -0.0094951273 -1.3418987e-15)
(459.932 0.014613291 5.7669355e-16)
(459.88896 0.012913737 2.6291415e-16)
(459.90158 -0.0028571915 3.5530661e-16)
(459.89969 -0.013321733 1.8544238e-16)
(459.88578 -0.0007711216 -1.0697847e-15)
(459.8973 -0.0009378149 -1.2920754e-15)
(459.91391 -0.0052773036 7.1664743e-16)
(459.90902 0.0024114271 2.3913827e-15)
(459.93322 0.0033731027 4.7266645e-16)
(459.94362 0.0013602447 1.9311123e-15)
(460.01123 -0.0037099999 -6.0229106e-18)
(460.04196 0.018417961 -1.4489272e-17)
(459.99476 0.014175546 -4.1826611e-17)
(460.05796 -0.027370671 7.3790248e-17)
(459.95844 -0.0042909256 -4.9066841e-17)
(459.98811 -0.021010072 1.4798312e-16)
(459.9573 0.027883162 4.4540567e-17)
(459.96143 -0.016531814 1.3884145e-16)
(459.98783 0.027913066 2.738623e-16)
(459.97482 -0.029398724 1.2696326e-16)
(459.98357 0.019306956 3.2695162e-16)
(459.98367 -0.014121282 1.6261501e-16)
(459.98358 -0.0026853396 1.4489074e-17)
(459.98646 0.014508176 -6.7421724e-16)
(460.01711 -0.028464877 2.7043896e-16)
(459.95768 0.034120898 -7.1875105e-16)
(460.06249 -0.040734189 2.5118494e-16)
(459.94253 0.042571318 3.1233724e-16)
(460.07519 -0.043753601 1.7297059e-16)
(459.95653 0.046450744 2.2506811e-16)
(460.03985 -0.045743263 2.3047195e-16)
(459.97598 0.04283104 3.3834868e-16)
(460.00222 -0.036409965 2.8129031e-16)
(459.98402 0.02475743 1.1386885e-15)
(460.00632 -0.0086542742 7.6475258e-17)
(459.9639 -0.010930856 3.5081433e-16)
(460.03479 0.028402744 -8.5534246e-16)
(459.93936 -0.040807907 -3.4576007e-16)
(460.04714 0.054526519 1.7408387e-15)
(459.94435 -0.060546941 3.0682488e-16)
(460.01696 0.060980804 2.5447728e-17)
(459.96756 -0.063559652 3.2516772e-16)
(459.99755 0.065158939 1.819693e-16)
(459.9928 -0.064839659 1.3213026e-16)
(459.99643 0.059334029 9.8158489e-17)
(459.98908 -0.046518343 5.3171408e-17)
(459.98953 0.027120844 5.4626171e-17)
(459.98711 -0.0047619581 -4.383276e-16)
(459.98384 -0.01577029 9.8809162e-17)
(459.99136 0.032520983 1.6020238e-16)
(459.97709 -0.040384005 1.323861e-16)
(459.99685 0.04258671 -5.2319008e-16)
(459.97481 -0.044785928 -1.0873879e-16)
(459.98573 0.041110229 1.9082335e-16)
(459.98146 -0.031644257 1.927017e-16)
(459.97426 0.02064492 -4.9094528e-16)
(459.97872 -0.0072413097 8.57533e-17)
(459.956 -0.00082192661 -3.7457245e-16)
(459.9737 0.022139673 2.7132157e-16)
(459.95134 -0.036155582 2.454157e-16)
(459.95372 0.016705226 1.9478308e-16)
(459.97029 -0.0099488308 -2.6796703e-16)
(459.95636 0.032794858 9.6077154e-17)
(460.00778 -0.0060372028 -4.5031693e-16)
(459.91101 -0.025198334 3.0635784e-16)
(459.92293 0.019426503 2.3330168e-16)
(459.8978 0.0012740479 1.530055e-16)
(459.91457 0.0043826997 2.5381184e-16)
(459.89352 0.011485392 1.2357891e-16)
(459.9294 -0.015618691 -4.4042509e-16)
(459.88509 -0.026388919 2.0899969e-16)
(459.89811 0.027250073 2.4356558e-16)
(459.95004 0.019788213 3.1426816e-16)
(459.94627 -0.022275745 1.9413842e-16)
(459.91369 -0.0054914877 -5.5511787e-16)
(459.93228 0.0058684426 8.2015998e-17)
(459.88448 0.0099417715 -4.1789947e-16)
(459.89719 0.004999086 2.1933755e-16)
(459.89716 -0.01031594 1.6232433e-16)
(459.88643 0.00320593 1.7880476e-16)
(459.89553 -0.0055525716 8.844286e-16)
(459.91438 -0.011762485 -3.8436222e-16)
(459.91077 3.2859482e-05 1.4772507e-16)
(459.93398 0.0052808372 1.0143881e-16)
(459.94526 0.0035091694 1.7887387e-16)
(459.99258 -0.0044909145 7.7266748e-17)
(460.04731 0.014614342 -8.6207306e-16)
(459.98319 0.032922917 7.885936e-18)
(460.0506 -0.038900927 1.1027986e-18)
(459.95616 0.012021379 1.933971e-16)
(459.98428 -0.04513412 5.7959597e-16)
(459.95284 0.043326571 -1.0411089e-16)
(459.95939 -0.027961962 -8.7324075e-17)
(459.97543 0.032679282 1.1464224e-16)
(459.97833 -0.020891775 -1.0009471e-16)
(459.96919 0.0020912585 -3.7001659e-17)
(459.9883 0.0073746713 -6.2281935e-16)
(459.96983 -0.02548948 -5.7482509e-16)
(459.98603 0.035840873 5.5026392e-16)
(460.0055 -0.048628691 5.3608355e-16)
(459.94922 0.055056234 -6.2851234e-16)
(460.0546 -0.064922141 6.7736592e-16)
(459.92725 0.069017167 -1.6059578e-16)
(460.06895 -0.070659468 -5.1976454e-17)
(459.93856 0.07097395 6.9673018e-17)
(460.03043 -0.06210847 6.5821603e-17)
(459.96135 0.053382639 2.4637065e-16)
(459.98606 -0.037101343 5.6895428e-16)
(459.97431 0.017276908 -8.4044307e-17)
(459.98545 0.0027121645 1.4022149e-16)
(459.95427 -0.025563146 -1.2502373e-16)
(460.01674 0.043052533 -4.9030279e-16)
(459.92664 -0.055617874 -1.1730179e-16)
(460.03373 0.07450534 -3.4128287e-16)
(459.93128 -0.08611199 4.9200442e-16)
(460.00585 0.092033231 7.8517666e-17)
(459.9592 -0.099992944 -4.0483931e-17)
(459.98602 0.10176817 -4.5911354e-16)
(459.98502 -0.096673916 -1.3516521e-16)
(459.99002 0.080699432 3.5516549e-17)
(459.97609 -0.057536589 6.4563962e-17)
(459.98858 0.029658349 -3.7076657e-16)
(459.97071 -0.00058180861 -5.174006e-16)
(459.97891 -0.022702885 1.673186e-16)
(459.97585 0.043333002 5.3721498e-17)
(459.96299 -0.052507547 1.9491257e-17)
(459.98068 0.061670631 -1.0671558e-16)
(459.95437 -0.065372132 -4.2012987e-16)
(459.97145 0.052513427 5.8874411e-17)
(459.95883 -0.036751093 1.6122942e-16)
(459.95968 0.021950536 -4.0220798e-17)
(459.95778 -0.007548513 5.7204896e-16)
(459.93837 -0.0038342913 5.9851102e-16)
(459.95007 0.033075263 -4.5228848e-16)
(459.92369 -0.040527543 -1.0471487e-16)
(459.93381 0.01570935 4.1397798e-16)
(459.9442 -0.017202768 8.6264849e-16)
(459.93113 0.038802115 2.8303305e-17)
(459.97195 0.0010760687 2.3556179e-17)
(459.8879 -0.030947827 9.3892545e-17)
(459.9008 0.015824737 4.5183793e-16)
(459.8738 0.0056478062 -8.0287969e-16)
(459.89353 0.0043444337 7.2175212e-17)
(459.87561 0.0094963793 7.7108506e-17)
(459.90676 -0.011645572 -5.0990764e-16)
(459.88128 -0.036659435 -3.3010538e-16)
(459.89154 0.035210115 -2.297202e-16)
(459.94155 0.017310827 1.1024557e-17)
(459.93624 -0.024653595 4.1443168e-17)
(459.91399 0.0025564313 -4.1276566e-16)
(459.93136 -0.00016955773 -7.571871e-16)
(459.88176 0.010062926 8.1382792e-17)
(459.89545 0.014838656 2.930959e-17)
(459.89303 -0.018134439 8.5450911e-17)
(459.88852 0.0027707425 4.3208408e-17)
(459.89305 -0.0074621787 3.858361e-17)
(459.91941 -0.01434843 1.0537444e-16)
(459.9179 0.00054063637 1.9367329e-17)
(459.94066 0.0077034928 3.1459696e-16)
(459.95143 0.0050355486 3.3928162e-16)
(459.90827 -0.0071888439 -3.1445642e-18)
(460.09168 0.022480855 -5.3017993e-18)
(459.93154 0.039132151 -5.6529068e-16)
(460.06471 -0.041412017 -5.1388813e-16)
(459.93105 0.018471211 -1.3085616e-16)
(459.99391 -0.052274066 -4.6631681e-16)
(459.93336 0.039856736 6.5213633e-17)
(459.96807 -0.01662761 -5.2268234e-17)
(459.94686 0.021174377 1.5889594e-16)
(459.99071 -0.0035354316 -6.1200808e-16)
(459.93547 -0.01070235 -5.4394918e-16)
(460.00176 0.015850348 6.1636422e-16)
(459.93434 -0.029247753 5.0503791e-16)
(459.99103 0.038346388 5.5315179e-16)
(459.97191 -0.053734348 5.2443487e-16)
(459.94214 0.06511515 3.3909644e-17)
(460.02443 -0.078562301 8.748241e-18)
(459.91445 0.085062131 -1.256565e-16)
(460.03984 -0.086556758 -5.3898661e-16)
(459.92752 0.083242527 6.3468357e-17)
(460.001 -0.068760942 -9.013155e-17)
(459.95226 0.05652856 4.3343992e-16)
(459.95701 -0.038539737 3.8858804e-17)
(459.9622 0.024921249 8.5805758e-17)
(459.95736 -0.010970522 4.0169429e-16)
(459.93637 -0.011079767 3.1787403e-17)
(459.98987 0.031616088 -4.8846153e-16)
(459.90738 -0.05317532 6.5964961e-18)
(460.00684 0.085849036 4.8396036e-16)
(459.91567 -0.10976652 -3.3530638e-16)
(459.9842 0.11939638 2.4813449e-16)
(459.94683 -0.12629596 7.8240837e-17)
(459.97172 0.1223363 4.198617e-17)
(459.96994 -0.1137809 4.0434291e-16)
(459.98302 0.093899015 -3.6808758e-17)
(459.95731 -0.073312346 4.2762754e-17)
(459.98277 0.050028458 3.8564729e-17)
(459.9496 -0.025767032 -3.1570839e-16)
(459.96752 -0.00036117944 2.9233326e-16)
(459.95114 0.03655372 -7.8876723e-19)
(459.93944 -0.051962094 -2.981343e-17)
(459.95084 0.067275123 -4.7737875e-18)
(459.91761 -0.070761559 -2.5486064e-17)
(459.94149 0.058443282 3.578376e-17)
(459.91677 -0.04307731 2.0752924e-17)
(459.92583 0.030550465 -1.5096321e-19)
(459.91786 -0.018760051 1.2420101e-17)
(459.90304 0.0043611036 -3.7635803e-17)
(459.90781 0.026237329 -1.8526368e-17)
(459.87707 -0.032608615 3.8738409e-16)
(459.89325 0.015552743 -9.8732075e-17)
(459.89983 -0.023531447 9.3379423e-17)
(459.88813 0.04532522 3.25911e-16)
(459.91685 -0.00039967122 -2.6261631e-17)
(459.84596 -0.030007586 1.4850441e-17)
(459.86331 0.01246918 1.1106806e-17)
(459.83968 0.0067207573 -2.767425e-16)
(459.86038 0.0094761075 -5.1046201e-18)
(459.85519 0.0025093244 3.3205302e-16)
(459.8798 -0.012266479 -6.8888443e-18)
(459.88301 -0.045099784 -1.8502147e-17)
(459.88996 0.044462101 -4.0006083e-19)
(459.93862 0.012133909 -2.8569354e-16)
(459.93865 -0.028493259 -2.503587e-16)
(459.92727 0.0055377738 1.4909314e-16)
(459.94296 -0.002124077 2.3047902e-17)
(459.89462 0.0089752641 2.9645094e-16)
(459.90547 0.021470227 7.6026847e-18)
(459.90199 -0.022179903 -2.0804913e-16)
(459.90701 -0.0051898372 -2.9317421e-16)
(459.90554 -0.010526793 2.2975001e-16)
(459.93969 -0.015051091 1.9924977e-17)
(459.93778 -0.0036905309 3.7982019e-18)
(459.96077 0.011533826 1.6429305e-17)
(459.9666 0.0084785957 -2.3811789e-16)
(459.64237 -0.0095664784 -8.3090961e-18)
(460.2624 0.033411466 2.3115648e-17)
(459.75485 0.034249594 2.4777464e-16)
(460.17165 -0.029088841 -2.5957476e-17)
(459.82062 0.0046872886 -1.9740197e-17)
(460.08062 -0.035512433 -9.6569326e-18)
(459.84826 0.019000428 -1.0013802e-16)
(460.04411 0.0036131191 -4.631633e-16)
(459.8606 0.0081294983 1.1791478e-17)
(460.05309 0.0047556617 2.3296253e-17)
(459.85434 -0.014709316 -4.3638617e-16)
(460.04146 0.018455984 -6.010709e-17)
(459.86231 -0.035043933 -7.340235e-18)
(460.00772 0.045089431 2.9976456e-17)
(459.90198 -0.062472969 -2.7615243e-18)
(459.95053 0.070540133 -1.6154234e-17)
(459.95032 -0.078794576 3.8720558e-16)
(459.92927 0.07989368 -7.8882303e-17)
(459.96721 -0.077955085 3.9395552e-18)
(459.94962 0.074610916 4.0270252e-16)
(459.93949 -0.06561437 3.8987205e-16)
(459.97088 0.058946 -4.1184407e-17)
(459.90998 -0.046294154 -6.8093019e-17)
(459.96734 0.039128926 -5.3595697e-18)
(459.91694 -0.024649155 4.0952494e-17)
(459.93099 0.0010157185 3.6466166e-16)
(459.94833 0.021280393 -2.5370201e-17)
(459.89771 -0.042976218 -8.0705338e-17)
(459.96363 0.075011443 1.1002951e-16)
(459.90396 -0.099592597 -3.5936914e-16)
(459.95043 0.10551686 2.6392009e-16)
(459.93246 -0.11680012 1.9868545e-16)
(459.94661 0.12313905 2.7362312e-16)
(459.95032 -0.12606285 -2.2443592e-16)
(459.96279 0.11648436 -2.2705705e-16)
(459.93201 -0.10668632 -3.1168852e-16)
(459.96114 0.084409593 -3.2257005e-16)
(459.92005 -0.05667855 4.7382253e-17)
(459.9435 0.027688766 9.4159616e-17)
(459.91754 0.01480652 5.9897806e-18)
(459.9028 -0.026674515 1.2060655e-17)
(459.91519 0.04966863 2.7761162e-16)
(459.86851 -0.05647193 7.2298011e-19)
(459.902 0.053948468 2.5175738e-16)
(459.86447 -0.044303907 -3.1262774e-16)
(459.88227 0.041209245 2.7404697e-17)
(459.87011 -0.032203197 3.9121683e-16)
(459.86547 0.024610183 1.593476e-16)
(459.86407 0.0019441401 2.0597098e-16)
(459.84032 -0.014858566 -2.0049213e-16)
(459.85714 0.0095142604 2.7178934e-16)
(459.87294 -0.017296289 2.733074e-16)
(459.85912 0.05183264 5.5954929e-17)
(459.88275 -0.010539362 1.8511483e-16)
(459.8263 -0.023175356 1.5446366e-17)
(459.84952 0.0023227181 -2.3763068e-16)
(459.83227 0.0086512387 -2.1392469e-16)
(459.85256 0.01467376 2.6271796e-16)
(459.8593 -0.0096705079 4.2459262e-17)
(459.88156 -0.01230946 2.6839163e-16)
(459.9107 -0.045372937 -1.8746652e-17)
(459.91935 0.043541149 -3.3736591e-17)
(459.96083 -0.001656574 2.2278055e-16)
(459.97292 -0.017130717 1.1217174e-18)
(459.96847 0.0073984342 1.8723379e-16)
(459.98354 -0.0031128057 -1.9062594e-16)
(459.93897 0.0050270311 2.3411273e-17)
(459.94106 0.015538684 5.0501375e-17)
(459.93774 -0.013277403 -1.2825445e-16)
(459.94311 -0.010769254 -2.9965567e-17)
(459.93966 -0.018473051 -1.8959602e-18)
(459.97266 -0.013627012 2.0534059e-16)
(459.96887 -0.013717285 -2.3455266e-16)
(459.99023 0.010662118 2.1791199e-18)
(459.9838 0.012921474 2.848952e-17)
(459.08151 -0.0061357762 3.5310402e-17)
(460.67733 0.0358279 -2.447195e-16)
(459.3533 0.027676705 -2.3867231e-17)
(460.47697 -0.018940861 2.8677456e-17)
(459.54512 -0.014268242 -9.8797134e-17)
(460.3328 -0.016782081 3.527938e-16)
(459.63824 -0.0026174459 -2.1596383e-16)
(460.25684 0.020786992 -2.3241082e-16)
(459.67709 -0.0063046403 -6.5541189e-18)
(460.21539 0.018987634 4.1686215e-16)
(459.69851 -0.029815566 -3.6699794e-16)
(460.14421 0.034263589 3.9008217e-16)
(459.73272 -0.047221659 3.2150932e-17)
(460.06973 0.052502988 -3.3237043e-16)
(459.7785 -0.063222625 4.0732114e-17)
(460.01086 0.063722184 -3.1513691e-17)
(459.81663 -0.067649055 1.3933534e-18)
(460.00872 0.06519262 4.9605811e-17)
(459.83347 -0.062420877 -6.6989275e-18)
(460.03676 0.059778372 -2.1308037e-17)
(459.82565 -0.056011266 3.5072708e-16)
(460.04457 0.052737424 8.4287653e-17)
(459.82232 -0.044041342 -4.6180811e-17)
(460.01924 0.041281386 2.4041416e-17)
(459.84453 -0.030079816 -1.3173301e-17)
(459.969 0.014538727 5.1720733e-17)
(459.87841 0.00039449408 3.2178864e-16)
(459.92813 -0.010392999 6.2856998e-17)
(459.88907 0.034705919 -2.5470079e-16)
(459.92516 -0.062203395 2.2694923e-17)
(459.88271 0.072864276 1.7076564e-17)
(459.94056 -0.098332691 -2.2542515e-16)
(459.88954 0.11897594 1.2762651e-17)
(459.94184 -0.13016292 4.5747327e-17)
(459.91479 0.12994297 2.9482533e-16)
(459.91412 -0.12885149 4.0957381e-17)
(459.91716 0.10968219 9.6142569e-18)
(459.9026 -0.083865107 4.3473792e-17)
(459.90255 0.063700134 2.7365567e-16)
(459.90934 -0.025011225 -2.1386525e-16)
(459.86567 0.014461322 -1.8562907e-16)
(459.91249 0.020242181 4.1866775e-17)
(459.83892 -0.03256637 5.5933209e-17)
(459.90416 0.038033949 2.6903195e-16)
(459.84511 -0.036902003 2.5715208e-17)
(459.88714 0.041417393 2.2624318e-16)
(459.86456 -0.037541717 5.3382493e-17)
(459.88428 0.045958877 3.6637525e-17)
(459.8695 -0.028159282 8.3362165e-17)
(459.87532 0.0068655431 3.3617972e-17)
(459.8812 -0.0055914482 2.1829781e-16)
(459.92646 0.0050783502 8.6112834e-17)
(459.89741 0.045687565 -1.8517022e-16)
(459.93167 -0.023543795 3.4417814e-17)
(459.87743 -0.0026990315 2.0398485e-16)
(459.91274 -0.021509434 -1.5655825e-16)
(459.88821 0.018506674 4.1065982e-17)
(459.90652 0.013223119 2.0822681e-16)
(459.90463 -0.029141209 7.5883448e-17)
(459.93047 -0.0069894774 -1.4957915e-16)
(459.9557 -0.032959555 -1.633331e-16)
(459.971 0.037524887 3.3560899e-17)
(459.98747 -0.025744372 2.1432965e-16)
(460.01887 -0.0016090911 6.678914e-17)
(460.00027 0.0083199393 -2.9068651e-16)
(460.01676 0.0019042071 2.5855286e-16)
(459.96902 0.0078427537 -9.1914176e-17)
(459.95874 0.0055900435 1.42874e-17)
(459.95329 -0.0075930939 1.7586105e-16)
(459.94322 -0.016802764 5.4772242e-17)
(459.93948 -0.022813637 4.2004365e-17)
(459.96055 -0.0064665616 6.3507281e-17)
(459.95252 -0.017559237 7.7401106e-18)
(459.97017 0.0073624214 -1.8687849e-16)
(459.95217 0.014660049 2.7551707e-17)
(458.34948 0.0019547508 1.7341361e-17)
(461.33231 0.029156029 -2.4186333e-16)
(458.73963 0.020712926 -3.7393744e-18)
(461.02779 -0.017547813 2.2972267e-16)
(459.06412 -0.026163343 5.6687635e-19)
(460.78405 -0.0066962161 2.8903192e-17)
(459.27216 -0.016194408 -1.2839698e-17)
(460.59978 0.035733686 -1.2052316e-17)
(459.40362 -0.021794565 -1.4237962e-16)
(460.44791 0.0407866 2.2631946e-16)
(459.50052 -0.046709444 3.005044e-17)
(460.28967 0.05125772 4.6887743e-19)
(459.58433 -0.054618516 3.6370088e-16)
(460.17372 0.058133791 -3.1234054e-16)
(459.63898 -0.063515797 5.2495182e-17)
(460.12672 0.060995001 -1.7855336e-17)
(459.65083 -0.064376572 7.9739499e-17)
(460.15458 0.057703389 -1.3502e-17)
(459.64761 -0.054691472 -2.1480312e-16)
(460.18665 0.048882046 1.4087963e-17)
(459.65621 -0.043628376 5.3292565e-17)
(460.16819 0.039068248 4.9445094e-17)
(459.69304 -0.034559514 3.5471896e-17)
(460.11727 0.038349955 5.8170901e-17)
(459.74217 -0.038538954 -2.6948438e-16)
(460.0681 0.035020034 2.1599654e-16)
(459.77471 -0.02498454 4.5643229e-17)
(460.04045 0.025673633 -1.7383476e-16)
(459.76977 -0.004688866 -1.4386099e-16)
(460.03836 -0.026332176 -1.7366694e-16)
(459.76924 0.040094195 2.8191722e-16)
(460.03123 -0.06964097 5.1020611e-17)
(459.80205 0.097683431 2.4338398e-17)
(460.00673 -0.11445848 1.0111811e-16)
(459.8482 0.12397341 5.4462267e-17)
(459.977 -0.13328623 -1.5391844e-16)
(459.86162 0.12144312 2.2923293e-16)
(459.97811 -0.10520288 1.8178921e-16)
(459.86081 0.093656825 5.4918075e-17)
(460.00021 -0.05633974 7.4067246e-17)
(459.84898 0.045457008 6.9291123e-17)
(460.015 -0.015612449 -1.2972945e-16)
(459.84865 0.0077587367 2.4613163e-16)
(460.01481 -0.0013297961 2.1746426e-16)
(459.8788 -0.0097141589 2.5503186e-17)
(459.99677 0.016288849 2.0701238e-16)
(459.91367 -0.02409182 4.3365103e-17)
(459.996 0.049261506 2.1842912e-16)
(459.91672 -0.055429663 1.9708596e-16)
(459.99284 0.028474772 -1.8856564e-16)
(459.93404 -0.026853913 6.121626e-17)
(460.04217 0.038403157 4.8431574e-18)
(459.94565 0.024562967 4.0978653e-17)
(460.02458 -0.03006648 2.3757026e-16)
(459.9226 0.019832305 -1.3463834e-16)
(459.98747 -0.039743438 -1.6428876e-16)
(459.91626 0.036375967 -1.3880796e-17)
(459.94077 -0.0001284022 2.9349104e-17)
(459.88881 -0.046909829 4.9094762e-17)
(459.93524 -0.0014686761 -1.8192328e-16)
(459.90235 -0.013387781 1.8210605e-17)
(459.93297 0.023346473 1.4544396e-17)
(459.888 -0.042696358 -1.2205521e-16)
(459.95047 0.017547 3.6023627e-17)
(459.87937 -0.0037750894 4.1571149e-17)
(459.90758 0.017008887 1.6054513e-16)
(459.82532 0.011637835 -1.1298838e-16)
(459.81233 0.0066487922 1.8079452e-16)
(459.78105 8.0115164e-05 -1.2158933e-16)
(459.76533 -0.027287111 -1.2394816e-16)
(459.74147 -0.019015642 8.6545146e-18)
(459.75616 0.0040214532 6.2239028e-17)
(459.72706 -0.021435277 -1.1912852e-16)
(459.74655 0.0083323398 -8.6320754e-18)
(459.71216 0.01819749 1.587788e-16)
(457.92573 0.0076845332 -1.0010037e-17)
(461.89337 0.019740275 -1.581923e-16)
(458.17585 0.017688513 2.3580505e-16)
(461.63194 -0.023698158 1.9306457e-17)
(458.46959 -0.023578018 -1.6758547e-16)
(461.32422 -0.0057933465 7.3604004e-17)
(458.77393 -0.0181326 5.0209789e-17)
(460.98521 0.042009713 5.8839943e-17)
(459.07686 -0.025562008 2.4662452e-16)
(460.66165 0.048318786 4.7644344e-17)
(459.33924 -0.04653367 2.7563505e-16)
(460.38842 0.055199469 1.1474262e-17)
(459.52852 -0.056795507 7.4674278e-17)
(460.22629 0.066305224 -1.3358739e-16)
(459.61569 -0.072220442 7.6074703e-17)
(460.18392 0.071546811 8.0540918e-18)
(459.60591 -0.073832359 7.5886235e-17)
(460.23131 0.062143946 4.1613764e-17)
(459.57303 -0.055295259 -2.3463035e-16)
(460.26824 0.042378113 2.883089e-17)
(459.58904 -0.031409812 1.0920915e-16)
(460.23125 0.025215763 2.4518249e-16)
(459.66845 -0.023368532 7.7496702e-17)
(460.17092 0.028731191 -1.7270607e-16)
(459.73799 -0.040202608 -2.4994923e-16)
(460.15962 0.047242168 -1.1037405e-17)
(459.74025 -0.041600768 9.0523695e-17)
(460.19632 0.055058665 2.8260785e-16)
(459.68473 -0.039417142 2.3711741e-16)
(460.239 0.0080771497 -1.9551336e-16)
(459.66985 0.0054948989 2.2740883e-17)
(460.22778 -0.0366356 8.2745593e-17)
(459.72439 0.071083085 1.4450211e-18)
(460.18256 -0.090612874 -2.0288509e-16)
(459.7846 0.10413731 2.3078099e-17)
(460.16108 -0.11967855 -1.3213419e-16)
(459.79042 0.10770017 4.1738077e-17)
(460.18061 -0.10335345 -1.7405206e-16)
(459.78232 0.10439548 9.6439609e-17)
(460.20408 -0.082542445 3.6679921e-16)
(459.77806 0.085515628 -2.5502581e-17)
(460.20193 -0.071278515 -3.5221416e-18)
(459.79234 0.065712809 3.3383705e-17)
(460.16908 -0.054658146 1.8877992e-16)
(459.82683 0.029602961 -1.8294971e-16)
(460.115 -0.024356585 3.9016447e-17)
(459.84491 0.010793876 -1.1319098e-16)
(460.0769 0.028943211 2.3699689e-17)
(459.80149 -0.071117003 -3.0968288e-18)
(460.04252 0.034806415 5.9622544e-17)
(459.77681 -0.040186933 -1.4612273e-17)
(460.03867 0.075723762 -1.291592e-16)
(459.7397 -0.0089944439 1.4094125e-17)
(459.95092 -0.0060144615 4.2471258e-17)
(459.68256 0.01559154 1.9935439e-17)
(459.84476 -0.04204357 6.2848263e-17)
(459.62865 0.065125845 -1.8828922e-16)
(459.71452 -0.031363525 -1.583811e-16)
(459.53225 -0.050662127 1.7494836e-16)
(459.65053 0.014567749 5.3224724e-17)
(459.46935 0.0058016368 1.858012e-16)
(459.55906 -0.0010954273 -1.1060707e-16)
(459.37498 -0.048727919 4.7358747e-18)
(459.50354 0.04989667 3.0805484e-17)
(459.29777 -0.017024348 -1.8165281e-16)
(459.37515 0.04109033 -1.7224579e-16)
(459.17684 0.0045189744 5.4307086e-17)
(459.19316 0.016171933 -1.1681252e-16)
(459.05852 0.0063480651 -1.50274e-16)
(459.06579 -0.029658809 -1.3176826e-16)
(458.94882 -0.012637705 3.3855518e-17)
(458.97763 0.014003144 1.7353496e-16)
(458.85257 -0.02660766 -5.0859537e-18)
(458.89389 0.0017044157 -9.9249675e-18)
(458.77448 0.017707424 1.3584933e-16)
(458.17343 0.0067473819 -5.5687846e-18)
(461.8711 0.021749571 1.3679375e-16)
(458.06753 0.013142189 -7.2244982e-17)
(461.85139 -0.025007292 1.2607576e-16)
(458.08678 -0.01533142 1.2329968e-16)
(461.69969 -0.0098881258 -1.1520538e-16)
(458.30294 -0.0074228606 9.4187347e-17)
(461.37089 0.026332281 3.6151098e-17)
(458.69189 -0.0042480464 1.0117125e-16)
(460.95193 0.025054162 2.2519765e-16)
(459.13005 -0.024705338 -4.4623274e-17)
(460.55356 0.041030118 8.0420115e-18)
(459.49439 -0.049531073 1.7831066e-16)
(460.27355 0.064605681 1.4498739e-16)
(459.71994 -0.07338908 5.0503779e-18)
(460.12295 0.076142832 5.0500648e-17)
(459.82057 -0.077574826 2.3070176e-17)
(460.07085 0.064652967 -1.2567095e-16)
(459.86775 -0.051492781 3.1002964e-16)
(460.04287 0.031046065 -3.1678042e-17)
(459.93296 -0.016138151 3.1488909e-17)
(459.97212 0.010286741 -1.7023933e-18)
(460.04313 -0.010235544 -2.5623123e-17)
(459.90837 0.014068352 2.5914316e-17)
(460.10552 -0.039637981 2.090847e-16)
(459.94562 0.053726204 4.0733397e-18)
(460.03625 -0.05009078 -1.8195651e-16)
(460.07807 0.072794388 1.587416e-16)
(459.86625 -0.059961032 1.5841217e-17)
(460.22002 0.024249156 -1.8494673e-16)
(459.75369 -0.012790578 3.8104495e-17)
(460.26311 -0.018700656 -3.7792891e-17)
(459.74353 0.048866405 2.1376357e-16)
(460.23527 -0.057752969 9.7750505e-18)
(459.73405 0.06855456 -1.3846959e-16)
(460.24929 -0.087119871 -1.8915053e-16)
(459.64129 0.080395608 2.5543692e-17)
(460.30173 -0.094047228 1.7925324e-16)
(459.53844 0.11402387 -5.332518e-18)
(460.30012 -0.11025842 1.0694296e-18)
(459.48116 0.12394901 4.7439579e-17)
(460.21509 -0.10984907 -2.0850742e-17)
(459.46007 0.10609961 4.9443306e-17)
(460.07978 -0.086057769 2.0031766e-18)
(459.42646 0.063616934 3.6739874e-17)
(459.94533 -0.067304943 -1.3593781e-17)
(459.34422 0.067623819 1.4996991e-17)
(459.82309 -0.0077088101 -3.5669359e-17)
(459.1713 -0.065243181 -1.3699273e-16)
(459.70696 0.029217507 4.0558872e-17)
(459.0269 -0.05041001 -3.3207958e-18)
(459.57175 0.11811759 1.169204e-16)
(458.86593 -0.056508583 -1.3167154e-16)
(459.33345 0.05076474 1.5486934e-17)
(458.69563 -0.0081394861 1.1670643e-17)
(459.071 -0.02860614 -5.4423634e-19)
(458.51125 0.098875547 -9.9411518e-17)
(458.75404 -0.073854253 -1.2090195e-16)
(458.25926 -0.042574585 -1.4252759e-16)
(458.54299 0.042516733 -4.6094295e-19)
(457.99913 0.023086065 1.1363672e-17)
(458.25013 -0.023602418 -7.863527e-18)
(457.7274 -0.046225192 -1.3725612e-16)
(458.00478 0.0686311 -1.2337878e-16)
(457.46567 -0.013706618 2.2839365e-18)
(457.65858 0.071610543 2.3194217e-17)
(457.16075 -0.0021198436 -2.871238e-17)
(457.2474 0.04006046 -1.191496e-16)
(456.83597 -0.0016492404 -1.3628748e-16)
(456.88856 -0.01922326 -5.6624828e-17)
(456.50906 -0.0027419361 -4.5618294e-17)
(456.57048 0.019908768 -1.3074268e-16)
(456.17833 -0.013414368 5.1924324e-18)
(456.26196 0.0047732147 8.8168161e-19)
(455.89667 0.018298344 1.7804092e-19)
(458.76629 0.0050410074 -7.2624903e-17)
(461.28969 0.034763183 -1.3672373e-16)
(458.51913 0.00044105301 -2.0774333e-16)
(461.46663 -0.012672405 -2.5547213e-16)
(458.29301 -0.017719751 8.4031143e-17)
(461.64043 -0.0077293841 -2.3151996e-17)
(458.21517 0.0017639689 -2.8404471e-17)
(461.63765 0.0049410726 1.434373e-16)
(458.36054 0.020238651 8.2761068e-17)
(461.4392 -0.0032459203 -2.1144887e-16)
(458.69266 -0.00096403014 3.1378513e-17)
(461.09091 0.017842637 -3.2573609e-17)
(459.1085 -0.028369961 1.131081e-16)
(460.69696 0.04259518 1.1990388e-16)
(459.51206 -0.053092855 2.1252706e-17)
(460.31997 0.058642621 1.4620212e-18)
(459.87592 -0.06165252 4.7755044e-17)
(459.97238 0.050328148 -1.9828623e-17)
(460.20682 -0.034772365 4.5588677e-17)
(459.6639 0.012267101 9.9930508e-18)
(460.48731 0.0020516725 4.3785944e-17)
(459.39297 -0.0047349819 -9.0170678e-18)
(460.72133 0.0029836678 4.5949449e-17)
(459.19783 0.00059972902 1.3355207e-17)
(460.85718 -0.039782043 -1.6598302e-16)
(459.14378 0.053963114 4.0909934e-17)
(460.80903 -0.047234156 4.3274737e-17)
(459.23251 0.075884165 2.4940217e-16)
(460.58367 -0.061283278 6.4344326e-17)
(459.39543 0.027233302 -1.35602e-17)
(460.33451 -0.024739654 5.3004852e-17)
(459.51934 -0.00080363212 1.7872515e-17)
(460.10959 0.025972998 -1.5639098e-16)
(459.59167 -0.02287716 2.1396175e-16)
(459.84827 0.035047992 4.1556258e-17)
(459.69738 -0.047785798 6.0197658e-18)
(459.49056 0.049116478 1.4502882e-17)
(459.79763 -0.06555052 -1.8768625e-17)
(459.12843 0.097664555 1.9566653e-16)
(459.75084 -0.098466721 7.8541214e-18)
(458.85665 0.12344387 5.7194201e-17)
(459.53052 -0.10302017 1.7769219e-16)
(458.63977 0.12236312 1.4797476e-17)
(459.20934 -0.089986616 1.208478e-17)
(458.35983 0.094206201 -5.5213422e-18)
(458.90969 -0.094746718 1.6512099e-17)
(457.98387 0.12169635 1.6506744e-16)
(458.58795 -0.036347466 7.9968887e-17)
(457.482 -0.044100302 -6.6363246e-19)
(458.23457 0.026985964 -2.6741196e-16)
(457.03011 -0.044602803 -1.5631202e-16)
(457.77699 0.12148369 -3.0654305e-17)
(456.55265 -0.068238489 9.1456908e-17)
(457.20416 0.092828118 -3.8672002e-17)
(456.04338 -0.020731732 1.2591415e-17)
(456.59451 0.013702164 1.026713e-16)
(455.47874 0.11492828 -8.7978614e-17)
(455.86923 -0.099633004 -1.4926771e-16)
(454.80459 -0.0178792 1.0129527e-16)
(455.28219 0.061539173 4.6475949e-17)
(454.04533 0.021281427 -1.6950877e-16)
(454.57703 -0.020292459 -1.8135156e-16)
(453.38907 -0.021369946 -1.3143221e-16)
(453.95465 0.043059517 1.4040584e-16)
(452.77578 0.011881222 4.014412e-18)
(453.21322 0.085346531 -2.1344389e-17)
(452.10859 0.011510487 -1.7229296e-17)
(452.38658 0.078044748 -8.8486176e-17)
(451.36986 -0.0081359968 -7.7376131e-17)
(451.58372 0.023983516 3.094616e-17)
(450.64731 0.0042806806 -2.0599671e-16)
(450.83312 0.025115506 1.0628622e-16)
(449.91723 -0.0029847079 -1.8532866e-17)
(450.07661 0.018060036 -4.5548148e-17)
(449.22731 0.020635649 -5.4831611e-17)
(459.13541 0.010842062 -2.8476578e-17)
(460.80842 0.039901541 3.0600849e-16)