/*--------------------------------*- C++ -*----------------------------------*\
| =========                 |                                                 |
| \\      /  F ield         | OpenFOAM: The Open Source CFD Toolbox           |
|  \\    /   O peration     | Version:  2.3.0                                 |
|   \\  /    A nd           | Web:      www.OpenFOAM.org                      |
|    \\/     M anipulation  |                                                 |
\*---------------------------------------------------------------------------*/
FoamFile
{
    version     2.0;
    format      ascii;
    class       volScalarField;
    location    "2e-05";
    object      k;
}
// * * * * * * * * * * * * * * * * * * * * * * * * * * * * * * * * * * * * * //

dimensions      [0 2 -2 0 0 0 0];

internalField   nonuniform List<scalar> 
7500
(
9.9984265e-06
9.9997157e-06
1.0005909e-05
1.0005429e-05
1.0003642e-05
1.0002971e-05
1.0002338e-05
1.0007037e-05
1.0012974e-05
1.0018783e-05
1.0019311e-05
1.0021101e-05
1.0024479e-05
1.0029912e-05
1.0033937e-05
1.0039177e-05
1.0045456e-05
1.0051253e-05
1.00543e-05
1.0060534e-05
1.0066191e-05
1.0068661e-05
1.007162e-05
1.0072945e-05
1.0076153e-05
1.0079966e-05
1.0082996e-05
1.0083559e-05
1.0085166e-05
1.0090697e-05
1.0103556e-05
1.0116826e-05
1.012054e-05
1.0121114e-05
1.0121881e-05
1.0123854e-05
1.0128027e-05
1.0136518e-05
1.0146503e-05
1.0161346e-05
1.0176773e-05
1.0180521e-05
1.0183189e-05
1.0191497e-05
1.0198623e-05
1.0212031e-05
1.0242637e-05
1.0287891e-05
1.0329093e-05
1.037327e-05
1.0427391e-05
1.047731e-05
1.0541785e-05
1.0609833e-05
1.0674253e-05
1.0727003e-05
1.0761996e-05
1.0801199e-05
1.084024e-05
1.0898429e-05
1.1031486e-05
1.1278232e-05
1.1632065e-05
1.2011305e-05
1.2453005e-05
1.2857758e-05
1.3294946e-05
1.3628647e-05
1.3979262e-05
1.4221152e-05
1.4466953e-05
1.4638202e-05
1.4870593e-05
1.4977383e-05
1.5208734e-05
9.999285e-06
1.0000173e-05
1.0000201e-05
1.0000976e-05
1.0003117e-05
1.0004933e-05
1.0005424e-05
1.0005714e-05
1.0006534e-05
1.0008145e-05
1.0011085e-05
1.0015072e-05
1.0019871e-05
1.0025207e-05
1.0034478e-05
1.0039238e-05
1.0046893e-05
1.0052352e-05
1.0056051e-05
1.0058202e-05
1.0060308e-05
1.006243e-05
1.0065986e-05
1.0071298e-05
1.007855e-05
1.0083962e-05
1.0088239e-05
1.0093447e-05
1.010097e-05
1.010789e-05
1.0114232e-05
1.011768e-05
1.0121437e-05
1.0125943e-05
1.0130555e-05
1.0137645e-05
1.0145583e-05
1.0157341e-05
1.0171708e-05
1.0187057e-05
1.0206055e-05
1.0226395e-05
1.0262215e-05
1.0301425e-05
1.0377817e-05
1.044543e-05
1.0584198e-05
1.0691666e-05
1.0898254e-05
1.1067106e-05
1.1327171e-05
1.1616747e-05
1.1870855e-05
1.2198213e-05
1.2462176e-05
1.2786302e-05
1.3032683e-05
1.3322494e-05
1.3676358e-05
1.4044316e-05
1.4767517e-05
1.5581439e-05
1.7252385e-05
1.8552901e-05
2.0510385e-05
2.2141919e-05
2.3959161e-05
2.540259e-05
2.696559e-05
2.8253936e-05
2.9194329e-05
3.0484118e-05
3.1948887e-05
3.2867103e-05
3.4917547e-05
1.0002285e-05
1.0014473e-05
1.0019907e-05
1.0029846e-05
1.0036206e-05
1.0039943e-05
1.0042724e-05
1.0046289e-05
1.0051985e-05
1.0061602e-05
1.0081279e-05
1.0102058e-05
1.0128811e-05
1.0143839e-05
1.0157399e-05
1.0163258e-05
1.0169743e-05
1.0172407e-05
1.0175125e-05
1.0178003e-05
1.0182769e-05
1.019089e-05
1.019993e-05
1.0210321e-05
1.0225369e-05
1.0237214e-05
1.0257215e-05
1.0273268e-05
1.0300402e-05
1.0320684e-05
1.0354471e-05
1.0385924e-05
1.0420917e-05
1.0476884e-05
1.0532507e-05
1.0626287e-05
1.0714836e-05
1.0868028e-05
1.1015466e-05
1.1254395e-05
1.1532416e-05
1.1858556e-05
1.2402268e-05
1.291128e-05
1.3767808e-05
1.4473452e-05
1.5751366e-05
1.6749827e-05
1.8544967e-05
1.9925489e-05
2.2358085e-05
2.4372309e-05
2.71714e-05
3.0101039e-05
3.3295936e-05
3.6892464e-05
3.9996141e-05
4.43691e-05
4.945686e-05
5.3582008e-05
6.065225e-05
6.7179244e-05
7.9566359e-05
8.8099432e-05
0.0001032266
0.00011500183
0.00012904004
0.00014037056
0.00015409937
0.0001653306
0.00017404451
0.00018762376
0.00020377782
0.00021471491
0.00023907777
1.0028751e-05
1.0153934e-05
1.0198452e-05
1.0284284e-05
1.0321142e-05
1.0349524e-05
1.0360856e-05
1.0371456e-05
1.0390165e-05
1.0426596e-05
1.0498974e-05
1.0579685e-05
1.0662835e-05
1.0718894e-05
1.0751641e-05
1.076599e-05
1.0775823e-05
1.0778435e-05
1.0786685e-05
1.0797779e-05
1.0818531e-05
1.0857525e-05
1.0895221e-05
1.0935199e-05
1.0989412e-05
1.1056408e-05
1.1176253e-05
1.1301993e-05
1.1539266e-05
1.1760232e-05
1.217332e-05
1.2577516e-05
1.3145302e-05
1.4095321e-05
1.5000736e-05
1.6579035e-05
1.8029705e-05
2.0659596e-05
2.3005505e-05
2.7259259e-05
3.0896253e-05
3.6703385e-05
4.3908701e-05
5.0848953e-05
6.2035198e-05
7.1161168e-05
8.6966201e-05
9.8840136e-05
0.00011903812
0.00013431786
0.00016088739
0.00018153532
0.00021508939
0.00024457842
0.00028359163
0.00032536364
0.00036268641
0.0004134534
0.00046846711
0.00051128484
0.00058240771
0.00064231923
0.00074766298
0.00081992254
0.0009461832
0.0010435465
0.0011612537
0.0012588381
0.0013793993
0.0014745887
0.001554634
0.0016765918
0.0018275552
0.0019315069
0.0021604116
1.0181675e-05
1.0981532e-05
1.1225966e-05
1.1754509e-05
1.1867332e-05
1.1992967e-05
1.19673e-05
1.1951936e-05
1.1965317e-05
1.2019038e-05
1.2145142e-05
1.2363503e-05
1.2526563e-05
1.2691446e-05
1.2762398e-05
1.2821431e-05
1.2863685e-05
1.290831e-05
1.2971598e-05
1.3073684e-05
1.3250155e-05
1.3443412e-05
1.3704212e-05
1.4045787e-05
1.4624167e-05
1.5365198e-05
1.6748034e-05
1.8268757e-05
2.1226345e-05
2.4145092e-05
2.9904834e-05
3.5366099e-05
4.4633148e-05
5.7304184e-05
7.0069291e-05
9.2731493e-05
0.00011252671
0.00014842909
0.00017846328
0.00023276134
0.00027655461
0.00035451901
0.00042243416
0.00051760998
0.00063590813
0.00073572156
0.00090409533
0.0010247102
0.0012272093
0.0013765626
0.0016380526
0.001830836
0.0021573143
0.0024098393
0.0028042738
0.0031750803
0.0035429479
0.0039594441
0.004437608
0.0047793952
0.0053431842
0.0058066489
0.0066190033
0.0071629818
0.0081034601
0.0088152724
0.0096639806
0.010375284
0.011237855
0.01188086
0.012494989
0.013309737
0.014382874
0.015116789
0.016722083
1.0487714e-05
1.2630562e-05
1.3174586e-05
1.4540853e-05
1.4720122e-05
1.5323836e-05
1.5335942e-05
1.5534679e-05
1.562715e-05
1.5864459e-05
1.6171934e-05
1.6618832e-05
1.7025012e-05
1.7379255e-05
1.762228e-05
1.7833082e-05
1.8129283e-05
1.8467814e-05
1.9067996e-05
1.9828197e-05
2.1187268e-05
2.2977566e-05
2.6259994e-05
3.0583444e-05
3.8703755e-05
4.8236811e-05
6.6470239e-05
8.531484e-05
0.00012245311
0.00015745606
0.00022829037
0.00029110435
0.00041335377
0.00052894718
0.0006879336
0.00093307567
0.0011399483
0.0015086834
0.0017993629
0.0023201538
0.0027235528
0.0034640045
0.0040135105
0.0049968695
0.0057853883
0.0067778555
0.0081014068
0.0090451023
0.010640183
0.011778825
0.013763491
0.015145497
0.017490247
0.019297335
0.02213572
0.024686662
0.027212698
0.029896065
0.033032206
0.035100244
0.038503927
0.041256446
0.046170643
0.049339672
0.054756504
0.05881366
0.063529402
0.06758001
0.07224445
0.075479363
0.079001146
0.082988533
0.088738175
0.092580364
0.10092714
1.0367841e-05
1.226203e-05
1.2928384e-05
1.4832242e-05
1.5250914e-05
1.6514288e-05
1.6760146e-05
1.7519084e-05
1.8686429e-05
1.9575294e-05
2.1209266e-05
2.2182198e-05
2.3721519e-05
2.4428384e-05
2.5776553e-05
2.6868574e-05
2.8910809e-05
3.1896651e-05
3.7132966e-05
4.5421372e-05
6.0776979e-05
8.2227157e-05
0.00012440637
0.00017561277
0.00027509835
0.00038046424
0.00058544233
0.00077991639
0.0011666128
0.0015043601
0.002196291
0.0027615437
0.0039003531
0.0048052412
0.0065133754
0.0080224644
0.0099620919
0.012679009
0.01488062
0.0187182
0.021552495
0.026716977
0.030336709
0.036997376
0.041376798
0.048967151
0.0558072
0.061992123
0.071649534
0.078193383
0.089232821
0.09681829
0.10917776
0.11945754
0.13441774
0.146939
0.16009254
0.17359268
0.18898406
0.1986587
0.2144791
0.22701701
0.2495289
0.26348936
0.28713497
0.30512586
0.32475617
0.34289385
0.36196802
0.37487948
0.38971553
0.40509114
0.42830991
0.44397859
0.47752151
1.0096922e-05
1.0761268e-05
1.142601e-05
1.2884358e-05
1.4089434e-05
1.5419719e-05
1.7328517e-05
1.8598516e-05
2.1014227e-05
2.2407911e-05
2.510255e-05
2.7114262e-05
3.0227816e-05
3.3446995e-05
3.9311294e-05
4.9153632e-05
6.7110299e-05
0.00010167792
0.0001560307
0.00025448795
0.00041996767
0.00064507508
0.0010959713
0.0015811618
0.0025385286
0.0034631189
0.0052763628
0.0068531503
0.0099976197
0.012534319
0.01774854
0.021671893
0.029642911
0.035486049
0.047031177
0.055101583
0.070347138
0.081164196
0.098268859
0.11702239
0.13281638
0.1600133
0.17829727
0.21163931
0.23292401
0.27262156
0.29691102
0.33598646
0.37244653
0.40612302
0.44906023
0.48812232
0.53405355
0.5770787
0.64336388
0.68626174
0.74346417
0.79494112
0.8552686
0.89284742
0.95345295
0.99969995
1.082444
1.1347934
1.222165
1.289723
1.3574147
1.4272487
1.492502
1.5382983
1.5921568
1.6444817
1.7262044
1.7833182
1.9029084
1.1590035e-05
1.8757817e-05
2.1069533e-05
2.6423321e-05
2.7871403e-05
2.9702294e-05
3.1935169e-05
3.2603469e-05
3.3615826e-05
3.5353334e-05
3.866597e-05
4.5328077e-05
5.8764475e-05
8.5458272e-05
0.00013772962
0.00023971515
0.0004206797
0.00079608429
0.0013065142
0.0023766149
0.003634453
0.0056686815
0.0094224033
0.012970464
0.02014485
0.026494166
0.038909295
0.048813141
0.068561932
0.08331986
0.1135012
0.1345285
0.17729043
0.20648199
0.26456779
0.30234317
0.3747324
0.42140611
0.50990435
0.56516379
0.66010363
0.75275568
0.83335182
0.9654452
1.048904
1.2028174
1.2945943
1.4581401
1.5586629
1.7334425
1.8438213
2.0271155
2.1577115
2.3191859
2.5630422
2.69437
2.9167933
3.0867205
3.3091487
3.4577137
3.68982
3.8570196
4.1473586
4.3469552
4.6739987
4.9393433
5.1646672
5.435932
5.6625176
5.8474274
6.0482716
6.252179
6.5703926
6.8071541
7.2631144
1.2003639e-05
2.3208074e-05
2.6263265e-05
3.6016872e-05
3.6748943e-05
4.0663051e-05
4.1444907e-05
4.4596846e-05
5.0607224e-05
6.3798584e-05
9.237156e-05
0.00015371164
0.00028116234
0.00054118197
0.0010346756
0.0020585584
0.0036015362
0.0068999496
0.010763321
0.019068576
0.027407267
0.043984688
0.063621474
0.085432426
0.12832221
0.16198979
0.2271519
0.27580376
0.37253784
0.43978895
0.57516878
0.66414343
0.8437211
0.96001948
1.190395
1.3335535
1.608853
1.7813179
2.108298
2.3079332
2.6864534
2.9231421
3.3231493
3.7063609
4.0197056
4.5747216
4.9075607
5.4780784
5.8467707
6.4844644
6.8640522
7.5213007
7.9357741
8.5734333
9.4144733
9.9372352
10.863127
11.62014
12.561056
13.290694
14.29386
14.999434
16.148024
16.979713
18.392966
19.499951
20.307303
21.711159
22.753464
23.636883
24.676611
26.083681
27.893675
28.868416
30.395466
1.0177735e-05
1.2144409e-05
1.3379026e-05
1.638373e-05
1.9658048e-05
2.5769993e-05
3.5240083e-05
5.5666757e-05
0.00010371898
0.00021491795
0.00046050306
0.00099429268
0.0020735948
0.004359102
0.0082293463
0.016540928
0.026998172
0.049601526
0.072756086
0.12246662
0.16676712
0.26024027
0.33553217
0.47218411
0.64071143
0.78619661
1.0555085
1.2530195
1.6315041
1.879956
2.3698948
2.6874122
3.3178283
3.7167739
4.5012099
4.9922212
5.9545659
6.5666681
7.7300738
8.4479595
9.7806016
10.618797
12.16914
13.186111
14.878292
16.79858
18.085409
20.250726
21.706281
24.167107
25.60266
28.167972
29.828875
33.200683
37.151304
39.876646
45.925919
50.921769
54.271945
58.50815
63.156635
66.123369
71.556265
75.3166
84.85229
88.11629
92.349171
110.24875
112.6399
116.86956
129.83188
145.42378
150.08164
146.57127
147.23286
1.0186169e-05
1.0986535e-05
1.1508052e-05
1.2920701e-05
1.7683892e-05
3.4298388e-05
8.6947914e-05
0.00023554878
0.00060578721
0.0014797815
0.0033623186
0.0075166667
0.015330034
0.03274056
0.056593525
0.10891713
0.16511611
0.28627744
0.39624276
0.62869744
0.81676347
1.2052007
1.493895
2.0842582
2.4984559
3.2591236
4.0021674
4.8252673
5.9736155
6.826755
8.4448535
9.5271638
11.637912
12.980367
15.764779
17.582568
21.484696
23.861298
28.526084
31.1845
36.248805
39.300318
46.150454
50.524723
60.438838
66.749183
72.523919
83.001267
88.510352
101.08663
105.70227
123.30149
128.55123
168.74235
186.41541
198.94998
265.9171
273.3261
267.65133
306.57882
325.19219
335.10349
363.78517
387.05775
472.37453
450.35462
475.13017
559.77348
524.82215
549.82932
645.02486
624.09258
551.24834
464.05532
459.69769
1.015716e-05
1.0782632e-05
1.2783373e-05
2.2328171e-05
6.1935225e-05
0.00020234075
0.00062498275
0.0017534495
0.0044235131
0.010550092
0.023098615
0.052284622
0.097740212
0.20070506
0.31820664
0.57623878
0.81731685
1.3301914
1.7514865
2.6222147
3.2825722
4.6129506
5.5713602
7.5125064
8.8730013
11.643957
13.507915
17.165114
19.713468
23.575702
28.889278
32.915097
40.910657
45.784059
59.620016
66.749537
88.056085
96.10161
117.75903
125.33762
150.86462
159.47032
217.43676
227.91604
309.22864
306.69117
342.35614
385.93075
413.53571
494.02629
496.63339
648.12329
601.07388
812.8939
721.00833
779.85208
1083.4312
925.86212
784.69242
1035.2928
931.79414
815.77642
812.92598
924.34592
790.05925
691.41645
677.30332
608.95788
681.19458
677.00634
465.9243
338.31069
188.35603
138.72679
195.9956
1.0846239e-05
1.451698e-05
2.7917962e-05
0.00010161639
0.00040478185
0.0014372632
0.0043747143
0.011788824
0.028324067
0.0662158
0.13718031
0.30495288
0.51616383
0.99418991
1.4631373
2.4795578
3.3305995
5.1131748
6.4944944
9.2715054
11.385196
15.516119
18.619963
24.994672
29.756367
39.622891
46.125905
59.215073
67.838694
87.62286
106.50972
124.12861
165.72779
179.46355
292.09158
290.4541
446.06183
446.83203
540.42467
564.52366
687.06122
716.31989
869.32302
783.89687
1214.3122
960.71746
1097.8187
980.37755
1083.719
933.54275
1111.0113
964.2157
895.84193
854.89626
603.82141
750.65952
460.48354
291.76879
390.28118
426.90201
266.99591
233.86453
174.14728
213.17566
90.459287
115.57785
107.02491
63.578574
124.08021
114.42906
46.92444
24.045509
18.489043
18.448152
24.756141
1.0080431e-05
2.0110829e-05
0.00011372767
0.0006468597
0.0027559343
0.009404886
0.027183481
0.069029921
0.15657498
0.36866244
0.68987939
1.4396094
2.2447248
4.0265135
5.6093035
8.9435812
11.618273
17.205979
21.531246
30.111525
37.326967
50.825062
62.006502
87.563768
105.95403
147.33307
169.83609
228.07422
263.3068
399.72771
449.66392
575.27752
718.15848
804.75421
1054.9812
1023.9922
1456.6896
1220.4365
1238.608
1218.8593
1062.3117
1027.0997
775.57895
771.41989
805.01664
572.55474
604.92472
348.79318
379.33644
216.46259
261.52742
90.897043
255.03514
88.023667
104.24793
285.82667
57.305916
28.730023
92.60448
58.44161
20.705445
19.744683
30.066514
31.087328
16.121677
15.084773
15.690069
16.403352
37.246127
27.868379
14.172375
10.788467
11.798053
11.81545
18.007244
1.0692167e-05
8.0588257e-05
0.00074978912
0.0042022509
0.016905464
0.05372124
0.14621178
0.34840239
0.74512526
1.7067887
2.9143934
5.6234023
8.2665718
13.960317
18.897304
28.880445
37.390239
55.656262
69.75855
100.46676
129.24658
180.3378
227.94575
366.37537
435.2954
622.07735
707.58225
985.54044
1054.2043
1373.1847
1255.0582
1563.5021
1322.6687
1608.9947
1071.702
1136.0491
644.60709
548.85008
316.9115
315.28324
155.00339
171.89466
82.350878
156.79992
81.681757
61.765904
59.619456
30.493369
26.614954
20.179412
28.976731
18.599443
35.51357
15.975713
55.581577
134.03288
14.418025
12.704957
40.737087
23.983572
10.578609
10.044883
15.883423
14.305718
10.184593
9.0861989
9.0558037
9.8889392
16.1198
12.845004
9.9913513
9.8137667
11.943968
11.637037
12.657879
1.0290117e-05
0.00052304101
0.0048168536
0.024801273
0.091470929
0.26818337
0.68633099
1.5264725
3.0817693
6.6301584
10.554925
18.913248
27.140104
44.532903
60.592373
91.236644
123.31527
191.36854
242.45915
391.58596
529.7933
740.73366
987.30008
1290.4542
1371.3583
1529.2452
1536.2996
1532.0341
1339.1234
948.91942
921.59679
599.25754
443.95028
510.50222
116.02801
368.57713
72.173997
42.218246
33.372687
30.263202
17.391345
17.363685
15.985314
44.865707
23.443761
11.024071
10.100451
7.8113427
7.5375488
6.6778614
17.791534
12.971452
24.430687
10.626488
38.447403
37.667329
10.155955
9.8126769
25.811572
15.569074
9.4428712
10.0058
18.270643
14.277791
10.118803
7.4783123
6.6334769
9.8258816
9.0276088
8.6312625
8.7141235
9.9192571
13.049918
12.436087
11.917306
1.3349163e-05
0.0032540952
0.027526938
0.12860771
0.431615
1.1646676
2.829767
5.7436866
11.347836
22.197089
34.273632
58.997758
86.327871
144.54395
203.21539
315.42748
469.20373
751.30366
951.79325
1406.8347
1528.1032
1742.892
1765.4085
1393.8117
1322.3124
618.49982
549.27203
401.25859
298.5771
128.95348
190.09064
60.984482
47.749178
41.463348
11.698915
112.98246
7.3000797
4.9967906
25.196641
18.045874
10.011691
9.6656983
11.386771
24.078478
15.514286
7.1693159
6.2488635
6.4867974
5.8304919
5.3157298
8.1633045
12.239923
13.239615
9.5445859
25.360012
15.460232
8.946576
8.6974853
19.442998
11.027293
8.8339141
7.562813
8.7611746
8.229354
9.1250155
7.097747
6.922153
8.8855505
10.312576
10.104904
10.464153
11.692875
11.720643
11.137378
11.757796
0.00013630106
0.018385653
0.13891424
0.58433914
1.7783575
4.428242
10.056967
19.356678
39.42113
66.667368
107.89899
188.41278
293.26861
527.03317
782.09726
1287.7151
1430.6175
1739.7193
1691.0423
1585.8986
1123.1749
926.5055
481.34811
240.44351
214.72339
60.816747
65.663212
39.63618
33.318842
22.652953
26.8942
13.456979
23.936134
22.962826
7.431784
29.669784
4.8397627
4.0589779
29.165564
24.372813
17.64481
10.863879
11.856245
17.382861
13.055874
6.9707526
9.6738363
7.8224633
8.6342176
6.4302538
9.4657976
9.5204648
19.133381
11.545845
24.420956
19.511951
8.8516991
8.3023951
14.847284
9.0527583
8.696191
6.8362714
7.7461351
9.2127609
10.870085
8.4209528
9.4486077
9.4389919
10.49362
12.029488
12.642087
12.952566
11.755336
10.607334
11.178337
0.00061221988
0.096262149
0.62690817
2.336566
6.4431567
14.920676
31.703708
61.406535
124.55674
205.01598
368.41348
691.4955
1158.7097
1552.3523
2001.4555
1832.7784
1376.892
917.12143
599.09019
315.5394
159.11056
130.79926
46.526143
29.966795
18.717823
8.6464996
16.151884
6.5065861
7.3270718
20.112394
3.9546165
5.4087785
12.088162
10.882207
6.6504649
10.150984
4.3324299
5.4525131
23.761494
22.555873
21.398017
11.095511
8.7018693
13.532409
11.006504
8.3879319
11.860706
8.8122604
13.706846
13.96367
10.033646
11.958044
16.712988
9.1138584
16.456681
15.279734
9.6130115
7.7827766
10.664887
9.0640733
10.42453
7.8093947
9.1502373
11.46669
11.261052
11.018144
8.9688503
9.7369151
11.865309
13.224333
14.365319
13.659616
11.805698
10.424432
10.672165
0.0076188288
0.45540827
2.5200055
8.2567521
20.848779
46.066718
96.237758
196.42904
400.62719
720.19629
1489.0752
1816.6652
1960.3714
1630.8961
1361.4846
366.83555
228.61858
141.02248
98.542477
37.984836
28.758413
17.548988
6.5173458
5.509118
6.4695168
9.6131361
9.1720474
4.5955222
5.5146124
16.487166
2.2382371
3.6912559
5.6029247
9.7918286
4.8050848
5.5544721
4.0391413
10.803188
17.866839
17.216242
14.015522
10.585723
7.7129886
13.352277
14.417241
9.1741337
7.7238276
7.9042921
20.029538
41.55571
17.717993
9.4522602
11.802903
7.4753796
10.88478
9.1939527
10.034479
9.3578371
10.689305
9.9053399
13.77429
12.57905
12.131917
11.859233
11.33954
10.545103
10.148079
11.064834
13.037693
15.206166
15.219875
13.843719
12.053254
10.368273
10.280684
0.059832539
1.9288485
8.9792071
26.04752
62.057752
136.96571
303.27322
679.47293
1497.5781
1809.9954
2276.4927
1526.4273
623.31974
338.51796
189.75703
28.226746
42.339884
28.308284
14.425671
5.1272675
9.6810216
5.8490185
6.5509201
3.488483
3.6561912
14.3067
7.099591
3.3654774
3.5921815
7.7104309
2.1439591
2.7052491
3.5684022
4.3804828
4.2105527
4.3604346
3.86785
13.414644
34.417809
16.472772
11.770085
10.107398
7.5429178
15.091988
12.932956
7.2918074
11.323307
10.958595
25.694225
28.810237
16.880737
11.146411
10.603881
7.5600381
8.5010229
7.2779814
10.917492
16.449249
11.617159
10.730117
16.661283
12.844875
14.530035
11.995167
10.753067
9.2829034
9.6793738
9.7888351
12.291287
14.06957
14.425826
13.40051
12.012305
10.452247
9.9337433
0.37314453
7.3194739
28.63122
75.261104
178.33192
418.50004
1083.923
1849.0899
2360.0245
1744.2351
772.33276
245.5652
82.172723
73.422288
22.657166
2.6297938
13.216557
6.2064323
12.507094
2.9548238
6.3000821
4.7657845
8.8005444
4.6796996
3.9232092
16.378171
5.8193665
3.9690324
3.6847335
5.1634015
3.436228
2.5800744
3.4513857
3.5068118
3.1430743
3.2758274
3.6342347
11.561787
81.33438
15.093504
12.198748
9.0198984
9.294936
14.217755
9.0894873
7.0763193
7.6772684
5.5669122
14.37549
21.913329
12.489383
9.9326082
10.889077
8.4883056
7.6818678
7.2271163
11.149508
18.096339
13.828914
14.300048
17.161822
20.282861
12.462073
11.309248
10.514616
9.022498
9.5066271
9.4377732
11.948339
12.877272
12.710554
12.259116
11.458252
10.664977
9.7569643
1.9824744
24.968781
83.349038
206.72948
529.52767
1453.2445
2044.6804
1877.8193
875.95241
417.09715
113.97764
27.07322
10.409102
18.521386
4.1550796
1.0604137
6.6960592
2.7677087
3.2444978
2.3781261
4.1446224
5.2751438
8.6784177
5.1914563
4.4983805
11.688018
5.4606227
5.8978297
3.6938315
3.9199979
3.9221881
2.5417656
4.1260294
3.5906656
3.350861
2.7230975
3.1747662
4.8462541
27.230886
8.7756665
16.996518
8.4390404
11.169622
14.765621
10.066856
8.1157359
5.5847149
4.2810751
27.124244
28.542987
12.091722
9.7968363
10.006014
9.8217119
6.624798
7.0824235
10.440082
11.361143
12.969996
18.111005
12.480823
19.644108
11.519265
11.44499
10.691114
9.830977
9.2076223
9.483642
12.052202
12.543862
12.143627
11.117725
11.136755
10.837309
9.8608394
9.2454667
77.54165
227.17824
573.24109
1756.8538
2341.2374
1389.6201
472.87086
159.13902
72.717623
10.584962
7.2906932
2.8269223
6.6817407
1.4338457
0.91070797
4.1199998
1.6406584
1.9260491
2.2184531
3.3709424
5.8928406
6.8386523
4.4670908
4.4978814
5.7327476
4.7570182
4.298445
3.59056
3.1605835
5.2556096
2.4109814
2.8114167
3.6300765
3.2002342
2.5826697
3.1980471
4.4589056
11.800209
7.3295378
16.533228
5.1932742
11.123982
11.776892
11.479377
8.6193226
7.0809279
6.010338
15.261786
13.663106
9.5909484
6.867461
7.3085049
10.3519
6.7611924
6.1662481
10.955246
11.075585
25.729934
18.623034
14.407062
12.960786
11.272226
12.558685
11.417411
12.119533
9.6958052
11.154815
13.096356
12.938464
11.999329
10.789603
11.02442
10.874431
11.273526
38.736907
221.72966
606.25469
1742.1843
2430.4945
1268.0253
396.65748
95.590851
20.104211
9.5062098
1.6228568
3.9633805
1.9788569
3.4998241
1.3042469
1.0097794
3.280117
1.7592914
1.001168
2.1225358
3.4588421
5.7603497
6.1512284
7.0630984
5.2300882
4.6077908
3.8673055
3.291682
3.3985944
3.0338358
6.8655085
2.3754951
2.9543456
3.2613919
3.2271391
2.540554
3.2660319
5.8592274
12.241715
7.0099463
7.7266165
4.6905207
8.5561519
19.460332
12.834778
8.5546054
14.896956
8.9914643
8.5719949
8.0267933
9.2893573
8.5888568
5.9074042
9.7888385
7.6126777
6.315275
12.58296
12.028136
17.172207
11.334609
18.900258
11.535191
13.416289
16.644623
13.393479
12.084693
12.469566
16.720927
15.998418
13.595002
11.797798
10.797477
10.729384
10.974474
13.737885
149.28782
593.21665
1703.4067
2333.9982
1193.5648
360.64131
61.44124
11.687941
2.8039652
3.7920371
0.97981874
1.5530629
1.467066
2.0819802
1.1965685
1.0439646
2.6861973
2.0388795
0.85314936
2.2181578
3.254562
4.8837249
5.9801432
10.090362
6.8387155
5.8177209
3.6965757
4.2324262
3.3769243
3.1955436
7.2718687
2.3801409
2.296183
2.9458065
3.3366855
2.624688
3.3605651
4.6821554
7.2064367
4.9424698
6.0192585
4.7876311
11.854235
16.557126
11.304872
7.6926224
7.0199295
7.5052984
13.199703
9.1194743
11.018567
8.57132
5.7480789
11.128519
9.2690294
8.525883
13.285509
12.801547
10.217785
9.3095593
19.812624
15.34362
16.625993
18.531924
14.347538
10.873092
16.040836
20.765391
17.207803
13.440206
11.634605
11.149835
11.803925
11.293299
12.409113
487.78967
1587.6827
2762.6913
1472.0662
432.25993
52.696636
5.7608575
1.5695255
0.88935006
3.3550333
0.9267913
1.1106811
1.1962855
1.3564999
1.1950425
1.1508426
2.419479
3.607524
0.71480919
2.2845523
3.1728211
4.2497628
4.1533904
8.4489377
7.0346592
11.02209
3.7327697
6.5149969
3.4664275
3.4023965
5.4541797
2.2110031
1.9549231
3.0743632
3.6616797
2.8082124
3.3748085
3.8016633
6.0710017
4.9186018
5.9448745
5.1185778
18.452498
13.994427
10.789691
8.1408765
6.1638425
6.6097712
13.580051
8.61641
8.2444329
6.6745218
6.2057557
13.477854
9.9378532
9.3711827
11.446166
11.965502
11.415903
13.47988
12.959523
14.053383
12.364311
16.642283
14.659132
12.126642
12.30903
16.069697
15.680298
12.412267
11.455102
11.584428
14.128744
12.697386
11.507748
1471.2273
3214.1368
2295.9324
697.07314
83.981157
6.2644532
0.95191129
0.62754138
0.52207751
2.4817997
0.90261513
1.0780178
1.0258448
0.98738086
1.1976342
1.1463286
2.1567813
2.7515746
0.88297102
2.2356254
3.1178897
3.9367602
3.7406287
5.9396998
4.6816638
12.46247
3.6562471
14.641395
3.8165028
5.3492838
4.0679729
2.1141196
2.2007807
3.4243958
3.4172247
2.7344505
3.0016031
3.514418
3.9337857
5.2227439
4.5976031
4.3290202
27.164542
16.455301
10.815407
7.502296
6.5565814
6.8047437
8.3485452
7.0230591
6.7786709
6.4548968
6.6823426
6.4379696
6.7903435
11.638089
10.977129
13.077576
10.931158
21.132557
12.695763
11.295138
10.37462
11.565188
14.111582
13.64805
12.298866
12.599795
13.007572
11.628684
11.385324
12.184511
14.386609
16.299039
12.997822
4244.8629
3457.5642
989.06485
164.24502
9.8416613
1.093083
0.68438896
0.57949884
0.38449391
1.0537868
0.85768322
1.0828111
0.93148813
0.81352131
1.2525486
1.1370869
1.9322786
1.0924484
1.0723395
2.1167694
3.0596436
4.5149372
3.6578261
5.0682586
4.0048226
10.600348
3.372992
16.493901
3.9646842
4.608849
3.0856256
2.0917115
2.914631
3.1365494
4.4170936
2.8470439
3.0908782
3.360155
4.0177412
6.4581772
5.0711229
4.5299311
13.093013
8.6942349
7.6088628
5.9362161
6.3284295
6.9329299
8.8951306
7.0074639
6.8697662
6.8758895
8.6296316
7.1274149
7.0945018
19.916417
11.25161
17.964709
15.150383
10.369169
7.3121581
8.0407291
10.147946
10.35175
11.106526
12.915583
12.321961
11.725696
12.03521
11.270116
11.262883
12.401259
11.310089
13.719159
11.821526
8031.0581
1773.7692
220.76202
22.33954
1.6490221
0.73947671
0.68884328
0.63507643
0.34300779
0.47477073
0.83161446
1.0819599
0.87391043
0.74039475
1.3272914
1.0968138
1.7564866
0.84591275
1.4067806
2.0614815
3.1890356
7.071407
3.9332793
3.8560362
3.6296698
8.206656
3.3491343
10.548678
3.7364699
2.652748
2.3807519
2.0796827
3.1024132
5.3081901
5.2989067
3.1906052
3.3515174
3.4645128
3.68895
7.6723052
4.9479015
5.1289375
5.2001635
6.5923535
6.9746459
6.6741195
10.462003
7.5535103
8.1754335
7.362615
6.5834956
8.3239147
9.4367801
6.7323031
8.1467518
21.808021
9.0131606
19.202518
18.728349
9.2382799
9.870191
7.5408329
10.438233
10.247842
10.102533
12.246934
12.770285
11.602814
11.34315
11.116022
11.221303
11.395954
10.092444
10.454681
10.167512
1628.5659
343.02401
27.632444
2.8102866
0.95835648
0.74151238
0.68407229
0.81894509
0.34691005
0.34975742
0.81058487
1.0919046
0.83293216
0.80315604
1.4206131
1.0777077
1.6230223
0.83502611
1.6876113
2.0340035
3.572165
11.48201
4.2936515
3.0810899
2.8423925
5.2847008
3.5257748
4.0573082
3.6050369
2.4701128
2.0115436
2.0907823
2.7992974
5.1615995
4.4233168
2.9133987
3.4567947
3.743358
4.0085156
8.5565681
8.4097306
4.9436169
4.364377
7.5887819
7.3662094
8.4688072
11.66311
7.2875892
7.4394746
7.7111711
6.8761995
7.7883634
6.969628
6.0149404
8.7634201
19.288085
5.675419
8.7575925
14.059243
11.843847
25.964786
8.4131133
11.220299
10.513313
9.5377744
12.054309
13.727029
11.823696
11.169212
11.188154
11.211852
11.169142
9.9177268
9.4270483
10.242168
118.10983
34.356101
3.0427907
1.0597866
1.0074204
0.82561764
0.70982648
0.92415751
0.3819968
0.33395652
0.80856675
1.1680272
0.79951802
0.89203164
1.540139
1.0609488
1.5065399
0.87582116
1.6852227
1.9548741
3.624322
12.993832
4.5720224
2.8393121
2.4873704
3.2263691
3.4864572
3.1365795
3.7602773
2.5365143
1.8780497
2.2164425
2.3016828
4.202426
2.9891352
2.1740237
3.6477867
6.9091206
5.1388963
7.5651997
7.1082892
4.5062885
4.3795009
11.840803
5.9206706
6.6789231
7.5015356
6.6318142
8.4543834
7.3290071
8.0178132
7.4896529
5.6163815
5.9958392
9.5894537
9.9620836
5.3601912
7.1606424
8.7138537
23.043747
40.70546
10.881107
12.691541
10.486453
8.7368024
12.021082
14.261648
12.110084
11.259702
11.393453
11.107759
11.075267
10.085595
9.4774674
10.389963
4.8278829
2.9979009
0.97429375
0.99638899
1.1512449
0.95496683
0.71263973
0.94335276
0.48626075
0.35162955
0.81368343
1.2556506
0.7722055
0.77703461
1.6940458
1.0688517
1.4122136
1.0090806
1.5233449
1.7783691
3.3827004
9.6508748
4.4667714
2.7647274
2.3770939
2.6946825
4.8543571
3.9305671
3.952075
2.1955492
2.2574463
2.4012174
2.1510428
3.3901443
2.5254297
2.0232926
4.0084908
7.4000009
5.2887248
5.7265718
5.4662955
4.4766595
4.5146548
8.856026
5.1064377
6.854124
7.5630626
7.5373168
6.5001881
7.0429094
7.378482
8.3440427
6.2001279
5.7536526
9.0070402
9.1533813
5.44626
4.8942238
6.6224271
29.779258
36.104408
15.741934
15.14759
10.236412
8.1374708
10.387045
11.090179
12.185811
11.8841
11.461281
10.949412
11.33552
11.246991
9.9535286
11.507376
1.100007
0.94033182
0.84014103
1.124906
1.2376529
1.0757334
0.71281911
0.94556607
0.67186777
0.38382709
0.81869114
1.2804952
0.7558266
0.73657609
1.8998172
1.0981997
1.3398404
1.1886345
1.5401154
1.6184782
3.1228056
4.8233816
4.2872002
2.7524763
2.3709759
2.5015345
5.7335795
4.1543108
3.9996944
2.0922408
2.3586444
2.5418867
2.1974855
2.6529879
2.3017119
1.9906535
4.1855012
11.693214
5.876468
5.1029052
6.3709575
4.7298295
4.3001566
4.8348696
5.312739
8.0347024
6.4914513
11.414449
5.7332452
7.0641426
6.7013218
7.5986726
6.9620377
4.4167073
7.3217196
8.2295876
5.8612046
4.6259083
8.0297716
27.641665
38.534957
29.653643
17.065572
9.6227854
7.9580614
9.5439035
9.9009775
13.163755
13.010794
11.816164
11.027588
12.625909
12.401713
12.533036
12.976906
1.0187492
0.82824594
0.91480899
1.1826595
1.2634832
1.123956
0.69923213
0.91409956
0.85424458
0.41787642
0.82244423
1.2780913
0.73385319
0.87581723
2.1639072
1.1524432
1.2746122
1.3463461
1.769516
1.4889642
2.9282518
3.8342322
4.3947444
2.7705649
2.6312723
3.1081998
5.8831844
6.4842188
4.0553335
2.2058176
2.1316962
2.7758224
2.516171
2.439442
2.5219714
2.6036685
4.2322106
9.5850823
6.0210059
4.8869803
7.5236345
3.6740618
3.7892357
4.5814582
5.9587467
6.3669462
5.4681424
9.2917116
4.4549017
4.2587285
6.8462502
8.2200482
5.2537005
4.466061
8.2040178