/*--------------------------------*- C++ -*----------------------------------*\
| =========                 |                                                 |
| \\      /  F ield         | OpenFOAM: The Open Source CFD Toolbox           |
|  \\    /   O peration     | Version:  2.3.0                                 |
|   \\  /    A nd           | Web:      www.OpenFOAM.org                      |
|    \\/     M anipulation  |                                                 |
\*---------------------------------------------------------------------------*/
FoamFile
{
    version     2.0;
    format      ascii;
    class       surfaceScalarField;
    location    "2e-05";
    object      phi;
}
// * * * * * * * * * * * * * * * * * * * * * * * * * * * * * * * * * * * * * //

dimensions      [0 3 -1 0 0 0 0];

internalField   nonuniform List<scalar> 
14825
(
1.0339976e-09
-2.0236245e-11
1.0552562e-09
-2.1258549e-11
1.0749865e-09
-1.9730378e-11
1.0957428e-09
-2.07563e-11
1.1153724e-09
-1.9629574e-11
1.1360921e-09
-2.0719735e-11
1.1558316e-09
-1.9739451e-11
1.1762572e-09
-2.0425574e-11
1.1961227e-09
-1.986553e-11
1.2157783e-09
-1.9655616e-11
1.2359398e-09
-2.0161516e-11
1.2546475e-09
-1.8707703e-11
1.2752334e-09
-2.0585884e-11
1.2929584e-09
-1.7725005e-11
1.3138031e-09
-2.0844676e-11
1.3310297e-09
-1.7226608e-11
1.3516249e-09
-2.059521e-11
1.3688117e-09
-1.7186741e-11
1.3885903e-09
-1.9778642e-11
1.4060362e-09
-1.7445879e-11
1.4246174e-09
-1.8581198e-11
1.4427477e-09
-1.8130293e-11
1.4599097e-09
-1.7161981e-11
1.4783507e-09
-1.8440993e-11
1.4947563e-09
-1.6405691e-11
1.5123998e-09
-1.7643437e-11
1.5294189e-09
-1.7019127e-11
1.5451168e-09
-1.5697855e-11
1.5630084e-09
-1.7891632e-11
1.5774812e-09
-1.4472828e-11
1.5951454e-09
-1.7664138e-11
1.6099276e-09
-1.4782223e-11
1.6257554e-09
-1.5827771e-11
1.6413725e-09
-1.561712e-11
1.6554493e-09
-1.4076776e-11
1.6715915e-09
-1.6142205e-11
1.6843211e-09
-1.2729655e-11
1.7004639e-09
-1.6142779e-11
1.712471e-09
-1.2007085e-11
1.7279049e-09
-1.543391e-11
1.7404034e-09
-1.2498534e-11
1.7536212e-09
-1.3217752e-11
1.766229e-09
-1.2607833e-11
1.7793384e-09
-1.3109365e-11
1.7918997e-09
-1.2561354e-11
1.8024005e-09
-1.0500811e-11
1.8159447e-09
-1.3544111e-11
1.8257928e-09
-9.8481179e-12
1.83822e-09
-1.2427265e-11
1.8478127e-09
-9.5926903e-12
1.8587699e-09
-1.0957143e-11
1.8692797e-09
-1.050983e-11
1.8776529e-09
-8.3732112e-12
1.8886849e-09
-1.1031977e-11
1.8967103e-09
-8.0253944e-12
1.905132e-09
-8.4217163e-12
1.9139416e-09
-8.8096283e-12
1.9206035e-09
-6.6618731e-12
1.9286989e-09
-8.0954119e-12
1.9369128e-09
-8.2138684e-12
1.9422159e-09
-5.3031655e-12
1.9493504e-09
-7.134404e-12
1.956584e-09
-7.2336449e-12
1.9620575e-09
-5.4734876e-12
1.9685107e-09
-6.453212e-12
1.9745931e-09
-6.0823574e-12
1.9793187e-09
-4.7256061e-12
1.9849745e-09
-5.6558515e-12
1.9900111e-09
-5.0365473e-12
1.99319e-09
-3.1788924e-12
1.9966204e-09
-3.4304326e-12
2.0020752e-09
-5.4547703e-12
2.0038887e-09
-1.8135202e-12
2.006077e-09
-2.1882918e-12
-2.8477771e-12
2.8614289e-09
-7.969923e-11
2.9236229e-09
-8.3452558e-11
2.9818276e-09
-7.7935009e-11
3.0431117e-09
-8.2040489e-11
3.101283e-09
-7.7800868e-11
3.1624471e-09
-8.1883781e-11
3.2211048e-09
-7.839715e-11
3.2815649e-09
-8.0885738e-11
3.3409306e-09
-7.9231208e-11
3.3994832e-09
-7.8208218e-11
3.4597189e-09
-8.039714e-11
3.5160017e-09
-7.4990567e-11
3.5773347e-09
-8.1918829e-11
3.6313089e-09
-7.1699269e-11
3.6933655e-09
-8.2901228e-11
3.7462207e-09
-7.0081837e-11
3.8077402e-09
-8.2114697e-11
3.8606875e-09
-7.0134028e-11
3.9200871e-09
-7.9178298e-11
3.9739394e-09
-7.1298133e-11
4.0302742e-09
-7.4915995e-11
4.0859469e-09
-7.3802993e-11
4.1389227e-09
-7.0137766e-11
4.19522e-09
-7.4738292e-11
4.2466738e-09
-6.7859511e-11
4.3007042e-09
-7.167389e-11
4.3539248e-09
-7.0239701e-11
4.4030347e-09
-6.4807741e-11
4.4582381e-09
-7.3095048e-11
4.5047112e-09
-6.0945948e-11
4.5591511e-09
-7.2103973e-11
4.606334e-09
-6.1965178e-11
4.656642e-09
-6.6135712e-11
4.7055018e-09
-6.4476964e-11
4.7515197e-09
-6.0094704e-11
4.802012e-09
-6.6634453e-11
4.8443939e-09
-5.5111602e-11
4.8947624e-09
-6.6511284e-11
4.9355638e-09
-5.2808444e-11
4.9842318e-09
-6.4101858e-11
5.0256917e-09
-5.3958496e-11
5.0698362e-09
-5.7362285e-11
5.1111346e-09
-5.3906184e-11
5.1548549e-09
-5.6829683e-11
5.1959379e-09
-5.3644322e-11
5.233153e-09
-4.7715889e-11
5.2767288e-09
-5.7119987e-11
5.3121468e-09
-4.5266067e-11
5.3529074e-09
-5.3187855e-11
5.3875388e-09
-4.4224064e-11
5.4250798e-09
-4.8498211e-11
5.4610398e-09
-4.6469811e-11
5.4925537e-09
-3.9887082e-11
5.5292644e-09
-4.7742654e-11
5.5597514e-09
-3.8512446e-11
5.5907443e-09
-3.9414636e-11
5.6216463e-09
-3.9711642e-11
5.6488153e-09
-3.3830851e-11
5.6785055e-09
-3.7785602e-11
5.7079464e-09
-3.7654808e-11
5.7307895e-09
-2.8146242e-11
5.7579443e-09
-3.4289168e-11
5.7851922e-09
-3.4481544e-11
5.8081318e-09
-2.8413137e-11
5.8346941e-09
-3.3015431e-11
5.8594265e-09
-3.0814829e-11
5.8806907e-09
-2.5989788e-11
5.9043192e-09
-2.9284328e-11
5.9264333e-09
-2.7150702e-11
5.942606e-09
-1.9351526e-11
5.960289e-09
-2.1113467e-11
5.983677e-09
-2.8842718e-11
5.997013e-09
-1.5149563e-11
6.0109244e-09
-1.609969e-11
-1.8866966e-11
4.364885e-09
-1.7647474e-10
4.4655878e-09
-1.8415529e-10
4.5608992e-09
-1.7324646e-10
4.6609452e-09
-1.8208652e-10
4.7567466e-09
-1.736022e-10
4.8565719e-09
-1.8170915e-10
4.9532104e-09
-1.7503564e-10
5.0524818e-09
-1.8015707e-10
5.1504569e-09
-1.7720637e-10
5.2475736e-09
-1.7532491e-10
5.3468847e-09
-1.7970826e-10
5.4413267e-09
-1.6943252e-10
5.5420975e-09
-1.8268963e-10
5.6338006e-09
-1.6340234e-10
5.7356042e-09
-1.8470486e-10
5.8260451e-09
-1.6052278e-10
5.9272449e-09
-1.8331448e-10
6.0181321e-09
-1.6102125e-10
6.1166308e-09
-1.7767692e-10
6.2088669e-09
-1.6353427e-10
6.3038636e-09
-1.6991266e-10
6.3980689e-09
-1.6800834e-10
6.4895169e-09
-1.6158581e-10
6.5840635e-09
-1.6928489e-10
6.6739393e-09
-1.5773525e-10
6.7656427e-09
-1.6337727e-10
6.8574014e-09
-1.6199847e-10
6.9431263e-09
-1.5053257e-10
7.037187e-09
-1.6715579e-10
7.119537e-09
-1.4329594e-10
7.2130535e-09
-1.6562052e-10
7.2956453e-09
-1.4455697e-10
7.3846682e-09
-1.5515855e-10
7.4689326e-09
-1.4874139e-10
7.5525851e-09
-1.4374717e-10
7.6392398e-09
-1.5328916e-10
7.7177397e-09
-1.3361152e-10
7.8042082e-09
-1.529798e-10
7.8804504e-09
-1.2905059e-10
7.9655545e-09
-1.49206e-10
8.0405568e-09
-1.2896083e-10
8.1217814e-09
-1.3858686e-10
8.1956791e-09
-1.2780382e-10
8.2771319e-09
-1.3828252e-10
8.3507863e-09
-1.2729875e-10
8.424254e-09
-1.2118356e-10
8.501e-09
-1.3386603e-10
8.5699626e-09
-1.1422864e-10
8.6434536e-09
-1.2667881e-10
8.7101066e-09
-1.1087715e-10
8.7809852e-09
-1.1937679e-10
8.8469937e-09
-1.1247825e-10
8.9109767e-09
-1.0387011e-10
8.9779274e-09
-1.146934e-10
9.0397641e-09
-1.0034908e-10
9.1010678e-09
-1.0071836e-10
9.1604411e-09
-9.9084985e-11
9.2180301e-09
-9.1419848e-11
9.2772889e-09
-9.7044334e-11
9.3343863e-09
-9.4752253e-11
9.3848733e-09
-7.8633211e-11
9.4412474e-09
-9.0663303e-11
9.4967209e-09
-8.9955022e-11
9.5464943e-09
-7.818655e-11
9.6026261e-09
-8.9147168e-11
9.6547467e-09
-8.29355e-11
9.701608e-09
-7.285109e-11
9.752477e-09
-8.015326e-11
9.8010704e-09
-7.5744171e-11
9.8409364e-09
-5.9217506e-11
9.8832323e-09
-6.340937e-11
9.933789e-09
-7.9399432e-11
9.9696525e-09
-5.1013004e-11
1.0005356e-08
-5.1803353e-11
-5.8509376e-11
5.5885976e-09
-3.0860159e-10
5.7253126e-09
-3.2087032e-10
5.856589e-09
-3.0452286e-10
5.9934313e-09
-3.1892882e-10
6.1258421e-09
-3.0601297e-10
6.2624195e-09
-3.1828664e-10
6.395988e-09
-3.0860408e-10
6.5324666e-09
-3.1663569e-10
6.6680561e-09
-3.1279586e-10
6.8031342e-09
-3.1040297e-10
6.9404618e-09
-3.1703595e-10
7.0736483e-09
-3.0261901e-10
7.2124324e-09
-3.2147371e-10
7.3431444e-09
-2.9411437e-10
7.4827853e-09
-3.2434573e-10
7.612554e-09
-2.9029148e-10
7.7516601e-09
-3.2242056e-10
7.8826436e-09
-2.9200476e-10
8.0191898e-09
-3.1422312e-10
8.1514507e-09
-2.9579519e-10
8.2854513e-09
-3.0391327e-10
8.4189714e-09
-3.0152839e-10
8.5509239e-09
-2.9353829e-10
8.6837696e-09
-3.0213057e-10
8.8149886e-09
-2.8895426e-10
8.9453257e-09
-2.9371443e-10
9.0774988e-09
-2.9417152e-10
9.2025117e-09
-2.755455e-10
9.3364394e-09
-3.0108349e-10
9.4575222e-09
-2.6437871e-10
9.5922736e-09
-3.0037196e-10
9.7122518e-09
-2.6453521e-10
9.8435313e-09
-2.8643799e-10
9.9650216e-09
-2.7023168e-10
1.0091301e-08
-2.7002616e-10
1.0215159e-08
-2.7714793e-10
1.0335938e-08
-2.5438979e-10
1.0459523e-08
-2.7656557e-10
1.0577699e-08
-2.4722637e-10
1.0700964e-08
-2.7247083e-10
1.0814974e-08
-2.4297118e-10
1.0938075e-08
-2.6168731e-10
1.105008e-08
-2.398086e-10
1.1173836e-08
-2.6203861e-10
1.1282403e-08
-2.3586637e-10
1.1399486e-08
-2.3826602e-10
1.1511209e-08
-2.4558974e-10
1.1622129e-08
-2.2514773e-10
1.1731934e-08
-2.3648423e-10
1.1836247e-08
-2.1519002e-10
1.1944938e-08
-2.280678e-10
1.2045774e-08
-2.1331441e-10
1.2150689e-08
-2.0878541e-10
1.2251917e-08
-2.159212e-10
1.2354434e-08
-2.0286603e-10
1.2452318e-08
-1.9860189e-10
1.2547945e-08
-1.9471269e-10
1.2645368e-08
-1.8884281e-10
1.2741338e-08
-1.9301436e-10
1.2832376e-08
-1.8578996e-10
1.291968e-08
-1.6593758e-10
1.3012466e-08
-1.8344892e-10
1.3102753e-08
-1.8024191e-10
1.3187271e-08
-1.627045e-10
1.3280102e-08
-1.8197883e-10
1.3368034e-08
-1.7086708e-10
1.3449371e-08
-1.5418785e-10
1.3536019e-08
-1.6680145e-10
1.3618037e-08
-1.5776192e-10
1.3691453e-08
-1.3263408e-10
1.3766858e-08
-1.3881438e-10
1.3850802e-08
-1.6334291e-10
1.3919387e-08
-1.1959867e-10
1.3988929e-08
-1.2134445e-10
-1.3132893e-10
6.5711044e-09
-4.7393471e-10
6.7419164e-09
-4.9168226e-10
6.9075459e-09
-4.7015238e-10
7.0797166e-09
-4.910995e-10
7.246976e-09
-4.7327243e-10
7.4188513e-09
-4.9016189e-10
7.5878636e-09
-4.7761638e-10
7.7599991e-09
-4.8877116e-10
7.9319906e-09
-4.8478743e-10
8.1041423e-09
-4.8255459e-10
8.278491e-09
-4.9138466e-10
8.4504553e-09
-4.7458331e-10
8.6263036e-09
-4.9732201e-10
8.7966603e-09
-4.644711e-10
8.9726953e-09
-5.0038073e-10
9.1428872e-09
-4.6048333e-10
9.318038e-09
-4.9757142e-10
9.4905056e-09
-4.6447234e-10
9.6639437e-09
-4.876612e-10
9.8378557e-09
-4.697072e-10
1.0010853e-08
-4.7691067e-10
1.0184327e-08
-4.7500236e-10
1.0357335e-08
-4.6654631e-10
1.0529306e-08
-4.7410189e-10
1.0703317e-08
-4.6296498e-10
1.0873307e-08
-4.6370406e-10
1.1047102e-08
-4.6796691e-10
1.1213278e-08
-4.4172114e-10
1.1388436e-08
-4.7624123e-10
1.1550133e-08
-4.2607663e-10
1.1727849e-08
-4.7808733e-10
1.1887007e-08
-4.2369335e-10
1.2063122e-08
-4.6255349e-10
1.2223841e-08
-4.309502e-10
1.2396594e-08
-4.4277929e-10
1.2558702e-08
-4.3925613e-10
1.2726548e-08
-4.2223516e-10
1.2888481e-08
-4.3849857e-10
1.3054374e-08
-4.1312017e-10
1.3216013e-08
-4.3410888e-10
1.3375492e-08
-4.024502e-10
1.3541103e-08
-4.2729845e-10
1.3697259e-08
-3.9596513e-10
1.3865095e-08
-4.2987452e-10
1.4014591e-08
-3.85362e-10
1.4181345e-08
-4.0502043e-10
1.4329594e-08
-3.9383829e-10
1.4485346e-08
-3.809004e-10
1.4633102e-08
-3.8423992e-10
1.4782479e-08
-3.645665e-10
1.4933953e-08
-3.7954252e-10
1.5076362e-08
-3.5572296e-10
1.522609e-08
-3.5851381e-10
1.5368204e-08
-3.5803466e-10
1.5520695e-08
-3.553575e-10
1.5659394e-08
-3.3730119e-10
1.5800858e-08
-3.3617603e-10
1.5946161e-08
-3.3414564e-10
1.6084906e-08
-3.3175932e-10
1.621631e-08
-3.1719452e-10
1.6349201e-08
-2.988287e-10
1.6483257e-08
-3.1750458e-10
1.6614795e-08
-3.1177996e-10
1.6741496e-08
-2.8940509e-10
1.6876743e-08
-3.1722576e-10
1.70056e-08
-2.9972444e-10
1.7128117e-08
-2.7670505e-10
1.7256721e-08
-2.9540571e-10
1.7379309e-08
-2.8034944e-10
1.7496584e-08
-2.4990949e-10
1.761601e-08
-2.5824035e-10
1.7738796e-08
-2.8612875e-10
1.7848753e-08
-2.2955531e-10
1.7960621e-08
-2.3321312e-10
-2.4591077e-10
7.3461728e-09
-6.7026092e-10
7.5499755e-09
-6.9548494e-10
7.7475556e-09
-6.6773255e-10
7.9542464e-09
-6.977903e-10
8.1539427e-09
-6.7296871e-10
8.360354e-09
-6.9657322e-10
8.5630211e-09
-6.8028344e-10
8.7698558e-09
-6.9560586e-10
8.9767353e-09
-6.9166692e-10
9.1848223e-09
-6.9064157e-10
9.3949414e-09
-7.0150379e-10
9.604725e-09
-6.8436694e-10
9.8167122e-09
-7.0930914e-10
1.0026654e-08
-6.7441265e-10
1.0237975e-08
-7.1170235e-10
1.0449298e-08
-6.7180594e-10
1.0659387e-08
-7.0766077e-10
1.0874016e-08
-6.7910128e-10
1.1083615e-08
-6.9725992e-10
1.1299349e-08
-6.8544107e-10
1.1510941e-08
-6.8850241e-10
1.1725546e-08
-6.8960798e-10
1.1939095e-08
-6.8009504e-10
1.2151535e-08
-6.8654209e-10
1.2367812e-08
-6.7924231e-10
1.2579254e-08
-6.7514592e-10
1.2794815e-08
-6.8352754e-10
1.3004075e-08
-6.5098145e-10
1.3221251e-08
-6.9341697e-10
1.3425684e-08
-6.3050915e-10
1.3647233e-08
-6.9963703e-10
1.3847876e-08
-6.2433575e-10
1.4069557e-08
-6.8423489e-10
1.4272208e-08
-6.3360152e-10
1.4493352e-08
-6.6392289e-10
1.4696305e-08
-6.4220943e-10
1.4914423e-08
-6.4035337e-10
1.5118033e-08
-6.4210835e-10
1.5335375e-08
-6.3046222e-10
1.553525e-08
-6.3398404e-10
1.574499e-08
-6.1218974e-10
1.5951266e-08
-6.3357475e-10
1.61572e-08
-6.0189892e-10
1.6366686e-08
-6.3936022e-10
1.6562717e-08
-5.813936e-10
1.6780606e-08
-6.2290893e-10
1.6970606e-08
-5.8383868e-10
1.7180001e-08
-5.9029504e-10
1.7371596e-08
-5.7583462e-10
1.7572191e-08
-5.6516143e-10
1.7763449e-08
-5.7080102e-10
1.7957539e-08
-5.498127e-10
1.8154992e-08
-5.5596721e-10
1.8346553e-08
-5.4959589e-10
1.8552709e-08
-5.6151343e-10
1.8735152e-08
-5.1974403e-10
1.8930765e-08
-5.3178919e-10
1.9129357e-08
-5.3273682e-10
1.9314722e-08
-5.1712491e-10
1.9493577e-08
-4.9604949e-10
1.9679003e-08
-4.8425493e-10
1.9859788e-08
-4.9828973e-10
2.0036844e-08
-4.8883564e-10
2.0212963e-08
-4.6552358e-10
2.039751e-08
-5.017727e-10
2.0574705e-08
-4.7691962e-10
2.074775e-08
-4.4974996e-10
2.0927326e-08
-4.7498248e-10
2.1094778e-08
-4.4780122e-10
2.1259201e-08
-4.143326e-10
2.1427391e-08
-4.264299e-10
2.1595944e-08
-4.5468169e-10
2.1758565e-08
-3.9217651e-10
2.1921107e-08
-3.9575532e-10
-4.0981408e-10
7.9441349e-09
-8.9615932e-10
8.1790952e-09
-9.304452e-10
8.4066368e-09
-8.9527419e-10
8.6466712e-09
-9.3782464e-10
8.8767139e-09
-9.030114e-10
9.1172829e-09
-9.371423e-10
9.351757e-09
-9.1475752e-10
9.5929824e-09
-9.368312e-10
9.8326036e-09
-9.3128812e-10
1.0075552e-08
-9.3359004e-10
1.0319366e-08
-9.4531798e-10
1.0565162e-08
-9.3016259e-10
1.0812044e-08
-9.5619128e-10
1.1060311e-08
-9.2267951e-10
1.1306722e-08
-9.5811359e-10
1.155863e-08
-9.2371348e-10
1.1803905e-08
-9.5293626e-10
1.2059957e-08
-9.3515268e-10
1.2305794e-08
-9.4309698e-10
1.2562859e-08
-9.4250651e-10
1.2812452e-08
-9.380949e-10
1.3068792e-08
-9.4594867e-10
1.3321205e-08
-9.3250772e-10
1.3576696e-08
-9.4203366e-10
1.3833165e-08
-9.357109e-10
1.408831e-08
-9.3029082e-10
1.4345277e-08
-9.4049457e-10
1.4599998e-08
-9.057025e-10
1.4859629e-08
-9.5304817e-10
1.5109338e-08
-8.8021821e-10
1.5375272e-08
-9.6557051e-10
1.5620079e-08
-8.6914272e-10
1.5887629e-08
-9.5178543e-10
1.613483e-08
-8.8080196e-10
1.6404719e-08
-9.3381223e-10
1.6650381e-08
-8.8787126e-10
1.6919414e-08
-9.0938609e-10
1.7167296e-08
-8.8999116e-10
1.7437278e-08
-9.004442e-10
1.7677803e-08
-8.7450871e-10
1.7943717e-08
-8.7810353e-10
1.8190795e-08
-8.8065244e-10
1.8452361e-08
-8.6346563e-10
1.8701495e-08
-8.8849403e-10
1.8951107e-08
-8.3100539e-10
1.9216491e-08
-8.8829354e-10
1.9454747e-08
-8.2209415e-10
1.971839e-08
-8.5393794e-10
1.9960639e-08
-8.180838e-10
2.0221948e-08
-8.2647046e-10
2.0459384e-08
-8.0823696e-10
2.07132e-08
-8.0362832e-10
2.0951971e-08
-7.9473905e-10
2.1200075e-08
-7.9769905e-10
2.1457965e-08
-8.1940336e-10
2.1686403e-08
-7.4818199e-10
2.1944813e-08
-7.9020014e-10
2.2197505e-08
-7.854286e-10
2.2431846e-08
-7.5146534e-10
2.2666021e-08
-7.3022461e-10
2.2909011e-08
-7.2724534e-10
2.3142621e-08
-7.3189904e-10
2.3373148e-08
-7.1936321e-10
2.3602444e-08
-6.9481974e-10
2.3838993e-08
-7.3832174e-10
2.4069739e-08
-7.0766484e-10
2.4299394e-08
-6.7940538e-10
2.4538806e-08
-7.1439415e-10
2.476214e-08
-6.7113555e-10
2.4988957e-08
-6.4114919e-10
2.5214919e-08
-6.5239261e-10
2.5430904e-08
-6.7066676e-10
2.5645715e-08
-6.0698749e-10
2.5867418e-08
-6.1745853e-10
-6.2958451e-10
8.392148e-09
-1.1516004e-09
8.6537307e-09
-1.1920278e-09
8.9117396e-09
-1.1532832e-09
9.1813716e-09
-1.2074566e-09
9.4413753e-09
-1.1630151e-09
9.7144897e-09
-1.2102567e-09
9.978841e-09
-1.1791089e-09
1.0254076e-08
-1.2120663e-09
1.0523657e-08
-1.2008694e-09
1.0800926e-08
-1.2108585e-09
1.1076057e-08
-1.2204495e-09
1.1356312e-08
-1.2104173e-09
1.1637402e-08
-1.2372815e-09
1.1921126e-08
-1.206403e-09
1.2203955e-08
-1.240943e-09
1.249357e-08
-1.2133281e-09
1.2775734e-08
-1.2351002e-09
1.3071688e-08
-1.2311066e-09
1.3353995e-08
-1.2254048e-09
1.365263e-08
-1.2411415e-09
1.3938683e-08
-1.2241478e-09
1.4238156e-08
-1.2454212e-09
1.4527656e-08
-1.2220082e-09
1.482817e-08
-1.2425472e-09
1.5124091e-08
-1.2316319e-09
1.5424664e-08
-1.230864e-09
1.5722585e-08
-1.2384159e-09
1.6024632e-08
-1.2077492e-09
1.6326837e-08
-1.255253e-09
1.6624563e-08
-1.1779439e-09
1.6934669e-08
-1.2756767e-09
1.7226403e-08
-1.1608771e-09
1.7539983e-08
-1.2653654e-09
1.7833732e-08
-1.1745513e-09
1.8151688e-08
-1.2517682e-09
1.8442413e-08
-1.1785955e-09
1.8761207e-08
-1.2281807e-09
1.9056871e-08
-1.1856548e-09
1.9377058e-08
-1.2206317e-09
1.9662767e-08
-1.1602174e-09
1.9985646e-08
-1.2009826e-09
2.0276849e-08
-1.1718558e-09
2.059823e-08
-1.1848458e-09
2.0889493e-08
-1.1797572e-09
2.1202367e-08
-1.1438792e-09
2.1513976e-08
-1.1999034e-09
2.1809884e-08
-1.1180013e-09
2.2121662e-08
-1.1657161e-09
2.2420064e-08
-1.1164865e-09
2.2737391e-08
-1.143797e-09
2.3022395e-08
-1.0932407e-09
2.3341918e-08
-1.1231518e-09
2.3626977e-08
-1.0797983e-09
2.3942391e-08
-1.1131126e-09
2.4243974e-08
-1.1209868e-09
2.4523289e-08
-1.0274965e-09
2.4846127e-08
-1.1130383e-09
2.5146657e-08
-1.0859584e-09
2.5437162e-08
-1.0419702e-09
2.5735335e-08
-1.0283981e-09
2.6036473e-08
-1.0283833e-09
2.6324148e-08
-1.0195742e-09
2.6616282e-08
-1.0114969e-09
2.6905296e-08
-9.8383331e-10
2.7203833e-08
-1.0368589e-09
2.7490267e-08
-9.9409962e-10
2.7777886e-08
-9.6702344e-10
2.8073284e-08
-1.0097925e-09
2.8351303e-08
-9.491547e-10
2.8643981e-08
-9.3382714e-10
2.8930296e-08
-9.3870771e-10
2.9208355e-08
-9.4872567e-10
2.9489408e-08
-8.8804023e-10
2.9764298e-08
-8.9234865e-10
-9.0889298e-10
8.7124583e-09
-1.4363507e-09
8.9953157e-09
-1.4748852e-09
9.2853154e-09
-1.4432829e-09
9.5781462e-09
-1.5002874e-09
9.8694141e-09
-1.454283e-09
1.0170508e-08
-1.5113506e-09
1.046424e-08
-1.4728405e-09
1.0771582e-08
-1.5194083e-09
1.1069852e-08
-1.4991393e-09
1.1381085e-08
-1.5220921e-09
1.1686565e-08
-1.5259293e-09
1.200089e-08
-1.5247419e-09
1.2316029e-08
-1.5524213e-09
1.2633036e-08
-1.5234097e-09
1.2953822e-08
-1.5617289e-09
1.3277314e-08
-1.5368199e-09
1.3598896e-08
-1.556682e-09
1.3931769e-08
-1.5639802e-09
1.4252039e-08
-1.5456749e-09
1.4591968e-08
-1.5810704e-09
1.4914289e-08
-1.5464684e-09
1.5257613e-08
-1.5887449e-09
1.5583696e-08
-1.5480917e-09
1.5930026e-08
-1.5888768e-09
1.6264954e-08
-1.5665605e-09
1.6610983e-08
-1.576893e-09
1.6950707e-08
-1.5781398e-09
1.7300035e-08
-1.5570771e-09
1.7643753e-08
-1.5989707e-09
1.7991907e-08
-1.5260984e-09
1.8343186e-08
-1.6269556e-09
1.8685134e-08
-1.502825e-09
1.9042874e-08
-1.6231049e-09
1.9385607e-08
-1.5172841e-09
1.9749471e-08
-1.6156323e-09
2.0089267e-08
-1.5183917e-09
2.0456304e-08
-1.5952177e-09
2.0803535e-08
-1.5328863e-09
2.1169896e-08
-1.5869923e-09
2.1508516e-08
-1.498838e-09
2.1884333e-08
-1.5767988e-09
2.2224734e-08
-1.5122572e-09
2.260196e-08
-1.5620717e-09
2.2938948e-08
-1.5167456e-09
2.3317142e-08
-1.5220732e-09
2.366816e-08
-1.550921e-09
2.4029773e-08
-1.4796146e-09
2.4384991e-08
-1.5209332e-09
2.4748794e-08
-1.4802902e-09
2.5113769e-08
-1.5087714e-09
2.5450321e-08
-1.4297926e-09
2.5825816e-08
-1.4986477e-09
2.6158962e-08
-1.4129438e-09
2.6546022e-08
-1.5001728e-09
2.6886053e-08
-1.4610176e-09
2.7230683e-08
-1.3721263e-09
2.7618003e-08
-1.5003584e-09
2.7957113e-08
-1.4250682e-09
2.8300065e-08
-1.3849228e-09
2.8672618e-08
-1.4009504e-09
2.9024396e-08
-1.3801619e-09
2.9363147e-08
-1.3583248e-09
2.9716359e-08
-1.3647087e-09
3.0061554e-08
-1.3290287e-09
3.0418024e-08
-1.3933292e-09
3.0761478e-08
-1.3375532e-09
3.1109913e-08
-1.3154585e-09
3.145714e-08
-1.3570196e-09
3.1790427e-08
-1.2824415e-09
3.2150343e-08
-1.2937437e-09
3.2483369e-08
-1.271733e-09
3.2813175e-08
-1.2785326e-09
3.3159172e-08
-1.2340365e-09
3.3496513e-08
-1.22969e-09
-1.2449943e-09
8.9212371e-09
-1.7468077e-09
9.2239744e-09
-1.7776225e-09
9.5439575e-09
-1.763266e-09
9.85617e-09
-1.8124999e-09
1.0179408e-08
-1.7775209e-09
1.0503485e-08
-1.8354277e-09
1.0829085e-08
-1.7984405e-09
1.1164369e-08
-1.8546922e-09
1.1493902e-08
-1.8286721e-09
1.1836776e-08
-1.8649667e-09
1.21737e-08
-1.8628524e-09
1.2521777e-08
-1.8728194e-09
1.2869755e-08
-1.9003991e-09
1.3220762e-08
-1.8744169e-09
1.3577552e-08
-1.9185188e-09
1.3934074e-08
-1.8933423e-09
1.4295904e-08
-1.918512e-09
1.4661034e-08
-1.9291097e-09
1.5023701e-08
-1.9083425e-09
1.539854e-08
-1.9559087e-09
1.5762365e-08
-1.9102941e-09
1.6144091e-08
-1.9704704e-09
1.6510088e-08
-1.9140889e-09
1.6900442e-08
-1.979231e-09
1.7273616e-08
-1.9397339e-09
1.7664899e-08
-1.9681761e-09
1.8044784e-08
-1.9580247e-09
1.8441537e-08
-1.9538303e-09
1.8823913e-08
-1.9813467e-09
1.9225525e-08
-1.9277108e-09
1.9610787e-08
-2.0122171e-09
2.000986e-08
-1.9018982e-09
2.0405068e-08
-2.0183131e-09
2.0800918e-08
-1.9131337e-09
2.1205747e-08
-2.0204612e-09
2.1598024e-08
-1.9106688e-09
2.201251e-08
-2.0097043e-09
2.2409874e-08
-1.9302497e-09
2.2819096e-08
-1.996215e-09
2.3214279e-08
-1.8940201e-09
2.3635021e-08
-1.9975417e-09
2.4027347e-08
-1.9045827e-09
2.4450811e-08
-1.9855359e-09
2.4833571e-08
-1.8995058e-09
2.5273517e-08
-1.9620188e-09
2.5653831e-08
-1.9312353e-09
2.6081204e-08
-1.906988e-09
2.6468676e-08
-1.9084049e-09
2.6899302e-08
-1.9109164e-09
2.7302537e-08
-1.9120057e-09
2.7701915e-08
-1.8291707e-09
2.8114472e-08
-1.9112052e-09
2.8502156e-08
-1.8006279e-09
2.8942517e-08
-1.9405337e-09
2.9305393e-08
-1.8238932e-09
2.9718295e-08
-1.7850284e-09
3.0167194e-08
-1.9492577e-09
3.0532484e-08
-1.7903586e-09
3.0923717e-08
-1.7761554e-09
3.1366373e-08
-1.8436065e-09
3.1748454e-08
-1.7622425e-09
3.2134082e-08
-1.7439532e-09
3.2539263e-08
-1.7698891e-09
3.2930807e-08
-1.7205733e-09
3.3341762e-08
-1.8042835e-09
3.3726198e-08
-1.7219895e-09
3.4141298e-08
-1.7305581e-09
3.4538777e-08
-1.7544993e-09
3.4914813e-08
-1.6584772e-09
3.5332731e-08
-1.7116618e-09
3.5706948e-08
-1.64595e-09
3.6080918e-08
-1.6525026e-09
3.6476397e-08
-1.6295153e-09
3.6866414e-08
-1.6197073e-09
-1.6281708e-09
9.0323201e-09
-2.0762195e-09
9.3590931e-09
-2.1043955e-09
9.7029755e-09
-2.1071484e-09
1.0037857e-08
-2.1473812e-09
1.0390202e-08
-2.1298662e-09
1.0737059e-08
-2.182285e-09
1.109573e-08
-2.1571111e-09
1.1454851e-08
-2.2138137e-09
1.1818736e-08
-2.1925567e-09
1.2188201e-08
-2.2344318e-09
1.25583e-08
-2.2329516e-09
1.2936982e-08
-2.2515014e-09
1.3316378e-08
-2.2797945e-09
1.3701489e-08
-2.259528e-09
1.4089761e-08
-2.3067915e-09
1.4481157e-08
-2.284738e-09
1.487994e-08
-2.3172949e-09
1.5274787e-08
-2.3239569e-09
1.5683054e-08
-2.3166092e-09
1.6083819e-08
-2.3566738e-09
1.6498201e-08
-2.3246761e-09
1.6905549e-08
-2.3778183e-09
1.7321144e-08
-2.3296843e-09
1.77472e-08
-2.4052865e-09
1.8161252e-08
-2.3537862e-09
1.8596659e-08
-2.4035834e-09
1.9013244e-08
-2.3746097e-09
1.9459238e-08
-2.3998236e-09
1.9873977e-08
-2.3960859e-09
2.0335058e-08
-2.3887919e-09
2.0740947e-08
-2.4181062e-09
2.1207318e-08
-2.3682688e-09
2.1626528e-08
-2.4375232e-09
2.2079526e-08
-2.3661321e-09
2.2514318e-08
-2.455253e-09
2.2958418e-08
-2.3547684e-09
2.3415146e-08
-2.4664331e-09
2.3850422e-08
-2.3655254e-09
2.4296768e-08
-2.442561e-09
2.4745527e-08
-2.342779e-09
2.5191853e-08
-2.4438675e-09
2.5637755e-08
-2.3504846e-09
2.6088463e-08
-2.436244e-09
2.6511364e-08
-2.3224065e-09
2.7002638e-08
-2.453293e-09
2.7398059e-08
-2.3266563e-09
2.7879733e-08
-2.3886622e-09
2.8290719e-08
-2.3193914e-09
2.8776815e-08
-2.3970124e-09
2.9196532e-08
-2.3317226e-09
2.9663228e-08
-2.2958659e-09
3.0078528e-08
-2.3265053e-09
3.0537915e-08
-2.2600151e-09
3.0997034e-08
-2.399653e-09
3.1373146e-08
-2.2000053e-09
3.1849679e-08
-2.2615612e-09
3.2317204e-08
-2.4167828e-09
3.2696238e-08
-2.1693923e-09
3.311334e-08
-2.1932569e-09
3.3648353e-08
-2.3786202e-09
3.403698e-08
-2.1508691e-09
3.4456909e-08
-2.1638821e-09
3.4920767e-08
-2.2337474e-09
3.5337951e-08
-2.1377578e-09
3.5815515e-08
-2.2818471e-09
3.6181143e-08
-2.0876173e-09
3.6667448e-08
-2.2168638e-09
3.70824e-08
-2.1694514e-09
3.7415718e-08
-1.9917945e-09
3.791046e-08
-2.2064041e-09
3.8274819e-08
-2.0103087e-09
3.8567192e-08
-1.944876e-09
3.8955972e-08
-2.0182952e-09
3.9252966e-08
-1.9167009e-09
-1.8789981e-09
9.0649974e-09
-2.4223789e-09
9.4188718e-09
-2.4582699e-09
9.7813518e-09
-2.4696284e-09
1.0143867e-08
-2.5098967e-09
1.0518473e-08
-2.5044717e-09
1.0892052e-08
-2.5558644e-09
1.1277363e-08
-2.542422e-09
1.1661152e-08
-2.5976028e-09
1.205539e-08
-2.586794e-09
1.2449296e-08
-2.6283385e-09
1.2850961e-08
-2.6346168e-09
1.3256906e-08
-2.6574461e-09
1.366739e-08
-2.6902785e-09
1.4083755e-08
-2.6758931e-09
1.4502538e-08
-2.7255738e-09
1.49287e-08
-2.7109002e-09
1.5360982e-08
-2.7495772e-09
1.5787606e-08
-2.7505808e-09
1.6237612e-08
-2.7666151e-09
1.6665178e-08
-2.7842395e-09
1.7130496e-08
-2.7899942e-09
1.7556788e-08
-2.8041108e-09
1.8030106e-08
-2.803002e-09
1.8477719e-08
-2.8528991e-09
1.8942996e-08
-2.8190634e-09
1.9407224e-08
-2.867812e-09
1.9866407e-08
-2.8337923e-09
2.0349106e-08
-2.8825225e-09
2.0795049e-08
-2.8420294e-09
2.1307342e-08
-2.9010847e-09
2.1725624e-08
-2.8363882e-09
2.2251264e-08
-2.8939084e-09
2.2682852e-08
-2.8691111e-09
2.3182194e-08
-2.8654742e-09
2.3631271e-08
-2.9043296e-09
2.4115583e-08
-2.8390812e-09
2.4600009e-08
-2.9508586e-09
2.5051024e-08
-2.8165408e-09
2.5522754e-08
-2.9142912e-09
2.6016538e-08
-2.8365623e-09
2.6455864e-08
-2.8831942e-09
2.6967177e-08
-2.8617973e-09
2.7401788e-08
-2.8708549e-09
2.7867037e-08
-2.7876556e-09
2.8379876e-08
-2.9661316e-09
2.8748314e-08
-2.6950943e-09
2.9297984e-08
-2.938332e-09
2.9727817e-08
-2.7492244e-09
3.0276657e-08
-2.9458527e-09
3.0693021e-08
-2.7480869e-09
3.1214793e-08
-2.8176377e-09
3.1563004e-08
-2.6747162e-09
3.203689e-08
-2.7339011e-09
3.2523611e-08
-2.886374e-09
3.2631029e-08
-2.3074235e-09
3.2762265e-08
-2.3927973e-09
3.3455064e-08
-3.1095819e-09
3.291731e-08
-1.6316377e-09
3.2557321e-08
-1.8332685e-09
3.3479031e-08
-3.3003298e-09
3.3645703e-08
-2.3175411e-09
3.3660905e-08
-2.1790848e-09
3.3975249e-08
-2.5480908e-09
3.3951153e-08
-2.1136614e-09
3.4525573e-08
-2.8562676e-09
3.4339488e-08
-1.9015323e-09
3.4438474e-08
-2.3158492e-09
3.4720929e-08
-2.4519071e-09
3.4368502e-08
-1.6393672e-09
3.4549545e-08
-2.3874476e-09
3.4628799e-08
-2.0895622e-09
3.4351361e-08
-1.6674382e-09
3.4730806e-08
-2.3977397e-09
3.4766059e-08
-1.951954e-09
-1.5671304e-09
9.039492e-09
-2.7905206e-09
9.413288e-09
-2.8320659e-09
9.7957583e-09
-2.8520986e-09
1.0181424e-08
-2.8955626e-09
1.0575552e-08
-2.8985997e-09
1.0974877e-08
-2.9551896e-09
1.1380457e-08
-2.9480021e-09
1.1791677e-08
-3.0088222e-09
1.2208517e-08
-3.0036342e-09
1.2630872e-08
-3.0506939e-09
1.3058189e-08
-3.0619336e-09
1.3494849e-08
-3.094106e-09
1.3932796e-08
-3.1282254e-09
1.4382881e-08
-3.125978e-09
1.4829905e-08
-3.1725984e-09
1.5292934e-08
-3.1739287e-09
1.5754554e-08
-3.2111975e-09
1.621798e-08
-3.2140069e-09
1.6699029e-08
-3.2476641e-09
1.716368e-08
-3.2488898e-09
1.7663262e-08
-3.2895765e-09
1.8116591e-08
-3.2574395e-09
1.8633078e-08
-3.3194891e-09
1.9096872e-08
-3.3166937e-09
1.9609231e-08
-3.3314224e-09
2.007745e-08
-3.3360303e-09
2.058685e-08
-3.3431926e-09
2.1067401e-08
-3.3630732e-09
2.1554803e-08
-3.3294315e-09
2.2075764e-08
-3.4220458e-09
2.2513809e-08
-3.2744334e-09
2.3056254e-08
-3.4363533e-09
2.3507382e-08
-3.3202395e-09
2.4017429e-08
-3.3755211e-09
2.4470817e-08
-3.3577173e-09
2.4970809e-08
-3.3390728e-09
2.5440774e-08
-3.4208242e-09
2.5884336e-08
-3.2601024e-09
2.6429692e-08
-3.4596477e-09
2.6911979e-08
-3.3188491e-09
2.7340494e-08
-3.3117089e-09
2.7887653e-08
-3.4089561e-09
2.811502e-08
-3.0982221e-09
2.8448025e-08
-3.1206607e-09
2.8539827e-08
-3.0579333e-09
2.8241174e-08
-2.3964419e-09
2.857503e-08
-3.2721877e-09
2.8861138e-08
-3.0353329e-09
2.9297596e-08
-3.3823108e-09
2.9124778e-08
-2.5752686e-09
2.9109894e-08
-2.8027531e-09
2.8969489e-08
-2.534312e-09
2.8566879e-08
-2.3312908e-09
2.8671531e-08
-2.9910264e-09
2.7999763e-08
-1.635655e-09
2.6448547e-08
-8.4158119e-10
2.6433374e-08
-3.0944091e-09
2.5457989e-08
-6.562528e-10
2.466233e-08
-1.0376092e-09
2.407705e-08
-2.7150503e-09
2.3000713e-08
-1.2412039e-09
2.1640801e-08
-8.191729e-10
2.0783278e-08
-1.6905677e-09
1.8305731e-08
3.6388583e-10
1.858883e-08
-3.1393669e-09
1.806064e-08
-1.3733419e-09
1.4742538e-08
1.0022529e-09
1.5742488e-08
-3.4518577e-09
1.5819514e-08
-1.7163926e-09
1.2238737e-08
1.1933293e-09
1.2386518e-08
-2.2373436e-09
1.5614803e-08
-4.8957231e-09
1.807614e-08
-4.8590762e-09
1.8140007e-08
-2.0158211e-09
-7.6008028e-10
8.9607566e-09
-3.1797717e-09
9.3475261e-09
-3.2188353e-09
9.7530135e-09
-3.257586e-09
1.0153209e-08
-3.2957584e-09
1.057198e-08
-3.3173699e-09
1.098907e-08
-3.3722798e-09
1.1420139e-08
-3.379071e-09
1.1853398e-08
-3.4420818e-09
1.2296301e-08
-3.4465368e-09
1.2744717e-08
-3.4991101e-09
1.3199809e-08
-3.5170256e-09
1.3666499e-08
-3.5607954e-09
1.4131702e-08
-3.593429e-09
1.4616776e-08
-3.6110522e-09
1.5087237e-08
-3.6430587e-09
1.5589597e-08
-3.6762894e-09
1.6070562e-08
-3.6921621e-09
1.657375e-08
-3.7171947e-09
1.7067655e-08
-3.7415698e-09
1.7574055e-08
-3.7552897e-09
1.8079167e-08
-3.7946877e-09
1.8565148e-08
-3.7434207e-09
1.9085976e-08
-3.8403178e-09
1.9571652e-08
-3.8023692e-09
2.0088775e-08
-3.8485457e-09
2.0557794e-08
-3.8050494e-09
2.1090717e-08
-3.8761152e-09
2.1554389e-08
-3.8267456e-09
2.2057053e-08
-3.8320952e-09
2.2568522e-08
-3.9335151e-09
2.300744e-08
-3.7133517e-09
2.3557671e-08
-3.9865838e-09
2.403111e-08
-3.7936786e-09
2.4412103e-08
-3.7565142e-09
2.4867423e-08
-3.8130368e-09
2.4403057e-08
-2.8747068e-09
2.5346989e-08
-4.364757e-09
2.5105598e-08
-3.0187111e-09
2.539559e-08
-3.7496401e-09
2.5191336e-08
-3.1145948e-09
2.5060925e-08
-3.1812974e-09
2.4991167e-08
-3.3391985e-09
2.4332486e-08
-2.4395408e-09
2.3783663e-08