/*--------------------------------*- C++ -*----------------------------------*\
| =========                 |                                                 |
| \\      /  F ield         | OpenFOAM: The Open Source CFD Toolbox           |
|  \\    /   O peration     | Version:  2.3.0                                 |
|   \\  /    A nd           | Web:      www.OpenFOAM.org                      |
|    \\/     M anipulation  |                                                 |
\*---------------------------------------------------------------------------*/
FoamFile
{
    version     2.0;
    format      ascii;
    class       volScalarField;
    location    "1.9";
    object      alpha.water;
}
// * * * * * * * * * * * * * * * * * * * * * * * * * * * * * * * * * * * * * //

dimensions      [0 0 0 0 0 0 0];

internalField   nonuniform List<scalar> 
2268
(
0.999988
0.999988
0.999988
0.951334
0.806595
0.940069
0.997076
1
1
1
1
1
0.999997
0.999998
0.998814
0.985892
0.984305
0.986963
0.999087
0.999087
0.999061
0.9994
0.999802
0.99998
0.999022
0.805409
0.819971
0.754484
0.826105
0.990963
1
1
1
1
1
1
1
0.99936
0.993116
0.988045
0.992929
0.997493
0.998278
0.997925
0.998369
0.999802
0.969461
0.848189
0.819942
0.990268
0.873112
0.719753
0.991745
1
1
1
0.999993
0.99998
0.999991
0.999995
0.999634
0.99899
0.998593
0.998564
0.998183
0.997922
0.999128
0.999192
0.9996
0.894625
0.848397
0.920382
0.990583
0.976865
0.718543
0.996542
1
0.999996
0.999932
0.999879
0.999899
0.999995
0.999995
0.999995
0.999692
0.997892
0.998498
0.987749
0.973688
0.985465
0.993009
0.998796
0.884962
0.874691
0.990904
0.990899
0.918362
0.718458
0.999894
1
0.999967
0.999879
0.999879
0.999931
0.999995
0.999995
0.999995
0.999995
0.994438
0.968403
0.965255
0.965255
0.96623
0.991608
0.998579
0.846562
0.853933
0.990899
0.990902
0.937897
0.718517
0.849347
1
0.999982
0.999879
0.999882
0.999994
0.999994
0.999995
0.999995
0.999995
0.99313
0.96533
0.965291
0.976373
0.997535
0.997305
0.998381
0.868251
0.848482
0.990617
0.990735
0.981151
0.785624
0.776708
0.972634
0.999982
0.999979
0.999981
0.999991
0.999979
0.999995
0.999995
0.999995
0.999647
0.994736
0.988248
0.995854
0.997628
0.997866
0.997978
0.981904
0.848919
0.978946
0.990514
0.985864
0.935288
0.777333
0.964513
0.999977
0.999979
0.999971
0.99998
0.999995
0.999995
0.999995
0.999995
0.999991
0.998935
0.981058
0.996425
0.997539
0.997704
0.997866
0.995063
0.995064
0.959003
0.933501
0.939015
0.952802
0.934259
0.929883
0.929883
0.929883
0.940066
0.95489
0.959494
0.929007
0.881805
0.880538
0.906062
0.913126
0.913126
0.995063
0.995055
0.971615
0.958745
0.998869
0.998924
0.999001
0.968743
0.93657
0.932267
0.932983
0.933362
0.948243
0.882744
0.880538
0.880464
0.880434
0.881374
0.891117
0.991532
0.954334
0.926772
0.998629
0.998924
0.999
0.99901
0.99901
0.999014
0.999016
0.986103
0.97777
0.962745
0.926852
0.880478
0.880434
0.880433
0.880433
0.880433
0.958619
0.914013
0.913987
0.960607
0.987962
0.998927
0.999003
0.999014
0.999015
0.999015
0.999015
0.999016
0.999016
0.998927
0.98757
0.89232
0.880434
0.880433
0.883673
0.963327
0.913988
0.913983
0.913988
0.973948
0.996874
0.994638
0.999003
0.999014
0.999015
0.999015
0.999015
0.999016
0.994556
0.993084
0.986694
0.891005
0.880442
0.9474
0.993221
0.920438
0.929444
0.98721
0.986038
0.797167
0.720404
0.907516
0.998979
0.999011
0.999015
0.999016
0.994274
0.954563
0.941936
0.979373
0.974648
0.959067
0.956529
0.994925
0.991911
0.992325
0.99315
0.903998
0.569857
0.569716
0.581215
0.90748
0.998911
0.99901
0.999014
0.969058
0.9326
0.932612
0.958511
0.979803
0.979791
0.953596
0.994925
0.994925
0.994715
0.993766
0.673047
0.569738
0.739985
0.90306
0.932017
0.998965
0.99897
0.99901
0.964968
0.932594
0.932575
0.933121
0.98084
0.980145
0.923747
0.984007
0.979836
0.984492
0.984818
0.947404
0.993484
0.95365
0.99929
0.999972
0.998031
0.90249
0.864667
0.933152
0.865559
0.820837
0.810252
0.828103
0.865199
0.875699
0.834673
0.808466
0.853084
0.926319
0.949928
0.948139
0.922344
0.915995
0.958888
0.994104
0.994104
0.945994
0.91167
0.793236
0.756552
0.55858
0.187698
0.0823332
0.0626993
0.0628952
0.0900057
0.120185
0.123739
0.0905005
0.211968
0.403381
0.745034
0.264095
0.233639
0.154137
0.169452
0.407093
0.753436
0.761693
0.527542
0.30944
0.320686
0.330007
0.0629466
0.001539
0.00085774
0.00229367
0.0021867
0.00199938
0.00170846
0.00151625
0.00152256
0.10329
0.215711
0.170881
0.000274198
0.000274393
0.000282443
0.000442832
0.013538
0.0926985
0.133746
0.0324809
0.00518603
0.00594817
0.00326658
0.000914619
0.00025962
0.000220612
0.00364366
0.00702917
0.00433953
0.0015172
0.00151649
0.0015172
0.00152468
0.00161297
0.00149607
0.000274141
0.000274198
0.000278438
0.000601656
0.000542391
0.000543629
0.000467526
0.000387609
0.000349792
0.000679534
0.00046697
0.000164421
3.92456e-05
4.72111e-05
0.00141736
0.00756458
0.00754358
0.00729778
0.00150573
0.00152468
0.00157522
0.00165624
0.00103206
0.000274141
0.000274141
0.000342896
0.00033286
0.000550502
0.000544298
0.000254048
0.00017794
0.000238621
0.000295312
0.000116858
3.3295e-05
1.1557e-05
2.85975e-05
4.78091e-05
0.00217434
0.00754358
0.00744676
0.00479678
0.00157104
0.00875535
0.00727521
0.000836123
0.000300478
0.000538014
0.000463756
0.000328066
0.000782002
0.000826803
0.000186046
8.63872e-05
4.68306e-05
4.08919e-05
3.7482e-05
1.13686e-05
8.71807e-06
1.29383e-05
5.02979e-05
0.00185775
0.00569986
0.00709416
0.00493035
0.00596827
0.00994846
0.00994332
0.000949316
0.0006216
0.000613983
0.000303942
0.000409684
0.000826803
0.000826803
0.00041847
4.56373e-05
1.4e-05
1.21824e-05
1.234e-05
7.32939e-06
8.50122e-06
8.5443e-06
0.00182629
0.00317573
0.00323906
0.00336961
0.00882848
0.0121481
0.00937433
0.00299897
0.000632142
0.0006216
0.00035074
0.000241629
0.000621414
0.000822899
0.000826803
0.000822899
6.20529e-05
1.00164e-05
7.84413e-06
7.35778e-06
6.84061e-06
7.74002e-06
7.96885e-06
0.00325482
0.00343034
0.00327395
0.00594589
0.0127271
0.0126329
0.00358542
0.000645855
0.000628703
0.0006216
0.000259988
0.000241629
0.000652686
0.000265246
0.000184582
0.000427225
4.31369e-05
7.40521e-06
7.01176e-06
6.84061e-06
6.78633e-06
6.83813e-06
0.000603519
0.00332736
0.00311907
0.00630002
0.0128056
0.0127995
0.0127302
0.00609224
0.00066981
0.000646006
0.000621316
0.000531756
0.000241629
0.000573702
2.04386e-05
1.01024e-05
1.22423e-05
9.44808e-06
7.01928e-06
6.84752e-06
6.80046e-06
6.8131e-06
0.000759311
0.00254404
0.00222194
0.0043505
0.012808
0.0128067
0.0128056
0.0127135
0.0126229
0.0121927
0.00345936
0.000236071
0.000736634
0.00050431
7.01811e-05
8.66255e-06
8.93455e-06
8.01259e-06
7.16973e-06
7.09152e-06
7.01885e-06
7.90138e-05
0.00240813
0.00360618
0.00235435
0.000791037
0.00704658
0.0126114
0.0128056
0.0123644
0.00695056
0.00408615
0.00244705
0.00123854
9.74844e-05
0.000736634
0.000676824
8.73496e-06
8.73527e-06
8.71732e-06
9.47004e-06
8.19888e-06
0.000659435
0.00140901
0.00183653
0.00187016
0.000462116
0.000311153
0.000442017
0.00384946
0.00754686
0.00689568
0.00109921
0.00015858
0.000138905
7.62573e-05
7.39062e-05
0.000115591
0.000736634
0.000323261
9.3178e-06
8.73128e-06
9.47046e-06
0.000767277
0.00155969
0.00172436
0.00172305
0.000690931
0.000262286
0.000267345
0.000269251
0.000287832
0.00048202
0.0032582
0.00657745
0.00186631
0.00045396
0.000201502
7.39833e-05
7.19681e-05
5.16954e-05
0.000167975
4.51069e-05
1.1114e-05
4.39088e-05
0.00131281
0.0022036
0.00204013
0.000516876
0.000478647
0.000258657
0.000258716
0.000262708
0.000267331
0.000270174
0.000295979
0.00244565
0.00515358
0.00508963
0.00327785
0.0012712
0.000357905
6.98421e-05
3.48008e-05
3.47212e-05
4.20527e-05
2.80402e-05
0.000968334
0.00388483
0.00132249
0.000291908
0.00027106
0.000258459
0.00025602
0.000258657
0.000258699
0.000259599
0.000363831
0.00160425
0.00304203
0.00380166
0.0022678
0.00177764
0.0010514
0.000188916
6.97509e-05
3.48937e-05
3.36014e-05
3.56983e-05
0.000158814
0.00307571
0.00423432
0.000983688
0.000303407
0.000292645
0.000268591
0.000254311
0.00253185
0.00617717
0.00625525
0.00612696
0.00609307
0.00606943
0.00113167
5.67855e-06
5.5779e-06
5.96139e-06
6.82671e-05
0.0001187
0.000160634
2.87511e-05
3.50665e-05
0.00148962
0.00436053
0.00437124
0.00354596
0.000335802
0.000304159
0.000729628
0.00610459
0.00632876
0.00632876
0.00632876
0.00630299
0.00613554
0.00208085
5.70582e-06
5.5779e-06
5.57786e-06
5.5779e-06
1.25179e-05
9.83481e-05
0.000221012
2.52795e-05
2.87511e-05
0.00204725
0.00437124
0.00438821
0.00437124
0.00418098
0.00280481
0.00248896
0.00437421
0.00530882
0.00442168
0.00350448
0.00291879
0.00126435
2.02342e-05
6.69432e-06
5.70569e-06
5.57783e-06
5.96135e-06
6.34774e-06
1.73721e-05
0.000210527
2.52795e-05
4.79043e-05
0.00111316
0.00370258
0.00439218
0.00439162
0.00440049
0.00354884
0.00227158
0.000481657
0.000332496
0.000124481
1.21614e-05
4.24607e-05
6.72243e-05
0.00011731
6.96119e-05
1.43885e-05
5.96361e-06
1.20057e-05
1.49443e-05
4.91072e-06
0.000313405
2.51018e-05
3.09955e-05
8.70302e-05
0.000423341
0.00151265
0.00156601
0.00123111
0.000774478
0.000526416
0.000279939
1.99947e-05
5.1704e-06
5.95188e-06
5.55077e-05
0.000134928
0.000144132
0.000142722
9.70528e-05
5.52233e-05
0.000209583
0.00027355
9.30899e-05
0.000391898
3.34032e-05
4.07376e-06
1.01438e-05
3.20365e-05
7.81261e-05
0.000175329
0.000240414
0.000526671
0.000469735
8.88039e-05
3.72962e-06
2.37426e-06
1.86703e-06
1.74225e-06
1.74252e-06
1.77969e-06
9.61292e-05
0.000277942
0.000276051
0.000274715
0.000275216
0.000232916
0.000392866
3.49279e-05
2.14666e-06
4.39067e-06
1.54219e-05
4.07429e-05
0.000209899
0.000273204
0.000234599
0.00012423
1.48844e-05
1.2779e-06
1.80632e-06
1.79972e-06
1.70979e-06
1.74196e-06
1.71624e-06
7.04531e-05
0.000273331
0.000274674
0.000275235
0.000275216
0.000250989
0.000392866
2.6344e-05
1.41559e-06
1.89192e-05
0.00016135
0.000195839
0.000188904
7.80793e-05
2.10567e-06
1.23239e-06
1.2114e-06
1.31393e-06
2.92491e-06
2.38137e-06
1.67354e-06
1.70865e-06
1.70341e-06
4.46783e-05
0.000258777
0.000274659
0.000275216
0.000275219
0.000155524
0.000392866
8.041e-06
1.24963e-06
0.000190186
0.000197376
0.000197376
4.8021e-05
1.46268e-06
1.21548e-06
1.21133e-06
1.2103e-06
1.21133e-06
1.69777e-06
1.52043e-06
1.59121e-06
1.67241e-06
2.69925e-05
6.8548e-05
2.46213e-05
3.68061e-05
9.07151e-05
8.9713e-05
2.99767e-05
0.000384496
1.24963e-06
1.24963e-06
0.000134317
0.000147149
3.95238e-05
1.49201e-06
1.21627e-06
1.21384e-06
1.21317e-06
1.2114e-06
1.21034e-06
1.2119e-06
1.23431e-06
1.589e-06
2.53748e-06
7.06766e-06
2.26555e-05
1.34653e-05
5.95674e-07
1.53504e-07
4.63756e-07
5.25062e-07
0.000378488
2.97464e-06
1.9441e-06
8.39491e-06
9.17424e-06
1.63751e-06
1.29878e-06
1.24552e-06
1.21625e-06
1.21368e-06
1.21919e-06
1.21448e-06
1.23207e-06
1.29171e-06
1.66954e-06
3.06887e-06
6.77124e-07
4.97243e-06
1.03516e-05
5.94869e-07
4.47628e-08
3.56216e-08
5.18684e-08
0.000377525
3.06247e-05
1.60991e-06
1.5089e-06
2.77838e-06
2.93996e-06
6.26916e-06
2.31197e-05
1.0518e-05
1.21198e-05
3.76223e-06
1.3491e-06
1.3087e-06
1.55453e-06
1.56317e-06
1.50341e-06
3.10647e-07
2.15633e-07
1.97436e-07
1.96989e-07
4.16385e-08
5.31326e-09
3.73678e-09
0.000375701
6.13995e-05
1.26364e-06
1.3169e-06
1.79335e-06
1.00919e-05
5.81319e-05
5.87449e-05
5.73186e-05
5.56387e-05
1.06882e-05
1.53121e-06
1.64202e-06
1.75198e-06
1.69905e-06
1.56957e-06
1.5998e-06
1.08379e-06
4.07614e-07
3.7448e-08
3.60139e-08
4.23186e-09
1.03131e-09
0.000373384
4.64487e-05
1.23934e-06
1.26295e-06
5.96069e-06
5.79868e-05
5.92541e-05
5.89766e-05
5.37614e-05
2.09767e-05
1.53519e-05
4.38242e-06
2.63933e-06
3.08404e-06
9.88957e-06
3.23641e-06
2.65418e-06
1.87171e-06
8.37772e-07
2.9389e-08
2.84152e-08
3.61291e-09
9.88438e-10
0.000346292
9.51659e-06
1.22198e-06
1.23915e-06
2.86709e-05
5.93925e-05
5.93338e-05
4.95632e-05
5.85514e-06
5.84726e-06
1.87838e-05
0.000103231
7.5428e-05
7.36807e-05
1.70086e-05
4.46227e-06
2.10848e-06
2.76551e-07
2.31609e-08
8.10321e-08
2.65438e-08
1.95027e-09
1.20832e-09
4.72023e-05
1.75205e-06
1.21623e-06
1.39487e-06
3.12749e-05
5.92477e-05
5.93685e-05
1.08522e-05
5.45887e-06
5.88441e-06
0.00019401
0.000285949
0.000282703
0.000158419
8.5594e-06
3.08532e-06
2.65214e-06
3.93395e-07
2.3047e-08
1.27886e-07
5.98679e-08
5.93612e-09
3.28067e-09
1.61097e-06
1.2154e-06
1.21588e-06
1.21577e-06
1.13765e-05
3.17536e-05
1.50912e-05
4.20347e-06
5.07048e-06
0.000192003
0.000285949
0.000285949
0.000285949
0.000170198
5.16587e-06
1.94816e-06
1.69367e-06
1.04163e-06
2.26812e-08
4.0112e-09
4.87696e-10
8.35662e-09
5.53925e-09
5.4828e-05
1.22609e-06
1.21623e-06
1.22574e-06
1.2262e-06
1.66681e-06
1.95519e-06
2.63826e-06
0.000147689
0.000283416
0.000281931
0.000285949
0.000166954
6.03433e-05
2.66799e-05
7.49062e-06
1.2424e-06
5.88269e-07
6.41337e-08
4.88238e-10
4.34477e-10
1.03477e-09
1.95004e-10
0.000106589
1.44899e-05
1.21403e-06
1.22229e-06
1.29586e-06
1.53078e-06
1.87038e-06
0.00017007
0.000307665
0.00029079
0.00023114
8.88224e-06
2.42668e-07
1.60793e-05
5.37483e-05
5.56972e-05
1.01844e-05
3.87026e-08
5.71044e-09
4.83286e-10
3.8044e-10
1.4707e-10
1.73076e-11
0.000107103
0.000104831
4.07436e-05
1.29586e-06
1.52442e-06
1.75635e-06
0.000205772
0.000323612
0.000312154
3.7692e-05
8.00391e-07
2.06804e-07
1.3043e-07
5.41642e-07
5.28373e-05
5.57833e-05
2.38227e-05
6.88338e-08
4.7098e-09
1.3166e-09
1.11642e-09
5.39855e-10
5.33406e-11
0.000107103
0.000107103
3.8363e-05
1.68379e-06
1.75707e-06
0.000209976
0.000341737
0.000334155
4.9694e-05
7.5201e-07
1.31032e-07
1.0987e-07
1.14924e-07
1.14495e-07
2.41067e-05
5.57833e-05
1.07517e-05
4.70539e-08
3.7322e-09
1.27354e-09
1.13198e-09
5.37218e-10
4.65027e-11
3.06821e-05
0.00010063
2.0062e-05
3.53495e-06
0.000235507
0.000344876
0.000340065
0.000105852
7.83295e-07
6.2214e-08
7.76329e-09
6.65224e-08
1.11616e-07
1.13855e-07
1.3673e-05
3.21145e-05
9.04343e-06
3.15096e-08
2.26812e-09
6.42136e-10
6.78873e-10
2.62449e-10
1.98331e-11
6.03908e-07
1.42389e-05
9.6366e-05
0.000305127
0.000344876
0.000342181
0.000125955
4.65502e-07
2.2992e-08
1.80652e-09
-4.85924e-10
2.36041e-07
1.17862e-07
1.5433e-07
1.95806e-07
4.85626e-07
1.08071e-06
1.82426e-07
4.54927e-10
1.45148e-10
2.31747e-10
6.02573e-11
1.24852e-11
4.91219e-07
2.16334e-06
0.000307004
0.000332092
0.000338484
0.000117414
2.49108e-07
3.73422e-09
-5.1953e-10
-3.93114e-10
2.51095e-11
6.00972e-07
3.7278e-07
2.175e-07
2.2147e-07
2.55095e-07
6.57189e-07
6.37736e-08
8.78284e-11
1.56093e-11
1.05716e-11
8.90165e-12
2.56081e-12
4.35132e-07
1.37664e-05
0.000111701
0.00017992
7.30251e-05
1.47002e-06
-7.66338e-10
-1.34732e-10
-1.31822e-10
-5.22187e-12
7.71527e-15
6.78656e-14
1.90227e-05
2.81424e-05
2.24988e-05
2.12878e-05
1.17044e-06
9.15503e-10
2.80506e-11
5.02022e-12
4.23903e-12
9.37768e-13
2.28189e-13
4.35131e-07
6.21081e-06
5.94083e-06
3.6488e-06
1.94433e-07
4.10557e-09
-3.68448e-11
-1.87885e-11
3.20283e-13
-1.83861e-12
-6.0907e-12
-1.85591e-13
3.58173e-05
5.37541e-05
5.37541e-05
9.49724e-06
1.29318e-07
5.5714e-09
1.92393e-11
4.12811e-12
3.30456e-13
2.17068e-14
3.43656e-14
0.924814
0.910505
0.911455
0.898378
0.683377
0.120589
0.0853361
0.0833384
0.0400481
0.041898
0.14378
0.144977
0.00098749
0.00197781
0.00713807
0.00232186
0.000658622
0.000627249
0.000637479
0.000783775
0.000597902
0.000614193
0.000634384
0.000625099
0.000614947
0.000626112
0.000642927
0.000628293
0.000640064
0.000633758
0.000645228
0.000628064
0.000643864
0.000647681
0.000629315
0.00060739
0.000744861
0.000670607
0.000627724
0.000626907
0.000723289
0.000691995
0.000671316
0.000693848
0.000788329
0.00132451
0.0013257
0.00132476
0.000133519
0.000225275
0.000159934
8.79239e-05
7.06457e-05
7.03341e-05
7.03307e-05
7.03334e-05
7.01384e-05
7.02598e-05
7.03341e-05
7.02836e-05
7.00116e-05
7.92058e-05
7.03447e-05
7.04649e-05
0.000166796
0.000166666
9.66197e-05
0.000216245
8.4879e-05
0.000122648
9.02959e-05
3.95388e-06
1.8193e-06
1.65036e-06
1.66802e-06
1.66802e-06
2.29335e-06
1.74357e-06
1.65131e-06
1.74317e-06
3.82575e-06
2.29469e-06
1.74357e-06
0.000120408
4.59569e-05
3.72971e-06
2.33748e-06
0.00168647
4.84555e-05
3.95023e-06
2.59129e-06
0.00231956
1.41669e-05
2.47166e-06
1.4201e-06
0.00143048
4.84333e-06
1.08553e-06
6.58616e-07
0.000919328
1.40802e-06
2.39636e-07
2.29818e-07
0.000314643
4.49342e-08
3.21738e-08
1.00417e-07
2.23228e-07
2.81828e-09
2.45313e-09
3.20066e-09
3.15979e-08
7.30395e-10
5.53206e-10
1.38621e-09
2.59806e-10
6.68398e-10
5.11172e-10
1.1774e-10
6.74015e-12
7.9792e-10
5.68934e-10
1.0887e-10
1.2725e-12
1.01112e-09
2.18584e-10
1.72298e-11
-5.00595e-12
1.02963e-09
4.42456e-11
1.00653e-11
8.79757e-12
1.25853e-11
1.07472e-11
7.54704e-12
4.66663e-12
1.297e-11
6.93451e-12
4.13731e-12
3.09613e-12
1.73681e-11
7.54702e-12
3.40374e-12
2.54771e-12
1.45224e-11
5.36648e-12
1.99247e-12
1.53175e-12
9.07002e-12
2.82774e-12
9.06819e-13
5.78556e-13
4.49585e-12
1.25793e-12
3.48009e-13
2.1468e-13
8.5982e-13
2.65336e-13
7.53214e-14
3.83554e-14
1.16346e-13
4.91784e-14
1.29757e-14
3.52659e-15
1.75717e-14
6.36325e-15
1.10326e-15
1.08648e-16
0.871022
0.848445
0.886074
0.864367
0.865345
0.968401
0.986238
0.997131
0.998589
0.99885
0.998965
0.998005
0.993671
0.972643
0.932521
0.972877
0.980976
0.971681
0.912621
0.15363
0.258483
0.324846
0.374845
0.392305
0.311399
0.365718
0.637855
0.872487
0.979049
0.99884
0.998153
0.993983
0.980133
0.930876
0.978213
0.980976
0.950041
0.912449
0.145819
0.12677
0.118251
0.12413
0.136918
0.0790183
0.00150141
0.00137753
0.0511997
0.363074
0.632339
0.839286
0.967366
0.972811
0.930144
0.974984
0.980976
0.97012
0.912449
0.00619388
0.0551446
0.122799
0.138305
0.0876646
0.00143955
0.00140865
0.00141187
0.00138106
0.00141123
0.00144566
0.0796422
0.404145
0.724889
0.924287
0.972885
0.980981
0.980447
0.947238
0.000739485
0.000730897
0.000782873
0.000942379
0.00504481
0.00140805
0.00140819
0.00141171
0.00141188
0.00136537
0.00141762
0.00144941
0.00190794
0.00538798
0.307675
0.824465
0.981107
0.981123
0.98111
0.000645547
0.000678872
0.000848705
0.00154959
0.00154661
0.00140883
0.00141175
0.00141174
0.00140595
0.00141261
0.0014115
0.00144235
0.00333823
0.00375086
0.00484976
0.0902947
0.72869
0.981118
0.981127
0.000633938
0.000653494
0.00105382
0.0026597
0.00276386
0.00207163
0.00142594
0.00141162
0.00141244
0.00141016
0.00142885
0.00509136
0.0193921
0.0163791
0.0125327
0.0137073
0.201557
0.785086
0.981127
0.000649931
0.00073685
0.0018233
0.00454138
0.00454629
0.00454624
0.00445006
0.0014702
0.00254001
0.00356893
0.00163184
0.00177626
0.0191572
0.0333266
0.0330271
0.014771
0.0146938
0.100571
0.981127
0.000697131
0.00152308
0.00382402
0.00453817
0.00454113
0.00454626
0.00435254
0.00342518
0.00572572
0.0058639
0.00589552
0.0058834
0.00189432
0.00234143
0.0372257
0.0218938
0.0147194
0.12997
0.981125
0.000814422
0.00310363
0.00374136
0.0028792
0.00165265
0.00141837
0.00105861
0.000757649
0.000606479
0.00189171
0.00441692
0.00334534
0.000431775
0.00208721
0.0380481
0.0433417
0.0185503
0.183829
0.358724
0.00160627
0.00265249
0.0017768
1.08635e-05
1.00638e-05
1.02389e-05
1.00639e-05
1.11492e-05
1.75542e-05
1.5157e-05
1.52693e-05
2.36884e-05
8.62231e-05
0.00715189
0.0433417
0.0433417
0.0433417
0.0325992
0.00782484
0.0012881
0.000261933
4.46365e-05
1.51378e-05
1.08635e-05
1.00756e-05
3.24267e-05
0.000118903
2.32494e-05
2.94486e-05
1.52693e-05
2.28915e-05
5.27559e-05
0.00270934
0.0256852
0.0433417
0.0170138
0.00783716
0.00782484
7.70589e-05
8.94687e-05
0.000429338
0.000469371
9.55595e-05
1.09614e-05
6.03069e-05
0.00047726
0.000718028
0.000989499
0.000345755
3.07148e-05
3.06261e-05
0.000290298
0.00223508
0.0198491
0.0163678
0.00786877
0.00784283
7.03371e-05
0.000718976
0.0008592
0.000857862
0.000755856
0.000104114
2.70823e-05
0.000235046
0.00130372
0.00130827
0.00130442
0.000307021
3.94739e-05
4.90939e-05
5.00956e-05
4.97748e-05
0.0126216
0.0146757
0.0115661
0.000314403
0.000848737
0.000857862
0.000859992
0.000853652
0.000223003
2.0092e-05
1.71106e-05
0.000266015
0.00124437
0.00130827
0.00129851
0.000276846
5.08479e-05
5.00956e-05
0.000331496
0.00626408
0.0177951
0.0177951
0.00074241
0.000828659
0.000809209
0.000676886
0.000233914
4.29218e-05
1.82659e-05
1.41702e-05
1.42857e-05
5.51901e-05
0.00117333
0.00129979
0.00110413
0.000120593
4.05175e-05
0.000121835
6.64836e-06
0.0125868
0.0177951
0.000242386
0.000265936
0.000348936
0.000465247
0.00088501
0.000815374
0.000304597
2.457e-05
1.42454e-05
1.31894e-05
0.000132223
0.0012642
0.00125893
0.000523132
2.10521e-05
6.56041e-06
4.71551e-06
0.0013017
0.0176969
1.20567e-05
9.05541e-05
0.000524267
0.00135642
0.00222563
0.00212705
0.00162406
0.000150905
1.36962e-05
7.70807e-06
5.08297e-06
0.000554128
0.00125116
0.000625257
1.18801e-05
4.69284e-06
3.79761e-06
0.001754
0.0175984
3.87139e-05
0.00152307
0.00242465
0.00233581
0.00226842
0.00222376
0.00197411
0.000285132
8.93415e-06
4.9585e-06
3.98314e-06
8.47089e-05
0.000635343
0.000378485
1.43105e-05
3.79795e-06
3.41478e-06
0.00225424
0.017394
0.00166082
0.0024613
0.0024537
0.00242465
0.00208789
0.00129888
0.000295154
1.10081e-05
5.82419e-06
3.94757e-06
3.81448e-06
3.1057e-05
3.21821e-05
0.000107261
2.53659e-05
3.41553e-06
3.27574e-06
0.00209901
0.0091976
0.00248681
0.00247405
0.0021577
0.00100637
0.000229217
8.9945e-05
1.75622e-05
4.94356e-06
3.94683e-06
3.81377e-06
3.84466e-06
4.55085e-05
0.000303878
0.000100268
4.73655e-06
3.27574e-06
3.18706e-06
0.000523012
8.73848e-06
0.00248681
0.00248307
0.000835053
0.000714261
0.000672006
0.00137375
0.000831187
7.32988e-05
4.58423e-06
3.83506e-06
3.82237e-06
0.000365816
0.000876475
0.000366161
3.91963e-06
3.05745e-06
3.14402e-06
2.54731e-06
7.19536e-06
0.00248681
0.0014517
0.00111314
0.00131168
0.00203649
0.00275523
0.00281112
0.00187294
4.99637e-05
4.58613e-06
3.84695e-06
0.000518708
0.00088281
0.000628089
1.69999e-05
2.37888e-06
2.59466e-06
1.50605e-06
1.918e-06
0.00245968
2.77251e-05
0.00185961
0.00243704
0.00265713
0.00281112
0.00285529
0.00284087
0.00110629
1.03843e-05
4.64109e-06
0.00046435
0.000894234
0.000819501
6.10133e-05
1.85985e-06
1.39916e-06
8.94705e-07
8.35825e-07
0.000595527
1.78649e-05
0.000255619
0.00037617
0.000679809
0.00120795
0.00258324
0.00285529
0.00280148
0.000254405
1.04337e-05
0.000433099
0.000912201
0.000821947
6.49363e-05
1.96059e-06
1.84686e-06
1.89744e-06
8.17477e-07
0.000111549
9.6664e-06
2.6132e-07
4.26528e-07
4.62533e-07
1.15471e-06
0.000104132
0.00261791
0.00278374
0.00101209
2.91655e-05
0.000463864
0.000945327
0.000746507
4.78207e-05
3.81962e-06
4.45711e-06
5.488e-06
8.06896e-07
6.57722e-06
2.65981e-06
3.20074e-08
2.47519e-07
4.26528e-07
9.14274e-07
1.09155e-06
0.000316874
0.00278374
0.00135141
7.18014e-05
0.000555633
0.000990591
0.000536208
2.19394e-05
5.49155e-06
8.0031e-06
6.20576e-06
5.22595e-07
1.2276e-06
2.2677e-07
4.77626e-09
3.20076e-08
2.87815e-05
6.55952e-06
8.33189e-07
1.09155e-06
0.00265456
0.00192369
0.000115779
0.00105521
0.00101139
0.000186959
7.30146e-06
6.1945e-06
7.98794e-06
2.62282e-06
1.8417e-07
6.20808e-08
1.14869e-08
2.36563e-09
1.14625e-06
7.43428e-05
2.23284e-05
7.02341e-07
6.68649e-07
0.00111918
0.00279236
0.00276158
0.00185313
0.000623384
8.89995e-06
1.03015e-05
1.05357e-05
7.31538e-06
7.79319e-08
2.90495e-08
1.74136e-14
5.90702e-16
4.31942e-13
2.18259e-05
7.43414e-05
3.44679e-05
4.86668e-08
2.89681e-07
8.69805e-05
0.00207575
0.00220465
0.000723568
4.18311e-05
8.04213e-06
1.04888e-05
9.06834e-06
1.19693e-06
2.54236e-08
2.3693e-08
-1.29713e-11
-2.50987e-11
3.64795e-14
5.67235e-05
7.43467e-05
3.98709e-05
1.60445e-08
3.42633e-08
2.5618e-07
1.95135e-06
8.23482e-05
5.05396e-06
1.03761e-06
4.10586e-06
5.59034e-06
1.7145e-06
2.79663e-08
2.36943e-08
2.36938e-08
2.55734e-11
5.85493e-16
1.21598e-07
5.34975e-05
7.418e-05
2.56541e-05
4.80333e-09
-7.68306e-09
5.25364e-07
2.37675e-06
1.26727e-07
2.56899e-07
1.11733e-07
1.03669e-07
1.00127e-07
4.85453e-08
4.20558e-08
3.82383e-08
2.58745e-08
1.77184e-10
1.63782e-12
1.04399e-11
1.22638e-05
7.25178e-05
5.52609e-06
3.61147e-10
1.50111e-11
4.70778e-11
5.61953e-10
5.10605e-09
1.38316e-08
1.37969e-09
6.29129e-09
7.98903e-09
2.63062e-08
9.86591e-08
1.04196e-07
9.99677e-08
2.39004e-10
1.40053e-10
9.15846e-11
9.77004e-07
7.98271e-06
2.86812e-06
9.20971e-09
5.25933e-11
2.68305e-11
9.66668e-11
2.13344e-09
1.0825e-09
1.09949e-09
9.64204e-10
1.64759e-09
2.67409e-08
1.04409e-07
1.04431e-07
8.58042e-08
2.18163e-10
5.92072e-10
1.63615e-10
1.76149e-10
4.55661e-10
6.36236e-09
1.03157e-06
8.30296e-11
1.47938e-11
3.0294e-10
7.7729e-10
9.99048e-11
1.50464e-10
1.93802e-10
4.22232e-10
1.29655e-08
9.49439e-08
1.04196e-07
1.67477e-08
5.30228e-11
2.31937e-10
7.30348e-11
6.43854e-09
6.08041e-08
8.33668e-08
1.28369e-07
1.21182e-11
1.20613e-11
7.65413e-11
1.0797e-10
3.28527e-11
6.14104e-11
9.45235e-11
3.0524e-10
2.50499e-09
1.62974e-08
4.36891e-08
1.19482e-10
9.89413e-12
1.57577e-11
5.94332e-12
7.36332e-09
1.88629e-07
2.25949e-07
1.49466e-07
8.27556e-12
7.64611e-12
2.58337e-11
2.76889e-11
2.55847e-11
3.49434e-11
6.32298e-11
1.59288e-10
2.98579e-10
1.13633e-10
1.79172e-10
6.13317e-11
9.01224e-13
2.26635e-12
5.35283e-12
4.32819e-12
4.34999e-12
6.38643e-08
4.2739e-08
1.63326e-08
7.17061e-12
1.84623e-11
1.96598e-11
2.10235e-11
2.41996e-11
2.68752e-11
4.47493e-11
6.5688e-11
5.46309e-11
3.56077e-11
2.86592e-11
4.70747e-13
1.56513e-12
3.17739e-12
4.08395e-12
4.09079e-12
4.13433e-12
4.22828e-12
4.29638e-12
7.16932e-12
1.13304e-11
1.14356e-11
1.22224e-11
1.50273e-11
1.84304e-11
2.08036e-11
2.19552e-11
1.85895e-11
2.22664e-11
2.64292e-11
9.70151e-14
4.74522e-13
1.5466e-12
3.46469e-12
5.77268e-12
7.63333e-12
5.87335e-12
5.17842e-12
5.11145e-12
6.12269e-12
5.99248e-12
6.15591e-12
7.70045e-12
9.72836e-12
1.21851e-11
1.45743e-11
1.50378e-11
1.38992e-11
1.64348e-11
9.61939e-15
8.0944e-14
4.01504e-13
1.20137e-12
2.49662e-12
3.83035e-12
7.43636e-12
4.95371e-12
2.58463e-12
2.87666e-12
2.81953e-12
2.84708e-12
3.57284e-12
4.57284e-12
5.77613e-12
7.06693e-12
6.8552e-12
8.66806e-12
9.6302e-12
9.19189e-17
1.86076e-15
2.14821e-14
1.27381e-13
3.99102e-13
8.6492e-13
1.08354e-12
2.40044e-12
1.05559e-12
1.18293e-12
1.19865e-12
1.20613e-12
1.53492e-12
1.99234e-12
2.48881e-12
3.09617e-12
2.85923e-12
4.11693e-12
5.46475e-12
)
;

boundaryField
{
    leftWall
    {
        type            zeroGradient;
    }
    rightWall
    {
        type            zeroGradient;
    }
    lowerWall
    {
        type            zeroGradient;
    }
    atmosphere
    {
        type            inletOutlet;
        inletValue      uniform 0;
        value           nonuniform List<scalar> 
46
(
4.35131e-07
6.21081e-06
5.94083e-06
3.6488e-06
1.94433e-07
4.10557e-09
0
0
0
0
0
0
0
5.37541e-05
5.37541e-05
9.49724e-06
1.29318e-07
5.5714e-09
1.92393e-11
4.12811e-12
0
0
0
0
0
0
0
0
0
0
0
0
0
0
0
0
0
1.19865e-12
1.20613e-12
1.53492e-12
1.99234e-12
2.48881e-12
3.09617e-12
2.85923e-12
4.11693e-12
5.46475e-12
)
;
    }
    defaultFaces
    {
        type            empty;
    }
}


// ************************************************************************* //
