/*--------------------------------*- C++ -*----------------------------------*\
| =========                 |                                                 |
| \\      /  F ield         | OpenFOAM: The Open Source CFD Toolbox           |
|  \\    /   O peration     | Version:  2.3.0                                 |
|   \\  /    A nd           | Web:      www.OpenFOAM.org                      |
|    \\/     M anipulation  |                                                 |
\*---------------------------------------------------------------------------*/
FoamFile
{
    version     2.0;
    format      ascii;
    class       volScalarField;
    location    "1.9";
    object      p;
}
// * * * * * * * * * * * * * * * * * * * * * * * * * * * * * * * * * * * * * //

dimensions      [1 -1 -2 0 0 0 0];

internalField   nonuniform List<scalar> 
2268
(
691.007
686.683
690.597
691.612
667.964
666.316
686.871
674.693
669.033
658.711
646.077
634.046
623.173
613
604.007
596.654
589.85
585.123
583.802
584.595
588.707
596.218
601.428
630.965
625.883
638.63
637.58
616.494
608.65
629.235
615.961
610.1
600.273
587.227
574.885
564.022
553.979
545.209
538.068
530.774
524.976
523.958
524.902
528.711
536.073
542.263
573.609
570.428
586.474
579.644
560.237
551.899
569.119
557.631
552.521
542.596
528.38
515.295
504.517
494.572
485.511
478.417
471.546
466.511
464.993
465.312
468.829
476.175
483.491
520.351
516.763
526.507
519.664
501.811
498.685
508.528
500.253
495.644
485.12
469.65
455.757
444.788
434.909
425.213
417.988
411.638
407.266
405.766
405.489
408.885
416.629
425.337
468.556
459.43
461.179
459.715
444.288
452.702
448.506
444.365
439.97
428.144
411.427
396.456
384.449
374.106
363.825
356.849
350.791
348.147
346.859
345.448
348.428
355.988
367.435
417.186
401.159
394.421
401.148
394.001
411.83
394.377
390.702
385.709
371.691
353.65
337.124
323.152
310.144
301.364
295.352
290.302
290.085
287.918
283.66
284.756
293.734
310.593
364.84
347.343
332.776
346.281
349.95
371.297
350.105
340.534
332.787
315.754
297.499
277.753
261.17
246.012
238.106
233.042
228.805
231.11
228.979
221.707
222.914
235.218
258.397
309.712
297.504
276.519
294.852
307.405
323.412
311.284
295.512
280.803
262.321
241.091
218.01
199.113
182.473
174.328
170.138
166.455
171.735
169.643
161.008
166.813
182.971
210.562
651.539
652.161
638.593
615.156
628.214
664.841
691.125
704.462
720.861
750.846
791.65
830.971
860.426
877.655
887.361
891.617
898.176
906.51
920.599
593.245
592.637
573.902
541.562
556.916
605.738
634.043
647.428
663.278
692.754
734.343
774.831
804.619
824.849
834.967
838.624
844.862
851.136
866.276
537.365
532.884
504.273
472.501
494.169
546.42
573.823
587.806
601.753
631.047
674.432
717.254
748.633
770.65
782.376
787.251
794.12
799.998
814.289
479.608
474.041
442.546
414.037
438.357
479.825
501.635
515.814
537.918
570.104
615.172
659.126
690.801
712.628
726.499
735.146
743.758
752.433
765.679
419.675
415.79
391.145
373.236
386.655
399.032
399.119
423.723
471.811
517.925
562.926
603.604
632.425
651.914
665.937
679.174
692.51
705.202
718.271
356.571
357.702
344.355
339.649
343.613
326.338
294.797
319.758
402.492
471.684
517.686
552.152
575.776
592.402
605.717
620.369
638.021
655.553
670.243
293.46
298.782
299.056
312.146
320.99
293.368
247.636
263.724
341.156
423.809
473.391
501.65
520.963
535.476
547.531
561.86
581.212
602.963
620.782
226.651
237.224
255.355
282.447
309.34
261.587
211.398
224.48
289.201
370.234
419.922
446.286
464.494
477.902
488.517
504.638
524.156
549.112
570.782
219.963
215.944
198.073
214.475
237.875
243.577
238.728
221.296
198.964
178.976
158.15
132.656
105.072
88.7069
83.2143
82.118
80.2936
80.5309
81.4461
78.1869
88.4706
107.24
129.03
97.1644
95.6247
87.103
94.1972
119.473
134.503
126.657
107.909
90.023
81.8656
71.257
44.0135
22.469
14.1429
12.5755
13.7156
13.4637
14.0393
14.5955
14.0858
13.7649
17.1981
46.2298
18.6792
16.657
11.238
12.1377
28.3704
51.0849
53.0365
35.4213
20.3976
18.5386
15.1937
5.31094
4.72726
4.97998
5.68696
6.76667
6.98254
6.38026
5.82708
6.33077
10.1564
13.4239
10.1811
1.96607
1.965
1.85638
1.69543
2.18473
6.93968
8.00691
4.96446
2.97735
0.406092
-1.18189
0.308846
1.69761
2.40802
3.23053
4.47969
5.67191
5.61647
5.15245
5.01579
4.77426
4.00052
2.6052
1.74733
1.69072
1.67202
1.69861
1.80282
1.81909
1.46045
1.67558
1.76798
1.15438
0.52671
0.487797
0.80361
1.14767
1.5916
2.5933
4.31012
4.70436
4.60856
4.44953
4.1645
3.89561
2.93856
1.4883
1.42464
1.40829
1.40387
1.48631
1.64137
1.66445
1.5003
1.34185
1.08375
0.708175
0.386336
0.385184
0.613768
0.933211
1.54945
3.05643
3.64157
3.97144
3.87463
3.23955
2.2957
1.81942
1.24618
1.18912
1.16413
1.16142
1.23759
1.44635
1.43052
1.2721
1.06899
0.818006
0.462917
0.14859
0.13001
0.346708
0.710186
1.38906
2.4062
2.87265
3.26695
2.90566
1.15519
-0.583221
0.684494
1.01025
0.957487
0.913452
0.91865
0.929264
1.0217
1.03741
0.928923
0.787222
0.589771
0.309372
0.0738523
0.0671006
0.261303
0.596769
1.66198
2.29786
2.55098
2.67097
1.88021
-0.00132656
-0.609464
0.332183
0.762734
0.714543
0.661513
0.62811
0.542971
0.48889
0.520525
0.561578
0.535239
0.437413
0.275207
0.145454
0.173351
0.314013
0.67261
1.78642
2.2339
2.35853
2.29085
1.15008
0.0362236
-0.0110574
0.363197
0.524583
0.487967
0.43486
0.354794
0.192362
0.0881032
0.107931
0.295293
0.367169
0.344275
0.282337
0.225477
0.245603
0.409247
0.878891
1.71516
2.0014
1.9473
1.62338
0.539903
0.0960298
0.323197
0.455312
0.288655
0.26408
0.24603
0.142557
-0.0241951
-0.112774
-0.0606036
0.166247
0.280494
0.285631
0.254646
0.245013
0.259809
0.417792
0.785955
1.32837
1.26176
1.18013
0.920089
0.19316
-0.311036
-0.102628
0.133939
0.0899671
0.0457277
0.088552
-0.0075819
-0.139264
-0.189739
-0.0929078
0.116265
0.225227
0.230597
0.185947
0.0968857
0.0140285
0.0712972
0.196345
0.324865
0.131031
0.0499799
0.404534
0.271977
-0.189193
-0.479438
-0.466361
-0.0477432
-0.102652
-0.0321716
-0.099085
-0.193146
-0.201133
-0.089717
0.040307
0.0568882
-0.00529772
-0.0975195
-0.311062
-0.489488
-0.479458
-0.408394
-0.600619
-0.96867
-0.98115
-0.562065
-0.394635
-0.464674
-0.638998
-0.734033
-0.127212
-0.149855
-0.143755
-0.195313
-0.255583
-0.248608
-0.232764
-0.285931
-0.454094
-0.555071
-0.584948
-0.653833
-0.733911
-0.750163
-0.756026
-0.995279
-1.33535
-1.36725
-0.919546
-0.728096
-0.783237
-0.884204
-0.960007
-0.18916
-0.225065
-0.26984
-0.340279
-0.384387
-0.448458
-0.761916
-1.04073
-1.07863
-1.02074
-0.943982
-0.910571
-0.88938
-0.862548
-0.901959
-1.08698
-1.36188
-1.50381
-1.29627
-1.22086
-1.22968
-1.20427
-1.17524
-0.320676
-0.36966
-0.462461
-0.551502
-0.63112
-0.867031
-1.37566
-1.52333
-1.45036
-1.38195
-1.28882
-1.17397
-1.03386
-0.955557
-0.999184
-1.19745
-1.47018
-1.71635
-1.76813
-1.70363
-1.6213
-1.50244
-1.35261
-0.561025
-0.632787
-0.779019
-0.903508
-1.11018
-1.41417
-1.67312
-1.75436
-1.77078
-1.81005
-1.80218
-1.73884
-1.60892
-1.50242
-1.5537
-1.76951
-1.97957
-2.08831
-2.03826
-1.95689
-1.83751
-1.68844
-1.54087
-0.951214
-1.04984
-1.29815
-1.56294
-1.95578
-2.18973
-2.158
-1.99822
-2.10058
-2.41567
-2.76831
-2.94586
-2.98046
-3.01626
-3.03391
-2.84331
-2.52193
-2.33037
-2.22632
-2.14081
-2.02968
-1.90776
-1.784
-1.48314
-1.61287
-1.98184
-2.57428
-3.20755
-3.33746
-3.15724
-2.66687
-2.62753
-3.1039
-3.60414
-3.7909
-3.71892
-3.63857
-3.59289
-3.28898
-2.83218
-2.53494
-2.41584
-2.34839
-2.2614
-2.15041
-2.02493
-2.02495
-2.19001
-2.57338
-3.31952
-3.99306
-4.23186
-4.06001
-3.66443
-3.48455
-3.61377
-3.84402
-3.94839
-3.88872
-3.76648
-3.62808
-3.39709
-3.08861
-2.8401
-2.69279
-2.59584
-2.48801
-2.34846
-2.18968
-2.49267
-2.64719
-2.95065
-3.47954
-3.98192
-4.3141
-4.31408
-4.08908
-3.89016
-3.79336
-3.78977
-3.81305
-3.79148
-3.72734
-3.64642
-3.53422
-3.38046
-3.21376
-3.06678
-2.9349
-2.77429
-2.56568
-2.35083
-2.87994
-2.9761
-3.13365
-3.42273
-3.77089
-4.01192
-4.05561
-3.95845
-3.82349
-3.71364
-3.69812
-3.71416
-3.72422
-3.71703
-3.69929
-3.67183
-3.62627
-3.55813
-3.46356
-3.3437
-3.17909
-2.94741
-2.69859
-3.18229
-3.22085
-3.24161
-3.34196
-3.50913
-3.66232
-3.73181
-3.70886
-3.64213
-3.62022
-3.62842
-3.65685
-3.69353
-3.73328
-3.77409
-3.81117
-3.8351
-3.84053
-3.81774
-3.74898
-3.61805
-3.41943
-3.2132
-3.40227
-3.40886
-3.35614
-3.35526
-3.4195
-3.51404
-3.57605
-3.58768
-3.57906
-3.58223
-3.60464
-3.64612
-3.7047
-3.77588
-3.8553
-3.93703
-4.01079
-4.07029
-4.10349
-4.07822
-3.98705
-3.84529
-3.71599
-3.57114
-3.56361
-3.50563
-3.48727
-3.51158
-3.55623
-3.58213
-3.58535
-3.58811
-3.60365
-3.63832
-3.694
-3.76749
-3.85423
-3.95156
-4.05573
-4.15664
-4.24051
-4.28801
-4.27999
-4.21857
-4.12061
-4.04629
-3.72114
-3.70677
-3.6668
-3.66201
-3.66194
-3.67284
-3.67421
-3.67442
-3.68415
-3.70997
-3.75326
-3.81217
-3.88388
-3.96638
-4.05822
-4.15967
-4.26336
-4.34842
-4.38894
-4.37406
-4.31592
-4.23442
-4.17778
-3.86575
-3.84863
-3.81729
-3.81848
-3.81948
-3.8262
-3.83354
-3.84845
-3.87424
-3.90848
-3.95035
-3.99564
-4.0459
-4.10323
-4.16964
-4.24643
-4.32923
-4.39933
-4.43129
-4.40886
-4.34795
-4.26374
-4.19136
-4.01086
-4.00107
-3.97362
-3.98258
-3.99899
-4.02523
-4.06141
-4.10877
-4.15662
-4.19388
-4.21723
-4.22691
-4.23501
-4.25043
-4.27807
-4.31785
-4.36623
-4.41053
-4.42989
-4.41029
-4.35414
-4.26894
-4.17838
-4.16177
-4.16466
-4.15491
-4.17801
-4.21568
-4.27452
-4.3554
-4.44269
-4.50519
-4.52702
-4.50363
-4.45763
-4.41571
-4.38754
-4.3774
-4.38203
-4.39638
-4.41193
-4.41617
-4.39766
-4.35167
-4.28293
-4.19549
-4.31683
-4.33325
-4.34522
-4.3894
-4.45523
-4.55285
-4.67326
-4.78144
-4.83299
-4.81349
-4.7373
-4.63275
-4.55395
-4.49733
-4.4646
-4.44735
-4.44003
-4.43589
-4.42734
-4.40736
-4.37114
-4.31776
-4.2558
-4.46303
-4.48918
-4.52568
-4.59145
-4.6836
-4.80782
-4.938
-5.03336
-5.05663
-5.00214
-4.89143
-4.76392
-4.65695
-4.58569
-4.54416
-4.51764
-4.50042
-4.4879
-4.47478
-4.45591
-4.42845
-4.39196
-4.34933
-4.58824
-4.62514
-4.68225
-4.76196
-4.86628
-4.99296
-5.11063
-5.17697
-5.17333
-5.10263
-4.98774
-4.86082
-4.74988
-4.67368
-4.62658
-4.59616
-4.57423
-4.5585
-4.54627
-4.53141
-4.51204
-4.48725
-4.45825
-4.68622
-4.74334
-4.80877
-4.88991
-4.98782
-5.09664
-5.18508
-5.22364
-5.20744
-5.14106
-5.04327
-4.93872
-4.84484
-4.77047
-4.71728
-4.68362
-4.65989
-4.64284
-4.63161
-4.62107
-4.60816
-4.59187
-4.57275
-4.77743
-4.83934
-4.90473
-4.97634
-5.05345
-5.13217
-5.19079
-5.21364
-5.20266
-5.15723
-5.09001
-5.01388
-4.93614
-4.86673
-4.81233
-4.77667
-4.7532
-4.73684
-4.72698
-4.71994
-4.71194
-4.70178
-4.68965
-4.87302
-4.91983
-4.97704
-5.0327
-5.08496
-5.13476
-5.17243
-5.19768
-5.20442
-5.1905
-5.15316
-5.09772
-5.03154
-4.96618
-4.91276
-4.8752
-4.85176
-4.83744
-4.82957
-4.82518
-4.82073
-4.81488
-4.80768
-4.98398
-5.00388
-5.0416
-5.07555
-5.10543
-5.13546
-5.17129
-5.20779
-5.23421
-5.23843
-5.2241
-5.19253
-5.1492
-5.0936
-5.03542
-4.98746
-4.95828
-4.94413
-4.9382
-4.9356
-4.93344
-4.93053
-4.92678
-5.10734
-5.10432
-5.112
-5.12155
-5.13554
-5.1636
-5.20579
-5.24696
-5.27545
-5.28978
-5.29981
-5.30769
-5.30355
-5.26255
-5.19292
-5.12275
-5.07782
-5.05855
-5.05275
-5.05081
-5.04974
-5.04864
-5.04721
-5.22918
-5.21378
-5.19112
-5.18152
-5.19376
-5.22292
-5.2587
-5.2908
-5.31925
-5.35102
-5.38997
-5.44472
-5.49315
-5.4684
-5.3753
-5.27518
-5.20995
-5.1822
-5.17313
-5.17018
-5.16924
-5.16911
-5.16914
-5.3431
-5.32438
-5.28306
-5.26626
-5.2746
-5.29268
-5.31348
-5.33935
-5.37655
-5.42687
-5.4973
-5.60474
-5.70707
-5.69588
-5.57355
-5.43204
-5.34557
-5.30997
-5.29657
-5.29246
-5.29127
-5.2916
-5.29247
-5.45462
-5.43837
-5.39668
-5.37636
-5.37213
-5.37649
-5.38694
-5.41226
-5.45753
-5.52276
-5.62051
-5.7867
-5.93797
-5.89524
-5.74586
-5.57811
-5.48068
-5.44041
-5.4248
-5.4175
-5.41534
-5.41566
-5.41693
-5.56449
-5.55473
-5.52795
-5.50738
-5.49415
-5.4867
-5.49303
-5.52081
-5.57198
-5.64716
-5.75887
-5.95365
-6.14306
-6.12295
-5.88866
-5.68524
-5.59882
-5.56486
-5.54885
-5.54191
-5.54018
-5.54081
-5.54236
-5.67422
-5.68557
-5.67722
-5.65979
-5.64002
-5.6333
-5.63815
-5.6672
-5.7258
-5.81505
-5.93851
-6.08457
-6.14103
-6.11694
-5.98197
-5.7892
-5.70802
-5.68432
-5.67205
-5.66735
-5.6662
-5.66712
-5.66883
111.332
86.0871
86.8553
91.7284
61.0114
55.1606
46.6866
39.5118
9.51059
11.9595
13.6572
13.3153
2.77842
3.01018
2.98753
2.80773
2.50441
2.30815
2.24875
2.25041
1.88493
1.85258
1.83458
1.79732
1.13499
1.25352
1.30786
1.30098
0.664001
0.769317
0.829098
0.842691
0.486151
0.524952
0.55362
0.563856
0.405943
0.388801
0.384414
0.377928
0.144205
0.174049
0.19014
0.188391
-0.381439
-0.340716
-0.307615
-0.295034
-0.768625
-0.788807
-0.79424
-0.783025
-1.00937
-1.02172
-1.01949
-1.00507
-1.15559
-1.13712
-1.11427
-1.09623
-1.25634
-1.21442
-1.19842
-1.1958
-1.45433
-1.41306
-1.38695
-1.37372
-1.7047
-1.65768
-1.61543
-1.58268
-1.93071
-1.87348
-1.82015
-1.7758
-2.07512
-2.00856
-1.95702
-1.92328
-2.21503
-2.14335
-2.09761
-2.06631
-2.55194
-2.48088
-2.45407
-2.40831
-3.11055
-3.07618
-3.11992
-3.18798
-3.69659
-3.72764
-3.84946
-4.02429
-4.08329
-4.16345
-4.32445
-4.58415
-4.21496
-4.29034
-4.42776
-4.65242
-4.18566
-4.21186
-4.27577
-4.40133
-4.12795
-4.10679
-4.09674
-4.10888
-4.13479
-4.09987
-4.06902
-4.04299
-4.21049
-4.18404
-4.16046
-4.13769
-4.31791
-4.29835
-4.27958
-4.26161
-4.43604
-4.42188
-4.40816
-4.39515
-4.5577
-4.54806
-4.53874
-4.53006
-4.67999
-4.67382
-4.66791
-4.66254
-4.80195
-4.79833
-4.7949
-4.79189
-4.92384
-4.92202
-4.92035
-4.91899
-5.04617
-5.04557
-5.04507
-5.04478
-5.16929
-5.16946
-5.16969
-5.17005
-5.29332
-5.29392
-5.29456
-5.29527
-5.41814
-5.41895
-5.41976
-5.4206
-5.54371
-5.54458
-5.54543
-5.54626
-5.67019
-5.67104
-5.67183
-5.67257
106.002
140.647
184.405
180.862
175.261
153.35
130.454
149.842
210.038
275.286
321.556
351.565
370.991
384.391
395.165
411.318
434.735
464.805
492.326
33.2025
47.3771
62.9831
54.4658
38.0021
36.478
31.1302
45.0743
78.9741
135.209
178.438
213.285
241.431
264.522
284.241
301.023
324.773
358.201
387.975
13.3226
22.0914
27.7138
20.418
4.61735
9.66323
7.04526
5.21087
8.34785
26.3868
48.4174
79.0045
117.661
155.137
186.379
212.797
241.352
270.069
297.441
2.89436
5.49759
10.4139
10.8435
3.89446
3.90298
4.57343
4.25154
4.26226
3.99035
4.60825
9.69687
31.9753
62.7362
96.8422
133.337
171.852
200.754
222.127
2.23236
2.16806
2.1639
1.91085
1.69204
2.93494
3.36774
3.37501
3.53705
3.61232
3.70514
4.15656
6.16476
11.7982
29.0371
55.6745
101.176
138.836
155.887
1.71685
1.67531
1.78766
2.02877
2.5328
3.00902
2.86977
2.80117
3.07055
3.20623
3.13662
3.44387
5.52099
9.58792
12.3154
14.045
32.5052
59.8876
94.9892
1.23224
1.17572
1.31498
1.81605
2.69526
3.02043
2.7001
2.51363
2.65017
2.81161
2.8494
2.92126
4.22876
8.04643
10.1519
9.00062
13.147
42.5189
57.472
0.810313
0.780343
0.894517
1.32322
2.02237
2.27035
2.11467
2.02852
2.10153
2.2472
2.39342
2.52665
3.18198
5.94419
5.68692
5.075
4.153
5.33827
13.236
0.552717
0.556392
0.571434
0.766478
1.0121
1.11276
1.10806
1.16996
1.1189
1.18991
1.41603
1.6523
1.97354
3.29137
1.94737
1.8743
2.93012
2.2817
33.4579
0.367751
0.346766
0.272994
0.215869
0.265065
0.321503
0.363556
0.381011
0.237812
0.163639
0.195922
0.400231
1.01442
1.96538
0.111269
-1.22694
1.387
6.27361
23.0715
0.163063
0.0434325
-0.0629681
-0.0620987
-0.0148956
0.0306473
0.0751474
0.0729828
-0.0309963
-0.122566
-0.192618
-0.117329
0.101252
0.130428
-0.855889
-1.07033
1.06234
1.50547
1.39268
-0.32919
-0.364349
-0.320111
-0.211493
-0.141137
-0.113929
-0.0970877
-0.118831
-0.192176
-0.248498
-0.254088
-0.282898
-0.432894
-1.27198
-1.0849
0.509215
0.427535
0.352589
0.848938
-0.745984
-0.645298
-0.526323
-0.377778
-0.280333
-0.262793
-0.276611
-0.338911
-0.429541
-0.470019
-0.382192
-0.422585
-0.723706
-1.44687
-1.59636
-0.551984
-0.642124
-0.438493
0.221989
-0.955829
-0.867621
-0.747133
-0.601768
-0.48245
-0.461102
-0.500818
-0.617748
-0.800223
-0.870682
-0.7093
-0.666721
-0.886717
-1.40228
-1.60485
-1.61038
-1.47043
-1.01446
-0.39321
-1.07092
-1.03318
-0.9512
-0.849923
-0.752525
-0.728659
-0.796313
-0.938655
-1.15238
-1.27805
-1.18023
-1.06186
-1.16612
-1.49103
-1.66672
-1.74863
-1.74983
-1.40838
-0.850879
-1.19565
-1.18186
-1.13636
-1.09024
-1.0314
-1.03844
-1.142
-1.29623
-1.46353
-1.5823
-1.59529
-1.52083
-1.54825
-1.73677
-1.86873
-1.9015
-1.92662
-1.72603
-1.24555
-1.36432
-1.33465
-1.32022
-1.33582
-1.37106
-1.47255
-1.60884
-1.74068
-1.81833
-1.85635
-1.89913
-1.87549
-1.9045
-2.04559
-2.10838
-2.03159
-1.94929
-1.92835
-1.6629
-1.53368
-1.4979
-1.55747
-1.70281
-1.93625
-2.16581
-2.2665
-2.2746
-2.23837
-2.16834
-2.13545
-2.16816
-2.21579
-2.32465
-2.32709
-2.20052
-2.0468
-1.93534
-1.89002
-1.69756
-1.73465
-1.92489
-2.19241
-2.54936
-2.81758
-2.88868
-2.77414
-2.61751
-2.4736
-2.38011
-2.37775
-2.43497
-2.51372
-2.5126
-2.41387
-2.26818
-2.16054
-2.18038
-1.88648
-2.07659
-2.33997
-2.62339
-2.90584
-3.04864
-3.08494
-3.0014
-2.85255
-2.71261
-2.60014
-2.55044
-2.58932
-2.65479
-2.6735
-2.63676
-2.55675
-2.63139
-2.57452
-2.16291
-2.51333
-2.73202
-2.89264
-3.06125
-3.1259
-3.08683
-3.01292
-2.95349
-2.87922
-2.80364
-2.73619
-2.74558
-2.79895
-2.83385
-2.84828
-2.83869
-2.99666
-3.05346
-2.6358
-3.03296
-3.11621
-3.16398
-3.21151
-3.22236
-3.11246
-3.00697
-2.98581
-3.0163
-3.01632
-2.9748
-2.97666
-2.9944
-3.01624
-3.0364
-3.02307
-3.07296
-3.07387
-3.34545
-3.66116
-3.53266
-3.4737
-3.44937
-3.42746
-3.31613
-3.1655
-3.13113
-3.20011
-3.25479
-3.26471
-3.2495
-3.22783
-3.22005
-3.2144
-3.16918
-3.14916
-3.13128
-4.19043
-4.18125
-4.04978
-3.84297
-3.76564
-3.73272
-3.62388
-3.48226
-3.41312
-3.45922
-3.52361
-3.53743
-3.49774
-3.46471
-3.44093
-3.40199
-3.34007
-3.3029
-3.27771
-4.75714
-4.54241
-4.40434
-4.15163
-4.02579
-4.0026
-3.98503
-3.88505
-3.82937
-3.81638
-3.83623
-3.78965
-3.73323
-3.71154
-3.67567
-3.59896
-3.5293
-3.49145
-3.46673
-4.82953
-4.70064
-4.50636
-4.29381
-4.19866
-4.20663
-4.24154
-4.24053
-4.26709
-4.26336
-4.16487
-4.02661
-3.95516
-3.95574
-3.90387
-3.79069
-3.71556
-3.67741
-3.65434
-4.56866
-4.54951
-4.4167
-4.30449
-4.29546
-4.36385
-4.44134
-4.53421
-4.61714
-4.66474
-4.45411
-4.25684
-4.18794
-4.18911
-4.10185
-3.96589
-3.88989
-3.85052
-3.82803
-4.161
-4.22964
-4.22382
-4.23703
-4.33288
-4.47782
-4.6244
-4.7425
-4.89413
-4.90182
-4.64521
-4.49555
-4.4321
-4.39392
-4.25609
-4.12362
-4.04847
-4.01009
-3.98586
-4.02821
-4.07074
-4.12279
-4.20155
-4.34256
-4.52267
-4.72971
-4.89893
-5.238
-5.3113
-4.93046
-4.75292
-4.65796
-4.5473
-4.3826
-4.25838
-4.18978
-4.1551
-4.12903
-4.10404
-4.1086
-4.15082
-4.23179
-4.3602
-4.53026
-4.74449
-4.98726
-5.28953
-5.46886
-5.2455
-5.00606
-4.81866
-4.64218
-4.47669
-4.3719
-4.31486
-4.28561
-4.26066
-4.23445
-4.22565
-4.25027
-4.31382
-4.41262
-4.55151
-4.72727
-4.93715
-5.15754
-5.28754
-5.21887
-5.03523
-4.85152
-4.67893
-4.54851
-4.47105
-4.42787
-4.40399
-4.38407
-4.37577
-4.36646
-4.38217
-4.42888
-4.50397
-4.61012
-4.72882
-4.85742
-4.98463
-5.04406
-5.00617
-4.91366
-4.79948
-4.69234
-4.61412
-4.56406
-4.53378
-4.51493
-4.50193
-4.51749
-4.51136
-4.52316
-4.55732
-4.61622
-4.69408
-4.76754
-4.82969
-4.88098
-4.90011
-4.87875
-4.83538
-4.78154
-4.72981
-4.68844
-4.65791
-4.63708
-4.62318
-4.6166
-4.655
-4.65218
-4.66191
-4.68753
-4.7326
-4.78715
-4.83109
-4.85909
-4.87906
-4.8857
-4.87475
-4.85266
-4.82648
-4.79984
-4.77595
-4.75618
-4.74135
-4.73185
-4.73004
-4.78791
-4.78769
-4.79613
-4.81553
-4.84724
-4.88462
-4.90945
-4.91976
-4.92684
-4.93155
-4.92925
-4.91881
-4.90441
-4.88842
-4.8729
-4.8592
-4.84844
-4.84239
-4.84354
-4.91744
-4.91899
-4.92629
-4.94076
-4.96204
-4.98604
-5.00013
-5.00323
-5.00476
-5.00719
-5.00687
-5.00264
-4.99506
-4.98557
-4.97563
-4.96635
-4.95882
-4.95526
-4.95787
-5.04479
-5.04729
-5.05344
-5.06392
-5.07779
-5.09231
-5.10044
-5.10124
-5.10072
-5.10135
-5.10095
-5.09858
-5.09448
-5.0891
-5.08315
-5.07726
-5.07232
-5.07039
-5.07347
-5.17096
-5.17373
-5.17863
-5.18595
-5.19479
-5.2033
-5.20792
-5.20787
-5.20654
-5.20597
-5.20527
-5.20365
-5.20131
-5.19833
-5.19496
-5.19147
-5.18844
-5.18747
-5.1905
-5.2966
-5.29923
-5.30284
-5.30767
-5.31304
-5.31781
-5.32016
-5.31956
-5.31789
-5.31665
-5.31571
-5.31465
-5.31338
-5.31185
-5.31011
-5.30823
-5.30653
-5.30609
-5.30882
-5.42205
-5.42437
-5.42666
-5.42963
-5.43252
-5.43479
-5.4356
-5.43458
-5.43278
-5.43129
-5.43032
-5.42961
-5.42902
-5.4284
-5.42768
-5.42686
-5.42605
-5.42588
-5.42816
-5.5476
-5.54934
-5.55084
-5.55222
-5.55324
-5.55365
-5.55316
-5.55167
-5.5498
-5.5484
-5.54765
-5.54731
-5.54718
-5.54709
-5.54697
-5.54677
-5.54651
-5.54644
-5.54817
-5.67368
-5.67477
-5.67537
-5.67545
-5.67503
-5.67412
-5.67269
-5.6708
-5.66887
-5.66767
-5.66739
-5.66741
-5.66751
-5.66767
-5.66783
-5.66797
-5.66806
-5.66812
-5.66884
)
;

boundaryField
{
    leftWall
    {
        type            calculated;
        value           nonuniform List<scalar> 
50
(
691.007
630.965
573.609
520.351
468.556
417.186
364.84
309.712
219.963
97.1644
18.6792
1.96607
1.74733
1.4883
1.24618
1.01025
0.762734
0.524583
0.288655
0.0899671
-0.0477432
-0.127212
-0.18916
-0.320676
-0.561025
-0.951214
-1.48314
-2.02495
-2.49267
-2.87994
-3.18229
-3.40227
-3.57114
-3.72114
-3.86575
-4.01086
-4.16177
-4.31683
-4.46303
-4.58824
-4.68622
-4.77743
-4.87302
-4.98398
-5.10734
-5.22918
-5.3431
-5.45462
-5.56449
-5.67422
)
;
    }
    rightWall
    {
        type            calculated;
        value           nonuniform List<scalar> 
50
(
920.599
866.276
814.289
765.679
718.271
670.243
620.782
570.782
492.326
387.975
297.441
222.127
155.887
94.9892
57.472
13.236
33.4579
23.0715
1.39268
0.848938
0.221989
-0.39321
-0.850879
-1.24555
-1.6629
-1.89002
-2.18038
-2.57452
-3.05346
-3.07387
-3.13128
-3.27771
-3.46673
-3.65434
-3.82803
-3.98586
-4.12903
-4.26066
-4.38407
-4.50193
-4.6166
-4.73004
-4.84354
-4.95787
-5.07347
-5.1905
-5.30882
-5.42816
-5.54817
-5.66884
)
;
    }
    lowerWall
    {
        type            calculated;
        value           nonuniform List<scalar> 
62
(
720.436
716.112
720.026
719.611
691.708
693.984
716.215
704.122
698.462
688.141
675.506
663.476
652.602
642.429
633.401
625.669
618.818
614.169
613.204
613.998
618.108
625.63
630.851
601.428
542.263
483.491
425.337
367.435
310.593
258.397
210.562
169.227
143.088
143.915
147.971
651.539
593.245
537.365
479.608
419.675
356.571
293.46
226.651
680.824
681.445
666.817
642.63
655.851
692.883
718.622
731.83
748.229
778.213
819.318
859.074
888.665
904.997
913.316
917.534
924.844
933.385
947.475
)
;
    }
    atmosphere
    {
        type            calculated;
        value           nonuniform List<scalar> 
46
(
-5.73153
-5.76459
-5.76304
-5.74992
-5.73015
-5.72906
-5.73025
-5.75806
-5.82011
-5.91789
-6.05844
-6.186
-5.8691
-6.03669
-6.03669
-5.7834
-5.72978
-5.72907
-5.72904
-5.72904
-5.72934
-5.73076
-5.73261
-5.73395
-5.73476
-5.7355
-5.73616
-5.73709
-5.73783
-5.73791
-5.73736
-5.73627
-5.73485
-5.73327
-5.73161
-5.73004
-5.7291
-5.72904
-5.72904
-5.72904
-5.72904
-5.72904
-5.72904
-5.72904
-5.72904
-5.72904
)
;
    }
    defaultFaces
    {
        type            empty;
    }
}


// ************************************************************************* //
