/*--------------------------------*- C++ -*----------------------------------*\
| =========                 |                                                 |
| \\      /  F ield         | OpenFOAM: The Open Source CFD Toolbox           |
|  \\    /   O peration     | Version:  2.3.0                                 |
|   \\  /    A nd           | Web:      www.OpenFOAM.org                      |
|    \\/     M anipulation  |                                                 |
\*---------------------------------------------------------------------------*/
FoamFile
{
    version     2.0;
    format      ascii;
    class       volVectorField;
    location    "1.9";
    object      U;
}
// * * * * * * * * * * * * * * * * * * * * * * * * * * * * * * * * * * * * * //

dimensions      [0 1 -1 0 0 0 0];

internalField   nonuniform List<vector> 
2268
(
(0.0445851 -0.0261636 0)
(0.0885976 -0.010055 0)
(0.0561952 -0.00217329 0)
(0.0885142 -0.00723513 0)
(0.172865 0.0178074 0)
(0.0523093 0.0319044 0)
(-0.0800076 0.0101667 0)
(-0.0888795 0.00869298 0)
(-0.103029 0.000521013 0)
(-0.0927845 -0.00464309 0)
(-0.0957682 -0.000314641 0)
(-0.101444 0.000166124 0)
(-0.0910632 -0.00227031 0)
(-0.0753748 -0.0020898 0)
(-0.0690056 0.000542072 0)
(-0.0841608 0.00589522 0)
(-0.12582 0.0105027 0)
(-0.163498 0.00662913 0)
(-0.166767 -0.0049983 0)
(-0.148243 -0.0102747 0)
(-0.128079 -0.0115621 0)
(-0.0877578 -0.0162405 0)
(-0.0314922 -0.0170273 0)
(0.0236236 -0.0506172 0)
(0.0142949 0.0143495 0)
(-0.0538022 0.00908234 0)
(0.0147259 -0.0799879 0)
(0.171896 0.00868722 0)
(0.1025 0.102752 0)
(-0.113839 0.0424946 0)
(-0.119983 0.0159485 0)
(-0.089428 -0.00150773 0)
(-0.0908767 -0.00228683 0)
(-0.112169 0.00604157 0)
(-0.1135 3.25652e-05 0)
(-0.10163 -0.0102117 0)
(-0.084283 -0.00823584 0)
(-0.0747979 0.00700013 0)
(-0.0877976 0.0205073 0)
(-0.117494 0.0219901 0)
(-0.118104 0.0106728 0)
(-0.0911521 -0.00423552 0)
(-0.0973249 -0.00948557 0)
(-0.0988346 -0.0160092 0)
(-0.07266 -0.035036 0)
(-0.0257567 -0.0449373 0)
(-0.0168483 -0.0398136 0)
(-0.0831839 0.0488972 0)
(-0.115562 -0.010921 0)
(-0.0481864 -0.132348 0)
(0.0648519 -0.0174223 0)
(0.0966433 0.163594 0)
(-0.104709 0.0816771 0)
(-0.104135 0.0129828 0)
(-0.064258 -0.012831 0)
(-0.0869005 0.00207103 0)
(-0.106785 0.0118544 0)
(-0.100474 -0.00265501 0)
(-0.0802263 -0.018169 0)
(-0.0691233 -0.0160635 0)
(-0.0668085 0.00298947 0)
(-0.0479295 0.021286 0)
(-0.0330675 0.0253359 0)
(-0.0242554 0.00542695 0)
(-0.0259097 -0.00982438 0)
(-0.0630412 -0.00329563 0)
(-0.0727024 -0.015169 0)
(-0.0594208 -0.0468994 0)
(-0.0149962 -0.0660846 0)
(-0.0452444 -0.00831634 0)
(-0.124963 0.0792999 0)
(-0.124057 -0.0298446 0)
(-0.0949758 -0.15964 0)
(-0.0523457 -0.0653691 0)
(0.0885493 0.200596 0)
(-0.0781112 0.119788 0)
(-0.082143 0.011329 0)
(-0.0447164 -0.0127019 0)
(-0.07432 0.0106638 0)
(-0.0832492 0.0133995 0)
(-0.0581595 -0.00936335 0)
(-0.0214575 -0.0240733 0)
(-0.0179401 -0.0128552 0)
(-0.0506489 0.00161058 0)
(-0.0472802 0.00361248 0)
(-0.0111492 0.0066629 0)
(0.0223612 0.0070255 0)
(-0.0254952 0.0121592 0)
(-0.0758008 0.011631 0)
(-0.0743734 -0.0144805 0)
(-0.0613354 -0.0572209 0)
(-0.00742751 -0.0811006 0)
(-0.0447577 0.0283077 0)
(-0.125315 0.101921 0)
(-0.118353 -0.0462107 0)
(-0.116177 -0.17569 0)
(-0.118446 -0.102172 0)
(0.0817332 0.199097 0)
(-0.0410371 0.155652 0)
(-0.0510994 0.00625139 0)
(-0.0245549 -0.0146706 0)
(-0.0535867 0.0149228 0)
(-0.0479396 0.00660012 0)
(-0.00126258 -0.0272132 0)
(0.0408268 -0.0368057 0)
(0.0320718 -0.00440647 0)
(-0.0100359 0.0199599 0)
(-0.0449911 9.15041e-05 0)
(-0.0361986 -0.0105034 0)
(-0.00581836 0.00947599 0)
(-0.0499512 0.0330444 0)
(-0.0886232 0.0205765 0)
(-0.0858652 -0.0200175 0)
(-0.0706215 -0.0790211 0)
(-0.0132864 -0.103794 0)
(-0.0253961 0.0583167 0)
(-0.0910507 0.124046 0)
(-0.0767723 -0.0402092 0)
(-0.10008 -0.175605 0)
(-0.160427 -0.130077 0)
(0.039074 0.158909 0)
(-0.000382856 0.186025 0)
(-0.00358843 0.00347846 0)
(-0.00675844 -0.0102707 0)
(-0.0282059 0.0168599 0)
(-0.00432087 -0.00779951 0)
(0.0615278 -0.0484068 0)
(0.0754554 -0.040887 0)
(0.031333 0.00586188 0)
(0.0158014 0.0416478 0)
(-0.0323018 0.0159312 0)
(-0.0571872 -0.00762094 0)
(-0.0435808 0.0148866 0)
(-0.0549705 0.0464682 0)
(-0.0690921 0.0267467 0)
(-0.0575476 -0.030161 0)
(-0.0462811 -0.100231 0)
(-0.0212145 -0.132318 0)
(-0.00812501 0.0735367 0)
(-0.0409685 0.138776 0)
(-0.0123013 -0.021505 0)
(-0.0484102 -0.151459 0)
(-0.17048 -0.132433 0)
(-0.0492299 0.0993478 0)
(0.0405672 0.191991 0)
(0.046426 0.00721563 0)
(0.00596382 -0.00543326 0)
(-0.00169629 0.0103255 0)
(0.0463826 -0.0297384 0)
(0.0988058 -0.0633047 0)
(0.0609764 -0.0259722 0)
(-0.0122887 0.0243842 0)
(-0.00517586 0.0475376 0)
(-0.0279574 0.029327 0)
(-0.0573808 -0.00296796 0)
(-0.0451206 0.000533197 0)
(-0.0279099 0.0447565 0)
(0.00496071 0.0229137 0)
(0.0554134 -0.0258342 0)
(0.0509674 -0.0881157 0)
(0.0118118 -0.134048 0)
(0.00532688 0.0819241 0)
(0.00606267 0.130467 0)
(0.0532697 -0.0244818 0)
(0.0176906 -0.10887 0)
(-0.138652 -0.10811 0)
(-0.118235 0.0236795 0)
(0.0632361 0.156781 0)
(0.077385 0.0228623 0)
(0.0225445 0.0115892 0)
(0.0313529 0.0043451 0)
(0.0881759 -0.0577054 0)
(0.0910852 -0.0571155 0)
(-0.00421632 0.0109649 0)
(-0.0672395 0.0499064 0)
(-0.0538879 0.0567178 0)
(-0.0416928 0.0408304 0)
(-0.0186981 0.00915727 0)
(0.0194985 -0.00285994 0)
(0.0204153 0.0237806 0)
(0.143038 -0.00657769 0)
(0.208949 -0.0304635 0)
(0.18245 -0.0546139 0)
(0.0913953 -0.0901223 0)
(0.0341332 -0.0242955 0)
(0.0436318 0.00843969 0)
(-0.186322 0.0524205 0)
(-0.438722 0.0450795 0)
(-0.504957 0.00135736 0)
(-0.419803 -0.0281372 0)
(-0.348212 -0.0231965 0)
(-0.298209 -0.0140619 0)
(-0.272703 -0.0069803 0)
(-0.241105 -0.00923079 0)
(-0.180441 -0.0152483 0)
(-0.0965996 -0.0158452 0)
(-0.00254502 -0.00199657 0)
(0.0199424 0.0232975 0)
(-0.0785195 0.0129805 0)
(-0.134496 -0.00789206 0)
(-0.146039 -0.00873827 0)
(-0.139625 -0.011309 0)
(-0.0486012 -0.0269409 0)
(-0.00947471 -0.00778513 0)
(-0.0913803 0.0803393 0)
(-0.339249 0.133265 0)
(-0.439094 0.0851484 0)
(-0.311817 -0.00683565 0)
(-0.23439 -0.0526319 0)
(-0.185049 -0.0369614 0)
(-0.202305 -0.0170665 0)
(-0.228174 -0.0114376 0)
(-0.220182 -0.0294856 0)
(-0.176167 -0.0526243 0)
(-0.1042 -0.0627121 0)
(-0.0224814 -0.0489182 0)
(0.075157 0.0101945 0)
(0.07754 0.0473807 0)
(0.019333 0.0397323 0)
(-0.0475837 0.00195478 0)
(-0.111871 -0.0243051 0)
(-0.0123038 -0.0683272 0)
(-0.0389304 0.0330504 0)
(-0.149658 0.13945 0)
(-0.291979 0.173389 0)
(-0.242907 0.0680381 0)
(-0.0812403 -0.0605277 0)
(0.0288866 -0.0801013 0)
(0.0996342 -0.0336097 0)
(0.0371828 0.00956826 0)
(-0.0672716 0.0103048 0)
(-0.106864 -0.0305208 0)
(-0.0966032 -0.0719529 0)
(-0.0522513 -0.089119 0)
(-0.00589226 -0.0761567 0)
(0.0478058 -0.024688 0)
(0.133534 0.035103 0)
(0.157701 0.0630572 0)
(0.106088 0.0457446 0)
(-0.0350896 -0.00671742 0)
(0.0100415 -0.0881586 0)
(-0.0380079 0.0714015 0)
(-0.119772 0.170577 0)
(-0.159891 0.173688 0)
(-0.0210049 0.021882 0)
(0.124858 -0.115542 0)
(0.284193 -0.138706 0)
(0.3621 -0.0395109 0)
(0.308658 0.0581027 0)
(0.163931 0.0584768 0)
(0.0449633 -0.0127513 0)
(0.0168505 -0.0794376 0)
(0.0244996 -0.106907 0)
(0.0489707 -0.0933473 0)
(0.081654 -0.0512346 0)
(0.131549 0.00148011 0)
(0.190453 0.0546523 0)
(0.191851 0.076051 0)
(0.0672685 0.0293109 0)
(0.0330323 -0.0757181 0)
(-0.0225821 0.107199 0)
(-0.0486857 0.179013 0)
(-0.00720799 0.145385 0)
(0.128343 -0.0278576 0)
(0.321569 -0.197264 0)
(0.441156 -0.220645 0)
(0.498999 -0.0837444 0)
(0.485712 0.0854295 0)
(0.365326 0.126853 0)
(0.231934 0.0464547 0)
(0.14653 -0.0542473 0)
(0.10208 -0.103581 0)
(0.0896 -0.100706 0)
(0.111083 -0.0643598 0)
(0.140058 -0.0161795 0)
(0.181215 0.039998 0)
(0.212389 0.0903676 0)
(0.130402 0.066185 0)
(0.0614663 -0.0452659 0)
(-0.00225956 0.09735 0)
(0.0164296 0.153115 0)
(0.101256 0.0898829 0)
(0.256849 -0.0919901 0)
(0.408345 -0.258574 0)
(0.331878 -0.240316 0)
(0.300134 -0.0799231 0)
(0.395286 0.0841262 0)
(0.389427 0.146107 0)
(0.310179 0.0844777 0)
(0.222857 -0.0153197 0)
(0.141417 -0.0778873 0)
(0.103225 -0.0930087 0)
(0.119812 -0.0717257 0)
(0.153879 -0.0257035 0)
(0.17478 0.0287851 0)
(0.206254 0.095587 0)
(0.160209 0.0983232 0)
(0.0788264 -0.000554676 0)
(-0.00724693 0.130688 0)
(0.050693 0.139621 0)
(0.174823 0.0390961 0)
(0.357055 -0.135926 0)
(0.2543 -0.20342 0)
(-0.149059 -0.13054 0)
(-0.221412 -0.0261619 0)
(0.0370443 0.0867347 0)
(0.212356 0.150151 0)
(0.222535 0.102247 0)
(0.165409 0.0146795 0)
(0.0901041 -0.0487596 0)
(0.0721293 -0.0857895 0)
(0.110276 -0.0836991 0)
(0.158291 -0.0363706 0)
(0.178243 0.022847 0)
(0.195165 0.0974426 0)
(0.164469 0.123904 0)
(0.0825703 0.0474363 0)
(0.120724 0.0700265 0)
(0.230798 0.0675932 0)
(0.342013 -0.0340806 0)
(0.288626 -0.089407 0)
(-0.20735 0.00251019 0)
(-0.541055 -0.067152 0)
(-0.406482 -0.129998 0)
(-0.292583 -0.0371332 0)
(-0.0716925 0.0825151 0)
(-0.0207994 0.084112 0)
(-0.00793799 0.0372684 0)
(-0.016555 -0.0391516 0)
(0.0267684 -0.106621 0)
(0.0816413 -0.113989 0)
(0.135661 -0.0579498 0)
(0.169103 0.0165661 0)
(0.185816 0.100807 0)
(0.158533 0.148835 0)
(0.0790702 0.09532 0)
(0.0447197 0.0664539 0)
(0.0788651 0.114964 0)
(0.1332 0.0182064 0)
(0.113034 -0.0435786 0)
(-0.0223283 -0.0245367 0)
(-0.125311 -0.0129327 0)
(-0.00468075 0.0612254 0)
(0.0426996 0.0240562 0)
(0.0284748 0.00978022 0)
(0.0519355 -0.039669 0)
(0.0754395 -0.082259 0)
(0.00975614 0.00341262 0)
(-0.11074 0.0673715 0)
(-0.177216 0.0404483 0)
(-0.165976 0.0112794 0)
(-0.116284 -0.0157446 0)
(-0.0467362 -0.041374 0)
(0.0293148 -0.0449153 0)
(0.113526 -0.0515668 0)
(0.162761 -0.0719474 0)
(0.208336 -0.0643697 0)
(0.222507 -0.0175684 0)
(0.159749 -0.0309046 0)
(0.0448088 -0.0370482 0)
(0.130493 -0.0080547 0)
(0.21385 -0.0185101 0)
(0.233258 0.00280089 0)
(0.163416 0.0504897 0)
(0.0448156 0.0298121 0)
(0.0307598 -0.0113358 0)
(0.0939932 -0.0172105 0)
(0.12094 0.00537591 0)
(0.114389 -0.0105629 0)
(-0.024281 0.0112103 0)
(-0.185452 0.100931 0)
(-0.423019 0.15741 0)
(-0.687331 0.0923928 0)
(-0.815053 -0.00452034 0)
(-0.690837 -0.114832 0)
(-0.513761 -0.154925 0)
(-0.399942 -0.148765 0)
(-0.387984 -0.132878 0)
(-0.413026 -0.0945208 0)
(-0.290557 -0.0855458 0)
(-0.0914527 -0.0270224 0)
(-0.102135 -0.0541245 0)
(-0.00114494 -0.0956351 0)
(0.119527 -0.105738 0)
(0.189046 -0.0989899 0)
(0.221076 0.0262746 0)
(0.175718 0.129794 0)
(0.102897 0.119006 0)
(0.0982471 0.0351184 0)
(0.0399775 -0.0431992 0)
(0.0277888 0.0218388 0)
(-0.0651709 0.0898465 0)
(-0.216778 0.16034 0)
(-0.525435 0.368798 0)
(-0.946923 0.552109 0)
(-1.23796 0.418625 0)
(-1.22085 0.0695319 0)
(-0.837395 -0.340737 0)
(-0.686985 -0.251108 0)
(-0.687984 -0.0826669 0)
(-0.773982 -0.0860071 0)
(-0.721746 -0.200138 0)
(-0.548929 -0.245681 0)
(-0.45149 -0.0574246 0)
(-0.527506 0.140154 0)
(-0.0365813 -0.123941 0)
(-0.139818 -0.161212 0)
(-0.320848 -0.0375438 0)
(-0.303805 0.172148 0)
(-0.17976 0.167249 0)
(0.0538571 0.0993206 0)
(0.0789225 0.0310865 0)
(-0.104432 0.057403 0)
(-0.740002 0.223491 0)
(-0.93098 0.305613 0)
(-1.07235 0.513274 0)
(-1.24973 0.833623 0)
(-1.49346 0.893566 0)
(-1.33606 0.365885 0)
(-0.960882 -0.324599 0)
(-0.664784 -0.634933 0)
(-0.503938 -0.483237 0)
(-0.351888 -0.182439 0)
(-0.278959 -0.0223278 0)
(-0.270085 -0.117792 0)
(-0.22454 -0.423161 0)
(-0.63197 -0.0113076 0)
(-0.90013 0.414644 0)
(-0.131026 0.0912102 0)
(-0.334926 -0.00105145 0)
(-0.373212 -0.128202 0)
(-0.330331 -0.00553476 0)
(-0.207326 -0.00359014 0)
(-0.237578 -0.182857 0)
(-0.585763 0.282636 0)
(-0.703613 0.623228 0)
(-0.903685 0.474569 0)
(-1.14173 0.395603 0)
(-1.43374 0.652896 0)
(-1.52925 0.906591 0)
(-1.42215 0.687129 0)
(-1.03219 0.0340167 0)
(-0.741979 -0.557854 0)
(-0.523511 -0.791113 0)
(-0.430472 -0.622571 0)
(-0.457126 -0.335676 0)
(-0.350841 -0.0340483 0)
(-0.256838 -0.132231 0)
(-0.07681 -0.246011 0)
(0.0820479 0.200303 0)
(-0.182195 0.418359 0)
(-0.0491028 0.254411 0)
(-0.14723 0.148893 0)
(-0.166198 0.00200974 0)
(-0.31819 -0.043479 0)
(-0.177895 -0.0715038 0)
(-0.121157 0.15431 0)
(-0.296983 0.445135 0)
(-0.510725 0.765065 0)
(-0.67178 0.705998 0)
(-0.92803 0.684793 0)
(-1.17533 0.772915 0)
(-1.18039 0.730656 0)
(-0.895642 0.277745 0)
(-0.588447 -0.321857 0)
(-0.595239 -0.689945 0)
(-0.346418 -0.904711 0)
(-0.313794 -0.650994 0)
(-0.463202 -0.326711 0)
(-0.401695 -0.196503 0)
(-0.19661 -0.400895 0)
(-0.157049 -0.494058 0)
(-0.0580995 0.0105217 0)
(0.110921 0.904475 0)
(0.0393064 0.28137 0)
(0.0432252 0.207937 0)
(0.068553 0.0847554 0)
(-0.131791 0.0711173 0)
(0.0141183 -0.16492 0)
(-0.000102824 0.0660949 0)
(0.00940274 0.628543 0)
(-0.222297 0.934401 0)
(-0.385189 0.878039 0)
(-0.563621 0.897845 0)
(-0.694404 0.874632 0)
(-0.639549 0.617454 0)
(-0.380472 0.0991953 0)
(-0.243089 -0.410849 0)
(-0.350252 -0.778606 0)
(-0.163841 -0.938409 0)
(-0.327427 -0.583227 0)
(-0.453391 -0.24861 0)
(-0.420418 -0.273885 0)
(-0.241957 -0.578616 0)
(-0.287562 -0.509239 0)
(-0.273082 -0.00997713 0)
(-0.157131 1.02387 0)
(0.0626461 0.154403 0)
(0.155341 0.138538 0)
(0.122155 0.156537 0)
(0.0617051 0.0370651 0)
(0.197017 -0.175585 0)
(0.146697 0.0591802 0)
(0.1638 0.686239 0)
(0.00948895 1.12002 0)
(-0.153843 1.01405 0)
(-0.22901 0.980173 0)
(-0.243897 0.895721 0)
(-0.154419 0.547584 0)
(0.0294938 0.00706717 0)
(-0.0150512 -0.425776 0)
(-0.0210027 -0.71992 0)
(-0.0300573 -0.790294 0)
(-0.459849 -0.40506 0)
(-0.473696 -0.212038 0)
(-0.448683 -0.362686 0)
(-0.425344 -0.607095 0)
(-0.509881 -0.440333 0)
(-0.558679 0.187511 0)
(-0.500474 1.05007 0)
(0.0588772 0.0242654 0)
(0.186373 0.110552 0)
(0.131993 0.212919 0)
(0.188244 -0.0993984 0)
(0.277611 -0.228393 0)
(0.182206 0.0782745 0)
(0.140147 0.738981 0)
(0.0839426 1.25294 0)
(-0.0381526 1.11839 0)
(-0.0316667 0.964625 0)
(0.0359092 0.818777 0)
(0.146565 0.454343 0)
(0.22591 -0.00993954 0)
(0.172925 -0.411732 0)
(0.175169 -0.626658 0)
(-0.0602932 -0.559132 0)
(-0.534896 -0.204291 0)
(-0.551937 -0.21157 0)
(-0.53059 -0.35582 0)
(-0.61243 -0.564326 0)
(-0.739414 -0.381036 0)
(-0.836553 0.238097 0)
(-0.70258 0.896627 0)
(0.031277 -0.103864 0)
(0.19176 0.071156 0)
(0.202259 0.227974 0)
(0.247916 -0.173825 0)
(0.247345 -0.17374 0)
(0.0656608 0.280414 0)
(-0.0347549 0.847843 0)
(-0.011459 1.30802 0)
(-0.028908 1.15615 0)
(0.0452826 0.907309 0)
(0.151768 0.693735 0)
(0.258371 0.358635 0)
(0.314172 -0.0878923 0)
(0.307854 -0.334216 0)
(0.183997 -0.461732 0)
(-0.202387 -0.223658 0)
(-0.638023 0.045632 0)
(-0.64756 -0.0697621 0)
(-0.631026 -0.360365 0)
(-0.702454 -0.461537 0)
(-0.863445 -0.234858 0)
(-0.956901 0.219607 0)
(-0.673377 0.598622 0)
(0.0218468 -0.21002 0)
(0.120533 -0.0291567 0)
(0.214138 0.164817 0)
(0.161265 -0.182491 0)
(0.0419418 -0.000425423 0)
(-0.211489 0.462727 0)
(-0.276289 0.913074 0)
(-0.193019 1.22797 0)
(-0.0899236 1.07195 0)
(0.033795 0.792325 0)
(0.148042 0.559005 0)
(0.297272 0.260476 0)
(0.363037 -0.0133646 0)
(0.308275 -0.204872 0)
(-0.0157257 -0.130874 0)
(-0.647747 0.253491 0)
(-0.759425 0.152552 0)
(-0.728094 -0.140794 0)
(-0.656612 -0.393005 0)
(-0.703558 -0.337304 0)
(-0.836134 -0.0818526 0)
(-0.802444 0.0752537 0)
(-0.631747 0.187695 0)
(0.0359638 -0.283314 0)
(-0.00684264 -0.0828792 0)
(0.122085 0.140641 0)
(-0.0470236 -0.0588624 0)
(-0.347569 0.253239 0)
(-0.560523 0.617615 0)
(-0.572425 0.907284 0)
(-0.427845 1.05892 0)
(-0.211723 0.925286 0)
(-0.00527467 0.699221 0)
(0.140307 0.48187 0)
(0.230857 0.115711 0)
(0.261768 -0.0976364 0)
(0.01534 -0.00895161 0)
(-0.560321 0.482808 0)
(-0.846887 0.423784 0)
(-0.852794 0.177645 0)
(-0.744422 -0.161269 0)
(-0.585381 -0.390218 0)
(-0.60492 -0.244956 0)
(-0.771806 -0.0192782 0)
(-0.837975 0.0814571 0)
(-0.8125 0.234557 0)
(-0.0107799 -0.27241 0)
(-0.10371 -0.0375491 0)
(-0.0985933 0.171881 0)
(-0.465142 0.260742 0)
(-0.775483 0.550501 0)
(-0.889825 0.735436 0)
(-0.764355 0.828059 0)
(-0.495028 0.818852 0)
(-0.232725 0.601589 0)
(-0.0211418 0.367915 0)
(0.120301 0.212591 0)
(0.0681566 0.108011 0)
(-0.158799 0.224414 0)
(-0.542762 0.526092 0)
(-0.780354 0.784226 0)
(-0.84282 0.487537 0)
(-0.763216 0.0350197 0)
(-0.557733 -0.407036 0)
(-0.381297 -0.568922 0)
(-0.30382 -0.256726 0)
(-0.249431 0.103941 0)
(-0.466917 0.13361 0)
(-0.582973 0.130396 0)
(-0.0968475 -0.150434 0)
(-0.233547 0.140579 0)
(-0.427276 0.389785 0)
(-0.822449 0.600619 0)
(-0.983972 0.704315 0)
(-0.859834 0.618906 0)
(-0.580502 0.493826 0)
(-0.34723 0.407918 0)
(-0.217026 0.352127 0)
(-0.204111 0.32369 0)
(-0.257533 0.353588 0)
(-0.553549 0.408189 0)
(-0.784769 0.571694 0)
(-0.909318 0.762754 0)
(-0.83872 0.783982 0)
(-0.683819 0.419484 0)
(-0.548539 -0.100076 0)
(-0.405553 -0.473879 0)
(-0.358672 -0.618559 0)
(-0.324265 -0.42052 0)
(-0.0752287 -0.0187197 0)
(0.115918 0.383986 0)
(-0.00640674 0.345497 0)
(-0.128617 0.0390929 0)
(-0.363767 0.390817 0)
(-0.673429 0.684236 0)
(-0.954329 0.799317 0)
(-0.893425 0.618388 0)
(-0.648787 0.324698 0)
(-0.51172 0.240564 0)
(-0.474635 0.357101 0)
(-0.554332 0.502196 0)
(-0.754789 0.538915 0)
(-0.990716 0.60003 0)
(-1.13404 0.597659 0)
(-1.13582 0.624773 0)
(-1.0059 0.639602 0)
(-0.757919 0.516079 0)
(-0.48802 0.156498 0)
(-0.359113 -0.220343 0)
(-0.287534 -0.486784 0)
(-0.335124 -0.598029 0)
(-0.364594 -0.557646 0)
(-0.237299 -0.328 0)
(0.0434167 0.0839222 0)
(0.207282 0.275098 0)
(-0.130192 0.305449 0)
(-0.440115 0.704426 0)
(-0.771602 0.944184 0)
(-0.93385 0.846741 0)
(-0.823493 0.430452 0)
(-0.782788 0.20624 0)
(-0.816587 0.301833 0)
(-0.898552 0.579153 0)
(-1.13098 0.729 0)
(-1.32283 0.760848 0)
(-1.41154 0.726855 0)
(-1.33376 0.595374 0)
(-1.1344 0.467173 0)
(-0.859789 0.391105 0)
(-0.558019 0.249322 0)
(-0.327187 -0.00662665 0)
(-0.251081 -0.266129 0)
(-0.271304 -0.453468 0)
(-0.355146 -0.546104 0)
(-0.435998 -0.550527 0)
(-0.455287 -0.393387 0)
(-0.377144 -0.0696263 0)
(-0.14793 0.158933 0)
(-0.0963422 0.58115 0)
(-0.437984 1.02911 0)
(-0.769407 1.18191 0)
(-0.91203 0.884471 0)
(-0.944003 0.443395 0)
(-1.05935 0.283782 0)
(-1.17819 0.416143 0)
(-1.23442 0.749746 0)
(-1.32241 0.88624 0)
(-1.37051 0.813373 0)
(-1.26481 0.567646 0)
(-1.06173 0.298064 0)
(-0.90015 0.129479 0)
(-0.712701 0.0347175 0)
(-0.540768 -0.0627426 0)
(-0.410162 -0.20431 0)
(-0.316973 -0.339352 0)
(-0.277831 -0.41159 0)
(-0.37749 -0.438975 0)
(-0.508993 -0.454221 0)
(-0.611457 -0.356263 0)
(-0.582788 -0.168886 0)
(-0.394169 -0.0648179 0)
(-0.0354801 0.811689 0)
(-0.339827 1.34739 0)
(-0.658296 1.42285 0)
(-0.881705 0.957327 0)
(-1.00172 0.561347 0)
(-1.1579 0.422483 0)
(-1.26015 0.485339 0)
(-1.22654 0.698396 0)
(-1.09678 0.837966 0)
(-0.979798 0.678576 0)
(-0.84338 0.393999 0)
(-0.702546 0.18613 0)
(-0.607892 0.0725258 0)
(-0.506687 -0.00920862 0)
(-0.376511 -0.123895 0)
(-0.197527 -0.278309 0)
(-0.0404105 -0.382937 0)
(-0.0611985 -0.347459 0)
(-0.121161 -0.326263 0)
(-0.183003 -0.347924 0)
(-0.283272 -0.351465 0)
(-0.284042 -0.339085 0)
(-0.15285 -0.359104 0)
(0.0357449 0.959668 0)
(-0.158136 1.60428 0)
(-0.342044 1.70834 0)
(-0.655083 1.15454 0)
(-0.821727 0.727268 0)
(-0.957481 0.528538 0)
(-1.01009 0.487599 0)
(-0.913557 0.529179 0)
(-0.70891 0.585609 0)
(-0.53839 0.55878 0)
(-0.416367 0.328804 0)
(-0.31824 0.117321 0)
(-0.146669 -0.0134219 0)
(0.0497195 -0.141376 0)
(0.249292 -0.279641 0)
(0.502363 -0.443546 0)
(0.643403 -0.465002 0)
(0.600463 -0.357423 0)
(0.547838 -0.267286 0)
(0.483618 -0.240725 0)
(0.378037 -0.26893 0)
(0.275662 -0.330796 0)
(0.243394 -0.419419 0)
(0.097578 0.975591 0)
(0.0297668 1.72876 0)
(0.0369042 1.89594 0)
(-0.171435 1.47774 0)
(-0.399997 0.939337 0)
(-0.515718 0.647076 0)
(-0.525993 0.494839 0)
(-0.423986 0.423899 0)
(-0.267121 0.395994 0)
(-0.0403617 0.34798 0)
(0.264738 0.194668 0)
(0.485155 -0.0585996 0)
(0.746211 -0.274876 0)
(0.9719 -0.435301 0)
(1.13471 -0.561693 0)
(1.22617 -0.602815 0)
(1.24497 -0.518743 0)
(1.2298 -0.365831 0)
(1.19988 -0.210041 0)
(1.12641 -0.107745 0)
(0.99574 -0.0942125 0)
(0.828776 -0.162299 0)
(0.642802 -0.266313 0)
(0.118316 0.862968 0)
(0.159006 1.70627 0)
(0.27248 1.88192 0)
(0.30377 1.65084 0)
(0.174959 1.14192 0)
(0.0218788 0.731284 0)
(0.00207748 0.470484 0)
(0.117805 0.297648 0)
(0.284036 0.168446 0)
(0.504515 0.0187166 0)
(0.758402 -0.15458 0)
(0.968693 -0.337897 0)
(1.11361 -0.478991 0)
(1.20366 -0.560229 0)
(1.26253 -0.596434 0)
(1.29586 -0.583523 0)
(1.31461 -0.501323 0)
(1.33421 -0.361679 0)
(1.35945 -0.19204 0)
(1.36962 -0.0335933 0)
(1.31136 0.0510517 0)
(1.15103 0.0501825 0)
(0.88841 -0.00357466 0)
(0.090114 0.701039 0)
(0.191665 1.59703 0)
(0.328408 1.72812 0)
(0.49658 1.56484 0)
(0.580461 1.20515 0)
(0.604935 0.796117 0)
(0.627911 0.44791 0)
(0.684806 0.198531 0)
(0.774022 0.0246644 0)
(0.862325 -0.136894 0)
(0.945484 -0.287428 0)
(1.01216 -0.416119 0)
(1.05132 -0.522034 0)
(1.07206 -0.599733 0)
(1.08714 -0.638666 0)
(1.1012 -0.622038 0)
(1.1185 -0.537719 0)
(1.15154 -0.408239 0)
(1.19159 -0.248188 0)
(1.22609 -0.0615039 0)
(1.21859 0.10732 0)
(1.12392 0.212869 0)
(0.901849 0.265355 0)
(0.036775 0.573265 0)
(0.147809 1.48663 0)
(0.24377 1.54872 0)
(0.419807 1.36207 0)
(0.589216 1.05355 0)
(0.699317 0.70757 0)
(0.75753 0.403701 0)
(0.773276 0.156708 0)
(0.772784 -0.0423046 0)
(0.777057 -0.194346 0)
(0.790558 -0.320731 0)
(0.808065 -0.435358 0)
(0.826018 -0.53361 0)
(0.845763 -0.604082 0)
(0.867651 -0.637527 0)
(0.891665 -0.622409 0)
(0.916094 -0.549638 0)
(0.941591 -0.430806 0)
(0.967928 -0.268181 0)
(0.988112 -0.0576471 0)
(0.991238 0.157623 0)
(0.941281 0.339359 0)
(0.78029 0.500817 0)
(-0.0186373 0.5059 0)
(0.0851929 1.42165 0)
(0.106309 1.42455 0)
(0.245621 1.17538 0)
(0.415777 0.868384 0)
(0.546171 0.591581 0)
(0.606874 0.35639 0)
(0.60895 0.149617 0)
(0.579867 -0.025745 0)
(0.554876 -0.180698 0)
(0.53755 -0.318452 0)
(0.529958 -0.442771 0)
(0.536031 -0.549681 0)
(0.554772 -0.630507 0)
(0.583726 -0.672964 0)
(0.622788 -0.660469 0)
(0.664209 -0.585551 0)
(0.698352 -0.462193 0)
(0.726225 -0.291528 0)
(0.745297 -0.0721335 0)
(0.745029 0.176181 0)
(0.711737 0.430354 0)
(0.62162 0.679886 0)
(-0.0633129 0.491864 0)
(0.0469714 1.39268 0)
(0.0149269 1.36229 0)
(0.149502 1.02985 0)
(0.284743 0.733225 0)
(0.365657 0.527262 0)
(0.385008 0.355352 0)
(0.356871 0.182919 0)
(0.315366 0.0127923 0)
(0.265613 -0.144495 0)
(0.228477 -0.292675 0)
(0.219049 -0.436609 0)
(0.232925 -0.56227 0)
(0.259049 -0.657576 0)
(0.292391 -0.71213 0)
(0.335585 -0.708103 0)
(0.384643 -0.631297 0)
(0.426449 -0.491176 0)
(0.452089 -0.298591 0)
(0.463335 -0.0586327 0)
(0.477935 0.208321 0)
(0.49066 0.483219 0)
(0.497911 0.747426 0)
(-0.0916377 0.512655 0)
(0.0276 1.36255 0)
(0.00404285 1.31033 0)
(0.134336 0.925677 0)
(0.186437 0.664063 0)
(0.184226 0.523612 0)
(0.148038 0.386689 0)
(0.0893117 0.229083 0)
(0.0120186 0.06809 0)
(-0.0543396 -0.0988237 0)
(-0.0759473 -0.282213 0)
(-0.0610611 -0.456175 0)
(-0.0274781 -0.594977 0)
(0.00795089 -0.694443 0)
(0.0377514 -0.752958 0)
(0.0677008 -0.756002 0)
(0.10596 -0.682517 0)
(0.157197 -0.526865 0)
(0.206041 -0.31442 0)
(0.238992 -0.0734651 0)
(0.274133 0.184375 0)
(0.338059 0.442952 0)
(0.433768 0.681242 0)
(-0.102487 0.5548 0)
(0.00324822 1.30657 0)
(0.0292079 1.23842 0)
(0.113542 0.867514 0)
(0.0709546 0.680214 0)
(0.00166801 0.577982 0)
(-0.0818786 0.457591 0)
(-0.181447 0.314458 0)
(-0.268402 0.139829 0)
(-0.301573 -0.0763332 0)
(-0.285439 -0.302643 0)
(-0.243917 -0.496664 0)
(-0.195363 -0.637807 0)
(-0.154218 -0.727757 0)
(-0.131867 -0.775667 0)
(-0.125657 -0.779363 0)
(-0.114669 -0.716705 0)
(-0.0784523 -0.570487 0)
(-0.0196384 -0.359092 0)
(0.0470393 -0.12176 0)
(0.120973 0.113925 0)
(0.22804 0.332638 0)
(0.378482 0.519828 0)
(-0.0995517 0.610131 0)
(-0.0282784 1.23578 0)
(0.0311654 1.17322 0)
(0.0402699 0.882115 0)
(-0.0599653 0.765929 0)
(-0.167949 0.675983 0)
(-0.283804 0.559986 0)
(-0.382257 0.39994 0)
(-0.423052 0.176134 0)
(-0.402028 -0.0984476 0)
(-0.34897 -0.356111 0)
(-0.291264 -0.5575 0)
(-0.242759 -0.68954 0)
(-0.208042 -0.759305 0)
(-0.193523 -0.781901 0)
(-0.206675 -0.772663 0)
(-0.23086 -0.718674 0)
(-0.233225 -0.59762 0)
(-0.195259 -0.413103 0)
(-0.122138 -0.198135 0)
(-0.0248871 0.0106172 0)
(0.102539 0.188498 0)
(0.268889 0.319349 0)
(-0.0918205 0.67535 0)
(-0.0563951 1.18612 0)
(-0.0112702 1.14548 0)
(-0.0594848 0.958589 0)
(-0.172251 0.880366 0)
(-0.285038 0.789576 0)
(-0.383538 0.649787 0)
(-0.428275 0.43502 0)
(-0.399934 0.142381 0)
(-0.325456 -0.167268 0)
(-0.243531 -0.425745 0)
(-0.180998 -0.611884 0)
(-0.15235 -0.724742 0)
(-0.150882 -0.77841 0)
(-0.158736 -0.777909 0)
(-0.18118 -0.745215 0)
(-0.225387 -0.689533 0)
(-0.264338 -0.593437 0)
(-0.268398 -0.448884 0)
(-0.228728 -0.275666 0)
(-0.147544 -0.10428 0)
(-0.0317333 0.0387578 0)
(0.117689 0.130068 0)
(-0.0845356 0.751812 0)
(-0.0777398 1.17384 0)
(-0.0674535 1.15671 0)
(-0.128109 1.05037 0)
(-0.220594 0.983435 0)
(-0.297028 0.871722 0)
(-0.33129 0.687024 0)
(-0.30329 0.413972 0)
(-0.212908 0.0835743 0)
(-0.101704 -0.237184 0)
(-0.00944881 -0.488884 0)
(0.0457168 -0.637645 0)
(0.0510637 -0.711519 0)
(0.00469471 -0.750673 0)
(-0.053844 -0.751728 0)
(-0.0948331 -0.711421 0)
(-0.138576 -0.645297 0)
(-0.190211 -0.563296 0)
(-0.223025 -0.454571 0)
(-0.219618 -0.323705 0)
(-0.176878 -0.193205 0)
(-0.0988519 -0.0862185 0)
(0.0163718 -0.02341 0)
(-0.0739381 0.83269 0)
(-0.0828419 1.1865 0)
(-0.0901862 1.18441 0)
(-0.129671 1.11999 0)
(-0.180246 1.04385 0)
(-0.199444 0.896632 0)
(-0.164334 0.663899 0)
(-0.0743784 0.35456 0)
(0.0565873 0.00271881 0)
(0.180034 -0.327438 0)
(0.25638 -0.556107 0)
(0.286218 -0.658178 0)
(0.270883 -0.671989 0)
(0.202847 -0.667387 0)
(0.0969367 -0.67466 0)
(0.0130231 -0.663103 0)
(-0.0351329 -0.602129 0)
(-0.0782805 -0.522705 0)
(-0.114174 -0.438415 0)
(-0.124685 -0.343605 0)
(-0.103134 -0.249299 0)
(-0.0535378 -0.174279 0)
(0.0228011 -0.133452 0)
(-0.0497907 0.903 0)
(-0.0559733 1.19993 0)
(-0.0607191 1.20234 0)
(-0.0655394 1.14696 0)
(-0.0640197 1.05113 0)
(-0.0261931 0.864961 0)
(0.0613938 0.587262 0)
(0.182231 0.249928 0)
(0.326684 -0.118068 0)
(0.432198 -0.421426 0)
(0.469662 -0.599873 0)
(0.455969 -0.659633 0)
(0.419269 -0.632243 0)
(0.357688 -0.575938 0)
(0.251893 -0.559759 0)
(0.136009 -0.579034 0)
(0.0611633 -0.554171 0)
(0.0186248 -0.483789 0)
(-0.0146496 -0.41053 0)
(-0.0324255 -0.33996 0)
(-0.0257959 -0.271257 0)
(0.00372035 -0.216513 0)
(0.0463111 -0.188536 0)
(-0.00575468 0.936972 0)
(0.00864305 1.20552 0)
(0.0108877 1.19741 0)
(0.0382235 1.12822 0)
(0.0858715 1.00463 0)
(0.168318 0.782623 0)
(0.28544 0.473843 0)
(0.42235 0.115467 0)
(0.549065 -0.231189 0)
(0.598624 -0.467712 0)
(0.579477 -0.585909 0)
(0.537796 -0.620406 0)
(0.494971 -0.584741 0)
(0.445161 -0.507171 0)
(0.368699 -0.456964 0)
(0.261722 -0.472102 0)
(0.162554 -0.484844 0)
(0.103349 -0.443037 0)
(0.0667305 -0.379705 0)
(0.0400385 -0.324453 0)
(0.0304048 -0.276254 0)
(0.0391154 -0.236693 0)
(0.0571968 -0.216016 0)
(0.0429659 0.893857 0)
(0.091668 1.20195 0)
(0.105858 1.17317 0)
(0.15242 1.07483 0)
(0.228649 0.916469 0)
(0.335559 0.66808 0)
(0.463974 0.341967 0)
(0.59396 -0.0158836 0)
(0.656527 -0.291938 0)
(0.63869 -0.454424 0)
(0.604482 -0.547424 0)
(0.585295 -0.578765 0)
(0.561094 -0.541359 0)
(0.521357 -0.453376 0)
(0.461905 -0.380117 0)
(0.373166 -0.370024 0)
(0.266283 -0.395372 0)
(0.18525 -0.387504 0)
(0.13738 -0.341548 0)
(0.102515 -0.297313 0)
(0.0782545 -0.264588 0)
(0.0685631 -0.238782 0)
(0.0679639 -0.223608 0)
(0.077228 0.781638 0)
(0.162841 1.16586 0)
(0.19804 1.13542 0)
(0.252947 1.00538 0)
(0.337895 0.813308 0)
(0.449398 0.543015 0)
(0.571074 0.212535 0)
(0.644859 -0.081788 0)
(0.648334 -0.283088 0)
(0.635115 -0.430976 0)
(0.645521 -0.542995 0)
(0.672036 -0.580786 0)
(0.680364 -0.520613 0)
(0.646021 -0.403409 0)
(0.573234 -0.304525 0)
(0.474988 -0.269414 0)
(0.359477 -0.292603 0)
(0.259375 -0.313607 0)
(0.195623 -0.292647 0)
(0.15186 -0.260148 0)
(0.11711 -0.238727 0)
(0.0934285 -0.2243 0)
(0.0789424 -0.215198 0)
(0.0841077 0.634387 0)
(0.197586 1.08646 0)
(0.256727 1.08421 0)
(0.314227 0.933558 0)
(0.394675 0.710955 0)
(0.496267 0.42397 0)
(0.579175 0.127768 0)
(0.614023 -0.101973 0)
(0.637821 -0.291346 0)
(0.671119 -0.458414 0)
(0.71733 -0.58862 0)
(0.771698 -0.616399 0)
(0.806595 -0.517138 0)
(0.782137 -0.348104 0)
(0.690548 -0.207754 0)
(0.562932 -0.151267 0)
(0.428792 -0.174481 0)
(0.314274 -0.222003 0)
(0.236928 -0.231134 0)
(0.18448 -0.214719 0)
(0.142979 -0.203452 0)
(0.110676 -0.198801 0)
(0.0870111 -0.196698 0)
(0.0630473 0.497147 0)
(0.18713 0.981766 0)
(0.261942 1.02068 0)
(0.321797 0.862812 0)
(0.399507 0.618781 0)
(0.484581 0.337527 0)
(0.545536 0.0871975 0)
(0.598579 -0.137458 0)
(0.650918 -0.338421 0)
(0.694108 -0.510439 0)
(0.738398 -0.643734 0)
(0.802784 -0.670441 0)
(0.857271 -0.532483 0)
(0.846579 -0.295685 0)
(0.753735 -0.0979407 0)
(0.607016 -0.0162734 0)
(0.455905 -0.0439543 0)
(0.336758 -0.119141 0)
(0.254673 -0.160071 0)
(0.197122 -0.163576 0)
(0.152773 -0.163353 0)
(0.117395 -0.167325 0)
(0.0897393 -0.172036 0)
(0.0339398 0.391032 0)
(0.142872 0.879389 0)
(0.222721 0.947614 0)
(0.296613 0.791439 0)
(0.381816 0.541536 0)
(0.459428 0.279983 0)
(0.528939 0.0277199 0)
(0.591908 -0.19998 0)
(0.634509 -0.385232 0)
(0.661479 -0.545893 0)
(0.691834 -0.699967 0)
(0.760044 -0.737453 0)
(0.832862 -0.553133 0)
(0.822074 -0.239046 0)
(0.715593 0.0268857 0)
(0.5647 0.130556 0)
(0.423493 0.0854263 0)
(0.320419 -0.0199194 0)
(0.245828 -0.0880285 0)
(0.189269 -0.110909 0)
(0.146205 -0.122852 0)
(0.112382 -0.135121 0)
(0.0854531 -0.146092 0)
(0.000684919 0.324882 0)
(0.0885628 0.792606 0)
(0.175927 0.858775 0)
(0.270818 0.708132 0)
(0.361849 0.469447 0)
(0.440807 0.20862 0)
(0.504742 -0.0381813 0)
(0.535645 -0.240756 0)
(0.547009 -0.404082 0)
(0.568899 -0.568605 0)
(0.590333 -0.756374 0)
(0.647376 -0.818769 0)
(0.736186 -0.566914 0)
(0.731819 -0.176722 0)
(0.601189 0.134241 0)
(0.444099 0.255873 0)
(0.338318 0.196562 0)
(0.273535 0.0681836 0)
(0.215161 -0.0206444 0)
(0.163834 -0.0610236 0)
(0.125515 -0.0855729 0)
(0.096575 -0.10602 0)
(0.073672 -0.122595 0)
(-0.0471051 0.310064 0)
(0.0436603 0.714662 0)
(0.137822 0.752126 0)
(0.23818 0.608354 0)
(0.32729 0.378662 0)
(0.391172 0.13692 0)
(0.409625 -0.0700937 0)
(0.404765 -0.243862 0)
(0.405875 -0.413795 0)