/*--------------------------------*- C++ -*----------------------------------*\
| =========                 |                                                 |
| \\      /  F ield         | OpenFOAM: The Open Source CFD Toolbox           |
|  \\    /   O peration     | Version:  2.3.0                                 |
|   \\  /    A nd           | Web:      www.OpenFOAM.org                      |
|    \\/     M anipulation  |                                                 |
\*---------------------------------------------------------------------------*/
FoamFile
{
    version     2.0;
    format      ascii;
    class       volScalarField;
    location    "0.092";
    object      alpha.water;
}
// * * * * * * * * * * * * * * * * * * * * * * * * * * * * * * * * * * * * * //

dimensions      [0 0 0 0 0 0 0];

internalField   nonuniform List<scalar> 
725
(
1
1
0.999998
1
0.947239
1
1
0.999999
1
0.964027
1
1
0.999997
1.00001
0.994554
1
1
0.99999
1.00001
0.999749
1
1
0.999949
1
0.913872
0.459985
0.493878
0.995791
0.999984
0.999954
1.00002
1.00001
1.00004
1
0.558805
0.00776892
0.000854525
0.000852305
0.000853983
0.212776
0.852849
0.999029
0.997868
0.997713
0.998008
0.998305
0.99851
0.99919
0.999629
0.999932
1.00004
1.00004
1.00003
1.00002
1.00002
1.00003
1.00003
1.00003
1.00003
1.00003
1.00002
1.00002
1.00003
1.00003
1.00003
1.00003
1.00001
1
0.637316
0.00831349
0.417602
0.546343
0.999999
0.999976
0.999933
0.999935
1
1.00002
1
0.565593
0.00427082
0.00084998
0.000853154
0.000854007
0.204932
0.848426
0.999436
0.999147
0.998639
0.998099
0.997498
0.997284
0.997355
0.998165
0.998839
0.999328
0.999605
0.999748
0.999807
0.999841
0.999863
0.999879
0.999891
0.999898
0.999902
0.999898
0.999898
0.999888
0.999884
0.999888
0.999867
0.99996
1
0.6665
0.00918879
0.290773
0.553322
0.999915
0.999993
0.999918
0.999896
0.999963
0.999998
1
0.533535
0.00122303
0.000856742
0.000850593
0.000856045
0.192099
0.845527
0.999752
0.999736
0.9998
0.999852
1.00016
1
0.995211
0.994483
0.99675
0.999317
0.999341
0.999482
0.999604
0.999689
0.999745
0.999783
0.999809
0.999823
0.999846
0.999845
0.999814
0.999756
0.999749
0.999718
0.99965
0.999913
1
0.62176
0.00160334
0.250512
0.643411
1
1.00001
0.999903
0.999869
0.99994
1.00004
1
0.550132
0.00375516
0.000850989
0.000849471
0.000851388
0.174067
0.840528
0.999794
0.99976
0.9998
0.999904
1.00028
0.999812
0.994692
0.994481
0.994481
0.995313
0.999385
0.99961
0.999663
0.9997
0.999728
0.999747
0.999763
0.999725
0.999907
0.999848
0.999685
0.999431
0.99975
0.999239
0.999012
0.999825
1
0.577459
0.00160089
0.0787226
0.540494
0.998778
0.999936
0.999876
0.999869
0.99992
1.0001
0.995852
0.53064
0.00784509
0.000859489
0.000849634
0.00085987
0.151444
0.840558
0.999822
0.999819
0.999846
0.999798
0.999746
0.999771
0.996248
0.994482
0.994481
0.995271
0.999422
0.99994
0.99974
0.999741
0.999726
0.999723
0.999725
0.999723
0.999701
0.99971
0.99989
1
0.997154
0.995694
0.995751
0.999828
0.999407
0.628864
0.0211732
0.0430809
0.582627
0.995153
0.999937
0.999861
0.999916
0.99991
0.999992
0.988628
0.5008
0.00205624
0.000902234
0.000864114
0.000878058
0.13906
0.843748
0.999741
0.99965
0.999693
0.999679
0.999611
0.999413
0.996437
0.995096
0.994482
0.99493
0.997177
0.998183
0.998721
0.998922
0.999176
0.999391
0.999532
0.999604
0.999628
0.999664
0.999609
0.999471
0.997184
0.995694
0.996254
0.999851
0.986787
0.588717
0.0325066
0.0359526
0.567395
0.980812
0.999956
0.999959
0.999938
0.999928
0.999987
0.990023
0.500879
0.00158653
0.00093351
0.000945933
0.000877963
0.134315
0.843989
0.999592
0.999506
0.999809
0.999651
0.999495
0.999462
0.996316
0.995224
0.994549
0.996149
0.996997
0.998059
0.998645
0.998973
0.999191
0.999343
0.999454
0.999525
0.99956
0.999639
0.999615
0.999254
0.997896
0.9957
0.99715
0.99992
0.977346
0.568585
0.0418055
0.0184264
0.572528
0.943627
0.999961
0.999966
0.999952
0.999946
1.00009
0.990529
0.478636
0.0018096
0.00272787
0.00326972
0.000888206
0.130742
0.844824
0.999426
0.999255
0.999378
0.999488
0.999046
0.997013
0.996184
0.996189
0.99511
0.997014
0.997008
0.998005
0.998696
0.999011
0.999191
0.999306
0.999395
0.999466
0.999479
0.999861
0.999666
0.999166
0.999196
0.995947
0.998049
0.999926
0.980993
0.551847
0.0505786
0.0162955
0.556794
0.908551
0.999964
0.999974
0.999959
0.999965
1.0002
0.991086
0.463224
0.00156704
0.00329678
0.0032677
0.000891098
0.126733
0.844965
0.999631
0.99962
0.999397
0.999427
0.99977
0.9963
0.995982
0.995433
0.994721
0.995365
0.997066
0.998142
0.998881
0.999156
0.999277
0.99934
0.999394
0.999449
0.999516
0.999525
0.999565
0.999375
0.999926
0.999167
0.999599
0.999909
0.976679
0.590506
0.0406762
0.0253809
0.561953
0.892949
0.999967
0.999976
0.999962
0.999984
0.999979
0.990384
0.485675
0.00157445
0.00208086
0.00328669
0.000845201
0.124565
0.84599
0.999609
0.99942
0.999771
0.999504
0.999616
0.99962
0.995892
0.994769
0.994719
0.994724
0.997005
0.998297
0.999069
0.999316
0.999402
0.999432
0.999454
0.999485
0.999545
0.999663
0.999622
0.999546
0.999698
0.998069
0.999921
0.99991
0.966447
0.627762
0.0347978
1
1
0.999999
1
0.915619
1
1
0.999999
1.00001
1
1
1
1
1
0.993766
1
1
0.999998
1
0.992414
1
1
0.999981
0.999987
0.999938
0.0589149
0.521912
0.889765
0.999968
0.999978
0.999963
1.00001
1.00001
0.990281
0.544203
0.0143834
0.000898529
0.000801199
0.000770297
0.116233
0.845897
0.999847
0.999847
0.999678
0.999509
0.999583
0.999334
0.995146
0.994718
0.994719
0.998149
0.998738
0.999142
0.999394
0.99948
0.999518
0.999543
0.999567
0.999594
0.999621
0.999672
1.00003
0.999906
0.99986
0.993366
0.995517
0.999817
0.994663
0.662842
0.0587372
0.107274
0.583029
0.911823
0.999978
0.999974
0.999974
1.00001
1.00003
1
0.610059
0.0141291
0.000762622
0.00075933
0.000759436
0.105797
0.85713
0.999756
0.999657
0.999714
0.99985
1
0.996476
0.994719
0.994718
0.996301
0.999636
0.999925
0.999834
0.999799
0.999769
0.99975
0.999739
0.999734
0.999733
0.999735
0.999775
1.00021
1.00001
0.995166
0.992411
0.992419
0.998422
0.999953
0.662351
0.0665729
0.144876
0.58416
0.874334
0.999977
0.999958
0.999975
1.00002
1.00004
1
0.615463
0.00898897
0.000760099
0.000759058
0.000759066
0.0969543
0.870298
0.999643
0.999621
0.999656
1.00012
1.00004
0.998167
0.994957
0.996695
0.999121
0.999395
0.999578
0.999683
0.999748
0.999785
0.999804
0.999814
0.999822
0.999831
0.999835
0.999865
1.00032
0.999947
0.992417
0.99241
0.99307
0.99879
0.999958
0.764545
0.0571526
0.595669
0.704773
0.8891
0.999979
0.999935
0.999972
1.00002
1.00003
1
0.665415
0.0256964
0.000759052
0.000759051
0.000759051
0.0904803
0.880663
0.999522
0.999412
0.999294
0.998974
0.998482
0.998067
0.998216
0.998743
0.999232
0.999535
0.999716
0.999819
0.99988
0.999911
0.999927
0.999933
0.999936
0.999939
0.999899
1.0002
1.00012
0.997683
0.992439
0.99399
0.998501
0.999839
0.999958
0.699597
0.0312619
0.946135
0.726129
0.902075
0.999895
0.999797
1.00002
1.00002
1.00002
1.00001
0.663826
0.032886
0.000759298
0.000759246
0.00075906
0.0891415
0.889519
0.999366
0.99931
0.999279
0.999165
0.999208
0.999593
0.999987
1.00004
1.00002
1.00002
1.00002
1.00002
1.00002
1.00002
1.00002
1.00002
1.00002
1.00003
0.999985
0.999674
0.998157
0.995599
0.996162
0.998799
0.999582
0.999892
0.999958
0.64339
0.00153373
)
;

boundaryField
{
    AirInlet
    {
        type            fixedValue;
        value           uniform 0;
    }
    WaterInlet
    {
        type            fixedValue;
        value           uniform 1;
    }
    ChannelWall
    {
        type            zeroGradient;
    }
    Outlet
    {
        type            inletOutlet;
        inletValue      uniform 0;
        value           nonuniform List<scalar> 
15
(
0
0.00918879
0.00160334
0.00160089
0.0211732
0.0325066
0
0
0
0
0.0587372
0.0665729
0.0571526
0
0
)
;
    }
    FrontAndBack
    {
        type            empty;
    }
}


// ************************************************************************* //
