/*--------------------------------*- C++ -*----------------------------------*\
| =========                 |                                                 |
| \\      /  F ield         | OpenFOAM: The Open Source CFD Toolbox           |
|  \\    /   O peration     | Version:  2.3.0                                 |
|   \\  /    A nd           | Web:      www.OpenFOAM.org                      |
|    \\/     M anipulation  |                                                 |
\*---------------------------------------------------------------------------*/
FoamFile
{
    version     2.0;
    format      ascii;
    class       volScalarField;
    location    "0.092";
    object      p;
}
// * * * * * * * * * * * * * * * * * * * * * * * * * * * * * * * * * * * * * //

dimensions      [1 -1 -2 0 0 0 0];

internalField   nonuniform List<scalar> 
725
(
-1101.27
-1128.5
-1158.8
-1157.49
-1198.34
-1106.56
-1127.67
-1159.12
-1151.47
-1197.62
-1108.95
-1127.82
-1158.99
-1142.04
-1164.2
-1108.5
-1129.11
-1158.92
-1132.57
-1151.98
-1105.44
-1131.25
-1159.52
-1149.68
-1309.73
-305.947
-234.998
-663.449
-686.851
-659.462
-688.586
-699.351
-705.026
-677.323
-648.011
-716.038
-715.225
-709.493
-715.664
-686.385
-648.726
-698.81
-718.291
-719.466
-726.121
-730.432
-723.818
-730.229
-727.514
-726.848
-723.303
-734.729
-745.036
-750.788
-754.715
-757.437
-759.502
-761.221
-762.738
-764.273
-764.657
-767.905
-766.086
-769.18
-760.523
-711.482
-710.4
-553.934
-174.964
-8.28404
-170.734
-329.743
-655.201
-688.851
-666.25
-693.491
-704.477
-712.184
-693.614
-691.485
-717.018
-715.607
-708.507
-716.006
-690.744
-660.481
-701.744
-720.525
-725.016
-727.421
-728.335
-720.387
-736.409
-733.294
-731.633
-724.122
-736.501
-746.417
-751.923
-755.615
-758.246
-760.251
-761.913
-763.396
-764.968
-765.429
-768.494
-766.787
-770.447
-765.461
-718.165
-737.573
-695.39
-739.891
-7.62898
418.755
-333.121
-571.299
-697.449
-678.324
-701.294
-713.077
-723.774
-717.69
-805.152
-715.578
-716.588
-706.319
-717.453
-692.439
-678.641
-710.007
-723.798
-726.632
-728.225
-727.306
-716.685
-730.383
-729.497
-731.853
-719.024
-735.72
-745.56
-751.9
-755.864
-758.523
-760.484
-762.119
-763.556
-765.19
-765.636
-768.783
-767.246
-772.254
-773.48
-721.372
-768.093
-808.986
-1215.69
23.5888
638.007
-278.91
-577.894
-743.468
-698.949
-711.649
-724.591
-738.604
-704.044
-584.289
-716.948
-718.552
-703.549
-719.338
-697.992
-709.123
-722.358
-730.422
-729.107
-730.048
-726.057
-715.808
-729.856
-730.96
-733.524
-705.073
-736.916
-746.947
-752.814
-756.448
-758.95
-760.794
-762.345
-763.718
-765.313
-765.815
-769.334
-766.513
-774.606
-784.686
-715.873
-785.619
-828.47
-1350.14
28.6642
1712.53
-139.015
-567.707
-819.257
-723.396
-723.358
-737.313
-762.456
-765.089
-565.131
-722.553
-720.003
-702.005
-720.937
-705.951
-742.897
-734.324
-737.165
-730.699
-733.703
-732.995
-712.07
-735.735
-733.727
-738.154
-690.028
-739.82
-746.961
-754.075
-757.266
-759.492
-761.15
-762.606
-763.907
-765.829
-766.171
-769.604
-768.09
-757.576
-790.286
-671.768
-792.287
-745.319
-694.496
-39.1325
1971.75
-13.239
-595.854
-826.786
-729.978
-730.24
-744.425
-779.481
-836.772
-766.856
-726.774
-717.78
-705.249
-722.09
-716.848
-765.077
-739.897
-742.94
-738.683
-736.837
-735.038
-714.416
-736.12
-739.118
-744.837
-674.619
-745.518
-747.426
-754.391
-754.408
-758.569
-761.324
-762.82
-763.987
-766.119
-763.453
-767.534
-769.985
-758.273
-805.718
-664.305
-827.759
-806.774
-733.867
-82.0769
2002.77
-54.6433
-756.638
-823.886
-732.979
-733.02
-746.713
-785.031
-878.671
-996.573
-727.155
-715.621
-707.611
-722.268
-721.864
-773.323
-742.232
-745.191
-734.416
-737.935
-735.217
-712.229
-738.308
-740.696
-747.331
-671.301
-744.229
-746.662
-752.672
-756.304
-759.193
-761.375
-762.904
-764.032
-766.167
-762.587
-767.935
-769.34
-761.478
-811.756
-659.142
-836.157
-800.922
-690.585
-81.6844
2116.46
-253.763
-961.622
-822.627
-737.716
-735.999
-748.542
-788.73
-938.906
-1645.12
-721.02
-717.169
-717.982
-722.522
-726.659
-780.995
-744.447
-738.949
-734.282
-739.307
-720.816
-697.017
-740.231
-711.178
-731.259
-635.832
-745.211
-746.164
-754.932
-757.692
-759.274
-760.198
-762.058
-764.014
-764.209
-754.379
-767.923
-766.195
-762.868
-818.534
-652.511
-840.077
-805.518
-478.164
-6.24138
2145.75
-401.809
-897.375
-825.841
-743.169
-739.044
-749.984
-789.723
-980.587
-2071.57
-714.422
-694.109
-722.092
-723.152
-729.726
-785.935
-746.335
-752.063
-734.756
-738.465
-741.607
-670.618
-741.315
-737.889
-745.478
-685.048
-747.649
-749.933
-755.929
-757.969
-759.662
-761.373
-762.052
-763.511
-765.632
-766.076
-766.643
-772.336
-762.112
-713.221
-641.722
-836.064
-792.334
-883.763
-37.4651
2037.57
-407.811
-775.084
-831.407
-748.527
-741.948
-750.949
-789.509
-959.498
-2023.46
-718.807
-729.465
-728.222
-723.083
-732.732
-787.571
-748.178
-760.894
-747.423
-742.19
-746.308
-762.174
-742.568
-739.38
-747.167
-656.312
-748.285
-751.601
-756.282
-758.11
-759.779
-761.498
-763.24
-764.807
-766.053
-770.638
-768.586
-772.158
-770.315
-757.066
-622.987
-828.248
-726.132
-804.224
-11.504
-844.265
-875.779
-919.848
-841.659
-804.99
-847.601
-873.18
-923.703
-864.308
-1309.58
-847.787
-869.935
-919.917
-830.01
-1220.66
-844.975
-867.793
-915.888
-807.445
-1259.36
-839.238
-866.772
-908.888
-783.911
-1125.49
1705.16
-280.424
-756.29
-843.41
-763.547
-749.495
-752.249
-778.517
-815.528
-813.677
-750.852
-724.351
-734.612
-722.111
-739.834
-790.198
-753.242
-742.296
-746.754
-744.795
-747.514
-756.54
-745.326
-744.608
-754.519
-821.91
-764.392
-756.22
-757.306
-758.587
-760.066
-761.705
-763.409
-765.101
-766.607
-770.517
-769.207
-770.975
-768.135
-769.996
-843.093
-804.325
-850.13
-618.157
-115.479
1311.19
-588.895
-824.113
-883.572
-787.881
-763.413
-752.143
-746.339
-700.487
-494.432
-748.772
-724.99
-733.824
-722.015
-741.95
-782.333
-754.45
-746.288
-746.631
-745.326
-748.914
-762.11
-741.308
-748.226
-758.531
-800.619
-765.229
-759.196
-758.836
-759.369
-760.539
-762.023
-763.691
-765.414
-767.008
-770.323
-769.048
-770.821
-769.61
-764.628
-807.447
-812.978
-834.755
-596.882
-120.788
972.372
-720.647
-875.599
-954.104
-810.597
-774.482
-748.982
-724.076
-679.737
-756.53
-738.52
-725.577
-732.472
-722.989
-736.306
-764.106
-752.202
-746.599
-746.588
-744.272
-749.06
-768.647
-746.926
-753.595
-762.533
-789.128
-767.736
-761.245
-759.996
-760.013
-760.945
-762.306
-763.937
-765.692
-767.537
-770.795
-768.244
-772.298
-759.218
-772.352
-806.399
-811.076
-747.583
-474.112
-86.5269
-362.182
-1175.07
-886.455
-975.272
-823.923
-782.787
-745.087
-708.699
-641.472
-616.656
-735.455
-726.512
-731.635
-723.969
-731.42
-743.744
-749.242
-746.229
-746.52
-747.094
-751.074
-765.477
-754.245
-757.196
-763.857
-783.315
-768.403
-762.441
-760.609
-760.432
-761.245
-762.536
-764.133
-765.932
-767.783
-768.532
-770.917
-777.364
-760.737
-783.991
-814.978
-821.042
-803.89
-585.529
-60.8262
710.947
-1147.28
-893.107
-934.152
-821.536
-782.459
-740.859
-700.028
-615.375
-541.255
-728.248
-726.978
-731.259
-724.639
-730.452
-721.457
-747.773
-745.301
-746.127
-747.656
-752.336
-762.832
-748.397
-753.21
-761.57
-779.67
-767.614
-762.176
-760.468
-760.304
-761.118
-762.389
-763.946
-765.65
-767.873
-771.583
-765.233
-768.47
-765.847
-771.467
-811.603
-842.893
-1004.47
-1767.36
14.0169
)
;

boundaryField
{
    AirInlet
    {
        type            calculated;
        value           nonuniform List<scalar> 5(2264.91 2054.88 2311.44 2360.47 2293.41);
    }
    WaterInlet
    {
        type            calculated;
        value           nonuniform List<scalar> 10(-1101.26 -1106.55 -1108.94 -1108.49 -1105.42 -844.283 -847.616 -847.797 -844.981 -839.241);
    }
    ChannelWall
    {
        type            calculated;
        value           nonuniform List<scalar> 
110
(
-1105.47
-1131.28
-1159.55
-1149.72
-1309.77
-844.239
-875.749
-919.814
-841.621
-804.952
-839.265
-866.803
-908.922
-783.949
-1125.54
710.905
-1147.31
-893.147
-934.196
-821.58
-782.503
-740.903
-700.073
-615.419
-541.284
-728.249
-726.978
-731.259
-724.64
-730.456
-721.496
-747.817
-745.345
-746.171
-747.7
-752.38
-762.876
-748.441
-753.254
-761.614
-779.714
-767.658
-762.22
-760.512
-760.348
-761.162
-762.433
-763.99
-765.695
-767.917
-771.627
-765.277
-768.514
-765.891
-771.511
-811.647
-842.937
-1004.51
-1767.39
14.0168
-1101.24
-1128.47
-1158.76
-1157.45
-1198.3
-305.927
-234.976
-663.405
-686.807
-659.417
-688.542
-699.307
-704.982
-677.279
-647.986
-716.037
-715.225
-709.492
-715.664
-686.375
-648.689
-698.766
-718.247
-719.422
-726.077
-730.388
-723.774
-730.184
-727.47
-726.804
-723.259
-734.685
-744.991
-750.744
-754.671
-757.393
-759.458
-761.177
-762.694
-764.229
-764.613
-767.861
-766.042
-769.136
-760.479
-711.438
-710.356
-553.89
-174.936
-8.28363
)
;
    }
    Outlet
    {
        type            calculated;
        value           nonuniform List<scalar> 
15
(
-0.278615
-0.00134814
-0.000574269
-0.00080322
-0.00880112
-0.0151055
-0.430895
-1.85364
-0.584904
-0.057562
-0.218911
-0.0453633
-0.344046
-0.189271
-0.000936855
)
;
    }
    FrontAndBack
    {
        type            empty;
    }
}


// ************************************************************************* //
