/*--------------------------------*- C++ -*----------------------------------*\
| =========                 |                                                 |
| \\      /  F ield         | OpenFOAM: The Open Source CFD Toolbox           |
|  \\    /   O peration     | Version:  2.3.0                                 |
|   \\  /    A nd           | Web:      www.OpenFOAM.org                      |
|    \\/     M anipulation  |                                                 |
\*---------------------------------------------------------------------------*/
FoamFile
{
    version     2.0;
    format      ascii;
    class       volVectorField;
    location    "0.092";
    object      U;
}
// * * * * * * * * * * * * * * * * * * * * * * * * * * * * * * * * * * * * * //

dimensions      [0 1 -1 0 0 0 0];

internalField   nonuniform List<vector> 
725
(
(0.0359372 0.0073837 -2.93285e-31)
(0.0723857 0.000640229 8.2846e-32)
(0.0199602 -0.00251092 2.32323e-33)
(0.127185 -0.0102199 0)
(0.080622 -0.00970135 -3.08363e-31)
(0.0669944 0.0124252 -1.30903e-30)
(0.148393 0.00687617 2.94031e-31)
(0.0330114 -0.0109933 4.04684e-32)
(0.210029 -0.0154158 0)
(-0.00523195 0.00202188 1.68788e-30)
(0.0758432 0.00640934 -3.17963e-31)
(0.168383 0.0131588 -2.30065e-32)
(0.0334546 -0.015635 1.03838e-31)
(0.198445 0.0015696 0)
(-0.0541407 -0.0152568 6.57929e-30)
(0.06812 -0.000712917 1.6277e-30)
(0.139767 0.0152359 -2.28272e-31)
(0.0191991 -0.0161532 -1.27093e-31)
(0.120148 0.00967511 0)
(-0.0887073 -0.0366481 4.76773e-29)
(0.0361769 -0.00103954 1.71024e-30)
(0.0620538 0.00998464 -4.11255e-31)
(-0.00190478 -0.00640183 -1.35779e-31)
(-0.00451422 -0.00569211 -2.75084e-30)
(-0.0232271 -0.0190976 4.11464e-29)
(0.0996777 0.0337209 0)
(-0.10548 0.0190538 0)
(-0.164849 -0.0158789 0)
(-0.132724 -0.00105319 0)
(-0.0764794 -0.0109581 0)
(0.0129441 -0.00450744 0)
(0.0284594 -0.00199723 0)
(0.0421476 -0.000979376 0)
(0.0614228 -0.00493348 0)
(0.0815478 0.0212852 0)
(-0.107471 -0.0332699 0)
(-0.230043 0.0378919 0)
(-0.155952 -0.0767154 0)
(0.141417 0.0380601 0)
(0.152408 0.00289325 0)
(0.108115 0.0200716 0)
(0.0478288 0.00916103 0)
(0.0147531 0.00377638 0)
(0.00711912 0.000375717 0)
(0.0117937 0.00031835 0)
(0.00589429 0.000306506 0)
(0.018072 -0.00217143 0)
(0.0296821 -0.000443463 0)
(0.0239285 -8.61527e-05 0)
(0.0253427 0.000132312 0)
(0.0270837 -0.000526843 0)
(0.0267366 0.000255119 0)
(0.0226105 0.000828633 0)
(0.0187366 0.000315227 0)
(0.0172624 0.00023663 0)
(0.0161991 0.000108394 0)
(0.0160044 3.62893e-05 0)
(0.0161552 1.33615e-05 0)
(0.0164567 -7.92518e-06 0)
(0.0160581 6.69892e-05 0)
(0.0193013 -0.000413619 0)
(0.0185933 0.000510073 0)
(0.0192101 8.6504e-05 0)
(0.00693723 0.00143549 0)
(3.74367e-05 -0.000983036 0)
(0.0288426 -0.00453207 0)
(0.0271886 -0.00381175 0)
(0.124138 0.00666064 0)
(0.0338007 0.158333 0)
(-0.930515 -0.0496584 0)
(0.129763 0.0829721 0)
(-0.0216552 0.0917878 0)
(-0.254707 0.00351791 0)
(-0.222297 -0.0165462 0)
(-0.130272 -0.0673069 0)
(0.0206648 -0.0382574 0)
(0.0539836 -0.0157992 0)
(0.0780793 -0.010679 0)
(0.104644 -0.0133158 0)
(0.121973 0.0781669 0)
(-0.224134 0.0755371 0)
(-0.348985 0.14732 0)
(-0.308737 -0.277564 0)
(0.124702 -0.0706773 0)
(0.103275 -0.0255871 0)
(0.112555 0.0492055 0)
(0.0625889 0.0331413 0)
(0.0301562 0.0132747 0)
(0.0256248 -0.000696045 0)
(0.0322381 -0.0001796 0)
(0.0247315 -0.00127071 0)
(0.0493579 -0.0129418 0)
(0.0679618 0.00100868 0)
(0.0534943 0.0008142 0)
(0.0548563 -0.000345329 0)
(0.0589124 -0.00230525 0)
(0.0579102 0.00217486 0)
(0.0505847 0.0040289 0)
(0.0449484 0.00170666 0)
(0.0429262 0.0010404 0)
(0.0414994 0.000415049 0)
(0.0416255 -6.32556e-05 0)
(0.0424019 -0.000228723 0)
(0.0434171 -0.000234226 0)
(0.0431923 -0.000599366 0)
(0.0497688 -0.00234683 0)
(0.0498964 0.00164176 0)
(0.0511551 0.00290621 0)
(0.0261555 0.00847227 0)
(0.014694 -0.00556692 0)
(0.0543425 -0.0196374 0)
(0.0577276 -0.0324909 0)
(0.215491 -0.00471885 0)
(0.0888897 0.296401 0)
(0.218177 0.183457 0)
(0.315898 0.0496078 0)
(0.244786 0.187236 0)
(-0.216798 0.102235 0)
(-0.186228 -0.0320519 0)
(-0.111503 -0.134662 0)
(0.0441625 -0.0801883 0)
(0.0753901 -0.031979 0)
(0.0934008 -0.0201329 0)
(0.102182 -0.0251303 0)
(0.0921752 0.120693 0)
(0.15577 0.174802 0)
(-0.282448 0.320159 0)
(-0.320285 -0.524781 0)
(0.114478 -0.0573617 0)
(0.0216656 -0.0469128 0)
(0.0736471 0.0527089 0)
(0.0678919 0.0463745 0)
(0.0531779 0.0194511 0)
(0.0499767 -0.00206319 0)
(0.051696 3.82417e-05 0)
(0.0394157 -0.00338589 0)
(0.0616738 -0.0275725 0)
(0.0869686 0.00354994 0)
(0.0753873 0.00332408 0)
(0.0702665 -0.000156779 0)
(0.0761212 -0.00463758 0)
(0.0786799 0.00506041 0)
(0.0692352 0.00752284 0)
(0.0641583 0.00304787 0)
(0.0622782 0.00186365 0)
(0.0609471 0.00064375 0)
(0.0612985 -0.000373239 0)
(0.0624372 -0.000755859 0)
(0.0638911 -0.000695719 0)
(0.0633805 -0.00162705 0)
(0.070965 -0.00541781 0)
(0.0723585 0.00275956 0)
(0.0751068 0.00687642 0)
(0.0449194 0.0194075 0)
(0.0269363 -0.00798767 0)
(0.0671118 -0.0357689 0)
(0.059743 -0.059619 0)
(0.219176 -0.0243472 0)
(0.077786 0.205259 0)
(0.570608 0.0437915 0)
(0.106521 -0.000295867 0)
(0.0743368 0.277298 0)
(-0.228486 0.172897 0)
(-0.0699576 -0.0761305 0)
(-0.0488311 -0.194047 0)
(0.0746726 -0.117687 0)
(0.0909796 -0.0422474 0)
(0.0899895 -0.0208964 0)
(0.052066 -0.0105397 0)
(-0.020134 0.164629 0)
(0.116658 0.203534 0)
(-0.183646 0.565365 0)
(-0.19624 -0.817755 0)
(0.197022 0.00787747 0)
(-0.0482465 -0.0755626 0)
(0.0338312 0.0330522 0)
(0.0716742 0.0442096 0)
(0.0795579 0.0226524 0)
(0.0749487 -0.00185088 0)
(0.0709529 0.00309815 0)
(0.0465446 -0.000655263 0)
(0.0600556 -0.0430737 0)
(0.089044 0.00143879 0)
(0.0808211 0.00589501 0)
(0.0647887 0.0022705 0)
(0.0777116 -0.0132051 0)
(0.0967365 0.0088163 0)
(0.0839449 0.0115236 0)
(0.0776021 0.00467762 0)
(0.0753818 0.00272643 0)
(0.0745252 0.000787596 0)
(0.0750409 -0.00072492 0)
(0.0762584 -0.00140885 0)
(0.0778897 -0.00114307 0)
(0.0764512 -0.00235548 0)
(0.0829672 -0.00889399 0)
(0.0849348 0.00343507 0)
(0.0896843 0.0103096 0)
(0.0614806 0.0320791 0)
(0.033432 -0.00870037 0)
(0.0706057 -0.0478363 0)
(0.0197196 -0.0746026 0)
(0.0701097 -0.0487654 0)
(-0.0402965 0.26391 0)
(0.630021 -0.379288 0)
(-0.230243 -0.105441 0)
(0.225273 0.376595 0)
(0.0966864 0.210207 0)
(0.204788 -0.130748 0)
(0.072796 -0.220414 0)
(0.105602 -0.136042 0)
(0.0973833 -0.0418931 0)
(0.0838733 -0.00363696 0)
(0.0196593 0.0297209 0)
(-0.0676711 0.0284862 0)
(0.12274 0.0747243 0)
(-0.123952 0.906103 0)
(0.0236679 -1.22112 0)
(0.360782 0.23243 0)
(-0.0882438 -0.0710651 0)
(0.00842125 -0.00275255 0)
(0.073292 0.026533 0)
(0.102009 0.0226264 0)
(0.0947011 0.000606527 0)
(0.0803733 0.0116646 0)
(0.0501522 0.00840308 0)
(0.0567471 -0.05763 0)
(0.0761573 0.00252436 0)
(0.0703808 0.00902615 0)
(0.0410394 0.0114517 0)
(0.0554259 -0.0313041 0)
(0.091355 0.0086321 0)
(0.0825732 0.0135696 0)
(0.080887 0.00643632 0)
(0.0807016 0.0033512 0)
(0.0819446 0.000622588 0)
(0.0829968 -0.00106482 0)
(0.0841109 -0.0020861 0)
(0.0854758 -0.001402 0)
(0.0828892 -0.00234804 0)
(0.0869675 -0.0123978 0)
(0.0899498 0.00427487 0)
(0.0928994 0.0112847 0)
(0.077967 0.042621 0)
(0.0322426 0.00244541 0)
(0.062311 -0.0411832 0)
(-0.0954602 -0.0313894 0)
(-0.299054 -0.000908984 0)
(-0.23056 0.0998543 0)
(0.494717 -0.27833 0)
(-1.07278 0.0258796 0)
(0.34529 0.113702 0)
(0.696972 0.237793 0)
(0.499368 -0.065725 0)
(0.185675 -0.185142 0)
(0.124963 -0.126913 0)
(0.097261 -0.0352595 0)
(0.0797074 0.00633197 0)
(0.0518122 0.0488452 0)
(-0.110127 0.097385 0)
(-1.6874 0.0709769 0)
(-0.433892 0.922754 0)
(0.239818 -1.42915 0)
(0.366486 0.385931 0)
(-0.0872121 -0.0495134 0)
(0.00682763 -0.0276471 0)
(0.0707447 0.0111537 0)
(0.107959 0.0195961 0)
(0.100217 0.00355418 0)
(0.0830314 0.0176297 0)
(0.061358 0.0129988 0)
(0.0600723 -0.0599082 0)
(0.0635836 0.00254686 0)
(0.0636088 0.0119808 0)
(0.0343596 0.0161619 0)
(0.0591103 -0.0424359 0)
(0.0907994 0.00801831 0)
(0.0726129 0.0143353 0)
(0.0756694 0.00612793 0)
(0.0788899 0.00249429 0)
(0.0827152 -3.58731e-05 0)
(0.0844572 -0.00140696 0)
(0.0854739 -0.00235971 0)
(0.0862905 -0.00119847 0)
(0.0828491 -0.00187561 0)
(0.0843487 -0.013639 0)
(0.088249 0.00414838 0)
(0.0882434 0.0137415 0)
(0.0716459 0.0477928 0)
(0.0255908 0.0101037 0)
(0.0731033 -0.0231465 0)
(-0.118805 0.0315263 0)
(-0.216411 0.0153624 0)
(-0.0925978 -0.135695 0)
(0.204115 -0.574036 0)
(-0.307223 0.0540243 0)
(0.258581 0.0173655 0)
(0.807768 0.23804 0)
(0.567196 -0.0390708 0)
(0.220975 -0.165679 0)
(0.130866 -0.121289 0)
(0.0963327 -0.0326787 0)
(0.0773648 0.00839444 0)
(0.0588091 0.059564 0)
(-0.132376 0.277531 0)
(-2.64607 -0.0507804 0)
(-0.603174 0.842287 0)
(0.323113 -1.4911 0)
(0.326482 0.433876 0)
(-0.092439 -0.037915 0)
(0.00538057 -0.0358202 0)
(0.0677294 0.00579022 0)
(0.10864 0.0181473 0)
(0.101535 0.00470782 0)
(0.0843173 0.0194722 0)
(0.0676135 0.0141319 0)
(0.0680554 -0.0599935 0)
(0.0641059 0.00262451 0)
(0.0607101 0.0132669 0)
(0.034037 0.0169378 0)
(0.0619821 -0.0462395 0)
(0.0892388 0.00826574 0)
(0.0680732 0.0148667 0)
(0.0735448 0.00575822 0)
(0.0780374 0.00206466 0)
(0.0824567 -0.000347215 0)
(0.0846061 -0.00156087 0)
(0.0856921 -0.00244436 0)
(0.0862719 -0.00108564 0)
(0.0829147 -0.00167933 0)
(0.0832478 -0.0139684 0)
(0.0868631 0.00400172 0)
(0.0864171 0.0149508 0)
(0.0641363 0.0500447 0)
(0.021651 0.0114931 0)
(0.0793614 -0.0177147 0)
(-0.112463 0.0445562 0)
(-0.0151864 0.00683836 0)
(0.137154 -0.139195 0)
(-0.4901 -0.429026 0)
(-0.207509 0.0427709 0)
(-0.0201063 -0.0264625 0)
(0.756212 0.224504 0)
(0.584071 -0.0138478 0)
(0.248435 -0.143563 0)
(0.135581 -0.114044 0)
(0.0945726 -0.0297524 0)
(0.0729323 0.00940823 0)
(0.104251 0.0644731 0)
(0.00918351 0.384242 0)
(-0.292243 -0.067944 0)
(-0.60775 0.806732 0)
(0.414151 -1.5598 0)
(0.291443 0.457823 0)
(-0.0965105 -0.0255174 0)
(0.00672433 -0.0440199 0)
(0.0657837 0.000371548 0)
(0.108703 0.0165628 0)
(0.102261 0.00580404 0)
(0.0853315 0.0210738 0)
(0.0764192 0.0146065 0)
(0.0786239 -0.0597563 0)
(0.0662718 0.00358937 0)
(0.0577505 0.0147236 0)
(0.0369721 0.0168427 0)
(0.0672833 -0.0497109 0)
(0.0888028 0.0089104 0)
(0.0673449 0.0153629 0)
(0.0751992 0.00519543 0)
(0.0798909 0.0016221 0)
(0.0834874 -0.000639997 0)
(0.0848622 -0.0017034 0)
(0.0856405 -0.00251837 0)
(0.0859509 -0.00095818 0)
(0.0830419 -0.00145425 0)
(0.0820877 -0.014172 0)
(0.0845968 0.00385878 0)
(0.08373 0.0164646 0)
(0.0549246 0.0526385 0)
(0.0203713 0.0117715 0)
(0.0874121 -0.0129119 0)
(-0.0995818 0.048728 0)
(0.134561 -0.0179552 0)
(0.237904 -0.112121 0)
(-1.25056 -0.28768 0)
(-0.275407 0.101895 0)
(-0.325571 -0.0801952 0)
(0.586425 0.192109 0)
(0.561496 0.00481309 0)
(0.266357 -0.121376 0)
(0.138979 -0.105571 0)
(0.0919555 -0.0264469 0)
(0.0687066 0.00993593 0)
(0.126239 0.0574776 0)
(0.128627 0.183182 0)
(3.9728 0.195347 0)
(-0.292673 0.737251 0)
(0.453393 -1.54978 0)
(0.081318 0.4713 0)
(-0.0900852 -0.0139946 0)
(0.0144274 -0.0524441 0)
(0.0678828 -0.00480964 0)
(0.108384 0.0149781 0)
(0.10203 0.00683938 0)
(0.0862154 0.0223896 0)
(0.0816156 0.0146683 0)
(0.0810132 -0.0593734 0)
(0.0679044 0.00507936 0)
(0.0627896 0.0160778 0)
(0.0398344 0.0168518 0)
(0.0608271 -0.0529345 0)
(0.0832408 0.00945251 0)
(0.0690938 0.0156086 0)
(0.0775083 0.00458184 0)
(0.0815366 0.00123189 0)
(0.084711 -0.000861636 0)
(0.0856389 -0.00178314 0)
(0.0857364 -0.00255232 0)
(0.085586 -0.000843182 0)
(0.0836685 -0.00122175 0)
(0.0812434 -0.0141879 0)
(0.0817844 0.00376262 0)
(0.0808115 0.0182665 0)
(0.0441015 0.0555695 0)
(0.0236385 0.0104262 0)
(0.0974293 -0.00896129 0)
(-0.0772024 0.0482706 0)
(0.122563 -0.0413242 0)
(0.141386 -0.0606098 0)
(-0.92945 -0.188675 0)
(-0.755193 0.179263 0)
(-0.5278 -0.15209 0)
(0.402482 0.140172 0)
(0.518981 0.0158987 0)
(0.274034 -0.100387 0)
(0.140865 -0.0962281 0)
(0.0885725 -0.0227035 0)
(0.0654813 0.0110338 0)
(0.0783423 0.0486733 0)
(0.0374699 -0.0245129 0)
(1.67191 0.445228 0)
(0.0950175 0.736975 0)
(0.576139 -1.62552 0)
(0.0977521 0.507761 0)
(-0.0810493 -0.00684924 0)
(0.0218856 -0.0608665 0)
(0.0688497 -0.00963259 0)
(0.107284 0.0134535 0)
(0.101313 0.00788153 0)
(0.0874088 0.0233733 0)
(0.0851455 0.0149629 0)
(0.0740899 -0.0584216 0)
(0.0617678 0.00590675 0)
(0.067374 0.0168453 0)
(0.0473133 0.017606 0)
(0.0580377 -0.055322 0)
(0.0758812 0.00933147 0)
(0.0707837 0.0154797 0)
(0.0793404 0.00400795 0)
(0.0828028 0.000887809 0)
(0.0855586 -0.0010501 0)
(0.0862447 -0.001817 0)
(0.0860022 -0.00252855 0)
(0.085474 -0.000748063 0)
(0.0843081 -0.0010018 0)
(0.0805537 -0.0139486 0)
(0.0783369 0.00375976 0)
(0.0778566 0.0200207 0)
(0.0448608 0.0583383 0)
(0.0352687 0.00795549 0)
(0.0983343 -0.00613804 0)
(-0.0523181 0.0497 0)
(0.0662592 -0.0544541 0)
(0.0563666 0.00165331 0)
(-0.675683 -0.155113 0)
(0.0458517 -0.0016774 0)
(0.0600179 -0.0115455 9.52505e-32)
(0.0319129 -0.00575615 -5.06553e-31)
(0.0993138 -0.0354816 -3.53317e-30)
(0.22629 -0.0624948 0)
(0.0888382 -0.00395738 0)
(0.120646 -0.02007 0)
(0.0702738 -0.0179131 0)
(0.235558 -0.125162 7.42178e-31)
(0.298327 -0.1787 0)
(0.0996215 -0.0108512 0)
(0.137415 -0.0210773 0)
(0.0606642 -0.0246578 0)
(0.207048 -0.158606 3.56942e-30)
(-0.0686677 -0.125388 0)
(0.0861842 -0.0148625 0)
(0.117566 -0.014839 0)
(0.023609 -0.0200931 0)
(0.146174 -0.125573 -1.80452e-30)
(-0.303848 -0.124524 0)
(0.0434856 -0.00735536 0)
(0.0572142 -0.00319903 0)
(-0.01461 -0.00700818 0)
(0.00524029 -0.0383147 -8.33811e-31)
(-0.598959 -0.0609891 0)
(0.062519 0.388957 0)
(-0.315002 -0.263428 0)
(0.191691 -0.000500553 0)
(0.384363 0.0370094 0)
(0.264401 -0.0530635 0)
(0.138522 -0.0688315 0)
(0.0775208 -0.0102223 0)
(0.0528664 0.0186562 0)
(-0.0195927 0.0483718 0)
(-0.0169833 -0.0506012 0)
(0.145863 0.117031 0)
(1.60124 0.68105 0)
(0.655243 -1.34831 0)
(-0.26197 0.650196 0)
(-0.0827872 -0.0065193 0)
(0.0344933 -0.0853909 0)
(0.0662415 -0.0229527 0)
(0.0996534 0.00903138 0)
(0.0979417 0.0110391 0)
(0.0889897 0.0253774 0)
(0.0895525 0.0170138 0)
(0.0613699 -0.0520258 0)
(0.0480466 0.00317363 0)
(0.0775608 0.0157407 0)
(0.0918934 0.0174598 0)
(0.0746682 -0.0523625 0)
(0.0548763 0.00692294 0)
(0.0729979 0.0133749 0)
(0.0828581 0.00250013 0)
(0.0851834 1.75427e-05 0)
(0.086798 -0.00147117 0)
(0.0868133 -0.00185581 0)
(0.0857823 -0.00233092 0)
(0.0844875 -0.000526502 0)
(0.0855411 -0.000612025 0)
(0.0788384 -0.0122788 0)
(0.0691453 0.00408456 0)
(0.0689092 0.0236104 0)
(0.0714264 0.0619214 0)
(0.0940412 -0.000674713 0)
(0.0771484 0.0111587 0)
(-0.0130084 0.0712792 0)
(-0.196415 -0.0382377 0)
(-0.126796 0.0769023 0)
(0.00830005 -0.123627 0)
(0.400007 0.499487 0)
(0.0160635 -0.255522 0)
(-0.0553564 -0.144409 0)
(0.212149 -0.00418693 0)
(0.187303 -0.0273047 0)
(0.105108 -0.0269804 0)
(0.060368 0.00931968 0)
(0.0576952 0.0464851 0)
(-0.00502806 0.0770826 0)
(0.0266168 -0.164361 0)
(0.0714579 -0.215781 0)
(0.882417 0.44257 0)
(0.282884 -0.495686 0)
(-0.14951 0.530514 0)
(0.0330617 -0.00903853 0)
(0.0583267 -0.110308 0)
(0.0559637 -0.0348335 0)
(0.0762053 0.00382884 0)
(0.0819627 0.0123745 0)
(0.0862347 0.0245276 0)
(0.0994505 0.0193187 0)
(0.0891971 -0.0375301 0)
(0.0714593 -0.00639512 0)
(0.0833396 0.0082173 0)
(0.0984702 0.0083266 0)
(0.0819081 -0.029555 0)
(0.0606159 0.00178736 0)
(0.0741877 0.00742545 0)
(0.080613 0.00103709 0)
(0.0809546 -0.000554976 0)
(0.0809759 -0.00140421 0)
(0.0800202 -0.00151733 0)
(0.0784573 -0.00150222 0)
(0.0769696 -0.000253317 0)
(0.0784025 -0.000283612 0)
(0.0706458 -0.00579811 0)
(0.057364 0.00618248 0)
(0.0588916 0.0211976 0)
(0.0930394 0.0472591 0)
(0.111068 0.00274848 0)
(0.0652907 0.0352346 0)
(0.115566 0.116771 0)
(-0.00732255 0.0258781 0)
(0.116909 -0.216492 0)
(0.6111 -0.154948 0)
(-0.0564536 0.753523 0)
(0.170842 -0.248905 0)
(-0.201597 -0.127968 0)
(0.107817 -0.0540097 0)
(0.0973236 -0.0248129 0)
(0.0583048 -0.00396401 0)
(0.0410929 0.0144825 0)
(0.0542036 0.0429767 0)
(0.0827242 0.0719555 0)
(0.139839 -0.0644159 0)
(0.0144669 -0.196774 0)
(0.195595 0.169285 0)
(-0.0256884 -0.244331 0)
(-0.0464866 0.380821 0)
(0.1074 0.015384 0)
(0.069989 -0.107662 0)
(0.0447614 -0.0354094 0)
(0.052258 -0.000673256 0)
(0.0611535 0.00889432 0)
(0.0731301 0.0172246 0)
(0.102076 0.0132243 0)
(0.0946684 -0.0270832 0)
(0.0661542 -0.00232267 0)
(0.071229 0.00625527 0)
(0.0816884 0.00462003 0)
(0.0710386 -0.0169853 0)
(0.0571558 0.000472549 0)
(0.0650286 0.00427733 0)
(0.0689231 0.000565763 0)
(0.0682103 -0.000403065 0)
(0.0673957 -0.000883629 0)
(0.0660237 -0.000902243 0)
(0.0645187 -0.0007546 0)
(0.0633962 -5.6331e-05 0)
(0.0646431 0.000333286 0)
(0.0590974 -0.000588516 0)
(0.0488626 0.00708204 0)
(0.0617927 0.0104137 0)
(0.0993796 0.0311997 0)
(0.115881 0.00875506 0)
(0.0927421 0.0267497 0)
(0.190536 0.0988753 0)
(0.207056 0.0261036 0)
(0.188455 -0.318838 0)
(-0.0681552 -0.0366797 0)
(0.391176 0.538826 0)
(0.509939 0.00571873 0)
(-0.0576824 -0.0951979 0)
(0.0642879 -0.0978136 0)
(0.019072 -0.0223577 0)
(0.0133012 0.00457143 0)
(0.0191386 0.0109276 0)
(0.0397981 0.0255481 0)
(0.113757 0.0451752 0)
(0.191958 -0.0391886 0)
(-0.052627 -0.107899 0)
(-0.139529 0.053064 0)
(-0.154854 -0.101537 0)
(-0.0338574 0.232028 0)
(0.188446 0.0307151 0)
(0.0867996 -0.0798316 0)
(0.0428144 -0.0261035 0)
(0.0340277 -0.00352567 0)
(0.0416734 0.00357559 0)
(0.0536903 0.00699888 0)
(0.0819467 0.00432652 0)
(0.0690142 -0.013688 0)
(0.0410202 0.000751868 0)
(0.0494991 0.00381289 0)
(0.0577163 0.00195863 0)
(0.0503051 -0.00856554 0)
(0.0401299 -0.000307942 0)
(0.0448529 0.00203621 0)
(0.0474746 0.000421886 0)
(0.0469113 -2.03517e-05 0)
(0.0461925 -0.000281568 0)
(0.0450826 -0.00030202 0)
(0.044078 -0.000203602 0)
(0.0433977 6.40824e-05 0)
(0.0441459 0.000781377 0)
(0.0413977 0.00242537 0)
(0.0412975 0.00640053 0)
(0.0475096 -0.000996389 0)
(0.0745794 0.0178015 0)
(0.101265 0.00752129 0)
(0.0908777 0.00929685 0)
(0.179914 0.0515354 0)
(0.257479 0.0329886 0)
(0.127028 -0.111519 0)
(-0.833774 -0.0499775 0)
(-0.114836 0.180972 0)
(0.480579 0.0282418 0)
(0.293394 -0.0208702 0)
(0.0814708 -0.0404681 0)
(-0.0212238 -0.00641748 0)
(-0.0149754 0.00151006 0)
(-0.00525044 0.0020816 0)
(0.00801408 0.00409417 0)
(0.0650658 0.0109874 0)
(0.135625 -0.00331471 0)
(0.00980677 0.0329439 0)
(-0.0816008 0.0323614 0)
(-0.096882 -0.0419345 0)
(0.0253681 0.0148163 0)
(0.243584 -0.00503375 0)
(0.0803645 -0.0309202 0)
(0.0371357 -0.0081151 0)
(0.0173953 -0.00185545 0)
(0.0188689 0.000161211 0)
(0.0236768 0.000468857 0)
(0.0359959 0.00024612 0)
(0.025528 -0.0025529 0)
(0.0131026 0.00111052 0)
(0.0220591 0.000844732 0)
(0.0266381 0.000386352 0)
(0.0207579 -0.00229606 0)
(0.013189 -9.07638e-05 0)
(0.0157065 0.000506192 0)
(0.0175047 0.000155652 0)
(0.017646 0.000100821 0)
(0.0176006 1.87518e-05 0)
(0.0172788 5.62157e-06 0)
(0.0170152 1.96698e-05 0)
(0.0168454 3.07724e-05 0)
(0.0179253 0.000444824 0)
(0.0188136 0.00103866 0)
(0.0306593 0.00239807 0)
(0.0288326 -0.00191166 0)
(0.0375578 0.00407149 0)
(0.0639325 0.00122931 0)
(0.0543256 -0.00159599 0)
(0.0993888 0.00814219 0)
(0.212551 0.0221239 0)
(0.125582 0.0927671 0)
(0.528963 0.107507 0)
)
;

boundaryField
{
    AirInlet
    {
        type            fixedValue;
        value           uniform (0.1 0 0);
    }
    WaterInlet
    {
        type            fixedValue;
        value           uniform (0.1 0 0);
    }
    ChannelWall
    {
        type            fixedValue;
        value           uniform (0 0 0);
    }
    Outlet
    {
        type            pressureInletOutletVelocity;
        value           nonuniform List<vector> 
15
(
(-0.745793 -0 0)
(0.218177 0.183457 0)
(0.570608 0.0437915 0)
(0.630021 -0.379288 0)
(0.494717 -0.27833 0)
(0.204115 -0.574036 0)
(-0.917625 -0 0)
(-1.91512 -0 0)
(-1.07257 -0 0)
(-0.334481 -0 0)
(-0.0816182 -0 0)
(0.6111 -0.154948 0)
(-0.102365 -0 0)
(-0.613938 -0 0)
(0.528963 0.107507 0)
)
;
    }
    FrontAndBack
    {
        type            empty;
    }
}


// ************************************************************************* //
