/*--------------------------------*- C++ -*----------------------------------*\
| =========                 |                                                 |
| \\      /  F ield         | OpenFOAM: The Open Source CFD Toolbox           |
|  \\    /   O peration     | Version:  2.3.0                                 |
|   \\  /    A nd           | Web:      www.OpenFOAM.org                      |
|    \\/     M anipulation  |                                                 |
\*---------------------------------------------------------------------------*/
FoamFile
{
    version     2.0;
    format      ascii;
    class       volScalarField;
    location    "1.2";
    object      alpha.water;
}
// * * * * * * * * * * * * * * * * * * * * * * * * * * * * * * * * * * * * * //

dimensions      [0 0 0 0 0 0 0];

internalField   nonuniform List<scalar> 
2268
(
1
1
1
1
1
1
1
1
1
1
1
0.999971
0.998181
0.998136
0.996516
0.979396
0.979396
0.980095
0.979909
0.988588
0.999952
0.999996
0.99999
1
1
1
1
1
1
1
1
1
1
1
0.987564
0.95977
0.967728
0.981504
0.985125
0.998556
0.998896
0.99379
0.994168
0.997776
0.999996
0.999991
1
1
1
1
1
1
1
1
1
1
1
0.962848
0.954999
0.954906
0.955081
0.977729
0.999987
0.999999
0.999999
0.999999
0.999882
0.999982
0.999993
1
1
1
1
1
0.999999
0.999964
1
1
1
1
0.974082
0.954949
0.954987
0.96179
0.99544
0.999996
0.999999
0.999999
0.999999
0.999999
0.999998
0.999999
1
1
1
1
0.999994
0.999846
0.999542
0.999993
1
1
1
0.997274
0.980303
0.979137
0.993633
0.999864
0.999999
0.999999
0.999999
0.999999
0.999999
0.999999
0.999999
0.999984
1
1
1
1
0.999685
0.999511
0.999786
0.999996
1
0.999995
1
0.999998
0.999994
0.999996
0.999996
0.999997
0.999999
0.995348
0.991801
0.999999
0.999999
0.999999
0.9984
0.998283
0.999711
1
1
0.999966
0.999581
0.999552
0.999918
1
1
1
1
0.999999
0.999999
0.999997
0.972213
0.931438
0.913715
0.892672
0.895356
0.935359
0.993668
0.997822
0.995019
0.999795
1
1
1
0.999997
0.999618
0.999859
1
1
1
0.999999
0.999999
0.999999
0.970312
0.871194
0.873658
0.875568
0.913203
0.873465
0.873282
0.961482
0.988048
0.988033
0.933961
0.785577
0.785577
0.839303
0.931597
0.912971
0.832717
0.832519
0.883764
0.958115
0.875806
0.848427
0.881647
0.883838
0.870003
0.814968
0.819977
0.990699
0.982143
0.811467
0.785577
0.947443
0.984777
0.984697
0.984252
0.983432
0.874633
0.871788
0.914533
0.962494
0.863388
0.882734
0.883838
0.408573
0.297764
0.618788
0.993381
0.934603
0.811352
0.852967
0.983428
0.985479
0.984803
0.984568
0.983867
0.975947
0.930637
0.956864
0.982984
0.945423
0.886554
0.46493
0.163003
0.161663
0.161663
0.993927
0.939611
0.811352
0.973029
0.988268
0.985981
0.985491
0.966683
0.961793
0.973282
0.983061
0.983466
0.983306
0.972169
0.856168
0.166682
0.165527
0.172979
0.161663
0.993927
0.917369
0.961101
0.992261
0.991479
0.98793
0.984881
0.971035
0.961793
0.970792
0.983868
0.983816
0.983492
0.947676
0.730571
0.171135
0.167879
0.256718
0.233943
0.993927
0.96547
0.992696
0.992257
0.847278
0.930032
0.982906
0.983206
0.983738
0.983872
0.98391
0.983868
0.93243
0.867859
0.631735
0.190647
0.186051
0.259081
0.257606
0.993924
0.993879
0.993468
0.992697
0.65502
0.517346
0.768948
0.971993
0.983311
0.983881
0.983882
0.843218
0.819818
0.853071
0.508727
0.160786
0.180201
0.260989
0.259698
0.993879
0.993471
0.99262
0.991856
0.793593
0.347775
0.262421
0.615907
0.896551
0.980169
0.983881
0.886281
0.800029
0.819965
0.24135
0.0402132
0.0178676
0.112433
0.257606
0.619542
0.763329
0.885092
0.958058
1
0.999997
0.99999
0.999966
0.999933
0.999992
1
0.999996
0.999999
0.882025
0.615375
0.524916
0.662449
0.791225
0.876442
0.938038
0.965792
0.968245
0.984671
0.08905
0.190494
0.584313
0.876965
0.991178
0.999901
0.999972
0.999982
0.999988
0.999992
0.999995
0.983405
0.448551
0.149801
0.123787
0.123619
0.134884
0.17536
0.282282
0.40649
0.638637
0.846356
0.983053
0.08905
0.0932689
0.146266
0.348438
0.520921
0.783952
0.985571
0.999941
0.999984
0.99999
0.94951
0.395446
0.11716
0.122704
0.124241
0.123281
0.145603
0.180295
0.180272
0.0974247
0.0951119
0.0937552
0.0937552
0.24223
0.162377
0.170887
0.166786
0.146787
0.171573
0.826698
0.999249
0.999941
0.992792
0.487413
0.0690015
0.106345
0.151762
0.151789
0.151777
0.151787
0.130152
0.0870772
0.0915803
0.100962
0.10138
0.0970232
0.807412
0.808959
0.853042
0.994776
0.915303
0.921225
0.981966
0.997426
0.999249
0.711579
0.0170763
0.0496955
0.150899
0.151599
0.132299
0.050654
0.0334492
0.01956
0.0359439
0.0966507
0.111794
0.111794
0.110164
0.894752
0.993728
0.994776
0.994776
0.994776
0.994746
0.995199
0.996755
0.860324
0.139156
0.00301689
0.00546476
0.0352414
0.0168175
0.00447214
3.89775e-08
3.21343e-08
3.10518e-08
1.20744e-07
3.87608e-08
0.0703483
0.110389
0.0913064
0.611973
0.629317
0.976331
0.994776
0.994746
0.994377
0.993903
0.628993
0.230262
0.00291796
0.000602151
0.000123049
-2.76608e-05
1.51846e-07
3.86483e-08
3.21391e-08
3.10297e-08
3.12697e-08
3.09734e-08
3.04565e-08
2.51849e-08
0.000169856
0.0375383
0.611248
0.438413
0.597125
0.883966
0.633653
0.340358
0.193958
0.0537582
0.00446991
0.000669652
0.000128404
8.70769e-06
1.12592e-05
1.02508e-05
3.31466e-06
3.74183e-08
3.34635e-08
3.17309e-08
3.20267e-08
2.56001e-08
2.57979e-08
2.56483e-08
0.00777544
0.613107
0.610774
0.607023
0.362466
0.145022
0.0322065
0.0107182
0.00558846
0.0013438
0.00025756
5.3349e-05
1.75594e-05
1.36942e-05
1.67206e-05
4.26735e-06
5.83589e-08
4.2398e-08
1.00232e-07
4.21694e-08
2.60679e-08
2.5795e-08
7.18738e-08
4.47243e-08
0.454493
0.4771
0.608414
0.546474
0.121673
0.0165777
0.014853
0.0136443
0.0190399
0.00716642
0.000231382
5.14539e-05
1.74794e-05
1.27055e-05
1.13283e-06
1.94191e-07
5.87223e-08
2.38367e-06
1.27722e-05
1.30982e-05
4.13522e-06
7.21722e-08
1.0842e-08
0.113116
0.0300066
0.363857
0.533362
0.260845
0.0191588
0.0166351
0.0260763
0.0294876
0.0299551
0.0204017
0.00131844
5.98845e-05
1.47208e-05
2.8657e-06
8.17647e-07
1.83097e-07
2.67725e-06
4.29479e-05
4.42217e-05
3.4347e-05
2.84885e-06
4.41429e-08
0.153275
0.0260179
0.0161773
0.261349
0.263883
0.0796855
0.0171458
0.0127359
0.0299551
0.0299551
0.0299551
0.00800061
9.02782e-05
2.25257e-05
1.40416e-05
1.37428e-05
2.26731e-06
3.75975e-06
3.14225e-05
4.47037e-05
4.39132e-05
2.81854e-05
1.11351e-06
0.214254
0.0282616
2.25142e-05
0.0124348
0.112099
0.113993
0.0617953
0.00574144
0.011467
0.0295238
0.0176684
0.00225836
0.000122903
2.49957e-05
2.28902e-05
1.89217e-05
8.70789e-06
1.27267e-05
1.43874e-05
1.72636e-05
4.16479e-05
3.78622e-05
8.30391e-06
0.124456
0.0456137
1.55401e-05
8.56607e-06
0.00585752
0.0375103
0.0342283
0.00493461
0.000937673
0.00332793
0.000264353
3.44335e-05
1.6129e-05
1.50789e-05
3.97272e-06
4.56698e-06
3.12383e-05
7.22549e-05
6.31119e-05
2.73338e-05
6.7446e-05
7.49919e-05
1.93132e-05
0.0107002
0.0536261
8.56607e-06
8.56607e-06
8.56574e-06
2.96484e-05
0.000856497
0.0006539
3.69638e-05
2.44811e-05
6.16105e-06
5.94966e-08
8.95736e-07
6.97989e-07
8.25774e-07
1.90251e-05
7.84468e-05
7.86153e-05
7.84468e-05
7.66381e-05
7.72099e-05
7.57457e-05
2.46302e-05
0.0106169
0.0769749
0.000566195
8.04794e-06
1.96308e-05
7.76699e-05
4.60102e-05
2.40961e-05
6.15509e-06
1.60441e-06
1.18251e-08
2.64032e-07
4.40403e-07
5.51749e-07
2.166e-06
5.47167e-05
7.88918e-05
7.86153e-05
7.86153e-05
7.92137e-05
7.7688e-05
5.45151e-05
2.01492e-05
0.0107354
0.0770192
0.0116542
7.55453e-06
1.78144e-05
5.40159e-05
1.26912e-05
5.28142e-06
1.08593e-06
2.65642e-07
2.04832e-07
2.01076e-07
2.41185e-07
4.31745e-07
3.27401e-06
5.59149e-05
7.98407e-05
7.87506e-05
7.93741e-05
8.00146e-05
2.7832e-05
1.8073e-05
1.24756e-05
0.0109448
0.0770192
0.0176262
6.95029e-06
6.75617e-06
9.72354e-06
6.08545e-06
1.21533e-06
3.21053e-07
2.05781e-07
1.88972e-07
1.42984e-07
1.29999e-07
2.42497e-07
7.63406e-07
2.1667e-05
8.275e-05
7.99388e-05
7.85536e-05
7.95828e-05
7.25897e-05
1.10523e-05
6.15548e-10
0.00635873
0.0755895
0.0172653
4.45385e-06
2.94539e-06
4.44292e-06
1.33769e-06
3.42198e-07
2.12292e-07
1.98587e-07
1.92261e-07
1.15119e-07
7.39791e-08
4.3272e-08
1.23652e-07
5.47095e-07
2.95014e-05
7.96219e-05
7.82658e-05
7.80414e-05
3.10667e-05
4.99215e-08
-2.28027e-09
0.00188126
0.0105692
0.0148517
3.28557e-06
2.46001e-06
2.93253e-06
2.65008e-06
1.33988e-06
3.63197e-07
7.98673e-06
1.24776e-07
7.4082e-08
4.42397e-08
1.08131e-08
2.83123e-11
-2.84981e-08
-3.63772e-08
1.99073e-05
4.87281e-05
8.28441e-06
-5.08219e-12
8.89895e-13
3.09419e-12
0.00129478
0.00129459
0.0202691
2.46442e-06
2.1212e-06
2.46745e-06
3.18012e-06
3.24546e-05
8.69217e-05
8.70962e-06
1.30264e-07
6.94405e-08
1.01029e-08
4.39233e-09
1.02172e-10
3.29644e-10
-5.20825e-11
-2.29603e-10
-3.09778e-10
-5.28307e-12
-5.92662e-13
3.3239e-15
1.84315e-12
0.00129495
0.00150158
0.020403
0.000207319
1.89935e-06
2.11802e-06
3.1023e-06
4.25516e-05
0.000182195
9.00479e-05
7.49851e-07
2.50443e-07
2.75396e-08
8.71857e-09
1.22171e-09
-1.33923e-10
-2.13195e-11
-3.97959e-11
-3.61802e-11
-2.23747e-11
-3.49363e-12
5.68092e-12
7.60188e-12
0.00169134
0.00535258
0.020403
0.00187842
1.30797e-06
2.27767e-06
1.32694e-05
0.000168383
0.000183735
0.000185942
0.000122313
1.52886e-05
9.80331e-08
3.30478e-08
7.63112e-09
-6.49596e-10
-1.24063e-12
-3.45521e-11
-3.3669e-11
-2.24339e-11
-4.69315e-12
7.88952e-12
8.41313e-12
0.00360056
0.0142869
0.0203055
0.00194152
6.03785e-07
1.32046e-06
2.33733e-05
0.000181235
0.000182156
0.000181715
0.000180764
0.000156022
1.02903e-05
1.41277e-07
4.66707e-08
-1.45269e-09
-2.94323e-13
-7.96073e-12
-8.59456e-12
-5.75967e-12
7.41359e-13
7.10617e-12
7.18839e-12
0.0633083
0.0254825
0.0149521
-1.33903e-06
4.75209e-07
1.11332e-06
2.8252e-05
0.000182232
0.000180905
0.000182026
0.000181025
0.000179533
0.000125399
4.56015e-07
4.17998e-06
1.50845e-07
-5.69794e-13
1.61653e-13
6.28407e-12
6.04924e-12
5.43931e-12
5.48565e-12
5.3401e-12
0.21595
0.000126208
0.00566437
-7.44238e-07
3.27647e-07
1.16022e-06
1.50692e-05
0.000124044
0.000188842
0.000180452
0.000180125
0.000178773
0.000175629
1.51221e-06
9.07292e-06
8.37042e-07
8.03858e-12
2.17941e-12
7.35213e-12
6.31974e-12
4.43047e-12
3.8276e-12
3.5391e-12
0.23244
7.67985e-05
2.47875e-05
5.06765e-06
2.87015e-07
4.44649e-07
1.35546e-06
1.19794e-05
0.000108924
0.000180571
0.000179481
0.000178232
0.000105617
6.75148e-06
9.03714e-06
2.22288e-06
3.40342e-11
5.38074e-12
8.27864e-12
6.98679e-12
3.9165e-12
2.62658e-12
2.22418e-12
0.232797
0.000110753
7.84707e-06
2.26588e-06
2.87708e-07
2.87107e-07
3.00241e-07
1.20791e-06
9.78947e-06
5.2096e-05
0.000112446
0.000177189
5.75407e-05
1.35916e-06
7.76552e-06
2.48771e-06
1.39783e-10
7.157e-12
8.59512e-12
8.1802e-12
3.93787e-12
1.86665e-12
1.35234e-12
0.232797
0.000493969
2.88665e-06
6.72737e-08
2.83705e-07
3.0141e-07
3.10296e-07
5.69412e-07
1.57948e-06
2.15594e-06
6.08836e-06
1.70209e-05
7.31499e-06
8.93674e-07
1.83042e-06
2.3695e-06
3.99252e-08
1.45535e-10
1.69342e-11
9.87603e-12
4.38686e-12
1.45882e-12
7.81418e-13
0.194088
0.0155445
3.20061e-05
2.42482e-06
1.78259e-07
3.13856e-07
3.7428e-07
3.70266e-07
4.32762e-07
5.78822e-07
5.02725e-07
3.07054e-07
3.81894e-07
4.25667e-07
3.27951e-06
2.46491e-06
4.68993e-08
6.92486e-11
3.93529e-11
1.25314e-11
5.16179e-12
1.33243e-12
4.54488e-13
0.00276544
0.0335814
0.00212183
7.57283e-06
8.78625e-07
3.08636e-07
3.42818e-07
1.75785e-07
1.59419e-07
1.65682e-07
1.34993e-07
9.83387e-08
7.04638e-08
2.99147e-07
5.91452e-06
2.54407e-06
5.6465e-09
2.0968e-10
1.67389e-11
1.19904e-11
6.19666e-12
1.428e-12
2.88655e-13
0.00275588
0.0336363
0.00984233
1.7105e-05
1.52868e-06
3.40168e-07
2.08823e-07
1.04299e-07
7.42243e-08
6.07374e-08
6.11507e-08
5.50503e-08
5.8707e-08
1.02134e-06
6.69624e-06
1.69643e-06
8.63154e-09
4.92607e-10
2.80367e-11
2.33176e-11
7.1692e-12
1.72196e-12
2.35848e-13
0.00325886
0.0334994
0.00160756
0.000234887
4.31807e-06
2.31907e-07
1.00425e-07
6.92397e-08
4.94619e-08
4.54699e-08
4.25962e-08
4.67644e-08
5.48721e-08
3.9771e-06
7.3442e-06
1.6e-06
5.67934e-08
8.69267e-10
7.27211e-11
2.37193e-11
7.47244e-12
2.24387e-12
2.70443e-13
0.00467929
0.0218388
1.4042e-05
0.000288794
2.15667e-05
1.63114e-07
6.66158e-08
5.06961e-08
4.36624e-08
3.98406e-08
3.81402e-08
4.29678e-08
2.1937e-07
7.41933e-06
1.0051e-05
7.12475e-06
4.6539e-07
2.69787e-09
1.33153e-10
1.19656e-11
5.22361e-12
2.68829e-12
3.66598e-13
0.00251389
0.016122
1.43251e-05
1.24719e-05
1.28172e-05
3.87237e-07
5.27733e-08
4.36589e-08
3.9868e-08
3.79042e-08
3.73913e-08
1.46784e-07
7.4684e-08
3.89251e-06
2.24582e-05
1.33858e-05
1.69428e-07
3.81255e-09
1.8609e-10
1.46637e-11
4.27297e-12
2.81375e-12
4.22182e-13
1.31426e-05
0.000164725
0.00527117
2.68877e-06
3.40066e-07
8.46479e-08
3.45359e-08
3.94046e-08
3.78832e-08
3.67202e-08
3.78302e-08
1.98154e-07
6.12541e-08
7.13982e-06
4.14625e-05
1.4015e-05
6.27223e-08
3.93871e-09
2.02201e-10
1.50799e-11
4.10461e-12
2.68954e-12
4.11181e-13
6.57213e-06
0.000546983
0.0104564
0.00456304
2.00482e-06
-7.41177e-07
3.67012e-08
1.3457e-08
3.5144e-08
3.56616e-08
3.55396e-08
7.26169e-08
6.1776e-08
4.55405e-05
7.89006e-05
1.27017e-05
5.94161e-08
2.75293e-09
1.73772e-10
1.32191e-11
3.91242e-12
2.19111e-12
3.27344e-13
1.6545e-09
0.000785892
0.00681806
0.00838243
0.00359595
1.55933e-05
1.23447e-06
1.05002e-07
2.23919e-08
3.42592e-08
3.5078e-08
3.54024e-08
0.000417202
0.000647807
0.000156077
7.54817e-07
5.16246e-08
2.70245e-09
1.29589e-10
9.69386e-12
2.77625e-12
1.61088e-12
1.97739e-13
1.65399e-09
1.65389e-09
6.34265e-09
0.00834798
0.00840287
0.00135738
1.71789e-05
1.47388e-06
2.29004e-07
5.38493e-08
2.29747e-08
0.00215055
0.00413033
0.00169483
7.22901e-06
4.97985e-07
2.79653e-08
1.32583e-09
5.55204e-11
6.43793e-12
2.44833e-12
7.89155e-13
7.52647e-14
2.36481e-09
1.59514e-09
5.52453e-08
0.00329584
0.00840287
0.00840287
0.000826868
1.19574e-05
1.94111e-06
2.44563e-07
0.000650785
0.00413033
0.00413033
0.00116226
2.42761e-06
1.30715e-07
4.94869e-09
1.60122e-10
6.30568e-12
2.20234e-12
1.42537e-12
1.44365e-13
9.20554e-15
3.03326e-09
8.17163e-10
-3.27362e-10
-4.37797e-08
0.00537512
0.00818141
0.00569533
0.000192155
1.22605e-05
1.35578e-05
0.00399342
0.00403808
0.00156012
1.68237e-07
8.60823e-09
-5.5105e-10
-2.29207e-11
-3.47227e-14
8.72746e-13
1.07283e-12
8.74672e-14
4.50324e-15
1.50893e-16
2.62508e-10
8.04039e-10
-4.97843e-13
5.73648e-19
1.3708e-22
4.26526e-08
0.00322955
0.000565952
0.000116536
0.000580123
0.00101685
1.26689e-20
6.92784e-19
-6.31296e-12
-3.72564e-12
-1.82567e-12
2.12817e-14
3.84604e-14
9.38221e-14
4.78176e-15
1.09106e-16
1.97421e-18
8.33987e-19
0.994096
0.994097
0.994097
0.994097
0.993816
0.976477
0.922729
0.748928
0.135958
0.440756
0.753416
0.586681
0.0264539
0.0309514
0.0717678
0.0954816
0.00855426
0.00731732
0.00721186
0.00138723
0.0151798
0.010997
0.00422649
0.00166572
0.0855019
0.0855019
0.055035
0.00581636
0.0814219
0.0818635
0.0782723
0.0766335
1.08457e-08
0.000549008
0.00528156
0.00850459
2.41675e-09
5.77239e-10
2.70843e-10
2.31516e-10
1.05739e-08
2.88153e-09
5.01107e-10
1.31527e-10
7.8076e-08
1.38259e-08
1.80172e-09
1.72129e-10
1.79462e-07
2.65534e-08
3.03969e-09
2.07123e-10
1.88026e-07
1.59632e-08
1.50126e-09
1.18061e-10
4.17146e-08
1.11345e-08
1.82043e-09
1.53714e-10
3.77804e-09
2.18637e-10
3.49835e-11
3.66722e-11
3.2377e-10
1.92958e-11
1.49355e-11
2.37265e-11
-4.21237e-11
1.25058e-11
1.33917e-11
1.43847e-11
1.14484e-11
1.11451e-11
1.07982e-11
1.25818e-11
9.9688e-12
1.12927e-11
1.3314e-11
1.61404e-11
1.09501e-11
1.28298e-11
1.4775e-11
1.6893e-11
1.02484e-11
1.12245e-11
1.21622e-11
1.30739e-11
8.42928e-12
8.41869e-12
8.54679e-12
8.85313e-12
6.58467e-12
6.28228e-12
6.14043e-12
6.22863e-12
4.64669e-12
4.32793e-12
4.17322e-12
4.25514e-12
2.83676e-12
2.54323e-12
2.4236e-12
2.51851e-12
1.60383e-12
1.33269e-12
1.21471e-12
1.28145e-12
8.91166e-13
6.8482e-13
5.82146e-13
6.05444e-13
4.44579e-13
3.10232e-13
2.45351e-13
2.55871e-13
2.07833e-13
1.26926e-13
9.38332e-14
1.03646e-13
9.5275e-14
4.87759e-14
3.44809e-14
4.32362e-14
4.55822e-14
1.63868e-14
1.14278e-14
1.81738e-14
3.39647e-14
6.27819e-15
3.68933e-15
7.59375e-15
4.27656e-14
4.68668e-15
1.40779e-15
3.04628e-15
6.23453e-14
6.4393e-15
8.57038e-16
1.18511e-15
6.72922e-14
7.85848e-15
8.53004e-16
5.38519e-16
5.43564e-14
6.61021e-15
7.05575e-16
3.3507e-16
3.01034e-14
3.45052e-15
3.75004e-16
2.10648e-16
8.99915e-15
8.52969e-16
1.14515e-16
1.22026e-16
7.61999e-16
6.42026e-17
3.33177e-17
6.39638e-17
1.07742e-17
6.89477e-18
1.27806e-17
2.56528e-17
9.41856e-19
1.50774e-18
2.92761e-18
5.56718e-18
0.951761
0.851704
0.888222
0.939247
0.922767
0.508109
0.154392
0.159692
0.351022
0.561444
0.832089
0.921105
0.921033
0.598502
0.0159272
0.0135682
0.0135902
0.0135887
0.253389
0.373139
0.140393
0.180634
0.281217
0.391914
0.502013
0.154833
0.0485051
0.0475887
0.0467018
0.0713883
0.558314
0.733206
0.215289
0.013717
0.0136002
0.013579
0.0136002
0.130952
0.0876669
0.00414062
0.00309143
0.00226251
0.00197913
0.173845
0.179994
0.0523286
0.0467021
0.0466024
0.0466519
0.0647276
0.169928
0.0784952
0.0156481
0.0169482
0.0136002
0.0136332
0.0896728
0.0970106
0.0511792
0.0022896
0.00142926
0.00159609
0.00197082
0.179898
0.185067
0.128144
0.0471581
0.0510294
0.077592
0.0670068
0.0158705
0.0298574
0.0287872
0.0166326
0.0156117
0.118635
0.00124711
0.00125995
0.00342602
0.00130323
0.00143097
0.00634094
0.080354
0.185067
0.174714
0.0619933
0.0785538
0.0688678
0.0233302
0.009842
0.0248108
0.0243465
0.0133851
0.0395608
0.154532
0.00128611
0.00124784
0.00130007
0.00131773
0.00130697
0.0786323
0.0702991
0.0634802
0.127154
0.127328
0.103498
0.0169027
0.0117838
0.0109467
0.0118464
0.0122721
0.0129876
0.0517334
0.199776
0.0143996
0.00192405
0.00502388
0.00566553
0.0253521
0.0961868
0.0961868
0.0350155
0.104225
0.12655
0.0989417
0.0114443
0.0114862
0.0115921
0.0115896
0.0118592
0.0120885
0.0317265
0.199776
0.0747351
0.0333832
0.0570001
0.066968
0.0829302
0.07868
0.0741133
0.0319563
0.0400324
0.126259
0.0723527
0.0114315
0.0114357
0.0114438
0.0114888
0.0115803
0.0160626
0.022596
0.175674
0.0224901
0.0545028
0.0566553
0.055662
0.0388034
1.19273e-05
0.000147004
0.01379
0.0338762
0.0674578
0.0126581
0.0114357
0.0114327
0.0114357
0.0118118
0.0209399
0.0246342
0.0354504
0.173379
1.30141e-10
0.00553699
0.00959581
0.00479849
1.34696e-07
5.38861e-07
1.13748e-05
0.00343678
0.0339255
0.0354564
0.0319023
0.0304716
0.0398364
0.048464
0.0513261
0.0508313
0.0191236
0.0373357
0.171139
8.10114e-11
7.68179e-11
8.10041e-11
8.29032e-11
5.61305e-10
1.37325e-09
-5.65299e-07
-4.29475e-06
0.0163012
0.049567
0.0563723
0.0563255
0.0414782
0.0221235
0.0130924
0.00587328
0.00606819
0.0366212
0.110063
7.84347e-11
6.89093e-11
2.19873e-10
2.16131e-10
4.65548e-10
5.57972e-10
-3.31924e-09
-2.88999e-09
1.80156e-08
1.32857e-07
0.000207482
1.88799e-06
2.31205e-06
1.68689e-06
0.000136117
0.000660115
0.00847627
0.0461523
0.0614168
7.51504e-11
6.13773e-11
2.19265e-09
9.7557e-09
1.07684e-08
5.75058e-09
1.97874e-09
2.08532e-09
3.17001e-09
1.9373e-08
1.27109e-07
2.91293e-06
2.00394e-06
8.63827e-06
1.82668e-05
0.000147549
0.0155123
0.0931452
0.0931408
7.82866e-11
5.8391e-11
3.23232e-09
1.17754e-08
1.17758e-08
9.85684e-09
1.76238e-09
1.85722e-09
5.31531e-09
4.76428e-08
1.99659e-06
3.65333e-05
4.08487e-05
1.84751e-05
0.000143162
0.000753212
0.0467414
0.0919496
0.0931408
5.85797e-11
2.31139e-11
5.41573e-10
4.03302e-09
7.02923e-09
2.54436e-09
9.96216e-10
1.40435e-09
5.35162e-09
7.94651e-08
1.17161e-06
1.07468e-05
7.95324e-05
0.00013994
0.00144733
0.0319924
0.054174
0.0539692
0.0288855
4.81184e-11
1.48671e-11
1.50804e-11
1.51567e-11
1.56055e-11
8.56431e-11
2.24267e-10
5.76117e-10
3.92376e-09
5.41571e-08
7.9208e-07
9.11226e-06
7.36816e-05
0.00170292
0.0134563
0.0167921
0.00764779
1.41789e-05
1.46762e-05
2.70246e-11
1.62129e-11
2.48471e-11
3.14237e-11
6.02735e-11
9.63779e-11
2.94825e-10
2.54169e-09
1.78057e-08
4.9873e-08
1.07245e-07
1.41644e-06
0.000215062
0.00190369
0.00230072
0.000399325
7.15011e-06
1.35991e-05
2.31641e-05
1.55391e-11
1.90845e-11
2.55149e-11
5.59725e-11
9.27083e-11
3.78568e-10
2.54181e-09
4.74234e-07
1.5768e-06
1.14627e-07
3.43769e-08
1.09339e-07
5.59045e-05
0.000249087
8.30384e-07
2.54785e-06
5.49076e-06
1.79581e-05
6.77342e-05
1.49598e-11
2.03954e-11
3.00045e-11
5.22314e-11
2.2935e-10
3.00738e-09
9.32926e-07
8.01454e-06
1.0449e-05
6.64733e-06
2.82128e-08
1.37562e-08
1.3982e-07
7.4394e-07
8.45944e-08
5.14482e-06
3.2863e-05
1.63188e-05
6.95249e-05
1.83547e-11
2.18939e-11
3.74501e-11
1.30949e-10
1.54829e-09
7.43074e-07
8.06991e-06
1.04482e-05
1.04587e-05
1.04479e-05
3.75866e-07
2.90669e-09
1.26192e-08
6.17436e-08
3.67903e-08
3.90664e-06
6.40207e-05
4.71911e-06
6.95249e-05
1.57495e-11
2.14476e-11
5.53296e-11
2.91672e-10
3.91944e-09
2.50044e-06
1.04308e-05
1.04587e-05
1.01846e-05
3.03533e-06
2.4337e-09
2.35829e-09
2.85384e-09
1.94389e-08
3.37706e-08
6.51673e-06
6.40207e-05
2.59121e-06
6.94682e-05
1.1775e-11
1.29053e-11
3.46638e-11
1.68634e-10
2.28644e-09
1.04182e-06
8.89357e-06
1.04308e-05
1.61093e-06
2.43306e-09
2.26933e-09
2.31267e-09
2.35297e-09
3.45008e-09
2.98816e-06
4.58809e-05
3.05311e-05
1.22089e-06
6.88846e-05
9.34087e-12
9.1691e-12
1.20062e-11
3.63677e-11
2.12571e-10
3.24054e-09
1.36162e-06
7.20319e-06
8.09637e-07
2.28484e-09
2.28456e-09
2.27678e-09
2.49531e-09
8.15884e-09
1.22559e-05
4.58809e-05
5.30488e-07
4.71821e-07
2.33172e-05
6.60873e-12
8.38906e-12
9.06983e-12
1.37888e-11
4.30127e-11
5.78052e-10
9.86317e-09
3.35427e-06
2.00233e-05
7.09837e-06
2.26938e-09
2.49522e-09
8.24874e-09
2.96491e-06
1.13723e-05
7.1869e-06
3.59371e-06
8.26998e-07
5.10566e-08
4.63121e-12
6.3604e-12
7.37877e-12
1.16258e-11
3.78432e-11
5.22232e-10
9.17012e-09
5.22407e-06
2.20883e-05
2.21023e-05
2.20253e-05
1.72061e-05
1.89057e-05
1.8792e-05
8.00418e-06
7.06389e-06
1.25617e-05
2.90793e-06
2.89471e-08
2.84853e-12
4.23398e-12
7.23624e-12
8.23937e-12
1.25433e-11
6.3023e-12
8.61702e-11
1.57255e-09
7.60847e-06
2.21189e-05
2.21214e-05
2.21214e-05
2.21214e-05
2.1704e-05
1.5478e-05
1.48038e-05
1.24036e-05
1.85569e-06
1.83577e-08
1.54083e-12
2.65362e-12
5.2843e-12
9.96081e-12
1.54356e-11
1.65834e-11
1.38732e-11
1.32329e-11
1.2511e-09
1.61262e-06
1.87195e-05
2.21214e-05
1.69545e-05
1.11163e-05
1.35393e-05
1.13955e-05
1.15383e-06
1.83574e-08
1.83572e-08
7.6034e-13
1.46871e-12
3.32051e-12
7.32998e-12
1.45787e-11
2.38267e-11
2.52698e-11
2.79096e-11
2.0819e-11
4.35507e-08
8.74504e-07
3.41813e-06
1.04633e-06
2.13935e-06
4.50857e-06
9.07563e-07
2.2078e-08
1.84702e-08
1.83574e-08
3.41092e-13
7.23746e-13
1.73195e-12
4.20263e-12
9.94877e-12
2.19672e-11
4.27715e-11
6.13177e-11
3.17005e-11
3.11332e-11
3.11377e-11
3.11329e-11
3.11377e-11
2.25712e-07
3.34169e-11
1.00296e-10
5.56057e-08
1.59105e-07
2.5902e-08
1.53243e-13
3.57682e-13
8.59926e-13
2.1123e-12
5.27181e-12
1.28353e-11
2.97827e-11
6.20775e-11
8.13082e-11
3.98275e-11
3.15639e-11
3.17205e-11
3.87188e-11
3.34025e-11
3.34023e-11
6.97936e-10
1.95199e-07
1.95202e-07
3.05108e-08
7.29695e-14
1.8235e-13
4.24391e-13
9.88981e-13
2.36082e-12
5.39617e-12
1.11374e-11
2.13599e-11
3.69235e-11
5.17255e-11
4.09016e-11
4.47108e-11
7.30318e-11
5.7684e-11
3.41825e-11
4.16157e-09
1.92958e-07
1.51715e-07
1.05247e-08
3.65507e-14
9.56697e-14
2.12064e-13
4.56954e-13
1.02176e-12
2.19016e-12
4.06442e-12
6.75406e-12
1.09315e-11
1.45391e-11
2.70276e-11
4.09531e-11
7.47647e-11
8.74321e-11
3.71883e-11
4.05232e-09
2.96708e-08
5.56456e-13
6.09984e-10
1.90924e-14
5.12519e-14
1.06909e-13
2.10692e-13
4.45432e-13
9.37617e-13
1.68565e-12
2.72023e-12
4.69127e-12
8.81997e-12
1.21974e-11
2.07115e-11
3.57287e-11
5.35059e-11
4.46963e-11
1.67206e-10
2.70079e-13
7.83195e-13
9.56362e-13
1.02837e-14
2.77427e-14
5.34112e-14
9.36043e-14
1.82542e-13
3.77765e-13
6.63478e-13
1.07572e-12
1.90564e-12
3.65636e-12
4.74021e-12
7.05542e-12
1.35504e-11
2.19024e-11
1.0703e-11
2.90238e-13
4.01306e-13
5.05602e-12
2.47771e-11
5.65645e-15
1.49894e-14
2.61267e-14
3.97591e-14
6.98955e-14
1.43387e-13
2.41224e-13
3.81565e-13
6.63781e-13
1.26387e-12
1.55432e-12
1.95916e-12
3.33436e-12
5.16356e-12
2.5542e-12
2.78995e-13
4.24202e-13
5.98624e-12
2.08641e-11
3.14494e-15
7.91165e-15
1.22376e-14
1.58252e-14
2.4438e-14
5.11532e-14
8.21643e-14
1.24287e-13
2.04978e-13
3.78169e-13
4.22987e-13
4.21414e-13
6.00105e-13
7.1364e-13
4.1815e-13
6.45066e-14
2.92414e-13
4.69913e-12
6.54693e-12
1.75079e-15
3.95481e-15
5.32169e-15
5.73246e-15
7.41639e-15
1.60288e-14
2.393e-14
3.30386e-14
4.80434e-14
7.96168e-14
7.72955e-14
5.36871e-14
5.71318e-14
4.71428e-14
2.52062e-14
8.3681e-15
1.56517e-13
2.98557e-12
1.18289e-12
9.52649e-16
1.80477e-15
2.06708e-15
1.82901e-15
1.87705e-15
4.13982e-15
5.4145e-15
6.2445e-15
7.09321e-15
8.51226e-15
6.42989e-15
1.81822e-15
-1.34164e-15
-2.29813e-15
-1.76068e-15
1.2834e-15
6.22912e-14
1.40811e-12
1.69261e-13
4.72389e-16
7.19235e-16
6.82905e-16
4.90186e-16
3.82425e-16
8.49221e-16
8.97295e-16
6.86643e-16
4.40732e-16
1.59451e-16
-2.63836e-18
-1.2704e-16
-2.27567e-16
-2.3548e-16
-1.48963e-16
3.97705e-16
1.82015e-14
4.98339e-13
3.71298e-14
1.95204e-16
2.32993e-16
1.79072e-16
1.02355e-16
5.88134e-17
1.3229e-16
1.01565e-16
1.68204e-17
-2.51248e-17
-2.58623e-17
-1.50793e-17
-7.28377e-18
-3.15897e-18
-1.24292e-18
5.80121e-19
6.45758e-17
3.47026e-15
1.22383e-13
8.77843e-15
5.87931e-17
5.38637e-17
3.28844e-17
1.45401e-17
5.94826e-18
1.46311e-17
7.20248e-18
-2.31161e-18
-4.03107e-18
-2.28139e-18
-8.50639e-19
-2.65645e-19
-7.65164e-20
-2.08862e-20
2.95491e-20
3.49536e-18
2.90977e-16
1.52698e-14
9.89461e-16
9.50554e-18
6.55215e-18
3.12141e-18
1.01517e-18
2.73372e-19
9.24966e-19
2.22712e-19
1.37887e-21
-3.86975e-21
-5.42004e-22
-4.04759e-23
-2.00147e-24
-7.5949e-26
-2.74323e-27
-1.3509e-28
-9.66528e-30
-1.35242e-30
-1.91387e-31
-5.2596e-32
)
;

boundaryField
{
    leftWall
    {
        type            zeroGradient;
    }
    rightWall
    {
        type            zeroGradient;
    }
    lowerWall
    {
        type            zeroGradient;
    }
    atmosphere
    {
        type            inletOutlet;
        inletValue      uniform 0;
        value           nonuniform List<scalar> 
46
(
0
0
0
0
0
0
0.00322955
0.000565952
0.000116536
0.000580123
0.00101685
0
0
0
0
0
0
0
0
0
0
0
0
0
0
0
0
0
0
0
0
0
0
0
0
0
0
0
0
0
0
0
0
0
0
0
)
;
    }
    defaultFaces
    {
        type            empty;
    }
}


// ************************************************************************* //
