/*--------------------------------*- C++ -*----------------------------------*\
| =========                 |                                                 |
| \\      /  F ield         | OpenFOAM: The Open Source CFD Toolbox           |
|  \\    /   O peration     | Version:  2.3.0                                 |
|   \\  /    A nd           | Web:      www.OpenFOAM.org                      |
|    \\/     M anipulation  |                                                 |
\*---------------------------------------------------------------------------*/
FoamFile
{
    version     2.0;
    format      ascii;
    class       volScalarField;
    location    "1.2";
    object      p;
}
// * * * * * * * * * * * * * * * * * * * * * * * * * * * * * * * * * * * * * //

dimensions      [1 -1 -2 0 0 0 0];

internalField   nonuniform List<scalar> 
2268
(
983.649
982.054
979.028
976.624
971.176
963.208
954.109
937.479
914.765
887.345
856.62
823.578
792.044
767.832
747.024
728.061
722.34
721.049
718.606
717.941
719.059
720.371
721.566
924.66
922.739
919.424
917.893
912.521
904.292
896.008
879.403
856.686
829.041
797.947
764.234
731.163
706.167
685.418
667.056
662.33
661.72
659.83
659.199
660.178
661.594
662.881
866.048
864.88
862.627
859.62
853.46
845.432
837.7
822.078
799.464
771.412
739.861
707.193
675.276
647.191
623.525
606.044
602.208
601.453
599.936
599.759
601.164
602.874
604.257
807.499
807.396
806.354
802.185
794.269
786.159
779.632
765.455
743.107
714.466
682.145
649.469
617.169
587.246
562.401
545.962
542.082
540.612
539.378
539.739
541.857
544.111
545.647
748.956
750.064
750.427
745.549
735.832
727.239
722.356
709.69
687.609
658.071
624.348
589.842
555.852
524.32
500.012
487.001
481.456
479.105
478.155
479.278
482.385
485.363
487.035
690.215
692.06
694.457
689.702
679.157
670.387
665.742
655.205
633.197
602.294
566.373
528.638
491.584
457.979
434.839
424.327
419.353
416.764
416.417
418.526
422.814
426.692
428.437
631.834
635.1
638.714
634.87
624.581
615.48
610.858
601.969
580.004
547.406
508.577
466.696
424.919
388.097
365.977
358.504
355.705
355.256
356.938
361.159
366.645
370.232
370.05
572.227
576.436
583.515
581.386
572.898
564.148
558.909
549.922
527.791
493.53
451.091
403.191
352.01
313.783
291.504
287.792
291.264
296.041
300.003
305.82
314.705
318.443
312.94
679.115
672.946
658
646.699
679.458
674.293
590.375
484.958
437.637
440.493
445.28
443.869
457.642
463.885
429.335
345.009
288.125
268.01
258.468
619.766
612.197
602.128
595.759
617.212
602.337
513.4
407.503
358.023
368.197
383.116
388.425
410.822
422.798
384.768
286.252
242.743
230.071
212.115
561.524
558.885
553.617
545.206
550.07
523.365
431.492
328.957
279.064
284.616
306.507
325.062
360.629
379.134
335.327
235.611
219.446
209.348
187.466
504.436
505.118
505.373
491.789
484.916
451.867
357.065
257.532
209.663
209.049
227.572
250.62
299.609
327.683
273.575
204.896
196.934
188.806
175.886
446.949
449.386
450.36
433.619
419.332
385.04
290.772
197.011
151.821
145.932
155.276
172.94
230.052
268.341
206.485
173.917
163.296
162.16
158.881
387.801
388.287
388.283
372.816
355.086
311.505
234.593
153.534
108.248
95.9628
95.4884
102.338
164.495
208.89
143.609
130.422
116.934
128.017
136.702
328.908
324.675
324.474
311.803
301.875
249.437
188.062
128.132
80.9914
59.2684
54.1998
53.8351
116.307
150.779
95.8722
78.0698
65.6673
86.2323
111.612
270.273
254.162
251.643
247.395
247.337
214.974
153.432
107.066
63.1377
39.1173
20.6595
22.5026
83.6214
105.524
59.0911
49.821
50.9448
52.9378
86.0372
495.621
497.122
501.701
500.407
496.476
490.248
483.977
472.374
448.515
410.855
361.067
302.767
238.411
203.56
193.512
193.691
197.166
199.052
207.93
216.479
230.306
231.57
217.459
447.694
439.088
413.788
398.058
390.901
389.329
389.837
379.334
352.256
306.535
237.29
167.613
124.116
122.578
129.285
131.64
132.862
133.503
133.017
137.293
145.845
138.528
115.915
430.661
413.144
387.983
350.546
307.235
297.332
308.153
300.717
272.443
228.469
149.22
102.057
89.7973
95.6222
101.629
101.656
100.406
97.4151
92.2545
89.633
78.896
60.7583
50.0213
406.096
369.093
326.957
279.413
254.466
258.522
265.537
245.114
234.51
187.657
106.084
74.2019
66.3175
64.5027
59.8936
49.9925
38.9889
29.3623
35.3649
49.0742
47.2119
35.011
21.1997
363.002
299.818
245.924
198.883
172.656
160.208
132.19
118.557
109.529
73.2992
36.6947
27.4805
25.3112
18.6926
10.8919
4.26058
2.69079
2.01181
3.26017
9.08752
17.9202
15.3906
8.62275
367.102
326.226
218.872
129.579
74.9406
52.0896
30.7709
17.1946
11.5724
4.28429
4.6757
3.60154
3.27551
2.15167
0.941611
0.619151
0.627855
0.623136
0.537134
0.765237
4.1722
4.73369
5.93927
348.061
353.596
282.804
168.154
74.7361
31.1347
13.7605
12.0074
6.84991
0.979374
0.384658
0.281693
0.419955
0.565156
0.578233
0.543034
0.468931
0.422665
0.353218
0.25877
0.143309
0.186693
2.33749
289.598
331.456
313.115
184.096
63.8257
38.7205
23.4204
12.6392
6.11656
2.50372
0.526626
-0.0624548
0.0636814
0.256705
0.314919
0.298477
0.254205
0.209962
0.168502
0.130267
0.0604574
0.0555535
0.0804322
218.437
224.988
197.231
89.9412
29.7122
18.1089
13.4898
11.6646
8.51229
3.68516
0.889423
-0.0433884
-0.112826
0.077822
0.161577
0.122446
0.0559683
-0.00913412
-0.0771804
-0.151504
-0.257271
-0.389718
-0.51028
123.852
85.9041
92.3201
43.3886
16.0195
12.6436
11.2079
9.6889
7.96504
4.01582
1.06277
0.0408874
0.0108662
0.100489
0.0728878
-0.0403721
-0.145326
-0.229802
-0.307062
-0.385185
-0.464716
-0.540518
-0.627957
52.8253
29.7099
22.8604
0.293804
-0.234103
7.74408
7.46487
5.39669
4.70079
2.86583
0.2208
0.0262976
0.104044
0.128117
-0.0256367
-0.214066
-0.363597
-0.479906
-0.575905
-0.652855
-0.711753
-0.760527
-0.810538
23.923
10.9884
2.1011
0.802353
-9.50742
2.42209
4.23988
2.71362
2.40833
1.21582
-0.511514
-0.248356
0.0448852
0.0722376
-0.155012
-0.408824
-0.616667
-0.787249
-0.916272
-0.989515
-1.01162
-1.00657
-1.00401
7.84664
0.307745
-0.21848
-0.86646
1.07105
2.17153
1.67391
1.23549
0.978439
0.699959
-0.544168
-0.38549
-0.0150915
-0.066133
-0.322528
-0.632189
-0.924518
-1.17312
-1.34268
-1.40773
-1.37905
-1.29847
-1.22613
-1.26738
-1.63647
-1.07036
-1.60665
-1.32053
-0.18109
-0.779467
-0.149205
-0.0421797
-0.660583
-0.712548
-0.380917
-0.160637
-0.289539
-0.562398
-0.925657
-1.30039
-1.62943
-1.8321
-1.8797
-1.79347
-1.62438
-1.47056
-5.54551
-1.58076
-1.30053
-1.67436
-1.736
-2.1174
-2.227
-1.17598
-0.630242
-0.792597
-0.664
-0.478455
-0.427376
-0.591806
-0.900544
-1.28838
-1.71827
-2.09712
-2.30954
-2.3291
-2.18646
-1.93772
-1.71232
-3.9218
-1.37492
-1.22818
-1.42096
-1.62096
-1.86124
-1.87754
-1.47487
-1.16202
-1.08851
-0.930147
-0.81447
-0.843851
-1.01419
-1.30147
-1.6832
-2.11681
-2.48159
-2.66986
-2.65658
-2.46949
-2.17913
-1.92357
-2.93685
-1.05641
-1.00764
-1.10493
-1.26631
-1.52825
-1.68387
-1.66022
-1.5919
-1.49413
-1.37293
-1.31768
-1.36185
-1.50675
-1.7461
-2.07434
-2.43929
-2.73244
-2.86659
-2.81467
-2.60545
-2.32321
-2.08332
-2.36991
-0.817029
-0.515404
-0.867935
-0.995778
-1.38241
-1.76483
-2.00525
-2.07174
-2.02256
-1.94773
-1.91161
-1.94093
-2.03757
-2.20141
-2.42857
-2.67328
-2.85573
-2.91461
-2.82464
-2.62165
-2.38557
-2.19729
-2.28653
-0.896636
-0.772196
-0.996586
-1.0784
-1.58139
-2.12191
-2.50611
-2.65841
-2.66465
-2.61818
-2.57423
-2.55915
-2.58304
-2.64756
-2.74775
-2.85414
-2.91656
-2.89642
-2.78092
-2.60605
-2.42942
-2.30016
-2.55779
-2.3441
-1.56624
-1.4327
-1.514
-2.0741
-2.67708
-3.12823
-3.3488
-3.4095
-3.37981
-3.3014
-3.21087
-3.13455
-3.08258
-3.05162
-3.02545
-2.98017
-2.89576
-2.77061
-2.62688
-2.50184
-2.41897
-2.54167
-2.55574
-1.9314
-1.87809
-2.15293
-2.73138
-3.35389
-3.85296
-4.14011
-4.25111
-4.226
-4.09377
-3.89975
-3.69586
-3.5133
-3.35785
-3.21987
-3.08884
-2.95809
-2.82638
-2.70711
-2.61622
-2.55918
-2.79765
-2.8897
-2.29557
-2.33498
-2.94659
-3.45879
-4.095
-4.65754
-5.02649
-5.1749
-5.12824
-4.93071
-4.61755
-4.26843
-3.94397
-3.66989
-3.44223
-3.24841
-3.08346
-2.94587
-2.83862
-2.76345
-2.71593
-3.93447
-4.5246
-4.33666
-3.58219
-3.97514
-4.20596
-4.83002
-5.4544
-5.91571
-6.12028
-6.04955
-5.75914
-5.32148
-4.83143
-4.36777
-3.97915
-3.67566
-3.43627
-3.24822
-3.10417
-2.99892
-2.92703
-2.88072
-4.75493
-8.71092
-7.74182
-5.75275
-4.89957
-4.85319
-5.42385
-6.07934
-6.62863
-6.90455
-6.84811
-6.49311
-5.93634
-5.32918
-4.75586
-4.26852
-3.90107
-3.62818
-3.42451
-3.27496
-3.16843
-3.09559
-3.0477
-3.55294
-8.35303
-6.80408
-5.54146
-4.96785
-5.11779
-5.68325
-6.37654
-7.00798
-7.34841
-7.33108
-6.97967
-6.36749
-5.68324
-5.05583
-4.51031
-4.09922
-3.80576
-3.59452
-3.44282
-3.33582
-3.26211
-3.21274
0.688999
-3.39527
-3.36705
-3.94103
-4.33944
-4.88074
-5.53622
-6.28507
-6.97656
-7.37986
-7.40848
-7.09459
-6.51133
-5.8318
-5.21826
-4.6759
-4.25417
-3.95696
-3.74823
-3.5998
-3.49543
-3.42292
-3.37348
-0.493553
-2.40385
-2.55353
-3.12086
-3.75034
-4.46836
-5.15641
-5.88998
-6.55792
-6.99349
-7.08458
-6.84695
-6.35373
-5.76647
-5.23104
-4.75149
-4.35824
-4.07651
-3.88133
-3.74268
-3.64485
-3.5763
-3.52877
-1.78359
-2.6877
-2.51184
-3.06883
-3.56447
-4.22153
-4.80403
-5.41199
-5.96463
-6.34058
-6.46109
-6.3078
-5.97078
-5.54697
-5.13193
-4.74813
-4.41538
-4.16636
-3.99427
-3.87148
-3.78394
-3.72197
-3.67832
-1.95304
-2.68159
-2.81193
-3.25522
-3.68269
-4.18848
-4.59652
-5.02101
-5.42229
-5.70727
-5.81707
-5.74291
-5.53623
-5.25789
-4.97173
-4.69797
-4.43956
-4.23419
-4.09114
-3.98848
-3.91406
-3.86069
-3.82257
3.27913
-3.604
-3.3255
-3.66413
-3.96272
-4.2707
-4.50794
-4.76635
-5.02662
-5.22275
-5.30736
-5.27211
-5.14635
-4.97945
-4.80576
-4.6299
-4.44743
-4.28993
-4.17813
-4.09726
-4.03749
-3.99395
-3.96243
-6.63117
-6.55588
-4.19884
-4.35894
-4.34379
-4.38863
-4.48372
-4.62528
-4.77886
-4.89872
-4.9502
-4.92697
-4.85278
-4.76216
-4.672
-4.57262
-4.45448
-4.34319
-4.26096
-4.20165
-4.15687
-4.12358
-4.09915
-7.13911
-7.96882
-5.54684
-4.98219
-4.61102
-4.47097
-4.48569
-4.5576
-4.64175
-4.70763
-4.72998
-4.70742
-4.66296
-4.62274
-4.58741
-4.54205
-4.47275
-4.40048
-4.34549
-4.30547
-4.27476
-4.2515
-4.23413
-6.72191
-6.29128
-5.29613
-5.07819
-4.6035
-4.4699
-4.48546
-4.52797
-4.57545
-4.60952
-4.61158
-4.58645
-4.55899
-4.54958
-4.55181
-4.54289
-4.50826
-4.46687
-4.43506
-4.41177
-4.39353
-4.37938
-4.36867
-5.79616
-4.53972
-4.53121
-4.60016
-4.36255
-4.41011
-4.47536
-4.51816
-4.55351
-4.57079
-4.55864
-4.53039
-4.51512
-4.52901
-4.55784
-4.57338
-4.56265
-4.54499
-4.5321
-4.52274
-4.51504
-4.50879
-4.50396
-4.96851
-4.1037
-4.34435
-4.13127
-4.14027
-4.35326
-4.47763
-4.5336
-4.56699
-4.57323
-4.54809
-4.51481
-4.5093
-4.54454
-4.59618
-4.62894
-4.63533
-4.63616
-4.63826
-4.64
-4.64076
-4.64098
-4.64104
-4.9529
-4.88849
-4.69479
-3.893
-4.05222
-4.3408
-4.51152
-4.5852
-4.61728
-4.61239
-4.57229
-4.52706
-4.52417
-4.58176
-4.65877
-4.70633
-4.72646
-4.74171
-4.75493
-4.76475
-4.77176
-4.77687
-4.78069
-5.02124
-4.97447
-4.57381
-3.90166
-4.07542
-4.39413
-4.59404
-4.68697
-4.71548
-4.69578
-4.63456
-4.55717
-4.54775
-4.6386
-4.75119
-4.81089
-4.83934
-4.86335
-4.88304
-4.89768
-4.90861
-4.91695
-4.92334
-5.10582
-5.07389
-4.80064
-4.39644
-4.36199
-4.55051
-4.76993
-4.88915
-4.89329
-4.84962
-4.78211
-4.64093
-4.6449
-4.77144
-4.90048
-4.95042
-4.9767
-5.0015
-5.02244
-5.03863
-5.0513
-5.0613
-5.0691
-5.26483
-5.2549
-5.2685
-5.11751
-4.79938
-4.79969
-5.09368
-5.28422
-5.21245
-5.1484
-5.07416
-4.92776
-4.92243
-5.02401
-5.09668
-5.11839
-5.13427
-5.15334
-5.17143
-5.18667
-5.19936
-5.20974
-5.21795
-5.4128
-5.40853
-5.42199
-5.40864
-5.33798
-5.12156
-5.82017
-5.98278
-5.69952
-5.73224
-5.4373
-5.40461
-5.36111
-5.36197
-5.32478
-5.3026
-5.30346
-5.3138
-5.3274
-5.34061
-5.35225
-5.36196
-5.36968
-5.57372
-5.56812
-5.53977
-5.56336
-5.25037
-3.96174
-8.29936
-7.44293
-6.34497
-6.67212
-6.09368
-4.78344
-5.53226
-5.54867
-5.47472
-5.46107
-5.46932
-5.47805
-5.48893
-5.49976
-5.50938
-5.51743
-5.52386
-5.73669
-5.73422
-5.75458
-5.79452
-6.02128
-6.80156
-11.6829
-8.4318
-6.717
-7.60767
-7.83304
-6.01333
-5.8462
-5.73616
-5.68806
-5.66135
-5.64952
-5.65075
-5.65679
-5.66392
-5.67064
-5.67636
-5.68097
207.405
209.456
209.093
198.373
100.857
100.135
100.539
81.4649
44.6355
44.5644
45.3852
16.8951
17.0983
16.4424
17.8378
18.5652
11.4369
12.7054
13.1115
12.9635
11.2368
12.0817
12.3122
12.2849
8.35008
9.38455
10.1922
11.1466
4.26542
4.62027
5.12347
5.41362
-0.499759
-0.348813
-0.039076
0.0316922
-0.690494
-0.698125
-0.717734
-0.759355
-0.847039
-0.867981
-0.896095
-0.939027
-1.0127
-1.0211
-1.03217
-1.04576
-1.20117
-1.19564
-1.19907
-1.20935
-1.40601
-1.38079
-1.36864
-1.3661
-1.61318
-1.5701
-1.54516
-1.5335
-1.80642
-1.75472
-1.72359
-1.70735
-1.97225
-1.92333
-1.89267
-1.8757
-2.11248
-2.07506
-2.05085
-2.03703
-2.24484
-2.22003
-2.20363
-2.19413
-2.38449
-2.36852
-2.35763
-2.35093
-2.53512
-2.5238
-2.51584
-2.51079
-2.69505
-2.68512
-2.67792
-2.6731
-2.85971
-2.84951
-2.8419
-2.8365
-3.02538
-3.01425
-3.00572
-2.99938
-3.18915
-3.17713
-3.16771
-3.1605
-3.34931
-3.33681
-3.32684
-3.31904
-3.50503
-3.49262
-3.48258
-3.47461
-3.65612
-3.64438
-3.63479
-3.6271
-3.80286
-3.79234
-3.78366
-3.77664
-3.94592
-3.93703
-3.92962
-3.9236
-4.08623
-4.07923
-4.07334
-4.06855
-4.22488
-4.21985
-4.21561
-4.21215
-4.36295
-4.35985
-4.35723
-4.35513
-4.50146
-4.50012
-4.499
-4.49816
-4.64125
-4.64142
-4.6416
-4.64184
-4.783
-4.78435
-4.78554
-4.78664
-4.9271
-4.92925
-4.93114
-4.93283
-5.07367
-5.07627
-5.07855
-5.08056
-5.22274
-5.22545
-5.22782
-5.22989
-5.37414
-5.37665
-5.37884
-5.38074
-5.52754
-5.52961
-5.5314
-5.53293
-5.68358
-5.68503
-5.68626
-5.68729
166.237
127.3
123.05
136.712
150.538
137.925
114.179
82.3064
55.8499
69.0249
55.9309
24.3044
48.6291
57.6451
40.3895
39.1578
43.9929
42.5725
50.9334
33.6573
21.5704
30.1279
37.115
46.1716
56.3076
69.5557
55.0108
42.014
43.9048
52.9795
82.7217
85.6771
47.9466
33.6769
34.3331
37.7392
37.7532
38.8129
-4.29897
10.2928
17.9906
18.958
18.3201
24.8069
54.8148
51.4212
41.4475
38.554
47.6517
57.4951
55.1638
37.1684
29.7671
30.3256
33.2183
33.4262
33.4174
17.939
14.1775
15.4411
17.0035
16.9776
17.9601
41.496
54.2858
36.7109
34.3249
37.8243
35.0182
27.2993
24.4512
25.2335
25.9897
28.7424
28.6791
29.0317
12.3602
11.1191
12.0962
15.5458
15.8648
15.4206
26.5596
34.8827
23.6456
26.5782
26.945
18.5779
14.412
16.3275
20.6837
19.5112
22.4123
23.1065
26.6101
12.0539
11.5482
12.635
15.033
15.6296
14.0477
14.6911
12.2013
9.22405
16.1759
15.5081
12.1748
11.0047
13.4133
16.2779
13.6328
16.692
19.4457
27.5452
11.4153
11.8952
13.6058
15.6888
14.9189
12.3006
9.16434
1.00212
-1.40919
6.99693
12.8722
11.6571
11.4011
13.0055
12.4424
10.6153
13.6353
20.1779
33.5213
6.18487
8.52097
9.71824
11.0071
8.79821
4.63621
4.00318
-1.92481
-5.79304
0.423079
12.2116
12.356
13.2013
13.9368
11.0836
9.70011
13.7012
26.5921
43.9262
0.558912
3.01433
3.45958
2.81549
0.818539
-0.408291
-0.607598
-1.52932
-3.87287
4.24682
9.81002
11.9416
13.9675
14.597
11.6212
10.2967
17.0184
31.1342
50.1536
-0.866524
-0.750994
-0.39123
-0.811707
-1.11061
-0.862386
-0.914592
-1.18185
-0.343471
4.78031
7.99548
9.52806
10.7028
10.7883
8.32524
6.74127
11.9048
23.4163
39.148
-1.03105
-1.06146
-1.05011
-1.10967
-1.149
-1.08846
-1.16083
-1.30478
-1.02753
1.21353
3.0368
2.89503
1.01079
-0.516795
-0.62566
0.842343
5.08433
12.8974
27.3336
-1.06455
-1.11625
-1.16585
-1.21636
-1.25048
-1.26038
-1.32195
-1.43964
-1.66928
-1.69278
-1.54147
-1.64895
-2.04037
-2.26361
-2.00316
-0.965221
0.794086
6.78447
20.1917
-1.232
-1.26076
-1.29659
-1.34429
-1.3795
-1.41237
-1.47025
-1.56784
-1.6647
-1.64692
-1.6418
-1.89022
-2.34027
-2.68576
-2.46662
-1.45836
0.780503
4.32262
13.7871
-1.37203
-1.40004
-1.44061
-1.47952
-1.51438
-1.54908
-1.59322
-1.65022
-1.69942
-1.70861
-1.74
-1.97585
-2.41555
-2.74881
-2.56154
-0.906085
3.95599
6.3615
4.94663
-1.5322
-1.55499
-1.58736
-1.62155
-1.6543
-1.68695
-1.72122
-1.75247
-1.76631
-1.75461
-1.75753
-1.88292
-2.16491
-2.37702
-2.0492
-0.755414
2.20417
1.60463
-0.185691
-1.69831
-1.71373
-1.74001
-1.76973
-1.79935
-1.82813
-1.85467
-1.87361
-1.87772
-1.86483
-1.85454
-1.91053
-2.06114
-2.13039
-1.703
-1.26633
-1.7338
-1.95903
-2.02874
-1.86432
-1.87447
-1.89566
-1.92095
-1.94717
-1.97268
-1.99476
-2.00846
-2.01137
-2.00977
-2.02138
-2.08173
-2.21575
-2.35572
-2.43817
-2.38364
-2.28766
-2.19869
-2.20481
-2.02744
-2.03499
-2.05235
-2.07404
-2.09709
-2.11988
-2.14015
-2.15512
-2.16487
-2.17623
-2.20673
-2.27545
-2.40359
-2.55815
-2.61804
-2.58342
-2.49793
-2.40719
-2.36792
-2.18833
-2.19462
-2.20931
-2.22815
-2.24872
-2.26989
-2.29105
-2.31255
-2.3341
-2.35607
-2.39283
-2.44973
-2.53579
-2.63063
-2.67309
-2.66525
-2.63478
-2.58584
-2.53388
-2.34642
-2.3536
-2.36661
-2.3833
-2.40201
-2.42243
-2.44649
-2.47756
-2.51327
-2.54821
-2.5758
-2.61042
-2.65647
-2.70817
-2.7394
-2.74888
-2.74139
-2.72431
-2.68266
-2.5076
-2.51326
-2.52445
-2.53937
-2.55673
-2.57678
-2.60335
-2.64165
-2.68759
-2.72631
-2.74734
-2.76216
-2.78202
-2.8082
-2.82623
-2.83809
-2.84382
-2.84031
-2.81809
-2.66943
-2.67318
-2.68241
-2.69564
-2.71162
-2.73065
-2.75687
-2.79614
-2.84414
-2.88209
-2.89885
-2.90275
-2.90787
-2.91809
-2.92685
-2.9388
-2.95271
-2.95196
-2.94291
-2.83138
-2.83274
-2.83974
-2.85093
-2.86501
-2.88169
-2.90404
-2.93736
-2.97936
-3.01471
-3.02992
-3.02986
-3.02796
-3.03009
-3.03589
-3.04908
-3.06704
-3.06684
-3.06334
-2.99249
-2.99129
-2.99582
-3.00453
-3.01604
-3.02939
-3.04574
-3.06868
-3.09859
-3.12711
-3.14302
-3.14325
-3.14123
-3.14348
-3.15377
-3.16986
-3.18444
-3.18561
-3.1833
-3.15197
-3.14837
-3.15048
-3.15658
-3.16528
-3.1753
-3.18634
-3.19963
-3.21568
-3.23089
-3.24019
-3.24808
-3.25478
-3.26554
-3.28129
-3.29773
-3.30672
-3.30842
-3.30669
-3.30935
-3.30381
-3.30381
-3.3076
-3.31379
-3.32122
-3.3292
-3.33757
-3.34582
-3.35278
-3.35935
-3.36953
-3.38377
-3.39988
-3.41505
-3.42695
-3.43354
-3.43572
-3.43466
-3.46437
-3.45754
-3.45597
-3.45793
-3.46215
-3.46762
-3.47376
-3.48027
-3.48665
-3.49242
-3.49889
-3.50888
-3.52218
-3.53618
-3.54852
-3.55774
-3.56379
-3.56683
-3.56649
-3.61698
-3.60959
-3.60704
-3.60774
-3.61055
-3.61463
-3.61946
-3.62474
-3.63012
-3.6356
-3.6423
-3.65103
-3.66165
-3.67288
-3.68319
-3.69139
-3.69739
-3.70087
-3.70115
-3.76728
-3.76003
-3.75707
-3.75702
-3.75893
-3.76208
-3.76605
-3.77057
-3.77541
-3.78061
-3.78673
-3.7942
-3.803
-3.81222
-3.82092
-3.82802
-3.83363
-3.83696
-3.83772
-3.9155
-3.90902
-3.90617
-3.90581
-3.90719
-3.90975
-3.91313
-3.91714
-3.92161
-3.92655
-3.93221
-3.93878
-3.94605
-3.95373
-3.96081
-3.96676
-3.97165
-3.9746
-3.97569
-4.06207
-4.05681
-4.05447
-4.05416
-4.05533
-4.05754
-4.06052
-4.06414
-4.06826
-4.07287
-4.07802
-4.08374
-4.08981
-4.09618
-4.1019
-4.10682
-4.11101
-4.11351
-4.11479
-4.2075
-4.20375
-4.20219
-4.20219
-4.20335
-4.20538
-4.20809
-4.21137
-4.21512
-4.21929
-4.22387
-4.2288
-4.2339
-4.23912
-4.24381
-4.24791
-4.2513
-4.25335
-4.25481
-4.35233
-4.35022
-4.34958
-4.35002
-4.3513
-4.35325
-4.35575
-4.3587
-4.36206
-4.36574
-4.36972
-4.37393
-4.3782
-4.38247
-4.38632
-4.38969
-4.39242
-4.39411
-4.3954
-4.49712
-4.49659
-4.49688
-4.49779
-4.49924
-4.50114
-4.50343
-4.50607
-4.50901
-4.51219
-4.51559
-4.51912
-4.52266
-4.52615
-4.52928
-4.53204
-4.53421
-4.53566
-4.53653
-4.64232
-4.64319
-4.64431
-4.64563
-4.64722
-4.64905
-4.65113
-4.65343
-4.65595
-4.65864
-4.66148
-4.66439
-4.66728
-4.67009
-4.67262
-4.67484
-4.67655
-4.67778
-4.6783
-4.78832
-4.79027
-4.79202
-4.79365
-4.7953
-4.79702
-4.79884
-4.8008
-4.80289
-4.8051
-4.8074
-4.80974
-4.81204
-4.81427
-4.81626
-4.81802
-4.81935
-4.82035
-4.82065
-4.93533
-4.93799
-4.94014
-4.94192
-4.94352
-4.94506
-4.94659
-4.94818
-4.94983
-4.95156
-4.95335
-4.95515
-4.95692
-4.95863
-4.96015
-4.96149
-4.96249
-4.96327
-4.96345
-5.0835
-5.08648
-5.08877
-5.09052
-5.09196
-5.09322
-5.09441
-5.09559
-5.09679
-5.09804
-5.09932
-5.10062
-5.1019
-5.10312
-5.10422
-5.10519
-5.1059
-5.10648
-5.10655
-5.2329
-5.23587
-5.23802
-5.23955
-5.24068
-5.24158
-5.24235
-5.24307
-5.2438
-5.24455
-5.24534
-5.24614
-5.24695
-5.24773
-5.24845
-5.24907
-5.24951
-5.24993
-5.24985
-5.38346
-5.38607
-5.38783
-5.38896
-5.38966
-5.3901
-5.39039
-5.39062
-5.39084
-5.39109
-5.39138
-5.3917
-5.39206
-5.39242
-5.39277
-5.39308
-5.39327
-5.39353
-5.3933
-5.53511
-5.53707
-5.53822
-5.53878
-5.53893
-5.53881
-5.53855
-5.53823
-5.53792
-5.53764
-5.53743
-5.53728
-5.53719
-5.53715
-5.53715
-5.53715
-5.53711
-5.53718
-5.53682
-5.6887
-5.68974
-5.69006
-5.68985
-5.68927
-5.68846
-5.68754
-5.68658
-5.68565
-5.6848
-5.68404
-5.68339
-5.68284
-5.6824
-5.68203
-5.68174
-5.68148
-5.68136
-5.68072
)
;

boundaryField
{
    leftWall
    {
        type            calculated;
        value           nonuniform List<scalar> 
50
(
983.649
924.66
866.048
807.499
748.956
690.215
631.834
572.227
495.621
447.694
430.661
406.096
363.002
367.102
348.061
289.598
218.437
123.852
52.8253
23.923
7.84664
-1.26738
-5.54551
-3.9218
-2.93685
-2.36991
-2.28653
-2.55779
-2.54167
-2.79765
-3.93447
-4.75493
-3.55294
0.688999
-0.493553
-1.78359
-1.95304
3.27913
-6.63117
-7.13911
-6.72191
-5.79616
-4.96851
-4.9529
-5.02124
-5.10582
-5.26483
-5.4128
-5.57372
-5.73669
)
;
    }
    rightWall
    {
        type            calculated;
        value           nonuniform List<scalar> 
50
(
258.468
212.115
187.466
175.886
158.881
136.702
111.612
86.0372
50.9334
38.8129
33.4174
29.0317
26.6101
27.5452
33.5213
43.9262
50.1536
39.148
27.3336
20.1917
13.7871
4.94663
-0.185691
-2.02874
-2.20481
-2.36792
-2.53388
-2.68266
-2.81809
-2.94291
-3.06334
-3.1833
-3.30669
-3.43466
-3.56649
-3.70115
-3.83772
-3.97569
-4.11479
-4.25481
-4.3954
-4.53653
-4.6783
-4.82065
-4.96345
-5.10655
-5.24985
-5.3933
-5.53682
-5.68072
)
;
    }
    lowerWall
    {
        type            calculated;
        value           nonuniform List<scalar> 
62
(
1013.08
1011.48
1008.46
1006.05
1000.61
992.638
983.538
966.908
944.195
916.775
886.049
853.007
821.42
797.207
776.351
756.884
751.164
749.893
747.444
747.035
748.487
749.8
750.995
721.566
662.881
604.257
545.647
487.035
428.437
370.05
312.94
269.633
271.684
271.321
260.601
679.115
619.766
561.524
504.436
446.949
387.801
328.908
270.273
708.193
702.024
685.488
669.824
702.583
698.998
617.793
511.829
462.149
464.998
471.292
472.067
483.42
488.859
455.285
371.023
313.732
291.999
282.604
)
;
    }
    atmosphere
    {
        type            calculated;
        value           nonuniform List<scalar> 
46
(
-5.8165
-5.80955
-5.82284
-5.85435
-5.97868
-6.70585
-24.2128
-8.96816
-6.39601
-9.04926
-11.5488
-6.07052
-5.77928
-5.74126
-5.73094
-5.72962
-5.73105
-5.73552
-5.74164
-5.74771
-5.75308
-5.75754
-5.76105
-5.76303
-5.7641
-5.765
-5.76572
-5.76664
-5.7671
-5.7669
-5.7662
-5.76518
-5.76395
-5.76262
-5.76129
-5.76002
-5.75884
-5.75778
-5.75686
-5.75606
-5.7554
-5.75486
-5.75442
-5.75404
-5.75389
-5.75289
)
;
    }
    defaultFaces
    {
        type            empty;
    }
}


// ************************************************************************* //
