/*--------------------------------*- C++ -*----------------------------------*\
| =========                 |                                                 |
| \\      /  F ield         | OpenFOAM: The Open Source CFD Toolbox           |
|  \\    /   O peration     | Version:  2.3.0                                 |
|   \\  /    A nd           | Web:      www.OpenFOAM.org                      |
|    \\/     M anipulation  |                                                 |
\*---------------------------------------------------------------------------*/
FoamFile
{
    version     2.0;
    format      ascii;
    class       surfaceScalarField;
    location    "1.2";
    object      phi;
}
// * * * * * * * * * * * * * * * * * * * * * * * * * * * * * * * * * * * * * //

dimensions      [0 3 -1 0 0 0 0];

internalField   nonuniform List<scalar> 
4432
(
2.99817e-06
-2.99817e-06
5.68208e-06
-2.6839e-06
4.97971e-06
7.02365e-07
1.41122e-06
3.5685e-06
-6.49052e-07
2.06027e-06
1.3572e-06
-2.00626e-06
5.34417e-06
-3.98697e-06
8.47602e-06
-3.13184e-06
1.07313e-05
-2.25527e-06
1.25875e-05
-1.85622e-06
1.49674e-05
-2.37984e-06
1.71176e-05
-2.15021e-06
1.58038e-05
1.31379e-06
8.58348e-06
7.22031e-06
-1.39413e-06
9.97762e-06
-5.17824e-06
3.78412e-06
-2.4787e-06
-2.69953e-06
-1.90744e-07
-2.28796e-06
2.79228e-07
-4.6997e-07
5.63726e-08
2.22857e-07
6.70151e-08
-1.06472e-08
2.70051e-07
-2.03037e-07
2.70048e-07
2.60667e-07
-3.25884e-06
1.57267e-06
-3.99589e-06
1.25354e-06
1.0215e-06
-1.65887e-06
6.4809e-06
-2.59113e-06
2.99254e-06
-3.25093e-09
-4.59414e-06
4.30762e-06
-8.29784e-06
7.75892e-06
-6.58313e-06
9.43721e-06
-3.93355e-06
1.03023e-05
-2.72134e-06
1.1066e-05
-3.14346e-06
1.01676e-05
-1.25187e-06
7.37667e-06
4.10476e-06
2.58049e-06
1.20165e-05
-5.90062e-07
1.31482e-05
1.38476e-06
1.8093e-06
3.59192e-06
-4.90669e-06
4.66147e-06
-3.3575e-06
4.71412e-06
-5.22615e-07
3.77018e-06
1.1668e-06
2.31775e-06
1.44177e-06
1.24213e-06
8.72578e-07
1.51217e-06
-1.66067e-06
-1.59817e-06
-2.51109e-06
-3.14547e-06
-3.16527e-06
1.67569e-06
-3.95204e-06
7.26767e-06
-3.94421e-06
2.98472e-06
-1.66595e-06
-6.8724e-06
2.95845e-06
-1.29222e-05
7.22298e-06
-1.08477e-05
9.56544e-06
-6.27601e-06
1.03384e-05
-3.49429e-06
9.66785e-06
-2.47292e-06
6.87771e-06
1.53827e-06
3.69898e-06
7.2835e-06
2.74032e-06
1.29752e-05
5.67936e-06
1.02092e-05
7.82017e-06
-3.31511e-07
7.44075e-06
-4.52727e-06
6.79691e-06
-2.71365e-06
6.28419e-06
-9.89371e-09
5.28816e-06
2.16283e-06
3.4335e-06
3.29644e-06
1.71043e-06
2.59564e-06
3.2226e-06
-1.63678e-06
3.86094e-08
-3.45793e-06
-1.32432e-06
-4.24865e-06
2.4664e-06
-4.08409e-06
7.10311e-06
-3.71228e-06
2.6129e-06
-1.8565e-06
-8.72817e-06
2.14834e-06
-1.69271e-05
6.64201e-06
-1.53413e-05
9.81491e-06
-9.44891e-06
1.11776e-05
-4.85698e-06
1.07035e-05
-1.99878e-06
9.37572e-06
2.86603e-06
8.36404e-06
8.29518e-06
1.01735e-05
1.11657e-05
1.27644e-05
7.61831e-06
1.20167e-05
4.16168e-07
9.69729e-06
-2.20786e-06
7.87166e-06
-8.88007e-07
6.86267e-06
9.99108e-07
5.74784e-06
3.27765e-06
3.96424e-06
5.08003e-06
1.91551e-06
4.64436e-06
5.1381e-06
-1.0954e-07
1.48149e-07
-1.43657e-06
2.70584e-09
-2.48057e-06
3.5104e-06
-2.1981e-06
6.82063e-06
-1.57966e-06
1.99445e-06
4.82211e-09
-1.03127e-05
2.70545e-06
-1.96277e-05
6.47154e-06
-1.91074e-05
9.83969e-06
-1.28171e-05
1.19056e-05
-6.92291e-06
1.24865e-05
-2.57962e-06
1.30992e-05
2.25331e-06
1.47553e-05
6.63903e-06
1.68512e-05
9.06985e-06
1.67947e-05
7.67474e-06
1.35077e-05
3.70317e-06
9.71495e-06
1.58493e-06
7.41798e-06
1.40897e-06
6.50731e-06
1.90977e-06
5.6538e-06
4.13117e-06
4.235e-06
6.49882e-06
2.06144e-06
6.81792e-06
7.19955e-06
1.81937e-06
-1.67123e-06
1.86732e-06
-4.52512e-08
1.21481e-06
4.1629e-06
1.18802e-06
6.84742e-06
1.91277e-06
1.2697e-06
2.83148e-06
-1.12314e-05
4.63423e-06
-2.14305e-05
7.32843e-06
-2.18016e-05
9.94284e-06
-1.54315e-05
1.22237e-05
-9.20381e-06
1.38823e-05
-4.23817e-06
1.58921e-05
2.43463e-07
1.87783e-05
3.75284e-06
2.0025e-05
7.82317e-06
1.69761e-05
1.07236e-05
1.09451e-05
9.73418e-06
6.18553e-06
6.3445e-06
4.46943e-06
3.12508e-06
4.68072e-06
1.69848e-06
4.82189e-06
3.99e-06
4.00655e-06
7.31415e-06
1.93684e-06
8.88763e-06
9.13639e-06
2.99405e-06
-4.66527e-06
5.25032e-06
-2.30153e-06
5.85482e-06
3.5584e-06
6.05017e-06
6.65206e-06
6.36268e-06
9.57185e-07
6.42237e-06
-1.12911e-05
7.31884e-06
-2.2327e-05
9.10023e-06
-2.3583e-05
1.05882e-05
-1.69195e-05
1.2279e-05
-1.08946e-05
1.44184e-05
-6.37759e-06
1.78907e-05
-3.22887e-06
2.12403e-05
4.0324e-07
2.03288e-05
8.73473e-06
1.27193e-05
1.83331e-05
3.40115e-06
1.90523e-05
-1.21901e-06
1.09647e-05
-6.50748e-07
2.55682e-06
1.81388e-06
-7.66145e-07
3.98326e-06
1.82062e-06
4.18614e-06
7.11127e-06
2.59413e-06
1.04797e-05
1.17305e-05
1.16432e-06
-5.8296e-06
5.0887e-06
-6.22591e-06
9.24458e-06
-5.97477e-07
1.09561e-05
4.9405e-06
1.15418e-05
3.71491e-07
1.10557e-05
-1.08049e-05
1.04631e-05
-2.17345e-05
1.11482e-05
-2.42681e-05
1.20612e-05
-1.78324e-05
1.31463e-05
-1.19797e-05
1.62952e-05
-9.52652e-06
2.10988e-05
-8.03251e-06
2.22004e-05
-6.98359e-07
1.65636e-05
1.43716e-05
4.1716e-06
3.07252e-05
-7.20421e-06
3.04281e-05
-1.00416e-05
1.38021e-05
-8.33436e-06
8.49537e-07
-5.48315e-06
-3.61735e-06
-6.63734e-07
-2.9988e-06
4.44142e-06
2.00613e-06
5.64534e-06
9.27575e-06
1.73759e-05
9.5509e-06
-9.5509e-06
9.64841e-06
-9.74744e-08
-8.0594e-08
9.729e-06
4.08109e-06
-4.1617e-06
2.54317e-05
-2.13506e-05
5.07976e-05
-2.53659e-05
7.00463e-05
-1.92487e-05
7.79753e-05
-7.92897e-06
6.97993e-05
8.176e-06
4.81889e-05
2.16103e-05
2.5922e-05
2.2267e-05
1.22695e-05
1.36525e-05
9.30146e-06
2.96802e-06
1.05476e-05
-1.24612e-06
5.64218e-06
4.90537e-06
-6.59297e-06
1.22351e-05
-1.06131e-05
4.0201e-06
-3.40888e-06
-7.20417e-06
-3.4089e-06
5.82291e-06
-1.53738e-05
4.91416e-06
8.11303e-07
5.03031e-06
9.61285e-06
1.78396e-05
-1.69711e-05
3.55955e-05
-3.91064e-05
5.36048e-05
-4.33752e-05
6.74011e-05
-3.3045e-05
7.65963e-05
-1.71241e-05
8.25355e-05
2.23681e-06
7.9386e-05
2.47598e-05
6.51622e-05
3.64908e-05
4.58006e-05
3.30141e-05
2.85772e-05
2.01914e-05
1.62933e-05
1.10377e-05
3.00052e-06
1.81982e-05
-1.18357e-05
2.70714e-05
-1.44246e-05
6.6089e-06
-9.5013e-07
-2.06786e-05
-4.35904e-06
2.92401e-06
-1.82978e-05
6.37285e-06
-2.63753e-06
1.39552e-05
2.03051e-06
2.57099e-05
-2.87258e-05
3.3565e-05
-4.69615e-05
4.2821e-05
-5.26312e-05
5.41093e-05
-4.43333e-05
6.21249e-05
-2.51398e-05
6.8775e-05
-4.41328e-06
7.44187e-05
1.91161e-05
7.26714e-05
3.82381e-05
5.98487e-05
4.58368e-05
3.99624e-05
4.00777e-05
2.061e-05
3.03901e-05
-1.5711e-08
3.88239e-05
-2.66817e-05
5.37374e-05
-2.56269e-05
5.5541e-06
-1.28547e-06
-4.50201e-05
-5.6445e-06
3.29625e-07
-1.86275e-05
7.09996e-06
-9.40786e-06
2.00399e-05
-1.09094e-05
2.67882e-05
-3.54742e-05
2.35622e-05
-4.37355e-05
2.3797e-05
-5.28659e-05
3.35245e-05
-5.40608e-05
4.29208e-05
-3.45361e-05
5.02705e-05
-1.17629e-05
5.81002e-05
1.12863e-05
6.30148e-05
3.33235e-05
5.77189e-05
5.11327e-05
4.15967e-05
5.62e-05
2.13775e-05
5.06093e-05
-5.51961e-06
6.5721e-05
-4.01576e-05
8.83754e-05
-3.37281e-05
-8.75332e-07
-1.07574e-05
-6.79909e-05
-1.64019e-05
1.62699e-06
-2.02545e-05
1.02044e-05
-1.79853e-05
2.1165e-05
-2.187e-05
2.30929e-05
-3.7402e-05
1.17729e-05
-3.24154e-05
2.55768e-06
-4.36507e-05
9.56643e-06
-6.10696e-05
2.0684e-05
-4.56537e-05
3.02162e-05
-2.12951e-05
4.00606e-05
1.4419e-06
4.80341e-05
2.535e-05
4.71979e-05
5.19688e-05
3.608e-05
6.73179e-05
1.80837e-05
6.86056e-05
-1.81581e-05
0.000101963
-3.95871e-05
0.000109804
-3.09487e-05
-9.51371e-06
-1.70981e-05
-8.18415e-05
-3.35e-05
3.05171e-06
-2.33062e-05
9.75398e-06
-2.46876e-05
1.68642e-05
-2.89802e-05
1.8556e-05
-3.90939e-05
6.96234e-06
-2.08217e-05
-1.21579e-05
-2.45305e-05
-1.4907e-05
-5.83205e-05
-3.87045e-06
-5.66902e-05
7.55423e-06
-3.27198e-05
1.93643e-05
-1.03682e-05
2.975e-05
1.49643e-05
3.16519e-05
5.00669e-05
2.42929e-05
7.46769e-05
1.11071e-06
9.17878e-05
-3.55026e-05
0.000138576
-3.76112e-05
0.000111913
-2.40698e-05
-2.30551e-05
-1.62449e-05
-8.96663e-05
-4.97449e-05
-2.20989e-06
-2.10963e-05
-9.81116e-08
-2.67994e-05
6.96696e-06
-3.60452e-05
1.374e-05
-4.58669e-05
1.43981e-05
-2.14798e-05
-1.12288e-05
1.09651e-06
-3.35447e-05
-3.60047e-05
-3.11536e-05
-5.90814e-05
-1.80447e-05
-4.58286e-05
-3.05429e-06
-2.53587e-05
1.10466e-05
8.63427e-07
1.54561e-05
4.56574e-05
8.42112e-06
8.17119e-05
-1.91074e-05
0.000119316
-4.50809e-05
0.00016455
-3.31825e-05
0.000100015
-1.62468e-05
-3.99907e-05
-1.17113e-05
-9.42018e-05
-6.14562e-05
-1.3082e-05
-8.01421e-06
-1.37423e-05
-2.61391e-05
-4.90789e-06
-4.48797e-05
6.0176e-06
-5.67924e-05
2.48972e-05
-4.03595e-05
1.10868e-05
1.4907e-05
-3.42878e-05
9.36981e-06
-5.05884e-05
-4.27808e-05
-4.23452e-05
-5.40717e-05
-2.28605e-05
-4.48433e-05
-7.194e-06
-1.48031e-05
1.30648e-06
3.7157e-05
-7.46381e-06
9.04822e-05
-3.35437e-05
0.000145396
-4.39069e-05
0.000174913
-2.20713e-05
7.81789e-05
-3.41365e-06
-5.86483e-05
-6.55719e-06
-9.10582e-05
-6.80134e-05
-1.06297e-06
-4.76662e-06
2.65226e-06
-9.94115e-06
1.55255e-05
-1.34707e-05
2.84923e-05
-8.02624e-06
3.62909e-05
-7.4271e-06
3.71791e-05
-1.16931e-05
3.2824e-05
-1.73794e-05
2.9616e-05
-2.10601e-05
2.9818e-05
-1.80345e-05
3.40026e-05
-1.61643e-05
4.11431e-05
-1.6667e-05
4.24061e-05
-9.29555e-06
2.29324e-05
1.87754e-05
-2.98189e-06
4.02858e-05
-2.50575e-05
5.28008e-05
-3.72786e-05
4.26492e-05
-3.83045e-05
1.4828e-05
-3.78426e-05
3.87601e-07
-3.42951e-05
-7.16481e-06
-2.95278e-05
-7.76609e-06
-1.34433e-05
-1.40784e-05
7.34621e-06
-1.15138e-05
2.27391e-06
2.24482e-05
2.98914e-05
-3.4658e-05
1.87832e-05
1.16707e-06
1.01325e-05
-4.8201e-06
1.81741e-05
-1.60678e-05
2.93095e-05
-1.85626e-05
3.97528e-05
-2.21364e-05
4.30898e-05
-2.07165e-05
3.87278e-05
-1.66981e-05
3.55647e-05
-1.48713e-05
3.96616e-05
-2.02612e-05
2.73354e-05
-4.3407e-06
-3.66144e-06
2.17012e-05
-3.39582e-05
4.90721e-05
-5.92595e-05
6.55871e-05
-6.75045e-05
6.10458e-05
-6.85954e-05
4.37401e-05
-7.12547e-05
1.74873e-05
-6.25433e-05
-8.32374e-06
-4.67364e-05
-2.29717e-05
-3.41689e-05
-2.03336e-05
-2.32402e-05
-2.5007e-05
-1.95033e-05
-1.52507e-05
3.93616e-06
-2.11655e-05
5.7024e-05
-9.1682e-05
8.94532e-05
-3.12621e-05
8.1785e-05
2.84814e-06
6.42084e-05
1.50873e-06
5.08152e-05
-5.16929e-06
4.90687e-05
-2.03899e-05
4.85993e-05
-2.02471e-05
3.86535e-05
-6.75236e-06
2.6001e-05
-2.21881e-06
8.58012e-07
4.88169e-06
-4.8053e-05
4.45704e-05
-0.000102582
7.62299e-05
-0.000133924
8.04143e-05
-0.000140074
7.17369e-05
-0.000139679
6.06509e-05
-0.000138365
4.24264e-05
-0.000132867
1.19892e-05
-0.000122369
-1.88217e-05
-9.88557e-05
-4.6485e-05
-5.22124e-05
-6.69769e-05
4.57299e-06
-8.17924e-05
5.06093e-05
-6.12871e-05
-6.95357e-06
6.14991e-05
3.28887e-05
-0.000124571
8.4165e-05
-8.25385e-05
0.000130722
-4.37087e-05
0.000147085
-1.4854e-05
0.000129624
1.22911e-05
9.28123e-05
1.6422e-05
5.69242e-05
1.56409e-05
2.61791e-05
2.39928e-05
-1.00319e-05
3.39921e-05
-7.49665e-05
6.98163e-05
-0.000158596
0.0001282
-0.000205791
0.000123425
-0.000198317
7.29406e-05
-0.00018675
6.017e-05
-0.000177339
5.12403e-05
-0.000173954
3.90414e-05
-0.000173278
1.1313e-05
-0.000181205
-1.08952e-05
-0.000176622
-5.10678e-05
-0.000141634
-0.000101965
-9.38186e-05
-0.000129608
-2.96395e-05
-0.000125466
-8.60183e-05
4.94252e-05
-1.22759e-05
-0.000112295
-6.0403e-06
-8.87741e-05
7.5781e-06
-5.73271e-05
1.85159e-05
-2.57918e-05
2.82046e-05
2.60246e-06
2.53202e-05
1.93064e-05
1.01012e-05
3.08599e-05
-1.1752e-05
4.5846e-05
-5.06628e-05
7.29029e-05
-0.000117606
0.00013676
-0.000192112
0.000202706
-0.000198925
0.000130237
-0.000184039
5.80547e-05
-0.000168281
4.44115e-05
-0.000156048
3.90073e-05
-0.000148198
3.11917e-05
-0.000132365
-4.52046e-06
-0.000129727
-1.35332e-05
-0.000144915
-3.58796e-05
-0.000154706
-9.2173e-05
-0.000143611
-0.000140703
-0.000123093
-0.000145985
-0.000124545
-8.45663e-05
-3.62748e-05
-7.602e-05
-5.63212e-05
-6.87277e-05
-5.82275e-05
-5.54208e-05
-5.35133e-05
-3.0506e-05
-4.98014e-05
-1.10938e-06
-4.83321e-05
1.7837e-05
-5.50291e-05
3.75569e-05
-7.42374e-05
6.50543e-05
-0.000112836
0.000111502
-0.000168322
0.000192246
-0.000181158
0.000215541
-0.000167648
0.000116728
-0.000144834
3.52406e-05
-0.000101183
7.60808e-07
-4.10805e-05
-2.10954e-05
9.00941e-06
-1.88979e-05
2.56819e-05
-2.11929e-05
1.58053e-05
-3.65691e-06
-2.61927e-05
6.11817e-06
-9.70696e-05
-2.1296e-05
-0.000129251
-0.000108521
-0.000146529
-0.000128707
-0.000120975
-0.000150099
-2.47134e-05
-5.13066e-05
-6.55463e-05
-2.78949e-05
-9.65643e-05
-2.44028e-05
-0.000109152
-1.79181e-05
-0.000115529
5.26751e-06
-0.000116925
1.92332e-05
-0.00011804
3.8672e-05
-0.000126206
7.32202e-05
-0.000148288
0.000133583
-0.00017564
0.000219598
-0.00015153
0.000191431
-0.000112055
7.72527e-05
-6.11758e-05
-1.56386e-05
-7.17574e-06
-5.32398e-05
1.79748e-05
-4.62461e-05
3.36165e-05
-3.454e-05
4.11642e-05
-2.87409e-05
5.4067e-05
-1.65597e-05
6.02139e-05
-2.8909e-08
3.96357e-05
-7.1786e-07
-4.1646e-05
-2.72396e-05
-0.000115135
-5.52175e-05
-0.000102563
-0.000133547
2.19023e-05
-7.32089e-05
7.89812e-06
-1.38907e-05
-5.45246e-05
3.802e-05
-0.000114568
4.21258e-05
-0.000132071
2.27699e-05
-0.000123537
1.0699e-05
-0.000119201
3.43364e-05
-0.000119104
7.31226e-05
-0.000123591
0.000138071
-9.58959e-05
0.000191903
-6.06606e-05
0.000156196
-4.23557e-05
5.89484e-05
-2.5244e-05
-3.27499e-05
-3.22583e-06
-7.52577e-05
1.71023e-05
-6.65744e-05
2.78425e-05
-4.52805e-05
3.47572e-05
-3.56556e-05
4.55718e-05
-2.73744e-05
6.50424e-05
-1.94997e-05
7.36237e-05
-9.29951e-06
3.93441e-05
7.03983e-06
-2.72717e-05
1.13981e-05
-3.06581e-05
-9.91767e-05
2.11992e-05
-9.44081e-05
6.99589e-05
-6.26504e-05
9.47927e-05
1.31861e-05
7.05394e-05
6.63791e-05
2.04062e-05
7.29032e-05
-1.87708e-05
4.9876e-05
-3.25084e-05
4.80741e-05
-1.81748e-05
5.87889e-05
3.12219e-05
8.86741e-05
9.07178e-05
0.000132407
0.000112181
0.000134732
8.99191e-05
8.121e-05
5.38065e-05
3.36331e-06
4.28016e-05
-6.42525e-05
4.31455e-05
-6.69184e-05
4.65601e-05
-4.86949e-05
5.22151e-05
-4.13105e-05
6.17049e-05
-3.68647e-05
7.18395e-05
-2.96345e-05
8.21579e-05
-1.96182e-05
9.80786e-05
-8.8809e-06
0.000101562
7.91405e-06
7.83524e-06
6.30689e-05
2.74662e-05
-0.000121874
6.48148e-05
-9.99989e-05
0.000121109
-4.31079e-05
0.000148032
3.94563e-05
0.000130905
9.00298e-05
7.39297e-05
0.000106851
3.93733e-05
8.26307e-05
4.9771e-05
4.83912e-05
0.000103862
3.45828e-05
0.000186372
4.98972e-05
0.000232503
8.86021e-05
0.000215177
9.85364e-05
0.000164083
5.44573e-05
0.000111148
-1.13177e-05
8.26879e-05
-3.84585e-05
7.79825e-05
-4.39895e-05
8.52192e-05
-4.8547e-05
9.50085e-05
-4.66538e-05
0.0001018
-3.6426e-05
0.000102826
-2.06447e-05
9.86591e-05
-4.71406e-06
0.000100119
6.45388e-06
4.84317e-06
0.000103111
3.72916e-05
-0.000159166
5.19286e-05
-0.000114636
8.63866e-05
-7.75659e-05
0.000122423
3.41947e-06
0.000133664
7.87889e-05
0.000119894
0.000120621
9.87499e-05
0.000103775
9.14012e-05
5.57399e-05
0.000106694
1.92899e-05
0.000141053
1.55386e-05
0.000181642
4.80128e-05
0.000200629
7.95495e-05
0.00017668
7.8406e-05
0.000134604
3.07588e-05
0.000110822
-1.46766e-05
0.000114378
-4.75449e-05
0.000127697
-6.1866e-05
0.000137851
-5.68081e-05
0.000139965
-3.85404e-05
0.000133663
-1.43421e-05
0.000120157
8.79151e-06
0.00010321
2.34002e-05
2.47509e-05
8.33026e-05
2.35805e-05
-0.000182746
1.23067e-05
-0.000103362
5.03664e-06
-7.02958e-05
7.33614e-05
-6.49053e-05
0.000100687
5.14632e-05
0.000123534
9.7774e-05
0.000133598
9.37116e-05
0.000115535
7.3803e-05
0.000107838
2.6987e-05
0.000107001
1.63751e-05
0.000117085
3.79292e-05
0.000125505
7.11288e-05
0.000115009
8.89029e-05
0.000106045
3.97225e-05
0.000119579
-2.82107e-05
0.000142198
-7.01636e-05
0.000160829
-8.04966e-05
0.000170565
-6.65437e-05
0.000169043
-3.70192e-05
0.000156202
-1.50033e-06
0.000135632
2.93614e-05
0.000111062
4.797e-05
5.01468e-05
8.56658e-05
6.50789e-06
-0.000189254
-2.85365e-07
-9.65688e-05
-3.04859e-05
-4.00954e-05
1.02451e-05
-0.000105637
6.76543e-05
-5.946e-06
0.000106835
5.85932e-05
0.000136598
6.39491e-05
0.000114619
9.57818e-05
7.79197e-05
6.36861e-05
6.07627e-05
3.35322e-05
5.08035e-05
4.78883e-05
2.53476e-05
9.65846e-05
3.68878e-05
7.73631e-05
8.0065e-05
-3.45463e-06
0.000118396
-6.65418e-05
0.000143927
-9.56939e-05
0.000160881
-9.74507e-05
0.000169137
-7.4799e-05
0.000167013
-3.4895e-05
0.00015429
1.1222e-05
0.000131358
5.22931e-05
0.000104166
7.51621e-05
7.75328e-05
7.678e-05
-1.02219e-07
-0.000189152
-2.2497e-05
-7.41742e-05
-1.65656e-06
-6.09357e-05
-3.89959e-06
-0.000103393
2.43991e-05
-3.42446e-05
7.42622e-05
8.72994e-06
8.49909e-05
5.32204e-05
5.06499e-05
0.000130123
-4.11471e-06
0.000118451
-5.18045e-05
8.12222e-05
-9.51894e-05
9.12736e-05
-7.25481e-05
7.39431e-05
-4.68125e-06
9.49653e-06
5.11712e-05
-5.93068e-05
8.31503e-05
-9.85208e-05
0.000103504
-0.000116047
0.00011858
-0.000112526
0.000125893
-8.21122e-05
0.000124835
-3.38368e-05
0.000116373
1.96834e-05
9.85778e-05
7.00885e-05
7.58657e-05
9.78741e-05
0.000100393
5.30058e-05
-1.71693e-05
-0.000171983
-3.33526e-05
-5.79908e-05
-1.08796e-05
-8.34088e-05
2.39022e-06
-0.000116664
-2.97423e-06
-2.88803e-05
-2.40611e-05
2.98168e-05
-7.91586e-05
0.000108318
-0.00012156
0.000172524
-0.000161703
0.000158594
-0.000192481
0.000112
-0.000169106
6.7899e-05
-0.000104062
8.89932e-06
-4.48265e-05
-4.97396e-05
-1.23046e-05
-9.18285e-05
1.15249e-05
-0.00012235
3.12509e-05
-0.000135773
4.5329e-05
-0.000126604
5.22563e-05
-8.90394e-05
5.24733e-05
-3.40538e-05
4.85172e-05
2.36394e-05
3.97807e-05
7.88249e-05
2.72312e-05
0.000110424
0.00011284
1.47843e-05
-9.12186e-06
-0.000162861
-7.86371e-06
-5.9249e-05
-1.93466e-05
-7.19259e-05
-5.0319e-05
-8.56914e-05
-9.5146e-05
1.5947e-05
-0.000168992
0.000103663
-0.000238224
0.00017755
-0.000270218
0.000204519
-0.000270712
0.000159089
-0.000245486
8.67729e-05
-0.000196337
1.875e-05
-0.000149638
-3.77996e-05
-0.000117743
-8.16345e-05
-9.22388e-05
-0.000117333
-7.21834e-05
-0.000142405
-5.6239e-05
-0.000151718
-4.6174e-05
-0.000136669
-4.06426e-05
-9.45708e-05
-3.74291e-05
-3.72673e-05
-3.67822e-05
2.29924e-05
-3.43344e-05
7.63772e-05
-3.26981e-05
0.000108787
0.000110085
-2.99438e-05
-6.88881e-06
-0.000155972
1.26906e-05
-7.88285e-05
-2.69397e-05
-3.22957e-05
-9.31235e-05
-1.95076e-05
-0.000167667
9.04902e-05
-0.000252484
0.000188479
-0.000310416
0.000235482
-0.000320861
0.000214965
-0.00030006
0.000138287
-0.000267421
5.41348e-05
-0.000236015
-1.26572e-05
-0.000209693
-6.41206e-05
-0.000186388
-0.00010494
-0.00016823
-0.00013549
-0.000154679
-0.000155956
-0.000145372
-0.000161025
-0.000139281
-0.000142759
-0.000134031
-9.98211e-05
-0.000127634
-4.36647e-05
-0.000119925
1.52836e-05
-0.000106879
6.33311e-05
-8.93075e-05
9.12162e-05
9.17219e-05
-7.09441e-05
-9.03174e-06
-0.00014694
1.0048e-05
-9.79083e-05
-8.97067e-07
-2.13506e-05
-9.8368e-05
7.79634e-05
-0.000193398
0.000185519
-0.000273527
0.000268609
-0.000318005
0.00027996
-0.000322587
0.000219546
-0.00030914
0.00012484
-0.000294354
3.93489e-05
-0.000278392
-2.86193e-05
-0.000259339
-8.31742e-05
-0.000241943
-0.000122335
-0.000229277
-0.000148156
-0.000221536
-0.000163698
-0.000217236
-0.000165325
-0.000213514
-0.000146481
-0.000206879
-0.000106456
-0.000196162
-5.43817e-05
-0.00017926
-1.61764e-06
-0.000156677
4.07478e-05
-0.000129112
6.36511e-05
6.29177e-05
-0.000100308
-1.24143e-05
-0.000134526
8.66086e-06
-0.000118983
-2.47586e-07
-1.24423e-05
-9.50181e-05
0.000172734
-0.00018649
0.000276991
-0.000258108
0.000340226
-0.000297877
0.00031973
-0.000311489
0.000233158
-0.000316353
0.000129704
-0.000317356
4.03525e-05
-0.000310028
-3.59474e-05
-0.000295916
-9.72868e-05
-0.000280485
-0.000137766
-0.000268993
-0.000159648
-0.000263236
-0.000169455
-0.000260865
-0.000167697
-0.000257683
-0.000149662
-0.000249449
-0.00011469
-0.000234567
-6.92631e-05
-0.000212413
-2.37718e-05
-0.000183714
1.20489e-05
-0.00014998
2.99172e-05
2.93948e-05
-0.000116457
-5.8345e-06
-0.000128692
1.98222e-06
-0.0001268
-1.20757e-05
1.6156e-06
-8.21253e-05
0.000242783
-0.000162819
0.000357685
-0.000227178
0.000404586
-0.00026912
0.000361671
-0.000295521
0.000259559
-0.000315941
0.000150124
-0.000328444
5.28549e-05
-0.000329202
-3.51888e-05
-0.000319036
-0.000107453
-0.000302918
-0.000153884
-0.000288037
-0.000174529
-0.00027914
-0.000178352
-0.000275057
-0.00017178
-0.000270679
-0.00015404
-0.000261294
-0.000124075
-0.000244364
-8.61931e-05
-0.000219728
-4.84078e-05
-0.00018806
-1.96186e-05
-0.000153335
-4.80842e-06
-2.3709e-06
-0.000121569
2.06922e-05
-0.000149384
-9.08988e-06
-9.70178e-05
-1.62951e-05
8.82054e-06
-5.58974e-05
0.000282386
-0.000130577
0.000432364
-0.0001894
0.000463409
-0.000235566
0.000407837
-0.000272087
0.00029608
-0.000302564
0.000180601
-0.000323741
7.40314e-05
-0.000331966
-2.69636e-05
-0.000327121
-0.000112298
-0.000311474
-0.000169532
-0.000291893
-0.00019411
-0.000275938
-0.000194306
-0.000265991
-0.000181728
-0.000258197
-0.000161834
-0.000246951
-0.000135321
-0.000229284
-0.00010386
-0.000204551
-7.314e-05
-0.000174943
-4.92264e-05
-0.000144862
-3.48903e-05
-2.81922e-05
-0.000119041
3.55962e-05
-0.00018498
1.1875e-05
-7.32962e-05
8.82833e-07
1.98123e-05
-1.68862e-05
0.000300155
-9.19431e-05
0.000507421
-0.000146139
0.000517605
-0.000194204
0.000455901
-0.000236181
0.000338057
-0.000272016
0.000216436
-0.000298315
0.00010033
-0.00031262
-1.26592e-05
-0.000315231
-0.000109687
-0.000304535
-0.000180227
-0.000284328
-0.000214318
-0.000262552
-0.000216082
-0.000245154
-0.000199125
-0.00023218
-0.000174809
-0.000218886
-0.000148616
-0.000201692
-0.000121054
-0.000180107
-9.47249e-05
-0.000156088
-7.32447e-05
-0.000132914
-5.80649e-05
-4.80737e-05
-0.000113033
3.71574e-05
-0.000222138
2.42537e-05
-6.03929e-05
5.75357e-06
3.83124e-05
1.54343e-06
0.000304365
-5.6993e-05
0.000565958
-0.000100738
0.00056135
-0.00014273
0.000497893
-0.000183176
0.000378503
-0.000219226
0.000252486
-0.00024719
0.000128293
-0.000267629
7.78008e-06
-0.00027821
-9.91056e-05
-0.000276759
-0.000181679
-0.000262844
-0.000228233
-0.000241784
-0.000237142
-0.000220511
-0.000220398
-0.000203451
-0.000191869
-0.000188885
-0.000163182
-0.000173346
-0.000136592
-0.000155836
-0.000112235
-0.000137401
-9.16795e-05
-0.000119881
-7.55847e-05
-6.35012e-05
-0.000104454
2.03898e-05
-0.000242528
5.96599e-06
-4.5969e-05
-2.32139e-05
6.74922e-05
-3.73129e-05
0.000318464
-4.479e-05
0.000573435
-6.07929e-05
0.000577352
-8.47056e-05
0.000521805
-0.000116106
0.000409903
-0.00014772
0.0002841
-0.000175404
0.000155976
-0.000198637
3.10131e-05
-0.000216281
-8.14611e-05
-0.000225572
-0.000172388
-0.000223083
-0.000230722
-0.00021023
-0.000249996
-0.000191739
-0.000238889
-0.000174339
-0.00020927
-0.000160212
-0.000177309
-0.000147037
-0.000149767
-0.00013345
-0.000125822
-0.000119641
-0.000105489
-0.000106394
-8.88317e-05
-7.55604e-05
-9.43347e-05
-3.80526e-05
-0.000204475
-6.14189e-05
-2.26027e-05
-8.96681e-05
9.57413e-05
-7.63487e-05
0.000305145
-4.51996e-05
0.000542286
-2.51038e-05
0.000557257
-2.34931e-05
0.000520195
-4.00519e-05
0.000426462
-6.40673e-05
0.000308116
-8.97572e-05
0.000181666
-0.000114091
5.53468e-05
-0.000136878
-5.86746e-05
-0.000154941
-0.000154326
-0.000165379
-0.000220284
-0.000165771
-0.000249604
-0.000156283
-0.000248377
-0.000143157
-0.000222396
-0.000131831
-0.000188635
-0.000121895
-0.000159703
-0.000112087
-0.00013563
-0.000102212
-0.000115364
-9.24861e-05
-9.85576e-05
-8.47803e-05
-8.32663e-05
-4.79182e-05
-0.000156557
-9.34062e-05
2.28852e-05
-8.54484e-05
8.77837e-05
-7.28217e-05
0.000292518
-2.78543e-05
0.000497318
1.47362e-05
0.000514666
4.02762e-05
0.000494654
4.22195e-05
0.000424518
2.87547e-05
0.000321581
7.09142e-06
0.000203329
-1.89289e-05
8.13666e-05
-4.6679e-05
-3.09248e-05
-7.31127e-05
-0.000127892
-9.63645e-05
-0.000197033
-0.000111531
-0.000234438
-0.000114482
-0.000245426
-0.000109184
-0.000227694
-0.000102785
-0.000195035
-9.70015e-05
-0.000165486
-9.10561e-05
-0.000141576
-8.47625e-05
-0.000121658
-7.82255e-05
-0.000105094
-9.13512e-05
-7.16547e-05
-1.87564e-05
-0.000137801
-2.5367e-05
2.94959e-05
-4.58621e-05
0.000108279
-3.42792e-05
0.000280935
8.29395e-06
0.000454745
5.60022e-05
0.000466958
9.62469e-05
0.00045441
0.000116063
0.000404702
0.000116174
0.00032147
0.00010136
0.000218143
7.50968e-05
0.00010763
4.19651e-05
2.20681e-06
7.27243e-06
-9.31995e-05
-2.65916e-05
-0.000163169
-5.44358e-05
-0.000206594
-6.9872e-05
-0.00022999
-7.38309e-05
-0.000223735
-7.35296e-05
-0.000195336
-7.24066e-05
-0.000166609
-7.03924e-05
-0.00014359
-6.7474e-05
-0.000124576
-6.38942e-05
-0.000108674
-9.53846e-05
-5.9861e-05
-6.10444e-06
-0.000131696
1.43352e-05
9.05578e-06
-5.85098e-06
0.000128465
4.21712e-06
0.000270867
4.31469e-05
0.000415815
8.79722e-05
0.000422133
0.00013383
0.000408552
0.000166778
0.000371753
0.000180014
0.000308234
0.000173723
0.000224433
0.000151071
0.000130282
0.000117431
3.58468e-05
7.56768e-05
-5.14449e-05
3.34472e-05
-0.000120939
-2.37786e-06
-0.000170769
-2.72085e-05
-0.000205159
-3.96962e-05
-0.000211248
-4.54955e-05
-0.000189537
-4.89335e-05
-0.000163171
-5.06529e-05
-0.000141871
-5.08595e-05
-0.00012437
-4.99596e-05
-0.000109574
-9.70764e-05
-4.82679e-05
-8.65379e-08
-0.00013161
5.28351e-05
-4.38658e-05
4.54246e-05
0.000135875
4.05448e-05
0.000275746
6.87795e-05
0.00038758
0.00010531
0.000385602
0.000148788
0.000365074
0.000186753
0.000333788
0.00020922
0.000285768
0.000211828
0.000221825
0.000195241
0.000146869
0.000163838
6.72501e-05
0.000121919
-9.52628e-06
7.75281e-05
-7.65486e-05
3.83969e-05
-0.000131638
9.08076e-06
-0.000175843
-9.37128e-06
-0.000192796
-2.02554e-05
-0.000178653
-2.7612e-05
-0.000155814
-3.255e-05
-0.000136933
-3.54814e-05
-0.000121438
-3.69089e-05
-0.000108147
-9.67279e-05
-3.72573e-05
1.10938e-05
-0.000142704
4.88026e-05
-8.15748e-05
8.9394e-05
9.52836e-05
7.39183e-05
0.000291222
8.46127e-05
0.000376886
0.000110176
0.000360038
0.000146182
0.000329068
0.000182056
0.000297914
0.000207688
0.000260137
0.000216573
0.000212939
0.000206981
0.000156462
0.00018118
9.30502e-05
0.000144076
2.75781e-05
0.00010301
-3.5483e-05
6.597e-05
-9.45979e-05
3.67644e-05
-0.000146637
1.55429e-05
-0.000171574
1.05799e-06
-0.000164167
-9.23898e-06
-0.000145516
-1.66651e-05
-0.000129507
-2.17772e-05
-0.000116326
-2.51203e-05
-0.000104803
-9.46885e-05
-2.71598e-05
1.68151e-05
-0.000159519
2.27647e-05
-8.75244e-05
8.01702e-05
3.78779e-05
8.07964e-05
0.000290596
8.84929e-05
0.00036919
0.000106395
0.000342136
0.000133875
0.000301588
0.000164002
0.000267787
0.000188016
0.000236123
0.000199276
0.000201679
0.000194851
0.000160886
0.000175724
0.000112177
0.000146191
5.7111e-05
0.000112277
-1.56922e-06
8.12584e-05
-6.35787e-05
5.5728e-05
-0.000121107
3.46134e-05
-0.00015046
1.81841e-05
-0.000147737
5.8859e-06
-0.000133218
-3.31022e-06
-0.000120311
-1.00173e-05
-0.000109619
-1.48299e-05
-9.99909e-05
-9.13091e-05
-1.82094e-05
1.64434e-05
-0.000175962
1.82341e-05
-8.93149e-05
3.9523e-05
1.65891e-05
5.95955e-05
0.000270523
7.83589e-05
0.000350426
9.63202e-05
0.000324175
0.000118391
0.000279517
0.000142528
0.000243651
0.000162312
0.000216339
0.00017247
0.00019152
0.000170518
0.000162839
0.000157066
0.000125629
0.000135226
7.89515e-05
0.000109964
2.36926e-05
8.75725e-05
-4.11874e-05
6.75351e-05
-0.00010107
4.8035e-05
-0.00013096
3.10265e-05
-0.000130729
1.77152e-05
-0.000119907
7.50535e-06
-0.000110101
-2.92383e-07
-0.000101821
-6.14668e-06
-9.41364e-05
-8.69291e-05
-1.05266e-05
-9.40147e-06
-0.000166561
-2.52656e-05
-7.34505e-05
-1.19203e-05
3.24372e-06
2.48171e-05
0.000233785
5.95539e-05
0.000315689
8.33495e-05
0.000300379
0.000104322
0.000258545
0.00012365
0.000224322
0.000138026
0.000201963
0.00014461
0.000184935
0.000142522
0.000164926
0.00013278
0.000135371
0.000117702
9.4029e-05
0.000102176
3.92189e-05
8.91597e-05
-2.81715e-05
7.45193e-05
-8.64292e-05
5.68679e-05
-0.000113308
4.00658e-05
-0.000113927
2.648e-05
-0.000106321
1.58403e-05
-9.9461e-05
7.48734e-06
-9.34677e-05
9.4455e-07
-8.75935e-05
-8.18578e-05
-4.12662e-06
-1.89695e-05
-0.000147592
-3.2503e-05
-5.9917e-05
-2.47384e-05
-4.52095e-06
9.83656e-06
0.00019921
4.64273e-05
0.000279098
7.412e-05
0.000272686
9.44966e-05
0.000238168
0.000109313
0.000209506
0.000117569
0.000193706
0.000118969
0.000183535
0.000114877
0.000169018
0.000107327
0.000142921
9.89618e-05
0.000102394
9.38512e-05
4.43303e-05
8.94466e-05
-2.3767e-05
7.85957e-05
-7.55787e-05
6.21812e-05
-9.68938e-05
4.58887e-05
-9.76348e-05
3.25416e-05
-9.29744e-05
2.1928e-05
-8.88476e-05
1.33945e-05
-8.49341e-05
6.52846e-06
-8.07273e-05
-7.63727e-05
1.04348e-06
-1.94516e-05
-0.00012814
-4.77237e-06
-7.45962e-05
-1.7418e-05
8.12466e-06
2.28564e-05
0.000158935
5.69963e-05
0.000244958
7.7308e-05
0.000252374
9.07358e-05
0.00022474
9.88903e-05
0.000201351
0.000100059
0.000192538
9.51297e-05
0.000188464
8.79137e-05
0.000176234
8.24368e-05
0.000148399
8.26369e-05
0.000102193
8.8658e-05
3.83088e-05
9.03855e-05
-2.54948e-05
8.0753e-05
-6.59463e-05
6.46431e-05
-8.0784e-05
4.89714e-05
-8.19633e-05
3.62464e-05
-8.02493e-05
2.60281e-05
-7.86292e-05
1.76367e-05
-7.65426e-05
1.07115e-05
-7.3802e-05
-7.07136e-05
5.0526e-06
-2.27961e-05
-0.000105344
-2.28238e-05
-7.45686e-05
-1.88852e-05
4.18605e-06
4.68808e-05
9.31693e-05
9.11943e-05
0.000200645
0.000102333
0.000241236
9.8793e-05
0.00022828
9.32247e-05
0.000206919
8.45683e-05
0.000201194
7.22115e-05
0.000200821
6.12944e-05
0.000187151
5.92304e-05
0.000150462
7.17098e-05
8.97145e-05
8.85677e-05
2.14508e-05
9.19158e-05
-2.88432e-05
8.06347e-05
-5.46654e-05
6.42663e-05
-6.44158e-05
4.95448e-05
-6.7242e-05
3.78442e-05
-6.85489e-05
2.83223e-05
-6.91072e-05
2.03019e-05
-6.85221e-05
1.35176e-05
-6.70176e-05
-6.50679e-05
7.87196e-06
-1.20319e-05
-9.33121e-05
-1.86641e-05
-6.79364e-05
1.47717e-05
-2.92496e-05
5.84361e-05
4.95047e-05
0.000116791
0.000142289
0.000136166
0.000221861
0.000120874
0.000243571
9.55871e-05
0.000232206
7.19007e-05
0.00022488
4.96073e-05
0.000223114
3.01902e-05
0.000206568
3.37744e-05
0.000146878
6.64506e-05
5.70381e-05
9.13423e-05
-3.44127e-06
9.06085e-05
-2.81097e-05
7.65155e-05
-4.05726e-05
6.07168e-05
-4.86174e-05
4.7727e-05
-5.42522e-05
3.74357e-05
-5.82574e-05
2.87697e-05
-6.0441e-05
2.1236e-05
-6.09884e-05
1.47548e-05
-6.05364e-05
-5.9641e-05
9.32789e-06