/*--------------------------------*- C++ -*----------------------------------*\
| =========                 |                                                 |
| \\      /  F ield         | OpenFOAM: The Open Source CFD Toolbox           |
|  \\    /   O peration     | Version:  2.3.0                                 |
|   \\  /    A nd           | Web:      www.OpenFOAM.org                      |
|    \\/     M anipulation  |                                                 |
\*---------------------------------------------------------------------------*/
FoamFile
{
    version     2.0;
    format      ascii;
    class       volVectorField;
    location    "1.2";
    object      U;
}
// * * * * * * * * * * * * * * * * * * * * * * * * * * * * * * * * * * * * * //

dimensions      [0 1 -1 0 0 0 0];

internalField   nonuniform List<vector> 
2268
(
(0.0169964 -0.0146227 0)
(0.0497674 -0.0147457 0)
(0.076393 -0.00176625 0)
(0.0442547 0.00853719 0)
(-0.0127433 0.00895796 0)
(-0.00376603 -0.00360889 0)
(0.0379583 -0.00972342 0)
(0.0820016 -0.00851622 0)
(0.110955 -0.00745969 0)
(0.132814 -0.00647247 0)
(0.154652 -0.00807395 0)
(0.180383 -0.0127531 0)
(0.199701 -0.0105741 0)
(0.166253 0.00946331 0)
(0.0278408 0.0330403 0)
(-0.067561 0.0173879 0)
(-0.0397578 -0.00955103 0)
(-0.0104026 -0.00849149 0)
(0.00447114 -0.00192818 0)
(0.00234243 -0.00182753 0)
(-0.000450242 -0.00389239 0)
(0.00237368 -0.00339065 0)
(0.00491809 -0.000853845 0)
(0.00398287 -0.0198581 0)
(0.0014215 -0.0180005 0)
(0.0314142 0.00647109 0)
(0.00112821 0.0286082 0)
(-0.0419709 0.015184 0)
(-0.0194263 -0.016953 0)
(0.0218302 -0.0321208 0)
(0.0747132 -0.0253946 0)
(0.101608 -0.0166931 0)
(0.112643 -0.0135452 0)
(0.122821 -0.0182303 0)
(0.125078 -0.0130757 0)
(0.0977945 0.0199012 0)
(0.0743179 0.060448 0)
(-0.016285 0.0694671 0)
(-0.00308749 0.0183064 0)
(0.040022 -0.023332 0)
(0.0480221 -0.0180829 0)
(0.0545498 -0.00360405 0)
(0.0517632 0.0042832 0)
(0.0369864 0.00375611 0)
(0.0178914 0.00127286 0)
(0.0128959 0.00406444 0)
(-0.00899106 -0.0135288 0)
(-0.028154 -0.0216335 0)
(-0.0283123 0.00745155 0)
(-0.0396273 0.0389406 0)
(-0.0543175 0.0156413 0)
(-0.0359087 -0.0320794 0)
(0.0041489 -0.0581622 0)
(0.0630019 -0.0460185 0)
(0.100501 -0.0261551 0)
(0.116254 -0.0160406 0)
(0.117879 -0.0151277 0)
(0.0995573 0.00182912 0)
(0.0540967 0.0325241 0)
(0.0291188 0.0748541 0)
(0.0312436 0.0667146 0)
(0.0938214 6.92223e-05 0)
(0.0965061 -0.0281969 0)
(0.0794757 -0.0184235 0)
(0.0730781 -0.00249788 0)
(0.0689319 0.00850955 0)
(0.0542721 0.0124665 0)
(0.026089 0.00869 0)
(0.0157005 0.0123966 0)
(-0.00705393 -0.00279605 0)
(-0.0276184 -0.0112157 0)
(-0.0467093 0.0120912 0)
(-0.0497628 0.0396248 0)
(-0.0494571 0.0138549 0)
(-0.0340108 -0.0445882 0)
(-0.00144583 -0.0831986 0)
(0.0510128 -0.0713885 0)
(0.0982651 -0.0417464 0)
(0.123521 -0.0215648 0)
(0.12788 -0.0108448 0)
(0.115406 0.0138302 0)
(0.0943113 0.0437352 0)
(0.0921914 0.0659724 0)
(0.133487 0.0457877 0)
(0.156233 -0.002041 0)
(0.129575 -0.0188573 0)
(0.0974991 -0.0101902 0)
(0.0818246 0.00272409 0)
(0.0734745 0.0150186 0)
(0.0597884 0.0230716 0)
(0.0327635 0.0193022 0)
(0.0136874 0.0224536 0)
(0.000546086 0.00330078 0)
(-0.00237059 -0.00177044 0)
(-0.0262774 0.0165075 0)
(-0.030972 0.0372452 0)
(-0.0256506 0.0113837 0)
(-0.00992979 -0.0537635 0)
(0.0132486 -0.100502 0)
(0.0501093 -0.0953619 0)
(0.0949821 -0.0609073 0)
(0.126966 -0.0312706 0)
(0.140926 -0.0107749 0)
(0.142641 0.0160172 0)
(0.152081 0.04279 0)
(0.176459 0.0547783 0)
(0.200639 0.0390171 0)
(0.184092 0.0079637 0)
(0.133557 -0.0036152 0)
(0.0941427 0.000821429 0)
(0.076846 0.00813565 0)
(0.0703028 0.0205224 0)
(0.0605575 0.0317855 0)
(0.0382952 0.030734 0)
(0.0112926 0.0324796 0)
(0.0145473 -0.0020889 0)
(0.0314092 0.00096239 0)
(0.0177008 0.0221676 0)
(0.00913423 0.0368741 0)
(0.0138061 0.00803364 0)
(0.0284245 -0.0599854 0)
(0.042322 -0.111234 0)
(0.0674511 -0.111001 0)
(0.096646 -0.0778924 0)
(0.12696 -0.0442925 0)
(0.148567 -0.0178536 0)
(0.165715 0.00830618 0)
(0.193075 0.0302848 0)
(0.224371 0.0453302 0)
(0.22551 0.0469826 0)
(0.167547 0.0329268 0)
(0.0906841 0.0212597 0)
(0.0554535 0.0141913 0)
(0.0495693 0.0110691 0)
(0.0556158 0.02166 0)
(0.0559647 0.0366258 0)
(0.0378587 0.0420138 0)
(0.00840172 0.045308 0)
(0.0159012 -0.0127541 0)
(0.05866 -0.000660007 0)
(0.0713496 0.0231406 0)
(0.0633601 0.0352006 0)
(0.0650975 0.00444672 0)
(0.0756192 -0.0629604 0)
(0.0794808 -0.121159 0)
(0.0944669 -0.122465 0)
(0.109973 -0.0876689 0)
(0.127881 -0.0550799 0)
(0.149333 -0.0281345 0)
(0.178054 -0.00519759 0)
(0.22349 0.0130652 0)
(0.247496 0.0403325 0)
(0.209691 0.069188 0)
(0.0896763 0.0752994 0)
(-0.00798622 0.0514017 0)
(-0.0169952 0.0212389 0)
(0.00220038 0.00864368 0)
(0.0369855 0.0236633 0)
(0.0555881 0.0414907 0)
(0.0437279 0.0522744 0)
(0.0141862 0.0533439 0)
(-0.00367023 -0.0314061 0)
(0.0341592 -0.0230172 0)
(0.0948032 0.0176388 0)
(0.117611 0.0393817 0)
(0.122703 0.00735836 0)
(0.133499 -0.0609412 0)
(0.12797 -0.123054 0)
(0.11936 -0.134124 0)
(0.132442 -0.0952957 0)
(0.139473 -0.0622401 0)
(0.158462 -0.04086 0)
(0.212498 -0.0319888 0)
(0.256157 -0.0105467 0)
(0.236126 0.0484633 0)
(0.13724 0.121894 0)
(-0.036745 0.129442 0)
(-0.115893 0.0711742 0)
(-0.104307 0.0119392 0)
(-0.0852051 -0.0151638 0)
(-0.0456662 -0.00550315 0)
(0.033347 0.0304122 0)
(0.0742866 0.0624739 0)
(0.0425273 0.0816458 0)
(0.0567152 -0.0369275 0)
(0.173979 -0.0163312 0)
(0.027053 0.0225058 0)
(-0.035199 0.00126505 0)
(0.162714 -0.063016 0)
(0.426835 -0.0796482 0)
(0.680241 -0.064171 0)
(0.881596 -0.0251124 0)
(0.913346 0.0334075 0)
(0.706661 0.0767105 0)
(0.392135 0.0624561 0)
(0.194035 0.0206321 0)
(0.113828 -0.0173761 0)
(0.120844 -0.0205059 0)
(0.117628 0.0106818 0)
(-0.0143516 0.0320114 0)
(-0.127535 0.00756639 0)
(-0.0851849 -0.0163986 0)
(0.000250255 -0.0132179 0)
(0.00700564 -0.0621809 0)
(0.131571 0.0129843 0)
(-0.0304681 0.0590291 0)
(0.131067 -0.0527166 0)
(0.321654 -0.163211 0)
(0.4989 -0.185664 0)
(0.687991 -0.139551 0)
(0.821431 -0.0669556 0)
(0.937547 0.0247329 0)
(0.969473 0.119792 0)
(0.843264 0.157673 0)
(0.635881 0.123158 0)
(0.437202 0.0547469 0)
(0.243274 0.0114692 0)
(0.121326 0.0514289 0)
(-0.0725156 0.0803972 0)
(-0.189584 0.0274926 0)
(-0.0861459 -0.0394119 0)
(0.0508539 -0.0270824 0)
(0.00252741 -0.0848059 0)
(0.0699004 -4.33199e-05 0)
(0.0640944 0.0408501 0)
(0.251212 -0.111523 0)
(0.366046 -0.223859 0)
(0.407765 -0.248708 0)
(0.536886 -0.193823 0)
(0.674699 -0.105018 0)
(0.755376 -0.00828872 0)
(0.834763 0.105479 0)
(0.865932 0.186347 0)
(0.785385 0.19848 0)
(0.605099 0.14971 0)
(0.334003 0.0987783 0)
(0.118423 0.13392 0)
(-0.145748 0.199581 0)
(-0.379397 0.0567316 0)
(-0.142718 -0.157083 0)
(0.0829812 -0.00572295 0)
(-0.0118998 -0.0884198 0)
(0.0210994 -0.0228597 0)
(0.141174 -0.0184186 0)
(0.304891 -0.161036 0)
(0.329501 -0.230634 0)
(0.216089 -0.263654 0)
(0.293786 -0.240707 0)
(0.452146 -0.144634 0)
(0.546007 -0.0367735 0)
(0.620504 0.0764655 0)
(0.704422 0.177031 0)
(0.724226 0.238319 0)
(0.619797 0.234219 0)
(0.360136 0.198255 0)
(0.092594 0.241552 0)
(-0.294281 0.356156 0)
(-0.505391 0.0128359 0)
(-0.236784 -0.281484 0)
(-0.0576876 -0.0341664 0)
(-0.00703252 -0.0864454 0)
(0.0484424 -0.0651089 0)
(0.186158 -0.0875966 0)
(0.287289 -0.180743 0)
(0.259186 -0.189534 0)
(0.0188874 -0.239416 0)
(0.0172426 -0.290481 0)
(0.188369 -0.200715 0)
(0.30698 -0.0817378 0)
(0.401708 0.0285184 0)
(0.504355 0.138649 0)
(0.576293 0.246809 0)
(0.531846 0.299601 0)
(0.327735 0.285778 0)
(0.0391116 0.387913 0)
(-0.467776 0.517319 0)
(-0.415631 -0.0253468 0)
(-0.250953 -0.371641 0)
(-0.167291 -0.120559 0)
(0.0202283 -0.109397 0)
(0.0561196 -0.116691 0)
(0.164234 -0.129328 0)
(0.219078 -0.184353 0)
(0.224959 -0.124402 0)
(-0.0652442 -0.183699 0)
(-0.235891 -0.302671 0)
(-0.118093 -0.252843 0)
(0.0323444 -0.128294 0)
(0.155562 -0.0168187 0)
(0.272646 0.0982784 0)
(0.381801 0.246052 0)
(0.378515 0.345734 0)
(0.209 0.37779 0)
(-0.211332 0.602433 0)
(-0.572354 0.548036 0)
(-0.32158 -0.099447 0)
(-0.176735 -0.423609 0)
(-0.19853 -0.212537 0)
(-0.0043951 -0.126774 0)
(-0.0467133 -0.124588 0)
(0.0447373 -0.146604 0)
(0.113958 -0.19627 0)
(0.234184 -0.0763236 0)
(0.0706476 -0.0646429 0)
(-0.342231 -0.241704 0)
(-0.423209 -0.271615 0)
(-0.281594 -0.17759 0)
(-0.118908 -0.084501 0)
(0.0429944 0.0531065 0)
(0.185165 0.237574 0)
(0.206132 0.379882 0)
(0.000859322 0.510451 0)
(-0.495637 0.735898 0)
(-0.534167 0.434032 0)
(-0.237609 -0.215091 0)
(-0.0823594 -0.472165 0)
(-0.162879 -0.281947 0)
(-0.11231 -0.0662464 0)
(-0.193824 -0.117652 0)
(-0.115962 -0.19316 0)
(0.00325132 -0.241289 0)
(0.162507 -0.135481 0)
(0.379156 0.0928074 0)
(-0.160759 -0.0828248 0)
(-0.594789 -0.267046 0)
(-0.568312 -0.245293 0)
(-0.387957 -0.173045 0)
(-0.159779 -0.0654842 0)
(-0.00769233 0.18371 0)
(0.0489463 0.40439 0)
(-0.209337 0.644464 0)
(-0.624553 0.822334 0)
(-0.397967 0.426021 0)
(-0.0745389 -0.205801 0)
(-0.0145034 -0.496083 0)
(-0.0810568 -0.33151 0)
(-0.00834475 -0.0539565 0)
(-0.00195575 -0.0686728 0)
(0.0379584 -0.048609 0)
(0.122383 -0.00511176 0)
(0.176617 -0.00376144 0)
(0.20679 -0.0413535 0)
(0.199586 -0.098617 0)
(0.162551 -0.128501 0)
(0.156518 -0.103782 0)
(0.161656 -0.0741312 0)
(0.201608 -0.0734265 0)
(0.237385 -0.0646604 0)
(0.190336 0.0116417 0)
(0.0487521 0.118865 0)
(-0.0672951 0.219131 0)
(-0.187589 0.184668 0)
(-0.208387 0.0466079 0)
(-0.197703 -0.0201795 0)
(-0.197997 -0.0441131 0)
(-0.181349 -0.0466184 0)
(-0.117471 -0.0359524 0)
(-0.0189981 0.00483987 0)
(0.0863905 0.0858806 0)
(0.148071 0.0154366 0)
(0.145815 -0.0317138 0)
(0.0317486 -0.110982 0)
(0.0740114 -0.0826197 0)
(0.126245 -0.0701526 0)
(0.190686 -0.0802572 0)
(0.239756 -0.0856253 0)
(0.230432 -0.0951527 0)
(0.192382 -0.0957264 0)
(0.193393 -0.113437 0)
(0.219882 -0.130514 0)
(0.0507219 -0.0534167 0)
(-0.117507 0.166114 0)
(-0.229325 0.325383 0)
(-0.360049 0.356777 0)
(-0.374359 0.274181 0)
(-0.380926 0.13243 0)
(-0.377125 0.0342339 0)
(-0.296544 -0.0123522 0)
(-0.196433 -0.0129323 0)
(-0.148473 -0.0835305 0)
(-0.109778 -0.0994561 0)
(-0.121848 -0.0484595 0)
(0.106685 -0.376021 0)
(0.477712 0.0634768 0)
(0.469665 0.118621 0)
(0.366232 -0.0346543 0)
(0.302768 -0.118962 0)
(0.266724 -0.164889 0)
(0.271832 -0.146157 0)
(0.251393 -0.0869518 0)
(0.17585 -0.0674502 0)
(0.11333 -0.0987377 0)
(-0.112877 0.092076 0)
(-0.45883 0.33273 0)
(-0.65427 0.430606 0)
(-0.727292 0.420698 0)
(-0.763602 0.363459 0)
(-0.747026 0.274612 0)
(-0.728131 0.109789 0)
(-0.703465 -0.0873444 0)
(-0.620159 -0.195655 0)
(-0.407165 -0.192312 0)
(-0.15782 -0.220691 0)
(0.170115 -0.0972984 0)
(0.380119 0.118552 0)
(-0.00202383 -0.693993 0)
(0.294972 -0.486777 0)
(0.597431 -0.147056 0)
(0.730501 0.00673611 0)
(0.834302 0.0700003 0)
(0.61988 0.00202952 0)
(0.377861 -0.0290071 0)
(0.225623 0.0333122 0)
(0.0785687 0.0597423 0)
(-0.17786 0.184092 0)
(-0.681121 0.453958 0)
(-1.08484 0.579062 0)
(-1.065 0.423902 0)
(-1.03111 0.354804 0)
(-0.973981 0.267656 0)
(-0.935403 0.133535 0)
(-0.930481 -0.0337207 0)
(-0.965091 -0.201831 0)
(-0.976937 -0.375458 0)
(-0.865961 -0.558571 0)
(-0.654853 -0.647943 0)
(-0.376962 -0.574872 0)
(0.0147046 -0.244581 0)
(-0.0805823 -0.657405 0)
(-0.0837512 -0.462046 0)
(0.0222109 -0.299204 0)
(0.0497241 -0.130277 0)
(0.148089 0.038454 0)
(0.152649 0.11689 0)
(0.106162 0.144647 0)
(0.0102685 0.175556 0)
(-0.121991 0.252636 0)
(-0.435486 0.519743 0)
(-0.934662 0.849124 0)
(-1.0577 0.561882 0)
(-1.02394 0.288302 0)
(-0.936204 0.221356 0)
(-0.87369 0.202386 0)
(-0.818955 0.181975 0)
(-0.757976 0.0994776 0)
(-0.68135 -0.009712 0)
(-0.72842 -0.286613 0)
(-0.79484 -0.61384 0)
(-0.821379 -0.786423 0)
(-0.742672 -0.794161 0)
(-0.629597 -0.630648 0)
(-0.08213 -0.448378 0)
(-0.305935 -0.382187 0)
(-0.340949 -0.303091 0)
(-0.301412 -0.175251 0)
(-0.275461 -0.0278721 0)
(-0.256549 0.0860931 0)
(-0.259822 0.167872 0)
(-0.323381 0.290576 0)
(-0.468471 0.521686 0)
(-0.755174 0.928784 0)
(-1.03615 1.15432 0)
(-0.923435 0.596994 0)
(-0.875233 0.272794 0)
(-0.689269 0.220842 0)
(-0.464467 0.196949 0)
(-0.0110767 0.169493 0)
(0.171219 -0.0559772 0)
(0.107256 -0.00639974 0)
(-0.00154334 -0.0493179 0)
(-0.306627 -0.386726 0)
(-0.638587 -0.717028 0)
(-0.771248 -0.759421 0)
(-0.812426 -0.663484 0)
(0.0690406 -0.303448 0)
(-0.27758 -0.283008 0)
(-0.487105 -0.224685 0)
(-0.582254 -0.10214 0)
(-0.604728 0.0323618 0)
(-0.625557 0.146699 0)
(-0.620744 0.287822 0)
(-0.632846 0.478507 0)
(-0.725522 0.766702 0)
(-0.911373 1.19989 0)
(-0.955042 1.25854 0)
(-0.679288 0.712869 0)
(-0.472974 0.104755 0)
(-0.132974 -0.194625 0)
(0.0311107 -0.323072 0)
(0.142361 -0.252672 0)
(0.201798 -0.161551 0)
(0.253108 -0.0143232 0)
(0.316988 0.150594 0)
(0.366941 0.134049 0)
(0.00677901 -0.354873 0)
(-0.501116 -0.540755 0)
(-0.68317 -0.629499 0)
(0.137379 -0.305373 0)
(0.173007 0.0172956 0)
(-0.0909701 0.0274063 0)
(-0.595777 -0.0482615 0)
(-0.683693 0.0469868 0)
(-0.674049 0.120517 0)
(-0.656567 0.228848 0)
(-0.642279 0.457818 0)
(-0.669939 0.822626 0)
(-0.680338 1.15912 0)
(-0.434276 0.93976 0)
(-0.186177 0.356293 0)
(-0.112578 -0.237642 0)
(-0.0903501 -0.377215 0)
(0.0425086 -0.295752 0)
(0.119086 -0.212504 0)
(0.163764 -0.186025 0)
(0.212556 -0.156128 0)
(0.295317 -0.137116 0)
(0.37606 -0.0701142 0)
(0.412697 0.0436261 0)
(0.0157781 -0.08762 0)
(-0.399668 -0.478286 0)
(0.0271084 -0.455712 0)
(0.240852 -0.207112 0)
(0.501396 0.25451 0)
(0.355828 0.390596 0)
(0.292708 0.21248 0)
(-0.0305806 -0.0123726 0)
(-0.162352 0.129187 0)
(-0.0522157 0.295266 0)
(-0.0946433 0.598272 0)
(0.225341 0.930785 0)
(0.668513 0.803514 0)
(0.698774 0.347195 0)
(0.450754 -0.165027 0)
(0.247859 -0.44141 0)
(0.194675 -0.390685 0)
(0.226586 -0.258643 0)
(0.260252 -0.201638 0)
(0.304303 -0.161559 0)
(0.359889 -0.117222 0)
(0.416378 -0.0775262 0)
(0.47203 -0.00879121 0)
(0.557325 0.143398 0)
(0.481727 0.122445 0)
(-0.000898016 -0.582706 0)
(0.247874 -0.514072 0)
(0.494302 -0.107066 0)
(0.715608 0.348605 0)
(0.816806 0.499812 0)
(0.621865 0.474867 0)
(0.219619 0.295665 0)
(0.229463 0.187614 0)
(0.338686 0.221569 0)
(0.664833 0.416561 0)
(1.15609 0.601932 0)
(1.37935 0.569462 0)
(1.13004 0.239027 0)
(0.708503 -0.173653 0)
(0.447865 -0.291977 0)
(0.401378 -0.248332 0)
(0.434818 -0.232811 0)
(0.487563 -0.219145 0)
(0.53463 -0.177175 0)
(0.557869 -0.10907 0)
(0.545927 -0.0460335 0)
(0.525648 -0.0107921 0)
(0.539028 -0.0257737 0)
(-0.0845239 -0.784427 0)
(0.367532 -0.638099 0)
(0.305877 -0.363003 0)
(0.589487 0.0885916 0)
(0.78315 0.437131 0)
(0.71926 0.647657 0)
(0.513963 0.562996 0)
(0.507479 0.294331 0)
(0.511316 0.106135 0)
(0.598438 0.119349 0)
(0.861744 0.332586 0)
(1.12075 0.486593 0)
(1.09455 0.393143 0)
(0.79117 0.0871564 0)
(0.586068 -0.104281 0)
(0.580155 -0.215718 0)
(0.653291 -0.279831 0)
(0.722706 -0.270255 0)
(0.757071 -0.199654 0)
(0.745797 -0.0965086 0)
(0.691339 0.00588905 0)
(0.606636 0.0740977 0)
(0.500337 0.0715469 0)
(-0.156889 -0.941434 0)
(0.336247 -0.608367 0)
(-0.198465 -0.410948 0)
(0.264215 0.0041727 0)
(0.558026 0.439455 0)
(0.618609 0.642785 0)
(0.664051 0.548009 0)
(0.70045 0.341121 0)
(0.586536 0.125723 0)
(0.529717 0.0506835 0)
(0.618849 0.205652 0)
(0.737009 0.359878 0)
(0.680886 0.429967 0)
(0.493181 0.246075 0)
(0.560281 -0.0472267 0)
(0.705635 -0.287947 0)
(0.823589 -0.377298 0)
(0.90016 -0.333284 0)
(0.925408 -0.206706 0)
(0.890519 -0.0476511 0)
(0.797699 0.0937928 0)
(0.670942 0.185625 0)
(0.529604 0.19746 0)
(-0.180419 -0.988779 0)
(0.210334 -0.493023 0)
(-0.185851 -0.395735 0)
(-0.128337 -0.56497 0)
(0.262205 0.250271 0)
(0.464573 0.483935 0)
(0.642455 0.458707 0)
(0.786992 0.458927 0)
(0.506448 0.207586 0)
(0.29062 0.178394 0)
(0.310329 0.284895 0)
(0.287313 0.463046 0)
(0.0624064 0.535088 0)
(0.264893 0.182174 0)
(0.533738 -0.235886 0)
(0.713225 -0.453227 0)
(0.823214 -0.487487 0)
(0.89069 -0.387814 0)
(0.91312 -0.199236 0)
(0.883859 0.0256835 0)
(0.789868 0.215662 0)
(0.646803 0.32737 0)
(0.488879 0.342401 0)
(-0.206773 -1.00207 0)
(0.200654 -0.45221 0)
(-0.275773 -0.146817 0)
(0.038892 -0.737196 0)
(-0.00170411 -0.247831 0)
(0.292396 0.229662 0)
(0.47751 0.308127 0)
(0.551773 0.522643 0)
(0.0243217 0.46705 0)
(-0.14984 0.264806 0)
(-0.383129 0.387389 0)
(-0.50689 0.598571 0)
(-0.242589 0.293951 0)
(0.150551 -0.206308 0)
(0.36135 -0.469852 0)
(0.503315 -0.579442 0)
(0.591008 -0.572986 0)
(0.653532 -0.437895 0)
(0.678755 -0.203857 0)
(0.66623 0.0790511 0)
(0.608287 0.322173 0)
(0.493345 0.463409 0)
(0.351078 0.481063 0)
(-0.24332 -1.00444 0)
(0.140747 -0.343502 0)
(-0.350476 -0.478554 0)
(0.0991114 -0.568951 0)
(0.00186768 -0.290427 0)
(-0.110603 -0.120741 0)
(-0.213068 0.339493 0)
(-0.402084 0.837199 0)
(-0.90297 0.782926 0)
(-0.995911 0.588124 0)
(-1.00139 0.493456 0)
(-0.742691 0.216517 0)
(-0.365588 -0.182948 0)
(-0.158247 -0.434441 0)
(-0.00365176 -0.607435 0)
(0.116893 -0.68834 0)
(0.191058 -0.663886 0)
(0.252549 -0.484692 0)
(0.28175 -0.207518 0)
(0.284882 0.107804 0)
(0.271502 0.391575 0)
(0.211088 0.560209 0)
(0.116809 0.582298 0)
(-0.192704 -0.884594 0)
(0.144617 -0.264572 0)
(-0.157614 -0.488345 0)
(-0.148237 -0.577879 0)
(-0.368066 -0.0504608 0)
(-0.730431 0.359028 0)
(-1.09689 0.782394 0)
(-1.37425 1.08001 0)
(-1.53025 0.923403 0)
(-1.41929 0.581084 0)
(-1.17032 0.211087 0)
(-0.894833 -0.138062 0)
(-0.717133 -0.377759 0)
(-0.563558 -0.582768 0)
(-0.439699 -0.72966 0)
(-0.347628 -0.793176 0)
(-0.291361 -0.724291 0)
(-0.246055 -0.503307 0)
(-0.215568 -0.1958 0)
(-0.191303 0.130196 0)
(-0.16216 0.425973 0)
(-0.155285 0.606368 0)
(-0.166588 0.61743 0)
(-0.185332 -0.889176 0)
(0.143355 -0.368205 0)
(0.0148978 -0.163631 0)
(-0.310724 -0.293394 0)
(-0.693539 0.30487 0)
(-1.15283 0.818116 0)
(-1.56513 1.14322 0)
(-1.75053 1.15559 0)
(-1.70325 0.813224 0)
(-1.51101 0.354405 0)
(-1.32442 -0.0210564 0)
(-1.19218 -0.292519 0)
(-1.05932 -0.519044 0)
(-0.94739 -0.696384 0)
(-0.861727 -0.818857 0)
(-0.809603 -0.854149 0)
(-0.778291 -0.755296 0)
(-0.746782 -0.516072 0)
(-0.712216 -0.200369 0)
(-0.661284 0.127402 0)
(-0.587128 0.409207 0)
(-0.504862 0.566641 0)
(-0.426062 0.566554 0)
(-0.176279 -0.796375 0)
(0.109913 -0.470317 0)
(0.0250664 -0.133103 0)
(-0.06785 0.144581 0)
(-0.835174 0.751778 0)
(-1.29661 1.24602 0)
(-1.65977 1.39887 0)
(-1.76512 1.16326 0)
(-1.69634 0.684408 0)
(-1.60161 0.223679 0)
(-1.53359 -0.126017 0)
(-1.44214 -0.407946 0)
(-1.34123 -0.620595 0)
(-1.25764 -0.772429 0)
(-1.2047 -0.869571 0)
(-1.18149 -0.883975 0)
(-1.16829 -0.777063 0)
(-1.14158 -0.543795 0)
(-1.09246 -0.243608 0)
(-1.0075 0.0581672 0)
(-0.888526 0.306947 0)
(-0.753812 0.441285 0)
(-0.61251 0.435799 0)
(-0.167714 -0.755135 0)
(0.0766266 -0.561461 0)
(0.0364299 -0.0950777 0)
(-0.0568265 0.643271 0)
(-0.832991 1.24631 0)
(-1.24238 1.64247 0)
(-1.55731 1.61068 0)
(-1.65877 1.2008 0)
(-1.67773 0.660955 0)
(-1.69815 0.195986 0)
(-1.68884 -0.186106 0)
(-1.6289 -0.492455 0)
(-1.54433 -0.701703 0)
(-1.46637 -0.828672 0)
(-1.42196 -0.897941 0)
(-1.40871 -0.8971 0)
(-1.40203 -0.794675 0)
(-1.37408 -0.589093 0)
(-1.30997 -0.320707 0)
(-1.20237 -0.0543495 0)
(-1.05742 0.155125 0)
(-0.888624 0.265593 0)
(-0.710675 0.256794 0)
(-0.0500884 -0.719303 0)
(0.00788789 -0.674162 0)
(0.0227699 -0.0584116 0)
(-0.118939 1.12576 0)
(-0.736182 1.71288 0)
(-1.08547 2.00727 0)
(-1.38185 1.82733 0)
(-1.52609 1.31125 0)
(-1.64071 0.73613 0)
(-1.73628 0.236555 0)
(-1.77522 -0.205118 0)
(-1.74732 -0.559024 0)
(-1.67029 -0.785304 0)
(-1.57856 -0.8939 0)
(-1.51351 -0.929642 0)
(-1.48573 -0.909377 0)
(-1.47186 -0.814082 0)
(-1.43917 -0.638181 0)
(-1.36787 -0.412894 0)
(-1.25128 -0.187546 0)
(-1.09301 -0.0180019 0)
(-0.911392 0.0671061 0)
(-0.731662 0.0676581 0)
(0.211442 -0.66398 0)
(-0.0543717 -0.635992 0)
(0.010488 0.0705686 0)
(-0.115374 1.50783 0)
(-0.549232 2.13256 0)
(-0.881136 2.34129 0)
(-1.17672 2.06496 0)
(-1.37129 1.4827 0)
(-1.54959 0.876417 0)
(-1.69302 0.325768 0)
(-1.77188 -0.182126 0)
(-1.77905 -0.606742 0)
(-1.72001 -0.878346 0)
(-1.61617 -0.990018 0)
(-1.51514 -0.994346 0)
(-1.44861 -0.94334 0)
(-1.4091 -0.846633 0)
(-1.36444 -0.698319 0)
(-1.28775 -0.513924 0)
(-1.17045 -0.33254 0)
(-1.01844 -0.194538 0)
(-0.853719 -0.119543 0)
(-0.702591 -0.0936997 0)
(0.182406 -0.854329 0)
(0.135064 -0.406668 0)
(0.0456892 0.0651126 0)
(0.0150306 1.63869 0)
(-0.274824 2.52852 0)
(-0.660696 2.64775 0)
(-0.938729 2.32285 0)
(-1.1685 1.69495 0)
(-1.37774 1.05269 0)
(-1.5436 0.451306 0)
(-1.6494 -0.120412 0)
(-1.6925 -0.619229 0)
(-1.6726 -0.960557 0)
(-1.58355 -1.10941 0)
(-1.46259 -1.10403 0)
(-1.35592 -1.01916 0)
(-1.27852 -0.902644 0)
(-1.21501 -0.766399 0)
(-1.13525 -0.612549 0)
(-1.02897 -0.462981 0)
(-0.902525 -0.342873 0)
(-0.773037 -0.262566 0)
(-0.657012 -0.214325 0)
(0.0972444 -1.23063 0)
(0.220299 -0.424198 0)
(0.0797243 0.131745 0)
(0.0367215 1.51028 0)
(-0.0728426 2.8886 0)
(-0.468183 2.91754 0)
(-0.667455 2.57542 0)
(-0.891874 1.9295 0)
(-1.09776 1.25437 0)
(-1.26792 0.594795 0)
(-1.38356 -0.0385425 0)
(-1.46367 -0.590448 0)
(-1.49631 -1.00026 0)
(-1.45754 -1.21391 0)
(-1.35403 -1.23335 0)
(-1.23805 -1.13292 0)
(-1.13332 -0.987637 0)
(-1.05347 -0.84292 0)
(-0.975757 -0.701131 0)
(-0.88628 -0.567561 0)
(-0.787702 -0.45526 0)
(-0.689657 -0.369693 0)
(-0.600859 -0.3077 0)
(-0.0726672 -1.42742 0)
(0.118483 -0.421982 0)
(-0.00641103 0.185226 0)
(-0.163234 1.56888 0)
(-0.18014 3.11819 0)
(-0.333993 3.0994 0)
(-0.383986 2.76986 0)
(-0.55602 2.13505 0)
(-0.725481 1.44562 0)
(-0.883717 0.756722 0)
(-1.00527 0.0855421 0)
(-1.09727 -0.515578 0)
(-1.17868 -0.983126 0)
(-1.21875 -1.26427 0)
(-1.16566 -1.33555 0)
(-1.0825 -1.25079 0)
(-0.980459 -1.08691 0)
(-0.896818 -0.92262 0)
(-0.826545 -0.778337 0)
(-0.754908 -0.649513 0)
(-0.680521 -0.539523 0)
(-0.60709 -0.450153 0)
(-0.538484 -0.380277 0)
(-0.404133 -1.10374 0)
(-0.112435 -0.118328 0)
(-0.392294 0.566934 0)
(-0.484328 1.85211 0)
(-0.328968 3.09386 0)
(-0.202785 3.11644 0)
(-0.0990365 2.85405 0)
(-0.175818 2.28179 0)
(-0.289776 1.60832 0)
(-0.422883 0.91137 0)
(-0.548923 0.227551 0)
(-0.655023 -0.39706 0)
(-0.747467 -0.898193 0)
(-0.87527 -1.23961 0)
(-0.893347 -1.37181 0)
(-0.873281 -1.33257 0)
(-0.80695 -1.17461 0)
(-0.738272 -0.993766 0)
(-0.682638 -0.84103 0)
(-0.630243 -0.711509 0)
(-0.576911 -0.601768 0)
(-0.52392 -0.510787 0)
(-0.47214 -0.436808 0)
(-0.571234 -0.835481 0)
(-0.195531 0.17206 0)
(-0.533507 0.658063 0)
(-0.454822 1.67875 0)
(-0.278187 2.8623 0)
(-0.0212779 2.94735 0)
(0.180703 2.78888 0)
(0.226938 2.33894 0)
(0.185926 1.73445 0)
(0.0896077 1.06512 0)
(-0.0311295 0.392372 0)
(-0.170612 -0.245357 0)
(-0.2747 -0.756163 0)
(-0.465034 -1.13643 0)
(-0.565377 -1.32315 0)
(-0.617915 -1.34994 0)
(-0.608714 -1.22656 0)
(-0.572489 -1.0429 0)
(-0.538607 -0.883623 0)
(-0.507762 -0.753401 0)
(-0.474179 -0.644394 0)
(-0.439431 -0.553853 0)
(-0.403304 -0.478939 0)
(-0.610877 -0.748407 0)
(0.265947 -0.0483962 0)
(-0.323114 0.456983 0)
(-0.251429 1.49732 0)
(-0.106951 2.57076 0)
(0.186704 2.66525 0)
(0.429357 2.59136 0)
(0.586242 2.27717 0)
(0.631743 1.7764 0)
(0.590272 1.18129 0)
(0.482186 0.553753 0)
(0.335074 -0.0528282 0)
(0.170134 -0.577011 0)
(-0.0507307 -0.968389 0)
(-0.228499 -1.19542 0)
(-0.34536 -1.29451 0)
(-0.396573 -1.22877 0)
(-0.402974 -1.0607 0)
(-0.395334 -0.901732 0)
(-0.387179 -0.774244 0)
(-0.372986 -0.668513 0)
(-0.354985 -0.580462 0)
(-0.333637 -0.507118 0)
(-0.542928 -0.70832 0)
(0.423017 0.112421 0)
(-0.142951 0.531897 0)
(-0.00574642 1.44109 0)
(0.0737397 2.32335 0)
(0.359316 2.38245 0)
(0.60383 2.32992 0)
(0.820878 2.11427 0)
(0.949106 1.72612 0)
(0.966294 1.22253 0)
(0.887848 0.673914 0)
(0.746069 0.134142 0)
(0.544865 -0.369491 0)
(0.301459 -0.755509 0)
(0.0717431 -1.01502 0)
(-0.0912184 -1.17776 0)
(-0.189781 -1.18067 0)
(-0.238951 -1.0442 0)
(-0.258567 -0.894351 0)
(-0.271776 -0.774153 0)
(-0.276024 -0.675107 0)
(-0.273342 -0.591872 0)
(-0.265397 -0.522026 0)
(-0.410286 -0.708021 0)
(0.433128 -0.0162955 0)
(0.184983 0.744784 0)
(0.214901 1.4509 0)
(0.242157 2.1373 0)
(0.468557 2.15418 0)
(0.683388 2.0727 0)
(0.908799 1.90296 0)
(1.08065 1.6123 0)
(1.15228 1.21687 0)
(1.1152 0.759094 0)
(0.987127 0.28567 0)
(0.788882 -0.155263 0)
(0.542545 -0.519498 0)
(0.299368 -0.807519 0)
(0.118187 -1.02467 0)
(-0.00752455 -1.0929 0)
(-0.0902213 -0.996948 0)
(-0.134904 -0.863758 0)
(-0.166141 -0.755111 0)
(-0.186491 -0.66583 0)
(-0.197313 -0.589777 0)
(-0.200991 -0.525056 0)
(-0.251132 -0.667115 0)
(0.299338 -0.435546 0)
(0.427544 0.701287 0)
(0.423171 1.52959 0)
(0.377319 2.02975 0)
(0.517626 1.98944 0)
(0.683642 1.8556 0)
(0.883328 1.69354 0)
(1.05961 1.46981 0)
(1.15992 1.17669 0)
(1.16126 0.825715 0)
(1.06537 0.441895 0)
(0.891545 0.0606424 0)
(0.666317 -0.289026 0)
(0.440795 -0.599798 0)
(0.269408 -0.86312 0)
(0.138305 -0.98158 0)
(0.0358948 -0.927033 0)
(-0.0289093 -0.814762 0)
(-0.0740617 -0.720635 0)
(-0.107021 -0.643293 0)
(-0.128998 -0.576273 0)
(-0.142353 -0.518062 0)
(-0.0706428 -0.83344 0)
(0.229584 -0.477637 0)
(0.164224 0.255864 0)
(0.450216 1.56265 0)
(0.444238 1.99767 0)
(0.509648 1.88039 0)
(0.633174 1.68705 0)
(0.797795 1.51316 0)
(0.953968 1.32981 0)
(1.05704 1.11492 0)
(1.08052 0.857749 0)
(1.01665 0.559338 0)
(0.878871 0.23612 0)
(0.693071 -0.0892279 0)
(0.506274 -0.41534 0)
(0.36537 -0.713934 0)
(0.244281 -0.865637 0)
(0.135178 -0.841709 0)
(0.057521 -0.753001 0)
(0.00256568 -0.674897 0)
(-0.0392255 -0.61064 0)
(-0.0696875 -0.553678 0)
(-0.0907125 -0.502965 0)
(-0.0985202 -0.985943 0)
(0.191554 -0.495499 0)
(0.0919765 0.081872 0)
(0.273522 1.46647 0)
(0.378849 1.94842 0)
(0.449382 1.8005 0)
(0.562764 1.56072 0)
(0.698705 1.36912 0)
(0.824653 1.21022 0)
(0.91228 1.05297 0)
(0.939601 0.869786 0)
(0.89768 0.642576 0)
(0.795923 0.371443 0)
(0.652622 0.069084 0)
(0.517734 -0.271587 0)
(0.419547 -0.59163 0)
(0.315332 -0.756035 0)
(0.20751 -0.750675 0)
(0.124454 -0.683074 0)
(0.0635511 -0.621934 0)
(0.0162395 -0.570928 0)
(-0.0199754 -0.524366 0)
(-0.0466752 -0.481596 0)
(-0.259213 -0.940007 0)
(0.155226 -0.407036 0)
(-0.329986 0.0924643 0)
(0.130729 1.41789 0)
(0.22865 1.83257 0)
(0.365369 1.69972 0)
(0.499886 1.453 0)
(0.6145 1.25612 0)
(0.708108 1.11887 0)
(0.769555 1.00657 0)
(0.785476 0.878748 0)
(0.752874 0.703325 0)
(0.678728 0.470158 0)
(0.578951 0.178223 0)
(0.50481 -0.177645 0)
(0.449072 -0.500485 0)
(0.359749 -0.656941 0)
(0.256447 -0.659266 0)
(0.17305 -0.609962 0)
(0.109868 -0.565199 0)
(0.0597597 -0.526913 0)
(0.0201021 -0.490523 0)
(-0.0102942 -0.455708 0)
(-0.258152 -0.795924 0)
(0.119502 -0.334178 0)
(-0.415858 0.0348031 0)
(0.0562461 1.26072 0)
(0.117692 1.63003 0)
(0.321686 1.55419 0)
(0.463539 1.34184 0)
(0.55456 1.16611 0)
(0.615532 1.05903 0)
(0.644336 0.985332 0)
(0.638429 0.895427 0)
(0.605242 0.7502 0)
(0.551823 0.535538 0)
(0.501572 0.235882 0)
(0.491215 -0.133226 0)
(0.466968 -0.435094 0)
(0.384981 -0.566512 0)
(0.286347 -0.56999 0)
(0.205617 -0.536889 0)
(0.142921 -0.507456 0)
(0.0923263 -0.480991 0)
(0.0512268 -0.454025 0)
(0.0187333 -0.426944 0)
(-0.17824 -0.687943 0)
(0.0356329 -0.291165 0)
(-0.14707 -0.146312 0)
(0.0627538 0.991575 0)
(0.177069 1.42357 0)
(0.368212 1.40298 0)
(0.469146 1.23439 0)
(0.518138 1.0985 0)
(0.541293 1.03278 0)
(0.532511 0.995229 0)
(0.498117 0.92694 0)
(0.459053 0.787347 0)
(0.429686 0.560875 0)
(0.443914 0.233044 0)
(0.491646 -0.129774 0)
(0.479255 -0.382635 0)
(0.395164 -0.479579 0)
(0.30052 -0.483498 0)
(0.224362 -0.466109 0)
(0.164335 -0.450901 0)
(0.115112 -0.435054 0)
(0.0741511 -0.416588 0)
(0.0409034 -0.39668 0)
(-0.00965693 -0.693405 0)
(-0.222795 -0.501167 0)
(-0.0356748 0.14608 0)
(-0.0505356 0.617442 0)
(0.368766 1.21823 0)
(0.549494 1.32836 0)
(0.557095 1.19822 0)
(0.51827 1.08113 0)
(0.481763 1.05051 0)
(0.426817 1.04287 0)
(0.360949 0.977928 0)
(0.315917 0.81197 0)
(0.324867 0.537883 0)
(0.422731 0.1787 0)
(0.507907 -0.14397 0)
(0.482723 -0.327596 0)
(0.389737 -0.391653 0)
(0.30026 -0.400826 0)
(0.230821 -0.399773 0)
(0.175342 -0.39743 0)
(0.128838 -0.390664 0)
(0.0891152 -0.379489 0)
(0.0561566 -0.366044 0)
(0.0740508 -0.530424 0)
(-0.236662 -0.368696 0)
(0.0722069 -0.0552608 0)
(0.149803 0.378203 0)
(0.457991 0.91541 0)
(0.740681 1.27694 0)
(0.72583 1.27468 0)
(0.580917 1.16616 0)
(0.446074 1.13131 0)
(0.32634 1.1362 0)
(0.216834 1.06113 0)
(0.135178 0.829547 0)
(0.235105 0.439327 0)
(0.434937 0.0573875 0)
(0.519392 -0.162009 0)
(0.46329 -0.260936 0)
(0.364849 -0.3035 0)
(0.285777 -0.325245 0)
(0.225825 -0.340301 0)
(0.176095 -0.348472 0)
(0.132865 -0.348761 0)
(0.0950993 -0.343591 0)
(0.0634795 -0.335932 0)
(-0.0395087 -0.44691 0)
(-0.189024 -0.321969 0)
(0.0288155 -0.209318 0)
(0.202468 0.184185 0)
(0.415389 0.58365 0)
(0.762594 1.09927 0)
(0.873562 1.36341 0)
(0.687264 1.36176 0)
(0.428412 1.3158 0)
(0.223255 1.29706 0)
(-0.0243553 1.17954 0)
(-0.064721 0.730551 0)
(0.257315 0.120181 0)
(0.447177 -0.104583 0)
(0.484807 -0.145594 0)
(0.40803 -0.180794 0)
(0.321158 -0.223473 0)
(0.258417 -0.26154 0)
(0.209089 -0.289156 0)
(0.164772 -0.304168 0)
(0.124845 -0.3095 0)
(0.0900572 -0.309603 0)
(0.0614203 -0.307488 0)
(-0.025713 -0.425535 0)
(0.0948755 -0.405949 0)
(-0.0779689 -0.549356 0)
(0.172885 -0.0200136 0)
(0.331675 0.402215 0)
(0.571691 0.775567 0)
(0.915046 1.4029 0)
(0.805662 1.63337 0)
(0.424558 1.57081 0)
(0.0804313 1.58092 0)
(-0.251546 1.36971 0)
(0.186401 0.456552 0)
(0.394403 -0.0306382 0)
(0.429255 -0.132884 0)
(0.40169 -0.0773701 0)
(0.329073 -0.105202 0)
(0.265092 -0.161015 0)
(0.219271 -0.211604 0)
(0.178185 -0.245111 0)
(0.138258 -0.263491 0)
(0.102798 -0.273434 0)
(0.0733336 -0.279338 0)
(0.0501999 -0.283052 0)
(-0.0202956 -0.431383 0)
(0.000417706 -0.321851 0)
(-0.086223 -0.316997 0)
(0.0561224 -0.227217 0)
(0.298058 0.189018 0)
(0.493427 0.464575 0)
(0.794004 1.16735 0)
(0.865872 1.98935 0)
(0.440085 1.96663 0)
(-0.160592 1.97933 0)
(-0.0965773 1.08218 0)
(0.296127 0.0609529 0)
(0.360098 -0.181875 0)
(0.316464 -0.151947 0)
(0.250885 -0.0396988 0)
(0.22761 -0.0617907 0)
(0.200753 -0.121017 0)
(0.166702 -0.171657 0)
(0.130609 -0.205133 0)
(0.097088 -0.227427 0)
(0.0698822 -0.243909 0)
(0.0490954 -0.256446 0)
(0.0337795 -0.265726 0)
(-0.00874929 -0.410684 0)
(-0.0272656 -0.346754 0)
(0.0331799 -0.382612 0)
(-0.194648 -0.365085 0)