/*--------------------------------*- C++ -*----------------------------------*\
| =========                 |                                                 |
| \\      /  F ield         | OpenFOAM: The Open Source CFD Toolbox           |
|  \\    /   O peration     | Version:  2.3.0                                 |
|   \\  /    A nd           | Web:      www.OpenFOAM.org                      |
|    \\/     M anipulation  |                                                 |
\*---------------------------------------------------------------------------*/
FoamFile
{
    version     2.0;
    format      ascii;
    class       volScalarField;
    location    "0.07";
    object      alpha.water;
}
// * * * * * * * * * * * * * * * * * * * * * * * * * * * * * * * * * * * * * //

dimensions      [0 0 0 0 0 0 0];

internalField   nonuniform List<scalar> 
725
(
1
1
0.999992
0.999999
0.953828
1
1
0.999999
1
0.956504
1
1
1
1.00002
0.9902
1
1
1
1.00001
1
1
1
0.999997
1.00001
0.989586
0.663198
0.660526
0.965597
1
0.999974
1.00001
0.929628
0.250383
0.000614131
0.000579601
0.00054412
0.00052635
0.332691
0.999773
0.999773
0.999768
0.999813
0.999841
0.999862
0.999881
0.999899
0.999922
0.999947
0.999967
0.999981
1
1.00001
1.00002
1.00002
1.00002
1.00002
1.00002
1.00003
1.00003
1.00005
0.999914
0.999715
0.999612
0.999681
0.999812
0.742797
0.0130332
2.65068e-05
3.38565e-05
2.50066e-05
0.65935
0.661121
0.967795
1.00001
1.00006
1.00001
0.934731
0.253225
0.000556992
0.000529436
0.000526438
0.000526636
0.311596
0.999773
0.999745
0.999716
0.99972
0.999723
0.999732
0.999748
0.999766
0.999784
0.999804
0.999822
0.999836
0.999844
0.99985
0.999857
0.999867
0.999881
0.999897
0.999916
0.999935
0.999952
1.00006
0.999766
0.999609
0.999929
0.999938
0.999937
0.72323
0.000731
2.65061e-05
2.68486e-05
1.35844e-05
0.320058
0.61217
0.969726
1
1.00002
1.00001
0.941717
0.261268
0.000651546
0.000582558
0.000527145
0.000526558
0.238053
0.98193
0.999757
0.999692
0.99969
0.999687
0.999688
0.99969
0.999696
0.999701
0.999707
0.999719
0.999741
0.999772
0.999812
0.999861
0.999892
0.999899
0.999899
0.999903
0.999911
0.999928
0.999937
0.999888
0.999866
0.999475
0.996596
0.999495
0.774815
0.0276612
2.6508e-05
4.10195e-05
2.44745e-05
0.247897
0.554056
0.999995
0.999995
1.00003
1.00001
0.937452
0.236199
0.00102417
0.00321071
0.000834268
0.000526662
0.281558
0.953264
0.999764
0.999765
0.999636
0.999599
0.999553
0.999529
0.999713
0.999805
0.999742
0.999733
0.999721
0.999716
0.999716
0.999722
0.999736
0.999755
0.999772
0.999847
0.9999
0.999914
0.999959
0.999938
0.999961
0.995196
0.994038
0.999475
0.742773
0.0124237
2.66784e-05
5.53825e-05
4.86296e-05
0.149792
0.555065
0.99998
0.999947
1.00009
1.00005
0.942247
0.262604
0.00126228
0.00313311
0.000619821
0.0005336
0.224833
0.853694
0.99976
0.999765
0.999661
0.999576
0.999538
0.999524
0.99953
0.999529
0.999775
0.999796
0.999763
0.999748
0.999741
0.999742
0.999748
0.99976
0.999778
0.999801
0.999831
0.999861
0.999959
0.995841
0.996199
0.994038
0.994042
0.999421
0.785996
0.0351179
2.81617e-05
0.000103644
8.88193e-05
0.11557
0.564412
0.994683
1.00001
1.00014
1.00003
0.940901
0.281185
0.000972814
0.000792205
0.000684161
0.000865191
0.292815
0.829175
0.999764
0.999761
0.999619
0.999573
0.999532
0.999523
0.999537
0.999605
0.999651
0.999703
0.999727
0.999737
0.999744
0.999753
0.999764
0.999776
0.99979
0.999806
0.999829
0.999854
0.999726
0.993309
0.994089
0.994045
0.996125
0.999216
0.767048
0.0628176
6.09804e-05
0.000123699
0.000137941
0.0984223
0.639299
0.99574
1.00001
1.0001
1.00004
0.946415
0.28128
0.0010157
0.0009286
0.000791334
0.00275319
0.360088
0.812505
0.999769
0.999726
0.999609
0.999558
0.999515
0.999499
0.999591
0.999674
0.999709
0.999737
0.99976
0.999765
0.999767
0.999772
0.999779
0.999788
0.999799
0.999811
0.99983
0.999851
0.999909
0.993293
0.997275
0.997916
0.998989
0.999097
0.7783
0.080046
0.000157557
0.000179979
0.000306672
0.0964445
0.788959
0.999912
1.00001
1.00007
1.00007
0.94764
0.278372
0.00100938
0.00107427
0.00102093
0.00768688
0.378789
0.793597
0.999771
0.999667
0.999603
0.99954
0.999495
0.999488
0.999521
0.999569
0.999628
0.999674
0.999704
0.999731
0.99975
0.999764
0.999776
0.999788
0.9998
0.999813
0.99983
0.999847
0.99993
0.993294
0.996665
0.998987
0.998989
0.99897
0.775308
0.0930632
0.000120928
0.000122115
0.000108124
0.0954762
0.834742
0.999973
1.00001
1.00007
1.00007
0.953057
0.275747
0.000758379
0.00226943
0.00235477
0.0119312
0.427864
0.839387
0.999774
0.999661
0.999596
0.999521
0.999481
0.999488
0.999541
0.999621
0.999681
0.999722
0.999748
0.999762
0.999772
0.999779
0.999785
0.999792
0.999802
0.999813
0.999828
0.999843
0.999822
0.998891
0.986253
0.986627
0.998539
0.998963
0.773763
0.110406
0.000100898
0.000117517
0.000102515
0.161318
0.845515
0.999983
1.00001
1.00007
1.00005
0.950286
0.270969
0.000652705
0.000793889
0.00817813
0.0134994
0.454609
0.88354
0.999775
0.99963
0.999574
0.999504
0.999485
0.999514
0.999583
0.999656
0.999687
0.999714
0.999744
0.999757
0.999766
0.999772
0.999778
0.999785
0.999795
0.999808
0.999824
0.999839
0.999827
0.999793
0.990294
0.98002
0.994311
0.998959
0.778761
0.112319
9.23504e-05
9.21345e-05
7.90096e-05
1
1
1
1.00013
0.850188
1
1
1
1.00014
0.98133
1
1
1
1.00001
0.991605
1
1
1
1.00002
0.997125
1
1
1.00004
1.00013
1
0.418154
0.905173
0.999997
1
1.00007
1.00002
0.963932
0.246986
0.000633938
0.000619763
0.00130591
0.062324
0.485772
0.933818
0.999775
0.999559
0.99954
0.999565
0.999576
0.999645
0.999694
0.999689
0.999766
0.999799
0.999776
0.999769
0.999766
0.999767
0.99977
0.999775
0.999783
0.999797
0.999817
0.999837
0.999828
1.00004
0.998494
0.980017
0.988021
0.998933
0.791776
0.115583
8.75552e-05
7.25328e-05
7.08818e-05
0.628087
0.877699
0.989097
1
1.00006
1.00003
0.964634
0.235643
0.000618638
0.000601281
0.000618414
0.0160917
0.492794
0.998488
0.99976
0.999539
0.999668
0.999732
0.999912
0.999892
0.999859
0.999821
0.999788
0.999768
0.999759
0.999758
0.99976
0.999765
0.999772
0.999781
0.999793
0.999807
0.999824
0.99984
0.999852
0.999645
0.994592
0.988458
0.993293
0.998885
0.77841
0.099766
8.61307e-05
7.45751e-05
7.29366e-05
0.941594
0.933724
0.976341
1
1.00005
1.00002
0.955826
0.244032
0.000600695
0.000599396
0.000601805
0.00497018
0.523755
0.999906
0.99978
0.999818
0.999853
0.999855
0.99985
0.999826
0.9998
0.999779
0.999766
0.999756
0.999752
0.999753
0.99976
0.999772
0.999787
0.999804
0.999821
0.999836
0.999848
0.999857
0.99989
0.999851
0.993245
0.991709
0.994544
0.998852
0.815843
0.140341
8.92212e-05
7.89523e-05
7.70175e-05
0.976798
0.924814
0.973904
1
1.00004
1.00002
0.954181
0.234277
0.000599072
0.000599089
0.000599535
0.000599093
0.462696
0.999906
0.999866
0.999899
0.999849
0.999825
0.999805
0.999793
0.999791
0.999797
0.999806
0.999815
0.999828
0.999845
0.999864
0.999883
0.999901
0.999916
0.999928
0.999937
0.999938
0.999927
0.999939
1.00016
0.996352
0.984399
0.993499
0.998836
0.811911
0.138484
8.47887e-05
7.71049e-05
7.54401e-05
0.946791
0.923911
0.978073
1.00002
1.00003
1
0.946123
0.227969
0.00059907
0.00059907
0.000599077
0.000599087
0.45011
0.999906
0.999895
0.999836
0.999877
0.999928
0.999976
1.00001
1.00002
1.00002
1.00002
1.00002
1.00002
1.00002
1.00002
1.00002
1.00003
1.00003
1.00003
1.00003
1.00002
1.00002
1.00003
1.00004
0.992039
0.984399
0.993535
0.998823
0.807817
0.144679
9.46281e-05
8.56803e-05
8.46177e-05
)
;

boundaryField
{
    AirInlet
    {
        type            fixedValue;
        value           uniform 0;
    }
    WaterInlet
    {
        type            fixedValue;
        value           uniform 1;
    }
    ChannelWall
    {
        type            zeroGradient;
    }
    Outlet
    {
        type            inletOutlet;
        inletValue      uniform 0;
        value           nonuniform List<scalar> 
15
(
0
0
0
0
0
0.000137941
0.000306672
0.000108124
0.000102515
7.90096e-05
7.08818e-05
7.29366e-05
7.70175e-05
7.54401e-05
8.46177e-05
)
;
    }
    FrontAndBack
    {
        type            empty;
    }
}


// ************************************************************************* //
