/*--------------------------------*- C++ -*----------------------------------*\
| =========                 |                                                 |
| \\      /  F ield         | OpenFOAM: The Open Source CFD Toolbox           |
|  \\    /   O peration     | Version:  2.3.0                                 |
|   \\  /    A nd           | Web:      www.OpenFOAM.org                      |
|    \\/     M anipulation  |                                                 |
\*---------------------------------------------------------------------------*/
FoamFile
{
    version     2.0;
    format      ascii;
    class       volScalarField;
    location    "0.07";
    object      p;
}
// * * * * * * * * * * * * * * * * * * * * * * * * * * * * * * * * * * * * * //

dimensions      [1 -1 -2 0 0 0 0];

internalField   nonuniform List<scalar> 
725
(
209.515
188.994
126.982
183.564
34.1318
203.851
189.26
126.182
177.467
25.2871
201.569
188.655
128.772
165.243
105.239
202.387
186.842
132.283
160.442
174.859
206.331
185.042
139.679
191.057
408.56
560.324
240.071
99.37
-5.11924
78.5938
38.1753
49.0431
28.6531
35.5083
34.3722
34.6778
44.5822
181.978
263.933
63.8411
21.1946
5.22922
1.90762
1.25331
0.840551
-0.142114
-0.956922
-1.85535
-2.51152
-3.81209
-5.24331
-6.60296
-8.08934
-9.6497
-11.3554
-13.2259
-15.5923
-18.1002
-22.4468
-26.3068
-38.4385
-48.2717
-57.4237
-66.197
-83.8575
-106.873
-2.79813
-0.54159
-0.323357
-0.0314477
511.667
275.846
45.1425
-15.8327
72.6454
36.4474
63.1468
50.7804
33.6479
33.5759
35.2364
46.0735
47.2684
113.361
32.0541
11.3529
2.5032
1.04093
0.765502
0.371911
-0.623429
-1.5455
-2.43313
-3.19903
-4.46415
-5.94297
-7.32643
-8.78557
-10.3119
-11.9727
-13.7772
-16.0638
-18.5244
-22.7232
-26.3575
-37.6139
-45.9958
-52.8475
-60.9989
-71.9914
-204.95
-0.425938
-0.167936
-0.328994
-0.0349348
1484.44
357.612
-31.4608
-44.3867
64.0902
28.6841
39.8685
23.7782
33.1994
30.4391
33.7494
50.2275
-42.6231
-7.66011
-8.63983
-2.71589
-1.13628
0.389284
0.790132
0.491262
-0.537394
-1.53723
-2.15309
-3.18605
-4.51901
-6.02518
-7.39375
-8.85533
-10.3697
-12.0151
-13.7847
-15.9972
-18.3339
-22.3045
-26.0806
-36.9448
-46.0812
-54.5329
-67.7732
-45.6211
-48.1454
-5.77438
-0.00864533
-0.417821
-0.0505722
1947.73
484.797
-111.332
-80.1593
56.0841
21.4891
-7.43249
-40.9066
32.1035
35.3329
29.965
55.9155
-125.304
-165.149
-74.3075
-20.2284
-4.70603
0.109818
1.11051
0.869434
-0.503769
-1.52128
-2.09232
-3.20758
-4.50286
-5.96245
-7.42877
-8.91938
-10.4182
-11.9795
-13.6053
-15.781
-17.9492
-21.5456
-25.2122
-36.9295
-48.3725
-48.3563
-53.668
-49.5926
-181.694
1.0049
0.784708
-0.534838
0.0297156
2664.7
380.323
-302.885
-123.81
53.7526
23.7195
27.9993
45.4985
29.5758
16.2437
29.7268
68.1523
-431.734
-606.325
-162.62
-30.9215
-5.86886
0.60561
1.61076
1.38734
0.862646
0.330459
-2.05269
-3.23437
-4.75149
-6.37079
-7.68354
-9.10387
-10.5298
-11.9949
-13.5122
-15.2686
-17.2621
-20.5607
-24.5931
-34.7991
-32.168
-39.0266
-34.2116
-44.4129
-303.044
-12.0915
1.05294
-1.11854
0.154795
2943.2
322.933
-317.468
-97.0276
59.2284
31.0176
79.9871
200.271
25.9435
18.6189
27.5195
72.514
-209.072
-411.071
-213.612
-43.7999
-6.88282
1.48718
2.06089
1.66452
0.865366
-0.0620597
-3.99831
-4.4712
-6.22034
-6.48578
-7.71491
-9.18802
-10.5942
-12.0248
-13.4391
-15.0416
-16.6767
-19.2116
-21.9395
-19.5718
-28.4262
-45.2736
-10.2005
-6.94424
-76.0597
-5.94004
0.690289
-2.28879
0.245848
3057.46
-34.6585
-296.814
-86.2887
59.3093
33.0533
84.3783
206.85
24.777
12.6113
26.5838
69.3617
-77.4233
-258.577
-220.113
-45.4501
-6.57372
1.90718
2.26159
1.82233
2.70369
2.24753
-2.67138
-4.13257
-5.0714
-5.65142
-7.66056
-9.19963
-10.5979
-12.0132
-13.399
-14.9578
-16.4921
-18.5689
-21.5959
-18.3241
78.8973
87.568
6.88598
11.2933
35.7281
-5.85615
0.239409
-1.042
6.37872
3079.44
182.833
-245.012
-76.0604
57.9491
34.115
82.7385
171.53
23.6139
6.64382
25.2645
70.7618
47.9816
176.436
-197.959
-44.2848
-5.63716
2.47522
2.50324
2.31907
2.31207
1.97306
-0.735954
-2.15666
-3.71262
-5.62234
-7.72614
-9.22215
-10.6096
-12.006
-13.3376
-14.8217
-16.3219
-17.8713
-20.027
-18.7725
55.981
123.327
13.2878
28.5992
123.947
17.6582
-0.557395
-3.04876
-0.699855
3091.04
589.694
-172.982
-68.3075
55.3995
33.5813
82.3091
137.268
21.8418
41.0829
20.4953
79.6476
214.542
-430.451
-152.176
-37.447
-4.2062
3.19864
3.2779
2.45058
1.66381
0.152523
-2.48053
-3.79215
-5.22873
-6.67842
-7.73218
-8.87174
-10.3213
-11.8312
-13.2345
-14.7105
-16.1693
-17.0872
-20.3808
-9.31007
288.736
124.806
2.09988
41.1728
177.457
89.174
-1.08868
-3.08238
-0.634522
2370.05
674.244
-118.967
-64.0258
51.7326
32.2539
66.7549
96.105
20.6917
0.915993
39.8273
95.6035
392.738
-345.341
-102.135
-27.4266
-2.27724
4.59595
3.38472
2.50673
1.34455
0.0218867
-2.43478
-3.76917
-5.23668
-6.7801
-7.95376
-9.13148
-10.5636
-11.9914
-13.2708
-14.6464
-15.991
-16.3278
-19.9198
-3.39493
146.682
138.475
-6.54422
50.6434
185.062
85.2692
-0.624645
-2.66586
-0.582052
48.0899
-5.20945
4.33252
-104.724
301.695
44.7598
-2.25709
5.32483
-72.8783
7.74623
44.7764
0.29194
11.1732
-37.4063
-10.2035
47.6671
1.78432
15.4285
-1.38088
46.9533
53.9336
1.576
14.6097
0.0514921
40.3807
1077.73
718.701
-28.2381
-61.1037
40.2275
27.6183
10.7454
-41.7622
18.7341
5.07519
-12.7671
100.364
562.849
5.53891
50.5595
7.75058
4.39295
3.97979
4.00248
2.82184
1.42465
-0.0636166
-2.26168
-3.75133
-5.21254
-6.5184
-7.93744
-9.2369
-10.5688
-11.9198
-13.1382
-14.341
-15.3624
-14.2672
-18.3817
0.354169
-8.47302
137.587
-5.85012
66.8215
121.691
21.8678
2.09646
-1.07759
-0.470194
527.837
483.335
-23.2944
-54.2394
33.2421
17.0316
-0.38708
-32.0539
15.8026
6.06467
-2.82171
-2.25784
357.348
174.875
54.3166
23.2411
10.9867
7.44646
5.5257
3.63889
1.89735
0.0530199
-2.08136
-3.81694
-5.26307
-6.56141
-7.93737
-9.27982
-10.6206
-11.9428
-13.0933
-14.0949
-14.8309
-12.1621
-17.6328
3.80326
-22.9791
42.3347
2.10849
74.8649
25.7952
-7.66958
2.57522
-0.416185
-0.377935
181.142
193.824
3.24381
-56.3071
23.7791
-1.35659
7.44699
23.2482
13.0181
5.36352
1.01415
-8.70166
64.4705
153.566
55.1598
30.7429
16.1637
10.4075
6.67318
4.10107
2.05298
0.0229955
-2.01787
-3.79176
-5.30309
-6.62239
-8.01244
-9.3724
-10.6925
-11.9681
-13.0533
-13.9286
-14.5392
-10.8769
-17.9511
5.20412
-20.1576
53.8978
21.9671
101.447
115.728
15.209
1.20472
-0.11193
-0.361584
363.959
121.919
26.9087
-37.3145
22.0466
3.87797
14.3353
8.8781
11.493
4.75143
3.69804
-5.6806
-99.3684
55.3104
43.022
34.4566
19.2283
12.3455
7.65514
4.54668
2.2081
0.0120393
-2.17024
-4.02628
-5.40878
-6.72032
-8.09693
-9.45105
-10.7633
-12.0159
-13.0624
-13.8605
-14.4129
-10.24
-16.8294
6.4743
-20.2521
35.8797
22.6675
117.616
160.203
21.5786
0.816214
0.0851561
-0.334052
267.876
154.119
22.0585
-51.9477
20.4596
-10.5977
-51.4777
-17.1429
11.175
4.8006
4.75573
-4.46218
-204.075
-24.7335
35.1706
35.8276
21.2432
13.9728
8.72177
5.61923
3.19472
0.84818
-1.43494
-3.3387
-4.76269
-6.12629
-7.56981
-8.99107
-10.3649
-11.6696
-12.7441
-13.5545
-14.2001
-9.77168
-16.4544
6.64183
-17.1462
40.2112
27.0891
121.255
132.168
18.1855
2.37271
0.305451
-0.305326
)
;

boundaryField
{
    AirInlet
    {
        type            calculated;
        value           nonuniform List<scalar> 5(3852.72 3617.47 4517.17 4649.61 3256.48);
    }
    WaterInlet
    {
        type            calculated;
        value           nonuniform List<scalar> 10(209.517 203.857 201.578 202.401 206.35 48.0718 44.7457 44.7664 47.661 53.9316);
    }
    ChannelWall
    {
        type            calculated;
        value           nonuniform List<scalar> 
110
(
206.305
185.012
139.645
191.019
408.518
48.1159
-5.17942
4.36651
-104.686
301.73
53.9071
1.54555
14.5754
0.0131946
40.3384
267.835
154.078
22.0153
-51.9919
20.4154
-10.6419
-51.5194
-17.153
11.1749
4.80053
4.75566
-4.46225
-204.095
-24.7777
35.1265
35.7834
21.1991
13.9286
8.67762
5.57509
3.15058
0.804034
-1.47908
-3.38285
-4.80683
-6.17044
-7.61395
-9.03521
-10.409
-11.7137
-12.7882
-13.5987
-14.2442
-9.81583
-16.4985
6.59768
-17.19
40.1677
27.0452
121.211
132.133
18.179
2.37266
0.305403
-0.305373
209.541
189.025
127.017
183.602
34.1721
560.353
240.1
99.4127
-5.07509
78.6379
38.2194
49.0841
28.6641
35.5084
34.3723
34.6779
44.5822
181.992
263.977
63.8852
21.2387
5.27336
1.95176
1.29745
0.884691
-0.0979732
-0.912781
-1.81121
-2.46738
-3.76794
-5.19916
-6.55881
-8.04519
-9.60556
-11.3113
-13.1818
-15.5481
-18.0561
-22.4027
-26.2627
-38.3943
-48.2275
-57.3796
-66.1528
-83.8134
-106.841
-2.79751
-0.541545
-0.323311
-0.0314024
)
;
    }
    Outlet
    {
        type            calculated;
        value           nonuniform List<scalar> 
15
(
-0.0172434
-0.0758381
-0.104517
-0.0662585
-0.00306023
-0.000513445
-0.000615141
-0.000543482
-0.000562363
-0.000571553
-0.000625027
-0.000720948
-0.000818771
-0.000912517
-0.00101605
)
;
    }
    FrontAndBack
    {
        type            empty;
    }
}


// ************************************************************************* //
