/*--------------------------------*- C++ -*----------------------------------*\
| =========                 |                                                 |
| \\      /  F ield         | OpenFOAM: The Open Source CFD Toolbox           |
|  \\    /   O peration     | Version:  2.3.0                                 |
|   \\  /    A nd           | Web:      www.OpenFOAM.org                      |
|    \\/     M anipulation  |                                                 |
\*---------------------------------------------------------------------------*/
FoamFile
{
    version     2.0;
    format      ascii;
    class       volScalarField;
    location    "0.07";
    object      p_rgh;
}
// * * * * * * * * * * * * * * * * * * * * * * * * * * * * * * * * * * * * * //

dimensions      [1 -1 -2 0 0 0 0];

internalField   nonuniform List<scalar> 
725
(
209.541
189.025
127.017
183.602
34.1721
203.931
189.352
126.285
177.581
25.4082
201.701
188.807
128.944
165.435
105.448
202.573
187.055
132.523
160.71
175.155
206.57
185.316
139.988
191.401
408.936
560.353
240.1
99.4127
-5.07509
78.6379
38.2194
49.0841
28.6641
35.5084
34.3723
34.6779
44.5822
181.992
263.977
63.8852
21.2387
5.27336
1.95176
1.29745
0.884691
-0.0979732
-0.912781
-1.81121
-2.46738
-3.76794
-5.19916
-6.55881
-8.04519
-9.60556
-11.3113
-13.1818
-15.5481
-18.0561
-22.4027
-26.2627
-38.3943
-48.2275
-57.3796
-66.1528
-83.8134
-106.841
-2.79751
-0.541545
-0.323311
-0.0314024
511.755
275.934
45.2706
-15.7003
72.7779
36.5798
63.2706
50.8141
33.6481
33.5761
35.2366
46.0737
47.3097
113.494
32.1865
11.4853
2.6356
1.17333
0.897901
0.504313
-0.491025
-1.41309
-2.30072
-3.06662
-4.33174
-5.81056
-7.19401
-8.65315
-10.1795
-11.8403
-13.6448
-15.9313
-18.392
-22.5908
-26.225
-37.4815
-45.8635
-52.715
-60.8664
-71.859
-204.854
-0.425709
-0.1678
-0.328858
-0.0348006
1484.51
357.747
-31.2467
-44.1659
64.3109
28.9048
40.0763
23.8361
33.1998
30.4394
33.7497
50.2279
-42.5704
-7.44337
-8.41916
-2.49524
-0.915621
0.60994
1.01079
0.711919
-0.316736
-1.31657
-1.93243
-2.96539
-4.29834
-5.80451
-7.17306
-8.63464
-10.149
-11.7944
-13.564
-15.7765
-18.1132
-22.0838
-25.8599
-36.7241
-45.8605
-54.3123
-67.5532
-45.4005
-47.9743
-5.76806
-0.00841876
-0.417591
-0.0503461
1947.81
484.968
-111.023
-79.8503
56.3931
21.7982
-7.14278
-40.8334
32.1042
35.3342
29.9656
55.916
-125.217
-164.854
-73.9986
-19.9195
-4.39712
0.41871
1.41939
1.1783
-0.194842
-1.21233
-1.78338
-2.89864
-4.19393
-5.65352
-7.11985
-8.61045
-10.1093
-11.6705
-13.2964
-15.4721
-17.6402
-21.2366
-24.9032
-36.6206
-48.0635
-48.0488
-53.3609
-49.2837
-181.464
1.00904
0.785025
-0.534512
0.0300396
2664.76
380.544
-302.488
-123.412
54.1499
24.1169
28.3737
45.6032
29.5767
16.2454
29.7275
68.153
-431.644
-605.985
-162.223
-30.5243
-5.47169
1.00275
2.00789
1.78445
1.25976
0.727577
-1.65547
-2.83715
-4.35428
-5.97358
-7.28634
-8.70667
-10.1326
-11.5976
-13.115
-14.8714
-16.8648
-20.1635
-24.1958
-34.4034
-31.7722
-38.6317
-33.8166
-44.0158
-302.732
-12.0772
1.05335
-1.1181
0.155228
2943.25
323.188
-317.019
-96.5763
59.6797
31.4688
80.4117
200.399
25.9444
18.6197
27.5203
72.5149
-208.94
-410.697
-213.16
-43.3488
-6.43173
1.93824
2.51194
2.11557
1.31642
0.389022
-3.5472
-4.02007
-5.76921
-6.03464
-7.26377
-8.73687
-10.143
-11.5736
-12.9879
-14.5904
-16.2255
-18.7604
-21.4884
-19.1235
-27.9776
-44.825
-9.751
-6.49334
-75.7134
-5.91127
0.690767
-2.28829
0.246361
3057.51
-34.3573
-296.345
-85.8178
59.7802
33.5242
84.824
206.983
24.778
12.6122
26.5846
69.3634
-77.2534
-258.194
-219.642
-44.9793
-6.10302
2.37786
2.73224
2.29297
3.17437
2.71826
-2.20064
-3.66182
-4.60063
-5.18066
-7.18979
-8.72886
-10.1271
-11.5424
-12.9283
-14.487
-16.0213
-18.0981
-21.125
-17.8564
79.3669
88.0379
7.35638
11.7638
36.0947
-5.81802
0.239954
-1.04144
6.37933
3079.48
183.22
-244.522
-75.5699
58.4396
34.6055
83.2034
171.667
23.6149
6.64484
25.2655
70.766
48.1677
176.825
-197.468
-43.7945
-5.14685
2.96549
2.99349
2.80932
2.80233
2.46335
-0.245636
-1.66632
-3.22227
-5.13197
-7.23576
-8.73176
-10.1192
-11.5156
-12.8472
-14.3313
-15.8315
-17.3808
-19.5365
-18.2853
56.4699
123.817
13.7778
29.0892
124.327
17.7043
-0.556845
-3.04821
-0.699312
3091.09
590.12
-172.472
-67.7974
55.9097
34.0915
82.7953
137.409
21.8427
41.0845
20.497
79.6542
214.761
-430.023
-151.666
-36.9371
-3.69629
3.70851
3.78775
2.96044
2.17369
0.66245
-1.97058
-3.28217
-4.71874
-6.16842
-7.22218
-8.36173
-9.81128
-11.3211
-12.7245
-14.2005
-15.6592
-16.5772
-19.8708
-8.80052
289.239
125.309
2.60926
41.6824
177.852
89.2308
-1.08812
-3.08181
-0.633959
2370.14
674.692
-118.438
-63.4961
52.2624
32.7837
67.2583
96.2489
20.6926
0.916943
39.8321
95.6111
392.979
-344.873
-101.605
-26.897
-1.74773
5.12543
3.91419
3.03622
1.87407
0.551445
-1.90521
-3.23958
-4.70708
-6.25048
-7.42414
-8.60186
-10.034
-11.4618
-12.7411
-14.1167
-15.4614
-15.7982
-19.3902
-2.8653
147.206
138.994
-6.01749
51.1726
185.475
85.3292
-0.624066
-2.66529
-0.58148
48.832
-4.50253
5.00416
-104.088
302.206
45.555
-1.48927
6.06522
-72.1653
8.41895
45.6247
1.12067
11.9824
-36.6167
-9.44006
48.5685
2.67396
16.3064
-0.514742
47.8052
54.8881
2.52655
15.5564
0.994322
41.3194
1077.98
719.229
-27.6544
-60.52
40.8112
28.202
11.308
-41.6176
18.7351
5.07614
-12.7657
100.401
563.133
6.08402
51.1431
8.33402
4.97638
4.56324
4.58592
3.40533
2.00817
0.519897
-1.67812
-3.16775
-4.62897
-5.93484
-7.35388
-8.65334
-9.98521
-11.3363
-12.5546
-13.7574
-14.7788
-13.6836
-17.7981
0.93789
-7.89021
138.159
-5.27341
67.4046
122.154
21.9358
2.0971
-1.07696
-0.469569
528.259
483.925
-22.6297
-53.5674
33.9142
17.7036
0.261163
-31.8951
15.8037
6.06575
-2.82062
-2.24637
357.679
175.546
54.9885
23.9127
11.6585
8.11827
6.19762
4.3108
2.56924
0.724885
-1.40952
-3.14511
-4.59125
-5.88959
-7.26554
-8.60799
-9.94873
-11.271
-12.4215
-13.4231
-14.1591
-11.4902
-16.9609
4.47501
-22.3108
42.9989
2.77597
75.5362
26.3184
-7.60194
2.57595
-0.415463
-0.377214
181.858
194.534
3.98611
-55.5468
24.5394
-0.5963
8.17371
23.4343
13.0193
5.36474
1.01536
-8.69712
64.869
154.326
55.9199
31.503
16.9239
11.1677
7.43335
4.86121
2.8131
0.783103
-1.25777
-3.03167
-4.543
-5.8623
-7.25235
-8.6123
-9.93237
-11.2079
-12.2932
-13.1685
-13.7791
-10.1167
-17.1909
5.96429
-19.4024
54.6518
22.7233
102.206
116.348
15.3163
1.20555
-0.111109
-0.360765
364.788
122.704
27.7352
-36.4659
22.8952
4.72655
15.145
9.07755
11.4944
4.75279
3.6994
-5.67924
-98.9754
56.1589
43.8705
35.305
20.0767
13.1939
8.50354
5.39506
3.05649
0.860432
-1.32184
-3.17787
-4.56037
-5.87189
-7.24848
-8.60258
-9.91477
-11.1675
-12.2139
-13.012
-13.5644
-9.3915
-15.9809
7.323
-19.4066
36.715
23.5105
118.464
160.892
21.6968
0.817134
0.08607
-0.333139
268.764
154.985
22.9748
-51.0108
21.3965
-9.66087
-50.5912
-16.9286
11.1765
4.8021
4.75723
-4.46069
-203.653
-23.7968
36.1074
36.7643
22.18
14.9096
9.6586
6.55609
4.1316
1.78505
-0.498065
-2.40183
-3.82582
-5.18942
-6.63293
-8.05419
-9.42802
-10.7327
-11.8072
-12.6176
-13.2632
-8.83481
-15.5175
7.57872
-16.2168
41.1334
28.0199
122.191
132.925
18.3218
2.37373
0.306468
-0.304309
)
;

boundaryField
{
    AirInlet
    {
        type            fixedFluxPressure;
        gradient        nonuniform List<scalar> 5(9.09466e+07 5.59968e+07 1.43769e+08 1.55851e+08 8.86344e+07);
        value           nonuniform List<scalar> 5(3852.72 3617.48 4517.17 4649.61 3256.48);
    }
    WaterInlet
    {
        type            fixedFluxPressure;
        gradient        nonuniform List<scalar> 10(-0.0366404 -0.341613 -11.6099 0.785835 6.80956 -0.0393454 -4.60629 0.508324 -0.101671 0.198141);
        value           nonuniform List<scalar> 10(209.541 203.931 201.701 202.573 206.57 48.832 45.555 45.6247 48.5685 54.8881);
    }
    ChannelWall
    {
        type            fixedFluxPressure;
        gradient        uniform 0;
        value           nonuniform List<scalar> 
110
(
206.57
185.316
139.988
191.401
408.936
48.832
-4.50253
5.00416
-104.088
302.206
54.8881
2.52655
15.5564
0.994322
41.3194
268.764
154.985
22.9748
-51.0108
21.3965
-9.66087
-50.5912
-16.9286
11.1765
4.8021
4.75723
-4.46069
-203.653
-23.7968
36.1074
36.7643
22.18
14.9096
9.6586
6.55609
4.1316
1.78505
-0.498065
-2.40183
-3.82582
-5.18942
-6.63293
-8.05419
-9.42802
-10.7327
-11.8072
-12.6176
-13.2632
-8.83481
-15.5175
7.57872
-16.2168
41.1334
28.0199
122.191
132.925
18.3218
2.37373
0.306468
-0.304309
209.541
189.025
127.017
183.602
34.1721
560.353
240.1
99.4127
-5.07509
78.6379
38.2194
49.0841
28.6641
35.5084
34.3723
34.6779
44.5822
181.992
263.977
63.8852
21.2387
5.27336
1.95176
1.29745
0.884691
-0.0979732
-0.912781
-1.81121
-2.46738
-3.76794
-5.19916
-6.55881
-8.04519
-9.60556
-11.3113
-13.1818
-15.5481
-18.0561
-22.4027
-26.2627
-38.3943
-48.2275
-57.3796
-66.1528
-83.8134
-106.841
-2.79751
-0.541545
-0.323311
-0.0314024
)
;
    }
    Outlet
    {
        type            totalPressure;
        rho             rho;
        psi             none;
        gamma           1;
        p0              uniform 0;
        value           nonuniform List<scalar> 
15
(
-0.0171992
-0.0757057
-0.104297
-0.0659495
-0.00266293
0
0
0
0
0
0
0
0
0
0
)
;
    }
    FrontAndBack
    {
        type            empty;
    }
}


// ************************************************************************* //
