/*--------------------------------*- C++ -*----------------------------------*\
| =========                 |                                                 |
| \\      /  F ield         | OpenFOAM: The Open Source CFD Toolbox           |
|  \\    /   O peration     | Version:  2.3.0                                 |
|   \\  /    A nd           | Web:      www.OpenFOAM.org                      |
|    \\/     M anipulation  |                                                 |
\*---------------------------------------------------------------------------*/
FoamFile
{
    version     2.0;
    format      ascii;
    class       surfaceScalarField;
    location    "0.07";
    object      phi;
}
// * * * * * * * * * * * * * * * * * * * * * * * * * * * * * * * * * * * * * //

dimensions      [0 3 -1 0 0 0 0];

internalField   nonuniform List<scalar> 
1380
(
3.03257e-13
1.96743e-13
2.32471e-13
7.07862e-14
1.00162e-13
1.32309e-13
-9.35426e-13
1.03559e-12
1.74816e-12
-2.68359e-12
5.96935e-13
9.98076e-14
5.71802e-13
9.59193e-14
6.04853e-13
9.92583e-14
-3.45315e-14
1.67497e-12
1.41107e-12
3.02561e-13
6.87504e-13
-8.76959e-14
7.29459e-13
5.39641e-14
8.61368e-13
-3.26508e-14
1.11095e-12
1.42539e-12
4.59894e-13
2.06212e-12
6.04536e-13
-1.92232e-13
6.55525e-13
2.97482e-15
7.67736e-13
-1.44861e-13
1.72347e-12
4.69658e-13
-1.43765e-12
3.62101e-12
3.07768e-13
3.10743e-13
1.65882e-13
6.35539e-13
-8.0211e-13
-5.54707e-14
-2.62812e-12
-6.95426e-13
6.39956e-13
-1.23278e-12
5.37355e-13
-7.02814e-13
-5.29967e-13
-4.87086e-14
-6.54106e-13
4.99401e-13
-5.4811e-13
1.62037e-12
-1.12097e-12
3.42498e-12
-1.80461e-12
5.31421e-12
-1.88923e-12
8.41743e-12
-3.10322e-12
2.47022e-12
5.94722e-12
1.13182e-12
1.3384e-12
-1.24609e-12
2.37791e-12
-3.78094e-13
-8.67997e-13
4.03428e-14
-4.18437e-13
1.8407e-13
-1.43727e-13
1.76337e-13
7.73213e-15
1.59543e-13
1.67941e-14
1.5222e-13
7.32306e-15
1.50422e-13
1.7984e-15
1.42234e-13
8.18742e-15
1.39269e-13
2.96588e-15
1.36447e-13
2.82112e-15
1.4524e-13
-8.79267e-15
1.48198e-13
-2.95767e-15
1.46403e-13
1.79418e-15
1.4658e-13
-1.77012e-16
1.47699e-13
-1.11842e-15
1.5037e-13
-2.67114e-15
1.54001e-13
-3.63076e-15
1.60383e-13
-6.38237e-15
1.66637e-13
-6.25381e-15
1.81828e-13
-1.51914e-14
1.91903e-13
-1.00744e-14
2.50385e-13
-5.84826e-14
2.21503e-13
2.88826e-14
2.74323e-14
1.94071e-13
-3.33677e-13
3.61109e-13
-5.81105e-13
2.47428e-13
-8.8884e-13
3.07736e-13
-4.31288e-12
3.42404e-12
-4.77857e-12
4.65686e-13
-2.62221e-12
-2.15635e-12
-1.92322e-12
-6.98997e-13
-2.42141e-13
3.53167e-12
-5.85723e-12
5.63354e-13
3.60827e-12
-1.36444e-12
2.46515e-12
-9.13319e-13
-9.81087e-13
-2.63794e-14
-1.54105e-12
6.06632e-13
-1.18112e-12
1.1012e-12
-1.61554e-12
1.23857e-12
-1.94198e-12
8.54042e-12
-9.19108e-12
1.68451e-11
-1.14079e-11
7.36594e-12
1.54264e-11
1.69812e-12
7.00623e-12
-1.3093e-12
5.38533e-12
-1.40015e-13
-2.03729e-12
4.88387e-13
-1.04684e-12
5.77208e-13
-2.32547e-13
5.00695e-13
8.42451e-14
4.37447e-13
8.00413e-14
4.06586e-13
3.81843e-14
3.93333e-13
1.50516e-14
3.74086e-13
2.74341e-14
3.66071e-13
1.0981e-14
3.6532e-13
3.5725e-15
3.82284e-13
-2.57572e-14
3.88001e-13
-8.67418e-15
3.851e-13
4.69479e-15
3.85152e-13
-2.29578e-16
3.87141e-13
-3.10732e-15
3.91879e-13
-7.40877e-15
3.99232e-13
-1.09839e-14
4.10935e-13
-1.80852e-14
4.27063e-13
-2.23823e-14
4.60427e-13
-4.85552e-14
5.01757e-13
-5.14045e-14
6.42942e-13
-1.99667e-13
6.32949e-13
3.88753e-14
3.20187e-13
5.06833e-13
-2.74908e-13
9.56203e-13
-6.45126e-13
6.17646e-13
-6.95722e-13
3.58332e-13
-2.56402e-12
5.29234e-12
-5.97791e-12
3.87957e-12
-5.03884e-12
-3.09542e-12
-4.0677e-12
-1.67013e-12
-7.97902e-13
3.03002e-12
-6.82513e-12
-7.05071e-13
7.34336e-12
-1.87535e-12
3.63543e-12
-8.83448e-13
-1.97299e-12
1.05144e-13
-2.52964e-12
6.04611e-13
-1.68059e-12
6.55024e-13
-1.66595e-12
-3.50835e-13
-9.36118e-13
8.58753e-12
-1.81294e-11
1.80495e-11
-2.08699e-11
9.82869e-12
2.36472e-11
5.75149e-12
1.10834e-11
1.59026e-12
9.54656e-12
9.8074e-13
-1.42776e-12
1.01084e-12
-1.07694e-12
8.89558e-13
-1.11266e-13
7.32106e-13
2.41697e-13
6.41172e-13
1.70975e-13
5.96778e-13
8.25782e-14
5.75992e-13
3.58378e-14
5.52335e-13
5.10908e-14
5.36584e-13
2.67328e-14
5.47786e-13
-7.62955e-15
5.67608e-13
-4.558e-14
5.74369e-13
-1.54346e-14
5.70501e-13
8.56309e-15
5.70149e-13
1.22475e-16
5.71234e-13
-4.19285e-15
5.75344e-13
-1.15183e-14
5.83026e-13
-1.8666e-14
5.95859e-13
-3.09184e-14
6.17678e-13
-4.42017e-14
6.63015e-13
-9.38917e-14
7.54815e-13
-1.43204e-13
9.44865e-13
-3.89717e-13
9.34049e-13
4.96907e-14
6.7457e-13
7.66312e-13
1.73867e-13
1.45691e-12
-1.18782e-13
9.10295e-13
6.73404e-15
2.32816e-13
-1.08865e-12
6.38772e-12
-4.37425e-12
7.16518e-12
-4.60032e-12
-2.86935e-12
-4.61336e-12
-1.65709e-12
-1.2912e-12
7.47391e-14
-3.27885e-12
-2.83335e-12
1.02515e-11
-1.81091e-12
2.61299e-12
-3.77862e-13
-3.40603e-12
3.55534e-13
-3.26303e-12
5.63712e-13
-1.88877e-12
4.8282e-13
-1.58506e-12
2.27035e-12
-2.72365e-12
7.32712e-12
-2.31862e-11
1.19955e-11
-2.55382e-11
8.25524e-12
2.73874e-11
1.31984e-11
6.14023e-12
2.65821e-12
2.00868e-11
2.14801e-12
-9.1756e-13
1.62721e-12
-5.5614e-13
1.13171e-12
3.84235e-13
8.73301e-13
5.00101e-13
7.74105e-13
2.70171e-13
7.26172e-13
1.30511e-13
7.04831e-13
5.71789e-14
6.76478e-13
7.94445e-14
6.61918e-13
4.12924e-14
6.78118e-13
-2.38295e-14
7.00017e-13
-6.74794e-14
7.06237e-13
-2.16544e-14
7.03267e-13
1.15328e-14
7.01551e-13
1.83902e-15
7.00387e-13
-3.02927e-15
7.01717e-13
-1.28485e-14
7.06893e-13
-2.38422e-14
7.196e-13
-4.3625e-14
7.43639e-13
-6.82411e-14
7.97027e-13
-1.47279e-13
9.70332e-13
-3.16509e-13
1.21781e-12
-6.37197e-13
1.13865e-12
1.28854e-13
9.5884e-13
9.4612e-13
6.34516e-13
1.78123e-12
2.29652e-13
1.31516e-12
3.0045e-13
1.62018e-13
1.24193e-12
5.44624e-12
1.10616e-13
8.29649e-12
-2.51005e-12
-2.48685e-13
-3.6517e-12
-5.1544e-13
-1.66298e-12
-4.66793e-12
5.86963e-13
-3.12667e-12
8.71019e-12
1.09304e-13
-6.22983e-13
1.18361e-12
-4.48034e-12
9.27858e-13
-3.00728e-12
7.26948e-13
-1.68785e-12
6.09744e-13
-1.46786e-12
4.07861e-12
-6.19252e-12
9.37111e-13
-2.00447e-11
-7.89782e-13
-2.38113e-11
-5.27178e-12
3.18694e-11
-8.79244e-12
9.66089e-12
1.97557e-12
9.31878e-12
3.9603e-12
-2.90229e-12
2.27203e-12
1.13213e-12
1.2548e-12
1.40146e-12
9.14654e-13
8.40243e-13
8.37611e-13
3.47215e-13
7.96103e-13
1.72019e-13
7.66266e-13
8.70163e-14
7.51898e-13
9.38125e-14
7.43993e-13
4.91967e-14
7.65989e-13
-4.5825e-14
7.79576e-13
-8.10669e-14
7.83426e-13
-2.55047e-14
7.79925e-13
1.50346e-14
7.78966e-13
2.79763e-15
7.75857e-13
7.97135e-17
7.7444e-13
-1.14312e-14
7.76874e-13
-2.62767e-14
7.83589e-13
-5.03399e-14
8.07425e-13
-9.20775e-14
8.53935e-13
-1.93789e-13
1.07859e-12
-5.41165e-13
1.3462e-12
-9.04805e-13
1.13882e-12
3.36238e-13
1.39443e-12
6.90502e-13
1.24377e-12
1.93189e-12
1.03655e-12
1.52239e-12
6.15935e-13
5.8263e-13
2.81927e-13
5.78025e-12
2.09265e-12
6.48577e-12
1.50691e-12
3.37055e-13
-1.17857e-12
2.17004e-12
-2.17257e-12
-7.91055e-13
1.57802e-12
1.86222e-14
7.90051e-12
8.62501e-13
-1.46686e-12
6.48598e-13
-4.26644e-12
2.99791e-13
-2.65848e-12
1.98608e-13
-1.58667e-12
1.64345e-13
-1.4336e-12
-4.91278e-13
-5.53689e-12
-1.41932e-12
-1.91167e-11
-2.48026e-12
-2.27504e-11
-2.85133e-12
3.22404e-11
-2.9968e-12
9.80636e-12
9.6909e-13
5.35289e-12
6.62614e-13
-2.59582e-12
3.33347e-13
1.4614e-12
2.2937e-13
1.50544e-12
1.93378e-13
8.76235e-13
1.84789e-13
3.55804e-13
1.78828e-13
1.7798e-13
1.73683e-13
9.21613e-14
1.72915e-13
9.45801e-14
1.75743e-13
4.63689e-14
1.76211e-13
-4.62934e-14
1.76284e-13
-8.11403e-14
1.75944e-13
-2.51644e-14
1.76687e-13
1.42917e-14
1.7672e-13
2.76465e-15
1.76347e-13
4.53167e-16
1.76015e-13
-1.10991e-14
1.76502e-13
-2.67638e-14
1.76912e-13
-5.07506e-14
1.80475e-13
-9.56401e-14
1.85179e-13
-1.98493e-13
2.26121e-13
-5.82107e-13
2.43921e-13
-9.22605e-13
2.1993e-13
3.60228e-13
3.1703e-13
5.93402e-13
3.54109e-13
1.89481e-12
2.90828e-13
1.58567e-12
-2.24104e-15
8.75699e-13
5.77262e-13
5.20075e-12
1.09656e-12
5.96647e-12
6.57767e-13
7.75852e-13
3.12551e-13
2.51526e-12
-2.30824e-12
3.88698e-13
1.38932e-12
5.68088e-13
7.72112e-12
1.15936e-12
-2.05813e-12
7.58985e-13
-3.86606e-12
3.22261e-13
-2.22175e-12
1.91373e-13
-1.45578e-12
9.21707e-14
-1.33439e-12
-7.10205e-13
-4.73452e-12
-1.75123e-12
-1.80756e-11
-3.07222e-12
-2.14294e-11
-3.19848e-12
3.23667e-11
-1.58217e-12
8.19006e-12
1.00014e-13
3.6707e-12
-3.31063e-14
-2.46269e-12
2.02381e-13
1.22591e-12
2.08434e-13
1.49939e-12
1.88653e-13
8.96016e-13
1.83743e-13
3.60715e-13
1.78802e-13
1.82921e-13
1.7418e-13
9.6783e-14
1.74856e-13
9.39043e-14
1.77559e-13
4.36653e-14
1.77489e-13
-4.62226e-14
1.7645e-13
-8.01013e-14
1.76368e-13
-2.50823e-14
1.77396e-13
1.32629e-14
1.77454e-13
2.70713e-15
1.77174e-13
7.33361e-16
1.76867e-13
-1.07927e-14
1.77258e-13
-2.71548e-14
1.77371e-13
-5.08633e-14
1.80033e-13
-9.8302e-14
1.8277e-13
-2.0123e-13
2.10845e-13
-6.10182e-13
2.3152e-13
-9.4328e-13
1.81822e-13
4.09926e-13
3.26837e-13
4.48388e-13
4.05377e-13
1.81627e-12
3.32253e-13
1.65879e-12
-6.83424e-14
1.27629e-12
4.16301e-13
4.7161e-12
8.58378e-13
5.52439e-12
4.01943e-13
1.23229e-12
4.92962e-13
2.42424e-12
-2.5331e-12
-1.82167e-14
1.60754e-12
1.25402e-12
6.44889e-12
1.38114e-12
-2.18526e-12
8.21378e-13
-3.3063e-12
3.35906e-13
-1.73628e-12
1.8208e-13
-1.30196e-12
8.56369e-14
-1.23795e-12
-2.75615e-13
-4.37327e-12
-1.96497e-12
-1.63863e-11
-3.43931e-12
-1.9955e-11
-3.09666e-12
3.20241e-11
-2.67664e-13
5.36106e-12
-1.07231e-12
4.47535e-12
-6.93987e-13
-2.84102e-12
4.53786e-14
4.86545e-13
1.90032e-13
1.35473e-12
1.84013e-13
9.02035e-13
1.82222e-13
3.62506e-13
1.7826e-13
1.86882e-13
1.73621e-13
1.01422e-13
1.74174e-13
9.33516e-14
1.77326e-13
4.0513e-14
1.77629e-13
-4.6525e-14
1.76269e-13
-7.87416e-14
1.76217e-13
-2.50308e-14
1.77337e-13
1.2143e-14
1.7757e-13
2.47406e-15
1.77396e-13
9.0767e-16
1.77126e-13
-1.05222e-14
1.77405e-13
-2.74345e-14
1.77219e-13
-5.06771e-14
1.78851e-13
-9.9934e-14
1.7966e-13
-2.02038e-13
1.93798e-13
-6.24321e-13
1.59075e-13
-9.08557e-13
1.57281e-13
4.1172e-13
3.22049e-13
2.83619e-13
4.31273e-13
1.70705e-12
3.91269e-13
1.69879e-12
2.66963e-15
1.66489e-12
3.67879e-13
4.35089e-12
-2.32384e-13
6.12465e-12
-2.08918e-13
1.20882e-12
5.62138e-13
1.65318e-12
-2.65285e-12
8.99781e-13
9.07756e-13
1.56296e-12
5.78571e-12
1.43701e-12
-2.05931e-12
8.21789e-13
-2.69108e-12
3.38793e-13
-1.25328e-12
1.93126e-13
-1.15629e-12
8.33877e-14
-1.12821e-12
-5.6199e-13
-3.72789e-12
-1.98047e-12
-1.49678e-11
-3.23515e-12
-1.87003e-11
-2.54979e-12
3.13387e-11
-2.79616e-13
3.09089e-12
-3.3145e-14
4.22888e-12
-4.22721e-13
-2.45145e-12
6.71861e-14
-3.36225e-15
1.76446e-13
1.24548e-12
1.78996e-13
8.99485e-13
1.80188e-13
3.61314e-13
1.77053e-13
1.90017e-13
1.73454e-13
1.05021e-13
1.74533e-13
9.22727e-14
1.77929e-13
3.71175e-14
1.77978e-13
-4.6574e-14
1.76176e-13
-7.69398e-14
1.75916e-13
-2.4771e-14
1.76717e-13
1.13419e-14
1.77031e-13
2.16025e-15
1.77039e-13
9.00138e-16
1.76761e-13
-1.02442e-14
1.76822e-13
-2.74959e-14
1.76229e-13
-5.00844e-14
1.7681e-13
-1.00514e-13
1.75805e-13
-2.01034e-13
1.71854e-13
-6.20369e-13
1.18262e-13
-8.54965e-13
1.33998e-13
3.95983e-13
3.56161e-13
6.14564e-14
4.41886e-13
1.62132e-12
4.36924e-13
1.70376e-12
1.80163e-13
1.92165e-12
4.63508e-13
4.06755e-12
-1.45935e-12
8.04751e-12
-6.65273e-13
4.14746e-13
6.17798e-13
3.70111e-13
-2.75107e-12
5.13029e-13
5.94727e-13
1.40094e-12
4.8978e-12
1.31916e-12
-1.97754e-12
7.61746e-13
-2.13366e-12
3.33452e-13
-8.2499e-13
1.95683e-13
-1.01852e-12
1.82976e-13
-1.11551e-12
-2.39426e-13
-3.30549e-12
-1.90195e-12
-1.33053e-11
-3.78386e-12
-1.68184e-11
-2.32858e-12
2.98834e-11
7.06103e-13
5.62052e-14
6.53354e-13
4.28163e-12
2.13742e-14
-1.81947e-12
1.22468e-13
-1.04456e-13
1.67292e-13
1.20065e-12
1.74373e-13
8.92404e-13
1.77336e-13
3.58351e-13
1.7527e-13
1.92084e-13
1.72956e-13
1.07335e-13
1.745e-13
9.07283e-14
1.77899e-13
3.37189e-14
1.77634e-13
-4.63091e-14
1.75452e-13
-7.47583e-14
1.75003e-13
-2.43212e-14
1.75701e-13
1.0644e-14
1.75931e-13
1.93021e-15
1.75928e-13
9.02468e-16
1.75599e-13
-9.9151e-15
1.7546e-13
-2.73565e-14
1.74533e-13
-4.91577e-14
1.74101e-13
-1.00082e-13
1.71308e-13
-1.98241e-13
1.54361e-13
-6.03422e-13
9.02805e-14
-7.90884e-13
1.01051e-13
3.85212e-13
3.32548e-13
-1.7004e-13
4.26156e-13
1.52771e-12
4.43474e-13
1.68644e-12
2.41949e-13
2.12318e-12
4.17492e-13
3.89201e-12
-1.24419e-12
9.70919e-12
-5.53377e-13
-2.76068e-13
6.83509e-13
-8.66776e-13
-2.82485e-12
3.07317e-13
1.92683e-13
3.0495e-13
2.36621e-15
2.31499e-13
7.34509e-14
1.31042e-12
-1.07893e-12
-8.41375e-15
1.31884e-12
6.021e-13
9.05835e-14
6.49106e-13
-4.46403e-14
7.78446e-13
-5.5889e-14
1.38669e-12
-1.68717e-12
6.31285e-13
7.46994e-13
6.85168e-13
-9.45843e-14
7.19064e-13
-7.8536e-14
7.70694e-13
-1.07519e-13
5.14112e-13
-1.43059e-12
2.90524e-13
8.54873e-13
5.96604e-13
-1.91188e-13
5.73006e-13
-5.49377e-14
4.7819e-13
-1.27037e-14
-5.79572e-13
-3.72828e-13
6.28953e-13
-9.18e-13
3.08812e-13
2.53874e-13
2.4117e-13
-1.31658e-13
4.97295e-13
-1.91516e-12
3.82872e-12
2.80753e-12
1.75114e-13
3.46823e-12
-2.63824e-12
2.2667e-12
-9.32117e-13
1.31865e-12
1.23054e-13
7.47614e-13
-4.47484e-13
4.84677e-13
-8.52569e-13
-1.29584e-14
-2.80785e-12
-7.14651e-12
-6.17173e-12
-1.56326e-11
-8.33234e-12
-2.73679e-12
1.69876e-11
1.3069e-12
-3.98749e-12
6.10737e-12
-5.18841e-13
2.93533e-12
1.35258e-12
1.07637e-12
1.7545e-12
6.66621e-13
1.6104e-12
7.24694e-13
8.34331e-13
7.45269e-13
3.37775e-13
7.60335e-13
1.77018e-13
7.63757e-13
1.03913e-13
7.77374e-13
7.71107e-14
7.92444e-13
1.86495e-14
7.87198e-13
-4.10639e-14
7.71347e-13
-5.89071e-14
7.66708e-13
-1.96824e-14
7.70301e-13
7.05126e-15
7.70046e-13
2.18533e-15
7.7066e-13
2.8865e-16
7.68905e-13
-8.16e-15
7.64989e-13
-2.34412e-14
7.57901e-13
-4.20692e-14
7.44256e-13
-8.64376e-14
7.01026e-13
-1.55011e-13
5.3244e-13
-4.34837e-13
1.55864e-13
-4.14307e-13
1.0153e-13
4.39545e-13
5.33093e-13
-6.01603e-13
1.25345e-12
8.07358e-13
1.55094e-12
1.38895e-12
1.28907e-12
2.38505e-12
2.01186e-12
3.16922e-12
5.70068e-12
6.02037e-12
3.81129e-12
1.61332e-12
4.07775e-12
-1.13323e-12
-2.66851e-12
-4.39723e-13
5.01544e-12
2.02278e-12
-2.28739e-12
1.69136e-12
-2.30682e-12
1.09893e-12
-3.39682e-13
8.62872e-13
3.59109e-13
4.89753e-13
-7.43646e-14
-9.47806e-14
-2.68035e-13
-3.37389e-13
-2.56524e-12
-4.85024e-12
-1.65888e-12
-1.26216e-11
-5.60945e-13
-9.3137e-12
1.36797e-11
-1.76133e-12
-1.15398e-11
1.58521e-12
-3.86538e-12
5.24273e-13
2.41351e-12
1.69332e-13
2.10944e-12
3.62533e-13
1.4172e-12
5.53756e-13
6.43108e-13
6.25523e-13
2.66008e-13
6.65185e-13
1.37357e-13
6.88404e-13
8.06945e-14
7.10212e-13
5.53023e-14
7.19421e-13
9.44044e-15
7.09873e-13
-3.15162e-14
6.92344e-13
-4.13781e-14
6.85588e-13
-1.29257e-14
6.87316e-13
5.3225e-15
6.87596e-13
1.90546e-15
6.88429e-13
-5.43828e-16
6.86708e-13
-6.43939e-15
6.8078e-13
-1.75132e-14
6.69422e-13
-3.07112e-14
6.44931e-13
-6.19462e-14
5.86876e-13
-9.69559e-14
3.88147e-13
-2.36107e-13
7.00292e-14
-9.61899e-14
-1.33186e-13
6.42761e-13
-2.04052e-13
-5.30737e-13
5.92178e-13
1.11279e-14
1.179e-12
8.02124e-13
1.27255e-12
2.29149e-12
1.6059e-12
2.83587e-12
5.06999e-12
2.55629e-12
5.26089e-12
1.42242e-12
4.85155e-12
-7.23896e-13
-2.11462e-12
2.53978e-12
3.33053e-12
1.77475e-12
-1.52235e-12
7.69367e-13
-1.30144e-12
4.40414e-13
-1.07287e-14
5.58302e-13
2.41221e-13
5.13648e-13
-2.97106e-14
5.86012e-13
-3.40399e-13
4.71156e-13
-2.45039e-12
-2.00467e-12
8.16939e-13
-5.64682e-12
3.08121e-12
-2.22726e-12
1.02601e-11
-5.09365e-12
-8.67346e-12
-2.15982e-12
-6.79922e-12
-1.30364e-12
1.55733e-12
-4.55864e-13
1.26167e-12
9.75946e-14
8.63738e-13
3.63542e-13
3.77161e-13
4.69483e-13
1.60068e-13
5.27193e-13
7.96461e-14
5.62331e-13
4.55571e-14
5.86403e-13
3.12304e-14
5.90958e-13
4.8853e-15
5.79387e-13
-1.9946e-14
5.61148e-13
-2.31385e-14
5.54224e-13
-6.00226e-15
5.56262e-13
3.2851e-15
5.57077e-13
1.09044e-15
5.57091e-13
-5.57511e-16
5.54544e-13
-3.89262e-15
5.474e-13
-1.03689e-14
5.33982e-13
-1.72936e-14
5.06625e-13
-3.45893e-14
4.56068e-13
-4.63992e-14
3.12923e-13
-9.29611e-14
1.77963e-13
3.877e-14
1.80457e-13
6.40266e-13
-2.52459e-14
-3.25034e-13
4.50738e-13
-4.64856e-13
9.2706e-13
3.25802e-13
1.46703e-12
1.75152e-12
1.9893e-12
2.3136e-12
2.80063e-12
1.74496e-12
4.48658e-12
-2.63531e-13
4.55905e-12
-7.9636e-13
-1.41088e-12
1.10356e-12
1.30897e-12
1.31829e-12
-1.73708e-12
4.27887e-13
-4.11043e-13
1.3359e-13
2.83568e-13
2.88325e-13
8.64862e-14
2.32157e-13
2.6458e-14
-4.70518e-15
-1.03537e-13
-1.39699e-12
-1.0581e-12
-1.34829e-12
7.68241e-13
1.49728e-13
1.58319e-12
5.65857e-12
4.75126e-12
2.70712e-13
-3.2856e-12
-2.55932e-12
-3.96919e-12
-1.48338e-12
4.81395e-13
-6.20993e-13
3.99282e-13
-6.84415e-14
3.11186e-13
1.83533e-13
1.25186e-13
2.90982e-13
5.26191e-14
3.48579e-13
2.20486e-14
3.80062e-13
1.40741e-14
4.01336e-13
9.95742e-15
4.0486e-13
1.36079e-15
3.92001e-13
-7.08742e-15
3.76824e-13
-7.96091e-15
3.72562e-13
-1.74044e-15
3.74524e-13
1.32323e-15
3.75329e-13
2.8569e-16
3.75027e-13
-2.56199e-16
3.72425e-13
-1.2899e-15
3.65619e-13
-3.56339e-15
3.53733e-13
-5.40758e-15
3.30291e-13
-1.11468e-14
2.96486e-13
-1.25945e-14
2.20466e-13
-1.6941e-14
2.06682e-13
5.25542e-14
4.75643e-13
3.71306e-13
2.53402e-13
-1.02793e-13
1.72611e-13
-3.84065e-13
4.10948e-13
8.74653e-14
1.32254e-12
8.39934e-13
1.95024e-12
1.68589e-12
2.31535e-12
1.37985e-12
3.54896e-12
-1.49714e-12
3.53536e-12
-7.82762e-13
-6.49482e-13
1.80626e-12
6.91869e-14
-3.41856e-13
-5.82878e-14
2.81984e-14
5.46564e-14
-4.8881e-14
-1.10699e-12
-3.38743e-13
1.24445e-12
5.99571e-12
2.71011e-12
-1.25908e-12
-7.77687e-13
-3.78405e-13
-6.72188e-14
5.79674e-14
1.10587e-13
1.32635e-13
1.46709e-13
1.56667e-13
1.58028e-13
1.5094e-13
1.42979e-13
1.41239e-13
1.42562e-13
1.42848e-13
1.42592e-13
1.41302e-13
1.37738e-13
1.32331e-13
1.21184e-13
1.08589e-13
9.16484e-14
1.44203e-13
5.15508e-13
4.12715e-13
2.86505e-14
1.16116e-13
9.5605e-13
2.64194e-12
4.02179e-12
2.52465e-12
1.74189e-12
)
;

boundaryField
{
    AirInlet
    {
        type            calculated;
        value           nonuniform List<scalar> 5(-2e-13 -2e-13 -2e-13 -2e-13 -2e-13);
    }
    WaterInlet
    {
        type            calculated;
        value           nonuniform List<scalar> 10(-5e-13 -5e-13 -5e-13 -5e-13 -5e-13 -5e-13 -5e-13 -5e-13 -5e-13 -5e-13);
    }
    ChannelWall
    {
        type            calculated;
        value           uniform 0;
    }
    Outlet
    {
        type            calculated;
        value           nonuniform List<scalar> 
15
(
-1.68108e-12
-3.51194e-12
-4.12006e-12
-3.27993e-12
-6.68981e-13
4.48219e-13
7.17817e-13
6.8189e-13
7.1602e-13
7.57289e-13
3.92141e-12
4.29766e-12
3.85531e-12
2.77396e-12
1.0924e-12
)
;
    }
    FrontAndBack
    {
        type            empty;
        value           nonuniform 0();
    }
}


// ************************************************************************* //
