/*--------------------------------*- C++ -*----------------------------------*\
| =========                 |                                                 |
| \\      /  F ield         | OpenFOAM: The Open Source CFD Toolbox           |
|  \\    /   O peration     | Version:  2.3.0                                 |
|   \\  /    A nd           | Web:      www.OpenFOAM.org                      |
|    \\/     M anipulation  |                                                 |
\*---------------------------------------------------------------------------*/
FoamFile
{
    version     2.0;
    format      ascii;
    class       volVectorField;
    location    "0.07";
    object      U;
}
// * * * * * * * * * * * * * * * * * * * * * * * * * * * * * * * * * * * * * //

dimensions      [0 1 -1 0 0 0 0];

internalField   nonuniform List<vector> 
725
(
(0.0408835 0.00759744 -2.19478e-31)
(0.0692892 0.00244871 4.87018e-32)
(-0.0126747 0.00369211 -2.35001e-32)
(0.0520411 0.0240417 0)
(-0.338215 0.0436812 2.06159e-31)
(0.0810837 0.0143697 -9.37972e-31)
(0.13441 0.0130889 1.5048e-31)
(0.0166998 0.0081609 2.05149e-31)
(0.177166 0.0836126 0)
(-0.1991 0.0846267 -7.20851e-30)
(0.0937618 0.00971425 -1.59014e-31)
(0.153223 0.0194166 -3.81796e-32)
(0.0448169 0.00696558 8.84408e-31)
(0.21669 0.10661 0)
(0.0305201 0.0695087 -5.90866e-30)
(0.0837569 0.00267287 1.38568e-30)
(0.132098 0.0197339 -1.25541e-32)
(0.0468793 0.000317211 2.28051e-30)
(0.182349 0.0787315 0)
(0.293089 -0.0021132 -1.79005e-29)
(0.0432229 0.000769759 1.44185e-30)
(0.0647968 0.0120885 -2.7789e-32)
(0.0166744 -0.00229026 9.94684e-31)
(0.0286048 0.0110834 2.71278e-30)
(0.159528 -0.0391415 -1.5645e-29)
(-0.135412 -0.0415613 0)
(0.103568 0.00649921 0)
(-0.226512 -0.00751402 0)
(-0.0777045 -0.00916418 0)
(-0.0533949 -0.0120264 0)
(0.0374685 -0.0104223 0)
(0.0879201 -0.0296206 0)
(0.214187 -0.0536441 0)
(0.434868 -0.0746828 0)
(0.884007 -0.0214434 0)
(0.749868 0.137903 0)
(0.220741 -0.148324 0)
(-0.209686 0.0596151 0)
(-0.0857292 -0.0222977 0)
(-0.00660908 -0.00685124 0)
(0.0186798 -0.00341356 0)
(0.0212755 -0.000515592 0)
(0.0181945 -0.000136059 0)
(0.0170384 -8.4275e-05 0)
(0.0168052 -9.68289e-05 0)
(0.0162283 8.37591e-05 0)
(0.0155335 9.803e-07 0)
(0.0151484 5.88434e-05 0)
(0.0156132 -0.000149174 0)
(0.0164198 -3.59333e-05 0)
(0.0163796 3.53031e-05 0)
(0.0162464 -7.87262e-06 0)
(0.0163206 -1.32912e-05 0)
(0.016539 -3.67729e-05 0)
(0.0168526 -3.64029e-05 0)
(0.0175221 -9.77476e-05 0)
(0.0178466 -2.55573e-05 0)
(0.0197103 -0.000210767 0)
(0.0198895 4.27283e-05 0)
(0.024405 -0.000657319 0)
(0.0288484 0.00104079 0)
(0.0218644 0.00285206 0)
(-0.0161614 0.00546998 0)
(-0.057359 0.00468563 0)
(-0.0771599 0.00729621 0)
(-0.118921 0.0820599 0)
(-0.694806 0.057187 0)
(-0.407021 -0.0194778 0)
(-0.238176 -0.00833121 0)
(-0.18828 -0.00324285 0)
(0.29468 -0.253162 0)
(0.391342 0.0774203 0)
(-0.225846 0.0618888 0)
(-0.112823 -0.0383684 0)
(-0.0637772 -0.0539007 0)
(0.0539502 -0.044233 0)
(0.0871335 -0.0712953 0)
(0.15157 -0.0890751 0)
(0.207427 -0.20516 0)
(1.57273 -0.255549 0)
(1.86713 0.569453 0)
(0.311238 0.24382 0)
(-0.185866 0.125766 0)
(-0.0795156 -0.0879709 0)
(0.04199 -0.0367265 0)
(0.0642291 -0.0105436 0)
(0.0609822 0.00125612 0)
(0.050927 0.00191506 0)
(0.0461094 0.000881032 0)
(0.0443504 0.000303424 0)
(0.0425524 0.000795697 0)
(0.0407961 0.000278277 0)
(0.0402494 0.000274276 0)
(0.0415662 -0.000783941 0)
(0.0430607 -0.000269095 0)
(0.0429849 0.000153815 0)
(0.0427222 -1.51592e-05 0)
(0.0428411 -0.000108065 0)
(0.0432345 -0.000247781 0)
(0.0438154 -0.000349974 0)
(0.0451253 -0.000577105 0)
(0.0457823 -0.000638457 0)
(0.0499898 -0.00140717 0)
(0.0510799 -0.00109533 0)
(0.0629443 -0.00555876 0)
(0.0758484 0.0020424 0)
(0.0674327 0.0178855 0)
(0.00128269 0.0326375 0)
(-0.0640164 0.0206829 0)
(-0.0696922 0.0269739 0)
(-0.104957 0.236721 0)
(-0.549376 0.0209143 0)
(-0.671029 -0.16301 0)
(-0.483972 -0.0650017 0)
(-0.395302 -0.0254613 0)
(0.408566 -0.366288 0)
(0.220094 0.262722 0)
(-0.338637 0.174262 0)
(-0.12152 -0.0660663 0)
(-0.0495099 -0.101773 0)
(0.0646629 -0.0737651 0)
(0.0746282 -0.0871183 0)
(0.0912722 -0.0920423 0)
(-0.0392756 -0.632905 0)
(1.49969 -0.709586 0)
(2.17756 1.03678 0)
(0.673526 0.507899 0)
(0.179714 0.445115 0)
(0.112677 -0.0854159 0)
(0.125344 -0.0597005 0)
(0.106011 -0.0118964 0)
(0.0891168 0.00721448 0)
(0.0745844 0.00607723 0)
(0.0677652 0.00293501 0)
(0.0649992 0.00121569 0)
(0.0625566 0.00192278 0)
(0.0600091 0.000887649 0)
(0.0597723 6.78819e-06 0)
(0.0620881 -0.00173523 0)
(0.0638018 -0.000587949 0)
(0.063667 0.000327833 0)
(0.0632983 -1.4932e-05 0)
(0.0633405 -0.000204487 0)
(0.0636489 -0.000496173 0)
(0.0641634 -0.000756622 0)
(0.0656282 -0.00122794 0)
(0.0663589 -0.00161933 0)
(0.071877 -0.00344421 0)
(0.0741702 -0.00408008 0)
(0.0960337 -0.0138351 0)
(0.109349 0.00217404 0)
(0.101343 0.0329946 0)
(0.0479174 0.0614847 0)
(-0.0134744 0.0365406 0)
(-0.00762976 0.00607311 0)
(0.00460882 0.299317 0)
(-0.152052 0.318454 0)
(-0.713825 -0.178964 0)
(-0.521092 -0.0911206 0)
(-0.462985 -0.0523986 0)
(0.328701 -0.24859 0)
(-0.271291 0.456844 0)
(-0.371438 0.179372 0)
(-0.0534006 -0.138016 0)
(-0.0134401 -0.151696 0)
(0.0783653 -0.0933538 0)
(0.0561204 -0.0865285 0)
(0.0129697 -0.049705 0)
(0.603825 -1.11702 0)
(0.668773 -1.46301 0)
(1.61676 1.09696 0)
(1.41683 0.410164 0)
(0.242305 0.669955 0)
(0.278591 -0.0627283 0)
(0.224992 -0.0479341 0)
(0.142627 -0.000599472 0)
(0.105599 0.016975 0)
(0.0892485 0.0110015 0)
(0.0825254 0.00538846 0)
(0.079275 0.00225726 0)
(0.0765318 0.00329897 0)
(0.0738124 0.00174667 0)
(0.0740223 -0.000685551 0)
(0.0767745 -0.00285273 0)
(0.0784477 -0.000938538 0)
(0.0783907 0.000485347 0)
(0.0779998 3.65106e-05 0)
(0.0778395 -0.000218163 0)
(0.0778501 -0.000645153 0)
(0.0780426 -0.00109123 0)
(0.0793784 -0.00190045 0)
(0.0800469 -0.00278689 0)
(0.0862255 -0.00599212 0)
(0.0897893 -0.0103574 0)
(0.129282 -0.0247291 0)
(0.135267 0.0022589 0)
(0.120678 0.0454623 0)
(0.0965428 0.083824 0)
(0.0333631 0.056598 0)
(0.0290164 0.0166413 0)
(0.0219593 0.293216 0)
(0.181868 0.354549 0)
(-0.152561 -0.0417869 0)
(-0.371806 -0.0582259 0)
(-0.370793 -0.0729047 0)
(-0.414917 -0.0717235 0)
(-0.444854 0.489325 0)
(-0.18963 0.0415825 0)
(0.203075 -0.226898 0)
(0.0843229 -0.177606 0)
(0.0981011 -0.0954445 0)
(0.0840858 -0.0746921 0)
(0.0163632 -0.212469 0)
(0.909056 -1.17114 0)
(-0.746247 -1.51928 0)
(0.31163 1.48938 0)
(-1.65927 0.487826 0)
(0.117444 0.831258 0)
(0.523619 -0.0944528 0)
(0.348903 -0.00321574 0)
(0.162441 0.0433962 0)
(0.108524 0.034874 0)
(0.0948885 0.0160114 0)
(0.0903993 0.00782071 0)
(0.0865115 0.00369247 0)
(0.083906 0.00453174 0)
(0.0826899 0.00253585 0)
(0.0838147 -0.00192011 0)
(0.0860157 -0.00397597 0)
(0.0869117 -0.00125035 0)
(0.0869381 0.000754244 0)
(0.0866294 0.00014246 0)
(0.0863618 -5.73212e-05 0)
(0.0861058 -0.000611957 0)
(0.0859654 -0.00126295 0)
(0.0868639 -0.00243468 0)
(0.0871662 -0.00412736 0)
(0.0930636 -0.00892797 0)
(0.096356 -0.0221354 0)
(0.149474 -0.0408434 0)
(0.13639 0.0115231 0)
(0.132542 0.0447918 0)
(0.159296 0.0979164 0)
(0.121327 0.0709361 0)
(0.121803 -0.00266873 0)
(0.00128942 0.278952 0)
(-0.103467 0.379431 0)
(0.569131 0.0231339 0)
(-0.0857085 0.0321934 0)
(-0.0894969 -0.0918801 0)
(-0.383438 0.058368 0)
(-0.262803 0.424186 0)
(0.337977 -0.0554827 0)
(0.476335 -0.220573 0)
(0.181152 -0.142823 0)
(0.106688 -0.0822197 0)
(0.0899464 -0.0715624 0)
(0.0953208 -0.286866 0)
(-0.289807 -0.983699 0)
(-1.55499 -1.15 0)
(-0.953031 1.6123 0)
(-2.52032 0.508744 0)
(0.450747 0.408911 0)
(0.429994 -0.13206 0)
(0.229028 0.0665056 0)
(0.125732 0.0736978 0)
(0.0989758 0.0430981 0)
(0.0932147 0.0176231 0)
(0.0911823 0.00876245 0)
(0.0876301 0.00448323 0)
(0.0860519 0.00472099 0)
(0.0870764 0.00239248 0)
(0.0882447 -0.00230588 0)
(0.0882005 -0.00406653 0)
(0.0879052 -0.00126614 0)
(0.0882235 0.000735431 0)
(0.0884331 0.000140963 0)
(0.0882634 1.43673e-05 0)
(0.0880912 -0.000562999 0)
(0.0879193 -0.00132722 0)
(0.0885935 -0.00253089 0)
(0.0882958 -0.00470344 0)
(0.0922712 -0.00982904 0)
(0.0928001 -0.0281964 0)
(0.135644 -0.0459426 0)
(0.103614 0.0174601 0)
(0.120223 0.0326045 0)
(0.192344 0.0961244 0)
(0.165105 0.0778055 0)
(0.131616 0.0353635 0)
(-0.120339 0.276042 0)
(0.482492 0.322716 0)
(0.634201 0.0259755 0)
(0.135351 0.117876 0)
(0.213541 -0.111896 0)
(0.0994078 0.0769034 0)
(0.0630829 0.390993 0)
(0.5911 -0.0899026 0)
(0.558637 -0.205398 0)
(0.206435 -0.122991 0)
(0.105616 -0.0762605 0)
(0.0700032 -0.0684515 0)
(0.0792323 -0.258217 0)
(-0.476387 -0.927188 0)
(-1.73123 -1.09706 0)
(-1.34435 1.61468 0)
(-1.8577 0.40199 0)
(0.354996 0.204565 0)
(-0.121104 -0.131164 0)
(0.0711046 0.0728357 0)
(0.10906 0.0767727 0)
(0.0953505 0.0445454 0)
(0.0923077 0.0179561 0)
(0.0911099 0.00903563 0)
(0.0877347 0.00473065 0)
(0.086568 0.00471999 0)
(0.088127 0.00226243 0)
(0.0891777 -0.00232498 0)
(0.0885076 -0.00403927 0)
(0.0879561 -0.0012581 0)
(0.0884922 0.000692459 0)
(0.0888145 0.000137839 0)
(0.0886574 3.14393e-05 0)
(0.0885253 -0.000547138 0)
(0.0883392 -0.00134917 0)
(0.0889298 -0.00254507 0)
(0.0884313 -0.00486055 0)
(0.0916265 -0.0100205 0)
(0.0911503 -0.0299738 0)
(0.127789 -0.0470083 0)
(0.0854861 0.0194508 0)
(0.112154 0.026501 0)
(0.211469 0.0929872 0)
(0.184964 0.0812689 0)
(0.146294 0.0540687 0)
(-0.201616 0.254913 0)
(0.598109 0.291086 0)
(0.191204 0.046343 0)
(0.204143 0.12888 0)
(0.329235 -0.121112 0)
(-0.240052 0.0844461 0)
(0.323871 0.356364 0)
(0.823024 -0.105578 0)
(0.608415 -0.18048 0)
(0.220245 -0.0992915 0)
(0.103645 -0.069009 0)
(0.0586982 -0.0643442 0)
(0.0792003 -0.231511 0)
(-0.328342 -0.867981 0)
(-1.82044 -1.03598 0)
(-1.57703 1.57989 0)
(-0.86754 0.346707 0)
(-0.00927013 0.175061 0)
(-0.683582 -0.13483 0)
(-0.0833022 0.0462202 0)
(0.0945396 0.0719381 0)
(0.0918104 0.0451007 0)
(0.0911631 0.0181144 0)
(0.0906935 0.00925846 0)
(0.0874464 0.00496302 0)
(0.0862649 0.00468815 0)
(0.0879982 0.00210957 0)
(0.0892457 -0.00232358 0)
(0.088448 -0.0039777 0)
(0.0878031 -0.00125421 0)
(0.0884504 0.000635901 0)
(0.0888235 0.000129662 0)
(0.0887404 4.26812e-05 0)
(0.0886668 -0.000532699 0)
(0.0884611 -0.00136669 0)
(0.0889544 -0.00254289 0)
(0.0882458 -0.00496878 0)
(0.0905994 -0.0101097 0)
(0.0891185 -0.0310694 0)
(0.103132 -0.0465817 0)
(0.0548851 0.0207579 0)
(0.105857 0.0187523 0)
(0.222597 0.0882415 0)
(0.195981 0.0842696 0)
(0.200788 0.07402 0)
(-0.20715 0.229726 0)
(0.671107 0.287113 0)
(-0.704786 0.0598817 0)
(0.241819 0.108542 0)
(0.338494 -0.129845 0)
(0.129182 0.0572039 0)
(0.554086 0.308556 0)
(0.904498 -0.104474 0)
(0.608284 -0.149701 0)
(0.222389 -0.074456 0)
(0.105478 -0.061476 0)
(0.0706285 -0.0595525 0)
(0.0763232 -0.208281 0)
(-0.4077 -0.797259 0)
(-1.8474 -0.985322 0)
(-1.57516 1.63061 0)
(-0.661433 0.232918 0)
(0.261842 0.217468 0)
(-0.339625 -0.13173 0)
(-0.0331158 0.0100498 0)
(0.0853777 0.064366 0)
(0.088337 0.0450988 0)
(0.0898026 0.0181209 0)
(0.0899285 0.00943974 0)
(0.0871589 0.00517269 0)
(0.0863345 0.00464701 0)
(0.0882592 0.00194345 0)
(0.0895348 -0.0023292 0)
(0.0885055 -0.00389829 0)
(0.0876674 -0.00124768 0)
(0.0882245 0.000585826 0)
(0.0885257 0.000115134 0)
(0.0885162 4.62562e-05 0)
(0.0885039 -0.000519227 0)
(0.0882432 -0.00137592 0)
(0.0885858 -0.00252299 0)
(0.0876398 -0.00502409 0)
(0.0891485 -0.0101058 0)
(0.0867797 -0.0312834 0)
(0.0839471 -0.044367 0)
(0.034112 0.020418 0)
(0.109335 0.00876213 0)
(0.235897 0.0831826 0)
(0.199061 0.0853368 0)
(0.260424 0.090728 0)
(-0.122098 0.208353 0)
(0.693426 0.347602 0)
(-1.53958 0.0385632 0)
(0.280298 0.0528045 0)
(0.354967 -0.135507 0)
(-0.0893564 0.0295966 0)
(0.514581 0.268327 0)
(0.806401 -0.1001 0)
(0.561574 -0.119435 0)
(0.213991 -0.0511977 0)
(0.108546 -0.0541856 0)
(0.0919096 -0.0561811 0)
(0.103076 -0.1797 0)
(-0.216049 -0.694118 0)
(-2.0008 -0.85935 0)
(-1.56126 1.58228 0)
(-0.14676 0.0427793 0)
(0.455595 0.227897 0)
(0.0173417 -0.106086 0)
(0.0459675 -0.00904426 0)
(0.0796856 0.0604745 0)
(0.085232 0.044872 0)
(0.0881262 0.0180258 0)
(0.0886981 0.00956523 0)
(0.0866748 0.00532471 0)
(0.0862814 0.0045807 0)
(0.0882817 0.00177034 0)
(0.0894662 -0.00232426 0)
(0.0882439 -0.0037967 0)
(0.087234 -0.00122946 0)
(0.0877259 0.000547122 0)
(0.0879805 0.000102268 0)
(0.0879645 4.55361e-05 0)
(0.0879563 -0.000504431 0)
(0.0876361 -0.00137368 0)
(0.0878427 -0.00248533 0)
(0.0866779 -0.00502715 0)
(0.0873651 -0.0100033 0)
(0.0842527 -0.0307592 0)
(0.0685961 -0.0413144 0)
(0.0194418 0.0195471 0)
(0.0942996 -0.00278904 0)
(0.223873 0.0785602 0)
(0.191733 0.0850346 0)
(0.26964 0.102395 0)
(-0.0602544 0.191972 0)
(0.637067 0.43719 0)
(-1.39066 0.0106103 0)
(0.330463 -0.0128317 0)
(0.375468 -0.139742 0)
(0.0494913 -0.00223628 0)
(0.0456328 -0.00787313 2.64998e-31)
(0.0607852 -0.00845883 -2.71194e-31)
(-0.0154608 -0.0197177 4.40242e-30)
(0.426192 -0.0847546 0)
(0.0942919 -0.00394555 0)
(0.0997777 -0.0149407 0)
(0.114348 -0.0138932 0)
(0.0741989 -0.087829 4.29606e-30)
(0.3057 -0.0179588 0)
(0.105962 -0.0107133 0)
(0.116402 -0.0151218 0)
(0.117089 -0.0183762 0)
(0.0735619 -0.0961259 4.15399e-30)
(0.0416593 0.0151397 0)
(0.0930685 -0.0149281 0)
(0.0988769 -0.00962832 0)
(0.0867208 -0.00761547 0)
(0.0298012 -0.0436379 -1.09621e-30)
(-0.199776 0.0379274 0)
(0.0489919 -0.00720848 0)
(0.0465351 -0.00226357 0)
(0.0388338 0.000794095 0)
(0.01853 -0.00158707 -5.29775e-32)
(-0.0571899 0.0231532 0)
(-0.279978 0.087582 0)
(0.0538591 0.0909502 0)
(0.435756 -0.125188 0)
(0.371725 -0.0587848 0)
(0.168524 -0.000548688 0)
(0.105674 -0.0328974 0)
(0.0554837 -0.0539437 0)
(0.0181485 -0.138635 0)
(0.0364966 -0.489405 0)
(-1.7317 -0.66366 0)
(-0.727976 1.0507 0)
(-0.335872 0.399414 0)
(0.559963 0.149467 0)
(0.58509 -0.0343986 0)
(0.179088 0.0226389 0)
(0.0690295 0.0720627 0)
(0.0780412 0.0451568 0)
(0.0822835 0.01787 0)
(0.0839534 0.00971744 0)
(0.084531 0.00558629 0)
(0.0853733 0.00433281 0)
(0.0874598 0.00126936 0)
(0.0882324 -0.00226525 0)
(0.0865794 -0.00344412 0)
(0.085102 -0.00113867 0)
(0.0853767 0.000443611 0)
(0.0856274 9.38329e-05 0)
(0.0856072 4.19602e-05 0)
(0.085614 -0.000456249 0)
(0.0851532 -0.00132583 0)
(0.0849744 -0.00233413 0)
(0.0831875 -0.00487638 0)
(0.0816813 -0.00930877 0)
(0.076834 -0.0274002 0)
(0.035698 -0.0312505 0)
(0.00328278 0.0177316 0)
(0.0161427 -0.0305926 0)
(0.112397 0.0669595 0)
(0.14148 0.0837499 0)
(0.231575 0.123754 0)
(0.039457 0.142034 0)
(0.391951 0.456449 0)
(0.544094 0.0423514 0)
(0.509615 -0.103876 0)
(0.439197 -0.146447 0)
(-0.208194 0.264353 0)
(0.164698 -0.0913186 0)
(0.193566 -0.157575 0)
(0.175893 -0.0309808 0)
(0.0952864 0.0151798 0)
(0.078835 -0.0093572 0)
(0.0326491 -0.022712 0)
(-0.0533944 -0.093839 0)
(0.0553548 -0.184924 0)
(-1.29786 -0.206874 0)
(-1.41901 0.669828 0)
(-0.569241 -0.818904 0)
(0.129596 -0.208924 0)
(0.122642 0.132629 0)
(0.022161 0.119289 0)
(0.0204066 0.0817036 0)
(0.0582128 0.0382452 0)
(0.0665528 0.0156539 0)
(0.0721054 0.00821512 0)
(0.0754181 0.00480849 0)
(0.0778427 0.00338876 0)
(0.0798482 0.000652631 0)
(0.0797753 -0.00187235 0)
(0.0778195 -0.0025199 0)
(0.0762284 -0.000819698 0)
(0.0762244 0.000297419 0)
(0.076426 0.000108505 0)
(0.0764653 -9.11547e-06 0)
(0.076502 -0.00037019 0)
(0.0759749 -0.00104652 0)
(0.0754173 -0.00185174 0)
(0.0730292 -0.00380385 0)
(0.0694383 -0.00636042 0)
(0.0646222 -0.0165539 0)
(0.0155545 -0.011029 0)
(0.00381531 0.027338 0)
(-0.0407496 -0.0309026 0)
(0.00648575 0.0184265 0)
(0.105865 0.0539708 0)
(0.181418 0.120373 0)
(0.0892978 0.146559 0)
(0.16413 0.204671 0)
(0.768529 0.051664 0)
(0.600414 -0.0425477 0)
(0.485582 -0.122742 0)
(0.177009 0.249081 0)
(0.343617 -0.0785788 0)
(0.0779744 -0.0839921 0)
(0.0720874 -0.00842791 0)
(0.0431993 0.0173727 0)
(0.0673736 -0.00107556 0)
(0.0530557 -0.00682394 0)
(0.0699983 -0.130736 0)
(0.132498 -0.00227167 0)
(-0.731735 0.116953 0)
(-0.242503 0.588576 0)
(-0.48506 -0.513029 0)
(-0.260118 -0.279278 0)
(-0.21869 0.110955 0)
(-0.0831002 0.0869966 0)
(-0.0143864 0.0574691 0)
(0.0349835 0.0256335 0)
(0.0474382 0.0108893 0)
(0.0562121 0.00554636 0)
(0.0609352 0.00322589 0)
(0.0641765 0.00216905 0)
(0.0659363 0.000325984 0)
(0.0652903 -0.00131171 0)
(0.0632142 -0.00159055 0)
(0.0616896 -0.000454341 0)
(0.0616393 0.000218049 0)
(0.0618843 7.72691e-05 0)
(0.0619296 -3.66568e-05 0)
(0.0618716 -0.000265941 0)
(0.0612628 -0.000706488 0)
(0.060477 -0.0012116 0)
(0.0579265 -0.00242024 0)
(0.0536351 -0.00344424 0)
(0.0515929 -0.00746511 0)
(0.0119336 0.000623598 0)
(0.0347334 0.0352371 0)
(-0.00481971 -0.0225359 0)
(0.00375349 -0.0177761 0)
(0.0777106 0.0249563 0)
(0.147669 0.107011 0)
(0.162786 0.143119 0)
(0.292534 0.106238 0)
(0.368012 0.0250581 0)
(0.529589 -0.039316 0)
(0.438978 -0.0894911 0)
(0.0373876 0.101788 0)
(0.197053 -0.105036 0)
(0.0647599 -0.0406348 0)
(0.0244254 0.00908405 0)
(0.0137911 0.00848835 0)
(0.040488 0.000420457 0)
(0.0154434 -0.0168156 0)
(-0.0170697 -0.101762 0)
(-0.118028 0.0816679 0)
(-0.411721 0.149937 0)
(0.551222 0.394624 0)
(0.365911 -0.310846 0)
(-0.254257 -0.296037 0)
(-0.248936 0.0410432 0)
(-0.10647 0.0373604 0)
(-0.0314777 0.0281192 0)
(0.0144841 0.0119762 0)
(0.0274893 0.0050956 0)
(0.0365898 0.00235053 0)
(0.0408692 0.00140052 0)
(0.0437974 0.000964255 0)
(0.0452426 0.00014364 0)
(0.0444532 -0.000644714 0)
(0.0425693 -0.000719813 0)
(0.0414186 -0.000162723 0)
(0.0414666 0.000115402 0)
(0.0416918 3.01763e-05 0)
(0.0417203 -2.43436e-05 0)
(0.0416181 -0.000126272 0)
(0.0410533 -0.000331802 0)
(0.0402817 -0.000529362 0)
(0.0381195 -0.00105902 0)
(0.0342493 -0.00119386 0)
(0.0349407 -0.00195176 0)
(0.00899651 0.00381928 0)
(0.0436659 0.0290351 0)
(0.0496318 -0.00890756 0)
(0.0165691 -0.0273655 0)
(0.0125184 0.00876123 0)
(0.0907083 0.0694501 0)
(0.188975 0.105084 0)
(0.27793 0.0643913 0)
(0.299816 -0.0824594 0)
(0.407884 -0.0508304 0)
(0.320143 -0.0528935 0)
(0.20148 0.0237865 0)
(0.128955 -0.0431786 0)
(-0.102125 -0.00151969 0)
(0.00563764 0.0126015 0)
(-0.0117214 0.000835544 0)
(0.0154148 0.000763706 0)
(-0.00148411 -0.0010162 0)
(-0.0220393 -0.0284204 0)
(-0.0785364 0.0153878 0)
(-0.121633 0.020622 0)
(0.561948 0.0858868 0)
(0.586167 0.0175006 0)
(-0.119661 -0.0880104 0)
(-0.119855 0.00644037 0)
(-0.0628512 0.00442848 0)
(-0.0204593 0.0040991 0)
(0.00359795 0.00119545 0)
(0.0100178 0.000483545 0)
(0.0142106 5.11479e-05 0)
(0.0156931 0.000104597 0)
(0.0170273 9.73352e-05 0)
(0.0176926 6.95974e-06 0)
(0.0172437 -0.000105615 0)
(0.016259 -0.000117165 0)
(0.015702 -1.63255e-05 0)
(0.0157544 2.38594e-05 0)
(0.0158714 -6.62825e-07 0)
(0.0158737 -4.43647e-06 0)
(0.0158118 -1.26519e-05 0)
(0.0155276 -4.71848e-05 0)
(0.0151392 -4.59248e-05 0)
(0.0141682 -0.000116737 0)
(0.0118927 -0.000162226 0)
(0.0143684 0.000154711 0)
(0.00266903 0.000989861 0)
(0.035604 0.00782974 0)
(0.0676534 -0.00155468 0)
(0.0205824 -0.00859222 0)
(-0.0148255 0.000468947 0)
(0.0479416 0.015863 0)
(0.163476 0.0465095 0)
(0.344167 0.0601846 0)
(0.416063 0.0323937 0)
(0.240515 -0.0132019 0)
(0.133665 -0.0138492 0)
)
;

boundaryField
{
    AirInlet
    {
        type            fixedValue;
        value           uniform (0.1 0 0);
    }
    WaterInlet
    {
        type            fixedValue;
        value           uniform (0.1 0 0);
    }
    ChannelWall
    {
        type            fixedValue;
        value           uniform (0 0 0);
    }
    Outlet
    {
        type            pressureInletOutletVelocity;
        value           nonuniform List<vector> 
15
(
(-0.186786 -0 0)
(-0.390216 -0 0)
(-0.457784 -0 0)
(-0.364436 -0 0)
(-0.0743312 -0 0)
(0.213541 -0.111896 0)
(0.329235 -0.121112 0)
(0.338494 -0.129845 0)
(0.354967 -0.135507 0)
(0.375468 -0.139742 0)
(0.439197 -0.146447 0)
(0.485582 -0.122742 0)
(0.438978 -0.0894911 0)
(0.320143 -0.0528935 0)
(0.133665 -0.0138492 0)
)
;
    }
    FrontAndBack
    {
        type            empty;
    }
}


// ************************************************************************* //
