/*--------------------------------*- C++ -*----------------------------------*\
| =========                 |                                                 |
| \\      /  F ield         | OpenFOAM: The Open Source CFD Toolbox           |
|  \\    /   O peration     | Version:  2.3.0                                 |
|   \\  /    A nd           | Web:      www.OpenFOAM.org                      |
|    \\/     M anipulation  |                                                 |
\*---------------------------------------------------------------------------*/
FoamFile
{
    version     2.0;
    format      ascii;
    class       volScalarField;
    location    "0.05";
    object      T;
}
// * * * * * * * * * * * * * * * * * * * * * * * * * * * * * * * * * * * * * //

dimensions      [0 0 0 1 0 0 0];

internalField   nonuniform List<scalar> 
12225
(
1.00702
1.00235
1.00097
1.00057
1.00029
1.0001
1.00001
0.999957
0.999925
0.999903
0.999878
0.999834
0.99973
0.999471
0.998825
0.997231
0.99324
0.983034
0.99388
0.995662
0.997505
0.998595
0.999122
0.9994
0.999575
0.999689
0.999762
0.999807
0.999827
0.999813
0.999732
0.999494
0.998882
0.997367
0.993674
0.984707
1.00047
1.00054
1.00043
1.00038
1.00027
1.00015
1.00007
1.00002
0.999984
0.999957
0.999929
0.999883
0.999783
0.999543
0.998963
0.997577
0.994362
0.987247
1.00033
0.999923
0.999616
0.999668
0.999738
0.999771
0.999797
0.999821
0.99984
0.999851
0.999851
0.999828
0.999748
0.999539
0.999025
0.997823
0.995162
0.989731
1.00018
1
0.999776
0.999808
0.999867
0.999886
0.999893
0.999898
0.9999
0.999899
0.99989
0.999862
0.999785
0.999595
0.999146
0.998139
0.996026
0.992017
1.00003
0.999994
0.999833
0.999822
0.999855
0.999871
0.999877
0.999884
0.999888
0.999889
0.999883
0.999859
0.999794
0.999632
0.999258
0.998452
0.99684
0.99396
1.00001
1.00003
0.999913
0.999874
0.999883
0.999891
0.999895
0.999898
0.999901
0.999901
0.999895
0.999873
0.999817
0.999683
0.999383
0.998762
0.997577
0.995557
1
1.00003
0.999948
0.999903
0.9999
0.999903
0.999904
0.999906
0.999907
0.999907
0.999901
0.999883
0.999836
0.999724
0.999483
0.999
0.998106
0.99663
1
1.00003
0.99997
0.999929
0.999919
0.999917
0.999916
0.999916
0.999916
0.999915
0.999909
0.999893
0.999853
0.999762
0.999568
0.99919
0.998512
0.997418
0.999998
1.00002
0.999986
0.999952
0.999938
0.999932
0.999929
0.999927
0.999926
0.999924
0.999918
0.999905
0.999873
0.9998
0.999652
0.99937
0.998877
0.998099
0.999998
1.00002
0.999996
0.99997
0.999956
0.999948
0.999943
0.99994
0.999938
0.999935
0.999929
0.999917
0.999893
0.999839
0.999731
0.999531
0.999191
0.998664
0.999998
1.00001
1
0.999983
0.999972
0.999964
0.999958
0.999954
0.99995
0.999947
0.999942
0.999932
0.999914
0.999875
0.999801
0.999668
0.999445
0.999108
0.999998
1.00001
1.00001
0.999993
0.999984
0.999977
0.999972
0.999967
0.999962
0.999959
0.999955
0.999947
0.999934
0.999908
0.99986
0.999776
0.999639
0.999438
0.999998
1.00001
1.00001
1
0.999993
0.999986
0.999982
0.999979
0.999975
0.999971
0.999967
0.999962
0.999952
0.999936
0.999907
0.999858
0.999781
0.999668
0.999998
1.00001
1.00001
1
0.999998
0.999995
0.999991
0.999988
0.999985
0.999982
0.999979
0.999974
0.999969
0.999958
0.999941
0.999915
0.999874
0.999817
0.999999
1.00001
1.00001
1
1
1
0.999997
0.999994
0.999992
0.999989
0.999988
0.999986
0.999982
0.999975
0.999966
0.999952
0.999932
0.999906
0.999998
1.00001
1.00001
1
1
1
1
0.999999
0.999997
0.999996
0.999994
0.999991
0.999989
0.999987
0.999982
0.999974
0.999964
0.999953
0.999999
1
1.00001
1.00001
1.00001
1.00001
1
0.999999
0.999998
0.999998
0.999997
0.999996
0.999993
0.99999
0.999986
0.999982
0.999977
0.999974
0.999999
1.00001
1.00001
1.00001
1.00001
1.00001
1
0.999999
0.999996
0.999995
0.999993
0.999991
0.999989
0.999987
0.999986
0.999982
0.999978
0.999978
0.999998
1.00001
1.00001
1.00001
1
1
1
0.999996
0.999992
0.999989
0.999988
0.999986
0.999984
0.999983
0.999981
0.999978
0.999976
0.999977
0.999997
1.00001
1.00001
1.00001
1
0.999995
0.999992
0.999987
0.999983
0.99998
0.999977
0.999975
0.999973
0.999972
0.999971
0.999969
0.999966
0.999968
0.999997
1.00001
1.00002
1.00001
0.999995
0.999987
0.999982
0.999976
0.999973
0.99997
0.999967
0.999966
0.999966
0.999964
0.999963
0.999962
0.99996
0.999961
0.999996
1.00003
1.00002
0.999994
0.999975
0.999966
0.999959
0.999954
0.999952
0.99995
0.999949
0.999948
0.999948
0.999949
0.999948
0.999948
0.999948
0.999949
0.999994
1.00005
1.00003
0.999984
0.999963
0.999957
0.999953
0.99995
0.999949
0.999948
0.999947
0.999947
0.999948
0.999948
0.999948
0.999948
0.999948
0.999949
0.999986
1.00005
0.999974
0.999913
0.9999
0.9999
0.9999
0.999902
0.999905
0.999908
0.999911
0.999914
0.999918
0.999921
0.999925
0.999927
0.999928
0.999931
1.00011
1.00014
0.999977
0.99993
0.999954
0.99997
0.999971
0.999969
0.999965
0.999962
0.999959
0.999954
0.999952
0.99995
0.999949
0.999948
0.999947
0.999947
1.00029
1.00004
0.999634
0.999556
0.999609
0.999662
0.999706
0.999746
0.999781
0.999809
0.999832
0.99985
0.999865
0.999878
0.999888
0.999897
0.999905
0.999908
1.00089
1.00118
1.00097
1.00079
1.00062
1.00045
1.00031
1.00022
1.00015
1.0001
1.00006
1.00003
1.00001
0.999992
0.999981
0.999974
0.99997
0.999957
0.993498
0.994872
0.996789
0.998012
0.998681
0.999064
0.999313
0.999485
0.999605
0.99969
0.99975
0.999794
0.999827
0.999852
0.999872
0.999888
0.999905
0.999901
1.00657
1.00291
1.00132
1.00082
1.00049
1.00027
1.00014
1.00007
1.00002
0.99999
0.999968
0.999954
0.999944
0.999937
0.999933
0.999931
0.999938
0.999912
0.508135
0.508093
0.507981
0.507821
0.507621
0.507374
0.507083
0.506747
0.506366
0.505942
0.505479
0.504976
0.504435
0.503856
0.503243
0.502596
0.501919
0.501212
0.500479
0.499722
0.498943
0.498146
0.497333
0.496507
0.495672
0.494829
0.493982
0.493134
0.492288
0.491448
0.490616
0.489795
0.488988
0.488199
0.48743
0.486685
0.485965
0.485274
0.484615
0.483989
0.4834
0.482849
0.482339
0.481871
0.481449
0.481072
0.480743
0.480463
0.480234
0.480056
0.47993
0.479857
0.479837
0.479871
0.479958
0.480098
0.480292
0.480538
0.480835
0.481184
0.481583
0.482031
0.482528
0.48307
0.483658
0.484289
0.484963
0.485677
0.486429
0.487218
0.488043
0.4889
0.489789
0.490706
0.491651
0.492622
0.493616
0.494631
0.495667
0.496719
0.497787
0.498869
0.499963
0.501066
0.502178
0.503296
0.504417
0.505541
0.506665
0.507788
0.508908
0.510022
0.51113
0.51223
0.513319
0.514397
0.515462
0.516513
0.517547
0.518565
0.519564
0.520545
0.521505
0.522443
0.52336
0.524253
0.525123
0.525968
0.526788
0.527583
0.52835
0.529091
0.529803
0.530487
0.531141
0.531765
0.532359
0.53292
0.53345
0.533946
0.534409
0.534837
0.53523
0.535587
0.535906
0.536188
0.536432
0.536636
0.536799
0.536921
0.537002
0.537039
0.537032
0.53698
0.536883
0.536739
0.536547
0.536307
0.536017
0.535676
0.535284
0.534839
0.534341
0.533788
0.533179
0.532515
0.531792
0.531011
0.530171
0.529271
0.528309
0.527285
0.526199
0.525048
0.523833
0.522552
0.521205
0.519791
0.518308
0.516759
0.515137
0.513446
0.511691
0.509845
0.507927
0.505936
0.503857
0.501707
0.499487
0.497195
0.494831
0.492396
0.48989
0.487315
0.484676
0.481977
0.479252
0.47647
0.473918
0.470624
0.509487
0.509432
0.509337
0.509195
0.509005
0.508769
0.508488
0.50816
0.507783
0.507361
0.506895
0.506388
0.505841
0.505257
0.504637
0.503984
0.5033
0.502587
0.501848
0.501086
0.500302
0.4995
0.498682
0.497852
0.497012
0.496166
0.495315
0.494464
0.493615
0.492771
0.491936
0.491112
0.490303
0.48951
0.488739
0.48799
0.487267
0.486573
0.48591
0.48528
0.484687
0.484132
0.483618
0.483147
0.48272
0.482339
0.482005
0.481721
0.481486
0.481303
0.481172
0.481093
0.481068
0.481095
0.481176
0.48131
0.481497
0.481736
0.482028
0.48237
0.482762
0.483204
0.483693
0.484229
0.48481
0.485435
0.486102
0.486809
0.487555
0.488337
0.489155
0.490006
0.490889
0.4918
0.49274
0.493705
0.494693
0.495703
0.496733
0.497781
0.498845
0.499922
0.501012
0.502112
0.50322
0.504334
0.505453
0.506574
0.507695
0.508816
0.509934
0.511047
0.512153
0.513251
0.51434
0.515417
0.516481
0.517531
0.518566
0.519583
0.520582
0.521562
0.522523
0.523462
0.524378
0.525273
0.526143
0.526989
0.52781
0.528604
0.529373
0.530114
0.530827
0.531511
0.532166
0.53279
0.533384
0.533946
0.534476
0.534973
0.535436
0.535864
0.536256
0.536613
0.536932
0.537214
0.537457
0.53766
0.537823
0.537944
0.538023
0.538059
0.538051
0.537998
0.537899
0.537753
0.537559
0.537316
0.537024
0.536681
0.536286
0.535839
0.535338
0.534781
0.53417
0.533501
0.532775
0.53199
0.531146
0.530242
0.529276
0.528247
0.527156
0.525999
0.524779
0.523492
0.522139
0.520719
0.519229
0.517672
0.516043
0.514344
0.51258
0.510733
0.50882
0.506843
0.504785
0.502654
0.500451
0.498175
0.495827
0.493406
0.490913
0.48835
0.485724
0.483039
0.480323
0.477563
0.474965
0.471947
0.512212
0.512119
0.512003
0.511848
0.511648
0.511398
0.5111
0.510754
0.510363
0.509926
0.509447
0.508928
0.508369
0.507774
0.507144
0.506482
0.505789
0.505068
0.504322
0.503553
0.502764
0.501957
0.501135
0.5003
0.499457
0.498606
0.497753
0.496898
0.496046
0.495199
0.494361
0.493533
0.49272
0.491924
0.491148
0.490395
0.489668
0.488969
0.488301
0.487666
0.487067
0.486505
0.485985
0.485506
0.485071
0.484682
0.48434
0.484047
0.483803
0.48361
0.483469
0.48338
0.483344
0.483361
0.483431
0.483553
0.483729
0.483957
0.484236
0.484567
0.484948
0.485377
0.485855
0.486379
0.486949
0.487562
0.488218
0.488914
0.489649
0.490422
0.491229
0.492071
0.492944
0.493847
0.494778
0.495735
0.496716
0.49772
0.498744
0.499786
0.500845
0.501919
0.503005
0.504103
0.505209
0.506323
0.507441
0.508564
0.509687
0.510811
0.511932
0.513049
0.514161
0.515265
0.516361
0.517445
0.518517
0.519576
0.52062
0.521647
0.522656
0.523647
0.524618
0.525568
0.526497
0.527402
0.528285
0.529143
0.529976
0.530784
0.531565
0.532319
0.533045
0.533742
0.53441
0.535048
0.535655
0.53623
0.536773
0.537282
0.537758
0.538199
0.538604
0.538973
0.539304
0.539598
0.539852
0.540067
0.540241
0.540373
0.540462
0.540508
0.54051
0.540466
0.540376
0.540239
0.540053
0.539818
0.539533
0.539197
0.538808
0.538367
0.537871
0.537319
0.536712
0.536048
0.535325
0.534543
0.533702
0.532799
0.531834
0.530807
0.529716
0.52856
0.527339
0.526052
0.524697
0.523275
0.521783
0.520224
0.518594
0.516893
0.515125
0.513279
0.511366
0.509387
0.507333
0.505205
0.503004
0.500731
0.498384
0.495964
0.493472
0.490909
0.488281
0.485592
0.482867
0.480094
0.47744
0.474538
0.516275
0.516148
0.516011
0.51584
0.515621
0.515351
0.515032
0.514667
0.514256
0.513802
0.513306
0.512771
0.512197
0.511588
0.510944
0.51027
0.509565
0.508834
0.508078
0.507299
0.506501
0.505685
0.504856
0.504014
0.503163
0.502306
0.501446
0.500585
0.499726
0.498873
0.498028
0.497194
0.496374
0.495571
0.494788
0.494027
0.493292
0.492584
0.491906
0.491262
0.490653
0.490081
0.489548
0.489058
0.48861
0.488208
0.487853
0.487545
0.487287
0.487079
0.486923
0.486818
0.486765
0.486765
0.486818
0.486924
0.487082
0.487292
0.487554
0.487866
0.488229
0.488641
0.4891
0.489607
0.490159
0.490755
0.491393
0.492073
0.492791
0.493548
0.49434
0.495167
0.496025
0.496915
0.497833
0.498778
0.499748
0.500741
0.501756
0.50279
0.503841
0.504909
0.50599
0.507084
0.508188
0.5093
0.510419
0.511543
0.512669
0.513797
0.514923
0.516047
0.517167
0.51828
0.519386
0.520481
0.521566
0.522638
0.523695
0.524737
0.525763
0.52677
0.527758
0.528726
0.529672
0.530596
0.531498
0.532375
0.533228
0.534055
0.534857
0.535631
0.536377
0.537095
0.537784
0.538443
0.53907
0.539667
0.54023
0.540761
0.541257
0.541718
0.542144
0.542533
0.542884
0.543197
0.543471
0.543704
0.543896
0.544046
0.544154
0.544217
0.544235
0.544207
0.544132
0.54401
0.543838
0.543617
0.543345
0.543021
0.542644
0.542214
0.541728
0.541186
0.540588
0.539932
0.539217
0.538442
0.537606
0.536709
0.535749
0.534726
0.533639
0.532485
0.531267
0.529981
0.528627
0.527206
0.525715
0.524155
0.522524
0.520823
0.519051
0.517205
0.51529
0.513307
0.511249
0.509118
0.506914
0.504637
0.502286
0.499862
0.497366
0.494798
0.492162
0.489463
0.48672
0.483924
0.481217
0.478339
0.52167
0.521521
0.521365
0.521178
0.52094
0.520651
0.520311
0.519925
0.519493
0.519019
0.518503
0.517948
0.517356
0.516728
0.516068
0.515377
0.514658
0.513912
0.513142
0.512351
0.51154
0.510714
0.509873
0.509021
0.50816
0.507293
0.506424
0.505553
0.504686
0.503823
0.502969
0.502126
0.501296
0.500483
0.499689
0.498917
0.49817
0.49745
0.49676
0.496102
0.495478
0.494892
0.494344
0.493838
0.493374
0.492954
0.49258
0.492254
0.491977
0.491749
0.491571
0.491445
0.491371
0.491349
0.491379
0.491462
0.491597
0.491784
0.492022
0.492311
0.49265
0.493038
0.493474
0.493957
0.494485
0.495058
0.495674
0.496331
0.497028
0.497763
0.498534
0.499341
0.50018
0.501051
0.501951
0.50288
0.503834
0.504813
0.505814
0.506836
0.507877
0.508936
0.510009
0.511097
0.512196
0.513305
0.514422
0.515546
0.516675
0.517806
0.518938
0.520069
0.521197
0.52232
0.523437
0.524546
0.525645
0.526732
0.527806
0.528866
0.52991
0.530936
0.531945
0.532933
0.533901
0.534848
0.535772
0.536673
0.53755
0.538401
0.539227
0.540026
0.540798
0.541541
0.542255
0.54294
0.543593
0.544215
0.544805
0.54536
0.545882
0.546369
0.54682
0.547233
0.547609
0.547946
0.548244
0.5485
0.548716
0.548888
0.549017
0.549102
0.54914
0.549133
0.549077
0.548974
0.54882
0.548616
0.54836
0.548052
0.547689
0.547273
0.5468
0.546271
0.545683
0.545038
0.544332
0.543566
0.542738
0.541848
0.540894
0.539876
0.538793
0.537643
0.536427
0.535144
0.533792
0.532372
0.530881
0.52932
0.527688
0.525985
0.524211
0.522363
0.520445
0.518456
0.516394
0.514259
0.51205
0.509768
0.507413
0.504984
0.502482
0.499907
0.497262
0.49455
0.491789
0.488967
0.486216
0.483312
0.528437
0.528272
0.5281
0.527895
0.527638
0.527328
0.526967
0.526558
0.526104
0.525607
0.525069
0.524492
0.523878
0.52323
0.52255
0.521839
0.521101
0.520338
0.519551
0.518744
0.517918
0.517077
0.516222
0.515356
0.514482
0.513603
0.51272
0.511838
0.510957
0.510082
0.509215
0.508359
0.507516
0.50669
0.505882
0.505095
0.504333
0.503597
0.502891
0.502216
0.501575
0.500969
0.500402
0.499875
0.49939
0.498949
0.498553
0.498203
0.497901
0.497649
0.497446
0.497294
0.497193
0.497143
0.497146
0.4972
0.497306
0.497464
0.497673
0.497933
0.498242
0.498601
0.499007
0.499461
0.49996
0.500504
0.501091
0.50172
0.502389
0.503097
0.503842
0.504623
0.505438
0.506285
0.507162
0.508069
0.509003
0.509962
0.510945
0.511951
0.512977
0.514022
0.515084
0.516161
0.517252
0.518355
0.519468
0.52059
0.521718
0.522851
0.523987
0.525123
0.526259
0.527392
0.52852
0.529641
0.530755
0.531858
0.532949
0.534027
0.535091
0.536138
0.537168
0.538179
0.539171
0.540142
0.541091
0.542017
0.54292
0.543798
0.544651
0.545478
0.546277
0.547049
0.547791
0.548504
0.549186
0.549837
0.550455
0.55104
0.551591
0.552106
0.552585
0.553027
0.55343
0.553795
0.554119
0.554403
0.554644
0.554842
0.554996
0.555105
0.555167
0.555182
0.555149
0.555066
0.554933
0.554748
0.554511
0.554221
0.553875
0.553474
0.553017
0.552501
0.551927
0.551293
0.550599
0.549842
0.549023
0.548141
0.547194
0.546182
0.545104
0.543959
0.542747
0.541466
0.540115
0.538695
0.537204
0.535643
0.53401
0.532304
0.530528
0.528678
0.526756
0.524762
0.522695
0.520555
0.518342
0.516055
0.513695
0.51126
0.508752
0.506169
0.503516
0.500791
0.498011
0.495164
0.492374
0.489421
0.536613
0.536439
0.536252
0.53603
0.535754
0.535422
0.535039
0.534607
0.534129
0.533607
0.533044
0.532443
0.531805
0.531133
0.53043
0.529697
0.528938
0.528153
0.527347
0.52652
0.525675
0.524815
0.523943
0.52306
0.522169
0.521273
0.520374
0.519476
0.518579
0.517688
0.516805
0.515932
0.515073
0.514229
0.513403
0.512599
0.511817
0.511062
0.510335
0.509639
0.508976
0.508349
0.507758
0.507207
0.506696
0.506229
0.505805
0.505428
0.505098
0.504815
0.504582
0.504399
0.504266
0.504184
0.504154
0.504174
0.504247
0.50437
0.504544
0.504769
0.505043
0.505366
0.505737
0.506155
0.50662
0.507128
0.507681
0.508276
0.508911
0.509586
0.510298
0.511047
0.511831
0.512648
0.513496
0.514375
0.515283
0.516217
0.517177
0.51816
0.519166
0.520192
0.521237
0.5223
0.523378
0.52447
0.525575
0.52669
0.527814
0.528945
0.530081
0.531221
0.532361
0.533501
0.534638
0.53577
0.536896
0.538014
0.539121
0.540217
0.541299
0.542366
0.543417
0.54445
0.545465
0.54646
0.547434
0.548386
0.549315
0.550221
0.551102
0.551957
0.552785
0.553585
0.554358
0.5551
0.555812
0.556494
0.557142
0.557757
0.558338
0.558883
0.559392
0.559864
0.560297
0.560691
0.561045
0.561356
0.561625
0.561851
0.562032
0.562166
0.562254
0.562294
0.562285
0.562225
0.562114
0.561951
0.561734
0.561463
0.561136
0.560752
0.560311
0.559811
0.559251
0.55863
0.557948
0.557202
0.556393
0.55552
0.554581
0.553576
0.552504
0.551363
0.550154
0.548876
0.547527
0.546108
0.544617
0.543055
0.541421
0.539714
0.537934
0.536081
0.534156
0.532158
0.530087
0.527942
0.525724
0.523432
0.521067
0.518627
0.516112
0.513523
0.51086
0.508124
0.505328
0.502457
0.499631
0.496623
0.546264
0.546079
0.545877
0.545635
0.545338
0.544984
0.544577
0.544119
0.543615
0.543067
0.542478
0.54185
0.541185
0.540487
0.539758
0.538999
0.538215
0.537406
0.536575
0.535725
0.534858
0.533976
0.533081
0.532177
0.531266
0.530349
0.52943
0.528512
0.527595
0.526684
0.525781
0.524888
0.524007
0.523142
0.522295
0.521468
0.520664
0.519886
0.519135
0.518414
0.517725
0.51707
0.516452
0.515872
0.515332
0.514834
0.514379
0.51397
0.513606
0.513289
0.513021
0.512802
0.512632
0.512513
0.512444
0.512426
0.512459
0.512542
0.512676
0.512859
0.513092
0.513374
0.513704
0.514081
0.514503
0.514971
0.515482
0.516036
0.516631
0.517266
0.517939
0.51865
0.519396
0.520176
0.520989
0.521833
0.522707
0.523609
0.524538
0.525493
0.526471
0.527472
0.528494
0.529536
0.530595
0.53167
0.532761
0.533864
0.534978
0.536102
0.537233
0.53837
0.53951
0.540653
0.541794
0.542933
0.544068
0.545196
0.546315
0.547425
0.548523
0.549607
0.550676
0.551729
0.552764
0.553781
0.554778
0.555754
0.556708
0.557639
0.558546
0.559428
0.560284
0.561112
0.561913
0.562685
0.563427
0.564138
0.564816
0.565461
0.566072
0.566648
0.567187
0.567689
0.568152
0.568575
0.568958
0.569299
0.569596
0.56985
0.570058
0.570219
0.570333
0.570399
0.570414
0.570378
0.570291
0.57015
0.569954
0.569703
0.569396
0.56903
0.568606
0.568122
0.567577
0.566971
0.566301
0.565568
0.564769
0.563906
0.562975
0.561977
0.560911
0.559776
0.558571
0.557296
0.55595
0.554532
0.553042
0.55148
0.549845
0.548136
0.546354
0.544499
0.54257
0.540568
0.538493
0.536344
0.534121
0.531825
0.529455
0.52701
0.524491
0.521895
0.519225
0.516479
0.513669
0.510777
0.50792
0.504859
0.557449
0.557254
0.557034
0.55677
0.55645
0.556071
0.555638
0.555153
0.554621
0.554044
0.553425
0.552767
0.552073
0.551345
0.550586
0.549798
0.548985
0.548147
0.547288
0.546411
0.545516
0.544608
0.543688
0.542758
0.541821
0.54088
0.539936
0.538993
0.538052
0.537117
0.536189
0.535271
0.534366
0.533475
0.532602
0.531749
0.530919
0.530112
0.529333
0.528583
0.527864
0.527179
0.526529
0.525916
0.525342
0.524809
0.524319
0.523872
0.523471
0.523115
0.522807
0.522547
0.522336
0.522174
0.522061
0.521999
0.521987
0.522024
0.522112
0.522249
0.522434
0.522669
0.52295
0.523279
0.523653
0.524073
0.524536
0.525042
0.525589
0.526177
0.526804
0.527468
0.528168
0.528904
0.529674
0.530475
0.531308
0.53217
0.533061
0.533979
0.534922
0.53589
0.53688
0.537893
0.538925
0.539976
0.541043
0.542127
0.543224
0.544333
0.545452
0.546579
0.547713
0.548851
0.54999
0.551129
0.552266
0.553398
0.554524
0.555642
0.556749
0.557845
0.558927
0.559994
0.561045
0.562079
0.563095
0.56409
0.565065
0.566018
0.566947
0.567852
0.568733
0.569587
0.570413
0.571211
0.57198
0.572718
0.573424
0.574097
0.574736
0.57534
0.575908
0.576438
0.576929
0.577381
0.577792
0.57816
0.578485
0.578766
0.579001
0.579189
0.579329
0.579419
0.579459
0.579447
0.579382
0.579263
0.579089
0.578858
0.57857
0.578224
0.577817
0.57735
0.57682
0.576228
0.575572
0.574851
0.574064
0.57321
0.572289
0.571299
0.57024
0.569111
0.567911
0.56664
0.565297
0.563881
0.562392
0.56083
0.559195
0.557485
0.555702
0.553845
0.551913
0.549909
0.54783
0.545678
0.543452
0.541152
0.538779
0.53633
0.533806
0.531207
0.528531
0.525777
0.522956
0.520048
0.517166
0.514059
0.570239
0.570032
0.569791
0.569503
0.569157
0.56875
0.568288
0.567773
0.56721
0.5666
0.565949
0.565257
0.564529
0.563767
0.562974
0.562152
0.561305
0.560434
0.559542
0.558632
0.557705
0.556765
0.555814
0.554854
0.553887
0.552915
0.551942
0.55097
0.55
0.549035
0.548078
0.547131
0.546196
0.545276
0.544373
0.543489
0.542627
0.541789
0.540978
0.540194
0.539441
0.538721
0.538035
0.537385
0.536773
0.536201
0.53567
0.535182
0.534738
0.534339
0.533986
0.533681
0.533422
0.533213
0.533051
0.532939
0.532876
0.532862
0.532897
0.532981
0.533113
0.533293
0.53352
0.533794
0.534113
0.534477
0.534884
0.535334
0.535826
0.536359
0.53693
0.53754
0.538187
0.538869
0.539586
0.540336
0.541119
0.541932
0.542775
0.543646
0.544545
0.545469
0.546419
0.547392
0.548388
0.549404
0.55044
0.551494
0.552564
0.553649
0.554747
0.555855
0.556972
0.558096
0.559225
0.560355
0.561485
0.562613
0.563737
0.564854
0.565963
0.567062
0.568149
0.569224
0.570283
0.571327
0.572354
0.573362
0.574351
0.575319
0.576265
0.577188
0.578087
0.578961
0.579808
0.580627
0.581418
0.582178
0.582908
0.583605
0.584268
0.584896
0.585489
0.586044
0.586561
0.587038
0.587473
0.587867
0.588218
0.588523
0.588782
0.588995
0.589158
0.589272
0.589335
0.589345
0.589302
0.589205
0.589051
0.58884
0.588571
0.588243
0.587853
0.587402
0.586888
0.586311
0.585668
0.584959
0.584184
0.583341
0.582429
0.581447
0.580396
0.579273
0.578079
0.576813
0.575473
0.574061
0.572574
0.571014
0.569379
0.56767
0.565886
0.564028
0.562095
0.560089
0.558008
0.555854
0.553626
0.551325
0.548949
0.546498
0.543973
0.541371
0.538692
0.535934
0.533107
0.530188
0.527287
0.524144
0.584711
0.584488
0.584225
0.583909
0.583532
0.583094
0.582599
0.58205
0.581451
0.580804
0.580115
0.579385
0.578617
0.577816
0.576983
0.576122
0.575235
0.574324
0.573394
0.572445
0.57148
0.570503
0.569515
0.568518
0.567515
0.566508
0.5655
0.564492
0.563488
0.562489
0.561498
0.560516
0.559547
0.558593
0.557655
0.556736
0.555838
0.554964
0.554115
0.553294
0.552503
0.551743
0.551017
0.550326
0.549671
0.549056
0.54848
0.547946
0.547455
0.547008
0.546605
0.546249
0.545938
0.545675
0.54546
0.545292
0.545172
0.5451
0.545077
0.545101
0.545172
0.545291
0.545456
0.545667
0.545923
0.546223
0.546566
0.546952
0.54738
0.547848
0.548355
0.548901
0.549484
0.550104
0.550758
0.551447
0.552168
0.552922
0.553706
0.55452
0.555363
0.556234
0.557131
0.558054
0.559002
0.559972
0.560965
0.561977
0.563009
0.564058
0.565122
0.5662
0.56729
0.568389
0.569494
0.570604
0.571717
0.572829
0.57394
0.575046
0.576145
0.577237
0.578319
0.57939
0.580448
0.581493
0.582522
0.583534
0.584528
0.585503
0.586457
0.58739
0.588299
0.589185
0.590045
0.590878
0.591684
0.592461
0.593207
0.593921
0.594603
0.59525
0.595862
0.596437
0.596974
0.597471
0.597928
0.598342
0.598714
0.59904
0.599321
0.599554
0.599739
0.599873
0.599956
0.599987
0.599963
0.599885
0.59975
0.599557
0.599305
0.598994
0.598621
0.598185
0.597686
0.597122
0.596493
0.595796
0.595032
0.5942
0.593298
0.592325
0.591282
0.590166
0.588978
0.587717
0.586383
0.584974
0.583491
0.581933
0.580301
0.578593
0.57681
0.574953
0.573021
0.571014
0.568934
0.566779
0.564551
0.562249
0.559874
0.557424
0.554899
0.552297
0.549619
0.54686
0.544031
0.541107
0.538195
0.535026
0.600949
0.600708
0.600418
0.60007
0.599659
0.599184
0.59865
0.59806
0.597419
0.596729
0.595995
0.595219
0.594406
0.593557
0.592678
0.591769
0.590835
0.589878
0.588902
0.587907
0.586898
0.585875
0.584843
0.583803
0.582758
0.581709
0.58066
0.579611
0.578567
0.577528
0.576497
0.575476
0.574467
0.573473
0.572495
0.571536
0.570598
0.569683
0.568793
0.56793
0.567095
0.566292
0.565521
0.564784
0.564083
0.563419
0.562794
0.562209
0.561666
0.561165
0.560708
0.560295
0.559927
0.559605
0.559329
0.5591
0.558917
0.55878
0.558691
0.558648
0.558652
0.558701
0.558796
0.558936
0.55912
0.559348
0.559618
0.559931
0.560284
0.560678
0.561111
0.561583
0.562091
0.562637
0.563218
0.563833
0.564482
0.565164
0.565878
0.566622
0.567397
0.568201
0.569033
0.569893
0.570779
0.57169
0.572626
0.573584
0.574563
0.575563
0.57658
0.577614
0.578662
0.579721
0.58079
0.581866
0.582947
0.584031
0.585114
0.586196
0.587273
0.588345
0.589409
0.590464
0.591509
0.592542
0.593561
0.594566
0.595554
0.596525
0.597476
0.598408
0.599319
0.600206
0.60107
0.601908
0.60272
0.603504
0.604258
0.604982
0.605674
0.606333
0.606956
0.607544
0.608095
0.608606
0.609077
0.609507
0.609894
0.610236
0.610533
0.610783
0.610983
0.611134
0.611234
0.611281
0.611274
0.611212
0.611092
0.610915
0.610679
0.610382
0.610023
0.609602
0.609116
0.608565
0.607948
0.607264
0.606511
0.605689
0.604796
0.603833
0.602798
0.60169
0.60051
0.599255
0.597926
0.596523
0.595044
0.593491
0.591862
0.590157
0.588377
0.586522
0.584592
0.582588
0.580509
0.578357
0.576131
0.573831
0.571458
0.569011
0.566489
0.563892
0.561218
0.558463
0.555637
0.552714
0.549799
0.546615
0.619047
0.618784
0.618461
0.618076
0.617623
0.617105
0.616524
0.615886
0.615194
0.614452
0.613664
0.612833
0.611964
0.611059
0.610123
0.609158
0.608168
0.607155
0.606123
0.605074
0.604011
0.602936
0.601852
0.600761
0.599665
0.598568
0.59747
0.596374
0.595283
0.594197
0.59312
0.592054
0.591
0.589961
0.588938
0.587934
0.586951
0.58599
0.585054
0.584144
0.583262
0.582409
0.581589
0.580801
0.580048
0.579332
0.578653
0.578012
0.577412
0.576852
0.576334
0.57586
0.575428
0.575041
0.574698
0.574399
0.574146
0.573938
0.573776
0.573658
0.573585
0.573557
0.573573
0.573632
0.573735
0.573881
0.574068
0.574296
0.574565
0.574874
0.575221
0.575606
0.576029
0.576488
0.576983
0.577512
0.578076
0.578673
0.579303
0.579964
0.580657
0.58138
0.582133
0.582915
0.583724
0.584562
0.585425
0.586313
0.587225
0.588159
0.589114
0.590088
0.591078
0.592082
0.593099
0.594125
0.595159
0.596197
0.597238
0.598279
0.599319
0.600355
0.601387
0.602412
0.603429
0.604436
0.605432
0.606415
0.607384
0.608338
0.609275
0.610193
0.611092
0.61197
0.612826
0.613658
0.614465
0.615245
0.615998
0.616721
0.617414
0.618075
0.618702
0.619294
0.619849
0.620367
0.620845
0.621283
0.621678
0.62203
0.622336
0.622596
0.622808
0.62297
0.623081
0.62314
0.623145
0.623094
0.622987
0.622822
0.622598
0.622313
0.621967
0.621557
0.621083
0.620544
0.619937
0.619264
0.618521
0.617709
0.616826
0.615872
0.614845
0.613746
0.612573
0.611326
0.610004
0.608607
0.607134
0.605586
0.603962
0.602263
0.600487
0.598637
0.596712
0.594711
0.592637
0.590489
0.588268
0.585973
0.583606
0.581165
0.578649
0.576059
0.573393
0.570647
0.56783
0.564914
0.562004
0.558815
0.639106
0.638816
0.638455
0.638025
0.637522
0.63695
0.636312
0.635613
0.634858
0.634051
0.633196
0.632298
0.63136
0.630386
0.629381
0.628347
0.627289
0.626209
0.62511
0.623996
0.622869
0.621732
0.620587
0.619436
0.618282
0.617127
0.615973
0.614822
0.613677
0.612539
0.611409
0.610291
0.609186
0.608096
0.607023
0.605968
0.604934
0.603922
0.602935
0.601973
0.601038
0.600132
0.599257
0.598414
0.597604
0.596829
0.59609
0.595388
0.594725
0.5941
0.593516
0.592973
0.592471
0.592011
0.591594
0.591219
0.590888
0.5906
0.590355
0.590154
0.589996
0.58988
0.589807
0.589776
0.589787
0.589839
0.589932
0.590065
0.590237
0.590448
0.590697
0.590984
0.591307
0.591667
0.592062
0.592492
0.592956
0.593453
0.593984
0.594547
0.595143
0.595769
0.596427
0.597115
0.597833
0.598579
0.599354
0.600155
0.600983
0.601835
0.60271
0.603606
0.60452
0.605451
0.606398
0.607357
0.608325
0.6093
0.61028
0.611264
0.612249
0.613233
0.614216
0.615194
0.616167
0.617132
0.618089
0.619036
0.619971
0.620893
0.6218
0.622691
0.623565
0.62442
0.625254
0.626067
0.626857
0.627622
0.628361
0.629072
0.629755
0.630406
0.631026
0.631612
0.632163
0.632678
0.633154
0.633591
0.633986
0.634339
0.634648
0.634911
0.635127
0.635293
0.63541
0.635475
0.635486
0.635443
0.635344
0.635187
0.634971
0.634695
0.634357
0.633956
0.633492
0.632961
0.632364
0.6317
0.630966
0.630163
0.629289
0.628344
0.627326
0.626235
0.62507
0.623831
0.622516
0.621127
0.619662
0.618121
0.616504
0.614811
0.613043
0.611199
0.60928
0.607287
0.605219
0.603079
0.600865
0.598578
0.596219
0.593787
0.591283
0.588704
0.58605
0.583317
0.580514
0.577612
0.574714
0.571531
0.661239
0.660915
0.660508
0.660022
0.659457
0.658817
0.658106
0.657331
0.656496
0.655606
0.654667
0.653684
0.65266
0.6516
0.65051
0.649392
0.648251
0.647089
0.645911
0.644719
0.643516
0.642305
0.641088
0.639867
0.638645
0.637423
0.636205
0.634991
0.633783
0.632585
0.631396
0.630219
0.629057
0.62791
0.62678
0.625668
0.624578
0.623509
0.622464
0.621445
0.620452
0.619487
0.618551
0.617647
0.616774
0.615935
0.61513
0.61436
0.613627
0.612931
0.612272
0.611653
0.611073
0.610533
0.610033
0.609574
0.609155
0.608778
0.608441
0.608146
0.607891
0.607677
0.607504
0.607372
0.607279
0.607225
0.607211
0.607236
0.607298
0.607398
0.607535
0.607709
0.607919
0.608164
0.608445
0.60876
0.609109
0.609492
0.609908
0.610357
0.610839
0.611353
0.611898
0.612476
0.613084
0.613722
0.61439
0.615087
0.615812
0.616563
0.617339
0.618137
0.618957
0.619798
0.620655
0.621526
0.622409
0.623302
0.624204
0.625111
0.626023
0.626937
0.627852
0.628765
0.629676
0.630583
0.631484
0.632377
0.633261
0.634135
0.634997
0.635845
0.636679
0.637496
0.638295
0.639074
0.639833
0.640569
0.641281
0.641968
0.642627
0.643258
0.643859
0.644428
0.644964
0.645464
0.645929
0.646355
0.646741
0.647086
0.647389
0.647647
0.647858
0.648023
0.648137
0.648202
0.648214
0.648172
0.648075
0.647921
0.647709
0.647437
0.647104
0.646709
0.64625
0.645726
0.645136
0.644479
0.643753
0.642957
0.642091
0.641154
0.640144
0.639062
0.637905
0.636674
0.635368
0.633987
0.632531
0.630998
0.62939
0.627706
0.625947
0.624112
0.622202
0.620218
0.61816
0.61603
0.613826
0.611551
0.609204
0.606785
0.604294
0.60173
0.599093
0.596378
0.593594
0.590713
0.587833
0.584666
0.685574
0.685207
0.684742
0.684186
0.683541
0.682812
0.682007
0.681131
0.680192
0.679195
0.678148
0.677055
0.675922
0.674755
0.673559
0.672337
0.671094
0.669834
0.66856
0.667275
0.665982
0.664684
0.663382
0.66208
0.660779
0.659481
0.658188
0.656902
0.655624
0.654357
0.653101
0.651859
0.650631
0.64942
0.648227
0.647052
0.645899
0.644767
0.643659
0.642575
0.641517
0.640486
0.639484
0.63851
0.637568
0.636657
0.635778
0.634933
0.634122
0.633346
0.632605
0.631901
0.631233
0.630603
0.63001
0.629456
0.628939
0.628461
0.628022
0.627621