/*--------------------------------*- C++ -*----------------------------------*\
| =========                 |                                                 |
| \\      /  F ield         | OpenFOAM: The Open Source CFD Toolbox           |
|  \\    /   O peration     | Version:  2.3.0                                 |
|   \\  /    A nd           | Web:      www.OpenFOAM.org                      |
|    \\/     M anipulation  |                                                 |
\*---------------------------------------------------------------------------*/
FoamFile
{
    version     2.0;
    format      ascii;
    class       volScalarField;
    location    "7";
    object      p;
}
// * * * * * * * * * * * * * * * * * * * * * * * * * * * * * * * * * * * * * //

dimensions      [0 2 -2 0 0 0 0];

internalField   nonuniform List<scalar> 
1720
(
0.00067576
0.000674236
0.000402418
0.000229133
0.000218699
0.000283036
0.00033277
0.00033825
0.000311376
0.000271673
0.000229618
0.000183904
0.000130924
6.65177e-05
-6.42551e-06
-8.41433e-05
-0.000172886
-0.000259148
-0.000339244
-0.000411484
-0.000472577
-0.000520699
-0.000554515
-0.000582285
-0.000609555
-0.000683262
-0.000709469
-0.00218281
-0.00339626
-0.00442068
-0.00520051
-0.00571589
-0.00596699
-0.00595672
-0.00569833
-0.00521412
-0.00453419
-0.00369916
-0.00276797
-0.00182732
-0.00102683
-0.000421122
0.00024581
0.0004101
0.000352572
0.000322344
0.000346695
0.000478033
0.000678486
1.49846e-05
-0.000812188
-0.00165039
-0.0024403
-0.00318899
-0.0037965
-0.00416894
-0.00423546
-0.00394261
-0.00318219
-0.00192594
0.00212153
0.00186755
0.00106994
0.000682512
0.000711571
0.000882057
0.00099385
0.000996403
0.000922948
0.00081673
0.000698992
0.000566149
0.00040771
0.000216013
-7.2341e-06
-0.000256096
-0.000522111
-0.000786711
-0.00103597
-0.0012595
-0.00144717
-0.00159348
-0.00170203
-0.00178833
-0.00187306
-0.00196644
-0.00200854
-0.0023026
-0.00252491
-0.00257076
-0.00243678
-0.00217276
-0.0018181
-0.00140377
-0.000959298
-0.000513255
-8.70509e-05
0.000294281
0.000610627
0.000852205
0.00102354
0.00107966
0.000946554
0.00087347
0.000802539
0.000761088
0.000726521
0.000672064
0.000632845
0.000443776
0.000423703
0.000469382
0.000400638
0.000415181
0.000554491
0.000681547
0.000838266
0.000943382
0.000902594
0.000506051
0.00371198
0.0029221
0.00163714
0.00115676
0.00126576
0.00151916
0.00166344
0.00165244
0.00153928
0.00137831
0.00119449
0.000978035
0.000714481
0.000390863
8.05137e-06
-0.000424104
-0.000886552
-0.00135253
-0.00179297
-0.00218323
-0.00250368
-0.00274661
-0.00292184
-0.00305272
-0.00316377
-0.00326714
-0.00337426
-0.00357585
-0.00376633
-0.00388304
-0.00388965
-0.00377324
-0.00353998
-0.00320536
-0.00278744
-0.00230395
-0.00178619
-0.0012537
-0.000719264
-0.000204698
0.000291791
0.000774223
0.00118313
0.00135457
0.00137452
0.00132238
0.00120434
0.00100714
0.000722494
0.000280965
-0.000221065
-0.000811519
-0.00112631
-0.00133421
-0.00149955
-0.00149677
-0.00138341
-0.00118991
-0.000949235
-0.000631178
0.00502436
0.00393748
0.00222749
0.00166252
0.00185915
0.00218233
0.0023444
0.00231702
0.00217299
0.00197032
0.00173193
0.0014377
0.00107
0.000608288
5.58424e-05
-0.000578403
-0.00126997
-0.00197824
-0.00265006
-0.00323411
-0.00369182
-0.00401518
-0.00423201
-0.00438661
-0.00451707
-0.00464241
-0.00477282
-0.00491277
-0.00501982
-0.00504174
-0.00493006
-0.00465786
-0.00422889
-0.00365641
-0.00296986
-0.00221464
-0.00142159
-0.000622773
0.000149529
0.000849005
0.00138851
0.00175546
0.00195495
0.0020744
0.00207189
0.0019502
0.00172481
0.00140662
0.0010126
0.000572503
0.000145854
-0.000210209
-0.000551144
-0.000890946
-0.00104355
-0.00103662
-0.000897194
-0.000664204
-0.00037852
-0.00017735
0.00635988
0.00490315
0.00280102
0.00216951
0.00246556
0.00285854
0.00303829
0.00300112
0.00283944
0.00261111
0.0023325
0.00196897
0.00149937
0.00089072
0.000153078
-0.000711678
-0.00167286
-0.002681
-0.0036512
-0.00448014
-0.00508509
-0.00545876
-0.00567404
-0.0058221
-0.00596143
-0.0061064
-0.00624387
-0.00635343
-0.00639379
-0.00631355
-0.00606811
-0.00563321
-0.00501335
-0.00423416
-0.0033385
-0.00237949
-0.00140963
-0.000474052
0.000374143
0.0010962
0.00172173
0.00221742
0.00259044
0.00276033
0.00275309
0.0025817
0.002261
0.0018069
0.0012424
0.000593783
-9.24569e-05
-0.000739011
-0.00137418
-0.00153152
-0.00161061
-0.00152686
-0.00128407
-0.000950581
-0.000603221
-0.000329655
0.00767236
0.00579162
0.003342
0.00267207
0.0030787
0.00354545
0.00374985
0.00371687
0.00355564
0.0033225
0.00302079
0.00260138
0.00203358
0.00126712
0.000317697
-0.000827486
-0.00210805
-0.00348458
-0.00483985
-0.00598062
-0.00674695
-0.00713683
-0.00729768
-0.00739604
-0.00752218
-0.0076781
-0.00783075
-0.00793932
-0.00794394
-0.00778691
-0.00742586
-0.00683738
-0.00602589
-0.00503054
-0.0039093
-0.00272587
-0.00154176
-0.000408339
0.000636091
0.00156743
0.00235796
0.00296143
0.00336928
0.00354784
0.00350876
0.00326238
0.00282278
0.00220808
0.00145485
0.000616559
-0.000229312
-0.000986267
-0.00154785
-0.00204554
-0.0022224
-0.00215793
-0.00188996
-0.00145311
-0.000963298
-0.000499428
0.00893431
0.00660628
0.00385519
0.00318411
0.0037032
0.00424026
0.00447615
0.00446729
0.0043324
0.00412373
0.00382254
0.00337018
0.00271098
0.00178364
0.000578434
-0.000943455
-0.00264564
-0.00447814
-0.00628728
-0.00775793
-0.00863155
-0.00900961
-0.00909556
-0.00911995
-0.00920703
-0.00935305
-0.00952008
-0.00966141
-0.00967957
-0.00948771
-0.0090332
-0.00829662
-0.00728666
-0.00604442
-0.00464801
-0.00318534
-0.00172838
-0.000335093
0.000939842
0.00203928
0.00291772
0.00351771
0.00403287
0.00423927
0.00418088
0.00388095
0.00335743
0.00262592
0.00172215
0.000696608
-0.000372297
-0.00138534
-0.00223082
-0.00284797
-0.00310007
-0.00299249
-0.002616
-0.00202958
-0.00131378
-0.000596117
0.0101163
0.0073311
0.00432399
0.00372213
0.00435354
0.00493992
0.00520956
0.00524884
0.00517573
0.00503069
0.00476875
0.00431908
0.00358501
0.00250721
0.00099265
-0.00104911
-0.00347578
-0.00602163
-0.00827995
-0.00985797
-0.0106507
-0.0108578
-0.0108173
-0.0107916
-0.0108748
-0.0110398
-0.011264
-0.0114822
-0.011568
-0.0113964
-0.0108866
-0.0100131
-0.00880043
-0.00730357
-0.00560678
-0.00382607
-0.00206867
-0.000420335
0.00105361
0.00230958
0.00333087
0.00414572
0.00450231
0.00464381
0.00453314
0.00418683
0.00362493
0.00285002
0.00188235
0.000747329
-0.000481039
-0.00168637
-0.00273645
-0.00352127
-0.00392889
-0.00390171
-0.00345053
-0.0026749
-0.00168212
-0.000684749
0.0112143
0.00802237
0.00460691
0.00428247
0.0050463
0.00564384
0.00594714
0.00605842
0.00608637
0.00605107
0.00589066
0.00549966
0.00474254
0.00352936
0.0016505
-0.00107299
-0.00474079
-0.00911593
-0.0119347
-0.0130155
-0.0129486
-0.0124031
-0.0119607
-0.011998
-0.0120875
-0.0122386
-0.0125582
-0.0129531
-0.0132131
-0.0131836
-0.0127445
-0.011835
-0.0104742
-0.00875692
-0.00680805
-0.00476034
-0.00274707
-0.00088466
0.000738825
0.00206572
0.00307213
0.00376741
0.00415464
0.00423024
0.00409464
0.00376955
0.00326402
0.00257063
0.00169084
0.000602658
-0.000649453
-0.00195109
-0.00315024
-0.0040958
-0.00464995
-0.00470911
-0.00426212
-0.00338824
-0.00210694
-0.000759281
0.0122078
0.00863104
0.00492104
0.00477405
0.00566685
0.00632052
0.0066801
0.00688479
0.00704724
0.00717252
0.00719348
0.0069561
0.0063057
0.00498468
0.00276081
-0.00116861
-0.00602402
-0.0150823
-0.0192046
-0.0195345
-0.0173083
-0.0145853
-0.0125835
-0.0127028
-0.0126413
-0.0126936
-0.0131343
-0.0137017
-0.0141029
-0.0142701
-0.014035
-0.013278
-0.0119753
-0.01021
-0.00814502
-0.00596376
-0.0038468
-0.00194072
-0.000342792
0.000900456
0.00179532
0.00238581
0.00276447
0.00281446
0.0027445
0.00254803
0.00220907
0.00170919
0.00101779
8.87692e-05
-0.00100189
-0.00224847
-0.00348975
-0.00453305
-0.00519446
-0.00535348
-0.00494052
-0.00401774
-0.00256945
-0.000895757
0.0130831
0.00915361
0.00524327
0.00519031
0.00620266
0.00694217
0.00737962
0.00769718
0.00801762
0.00835558
0.00863221
0.00869219
0.00835073
0.00718255
0.00493727
-0.00206991
-0.00751476
-0.0144803
-0.013159
-0.0128202
-0.0124111
-0.012567
-0.012982
-0.0135284
-0.0141184
-0.0144826
-0.0144638
-0.0139343
-0.0128478
-0.0112637
-0.00935321
-0.00731109
-0.00534902
-0.0036246
-0.0022298
-0.0011886
-0.00044937
3.18296e-05
0.000322505
0.000594298
0.00074073
0.000768581
0.000667637
0.000405976
-4.5277e-05
-0.000678716
-0.00152365
-0.00260672
-0.00374899
-0.00481432
-0.00553715
-0.0057845
-0.00541792
-0.00448783
-0.00296007
-0.00105039
0.0138186
0.00958392
0.00552382
0.00553799
0.00665633
0.00748544
0.00800949
0.00844863
0.00893957
0.00952388
0.0101105
0.0106191
0.010776
0.0103085
0.00830116
0.00274462
-0.0123724
-0.0122693
-0.0126078
-0.0130966
-0.0136374
-0.0140229
-0.014121
-0.0138003
-0.0130047
-0.0117351
-0.0102024
-0.00854357
-0.00700566
-0.00570003
-0.00468202
-0.00393894
-0.00338036
-0.00288498
-0.00244805
-0.0019819
-0.00156221
-0.00122912
-0.00102389
-0.000979675
-0.00112922
-0.00150996
-0.00213745
-0.00291893
-0.00387532
-0.00489645
-0.00563011
-0.00592986
-0.00562976
-0.00473531
-0.00320439
-0.00117114
0.0143928
0.00991423
0.00574636
0.00581419
0.00702004
0.0079249
0.00853134
0.00908225
0.00974244
0.010564
0.0114909
0.0124727
0.013287
0.0138135
0.012366
0.00899663
-0.0119356
-0.0117027
-0.0119553
-0.0122976
-0.0126778
-0.0130081
-0.0131375
-0.0129684
-0.0124626
-0.0116393
-0.0106465
-0.00959729
-0.00869953
-0.00799614
-0.00743903
-0.00697862
-0.00654049
-0.00600579
-0.00535649
-0.00459669
-0.00381962
-0.00312217
-0.00257638
-0.00221709
-0.00206922
-0.00216017
-0.00252505
-0.00308551
-0.00384853
-0.00470028
-0.00542576
-0.00576337
-0.00554042
-0.00472187
-0.00326001
-0.00122451
0.0147891
0.0101401
0.00590234
0.0060097
0.00727745
0.00823772
0.00890825
0.009547
0.0103447
0.0113602
0.0125854
0.0139729
0.0154371
0.0167433
0.0170219
-0.0110684
-0.0111295
-0.0113226
-0.0115647
-0.0117832
-0.0118862
-0.0118218
-0.0115796
-0.0112169
-0.0108104
-0.0104916
-0.0102724
-0.0101726
-0.0101161
-0.00996692
-0.00960429
-0.00898451
-0.00808155
-0.00697655
-0.00580554
-0.00471677
-0.00381742
-0.0031487
-0.00272336
-0.00256058
-0.00262431
-0.00298285
-0.00356318
-0.00424942
-0.0049181
-0.00527502
-0.00513577
-0.00442943
-0.00310952
-0.00119542
0.0149957
0.0102581
0.00598566
0.00611517
0.00741524
0.00840652
0.00911252
0.00980274
0.0106769
0.0118078
0.0132027
0.0148535
0.016726
0.0186732
0.0201272
-0.0101813
-0.0102273
-0.0103292
-0.0104576
-0.0105754
-0.010645
-0.0106553
-0.010642
-0.0106919
-0.0108403
-0.0111726
-0.0115953
-0.0120903
-0.0124847
-0.0125625
-0.0122584
-0.0115409
-0.0104164
-0.00899188
-0.00744477
-0.00597555
-0.00473303
-0.00376229
-0.003067
-0.00269505
-0.00252687
-0.00262841
-0.00304455
-0.00356726
-0.0041182
-0.00448868
-0.00443705
-0.0038745
-0.00276014
-0.00108049
0.0150065
0.010266
0.00599299
0.00612444
0.00742706
0.00842098
0.00913014
0.00982439
0.0107037
0.0118411
0.013244
0.0149056
0.0167925
0.0187623
0.0202466
-0.00939237
-0.00942658
-0.00944536
-0.00946254
-0.00948243
-0.00951682
-0.00961501
-0.00983945
-0.0102334
-0.0108471
-0.0117121
-0.0126819
-0.0136133
-0.0142481
-0.0145061
-0.01426
-0.0134685
-0.0121663
-0.0104806
-0.00862148
-0.00683387
-0.00530993
-0.00407662
-0.00313286
-0.00256044
-0.0022334
-0.00213721
-0.002349
-0.00272591
-0.00313527
-0.00346805
-0.00350653
-0.00310845
-0.002243
-0.00088794
0.014821
0.0101636
0.00592404
0.00603711
0.00731236
0.00828048
0.00896034
0.00961098
0.0104238
0.0114582
0.0127071
0.0141255
0.0156303
0.0169949
0.017377
-0.00884072
-0.00878932
-0.00871772
-0.00863493
-0.00857536
-0.00859828
-0.00878627
-0.00919592
-0.00987462
-0.0108484
-0.0120521
-0.0133261
-0.0144917
-0.0153331
-0.0156773
-0.0154487
-0.0145993
-0.0131618
-0.0112846
-0.00920587
-0.00720315
-0.0054962
-0.00408234
-0.00301072
-0.00224825
-0.00178052
-0.00155057
-0.00155739
-0.00179381
-0.00208799
-0.0023551
-0.0024392
-0.00221204
-0.00161598
-0.000640526
0.0144444
0.00995249
0.00578156
0.00585857
0.00707644
0.00799403
0.00861557
0.00918566
0.00987028
0.0107223
0.0116877
0.0127189
0.0136012
0.0142176
0.012936
0.00976164
-0.00835603
-0.00844222
-0.00827053
-0.00811912
-0.00797517
-0.00789017
-0.00790778
-0.00816276
-0.00869408
-0.00954995
-0.0107179
-0.0120948
-0.0135036
-0.0147609
-0.0157366
-0.0160487
-0.0158098
-0.014907
-0.0133752
-0.0113885
-0.0092087
-0.00711069
-0.00532935
-0.00386115
-0.00270758
-0.00186271
-0.00128586
-0.000930633
-0.0007884
-0.000853937
-0.00105256
-0.00126547
-0.00138079
-0.00129007
-0.000957202
-0.000372114
0.0138876
0.00963566
0.0055711
0.00559747
0.00673169
0.00757792
0.0081221
0.00858677
0.00911021
0.0097349
0.0103731
0.0109475
0.0111937
0.0108474
0.00901137
0.00374589
-0.00830759
-0.00812734
-0.00785104
-0.00761423
-0.0074282
-0.0073344
-0.00739744
-0.00770499
-0.00831401
-0.0092498
-0.0104743
-0.0118675
-0.0132571
-0.0144531
-0.0152457
-0.0156989
-0.0154466
-0.0144883
-0.0129051
-0.0108946
-0.00873236
-0.00670037
-0.00492951
-0.00348743
-0.00233562
-0.00145692
-0.000816172
-0.00037161
-0.000109612
-3.59809e-05
-0.000119391
-0.000276562
-0.00041217
-0.000442494
-0.000342143
-0.00011496
0.0131663
0.00921698
0.00530074
0.00526223
0.00629376
0.00705397
0.00751556
0.00786373
0.00822296
0.00860946
0.00894713
0.00908633
0.00884876
0.00782403
0.00576792
-0.000845313
-0.00590973
-0.0124239
-0.00921115
-0.00872791
-0.00830343
-0.00793689
-0.00753308
-0.00721142
-0.00699483
-0.00691295
-0.00701533
-0.00737184
-0.00802324
-0.00897185
-0.0101654
-0.0114809
-0.012784
-0.013893
-0.0146562
-0.0149357
-0.0145529
-0.0135061
-0.0119089
-0.00997345
-0.00794922
-0.00605069
-0.00441507
-0.00305975
-0.00196048
-0.0010911
-0.000420689
8.16719e-05
0.000428572
0.000609805
0.000627892
0.00053043
0.000392786
0.00028168
0.00017568
0.000106646
0.0123016
0.00870367
0.0049864
0.00485523
0.00576979
0.00644679
0.00683331
0.0070721
0.00727768
0.0074568
0.00754508
0.00739345
0.00685511
0.00568003
0.00365617
1.01234e-05
-0.00446918
-0.0128605
-0.0163562
-0.0161579
-0.0135816
-0.0107093
-0.00877007
-0.00870167
-0.00833267
-0.00783086
-0.00735327
-0.00700062
-0.00678184
-0.00670266
-0.00682501
-0.00721592
-0.00787941
-0.00879472
-0.00990186
-0.0110514
-0.0122317
-0.0131522
-0.0137189
-0.0137952
-0.0132482
-0.0121273
-0.0105967
-0.00883511
-0.00703679
-0.00536164
-0.00389291
-0.00265471
-0.0016312
-0.000798878
-0.000131376
0.000397868
0.000799621
0.00106065
0.00116399
0.00112145
0.000982172
0.000794617
0.000551493
0.000278812
0.0113145
0.00810129
0.00467766
0.00436954
0.00515661
0.00577899
0.00611077
0.0062579
0.00633127
0.00635208
0.0062616
0.00595718
0.00531177
0.00423781
0.00254088
5.61791e-05
-0.0033
-0.00726091
-0.00961666
-0.0102953
-0.0098941
-0.00907528
-0.00841355
-0.00818184
-0.00790249
-0.00752779
-0.00714441
-0.00684997
-0.00669682
-0.00665914
-0.00681585
-0.00723251
-0.00787675
-0.00870978
-0.00968719
-0.0107131
-0.0115439
-0.0121976
-0.0124451
-0.0122201
-0.0115707
-0.0105531
-0.00922374
-0.00771338
-0.00618773
-0.00475137
-0.00346238
-0.00234445
-0.00139466
-0.000602015
4.79277e-05
0.000576715
0.00100058
0.00131089
0.00148243
0.00149574
0.00136777
0.00113594
0.000773179
0.000414444
0.0102188
0.00741235
0.00439761
0.00381181
0.0044665
0.00507797
0.00537633
0.00545156
0.00542395
0.00533465
0.00514126
0.00477518
0.00414536
0.00319651
0.00184088
4.43641e-06
-0.00217696
-0.00442648
-0.00634456
-0.00757219
-0.0080455
-0.00797909
-0.00767635
-0.00739212
-0.007166
-0.00694754
-0.00673511
-0.00657189
-0.00651257
-0.0065664
-0.00676491
-0.00714589
-0.00770706
-0.00838941
-0.00913931
-0.00985619
-0.0104203
-0.0107747
-0.0108193
-0.0105268
-0.00994677
-0.00906849
-0.00793732
-0.00669589
-0.00544771
-0.0042522
-0.00314684
-0.0021558
-0.00128416
-0.000528839
0.000109832
0.000635053
0.00105973
0.00138779
0.00160153
0.00166689
0.00156788
0.00132733
0.000900371
0.000491735
0.00903444
0.00668715
0.00392824
0.00327227
0.00381398
0.00437536
0.00463894
0.00466452
0.00457305
0.00441741
0.00418018
0.00380522
0.00323944
0.00242688
0.00135901
5.35827e-06
-0.00150147
-0.00310863
-0.00466323
-0.0058525
-0.00647035
-0.00662808
-0.00649275
-0.00630224
-0.0061644
-0.00607355
-0.00600803
-0.00597208
-0.00600467
-0.00612798
-0.00635
-0.00669852
-0.00715725
-0.00770138
-0.00825313
-0.00874948
-0.00912101
-0.00931662
-0.00931096
-0.00906749
-0.00855173
-0.00776963
-0.00682394
-0.00581148
-0.00479301
-0.00381207
-0.00288885
-0.00203854
-0.00126891
-0.000577705
3.43364e-05
0.00055952
0.000991826
0.00133009
0.00156636
0.00167209
0.00161232
0.00140023
0.000979789
0.000476992
0.00776608
0.00586859
0.00341099
0.00275464
0.00318265
0.00367195
0.00390178
0.00390028
0.00377865
0.00359366
0.00334919
0.00299825
0.00251158
0.00184277
0.00100825
-2.39673e-06
-0.00112819
-0.00233117
-0.00349396
-0.00443244
-0.00499632
-0.00520049
-0.00519143
-0.00513609
-0.00510978
-0.0051219
-0.00516018
-0.00521649
-0.00532177
-0.00550057
-0.00575227
-0.00606911
-0.0064644
-0.00689279
-0.00730918
-0.00767635
-0.00794959
-0.00809288
-0.00807255
-0.0078435
-0.00739198
-0.00675546
-0.00597651
-0.00512436
-0.00425954
-0.00342479
-0.00263623
-0.00190106
-0.00123064
-0.000629948
-9.37722e-05
0.000381481
0.000795437
0.00114032
0.00140115
0.001553
0.00153288
0.00136783
0.00100155
0.000411788
0.00644258
0.004973
0.00286301
0.002243
0.00255824
0.00297107
0.00317292
0.00316307
0.00303571
0.00284897
0.00261926
0.00231335
0.00191117
0.00138191
0.000736457
-2.30028e-05
-0.000864931
-0.00174124
-0.00256889
-0.00324837
-0.00370292
-0.00393963
-0.00403044
-0.00406871
-0.00411319
-0.00418535
-0.00428798
-0.00440622
-0.0045568
-0.00478007
-0.00507817
-0.00540592
-0.00575214
-0.00610111
-0.00643492
-0.00673037
-0.00695707
-0.00708167
-0.00706051
-0.00688107
-0.00655877
-0.00609514
-0.00547914
-0.00476803
-0.00401545
-0.00324662
-0.00251
-0.0018257
-0.00119658
-0.000632124
-0.000136841
0.000286809
0.000636074
0.000919112
0.00113672
0.00127065
0.00132523
0.00121626
0.000928698
0.00034424
0.00509248
0.00399685
0.00227959
0.00172389
0.00193656
0.00227612
0.00245608
0.00245085
0.00233471
0.00216577
0.00196667
0.00171802
0.001403
0.0010023
0.000519987
-3.52274e-05
-0.00063886
-0.00125095
-0.00182034
-0.00229786
-0.00264919
-0.00287439
-0.0030051
-0.00309411
-0.00318227
-0.00329559
-0.00343167
-0.00359581
-0.00380854
-0.00404199
-0.00436722
-0.00473276
-0.00507954
-0.0054112
-0.00572536
-0.00600208
-0.00621521
-0.00634194
-0.0063674
-0.00627654
-0.00607961
-0.00577211
-0.00533077
-0.00479021
-0.00418003
-0.00351788
-0.00283221
-0.00217584
-0.00154003
-0.000935099
-0.000378916
0.000116768
0.000526145
0.000835906
0.00104055
0.00106441
0.00110766
0.00101068
0.000771317
0.000299574
0.00376274
0.00296759
0.00167646
0.001203
0.00132436
0.00159017
0.00174756
0.00175276
0.00166013
0.00152407
0.00136897
0.00118539
0.000959335
0.000678485
0.000344409
-3.27258e-05
-0.000434664
-0.000835781
-0.00120852
-0.00152819
-0.00177906
-0.0019583
-0.00207998
-0.00218516
-0.00229693
-0.00245005
-0.00260923
-0.00274871
-0.00310363
-0.00365558
-0.00408023
-0.00446938
-0.00485719
-0.00521884
-0.00552991
-0.00577421
-0.00593787
-0.00600818
-0.00598169
-0.0058522
-0.00560339
-0.0052772
-0.00495598
-0.00458616
-0.00417543
-0.00375397
-0.00332625
-0.00286732
-0.00240739
-0.00194259
-0.00147977
-0.00102706
-0.00057721
-0.000111486
0.000213468
0.00065297
0.00083252
0.000769791
0.000576108
0.000220956
0.00215434
0.00189636
0.00109373
0.000710871
0.000748437
0.000926944
0.00104666
0.00105894
0.000998097
0.000907226
0.000807059
0.000694083
0.000557896
0.000391568
0.000195551
-2.15558e-05
-0.000249937
-0.00047777
-0.000690492
-0.000874313
-0.00102416
-0.0011356
-0.00121876
-0.00130337
-0.00142697
-0.00164999
-0.00186854
-0.00188598
-0.0019231
-0.00197962
-0.00206873
-0.00209958
-0.00207983
-0.00205107
-0.00201736
-0.00196252
-0.00187379
-0.00174217
-0.00156292
-0.0013359
-0.00106452
-0.000760617
-0.000421828
-7.40972e-05
0.000259056
0.00055618
0.000802919
0.000975803
0.00107232
0.00109547
0.00105537
0.000983491
0.000883564
0.000784384
0.000762411
0.000665489
0.000586952
0.000516825
0.000406296
0.000164646
0.000687374
0.000684639
0.000410445
0.000238658
0.000231602
0.000298943
0.000351298
0.000360026
0.000337384
0.000303108
0.000266836
0.000228132
0.000182137
0.000126819
6.16124e-05
-8.82585e-06
-8.14078e-05
-0.000156232
-0.000226225
-0.000286311
-0.000336744
-0.000372259
-0.000406052
-0.000434072
-0.000529415
-0.000781269
-0.00126573
-0.00153357
-0.00289348
-0.00445172
-0.00587017
-0.00724539
-0.00864689
-0.0100577
-0.0114399
-0.0127564
-0.0139709
-0.0150393
-0.0159134
-0.0165522
-0.0169111
-0.0169608
-0.0166949
-0.016114
-0.0152235
-0.014054
-0.0126454
-0.0110409
-0.00930175
-0.00750386
-0.00571281
-0.00398809
-0.00242345
-0.00108492
-9.76633e-05
0.000344352
0.000137141
0.000120478
0.000119546
5.04557e-05
)
;

boundaryField
{
    upstream
    {
        type            fixedValue;
        value           uniform 0;
    }
    downstream
    {
        type            fixedValue;
        value           uniform 0;
    }
    upANDdown
    {
        type            fixedValue;
        value           uniform 0;
    }
    frontAndBack
    {
        type            empty;
    }
    cylinder
    {
        type            zeroGradient;
    }
}


// ************************************************************************* //
