/*--------------------------------*- C++ -*----------------------------------*\
| =========                 |                                                 |
| \\      /  F ield         | OpenFOAM: The Open Source CFD Toolbox           |
|  \\    /   O peration     | Version:  2.3.0                                 |
|   \\  /    A nd           | Web:      www.OpenFOAM.org                      |
|    \\/     M anipulation  |                                                 |
\*---------------------------------------------------------------------------*/
FoamFile
{
    version     2.0;
    format      ascii;
    class       surfaceScalarField;
    location    "7";
    object      phi;
}
// * * * * * * * * * * * * * * * * * * * * * * * * * * * * * * * * * * * * * //

dimensions      [0 3 -1 0 0 0 0];

internalField   nonuniform List<scalar> 
3330
(
1.99245e-07
-3.61434e-09
1.99164e-07
-1.10116e-08
1.98512e-07
-1.50541e-08
1.97896e-07
-1.73744e-08
1.97597e-07
-1.96953e-08
1.9744e-07
-2.25156e-08
1.97278e-07
-2.58447e-08
1.97077e-07
-2.92923e-08
1.96885e-07
-3.26335e-08
1.96737e-07
-3.56465e-08
1.96657e-07
-3.83615e-08
1.96679e-07
-4.06979e-08
1.968e-07
-4.26501e-08
1.97079e-07
-4.4066e-08
1.97492e-07
-4.4888e-08
1.9805e-07
-4.48627e-08
1.98736e-07
-4.42047e-08
1.99557e-07
-4.26273e-08
2.00466e-07
-4.01879e-08
2.01393e-07
-3.6959e-08
2.02282e-07
-3.30302e-08
2.03088e-07
-2.8553e-08
2.03793e-07
-2.37162e-08
2.04364e-07
-1.86013e-08
2.04898e-07
-1.33714e-08
2.05906e-07
-8.39007e-09
2.10497e-07
-3.2135e-09
2.12793e-07
1.85035e-09
2.14172e-07
5.05509e-09
2.1457e-07
7.95881e-09
2.14015e-07
1.03687e-08
2.12574e-07
1.22126e-08
2.10388e-07
1.34224e-08
2.07654e-07
1.39488e-08
2.04596e-07
1.37895e-08
2.01469e-07
1.29552e-08
1.98499e-07
1.15262e-08
1.95884e-07
9.60716e-09
1.93801e-07
7.32547e-09
1.92483e-07
4.78559e-09
1.92052e-07
2.38339e-09
1.93486e-07
-6.32769e-10
1.95229e-07
-2.22008e-09
1.99505e-07
-4.43292e-09
2.02884e-07
-6.55726e-09
2.06272e-07
-7.46535e-09
2.09841e-07
-7.73641e-09
2.13977e-07
-6.32635e-09
2.19834e-07
-5.06774e-09
2.23182e-07
-3.3767e-09
2.25096e-07
-3.68466e-10
2.25946e-07
2.28376e-09
2.25582e-07
4.98798e-09
2.2402e-07
7.59401e-09
2.21187e-07
1.00029e-08
2.16806e-07
1.22423e-08
2.11148e-07
1.36402e-08
2.03328e-07
1.52477e-08
1.93225e-07
1.59176e-08
1.80278e-08
1.98525e-07
-5.83369e-09
1.98005e-07
-1.04909e-08
1.96777e-07
-1.38263e-08
1.95873e-07
-1.6471e-08
1.95431e-07
-1.92527e-08
1.95217e-07
-2.23016e-08
1.95101e-07
-2.57286e-08
1.94955e-07
-2.9147e-08
1.94864e-07
-3.25418e-08
1.94856e-07
-3.56386e-08
1.95046e-07
-3.85519e-08
1.9545e-07
-4.11014e-08
1.96113e-07
-4.33136e-08
1.97064e-07
-4.50167e-08
1.98244e-07
-4.60679e-08
1.99767e-07
-4.63862e-08
2.014e-07
-4.58377e-08
2.03142e-07
-4.43694e-08
2.04924e-07
-4.197e-08
2.06592e-07
-3.86268e-08
2.08033e-07
-3.44713e-08
2.09204e-07
-2.97242e-08
2.10164e-07
-2.46754e-08
2.10977e-07
-1.94147e-08
2.11788e-07
-1.41819e-08
2.12426e-07
-9.02838e-09
2.12897e-07
-3.68441e-09
2.13776e-07
9.70891e-10
2.13448e-07
5.38336e-09
2.12561e-07
8.84576e-09
2.11262e-07
1.16674e-08
2.09649e-07
1.3826e-08
2.07782e-07
1.52888e-08
2.05739e-07
1.59921e-08
2.0364e-07
1.58884e-08
2.01612e-07
1.49835e-08
1.99802e-07
1.3336e-08
1.98367e-07
1.10419e-08
1.97516e-07
8.17656e-09
1.97522e-07
4.7803e-09
1.98717e-07
1.18795e-09
1.9958e-07
-1.49552e-09
2.01465e-07
-4.10485e-09
2.0367e-07
-6.63866e-09
2.06185e-07
-9.07192e-09
2.09261e-07
-1.05415e-08
2.12348e-07
-1.08232e-08
2.1609e-07
-1.00682e-08
2.19167e-07
-8.14474e-09
2.21748e-07
-5.95741e-09
2.24423e-07
-3.04441e-09
2.26824e-07
-1.16459e-10
2.27487e-07
4.32484e-09
2.27065e-07
8.01538e-09
2.25391e-07
1.16774e-08
2.22658e-07
1.49755e-08
2.18841e-07
1.7457e-08
2.14518e-07
1.95702e-08
2.10276e-07
2.016e-08
2.02546e-08
1.94454e-07
-6.25434e-09
1.94032e-07
-1.00686e-08
1.93767e-07
-1.35614e-08
1.93307e-07
-1.60115e-08
1.92885e-07
-1.88307e-08
1.9264e-07
-2.20558e-08
1.92558e-07
-2.56473e-08
1.92487e-07
-2.90755e-08
1.92571e-07
-3.26257e-08
1.92773e-07
-3.58404e-08
1.93304e-07
-3.90838e-08
1.94132e-07
-4.19295e-08
1.95358e-07
-4.45391e-08
1.96958e-07
-4.66166e-08
1.98984e-07
-4.80941e-08
2.01324e-07
-4.87259e-08
2.0393e-07
-4.84444e-08
2.06628e-07
-4.70675e-08
2.0922e-07
-4.45617e-08
2.11537e-07
-4.09441e-08
2.13447e-07
-3.63809e-08
2.14935e-07
-3.12121e-08
2.16043e-07
-2.57833e-08
2.1696e-07
-2.03316e-08
2.17725e-07
-1.49475e-08
2.18216e-07
-9.51913e-09
2.18696e-07
-4.16423e-09
2.1866e-07
1.00701e-09
2.1829e-07
5.75322e-09
2.17315e-07
9.82103e-09
2.15762e-07
1.32204e-08
2.13689e-07
1.58988e-08
2.11258e-07
1.77197e-08
2.08589e-07
1.86605e-08
2.05775e-07
1.87029e-08
2.03068e-07
1.76902e-08
2.00643e-07
1.57608e-08
1.98684e-07
1.30015e-08
1.9727e-07
9.59013e-09
1.96256e-07
5.79459e-09
1.9528e-07
2.16409e-09
1.96293e-07
-2.50874e-09
1.98744e-07
-6.55561e-09
2.02259e-07
-1.01536e-08
2.06473e-07
-1.32867e-08
2.11407e-07
-1.5475e-08
2.16924e-07
-1.63407e-08
2.22859e-07
-1.60031e-08
2.28904e-07
-1.41898e-08
2.34103e-07
-1.11565e-08
2.37541e-07
-6.48256e-09
2.38202e-07
-7.76634e-10
2.38611e-07
3.91578e-09
2.37595e-07
9.03123e-09
2.35209e-07
1.40637e-08
2.31751e-07
1.84333e-08
2.2702e-07
2.21873e-08
2.21973e-07
2.46176e-08
2.15463e-07
2.66698e-08
2.77626e-08
1.92043e-07
-6.38869e-09
1.91822e-07
-9.8472e-09
1.91158e-07
-1.28971e-08
1.90765e-07
-1.56184e-08
1.90369e-07
-1.84347e-08
1.90076e-07
-2.17631e-08
1.89982e-07
-2.55535e-08
1.89917e-07
-2.90103e-08
1.90116e-07
-3.28254e-08
1.9045e-07
-3.6174e-08
1.91302e-07
-3.99354e-08
1.92439e-07
-4.30673e-08
1.94259e-07
-4.63587e-08
1.96505e-07
-4.88622e-08
1.99369e-07
-5.09588e-08
2.02793e-07
-5.21496e-08
2.06515e-07
-5.21658e-08
2.1026e-07
-5.0813e-08
2.13826e-07
-4.81282e-08
2.16826e-07
-4.39435e-08
2.19164e-07
-3.87195e-08
2.20923e-07
-3.29707e-08
2.22285e-07
-2.71451e-08
2.23323e-07
-2.13695e-08
2.24038e-07
-1.56627e-08
2.24502e-07
-9.98357e-09
2.24635e-07
-4.29661e-09
2.24311e-07
1.33099e-09
2.23521e-07
6.54298e-09
2.21984e-07
1.13579e-08
2.19692e-07
1.55127e-08
2.16712e-07
1.88783e-08
2.13175e-07
2.12575e-08
2.09279e-07
2.25556e-08
2.05249e-07
2.27332e-08
2.0126e-07
2.16792e-08
1.97562e-07
1.94593e-08
1.94415e-07
1.61475e-08
1.92062e-07
1.19439e-08
1.9089e-07
6.96597e-09
1.91962e-07
1.0929e-09
1.93321e-07
-3.86813e-09
1.95914e-07
-9.1488e-09
1.99666e-07
-1.39057e-08
2.04167e-07
-1.77878e-08
2.09433e-07
-2.07405e-08
2.15219e-07
-2.2127e-08
2.213e-07
-2.20842e-08
2.27286e-07
-2.01757e-08
2.32972e-07
-1.68422e-08
2.38325e-07
-1.18361e-08
2.43439e-07
-5.88971e-09
2.45874e-07
1.48054e-09
2.45989e-07
8.91625e-09
2.43864e-07
1.6188e-08
2.4007e-07
2.22277e-08
2.34679e-07
2.75782e-08
2.28338e-07
3.09588e-08
2.21243e-07
3.37651e-08
3.39236e-08
1.89684e-07
-6.33291e-09
1.89463e-07
-9.62589e-09
1.88745e-07
-1.21794e-08
1.88309e-07
-1.51823e-08
1.87834e-07
-1.79601e-08
1.87445e-07
-2.13735e-08
1.8726e-07
-2.5369e-08
1.87122e-07
-2.8872e-08
1.87337e-07
-3.30405e-08
1.87719e-07
-3.65564e-08
1.88795e-07
-4.10105e-08
1.90211e-07
-4.44838e-08
1.9265e-07
-4.8798e-08
1.95555e-07
-5.17671e-08
1.99484e-07
-5.48871e-08
2.04025e-07
-5.66905e-08
2.09139e-07
-5.728e-08
2.14429e-07
-5.61036e-08
2.19224e-07
-5.29228e-08
2.22903e-07
-4.76226e-08
2.25575e-07
-4.13914e-08
2.27611e-07
-3.50068e-08
2.29209e-07
-2.87427e-08
2.30432e-07
-2.25925e-08
2.31163e-07
-1.63943e-08
2.3136e-07
-1.01798e-08
2.31081e-07
-4.01803e-09
2.30345e-07
2.06681e-09
2.28875e-07
8.01382e-09
2.26571e-07
1.36609e-08
2.23326e-07
1.87585e-08
2.19264e-07
2.29401e-08
2.14496e-07
2.60257e-08
2.09308e-07
2.77436e-08
2.04069e-07
2.79721e-08
1.99077e-07
2.66713e-08
1.94626e-07
2.39101e-08
1.91005e-07
1.97683e-08
1.88397e-07
1.45525e-08
1.86811e-07
8.55103e-09
1.85488e-07
2.41615e-09
1.86201e-07
-4.58096e-09
1.88165e-07
-1.11123e-08
1.91495e-07
-1.72362e-08
1.96006e-07
-2.22985e-08
2.01639e-07
-2.63737e-08
2.08254e-07
-2.87425e-08
2.1576e-07
-2.95894e-08
2.23744e-07
-2.81599e-08
2.31745e-07
-2.48429e-08
2.38789e-07
-1.88803e-08
2.43945e-07
-1.10463e-08
2.46871e-07
-1.44532e-09
2.48105e-07
7.68232e-09
2.46916e-07
1.7377e-08
2.43551e-07
2.55931e-08
2.38223e-07
3.29063e-08
2.31857e-07
3.73243e-08
2.24974e-07
4.06483e-08
4.08687e-08
1.87408e-07
-6.14088e-09
1.8707e-07
-9.28731e-09
1.86386e-07
-1.14955e-08
1.85792e-07
-1.45885e-08
1.8519e-07
-1.73586e-08
1.84689e-07
-2.08724e-08
1.8431e-07
-2.49896e-08
1.84027e-07
-2.85891e-08
1.84112e-07
-3.31258e-08
1.84465e-07
-3.69094e-08
1.85664e-07
-4.22093e-08
1.87301e-07
-4.61211e-08
1.90427e-07
-5.19234e-08
1.94001e-07
-5.53417e-08
1.99347e-07
-6.02324e-08
2.04997e-07
-6.23407e-08
2.1193e-07
-6.42133e-08
2.19294e-07
-6.34676e-08
2.25591e-07
-5.92202e-08
2.3017e-07
-5.22009e-08
2.33459e-07
-4.46811e-08
2.35298e-07
-3.68452e-08
2.36168e-07
-2.96131e-08
2.36485e-07
-2.29091e-08
2.3633e-07
-1.62399e-08
2.35846e-07
-9.69502e-09
2.35082e-07
-3.2542e-09
2.33785e-07
3.36361e-09
2.31655e-07
1.01442e-08
2.28563e-07
1.67526e-08
2.24449e-07
2.28725e-08
2.1931e-07
2.80786e-08
2.13364e-07
3.19721e-08
2.06906e-07
3.42017e-08
2.00297e-07
3.45812e-08
1.93904e-07
3.30637e-08
1.8804e-07
2.97743e-08
1.8293e-07
2.48785e-08
1.78672e-07
1.88108e-08
1.75404e-07
1.1819e-08
1.73617e-07
4.2029e-09
1.72885e-07
-3.8487e-09
1.7346e-07
-1.16873e-08
1.75221e-07
-1.89973e-08
1.78322e-07
-2.54001e-08
1.83008e-07
-3.10589e-08
1.89375e-07
-3.51103e-08
1.97364e-07
-3.75777e-08
2.06471e-07
-3.72672e-08
2.16153e-07
-3.45252e-08
2.25766e-07
-2.84934e-08
2.34758e-07
-2.00381e-08
2.42001e-07
-8.68789e-09
2.45909e-07
3.77418e-09
2.4694e-07
1.63463e-08
2.45594e-07
2.69386e-08
2.4176e-07
3.67408e-08
2.36059e-07
4.3025e-08
2.28836e-07
4.78715e-08
4.86368e-08
1.85203e-07
-5.80784e-09
1.84664e-07
-8.74907e-09
1.83973e-07
-1.0804e-08
1.83166e-07
-1.37817e-08
1.82439e-07
-1.66313e-08
1.81809e-07
-2.02426e-08
1.81111e-07
-2.42917e-08
1.80599e-07
-2.80774e-08
1.80338e-07
-3.28649e-08
1.8062e-07
-3.71914e-08
1.81656e-07
-4.32446e-08
1.83572e-07
-4.80375e-08
1.87103e-07
-5.54542e-08
1.91674e-07
-5.99122e-08
1.99123e-07
-6.76821e-08
2.06117e-07
-6.93347e-08
2.15293e-07
-7.33895e-08
2.25206e-07
-7.33803e-08
2.32907e-07
-6.69208e-08
2.37246e-07
-5.65405e-08
2.39228e-07
-4.66629e-08
2.3909e-07
-3.67068e-08
2.38498e-07
-2.90213e-08
2.37932e-07
-2.23431e-08
2.36822e-07
-1.51296e-08
2.35341e-07
-8.21447e-09
2.33912e-07
-1.82516e-09
2.31902e-07
5.37374e-09
2.29123e-07
1.29227e-08
2.254e-07
2.04766e-08
2.20541e-07
2.77305e-08
2.14539e-07
3.40811e-08
2.07539e-07
3.89718e-08
1.99864e-07
4.18771e-08
1.91847e-07
4.2598e-08
1.8384e-07
4.10711e-08
1.76175e-07
3.74388e-08
1.69162e-07
3.18918e-08
1.63102e-07
2.48711e-08
1.5802e-07
1.69004e-08
1.53577e-07
8.6457e-09
1.49238e-07
4.90353e-10
1.46183e-07
-8.63176e-09
1.44646e-07
-1.74607e-08
1.45401e-07
-2.61547e-08
1.48984e-07
-3.46419e-08
1.55539e-07
-4.1665e-08
1.64914e-07
-4.69528e-08
1.76425e-07
-4.87791e-08
1.89313e-07
-4.74122e-08
2.02394e-07
-4.15749e-08
2.14989e-07
-3.26334e-08
2.26033e-07
-1.97318e-08
2.34871e-07
-5.06324e-09
2.39916e-07
1.13008e-08
2.41359e-07
2.54959e-08
2.39649e-07
3.84503e-08
2.35459e-07
4.72158e-08
2.29018e-07
5.43118e-08
5.58323e-08
1.83206e-07
-5.41751e-09
1.8249e-07
-8.03363e-09
1.81255e-07
-9.56852e-09
1.80345e-07
-1.28715e-08
1.79655e-07
-1.5942e-08
1.78811e-07
-1.93979e-08
1.77669e-07
-2.31499e-08
1.76786e-07
-2.71945e-08
1.75996e-07
-3.20752e-08
1.76002e-07
-3.7197e-08
1.76573e-07
-4.38162e-08
1.78703e-07
-5.01666e-08
1.82216e-07
-5.89678e-08
1.88183e-07
-6.58788e-08
1.9766e-07
-7.71595e-08
2.08778e-07
-8.04525e-08
2.20831e-07
-8.54421e-08
2.32087e-07
-8.46364e-08
2.37944e-07
-7.27781e-08
2.39072e-07
-5.76688e-08
2.37824e-07
-4.54142e-08
2.34594e-07
-3.34777e-08
2.30819e-07
-2.52456e-08
2.2758e-07
-1.91043e-08
2.23755e-07
-1.13045e-08
2.20497e-07
-4.95611e-09
2.17914e-07
7.57842e-10
2.15548e-07
7.73904e-09
2.13127e-07
1.53439e-08
2.10007e-07
2.35964e-08
2.05683e-07
3.20551e-08
1.99906e-07
3.98576e-08
1.92776e-07
4.61016e-08
1.84475e-07
5.0178e-08
1.75342e-07
5.17311e-08
1.65846e-07
5.05677e-08
1.56438e-07
4.68463e-08
1.47255e-07
4.1075e-08
1.38039e-07
3.40875e-08
1.28484e-07
2.64546e-08
1.18848e-07
1.82816e-08
1.10193e-07
9.14538e-09
1.0341e-07
-1.84878e-09
1.00209e-07
-1.42595e-08
1.01088e-07
-2.70338e-08
1.05999e-07
-3.95523e-08
1.14529e-07
-5.01958e-08
1.26174e-07
-5.85973e-08
1.40312e-07
-6.29173e-08
1.56069e-07
-6.31692e-08
1.72143e-07
-5.7649e-08
1.87747e-07
-4.82374e-08
2.02077e-07
-3.40613e-08
2.14715e-07
-1.7702e-08
2.24475e-07
1.541e-09
2.3027e-07
1.97011e-08
2.31852e-07
3.68678e-08
2.29843e-07
4.92248e-08
2.25068e-07
5.90872e-08
6.20155e-08
1.81284e-07
-4.91344e-09
1.79978e-07
-6.72754e-09
1.80263e-07
-9.8534e-09
1.78995e-07
-1.1604e-08
1.77232e-07
-1.41788e-08
1.75702e-07
-1.78682e-08
1.74062e-07
-2.15099e-08
1.72643e-07
-2.57752e-08
1.71124e-07
-3.05563e-08
1.70436e-07
-3.65084e-08
1.70176e-07
-4.35563e-08
1.72018e-07
-5.2009e-08
1.75157e-07
-6.21064e-08
1.82323e-07
-7.30453e-08
1.93969e-07
-8.88054e-08
2.11173e-07
-9.7657e-08
2.29524e-07
-1.03793e-07
2.33237e-07
-8.83493e-08
2.30369e-07
-6.99107e-08
2.22028e-07
-4.93271e-08
2.11816e-07
-3.52023e-08
1.99335e-07
-2.09964e-08
1.90483e-07
-1.6394e-08
1.80926e-07
-9.5472e-09
1.73397e-07
-3.77534e-09
1.69315e-07
-8.74975e-10
1.67511e-07
2.5626e-09
1.67583e-07
7.66671e-09
1.68612e-07
1.43146e-08
1.69298e-07
2.29107e-08
1.68576e-07
3.27775e-08
1.65746e-07
4.26876e-08
1.60582e-07
5.12652e-08
1.53351e-07
5.74095e-08
1.44486e-07
6.05956e-08
1.34207e-07
6.08467e-08
1.22539e-07
5.85142e-08
1.09425e-07
5.41891e-08
9.52139e-08
4.82985e-08
8.09936e-08
4.06749e-08
6.86178e-08
3.06574e-08
6.00391e-08
1.7724e-08
5.59649e-08
2.22542e-09
5.62645e-08
-1.45591e-08
6.06548e-08
-3.1424e-08
6.84208e-08
-4.73184e-08
7.90121e-08
-6.0787e-08
9.20001e-08
-7.15853e-08
1.07274e-07
-7.81915e-08
1.24421e-07
-8.03155e-08
1.42395e-07
-7.56233e-08
1.6004e-07
-6.58827e-08
1.76285e-07
-5.03066e-08
1.90679e-07
-3.20958e-08
2.02966e-07
-1.07461e-08
2.12029e-07
1.06387e-08
2.17277e-07
3.16194e-08
2.18542e-07
4.79603e-08
2.1632e-07
6.13085e-08
6.69527e-08
1.79578e-07
-4.34356e-09
1.78576e-07
-5.72588e-09
1.77619e-07
-8.89635e-09
1.76345e-07
-1.03304e-08
1.74593e-07
-1.24263e-08
1.72609e-07
-1.58841e-08
1.70385e-07
-1.92858e-08
1.68182e-07
-2.35718e-08
1.65788e-07
-2.81628e-08
1.63885e-07
-3.46051e-08
1.6226e-07
-4.19316e-08
1.62531e-07
-5.22797e-08
1.64932e-07
-6.45077e-08
1.72063e-07
-8.0176e-08
1.89928e-07
-1.0667e-07
2.04454e-07
-1.12183e-07
2.14109e-07
-1.13448e-07
2.81191e-07
-1.55432e-07
2.11281e-07
1.61953e-07
1.26751e-07
1.05755e-07
7.6284e-08
1.30768e-08
6.99776e-08
-3.24087e-09
6.97349e-08
-3.53267e-09
7.47041e-08
-5.84411e-09
8.18528e-08
-4.58617e-09
8.93547e-08
1.649e-10
9.65631e-08
7.10619e-09
1.02409e-07
1.70644e-08
1.06298e-07
2.88887e-08
1.07653e-07
4.13328e-08
1.06002e-07
5.29163e-08
1.01213e-07
6.21984e-08
9.34114e-08
6.8397e-08
8.29012e-08
7.13569e-08
7.01156e-08
7.12999e-08
5.58686e-08
6.8436e-08
4.17232e-08
6.24439e-08
2.98029e-08
5.25952e-08
2.201e-08
3.84503e-08
1.92615e-08
2.04724e-08
2.11313e-08
3.55662e-10
2.65179e-08
-1.99457e-08
3.46886e-08
-3.95947e-08
4.45108e-08
-5.71405e-08
5.55586e-08
-7.18349e-08
6.7647e-08
-8.36736e-08
8.13176e-08
-9.18622e-08
9.72127e-08
-9.62107e-08
1.15295e-07
-9.37061e-08
1.33638e-07
-8.42251e-08
1.51063e-07
-6.77318e-08
1.66687e-07
-4.772e-08
1.80019e-07
-2.40781e-08
1.9082e-07
-1.62263e-10
1.9842e-07
2.40196e-08
2.02449e-07
4.39315e-08
2.02907e-07
6.08499e-08
7.04494e-08
1.78017e-07
-3.66218e-09
1.77011e-07
-4.72007e-09
1.75605e-07
-7.49072e-09
1.74024e-07
-8.74855e-09
1.72087e-07
-1.04894e-08
1.69662e-07
-1.34592e-08
1.66864e-07
-1.64884e-08
1.63727e-07
-2.04348e-08
1.60287e-07
-2.4723e-08
1.56711e-07
-3.10286e-08
1.53112e-07
-3.83327e-08
1.50357e-07
-4.95244e-08
1.49237e-07
-6.33882e-08
1.52469e-07
-8.34077e-08
1.6998e-07
-1.24181e-07
2.68879e-07
-2.11082e-07
1.55432e-07
1.30768e-08
9.83591e-09
1.48918e-08
-8.58862e-09
2.33289e-08
-1.42812e-08
3.08248e-08
-1.20821e-08
3.75033e-08
-6.51356e-09
4.27281e-08
1.88134e-09
4.67742e-08
1.30183e-08
4.93143e-08
2.63486e-08
4.99574e-08
4.06897e-08
4.83921e-08
5.44816e-08
4.41444e-08
6.64461e-08
3.70259e-08
7.55156e-08
2.73248e-08
8.10581e-08
1.59602e-08
8.26644e-08
4.82846e-09
7.95678e-08
-3.8297e-09
7.11021e-08
-8.28743e-09
5.70529e-08
-7.84491e-09
3.80078e-08
-2.99963e-09
1.56271e-08
4.696e-09
-7.33998e-09
1.45301e-08
-2.97798e-08
2.53719e-08
-5.04366e-08
3.64941e-08
-6.82626e-08
4.75043e-08
-8.28451e-08
5.81495e-08
-9.43189e-08
6.86642e-08
-1.02377e-07
7.97859e-08
-1.07332e-07
9.38323e-08
-1.07753e-07
1.10516e-07
-1.00909e-07
1.27725e-07
-8.49407e-08
1.43419e-07
-6.34141e-08
1.57293e-07
-3.79518e-08
1.68877e-07
-1.17464e-08
1.77729e-07
1.51672e-08
1.83439e-07
3.82216e-08
1.86016e-07
5.82726e-08
7.22742e-08
1.76683e-07
-2.86751e-09
1.75613e-07
-3.65035e-09
1.73972e-07
-5.84951e-09
1.72074e-07
-6.85052e-09
1.69853e-07
-8.26919e-09
1.67001e-07
-1.06066e-08
1.63618e-07
-1.31053e-08
1.59569e-07
-1.63864e-08
1.54933e-07
-2.00862e-08
1.49539e-07
-2.56352e-08
1.43354e-07
-3.21481e-08
1.36589e-07
-4.27588e-08
1.28456e-07
-5.52556e-08
1.2118e-07
-7.6131e-08
1.07903e-07
-1.10905e-07
-1.03179e-07
-3.06188e-10
-8.28243e-09
2.44206e-09
-1.70295e-08
4.23228e-09
-1.38723e-08
5.36124e-09
-7.64253e-09
5.85581e-09
1.38676e-09
5.9087e-09
1.29654e-08
5.17654e-09
2.70807e-08
3.31235e-09
4.25538e-08
-1.70492e-10
5.79644e-08
-5.44909e-09
7.17247e-08
-1.21201e-08
8.21866e-08
-1.91723e-08
8.81103e-08
-2.54554e-08
8.89474e-08
-2.93255e-08
8.34379e-08
-2.96065e-08
7.13831e-08
-2.60816e-08
5.3528e-08
-1.90822e-08
3.10084e-08
-9.04619e-09
5.5911e-09
2.6234e-09
-1.90096e-08
1.53012e-08
-4.24576e-08
2.785e-08
-6.29854e-08
3.9411e-08
-7.98237e-08
4.96061e-08
-9.30402e-08
5.85083e-08
-1.03221e-07
6.65765e-08
-1.10445e-07
7.39535e-08
-1.14709e-07
8.19603e-08
-1.15759e-07
9.31897e-08
-1.12138e-07
1.07848e-07
-9.95988e-08
1.2238e-07
-7.79466e-08
1.35872e-07
-5.14436e-08
1.47331e-07
-2.32049e-08
1.56711e-07
5.78681e-09
1.63287e-07
3.16454e-08
1.67295e-07
5.42648e-08
7.26564e-08
1.75636e-07
-1.98128e-09
1.74491e-07
-2.50587e-09
1.72677e-07
-4.03549e-09
1.70556e-07
-4.72956e-09
1.68036e-07
-5.74858e-09
1.64804e-07
-7.37467e-09
1.60871e-07
-9.17197e-09
1.56013e-07
-1.15288e-08
1.50214e-07
-1.42868e-08
1.43039e-07
-1.84602e-08
1.34343e-07
-2.34526e-08
1.23598e-07
-3.20131e-08
1.09789e-07
-4.14466e-08
9.48851e-08
-6.12275e-08
1.03179e-07
-1.19199e-07
-8.28244e-09
-5.81099e-09
-1.95009e-08
-9.14002e-09
-1.05433e-08
-1.3064e-08
-3.71853e-09
-1.71821e-08
5.50487e-09
-2.17702e-08
1.75534e-08
-2.6566e-08
3.18766e-08
-3.13953e-08
4.73831e-08
-3.59238e-08
6.24929e-08
-3.98723e-08
7.56731e-08
-4.25484e-08
8.48627e-08
-4.38356e-08
8.93975e-08
-4.32854e-08
8.83972e-08
-4.02468e-08
8.03994e-08
-3.47081e-08
6.58444e-08
-2.6188e-08
4.50079e-08
-1.45927e-08
1.94131e-08
-1.74496e-09
-7.25662e-09
1.21329e-08
-3.28874e-08
2.60496e-08
-5.63743e-08
3.90707e-08
-7.60065e-08
5.03154e-08
-9.10683e-08
5.917e-08
-1.01895e-07
6.56796e-08
-1.09731e-07
7.04891e-08
-1.15254e-07
7.45767e-08
-1.18797e-07
7.85662e-08
-1.19749e-07
8.37192e-08
-1.17291e-07
9.28566e-08
-1.08736e-07
1.04688e-07
-8.97778e-08
1.16603e-07
-6.33592e-08
1.27354e-07
-3.39557e-08
1.36547e-07
-3.40615e-09
1.43425e-07
2.47679e-08
1.4821e-07
4.94791e-08
7.19411e-08
1.74911e-07
-1.03021e-09
1.73705e-07
-1.30012e-09
1.71767e-07
-2.09748e-09
1.69498e-07
-2.46049e-09
1.66751e-07
-3.00106e-09
1.63226e-07
-3.85002e-09
1.58867e-07
-4.81333e-09
1.53394e-07
-6.05547e-09
1.46681e-07
-7.57392e-09
1.38008e-07
-9.78692e-09
1.27206e-07
-1.26506e-08
1.12503e-07
-1.73098e-08
9.42287e-08
-2.31727e-08
6.86608e-08
-3.56595e-08
-5.05385e-08
-8.2693e-09
-1.12316e-08
-1.49206e-08
-3.892e-09
-2.17234e-08
3.08428e-09
-2.83662e-08
1.21476e-08
-3.4546e-08
2.37333e-08
-3.98642e-08
3.71947e-08
-4.38835e-08
5.14025e-08
-4.64808e-08
6.50902e-08
-4.76119e-08
7.68043e-08
-4.7187e-08
8.44378e-08
-4.56778e-08
8.78883e-08
-4.22641e-08
8.49835e-08
-3.62026e-08
7.43378e-08
-2.64063e-08
5.60481e-08
-1.33632e-08
3.19647e-08
7.84734e-10
5.26514e-09
1.4636e-08
-2.11078e-08
2.86852e-08
-4.69367e-08
4.22652e-08
-6.99543e-08
5.47401e-08
-8.84814e-08
6.53014e-08
-1.0163e-07
7.31285e-08
-1.09722e-07
7.78354e-08
-1.14438e-07
7.95411e-08
-1.1696e-07
7.93912e-08
-1.18647e-07
7.95621e-08
-1.1992e-07
8.07946e-08
-1.18524e-07
8.41547e-08
-1.12096e-07
9.12522e-08
-9.68753e-08
1.00545e-07
-7.2652e-08
1.09799e-07
-4.32099e-08
1.18197e-07
-1.18042e-08
1.24912e-07
1.80533e-08
1.30043e-07
4.43481e-08
7.04176e-08
1.74532e-07
-4.45652e-11
1.73292e-07
-5.96831e-11
1.71287e-07
-9.2539e-11
1.68934e-07
-1.08222e-10
1.66068e-07
-1.34267e-10
1.62388e-07
-1.7e-10
1.57786e-07
-2.11474e-10
1.5199e-07
-2.60039e-10
1.44736e-07
-3.1972e-10
1.35343e-07
-3.93943e-10
1.23177e-07
-4.84293e-10
1.06468e-07
-6.01256e-10
8.40438e-08
-7.48295e-10
4.93362e-08
-9.51903e-10
-1.20229e-09
-7.27634e-09
-3.9553e-09
-1.56591e-08
4.49075e-09
-2.36948e-08
1.11199e-08
-3.06566e-08
1.91094e-08
-3.62663e-08
2.9343e-08
-4.04295e-08
4.13579e-08
-4.31356e-08
5.41085e-08
-4.44357e-08
6.63903e-08
-4.41157e-08
7.64843e-08
-4.22083e-08
8.25303e-08
-3.80384e-08
8.37184e-08
-3.01001e-08
7.70452e-08
-1.81944e-08
6.24322e-08
-3.79108e-09
4.16448e-08
1.06581e-08
1.75156e-08
2.40818e-08
-8.15865e-09
3.73144e-08
-3.43404e-08
4.99541e-08
-5.95764e-08
6.18347e-08
-8.1835e-08
7.25055e-08
-9.91522e-08
8.13366e-08
-1.10461e-07
8.78129e-08
-1.16198e-07
9.1355e-08
-1.1798e-07
9.17386e-08
-1.17344e-07
8.87302e-08
-1.15639e-07
8.45033e-08
-1.15693e-07
8.15992e-08
-1.1562e-07
8.07253e-08
-1.11222e-07
8.28539e-08
-9.9004e-08
8.83414e-08
-7.81395e-08
9.54068e-08
-5.02752e-08
1.02523e-07
-1.89202e-08
1.08696e-07
1.18799e-08
1.13884e-07
3.91606e-08
6.8269e-08
1.74512e-07
9.43274e-10
1.73269e-07
1.18338e-09
1.7126e-07
1.91636e-09
1.68903e-07
2.24857e-09
1.6603e-07
2.73834e-09
1.62342e-07
3.51846e-09
1.57731e-07
4.39936e-09
1.51923e-07
5.54815e-09
1.44656e-07
6.94748e-09
1.35244e-07
9.01827e-09
1.23062e-07
1.16976e-08
1.0633e-07
1.61301e-08
8.38968e-08
2.16852e-08
4.92089e-08
3.3736e-08
4.80066e-08
-6.08046e-09
2.12514e-09
-1.36712e-08
1.20814e-08
-2.09226e-08
1.83713e-08
-2.71161e-08
2.5303e-08
-3.18046e-08
3.40315e-08
-3.47289e-08
4.42822e-08
-3.58305e-08
5.521e-08
-3.48617e-08
6.54215e-08
-3.15072e-08
7.31297e-08
-2.54202e-08
7.64432e-08
-1.52922e-08
7.35904e-08
-1.72868e-09
6.34816e-08
1.33079e-08
4.73956e-08
2.76519e-08
2.73008e-08
4.09751e-08
4.19234e-09
5.34574e-08
-2.06409e-08
6.52416e-08
-4.61247e-08
7.61628e-08
-7.04975e-08
8.58679e-08
-9.15402e-08
9.38959e-08
-1.0718e-07
9.97187e-08
-1.16284e-07
1.03253e-07
-1.19732e-07
1.04957e-07
-1.19684e-07
1.04358e-07
-1.16745e-07
1.00127e-07
-1.11407e-07
9.28707e-08
-1.08437e-07
8.55373e-08
-1.08286e-07
8.06641e-08
-1.06349e-07
7.90352e-08
-9.73751e-08
8.0486e-08
-7.95902e-08
8.46855e-08
-5.44747e-08
9.02046e-08
-2.44392e-08
9.55547e-08
6.52978e-09
1.00621e-07
3.40941e-08
6.56094e-08
1.74851e-07
1.90081e-09
1.73638e-07
2.39687e-09
1.71688e-07
3.86606e-09
1.69406e-07
4.53104e-09
1.66641e-07
5.50315e-09
1.63092e-07
7.0675e-09
1.58707e-07
8.78413e-09
1.53193e-07
1.10623e-08
1.46443e-07
1.36972e-08
1.37711e-07
1.77501e-08
1.26856e-07
2.25532e-08
1.12072e-07
3.09141e-08
9.37238e-08
4.00332e-08
6.804e-08
5.94198e-08
1.16047e-07
-5.53801e-09
7.66312e-09
-9.71594e-09
1.62593e-08
-1.38715e-08
2.25268e-08
-1.71367e-08
2.85682e-08
-1.90624e-08
3.59572e-08
-1.91867e-08
4.44065e-08
-1.696e-08
5.29834e-08
-1.19732e-08
6.04347e-08
-4.05126e-09
6.52078e-08
6.9719e-09
6.542e-08
2.04961e-08
6.00662e-08
3.51241e-08
4.88536e-08
4.94468e-08
3.30729e-08
6.27418e-08
1.40057e-08
7.5032e-08
-8.09788e-09
8.63557e-08
-3.19646e-08
9.681e-08
-5.65789e-08
1.06092e-07
-7.978e-08
1.1354e-07
-9.89879e-08
1.18619e-07
-1.12259e-07
1.21029e-07
-1.18694e-07
1.21089e-07
-1.19793e-07
1.19622e-07
-1.18216e-07
1.16215e-07
-1.13339e-07
1.1086e-07
-1.06052e-07
1.02753e-07
-1.0033e-07
9.27154e-08
-9.82485e-08
8.38198e-08
-9.74536e-08
7.85177e-08
-9.20729e-08
7.68959e-08
-7.79685e-08
7.81677e-08
-5.57466e-08
8.17198e-08
-2.79913e-08
8.60861e-08
2.16346e-09
9.09099e-08
2.92704e-08
6.25273e-08
1.7554e-07
2.79738e-09
1.74383e-07
3.55388e-09
1.7255e-07
5.69905e-09
1.70406e-07
6.67462e-09
1.67858e-07
8.05159e-09
1.64587e-07
1.03381e-08
1.6061e-07
1.27614e-08
1.55694e-07
1.59786e-08
1.49827e-07
1.95637e-08
1.42559e-07
2.50183e-08
1.33761e-07
3.13507e-08
1.22879e-07
4.1797e-08
1.08905e-07
5.40065e-08
9.37588e-08
7.45662e-08
1.00983e-07
1.08822e-07
1.00983e-07
-2.79295e-09
2.79292e-09
-3.89609e-09
8.76624e-09
-4.18176e-09
1.6545e-08
-3.72731e-09
2.20724e-08
-2.53069e-09
2.73716e-08
-1.15005e-10
3.35415e-08
4.07395e-09
4.02175e-08
1.04363e-08
4.6621e-08
1.91835e-08
5.16876e-08
3.02927e-08
5.40986e-08
4.33501e-08
5.23626e-08
5.7697e-08
4.57193e-08
7.21579e-08
3.43927e-08
8.57357e-08
1.94951e-08
9.79803e-08
1.76118e-09
1.0934e-07
-1.94576e-08
1.1975e-07
-4.23746e-08
1.28957e-07
-6.5786e-08
1.36261e-07
-8.70841e-08
1.40922e-07
-1.03649e-07
1.42496e-07
-1.13833e-07
1.41638e-07
-1.17836e-07
1.38958e-07
-1.17113e-07
1.33849e-07
-1.13108e-07
1.27425e-07
-1.06914e-07
1.2097e-07
-9.95972e-08
1.12744e-07
-9.21041e-08
1.01859e-07
-8.73631e-08
9.02566e-08
-8.58517e-08
8.12482e-08
-8.30645e-08
7.66004e-08
-7.33207e-08
7.55821e-08
-5.47283e-08
7.73061e-08
-2.97153e-08
8.05321e-08
-1.06261e-09
8.49847e-08
2.48178e-08
5.91375e-08
1.76554e-07
3.60561e-09
1.75468e-07
4.64046e-09
1.73801e-07
7.36579e-09
1.71871e-07
8.60453e-09
1.69614e-07
1.03084e-08
1.66713e-07
1.32398e-08
1.63269e-07
1.62049e-08
1.59147e-07
2.01008e-08
1.54411e-07
2.42997e-08
1.48906e-07
3.05229e-08
1.42564e-07
3.76925e-08
1.35629e-07
4.87329e-08
1.27244e-07
6.23914e-08
1.19723e-07
8.20867e-08
1.0618e-07
1.22366e-07
2.07163e-07
-2.16735e-09
4.96025e-09
-1.62829e-09
8.22716e-09
2.00795e-09
1.29087e-08
7.09138e-09
1.69889e-08
1.29215e-08
2.15414e-08
1.98302e-08
2.66328e-08
2.8159e-08
3.18887e-08
3.81142e-08
3.66657e-08
4.97599e-08
4.00419e-08
6.29183e-08
4.09401e-08
7.71155e-08
3.81654e-08
9.16399e-08
3.11949e-08
1.05628e-07
2.0405e-08
1.18546e-07
6.57712e-09
1.30729e-07
-1.04224e-08
1.41786e-07
-3.05144e-08
1.51816e-07
-5.24049e-08
1.59825e-07
-7.3795e-08
1.64748e-07
-9.20066e-08
1.66078e-07
-1.04979e-07
1.64136e-07
-1.11891e-07
1.5974e-07
-1.13439e-07
1.53439e-07
-1.10812e-07
1.45742e-07
-1.05411e-07
1.37777e-07
-9.89487e-08
1.29985e-07
-9.18054e-08
1.21707e-07
-8.38264e-08
1.11284e-07
-7.694e-08
9.88928e-08
-7.34604e-08
8.73094e-08
-7.14811e-08
7.94759e-08
-6.54871e-08
7.61197e-08
-5.13721e-08
7.62891e-08
-2.98847e-08
7.84662e-08
-3.23976e-09
8.25224e-08
2.07616e-08
5.55086e-08
1.77863e-07
4.30302e-09
1.76836e-07
5.6669e-09
1.754e-07
8.80235e-09
1.7378e-07
1.02243e-08
1.71798e-07
1.229e-08
1.69316e-07
1.57226e-08
1.66445e-07
1.90753e-08
1.63219e-07
2.33273e-08
1.59664e-07
2.78545e-08
1.55951e-07
3.42362e-08
1.52161e-07
4.14819e-08
1.49186e-07
5.17084e-08
1.47741e-07
6.38361e-08
1.50559e-07
7.92691e-08
1.67337e-07
1.05587e-07
2.63719e-07
1.10781e-07
1.51678e-07
1.12041e-07
1.51678e-07
8.31955e-09
-8.31957e-09
2.98525e-09
5.33428e-09
4.29737e-09
3.6481e-09
7.82829e-09
4.69623e-09
1.40601e-08
6.67686e-09
2.15535e-08
9.49558e-09
2.98397e-08
1.32552e-08
3.94705e-08
1.70019e-08
5.05203e-08
2.08389e-08
6.28732e-08
2.43128e-08
7.64135e-08
2.65016e-08
9.08812e-08
2.64724e-08
1.0583e-07
2.3217e-08
1.20779e-07
1.62453e-08
1.35086e-07
6.09814e-09
1.48591e-07
-6.92789e-09
1.61394e-07
-2.3225e-08
1.73182e-07
-4.23027e-08
1.82743e-07
-6.19662e-08
1.8865e-07
-7.97014e-08
1.90189e-07
-9.3546e-08
1.87677e-07
-1.02467e-07
1.81949e-07
-1.06164e-07
1.74067e-07
-1.05557e-07
1.65286e-07
-1.0203e-07
1.56293e-07
-9.64178e-08
1.47099e-07
-8.97545e-08
1.38202e-07
-8.29086e-08
1.29749e-07
-7.53738e-08
1.20277e-07
-6.74679e-08
1.08515e-07
-6.16982e-08
9.59066e-08
-5.88728e-08
8.56487e-08
-5.52292e-08
7.97893e-08
-4.55127e-08
7.82743e-08
-2.83697e-08
7.93945e-08
-4.35995e-09
8.30318e-08
1.71242e-08
5.16936e-08
1.79405e-07
4.89047e-09
1.7838e-07
6.69253e-09
1.77388e-07
9.79407e-09
1.76074e-07
1.15381e-08
1.74269e-07
1.40947e-08
1.72222e-07
1.77696e-08
1.69915e-07
2.13831e-08
1.67613e-07
2.56289e-08
1.6509e-07
3.03773e-08
1.63032e-07
3.62945e-08
1.61209e-07
4.33054e-08
1.61219e-07
5.16979e-08
1.633e-07
6.17556e-08
1.69941e-07
7.26281e-08
1.87193e-07
8.83346e-08
2.00763e-07
9.72113e-08
2.09592e-07
1.03211e-07
2.7345e-07
8.78201e-08
2.03204e-07
7.02464e-08
1.52767e-07
5.04369e-08
1.15581e-07
3.71861e-08
9.1478e-08
2.41029e-08
6.31753e-08
1.99831e-08
5.51105e-08
1.3399e-08
5.11133e-08
7.64535e-09
5.04082e-08
5.40123e-09
5.23337e-08
4.75141e-09
5.66086e-08
5.22064e-09
6.31247e-08
6.73908e-09
7.16117e-08
8.51496e-09
8.18623e-08
1.05883e-08
9.37535e-08
1.24216e-08
1.07135e-07
1.31205e-08
1.2169e-07
1.19169e-08
1.36967e-07
7.94007e-09
1.5241e-07
8.02613e-10
1.66996e-07
-8.48865e-09
1.81309e-07
-2.12404e-08
1.9487e-07
-3.67861e-08
2.05762e-07
-5.31943e-08
2.12001e-07
-6.8206e-08
2.13124e-07
-8.0824e-08
2.09743e-07
-9.01652e-08
2.02975e-07
-9.56988e-08
1.94182e-07
-9.73709e-08
1.84457e-07
-9.58323e-08
1.74414e-07
-9.19869e-08
1.6462e-07
-8.66242e-08
1.55078e-07
-8.02117e-08
1.45761e-07
-7.35924e-08
1.37097e-07
-6.67091e-08
1.28508e-07
-5.8879e-08
1.18202e-07
-5.1392e-08
1.05908e-07
-4.65792e-08
9.41926e-08
-4.35137e-08
8.60553e-08
-3.73754e-08
8.27116e-08
-2.50259e-08
8.26986e-08
-4.34694e-09
8.58123e-08
1.40105e-08
4.7721e-08
1.81101e-07
5.41219e-09
1.79767e-07
8.02653e-09
1.80016e-07
9.54526e-09
1.78708e-07
1.28459e-08
1.76889e-07
1.59141e-08
1.75293e-07
1.93649e-08
1.73563e-07
2.31133e-08
1.72041e-07
2.71509e-08
1.70388e-07
3.20308e-08
1.69536e-07
3.71462e-08
1.69075e-07
4.37661e-08
1.70649e-07
5.01245e-08
1.73475e-07
5.89292e-08
1.80194e-07
6.59091e-08
1.91339e-07
7.71898e-08
2.07849e-07
8.07008e-08
2.25208e-07
8.58529e-08
2.27743e-07
8.52842e-08
2.2398e-07
7.40101e-08
2.14441e-07
5.99754e-08
2.02832e-07
4.87951e-08
1.89019e-07
3.79164e-08
1.78268e-07
3.07337e-08
1.66387e-07
2.52799e-08
1.55547e-07
1.84852e-08
1.47407e-07
1.35414e-08
1.41481e-07
1.06779e-08
1.37833e-07
8.86815e-09
1.3697e-07
7.60248e-09
1.38508e-07
6.97627e-09
1.42581e-07
6.51574e-09
1.4938e-07
5.62198e-09
1.58623e-07
3.87776e-09
1.69799e-07