/*--------------------------------*- C++ -*----------------------------------*\
| =========                 |                                                 |
| \\      /  F ield         | OpenFOAM: The Open Source CFD Toolbox           |
|  \\    /   O peration     | Version:  2.3.0                                 |
|   \\  /    A nd           | Web:      www.OpenFOAM.org                      |
|    \\/     M anipulation  |                                                 |
\*---------------------------------------------------------------------------*/
FoamFile
{
    version     2.0;
    format      ascii;
    class       volVectorField;
    location    "7";
    object      U;
}
// * * * * * * * * * * * * * * * * * * * * * * * * * * * * * * * * * * * * * //

dimensions      [0 1 -1 0 0 0 0];

internalField   nonuniform List<vector> 
1720
(
(0.196782 -0.00322572 0)
(0.196599 -0.0110184 0)
(0.197756 -0.0156398 0)
(0.198477 -0.0179874 0)
(0.198372 -0.0200211 0)
(0.19786 -0.0226887 0)
(0.197362 -0.0260049 0)
(0.197056 -0.0294844 0)
(0.196883 -0.0328199 0)
(0.196781 -0.0357954 0)
(0.196702 -0.0384465 0)
(0.196655 -0.0406824 0)
(0.196737 -0.0425369 3.79278e-26)
(0.196844 -0.0437942 -2.63686e-26)
(0.19728 -0.0444807 -4.47566e-26)
(0.197729 -0.0443032 -1.38762e-26)
(0.1983 -0.0435172 4.86043e-26)
(0.199096 -0.041801 0)
(0.199952 -0.0392706 7.22105e-26)
(0.200911 -0.0360207 -7.23217e-26)
(0.201808 -0.0321272 0)
(0.202721 -0.0277318 0)
(0.203469 -0.0229932 0)
(0.204179 -0.0180104 -3.45404e-24)
(0.204924 -0.012816 2.71571e-25)
(0.205597 -0.00742157 -2.3306e-25)
(0.208719 -0.00126722 2.93956e-25)
(0.211128 0.00658001 -5.54693e-25)
(0.213022 0.0146431 0)
(0.214277 0.0227812 0)
(0.21438 0.0301855 0)
(0.213453 0.0363092 0)
(0.211656 0.0407936 0)
(0.209194 0.043421 0)
(0.20629 0.0441083 0)
(0.2032 0.042914 0)
(0.200124 0.0399932 0)
(0.197264 0.0355184 0)
(0.194816 0.0298178 0)
(0.193125 0.0232012 0)
(0.192331 0.0164717 0)
(0.19295 0.0096038 0)
(0.193539 0.00515611 0)
(0.197135 1.60032e-05 0)
(0.200853 -0.00305517 0)
(0.204873 -0.00397789 0)
(0.207598 -0.00401685 0)
(0.21217 -0.00182348 0)
(0.216463 0.00145512 0)
(0.221457 0.00705853 0)
(0.224414 0.0139359 0)
(0.225481 0.021357 0)
(0.226031 0.0291393 0)
(0.224663 0.0365771 0)
(0.22308 0.0427462 0)
(0.218654 0.0477638 0)
(0.214728 0.0504316 0)
(0.206622 0.051608 0)
(0.20005 0.0495354 0)
(0.179587 0.0435922 0)
(0.190447 -0.00415265 0)
(0.192141 -0.0111908 0)
(0.195932 -0.0148347 0)
(0.19756 -0.0170334 0)
(0.197107 -0.0194389 0)
(0.195957 -0.0224055 0)
(0.195081 -0.0258326 0)
(0.194708 -0.0292811 0)
(0.194676 -0.0326215 0)
(0.194791 -0.0356637 0)
(0.194968 -0.0384501 0)
(0.195257 -0.0408858 1.89104e-25)
(0.195733 -0.0429276 -1.89103e-25)
(0.19648 -0.0444475 0)
(0.19751 -0.0453444 0)
(0.198828 -0.0454697 -6.04364e-25)
(0.200416 -0.0447573 6.0437e-25)
(0.202164 -0.0431732 -1.41567e-24)
(0.20397 -0.0406954 1.41575e-24)
(0.205748 -0.0374124 0)
(0.207363 -0.0334272 -1.1809e-24)
(0.208736 -0.0289054 3.74066e-24)
(0.209832 -0.0240474 -2.55959e-24)
(0.210694 -0.0189334 6.52551e-24)
(0.211426 -0.0137259 -2.84347e-24)
(0.212106 -0.00846502 0)
(0.212656 -0.00339668 0)
(0.213125 3.78577e-05 9.36499e-25)
(0.213449 0.0021854 -9.32901e-25)
(0.213085 0.00314529 0)
(0.212096 0.00332468 0)
(0.210672 0.00300891 0)
(0.208913 0.00234434 0)
(0.206908 0.00140167 0)
(0.20479 0.000253777 0)
(0.202706 -0.00112185 0)
(0.200759 -0.00264156 0)
(0.199083 -0.00417068 0)
(0.197933 -0.00563998 0)
(0.197284 -0.00697731 0)
(0.197752 -0.00783563 0)
(0.198887 -0.00888722 0)
(0.200202 -0.00968988 0)
(0.202429 -0.0102962 0)
(0.204949 -0.0117446 0)
(0.207588 -0.0127067 0)
(0.210689 -0.0130374 0)
(0.214095 -0.012693 0)
(0.21775 -0.0117691 0)
(0.220481 -0.0122934 0)
(0.223152 -0.0124094 0)
(0.225732 -0.0121776 0)
(0.227551 -0.0113894 0)
(0.227503 -0.0108664 0)
(0.226832 -0.00978527 0)
(0.224114 -0.00817076 0)
(0.221716 -0.00691191 0)
(0.216711 -0.00448501 0)
(0.213732 -0.0027491 0)
(0.207787 0.00315935 0)
(0.185206 -0.00671961 0)
(0.187717 -0.0102806 0)
(0.193953 -0.0136846 0)
(0.19594 -0.0160256 0)
(0.195037 -0.0188243 0)
(0.193439 -0.0220565 0)
(0.19239 -0.0256588 0)
(0.192081 -0.0291374 0)
(0.192236 -0.0326098 0)
(0.192602 -0.0357747 4.99587e-25)
(0.193066 -0.0388387 3.44137e-25)
(0.193722 -0.0415265 -8.43671e-25)
(0.194663 -0.0439153 -1.71689e-24)
(0.195991 -0.0457496 1.64995e-25)
(0.19775 -0.0469688 0)
(0.199891 -0.0473742 -4.07148e-24)
(0.20237 -0.0468813 4.0716e-24)
(0.205035 -0.0453684 -5.17263e-24)
(0.207731 -0.0428117 6.17481e-24)
(0.210287 -0.0392935 -7.08469e-24)
(0.212515 -0.0349868 9.09821e-25)
(0.214312 -0.030142 0)
(0.215666 -0.025012 -2.96676e-23)
(0.216653 -0.0197306 4.94262e-23)
(0.217422 -0.0144237 -1.93109e-23)
(0.217968 -0.00912798 0)
(0.218437 -0.00399943 -2.34493e-23)
(0.218672 0.00104502 1.07934e-23)
(0.218467 0.00560523 -1.06509e-23)
(0.217877 0.00970819 -1.45538e-24)
(0.216675 0.0134024 -1.50105e-24)
(0.214885 0.0165174 0)
(0.212648 0.0189287 0)
(0.210037 0.0204987 0)
(0.207285 0.0211605 0)
(0.204479 0.020883 0)
(0.201833 0.019723 0)
(0.19956 0.0177366 0)
(0.197716 0.0150193 0)
(0.19663 0.0116046 0)
(0.196085 0.00799813 0)
(0.195765 0.00374155 0)
(0.196992 -0.000253284 0)
(0.199996 -0.00395806 0)
(0.20412 -0.00708894 0)
(0.208653 -0.00900826 0)
(0.213985 -0.00953046 0)
(0.219587 -0.00855884 0)
(0.225869 -0.00605135 0)
(0.231498 -0.00191385 0)
(0.236455 0.00381278 0)
(0.238115 0.0094082 0)
(0.238903 0.0145478 0)
(0.238077 0.019302 0)
(0.237193 0.0234296 0)
(0.233335 0.0266949 0)
(0.230257 0.0292525 0)
(0.223963 0.0307046 0)
(0.219696 0.0314668 0)
(0.208354 0.0299883 0)
(0.179914 -0.00631686 0)
(0.183421 -0.00981852 0)
(0.191922 -0.0130665 0)
(0.194109 -0.0157022 0)
(0.192803 -0.0185689 0)
(0.19081 -0.0219027 0)
(0.189677 -0.0256533 0)
(0.189417 -0.0291425 0)
(0.189718 -0.032819 0)
(0.190236 -0.0361166 7.18897e-25)
(0.190911 -0.0395703 5.59451e-24)
(0.191867 -0.0425629 -3.89502e-24)
(0.193216 -0.0454458 6.66188e-24)
(0.19512 -0.047692 1.55429e-23)
(0.197588 -0.049374 -3.47601e-24)
(0.200598 -0.0501713 0)
(0.204111 -0.0499701 0)
(0.207859 -0.0485369 -2.35695e-23)
(0.211666 -0.0458442 4.70139e-23)
(0.215145 -0.0419096 -2.36477e-23)
(0.218066 -0.0370512 5.37651e-24)
(0.220246 -0.0316845 5.12161e-23)
(0.22178 -0.0261683 -4.0106e-23)
(0.222847 -0.020641 -1.1547e-23)
(0.223644 -0.01513 0)
(0.224193 -0.00962987 5.84724e-23)
(0.224496 -0.00413228 -4.16949e-23)
(0.22444 0.00112646 4.96508e-23)
(0.223917 0.00615995 2.90744e-23)
(0.222826 0.0107444 1.93619e-24)
(0.220992 0.0146603 -1.93631e-24)
(0.218412 0.0178135 0)
(0.215159 0.019898 0)
(0.211463 0.0209372 0)
(0.207404 0.0208325 0)
(0.203343 0.0194677 0)
(0.199495 0.0169482 0)
(0.196041 0.0133203 0)
(0.193318 0.00876834 0)
(0.191248 0.00368997 0)
(0.190756 -0.00153765 0)
(0.192145 -0.00664319 0)
(0.194461 -0.0109479 0)
(0.197485 -0.0147881 0)
(0.201642 -0.0180142 0)
(0.206431 -0.0204509 0)
(0.21216 -0.0215659 0)
(0.217966 -0.0215306 0)
(0.224352 -0.0200745 0)
(0.229915 -0.0177174 0)
(0.235832 -0.014202 0)
(0.240763 -0.00951499 0)
(0.245509 -0.00269825 0)
(0.246218 0.00432149 0)
(0.245989 0.0115 0)
(0.241871 0.0177113 0)
(0.238536 0.0231127 0)
(0.231044 0.0265999 0)
(0.226446 0.0293053 0)
(0.215147 0.0299302 0)
(0.174571 -0.00636731 0)
(0.179308 -0.00977856 0)
(0.190018 -0.0125611 0)
(0.192154 -0.0154789 0)
(0.190481 -0.0182376 0)
(0.188057 -0.0215932 0)
(0.186864 -0.0255088 0)
(0.186569 -0.0290181 -1.3045e-24)
(0.186974 -0.0330264 -1.24178e-24)
(0.187495 -0.0364768 0)
(0.188327 -0.0405368 -6.31271e-24)
(0.18947 -0.0438578 0)
(0.191199 -0.0475268 -7.97657e-24)
(0.193672 -0.0502611 -3.14314e-23)
(0.196865 -0.0526556 -1.45091e-23)
(0.200881 -0.0539605 -2.62099e-23)
(0.205571 -0.0541424 5.91651e-23)
(0.210676 -0.0528484 7.85636e-23)
(0.215945 -0.0499881 -1.53137e-22)
(0.220573 -0.0454124 6.10435e-23)
(0.224329 -0.0397835 7.41945e-24)
(0.22679 -0.0336928 1.38141e-22)
(0.228442 -0.0276811 -1.37583e-22)
(0.229597 -0.0218507 0)
(0.23045 -0.0160606 1.31103e-22)
(0.230932 -0.0102134 -2.97953e-22)
(0.231017 -0.00432104 -2.08452e-22)
(0.230602 0.00152316 -3.49769e-23)
(0.229608 0.00718868 8.90582e-23)
(0.227846 0.0124337 0)
(0.225195 0.0170774 0)
(0.2216 0.0208023 -2.42152e-24)
(0.217234 0.0234967 -2.1436e-24)
(0.21221 0.0247969 0)
(0.206924 0.0246913 0)
(0.20169 0.0232845 0)
(0.196886 0.0206992 0)
(0.192691 0.0171104 0)
(0.189419 0.0128144 0)
(0.187394 0.00797321 0)
(0.186134 0.00293801 0)
(0.185485 -0.00286335 0)
(0.186703 -0.00881461 0)
(0.189329 -0.0143536 0)
(0.193378 -0.0188562 0)
(0.198268 -0.02232 0)
(0.204599 -0.0240567 0)
(0.211451 -0.0242211 0)
(0.219602 -0.0221917 0)
(0.227383 -0.0182829 0)
(0.235699 -0.0119496 0)
(0.241594 -0.00437285 0)
(0.246356 0.00326132 0)
(0.247619 0.0103237 0)
(0.248775 0.0176245 0)
(0.245305 0.0237918 0)
(0.242328 0.0293917 0)
(0.234486 0.0326958 0)
(0.229878 0.0355009 0)
(0.218195 0.0363872 0)
(0.169372 -0.00624172 0)
(0.17536 -0.00948541 0)
(0.188249 -0.0118527 0)
(0.190142 -0.015001 0)
(0.188072 -0.0177223 0)
(0.185151 -0.0211179 0)
(0.183908 -0.0251913 0)
(0.183445 -0.0287562 -1.87389e-24)
(0.183925 -0.0331767 -4.88462e-24)
(0.184237 -0.0368264 0)
(0.185218 -0.0417151 0)
(0.186323 -0.045361 0)
(0.18849 -0.0502555 0)
(0.191404 -0.0534349 -4.88465e-23)
(0.19545 -0.05708 -2.52541e-23)
(0.200655 -0.0589564 -1.39164e-22)
(0.206659 -0.0596094 4.51912e-22)
(0.213641 -0.0585168 -3.01827e-22)
(0.220731 -0.0552795 -4.32439e-22)
(0.226954 -0.0498323 4.6941e-22)
(0.231855 -0.043523 1.87347e-22)
(0.23455 -0.0367079 0)
(0.235479 -0.0299141 0)
(0.235576 -0.0233711 -7.25757e-22)
(0.2354 -0.016944 1.51683e-22)
(0.235218 -0.0105632 7.48919e-22)
(0.234837 -0.00418228 -2.55013e-22)
(0.234105 0.00229382 1.9671e-22)
(0.232665 0.00876374 -2.84829e-22)
(0.230254 0.0150269 0)
(0.226824 0.0206995 0)
(0.222298 0.0253884 2.4186e-24)
(0.216808 0.0288201 -3.02647e-24)
(0.210552 0.030754 0)
(0.20391 0.0310232 0)
(0.19725 0.0296426 0)
(0.191021 0.0267407 0)
(0.185425 0.0224092 0)
(0.180753 0.0169204 0)
(0.176901 0.0102313 0)
(0.174231 0.00261156 0)
(0.172804 -0.00484369 0)
(0.172812 -0.0120113 0)
(0.173795 -0.0187765 0)
(0.176297 -0.024531 0)
(0.179878 -0.0293767 0)
(0.185614 -0.0325185 0)
(0.192528 -0.0340923 0)
(0.201605 -0.0331673 0)
(0.210751 -0.0301928 0)
(0.221122 -0.0243855 0)
(0.230109 -0.0163989 0)
(0.239475 -0.00559538 0)
(0.244445 0.00563882 0)
(0.247834 0.0169148 0)
(0.246411 0.026499 0)
(0.245462 0.0350393 0)
(0.238646 0.040438 0)
(0.23395 0.0445634 0)
(0.221297 0.0450077 0)
(0.164377 -0.0059789 0)
(0.171636 -0.00903042 0)
(0.186544 -0.0109676 0)
(0.188071 -0.0143038 0)
(0.18555 -0.0171089 0)
(0.182109 -0.0205891 0)
(0.180823 -0.0246952 -1.88077e-24)
(0.180027 -0.0283695 1.68471e-23)
(0.180525 -0.0331191 -7.54188e-24)
(0.180345 -0.037115 -4.93576e-23)
(0.181464 -0.0428856 -5.73267e-23)
(0.182182 -0.0470123 0)
(0.184897 -0.0535589 0)
(0.187877 -0.057102 7.53134e-23)
(0.19326 -0.0631395 0)
(0.199598 -0.0653382 3.54264e-22)
(0.207623 -0.0670879 -1.08854e-21)
(0.217184 -0.0658642 7.29585e-22)
(0.226368 -0.0613555 1.37471e-22)
(0.234652 -0.0546439 -1.01246e-21)
(0.238235 -0.046368 -6.81904e-22)
(0.238845 -0.0382472 -4.29233e-22)
(0.238 -0.0308416 -1.77696e-21)
(0.236601 -0.0238883 1.7803e-21)
(0.235404 -0.0170964 1.8302e-21)
(0.234308 -0.0103272 -1.82996e-21)
(0.233334 -0.00348474 4.28405e-22)
(0.232133 0.00361444 0)
(0.23026 0.0109237 0)
(0.2274 0.0181571 -3.69689e-22)
(0.223345 0.0249931 1.13974e-22)
(0.21804 0.0308941 5.23824e-23)
(0.21163 0.035395 -1.90129e-23)
(0.204268 0.0381006 -2.59192e-24)
(0.196289 0.0387529 0)
(0.188122 0.0372745 0)
(0.180198 0.0338382 0)
(0.172699 0.0285923 0)
(0.166034 0.0218863 0)
(0.160362 0.0141212 0)
(0.155763 0.00586586 0)
(0.151173 -0.00260098 0)
(0.147321 -0.0104819 0)
(0.144624 -0.0181121 0)
(0.14424 -0.0251855 0)
(0.146013 -0.031887 0)
(0.15136 -0.0372228 0)
(0.159007 -0.0410559 0)
(0.170093 -0.0418198 0)
(0.182039 -0.0397764 0)
(0.195931 -0.033847 0)
(0.20836 -0.0251283 0)
(0.221423 -0.0128032 0)
(0.230914 0.00066242 0)
(0.239252 0.0149161 0)
(0.241121 0.0270379 0)
(0.24222 0.0383665 0)
(0.237767 0.0458465 0)
(0.233871 0.0516663 0)
(0.222025 0.0525075 0)
(0.159714 -0.00562755 0)
(0.168414 -0.00866419 0)
(0.184917 -0.00977455 0)
(0.18589 -0.0132297 0)
(0.18281 -0.0162854 0)
(0.178966 -0.0198883 -2.05516e-24)
(0.177632 -0.023848 1.88075e-24)
(0.176338 -0.0277267 1.75629e-23)
(0.176729 -0.0325744 3.27867e-24)
(0.175724 -0.0372168 3.16852e-23)
(0.176901 -0.04359 1.06547e-22)
(0.176795 -0.048857 3.91241e-22)
(0.180012 -0.0568846 2.11172e-22)
(0.182808 -0.0617138 -5.95255e-22)
(0.189865 -0.0712074 1.16611e-23)
(0.197122 -0.0732374 -1.17469e-23)
(0.209636 -0.078917 0)
(0.221798 -0.0757345 6.65791e-22)
(0.233223 -0.0675996 -1.41383e-21)
(0.238468 -0.055907 -1.36017e-21)
(0.23922 -0.0456759 -1.35628e-21)
(0.236072 -0.0363728 -2.30435e-21)
(0.231442 -0.0296388 1.12619e-21)
(0.226383 -0.0229148 -4.27631e-21)
(0.222332 -0.0161525 5.37279e-21)
(0.21922 -0.0095869 -4.3672e-21)
(0.216941 -0.00284396 4.38134e-21)
(0.215286 0.00450846 1.13367e-21)
(0.213758 0.0124507 -1.1341e-21)
(0.211609 0.0207216 2.56879e-22)
(0.208293 0.0288563 -6.43256e-23)
(0.203469 0.0361644 1.03659e-22)
(0.197086 0.0419974 2.98589e-23)
(0.189466 0.0457899 2.5919e-24)
(0.180616 0.0472502 -2.41072e-24)
(0.171056 0.0461777 0)
(0.161425 0.0426105 0)
(0.152015 0.0368145 0)
(0.142862 0.0294503 0)
(0.133397 0.0212399 0)
(0.123648 0.0127907 0)
(0.113989 0.00413435 0)
(0.105911 -0.00463692 0)
(0.100499 -0.0143449 0)
(0.0994741 -0.0246546 0)
(0.102151 -0.0351243 0)
(0.109294 -0.0441499 0)
(0.119039 -0.0512892 0)
(0.13256 -0.054609 0)
(0.147153 -0.0542712 0)
(0.164157 -0.0487739 0)
(0.179522 -0.039858 0)
(0.195679 -0.0265807 0)
(0.208513 -0.0110809 0)
(0.22138 0.00689585 0)
(0.228271 0.0233327 0)
(0.233158 0.038427 0)
(0.231512 0.0489327 0)
(0.229178 0.0572142 0)
(0.219044 0.0591725 0)
(0.155304 -0.0051644 0)
(0.165825 -0.00722936 0)
(0.183722 -0.0102269 0)
(0.18321 -0.0121381 0)
(0.17979 -0.0149066 0)
(0.175871 -0.0185786 -2.68084e-25)
(0.174343 -0.0223405 0)
(0.172513 -0.0265029 1.30087e-24)
(0.172495 -0.0312808 -1.73087e-22)
(0.170382 -0.036762 1.85871e-22)
(0.171422 -0.0434248 1.34275e-22)
(0.169702 -0.0505397 -2.81189e-22)
(0.17369 -0.0596694 -2.16949e-21)
(0.175095 -0.0675114 0)
(0.18462 -0.080941 0)
(0.193642 -0.0849646 0)
(0.212512 -0.0980633 2.70269e-21)
(0.225239 -0.0898524 -4.09746e-21)
(0.233266 -0.0740391 2.09887e-21)
(0.23072 -0.0535182 -1.06544e-20)
(0.220682 -0.0369173 -9.69522e-21)
(0.205821 -0.0251602 2.31458e-21)
(0.191908 -0.0206047 3.62685e-21)
(0.180869 -0.0145762 -4.75231e-21)
(0.17311 -0.00890753 -1.0558e-20)
(0.167805 -0.00421665 -2.34662e-22)
(0.165172 0.000970143 0)
(0.165542 0.00734961 -5.23138e-21)
(0.167172 0.0147311 3.34355e-21)
(0.168845 0.0231256 -3.31953e-22)
(0.169484 0.032124 -3.96858e-22)
(0.168177 0.0408372 -1.12547e-22)
(0.16436 0.0482264 -6.44979e-23)
(0.158058 0.0534797 0)
(0.149955 0.0560381 -4.92878e-25)
(0.140257 0.0556598 0)
(0.129148 0.0525301 0)
(0.116564 0.0473188 0)
(0.102595 0.0409337 0)
(0.0878435 0.033725 0)
(0.0740038 0.0252788 0)
(0.0630242 0.0147792 0)
(0.0566457 0.00197712 0)
(0.0547607 -0.0125945 0)
(0.0573978 -0.0277719 0)
(0.0634469 -0.0424012 0)
(0.0729928 -0.0547679 0)
(0.0844053 -0.0645714 0)
(0.0989097 -0.0700771 0)
(0.114633 -0.0712653 0)
(0.133273 -0.0662059 0)
(0.150688 -0.0566726 0)
(0.168885 -0.0418666 0)
(0.183556 -0.0246998 0)
(0.19828 -0.00439123 0)
(0.208367 0.0153167 0)
(0.216771 0.0345966 0)
(0.218919 0.0490223 0)
(0.219557 0.0607664 0)
(0.211458 0.0648304 0)
(0.151285 -0.0046327 0)
(0.163569 -0.00621269 0)
(0.182124 -0.00939354 0)
(0.181026 -0.0110482 0)
(0.176845 -0.0133574 0)
(0.172909 -0.0168659 -2.82745e-24)
(0.170731 -0.0203597 0)
(0.168735 -0.0246707 0)
(0.167535 -0.0292509 8.15602e-23)
(0.164743 -0.0353987 -3.8524e-22)
(0.164469 -0.042136 0)
(0.161095 -0.0512816 0)
(0.165121 -0.0611803 2.1623e-21)
(0.163331 -0.0743695 0)
(0.179087 -0.0929255 0)
(0.182369 -0.103367 0)
(0.208703 -0.120989 8.77449e-22)
(0.20129 -0.110127 -7.70643e-22)
(0.203076 -0.0969232 -2.57868e-20)
(0.181916 -0.0710325 -1.78268e-20)
(0.149127 -0.0427071 1.15696e-20)
(0.0930592 -0.0196308 0)
(0.0723912 -0.00827252 1.0504e-21)
(0.069415 -0.00154869 -1.28751e-21)
(0.0673743 -0.000691018 0)
(0.0696933 -0.000701571 1.86551e-20)
(0.076119 0.000591229 1.1003e-22)
(0.0846659 0.00465812 5.22097e-21)
(0.0923737 0.0114418 -2.69392e-21)
(0.0993767 0.0205056 0)
(0.104871 0.0310617 -7.07169e-22)
(0.108073 0.0419181 1.55967e-22)
(0.108311 0.0516923 0)
(0.10518 0.059225 0)
(0.0987819 0.0638428 -3.89204e-24)
(0.0893976 0.0654034 0)
(0.0774019 0.0642993 0)
(0.0633916 0.0610768 0)
(0.0485241 0.0558065 0)
(0.0348295 0.0477365 0)
(0.0245653 0.0360635 0)
(0.0192065 0.0206702 0)
(0.0189107 0.00240613 0)
(0.0228455 -0.0171616 0)
(0.0300386 -0.0358642 0)
(0.03913 -0.052881 0)
(0.0496824 -0.0672445 0)
(0.0609653 -0.0788298 0)
(0.0737975 -0.0864316 0)
(0.0878699 -0.0894302 0)
(0.105688 -0.085081 0)
(0.123734 -0.0752011 0)
(0.142836 -0.0590581 0)
(0.158983 -0.0398778 0)
(0.17457 -0.0173129 0)
(0.186225 0.00513279 0)
(0.196558 0.0277849 0)
(0.201291 0.0460455 0)
(0.205327 0.0614371 0)
(0.199463 0.0691146 0)
(0.147729 -0.00400802 0)
(0.16148 -0.00521568 0)
(0.180681 -0.00821929 0)
(0.179181 -0.00963479 0)
(0.174225 -0.0115167 0)
(0.170281 -0.0146522 -4.52408e-25)
(0.167046 -0.0178304 -1.19512e-23)
(0.165278 -0.0219421 -5.01543e-23)
(0.161983 -0.026308 0)
(0.15946 -0.0324981 5.95831e-22)
(0.155547 -0.0394462 -2.10189e-22)
(0.152384 -0.0494561 0)
(0.151811 -0.0612506 7.61419e-22)
(0.147702 -0.0781632 5.91222e-21)
(0.166937 -0.107447 -9.67493e-21)
(0.142226 -0.129973 0)
(0.183967 -0.151148 -8.59715e-20)
(0.122821 -0.0976853 0)
(0.021932 0.00125167 -1.90022e-19)
(0.00903894 0.000662278 2.32896e-19)
(0.00823085 -0.00698634 0)
(0.0190999 -0.0118731 -1.88947e-20)
(0.0266809 -0.0104132 -8.85617e-21)
(0.0338115 -0.00534469 -1.30018e-21)
(0.039726 0.00319113 0)
(0.0445907 0.0143991 3.58268e-22)
(0.0483194 0.0273725 3.47948e-22)
(0.0503992 0.0409234 0)
(0.050326 0.0535549 -8.03085e-23)
(0.0476231 0.0639638 -1.78611e-23)
(0.0419181 0.0713752 -7.98997e-25)
(0.033209 0.0756494 0)
(0.0221281 0.0767482 0)
(0.010144 0.0742751 0)
(-0.000489438 0.0674636 0)
(-0.00744477 0.055736 0)
(-0.0094648 0.0391736 0)
(-0.00651102 0.0190381 0)
(0.00020412 -0.00290486 0)
(0.00928857 -0.0249987 0)
(0.0197842 -0.0455983 0)
(0.0309008 -0.0636178 0)
(0.0419944 -0.0784694 0)
(0.0526997 -0.0902347 0)
(0.0632292 -0.0985205 0)
(0.0733997 -0.103709 0)
(0.0853629 -0.102877 0)
(0.101032 -0.093643 0)
(0.119096 -0.0768859 0)
(0.135616 -0.0558618 0)
(0.151325 -0.0312092 0)
(0.163801 -0.00606717 0)
(0.175038 0.019438 0)
(0.181283 0.0410388 0)
(0.187409 0.0598045 0)
(0.184277 0.0717144 0)
(0.144731 -0.00327024 0)
(0.159722 -0.0041951 0)
(0.179456 -0.00670003 0)
(0.177636 -0.00785269 0)
(0.172069 -0.0094047 0)
(0.167848 -0.0120048 2.36876e-23)
(0.163802 -0.014751 -1.21157e-23)
(0.1619 -0.0183318 7.76068e-23)
(0.156745 -0.0222637 2.69887e-23)
(0.154174 -0.0279691 0)
(0.145897 -0.0346299 0)
(0.143759 -0.0445727 0)
(0.132862 -0.0576257 1.04048e-21)
(0.13289 -0.074866 -7.91685e-21)
(0.127437 -0.115898 1.17246e-20)
(0.0924744 -0.117299 -6.47916e-21)
(-0.00238394 -0.00848823 7.58988e-20)
(0.000531741 -0.0163965 2.11678e-20)
(0.00336075 -0.0138703 1.27225e-21)
(0.00470931 -0.00806367 -1.26861e-21)
(0.0054913 0.000714907 0)
(0.00578877 0.0125154 0)
(0.00562627 0.0265742 0)
(0.00463405 0.0416496 -4.16077e-23)
(0.00224231 0.0562574 2.0106e-22)
(-0.00191867 0.0691785 5.19351e-23)
(-0.00797705 0.0793139 -2.64827e-23)
(-0.0152117 0.0855588 0)
(-0.0225506 0.0871197 0)
(-0.0282735 0.0829594 0)
(-0.0306579 0.0724822 0)
(-0.0290222 0.0559701 0)
(-0.0233884 0.0348852 0)
(-0.0146677 0.0114652 0)
(-0.00345276 -0.0136003 0)
(0.00903004 -0.0370863 0)
(0.0218489 -0.0579473 0)
(0.0340038 -0.0754398 0)
(0.0448465 -0.089477 0)
(0.054214 -0.100338 0)
(0.0624777 -0.107895 0)
(0.0700601 -0.112331 0)
(0.0773066 -0.113523 0)
(0.0856349 -0.108734 0)
(0.0996825 -0.0933997 0)
(0.114966 -0.0714096 0)
(0.129702 -0.0451567 0)
(0.142231 -0.0176801 0)
(0.153512 0.010276 0)
(0.160616 0.034857 0)
(0.167694 0.0564021 0)
(0.167051 0.0727371 0)
(0.142385 -0.00242877 0)
(0.158367 -0.00308863 0)
(0.178481 -0.00496589 0)
(0.176408 -0.00581782 0)
(0.170493 -0.00701842 0)
(0.165614 -0.00897594 -2.92132e-25)
(0.161444 -0.0110997 -1.35451e-23)
(0.158494 -0.0139126 -2.52166e-23)
(0.15293 -0.017014 -1.53944e-22)
(0.148224 -0.0218354 -2.71971e-22)
(0.138613 -0.0271081 0)
(0.13275 -0.0367099 0)
(0.116636 -0.0464782 0)
(0.113383 -0.0680279 2.98872e-21)
(0.0763235 -0.105383 -8.0446e-22)
(0.0613839 -0.0914962 8.41316e-20)
(-0.00366661 -0.00836336 1.7299e-19)
(-0.00513741 -0.017087 -9.8297e-22)
(-0.00751321 -0.012773 2.28761e-21)
(-0.0114323 -0.0063607 0)
(-0.0154533 0.00295633 0)
(-0.0197336 0.015142 0)
(-0.0242642 0.0296874 -3.10448e-22)
(-0.0288634 0.0455582 -1.14455e-22)
(-0.0333784 0.0613208 -1.18599e-22)
(-0.0376992 0.0751164 -1.77394e-23)
(-0.041252 0.0849854 0)
(-0.0433638 0.0897052 0)
(-0.0443216 0.0890115 0)
(-0.0425289 0.0816174 0)
(-0.0382391 0.0680174 0)
(-0.0313828 0.0492721 0)
(-0.0210614 0.0257456 0)
(-0.00843789 -0.000924599 0)
(0.00523482 -0.0268724 0)
(0.0195367 -0.0504704 0)
(0.0331484 -0.0705437 0)
(0.0453294 -0.0864827 0)
(0.0553862 -0.0985794 0)
(0.06287 -0.107726 0)
(0.068242 -0.114222 0)
(0.0722813 -0.117944 0)
(0.0763202 -0.118713 0)
(0.0803065 -0.115979 0)
(0.0862854 -0.106112 0)
(0.0981859 -0.0848499 0)
(0.110819 -0.0580356 0)
(0.122414 -0.0289496 0)
(0.133132 0.000968366 0)
(0.140594 0.0281244 0)
(0.147758 0.0519307 0)
(0.149113 0.0724983 0)
(0.140764 -0.0015086 0)
(0.157444 -0.00190978 0)
(0.177793 -0.00308153 0)
(0.175542 -0.00361023 0)
(0.169404 -0.00438438 0)
(0.163982 -0.00559812 6.27638e-24)
(0.159795 -0.0069805 6.54724e-24)
(0.155896 -0.00873978 0)
(0.150223 -0.0108524 1.24736e-22)
(0.143338 -0.0139192 2.72018e-22)
(0.133445 -0.0177203 0)
(0.122405 -0.0241255 0)
(0.105782 -0.0313851 1.59488e-21)
(0.0901525 -0.0491504 -6.18549e-21)
(0.0405505 -0.0585562 0)
(-0.00410214 -0.0120475 0)
(-0.0117785 -0.00747559 -6.28572e-23)
(-0.0187372 -0.00047949 -2.22431e-21)
(-0.0254397 0.00898295 0)
(-0.0318181 0.0210723 0)
(-0.0375022 0.0352995 3.10495e-22)
(-0.0420495 0.0505135 1.53947e-22)
(-0.0453833 0.0648403 0)
(-0.0472822 0.0770421 8.89199e-24)
(-0.0475856 0.0850587 0)
(-0.0468825 0.0887578 0)
(-0.0446778 0.0870278 0)
(-0.0403355 0.0779767 0)
(-0.0326707 0.0618594 0)
(-0.0204577 0.0387853 0)
(-0.00625202 0.0121739 0)
(0.00795363 -0.015069 0)
(0.0222536 -0.0408796 0)
(0.0361783 -0.0639713 0)
(0.049224 -0.082833 0)
(0.0607062 -0.096728 0)
(0.0699747 -0.106038 0)
(0.0761911 -0.112336 0)
(0.0792342 -0.116619 0)
(0.0795821 -0.119669 0)
(0.0789524 -0.120667 0)
(0.0797093 -0.118633 0)
(0.0812802 -0.111364 0)
(0.0860994 -0.0945879 0)
(0.0956541 -0.0686704 0)
(0.105321 -0.038944 0)
(0.114858 -0.0078175 0)
(0.122121 0.0213515 0)
(0.128896 0.046945 0)
(0.131784 0.0713362 0)
(0.139918 -0.000538436 0)
(0.156966 -0.000682312 -4.48836e-28)
(0.177427 -0.0011006 1.04934e-27)
(0.175083 -0.00129048 0)
(0.168795 -0.00157181 0)
(0.163169 -0.00200434 0)
(0.158832 -0.00251126 6.99865e-24)
(0.154614 -0.00313307 -3.80988e-24)
(0.148552 -0.00393586 8.29821e-24)
(0.140934 -0.00499326 1.73519e-22)
(0.130073 -0.00653371 5.9868e-23)
(0.117131 -0.00861055 -9.56676e-22)
(0.0980823 -0.0121456 2.38159e-21)
(0.0756494 -0.0173655 7.7366e-21)
(0.028122 -0.0260902 -7.43131e-21)
(-0.0028428 -0.00710882 3.9112e-20)
(-0.0116127 0.00017211 -1.02081e-20)
(-0.0200543 0.00709807 2.55784e-21)
(-0.0276189 0.0157093 -7.75979e-22)
(-0.0338687 0.0267987 2.91628e-22)
(-0.0385532 0.0396725 0)
(-0.0419549 0.0529897 1.54486e-23)
(-0.0440956 0.0659442 -1.89011e-24)
(-0.0446468 0.0769697 8.0464e-24)
(-0.0437116 0.0837452 0)
(-0.0411467 0.0865896 0)
(-0.0355849 0.081974 0)
(-0.0256842 0.0691276 -2.39222e-27)
(-0.0114376 0.0486653 6.28206e-28)
(0.00369214 0.0241062 8.02037e-29)
(0.0178127 -0.00210488 0)
(0.0314394 -0.028702 1.15785e-30)
(0.0445585 -0.0542069 0)
(0.0568354 -0.076764 7.04302e-33)
(0.06799 -0.0945583 0)
(0.0775651 -0.106627 7.23914e-35)
(0.0851906 -0.113252 0)
(0.0903444 -0.116264 0)
(0.0921564 -0.117006 0)
(0.0910856 -0.117338 5.60398e-35)
(0.0862796 -0.118775 0)
(0.082023 -0.118062 0)
(0.0804644 -0.112428 0)
(0.0803433 -0.0985828 -8.26705e-36)
(0.0845692 -0.0761116 0)
(0.0917179 -0.0470752 0)
(0.099498 -0.0155825 0)
(0.106084 0.0149752 0)
(0.112191 0.0418378 0)
(0.116253 0.0694934 0)
(0.139876 0.000450204 0)
(0.156942 0.000563776 4.4884e-28)
(0.177405 0.000916507 -1.04936e-27)
(0.175056 0.00107525 0)
(0.168761 0.0013059 0)
(0.163125 0.00166788 0)
(0.158785 0.00209209 0)
(0.154551 0.00261697 -2.63713e-23)
(0.14848 0.00329937 -8.29817e-24)
(0.14084 0.00420551 3.48604e-22)
(0.129961 0.00555994 5.24751e-22)
(0.11699 0.00739651 7.85664e-22)
(0.0978935 0.0106276 -4.31767e-21)
(0.0754264 0.0154361 3.54438e-21)
(0.0279297 0.0237353 0)
(-0.00231388 -0.000299803 3.60529e-21)
(-0.00986731 0.00866124 -3.75565e-21)
(-0.0175388 0.0149327 9.38657e-22)
(-0.0242763 0.0223341 -1.0547e-21)
(-0.0297331 0.0318236 2.74037e-23)
(-0.0335142 0.0430042 2.79711e-22)
(-0.0356806 0.0550281 -7.10704e-23)
(-0.0358677 0.0665022 -2.68495e-23)
(-0.0339123 0.0756143 0)
(-0.0298411 0.0806185 -2.06611e-24)
(-0.0219276 0.0796509 0)
(-0.00941333 0.0706006 0)
(0.00556649 0.0545341 2.43709e-27)
(0.02049 0.03393 -6.33668e-28)
(0.0347487 0.0103502 -8.02037e-29)
(0.0479419 -0.0150622 0)
(0.0603447 -0.0409371 -1.15785e-30)
(0.0719158 -0.0657482 0)
(0.0822552 -0.0874539 -7.04302e-33)
(0.0908822 -0.103977 0)
(0.0975088 -0.114217 -7.23914e-35)
(0.101935 -0.11884 0)
(0.104562 -0.119223 0)
(0.105196 -0.117136 0)
(0.10313 -0.113428 -5.82703e-35)
(0.0967752 -0.112143 0)
(0.0883044 -0.112601 0)
(0.0818118 -0.109506 0)
(0.0788852 -0.0987914 8.4401e-36)
(0.0785109 -0.0793135 0)
(0.0819061 -0.0527233 0)
(0.0876426 -0.0218328 0)
(0.0932304 0.00931171 0)
(0.0984948 0.0367975 0)
(0.103475 0.0671042 0)
(0.140641 0.00142472 0)
(0.157371 0.00179648 0)
(0.177728 0.0029053 0)
(0.175463 0.00340371 0)
(0.169305 0.00413037 0)
(0.163852 0.00527788 6.31982e-24)
(0.159655 0.00657989 1.36517e-23)
(0.15571 0.00824956 3.01809e-23)
(0.150011 0.0102428 0)
(0.143059 0.013174 -6.39212e-22)
(0.133119 0.0167864 -2.35824e-22)
(0.12199 0.0229806 -3.32127e-22)
(0.105271 0.0299413 -2.89518e-21)
(0.0895129 0.047295 3.07695e-21)
(0.0402232 0.0564024 0)
(-0.00280269 0.00356609 0)
(-0.00770525 0.0147713 1.69495e-21)
(-0.011944 0.0209582 1.66761e-21)
(-0.0156208 0.0273728 0)
(-0.01819 0.0354488 -5.31304e-23)
(-0.0194536 0.0449015 -3.7452e-22)
(-0.0185946 0.0548381 1.61294e-22)
(-0.0151184 0.0637379 2.93633e-23)
(-0.00879072 0.0699783 1.50101e-23)
(0.000360942 0.0716012 2.10015e-24)
(0.0125131 0.0671762 0)
(0.0269903 0.0563036 0)
(0.0419606 0.0402373 0)
(0.0562663 0.0205162 0)
(0.0694356 -0.00201944 0)
(0.0815533 -0.0263828 0)
(0.0927835 -0.051471 0)
(0.102924 -0.0752991 0)
(0.111354 -0.0954874 0)
(0.117275 -0.110051 0)
(0.120525 -0.117904 0)
(0.121458 -0.120115 0)
(0.120758 -0.119603 0)
(0.118212 -0.115689 0)
(0.113776 -0.108432 0)
(0.107347 -0.103843 0)
(0.0975377 -0.103157 0)
(0.0870456 -0.102381 0)
(0.0796918 -0.0953244 0)
(0.0767468 -0.0791453 0)
(0.0765628 -0.0553802 0)
(0.0796818 -0.0263723 0)
(0.0841273 0.00445172 0)
(0.0884551 0.031878 0)
(0.0941337 0.0642347 0)
(0.142188 0.00235333 0)
(0.158248 0.00298559 0)
(0.178375 0.00480505 0)
(0.17628 0.00562928 0)
(0.170328 0.00678599 0)
(0.165412 0.00868843 -2.72822e-25)
(0.161208 0.0107329 -1.3651e-23)
(0.158205 0.0134744 2.95937e-23)
(0.152578 0.016456 -2.95793e-23)
(0.147785 0.0211713 -2.32391e-22)
(0.138079 0.0262574 -1.01743e-21)
(0.132072 0.035683 2.26569e-21)
(0.115834 0.0451709 4.26533e-21)
(0.112256 0.0663738 -9.31502e-21)
(0.075145 0.102955 -8.55826e-22)
(0.06008 0.0892061 0)
(-0.000822369 0.00289059 1.22355e-19)
(-0.00258342 0.00769183 -8.84594e-20)
(-0.00444679 0.0173785 1.09091e-21)
(-0.00404361 0.023302 -4.77603e-21)
(-0.00332829 0.0289489 1.57299e-21)
(-0.00157336 0.0357089 -8.0354e-22)
(0.00162845 0.0432717 2.04777e-22)
(0.00669712 0.050742 -7.90756e-23)
(0.0139664 0.0569642 -2.61798e-23)
(0.023599 0.0605192 -1.50869e-23)
(0.0355394 0.0596697 0)
(0.0494108 0.0535377 0)
(0.0642716 0.0421194 0)
(0.0787343 0.0265522 0)
(0.0920469 0.00784571 0)
(0.104204 -0.0133117 0)
(0.115527 -0.0366554 0)
(0.125832 -0.060747 0)
(0.134397 -0.083219 0)
(0.140363 -0.101355 0)
(0.143079 -0.113324 0)
(0.142386 -0.118601 0)
(0.140753 -0.118879 0)
(0.137069 -0.116123 0)
(0.130208 -0.109973 0)
(0.124078 -0.102668 0)
(0.117325 -0.0957632 0)
(0.107621 -0.0923201 0)
(0.095392 -0.0915914 0)
(0.0842534 -0.0879551 0)
(0.0775497 -0.0761265 0)
(0.0751897 -0.0554829 0)
(0.0758663 -0.0290372 0)
(0.0789728 0.000568977 0)
(0.0823391 0.0271857 0)
(0.0884486 0.0609568 0)
(0.144468 0.00320679 0)
(0.159562 0.00410686 0)
(0.179315 0.00656157 0)
(0.177465 0.00769173 0)
(0.171839 0.00920472 0)
(0.167594 0.0117609 -3.65064e-25)
(0.163471 0.0144368 1.21444e-23)
(0.161533 0.0179609 5.1102e-23)
(0.156256 0.0217894 0)
(0.15361 0.0274089 9.62519e-22)
(0.145167 0.0339111 1.91721e-21)
(0.142873 0.0437139 -4.186e-21)
(0.131763 0.0565103 0)
(0.131477 0.0735215 4.92118e-21)
(0.12564 0.113969 1.09005e-21)
(0.0910025 0.115011 4.4177e-20)
(-0.00243554 0.00338911 -4.99088e-20)
(-0.00279176 0.00910758 -1.3029e-20)
(-0.000600849 0.015697 -3.19099e-21)
(0.00447824 0.0208196 1.78971e-22)
(0.0100567 0.0257437 -3.03871e-21)
(0.0163243 0.0313189 1.55113e-21)
(0.0237306 0.037212 3.57575e-22)
(0.0326075 0.0427143 0)
(0.0431273 0.0468655 5.07519e-23)
(0.0552879 0.0484337 1.41512e-23)
(0.0689232 0.0460842 8.01533e-24)
(0.0834775 0.0391468 0)
(0.0980935 0.027928 0)
(0.11184 0.0133929 0)
(0.124747 -0.00394076 0)
(0.136853 -0.0240771 0)
(0.148047 -0.0465174 0)
(0.157678 -0.0691696 0)
(0.16441 -0.0892488 0)
(0.167264 -0.104327 0)
(0.166212 -0.113083 0)
(0.162424 -0.116177 0)
(0.156908 -0.114412 0)
(0.14953 -0.109169 0)
(0.141535 -0.102975 0)
(0.133532 -0.0957108 0)
(0.125989 -0.087686 0)
(0.117003 -0.0816555 0)
(0.105038 -0.0793509 0)
(0.0920422 -0.077433 0)