/*--------------------------------*- C++ -*----------------------------------*\
| =========                 |                                                 |
| \\      /  F ield         | OpenFOAM: The Open Source CFD Toolbox           |
|  \\    /   O peration     | Version:  2.3.0                                 |
|   \\  /    A nd           | Web:      www.OpenFOAM.org                      |
|    \\/     M anipulation  |                                                 |
\*---------------------------------------------------------------------------*/
FoamFile
{
    version     2.0;
    format      ascii;
    class       volScalarField;
    location    "0.095";
    object      T;
}
// * * * * * * * * * * * * * * * * * * * * * * * * * * * * * * * * * * * * * //

dimensions      [0 0 0 1 0 0 0];

internalField   nonuniform List<scalar> 
12225
(
3.81224e-10
3.78966e-10
3.78297e-10
3.78119e-10
3.78035e-10
3.78128e-10
3.78527e-10
3.79505e-10
3.81638e-10
3.86161e-10
3.9581e-10
4.16846e-10
4.63942e-10
5.71906e-10
8.23928e-10
1.42171e-09
2.87467e-09
6.62267e-09
3.75834e-10
3.76519e-10
3.77034e-10
3.77411e-10
3.77638e-10
3.77908e-10
3.78417e-10
3.79469e-10
3.81657e-10
3.86218e-10
3.95853e-10
4.16692e-10
4.62997e-10
5.68338e-10
8.12076e-10
1.38277e-09
2.73353e-09
5.95436e-09
3.78432e-10
3.78415e-10
3.78231e-10
3.78179e-10
3.78171e-10
3.78303e-10
3.78736e-10
3.79763e-10
3.81971e-10
3.86586e-10
3.96254e-10
4.16896e-10
4.62089e-10
5.63269e-10
7.93075e-10
1.31743e-09
2.50381e-09
5.08071e-09
3.78522e-10
3.78307e-10
3.78079e-10
3.78071e-10
3.78144e-10
3.78354e-10
3.78867e-10
3.79997e-10
3.82355e-10
3.87178e-10
3.97069e-10
4.17701e-10
4.61759e-10
5.57832e-10
7.69688e-10
1.23517e-09
2.23105e-09
4.21114e-09
3.78672e-10
3.78554e-10
3.78381e-10
3.78378e-10
3.78465e-10
3.78704e-10
3.79278e-10
3.8053e-10
3.8311e-10
3.88292e-10
3.98654e-10
4.19606e-10
4.628e-10
5.53484e-10
7.4536e-10
1.14702e-09
1.95518e-09
3.44254e-09
3.78925e-10
3.78885e-10
3.78759e-10
3.78757e-10
3.78862e-10
3.79152e-10
3.79833e-10
3.81292e-10
3.84247e-10
3.90048e-10
4.01296e-10
4.23168e-10
4.66244e-10
5.52246e-10
7.24702e-10
1.0653e-09
1.70792e-09
2.8148e-09
3.79382e-10
3.79382e-10
3.79295e-10
3.79305e-10
3.79441e-10
3.79808e-10
3.80652e-10
3.82432e-10
3.85979e-10
3.92788e-10
4.0557e-10
4.29375e-10
4.73814e-10
5.57284e-10
7.14064e-10
1.00349e-09
1.51419e-09
2.34365e-09
3.79944e-10
3.79958e-10
3.79903e-10
3.79935e-10
3.80114e-10
3.80581e-10
3.81636e-10
3.83838e-10
3.88174e-10
3.96354e-10
4.11319e-10
4.3819e-10
4.86024e-10
5.70924e-10
7.20811e-10
9.80721e-10
1.41346e-09
2.08473e-09
3.80577e-10
3.80597e-10
3.80569e-10
3.80627e-10
3.80858e-10
3.81444e-10
3.82755e-10
3.85472e-10
3.90779e-10
4.00671e-10
4.18426e-10
4.49422e-10
5.02516e-10
5.92305e-10
7.42283e-10
9.87798e-10
1.37528e-09
1.95191e-09
3.81447e-10
3.8147e-10
3.8147e-10
3.81565e-10
3.81875e-10
3.82641e-10
3.84343e-10
3.87853e-10
3.94673e-10
4.07262e-10
4.29503e-10
4.67394e-10
5.3008e-10
6.31365e-10
7.91572e-10
1.0389e-09
1.40811e-09
1.93388e-09
3.82641e-10
3.82667e-10
3.82695e-10
3.82843e-10
3.83274e-10
3.84324e-10
3.86644e-10
3.91424e-10
4.00684e-10
4.17674e-10
4.47357e-10
4.97011e-10
5.76956e-10
7.01435e-10
8.89474e-10
1.16515e-09
1.55616e-09
2.0896e-09
3.84276e-10
3.84305e-10
3.84367e-10
3.84594e-10
3.85221e-10
3.86733e-10
3.90077e-10
3.96975e-10
4.10348e-10
4.34834e-10
4.7736e-10
5.47698e-10
6.58953e-10
8.27891e-10
1.07498e-09
1.42384e-09
1.89962e-09
2.52603e-09
3.86509e-10
3.86546e-10
3.86656e-10
3.8701e-10
3.87967e-10
3.90274e-10
3.95398e-10
4.06023e-10
4.26703e-10
4.64638e-10
5.30441e-10
6.38742e-10
8.08449e-10
1.06252e-09
1.42713e-09
1.93023e-09
2.59932e-09
3.45864e-09
3.89557e-10
3.89608e-10
3.89793e-10
3.9037e-10
3.91918e-10
3.95671e-10
4.04084e-10
4.21681e-10
4.56183e-10
5.19806e-10
6.30468e-10
8.12549e-10
1.09685e-09
1.51954e-09
2.11995e-09
2.93761e-09
4.00854e-09
5.3614e-09
3.93706e-10
3.93787e-10
3.94105e-10
3.95097e-10
3.97775e-10
4.04345e-10
4.19268e-10
4.50872e-10
5.13514e-10
6.30026e-10
8.33877e-10
1.17025e-09
1.69533e-09
2.4733e-09
3.57136e-09
5.05329e-09
6.97249e-09
9.36536e-09
3.99337e-10
3.99478e-10
4.00059e-10
4.01882e-10
4.06876e-10
4.19351e-10
4.482e-10
5.10348e-10
6.35396e-10
8.70849e-10
1.28651e-09
1.97606e-09
3.05402e-09
4.64743e-09
6.8833e-09
9.87387e-09
1.37024e-08
1.84107e-08
4.06943e-10
4.07209e-10
4.0834e-10
4.1195e-10
4.2206e-10
4.47936e-10
5.09261e-10
6.44445e-10
9.22087e-10
1.45388e-09
2.40482e-09
3.995e-09
6.48773e-09
1.01632e-08
1.52824e-08
2.20503e-08
3.0586e-08
4.09031e-08
4.16391e-10
4.16912e-10
4.1918e-10
4.26601e-10
4.48007e-10
5.04568e-10
6.42965e-10
9.57486e-10
1.62157e-09
2.92386e-09
5.29529e-09
9.30722e-09
1.56232e-08
2.49046e-08
3.76954e-08
5.43237e-08
7.48469e-08
9.90466e-08
4.26347e-10
4.27304e-10
4.31557e-10
4.45876e-10
4.88595e-10
6.05651e-10
9.02899e-10
1.60333e-09
3.13306e-09
6.22329e-09
1.19856e-08
2.18895e-08
3.75789e-08
6.05372e-08
9.17203e-08
1.31324e-07
1.78763e-07
2.32819e-07
4.35731e-10
4.37305e-10
4.44435e-10
4.69129e-10
5.45336e-10
7.62067e-10
1.33422e-09
2.73616e-09
5.9159e-09
1.25654e-08
2.53284e-08
4.77167e-08
8.34995e-08
1.35607e-07
2.05061e-07
2.90603e-07
3.89142e-07
4.96594e-07
4.44214e-10
4.46564e-10
4.57406e-10
4.95983e-10
6.19024e-10
9.8209e-10
1.97925e-09
4.52542e-09
1.05452e-08
2.3645e-08
4.96895e-08
9.66057e-08
1.72575e-07
2.82632e-07
4.25693e-07
5.94739e-07
7.79593e-07
9.69972e-07
4.51584e-10
4.54812e-10
4.69954e-10
5.25191e-10
7.0687e-10
1.26215e-09
2.84769e-09
7.07013e-09
1.7505e-08
4.12518e-08
9.04996e-08
1.8234e-07
3.33987e-07
5.52654e-07
8.2724e-07
1.13354e-06
1.44563e-06
1.74372e-06
4.57745e-10
4.61878e-10
4.81534e-10
5.54847e-10
8.02718e-10
1.58503e-09
3.90224e-09
1.03328e-08
2.69642e-08
6.67032e-08
1.5329e-07
3.22131e-07
6.09296e-07
1.02251e-06
1.51605e-06
2.02273e-06
2.49059e-06
2.89413e-06
4.62704e-10
4.67695e-10
4.9169e-10
5.82906e-10
8.98657e-10
1.92354e-09
5.06094e-09
1.41095e-08
3.85806e-08
1.00104e-07
2.41851e-07
5.34212e-07
1.05409e-06
1.80639e-06
2.63755e-06
3.39077e-06
3.99356e-06
4.4426e-06
4.66545e-10
4.72268e-10
5.00097e-10
6.07613e-10
9.8704e-10
2.24763e-09
6.21662e-09
1.80602e-08
5.14452e-08
1.3971e-07
3.55644e-07
8.32289e-07
1.73692e-06
3.07849e-06
4.37761e-06
5.34264e-06
5.95714e-06
6.31202e-06
4.69471e-10
4.7575e-10
5.06719e-10
6.27993e-10
1.06247e-09
2.53272e-09
7.26779e-09
2.18019e-08
6.42674e-08
1.81861e-07
4.87414e-07
1.21602e-06
2.73008e-06
5.12563e-06
6.9443e-06
7.88794e-06
8.24814e-06
8.30819e-06
4.71548e-10
4.78142e-10
5.11426e-10
6.43367e-10
1.12151e-09
2.76212e-09
8.13728e-09
2.49995e-08
7.56947e-08
2.21639e-07
6.22278e-07
1.65748e-06
4.07529e-06
8.46917e-06
1.04809e-05
1.08273e-05
1.05673e-05
1.01553e-05
4.73076e-10
4.80307e-10
5.15445e-10
6.55205e-10
1.16574e-09
2.93459e-09
8.79949e-09
2.74804e-08
8.47955e-08
2.54578e-07
7.41167e-07
2.09172e-06
5.69452e-06
1.41433e-05
1.48064e-05
1.36537e-05
1.25168e-05
1.15979e-05
4.70082e-10
4.78284e-10
5.15304e-10
6.60343e-10
1.19148e-09
3.04333e-09
9.23225e-09
2.91399e-08
9.10049e-08
2.77531e-07
8.26365e-07
2.4207e-06
7.17568e-06
2.42269e-05
1.87598e-05
1.56253e-05
1.3783e-05
1.25037e-05
4.7766e-10
4.82483e-10
5.18538e-10
6.6563e-10
1.20809e-09
3.10667e-09
9.47648e-09
3.00614e-08
9.44099e-08
2.89933e-07
8.70717e-07
2.56537e-06
7.37436e-06
1.92084e-05
1.89481e-05
1.63969e-05
1.43491e-05
1.28991e-05
1.75706e-07
1.75888e-07
1.76246e-07
1.76794e-07
1.77539e-07
1.78481e-07
1.79625e-07
1.80976e-07
1.82537e-07
1.8431e-07
1.86301e-07
1.88512e-07
1.90945e-07
1.93602e-07
1.96486e-07
1.99597e-07
2.02937e-07
2.06506e-07
2.10306e-07
2.14336e-07
2.18595e-07
2.23082e-07
2.27798e-07
2.32738e-07
2.37903e-07
2.43289e-07
2.48893e-07
2.54712e-07
2.60743e-07
2.66982e-07
2.73424e-07
2.80065e-07
2.869e-07
2.93922e-07
3.01128e-07
3.08511e-07
3.16064e-07
3.23782e-07
3.31658e-07
3.39684e-07
3.47854e-07
3.5616e-07
3.64595e-07
3.73152e-07
3.81823e-07
3.90599e-07
3.99474e-07
4.08439e-07
4.17487e-07
4.2661e-07
4.358e-07
4.45051e-07
4.54353e-07
4.637e-07
4.73085e-07
4.82501e-07
4.91941e-07
5.01398e-07
5.10866e-07
5.2034e-07
5.29813e-07
5.3928e-07
5.48737e-07
5.58178e-07
5.67598e-07
5.76995e-07
5.86364e-07
5.95702e-07
6.05006e-07
6.14273e-07
6.23501e-07
6.32688e-07
6.41831e-07
6.5093e-07
6.59983e-07
6.6899e-07
6.77948e-07
6.86859e-07
6.95722e-07
7.04537e-07
7.13303e-07
7.22022e-07
7.30693e-07
7.39318e-07
7.47898e-07
7.56433e-07
7.64925e-07
7.73375e-07
7.81784e-07
7.90153e-07
7.98486e-07
8.06782e-07
8.15045e-07
8.23275e-07
8.31474e-07
8.39645e-07
8.47789e-07
8.55907e-07
8.64002e-07
8.72075e-07
8.80127e-07
8.88161e-07
8.96177e-07
9.04176e-07
9.12159e-07
9.20128e-07
9.28083e-07
9.36025e-07
9.43954e-07
9.51871e-07
9.59776e-07
9.67669e-07
9.75551e-07
9.83421e-07
9.9128e-07
9.99127e-07
1.00696e-06
1.01478e-06
1.02259e-06
1.03039e-06
1.03817e-06
1.04594e-06
1.05369e-06
1.06142e-06
1.06914e-06
1.07684e-06
1.08453e-06
1.09219e-06
1.09983e-06
1.10745e-06
1.11505e-06
1.12262e-06
1.13016e-06
1.13768e-06
1.14517e-06
1.15263e-06
1.16006e-06
1.16746e-06
1.17482e-06
1.18215e-06
1.18944e-06
1.19669e-06
1.2039e-06
1.21107e-06
1.2182e-06
1.22529e-06
1.23232e-06
1.23931e-06
1.24625e-06
1.25314e-06
1.25998e-06
1.26677e-06
1.2735e-06
1.28017e-06
1.28679e-06
1.29335e-06
1.29985e-06
1.3063e-06
1.31267e-06
1.31899e-06
1.32524e-06
1.33142e-06
1.33756e-06
1.34357e-06
1.34951e-06
1.35539e-06
1.36115e-06
1.36684e-06
1.37247e-06
1.37803e-06
1.38352e-06
1.38893e-06
1.39428e-06
1.39954e-06
1.40473e-06
1.40983e-06
1.41487e-06
1.41968e-06
1.4249e-06
1.4272e-06
1.75229e-07
1.75409e-07
1.75778e-07
1.76337e-07
1.77089e-07
1.7804e-07
1.79193e-07
1.8055e-07
1.82116e-07
1.83892e-07
1.85883e-07
1.88093e-07
1.90522e-07
1.93175e-07
1.96052e-07
1.99155e-07
2.02486e-07
2.06044e-07
2.09832e-07
2.13847e-07
2.18091e-07
2.22562e-07
2.2726e-07
2.32181e-07
2.37326e-07
2.4269e-07
2.48272e-07
2.54068e-07
2.60075e-07
2.66288e-07
2.72704e-07
2.79318e-07
2.86125e-07
2.93121e-07
3.00298e-07
3.07652e-07
3.15177e-07
3.22866e-07
3.30712e-07
3.38709e-07
3.4685e-07
3.55127e-07
3.63534e-07
3.72062e-07
3.80704e-07
3.89453e-07
3.98301e-07
4.0724e-07
4.16262e-07
4.25359e-07
4.34525e-07
4.4375e-07
4.53029e-07
4.62354e-07
4.71716e-07
4.8111e-07
4.90529e-07
4.99966e-07
5.09416e-07
5.18871e-07
5.28326e-07
5.37777e-07
5.47217e-07
5.56643e-07
5.6605e-07
5.75433e-07
5.8479e-07
5.94117e-07
6.0341e-07
6.12667e-07
6.21886e-07
6.31065e-07
6.40201e-07
6.49293e-07
6.5834e-07
6.67342e-07
6.76296e-07
6.85203e-07
6.94063e-07
7.02875e-07
7.1164e-07
7.20358e-07
7.29029e-07
7.37654e-07
7.46234e-07
7.5477e-07
7.63263e-07
7.71715e-07
7.80126e-07
7.88498e-07
7.96833e-07
8.05134e-07
8.134e-07
8.21634e-07
8.29838e-07
8.38014e-07
8.46163e-07
8.54288e-07
8.62389e-07
8.70469e-07
8.78529e-07
8.86571e-07
8.94596e-07
9.02605e-07
9.10599e-07
9.18579e-07
9.26545e-07
9.345e-07
9.42442e-07
9.50372e-07
9.58291e-07
9.662e-07
9.74096e-07
9.81982e-07
9.89857e-07
9.9772e-07
1.00557e-06
1.01341e-06
1.02124e-06
1.02905e-06
1.03685e-06
1.04464e-06
1.05241e-06
1.06016e-06
1.0679e-06
1.07562e-06
1.08332e-06
1.091e-06
1.09866e-06
1.1063e-06
1.11392e-06
1.12151e-06
1.12907e-06
1.13661e-06
1.14412e-06
1.1516e-06
1.15904e-06
1.16646e-06
1.17384e-06
1.18118e-06
1.18849e-06
1.19575e-06
1.20298e-06
1.21016e-06
1.21731e-06
1.2244e-06
1.23145e-06
1.23845e-06
1.2454e-06
1.2523e-06
1.25915e-06
1.26594e-06
1.27268e-06
1.27936e-06
1.28598e-06
1.29254e-06
1.29904e-06
1.30548e-06
1.31185e-06
1.31816e-06
1.3244e-06
1.33058e-06
1.3367e-06
1.34272e-06
1.34869e-06
1.35461e-06
1.36043e-06
1.36619e-06
1.37187e-06
1.37748e-06
1.38302e-06
1.38848e-06
1.39387e-06
1.39918e-06
1.40441e-06
1.40956e-06
1.41465e-06
1.41954e-06
1.42468e-06
1.42796e-06
1.74273e-07
1.74444e-07
1.74811e-07
1.75372e-07
1.76127e-07
1.77078e-07
1.7823e-07
1.79585e-07
1.81146e-07
1.82917e-07
1.84902e-07
1.87101e-07
1.89519e-07
1.92158e-07
1.95018e-07
1.98102e-07
2.01411e-07
2.04945e-07
2.08706e-07
2.12692e-07
2.16904e-07
2.2134e-07
2.26e-07
2.30883e-07
2.35986e-07
2.41306e-07
2.46842e-07
2.52591e-07
2.58548e-07
2.6471e-07
2.71074e-07
2.77634e-07
2.84387e-07
2.91326e-07
2.98447e-07
3.05744e-07
3.13211e-07
3.20841e-07
3.28629e-07
3.36568e-07
3.4465e-07
3.52869e-07
3.61218e-07
3.69689e-07
3.78275e-07
3.86968e-07
3.9576e-07
4.04645e-07
4.13614e-07
4.22659e-07
4.31774e-07
4.40951e-07
4.50181e-07
4.59459e-07
4.68777e-07
4.78128e-07
4.87505e-07
4.96902e-07
5.06313e-07
5.15732e-07
5.25153e-07
5.3457e-07
5.4398e-07
5.53377e-07
5.62757e-07
5.72115e-07
5.81449e-07
5.90754e-07
6.00028e-07
6.09268e-07
6.18472e-07
6.27637e-07
6.36762e-07
6.45845e-07
6.54884e-07
6.6388e-07
6.72831e-07
6.81736e-07
6.90595e-07
6.99409e-07
7.08177e-07
7.16899e-07
7.25576e-07
7.34209e-07
7.42799e-07
7.51347e-07
7.59852e-07
7.68318e-07
7.76745e-07
7.85135e-07
7.93489e-07
8.01809e-07
8.10097e-07
8.18355e-07
8.26584e-07
8.34786e-07
8.42963e-07
8.51118e-07
8.59251e-07
8.67364e-07
8.75459e-07
8.83538e-07
8.91601e-07
8.99651e-07
9.07687e-07
9.15711e-07
9.23724e-07
9.31726e-07
9.39717e-07
9.47698e-07
9.5567e-07
9.63633e-07
9.71585e-07
9.79528e-07
9.87461e-07
9.95384e-07
1.0033e-06
1.0112e-06
1.01909e-06
1.02697e-06
1.03483e-06
1.04269e-06
1.05052e-06
1.05835e-06
1.06615e-06
1.07394e-06
1.08171e-06
1.08946e-06
1.0972e-06
1.1049e-06
1.11259e-06
1.12025e-06
1.12789e-06
1.13549e-06
1.14307e-06
1.15062e-06
1.15813e-06
1.16562e-06
1.17306e-06
1.18047e-06
1.18785e-06
1.19518e-06
1.20247e-06
1.20972e-06
1.21692e-06
1.22407e-06
1.23118e-06
1.23824e-06
1.24524e-06
1.2522e-06
1.25909e-06
1.26594e-06
1.27272e-06
1.27945e-06
1.28611e-06
1.29272e-06
1.29926e-06
1.30574e-06
1.31215e-06
1.31849e-06
1.32477e-06
1.33098e-06
1.33713e-06
1.34319e-06
1.34919e-06
1.35515e-06
1.36101e-06
1.36681e-06
1.37253e-06
1.37817e-06
1.38374e-06
1.38924e-06
1.39465e-06
1.39999e-06
1.40525e-06
1.41042e-06
1.41553e-06
1.42045e-06
1.42552e-06
1.42936e-06
1.72826e-07
1.7299e-07
1.73355e-07
1.73916e-07
1.7467e-07
1.75619e-07
1.76766e-07
1.78114e-07
1.79667e-07
1.81428e-07
1.83399e-07
1.85582e-07
1.8798e-07
1.90596e-07
1.9343e-07
1.96484e-07
1.99759e-07
2.03256e-07
2.06975e-07
2.10916e-07
2.1508e-07
2.19465e-07
2.2407e-07
2.28894e-07
2.33935e-07
2.39191e-07
2.4466e-07
2.50339e-07
2.56224e-07
2.62312e-07
2.68599e-07
2.75081e-07
2.81754e-07
2.88612e-07
2.95651e-07
3.02864e-07
3.10247e-07
3.17793e-07
3.25496e-07
3.3335e-07
3.41348e-07
3.49483e-07
3.57748e-07
3.66135e-07
3.74639e-07
3.83251e-07
3.91963e-07
4.00769e-07
4.09661e-07
4.18631e-07
4.27673e-07
4.36777e-07
4.45938e-07
4.55149e-07
4.64401e-07
4.73689e-07
4.83006e-07
4.92345e-07
5.017e-07
5.11066e-07
5.20437e-07
5.29807e-07
5.39172e-07
5.48527e-07
5.57868e-07
5.6719e-07
5.76491e-07
5.85766e-07
5.95013e-07
6.04228e-07
6.13411e-07
6.22557e-07
6.31666e-07
6.40736e-07
6.49765e-07
6.58754e-07
6.677e-07
6.76603e-07
6.85463e-07
6.9428e-07
7.03054e-07
7.11785e-07
7.20474e-07
7.2912e-07
7.37726e-07
7.46292e-07
7.54819e-07
7.63308e-07
7.7176e-07
7.80178e-07
7.88563e-07
7.96915e-07
8.05239e-07
8.13534e-07
8.21803e-07
8.30048e-07
8.38271e-07
8.46473e-07
8.54656e-07
8.62823e-07
8.70974e-07
8.79112e-07
8.87238e-07
8.95352e-07
9.03455e-07
9.1155e-07
9.19635e-07
9.27713e-07
9.35782e-07
9.43845e-07
9.519e-07
9.59948e-07
9.67988e-07
9.76021e-07
9.84047e-07
9.92064e-07
1.00007e-06
1.00807e-06
1.01606e-06
1.02404e-06
1.03201e-06
1.03997e-06
1.04791e-06
1.05584e-06
1.06376e-06
1.07166e-06
1.07954e-06
1.0874e-06
1.09524e-06
1.10306e-06
1.11086e-06
1.11863e-06
1.12638e-06
1.1341e-06
1.14178e-06
1.14944e-06
1.15707e-06
1.16466e-06
1.17221e-06
1.17973e-06
1.18721e-06
1.19464e-06
1.20203e-06
1.20938e-06
1.21668e-06
1.22393e-06
1.23113e-06
1.23828e-06
1.24538e-06
1.25242e-06
1.2594e-06
1.26633e-06
1.2732e-06
1.28e-06
1.28674e-06
1.29342e-06
1.30003e-06
1.30657e-06
1.31305e-06
1.31946e-06
1.3258e-06
1.33206e-06
1.33826e-06
1.34438e-06
1.35044e-06
1.35643e-06
1.36234e-06
1.36818e-06
1.37394e-06
1.37962e-06
1.38522e-06
1.39075e-06
1.3962e-06
1.40156e-06
1.40684e-06
1.41203e-06
1.41715e-06
1.42209e-06
1.42713e-06
1.43129e-06
1.70867e-07
1.7103e-07
1.71393e-07
1.71953e-07
1.72703e-07
1.73647e-07
1.74786e-07
1.76124e-07
1.77664e-07
1.79408e-07
1.81358e-07
1.83517e-07
1.85888e-07
1.88471e-07
1.91268e-07
1.94281e-07
1.9751e-07
2.00957e-07
2.04622e-07
2.08504e-07
2.12604e-07
2.16922e-07
2.21455e-07
2.26204e-07
2.31165e-07
2.36339e-07
2.41721e-07
2.4731e-07
2.53103e-07
2.59096e-07
2.65286e-07
2.71668e-07
2.78239e-07
2.84994e-07
2.91927e-07
2.99035e-07
3.06311e-07
3.13749e-07
3.21345e-07
3.2909e-07
3.3698e-07
3.45008e-07
3.53166e-07
3.61448e-07
3.69847e-07
3.78355e-07
3.86966e-07
3.95671e-07
4.04465e-07
4.13339e-07
4.22287e-07
4.313e-07
4.40372e-07
4.49497e-07
4.58666e-07
4.67874e-07
4.77113e-07
4.86379e-07
4.95664e-07
5.04963e-07
5.1427e-07
5.23581e-07
5.32889e-07
5.42192e-07
5.51484e-07
5.60761e-07
5.70021e-07
5.79258e-07
5.88471e-07
5.97657e-07
6.06813e-07
6.15937e-07
6.25027e-07
6.34082e-07
6.43101e-07
6.52081e-07
6.61024e-07
6.69926e-07
6.7879e-07
6.87613e-07
6.96397e-07
7.05142e-07
7.13847e-07
7.22514e-07
7.31143e-07
7.39735e-07
7.48291e-07
7.56813e-07
7.65302e-07
7.73758e-07
7.82185e-07
7.90583e-07
7.98955e-07
8.07302e-07
8.15626e-07
8.23929e-07
8.32213e-07
8.4048e-07
8.48732e-07
8.56971e-07
8.65199e-07
8.73416e-07
8.81624e-07
8.89825e-07
8.98019e-07
9.06207e-07
9.1439e-07
9.22569e-07
9.30742e-07
9.38912e-07
9.47078e-07
9.55239e-07
9.63397e-07
9.71549e-07
9.79697e-07
9.87839e-07
9.95976e-07
1.00411e-06
1.01223e-06
1.02034e-06
1.02845e-06
1.03654e-06
1.04463e-06
1.0527e-06
1.06076e-06
1.0688e-06
1.07682e-06
1.08483e-06
1.09282e-06
1.10078e-06
1.10873e-06
1.11665e-06
1.12454e-06
1.1324e-06
1.14024e-06
1.14804e-06
1.15581e-06
1.16354e-06
1.17123e-06
1.17889e-06
1.1865e-06
1.19407e-06
1.2016e-06
1.20908e-06
1.21651e-06
1.22388e-06
1.23121e-06
1.23848e-06
1.24569e-06
1.25285e-06
1.25994e-06
1.26698e-06
1.27395e-06
1.28085e-06
1.28769e-06
1.29447e-06
1.30117e-06
1.3078e-06
1.31436e-06
1.32085e-06
1.32727e-06
1.33361e-06
1.33988e-06
1.34607e-06
1.35219e-06
1.35824e-06
1.3642e-06
1.37009e-06
1.3759e-06
1.38163e-06
1.38728e-06
1.39285e-06
1.39833e-06
1.40373e-06
1.40904e-06
1.41426e-06
1.4194e-06
1.42436e-06
1.42941e-06
1.43374e-06
1.68392e-07
1.68555e-07
1.68917e-07
1.69473e-07
1.70218e-07
1.71153e-07
1.7228e-07
1.73603e-07
1.75124e-07
1.76845e-07
1.78768e-07
1.80895e-07
1.83229e-07
1.85771e-07
1.88521e-07
1.91483e-07
1.94656e-07
1.98041e-07
2.01638e-07
2.05449e-07
2.09472e-07
2.13708e-07
2.18155e-07
2.22813e-07
2.27679e-07
2.32753e-07
2.38032e-07
2.43514e-07
2.49196e-07
2.55075e-07
2.61148e-07
2.67412e-07
2.73861e-07
2.80492e-07
2.87301e-07
2.94282e-07
3.01431e-07
3.08741e-07
3.16208e-07
3.23825e-07
3.31586e-07
3.39486e-07
3.47517e-07
3.55672e-07
3.63946e-07
3.72331e-07
3.8082e-07
3.89406e-07
3.98083e-07
4.06842e-07
4.15678e-07
4.24582e-07
4.33548e-07
4.4257e-07
4.5164e-07
4.60753e-07
4.69901e-07
4.79078e-07
4.8828e-07
4.97499e-07
5.06731e-07
5.15971e-07
5.25213e-07
5.34454e-07
5.43688e-07
5.52913e-07
5.62124e-07
5.71318e-07
5.80492e-07
5.89643e-07
5.98769e-07
6.07868e-07
6.16938e-07
6.25977e-07
6.34984e-07
6.43958e-07
6.52898e-07
6.61803e-07
6.70673e-07
6.79507e-07
6.88306e-07
6.9707e-07
7.05798e-07
7.14493e-07
7.23153e-07
7.3178e-07
7.40376e-07
7.4894e-07
7.57476e-07
7.65983e-07
7.74465e-07
7.82921e-07
7.91355e-07
7.99768e-07
8.08162e-07
8.1654e-07
8.24902e-07
8.33252e-07
8.41591e-07
8.49921e-07
8.58244e-07
8.66562e-07
8.74875e-07
8.83184e-07
8.91491e-07
8.99797e-07
9.08102e-07
9.16406e-07
9.24709e-07
9.33012e-07
9.41315e-07
9.49618e-07
9.5792e-07
9.6622e-07
9.74519e-07
9.82816e-07
9.9111e-07
9.99401e-07
1.00769e-06
1.01597e-06
1.02424e-06
1.0325e-06
1.04076e-06
1.049e-06
1.05723e-06
1.06545e-06
1.07365e-06
1.08184e-06
1.09001e-06
1.09815e-06
1.10627e-06
1.11437e-06
1.12244e-06
1.13048e-06
1.13849e-06
1.14647e-06
1.15441e-06
1.16232e-06
1.17018e-06
1.17801e-06
1.18579e-06
1.19352e-06
1.20121e-06
1.20885e-06
1.21643e-06
1.22396e-06
1.23144e-06
1.23885e-06
1.24621e-06
1.2535e-06
1.26073e-06
1.2679e-06
1.275e-06
1.28202e-06
1.28898e-06
1.29587e-06
1.30268e-06
1.30942e-06
1.31609e-06
1.32267e-06
1.32918e-06
1.33562e-06
1.34197e-06
1.34824e-06
1.35443e-06
1.36055e-06
1.36659e-06
1.37254e-06
1.37841e-06
1.38419e-06
1.38989e-06
1.39551e-06
1.40104e-06
1.40648e-06
1.41183e-06
1.41708e-06
1.42225e-06
1.42724e-06
1.43233e-06
1.43674e-06
1.65388e-07
1.65553e-07
1.65915e-07
1.66466e-07
1.67203e-07
1.68126e-07
1.69238e-07
1.70541e-07
1.72037e-07
1.73729e-07
1.75618e-07
1.77706e-07
1.79995e-07
1.82487e-07
1.85183e-07
1.88083e-07
1.91189e-07
1.94502e-07
1.98022e-07
2.01749e-07
2.05683e-07
2.09824e-07
2.14171e-07
2.18724e-07
2.23481e-07
2.28441e-07
2.33601e-07
2.38961e-07
2.44516e-07
2.50266e-07
2.56205e-07
2.62333e-07
2.68643e-07
2.75134e-07
2.818e-07
2.88637e-07
2.9564e-07
3.02804e-07
3.10124e-07
3.17594e-07
3.25208e-07
3.32961e-07
3.40846e-07
3.48858e-07
3.56989e-07
3.65232e-07
3.73582e-07
3.82032e-07
3.90574e-07
3.99202e-07
4.07909e-07
4.16689e-07
4.25534e-07
4.34439e-07
4.43396e-07
4.52399e-07
4.61442e-07
4.7052e-07
4.79626e-07
4.88755e-07
4.97901e-07
5.0706e-07
5.16227e-07
5.25397e-07
5.34567e-07
5.43732e-07
5.52889e-07
5.62035e-07
5.71166e-07
5.80279e-07
5.89374e-07
5.98446e-07
6.07495e-07
6.16519e-07
6.25515e-07
6.34484e-07
6.43425e-07
6.52335e-07
6.61216e-07
6.70066e-07
6.78886e-07
6.87676e-07
6.96436e-07
7.05166e-07
7.13866e-07
7.22539e-07
7.31185e-07
7.39804e-07
7.48398e-07
7.56969e-07
7.65519e-07
7.74048e-07
7.82559e-07
7.91054e-07
7.99535e-07
8.08004e-07
8.16462e-07
8.24913e-07
8.33358e-07
8.418e-07
8.5024e-07
8.58678e-07
8.67118e-07
8.75559e-07
8.84003e-07
8.9245e-07
9.00901e-07
9.09355e-07
9.17814e-07
9.26277e-07
9.34744e-07
9.43214e-07
9.51688e-07
9.60165e-07
9.68644e-07
9.77124e-07
9.85604e-07
9.94084e-07
1.00256e-06
1.01104e-06
1.01951e-06
1.02797e-06
1.03643e-06
1.04488e-06
1.05331e-06
1.06174e-06
1.07015e-06
1.07854e-06
1.08692e-06
1.09527e-06
1.1036e-06
1.11191e-06
1.12019e-06
1.12844e-06
1.13666e-06
1.14484e-06
1.15298e-06
1.16109e-06
1.16916e-06
1.17718e-06
1.18515e-06
1.19308e-06
1.20095e-06
1.20877e-06
1.21654e-06
1.22425e-06
1.2319e-06
1.23948e-06
1.247e-06
1.25446e-06
1.26184e-06
1.26916e-06
1.2764e-06
1.28357e-06
1.29067e-06
1.29769e-06
1.30463e-06
1.31149e-06
1.31827e-06
1.32497e-06
1.33159e-06
1.33812e-06
1.34457e-06
1.35093e-06
1.35721e-06
1.36341e-06
1.36952e-06
1.37555e-06
1.38149e-06
1.38734e-06
1.3931e-06
1.39877e-06
1.40435e-06
1.40984e-06
1.41523e-06
1.42052e-06
1.42572e-06
1.43075e-06
1.43587e-06
1.44033e-06
1.61847e-07
1.62016e-07
1.62375e-07
1.6292e-07
1.63646e-07
1.64554e-07
1.65646e-07
1.66925e-07
1.68392e-07
1.70049e-07
1.71898e-07
1.73941e-07
1.76178e-07
1.78613e-07
1.81244e-07
1.84075e-07
1.87106e-07
1.90337e-07
1.93769e-07
1.97402e-07
2.01236e-07
2.05272e-07
2.09508e-07
2.13944e-07
2.18579e-07
2.23412e-07
2.28441e-07
2.33664e-07
2.39079e-07
2.44685e-07
2.50477e-07
2.56453e-07
2.62611e-07
2.68945e-07
2.75453e-07
2.8213e-07
2.88972e-07
2.95974e-07
3.03131e-07
3.10438e-07
3.1789e-07
3.2548e-07
3.33204e-07
3.41055e-07
3.49027e-07
3.57115e-07
3.6531e-07
3.73608e-07
3.82001e-07
3.90483e-07
3.99048e-07
4.0769e-07
4.164e-07
4.25175e-07
4.34006e-07
4.42888e-07
4.51816e-07
4.60782e-07
4.69783e-07
4.78812e-07
4.87864e-07
4.96934e-07
5.06019e-07
5.15112e-07
5.24211e-07
5.33312e-07
5.42411e-07
5.51504e-07
5.6059e-07
5.69664e-07
5.78726e-07
5.87772e-07
5.968e-07
6.0581e-07
6.14799e-07
6.23766e-07
6.32711e-07
6.41633e-07
6.5053e-07
6.59403e-07
6.68252e-07
6.77076e-07
6.85876e-07
6.94652e-07
7.03404e-07
7.12133e-07
7.20841e-07
7.29528e-07
7.38195e-07
7.46844e-07
7.55476e-07
7.64094e-07
7.72699e-07
7.81293e-07
7.89878e-07
7.98457e-07
8.07031e-07
8.15603e-07
8.24175e-07
8.32749e-07
8.41326e-07
8.49909e-07
8.58498e-07
8.67093e-07
8.75697e-07
8.8431e-07
8.92931e-07
9.01562e-07
9.10202e-07
9.1885e-07
9.27507e-07
9.36173e-07
9.44846e-07
9.53526e-07
9.62212e-07
9.70903e-07
9.79598e-07
9.88296e-07
9.96995e-07
1.00569e-06
1.01439e-06
1.02308e-06
1.03177e-06
1.04045e-06
1.04913e-06
1.05779e-06
1.06643e-06
1.07506e-06
1.08368e-06
1.09227e-06
1.10084e-06
1.10938e-06
1.1179e-06
1.12638e-06
1.13483e-06
1.14325e-06
1.15162e-06
1.15996e-06
1.16825e-06
1.17649e-06
1.18468e-06
1.19282e-06
1.20091e-06
1.20894e-06
1.21691e-06
1.22482e-06
1.23266e-06
1.24043e-06
1.24814e-06
1.25577e-06
1.26334e-06
1.27082e-06
1.27823e-06
1.28556e-06
1.2928e-06
1.29997e-06
1.30705e-06
1.31405e-06
1.32096e-06
1.32778e-06
1.33452e-06
1.34116e-06
1.34772e-06
1.35419e-06
1.36056e-06
1.36685e-06
1.37305e-06
1.37915e-06
1.38516e-06
1.39108e-06
1.39691e-06
1.40265e-06
1.40828e-06
1.41382e-06
1.41927e-06
1.4246e-06
1.42984e-06
1.43491e-06
1.44007e-06
1.44456e-06
1.57754e-07
1.57925e-07
1.58282e-07
1.58819e-07
1.59533e-07
1.60423e-07
1.61493e-07
1.62743e-07
1.64176e-07
1.65794e-07
1.67598e-07
1.69589e-07
1.71769e-07
1.74139e-07
1.76701e-07
1.79454e-07
1.82402e-07
1.85543e-07
1.88878e-07
1.92409e-07
1.96134e-07
2.00055e-07
2.0417e-07
2.08479e-07
2.12981e-07
2.17676e-07
2.22563e-07
2.27638e-07
2.32902e-07
2.38351e-07
2.43983e-07
2.49797e-07
2.55788e-07
2.61953e-07
2.6829e-07
2.74794e-07
2.81461e-07
2.88288e-07
2.95269e-07
3.02399e-07
3.09675e-07
3.17089e-07
3.24638e-07
3.32316e-07
3.40116e-07
3.48033e-07
3.56062e-07
3.64195e-07
3.72426e-07
3.80751e-07
3.89162e-07
3.97653e-07
4.06218e-07
4.14851e-07
4.23546e-07
4.32298e-07
4.411e-07
4.49947e-07
4.58834e-07
4.67756e-07
4.76707e-07
4.85683e-07
4.94679e-07
5.03691e-07
5.12716e-07
5.21749e-07
5.30787e-07
5.39827e-07
5.48866e-07
5.57902e-07
5.66931e-07
5.75952e-07
5.84963e-07
5.93962e-07
6.02948e-07
6.1192e-07
6.20875e-07
6.29815e-07
6.38737e-07
6.47641e-07
6.56528e-07
6.65397e-07
6.74248e-07
6.83081e-07
6.91897e-07
7.00697e-07
7.09481e-07
7.1825e-07
7.27005e-07
7.35748e-07
7.44481e-07
7.53205e-07
7.61921e-07
7.70633e-07
7.79342e-07
7.88051e-07
7.9676e-07
8.05474e-07
8.14195e-07
8.22924e-07
8.31662e-07
8.40411e-07
8.49173e-07
8.57948e-07
8.66736e-07
8.75539e-07
8.84356e-07
8.93188e-07
9.02034e-07
9.10894e-07
9.19768e-07
9.28654e-07
9.37553e-07
9.46463e-07
9.55383e-07
9.64312e-07
9.73249e-07
9.82192e-07
9.91139e-07
1.00009e-06
1.00904e-06
1.01799e-06
1.02694e-06
1.03588e-06
1.04481e-06
1.05373e-06
1.06264e-06
1.07154e-06
1.08041e-06
1.08927e-06
1.0981e-06
1.10691e-06
1.11568e-06
1.12443e-06
1.13314e-06
1.14181e-06
1.15044e-06
1.15902e-06
1.16756e-06
1.17605e-06
1.18448e-06
1.19286e-06
1.20118e-06
1.20943e-06
1.21763e-06
1.22575e-06
1.23381e-06
1.24179e-06
1.2497e-06
1.25753e-06
1.26528e-06
1.27295e-06
1.28053e-06
1.28803e-06
1.29545e-06
1.30277e-06
1.31001e-06
1.31715e-06
1.3242e-06
1.33116e-06
1.33802e-06
1.34479e-06
1.35146e-06
1.35803e-06
1.36451e-06
1.3709e-06
1.37718e-06
1.38337e-06
1.38947e-06
1.39546e-06
1.40136e-06
1.40716e-06
1.41286e-06
1.41845e-06
1.42394e-06
1.42932e-06
1.43461e-06
1.43971e-06
1.44491e-06
1.44943e-06
1.53089e-07
1.53264e-07
1.53619e-07
1.54147e-07
1.54846e-07
1.55717e-07
1.56761e-07
1.5798e-07
1.59377e-07
1.60951e-07
1.62705e-07
1.6464e-07
1.66757e-07
1.69058e-07
1.71543e-07
1.74214e-07
1.77072e-07
1.80116e-07
1.83348e-07
1.86769e-07
1.90378e-07
1.94175e-07
1.98161e-07
2.02335e-07
2.06696e-07
2.11245e-07
2.15979e-07
2.20898e-07
2.26e-07
2.31283e-07
2.36746e-07
2.42385e-07
2.482e-07
2.54186e-07
2.60341e-07
2.66661e-07
2.73143e-07
2.79783e-07
2.86576e-07
2.93519e-07
3.00607e-07
3.07835e-07
3.15198e-07
3.22691e-07
3.30308e-07
3.38045e-07
3.45895e-07
3.53853e-07
3.61913e-07
3.7007e-07
3.78317e-07
3.86648e-07
3.95059e-07
4.03543e-07
4.12094e-07
4.20708e-07
4.29378e-07
4.38099e-07
4.46867e-07
4.55676e-07
4.64521e-07
4.73399e-07
4.82304e-07
4.91232e-07
5.00181e-07
5.09146e-07
5.18123e-07
5.27111e-07
5.36105e-07
5.45104e-07
5.54105e-07
5.63105e-07
5.72104e-07
5.81098e-07
5.90088e-07
5.9907e-07
6.08045e-07
6.17011e-07
6.25968e-07
6.34915e-07
6.43852e-07
6.52778e-07
6.61694e-07
6.70599e-07
6.79494e-07
6.88379e-07
6.97255e-07
7.06123e-07
7.14985e-07
7.2384e-07
7.32692e-07
7.41541e-07
7.5039e-07
7.5924e-07
7.68094e-07
7.76954e-07
7.85822e-07
7.94701e-07
8.03593e-07
8.125e-07
8.21423e-07
8.30364e-07
8.39323e-07
8.48302e-07
8.573e-07
8.66318e-07
8.75356e-07
8.84415e-07
8.93493e-07
9.0259e-07
9.11706e-07
9.20839e-07
9.29989e-07
9.39155e-07
9.48335e-07
9.57528e-07
9.66731e-07
9.75945e-07
9.85166e-07
9.94392e-07
1.00362e-06
1.01285e-06
1.02208e-06
1.03131e-06
1.04052e-06
1.04973e-06
1.05893e-06
1.06811e-06
1.07728e-06
1.08642e-06
1.09554e-06
1.10463e-06
1.11369e-06
1.12271e-06
1.1317e-06
1.14065e-06
1.14955e-06
1.1584e-06
1.16721e-06
1.17596e-06
1.18465e-06
1.19328e-06
1.20185e-06
1.21035e-06
1.21878e-06
1.22714e-06
1.23542e-06
1.24363e-06
1.25175e-06
1.25979e-06
1.26774e-06
1.27561e-06
1.28339e-06
1.29107e-06
1.29866e-06
1.30615e-06
1.31355e-06
1.32084e-06
1.32804e-06
1.33514e-06
1.34214e-06
1.34903e-06
1.35582e-06
1.36251e-06
1.3691e-06
1.37558e-06
1.38196e-06
1.38824e-06
1.39442e-06
1.40049e-06
1.40646e-06
1.41232e-06
1.41808e-06
1.42374e-06
1.42928e-06
1.43471e-06
1.44003e-06
1.44518e-06
1.45041e-06
1.45497e-06
1.47833e-07
1.48012e-07
1.48363e-07
1.48882e-07
1.49567e-07
1.50417e-07
1.51434e-07
1.5262e-07
1.53977e-07
1.55505e-07
1.57206e-07
1.59082e-07
1.61132e-07
1.6336e-07
1.65765e-07
1.68348e-07
1.7111e-07
1.74053e-07
1.77176e-07
1.80481e-07
1.83967e-07
1.87636e-07
1.91486e-07
1.95518e-07
1.99731e-07
2.04126e-07
2.08701e-07
2.13455e-07
2.18388e-07
2.23498e-07
2.28783e-07
2.34241e-07
2.39871e-07
2.45669e-07
2.51634e-07
2.57761e-07
2.64049e-07
2.70494e-07
2.77091e-07
2.83838e-07
2.9073e-07
2.97762e-07
3.0493e-07
3.1223e-07
3.19656e-07
3.27204e-07
3.34868e-07
3.42644e-07
3.50525e-07
3.58506e-07
3.66582e-07
3.74748e-07
3.82998e-07
3.91327e-07
3.9973e-07
4.082e-07
4.16734e-07
4.25326e-07
4.33971e-07
4.42665e-07
4.51403e-07
4.60181e-07
4.68995e-07
4.77841e-07
4.86715e-07
4.95613e-07
5.04533e-07
5.13472e-07
5.22426e-07
5.31394e-07
5.40372e-07
5.49359e-07
5.58353e-07
5.67352e-07
5.76354e-07
5.85359e-07
5.94364e-07
6.0337e-07
6.12374e-07
6.21377e-07
6.30378e-07
6.39377e-07
6.48373e-07
6.57367e-07
6.66358e-07
6.75347e-07
6.84335e-07
6.93322e-07
7.02309e-07
7.11298e-07
7.2029e-07
7.29287e-07
7.3829e-07
7.47301e-07
7.56323e-07
7.65358e-07
7.74409e-07
7.83478e-07
7.92567e-07
8.01678e-07
8.10811e-07
8.19968e-07
8.2915e-07
8.38358e-07
8.47591e-07
8.5685e-07
8.66135e-07
8.75446e-07
8.84781e-07
8.94141e-07