/*--------------------------------*- C++ -*----------------------------------*\
| =========                 |                                                 |
| \\      /  F ield         | OpenFOAM: The Open Source CFD Toolbox           |
|  \\    /   O peration     | Version:  2.3.0                                 |
|   \\  /    A nd           | Web:      www.OpenFOAM.org                      |
|    \\/     M anipulation  |                                                 |
\*---------------------------------------------------------------------------*/
FoamFile
{
    version     2.0;
    format      ascii;
    class       volScalarField;
    location    "5";
    object      p;
}
// * * * * * * * * * * * * * * * * * * * * * * * * * * * * * * * * * * * * * //

dimensions      [0 2 -2 0 0 0 0];

internalField   nonuniform List<scalar> 
1720
(
0.000754588
0.000740807
0.000438746
0.000257116
0.000256393
0.00033348
0.000391622
0.00040201
0.000379993
0.000347173
0.000314096
0.000278936
0.000237153
0.000185017
0.000123994
5.57081e-05
-1.37726e-05
-8.22132e-05
-0.000148911
-0.000206508
-0.000251797
-0.000283652
-0.000303607
-0.000315124
-0.000322258
-0.000328237
-0.000333008
-0.000337108
-0.000338711
-0.000337784
-0.000329977
-0.000306052
-0.000241128
-0.000122106
-4.16487e-05
-0.000623663
-0.00163338
-0.00265888
-0.00357492
-0.00439696
-0.00517821
-0.00594696
-0.00670943
-0.00746635
-0.00821478
-0.00895233
-0.00967051
-0.010365
-0.0109737
-0.0115478
-0.0120336
-0.012342
-0.0124966
-0.0124539
-0.0121375
-0.0115139
-0.0104461
-0.00886968
-0.006548
-0.0034548
0.00235592
0.00204648
0.00117092
0.000769058
0.000825008
0.00102629
0.00115876
0.0011754
0.00111693
0.00103097
0.000939193
0.000836578
0.000711815
0.000556743
0.000372928
0.000167837
-4.59314e-05
-0.000257781
-0.000455981
-0.000626622
-0.000760097
-0.000853659
-0.000912437
-0.000948079
-0.000971795
-0.000992296
-0.00100986
-0.00102435
-0.0010314
-0.00103185
-0.0010204
-0.000999475
-0.000977754
-0.00100274
-0.00110352
-0.00127673
-0.00136829
-0.00138909
-0.00136314
-0.00130832
-0.00123128
-0.00114419
-0.00106122
-0.000989022
-0.000924208
-0.000862128
-0.000799228
-0.00072897
-0.000744722
-0.000607045
-0.000376562
-0.000259263
-5.25369e-05
0.000195569
0.000482883
0.000791611
0.00109719
0.00132918
0.00134584
0.00083448
0.0040904
0.00319677
0.00179844
0.00130376
0.00145431
0.00175094
0.0019248
0.00193635
0.00184852
0.00172147
0.00158021
0.00141395
0.00120707
0.000946846
0.000635365
0.000283302
-9.04553e-05
-0.000461476
-0.000803873
-0.00109434
-0.00131589
-0.0014654
-0.00155726
-0.00161419
-0.00165482
-0.00169086
-0.00172304
-0.00174932
-0.00176524
-0.00177097
-0.00176667
-0.00176347
-0.00177019
-0.0018062
-0.00185839
-0.00194099
-0.00209253
-0.00230957
-0.00254882
-0.00279076
-0.00302719
-0.00325416
-0.00347312
-0.0036867
-0.00389396
-0.0040871
-0.00425978
-0.00440741
-0.00451119
-0.00457864
-0.00458364
-0.00450107
-0.00435758
-0.00413675
-0.00383281
-0.00343427
-0.00294749
-0.00236369
-0.00169237
-0.000878986
0.00553364
0.00429434
0.00244146
0.00186604
0.00211845
0.00249387
0.00269196
0.0026945
0.00258584
0.00243044
0.0022508
0.0020266
0.00173907
0.00136933
0.000922036
0.000406996
-0.000150589
-0.000711778
-0.00122824
-0.00165408
-0.00195998
-0.00214845
-0.00225491
-0.00232263
-0.00237687
-0.00242556
-0.00246915
-0.00250493
-0.00253084
-0.00254565
-0.00254986
-0.00255044
-0.00255141
-0.00255905
-0.00257371
-0.00261273
-0.00269201
-0.00279103
-0.00288938
-0.00298253
-0.00307258
-0.00316331
-0.0032614
-0.00337505
-0.00350541
-0.00364766
-0.00378971
-0.00391917
-0.00401482
-0.00407554
-0.00408595
-0.00402572
-0.00388753
-0.00365797
-0.00332495
-0.0028883
-0.00234556
-0.00171371
-0.0010123
-0.000367601
0.00699438
0.00532785
0.00305945
0.00242375
0.00278795
0.00324003
0.00346091
0.0034599
0.0033427
0.00317405
0.0029692
0.00269503
0.00232874
0.00184223
0.00124609
0.000545141
-0.000227711
-0.0010262
-0.00176836
-0.00235943
-0.00274238
-0.00294206
-0.00303093
-0.00308419
-0.00314343
-0.00320539
-0.00326023
-0.00330276
-0.00333061
-0.00334412
-0.00334373
-0.00333181
-0.00331042
-0.00328372
-0.00325793
-0.00324188
-0.00324025
-0.00325417
-0.00327952
-0.0033189
-0.00337557
-0.00345145
-0.00354736
-0.00366498
-0.00380114
-0.00394637
-0.00408734
-0.00421277
-0.00430685
-0.00435809
-0.00434888
-0.00426264
-0.00408413
-0.00380577
-0.00342007
-0.00293389
-0.00235138
-0.00170166
-0.00102404
-0.000410817
0.00842134
0.00627166
0.00363747
0.00297169
0.00345591
0.00398598
0.00423494
0.00424283
0.0041339
0.00397077
0.00375612
0.00344379
0.00300149
0.0023891
0.00162049
0.000692904
-0.000335639
-0.00142669
-0.00246053
-0.00325694
-0.0036911
-0.00385968
-0.00390755
-0.00392956
-0.00396806
-0.00401922
-0.00406866
-0.00410605
-0.00412689
-0.00413061
-0.00411553
-0.00408158
-0.00402988
-0.0039643
-0.00389119
-0.00381395
-0.00374097
-0.00368895
-0.0036501
-0.00363359
-0.00364711
-0.00369452
-0.00377484
-0.00388795
-0.00403006
-0.00419353
-0.00436471
-0.00452802
-0.00466452
-0.00475509
-0.00477638
-0.00470865
-0.00453129
-0.00423469
-0.00381908
-0.00329732
-0.00268239
-0.0019969
-0.00127162
-0.000544559
0.00978141
0.00713073
0.00418153
0.00352427
0.00412699
0.00472831
0.00501
0.00504471
0.00496809
0.00483643
0.00463343
0.00430205
0.00379009
0.00304826
0.00206724
0.00083384
-0.000542189
-0.00198263
-0.00335487
-0.00431311
-0.00476599
-0.00487735
-0.00482751
-0.00477941
-0.00477971
-0.00480922
-0.00484191
-0.00486357
-0.00486741
-0.00484961
-0.00480767
-0.00474133
-0.0046507
-0.00454017
-0.00441661
-0.00428261
-0.0041505
-0.00402696
-0.00392694
-0.00385885
-0.00383214
-0.00384958
-0.00391188
-0.00401859
-0.00416814
-0.0043506
-0.00455481
-0.0047659
-0.00495912
-0.00510815
-0.00518347
-0.00516343
-0.00502139
-0.00473648
-0.00430834
-0.00374838
-0.00307044
-0.00229719
-0.00146124
-0.000591559
0.0110481
0.00788816
0.00467331
0.00409756
0.00481586
0.00546438
0.00577838
0.00586171
0.0058499
0.00578461
0.00562808
0.00530691
0.00474123
0.00387592
0.00263566
0.000971681
-0.00101436
-0.00300015
-0.00461968
-0.00555205
-0.00585105
-0.00577864
-0.00559852
-0.00548933
-0.00545048
-0.00544232
-0.00544647
-0.00544568
-0.00542584
-0.00537936
-0.00530537
-0.00520555
-0.00508032
-0.00493183
-0.0047624
-0.0045825
-0.00440705
-0.00424611
-0.00410246
-0.00399496
-0.00393857
-0.00393036
-0.00398181
-0.00407751
-0.00423155
-0.00443023
-0.00466393
-0.0049131
-0.00515342
-0.00535741
-0.00549246
-0.00552708
-0.00543575
-0.00520172
-0.00480326
-0.0042291
-0.00349421
-0.00261713
-0.00163475
-0.000622567
0.012215
0.0086058
0.00496604
0.00468774
0.00553913
0.00619447
0.00653795
0.00669159
0.00677935
0.00682248
0.00676688
0.00650478
0.00592838
0.00494285
0.00340423
0.00114533
-0.00183913
-0.00533305
-0.00716705
-0.0075302
-0.00711754
-0.00651827
-0.00608469
-0.00595391
-0.00582892
-0.00574564
-0.00572198
-0.00571601
-0.00569475
-0.00564248
-0.0055584
-0.00544567
-0.00530673
-0.00514441
-0.00495896
-0.00476534
-0.0045714
-0.00439053
-0.00423916
-0.0041013
-0.00401511
-0.00398137
-0.00399947
-0.00409565
-0.00424966
-0.00445824
-0.00470721
-0.00498479
-0.00526076
-0.005509
-0.00569569
-0.00578718
-0.00575257
-0.00556416
-0.00519402
-0.00463083
-0.00386955
-0.00294015
-0.00184646
-0.000654622
0.0132664
0.00922991
0.005287
0.00520005
0.00618057
0.0068873
0.00728068
0.00752366
0.00773975
0.007938
0.0080526
0.00793821
0.0074595
0.00637484
0.00452832
0.00120629
-0.00271814
-0.0101735
-0.0127236
-0.0118722
-0.00950437
-0.00754814
-0.00645005
-0.0063863
-0.00611752
-0.00593172
-0.00584797
-0.00580036
-0.00575168
-0.00569041
-0.00560998
-0.00550641
-0.00537935
-0.00523151
-0.00507324
-0.00489631
-0.00471175
-0.00453069
-0.0043579
-0.0042311
-0.00413695
-0.00408873
-0.0040954
-0.00416795
-0.00430389
-0.00449991
-0.00474527
-0.00502516
-0.00531449
-0.00558621
-0.00580556
-0.00593675
-0.00594308
-0.00579271
-0.00545612
-0.00491756
-0.0041585
-0.00319644
-0.00204024
-0.000720717
0.0141874
0.00975944
0.00561396
0.00562919
0.00672846
0.00751535
0.00797941
0.00832828
0.00869343
0.00909263
0.00944442
0.00960883
0.00940714
0.00846409
0.00653655
0.000436414
-0.0040706
-0.00984611
-0.00658144
-0.00626085
-0.00600662
-0.00589243
-0.00581995
-0.00578609
-0.00575064
-0.00570513
-0.00564273
-0.00556034
-0.00545804
-0.00533704
-0.00519766
-0.00504204
-0.00487804
-0.00471384
-0.00455849
-0.00442755
-0.0043264
-0.0042649
-0.00425256
-0.00429807
-0.00440456
-0.00457144
-0.00479141
-0.00505156
-0.00532972
-0.00559877
-0.00582438
-0.00597079
-0.00599844
-0.00587654
-0.00557043
-0.00505909
-0.00431814
-0.00334867
-0.00217152
-0.000776006
0.014956
0.0101909
0.0058958
0.00598343
0.00718668
0.00805691
0.00860022
0.00906166
0.00958678
0.0102148
0.0108544
0.0114291
0.0116798
0.0113702
0.00961435
0.004659
-0.00596427
-0.00583041
-0.00577284
-0.00575157
-0.00573159
-0.00570337
-0.0056613
-0.00560346
-0.00552931
-0.00543886
-0.00533131
-0.00520917
-0.00507711
-0.00494106
-0.00480877
-0.00468929
-0.00459018
-0.00452013
-0.00448805
-0.00450214
-0.0045679
-0.00468867
-0.00485989
-0.00507241
-0.00530755
-0.00554087
-0.00574215
-0.00587707
-0.00590781
-0.00579399
-0.00550901
-0.00502409
-0.00431523
-0.00336649
-0.00220269
-0.000783547
0.015551
0.0105183
0.00611645
0.0062612
0.00754854
0.00848876
0.00910697
0.00967131
0.0103534
0.0112005
0.0121538
0.0131604
0.0140126
0.0145968
0.0133629
0.0103413
-0.00577721
-0.00572093
-0.00570505
-0.00570572
-0.00570429
-0.00569643
-0.00567828
-0.0056485
-0.00560628
-0.00555104
-0.00548382
-0.00540443
-0.00531413
-0.00521642
-0.00511828
-0.00502391
-0.00493846
-0.00486819
-0.00481996
-0.00480077
-0.00481668
-0.00487201
-0.00496771
-0.00509972
-0.00525295
-0.00540863
-0.00554794
-0.00563824
-0.00564108
-0.00552021
-0.00524245
-0.00478377
-0.00412094
-0.00322171
-0.00210546
-0.000708076
0.0159565
0.0107385
0.006268
0.00645396
0.00779941
0.00878992
0.00946553
0.0101098
0.0109175
0.0119425
0.0131683
0.0145466
0.01599
0.0172839
0.0176149
-0.00564955
-0.00565021
-0.0056657
-0.00568242
-0.00569579
-0.00570366
-0.00570468
-0.00569845
-0.00568469
-0.00566304
-0.00563302
-0.00559401
-0.00554329
-0.00549244
-0.00543646
-0.0053765
-0.00531511
-0.00525548
-0.00520194
-0.00515928
-0.00513088
-0.00512083
-0.00513173
-0.00516559
-0.00520966
-0.00524663
-0.00525081
-0.00519131
-0.00503361
-0.00474986
-0.00431742
-0.00371388
-0.0028918
-0.00185939
-0.000509478
0.0161613
0.010849
0.00634502
0.00655285
0.00792736
0.00894464
0.00965071
0.0103399
0.0112155
0.0123432
0.0137214
0.0153368
0.017151
0.0190262
0.0204167
-0.00559055
-0.00561714
-0.0056497
-0.00568311
-0.00571608
-0.00574805
-0.00577902
-0.00580914
-0.00583781
-0.00586464
-0.00588874
-0.00590892
-0.00592472
-0.00591997
-0.00590963
-0.00588257
-0.00583681
-0.00577073
-0.0056835
-0.00557682
-0.00545764
-0.0053308
-0.00520192
-0.00508407
-0.00496208
-0.00483694
-0.00469978
-0.00453545
-0.00432253
-0.00402973
-0.0036198
-0.00307688
-0.00233698
-0.00145865
-0.000177036
0.01616
0.0108484
0.00634471
0.00655243
0.00792681
0.00894398
0.00964998
0.0103391
0.0112145
0.0123419
0.01372
0.015335
0.017149
0.0190238
0.0204131
-0.00561828
-0.00564007
-0.00567341
-0.00571404
-0.00576062
-0.00581296
-0.00587146
-0.00593618
-0.00600686
-0.00608305
-0.00616268
-0.00624231
-0.00631678
-0.00637815
-0.00640987
-0.00641818
-0.00639027
-0.00631887
-0.00619958
-0.00603151
-0.0058186
-0.00556726
-0.0052865
-0.00499542
-0.00469375
-0.00438482
-0.00407858
-0.00377044
-0.00344962
-0.0030966
-0.00269293
-0.00223073
-0.00160342
-0.000866532
0.000128653
0.0159526
0.0107367
0.00626707
0.00645272
0.00779778
0.00878798
0.00946335
0.0101073
0.0109146
0.0119389
0.013164
0.014541
0.0159826
0.0172724
0.0175935
-0.0057187
-0.00570285
-0.00572531
-0.0057671
-0.00582272
-0.00589172
-0.00597468
-0.00607222
-0.00618456
-0.00630984
-0.00644438
-0.00658229
-0.00671506
-0.00683073
-0.00691495
-0.0069551
-0.00694339
-0.00686554
-0.00671279
-0.006482
-0.0061737
-0.00579681
-0.00536609
-0.00489688
-0.00441339
-0.00392372
-0.00345097
-0.00300395
-0.00258503
-0.00218708
-0.0017878
-0.00134106
-0.000920731
-0.000401296
0.000297005
0.0155447
0.0105154
0.00611493
0.00625922
0.00754588
0.0084856
0.00910343
0.00966724
0.0103486
0.0111946
0.0121465
0.0131509
0.0139994
0.0145781
0.0133288
0.0102881
-0.00583003
-0.00576741
-0.00575537
-0.00577716
-0.00582125
-0.00588573
-0.00597072
-0.00607718
-0.00620582
-0.00635617
-0.00652558
-0.00670886
-0.0068978
-0.00708084
-0.00724282
-0.00736774
-0.00743729
-0.00743613
-0.00734726
-0.00715908
-0.00686635
-0.00647075
-0.00598241
-0.00542063
-0.0048067
-0.00416953
-0.00352925
-0.00291796
-0.00235926
-0.00186517
-0.00144358
-0.0010887
-0.000784653
-0.000510265
-0.000259165
0.00027756
0.0149475
0.0101869
0.00589375
0.0059808
0.00718307
0.00805265
0.00859542
0.0090562
0.00958028
0.0102068
0.0108444
0.0114163
0.0116624
0.011346
0.00957681
0.00459412
-0.00599566
-0.00584746
-0.00579563
-0.00580941
-0.00585709
-0.0059322
-0.00603363
-0.00616228
-0.00631874
-0.00650213
-0.00670899
-0.00693266
-0.00716292
-0.00738598
-0.00758166
-0.00773095
-0.00781844
-0.00781696
-0.00770895
-0.00748151
-0.00712962
-0.00665703
-0.00607596
-0.00541026
-0.00469111
-0.00395076
-0.00320993
-0.00250961
-0.00188735
-0.00135697
-0.000935464
-0.000624532
-0.000418875
-0.000265353
-0.000109141
0.000141965
0.0141771
0.00975451
0.00561144
0.00562603
0.00672407
0.00751015
0.00797356
0.00832164
0.00868556
0.00908308
0.00943251
0.00959367
0.00938715
0.00843663
0.00649806
0.000365435
-0.00416306
-0.00996777
-0.00659878
-0.00626073
-0.00599736
-0.00586526
-0.00580466
-0.00581457
-0.00586664
-0.00595394
-0.00607235
-0.00622156
-0.00640196
-0.00661243
-0.0068484
-0.00710174
-0.00736014
-0.00760716
-0.00782225
-0.00798526
-0.00806883
-0.00805311
-0.00791767
-0.00764885
-0.0072437
-0.00670945
-0.00606031
-0.00532423
-0.00454179
-0.00374501
-0.00295873
-0.00222621
-0.00158578
-0.00105552
-0.000651294
-0.000373032
-0.000210385
-0.000116271
-4.77331e-05
4.69059e-05
0.0132548
0.00922414
0.00528409
0.00519649
0.00617559
0.00688138
0.007274
0.00751612
0.00773089
0.00792736
0.00803949
0.00792189
0.00743853
0.00634758
0.00449157
0.0011536
-0.00279456
-0.0102889
-0.0128672
-0.0120223
-0.00962083
-0.00759968
-0.00645514
-0.00637319
-0.00607851
-0.0058659
-0.00579544
-0.00580769
-0.00586424
-0.00595961
-0.00608983
-0.0062537
-0.00645064
-0.00667912
-0.00693218
-0.0072006
-0.00747009
-0.0077217
-0.00793665
-0.00809142
-0.0081582
-0.00811599
-0.0079466
-0.0076379
-0.00719057
-0.00661656
-0.00593093
-0.00516491
-0.00436396
-0.0035553
-0.00277493
-0.00205621
-0.00143033
-0.000922685
-0.000541924
-0.000284786
-0.000137267
-6.14675e-05
-2.89937e-05
1.064e-05
0.0122024
0.00859941
0.00496282
0.00468392
0.00553379
0.00618809
0.00653072
0.0066835
0.00676991
0.00681133
0.0067533
0.00648837
0.00590795
0.00491783
0.00337237
0.00110393
-0.00189384
-0.0054032
-0.00724879
-0.00761017
-0.00718185
-0.0065554
-0.00609673
-0.00594795
-0.00579753
-0.00569134
-0.0056856
-0.00574798
-0.00584458
-0.00596093
-0.00610141
-0.00626835
-0.00646709
-0.00669949
-0.00695256
-0.00721628
-0.00747571
-0.0077136
-0.00790268
-0.00802704
-0.00806126
-0.00798304
-0.00777898
-0.00743977
-0.00696947
-0.00638503
-0.0056992
-0.00494922
-0.00417381
-0.00339963
-0.00266585
-0.00199151
-0.0014053
-0.000931014
-0.00057241
-0.000323479
-0.000171023
-8.68426e-05
-4.80775e-05
-1.00971e-05
0.011035
0.00788147
0.00466978
0.00409364
0.0048104
0.0054578
0.0057709
0.00585339
0.00584031
0.00577345
0.00561475
0.0052912
0.00472247
0.00385367
0.00260906
0.000939174
-0.00105243
-0.00304436
-0.00467051
-0.00560591
-0.00590145
-0.00581782
-0.00562298
-0.00550053
-0.00545282
-0.00544783
-0.00548481
-0.00555897
-0.00566144
-0.00578803
-0.00594202
-0.00612264
-0.00633103
-0.0065651
-0.00681443
-0.007064
-0.00729799
-0.00750004
-0.00765778
-0.00774818
-0.00774745
-0.00763745
-0.00741005
-0.00706164
-0.00659804
-0.00603869
-0.00539601
-0.00469917
-0.00399139
-0.00329734
-0.00263508
-0.00202344
-0.00149152
-0.00105423
-0.000713618
-0.000462787
-0.000289256
-0.000172688
-9.81014e-05
-3.22706e-05
0.00976845
0.00712387
0.00417789
0.00352044
0.00412166
0.0047218
0.00500258
0.00503649
0.00495877
0.00482571
0.00462095
0.00428756
0.00377343
0.00302896
0.00204526
0.000808431
-0.000570787
-0.00201525
-0.00339216
-0.00435382
-0.00480801
-0.00491619
-0.00486064
-0.00480978
-0.00481716
-0.00486927
-0.004949
-0.00505232
-0.0051797
-0.00533112
-0.00550649
-0.00570448
-0.005923
-0.0061589
-0.00640318
-0.00664189
-0.00685591
-0.00703743
-0.00717004
-0.00723306
-0.00720975
-0.00708817
-0.00686369
-0.00653712
-0.006115
-0.00561318
-0.00505146
-0.00444743
-0.00383164
-0.00323125
-0.00265701
-0.00212287
-0.0016515
-0.0012524
-0.000927495
-0.000670706
-0.000470198
-0.000312228
-0.000177775
-5.51694e-05
0.00840911
0.00626483
0.00363392
0.00296814
0.00345093
0.00397979
0.00422786
0.00423503
0.00412521
0.00396088
0.00374486
0.00343088
0.00298704
0.00237275
0.00160239
0.000672681
-0.000358204
-0.001452
-0.00248851
-0.00328804
-0.0037257
-0.00389564
-0.00394497
-0.00397334
-0.00402853
-0.00411186
-0.00421462
-0.00433396
-0.00447165
-0.00463068
-0.00481202
-0.00501401
-0.00523336
-0.00546646
-0.00570685
-0.00594369
-0.00616532
-0.00634798
-0.00647399
-0.00653081
-0.00650981
-0.00640478
-0.00621331
-0.00593694
-0.00558203
-0.00516173
-0.00469101
-0.00418691
-0.00367118
-0.00316298
-0.0026746
-0.0022182
-0.00180738
-0.00144853
-0.00114295
-0.000887125
-0.000669017
-0.000481426
-0.000293146
-9.94506e-05
0.00698341
0.00532138
0.00305616
0.00242065
0.00278353
0.0032344
0.00345448
0.00345283
0.00333496
0.00316533
0.00295942
0.00268397
0.00231654
0.00182873
0.00123138
0.000529049
-0.000245374
-0.00104557
-0.00178968
-0.0023833
-0.0027694
-0.00297335
-0.00306879
-0.00313299
-0.00321247
-0.00330885
-0.0034165
-0.00353517
-0.00366802
-0.0038178
-0.00398799
-0.0041812
-0.00439768
-0.00463056
-0.00487485
-0.00512544
-0.00536643
-0.00556643
-0.00570654
-0.00577902
-0.00578124
-0.00571179
-0.00556943
-0.00535537
-0.0050744
-0.00473576
-0.00435203
-0.00393719
-0.00350617
-0.00307491
-0.00265578
-0.00225854
-0.00189222
-0.00156141
-0.00126631
-0.00100483
-0.000770716
-0.00056544
-0.00037244
-0.000170615
0.0055244
0.00428858
0.00243862
0.00186351
0.00211479
0.00248908
0.00268644
0.00268846
0.00257931
0.00242318
0.00224274
0.00201759
0.00172921
0.00135862
0.000910501
0.000394615
-0.000163939
-0.000726165
-0.00124407
-0.00167188
-0.00198081
-0.00217386
-0.00228756
-0.00236712
-0.0024413
-0.00252085
-0.00261057
-0.00271204
-0.0028282
-0.00296135
-0.00311295
-0.00328883
-0.00350069
-0.00375065
-0.00402018
-0.00430247
-0.00458454
-0.00482783
-0.00501087
-0.00512723
-0.00517877
-0.00516829
-0.00509601
-0.00496227
-0.0047695
-0.00452388
-0.0042335
-0.00390777
-0.00355609
-0.00318911
-0.00281531
-0.00244223
-0.00207667
-0.00172395
-0.0013871
-0.00106515
-0.000755657
-0.000454716
-0.000175055
1.35192e-05
0.00408321
0.00319209
0.0017962
0.00130194
0.00145162
0.00174725
0.00192048
0.00193163
0.00184346
0.00171592
0.00157407
0.00140715
0.00119969
0.000938942
0.00062696
0.000274425
-9.9895e-05
-0.000471538
-0.000814845
-0.00110674
-0.00133079
-0.00148423
-0.00158241
-0.00164894
-0.00170476
-0.00176316
-0.00182952
-0.00190528
-0.00199386
-0.00210084
-0.00222907
-0.00237735
-0.00255766
-0.00282022
-0.00317654
-0.00354079
-0.00389876
-0.00423464
-0.00451621
-0.0047288
-0.00487368
-0.00495479
-0.00497539
-0.00493864
-0.00485086
-0.00471937
-0.00455322
-0.00436013
-0.00414836
-0.00392409
-0.00369263
-0.00345638
-0.00321598
-0.00296964
-0.0027116
-0.00243365
-0.00211723
-0.00174049
-0.00126165
-0.000625189
0.00235148
0.00204323
0.00116939
0.000767989
0.000823392
0.00102392
0.0011559
0.00117228
0.00111362
0.00102737
0.000935221
0.000832208
0.000707097
0.000551751
0.000367707
0.000162405
-5.16724e-05
-0.000263934
-0.000462491
-0.000633865
-0.000768965
-0.000865131
-0.000928095
-0.000969791
-0.00100277
-0.00103666
-0.00107467
-0.00111879
-0.00117141
-0.00124276
-0.00134547
-0.00148686
-0.00162749
-0.00172787
-0.00185562
-0.00206543
-0.00221128
-0.00223661
-0.00217154
-0.00205807
-0.00191621
-0.00174974
-0.00155786
-0.0013436
-0.00111227
-0.000871102
-0.000625558
-0.000382362
-0.000146201
7.66616e-05
0.000283193
0.000469483
0.000634734
0.000776847
0.000894667
0.000984791
0.00103345
0.00101275
0.000869603
0.00049402
0.000753103
0.000739525
0.000438132
0.000256764
0.000255853
0.000332614
0.000390536
0.000400819
0.000378737
0.000345809
0.000312586
0.000277269
0.000235354
0.000183126
0.000122047
5.37326e-05
-1.57847e-05
-8.4601e-05
-0.000151198
-0.000209056
-0.00025476
-0.000287779
-0.000308936
-0.000322812
-0.000332772
-0.000343474
-0.000354704
-0.000368578
-0.000383301
-0.000406106
-0.000448549
-0.000570947
-0.000889406
-0.00157027
-0.00276134
-0.00408706
-0.00536277
-0.00654329
-0.00762926
-0.00862238
-0.00951492
-0.0102935
-0.0109416
-0.0114458
-0.0117967
-0.011992
-0.0120326
-0.0119265
-0.0116829
-0.011318
-0.0108454
-0.0102843
-0.00964437
-0.00894095
-0.00816557
-0.00731647
-0.00633666
-0.00518027
-0.00368847
-0.00176522
)
;

boundaryField
{
    upstream
    {
        type            fixedValue;
        value           uniform 0;
    }
    downstream
    {
        type            fixedValue;
        value           uniform 0;
    }
    upANDdown
    {
        type            fixedValue;
        value           uniform 0;
    }
    frontAndBack
    {
        type            empty;
    }
    cylinder
    {
        type            zeroGradient;
    }
}


// ************************************************************************* //
