/*--------------------------------*- C++ -*----------------------------------*\
| =========                 |                                                 |
| \\      /  F ield         | OpenFOAM: The Open Source CFD Toolbox           |
|  \\    /   O peration     | Version:  2.3.0                                 |
|   \\  /    A nd           | Web:      www.OpenFOAM.org                      |
|    \\/     M anipulation  |                                                 |
\*---------------------------------------------------------------------------*/
FoamFile
{
    version     2.0;
    format      ascii;
    class       volScalarField;
    location    "0.066";
    object      alpha.water;
}
// * * * * * * * * * * * * * * * * * * * * * * * * * * * * * * * * * * * * * //

dimensions      [0 0 0 0 0 0 0];

internalField   nonuniform List<scalar> 
725
(
1
1
1
1
1.00002
1
1
1
1
0.999977
1
1
1
1
0.999967
1
1
1
1
1.00003
1
1
1
1
1.00001
1
0.999998
0.780544
0.0919828
0.0193464
0.243678
0.744712
0.999814
0.999815
0.999813
0.999848
0.999852
0.999857
0.999852
0.999853
0.999864
0.999883
0.999906
0.999924
0.999959
1
1.00001
1.00001
1.00003
1.00003
1.00002
0.926381
0.18599
0.000530259
0.00053578
0.00049801
0.041496
0.64277
0.999789
0.999772
0.999946
0.999937
0.999861
0.999722
0.999498
0.99942
0.999431
0.999998
0.984498
0.273472
0.999999
0.999997
0.718811
0.0661884
0.0188413
0.0194363
0.815668
0.999805
0.999807
0.999641
0.999806
0.999826
0.999875
0.999887
0.999877
0.999857
0.999836
0.999822
0.999821
0.999831
0.999852
0.999877
0.999895
0.999948
1.00002
1.00002
0.928039
0.185397
0.000500365
0.000498334
0.000498046
0.0456064
0.657843
0.999837
0.999797
0.999884
0.999884
0.999879
0.999872
0.999891
0.999807
0.999723
1
0.95352
0.172483
0.943812
0.988071
0.607302
0.0376548
0.0185076
0.0393656
0.781604
0.999798
0.999798
0.999687
0.99972
0.999789
0.999864
0.999925
0.999906
0.999902
0.999898
0.999892
0.999884
0.999879
0.999879
0.999883
0.999886
0.999939
1.00002
1.00001
0.927264
0.185992
0.000500945
0.000498496
0.000498056
0.0199659
0.614574
0.999913
0.99991
0.999865
0.999849
0.999842
0.999831
0.99982
0.999863
0.99978
1
0.873993
0.100435
0.585086
0.792654
0.581055
0.0365052
0.0183608
0.0267452
0.588709
0.999599
0.999799
0.998749
0.999021
0.999819
0.999856
0.999859
0.999862
0.999872
0.999936
0.999919
0.99991
0.999905
0.999903
0.999901
0.999899
0.99994
1.00002
1.00001
0.925682
0.18732
0.000505026
0.000501068
0.000498116
0.0147139
0.653222
0.999865
0.999821
0.999817
0.999813
0.999808
0.999793
0.999776
0.999721
0.999676
0.999999
0.861527
0.0968045
0.327299
0.705714
0.529036
0.0570976
0.0175816
0.0254178
0.580015
0.99991
0.999613
0.998644
0.998692
0.99929
0.999798
0.999891
0.99989
0.999876
0.999868
0.999865
0.999876
0.999941
0.999924
0.999915
0.999917
0.999942
0.999978
1
0.920751
0.187836
0.000510798
0.000505858
0.000501128
0.0132523
0.604916
0.999839
0.999856
0.999853
0.999776
0.999762
0.999744
0.999727
0.999693
0.999642
0.999999
0.861197
0.095793
0.187759
0.704149
0.491388
0.0416129
0.0161921
0.0157563
0.524067
0.999911
0.996065
0.999169
0.999821
0.999373
0.999799
0.999921
0.999907
0.999896
0.999885
0.999881
0.999886
0.999892
0.999898
0.999902
0.999917
0.999926
1.00012
1.00006
0.917761
0.189483
0.000529003
0.000512818
0.000534228
0.00178744
0.595399
0.998154
0.999631
0.999641
0.999601
0.999649
0.999668
0.999687
0.99966
0.999613
0.999999
0.913693
0.097781
0.300139
0.69606
0.51988
0.0308027
0.0146782
0.0141893
0.501128
0.999913
0.995998
0.999089
1.00007
0.999507
0.999673
0.999841
0.999886
0.999892
0.999888
0.999884
0.999885
0.999889
0.999893
0.999899
0.999913
0.999922
1.00009
1.00006
0.919074
0.187716
0.000695142
0.000567333
0.00110317
0.0282025
0.623137
0.998171
0.999357
0.999495
0.999536
0.999586
0.99961
0.999637
0.999619
0.999576
1
0.922913
0.120272
0.36053
0.554357
0.465548
0.0534306
0.0130347
0.0134812
0.486202
0.999914
0.995997
0.999287
0.999829
0.999525
0.999682
0.999833
0.999877
0.99989
0.999889
0.999887
0.999887
0.999889
0.999893
0.999898
0.999913
0.999927
1.00011
1.00006
0.920375
0.184311
0.0016333
0.00178493
0.00179994
0.0546997
0.652401
0.998161
0.999777
0.999627
0.999526
0.999546
0.999564
0.999585
0.999576
0.999539
1
0.93777
0.138346
0.341973
0.64986
0.437492
0.0444439
0.0117503
0.0133004
0.489395
0.999914
0.995996
0.999476
0.999859
0.999547
0.999664
0.999814
0.999866
0.999879
0.999886
0.99989
0.999891
0.999894
0.999897
0.999902
0.999914
0.999932
1.00009
1.00005
0.918546
0.184985
0.00147131
0.00276449
0.0017867
0.11295
0.754445
0.998821
0.999573
0.99948
0.999471
0.99951
0.999531
0.999545
0.999541
0.999507
1.00001
0.950126
0.155066
0.344125
0.705367
0.46912
0.0307516
0.010953
0.0124004
0.486531
0.999915
0.995996
0.99971
0.999891
0.999559
0.99964
0.999792
0.999854
0.999871
0.999879
0.999883
0.999889
0.999895
0.999899
0.999903
0.999913
0.999933
1.00005
1.00003
0.914647
0.188399
0.000909541
0.000918392
0.000630199
0.0517491
0.668608
0.998091
0.999334
0.99943
0.999445
0.999528
0.999534
0.999531
0.999521
0.999485
1
0.961612
0.198754
1
1
1
1.00001
1.00001
1
1
1
1.00001
1
1
1
1
1
0.999957
1
1
1
1
1.00002
1
1
1
0.999995
0.999992
0.743968
0.744842
0.417545
0.0274536
0.0104484
0.0104939
0.466124
0.999909
0.999303
0.999952
0.999905
0.99956
0.999616
0.99977
0.999843
0.999863
0.99986
0.999918
0.999952
0.99992
0.999917
0.999912
0.999915
0.999926
1.00001
1.00001
0.908141
0.190756
0.000520767
0.000504768
0.000502521
0.045363
0.672476
0.99964
0.999551
0.999501
0.999716
0.99967
0.999629
0.999585
0.99953
0.999475
1
0.982898
0.268464
0.91831
0.880315
0.268839
0.0104489
0.0102787
0.010407
0.482874
0.994907
1
1.00006
0.999914
0.99947
0.999443
0.99966
0.999793
0.999842
0.999857
0.999863
0.999867
0.99987
0.999873
0.999876
0.999883
0.999912
1.00004
1.00003
0.90002
0.194493
0.000505086
0.000502187
0.000501441
0.000502039
0.579847
0.999893
0.999936
0.999821
0.999703
0.999633
0.999581
0.999533
0.999484
0.999434
1
0.984739
0.23273
0.999981
0.969735
0.201069
0.0102677
0.0102776
0.0119576
0.495103
0.969521
0.999988
0.99982
0.999781
0.999402
0.999347
0.99961
0.999773
0.999824
0.999833
0.999834
0.999837
0.999843
0.999853
0.999864
0.999878
0.999913
1.00003
1.00001
0.891801
0.197275
0.000503452
0.000501239
0.00050081
0.0112877
0.606057
0.999634
0.999784
0.999667
0.999614
0.999556
0.999499
0.999453
0.999435
0.999439
1
0.9695
0.216008
1
0.981888
0.215929
0.010264
0.0102705
0.0271016
0.512193
0.970376
0.999876
0.999708
0.999623
0.999496
0.999701
0.999838
0.99985
0.999839
0.999842
0.999857
0.999877
0.999897
0.999916
0.999931
0.999946
0.999983
1.00004
1.00001
0.885074
0.200594
0.000505769
0.000503391
0.000500719
0.000500714
0.558998
0.999569
0.999704
0.999677
0.999674
0.999685
0.9997
0.999709
0.999699
0.99961
0.999999
0.906534
0.11045
0.999998
0.995145
0.240224
0.010264
0.0102645
0.0261115
0.526195
0.965701
0.99977
0.999602
0.999601
0.999713
0.999836
0.999974
1.00001
1.00001
1.00001
1.00002
1.00002
1.00002
1.00002
1.00002
1.00002
1.00002
1.00003
1
0.87901
0.202384
0.000551769
0.000593201
0.000500878
0.000500711
0.567398
0.99971
0.999798
0.999947
1.00002
1.00003
1.00002
0.999979
0.999912
0.999645
0.999997
0.83471
0.123038
)
;

boundaryField
{
    AirInlet
    {
        type            fixedValue;
        value           uniform 0;
    }
    WaterInlet
    {
        type            fixedValue;
        value           uniform 1;
    }
    ChannelWall
    {
        type            zeroGradient;
    }
    Outlet
    {
        type            inletOutlet;
        inletValue      uniform 0;
        value           nonuniform List<scalar> 
15
(
0
0
0.100435
0.0968045
0.095793
0.097781
0.120272
0.138346
0
0
0
0
0
0.11045
0.123038
)
;
    }
    FrontAndBack
    {
        type            empty;
    }
}


// ************************************************************************* //
