/*--------------------------------*- C++ -*----------------------------------*\
| =========                 |                                                 |
| \\      /  F ield         | OpenFOAM: The Open Source CFD Toolbox           |
|  \\    /   O peration     | Version:  2.3.0                                 |
|   \\  /    A nd           | Web:      www.OpenFOAM.org                      |
|    \\/     M anipulation  |                                                 |
\*---------------------------------------------------------------------------*/
FoamFile
{
    version     2.0;
    format      ascii;
    class       volScalarField;
    location    "0.066";
    object      p;
}
// * * * * * * * * * * * * * * * * * * * * * * * * * * * * * * * * * * * * * //

dimensions      [1 -1 -2 0 0 0 0];

internalField   nonuniform List<scalar> 
725
(
-273.564
-307.414
-337.834
-211.064
-336.802
-280.228
-307.581
-338.822
-220.721
-399.327
-283.228
-309.733
-345.499
-254.955
-508.376
-283.296
-313.704
-354.611
-315.968
-634.837
-279.751
-317.925
-362.068
-364.071
-789.013
303.296
845.978
495.934
-57.0577
23.113
97.5738
94.1458
0.279758
-10.1603
-63.392
-55.2305
-65.9547
-71.9559
-75.6718
-78.0513
-79.9588
-81.3976
-82.8714
-84.296
-85.2465
-86.3228
-87.843
-89.1898
-90.2759
-90.7812
-92.6209
-95.3463
-95.8773
-95.0101
-95.6494
-94.8637
-92.8548
-33.982
-135.119
-242.732
-278.824
-293.595
-309.143
-304.915
-335.417
-275.824
-349.64
-127.685
225.333
183.783
246.068
789.253
290.201
-81.1256
4.15277
-40.6808
54.0204
-7.38677
-10.9986
-65.5637
-59.4402
-67.4566
-72.4082
-75.9008
-78.2817
-80.0688
-81.3279
-82.5072
-83.9515
-85.5006
-86.9568
-88.3907
-89.6015
-90.5916
-90.8613
-91.3266
-91.126
-97.9569
-95.2331
-95.3428
-94.7857
-90.6334
-13.0223
-139.447
-255.158
-283.322
-295.617
-309.773
-307.18
-338.457
-287.526
-383.45
-179.097
-204.78
25.0531
49.0586
729.214
92.6002
-85.115
11.1629
-78.2859
38.478
-50.8477
-25.9135
-75.1607
-65.4147
-69.4853
-73.3128
-75.8784
-78.2479
-80.1149
-81.7907
-83.2118
-84.5499
-85.9351
-87.2363
-88.5623
-89.686
-90.8591
-91.1206
-90.5909
-86.6425
-97.75
-95.551
-94.7153
-94.1356
-95.9764
-188.775
-220.541
-282
-290.334
-298.047
-311.132
-309.08
-341.96
-301.283
-436.749
-335.18
-952.49
187.402
147.757
96.7232
250.96
-91.1755
5.74241
-50.6004
-93.4607
-129.804
-57.128
-85.798
-67.9226
-72.2775
-74.4212
-76.5779
-78.5453
-80.4008
-81.5724
-83.0794
-84.4805
-86.1281
-87.5173
-88.8782
-90.0556
-91.0788
-91.6008
-90.7557
-85.9875
-97.3993
-96.1694
-93.7704
-93.5972
-94.2404
-249.31
-266.38
-314.363
-297.712
-300.69
-312.564
-310.508
-343.415
-309.759
-462.721
-402.8
-1092.51
252.207
2118.33
17.9781
464.799
-50.6731
5.93505
-28.8604
-40.1931
-140.749
-84.1272
-95.8968
-72.6049
-71.2451
-75.6502
-77.077
-78.8446
-80.6081
-81.7746
-83.1296
-84.539
-85.92
-87.4637
-88.9985
-90.3044
-91.5471
-92.3844
-92.414
-90.8611
-92.5143
-97.3645
-92.5188
-92.2779
-55.2261
-1113.36
-384.127
-342.727
-302.691
-302.853
-313.786
-311.077
-340.542
-310.593
-448.925
-393.701
-1179.53
269.97
3823.43
-20.805
505.738
11.0507
12.2338
9.66964
-297.944
-184.272
-101.788
-99.8593
-75.4327
-72.8118
-76.1547
-77.3332
-78.9256
-79.9512
-81.9146
-83.2595
-84.6171
-86.1705
-87.5772
-89.1349
-90.4643
-91.7764
-89.4138
-92.47
-85.1614
-100.196
-98.8793
-91.892
-95.7163
69.6594
-1116.98
-266.123
-341.733
-302.473
-303.204
-315.138
-310.01
-338.748
-302.428
-421.75
-330.365
-1049.61
258.867
3067.91
-318.113
1071.9
89.6875
18.9641
24.7172
-362.131
-203.551
-102.842
-101.078
-67.2862
-73.3925
-76.3757
-77.45
-79.0158
-80.1785
-81.941
-83.2846
-84.6124
-86.103
-87.5668
-89.1422
-90.491
-91.8491
-90.5732
-92.3836
-85.3481
-104.854
-99.6976
-91.9147
-96.3661
-138.894
-447.254
-195.223
-331.658
-302.422
-303.363
-315.559
-309.743
-337.979
-299.565
-410.81
-304.187
-941.15
116.723
3753.75
3698.57
437.251
103.553
35.6297
33.0877
-279.243
-206.814
-104.137
-103.466
-77.4126
-73.8116
-76.6317
-77.5748
-79.0858
-80.2637
-81.9346
-83.3062
-84.6164
-86.1269
-87.5587
-89.1615
-90.5677
-92.0269
-90.112
-92.3661
-87.5659
-103.77
-100.29
-98.6009
-97.879
-126.952
519.301
-118.939
-319.288
-302.208
-303.515
-315.899
-309.606
-337.05
-296.721
-398.784
-275.572
-787.81
33.0416
3706.21
751.642
596.097
13.4297
48.6871
32.9944
-153.436
-187.139
-104.646
-104.364
-79.151
-74.213
-76.8081
-77.699
-79.1553
-80.3435
-82.0416
-83.3271
-84.614
-86.177
-87.7172
-89.2712
-90.6439
-92.1333
-90.8879
-93.0108
-93.0428
-105.591
-101.693
-68.8423
-101.578
1032.78
3114.03
-64.2597
-314.737
-303.075
-303.23
-315.006
-308.419
-336.079
-293.734
-386.278
-246.071
-582.229
-22.3056
3705.88
884.549
318.111
-17.8583
55.8643
32.9015
-58.4193
-169.746
-104.727
-103.72
-80.5323
-74.6404
-77.0276
-77.8389
-79.2125
-80.4205
-82.0711
-83.3534
-84.6134
-86.2077
-87.7442
-89.319
-90.7373
-92.2301
-91.5917
-94.0615
-96.242
-108.251
-102.807
-118.468
-104.176
-179.749
986.168
-111.41
-318.256
-303.804
-302.402
-315.906
-308.542
-334.515
-290.723
-373.823
-218.283
-355.001
-27.5853
312.558
281.496
243.51
267.931
121.068
308.725
284.378
245.181
280.599
166.585
308.31
286.123
247.532
294.392
201.618
310.792
286.483
249.15
298.919
224.498
316.947
285.365
248.778
293.876
231.832
31.891
786.429
150.305
-2.50299
56.6979
40.2507
-68.3083
-152.415
-94.6021
-100.587
-81.1515
-75.9091
-77.3842
-78.2376
-79.3763
-80.6191
-82.1442
-83.3092
-84.3437
-86.2375
-87.78
-89.4272
-90.9543
-92.5957
-93.3297
-96.8325
-99.7872
-106.154
-104.145
-109.972
-103.992
-188.271
-689.15
-316.469
-342.046
-311.147
-314.578
-316.539
-309.552
-333.345
-282.661
-341.71
-149.342
191.155
152.491
-45.5044
828.918
-161.976
5.06379
45.6602
42.2023
-97.9974
-117.917
-79.773
-89.7886
-80.9398
-77.0448
-77.1052
-78.3625
-79.5818
-80.883
-82.3078
-83.8068
-85.2977
-86.6994
-88.1639
-89.6735
-91.1449
-93.2117
-94.92
-98.9579
-105.059
-105.055
-104.966
-107.04
-103.781
-92.8587
-498.755
-331.64
-340.143
-315.896
-315.433
-317.807
-308.655
-332.035
-272.102
-318.847
-120.424
235.819
78.4422
128.244
790.536
-82.6087
13.7555
42.9612
37.4597
-14.3467
-91.2392
-77.3091
-85.5401
-80.9896
-77.526
-76.6596
-78.2947
-79.6612
-80.9818
-82.3072
-83.6628
-85.1463
-86.5749
-88.127
-89.767
-91.4241
-93.7534
-96.2424
-100.725
-107.093
-103.067
-105.236
-105.365
-103.415
-101.658
-302.758
-312.576
-358.699
-321.499
-316.241
-318.437
-308.379
-332.311
-274.078
-343.664
-167.394
-131.196
-11.5357
279.466
667.08
-25.0791
23.8121
43.7421
33.0701
73.7605
-46.2377
-72.7691
-82.2088
-81.2714
-79.1024
-79.015
-79.2411
-80.0679
-81.183
-82.4683
-83.9373
-85.4999
-87.0587
-88.6159
-90.0866
-91.7924
-94.2553
-97.0742
-102.189
-109.003
-101.23
-105.385
-104.426
-103.671
-103.326
-184.63
-202.8
-303.274
-317.037
-316.568
-319.957
-309.979
-335.838
-283.607
-397.245
-299.277
-865.125
136.207
319.229
639.076
24.3409
27.0927
45.2639
31.7417
120.394
-13.6596
-64.0121
-80.8803
-81.8767
-79.2067
-78.6379
-78.6027
-79.3924
-80.5767
-81.8764
-83.3918
-85.0258
-86.6619
-88.2896
-89.8247
-91.6211
-94.3031
-97.5682
-103.136
-109.343
-98.2011
-105.016
-103.73
-103.532
-104.518
-235.18
-272.513
-304.532
-313.89
-315.139
-319.223
-309.196
-337.378
-289.96
-431.842
-379.545
-905.665
100.723
)
;

boundaryField
{
    AirInlet
    {
        type            calculated;
        value           nonuniform List<scalar> 5(6307.79 3164.78 -3952.96 8157.1 7603.96);
    }
    WaterInlet
    {
        type            calculated;
        value           nonuniform List<scalar> 10(-273.562 -280.222 -283.218 -283.282 -279.733 312.54 308.71 308.3 310.786 316.945);
    }
    ChannelWall
    {
        type            calculated;
        value           nonuniform List<scalar> 
110
(
-279.777
-317.955
-362.102
-364.109
-789.055
312.584
281.526
243.544
267.969
121.11
316.92
285.334
248.744
293.838
231.79
319.185
639.032
24.3303
27.0922
45.2634
31.7405
120.371
-13.7022
-64.0562
-80.9244
-81.9209
-79.2508
-78.6821
-78.6468
-79.4366
-80.6209
-81.9206
-83.4359
-85.07
-86.7061
-88.3337
-89.8688
-91.6653
-94.3473
-97.6123
-103.18
-109.382
-98.2101
-105.016
-103.73
-103.532
-104.518
-235.205
-272.557
-304.576
-313.934
-315.183
-319.267
-309.241
-337.422
-290.004
-431.886
-379.59
-905.702
100.718
-273.538
-307.383
-337.799
-211.025
-336.76
303.34
846.022
495.968
-57.0536
23.1139
97.5846
94.1787
0.323895
-10.1162
-63.3479
-55.1864
-65.9106
-71.9117
-75.6277
-78.0072
-79.9147
-81.3535
-82.8272
-84.2519
-85.2024
-86.2787
-87.7988
-89.1456
-90.2317
-90.7371
-92.5767
-95.3054
-95.869
-95.01
-95.6493
-94.8636
-92.853
-33.9536
-135.075
-242.688
-278.78
-293.551
-309.099
-304.871
-335.373
-275.78
-349.596
-127.641
225.376
183.795
)
;
    }
    Outlet
    {
        type            calculated;
        value           nonuniform List<scalar> 
15
(
-0.252164
-0.37117
-0.022367
-0.0301931
-0.0384183
-0.0445318
-0.057048
-0.177844
-0.0565709
-0.391439
-0.642036
-0.477667
-0.330005
-0.0944791
-0.116091
)
;
    }
    FrontAndBack
    {
        type            empty;
    }
}


// ************************************************************************* //
