/*--------------------------------*- C++ -*----------------------------------*\
| =========                 |                                                 |
| \\      /  F ield         | OpenFOAM: The Open Source CFD Toolbox           |
|  \\    /   O peration     | Version:  2.3.0                                 |
|   \\  /    A nd           | Web:      www.OpenFOAM.org                      |
|    \\/     M anipulation  |                                                 |
\*---------------------------------------------------------------------------*/
FoamFile
{
    version     2.0;
    format      ascii;
    class       surfaceScalarField;
    location    "0.066";
    object      phi;
}
// * * * * * * * * * * * * * * * * * * * * * * * * * * * * * * * * * * * * * //

dimensions      [0 3 -1 0 0 0 0];

internalField   nonuniform List<scalar> 
1380
(
3.04791e-13
1.95209e-13
2.37676e-13
6.71144e-14
7.82166e-14
1.5946e-13
-6.56776e-13
7.34993e-13
1.82907e-12
-2.48584e-12
5.93107e-13
1.02102e-13
5.50131e-13
1.10091e-13
3.51693e-13
3.57898e-13
-7.51733e-13
1.83842e-12
3.61628e-12
-2.53894e-12
6.82942e-13
-8.08405e-14
6.99044e-13
9.39893e-14
6.60993e-13
3.95948e-13
-1.88906e-13
2.68832e-12
3.76996e-12
-3.42587e-13
6.04822e-13
-1.85662e-13
6.59765e-13
3.90465e-14
8.45308e-13
2.10405e-13
1.84947e-12
1.68416e-12
2.82367e-12
2.79575e-12
3.14338e-13
3.53384e-13
5.63789e-13
2.24795e-12
5.07162e-12
-4.86693e-13
-1.99915e-12
3.09898e-12
-3.58567e-12
4.54588e-13
2.64439e-12
-5.31348e-12
5.76807e-12
-1.11913e-11
5.87786e-12
4.34893e-12
-1.55403e-11
2.78262e-12
1.56631e-12
7.7395e-13
2.00867e-12
1.48215e-13
6.25735e-13
-3.75709e-14
1.85786e-13
1.06413e-13
-1.43984e-13
1.87671e-13
-8.12582e-14
1.79248e-13
8.42347e-15
1.61096e-13
1.8152e-14
1.54235e-13
6.86047e-15
1.51922e-13
2.31291e-15
1.52807e-13
-8.84565e-16
1.49372e-13
3.43492e-15
1.43494e-13
5.87803e-15
1.43615e-13
-1.21181e-16
1.42349e-13
1.26563e-15
1.36544e-13
5.80563e-15
1.28633e-13
7.91091e-15
1.2238e-13
6.25305e-15
1.31539e-13
-9.15912e-15
1.42434e-13
-1.08947e-14
1.90858e-13
-4.84246e-14
4.75441e-14
1.43314e-13
6.01474e-13
-5.5393e-13
7.94249e-13
-1.92774e-13
1.72791e-12
-9.33657e-13
1.03679e-12
6.91112e-13
4.11867e-13
6.24926e-13
3.48553e-13
6.3314e-14
1.99027e-13
1.49526e-13
1.43999e-13
5.5028e-14
1.53539e-13
-9.54068e-15
1.54192e-13
-6.52792e-16
1.60671e-13
-6.47935e-15
1.42524e-13
1.81472e-14
8.06765e-14
6.18476e-14
-1.98791e-13
2.79467e-13
-7.287e-13
5.29909e-13
-4.75228e-12
4.02358e-12
1.62825e-12
-7.39409e-13
-3.79868e-12
9.83344e-13
-5.30843e-12
5.96414e-13
3.03132e-12
-6.34006e-12
1.27045e-11
-6.1323e-12
5.67009e-12
2.75127e-13
-2.19477e-11
2.9995e-12
-1.15806e-12
1.16527e-12
3.84289e-12
6.47727e-14
1.72623e-12
-1.66181e-13
4.16739e-13
1.93365e-13
-5.03529e-13
4.09703e-13
-2.97596e-13
4.32351e-13
-1.42241e-14
4.08188e-13
4.23143e-14
3.99464e-13
1.55852e-14
3.98764e-13
3.01276e-15
3.96812e-13
1.06674e-15
3.92133e-13
8.11475e-15
3.8622e-13
1.17903e-14
3.82408e-13
3.69083e-15
3.79273e-13
4.40035e-15
3.72355e-13
1.27245e-14
3.63317e-13
1.69485e-14
3.66125e-13
3.44512e-15
3.65147e-13
-8.18148e-15
3.19296e-13
3.49566e-14
2.15768e-13
5.5104e-14
2.26132e-13
1.3295e-13
1.29462e-12
-1.62243e-12
2.43851e-12
-1.33666e-12
4.6977e-12
-3.19284e-12
2.46953e-12
2.91928e-12
4.77919e-13
2.61654e-12
5.4328e-13
-2.04686e-15
4.18879e-13
2.73927e-13
3.58158e-13
1.15749e-13
3.84363e-13
-3.57455e-14
4.00378e-13
-1.66679e-14
4.09784e-13
-1.58854e-14
4.07619e-13
2.03123e-14
3.85469e-13
8.39975e-14
3.31873e-13
3.33064e-13
-1.39609e-13
1.00139e-12
-5.5957e-12
9.47967e-12
3.77056e-12
7.42083e-13
-4.88335e-12
-1.0996e-12
-3.46675e-12
4.80728e-12
-2.87556e-12
-5.93792e-13
1.81056e-11
-3.38427e-12
8.46057e-12
-1.27502e-12
-2.40569e-11
2.00715e-12
-4.44023e-12
1.08609e-12
4.76395e-12
-2.73045e-14
2.83963e-12
-1.72426e-13
5.61861e-13
2.46563e-13
-9.22518e-13
5.35552e-13
-5.86586e-13
6.02793e-13
-8.14656e-14
5.88233e-13
5.68743e-14
5.85331e-13
1.84874e-14
5.89138e-13
-7.94178e-16
5.83876e-13
6.32941e-15
5.77004e-13
1.49864e-14
5.72709e-13
1.60846e-14
5.67799e-13
8.60128e-15
5.63512e-13
8.6878e-15
5.58668e-13
1.75679e-14
5.49707e-13
2.59102e-14
5.51252e-13
1.90021e-15
5.06038e-13
3.70325e-14
4.27734e-13
1.1326e-13
2.96695e-13
1.86143e-13
3.47417e-13
8.2228e-14
1.41929e-12
-2.69429e-12
2.33239e-12
-2.24976e-12
2.93368e-12
-3.79414e-12
6.14709e-13
5.23826e-12
3.48262e-13
2.88298e-12
7.26357e-13
-3.80141e-13
5.92017e-13
4.08267e-13
5.32797e-13
1.74969e-13
5.73992e-13
-7.69406e-14
5.93175e-13
-3.58505e-14
6.10058e-13
-3.27687e-14
5.99754e-13
3.06165e-14
6.36153e-13
4.75982e-14
8.42584e-13
1.26633e-13
1.44936e-12
3.94612e-13
6.18689e-12
4.74214e-12
1.77933e-12
4.26371e-12
-6.35131e-12
-1.03748e-12
1.83445e-12
1.47097e-12
-5.38401e-12
2.58373e-12
1.69929e-11
9.87926e-13
1.00564e-11
-1.08794e-12
-2.19811e-11
-4.08984e-13
-5.11918e-12
3.20415e-13
4.03455e-12
-1.25793e-13
3.28584e-12
-2.8979e-15
4.38966e-13
3.45372e-13
-1.27079e-12
6.15125e-13
-8.56339e-13
7.1168e-13
-1.78021e-13
7.17733e-13
5.08221e-14
7.14303e-13
2.19175e-14
7.17551e-13
-4.04235e-15
7.09938e-13
1.39423e-14
7.06001e-13
1.89236e-14
7.05983e-13
1.61018e-14
7.00804e-13
1.37809e-14
6.97732e-13
1.17596e-14
6.93476e-13
2.18241e-14
6.85924e-13
3.34616e-14
6.71123e-13
1.6701e-14
5.96026e-13
1.1213e-13
5.20568e-13
1.88718e-13
4.21003e-13
2.85707e-13
5.18413e-13
-1.51816e-14
1.16556e-12
-3.34144e-12
1.47171e-12
-2.5559e-12
3.3531e-12
-5.67553e-12
4.70109e-12
3.89026e-12
5.23702e-13
7.06037e-12
7.67755e-13
-6.24194e-13
6.50904e-13
5.25117e-13
6.43903e-13
1.8197e-13
7.1032e-13
-1.43357e-13
7.29309e-13
-5.48398e-14
7.50305e-13
-5.37647e-14
7.25803e-13
5.51183e-14
7.77604e-13
-4.20224e-15
9.66874e-13
-6.26373e-14
1.64575e-12
-2.84264e-13
8.72166e-12
-2.33377e-12
-2.44025e-12
1.23008e-12
-2.50978e-12
-2.80409e-12
5.86862e-12
-2.56091e-12
-5.62719e-12
6.05167e-12
8.38028e-12
6.62044e-12
9.48761e-12
8.82915e-13
-1.62436e-11
-1.5594e-12
-2.67687e-12
-4.44859e-13
2.92001e-12
-8.71352e-14
2.92811e-12
2.94465e-13
5.73662e-14
5.26267e-13
-1.50259e-12
7.04566e-13
-1.03464e-12
7.87412e-13
-2.60866e-13
7.96207e-13
4.20272e-14
7.91688e-13
2.64364e-14
7.86648e-13
9.98095e-16
7.83807e-13
1.67826e-14
7.79507e-13
2.32237e-14
7.81746e-13
1.38633e-14
7.7804e-13
1.74863e-14
7.77909e-13
1.18913e-14
7.75322e-13
2.44103e-14
7.68534e-13
4.02497e-14
7.50704e-13
3.45315e-14
6.81021e-13
1.81813e-13
6.46644e-13
2.23095e-13
5.2167e-13
4.10681e-13
5.17726e-13
-1.1237e-14
-2.91611e-13
-2.5321e-12
-3.26143e-12
4.13916e-13
-8.21528e-12
-7.21686e-13
2.75094e-12
-7.07596e-12
2.4719e-13
9.56412e-12
7.59608e-13
-1.13661e-12
7.02987e-13
5.81739e-13
7.19739e-13
1.65218e-13
7.89386e-13
-2.13004e-13
8.01056e-13
-6.65099e-14
8.15994e-13
-6.87031e-14
7.8782e-13
8.32925e-14
8.12691e-13
-2.90733e-14
9.34558e-13
-1.84504e-13
1.62419e-12
-9.73893e-13
6.99506e-12
-7.70464e-12
-5.86791e-12
1.89185e-12
-4.20163e-12
-1.72671e-12
9.48717e-12
8.59149e-13
-8.21304e-12
3.03383e-12
6.2056e-12
2.64853e-12
9.8729e-12
7.84353e-13
-1.43794e-11
-2.78543e-13
-1.61397e-12
-1.19196e-13
2.76066e-12
2.68607e-14
2.78206e-12
1.33581e-13
-4.9354e-14
1.60961e-13
-1.52997e-12
1.68406e-13
-1.04208e-12
1.78738e-13
-2.71198e-13
1.80329e-13
4.04365e-14
1.78724e-13
2.80406e-14
1.77758e-13
1.96444e-15
1.76686e-13
1.78544e-14
1.76248e-13
2.36623e-14
1.76455e-13
1.36565e-14
1.76613e-13
1.73283e-14
1.76453e-13
1.20509e-14
1.76134e-13
2.47295e-14
1.73888e-13
4.24957e-14
1.70122e-13
3.82973e-14
1.59784e-13
1.92151e-13
1.52332e-13
2.30548e-13
8.90277e-14
4.73985e-13
1.76507e-13
-9.87167e-14
-1.52126e-13
-2.20347e-12
-1.43436e-12
1.69615e-12
-3.04016e-12
8.84113e-13
-5.87333e-12
-4.24279e-12
3.20515e-13
3.37028e-12
1.53447e-13
-9.69544e-13
1.6495e-13
5.70236e-13
1.68147e-13
1.6202e-13
1.72695e-13
-2.17552e-13
1.82706e-13
-7.65203e-14
1.69993e-13
-5.599e-14
1.83178e-13
7.01073e-14
1.5813e-13
-4.02525e-15
1.90523e-13
-2.16897e-13
2.83924e-13
-1.06729e-12
1.47194e-12
-8.89266e-12
-6.08676e-12
-2.0923e-14
-3.9807e-12
-8.03247e-13
1.02695e-11
1.84853e-13
-9.20114e-12
3.93625e-12
2.45421e-12
3.05585e-12
1.07533e-11
-6.05973e-13
-1.07176e-11
-3.15845e-13
-1.9041e-12
-1.02455e-13
2.54727e-12
4.07533e-14
2.63885e-12
1.61859e-13
-1.7046e-13
1.73688e-13
-1.5418e-12
1.73311e-13
-1.04171e-12
1.79656e-13
-2.77543e-13
1.8082e-13
3.92728e-14
1.79394e-13
2.94665e-14
1.78153e-13
3.20488e-15
1.77068e-13
1.894e-14
1.76702e-13
2.40276e-14
1.76977e-13
1.3382e-14
1.77284e-13
1.7021e-14
1.77204e-13
1.21314e-14
1.76872e-13
2.5061e-14
1.74598e-13
4.47697e-14
1.71276e-13
4.16195e-14
1.61579e-13
2.01848e-13
1.47597e-13
2.4453e-13
9.01429e-14
5.3144e-13
3.03411e-13
-3.11985e-13
-1.80575e-13
-1.71949e-12
-9.69825e-13
2.4854e-12
-2.39278e-12
2.30707e-12
-6.33038e-12
-3.05189e-13
1.15184e-13
-3.07528e-12
1.22257e-13
-9.76617e-13
1.68341e-13
5.24151e-13
1.70317e-13
1.60045e-13
1.72293e-13
-2.19528e-13
1.82423e-13
-8.66506e-14
1.67363e-13
-4.09301e-14
1.83933e-13
5.35376e-14
1.51068e-13
2.884e-14
1.7731e-13
-2.4314e-13
2.26657e-13
-1.11664e-12
5.97383e-13
-9.26338e-12
-6.27757e-12
-2.04394e-12
-1.73676e-12
8.53853e-13
7.3717e-12
1.1272e-12
-9.47449e-12
3.5678e-12
1.36039e-14
3.11397e-12
1.12071e-11
-8.49468e-13
-6.75412e-12
-3.14765e-13
-2.4388e-12
-8.01329e-14
2.31264e-12
7.20703e-14
2.48665e-12
1.81713e-13
-2.80103e-13
1.89756e-13
-1.54984e-12
1.77663e-13
-1.02961e-12
1.80033e-13
-2.79913e-13
1.80755e-13
3.85509e-14
1.79367e-13
3.08549e-14
1.77977e-13
4.59488e-15
1.76879e-13
2.00375e-14
1.76598e-13
2.4309e-14
1.76999e-13
1.29806e-14
1.77414e-13
1.66061e-14
1.77405e-13
1.21404e-14
1.77132e-13
2.53343e-14
1.74921e-13
4.69802e-14
1.72236e-13
4.43053e-14
1.63775e-13
2.10309e-13
1.42126e-13
2.66178e-13
1.66327e-13
5.07239e-13
1.63185e-13
-3.08843e-13
-1.53624e-13
-1.40268e-12
-5.11282e-13
2.84306e-12
-2.00211e-13
1.996e-12
-1.87782e-12
1.37242e-12
4.84998e-13
-5.43811e-12
1.55872e-13
-6.47491e-13
1.69648e-13
5.10376e-13
1.71776e-13
1.57917e-13
1.71995e-13
-2.19747e-13
1.8117e-13
-9.58254e-14
1.65963e-13
-2.57238e-14
1.82304e-13
3.71972e-14
1.47315e-13
6.38283e-14
1.53043e-13
-2.48867e-13
1.31652e-13
-1.09525e-12
-2.96678e-15
-9.12876e-12
-6.20261e-12
-3.99969e-13
-1.13679e-12
1.69804e-13
6.80193e-12
2.02421e-12
-1.13289e-11
2.33178e-12
-2.93971e-13
2.75406e-12
1.07849e-11
4.92338e-13
-4.49239e-12
-2.10907e-13
-1.73556e-12
-5.38707e-14
2.1556e-12
9.81941e-14
2.33458e-12
2.06946e-13
-3.88855e-13
2.0456e-13
-1.54746e-12
1.81423e-13
-1.00648e-12
1.80065e-13
-2.78555e-13
1.80029e-13
3.8587e-14
1.78705e-13
3.21787e-14
1.77242e-13
6.05744e-15
1.76143e-13
2.11369e-14
1.75954e-13
2.44985e-14
1.76459e-13
1.2475e-14
1.77018e-13
1.60473e-14
1.77109e-13
1.2049e-14
1.76951e-13
2.54929e-14
1.74867e-13
4.9064e-14
1.72481e-13
4.66909e-14
1.66804e-13
2.15986e-13
1.52677e-13
2.80305e-13
1.66889e-13
4.93027e-13
9.03163e-14
-2.3227e-13
-7.41285e-14
-1.23823e-12
-4.30914e-13
3.19985e-12
2.16388e-12
-5.98801e-13
3.56528e-12
-2.89708e-14
1.28853e-12
-3.16135e-12
1.68523e-13
4.72512e-13
1.69568e-13
5.0933e-13
1.72124e-13
1.55361e-13
1.70599e-13
-2.18223e-13
1.79144e-13
-1.0437e-13
1.64161e-13
-1.07404e-14
1.80319e-13
2.10391e-14
1.43638e-13
1.0051e-13
1.28653e-13
-2.33883e-13
1.70099e-14
-9.83607e-13
-6.77818e-13
-8.43393e-12
-6.20717e-12
1.4635e-13
-1.08314e-12
-2.31643e-13
7.17992e-12
-1.26803e-12
-1.02925e-11
1.64178e-12
-3.20379e-12
2.54943e-12
9.87721e-12
7.02975e-13
-2.64593e-12
-1.9859e-13
-8.33994e-13
-3.86049e-14
1.99562e-12
1.43994e-13
2.15198e-12
2.35008e-13
-4.79869e-13
2.14101e-13
-1.52655e-12
1.84616e-13
-9.76991e-13
1.78983e-13
-2.72922e-13
1.78661e-13
3.89091e-14
1.77398e-13
3.34413e-14
1.75927e-13
7.52899e-15
1.74874e-13
2.219e-14
1.74775e-13
2.45975e-14
1.75363e-13
1.18872e-14
1.76006e-13
1.54039e-14
1.76229e-13
1.1826e-14
1.76153e-13
2.55689e-14
1.74273e-13
5.09439e-14
1.72289e-13
4.8675e-14
1.70131e-13
2.18144e-13
1.6774e-13
2.82696e-13
1.32543e-13
5.28223e-13
1.72721e-13
-2.72448e-13
5.15495e-14
-1.11706e-12
-2.55316e-13
3.50671e-12
4.14158e-13
-1.26828e-12
7.62293e-13
-3.77106e-13
6.74206e-13
-3.07327e-12
1.64132e-13
9.82586e-13
1.66051e-13
5.07411e-13
1.71912e-13
1.49501e-13
1.70123e-13
-2.16434e-13
1.76549e-13
-1.10797e-13
1.63611e-13
2.19746e-15
1.76424e-13
8.22653e-15
1.4413e-13
1.32803e-13
1.0834e-13
-1.98093e-13
-5.28098e-14
-8.22457e-13
-1.31019e-12
-7.17655e-12
-5.74725e-12
3.0963e-13
1.9037e-13
3.27144e-13
-1.75141e-14
5.29425e-13
-2.02281e-13
1.52653e-12
-9.97102e-13
-2.96914e-12
4.49567e-12
6.03056e-13
8.73137e-14
6.33983e-13
-4.84412e-14
7.90873e-13
-3.5917e-13
1.31988e-12
-1.52611e-12
-4.00389e-12
2.35464e-12
6.8501e-13
-9.76967e-14
7.01059e-13
-6.44897e-14
6.55388e-13
-3.13499e-13
2.04119e-13
-1.07485e-12
-2.98609e-12
-8.13683e-13
5.95663e-13
-1.9336e-13
5.72658e-13
-4.14846e-14
3.93712e-13
-1.34553e-13
-2.99707e-13
-3.81426e-13
-1.23906e-12
-2.04674e-12
3.0664e-13
2.65155e-13
1.30602e-13
-2.50824e-13
-1.48988e-12
3.17335e-12
2.39177e-13
1.3056e-12
9.04767e-12
-1.13792e-13
-8.87311e-12
1.29758e-11
-1.62934e-11
1.49754e-11
7.8776e-12
1.02151e-12
1.1308e-11
-6.32736e-13
8.20248e-13
3.09637e-13
1.05324e-12
1.13734e-12
1.32427e-12
1.3291e-12
-6.71625e-13
1.07927e-12
-1.27672e-12
8.58874e-13
-7.56598e-13
7.80437e-13
-1.94484e-13
7.77884e-13
4.14614e-14
7.74485e-13
3.68403e-14
7.68008e-13
1.40058e-14
7.65015e-13
2.51834e-14
7.66185e-13
2.34274e-14
7.6753e-13
1.05422e-14
7.72158e-13
1.07763e-14
7.74812e-13
9.17154e-15
7.74955e-13
2.54263e-14
7.71302e-13
5.45963e-14
7.6025e-13
5.97278e-14
7.96905e-13
1.81489e-13
8.17934e-13
2.61667e-13
6.94013e-13
6.52144e-13
7.75983e-13
-3.54417e-13
1.12191e-13
-4.53272e-13
-3.95952e-12
7.57843e-12
-2.84392e-12
-2.38388e-12
-2.64325e-12
-5.77777e-13
-6.57806e-14
-5.65074e-12
3.64281e-13
5.52525e-13
6.96313e-13
1.75379e-13
7.85454e-13
6.03598e-14
7.48023e-13
-1.79003e-13
7.4214e-13
-1.04913e-13
7.52516e-13
-8.17884e-15
7.19049e-13
4.16934e-14
6.81624e-13
1.70228e-13
3.85771e-13
9.77599e-14
-4.3642e-13
-2.66133e-16
-6.42748e-12
-1.18549e-12
-1.98324e-12
2.13055e-12
4.63264e-13
4.88113e-12
6.29709e-12
1.19969e-11
-1.59889e-11
9.23079e-12
-1.35272e-11
8.06595e-12
9.04244e-12
2.06764e-12
1.73063e-11
1.0237e-12
1.86419e-12
1.09467e-12
9.82268e-13
1.59646e-12
8.2249e-13
1.51508e-12
-5.90248e-13
1.09866e-12
-8.60303e-13
7.72815e-13
-4.3075e-13
6.64179e-13
-8.58478e-14
6.68959e-13
3.66813e-14
6.77732e-13
2.80672e-14
6.76432e-13
1.53055e-14
6.78925e-13
2.26906e-14
6.82493e-13
1.98592e-14
6.8468e-13
8.35585e-15
6.89092e-13
6.36434e-15
6.91722e-13
6.54132e-15
6.93015e-13
2.41333e-14
6.97972e-13
4.96387e-14
6.99272e-13
5.84283e-14
7.37908e-13
1.42853e-13
7.40087e-13
2.59488e-13
7.3965e-13
6.52581e-13
7.80353e-13
-3.95121e-13
6.00123e-13
-2.73041e-13
1.15767e-12
7.02088e-12
6.97524e-13
-1.92373e-12
3.50293e-12
-3.38319e-12
4.88577e-13
-2.63638e-12
6.45725e-13
3.95377e-13
6.93497e-13
1.27607e-13
7.25207e-13
2.86494e-14
6.76054e-13
-1.2985e-13
6.5447e-13
-8.33297e-14
6.65116e-13
-1.88247e-14
6.39436e-13
6.73731e-14
5.95949e-13
2.13715e-13
1.80366e-13
5.13344e-13
-8.69665e-13
1.04976e-12
-5.8588e-12
3.80365e-12
9.40191e-13
-6.32067e-13
2.81648e-13
2.53893e-12
3.12609e-12
4.28217e-12
-1.77322e-11
-3.46679e-12
-5.77829e-12
-1.90689e-12
7.48255e-12
2.27221e-13
1.51722e-11
4.07554e-13
1.68386e-12
9.96064e-13
3.93758e-13
1.50197e-12
3.16587e-13
1.29886e-12
-3.87139e-13
8.64402e-13
-4.25846e-13
5.81347e-13
-1.47695e-13
5.01881e-13
-6.38212e-15
5.15321e-13
2.32414e-14
5.29869e-13
1.35192e-14
5.35832e-13
9.34275e-15
5.4299e-13
1.55323e-14
5.50588e-13
1.22617e-14
5.53351e-13
5.59279e-15
5.56797e-13
2.91852e-15
5.60844e-13
2.49387e-15
5.66508e-13
1.84694e-14
5.79991e-13
3.61557e-14
5.95187e-13
4.32318e-14
6.29675e-13
1.08365e-13
6.5501e-13
2.34153e-13
7.02673e-13
6.04918e-13
7.23894e-13
-4.16342e-13
6.40244e-13
-1.8939e-13
2.63307e-12
5.02805e-12
5.91232e-13
1.18114e-13
-1.35202e-12
-1.43994e-12
-1.11244e-13
-3.87716e-12
4.19389e-13
-1.35257e-13
5.95244e-13
-4.82466e-14
6.27539e-13
-3.64661e-15
5.70031e-13
-7.23406e-14
5.35205e-13
-4.8504e-14
5.27945e-13
-1.15651e-14
5.32343e-13
6.2975e-14
5.45144e-13
2.00914e-13
4.0582e-13
6.52668e-13
-1.34542e-13
1.59013e-12
-5.21729e-12
8.8864e-12
3.01552e-12
-1.96952e-12
2.04432e-13
6.03533e-14
1.09622e-12
-8.36202e-12
-9.30979e-12
-1.2825e-11
-1.31533e-12
-8.65503e-12
3.3126e-12
-4.74908e-13
6.99207e-12
1.66406e-13
1.04254e-12
6.51493e-13
-9.13291e-14
9.9881e-13
-3.0731e-14
7.80303e-13
-1.68631e-13
4.73156e-13
-1.18699e-13
3.38889e-13
-1.34276e-14
3.22738e-13
9.769e-15
3.39031e-13
6.94808e-15
3.49036e-13
3.51503e-15
3.55076e-13
3.30202e-15
3.64797e-13
5.81152e-15
3.72681e-13
4.37822e-15
3.76453e-13
1.82059e-15
3.78394e-13
9.77303e-16
3.79861e-13
1.02677e-15
3.9017e-13
8.16033e-15
4.09935e-13
1.63912e-14
4.31903e-13
2.12636e-14
4.84495e-13
5.5773e-14
5.7574e-13
1.42909e-13
7.68394e-13
4.12264e-13
6.22861e-13
-2.70808e-13
5.90241e-13
-1.56772e-13
3.58129e-12
2.037e-12
3.37396e-12
3.25446e-13
2.84964e-12
-9.15619e-13
5.29584e-13
-1.5571e-12
4.72123e-13
-7.77959e-14
4.40775e-13
-1.68988e-14
4.40502e-13
-3.37376e-15
3.89464e-13
-2.13021e-14
3.56607e-13
-1.56474e-14
3.43212e-13
1.83046e-15
3.76938e-13
2.92483e-14
4.48698e-13
1.29154e-13
6.9865e-13
4.02716e-13
1.17751e-12
1.11126e-12
2.27948e-12
7.78443e-12
2.36992e-12
-1.28545e-12
-1.89234e-13
-9.49902e-12
-1.08144e-11
-7.50176e-12
-5.09689e-13
5.32855e-13
4.41526e-13
4.10795e-13
2.42164e-13
1.23465e-13
1.10037e-13
1.19806e-13
1.26754e-13
1.30269e-13
1.33571e-13
1.39383e-13
1.43761e-13
1.45582e-13
1.46559e-13
1.47586e-13
1.55746e-13
1.72137e-13
1.93401e-13
2.49174e-13
3.92082e-13
8.04346e-13
5.33538e-13
3.76767e-13
2.41377e-12
2.73921e-12
1.8236e-12
2.66495e-13
1.88699e-13
1.718e-13
1.68427e-13
1.47125e-13
1.31477e-13
1.33308e-13
1.62556e-13
2.9171e-13
6.94426e-13
1.80569e-12
9.59012e-12
)
;

boundaryField
{
    AirInlet
    {
        type            calculated;
        value           nonuniform List<scalar> 5(-2e-13 -2e-13 -2e-13 -2e-13 -2e-13);
    }
    WaterInlet
    {
        type            calculated;
        value           nonuniform List<scalar> 10(-5e-13 -5e-13 -5e-13 -5e-13 -5e-13 -5e-13 -5e-13 -5e-13 -5e-13 -5e-13);
    }
    ChannelWall
    {
        type            calculated;
        value           uniform 0;
    }
    Outlet
    {
        type            calculated;
        value           nonuniform List<scalar> 
15
(
-6.38053e-12
-7.73801e-12
8.17812e-12
1.29412e-11
1.04227e-11
1.69079e-12
7.88188e-13
-7.79237e-14
-6.73255e-13
-1.77012e-12
-1.01915e-11
-8.78224e-12
-7.29262e-12
2.92508e-12
1.196e-11
)
;
    }
    FrontAndBack
    {
        type            empty;
        value           nonuniform 0();
    }
}


// ************************************************************************* //
