/*--------------------------------*- C++ -*----------------------------------*\
| =========                 |                                                 |
| \\      /  F ield         | OpenFOAM: The Open Source CFD Toolbox           |
|  \\    /   O peration     | Version:  2.3.0                                 |
|   \\  /    A nd           | Web:      www.OpenFOAM.org                      |
|    \\/     M anipulation  |                                                 |
\*---------------------------------------------------------------------------*/
FoamFile
{
    version     2.0;
    format      ascii;
    class       volScalarField;
    location    "0.06";
    object      T;
}
// * * * * * * * * * * * * * * * * * * * * * * * * * * * * * * * * * * * * * //

dimensions      [0 0 0 1 0 0 0];

internalField   nonuniform List<scalar> 
12225
(
2.22099e-10
2.20769e-10
2.20396e-10
2.2029e-10
2.20261e-10
2.20386e-10
2.20781e-10
2.21667e-10
2.23472e-10
2.27011e-10
2.33879e-10
2.47359e-10
2.74579e-10
3.31639e-10
4.55955e-10
7.36944e-10
1.3989e-09
3.07411e-09
2.18979e-10
2.19362e-10
2.19678e-10
2.19897e-10
2.2005e-10
2.2028e-10
2.20741e-10
2.21677e-10
2.23529e-10
2.27117e-10
2.3403e-10
2.47506e-10
2.74506e-10
3.30606e-10
4.51568e-10
7.21071e-10
1.33875e-09
2.78337e-09
2.20536e-10
2.20511e-10
2.20418e-10
2.2039e-10
2.20409e-10
2.20562e-10
2.20988e-10
2.21927e-10
2.23827e-10
2.27516e-10
2.34578e-10
2.48189e-10
2.75049e-10
3.29844e-10
4.45448e-10
6.95682e-10
1.2427e-09
2.40681e-09
2.20664e-10
2.20526e-10
2.20405e-10
2.20406e-10
2.20476e-10
2.20682e-10
2.21172e-10
2.22207e-10
2.24262e-10
2.28199e-10
2.35626e-10
2.49665e-10
2.767e-10
3.30259e-10
4.39435e-10
6.65862e-10
1.13207e-09
2.03806e-09
2.20869e-10
2.20788e-10
2.20699e-10
2.20707e-10
2.20792e-10
2.21028e-10
2.21581e-10
2.22745e-10
2.25043e-10
2.294e-10
2.37481e-10
2.5239e-10
2.80179e-10
3.33066e-10
4.3591e-10
6.37723e-10
1.02616e-09
1.72208e-09
2.21187e-10
2.21153e-10
2.21092e-10
2.21105e-10
2.2121e-10
2.21497e-10
2.22158e-10
2.23534e-10
2.26227e-10
2.31272e-10
2.40455e-10
2.56928e-10
2.8647e-10
3.39993e-10
4.38174e-10
6.18542e-10
9.4154e-10
1.47996e-09
2.21691e-10
2.21683e-10
2.21646e-10
2.21672e-10
2.2181e-10
2.22174e-10
2.22998e-10
2.24702e-10
2.28013e-10
2.34147e-10
2.45109e-10
2.64232e-10
2.97175e-10
3.53761e-10
4.51037e-10
6.17201e-10
8.93339e-10
1.32435e-09
2.22293e-10
2.22294e-10
2.22278e-10
2.22325e-10
2.22506e-10
2.2297e-10
2.24006e-10
2.26139e-10
2.30263e-10
2.37843e-10
2.51212e-10
2.74045e-10
3.12154e-10
3.74838e-10
4.76901e-10
6.40858e-10
8.97066e-10
1.27706e-09
2.2296e-10
2.22967e-10
2.22969e-10
2.2304e-10
2.23274e-10
2.23857e-10
2.2515e-10
2.27804e-10
2.32922e-10
2.42283e-10
2.58647e-10
2.86179e-10
3.31091e-10
4.02602e-10
5.14232e-10
6.84943e-10
9.386e-10
1.29923e-09
2.23867e-10
2.23878e-10
2.239e-10
2.24006e-10
2.24319e-10
2.25083e-10
2.26769e-10
2.30224e-10
2.36878e-10
2.49014e-10
2.70085e-10
3.0512e-10
3.61205e-10
4.48105e-10
5.78949e-10
7.70599e-10
1.04281e-09
1.41501e-09
2.251e-10
2.25116e-10
2.25161e-10
2.25318e-10
2.25752e-10
2.268e-10
2.29107e-10
2.33839e-10
2.42961e-10
2.59579e-10
2.88323e-10
3.35731e-10
4.10612e-10
5.2435e-10
6.91074e-10
9.27451e-10
1.25164e-09
1.68101e-09
2.26775e-10
2.26798e-10
2.26871e-10
2.27106e-10
2.27737e-10
2.29248e-10
2.3258e-10
2.39441e-10
2.52704e-10
2.76902e-10
3.18713e-10
3.87385e-10
4.94981e-10
6.56374e-10
8.88915e-10
1.21165e-09
1.64398e-09
2.20366e-09
2.29051e-10
2.29083e-10
2.292e-10
2.29562e-10
2.30523e-10
2.32829e-10
2.37945e-10
2.48542e-10
2.69141e-10
3.06866e-10
3.72161e-10
4.79308e-10
6.46551e-10
8.95682e-10
1.25104e-09
1.73792e-09
2.38055e-09
3.19972e-09
2.32139e-10
2.32188e-10
2.32378e-10
2.32961e-10
2.34513e-10
2.38267e-10
2.46676e-10
2.64254e-10
2.987e-10
3.62182e-10
4.72511e-10
6.53856e-10
9.36633e-10
1.35634e-09
1.95131e-09
2.75966e-09
3.81564e-09
5.14605e-09
2.36327e-10
2.36406e-10
2.36729e-10
2.37725e-10
2.40407e-10
2.4698e-10
2.61901e-10
2.93493e-10
3.56102e-10
4.72528e-10
6.76181e-10
1.01213e-09
1.53635e-09
2.31268e-09
3.40782e-09
4.88485e-09
6.79631e-09
9.17764e-09
2.41992e-10
2.42131e-10
2.42715e-10
2.44543e-10
2.49541e-10
2.62018e-10
2.90868e-10
3.53011e-10
4.78041e-10
7.13448e-10
1.12901e-09
1.81834e-09
2.89585e-09
4.48846e-09
6.72292e-09
9.71117e-09
1.35361e-08
1.82389e-08
2.49623e-10
2.49889e-10
2.51022e-10
2.54636e-10
2.64749e-10
2.90628e-10
3.51955e-10
4.87139e-10
7.64773e-10
1.29654e-09
2.24744e-09
3.83752e-09
6.33006e-09
1.00052e-08
1.51238e-08
2.18907e-08
3.04249e-08
4.07398e-08
2.59083e-10
2.59605e-10
2.61876e-10
2.69301e-10
2.9071e-10
3.47274e-10
4.85674e-10
8.00197e-10
1.46428e-09
2.76656e-09
5.13797e-09
9.14986e-09
1.54657e-08
2.4747e-08
3.75376e-08
5.41654e-08
7.46881e-08
9.88869e-08
2.69036e-10
2.69993e-10
2.74251e-10
2.88574e-10
3.31296e-10
4.48356e-10
7.45606e-10
1.44604e-09
2.97577e-09
6.066e-09
1.18283e-08
2.17322e-08
3.74216e-08
6.03798e-08
9.15628e-08
1.31166e-07
1.78605e-07
2.32661e-07
2.78405e-10
2.79979e-10
2.87115e-10
3.11813e-10
3.88024e-10
6.04758e-10
1.17691e-09
2.57885e-09
5.7586e-09
1.24081e-08
2.51711e-08
4.75594e-08
8.33422e-08
1.3545e-07
2.04904e-07
2.90446e-07
3.88984e-07
4.96436e-07
2.86864e-10
2.89212e-10
3.00061e-10
3.38643e-10
4.61689e-10
8.24759e-10
1.82192e-09
4.3681e-09
1.03879e-08
2.34877e-08
4.95322e-08
9.64484e-08
1.72418e-07
2.82475e-07
4.25536e-07
5.94581e-07
7.79436e-07
9.69814e-07
2.94201e-10
2.97426e-10
3.12577e-10
3.6782e-10
5.49506e-10
1.10479e-09
2.69033e-09
6.91279e-09
1.73476e-08
4.10945e-08
9.03423e-08
1.82182e-07
3.33829e-07
5.52496e-07
8.27083e-07
1.13338e-06
1.44547e-06
1.74356e-06
3.00324e-10
3.04452e-10
3.2412e-10
3.97445e-10
6.45323e-10
1.42764e-09
3.74486e-09
1.01754e-08
2.68068e-08
6.65458e-08
1.53133e-07
3.21974e-07
6.09139e-07
1.02235e-06
1.51589e-06
2.02257e-06
2.49043e-06
2.89397e-06
3.05241e-10
3.10224e-10
3.34238e-10
4.25469e-10
7.41231e-10
1.76612e-09
4.90353e-09
1.39521e-08
3.84232e-08
9.99467e-08
2.41694e-07
5.34055e-07
1.05394e-06
1.80623e-06
2.63739e-06
3.39061e-06
3.9934e-06
4.44244e-06
3.09038e-10
3.14755e-10
3.42618e-10
4.50155e-10
8.29594e-10
2.09019e-09
6.05919e-09
1.79028e-08
5.12878e-08
1.39552e-07
3.55486e-07
8.32131e-07
1.73677e-06
3.07833e-06
4.37745e-06
5.34249e-06
5.95698e-06
6.31186e-06
3.11896e-10
3.18185e-10
3.49207e-10
4.70506e-10
9.04987e-10
2.37525e-09
7.11033e-09
2.16445e-08
6.411e-08
1.81704e-07
4.87257e-07
1.21586e-06
2.72992e-06
5.12547e-06
6.94414e-06
7.88779e-06
8.24798e-06
8.30804e-06
3.1391e-10
3.2056e-10
3.53941e-10
4.85917e-10
9.6407e-10
2.60468e-09
7.97985e-09
2.48421e-08
7.55373e-08
2.21482e-07
6.22121e-07
1.65732e-06
4.07514e-06
8.46902e-06
1.04807e-05
1.08271e-05
1.05671e-05
1.01552e-05
3.15334e-10
3.22517e-10
3.57727e-10
4.97544e-10
1.00813e-09
2.77702e-09
8.64195e-09
2.73229e-08
8.4638e-08
2.54421e-07
7.4101e-07
2.09157e-06
5.69436e-06
1.41432e-05
1.48063e-05
1.36536e-05
1.25166e-05
1.15978e-05
3.13568e-10
3.21448e-10
3.58227e-10
5.03111e-10
1.03416e-09
2.88597e-09
9.07487e-09
2.89825e-08
9.08475e-08
2.77374e-07
8.26207e-07
2.42054e-06
7.17553e-06
2.42267e-05
1.87597e-05
1.56251e-05
1.37828e-05
1.25036e-05
3.18722e-10
3.24393e-10
3.60748e-10
5.07951e-10
1.05048e-09
2.94912e-09
9.31897e-09
2.99039e-08
9.42525e-08
2.89775e-07
8.7056e-07
2.56521e-06
7.37421e-06
1.92083e-05
1.89479e-05
1.63967e-05
1.43489e-05
1.28989e-05
7.52955e-08
7.54171e-08
7.56587e-08
7.60272e-08
7.65266e-08
7.71592e-08
7.79285e-08
7.88375e-08
7.98889e-08
8.1086e-08
8.2432e-08
8.39294e-08
8.55809e-08
8.73888e-08
8.93555e-08
9.14832e-08
9.37738e-08
9.62292e-08
9.8851e-08
1.01641e-07
1.04599e-07
1.07728e-07
1.11028e-07
1.14499e-07
1.18143e-07
1.21958e-07
1.25946e-07
1.30106e-07
1.34437e-07
1.38939e-07
1.43611e-07
1.48452e-07
1.5346e-07
1.58633e-07
1.63971e-07
1.69471e-07
1.7513e-07
1.80946e-07
1.86916e-07
1.93037e-07
1.99306e-07
2.0572e-07
2.12275e-07
2.18966e-07
2.25791e-07
2.32743e-07
2.3982e-07
2.47017e-07
2.54328e-07
2.61749e-07
2.69275e-07
2.76901e-07
2.84622e-07
2.92432e-07
3.00325e-07
3.08298e-07
3.16344e-07
3.24457e-07
3.32634e-07
3.40868e-07
3.49154e-07
3.57487e-07
3.65862e-07
3.74275e-07
3.82721e-07
3.91195e-07
3.99692e-07
4.08209e-07
4.16742e-07
4.25287e-07
4.3384e-07
4.42398e-07
4.50957e-07
4.59515e-07
4.68069e-07
4.76616e-07
4.85154e-07
4.9368e-07
5.02193e-07
5.10691e-07
5.19172e-07
5.27635e-07
5.36078e-07
5.445e-07
5.52901e-07
5.61279e-07
5.69634e-07
5.77965e-07
5.86272e-07
5.94555e-07
6.02814e-07
6.11049e-07
6.19259e-07
6.27446e-07
6.35608e-07
6.43747e-07
6.51863e-07
6.59956e-07
6.68027e-07
6.76076e-07
6.84103e-07
6.92109e-07
7.00093e-07
7.08057e-07
7.16e-07
7.23921e-07
7.31822e-07
7.39702e-07
7.4756e-07
7.55396e-07
7.63211e-07
7.71002e-07
7.7877e-07
7.86514e-07
7.94233e-07
8.01926e-07
8.09593e-07
8.17231e-07
8.24841e-07
8.3242e-07
8.39968e-07
8.47482e-07
8.54963e-07
8.62407e-07
8.69814e-07
8.77182e-07
8.84509e-07
8.91793e-07
8.99032e-07
9.06226e-07
9.1337e-07
9.20464e-07
9.27505e-07
9.34492e-07
9.41422e-07
9.48292e-07
9.55101e-07
9.61846e-07
9.68525e-07
9.75135e-07
9.81675e-07
9.88141e-07
9.9453e-07
1.00084e-06
1.00707e-06
1.01322e-06
1.01928e-06
1.02525e-06
1.03113e-06
1.03692e-06
1.04261e-06
1.04821e-06
1.0537e-06
1.05909e-06
1.06437e-06
1.06955e-06
1.07462e-06
1.07957e-06
1.08441e-06
1.08914e-06
1.09374e-06
1.09822e-06
1.10259e-06
1.1068e-06
1.11087e-06
1.11482e-06
1.11861e-06
1.12226e-06
1.12579e-06
1.12918e-06
1.13244e-06
1.13557e-06
1.13856e-06
1.14141e-06
1.14413e-06
1.14671e-06
1.1492e-06
1.15147e-06
1.15411e-06
1.15449e-06
7.50998e-08
7.52204e-08
7.54664e-08
7.58396e-08
7.63429e-08
7.69796e-08
7.77524e-08
7.86643e-08
7.97178e-08
8.09159e-08
8.22616e-08
8.37578e-08
8.54069e-08
8.72116e-08
8.91742e-08
9.12968e-08
9.35813e-08
9.60297e-08
9.86436e-08
1.01424e-07
1.04373e-07
1.07491e-07
1.1078e-07
1.14238e-07
1.17869e-07
1.2167e-07
1.25643e-07
1.29787e-07
1.34102e-07
1.38587e-07
1.43241e-07
1.48063e-07
1.53052e-07
1.58207e-07
1.63525e-07
1.69004e-07
1.74643e-07
1.80438e-07
1.86387e-07
1.92487e-07
1.98735e-07
2.05127e-07
2.1166e-07
2.1833e-07
2.25133e-07
2.32065e-07
2.39121e-07
2.46297e-07
2.53587e-07
2.60988e-07
2.68494e-07
2.761e-07
2.83801e-07
2.91592e-07
2.99467e-07
3.07422e-07
3.15449e-07
3.23546e-07
3.31705e-07
3.39923e-07
3.48193e-07
3.56511e-07
3.64872e-07
3.73272e-07
3.81704e-07
3.90165e-07
3.98651e-07
4.07157e-07
4.1568e-07
4.24215e-07
4.3276e-07
4.4131e-07
4.49862e-07
4.58414e-07
4.66962e-07
4.75504e-07
4.84038e-07
4.92561e-07
5.01072e-07
5.09568e-07
5.18049e-07
5.26511e-07
5.34955e-07
5.43378e-07
5.51781e-07
5.60162e-07
5.68521e-07
5.76856e-07
5.85169e-07
5.93457e-07
6.01723e-07
6.09964e-07
6.18182e-07
6.26377e-07
6.34549e-07
6.42697e-07
6.50824e-07
6.58928e-07
6.67011e-07
6.75072e-07
6.83113e-07
6.91133e-07
6.99132e-07
7.07112e-07
7.15071e-07
7.23011e-07
7.3093e-07
7.38829e-07
7.46707e-07
7.54563e-07
7.62399e-07
7.70212e-07
7.78002e-07
7.85769e-07
7.93512e-07
8.01229e-07
8.08919e-07
8.16583e-07
8.24217e-07
8.31822e-07
8.39396e-07
8.46936e-07
8.54443e-07
8.61914e-07
8.69347e-07
8.76742e-07
8.84095e-07
8.91406e-07
8.98673e-07
9.05893e-07
9.13064e-07
9.20184e-07
9.27252e-07
9.34264e-07
9.4122e-07
9.48116e-07
9.54949e-07
9.61719e-07
9.68422e-07
9.75056e-07
9.81618e-07
9.88106e-07
9.94517e-07
1.00085e-06
1.0071e-06
1.01327e-06
1.01935e-06
1.02534e-06
1.03123e-06
1.03704e-06
1.04274e-06
1.04835e-06
1.05386e-06
1.05926e-06
1.06455e-06
1.06974e-06
1.07481e-06
1.07977e-06
1.08462e-06
1.08934e-06
1.09395e-06
1.09843e-06
1.1028e-06
1.10701e-06
1.11112e-06
1.11511e-06
1.11895e-06
1.12266e-06
1.12624e-06
1.12968e-06
1.13299e-06
1.13616e-06
1.13919e-06
1.14208e-06
1.14485e-06
1.14747e-06
1.15e-06
1.15234e-06
1.1549e-06
1.15605e-06
7.47087e-08
7.48253e-08
7.50704e-08
7.54442e-08
7.59483e-08
7.65848e-08
7.73566e-08
7.82665e-08
7.93171e-08
8.05114e-08
8.1852e-08
8.33417e-08
8.49829e-08
8.67781e-08
8.87296e-08
9.08393e-08
9.31094e-08
9.55416e-08
9.81375e-08
1.00899e-07
1.03826e-07
1.06921e-07
1.10185e-07
1.13617e-07
1.17219e-07
1.20991e-07
1.24933e-07
1.29044e-07
1.33325e-07
1.37775e-07
1.42393e-07
1.47178e-07
1.52129e-07
1.57244e-07
1.62521e-07
1.6796e-07
1.73557e-07
1.7931e-07
1.85216e-07
1.91273e-07
1.97478e-07
2.03827e-07
2.10316e-07
2.16943e-07
2.23702e-07
2.30591e-07
2.37603e-07
2.44736e-07
2.51985e-07
2.59344e-07
2.66809e-07
2.74374e-07
2.82036e-07
2.89787e-07
2.97624e-07
3.05541e-07
3.13533e-07
3.21594e-07
3.2972e-07
3.37905e-07
3.46144e-07
3.54432e-07
3.62764e-07
3.71136e-07
3.79543e-07
3.8798e-07
3.96443e-07
4.04929e-07
4.13432e-07
4.2195e-07
4.30478e-07
4.39014e-07
4.47554e-07
4.56096e-07
4.64635e-07
4.73171e-07
4.817e-07
4.90221e-07
4.98731e-07
5.07228e-07
5.15711e-07
5.24178e-07
5.32629e-07
5.41061e-07
5.49474e-07
5.57868e-07
5.66241e-07
5.74593e-07
5.82924e-07
5.91232e-07
5.9952e-07
6.07786e-07
6.1603e-07
6.24253e-07
6.32454e-07
6.40635e-07
6.48795e-07
6.56936e-07
6.65057e-07
6.73158e-07
6.81241e-07
6.89305e-07
6.97351e-07
7.05379e-07
7.13389e-07
7.21381e-07
7.29354e-07
7.37309e-07
7.45245e-07
7.53162e-07
7.61059e-07
7.68936e-07
7.76791e-07
7.84625e-07
7.92435e-07
8.00222e-07
8.07983e-07
8.15719e-07
8.23427e-07
8.31106e-07
8.38754e-07
8.46371e-07
8.53955e-07
8.61504e-07
8.69016e-07
8.7649e-07
8.83923e-07
8.91314e-07
8.9866e-07
9.0596e-07
9.13211e-07
9.20412e-07
9.27559e-07
9.34651e-07
9.41685e-07
9.48659e-07
9.55571e-07
9.62417e-07
9.69196e-07
9.75906e-07
9.82542e-07
9.89103e-07
9.95586e-07
1.00199e-06
1.00831e-06
1.01454e-06
1.02069e-06
1.02674e-06
1.0327e-06
1.03857e-06
1.04433e-06
1.05e-06
1.05556e-06
1.06101e-06
1.06636e-06
1.0716e-06
1.07672e-06
1.08172e-06
1.08661e-06
1.09138e-06
1.09602e-06
1.10055e-06
1.10495e-06
1.10921e-06
1.11336e-06
1.11738e-06
1.12127e-06
1.12502e-06
1.12864e-06
1.13213e-06
1.13547e-06
1.13867e-06
1.14174e-06
1.14467e-06
1.14746e-06
1.15011e-06
1.15265e-06
1.15501e-06
1.1575e-06
1.15907e-06
7.41128e-08
7.42265e-08
7.44705e-08
7.48437e-08
7.53464e-08
7.59805e-08
7.67488e-08
7.76539e-08
7.86984e-08
7.9885e-08
8.12163e-08
8.26946e-08
8.43224e-08
8.61021e-08
8.80356e-08
9.01252e-08
9.23728e-08
9.478e-08
9.73485e-08
1.0008e-07
1.02975e-07
1.06035e-07
1.09262e-07
1.12655e-07
1.16216e-07
1.19944e-07
1.2384e-07
1.27904e-07
1.32136e-07
1.36534e-07
1.41099e-07
1.4583e-07
1.50725e-07
1.55783e-07
1.61002e-07
1.66381e-07
1.71918e-07
1.7761e-07
1.83455e-07
1.8945e-07
1.95592e-07
2.01878e-07
2.08304e-07
2.14868e-07
2.21564e-07
2.2839e-07
2.35341e-07
2.42412e-07
2.496e-07
2.56898e-07
2.64304e-07
2.71811e-07
2.79414e-07
2.8711e-07
2.94892e-07
3.02755e-07
3.10695e-07
3.18705e-07
3.26782e-07
3.3492e-07
3.43114e-07
3.51359e-07
3.5965e-07
3.67983e-07
3.76353e-07
3.84756e-07
3.93187e-07
4.01643e-07
4.10119e-07
4.18612e-07
4.27119e-07
4.35636e-07
4.44159e-07
4.52686e-07
4.61215e-07
4.69742e-07
4.78266e-07
4.86783e-07
4.95293e-07
5.03793e-07
5.12282e-07
5.20758e-07
5.2922e-07
5.37666e-07
5.46097e-07
5.54511e-07
5.62907e-07
5.71285e-07
5.79644e-07
5.87985e-07
5.96307e-07
6.04611e-07
6.12896e-07
6.21162e-07
6.29411e-07
6.37641e-07
6.45855e-07
6.54052e-07
6.62231e-07
6.70395e-07
6.78544e-07
6.86677e-07
6.94795e-07
7.02898e-07
7.10987e-07
7.19059e-07
7.27117e-07
7.35159e-07
7.43185e-07
7.51195e-07
7.59187e-07
7.67162e-07
7.75117e-07
7.83053e-07
7.90969e-07
7.98863e-07
8.06734e-07
8.1458e-07
8.22401e-07
8.30195e-07
8.37961e-07
8.45695e-07
8.53398e-07
8.61067e-07
8.68701e-07
8.76297e-07
8.83852e-07
8.91366e-07
8.98837e-07
9.06261e-07
9.13636e-07
9.2096e-07
9.28231e-07
9.35446e-07
9.42603e-07
9.49699e-07
9.56731e-07
9.63698e-07
9.70595e-07
9.77422e-07
9.84174e-07
9.90849e-07
9.97444e-07
1.00396e-06
1.01038e-06
1.01672e-06
1.02297e-06
1.02913e-06
1.03519e-06
1.04115e-06
1.04701e-06
1.05277e-06
1.05842e-06
1.06396e-06
1.06939e-06
1.0747e-06
1.0799e-06
1.08499e-06
1.08995e-06
1.09479e-06
1.0995e-06
1.10409e-06
1.10855e-06
1.11288e-06
1.11708e-06
1.12116e-06
1.12509e-06
1.1289e-06
1.13256e-06
1.13609e-06
1.13948e-06
1.14272e-06
1.14583e-06
1.14879e-06
1.15161e-06
1.15428e-06
1.15684e-06
1.15921e-06
1.16166e-06
1.16344e-06
7.33046e-08
7.34169e-08
7.36597e-08
7.40311e-08
7.45309e-08
7.51607e-08
7.5923e-08
7.68203e-08
7.78552e-08
7.903e-08
8.03471e-08
8.18088e-08
8.34174e-08
8.51752e-08
8.70841e-08
8.91461e-08
9.13632e-08
9.3737e-08
9.62691e-08
9.8961e-08
1.01814e-07
1.04829e-07
1.08008e-07
1.1135e-07
1.14857e-07
1.1853e-07
1.22367e-07
1.2637e-07
1.30539e-07
1.34872e-07
1.3937e-07
1.44031e-07
1.48855e-07
1.5384e-07
1.58985e-07
1.64289e-07
1.69749e-07
1.75364e-07
1.81131e-07
1.87047e-07
1.93109e-07
1.99316e-07
2.05662e-07
2.12146e-07
2.18763e-07
2.2551e-07
2.32382e-07
2.39375e-07
2.46485e-07
2.53707e-07
2.61037e-07
2.6847e-07
2.76001e-07
2.83625e-07
2.91338e-07
2.99134e-07
3.07008e-07
3.14955e-07
3.22971e-07
3.31049e-07
3.39187e-07
3.47378e-07
3.55618e-07
3.63902e-07
3.72227e-07
3.80587e-07
3.88979e-07
3.97398e-07
4.05841e-07
4.14305e-07
4.22785e-07
4.31278e-07
4.39782e-07
4.48293e-07
4.56809e-07
4.65327e-07
4.73845e-07
4.82361e-07
4.90873e-07
4.99379e-07
5.07877e-07
5.16366e-07
5.24845e-07
5.33312e-07
5.41767e-07
5.50209e-07
5.58637e-07
5.67051e-07
5.7545e-07
5.83834e-07
5.92204e-07
6.00559e-07
6.08898e-07
6.17224e-07
6.25536e-07
6.33833e-07
6.42118e-07
6.50389e-07
6.58648e-07
6.66896e-07
6.75132e-07
6.83356e-07
6.9157e-07
6.99773e-07
7.07964e-07
7.16145e-07
7.24314e-07
7.32471e-07
7.40615e-07
7.48747e-07
7.56865e-07
7.64969e-07
7.73057e-07
7.81128e-07
7.89181e-07
7.97216e-07
8.05231e-07
8.13223e-07
8.21193e-07
8.29137e-07
8.37055e-07
8.44945e-07
8.52804e-07
8.6063e-07
8.68422e-07
8.76178e-07
8.83895e-07
8.9157e-07
8.99202e-07
9.06788e-07
9.14325e-07
9.21812e-07
9.29244e-07
9.3662e-07
9.43937e-07
9.51192e-07
9.58382e-07
9.65505e-07
9.72557e-07
9.79536e-07
9.86439e-07
9.93263e-07
1.00001e-06
1.00666e-06
1.01323e-06
1.01971e-06
1.02609e-06
1.03238e-06
1.03857e-06
1.04466e-06
1.05064e-06
1.05652e-06
1.06229e-06
1.06794e-06
1.07348e-06
1.0789e-06
1.0842e-06
1.08938e-06
1.09444e-06
1.09937e-06
1.10417e-06
1.10884e-06
1.11338e-06
1.11779e-06
1.12206e-06
1.12621e-06
1.13021e-06
1.13408e-06
1.1378e-06
1.14139e-06
1.14483e-06
1.14812e-06
1.15128e-06
1.15428e-06
1.15714e-06
1.15985e-06
1.16243e-06
1.16482e-06
1.16727e-06
1.16915e-06
7.2281e-08
7.23929e-08
7.26339e-08
7.30023e-08
7.34972e-08
7.41203e-08
7.48739e-08
7.57602e-08
7.67816e-08
7.79403e-08
7.92386e-08
8.06786e-08
8.22625e-08
8.39924e-08
8.58702e-08
8.78978e-08
9.00771e-08
9.24098e-08
9.48974e-08
9.75414e-08
1.00343e-07
1.03304e-07
1.06424e-07
1.09706e-07
1.13149e-07
1.16754e-07
1.20522e-07
1.24452e-07
1.28545e-07
1.328e-07
1.37218e-07
1.41796e-07
1.46536e-07
1.51435e-07
1.56493e-07
1.61707e-07
1.67076e-07
1.72599e-07
1.78273e-07
1.84096e-07
1.90065e-07
1.96177e-07
2.02429e-07
2.08818e-07
2.15341e-07
2.21993e-07
2.28772e-07
2.35673e-07
2.42691e-07
2.49823e-07
2.57064e-07
2.6441e-07
2.71855e-07
2.79396e-07
2.87026e-07
2.94742e-07
3.02539e-07
3.10412e-07
3.18355e-07
3.26365e-07
3.34436e-07
3.42564e-07
3.50744e-07
3.58972e-07
3.67244e-07
3.75554e-07
3.83901e-07
3.92278e-07
4.00683e-07
4.09113e-07
4.17563e-07
4.26031e-07
4.34513e-07
4.43007e-07
4.5151e-07
4.6002e-07
4.68534e-07
4.7705e-07
4.85567e-07
4.94082e-07
5.02594e-07
5.11101e-07
5.19603e-07
5.28098e-07
5.36585e-07
5.45064e-07
5.53533e-07
5.61993e-07
5.70443e-07
5.78882e-07
5.87312e-07
5.95731e-07
6.0414e-07
6.1254e-07
6.2093e-07
6.29312e-07
6.37685e-07
6.4605e-07
6.54408e-07
6.62759e-07
6.71104e-07
6.79442e-07
6.87774e-07
6.961e-07
7.04419e-07
7.12733e-07
7.21039e-07
7.29338e-07
7.37628e-07
7.4591e-07
7.54183e-07
7.62445e-07
7.70695e-07
7.78932e-07
7.87155e-07
7.95362e-07
8.03552e-07
8.11724e-07
8.19875e-07
8.28004e-07
8.36108e-07
8.44186e-07
8.52236e-07
8.60255e-07
8.6824e-07
8.76191e-07
8.84104e-07
8.91976e-07
8.99805e-07
9.07588e-07
9.15323e-07
9.23006e-07
9.30635e-07
9.38206e-07
9.45718e-07
9.53166e-07
9.60549e-07
9.67861e-07
9.75102e-07
9.82266e-07
9.89352e-07
9.96357e-07
1.00328e-06
1.01011e-06
1.01685e-06
1.02349e-06
1.03004e-06
1.03649e-06
1.04284e-06
1.04908e-06
1.05521e-06
1.06123e-06
1.06714e-06
1.07293e-06
1.0786e-06
1.08415e-06
1.08957e-06
1.09487e-06
1.10004e-06
1.10508e-06
1.10998e-06
1.11476e-06
1.1194e-06
1.1239e-06
1.12826e-06
1.13248e-06
1.13657e-06
1.14051e-06
1.14431e-06
1.14796e-06
1.15147e-06
1.15483e-06
1.15804e-06
1.1611e-06
1.16401e-06
1.16676e-06
1.16938e-06
1.1718e-06
1.17426e-06
1.17618e-06
7.10363e-08
7.11485e-08
7.13876e-08
7.17517e-08
7.22401e-08
7.28542e-08
7.35963e-08
7.44684e-08
7.54728e-08
7.66114e-08
7.78865e-08
7.93e-08
8.0854e-08
8.25504e-08
8.43911e-08
8.63781e-08
8.8513e-08
9.07975e-08
9.32332e-08
9.58216e-08
9.8564e-08
1.01462e-07
1.04516e-07
1.07727e-07
1.11097e-07
1.14625e-07
1.18313e-07
1.2216e-07
1.26167e-07
1.30334e-07
1.3466e-07
1.39145e-07
1.43789e-07
1.4859e-07
1.53548e-07
1.5866e-07
1.63927e-07
1.69346e-07
1.74915e-07
1.80631e-07
1.86494e-07
1.92499e-07
1.98644e-07
2.04926e-07
2.11342e-07
2.17889e-07
2.24562e-07
2.31358e-07
2.38273e-07
2.45302e-07
2.52443e-07
2.59689e-07
2.67038e-07
2.74484e-07
2.82022e-07
2.89648e-07
2.97358e-07
3.05146e-07
3.13009e-07
3.20941e-07
3.28938e-07
3.36995e-07
3.45109e-07
3.53274e-07
3.61486e-07
3.69743e-07
3.78038e-07
3.8637e-07
3.94734e-07
4.03127e-07
4.11545e-07
4.19986e-07
4.28446e-07
4.36923e-07
4.45414e-07
4.53917e-07
4.62429e-07
4.70949e-07
4.79474e-07
4.88003e-07
4.96534e-07
5.05066e-07
5.13598e-07
5.22128e-07
5.30656e-07
5.3918e-07
5.47701e-07
5.56218e-07
5.6473e-07
5.73237e-07
5.81739e-07
5.90237e-07
5.98731e-07
6.0722e-07
6.15706e-07
6.24188e-07
6.32668e-07
6.41145e-07
6.49621e-07
6.58096e-07
6.6657e-07
6.75043e-07
6.83516e-07
6.91988e-07
7.0046e-07
7.0893e-07
7.17399e-07
7.25866e-07
7.34329e-07
7.42788e-07
7.51243e-07
7.59691e-07
7.68132e-07
7.76564e-07
7.84986e-07
7.93397e-07
8.01793e-07
8.10175e-07
8.18539e-07
8.26883e-07
8.35206e-07
8.43504e-07
8.51777e-07
8.6002e-07
8.68233e-07
8.76411e-07
8.84552e-07
8.92654e-07
9.00713e-07
9.08726e-07
9.16691e-07
9.24603e-07
9.32461e-07
9.4026e-07
9.47998e-07
9.55672e-07
9.63277e-07
9.7081e-07
9.78269e-07
9.8565e-07
9.92949e-07
1.00016e-06
1.00729e-06
1.01432e-06
1.02126e-06
1.0281e-06
1.03484e-06
1.04148e-06
1.048e-06
1.05442e-06
1.06073e-06
1.06691e-06
1.07298e-06
1.07893e-06
1.08475e-06
1.09045e-06
1.09601e-06
1.10145e-06
1.10675e-06
1.11191e-06
1.11694e-06
1.12183e-06
1.12658e-06
1.13119e-06
1.13565e-06
1.13997e-06
1.14415e-06
1.14818e-06
1.15206e-06
1.1558e-06
1.15938e-06
1.16281e-06
1.16609e-06
1.16922e-06
1.17218e-06
1.17499e-06
1.17765e-06
1.1801e-06
1.1826e-06
1.18453e-06
6.9566e-08
6.96787e-08
6.99151e-08
7.02737e-08
7.07539e-08
7.1357e-08
7.2085e-08
7.29401e-08
7.39241e-08
7.5039e-08
7.62869e-08
7.76695e-08
7.91889e-08
8.08469e-08
8.26453e-08
8.4586e-08
8.66706e-08
8.89008e-08
9.12782e-08
9.38043e-08
9.64804e-08
9.93079e-08
1.02288e-07
1.05421e-07
1.08709e-07
1.12153e-07
1.15752e-07
1.19507e-07
1.2342e-07
1.27488e-07
1.31714e-07
1.36096e-07
1.40634e-07
1.45328e-07
1.50176e-07
1.55177e-07
1.60331e-07
1.65635e-07
1.71089e-07
1.76689e-07
1.82434e-07
1.88322e-07
1.9435e-07
2.00515e-07
2.06813e-07
2.13243e-07
2.19801e-07
2.26482e-07
2.33283e-07
2.40201e-07
2.47232e-07
2.5437e-07
2.61612e-07
2.68955e-07
2.76392e-07
2.83921e-07
2.91535e-07
2.99232e-07
3.07007e-07
3.14855e-07
3.22771e-07
3.30752e-07
3.38794e-07
3.46891e-07
3.55041e-07
3.63239e-07
3.71482e-07
3.79765e-07
3.88086e-07
3.96441e-07
4.04827e-07
4.13241e-07
4.2168e-07
4.30142e-07
4.38623e-07
4.47122e-07
4.55636e-07
4.64163e-07
4.72702e-07
4.81251e-07
4.89808e-07
4.98372e-07
5.06941e-07
5.15515e-07
5.24093e-07
5.32674e-07
5.41257e-07
5.49842e-07
5.58428e-07
5.67016e-07
5.75605e-07
5.84196e-07
5.92789e-07
6.01384e-07
6.09981e-07
6.18582e-07
6.27186e-07
6.35794e-07
6.44408e-07
6.53027e-07
6.61651e-07
6.70281e-07
6.78917e-07
6.87559e-07
6.96205e-07
7.04857e-07
7.13512e-07
7.22171e-07
7.30833e-07
7.39496e-07
7.48159e-07
7.5682e-07
7.65479e-07
7.74134e-07
7.82783e-07
7.91424e-07
8.00056e-07
8.08676e-07
8.17282e-07
8.25871e-07
8.34442e-07
8.42991e-07
8.51516e-07
8.60014e-07
8.68483e-07
8.76919e-07
8.85318e-07
8.93679e-07
9.01998e-07
9.10271e-07
9.18495e-07
9.26667e-07
9.34783e-07
9.42839e-07
9.50832e-07
9.58759e-07
9.66615e-07
9.74398e-07
9.82102e-07
9.89725e-07
9.97263e-07
1.00471e-06
1.01207e-06
1.01933e-06
1.02649e-06
1.03355e-06
1.04051e-06
1.04735e-06
1.05408e-06
1.0607e-06
1.06719e-06
1.07357e-06
1.07982e-06
1.08594e-06
1.09193e-06
1.09779e-06
1.10352e-06
1.1091e-06
1.11455e-06
1.11986e-06
1.12502e-06
1.13004e-06
1.13492e-06
1.13964e-06
1.14422e-06
1.14865e-06
1.15293e-06
1.15706e-06
1.16103e-06
1.16486e-06
1.16853e-06
1.17204e-06
1.17539e-06
1.17859e-06
1.18162e-06
1.18449e-06
1.1872e-06
1.1897e-06
1.19223e-06
1.19418e-06
6.78633e-08
6.79763e-08
6.82096e-08
6.85617e-08
6.90322e-08
6.96225e-08
7.03344e-08
7.11699e-08
7.21307e-08
7.32187e-08
7.44358e-08
7.57839e-08
7.72646e-08
7.88799e-08
8.06314e-08
8.2521e-08
8.45503e-08
8.67209e-08
8.90345e-08
9.14926e-08
9.40965e-08
9.68476e-08
9.97472e-08
1.02796e-07
1.05996e-07
1.09348e-07
1.12851e-07
1.16508e-07
1.20318e-07
1.24281e-07
1.28399e-07
1.3267e-07
1.37095e-07
1.41673e-07
1.46403e-07
1.51285e-07
1.56317e-07
1.61499e-07
1.66829e-07
1.72304e-07
1.77924e-07
1.83687e-07
1.89589e-07
1.95628e-07
2.01801e-07
2.08107e-07
2.1454e-07
2.21099e-07
2.27779e-07
2.34578e-07
2.41491e-07
2.48514e-07
2.55643e-07
2.62875e-07
2.70206e-07
2.7763e-07
2.85145e-07
2.92745e-07
3.00427e-07
3.08186e-07
3.16018e-07
3.23919e-07
3.31885e-07
3.39913e-07
3.47998e-07
3.56136e-07
3.64325e-07
3.72559e-07
3.80838e-07
3.89156e-07
3.97511e-07
4.059e-07
4.1432e-07
4.22769e-07
4.31245e-07
4.39744e-07
4.48265e-07
4.56807e-07
4.65366e-07
4.73942e-07
4.82533e-07
4.91137e-07
4.99754e-07
5.08382e-07
5.1702e-07
5.25669e-07
5.34326e-07
5.42992e-07
5.51666e-07
5.60349e-07
5.6904e-07
5.77739e-07
5.86447e-07
5.95164e-07
6.0389e-07
6.12627e-07
6.21374e-07
6.30133e-07
6.38903e-07
6.47687e-07
6.56482e-07
6.65291e-07
6.74111e-07
6.82944e-07
6.91789e-07
7.00645e-07
7.09511e-07
7.18386e-07
7.2727e-07
7.3616e-07
7.45057e-07
7.53957e-07
7.6286e-07
7.71763e-07
7.80665e-07
7.89564e-07
7.98456e-07
8.07341e-07
8.16216e-07
8.25077e-07
8.33922e-07
8.42749e-07
8.51553e-07
8.60333e-07
8.69085e-07
8.77805e-07
8.8649e-07
8.95137e-07
9.03742e-07
9.12302e-07
9.20812e-07
9.29268e-07
9.37668e-07
9.46006e-07
9.5428e-07
9.62485e-07
9.70617e-07
9.78672e-07
9.86646e-07
9.94535e-07
1.00234e-06
1.01004e-06
1.01766e-06
1.02517e-06
1.03257e-06
1.03987e-06
1.04706e-06
1.05413e-06
1.06108e-06
1.06792e-06
1.07462e-06
1.0812e-06
1.08765e-06
1.09396e-06
1.10014e-06
1.10618e-06
1.11208e-06
1.11783e-06
1.12344e-06
1.1289e-06
1.13421e-06
1.13937e-06
1.14437e-06
1.14923e-06
1.15393e-06
1.15848e-06
1.16287e-06
1.1671e-06
1.17118e-06
1.1751e-06
1.17886e-06
1.18246e-06
1.1859e-06
1.18917e-06
1.19228e-06
1.19521e-06
1.19799e-06
1.20054e-06
1.20311e-06
1.20508e-06
6.59198e-08
6.60332e-08
6.6263e-08
6.66079e-08
6.70678e-08
6.76438e-08
6.83379e-08
6.91516e-08
7.00869e-08
7.11454e-08
7.23289e-08
7.36392e-08
7.50779e-08
7.66469e-08
7.83478e-08
8.01823e-08
8.21521e-08
8.42588e-08
8.65041e-08
8.88894e-08
9.14163e-08
9.40861e-08
9.69002e-08
9.98598e-08
1.02966e-07
1.0622e-07
1.09623e-07
1.13175e-07
1.16877e-07
1.20729e-07
1.24732e-07
1.28887e-07
1.33192e-07
1.37648e-07
1.42254e-07
1.4701e-07
1.51915e-07
1.56968e-07
1.62168e-07
1.67513e-07
1.73002e-07
1.78632e-07
1.84402e-07
1.9031e-07
1.96352e-07
2.02527e-07
2.08831e-07
2.15262e-07
2.21816e-07
2.2849e-07
2.3528e-07
2.42183e-07
2.49196e-07
2.56313e-07
2.63533e-07
2.7085e-07
2.78261e-07
2.85761e-07
2.93347e-07
3.01016e-07
3.08762e-07
3.16582e-07
3.24473e-07
3.3243e-07
3.4045e-07
3.4853e-07
3.56665e-07
3.64854e-07
3.73091e-07
3.81376e-07
3.89703e-07
3.98072e-07
4.06479e-07
4.14921e-07
4.23397e-07
4.31904e-07
4.4044e-07
4.49003e-07
4.57591e-07
4.66203e-07
4.74838e-07
4.83493e-07
4.92169e-07
5.00862e-07
5.09574e-07
5.18303e-07
5.27048e-07
5.35809e-07
5.44586e-07
5.53379e-07
5.62187e-07
5.71011e-07
5.79852e-07
5.88708e-07
5.97582e-07
6.06473e-07
6.15382e-07
6.24311e-07
6.33259e-07
6.42227e-07
6.51215e-07
6.60222e-07
6.6925e-07
6.78296e-07
6.87361e-07
6.96443e-07
7.05542e-07
7.14657e-07
7.23786e-07
7.32928e-07
7.42081e-07
7.51243e-07
7.60413e-07
7.69589e-07
7.78768e-07
7.87947e-07
7.97125e-07
8.06299e-07
8.15466e-07
8.24623e-07
8.33767e-07
8.42894e-07
8.52002e-07
8.61087e-07
8.70146e-07
8.79174e-07
8.88168e-07
8.97124e-07
9.06038e-07
9.14906e-07
9.23724e-07
9.32488e-07
9.41193e-07
9.49835e-07
9.5841e-07
9.66915e-07
9.75343e-07
9.83691e-07
9.91955e-07
1.00013e-06
1.00821e-06
1.0162e-06
1.02408e-06
1.03186e-06
1.03952e-06
1.04708e-06
1.05452e-06
1.06183e-06
1.06902e-06
1.07609e-06
1.08302e-06
1.08981e-06
1.09647e-06
1.10299e-06
1.10936e-06
1.11559e-06
1.12167e-06
1.1276e-06
1.13338e-06
1.139e-06
1.14447e-06
1.14978e-06
1.15493e-06
1.15992e-06
1.16475e-06
1.16942e-06
1.17393e-06
1.17828e-06
1.18247e-06
1.18649e-06
1.19035e-06
1.19404e-06
1.19757e-06
1.20092e-06
1.20411e-06
1.20711e-06
1.20996e-06
1.21257e-06
1.21519e-06
1.2172e-06
6.3726e-08
6.384e-08
6.4066e-08
6.44033e-08
6.48518e-08
6.54126e-08
6.60875e-08
6.6878e-08
6.7786e-08
6.8813e-08
6.99607e-08
7.12308e-08
7.26249e-08
7.41447e-08
7.57919e-08
7.75682e-08
7.94753e-08
8.15147e-08
8.3688e-08
8.5997e-08
8.8443e-08
9.10277e-08
9.37524e-08
9.66184e-08
9.9627e-08
1.02779e-07
1.06077e-07
1.0952e-07
1.1311e-07
1.16847e-07
1.20732e-07
1.24765e-07
1.28946e-07
1.33276e-07
1.37754e-07
1.4238e-07
1.47153e-07
1.52073e-07
1.57139e-07
1.62349e-07
1.67702e-07
1.73197e-07
1.78832e-07
1.84604e-07
1.90512e-07
1.96553e-07
2.02724e-07
2.09024e-07
2.15449e-07
2.21995e-07
2.28661e-07
2.35442e-07
2.42335e-07
2.49338e-07
2.56445e-07
2.63653e-07
2.7096e-07
2.78361e-07
2.85852e-07
2.9343e-07
3.01092e-07
3.08833e-07
3.1665e-07
3.24539e-07
3.32498e-07
3.40522e-07
3.48609e-07
3.56756e-07
3.64959e-07
3.73215e-07
3.81522e-07
3.89877e-07
3.98278e-07
4.06722e-07
4.15207e-07
4.23731e-07
4.32292e-07
4.40887e-07
4.49516e-07
4.58176e-07
4.66867e-07
4.75586e-07
4.84333e-07
4.93107e-07
5.01906e-07
5.10731e-07
5.19579e-07
5.28452e-07
5.37348e-07
5.46268e-07
5.55211e-07
5.64178e-07
5.73169e-07
5.82184e-07
5.91224e-07
6.00289e-07
6.09381e-07
6.185e-07
6.27646e-07
6.36819e-07
6.4602e-07
6.55249e-07
6.64503e-07
6.73785e-07
6.83091e-07
6.92422e-07
7.01776e-07
7.11151e-07
7.20547e-07
7.29962e-07
7.39394e-07