/*--------------------------------*- C++ -*----------------------------------*\
| =========                 |                                                 |
| \\      /  F ield         | OpenFOAM: The Open Source CFD Toolbox           |
|  \\    /   O peration     | Version:  2.3.0                                 |
|   \\  /    A nd           | Web:      www.OpenFOAM.org                      |
|    \\/     M anipulation  |                                                 |
\*---------------------------------------------------------------------------*/
FoamFile
{
    version     2.0;
    format      ascii;
    class       volScalarField;
    location    "0.086";
    object      alpha.water;
}
// * * * * * * * * * * * * * * * * * * * * * * * * * * * * * * * * * * * * * //

dimensions      [0 0 0 0 0 0 0];

internalField   nonuniform List<scalar> 
725
(
1
1
1
1.00002
1.00003
1
1
1
1.00001
1.00002
1
1
1
1
1.00005
1
1
1
1.00001
1
1
1
1
1.00016
0.997756
1.00002
1
0.99178
0.944793
0.930958
0.977067
0.999871
0.999871
0.999868
0.99986
0.999865
0.999896
0.99994
0.99998
0.999994
0.999992
0.999993
1
1.00001
1.00001
1.00001
1.00002
1.00001
0.815911
0.0641808
0.000402807
0.000367237
0.000402384
0.119294
0.904609
0.999964
0.999959
0.999999
1.00001
1.00002
1.00002
1.00002
1.00003
1.00003
1.00002
1.00007
0.999686
1
0.979487
0.269604
1.00002
0.995378
0.92485
0.927252
0.942752
0.957188
0.991174
0.999871
0.999769
0.999959
0.99987
0.999857
0.999847
0.99983
0.999818
0.999817
0.999823
0.999831
0.99984
0.999866
0.99991
0.99999
1
0.830602
0.0672046
0.000360179
0.000339097
0.00035906
0.13931
0.879743
0.999858
0.999744
0.999751
0.999725
0.999717
0.999729
0.999747
0.999771
0.99979
0.9998
0.999772
0.999675
1
0.953769
0.175835
1
0.954927
0.225718
0.376723
0.816751
0.950172
0.979046
0.998572
0.999936
0.999883
0.999874
0.99985
0.999847
0.999836
0.999817
0.999799
0.999789
0.999791
0.999801
0.999815
0.999891
0.999979
1
0.836694
0.0854852
0.00033624
0.000331297
0.000334228
0.164171
0.860356
0.999872
0.999873
0.999813
0.999771
0.999724
0.999676
0.999633
0.999598
0.999571
0.999558
0.999553
0.99953
0.999999
0.861437
0.0822948
0.987774
0.747227
0.0232147
0.0166696
0.317145
0.784462
0.932934
0.993456
1
1.00003
0.999943
0.999974
0.999883
0.99985
0.999828
0.999811
0.999799
0.999794
0.999799
0.999811
0.99987
1.00005
1
0.829195
0.113915
0.000331374
0.000328523
0.000327678
0.186579
0.839845
0.99987
0.99987
0.999843
0.999812
0.999784
0.999747
0.999701
0.999651
0.999598
0.999545
0.99949
0.999435
1
0.825502
0.0819435
0.973304
0.5315
0.0420714
0.0116622
0.0671756
0.570484
0.880327
0.995736
0.999951
0.999881
0.999894
0.99987
0.999954
0.99986
0.999835
0.99982
0.999809
0.999804
0.999811
0.999818
0.999918
1.00007
1
0.814171
0.147881
0.00033326
0.000328581
0.000328014
0.210522
0.858561
0.999868
0.999863
0.999768
0.999738
0.999739
0.999737
0.999717
0.999679
0.999627
0.999567
0.999488
0.999408
1
0.86028
0.0819392
0.68002
0.348109
0.0295068
0.00715902
0.00717534
0.274897
0.79515
0.999915
0.999921
0.999753
0.996374
0.999667
0.999797
0.999847
0.999832
0.999821
0.999813
0.999812
0.999821
0.999827
0.999933
1.00032
1.00002
0.81265
0.142237
0.000326143
0.000339177
0.000327438
0.165077
0.839171
0.999848
0.999799
0.999691
0.999662
0.999648
0.999648
0.99964
0.999619
0.999566
0.999513
0.999429
0.999362
1.00002
0.88319
0.0819402
0.241175
0.321834
0.048555
0.0068013
0.00647748
0.0863423
0.758351
0.999892
0.999901
0.995588
0.993311
0.99952
0.999789
0.999834
0.999829
0.999824
0.999819
0.999819
0.999829
0.999838
0.999937
1.00025
1.00002
0.81644
0.135375
0.000609691
0.000735868
0.000330622
0.168945
0.842149
0.999802
0.999758
0.999647
0.999643
0.999645
0.999636
0.999617
0.999583
0.99953
0.999466
0.999389
0.99932
1
0.901294
0.096971
0.611905
0.364129
0.0415782
0.00599455
0.00541666
0.0749188
0.743328
0.999256
0.999862
0.993347
0.993326
0.998867
0.999715
0.999819
0.999828
0.999827
0.999825
0.999826
0.999837
0.999847
0.99994
1.00032
1.00004
0.801525
0.142388
0.000347996
0.00430125
0.000410075
0.159812
0.842033
0.999742
0.999676
0.999626
0.999655
0.999661
0.999641
0.999609
0.999565
0.999511
0.999442
0.99937
0.999296
1
0.921605
0.120108
0.957562
0.365744
0.00931601
0.00540899
0.00404832
0.0583235
0.62896
0.999205
0.999793
0.993312
0.998584
0.998541
0.999675
0.999808
0.999829
0.999834
0.999833
0.999835
0.999846
0.999855
0.999957
1.00025
1.00003
0.796406
0.142384
0.000249776
0.00430113
0.00043174
0.165531
0.840803
0.999786
0.999668
0.99964
0.999679
0.999681
0.999651
0.999611
0.999561
0.999506
0.999436
0.999366
0.999287
1.00004
0.938535
0.144582
0.960329
0.326633
0.00541283
0.00415895
0.00293555
0.0378441
0.63057
0.999989
0.999724
0.996484
0.999967
0.998608
0.999658
0.999788
0.999827
0.999839
0.99984
0.999843
0.999853
0.999862
0.99995
1.00032
1.00003
0.802332
0.135653
0.000225327
0.00281536
0.000205766
0.165841
0.843925
0.999858
0.999615
0.999655
0.999706
0.999698
0.999657
0.999611
0.999558
0.999503
0.999437
0.999368
0.999288
1.00003
0.947337
0.170046
1
1
1
1.00004
0.999998
1
1
1
1.00004
1.00001
1
1
1
1.00002
1.00009
1
1
1
1.00006
1.00011
1
1
0.999999
1.00006
1.0001
0.989131
0.381786
0.0192112
0.00221533
0.00173233
0.019803
0.447054
0.999989
0.999769
1.00002
0.999966
0.999057
0.999628
0.999826
0.999854
0.99985
0.999847
0.999851
0.999861
0.999866
0.999952
1.00004
1.00001
0.805486
0.120702
0.000213989
0.000200571
0.000195315
0.200376
0.863706
0.999887
0.999864
0.999843
0.999787
0.99972
0.99966
0.999606
0.999552
0.999496
0.999437
0.999364
0.999397
1
0.987794
0.281546
0.993549
0.594606
0.0433756
0.00172503
0.00169559
0.00174173
0.148639
0.999989
0.999982
1.00003
0.999798
0.99953
0.999736
0.999881
0.999857
0.999855
0.999864
0.999879
0.999895
0.999904
0.999942
1.00011
1.00002
0.78306
0.0878979
0.000224882
0.000232259
0.000195301
0.156333
0.837471
0.999932
0.999932
0.999818
0.999744
0.999675
0.999615
0.999558
0.999505
0.999453
0.999406
0.999362
0.999335
1
0.988123
0.273082
1
0.804207
0.0440613
0.00170571
0.00170448
0.00170246
0.115435
0.997874
1.00004
0.999917
0.999872
0.999797
0.999909
0.99986
0.99986
0.999872
0.999889
0.999911
0.99993
0.999943
0.999964
1.00003
1
0.773862
0.0571232
0.000232498
0.000293292
0.000195425
0.122446
0.851428
0.999863
0.999787
0.999774
0.999697
0.999636
0.999592
0.999561
0.999549
0.999546
0.999551
0.999547
0.99951
0.999999
0.986361
0.271755
1
0.888424
0.104979
0.00170435
0.00170405
0.00170386
0.0686197
0.950894
1
0.999896
0.999885
0.999864
0.999874
0.999882
0.999918
0.999953
1
1.00001
1
0.999994
0.999998
1.00002
1.00001
0.760553
0.0377971
0.000270842
0.000290286
0.000210151
0.0838157
0.86287
0.999958
0.999801
0.999751
0.999717
0.999718
0.999737
0.99976
0.999785
0.999801
0.999803
0.999786
0.999678
0.999996
0.919255
0.124648
1
0.932825
0.136377
0.00170408
0.00170387
0.00170385
0.062952
0.927124
1
0.999959
0.999983
0.999982
0.999995
1.00001
1.00002
1.00001
1.00002
1
1
1.00001
1.00001
1.00002
1.00001
0.751965
0.0293543
0.000308537
0.000298956
0.000270476
0.0602559
0.872053
1
1.00002
1.00003
1.00003
1.00003
1.00003
1.00002
1.00003
1.00002
1.00003
0.99996
0.99968
0.999992
0.808776
0.0915752
)
;

boundaryField
{
    AirInlet
    {
        type            fixedValue;
        value           uniform 0;
    }
    WaterInlet
    {
        type            fixedValue;
        value           uniform 1;
    }
    ChannelWall
    {
        type            zeroGradient;
    }
    Outlet
    {
        type            inletOutlet;
        inletValue      uniform 0;
        value           nonuniform List<scalar> 
15
(
0
0
0.0822948
0.0819435
0.0819392
0.0819402
0
0.120108
0
0
0
0
0
0.124648
0.0915752
)
;
    }
    FrontAndBack
    {
        type            empty;
    }
}


// ************************************************************************* //
