/*--------------------------------*- C++ -*----------------------------------*\
| =========                 |                                                 |
| \\      /  F ield         | OpenFOAM: The Open Source CFD Toolbox           |
|  \\    /   O peration     | Version:  2.3.0                                 |
|   \\  /    A nd           | Web:      www.OpenFOAM.org                      |
|    \\/     M anipulation  |                                                 |
\*---------------------------------------------------------------------------*/
FoamFile
{
    version     2.0;
    format      ascii;
    class       volScalarField;
    location    "0.086";
    object      p;
}
// * * * * * * * * * * * * * * * * * * * * * * * * * * * * * * * * * * * * * //

dimensions      [1 -1 -2 0 0 0 0];

internalField   nonuniform List<scalar> 
725
(
-952.743
-1004.74
-1001.7
-1000.49
-1201.03
-959.033
-1004.88
-1002.44
-1002.46
-1188.68
-961.968
-1005.49
-1004.77
-1002.97
-1179.91
-961.808
-1006.76
-1008.38
-994.702
-1152.27
-958.598
-1008.54
-1013.59
-1000.35
-1116.43
-1020.8
-1290.2
-1044.25
-935.121
-601.59
-519.896
-628.121
-699.993
-667.648
-639.662
-624.589
-616.54
-604.637
-595.433
-590.808
-588.391
-587.161
-586.566
-585.855
-586.518
-583.73
-589.304
-590.475
-709.903
-580.609
-575.67
-574.506
-574.1
-588.354
-569.234
-563.26
-575.249
-581.757
-586.42
-590.03
-593.733
-595.742
-600.821
-596.079
-611.06
-563.404
-602.517
-378.568
104.428
108.289
-1003.33
-1352.95
-1394.46
-998.302
-584.437
-585.651
-695.472
-711.13
-664.498
-637.736
-624.849
-614.901
-602.88
-594.462
-590.684
-588.699
-587.697
-587.249
-586.592
-586.912
-583.42
-585.255
-583.873
-666.473
-587.515
-576.134
-574.208
-575.986
-591.086
-584.494
-566.011
-575.852
-582.551
-587.501
-591.27
-594.977
-596.974
-602.004
-598.189
-613.924
-577.304
-633.843
-442.135
-366.738
-39.1964
-1054.09
-1314.89
-507.178
-548.501
-466.525
-576.642
-742.645
-730.045
-660.599
-633.09
-625.553
-614.719
-600.625
-592.287
-589.489
-588.007
-587.366
-587.259
-586.685
-586.819
-582.491
-580.412
-569.412
-591.632
-589.709
-576.961
-573.504
-578.244
-577.695
-564.673
-566.735
-576.742
-583.227
-588.047
-591.518
-594.877
-596.438
-601.893
-599.267
-617.364
-593.258
-692.291
-631.877
-1218.65
175.992
-1012.69
-1230.04
312.883
187.384
-164.12
-453.672
-741.266
-723.384
-652.496
-623.546
-627.615
-614.973
-598.305
-589.535
-587.974
-587.323
-587.156
-587.341
-586.957
-587.086
-581.997
-576.582
-555.275
-508.009
-564.98
-578.618
-572.215
-581.13
-504.881
-481.542
-562.384
-576.885
-583.627
-588.444
-591.84
-595.237
-596.92
-602.413
-600.076
-619.511
-603.338
-727.293
-734.35
-1338.34
200.499
-1135.97
-749.185
192.217
197.689
68.8624
-418.165
-750.529
-715.498
-638.79
-615.079
-634.673
-616.269
-595.115
-586.245
-586.063
-586.356
-586.848
-587.563
-587.573
-587.944
-582.805
-575.17
-546.513
-426.588
-495.222
-581.194
-569.331
-583.149
-501.633
-502.862
-567.696
-578.319
-584.853
-589.611
-592.552
-595.69
-596.986
-602.331
-600.192
-618.854
-603.937
-716.195
-745.378
-1469.76
193.112
-1587.87
-430.995
251.263
266.355
257.567
-417.78
-523.082
-701.686
-627.132
-606.368
-640.01
-614.503
-593.298
-584.395
-584.988
-585.7
-586.601
-587.726
-587.891
-589.067
-583.994
-572.795
-542.576
-453.208
-553.158
-582.726
-564.488
-583.052
-611.471
-601.292
-576.441
-579.03
-585.345
-590.184
-592.76
-596.203
-596.862
-602.995
-598.55
-618.485
-595.518
-697.819
-692.437
-1512.08
195.31
12930.4
184.682
495.821
267.727
264.225
45.4483
-526.306
-699.111
-624.244
-601.249
-537.897
-612.93
-592.425
-583.68
-584.569
-585.469
-586.517
-587.781
-588.053
-589.499
-584.619
-575.859
-544.539
-455.147
-550.532
-583.691
-564.732
-583.593
-648.418
-627.081
-578.935
-579.577
-585.641
-589.774
-592.771
-595.994
-596.85
-603.112
-598.252
-618.104
-593.175
-689.723
-666.807
-1396.87
85.5501
643.806
-40.7951
353.679
267.935
267.983
142.174
-613.832
-697.016
-622.175
-527.625
-542.795
-609.992
-591.241
-582.974
-584.095
-585.237
-586.439
-587.833
-588.252
-589.915
-585.372
-576.712
-551.764
-490.698
-545.004
-586.283
-584.809
-585.192
-638.45
-635.025
-580.298
-580.302
-585.32
-590.466
-593.458
-596.291
-596.829
-603.101
-598.06
-617.385
-590.948
-679.879
-636.157
-1160.79
-24.0902
2092.28
-126.136
347.96
263.248
265.003
232.621
-546.49
-687.269
-618.575
-524.656
-556.805
-603.24
-589.999
-582.26
-583.662
-585
-586.365
-587.886
-588.475
-590.334
-586.166
-580.83
-557.763
-478.674
-536.472
-588.592
-579.45
-587.43
-649.867
-626.675
-579.916
-580.415
-586.304
-590.781
-593.614
-596.438
-596.972
-603.069
-597.937
-616.541
-588.801
-669.087
-603.261
-883.109
-77.7068
1939.33
-590.315
418.032
260.774
265.95
234.189
-532.15
-659.798
-613.288
-539.225
-560.3
-601.747
-588.985
-581.29
-583.149
-584.761
-586.295
-587.936
-588.733
-590.739
-587.208
-581.696
-558.604
-495.007
-560.458
-589.156
-618.855
-589.57
-617.899
-577.96
-575.536
-578.885
-586.987
-591.123
-593.78
-596.484
-597.134
-602.953
-597.971
-615.519
-586.942
-657.745
-570.014
-673.568
-73.4376
1106.7
1065.13
1070.3
939.724
1061.97
1103.34
1066.89
1069.78
945.985
1092.22
1102.91
1067.89
1068.35
953.179
1147.16
1105.52
1068.15
1068.9
960.763
1189.43
1111.34
1067.62
1070.31
964.576
1201.65
1748.63
-449.197
202.431
268.753
269.287
244.575
-94.7267
-576.278
-593.399
-538.029
-567.153
-609.515
-586.091
-580.32
-581.919
-584.108
-586.111
-588.06
-589.523
-591.753
-590.284
-588.889
-559.831
-492.044
-590.432
-590.404
-598.448
-594.066
-480.307
-430.533
-557.148
-588.702
-589.414
-591.977
-594.294
-596.688
-597.741
-602.285
-598.434
-611.493
-582.034
-626.124
-485.775
-115.078
-8.41229
1324.73
-94.4827
207.947
266.634
267.262
259.26
54.9563
-639.395
-560.777
-536.396
-568.969
-595.654
-580.556
-577.696
-580.129
-583.192
-585.847
-588.358
-590.694
-594.319
-595.739
-600.776
-598.677
-616.483
-599.409
-591.523
-596.92
-594.414
-544.477
-491.225
-571.63
-590.682
-592.888
-593.992
-595.365
-597.117
-597.762
-602.041
-597.443
-609.175
-574.785
-601.583
-408.124
150.752
52.6454
1152.24
564.672
250.301
267.085
267
262.083
111.725
-503.824
-518.942
-533.145
-564.66
-583.264
-574.672
-575.295
-578.684
-582.464
-585.649
-588.669
-591.776
-596.777
-601.554
-615.263
-635.751
-724.64
-601.4
-591.856
-595.854
-593.357
-604.347
-675.104
-603.83
-600.418
-596.663
-595.397
-595.803
-597.326
-598.004
-602.244
-597.815
-609.41
-576.424
-611.198
-441.445
-76.3919
16.1605
1100.35
972.955
282.938
266.406
266.389
260.897
226.476
-342.421
-485.549
-528.087
-560.511
-574.957
-569.839
-573.377
-577.62
-581.913
-585.494
-588.907
-592.652
-598.757
-606.254
-626.884
-656.97
-777.615
-596.771
-591.95
-594.659
-592.569
-607.983
-714.802
-618.451
-608.261
-599.663
-597.13
-596.959
-598.021
-598.347
-602.399
-598.187
-611.114
-583.816
-650.095
-544.459
-843.221
176.055
1076.79
1171.67
319.038
264.398
266.076
261.12
237.168
-381.861
-477.308
-525.901
-559.076
-570.529
-566.248
-571.376
-576.407
-581.312
-585.296
-589.12
-593.164
-599.875
-608.618
-633.279
-667.249
-802.759
-592.594
-591.872
-594.143
-591.871
-601.223
-758.14
-624.506
-612.132
-600.69
-597.015
-596.258
-597.182
-597.457
-601.692
-597.636
-612.105
-590.229
-689.437
-635.145
-1253.4
365.835
)
;

boundaryField
{
    AirInlet
    {
        type            calculated;
        value           nonuniform List<scalar> 5(-2054.56 29113.7 162.16 -5569.21 -20790.8);
    }
    WaterInlet
    {
        type            calculated;
        value           nonuniform List<scalar> 10(-952.741 -959.027 -961.958 -961.794 -958.58 1106.68 1103.32 1102.9 1105.51 1111.34);
    }
    ChannelWall
    {
        type            calculated;
        value           nonuniform List<scalar> 
110
(
-958.624
-1008.57
-1013.62
-1000.39
-1116.47
1106.72
1065.16
1070.34
939.762
1062.01
1111.31
1067.59
1070.28
964.538
1201.6
1076.75
1171.63
319.032
264.397
266.076
261.12
237.165
-381.902
-477.352
-525.945
-559.12
-570.573
-566.292
-571.42
-576.452
-581.356
-585.34
-589.164
-593.208
-599.92
-608.662
-633.323
-667.293
-802.792
-592.595
-591.872
-594.143
-591.871
-601.225
-758.178
-624.55
-612.176
-600.734
-597.059
-596.302
-597.226
-597.501
-601.736
-597.68
-612.149
-590.273
-689.481
-635.19
-1253.43
365.831
-952.716
-1004.71
-1001.67
-1000.45
-1200.99
-1020.76
-1290.15
-1044.21
-935.079
-601.549
-519.853
-628.077
-699.949
-667.604
-639.618
-624.545
-616.496
-604.593
-595.389
-590.763
-588.347
-587.117
-586.522
-585.81
-586.474
-583.686
-589.26
-590.431
-709.867
-580.606
-575.67
-574.506
-574.1
-588.349
-569.194
-563.216
-575.205
-581.713
-586.376
-589.985
-593.689
-595.698
-600.777
-596.035
-611.016
-563.36
-602.473
-378.524
104.471
108.301
)
;
    }
    Outlet
    {
        type            calculated;
        value           nonuniform List<scalar> 
15
(
-0.194509
-0.383159
-0.0183671
-0.0256055
-0.0329196
-0.0373906
-0.00047088
-0.0593444
-0.0025807
-0.112501
-0.34255
-0.268629
-0.195105
-0.106514
-0.0866437
)
;
    }
    FrontAndBack
    {
        type            empty;
    }
}


// ************************************************************************* //
