/*--------------------------------*- C++ -*----------------------------------*\
| =========                 |                                                 |
| \\      /  F ield         | OpenFOAM: The Open Source CFD Toolbox           |
|  \\    /   O peration     | Version:  2.3.0                                 |
|   \\  /    A nd           | Web:      www.OpenFOAM.org                      |
|    \\/     M anipulation  |                                                 |
\*---------------------------------------------------------------------------*/
FoamFile
{
    version     2.0;
    format      ascii;
    class       volScalarField;
    location    "0.086";
    object      p_rgh;
}
// * * * * * * * * * * * * * * * * * * * * * * * * * * * * * * * * * * * * * //

dimensions      [1 -1 -2 0 0 0 0];

internalField   nonuniform List<scalar> 
725
(
-952.716
-1004.71
-1001.67
-1000.45
-1200.99
-958.954
-1004.79
-1002.34
-1002.34
-1188.56
-961.835
-1005.33
-1004.6
-1002.78
-1179.7
-961.622
-1006.55
-1008.14
-994.434
-1151.98
-958.359
-1008.26
-1013.28
-1000.01
-1116.05
-1020.76
-1290.15
-1044.21
-935.079
-601.549
-519.853
-628.077
-699.949
-667.604
-639.618
-624.545
-616.496
-604.593
-595.389
-590.763
-588.347
-587.117
-586.522
-585.81
-586.474
-583.686
-589.26
-590.431
-709.867
-580.606
-575.67
-574.506
-574.1
-588.349
-569.194
-563.216
-575.205
-581.713
-586.376
-589.985
-593.689
-595.698
-600.777
-596.035
-611.016
-563.36
-602.473
-378.524
104.471
108.301
-1003.2
-1352.82
-1394.33
-998.179
-584.312
-585.524
-695.34
-710.998
-664.366
-637.603
-624.717
-614.768
-602.747
-594.33
-590.551
-588.567
-587.565
-587.117
-586.459
-586.779
-583.288
-585.123
-583.741
-666.363
-587.506
-576.134
-574.208
-575.986
-591.068
-584.378
-565.878
-575.72
-582.418
-587.369
-591.137
-594.845
-596.842
-601.871
-598.056
-613.792
-577.171
-633.711
-442.003
-366.612
-39.173
-1053.87
-1314.68
-507.128
-548.418
-466.344
-576.432
-742.428
-729.825
-660.379
-632.87
-625.333
-614.498
-600.404
-592.067
-589.268
-587.786
-587.145
-587.038
-586.465
-586.598
-582.27
-580.191
-569.192
-591.447
-589.69
-576.96
-573.504
-578.244
-577.658
-564.483
-566.514
-576.521
-583.006
-587.826
-591.297
-594.656
-596.217
-601.673
-599.046
-617.143
-593.037
-692.07
-631.657
-1218.46
176.01
-1012.39
-1229.81
312.89
187.389
-164.022
-453.43
-740.978
-723.077
-652.187
-623.237
-627.306
-614.664
-597.996
-589.226
-587.665
-587.014
-586.847
-587.032
-586.648
-586.777
-581.688
-576.273
-554.966
-507.753
-564.944
-578.618
-572.215
-581.13
-504.823
-481.282
-562.075
-576.576
-583.318
-588.135
-591.531
-594.928
-596.611
-602.104
-599.767
-619.202
-603.03
-726.984
-734.041
-1338.09
200.525
-1135.58
-748.974
192.235
197.694
68.8894
-417.938
-750.179
-715.103
-638.393
-614.682
-634.276
-615.872
-594.718
-585.848
-585.666
-585.959
-586.45
-587.166
-587.176
-587.547
-582.407
-574.773
-546.116
-426.264
-495.163
-581.193
-569.33
-583.148
-501.549
-502.521
-567.299
-577.922
-584.456
-589.214
-592.155
-595.293
-596.589
-601.934
-599.795
-618.457
-603.54
-715.798
-744.981
-1469.42
193.145
-1587.57
-430.838
251.277
266.358
257.57
-417.656
-522.723
-701.235
-626.681
-605.917
-639.56
-614.052
-592.847
-583.943
-584.537
-585.248
-586.149
-587.275
-587.44
-588.616
-583.542
-572.344
-542.125
-452.841
-553.093
-582.725
-564.487
-583.051
-611.396
-600.913
-575.99
-578.579
-584.894
-589.733
-592.309
-595.752
-596.411
-602.544
-598.099
-618.034
-595.067
-697.368
-691.986
-1511.68
195.348
12930.5
184.833
495.845
267.731
264.229
45.4894
-525.949
-698.64
-623.773
-600.78
-537.429
-612.459
-591.954
-583.209
-584.098
-584.998
-586.046
-587.31
-587.582
-589.029
-584.148
-575.388
-544.068
-454.763
-550.468
-583.69
-564.731
-583.592
-648.338
-626.685
-578.464
-579.107
-585.17
-589.303
-592.301
-595.523
-596.379
-602.642
-597.781
-617.634
-592.704
-689.252
-666.336
-1396.45
85.5962
644.106
-40.6161
353.7
267.938
267.986
142.211
-613.467
-696.526
-621.685
-527.137
-542.308
-609.502
-590.751
-582.484
-583.605
-584.747
-585.948
-587.342
-587.762
-589.425
-584.882
-576.222
-551.274
-490.305
-544.934
-586.282
-584.807
-585.191
-638.371
-634.611
-579.808
-579.812
-584.829
-589.975
-592.968
-595.801
-596.339
-602.611
-597.57
-616.894
-590.458
-679.389
-635.666
-1160.34
-24.0308
2092.77
-125.949
347.965
263.251
265.005
232.651
-546.169
-686.759
-618.065
-524.149
-556.296
-602.73
-589.489
-581.75
-583.152
-584.49
-585.855
-587.376
-587.965
-589.824
-585.656
-580.32
-557.253
-478.268
-536.399
-588.592
-579.447
-587.43
-649.782
-626.246
-579.406
-579.905
-585.794
-590.271
-593.104
-595.928
-596.462
-602.559
-597.427
-616.031
-588.292
-668.577
-602.751
-882.631
-77.6326
1939.83
-590.142
418.036
260.777
265.952
234.209
-531.816
-659.268
-612.758
-538.697
-559.77
-601.218
-588.456
-580.76
-582.619
-584.232
-585.765
-587.406
-588.203
-590.209
-586.678
-581.167
-558.075
-494.582
-560.386
-589.156
-618.853
-589.57
-617.811
-577.513
-575.007
-578.356
-586.457
-590.593
-593.25
-595.954
-596.604
-602.423
-597.442
-614.989
-586.413
-657.216
-569.484
-673.066
-73.3471
1107.44
1065.84
1070.97
940.361
1062.57
1104.13
1067.66
1070.52
946.698
1092.91
1103.75
1068.72
1069.16
953.969
1147.93
1106.42
1069.04
1069.78
961.629
1190.29
1112.29
1068.57
1071.26
965.519
1202.59
1749.21
-448.974
202.442
268.755
269.289
244.588
-94.4654
-575.695
-592.816
-537.445
-566.569
-608.932
-585.508
-579.737
-581.336
-583.525
-585.528
-587.476
-588.939
-591.17
-589.7
-588.305
-559.247
-491.574
-590.361
-590.404
-598.447
-594.065
-480.19
-430.028
-556.565
-588.118
-588.83
-591.393
-593.71
-596.105
-597.158
-601.701
-597.85
-610.909
-581.451
-625.54
-485.191
-114.501
-8.24753
1325.39
-94.0828
207.977
266.636
267.264
259.262
55.0568
-638.723
-560.105
-535.724
-568.297
-594.982
-579.884
-577.024
-579.457
-582.52
-585.175
-587.686
-590.022
-593.647
-595.067
-600.103
-598.005
-615.957
-599.349
-591.522
-596.92
-594.413
-544.371
-490.662
-570.958
-590.01
-592.217
-593.32
-594.693
-596.445
-597.09
-601.369
-596.771
-608.503
-574.114
-600.912
-407.452
151.416
52.8294
1153
565.284
250.335
267.087
267.002
262.085
111.813
-503.065
-518.181
-532.385
-563.9
-582.504
-573.912
-574.535
-577.924
-581.703
-584.889
-587.909
-591.015
-596.017
-600.794
-614.503
-634.991
-724.051
-601.356
-591.855
-595.853
-593.356
-604.253
-674.456
-603.07
-599.657
-595.902
-594.637
-595.043
-596.566
-597.244
-601.485
-597.055
-608.65
-575.664
-610.438
-440.685
-75.6419
16.3677
1101.2
973.709
283.028
266.409
266.391
260.9
226.535
-341.614
-484.7
-527.239
-559.663
-574.109
-568.99
-572.529
-576.772
-581.065
-584.645
-588.058
-591.803
-597.908
-605.406
-626.036
-656.121
-776.969
-596.738
-591.949
-594.657
-592.568
-607.911
-714.069
-617.602
-607.412
-598.815
-596.282
-596.11
-597.173
-597.498
-601.55
-597.339
-610.266
-582.967
-649.247
-543.61
-842.441
176.162
1077.73
1172.54
319.167
264.4
266.079
261.123
237.227
-380.993
-476.371
-524.964
-558.139
-569.592
-565.311
-570.439
-575.471
-580.375
-584.359
-588.183
-592.227
-598.939
-607.681
-632.342
-666.312
-802.054
-592.565
-591.871
-594.142
-591.87
-601.165
-757.322
-623.569
-611.195
-599.753
-596.078
-595.321
-596.245
-596.52
-600.755
-596.699
-611.168
-589.292
-688.5
-634.209
-1252.64
365.921
)
;

boundaryField
{
    AirInlet
    {
        type            fixedFluxPressure;
        gradient        nonuniform List<scalar> 5(-4.66995e+07 1.61832e+09 -4.81946e+07 -7.66198e+08 -2.27306e+09);
        value           nonuniform List<scalar> 5(-2054.56 29113.7 162.16 -5569.21 -20790.8);
    }
    WaterInlet
    {
        type            fixedFluxPressure;
        gradient        nonuniform List<scalar> 10(-0.0905214 -0.875955 -10.5148 -3.77209 0.707107 -0.00569275 1.4602 -5.71693 -11.5979 -10.1536);
        value           nonuniform List<scalar> 10(-952.716 -958.954 -961.835 -961.622 -958.359 1107.44 1104.13 1103.75 1106.42 1112.29);
    }
    ChannelWall
    {
        type            fixedFluxPressure;
        gradient        uniform 0;
        value           nonuniform List<scalar> 
110
(
-958.359
-1008.26
-1013.28
-1000.01
-1116.05
1107.44
1065.84
1070.97
940.361
1062.57
1112.29
1068.57
1071.26
965.519
1202.59
1077.73
1172.54
319.167
264.4
266.079
261.123
237.227
-380.993
-476.371
-524.964
-558.139
-569.592
-565.311
-570.439
-575.471
-580.375
-584.359
-588.183
-592.227
-598.939
-607.681
-632.342
-666.312
-802.054
-592.565
-591.871
-594.142
-591.87
-601.165
-757.322
-623.569
-611.195
-599.753
-596.078
-595.321
-596.245
-596.52
-600.755
-596.699
-611.168
-589.292
-688.5
-634.209
-1252.64
365.921
-952.716
-1004.71
-1001.67
-1000.45
-1200.99
-1020.76
-1290.15
-1044.21
-935.079
-601.549
-519.853
-628.077
-699.949
-667.604
-639.618
-624.545
-616.496
-604.593
-595.389
-590.763
-588.347
-587.117
-586.522
-585.81
-586.474
-583.686
-589.26
-590.431
-709.867
-580.606
-575.67
-574.506
-574.1
-588.349
-569.194
-563.216
-575.205
-581.713
-586.376
-589.985
-593.689
-595.698
-600.777
-596.035
-611.016
-563.36
-602.473
-378.524
104.471
108.301
)
;
    }
    Outlet
    {
        type            totalPressure;
        rho             rho;
        psi             none;
        gamma           1;
        p0              uniform 0;
        value           nonuniform List<scalar> 
15
(
-0.194465
-0.383026
0
0
0
0
0
0
-0.00207058
-0.111972
-0.341966
-0.267957
-0.194344
0
0
)
;
    }
    FrontAndBack
    {
        type            empty;
    }
}


// ************************************************************************* //
