/*--------------------------------*- C++ -*----------------------------------*\
| =========                 |                                                 |
| \\      /  F ield         | OpenFOAM: The Open Source CFD Toolbox           |
|  \\    /   O peration     | Version:  2.3.0                                 |
|   \\  /    A nd           | Web:      www.OpenFOAM.org                      |
|    \\/     M anipulation  |                                                 |
\*---------------------------------------------------------------------------*/
FoamFile
{
    version     2.0;
    format      ascii;
    class       surfaceScalarField;
    location    "0.086";
    object      phi;
}
// * * * * * * * * * * * * * * * * * * * * * * * * * * * * * * * * * * * * * //

dimensions      [0 3 -1 0 0 0 0];

internalField   nonuniform List<scalar> 
1380
(
3.17053e-13
1.82947e-13
2.83877e-13
3.31762e-14
3.19756e-13
-3.58797e-14
2.82627e-13
3.71296e-14
1.26147e-14
2.70012e-13
6.02178e-13
8.07691e-14
6.27172e-13
8.18214e-15
6.53689e-13
-6.23967e-14
6.22433e-13
6.83861e-14
-1.12166e-13
7.47214e-13
6.83536e-13
-1.02767e-13
7.32795e-13
-4.10769e-14
7.48374e-13
-7.79763e-14
8.56339e-13
-3.95784e-14
-5.94387e-13
1.33856e-12
5.94061e-13
-1.96828e-13
6.04371e-13
-5.13861e-14
5.72683e-13
-4.62891e-14
6.1735e-13
-8.42453e-14
-8.56855e-13
8.79818e-13
3.03172e-13
2.51786e-13
2.05497e-13
1.21252e-13
-7.35603e-13
-2.42424e-13
5.12435e-13
-3.34077e-12
3.09835e-12
-3.63331e-12
2.92538e-13
-2.3999e-12
-1.23341e-12
1.57854e-13
-2.55775e-12
2.12529e-12
-1.96744e-12
1.95641e-12
1.68884e-13
9.79323e-13
9.77084e-13
4.46583e-13
5.3274e-13
4.64882e-13
-1.82996e-14
5.5467e-13
-8.9788e-14
3.97867e-13
1.56803e-13
2.50006e-13
1.47861e-13
1.87742e-13
6.22648e-14
1.57626e-13
3.01157e-14
1.44174e-13
1.3452e-14
1.40552e-13
3.62161e-15
1.40204e-13
3.47939e-16
1.44512e-13
-4.30778e-15
1.50943e-13
-6.43121e-15
2.06827e-13
-5.5883e-14
4.28686e-13
-2.21859e-13
1.21249e-12
-7.83805e-13
2.13686e-12
-9.24368e-13
1.59228e-12
5.44576e-13
-4.84459e-13
2.07674e-12
-2.36721e-12
1.88275e-12
-5.52913e-12
3.16192e-12
-2.69512e-14
-5.50218e-12
3.96367e-13
-4.23318e-13
2.68489e-13
1.27878e-13
2.03551e-13
6.49383e-14
1.72478e-13
3.10727e-14
1.56186e-13
1.62924e-14
1.52564e-13
3.62211e-15
1.45701e-13
6.86288e-15
1.41192e-13
4.50915e-15
1.30697e-13
1.04954e-14
1.25074e-13
5.62246e-15
9.8494e-14
2.65805e-14
1.57299e-14
8.27645e-14
-1.79643e-13
1.95373e-13
-5.79642e-13
4e-13
-4.13263e-12
3.55299e-12
1.48292e-12
1.52928e-13
1.10672e-12
-2.65093e-12
5.90221e-12
-3.31088e-12
9.52485e-13
-2.01536e-12
-2.52893e-12
5.28698e-13
-5.10181e-12
2.67327e-12
-4.11201e-12
3.18233e-12
-3.40171e-13
2.22892e-12
1.93049e-12
1.42518e-12
1.33648e-12
1.33798e-12
6.88954e-14
1.44386e-12
-1.95663e-13
1.14203e-12
4.5863e-13
7.72266e-13
5.17625e-13
5.60941e-13
2.7359e-13
4.56453e-13
1.34604e-13
4.07523e-13
6.23815e-14
3.87665e-13
2.34793e-14
3.81213e-13
6.80003e-15
3.81583e-13
-4.67678e-15
3.86287e-13
-1.11358e-14
4.32247e-13
-1.01842e-13
5.70022e-13
-3.59634e-13
1.26633e-12
-1.48011e-12
1.67764e-12
-1.33568e-12
2.23036e-12
-8.1382e-15
-1.30866e-13
4.43797e-12
-1.95843e-12
3.71031e-12
-3.04577e-12
4.24925e-12
-1.68604e-13
-8.37935e-12
7.52931e-13
-1.34485e-12
6.67479e-13
2.13329e-13
5.11658e-13
2.2076e-13
4.3709e-13
1.05641e-13
4.01629e-13
5.17534e-14
3.91623e-13
1.3628e-14
3.8362e-13
1.48656e-14
3.73786e-13
1.43441e-14
3.65012e-13
1.92696e-14
3.5573e-13
1.49052e-14
3.44117e-13
3.81931e-14
3.1623e-13
1.10652e-13
2.59635e-13
2.51968e-13
-1.90229e-13
8.49864e-13
-5.97864e-12
9.34139e-12
3.38501e-12
1.21466e-12
1.23062e-12
-1.76231e-12
8.87918e-12
-4.93034e-12
4.12051e-12
-2.7183e-12
-4.74097e-12
4.8464e-13
-8.30475e-12
1.7211e-12
-5.34847e-12
2.44241e-12
-1.06148e-12
2.2923e-12
2.0806e-12
1.84163e-12
1.78715e-12
1.83114e-12
7.93876e-14
2.00455e-12
-3.69077e-13
1.65544e-12
8.07747e-13
1.15971e-12
1.01335e-12
8.37169e-13
5.96135e-13
6.79634e-13
2.92138e-13
6.09798e-13
1.32217e-13
5.79149e-13
5.41291e-14
5.64994e-13
2.09551e-14
5.58702e-13
1.61499e-15
5.49536e-13
-1.96967e-15
5.4806e-13
-1.00366e-13
5.18231e-13
-3.29805e-13
7.01713e-13
-1.66359e-12
8.00601e-13
-1.43457e-12
2.11813e-12
-1.32566e-12
6.65746e-14
6.48952e-12
1.27159e-12
2.50529e-12
-1.15408e-12
6.67494e-12
-7.7283e-13
-8.7606e-12
7.58719e-13
-2.8764e-12
8.97646e-13
7.44024e-14
7.19738e-13
3.98667e-13
6.1873e-13
2.0665e-13
5.7844e-13
9.20433e-14
5.69481e-13
2.25872e-14
5.64549e-13
1.97972e-14
5.62473e-13
1.64209e-14
5.52047e-13
2.96959e-14
5.48227e-13
1.8725e-14
5.37209e-13
4.92115e-14
5.67577e-13
8.02836e-14
7.03122e-13
1.16423e-13
1.22493e-12
3.28055e-13
5.16679e-12
5.39953e-12
2.32493e-12
7.18675e-13
1.39176e-12
3.96251e-12
5.63534e-12
2.43525e-12
5.64778e-12
-2.83117e-12
5.25453e-13
-1.7129e-13
-1.09646e-11
-2.39267e-13
-5.28049e-12
1.01602e-12
-2.31677e-12
1.77751e-12
1.31911e-12
1.68329e-12
1.88137e-12
1.83726e-12
-7.45873e-14
2.19575e-12
-7.27566e-13
1.89559e-12
1.10791e-12
1.3577e-12
1.55124e-12
9.84744e-13
9.69085e-13
8.10727e-13
4.66156e-13
7.40939e-13
2.02005e-13
7.10534e-13
8.45349e-14
6.93475e-13
3.80135e-14
6.84489e-13
1.06011e-14
6.66943e-13
1.5577e-14
6.15739e-13
-4.91625e-14
5.54624e-13
-2.6869e-13
3.48161e-13
-1.45713e-12
1.24243e-13
-1.21065e-12
7.55786e-13
-1.95721e-12
-7.24397e-13
7.9697e-12
4.7715e-12
-2.99059e-12
3.52926e-12
7.91719e-12
4.00007e-13
-5.63135e-12
7.34256e-13
-3.21065e-12
9.58017e-13
-1.49358e-13
8.10189e-13
5.46496e-13
7.12837e-13
3.04002e-13
6.80643e-13
1.24237e-13
6.78356e-13
2.48738e-14
6.79665e-13
1.84886e-14
6.88206e-13
7.8804e-15
6.80136e-13
3.77656e-14
6.89333e-13
9.5283e-15
6.71517e-13
6.7028e-14
7.29687e-13
2.21139e-14
8.64015e-13
-1.79054e-14
1.4303e-12
-2.38231e-13
8.76097e-12
-1.93114e-12
-5.97689e-13
1.04948e-12
-3.93317e-13
1.31706e-11
-6.48577e-12
1.60182e-11
2.80015e-12
3.83887e-12
1.27048e-11
1.77198e-12
-8.89773e-12
-8.43075e-13
-2.66544e-12
9.0917e-13
-4.06902e-12
1.57116e-12
6.57126e-13
1.34329e-12
2.10924e-12
1.42498e-12
-1.56278e-13
1.93701e-12
-1.23959e-12
1.8101e-12
1.23481e-12
1.34258e-12
2.01876e-12
1.00427e-12
1.3074e-12
8.58554e-13
6.11873e-13
8.05782e-13
2.54776e-13
7.84163e-13
1.06155e-13
7.72675e-13
4.95013e-14
7.63807e-13
1.94693e-14
7.53483e-13
2.59014e-14
6.7064e-13
3.36802e-14
6.5912e-13
-2.5717e-13
2.80543e-13
-1.07855e-12
-8.86402e-13
-4.37072e-14
-1.69935e-12
-1.14426e-12
-2.04034e-12
8.31069e-12
6.16054e-12
-1.11915e-11
6.63413e-12
7.44359e-12
1.70167e-12
-6.98882e-13
4.58601e-13
-1.96759e-12
6.84071e-13
-3.74827e-13
7.63347e-13
4.67219e-13
7.53514e-13
3.13836e-13
7.46677e-13
1.31074e-13
7.54822e-13
1.6729e-14
7.59292e-13
1.40187e-14
7.65052e-13
2.12096e-15
7.60432e-13
4.23853e-14
7.71426e-13
-1.46565e-15
7.5586e-13
8.25933e-14
7.93285e-13
-1.53109e-14
8.71873e-13
-9.64936e-14
1.27888e-12
-6.45238e-13
5.07395e-12
-5.72621e-12
-3.11574e-12
9.26619e-13
-1.11994e-12
1.85566e-12
-7.41482e-12
3.31401e-12
1.3418e-12
1.42735e-12
1.45915e-11
7.16678e-13
-8.18706e-12
-1.21939e-13
-1.82682e-12
4.89386e-13
-4.68034e-12
4.67631e-13
6.7888e-13
2.57989e-13
2.31888e-12
2.27902e-13
-1.2619e-13
3.05367e-13
-1.31706e-12
3.35673e-13
1.20451e-12
2.58563e-13
2.09587e-12
2.06063e-13
1.3599e-12
1.87038e-13
6.30898e-13
1.79719e-13
2.62095e-13
1.7672e-13
1.09154e-13
1.76261e-13
4.99606e-14
1.72069e-13
2.36619e-14
1.75168e-13
2.28017e-14
1.47736e-13
6.11123e-14
9.94672e-14
-2.08901e-13
-1.15869e-13
-8.63217e-13
-2.96826e-13
1.3725e-13
1.05657e-12
-2.49766e-12
1.09428e-13
9.25783e-12
5.52775e-13
-1.16348e-11
3.81822e-13
7.61454e-12
4.61283e-13
-7.78344e-13
1.14675e-13
-1.62098e-12
1.20305e-13
-3.80456e-13
1.58183e-13
4.2934e-13
1.66475e-13
3.05544e-13
1.70066e-13
1.27483e-13
1.71289e-13
1.55062e-14
1.75717e-13
9.59065e-15
1.71557e-13
6.28071e-15
1.80402e-13
3.35413e-14
1.6899e-13
9.94647e-15
1.8473e-13
6.68531e-14
1.60972e-13
8.44685e-15
1.88496e-13
-1.24017e-13
2.03551e-13
-6.60293e-13
1.3076e-12
-6.83026e-12
-2.61777e-12
3.64946e-12
-4.5694e-12
1.83178e-12
-5.59714e-12
5.24047e-13
2.64953e-12
1.27939e-12
1.38361e-11
-1.50227e-12
-5.4054e-12
-3.56552e-13
-2.97254e-12
4.28775e-13
-5.46567e-12
4.56773e-13
6.50882e-13
2.40525e-13
2.53513e-12
1.97338e-13
-8.3004e-14
2.47416e-13
-1.36714e-12
3.01212e-13
1.15071e-12
2.39601e-13
2.15748e-12
1.98772e-13
1.40073e-12
1.84691e-13
6.44979e-13
1.79269e-13
2.67517e-13
1.77095e-13
1.11327e-13
1.77115e-13
4.99404e-14
1.73066e-13
2.7711e-14
1.76428e-13
1.94397e-14
1.50383e-13
8.71578e-14
9.99933e-14
-1.58512e-13
-1.43803e-13
-6.19421e-13
-2.41206e-13
2.34653e-13
1.58073e-12
-4.3196e-12
6.45354e-14
1.0774e-11
3.90201e-14
-1.16093e-11
-1.31755e-13
7.78532e-12
5.66897e-13
-1.477e-12
1.46588e-13
-1.20067e-12
1.08884e-13
-3.42752e-13
1.54082e-13
3.84143e-13
1.65789e-13
2.93837e-13
1.70927e-13
1.22344e-13
1.72294e-13
1.41391e-14
1.77181e-13
4.70378e-15
1.72552e-13
1.09096e-14
1.82503e-13
2.35907e-14
1.69398e-13
2.30512e-14
1.88255e-13
4.79964e-14
1.56713e-13
3.99882e-14
1.83365e-13
-1.50669e-13
1.74734e-13
-6.51661e-13
6.06917e-13
-7.26244e-12
-3.09189e-12
1.38288e-12
-5.75228e-12
-3.70892e-12
-5.05336e-13
9.82629e-13
-2.04202e-12
1.11662e-12
1.37021e-11
-2.15352e-12
-2.13526e-12
-2.67191e-12
-2.45415e-12
8.30797e-14
-8.22065e-12
3.73322e-13
3.6064e-13
2.27721e-13
2.68073e-12
1.69315e-13
-2.45979e-14
2.2714e-13
-1.42496e-12
2.59943e-13
1.11791e-12
2.18143e-13
2.19928e-12
1.90418e-13
1.42845e-12
1.81609e-13
6.53788e-13
1.78225e-13
2.70902e-13
1.76938e-13
1.12614e-13
1.77371e-13
4.95078e-14
1.73699e-13
3.13827e-14
1.77467e-13
1.56714e-14
1.52746e-13
1.11879e-13
1.28742e-13
-1.34507e-13
1.48239e-14
-5.05503e-13
4.91756e-14
2.00301e-13
-3.40673e-13
-3.92975e-12
-1.67327e-13
1.06007e-11
-5.86383e-13
-1.11903e-11
-7.67633e-13
7.96657e-12
4.62222e-13
-2.70685e-12
1.35544e-13
-8.73992e-13
9.63581e-14
-3.03566e-13
1.50367e-13
3.30134e-13
1.64844e-13
2.7936e-13
1.71287e-13
1.15901e-13
1.72711e-13
1.27151e-14
1.77736e-13
-3.21182e-16
1.73454e-13
1.51922e-14
1.83501e-13
1.35432e-14
1.70576e-13
3.59764e-14
1.89207e-13
2.93652e-14
1.55758e-13
7.34373e-14
1.68187e-13
-1.63098e-13
1.16633e-13
-6.00107e-13
-2.84076e-14
-7.1174e-12
-3.30227e-12
-2.06984e-13
-5.34529e-12
-1.60141e-12
8.89094e-13
2.82059e-12
-6.46402e-12
1.52232e-12
1.50004e-11
-1.05472e-12
4.41782e-13
-1.65136e-12
-1.85751e-12
-3.53966e-13
-9.51805e-12
2.42522e-13
-2.35848e-13
1.63161e-13
2.76009e-12
1.46642e-13
-8.0786e-15
1.85588e-13
-1.46391e-12
2.18632e-13
1.08487e-12
1.95032e-13
2.22288e-12
1.8104e-13
1.44244e-12
1.77815e-13
6.57014e-13
1.76617e-13
2.72099e-13
1.76238e-13
1.12994e-13
1.77067e-13
4.86789e-14
1.73759e-13
3.46905e-14
1.77779e-13
1.16513e-14
1.56565e-13
1.33093e-13
1.56885e-13
-1.34827e-13
1.70617e-13
-5.19235e-13
3.0546e-13
6.5458e-14
-1.54315e-12
-2.08114e-12
5.45545e-13
8.51198e-12
-1.80808e-12
-8.83663e-12
-1.39642e-12
7.5549e-12
-7.80011e-14
-4.02527e-12
5.97779e-14
-1.01177e-12
8.44974e-14
-3.28285e-13
1.46766e-13
2.67866e-13
1.63514e-13
2.62612e-13
1.70903e-13
1.08512e-13
1.72476e-13
1.11426e-14
1.77403e-13
-5.24818e-15
1.73289e-13
1.93059e-14
1.83614e-13
3.21792e-15
1.70856e-13
4.87349e-14
1.89426e-13
1.07953e-14
1.54438e-13
1.08425e-13
1.51993e-13
-1.60654e-13
5.16842e-14
-4.99798e-13
-5.42805e-13
-6.52291e-12
-3.68913e-12
-1.15944e-12
-3.98585e-12
8.43635e-12
-8.7067e-12
4.02762e-12
-2.05529e-12
2.38398e-12
1.6644e-11
-1.16599e-12
3.99176e-12
-2.39926e-12
-6.24246e-13
-4.24128e-13
-1.14932e-11
1.06135e-13
-7.66112e-13
1.14558e-13
2.75167e-12
1.20641e-13
-1.41617e-14
1.48259e-13
-1.49152e-12
1.75971e-13
1.05715e-12
1.70812e-13
2.22804e-12
1.71112e-13
1.44214e-12
1.73399e-13
6.54727e-13
1.74443e-13
2.71055e-13
1.75013e-13
1.12423e-13
1.7616e-13
4.75323e-14
1.73388e-13
3.7462e-14
1.77388e-13
7.65169e-15
1.58417e-13
1.52064e-13
1.68467e-13
-1.44877e-13
1.49432e-13
-5.002e-13
1.59275e-13
5.56152e-14
-7.66835e-13
-1.15503e-12
-3.33365e-13
8.07851e-12
-9.04238e-13
-8.26575e-12
-5.87881e-13
7.23854e-12
8.69891e-14
-4.70014e-12
2.88206e-14
-9.53603e-13
7.60175e-14
-3.75482e-13
1.43578e-13
2.00305e-13
1.61521e-13
2.44669e-13
1.70064e-13
9.99691e-14
1.71872e-13
9.33381e-15
1.76469e-13
-9.84515e-15
1.72871e-13
2.29043e-14
1.82463e-13
-6.37391e-15
1.71578e-13
5.96196e-14
1.86833e-13
-4.46008e-15
1.56781e-13
1.38478e-13
1.37065e-13
-1.40938e-13
-8.2675e-15
-3.54466e-13
-8.61586e-13
-5.66959e-12
-3.59637e-12
3.0578e-13
1.9422e-13
2.80026e-13
2.57542e-14
2.5753e-13
2.24955e-14
6.53864e-13
-3.96334e-13
5.12603e-13
1.41261e-13
5.97238e-13
9.69812e-14
6.0681e-13
1.61823e-14
5.89306e-13
3.99997e-14
6.43748e-13
-4.50775e-13
9.27948e-13
2.28403e-13
6.84878e-13
-8.78963e-14
7.25682e-13
-2.46215e-14
7.58314e-13
7.36764e-15
6.50738e-13
-3.43199e-13
5.13899e-13
1.06479e-12
6.00477e-13
-1.88374e-13
6.13175e-13
-3.73201e-14
6.31952e-13
-1.14088e-14
4.38843e-13
-1.50091e-13
1.54482e-13
7.9826e-13
3.11626e-13
2.74307e-13
2.62898e-13
1.12807e-13
2.67289e-13
2.88365e-12
-6.72824e-12
1.19875e-11
-1.78105e-11
1.38593e-11
-3.92711e-12
7.50462e-12
2.29987e-11
-5.35284e-12
1.68492e-11
2.22078e-12
-8.19786e-12
-1.34182e-12
-7.93058e-12
-6.15527e-13
-1.49241e-12
1.14449e-14
2.1247e-12
1.98949e-13
-2.01666e-13
1.17204e-13
-1.40978e-12
2.85612e-13
8.88745e-13
4.84744e-13
2.02891e-12
6.46828e-13
1.28006e-12
7.21088e-13
5.80467e-13
7.51709e-13
2.40434e-13
7.66174e-13
9.7958e-14
7.72132e-13
4.15747e-14
7.75077e-13
3.45169e-14
7.71492e-13
1.12362e-14
7.50971e-13
1.72585e-13
6.75505e-13
-6.94112e-14
2.74633e-13
-9.93277e-14
-3.64374e-13
6.94621e-13
-2.37052e-12
8.51112e-13
1.09049e-12
4.6175e-12
4.46328e-13
-7.62159e-12
6.84218e-12
8.42689e-13
1.04992e-12
1.09212e-12
2.13509e-13
-1.17189e-13
3.45437e-13
-5.0741e-13
5.84419e-13
-3.8677e-14
7.03264e-13
1.25823e-13
7.47201e-13
5.60322e-14
7.63282e-13
-6.74738e-15
7.71474e-13
-1.80368e-14
7.80304e-13
1.4074e-14
7.81366e-13
-7.43625e-15
7.98785e-13
4.22006e-14
7.79564e-13
1.4761e-14
7.67747e-13
1.50294e-13
5.24834e-13
1.01976e-13
-4.89122e-14
2.1928e-13
-4.48969e-12
-1.22882e-12
-6.11484e-13
-1.03798e-12
-5.46186e-12
-7.67941e-12
-1.11691e-11
-5.46239e-12
-6.14413e-12
6.42395e-13
1.68939e-11
3.4678e-12
1.40238e-11
2.32367e-12
-7.05372e-12
-2.41372e-12
-3.19319e-12
-1.35828e-12
-2.54785e-12
-4.40663e-13
1.20708e-12
-3.58448e-13
-2.83881e-13
-6.98891e-13
-1.06934e-12
-4.30665e-13
6.20519e-13
7.23338e-14
1.52591e-12
4.32009e-13
9.20384e-13
5.88159e-13
4.24317e-13
6.52991e-13
1.75602e-13
6.81572e-13
6.93777e-14
6.94108e-13
2.90383e-14
7.03367e-13
2.52574e-14
6.98336e-13
1.62677e-14
7.10549e-13
1.60371e-13
5.34548e-13
1.06589e-13
1.42961e-13
2.92259e-13
-3.18958e-13
1.15654e-12
-2.32494e-12
2.85709e-12
1.71597e-12
5.7661e-13
2.64581e-12
-8.55143e-12
6.32403e-12
-2.83552e-12
1.55458e-12
5.86156e-12
8.42885e-13
5.94506e-13
5.97641e-13
-2.62167e-13
5.86266e-13
-2.73014e-14
6.55413e-13
5.66755e-14
6.93185e-13
1.82598e-14
7.0484e-13
-1.84018e-14
7.06149e-13
-1.93462e-14
7.13375e-13
6.84778e-15
7.08604e-13
-2.66465e-15
7.25227e-13
2.55771e-14
7.04505e-13
3.54822e-14
6.92399e-13
1.624e-13
4.06286e-13
3.8809e-13
-3.96681e-13
1.02225e-12
-4.23463e-12
2.60914e-12
1.75828e-12
-1.08261e-12
-3.31446e-12
-6.77772e-12
-5.47396e-12
-6.59328e-12
-6.32857e-12
-5.50949e-13
1.08516e-11
2.33007e-12
1.11428e-11
-3.24176e-12
-1.48188e-12
-8.12038e-13
-5.62291e-12
-1.01009e-12
-2.3498e-12
-5.45801e-13
7.42795e-13
-6.92313e-13
-1.37368e-13
-1.12075e-12
-6.40902e-13
-8.13329e-13
3.131e-13
-1.61456e-13
8.74035e-13
2.4821e-13
5.10719e-13
4.35412e-13
2.37115e-13
5.15109e-13
9.59038e-14
5.49306e-13
3.51811e-14
5.64249e-13
1.40946e-14
5.75489e-13
1.40178e-14
5.77031e-13
1.47262e-14
6.18983e-13
1.18419e-13
5.16683e-13
2.08889e-13
3.71615e-13
4.37327e-13
4.89814e-13
1.03834e-12
6.46296e-13
2.70061e-12
2.5431e-12
-1.3202e-12
8.63425e-13
-6.87175e-12
1.43614e-12
-3.40825e-12
6.36905e-13
6.6608e-12
7.68074e-13
4.63337e-13
5.86679e-13
-8.07722e-14
5.38895e-13
2.04828e-14
5.72012e-13
2.35589e-14
5.86642e-13
3.62951e-15
5.83221e-13
-1.49811e-14
5.75446e-13
-1.15716e-14
5.76472e-13
5.82189e-15
5.74932e-13
-1.12569e-15
5.84743e-13
1.57658e-14
5.89315e-13
3.09102e-14
6.17446e-13
1.34269e-13
5.56994e-13
4.48542e-13
4.0351e-13
1.17573e-12
-3.72338e-12
6.73603e-12
3.65549e-12
-1.12494e-12
-1.39126e-12
-4.48749e-12
-2.1114e-12
-6.76587e-12
-4.05019e-12
-1.11311e-12
5.19881e-12
4.70267e-12
5.327e-12
4.01246e-12
-7.91668e-13
9.98879e-13
-2.60933e-12
-9.45061e-13
-4.05865e-13
-5.44834e-13
3.42568e-13
-6.75188e-13
-7.01398e-15
-1.06258e-12
-2.53511e-13
-8.16612e-13
6.71325e-14
-2.33246e-13
2.90669e-13
1.13052e-13
1.64421e-13
2.75964e-13
7.42032e-14
3.44213e-13
2.76554e-14
3.71668e-13
7.72503e-15
3.82753e-13
3.01002e-15
3.9116e-13
5.61041e-15
3.97454e-13
8.43181e-15
4.5676e-13
5.91126e-14
5.06944e-13
1.58704e-13
6.24294e-13
3.19978e-13
1.01091e-12
6.51722e-13
2.58115e-12
1.13037e-12
2.29148e-12
-1.03052e-12
-1.31131e-12
-3.26897e-12
-2.27352e-12
-2.44604e-12
4.06757e-13
3.98053e-12
4.91619e-13
3.78475e-13
3.97712e-13
1.31345e-14
3.86466e-13
3.17293e-14
4.00736e-13
9.28822e-15
4.02859e-13
1.50657e-15
3.92421e-13
-4.54293e-15
3.85267e-13
-4.41841e-15
3.86538e-13
4.55053e-15
3.88013e-13
-2.60053e-15
3.93553e-13
1.02259e-14
4.12283e-13
1.21796e-14
4.61085e-13
8.54678e-14
6.3582e-13
2.73806e-13
1.00304e-12
8.08509e-13
1.59263e-13
7.57981e-12
2.88536e-12
-1.12397e-12
-3.23538e-12
-7.28557e-12
-2.08676e-12
3.24024e-12
2.44856e-12
-1.60772e-13
-5.66637e-13
-2.24069e-13
-2.31083e-13
-4.84593e-13
-4.17461e-13
-1.26792e-13
3.76289e-14
1.11832e-13
1.39487e-13
1.47212e-13
1.50222e-13
1.55833e-13
1.64264e-13
2.23377e-13
3.82081e-13
7.02059e-13
1.35378e-12
2.48416e-12
1.45364e-12
-1.81533e-12
-4.26137e-12
-2.80843e-13
9.76322e-14
1.10767e-13
1.42496e-13
1.51784e-13
1.53291e-13
1.48747e-13
1.44329e-13
1.48879e-13
1.46279e-13
1.56505e-13
1.68684e-13
2.54152e-13
5.27958e-13
1.33647e-12
8.91627e-12
)
;

boundaryField
{
    AirInlet
    {
        type            calculated;
        value           nonuniform List<scalar> 5(-2e-13 -2e-13 -2e-13 -2e-13 -2e-13);
    }
    WaterInlet
    {
        type            calculated;
        value           nonuniform List<scalar> 10(-5e-13 -5e-13 -5e-13 -5e-13 -5e-13 -5e-13 -5e-13 -5e-13 -5e-13 -5e-13);
    }
    ChannelWall
    {
        type            calculated;
        value           uniform 0;
    }
    Outlet
    {
        type            calculated;
        value           nonuniform List<scalar> 
15
(
-5.61555e-12
-7.88073e-12
6.22687e-12
1.16836e-11
7.592e-12
8.09637e-13
1.08103e-12
1.81977e-13
-1.55945e-13
-9.5435e-13
-7.47458e-12
-6.6044e-12
-5.62059e-12
9.29394e-13
1.18016e-11
)
;
    }
    FrontAndBack
    {
        type            empty;
        value           nonuniform 0();
    }
}


// ************************************************************************* //
