/*--------------------------------*- C++ -*----------------------------------*\
| =========                 |                                                 |
| \\      /  F ield         | OpenFOAM: The Open Source CFD Toolbox           |
|  \\    /   O peration     | Version:  2.3.0                                 |
|   \\  /    A nd           | Web:      www.OpenFOAM.org                      |
|    \\/     M anipulation  |                                                 |
\*---------------------------------------------------------------------------*/
FoamFile
{
    version     2.0;
    format      ascii;
    class       volScalarField;
    location    "1.25";
    object      alpha.water;
}
// * * * * * * * * * * * * * * * * * * * * * * * * * * * * * * * * * * * * * //

dimensions      [0 0 0 0 0 0 0];

internalField   nonuniform List<scalar> 
2268
(
1
0.999999
0.999999
1
1
0.999999
0.999999
1
1
1
1
0.998556
0.972452
0.972452
0.972452
0.972463
0.983025
0.995971
0.995938
0.994041
0.991302
0.986791
0.986791
1
0.999999
0.999999
0.999999
0.999999
1
1
1
1
1
1
0.998956
0.980979
0.972452
0.98368
0.998684
0.999961
0.999962
0.999957
0.999934
0.999912
0.999104
0.993837
1
1
0.999999
0.999999
0.999999
1
1
1
1
1
1
0.999848
0.99838
0.993614
0.999702
0.999953
0.999961
0.999957
0.999576
0.999265
0.9999
0.999945
0.999943
1
1
0.999999
0.999999
0.999999
1
1
1
1
1
1
1
0.999994
0.999959
0.999894
0.999919
0.999891
0.998225
0.992788
0.998716
0.999945
0.999945
0.999945
1
1
1
1
1
1
1
1
1
1
1
1
0.999999
0.999984
0.999948
0.999645
0.981785
0.969021
0.993642
0.999941
0.999945
0.999945
0.999944
1
1
1
1
1
0.999999
0.999999
0.999999
0.999999
1
1
1
1
0.999998
0.999964
0.982663
0.920432
0.940364
0.999865
0.999931
0.999941
0.999941
0.999771
1
1
1
1
1
0.999999
0.999999
0.999999
1
1
1
1
1
0.999997
0.999019
0.93181
0.893015
0.965158
0.999798
0.999866
0.999897
0.999923
0.999771
1
1
1
1
1
1
1
1
1
1
1
1
1
0.999987
0.984229
0.864672
0.895606
0.998297
0.999587
0.999314
0.999427
0.999723
0.999717
0.991189
0.991189
0.993934
0.993807
0.956647
0.803381
0.861774
0.86825
0.930311
0.98142
0.98142
0.93177
0.907928
0.907888
0.907888
0.914105
0.931211
0.931163
0.931415
0.992972
0.994471
0.994488
0.975086
0.658217
0.523055
0.649895
0.597692
0.563985
0.817296
0.98142
0.967122
0.911216
0.908009
0.907888
0.908084
0.908186
0.92191
0.956794
0.994488
0.994489
0.994488
0.96664
0.515205
0.526141
0.580144
0.572394
0.529774
0.530523
0.833276
0.96039
0.958383
0.957115
0.946453
0.925939
0.935686
0.958262
0.958118
0.994483
0.994487
0.994488
0.964307
0.509907
0.769754
0.784442
0.784509
0.695714
0.529774
0.585042
0.836329
0.956971
0.957811
0.957852
0.958023
0.958091
0.958119
0.958132
0.99446
0.994457
0.994387
0.719243
0.509907
0.752443
0.784323
0.784551
0.784323
0.687798
0.327322
0.395297
0.729448
0.9494
0.958031
0.95809
0.958121
0.958195
0.958132
0.99431
0.994568
0.994329
0.587415
0.509907
0.753785
0.783042
0.784323
0.783546
0.715631
0.306409
0.302277
0.344808
0.781413
0.957577
0.958023
0.916461
0.81495
0.946252
0.994537
0.986623
0.994039
0.879449
0.748368
0.674501
0.778914
0.783042
0.653236
0.68854
0.379748
0.300369
0.300369
0.493164
0.789456
0.691068
0.320296
0.178474
0.480999
0.990731
0.984402
0.944794
0.879785
0.6562
0.24906
0.430195
0.773507
0.300932
0.391397
0.472678
0.475328
0.446298
0.219289
0.140675
0.104423
0.106216
0.0968321
0.0783623
1
1
1
1
1
1
1
1
1
1
1
1
1
0.992425
0.884672
0.864672
0.902247
0.997343
0.992155
0.922751
0.895855
0.975687
0.998574
0.999999
0.999999
0.999999
0.999999
1
1
1
1
1
1
1
1
1
0.994621
0.904603
0.89629
0.972057
0.972144
0.814857
0.530895
0.416356
0.617107
0.781349
0.999985
0.999981
0.999984
0.99999
0.999993
0.999998
0.999991
1
1
1
1
1
0.999998
0.99971
0.97948
0.903396
0.846889
0.439777
0.280591
0.258669
0.259924
0.25778
0.126808
0.999841
0.999797
0.999814
0.99984
0.999876
0.999934
0.999994
1
1
1
1
1
1
0.999998
0.909342
0.755433
0.253137
0.0095529
0.00355041
0.0334217
0.106015
0.118777
0.029017
0.998587
0.998088
0.99805
0.995216
0.974218
0.916399
0.835636
0.807052
0.814484
0.871631
0.89841
0.939742
0.906453
0.667244
0.333243
0.172951
0.0336825
0.00403634
0.00238757
0.00210545
0.000621552
0.00231759
0.0344735
0.882134
0.775762
0.703329
0.579463
0.478521
0.364084
0.246943
0.211158
0.15873
0.224989
0.28109
0.318213
0.244844
0.0648473
0.0219921
0.0190433
0.0192226
0.0116025
0.00546591
0.001979
0.000551236
0.000554268
0.000547896
0.215908
0.108796
0.0745468
0.0921562
0.190643
0.29626
0.115217
0.0393046
0.0285424
0.0253386
0.0235451
0.0274936
0.0313013
0.0280532
0.0266847
0.0362998
0.0218387
0.0191873
0.0147381
0.00393985
0.000612442
0.000857185
0.00047035
0.0113325
0.0113297
0.0166697
0.116265
0.270957
0.286612
0.222969
0.0602203
0.0244967
0.0196017
0.0160812
0.0224645
0.0363938
0.06975
0.0692837
0.0687685
0.0687168
0.0229248
0.00408936
0.0021803
0.000936466
0.00325346
0.00321854
0.0110933
0.0204213
0.17732
0.201224
0.195629
0.214946
0.227549
0.217149
0.0396436
0.0136413
0.00573041
0.0410814
0.0697988
0.0697988
0.0697988
0.0395646
0.000490535
0.00338524
0.00125588
0.000127134
0.00219608
0.00321743
0.00137408
0.0108535
0.0405477
0.0793528
0.0251091
0.000222863
0.00790157
0.103266
0.163313
0.105228
0.019207
0.000395419
0.0232064
0.0546428
0.0334458
0.000794794
3.45812e-07
1.24404e-05
4.45409e-06
6.07077e-06
8.05085e-05
0.000326173
-5.9678e-11
9.3724e-18
0.0131679
0.0212914
4.87241e-05
7.24762e-06
1.40457e-05
5.19306e-05
0.00503177
0.0200993
0.0263985
0.00852403
1.03543e-05
0.000469466
0.000976363
6.06433e-05
5.94552e-09
2.14934e-07
7.32407e-07
2.5951e-07
3.27886e-07
1.04948e-06
-4.08002e-10
-2.57875e-09
-1.56772e-09
0.0100981
0.0102998
0.000476916
5.48978e-06
5.52459e-06
4.35904e-05
3.14998e-05
7.29767e-05
3.95765e-06
1.35204e-05
1.09136e-07
2.03395e-09
4.8045e-09
4.26149e-09
6.8963e-10
1.66596e-09
1.86884e-08
1.3094e-08
8.7276e-09
-1.45707e-09
-8.34651e-11
4.47507e-11
1.1725e-10
0.00400062
0.00191003
7.59982e-06
5.14919e-06
5.47805e-06
6.34847e-06
3.00196e-06
2.41047e-06
8.48174e-08
2.44534e-08
2.04223e-09
2.02263e-09
1.86076e-09
7.04874e-10
1.23749e-09
1.23835e-09
2.60973e-09
2.16512e-09
8.57097e-10
2.76615e-10
3.25175e-10
2.43973e-10
1.28083e-10
0.000267437
6.65278e-06
4.80485e-06
4.54916e-06
2.14766e-07
4.9974e-08
5.63481e-08
5.11672e-08
5.80667e-08
1.90731e-08
8.86987e-09
2.74328e-09
2.84522e-09
3.57822e-09
6.90321e-09
7.31616e-09
6.84942e-09
2.41206e-09
1.14177e-09
8.55701e-10
3.79832e-10
1.16214e-10
6.85105e-11
6.81892e-05
1.0119e-05
1.06668e-05
6.52106e-06
2.59657e-07
3.64253e-08
2.83026e-08
2.98352e-08
1.25886e-08
6.17488e-09
3.75213e-09
2.74155e-09
2.83293e-09
2.8516e-09
2.92553e-09
2.78421e-09
1.84816e-09
9.34728e-10
6.10446e-10
3.88889e-10
2.18093e-10
1.0766e-10
5.59483e-11
5.90364e-05
4.7193e-05
2.1229e-05
6.33716e-06
1.04124e-06
8.1276e-08
1.75146e-08
8.63561e-09
4.9007e-09
3.14949e-09
2.67049e-09
2.80407e-09
4.37754e-09
4.6013e-09
3.70419e-09
2.51717e-09
1.70455e-09
1.09161e-09
6.84808e-10
4.15621e-10
2.22514e-10
9.20851e-11
4.67279e-11
2.19472e-05
4.31437e-05
2.117e-05
4.50919e-06
7.46092e-07
8.92827e-08
1.33872e-08
5.40689e-09
3.18739e-09
2.3275e-09
2.10227e-09
1.89947e-09
3.34626e-09
4.60118e-09
4.58627e-09
3.71895e-09
2.36861e-09
1.33691e-09
7.166e-10
3.40288e-10
1.38493e-10
6.14306e-11
3.37953e-11
4.63604e-06
7.39914e-06
7.39718e-06
2.38508e-06
3.28751e-07
4.9678e-08
4.35503e-09
2.48274e-09
2.03301e-09
1.67835e-09
1.56517e-09
1.54168e-09
1.8151e-09
2.54905e-09
2.52707e-09
2.23104e-09
1.60488e-09
9.18331e-10
4.24807e-10
1.70646e-10
6.09283e-11
3.59745e-11
2.24835e-11
7.80639e-07
6.01418e-07
2.73881e-07
2.24552e-07
7.49516e-08
2.51626e-08
5.46705e-09
1.92462e-09
1.39163e-09
1.23847e-09
1.22952e-09
1.27989e-09
1.4164e-09
1.41789e-09
1.34813e-09
1.09622e-09
7.31974e-10
4.09083e-10
1.81534e-10
6.80802e-11
3.31393e-11
2.20296e-11
1.48692e-11
1.30996e-07
1.28085e-07
6.77026e-08
1.92474e-08
6.25851e-09
4.55826e-09
3.90972e-09
2.13652e-09
1.26396e-09
1.01362e-09
9.95655e-10
1.01796e-09
1.0113e-09
9.61942e-10
7.93976e-10
5.51056e-10
3.13792e-10
1.48636e-10
5.59824e-11
2.96796e-11
1.99435e-11
1.34288e-11
9.04853e-12
1.78634e-08
2.54569e-08
1.63285e-08
5.70705e-09
2.29647e-09
1.47887e-09
1.78971e-09
1.49386e-09
1.0463e-09
8.1876e-10
7.40366e-10
6.9476e-10
6.26016e-10
5.14255e-10
3.63909e-10
2.1351e-10
1.00868e-10
3.29411e-11
2.55146e-11
1.7545e-11
1.16878e-11
7.61346e-12
4.94145e-12
2.26489e-09
4.47752e-09
3.13767e-09
1.63661e-09
1.43556e-09
1.17263e-09
9.91299e-10
8.37631e-10
6.72213e-10
5.40184e-10
4.47342e-10
3.67436e-10
2.83501e-10
1.94949e-10
9.7478e-11
4.33579e-11
3.10138e-11
2.08691e-11
1.34237e-11
8.47649e-12
5.29716e-12
3.31077e-12
2.10597e-12
3.42591e-10
8.80884e-10
7.5369e-10
8.4102e-10
8.64117e-10
7.24801e-10
5.28926e-10
4.20648e-10
3.36762e-10
2.58877e-10
1.8869e-10
1.2579e-10
6.01301e-11
4.38309e-11
2.94455e-11
2.00454e-11
1.3194e-11
8.4308e-12
5.24135e-12
3.19017e-12
1.92092e-12
1.16273e-12
7.25869e-13
5.922e-11
1.90407e-10
3.62761e-10
4.44989e-10
4.03051e-10
3.04141e-10
2.17677e-10
1.58005e-10
1.1066e-10
6.38251e-11
4.3467e-11
3.30539e-11
2.61581e-11
1.86021e-11
1.25663e-11
8.09882e-12
5.008e-12
2.98884e-12
1.73437e-12
9.88254e-13
5.60706e-13
3.23775e-13
1.98147e-13
2.9855e-11
8.96021e-11
1.56731e-10
1.56659e-10
1.23524e-10
8.52086e-11
5.24566e-11
3.71517e-11
3.08179e-11
2.80635e-11
2.22584e-11
1.61998e-11
1.13302e-11
7.43155e-12
4.62109e-12
2.73801e-12
1.55571e-12
8.53672e-13
4.56399e-13
2.40585e-13
1.27421e-13
7.05635e-14
4.53992e-14
2.75695e-11
2.6913e-11
3.34812e-11
3.44145e-11
3.04152e-11
2.72799e-11
2.59141e-11
2.16092e-11
1.68014e-11
1.29323e-11
9.38831e-12
6.43779e-12
4.13847e-12
2.46274e-12
1.38951e-12
7.46777e-13
3.85165e-13
1.9217e-13
9.36686e-14
4.5329e-14
2.27292e-14
1.37528e-14
1.40378e-14
1.10194e-11
2.10871e-11
2.34457e-11
2.16922e-11
1.84313e-11
1.53297e-11
1.22909e-11
9.40154e-12
6.98618e-12
4.99184e-12
3.36656e-12
2.12258e-12
1.23449e-12
6.58054e-13
3.33284e-13
1.60951e-13
7.46679e-14
3.35722e-14
1.48398e-14
6.7778e-15
4.03533e-15
5.03393e-15
1.12301e-14
3.94832e-12
8.97682e-12
9.91929e-12
9.11009e-12
7.68667e-12
6.18569e-12
4.73159e-12
3.4589e-12
2.42147e-12
1.60518e-12
9.93983e-13
5.67174e-13
2.93241e-13
1.38966e-13
6.263e-14
2.69752e-14
1.11795e-14
4.51742e-15
1.89145e-15
1.15717e-15
1.83493e-15
4.87574e-15
1.33699e-14
1.27542e-12
3.2421e-12
3.58732e-12
3.25249e-12
2.68386e-12
2.07974e-12
1.52125e-12
1.05421e-12
6.89383e-13
4.20679e-13
2.36218e-13
1.20056e-13
5.40878e-14
2.2747e-14
9.07254e-15
3.46411e-15
1.2815e-15
4.93195e-16
3.15769e-16
6.25279e-16
1.91009e-15
5.75393e-15
1.60393e-14
3.65485e-13
9.98844e-13
1.09664e-12
9.73839e-13
7.79281e-13
5.79332e-13
4.03068e-13
2.62464e-13
1.58838e-13
8.82314e-14
4.42599e-14
1.96483e-14
7.67506e-15
2.84081e-15
9.99283e-16
3.38193e-16
1.18971e-16
7.79494e-17
1.84639e-16
6.38073e-16
2.12303e-15
6.51513e-15
1.83944e-14
9.14491e-14
2.62185e-13
2.81742e-13
2.42871e-13
1.87091e-13
1.32607e-13
8.70342e-14
5.27225e-14
2.91883e-14
1.45455e-14
6.39369e-15
2.40409e-15
8.25557e-16
2.67638e-16
8.29848e-17
2.63948e-17
1.64898e-17
4.42533e-17
1.72556e-16
6.40789e-16
2.19263e-15
6.91836e-15
2.01517e-14
1.97463e-14
5.82884e-14
6.04986e-14
5.01495e-14
3.68918e-14
2.47269e-14
1.51576e-14
8.44056e-15
4.21233e-15
1.84716e-15
6.92113e-16
2.21338e-16
6.6487e-17
1.88996e-17
5.37715e-18
2.87093e-18
8.09225e-18
3.57084e-17
1.49975e-16
5.80301e-16
2.07319e-15
6.86381e-15
2.10879e-14
3.64515e-15
1.08922e-14
1.07944e-14
8.52327e-15
5.93503e-15
3.72539e-15
2.10782e-15
1.06315e-15
4.69131e-16
1.76257e-16
5.44573e-17
1.52656e-17
4.00191e-18
1.01951e-18
4.1339e-19
1.06607e-18
5.30784e-18
2.55442e-17
1.13518e-16
4.66109e-16
1.7735e-15
6.27442e-15
2.06945e-14
5.70164e-16
1.69849e-15
1.59187e-15
1.18646e-15
7.74611e-16
4.50229e-16
2.31766e-16
1.03889e-16
3.94802e-17
1.21693e-17
3.23644e-18
7.90821e-19
1.82465e-19
5.33117e-20
9.76247e-20
5.30919e-19
2.93975e-18
1.52019e-17
7.30603e-17
3.25089e-16
1.33765e-15
5.10841e-15
1.82199e-14
7.48641e-17
2.19695e-16
1.93293e-16
1.34857e-16
8.17147e-17
4.34014e-17
1.99649e-17
7.75506e-18
2.43699e-18
6.33371e-19
1.46723e-19
3.12605e-20
6.98596e-21
6.48756e-21
3.41147e-20
2.11922e-19
1.27021e-18
7.23806e-18
3.86686e-17
1.89447e-16
8.49648e-16
3.51457e-15
1.35569e-14
8.17085e-18
2.34667e-17
1.92948e-17
1.25125e-17
6.96297e-18
3.32772e-18
1.33708e-18
4.33665e-19
1.14521e-19
2.59096e-20
5.21056e-21
9.90353e-22
3.91338e-22
1.45591e-21
9.21977e-21
6.06317e-20
3.9943e-19
2.61822e-18
1.58093e-17
8.60016e-17
4.24027e-16
1.91626e-15
8.03454e-15
7.33848e-19
2.06418e-18
1.58568e-18
9.5149e-19
4.81472e-19
2.0331e-19
6.94081e-20
1.93198e-20
4.41955e-21
8.61691e-22
1.50026e-22
3.11946e-23
4.95363e-23
2.66641e-22
1.65693e-21
1.10891e-20
8.42828e-20
6.51416e-19
4.5248e-18
2.788e-17
1.54105e-16
7.74862e-16
3.59788e-15
5.3475e-20
1.49065e-19
1.07729e-19
5.98549e-20
2.73324e-20
1.02422e-20
3.0787e-21
7.44233e-22
1.46272e-22
2.43474e-23
3.78854e-24
1.7987e-24
6.72964e-24
3.30732e-23
1.76769e-22
1.08682e-21
1.01617e-20
9.56023e-20
7.88798e-19
5.69051e-18
3.63625e-17
2.09189e-16
1.10305e-15
3.26353e-21
9.05673e-21
6.27322e-21
3.28185e-21
1.38816e-21
4.67261e-22
1.2436e-22
2.58747e-23
4.32097e-24
6.08312e-25
1.08795e-25
1.82455e-25
6.99425e-25
2.71071e-24
1.00732e-23
4.50186e-23
5.44434e-22
6.53669e-21
6.72504e-20
5.95574e-19
4.59889e-18
3.14653e-17
1.94231e-16
1.67771e-22
4.8122e-22
3.31442e-22
1.67325e-22
6.64919e-23
2.04183e-23
4.79419e-24
8.54854e-25
1.18789e-25
1.43513e-26
5.95805e-27
1.83808e-26
5.52571e-26
1.51279e-25
3.00028e-25
6.13604e-25
8.51434e-24
1.38557e-22
1.91346e-21
2.24868e-20
2.27357e-19
2.00376e-18
1.5641e-17
6.98309e-24
2.27813e-23
1.63331e-23
8.1909e-24
3.09696e-24
8.77958e-25
1.82691e-25
2.75419e-26
3.09881e-27
3.88725e-28
5.50502e-28
1.61341e-27
3.50712e-27
6.15023e-27
5.30552e-27
2.41371e-27
1.45456e-26
3.67324e-25
7.97072e-24
1.45941e-22
2.27962e-21
3.07436e-20
3.62514e-19
2.24389e-25
9.72359e-25
7.57933e-25
3.85475e-25
1.43737e-25
3.84056e-26
7.15734e-27
8.92085e-28
7.6528e-29
1.94299e-29
5.6516e-29
1.29747e-28
1.92593e-28
1.95626e-28
5.9265e-29
7.78331e-30
6.31022e-31
1.21687e-30
6.90802e-29
3.39458e-27
1.42591e-25
5.20248e-24
1.67362e-22
0.985629
0.973581
0.960743
0.947505
0.744923
0.676497
0.654217
0.596237
0.0699515
0.0632713
0.149315
0.197053
0.00731241
0.0230474
0.134393
0.187361
0.00449592
0.0566045
0.0863507
0.0387612
0.000749292
3.51672e-07
4.0639e-07
5.79761e-07
3.5167e-07
3.25547e-07
3.51676e-07
1.11992e-06
1.65655e-07
2.26455e-07
9.56118e-07
7.54328e-06
3.05737e-09
1.89226e-08
3.43848e-06
7.66462e-06
1.54751e-10
2.72453e-08
8.74315e-09
3.70525e-08
-4.45641e-11
1.91136e-10
1.51729e-09
8.67091e-09
9.42701e-11
1.67545e-10
5.58584e-10
2.23197e-09
8.201e-11
8.68468e-11
2.34746e-10
7.46296e-10
4.98351e-11
4.98536e-11
9.01923e-11
2.09845e-10
4.08681e-11
3.32143e-11
3.307e-11
3.57923e-11
3.16056e-11
2.67006e-11
2.51779e-11
1.8082e-11
2.47976e-11
2.00925e-11
1.71272e-11
1.51938e-11
1.76215e-11
1.44122e-11
1.22271e-11
1.07625e-11
1.19312e-11
9.72776e-12
8.12916e-12
7.0202e-12
7.28383e-12
5.93368e-12
4.93649e-12
4.23497e-12
3.91072e-12
3.14403e-12
2.59581e-12
2.22498e-12
1.66367e-12
1.34381e-12
1.12148e-12
9.77067e-13
5.72251e-13
4.65158e-13
3.94502e-13
3.52997e-13
1.56963e-13
1.30727e-13
1.16296e-13
1.11803e-13
3.89056e-14
3.6981e-14
3.92027e-14
4.56729e-14
1.61958e-14
2.0534e-14
2.74859e-14
3.77643e-14
1.57205e-14
2.22547e-14
3.1542e-14
4.45321e-14
1.91429e-14
2.73054e-14
3.8724e-14
5.45305e-14
2.29611e-14
3.27009e-14
4.62788e-14
6.50371e-14
2.63801e-14
3.76351e-14
5.33765e-14
7.52608e-14
2.90966e-14
4.18222e-14
5.98775e-14
8.55398e-14
3.08275e-14
4.49691e-14
6.57074e-14
9.66581e-14
3.07657e-14
4.59057e-14
6.94561e-14
1.0755e-13
2.76174e-14
4.25233e-14
6.78576e-14
1.133e-13
2.10107e-14
3.38422e-14
5.83601e-14
1.07374e-13
1.28338e-14
2.2182e-14
4.26494e-14
8.77687e-14
6.03867e-15
1.16801e-14
2.5837e-14
5.98113e-14
2.021e-15
4.62337e-15
1.20097e-14
3.13834e-14
4.19182e-16
1.19548e-15
3.657e-15
1.09887e-14
4.66672e-17
1.7513e-16
6.41343e-16
2.37588e-15
2.04918e-18
1.09306e-17
5.20101e-17
2.84112e-16
3.89254e-21
5.15104e-20
6.7085e-19
1.19907e-17
0.921002
0.93848
0.854597
0.445576
0.147364
0.14648
0.189514
0.291936
0.165693
0.190331
0.461533
0.476731
0.476583
0.226164
0.0920651
0.0916614
0.180376
0.168689
0.0704037
0.386179
0.37912
0.335496
0.140137
0.140137
0.17527
0.123061
0.0657714
0.0654649
0.0201813
0.161532
0.460107
0.431921
0.116607
0.0916614
0.180872
0.189672
0.146508
0.0692976
0.144099
0.135073
0.145611
0.144966
0.165717
0.21742
0.217104
0.069761
0.0184016
0.0179557
0.0180493
0.0792131
0.185689
0.0672866
0.132445
0.193166
0.192791
0.11239
0.0692976
0.172264
0.132982
0.166181
0.215863
0.215863
0.216641
0.165552
0.0256157
0.0179562
0.01805
0.0179557
0.01805
0.0195162
0.0677438
0.193297
0.19323
0.193166
0.192811
0.105013
0.0334161
0.0574001
0.0850909
0.134695
0.140414
0.071996
0.0132759
0.0146961
0.0284637
0.0483393
0.0354424
0.018358
0.0185718
0.0699949
0.193051
0.193166
0.192988
0.1926
0.192336
1.27405e-06
2.80956e-06
6.01116e-06
1.32837e-05
2.84854e-05
7.48421e-05
0.0129907
0.0160951
0.0545414
0.0546343
0.0547271
0.0355541
0.0194455
0.0314168
0.176646
0.173474
0.106591
0.192293
0.192293
6.71108e-06
1.46592e-05
3.4315e-05
6.56245e-05
0.000214583
0.00634086
0.018831
0.0205524
0.0338042
0.0459892
0.0543924
0.0547207
0.0395332
0.0263659
0.0447701
0.0495909
0.0457821
0.143716
0.14338
3.00217e-05
4.62924e-05
0.000122841
0.000322904
0.00117687
0.00106405
0.00179244
0.00344292
0.000528615
0.0030708
0.0215213
0.0460018
0.045199
0.0411448
0.00345954
0.000541009
0.0132813
0.00163651
7.90214e-05
2.15165e-07
9.17918e-07
1.40277e-06
2.41972e-06
4.78567e-06
5.00443e-06
9.18429e-06
1.21212e-05
0.000145216
0.000268769
0.000471655
0.00485537
0.0285641
0.0273021
0.00417352
0.000216868
0.00371797
0.000135858
7.87065e-05
8.61468e-08
1.50447e-06
1.65759e-05
2.30178e-05
1.07527e-05
5.23338e-06
4.48323e-06
5.58113e-06
0.000271291
0.000704604
0.000632066
7.12736e-05
0.0006448
0.00177265
0.0015792
0.000164872
0.00024959
0.000152624
7.82737e-05
4.73678e-08
5.21257e-06
3.07096e-05
3.05693e-05
3.06569e-05
9.47181e-06
3.68383e-06
2.45841e-05
0.00054532
0.000706868
0.000496932
4.21821e-05
5.1192e-05
7.26719e-05
9.13722e-05
0.000120461
0.000116817
0.000117571
7.82737e-05
1.16369e-08
6.09485e-08
1.14347e-05
3.05539e-05
3.07972e-05
1.49973e-05
3.53218e-06
4.18438e-06
3.37479e-05
8.2682e-05
4.57064e-05
3.89161e-05
4.21821e-05
5.18304e-05
7.62627e-05
0.000270868
0.000153364
0.00013949
7.82737e-05
3.97782e-09
1.94253e-08
1.781e-06
2.98613e-05
3.13408e-05
1.87098e-05
3.42977e-06
3.42972e-06
3.42961e-06
3.75336e-06
5.35865e-06
3.6991e-05
0.00019836
0.00027537
0.000274338
0.0002711
0.000231385
8.28511e-05
9.84147e-05
1.01647e-09
6.76204e-09
7.81237e-08
1.35531e-05
3.15088e-05
3.16767e-05
9.58176e-06
3.42977e-06
3.75533e-06
3.29235e-05
0.00022919
0.000277143
0.000277146
0.000277146
0.000277146
0.000184492
0.000111774
0.000114819
0.000186218
1.19083e-10
1.61266e-09
2.45486e-08
6.02767e-06
3.16767e-05
3.16767e-05
3.16767e-05
1.09108e-05
6.54455e-06
0.000108316
0.000277139
0.000277139
0.000277143
0.000211745
3.14734e-05
3.67291e-05
0.000182956
0.0001877
0.000186369
1.48568e-11
-3.257e-11
6.61333e-10
1.17493e-08
8.57528e-06
3.16767e-05
3.16035e-05
3.15227e-05
1.23261e-05
2.9266e-05
0.000129342
0.000169288
7.6861e-05
6.94229e-06
2.47886e-07
9.99753e-07
7.44778e-05
0.000186369
0.0001863
1.1256e-11
9.54871e-12
4.13691e-12
-2.98966e-10
2.2806e-10
2.82417e-06
2.73078e-05
3.07771e-05
1.24368e-05
2.8764e-06
1.95148e-06
1.92579e-06
5.87254e-07
2.47886e-07
1.88432e-07
3.2026e-07
2.54216e-06
0.000142207
0.000187689
9.40481e-12
8.44389e-12
8.94558e-12
1.05548e-11
1.20727e-11
2.61108e-10
3.82173e-09
1.03276e-06
3.36263e-06
3.52841e-06
1.95877e-06
1.09892e-06
9.68288e-07
5.24798e-07
1.19199e-07
3.33602e-08
1.86183e-05
0.000175548
0.000189658
6.02866e-12
6.34387e-12
1.06556e-11
1.3714e-11
2.01538e-11
1.8161e-10
1.01556e-07
8.2243e-07
1.21449e-06
1.06196e-06
1.01844e-06
1.92254e-06
1.92793e-06
1.71806e-06
5.511e-08
2.35754e-09
5.68086e-06
5.41561e-05
0.000126092
3.61641e-12
3.7883e-12
5.01226e-12
1.32052e-11
1.04116e-11
2.32065e-11
1.55639e-07
1.08161e-06
1.22204e-06
3.37433e-07
1.96223e-07
7.12232e-07
1.03578e-06
3.06216e-07
2.35656e-09
2.17122e-09
1.07812e-09
1.18522e-09
4.23261e-07
1.94734e-12
2.14956e-12
3.02827e-12
5.24248e-12
9.80415e-12
1.15359e-11
1.47851e-10
1.66863e-07
9.40674e-07
9.1192e-07
1.41094e-07
1.24751e-08
2.20069e-09
1.29894e-09
3.41801e-09
5.65861e-09
9.57865e-10
1.09313e-09
4.60929e-05
9.08565e-13
1.10748e-12
1.75606e-12
3.35636e-12
6.87715e-12
1.30262e-11
1.46565e-11
9.85194e-10
2.00981e-07
4.38209e-07
3.08902e-07
1.32874e-07
1.29408e-08
1.29489e-09
7.38139e-09
6.38046e-09
8.13513e-10
3.00383e-05
0.000128597
3.70346e-13
5.43956e-13
1.04732e-12
2.30438e-12
5.06752e-12
1.00742e-11
1.64791e-11
1.81448e-11
7.66176e-11
1.07919e-07
2.48983e-07
1.01547e-07
1.30504e-09
1.22529e-09
6.97375e-09
3.0743e-09
7.41462e-10
0.000117865
0.000128597
1.56054e-13
3.11037e-13
7.45286e-13
1.84266e-12
4.24171e-12
8.58081e-12
1.51251e-11
1.84263e-11
2.2778e-11
1.4159e-09
6.58133e-08
8.28488e-08
2.90384e-08
5.33133e-10
2.90772e-09
1.08399e-09
6.9103e-10
0.000127878
0.000128597
1.00485e-13
2.57807e-13
6.90109e-13
1.7704e-12
4.09623e-12
8.25313e-12
1.51483e-11
2.57212e-11
3.1937e-11
3.70185e-11
8.54113e-11
5.51289e-09
2.12724e-09
4.98008e-10
6.55463e-10
6.37586e-10
6.4353e-10
7.12348e-05
0.000128545
1.03553e-13
2.82708e-13
7.6129e-13
1.91971e-12
4.34521e-12
8.61397e-12
1.54288e-11
2.70423e-11
4.75219e-11
7.07967e-11
8.12076e-11
1.06789e-10
2.7113e-10
4.45572e-10
6.3789e-10
6.33776e-10
6.36889e-10
3.47673e-05
0.000128122
1.25047e-13
3.40428e-13
8.98696e-13
2.19493e-12
4.7939e-12
9.2865e-12
1.63186e-11
2.75968e-11
4.75001e-11
7.97818e-11
1.19414e-10
2.10386e-10
2.70833e-10
6.1427e-10
6.40972e-10
6.37394e-10
6.43338e-10
7.02394e-05
0.000127084
1.53168e-13
4.14908e-13
1.07816e-12
2.56951e-12
5.43775e-12
1.02497e-11
1.7697e-11
2.93201e-11
4.8679e-11
7.9401e-11
1.22783e-10
1.77883e-10
2.2912e-10
6.75001e-10
6.49741e-10
6.43943e-10
6.51515e-10
0.000101301
5.85271e-05
1.84807e-13
4.98142e-13
1.26989e-12
2.96228e-12
6.12683e-12
1.12771e-11
1.90263e-11
3.06944e-11
4.9176e-11
7.70626e-11
1.17481e-10
2.04437e-10
4.14874e-10
1.19031e-09
9.13801e-10
6.51755e-10
2.30954e-06
0.000102392
5.25788e-05
2.21547e-13
5.93027e-13
1.46055e-12
3.29812e-12
6.61368e-12
1.17218e-11
1.91911e-11
3.06699e-11
4.79871e-11
7.42276e-11
1.82493e-10
6.77031e-10
1.61781e-09
3.2192e-09
2.60361e-09
6.71047e-10
7.445e-10
0.000102547
5.2579e-05
2.72918e-13
7.27606e-13
1.69119e-12
3.61879e-12
6.9708e-12
1.19185e-11
1.85219e-11
2.7655e-11
4.07856e-11
1.27729e-10
7.04955e-10
1.86889e-09
2.28391e-09
5.49122e-09
4.76747e-09
7.44032e-10
1.84372e-05
0.000107252
5.32625e-05
3.57012e-13
9.66391e-13
2.11283e-12
4.32506e-12
8.12883e-12
1.37448e-11
2.10149e-11
2.9909e-11
4.67646e-11
2.79098e-10
1.13021e-09
1.40571e-09
3.17398e-09
1.03688e-08
7.94829e-09
9.05178e-10
5.84248e-05
0.000107252
5.07868e-05
4.85075e-13
1.36997e-12
2.94866e-12
6.06175e-12
1.14433e-11
1.93274e-11
3.01351e-11
4.41178e-11
9.00051e-11
4.52347e-10
9.04583e-10
9.02011e-10
6.48576e-09
1.03682e-08
7.80371e-09
1.17641e-09
6.30477e-05
0.000107252
2.777e-05
6.27292e-13
1.87277e-12
4.27284e-12
9.08772e-12
1.68036e-11
2.67013e-11
3.94629e-11
5.70499e-11
1.40627e-10
5.15331e-10
9.67855e-10
1.96816e-09
5.34095e-09
5.61365e-09
2.27289e-09
1.44969e-09
3.25989e-05
6.21851e-05
7.65541e-06
7.03275e-13
2.22176e-12
5.68816e-12
1.32726e-11
2.482e-11
3.5319e-11
4.16335e-11
8.13902e-11
6.33902e-10
2.05289e-09
2.65755e-09
2.74558e-09
2.09798e-09
1.55206e-09
1.54233e-09
1.53152e-09
7.30888e-06
1.05242e-05
3.61207e-06
6.46456e-13
2.17274e-12
6.33112e-12
1.72779e-11
3.76941e-11
5.44651e-11
6.46487e-11
1.19921e-10
1.174e-09
2.4197e-09
2.47736e-09
1.5979e-09
1.40664e-09
1.42866e-09
2.31774e-07
2.05958e-06
1.40643e-06
2.50793e-08
9.99033e-08
4.77009e-13
1.74452e-12
5.8419e-12
1.89267e-11
5.40972e-11
1.02291e-10
1.38648e-10
1.78395e-10
6.53238e-10
1.23092e-09
6.68412e-10
2.79988e-10
2.89444e-07
2.77756e-06
3.62287e-06
3.62493e-06
1.20462e-06
3.77307e-09
6.59374e-10
2.68871e-13
1.12475e-12
4.47664e-12
1.68371e-11
5.80773e-11
1.48081e-10
2.15766e-10
2.49493e-10
2.84015e-10
2.80009e-10
2.64696e-10
2.72648e-10
3.11306e-06
3.62287e-06
3.62537e-06
3.62435e-06
8.98431e-07
6.59252e-10
3.38419e-10
1.0351e-13
5.47586e-13
2.62142e-12
1.10876e-11
4.61978e-11
1.12935e-10
2.79119e-10
2.92006e-10
2.73155e-10
2.6375e-10
2.63889e-10
1.43117e-07
1.58695e-06
3.05665e-06
3.15614e-06
1.94627e-06
1.71578e-07
3.37902e-10
2.88135e-10
2.5441e-14
1.95851e-13
1.26833e-12
5.8972e-12
2.70527e-11
6.71127e-11
1.56062e-10
4.52768e-10
4.23059e-10
2.64079e-10
1.17713e-08
8.36585e-08
1.69058e-08
1.58656e-07
1.88038e-07
2.60116e-08
1.02077e-08
1.08584e-09
2.87214e-10
3.75265e-15
4.94799e-14
4.5285e-13
2.67002e-12
1.13704e-11
2.5828e-11
1.36357e-10
8.41534e-10
1.29556e-09
1.43003e-09
6.95864e-09
1.29316e-09
1.09522e-09
1.22001e-09
9.42821e-10
4.72298e-10
2.32983e-10
1.73726e-10
2.45664e-08
2.86218e-16
7.42819e-15
9.85893e-14
7.77855e-13
4.14444e-12
1.25922e-11
9.40469e-11
3.91607e-10
1.03509e-09
1.36024e-09
1.18753e-09
1.08692e-09
1.08705e-09
9.2788e-10
5.4914e-10
2.53065e-10
1.74429e-10
1.72026e-10
8.05104e-08
)
;

boundaryField
{
    leftWall
    {
        type            zeroGradient;
    }
    rightWall
    {
        type            zeroGradient;
    }
    lowerWall
    {
        type            zeroGradient;
    }
    atmosphere
    {
        type            inletOutlet;
        inletValue      uniform 0;
        value           nonuniform List<scalar> 
46
(
0
0
0
0
0
0
0
0
0
0
0
0
0
0
0
0
0
0
0
0
0
0
0
0
0
0
0
0
0
0
0
0
0
0
3.91607e-10
1.03509e-09
1.36024e-09
1.18753e-09
1.08692e-09
1.08705e-09
9.2788e-10
5.4914e-10
2.53065e-10
1.74429e-10
1.72026e-10
8.05104e-08
)
;
    }
    defaultFaces
    {
        type            empty;
    }
}


// ************************************************************************* //
