/*--------------------------------*- C++ -*----------------------------------*\
| =========                 |                                                 |
| \\      /  F ield         | OpenFOAM: The Open Source CFD Toolbox           |
|  \\    /   O peration     | Version:  2.3.0                                 |
|   \\  /    A nd           | Web:      www.OpenFOAM.org                      |
|    \\/     M anipulation  |                                                 |
\*---------------------------------------------------------------------------*/
FoamFile
{
    version     2.0;
    format      ascii;
    class       volScalarField;
    location    "1.25";
    object      epsilon;
}
// * * * * * * * * * * * * * * * * * * * * * * * * * * * * * * * * * * * * * //

dimensions      [0 2 -3 0 0 0 0];

internalField   nonuniform List<scalar> 
2268
(
0.0127267
0.0461443
0.0829691
0.126534
0.177491
0.234312
0.293571
0.351593
0.408398
0.457681
0.496511
0.525362
0.550588
0.605394
0.706552
0.841
0.993845
1.13862
1.17091
1.04475
0.764153
0.391555
0.106394
0.0217132
0.0300439
0.043979
0.0618022
0.0834158
0.108665
0.136948
0.167646
0.201027
0.235175
0.268312
0.299309
0.329551
0.364057
0.402898
0.444157
0.486202
0.525895
0.53201
0.487253
0.383192
0.242645
0.131829
0.0362191
0.035684
0.0456886
0.0598449
0.0772236
0.0976082
0.120839
0.146951
0.176213
0.20775
0.240435
0.272739
0.303398
0.332099
0.359635
0.387067
0.41395
0.436265
0.438009
0.409254
0.344503
0.245746
0.179932
0.0520052
0.044357
0.0532228
0.0668981
0.0836601
0.10308
0.125132
0.150195
0.178549
0.209676
0.242606
0.275538
0.306092
0.332678
0.357389
0.381486
0.403906
0.420641
0.421898
0.402332
0.359089
0.287899
0.231097
0.0689905
0.0547661
0.0636122
0.077964
0.0953254
0.115037
0.137159
0.162344
0.190828
0.22217
0.255331
0.288338
0.318461
0.344324
0.368705
0.392414
0.413621
0.428616
0.431535
0.42132
0.39938
0.360801
0.316065
0.0876087
0.0671045
0.0765399
0.092165
0.110679
0.131194
0.153873
0.179648
0.208644
0.240318
0.273462
0.30605
0.335483
0.361138
0.386009
0.410373
0.431838
0.447064
0.453277
0.453692
0.457791
0.474567
0.483121
0.10889
0.0819659
0.0922478
0.109435
0.129316
0.150774
0.174114
0.200608
0.230183
0.262068
0.29485
0.326583
0.355117
0.380715
0.406292
0.431673
0.454155
0.470978
0.481496
0.492622
0.526287
0.638811
0.966674
0.134804
0.100134
0.111145
0.129928
0.151134
0.173405
0.197224
0.224345
0.25438
0.286212
0.318252
0.348758
0.376333
0.401917
0.428232
0.454748
0.47878
0.498292
0.513246
0.532277
0.58796
0.806813
2.08713
0.13346
0.247423
0.309952
0.478596
0.966895
1.63859
2.35226
2.52167
2.10607
1.64515
1.39238
1.29214
1.2483
1.18454
1.01423
0.776831
0.531892
0.297488
0.0581368
0.154372
0.195638
0.239525
0.381053
0.638712
0.819104
1.01428
1.0712
0.969644
0.84494
0.755557
0.687957
0.638312
0.590152
0.515355
0.41979
0.317819
0.2117
0.111194
0.24549
0.257549
0.283193
0.38681
0.552192
0.657123
0.764849
0.808421
0.765768
0.695451
0.638047
0.587166
0.546453
0.507566
0.453258
0.380802
0.299835
0.220026
0.191553
0.376215
0.345159
0.345413
0.410564
0.517219
0.596919
0.671544
0.710261
0.691863
0.643008
0.599889
0.56079
0.528564
0.498286
0.454692
0.390067
0.314298
0.245143
0.276748
0.585369
0.455755
0.415944
0.442714
0.507398
0.573433
0.631715
0.668238
0.662518
0.624596
0.59021
0.560463
0.535994
0.515144
0.480496
0.418543
0.341926
0.277638
0.366742
0.934403
0.587337
0.488437
0.479107
0.51509
0.570369
0.619055
0.654926
0.657383
0.624534
0.596463
0.575039
0.556683
0.54701
0.522321
0.459797
0.377904
0.31563
0.466955
1.51102
0.724245
0.554445
0.519239
0.538026
0.582086
0.623316
0.659892
0.668861
0.636781
0.611951
0.599283
0.5866
0.590022
0.57886
0.512106
0.42039
0.358233
0.582729
2.43471
0.818006
0.604226
0.564152
0.575631
0.606308
0.639056
0.677566
0.692278
0.657805
0.63353
0.627983
0.623086
0.642523
0.650456
0.573261
0.466996
0.403497
0.687571
0.172146
0.129275
0.142511
0.164312
0.187935
0.211778
0.236661
0.264783
0.29518
0.326401
0.35674
0.38499
0.41115
0.436848
0.464284
0.492727
0.5199
0.543777
0.563828
0.586446
0.638557
0.776564
1.16161
0.251893
0.187336
0.201453
0.22611
0.251448
0.275437
0.299373
0.325582
0.352961
0.380159
0.406044
0.43068
0.455541
0.482411
0.512419
0.545585
0.581204
0.617021
0.644339
0.657809
0.681158
0.731695
0.825103
0.375083
0.269244
0.279939
0.304363
0.328252
0.349179
0.369149
0.390423
0.412355
0.434026
0.455464
0.478021
0.503747
0.533662
0.567607
0.605771
0.651604
0.709992
0.754346
0.748898
0.742313
0.742265
0.750329
0.560626
0.380553
0.38056
0.399183
0.416693
0.43034
0.442842
0.456673
0.471863
0.488511
0.508211
0.532958
0.563838
0.599759
0.638104
0.678596
0.730801
0.818214
0.908031
0.868721
0.826335
0.783831
0.750006
0.831655
0.528179
0.505099
0.508773
0.513233
0.514998
0.517042
0.522432
0.531801
0.546688
0.570276
0.603788
0.645539
0.690867
0.731255
0.762975
0.803455
0.871826
0.933576
0.98077
0.948958
0.85577
0.773334
1.24903
0.72728
0.655197
0.628993
0.612133
0.598218
0.588747
0.586662
0.593399
0.61224
0.647177
0.696347
0.754241
0.81342
0.850453
0.849697
0.842924
0.865755
0.905656
0.96545
1.01376
0.931219
0.803041
1.8838
0.990782
0.822871
0.743381
0.696109
0.668436
0.656741
0.652091
0.657365
0.685981
0.739102
0.804084
0.866841
0.914927
0.927849
0.896588
0.862072
0.856918
0.885366
0.947235
1.00739
0.940084
0.808742
2.97202
1.26147
0.935374
0.801227
0.736544
0.707481
0.70003
0.706799
0.720448
0.751736
0.811077
0.86934
0.906022
0.915333
0.902682
0.86905
0.839235
0.834737
0.862372
0.924246
0.977763
0.908479
0.792707
3.98951
1.43643
0.96713
0.820315
0.756869
0.728578
0.722963
0.735437
0.76311
0.802532
0.851702
0.885183
0.890021
0.877713
0.853179
0.825503
0.807489
0.803894
0.828838
0.88298
0.910024
0.846526
0.755308
4.05019
1.54725
1.0284
0.872896
0.797635
0.753693
0.741959
0.756697
0.793876
0.855144
0.919946
0.912861
0.876795
0.844905
0.818762
0.79519
0.777639
0.765245
0.788111
0.836438
0.844525
0.787474
0.708848
3.86033
1.68035
1.16343
0.992002
0.867712
0.791318
0.759814
0.767976
0.805815
0.877529
0.978175
0.957392
0.873579
0.820498
0.783298
0.745599
0.715662
0.708809
0.727749
0.754363
0.746601
0.698683
0.641937
3.51364
1.72449
1.28096
1.05346
0.89563
0.815025
0.776391
0.765243
0.780636
0.814619
0.845008
0.826826
0.772792
0.731851
0.695853
0.665757
0.647492
0.643956
0.650817
0.653552
0.635869
0.602699
0.570421
3.14931
1.83014
1.29745
0.987154
0.851082
0.78645
0.756187
0.735298
0.724222
0.719129
0.71093
0.69415
0.667627
0.642592
0.61978
0.601065
0.588622
0.581573
0.576001
0.56509
0.545825
0.52508
0.50964
2.75431
1.68804
1.16484
0.891505
0.780462
0.729202
0.70283
0.683896
0.666125
0.64903
0.634505
0.620627
0.604079
0.586177
0.568015
0.551348
0.536922
0.523646
0.50961
0.493201
0.476911
0.464939
0.460958
2.28108
1.42471
0.997196
0.788385
0.701535
0.661229
0.639233
0.622602
0.60617
0.59015
0.576868
0.565393
0.55259
0.537309
0.520135
0.502384
0.484821
0.467332
0.450007
0.434021
0.421808
0.416524
0.420487
1.79858
1.15921
0.849159
0.687011
0.617496
0.585356
0.567686
0.554372
0.541365
0.528431
0.517013
0.506693
0.495187
0.481064
0.464562
0.446789
0.428774
0.411308
0.395278
0.382267
0.374576
0.374589
0.383993
1.35464
0.919174
0.710909
0.589296
0.531709
0.504987
0.49093
0.480831
0.471037
0.460857
0.450875
0.441132
0.430366
0.417521
0.402772
0.387023
0.371313
0.356624
0.344091
0.335235
0.331919
0.335967
0.348774
0.978827
0.712376
0.579896
0.493647
0.448091
0.426035
0.414693
0.407
0.399651
0.391622
0.383011
0.37395
0.364144
0.353052
0.34089
0.328325
0.316241
0.305524
0.297192
0.292481
0.292801
0.29955
0.31392
0.687214
0.541362
0.462746
0.405452
0.371655
0.354032
0.344748
0.338639
0.332953
0.326597
0.319419
0.311571
0.303181
0.294215
0.284917
0.275774
0.2674
0.260483
0.255821
0.25436
0.257167
0.265346
0.279905
0.477087
0.40468
0.362892
0.328159
0.305178
0.292026
0.284626
0.279682
0.275185
0.270201
0.264503
0.258206
0.251538
0.244798
0.238144
0.231936
0.226596
0.222619
0.220598
0.221248
0.225391
0.233911
0.247657
0.33332
0.298706
0.28059
0.262503
0.248816
0.240108
0.234756
0.230993
0.227578
0.22386
0.219641
0.214998
0.210143
0.205395
0.200915
0.196952
0.193798
0.191807
0.191424
0.193194
0.197763
0.205844
0.218146
0.239038
0.219501
0.215021
0.208175
0.201733
0.197053
0.193866
0.191454
0.189197
0.18673
0.183933
0.180857
0.177661
0.174591
0.171805
0.169472
0.167803
0.167063
0.167589
0.169808
0.174233
0.181442
0.192022
0.179785
0.16279
0.16478
0.164586
0.163125
0.161646
0.160461
0.159442
0.158376
0.157116
0.155613
0.153911
0.152118
0.150405
0.148911
0.147757
0.147099
0.147139
0.148143
0.150449
0.154468
0.160667
0.169528
0.143666
0.12382
0.127757
0.130788
0.132266
0.132988
0.13339
0.133597
0.133614
0.133418
0.133015
0.132441
0.131773
0.131123
0.130611
0.130323
0.130377
0.130931
0.132197
0.134442
0.137998
0.143242
0.150569
0.121583
0.0978302
0.101344
0.105398
0.108271
0.110274
0.111749
0.112883
0.113757
0.114409
0.114867
0.115166
0.115358
0.115518
0.115747
0.116105
0.116683
0.117604
0.119034
0.121191
0.124337
0.128778
0.134837
0.107461
0.0806689
0.0828479
0.0867404
0.0900176
0.0926034
0.0946881
0.0964223
0.0978956
0.0991582
0.100243
0.101178
0.102001
0.102764
0.103546
0.10439
0.105364
0.106564
0.108123
0.110212
0.113043
0.116862
0.121932
0.0977378
0.0691487
0.0698865
0.073129
0.0762774
0.0790025
0.0813535
0.0834183
0.0852622
0.0869264
0.0884374
0.0898163
0.0910871
0.0922888
0.0934808
0.0946917
0.0959716
0.0973952
0.0990668
0.101124
0.103736
0.107103
0.111438
0.0904872
0.0610962
0.060623
0.0631199
0.0659193
0.0685482
0.0709526
0.0731607
0.0752065
0.0771145
0.0789008
0.080577
0.0821537
0.0836786
0.0851742
0.0866628
0.0881818
0.0897888
0.0915663
0.0936242
0.0961001
0.0991545
0.102963
0.0847203
0.0551815
0.0538017
0.0556338
0.0580399
0.0604764
0.0628227
0.0650617
0.0671996
0.0692443
0.0712012
0.0730738
0.0748675
0.0766223
0.078343
0.0800437
0.0817517
0.0835112
0.0853879
0.0874703
0.0898705
0.0927199
0.0961637
0.0799709
0.0506677
0.0486467
0.0499447
0.0519918
0.0542158
0.056457
0.0586674
0.0608325
0.0629467
0.0650062
0.067007
0.0689598
0.0708817
0.0727713
0.0746358
0.0764942
0.0783806
0.0803472
0.0824665
0.084831
0.0875497
0.0907439
0.0760687
0.047179
0.0447109
0.0455965
0.0473414
0.049366
0.0514889
0.0536434
0.0558007
0.0579456
0.0600672
0.0621565
0.064229
0.0662773
0.0682967
0.0702893
0.0722674
0.0742569
0.0763001
0.0784573
0.0808061
0.083439
0.0864589
0.0729948
0.044531
0.0417403
0.0423067
0.0438029
0.0456506
0.0476583
0.0497481
0.0518829
0.0540405
0.0562036
0.0583701
0.0605342
0.0626822
0.0648045
0.0668979
0.0689692
0.071038
0.0731392
0.0753239
0.0776592
0.080225
0.0831109
0.0707808
0.042624
0.0395787
0.0398898
0.0411791
0.0428734
0.0447769
0.0468069
0.0489212
0.051092
0.0533017
0.0555396
0.057785
0.0600186
0.0622254
0.0643974
0.0665369
0.0686588
0.0707928
0.0729838
0.0752913
0.0777865
0.0805489
0.0694416
0.0413845
0.0381123
0.038208
0.039322
0.0408865
0.042706
0.0446963
0.0468114
0.0490194
0.0512974
0.0536157
0.0559451
0.0582591
0.0605369
0.0627667
0.0649475
0.0670917
0.0692258
0.0713912
0.0736424
0.0760444
0.0786697
0.0689394
0.040738
0.0372413
0.0371459
0.0381115
0.0395761
0.0413485
0.0433436
0.0455101
0.0478066
0.0501888
0.052613
0.0550386
0.0574313
0.0597662
0.0620293
0.0642191
0.0663478
0.0684413
0.0705393
0.0726935
0.0749649
0.0774203
0.0691714
0.0405987
0.0368703
0.0366028
0.037453
0.0388686
0.0406644
0.0427511
0.0450591
0.047519
0.0500624
0.0526272
0.0551613
0.0576256
0.0599945
0.0622563
0.0644125
0.0664783
0.0684815
0.070462
0.0724697
0.0745625
0.076803
0.0699735
0.0408733
0.0369185
0.0365114
0.037308
0.0387746
0.0407291
0.0430549
0.0456366
0.0483609
0.0511277
0.0538578
0.0564942
0.0590008
0.0613592
0.0635661
0.0656311
0.0675752
0.06943
0.0712364
0.0730432
0.074905
0.0768793
0.0711772
0.0415303
0.0374209
0.0369516
0.0378228
0.0395313
0.0418732
0.044653
0.0476674
0.050744
0.0537576
0.0566277
0.0593095
0.0617842
0.0640515
0.0661231
0.0680204
0.0697722
0.0714138
0.072987
0.0745382
0.0761176
0.0777764
0.0729485
0.0432243
0.0391251
0.0386543
0.0397733
0.0419892
0.0449978
0.0484282
0.0519494
0.055346
0.0585041
0.0613767
0.0639565
0.066258
0.0683062
0.0701315
0.0717665
0.0732462
0.0746077
0.0758907
0.0771372
0.0783903
0.079693
0.081554
0.052009
0.0461378
0.0446319
0.045687
0.0483614
0.0520038
0.0559308
0.0596833
0.0630642
0.0660279
0.0685954
0.0708115
0.0727254
0.0743838
0.0758284
0.0770968
0.0782236
0.0792425
0.0801869
0.0810907
0.0819871
0.0829081
0.201382
0.0968533
0.0691704
0.0613572
0.0604373
0.0623818
0.0656103
0.069025
0.0720979
0.0747028
0.0768728
0.0786797
0.0801925
0.0814688
0.082554
0.0834841
0.0842885
0.0849926
0.0856197
0.086192
0.0867315
0.0872591
0.0877939
1.56529
0.197422
0.103902
0.0888584
0.0858704
0.0859186
0.0870233
0.0883075
0.0894447
0.0903819
0.091146
0.0917739
0.0922955
0.0927333
0.0931039
0.0934199
0.0936913
0.0939267
0.0941341
0.0943211
0.0944953
0.0946638
0.0948324
2.81378
2.48993
2.50648
2.81308
0.960792
0.984262
0.990908
0.97357
0.771371
0.780246
0.77805
0.764509
0.744815
0.74193
0.728354
0.717579
0.740345
0.724344
0.710321
0.700545
0.750954
0.727319
0.706196
0.691179
0.749271
0.72019
0.695902
0.677344
0.735136
0.705285
0.679392
0.659466
0.703334
0.675282
0.65123
0.63251
0.661552
0.636478
0.616041
0.600668
0.608332
0.590217
0.576119
0.5665
0.55237
0.543275
0.537374
0.53488
0.504399
0.503292
0.504758
0.508665
0.465162
0.470095
0.477214
0.486101
0.431132
0.440198
0.451219
0.463606
0.398594
0.410152
0.423516
0.438044
0.365314
0.378016
0.392409
0.407881
0.330768
0.343574
0.357958
0.373384
0.29594
0.308127
0.321719
0.336306
0.262188
0.273273
0.285611
0.298913
0.230808
0.240512
0.251321
0.263043
0.202722
0.210959
0.220151
0.230181
0.178377
0.18521
0.192854
0.201241
0.157801
0.163393
0.169659
0.176565
0.14074
0.1453
0.150409
0.156058
0.126794
0.130533
0.134718
0.139349
0.115513
0.118626
0.122098
0.125936
0.106463
0.109112
0.11205
0.115289
0.0992525
0.101564
0.104112
0.106906
0.0935422
0.0956117
0.0978751
0.100344
0.0890487
0.0909416
0.0929963
0.0952244
0.0855415
0.0872982
0.0891921
0.0912344
0.0828417
0.084482
0.0862399
0.0881267
0.0808232
0.0823497
0.0839782
0.0857195
0.0794157
0.0808183
0.0823094
0.0838997
0.0786093
0.0798693
0.0812053
0.0826281
0.07846
0.0795544
0.0807129
0.0819459
0.0790952
0.0800016
0.0809601
0.0819804
0.0807204
0.0814213
0.0821617
0.0829507
0.0836272
0.0841136
0.0846268
0.0851745
0.0882053
0.0884805
0.0887703
0.0890805
0.0949595
0.0950431
0.0951311
0.0952261
1.19203
0.749194
0.649198
0.641776
0.657041
0.660635
0.672668
0.715695
0.737503
0.70034
0.67529
0.677268
0.684798
0.731593
0.76191
0.652528
0.531013
0.458866
0.662456
0.817806
0.713036
0.708736
0.756566
0.781283
0.744325
0.722674
0.771409
0.799889
0.765889
0.746151
0.755683
0.772088
0.815257
0.78227
0.662641
0.552726
0.498027
0.593337
0.731208
0.717299
0.749519
0.803072
0.805987
0.762616
0.742286
0.787063
0.810588
0.7887
0.821589
0.85655
0.860361
0.823754
0.754434
0.657014
0.568756
0.537811
0.584731
0.706846
0.716299
0.743664
0.765888
0.759307
0.73612
0.735254
0.777387
0.77399
0.774967
0.837978
0.950415
0.947875
0.821876
0.74425
0.66606
0.604331
0.589012
0.659436
0.69261
0.701648
0.716559
0.720637
0.711458
0.706593
0.723983
0.736742
0.73498
0.752984
0.81312
0.93014
0.968457
0.841355
0.766118
0.710076
0.661627
0.643819
0.782795
0.677177
0.681275
0.690476
0.687403
0.677971
0.683296
0.695024
0.703063
0.706547
0.727761
0.782115
0.871366
0.923934
0.856087
0.812315
0.788854
0.739275
0.69203
0.851905
0.657033
0.650327
0.650917
0.64914
0.648179
0.655281
0.668544
0.680005
0.68425
0.704483
0.750523
0.8216
0.875677
0.85882
0.865185
0.88778
0.824384
0.742691
0.918222
0.636741
0.626143
0.62432
0.624465
0.626416
0.635722
0.650991
0.664674
0.671014
0.686075
0.721438
0.777755
0.832769
0.85558
0.893803
0.959381
0.873603
0.80518
1.05767
0.611055
0.600259
0.598188
0.600777
0.607076
0.6178
0.633297
0.649491
0.660614
0.671973
0.696065
0.738728
0.788623
0.826688
0.868618
0.925247
0.886397
0.874017
1.29071
0.58416
0.577828
0.578909
0.583988
0.591969
0.602131
0.614404
0.62801
0.640397
0.654267
0.673347
0.705035
0.748281
0.793107
0.843463
0.904389
0.887596
0.876391
1.45059
0.558039
0.559357
0.56559
0.573378
0.581664
0.59003
0.598628
0.607928
0.61823
0.63146
0.650453
0.679046
0.714699
0.75685
0.811096
0.870433
0.859808
0.786642
1.14783
0.535641
0.545356
0.557178
0.567829
0.576205
0.582282
0.586864
0.591522
0.597929
0.60807
0.624019
0.64791
0.678323
0.717132
0.766079
0.806339
0.772747
0.642436
0.720047
0.51766
0.534958
0.552047
0.565798
0.574817
0.579088
0.579743
0.579075
0.579885
0.583993
0.59296
0.60842
0.629927
0.658174
0.689659
0.700422
0.63947
0.497583
0.454138
0.501716
0.525455
0.547435
0.564719
0.575522
0.579522
0.577711
0.572362
0.566362
0.561874
0.560593
0.563986
0.571544
0.581626
0.587746
0.571617
0.505961
0.4048
0.385672
0.484209
0.513255
0.539741
0.56093
0.574711
0.580228
0.578037
0.569928
0.55827
0.545484
0.533806
0.524577
0.517226
0.509479
0.495986
0.46763
0.420245
0.371089
0.407465
0.46207
0.495199
0.525581
0.550653
0.568093
0.576453
0.575699
0.566997
0.552233
0.533972
0.514966
0.496679
0.478996
0.460593
0.438796
0.410771
0.383649
0.368998
0.463951
0.433805
0.469587
0.502899
0.531273
0.55229
0.564078
0.56593
0.558422
0.54315
0.522682
0.500033
0.47708
0.45436
0.431646
0.40827
0.385145
0.370232
0.375562
0.527649
0.399729
0.436539
0.471503
0.502189
0.526073
0.541078
0.546031
0.540893
0.527087
0.506962
0.483458
0.458837
0.434287
0.410449
0.387976
0.369878
0.362619
0.381368
0.586256
0.361574
0.397715
0.432894
0.464694
0.490479
0.508034
0.515887
0.513674
0.502577
0.484519
0.462144
0.437883
0.413495
0.390388
0.370241
0.356775
0.35587
0.385076
0.636138
0.322203
0.355854
0.389651
0.421357
0.44797
0.46728
0.477521
0.478432
0.470615
0.455623
0.435754
0.413426
0.390752
0.369651
0.352813
0.343852
0.349077
0.38823
0.678952
0.283781
0.31411
0.345308
0.375318
0.40163
0.421908
0.434117
0.437951
0.433569
0.422155
0.405683
0.38646
0.366765
0.348813
0.335765
0.331058
0.340964
0.386837
0.70034
0.248102
0.274647
0.302549
0.330046
0.354966
0.375039
0.388737
0.395127
0.394073
0.386424
0.373855
0.358513
0.342703
0.328796
0.319657
0.318566
0.331859
0.381505
0.708836
0.216357
0.239032
0.263339
0.287836
0.310689
0.329987
0.344369
0.352682
0.354581
0.350623
0.342165
0.331103
0.319591
0.309903
0.304531
0.306584
0.322472
0.374697
0.713247
0.189102
0.208127
0.228878
0.250225
0.270656
0.288806
0.303236
0.312848
0.317182
0.316558
0.312027
0.305184
0.297924
0.292293
0.29042
0.295246
0.313236
0.367633
0.713355
0.166366
0.182165
0.199654
0.217983
0.236031
0.252696
0.266705
0.277058
0.283255
0.285438
0.284386
0.281381
0.278014
0.276057
0.277319
0.284563
0.304183
0.360027
0.709876
0.147826
0.160918
0.175583
0.1912
0.207027
0.222098
0.235384
0.246024
0.253534
0.257931
0.259766
0.260031
0.260014
0.261209
0.265151
0.274404
0.295125
0.351244
0.70314
0.132969
0.143884
0.15622
0.169559
0.183367
0.196882
0.209291
0.219886
0.228225
0.234255
0.238345
0.241234
0.243937
0.247685
0.253787
0.264586
0.28593
0.34129
0.691538
0.121217
0.130437
0.140919
0.152393
0.164463
0.176557
0.188049
0.198375
0.207156
0.214299
0.220038
0.224909
0.229686
0.235359
0.243092
0.254976
0.276579
0.330669
0.673405
0.112009
0.119939
0.128981
0.138962
0.149589
0.160443
0.171052
0.180978
0.189906
0.19773
0.204587
0.21085
0.217096
0.224101
0.232965
0.245518
0.267055
0.319705
0.651135
0.104835
0.111798
0.119735
0.128541
0.137998
0.147802
0.157602
0.167063
0.17593
0.184096
0.191628
0.198778
0.205971
0.213825
0.223328
0.236182
0.257335
0.308518
0.628467
0.0992599
0.105494
0.112586
0.120471
0.128989
0.137919
0.147
0.155975
0.164642
0.172895
0.180756
0.188384
0.196086
0.20436
0.214067
0.226951
0.247525
0.297209
0.604846
0.0949175
0.100589
0.107024
0.11418
0.121941
0.130144
0.138592
0.147089
0.155469
0.163631
0.171563
0.179355
0.187226
0.195587
0.205227
0.217867
0.237867
0.285919
0.579042
0.0915167
0.0967284
0.102627
0.109187
0.116324
0.123913
0.131804
0.139841
0.147886
0.15584
0.163664
0.171399
0.179197
0.187404
0.196764
0.208963
0.228452
0.274562
0.548865
0.0888393
0.0936395
0.0990668
0.105106
0.111704
0.118757
0.126146
0.133747
0.141436
0.149114
0.156719
0.164252
0.171818
0.179719
0.188663
0.200304
0.219025
0.262838
0.51461
0.0867438
0.091136
0.0961082
0.101656
0.10775
0.114305
0.121227
0.12841
0.135742
0.143113
0.150438
0.157685
0.164924
0.172422
0.180846
0.191771
0.209366
0.250505
0.484748
0.085171
0.0891244
0.0936177
0.0986598
0.10424
0.110299
0.116762
0.123539
0.13052
0.137581
0.144606
0.151528
0.158386
0.16542
0.173257
0.183379
0.199759
0.238616
0.462718
0.0841505
0.0876115
0.0915719
0.096056
0.101074
0.106602
0.112586
0.118955
0.125601
0.132368
0.139101
0.145693
0.152154
0.158698
0.165925
0.175247
0.19049
0.227426
0.442534
0.0838074
0.0867117
0.0900679
0.0939164
0.0982909
0.103215
0.108669
0.114616
0.120943
0.127449
0.133921
0.140207
0.146285
0.152354
0.158994
0.167586
0.181868
0.217215
0.424018
0.084367
0.0866533
0.0893303
0.0924529
0.0960829
0.100292
0.105133
0.110627
0.116654
0.12294
0.129197
0.135219
0.140958
0.146599
0.152717
0.16069
0.174239
0.208468
0.409037
0.0861617
0.0877854
0.0897188
0.0920255
0.0947916
0.0981402
0.102243
0.107241
0.112984
0.119093
0.125184
0.130998
0.13646
0.141747
0.147435
0.154927
0.168005
0.201815
0.400103
0.089643
0.0905901
0.0917425
0.0931587
0.0949328
0.0972294
0.100372
0.10481
0.110277
0.116245
0.122218
0.127884
0.133147
0.138173
0.143543
0.150693
0.163557
0.197815
0.399947
0.095401
0.0957049
0.0960846
0.0965691
0.097215
0.0981498
0.0997916
0.103622
0.108826
0.1147
0.120612
0.126206
0.131363
0.136244
0.141423
0.14837
0.161216
0.196713
0.409508
)
;

boundaryField
{
    leftWall
    {
        type            epsilonWallFunction;
        value           nonuniform List<scalar> 
50
(
0.0127267
0.0217132
0.0362191
0.0520052
0.0689905
0.0876087
0.10889
0.134804
0.172146
0.251893
0.375083
0.560626
0.831655
1.24903
1.8838
2.97202
3.98951
4.05019
3.86033
3.51364
3.14931
2.75431
2.28108
1.79858
1.35464
0.978827
0.687214
0.477087
0.33332
0.239038
0.179785
0.143666
0.121583
0.107461
0.0977378
0.0904872
0.0847203
0.0799709
0.0760687
0.0729948
0.0707808
0.0694416
0.0689394
0.0691714
0.0699735
0.0711772
0.0729485
0.081554
0.201382
1.56529
)
;
        Cmu             0.09;
        kappa           0.41;
        E               9.8;
        value           nonuniform List<scalar> 
50
(
0.0127267
0.0217132
0.0362191
0.0520052
0.0689905
0.0876087
0.10889
0.134804
0.172146
0.251893
0.375083
0.560626
0.831655
1.24903
1.8838
2.97202
3.98951
4.05019
3.86033
3.51364
3.14931
2.75431
2.28108
1.79858
1.35464
0.978827
0.687214
0.477087
0.33332
0.239038
0.179785
0.143666
0.121583
0.107461
0.0977378
0.0904872
0.0847203
0.0799709
0.0760687
0.0729948
0.0707808
0.0694416
0.0689394
0.0691714
0.0699735
0.0711772
0.0729485
0.081554
0.201382
1.56529
)
;
    }
    rightWall
    {
        type            epsilonWallFunction;
        value           nonuniform List<scalar> 
50
(
0.0581368
0.111194
0.191553
0.276748
0.366742
0.466955
0.582729
0.687571
0.662456
0.593337
0.584731
0.659436
0.782795
0.851905
0.918222
1.05767
1.29071
1.45059
1.14783
0.720047
0.454138
0.385672
0.407465
0.463951
0.527649
0.586256
0.636138
0.678952
0.70034
0.708836
0.713247
0.713355
0.709876
0.70314
0.691538
0.673405
0.651135
0.628467
0.604846
0.579042
0.548865
0.51461
0.484748
0.462718
0.442534
0.424018
0.409037
0.400103
0.399947
0.409508
)
;
        Cmu             0.09;
        kappa           0.41;
        E               9.8;
        value           nonuniform List<scalar> 
50
(
0.0581368
0.111194
0.191553
0.276748
0.366742
0.466955
0.582729
0.687571
0.662456
0.593337
0.584731
0.659436
0.782795
0.851905
0.918222
1.05767
1.29071
1.45059
1.14783
0.720047
0.454138
0.385672
0.407465
0.463951
0.527649
0.586256
0.636138
0.678952
0.70034
0.708836
0.713247
0.713355
0.709876
0.70314
0.691538
0.673405
0.651135
0.628467
0.604846
0.579042
0.548865
0.51461
0.484748
0.462718
0.442534
0.424018
0.409037
0.400103
0.399947
0.409508
)
;
    }
    lowerWall
    {
        type            epsilonWallFunction;
        value           nonuniform List<scalar> 
62
(
0.0127267
0.0461443
0.0829691
0.126534
0.177491
0.234312
0.293571
0.351593
0.408398
0.457681
0.496511
0.525362
0.550588
0.605394
0.706552
0.841
0.993845
1.13862
1.17091
1.04475
0.764153
0.391555
0.106394
0.106394
0.131829
0.179932
0.231097
0.316065
0.483121
0.966674
2.08713
2.81378
2.48993
2.50648
2.81308
0.13346
0.154372
0.24549
0.376215
0.585369
0.934403
1.51102
2.43471
0.13346
0.247423
0.309952
0.478596
0.966895
1.63859
2.35226
2.52167
2.10607
1.64515
1.39238
1.29214
1.2483
1.18454
1.01423
0.776831
0.531892
0.297488
0.0581368
)
;
        Cmu             0.09;
        kappa           0.41;
        E               9.8;
        value           nonuniform List<scalar> 
62
(
0.0127267
0.0461443
0.0829691
0.126534
0.177491
0.234312
0.293571
0.351593
0.408398
0.457681
0.496511
0.525362
0.550588
0.605394
0.706552
0.841
0.993845
1.13862
1.17091
1.04475
0.764153
0.391555
0.106394
0.106394
0.131829
0.179932
0.231097
0.316065
0.483121
0.966674
2.08713
2.81378
2.48993
2.50648
2.81308
0.13346
0.154372
0.24549
0.376215
0.585369
0.934403
1.51102
2.43471
0.13346
0.247423
0.309952
0.478596
0.966895
1.63859
2.35226
2.52167
2.10607
1.64515
1.39238
1.29214
1.2483
1.18454
1.01423
0.776831
0.531892
0.297488
0.0581368
)
;
    }
    atmosphere
    {
        type            inletOutlet;
        inletValue      uniform 0.1;
        value           nonuniform List<scalar> 
46
(
0.1
0.1
0.1
0.1
0.1
0.1
0.1
0.1
0.1
0.1
0.1
0.1
0.1
0.1
0.1
0.1
0.1
0.1
0.1
0.1
0.1
0.1
0.1
0.1
0.1
0.1
0.1
0.1
0.1
0.1
0.1
0.1
0.1
0.1
0.103622
0.108826
0.1147
0.120612
0.126206
0.131363
0.136244
0.141423
0.14837
0.161216
0.196713
0.409508
)
;
    }
    defaultFaces
    {
        type            empty;
    }
}


// ************************************************************************* //
