/*--------------------------------*- C++ -*----------------------------------*\
| =========                 |                                                 |
| \\      /  F ield         | OpenFOAM: The Open Source CFD Toolbox           |
|  \\    /   O peration     | Version:  2.3.0                                 |
|   \\  /    A nd           | Web:      www.OpenFOAM.org                      |
|    \\/     M anipulation  |                                                 |
\*---------------------------------------------------------------------------*/
FoamFile
{
    version     2.0;
    format      ascii;
    class       volScalarField;
    location    "1.25";
    object      nut;
}
// * * * * * * * * * * * * * * * * * * * * * * * * * * * * * * * * * * * * * //

dimensions      [0 2 -1 0 0 0 0];

internalField   nonuniform List<scalar> 
2268
(
4.64102e-05
4.87276e-05
5.97623e-05
6.86254e-05
7.61425e-05
8.25848e-05
8.80443e-05
9.25116e-05
9.64411e-05
9.97619e-05
0.00010232
0.000104234
0.000105687
0.000108199
0.000114208
0.000121328
0.000128112
0.000133884
0.00013489
0.000130237
0.000118027
9.58832e-05
6.32861e-05
0.000100565
0.000406534
0.000599505
0.000721076
0.00080411
0.000863417
0.00090678
0.000937945
0.000953157
0.000957061
0.000955158
0.000952118
0.000949325
0.000969551
0.0010303
0.00112768
0.00122646
0.00127122
0.00126511
0.00119079
0.00102511
0.000709589
0.000184102
0.000119579
0.000676274
0.00109518
0.00136966
0.00155732
0.0016894
0.00178246
0.00184562
0.00187743
0.00188354
0.00187255
0.00185672
0.00185478
0.00190702
0.00203248
0.00220746
0.00236766
0.00244113
0.0024002
0.00220853
0.00183149
0.00120316
0.000203406
0.000135311
0.000876534
0.00146603
0.00186109
0.00213629
0.00233483
0.00247882
0.00258011
0.00263807
0.00265846
0.00265096
0.00263505
0.0026452
0.00272835
0.00289645
0.00311134
0.00329607
0.00337185
0.00328191
0.00296793
0.00238019
0.00148078
0.00021837
0.000149304
0.00104194
0.00176205
0.00224848
0.00259181
0.00284506
0.00303465
0.00317358
0.003262
0.00330414
0.00331019
0.00330473
0.00333234
0.0034397
0.00363204
0.00386411
0.0040548
0.00411963
0.00397986
0.00355346
0.00277139
0.0016241
0.000240282
0.000162602
0.00118355
0.00200951
0.00256907
0.00296728
0.00326551
0.00349417
0.00366745
0.00378607
0.00385282
0.0038779
0.00388894
0.00393545
0.00406092
0.00426642
0.00450466
0.00469514
0.00474788
0.0045693
0.00405337
0.00310357
0.00173289
0.000275097
0.000176086
0.0013067
0.00222344
0.00284584
0.00329087
0.0036271
0.00388885
0.00409219
0.00423859
0.0043298
0.00437599
0.00440627
0.0044714
0.00461096
0.00482402
0.00506434
0.00525451
0.00530287
0.00510614
0.00453894
0.00346863
0.0018861
0.000342603
0.000190618
0.00141668
0.00241494
0.00309435
0.00358113
0.00395015
0.00423966
0.00446866
0.00463954
0.00475347
0.00482083
0.00487129
0.00495431
0.00510582
0.00532417
0.005566
0.00575856
0.00581404
0.00562532
0.00506101
0.00396572
0.00222758
0.000444502
6.53733e-05
8.71087e-05
8.75811e-05
9.21589e-05
0.000111414
0.000138788
0.000161884
0.000170025
0.000163436
0.000150996
0.000141697
0.000137255
0.000135877
0.000135522
0.000131355
0.000121132
0.000107331
8.86435e-05
8.10114e-05
0.000219828
0.000605375
0.000682775
0.000646544
0.000772301
0.00120637
0.00145177
0.00154616
0.00149695
0.00135177
0.00125401
0.00125799
0.00128884
0.00128078
0.00122922
0.001102
0.00090928
0.000679242
0.000203615
0.000263286
0.000963436
0.00125372
0.00130189
0.00155697
0.0022924
0.00277067
0.00296665
0.00289296
0.00264733
0.00247268
0.00245727
0.00248512
0.00245351
0.00233203
0.00208025
0.00170634
0.0012149
0.000244005
0.000311237
0.0012459
0.00177231
0.00196855
0.00234965
0.00322897
0.00385252
0.00412293
0.00405249
0.00377069
0.00354773
0.00349796
0.00348891
0.00340956
0.00321125
0.00285229
0.0023315
0.00160913
0.00027377
0.000366305
0.00149666
0.00227063
0.00263441
0.0031242
0.00404526
0.00473935
0.00505915
0.00500769
0.00472949
0.00448141
0.00439199
0.00432692
0.00418544
0.00390764
0.00345319
0.00280872
0.00189138
0.000296899
0.000428434
0.00175097
0.00278144
0.00330456
0.0038734
0.00477125
0.00547907
0.00582676
0.00580014
0.0055426
0.00528857
0.00515982
0.00502915
0.00481936
0.00446121
0.00391825
0.00316482
0.00208593
0.00031627
0.00049701
0.00206965
0.00335292
0.00399489
0.00460011
0.00542943
0.00610932
0.0064674
0.00646455
0.0062307
0.00598074
0.00581595
0.00561804
0.00533562
0.00490142
0.00427403
0.00341994
0.00220977
0.000335414
0.000572588
0.00257894
0.00403997
0.00471557
0.00530694
0.00603573
0.00665819
0.0070129
0.00702866
0.00681464
0.00657003
0.00636998
0.00610929
0.00575512
0.00524912
0.00453968
0.00358904
0.00227503
0.000357975
0.000208432
0.00156858
0.00268591
0.00344959
0.0039971
0.00441263
0.00474113
0.0050049
0.00520804
0.00535337
0.00545247
0.00553495
0.00564554
0.00581455
0.00604009
0.00628542
0.00648589
0.00655735
0.00641007
0.00593624
0.00505071
0.003738
0.00206619
0.000239669
0.00177252
0.00304211
0.00390911
0.0045246
0.00498525
0.00534552
0.00563303
0.00585674
0.00602408
0.0061502
0.00626501
0.00640716
0.00660171
0.00684666
0.00711489
0.00735366
0.00749161
0.00746598
0.00721706
0.00673581
0.00602096
0.00505019
0.000275296
0.00201103
0.00343618
0.00439715
0.00506534
0.00555235
0.00592486
0.00621874
0.00645024
0.00663209
0.00678266
0.00692942
0.00710181
0.00731788
0.00757691
0.00785911
0.00812713
0.00833585
0.00842802
0.00835531
0.00815767
0.00783692
0.00740142
0.000313996
0.00230513
0.00388784
0.00493204
0.00563802
0.00613429
0.00650204
0.0067885
0.00701827
0.00721013
0.00738361
0.00755982
0.00775666
0.00798454
0.00824414
0.00852416
0.0088011
0.00905818
0.00925092
0.00928148
0.00923531
0.00911688
0.00894002
0.000355706
0.00265028
0.00439065
0.00550984
0.0062422
0.0067349
0.00708511
0.00735462
0.00757652
0.00777528
0.00796812
0.00816664
0.00837739
0.00860446
0.00884838
0.00910586
0.00936777
0.00961467
0.00980439
0.00996325
0.010038
0.0100084
0.00992947
0.000405045
0.00300638
0.00491446
0.00610657
0.00685931
0.00734271
0.00767008
0.00791624
0.00812577
0.0083273
0.00853319
0.00874465
0.00896008
0.00918046
0.00939622
0.00960281
0.00981285
0.0100225
0.0102057
0.0104068
0.0105807
0.0106172
0.0105787
0.000463788
0.00338934
0.0054464
0.00669128
0.00745476
0.00792987
0.00824115
0.00846096
0.00865024
0.00885116
0.00906606
0.00928083
0.00948536
0.00967828
0.00985678
0.0100253
0.010197
0.0103747
0.010556
0.0107642
0.0109645
0.0110434
0.011024
0.000533546
0.00369902
0.00585851
0.00716567
0.00795596
0.00843586
0.00874124
0.0089543
0.00912984
0.00931577
0.00952631
0.00972357
0.00989296
0.010046
0.0101997
0.0103562
0.0105126
0.0106704
0.0108405
0.0110473
0.0112526
0.011347
0.0113425
0.000539244
0.00367064
0.00601425
0.00747353
0.0083272
0.00882292
0.00912641
0.00933816
0.00951893
0.00970376
0.00989579
0.0100566
0.0101869
0.0103164
0.0104573
0.0106039
0.0107497
0.0108871
0.0110403
0.0112409
0.0114274
0.0115234
0.0115298
0.000539013
0.00367145
0.00609294
0.00766855
0.0085848
0.00909136
0.00939471
0.00960878
0.00979883
0.0100141
0.0102287
0.010327
0.0104026
0.0105053
0.0106326
0.0107658
0.010892
0.0110006
0.0111445
0.0113407
0.0115058
0.0115925
0.0115968
0.000524451
0.00357837
0.00611882
0.00778843
0.00871656
0.00923315
0.00953786
0.00975386
0.00994315
0.010162
0.0104175
0.0104809
0.0105015
0.0105857
0.0106946
0.0107967
0.0108878
0.0109949
0.0111361
0.0113057
0.0114477
0.0115306
0.0115468
0.000506621
0.00341702
0.00595592
0.00762513
0.00860024
0.00919116
0.0095436
0.0097687
0.00994906
0.0101258
0.0102935
0.0103817
0.0104276
0.0105067
0.0105952
0.0106871
0.0107854
0.0108988
0.0110304
0.011169
0.0112922
0.0113795
0.0114178
0.000494037
0.00310316
0.00555437
0.00719635
0.00826893
0.00893177
0.00934575
0.00960341
0.00978306
0.00992629
0.0100498
0.0101508
0.0102348
0.0103215
0.0104138
0.0105122
0.0106184
0.0107336
0.0108565
0.0109809
0.0110985
0.0111947
0.0112545
0.000479942
0.00287233
0.00508641
0.00669177
0.00780343
0.0085151
0.0089714
0.00926908
0.009472
0.00962357
0.00975431
0.00987224
0.00997751
0.0100763
0.0101744
0.0102767
0.0103856
0.0105015
0.0106242
0.0107515
0.0108783
0.0109945
0.0110835
0.000458326
0.00242771
0.00451082
0.00610229
0.00723839
0.00799058
0.00848526
0.00881735
0.00904973
0.0092266
0.009378
0.00951483
0.00963821
0.00975127
0.00985982
0.00996986
0.0100857
0.0102102
0.0103456
0.0104919
0.0106452
0.0107936
0.0109198
0.000430822
0.00196856
0.00383785
0.00542456
0.00658905
0.00738319
0.00791742
0.00828395
0.00854714
0.00875106
0.00892497
0.00908146
0.00922332
0.00935381
0.00947888
0.00960514
0.00973852
0.00988436
0.0100465
0.0102256
0.0104157
0.0106032
0.01077
0.000398931
0.00162918
0.00321625
0.00470174
0.00587716
0.00671609
0.00729389
0.00769628
0.00799082
0.00822229
0.00841943
0.00859732
0.00876118
0.00891505
0.00906513
0.00921822
0.00938097
0.00955954
0.00975796
0.00997574
0.0102052
0.0104313
0.0106358
0.00036306
0.00140663
0.00275161
0.00408033
0.00520035
0.00604481
0.0066515
0.00708832
0.0074155
0.00767657
0.00790041
0.00810404
0.00829566
0.00848006
0.00866359
0.00885281
0.00905332
0.00927066
0.00950768
0.00976237
0.010026
0.0102836
0.0105174
0.000324989
0.0012736
0.00243778
0.00360477
0.00462943
0.00544298
0.00605647
0.00651694
0.00687353
0.00716516
0.00741922
0.00765331
0.00787768
0.00809819
0.00832027
0.00854906
0.0087893
0.00904473
0.00931652
0.0096013
0.00988991
0.0101681
0.0104194
0.000288028
0.00119817
0.00223835
0.00326948
0.0041926
0.00495551
0.00555861
0.00603265
0.00641494
0.00673772
0.00702518
0.00729395
0.00755456
0.00781308
0.00807381
0.00834042
0.00861603
0.00890264
0.00919994
0.00950379
0.00980526
0.0100914
0.0103475
0.000254964
0.0011581
0.00211931
0.00305019
0.00388822
0.00460086
0.00518811
0.005671
0.006077
0.00643137
0.006754
0.00705916
0.00735626
0.00765052
0.00794513
0.00824239
0.00854401
0.00885074
0.00916138
0.00947164
0.00977343
0.0100554
0.0103049
0.000227184
0.00114304
0.00205995
0.00292429
0.00370221
0.00437773
0.00495396
0.00544681
0.00587658
0.00626232
0.00661946
0.00695926
0.00728921
0.00761317
0.00793328
0.00825091
0.00856694
0.00888148
0.00919309
0.0094979
0.00978903
0.010057
0.0102911
0.000205252
0.00114812
0.00204862
0.00287522
0.00361798
0.00427355
0.00484823
0.00535502
0.0058091
0.00622455
0.00661282
0.00698227
0.00733838
0.00768375
0.00801955
0.00834674
0.00866593
0.00897713
0.00927916
0.00956896
0.00984105
0.0100878
0.0103006
0.00018906
0.0011668
0.00207466
0.00288793
0.00361713
0.00426854
0.00485085
0.00537516
0.00585299
0.00629473
0.00670865
0.00710081
0.00747503
0.00783302
0.00817518
0.00850246
0.00881556
0.00911474
0.0093994
0.00966745
0.00991494
0.0101361
0.0103243
0.000177657
0.00118975
0.00212405
0.00294437
0.00367739
0.00433689
0.00493349
0.00547704
0.00597665
0.00644006
0.00687337
0.00728094
0.00766552
0.00802823
0.00836905
0.00868913
0.00898944
0.00927068
0.00953292
0.00977517
0.00999497
0.0101884
0.0103507
0.000169653
0.00120916
0.00218142
0.00302394
0.00377349
0.00444954
0.00506435
0.00562723
0.00614579
0.00662614
0.00707295
0.00748955
0.00787802
0.00823921
0.00857301
0.00888084
0.00916405
0.00942382
0.00966095
0.00987548
0.0100664
0.0102315
0.0103678
0.000163813
0.00122217
0.00223502
0.00310809
0.00388182
0.00457923
0.00521394
0.00579516
0.00632973
0.00682283
0.00727833
0.00769896
0.00808651
0.00844168
0.00876465
0.00905714
0.00932086
0.0095575
0.00976854
0.00995501
0.0101172
0.0102544
0.0103654
0.000159304
0.00122977
0.00227921
0.00318453
0.00398504
0.00470528
0.00535968
0.00595751
0.00650525
0.00700763
0.0074681
0.00788915
0.00827261
0.00861861
0.00892843
0.00920394
0.00944721
0.00966039
0.00984561
0.0100048
0.0101393
0.0102499
0.0103368
0.00015563
0.00123392
0.00231312
0.00324769
0.00407361
0.00481537
0.00548762
0.00609966
0.0066578
0.00716652
0.00762909
0.00804793
0.00842482
0.00876004
0.00905555
0.00931351
0.00953633
0.00972663
0.00988711
0.0100204
0.010129
0.0102147
0.010279
0.000152535
0.00123608
0.00233812
0.00329677
0.0041443
0.00490441
0.00559155
0.00621491
0.00678065
0.00729314
0.00775554
0.00817029
0.00853887
0.00886242
0.00914321
0.00938373
0.00958677
0.00975538
0.0098928
0.0100023
0.0100871
0.0101501
0.0101937
0.000149924
0.00123721
0.00235623
0.0033334
0.00419786
0.00497231
0.00567087
0.00630252
0.00687325
0.00738728
0.00784767
0.00825687
0.00861606
0.00892743
0.0091935
0.0094171
0.00960142
0.00974994
0.00986637
0.00995453
0.0100182
0.0100609
0.010086
0.000147802
0.00123824
0.00236963
0.0033603
0.0042371
0.00502198
0.00572869
0.00636596
0.00693951
0.00745328
0.00791024
0.00831235
0.00866157
0.00896048
0.00921198
0.00941936
0.00958624
0.00971652
0.00981434
0.00988389
0.00992935
0.00995475
0.00996386
0.000146215
0.00124008
0.00238045
0.00338053
0.00426589
0.0050581
0.00577059
0.00641168
0.00698657
0.00749878
0.00795084
0.00834476
0.00868318
0.00896915
0.00920614
0.00939797
0.00954875
0.0096628
0.00974456
0.00979849
0.00982899
0.0098403
0.00983643
0.000145201
0.00124347
0.0023905
0.00339709
0.00428863
0.00508663
0.00580409
0.00644848
0.00702408
0.0075336
0.00797913
0.00836336
0.0086896
0.0089617
0.00918388
0.00936064
0.0094966
0.00959643
0.00966478
0.00970623
0.0097252
0.00972592
0.00971236
0.000144754
0.00124865
0.00240103
0.00341289
0.00431044
0.00511519
0.00583909
0.00648782
0.00706391
0.00756901
0.00800566
0.00837753
0.00868917
0.00894565
0.0091522
0.00931404
0.00943627
0.00952381
0.00958138
0.00961349
0.00962442
0.00961818
0.00959849
0.000144815
0.00125536
0.00241312
0.00343178
0.00433887
0.00515515
0.0058898
0.00654481
0.00712019
0.00761749
0.00804069
0.00839558
0.00868875
0.0089269
0.00911637
0.00926306
0.00937237
0.00944932
0.00949852
0.00952426
0.0095305
0.00952088
0.00949872
0.000145325
0.00126354
0.00243033
0.00346326
0.00438994
0.00522764
0.00597902
0.00664036
0.00721006
0.00769181
0.00809336
0.00842411
0.00869338
0.00890956
0.00907993
0.00921077
0.00930757
0.00937518
0.00941795
0.00943981
0.00944429
0.00943456
0.0094134
0.000146305
0.00127755
0.00247119
0.00353984
0.00450544
0.00537642
0.00614529
0.00680356
0.00735297
0.00780417
0.00817135
0.00846834
0.00870697
0.00889679
0.00904546
0.0091592
0.00924323
0.00930203
0.00933953
0.00935918
0.00936403
0.0093567
0.00933946
0.000148707
0.00132903
0.00261908
0.00376991
0.00479213
0.00568837
0.00644819
0.00706989
0.00756853
0.00796563
0.0082817
0.00853351
0.00873384
0.00889222
0.00901586
0.00911042
0.0091805
0.00923001
0.00926229
0.00928026
0.00928642
0.00928286
0.00927134
0.000163641
0.00156355
0.00315531
0.00443217
0.00545728
0.00628985
0.00695352
0.00747111
0.00787308
0.00818647
0.0084324
0.0086265
0.00877999
0.00890092
0.00899522
0.00906746
0.00912132
0.00915988
0.00918578
0.00920128
0.00920829
0.00920838
0.00920281
0.000243658
0.00228035
0.00451643
0.0058549
0.00667302
0.00725052
0.00768538
0.00801761
0.00827443
0.00847436
0.00863099
0.00875437
0.00885179
0.00892849
0.00898833
0.00903431
0.00906883
0.00909391
0.00911128
0.0091224
0.00912851
0.00913061
0.00912949
0.000417942
0.00367876
0.00680153
0.00788996
0.00825526
0.00844131
0.00857202
0.00867466
0.00875729
0.00882352
0.00887634
0.00891839
0.00895183
0.0089783
0.00899905
0.0090151
0.00902726
0.00903622
0.00904261
0.00904692
0.00904962
0.00905104
0.00905146
0.000500125
0.000485724
0.000492537
0.000515651
0.00418595
0.00408633
0.00413712
0.00431457
0.00712901
0.00707814
0.00710863
0.00720866
0.00884824
0.00882844
0.00882215
0.00883951
0.00987775
0.00985791
0.00983849
0.00982033
0.0105482
0.0105278
0.0104958
0.0104585
0.0109962
0.0109728
0.0109344
0.0108854
0.011309
0.0112774
0.011229
0.0111693
0.0114894
0.0114505
0.0113947
0.0113267
0.0115522
0.0115098
0.011451
0.0113797
0.0115125
0.0114738
0.0114189
0.0113514
0.011401
0.0113735
0.0113307
0.0112754
0.01126
0.0112487
0.0112237
0.0111862
0.0111166
0.0111252
0.0111213
0.0111049
0.0109839
0.0110139
0.0110319
0.0110369
0.0108647
0.010915
0.0109531
0.0109776
0.0107569
0.0108242
0.0108789
0.0109196
0.0106588
0.0107388
0.0108057
0.0108582
0.0105723
0.0106593
0.0107332
0.0107929
0.0105028
0.0105912
0.0106665
0.010728
0.0104551
0.01054
0.0106121
0.0106709
0.0104303
0.0105083
0.0105739
0.0106268
0.0104254
0.0104944
0.0105516
0.010597
0.010433
0.0104921
0.0105403
0.0105775
0.0104428
0.010492
0.0105314
0.0105608
0.0104437
0.0104834
0.0105145
0.0105368
0.0104259
0.0104566
0.0104799
0.0104958
0.0103825
0.0104047
0.0104207
0.0104308
0.0103107
0.0103249
0.0103341
0.0103385
0.0102124
0.010219
0.0102216
0.0102206
0.0100929
0.0100925
0.0100891
0.0100829
0.00996038
0.0099539
0.00994501
0.00993403
0.00982438
0.00981282
0.00979931
0.00978419
0.00969385
0.00967853
0.00966151
0.00964316
0.00957596
0.00955837
0.00953922
0.00951884
0.00947481
0.00945665
0.00943696
0.00941604
0.0093908
0.00937381
0.00935533
0.00933557
0.00932058
0.00930637
0.00929075
0.00927389
0.00925785
0.00924757
0.00923611
0.00922354
0.00919518
0.00918921
0.00918239
0.00917477
0.00912672
0.00912439
0.00912163
0.00911844
0.0090512
0.00905089
0.00905048
0.00904998
0.0021152
0.00411671
0.00529025
0.00587247
0.00637533
0.00691713
0.00739597
0.0077213
0.00777201
0.00759399
0.00735224
0.00709399
0.00674138
0.00628271
0.00566254
0.00482389
0.00373923
0.00228669
0.000362923
0.00529041
0.00631933
0.006928
0.00728576
0.00761053
0.00793091
0.00821542
0.00845931
0.00851698
0.0083414
0.00808391
0.00774493
0.00728672
0.00669006
0.00593708
0.00493881
0.0036144
0.00198601
0.000338938
0.0075088
0.00790903
0.00818568
0.00839316
0.00857459
0.00873003
0.00887693
0.00900079
0.00899484
0.00881342
0.00856516
0.00817081
0.00764752
0.00694672
0.00610449
0.00499788
0.00350534
0.00177545
0.000324462
0.00890321
0.00901902
0.00911497
0.00919535
0.00926869
0.00933045
0.00937987
0.00938934
0.00927767
0.00908041
0.00881159
0.00845004
0.0079276
0.0071831
0.00632542
0.0051829
0.00364739
0.00186434
0.000328876
0.00979929
0.00979257
0.00979045
0.0097827
0.00977211
0.00976057
0.00973305
0.00962477
0.0094621
0.0092478
0.00895002
0.00859479
0.00812427
0.00745025
0.00662212
0.00548957
0.00394642
0.00209451
0.000352049
0.0103944
0.0103233
0.0102631
0.0101911
0.0101093
0.0100334
0.00993267
0.00977333
0.00958366
0.00934203
0.00903518
0.00867561
0.00824375
0.0076779
0.00690945
0.00580199
0.00424759
0.00231234
0.000370791
0.0107945
0.0106677
0.0105484
0.0104249
0.0102949
0.0101642
0.0100192
0.00983881
0.0096196
0.00935701
0.00904866
0.00870062
0.00830289
0.00780792
0.00711244
0.00605251
0.00452062
0.00252089
0.000394625
0.0110579
0.0108928
0.0107264
0.0105527
0.010371
0.0101905
0.0100065
0.00980126
0.00955856
0.00927761
0.00896658
0.00862842
0.00825681
0.00780083
0.00715503
0.00620104
0.00480487
0.00283821
0.000428032
0.0112
0.011004
0.0107968
0.0105796
0.0103539
0.0101255
0.00989564
0.00965504
0.0093894
0.00909237
0.00877199
0.00843462
0.00806895
0.00762838
0.00702053
0.00616677
0.00494779
0.00315971
0.0004581
0.0112474
0.0110354
0.0108013
0.0105474
0.0102778
0.00999734
0.0097102
0.00941712
0.00910911
0.0087889
0.00845832
0.00811527
0.00774915
0.00731711
0.00675151
0.00598926
0.00489675
0.00316394
0.000452708
0.0112266
0.0110161
0.0107699
0.0104889
0.0101774
0.00984215
0.0094906
0.00913046
0.00876146
0.00839423
0.00803546
0.00768079
0.00730581
0.00687704
0.00634095
0.00563157
0.00461856
0.00300225
0.000415107
0.0111714
0.0109773
0.0107322
0.0104345
0.0100878
0.0097001
0.00928207
0.00884697
0.00840451
0.00797117
0.00755878
0.00716353
0.00675954
0.0063196
0.00579758
0.00511263
0.00413153
0.00264852
0.000359951
0.0111119
0.0109448
0.0107112
0.010408
0.0100375
0.00960747
0.00913036
0.00862274
0.0081045
0.0075954
0.0071108
0.00664905
0.0061894
0.00570699
0.00515621
0.00445137
0.00347573
0.00210996
0.000312998
0.0110642
0.0109304
0.0107169
0.0104202
0.0100414
0.00958741
0.00907075
0.00850954
0.00792759
0.0073475
0.00678595
0.0062462
0.00571401
0.00516513
0.00455454
0.00381003
0.00284835
0.00163331
0.00029253
0.0110297
0.010932
0.0107455
0.010467
0.0100971
0.0096416
0.00911211
0.00852652
0.00790871
0.00728095
0.00666133
0.00605725
0.00546136
0.00485415
0.00420021
0.00344858
0.00255448
0.00146655
0.000296032
0.0110007
0.010939
0.0107837
0.010533
0.0101874
0.00975156
0.00923584
0.00865682
0.00803588
0.00739485
0.00675348
0.00612221
0.00550014
0.00487578
0.00422587
0.00351251
0.0026619
0.0015562
0.00030896
0.0109678
0.010939
0.0108164
0.0105993
0.0102887
0.00988839
0.00940716
0.00885967
0.00826385
0.00764161
0.00701405
0.00639415
0.00578531
0.00518103
0.00456066
0.00387791
0.00300615
0.00178002
0.000322756
0.0109252
0.010924
0.0108322
0.0106504
0.0103799
0.0100241
0.00959012
0.00909024
0.00853895
0.0079576
0.0073673
0.00678237
0.00620758
0.00563605
0.0050431
0.00434848
0.00341776
0.00204298
0.000334596
0.0108725
0.0108923
0.0108268
0.0106778
0.0104477
0.010139
0.00975755
0.00931272
0.00881638
0.00828794
0.00774672
0.00720617
0.00666944
0.00612454
0.00553405
0.00480093
0.00378915
0.00228036
0.000343995
0.0108118
0.0108464
0.0108024
0.0106808
0.0104875
0.0102239
0.00989483
0.00950565
0.00906739
0.00859605
0.00810772
0.00761282
0.00711039
0.0065812
0.00596851
0.00517456
0.00406138
0.00242751
0.000351112
0.0107517
0.0107914
0.0107614
0.0106642
0.0105027
0.0102782
0.00999679
0.00966045
0.00927844
0.00886308
0.00842627
0.00797378
0.00749836
0.00697045
0.00632544
0.00547034
0.00426729
0.00251743
0.000354059
0.0106992
0.0107365
0.010713
0.0106321
0.0104962
0.0103074
0.0100669
0.00977787
0.00944699
0.00908296
0.00869295
0.00827708
0.00782139
0.00728943
0.00661451
0.0057042
0.00442402
0.00258078
0.000356158
0.0106579
0.0106878
0.0106652
0.0105941
0.0104773
0.0103161
0.0101101
0.00986209
0.00957636
0.00925776
0.00890853
0.00852316
0.00808176
0.00754289
0.00684121
0.0058855
0.00454527
0.00263156
0.000357439
0.0106261
0.0106466
0.0106218
0.0105562
0.010453
0.010312
0.010134
0.00992007
0.00967222
0.00939158
0.00907578
0.00871423
0.00828241
0.00773622
0.00701234
0.00602175
0.00463743
0.00267311
0.000357667
0.0105976
0.0106089
0.010581
0.0105187
0.0104248
0.0102994
0.0101433
0.00995675
0.00973923
0.00948867
0.00919865
0.00885442
0.00842833
0.00787531
0.00713407
0.00611802
0.00470229
0.00270156
0.000357351
0.0105633
0.0105668
0.0105367
0.0104772
0.0103904
0.0102776
0.0101389
0.00997372
0.00977962
0.00955176
0.00928047
0.00894798
0.00852475
0.00796595
0.00721204
0.00617856
0.00474164
0.00271499
0.000356423
0.0105133
0.0105108
0.0104798
0.0104237
0.010344
0.010242
0.0101178
0.00996938
0.00979306
0.00958182
0.00932359
0.00899865
0.00857666
0.00801373
0.0072517
0.00620797
0.00475927
0.00271743
0.000354446
0.0104401
0.0104327
0.0104021
0.0103502
0.0102781
0.0101866
0.0100748
0.00994023
0.00977771
0.00957874
0.00932973
0.00900989
0.00858887
0.00802412
0.00725845
0.00621099
0.00475917
0.00271373
0.000351114
0.0103403
0.0103284
0.0102985
0.0102513
0.0101872
0.0101058
0.0100056
0.00988298
0.00973185
0.00954264
0.00930085
0.00898532
0.0085662
0.00800235
0.00723735
0.00619187
0.00474388
0.00270419
0.000346875
0.010215
0.0101984
0.0101687
0.0101259
0.0100693
0.00999766
0.0099082
0.00979646
0.00965547
0.00947492
0.00923984
0.00892912
0.00851355
0.00795323
0.00719302
0.00615426
0.00471535
0.00268859
0.000342619
0.0100701
0.0100479
0.0100173
0.00997764
0.0099274
0.00986424
0.00978448
0.00968268
0.00955114
0.00937894
0.00915092
0.00884614
0.00843611
0.00788197
0.00712979
0.00610163
0.00467639
0.00266912
0.000338267
0.0099143
0.00988599
0.00985295
0.00981452
0.00976853
0.00971191
0.00964013
0.00954699
0.00942408
0.00926004
0.00903954
0.00874186
0.00833909
0.00779327
0.00705155
0.00603708
0.00462983
0.00264663
0.00033349
0.00975824
0.00972343
0.00968654
0.0096471
0.00960275
0.00954999
0.00948376
0.00939728
0.00928162
0.00912505
0.00891205
0.00862207
0.00822763
0.00769145
0.00696162
0.00596257
0.00457652
0.00262165
0.000327744
0.00961212
0.00957104
0.00952934
0.00948678
0.00944133
0.00938934
0.00932558
0.00924301
0.0091324
0.00898172
0.00877535
0.00849276
0.00810672
0.00758044
0.00686272
0.00587919
0.00451491
0.00259225
0.000320914
0.0094844
0.00943815
0.00939147
0.00934439
0.00929539
0.00924104
0.0091763
0.00909422
0.00898556
0.00883826
0.0086366
0.00836003
0.00798144
0.00746425
0.00675772
0.00578843
0.00444388
0.00255203
0.000314962
0.00938043
0.00933115
0.00928057
0.00922879
0.00917467
0.00911533
0.0090462
0.0089608
0.0088503
0.00870291
0.00850305
0.00823019
0.00785715
0.00734739
0.00665037
0.00569329
0.00436566
0.00250171
0.000310461
0.00930152
0.00925249
0.00920053
0.00914555
0.00908641
0.00902069
0.00894444
0.00885193
0.0087353
0.00858362
0.00838186
0.00810962
0.00773961
0.00723512
0.00654557
0.00559866
0.00428592
0.00244887
0.000306081
0.00924434
0.00919977
0.00915046
0.00909575
0.00903405
0.00896269
0.00887802
0.00877513
0.00864794
0.00848737
0.00827955
0.00800446
0.00763467
0.00713308
0.00644893
0.00551027
0.00421071
0.00239903
0.000301956
0.00920108
0.00916537
0.0091237
0.00907457
0.0090154
0.00894221
0.00885024
0.00873473
0.00859286
0.0084189
0.00820099
0.00791978
0.00754756
0.00704669
0.00636601
0.00543378
0.00414543
0.00235598
0.000298576
0.00916081
0.00913722
0.00910778
0.00907025
0.00902088
0.00895339
0.00885885
0.00872947
0.00856961
0.00837888
0.00814809
0.00785852
0.00748203
0.00698027
0.00630147
0.00537387
0.00409419
0.00232219
0.000296588
0.00911244
0.0091014
0.00908625
0.00906478
0.00903283
0.008982
0.00889563
0.00874979
0.00857028
0.00836235
0.00811868
0.0078207
0.00743961
0.00693624
0.00625819
0.00533341
0.00405911
0.00229855
0.000296688
0.00904898
0.00904685
0.00904339
0.00903762
0.00902735
0.00900633
0.00895275
0.00877616
0.00857923
0.00835916
0.00810701
0.0078036
0.00741948
0.00691489
0.00623694
0.00531311
0.00404011
0.00228285
0.000299077
)
;

boundaryField
{
    leftWall
    {
        type            nutkWallFunction;
        Cmu             0.09;
        kappa           0.41;
        E               9.8;
        value           nonuniform List<scalar> 
50
(
8.68111e-06
1.18601e-05
1.39329e-05
1.5606e-05
1.70526e-05
1.83844e-05
1.96928e-05
2.10701e-05
2.27552e-05
2.56464e-05
2.90052e-05
3.27707e-05
3.68963e-05
4.17076e-05
4.74344e-05
5.77183e-05
6.19514e-05
6.22162e-05
6.06757e-05
5.95517e-05
6.00646e-05
5.9976e-05
5.60434e-05
5.16984e-05
4.67046e-05
4.14282e-05
3.61768e-05
3.12404e-05
2.68455e-05
2.31422e-05
2.02231e-05
1.8075e-05
1.65593e-05
1.54846e-05
1.46876e-05
1.40594e-05
1.35367e-05
1.3089e-05
1.27077e-05
1.23973e-05
1.2167e-05
1.20238e-05
1.19672e-05
1.19879e-05
1.20704e-05
1.22012e-05
1.24277e-05
1.36071e-05
2.23523e-05
4.91316e-05
)
;
    }
    rightWall
    {
        type            nutkWallFunction;
        Cmu             0.09;
        kappa           0.41;
        E               9.8;
        value           nonuniform List<scalar> 
50
(
1.56786e-05
2.25514e-05
2.6639e-05
2.97572e-05
3.23316e-05
3.46645e-05
3.70004e-05
3.94552e-05
3.93e-05
3.77362e-05
3.72367e-05
3.82038e-05
4.01628e-05
4.1433e-05
4.28358e-05
5.01702e-05
5.38992e-05
5.54247e-05
5.08653e-05
4.30444e-05
3.63823e-05
3.44105e-05
3.50782e-05
3.68452e-05
3.86828e-05
4.02448e-05
4.1251e-05
4.16649e-05
4.23687e-05
4.29325e-05
4.30489e-05
4.30583e-05
4.29894e-05
4.28438e-05
4.25772e-05
4.1863e-05
4.12973e-05
4.07418e-05
4.01575e-05
3.9488e-05
3.85713e-05
3.75111e-05
3.66326e-05
3.59579e-05
3.53347e-05
3.4746e-05
3.42577e-05
3.39628e-05
3.39625e-05
3.42873e-05
)
;
    }
    lowerWall
    {
        type            nutkWallFunction;
        Cmu             0.09;
        kappa           0.41;
        E               9.8;
        value           nonuniform List<scalar> 
62
(
4.0868e-06
5.76793e-06
7.02206e-06
8.05304e-06
8.96228e-06
9.76853e-06
1.04672e-05
1.10548e-05
1.15676e-05
1.19787e-05
1.22842e-05
1.25033e-05
1.26837e-05
1.30418e-05
1.36962e-05
1.44698e-05
1.52376e-05
1.58905e-05
1.60222e-05
1.54752e-05
1.40577e-05
1.14372e-05
7.5692e-06
7.5692e-06
2.07946e-05
2.28593e-05
2.4612e-05
2.70331e-05
3.07305e-05
3.78595e-05
4.78798e-05
5.28956e-05
5.11032e-05
5.13438e-05
5.32647e-05
8.06235e-06
2.47503e-05
2.86926e-05
3.28718e-05
3.77427e-05
4.35179e-05
5.02233e-05
5.78173e-05
8.06235e-06
1.00235e-05
1.05901e-05
1.18813e-05
1.46547e-05
1.74431e-05
1.96534e-05
2.01993e-05
1.9198e-05
1.78002e-05
1.68733e-05
1.64613e-05
1.62918e-05
1.60844e-05
1.54006e-05
1.4199e-05
1.26273e-05
1.05177e-05
6.93373e-06
)
;
    }
    atmosphere
    {
        type            calculated;
        value           nonuniform List<scalar> 
46
(
0.009
0.009
0.009
0.009
0.009
0.009
0.009
0.009
0.009
0.009
0.009
0.009
0.009
0.009
0.009
0.009
0.009
0.009
0.009
0.009
0.009
0.009
0.009
0.009
0.009
0.009
0.009
0.009
0.009
0.009
0.009
0.009
0.009
0.009
0.00877616
0.00857923
0.00835916
0.00810701
0.0078036
0.00741948
0.00691489
0.00623694
0.00531311
0.00404011
0.00228285
0.000299077
)
;
    }
    defaultFaces
    {
        type            empty;
    }
}


// ************************************************************************* //
