/*--------------------------------*- C++ -*----------------------------------*\
| =========                 |                                                 |
| \\      /  F ield         | OpenFOAM: The Open Source CFD Toolbox           |
|  \\    /   O peration     | Version:  2.3.0                                 |
|   \\  /    A nd           | Web:      www.OpenFOAM.org                      |
|    \\/     M anipulation  |                                                 |
\*---------------------------------------------------------------------------*/
FoamFile
{
    version     2.0;
    format      ascii;
    class       volScalarField;
    location    "1.25";
    object      p;
}
// * * * * * * * * * * * * * * * * * * * * * * * * * * * * * * * * * * * * * //

dimensions      [1 -1 -2 0 0 0 0];

internalField   nonuniform List<scalar> 
2268
(
1139.48
1139.71
1136.61
1129.71
1119.45
1106.46
1091.31
1074.55
1056.55
1037.52
1017.38
995.725
972.083
946.41
918.627
890.155
863.584
839.615
815.788
790.277
765.741
749.369
747.708
1079.67
1079.51
1076.56
1069.74
1059.6
1046.86
1032.13
1015.98
998.848
980.905
962.012
941.688
919.785
894.493
865.205
833.452
802.701
774.962
749.07
723.738
701.067
687.517
688.497
1020.04
1019.57
1016.63
1009.8
999.771
987.36
973.227
957.966
941.961
925.327
907.785
888.693
867.641
842.199
810.887
775.753
741.205
710.062
682.234
657.558
637.778
626.313
627.656
960.764
960.358
957.525
950.67
940.74
928.613
915.009
900.535
885.522
869.958
853.4
834.951
813.701
787.25
753.99
716.475
679.58
646.861
618.386
594.166
576.664
566.588
566.271
901.957
901.85
899.243
892.441
882.582
870.652
857.443
843.579
829.326
814.533
798.571
780.284
758.347
730.451
695.269
655.794
617.999
585.425
556.246
532.222
516.71
507.987
505.025
843.71
844.046
841.719
834.985
825.147
813.321
800.387
786.996
773.344
759.136
743.542
725.166
702.349
672.862
635.629
594.688
557.977
525.477
493.839
469.813
456.364
449.485
443.389
786.076
786.955
784.905
778.195
768.298
756.479
743.717
730.701
717.559
703.844
688.506
669.936
646.191
615.054
575.791
534.689
499.525
464.504
430.451
405.728
394.075
389.72
380.065
729.086
730.496
728.632
721.863
711.805
699.894
687.212
674.484
661.766
648.452
633.268
614.418
589.762
557.107
516.106
477.373
440.855
402.994
366.968
339.451
327.54
325.732
313.108
570.75
564.274
542.907
510.922
457.087
429.872
432.281
433.133
422.134
415.159
416.729
423.437
432.287
442.81
450.982
454.655
456.835
460.847
470.543
508.642
501.731
484.879
457.862
408.169
383.941
376.683
377.173
368.947
360.79
362.432
370.628
378.962
388.921
397.299
401.6
404.27
408.203
416.73
447.194
441.77
429.276
406.942
370.809
349.573
332.232
331.685
328.803
318.167
309.832
316.09
325.471
334.926
343.866
348.557
350.447
353.42
361.102
387.187
385.281
375.685
354.635
332.368
304.93
283.316
281.582
282.593
280.653
262.685
262.114
270.317
281.443
291.192
294.823
294.263
294.978
303.854
328.18
331.71
323.467
304.975
290.386
254.463
234.727
234.036
235.32
237.435
228.706
221.868
220.315
229.369
240.67
241.775
236.416
233.038
244.893
268.016
280.37
272.115
263.262
246.296
202.146
190.08
192.855
188.843
193.811
202.941
198.208
186.275
181.434
191.832
190.898
179.983
171.436
184.1
206.015
231.112
223.007
213.716
192.896
148.867
146.342
154.915
142.58
148.575
175.736
176.757
163.664
141.041
144.472
147.844
143.61
135.476
137.064
154.224
184.764
177.31
160.072
135.251
114.878
110.044
114.984
103.038
107.477
144.001
151.183
139.379
118.599
116.298
125.499
130.608
124.151
117.666
640.923
642.875
641.022
633.964
623.473
611.257
598.551
586.132
573.918
561.04
545.893
526.454
500.531
466.947
428.263
389.923
349.47
308.088
269.22
237.133
221.715
218.937
212.027
523.227
525.237
522.847
514.735
503.16
490.033
476.814
464.562
453.015
440.943
426.26
406.701
380.189
346.586
309.649
268.421
223.277
175.846
139.658
117.526
107.139
96.1435
79.6536
407.775
408.545
405.067
395.653
382.798
368.352
354.128
341.92
331.537
321.276
308.252
289.695
263.126
228.696
190.672
148.418
99.3117
60.0662
40.8647
40.0915
42.1719
33.4757
20.6687
295.032
293.119
287.943
277.552
263.763
247.165
230.029
216.962
208.249
202.037
193.085
177.982
152.485
117.234
83.134
53.3351
23.132
10.9604
7.22499
7.27496
9.6925
9.99692
9.1497
187.335
181.538
174.452
164.972
152.91
135.186
114.637
99.6015
90.8234
89.4175
87.347
80.3114
62.9169
39.7862
24.4908
14.4577
6.54492
4.9761
3.95211
2.72629
1.40416
1.29068
2.29817
90.9258
83.8742
81.8631
82.5541
78.8479
65.2915
46.0287
31.3007
22.7195
20.3302
20.9706
22.6046
20.2331
14.9841
12.5251
9.26789
5.49813
3.34292
2.37559
1.32124
0.843981
0.6661
0.0857381
33.7911
30.553
34.7221
41.974
44.5113
36.6674
23.747
14.248
8.33616
4.70944
4.21301
7.7556
12.9185
14.9711
12.5498
8.13758
4.10877
1.79198
0.927558
0.581336
0.503395
0.285559
-0.192865
19.4204
20.6328
23.1967
23.1544
22.2937
19.5746
15.3433
9.45979
4.39008
1.95847
2.19117
5.03665
7.98999
8.30325
5.88616
3.15706
1.35019
-0.0175588
-0.429235
-0.206536
-0.00867947
-0.19669
-0.526863
14.862
13.4437
11.3996
10.0332
8.22976
8.15031
8.45349
5.21008
1.44502
-0.900387
-0.963503
0.459876
1.74479
1.016
0.332619
-0.34336
-1.35564
-1.18745
-1.08157
-0.914998
-0.807504
-0.848424
-0.86133
7.73717
4.28869
2.57349
-0.072727
-1.81768
-1.3822
1.3064
2.57932
0.337762
-2.66979
-2.63241
-2.24583
-0.882477
-1.34321
-1.9284
-1.67691
-1.52213
-1.49204
-1.40285
-1.31354
-1.27936
-1.20022
-1.10926
1.30673
-0.949228
-1.90636
-1.94657
-2.0268
-2.07474
-2.132
-1.83981
-1.8831
-2.42912
-2.64394
-2.7217
-2.31069
-1.95314
-1.82136
-1.77674
-1.71417
-1.66247
-1.58299
-1.51321
-1.45266
-1.3881
-1.34268
-1.6304
-2.22729
-2.14511
-2.15715
-2.18719
-2.2323
-2.29326
-2.40099
-2.53684
-2.51064
-2.46372
-2.37774
-2.21618
-2.07499
-1.99867
-1.94279
-1.87961
-1.8188
-1.74999
-1.68752
-1.63409
-1.58933
-1.55576
-2.45415
-2.5345
-2.29225
-2.29994
-2.33838
-2.3808
-2.42436
-2.44731
-2.44935
-2.44503
-2.45983
-2.40852
-2.31963
-2.22947
-2.15625
-2.09196
-2.02979
-1.97229
-1.91511
-1.86308
-1.81841
-1.78083
-1.75118
-2.58884
-2.62077
-2.46864
-2.46925
-2.48457
-2.50595
-2.5306
-2.54475
-2.54546
-2.53813
-2.52338
-2.48115
-2.41717
-2.3488
-2.28582
-2.22775
-2.17326
-2.12279
-2.07493
-2.03127
-1.99285
-1.95976
-1.9327
-2.63402
-2.6869
-2.61621
-2.61215
-2.61289
-2.61957
-2.62974
-2.63608
-2.63393
-2.62212
-2.60016
-2.56323
-2.51356
-2.4599
-2.40801
-2.35892
-2.31246
-2.26891
-2.228
-2.19045
-2.15675
-2.12732
-2.10246
-2.73787
-2.76372
-2.73302
-2.72706
-2.72452
-2.72562
-2.72805
-2.72798
-2.72217
-2.70855
-2.68643
-2.65448
-2.61475
-2.57181
-2.52899
-2.48749
-2.44768
-2.40993
-2.37438
-2.34145
-2.31151
-2.28504
-2.26206
-2.84102
-2.84551
-2.83209
-2.82761
-2.82632
-2.82613
-2.82539
-2.82197
-2.81396
-2.80003
-2.77954
-2.75226
-2.71971
-2.68448
-2.64863
-2.61323
-2.57884
-2.54587
-2.51462
-2.48539
-2.45852
-2.43449
-2.41321
-2.93558
-2.9306
-2.92542
-2.92389
-2.92378
-2.92343
-2.92158
-2.91694
-2.90838
-2.89508
-2.87673
-2.85345
-2.82631
-2.79689
-2.76654
-2.73614
-2.70626
-2.67734
-2.64968
-2.62358
-2.59935
-2.57745
-2.55775
-3.0308
-3.02207
-3.01961
-3.01977
-3.02015
-3.0197
-3.01751
-3.01266
-3.00444
-2.99237
-2.9763
-2.95647
-2.93363
-2.90881
-2.88293
-2.85672
-2.8307
-2.80528
-2.78077
-2.75744
-2.73559
-2.71566
-2.69753
-3.1303
-3.12063
-3.11741
-3.11742
-3.11763
-3.11694
-3.11459
-3.1099
-3.10237
-3.09169
-3.07781
-3.06096
-3.04166
-3.02061
-2.99849
-2.97585
-2.95317
-2.93083
-2.90912
-2.8883
-2.86863
-2.85056
-2.83399
-3.23345
-3.2239
-3.21921
-3.21808
-3.21762
-3.2165
-3.21401
-3.20957
-3.2028
-3.19348
-3.18157
-3.16725
-3.15088
-3.13297
-3.114
-3.09443
-3.07465
-3.05502
-3.03582
-3.01726
-2.99962
-2.9833
-2.96825
-3.33926
-3.33036
-3.32459
-3.32216
-3.32077
-3.31912
-3.31645
-3.31226
-3.3062
-3.29807
-3.28785
-3.27564
-3.2617
-3.24639
-3.23008
-3.21312
-3.19586
-3.17861
-3.16164
-3.14514
-3.12937
-3.1147
-3.10112
-3.44716
-3.43925
-3.43298
-3.42945
-3.42719
-3.42499
-3.42213
-3.41813
-3.41267
-3.40554
-3.39671
-3.38622
-3.37428
-3.36113
-3.34704
-3.33231
-3.31723
-3.30208
-3.28709
-3.27245
-3.2584
-3.2453
-3.23311
-3.55684
-3.55
-3.54372
-3.5395
-3.53655
-3.53388
-3.53085
-3.52699
-3.522
-3.51569
-3.50797
-3.4989
-3.48858
-3.47721
-3.46499
-3.45216
-3.43897
-3.42567
-3.41245
-3.39951
-3.38704
-3.37538
-3.36453
-3.66806
-3.66221
-3.65627
-3.65176
-3.64837
-3.64537
-3.6422
-3.63845
-3.63382
-3.62815
-3.62134
-3.61341
-3.60443
-3.59454
-3.5839
-3.57271
-3.56117
-3.54949
-3.53786
-3.52644
-3.51542
-3.5051
-3.49549
-3.78068
-3.77568
-3.77024
-3.76573
-3.76214
-3.75895
-3.75569
-3.75203
-3.74771
-3.74255
-3.73648
-3.72948
-3.72162
-3.71297
-3.70368
-3.6939
-3.6838
-3.67356
-3.66335
-3.65331
-3.64361
-3.63452
-3.62604
-3.89455
-3.89026
-3.88536
-3.88103
-3.87742
-3.87416
-3.87089
-3.86733
-3.86326
-3.85853
-3.85308
-3.84686
-3.83993
-3.83235
-3.82421
-3.81565
-3.80682
-3.79786
-3.78892
-3.78012
-3.7716
-3.76362
-3.75618
-4.00951
-4.00581
-4.00144
-3.99739
-3.99388
-3.99065
-3.98742
-3.98398
-3.98015
-3.9758
-3.97086
-3.96532
-3.95918
-3.95251
-3.94537
-3.93788
-3.93016
-3.92233
-3.91452
-3.90683
-3.89938
-3.89241
-3.8859
-4.12539
-4.12219
-4.11831
-4.11459
-4.11126
-4.10813
-4.105
-4.10171
-4.09811
-4.0941
-4.08963
-4.08466
-4.07922
-4.07333
-4.06706
-4.0605
-4.05376
-4.04693
-4.04012
-4.03342
-4.02694
-4.02086
-4.01519
-4.24205
-4.23926
-4.23583
-4.23246
-4.22936
-4.22639
-4.22341
-4.22029
-4.21693
-4.21324
-4.20918
-4.20473
-4.19989
-4.19469
-4.18919
-4.18345
-4.17757
-4.17162
-4.1657
-4.15987
-4.15424
-4.14897
-4.14405
-4.35936
-4.35692
-4.3539
-4.35088
-4.34803
-4.34527
-4.34247
-4.33955
-4.33644
-4.33306
-4.32939
-4.3254
-4.3211
-4.31651
-4.31168
-4.30666
-4.30153
-4.29636
-4.29122
-4.28618
-4.28131
-4.27674
-4.27249
-4.47721
-4.47508
-4.47242
-4.46974
-4.46717
-4.46463
-4.46204
-4.45935
-4.45649
-4.45342
-4.45011
-4.44655
-4.44273
-4.43869
-4.43446
-4.43008
-4.42562
-4.42114
-4.41669
-4.41233
-4.40813
-4.4042
-4.40054
-4.59551
-4.59364
-4.59132
-4.58896
-4.58667
-4.58437
-4.58202
-4.57957
-4.57698
-4.57421
-4.57126
-4.56809
-4.56472
-4.56117
-4.55747
-4.55366
-4.54979
-4.54592
-4.54208
-4.53833
-4.53473
-4.53136
-4.52823
-4.7142
-4.71256
-4.71054
-4.70848
-4.70646
-4.70442
-4.70232
-4.70012
-4.69781
-4.69536
-4.69274
-4.68995
-4.68699
-4.68389
-4.68067
-4.67737
-4.67403
-4.67069
-4.6674
-4.66419
-4.66111
-4.65825
-4.65559
-4.83321
-4.83178
-4.83003
-4.82825
-4.8265
-4.82471
-4.82287
-4.82095
-4.81892
-4.81677
-4.81449
-4.81206
-4.80949
-4.8068
-4.80401
-4.80117
-4.7983
-4.79544
-4.79264
-4.78992
-4.78732
-4.7849
-4.78267
-4.95249
-4.95124
-4.94973
-4.94821
-4.94672
-4.9452
-4.94363
-4.94199
-4.94026
-4.93842
-4.93645
-4.93436
-4.93215
-4.92984
-4.92745
-4.92503
-4.92259
-4.92018
-4.91781
-4.91553
-4.91335
-4.91134
-4.90949
-5.07199
-5.0709
-5.06959
-5.06831
-5.06708
-5.06584
-5.06455
-5.06321
-5.06177
-5.06023
-5.05857
-5.0568
-5.05493
-5.05298
-5.05097
-5.04893
-5.04689
-5.04488
-5.04293
-5.04104
-5.03925
-5.03761
-5.0361
-5.19168
-5.19069
-5.18955
-5.18851
-5.18756
-5.18662
-5.18564
-5.18459
-5.18344
-5.18219
-5.18082
-5.17936
-5.1778
-5.17619
-5.17453
-5.17287
-5.1712
-5.16957
-5.16799
-5.16648
-5.16504
-5.16372
-5.16252
-5.31149
-5.31056
-5.30956
-5.30879
-5.30817
-5.30756
-5.30689
-5.30613
-5.30525
-5.30426
-5.30317
-5.30199
-5.30074
-5.29945
-5.29814
-5.29683
-5.29552
-5.29425
-5.29302
-5.29184
-5.29073
-5.28971
-5.28878
-5.43146
-5.43054
-5.4297
-5.42928
-5.42905
-5.42878
-5.42839
-5.42786
-5.42721
-5.42645
-5.42561
-5.4247
-5.42375
-5.42277
-5.42179
-5.42081
-5.41985
-5.41892
-5.41802
-5.41716
-5.41635
-5.4156
-5.41491
-5.55157
-5.55106
-5.55036
-5.55025
-5.55032
-5.55026
-5.55004
-5.54969
-5.54922
-5.54867
-5.54807
-5.54743
-5.54677
-5.54612
-5.54546
-5.54482
-5.5442
-5.54359
-5.54301
-5.54245
-5.54191
-5.54141
-5.54093
-5.67004
-5.672
-5.67066
-5.67039
-5.6704
-5.67037
-5.67026
-5.6701
-5.66989
-5.66967
-5.66945
-5.66923
-5.66902
-5.66883
-5.66866
-5.6685
-5.66835
-5.6682
-5.66806
-5.6679
-5.66774
-5.66756
-5.66735
216.071
213.366
207.124
190.478
74.0428
75.9473
78.0827
71.3876
19.6121
23.2774
27.4474
29.0603
9.78789
10.7827
12.261
12.4347
1.83277
2.53988
3.60561
1.83537
-0.18915
-0.34309
-0.376122
-0.430681
-0.418055
-0.482511
-0.530591
-0.580368
-0.653491
-0.700023
-0.740108
-0.77624
-0.860491
-0.888325
-0.923467
-0.955362
-1.09075
-1.1062
-1.12814
-1.1483
-1.33219
-1.3334
-1.33899
-1.34615
-1.5415
-1.53635
-1.53462
-1.53478
-1.73513
-1.72652
-1.71996
-1.71511
-1.9156
-1.90468
-1.89475
-1.88646
-2.08487
-2.07245
-2.06028
-2.04969
-2.24447
-2.23127
-2.21777
-2.20586
-2.39601
-2.3826
-2.36858
-2.35615
-2.54122
-2.528
-2.51405
-2.50172
-2.6819
-2.66919
-2.6557
-2.64384
-2.81944
-2.80749
-2.79478
-2.78363
-2.95488
-2.94384
-2.93207
-2.9218
-3.08897
-3.07892
-3.06819
-3.05885
-3.22219
-3.21315
-3.20348
-3.19506
-3.35479
-3.34673
-3.3381
-3.33058
-3.48688
-3.47975
-3.4721
-3.46542
-3.61847
-3.61221
-3.60546
-3.59956
-3.74955
-3.74408
-3.73817
-3.73299
-3.88013
-3.87536
-3.8702
-3.86568
-4.01018
-4.00604
-4.00157
-3.99764
-4.13971
-4.13615
-4.13228
-4.12888
-4.26876
-4.2657
-4.26237
-4.25945
-4.39734
-4.39473
-4.39189
-4.38939
-4.52551
-4.52329
-4.52089
-4.51876
-4.6533
-4.65144
-4.64941
-4.64763
-4.78075
-4.7792
-4.77753
-4.77604
-4.90791
-4.90665
-4.90527
-4.90406
-5.03482
-5.0338
-5.0327
-5.03172
-5.16151
-5.16071
-5.15985
-5.15908
-5.28801
-5.2874
-5.28675
-5.28617
-5.41435
-5.41392
-5.41344
-5.41301
-5.5405
-5.54019
-5.53985
-5.53955
-5.66712
-5.66695
-5.66677
-5.66659
120.574
118.104
114.348
103.395
98.1718
92.6793
82.157
72.837
66.7868
67.6304
92.2262
108.799
105.331
101.408
108.312
115.794
115.676
108.946
107.084
52.9973
53.4051
57.9067
65.3914
72.0294
67.4265
56.3713
44.5546
40.054
38.7511
44.3198
63.5803
72.3349
79.6867
93.1215
97.4861
97.3754
94.0937
94.7216
27.1988
27.1713
32.5309
42.8654
46.4717
41.9749
34.0402
28.1745
28.2116
29.0541
28.3096
31.777
41.5315
55.9438
70.0324
75.2716
80.4604
83.248
84.1265
10.6526
10.4666
13.1759
18.5199
20.9259
18.1651
15.9985
17.0571
21.5593
23.7547
23.2639
23.4557
24.9133
33.4996
44.1047
52.5641
60.4237
67.944
70.8769
0.905538
1.25782
1.76145
3.42258
5.04788
4.80841
5.89256
10.0039
14.8313
17.8121
18.6408
19.2179
19.3077
20.1868
24.9456
32.6041
38.3394
45.8923
49.6093
-0.589232
-0.787902
-0.95201
-1.00627
-0.725529
0.579587
2.43706
4.78793
7.48995
9.97505
12.2091
14.2679
15.0415
12.3863
12.2001
16.1273
18.6641
24.5455
25.9
-0.651146
-0.713063
-0.75199
-0.749866
-0.647146
-0.387677
0.136775
0.784061
1.16553
2.53121
4.67334
7.23421
8.53332
5.97441
2.33732
3.4518
5.16694
7.41199
7.3553
-0.824524
-0.873059
-0.904093
-0.905583
-0.860611
-0.880335
-0.962309
-0.973537
-0.98234
-0.72433
-0.00213917
1.12275
2.23958
0.811507
-0.882857
-1.00255
-0.551698
-1.10698
-1.38136
-0.998864
-1.04154
-1.07304
-1.09071
-1.10145
-1.10779
-1.1389
-1.16452
-1.12038
-1.08892
-1.16906
-1.19492
-0.664863
-0.815376
-1.34399
-1.46807
-1.44023
-1.39326
-1.39435
-1.17634
-1.20665
-1.23203
-1.25097
-1.26362
-1.27368
-1.28685
-1.28919
-1.28678
-1.29168
-1.34742
-1.46611
-1.61032
-1.61321
-1.54206
-1.57262
-1.58099
-1.52001
-1.50463
-1.35788
-1.37481
-1.39243
-1.40789
-1.42126
-1.43503
-1.45122
-1.46513
-1.48569
-1.51249
-1.54786
-1.58194
-1.62116
-1.65046
-1.65529
-1.64882
-1.65166
-1.62959
-1.61727
-1.53659
-1.54347
-1.55415
-1.56507
-1.57682
-1.59033
-1.60751
-1.62877
-1.65961
-1.68281
-1.69948
-1.71412
-1.73349
-1.74915
-1.75452
-1.75198
-1.7481
-1.73666
-1.73577
-1.70974
-1.70892
-1.71341
-1.72067
-1.72938
-1.74032
-1.755
-1.77333
-1.79439
-1.81081
-1.82222
-1.83968
-1.86165
-1.87758
-1.88167
-1.87522
-1.86081
-1.85134
-1.85969
-1.87628
-1.87003
-1.86956
-1.87348
-1.87933
-1.88756
-1.89871
-1.91353
-1.93025
-1.94378
-1.95639
-1.97556
-1.99852
-2.0152
-2.02009
-2.00929
-1.99098
-1.9824
-1.99484
-2.03645
-2.02666
-2.02258
-2.02341
-2.02758
-2.03376
-2.04226
-2.05393
-2.06898
-2.08578
-2.10443
-2.12374
-2.14282
-2.15596
-2.15865
-2.15126
-2.13992
-2.13362
-2.14189
-2.19096
-2.17917
-2.17276
-2.17117
-2.17386
-2.17913
-2.18631
-2.19609
-2.20996
-2.22929
-2.25152
-2.27019
-2.28461
-2.29249
-2.29429
-2.29648
-2.29804
-2.29494
-2.29343
-2.3407
-2.32808
-2.32042
-2.31718
-2.31812
-2.32264
-2.32964
-2.33912
-2.3514
-2.36808
-2.38843
-2.40594
-2.41744
-2.42503
-2.43172
-2.43954
-2.44772
-2.45122
-2.44458
-2.48656
-2.47397
-2.46583
-2.46173
-2.46146
-2.46468
-2.47128
-2.4803
-2.49136
-2.50548
-2.52184
-2.53699
-2.54931
-2.55945
-2.56901
-2.57951
-2.59075
-2.5999
-2.59169
-2.62947
-2.61744
-2.60933
-2.60486
-2.60394
-2.6063
-2.61168
-2.61962
-2.6299
-2.64255
-2.65668
-2.67038
-2.68264
-2.6936
-2.70401
-2.71486
-2.72616
-2.73785
-2.73006
-2.77028
-2.75905
-2.75127
-2.74673
-2.74544
-2.74721
-2.75179
-2.75885
-2.76812
-2.77933
-2.79177
-2.80421
-2.81579
-2.82634
-2.83608
-2.84533
-2.85358
-2.85894
-2.85342
-2.9096
-2.89928
-2.89195
-2.8875
-2.886
-2.88733
-2.89127
-2.89755
-2.90583
-2.9157
-2.9266
-2.93764
-2.9481
-2.95758
-2.96587
-2.97264
-2.97677
-2.97634
-2.96895
-3.04782
-3.03843
-3.03163
-3.02732
-3.0257
-3.02664
-3.02998
-3.03546
-3.04274
-3.05139
-3.06085
-3.07046
-3.0796
-3.08776
-3.09447
-3.09901
-3.10002
-3.09583
-3.08918
-3.18516
-3.17669
-3.17041
-3.1663
-3.16456
-3.16515
-3.16789
-3.17255
-3.17882
-3.18626
-3.19438
-3.20262
-3.21042
-3.21725
-3.22259
-3.22569
-3.22544
-3.22006
-3.21342
-3.32174
-3.31412
-3.30836
-3.30445
-3.30263
-3.30286
-3.30501
-3.30885
-3.31409
-3.32036
-3.32721
-3.33413
-3.34063
-3.34622
-3.35041
-3.35266
-3.35239
-3.34775
-3.33761
-3.45756
-3.45074
-3.44547
-3.44178
-3.43988
-3.43977
-3.44134
-3.44438
-3.44863
-3.45377
-3.45939
-3.46505
-3.47031
-3.47471
-3.47781
-3.47922
-3.47849
-3.47381
-3.4617
-3.59261
-3.58652
-3.58173
-3.57825
-3.5763
-3.57589
-3.5769
-3.57918
-3.5825
-3.58657
-3.59104
-3.59551
-3.59958
-3.60282
-3.60481
-3.60514
-3.60306
-3.59651
-3.58574
-3.72687
-3.72145
-3.71711
-3.71385
-3.71188
-3.71119
-3.71172
-3.71331
-3.71577
-3.71885
-3.72226
-3.72563
-3.72859
-3.73075
-3.73169
-3.73092
-3.72757
-3.71959
-3.71103
-3.86031
-3.8555
-3.85158
-3.84855
-3.84659
-3.8457
-3.8458
-3.84679
-3.84849
-3.8507
-3.85315
-3.85553
-3.85751
-3.85871
-3.85875
-3.85712
-3.85307
-3.84457
-3.83574
-3.99294
-3.98869
-3.98517
-3.98238
-3.98046
-3.97941
-3.97918
-3.97966
-3.98072
-3.98217
-3.9838
-3.98533
-3.98646
-3.98686
-3.98615
-3.98388
-3.97937
-3.97043
-3.95938
-4.12479
-4.12105
-4.11791
-4.11535
-4.1135
-4.11237
-4.11188
-4.11196
-4.11249
-4.11331
-4.11425
-4.11508
-4.11553
-4.11529
-4.114
-4.11119
-4.10609
-4.09724
-4.08547
-4.25591
-4.25263
-4.24984
-4.24752
-4.24579
-4.24461
-4.24395
-4.24373
-4.24384
-4.24417
-4.24456
-4.24483
-4.24477
-4.24409
-4.24244
-4.23932
-4.23378
-4.22554
-4.21397
-4.38635
-4.3835
-4.38104
-4.37897
-4.37736
-4.37621
-4.37545
-4.37501
-4.37481
-4.37476
-4.37473
-4.37459
-4.37417
-4.37327
-4.37158
-4.36879
-4.36376
-4.35566
-4.34479
-4.51616
-4.51371
-4.51157
-4.50975
-4.5083
-4.50721
-4.50642
-4.50585
-4.50544
-4.5051
-4.50476
-4.50432
-4.50368
-4.50268
-4.5012
-4.49918
-4.49554
-4.48727
-4.47635
-4.64543
-4.64334
-4.64151
-4.63994
-4.63868
-4.6377
-4.63693
-4.63631
-4.63576
-4.63522
-4.63464
-4.63397
-4.63314
-4.63209
-4.63075
-4.62918
-4.62643
-4.61855
-4.60696
-4.77421
-4.77246
-4.77093
-4.76962
-4.76856
-4.76773
-4.76705
-4.76644
-4.7658
-4.76512
-4.76436
-4.7635
-4.76249
-4.7613
-4.7599
-4.75813
-4.75503
-4.74742
-4.73671
-4.90256
-4.90112
-4.89987
-4.89882
-4.898
-4.89736
-4.89684
-4.89631
-4.89564
-4.89484
-4.89394
-4.8929
-4.89171
-4.89032
-4.88872
-4.88658
-4.88281
-4.87537
-4.86626
-5.03052
-5.02937
-5.0284
-5.02761
-5.02703
-5.02665
-5.02637
-5.02598
-5.0253
-5.02442
-5.02339
-5.02222
-5.02087
-5.01939
-5.01765
-5.01527
-5.01122
-5.00416
-4.99606
-5.15814
-5.15725
-5.15652
-5.15598
-5.15568
-5.15561
-5.15567
-5.15552
-5.15483
-5.15387
-5.15275
-5.1515
-5.15013
-5.14864
-5.14685
-5.1444
-5.14039
-5.13381
-5.12644
-5.28545
-5.28477
-5.28425
-5.28394
-5.28391
-5.2842
-5.28484
-5.28513
-5.28436
-5.28326
-5.28202
-5.28072
-5.2794
-5.27792
-5.27617
-5.27384
-5.27014
-5.26415
-5.25745
-5.41244
-5.41191
-5.41154
-5.41139
-5.41159
-5.41241
-5.41429
-5.41567
-5.41444
-5.41292
-5.41142
-5.40995
-5.40851
-5.40703
-5.40539
-5.40338
-5.40036
-5.39519
-5.38923
-5.53915
-5.53871
-5.5384
-5.53831
-5.53866
-5.54029
-5.54492
-5.54831
-5.54557
-5.5431
-5.54113
-5.53933
-5.53761
-5.53596
-5.53439
-5.53287
-5.53096
-5.52711
-5.52254
-5.66633
-5.66598
-5.66572
-5.66565
-5.66608
-5.66825
-5.67562
-5.67706
-5.67318
-5.6707
-5.66898
-5.66748
-5.66606
-5.66473
-5.66354
-5.66259
-5.66174
-5.65988
-5.65694
)
;

boundaryField
{
    leftWall
    {
        type            calculated;
        value           nonuniform List<scalar> 
50
(
1139.48
1079.67
1020.04
960.764
901.957
843.71
786.076
729.086
640.923
523.227
407.775
295.032
187.335
90.9258
33.7911
19.4204
14.862
7.73717
1.30673
-1.6304
-2.45415
-2.58884
-2.63402
-2.73787
-2.84102
-2.93558
-3.0308
-3.1303
-3.23345
-3.33926
-3.44716
-3.55684
-3.66806
-3.78068
-3.89455
-4.00951
-4.12539
-4.24205
-4.35936
-4.47721
-4.59551
-4.7142
-4.83321
-4.95249
-5.07199
-5.19168
-5.31149
-5.43146
-5.55157
-5.67004
)
;
    }
    rightWall
    {
        type            calculated;
        value           nonuniform List<scalar> 
50
(
470.543
416.73
361.102
303.854
244.893
184.1
137.064
117.666
107.084
94.7216
84.1265
70.8769
49.6093
25.9
7.3553
-1.38136
-1.39435
-1.50463
-1.61727
-1.73577
-1.85969
-1.99484
-2.14189
-2.29343
-2.44458
-2.59169
-2.73006
-2.85342
-2.96895
-3.08918
-3.21342
-3.33761
-3.4617
-3.58574
-3.71103
-3.83574
-3.95938
-4.08547
-4.21397
-4.34479
-4.47635
-4.60696
-4.73671
-4.86626
-4.99606
-5.12644
-5.25745
-5.38923
-5.52254
-5.65694
)
;
    }
    lowerWall
    {
        type            calculated;
        value           nonuniform List<scalar> 
62
(
1168.91
1169.14
1166.04
1159.14
1148.88
1135.89
1120.74
1103.98
1085.98
1066.95
1046.81
1025.11
1000.7
975.03
947.247
918.775
892.514
868.926
845.098
819.531
794.915
778.41
776.749
747.708
688.497
627.656
566.271
505.025
443.389
380.065
313.108
277.769
274.311
267.267
249.793
570.75
508.642
447.194
387.187
328.18
268.016
206.015
154.224
599.921
593.444
572.158
540.169
485.242
453.52
457.646
458.689
449.514
444.042
445.612
450.86
459.009
469.531
477.703
481.559
484.242
488.253
497.956
)
;
    }
    atmosphere
    {
        type            calculated;
        value           nonuniform List<scalar> 
46
(
-5.72925
-5.72923
-5.72915
-5.72912
-5.72911
-5.72912
-5.72913
-5.72916
-5.7292
-5.72927
-5.72935
-5.72946
-5.72959
-5.72975
-5.72992
-5.73011
-5.7303
-5.73048
-5.73064
-5.73077
-5.73086
-5.73091
-5.7309
-5.73085
-5.73079
-5.7307
-5.73057
-5.73034
-5.73001
-5.72971
-5.72945
-5.72926
-5.72912
-5.72905
-5.72904
-5.72905
-5.72905
-5.72905
-5.72905
-5.72905
-5.72905
-5.72904
-5.72904
-5.72904
-5.72904
-5.7295
)
;
    }
    defaultFaces
    {
        type            empty;
    }
}


// ************************************************************************* //
