/*--------------------------------*- C++ -*----------------------------------*\
| =========                 |                                                 |
| \\      /  F ield         | OpenFOAM: The Open Source CFD Toolbox           |
|  \\    /   O peration     | Version:  2.3.0                                 |
|   \\  /    A nd           | Web:      www.OpenFOAM.org                      |
|    \\/     M anipulation  |                                                 |
\*---------------------------------------------------------------------------*/
FoamFile
{
    version     2.0;
    format      ascii;
    class       volScalarField;
    location    "1.25";
    object      p_rgh;
}
// * * * * * * * * * * * * * * * * * * * * * * * * * * * * * * * * * * * * * //

dimensions      [1 -1 -2 0 0 0 0];

internalField   nonuniform List<scalar> 
2268
(
1168.91
1169.14
1166.04
1159.14
1148.88
1135.89
1120.74
1103.98
1085.98
1066.95
1046.81
1025.11
1000.7
975.03
947.247
918.775
892.514
868.926
845.098
819.531
794.915
778.41
776.749
1167.96
1167.8
1164.84
1158.03
1147.89
1135.15
1120.42
1104.27
1087.14
1069.19
1050.3
1029.88
1006.4
980.351
952.053
921.624
890.985
863.246
837.354
812.02
789.347
775.726
776.241
1167.19
1166.72
1163.78
1156.94
1146.92
1134.51
1120.37
1105.11
1089.11
1072.47
1054.93
1035.82
1014.55
988.407
957.99
922.893
888.346
857.202
829.319
804.597
784.91
773.452
774.795
1166.77
1166.36
1163.53
1156.68
1146.75
1134.62
1121.01
1106.54
1091.53
1075.96
1059.41
1040.96
1019.71
993.248
959.973
922.464
885.563
852.501
822.907
799.907
782.658
772.582
772.265
1166.82
1166.71
1164.11
1157.31
1147.45
1135.52
1122.31
1108.44
1094.19
1079.4
1063.44
1045.15
1023.21
995.311
960.12
920.565
878.043
842.092
819.428
797.07
781.56
772.837
769.875
1167.43
1167.77
1165.44
1158.71
1148.87
1137.04
1124.11
1110.72
1097.07
1082.86
1067.26
1048.89
1026.07
996.584
959.341
912.805
855.967
829.914
817.518
793.514
780.068
773.189
767.038
1168.66
1169.54
1167.49
1160.78
1150.88
1139.06
1126.3
1113.28
1100.14
1086.43
1071.09
1052.52
1028.77
997.635
957.998
891.208
841.217
833.769
812.955
788.258
776.617
772.272
762.559
1170.53
1171.94
1170.07
1163.3
1153.25
1141.33
1128.65
1115.92
1103.21
1089.89
1074.71
1055.86
1031.2
998.542
950.591
859.134
836.257
843.684
808.226
780.589
768.728
767.05
754.424
599.921
593.444
572.158
540.169
485.242
453.52
457.646
458.689
449.514
444.042
445.612
450.86
459.009
469.531
477.703
481.559
484.242
488.253
497.956
596.311
589.531
572.681
543.953
466.312
430.163
434.092
429.978
418.779
432.964
449.081
456.016
459.419
469.096
477.463
481.782
484.46
489.604
501.208
593.531
588.107
575.613
549.185
446.691
427.062
417.661
415.973
406.827
396.301
432.471
457.414
466.5
475.768
483.141
484.817
488.139
494.431
502.092
592.057
590.151
580.556
553.294
437.512
463.551
444.96
443.239
425.976
389.886
383.292
434.436
467.467
478.766
488.523
492.189
491.643
492.365
501.243
591.578
595.108
586.846
495.551
425.572
453.824
442.523
441.893
443.116
419.691
315.58
326.728
413.592
480.845
494.43
495.55
490.199
486.841
498.679
589.899
602.337
594.004
453.555
411.523
446.244
443.639
446.829
442.565
425.569
302.357
296.288
298.109
434.466
501.836
501.046
476.689
435.314
490.441
586.509
608.581
603.31
550.224
479.304
407.043
444.425
454.575
392.629
412.116
321.258
291.94
278.847
329.911
446.584
412.353
266.409
204.071
321.284
591.577
619.326
594.405
548.497
425.076
225.155
300.201
456.542
236.19
280.524
352.893
361.243
336.637
215.747
178.777
171.991
177.89
167.295
152.665
1174.39
1176.34
1174.49
1167.43
1156.94
1144.72
1132.02
1119.6
1107.39
1094.51
1079.36
1059.92
1034
996.377
900.268
851.269
830.841
840.139
798.506
729.432
699.68
739.447
744.734
1181.89
1183.9
1181.51
1173.4
1161.82
1148.69
1135.48
1123.22
1111.68
1099.6
1084.92
1065.36
1038.85
1001.71
905.539
858.841
863.553
816.178
676.495
467.516
381.761
502.86
594.443
1191.62
1192.39
1188.91
1179.5
1166.65
1152.21
1137.98
1125.78
1115.39
1105.13
1092.11
1073.55
1046.98
1012.32
958.46
856.626
763.271
405.227
261.372
243.432
246.495
236.12
120.752
1203.94
1201.99
1196.82
1186.46
1172.7
1156.16
1139.07
1126.01
1117.3
1111.09
1102.14
1087.03
1061.54
1026.28
909.855
740.285
253.925
20.5449
11.3583
38.5357
106.878
118.772
36.4103
1220.12
1213.81
1206.68
1194.27
1160.52
1083.05
979.06
934.49
933.391
991.03
1016.63
1052.3
1000.51
730.224
369.836
194.187
42.3803
10.1807
7.45322
5.93592
3.0806
4.71948
38.9509
1113.84
983.583
897.675
754.894
634.269
488.162
333.217
277.04
207.733
282.09
347.711
392.343
304.99
91.2549
39.1576
32.4848
28.9227
17.9414
9.86609
4.77292
2.64191
2.46754
1.87979
312.161
171.461
131.676
161.527
290.458
418.157
172.895
65.9742
46.2507
38.5123
35.7142
44.3242
54.3736
52.2579
48.0803
56.0075
33.42
27.7006
21.1263
6.92218
2.57401
2.67026
1.69539
36.7912
37.9996
48.0844
188.315
405.325
424.655
330.786
95.685
40.3015
30.9758
26.2501
38.0859
60.6576
107.95
104.876
101.422
99.5421
33.68
6.74013
4.27407
2.72009
5.79537
5.41602
33.4085
46.2946
284.853
320.143
309.76
339.303
358.933
339.741
63.773
21.5535
9.35903
64.9928
110.315
109.587
108.903
61.8636
0.931615
5.5388
2.37934
0.814983
4.09518
5.62049
2.78083
27.3985
73.1997
135.845
43.2324
0.21217
13.3832
174.24
275.103
176.525
30.8463
-0.316363
37.9035
91.406
55.7887
1.05002
-0.0161198
0.158723
0.175568
0.26744
0.48021
0.921836
0.459999
0.55096
26.5789
38.8122
-0.0340447
-0.148232
-0.216332
-0.196706
8.62821
35.7952
46.9873
14.56
-0.840057
-0.0989324
1.21619
-0.059564
-0.0359386
0.00905275
0.072546
0.123405
0.203011
0.274075
0.332756
0.397312
0.442728
19.5544
19.3425
0.675785
-0.236062
-0.266038
-0.23849
-0.322526
-0.351093
-0.618682
-0.574225
-0.5529
-0.467126
-0.305561
-0.164378
-0.0880597
-0.0321845
0.0310314
0.0918287
0.160635
0.223086
0.276512
0.321278
0.354846
7.71797
3.38585
-0.240995
-0.253668
-0.291433
-0.332086
-0.38245
-0.406604
-0.413374
-0.409174
-0.424024
-0.372719
-0.283823
-0.193669
-0.120443
-0.0561567
0.00601743
0.0635207
0.120693
0.172718
0.217394
0.254969
0.284618
0.149505
-0.445409
-0.297276
-0.29843
-0.323112
-0.344846
-0.369484
-0.383648
-0.384338
-0.37709
-0.362363
-0.320146
-0.256167
-0.187801
-0.124807
-0.0667352
-0.0122496
0.0382115
0.086072
0.129724
0.168149
0.201239
0.228301
-0.192091
-0.377596
-0.30566
-0.311065
-0.326103
-0.3333
-0.343484
-0.349826
-0.34771
-0.335913
-0.313963
-0.277033
-0.227362
-0.173702
-0.121815
-0.0727214
-0.0262679
0.0172875
0.0581891
0.0957458
0.129438
0.158874
0.183734
-0.184268
-0.238653
-0.270492
-0.30041
-0.310622
-0.314039
-0.316619
-0.31657
-0.31077
-0.297155
-0.275038
-0.243087
-0.203352
-0.160412
-0.117597
-0.0761005
-0.0362952
0.00145712
0.0370029
0.0699325
0.0998719
0.126349
0.149324
-0.248828
-0.199605
-0.241863
-0.279607
-0.287847
-0.289328
-0.288781
-0.285376
-0.277377
-0.263445
-0.242953
-0.215671
-0.183121
-0.147887
-0.112038
-0.0766385
-0.0422519
-0.00929121
0.0219621
0.051189
0.0780555
0.102088
0.123372
-0.261476
-0.24915
-0.243973
-0.255776
-0.261128
-0.261519
-0.259792
-0.255162
-0.246598
-0.233301
-0.214949
-0.191672
-0.164535
-0.135111
-0.104757
-0.0743556
-0.0444829
-0.0155625
0.0120907
0.0381908
0.0624225
0.0843213
0.104021
-0.241663
-0.233422
-0.231874
-0.232177
-0.232971
-0.232666
-0.230523
-0.225691
-0.217472
-0.205393
-0.189325
-0.169498
-0.146659
-0.121833
-0.0959574
-0.0697454
-0.0437264
-0.0183059
0.00620162
0.0295301
0.0513824
0.0713098
0.0894369
-0.217759
-0.208095
-0.205046
-0.205198
-0.205447
-0.204766
-0.202414
-0.19773
-0.190201
-0.179522
-0.165646
-0.148795
-0.129497
-0.108447
-0.0863202
-0.063684
-0.0410074
-0.0186656
0.00304213
0.0238675
0.0435306
0.0616013
0.0781724
-0.196043
-0.186468
-0.181799
-0.180708
-0.180251
-0.179141
-0.176643
-0.172209
-0.165441
-0.156116
-0.144207
-0.129886
-0.113525
-0.0956133
-0.0766433
-0.0570684
-0.0372957
-0.0176659
0.00154271
0.0200984
0.0377388
0.0540555
0.0691091
-0.176697
-0.167798
-0.16203
-0.159598
-0.158217
-0.156564
-0.153898
-0.149708
-0.143647
-0.135521
-0.125293
-0.113082
-0.0991478
-0.0838395
-0.0675243
-0.0505637
-0.0333079
-0.0160624
0.000916666
0.0174146
0.0331864
0.0478486
0.0614348
-0.159412
-0.151503
-0.145228
-0.141705
-0.139437
-0.137236
-0.134381
-0.130386
-0.124921
-0.117797
-0.108959
-0.0984775
-0.0865331
-0.0733786
-0.0592902
-0.0445583
-0.0294817
-0.0143316
0.000659286
0.0152929
0.0293424
0.0424508
0.054632
-0.143895
-0.137057
-0.130776
-0.126562
-0.123606
-0.120942
-0.117908
-0.114053
-0.109061
-0.102744
-0.0950307
-0.085954
-0.0756373
-0.0642652
-0.0520473
-0.0392187
-0.0260327
-0.0127273
0.000488328
0.0134338
0.025901
0.037561
0.0484139
-0.129927
-0.124077
-0.118133
-0.113622
-0.110234
-0.107236
-0.104064
-0.100311
-0.0956887
-0.0900145
-0.0832063
-0.0752715
-0.0662925
-0.0564037
-0.0457659
-0.0345708
-0.0230319
-0.0113556
0.000272854
0.0116913
0.0227114
0.0330329
0.0426478
-0.117353
-0.112351
-0.106911
-0.102398
-0.09881
-0.0956188
-0.0923645
-0.0887022
-0.0843772
-0.0792213
-0.0731497
-0.0661531
-0.0582851
-0.0496428
-0.0403505
-0.0305658
-0.020468
-0.0102336
-2.47087e-05
0.0100154
0.0197189
0.0288146
0.0372907
-0.106028
-0.101734
-0.0968391
-0.0925083
-0.0888992
-0.0856382
-0.0823662
-0.0788026
-0.074733
-0.0700093
-0.0645506
-0.0583378
-0.0514051
-0.0438216
-0.0356842
-0.0271242
-0.0182906
-0.00933338
-0.000392101
0.00840851
0.016921
0.0249033
0.0323434
-0.0957918
-0.092089
-0.0877204
-0.0836715
-0.0801626
-0.0769308
-0.0737034
-0.0702603
-0.0664274
-0.0620798
-0.0571447
-0.0515996
-0.0454651
-0.0387898
-0.0316516
-0.0241593
-0.0164366
-0.00860971
-0.000797383
0.00689332
0.0143347
0.0213135
0.0278191
-0.0864807
-0.083274
-0.0793941
-0.0756745
-0.0723444
-0.0692175
-0.0660903
-0.0627949
-0.0591947
-0.055188
-0.050713
-0.0457473
-0.0403036
-0.0344153
-0.0281476
-0.0215898
-0.0148442
-0.0080161
-0.00120601
0.00549535
0.0119787
0.0180582
0.0237263
-0.0779441
-0.0751557
-0.0717246
-0.0683522
-0.0652504
-0.0622844
-0.0593039
-0.0561842
-0.0528209
-0.0491345
-0.0450748
-0.0406202
-0.0357842
-0.0305857
-0.025081
-0.0193437
-0.0134578
-0.00751118
-0.00158824
0.00423472
0.00986511
0.0151427
0.020063
-0.0700546
-0.0676209
-0.064599
-0.0615748
-0.0587308
-0.0559656
-0.0531689
-0.0502502
-0.0471327
-0.0437565
-0.0400835
-0.0360988
-0.0317952
-0.0272059
-0.0223741
-0.0173591
-0.0122303
-0.00706091
-0.00192162
0.00312366
0.00799702
0.0125615
0.0168158
-0.0627076
-0.0605776
-0.0579258
-0.0552405
-0.0526691
-0.0501312
-0.0475464
-0.0448511
-0.0419905
-0.0389208
-0.0356126
-0.0320512
-0.0282374
-0.0241945
-0.01996
-0.0155834
-0.0111224
-0.0066386
-0.00219123
0.00216628
0.00636866
0.0102997
0.0139607
-0.0558179
-0.0539511
-0.0516321
-0.0492694
-0.0469746
-0.0446803
-0.0423283
-0.0398753
-0.0372834
-0.0345206
-0.0315631
-0.0283989
-0.025032
-0.021482
-0.0177809
-0.013971
-0.0101013
-0.00622392
-0.00238869
0.00135969
0.00496677
0.00833471
0.0114665
-0.0493138
-0.0476779
-0.0456575
-0.0435974
-0.0415761
-0.0395344
-0.0374305
-0.0352358
-0.0329236
-0.0304686
-0.0278509
-0.0250625
-0.0221084
-0.0190066
-0.0157856
-0.0124824
-0.00913965
-0.00580174
-0.00251084
0.000695806
0.00377297
0.00663879
0.00929711
-0.0431323
-0.0417013
-0.0399487
-0.0381698
-0.0364151
-0.0346314
-0.032788
-0.030865
-0.028841
-0.0266936
-0.0244068
-0.0219751
-0.0194051
-0.0167143
-0.0139295
-0.0110841
-0.00821552
-0.00536193
-0.00255889
0.000162745
0.00276571
0.00518203
0.00741563
-0.0372166
-0.0359683
-0.0344542
-0.0329354
-0.0314416
-0.029922
-0.028351
-0.0267111
-0.0249809
-0.0231396
-0.0211737
-0.0190807
-0.0168698
-0.0145596
-0.012176
-0.0097496
-0.0073132
-0.00489953
-0.00253819
-0.000254369
0.00192162
0.00393394
0.00578587
-0.0315159
-0.0304265
-0.0291195
-0.0278438
-0.0266121
-0.0253686
-0.0240842
-0.0227369
-0.0213028
-0.0197617
-0.0181041
-0.0163323
-0.0144594
-0.0125058
-0.0104966
-0.00845957
-0.00642309
-0.00441445
-0.00245768
-0.000572753
0.00121623
0.00286422
0.00437354
-0.0260188
-0.025025
-0.0238852
-0.0228473
-0.0218961
-0.0209525
-0.0199716
-0.0189218
-0.0177775
-0.0165236
-0.015158
-0.0136905
-0.0121385
-0.0105236
-0.00886968
-0.00720074
-0.00554029
-0.00391006
-0.00232858
-0.00081083
0.000624856
0.00194335
0.00314604
-0.0206303
-0.0196964
-0.0187036
-0.0179351
-0.0173132
-0.0167032
-0.0160343
-0.0152704
-0.0143942
-0.0134039
-0.0123099
-0.0111299
-0.00988468
-0.00859548
-0.00728294
-0.00596654
-0.00466417
-0.00339166
-0.00216195
-0.000985101
0.000126236
0.00114636
0.0020753
-0.0154044
-0.0144906
-0.0136511
-0.0132307
-0.0129959
-0.0127228
-0.0123315
-0.0118071
-0.0111567
-0.0103976
-0.00955237
-0.00864428
-0.00769414
-0.00672001
-0.0057376
-0.00476058
-0.00380058
-0.00286729
-0.00196798
-0.0011078
-0.000293875
0.000457205
0.00114306
-0.0103252
-0.00981542
-0.00911576
-0.00899973
-0.00906772
-0.00901386
-0.00879579
-0.00843965
-0.00797348
-0.00742411
-0.00681886
-0.00618045
-0.00552565
-0.0048668
-0.00421319
-0.00357181
-0.00294758
-0.00234368
-0.00176162
-0.00120165
-0.000665619
-0.000160271
0.000322206
-0.00359558
-0.00556086
-0.00421939
-0.00394558
-0.00395945
-0.00392712
-0.00381832
-0.00365317
-0.00345195
-0.00323117
-0.00300568
-0.00278628
-0.00257942
-0.00238827
-0.00221335
-0.00205294
-0.00190329
-0.00175907
-0.00161395
-0.00146127
-0.00129571
-0.00111439
-0.000905951
741.879
732.753
719.67
695.969
564.863
521.743
509.218
464.372
75.173
73.6072
145.156
184.151
17.3376
32.622
135.218
183.494
7.51225
62.0585
93.8583
42.9181
1.83818
0.816757
0.783788
0.72943
0.867031
0.802541
0.754495
0.705704
0.756571
0.710124
0.671067
0.644213
0.674537
0.646727
0.61683
0.591415
0.569467
0.554058
0.532096
0.511977
0.453225
0.452014
0.446423
0.439273
0.369111
0.374253
0.375992
0.375829
0.300676
0.309278
0.315846
0.320689
0.245399
0.25632
0.266243
0.274537
0.20132
0.213736
0.225913
0.236501
0.166914
0.18012
0.193613
0.205523
0.140567
0.153979
0.167995
0.180427
0.120557
0.133774
0.147721
0.160054
0.105067
0.117777
0.131264
0.143128
0.0927208
0.104671
0.117386
0.128528
0.0824824
0.0935207
0.105283
0.115556
0.0735866
0.0836357
0.0943598
0.103706
0.0655589
0.0745995
0.0842662
0.0926856
0.0581512
0.066207
0.0748414
0.0823659
0.0512606
0.0583845
0.0660402
0.0727197
0.0448637
0.0511252
0.0578717
0.0637662
0.0389699
0.0444455
0.0503592
0.0555337
0.0335933
0.03836
0.0435185
0.0480386
0.0287383
0.0328697
0.037348
0.0412779
0.0243961
0.0279606
0.0318291
0.0352294
0.0205453
0.0236052
0.0269291
0.0298556
0.0171542
0.0197659
0.0226043
0.0251075
0.0141833
0.0163973
0.0188035
0.0209287
0.0115897
0.0134506
0.0154723
0.0172597
0.00932972
0.0108768
0.012556
0.0140416
0.00736193
0.00862964
0.0100038
0.0112196
0.00564859
0.00666805
0.00777072
0.00874611
0.00415475
0.00495489
0.0058173
0.00658008
0.00284941
0.00345766
0.00411034
0.00468948
0.00169987
0.00213813
0.00261276
0.00304628
0.00074423
0.00106118
0.00139573
0.00170064
-0.000676816
-0.000506386
-0.000324871
-0.000148937
611.94
618.785
570.325
341.391
177.241
171.277
183.689
228.953
155.623
169.598
338.726
363.399
359.852
222.472
157.91
165.177
212.338
199.38
145.138
307.763
303.526
279.323
158.26
164.898
183.414
138.004
88.4911
83.7887
52.6891
151.267
366.99
357.199
157.073
154.094
217.159
222.839
191.155
140.978
140.822
133.727
147.339
157.168
177.024
213.014
204.832
83.5862
43.4052
43.8986
43.2274
94.5904
187.723
109.418
174.53
227.318
232.213
172.042
139.175
168.001
132.142
165.001
215.463
217.869
215.815
167.252
41.2288
38.7751
41.0557
40.4792
40.7566
43.5459
95.9296
220.555
228.953
236.755
243.953
167.153
36.4656
61.5984
90.7126
143.625
151.159
80.2297
20.6436
26.2224
45.2746
68.7911
56.2945
39.2198
39.5306
93.5405
225.442
233.219
238.77
245.923
249.367
0.571683
0.374792
0.214392
0.168557
0.466905
1.82571
18.6433
24.59
71.8236
74.4163
76.7579
56.6089
38.7242
49.9352
217.965
218.218
143.286
248.434
249.789
0.642101
0.590384
0.576682
0.618987
0.912873
9.0345
25.5882
28.4446
45.8328
62.836
75.7624
78.7446
60.5529
41.0957
61.0777
68.3789
65.206
193.134
192.647
0.627588
0.601969
0.678748
0.95903
2.20675
2.02812
2.97202
5.28536
1.172
5.01048
31.7187
67.3224
67.3085
60.1705
5.39946
1.16924
19.5638
2.60774
0.139767
0.536489
0.494896
0.464137
0.448027
0.440913
0.434909
0.410209
0.389091
0.637326
0.858257
1.08924
7.78575
44.6728
42.587
6.59108
0.399516
5.79625
0.350101
0.261373
0.484019
0.456065
0.45568
0.447424
0.41443
0.395221
0.380807
0.380285
0.823388
1.53716
1.36112
0.312322
1.11934
2.98705
2.73735
0.361049
0.493185
0.393346
0.28541
0.427614
0.419899
0.447759
0.432047
0.418837
0.367275
0.340764
0.364134
1.27237
1.53371
1.1239
0.278709
0.255561
0.264575
0.293092
0.351445
0.342108
0.365521
0.30775
0.374039
0.367258
0.378278
0.403855
0.392568
0.348906
0.309835
0.289827
0.315407
0.385607
0.298365
0.270765
0.25763
0.260382
0.301647
0.675633
0.455231
0.440194
0.324242
0.326069
0.326923
0.326016
0.375862
0.370165
0.333533
0.287772
0.26945
0.248387
0.232621
0.224476
0.271355
0.577572
0.718259
0.71207
0.711939
0.645574
0.352958
0.376266
0.284722
0.290979
0.291607
0.316778
0.349691
0.341823
0.282969
0.254867
0.238852
0.28829
0.699393
0.783742
0.760792
0.744106
0.739218
0.549995
0.411317
0.426468
0.568167
0.249744
0.259536
0.26367
0.276549
0.330961
0.324775
0.316278
0.257179
0.232154
0.447795
0.814724
0.795405
0.776337
0.61384
0.19942
0.218813
0.564123
0.581263
0.569948
0.220424
0.23222
0.238627
0.240244
0.258179
0.308563
0.301208
0.29123
0.231119
0.252596
0.471449
0.549007
0.311929
0.135622
0.117691
0.117315
0.29276
0.565399
0.566742
0.195881
0.2085
0.21616
0.219396
0.218457
0.221096
0.276134
0.275448
0.216698
0.175788
0.153099
0.135517
0.120631
0.112175
0.105333
0.097848
0.0953009
0.44572
0.567608
0.175214
0.187802
0.195942
0.200042
0.200314
0.197096
0.190503
0.184223
0.179352
0.165673
0.145144
0.127709
0.115039
0.103718
0.0930799
0.0823565
0.120529
0.528673
0.574408
0.157499
0.169528
0.177636
0.182106
0.18303
0.180666
0.175568
0.16964
0.160446
0.14738
0.133127
0.121937
0.109695
0.0981567
0.0831103
0.0721156
0.0766242
0.199903
0.407971
0.141879
0.153112
0.160895
0.165437
0.166724
0.16495
0.160829
0.156462
0.1476
0.133816
0.120963
0.110027
0.0993856
0.0867127
0.0760908
0.0668397
0.0585899
0.053225
0.0599726
0.127757
0.138078
0.145403
0.149862
0.151354
0.150023
0.14609
0.140316
0.134384
0.12442
0.111189
0.0997557
0.0892621
0.079784
0.0714933
0.0647332
0.060591
0.0610254
0.208265
0.114736
0.124119
0.130926
0.135229
0.136857
0.135909
0.132573
0.127098
0.120442
0.112544
0.102681
0.0925092
0.0829926
0.0747984
0.0681036
0.0635624
0.0625363
0.161624
0.479662
0.102587
0.11106
0.117337
0.121449
0.123182
0.122596
0.119854
0.115193
0.108932
0.101839
0.0941804
0.0854571
0.0773337
0.0705011
0.0651816
0.0620658
0.0623101
0.45481
0.496694
0.091206
0.0988236
0.104584
0.108491
0.110313
0.11008
0.107935
0.104093
0.0988495
0.0925845
0.0859579
0.0790936
0.0724115
0.0667253
0.0625431
0.0602836
0.0605501
0.501192
0.513791
0.080576
0.0873984
0.0926623
0.0963603
0.0982558
0.0983614
0.0967995
0.0937596
0.089504
0.0843677
0.0787468
0.0731003
0.0678333
0.0634308
0.0603264
0.0589137
0.0596437
0.316111
0.53079
0.0707176
0.0768069
0.0815978
0.0850801
0.0870274
0.0874432
0.0864299
0.0841492
0.0808282
0.0767605
0.0722949
0.0678217
0.0637553
0.0605157
0.0585178
0.0581934
0.0602726
0.194061
0.546471
0.0616584
0.0670758
0.0714176
0.0746777
0.0766488
0.0773307
0.0768089
0.0752194
0.0727555
0.0696704
0.0662692
0.0628994
0.0599372
0.057779
0.0568342
0.0576058
0.0609568
0.334776
0.558478
0.0534129
0.0582172
0.0621352
0.0651668
0.0671292
0.0680222
0.0679188
0.0669332
0.0652282
0.0630193
0.0605706
0.0581883
0.0562121
0.0550094
0.0549721
0.0566037
0.0606497
0.465222
0.306807
0.0459746
0.0502213
0.0537408
0.0565384
0.0584582
0.0595027
0.059736
0.0592553
0.0581975
0.0567437
0.0551188
0.0535886
0.0524561
0.0520596
0.0527672
0.0550375
0.0688641
0.481621
0.291683
0.0393164
0.0430556
0.0462005
0.0487598
0.0506042
0.0517407
0.0522276
0.0521493
0.0516212
0.0507939
0.0498551
0.0490312
0.0485858
0.0488274
0.0501168
0.0529262
0.0580232
0.493461
0.297366
0.0333943
0.03667
0.0394614
0.0417788
0.0435175
0.0446896
0.0453504
0.0455751
0.0454617
0.0451338
0.0447445
0.0444771
0.044545
0.0452336
0.0468795
0.0499827
0.134526
0.52334
0.30356
0.0281522
0.0310023
0.0334581
0.0355301
0.0371352
0.0382913
0.0390524
0.0394882
0.0396837
0.0397381
0.0397694
0.0399102
0.0403368
0.0412771
0.0429526
0.0457077
0.3084
0.531826
0.293677
0.0235275
0.0259842
0.0281191
0.0299421
0.031388
0.0324806
0.033275
0.0338403
0.0342527
0.0345896
0.034932
0.0353713
0.0360464
0.0370587
0.0385317
0.0405175
0.330086
0.538822
0.189282
0.0194549
0.0215462
0.0233728
0.0249427
0.0262052
0.0271898
0.0279556
0.0285779
0.0291315
0.029672
0.0302501
0.0309238
0.0317673
0.0328255
0.0341428
0.0357144
0.190373
0.33613
0.0936042
0.0158712
0.017623
0.0191527
0.0204652
0.0215209
0.0223534
0.0230292
0.0236425
0.0242792
0.0249712
0.0257338
0.0265973
0.0276006
0.0287845
0.03019
0.0319564
0.0700261
0.0930173
0.070655
0.0127191
0.0141567
0.0154016
0.0164532
0.0172788
0.0179123
0.018431
0.0189695
0.0196447
0.0204436
0.0213515
0.0223806
0.0235734
0.0249598
0.0276932
0.0388065
0.0393729
0.0400278
0.049509
0.00994917
0.0110995
0.0120748
0.012865
0.0134377
0.0138206
0.0141006
0.0144936
0.0151749
0.0160552
0.0170792
0.0182468
0.0210547
0.0350656
0.0410618
0.0434517
0.0353154
0.036326
0.044417
0.00752116
0.00841624
0.00914405
0.00968005
0.00998253
0.0100599
0.00999132
0.0101476
0.0108349
0.0117943
0.0129184
0.0141646
0.031603
0.0357234
0.0375205
0.0399668
0.0299157
0.0318557
0.0392298
0.0054102
0.00609373
0.00661075
0.00691927
0.00695339
0.00665924
0.00602005
0.00572847
0.00649598
0.00759868
0.00883706
0.0108951
0.0198502
0.0290957
0.0313692
0.0273027
0.0216309
0.0267077
0.0334142
0.0036148
0.00414857
0.00451632
0.00466162
0.00446307
0.00364527
0.00176404
0.000384707
0.00161211
0.00313921
0.00469404
0.00655232
0.00763072
0.0098834
0.0116829
0.0128105
0.0157536
0.0208725
0.0268245
0.00210187
0.00254264
0.00284702
0.00293648
0.00258646
0.000961822
-0.00366864
-0.00705507
-0.0043132
-0.00184788
0.000152127
0.00192194
0.00364274
0.00529356
0.00686342
0.00837874
0.0102922
0.0141344
0.0188448
0.000108862
0.000462753
0.000724422
0.000794747
0.000367684
-0.00180954
-0.00917863
-0.0106186
-0.00673243
-0.00424573
-0.00252745
-0.0010269
0.000391661
0.00172161
0.00290373
0.00385322
0.00470214
0.0065591
0.00996194
)
;

boundaryField
{
    leftWall
    {
        type            fixedFluxPressure;
        gradient        uniform 0;
        value           nonuniform List<scalar> 
50
(
1168.91
1167.96
1167.19
1166.77
1166.82
1167.43
1168.66
1170.53
1174.39
1181.89
1191.62
1203.94
1220.12
1113.84
312.161
36.7912
33.4085
27.3985
26.5789
19.5544
7.71797
0.149505
-0.192091
-0.184268
-0.248828
-0.261476
-0.241663
-0.217759
-0.196043
-0.176697
-0.159412
-0.143895
-0.129927
-0.117353
-0.106028
-0.0957918
-0.0864807
-0.0779441
-0.0700546
-0.0627076
-0.0558179
-0.0493138
-0.0431323
-0.0372166
-0.0315159
-0.0260188
-0.0206303
-0.0154044
-0.0103252
-0.00359558
)
;
    }
    rightWall
    {
        type            fixedFluxPressure;
        gradient        uniform 0;
        value           nonuniform List<scalar> 
50
(
497.956
501.208
502.092
501.243
498.679
490.441
321.284
152.665
145.138
140.978
139.175
167.153
249.367
249.789
192.647
0.139767
0.261373
0.28541
0.30775
0.324242
0.376266
0.568167
0.569948
0.566742
0.567608
0.574408
0.407971
0.0599726
0.208265
0.479662
0.496694
0.513791
0.53079
0.546471
0.558478
0.306807
0.291683
0.297366
0.30356
0.293677
0.189282
0.0936042
0.070655
0.049509
0.044417
0.0392298
0.0334142
0.0268245
0.0188448
0.00996194
)
;
    }
    lowerWall
    {
        type            fixedFluxPressure;
        gradient        uniform 0;
        value           nonuniform List<scalar> 
62
(
1168.91
1169.14
1166.04
1159.14
1148.88
1135.89
1120.74
1103.98
1085.98
1066.95
1046.81
1025.11
1000.7
975.03
947.247
918.775
892.514
868.926
845.098
819.531
794.915
778.41
776.749
776.749
776.241
774.795
772.265
769.875
767.038
762.559
754.424
741.879
732.753
719.67
695.969
599.921
596.311
593.531
592.057
591.578
589.899
586.509
591.577
599.921
593.444
572.158
540.169
485.242
453.52
457.646
458.689
449.514
444.042
445.612
450.86
459.009
469.531
477.703
481.559
484.242
488.253
497.956
)
;
    }
    atmosphere
    {
        type            totalPressure;
        rho             rho;
        psi             none;
        gamma           1;
        p0              uniform 0;
        value           nonuniform List<scalar> 
46
(
-0.000210843
-0.000186625
-0.000106325
-7.75311e-05
-7.05417e-05
-7.73899e-05
-9.39779e-05
-0.000121595
-0.00016427
-0.000225925
-0.000309736
-0.000417821
-0.000550667
-0.000706575
-0.000881332
-0.00106816
-0.00125797
-0.00143992
-0.00160233
-0.00173381
-0.00182453
-0.00186732
-0.00185836
-0.00180867
-0.00174912
-0.00165641
-0.00153286
-0.00129757
-0.000970319
-0.000670532
-0.000414516
-0.000217494
-8.37818e-05
-5.47028e-06
0
0
0
0
0
0
0
0
0
0
0
0
)
;
    }
    defaultFaces
    {
        type            empty;
    }
}


// ************************************************************************* //
