/*--------------------------------*- C++ -*----------------------------------*\
| =========                 |                                                 |
| \\      /  F ield         | OpenFOAM: The Open Source CFD Toolbox           |
|  \\    /   O peration     | Version:  2.3.0                                 |
|   \\  /    A nd           | Web:      www.OpenFOAM.org                      |
|    \\/     M anipulation  |                                                 |
\*---------------------------------------------------------------------------*/
FoamFile
{
    version     2.0;
    format      ascii;
    class       volScalarField;
    location    "0.046";
    object      alpha.water;
}
// * * * * * * * * * * * * * * * * * * * * * * * * * * * * * * * * * * * * * //

dimensions      [0 0 0 0 0 0 0];

internalField   nonuniform List<scalar> 
725
(
1
1
1
0.999994
0.999966
1
1
1
0.999998
0.999978
1
1
1
1
0.999993
1
1
1
1.00008
1
1
1
1
1.00006
1
0.999934
0.999943
0.999946
0.999938
0.973473
0.871391
0.895322
0.995567
0.999899
0.999833
0.999854
0.999908
0.999949
0.999972
0.999988
1
1.00001
1.00001
1.00001
1.00001
1.00001
1.00001
1.00004
1
0.452164
0.00751076
0.00690982
0.00694424
0.325267
0.999956
0.999956
0.999943
0.999979
1.00001
1.00001
1.00001
1.00001
1.00001
1.00002
1.00003
0.999951
0.999796
0.999998
0.810514
0.0226242
0.999969
0.999972
0.987299
0.96638
0.972872
0.86995
0.911798
0.995227
0.999939
0.999936
0.999899
0.999871
0.999844
0.999841
0.999854
0.99987
0.999887
0.999904
0.999916
0.999928
0.999937
0.999958
0.999992
1
0.432272
0.00734624
0.00690894
0.00691121
0.327185
0.996846
0.999906
0.999806
0.999782
0.999779
0.999799
0.999826
0.999846
0.999863
0.999863
0.999847
0.999803
0.999724
0.999997
0.908999
0.115905
0.999995
0.985767
0.410798
0.291066
0.674893
0.856074
0.911017
0.984082
0.999927
0.999868
0.999899
0.999884
0.999849
0.999831
0.999827
0.999833
0.999844
0.999859
0.999876
0.999894
0.999913
0.999941
0.99999
1
0.43904
0.00691418
0.00690925
0.00693652
0.330461
0.971197
0.999914
0.999847
0.999789
0.999756
0.999715
0.999676
0.999645
0.99963
0.99962
0.999617
0.999596
0.999568
0.999997
0.985616
0.275292
0.995087
0.602261
0.041092
0.0201166
0.136425
0.723368
0.889081
0.954822
0.999958
0.999959
0.999956
0.999892
0.999864
0.999847
0.999835
0.999828
0.999829
0.999837
0.99985
0.999868
0.999891
0.999918
1.00002
1
0.417829
0.00691292
0.00691127
0.00691216
0.335593
0.937703
0.999916
0.999914
0.9998
0.99978
0.999755
0.999713
0.999662
0.999609
0.999557
0.999513
0.999466
0.999434
0.999999
0.984585
0.289233
0.926197
0.531391
0.0557963
0.0180293
0.137763
0.542055
0.745162
0.984626
0.999955
0.999955
0.999929
0.999899
0.999862
0.999818
0.99978
0.999764
0.999769
0.999788
0.999811
0.99984
0.99987
0.999912
1.00003
0.99966
0.483977
0.00691536
0.00691014
0.00690457
0.31839
0.919082
0.999811
0.999686
0.999766
0.999765
0.999757
0.999731
0.999687
0.999633
0.999572
0.99951
0.999448
0.999393
1
0.9855
0.294513
0.578217
0.117689
0.0304484
0.0150998
0.0286466
0.433622
0.595368
0.967224
0.999939
0.999906
0.999898
0.999894
0.99986
0.999809
0.999751
0.999711
0.999708
0.999735
0.999772
0.999811
0.999845
0.999843
1.00001
0.989055
0.524953
0.0112202
0.00690768
0.00689013
0.297552
0.913
0.999714
0.999655
0.999857
0.999769
0.999736
0.999709
0.999675
0.999629
0.999574
0.99951
0.999449
0.99939
1.00001
0.960428
0.177219
0.275636
0.101464
0.0961974
0.0131518
0.0242427
0.359234
0.590858
0.982479
0.999914
0.999886
0.999986
0.999897
0.999857
0.999796
0.999721
0.999671
0.999665
0.999695
0.99974
0.999788
0.999831
0.999791
1.00002
0.979865
0.520731
0.01034
0.00689771
0.00690061
0.290482
0.914361
0.999648
0.999603
0.999628
0.999758
0.999738
0.999707
0.999672
0.999627
0.999573
0.999508
0.999448
0.999388
1.00001
0.949511
0.141186
0.818273
0.297662
0.0342533
0.00458988
0.0110863
0.248573
0.584313
0.98588
0.999864
0.999805
0.999921
0.999895
0.999853
0.99978
0.999693
0.999638
0.99963
0.99966
0.999711
0.999766
0.999817
0.999811
0.999975
0.975996
0.512119
0.00715351
0.00692799
0.00691026
0.282107
0.912185
0.999678
0.999592
0.99974
0.999768
0.999746
0.999713
0.999676
0.999628
0.999574
0.999508
0.999447
0.999385
0.999993
0.927075
0.12922
0.855489
0.274176
0.00494061
0.00383334
0.00629472
0.164814
0.58684
0.986804
0.999837
0.999694
0.999913
0.999892
0.999847
0.999763
0.999669
0.999612
0.999602
0.999632
0.999686
0.999745
0.999793
0.999957
0.999985
0.975454
0.515191
0.00716315
0.00699708
0.00692656
0.273842
0.913968
0.999804
0.999721
0.999804
0.99979
0.999759
0.999727
0.999688
0.999637
0.999579
0.999511
0.999449
0.999384
1.00001
0.908456
0.111453
0.875394
0.164819
0.00398817
0.00350371
0.00436321
0.0644184
0.551181
0.99425
0.999956
0.99994
0.999893
0.999888
0.999839
0.999746
0.99965
0.999593
0.999582
0.99961
0.999664
0.999726
0.999793
0.999829
0.999991
0.979734
0.549848
0.0149407
0.00702874
0.00697974
0.266449
0.910415
0.999937
0.999843
0.999896
0.999819
0.999768
0.99973
0.99969
0.999638
0.99958
0.999515
0.999452
0.999386
1.00005
0.898512
0.0910783
1
1
1
1.00005
1.00001
1
1
1
1.00008
1.00004
1
1
1
1
1.00002
1
1
1
0.999999
1.00002
1
1
1
0.999999
1.00001
0.986745
0.329522
0.0035856
0.00350318
0.00360851
0.0817835
0.492327
0.988479
0.999963
0.999918
0.999982
0.999864
0.999794
0.999697
0.999619
0.999577
0.999571
0.999597
0.999648
0.999706
0.999781
0.999891
0.999997
0.992585
0.558239
0.0310053
0.00704594
0.00703389
0.246476
0.91391
1
1.00004
0.999992
0.999853
0.99978
0.999736
0.999692
0.999638
0.999579
0.999518
0.999454
0.99939
1
0.853553
0.0402388
0.999277
0.540962
0.00355254
0.00354537
0.00363143
0.00364152
0.384947
0.999973
0.99996
0.999892
0.999874
0.999824
0.999744
0.999675
0.99964
0.999635
0.999652
0.999683
0.999721
0.999762
0.999796
0.999906
1
0.988718
0.576365
0.0328145
0.00704703
0.00704722
0.221343
0.878606
0.999979
0.999954
0.999888
0.999823
0.999768
0.999716
0.999661
0.999606
0.999554
0.999509
0.999459
0.999419
0.999996
0.800526
0.0106101
1
0.71682
0.00354498
0.00354407
0.003545
0.00354574
0.342203
0.999973
0.999955
0.999869
0.999841
0.999774
0.999721
0.999711
0.999726
0.999752
0.999779
0.999801
0.999819
0.999835
0.999858
0.999922
0.999999
0.997366
0.62531
0.0324609
0.00760482
0.00704444
0.196313
0.886134
0.999907
0.999856
0.999814
0.999781
0.999735
0.999694
0.999662
0.999644
0.999629
0.999617
0.999595
0.999557
0.999991
0.861102
0.0557777
1
0.80446
0.037919
0.00354402
0.00354406
0.0035446
0.221121
0.999973
0.99996
0.999853
0.999803
0.999766
0.999778
0.999803
0.999831
0.999854
0.99987
0.999881
0.999886
0.999892
0.999903
0.999947
1.00001
1
0.627427
0.03471
0.0078116
0.00705098
0.183975
0.883429
0.999876
0.999869
0.999823
0.9998
0.999793
0.999801
0.999811
0.999823
0.999825
0.999817
0.999784
0.999706
0.999991
0.964242
0.242094
1
0.827613
0.0573679
0.00354402
0.00354402
0.00354613
0.204298
0.990494
0.999964
0.999877
0.999843
0.999885
0.999944
1.00001
1.00001
1.00001
1
0.999994
0.999992
0.99999
1.00001
1.00002
1.00004
1
0.635117
0.0381436
0.00795784
0.0076748
0.167698
0.902839
0.99988
0.999876
1.00002
1.00002
1.00002
1.00002
1.00002
0.999991
0.999964
0.999944
0.999909
0.999774
0.999991
0.981902
0.277799
)
;

boundaryField
{
    AirInlet
    {
        type            fixedValue;
        value           uniform 0;
    }
    WaterInlet
    {
        type            fixedValue;
        value           uniform 1;
    }
    ChannelWall
    {
        type            zeroGradient;
    }
    Outlet
    {
        type            inletOutlet;
        inletValue      uniform 0;
        value           nonuniform List<scalar> 
15
(
0
0.115905
0.275292
0.289233
0.294513
0
0
0
0
0
0
0
0.0557777
0.242094
0.277799
)
;
    }
    FrontAndBack
    {
        type            empty;
    }
}


// ************************************************************************* //
