/*--------------------------------*- C++ -*----------------------------------*\
| =========                 |                                                 |
| \\      /  F ield         | OpenFOAM: The Open Source CFD Toolbox           |
|  \\    /   O peration     | Version:  2.3.0                                 |
|   \\  /    A nd           | Web:      www.OpenFOAM.org                      |
|    \\/     M anipulation  |                                                 |
\*---------------------------------------------------------------------------*/
FoamFile
{
    version     2.0;
    format      ascii;
    class       volScalarField;
    location    "0.046";
    object      p;
}
// * * * * * * * * * * * * * * * * * * * * * * * * * * * * * * * * * * * * * //

dimensions      [1 -1 -2 0 0 0 0];

internalField   nonuniform List<scalar> 
725
(
-1198.38
-1271.64
-1243.41
-1318.58
-1452.44
-1204.79
-1270.86
-1240.43
-1305.08
-1418.35
-1207.65
-1269.99
-1236.46
-1279.72
-1350.37
-1207.56
-1269.39
-1232.7
-1246.3
-1256.46
-1204.44
-1269.25
-1228.82
-1205.13
-1143.44
-1579.58
-2679.51
-2415.92
-1764.2
-1752.98
-1733.91
-1744.81
-1690.56
-1616.79
-1568.51
-1538.06
-1521.81
-1512.57
-1508.02
-1506.27
-1506.1
-1507.01
-1508.78
-1511.23
-1514.91
-1518.78
-1527.43
-1526.78
-1502.82
-1480.1
-1548.47
-1545.07
-1544.4
-1548.49
-1437.79
-1477.8
-1508.76
-1524.55
-1535.52
-1542.56
-1547.2
-1548.82
-1555.09
-1550.11
-1571.99
-1559.6
-1683.89
-1642.37
-2793.38
58.4805
-1476.02
-2866.85
-2599.8
-1888.27
-1783.12
-1733.54
-1761.19
-1649.98
-1604.22
-1563.25
-1534.75
-1519.73
-1511.98
-1508.15
-1506.68
-1506.63
-1507.55
-1509.27
-1511.69
-1515.39
-1519.53
-1529.57
-1536.71
-1561.64
-1563.12
-1550.66
-1545.26
-1543.69
-1537.06
-1425.71
-1479.15
-1512.39
-1527.37
-1537.63
-1544.02
-1548.22
-1549.62
-1555.49
-1550.11
-1570.06
-1550.38
-1643.74
-1564.17
-2058.18
-325.666
-1209.62
-3325.17
-2345.96
-1487.36
-1803.74
-1654.25
-1773.5
-1662.37
-1607.02
-1559.22
-1529.76
-1516.35
-1510.22
-1507.25
-1506.26
-1506.46
-1507.47
-1509.2
-1511.57
-1515.22
-1519.42
-1531.07
-1546
-1635.84
-1673.45
-1551.02
-1545.69
-1543.57
-1499.07
-1458.28
-1490.97
-1519.45
-1531.17
-1539.52
-1544.73
-1548.48
-1549.66
-1555.21
-1548.93
-1566.02
-1535.52
-1576.65
-1410.73
-1026.95
-647.063
-662.181
-3536.32
-1347.45
-932.906
-1097.72
-1492.88
-1875.8
-1595.82
-1603.93
-1552.85
-1522.56
-1511.48
-1507.62
-1505.95
-1505.61
-1506.11
-1507.24
-1508.96
-1511.18
-1514.58
-1518.36
-1530.26
-1543.9
-1668.36
-1773.15
-1552.57
-1547.18
-1544.69
-1460.39
-1493.98
-1510.93
-1528.95
-1536.46
-1542.34
-1546.47
-1549.48
-1549.97
-1554.9
-1547.53
-1562.63
-1524.66
-1545.41
-1333.59
-720.02
-592.163
-75.8483
-6581.56
-1407.84
-871.074
-1048.22
-1269.1
-2004.41
-1758.64
-1598.03
-1544.19
-1514.08
-1505.69
-1504.35
-1504.23
-1504.68
-1505.59
-1506.88
-1508.59
-1510.57
-1513.59
-1516.49
-1527.3
-1529.11
-1578.38
-1525.13
-1562.94
-1549.05
-1543.61
-1471.38
-1518.49
-1530.45
-1541.36
-1542.64
-1545.61
-1548.22
-1550.38
-1550.42
-1554.83
-1547.1
-1560.19
-1521.58
-1546.33
-1349.24
-952.85
-616.031
1704.16
4075.39
-1188.17
-830.453
-838.893
-1282.12
-887.264
-1731.42
-1578.26
-1536.24
-1508.22
-1502.34
-1502.31
-1503.11
-1504.08
-1505.22
-1506.59
-1508.31
-1510.06
-1512.95
-1514.89
-1525.71
-1541.89
-1601.07
-1212.1
-1559.41
-1542.23
-1540.92
-1503.83
-1526.48
-1536.71
-1546.77
-1545.96
-1547.67
-1548.77
-1550.99
-1550.09
-1555.43
-1545.97
-1562.03
-1521.94
-1562.09
-1378.59
-1206.32
-331.882
12104.1
4159.87
1012.96
-810.77
-824.523
-1321.76
-892.489
-1749.09
-1571.34
-1532.91
-1502.96
-1501.05
-1501.57
-1502.71
-1503.85
-1505.07
-1506.48
-1508.21
-1509.89
-1512.68
-1514.34
-1523.3
-1545.36
-1621.63
-1491.43
-1548.87
-1540.74
-1539.93
-1515.62
-1532.24
-1539.81
-1547.1
-1539.82
-1548.11
-1549.25
-1551.17
-1550.03
-1555.53
-1545.74
-1562.49
-1522.52
-1568.96
-1394.8
-1318.08
-177.15
-3846.1
3780.68
-986.195
-778.984
-809.344
-1286.01
-913.309
-1703.52
-1566.21
-1529.29
-1503.22
-1499.86
-1500.84
-1502.3
-1503.62
-1504.93
-1506.38
-1508.1
-1509.72
-1512.38
-1513.79
-1522.81
-1545.69
-1641.43
-1904.17
-1526.72
-1541.3
-1538.94
-1529.82
-1540.5
-1543.11
-1548.76
-1545.16
-1549.13
-1549.7
-1551.52
-1550.17
-1555.58
-1545.71
-1562.78
-1523.61
-1576.5
-1413.99
-1412.02
-139.872
-3139.59
2397.39
-771.164
-772.705
-799.646
-1183.14
-959.867
-1688.14
-1563.39
-1522.14
-1501.22
-1498.69
-1500.11
-1501.88
-1503.38
-1504.79
-1506.27
-1507.98
-1509.54
-1512.04
-1513.08
-1515.81
-1543.29
-1624.31
-2009.72
-1529.81
-1540.12
-1538.11
-1541.67
-1549.67
-1546.4
-1550.36
-1546.72
-1549.79
-1550.07
-1551.67
-1550.25
-1555.57
-1545.77
-1563.03
-1525.05
-1584.34
-1435.16
-1454.24
-144.209
-2946.92
433.621
-756.538
-770.345
-791.88
-891.347
-1164.92
-1689.34
-1565.14
-1527.17
-1498.68
-1497.51
-1499.38
-1501.46
-1503.13
-1504.62
-1506.16
-1507.83
-1509.34
-1511.63
-1512.5
-1519.23
-1537.81
-1586.14
-1775.49
-1570.14
-1538.09
-1537.69
-1547.6
-1559.98
-1550.23
-1552.01
-1548.15
-1550.39
-1550.44
-1551.77
-1550.37
-1555.44
-1546
-1563.06
-1526.91
-1591.98
-1456.74
-1539.03
-149.28
-1486.66
-1528.98
-1549.54
-1637.35
-1772.38
-1489.95
-1526.29
-1542.7
-1601.17
-1558.41
-1490.21
-1524.19
-1535.6
-1566.78
-1402.17
-1487.48
-1523.07
-1529.95
-1540.45
-1305.16
-1481.52
-1522.99
-1526.86
-1526.55
-1267.96
-2806.77
-1914.49
-804.849
-770.95
-787.664
-966.292
-1339.19
-1715.25
-1574.53
-1522
-1497.29
-1494.28
-1497.32
-1500.27
-1502.42
-1504.16
-1505.83
-1507.45
-1508.84
-1510.44
-1510.73
-1513.75
-1518.32
-1464.41
-1302.78
-1603.34
-1537.45
-1537.17
-1554.39
-1582.02
-1565.66
-1557.02
-1551.85
-1552.06
-1551.54
-1552
-1550.96
-1554.83
-1547.21
-1562.66
-1533.06
-1612.3
-1520.15
-1893.81
-77.3054
-1794.01
-924.892
-819.023
-784.076
-790.25
-795.252
-1085.3
-1575.95
-1542.77
-1506.75
-1489
-1489.29
-1494.18
-1498.32
-1501.62
-1504.23
-1506.21
-1507.76
-1508.78
-1509.45
-1508.11
-1506.7
-1498.59
-1459.03
-1464.99
-1601.15
-1534.4
-1535.77
-1554.66
-1643.06
-1589.49
-1567.22
-1558.52
-1555.15
-1553.28
-1552.91
-1551.28
-1554.95
-1546.87
-1563.95
-1536.72
-1634.62
-1595.34
-2431.78
43.8849
-1395.87
-421.697
-806.961
-786.577
-791.644
-794.837
-1093.76
-1457.19
-1497.81
-1488.36
-1480.26
-1484.75
-1491.42
-1497.12
-1501.09
-1503.92
-1506.01
-1507.52
-1508.34
-1508.43
-1506.07
-1501.57
-1488.86
-1455.55
-1488.66
-1609.47
-1536.66
-1534.42
-1554.62
-1665.31
-1601.66
-1575.03
-1562.81
-1557.44
-1554.41
-1553.4
-1551.62
-1555.21
-1547.24
-1563.92
-1535.32
-1627.3
-1577.15
-2244.71
-132.522
-1159.59
-161.454
-801.13
-787.986
-792.12
-795.988
-942.986
-1466.32
-1475.69
-1474.59
-1473.16
-1481.28
-1489.88
-1496.22
-1500.66
-1503.74
-1505.92
-1507.41
-1508.09
-1507.76
-1504.64
-1498.26
-1483.8
-1445.44
-1513.8
-1618.98
-1536.79
-1533.45
-1553.18
-1639.14
-1601.51
-1579.09
-1566.1
-1559.38
-1555.7
-1554.18
-1551.99
-1555.31
-1546.91
-1562.69
-1528.51
-1590.36
-1465.47
-1317.23
-682.769
-1064.43
-141.416
-786.889
-789.138
-791.755
-794.052
-928.474
-1464.41
-1465.81
-1466.99
-1468.88
-1478.77
-1488.02
-1494.83
-1499.75
-1503.09
-1505.44
-1507.02
-1507.66
-1507.19
-1503.64
-1496.5
-1482.89
-1443.93
-1520.44
-1621.27
-1536.44
-1532.95
-1552.28
-1609.36
-1597.69
-1581.51
-1567.49
-1559.77
-1555.48
-1553.66
-1551.28
-1554.77
-1545.95
-1561.14
-1521.4
-1558.12
-1370.24
-861.401
-618.496
)
;

boundaryField
{
    AirInlet
    {
        type            calculated;
        value           nonuniform List<scalar> 5(3266.43 29628.2 -6293.74 -19036.7 942.316);
    }
    WaterInlet
    {
        type            calculated;
        value           nonuniform List<scalar> 10(-1198.38 -1204.78 -1207.64 -1207.55 -1204.43 -1486.67 -1489.97 -1490.22 -1487.48 -1481.52);
    }
    ChannelWall
    {
        type            calculated;
        value           nonuniform List<scalar> 
110
(
-1204.47
-1269.28
-1228.86
-1205.16
-1143.48
-1486.63
-1528.95
-1549.5
-1637.31
-1772.34
-1481.55
-1523.02
-1526.9
-1526.58
-1268.01
-1064.47
-141.453
-786.891
-789.138
-791.756
-794.052
-928.484
-1464.45
-1465.85
-1467.04
-1468.92
-1478.82
-1488.06
-1494.88
-1499.79
-1503.14
-1505.49
-1507.06
-1507.71
-1507.24
-1503.69
-1496.55
-1482.94
-1443.98
-1520.46
-1621.27
-1536.45
-1532.95
-1552.29
-1609.4
-1597.73
-1581.55
-1567.54
-1559.82
-1555.52
-1553.71
-1551.32
-1554.82
-1546
-1561.18
-1521.45
-1558.17
-1370.28
-861.445
-618.508
-1198.36
-1271.61
-1243.37
-1318.54
-1452.39
-1579.54
-2679.47
-2415.87
-1764.15
-1752.93
-1733.87
-1744.77
-1690.52
-1616.75
-1568.47
-1538.01
-1521.77
-1512.52
-1507.98
-1506.22
-1506.05
-1506.97
-1508.73
-1511.19
-1514.87
-1518.74
-1527.39
-1526.74
-1502.77
-1480.08
-1548.47
-1545.07
-1544.4
-1548.47
-1437.75
-1477.75
-1508.72
-1524.51
-1535.48
-1542.51
-1547.16
-1548.78
-1555.05
-1550.07
-1571.94
-1559.55
-1683.84
-1642.32
-2793.34
58.4815
)
;
    }
    Outlet
    {
        type            calculated;
        value           nonuniform List<scalar> 
15
(
-4.4145e-05
-0.0154669
-0.0760728
-0.0895971
-0.117292
-0.0225072
-0.00750051
-0.0578591
-0.0741705
-0.0103071
-0.000583695
-0.000671985
-0.0431242
-2.21913
-0.260934
)
;
    }
    FrontAndBack
    {
        type            empty;
    }
}


// ************************************************************************* //
