/*--------------------------------*- C++ -*----------------------------------*\
| =========                 |                                                 |
| \\      /  F ield         | OpenFOAM: The Open Source CFD Toolbox           |
|  \\    /   O peration     | Version:  2.3.0                                 |
|   \\  /    A nd           | Web:      www.OpenFOAM.org                      |
|    \\/     M anipulation  |                                                 |
\*---------------------------------------------------------------------------*/
FoamFile
{
    version     2.0;
    format      ascii;
    class       volScalarField;
    location    "0.025";
    object      T;
}
// * * * * * * * * * * * * * * * * * * * * * * * * * * * * * * * * * * * * * //

dimensions      [0 0 0 1 0 0 0];

internalField   nonuniform List<scalar> 
12225
(
6.66573e-11
6.62356e-11
6.61476e-11
6.61307e-11
6.61828e-11
6.63592e-11
6.67692e-11
6.76109e-11
6.92205e-11
7.21438e-11
7.72467e-11
8.59107e-11
1.0043e-10
1.24897e-10
1.67311e-10
2.44814e-10
3.97925e-10
7.3783e-10
6.57512e-11
6.58434e-11
6.59608e-11
6.60432e-11
6.61504e-11
6.63607e-11
6.67961e-11
6.76635e-11
6.93076e-11
7.22835e-11
7.74675e-11
8.62486e-11
1.00912e-10
1.25486e-10
1.67713e-10
2.43774e-10
3.89945e-10
6.90669e-10
6.62877e-11
6.62577e-11
6.62504e-11
6.62614e-11
6.63308e-11
6.65248e-11
6.69647e-11
6.78634e-11
6.95791e-11
7.2689e-11
7.80992e-11
8.72301e-11
1.02376e-10
1.27481e-10
1.69864e-10
2.4409e-10
3.80036e-10
6.34738e-10
6.6445e-11
6.63824e-11
6.63649e-11
6.63881e-11
6.64782e-11
6.67011e-11
6.71885e-11
6.81732e-11
7.00448e-11
7.34278e-11
7.9292e-11
8.9131e-11
1.05291e-10
1.31644e-10
1.7501e-10
2.48008e-10
3.73837e-10
5.88898e-10
6.66903e-11
6.66471e-11
6.6638e-11
6.66677e-11
6.67714e-11
6.70252e-11
6.75793e-11
6.86989e-11
7.0827e-11
7.46686e-11
8.13052e-11
9.2366e-11
1.1032e-10
1.39031e-10
1.84839e-10
2.58461e-10
3.77358e-10
5.64581e-10
6.70533e-11
6.70264e-11
6.70257e-11
6.7063e-11
6.71874e-11
6.74908e-11
6.81517e-11
6.94869e-11
7.20241e-11
7.65983e-11
8.44742e-11
9.75116e-11
1.18418e-10
1.51179e-10
2.01809e-10
2.79477e-10
3.97396e-10
5.70798e-10
6.75789e-11
6.75614e-11
6.75699e-11
6.76199e-11
6.77764e-11
6.81556e-11
6.89805e-11
7.06479e-11
7.38185e-11
7.9532e-11
8.93441e-11
1.05491e-10
1.31105e-10
1.70519e-10
2.29734e-10
3.16965e-10
4.42758e-10
6.18206e-10
6.81908e-11
6.81779e-11
6.81952e-11
6.82628e-11
6.84611e-11
6.89379e-11
6.99753e-11
7.2075e-11
7.60733e-11
8.32812e-11
9.56442e-11
1.15913e-10
1.47828e-10
1.96332e-10
2.67831e-10
3.704e-10
5.13572e-10
7.06926e-10
6.8861e-11
6.88522e-11
6.88781e-11
6.89668e-11
6.92153e-11
6.98098e-11
7.11039e-11
7.37281e-11
7.8734e-11
8.77671e-11
1.03255e-10
1.28591e-10
1.68296e-10
2.28152e-10
3.15297e-10
4.38196e-10
6.06247e-10
8.2863e-10
6.97641e-11
6.97599e-11
6.97969e-11
6.99164e-11
7.02411e-11
7.10142e-11
7.27004e-11
7.61297e-11
8.26882e-11
9.45439e-11
1.14881e-10
1.48106e-10
1.99995e-10
2.77733e-10
3.8985e-10
5.45959e-10
7.56199e-10
1.03023e-09
7.09826e-11
7.09841e-11
7.10368e-11
7.1203e-11
7.16464e-11
7.27007e-11
7.50074e-11
7.9718e-11
8.87604e-11
1.0515e-10
1.33305e-10
1.79293e-10
2.50959e-10
3.57865e-10
5.11016e-10
7.2234e-10
1.0039e-09
1.36686e-09
7.26287e-11
7.26377e-11
7.27148e-11
7.2955e-11
7.35909e-11
7.51061e-11
7.8438e-11
8.52806e-11
9.84811e-11
1.22502e-10
1.63865e-10
2.31486e-10
3.36764e-10
4.93368e-10
7.16657e-10
1.02277e-09
1.42743e-09
1.9446e-09
7.48542e-11
7.48745e-11
7.4992e-11
7.53558e-11
7.63193e-11
7.86277e-11
8.37425e-11
9.43253e-11
1.14877e-10
1.52473e-10
2.1745e-10
3.23871e-10
4.89557e-10
7.3556e-10
1.08504e-09
1.56163e-09
2.18745e-09
2.98109e-09
7.7865e-11
7.79035e-11
7.8092e-11
7.86749e-11
8.02273e-11
8.39821e-11
9.23886e-11
1.09956e-10
1.44369e-10
2.07764e-10
3.17885e-10
4.98767e-10
7.8058e-10
1.1984e-09
1.78994e-09
2.59238e-09
3.6389e-09
4.95506e-09
8.19382e-11
8.20089e-11
8.23294e-11
8.33249e-11
8.60055e-11
9.25771e-11
1.07496e-10
1.3908e-10
2.01667e-10
3.1804e-10
5.21568e-10
8.57249e-10
1.38092e-09
2.15622e-09
3.24952e-09
4.72346e-09
6.63003e-09
9.00406e-09
8.74425e-11
8.75751e-11
8.81566e-11
8.99821e-11
9.49783e-11
1.07454e-10
1.36301e-10
1.98439e-10
3.23455e-10
5.58833e-10
9.74325e-10
1.66351e-09
2.74076e-09
4.33286e-09
6.56643e-09
9.55321e-09
1.33758e-08
1.80753e-08
9.48571e-11
9.51167e-11
9.62477e-11
9.98594e-11
1.09971e-10
1.35847e-10
1.97172e-10
3.32352e-10
6.0998e-10
1.14173e-09
2.0926e-09
3.68262e-09
6.17503e-09
9.84993e-09
1.49682e-08
2.17345e-08
3.02677e-08
4.05812e-08
1.04055e-10
1.04571e-10
1.0684e-10
1.14263e-10
1.3567e-10
1.92232e-10
3.30631e-10
6.45151e-10
1.30923e-09
2.6115e-09
4.9829e-09
8.99476e-09
1.53106e-08
2.45918e-08
3.73822e-08
5.40098e-08
7.45321e-08
9.87304e-08
1.13746e-10
1.14697e-10
1.18953e-10
1.33274e-10
1.75995e-10
2.93053e-10
5.90303e-10
1.29073e-09
2.82046e-09
5.91069e-09
1.1673e-08
2.15769e-08
3.72662e-08
6.02244e-08
9.14074e-08
1.31011e-07
1.78449e-07
2.32505e-07
1.22881e-10
1.24448e-10
1.31583e-10
1.56279e-10
2.3249e-10
4.49224e-10
1.02138e-09
2.42332e-09
5.60307e-09
1.22525e-08
2.50156e-08
4.74038e-08
8.31866e-08
1.35294e-07
2.04748e-07
2.9029e-07
3.88828e-07
4.9628e-07
1.31137e-10
1.33477e-10
1.44325e-10
1.82907e-10
3.05954e-10
6.69027e-10
1.66619e-09
4.21237e-09
1.02322e-08
2.33319e-08
4.93765e-08
9.62927e-08
1.72262e-07
2.82319e-07
4.2538e-07
5.94426e-07
7.7928e-07
9.69658e-07
1.38301e-10
1.41516e-10
1.56667e-10
2.11913e-10
3.93603e-10
9.48889e-10
2.53444e-09
6.7569e-09
1.71917e-08
4.09386e-08
9.01864e-08
1.82026e-07
3.33673e-07
5.5234e-07
8.26927e-07
1.13322e-06
1.44532e-06
1.7434e-06
1.44278e-10
1.48393e-10
1.68067e-10
2.41399e-10
4.89287e-10
1.27161e-09
3.58884e-09
1.00194e-08
2.66508e-08
6.63898e-08
1.52977e-07
3.21818e-07
6.08983e-07
1.0222e-06
1.51574e-06
2.02242e-06
2.49027e-06
2.89381e-06
1.49072e-10
1.5404e-10
1.78066e-10
2.69312e-10
5.85087e-10
1.60999e-09
4.74741e-09
1.3796e-08
3.82671e-08
9.97906e-08
2.41537e-07
5.33899e-07
1.05378e-06
1.80607e-06
2.63723e-06
3.39045e-06
3.99325e-06
4.44228e-06
1.52767e-10
1.58472e-10
1.86361e-10
2.93921e-10
6.73376e-10
1.93399e-09
5.90301e-09
1.77466e-08
5.11316e-08
1.39396e-07
3.5533e-07
8.31975e-07
1.73661e-06
3.07817e-06
4.3773e-06
5.34233e-06
5.95682e-06
6.31171e-06
1.55515e-10
1.61808e-10
1.92878e-10
3.14202e-10
7.48699e-10
2.21898e-09
6.95408e-09
2.14882e-08
6.39537e-08
1.81547e-07
4.871e-07
1.2157e-06
2.72976e-06
5.12532e-06
6.94399e-06
7.88763e-06
8.24782e-06
8.30788e-06
1.57439e-10
1.64141e-10
1.97612e-10
3.29624e-10
8.07792e-10
2.44842e-09
7.8236e-09
2.46858e-08
7.53811e-08
2.21326e-07
6.21965e-07
1.65717e-06
4.07498e-06
8.46886e-06
1.04806e-05
1.0827e-05
1.0567e-05
1.0155e-05
1.58743e-10
1.65875e-10
2.01151e-10
3.41027e-10
8.51662e-10
2.62061e-09
8.48558e-09
2.71665e-08
8.44817e-08
2.54264e-07
7.40853e-07
2.09141e-06
5.6942e-06
1.4143e-05
1.48061e-05
1.36534e-05
1.25165e-05
1.15976e-05
1.58186e-10
1.65742e-10
2.0228e-10
3.47011e-10
8.77986e-10
2.72976e-09
8.91864e-09
2.88263e-08
9.06913e-08
2.77217e-07
8.26051e-07
2.42038e-06
7.17537e-06
2.42266e-05
1.87595e-05
1.5625e-05
1.37826e-05
1.25034e-05
1.60928e-10
1.67441e-10
2.04091e-10
3.51405e-10
8.94017e-10
2.79272e-09
9.1626e-09
2.97476e-08
9.40962e-08
2.89619e-07
8.70404e-07
2.56506e-06
7.37405e-06
1.92081e-05
1.89478e-05
1.63966e-05
1.43488e-05
1.28988e-05
7.98045e-09
8.00484e-09
8.05365e-09
8.12791e-09
8.22847e-09
8.35602e-09
8.51137e-09
8.69531e-09
8.90861e-09
9.15215e-09
9.42678e-09
9.73332e-09
1.00726e-08
1.04455e-08
1.08528e-08
1.12954e-08
1.17741e-08
1.22897e-08
1.28432e-08
1.34352e-08
1.40666e-08
1.47383e-08
1.5451e-08
1.62054e-08
1.70023e-08
1.78425e-08
1.87267e-08
1.96555e-08
2.06297e-08
2.16498e-08
2.27164e-08
2.38302e-08
2.49916e-08
2.62012e-08
2.74593e-08
2.87663e-08
3.01227e-08
3.15287e-08
3.29845e-08
3.44903e-08
3.60462e-08
3.76523e-08
3.93085e-08
4.10149e-08
4.27712e-08
4.45772e-08
4.64327e-08
4.83373e-08
5.02907e-08
5.22923e-08
5.43417e-08
5.64382e-08
5.85813e-08
6.07701e-08
6.30039e-08
6.52819e-08
6.76031e-08
6.99668e-08
7.23718e-08
7.48172e-08
7.7302e-08
7.9825e-08
8.23851e-08
8.49813e-08
8.76122e-08
9.02767e-08
9.29736e-08
9.57016e-08
9.84594e-08
1.01246e-07
1.04059e-07
1.06899e-07
1.09763e-07
1.1265e-07
1.15558e-07
1.18487e-07
1.21434e-07
1.24399e-07
1.27378e-07
1.30371e-07
1.33376e-07
1.36391e-07
1.39414e-07
1.42442e-07
1.45475e-07
1.48509e-07
1.51542e-07
1.54572e-07
1.57596e-07
1.60612e-07
1.63616e-07
1.66606e-07
1.69579e-07
1.72531e-07
1.7546e-07
1.78363e-07
1.81235e-07
1.84074e-07
1.86876e-07
1.89637e-07
1.92354e-07
1.95024e-07
1.97643e-07
2.00207e-07
2.02712e-07
2.05155e-07
2.07531e-07
2.09837e-07
2.12069e-07
2.14223e-07
2.16294e-07
2.18278e-07
2.2017e-07
2.21967e-07
2.23664e-07
2.25256e-07
2.26738e-07
2.28105e-07
2.29353e-07
2.30477e-07
2.31471e-07
2.32331e-07
2.33052e-07
2.33628e-07
2.34054e-07
2.34325e-07
2.34437e-07
2.34383e-07
2.3416e-07
2.33762e-07
2.33185e-07
2.32423e-07
2.31473e-07
2.30329e-07
2.28989e-07
2.27449e-07
2.25704e-07
2.23752e-07
2.21591e-07
2.19217e-07
2.1663e-07
2.13829e-07
2.10812e-07
2.07581e-07
2.04135e-07
2.00478e-07
1.96611e-07
1.92539e-07
1.88265e-07
1.83795e-07
1.79137e-07
1.74298e-07
1.69287e-07
1.64114e-07
1.58791e-07
1.53331e-07
1.47748e-07
1.42056e-07
1.36272e-07
1.30414e-07
1.245e-07
1.18549e-07
1.12583e-07
1.06617e-07
1.00677e-07
9.47837e-08
8.8957e-08
8.32216e-08
7.75981e-08
7.21065e-08
6.67653e-08
6.15919e-08
5.66019e-08
5.18094e-08
4.72273e-08
4.28668e-08
3.87417e-08
3.48646e-08
3.12834e-08
2.80034e-08
7.98767e-09
8.01195e-09
8.06146e-09
8.13662e-09
8.23812e-09
8.36675e-09
8.52324e-09
8.70838e-09
8.92293e-09
9.1677e-09
9.44355e-09
9.75132e-09
1.00918e-08
1.0466e-08
1.08746e-08
1.13184e-08
1.17984e-08
1.23154e-08
1.28702e-08
1.34636e-08
1.40965e-08
1.47696e-08
1.54838e-08
1.62398e-08
1.70384e-08
1.78803e-08
1.87663e-08
1.96971e-08
2.06733e-08
2.16955e-08
2.27645e-08
2.38807e-08
2.50448e-08
2.62571e-08
2.75182e-08
2.88285e-08
3.01883e-08
3.1598e-08
3.30578e-08
3.45678e-08
3.61282e-08
3.77392e-08
3.94006e-08
4.11124e-08
4.28746e-08
4.46869e-08
4.6549e-08
4.84607e-08
5.04216e-08
5.24311e-08
5.44888e-08
5.65941e-08
5.87464e-08
6.09449e-08
6.31889e-08
6.54776e-08
6.78101e-08
7.01855e-08
7.26028e-08
7.50612e-08
7.75594e-08
8.00964e-08
8.26713e-08
8.52827e-08
8.79296e-08
9.06108e-08
9.3325e-08
9.6071e-08
9.88476e-08
1.01654e-07
1.04487e-07
1.07348e-07
1.10234e-07
1.13143e-07
1.16076e-07
1.19029e-07
1.22001e-07
1.24992e-07
1.27999e-07
1.3102e-07
1.34054e-07
1.37099e-07
1.40153e-07
1.43214e-07
1.46281e-07
1.49349e-07
1.52419e-07
1.55486e-07
1.58548e-07
1.61604e-07
1.64649e-07
1.67681e-07
1.70698e-07
1.73695e-07
1.76671e-07
1.7962e-07
1.82541e-07
1.8543e-07
1.88284e-07
1.91097e-07
1.93868e-07
1.96593e-07
1.99268e-07
2.01888e-07
2.04452e-07
2.06953e-07
2.0939e-07
2.11757e-07
2.1405e-07
2.16266e-07
2.184e-07
2.20447e-07
2.22404e-07
2.24266e-07
2.26028e-07
2.27685e-07
2.29233e-07
2.30666e-07
2.3198e-07
2.3317e-07
2.3423e-07
2.35155e-07
2.3594e-07
2.3658e-07
2.3707e-07
2.37404e-07
2.37578e-07
2.37585e-07
2.37421e-07
2.37081e-07
2.3656e-07
2.35853e-07
2.34955e-07
2.33862e-07
2.3257e-07
2.31074e-07
2.29372e-07
2.27459e-07
2.25334e-07
2.22993e-07
2.20435e-07
2.17658e-07
2.14662e-07
2.11447e-07
2.08013e-07
2.04363e-07
2.00497e-07
1.96421e-07
1.92138e-07
1.87653e-07
1.82974e-07
1.78107e-07
1.73062e-07
1.67849e-07
1.62479e-07
1.56966e-07
1.51322e-07
1.45563e-07
1.39706e-07
1.33768e-07
1.27767e-07
1.21723e-07
1.15659e-07
1.09591e-07
1.03544e-07
9.75417e-08
9.16026e-08
8.57505e-08
8.00069e-08
7.43922e-08
6.89261e-08
6.36264e-08
5.85097e-08
5.35908e-08
4.88831e-08
4.43987e-08
4.01516e-08
3.61552e-08
3.24504e-08
2.90534e-08
8.00404e-09
8.02797e-09
8.07768e-09
8.15346e-09
8.25587e-09
8.38556e-09
8.54327e-09
8.72975e-09
8.94578e-09
9.19216e-09
9.46972e-09
9.77928e-09
1.01217e-08
1.04977e-08
1.09083e-08
1.13542e-08
1.18364e-08
1.23555e-08
1.29126e-08
1.35083e-08
1.41437e-08
1.48193e-08
1.55362e-08
1.6295e-08
1.70966e-08
1.79417e-08
1.8831e-08
1.97653e-08
2.07453e-08
2.17717e-08
2.28451e-08
2.3966e-08
2.51351e-08
2.63529e-08
2.76199e-08
2.89365e-08
3.03031e-08
3.172e-08
3.31876e-08
3.4706e-08
3.62753e-08
3.78958e-08
3.95675e-08
4.12902e-08
4.3064e-08
4.48886e-08
4.67638e-08
4.86894e-08
5.0665e-08
5.26901e-08
5.47643e-08
5.6887e-08
5.90576e-08
6.12754e-08
6.35397e-08
6.58498e-08
6.82047e-08
7.06036e-08
7.30455e-08
7.55296e-08
7.80549e-08
8.06202e-08
8.32245e-08
8.58667e-08
8.85457e-08
9.12604e-08
9.40095e-08
9.67919e-08
9.96063e-08
1.02452e-07
1.05326e-07
1.0823e-07
1.1116e-07
1.14115e-07
1.17095e-07
1.20098e-07
1.23122e-07
1.26166e-07
1.29228e-07
1.32306e-07
1.354e-07
1.38507e-07
1.41625e-07
1.44753e-07
1.47888e-07
1.51028e-07
1.54171e-07
1.57314e-07
1.60456e-07
1.63593e-07
1.66722e-07
1.69842e-07
1.72948e-07
1.76038e-07
1.79108e-07
1.82156e-07
1.85178e-07
1.8817e-07
1.91128e-07
1.94051e-07
1.96932e-07
1.9977e-07
2.0256e-07
2.05299e-07
2.07981e-07
2.10605e-07
2.13165e-07
2.15657e-07
2.18078e-07
2.20423e-07
2.22687e-07
2.24867e-07
2.26956e-07
2.28952e-07
2.30849e-07
2.32641e-07
2.34325e-07
2.35894e-07
2.37345e-07
2.3867e-07
2.39866e-07
2.40926e-07
2.41846e-07
2.42619e-07
2.43241e-07
2.43705e-07
2.44006e-07
2.44139e-07
2.44098e-07
2.43878e-07
2.43473e-07
2.42878e-07
2.42088e-07
2.41099e-07
2.39906e-07
2.38504e-07
2.36889e-07
2.35057e-07
2.33006e-07
2.30733e-07
2.28234e-07
2.25509e-07
2.22555e-07
2.19373e-07
2.15963e-07
2.12326e-07
2.08464e-07
2.0438e-07
2.00077e-07
1.95561e-07
1.90838e-07
1.85915e-07
1.808e-07
1.75505e-07
1.70039e-07
1.64416e-07
1.58649e-07
1.52753e-07
1.46745e-07
1.40644e-07
1.34466e-07
1.28234e-07
1.21969e-07
1.1569e-07
1.09422e-07
1.03189e-07
9.70112e-08
9.09138e-08
8.4919e-08
7.90487e-08
7.33238e-08
6.77636e-08
6.23861e-08
5.72074e-08
5.22425e-08
4.75043e-08
4.30078e-08
3.87666e-08
3.48173e-08
3.1176e-08
8.02417e-09
8.04802e-09
8.09815e-09
8.17473e-09
8.27817e-09
8.40911e-09
8.56828e-09
8.75643e-09
8.97432e-09
9.22274e-09
9.50248e-09
9.81436e-09
1.01592e-08
1.05378e-08
1.09511e-08
1.13998e-08
1.18848e-08
1.2407e-08
1.29673e-08
1.35664e-08
1.42052e-08
1.48846e-08
1.56054e-08
1.63684e-08
1.71744e-08
1.80243e-08
1.89187e-08
1.98585e-08
2.08444e-08
2.1877e-08
2.29572e-08
2.40854e-08
2.52624e-08
2.64887e-08
2.77647e-08
2.90911e-08
3.04682e-08
3.18964e-08
3.3376e-08
3.49073e-08
3.64905e-08
3.81257e-08
3.98131e-08
4.15526e-08
4.33442e-08
4.51878e-08
4.70831e-08
4.903e-08
5.10281e-08
5.30771e-08
5.51764e-08
5.73257e-08
5.95242e-08
6.17714e-08
6.40666e-08
6.64091e-08
6.87981e-08
7.12327e-08
7.3712e-08
7.62353e-08
7.88014e-08
8.14094e-08
8.40583e-08
8.67471e-08
8.94746e-08
9.22399e-08
9.50416e-08
9.78788e-08
1.0075e-07
1.03655e-07
1.06591e-07
1.09558e-07
1.12555e-07
1.15579e-07
1.18631e-07
1.21707e-07
1.24808e-07
1.27932e-07
1.31077e-07
1.34242e-07
1.37424e-07
1.40623e-07
1.43837e-07
1.47063e-07
1.503e-07
1.53546e-07
1.56799e-07
1.60056e-07
1.63315e-07
1.66573e-07
1.69828e-07
1.73076e-07
1.76316e-07
1.79543e-07
1.82754e-07
1.85947e-07
1.89118e-07
1.92263e-07
1.95379e-07
1.98462e-07
2.01508e-07
2.04513e-07
2.07474e-07
2.10387e-07
2.13248e-07
2.16052e-07
2.18795e-07
2.21474e-07
2.24083e-07
2.26619e-07
2.29077e-07
2.31452e-07
2.33739e-07
2.35933e-07
2.38029e-07
2.40023e-07
2.41909e-07
2.43681e-07
2.45333e-07
2.46861e-07
2.48259e-07
2.4952e-07
2.5064e-07
2.51611e-07
2.52429e-07
2.53087e-07
2.53579e-07
2.53899e-07
2.54041e-07
2.54e-07
2.53769e-07
2.53342e-07
2.52715e-07
2.51881e-07
2.50836e-07
2.49575e-07
2.48092e-07
2.46383e-07
2.44445e-07
2.42273e-07
2.39866e-07
2.37219e-07
2.34332e-07
2.31203e-07
2.27831e-07
2.24218e-07
2.20363e-07
2.1627e-07
2.11942e-07
2.07383e-07
2.02599e-07
1.97595e-07
1.92382e-07
1.86967e-07
1.81362e-07
1.7558e-07
1.69633e-07
1.63537e-07
1.57309e-07
1.50967e-07
1.4453e-07
1.3802e-07
1.31458e-07
1.24866e-07
1.18269e-07
1.11693e-07
1.0516e-07
9.86959e-08
9.23257e-08
8.6073e-08
7.99606e-08
7.40103e-08
6.82418e-08
6.26737e-08
5.73225e-08
5.22034e-08
4.73325e-08
4.27243e-08
3.84129e-08
3.44112e-08
8.04654e-09
8.0705e-09
8.12115e-09
8.19861e-09
8.30323e-09
8.43563e-09
8.59651e-09
8.78661e-09
9.00669e-09
9.2575e-09
9.53984e-09
9.85451e-09
1.02023e-08
1.05841e-08
1.10007e-08
1.1453e-08
1.19418e-08
1.24679e-08
1.30324e-08
1.3636e-08
1.42795e-08
1.49639e-08
1.56901e-08
1.64589e-08
1.7271e-08
1.81275e-08
1.9029e-08
1.99765e-08
2.09706e-08
2.20121e-08
2.31018e-08
2.42403e-08
2.54283e-08
2.66664e-08
2.79553e-08
2.92953e-08
3.06871e-08
3.2131e-08
3.36275e-08
3.51768e-08
3.67793e-08
3.8435e-08
4.01442e-08
4.1907e-08
4.37232e-08
4.55929e-08
4.7516e-08
4.94922e-08
5.15213e-08
5.3603e-08
5.57368e-08
5.79224e-08
6.01591e-08
6.24464e-08
6.47838e-08
6.71705e-08
6.96058e-08
7.20888e-08
7.46189e-08
7.71952e-08
7.98166e-08
8.24824e-08
8.51916e-08
8.79431e-08
9.0736e-08
9.35693e-08
9.64418e-08
9.93525e-08
1.023e-07
1.05284e-07
1.08303e-07
1.11356e-07
1.14441e-07
1.17557e-07
1.20704e-07
1.23879e-07
1.27082e-07
1.30312e-07
1.33567e-07
1.36845e-07
1.40145e-07
1.43466e-07
1.46805e-07
1.50162e-07
1.53534e-07
1.5692e-07
1.60316e-07
1.63722e-07
1.67135e-07
1.70552e-07
1.73971e-07
1.77389e-07
1.80803e-07
1.8421e-07
1.87606e-07
1.90989e-07
1.94355e-07
1.977e-07
2.01021e-07
2.04313e-07
2.07574e-07
2.10798e-07
2.13982e-07
2.17123e-07
2.20215e-07
2.23255e-07
2.26238e-07
2.29159e-07
2.32015e-07
2.34801e-07
2.37511e-07
2.40141e-07
2.42685e-07
2.45139e-07
2.47497e-07
2.49753e-07
2.51903e-07
2.53939e-07
2.55857e-07
2.5765e-07
2.59312e-07
2.60837e-07
2.62218e-07
2.63449e-07
2.64524e-07
2.65436e-07
2.66179e-07
2.66745e-07
2.67129e-07
2.67324e-07
2.67323e-07
2.67119e-07
2.66707e-07
2.6608e-07
2.65232e-07
2.64158e-07
2.62851e-07
2.61308e-07
2.59521e-07
2.57488e-07
2.55205e-07
2.52667e-07
2.49872e-07
2.46818e-07
2.43503e-07
2.39926e-07
2.36089e-07
2.31992e-07
2.27638e-07
2.2303e-07
2.18172e-07
2.13071e-07
2.07735e-07
2.02171e-07
1.96391e-07
1.90407e-07
1.84231e-07
1.77879e-07
1.71368e-07
1.64717e-07
1.57945e-07
1.51074e-07
1.44127e-07
1.37127e-07
1.30102e-07
1.23076e-07
1.16077e-07
1.09132e-07
1.02267e-07
9.55099e-08
8.88855e-08
8.24184e-08
7.61313e-08
7.00456e-08
6.41805e-08
5.85539e-08
5.31841e-08
4.80869e-08
4.32963e-08
3.88208e-08
8.06837e-09
8.09259e-09
8.14387e-09
8.2223e-09
8.32822e-09
8.46222e-09
8.62502e-09
8.81732e-09
9.03987e-09
9.29343e-09
9.57878e-09
9.89672e-09
1.02481e-08
1.06336e-08
1.10543e-08
1.15109e-08
1.20043e-08
1.25354e-08
1.31052e-08
1.37144e-08
1.4364e-08
1.50549e-08
1.5788e-08
1.65643e-08
1.73845e-08
1.82496e-08
1.91605e-08
2.0118e-08
2.11229e-08
2.21761e-08
2.32784e-08
2.44304e-08
2.5633e-08
2.68867e-08
2.81923e-08
2.95504e-08
3.09614e-08
3.2426e-08
3.39445e-08
3.55173e-08
3.71448e-08
3.88273e-08
4.05649e-08
4.23577e-08
4.42059e-08
4.61094e-08
4.80683e-08
5.00823e-08
5.21513e-08
5.4275e-08
5.6453e-08
5.86851e-08
6.09707e-08
6.33093e-08
6.57005e-08
6.81435e-08
7.06377e-08
7.31825e-08
7.57769e-08
7.84204e-08
8.11119e-08
8.38508e-08
8.66361e-08
8.94668e-08
9.23421e-08
9.52609e-08
9.82223e-08
1.01225e-07
1.04269e-07
1.07352e-07
1.10474e-07
1.13633e-07
1.16829e-07
1.2006e-07
1.23325e-07
1.26623e-07
1.29953e-07
1.33314e-07
1.36705e-07
1.40123e-07
1.43569e-07
1.4704e-07
1.50534e-07
1.54052e-07
1.5759e-07
1.61147e-07
1.6472e-07
1.68309e-07
1.71911e-07
1.75523e-07
1.79142e-07
1.82767e-07
1.86394e-07
1.9002e-07
1.93642e-07
1.97257e-07
2.0086e-07
2.04449e-07
2.0802e-07
2.11568e-07
2.15089e-07
2.1858e-07
2.22037e-07
2.25454e-07
2.28829e-07
2.32155e-07
2.3543e-07
2.38647e-07
2.41803e-07
2.44893e-07
2.4791e-07
2.50851e-07
2.53709e-07
2.5648e-07
2.59156e-07
2.61733e-07
2.64205e-07
2.66565e-07
2.68806e-07
2.70923e-07
2.72908e-07
2.74755e-07
2.76457e-07
2.78008e-07
2.79398e-07
2.80623e-07
2.81674e-07
2.82544e-07
2.83226e-07
2.83712e-07
2.83995e-07
2.84068e-07
2.83923e-07
2.83553e-07
2.82952e-07
2.82113e-07
2.81029e-07
2.79693e-07
2.781e-07
2.76244e-07
2.74121e-07
2.71725e-07
2.69052e-07
2.66099e-07
2.62864e-07
2.59344e-07
2.55539e-07
2.51448e-07
2.47073e-07
2.42417e-07
2.37482e-07
2.32274e-07
2.268e-07
2.21066e-07
2.15084e-07
2.08864e-07
2.02419e-07
1.95765e-07
1.88918e-07
1.81898e-07
1.74724e-07
1.67419e-07
1.60007e-07
1.52514e-07
1.44966e-07
1.37393e-07
1.29824e-07
1.22288e-07
1.14815e-07
1.07436e-07
1.00178e-07
9.30701e-08
8.61385e-08
7.94081e-08
7.29018e-08
6.66407e-08
6.06464e-08
5.4937e-08
4.95483e-08
4.44849e-08
8.0864e-09
8.11104e-09
8.16306e-09
8.24257e-09
8.34991e-09
8.48569e-09
8.6506e-09
8.84536e-09
9.07069e-09
9.32735e-09
9.61613e-09
9.93783e-09
1.02933e-08
1.06833e-08
1.11087e-08
1.15705e-08
1.20695e-08
1.26066e-08
1.31828e-08
1.3799e-08
1.44561e-08
1.5155e-08
1.58969e-08
1.66825e-08
1.75128e-08
1.83889e-08
1.93115e-08
2.02817e-08
2.13003e-08
2.23682e-08
2.34863e-08
2.46554e-08
2.58763e-08
2.71497e-08
2.84764e-08
2.98571e-08
3.12924e-08
3.27828e-08
3.43289e-08
3.59311e-08
3.75899e-08
3.93057e-08
4.10785e-08
4.29088e-08
4.47967e-08
4.67421e-08
4.87453e-08
5.0806e-08
5.29241e-08
5.50996e-08
5.73321e-08
5.96214e-08
6.19669e-08
6.43685e-08
6.68254e-08
6.93373e-08
7.19035e-08
7.45233e-08
7.71962e-08
7.99213e-08
8.2698e-08
8.55254e-08
8.84028e-08
9.13293e-08
9.4304e-08
9.73261e-08
1.00395e-07
1.03509e-07
1.06667e-07
1.0987e-07
1.13115e-07
1.16402e-07
1.1973e-07
1.23097e-07
1.26504e-07
1.29948e-07
1.33429e-07
1.36946e-07
1.40497e-07
1.44082e-07
1.477e-07
1.51348e-07
1.55026e-07
1.58732e-07
1.62465e-07
1.66224e-07
1.70005e-07
1.73809e-07
1.77631e-07
1.81471e-07
1.85326e-07
1.89193e-07
1.93069e-07
1.96951e-07
2.00836e-07
2.04721e-07
2.08602e-07
2.12475e-07
2.16336e-07
2.20182e-07
2.24007e-07
2.27809e-07
2.31582e-07
2.35322e-07
2.39024e-07
2.42685e-07
2.46299e-07
2.49861e-07
2.53366e-07
2.5681e-07
2.60185e-07
2.63488e-07
2.66712e-07
2.69851e-07
2.729e-07
2.75851e-07
2.78699e-07
2.81436e-07
2.84056e-07
2.86551e-07
2.88915e-07
2.9114e-07
2.93219e-07
2.95143e-07
2.96905e-07
2.98498e-07
2.99912e-07
3.0114e-07
3.02174e-07
3.03006e-07
3.03627e-07
3.04028e-07
3.04202e-07
3.04141e-07
3.03836e-07
3.0328e-07
3.02464e-07
3.01382e-07
3.00026e-07
2.98389e-07
2.96464e-07
2.94247e-07
2.91731e-07
2.88911e-07
2.85783e-07
2.82345e-07
2.78594e-07
2.74527e-07
2.70146e-07
2.65451e-07
2.60444e-07
2.55128e-07
2.4951e-07
2.43596e-07
2.37395e-07
2.30916e-07
2.24174e-07
2.17182e-07
2.09957e-07
2.02519e-07
1.94887e-07
1.87085e-07
1.79139e-07
1.71075e-07
1.62923e-07
1.54712e-07
1.46476e-07
1.38248e-07
1.30059e-07
1.21944e-07
1.13936e-07
1.06067e-07
9.83671e-08
9.08662e-08
8.35916e-08
7.65686e-08
6.98232e-08
6.33765e-08
5.7268e-08
5.14991e-08
8.09708e-09
8.12222e-09
8.17506e-09
8.25574e-09
8.36465e-09
8.50238e-09
8.66962e-09
8.86708e-09
9.09551e-09
9.35566e-09
9.64832e-09
9.97429e-09
1.03344e-08
1.07295e-08
1.11606e-08
1.16284e-08
1.2134e-08
1.26782e-08
1.32621e-08
1.38866e-08
1.45527e-08
1.52614e-08
1.60138e-08
1.68108e-08
1.76534e-08
1.85428e-08
1.94798e-08
2.04655e-08
2.15008e-08
2.25867e-08
2.37242e-08
2.49142e-08
2.61575e-08
2.7455e-08
2.88075e-08
3.02158e-08
3.16805e-08
3.32024e-08
3.4782e-08
3.642e-08
3.81168e-08
3.98727e-08
4.16883e-08
4.35638e-08
4.54995e-08
4.74954e-08
4.95518e-08
5.16686e-08
5.38458e-08
5.60833e-08
5.83809e-08
6.07384e-08
6.31555e-08
6.56319e-08
6.81672e-08
7.07608e-08
7.34123e-08
7.61212e-08
7.88867e-08
8.17084e-08
8.45855e-08
8.75173e-08
9.05031e-08
9.35421e-08
9.66335e-08
9.97766e-08
1.0297e-07
1.06214e-07
1.09507e-07
1.12849e-07
1.16238e-07
1.19673e-07
1.23154e-07
1.2668e-07
1.3025e-07
1.33863e-07
1.37518e-07
1.41215e-07
1.44952e-07
1.48728e-07
1.52542e-07
1.56394e-07
1.60281e-07
1.64204e-07
1.6816e-07
1.72148e-07
1.76166e-07
1.80214e-07
1.84288e-07
1.88386e-07
1.92507e-07
1.96648e-07
2.00806e-07
2.04978e-07
2.09161e-07
2.13351e-07
2.17544e-07
2.21738e-07
2.25927e-07
2.30108e-07
2.34276e-07
2.38428e-07
2.42557e-07
2.46661e-07
2.50733e-07
2.5477e-07
2.58766e-07
2.62717e-07
2.66616e-07
2.70458e-07
2.74238e-07
2.77949e-07
2.81585e-07
2.85141e-07
2.88609e-07
2.91983e-07
2.95256e-07
2.9842e-07
3.01469e-07
3.04394e-07
3.07187e-07
3.09841e-07
3.12347e-07
3.14697e-07
3.16882e-07
3.18894e-07
3.20724e-07
3.22363e-07
3.23801e-07
3.25029e-07
3.26039e-07
3.2682e-07
3.27364e-07
3.2766e-07
3.27701e-07
3.27476e-07
3.26977e-07
3.26195e-07
3.25121e-07
3.23746e-07
3.22064e-07
3.20065e-07
3.17744e-07
3.15094e-07
3.12109e-07
3.08784e-07
3.05115e-07
3.01098e-07
2.96732e-07
2.92017e-07
2.86951e-07
2.81539e-07
2.75783e-07
2.69688e-07
2.63263e-07
2.56516e-07
2.49459e-07
2.42107e-07
2.34474e-07
2.26581e-07
2.18448e-07
2.10099e-07
2.01561e-07
1.92861e-07
1.84031e-07
1.75104e-07
1.66115e-07
1.571e-07
1.48095e-07
1.39139e-07
1.30269e-07
1.21522e-07
1.12934e-07
1.04539e-07
9.63697e-08
8.84574e-08
8.08331e-08
7.35219e-08
6.65689e-08
5.9973e-08
8.09605e-09
8.12177e-09
8.17551e-09
8.2575e-09
8.36812e-09
8.50799e-09
8.67779e-09
8.87825e-09
9.11012e-09
9.37415e-09
9.67115e-09
1.00019e-08
1.03674e-08
1.07684e-08
1.12058e-08
1.16806e-08
1.21938e-08
1.27463e-08
1.33392e-08
1.39734e-08
1.46502e-08
1.53704e-08
1.61353e-08
1.69458e-08
1.78031e-08
1.87083e-08
1.96625e-08
2.06667e-08
2.1722e-08
2.28295e-08
2.39902e-08
2.52051e-08
2.64752e-08
2.78014e-08
2.91847e-08
3.06258e-08
3.21257e-08
3.36851e-08
3.53046e-08
3.6985e-08
3.87268e-08
4.05305e-08
4.23967e-08
4.43256e-08
4.63177e-08
4.83732e-08
5.04923e-08
5.26751e-08
5.49216e-08
5.72319e-08
5.96058e-08
6.20433e-08
6.4544e-08
6.71078e-08
6.97343e-08
7.24232e-08
7.51739e-08
7.79861e-08
8.08591e-08
8.37926e-08
8.67858e-08
8.98381e-08
9.29489e-08
9.61175e-08
9.93431e-08
1.02625e-07
1.05963e-07
1.09355e-07
1.12802e-07
1.16302e-07
1.19855e-07
1.23459e-07
1.27115e-07
1.30821e-07
1.34576e-07
1.3838e-07
1.42232e-07
1.46131e-07
1.50077e-07
1.54068e-07
1.58104e-07
1.62183e-07
1.66306e-07
1.7047e-07
1.74675e-07
1.78919e-07
1.83201e-07
1.87519e-07
1.91872e-07
1.96258e-07
2.00674e-07
2.05118e-07
2.09587e-07
2.14079e-07
2.1859e-07
2.23117e-07
2.27655e-07
2.32202e-07
2.36752e-07
2.41302e-07
2.45847e-07
2.50383e-07
2.54905e-07
2.59408e-07
2.63887e-07
2.68337e-07
2.72753e-07
2.7713e-07
2.81462e-07
2.85743e-07
2.89967e-07
2.94128e-07
2.98218e-07
3.02233e-07
3.06163e-07
3.10003e-07
3.13745e-07
3.17381e-07
3.20902e-07
3.24301e-07
3.2757e-07
3.30698e-07
3.33679e-07
3.36502e-07
3.39157e-07
3.41637e-07
3.4393e-07
3.46027e-07
3.47917e-07
3.49591e-07
3.51038e-07
3.52248e-07
3.5321e-07
3.53913e-07
3.54348e-07
3.54503e-07
3.54368e-07
3.53933e-07
3.53187e-07
3.52121e-07
3.50725e-07
3.4899e-07
3.46907e-07
3.44468e-07
3.41664e-07
3.3849e-07
3.34939e-07
3.31005e-07
3.26686e-07
3.21977e-07
3.16878e-07
3.11389e-07
3.05512e-07
2.99249e-07
2.92607e-07
2.85594e-07
2.7822e-07
2.70498e-07
2.62443e-07
2.54073e-07
2.4541e-07
2.36477e-07
2.27302e-07
2.17915e-07
2.08348e-07
1.98636e-07
1.88818e-07
1.78933e-07
1.69022e-07
1.59127e-07
1.4929e-07
1.39555e-07
1.29962e-07
1.20552e-07
1.11365e-07
1.02437e-07
9.38054e-08
8.55011e-08
7.75759e-08
7.0027e-08
8.07819e-09
8.10457e-09
8.15934e-09
8.24277e-09
8.35528e-09
8.4975e-09
8.67012e-09
8.87388e-09
9.10954e-09
9.37788e-09
9.67971e-09
1.00159e-08
1.03873e-08
1.07948e-08
1.12395e-08
1.17222e-08
1.22441e-08
1.28061e-08
1.34093e-08
1.40549e-08
1.47439e-08
1.54775e-08
1.62569e-08
1.70832e-08
1.79576e-08
1.88814e-08
1.98556e-08
2.08815e-08
2.19603e-08
2.30931e-08
2.4281e-08
2.55252e-08
2.68267e-08
2.81867e-08
2.96061e-08
3.10858e-08
3.26269e-08
3.42301e-08
3.58963e-08
3.76263e-08
3.94207e-08
4.12802e-08
4.32053e-08
4.51965e-08
4.72543e-08
4.9379e-08
5.15709e-08
5.38302e-08
5.6157e-08
5.85515e-08
6.10136e-08
6.35432e-08
6.61403e-08
6.88047e-08
7.15361e-08
7.43342e-08
7.71987e-08
8.01291e-08
8.31251e-08
8.61861e-08
8.93117e-08
9.25012e-08
9.57541e-08
9.90698e-08
1.02448e-07
1.05887e-07
1.09387e-07
1.12948e-07
1.16567e-07
1.20246e-07
1.23983e-07
1.27777e-07
1.31628e-07
1.35535e-07
1.39497e-07
1.43514e-07
1.47585e-07
1.5171e-07
1.55887e-07
1.60117e-07
1.64397e-07
1.68728e-07
1.73109e-07
1.77539e-07
1.82017e-07
1.86542e-07
1.91112e-07
1.95727e-07
2.00385e-07
2.05083e-07
2.0982e-07
2.14594e-07
2.19402e-07
2.24241e-07
2.29107e-07
2.33998e-07
2.3891e-07
2.43838e-07
2.48778e-07
2.53726e-07
2.58678e-07
2.63628e-07
2.68572e-07
2.73506e-07
2.78423e-07
2.83319e-07
2.88188e-07
2.93025e-07
2.97823e-07
3.02577e-07
3.07279e-07
3.11924e-07
3.16505e-07
3.21014e-07
3.25444e-07
3.29787e-07
3.34035e-07
3.3818e-07
3.42214e-07
3.46127e-07
3.4991e-07
3.53554e-07
3.5705e-07
3.60387e-07
3.63555e-07
3.66545e-07
3.69344e-07
3.71943e-07
3.7433e-07
3.76495e-07
3.78424e-07
3.80108e-07
3.81534e-07
3.8269e-07
3.83565e-07
3.84146e-07
3.84423e-07
3.84381e-07
3.84011e-07
3.83301e-07
3.82238e-07
3.80813e-07
3.79013e-07
3.7683e-07
3.74253e-07
3.71273e-07
3.67881e-07
3.64072e-07
3.59837e-07
3.55172e-07
3.50074e-07
3.44539e-07
3.38568e-07
3.32162e-07
3.25325e-07
3.18061e-07
3.1038e-07
3.02294e-07
2.93815e-07
2.84962e-07
2.75754e-07
2.66217e-07
2.56377e-07
2.46265e-07
2.35915e-07
2.25365e-07
2.14655e-07
2.03829e-07
1.92931e-07
1.82009e-07
1.71111e-07
1.60284e-07
1.49577e-07
1.39037e-07
1.28711e-07
1.18642e-07
1.08876e-07
9.94487e-08
9.04215e-08
8.17898e-08
8.03758e-09
8.06472e-09
8.12065e-09
8.20567e-09
8.32027e-09
8.46507e-09
8.64078e-09
8.84816e-09
9.08798e-09
9.36104e-09
9.66819e-09
1.00103e-08
1.03883e-08
1.08032e-08
1.12559e-08
1.17476e-08
1.22792e-08
1.28519e-08
1.34668e-08
1.41252e-08
1.48282e-08
1.55771e-08
1.63731e-08
1.72176e-08
1.81117e-08
1.90568e-08
2.00542e-08
2.11052e-08
2.22111e-08
2.33731e-08
2.45926e-08
2.58707e-08
2.72087e-08
2.86077e-08
3.00689e-08
3.15933e-08
3.3182e-08
3.4836e-08
3.65562e-08
3.83435e-08
4.01986e-08
4.21224e-08
4.41155e-08
4.61785e-08
4.83119e-08
5.05161e-08
5.27916e-08
5.51387e-08
5.75576e-08
6.00484e-08
6.26113e-08
6.52462e-08
6.79532e-08
7.07322e-08
7.35829e-08
7.65052e-08
7.94987e-08
8.25632e-08
8.56983e-08
8.89036e-08
9.21785e-08
9.55227e-08
9.89356e-08
1.02417e-07
1.05965e-07
1.09581e-07
1.13263e-07
1.17011e-07
1.20824e-07
1.24702e-07
1.28643e-07
1.32648e-07
1.36715e-07
1.40845e-07
1.45036e-07
1.49288e-07
1.53601e-07
1.57973e-07
1.62404e-07
1.66894e-07
1.71443e-07
1.76048e-07
1.80711e-07
1.8543e-07
1.90204e-07
1.95033e-07
1.99915e-07
2.0485e-07
2.09835e-07
2.1487e-07
2.19952e-07
2.2508e-07
2.3025e-07
2.3546e-07
2.40706e-07
2.45985e-07
2.51294e-07
2.56628e-07
2.61983e-07
2.67354e-07
2.72738e-07
2.78128e-07
2.83521e-07
2.88911e-07
2.94293e-07
2.99661e-07
3.0501e-07
3.10334e-07
3.15626e-07
3.20881e-07