/*--------------------------------*- C++ -*----------------------------------*\
| =========                 |                                                 |
| \\      /  F ield         | OpenFOAM: The Open Source CFD Toolbox           |
|  \\    /   O peration     | Version:  2.3.0                                 |
|   \\  /    A nd           | Web:      www.OpenFOAM.org                      |
|    \\/     M anipulation  |                                                 |
\*---------------------------------------------------------------------------*/
FoamFile
{
    version     2.0;
    format      ascii;
    class       volVectorField;
    location    "50";
    object      D;
}
// * * * * * * * * * * * * * * * * * * * * * * * * * * * * * * * * * * * * * //

dimensions      [0 1 0 0 0 0 0];

internalField   nonuniform List<vector> 
1000
(
(5.84677e-08 -2.54283e-08 0)
(5.48713e-08 -2.28943e-08 0)
(5.26735e-08 -2.12965e-08 0)
(5.13974e-08 -2.02929e-08 0)
(5.07576e-08 -1.96836e-08 0)
(5.0571e-08 -1.93442e-08 0)
(5.07148e-08 -1.91928e-08 0)
(5.11036e-08 -1.91738e-08 0)
(5.16768e-08 -1.92489e-08 0)
(5.23981e-08 -1.93943e-08 0)
(5.29578e-08 -2.76386e-08 0)
(4.91626e-08 -2.5587e-08 0)
(4.6842e-08 -2.42807e-08 0)
(4.54825e-08 -2.34555e-08 0)
(4.4778e-08 -2.29564e-08 0)
(4.45343e-08 -2.26852e-08 0)
(4.46226e-08 -2.25765e-08 0)
(4.49547e-08 -2.2585e-08 0)
(4.54703e-08 -2.26794e-08 0)
(4.61331e-08 -2.28381e-08 0)
(4.72083e-08 -2.97159e-08 0)
(4.33572e-08 -2.82146e-08 0)
(4.10024e-08 -2.72416e-08 0)
(3.96137e-08 -2.66214e-08 0)
(3.88776e-08 -2.62492e-08 0)
(3.85965e-08 -2.60567e-08 0)
(3.86402e-08 -2.59971e-08 0)
(3.89204e-08 -2.6037e-08 0)
(3.93769e-08 -2.61523e-08 0)
(3.99713e-08 -2.63259e-08 0)
(4.12603e-08 -3.16285e-08 0)
(3.75067e-08 -3.07114e-08 0)
(3.52113e-08 -3.00937e-08 0)
(3.38515e-08 -2.96926e-08 0)
(3.31191e-08 -2.94564e-08 0)
(3.28209e-08 -2.93488e-08 0)
(3.28305e-08 -2.93424e-08 0)
(3.30623e-08 -2.94165e-08 0)
(3.34576e-08 -2.95551e-08 0)
(3.39786e-08 -2.97458e-08 0)
(3.51509e-08 -3.33434e-08 0)
(3.16496e-08 -3.30109e-08 0)
(2.9509e-08 -3.27488e-08 0)
(2.82365e-08 -3.25677e-08 0)
(2.75431e-08 -3.24686e-08 0)
(2.72481e-08 -3.24468e-08 0)
(2.72338e-08 -3.24947e-08 0)
(2.74207e-08 -3.26041e-08 0)
(2.77542e-08 -3.27671e-08 0)
(2.81987e-08 -3.29764e-08 0)
(2.89137e-08 -3.48295e-08 0)
(2.58138e-08 -3.5047e-08 0)
(2.39188e-08 -3.51203e-08 0)
(2.27893e-08 -3.51469e-08 0)
(2.21683e-08 -3.51777e-08 0)
(2.18957e-08 -3.52375e-08 0)
(2.18676e-08 -3.53375e-08 0)
(2.20134e-08 -3.54812e-08 0)
(2.22851e-08 -3.5668e-08 0)
(2.26512e-08 -3.58958e-08 0)
(2.25781e-08 -3.60564e-08 0)
(2.00148e-08 -3.67582e-08 0)
(1.84475e-08 -3.71267e-08 0)
(1.75109e-08 -3.73367e-08 0)
(1.69923e-08 -3.74824e-08 0)
(1.67596e-08 -3.76149e-08 0)
(1.67266e-08 -3.77614e-08 0)
(1.68353e-08 -3.79358e-08 0)
(1.70458e-08 -3.81445e-08 0)
(1.7332e-08 -3.83897e-08 0)
(1.61703e-08 -3.69963e-08 0)
(1.42583e-08 -3.80885e-08 0)
(1.30866e-08 -3.86956e-08 0)
(1.23843e-08 -3.90542e-08 0)
(1.19934e-08 -3.92932e-08 0)
(1.18152e-08 -3.94846e-08 0)
(1.17853e-08 -3.9669e-08 0)
(1.18603e-08 -3.98686e-08 0)
(1.20103e-08 -4.00955e-08 0)
(1.22159e-08 -4.03554e-08 0)
(9.71502e-09 -3.76218e-08 0)
(8.54001e-09 -3.8989e-08 0)
(7.81439e-09 -3.97649e-08 0)
(7.37787e-09 -4.02281e-08 0)
(7.13411e-09 -4.05324e-08 0)
(7.02187e-09 -4.07648e-08 0)
(7.00109e-09 -4.09755e-08 0)
(7.04483e-09 -4.11929e-08 0)
(7.13481e-09 -4.14328e-08 0)
(7.25907e-09 -4.17036e-08 0)
(3.23906e-09 -3.79039e-08 0)
(2.84927e-09 -3.94114e-08 0)
(2.60032e-09 -4.0272e-08 0)
(2.44997e-09 -4.07861e-08 0)
(2.36584e-09 -4.11215e-08 0)
(2.32665e-09 -4.13733e-08 0)
(2.31862e-09 -4.15963e-08 0)
(2.33256e-09 -4.18218e-08 0)
(2.36233e-09 -4.20677e-08 0)
(2.40409e-09 -4.23441e-08 0)
(9.01415e-08 -1.17496e-09 0)
(9.0661e-08 -8.40154e-10 0)
(9.09901e-08 -6.12999e-10 0)
(9.13275e-08 -4.6988e-10 0)
(9.1769e-08 -3.82773e-10 0)
(9.23561e-08 -3.32236e-10 0)
(9.31027e-08 -3.05783e-10 0)
(9.40083e-08 -2.95305e-10 0)
(9.50659e-08 -2.95429e-10 0)
(9.62653e-08 -3.02779e-10 0)
(8.95685e-08 -3.58026e-09 0)
(8.99486e-08 -2.53067e-09 0)
(9.01917e-08 -1.87133e-09 0)
(9.04774e-08 -1.45898e-09 0)
(9.08865e-08 -1.20727e-09 0)
(9.14522e-08 -1.06128e-09 0)
(9.21833e-08 -9.85364e-10 0)
(9.30765e-08 -9.55961e-10 0)
(9.41227e-08 -9.57173e-10 0)
(9.531e-08 -9.78129e-10 0)
(8.83012e-08 -6.0078e-09 0)
(8.84166e-08 -4.28787e-09 0)
(8.84949e-08 -3.22453e-09 0)
(8.86759e-08 -2.56331e-09 0)
(8.90164e-08 -2.16003e-09 0)
(8.95349e-08 -1.92619e-09 0)
(9.02309e-08 -1.80492e-09 0)
(9.10954e-08 -1.75842e-09 0)
(9.21153e-08 -1.76095e-09 0)
(9.32758e-08 -1.7946e-09 0)
(8.63896e-08 -8.45028e-09 0)
(8.61303e-08 -6.14796e-09 0)
(8.59785e-08 -4.72875e-09 0)
(8.60124e-08 -3.84889e-09 0)
(8.62555e-08 -3.31315e-09 0)
(8.67063e-08 -3.00303e-09 0)
(8.73517e-08 -2.84285e-09 0)
(8.81745e-08 -2.78244e-09 0)
(8.91565e-08 -2.7875e-09 0)
(9.02793e-08 -2.83424e-09 0)
(8.38735e-08 -1.09056e-08 0)
(8.31513e-08 -8.13689e-09 0)
(8.27158e-08 -6.42934e-09 0)
(8.25691e-08 -5.37123e-09 0)
(8.26926e-08 -4.72766e-09 0)
(8.30598e-08 -4.35594e-09 0)
(8.36423e-08 -4.16514e-09 0)
(8.44134e-08 -4.09505e-09 0)
(8.53484e-08 -4.10453e-09 0)
(8.64248e-08 -4.16514e-09 0)
(8.07921e-08 -1.33704e-08 0)
(7.95465e-08 -1.02718e-08 0)
(7.87905e-08 -8.35717e-09 0)
(7.84401e-08 -7.16986e-09 0)
(7.84286e-08 -6.44796e-09 0)
(7.87011e-08 -6.03196e-09 0)
(7.92122e-08 -5.82019e-09 0)
(7.9924e-08 -5.74529e-09 0)
(8.08052e-08 -5.76129e-09 0)
(8.18282e-08 -5.83648e-09 0)
(7.71868e-08 -1.58388e-08 0)
(7.53902e-08 -1.25584e-08 0)
(7.42967e-08 -1.0527e-08 0)
(7.37316e-08 -9.26534e-09 0)
(7.35774e-08 -8.49812e-09 0)
(7.37494e-08 -8.05711e-09 0)
(7.41839e-08 -7.83489e-09 0)
(7.48319e-08 -7.76024e-09 0)
(7.56545e-08 -7.78464e-09 0)
(7.66193e-08 -7.87474e-09 0)
(7.31026e-08 -1.82975e-08 0)
(7.07625e-08 -1.49901e-08 0)
(6.93355e-08 -1.29359e-08 0)
(6.85578e-08 -1.16574e-08 0)
(6.82615e-08 -1.08797e-08 0)
(6.83325e-08 -1.04341e-08 0)
(6.86892e-08 -1.02124e-08 0)
(6.92712e-08 -1.0143e-08 0)
(7.00328e-08 -1.01769e-08 0)
(7.09366e-08 -1.02815e-08 0)
(6.85887e-08 -2.07307e-08 0)
(6.5746e-08 -1.7547e-08 0)
(6.4011e-08 -1.55625e-08 0)
(6.30358e-08 -1.43243e-08 0)
(6.26063e-08 -1.3571e-08 0)
(6.2581e-08 -1.31415e-08 0)
(6.28617e-08 -1.29318e-08 0)
(6.3378e-08 -1.28725e-08 0)
(6.40781e-08 -1.29165e-08 0)
(6.49208e-08 -1.30331e-08 0)
(6.36942e-08 -2.3116e-08 0)
(6.04233e-08 -2.01963e-08 0)
(5.84253e-08 -1.83677e-08 0)
(5.72803e-08 -1.72233e-08 0)
(5.67339e-08 -1.65275e-08 0)
(5.66213e-08 -1.61341e-08 0)
(5.68305e-08 -1.59482e-08 0)
(5.72825e-08 -1.59054e-08 0)
(5.79208e-08 -1.59611e-08 0)
(5.87044e-08 -1.60853e-08 0)
(9.75946e-08 -3.07769e-10 0)
(9.90522e-08 -3.04361e-10 0)
(1.00615e-07 -3.00703e-10 0)
(1.02273e-07 -2.9621e-10 0)
(1.04016e-07 -2.90372e-10 0)
(1.05836e-07 -2.82751e-10 0)
(1.07726e-07 -2.72956e-10 0)
(1.09678e-07 -2.60677e-10 0)
(1.11686e-07 -2.45619e-10 0)
(1.13742e-07 -2.27512e-10 0)
(1.15842e-07 -2.0605e-10 0)
(1.17979e-07 -1.8091e-10 0)
(1.20147e-07 -1.51693e-10 0)
(1.22342e-07 -1.17957e-10 0)
(1.24555e-07 -7.9146e-11 0)
(1.26782e-07 -3.46177e-11 0)
(1.29015e-07 1.63652e-11 0)
(1.31246e-07 7.43152e-11 0)
(1.33467e-07 1.38368e-10 0)
(1.35669e-07 2.02268e-10 0)
(9.66805e-08 -9.83465e-10 0)
(9.82213e-08 -9.60323e-10 0)
(9.98547e-08 -9.40562e-10 0)
(1.01573e-07 -9.2079e-10 0)
(1.0337e-07 -8.98467e-10 0)
(1.05237e-07 -8.71758e-10 0)
(1.07168e-07 -8.39282e-10 0)
(1.09157e-07 -7.99938e-10 0)
(1.11198e-07 -7.5276e-10 0)
(1.13285e-07 -6.96833e-10 0)
(1.15413e-07 -6.31206e-10 0)
(1.17576e-07 -5.54836e-10 0)
(1.19768e-07 -4.66532e-10 0)
(1.21985e-07 -3.64909e-10 0)
(1.2422e-07 -2.48339e-10 0)
(1.26468e-07 -1.14963e-10 0)
(1.28721e-07 3.73179e-11 0)
(1.30973e-07 2.10673e-10 0)
(1.33215e-07 4.07438e-10 0)
(1.35438e-07 6.31866e-10 0)
(9.47263e-08 -1.78812e-09 0)
(9.64359e-08 -1.72603e-09 0)
(9.82157e-08 -1.67392e-09 0)
(1.00062e-07 -1.62566e-09 0)
(1.01971e-07 -1.57626e-09 0)
(1.03938e-07 -1.52201e-09 0)
(1.05958e-07 -1.46009e-09 0)
(1.08027e-07 -1.38827e-09 0)
(1.1014e-07 -1.30469e-09 0)
(1.12293e-07 -1.20757e-09 0)
(1.14482e-07 -1.09516e-09 0)
(1.16701e-07 -9.65587e-10 0)
(1.18946e-07 -8.16759e-10 0)
(1.21213e-07 -6.46282e-10 0)
(1.23495e-07 -4.51405e-10 0)
(1.25788e-07 -2.28912e-10 0)
(1.28085e-07 2.49293e-11 0)
(1.3038e-07 3.14652e-10 0)
(1.32664e-07 6.46647e-10 0)
(1.34927e-07 1.03233e-09 0)
(9.1845e-08 -2.79903e-09 0)
(9.37963e-08 -2.66898e-09 0)
(9.57879e-08 -2.55993e-09 0)
(9.78208e-08 -2.46269e-09 0)
(9.98944e-08 -2.3694e-09 0)
(1.02008e-07 -2.27392e-09 0)
(1.04159e-07 -2.1715e-09 0)
(1.06347e-07 -2.05835e-09 0)
(1.08567e-07 -1.93126e-09 0)
(1.10819e-07 -1.78734e-09 0)
(1.13097e-07 -1.62379e-09 0)
(1.154e-07 -1.43768e-09 0)
(1.17724e-07 -1.22587e-09 0)
(1.20064e-07 -9.84804e-10 0)
(1.22416e-07 -7.10421e-10 0)
(1.24775e-07 -3.97989e-10 0)
(1.27137e-07 -4.18704e-11 0)
(1.29493e-07 3.65011e-10 0)
(1.31838e-07 8.32482e-10 0)
(1.34161e-07 1.37678e-09 0)
(8.81341e-08 -4.07989e-09 0)
(9.03883e-08 -3.84497e-09 0)
(9.26473e-08 -3.64753e-09 0)
(9.4917e-08 -3.47496e-09 0)
(9.72014e-08 -3.31595e-09 0)
(9.9503e-08 -3.1613e-09 0)
(1.01824e-07 -3.00375e-09 0)
(1.04164e-07 -2.8374e-09 0)
(1.06523e-07 -2.6573e-09 0)
(1.08902e-07 -2.45903e-09 0)
(1.11298e-07 -2.23842e-09 0)
(1.13709e-07 -1.99124e-09 0)
(1.16134e-07 -1.71307e-09 0)
(1.18569e-07 -1.39897e-09 0)
(1.21011e-07 -1.04344e-09 0)
(1.23457e-07 -6.3999e-10 0)
(1.259e-07 -1.8098e-10 0)
(1.28337e-07 3.43122e-10 0)
(1.30759e-07 9.45186e-10 0)
(1.33159e-07 1.6454e-09 0)
(8.37021e-08 -5.67715e-09 0)
(8.63057e-08 -5.2957e-09 0)
(8.88764e-08 -4.97391e-09 0)
(9.14243e-08 -4.69559e-09 0)
(9.39577e-08 -4.44535e-09 0)
(9.64832e-08 -4.21039e-09 0)
(9.90057e-08 -3.98033e-09 0)
(1.01529e-07 -3.74662e-09 0)
(1.04056e-07 -3.50208e-09 0)
(1.06587e-07 -3.24033e-09 0)
(1.09124e-07 -2.95548e-09 0)
(1.11666e-07 -2.64171e-09 0)
(1.14212e-07 -2.29306e-09 0)
(1.16762e-07 -1.90303e-09 0)
(1.19312e-07 -1.46443e-09 0)
(1.21861e-07 -9.68954e-10 0)
(1.24403e-07 -4.06828e-10 0)
(1.26936e-07 2.33925e-10 0)
(1.29452e-07 9.69057e-10 0)
(1.31946e-07 1.82236e-09 0)
(7.86697e-08 -7.61702e-09 0)
(8.16529e-08 -7.04662e-09 0)
(8.45667e-08 -6.56297e-09 0)
(8.74238e-08 -6.14655e-09 0)
(9.02365e-08 -5.77761e-09 0)
(9.30146e-08 -5.43927e-09 0)
(9.57662e-08 -5.11754e-09 0)
(9.84981e-08 -4.80073e-09 0)
(1.01215e-07 -4.47894e-09 0)
(1.03922e-07 -4.14344e-09 0)
(1.0662e-07 -3.78625e-09 0)
(1.09312e-07 -3.39966e-09 0)
(1.11999e-07 -2.9759e-09 0)
(1.14679e-07 -2.50672e-09 0)
(1.17354e-07 -1.9831e-09 0)
(1.2002e-07 -1.39474e-09 0)
(1.22676e-07 -7.29686e-10 0)
(1.25318e-07 2.65277e-11 0)
(1.27942e-07 8.92512e-10 0)
(1.30543e-07 1.89552e-09 0)
(7.31665e-08 -9.90342e-09 0)
(7.65424e-08 -9.10525e-09 0)
(7.98167e-08 -8.42413e-09 0)
(8.30032e-08 -7.83793e-09 0)
(8.61162e-08 -7.3227e-09 0)
(8.91682e-08 -6.85738e-09 0)
(9.217e-08 -6.42413e-09 0)
(9.51308e-08 -6.0077e-09 0)
(9.8058e-08 -5.59516e-09 0)
(1.00958e-07 -5.17497e-09 0)
(1.03835e-07 -4.73681e-09 0)
(1.06693e-07 -4.27071e-09 0)
(1.09535e-07 -3.76694e-09 0)
(1.12361e-07 -3.21523e-09 0)
(1.15173e-07 -2.60463e-09 0)
(1.1797e-07 -1.92276e-09 0)
(1.20751e-07 -1.15544e-09 0)
(1.23514e-07 -2.85608e-10 0)
(1.26258e-07 7.08163e-10 0)
(1.28977e-07 1.85645e-09 0)
(6.73265e-08 -1.25176e-08 0)
(7.10925e-08 -1.14607e-08 0)
(7.47317e-08 -1.05517e-08 0)
(7.8256e-08 -9.76735e-09 0)
(8.16809e-08 -9.08001e-09 0)
(8.50201e-08 -8.46519e-09 0)
(8.82862e-08 -7.90094e-09 0)
(9.14903e-08 -7.36867e-09 0)
(9.4642e-08 -6.85177e-09 0)
(9.77492e-08 -6.33599e-09 0)
(1.00819e-07 -5.80801e-09 0)
(1.03856e-07 -5.25573e-09 0)
(1.06864e-07 -4.66686e-09 0)
(1.09847e-07 -4.02934e-09 0)
(1.12807e-07 -3.32984e-09 0)
(1.15745e-07 -2.55418e-09 0)
(1.18661e-07 -1.68559e-09 0)
(1.21555e-07 -7.04898e-10 0)
(1.24426e-07 4.12691e-10 0)
(1.27274e-07 1.70001e-09 0)
(6.12907e-08 -1.54174e-08 0)
(6.54341e-08 -1.40797e-08 0)
(6.94294e-08 -1.29204e-08 0)
(7.32883e-08 -1.19146e-08 0)
(7.70255e-08 -1.10337e-08 0)
(8.06557e-08 -1.02496e-08 0)
(8.41919e-08 -9.53736e-09 0)
(8.76467e-08 -8.87442e-09 0)
(9.10308e-08 -8.24114e-09 0)
(9.4354e-08 -7.61961e-09 0)
(9.76243e-08 -6.99407e-09 0)
(1.00849e-07 -6.3493e-09 0)
(1.04032e-07 -5.67112e-09 0)
(1.0718e-07 -4.9447e-09 0)
(1.10296e-07 -4.15513e-09 0)
(1.13381e-07 -3.28557e-09 0)
(1.16439e-07 -2.31771e-09 0)
(1.1947e-07 -1.22942e-09 0)
(1.22477e-07 5.6733e-12 0)
(1.2546e-07 1.42457e-09 0)
(5.68649e-08 -1.80237e-08 0)
(6.12354e-08 -1.64755e-08 0)
(6.54418e-08 -1.51302e-08 0)
(6.95041e-08 -1.39534e-08 0)
(7.34365e-08 -1.29141e-08 0)
(7.72522e-08 -1.1984e-08 0)
(8.09636e-08 -1.11375e-08 0)
(8.45824e-08 -1.03512e-08 0)
(8.81193e-08 -9.60409e-09 0)
(9.15841e-08 -8.87702e-09 0)
(9.49854e-08 -8.15252e-09 0)
(9.83307e-08 -7.41419e-09 0)
(1.01626e-07 -6.64616e-09 0)
(1.04878e-07 -5.8326e-09 0)
(1.08089e-07 -4.95707e-09 0)
(1.11264e-07 -4.00198e-09 0)
(1.14407e-07 -2.94774e-09 0)
(1.1752e-07 -1.77194e-09 0)
(1.20606e-07 -4.47422e-10 0)
(1.23671e-07 1.06268e-09 0)
(5.43257e-08 -2.00457e-08 0)
(5.87099e-08 -1.84351e-08 0)
(6.29569e-08 -1.7001e-08 0)
(6.7073e-08 -1.57258e-08 0)
(7.10663e-08 -1.45836e-08 0)
(7.49463e-08 -1.35489e-08 0)
(7.87224e-08 -1.25981e-08 0)
(8.24044e-08 -1.17095e-08 0)
(8.60013e-08 -1.08631e-08 0)
(8.9522e-08 -1.00404e-08 0)
(9.29742e-08 -9.22403e-09 0)
(9.63652e-08 -8.39762e-09 0)
(9.97014e-08 -7.54517e-09 0)
(1.02988e-07 -6.6507e-09 0)
(1.06231e-07 -5.69773e-09 0)
(1.09433e-07 -4.66874e-09 0)
(1.126e-07 -3.54449e-09 0)
(1.15736e-07 -2.30329e-09 0)
(1.18845e-07 -9.19839e-10 0)
(1.21934e-07 6.40197e-10 0)
(5.20701e-08 -2.19677e-08 0)
(5.64223e-08 -2.03258e-08 0)
(6.06662e-08 -1.88305e-08 0)
(6.47985e-08 -1.74765e-08 0)
(6.88205e-08 -1.62458e-08 0)
(7.27367e-08 -1.51175e-08 0)
(7.65535e-08 -1.40712e-08 0)
(8.0278e-08 -1.3087e-08 0)
(8.39174e-08 -1.21465e-08 0)
(8.74791e-08 -1.12321e-08 0)
(9.097e-08 -1.03271e-08 0)
(9.43967e-08 -9.41545e-09 0)
(9.77652e-08 -8.48143e-09 0)
(1.01081e-07 -7.50923e-09 0)
(1.0435e-07 -6.48264e-09 0)
(1.07576e-07 -5.38458e-09 0)
(1.10765e-07 -4.19649e-09 0)
(1.13922e-07 -2.89785e-09 0)
(1.17052e-07 -1.46516e-09 0)
(1.20165e-07 1.32578e-10 0)
(5.00688e-08 -2.37936e-08 0)
(5.43643e-08 -2.21383e-08 0)
(5.85744e-08 -2.06029e-08 0)
(6.2692e-08 -1.91886e-08 0)
(6.67138e-08 -1.78845e-08 0)
(7.06405e-08 -1.66749e-08 0)
(7.44749e-08 -1.55427e-08 0)
(7.82217e-08 -1.44709e-08 0)
(8.18861e-08 -1.34427e-08 0)
(8.54738e-08 -1.2442e-08 0)
(8.89907e-08 -1.14529e-08 0)
(9.24425e-08 -1.04602e-08 0)
(9.58348e-08 -9.44856e-09 0)
(9.91729e-08 -8.40276e-09 0)
(1.02462e-07 -7.30714e-09 0)
(1.05708e-07 -6.14535e-09 0)
(1.08916e-07 -4.89983e-09 0)
(1.12091e-07 -3.55145e-09 0)
(1.15242e-07 -2.07898e-09 0)
(1.18376e-07 -4.54334e-10 0)
(4.82874e-08 -2.55245e-08 0)
(5.25104e-08 -2.38684e-08 0)
(5.66662e-08 -2.23083e-08 0)
(6.07464e-08 -2.08495e-08 0)
(6.47453e-08 -1.94863e-08 0)
(6.86607e-08 -1.82076e-08 0)
(7.24929e-08 -1.70002e-08 0)
(7.62441e-08 -1.58496e-08 0)
(7.99175e-08 -1.47413e-08 0)
(8.35173e-08 -1.36607e-08 0)
(8.70483e-08 -1.25932e-08 0)
(9.05151e-08 -1.15245e-08 0)
(9.39228e-08 -1.04402e-08 0)
(9.72765e-08 -9.32573e-09 0)
(1.00581e-07 -8.16631e-09 0)
(1.03842e-07 -6.94655e-09 0)
(1.07066e-07 -5.65011e-09 0)
(1.10258e-07 -4.25951e-09 0)
(1.13426e-07 -2.75565e-09 0)
(1.16579e-07 -1.11406e-09 0)
(4.66935e-08 -2.71634e-08 0)
(5.08332e-08 -2.55153e-08 0)
(5.49209e-08 -2.3942e-08 0)
(5.89477e-08 -2.24516e-08 0)
(6.29068e-08 -2.10418e-08 0)
(6.6794e-08 -1.97058e-08 0)
(7.06077e-08 -1.84334e-08 0)
(7.4348e-08 -1.72133e-08 0)
(7.80168e-08 -1.6033e-08 0)
(8.16166e-08 -1.48797e-08 0)
(8.51509e-08 -1.37403e-08 0)
(8.86237e-08 -1.26016e-08 0)
(9.20392e-08 -1.14502e-08 0)
(9.5402e-08 -1.02727e-08 0)
(9.87169e-08 -9.05513e-09 0)
(1.01989e-07 -7.78341e-09 0)
(1.05225e-07 -6.44252e-09 0)
(1.08431e-07 -5.01674e-09 0)
(1.11614e-07 -3.48944e-09 0)
(1.14785e-07 -1.83932e-09 0)
(4.52564e-08 -2.87146e-08 0)
(4.93063e-08 -2.70808e-08 0)
(5.33171e-08 -2.55029e-08 0)
(5.72797e-08 -2.39908e-08 0)
(6.11867e-08 -2.25452e-08 0)
(6.50329e-08 -2.11622e-08 0)
(6.88154e-08 -1.98349e-08 0)
(7.25328e-08 -1.85544e-08 0)
(7.61856e-08 -1.73104e-08 0)
(7.97751e-08 -1.60919e-08 0)
(8.33037e-08 -1.48875e-08 0)
(8.67744e-08 -1.36853e-08 0)
(9.01908e-08 -1.2473e-08 0)
(9.35571e-08 -1.12383e-08 0)
(9.68776e-08 -9.96864e-09 0)
(1.00158e-07 -8.65105e-09 0)
(1.03403e-07 -7.27208e-09 0)
(1.0662e-07 -5.8178e-09 0)
(1.09817e-07 -4.27387e-09 0)
(1.13003e-07 -2.62267e-09 0)
(4.39485e-08 -3.01837e-08 0)
(4.79055e-08 -2.85681e-08 0)
(5.18341e-08 -2.6992e-08 0)
(5.57254e-08 -2.5466e-08 0)
(5.9572e-08 -2.39934e-08 0)
(6.3368e-08 -2.25726e-08 0)
(6.71097e-08 -2.11994e-08 0)
(7.07948e-08 -1.9867e-08 0)
(7.44225e-08 -1.85675e-08 0)
(7.79934e-08 -1.72915e-08 0)
(8.15087e-08 -1.60292e-08 0)
(8.49707e-08 -1.47701e-08 0)
(8.83823e-08 -1.35033e-08 0)
(9.1747e-08 -1.22178e-08 0)
(9.50691e-08 -1.09021e-08 0)
(9.83532e-08 -9.54473e-09 0)
(1.01605e-07 -8.13376e-09 0)
(1.04831e-07 -6.65708e-09 0)
(1.08039e-07 -5.10278e-09 0)
(1.11238e-07 -3.45633e-09 0)
(4.27448e-08 -3.15771e-08 0)
(4.66082e-08 -2.99819e-08 0)
(5.0452e-08 -2.84117e-08 0)
(5.4268e-08 -2.6878e-08 0)
(5.80487e-08 -2.53854e-08 0)
(6.17883e-08 -2.39347e-08 0)
(6.54825e-08 -2.25236e-08 0)
(6.91283e-08 -2.11474e-08 0)
(7.27243e-08 -1.98001e-08 0)
(7.627e-08 -1.84741e-08 0)
(7.97661e-08 -1.7161e-08 0)
(8.3214e-08 -1.58517e-08 0)
(8.6616e-08 -1.45369e-08 0)
(8.99751e-08 -1.32067e-08 0)
(9.3295e-08 -1.1851e-08 0)
(9.65803e-08 -1.04598e-08 0)
(9.98361e-08 -9.02268e-09 0)
(1.03069e-07 -7.52923e-09 0)
(1.06286e-07 -5.96967e-09 0)
(1.09496e-07 -4.33286e-09 0)
(4.16231e-08 -3.29013e-08 0)
(4.53937e-08 -3.13271e-08 0)
(4.91523e-08 -2.97657e-08 0)
(5.2891e-08 -2.82286e-08 0)
(5.66029e-08 -2.67219e-08 0)
(6.02822e-08 -2.52478e-08 0)
(6.39244e-08 -2.38058e-08 0)
(6.75262e-08 -2.23931e-08 0)
(7.10856e-08 -2.10052e-08 0)
(7.46015e-08 -1.96362e-08 0)
(7.80739e-08 -1.82792e-08 0)
(8.15036e-08 -1.69265e-08 0)
(8.48923e-08 -1.55699e-08 0)
(8.82425e-08 -1.42011e-08 0)
(9.15575e-08 -1.28114e-08 0)
(9.48414e-08 -1.13921e-08 0)
(9.8099e-08 -9.93413e-09 0)
(1.01336e-07 -8.42891e-09 0)
(1.0456e-07 -6.86873e-09 0)
(1.07779e-07 -5.24495e-09 0)
(4.05633e-08 -3.41626e-08 0)
(4.42433e-08 -3.26092e-08 0)
(4.79175e-08 -3.1058e-08 0)
(5.15787e-08 -2.95208e-08 0)
(5.52206e-08 -2.80044e-08 0)
(5.88377e-08 -2.65124e-08 0)
(6.24255e-08 -2.50457e-08 0)
(6.59804e-08 -2.3603e-08 0)
(6.95001e-08 -2.21812e-08 0)
(7.2983e-08 -2.07759e-08 0)
(7.64287e-08 -1.93814e-08 0)
(7.98374e-08 -1.79915e-08 0)
(8.32102e-08 -1.65994e-08 0)
(8.65491e-08 -1.51979e-08 0)
(8.98569e-08 -1.37797e-08 0)
(9.31373e-08 -1.23375e-08 0)
(9.63949e-08 -1.08638e-08 0)
(9.96352e-08 -9.35129e-09 0)
(1.02864e-07 -7.79405e-09 0)
(1.06091e-07 -6.18605e-09 0)
(3.95474e-08 -3.53672e-08 0)
(4.31394e-08 -3.38335e-08 0)
(4.67311e-08 -3.22931e-08 0)
(5.03159e-08 -3.07579e-08 0)
(5.38882e-08 -2.92353e-08 0)
(5.74427e-08 -2.773e-08 0)
(6.09751e-08 -2.62439e-08 0)
(6.44818e-08 -2.4777e-08 0)
(6.79603e-08 -2.33274e-08 0)
(7.14088e-08 -2.18919e-08 0)
(7.48261e-08 -2.04661e-08 0)
(7.82121e-08 -1.9045e-08 0)
(8.15674e-08 -1.76229e-08 0)
(8.48934e-08 -1.61941e-08 0)
(8.81924e-08 -1.47526e-08 0)
(9.14678e-08 -1.32925e-08 0)
(9.47237e-08 -1.18074e-08 0)
(9.79652e-08 -1.02917e-08 0)
(1.01198e-07 -8.74066e-09 0)
(1.0443e-07 -7.15004e-09 0)
(3.85584e-08 -3.65206e-08 0)
(4.20657e-08 -3.50049e-08 0)
(4.55774e-08 -3.34754e-08 0)
(4.90878e-08 -3.19437e-08 0)
(5.25919e-08 -3.04177e-08 0)
(5.60848e-08 -2.89028e-08 0)
(5.95623e-08 -2.74019e-08 0)
(6.30211e-08 -2.5916e-08 0)
(6.64584e-08 -2.44441e-08 0)
(6.98719e-08 -2.2984e-08 0)
(7.32605e-08 -2.15325e-08 0)
(7.66233e-08 -2.00857e-08 0)
(7.99605e-08 -1.8639e-08 0)
(8.3273e-08 -1.71878e-08 0)
(8.65624e-08 -1.57276e-08 0)
(8.98317e-08 -1.42538e-08 0)
(9.30846e-08 -1.27614e-08 0)
(9.63259e-08 -1.12459e-08 0)
(9.95612e-08 -9.70362e-09 0)
(1.02797e-07 -8.13186e-09 0)
(3.75805e-08 -3.76277e-08 0)
(4.10065e-08 -3.61283e-08 0)
(4.44413e-08 -3.46093e-08 0)
(4.78802e-08 -3.3082e-08 0)
(5.13185e-08 -3.15548e-08 0)
(5.47519e-08 -3.00335e-08 0)
(5.81764e-08 -2.85219e-08 0)
(6.15886e-08 -2.70215e-08 0)
(6.49857e-08 -2.55323e-08 0)
(6.83654e-08 -2.40529e-08 0)
(7.17259e-08 -2.25809e-08 0)
(7.50662e-08 -2.11133e-08 0)
(7.83857e-08 -1.96467e-08 0)
(8.16848e-08 -1.81775e-08 0)
(8.49647e-08 -1.67025e-08 0)
(8.82274e-08 -1.52186e-08 0)
(9.14763e-08 -1.37222e-08 0)
(9.47161e-08 -1.22099e-08 0)
(9.79523e-08 -1.06791e-08 0)
(1.0119e-07 -9.12705e-09 0)
(3.6598e-08 -3.86932e-08 0)
(3.99463e-08 -3.72082e-08 0)
(4.3308e-08 -3.5699e-08 0)
(4.66789e-08 -3.41768e-08 0)
(5.00548e-08 -3.26501e-08 0)
(5.34317e-08 -3.11253e-08 0)
(5.68061e-08 -2.96065e-08 0)
(6.01744e-08 -2.80958e-08 0)
(6.35337e-08 -2.65938e-08 0)
(6.68815e-08 -2.50998e-08 0)
(7.02159e-08 -2.36121e-08 0)
(7.35352e-08 -2.21283e-08 0)
(7.68386e-08 -2.06459e-08 0)
(8.01256e-08 -1.91625e-08 0)
(8.33967e-08 -1.76759e-08 0)
(8.66532e-08 -1.61845e-08 0)
(8.98978e-08 -1.46867e-08 0)
(9.31349e-08 -1.31802e-08 0)
(9.63701e-08 -1.16628e-08 0)
(9.96099e-08 -1.01324e-08 0)
(3.55953e-08 -3.97211e-08 0)
(3.88698e-08 -3.82489e-08 0)
(4.21625e-08 -3.67489e-08 0)
(4.54697e-08 -3.52322e-08 0)
(4.87875e-08 -3.37077e-08 0)
(5.21123e-08 -3.21819e-08 0)
(5.54405e-08 -3.0659e-08 0)
(5.87687e-08 -2.91418e-08 0)
(6.20936e-08 -2.76311e-08 0)
(6.54128e-08 -2.61268e-08 0)
(6.87237e-08 -2.46276e-08 0)
(7.20247e-08 -2.31319e-08 0)
(7.53143e-08 -2.16375e-08 0)
(7.85914e-08 -2.0143e-08 0)
(8.18558e-08 -1.86472e-08 0)
(8.51077e-08 -1.715e-08 0)
(8.83486e-08 -1.56519e-08 0)
(9.15822e-08 -1.41527e-08 0)
(9.48151e-08 -1.26518e-08 0)
(9.80545e-08 -1.11453e-08 0)
(3.45559e-08 -4.07153e-08 0)
(3.77609e-08 -3.92545e-08 0)
(4.09894e-08 -3.77632e-08 0)
(4.42381e-08 -3.62527e-08 0)
(4.75034e-08 -3.47319e-08 0)
(5.07815e-08 -3.32072e-08 0)
(5.40689e-08 -3.16833e-08 0)
(5.73619e-08 -3.01629e-08 0)
(6.06571e-08 -2.86473e-08 0)
(6.39516e-08 -2.71366e-08 0)
(6.72429e-08 -2.56299e-08 0)
(7.05288e-08 -2.41259e-08 0)
(7.38076e-08 -2.2623e-08 0)
(7.7078e-08 -2.11201e-08 0)
(8.03387e-08 -1.96169e-08 0)
(8.35891e-08 -1.81146e-08 0)
(8.6829e-08 -1.66156e-08 0)
(9.00602e-08 -1.51237e-08 0)
(9.32885e-08 -1.36412e-08 0)
(9.65257e-08 -1.21645e-08 0)
(3.34617e-08 -4.16796e-08 0)
(3.66021e-08 -4.02291e-08 0)
(3.97722e-08 -3.87465e-08 0)
(4.29689e-08 -3.7243e-08 0)
(4.61885e-08 -3.57274e-08 0)
(4.94271e-08 -3.42062e-08 0)
(5.26804e-08 -3.26838e-08 0)
(5.59446e-08 -3.11633e-08 0)
(5.92158e-08 -2.9646e-08 0)
(6.24908e-08 -2.81323e-08 0)
(6.57669e-08 -2.66216e-08 0)
(6.90415e-08 -2.51128e-08 0)
(7.23129e-08 -2.36046e-08 0)
(7.55796e-08 -2.2096e-08 0)
(7.88404e-08 -2.05871e-08 0)
(8.20939e-08 -1.90795e-08 0)
(8.53383e-08 -1.75775e-08 0)
(8.85721e-08 -1.60893e-08 0)
(9.17982e-08 -1.46264e-08 0)
(9.50292e-08 -1.31896e-08 0)
(3.22913e-08 -4.26178e-08 0)
(3.53725e-08 -4.11772e-08 0)
(3.84916e-08 -3.97038e-08 0)
(4.16449e-08 -3.82088e-08 0)
(4.48279e-08 -3.67003e-08 0)
(4.80359e-08 -3.51845e-08 0)
(5.12638e-08 -3.36661e-08 0)
(5.45071e-08 -3.21479e-08 0)
(5.77615e-08 -3.06316e-08 0)
(6.10232e-08 -2.91177e-08 0)
(6.4289e-08 -2.76058e-08 0)
(6.75564e-08 -2.6095e-08 0)
(7.08236e-08 -2.45843e-08 0)
(7.40894e-08 -2.30727e-08 0)
(7.73531e-08 -2.15603e-08 0)
(8.06139e-08 -2.00482e-08 0)
(8.38706e-08 -1.85408e-08 0)
(8.71198e-08 -1.70501e-08 0)
(9.0357e-08 -1.56008e-08 0)
(9.3588e-08 -1.42198e-08 0)
(3.10157e-08 -4.3533e-08 0)
(3.40451e-08 -4.21035e-08 0)
(3.71238e-08 -4.06416e-08 0)
(4.02456e-08 -3.91571e-08 0)
(4.34042e-08 -3.76577e-08 0)
(4.65934e-08 -3.61494e-08 0)
(4.98072e-08 -3.46368e-08 0)
(5.30399e-08 -3.31228e-08 0)
(5.62863e-08 -3.16093e-08 0)
(5.95421e-08 -3.00971e-08 0)
(6.28036e-08 -2.85859e-08 0)
(6.6068e-08 -2.70751e-08 0)
(6.93337e-08 -2.55639e-08 0)
(7.25998e-08 -2.40516e-08 0)
(7.58666e-08 -2.25382e-08 0)
(7.91353e-08 -2.10243e-08 0)
(8.24087e-08 -1.9513e-08 0)
(8.56897e-08 -1.80165e-08 0)
(8.89794e-08 -1.65692e-08 0)
(9.2268e-08 -1.52466e-08 0)
(2.3896e-09 -4.26583e-08 0)
(7.20893e-09 -4.20483e-08 0)
(1.21198e-08 -4.0761e-08 0)
(1.71751e-08 -3.88812e-08 0)
(2.24152e-08 -3.6492e-08 0)
(2.78636e-08 -3.36878e-08 0)
(3.35252e-08 -3.05748e-08 0)
(3.93839e-08 -2.72656e-08 0)
(4.54023e-08 -2.38742e-08 0)
(5.15217e-08 -2.05115e-08 0)
(2.31651e-09 -4.30118e-08 0)
(6.98115e-09 -4.246e-08 0)
(1.17213e-08 -4.12904e-08 0)
(1.65818e-08 -3.95766e-08 0)
(2.1597e-08 -3.739e-08 0)
(2.67878e-08 -3.48114e-08 0)
(3.21603e-08 -3.19312e-08 0)
(3.77037e-08 -2.88461e-08 0)
(4.33903e-08 -2.5656e-08 0)
(4.91744e-08 -2.24649e-08 0)
(2.25152e-09 -4.33983e-08 0)
(6.78018e-09 -4.28958e-08 0)
(1.13708e-08 -4.18278e-08 0)
(1.60613e-08 -4.0259e-08 0)
(2.08805e-08 -3.82512e-08 0)
(2.58466e-08 -3.58745e-08 0)
(3.09657e-08 -3.32068e-08 0)
(3.62306e-08 -3.03319e-08 0)
(4.16203e-08 -2.73376e-08 0)
(4.7099e-08 -2.43171e-08 0)
(2.19314e-09 -4.38166e-08 0)
(6.60056e-09 -4.33563e-08 0)
(1.1059e-08 -4.23762e-08 0)
(1.56001e-08 -4.09338e-08 0)
(2.02482e-08 -3.90834e-08 0)
(2.50188e-08 -3.68863e-08 0)
(2.99172e-08 -3.44106e-08 0)
(3.49384e-08 -3.17297e-08 0)
(4.00659e-08 -2.89207e-08 0)
(4.52703e-08 -2.6067e-08 0)
(2.1398e-09 -4.42651e-08 0)
(6.43704e-09 -4.38412e-08 0)
(1.07765e-08 -4.29374e-08 0)
(1.51847e-08 -4.16054e-08 0)
(1.9682e-08 -3.98934e-08 0)
(2.42812e-08 -3.78557e-08 0)
(2.8987e-08 -3.55527e-08 0)
(3.37952e-08 -3.3049e-08 0)
(3.86925e-08 -3.04129e-08 0)
(4.36539e-08 -2.77188e-08 0)
(2.09016e-09 -4.4742e-08 0)
(6.28533e-09 -4.43497e-08 0)
(1.05158e-08 -4.35122e-08 0)
(1.48038e-08 -4.22768e-08 0)
(1.91663e-08 -4.06866e-08 0)
(2.36139e-08 -3.87903e-08 0)
(2.81504e-08 -3.66416e-08 0)
(3.27722e-08 -3.42986e-08 0)
(3.74677e-08 -3.1822e-08 0)
(4.22157e-08 -2.92781e-08 0)
(2.04315e-09 -4.52453e-08 0)
(6.14206e-09 -4.48804e-08 0)
(1.02708e-08 -4.4101e-08 0)
(1.44482e-08 -4.29501e-08 0)
(1.86886e-08 -4.14672e-08 0)
(2.30006e-08 -3.9696e-08 0)
(2.73871e-08 -3.76852e-08 0)
(3.18447e-08 -3.5487e-08 0)
(3.63632e-08 -3.31559e-08 0)
(4.09241e-08 -3.07513e-08 0)
(1.99789e-09 -4.57728e-08 0)
(6.00451e-09 -4.54319e-08 0)
(1.00368e-08 -4.47032e-08 0)
(1.41108e-08 -4.36268e-08 0)
(1.82387e-08 -4.22385e-08 0)
(2.24277e-08 -4.05781e-08 0)
(2.66799e-08 -3.86901e-08 0)
(3.09917e-08 -3.66218e-08 0)
(3.53543e-08 -3.44226e-08 0)
(3.97511e-08 -3.21458e-08 0)
(1.95366e-09 -4.6322e-08 0)
(5.87047e-09 -4.60022e-08 0)
(9.80974e-09 -4.53184e-08 0)
(1.37856e-08 -4.43076e-08 0)
(1.78083e-08 -4.30029e-08 0)
(2.18841e-08 -4.14408e-08 0)
(2.60144e-08 -3.96621e-08 0)
(3.01957e-08 -3.771e-08 0)
(3.44199e-08 -3.56297e-08 0)
(3.86721e-08 -3.34691e-08 0)
(1.90986e-09 -4.68908e-08 0)
(5.73805e-09 -4.65896e-08 0)
(9.58637e-09 -4.59454e-08 0)
(1.34674e-08 -4.49928e-08 0)
(1.73903e-08 -4.37621e-08 0)
(2.13603e-08 -4.22874e-08 0)
(2.53785e-08 -4.06059e-08 0)
(2.94414e-08 -3.87577e-08 0)
(3.35415e-08 -3.67841e-08 0)
(3.76655e-08 -3.47285e-08 0)
(1.86594e-09 -4.74765e-08 0)
(5.60555e-09 -4.71918e-08 0)
(9.36371e-09 -4.65829e-08 0)
(1.31519e-08 -4.5682e-08 0)
(1.69785e-08 -4.45174e-08 0)
(2.08481e-08 -4.31204e-08 0)
(2.47616e-08 -4.15257e-08 0)
(2.87156e-08 -3.97702e-08 0)
(3.27032e-08 -3.7892e-08 0)
(3.67123e-08 -3.59308e-08 0)
(1.82139e-09 -4.80766e-08 0)
(5.47143e-09 -4.78067e-08 0)
(9.13903e-09 -4.72294e-08 0)
(1.2835e-08 -4.63748e-08 0)
(1.65672e-08 -4.52692e-08 0)
(2.034e-08 -4.39416e-08 0)
(2.4154e-08 -4.24243e-08 0)
(2.80063e-08 -4.07517e-08 0)
(3.18904e-08 -3.89588e-08 0)
(3.57954e-08 -3.7082e-08 0)
(1.77572e-09 -4.86885e-08 0)
(5.33416e-09 -4.84319e-08 0)
(8.90971e-09 -4.7883e-08 0)
(1.25128e-08 -4.70701e-08 0)
(1.61511e-08 -4.60174e-08 0)
(1.98288e-08 -4.47522e-08 0)
(2.35468e-08 -4.33043e-08 0)
(2.73025e-08 -4.17057e-08 0)
(3.10899e-08 -3.9989e-08 0)
(3.48991e-08 -3.81876e-08 0)
(1.72841e-09 -4.93091e-08 0)
(5.1922e-09 -4.90646e-08 0)
(8.6731e-09 -4.85416e-08 0)
(1.21814e-08 -4.77664e-08 0)
(1.57248e-08 -4.67617e-08 0)
(1.93077e-08 -4.55526e-08 0)
(2.29313e-08 -4.41672e-08 0)
(2.65935e-08 -4.2635e-08 0)
(3.02889e-08 -4.09865e-08 0)
(3.40085e-08 -3.92524e-08 0)
(1.67892e-09 -4.99353e-08 0)
(5.04395e-09 -4.97019e-08 0)
(8.42644e-09 -4.92027e-08 0)
(1.18368e-08 -4.8462e-08 0)
(1.52829e-08 -4.75009e-08 0)
(1.87696e-08 -4.63429e-08 0)
(2.22987e-08 -4.50139e-08 0)
(2.58687e-08 -4.35417e-08 0)
(2.94748e-08 -4.19544e-08 0)
(3.31089e-08 -4.02803e-08 0)
(1.62669e-09 -5.05635e-08 0)
(4.88771e-09 -5.03406e-08 0)
(8.16687e-09 -4.98634e-08 0)
(1.14748e-08 -4.91545e-08 0)
(1.48196e-08 -4.82334e-08 0)
(1.82071e-08 -4.71222e-08 0)
(2.16397e-08 -4.58449e-08 0)
(2.51168e-08 -4.44272e-08 0)
(2.86345e-08 -4.28951e-08 0)
(3.21855e-08 -4.1275e-08 0)
(1.57111e-09 -5.11898e-08 0)
(4.72175e-09 -5.0977e-08 0)
(7.89126e-09 -5.05206e-08 0)
(1.10905e-08 -4.98411e-08 0)
(1.43286e-08 -4.89571e-08 0)
(1.76119e-08 -4.78891e-08 0)
(2.09442e-08 -4.66596e-08 0)
(2.43258e-08 -4.52922e-08 0)
(2.7754e-08 -4.38108e-08 0)
(3.12225e-08 -4.22394e-08 0)
(1.51183e-09 -5.18095e-08 0)
(4.54455e-09 -5.1607e-08 0)
(7.59636e-09 -5.11703e-08 0)
(1.06791e-08 -5.05184e-08 0)
(1.38028e-08 -4.96691e-08 0)
(1.69753e-08 -4.86417e-08 0)
(2.02013e-08 -4.74571e-08 0)
(2.34826e-08 -4.61369e-08 0)
(2.68179e-08 -4.47029e-08 0)
(3.02023e-08 -4.31767e-08 0)
(1.44991e-09 -5.24179e-08 0)
(4.35543e-09 -5.2226e-08 0)
(7.27914e-09 -5.18078e-08 0)
(1.02353e-08 -5.1182e-08 0)
(1.32355e-08 -5.03657e-08 0)
(1.62885e-08 -4.93771e-08 0)
(1.94003e-08 -4.82354e-08 0)
(2.25737e-08 -4.69606e-08 0)
(2.58093e-08 -4.55723e-08 0)
(2.91045e-08 -4.40893e-08 0)
(1.39176e-09 -5.30111e-08 0)
(4.15612e-09 -5.28286e-08 0)
(6.9391e-09 -5.24276e-08 0)
(9.7579e-09 -5.18271e-08 0)
(1.26246e-08 -5.1043e-08 0)
(1.55483e-08 -5.0092e-08 0)
(1.85356e-08 -4.8992e-08 0)
(2.15906e-08 -4.77614e-08 0)
(2.47146e-08 -4.6418e-08 0)
(2.79077e-08 -4.49784e-08 0)
)
;

boundaryField
{
    left
    {
        type            symmetryPlane;
    }
    right
    {
        type            tractionDisplacement;
        traction        uniform (10000 0 0);
        pressure        uniform 0;
        value           nonuniform List<vector> 
30
(
(1.36766e-07 2.27278e-10 -7.53106e-26)
(1.36541e-07 7.59521e-10 -1.07221e-25)