/*--------------------------------*- C++ -*----------------------------------*\
| =========                 |                                                 |
| \\      /  F ield         | OpenFOAM: The Open Source CFD Toolbox           |
|  \\    /   O peration     | Version:  2.3.0                                 |
|   \\  /    A nd           | Web:      www.OpenFOAM.org                      |
|    \\/     M anipulation  |                                                 |
\*---------------------------------------------------------------------------*/
FoamFile
{
    version     2.0;
    format      ascii;
    class       volScalarField;
    location    "2";
    object      p;
}
// * * * * * * * * * * * * * * * * * * * * * * * * * * * * * * * * * * * * * //

dimensions      [0 2 -2 0 0 0 0];

internalField   nonuniform List<scalar> 
1720
(
0.000753925
0.000740211
0.000438316
0.000256648
0.000255803
0.000332758
0.000390763
0.00040101
0.000378857
0.000345889
0.00031264
0.000277287
0.000235305
0.000182964
0.000121745
5.32316e-05
-1.64581e-05
-8.53909e-05
-0.000152323
-0.00021032
-0.000256215
-0.000288972
-0.000310079
-0.000323099
-0.000332468
-0.000341145
-0.000350226
-0.000359393
-0.000367929
-0.000374813
-0.000377698
-0.000377868
-0.000409615
-0.000624439
-0.00155092
-0.00280247
-0.00405125
-0.00520051
-0.00625726
-0.00724909
-0.00818842
-0.00907373
-0.00989548
-0.0106466
-0.011318
-0.0119046
-0.0123966
-0.01279
-0.013073
-0.0132427
-0.0132829
-0.0131914
-0.0129419
-0.0125293
-0.0119033
-0.011043
-0.00983744
-0.00822372
-0.00598194
-0.00304367
0.00235401
0.00204486
0.00116969
0.000767703
0.000823313
0.00102423
0.00115634
0.0011726
0.00111374
0.00102736
0.000935094
0.00083194
0.000706603
0.000550937
0.000366491
0.000160695
-5.38885e-05
-0.000266727
-0.000465961
-0.00063785
-0.000773264
-0.000869147
-0.000931498
-0.000971383
-0.00100182
-0.00103045
-0.00106085
-0.0010909
-0.00112166
-0.00115192
-0.00119093
-0.0012519
-0.00136593
-0.0015275
-0.00169205
-0.00185085
-0.00196881
-0.00200278
-0.00196521
-0.00188804
-0.00179072
-0.00168213
-0.00156432
-0.00143861
-0.00130417
-0.00116241
-0.00101165
-0.000853258
-0.000683524
-0.00050399
-0.000309091
-0.000101942
0.00012408
0.000361923
0.000615065
0.000866062
0.00109449
0.00124869
0.001211
0.000742256
0.00408739
0.00319428
0.00179648
0.00130157
0.00145159
0.00174765
0.00192097
0.00193191
0.00184346
0.0017157
0.00157365
0.00140651
0.00119868
0.000937448
0.000624869
0.00027159
-0.000103565
-0.000476151
-0.000820434
-0.00111314
-0.00133771
-0.00149101
-0.00158827
-0.0016523
-0.00170357
-0.00175375
-0.0018068
-0.00186065
-0.00191699
-0.00197672
-0.00205022
-0.0021446
-0.00227203
-0.00242797
-0.00264947
-0.0029528
-0.00328477
-0.00361949
-0.00392625
-0.00419089
-0.00441417
-0.00459956
-0.00474988
-0.0048646
-0.00494417
-0.00498775
-0.00499742
-0.00497205
-0.00491346
-0.00481823
-0.00468728
-0.00451475
-0.00430011
-0.00403425
-0.00371419
-0.00332705
-0.00286675
-0.00231845
-0.00166485
-0.000848677
0.00552968
0.00429114
0.00243887
0.0018631
0.00211479
0.00248948
0.00268686
0.00268859
0.00257907
0.00242269
0.00224198
0.00201655
0.00172769
0.00135651
0.000907628
0.000390815
-0.000168785
-0.000732228
-0.0012514
-0.00168038
-0.00199021
-0.00218358
-0.00229666
-0.00237365
-0.00244184
-0.00251041
-0.00258246
-0.00265726
-0.00273649
-0.00282234
-0.00291839
-0.00302842
-0.0031581
-0.00331389
-0.00350524
-0.0037218
-0.00395526
-0.00417539
-0.00436061
-0.0045061
-0.00461704
-0.00470016
-0.00475967
-0.0047969
-0.004808
-0.00479045
-0.00474171
-0.00466094
-0.00454493
-0.00439241
-0.00419872
-0.00396264
-0.00367769
-0.00334341
-0.00295133
-0.0025033
-0.00199139
-0.00142388
-0.000812677
-0.000252851
0.00698964
0.00532412
0.00305632
0.00242016
0.00278348
0.0032347
0.00345471
0.00345271
0.00333443
0.00316453
0.00295831
0.00268257
0.00231458
0.00182616
0.00122792
0.000524563
-0.000251006
-0.00105254
-0.0017982
-0.00239326
-0.00278076
-0.00298587
-0.0030818
-0.00314486
-0.00321911
-0.00330385
-0.00339223
-0.00348203
-0.00357459
-0.00367186
-0.0037765
-0.00389031
-0.0040158
-0.00415546
-0.0043083
-0.00447077
-0.00463913
-0.00479536
-0.00492641
-0.00502905
-0.00510424
-0.00515359
-0.00517661
-0.00517196
-0.00513812
-0.00507383
-0.00497716
-0.00484729
-0.00468204
-0.00448063
-0.00423975
-0.00395904
-0.00363411
-0.00326636
-0.00285091
-0.00239284
-0.00189193
-0.00136493
-0.000832358
-0.000338521
0.00841607
0.00626755
0.0036339
0.00296752
0.00345077
0.00397989
0.00422783
0.00423456
0.00412432
0.00395972
0.00374341
0.00342916
0.00298478
0.00236996
0.00159868
0.000667953
-0.000364101
-0.00145925
-0.00249741
-0.00329865
-0.00373791
-0.00391092
-0.00396404
-0.00399417
-0.00404635
-0.0041199
-0.00420441
-0.00429406
-0.00438801
-0.00448687
-0.00459152
-0.00470182
-0.00481747
-0.00493812
-0.00506203
-0.00518746
-0.00531058
-0.00542292
-0.0055184
-0.00559338
-0.00564509
-0.00567207
-0.00567218
-0.00564329
-0.00558389
-0.00549287
-0.00536851
-0.00520983
-0.00501529
-0.00478431
-0.00451455
-0.00420567
-0.00385475
-0.00346355
-0.00302979
-0.00255669
-0.00204799
-0.00151503
-0.000971491
-0.000422541
0.00977586
0.00712642
0.00417764
0.00351966
0.00412133
0.00472162
0.00500217
0.00503558
0.00495747
0.00482412
0.00461917
0.00428555
0.00377107
0.00302626
0.00204189
0.000804386
-0.000576038
-0.00202192
-0.00340012
-0.00436388
-0.00482122
-0.00493497
-0.00488689
-0.00484224
-0.00485134
-0.00489862
-0.00496374
-0.00503845
-0.00511948
-0.00520505
-0.00529458
-0.00538801
-0.00548496
-0.00558445
-0.00568408
-0.00577933
-0.00586343
-0.00594145
-0.00601111
-0.00606644
-0.00610189
-0.00611383
-0.00609911
-0.00605548
-0.00598058
-0.00587278
-0.00573028
-0.00555201
-0.00533698
-0.00508474
-0.00479411
-0.00446434
-0.00409358
-0.00368287
-0.00323007
-0.0027357
-0.0021989
-0.00162504
-0.00101991
-0.000404071
0.0110425
0.00788376
0.00466924
0.00409266
0.00480983
0.00545726
0.00577003
0.00585195
0.00583849
0.00577134
0.0056126
0.00528889
0.00472018
0.00385135
0.00260679
0.000937347
-0.00105463
-0.00304766
-0.00467504
-0.0056139
-0.00591584
-0.00584276
-0.00565969
-0.00554716
-0.0055074
-0.0055063
-0.00553567
-0.0055847
-0.00564127
-0.00570007
-0.00576247
-0.00583102
-0.00590582
-0.00598481
-0.00606514
-0.00614252
-0.00621348
-0.00627938
-0.00633835
-0.00638532
-0.00641479
-0.0064221
-0.00640308
-0.00635479
-0.00627416
-0.0061592
-0.00600796
-0.00581954
-0.00559314
-0.00532896
-0.00502676
-0.0046871
-0.00430873
-0.00388905
-0.00342451
-0.00291378
-0.00235009
-0.00173194
-0.00107103
-0.000395756
0.0122097
0.00860139
0.00496189
0.00468269
0.0055329
0.0061871
0.00652929
0.00668145
0.00676746
0.00680861
0.00675061
0.00648569
0.00590574
0.00491607
0.00337191
0.00110581
-0.00188843
-0.00539413
-0.00723933
-0.00760824
-0.00719394
-0.00658898
-0.00614871
-0.00601001
-0.00587217
-0.00577989
-0.00577371
-0.00581465
-0.00586745
-0.00591797
-0.00596778
-0.00602192
-0.00608217
-0.00614815
-0.00621881
-0.0062927
-0.00636924
-0.00644168
-0.00650318
-0.00655194
-0.00658458
-0.00659588
-0.006581
-0.00653625
-0.00645807
-0.00634422
-0.00619258
-0.00600233
-0.00577279
-0.00550472
-0.00519837
-0.00485482
-0.00447377
-0.0040524
-0.00358779
-0.00307499
-0.00250146
-0.00186802
-0.00114873
-0.000395023
0.0132616
0.00922568
0.0052828
0.00519496
0.00617429
0.00687987
0.00727193
0.00751338
0.00772769
0.00792391
0.00803603
0.00791864
0.00743603
0.00634642
0.00449309
0.00116086
-0.00277799
-0.0102553
-0.012824
-0.011983
-0.00960572
-0.00763136
-0.0065186
-0.00644829
-0.00616712
-0.00596844
-0.00589752
-0.00589103
-0.00590957
-0.00594524
-0.0059931
-0.00604945
-0.00611347
-0.00618436
-0.00626067
-0.00634001
-0.00641925
-0.00649452
-0.00656299
-0.00662006
-0.00665957
-0.00667646
-0.0066671
-0.00662752
-0.00655389
-0.00644377
-0.0062949
-0.00610634
-0.00587746
-0.00560924
-0.00530227
-0.0049584
-0.00457839
-0.00416058
-0.0037033
-0.00319878
-0.00262958
-0.00199881
-0.00125464
-0.000368986
0.0141833
0.00975551
0.0056098
0.00562413
0.00672229
0.00750805
0.00797077
0.00831811
0.00868149
0.0090787
0.00942805
0.00958946
0.00938382
0.00843532
0.00650037
0.000382024
-0.0041375
-0.00992913
-0.00665675
-0.00633455
-0.00607991
-0.00596141
-0.00590026
-0.00589703
-0.00591856
-0.0059561
-0.00600432
-0.00606096
-0.0061254
-0.00619684
-0.00627378
-0.00635394
-0.00643438
-0.0065116
-0.00658162
-0.00663973
-0.00668101
-0.00670132
-0.00669526
-0.00665849
-0.0065873
-0.00647949
-0.00633261
-0.00614538
-0.00591717
-0.00564881
-0.00534134
-0.00499697
-0.00461752
-0.00420304
-0.00375377
-0.00326292
-0.00270221
-0.00207987
-0.00135442
-0.000329112
0.0149528
0.0101874
0.00589174
0.00597851
0.00718075
0.00804989
0.00859187
0.0090518
0.00957523
0.0102013
0.0108387
0.0114106
0.0116576
0.011343
0.00957898
0.00460874
-0.0060666
-0.00593131
-0.00588214
-0.00588682
-0.00591248
-0.00595072
-0.0059982
-0.00605404
-0.00611765
-0.00618809
-0.00626391
-0.00634294
-0.00642236
-0.00649868
-0.00656784
-0.00662535
-0.00666636
-0.0066861
-0.00668038
-0.0066451
-0.00657352
-0.00646597
-0.00631948
-0.00613229
-0.00590367
-0.00563409
-0.00532474
-0.00497772
-0.00459546
-0.0041789
-0.00373036
-0.00324685
-0.00271918
-0.00207963
-0.00128639
-0.000224344
0.015549
0.0105152
0.00611255
0.00625651
0.00754297
0.00848214
0.00909907
0.00966194
0.0103425
0.0111879
0.0121392
0.0131433
0.0139923
0.0145724
0.0133295
0.0102979
-0.00590065
-0.00584444
-0.00583593
-0.00585469
-0.00588626
-0.00592754
-0.00597665
-0.00603301
-0.00609617
-0.0061653
-0.00623909
-0.00631556
-0.00639208
-0.00646533
-0.00653142
-0.00658597
-0.00662424
-0.0066414
-0.00663263
-0.00659323
-0.00652308
-0.0064152
-0.00626811
-0.00608027
-0.00585076
-0.00557954
-0.0052674
-0.00491584
-0.00452695
-0.00410218
-0.00364168
-0.00314454
-0.00257675
-0.00198288
-0.00125858
0.000373137
0.0159556
0.0107359
0.00626433
0.00644957
0.00779427
0.00878382
0.00945819
0.0101011
0.0109074
0.0119308
0.013155
0.0145312
0.0159723
0.0172629
0.017588
-0.00578872
-0.00578576
-0.00581131
-0.00585006
-0.00589638
-0.00594847
-0.00600589
-0.00606856
-0.00613599
-0.00620706
-0.00628004
-0.00635251
-0.00642142
-0.0064831
-0.0065334
-0.00656776
-0.00658149
-0.00656994
-0.00652867
-0.00645349
-0.00634415
-0.00619624
-0.00600828
-0.00577882
-0.00550715
-0.00519309
-0.00483675
-0.00443888
-0.00400271
-0.00352839
-0.00297359
-0.00222577
-0.00154214
-0.00173612
0.00107154
0.0161618
0.010847
0.00634162
0.00654882
0.00792271
0.00893912
0.00964402
0.010332
0.0112063
0.0123326
0.0137095
0.0153232
0.0171358
0.0190089
0.0203974
-0.00570996
-0.00573869
-0.00577814
-0.00582402
-0.00587497
-0.00593016
-0.00598931
-0.00605215
-0.0061183
-0.00618692
-0.00625643
-0.00632453
-0.00638832
-0.00644432
-0.00648864
-0.00651706
-0.00652528
-0.00650931
-0.00646527
-0.00639003
-0.00627911
-0.00613178
-0.00594542
-0.00571826
-0.00544918
-0.0051371
-0.0047806
-0.00437954
-0.00394026
-0.00345508
-0.00278938
-0.00184306
-0.00118235
-0.00185214
0.00324741
0.0161618
0.010847
0.00634161
0.00654881
0.0079227
0.0089391
0.009644
0.0103319
0.0112062
0.0123326
0.0137096
0.0153236
0.0171368
0.0190112
0.0204005
-0.00571095
-0.00573982
-0.00577941
-0.00582529
-0.00587607
-0.00593087
-0.00598936
-0.00605122
-0.00611601
-0.00618283
-0.00625005
-0.00631537
-0.0063759
-0.00642829
-0.00646881
-0.00649345
-0.00649807
-0.0064792
-0.00643445
-0.00635895
-0.00624732
-0.00610054
-0.00591781
-0.00569583
-0.00543364
-0.00512941
-0.00478109
-0.00438748
-0.0039502
-0.00345436
-0.00283116
-0.00201103
-0.00125008
-0.00177966
0.00177579
0.0159556
0.0107359
0.0062643
0.00644953
0.00779422
0.00878376
0.00945812
0.010101
0.0109073
0.0119308
0.013155
0.0145315
0.0159728
0.0172633
0.0175881
-0.0057921
-0.0057897
-0.00581548
-0.00585417
-0.00589996
-0.00595088
-0.00600633
-0.00606603
-0.00612934
-0.00619497
-0.00626107
-0.0063252
-0.00638438
-0.00643527
-0.00647426
-0.00649756
-0.00650139
-0.00648234
-0.00643695
-0.00636164
-0.00625375
-0.00611255
-0.00593601
-0.00572231
-0.00547011
-0.00517885
-0.00484763
-0.00447471
-0.00405892
-0.00359991
-0.00306687
-0.00233366
-0.00172594
-0.00135255
0.00128546
0.015549
0.0105152
0.0061125
0.00625644
0.00754289
0.00848205
0.00909896
0.0096618
0.0103423
0.0111877
0.012139
0.0131432
0.0139921
0.0145721
0.0133292
0.0102974
-0.00590835
-0.00585127
-0.00584329
-0.00586231
-0.00589365
-0.00593394
-0.00598099
-0.00603393
-0.00609206
-0.00615435
-0.00621928
-0.0062848
-0.00634827
-0.00640663
-0.00645653
-0.00649444
-0.00651678
-0.00651999
-0.00650066
-0.00645536
-0.00638191
-0.00627813
-0.00614148
-0.0059707
-0.00576477
-0.0055231
-0.00524502
-0.0049299
-0.00457641
-0.0041822
-0.0037434
-0.00324877
-0.00267534
-0.00205303
-0.00125199
-8.74271e-06
0.0149529
0.0101873
0.00589167
0.00597842
0.00718065
0.00804976
0.00859171
0.0090516
0.00957499
0.010201
0.0108383
0.0114101
0.011657
0.0113424
0.00957834
0.00460816
-0.00607648
-0.00594159
-0.00589325
-0.00589829
-0.00592357
-0.00596033
-0.00600483
-0.00605588
-0.00611258
-0.00617377
-0.0062378
-0.00630244
-0.00636498
-0.00642235
-0.00647121
-0.00650815
-0.00652974
-0.00653255
-0.00651354
-0.00647
-0.00639826
-0.0062967
-0.00616409
-0.00599905
-0.00580033
-0.00556746
-0.00529977
-0.00499679
-0.00465704
-0.0042776
-0.00385478
-0.00337922
-0.00283036
-0.00218598
-0.00139159
-0.000333303
0.0141833
0.00975548
0.00560971
0.00562402
0.00672216
0.00750789
0.00797057
0.00831785
0.00868116
0.00907828
0.00942752
0.0095888
0.00938302
0.00843436
0.00649926
0.000380826
-0.00413921
-0.00993151
-0.00666695
-0.00634556
-0.00609127
-0.00597464
-0.00591477
-0.00591224
-0.00593332
-0.0059689
-0.00601328
-0.00606388
-0.00611977
-0.0061799
-0.00624263
-0.00630566
-0.00636627
-0.00642164
-0.00646863
-0.00650359
-0.00652368
-0.00652561
-0.00650582
-0.00646155
-0.00639056
-0.00629108
-0.00616141
-0.00600033
-0.00580648
-0.00557932
-0.00531764
-0.00502084
-0.00468632
-0.00430992
-0.00388696
-0.00340374
-0.00283546
-0.00217849
-0.00138572
-0.000386589
0.0132617
0.00922564
0.0052827
0.00519483
0.00617414
0.00687969
0.00727169
0.00751307
0.0077273
0.00792341
0.0080354
0.00791785
0.00743506
0.00634521
0.00449155
0.00115889
-0.00278039
-0.0102587
-0.012828
-0.0119883
-0.00961811
-0.00764125
-0.0065287
-0.00645968
-0.00618015
-0.0059838
-0.00591466
-0.00590892
-0.00592687
-0.00596016
-0.00600346
-0.00605272
-0.00610685
-0.00616482
-0.00622512
-0.00628543
-0.00634282
-0.00639454
-0.00643914
-0.00647211
-0.00648918
-0.0064879
-0.00646563
-0.00641997
-0.00634837
-0.00624908
-0.00612014
-0.00596042
-0.00576829
-0.00554302
-0.00528263
-0.00498611
-0.00464966
-0.00426779
-0.00383421
-0.00333706
-0.00275537
-0.0020906
-0.00129832
-0.000411781
0.0122098
0.00860135
0.00496178
0.00468256
0.00553274
0.0061869
0.00652903
0.00668112
0.00676703
0.00680806
0.00674992
0.00648483
0.00590465
0.00491471
0.00337016
0.00110363
-0.00189119
-0.0053972
-0.00724257
-0.00761219
-0.00720121
-0.00659772
-0.0061586
-0.00602118
-0.00588521
-0.00579539
-0.00579107
-0.00583278
-0.00588475
-0.00593256
-0.0059774
-0.0060239
-0.00607349
-0.00612552
-0.00617911
-0.00623317
-0.00628813
-0.00633602
-0.00637229
-0.00639796
-0.00640995
-0.00640463
-0.00637877
-0.00633019
-0.00625632
-0.0061555
-0.00602552
-0.00586517
-0.00567247
-0.00544624
-0.00518406
-0.00488422
-0.00454235
-0.00415224
-0.00370722
-0.00319849
-0.00261296
-0.00195054
-0.00120377
-0.000403956
0.0110426
0.00788372
0.00466913
0.00409251
0.00480966
0.00545705
0.00576976
0.00585161
0.00583805
0.00577078
0.00561189
0.00528799
0.00471905
0.00384993
0.00260502
0.000935168
-0.00105715
-0.00305055
-0.00467844
-0.00561801
-0.00592181
-0.00585042
-0.00566866
-0.00555736
-0.00551902
-0.00551951
-0.00555009
-0.00559933
-0.00565463
-0.00571027
-0.00576727
-0.00582783
-0.00589187
-0.00595722
-0.00602109
-0.00607883
-0.0061267
-0.00617029
-0.00620741
-0.00623379
-0.00624522
-0.00623868
-0.00621146
-0.00616186
-0.00608751
-0.00598682
-0.00585752
-0.00569801
-0.00550615
-0.00528007
-0.00501693
-0.00471464
-0.00436905
-0.00397449
-0.00352491
-0.00301594
-0.00244149
-0.00180254
-0.00111278
-0.000407773
0.00977593
0.00712638
0.00417754
0.00351952
0.00412117
0.00472141
0.00500191
0.00503524
0.00495703
0.00482356
0.00461847
0.00428467
0.00376996
0.00302488
0.00204021
0.000802351
-0.000578439
-0.00202474
-0.00340353
-0.00436797
-0.00482648
-0.00494152
-0.00489451
-0.0048508
-0.00486074
-0.00490875
-0.00497417
-0.00504831
-0.00512744
-0.00520937
-0.00529321
-0.00537865
-0.00546511
-0.00555151
-0.00563544
-0.00571257
-0.00577712
-0.00583571
-0.00588649
-0.00592436
-0.00594517
-0.00594664
-0.00592672
-0.00588402
-0.00581658
-0.00572297
-0.00560099
-0.00544879
-0.00526394
-0.00504423
-0.0047863
-0.00448699
-0.00414177
-0.00374943
-0.00330648
-0.00281286
-0.00226759
-0.00167729
-0.00105193
-0.00041505
0.00841614
0.00626753
0.00363381
0.00296738
0.00345062
0.0039797
0.00422759
0.00423425
0.00412392
0.0039592
0.00374276
0.00342835
0.00298376
0.0023687
0.00159714
0.000666107
-0.000366329
-0.00146188
-0.00250056
-0.00330237
-0.00374243
-0.00391629
-0.00397015
-0.00400087
-0.00405344
-0.00412709
-0.00421121
-0.00429965
-0.00439123
-0.00448623
-0.0045852
-0.00468778
-0.00479352
-0.0049022
-0.00501227
-0.00512263
-0.00523033
-0.0053263
-0.00540574
-0.00546652
-0.0055071
-0.00552671
-0.00552399
-0.00549739
-0.00544536
-0.00536694
-0.00526012
-0.00512313
-0.00495326
-0.00474838
-0.00450448
-0.0042192
-0.00388784
-0.00351034
-0.00308413
-0.00261211
-0.00209679
-0.00155155
-0.000993652
-0.000430703
0.00698971
0.0053241
0.00305624
0.00242003
0.00278333
0.00323453
0.0034545
0.00345243
0.00333407
0.00316407
0.00295774
0.00268185
0.00231369
0.00182507
0.00122658
0.000522956
-0.000252947
-0.00105483
-0.00180091
-0.00239643
-0.00278444
-0.0029901
-0.00308651
-0.00314987
-0.00322419
-0.00330864
-0.0033962
-0.0034844
-0.00357437
-0.00366782
-0.00376728
-0.00387422
-0.00399084
-0.00411971
-0.00426054
-0.004411
-0.00456722
-0.00471009
-0.00482776
-0.00491887
-0.00498543
-0.00502936
-0.00505042
-0.0050478
-0.00502012
-0.00496606
-0.00488342
-0.00477073
-0.00462495
-0.00444411
-0.00422364
-0.00396167
-0.00365259
-0.00329651
-0.00288794
-0.0024312
-0.00192611
-0.00139034
-0.000847178
-0.000343395
0.00552974
0.00429113
0.0024388
0.00186299
0.00211467
0.00248934
0.00268668
0.00268836
0.00257878
0.00242231
0.00224151
0.00201596
0.00172697
0.00135562
0.000906542
0.000389507
-0.000170355
-0.000734075
-0.00125356
-0.00168287
-0.00199306
-0.00218676
-0.0023001
-0.00237725
-0.00244536
-0.00251348
-0.00258457
-0.00265764
-0.0027342
-0.00281625
-0.00290753
-0.00301178
-0.00313431
-0.00328039
-0.00346011
-0.003666
-0.00388924
-0.00409924
-0.0042743
-0.00441087
-0.00451457
-0.00459215
-0.00464813
-0.00468496
-0.00469968
-0.00468942
-0.00465102
-0.00458321
-0.00448221
-0.00434592
-0.00416874
-0.00394838
-0.0036775
-0.00335466
-0.00297073
-0.00252698
-0.00201521
-0.0014443
-0.000826787
-0.000259664
0.00408744
0.00319427
0.00179643
0.00130149
0.0014515
0.00174755
0.00192084
0.00193175
0.00184324
0.00171542
0.0015733
0.00140608
0.00119814
0.000936795
0.00062407
0.00027063
-0.000104707
-0.00047749
-0.000821987
-0.00111491
-0.0013397
-0.0014932
-0.00159062
-0.00165471
-0.00170587
-0.00175563
-0.00180787
-0.00186026
-0.00191418
-0.00197018
-0.00203869
-0.00212743
-0.00225009
-0.00239946
-0.00260784
-0.00289809
-0.00321793
-0.00354241
-0.00384167
-0.00410209
-0.00432287
-0.00450682
-0.00465771
-0.00477567
-0.00486111
-0.00491263
-0.00493192
-0.00491735
-0.0048703
-0.00478655
-0.00466657
-0.00450359
-0.0042969
-0.00403663
-0.00372013
-0.00333403
-0.00287318
-0.00232306
-0.00166837
-0.000851938
0.00235404
0.00204487
0.00116966
0.00076765
0.000823251
0.00102417
0.00115626
0.0011725
0.00111361
0.00102719
0.000934879
0.000831676
0.000706276
0.000550537
0.000366005
0.000160113
-5.45738e-05
-0.000267532
-0.000466893
-0.000638902
-0.000774443
-0.000870426
-0.000932863
-0.000972748
-0.0010031
-0.00103146
-0.00106136
-0.0010905
-0.00111958
-0.00114684
-0.00118068
-0.0012339
-0.00134138
-0.00150163
-0.00167319
-0.00183721
-0.00195092
-0.00197402
-0.00192925
-0.00185043
-0.00175272
-0.0016431
-0.00152494
-0.00140063
-0.0012694
-0.00113232
-0.000987347
-0.000835568
-0.000672854
-0.000500289
-0.000311729
-0.000109819
0.000112621
0.0003489
0.000602749
0.000856875
0.00109019
0.00125004
0.00121745
0.000748084
0.000753933
0.000740217
0.000438309
0.00025663
0.00025578
0.000332735
0.000390738
0.000400978
0.000378813
0.000345833
0.000312568
0.000277199
0.000235197
0.000182832
0.000121585
5.30381e-05
-1.6681e-05
-8.56522e-05
-0.000152631
-0.00021066
-0.000256599
-0.000289379
-0.000310513
-0.000323518
-0.000332862
-0.000341437
-0.000350366
-0.000359208
-0.000367261
-0.000372926
-0.000373233
-0.000365836
-0.0003796
-0.000559934
-0.00145281
-0.00268357
-0.00391974
-0.0050563
-0.00609549
-0.00706702
-0.00798694
-0.00885541
-0.00966335
-0.0104046
-0.0110711
-0.0116588
-0.0121579
-0.012565
-0.0128675
-0.0130622
-0.0131314
-0.0130717
-0.012855
-0.0124747
-0.0118779
-0.0110426
-0.00985547
-0.00825293
-0.00601373
-0.00307093
)
;

boundaryField
{
    upstream
    {
        type            fixedValue;
        value           uniform 0;
    }
    downstream
    {
        type            fixedValue;
        value           uniform 0;
    }
    upANDdown
    {
        type            fixedValue;
        value           uniform 0;
    }
    frontAndBack
    {
        type            empty;
    }
    cylinder
    {
        type            zeroGradient;
    }
}


// ************************************************************************* //
