/*--------------------------------*- C++ -*----------------------------------*\
| =========                 |                                                 |
| \\      /  F ield         | OpenFOAM: The Open Source CFD Toolbox           |
|  \\    /   O peration     | Version:  2.3.0                                 |
|   \\  /    A nd           | Web:      www.OpenFOAM.org                      |
|    \\/     M anipulation  |                                                 |
\*---------------------------------------------------------------------------*/
FoamFile
{
    version     2.0;
    format      ascii;
    class       volScalarField;
    location    "8";
    object      p;
}
// * * * * * * * * * * * * * * * * * * * * * * * * * * * * * * * * * * * * * //

dimensions      [0 2 -2 0 0 0 0];

internalField   nonuniform List<scalar> 
1720
(
0.000689562
0.000686735
0.000411295
0.000238852
0.000232137
0.000300182
0.000352995
0.000361837
0.000339268
0.000305099
0.000269097
0.000230505
0.000184558
0.000129149
6.35664e-05
-6.72154e-06
-7.99538e-05
-0.000154148
-0.000222985
-0.00028244
-0.000326934
-0.000359688
-0.000372638
-0.000375619
-0.000372812
-0.00033822
-0.000314209
-0.000222834
-0.000142964
-0.00101207
-0.00244788
-0.00376231
-0.0048655
-0.005931
-0.00703665
-0.00817387
-0.00932008
-0.0104574
-0.0115631
-0.0126069
-0.0135496
-0.0143481
-0.0149632
-0.015357
-0.0154973
-0.0153688
-0.0149708
-0.0143138
-0.0134192
-0.0123132
-0.0110426
-0.00964798
-0.00819282
-0.00672605
-0.00530929
-0.00395746
-0.00273721
-0.00161158
-0.000602932
7.89333e-05
0.00216103
0.00190126
0.00109547
0.000711462
0.00075006
0.000930119
0.00105077
0.00106337
0.00100271
0.000912199
0.000812563
0.000699862
0.0005638
0.000397032
0.000200644
-1.69369e-05
-0.000245672
-0.000472882
-0.000682546
-0.000862766
-0.00100106
-0.00109327
-0.00114212
-0.00115277
-0.00114486
-0.00111869
-0.0010927
-0.00107989
-0.00109011
-0.00121302
-0.00119104
-0.00119719
-0.00122978
-0.00120445
-0.00116293
-0.00113867
-0.00112654
-0.00111284
-0.00108731
-0.00104102
-0.000965014
-0.000852833
-0.000702549
-0.000513972
-0.000292434
-4.72757e-05
0.000202724
0.000442898
0.000660483
0.000838794
0.000960288
0.00102296
0.00102647
0.00097859
0.000886302
0.000781854
0.000672064
0.00055146
0.000347306
0.000150818
0.00377384
0.002974
0.00167848
0.00120412
0.00132712
0.00159489
0.00175343
0.00175913
0.0016669
0.00153151
0.0013772
0.00119418
0.00096832
0.000687122
0.000352621
-2.52204e-05
-0.000427221
-0.000827522
-0.00119643
-0.00150921
-0.00174455
-0.00189545
-0.00197169
-0.00198928
-0.00198163
-0.00195842
-0.00192459
-0.00191905
-0.00192865
-0.00206127
-0.00241832
-0.00282714
-0.00311569
-0.00339772
-0.00371656
-0.00404706
-0.00436215
-0.00464634
-0.00488822
-0.00507203
-0.00518721
-0.0052245
-0.00517699
-0.00505012
-0.00485623
-0.00461207
-0.00432801
-0.00402204
-0.0036978
-0.00334677
-0.00299221
-0.00264817
-0.00229861
-0.00194821
-0.0015999
-0.00126855
-0.000954041
-0.00062907
-0.000312174
-0.000106349
0.00510584
0.00400411
0.00228185
0.00172551
0.00194027
0.00228195
0.00246315
0.00245863
0.00234318
0.0021753
0.00197735
0.0017296
0.00141508
0.00101422
0.000531575
-2.42695e-05
-0.000627858
-0.00123872
-0.00180434
-0.00227349
-0.00260853
-0.00280365
-0.00288592
-0.00289602
-0.00287472
-0.00283756
-0.00279167
-0.00275574
-0.00273657
-0.00276297
-0.0028116
-0.00285991
-0.00301525
-0.00324398
-0.00347872
-0.00374379
-0.00404538
-0.00436257
-0.00466348
-0.00491679
-0.00510044
-0.00519828
-0.00520407
-0.00510606
-0.00489943
-0.00459754
-0.00422107
-0.00377152
-0.00326058
-0.00274569
-0.00224519
-0.001757
-0.00129639
-0.000885171
-0.000533483
-0.000244038
-3.76682e-05
7.5712e-05
8.72526e-05
5.90866e-05
0.00645731
0.00498031
0.00286527
0.00224487
0.00256244
0.00297748
0.00318067
0.00317181
0.00304551
0.00286035
0.00263223
0.00232777
0.00192654
0.00139764
0.000752295
-7.486e-06
-0.000849154
-0.00172429
-0.00254871
-0.00322045
-0.00366101
-0.003873
-0.00392526
-0.00389748
-0.00384191
-0.00377621
-0.00369378
-0.00360067
-0.00350555
-0.00341246
-0.00336604
-0.00341221
-0.00353281
-0.00367398
-0.00388197
-0.00416472
-0.00448985
-0.00482787
-0.00514851
-0.00542388
-0.00561777
-0.00569853
-0.00563776
-0.00544218
-0.00512869
-0.00470076
-0.00417732
-0.00359351
-0.00299645
-0.00243585
-0.00190866
-0.0014286
-0.00100966
-0.000660847
-0.000378327
-0.000170795
-3.52224e-05
3.02209e-05
3.57851e-05
-1.78176e-05
0.00778097
0.00587511
0.00341285
0.00275644
0.00318689
0.00367842
0.00390973
0.0039095
0.0037894
0.00360659
0.00336435
0.00301567
0.00253068
0.00186331
0.00102981
1.98518e-05
-0.00110535
-0.00230751
-0.00346788
-0.00440134
-0.00495593
-0.0051489
-0.00512201
-0.00502499
-0.00491854
-0.00480136
-0.00465105
-0.00446429
-0.00425475
-0.00404855
-0.00390081
-0.00383639
-0.00384358
-0.00393977
-0.0041499
-0.00449953
-0.0049087
-0.0053488
-0.00577336
-0.00613044
-0.00637251
-0.00646881
-0.00639704
-0.00613495
-0.00569745
-0.00513044
-0.00448524
-0.00381366
-0.00316152
-0.00254388
-0.0019671
-0.00144989
-0.00100185
-0.00062569
-0.000314602
-7.90874e-05
8.88566e-05
0.000168317
0.000163815
6.61736e-05
0.0090481
0.00669211
0.00392929
0.00327359
0.00381785
0.00438139
0.00464659
0.00467369
0.00458431
0.00443147
0.00419742
0.00382584
0.0032631
0.00245373
0.00138876
3.89826e-05
-0.0014666
-0.00307244
-0.00462713
-0.00581341
-0.00643488
-0.00660584
-0.00648597
-0.00628887
-0.00610208
-0.00590023
-0.00564311
-0.00532621
-0.00497413
-0.00462336
-0.00433112
-0.00412784
-0.00404754
-0.00412236
-0.00438726
-0.00478582
-0.00530328
-0.00590894
-0.00649127
-0.00697112
-0.00729245
-0.00741818
-0.00735345
-0.00707076
-0.00655033
-0.005852
-0.00506905
-0.00426619
-0.00348419
-0.00274219
-0.00205933
-0.00145086
-0.000921227
-0.000474381
-0.000110627
0.000151558
0.000319722
0.000359406
0.000296019
0.000100831
0.0102296
0.0074155
0.0043975
0.00381217
0.00446943
0.00508299
0.00538311
0.00546008
0.00543512
0.00534924
0.00516023
0.00479893
0.00417458
0.00323176
0.00188249
5.68834e-05
-0.00211735
-0.00436113
-0.00627797
-0.00751224
-0.00801216
-0.00799775
-0.00775621
-0.00751296
-0.0072896
-0.00700293
-0.00661151
-0.0061353
-0.00561541
-0.00509307
-0.00463858
-0.00430635
-0.0041003
-0.00409857
-0.00437126
-0.0048766
-0.00557061
-0.00636526
-0.00717036
-0.00786291
-0.00835455
-0.00859469
-0.00852773
-0.00818391
-0.00760612
-0.00679787
-0.00583852
-0.00483911
-0.00386188
-0.00294679
-0.00212232
-0.00140282
-0.000793001
-0.000294372
8.99293e-05
0.000351732
0.000506504
0.000513821
0.000419024
0.000150118
0.0113207
0.00810242
0.00467619
0.00436844
0.00515802
0.00578241
0.00611604
0.00626514
0.0063416
0.00636638
0.00628142
0.00598337
0.00534672
0.00428244
0.00259949
0.000134775
-0.00318954
-0.0071181
-0.00946161
-0.0101674
-0.00984442
-0.0091449
-0.00859918
-0.00845339
-0.00823761
-0.00787285
-0.00735941
-0.00674175
-0.00605684
-0.00537853
-0.00478457
-0.00431939
-0.00401271
-0.0039597
-0.00422162
-0.00477642
-0.00558837
-0.00656744
-0.007588
-0.00853412
-0.00930557
-0.00978045
-0.00983622
-0.00949193
-0.00882318
-0.00787399
-0.00671997
-0.00548967
-0.00428992
-0.00318881
-0.00222183
-0.00140056
-0.000724798
-0.000186882
0.000217287
0.000496385
0.00066043
0.000663551
0.000553142
0.000181984
0.0123021
0.00870193
0.00498355
0.00485248
0.00576914
0.006448
0.00683639
0.00707736
0.00728626
0.00746979
0.00756427
0.00742064
0.00689415
0.00573472
0.00373408
0.000128535
-0.00429317
-0.012566
-0.0159993
-0.0158189
-0.0133761
-0.0107617
-0.00905424
-0.00909333
-0.0088342
-0.00841505
-0.00784961
-0.00720365
-0.00648831
-0.00575849
-0.00509305
-0.00455042
-0.00416466
-0.00402481
-0.00421439
-0.00475198
-0.00560819
-0.0066904
-0.00786285
-0.00898777
-0.00994795
-0.0106209
-0.0109203
-0.0107585
-0.0100901
-0.00901269
-0.0076717
-0.00621673
-0.00479854
-0.00351353
-0.00240768
-0.0014873
-0.00074037
-0.000149964
0.000292986
0.000605458
0.000784925
0.000795149
0.000661666
0.000188493
0.0131599
0.00921185
0.00529636
0.00525762
0.00629061
0.00705239
0.00751582
0.00786622
0.00822886
0.00861985
0.00896408
0.0091122
0.00888849
0.0078846
0.00586031
-0.000658217
-0.00566301
-0.0121011
-0.00947086
-0.00910371
-0.00875618
-0.00848368
-0.0080543
-0.00753896
-0.00696844
-0.0063205
-0.00568409
-0.0051099
-0.0046618
-0.00443593
-0.00452604
-0.00498596
-0.00580888
-0.00691101
-0.00814794
-0.00936446
-0.010438
-0.0112627
-0.0117206
-0.0116918
-0.0111165
-0.010042
-0.00859826
-0.00697263
-0.00535741
-0.00390157
-0.00266678
-0.0016397
-0.000807688
-0.000156995
0.000325214
0.000664292
0.000853924
0.000875113
0.000717986
0.00019543
0.013873
0.00962681
0.00556502
0.00559079
0.00672559
0.00757304
0.00811895
0.00858578
0.00911245
0.00974134
0.010386
0.010969
0.0112301
0.0109049
0.00911145
0.00392947
-0.00869756
-0.0086103
-0.00838811
-0.00808957
-0.00764293
-0.00711992
-0.00656425
-0.00602305
-0.00555717
-0.00526079
-0.00523081
-0.00554503
-0.00623106
-0.00723467
-0.00842978
-0.00965595
-0.0107749
-0.0116612
-0.0121855
-0.0122732
-0.0118041
-0.0107833
-0.00931652
-0.00759892
-0.00585882
-0.00427646
-0.00291256
-0.0018046
-0.000902548
-0.000207552
0.000300368
0.000654594
0.000850177
0.000881182
0.000708882
0.000202493
0.014421
0.0099397
0.00577364
0.00584959
0.00706704
0.00798549
0.00860849
0.00918061
0.00986785
0.0107236
0.0116944
0.0127335
0.0136292
0.0142655
0.0130353
0.00992111
-0.00876048
-0.0089306
-0.00881339
-0.00867153
-0.00843433
-0.00811398
-0.00773389
-0.00733596
-0.0069537
-0.00664915
-0.00650813
-0.00661223
-0.00702351
-0.00774184
-0.00867944
-0.00975083
-0.0108152
-0.0117
-0.0122877
-0.0124106
-0.0120192
-0.0110735
-0.00965282
-0.00793811
-0.00614519
-0.00450689
-0.00312116
-0.00194546
-0.00100304
-0.000290894
0.000222685
0.000575692
0.000767401
0.000799272
0.000622309
0.000185536
0.0147882
0.0101467
0.00591417
0.00602558
0.0072995
0.00826796
0.00894897
0.00960127
0.010416
0.0114533
0.0127059
0.0141306
0.0156443
0.017026
0.0174431
-0.00929435
-0.00939319
-0.00943135
-0.00942282
-0.00936864
-0.009253
-0.00909149
-0.00886696
-0.00860518
-0.00835775
-0.00819741
-0.00817996
-0.00837528
-0.0088994
-0.009677
-0.0104767
-0.0112312
-0.0117737
-0.011939
-0.0116222
-0.0107803
-0.00946773
-0.00784278
-0.00612019
-0.00451836
-0.0031582
-0.00199414
-0.00107974
-0.000384559
0.000111415
0.000441266
0.00061123
0.000626484
0.000454878
0.000127006
0.0149641
0.0102449
0.00598112
0.00611026
0.00741067
0.00840427
0.0091142
0.00980954
0.01069
0.011829
0.0132342
0.0148995
0.0167914
0.0187697
0.0202642
-0.0100485
-0.0101765
-0.0103567
-0.0105798
-0.0108096
-0.0109716
-0.0110927
-0.0110527
-0.0108379
-0.0104633
-0.00999054
-0.0095369
-0.00925472
-0.00917569
-0.00932303
-0.00972337
-0.0102397
-0.0106357
-0.010785
-0.0105387
-0.00982697
-0.00868587
-0.0072431
-0.00569247
-0.00423358
-0.00298133
-0.00191713
-0.00105795
-0.000442772
1.08749e-07
0.000277756
0.000407098
0.000372701
0.000218221
2.859e-05
0.0149439
0.0102328
0.0059718
0.00609839
0.00739531
0.00838554
0.00909181
0.00978242
0.0106568
0.0117878
0.013183
0.0148344
0.0167077
0.0186535
0.0201036
-0.0109524
-0.0110632
-0.0113653
-0.0118173
-0.0123519
-0.0128924
-0.0132275
-0.0133823
-0.0132155
-0.0126838
-0.0118456
-0.010867
-0.00994279
-0.00920469
-0.00873711
-0.0086308
-0.00872365
-0.00891399
-0.0089878
-0.00878725
-0.00823258
-0.00731439
-0.00613166
-0.00484361
-0.00361516
-0.00254812
-0.00166648
-0.000937083
-0.00042726
-8.84309e-05
0.000125087
0.000191543
5.77121e-05
-6.59502e-05
-0.00011103
0.0147285
0.0101106
0.00588656
0.00599048
0.00725413
0.00821257
0.00888282
0.00952116
0.010318
0.0113318
0.0125552
0.0139394
0.0153987
0.0166917
0.0169346
-0.0117362
-0.0118572
-0.0122984
-0.0129779
-0.0137965
-0.0146332
-0.0152989
-0.0156436
-0.0154999
-0.014784
-0.0135497
-0.0119856
-0.0103216
-0.00884438
-0.00774433
-0.00710453
-0.00680451
-0.00674029
-0.00669297
-0.0065191
-0.00612575
-0.00545727
-0.00458095
-0.00361513
-0.00268535
-0.00187305
-0.00120623
-0.000673711
-0.000334556
-0.000117732
3.64657e-05
-1.92324e-05
-0.000259378
-0.000356821
-0.000269372
0.0143245
0.00988079
0.00572879
0.00579287
0.00699355
0.00789585
0.00850137
0.00905115
0.00970925
0.0105275
0.0114494
0.0124242
0.0132256
0.0137318
0.0122215
0.00876955
-0.0121706
-0.0119899
-0.0123729
-0.0129888
-0.0138667
-0.0149119
-0.0159751
-0.0168488
-0.0172515
-0.0170092
-0.0160372
-0.0144136
-0.0123655
-0.0101858
-0.00814185
-0.00647491
-0.005251
-0.00456183
-0.00427813
-0.00413319
-0.00399535
-0.00374666
-0.00333768
-0.00277394
-0.00214355
-0.00153407
-0.00100483
-0.000582686
-0.000270966
-7.90879e-05
8.68153e-06
-3.50853e-06
-0.000195659
-0.000486224
-0.000626925
-0.000420425
0.0137438
0.00954683
0.00550467
0.00551504
0.00662709
0.00745297
0.00797541
0.00841278
0.00890034
0.00947975
0.0100588
0.0105569
0.0106959
0.0102
0.00813666
0.00245662
-0.0123212
-0.0122214
-0.0126049
-0.0133472
-0.0143592
-0.01552
-0.0166597
-0.0175258
-0.0178447
-0.0174146
-0.0161671
-0.0142254
-0.0118511
-0.0093494
-0.00698504
-0.00496655
-0.00341622
-0.00238461
-0.00179228
-0.00156215
-0.00147448
-0.00136519
-0.00120298
-0.000918342
-0.000594058
-0.000283367
-2.4119e-05
0.000163947
0.000270678
0.00028293
0.000184681
1.86201e-05
-0.00024755
-0.000601573
-0.000824897
-0.000520893
0.0130036
0.00911333
0.00522285
0.00516621
0.00617138
0.00690692
0.00734215
0.00765729
0.00797354
0.00830521
0.00857268
0.00861936
0.00825777
0.00705683
0.0047621
-0.00240189
-0.0079855
-0.0151207
-0.0133113
-0.0128159
-0.0122931
-0.0122607
-0.0126646
-0.0134564
-0.0144995
-0.0156314
-0.0167137
-0.0174491
-0.0175726
-0.0169006
-0.0154098
-0.0132674
-0.0107495
-0.00814888
-0.00569974
-0.00355223
-0.00180139
-0.000521417
0.000282021
0.000678953
0.000819361
0.000826509
0.00077728
0.000862467
0.000932279
0.000989215
0.00101589
0.000996904
0.000914713
0.000750632
0.000475691
0.000153485
-0.000228495
-0.000619902
-0.000916746
-0.000571891
0.0121255
0.00858827
0.00489966
0.00474936
0.00563439
0.00628339
0.00664019
0.00684202
0.00699977
0.00711806
0.00712897
0.00687779
0.00620706
0.00485699
0.00258837
-0.0014234
-0.00639504
-0.0157264
-0.0200347
-0.0204153
-0.0180971
-0.0150658
-0.012684
-0.0126211
-0.0124164
-0.0122661
-0.0126861
-0.013484
-0.014445
-0.0154304
-0.0162242
-0.0166634
-0.0164975
-0.0155701
-0.0139317
-0.0117778
-0.00934343
-0.00686653
-0.00453846
-0.00247575
-0.000726529
0.000679941
0.00170425
0.00232975
0.00261909
0.00268599
0.00266868
0.00250397
0.00237051
0.00222942
0.00206806
0.00187548
0.00163073
0.00132007
0.00090853
0.000421083
-0.000144937
-0.000559251
-0.000892511
-0.00056125
0.0111312
0.00797817
0.00458475
0.00425789
0.00501359
0.00560592
0.00590594
0.00601419
0.00603725
0.00599496
0.00582444
0.00542052
0.00464538
0.00340877
0.00149615
-0.00127895
-0.00502046
-0.00949589
-0.0123815
-0.0134727
-0.0133504
-0.0126807
-0.0120766
-0.0119769
-0.0119706
-0.0120636
-0.0124025
-0.0130179
-0.0137773
-0.0144982
-0.014979
-0.0150474
-0.0145708
-0.0135239
-0.0119763
-0.0100377
-0.00787736
-0.0056888
-0.00361797
-0.00174844
-0.000121241
0.00124757
0.00235145
0.00317148
0.00368941
0.00391882
0.00389222
0.00377803
0.00356914
0.00332067
0.00303783
0.00271527
0.00233909
0.00190628
0.00136076
0.000732765
-3.38271e-06
-0.00045914
-0.000802756
-0.00048819
0.0100343
0.00728699
0.00430114
0.00369849
0.00432169
0.00490233
0.00516836
0.00520461
0.00512689
0.00497522
0.00470411
0.00424305
0.00349447
0.00239851
0.000861485
-0.00121428
-0.00367951
-0.00626581
-0.00856198
-0.010168
-0.0109624
-0.0111244
-0.0110002
-0.0109012
-0.0109524
-0.0111307
-0.0114432
-0.0118863
-0.0123922
-0.012821
-0.0130196
-0.0128793
-0.0123424
-0.0114052
-0.010075
-0.00842349
-0.00660337
-0.00475744
-0.00298144
-0.00133802
0.000132811
0.00140672
0.00247309
0.0033304
0.00398548
0.00443353
0.00463812
0.00456722
0.00436373
0.00407847
0.00374838
0.00336269
0.00290722
0.00235588
0.00169513
0.000982536
0.000155516
-0.000375789
-0.000693928
-0.000369321
0.00885621
0.00656285
0.00383281
0.00316206
0.00367319
0.00420413
0.0044363
0.0044245
0.00428563
0.00407105
0.00376217
0.00330036
0.00263025
0.00168979
0.000468637
-0.00107415
-0.00279887
-0.00465649
-0.00649288
-0.00799097
-0.00888056
-0.00925198
-0.00931495
-0.00932422
-0.00942955
-0.0096444
-0.00994732
-0.0103097
-0.0106751
-0.0109419
-0.0110166
-0.0108333
-0.0103501
-0.0095438
-0.00842617
-0.00707545
-0.00559429
-0.00407391
-0.00258318
-0.0011724
0.00012429
0.00128205
0.00228216
0.00310862
0.00377737
0.00420152
0.00451356
0.00461857
0.0045606
0.00435503
0.00402648
0.00360084
0.00309996
0.00250484
0.00179583
0.00105183
0.000273241
-0.000287729
-0.000595237
-0.000257777
0.00760071
0.00574998
0.00332088
0.00265225
0.00305147
0.00351197
0.00371268
0.00367702
0.00351259
0.00327452
0.00296664
0.00253973
0.00196379
0.00118775
0.000227476
-0.00093089
-0.002227
-0.00362139
-0.00499792
-0.00616027
-0.00694965
-0.00736131
-0.00754276
-0.00767378
-0.00786165
-0.00812406
-0.00843577
-0.00875957
-0.00904651
-0.00923226
-0.00926016
-0.00908288
-0.00866157
-0.00797915
-0.00706714
-0.00597968
-0.0047804
-0.00353367
-0.00229756
-0.00111639
-2.06624e-05
0.000972314
0.00186225
0.00263678
0.00325887
0.00372854
0.0040355
0.00417901
0.0041785
0.00403912
0.00377385
0.00338907
0.0029036
0.00232149
0.00166369
0.000984709
0.00033819
-0.000143501
-0.000407097
-0.000161074
0.00629718
0.00486477
0.00278193
0.00215253
0.00244196
0.00282888
0.0030051
0.00296565
0.00280151
0.0025694
0.00228595
0.00191671
0.00144107
0.000825706
8.07133e-05
-0.000792754
-0.00176481
-0.00278611
-0.00377321
-0.0046238
-0.00525769
-0.00566791
-0.00593027
-0.00614547
-0.00638617
-0.00667227
-0.00698639
-0.00730481
-0.00757066
-0.00773427
-0.00776554
-0.00763207
-0.00729698
-0.00675152
-0.00601637
-0.00513415
-0.00414868
-0.00311045
-0.00206749
-0.00105822
-0.000117252
0.000719687
0.00143978
0.00206549
0.00257586
0.00304177
0.00333004
0.00347287
0.00349279
0.0033923
0.00317989
0.00285863
0.00245058
0.00196509
0.00144292
0.000906813
0.000433444
5.76064e-05
-0.000150155
-8.11636e-05
0.00497249
0.0039041
0.00221127
0.001649
0.00184007
0.00215764
0.00231641
0.00228719
0.00214141
0.00193605
0.00169406
0.00139568
0.00102368
0.000557512
2.52377e-07
-0.000639736
-0.00133874
-0.00205661
-0.00274252
-0.00334793
-0.00383785
-0.00420765
-0.00448775
-0.00473
-0.00499155
-0.00530295
-0.00564134
-0.0059904
-0.00628917
-0.00648231
-0.00655625
-0.00650607
-0.00628967
-0.00590179
-0.00534592
-0.00465239
-0.00386264
-0.00300783
-0.00211833
-0.00122577
-0.00036251
0.000445084
0.00116454
0.00172358
0.0021509
0.00239279
0.0026063
0.00272035
0.00273608
0.00265836
0.00249374
0.00224649
0.00193986
0.0015796
0.00120924
0.000830919
0.000515735
0.00024849
7.37829e-05
5.46647e-05
0.00367214
0.00289548
0.0016245
0.00114717
0.0012521
0.00150059
0.00164185
0.00162942
0.00151513
0.00135247
0.00116614
0.000946908
0.000680568
0.000354178
-3.14393e-05
-0.000467057
-0.000934276
-0.00140697
-0.0018583
-0.00226658
-0.00261792
-0.0029128
-0.00316384
-0.00339354
-0.00363114
-0.00396277
-0.00437438
-0.00479495
-0.00519657
-0.00547214
-0.00561222
-0.00566487
-0.00552822
-0.00525593
-0.0048866
-0.00441274
-0.00386564
-0.00326891
-0.0026471
-0.00201307
-0.00138093
-0.000755126
-0.000151756
0.000459579
0.00107686
0.00155126
0.00177747
0.00187996
0.00191757
0.00188146
0.00177482
0.00161183
0.00141509
0.00118751
0.000965373
0.000723625
0.000518739
0.000315638
0.000193499
0.000117775
0.00209729
0.00184937
0.00106135
0.000676988
0.000703607
0.000870413
0.000979833
0.00098138
0.000907403
0.000800204
0.000681115
0.000546492
0.000386728
0.00019353
-3.10902e-05
-0.000282053
-0.000549938
-0.000818397
-0.00107454
-0.00130919
-0.00151873
-0.00170945
-0.00190404
-0.00213181
-0.00233844
-0.00249762
-0.00275152
-0.00297989
-0.003015
-0.00307234
-0.00307778
-0.00273401
-0.00237339
-0.00197312
-0.00151477
-0.00103068
-0.000545643
-8.99593e-05
0.000315823
0.000656098
0.00092824
0.0011475
0.00130947
0.0014269
0.00133951
0.00112248
0.00104801
0.00106508
0.00110252
0.00109369
0.00103842
0.00094726
0.000841785
0.000721599
0.000610147
0.00048154
0.000390165
0.000314586
0.000268619
0.000213668
0.000667779
0.000667177
0.000398996
0.000227329
0.000216155
0.000278878
0.000327552
0.000332582
0.000305617
0.000265556
0.000223036
0.000176659
0.000123286
5.84956e-05
-1.45866e-05
-9.39987e-05
-0.000182578
-0.000269743
-0.000352171
-0.00042802
-0.000494252
-0.000559906
-0.0006361
-0.000829974
-0.00133676
-0.00237285
-0.00386249
-0.00547972
-0.00701968
-0.00832815
-0.00942861
-0.0103818
-0.0110262
-0.0113642
-0.0113903
-0.0110844
-0.0104428
-0.00949767
-0.00828927
-0.00689194
-0.00537137
-0.00382487
-0.00234329
-0.000917701
3.98843e-05
0.000438174
0.000278882
0.000241865
0.000274305
0.000288784
0.00028221
0.000258262
0.00023171
0.000192917
0.000170586
0.00014601
0.000125306
0.000139191
0.000256036
0.000710955
)
;

boundaryField
{
    upstream
    {
        type            fixedValue;
        value           uniform 0;
    }
    downstream
    {
        type            fixedValue;
        value           uniform 0;
    }
    upANDdown
    {
        type            fixedValue;
        value           uniform 0;
    }
    frontAndBack
    {
        type            empty;
    }
    cylinder
    {
        type            zeroGradient;
    }
}


// ************************************************************************* //
