/*--------------------------------*- C++ -*----------------------------------*\
| =========                 |                                                 |
| \\      /  F ield         | OpenFOAM: The Open Source CFD Toolbox           |
|  \\    /   O peration     | Version:  2.3.0                                 |
|   \\  /    A nd           | Web:      www.OpenFOAM.org                      |
|    \\/     M anipulation  |                                                 |
\*---------------------------------------------------------------------------*/
FoamFile
{
    version     2.0;
    format      ascii;
    class       surfaceScalarField;
    location    "8";
    object      phi;
}
// * * * * * * * * * * * * * * * * * * * * * * * * * * * * * * * * * * * * * //

dimensions      [0 3 -1 0 0 0 0];

internalField   nonuniform List<scalar> 
3330
(
1.99233e-07
-3.69499e-09
1.99133e-07
-1.11839e-08
1.98465e-07
-1.52831e-08
1.9784e-07
-1.76558e-08
1.97529e-07
-2.00474e-08
1.97353e-07
-2.29627e-08
1.97167e-07
-2.64023e-08
1.96938e-07
-2.9976e-08
1.96715e-07
-3.34626e-08
1.96529e-07
-3.6649e-08
1.96411e-07
-3.95769e-08
1.96382e-07
-4.21575e-08
1.96458e-07
-4.44102e-08
1.96672e-07
-4.61553e-08
1.97029e-07
-4.7387e-08
1.97558e-07
-4.78877e-08
1.98235e-07
-4.7686e-08
1.99023e-07
-4.67519e-08
1.99931e-07
-4.49912e-08
2.00864e-07
-4.26045e-08
2.01804e-07
-3.94923e-08
2.02673e-07
-3.59856e-08
2.03431e-07
-3.22654e-08
2.04082e-07
-2.80838e-08
2.04525e-07
-2.42384e-08
2.0495e-07
-2.00395e-08
2.05114e-07
-1.58674e-08
2.05279e-07
-1.19515e-08
2.12105e-07
-6.55331e-09
2.16721e-07
-2.69057e-09
2.20124e-07
1.24595e-09
2.22994e-07
4.25702e-09
2.25227e-07
6.96152e-09
2.2684e-07
9.57104e-09
2.27992e-07
1.20887e-08
2.28721e-07
1.46169e-08
2.29002e-07
1.71793e-08
2.28771e-07
1.97779e-08
2.27992e-07
2.23461e-08
2.2658e-07
2.48779e-08
2.24513e-07
2.72405e-08
2.21778e-07
2.93493e-08
2.18354e-07
3.11421e-08
2.14271e-07
3.25048e-08
2.09665e-07
3.32752e-08
2.04659e-07
3.344e-08
1.99356e-07
3.30166e-08
1.93846e-07
3.20355e-08
1.88218e-07
3.05338e-08
1.82642e-07
2.84718e-08
1.77126e-07
2.60966e-08
1.72099e-07
2.30554e-08
1.6743e-07
2.00193e-08
1.6351e-07
1.65586e-08
1.60123e-07
1.33919e-08
1.58512e-07
9.0917e-09
1.57954e-07
5.74704e-09
1.5869e-07
2.32602e-09
1.57915e-07
1.91871e-09
-2.18087e-09
1.98468e-07
-5.92402e-09
1.97923e-07
-1.06397e-08
1.96668e-07
-1.40281e-08
1.95742e-07
-1.67291e-08
1.95269e-07
-1.95749e-08
1.95016e-07
-2.27094e-08
1.94849e-07
-2.62359e-08
1.94645e-07
-2.97718e-08
1.94484e-07
-3.33016e-08
1.94399e-07
-3.65639e-08
1.94498e-07
-3.9676e-08
1.94802e-07
-4.24615e-08
1.95353e-07
-4.49612e-08
1.96197e-07
-4.69992e-08
1.97266e-07
-4.84558e-08
1.98623e-07
-4.92451e-08
2.0017e-07
-4.92324e-08
2.01818e-07
-4.84008e-08
2.03535e-07
-4.67082e-08
2.05143e-07
-4.42119e-08
2.06588e-07
-4.09376e-08
2.07789e-07
-3.71863e-08
2.08794e-07
-3.32705e-08
2.09702e-07
-2.89914e-08
2.10461e-07
-2.49973e-08
2.11296e-07
-2.08746e-08
2.11915e-07
-1.64863e-08
2.1255e-07
-1.25866e-08
2.13482e-07
-7.48615e-09
2.13887e-07
-3.09464e-09
2.15452e-07
-3.19452e-10
2.1692e-07
2.78872e-09
2.18584e-07
5.29823e-09
2.20448e-07
7.70614e-09
2.22313e-07
1.0224e-08
2.2406e-07
1.28701e-08
2.25588e-07
1.56514e-08
2.26742e-07
1.86239e-08
2.2739e-07
2.16982e-08
2.274e-07
2.4868e-08
2.26693e-07
2.79471e-08
2.25207e-07
3.08357e-08
2.2292e-07
3.34291e-08
2.19862e-07
3.55627e-08
2.16099e-07
3.70379e-08
2.11737e-07
3.78019e-08
2.06965e-07
3.77893e-08
2.01963e-07
3.70371e-08
1.9691e-07
3.55867e-08
1.91989e-07
3.33927e-08
1.87237e-07
3.08491e-08
1.82901e-07
2.73909e-08
1.78873e-07
2.40479e-08
1.75329e-07
2.01021e-08
1.7214e-07
1.65807e-08
1.69738e-07
1.14936e-08
1.67492e-07
7.99359e-09
1.65567e-07
4.25139e-09
1.64427e-07
3.05806e-09
-2.20916e-09
1.94349e-07
-6.33926e-09
1.93902e-07
-1.01933e-08
1.936e-07
-1.37261e-08
1.93104e-07
-1.62326e-08
1.92637e-07
-1.91083e-08
1.92336e-07
-2.24085e-08
1.92185e-07
-2.60851e-08
1.92032e-07
-2.9618e-08
1.92018e-07
-3.32875e-08
1.92109e-07
-3.6655e-08
1.9251e-07
-4.00772e-08
1.93192e-07
-4.31439e-08
1.94255e-07
-4.60239e-08
1.95674e-07
-4.84186e-08
1.97507e-07
-5.02886e-08
1.99642e-07
-5.13799e-08
2.02055e-07
-5.16452e-08
2.04561e-07
-5.09065e-08
2.06988e-07
-4.91356e-08
2.09144e-07
-4.63678e-08
2.10957e-07
-4.27505e-08
2.12392e-07
-3.86218e-08
2.13456e-07
-3.43342e-08
2.14465e-07
-3.00007e-08
2.15286e-07
-2.58176e-08
2.15961e-07
-2.15498e-08
2.16725e-07
-1.72501e-08
2.1741e-07
-1.32718e-08
2.19229e-07
-9.30537e-09
2.2187e-07
-5.73578e-09
2.23804e-07
-2.25326e-09
2.25704e-07
8.88795e-10
2.27794e-07
3.20799e-09
2.29701e-07
5.79933e-09
2.31432e-07
8.49352e-09
2.32949e-07
1.13523e-08
2.34154e-07
1.44466e-08
2.34933e-07
1.78449e-08
2.35165e-07
2.14665e-08
2.348e-07
2.52328e-08
2.33721e-07
2.90258e-08
2.31859e-07
3.26983e-08
2.29247e-07
3.60404e-08
2.25946e-07
3.88643e-08
2.21906e-07
4.1078e-08
2.17181e-07
4.25264e-08
2.12021e-07
4.2949e-08
2.06545e-07
4.25131e-08
2.00961e-07
4.11707e-08
1.95334e-07
3.90199e-08
1.89711e-07
3.6472e-08
1.84071e-07
3.30313e-08
1.78501e-07
2.96182e-08
1.73247e-07
2.53555e-08
1.68204e-07
2.16237e-08
1.63178e-07
1.65204e-08
1.58149e-07
1.30222e-08
1.54159e-07
8.24096e-09
1.51565e-07
5.65197e-09
-2.1321e-09
1.91897e-07
-6.45935e-09
1.91648e-07
-9.94394e-09
1.90943e-07
-1.30211e-08
1.90507e-07
-1.57967e-08
1.90053e-07
-1.86541e-08
1.89687e-07
-2.2043e-08
1.89505e-07
-2.59035e-08
1.89334e-07
-2.9447e-08
1.89408e-07
-3.33613e-08
1.89597e-07
-3.68434e-08
1.90276e-07
-4.07567e-08
1.91219e-07
-4.40868e-08
1.92817e-07
-4.76216e-08
1.9481e-07
-5.04124e-08
1.97411e-07
-5.28896e-08
2.00544e-07
-5.45121e-08
2.03969e-07
-5.50703e-08
2.07424e-07
-5.43619e-08
2.10712e-07
-5.24235e-08
2.13468e-07
-4.91238e-08
2.15636e-07
-4.49183e-08
2.17273e-07
-4.02592e-08
2.1858e-07
-3.56414e-08
2.1967e-07
-3.10901e-08
2.20509e-07
-2.66565e-08
2.21299e-07
-2.23404e-08
2.22057e-07
-1.80079e-08
2.22808e-07
-1.40228e-08
2.23794e-07
-1.02914e-08
2.24654e-07
-6.59549e-09
2.25954e-07
-3.55315e-09
2.28018e-07
-1.17535e-09
2.30052e-07
1.1743e-09
2.32261e-07
3.58964e-09
2.34612e-07
6.14319e-09
2.36858e-07
9.10587e-09
2.38814e-07
1.24906e-08
2.40235e-07
1.64236e-08
2.40935e-07
2.07671e-08
2.40741e-07
2.54268e-08
2.39605e-07
3.01614e-08
2.37513e-07
3.47901e-08
2.34451e-07
3.91023e-08
2.30492e-07
4.28241e-08
2.25862e-07
4.57078e-08
2.20699e-07
4.76893e-08
2.15022e-07
4.86255e-08
2.09015e-07
4.85206e-08
2.02757e-07
4.7429e-08
1.96338e-07
4.5439e-08
1.89878e-07
4.2932e-08
1.83582e-07
3.9327e-08
1.77446e-07
3.57541e-08
1.71757e-07
3.1044e-08
1.66444e-07
2.69371e-08
1.6177e-07
2.11943e-08
1.57518e-07
1.72747e-08
1.54613e-07
1.11456e-08
1.53178e-07
7.08711e-09
-1.17195e-09
1.89505e-07
-6.38347e-09
1.89251e-07
-9.68981e-09
1.88492e-07
-1.22617e-08
1.88001e-07
-1.53061e-08
1.8746e-07
-1.81127e-08
1.86983e-07
-2.15666e-08
1.86695e-07
-2.56153e-08
1.8643e-07
-2.91818e-08
1.86495e-07
-3.34259e-08
1.867e-07
-3.7049e-08
1.87563e-07
-4.16197e-08
1.88739e-07
-4.52625e-08
1.90894e-07
-4.9777e-08
1.9348e-07
-5.29977e-08
1.97062e-07
-5.64717e-08
2.01206e-07
-5.86569e-08
2.0593e-07
-5.97938e-08
2.10801e-07
-5.92326e-08
2.15197e-07
-5.68199e-08
2.18524e-07
-5.24508e-08
2.21011e-07
-4.7405e-08
2.22977e-07
-4.22254e-08
2.24471e-07
-3.71353e-08
2.25489e-07
-3.21085e-08
2.26011e-07
-2.71783e-08
2.26113e-07
-2.24424e-08
2.2609e-07
-1.79851e-08
2.26076e-07
-1.40084e-08
2.26217e-07
-1.04326e-08
2.26973e-07
-7.35165e-09
2.28284e-07
-4.86408e-09
2.29865e-07
-2.75653e-09
2.31808e-07
-7.68482e-10
2.34267e-07
1.13125e-09
2.3698e-07
3.42948e-09
2.39786e-07
6.29982e-09
2.42464e-07
9.8127e-09
2.44744e-07
1.41442e-08
2.46355e-07
1.91557e-08
2.47024e-07
2.47576e-08
2.46459e-07
3.07268e-08
2.4452e-07
3.67294e-08
2.41258e-07
4.23642e-08
2.36719e-07
4.73628e-08
2.31164e-07
5.12622e-08
2.24943e-07
5.39112e-08
2.18126e-07
5.5442e-08
2.11075e-07
5.55714e-08
2.03983e-07
5.45209e-08
1.97029e-07
5.23932e-08
1.90323e-07
4.96379e-08
1.83859e-07
4.57916e-08
1.77686e-07
4.19264e-08
1.71876e-07
3.68547e-08
1.66637e-07
3.21762e-08
1.61811e-07
2.60199e-08
1.57377e-07
2.17088e-08
1.53932e-07
1.459e-08
1.50761e-07
1.02587e-08
1.79972e-09
1.87205e-07
-6.16572e-09
1.86833e-07
-9.31741e-09
1.86105e-07
-1.1534e-08
1.85449e-07
-1.465e-08
1.84772e-07
-1.74356e-08
1.84174e-07
-2.09689e-08
1.83677e-07
-2.51186e-08
1.83251e-07
-2.87551e-08
1.83164e-07
-3.33393e-08
1.83313e-07
-3.71975e-08
1.84263e-07
-4.25703e-08
1.85618e-07
-4.66177e-08
1.88394e-07
-5.25531e-08
1.91589e-07
-5.61918e-08
1.96479e-07
-6.13624e-08
2.01632e-07
-6.38099e-08
2.08064e-07
-6.62255e-08
2.14819e-07
-6.59877e-08
2.20635e-07
-6.26358e-08
2.24804e-07
-5.66199e-08
2.27657e-07
-5.02578e-08
2.28933e-07
-4.35012e-08
2.29253e-07
-3.74562e-08
2.2906e-07
-3.19152e-08
2.28507e-07
-2.66254e-08
2.2761e-07
-2.15452e-08
2.26586e-07
-1.69607e-08
2.25629e-07
-1.30519e-08
2.24999e-07
-9.8027e-09
2.24981e-07
-7.3333e-09
2.25516e-07
-5.39897e-09
2.26635e-07
-3.87537e-09
2.286e-07
-2.73409e-09
2.31367e-07
-1.63571e-09
2.34823e-07
-2.61108e-11
2.38545e-07
2.57736e-09
2.42262e-07
6.09564e-09
2.45646e-07
1.07607e-08
2.4835e-07
1.64518e-08
2.50056e-07
2.30509e-08
2.50611e-07
3.01726e-08
2.49696e-07
3.76441e-08
2.46935e-07
4.5125e-08
2.42391e-07
5.19074e-08
2.36334e-07
5.73194e-08
2.29188e-07
6.10565e-08
2.21481e-07
6.31489e-08
2.13517e-07
6.35354e-08
2.05565e-07
6.2473e-08
1.97872e-07
6.00865e-08
1.90594e-07
5.6916e-08
1.83664e-07
5.27218e-08
1.77089e-07
4.85005e-08
1.70886e-07
4.30581e-08
1.65031e-07
3.80312e-08
1.59271e-07
3.17801e-08
1.54099e-07
2.68803e-08
1.50119e-07
1.85704e-08
1.4596e-07
1.44179e-08
5.54798e-09
1.84991e-07
-5.80772e-09
1.84419e-07
-8.74502e-09
1.83676e-07
-1.07916e-08
1.82801e-07
-1.37746e-08
1.8199e-07
-1.66251e-08
1.81259e-07
-2.02372e-08
1.80434e-07
-2.42933e-08
1.79768e-07
-2.80891e-08
1.79318e-07
-3.28899e-08
1.79374e-07
-3.72535e-08
1.80132e-07
-4.33281e-08
1.81728e-07
-4.82132e-08
1.84851e-07
-5.56761e-08
1.88984e-07
-6.03251e-08
1.95827e-07
-6.82054e-08
2.02268e-07
-7.02509e-08
2.10711e-07
-7.46687e-08
2.19952e-07
-7.52286e-08
2.26715e-07
-6.93984e-08
2.30217e-07
-6.01228e-08
2.31578e-07
-5.16187e-08
2.30944e-07
-4.28668e-08
2.29726e-07
-3.62378e-08
2.28248e-07
-3.04375e-08
2.25863e-07
-2.424e-08
2.22851e-07
-1.85333e-08
2.19748e-07
-1.38576e-08
2.16951e-07
-1.02557e-08
2.14671e-07
-7.52188e-09
2.13156e-07
-5.81835e-09
2.12471e-07
-4.71454e-09
2.12996e-07
-4.40016e-09
2.14715e-07
-4.45272e-09
2.17639e-07
-4.55963e-09
2.21751e-07
-4.13861e-09
2.27054e-07
-2.72604e-09
2.33005e-07
1.45492e-10
2.38808e-07
4.95685e-09
2.43799e-07
1.14614e-08
2.47455e-07
1.93943e-08
2.49368e-07
2.82603e-08
2.4946e-07
3.75513e-08
2.47982e-07
4.66039e-08
2.44623e-07
5.52655e-08
2.39201e-07
6.27422e-08
2.32121e-07
6.81366e-08
2.24007e-07
7.12623e-08
2.15342e-07
7.22005e-08
2.06534e-07
7.12808e-08
1.97926e-07
6.86954e-08
1.89747e-07
6.50943e-08
1.81999e-07
6.04701e-08
1.74762e-07
5.57377e-08
1.6799e-07
4.98293e-08
1.61497e-07
4.4525e-08
1.55313e-07
3.79641e-08
1.50174e-07
3.20195e-08
1.45504e-07
2.32404e-08
1.40064e-07
1.98574e-08
1.02753e-08
1.82991e-07
-5.38925e-09
1.82247e-07
-8.00069e-09
1.80956e-07
-9.50087e-09
1.79975e-07
-1.27933e-08
1.792e-07
-1.58498e-08
1.78251e-07
-1.9289e-08
1.76979e-07
-2.30209e-08
1.75936e-07
-2.70458e-08
1.74951e-07
-3.19048e-08
1.74711e-07
-3.70137e-08
1.74989e-07
-4.36068e-08
1.76751e-07
-4.99749e-08
1.79819e-07
-5.87444e-08
1.85264e-07
-6.57698e-08
1.94027e-07
-7.69687e-08
2.04431e-07
-8.06547e-08
2.15604e-07
-8.58415e-08
2.25635e-07
-8.52595e-08
2.30311e-07
-7.40744e-08
2.30522e-07
-6.03344e-08
2.28194e-07
-4.92901e-08
2.23893e-07
-3.85659e-08
2.18799e-07
-3.11435e-08
2.13563e-07
-2.52023e-08
2.07074e-07
-1.77503e-08
2.00412e-07
-1.18719e-08
1.9423e-07
-7.6751e-09
1.88791e-07
-4.81721e-09
1.84187e-07
-2.91779e-09
1.80646e-07
-2.27744e-09
1.78627e-07
-2.69507e-09
1.78236e-07
-4.00951e-09
1.79342e-07
-5.55823e-09
1.82389e-07
-7.6073e-09
1.87708e-07
-9.45707e-09
1.95085e-07
-1.01027e-08
2.04006e-07
-8.77608e-09
2.1385e-07
-4.88691e-09
2.2377e-07
1.5411e-09
2.32718e-07
1.04463e-08
2.39454e-07
2.15248e-08
2.43194e-07
3.38107e-08
2.44014e-07
4.57842e-08
2.42342e-07
5.69373e-08
2.38355e-07
6.67291e-08
2.32151e-07
7.43416e-08
2.24302e-07
7.91113e-08
2.15456e-07
8.10464e-08
2.06188e-07
8.0548e-08
1.96948e-07
7.7936e-08
1.88019e-07
7.40231e-08
1.79527e-07
6.89617e-08
1.7169e-07
6.35755e-08
1.64359e-07
5.71596e-08
1.57352e-07
5.15321e-08
1.51003e-07
4.4313e-08
1.45504e-07
3.75184e-08
1.39446e-07
2.92984e-08
1.32691e-07
2.6613e-08
1.54083e-08
1.81083e-07
-4.86005e-09
1.79738e-07
-6.65503e-09
1.79968e-07
-9.73145e-09
1.78639e-07
-1.14642e-08
1.76797e-07
-1.40074e-08
1.75165e-07
-1.76576e-08
1.73395e-07
-2.12507e-08
1.71815e-07
-2.54654e-08
1.701e-07
-3.01897e-08
1.69158e-07
-3.60717e-08
1.68599e-07
-4.30487e-08
1.70037e-07
-5.1412e-08
1.72709e-07
-6.14172e-08
1.7924e-07
-7.22999e-08
1.90147e-07
-8.78762e-08
2.06359e-07
-9.68671e-08
2.23255e-07
-1.02737e-07
2.25331e-07
-8.73356e-08
2.21449e-07
-7.01926e-08
2.11688e-07
-5.05729e-08
1.99669e-07
-3.72714e-08
1.8536e-07
-2.42566e-08
1.73702e-07
-1.9486e-08
1.61085e-07
-1.25847e-08
1.49888e-07
-6.55384e-09
1.40466e-07
-2.44962e-09
1.32549e-07
2.421e-10
1.25887e-07
1.84415e-09
1.20566e-07
2.4034e-09
1.16731e-07
1.5574e-09
1.15171e-07
-1.13476e-09
1.1584e-07
-4.67861e-09
1.1923e-07
-8.94802e-09
1.25479e-07
-1.38567e-08
1.34365e-07
-1.83429e-08
1.45488e-07
-2.1226e-08
1.58261e-07
-2.15491e-08
1.71922e-07
-1.85475e-08
1.8574e-07
-1.22769e-08
1.99432e-07
-3.24566e-09
2.12656e-07
8.30031e-09
2.23737e-07
2.27302e-08
2.30718e-07
3.88027e-08
2.3326e-07
5.43954e-08
2.32052e-07
6.7937e-08
2.27728e-07
7.86658e-08
2.2092e-07
8.59194e-08
2.12513e-07
8.94538e-08
2.03344e-07
8.97165e-08
1.93983e-07
8.72969e-08
1.84792e-07
8.32142e-08
1.7603e-07
7.77238e-08
1.67893e-07
7.17118e-08
1.60109e-07
6.49444e-08
1.5274e-07
5.89008e-08
1.46158e-07
5.08951e-08
1.39737e-07
4.39388e-08
1.32115e-07
3.69212e-08
1.24605e-07
3.41224e-08
2.03851e-08
1.79397e-07
-4.26488e-09
1.78362e-07
-5.62003e-09
1.77353e-07
-8.72339e-09
1.7602e-07
-1.01306e-08
1.74192e-07
-1.21799e-08
1.72113e-07
-1.55783e-08
1.69767e-07
-1.89043e-08
1.67411e-07
-2.31101e-08
1.64829e-07
-2.76072e-08
1.62684e-07
-3.39264e-08
1.60765e-07
-4.11299e-08
1.60633e-07
-5.12807e-08
1.62557e-07
-6.33411e-08
1.68966e-07
-7.87088e-08
1.85907e-07
-1.04817e-07
1.99086e-07
-1.10046e-07
2.07603e-07
-1.11254e-07
2.70387e-07
-1.50119e-07
2.00194e-07
1.49621e-07
1.1235e-07
8.80933e-08
6.04035e-08
8.20379e-09
5.26224e-08
-4.80366e-09
4.87756e-08
-2.707e-09
4.62155e-08
1.10472e-10
4.49201e-08
1.53754e-09
4.444e-08
2.32418e-09
4.49912e-08
1.85224e-09
4.70909e-08
-5.42323e-10
5.08239e-08
-4.86766e-09
5.66239e-08
-1.04786e-08
6.48595e-08
-1.71837e-08
7.54007e-08
-2.43979e-08
8.80212e-08
-3.09634e-08
1.02329e-07
-3.5534e-08
1.17729e-07
-3.69489e-08
1.33591e-07
-3.44092e-08
1.49229e-07
-2.79154e-08
1.64183e-07
-1.81991e-08
1.78404e-07
-5.92042e-09
1.92123e-07
9.01089e-09
2.04374e-07
2.65519e-08
2.13282e-07
4.54871e-08
2.17543e-07
6.36762e-08
2.17187e-07
7.90216e-08
2.13061e-07
9.00452e-08
2.06288e-07
9.6227e-08
1.98062e-07
9.79427e-08
1.8916e-07
9.61985e-08
1.80136e-07
9.22382e-08
1.71413e-07
8.64473e-08
1.63117e-07
8.00078e-08
1.5505e-07
7.30118e-08
1.47559e-07
6.63913e-08
1.40612e-07
5.78424e-08
1.32971e-07
5.158e-08
1.24097e-07
4.57945e-08
1.16201e-07
4.2019e-08
2.47749e-08
1.77867e-07
-3.56056e-09
1.76832e-07
-4.58583e-09
1.75382e-07
-7.27305e-09
1.73746e-07
-8.49482e-09
1.71743e-07
-1.01763e-08
1.69233e-07
-1.30689e-08
1.66326e-07
-1.59971e-08
1.63055e-07
-1.98393e-08
1.59441e-07
-2.39932e-08
1.55652e-07
-3.0137e-08
1.51775e-07
-3.7253e-08
1.48664e-07
-4.81701e-08
1.47073e-07
-6.17499e-08
1.49655e-07
-8.12904e-08
1.66104e-07
-1.21267e-07
2.61373e-07
-2.05315e-07
1.50119e-07
8.20379e-09
3.40014e-09
3.04355e-09
-2.35041e-09
3.12904e-09
2.49917e-11
4.08069e-09
5.85902e-10
5.89174e-09
5.13136e-10
8.4948e-09
-7.50814e-10
1.20713e-08
-4.11881e-09
1.67961e-08
-9.59249e-09
2.31805e-08
-1.6863e-08
3.15452e-08
-2.55483e-08
4.19821e-08
-3.48348e-08
5.45278e-08
-4.35091e-08
6.8992e-08
-4.99982e-08
8.4838e-08
-5.2795e-08
1.01385e-07
-5.09564e-08
1.1786e-07
-4.43905e-08
1.33586e-07
-3.39252e-08
1.4826e-07
-2.0594e-08
1.62074e-07
-4.80297e-09
1.74846e-07
1.37794e-08
1.85989e-07
3.43442e-08
1.94193e-07
5.54721e-08
1.98446e-07
7.47691e-08
1.98517e-07
8.99739e-08
1.95019e-07
9.97248e-08
1.89007e-07
1.03955e-07
1.81549e-07
1.03656e-07
1.73585e-07
1.00202e-07
1.65459e-07
9.45735e-08
1.57336e-07
8.81307e-08
1.49351e-07
8.09973e-08
1.41915e-07
7.3827e-08
1.34405e-07
6.53521e-08
1.2554e-07
6.04453e-08
1.15927e-07
5.54073e-08
1.0791e-07
5.00364e-08
2.83586e-08
1.76573e-07
-2.74692e-09
1.75481e-07
-3.49328e-09
1.73803e-07
-5.59544e-09
1.71861e-07
-6.55263e-09
1.69586e-07
-7.90138e-09
1.66663e-07
-1.01463e-08
1.63189e-07
-1.25228e-08
1.5903e-07
-1.56808e-08
1.54246e-07
-1.92085e-08
1.48679e-07
-2.45699e-08
1.42254e-07
-3.08289e-08
1.35209e-07
-4.11242e-08
1.26712e-07
-5.32534e-08
1.19005e-07
-7.35829e-08
1.05414e-07
-1.07677e-07
-9.99005e-08
-2.91531e-09
5.64915e-10
-6.76715e-09
3.87683e-09
-8.41077e-09
2.22953e-09
-8.87799e-09
9.80362e-10
-8.66878e-09
-9.60015e-10
-7.93236e-09
-4.85523e-09
-6.44404e-09
-1.10808e-08
-3.66913e-09
-1.96379e-08
1.01923e-09
-3.02367e-08
8.26756e-09
-4.20831e-08
1.84293e-08
-5.36708e-08
3.15846e-08
-6.31535e-08
4.73304e-08
-6.85407e-08
6.48859e-08
-6.85119e-08
8.31022e-08
-6.26068e-08
1.00777e-07
-5.16002e-08
1.17134e-07
-3.69505e-08
1.31942e-07
-1.96114e-08
1.45472e-07
2.49352e-10
1.57536e-07
2.22804e-08
1.67665e-07
4.53431e-08
1.74898e-07
6.75358e-08
1.78584e-07
8.62884e-08
1.78793e-07
9.95153e-08
1.76133e-07
1.06615e-07
1.71217e-07
1.08573e-07
1.64689e-07
1.06729e-07
1.57502e-07
1.01761e-07
1.5014e-07
9.54928e-08
1.42794e-07
8.83435e-08
1.3562e-07
8.10003e-08
1.27531e-07
7.34419e-08
1.17784e-07
7.01918e-08
1.08007e-07
6.51841e-08
1.00192e-07
5.78514e-08
3.1145e-08
1.75575e-07
-1.8469e-09
1.74414e-07
-2.33244e-09
1.72574e-07
-3.75513e-09
1.70421e-07
-4.40006e-09
1.67861e-07
-5.34139e-09
1.64576e-07
-6.86074e-09
1.60577e-07
-8.52434e-09
1.55634e-07
-1.07377e-08
1.49729e-07
-1.33034e-08
1.4242e-07
-1.72604e-08
1.33551e-07
-2.19602e-08
1.22591e-07
-3.01645e-08
1.08503e-07
-3.91657e-08
9.31973e-08
-5.82767e-08
9.99005e-08
-1.1438e-07
5.64916e-10
-7.31115e-09
1.17529e-08
-1.25221e-08
7.44054e-09
-1.7192e-08
5.65024e-09
-2.15652e-08
3.41322e-09
-2.55496e-08
-8.70913e-10
-2.87151e-08
-7.91526e-09
-3.03552e-08
-1.79978e-08
-2.9711e-08
-3.08809e-08
-2.62821e-08
-4.5512e-08
-1.95213e-08
-6.04316e-08
-8.99756e-09
-7.36773e-08
5.6506e-09
-8.31889e-08
2.36921e-08
-8.65534e-08
4.34792e-08
-8.23939e-08
6.34131e-08
-7.15341e-08
8.22047e-08
-5.57421e-08
9.91651e-08
-3.65718e-08
1.14329e-07
-1.4915e-08
1.27764e-07
8.84607e-09
1.39399e-07
3.37082e-08
1.48799e-07
5.81359e-08
1.55378e-07
7.9709e-08
1.58717e-07
9.61763e-08
1.59026e-07
1.06307e-07
1.57392e-07
1.10206e-07
1.53978e-07
1.10143e-07
1.48348e-07
1.0739e-07
1.41957e-07
1.01884e-07
1.35612e-07
9.46884e-08
1.2881e-07
8.78023e-08
1.20285e-07
8.19673e-08
1.10293e-07
8.01836e-08
1.00937e-07
7.45402e-08
9.36978e-08
6.50909e-08
3.33307e-08
1.74905e-07
-8.88132e-10
1.7369e-07
-1.11755e-09
1.71737e-07
-1.80219e-09
1.6945e-07
-2.1131e-09
1.6668e-07
-2.57155e-09
1.63123e-07
-3.30362e-09
1.58727e-07
-4.12836e-09
1.532e-07
-5.21104e-09
1.46426e-07
-6.52929e-09
1.37667e-07
-8.50117e-09
1.26764e-07
-1.10574e-08
1.11938e-07
-1.53381e-08
9.35002e-08
-2.0728e-08
6.77555e-08
-3.2532e-08
-4.66243e-08
-6.28902e-09
1.80419e-08
-1.47588e-08
1.59103e-08
-2.26575e-08
1.35489e-08
-2.98636e-08
1.06193e-08
-3.5909e-08
5.17449e-09
-4.04881e-08
-3.33619e-09
-4.33871e-08
-1.50988e-08
-4.44496e-08
-2.98184e-08
-4.34981e-08
-4.64635e-08
-4.03313e-08
-6.35985e-08
-3.46744e-08
-7.93342e-08
-2.60646e-08
-9.17987e-08
-1.31192e-08
-9.94988e-08
4.64434e-09
-1.00157e-07
2.54061e-08
-9.22958e-08
4.60607e-08
-7.63966e-08
6.4902e-08
-5.54131e-08
8.17836e-08
-3.17966e-08
9.6847e-08
-6.21735e-09
1.10135e-07
2.04203e-08
1.21515e-07
4.67561e-08
1.30576e-07
7.06481e-08
1.36904e-07
8.98481e-08
1.404e-07
1.0281e-07
1.41393e-07
1.09214e-07
1.40762e-07
1.10774e-07
1.38164e-07
1.09988e-07
1.33591e-07
1.06457e-07
1.28422e-07
9.98576e-08
1.22003e-07
9.42212e-08
1.13338e-07
9.06319e-08
1.03807e-07
8.97142e-08
9.54134e-08
8.29342e-08
8.90785e-08
7.14258e-08
3.51932e-08
1.74584e-07
9.85163e-11
1.73342e-07
1.24318e-10
1.71334e-07
2.05604e-10
1.68978e-07
2.4279e-10
1.66107e-07
2.99595e-10
1.62419e-07
3.83914e-10
1.57809e-07
4.82396e-10
1.51999e-07
5.99055e-10
1.44727e-07
7.42666e-10
1.35306e-07
9.19286e-10
1.23105e-07
1.14412e-09
1.0635e-07
1.4162e-09
8.3846e-08
1.77637e-09
4.91115e-08
2.20252e-09
2.4872e-09
-6.13582e-09
2.41778e-08
-1.50108e-08
2.47853e-08
-2.34622e-08
2.20003e-08
-3.09856e-08
1.81428e-08
-3.7347e-08
1.15358e-08
-4.22153e-08
1.53214e-09
-4.5779e-08
-1.15351e-08
-4.77511e-08
-2.78463e-08
-4.78893e-08
-4.63253e-08
-4.61567e-08
-6.5331e-08
-4.26062e-08
-8.28847e-08
-3.72672e-08
-9.71377e-08
-3.01731e-08
-1.06593e-07
-2.01227e-08
-1.10208e-07
-5.61428e-09
-1.06804e-07
1.32327e-08
-9.52437e-08
3.28756e-08
-7.50561e-08
5.07767e-08
-4.96976e-08
6.68462e-08
-2.22869e-08
8.14465e-08
5.82004e-09
9.45504e-08
3.36521e-08
1.05837e-07
5.93613e-08
1.14929e-07
8.07559e-08
1.2159e-07
9.61493e-08
1.25633e-07
1.05171e-07
1.2713e-07
1.09278e-07
1.27029e-07
1.10089e-07
1.25092e-07
1.08394e-07
1.21124e-07
1.03825e-07
1.15135e-07
1.00211e-07
1.06999e-07
9.87676e-08
9.88301e-08
9.7883e-08
9.18609e-08
8.99034e-08
8.67493e-08
7.65374e-08
3.68222e-08
1.74622e-07
1.08049e-09
1.73385e-07
1.36089e-09
1.71386e-07
2.20491e-09
1.6904e-07
2.58854e-09
1.66182e-07
3.15794e-09
1.62512e-07
4.0542e-09
1.57922e-07
5.07232e-09
1.52139e-07
6.3817e-09
1.449e-07
7.9816e-09
1.35521e-07
1.02981e-08
1.23376e-07
1.32898e-08
1.06678e-07
1.81141e-08
8.42972e-08
2.41571e-08
4.95716e-08
3.69281e-08
5.20588e-08
-6.03198e-09
3.02098e-08
-1.27174e-08
3.14707e-08
-1.95573e-08
2.88402e-08
-2.59361e-08
2.45216e-08
-3.17623e-08
1.7362e-08
-3.67522e-08
6.52203e-09
-4.08225e-08
-7.46476e-09
-4.3564e-08
-2.51048e-08
-4.46454e-08
-4.52439e-08
-4.40127e-08
-6.59638e-08
-4.17703e-08
-8.5127e-08
-3.80188e-08
-1.00889e-07
-3.31451e-08
-1.11467e-07
-2.67268e-08
-1.16626e-07
-1.85726e-08
-1.14958e-07
-7.62208e-09
-1.06194e-07
7.62612e-09
-9.03043e-08
2.47318e-08
-6.68033e-08
4.10242e-08
-3.85794e-08
5.58413e-08
-8.99705e-09
6.99175e-08
1.95759e-08
8.27724e-08
4.65064e-08
9.40337e-08
6.94946e-08
1.0326e-07
8.69228e-08
1.09932e-07
9.84989e-08
1.14024e-07
1.05186e-07
1.16134e-07
1.07979e-07
1.16567e-07
1.0796e-07
1.14129e-07
1.06264e-07
1.08991e-07
1.05349e-07
1.02124e-07
1.05635e-07
9.58745e-08
1.04132e-07
9.07447e-08
9.50333e-08
8.70181e-08
8.0264e-08
3.82291e-08
1.75018e-07
2.02548e-09
1.73819e-07
2.5601e-09
1.71891e-07
4.13271e-09
1.69634e-07
4.84551e-09
1.66902e-07
5.89023e-09
1.63396e-07
7.55984e-09
1.59062e-07
9.40663e-09
1.53613e-07
1.1831e-08
1.46937e-07
1.4657e-08
1.38298e-07
1.89372e-08
1.27551e-07
2.40368e-08
1.12881e-07
3.27845e-08
9.46835e-08
4.23543e-08
6.91265e-08
6.2485e-08
1.21185e-07
-5.58514e-09
3.57949e-08
-7.50048e-09
3.3386e-08
-1.06248e-08
3.19645e-08
-1.3912e-08
2.78089e-08
-1.70389e-08
2.04889e-08
-1.96615e-08
9.14459e-09
-2.13765e-08
-5.74969e-09
-2.22304e-08
-2.42509e-08
-2.23564e-08
-4.51179e-08
-2.21969e-08
-6.61233e-08
-2.22706e-08
-8.50533e-08
-2.26767e-08
-1.00483e-07
-2.27677e-08
-1.11376e-07
-2.17446e-08
-1.17649e-07
-1.84235e-08
-1.18279e-07
-1.25563e-08
-1.12061e-07
-4.10131e-09
-9.87593e-08
7.78037e-09
-7.8685e-08
2.20257e-08
-5.28247e-08
3.64511e-08
-2.34225e-08
5.03799e-08
5.64717e-09
6.38514e-08
3.30349e-08
7.63875e-08
5.69584e-08
8.73407e-08
7.59696e-08
9.61102e-08
8.97294e-08
1.02606e-07
9.86909e-08
1.06767e-07
1.03818e-07
1.08481e-07
1.06246e-07
1.07366e-07
1.07379e-07
1.03858e-07
1.08858e-07
9.94465e-08
1.10046e-07
9.54742e-08
1.08104e-07
9.24917e-08
9.80158e-08
9.04319e-08
8.23238e-08
3.91167e-08
1.75758e-07
2.90343e-09
1.74623e-07
3.69547e-09
1.72823e-07
5.93211e-09
1.70719e-07
6.94965e-09
1.68221e-07
8.38849e-09
1.65016e-07
1.07648e-08
1.61118e-07
1.33044e-08
1.56301e-07
1.66479e-08
1.50556e-07
2.04025e-08
1.43436e-07
2.60568e-08
1.34824e-07
3.26487e-08
1.24165e-07
4.34436e-08
1.10468e-07
5.60517e-08
9.57187e-08
7.72339e-08
1.0461e-07
1.12294e-07
1.0461e-07
-9.20693e-09
9.20693e-09
-2.80706e-10
2.68687e-08
2.35994e-09
3.07454e-08
4.43013e-09
2.98943e-08
6.245e-09
2.5994e-08
8.20329e-09
1.85306e-08
1.04071e-08
6.94081e-09
1.32484e-08
-8.59102e-09
1.65071e-08
-2.75096e-08
1.95555e-08
-4.81663e-08
2.14877e-08
-6.80555e-08
2.137e-08
-8.49355e-08
1.82999e-08
-9.74131e-08
1.23453e-08
-1.05421e-07
4.67597e-09
-1.0998e-07
-2.04246e-09
-1.11561e-07
-5.02954e-09
-1.09074e-07
-3.31498e-09
-1.00474e-07
2.66835e-09
-8.46683e-08
1.23404e-08
-6.24968e-08
2.46009e-08
-3.56829e-08
3.75448e-08
-7.29677e-09
5.08704e-08
1.97094e-08
6.38137e-08
4.40151e-08
7.56411e-08
6.41422e-08
8.57432e-08
7.96273e-08
9.37108e-08
9.07233e-08
9.91511e-08
9.83773e-08
1.01791e-07
1.03607e-07
1.01726e-07
1.07443e-07
1.00363e-07
1.10221e-07
9.91239e-08
1.11285e-07
9.77799e-08
1.09448e-07
9.74643e-08
9.83313e-08
9.7611e-08
8.21771e-08
3.8967e-08
1.76817e-07
3.68797e-09
1.75759e-07
4.75371e-09
1.74136e-07
7.55471e-09
1.72259e-07
8.82683e-09
1.70068e-07
1.05792e-08
1.6725e-07
1.35834e-08
1.63913e-07
1.66412e-08
1.59918e-07
2.06429e-08
1.55348e-07
2.49721e-08
1.50038e-07
3.13668e-08
1.43958e-07
3.87293e-08
1.37327e-07
5.00738e-08
1.29332e-07
6.40475e-08
1.22273e-07
8.42925e-08
1.09082e-07
1.25485e-07
2.13692e-07
1.70681e-09
7.50012e-09
9.05194e-09
1.95235e-08
1.73554e-08
2.24419e-08
2.51883e-08
2.20614e-08
3.27043e-08
1.8478e-08
4.00581e-08
1.11768e-08
4.7155e-08
-1.56104e-10
5.40344e-08
-1.54704e-08
6.03115e-08
-3.37867e-08
6.54576e-08
-5.33124e-08
6.88148e-08
-7.14127e-08
6.96732e-08
-8.57939e-08
6.73347e-08
-9.50746e-08
6.10494e-08
-9.91358e-08
5.0265e-08
-9.91954e-08
3.60296e-08
-9.73257e-08
2.19189e-08
-9.49636e-08
1.2198e-08
-9.0753e-08
9.18755e-09
-8.16579e-08
1.22909e-08
-6.56002e-08
2.0239e-08
-4.3631e-08
3.10168e-08
-1.80746e-08
4.315e-08
7.57617e-09
5.56785e-08
3.14866e-08
6.75677e-08
5.2253e-08
7.80767e-08
6.91183e-08
8.66163e-08
8.21836e-08
9.28418e-08
9.21518e-08
9.6743e-08
9.97055e-08
9.88436e-08
1.05342e-07
9.98789e-08
1.09185e-07
1.00747e-07
1.10417e-07
1.01853e-07
1.08343e-07
1.05139e-07
9.5045e-08
1.08225e-07
7.90911e-08
3.72927e-08
1.7816e-07
4.35794e-09
1.77168e-07
5.74588e-09
1.75784e-07
8.93848e-09
1.74228e-07
1.03828e-08
1.72325e-07
1.24825e-08
1.69941e-07
1.59675e-08
1.67198e-07
1.93843e-08
1.64124e-07
2.37168e-08
1.60767e-07
2.83285e-08
1.57292e-07
3.48425e-08
1.53816e-07
4.22051e-08
1.51233e-07
5.2657e-08
1.50327e-07
6.49536e-08
1.53858e-07
8.07611e-08
1.71838e-07
1.07505e-07
2.72388e-07
1.13142e-07
1.57986e-07
1.14403e-07
1.57986e-07
1.4324e-08
-1.4324e-08
1.11509e-08
3.17303e-09
1.60084e-08
2.64266e-09
2.80981e-08
7.43378e-09
4.08901e-08
9.6499e-09
5.3226e-08
9.72558e-09
6.53824e-08
6.32158e-09
7.72604e-08
-7.01209e-10
8.82407e-08
-1.11364e-08
9.80975e-08
-2.53272e-08
1.06297e-07
-4.1986e-08
1.12024e-07
-5.90399e-08
1.14613e-07
-7.40017e-08
1.13855e-07
-8.50359e-08
1.10138e-07
-9.13568e-08
1.03865e-07
-9.28628e-08
9.46689e-08
-8.99998e-08
8.14255e-08
-8.40822e-08
6.40478e-08
-7.75859e-08
4.56731e-08
-7.23783e-08
3.12751e-08
-6.72598e-08
2.42526e-08
-5.85776e-08
2.46579e-08
-4.40363e-08
3.0664e-08
-2.40807e-08
3.98034e-08
-1.56326e-09
5.07798e-08
2.05102e-08
6.19332e-08
4.10996e-08
7.22641e-08
5.87874e-08
8.1146e-08
7.33017e-08
8.82979e-08
8.49998e-08
9.38587e-08
9.41447e-08
9.80389e-08
1.01162e-07
1.01126e-07
1.06099e-07
1.04614e-07
1.06929e-07
1.08779e-07
1.04177e-07
1.16099e-07
8.77249e-08
1.22342e-07
7.28485e-08
3.38407e-08
1.79726e-07
4.91598e-09
1.7874e-07
6.73146e-09
1.77807e-07
9.87185e-09
1.76564e-07
1.16258e-08
1.74846e-07
1.42001e-08
1.72911e-07
1.79032e-08
1.70743e-07
2.15515e-08
1.68616e-07
2.58441e-08
1.66308e-07
3.06363e-08
1.64525e-07
3.66257e-08
1.63034e-07
4.36957e-08
1.63499e-07
5.21925e-08
1.66122e-07
6.23307e-08
1.73576e-07
7.33066e-08
1.91915e-07
8.91662e-08
2.07033e-07
9.80242e-08
2.17191e-07
1.04244e-07
2.86567e-07
8.86095e-08
2.16737e-07
6.98302e-08
1.67909e-07
4.88278e-08
1.33286e-07
3.46235e-08
1.13401e-07
1.9885e-08
8.31676e-08
1.59089e-08
7.67915e-08
9.5491e-09
7.56794e-08
3.75484e-09
8.11875e-08
1.92564e-09
9.044e-08
3.97374e-10
1.01966e-07
-1.80076e-09
1.14466e-07
-6.17779e-09
1.26922e-07
-1.31577e-08
1.38895e-07
-2.31095e-08
1.49371e-07
-3.58027e-08
1.57139e-07
-4.97539e-08
1.6099e-07
-6.28914e-08
1.60486e-07
-7.34979e-08
1.56066e-07
-8.06152e-08
1.48579e-07
-8.38701e-08
1.38979e-07
-8.32634e-08
1.28364e-07
-7.93844e-08
1.1697e-07
-7.26885e-08
1.03317e-07
-6.39329e-08
8.59852e-08
-5.50462e-08
6.68484e-08
-4.8123e-08
5.06588e-08
-4.23881e-08
4.13043e-08
-3.46818e-08
3.94757e-08
-2.22521e-08
4.321e-08
-5.29755e-09
5.04782e-08
1.3242e-08
5.95519e-08
3.20258e-08
6.89622e-08
4.93771e-08
7.79035e-08
6.43604e-08
8.58424e-08
7.70609e-08
9.28221e-08
8.71651e-08
9.88401e-08
9.51442e-08
1.04478e-07
1.00461e-07
1.12057e-07
9.93496e-08
1.20352e-07
9.58819e-08
1.30912e-07
7.71647e-08
1.39644e-07
6.41172e-08
2.86251e-08
1.81432e-07
5.40899e-09
1.80147e-07
8.01653e-09
1.80453e-07
9.56602e-09
1.79219e-07
1.28596e-08
1.77493e-07
1.59266e-08
1.76017e-07
1.93793e-08
1.74434e-07
2.31337e-08
1.73099e-07
2.71793e-08
1.71668e-07
3.20674e-08
1.71108e-07
3.71855e-08
1.70986e-07
4.3818e-08
1.73026e-07
5.01524e-08
1.76382e-07
5.89747e-08
1.83844e-07
6.58446e-08
1.95839e-07
7.71711e-08
2.13586e-07
8.02771e-08
2.32601e-07
8.52299e-08
2.36935e-07
8.42753e-08
2.3451e-07
7.22552e-08
2.26702e-07
5.66358e-08
2.17292e-07
4.4033e-08
2.05487e-07
3.16905e-08
1.97732e-07
2.36639e-08
1.89253e-07
1.80278e-08
1.8249e-07
1.05184e-08
1.79449e-07
4.96653e-09
1.79198e-07
6.48089e-10
1.82067e-07
-4.66943e-09
1.87109e-07
-1.12202e-08
1.93255e-07
-1.93034e-08
1.99066e-07
-2.89205e-08
2.02777e-07
-3.95137e-08
2.03151e-07
-5.01278e-08
2.00007e-07
-5.97478e-08
1.93886e-07
-6.73771e-08
1.85449e-07
-7.21779e-08
1.75247e-07
-7.3668e-08
1.63983e-07