/*--------------------------------*- C++ -*----------------------------------*\
| =========                 |                                                 |
| \\      /  F ield         | OpenFOAM: The Open Source CFD Toolbox           |
|  \\    /   O peration     | Version:  2.3.0                                 |
|   \\  /    A nd           | Web:      www.OpenFOAM.org                      |
|    \\/     M anipulation  |                                                 |
\*---------------------------------------------------------------------------*/
FoamFile
{
    version     2.0;
    format      ascii;
    class       volScalarField;
    location    "2.6";
    object      p;
}
// * * * * * * * * * * * * * * * * * * * * * * * * * * * * * * * * * * * * * //

dimensions      [1 -1 -2 0 0 0 0];

internalField   nonuniform List<scalar> 
2268
(
960.591
957.032
953.62
942.995
927.145
911.818
896.318
878.41
862.368
846.615
827.895
807.88
789.329
772.569
756.782
741.83
729.65
721.1
715.246
710.72
706.166
701.629
702.403
902.822
898.406
896.26
885.217
868.401
852.594
836.724
818.785
802.749
787.395
768.335
748.681
730.375
713.565
697.615
682.425
669.878
661.595
655.766
651.273
646.562
641.677
642.876
849.307
842.485
839.057
828.155
813.214
795.541
777.08
758.706
744.125
729.821
709.782
688.83
671.276
654.549
638.223
622.618
609.905
601.355
595.317
590.7
585.99
581.896
583.827
798.025
789.066
782.334
771.883
757.448
738.636
717.889
699.478
687.362
672.807
651.49
629.708
610.802
594.282
578.388
562.912
549.706
539.869
532.902
528.364
524.589
522.349
525.474
747.508
738.569
726.921
716.253
701.731
681.607
659.436
640.96
628.434
613.165
591.682
569.686
549.587
533.31
518.515
503.411
489.183
477.232
468.739
464.349
462.117
462.238
466.947
698.186
689.12
676.003
661.75
646.38
625.059
601.659
582.53
568.879
552.145
529.591
507.114
487.454
472.186
458.673
443.871
428.182
413.656
403.567
399.475
398.691
400.687
406.417
649.293
640.489
627.81
609.653
591.574
568.828
544.354
524.736
510.233
491.246
466.719
443.884
425.145
411.021
398.459
383.911
366.477
349.843
339.323
335.365
335.307
338.188
342.298
599.583
592.976
579.547
559.145
537.834
513.599
488.5
468.621
452.465
431.361
405.402
381.406
362.857
349.626
337.673
322.895
304.39
287.581
277.218
272.679
272.376
275.368
274.158
547.171
541.565
545.978
535.587
525.333
545.096
559.692
561.988
566.266
572.628
574.695
576.017
590.51
615.278
636.232
651.004
656.36
660.971
672.834
490.408
483.08
488.271
473.537
460.014
482.038
498.641
501.173
505.56
512.362
513.65
512.302
526.17
553.204
577.761
597.778
601.424
602.17
615.86
433.968
427.036
429.824
408.966
397.13
420.187
435.772
439.01
444.567
452.173
452.047
449.227
462.244
488.363
516.054
541.522
549.996
548.996
563.259
378.499
372.878
371.756
348.055
335.826
358.493
371.801
376.059
383.339
391.965
390.514
387.097
400.586
424.959
453.412
482.86
498.24
501.203
513.519
322.849
320.545
314.996
290.815
277.52
297.442
308.234
313.262
321.643
331.24
329.423
327.768
341.432
363.904
392.478
424.586
446.493
454.724
465.161
266.825
267.743
259.957
235.499
223.78
238.367
246.355
251.138
259.305
269.529
269.548
272.314
285.518
305.669
334.118
367.966
395.283
407.803
417.506
210.134
214.124
205.263
179.897
170.108
179.99
185.775
189.875
197.378
207.087
210.577
217.079
231.59
252.359
279.626
314.729
346.852
359.125
368.232
151.248
157.415
147.491
123.127
113.294
121.023
125.561
127.486
134.394
144.263
149.872
159.443
178.154
201.936
231.323
267.164
297.894
308.914
317.306
521.965
513.856
497.559
477.123
454.574
429.576
405.199
383.73
363.473
339.55
312.168
284.585
264.756
252.164
241.687
227.438
208.588
192.711
181.603
176.26
175.354
176.743
161.44
420.949
408.784
385.706
361.191
336.111
311.127
288.082
264.723
242.845
218.539
183.574
147.106
122.417
111.643
106.004
99.0068
89.8082
77.0216
63.8761
58.0943
58.5966
61.099
60.7832
320.954
299.821
271.049
242.848
214.271
186.966
166.097
147.226
129.187
103.218
62.8759
27.4796
16.7324
17.6261
20.1118
21.5937
20.3874
14.0137
6.5659
3.30855
2.66245
2.91825
2.81393
223.215
198.384
168.825
134.953
97.8343
72.7485
63.085
58.4753
48.2419
28.0246
5.52599
0.57804
0.22262
0.396713
0.320771
0.246812
0.264844
0.541337
0.538722
0.562993
0.597343
0.561668
0.572892
136.266
124.987
95.4829
57.7048
18.415
7.12289
5.53293
6.61879
5.13894
2.58026
-0.0383753
-0.053096
0.14936
0.0988218
-0.0139287
-0.142529
-0.38856
-0.425932
-0.194376
0.0678588
0.219068
0.254402
0.25851
70.3235
62.7323
35.1714
4.64774
0.39121
-0.600987
-0.592936
-0.523866
-0.357031
-0.361639
-0.571473
-0.487688
-0.30371
-0.317301
-0.408381
-0.532063
-0.602628
-0.631807
-0.591335
-0.352163
-0.119854
-0.0162351
0.0129497
38.0147
22.1765
4.05208
-1.11115
-0.859554
-0.881625
-0.885412
-0.780941
-0.664817
-0.734096
-0.745456
-0.758366
-0.763746
-0.811862
-0.891094
-0.956988
-0.936185
-0.86304
-0.750698
-0.594554
-0.395631
-0.26174
-0.203352
-0.186052
-0.331806
-0.668146
-1.20701
-1.12618
-1.04899
-1.01793
-0.930185
-0.868424
-0.906328
-0.923048
-0.984672
-1.07145
-1.17487
-1.29028
-1.33396
-1.28111
-1.17064
-1.03699
-0.86832
-0.666477
-0.508914
-0.424549
-0.490912
-0.521899
-0.711626
-0.814154
-0.891786
-0.931465
-0.937331
-0.922523
-0.932448
-1.00358
-1.09357
-1.21452
-1.34806
-1.48928
-1.61333
-1.66444
-1.6313
-1.53858
-1.39317
-1.19594
-0.959084
-0.774883
-0.662394
-0.555322
-0.57787
-0.63789
-0.720821
-0.78664
-0.798226
-0.821936
-0.866962
-0.958493
-1.09153
-1.25337
-1.44056
-1.63278
-1.81476
-1.95595
-2.02383
-2.01702
-1.92776
-1.76712
-1.53932
-1.2808
-1.061
-0.9197
-0.68698
-0.709192
-0.735516
-0.720485
-0.724211
-0.730028
-0.756481
-0.842535
-0.991727
-1.17391
-1.38351
-1.6217
-1.86093
-2.07428
-2.23363
-2.31789
-2.32519
-2.24777
-2.08586
-1.85189
-1.58147
-1.34098
-1.17962
-0.814526
-0.806426
-0.805944
-0.754694
-0.735963
-0.745361
-0.777146
-0.875461
-1.04589
-1.25376
-1.48681
-1.7496
-2.01496
-2.24875
-2.4246
-2.52532
-2.543
-2.47228
-2.31631
-2.08978
-1.83258
-1.60095
-1.44268
-0.949981
-0.909725
-0.881491
-0.846884
-0.827403
-0.839717
-0.887815
-0.984881
-1.14169
-1.34226
-1.56986
-1.82678
-2.09403
-2.33412
-2.5161
-2.62227
-2.64279
-2.57534
-2.43253
-2.23801
-2.02915
-1.85426
-1.7472
-1.13232
-1.09019
-1.07138
-1.07681
-1.07006
-1.06062
-1.07813
-1.1597
-1.29479
-1.46467
-1.65392
-1.87218
-2.11246
-2.3362
-2.50482
-2.59756
-2.60767
-2.53887
-2.41582
-2.27568
-2.15327
-2.10024
-2.12944
-1.38914
-1.43187
-1.52701
-1.59329
-1.55552
-1.4675
-1.41675
-1.45437
-1.51882
-1.61059
-1.7382
-1.90913
-2.10372
-2.27956
-2.40374
-2.45946
-2.44357
-2.36685
-2.26628
-2.18946
-2.1621
-2.26723
-2.52802
-1.70617
-1.88482
-2.04485
-2.11445
-2.09696
-2.02922
-1.96901
-1.92797
-1.92915
-1.92203
-1.95062
-2.02168
-2.14031
-2.25418
-2.29874
-2.27902
-2.21557
-2.12008
-2.0378
-2.01292
-2.0606
-2.29568
-2.71063
-2.03207
-2.20756
-2.28846
-2.315
-2.29021
-2.26478
-2.25714
-2.27999
-2.33314
-2.36799
-2.34848
-2.29039
-2.29569
-2.32676
-2.26861
-2.16427
-2.04012
-1.92409
-1.84367
-1.83546
-1.93138
-2.25105
-2.69336
-2.2826
-2.39141
-2.42148
-2.43954
-2.4185
-2.42566
-2.46013
-2.52799
-2.60969
-2.65425
-2.63808
-2.58031
-2.52863
-2.49517
-2.34482
-2.14996
-1.99248
-1.85524
-1.76737
-1.74564
-1.85526
-2.22808
-2.67243
-2.45508
-2.53029
-2.56484
-2.59091
-2.61851
-2.71673
-2.84735
-2.96256
-2.97433
-2.90227
-2.82305
-2.81392
-2.81059
-2.71632
-2.4921
-2.24115
-2.05509
-1.91666
-1.83021
-1.79332
-1.88692
-2.2725
-2.62442
-2.60404
-2.6568
-2.70679
-2.75471
-2.84875
-3.02154
-3.22614
-3.40721
-3.37103
-3.27469
-3.1702
-3.11484
-3.09665
-2.88758
-2.6031
-2.37242
-2.1919
-2.07144
-1.98984
-1.94951
-2.02992
-2.29854
-2.5897
-2.71738
-2.76149
-2.8176
-2.89217
-3.02088
-3.19798
-3.42153
-3.64529
-3.71358
-3.58589
-3.41431
-3.23389
-3.02967
-2.83398
-2.62881
-2.46856
-2.35638
-2.27039
-2.19075
-2.14879
-2.21588
-2.4081
-2.65115
-2.80964
-2.84799
-2.9021
-2.98353
-3.09246
-3.20904
-3.401
-3.62013
-3.70811
-3.62023
-3.49253
-3.29516
-3.05078
-2.81879
-2.65199
-2.5562
-2.51335
-2.46888
-2.40551
-2.37393
-2.43974
-2.61424
-2.8371
-2.90107
-2.93503
-2.97573
-3.03175
-3.11017
-3.22486
-3.41876
-3.66949
-3.81691
-3.77042
-3.64996
-3.45113
-3.17912
-2.93733
-2.79751
-2.71188
-2.67928
-2.65979
-2.62315
-2.61198
-2.69937
-2.88746
-3.10194
-3.00865
-3.03728
-3.05741
-3.08111
-3.14094
-3.27858
-3.5424
-3.88791
-4.0767
-4.02364
-3.89123
-3.72577
-3.47815
-3.22114
-3.08623
-3.00225
-2.89851
-2.87117
-2.86065
-2.87216
-2.98705
-3.18954
-3.39684
-3.15687
-3.19435
-3.19717
-3.17708
-3.23298
-3.39148
-3.72152
-4.1466
-4.36358
-4.29641
-4.14426
-3.99279
-3.77728
-3.54342
-3.4184
-3.37337
-3.24345
-3.1677
-3.16011
-3.17937
-3.2992
-3.50165
-3.69383
-3.39356
-3.45065
-3.42556
-3.35968
-3.3994
-3.5417
-3.8454
-4.2628
-4.48001
-4.44733
-4.31932
-4.19411
-4.01758
-3.82837
-3.74353
-3.74324
-3.67636
-3.56918
-3.53122
-3.53799
-3.63143
-3.815
-4.00124
-3.69925
-3.73649
-3.68734
-3.60517
-3.60001
-3.71131
-3.93251
-4.2449
-4.45152
-4.47886
-4.40097
-4.31177
-4.19741
-4.08416
-4.0685
-4.07801
-4.09839
-4.04302
-3.96372
-3.92214
-3.96356
-4.10792
-4.30119
-3.92326
-3.94762
-3.90787
-3.85681
-3.84387
-3.89205
-4.0548
-4.25873
-4.41091
-4.44747
-4.40549
-4.3504
-4.29373
-4.25982
-4.30174
-4.35538
-4.44848
-4.50203
-4.40937
-4.2708
-4.24328
-4.34029
-4.51094
-4.05004
-4.08449
-4.0711
-4.07398
-4.10573
-4.13917
-4.26499
-4.41746
-4.46311
-4.437
-4.38222
-4.34063
-4.33116
-4.35478
-4.42263
-4.52512
-4.64975
-4.80794
-4.7174
-4.5001
-4.41043
-4.45122
-4.56639
-4.15462
-4.18166
-4.1992
-4.26903
-4.33722
-4.41771
-4.54523
-4.65053
-4.58565
-4.48074
-4.38796
-4.34797
-4.36865
-4.41641
-4.4928
-4.60642
-4.74198
-4.85635
-4.78798
-4.57417
-4.46267
-4.45502
-4.51123
-4.28468
-4.28973
-4.30987
-4.44528
-4.53715
-4.6403
-4.79482
-4.87793
-4.75513
-4.56571
-4.44371
-4.42484
-4.45119
-4.48723
-4.55931
-4.65004
-4.74482
-4.78914
-4.71784
-4.56549
-4.46706
-4.43882
-4.45994
-4.46454
-4.44198
-4.48803
-4.59839
-4.68507
-4.78395
-4.91703
-4.94376
-4.80871
-4.64861
-4.55652
-4.54784
-4.56213
-4.58065
-4.63354
-4.69445
-4.74557
-4.7454
-4.67495
-4.56959
-4.49569
-4.4626
-4.46452
-4.67708
-4.67591
-4.72627
-4.75717
-4.79252
-4.85746
-4.92041
-4.91279
-4.83301
-4.74204
-4.70176
-4.69341
-4.67917
-4.68957
-4.71616
-4.74929
-4.77338
-4.76205
-4.70612
-4.62925
-4.57055
-4.53407
-4.52166
-4.88418
-4.92841
-4.9649
-4.92298
-4.90947
-4.93526
-4.95505
-4.93462
-4.89557
-4.86362
-4.85161
-4.83067
-4.80716
-4.8023
-4.80564
-4.81496
-4.82012
-4.80745
-4.77085
-4.71791
-4.66961
-4.63274
-4.61351
-5.04789
-5.08607
-5.1336
-5.06771
-5.0364
-5.03722
-5.0445
-5.03523
-5.01671
-4.99916
-4.97782
-4.94589
-4.92321
-4.90924
-4.89936
-4.89249
-4.88394
-4.86818
-4.84213
-4.80697
-4.77064
-4.74012
-4.72265
-5.14893
-5.17183
-5.19883
-5.15514
-5.12212
-5.12601
-5.13185
-5.13037
-5.11884
-5.10239
-5.07413
-5.04727
-5.02836
-5.01186
-4.99664
-4.9818
-4.96557
-4.94652
-4.92405
-4.89884
-4.87373
-4.85281
-4.84087
-5.23055
-5.23879
-5.24898
-5.23096
-5.19791
-5.20464
-5.20804
-5.20761
-5.1993
-5.18102
-5.16196
-5.14567
-5.13047
-5.11462
-5.09831
-5.08135
-5.06324
-5.04397
-5.02396
-5.00453
-4.98738
-4.97441
-4.96744
-5.3267
-5.33141
-5.33396
-5.32266
-5.29829
-5.30093
-5.29913
-5.29409
-5.28516
-5.27352
-5.26084
-5.24797
-5.23447
-5.22007
-5.20469
-5.18866
-5.17213
-5.15546
-5.1393
-5.12469
-5.11289
-5.10493
-5.10121
-5.4332
-5.43724
-5.43659
-5.42837
-5.41289
-5.41115
-5.40397
-5.3964
-5.38672
-5.37634
-5.36491
-5.35339
-5.34139
-5.32874
-5.31536
-5.3017
-5.28821
-5.27527
-5.26344
-5.25334
-5.24564
-5.24084
-5.23896
-5.54295
-5.54534
-5.54402
-5.53765
-5.52971
-5.52213
-5.51331
-5.5042
-5.49375
-5.48352
-5.47289
-5.46236
-5.45168
-5.44087
-5.42991
-5.41922
-5.40923
-5.40019
-5.39238
-5.3861
-5.38161
-5.37902
-5.37825
-5.65418
-5.65562
-5.65312
-5.64773
-5.64118
-5.63149
-5.62451
-5.61458
-5.60452
-5.59453
-5.58451
-5.57479
-5.56542
-5.55646
-5.54802
-5.54048
-5.53412
-5.52884
-5.52456
-5.52132
-5.51918
-5.51811
-5.51799
-5.76505
-5.76734
-5.76477
-5.76011
-5.75301
-5.73659
-5.73608
-5.72837
-5.71823
-5.7082
-5.6986
-5.6898
-5.68193
-5.67508
-5.66941
-5.66525
-5.66272
-5.66097
-5.65966
-5.6588
-5.65837
-5.65831
-5.65851
121.734
117.097
114.892
105.854
50.4059
41.8896
33.442
25.8386
2.23813
1.88764
1.3957
1.08667
0.668424
0.745352
0.792904
0.832341
0.285239
0.352436
0.47459
0.584233
0.0176469
0.0305439
0.0854249
0.146329
-0.199442
-0.201778
-0.188674
-0.154119
-0.406126
-0.401411
-0.399288
-0.38401
-0.628676
-0.61517
-0.605045
-0.595055
-0.868082
-0.845233
-0.828589
-0.814286
-1.11294
-1.07886
-1.05115
-1.02522
-1.36971
-1.32878
-1.291
-1.25175
-1.69006
-1.6551
-1.6226
-1.58766
-2.17436
-2.19168
-2.19292
-2.19115
-2.74561
-2.84001
-2.87274
-2.82963
-2.92938
-3.00614
-3.02762
-3.01473
-2.85903
-2.92478
-2.95984
-2.95777
-2.80843
-2.87217
-2.91987
-2.93418
-2.78572
-2.8666
-2.92521
-2.95967
-2.76825
-2.85759
-2.91201
-2.94813
-2.81803
-2.89939
-2.95613
-2.99824
-2.98138
-3.0571
-3.11415
-3.15227
-3.22899
-3.29471
-3.34354
-3.3757
-3.50895
-3.56356
-3.60427
-3.63739
-3.798
-3.85028
-3.88885
-3.92503
-4.11575
-4.17795
-4.22756
-4.26536
-4.4249
-4.49091
-4.54092
-4.57151
-4.62306
-4.67879
-4.71627
-4.73163
-4.64427
-4.68002
-4.70157
-4.70634
-4.55221
-4.57029
-4.58147
-4.58278
-4.48048
-4.48936
-4.4953
-4.49649
-4.47221
-4.47553
-4.47908
-4.48106
-4.52062
-4.52049
-4.52226
-4.52478
-4.60812
-4.60637
-4.60703
-4.60932
-4.7169
-4.71506
-4.71542
-4.71751
-4.83715
-4.83633
-4.83716
-4.83935
-4.96602
-4.96625
-4.96762
-4.96985
-5.10114
-5.10184
-5.10326
-5.1052
-5.23939
-5.24012
-5.24127
-5.24272
-5.37878
-5.37937
-5.38021
-5.38121
-5.51845
-5.51887
-5.51941
-5.52002
-5.65879
-5.65898
-5.65919
-5.65941
82.7478
72.5481
62.7519
49.817
42.6007
47.5857
53.7223
55.7869
57.5073
61.0602
64.6084
74.6482
94.9665
124.493
156.717
189.861
217.042
230.091
238.051
14.4319
7.82438
4.86571
4.01864
4.72914
6.04278
8.02196
8.91465
8.23943
6.98125
6.75227
8.73494
17.9082
36.0938
60.473
86.376
106.973
119.042
129.753
1.14345
1.37934
1.84303
2.57363
2.92589
2.33995
0.737147
-0.0687853
-0.00500861
0.0536047
1.22186
2.10208
1.65493
1.35092
6.89529
20.1219
37.5015
53.2565
60.7695
0.844633
0.822864
1.11463
1.53047
1.30113
0.529713
-0.186745
-0.408846
-0.26206
0.111654
0.823077
1.26204
1.03998
0.88599
0.857195
0.963595
1.24276
4.57664
8.47778
0.60133
0.407847
0.470704
0.509755
-0.0346758
-0.585261
-0.881199
-0.80197
-0.554154
-0.163813
0.319956
0.611365
0.576478
0.476204
0.461838
0.439724
0.254608
0.226283
0.347748
0.186481
0.0638363
-0.0292788
-0.172326
-0.537276
-0.840032
-0.974025
-0.907994
-0.685936
-0.325964
0.0642354
0.291179
0.252744
0.2247
0.258059
0.145815
-0.0597177
-0.123415
0.00628043
-0.0942461
-0.128702
-0.239075
-0.395819
-0.620362
-0.844287
-0.94205
-0.887813
-0.680024
-0.354887
-0.0413631
0.111524
0.0815692
0.079359
0.0640289
-0.16894
-0.396681
-0.396312
-0.235071
-0.342679
-0.338241
-0.354975
-0.451936
-0.628055
-0.774543
-0.866396
-0.850424
-0.707353
-0.462369
-0.22604
-0.115505
-0.130188
-0.130153
-0.180242
-0.373878
-0.552777
-0.540528
-0.405208
-0.575109
-0.540197
-0.493392
-0.548555
-0.680945
-0.766152
-0.869922
-0.915652
-0.854668
-0.681375
-0.507005
-0.416466
-0.402525
-0.359428
-0.424003
-0.528776
-0.607212
-0.573509
-0.527796
-0.789282
-0.731994
-0.666449
-0.702788
-0.806567
-0.864121
-0.986967
-1.07216
-1.06233
-0.931304
-0.781308
-0.692129
-0.675571
-0.612555
-0.655919
-0.722088
-0.74529
-0.680651
-0.675597
-0.982799
-0.925656
-0.870966
-0.898679
-0.993135
-1.0458
-1.16285
-1.24986
-1.26637
-1.15754
-1.01043
-0.925254
-0.899782
-0.875869
-0.907927
-0.960574
-0.973874
-0.897972
-0.874752
-1.19227
-1.13885
-1.09039
-1.14911
-1.21666
-1.25837
-1.34388
-1.40726
-1.42496
-1.34841
-1.21406
-1.12593
-1.09485
-1.10419
-1.16124
-1.27666
-1.29399
-1.21689
-1.15039
-1.52068
-1.42539
-1.36576
-1.45867
-1.46438
-1.46978
-1.51042
-1.54304
-1.54433
-1.49352
-1.39314
-1.31966
-1.2955
-1.32199
-1.41341
-1.59495
-1.68034
-1.62727
-1.49103
-2.13116
-1.83084
-1.76977
-1.8017
-1.7059
-1.6667
-1.6635
-1.66409
-1.66199
-1.6171
-1.55282
-1.50768
-1.50996
-1.55951
-1.65182
-1.81809
-1.92524
-1.86965
-1.71791
-2.65497
-2.27064
-2.2063
-2.07665
-1.9155
-1.84421
-1.81383
-1.79359
-1.78808
-1.74332
-1.71338
-1.71158
-1.74464
-1.81763
-1.88952
-1.96041
-1.98261
-1.90304
-1.81211
-2.88835
-2.63716
-2.46973
-2.25247
-2.0855
-2.00578
-1.96561
-1.94814
-1.92774
-1.89295
-1.92031
-2.00554
-2.08278
-2.13875
-2.15686
-2.11986
-2.03827
-1.9204
-1.86681
-2.89261
-2.78954
-2.58798
-2.36971
-2.22621
-2.1679
-2.13414
-2.11417
-2.06975
-2.09886
-2.23115
-2.42548
-2.54593
-2.55063
-2.47273
-2.33243
-2.16627
-2.03017
-1.96594
-2.91255
-2.81955
-2.63112
-2.46168
-2.36682
-2.33652
-2.32587
-2.30264
-2.25679
-2.35355
-2.5959
-2.85628
-2.97771
-2.94124
-2.77941
-2.57176
-2.35188
-2.19296
-2.12004
-2.95289
-2.82943
-2.67897
-2.5725
-2.52756
-2.52003
-2.52795
-2.52039
-2.52822
-2.64038
-2.90555
-3.11631
-3.20102
-3.16165
-2.99912
-2.78539
-2.54349
-2.36253
-2.29814
-2.96022
-2.86896
-2.77434
-2.71703
-2.69585
-2.70215
-2.73064
-2.77073
-2.81022
-2.87219
-3.08052
-3.21917
-3.27704
-3.25169
-3.13044
-2.94803
-2.71375
-2.52715
-2.48885
-3.0229
-2.96948
-2.91217
-2.87409
-2.85713
-2.86429
-2.8976
-2.96002
-2.98471
-3.01992
-3.16488
-3.2675
-3.30561
-3.28958
-3.21285
-3.07729
-2.87726
-2.71222
-2.71414
-3.17345
-3.13023
-3.07787
-3.03717
-3.01381
-3.01289
-3.03503
-3.07281
-3.0832
-3.11319
-3.2267
-3.30618
-3.33198
-3.32215
-3.2801
-3.20058
-3.06146
-2.93367
-2.97313
-3.39358
-3.34368
-3.27202
-3.21442
-3.17854
-3.16512
-3.16973
-3.18355
-3.18482
-3.20483
-3.28766
-3.34691
-3.36267
-3.35319
-3.34172
-3.33626
-3.29073
-3.20684
-3.24061
-3.6639
-3.60201
-3.49419
-3.41098
-3.35776
-3.33093
-3.32134
-3.31944
-3.30686
-3.3136
-3.36124
-3.39444
-3.39785
-3.38281
-3.39963
-3.4763
-3.55019
-3.54301
-3.4976
-3.96167
-3.89043
-3.75408
-3.6229
-3.54138
-3.4977
-3.47569
-3.46132
-3.44286
-3.43873
-3.44955
-3.4583
-3.4421
-3.42289
-3.45867
-3.59905
-3.77202
-3.83566
-3.69944
-4.29502
-4.19338
-3.99344
-3.81528
-3.71337
-3.65601
-3.62667
-3.60394
-3.58001
-3.56718
-3.55702
-3.54312
-3.50131
-3.48332
-3.52117
-3.68103
-3.89026
-3.95871
-3.82432
-4.58319
-4.43078
-4.18979
-3.98287
-3.8683
-3.80759
-3.76945
-3.74108
-3.71612
-3.69618
-3.68389
-3.65367
-3.59865
-3.56138
-3.59562
-3.73387
-3.90138
-3.95399
-3.8637
-4.70792
-4.53602
-4.31133
-4.12092
-4.00595
-3.94467
-3.90483
-3.87494
-3.85036
-3.82933
-3.81424
-3.79051
-3.73646
-3.67593
-3.69085
-3.78417
-3.88465
-3.9021
-3.85434
-4.67206
-4.52616
-4.35546
-4.21403
-4.12258
-4.06906
-4.03292
-4.00506
-3.98217
-3.96292
-3.9465
-3.92992
-3.89907
-3.83962
-3.80619
-3.87572
-3.91726
-3.91119
-3.86752
-4.56272
-4.47788
-4.37451
-4.28618
-4.22527
-4.18503
-4.15578
-4.13223
-4.11232
-4.09513
-4.07877
-4.05574
-4.0414
-4.01517
-3.97016
-3.99521
-4.00109
-3.9767
-3.92831
-4.49074
-4.45605
-4.40594
-4.3597
-4.32426
-4.29744
-4.27597
-4.25772
-4.24135
-4.22637
-4.2131
-4.17691
-4.15949
-4.16073
-4.13513
-4.09151
-4.12214
-4.08628
-4.04394
-4.48351
-4.47792
-4.46167
-4.44295
-4.4254
-4.40981
-4.39601
-4.38356
-4.37172
-4.36106
-4.35246
-4.30869
-4.27489
-4.26732
-4.26364
-4.22425
-4.27097
-4.20655
-4.1907
-4.53112
-4.53948
-4.54098
-4.53739
-4.53118
-4.52415
-4.5171
-4.51059
-4.5044
-4.50362
-4.49857
-4.46662
-4.41371
-4.39495
-4.38034
-4.40151
-4.39897
-4.32719
-4.34801
-4.61619
-4.6293
-4.63805
-4.64178
-4.64233
-4.64121
-4.63947
-4.63825
-4.63778
-4.64705
-4.65271
-4.62866
-4.57555
-4.54108
-4.49761
-4.56097
-4.52939
-4.4982
-4.53117
-4.72393
-4.73725
-4.74779
-4.75452
-4.75855
-4.76082
-4.76255
-4.76472
-4.76881
-4.78138
-4.79838
-4.78636
-4.74379
-4.70355
-4.63398
-4.72068
-4.70867
-4.70313
-4.71514
-4.84529
-4.85696
-4.86676
-4.87399
-4.87906
-4.88261
-4.88584
-4.88937
-4.89567
-4.90861
-4.93134
-4.94765
-4.936
-4.88512
-4.8128
-4.89064
-4.88719
-4.8589
-4.85836
-4.97501
-4.98419
-4.99225
-4.99855
-5.00312
-5.00643
-5.00955
-5.0132
-5.01997
-5.0372
-5.07203
-5.1307
-5.17981
-5.08631
-5.0337
-5.06597
-5.02973
-4.99445
-4.99437
-5.10922
-5.11597
-5.12204
-5.12682
-5.13017
-5.13237
-5.13433
-5.13707
-5.14396
-5.16929
-5.22493
-5.32125
-5.37163
-5.28508
-5.25226
-5.2397
-5.188
-5.14783
-5.13928
-5.24564
-5.25034
-5.25458
-5.25783
-5.25984
-5.26068
-5.26101
-5.26168
-5.26777
-5.29949
-5.37147
-5.47301
-5.4896
-5.43681
-5.42856
-5.41189
-5.35897
-5.30953
-5.29145
-5.38313
-5.38621
-5.38892
-5.39088
-5.3918
-5.39156
-5.39062
-5.38878
-5.39294
-5.42826
-5.50178
-5.56368
-5.56833
-5.5566
-5.58261
-5.56839
-5.50273
-5.4609
-5.44051
-5.52115
-5.52292
-5.52443
-5.52548
-5.52585
-5.52546
-5.52467
-5.52433
-5.53229
-5.55711
-5.59464
-5.62365
-5.63261
-5.65494
-5.72691
-5.72323
-5.62723
-5.60439
-5.58197
-5.65978
-5.66028
-5.66066
-5.66084
-5.66077
-5.66047
-5.66045
-5.66357
-5.67427
-5.67777
-5.67391
-5.69164
-5.72249
-5.76459
-5.87974
-5.92539
-5.77234
-5.73061
-5.70833
)
;

boundaryField
{
    leftWall
    {
        type            calculated;
        value           nonuniform List<scalar> 
50
(
960.591
902.822
849.307
798.025
747.508
698.186
649.293
599.583
521.965
420.949
320.954
223.215
136.266
70.3235
38.0147
-0.186052
-0.490912
-0.555322
-0.68698
-0.814526
-0.949981
-1.13232
-1.38914
-1.70617
-2.03207
-2.2826
-2.45508
-2.60404
-2.71738
-2.80964
-2.90107
-3.00865
-3.15687
-3.39356
-3.69925
-3.92326
-4.05004
-4.15462
-4.28468
-4.46454
-4.67708
-4.88418
-5.04789
-5.14893
-5.23055
-5.3267
-5.4332
-5.54295
-5.65418
-5.76505
)
;
    }
    rightWall
    {
        type            calculated;
        value           nonuniform List<scalar> 
50
(
672.834
615.86
563.259
513.519
465.161
417.506
368.232
317.306
238.051
129.753
60.7695
8.47778
0.347748
0.00628043
-0.235071
-0.405208
-0.527796
-0.675597
-0.874752
-1.15039
-1.49103
-1.71791
-1.81211
-1.86681
-1.96594
-2.12004
-2.29814
-2.48885
-2.71414
-2.97313
-3.24061
-3.4976
-3.69944
-3.82432
-3.8637
-3.85434
-3.86752
-3.92831
-4.04394
-4.1907
-4.34801
-4.53117
-4.71514
-4.85836
-4.99437
-5.13928
-5.29145
-5.44051
-5.58197
-5.70833
)
;
    }
    lowerWall
    {
        type            calculated;
        value           nonuniform List<scalar> 
62
(
989.927
986.368
982.902
972.06
956.255
941.22
925.747
907.839
891.797
876.044
857.287
837.07
818.486
801.725
786.061
771.255
759.075
750.524
744.664
740.142
735.59
731.053
731.826
702.403
642.876
583.827
525.474
466.947
406.417
342.298
274.158
183.853
179.217
176.99
167.775
547.171
490.408
433.968
378.499
322.849
266.825
210.134
151.248
574.848
569.873
574.694
564.975
554.697
574.443
589.039
591.335
595.614
601.969
604.03
605.38
619.911
644.679
664.707
677.993
684.818
689.429
701.291
)
;
    }
    atmosphere
    {
        type            calculated;
        value           nonuniform List<scalar> 
46
(
-5.81966
-5.82383
-5.82114
-5.81775
-5.81309
-5.77809
-5.79277
-5.78724
-5.77601
-5.76595
-5.75643
-5.74821
-5.74123
-5.73562
-5.73157
-5.72931
-5.72904
-5.72904
-5.72904
-5.72904
-5.72904
-5.72904
-5.72904
-5.72904
-5.72904
-5.72904
-5.72904
-5.72904
-5.72904
-5.72904
-5.72904
-5.72904
-5.72904
-5.72904
-5.72904
-5.72904
-5.733
-5.73364
-5.74976
-5.76678
-5.80562
-6.00759
-6.11903
-5.8011
-5.77716
-5.76088
)
;
    }
    defaultFaces
    {
        type            empty;
    }
}


// ************************************************************************* //
