/*--------------------------------*- C++ -*----------------------------------*\
| =========                 |                                                 |
| \\      /  F ield         | OpenFOAM: The Open Source CFD Toolbox           |
|  \\    /   O peration     | Version:  2.3.0                                 |
|   \\  /    A nd           | Web:      www.OpenFOAM.org                      |
|    \\/     M anipulation  |                                                 |
\*---------------------------------------------------------------------------*/
FoamFile
{
    version     2.0;
    format      ascii;
    class       volScalarField;
    location    "2.6";
    object      p_rgh;
}
// * * * * * * * * * * * * * * * * * * * * * * * * * * * * * * * * * * * * * //

dimensions      [1 -1 -2 0 0 0 0];

internalField   nonuniform List<scalar> 
2268
(
989.927
986.368
982.902
972.06
956.255
941.22
925.747
907.839
891.797
876.044
857.287
837.07
818.486
801.725
786.061
771.255
759.075
750.524
744.664
740.142
735.59
731.053
731.826
986.512
986.302
983.845
973.435
956.688
940.877
925.012
907.073
891.02
874.299
856.016
836.641
818.139
801.034
785.298
770.621
758.148
749.865
744.005
739.512
734.829
729.948
731.148
980.623
985.847
985.974
975.302
960.36
942.688
924.227
905.654
885.569
865.765
846.082
833.241
817.567
800.857
784.33
768.725
756.48
748.481
742.447
737.765
733.055
729.012
730.953
981.866
976.671
988.339
977.889
963.454
944.641
923.895
903.518
878.307
862.859
841.542
819.778
814.115
800.21
783.916
768.581
755.6
745.838
738.886
734.341
730.553
728.328
731.451
983.868
974.921
984.632
981.117
966.596
946.471
924.3
902.496
892.982
870.644
837.284
818.725
811.807
798.16
783.376
768.272
754.031
742.072
733.577
729.185
726.953
727.072
731.734
987.062
977.994
964.876
983.573
970.103
948.782
925.382
906.232
892.586
875.853
853.299
830.649
810.908
795.857
782.393
767.591
751.902
736.646
725.551
720.812
718.954
723.326
730.044
1013.64
981.888
969.211
976.822
973.912
951.409
926.934
907.293
892.749
873.786
849.272
826.245
807.381
793.262
781.012
766.49
749.055
726.712
707.086
703.51
703.452
706.335
723.677
1038.54
1010.95
991.739
974.215
965.58
950.127
926.081
908.466
893.351
872.643
846.8
822.743
803.968
790.942
779.097
764.331
745.827
716.333
701.585
699.998
700.215
700.197
708.302
574.848
569.873
574.694
564.975
554.697
574.443
589.039
591.335
595.614
601.969
604.03
605.38
619.911
644.679
664.707
677.993
684.818
689.429
701.291
573.06
565.732
571.163
561.75
548.222
570.186
586.786
589.38
593.767
600.568
601.669
599.838
614.091
641.409
665.957
679.153
681.436
684.697
696.871
571.722
564.79
569.519
555.988
544.151
567.209
582.794
586.025
591.579
599.183
599.056
594.92
606.792
634.342
662.988
685.88
679.258
678.261
692.526
571.361
569.882
575.316
553.885
541.656
564.324
577.631
581.31
588.657
597.775
596.327
588.726
600.466
629.464
659.059
688.509
688.267
682.178
694.495
581.455
585.167
579.634
555.453
542.159
562.081
572.872
576.903
585.285
595.729
594.03
581.536
598.295
628.302
656.888
689
703.756
687.425
697.848
579.563
591.176
583.404
558.947
547.227
561.816
569.181
573.392
582.237
592.899
592.198
574.804
588.009
617.609
657.291
691.138
684.905
692.368
703.094
580.822
592.993
587.507
562.153
552.364
562.244
567.178
572.041
579.544
589.252
592.742
594.867
589.849
600.869
646.393
673.745
684.979
707.299
742.012
585.726
592.497
581.571
564.164
553.513
547.288
551.485
562.971
575.354
585.222
590.081
598.676
613.718
609.28
626.903
660.234
690.226
742.042
751.839
1052.5
1044.39
1024.75
993.32
970.125
945.132
921.9
913.296
896.316
872.923
845.545
818.006
798.195
785.606
775.132
759.755
736.601
720.673
709.213
701.689
699.08
699.781
685.725
1075.99
1063.83
1037.99
1016.15
990.734
965.999
942.943
918.769
900.809
877.094
842.15
805.708
776.146
753.216
736.869
685.169
628.834
594.605
580.168
591.722
618.566
642.403
640.569
1100.5
1079.38
1050.6
1022.34
993.719
966.519
945.79
930.243
912.222
844.591
594.294
345.258
234.098
236.611
268.613
288.265
259.691
186.803
78.642
31.6435
24.0271
31.1292
28.891
1127.27
1102.48
1072.82
1037.2
997.911
900.465
831.638
785.959
669.912
414.001
130.216
7.31132
1.30609
1.39285
1.3169
1.24294
16.2063
13.1087
2.02687
1.80739
1.80105
1.73509
1.72095
1164.86
1153.42
977.899
551.356
286.329
128.543
96.4091
133.697
103.009
55.1228
10.4476
1.37684
1.48812
1.42821
1.37995
1.68537
2.02473
1.60458
2.23028
2.46963
1.84577
1.62433
1.55378
1220.86
1108.45
656.535
167.073
3.44282
1.19295
0.915804
0.737436
0.846355
0.83378
0.625892
0.816339
1.71632
1.74725
1.67705
1.47806
1.39432
1.51565
2.37927
2.24394
1.41724
1.1671
1.19626
788.652
474.634
90.8842
1.00012
1.18103
1.0658
0.919241
0.626809
0.694777
0.586
0.562816
0.578297
0.842399
0.988337
1.85357
1.7851
1.78065
1.36995
1.41259
0.837541
0.917729
1.04996
1.10778
1.51331
1.39442
1.33835
0.984435
1.38045
1.47908
0.964373
0.492034
0.572069
0.520825
0.496805
0.435908
0.350439
0.270284
0.265911
0.254875
0.272708
0.314217
0.382611
0.552238
0.785551
0.957123
1.01544
1.35952
1.32924
2.08767
3.96095
2.02294
1.06391
0.625901
0.621666
0.61187
0.539866
0.449782
0.329371
0.196353
0.0554552
-0.0691428
-0.12044
-0.0872862
0.00558829
0.151024
0.403584
0.700702
0.884805
0.970146
1.44526
1.54785
4.141
4.18332
1.05169
1.02993
0.848172
0.803171
0.71127
0.57844
0.41634
0.229393
0.0373126
-0.144481
-0.285964
-0.353883
-0.34707
-0.257814
-0.0888189
0.242711
0.512999
0.735072
0.875119
1.46446
1.44222
1.78876
2.59062
1.70033
1.06615
1.03956
0.953528
0.804313
0.622121
0.412479
0.17419
-0.065012
-0.274574
-0.437629
-0.521788
-0.529314
-0.451727
-0.289452
-0.0469801
0.280859
0.584928
0.75129
1.48777
1.49799
1.50759
1.57729
1.93013
1.41833
1.14482
1.04603
0.875821
0.668147
0.435006
0.172217
-0.0772336
-0.301875
-0.477627
-0.576922
-0.604
-0.549665
-0.393851
-0.166833
0.0905984
0.333464
0.572253
1.50543
1.55526
1.72678
1.90875
2.06772
1.94639
1.2494
1.06233
0.905541
0.705389
0.477891
0.220865
-0.0369577
-0.258436
-0.440085
-0.546229
-0.566776
-0.512859
-0.383588
-0.188843
0.0202976
0.195946
0.311587
2.50559
3.67895
4.67666
4.68045
3.96783
2.75776
1.57245
1.019
0.878421
0.708879
0.519623
0.301292
0.0609611
-0.160813
-0.302299
-0.393876
-0.404389
-0.361662
-0.239857
-0.100192
0.0230218
0.0765186
0.43039
5.24594
5.20321
4.9964
4.68969
4.58225
4.6227
4.41703
3.24905
1.78142
0.726672
0.561242
0.390249
0.196385
0.0227647
-0.100015
-0.155579
-0.140635
-0.0641657
0.0362637
0.112466
0.139906
0.0368365
2.32534
5.29225
3.84252
1.91471
1.22474
1.70852
3.80408
4.49637
4.53741
4.53622
4.50322
4.35049
2.87363
0.47817
0.17477
0.130762
0.15074
0.213713
0.30845
0.390962
0.422383
0.372794
1.87375
2.63232
3.02708
0.3511
0.270394
0.246601
0.272188
0.305761
0.535004
0.712068
0.708521
3.12688
4.47899
4.58739
4.75084
3.70011
0.89651
0.398351
0.517623
0.6323
0.714769
0.747212
0.712531
3.36929
2.92698
0.40235
0.293542
0.26347
0.245615
0.271438
0.840175
1.42849
0.683699
0.504752
0.459429
0.47685
2.04195
5.21262
5.32516
4.48929
1.15109
0.733612
0.871313
0.954987
0.972849
1.95806
3.62026
2.63929
0.356164
0.280944
0.246625
0.233768
1.48838
2.95556
2.80169
2.63735
0.30535
0.359163
0.441131
2.25516
5.43091
5.52568
5.69606
2.92984
0.934592
1.07578
1.01479
1.07227
2.57444
3.78713
1.59651
0.333687
0.28079
0.233211
0.587945
3.08244
2.90756
2.70054
2.48127
0.549098
1.27175
5.23691
5.49688
5.51559
5.72413
5.96166
1.9667
1.04224
1.08626
0.958768
1.08476
2.03135
1.9791
1.80334
0.346662
0.302248
0.247454
0.880573
3.16028
2.98349
2.015
1.19298
4.96858
5.1718
5.41068
5.70416
5.23402
2.98387
1.5338
1.14387
1.18109
1.07388
0.866778
1.04338
1.14673
1.09353
1.61444
0.379255
0.34241
0.293524
0.433551
2.13476
2.49616
0.232179
0.847428
5.05311
3.66951
0.845388
1.03696
1.29729
1.38245
1.54916
1.67454
1.13367
0.717486
0.773582
0.852263
0.745476
0.668139
0.525093
0.418135
0.38689
0.365713
0.334603
0.252803
0.353217
0.274118
0.129427
0.687672
2.29005
2.29146
2.20113
1.43274
2.3412
2.59533
3.00328
1.01324
0.645151
0.681676
0.692732
0.606315
0.422155
0.211852
0.442239
0.454398
0.558424
0.409921
0.34116
0.200124
1.1888
2.42502
2.25792
2.01501
0.654881
0.51084
2.24907
3.53338
3.93067
4.01465
3.3256
0.594968
0.569835
0.558395
0.4435
0.241985
0.0390763
0.674908
2.30218
3.13826
0.569532
0.362389
0.193111
1.58704
2.4204
2.17669
-0.0235414
-0.591679
-0.439868
-0.220964
0.105334
0.365837
3.49547
4.06173
1.37873
0.396692
0.377023
0.25763
0.0552291
-0.136124
2.3996
3.91156
3.94534
3.27088
0.308867
0.165925
0.0271611
0.349074
-0.083806
-0.769066
-0.641081
-0.515821
-0.244073
0.231096
0.135894
-0.00448309
3.8873
3.56878
0.238683
0.144687
0.0725339
-0.131254
0.0475133
3.14402
3.88568
3.91608
3.88473
1.72108
0.152392
-0.114828
-0.439416
-0.647251
-0.674913
-0.596973
-0.507683
0.537352
0.694835
-0.0206598
-0.27275
2.55694
3.39884
0.410308
-0.106896
-0.130693
-0.152999
0.821832
1.42251
3.84204
2.29721
1.32759
2.4902
2.42025
0.86577
-0.282539
-0.479894
-0.517643
-0.47569
-0.419387
0.694442
0.696917
-0.179229
-0.427429
0.409085
3.18575
1.73057
-0.310141
-0.281908
0.115594
0.837488
1.30478
0.490821
0.272389
0.265443
0.558644
4.29948
4.27651
1.9073
-0.349938
-0.37799
-0.326084
-0.244628
0.844106
0.176717
-0.369654
-0.471865
-0.58204
2.66998
1.68212
-0.391285
-0.321429
-0.0903496
0.75846
1.61021
0.35232
0.283715
0.191363
0.126836
2.50158
4.37761
4.26662
1.42545
-0.277575
-0.20023
0.829779
0.967035
-0.210918
-0.314135
-0.427758
-0.552982
-0.324441
0.214284
-0.315904
-0.245734
-0.233445
-0.1359
1.67112
0.410851
0.499142
0.304999
0.0573463
0.200474
4.39042
4.31317
2.55713
-0.165872
-0.0926808
1.37328
1.02169
-0.184179
-0.255071
-0.331723
-0.430117
-0.476575
-0.398566
-0.172749
-0.0991108
-0.118001
-0.150121
1.51947
0.728462
3.58579
3.25961
0.0612643
0.106865
3.63155
4.43772
0.8384
-0.108311
0.855147
1.41952
-0.0540301
-0.164292
-0.189763
-0.241077
-0.299739
-0.308855
-0.238992
-0.12268
-0.0240868
-0.0174698
-0.0389879
-0.0963653
2.32607
3.82074
3.78984
1.4667
0.126087
0.0394923
0.311612
0.132294
0.505752
1.65006
1.35071
-0.139469
-0.14985
-0.161756
-0.169174
-0.192777
-0.189343
-0.146212
-0.0732851
0.00459492
0.0459876
0.0266596
-0.204897
2.47661
3.81781
3.81971
3.73261
0.161423
0.123726
0.295511
1.1966
1.67299
1.66961
-0.165781
-0.142275
-0.137416
-0.140746
-0.135347
-0.112795
-0.100122
-0.0635882
-0.0405609
0.0131864
0.0624771
0.0592934
-0.25681
0.797434
3.46793
3.83632
1.65213
0.2914
0.15965
1.48776
1.51035
1.52777
0.203535
-0.155811
-0.133132
-0.119156
-0.109273
-0.102401
-0.0916085
-0.0549915
-0.021144
-0.00976376
0.0204104
0.0572501
0.0859274
-0.232633
-0.255568
-0.176567
0.745713
-0.206773
0.235256
0.058419
0.39896
0.601875
-0.187111
-0.158851
-0.131998
-0.113082
-0.096584
-0.0813651
-0.066521
-0.0502803
-0.0307795
-0.00795664
0.0168127
0.0420335
0.0733666
0.0939842
-0.189019
-0.198211
-0.208444
-0.190426
-0.157375
-0.164101
-0.167516
-0.167106
-0.158816
-0.140551
-0.121494
-0.105203
-0.0899936
-0.0741418
-0.0578343
-0.0408766
-0.0227663
-0.00349734
0.0165069
0.0359475
0.0533437
0.072162
0.0863336
-0.160593
-0.164885
-0.168059
-0.156923
-0.132559
-0.135165
-0.133157
-0.12818
-0.118879
-0.107566
-0.095176
-0.0823028
-0.0687998
-0.0544026
-0.0390173
-0.0229878
-0.00646656
0.0102066
0.0263657
0.0409775
0.0528264
0.060861
0.064679
-0.142345
-0.145457
-0.144899
-0.137439
-0.12189
-0.108742
-0.11133
-0.105363
-0.0949651
-0.0845963
-0.0740526
-0.0625317
-0.0505292
-0.0378826
-0.0244969
-0.0108344
0.00265071
0.0155845
0.0274236
0.0375235
0.045216
0.0500207
0.0519008
-0.1269
-0.128811
-0.127271
-0.12151
-0.113371
-0.0878381
-0.0946159
-0.0881452
-0.077254
-0.0673618
-0.0568345
-0.0463041
-0.0356285
-0.0248133
-0.0138522
-0.0031602
0.0068321
0.0158646
0.02367
0.0299505
0.0344474
0.0370324
0.0378
-0.112933
-0.114371
-0.11176
-0.106456
-0.099362
-0.0715832
-0.0821719
-0.0733271
-0.0632684
-0.0532803
-0.0432618
-0.0335437
-0.0241709
-0.0152117
-0.00677137
0.000769237
0.00712659
0.0124096
0.0166882
0.0199252
0.022072
0.0231425
0.0232572
-0.0986044
-0.1009
-0.0983225
-0.0936699
-0.0863056
-0.0645837
-0.06964
-0.0619243
-0.0517845
-0.0417616
-0.0321594
-0.0233595
-0.015484
-0.00863502
-0.00296566
0.00118835
0.00372338
0.00546866
0.00678171
0.00764013
0.0080724
0.00813668
0.00793213
651.13
646.494
644.108
633.556
529.308
437.526
354.964
288.201
17.711
11.9529
7.07811
2.49408
1.84185
1.95634
2.06041
2.43093
1.69666
2.01441
2.24395
2.52802
1.20096
1.72081
2.31434
2.35863
1.11163
1.10954
1.49942
1.7766
1.03299
1.0376
1.04046
1.12183
0.945583
0.952472
0.963388
1.25355
0.927416
0.869473
0.870771
0.895517
0.815796
0.797931
0.787589
0.824148
0.655347
0.666812
0.692953
0.756957
0.449363
0.546359
0.592643
1.61548
0.458923
1.89815
2.67562
2.61614
2.39947
2.31553
2.27179
1.73019
2.42446
1.47402
0.392259
0.356453
1.39341
0.68405
0.627183
1.02861
1.11068
0.979875
1.54416
1.57562
1.86439
1.84705
1.79092
1.78438
2.17248
2.00477
0.208875
0.173883
0.626422
0.317933
0.111755
0.06454
0.217592
0.137612
0.0756848
0.0321323
0.0907927
0.0325455
-0.0207613
-0.0198527
-0.0667395
-0.116617
-0.152096
-0.0596092
-0.235833
-0.200466
0.607566
0.120928
0.312727
0.590359
0.804354
0.766548
0.761473
0.725436
0.657222
0.626373
0.769838
0.704037
0.650083
0.634671
0.92481
0.913149
0.866182
0.834851
0.29178
0.482002
0.156804
0.268884
-0.168674
-0.175517
-0.190092
-0.192859
-0.0486627
-0.0524548
-0.0565363
-0.0587662
0.0267557
0.0266177
0.0246373
0.0220432
0.0643881
0.0659297
0.0651993
0.0629071
0.0896383
0.0916914
0.0877782
0.0930661
0.0977019
0.0974982
0.101352
0.0992067
0.082597
0.0785514
0.0809084
0.0839368
0.0645656
0.06385
0.0624385
0.0605771
0.0514766
0.0507441
0.04959
0.0481386
0.0372753
0.0366794
0.0358438
0.0348399
0.0227984
0.0223787
0.0218433
0.0212309
0.00765741
0.00746218
0.00725015
0.00703345
591.888
553.662
517.914
433.223
357.46
364.769
362.944
361.766
404.37
436.14
440.086
531.361
603.095
636.841
666.178
698.687
741.932
755.211
763.171
154.96
75.9881
28.5471
5.76049
8.40562
24.9669
84.6095
104.905
77.5505
74.4914
77.6681
83.6327
193.358
412.815
605.898
708.992
755.33
767.398
778.109
2.69616
3.0725
3.62231
4.49865
6.33216
5.4361
2.89413
1.13565
0.996562
1.20463
2.40474
3.18596
2.63265
2.31497
85.8222
264.262
491.632
665.467
733.809
2.71198
3.35872
3.59816
4.5633
5.79587
5.10181
3.42891
0.764804
0.71761
1.14348
1.87849
2.28963
2.13466
2.00455
1.97469
2.10202
13.4571
71.7407
127.545
2.53391
4.22996
4.56742
4.60647
3.52324
1.992
0.556828
0.282785
0.52947
0.938029
1.43007
1.7325
2.10451
2.23218
2.09442
2.40546
2.12523
1.81262
1.93267
1.73578
1.54933
2.61533
4.06183
0.824498
0.407974
0.269041
0.296368
0.519981
0.885862
1.28562
1.53236
1.55207
1.42852
1.60903
2.15535
2.09942
1.69051
1.77349
1.64004
1.48862
1.27366
1.03379
0.794991
0.532083
0.390107
0.444007
0.653686
0.982381
1.30298
1.49669
1.41328
1.41135
2.6103
2.71099
1.76027
1.55815
1.72548
1.66745
1.68163
1.44029
1.78079
1.04252
0.686129
0.59438
0.611564
0.754156
1.00251
1.66064
1.88848
1.62183
1.37361
2.73601
2.78963
2.34279
1.60633
1.74175
1.62013
1.26027
1.85581
2.82346
1.18263
0.822022
0.718908
0.674382
0.745772
1.38563
1.67833
1.76778
1.78063
1.39474
1.46496
2.83268
2.98411
1.76441
1.81173
1.14283
1.01221
2.65708
2.94424
1.09411
0.852557
0.730837
0.647707
0.886677
1.43227
1.58227
1.64192
1.68443
1.74848
1.40044
2.09802
3.19002
2.49769
1.85879
0.876933
0.944379
2.57791
3.02337
0.918422
0.798108
0.705894
0.656262
1.13208
1.38394
1.53138
1.09923
1.02027
1.57451
1.28097
2.37771
3.259
3.33517
1.96615
0.826341
0.868423
2.44539
3.0462
0.761911
0.713405
0.63169
0.630203
1.08143
1.37095
1.14793
0.869838
0.899454
0.891095
1.17724
3.07097
3.23444
3.31279
3.37439
1.61939
0.799972
2.92016
2.97044
0.636506
0.632038
0.591115
0.592751
1.03496
0.980299
0.796387
0.805414
0.829668
0.802991
0.71262
2.2507
3.14516
3.19599
2.59083
1.40119
1.4025
2.76736
1.95487
0.524258
0.56385
0.567575
0.733634
1.04626
0.687318
0.731985
0.764379
0.919951
0.720579
0.611077
0.444756
3.11804
2.20999
0.838315
0.509902
2.16213
2.53422
0.287145
0.443894
0.515038
0.54826
0.852397
0.753414
0.695775
0.752495
1.16001
1.02141
0.696987
0.504855
0.430977
2.00721
1.23264
0.892207
0.466518
1.95806
0.418889
0.236174
0.402879
0.482889
0.759182
0.839161
0.598667
0.703247
1.84377
1.95676
1.88379
0.588412
0.365512
0.396503
0.769413
1.0715
1.15833
1.47986
1.59235
0.043444
0.25362
0.39162
0.626665
0.751446
0.56799
0.587826
1.98773
1.93687
1.74879
1.62668
1.37573
0.235576
0.300518
0.391702
0.58261
1.64726
1.58758
0.129303
0.144482
0.307056
0.596056
0.641991
0.57839
0.504816
1.22096
1.99155
1.76837
1.51983
1.4023
0.994223
0.00732007
0.214782
0.322577
0.491595
1.6715
0.873128
0.023029
0.262244
0.519205
0.565675
0.468201
0.301009
0.688242
1.98176
1.90249
1.33495
0.0732297
-0.11447
-0.0435221
-0.148949
0.0748097
0.252235
0.437733
1.44665
0.0105358
0.0974917
0.367126
0.432457
0.282176
0.212891
0.20534
1.22952
1.88464
0.910221
-0.166536
-0.305584
-0.363811
-0.338135
-0.213258
-0.0310241
0.205716
0.413188
1.56899
0.0352517
0.0871139
0.179477
0.175135
0.180508
0.173232
0.160056
0.74003
0.335282
0.0243839
-0.123355
-0.22453
-0.267186
-0.251113
-0.174096
-0.0374568
0.164638
0.542137
3.23858
0.00739899
0.0466059
0.0859078
0.125516
0.14883
0.149738
0.129637
0.0976941
0.080364
0.051135
-0.062358
-0.142603
-0.168318
-0.158492
-0.116382
-0.0365258
0.104314
0.678625
3.22495
0.106321
0.150188
0.117223
0.0734139
0.109287
0.122703
0.118073
0.104252
0.103055
0.262709
0.432673
-0.0580143
-0.0737778
-0.0642881
-0.0527453
-0.0464771
0.1353
2.89948
3.10691
-0.00580888
-0.0166066
-0.0391657
0.0140039
0.0552761
0.0828885
0.0916625
0.0935646
0.106144
0.490826
1.04392
0.142332
0.0162857
0.0313377
0.0146861
-0.0597538
0.672681
2.74559
0.685632
-0.378646
-0.314809
-0.188322
-0.0735866
0.00548377
0.0419447
0.0625084
0.0769027
0.0953275
0.465575
1.14386
0.898207
0.0972856
0.116672
0.0812808
0.117394
1.23895
1.04919
0.634982
0.0405102
0.369566
0.527051
0.0489907
-0.0489732
0.00837416
0.0375173
0.060402
0.0835991
0.170715
1.23112
1.31603
0.163407
0.181665
0.144987
0.0917323
1.28841
-0.207924
0.93921
0.616418
0.750757
0.983066
0.421847
-0.0785123
-0.0179571
0.0205611
0.0489302
0.0728299
0.0924313
0.42051
1.40819
1.35704
0.229024
0.194781
0.0698161
0.275806
-0.0700472
1.40435
0.658612
0.61386
0.118359
0.0980625
-0.0704845
-0.0297281
0.0101258
0.0398988
0.0635972
0.0843925
0.135247
1.44312
1.8609
1.4205
0.224991
0.131739
0.0328241
0.0140861
1.4729
0.877804
0.355216
-0.294444
-0.133187
-0.0285886
-0.0270261
0.00662531
0.0342864
0.0567661
0.0759967
0.0924174
0.114448
1.8894
2.32499
0.878866
0.167214
0.124207
0.129992
1.17696
0.41464
-0.038706
-0.208559
-0.121177
-0.0553379
-0.017417
0.00896887
0.0320926
0.0517867
0.068978
0.0853407
0.108368
0.122852
2.35036
2.99643
0.19953
0.165357
0.189683
2.12488
-0.186263
-0.157979
-0.11526
-0.0701461
-0.0347261
-0.00785965
0.0135382
0.0316374
0.0479548
0.0629382
0.0762021
0.112389
0.135699
0.13748
2.6727
0.200272
0.1695
0.205377
3.01813
-0.0606352
-0.0557608
-0.0399766
-0.0264888
-0.0108592
0.00472093
0.0185468
0.0309919
0.0427932
0.0534375
0.0620397
0.587454
0.301551
0.160737
0.864802
4.67659
0.295944
0.210354
3.50716
0.0166851
0.0216264
0.0193372
0.00614075
0.00854554
0.0155726
0.0226436
0.0291344
0.0352985
0.0360681
0.0433267
1.90075
1.81578
0.191115
1.30385
4.8984
0.264214
0.595616
4.38062
0.0672754
0.0579949
0.0456555
0.024471
0.0225684
0.0237035
0.0254402
0.0266452
0.0271061
0.017834
0.697924
1.93947
1.98103
0.479129
1.40543
5.0341
1.75644
4.47114
4.43818
0.0890251
0.075833
0.0467739
0.0355712
0.0315398
0.0292714
0.0275394
0.0253588
0.0212678
0.00869864
0.52565
1.93453
1.93038
0.504944
3.56048
5.23163
5.24364
2.43136
1.08978
0.0930918
0.0634845
0.0485381
0.041285
0.0362191
0.0326735
0.0294413
0.02591
0.0196054
0.00666179
-0.0160671
1.07535
2.15264
1.15062
5.3174
5.32179
1.71781
0.0944922
0.0577796
0.0692849
0.0563091
0.0482204
0.0419206
0.0373495
0.0340455
0.0309231
0.027275
0.0204969
0.00327427
-0.0315181
1.40627
2.25924
2.68388
5.21089
2.18043
0.124899
0.150206
0.0461094
0.0564632
0.0496998
0.0436213
0.0388432
0.0354946
0.0332914
0.0313366
0.0285978
0.0217013
-0.00362671
0.318278
1.4382
0.841805
0.85708
0.613261
0.173269
0.401705
0.0178446
0.0263842
0.0452215
0.0405204
0.0362763
0.033029
0.0310211
0.0301801
0.0298481
0.0291828
0.0230875
0.0540872
0.673077
0.375166
-0.105539
-0.0588711
-0.0298542
0.0690991
0.631466
-0.0186722
-0.000593473
0.0329252
0.0298459
0.0271346
0.025172
0.02425
0.0244893
0.0254347
0.0272707
0.0231356
0.0803334
0.385691
0.301771
-0.0652308
-0.0647483
-0.0773247
0.456267
0.63301
-0.0311892
-0.0244524
0.0200998
0.0183296
0.0168157
0.0157698
0.0153994
0.0157892
0.0165744
0.0169162
0.00896069
-0.01583
-0.0248291
0.0980044
0.00903846
-0.0392039
-0.0366939
0.422879
0.286782
-0.0631428
-0.0407204
0.00666732
0.0061592
0.00578374
0.00559871
0.00567531
0.00597242
0.00598872
0.00287554
-0.00782218
-0.0113288
-0.00746758
-0.00470583
-0.0187151
-0.0224029
0.0622094
0.12678
-0.105894
-0.06417
-0.0418842
)
;

boundaryField
{
    leftWall
    {
        type            fixedFluxPressure;
        gradient        uniform 0;
        value           nonuniform List<scalar> 
50
(
989.927
986.512
980.623
981.866
983.868
987.062
1013.64
1038.54
1052.5
1075.99
1100.5
1127.27
1164.86
1220.86
788.652
1.51331
1.35952
1.44526
1.46446
1.48777
1.50543
2.50559
5.24594
5.29225
3.02708
0.40235
0.356164
0.333687
0.346662
0.379255
0.418135
0.442239
0.674908
2.3996
3.14402
1.42251
1.30478
1.61021
1.67112
1.51947
-0.0963653
-0.204897
-0.25681
-0.232633
-0.189019
-0.160593
-0.142345
-0.1269
-0.112933
-0.0986044
)
;
    }
    rightWall
    {
        type            fixedFluxPressure;
        gradient        uniform 0;
        value           nonuniform List<scalar> 
50
(
701.291
696.871
692.526
694.495
697.848
703.094
742.012
751.839
763.171
778.109
733.809
127.545
1.93267
1.77349
1.72548
1.74175
1.81173
1.85879
1.96615
3.37439
2.59083
0.838315
0.892207
1.15833
1.64726
1.6715
1.44665
1.56899
3.23858
3.22495
3.10691
0.685632
0.634982
0.93921
1.40435
1.4729
1.17696
2.12488
3.01813
3.50716
4.38062
4.43818
1.08978
0.0577796
0.0461094
0.0263842
-0.000593473
-0.0244524
-0.0407204
-0.0418842
)
;
    }
    lowerWall
    {
        type            fixedFluxPressure;
        gradient        uniform 0;
        value           nonuniform List<scalar> 
62
(
989.927
986.368
982.902
972.06
956.255
941.22
925.747
907.839
891.797
876.044
857.287
837.07
818.486
801.725
786.061
771.255
759.075
750.524
744.664
740.142
735.59
731.053
731.826
731.826
731.148
730.953
731.451
731.734
730.044
723.677
708.302
651.13
646.494
644.108
633.556
574.848
573.06
571.722
571.361
581.455
579.563
580.822
585.726
574.848
569.873
574.694
564.975
554.697
574.443
589.039
591.335
595.614
601.969
604.03
605.38
619.911
644.679
664.707
677.993
684.818
689.429
701.291
)
;
    }
    atmosphere
    {
        type            totalPressure;
        rho             rho;
        psi             none;
        gamma           1;
        p0              uniform 0;
        value           nonuniform List<scalar> 
46
(
-0.090624
-0.0947949
-0.0921021
-0.0887061
-0.0840504
-0.0490533
-0.0637303
-0.0581968
-0.0469658
-0.0369073
-0.0273872
-0.0191721
-0.012188
-0.00658335
-0.00252584
-0.000273284
0
0
0
0
0
0
0
0
0
0
0
0
0
0
0
0
0
0
0
0
-0.00396096
-0.0045994
0
0
0
0
0
-0.0720569
-0.0481166
-0.0318441
)
;
    }
    defaultFaces
    {
        type            empty;
    }
}


// ************************************************************************* //
