/*--------------------------------*- C++ -*----------------------------------*\
| =========                 |                                                 |
| \\      /  F ield         | OpenFOAM: The Open Source CFD Toolbox           |
|  \\    /   O peration     | Version:  2.3.0                                 |
|   \\  /    A nd           | Web:      www.OpenFOAM.org                      |
|    \\/     M anipulation  |                                                 |
\*---------------------------------------------------------------------------*/
FoamFile
{
    version     2.0;
    format      ascii;
    class       volVectorField;
    location    "2.6";
    object      U;
}
// * * * * * * * * * * * * * * * * * * * * * * * * * * * * * * * * * * * * * //

dimensions      [0 1 -1 0 0 0 0];

internalField   nonuniform List<vector> 
2268
(
(0.0319014 -0.020647 0)
(0.0750896 -0.0084466 0)
(0.0610181 -0.00480834 0)
(0.0776065 -0.00704073 0)
(0.0989592 -0.00887994 0)
(0.096638 0.00148394 0)
(0.023752 0.0213454 0)
(-0.0422604 0.0136054 0)
(-0.0183757 -0.00770432 0)
(0.037938 -0.015555 0)
(0.0911601 -0.0142211 0)
(0.132359 -0.0118193 0)
(0.155863 -0.00773486 0)
(0.154277 0.000375421 0)
(0.121904 0.00947351 0)
(0.0801389 0.0102198 0)
(0.0710826 0.00170146 0)
(0.0792072 -0.00274884 0)
(0.082345 0.00144296 0)
(0.0589321 0.00939089 0)
(0.0042292 0.0115017 0)
(-0.0383094 0.00328787 0)
(-0.0221577 -0.0111706 0)
(0.00583077 -0.037166 0)
(0.0392821 0.00141701 0)
(-0.01131 -0.00219369 0)
(-0.00423606 -0.0126693 0)
(-0.0131609 0.00187816 0)
(-0.0209313 0.0305135 0)
(-0.0527903 0.0386277 0)
(-0.0401116 0.00655643 0)
(0.0293848 -0.0313822 0)
(0.087654 -0.0384016 0)
(0.133092 -0.0305414 0)
(0.158403 -0.0165493 0)
(0.156763 -0.00166902 0)
(0.140815 0.0138737 0)
(0.115099 0.0225453 0)
(0.097081 0.0153604 0)
(0.106855 -0.000405199 0)
(0.117108 -0.00285006 0)
(0.110926 0.00983541 0)
(0.0855057 0.0275181 0)
(0.0301278 0.0332187 0)
(-0.0113426 0.0124017 0)
(-0.00549332 -0.0241266 0)
(-0.00378881 -0.0410861 0)
(0.00330482 0.00963589 0)
(-0.0478487 0.00871072 0)
(-0.0471106 -0.00660399 0)
(-0.0612579 0.00612468 0)
(-0.066012 0.0309405 0)
(-0.0449422 0.0253936 0)
(0.0170153 -0.0215783 0)
(0.0845744 -0.0633184 0)
(0.154297 -0.0678835 0)
(0.194418 -0.046441 0)
(0.202464 -0.0213001 0)
(0.194615 0.00299239 0)
(0.168743 0.023326 0)
(0.141869 0.0286935 0)
(0.14136 0.0141799 0)
(0.157509 -0.00676052 0)
(0.168209 -0.00567674 0)
(0.161609 0.0183358 0)
(0.128994 0.0460149 0)
(0.0789181 0.0555317 0)
(0.0379697 0.0270988 0)
(0.0176835 -0.0193472 0)
(-0.00826545 -0.0381301 0)
(-0.000109414 0.0233459 0)
(-0.0448243 0.0164454 0)
(-0.0361458 -0.00639059 0)
(-0.0370135 0.00656932 0)
(-0.0276423 0.0187196 0)
(0.012355 0.00129749 0)
(0.0616561 -0.0500309 0)
(0.137651 -0.09857 0)
(0.202219 -0.0968915 0)
(0.233941 -0.0557516 0)
(0.231402 -0.0182383 0)
(0.218619 0.0113764 0)
(0.201452 0.0342336 0)
(0.184769 0.0343987 0)
(0.185613 0.0118734 0)
(0.196509 -0.0120183 0)
(0.202188 -0.00761809 0)
(0.198904 0.025316 0)
(0.174801 0.0623133 0)
(0.133057 0.076783 0)
(0.0873185 0.0502493 0)
(0.0402286 0.00225723 0)
(-0.0119399 -0.0387163 0)
(0.0162329 0.0307389 0)
(-0.0114838 0.022972 0)
(0.00283181 -0.0135052 0)
(0.0128769 0.000945076 0)
(0.0351522 0.00693958 0)
(0.0670151 -0.0163821 0)
(0.112991 -0.0746543 0)
(0.180213 -0.131732 0)
(0.224191 -0.120103 0)
(0.239117 -0.0606889 0)
(0.230754 -0.0120959 0)
(0.217429 0.0181239 0)
(0.209892 0.0392311 0)
(0.206644 0.0367012 0)
(0.210323 0.0108095 0)
(0.217881 -0.0144243 0)
(0.219937 -0.00687862 0)
(0.213842 0.0312596 0)
(0.198858 0.074367 0)
(0.17111 0.0954677 0)
(0.126149 0.0781213 0)
(0.059124 0.0378212 0)
(-0.0163009 -0.0431043 0)
(0.0287071 0.0245441 0)
(0.0353028 0.0252701 0)
(0.0542733 -0.0191221 0)
(0.0602125 -0.00941817 0)
(0.0872686 -0.00557169 0)
(0.111398 -0.0320005 0)
(0.170325 -0.099297 0)
(0.221801 -0.152539 0)
(0.227158 -0.127824 0)
(0.214631 -0.0584351 0)
(0.200457 -0.00572509 0)
(0.189903 0.0236701 0)
(0.187522 0.0393504 0)
(0.193198 0.0333133 0)
(0.204967 0.0070152 0)
(0.214591 -0.0177567 0)
(0.216059 -0.00475811 0)
(0.208623 0.036296 0)
(0.199956 0.0813187 0)
(0.187525 0.109903 0)
(0.151834 0.107804 0)
(0.0739219 0.0849277 0)
(-0.0265477 -0.0440114 0)
(0.0237158 0.00547441 0)
(0.0658126 0.012235 0)
(0.103432 -0.0212663 0)
(0.107019 -0.019164 0)
(0.12556 -0.0194033 0)
(0.16047 -0.0547348 0)
(0.225263 -0.124487 0)
(0.250618 -0.160505 0)
(0.214062 -0.118708 0)
(0.175885 -0.0454398 0)
(0.154509 0.00364062 0)
(0.144197 0.0287016 0)
(0.143349 0.0368312 0)
(0.15399 0.0252714 0)
(0.176403 -0.00206904 0)
(0.178231 -0.0231661 0)
(0.17358 -0.00207372 0)
(0.167931 0.0387439 0)
(0.170456 0.0809166 0)
(0.17612 0.115522 0)
(0.158718 0.131478 0)
(0.0849758 0.134205 0)
(-0.0349564 -0.0385048 0)
(7.74551e-05 -0.0133861 0)
(0.0562006 -0.0164456 0)
(0.121713 -0.0325405 0)
(0.156321 -0.0237862 0)
(0.178926 -0.0295904 0)
(0.221893 -0.0746347 0)
(0.26702 -0.137993 0)
(0.255511 -0.152425 0)
(0.182149 -0.0961612 0)
(0.125717 -0.0266011 0)
(0.0944071 0.0119881 0)
(0.0816814 0.0333541 0)
(0.0866379 0.0367639 0)
(0.105781 0.0163319 0)
(0.122763 -0.0104272 0)
(0.100641 -0.0184972 0)
(0.0851351 0.00592253 0)
(0.0804462 0.0396579 0)
(0.096769 0.0766664 0)
(0.123545 0.11657 0)
(0.13796 0.151439 0)
(0.0742767 0.195925 0)
(0.0417121 -0.022141 0)
(0.108241 0.000743515 0)
(0.0806804 0.0179457 0)
(-0.110293 0.0314229 0)
(-0.208112 0.0131539 0)
(-0.135446 -0.0238949 0)
(-0.0367106 -0.0272449 0)
(0.0460125 -0.020758 0)
(0.10598 -0.0180309 0)
(0.171518 -0.021145 0)
(0.24296 -0.0188717 0)
(0.30528 0.00134408 0)
(0.27348 0.0268257 0)
(0.13507 0.0358307 0)
(-0.00265834 0.0154312 0)
(-0.0526662 0.00436505 0)
(-0.114764 0.00965492 0)
(-0.136224 -0.00402258 0)
(-0.0477961 -0.0291252 0)
(0.0123838 -0.0547977 0)
(0.0859415 -0.00186844 0)
(0.0665335 0.0610875 0)
(-0.161288 0.0790558 0)
(-0.146398 0.0139648 0)
(-0.0214475 -0.06839 0)
(0.0461999 -0.0602278 0)
(0.0990932 -0.0418874 0)
(0.130351 -0.0366622 0)
(0.166022 -0.0483435 0)
(0.221885 -0.0439165 0)
(0.26793 -0.00785916 0)
(0.315542 0.0408264 0)
(0.28091 0.0765385 0)
(0.172459 0.069177 0)
(0.0556133 0.0421858 0)
(-0.077189 0.0271219 0)
(-0.0907081 -0.0154652 0)
(-0.0169268 -0.0650338 0)
(-0.0124872 -0.0694329 0)
(0.0416093 -0.00611578 0)
(0.030515 0.101061 0)
(-0.131099 0.105928 0)
(-0.00546113 -0.0129879 0)
(0.0808919 -0.103157 0)
(0.121336 -0.0856402 0)
(0.135038 -0.0491111 0)
(0.13092 -0.0391524 0)
(0.127213 -0.0635426 0)
(0.164948 -0.0647475 0)
(0.210772 -0.0246904 0)
(0.23861 0.0294052 0)
(0.263205 0.0858865 0)
(0.236938 0.106374 0)
(0.149815 0.0908592 0)
(0.017407 0.0631062 0)
(-0.0132519 -0.0136062 0)
(0.0114818 -0.0759002 0)
(-0.028231 -0.0655643 0)
(-0.00751726 -0.00964783 0)
(0.00173145 0.12696 0)
(-0.079736 0.106262 0)
(0.0996823 -0.0662982 0)
(0.149487 -0.130271 0)
(0.147048 -0.0922993 0)
(0.127075 -0.0397419 0)
(0.101184 -0.0276026 0)
(0.0719694 -0.0689976 0)
(0.0856732 -0.0827643 0)
(0.137435 -0.0324163 0)
(0.15458 0.0214434 0)
(0.182292 0.0788297 0)
(0.207618 0.121008 0)
(0.173662 0.125526 0)
(0.0740877 0.0984431 0)
(0.0388293 -0.0016766 0)
(0.034225 -0.0647852 0)
(-0.0288472 -0.0540793 0)
(-0.0333952 -0.0090006 0)
(0.000144627 0.129055 0)
(0.00433478 0.073697 0)
(0.166364 -0.0945345 0)
(0.170349 -0.137268 0)
(0.124115 -0.0815202 0)
(0.0882737 -0.0222888 0)
(0.0654204 -0.0135022 0)
(0.0283399 -0.06562 0)
(0.000773593 -0.0958186 0)
(0.0547652 -0.0417527 0)
(0.0744063 0.0116315 0)
(0.0953806 0.0650472 0)
(0.139832 0.117725 0)
(0.144449 0.142902 0)
(0.079835 0.12084 0)
(0.0541456 0.0156931 0)
(0.0423266 -0.0499788 0)
(-0.0012274 -0.0384919 0)
(-0.0284419 -0.0202474 0)
(0.0139665 0.104906 0)
(0.125971 0.0312497 0)
(0.222078 -0.105172 0)
(0.155434 -0.119239 0)
(0.0715276 -0.0565339 0)
(0.0483798 -0.00675358 0)
(0.0480939 -0.00191982 0)
(0.00733295 -0.0491559 0)
(-0.0690853 -0.0932194 0)
(-0.0367699 -0.0497839 0)
(-0.011045 -0.000710433 0)
(0.0147755 0.0499227 0)
(0.0648074 0.106044 0)
(0.0836811 0.149779 0)
(0.0442012 0.128937 0)
(0.0478751 0.0223227 0)
(0.042904 -0.0335408 0)
(0.0476727 -0.0392292 0)
(0.0200724 -0.0150025 0)
(0.0539479 0.0588605 0)
(0.195682 -0.0160096 0)
(0.231836 -0.0958353 0)
(0.117218 -0.0807071 0)
(0.0213666 -0.0336027 0)
(0.0288763 -0.00456827 0)
(0.0496368 0.00781379 0)
(0.00614819 -0.0214727 0)
(-0.105384 -0.0699866 0)
(-0.122815 -0.0576832 0)
(-0.0895608 -0.0121531 0)
(-0.0649924 0.0347465 0)
(-0.0174792 0.0923939 0)
(0.000118513 0.151358 0)
(-0.00303423 0.1228 0)
(0.0458327 0.0207759 0)
(0.044166 -0.0146712 0)
(0.101764 -0.086081 0)
(0.0960928 -0.0363581 0)
(0.151774 0.00754203 0)
(0.230481 -0.0336028 0)
(0.226139 -0.0667204 0)
(0.10167 -0.0377281 0)
(0.00741815 -0.0251483 0)
(0.00569117 -0.022699 0)
(0.0415889 0.0104886 0)
(0.0151771 0.0124329 0)
(-0.112488 -0.0349301 0)
(-0.173186 -0.0570657 0)
(-0.159818 -0.0284632 0)
(-0.136513 0.0208018 0)
(-0.103483 0.0860542 0)
(-0.0729063 0.14475 0)
(-0.0116817 0.101508 0)
(0.0564192 0.0150243 0)
(0.0429025 0.00293897 0)
(-0.00700861 -0.0288402 0)
(0.0329796 -0.0508788 0)
(0.0914492 -0.0756975 0)
(0.150864 -0.0884228 0)
(0.199308 -0.0697429 0)
(0.241327 -0.0569065 0)
(0.27334 -0.0885509 0)
(0.273336 -0.128488 0)
(0.216943 -0.107101 0)
(0.113219 -0.0387174 0)
(0.0341097 0.0163962 0)
(-0.0127987 0.0434858 0)
(-0.0333022 0.0405882 0)
(-0.0333403 0.020712 0)
(-0.0249516 0.00214455 0)
(-0.0289322 0.00204499 0)
(-0.0491844 0.0101957 0)
(-0.0651028 0.0217748 0)
(-0.0738129 0.041131 0)
(-0.0577332 0.0634085 0)
(-0.0164028 0.0955772 0)
(0.0590459 0.145155 0)
(0.131572 0.214863 0)
(0.0409883 -0.066844 0)
(0.137999 -0.0859076 0)
(0.206536 -0.110985 0)
(0.219719 -0.12094 0)
(0.21941 -0.103306 0)
(0.231138 -0.0882595 0)
(0.236418 -0.0995184 0)
(0.193904 -0.0942889 0)
(0.113622 -0.017671 0)
(0.0173805 0.0661164 0)
(-0.0847893 0.0936344 0)
(-0.15785 0.0776595 0)
(-0.198133 0.0487176 0)
(-0.21044 0.0247204 0)
(-0.215066 0.00460497 0)
(-0.223655 -0.00382885 0)
(-0.238723 0.00510092 0)
(-0.255319 0.0184092 0)
(-0.261288 0.0245202 0)
(-0.239179 0.0208231 0)
(-0.180666 0.0237327 0)
(-0.0928656 0.0346724 0)
(0.0131989 0.0155965 0)
(0.0554501 -0.220754 0)
(0.166564 -0.224904 0)
(0.208605 -0.163249 0)
(0.184392 -0.112177 0)
(0.139345 -0.0888224 0)
(0.106977 -0.084515 0)
(0.0788982 -0.065841 0)
(0.00129085 -0.00580295 0)
(-0.0524826 0.0639362 0)
(-0.10677 0.129925 0)
(-0.176679 0.147378 0)
(-0.240868 0.120246 0)
(-0.291018 0.0670945 0)
(-0.252856 0.0225061 0)
(-0.181356 0.0120663 0)
(-0.116922 0.026022 0)
(-0.0752364 0.0469036 0)
(-0.0975953 0.0431065 0)
(-0.239635 0.0330499 0)
(-0.329956 -0.0155181 0)
(-0.296145 -0.0696272 0)
(-0.158439 -0.0629595 0)
(-0.0134538 -0.0486131 0)
(0.039101 -0.319799 0)
(0.0837503 -0.247757 0)
(0.0674726 -0.124682 0)
(0.0359385 -0.0346745 0)
(-0.0448699 -0.00535039 0)
(-0.0821012 0.00592818 0)
(-0.0666762 0.0306131 0)
(-0.0344087 0.0711649 0)
(-0.023445 0.106845 0)
(0.0145319 0.172801 0)
(0.124791 0.202178 0)
(0.421906 0.305888 0)
(0.371422 0.170537 0)
(0.0264384 -0.0232544 0)
(0.00812932 -0.0567215 0)
(-0.119252 -0.0808935 0)
(-0.0963126 -0.0368762 0)
(-0.177144 0.186688 0)
(-0.636251 0.363663 0)
(-0.5488 0.108765 0)
(-0.366424 -0.154109 0)
(-0.331296 -0.228637 0)
(-0.29617 -0.2603 0)
(0.0172845 -0.341738 0)
(0.00110587 -0.19237 0)
(0.0144722 -0.0852899 0)
(0.125237 0.00308605 0)
(0.159383 0.0142295 0)
(0.200649 -0.0638564 0)
(0.153255 -0.127114 0)
(0.0520964 -0.0650033 0)
(0.15028 -0.000348871 0)
(0.36543 -0.0411256 0)
(0.519918 -0.254546 0)
(0.217316 0.288277 0)
(-0.0561882 0.324012 0)
(-0.10939 0.146325 0)
(-0.151454 0.0630847 0)
(-0.291152 0.0728469 0)
(-0.576661 0.197384 0)
(-0.721158 0.465143 0)
(-0.624286 0.21331 0)
(-0.323131 -0.207978 0)
(-0.119387 -0.32301 0)
(-0.0859365 -0.221296 0)
(0.00637818 -0.193934 0)
(7.64057e-05 -0.344004 0)
(0.0715444 -0.269644 0)
(0.311734 -0.29577 0)
(0.629145 -0.294318 0)
(1.11942 -0.0556808 0)
(1.23005 0.0125303 0)
(1.17502 0.141685 0)
(1.072 0.0783462 0)
(0.796112 -0.148569 0)
(0.366117 -0.185937 0)
(-0.0942173 0.41598 0)
(-0.332131 0.6164 0)
(-0.395073 0.333479 0)
(-0.474601 0.175197 0)
(-0.569316 0.190128 0)
(-0.621695 0.272834 0)
(-0.62972 0.357824 0)
(-0.55322 0.356241 0)
(-0.382786 0.0406577 0)
(-0.139114 -0.348528 0)
(-0.0470131 -0.428867 0)
(0.0334707 -0.311795 0)
(0.175597 -0.283516 0)
(0.016884 -0.34496 0)
(0.18417 -0.483905 0)
(0.429137 -0.664258 0)
(0.472138 -0.747259 0)
(0.435534 -0.269053 0)
(0.373822 -0.10167 0)
(0.381386 0.0118967 0)
(0.475511 0.198064 0)
(0.172954 0.325481 0)
(-0.172615 0.469663 0)
(-0.427194 0.722489 0)
(-0.490868 0.675006 0)
(-0.492191 0.453978 0)
(-0.593068 0.313882 0)
(-0.650762 0.171741 0)
(-0.619418 0.159846 0)
(-0.509757 0.211434 0)
(-0.353952 0.136985 0)
(-0.190287 -0.13103 0)
(-0.0811894 -0.449658 0)
(-0.0189295 -0.506954 0)
(0.146831 -0.47602 0)
(0.3072 -0.431634 0)
(0.149852 -0.614252 0)
(0.231767 -0.828097 0)
(0.0883179 -0.743064 0)
(-0.0185897 -0.268166 0)
(-0.0501038 -0.0776494 0)
(-0.0496172 -0.0398411 0)
(-0.0586115 0.115486 0)
(-0.0831965 0.399286 0)
(-0.32197 0.591177 0)
(-0.457694 0.705331 0)
(-0.521578 0.752824 0)
(-0.507688 0.649632 0)
(-0.545325 0.507757 0)
(-0.635236 0.386477 0)
(-0.705292 0.256242 0)
(-0.720311 0.193723 0)
(-0.631113 0.139477 0)
(-0.480718 -0.0160138 0)
(-0.323682 -0.296652 0)
(-0.178004 -0.587841 0)
(-0.00512225 -0.689168 0)
(0.190935 -0.672011 0)
(0.370403 -0.590157 0)
(0.0382472 -0.738476 0)
(-0.118314 -0.463917 0)
(-0.294579 -0.436646 0)
(-0.223557 -0.217468 0)
(-0.366949 -0.187892 0)
(-0.259063 -0.052732 0)
(-0.322452 0.189417 0)
(-0.379892 0.49448 0)
(-0.478427 0.654285 0)
(-0.485581 0.725129 0)
(-0.481018 0.732754 0)
(-0.483501 0.660141 0)
(-0.541317 0.550042 0)
(-0.609586 0.414574 0)
(-0.660701 0.256199 0)
(-0.658856 0.111725 0)
(-0.57795 -0.0381159 0)
(-0.438123 -0.238286 0)
(-0.272201 -0.496687 0)
(-0.0967794 -0.761417 0)
(0.0713275 -0.887375 0)
(0.256775 -0.879895 0)
(0.430842 -0.771552 0)
(-0.122549 -0.462594 0)
(-0.323416 -0.425395 0)
(-0.35898 -0.42521 0)
(-0.343201 -0.304034 0)
(-0.314844 -0.250887 0)
(-0.316798 -0.0548718 0)
(-0.335226 0.23471 0)
(-0.358914 0.511902 0)
(-0.370561 0.646891 0)
(-0.337548 0.709134 0)
(-0.324996 0.734952 0)
(-0.333284 0.697091 0)
(-0.360515 0.600169 0)
(-0.382246 0.45681 0)
(-0.389055 0.282053 0)
(-0.366525 0.0989763 0)
(-0.303702 -0.109692 0)
(-0.197113 -0.357617 0)
(-0.0641263 -0.64497 0)
(0.0827608 -0.91819 0)
(0.218978 -1.05642 0)
(0.373705 -1.05577 0)
(0.519591 -0.929783 0)
(-0.0585727 -0.328772 0)
(-0.127199 -0.40353 0)
(-0.198899 -0.42906 0)
(-0.189952 -0.323402 0)
(-0.177799 -0.189964 0)
(-0.152275 -0.058511 0)
(-0.15705 0.226926 0)
(-0.134626 0.495588 0)
(-0.104548 0.630799 0)
(-0.0647076 0.691101 0)
(-0.0543088 0.730687 0)
(-0.0416312 0.709323 0)
(-0.0332266 0.613732 0)
(-0.0254399 0.463027 0)
(-0.0136361 0.27549 0)
(0.00829351 0.0603642 0)
(0.0547601 -0.178771 0)
(0.127982 -0.451559 0)
(0.220608 -0.755257 0)
(0.320821 -1.02871 0)
(0.421386 -1.18644 0)
(0.544025 -1.19235 0)
(0.651214 -1.04221 0)
(0.00370425 -0.266523 0)
(-0.00699137 -0.290038 0)
(-0.0136473 -0.350044 0)
(0.0527277 -0.360256 0)
(0.018519 -0.256574 0)
(0.0786524 -0.0800226 0)
(0.107763 0.184638 0)
(0.163037 0.43888 0)
(0.229321 0.597111 0)
(0.285589 0.670271 0)
(0.308478 0.705923 0)
(0.338269 0.687083 0)
(0.365595 0.597733 0)
(0.381064 0.451381 0)
(0.389296 0.263789 0)
(0.401036 0.0397843 0)
(0.428795 -0.218638 0)
(0.471218 -0.510516 0)
(0.529183 -0.825905 0)
(0.590156 -1.10762 0)
(0.657838 -1.28422 0)
(0.74941 -1.29553 0)
(0.811648 -1.11144 0)
(-0.0473081 -0.28939 0)
(0.0673361 -0.377943 0)
(0.196057 -0.418496 0)
(0.314773 -0.358761 0)
(0.345539 -0.238492 0)
(0.333528 -0.109059 0)
(0.354372 0.0893851 0)
(0.431626 0.32659 0)
(0.534467 0.514401 0)
(0.630777 0.624896 0)
(0.69895 0.670873 0)
(0.755382 0.656471 0)
(0.796387 0.581255 0)
(0.812156 0.450442 0)
(0.807986 0.26893 0)
(0.799867 0.0380273 0)
(0.800873 -0.236535 0)
(0.809529 -0.542361 0)
(0.830483 -0.866018 0)
(0.850746 -1.15612 0)
(0.887576 -1.35415 0)
(0.946186 -1.36555 0)
(0.953872 -1.13716 0)
(-0.0438008 -0.319983 0)
(0.169658 -0.566607 0)
(0.354867 -0.582423 0)
(0.496601 -0.469918 0)
(0.592487 -0.276123 0)
(0.656715 -0.0667313 0)
(0.666578 0.094676 0)
(0.692779 0.23765 0)
(0.778939 0.379804 0)
(0.896356 0.496623 0)
(1.01307 0.56646 0)
(1.11774 0.58494 0)
(1.19429 0.546948 0)
(1.22673 0.448205 0)
(1.21839 0.287198 0)
(1.18804 0.0631172 0)
(1.15442 -0.217122 0)
(1.11834 -0.531933 0)
(1.08863 -0.861039 0)
(1.05529 -1.16466 0)
(1.06002 -1.39033 0)
(1.06364 -1.39112 0)
(0.989648 -1.10958 0)
(0.0527167 -0.390112 0)
(0.32017 -0.784481 0)
(0.506422 -0.77988 0)
(0.590406 -0.605458 0)
(0.628002 -0.391079 0)
(0.674589 -0.17528 0)
(0.746527 0.0417766 0)
(0.825403 0.207617 0)
(0.907499 0.327164 0)
(1.01781 0.40979 0)
(1.17248 0.44554 0)
(1.34551 0.468108 0)
(1.48642 0.482165 0)
(1.55992 0.444171 0)
(1.56335 0.326108 0)
(1.51789 0.121523 0)
(1.4436 -0.151062 0)
(1.34975 -0.462554 0)
(1.25559 -0.794185 0)
(1.15813 -1.11916 0)
(1.12197 -1.36466 0)
(1.00536 -1.31508 0)
(0.80403 -0.962819 0)
(0.117757 -0.649313 0)
(0.36667 -1.04683 0)
(0.466244 -0.906494 0)
(0.489632 -0.636931 0)
(0.511741 -0.420593 0)
(0.579687 -0.238804 0)
(0.671823 -0.0806877 0)
(0.748214 0.0507446 0)
(0.800288 0.150688 0)
(0.876364 0.201007 0)
(1.02273 0.222694 0)
(1.20807 0.255911 0)
(1.41416 0.307478 0)
(1.58793 0.351838 0)
(1.6631 0.328272 0)
(1.64745 0.196585 0)
(1.56459 -0.032759 0)
(1.43027 -0.327367 0)
(1.28073 -0.662693 0)
(1.13172 -1.01043 0)
(1.03263 -1.23629 0)
(0.712006 -1.06835 0)
(0.428048 -0.671957 0)
(0.0833639 -0.918401 0)
(0.227184 -1.14991 0)
(0.161304 -0.8483 0)
(0.166823 -0.564094 0)
(0.208268 -0.393436 0)
(0.322022 -0.278987 0)
(0.504743 -0.111649 0)
(0.686131 0.101278 0)
(0.782299 0.217051 0)
(0.826197 0.169703 0)
(0.87055 0.0924574 0)
(0.970926 0.0557527 0)
(1.15165 0.10721 0)
(1.33128 0.196436 0)
(1.44876 0.244068 0)
(1.48462 0.206338 0)
(1.43231 0.0588699 0)
(1.30722 -0.184251 0)
(1.14598 -0.503544 0)
(0.982802 -0.843342 0)
(0.778208 -0.985307 0)
(0.326229 -0.726161 0)
(0.0860541 -0.365253 0)
(0.028473 -1.04192 0)
(0.079264 -1.04715 0)
(-0.0184442 -0.804187 0)
(0.0754964 -0.630011 0)
(0.161873 -0.553158 0)
(0.304742 -0.513624 0)
(0.455941 -0.429512 0)
(0.657814 -0.197015 0)
(0.860353 0.0680737 0)
(0.964783 0.15813 0)
(0.986182 0.0936592 0)
(1.01345 -0.0354398 0)
(1.06256 -0.0365156 0)
(1.14155 0.0742448 0)
(1.20283 0.169166 0)
(1.21217 0.200254 0)
(1.16535 0.137285 0)
(1.05693 -0.0566247 0)
(0.917411 -0.345358 0)
(0.754112 -0.618601 0)
(0.410067 -0.644075 0)
(-0.00210283 -0.394694 0)
(-0.161711 -0.108708 0)
(-0.00806308 -1.06439 0)
(-0.00649182 -1.01277 0)
(-0.042531 -0.888025 0)
(0.0736715 -0.750818 0)
(0.150918 -0.717109 0)
(0.276279 -0.650156 0)
(0.351723 -0.580971 0)
(0.486452 -0.396111 0)
(0.645911 -0.109205 0)
(0.780955 0.063621 0)
(0.87511 0.0492751 0)
(0.930237 -0.0385846 0)
(0.92662 -0.0239932 0)
(0.918715 0.0669573 0)
(0.923391 0.166405 0)
(0.899869 0.228653 0)
(0.844979 0.215927 0)
(0.780073 0.0398787 0)
(0.683734 -0.194761 0)
(0.500649 -0.347358 0)
(0.0823331 -0.295627 0)
(-0.233142 -0.153942 0)
(-0.384039 0.0649228 0)
(-0.0385584 -1.03472 0)
(-0.0754538 -0.999324 0)
(-0.0975225 -0.928854 0)
(-0.0273734 -0.820439 0)
(-0.00412998 -0.789358 0)
(0.0590919 -0.71597 0)
(0.0581432 -0.64888 0)
(0.109554 -0.48524 0)
(0.198686 -0.225245 0)
(0.317181 -0.147411 0)
(0.453741 -0.127042 0)
(0.499398 -0.0903246 0)
(0.497109 -0.0257004 0)
(0.516385 0.0860682 0)
(0.526858 0.186561 0)
(0.512065 0.272774 0)
(0.532414 0.258018 0)
(0.557135 0.101484 0)
(0.485327 -0.0356322 0)
(0.278262 -0.0625441 0)
(-0.0938082 -0.019763 0)
(-0.392317 0.0908226 0)
(-0.678307 0.348125 0)
(-0.0607815 -0.959456 0)
(-0.139778 -0.937907 0)
(-0.190524 -0.917887 0)
(-0.187501 -0.842615 0)
(-0.23364 -0.78475 0)
(-0.264521 -0.703348 0)
(-0.356773 -0.618281 0)
(-0.44465 -0.457839 0)
(-0.369999 -0.308537 0)
(-0.313806 -0.217371 0)
(-0.256588 -0.118802 0)
(-0.195961 -0.0137924 0)
(-0.140129 0.0378533 0)
(-0.0522036 0.0817377 0)
(0.0303254 0.157088 0)
(0.194429 0.210329 0)
(0.370177 0.166006 0)
(0.429176 0.110455 0)
(0.305652 0.128494 0)
(0.0799312 0.194192 0)
(-0.244472 0.296983 0)
(-0.58023 0.435648 0)
(-0.85404 0.589427 0)
(-0.0805877 -0.843074 0)
(-0.191292 -0.843735 0)
(-0.273995 -0.861804 0)
(-0.339948 -0.795279 0)
(-0.447334 -0.685655 0)
(-0.597478 -0.565186 0)
(-0.847589 -0.446319 0)
(-1.03816 -0.319178 0)
(-1.08429 -0.220648 0)
(-1.0865 -0.162261 0)
(-1.05115 -0.18122 0)
(-0.906305 -0.191315 0)
(-0.69568 -0.17379 0)
(-0.443231 -0.149437 0)
(-0.173747 -0.107148 0)
(0.10975 -0.0445694 0)
(0.294045 0.0763724 0)
(0.293464 0.209941 0)
(0.144658 0.317268 0)
(-0.0557797 0.444384 0)
(-0.348495 0.605855 0)
(-0.644817 0.726897 0)
(-0.849929 0.770892 0)
(-0.0982164 -0.696846 0)
(-0.223505 -0.726031 0)
(-0.315834 -0.767038 0)
(-0.417462 -0.678451 0)
(-0.573796 -0.497914 0)
(-0.795632 -0.324069 0)
(-1.08871 -0.242012 0)
(-1.28088 -0.246239 0)
(-1.31347 -0.286767 0)
(-1.21477 -0.32435 0)
(-1.05804 -0.35584 0)
(-0.867012 -0.417604 0)
(-0.660273 -0.463735 0)
(-0.42524 -0.468743 0)
(-0.198627 -0.402433 0)
(0.00046013 -0.306455 0)
(0.215713 0.0380439 0)
(0.255692 0.323855 0)
(0.0955715 0.491912 0)
(-0.10392 0.679208 0)
(-0.363665 0.870427 0)
(-0.601343 0.953661 0)
(-0.742356 0.902417 0)
(-0.113885 -0.530822 0)
(-0.234781 -0.608569 0)
(-0.293991 -0.671487 0)
(-0.369269 -0.537004 0)
(-0.51637 -0.295814 0)
(-0.695954 -0.076115 0)
(-0.897019 -0.0369076 0)
(-1.01226 -0.149148 0)
(-0.979584 -0.316404 0)
(-0.879331 -0.457277 0)
(-0.79339 -0.521914 0)
(-0.675101 -0.570003 0)
(-0.494619 -0.638229 0)
(-0.249387 -0.679818 0)
(-0.0749456 -0.570348 0)
(0.0290373 -0.50058 0)
(0.155391 -0.152091 0)
(0.293133 0.376528 0)
(0.161743 0.673368 0)
(-0.0653015 0.893216 0)
(-0.294879 1.0886 0)
(-0.486502 1.12304 0)
(-0.587717 0.999721 0)
(-0.1225 -0.363309 0)
(-0.224255 -0.520433 0)
(-0.234819 -0.62753 0)
(-0.229062 -0.461901 0)
(-0.280472 -0.158433 0)
(-0.365719 0.0366902 0)
(-0.508158 0.0366135 0)
(-0.611071 -0.129382 0)
(-0.590104 -0.349458 0)
(-0.552219 -0.515943 0)
(-0.523198 -0.608219 0)
(-0.439165 -0.70896 0)
(-0.240316 -0.866913 0)
(-0.0215708 -0.914045 0)
(0.113854 -0.663596 0)
(0.173996 -0.520576 0)
(0.151975 -0.298975 0)
(0.284877 0.306759 0)
(0.260263 0.837379 0)
(0.0303972 1.09376 0)
(-0.174154 1.27406 0)
(-0.339351 1.26053 0)
(-0.431483 1.07911 0)
(-0.118037 -0.235729 0)
(-0.180394 -0.475417 0)
(-0.152628 -0.64606 0)
(-0.114969 -0.531738 0)
(0.00049436 -0.159881 0)
(0.0699744 0.069706 0)
(0.0974614 0.150762 0)
(0.0237543 -0.0175957 0)
(-0.0494342 -0.287721 0)
(-0.0861348 -0.514078 0)
(-0.126844 -0.664904 0)
(-0.115943 -0.811922 0)
(0.035624 -1.03751 0)
(0.154074 -1.0855 0)
(0.22914 -0.796561 0)
(0.29668 -0.474293 0)
(0.220162 -0.3121 0)
(0.272736 0.252577 0)
(0.325278 0.958954 0)
(0.148577 1.28673 0)
(-0.0332925 1.43306 0)
(-0.167693 1.388 0)
(-0.262355 1.15182 0)
(-0.0878019 -0.134745 0)
(-0.0767115 -0.456805 0)
(-0.0213447 -0.669667 0)
(-0.011388 -0.619849 0)
(0.085802 -0.35767 0)
(0.350127 -0.0910422 0)
(0.508953 0.0869126 0)
(0.557676 0.0595742 0)
(0.505686 -0.132465 0)
(0.375197 -0.387164 0)
(0.245024 -0.612353 0)
(0.164213 -0.824782 0)
(0.23296 -1.10634 0)
(0.240971 -1.14014 0)
(0.200615 -0.866368 0)
(0.272507 -0.47279 0)
(0.223341 -0.275211 0)
(0.236789 0.174571 0)
(0.324846 0.960269 0)
(0.24309 1.43267 0)
(0.106148 1.56289 0)
(0.0285293 1.49316 0)
(-0.0472569 1.23035 0)
(-0.0297102 -0.0865898 0)
(0.0629454 -0.476175 0)
(0.124871 -0.687295 0)
(0.144094 -0.634694 0)
(0.155376 -0.50921 0)
(0.326877 -0.389514 0)
(0.591106 -0.16108 0)
(0.778269 0.0265669 0)
(0.7763 -0.0115222 0)
(0.646733 -0.218945 0)
(0.464827 -0.485476 0)
(0.334926 -0.779236 0)
(0.332439 -1.08808 0)
(0.23239 -1.07841 0)
(0.0939304 -0.811045 0)
(0.141363 -0.502845 0)
(0.142133 -0.261931 0)
(0.166775 0.150042 0)
(0.263326 0.928491 0)
(0.258869 1.49396 0)
(0.214203 1.63461 0)
(0.213183 1.54316 0)
(0.199347 1.28627 0)
(0.00315347 -0.151415 0)
(0.159257 -0.564026 0)
(0.198272 -0.748074 0)
(0.241678 -0.665509 0)
(0.303448 -0.534116 0)
(0.337986 -0.55075 0)
(0.462736 -0.412555 0)
(0.665247 -0.153623 0)
(0.784805 0.0235142 0)
(0.716481 -0.0603866 0)
(0.532581 -0.323991 0)
(0.397796 -0.687774 0)
(0.351503 -0.991085 0)
(0.153659 -0.917251 0)
(-0.0322817 -0.699537 0)
(-0.0421886 -0.525011 0)
(-0.0014677 -0.267745 0)
(-0.00339721 0.153257 0)
(0.105222 0.906333 0)
(0.176437 1.46254 0)
(0.254574 1.60843 0)
(0.340761 1.51825 0)
(0.399839 1.279 0)
(0.0260507 -0.261761 0)
(0.143262 -0.639745 0)
(0.121032 -0.788969 0)
(0.155155 -0.756817 0)
(0.310954 -0.590809 0)
(0.336163 -0.596853 0)
(0.35894 -0.521364 0)
(0.462616 -0.273547 0)
(0.560449 -0.036094 0)
(0.567193 0.0140232 0)
(0.440746 -0.180679 0)
(0.375951 -0.602003 0)
(0.302373 -0.836897 0)
(0.0381984 -0.703443 0)
(-0.129243 -0.598269 0)
(-0.194247 -0.51223 0)
(-0.235689 -0.27158 0)
(-0.224607 0.156046 0)
(-0.105001 0.828831 0)
(0.0423472 1.32429 0)
(0.224678 1.47116 0)
(0.38863 1.40299 0)
(0.505523 1.19287 0)
(0.0454471 -0.343821 0)
(0.0211135 -0.612172 0)
(-0.0570191 -0.77945 0)
(-0.0158151 -0.846282 0)
(0.139349 -0.709386 0)
(0.169892 -0.650427 0)
(0.161301 -0.557699 0)
(0.233289 -0.315963 0)
(0.279268 -0.0615472 0)
(0.276647 0.0312553 0)
(0.237961 -0.146789 0)
(0.310977 -0.567676 0)
(0.187965 -0.650067 0)
(-0.0937298 -0.496808 0)
(-0.200272 -0.502632 0)
(-0.294256 -0.454558 0)
(-0.373371 -0.257721 0)
(-0.388678 0.120813 0)
(-0.274062 0.655849 0)
(-0.0759471 1.09075 0)
(0.156016 1.24935 0)
(0.361152 1.2247 0)
(0.509919 1.06503 0)
(0.0186765 -0.334615 0)
(-0.145495 -0.516103 0)
(-0.203627 -0.78146 0)
(-0.169398 -0.899492 0)
(-0.0863296 -0.785452 0)
(-0.0744689 -0.66644 0)
(-0.119561 -0.549168 0)
(-0.05834 -0.28996 0)
(-0.0664651 -0.0576337 0)
(-0.0198872 0.0286665 0)
(0.132141 -0.278094 0)
(0.221791 -0.533907 0)
(0.0102598 -0.425186 0)
(-0.197149 -0.348464 0)
(-0.262495 -0.415025 0)
(-0.358356 -0.376791 0)
(-0.425894 -0.216991 0)
(-0.43845 0.0725241 0)
(-0.347771 0.468321 0)
(-0.153438 0.830194 0)
(0.0755875 1.00573 0)
(0.279801 1.02944 0)
(0.428391 0.930535 0)
(-0.0302063 -0.209978 0)
(-0.209721 -0.447042 0)
(-0.238926 -0.780684 0)
(-0.244845 -0.909964 0)
(-0.233972 -0.795307 0)
(-0.258723 -0.611257 0)
(-0.343176 -0.492045 0)
(-0.338534 -0.281576 0)
(-0.273123 -0.108905 0)
(-0.073582 -0.201695 0)
(0.135965 -0.435381 0)
(0.0660957 -0.410358 0)
(-0.180935 -0.218933 0)
(-0.253461 -0.266814 0)
(-0.317272 -0.333917 0)
(-0.404163 -0.302599 0)
(-0.456801 -0.172576 0)
(-0.452739 0.05434 0)
(-0.374363 0.33955 0)
(-0.21458 0.619561 0)
(-0.01998 0.796709 0)
(0.159071 0.856321 0)
(0.290067 0.810094 0)
(-0.00555025 -0.095342 0)
(-0.13474 -0.376637 0)
(-0.169822 -0.742458 0)
(-0.215146 -0.901702 0)
(-0.242868 -0.792116 0)
(-0.261203 -0.567915 0)
(-0.301943 -0.467239 0)
(-0.251316 -0.389996 0)
(-0.118761 -0.352892 0)
(0.0423584 -0.419397 0)
(0.0199956 -0.393128 0)
(-0.180391 -0.189069 0)
(-0.281478 -0.127815 0)
(-0.278526 -0.222288 0)
(-0.34008 -0.259195 0)
(-0.415622 -0.240261 0)
(-0.47075 -0.149925 0)
(-0.472318 0.0232005 0)
(-0.409182 0.247962 0)
(-0.287959 0.469526 0)
(-0.133775 0.634083 0)
(0.0165555 0.714581 0)
(0.132493 0.705951 0)
(0.0641842 -0.070898 0)
(0.0218084 -0.283916 0)
(-0.0291407 -0.650751 0)
(-0.122479 -0.853507 0)
(-0.198318 -0.787938 0)
(-0.199898 -0.597047 0)
(-0.153946 -0.507634 0)
(-0.114688 -0.490878 0)
(-0.0698238 -0.453794 0)
(-0.0942612 -0.371086 0)
(-0.233827 -0.207927 0)
(-0.316069 -0.0884887 0)
(-0.281508 -0.142024 0)
(-0.278361 -0.191534 0)
(-0.323452 -0.195853 0)
(-0.384159 -0.174828 0)
(-0.444033 -0.113439 0)
(-0.469104 0.00445268 0)
(-0.437962 0.172959 0)
(-0.354995 0.353053 0)
(-0.237451 0.500523 0)
(-0.111532 0.58826 0)
(-0.00318257 0.607085 0)
(0.0756097 -0.164472 0)
(0.15182 -0.254468 0)
(0.126723 -0.52365 0)
(-0.0150169 -0.737842 0)
(-0.148859 -0.727791 0)
(-0.214855 -0.608783 0)
(-0.182042 -0.518029 0)
(-0.191036 -0.459771 0)
(-0.238609 -0.372194 0)
(-0.320041 -0.239422 0)
(-0.342999 -0.146372 0)
(-0.284518 -0.14007 0)
(-0.246329 -0.167619 0)
(-0.25629 -0.166514 0)
(-0.285477 -0.151979 0)
(-0.328492 -0.119511 0)
(-0.376941 -0.0659698 0)
(-0.413525 0.0160494 0)
(-0.415355 0.131694 0)
(-0.370772 0.267255 0)
(-0.288555 0.390132 0)
(-0.187446 0.473541 0)
(-0.0888794 0.507552 0)
(0.0452786 -0.293 0)
(0.142843 -0.341512 0)
(0.186433 -0.439225 0)
(0.0664031 -0.589309 0)
(-0.0748111 -0.607957 0)
(-0.204006 -0.537916 0)
(-0.240004 -0.485713 0)
(-0.278801 -0.404405 0)
(-0.313848 -0.322871 0)
(-0.300223 -0.255376 0)
(-0.254343 -0.219138 0)
(-0.216785 -0.192164 0)
(-0.209486 -0.168871 0)
(-0.219689 -0.148656 0)
(-0.241329 -0.122246 0)
(-0.270528 -0.0820275 0)
(-0.301625 -0.0280713 0)
(-0.329404 0.0402132 0)
(-0.341528 0.123514 0)
(-0.323602 0.218794 0)
(-0.273089 0.311052 0)
(-0.199841 0.380612 0)
(-0.119477 0.417143 0)
(0.0290391 -0.370893 0)
(0.0695553 -0.436985 0)
(0.130587 -0.425402 0)
(0.0819206 -0.486179 0)
(-0.000772066 -0.497832 0)
(-0.123934 -0.435976 0)
(-0.18566 -0.448203 0)
(-0.197906 -0.39383 0)
(-0.205445 -0.347831 0)
(-0.19122 -0.295297 0)
(-0.185589 -0.24377 0)
(-0.177464 -0.200238 0)
(-0.178033 -0.165811 0)
(-0.183505 -0.135536 0)
(-0.19815 -0.100981 0)
(-0.217192 -0.0578327 0)
(-0.236366 -0.00505269 0)
(-0.251574 0.0565973 0)
(-0.257869 0.124875 0)
(-0.248185 0.195732 0)
(-0.217641 0.262674 0)
(-0.168846 0.315685 0)
(-0.110645 0.347541 0)
(0.0233644 -0.403381 0)
(0.0173632 -0.472506 0)
(0.04743 -0.442251 0)
(0.0460716 -0.446529 0)
(0.0135921 -0.442997 0)
(-0.0395533 -0.351874 0)
(-0.106789 -0.419331 0)
(-0.10684 -0.389688 0)
(-0.13419 -0.337074 0)
(-0.137009 -0.286626 0)
(-0.146049 -0.23906 0)
(-0.143386 -0.201113 0)
(-0.145209 -0.164098 0)
(-0.148529 -0.127576 0)
(-0.156833 -0.0879338 0)
(-0.168232 -0.042403 0)
(-0.180286 0.00838895 0)
(-0.188744 0.0638825 0)
(-0.189629 0.122548 0)
(-0.180507 0.180235 0)
(-0.159313 0.232191 0)
(-0.126818 0.273223 0)
(-0.0873455 0.299725 0)
(0.013362 -0.417168 0)
(0.00262331 -0.4633 0)
(-0.00827104 -0.448743 0)
(0.00312341 -0.437563 0)
(-0.0180143 -0.431183 0)
(-0.00991068 -0.30459 0)
(-0.0670179 -0.381562 0)