/*--------------------------------*- C++ -*----------------------------------*\
| =========                 |                                                 |
| \\      /  F ield         | OpenFOAM: The Open Source CFD Toolbox           |
|  \\    /   O peration     | Version:  2.3.0                                 |
|   \\  /    A nd           | Web:      www.OpenFOAM.org                      |
|    \\/     M anipulation  |                                                 |
\*---------------------------------------------------------------------------*/
FoamFile
{
    version     2.0;
    format      ascii;
    class       volScalarField;
    location    "1.85";
    object      epsilon;
}
// * * * * * * * * * * * * * * * * * * * * * * * * * * * * * * * * * * * * * //

dimensions      [0 2 -3 0 0 0 0];

internalField   nonuniform List<scalar> 
2268
(
0.0106885
0.0571242
0.106144
0.150105
0.189801
0.227202
0.262902
0.296936
0.328783
0.357529
0.382068
0.40123
0.413968
0.419398
0.417038
0.407472
0.388936
0.359748
0.315483
0.259618
0.196823
0.119351
0.0481524
0.0179895
0.0360804
0.0565544
0.0754262
0.0929812
0.109658
0.125594
0.140701
0.154686
0.167121
0.177536
0.185505
0.190724
0.193045
0.192625
0.189977
0.184851
0.176755
0.164984
0.147336
0.120817
0.086822
0.0722847
0.0295826
0.0375776
0.051691
0.0655259
0.0787106
0.0913162
0.103357
0.114726
0.125186
0.134417
0.142081
0.147894
0.151695
0.153485
0.153499
0.152177
0.149672
0.14589
0.140341
0.131536
0.117861
0.102072
0.124068
0.0426322
0.0426063
0.0534596
0.0650436
0.0764007
0.0873691
0.0978776
0.1078
0.116921
0.124958
0.131618
0.136666
0.139996
0.14168
0.142016
0.141477
0.140412
0.138944
0.136778
0.133102
0.12778
0.126577
0.1937
0.0561478
0.0491459
0.0576863
0.0678801
0.0782138
0.088333
0.0980922
0.107345
0.115878
0.123421
0.129693
0.134471
0.137675
0.139431
0.140113
0.140282
0.140459
0.140975
0.141818
0.142855
0.145499
0.159646
0.279762
0.0694727
0.0564929
0.0632468
0.0724635
0.082148
0.0917876
0.101175
0.110143
0.118474
0.125891
0.132105
0.136887
0.140171
0.142131
0.143236
0.144185
0.145705
0.148369
0.152537
0.158856
0.170713
0.204696
0.396446
0.0823852
0.0642976
0.069658
0.0781693
0.0874308
0.0968093
0.106052
0.114976
0.123354
0.130893
0.137283
0.142274
0.145804
0.148099
0.149748
0.151637
0.154759
0.159993
0.168141
0.180762
0.203933
0.267071
0.611223
0.0953726
0.0723467
0.0766317
0.0846629
0.0936717
0.102945
0.112204
0.121258
0.129871
0.137731
0.144493
0.149878
0.153819
0.156599
0.158954
0.162018
0.167125
0.175537
0.188546
0.208661
0.244858
0.346828
1.18876
0.143978
0.483129
0.980649
1.25905
1.3012
1.22308
1.08727
0.925431
0.76364
0.62636
0.4936
0.365653
0.258361
0.185407
0.150277
0.127762
0.0979446
0.062609
0.0227744
0.152885
0.310239
0.508765
0.598924
0.598828
0.558525
0.501606
0.43905
0.378576
0.326491
0.276819
0.228748
0.183085
0.140628
0.108502
0.0869892
0.067223
0.0448443
0.0319789
0.194108
0.333414
0.472472
0.517388
0.502527
0.462578
0.414431
0.364696
0.317972
0.276932
0.238772
0.203472
0.170372
0.13565
0.104826
0.0837806
0.067234
0.0512187
0.0511814
0.224823
0.403325
0.501974
0.517542
0.488946
0.443694
0.394916
0.346844
0.302484
0.263567
0.227843
0.195537
0.165924
0.134913
0.106134
0.0862594
0.071824
0.0605596
0.0771363
0.295525
0.513881
0.564457
0.548103
0.503648
0.450153
0.396802
0.34631
0.300638
0.26087
0.224868
0.192795
0.16394
0.135243
0.109083
0.0908629
0.0783036
0.0711943
0.106177
0.493069
0.681026
0.650398
0.59512
0.532897
0.46914
0.408535
0.353044
0.30417
0.262155
0.224863
0.192238
0.163386
0.136384
0.112958
0.0966517
0.0859359
0.0827558
0.139127
1.15809
0.910915
0.747444
0.649657
0.570257
0.495255
0.42531
0.36293
0.309747
0.265018
0.226226
0.192923
0.163941
0.138288
0.117381
0.103033
0.0942249
0.0949191
0.17296
2.2928
1.12106
0.828956
0.702505
0.611052
0.524938
0.444065
0.373594
0.315724
0.268556
0.228562
0.194701
0.165679
0.141086
0.12211
0.10946
0.102618
0.107308
0.206605
0.112552
0.0839322
0.0874213
0.0952042
0.104165
0.113562
0.123117
0.132653
0.141926
0.150596
0.158257
0.164565
0.169447
0.173286
0.177077
0.18245
0.19144
0.206034
0.228307
0.261958
0.317332
0.430397
0.76785
0.133354
0.0987422
0.10241
0.110789
0.120336
0.130419
0.140861
0.15157
0.162359
0.172884
0.182648
0.191172
0.198332
0.204646
0.211623
0.221857
0.238993
0.266382
0.306806
0.36431
0.447282
0.571732
0.765905
0.147942
0.11141
0.116518
0.126422
0.137144
0.148292
0.15992
0.172099
0.184806
0.197832
0.210631
0.222526
0.233335
0.243779
0.256043
0.273838
0.303938
0.351845
0.419812
0.510377
0.629667
0.777654
0.943296
0.156059
0.122615
0.129301
0.141146
0.153318
0.165617
0.178529
0.192155
0.20667
0.222455
0.239149
0.25568
0.271581
0.288426
0.31013
0.338998
0.389268
0.470906
0.581587
0.718104
0.893004
1.0846
1.26978
0.170937
0.1358
0.142117
0.153905
0.166542
0.179835
0.19431
0.209367
0.224254
0.239771
0.256709
0.273396
0.289994
0.311509
0.346034
0.407924
0.498901
0.635561
0.799525
0.985581
1.23779
1.4663
1.58217
0.210117
0.160253
0.158619
0.167079
0.178148
0.190722
0.204305
0.21752
0.229762
0.242024
0.255459
0.2694
0.28589
0.312256
0.362651
0.453365
0.60234
0.828653
0.990307
1.12633
1.27884
1.37195
1.30701
0.271227
0.19042
0.176323
0.178064
0.185615
0.195818
0.207102
0.218582
0.229398
0.2401
0.251818
0.2652
0.282926
0.311471
0.361685
0.449976
0.597801
0.803953
0.930535
0.985725
1.02845
1.03504
0.989692
0.333781
0.208521
0.188558
0.187319
0.191924
0.199189
0.207615
0.216666
0.226245
0.236672
0.248691
0.262406
0.27969
0.307685
0.354571
0.432538
0.552301
0.695365
0.790545
0.83138
0.851476
0.842441
0.800382
0.382764
0.21757
0.19316
0.190463
0.194133
0.200091
0.206919
0.21438
0.222726
0.232316
0.243594
0.256753
0.274283
0.301958
0.345045
0.410177
0.498432
0.592591
0.663433
0.702623
0.724976
0.729136
0.694774
0.426283
0.223366
0.192875
0.187963
0.190681
0.195926
0.201937
0.2084
0.215674
0.224251
0.234817
0.248433
0.267373
0.294735
0.333558
0.386489
0.45203
0.519618
0.572244
0.605663
0.62891
0.644439
0.638507
0.459193
0.226762
0.190437
0.182552
0.183471
0.187607
0.192892
0.198807
0.205612
0.213858
0.224346
0.238333
0.257613
0.284171
0.319549
0.364269
0.415952
0.466377
0.504848
0.532286
0.554689
0.57297
0.585216
0.476119
0.226853
0.186464
0.175852
0.174691
0.177377
0.181789
0.187268
0.193926
0.202244
0.212967
0.227157
0.246221
0.271508
0.303657
0.342037
0.383819
0.42269
0.452212
0.474858
0.494914
0.51278
0.525461
0.477307
0.223337
0.181015
0.168471
0.165536
0.166849
0.17039
0.175452
0.182018
0.190447
0.201343
0.21552
0.233951
0.257393
0.285914
0.318405
0.352205
0.383035
0.407209
0.426341
0.443481
0.458572
0.468586
0.463828
0.215997
0.173862
0.16043
0.156356
0.156659
0.159485
0.16414
0.17052
0.178854
0.189578
0.203253
0.22045
0.241482
0.266081
0.293088
0.320359
0.345121
0.365446
0.381849
0.396025
0.407679
0.414585
0.437505
0.204876
0.164821
0.151541
0.147038
0.146781
0.149109
0.153374
0.15942
0.167363
0.177477
0.190113
0.205542
0.2238
0.244492
0.266624
0.288631
0.308744
0.325845
0.339903
0.351431
0.360115
0.364589
0.400566
0.190317
0.153901
0.141661
0.137354
0.136946
0.138985
0.14289
0.148477
0.155779
0.164943
0.176163
0.18954
0.204964
0.222043
0.240017
0.257804
0.274254
0.288574
0.300508
0.309864
0.316304
0.319038
0.356497
0.172832
0.141308
0.13079
0.127149
0.126907
0.128832
0.132421
0.137493
0.144025
0.152078
0.16174
0.173059
0.185848
0.199788
0.214329
0.228737
0.242233
0.254189
0.26421
0.271898
0.276827
0.278502
0.310577
0.153511
0.127416
0.119066
0.116401
0.11654
0.118482
0.121821
0.126392
0.132148
0.139101
0.147283
0.156713
0.167226
0.178568
0.190352
0.202077
0.213193
0.223186
0.231619
0.238082
0.24215
0.243497
0.263289
0.133729
0.112728
0.106714
0.105202
0.105852
0.10791
0.11107
0.115202
0.120258
0.12623
0.133122
0.140934
0.149585
0.158854
0.168476
0.178103
0.187334
0.195753
0.202957
0.208565
0.212224
0.21367
0.216558
0.11392
0.0979878
0.0940667
0.0937472
0.0949726
0.0972068
0.100252
0.104025
0.108493
0.113645
0.11948
0.125987
0.133139
0.14079
0.148741
0.156744
0.164505
0.171693
0.177967
0.182996
0.186477
0.188178
0.170624
0.0946104
0.0836521
0.08169
0.0823435
0.0841291
0.0865564
0.0895307
0.0930174
0.0970067
0.101499
0.106493
0.111983
0.117946
0.124328
0.130986
0.137731
0.144343
0.150567
0.156123
0.160728
0.164112
0.166073
0.128621
0.0769344
0.0702444
0.0699558
0.0714196
0.0736055
0.076204
0.0791238
0.0823773
0.0859792
0.0899421
0.0942738
0.0989737
0.104027
0.109398
0.115018
0.120768
0.126464
0.131911
0.136875
0.141116
0.144416
0.146586
0.0936656
0.0612198
0.0581091
0.0591799
0.0612714
0.063734
0.0664239
0.0692862
0.072339
0.0756201
0.0791539
0.0829556
0.0870312
0.0913746
0.095963
0.100753
0.105667
0.110587
0.11536
0.119802
0.123714
0.126911
0.129225
0.067482
0.048075
0.0476944
0.0497353
0.0522381
0.0548499
0.0575312
0.0602952
0.0631567
0.0661601
0.0693352
0.0727017
0.0762703
0.0800413
0.0840012
0.0881197
0.092343
0.0965896
0.100752
0.104701
0.10829
0.111356
0.113747
0.0515076
0.0386392
0.0396032
0.0420327
0.0446424
0.0472359
0.049819
0.0524293
0.0550885
0.0578324
0.0606896
0.0636804
0.0668178
0.0701058
0.0735383
0.0770956
0.0807411
0.0844187
0.0880517
0.0915455
0.0947908
0.0976718
0.100074
0.0440117
0.0328251
0.0339066
0.0362078
0.0386531
0.0410758
0.0434754
0.0458819
0.0483191
0.0508081
0.0533709
0.0560257
0.0587848
0.0616546
0.0646332
0.0677091
0.0708585
0.0740432
0.0772101
0.0802914
0.0832076
0.0858718
0.0881988
0.0415447
0.0296127
0.03016
0.0320677
0.0342117
0.0363843
0.0385546
0.0407329
0.0429359
0.0451726
0.0474578
0.0498054
0.0522264
0.0547272
0.0573089
0.0599654
0.0626822
0.0654344
0.0681861
0.0708905
0.0734914
0.0759261
0.0781316
0.0417211
0.0280573
0.0278617
0.029313
0.031134
0.0330486
0.0349884
0.0369441
0.0389179
0.0409129
0.0429388
0.0450059
0.0471231
0.0492966
0.051529
0.0538179
0.0561553
0.0585257
0.0609061
0.0632654
0.065565
0.0677613
0.0698086
0.0435324
0.0276386
0.0266881
0.0277101
0.0292366
0.0309182
0.032651
0.0344037
0.0361657
0.0379383
0.0397282
0.0415428
0.0433896
0.0452741
0.0471998
0.0491669
0.0511716
0.0532053
0.055254
0.0572979
0.0593119
0.0612663
0.0631291
0.0465982
0.0281524
0.0264899
0.0271294
0.0283955
0.0298706
0.0314158
0.0329814
0.0345515
0.036124
0.0377027
0.0392933
0.0409018
0.0425332
0.0441913
0.0458779
0.047592
0.0493297
0.0510831
0.0528405
0.0545862
0.0563011
0.0579631
0.0509516
0.0295656
0.0272207
0.027514
0.0285396
0.0298165
0.0311803
0.0325691
0.033961
0.0353506
0.0367391
0.0381304
0.0395291
0.0409393
0.0423646
0.0438074
0.0452685
0.0467466
0.0482381
0.0497367
0.0512331
0.0527155
0.0541692
0.0567772
0.0319761
0.0289244
0.0288719
0.0296509
0.0307192
0.0318921
0.0330992
0.0343139
0.0355276
0.0367387
0.0379486
0.0391598
0.0403749
0.0415966
0.042827
0.0440673
0.0453178
0.0465772
0.0478426
0.049109
0.0503692
0.0516138
0.0643767
0.0355659
0.0317259
0.0312815
0.031771
0.0325912
0.0335409
0.0345434
0.0355677
0.0366011
0.037638
0.0386763
0.0397151
0.0407545
0.0417954
0.0428385
0.0438847
0.0449345
0.0459877
0.047043
0.0480979
0.049148
0.050187
0.0742309
0.0406027
0.0358126
0.0348682
0.0349772
0.0354751
0.036145
0.0369029
0.0377112
0.0385505
0.0394088
0.0402782
0.0411533
0.0420304
0.0429072
0.0437826
0.044656
0.0455273
0.0463961
0.0472616
0.0481222
0.0489748
0.0498145
0.0870962
0.0474708
0.0414358
0.0397905
0.039364
0.0394253
0.0397359
0.0401966
0.0407563
0.041383
0.0420544
0.0427541
0.0434701
0.0441938
0.0449189
0.0456415
0.046359
0.0470697
0.0477725
0.0484661
0.0491485
0.0498168
0.0504655
0.10416
0.0567295
0.0489187
0.0462222
0.0450195
0.0444878
0.044343
0.0444506
0.0447305
0.0451287
0.0456066
0.0461363
0.0466971
0.0472745
0.0478578
0.0484396
0.049015
0.0495804
0.0501333
0.0506712
0.0511912
0.0516891
0.052158
0.127378
0.0692305
0.0586599
0.0543172
0.0519885
0.0506743
0.0499795
0.0496907
0.0496737
0.0498392
0.0501255
0.0504899
0.0509024
0.0513416
0.0517926
0.0522447
0.0526905
0.0531244
0.0535424
0.0539406
0.0543147
0.0546587
0.0549631
0.160376
0.0863602
0.0710992
0.0641228
0.0602113
0.0579322
0.0566315
0.0559422
0.0556424
0.0555928
0.0557041
0.0559178
0.0561943
0.0565069
0.0568369
0.0571709
0.0574996
0.057816
0.0581145
0.05839
0.0586369
0.0588473
0.0590088
0.211485
0.110505
0.0864991
0.0753738
0.0694244
0.0661138
0.0642588
0.0632418
0.0627228
0.0625073
0.0624797
0.0625691
0.06273
0.0629322
0.0631553
0.0633848
0.0636103
0.0638241
0.0640198
0.0641917
0.0643334
0.0644359
0.0644849
0.303925
0.145238
0.104058
0.0870525
0.079035
0.0749734
0.0728254
0.0716697
0.0710589
0.0707618
0.0706518
0.0706556
0.0707283
0.0708411
0.0709747
0.0711155
0.0712535
0.0713815
0.0714933
0.0715835
0.0716459
0.071672
0.0716477
0.532878
0.191537
0.119114
0.0967428
0.0881108
0.0842683
0.0823879
0.0814125
0.0808955
0.0806291
0.0805074
0.0804724
0.0804896
0.0805373
0.0806011
0.0806708
0.0807389
0.0807998
0.0808488
0.0808819
0.0808946
0.0808808
0.08083
1.5956
0.213355
0.117733
0.100783
0.095922
0.0940921
0.0932681
0.0928531
0.0926317
0.0925126
0.0924518
0.0924258
0.0924209
0.0924284
0.0924426
0.0924594
0.0924758
0.0924896
0.0924989
0.0925022
0.0924979
0.0924839
0.0924565
2.60064
2.47394
2.56502
2.88363
0.987001
1.08674
1.15283
1.18656
1.04844
1.10574
1.14147
1.15385
1.34618
1.37064
1.36324
1.3331
1.52841
1.45162
1.36375
1.28036
1.20711
1.14302
1.08017
1.01983
0.934048
0.898032
0.86186
0.825318
0.762202
0.739298
0.71789
0.696548
0.66338
0.645641
0.631129
0.616552
0.61156
0.593827
0.578057
0.559799
0.576712
0.563151
0.545079
0.520653
0.523242
0.515099
0.498721
0.476926
0.46581
0.458878
0.447056
0.431231
0.411889
0.406891
0.398681
0.3869
0.362245
0.358525
0.352439
0.343668
0.31713
0.314273
0.309579
0.303108
0.276913
0.27475
0.27134
0.266744
0.242245
0.240677
0.238311
0.235149
0.212953
0.211918
0.210302
0.208134
0.187998
0.187432
0.186419
0.184984
0.166358
0.16618
0.165648
0.164782
0.147252
0.147392
0.147248
0.146836
0.130191
0.130588
0.130758
0.130713
0.114937
0.115534
0.115952
0.116199
0.101413
0.102155
0.102758
0.103228
0.0896142
0.0904468
0.0911755
0.0918018
0.0795478
0.0804154
0.0812117
0.0819333
0.0711769
0.0720367
0.0728477
0.0736084
0.0644114
0.0652318
0.0660199
0.0667744
0.0591324
0.0598897
0.0606268
0.0613423
0.0552078
0.0558859
0.0565517
0.0572042
0.0525115
0.0531001
0.0536813
0.0542543
0.0509389
0.051432
0.0519199
0.0524019
0.0504191
0.0508138
0.0512031
0.0515863
0.0509242
0.0512198
0.0515077
0.0517873
0.0524753
0.0526736
0.0528603
0.0530342
0.0551481
0.0552546
0.0553442
0.0554148
0.059078
0.0591036
0.0591066
0.0590835
0.0644643
0.0644278
0.0643641
0.0642684
0.0715747
0.0715041
0.0714054
0.0712733
0.0807509
0.0806816
0.0805903
0.0804722
0.0924206
0.0923904
0.0923518
0.0923032
1.54164
1.07979
0.880687
0.766322
0.670927
0.569844
0.471278
0.388557
0.324477
0.274433
0.233303
0.199082
0.170401
0.147272
0.130227
0.119149
0.11513
0.126613
0.263085
1.118
1.01133
0.921468
0.847032
0.7569
0.625235
0.497772
0.401546
0.332527
0.28077
0.239568
0.206053
0.178772
0.157853
0.142601
0.131181
0.127666
0.144766
0.313336
1.13355
1.06556
0.998299
0.937031
0.83747
0.657018
0.507432
0.405287
0.335028
0.283422
0.243256
0.211408
0.186674
0.169586
0.157756
0.144562
0.136148
0.151751
0.335687
1.25525
1.13751
1.00145
0.88201
0.780133
0.645002
0.502752
0.401196
0.332158
0.2825
0.244433
0.21462
0.192395
0.179489
0.171221
0.154133
0.138545
0.148653
0.318024
1.16088
1.0031
0.881917
0.803982
0.737338
0.612671
0.486868
0.390476
0.3253
0.280509
0.246111
0.218622
0.196929
0.183006
0.171994
0.153825
0.138325
0.145377
0.271088
0.934063
0.826673
0.740419
0.678025
0.621491
0.537943
0.442047
0.364171
0.312275
0.276924
0.252233
0.231333
0.208796
0.186313
0.1688
0.151692
0.137645
0.144412
0.227356
0.768346
0.688018
0.620507
0.564589
0.511202
0.44962
0.38519
0.331296
0.292112
0.265398
0.24746
0.237168
0.233119
0.197015
0.17063
0.153075
0.138958
0.141377
0.189253
0.657678
0.587857
0.529382
0.478278
0.429679
0.380818
0.334629
0.296366
0.2674
0.246611
0.233188
0.225454
0.227763
0.203757
0.175603
0.158539
0.144767
0.147095
0.171014
0.579235
0.513612
0.459695
0.414344
0.372074
0.331442
0.294694
0.264576
0.241488
0.224831
0.214349
0.209256
0.20476
0.189646
0.170155
0.154826
0.144239
0.140259
0.175999
0.518501
0.454398
0.401232
0.358177
0.321456
0.289102
0.260754
0.236884
0.218055
0.204649
0.197246
0.195749
0.194992
0.183838
0.166662
0.151447
0.139968
0.134974
0.193251
0.474002
0.411421
0.359931
0.318358
0.284177
0.255605
0.231859
0.212376
0.19708
0.18666
0.181933
0.182783
0.184846
0.17723
0.162507
0.147522
0.135818
0.12936
0.187342
0.436243
0.378618
0.330131
0.290503
0.258088
0.231408
0.209605
0.192321
0.179444
0.171008
0.167092
0.167665
0.169312
0.16389
0.151886
0.139108
0.128672
0.121282
0.159497
0.399592
0.35023
0.306499
0.269843
0.239609
0.214747
0.194421
0.178583
0.166968
0.158848
0.153785
0.152021
0.15123
0.145899
0.135834
0.125454
0.11626
0.107712
0.119896
0.362535
0.322435
0.284932
0.252466
0.22528
0.202875
0.18444
0.169938
0.158952
0.150142
0.14288
0.137741
0.133572
0.127293
0.118657
0.110077
0.101881
0.0922104
0.0849673
0.325472
0.294316
0.263676
0.236192
0.212669
0.193167
0.177162
0.16422
0.153738
0.144178
0.135088
0.127151
0.120089
0.112763
0.105041
0.097985
0.0918869
0.0845817
0.0787373
0.289915
0.266613
0.242616
0.220243
0.200548
0.183988
0.170499
0.15935
0.149464
0.139663
0.129862
0.120731
0.11245
0.104803
0.0977379
0.0918449
0.0879167
0.0855547
0.0957288
0.257399
0.240462
0.222265
0.204602
0.188521
0.174675
0.163295
0.153752
0.144683
0.135313
0.12578
0.116728
0.108551
0.101376
0.0952012
0.0902715
0.0875939
0.0900339
0.118346
0.228662
0.21658
0.203082
0.189443
0.176562
0.16509
0.155358
0.146956
0.138768
0.130202
0.121445
0.113031
0.105427
0.0989327
0.0936943
0.0899487
0.0888611
0.0950775
0.140008
0.203679
0.195144
0.185272
0.174905
0.164731
0.155299
0.146923
0.139367
0.131935
0.124205
0.116331
0.108691
0.101741
0.0958723
0.0914212
0.0888864
0.0896739
0.0988802
0.155706
0.181942
0.175975
0.168827
0.161041
0.1531
0.145418
0.138242
0.131457
0.124701
0.117761
0.110708
0.103834
0.0975522
0.0923026
0.0885676
0.0870678
0.0894298
0.10114
0.164723
0.162824
0.15873
0.153642
0.147865
0.141745
0.135563
0.129495
0.123509
0.117474
0.111294
0.105023
0.0989111
0.0933391
0.0887629
0.0857363
0.0850834
0.088584
0.102103
0.170239
0.145735
0.143079
0.139555
0.135384
0.130764
0.125874
0.120856
0.115745
0.110487
0.105068
0.0995798
0.0942531
0.08944
0.0855885
0.0832681
0.0833344
0.0875996
0.102246
0.17546
0.130303
0.128799
0.126531
0.123645
0.120274
0.116537
0.11253
0.108293
0.103831
0.0991968
0.0945091
0.0899882
0.0859606
0.0828511
0.0812142
0.081909
0.0867762
0.102351
0.181792
0.116343
0.115763
0.114514
0.112689
0.110371
0.107638
0.104557
0.101174
0.097532
0.0937047
0.089826
0.0861111
0.0828643
0.0804815
0.0794897
0.0807352
0.086143
0.102755
0.188385
0.1038
0.103944
0.103513
0.102558
0.101125
0.0992627
0.0970209
0.0944474
0.0915992
0.0885639
0.0854789
0.0825477
0.080048
0.0783426
0.07793
0.0796513
0.0855108
0.102955
0.193186
0.0926845
0.093372
0.0935758
0.0933159
0.092613
0.0914943
0.0899952
0.088161
0.0860531
0.0837623
0.0814221
0.0792198
0.077406
0.0763115
0.0764094
0.0785402
0.0847575
0.102798
0.196554
0.0830164
0.0840831
0.0847537
0.0850273
0.0849064
0.0844021
0.0835384
0.0823546
0.0809099
0.0792915
0.0776234
0.0760749
0.0748706
0.0743126
0.0748515
0.0773243
0.0838046
0.102198
0.198627
0.0747943
0.0760941
0.07708
0.0777377
0.0780571
0.0780382
0.0776951
0.0770597
0.076185
0.0751502
0.0740668
0.0730853
0.0724061
0.0723055
0.0732126
0.0759538
0.082606
0.10112
0.199216
0.0679804
0.069389
0.0705577
0.0714648
0.0720927
0.0724337
0.0724944
0.0722989
0.0718921
0.0713429
0.0707489
0.0702421
0.0700005
0.0702766
0.071477
0.0744071
0.0811484
0.0996063
0.198276
0.0625032
0.06392
0.06516
0.0661987
0.0670155
0.0675986
0.0679491
0.0680844
0.0680408
0.0678763
0.0676743
0.0675492
0.0676585
0.0682325
0.0696556
0.0727092
0.0794522
0.0977432
0.196297
0.0582731
0.0596186
0.060838
0.0619078
0.0628078
0.0635251
0.0640579
0.0644186
0.0646357
0.0647568
0.0648517
0.0650185
0.0653961
0.0661948
0.0677772
0.0708969
0.0775608
0.0955981
0.193922
0.0551988
0.05641
0.0575337
0.0585492
0.0594392
0.0601928
0.0608084
0.0612953
0.0616759
0.0619883
0.0622902
0.0626648
0.0632346
0.064192
0.0658795
0.0690223
0.0755661
0.093228
0.191272
0.0531981
0.0542266
0.0551926
0.0560798
0.0568764
0.0575767
0.0581824
0.0587026
0.0591557
0.0595719
0.0599977
0.0605034
0.0611967
0.0622539
0.0639989
0.0671284
0.0735186
0.0906438
0.187048
0.0522168
0.0530238
0.053778
0.054469
0.0550931
0.0556538
0.0561604
0.0566257
0.0570661
0.0575055
0.0579802
0.0585484
0.0593043
0.0604098
0.0621708
0.0652561
0.071478
0.0880489
0.181485
0.0522398
0.0527937
0.0532841
0.0537109
0.0540803
0.0544109
0.0547268
0.0550495
0.055396
0.0557842
0.0562406
0.0568114
0.0575782
0.0586896
0.0604351
0.0634583
0.0695266
0.0857503
0.177954
0.0533016
0.0535748
0.0537511
0.0538394
0.0538591
0.053853
0.0538738
0.0539602
0.0541322
0.0544003
0.0547792
0.0553019
0.0560374
0.0571223
0.0588328
0.061791
0.0677219
0.0836562
0.174951
0.0554972
0.0554712
0.0552871
0.0549509
0.0544994
0.0540135
0.0536046
0.0533452
0.0532585
0.053342
0.0535926
0.0540264
0.0546982
0.0557336
0.0573981
0.0602942
0.0660921
0.0816561
0.171047
0.0589946
0.0586713
0.0580954
0.0572413
0.056154
0.0549693
0.0539354
0.0531898
0.0527525
0.0525916
0.052673
0.0529882
0.0535748
0.054547
0.0561617
0.0590024
0.0646745
0.0798479
0.167268
0.0640447
0.0634685
0.0625148
0.061073
0.0591277
0.0568604
0.0548884
0.0534667
0.0525779
0.0521209
0.0520056
0.0521865
0.0526792
0.0535862
0.0551586
0.0579624
0.0635327
0.0783716
0.164324
0.0709835
0.0702752
0.0690709
0.0670894
0.0640227
0.0598883
0.0564523
0.0541073
0.0526705
0.0518857
0.0515663
0.0516142
0.0520186
0.0528716
0.0544242
0.057227
0.062739
0.0773456
0.16255
0.0802186
0.0795978
0.0784701
0.0763238
0.072073
0.0641603
0.0584419
0.0549368
0.0529139
0.0518169
0.0513178
0.0512549
0.0515907
0.0524116
0.0539779
0.0568138
0.062299
0.0768091
0.161826
0.0922005
0.0919464
0.0914368
0.0901793
0.0861052
0.0688621
0.0601584
0.0555824
0.0531205
0.0518183
0.0512097
0.0510825
0.0513811
0.052192
0.0537924
0.0566067
0.0619536
0.0761232
0.160089
)
;

boundaryField
{
    leftWall
    {
        type            epsilonWallFunction;
        value           nonuniform List<scalar> 
50
(
0.0106885
0.0179895
0.0295826
0.0426322
0.0561478
0.0694727
0.0823852
0.0953726
0.112552
0.133354
0.147942
0.156059
0.170937
0.210117
0.271227
0.333781
0.382764
0.426283
0.459193
0.476119
0.477307
0.463828
0.437505
0.400566
0.356497
0.310577
0.263289
0.216558
0.170624
0.128621
0.0936656
0.067482
0.0515076
0.0440117
0.0415447
0.0417211
0.0435324
0.0465982
0.0509516
0.0567772
0.0643767
0.0742309
0.0870962
0.10416
0.127378
0.160376
0.211485
0.303925
0.532878
1.5956
)
;
        Cmu             0.09;
        kappa           0.41;
        E               9.8;
        value           nonuniform List<scalar> 
50
(
0.0106885
0.0179895
0.0295826
0.0426322
0.0561478
0.0694727
0.0823852
0.0953726
0.112552
0.133354
0.147942
0.156059
0.170937
0.210117
0.271227
0.333781
0.382764
0.426283
0.459193
0.476119
0.477307
0.463828
0.437505
0.400566
0.356497
0.310577
0.263289
0.216558
0.170624
0.128621
0.0936656
0.067482
0.0515076
0.0440117
0.0415447
0.0417211
0.0435324
0.0465982
0.0509516
0.0567772
0.0643767
0.0742309
0.0870962
0.10416
0.127378
0.160376
0.211485
0.303925
0.532878
1.5956
)
;
    }
    rightWall
    {
        type            epsilonWallFunction;
        value           nonuniform List<scalar> 
50
(
0.0227744
0.0319789
0.0511814
0.0771363
0.106177
0.139127
0.17296
0.206605
0.263085
0.313336
0.335687
0.318024
0.271088
0.227356
0.189253
0.171014
0.175999
0.193251
0.187342
0.159497
0.119896
0.0849673
0.0787373
0.0957288
0.118346
0.140008
0.155706
0.164723
0.170239
0.17546
0.181792
0.188385
0.193186
0.196554
0.198627
0.199216
0.198276
0.196297
0.193922
0.191272
0.187048
0.181485
0.177954
0.174951
0.171047
0.167268
0.164324
0.16255
0.161826
0.160089
)
;
        Cmu             0.09;
        kappa           0.41;
        E               9.8;
        value           nonuniform List<scalar> 
50
(
0.0227744
0.0319789
0.0511814
0.0771363
0.106177
0.139127
0.17296
0.206605
0.263085
0.313336
0.335687
0.318024
0.271088
0.227356
0.189253
0.171014
0.175999
0.193251
0.187342
0.159497
0.119896
0.0849673
0.0787373
0.0957288
0.118346
0.140008
0.155706
0.164723
0.170239
0.17546
0.181792
0.188385
0.193186
0.196554
0.198627
0.199216
0.198276
0.196297
0.193922
0.191272
0.187048
0.181485
0.177954
0.174951
0.171047
0.167268
0.164324
0.16255
0.161826
0.160089
)
;
    }
    lowerWall
    {
        type            epsilonWallFunction;
        value           nonuniform List<scalar> 
62
(
0.0106885
0.0571242
0.106144
0.150105
0.189801
0.227202
0.262902
0.296936
0.328783
0.357529
0.382068
0.40123
0.413968
0.419398
0.417038
0.407472
0.388936
0.359748
0.315483
0.259618
0.196823
0.119351
0.0481524
0.0481524
0.0722847
0.124068
0.1937
0.279762
0.396446
0.611223
1.18876
2.60064
2.47394
2.56502
2.88363
0.143978
0.152885
0.194108
0.224823
0.295525
0.493069
1.15809
2.2928
0.143978
0.483129
0.980649
1.25905
1.3012
1.22308
1.08727
0.925431
0.76364
0.62636
0.4936
0.365653
0.258361
0.185407
0.150277
0.127762
0.0979446
0.062609
0.0227744
)
;
        Cmu             0.09;
        kappa           0.41;
        E               9.8;
        value           nonuniform List<scalar> 
62
(
0.0106885
0.0571242
0.106144
0.150105
0.189801
0.227202
0.262902
0.296936
0.328783
0.357529
0.382068
0.40123
0.413968
0.419398
0.417038
0.407472
0.388936
0.359748
0.315483
0.259618
0.196823
0.119351
0.0481524
0.0481524
0.0722847
0.124068
0.1937
0.279762
0.396446
0.611223
1.18876
2.60064
2.47394
2.56502
2.88363
0.143978
0.152885
0.194108
0.224823
0.295525
0.493069
1.15809
2.2928
0.143978
0.483129
0.980649
1.25905
1.3012
1.22308
1.08727
0.925431
0.76364
0.62636
0.4936
0.365653
0.258361
0.185407
0.150277
0.127762
0.0979446
0.062609
0.0227744
)
;
    }
    atmosphere
    {
        type            inletOutlet;
        inletValue      uniform 0.1;
        value           nonuniform List<scalar> 
46
(
0.1
0.1
0.1
0.1
0.1
0.1
0.1
0.1
0.1
0.1
0.1
0.1
0.1
0.1
0.1
0.1
0.1
0.1
0.1
0.1
0.1
0.1
0.1
0.1
0.1
0.1
0.1
0.1
0.1
0.1
0.1
0.1
0.0688621
0.0601584
0.0555824
0.0531205
0.0518183
0.0512097
0.0510825
0.0513811
0.052192
0.0537924
0.0566067
0.0619536
0.0761232
0.160089
)
;
    }
    defaultFaces
    {
        type            empty;
    }
}


// ************************************************************************* //
