/*--------------------------------*- C++ -*----------------------------------*\
| =========                 |                                                 |
| \\      /  F ield         | OpenFOAM: The Open Source CFD Toolbox           |
|  \\    /   O peration     | Version:  2.3.0                                 |
|   \\  /    A nd           | Web:      www.OpenFOAM.org                      |
|    \\/     M anipulation  |                                                 |
\*---------------------------------------------------------------------------*/
FoamFile
{
    version     2.0;
    format      ascii;
    class       volScalarField;
    location    "1.85";
    object      k;
}
// * * * * * * * * * * * * * * * * * * * * * * * * * * * * * * * * * * * * * //

dimensions      [0 2 -2 0 0 0 0];

internalField   nonuniform List<scalar> 
2268
(
0.00226245
0.00562093
0.00848303
0.0106845
0.0124892
0.0140744
0.0155058
0.0168102
0.0179882
0.0190238
0.0198935
0.0205698
0.0210265
0.0212387
0.0211995
0.0209082
0.020303
0.0193094
0.017718
0.0155848
0.0129734
0.00931398
0.00506837
0.0043028
0.0127028
0.0185582
0.0231895
0.0271083
0.030565
0.0336841
0.0365168
0.0390638
0.0412951
0.0431664
0.0446308
0.0456508
0.0462006
0.0462605
0.0458043
0.0447898
0.0430968
0.0403774
0.0366725
0.031522
0.0236814
0.010939
0.00598093
0.0166469
0.0238043
0.0295849
0.034529
0.038907
0.0428611
0.0464517
0.0496821
0.0525186
0.0549106
0.0568058
0.0581657
0.0589714
0.0592211
0.0589151
0.0580235
0.0564164
0.053761
0.0498001
0.0438563
0.0341905
0.0156756
0.00761933
0.0197629
0.0278156
0.0343545
0.0399911
0.0450051
0.0495438
0.0536722
0.057395
0.060677
0.0634639
0.0657008
0.0673511
0.068406
0.0688843
0.0688149
0.0681923
0.0668988
0.0646074
0.0608591
0.0547473
0.044156
0.0210886
0.00913709
0.0225629
0.0313308
0.0384572
0.0446382
0.0501634
0.0551821
0.0597611
0.0639058
0.0675792
0.0707239
0.0732827
0.0752218
0.0765444
0.0772932
0.0775296
0.0772825
0.0764617
0.0747544
0.0715904
0.0658504
0.0547998
0.0269991
0.0105201
0.0251807
0.0345795
0.0422073
0.0488546
0.0548259
0.0602728
0.0652634
0.0698032
0.0738533
0.0773521
0.0802397
0.0824857
0.084107
0.0851743
0.0857888
0.0860264
0.08584
0.0849524
0.0827607
0.0780019
0.0672193
0.0341367
0.0117709
0.0276574
0.0376502
0.0457383
0.0528111
0.059194
0.0650433
0.0704297
0.0753592
0.0797903
0.0836567
0.0868946
0.089477
0.091437
0.092878
0.093951
0.0947938
0.0954213
0.0956181
0.0948293
0.0918163
0.0827317
0.045776
0.0129599
0.0300048
0.0405763
0.0491126
0.0565945
0.0633738
0.0696152
0.0753945
0.0807195
0.0855466
0.0898042
0.0934234
0.096381
0.0987275
0.100606
0.102227
0.103809
0.105449
0.10702
0.108091
0.107691
0.102715
0.0718523
0.0105359
0.0234458
0.0374107
0.0441524
0.0451841
0.0434521
0.0403304
0.0363403
0.0319718
0.0279909
0.0239171
0.0196456
0.0156195
0.0124473
0.0106818
0.00954998
0.00802392
0.00596786
0.00383056
0.0193634
0.0503853
0.0767714
0.0887706
0.0902502
0.0865219
0.0802993
0.072749
0.0648288
0.0569881
0.0489543
0.0409562
0.0340546
0.0284225
0.0248348
0.0224611
0.0193192
0.0146061
0.00678056
0.0226703
0.0656184
0.0951801
0.108686
0.110892
0.106957
0.0999455
0.0912266
0.0819156
0.0727502
0.0633824
0.0539731
0.0455616
0.0385871
0.0336831
0.0303314
0.0264191
0.0205738
0.00928791
0.0249373
0.0780208
0.108649
0.122873
0.125425
0.121317
0.113787
0.104314
0.0940454
0.0839312
0.0736903
0.0634522
0.054131
0.0463781
0.0406937
0.036661
0.0322196
0.0256896
0.0122201
0.0298553
0.0905442
0.121688
0.135832
0.138194
0.133587
0.125316
0.115007
0.103837
0.0928435
0.0818651
0.0710226
0.0610937
0.0528864
0.046826
0.042367
0.0375445
0.0305002
0.0151248
0.0420048
0.106581
0.136415
0.149416
0.150879
0.14524
0.135788
0.124347
0.112187
0.100318
0.0886882
0.0774146
0.0671098
0.0586589
0.0524645
0.047765
0.042662
0.0351682
0.0180937
0.0743531
0.128299
0.153915
0.164396
0.164156
0.156862
0.145695
0.132761
0.119489
0.106788
0.0946132
0.0830498
0.0725411
0.0639808
0.0577591
0.0529213
0.0476197
0.0397247
0.0209399
0.117145
0.154996
0.173976
0.180675
0.178059
0.168523
0.155118
0.140388
0.12594
0.112538
0.0999732
0.0882395
0.0776571
0.0690534
0.062767
0.0577784
0.0523346
0.044114
0.0235842
0.0144517
0.0332351
0.0447402
0.0540104
0.0621565
0.0695774
0.0764564
0.0828809
0.0888645
0.0943617
0.099292
0.103577
0.107202
0.11025
0.112926
0.115559
0.118527
0.122087
0.126271
0.130923
0.135715
0.139714
0.137334
0.0161398
0.0368579
0.0497223
0.060134
0.0692799
0.0776289
0.085411
0.0927555
0.0997076
0.106237
0.112256
0.117664
0.122452
0.126746
0.130872
0.135349
0.1409
0.14805
0.156978
0.167794
0.180798
0.196161
0.212737
0.0172519
0.0393512
0.0538759
0.0657194
0.0760305
0.0853736
0.0940766
0.102345
0.110295
0.11796
0.125252
0.132037
0.138309
0.144263
0.150376
0.157307
0.166411
0.178547
0.193608
0.211395
0.232274
0.25523
0.277517
0.0178858
0.0407706
0.0571849
0.0707384
0.0823388
0.0926753
0.102272
0.11138
0.120215
0.129011
0.137743
0.146169
0.154207
0.162314
0.171429
0.181459
0.195369
0.214693
0.237878
0.263315
0.292785
0.322115
0.348291
0.0190568
0.0429643
0.0602939
0.0749508
0.0876369
0.0989487
0.109504
0.119393
0.128598
0.13754
0.146568
0.155228
0.163595
0.17313
0.185906
0.20486
0.228119
0.257932
0.289335
0.320884
0.359812
0.391428
0.404892
0.0217839
0.0472254
0.0642385
0.0792043
0.0925035
0.104312
0.11503
0.124651
0.133267
0.141412
0.149575
0.157552
0.165945
0.176848
0.193868
0.219797
0.255668
0.301788
0.329733
0.349716
0.371102
0.383704
0.371706
0.0257285
0.052589
0.0698592
0.0841602
0.0967544
0.108134
0.11843
0.127756
0.136108
0.14388
0.151593
0.159433
0.168153
0.17951
0.196027
0.22081
0.256391
0.299319
0.322002
0.32911
0.333889
0.334074
0.325583
0.0295243
0.0597986
0.0769867
0.0903828
0.101899
0.112228
0.121568
0.130098
0.138041
0.145705
0.15346
0.161324
0.16974
0.18065
0.195843
0.217608
0.246737
0.277485
0.295871
0.302305
0.304942
0.303324
0.295503
0.0323779
0.0653477
0.0826347
0.0956132
0.106536
0.116119
0.124663
0.132452
0.139804
0.147017
0.154342
0.16181
0.170056
0.180592
0.194455
0.212718
0.234611
0.255548
0.270252
0.277818
0.282203
0.28387
0.277597
0.0348003
0.0690565
0.0862405
0.0988342
0.109278
0.118313
0.126253
0.133398
0.140106
0.146707
0.153518
0.160849
0.1693
0.17956
0.192145
0.207294
0.224083
0.239826
0.251335
0.25837
0.26354
0.267869
0.267666
0.0366399
0.0715921
0.0883545
0.100263
0.110059
0.118502
0.125908
0.132564
0.138816
0.145012
0.151499
0.158686
0.167058
0.177021
0.188748
0.202022
0.215876
0.228184
0.236883
0.242905
0.248128
0.253022
0.25674
0.0375949
0.0729998
0.0892562
0.100398
0.109406
0.117155
0.124011
0.130257
0.136207
0.142187
0.148529
0.1556
0.163794
0.173399
0.18438
0.196263
0.208023
0.217973
0.224879
0.229995
0.234751
0.239393
0.242921
0.0377134
0.0732564
0.0890063
0.0994348
0.107691
0.114775
0.12112
0.127019
0.132753
0.138608
0.144877
0.151853
0.159818
0.168916
0.178986
0.189476
0.199451
0.207738
0.213646
0.218093
0.22218
0.226014
0.228642
0.037057
0.0723391
0.0876075
0.0974573
0.105109
0.111653
0.117579
0.12319
0.128743
0.134478
0.140632
0.14742
0.155005
0.163413
0.172423
0.181518
0.189948
0.196939
0.202155
0.206107
0.209511
0.212408
0.214109
0.0357011
0.0702672
0.0850685
0.09449
0.10172
0.107881
0.113498
0.118877
0.124251
0.129819
0.135758
0.142214
0.149259
0.156846
0.164748
0.172541
0.179677
0.185652
0.190286
0.193829
0.196646
0.198767
0.19978
0.0337193
0.0671095
0.0814389
0.09056
0.0975301
0.103456
0.108864
0.114059
0.11925
0.124597
0.130231
0.136244
0.142655
0.149385
0.156236
0.162889
0.168964
0.174131
0.178256
0.181438
0.183809
0.185378
0.185922
0.0312853
0.0629537
0.0768137
0.0857288
0.0925612
0.098362
0.103643
0.108696
0.113709
0.118811
0.124097
0.129624
0.1354
0.141328
0.147258
0.152963
0.158185
0.1627
0.16639
0.169259
0.171325
0.172561
0.172838
0.0285949
0.0579619
0.0713213
0.080097
0.0868707
0.0926221
0.0978361
0.102787
0.107642
0.112511
0.117462
0.122534
0.127733
0.132977
0.138154
0.143107
0.147662
0.151662
0.155
0.157628
0.159515
0.160613
0.160849
0.0256606
0.0524848
0.0651492
0.0737968
0.080559
0.0863078
0.0914972
0.096382
0.101114
0.105785
0.110451
0.115141
0.119859
0.124564
0.129161
0.133547
0.137604
0.141217
0.144292
0.146763
0.148577
0.149683
0.150029
0.0225763
0.0467057
0.0585972
0.0670089
0.0737715
0.0795445
0.0847374
0.0895866
0.09423
0.0987507
0.103197
0.107593
0.111944
0.116237
0.120411
0.124389
0.12809
0.131429
0.134326
0.136714
0.138533
0.139729
0.140254
0.0193221
0.0407151
0.0518536
0.0600204
0.0667101
0.0725133
0.0777218
0.0825545
0.0871386
0.0915509
0.0958367
0.10002
0.104109
0.108098
0.111967
0.115661
0.119116
0.122269
0.125055
0.127411
0.129276
0.130592
0.131316
0.0160555
0.0345037
0.0450716
0.053054
0.0596627
0.0654416
0.0706628
0.0754844
0.0800249
0.0843576
0.0885272
0.092559
0.0964645
0.100244
0.103887
0.10737
0.110654
0.11368
0.116398
0.118745
0.120665
0.122107
0.123025
0.0130394
0.0286472
0.0386642
0.0464034
0.052898
0.0586161
0.0638123
0.0686156
0.0731113
0.0773753
0.081452
0.0853678
0.0891372
0.0927648
0.0962469
0.0995711
0.102713
0.105635
0.108294
0.110637
0.11261
0.114167
0.115262
0.0104997
0.023944
0.0331782
0.0405366
0.0468196
0.0524021
0.0574965
0.0622238
0.0666492
0.0708349
0.0748205
0.0786317
0.0822842
0.0857858
0.0891367
0.0923301
0.09535
0.0981714
0.100762
0.103083
0.105094
0.106745
0.107994
0.00875699
0.020721
0.0290282
0.0358358
0.0417716
0.0471165
0.0520319
0.0566159
0.0609209
0.0649919
0.0688612
0.0725517
0.0760788
0.0794515
0.082673
0.0857401
0.088643
0.0913645
0.0938806
0.0961619
0.0981745
0.0998831
0.101253
0.00785453
0.0188191
0.0262736
0.0324716
0.0379712
0.0429921
0.0476526
0.0520249
0.0561509
0.0600591
0.0637736
0.0673129
0.0706906
0.0739158
0.076993
0.0799217
0.0826962
0.085305
0.0877306
0.089951
0.0919399
0.093669
0.0951114
0.00753242
0.0178893
0.0247079
0.0303728
0.0354399
0.0401065
0.0444687
0.0485813
0.0524781
0.0561774
0.0596962
0.0630489
0.0662469
0.0692984
0.0722085
0.0749784
0.0776051
0.0800811
0.0823945
0.084529
0.0864649
0.0881805
0.0896546
0.00753926
0.0176337
0.0240607
0.0293371
0.0340464
0.0383876
0.0424523
0.0462909
0.0499317
0.053391
0.0566829
0.0598194
0.0628102
0.0656631
0.0683831
0.0709725
0.0734304
0.0757524
0.0779305
0.0799534
0.0818067
0.083474
0.084939
0.00775412
0.017868
0.0241117
0.0291486
0.0336013
0.0376806
0.0414832
0.0450617
0.0484457
0.0516554
0.0547058
0.057609
0.0603749
0.0630113
0.0655236
0.0679153
0.070187
0.0723367
0.0743595
0.0762478
0.0779913
0.0795783
0.0809958
0.00812125
0.0184895
0.0247178
0.0296428
0.0339351
0.0378223
0.0414104
0.0447584
0.0479035
0.0508715
0.0536813
0.0563478
0.0588823
0.061294
0.0635895
0.0657733
0.0678476
0.0698123
0.0716649
0.0734006
0.0750126
0.0764921
0.0778294
0.00862771
0.0194501
0.0257947
0.0307119
0.034925
0.0386822
0.0421019
0.0452537
0.0481842
0.0509266
0.0535059
0.0559411
0.0582467
0.0604338
0.0625109
0.0644837
0.0663561
0.0681293
0.0698029
0.0713742
0.0728388
0.0741905
0.0754216
0.00928034
0.0207566
0.0273295
0.0323212
0.0365168
0.0401898
0.0434754
0.0464569
0.0491922
0.051724
0.054084
0.0562965
0.0583797
0.0603472
0.0622094
0.0639735
0.0656445
0.0672253
0.0687167
0.0701176
0.0714252
0.0726351
0.0737412
0.0100957
0.022445
0.029356
0.0344909
0.0387121
0.0423274
0.0454956
0.0483181
0.050867
0.0531955
0.0553433
0.0573398
0.059207
0.0609611
0.0626141
0.0641745
0.0656484
0.0670395
0.0683496
0.0695787
0.0707251
0.0717852
0.072754
0.0111036
0.024581
0.0319448
0.0372807
0.0415519
0.0451153
0.0481631
0.0508213
0.0531793
0.0553022
0.0572377
0.0590204
0.0606755
0.0622214
0.063671
0.0650338
0.0663164
0.0675229
0.0686555
0.0697149
0.0706998
0.071607
0.0724316
0.0123519
0.027265
0.0352021
0.0407822
0.0451047
0.048598
0.0515017
0.0539733
0.0561229
0.0580283
0.0597446
0.061311
0.0627549
0.0640957
0.0653469
0.066518
0.0676155
0.0686437
0.0696047
0.070499
0.0713254
0.0720805
0.0727588
0.0139142
0.0306428
0.0392748
0.0451151
0.0494567
0.0528321
0.0555452
0.0577922
0.0597052
0.0613739
0.0628596
0.064204
0.0654353
0.0665728
0.0676297
0.0686148
0.0695339
0.0703908
0.0711872
0.0719231
0.0725968
0.0732043
0.0737387
0.0159068
0.0349317
0.0443619
0.0504252
0.054702
0.0578743
0.060327
0.0622981
0.0639395
0.0653492
0.0665913
0.0677074
0.0687247
0.0696609
0.0705278
0.0713328
0.0720807
0.0727741
0.0734142
0.0740002
0.0745296
0.0749975
0.0753954
0.018539
0.0404758
0.0507363
0.0568793
0.0609286
0.0637675
0.0658691
0.0675057
0.0688399
0.0699706
0.070959
0.0718434
0.0726475
0.0733862
0.0740688
0.0747009
0.0752857
0.0758248
0.0763183
0.0767649
0.0771612
0.0775013
0.0777752
0.0222781
0.0478553
0.0587623
0.0646414
0.0681915
0.0705233
0.0721729
0.0734206
0.0744204
0.0752608
0.0759932
0.0766485
0.0772449
0.0777932
0.0782998
0.078768
0.0791996
0.079595
0.0799535
0.0802732
0.0805503
0.0807785
0.080947
0.0283462
0.0581234
0.0688583
0.073793
0.0764613
0.0780987
0.0792133
0.0800404
0.0806992
0.0812536
0.0817392
0.0821765
0.0825767
0.0829462
0.0832882
0.0836042
0.0838945
0.0841586
0.0843953
0.0846027
0.0847772
0.0849129
0.085
0.0412023
0.0731154
0.0812159
0.0841383
0.0855492
0.0863808
0.0869441
0.0873666
0.0877092
0.088003
0.088265
0.0885046
0.0887265
0.0889331
0.0891252
0.0893028
0.0894654
0.0896123
0.0897422
0.0898535
0.0899438
0.0900089
0.0900417
0.0860943
0.0940005
0.0946479
0.0948907
0.0950691
0.0952121
0.0953294
0.0954289
0.0955166
0.0955965
0.0956709
0.095741
0.0958075
0.0958702
0.095929
0.0959836
0.0960334
0.096078
0.096117
0.0961496
0.096175
0.0961919
0.0961976
0.121055
0.116737
0.119231
0.128403
0.222725
0.228936
0.234505
0.239443
0.289124
0.294991
0.298414
0.299391
0.357448
0.35935
0.356638
0.350784
0.394815
0.382438
0.368374
0.354763
0.354821
0.343763
0.332667
0.321711
0.315379
0.308573
0.301488
0.294039
0.288138
0.283526
0.278972
0.274136
0.271344
0.26762
0.264355
0.260773
0.262133
0.258245
0.254535
0.249935
0.255181
0.252101
0.247706
0.2415
0.242558
0.240572
0.236405
0.230683
0.227908
0.226063
0.22287
0.218509
0.213254
0.211801
0.209434
0.206018
0.198943
0.197768
0.195895
0.19321
0.185171
0.184198
0.182662
0.180565
0.17217
0.171381
0.170191
0.16861
0.160296
0.159685
0.158803
0.157643
0.149669
0.149235
0.148594
0.147749
0.140109
0.139847
0.139416
0.13882
0.131382
0.131279
0.131031
0.130645
0.123289
0.123331
0.123249
0.123047
0.115707
0.115883
0.115951
0.115914
0.108598
0.108894
0.109095
0.109204
0.10199
0.102388
0.102703
0.102937
0.0959485
0.0964258
0.0968313
0.0971665
0.0905506
0.0910799
0.0915495
0.0919586
0.0858589
0.0864142
0.0869192
0.0873737
0.0819068
0.0824648
0.0829803
0.0834529
0.0787027
0.0792427
0.0797469
0.0802146
0.0762338
0.0767388
0.0772133
0.0776565
0.0744745
0.0749314
0.0753617
0.0757649
0.0733957
0.0737946
0.07417
0.0745211
0.0729733
0.0733079
0.0736206
0.0739105
0.0731964
0.0734629
0.073708
0.0739308
0.0740718
0.0742692
0.074445
0.0745977
0.0756281
0.0757589
0.0758671
0.0759506
0.0779173
0.0779882
0.0780352
0.0780557
0.0810147
0.0810374
0.0810358
0.0810069
0.0850158
0.0850071
0.0849765
0.0849202
0.0900325
0.090013
0.0899777
0.0899234
0.0961899
0.0961799
0.0961642
0.0961416
0.168011
0.192905
0.203334
0.204979
0.199009
0.185654
0.168354
0.150827
0.134874
0.120659
0.107741
0.0959496
0.0854505
0.0768675
0.0703123
0.0648307
0.0591347
0.0505898
0.0277079
0.245929
0.247134
0.244856
0.239886
0.228718
0.207082
0.182927
0.161851
0.144354
0.129415
0.116292
0.104612
0.0943797
0.0860048
0.0791266
0.072411
0.0655527
0.0562556
0.0311109
0.297169
0.288846
0.280096
0.271004
0.254519
0.222442
0.192821
0.169622
0.151311
0.136112
0.123063
0.111713
0.101987
0.0942217
0.0874397
0.0789501
0.069287
0.0579652
0.0325793
0.337391
0.31746
0.294377
0.273343
0.254053
0.228088
0.198398
0.174437
0.155918
0.140935
0.128231
0.117229
0.107842
0.100591
0.093719
0.0826179
0.0693948
0.0558278
0.0315138
0.334537
0.30661
0.283838
0.267827
0.253587
0.228154
0.200379
0.176666
0.158612
0.144615
0.132719
0.122133
0.11239
0.103858
0.0947371
0.0817573
0.0671825
0.0523153
0.0283052
0.305339
0.283627
0.265117
0.250661
0.23722
0.218203
0.195147
0.17446
0.158947
0.147045
0.137676
0.128891
0.118474
0.106333
0.0939247
0.0796549
0.063695
0.0474608
0.0251983
0.281739
0.263326
0.246983
0.232747
0.2188
0.202708
0.185155
0.169175
0.156229
0.146233
0.138471
0.13273
0.127773
0.110895
0.0947555
0.0790439
0.0616685
0.0440809
0.0222916
0.264789
0.247266
0.231749
0.217555
0.203581
0.189105
0.174712
0.161781
0.150938
0.142163
0.135396
0.130103
0.127059
0.1139
0.0969907
0.0809917
0.062963
0.0450981
0.0206897
0.251225
0.233739
0.218465
0.20488
0.191623
0.178264
0.165384
0.153875
0.144081
0.136066
0.129862
0.125084
0.119671
0.109583
0.0960641
0.0815558
0.0656134
0.0464817
0.0208166
0.239079
0.221254
0.205463
0.191771
0.179284
0.167499
0.156344
0.14606
0.137011
0.129526
0.123916
0.120072
0.115973
0.107372
0.095157
0.0816248
0.0667918
0.0489798
0.022033
0.22909
0.211172
0.195322
0.181515
0.169209
0.157994
0.147725
0.138345
0.129978
0.123038
0.117934
0.114622
0.111397
0.104048
0.0929618
0.0800585
0.0659813
0.0487219
0.0217842
0.219568
0.20266
0.187324
0.173734
0.161594
0.150593
0.140571
0.131544
0.123623
0.116975
0.111753
0.108013
0.104401
0.0976618
0.0875102
0.0755133
0.0621582
0.0452138
0.0197434
0.20954
0.194656
0.180468
0.167553
0.155879
0.145252
0.135499
0.126732
0.118991
0.11213
0.106109
0.101124
0.0962532
0.0891978
0.0794799
0.0682184
0.055454
0.0393736
0.0164399
0.19882
0.186327
0.1738
0.162036
0.151233
0.141342
0.132162
0.123773
0.116118
0.108777
0.101619
0.0949701
0.0883874
0.0805139
0.0709407
0.0601724
0.0480292
0.0332836
0.0130636
0.187576
0.177482
0.166886
0.156602
0.146963
0.13807
0.129785
0.121987
0.114497
0.106774
0.0987315
0.0907155
0.0826331
0.0739333
0.0643596
0.054023
0.0427996
0.0296733
0.0122936
0.176261
0.168362
0.15972
0.151036
0.142687
0.134876
0.127602
0.120582
0.113398
0.105619
0.097281
0.088705
0.0799846
0.0709855
0.0615685
0.0517445
0.0414748
0.0297837
0.0139318
0.165383
0.159346
0.15249
0.145349
0.138274
0.13151
0.125139
0.118885
0.112176
0.104721
0.0966275
0.0882021
0.0796386
0.0709787
0.0621599
0.0531056
0.0436692
0.0328743
0.0160316
0.155265
0.15072
0.14538
0.139617
0.133718
0.127906
0.122283
0.116638
0.110482
0.103579
0.0960387
0.0881314
0.080092
0.0720525
0.0640205
0.0558781
0.0473041
0.0368188
0.0179245
0.146013
0.142615
0.138501
0.133907
0.129042
0.124078
0.119096
0.11395
0.108312
0.102005
0.0951089
0.0878346
0.0804107
0.0730019
0.0656606
0.0582642
0.0503204
0.0398815
0.0192387
0.137563
0.135043
0.131894
0.128261
0.124278
0.120062
0.115662
0.110978
0.105818
0.10008
0.0938089
0.0871639
0.0803446
0.0735119
0.0667237
0.0598306
0.0521842
0.0416689
0.0199919
0.129782
0.127943
0.12556
0.122705
0.119465
0.115906
0.112047
0.107825
0.103143
0.0979439
0.0922593
0.086215
0.0799748
0.0736755
0.0673513
0.0608117
0.0533266
0.0427541
0.02047
0.122522
0.121239
0.119469
0.11726
0.114651
0.11167
0.108325
0.104583
0.100385
0.0957053
0.0905816
0.0851141
0.0794323
0.0736386
0.0677311
0.0614794
0.0541507
0.0436641
0.0209241
0.115687
0.114881
0.113629
0.11196
0.109893
0.107438
0.10459
0.101324
0.0976036
0.0934333
0.088853
0.0839418
0.0787973
0.0734857
0.0679651
0.0619804
0.054828
0.0445011
0.0214561
0.109241
0.108849
0.108044
0.106842
0.105248
0.103262
0.100875
0.0980697
0.0948302
0.0911649
0.0871107
0.0827318
0.0780979
0.0732425
0.0680949
0.0623783
0.0553954
0.0451655
0.0219888
0.1032
0.103161
0.102741
0.101943
0.100765
0.0992007
0.0972407
0.0948736
0.092094
0.0889132
0.085363
0.0814907
0.0773401
0.0729138
0.0681149
0.0626512
0.0558314
0.0456875
0.0223722
0.0976132
0.0978657
0.0977666
0.0973129
0.0964968
0.0953084
0.0937382
0.0917786
0.0894294
0.0867019
0.0836209
0.0802175
0.0765116
0.0724794
0.068002
0.0627762
0.05611
0.0460398
0.0226412
0.0925435
0.093022
0.0931803
0.0930102
0.0924999
0.0916377
0.0904138
0.0888225
0.0868647
0.0845498
0.081894
0.0789134
0.0756073
0.0719298
0.067744
0.0627382
0.0562134
0.0462001
0.0228063
0.088049
0.0886874
0.0890381
0.0890891
0.0888263
0.0882363
0.0873091
0.086039
0.0844258
0.0824748
0.0801937
0.0775848
0.0746297
0.0712645
0.0673379
0.062531
0.0561386
0.0461779
0.0228547
0.0841725
0.0849068
0.085386
0.0855955
0.08552
0.0851452
0.0844601
0.083458
0.0821364
0.0804955
0.0785342
0.0762427
0.0735879
0.0704911
0.0667892
0.0621573
0.0558936
0.0460049
0.0227866
0.0809364
0.0817081
0.0822554
0.0825629
0.0826147
0.0823961
0.0818955
0.0811047
0.0800178
0.0786298
0.0769314
0.074902
0.0724964
0.069624
0.0661127
0.0616336
0.0554914
0.0457029
0.0226398
0.0783457
0.0791029
0.0796633
0.0800117
0.0801325
0.0800114
0.0796367
0.0789985
0.078088
0.0768946
0.0754019
0.0735801
0.0713738
0.0686834
0.0653301
0.0609824
0.0549474
0.0452712
0.0224623
0.0763937
0.0770914
0.0776157
0.077952
0.0780861
0.0780051
0.0776979
0.0771538
0.0763612
0.075305
0.0739622
0.0722952
0.0702407
0.0676924
0.0644669
0.0602313
0.054293
0.0447157
0.0222614
0.0750672
0.0756677
0.0761125
0.0763879
0.0764822
0.0763852
0.0760879
0.0755801
0.0748484
0.0738738
0.0726276
0.0710658
0.0691188
0.0666751
0.0635485
0.0594064
0.0535569
0.044065
0.0219359
0.0743568
0.0748291
0.0751555
0.0753241
0.0753265
0.0751574
0.0748123
0.0742835
0.0735573
0.0726113
0.071412
0.0699097
0.0680297
0.0656562
0.0626014
0.0585335
0.0527676
0.0433847
0.0215009
0.0742649
0.0745842
0.0747564
0.0747728
0.0746296
0.0743292
0.073876
0.0732682
0.0724931
0.0715258
0.0703279
0.0688442
0.0669953
0.0646621
0.0616553
0.0576445
0.0519549
0.0427103
0.0212173
0.0748125
0.0749595
0.0749454
0.0747636
0.0744152
0.0739155
0.0732862
0.0725371
0.0716589
0.0706233
0.069386
0.0678855
0.0660376
0.0637203
0.0607434
0.0567771
0.0511516
0.0420277
0.0209835
0.0760456
0.07601
0.0757843
0.0753561
0.0747314
0.0739451
0.0730547
0.0720928
0.0710549
0.0699069
0.0685948
0.0670487
0.0651781
0.0628581
0.0598982
0.0559674
0.0503913
0.0413446
0.0206784
0.0780405
0.0778281
0.0773796
0.0766595
0.0756689
0.0744689
0.0731984
0.0719348
0.0706767
0.0693755
0.0679601
0.066347
0.0644374
0.062103
0.0591527
0.0552528
0.0497156
0.0407183
0.0203805
0.0809056
0.0805498
0.0798992
0.078864
0.0773953
0.0755671
0.0737337
0.0720524
0.0705097
0.0690208
0.0674827
0.0657907
0.0638344
0.0614815
0.0585417
0.0546763
0.0491753
0.0402131
0.020149
0.0847753
0.0843536
0.0835885
0.0822888
0.0802219
0.0773393
0.074648
0.0724056
0.0705198
0.0688225
0.0671558
0.0653843
0.0633829
0.0610159
0.0580959
0.0542777
0.0488157
0.0398753
0.0200123
0.0897941
0.089435
0.0887505
0.0874221
0.0847697
0.0798057
0.0758142
0.0728842
0.0706373
0.0687428
0.0669626
0.0651243
0.0630879
0.0607163
0.0578305
0.0540689
0.0486375
0.0397114
0.019959
0.0960895
0.0959455
0.095644
0.0948929
0.0924828
0.0824557
0.0768048
0.0732576
0.0707463
0.0687239
0.0668752
0.0649983
0.0629432
0.0605743
0.057725
0.0539822
0.0485093
0.0395054
0.0198036
)
;

boundaryField
{
    leftWall
    {
        type            kqRWallFunction;
        value           nonuniform List<scalar> 
50
(
0.00226245
0.0043028
0.00598093
0.00761933
0.00913709
0.0105201
0.0117709
0.0129599
0.0144517
0.0161398
0.0172519
0.0178858
0.0190568
0.0217839
0.0257285
0.0295243
0.0323779
0.0348003
0.0366399
0.0375949
0.0377134
0.037057
0.0357011
0.0337193
0.0312853
0.0285949
0.0256606
0.0225763
0.0193221
0.0160555
0.0130394
0.0104997
0.00875699
0.00785453
0.00753242
0.00753926
0.00775412
0.00812125
0.00862771
0.00928034
0.0100957
0.0111036
0.0123519
0.0139142
0.0159068
0.018539
0.0222781
0.0283462
0.0412023
0.0860943
)
;
    }
    rightWall
    {
        type            kqRWallFunction;
        value           nonuniform List<scalar> 
50
(
0.00383056
0.00678056
0.00928791
0.0122201
0.0151248
0.0180937
0.0209399
0.0235842
0.0277079
0.0311109
0.0325793
0.0315138
0.0283052
0.0251983
0.0222916
0.0206897
0.0208166
0.022033
0.0217842
0.0197434
0.0164399
0.0130636
0.0122936
0.0139318
0.0160316
0.0179245
0.0192387
0.0199919
0.02047
0.0209241
0.0214561
0.0219888
0.0223722
0.0226412
0.0228063
0.0228547
0.0227866
0.0226398
0.0224623
0.0222614
0.0219359
0.0215009
0.0212173
0.0209835
0.0206784
0.0203805
0.020149
0.0200123
0.019959
0.0198036
)
;
    }
    lowerWall
    {
        type            kqRWallFunction;
        value           nonuniform List<scalar> 
62
(
0.00226245
0.00562093
0.00848303
0.0106845
0.0124892
0.0140744
0.0155058
0.0168102
0.0179882
0.0190238
0.0198935
0.0205698
0.0210265
0.0212387
0.0211995
0.0209082
0.020303
0.0193094
0.017718
0.0155848
0.0129734
0.00931398
0.00506837
0.00506837
0.010939
0.0156756
0.0210886
0.0269991
0.0341367
0.045776
0.0718523
0.121055
0.116737
0.119231
0.128403
0.0105359
0.0193634
0.0226703
0.0249373
0.0298553
0.0420048
0.0743531
0.117145
0.0105359
0.0234458
0.0374107
0.0441524
0.0451841
0.0434521
0.0403304
0.0363403
0.0319718
0.0279909
0.0239171
0.0196456
0.0156195
0.0124473
0.0106818
0.00954998
0.00802392
0.00596786
0.00383056
)
;
    }
    atmosphere
    {
        type            inletOutlet;
        inletValue      uniform 0.1;
        value           nonuniform List<scalar> 
46
(
0.1
0.1
0.1
0.1
0.1
0.1
0.1
0.1
0.1
0.1
0.1
0.1
0.1
0.1
0.1
0.1
0.1
0.1
0.1
0.1
0.1
0.1
0.1
0.1
0.1
0.1
0.1
0.1
0.1
0.1
0.1
0.1
0.0824557
0.0768048
0.0732576
0.0707463
0.0687239
0.0668752
0.0649983
0.0629432
0.0605743
0.057725
0.0539822
0.0485093
0.0395054
0.0198036
)
;
    }
    defaultFaces
    {
        type            empty;
    }
}


// ************************************************************************* //
