/*--------------------------------*- C++ -*----------------------------------*\
| =========                 |                                                 |
| \\      /  F ield         | OpenFOAM: The Open Source CFD Toolbox           |
|  \\    /   O peration     | Version:  2.3.0                                 |
|   \\  /    A nd           | Web:      www.OpenFOAM.org                      |
|    \\/     M anipulation  |                                                 |
\*---------------------------------------------------------------------------*/
FoamFile
{
    version     2.0;
    format      ascii;
    class       volScalarField;
    location    "1.85";
    object      nut;
}
// * * * * * * * * * * * * * * * * * * * * * * * * * * * * * * * * * * * * * //

dimensions      [0 2 -1 0 0 0 0];

internalField   nonuniform List<scalar> 
2268
(
4.31004e-05
4.97781e-05
6.10169e-05
6.84465e-05
7.39623e-05
7.84679e-05
8.23064e-05
8.56499e-05
8.85743e-05
9.11015e-05
9.32234e-05
9.49098e-05
9.61195e-05
9.67992e-05
9.69878e-05
9.65556e-05
9.53856e-05
9.32787e-05
8.95566e-05
8.41997e-05
7.69618e-05
6.54167e-05
4.80133e-05
9.26248e-05
0.000402503
0.000548088
0.000641659
0.000711301
0.000766743
0.00081306
0.000852963
0.000887853
0.000918352
0.000944598
0.0009664
0.000983411
0.000995128
0.000999883
0.000993924
0.000976741
0.000945717
0.000889359
0.000821517
0.000740184
0.000581335
0.000148988
0.000108829
0.000663709
0.000986593
0.00120218
0.00136325
0.00149194
0.00159966
0.00169272
0.00177454
0.00184677
0.00190993
0.00196371
0.00200727
0.0020392
0.00205632
0.0020528
0.00202447
0.00196348
0.0018535
0.00169691
0.00146871
0.00103074
0.000178252
0.000122557
0.000825029
0.00130254
0.00163308
0.00188396
0.00208645
0.00225703
0.00240504
0.00253571
0.00265172
0.00275411
0.00284265
0.0029162
0.00297251
0.00300709
0.00301246
0.00298064
0.00289894
0.00274658
0.00250443
0.00211109
0.00138633
0.000206636
0.000133821
0.000932281
0.00153149
0.0019609
0.00229284
0.00256386
0.00279386
0.00299432
0.00317191
0.00333026
0.00347104
0.00359433
0.00369892
0.00378191
0.0038375
0.00385635
0.00382696
0.0037324
0.00354637
0.00322891
0.00268224
0.00169294
0.000234506
0.000143372
0.00101014
0.00170154
0.00221258
0.00261491
0.00294734
0.00323155
0.00348035
0.00370143
0.00389931
0.00407633
0.0042331
0.0043686
0.00447939
0.00455835
0.00459393
0.00457123
0.0044697
0.00425812
0.00388049
0.00320764
0.00198665
0.000264547
0.000151361
0.00107071
0.00183149
0.00240861
0.00287097
0.00325747
0.00359027
0.00388281
0.00414346
0.0043775
0.00458806
0.00477642
0.00494193
0.00508081
0.00518451
0.00523889
0.00522573
0.0051219
0.00489384
0.00447734
0.00372043
0.00230654
0.000308545
0.000158497
0.00111997
0.00193366
0.0025641
0.00307739
0.00351121
0.00388726
0.00421902
0.00451531
0.00478209
0.00502329
0.00524103
0.00543521
0.00560181
0.0057308
0.0058051
0.00580326
0.00570111
0.00546705
0.0050394
0.00426272
0.00273775
0.000390869
6.93885e-05
0.000102402
0.000128446
0.00013935
0.000141211
0.000138935
0.000134638
0.000128433
0.000120472
0.000112578
0.0001043
9.49955e-05
8.49866e-05
7.52082e-05
6.83345e-05
6.4246e-05
5.91609e-05
5.11967e-05
5.79856e-05
0.000220719
0.00073647
0.00104262
0.00118416
0.00122416
0.00120629
0.00115692
0.00108488
0.000999138
0.000895241
0.000779164
0.000659971
0.000570088
0.000517005
0.000511595
0.000521964
0.00049969
0.000428155
0.000129393
0.000238295
0.00116228
0.00172567
0.00205483
0.00220233
0.00222576
0.00216929
0.00205378
0.00189927
0.00172004
0.00151425
0.00128853
0.00109658
0.000987891
0.000974089
0.000988287
0.000934309
0.000743775
0.000151693
0.000248942
0.00135834
0.00211649
0.0026255
0.00289566
0.00298542
0.00295067
0.00282356
0.00263158
0.00240546
0.002145
0.00185314
0.00158937
0.00143488
0.00140425
0.00140231
0.00130081
0.000980788
0.000174235
0.00027145
0.00143582
0.00236105
0.00302959
0.00341265
0.00356787
0.0035619
0.0034374
0.00322778
0.00297386
0.00268233
0.00235472
0.00204904
0.00186129
0.00180908
0.00177791
0.00162015
0.00117598
0.000193905
0.000322058
0.00150119
0.00257507
0.00337625
0.00384465
0.00404679
0.00406196
0.00394169
0.003724
0.00345495
0.00314816
0.00280575
0.00248084
0.00227064
0.00219309
0.00212448
0.00190612
0.00134507
0.000211781
0.000429634
0.00162633
0.00285249
0.00374406
0.00425289
0.00447148
0.00449184
0.00437077
0.00414851
0.00387268
0.00356126
0.00321762
0.00288883
0.00266414
0.00255791
0.00244641
0.00216596
0.00149627
0.000228163
0.000538668
0.00192865
0.00328615
0.00418205
0.00466971
0.00486912
0.00487663
0.0047479
0.00452127
0.0042443
0.00393556
0.00359915
0.00327595
0.00304178
0.00290372
0.00274486
0.00240212
0.00163216
0.000242295
0.000167004
0.00118442
0.00206073
0.00275766
0.00333805
0.00383661
0.00427317
0.00466053
0.00500769
0.00532135
0.00560669
0.00586721
0.00610399
0.00631297
0.00648138
0.00658727
0.00660462
0.00651087
0.00628541
0.00588901
0.00522375
0.00408182
0.00221065
0.000175806
0.00123823
0.00217273
0.00293755
0.00358973
0.00415862
0.004661
0.00510867
0.00551088
0.00587548
0.0062093
0.00651791
0.00680431
0.0070649
0.00728407
0.0074316
0.00747617
0.00740547
0.00722868
0.00695546
0.0065773
0.00605723
0.00531804
0.000181061
0.00125094
0.00224202
0.00307473
0.00379352
0.00442355
0.00498086
0.00547764
0.00592434
0.00633019
0.00670336
0.00705099
0.00737839
0.00768347
0.0079485
0.00813292
0.00820014
0.00815451
0.00803592
0.00788028
0.00771138
0.00753908
0.00734808
0.000184488
0.00122009
0.00227617
0.00319068
0.00397976
0.00466731
0.00527284
0.00581045
0.00629332
0.00673366
0.00714029
0.00752062
0.00788042
0.00822093
0.00852843
0.00874184
0.00882483
0.00880931
0.00875663
0.00868971
0.00863947
0.00860984
0.00859802
0.000191209
0.00122337
0.0023022
0.00328505
0.00415044
0.00489992
0.00555399
0.00612759
0.00663696
0.00710077
0.0075315
0.00793212
0.00830603
0.00865995
0.00898897
0.00925925
0.00938754
0.00942094
0.00942349
0.00940255
0.00941337
0.00940424
0.00932538
0.00020326
0.00125253
0.00234141
0.00337924
0.00432293
0.00513468
0.00582893
0.00642886
0.00695684
0.00743626
0.00788205
0.00829263
0.00866909
0.00901429
0.0093275
0.00959039
0.00976685
0.00989173
0.00988095
0.00977253
0.00969199
0.00965827
0.00951404
0.000219654
0.00130713
0.00249104
0.00357998
0.0045391
0.00537425
0.00609514
0.00672034
0.00726813
0.00775984
0.00821327
0.00862637
0.00899452
0.00931115
0.00956188
0.00975195
0.00989675
0.0100295
0.0100283
0.00988935
0.00975578
0.00970445
0.00963975
0.00023504
0.00154338
0.00282897
0.00392492
0.00486915
0.00569088
0.00640655
0.00703061
0.00758015
0.00807321
0.00852259
0.00892617
0.00927118
0.00954582
0.00973541
0.00985294
0.00992055
0.00996573
0.00996597
0.00989314
0.00982892
0.00982915
0.00981901
0.000246495
0.00176646
0.00318163
0.00431983
0.00526186
0.00606489
0.0067596
0.00736506
0.00789784
0.00837336
0.00880124
0.0091778
0.0094891
0.00972057
0.00986289
0.00992846
0.00993879
0.00991821
0.0099079
0.00988649
0.00988652
0.00994656
0.00998224
0.000255688
0.00192148
0.00347049
0.00467719
0.00563635
0.0064301
0.00710408
0.00768498
0.00819144
0.00863799
0.00903295
0.00937279
0.00964808
0.0098453
0.0099616
0.0100064
0.00999755
0.00996206
0.009935
0.00991962
0.00993911
0.0100209
0.0100986
0.000263121
0.00203424
0.00368933
0.00495606
0.00594192
0.00673669
0.00739658
0.00795533
0.00843477
0.00884961
0.00920758
0.00950901
0.00975005
0.00992452
0.0100339
0.0100836
0.0100834
0.0100479
0.0100035
0.00997633
0.0099895
0.010056
0.0101371
0.000267168
0.00211418
0.00384524
0.00515872
0.00616668
0.00696417
0.00761374
0.00815423
0.00861007
0.00899674
0.00932298
0.0095926
0.00980654
0.00996678
0.010076
0.0101355
0.010147
0.0101164
0.0100647
0.0100257
0.0100214
0.0100585
0.0101073
0.000268186
0.00216258
0.00393884
0.00528194
0.00630531
0.00710579
0.00774878
0.00827604
0.00871395
0.00907919
0.00938217
0.00962947
0.00982588
0.00997665
0.0100843
0.0101478
0.0101652
0.0101399
0.0100882
0.0100408
0.0100179
0.0100255
0.0100408
0.000266456
0.00218043
0.00397301
0.00532827
0.00635929
0.00716188
0.00780157
0.00832115
0.00874809
0.00910016
0.00938908
0.00962314
0.00980901
0.00995252
0.0100559
0.0101177
0.0101362
0.0101142
0.0100644
0.0100124
0.00997551
0.0099601
0.00995173
0.000262194
0.00216899
0.00395154
0.00530255
0.00633317
0.00713618
0.00777525
0.00829256
0.00871569
0.00906277
0.00934612
0.00957453
0.00975495
0.00989306
0.00999121
0.0100491
0.0100666
0.0100471
0.010001
0.0099477
0.00990315
0.00987396
0.00985246
0.000255461
0.00212978
0.00387851
0.00521032
0.00623275
0.00703398
0.00767435
0.00819409
0.00861979
0.00896913
0.00925415
0.00948335
0.00966314
0.00979898
0.00989385
0.00994912
0.00996647
0.0099504
0.00991
0.00985924
0.00981306
0.00977813
0.00975126
0.000247096
0.00206377
0.00375796
0.00505733
0.00606438
0.00686137
0.00750416
0.00802997
0.00846345
0.00882102
0.00911382
0.00934966
0.00953419
0.00967257
0.00976853
0.00982501
0.00984542
0.00983516
0.00980261
0.00975881
0.00971583
0.00968093
0.00965366
0.000236946
0.00196965
0.003593
0.00484939
0.00583488
0.00662518
0.00727089
0.00780538
0.00825064
0.00862126
0.00892707
0.00917499
0.00937006
0.00951686
0.00961977
0.00968292
0.00971101
0.00971011
0.00968815
0.00965455
0.00961879
0.00958782
0.00956281
0.000225084
0.00185389
0.00338865
0.00459302
0.00555199
0.00633348
0.00698225
0.00752726
0.00798733
0.00837483
0.00869809
0.00896304
0.00917421
0.00933552
0.00945164
0.0095274
0.00956828
0.00958075
0.00957237
0.00955142
0.00952583
0.00950155
0.00948083
0.000211823
0.00172339
0.00315373
0.00429608
0.00522471
0.00599604
0.00664808
0.007205
0.00768214
0.0080895
0.00843381
0.00871995
0.00895192
0.00913334
0.00926838
0.00936223
0.00942069
0.00945032
0.00945831
0.00945209
0.00943854
0.00942299
0.00940815
0.000196928
0.00157694
0.00289283
0.00396891
0.00486403
0.00562511
0.006281
0.00685096
0.00734682
0.00777617
0.00814416
0.00845466
0.00871101
0.0089166
0.0090752
0.00919155
0.00927148
0.00932135
0.00934797
0.00935812
0.00935802
0.00935271
0.00934508
0.000180377
0.00139268
0.00260278
0.00362122
0.00448572
0.00523649
0.0058972
0.00648113
0.00699657
0.007449
0.00784211
0.00817878
0.0084617
0.00869386
0.00887878
0.00902072
0.00912478
0.009197
0.00924378
0.00927149
0.00928602
0.00929203
0.00929265
0.000163371
0.00120647
0.00231535
0.00327467
0.00411021
0.00485182
0.0055173
0.00611564
0.00665027
0.00712541
0.00754352
0.00790652
0.00821647
0.00847586
0.00868784
0.0088563
0.00898577
0.00908153
0.00914945
0.0091955
0.00922526
0.00924323
0.00925277
0.000147031
0.00107329
0.00207721
0.00297353
0.00377669
0.00450572
0.00517156
0.00577926
0.00633015
0.00682561
0.00726659
0.00765409
0.00798951
0.00827483
0.00851275
0.00870675
0.00886095
0.00898012
0.00906945
0.00913418
0.00917926
0.00920926
0.00922784
0.000133993
0.00100008
0.00191493
0.00274973
0.00351769
0.00422976
0.00489087
0.00550232
0.00606338
0.00657339
0.00703198
0.0074393
0.00779611
0.00810387
0.0083648
0.00858185
0.00875865
0.00889936
0.00900858
0.00909099
0.00915111
0.009193
0.00922015
0.000126158
0.00097104
0.0018323
0.00262088
0.00335712
0.00404979
0.00470081
0.00530913
0.00587268
0.00638951
0.00685835
0.00727867
0.00765069
0.00797538
0.00825446
0.00849034
0.00868605
0.00884516
0.00897162
0.00906955
0.00914298
0.00919567
0.00923091
0.000122913
0.000972633
0.00182172
0.00258908
0.0033041
0.00397886
0.00461609
0.00521477
0.00577269
0.00628768
0.00675815
0.00718325
0.00756282
0.00789744
0.00818838
0.0084375
0.00864725
0.00882057
0.00896072
0.00907122
0.00915557
0.00921714
0.00925894
0.000122615
0.000997428
0.00187004
0.00264251
0.00335081
0.00401303
0.00463576
0.00522022
0.00576562
0.00627074
0.00673438
0.00715578
0.00753477
0.0078717
0.00816749
0.00842355
0.00864178
0.00882446
0.00897422
0.00909391
0.00918645
0.00925472
0.00930138
0.000124307
0.00103963
0.00196056
0.00275957
0.00347557
0.00413299
0.00474342
0.00531193
0.0058406
0.00632988
0.0067797
0.00718997
0.00756085
0.00789276
0.0081865
0.00844316
0.00866417
0.00885125
0.00900641
0.00913183
0.00922983
0.00930272
0.00935272
0.000127385
0.00109289
0.00207578
0.00291501
0.00364998
0.00431017
0.00491262
0.00546665
0.00597737
0.00644756
0.00687886
0.00727239
0.00762905
0.0079497
0.00823525
0.0084867
0.00870517
0.00889197
0.00904854
0.00917646
0.00927742
0.00935317
0.00940542
0.000131485
0.00115159
0.0021999
0.00308533
0.00384653
0.00451657
0.00511642
0.00565908
0.00615277
0.00660291
0.00701322
0.0073864
0.00772446
0.00802902
0.00830138
0.0085427
0.00875401
0.00893635
0.00909073
0.00921825
0.00932004
0.00939726
0.00945108
0.00013652
0.00121263
0.00232403
0.00325643
0.00404754
0.00473221
0.00533392
0.00586848
0.00634695
0.00677736
0.00716567
0.0075164
0.00783295
0.00811792
0.00837328
0.00860053
0.00880082
0.0089751
0.00912416
0.00924871
0.00934942
0.00942695
0.00948195
0.000142491
0.00127481
0.00244469
0.00342266
0.00424527
0.00494749
0.00555399
0.00608271
0.00654725
0.00695823
0.00732395
0.00765085
0.00794388
0.00820676
0.00844224
0.00865234
0.00883849
0.0090017
0.00914267
0.00926189
0.00935972
0.00943642
0.00949215
0.00014948
0.00133933
0.00256453
0.00358741
0.00444263
0.00516376
0.00577595
0.00629904
0.00674928
0.00713999
0.00748193
0.00778353
0.00805128
0.00829007
0.00850345
0.008694
0.00886347
0.00901306
0.0091435
0.0092552
0.00934831
0.00942281
0.00947855
0.000157656
0.00140937
0.00269156
0.00376188
0.00465144
0.00539143
0.00600762
0.00652246
0.00695549
0.00732318
0.00763887
0.00791302
0.00815356
0.00836641
0.00855585
0.00872491
0.00887568
0.00900953
0.00912728
0.00922934
0.0093158
0.00938649
0.00944102
0.000167284
0.00148967
0.00283789
0.00396311
0.00488982
0.00564675
0.00626197
0.00676245
0.00717238
0.00751204
0.00779755
0.00804126
0.00825232
0.00843742
0.00860132
0.00874736
0.00887784
0.00899423
0.00909745
0.00918794
0.00926578
0.00933074
0.00938238
0.000178778
0.00158629
0.00301941
0.00421308
0.00518014
0.00594876
0.00655352
0.00702939
0.00740719
0.00771174
0.00796194
0.00817165
0.00835083
0.00850651
0.00864361
0.00876554
0.00887458
0.00897227
0.00905951
0.00913676
0.00920413
0.0092614
0.0093081
0.000192876
0.00170733
0.00325848
0.00454085
0.00554889
0.00631716
0.00689522
0.00733135
0.00766508
0.00792601
0.00813524
0.00830743
0.00845263
0.00857768
0.00868726
0.00878453
0.0088716
0.00894988
0.0090202
0.009083
0.00913838
0.00918616
0.00922589
0.000211213
0.00186518
0.00359276
0.00498934
0.00602825
0.00677042
0.00729555
0.00767138
0.00794697
0.00815548
0.00831865
0.00845064
0.00856065
0.00865472
0.00873683
0.00880962
0.00887485
0.00893367
0.00898677
0.0090345
0.00907695
0.00911394
0.00914506
0.00023794
0.00209346
0.00410088
0.00562978
0.00665742
0.00732189
0.00775453
0.00804499
0.00824826
0.00839708
0.008511
0.00860184
0.0086769
0.00874078
0.00879642
0.00884575
0.00889002
0.00893004
0.00896631
0.00899907
0.00902836
0.009054
0.00907564
0.00028672
0.00251194
0.00498381
0.00658584
0.00747558
0.00796917
0.00825769
0.00843806
0.0085587
0.00864461
0.00870932
0.00876047
0.00880258
0.00883837
0.00886957
0.00889726
0.00892217
0.00894473
0.00896524
0.00898382
0.00900046
0.00901505
0.00902728
0.000418087
0.00372735
0.00684802
0.00804088
0.00848014
0.00867108
0.00876926
0.00882685
0.00886422
0.00889048
0.00891018
0.00892576
0.00893863
0.00894961
0.00895922
0.00896778
0.0089755
0.00898251
0.00898889
0.00899468
0.00899986
0.00900437
0.00900811
0.000507145
0.000495759
0.000498804
0.000514583
0.00452339
0.00434054
0.00429321
0.00434867
0.00717578
0.00708281
0.00702131
0.00699152
0.00854212
0.0084792
0.00839702
0.00830732
0.00917886
0.00906803
0.00895536
0.00884683
0.00938672
0.00930483
0.0092208
0.0091337
0.00958382
0.00954261
0.00949172
0.00942824
0.00980335
0.0097861
0.00975677
0.00971014
0.00998899
0.00998366
0.00996549
0.00992652
0.0101122
0.0101076
0.0100871
0.010043
0.010162
0.010157
0.0101311
0.0100816
0.0101197
0.0101121
0.0100855
0.0100421
0.0100359
0.0100231
0.00999962
0.00996489
0.00993705
0.00992252
0.00990172
0.00987309
0.00983329
0.00981826
0.00979953
0.00977603
0.00973085
0.00971644
0.00969993
0.00968087
0.00963418
0.00962121
0.00960733
0.00959205
0.00954622
0.00953538
0.00952394
0.0095115
0.00946717
0.00945843
0.00944935
0.00943943
0.00939773
0.00939092
0.00938376
0.00937585
0.0093384
0.00933366
0.00932837
0.00932225
0.00929025
0.00928783
0.00928451
0.00928012
0.00925502
0.00925506
0.00925378
0.00925109
0.00923478
0.00923724
0.00923791
0.00923673
0.00923138
0.00923599
0.00923828
0.00923825
0.00924574
0.009252
0.00925541
0.00925602
0.00927678
0.00928428
0.00928829
0.00928897
0.00932125
0.00932952
0.0093338
0.00933418
0.00937387
0.00938255
0.00938681
0.00938677
0.00942748
0.00943646
0.00944072
0.00944037
0.00947408
0.00948355
0.00948813
0.00948791
0.00950612
0.00951644
0.00952184
0.00952236
0.00951774
0.00952925
0.00953597
0.00953792
0.00950552
0.00951837
0.00952675
0.00953062
0.00946886
0.00948288
0.00949291
0.00949884
0.00941008
0.0094247
0.0094359
0.0094436
0.00933422
0.0093485
0.00936002
0.00936869
0.00924879
0.00926161
0.00927231
0.00928081
0.00916328
0.00917359
0.00918233
0.00918943
0.00908828
0.00909541
0.0091014
0.00910622
0.00903428
0.00903813
0.00904126
0.00904361
0.00901016
0.00901124
0.00901205
0.00901256
0.00164792
0.00310162
0.00422514
0.00493458
0.00531265
0.00544374
0.00541266
0.00526922
0.00504565
0.00477447
0.00447799
0.00416195
0.00385656
0.00361084
0.00341668
0.00317478
0.00273364
0.00181924
0.000262636
0.00486878
0.00543521
0.00585576
0.00611439
0.00622018
0.00617284
0.00605014
0.00587134
0.00563994
0.00536861
0.00508057
0.00478002
0.00448436
0.0042173
0.00395152
0.00359735
0.00302934
0.00196746
0.000278008
0.0070115
0.00704687
0.00707289
0.0070541
0.00696168
0.00677796
0.00659437
0.00638916
0.00615036
0.00588301
0.00560316
0.00531287
0.00501472
0.00471144
0.00436187
0.00388054
0.00317347
0.00199271
0.000284572
0.00816168
0.0079738
0.00778788
0.00762404
0.00744601
0.00725919
0.00704632
0.00682591
0.00658702
0.00632791
0.00605442
0.00576293
0.00544036
0.0050737
0.00461679
0.00398562
0.00312828
0.00188699
0.000281051
0.0086765
0.0084347
0.00822158
0.00802978
0.0078493
0.00764665
0.00742223
0.00719372
0.00696036
0.00670999
0.00644136
0.00614063
0.00577276
0.00530463
0.00469646
0.00391082
0.00293666
0.00169435
0.00026599
0.00898321
0.008758
0.00854356
0.00834005
0.00814912
0.00796579
0.00775351
0.00752196
0.00728129
0.00702715
0.00676331
0.00646322
0.00605018
0.00546184
0.00470358
0.00376449
0.00265273
0.00140381
0.000251349
0.00929778
0.00907046
0.00884772
0.00863529
0.00842838
0.00822503
0.00801014
0.00777494
0.00751995
0.0072516
0.00697354
0.00668533
0.0063029
0.00561784
0.00473583
0.00367344
0.00246313
0.00123699
0.00023631
0.00959462
0.0093605
0.00913079
0.00890635
0.00868103
0.00845146
0.00820965
0.00794817
0.0076679
0.00737573
0.00707538
0.00675711
0.00637927
0.00573032
0.00482137
0.00372381
0.00246459
0.00124441
0.000225277
0.00980647
0.00957345
0.0093441
0.00911757
0.00888193
0.00862899
0.00835335
0.00805431
0.0077368
0.00741121
0.00708086
0.00672931
0.00629469
0.0056988
0.00488112
0.0038664
0.00268624
0.00138636
0.000221592
0.00992148
0.0096959
0.00946926
0.00924087
0.00899925
0.00873405
0.00843668
0.00810532
0.00774794
0.00737807
0.00700636
0.00662873
0.00620779
0.00564402
0.00488975
0.00395938
0.00286853
0.00159966
0.000226084
0.00996495
0.00975506
0.00953953
0.00931432
0.00906775
0.00878924
0.00847083
0.00811079
0.00771503
0.00729906
0.00688035
0.00646913
0.00604193
0.0054976
0.00478608
0.00391022
0.00288488
0.00165155
0.000227978
0.00994605
0.00976284
0.00956624
0.00935106
0.00910597
0.00882012
0.00848465
0.00809765
0.00766504
0.00720128
0.0067268
0.00626255
0.00579383
0.00523767
0.00453775
0.00368924
0.00270243
0.001517
0.000219955
0.0098892
0.00973696
0.00956338
0.00936342
0.00912675
0.00884217
0.00849903
0.00809421
0.00763204
0.00712373
0.00658926
0.00605401
0.00551361
0.00490792
0.00418551
0.00333858
0.00238056
0.00129535
0.000202878
0.00981328
0.00969064
0.00954119
0.00935972
0.00913717
0.00886255
0.00852313
0.00811335
0.00763442
0.0070928
0.00650459
0.00589323
0.0052639
0.00458332
0.00381716
0.00296032
0.00203779
0.00108124
0.000180767
0.00972934
0.00963247
0.00950628
0.00934485
0.00914014
0.00888195
0.00855693
0.00815532
0.00767442
0.00711663
0.00649436
0.00582484
0.00511737
0.00436271
0.00354904
0.00268065
0.00179419
0.000936906
0.00017275
0.00964456
0.00956857
0.00946327
0.00932182
0.00913675
0.00889863
0.00859483
0.00821209
0.00774305
0.00718857
0.0065587
0.00586572
0.00512032
0.00432721
0.00349057
0.00262371
0.00176092
0.000933158
0.000182479
0.0095635
0.00950335
0.00941573
0.00929301
0.0091278
0.00891112
0.00863094
0.0082732
0.00782746
0.00729403
0.00668084
0.00599824
0.00525843
0.00447266
0.00365275
0.00281172
0.00195938
0.00108031
0.000195452
0.00948848
0.00943985
0.00936656
0.00926057
0.00911431
0.00891881
0.00866244
0.00833178
0.00791655
0.00741591
0.00683528
0.00618451
0.00547607
0.00472282
0.00393702
0.00312415
0.00226635
0.00128323
0.00020653
0.00942057
0.00938032
0.00931835
0.00922672
0.0090976
0.00892195
0.00868855
0.00838512
0.00800268
0.00753951
0.00699827
0.0063882
0.0057197
0.00500285
0.00424429
0.00343724
0.00254135
0.00144769
0.000213938
0.00936074
0.00932683
0.00927369
0.00919383
0.00907943
0.00892149
0.00870935
0.00843198
0.00808159
0.0076549
0.00715402
0.00658531
0.0059555
0.00526919
0.00452406
0.00370025
0.00274055
0.00154505
0.000218372
0.00931009
0.00928143
0.00923498
0.00916436
0.00906189
0.00891893
0.00872556
0.00847195
0.00815043
0.00775755
0.00729423
0.00676337
0.00616716
0.00550373
0.00476179
0.00391176
0.00288918
0.00161123
0.000221522
0.00927057
0.00924593
0.00920459
0.00914062
0.0090472
0.00891623
0.00873842
0.00850485
0.00820859
0.0078459
0.00741568
0.00691751
0.00634899
0.00570215
0.00495838
0.00408205
0.00301265
0.0016782
0.000224574
0.00924389
0.00922206
0.00918391
0.00912419
0.00903675
0.00891436
0.00874887
0.0085322
0.00825746
0.00792043
0.00751819
0.00704715
0.00650079
0.0058661
0.00511897
0.00422104
0.00311779
0.00174138
0.000227914
0.00923146
0.00921134
0.00917461
0.00911683
0.00903266
0.00891578
0.0087591
0.00855543
0.0082983
0.00798245
0.00760298
0.00715365
0.00662451
0.00599891
0.00525002
0.00433757
0.00320604
0.0017867
0.000230992
0.00923423
0.00921457
0.00917763
0.00911978
0.00903653
0.00892248
0.0087715
0.00857716
0.00833324
0.00803375
0.00767225
0.00724025
0.00672514
0.00610751
0.00535823
0.00443514
0.0032808
0.00182469
0.000233177
0.00925236
0.00923181
0.00919305
0.00913331
0.00904891
0.00893534
0.00878731
0.00859903
0.00836443
0.00807702
0.00772912
0.00731049
0.00680647
0.00619558
0.00544677
0.00451585
0.00334306
0.00185577
0.000234725
0.00928476
0.00926201
0.00922003
0.00915683
0.00906954
0.00895443
0.00880695
0.00862185
0.0083932
0.0081141
0.00777595
0.0073672
0.00687161
0.00626611
0.00551803
0.00458132
0.00339355
0.0018797
0.000235674
0.00932874
0.00930284
0.00925663
0.00918883
0.00909731
0.00897905
0.00883015
0.00864581
0.00842022
0.0081462
0.00781447
0.00741251
0.00692294
0.00632146
0.00557411
0.00463323
0.00343364
0.0018979
0.000235976
0.00937992
0.00935055
0.00929974
0.00922683
0.00913034
0.00900787
0.00885608
0.00867056
0.00844565
0.008174
0.00784587
0.00744804
0.00696233
0.00636356
0.00561679
0.00467317
0.00346487
0.00191234
0.000235684
0.00943252
0.00940017
0.00934524
0.00926751
0.00916603
0.00903895
0.0088834
0.00869534
0.00846928
0.00819781
0.00787093
0.00747497
0.00699122
0.00639395
0.0056475
0.00470206
0.0034881
0.00192328
0.000235004
0.00947992
0.00944596
0.00938825
0.00930688
0.00920123
0.00906988
0.00891039
0.00871905
0.00849059
0.00821767
0.00789017
0.00749421
0.00701081
0.00641389
0.00566742
0.0047209
0.00350344
0.00192946
0.000234166
0.00951543
0.00948196
0.00942365
0.00934062
0.00923245
0.00909796
0.00893506
0.00874037
0.00850889
0.00823343
0.00790393
0.0075065
0.00702208
0.00642453
0.0056776
0.00473041
0.00351077
0.00193026
0.000233183
0.00953337
0.0095028
0.00944655
0.00936451
0.00925617
0.00912041
0.00895535
0.0087579
0.00852337
0.00824484
0.00791245
0.00751248
0.00702599
0.00642692
0.00567912
0.00473154
0.00351137
0.00192793
0.000231526
0.00952957
0.00950414
0.00945278
0.00937477
0.00926917
0.00913464
0.00896929
0.00877029
0.00853327
0.00825167
0.007916
0.00751282
0.00702349
0.00642224
0.00567314
0.00472531
0.00350595
0.00192394
0.000229253
0.00950184
0.00948318
0.00943933
0.00936846
0.00926884
0.00913851
0.0089753
0.00877647
0.00853802
0.00825386
0.00791494
0.0075083
0.00701572
0.00641182
0.00566101
0.0047127
0.00349417
0.00191458
0.000227675
0.0094504
0.0094392
0.0094047
0.00934379
0.00925351
0.00913069
0.00897242
0.00877586
0.00853742
0.00825158
0.00790988
0.00749992
0.00700401
0.00639723
0.00564444
0.0046953
0.00347721
0.00190027
0.000226508
0.0093782
0.00937382
0.00934926
0.00930046
0.00922267
0.00911087
0.00896058
0.00876862
0.00853183
0.00824542
0.0079017
0.00748889
0.00698992
0.00638041
0.00562565
0.0046756
0.00345783
0.00188404
0.00022499
0.00929117
0.00929158
0.00927585
0.00923985
0.00917693
0.00907972
0.00894071
0.00875572
0.00852221
0.00823642
0.00789157
0.00747664
0.00697521
0.0063635
0.00560728
0.00465674
0.0034395
0.00186878
0.00022349
0.00919848
0.00920053
0.00919061
0.00916539
0.00911759
0.00903853
0.00891444
0.00873889
0.00851015
0.00822602
0.00788092
0.00746471
0.00696166
0.00634862
0.0055919
0.00464188
0.00342562
0.00185703
0.000222355
0.00911221
0.00911271
0.00910417
0.00908386
0.0090468
0.00898878
0.00888376
0.00872029
0.00849762
0.00821591
0.00787125
0.00745452
0.0069507
0.00633733
0.00558138
0.00463323
0.0034184
0.00185019
0.000221742
0.00904612
0.00904391
0.009034
0.00901209
0.00897329
0.00893396
0.00885155
0.00870254
0.00848674
0.00820776
0.00786393
0.00744721
0.00694326
0.00633032
0.00557622
0.00463109
0.00341746
0.00184782
0.000221551
0.00901283
0.00901066
0.00900403
0.00898675
0.00893995
0.00888595
0.00882517
0.0086898
0.00847984
0.00820305
0.00785996
0.00744345
0.00693963
0.00632725
0.00557506
0.00463313
0.00341842
0.00184518
0.000220481
)
;

boundaryField
{
    leftWall
    {
        type            nutkWallFunction;
        Cmu             0.09;
        kappa           0.41;
        E               9.8;
        value           nonuniform List<scalar> 
50
(
8.17442e-06
1.11249e-05
1.29962e-05
1.45583e-05
1.58462e-05
1.69201e-05
1.78259e-05
1.86388e-05
1.96026e-05
2.06319e-05
2.13848e-05
2.30369e-05
2.38026e-05
2.12989e-05
2.38792e-05
2.61575e-05
2.77627e-05
2.90636e-05
3.00176e-05
3.05022e-05
3.05622e-05
3.02306e-05
2.95347e-05
2.84901e-05
2.71579e-05
2.56157e-05
2.38489e-05
2.20868e-05
1.98223e-05
1.71735e-05
1.44157e-05
1.19358e-05
1.00288e-05
8.95508e-06
8.55483e-06
8.56343e-06
8.83133e-06
9.27944e-06
9.879e-06
1.06226e-05
1.15108e-05
1.25538e-05
1.37733e-05
1.52043e-05
1.69023e-05
1.89691e-05
2.16358e-05
2.5469e-05
3.22724e-05
4.93963e-05
)
;
    }
    rightWall
    {
        type            nutkWallFunction;
        Cmu             0.09;
        kappa           0.41;
        E               9.8;
        value           nonuniform List<scalar> 
50
(
1.16335e-05
1.52119e-05
1.76102e-05
1.99955e-05
2.20629e-05
2.39604e-05
2.5624e-05
2.70613e-05
2.91357e-05
3.07274e-05
3.14499e-05
3.1072e-05
2.95801e-05
2.80306e-05
2.65668e-05
2.68697e-05
2.54631e-05
2.56216e-05
2.53603e-05
2.37919e-05
2.13207e-05
1.8217e-05
1.74439e-05
1.89458e-05
2.03729e-05
2.15346e-05
2.26141e-05
2.32259e-05
2.39119e-05
2.43729e-05
2.47762e-05
2.51742e-05
2.54567e-05
2.56505e-05
2.57616e-05
2.57955e-05
2.57449e-05
2.56366e-05
2.55055e-05
2.53472e-05
2.49435e-05
2.46534e-05
2.44388e-05
2.4064e-05
2.37519e-05
2.35202e-05
2.3339e-05
2.32314e-05
2.31899e-05
2.30674e-05
)
;
    }
    lowerWall
    {
        type            nutkWallFunction;
        Cmu             0.09;
        kappa           0.41;
        E               9.8;
        value           nonuniform List<scalar> 
62
(
3.8251e-06
6.1177e-06
7.4976e-06
8.38835e-06
9.04464e-06
9.57875e-06
1.00329e-05
1.0427e-05
1.07684e-05
1.10585e-05
1.12954e-05
1.14756e-05
1.15955e-05
1.16507e-05
1.16405e-05
1.15646e-05
1.14049e-05
1.11369e-05
1.06913e-05
1.00575e-05
9.21165e-06
7.84747e-06
5.80844e-06
5.80844e-06
1.723e-05
2.03531e-05
2.33349e-05
2.61406e-05
2.91088e-05
3.32909e-05
4.08996e-05
5.21199e-05
5.1265e-05
5.17609e-05
5.35373e-05
8.33168e-06
2.47183e-05
2.65743e-05
2.77615e-05
3.01477e-05
3.52425e-05
4.57282e-05
5.62453e-05
8.33168e-06
1.22078e-05
1.51995e-05
1.64195e-05
1.65969e-05
1.62978e-05
1.57415e-05
1.49946e-05
1.41231e-05
1.32694e-05
1.23228e-05
1.12285e-05
1.0068e-05
9.03042e-06
8.38772e-06
7.94391e-06
7.29621e-06
6.30326e-06
5.03891e-06
)
;
    }
    atmosphere
    {
        type            calculated;
        value           nonuniform List<scalar> 
46
(
0.009
0.009
0.009
0.009
0.009
0.009
0.009
0.009
0.009
0.009
0.009
0.009
0.009
0.009
0.009
0.009
0.009
0.009
0.009
0.009
0.009
0.009
0.009
0.009
0.009
0.009
0.009
0.009
0.009
0.009
0.009
0.009
0.00888595
0.00882517
0.0086898
0.00847984
0.00820305
0.00785996
0.00744345
0.00693963
0.00632725
0.00557506
0.00463313
0.00341842
0.00184518
0.000220481
)
;
    }
    defaultFaces
    {
        type            empty;
    }
}


// ************************************************************************* //
