/*--------------------------------*- C++ -*----------------------------------*\
| =========                 |                                                 |
| \\      /  F ield         | OpenFOAM: The Open Source CFD Toolbox           |
|  \\    /   O peration     | Version:  2.3.0                                 |
|   \\  /    A nd           | Web:      www.OpenFOAM.org                      |
|    \\/     M anipulation  |                                                 |
\*---------------------------------------------------------------------------*/
FoamFile
{
    version     2.0;
    format      ascii;
    class       volScalarField;
    location    "1.85";
    object      p_rgh;
}
// * * * * * * * * * * * * * * * * * * * * * * * * * * * * * * * * * * * * * //

dimensions      [1 -1 -2 0 0 0 0];

internalField   nonuniform List<scalar> 
2268
(
736.161
736.965
738.794
740.838
742.764
744.553
746.279
748.055
750.009
752.275
754.972
758.189
761.98
766.364
771.334
776.93
783.131
789.959
796.54
803.983
811.157
817.172
822.042
736.069
736.547
738.124
740.059
741.994
743.846
745.649
747.491
749.495
751.793
754.514
757.762
761.612
766.106
771.286
777.174
783.817
791.326
798.058
806.122
812.499
816.768
821.154
735.829
736.388
737.618
739.325
741.181
743.041
744.886
746.775
748.815
751.14
753.887
757.175
761.107
765.75
771.163
777.402
784.533
792.708
800.223
807.642
812.903
817.021
821.521
735.429
736.299
737.371
738.868
740.605
742.411
744.234
746.112
748.141
750.453
753.198
756.509
760.51
765.284
770.889
777.389
784.85
793.358
802.992
807.739
813.202
817.952
824.495
734.883
736.086
737.207
738.599
740.239
741.971
743.73
745.545
747.511
749.762
752.466
755.77
759.816
764.691
770.437
777.1
784.73
793.31
802.92
810.952
816.51
819.751
827.195
734.208
735.694
736.992
738.388
739.981
741.647
743.321
745.036
746.891
749.031
751.651
754.913
758.982
763.94
769.796
776.564
784.268
792.818
802.086
810.631
816.254
821.657
830.882
733.418
735.139
736.669
738.153
739.753
741.375
742.959
744.55
746.253
748.234
750.727
753.914
757.988
763.021
768.968
775.799
783.516
791.988
800.947
809.127
814.834
822.694
835.546
732.508
734.394
736.169
737.809
739.464
741.072
742.581
744.045
745.58
747.374
749.71
752.807
756.888
761.996
768.001
774.807
782.409
790.681
799.257
806.953
812.272
819.311
835.125
680.128
683.966
709.733
737.711
752.324
755.054
753.857
752.602
753.752
759.166
768.233
779.571
790.656
794.432
795.55
798.424
803.652
811.36
818.412
678.965
676.058
695.84
722.237
737.056
741.64
741.811
744.301
750.995
758.982
769.119
782.084
794.888
799.263
797.648
799.91
803.38
808.855
818.52
676.172
667.658
693.496
718.038
731.731
733.433
734.699
737.456
743.589
759.207
770.694
784.57
798.369
807.917
799.415
800.871
803.949
810.11
819.563
674.349
671.103
696.4
714.734
728.238
739.174
739.792
734.867
741.121
758.872
771.415
785.523
799.654
809.349
810.507
800.732
803.71
813.015
821.845
673.013
679.372
697.521
711.795
723.072
734.191
745.888
752.24
720.244
729.876
752.025
776.734
798.243
808.409
816.184
812.895
810.132
818.483
824.615
666.414
684.626
700.986
710.361
719.338
730.753
744.816
759.396
711.129
665.244
672.244
684.929
713.395
760.622
809.554
814.219
817.47
819.869
827.676
666.006
692.637
705.547
709.162
716.081
728.043
745.17
763.809
684.429
661.456
670.195
677.729
684.785
689.411
739.465
811.508
817.161
820.427
830.558
659.291
698.334
708.511
705.94
710.6
724.993
746.617
769.461
708.414
659.035
669.245
675.415
681.273
685.443
694.803
813.048
816.629
820.386
832.582
730.848
732.859
735.084
737.145
739.005
740.632
742.017
743.244
744.458
745.889
747.945
750.896
755.031
760.325
766.42
773.057
780.239
787.899
795.626
802.229
805.635
803.523
800.572
658.835
665.824
678.862
689.847
697.576
701.747
702.643
701.283
698.861
696.213
697.754
702.942
713.687
729.98
748.598
765.578
777.832
785.933
792.933
798.29
800.085
795.06
750.183
138.833
149.012
167.359
187.098
199.69
205.417
203.968
199.153
194.328
190.882
194.013
201.963
219.827
251.868
295.831
354.856
432.958
525.189
613.394
674.016
692.852
682.904
652.92
3.65301
3.57902
3.42454
3.32205
3.16967
3.00458
2.95995
3.07222
3.4326
4.08932
4.72268
5.0258
4.69365
3.32977
1.72945
1.06236
0.917251
0.96347
3.01434
19.4194
37.7607
68.9146
60.6808
5.57608
6.47953
7.92978
12.9015
17.1322
17.2663
13.202
7.63574
8.9641
16.013
19.1985
19.3607
18.9804
11.0018
1.52705
1.23944
1.18285
1.18689
1.18721
1.27247
2.37618
5.90094
10.7775
0.214309
0.493418
1.01151
0.199406
0.187127
2.15527
7.7446
14.4734
16.5003
17.0759
19.17
19.4668
19.4136
12.8967
2.05128
1.76375
2.14221
1.22965
2.27959
4.14775
2.80887
5.60628
34.2547
0.195298
0.193012
0.185204
0.182236
0.176265
0.160813
0.127199
0.084408
0.0697681
0.0929949
2.20333
4.82723
3.57498
3.86404
3.01957
3.491
3.39194
1.18512
2.27781
4.06074
4.01736
23.8191
54.3409
0.17712
0.175512
0.175273
0.174513
0.16617
0.155628
0.148369
0.141546
0.128239
0.120152
0.121882
0.157013
1.60468
3.45308
3.52591
3.51673
3.1528
0.885205
1.5449
2.97976
2.51468
10.5788
53.5038
0.161856
0.160029
0.165134
0.162346
0.154502
0.146321
0.16318
0.152804
0.124989
0.107895
0.16524
0.630893
1.76221
2.18685
2.15051
1.18955
0.902803
0.473003
0.748827
2.12238
1.01339
0.220174
6.94116
0.150692
0.146256
0.145685
0.144894
0.136606
0.134838
0.141692
0.136564
0.106102
0.0941363
0.0865474
0.074605
0.0755444
0.150005
0.124457
0.13381
0.176762
0.252911
0.957375
2.01948
1.01278
0.153977
-0.114167
0.142815
0.136244
0.131257
0.127184
0.122255
0.115646
0.10765
0.0995639
0.0923848
0.0855933
0.078024
0.0695784
0.0629393
0.0636199
0.0779068
0.0982507
0.116693
0.176223
1.10092
1.34581
1.23738
0.313618
-0.106198
0.137094
0.128854
0.121951
0.116926
0.112019
0.106265
0.0996817
0.0928767
0.0863717
0.0801839
0.0740937
0.0683464
0.0644916
0.0655612
0.0728527
0.0820588
0.0863234
0.111872
0.354734
0.143642
0.256382
0.197806
-0.0653837
0.13225
0.122772
0.11448
0.108736
0.103838
0.0986703
0.0930509
0.0872635
0.0816275
0.0762959
0.071397
0.0672735
0.0647645
0.0650694
0.067922
0.0707554
0.0690945
0.0644897
0.0352303
0.00667277
-0.0198536
-0.035559
-0.0518647
0.127171
0.117231
0.108269
0.102171
0.0973473
0.092634
0.0877415
0.0827745
0.0779205
0.0733428
0.0692333
0.0658866
0.0636832
0.0629632
0.0631922
0.0625023
0.0582713
0.0481373
0.0313193
0.010843
-0.0082863
-0.0232749
-0.0334545
0.121348
0.111695
0.102774
0.0966928
0.0920387
0.0877199
0.0834162
0.0791285
0.0749394
0.0709561
0.0673334
0.0642844
0.0619776
0.0603737
0.0588832
0.0562666
0.0510096
0.0419202
0.028668
0.0133492
-0.00133144
-0.0134168
-0.0235747
0.114711
0.10593
0.0976526
0.0918541
0.0874465
0.0834771
0.0796557
0.0759278
0.0722963
0.0687884
0.0654819
0.062503
0.0599193
0.0575911
0.0550108
0.0513506
0.0457319
0.0375565
0.026829
0.0147441
0.00281621
-0.00787761
0.0489779
0.10731
0.0999008
0.0927239
0.0873646
0.0832324
0.0795657
0.0761329
0.0728541
0.0696784
0.0665649
0.0635052
0.0605418
0.0576939
0.054833
0.0515848
0.0473981
0.0417641
0.0344091
0.0254482
0.015556
0.00558905
0.00129769
0.0209322
0.0999047
0.0938598
0.0879258
0.0830792
0.0792053
0.0757993
0.0726768
0.0697463
0.0669271
0.0641324
0.0612901
0.0583712
0.0553639
0.0521751
0.0485573
0.0441557
0.0386745
0.0320097
0.0243007
0.015964
0.00788353
0.00208365
-0.00723236
0.0971658
0.092284
0.0831989
0.0788504
0.0752527
0.0721075
0.069257
0.0666001
0.0640485
0.0614981
0.0588414
0.0560021
0.0529408
0.0495958
0.045819
0.041395
0.0361504
0.030066
0.0232804
0.0160942
0.00895361
0.00213977
-0.00369153
0.179148
0.175597
0.101935
0.0744418
0.0712704
0.0684789
0.0659216
0.0635067
0.0611592
0.0587864
0.0562752
0.0535279
0.0504845
0.0471012
0.0433004
0.0389671
0.0340062
0.0284325
0.0223725
0.0160474
0.00974703
0.00387467
-0.00133901
0.17833
0.17701
0.175706
0.0757023
0.0672742
0.0649763
0.0627563
0.0605745
0.0583934
0.056148
0.0537444
0.0510862
0.048105
0.0447631
0.0410253
0.0368425
0.0321765
0.0270578
0.0215942
0.015956
0.0103638
0.00512586
0.000381216
0.122721
0.17426
0.161028
0.0841743
0.0640992
0.0617523
0.0598597
0.057889
0.0558441
0.0536927
0.051369
0.048793
0.0458983
0.042648
0.0390274
0.0350242
0.0306387
0.0259121
0.0209349
0.0158382
0.0107892
0.00602605
0.00163156
0.061715
0.0925922
0.0749498
0.0654581
0.0609926
0.0590693
0.057287
0.0554778
0.0535358
0.0514541
0.0491915
0.0466888
0.0438889
0.0407556
0.0372802
0.0334667
0.0293359
0.0249344
0.0203398
0.0156556
0.0110097
0.00658405
0.00242704
0.0579237
0.0587339
0.0591053
0.0586438
0.0577289
0.0564527
0.0549596
0.053269
0.0514094
0.0493858
0.047176
0.0447399
0.0420335
0.0390243
0.0357033
0.0320778
0.0281743
0.0240406
0.0197446
0.0153694
0.0110143
0.00681902
0.0028117
0.0544412
0.0556117
0.0561772
0.0559109
0.0551424
0.0540512
0.052699
0.0511229
0.0493501
0.0473916
0.0452397
0.0428719
0.0402578
0.037372
0.0342047
0.0307614
0.0270666
0.0231631
0.0191099
0.0149751
0.0108388
0.00680974
0.00290499
0.0509142
0.0521371
0.0529192
0.0529496
0.0524337
0.0515423
0.0503528
0.0489085
0.0472405
0.0453664
0.0432898
0.0410023
0.0384868
0.0357261
0.032712
0.0294477
0.0259524
0.022262
0.0184261
0.0145012
0.0105538
0.00667054
0.00286122
0.0474375
0.0486377
0.0495568
0.0498224
0.0495363
0.0488458
0.047829
0.0465319
0.0449889
0.0432228
0.0412452
0.0390581
0.0366555
0.0340288
0.0311729
0.0280906
0.0247965
0.0213191
0.0176986
0.0139819
0.0102254
0.00649869
0.00280712
0.0440359
0.0451838
0.0461649
0.0465831
0.0464726
0.0459555
0.0451009
0.043953
0.0425468
0.0409075
0.0390509
0.0369861
0.0347153
0.032237
0.0295504
0.0266591
0.0235747
0.0203195
0.0169254
0.0134307
0.00988311
0.00633975
0.00280223
0.0406904
0.0417707
0.0427641
0.0432688
0.043281
0.0429007
0.0421865
0.0411786
0.0399104
0.0384072
0.0366867
0.0347619
0.0326404
0.0303259
0.0278214
0.025132
0.0222676
0.0192455
0.0160912
0.0128354
0.00951866
0.0061881
0.00284202
0.0373938
0.0383971
0.03937
0.0399136
0.0400054
0.0397274
0.0391287
0.0382452
0.037108
0.0357412
0.0341632
0.0323886
0.0304283
0.0282894
0.0259775
0.0234988
0.0208622
0.0180817
0.0151772
0.0121736
0.00910505
0.0060109
0.00288636
0.0341523
0.0350689
0.0359984
0.0365488
0.0366886
0.0364842
0.0359776
0.0352011
0.0341831
0.0329465
0.03151
0.0298888
0.0280951
0.0261378
0.0240241
0.0217608
0.019356
0.0168208
0.0141711
0.0114266
0.00861625
0.00577306
0.00288968
0.030974
0.0317955
0.0326645
0.0332015
0.0333672
0.0332143
0.0327804
0.0320943
0.031182
0.0300664
0.028766
0.027296
0.0256687
0.0238938
0.0219789
0.0199308
0.0177568
0.0154659
0.0130705
0.0105863
0.00803718
0.00545118
0.00281871
0.0278669
0.0285865
0.0293826
0.0298934
0.0300699
0.0299531
0.0295765
0.0289664
0.0281477
0.0271431
0.0259716
0.0246478
0.0231834
0.0215876
0.0198677
0.0180305
0.0160823
0.0140305
0.0118848
0.00965722
0.00736718
0.00503811
0.00265854
0.0248354
0.025449
0.0261644
0.0266401
0.0268168
0.0267252
0.0263946
0.0258494
0.0251142
0.0242124
0.0231629
0.0219797
0.0206732
0.0192514
0.0177211
0.0160883
0.0143587
0.0125383
0.0106346
0.00865667
0.00661961
0.00454263
0.00241269
0.0218806
0.0223863
0.0230161
0.0234496
0.0236189
0.0235445
0.0232513
0.0227629
0.0221044
0.0212996
0.0203672
0.0193199
0.0181666
0.0169142
0.015568
0.0141333
0.0126147
0.0110173
0.00934688
0.00760979
0.00581753
0.00398539
0.00209925
0.0190014
0.0193968
0.0199364
0.0203225
0.020479
0.0204151
0.0201527
0.019716
0.0191307
0.0184202
0.0176021
0.0166878
0.0156845
0.0145975
0.013431
0.0121888
0.0108747
0.00949272
0.00804715
0.00654236
0.00498684
0.00339245
0.00174442
0.0161976
0.0164726
0.0169156
0.0172528
0.0173932
0.0173346
0.0170983
0.0167108
0.0161982
0.0155822
0.014878
0.0140952
0.0132394
0.0123147
0.0113239
0.0102695
0.00915454
0.00798178
0.00675442
0.00547538
0.00415072
0.00278929
0.00137595
0.0134601
0.0135927
0.0139364
0.01423
0.0143544
0.0142977
0.0140854
0.0137476
0.0133098
0.0127902
0.012201
0.0115492
0.0108391
0.0100735
0.00925456
0.00838395
0.00746357
0.0064955
0.00548192
0.00442475
0.0033281
0.00219797
0.00101922
0.0107358
0.0107049
0.0109679
0.0112492
0.0113664
0.0113101
0.0111215
0.0108364
0.0104768
0.0100563
0.00958309
0.00906174
0.00849522
0.00788572
0.00723486
0.00654396
0.00581432
0.00504738
0.00424465
0.00340724
0.0025378
0.00163969
0.000698097
0.00790546
0.00770409
0.0079253
0.00833135
0.0084694
0.0084062
0.0082392
0.00800944
0.00773095
0.00741072
0.00705291
0.00666014
0.00623434
0.00577723
0.00529023
0.00477455
0.00423126
0.00366151
0.00306637
0.00244654
0.00180352
0.00113854
0.000437288
0.00505517
0.00406449
0.00455922
0.00545362
0.00564527
0.00556614
0.00542374
0.00525521
0.00506122
0.0048422
0.00459933
0.00433368
0.00404642
0.00373891
0.0034125
0.00306848
0.00270815
0.0023328
0.00194351
0.00154083
0.0011252
0.000696885
0.000250406
0.00295065
-0.00165307
0.000174565
0.00148124
0.00173328
0.00173743
0.00170219
0.00165229
0.00158764
0.00150882
0.00141679
0.00131251
0.00119721
0.00107247
0.000940148
0.000802355
0.000661229
0.000518784
0.000376676
0.000235991
9.70767e-05
-4.03194e-05
-0.000177069
775.496
767.955
762.394
748.947
735.758
749.325
756.961
745.479
610.902
568.82
508.997
442.001
40.2317
15.6
14.3236
12.4425
14.6023
18.616
20.4224
19.2879
55.1741
54.4371
55.0421
55.4432
56.9302
56.4754
57.7258
54.3926
59.4521
60.2783
45.4388
9.4284
60.2511
50.9468
7.77958
0.282381
-0.164243
6.17253
3.80746
-0.0138133
-0.119532
-0.120537
-0.0898267
-0.0603369
-0.0766443
-0.0224299
0.473712
-0.055154
-0.0530954
0.228242
0.681429
0.0549828
0.0665447
0.577096
0.101673
-0.0288945
0.287164
0.580176
-0.0284637
-0.0233084
0.137782
-0.0250716
-0.0227453
-0.0213407
-0.0164581
-0.0180132
-0.0190089
-0.0196566
-0.0109193
-0.0134209
-0.0157835
-0.0177054
-0.0075596
-0.0104759
-0.0134505
-0.0159637
-0.00520513
-0.00822593
-0.0114029
-0.0141558
-0.00334677
-0.00629914
-0.00946418
-0.0122729
-0.00191442
-0.00472068
-0.00776061
-0.0105134
-0.000966409
-0.00361246
-0.00647287
-0.00909402
-0.000481522
-0.00298707
-0.00565633
-0.00810722
-0.000324436
-0.00272157
-0.00522006
-0.00750185
-0.000312
-0.00262858
-0.00499399
-0.00713757
-0.000292636
-0.00254202
-0.00481192
-0.00685879
-0.000192104
-0.00237153
-0.00456917
-0.00655272
-1.20633e-05
-0.00210828
-0.0042375
-0.00617213
0.000201929
-0.00179384
-0.00384312
-0.00572397
0.000395402
-0.00148298
-0.00343338
-0.00524292
0.000526144
-0.00122064
-0.00305264
-0.00476867
0.000572108
-0.00103285
-0.00273008
-0.00433152
0.000532274
-0.000924632
-0.00247497
-0.00394509
0.000423162
-0.000882199
-0.00227741
-0.0036049
0.000271687
-0.000879765
-0.00211441
-0.00329249
0.000107692
-0.000887373
-0.00195713
-0.00298152
-4.09093e-05
-0.000875899
-0.00177593
-0.00264251
-0.000148256
-0.00081771
-0.00154141
-0.002244
-0.000196196
-0.000695552
-0.00123373
-0.00175897
-0.000134647
-0.000446896
-0.000788621
-0.00112957
-0.000286119
-0.000384397
-0.000496864
-0.00061087
701.385
703.629
698.963
662.924
653.872
688.105
744.425
778.221
773.872
754.905
747.673
682.416
674.838
718.775
817.297
821.12
814.829
817.155
833.201
706.027
577.488
411.078
248.519
235.286
332.03
559.205
729.362
770.202
791.647
806.453
815.816
804.912
826.038
819.417
790.235
725.682
660.655
760.206
266.679
20.5738
14.8015
15.8504
17.0412
50.0728
239.804
504.062
701.4
782.426
803.12
790.356
744.311
722.019
644.337
485.02
264.872
243.971
372.093
13.7474
14.209
14.1926
14.4775
14.8015
16.5528
62.4088
165.079
271.404
381.247
506.798
531.707
474.176
376.129
299.201
272.559
231.488
232.86
232.414
15.277
14.2917
13.8906
14.237
14.3517
13.9342
13.3919
13.3273
13.1301
17.4108
76.9455
196.773
232.702
200.646
226.309
273.479
276.595
229.061
230.636
47.7283
43.1406
38.7322
32.2708
28.5879
27.0319
25.593
22.366
20.2742
18.0943
17.7051
43.1389
113.031
117.208
175.454
226.19
266.994
268.899
244.406
46.719
48.8045
50.6967
52.0723
53.0002
53.3412
53.4473
53.5842
53.6193
53.5823
25.4444
17.3285
10.5537
21.8782
50.7175
86.226
168.736
229.477
169.856
1.7597
2.82718
10.2778
26.5718
39.6927
45.2038
48.1037
50.3703
54.1409
54.8974
53.9856
19.845
1.25514
1.24816
1.60861
2.48545
10.782
25.1264
17.0334
0.165027
0.0887489
-0.000147427
-0.0911955
-0.119018
-0.0893485
-0.0245123
2.74632
8.82316
19.6703
20.1244
11.7638
0.427017
0.352716
0.491115
1.00027
0.435868
0.33307
0.396966
0.0544477
0.0541866
0.0401189
0.0255144
0.0167775
0.0159012
0.0160528
0.00449312
-0.0196797
-0.0533988
-0.0369665
0.464291
0.169798
0.142898
0.175812
0.530324
0.165302
0.152543
0.162369
-0.00798592
0.0128381
0.0130969
0.00801745
0.022431
0.182671
0.286196
0.252651
0.228764
0.291404
0.230785
0.0576086
0.078955
0.0805535
0.105179
0.122988
0.129217
0.139217
0.151743
-0.0168001
-0.0037218
-0.00198267
-0.00533895
0.0274664
0.472613
0.497164
0.48457
0.469331
0.454439
0.189442
0.0709159
0.0703476
0.067579
0.0713337
0.095219
0.13954
0.161484
0.167165
-0.0168366
-0.0091804
-0.00690762
-0.00976551
-0.00399704
0.331518
0.518084
0.508548
0.495027
0.483925
0.475307
0.357714
0.0704488
0.0596316
0.0472656
0.167637
0.279818
0.278858
0.271524
-0.0172335
-0.000729673
-0.000894805
-0.0108061
-0.0173112
0.0504152
0.53989
0.53424
0.5011
0.185063
0.234239
0.383219
0.392772
0.283474
-0.00220696
0.105844
0.296602
0.296496
0.292132
-0.0193777
0.0113217
0.0346335
-0.00232038
-0.0172575
-0.0260218
0.211792
0.554416
0.0820025
-0.0700139
-0.0577826
0.201953
0.388461
0.239256
-0.0140009
0.00523706
0.0812854
0.177937
0.303552
-0.0199192
0.0248026
0.0450197
0.0410521
-0.0132183
-0.0216688
0.0379462
0.180806
0.0369622
-0.0626761
-0.0618035
-0.0406552
-0.00179298
-0.0181737
-0.0468268
0.0090651
0.195576
0.26579
0.266729
-0.0201895
0.0226666
0.0458851
0.0418694
0.036814
0.0091491
-0.0222418
-0.0440634
-0.0511961
-0.0561634
-0.0567256
-0.0566158
-0.0561446
-0.0550419
-0.0547772
-0.00140267
0.204113
0.207901
0.0816269
-0.0202618
-0.00856282
0.0477518
0.0439378
0.0392823
0.0339421
0.0201127
-0.0516951
-0.0530871
-0.0528983
-0.0529169
-0.0534959
-0.0541958
-0.0552534
-0.0578227
-0.0472349
-0.0324065
-0.0665938
-0.0783544
-0.0192501
-0.02336
-0.00416277
0.0459426
0.0424613
0.0378048
0.0278724
-0.0427237
-0.0486987
-0.0490775
-0.0480062
-0.0495236
-0.0532582
-0.0554323
-0.0589416
-0.0645326
-0.0706827
-0.0745056
-0.0742703
-0.0177744
-0.0220608
-0.0266474
-0.024316
-0.00756685
0.00727171
-0.00744079
-0.0411213
-0.0456631
-0.0461213
-0.0450495
-0.0467938
-0.0497339
-0.0549766
-0.0583655
-0.0625973
-0.0665939
-0.0685874
-0.0637176
-0.0160186
-0.0203483
-0.024735
-0.0290955
-0.0331807
-0.0368356
-0.039541
-0.0412753
-0.0411287
-0.0427957
-0.0435898
-0.0453441
-0.0491007
-0.0538437
-0.0568118
-0.0599485
-0.0624845
-0.0618421
0.0713109
-0.0142484
-0.0185294
-0.0227496
-0.0268646
-0.0306774
-0.0340759
-0.0369215
-0.0391987
-0.0399716
-0.0406577
-0.0428344
-0.0466959
-0.0495849
-0.0521058
-0.0546383
-0.0570094
-0.0586983
-0.0544193
0.132603
-0.0127086
-0.0168707
-0.020915
-0.0248171
-0.0284305
-0.0316767
-0.0344969
-0.0369186
-0.0391168
-0.0395258
-0.0408776
-0.0444732
-0.0477053
-0.0499202
-0.0520594
-0.0539004
-0.0550702
-0.0333142
0.143805
-0.0115275
-0.0155201
-0.019368
-0.0230534
-0.0264724
-0.0295743
-0.0323367
-0.0347915
-0.0370544
-0.0391811
-0.0405447
-0.0422023
-0.0445624
-0.0471593
-0.0492024
-0.0506548
-0.0514699
0.00112991
0.15547
-0.0107046
-0.0145021
-0.0181396
-0.0216001
-0.0248093
-0.0277418
-0.0303945
-0.0327949
-0.0350136
-0.0371145
-0.0391345
-0.0408567
-0.0425054
-0.0443558
-0.0461062
-0.0473102
-0.047856
0.0105623
0.167184
-0.010145
-0.0137473
-0.0171762
-0.0204147
-0.0234092
-0.026154
-0.0286574
-0.0309425
-0.0330549
-0.0350387
-0.0369189
-0.0386982
-0.0403541
-0.0417954
-0.0430366
-0.0438819
-0.0440826
-0.0182766
0.177631
-0.00971646
-0.0131407
-0.0163772
-0.0194111
-0.0222044
-0.0247628
-0.0271016
-0.0292416
-0.0312148
-0.0330517
-0.0347688
-0.0363625
-0.0378046
-0.0390374
-0.0399672
-0.0404445
-0.0401698
-0.027937
0.184636
-0.00930415
-0.0125724
-0.0156388
-0.0184944
-0.0211121
-0.0235023
-0.0256831
-0.0276742
-0.0295
-0.0311823
-0.0327312
-0.0341377
-0.0353683
-0.0363599
-0.0370113
-0.0371442
-0.0363872
-0.0124729
0.195764
-0.00884195
-0.0119694
-0.0148852
-0.0175887
-0.0200591
-0.0223059
-0.0243469
-0.0262006
-0.0278871
-0.0294222
-0.0308112
-0.0320415
-0.0330765
-0.0338511
-0.0342628
-0.0341247
-0.0330375
0.0332109
0.206594
-0.00831332
-0.0113028
-0.0140794
-0.0166497
-0.0189948
-0.0211201
-0.0230406
-0.024773
-0.026334
-0.0277358
-0.0289804
-0.030053
-0.0309167
-0.031508
-0.0317307
-0.0314158
-0.0301832
0.0479286
0.216571
-0.00773455
-0.0105778
-0.0132173
-0.0156629
-0.0178949
-0.0199123
-0.0217255
-0.0233488
-0.0247966
-0.0260786
-0.0271948
-0.02813
-0.0288482
-0.0292889
-0.029363
-0.0289217
-0.0276101
0.0331246
0.226084
-0.00713572
-0.00981833
-0.0123156
-0.0146366
-0.0167582
-0.0186717
-0.0203818
-0.0219004
-0.0232405
-0.0244112
-0.0254121
-0.0262282
-0.0268248
-0.0271429
-0.0270946
-0.0265253
-0.0250429
-0.000525348
0.228642
-0.00654598
-0.00905281
-0.0113993
-0.0135908
-0.0155987
-0.0174049
-0.0190071
-0.0204162
-0.0216462
-0.0227074
-0.0236009
-0.0243131
-0.0248107
-0.0250348
-0.0248945
-0.0242142
-0.0225143
0.0308292
0.130219
-0.00598385
-0.0083029
-0.010491
-0.0125481
-0.0144382
-0.0161296
-0.0176115
-0.0188979
-0.0200071
-0.0209534
-0.0217417
-0.0223616
-0.0227828
-0.0229489
-0.0227707
-0.0220806
-0.0204001
0.102947
0.161072
-0.00545286
-0.00757727
-0.00960406
-0.0115267
-0.0132997
-0.0148698
-0.0162132
-0.0173554
-0.0183249
-0.0191435
-0.0198221
-0.0203555
-0.0207182
-0.0208587
-0.0206963
-0.0200974
-0.0186566
0.0844383
0.166904
-0.00494225
-0.0068704
-0.0087391
-0.0105365
-0.0122057
-0.0136541
-0.0148343
-0.0158021
-0.0166047
-0.0172753
-0.0178325
-0.0182772
-0.0185886
-0.0187173
-0.0185861
-0.0180556
-0.01669
0.00858362
0.0399112
-0.00443063
-0.00616379
-0.00788309
-0.00957579
-0.0111747
-0.0125114
-0.0134945
-0.0142482
-0.0148489
-0.0153446
-0.0157628
-0.0161113
-0.0163739
-0.0165017
-0.0164096
-0.0159005
-0.0144015
-0.0112216
-0.00710183
-0.00388914
-0.00542578
-0.00700456
-0.00862353
-0.010219
-0.0114753
-0.0122087
-0.0126956
-0.0130517
-0.0133408
-0.0135991
-0.013842
-0.0140625
-0.0142239
-0.0142295
-0.0138328
-0.01226
-0.00891534
-0.00476527
-0.00328035
-0.00460495
-0.00604166
-0.00763981
-0.00940771
-0.0107106
-0.0110709
-0.0111845
-0.0112298
-0.0112685
-0.0113367
-0.0114586
-0.0116459
-0.0118886
-0.0121086
-0.0120568
-0.010605
-0.00732237
-0.00312072
-0.0025565
-0.00362557
-0.00490036
-0.00662433
-0.00914242
-0.0109424
-0.0105171
-0.0099586
-0.00954139
-0.00923765
-0.00904777
-0.00899653
-0.00911839
-0.00946295
-0.01001
-0.010544
-0.00169376
-0.00595621
-0.00206788
-0.00167377
-0.00241847
-0.00348235
-0.00560477
-0.0101608
-0.0130795
-0.010886
-0.00918302
-0.00810496
-0.00734238
-0.00680123
-0.00648369
-0.00641933
-0.00674817
-0.00671932
-0.00244186
0.00807065
0.00204631
-0.00130262
-0.000803418
-0.00112553
-0.00184161
-0.00404305
-0.010604
-0.0115066
-0.00812189
-0.00613818
-0.00498542
-0.00418355
-0.00359427
-0.00318615
-0.0029342
-0.00292825
-0.00394124
0.00694416
0.00659406
0.00794256
-0.000176634
)
;

boundaryField
{
    leftWall
    {
        type            fixedFluxPressure;
        gradient        uniform 0;
        value           nonuniform List<scalar> 
50
(
736.161
736.069
735.829
735.429
734.883
734.208
733.418
732.508
730.848
658.835
138.833
3.65301
5.57608
0.214309
0.195298
0.17712
0.161856
0.150692
0.142815
0.137094
0.13225
0.127171
0.121348
0.114711
0.10731
0.0999047
0.0971658
0.179148
0.17833
0.122721
0.061715
0.0579237
0.0544412
0.0509142
0.0474375
0.0440359
0.0406904
0.0373938
0.0341523
0.030974
0.0278669
0.0248354
0.0218806
0.0190014
0.0161976
0.0134601
0.0107358
0.00790546
0.00505517
0.00295065
)
;
    }
    rightWall
    {
        type            fixedFluxPressure;
        gradient        uniform 0;
        value           nonuniform List<scalar> 
50
(
818.412
818.52
819.563
821.845
824.615
827.676
830.558
832.582
833.201
760.206
372.093
232.414
230.636
244.406
169.856
17.0334
0.396966
0.162369
0.151743
0.167165
0.271524
0.292132
0.303552
0.266729
0.0816269
-0.0783544
-0.0742703
-0.0637176
0.0713109
0.132603
0.143805
0.15547
0.167184
0.177631
0.184636
0.195764
0.206594
0.216571
0.226084
0.228642
0.130219
0.161072
0.166904
0.0399112
-0.00710183
-0.00476527
-0.00312072
-0.00206788
-0.00130262
-0.000176634
)
;
    }
    lowerWall
    {
        type            fixedFluxPressure;
        gradient        uniform 0;
        value           nonuniform List<scalar> 
62
(
736.161
736.965
738.794
740.838
742.764
744.553
746.279
748.055
750.009
752.275
754.972
758.189
761.98
766.364
771.334
776.93
783.131
789.959
796.54
803.983
811.157
817.172
822.042
822.042
821.154
821.521
824.495
827.195
830.882
835.546
835.125
775.496
767.955
762.394
748.947
680.128
678.965
676.172
674.349
673.013
666.414
666.006
659.291
680.128
683.966
709.733
737.711
752.324
755.054
753.857
752.602
753.752
759.166
768.233
779.571
790.656
794.432
795.55
798.424
803.652
811.36
818.412
)
;
    }
    atmosphere
    {
        type            totalPressure;
        rho             rho;
        psi             none;
        gamma           1;
        p0              uniform 0;
        value           nonuniform List<scalar> 
46
(
-0.00032987
-0.00139851
-0.00126215
-0.00109528
-0.000977296
-0.000888317
-0.000820357
-0.000769915
-0.000734712
-0.00071268
-0.000701751
-0.000699776
-0.000704485
-0.00071346
-0.000724125
-0.000733766
-0.000739595
-0.000738867
-0.000729061
-0.000708128
-0.000674816
-0.000629103
-0.000572649
-0.000524154
-0.000488602
-0.000447975
-0.000403632
-0.000328142
-0.000224333
-0.000133807
-6.29818e-05
-1.07082e-05
0
0
0
0
0
0
0
0
0
0
0
0
0
0
)
;
    }
    defaultFaces
    {
        type            empty;
    }
}


// ************************************************************************* //
