/*--------------------------------*- C++ -*----------------------------------*\
| =========                 |                                                 |
| \\      /  F ield         | OpenFOAM: The Open Source CFD Toolbox           |
|  \\    /   O peration     | Version:  2.3.0                                 |
|   \\  /    A nd           | Web:      www.OpenFOAM.org                      |
|    \\/     M anipulation  |                                                 |
\*---------------------------------------------------------------------------*/
FoamFile
{
    version     2.0;
    format      ascii;
    class       volVectorField;
    location    "1.85";
    object      U;
}
// * * * * * * * * * * * * * * * * * * * * * * * * * * * * * * * * * * * * * //

dimensions      [0 1 -1 0 0 0 0];

internalField   nonuniform List<vector> 
2268
(
(-0.0162394 0.00475445 0)
(-0.0135119 -0.00238198 0)
(-0.00353749 -0.0046461 0)
(0.00728319 -0.00429971 0)
(0.01718 -0.00350243 0)
(0.0253383 -0.00272739 0)
(0.0317547 -0.00210055 0)
(0.0367263 -0.00164272 0)
(0.0406018 -0.00133183 0)
(0.0436883 -0.00113306 0)
(0.0462381 -0.00100987 0)
(0.0484074 -0.000904937 0)
(0.0501892 -0.00074369 0)
(0.0513485 -0.000413348 0)
(0.0513267 0.000228103 0)
(0.0491319 0.00133838 0)
(0.0433862 0.00309933 0)
(0.0334408 0.00542835 0)
(0.0139704 0.0106856 0)
(-0.017487 0.0145867 0)
(-0.0560415 0.0116316 0)
(-0.0772353 -0.00445583 0)
(-0.0364163 -0.0234145 0)
(-0.00825887 0.00933788 0)
(-0.00233512 -0.00383094 0)
(0.00548944 -0.00758345 0)
(0.0142654 -0.00760859 0)
(0.0227066 -0.00658815 0)
(0.0301281 -0.00537023 0)
(0.036313 -0.00425002 0)
(0.0413044 -0.00333241 0)
(0.0452688 -0.00263202 0)
(0.0484078 -0.00212658 0)
(0.0509258 -0.00177272 0)
(0.0529707 -0.0014759 0)
(0.0545612 -0.00109805 0)
(0.0555211 -0.000434269 0)
(0.0554407 0.000767194 0)
(0.0537244 0.00278913 0)
(0.0493471 0.00583391 0)
(0.0413118 0.010203 0)
(0.0277993 0.0178635 0)
(0.00799639 0.02383 0)
(-0.0160313 0.0202446 0)
(-0.035684 -0.00141125 0)
(-0.0189294 -0.0412308 0)
(0.000859933 0.00921054 0)
(0.00510295 -0.0063984 0)
(0.0117726 -0.0108645 0)
(0.0193211 -0.0110629 0)
(0.026879 -0.00984968 0)
(0.0337942 -0.00824227 0)
(0.039726 -0.00665386 0)
(0.0445807 -0.00527329 0)
(0.0484266 -0.00416383 0)
(0.051409 -0.00332476 0)
(0.0537128 -0.00271225 0)
(0.0554943 -0.00219812 0)
(0.0568099 -0.00158604 0)
(0.0575552 -0.000586281 0)
(0.0574219 0.00114961 0)
(0.0559522 0.00396773 0)
(0.0524611 0.00818099 0)
(0.0461716 0.0141812 0)
(0.0371941 0.0231402 0)
(0.0257742 0.0302526 0)
(0.0120292 0.0269318 0)
(-0.00539281 0.003223 0)
(-0.000644611 -0.0474415 0)
(0.00625522 0.00627038 0)
(0.0104403 -0.00906029 0)
(0.0166796 -0.0140185 0)
(0.0236402 -0.0144414 0)
(0.0307127 -0.0131139 0)
(0.0373081 -0.0111618 0)
(0.0430226 -0.00911199 0)
(0.047685 -0.00724761 0)
(0.0513078 -0.00569238 0)
(0.0540069 -0.00447939 0)
(0.0559683 -0.00357626 0)
(0.0573754 -0.0028288 0)
(0.0583397 -0.00199029 0)
(0.058843 -0.00069209 0)
(0.058687 0.00149403 0)
(0.0575547 0.00497408 0)
(0.0550332 0.0101026 0)
(0.0506742 0.0172264 0)
(0.0451911 0.0267343 0)
(0.0392853 0.0344909 0)
(0.0319844 0.0321049 0)
(0.0187719 0.00864249 0)
(0.0156298 -0.0440323 0)
(0.00855965 0.00171416 0)
(0.0140295 -0.0120749 0)
(0.020509 -0.0171138 0)
(0.0274092 -0.017721 0)
(0.0343343 -0.0163092 0)
(0.0407824 -0.0140363 0)
(0.0463316 -0.0115236 0)
(0.0507729 -0.00915163 0)
(0.0540935 -0.00711463 0)
(0.0564002 -0.00549051 0)
(0.0578987 -0.00427192 0)
(0.0588164 -0.00328907 0)
(0.0593378 -0.00225798 0)
(0.0595477 -0.000741114 0)
(0.0593653 0.00175818 0)
(0.0586176 0.0056812 0)
(0.0571236 0.0113792 0)
(0.0547536 0.0190784 0)
(0.0522603 0.0286437 0)
(0.0504588 0.0365268 0)
(0.0475898 0.0354141 0)
(0.0386612 0.0150497 0)
(0.0292596 -0.0335677 0)
(0.00927988 -0.00366907 0)
(0.0162849 -0.0155887 0)
(0.0234082 -0.0203386 0)
(0.030628 -0.0210108 0)
(0.0376819 -0.0194771 0)
(0.0441397 -0.0168586 0)
(0.0495852 -0.0138489 0)
(0.0537979 -0.010926 0)
(0.056763 -0.00835974 0)
(0.0585944 -0.00628204 0)
(0.0595318 -0.00472473 0)
(0.0598599 -0.0035133 0)
(0.0598503 -0.00234191 0)
(0.0597069 -0.000712775 0)
(0.059474 0.00193224 0)
(0.0591182 0.0060492 0)
(0.0586546 0.011953 0)
(0.0582087 0.0197426 0)
(0.0584932 0.0289917 0)
(0.0601153 0.0366975 0)
(0.0608462 0.0370834 0)
(0.0565587 0.022124 0)
(0.0420697 -0.0169202 0)
(0.00937371 -0.00944342 0)
(0.0175872 -0.0196154 0)
(0.0254594 -0.0238391 0)
(0.0332102 -0.0244437 0)
(0.0405873 -0.0227047 0)
(0.0471809 -0.0196697 0)
(0.0525854 -0.016092 0)
(0.056584 -0.0125486 0)
(0.0591756 -0.00938889 0)
(0.0604922 -0.00680476 0)
(0.060817 -0.004882 0)
(0.0604972 -0.00345018 0)
(0.0598989 -0.00219971 0)
(0.0593577 -0.000580751 0)
(0.0590487 0.00202652 0)
(0.0590716 0.00608241 0)
(0.0596095 0.0118457 0)
(0.0609901 0.0193093 0)
(0.0639064 0.0279184 0)
(0.0687748 0.0352339 0)
(0.0732258 0.0370172 0)
(0.074269 0.0293467 0)
(0.0573802 0.0132172 0)
(0.00939214 -0.0154546 0)
(0.0181878 -0.0241291 0)
(0.0266953 -0.0277516 0)
(0.0350327 -0.0281934 0)
(0.0428327 -0.0261501 0)
(0.0496376 -0.0225904 0)
(0.055049 -0.018331 0)
(0.0588635 -0.0140591 0)
(0.0611031 -0.010211 0)
(0.0619251 -0.00704309 0)
(0.061658 -0.00471323 0)
(0.060706 -0.00305549 0)
(0.0595254 -0.0017839 0)
(0.0585852 -0.000307275 0)
(0.0581959 0.00206074 0)
(0.0585865 0.00577481 0)
(0.0600918 0.0110314 0)
(0.0632103 0.0177437 0)
(0.0686688 0.025322 0)
(0.0768458 0.0318392 0)
(0.085865 0.0343027 0)
(0.0929687 0.0327972 0)
(0.0932606 0.0536282 0)
(-0.0981809 0.0265104 0)
(-0.130318 0.00151515 0)
(-0.0678849 -0.0343119 0)
(0.0324872 -0.0405235 0)
(0.136548 -0.035836 0)
(0.22439 -0.0273762 0)
(0.289669 -0.0191746 0)
(0.330982 -0.0110899 0)
(0.347478 -0.00253045 0)
(0.338188 0.00408768 0)
(0.309895 0.0113858 0)
(0.259545 0.0189929 0)
(0.187471 0.0203483 0)
(0.111216 0.0191601 0)
(0.0513469 0.0159389 0)
(0.0073908 0.0127906 0)
(-0.0366039 0.0107329 0)
(-0.0593757 -0.0025798 0)
(-0.0304248 -0.01691 0)
(-0.0931587 0.0611074 0)
(-0.0596017 -0.00169855 0)
(0.00713238 -0.0574646 0)
(0.0958472 -0.0707773 0)
(0.179585 -0.0629364 0)
(0.248109 -0.04799 0)
(0.299648 -0.033232 0)
(0.332997 -0.0175949 0)
(0.343734 -0.00146527 0)
(0.337162 0.0108704 0)
(0.319764 0.0238476 0)
(0.286946 0.038833 0)
(0.224586 0.0465675 0)
(0.145613 0.0456768 0)
(0.0809106 0.0374843 0)
(0.0373405 0.0283879 0)
(0.000305013 0.0227468 0)
(-0.0257713 0.00316712 0)
(-0.0195432 -0.0298184 0)
(-0.0595544 0.0800226 0)
(-0.000403982 -0.0227121 0)
(0.0698136 -0.0881985 0)
(0.144097 -0.100984 0)
(0.207804 -0.0884455 0)
(0.258325 -0.0683969 0)
(0.297273 -0.0481166 0)
(0.324682 -0.025718 0)
(0.333356 -0.00149692 0)
(0.322956 0.0163254 0)
(0.302302 0.0340588 0)
(0.271316 0.0564538 0)
(0.218704 0.0725912 0)
(0.150665 0.071966 0)
(0.0956638 0.0581651 0)
(0.0597306 0.043094 0)
(0.030263 0.0339308 0)
(0.00335713 0.0104903 0)
(-0.002771 -0.0354151 0)
(-0.0232698 0.0840564 0)
(0.0571813 -0.0491756 0)
(0.128107 -0.118528 0)
(0.187283 -0.126601 0)
(0.231624 -0.10828 0)
(0.264386 -0.0838506 0)
(0.290025 -0.0600361 0)
(0.311274 -0.0332886 0)
(0.319309 -0.000590064 0)
(0.307969 0.0232816 0)
(0.285881 0.0452136 0)
(0.255946 0.0734243 0)
(0.210837 0.0961107 0)
(0.153609 0.0958075 0)
(0.107688 0.0756038 0)
(0.0792397 0.0558387 0)
(0.0556687 0.044608 0)
(0.029129 0.0197367 0)
(0.0130575 -0.0307896 0)
(0.0135258 0.0688968 0)
(0.116256 -0.0809986 0)
(0.184319 -0.145937 0)
(0.226783 -0.145431 0)
(0.25143 -0.120915 0)
(0.266475 -0.0929862 0)
(0.278996 -0.0676666 0)
(0.292904 -0.0391761 0)
(0.299955 0.000366768 0)
(0.290512 0.0302132 0)
(0.269847 0.0555038 0)
(0.242946 0.0878774 0)
(0.205596 0.114935 0)
(0.159261 0.115406 0)
(0.121492 0.089857 0)
(0.0984852 0.0658924 0)
(0.0786635 0.0543348 0)
(0.0514079 0.0315987 0)
(0.0261278 -0.0189574 0)
(0.0573958 0.035059 0)
(0.180006 -0.118407 0)
(0.237597 -0.167927 0)
(0.260949 -0.155849 0)
(0.265852 -0.125469 0)
(0.263675 -0.0957092 0)
(0.263485 -0.0709717 0)
(0.269612 -0.0429158 0)
(0.274409 0.000819002 0)
(0.268856 0.0366788 0)
(0.25348 0.0648407 0)
(0.232657 0.100535 0)
(0.204205 0.130546 0)
(0.169238 0.131135 0)
(0.139297 0.101425 0)
(0.119709 0.0741026 0)
(0.100664 0.0638773 0)
(0.0709587 0.0460217 0)
(0.0371011 -0.000591788 0)
(0.13025 -0.0426725 0)
(0.246716 -0.159232 0)
(0.283339 -0.181316 0)
(0.287151 -0.15709 0)
(0.273323 -0.12175 0)
(0.254845 -0.0918424 0)
(0.242919 -0.0700036 0)
(0.241828 -0.044112 0)
(0.244044 0.00053943 0)
(0.243602 0.0403279 0)
(0.236809 0.0712556 0)
(0.22504 0.110003 0)
(0.207047 0.142479 0)
(0.183956 0.143472 0)
(0.161811 0.11142 0)
(0.144167 0.0819872 0)
(0.122969 0.0745132 0)
(0.0889292 0.0633075 0)
(0.0471518 0.0236657 0)
(0.240554 -0.148695 0)
(0.306494 -0.193736 0)
(0.316205 -0.184501 0)
(0.303534 -0.149934 0)
(0.27297 -0.110637 0)
(0.239607 -0.0818433 0)
(0.217625 -0.0650497 0)
(0.211144 -0.0432196 0)
(0.212202 -0.000638416 0)
(0.217116 0.0401109 0)
(0.219499 0.0728123 0)
(0.21708 0.114118 0)
(0.209439 0.148589 0)
(0.198495 0.150664 0)
(0.186521 0.11928 0)
(0.170095 0.0906989 0)
(0.145109 0.0872022 0)
(0.105575 0.0838958 0)
(0.0566072 0.0533862 0)
(0.0093573 -0.0253182 0)
(0.0181115 -0.0319713 0)
(0.0272632 -0.0346604 0)
(0.0364826 -0.0347144 0)
(0.0450067 -0.0320142 0)
(0.0522184 -0.0274367 0)
(0.057716 -0.0218971 0)
(0.0613282 -0.0162888 0)
(0.0631303 -0.0111963 0)
(0.0633348 -0.00697739 0)
(0.0623415 -0.00393614 0)
(0.0606121 -0.00188991 0)
(0.0587041 -0.000652074 0)
(0.0572677 0.000396803 0)
(0.0568152 0.00204634 0)
(0.0577927 0.00472724 0)
(0.0607736 0.00853955 0)
(0.0665021 0.0133234 0)
(0.0758241 0.0185056 0)
(0.0892991 0.0227413 0)
(0.106689 0.0242757 0)
(0.128835 0.0242858 0)
(0.167694 0.0343514 0)
(0.00915191 -0.0392604 0)
(0.015841 -0.0430578 0)
(0.0249741 -0.0444366 0)
(0.0348247 -0.043571 0)
(0.0441511 -0.0395882 0)
(0.0519453 -0.0334719 0)
(0.0577328 -0.026209 0)
(0.0613865 -0.0189419 0)
(0.0631091 -0.0123971 0)
(0.0633174 -0.00698726 0)
(0.0625181 -0.00316691 0)
(0.0610558 -0.000663606 0)
(0.0593572 0.000487697 0)
(0.0580309 0.000868893 0)
(0.0577458 0.00127717 0)
(0.0594768 0.00190998 0)
(0.0643335 0.00262286 0)
(0.0733687 0.00314511 0)
(0.0874099 0.00309294 0)
(0.106933 0.00154105 0)
(0.132223 -0.00327246 0)
(0.164188 -0.0144531 0)
(0.209227 -0.0346653 0)
(0.0138921 -0.0474802 0)
(0.0103593 -0.0481049 0)
(0.0181171 -0.0513712 0)
(0.027579 -0.0511887 0)
(0.0376275 -0.0461854 0)
(0.0462139 -0.0385895 0)
(0.0524961 -0.0295551 0)
(0.056268 -0.0206579 0)
(0.057963 -0.0126974 0)
(0.0589641 -0.00606812 0)
(0.0602504 -0.00147705 0)
(0.0615709 0.00164912 0)
(0.0625863 0.00249242 0)
(0.0624427 0.00162533 0)
(0.0616005 0.000371443 0)
(0.0632907 -0.0012008 0)
(0.0699297 -0.00333275 0)
(0.082208 -0.00617362 0)
(0.100004 -0.0101813 0)
(0.122875 -0.0166166 0)
(0.151365 -0.0271384 0)
(0.186784 -0.0453684 0)
(0.232297 -0.0719156 0)
(0.0287812 -0.050359 0)
(0.00388856 -0.0456157 0)
(0.00680853 -0.0553427 0)
(0.0119275 -0.0600169 0)
(0.0232726 -0.0554565 0)
(0.0336361 -0.0456111 0)
(0.04043 -0.0330929 0)
(0.0429526 -0.0206274 0)
(0.0420558 -0.0115246 0)
(0.0453088 -0.00637716 0)
(0.0556408 -0.00307236 0)
(0.0693253 0.00046416 0)
(0.0837838 0.00269263 0)
(0.0864587 0.00495036 0)
(0.0748812 0.00224949 0)
(0.0689527 -0.00284683 0)
(0.0728652 -0.00761055 0)
(0.0853138 -0.012655 0)
(0.104464 -0.0195376 0)
(0.126204 -0.0308382 0)
(0.1513 -0.0459604 0)
(0.18225 -0.0702605 0)
(0.226501 -0.100242 0)
(0.0120122 -0.0843977 0)
(0.00249798 -0.0511968 0)
(0.00375945 -0.064547 0)
(0.00907645 -0.0832612 0)
(0.0157023 -0.0806213 0)
(0.0230026 -0.0655259 0)
(0.0303049 -0.049753 0)
(0.04376 -0.0334189 0)
(0.0687564 -0.0216209 0)
(0.0950432 -0.0278482 0)
(0.125095 -0.0355362 0)
(0.163751 -0.0367868 0)
(0.201335 -0.0333388 0)
(0.229901 -0.0132638 0)
(0.252382 0.0237611 0)
(0.182627 0.0147534 0)
(0.102406 -0.0165166 0)
(0.042647 -0.0483003 0)
(-0.00564762 -0.0763212 0)
(0.000370342 -0.0816726 0)
(-0.0188737 -0.076044 0)
(0.00283814 -0.079606 0)
(-0.0727113 -0.161152 0)
(0.0125714 -0.054438 0)
(0.0292637 -0.0459898 0)
(0.0526213 -0.0575975 0)
(0.0399858 -0.0691522 0)
(0.0193175 -0.0702736 0)
(0.0231092 -0.0581564 0)
(0.045754 -0.0561221 0)
(0.071458 -0.053789 0)
(0.0973611 -0.0492658 0)
(0.120116 -0.0533983 0)
(0.141166 -0.0632862 0)
(0.164551 -0.0659408 0)
(0.181699 -0.0545278 0)
(0.18649 -0.0139796 0)
(0.174618 0.0776547 0)
(0.115639 0.107216 0)
(0.0560307 0.0967912 0)
(-0.0621985 0.0700025 0)
(-0.2134 0.00184886 0)
(-0.296691 -0.0123882 0)
(-0.444534 0.00538781 0)
(-0.397229 -0.162148 0)
(-0.298753 -0.223344 0)
(0.0291094 -0.11238 0)
(0.0616321 -0.0831121 0)
(0.0743533 -0.0664815 0)
(0.0761424 -0.0522716 0)
(0.0759723 -0.0610355 0)
(0.0752328 -0.0721495 0)
(0.0771355 -0.077707 0)
(0.0850535 -0.0729063 0)
(0.102742 -0.0615335 0)
(0.120754 -0.0623742 0)
(0.130919 -0.0782378 0)
(0.13382 -0.0787805 0)
(0.124762 -0.0598278 0)
(0.102408 -0.00812591 0)
(0.0808022 0.0978444 0)
(0.0541324 0.15014 0)
(0.0192154 0.174915 0)
(-0.0757827 0.211594 0)
(-0.209999 0.137877 0)
(-0.28103 0.0848882 0)
(-0.326216 0.0408962 0)
(-0.321993 -0.140992 0)
(-0.303476 -0.239086 0)
(0.00968797 -0.151004 0)
(0.0392488 -0.107602 0)
(0.0557305 -0.079095 0)
(0.0688338 -0.0650563 0)
(0.0785769 -0.0665525 0)
(0.0846444 -0.0764419 0)
(0.0884852 -0.0900448 0)
(0.0917254 -0.0980492 0)
(0.0955297 -0.0938254 0)
(0.0969486 -0.0841191 0)
(0.0930479 -0.0813744 0)
(0.0728061 -0.0725628 0)
(0.0475007 -0.0398994 0)
(0.0308204 0.0205879 0)
(0.0190106 0.110324 0)
(0.0031266 0.174906 0)
(-0.0237458 0.225984 0)
(-0.0788968 0.296428 0)
(-0.154851 0.225173 0)
(-0.197134 0.139974 0)
(-0.225165 0.0593499 0)
(-0.243133 -0.146168 0)
(-0.254274 -0.251257 0)
(-0.00102731 -0.16537 0)
(0.0148501 -0.122035 0)
(0.0272853 -0.0940483 0)
(0.0408053 -0.0794739 0)
(0.0523377 -0.0765814 0)
(0.0598764 -0.0804842 0)
(0.0631672 -0.0863722 0)
(0.0626834 -0.0873661 0)
(0.0594918 -0.0808722 0)
(0.0529794 -0.0705358 0)
(0.0400722 -0.0589775 0)
(0.0196833 -0.0416012 0)
(-9.11469e-05 -0.0159713 0)
(-0.0199689 0.0381296 0)
(-0.033391 0.120202 0)
(-0.0473061 0.197148 0)
(-0.0698362 0.264595 0)
(-0.0843573 0.33124 0)
(-0.0918374 0.264735 0)
(-0.099416 0.164432 0)
(-0.100023 0.0844328 0)
(-0.137674 -0.11297 0)
(-0.186326 -0.249262 0)
(-0.0113846 -0.165222 0)
(-0.00638883 -0.129106 0)
(-0.00121486 -0.104662 0)
(0.00692377 -0.0907467 0)
(0.0148884 -0.085407 0)
(0.0201175 -0.0852758 0)
(0.0213268 -0.0862042 0)
(0.0186978 -0.083063 0)
(0.0136593 -0.0737233 0)
(0.00671542 -0.059742 0)
(-0.00324407 -0.0426532 0)
(-0.0177214 -0.0229822 0)
(-0.0391399 0.00332466 0)
(-0.0638475 0.0562523 0)
(-0.0795346 0.13332 0)
(-0.0854582 0.213396 0)
(-0.086382 0.279304 0)
(-0.066053 0.314756 0)
(-0.0391834 0.250941 0)
(-0.0271049 0.160476 0)
(-0.0180963 0.0832547 0)
(-0.0290185 -0.0425189 0)
(-0.0731591 -0.211403 0)
(-0.0190804 -0.151535 0)
(-0.0237872 -0.126507 0)
(-0.0263702 -0.107648 0)
(-0.0252941 -0.0958712 0)
(-0.0229619 -0.0897841 0)
(-0.0218044 -0.0869823 0)
(-0.0233237 -0.084345 0)
(-0.0275898 -0.07838 0)
(-0.0334951 -0.0673905 0)
(-0.0403664 -0.0518058 0)
(-0.0488379 -0.0318538 0)
(-0.0601951 -0.00661296 0)
(-0.0754251 0.027316 0)
(-0.0909512 0.077087 0)
(-0.0977054 0.141229 0)
(-0.0916351 0.206556 0)
(-0.0724123 0.257699 0)
(-0.0336366 0.274759 0)
(0.00209697 0.22273 0)
(0.019914 0.148836 0)
(0.027996 0.074731 0)
(0.0262561 -0.0210203 0)
(-0.00622604 -0.137914 0)
(-0.0242511 -0.128428 0)
(-0.0366267 -0.114964 0)
(-0.0462044 -0.10283 0)
(-0.0518249 -0.0944079 0)
(-0.0551581 -0.089012 0)
(-0.0582611 -0.0850519 0)
(-0.0624793 -0.0803861 0)
(-0.0680291 -0.0727658 0)
(-0.0743264 -0.0609103 0)
(-0.0809333 -0.0445863 0)
(-0.0879624 -0.0235342 0)
(-0.0956987 0.00320579 0)
(-0.103752 0.0377354 0)
(-0.108793 0.0825791 0)
(-0.10483 0.134953 0)
(-0.0878991 0.18555 0)
(-0.0572799 0.222258 0)
(-0.0137003 0.230673 0)
(0.0251487 0.194296 0)
(0.0466241 0.135776 0)
(0.0550441 0.0679873 0)
(0.0514451 -0.0104184 0)
(0.025269 -0.0978734 0)
(-0.027275 -0.0988097 0)
(-0.0448487 -0.0966225 0)
(-0.0597437 -0.0915549 0)
(-0.0706844 -0.0871894 0)
(-0.0786689 -0.0835381 0)
(-0.0853243 -0.0797427 0)
(-0.0917905 -0.0744915 0)
(-0.0983741 -0.0663872 0)
(-0.104801 -0.0544914 0)
(-0.110721 -0.0383696 0)
(-0.115889 -0.0176442 0)
(-0.119921 0.00829443 0)
(-0.121781 0.0402715 0)
(-0.118759 0.0785298 0)
(-0.107076 0.120075 0)
(-0.0842709 0.158061 0)
(-0.0506859 0.183648 0)
(-0.0100583 0.18764 0)
(0.026703 0.162671 0)
(0.049555 0.119624 0)
(0.0596566 0.0656949 0)
(0.0561737 0.00288779 0)
(0.0342685 -0.0636334 0)
(-0.0283828 -0.0657489 0)
(-0.0487324 -0.0738894 0)
(-0.0669712 -0.0757131 0)
(-0.0815164 -0.0757135 0)
(-0.0927923 -0.0745314 0)
(-0.102015 -0.0719199 0)
(-0.110113 -0.0672087 0)
(-0.117396 -0.0596022 0)
(-0.123729 -0.0484908 0)
(-0.128786 -0.0335158 0)
(-0.132133 -0.0144175 0)
(-0.13311 0.00902069 0)
(-0.130579 0.0368224 0)
(-0.122587 0.0682565 0)
(-0.106936 0.100597 0)
(-0.0825369 0.128935 0)
(-0.0504786 0.147223 0)
(-0.0145793 0.149793 0)
(0.017938 0.133393 0)
(0.0405873 0.102814 0)
(0.0517124 0.0622234 0)
(0.050388 0.0143371 0)
(0.0346056 -0.036543 0)
(-0.0277385 -0.0318892 0)
(-0.0487224 -0.0491043 0)
(-0.0684046 -0.0572636 0)
(-0.0848699 -0.0615632 0)
(-0.0980889 -0.0632 0)
(-0.108898 -0.0624192 0)
(-0.118004 -0.0590303 0)
(-0.125662 -0.052675 0)
(-0.131778 -0.043041 0)
(-0.13605 -0.0299444 0)
(-0.138001 -0.0133154 0)
(-0.136948 0.00675998 0)
(-0.13193 0.0298884 0)
(-0.121665 0.0550336 0)
(-0.104993 0.0799633 0)
(-0.081661 0.101243 0)
(-0.0529841 0.114899 0)
(-0.0220981 0.117455 0)
(0.00612037 0.107218 0)
(0.0272065 0.0860436 0)
(0.0390249 0.0565649 0)
(0.0404049 0.021071 0)
(0.0294326 -0.0172892 0)
(-0.0254936 0.000652285 0)
(-0.0453197 -0.0243556 0)
(-0.0648247 -0.0379848 0)
(-0.0817536 -0.0461784 0)
(-0.0957528 -0.0506456 0)
(-0.107299 -0.0520016 0)
(-0.116871 -0.0503935 0)
(-0.124637 -0.0457726 0)
(-0.13051 -0.0380704 0)
(-0.13422 -0.0272841 0)
(-0.135337 -0.0135158 0)
(-0.133279 0.00295926 0)
(-0.127338 0.0215767 0)
(-0.116737 0.0413068 0)
(-0.100948 0.0604246 0)
(-0.0801357 0.0765616 0)
(-0.0555343 0.0871293 0)
(-0.0295509 0.0899527 0)
(-0.0055182 0.0839769 0)
(0.0134125 0.0699719 0)
(0.0252074 0.0494697 0)
(0.0285317 0.0242158 0)
(0.0217117 -0.00310975 0)
(-0.021933 0.0297159 0)
(-0.0390955 -0.00145309 0)
(-0.0571344 -0.0193399 0)
(-0.0733776 -0.0307235 0)
(-0.0872476 -0.0377582 0)
(-0.0988591 -0.0412843 0)
(-0.108463 -0.0416477 0)
(-0.116133 -0.0389974 0)
(-0.121776 -0.0334412 0)
(-0.125164 -0.0251216 0)
(-0.125949 -0.0142656 0)
(-0.123688 -0.00124592 0)
(-0.117901 0.0133387 0)
(-0.108162 0.0285816 0)
(-0.0942917 0.0431881 0)
(-0.076624 0.0555346 0)
(-0.0562003 0.063926 0)
(-0.0348051 0.0669746 0)
(-0.0147589 0.0639891 0)
(0.00166695 0.0552715 0)
(0.0127112 0.0417465 0)
(0.017001 0.0247934 0)
(0.0131603 0.00673304 0)
(-0.0169176 0.0537203 0)
(-0.030676 0.0182236 0)
(-0.0463224 -0.00241165 0)
(-0.0610559 -0.0160464 0)
(-0.0741333 -0.0252036 0)
(-0.085297 -0.0307431 0)
(-0.0945874 -0.0330661 0)
(-0.101992 -0.0324207 0)
(-0.10741 -0.0290255 0)
(-0.110652 -0.0231226 0)
(-0.111454 -0.0150156 0)
(-0.109503 -0.00511435 0)
(-0.104494 0.00601525 0)
(-0.0962179 0.017616 0)
(-0.08468 0.0287266 0)
(-0.0702477 0.038232 0)
(-0.0537532 0.0450162 0)
(-0.0364997 0.0481811 0)
(-0.0201255 0.0472675 0)
(-0.00629396 0.0424 0)
(0.00355672 0.0341781 0)
(0.00825759 0.0236835 0)
(0.00685455 0.0128349 0)
(-0.0117583 0.0716415 0)
(-0.0213383 0.033667 0)
(-0.0337233 0.0119816 0)
(-0.046275 -0.00276298 0)
(-0.0580315 -0.0134921 0)
(-0.0683125 -0.0207652 0)
(-0.0769826 -0.0248877 0)
(-0.0839522 -0.026127 0)
(-0.0891073 -0.0247588 0)
(-0.0922866 -0.0210831 0)
(-0.0932906 -0.0154419 0)
(-0.0919039 -0.00824605 0)
(-0.0879412 -2.08617e-06 0)
(-0.0813173 0.0086735 0)
(-0.0721218 0.0170652 0)
(-0.0606946 0.0244012 0)
(-0.0476802 0.0299421 0)
(-0.0340223 0.0331043 0)
(-0.0208821 0.0335866 0)
(-0.00946919 0.031453 0)
(-0.00088046 0.0271146 0)
(0.00403542 0.0213612 0)
(0.00478034 0.0154737 0)
(-0.0076321 0.083094 0)
(-0.0128988 0.0441684 0)
(-0.0213284 0.0227749 0)
(-0.0307787 0.00844626 0)
(-0.0405826 -0.00314566 0)
(-0.0495186 -0.0117366 0)
(-0.0572502 -0.0173626 0)
(-0.0635957 -0.0202398 0)
(-0.0684033 -0.0206551 0)
(-0.0715147 -0.0189298 0)
(-0.0727667 -0.0154143 0)
(-0.0720055 -0.0104987 0)
(-0.0691188 -0.0046245 0)
(-0.0640823 0.00171157 0)
(-0.0570111 0.0079736 0)
(-0.048195 0.0136197 0)
(-0.0381213 0.0181543 0)
(-0.027468 0.0211984 0)
(-0.0170533 0.0225579 0)
(-0.00773762 0.0222723 0)
(-0.000308416 0.0206148 0)
(0.0046748 0.0180914 0)
(0.0069766 0.0153889 0)
(-0.00358215 0.0901856 0)
(-0.00453547 0.050203 0)
(-0.00970341 0.0295188 0)
(-0.0158842 0.0168295 0)
(-0.0231363 0.00525874 0)
(-0.0302881 -0.00406081 0)
(-0.036789 -0.0107529 0)
(-0.0423253 -0.0149135 0)
(-0.0466743 -0.0167919 0)
(-0.0496522 -0.0166927 0)
(-0.0511036 -0.0149477 0)
(-0.050905 -0.0119106 0)
(-0.0489803 -0.00795909 0)
(-0.04533 -0.0034915 0)
(-0.0400606 0.00108673 0)
(-0.0334043 0.0053889 0)
(-0.0257242 0.00907736 0)
(-0.0175021 0.011903 0)
(-0.00930873 0.0137405 0)
(-0.00174265 0.0146123 0)
(0.00465053 0.0146827 0)
(0.00951507 0.0142291 0)
(0.012727 0.0135355 0)
(0.00370918 0.0904756 0)
(0.00607326 0.0532555 0)
(0.00228476 0.0337649 0)
(-0.00168671 0.0223351 0)
(-0.00641791 0.0114072 0)
(-0.0116387 0.00199305 0)
(-0.0167637 -0.00525454 0)
(-0.0213693 -0.0102871 0)
(-0.0251569 -0.0132725 0)
(-0.0279064 -0.0144623 0)
(-0.0294539 -0.0141445 0)
(-0.0296841 -0.0126244 0)
(-0.028534 -0.0102175 0)
(-0.0260065 -0.00724235 0)
(-0.0221861 -0.00400783 0)
(-0.0172481 -0.000795372 0)
(-0.0114566 0.00216014 0)
(-0.00515167 0.00469112 0)
(0.0012718 0.0067139 0)
(0.00740281 0.00823593 0)
(0.0128696 0.00934199 0)
(0.0174444 0.0101511 0)
(0.0210377 0.0107124 0)
(0.0126332 0.0799558 0)
(0.0169332 0.0538954 0)
(0.0143439 0.0368226 0)
(0.0119865 0.0257641 0)
(0.00912953 0.0155406 0)
(0.00559255 0.00645425 0)
(0.00179803 -0.000920772 0)
(-0.00183104 -0.00644522 0)
(-0.00497135 -0.0101964 0)
(-0.00738279 -0.0123545 0)
(-0.0088915 -0.0131484 0)
(-0.00938023 -0.0128279 0)
(-0.00878518 -0.0116492 0)
(-0.00710055 -0.00986438 0)
(-0.00438432 -0.00771004 0)
(-0.000761067 -0.00539401 0)
(0.00358201 -0.00308342 0)
(0.00840748 -0.000893638 0)
(0.013445 0.00111651 0)
(0.0184146 0.00294217 0)
(0.0230609 0.00461457 0)
(0.0272288 0.0061593 0)
(0.0308371 0.00750379 0)
(0.0155874 0.0609838 0)
(0.0228232 0.0504694 0)
(0.0236611 0.0377992 0)
(0.0234834 0.027513 0)
(0.0223294 0.0180168 0)
(0.0203302 0.00946856 0)
(0.0178502 0.00225634 0)
(0.0152605 -0.00345394 0)
(0.0128732 -0.00767084 0)
(0.0109332 -0.0105061 0)
(0.0096223 -0.0121275 0)
(0.00906509 -0.0127285 0)
(0.00933382 -0.0125097 0)
(0.0104491 -0.0116672 0)
(0.0123801 -0.0103811 0)
(0.0150451 -0.00880587 0)
(0.0183168 -0.00706165 0)
(0.0220334 -0.00523007 0)
(0.0260103 -0.00335423 0)
(0.0300555 -0.00144564 0)
(0.0339901 0.000496321 0)
(0.0376993 0.00244821 0)
(0.0411072 0.00428579 0)
(0.0128025 0.0422752 0)
(0.0229403 0.0429516 0)
(0.0279766 0.0354294 0)
(0.0306744 0.0270372 0)
(0.0316696 0.0187021 0)
(0.0314414 0.0109567 0)
(0.030435 0.00417963 0)
(0.0290316 -0.00143463 0)
(0.0275488 -0.00583779 0)
(0.0262423 -0.00907912 0)
(0.0253064 -0.011267 0)
(0.024879 -0.0125398 0)
(0.0250471 -0.0130467 0)
(0.0258501 -0.0129347 0)
(0.0272834 -0.0123379 0)
(0.0293012 -0.0113698 0)
(0.0318227 -0.0101163 0)
(0.0347404 -0.00863441 0)
(0.0379294 -0.00695491 0)
(0.0412573 -0.00509076 0)
(0.0445962 -0.00305525 0)
(0.0478547 -0.000891972 0)
(0.0509665 0.00126239 0)
(0.0092213 0.0275783 0)
(0.0201763 0.0328722 0)
(0.028084 0.0296717 0)
(0.0334633 0.0238662 0)
(0.0367413 0.0172485 0)
(0.0384407 0.0106868 0)
(0.03905 0.00466439 0)
(0.0389728 -0.000558247 0)
(0.0385418 -0.00486827 0)
(0.0380265 -0.0082519 0)
(0.0376367 -0.0107583 0)
(0.0375271 -0.012472 0)
(0.0378023 -0.0134931 0)
(0.0385223 -0.0139237 0)
(0.0397072 -0.0138583 0)
(0.0413418 -0.0133759 0)
(0.0433813 -0.0125351 0)
(0.0457582 -0.0113732 0)
(0.0483904 -0.00990919 0)
(0.0511862 -0.00815258 0)
(0.0540528 -0.006119 0)
(0.0569145 -0.00385518 0)
(0.0597191 -0.00148975 0)
(0.00698336 0.0156937 0)
(0.0171171 0.0220557 0)
(0.0260979 0.0217521 0)
(0.0331589 0.0184237 0)
(0.0382488 0.0137414 0)
(0.0416699 0.0086294 0)
(0.0438248 0.00363123 0)
(0.0450829 -0.0009339 0)
(0.0457634 -0.00489342 0)
(0.0461351 -0.00817428 0)
(0.046415 -0.0107693 0)
(0.0467698 -0.0127111 0)
(0.04732 -0.0140531 0)
(0.048144 -0.0148561 0)
(0.0492839 -0.015178 0)
(0.0507496 -0.0150676 0)
(0.0525248 -0.0145592 0)
(0.0545725 -0.0136719 0)
(0.0568414 -0.0124127 0)
(0.0592688 -0.010784 0)
(0.0617878 -0.00879664 0)
(0.0643351 -0.00649086 0)
(0.0668746 -0.00397754 0)
(0.00579036 0.00572827 0)
(0.0146877 0.011798 0)
(0.0235431 0.013127 0)
(0.0312212 0.0116809 0)
(0.0373615 0.00874019 0)
(0.0420083 0.00508729 0)
(0.0454054 0.0012262 0)
(0.0478288 -0.00251551 0)
(0.0495445 -0.00593391 0)
(0.0507941 -0.00891381 0)
(0.0517834 -0.0114023 0)
(0.0526797 -0.0133871 0)
(0.053611 -0.0148797 0)
(0.0546688 -0.015903 0)
(0.0559114 -0.016482 0)
(0.0573685 -0.0166372 0)
(0.0590456 -0.0163805 0)
(0.060929 -0.0157138 0)
(0.0629901 -0.014631 0)
(0.0651881 -0.0131248 0)
(0.0674758 -0.0111971 0)
(0.0698016 -0.00887703 0)
(0.072145 -0.00625446 0)
(0.00506483 -0.00290515 0)
(0.0128515 0.00253711 0)
(0.021048 0.00470345 0)
(0.028625 0.00452033 0)
(0.0351286 0.00293843 0)
(0.0404403 0.000555322 0)
(0.0446579 -0.00221998 0)
(0.0479482 -0.00509848 0)
(0.0505024 -0.0078794 0)
(0.0525134 -0.0104304 0)
(0.0541588 -0.0126702 0)
(0.055592 -0.0145532 0)
(0.0569381 -0.0160572 0)
(0.0582931 -0.0171728 0)
(0.0597248 -0.0178958 0)
(0.0612763 -0.0182216 0)
(0.0629687 -0.0181409 0)
(0.0648053 -0.0176387 0)
(0.0667746 -0.0166957 0)
(0.0688526 -0.0152934 0)
(0.0710075 -0.0134226 0)
(0.0731995 -0.0110996 0)
(0.0754221 -0.00839317 0)
(0.0044859 -0.0105449 0)
(0.0113403 -0.00570084 0)
(0.0187208 -0.00312301 0)
(0.0258322 -0.00250153 0)
(0.0322394 -0.00310175 0)
(0.0377574 -0.00447626 0)
(0.0423892 -0.00631578 0)
(0.046213 -0.00838958 0)
(0.0493482 -0.0105241 0)
(0.0519332 -0.0125916 0)
(0.0541081 -0.0145 0)
(0.0560031 -0.0161844 0)
(0.0577309 -0.0175984 0)
(0.0593838 -0.0187078 0)
(0.0610323 -0.0194844 0)
(0.062726 -0.0199014 0)
(0.0644961 -0.019931 0)
(0.0663576 -0.0195421 0)
(0.0683115 -0.0187022 0)
(0.0703463 -0.0173812 0)
(0.0724431 -0.0155585 0)
(0.074573 -0.013237 0)
(0.0767418 -0.0104663 0)
(0.00392449 -0.0173009 0)
(0.00996125 -0.0129768 0)
(0.0165148 -0.0102222 0)
(0.0230135 -0.00910147 0)
(0.0290686 -0.00901811 0)
(0.0344831 -0.00963062 0)
(0.0392108 -0.0107118 0)
(0.0432722 -0.0120896 0)
(0.0467316 -0.013627 0)
(0.0496802 -0.0152141 0)
(0.0522213 -0.0167613 0)
(0.0544583 -0.018196 0)
(0.056487 -0.0194573 0)
(0.0583901 -0.0204936 0)
(0.0602348 -0.0212581 0)
(0.0620722 -0.0217065 0)
(0.0639385 -0.0217944 0)
(0.0658557 -0.0214769 0)
(0.0678338 -0.020709 0)
(0.0698707 -0.0194494 0)
(0.0719577 -0.0176664 0)
(0.0740762 -0.0153503 0)
(0.0762417 -0.0125338 0)
(0.00335058 -0.0231978 0)
(0.00863193 -0.0193491 0)
(0.0143898 -0.0165701 0)
(0.0202307 -0.0151546 0)
(0.0258075 -0.0146051 0)
(0.0309312 -0.0146557 0)
(0.0355336 -0.0151424 0)
(0.039603 -0.0159441 0)
(0.0431674 -0.0169611 0)
(0.0462832 -0.0181064 0)
(0.0490233 -0.0193007 0)
(0.0514667 -0.0204713 0)
(0.0536911 -0.0215507 0)
(0.0557672 -0.0224759 0)
(0.0577553 -0.0231871 0)
(0.0597043 -0.0236263 0)
(0.0616515 -0.0237363 0)
(0.0636227 -0.0234601 0)
(0.0656337 -0.0227419 0)
(0.0676897 -0.02153 0)
(0.0697899 -0.0197828 0)
(0.0719253 -0.0174793 0)
(0.0741188 -0.0146373 0)
(0.00277497 -0.0282427 0)
(0.00734028 -0.0248667 0)
(0.0123397 -0.0221787 0)
(0.0175189 -0.0206125 0)
(0.0225601 -0.0197537 0)
(0.0272855 -0.0193947 0)
(0.0316184 -0.019422 0)
(0.0355309 -0.019758 0)
(0.0390298 -0.0203374 0)
(0.0421487 -0.0210962 0)
(0.044938 -0.0219686 0)
(0.0474574 -0.022886 0)
(0.0497679 -0.0237791 0)
(0.051928 -0.0245786 0)
(0.0539899 -0.025216 0)
(0.0559979 -0.0256236 0)
(0.0579881 -0.0257342 0)
(0.0599881 -0.0254812 0)
(0.0620171 -0.0248 0)
(0.064086 -0.0236303 0)
(0.0662008 -0.0219213 0)
(0.0683605 -0.0196424 0)
(0.070594 -0.0167986 0)
(0.00222018 -0.0324602 0)
(0.00610444 -0.0295725 0)
(0.0103795 -0.0270695 0)
(0.014908 -0.0254608 0)
(0.0193902 -0.0244071 0)
(0.0236572 -0.0237519 0)
(0.0276293 -0.0234259 0)
(0.0312714 -0.0233899 0)
(0.0345795 -0.0236092 0)
(0.0375734 -0.0240415 0)
(0.0402887 -0.0246338 0)
(0.0427701 -0.0253238 0)
(0.0450653 -0.0260428 0)
(0.0472215 -0.0267188 0)
(0.0492825 -0.0272777 0)
(0.0512876 -0.0276454 0)
(0.0532704 -0.0277476 0)
(0.0552586 -0.0275107 0)
(0.0572741 -0.0268631 0)
(0.0593321 -0.0257376 0)
(0.0614445 -0.0240761 0)
(0.0636179 -0.0218397 0)
(0.0658858 -0.0190221 0)
(0.0017034 -0.0359064 0)
(0.00494006 -0.0335089 0)
(0.00852478 -0.0312664 0)
(0.0124221 -0.0297005 0)
(0.0163411 -0.0285374 0)
(0.0201184 -0.0276699 0)
(0.0236733 -0.0270717 0)
(0.0269689 -0.0267404 0)
(0.0299972 -0.0266683 0)
(0.0327707 -0.0268317 0)
(0.0353157 -0.0271893 0)
(0.0376658 -0.0276847 0)
(0.0398582 -0.0282514 0)
(0.0419305 -0.0288162 0)
(0.043919 -0.0293026 0)
(0.0458575 -0.0296321 0)
(0.0477768 -0.0297262 0)
(0.0497044 -0.0295064 0)
(0.0516637 -0.0288964 0)
(0.0536738 -0.0278238 0)
(0.055752 -0.0262251 0)
(0.0579123 -0.0240547 0)
(0.0601926 -0.021296 0)
(0.00122002 -0.0386329 0)
(0.0038367 -0.0367152 0)
(0.00677487 -0.0347989 0)
(0.0100735 -0.0333458 0)
(0.0134422 -0.0321365 0)
(0.0167191 -0.0311166 0)
(0.0198243 -0.0303073 0)
(0.0227239 -0.029742 0)
(0.025411 -0.0294373 0)
(0.0278955 -0.0293846 0)
(0.0301976 -0.0295517 0)
(0.0323432 -0.0298874 0)
(0.0343608 -0.0303274 0)
(0.0362802 -0.0307988 0)
(0.038131 -0.0312241 0)
(0.0399421 -0.0315232 0)
(0.0417413 -0.0316149 0)
(0.0435551 -0.0314184 0)
(0.0454084 -0.0308546 0)
(0.0473237 -0.0298482 0)
(0.0493235 -0.0283321 0)
(0.0514291 -0.0262555 0)
(0.0536835 -0.0235936 0)
(0.000706907 -0.0406159 0)
(0.00274426 -0.039225 0)
(0.00510532 -0.0377132 0)
(0.00786173 -0.0364315 0)
(0.0107131 -0.0352158 0)
(0.0134957 -0.0340807 0)
(0.0161363 -0.0331029 0)
(0.0186099 -0.0323515 0)
(0.0209153 -0.0318633 0)
(0.0230628 -0.0316411 0)
(0.0250691 -0.0316585 0)
(0.0269542 -0.031868 0)