/*--------------------------------*- C++ -*----------------------------------*\
| =========                 |                                                 |
| \\      /  F ield         | OpenFOAM: The Open Source CFD Toolbox           |
|  \\    /   O peration     | Version:  2.3.0                                 |
|   \\  /    A nd           | Web:      www.OpenFOAM.org                      |
|    \\/     M anipulation  |                                                 |
\*---------------------------------------------------------------------------*/
FoamFile
{
    version     2.0;
    format      ascii;
    class       volScalarField;
    location    "0.016";
    object      alpha.water;
}
// * * * * * * * * * * * * * * * * * * * * * * * * * * * * * * * * * * * * * //

dimensions      [0 0 0 0 0 0 0];

internalField   nonuniform List<scalar> 
725
(
1
1
1
0.999944
0.996653
1
1
1
0.999991
0.999996
1
1
1
1.00002
1
1
1
1
1.00001
0.946508
1
1
1
1.00001
0.649464
0.98041
0.980719
0.999717
0.999726
0.999724
0.959122
0.935947
0.965063
0.998173
0.998237
0.997749
0.997752
0.998273
0.998918
0.999308
0.999774
0.999806
0.996004
0.936998
0.934664
0.990694
1
1.00005
1.00008
1.0001
1.0001
1.00009
1.00012
1.0001
1.00005
1.00005
1.00001
0.985292
0.866592
0.8649
0.8649
0.887243
0.993078
0.999806
0.999772
0.999808
0.999847
0.99987
0.998767
0.994829
0.876809
0.682067
0.889786
0.997373
0.999725
0.985037
0.935948
0.952015
0.997027
0.999694
0.999254
0.999696
0.999603
0.996078
0.995203
0.995962
0.99921
0.999925
0.947852
0.934664
0.989223
0.999985
0.999964
0.999941
0.999871
0.999828
0.999004
0.997881
0.997915
0.998003
0.999336
1
0.997357
0.867688
0.8649
0.8649
0.883273
0.99202
0.999843
0.999713
0.999671
0.999632
0.99959
0.99983
0.998421
0.28692
0.395
0.601998
0.926408
0.999587
0.999464
0.959146
0.948403
0.993455
0.999783
0.999704
0.999894
0.999909
0.996353
0.995193
0.995194
0.998171
0.999936
0.970489
0.934751
0.988267
0.99995
0.999925
0.999936
0.999933
0.999964
1.00003
1.00001
0.988474
0.984879
0.987077
0.998009
0.998775
0.887589
0.864901
0.864901
0.894784
0.993993
0.999867
0.999839
0.999841
0.999803
0.999522
0.999371
0.998932
0.0700631
0.337695
0.812203
0.936657
0.932293
0.97573
0.945864
0.932336
0.989724
0.999834
0.999835
0.999713
0.999672
0.999673
0.996928
0.998272
0.999936
0.999935
0.998848
0.950926
0.988987
0.999919
0.999902
0.999919
0.999927
0.999947
1.00001
1.00001
0.995344
0.984813
0.98481
0.990673
0.998781
0.916866
0.864917
0.864901
0.922529
0.998118
0.999874
0.999871
0.999889
0.999965
1
0.998276
0.995691
0.0644648
0.415413
0.814015
0.861966
0.985607
0.989763
0.932527
0.932334
0.97963
0.999835
0.999836
0.999834
0.999186
0.998308
0.994127
0.998679
0.99955
0.999912
0.951758
0.98801
0.994658
0.99985
0.999841
0.99992
0.999939
0.999987
0.999992
1.00002
0.995266
0.984812
0.98481
0.989027
0.99869
0.969769
0.866652
0.869972
0.958252
0.99985
0.999855
0.999824
0.999837
0.999888
1.00005
1
0.99583
0.0285849
0.315615
0.506981
0.792173
0.977807
0.990033
0.938385
0.932334
0.990169
0.999656
0.999572
0.999725
0.999805
0.995349
0.982048
0.982854
0.996421
0.999865
0.78439
0.979559
0.993279
0.999844
0.99977
0.999818
0.999907
0.999924
0.99979
1.00028
0.99655
0.984832
0.98481
0.985049
0.998313
0.999035
0.872086
0.908918
0.98575
0.99968
0.999521
0.999626
0.999705
0.999775
0.999821
0.999747
0.997261
2.0218e-05
0.136056
0.631275
0.97319
0.97913
0.990116
0.990035
0.940834
0.996472
0.997183
0.998741
1.00001
0.999348
0.988722
0.981898
0.98189
0.993751
0.999534
0.784257
0.969916
0.98054
0.997959
0.999792
0.999806
0.999891
0.999904
0.999771
1.00011
0.998816
0.985767
0.984811
0.984818
0.996958
0.999197
0.873068
0.920392
0.99159
0.999753
0.999634
0.999685
0.999742
0.999786
0.999758
0.998912
0.996424
0.0403673
0.186348
0.473839
0.984983
0.985651
0.990119
0.952627
0.982044
0.999419
0.998772
0.99893
0.999844
0.996061
0.981899
0.981889
0.981889
0.99058
0.993699
0.785083
0.935728
0.965583
0.985759
0.998922
1.00004
0.999936
0.999913
0.999701
0.99944
0.999484
0.988135
0.98482
0.986334
0.99728
0.999219
0.879324
0.940671
0.996513
0.999753
0.999691
0.999725
0.999765
0.999808
1.00022
0.998737
0.996318
0.0330369
0.324874
0.459494
0.983963
0.986356
0.990108
0.948059
0.989269
0.999644
0.999597
0.999591
0.999072
0.998844
0.994303
0.981897
0.981927
0.995595
0.954261
0.782527
0.955252
0.937322
0.907139
0.99859
0.99948
0.999995
0.999892
0.999645
0.999418
0.999322
0.989874
0.984852
0.989661
0.998636
0.999222
0.89841
0.964535
0.999181
0.999743
0.999762
0.999796
0.99982
0.999836
1.00002
0.999993
0.997575
0.060728
0.438612
0.48914
0.864872
0.982007
0.988076
0.948278
0.988734
0.999654
0.999635
0.999941
0.999087
0.999955
1.00001
0.985699
0.993628
0.996008
0.913185
0.78174
0.954633
0.724733
0.824009
0.999244
0.999496
0.999827
0.999802
0.999704
0.999752
0.999445
0.994818
0.985002
0.992114
0.999219
0.99922
0.937237
0.986923
0.999995
0.999825
0.999829
0.999827
0.999835
0.999849
0.999865
1.00043
0.998073
1
1
1
1.00002
0.977719
1
1
1
1.00005
1
1
1
1
1.00001
1
1
1
1.00002
1.00004
1
1
1
1.00018
1.00007
1.00001
0.182211
0.523168
0.502583
0.63521
0.982498
0.982459
0.981756
0.997937
0.999002
0.999223
0.999816
0.999978
0.999976
1
0.992626
0.993505
0.998449
0.908015
0.856377
0.806357
0.642617
0.71417
0.991139
0.999831
0.999827
0.999811
0.999863
0.99994
0.999909
0.999086
0.99619
0.996243
0.998911
0.998669
0.999838
0.999971
0.999971
0.999889
0.99985
0.999834
0.999836
0.999855
0.999914
1
0.998193
0.358156
0.622461
0.48764
0.487517
0.920131
0.999807
0.999918
0.999751
0.999673
0.999706
0.999759
0.999824
0.999886
1
0.995607
0.995391
0.999998
0.963282
0.644465
0.641565
0.642041
0.642625
0.963015
0.999861
0.999789
0.999836
0.99986
0.999959
1.00012
0.999771
0.998082
0.997513
0.999125
0.999465
0.999873
0.999868
0.999856
0.999832
0.999808
0.999794
0.999801
0.999822
0.999892
1
0.998317
0.725096
0.791265
0.487558
0.78588
0.786801
0.999917
0.999924
0.999944
0.999877
0.999858
0.999852
0.999867
0.999889
0.999926
0.99985
0.999818
1
0.958679
0.642161
0.641676
0.642248
0.642614
0.930503
0.99995
0.999936
0.999898
0.999898
0.999863
0.999737
0.999573
0.999245
0.999333
0.99941
0.999809
0.999802
0.99991
0.999865
0.999834
0.999804
0.999783
0.99979
0.999888
1.00008
1.00002
0.998371
0.977747
0.897257
0.751654
0.843753
0.870026
0.962343
0.9999
0.999842
0.999873
0.999881
0.999886
0.999897
0.99991
0.999938
0.999897
0.999936
1
0.91681
0.649126
0.642227
0.642598
0.642709
0.903438
0.999969
0.999971
0.999968
0.999949
0.999932
0.999964
0.999883
0.999935
0.999891
0.999814
0.999807
0.999828
0.999816
0.999817
0.999802
0.999763
0.999706
0.999629
0.999532
0.999479
0.999341
0.998428
0.930846
0.867038
0.870156
0.857988
0.853723
0.966197
0.999896
0.999873
0.999922
0.999943
0.999997
1.00002
1.00001
1
0.999973
0.999992
1.00001
0.873347
0.643206
0.642544
0.642628
0.64943
0.936353
0.999842
0.999709
0.999703
0.999677
0.999647
0.999648
0.999671
0.999685
0.999707
0.999742
0.999752
0.999761
0.999793
0.999848
0.999934
1.00002
1.00004
1.00003
0.99999
1.00051
0.997206
0.993252
)
;

boundaryField
{
    AirInlet
    {
        type            fixedValue;
        value           uniform 0;
    }
    WaterInlet
    {
        type            fixedValue;
        value           uniform 1;
    }
    ChannelWall
    {
        type            zeroGradient;
    }
    Outlet
    {
        type            inletOutlet;
        inletValue      uniform 0;
        value           nonuniform List<scalar> 
15
(
0.994829
0.998421
0.998932
0.995691
0.99583
0.997261
0.996424
0.996318
0.997575
0.998073
0.998193
0.998317
0.998371
0.998428
0.993252
)
;
    }
    FrontAndBack
    {
        type            empty;
    }
}


// ************************************************************************* //
