/*--------------------------------*- C++ -*----------------------------------*\
| =========                 |                                                 |
| \\      /  F ield         | OpenFOAM: The Open Source CFD Toolbox           |
|  \\    /   O peration     | Version:  2.3.0                                 |
|   \\  /    A nd           | Web:      www.OpenFOAM.org                      |
|    \\/     M anipulation  |                                                 |
\*---------------------------------------------------------------------------*/
FoamFile
{
    version     2.0;
    format      ascii;
    class       volScalarField;
    location    "0.016";
    object      alpha.water;
}
// * * * * * * * * * * * * * * * * * * * * * * * * * * * * * * * * * * * * * //

dimensions      [0 0 0 0 0 0 0];

internalField   nonuniform List<scalar> 
725
(
1
1
0.999998
1.00003
1
1
1
0.999999
1.00009
0.995108
1
1
1
0.999871
0.999518
1
1
1
0.999938
0.999985
1
1
0.999999
0.99998
0.999985
0.938237
0.699855
0.27235
0.209098
0.788632
0.999995
0.999875
0.999847
0.999846
0.99989
0.999926
0.999946
0.999957
0.99997
0.999987
1.00003
1
0.398743
0.000578634
0.000579145
0.000577789
0.000577815
0.290031
0.999902
0.999902
0.999895
0.99991
0.999943
0.999972
0.999987
0.999993
0.999996
0.999997
0.999998
0.999998
0.999998
0.999999
0.999999
0.999999
0.999999
0.999999
0.999999
1
1
1
0.884201
0.828646
0.211238
0.21288
0.854663
0.999995
0.999894
0.999888
0.999846
0.999814
0.999801
0.999801
0.999809
0.99983
0.999878
0.999985
1
0.358147
0.000578688
0.000578485
0.000577771
0.000577772
0.295175
0.999903
0.999862
0.999746
0.999697
0.999678
0.999682
0.999703
0.999731
0.99976
0.999787
0.999809
0.999829
0.999849
0.999869
0.999887
0.999903
0.999916
0.999928
0.999939
0.99995
0.99996
0.999968
0.999503
0.351723
0.00883487
0.131597
0.829371
0.999996
0.999859
0.999939
0.999878
0.999848
0.999814
0.99979
0.99978
0.999794
0.999847
1.00002
1
0.359228
0.000580484
0.000580533
0.000577871
0.000577773
0.241751
0.946765
0.999866
0.999764
0.999732
0.999695
0.999658
0.999624
0.999594
0.999569
0.99955
0.999539
0.999541
0.999556
0.999585
0.999624
0.999664
0.999699
0.999727
0.999748
0.999769
0.99979
0.999807
0.76512
0.0230016
0.00394204
0.172157
0.834876
0.999998
0.999836
0.999827
0.999872
0.999865
0.99984
0.999809
0.999784
0.999784
0.999865
0.999999
0.987593
0.380709
0.000786502
0.000584076
0.00057921
0.000577913
0.294369
0.923869
0.999849
0.999829
0.999768
0.999732
0.999696
0.999658
0.99962
0.999581
0.999539
0.999494
0.99945
0.999411
0.999382
0.999369
0.999373
0.999387
0.999409
0.999437
0.999477
0.999529
0.999588
0.0535082
0.000145774
0.00260585
0.0984693
0.8743
0.99994
0.999895
0.999859
0.999927
0.999844
0.99984
0.999814
0.999783
0.999775
0.999876
1
0.978753
0.426728
0.00207886
0.000600173
0.000584441
0.000581137
0.237603
0.815822
0.999907
0.99992
0.999891
0.99973
0.999709
0.999668
0.999621
0.999574
0.999527
0.999481
0.999436
0.999392
0.999352
0.999319
0.999295
0.99928
0.999276
0.99928
0.9993
0.999334
0.999379
2.16851e-07
3.9546e-05
0.000176115
0.0461365
0.819271
0.999915
0.99992
0.999908
0.999893
0.999866
0.999849
0.999812
0.999767
0.999768
0.999818
1.00004
0.95431
0.510859
0.00383382
0.000955376
0.000611783
0.00201219
0.314204
0.792219
0.999961
0.999931
0.999686
0.999781
0.999724
0.999691
0.999645
0.999589
0.999531
0.999476
0.999426
0.999381
0.99934
0.999305
0.999279
0.999262
0.999253
0.999251
0.999263
0.99929
0.999331
2.10994e-05
0.000115055
0.0020564
0.195752
0.795337
0.999921
0.999924
0.999912
0.999906
0.999941
0.999845
0.999804
0.999754
0.999758
0.999831
1.00004
0.953898
0.466676
0.0157172
0.00761379
0.00166905
0.00423998
0.35253
0.764285
0.999984
0.999906
0.999753
0.999712
0.999704
0.999683
0.99965
0.999604
0.99955
0.999498
0.99945
0.999409
0.999371
0.999335
0.999301
0.999275
0.999259
0.999257
0.999268
0.999293
0.999331
1.80462e-05
0.000118631
0.00395538
0.258474
0.776724
0.999929
0.999927
0.999916
0.99992
0.999856
0.999839
0.999793
0.999737
0.999746
0.999851
1.00002
0.941214
0.485342
0.00955931
0.00272263
0.00138136
0.00361963
0.384024
0.784272
0.999988
0.99994
0.999806
0.999766
0.999717
0.999661
0.99961
0.999562
0.999516
0.999472
0.999433
0.999395
0.99936
0.999327
0.999298
0.999274
0.999258
0.999254
0.999263
0.999287
0.999323
1.04436e-05
0.000212723
0.0328003
0.303487
0.73258
0.999923
0.999888
0.999919
0.999936
0.999886
0.999845
0.999781
0.99972
0.999732
0.999891
1.00001
0.946597
0.443399
0.00231876
0.000536207
0.00108154
0.00137071
0.338288
0.836473
0.999988
0.99981
0.999801
0.999788
0.99975
0.999701
0.999644
0.999587
0.999533
0.999487
0.999447
0.999411
0.999376
0.99934
0.999307
0.99928
0.999263
0.999258
0.999268
0.999291
0.999327
3.21513e-06
0.000288291
0.115477
0.352182
0.724622
0.999894
0.999884
0.999923
0.999953
0.99989
0.999836
0.999762
0.999703
0.999721
0.999923
1.00004
0.942974
0.37699
0.000523743
0.000491506
0.00346009
0.00164211
0.319271
0.888805
0.999991
0.999781
0.999814
0.999801
0.999763
0.999719
0.999669
0.999616
0.999563
0.999515
0.999478
0.999444
0.999406
0.999367
0.99933
0.999299
0.999281
0.99928
0.999294
0.999319
0.999355
1
1
0.999999
1.00002
1.00001
1
1
0.999999
1.00002
1
1
1
0.999998
1.00002
0.999973
1
1
0.999996
1.00002
1.00001
1
1
0.999994
1.00003
1.00003
0.0494897
0.0415639
0.206478
0.36156
0.683605
0.998487
0.999977
0.999917
1.00001
0.999891
0.99982
0.999741
0.999688
0.999714
0.999932
1
0.986363
0.36879
0.000479256
0.000475705
0.00170733
0.00117074
0.291613
0.913102
0.999994
0.999897
0.99993
0.999806
0.999768
0.999729
0.999694
0.999662
0.999634
0.99961
0.999588
0.999562
0.999532
0.999497
0.999462
0.999431
0.999412
0.999411
0.999423
0.999443
0.999471
0.821243
0.262569
0.26808
0.367684
0.707158
0.9988
0.99999
0.999987
0.999875
0.999832
0.999759
0.999662
0.999627
0.999686
0.999981
1.00001
0.964202
0.304836
0.000469724
0.000470248
0.00047322
0.000645938
0.261496
0.999084
0.999985
0.999911
0.999854
0.999811
0.999769
0.999729
0.999696
0.999666
0.999639
0.999612
0.999587
0.999564
0.999544
0.999531
0.999526
0.999531
0.999548
0.99958
0.999618
0.999657
0.999697
0.999975
0.587329
0.290558
0.497883
0.78602
0.999914
0.99996
0.999875
0.999811
0.999732
0.999632
0.99956
0.999593
0.999755
0.999978
1
0.984031
0.31379
0.000467373
0.000467705
0.000470905
0.000524624
0.229505
0.999989
0.999986
0.999921
0.999834
0.999791
0.999751
0.999713
0.999681
0.999656
0.999638
0.999629
0.999628
0.999635
0.999646
0.99966
0.999678
0.999697
0.999719
0.999742
0.99976
0.999773
0.999779
0.989757
0.956212
0.705061
0.608234
0.852535
0.999945
0.99994
0.999862
0.999739
0.999603
0.999551
0.999594
0.999714
0.999877
0.999999
1
0.984737
0.27626
0.000467328
0.000467357
0.000468313
0.000468096
0.242144
0.999988
0.999987
0.99984
0.999807
0.999784
0.999766
0.999755
0.999754
0.99976
0.999771
0.999785
0.999798
0.999809
0.99982
0.999832
0.999844
0.999858
0.999874
0.999891
0.999906
0.999919
0.999931
0.967548
0.906272
0.709319
0.593663
0.804948
0.999822
0.99993
0.999807
0.999748
0.999813
0.999918
0.999953
0.999972
1.00001
0.999993
1.00001
0.982747
0.302146
0.000467326
0.000467326
0.000467347
0.000467425
0.248345
0.999725
0.999987
0.99991
0.999948
0.99997
0.999977
0.999981
0.999984
0.999988
0.999992
0.999994
0.999995
0.999996
0.999996
0.999996
0.999997
0.999997
0.999998
0.999999
0.999999
0.999999
0.999999
)
;

boundaryField
{
    AirInlet
    {
        type            fixedValue;
        value           uniform 0;
    }
    WaterInlet
    {
        type            fixedValue;
        value           uniform 1;
    }
    ChannelWall
    {
        type            zeroGradient;
    }
    Outlet
    {
        type            inletOutlet;
        inletValue      uniform 0;
        value           nonuniform List<scalar> 
15
(
1
0.999968
0.999807
0.999588
0.999379
0.999331
0.999331
0.999323
0.999327
0.999355
0.999471
0.999697
0.999779
0.999931
0.999999
)
;
    }
    FrontAndBack
    {
        type            empty;
    }
}


// ************************************************************************* //
