/*--------------------------------*- C++ -*----------------------------------*\
| =========                 |                                                 |
| \\      /  F ield         | OpenFOAM: The Open Source CFD Toolbox           |
|  \\    /   O peration     | Version:  2.3.0                                 |
|   \\  /    A nd           | Web:      www.OpenFOAM.org                      |
|    \\/     M anipulation  |                                                 |
\*---------------------------------------------------------------------------*/
FoamFile
{
    version     2.0;
    format      ascii;
    class       volScalarField;
    location    "0.016";
    object      p;
}
// * * * * * * * * * * * * * * * * * * * * * * * * * * * * * * * * * * * * * //

dimensions      [1 -1 -2 0 0 0 0];

internalField   nonuniform List<scalar> 
725
(
545.336
362.155
316.528
328.735
396.429
515.403
363.758
313.607
307.279
359.137
500.401
364.048
307.523
284.619
380.156
497.835
358.971
297.386
232.24
156.712
507.283
352.086
288.106
182.066
567.72
998.463
691.736
186.361
804.409
657.475
625.98
563.885
484.816
471.273
459.246
464.575
477.209
481.554
495.394
518.64
506.617
517.647
498.834
640.776
482.229
279.858
222.098
175.429
146.662
133.993
125.811
123.185
121.897
115.237
124.13
116.851
125.444
95.6083
179.02
229.106
225.227
159.671
41.7732
24.1961
17.0995
13.7253
9.34436
3.08212
-5.07224
10.5334
697.096
-391.097
-267.121
885.754
663.257
541.047
526.711
463.718
462.494
463.083
459.623
469.815
477.354
498.963
507.866
496.293
514.556
503.887
588.017
476.659
273.948
213.001
171.598
145.726
133.692
125.587
124.956
129.328
109.599
116.052
112.403
125.281
92.2274
170.561
229.586
229.675
172.15
29.0778
20.5493
15.9312
13.7349
10.044
3.70164
-0.729467
-5.23865
1632.63
366.06
1168.35
1091.95
670.125
711.46
522.361
477.421
446.479
461.702
459.519
471.826
477.087
498.352
508.779
500.262
517.19
519.128
572.942
439.207
282.515
203.487
165.752
142.737
133.226
125.662
120.584
116.252
158.674
141.057
119.517
117.271
96.2074
109.153
236.266
232.908
139.937
26.4488
20.0681
15.739
12.5556
8.58957
2.67611
-1.70706
-3.0455
2476.33
483.964
851.612
1259.82
1015.74
593.498
493.07
565.324
446.014
457.561
459.704
471.752
473.283
517.153
500.49
493.17
529.703
547.041
767.143
279.341
296.545
186.09
157.977
137.033
132.169
126.566
122.049
118.623
112.706
140.457
129.018
90.2047
88.4219
34.2996
249.638
243.143
76.0357
25.8871
20.7233
16.1093
13.0486
10.0619
1.59004
-1.03913
-8.69839
2547.17
195.164
813.365
1186.63
672.473
589.964
504.646
570.175
472.84
457.941
459.623
473.419
464.616
519.185
490.334
483.178
506.576
574.831
526.293
273.071
352.403
162.381
150.618
128.916
130.811
127.906
123.99
121.369
115.246
137.29
131.926
86.5059
104.114
-6.1181
248.217
220.613
41.3137
25.5094
19.8781
15.768
12.8599
9.47779
1.44816
5.3707
-11.3332
3287.42
-357.842
1298.88
1357.51
528.119
577.212
376.632
547.546
449.588
465.36
459.355
476.354
459.684
538.025
513.176
496.977
459.976
624.451
850.967
96.3618
378.715
128.05
145.068
126.652
131.268
128.522
124.499
129.64
112.792
136.999
138.998
163.322
97.6362
223.466
220.864
132.57
35.9371
29.9365
37.1807
26.3603
19.4698
13.5745
9.27258
3.28982
2.75713
4203.55
4183.74
2533.25
1627.51
451.815
579.012
2086.33
503.469
441.575
545.998
481.048
488.275
451.697
551.56
512.868
502.553
441.658
634.953
867.717
10.1901
372.963
113.339
142.541
124.464
131.723
128.895
124.891
127.51
114.294
130.566
140.239
172.327
113.775
212.986
215.065
109.634
38.0935
31.01
33.1936
24.3917
18.3411
13.4188
10.3904
17.6665
16.2603
3325.58
2576.22
900.754
1966.77
352.787
574.442
811.455
526.628
449.663
496.047
475.724
483.399
549.425
800.675
508.815
498.024
523.183
563.11
868.321
554.187
367.604
97.9911
154.099
131.354
131.803
129.103
125.429
125.553
122.276
124.798
140.564
140.563
108.723
203.527
150.557
76.1725
40.5057
31.8786
33.0512
24.3246
18.3105
13.2769
23.7586
23.6766
19.1929
3294.16
1301.5
1345.67
1689.51
350.751
565.203
963.842
574.498
462.162
499.617
472.144
485.194
457.944
385.39
501.571
487.687
412.551
433.563
954.784
625.891
357.742
101.767
155.918
127.379
133.714
129.126
127.636
126.982
120.83
123.073
139.811
136.075
102.894
196.309
98.5006
51.507
43.4173
32.8299
32.8533
24.2839
18.2547
13.35
15.9658
5.07047
4.53235
3176.13
1323.75
710.403
1002.32
247.769
538.188
917.815
578.87
470.8
502.977
473.144
487.654
453.46
394.688
489.553
488.28
416.178
505.292
956.004
625.826
396.141
187.282
150.439
126.73
130.503
129.018
125.933
116.796
120.001
120.378
138.396
134.749
111.134
189.126
68.9053
36.2368
45.2929
32.6948
32.4407
24.229
18.2073
13.3503
14.4152
7.45317
4.10738
1642.05
1489.91
1431.8
1430.4
1546.13
1632.46
1496.11
1432.12
1407.24
1439.26
1634.84
1500.78
1437.67
1435.56
1398.96
1649.62
1499.79
1439.33
1463.52
1442.07
1679.29
1497.44
1437.95
1462.58
1433.98
2433.79
1247.51
807.541
943.306
334.185
483.523
766.314
608.181
494.31
485.152
474.345
447.426
448.525
412.07
464.48
463.732
429.626
545.644
874.128
560.43
484.968
377.469
120.379
113.43
128.513
129.454
126.043
118.854
115.639
118.867
126.847
130.261
113.401
171.195
53.6407
34.7036
44.8718
35.455
31.2548
24.0369
18.0002
13.4218
12.6628
7.10425
2.50259
1907.67
1059.32
1078.97
2135.44
490.936
486.075
732.503
621.868
519.478
490.168
478.436
454.718
444.482
421.1
450.27
449.391
399.534
254.837
171.3
724.319
482.133
553.22
111.178
120.496
129.674
130.092
127.193
120.898
119.037
119.181
124.833
127.488
116.465
150.721
75.6755
45.9951
45.0444
36.876
30.1686
23.3717
17.4497
12.5971
10.5254
3.83979
1.66034
1351.51
1051.95
907.505
63.2761
1049.47
513.496
684.999
626.69
535.641
497.09
481.112
459.505
444.571
430.114
442.47
452.616
398.62
387.888
299.612
715.775
487.547
520.547
146.752
134.365
134.144
131.353
128.204
121.245
116.895
119.405
123.84
124.423
118.256
138.513
88.8109
56.5464
46.5564
37.4431
29.6913
23.018
17.2418
12.5848
10.101
5.94062
0.691649
1542.76
1210.62
684.403
143.962
659.692
521.284
654.47
620.92
542.905
502.008
483.03
461.1
444.695
433.779
442.028
448.852
399.658
374.566
332.219
680.768
510.462
507.354
231.75
148.881
138.874
133.088
128.827
121.764
118.407
120.565
123.937
123.827
119.671
131.752
95.1959
62.1297
47.164
37.2933
29.4293
23.1804
18.1007
14.8104
11.2663
3.04833
1.31561
1396.17
1142.93
1065.63
269.609
631.955
516.148
643.521
617.748
545.127
504.616
484.495
461.218
444.614
435.931
443.682
448.045
390.328
400.556
366.495
685.134
522.267
477.33
266.459
162.99
142.178
135.78
129.769
122.578
119.309
121.189
123.529
123.228
120.925
130.121
97.8218
63.546
46.2652
36.5294
29.6186
23.9218
18.9296
13.6546
14.2467
9.521
25.8389
)
;

boundaryField
{
    AirInlet
    {
        type            calculated;
        value           nonuniform List<scalar> 5(3602.29 4204.52 3158.47 3330.47 3581.05);
    }
    WaterInlet
    {
        type            calculated;
        value           nonuniform List<scalar> 10(545.338 515.408 500.411 497.849 507.301 1642.04 1632.45 1634.83 1649.61 1679.29);
    }
    ChannelWall
    {
        type            calculated;
        value           nonuniform List<scalar> 
110
(
507.257
352.056
288.072
182.028
567.693
1642.08
1489.94
1431.83
1430.44
1546.17
1679.27
1497.41
1437.91
1462.55
1433.94
1396.13
1142.89
1065.59
269.571
631.917
516.105
643.477
617.704
545.083
504.572
484.45
461.174
444.57
435.887
443.638
448.001
390.284
400.517
366.466
685.106
522.239
477.301
266.417
162.945
142.134
135.735
129.725
122.534
119.265
121.145
123.485
123.184
120.881
130.076
97.7777
63.5018
46.2211
36.4852
29.5745
23.8776
18.8854
13.6105
14.2025
9.47698
25.795
545.362
362.185
316.562
328.773
396.471
998.506
691.779
186.405
804.454
657.519
626.023
563.926
484.859
471.317
459.29
464.619
477.253
481.598
495.438
518.684
506.661
517.691
498.878
640.817
482.27
279.902
222.143
175.473
146.707
134.037
125.855
123.229
121.941
115.281
124.174
116.895
125.488
95.6518
179.058
229.145
225.265
159.71
41.8171
24.2403
17.1436
13.7695
9.3885
3.12626
-5.02815
10.5773
)
;
    }
    Outlet
    {
        type            calculated;
        value           nonuniform List<scalar> 
15
(
-0.043917
-0.132226
-0.220489
-0.307685
-0.39565
-0.450025
-0.469198
-0.488696
-0.508884
-0.52872
-0.582641
-0.670855
-0.759037
-0.847233
-0.930539
)
;
    }
    FrontAndBack
    {
        type            empty;
    }
}


// ************************************************************************* //
