/*--------------------------------*- C++ -*----------------------------------*\
| =========                 |                                                 |
| \\      /  F ield         | OpenFOAM: The Open Source CFD Toolbox           |
|  \\    /   O peration     | Version:  2.3.0                                 |
|   \\  /    A nd           | Web:      www.OpenFOAM.org                      |
|    \\/     M anipulation  |                                                 |
\*---------------------------------------------------------------------------*/
FoamFile
{
    version     2.0;
    format      ascii;
    class       volScalarField;
    location    "0.016";
    object      p;
}
// * * * * * * * * * * * * * * * * * * * * * * * * * * * * * * * * * * * * * //

dimensions      [1 -1 -2 0 0 0 0];

internalField   nonuniform List<scalar> 
725
(
1608.16
1568.38
1547.5
1563.34
1515.25
1602.06
1568.7
1547.17
1555.64
1519.7
1599.42
1568.83
1548.4
1574.08
1525.86
1599.75
1567.27
1545.69
1553.73
1477.36
1603.18
1565.15
1545.31
1549.71
1513.36
1529.61
1174.73
881.96
561.137
170.557
-87.1904
-14.9917
-39.9066
-47.2315
-54.4803
-57.9243
-59.0378
-58.0887
-54.5938
-48.3909
-38.5196
26.4465
34.2197
-84.2101
-83.9001
-83.2218
-83.1439
-39.9119
179.106
54.9794
33.0102
26.475
24.4409
23.0547
21.6011
20.2096
18.9073
17.6372
16.3298
14.9994
13.6318
12.2021
10.714
9.19898
7.73643
6.30683
4.98397
3.60582
2.17979
0.752097
1524.99
1578.02
869.749
520.11
142.796
-79.4135
-14.8468
-42.5192
-48.6688
-55.0196
-58.7145
-59.9786
-59.128
-55.7381
-50.0899
-48.2785
-47.8184
-177.318
-83.2008
-84.7315
-83.0979
-82.1402
-75.7283
110.15
38.149
28.0961
24.4011
23.0562
21.8037
20.4425
19.1545
17.938
16.751
15.5212
14.2606
12.9625
11.6072
10.1943
8.74733
7.33764
5.95174
4.66388
3.32003
1.93387
0.552498
1732.52
877.283
1177.57
607.795
159.313
-71.1777
-19.1147
-45.5751
-50.8874
-56.4454
-59.6003
-60.6836
-59.9585
-56.6852
-51.0264
-57.2465
-69.9174
-226.383
-80.728
-86.6715
-83.0735
-79.6002
-127.289
-35.04
12.552
21.4065
21.9597
22.4147
21.8468
20.7647
19.2818
17.9549
16.7324
15.4781
14.2025
12.8952
11.5315
10.112
8.66113
7.24973
5.86345
4.5908
3.23602
1.83892
0.452817
1228.94
1188.16
1222.07
392.055
116.954
-72.67
-33.2531
-48.5534
-53.9073
-58.1312
-60.9567
-61.9969
-61.4246
-58.1509
-48.5228
-50.9227
-10.6701
-315.113
-75.4431
-89.8254
-83.1791
-75.465
-204.527
-130.388
-15.271
15.1879
19.6678
21.6379
21.5076
20.444
19.0459
17.8367
16.7234
15.5036
14.2192
12.8952
11.5057
10.0531
8.5761
7.15673
5.77636
4.54291
3.17164
1.74012
0.331032
1258.22
1252.84
1234.16
744.042
-364.623
-117.553
-52.1209
-54.234
-57.407
-60.2957
-62.4923
-63.4973
-63.4487
-60.8373
-44.4572
-4.08573
164.64
65.1712
-74.3484
-96.3005
-84.2635
-66.6716
-391.356
-323.281
-34.2355
13.9039
20.2493
21.4829
21.6509
20.4733
18.9622
17.7864
16.7088
15.5082
14.2559
12.9786
11.6863
10.3929
9.056
7.46134
5.72361
4.52429
3.13761
1.6645
0.198146
1183.31
1252.61
1237.44
1032.45
-287.791
-93.3916
-65.6696
-61.0074
-59.8187
-61.7943
-63.4659
-64.5601
-64.9973
-64.3317
-51.2689
-20.0365
106.349
915.728
-82.1399
-104.724
-87.3148
-88.1886
189.351
-61.2203
-76.9215
-1.23102
27.2262
21.7606
21.9551
21.3977
19.9324
18.2631
16.8059
15.4878
14.2559
12.9908
11.6832
10.3733
9.06704
7.91981
6.73532
4.8224
3.36325
1.81469
0.125118
1186.08
1250.08
1224.71
512.133
-279.478
-87.6226
-70.7724
-63.2412
-61.0602
-59.6352
-63.9
-64.9701
-65.5823
-65.6512
-54.8925
-35.9856
77.4892
811.383
-29.8237
99.6534
-84.9996
-106.398
628.91
479.518
-75.4864
-4.39843
24.7399
24.262
22.5949
21.3206
20.0945
18.7215
17.4024
16.0608
14.5083
13.0422
11.6981
10.373
9.05209
7.6823
6.46401
4.61449
3.26096
1.7626
0.0988771
1186.85
1249.99
1199.62
533.026
-291.564
-88.5131
-76.8158
-65.2831
-62.031
-62.8173
-64.26
-65.3648
-66.1902
-66.976
-58.8371
-54.4644
75.2353
838.133
-73.6337
-62.0411
-82.7652
-113.212
1287.03
171.957
-46.2495
-1.66274
24.8108
22.5509
22.2812
22.0586
21.2839
19.5891
17.756
16.156
14.5457
13.0512
11.6877
10.354
9.03125
7.66012
6.43204
4.7041
3.39105
1.93252
0.303206
1186.65
1250.28
1006.99
597.282
-226.986
-96.4797
-83.2161
-67.2513
-62.9561
-64.2675
-64.6204
-65.7479
-66.8111
-68.2824
-62.7473
-69.0959
-46.5761
26.917
-69.0084
-60.2123
-79.0357
-89.8562
142.428
-99.5087
-6.69593
3.13747
25.1555
22.7783
22.3878
21.0887
20.1559
18.7504
17.206
15.7668
14.3472
12.9698
11.635
10.3122
8.99427
7.62572
6.38577
4.67909
3.28785
1.80172
0.179967
1184.97
1250.94
931.317
687.903
-152.811
-103.005
-88.0657
-69.2843
-63.8185
-64.7754
-65.1009
-66.1172
-67.4371
-69.5629
-66.7583
-82.2756
-108.278
-456.421
-58.4963
-60.0083
-84.0356
-75.7284
-206.95
49.0891
24.4278
10.183
25.4873
23.1158
22.5355
21.1841
20.1459
18.6974
17.1346
15.705
14.3077
12.9387
11.6029
10.2773
8.95693
7.59162
6.33791
4.66424
3.24996
1.74491
0.158292
865.075
825.698
810.717
821.302
785.047
861.514
827.355
809.957
818.725
728.855
861.075
828.433
810.956
832.821
752.825
863.634
828.521
810.797
837.509
749.33
869.639
827.872
809.036
832.68
732.887
1197.79
1030.47
926.133
697.557
155.614
-115.129
-102.02
-75.1348
-65.8158
-65.929
-66.1945
-67.1976
-69.2494
-73.2355
-78.7053
-118.37
-294.399
-612.308
-61.9464
-61.5629
-71.7872
-67.2206
-190.31
43.6529
70.34
20.4034
26.3456
24.0984
22.8923
21.4293
20.1667
18.6909
17.131
15.6746
14.2727
12.9002
11.5516
10.2127
8.87593
7.51344
6.19891
4.6238
3.16705
1.66905
0.130642
709.42
724.843
772.049
627.856
1.18388
-148.388
-101.033
-77.1293
-69.6573
-67.8748
-67.6752
-68.7738
-71.6574
-77.8889
-89.084
-128.774
-211.055
-150.837
-65.9178
-64.2732
-73.6614
-70.1534
-139.509
172.488
62.6572
32.1354
28.8875
25.58
23.4646
21.7032
20.2305
18.688
17.1141
15.6357
14.2197
12.8342
11.4725
10.1211
8.77327
7.40641
6.06033
4.54518
3.07124
1.58222
0.080687
889.438
632.181
682.934
269.768
-24.4822
-101.454
-88.3432
-78.2161
-70.9015
-68.8882
-68.0262
-69.0039
-73.4754
-81.946
-95.0024
-128.254
-191.936
-148.824
-67.357
-66.5015
-72.4264
-74.8883
-148.327
138.813
58.837
38.6445
31.5678
26.9732
24.131
22.0466
20.3435
18.6926
17.0865
15.5766
14.1339
12.7358
11.3693
10.0184
8.67163
7.30728
5.95054
4.46558
2.98575
1.49544
0.000539999
885.433
656.546
350.625
35.0785
95.9205
-56.6709
-62.6263
-72.6624
-70.8235
-68.2692
-67.9598
-70.2446
-75.2468
-83.8467
-96.5227
-119.536
-151.812
-133.982
-67.6148
-67.748
-71.3948
-76.1459
-125.051
62.0526
51.2505
42.1582
33.597
28.0425
24.5183
22.0707
20.2414
18.591
17.0013
15.4965
14.053
12.6521
11.2828
9.93133
8.58476
7.22347
5.86089
4.38758
2.90348
1.41179
-0.077824
903.214
565.257
346.329
50.6841
5.02632
-102.11
-79.2238
-76.2209
-71.2274
-69.1662
-67.4068
-69.396
-75.0392
-84.0979
-96.479
-112.926
-109.349
-67.3583
-67.8582
-68.4759
-70.735
-76.0963
-75.9282
48.4621
53.0574
45.1524
35.0971
29.2922
25.5465
23.0065
21.1257
19.4302
17.7954
16.239
14.7418
13.292
11.8791
10.4858
9.09613
7.68902
6.27015
4.73168
3.18354
1.63803
0.0801025
)
;

boundaryField
{
    AirInlet
    {
        type            calculated;
        value           nonuniform List<scalar> 5(1183.31 1187.04 1186.35 1187.26 1184.97);
    }
    WaterInlet
    {
        type            calculated;
        value           nonuniform List<scalar> 10(1608.16 1602.07 1599.43 1599.77 1603.2 865.057 861.5 861.065 863.628 869.637);
    }
    ChannelWall
    {
        type            calculated;
        value           nonuniform List<scalar> 
110
(
1603.15
1565.12
1545.27
1549.67
1513.32
865.101
825.728
810.751
821.34
785.089
869.612
827.842
809.002
832.642
732.844
903.171
565.217
346.298
50.6579
4.99078
-102.154
-79.268
-76.265
-71.2715
-69.2104
-67.4509
-69.4402
-75.0834
-84.1421
-96.5231
-112.97
-109.393
-67.3717
-67.8583
-68.4759
-70.735
-76.0964
-75.9392
48.4179
53.0133
45.1083
35.0529
29.2481
25.5023
22.9624
21.0816
19.3861
17.7513
16.1948
14.6977
13.2479
11.835
10.4417
9.05199
7.64487
6.226
4.68753
3.13939
1.59389
0.0359575
1608.19
1568.42
1547.54
1563.38
1515.29
1529.66
1174.76
881.972
561.146
170.592
-87.1463
-14.9475
-39.8624
-47.1873
-54.4361
-57.8802
-58.9937
-58.0445
-54.5496
-48.3467
-38.4755
26.4907
34.2373
-84.21
-83.9001
-83.2217
-83.1438
-39.899
179.151
55.0235
33.0544
26.5191
24.4851
23.0989
21.6452
20.2537
18.9514
17.6814
16.374
15.0436
13.6759
12.2462
10.7581
9.24312
7.78057
6.35097
5.02811
3.64997
2.22393
0.796242
)
;
    }
    Outlet
    {
        type            calculated;
        value           nonuniform List<scalar> 
15
(
-0.044145
-0.132431
-0.220682
-0.308888
-0.397059
-0.450958
-0.470565
-0.490168
-0.509777
-0.529399
-0.583387
-0.671781
-0.760108
-0.848506
-0.936854
)
;
    }
    FrontAndBack
    {
        type            empty;
    }
}


// ************************************************************************* //
