/*--------------------------------*- C++ -*----------------------------------*\
| =========                 |                                                 |
| \\      /  F ield         | OpenFOAM: The Open Source CFD Toolbox           |
|  \\    /   O peration     | Version:  2.3.0                                 |
|   \\  /    A nd           | Web:      www.OpenFOAM.org                      |
|    \\/     M anipulation  |                                                 |
\*---------------------------------------------------------------------------*/
FoamFile
{
    version     2.0;
    format      ascii;
    class       volScalarField;
    location    "0.016";
    object      p_rgh;
}
// * * * * * * * * * * * * * * * * * * * * * * * * * * * * * * * * * * * * * //

dimensions      [1 -1 -2 0 0 0 0];

internalField   nonuniform List<scalar> 
725
(
545.362
362.185
316.562
328.773
396.471
515.482
363.85
313.71
307.394
359.264
500.534
364.2
307.695
284.81
380.367
498.021
359.185
297.626
232.508
156.992
507.521
352.361
288.416
182.41
567.967
998.506
691.779
186.405
804.454
657.519
626.023
563.926
484.859
471.317
459.29
464.619
477.253
481.598
495.438
518.684
506.661
517.691
498.878
640.817
482.27
279.902
222.143
175.473
146.707
134.037
125.855
123.229
121.941
115.281
124.174
116.895
125.488
95.6518
179.058
229.145
225.265
159.71
41.8171
24.2403
17.1436
13.7695
9.3885
3.12626
-5.02815
10.5773
697.213
-391.007
-267.004
885.887
663.389
541.177
526.835
463.844
462.626
463.215
459.756
469.947
477.487
499.095
507.998
496.425
514.688
504.019
588.142
476.783
274.079
213.134
171.731
145.858
133.825
125.719
125.088
129.46
109.731
116.184
112.535
125.413
92.3595
170.676
229.701
229.789
172.267
29.2092
20.6817
16.0636
13.8673
10.1764
3.83403
-0.597054
-5.10643
1632.7
366.148
1168.48
1092.16
670.346
711.681
522.573
477.631
446.698
461.923
459.74
472.046
477.308
498.572
508.999
500.481
517.41
519.349
573.157
439.413
282.733
203.708
165.972
142.958
133.447
125.882
120.804
116.473
158.892
141.274
119.735
117.492
96.4278
109.348
236.457
233.099
140.135
26.6682
20.2888
15.9597
12.7763
8.81025
2.89673
-1.48647
-2.82501
2476.35
484.069
851.863
1260.11
1016.03
593.8
493.362
565.612
446.32
457.87
460.013
472.061
473.592
517.461
500.798
493.478
530.012
547.35
767.452
279.635
296.851
186.399
158.286
137.342
132.478
126.875
122.358
118.932
113.013
140.761
129.322
90.5109
88.7305
34.583
249.906
243.411
76.3208
26.1955
21.0323
16.4183
13.3576
10.3709
1.89905
-0.730645
-8.3907
2547.19
195.33
813.689
1186.97
672.865
590.357
505.016
570.546
473.229
458.338
460.02
473.816
465.013
519.581
490.729
483.575
506.973
575.228
526.672
273.463
352.798
162.778
151.015
129.313
131.208
128.304
124.387
121.766
115.642
137.681
132.317
86.8989
104.511
-5.73279
248.561
220.959
41.6945
25.9066
20.2754
16.1652
13.2571
9.87505
1.84548
5.768
-10.9375
3287.43
-357.699
1299.11
1357.87
528.56
577.659
377.056
547.967
450.035
465.811
459.806
476.805
460.135
538.474
513.619
497.421
460.426
624.902
851.321
96.8038
379.163
128.501
145.519
127.103
131.72
128.973
124.951
130.091
113.242
137.443
139.443
163.767
98.0867
223.917
221.258
132.98
36.3819
30.3876
37.6317
26.8114
19.9209
14.0256
9.72376
3.74097
3.20716
4203.56
4183.8
2533.55
1627.97
452.276
579.479
2086.79
503.912
442.044
546.468
481.518
488.746
452.167
552.025
513.331
503.016
442.126
635.424
868.087
10.6469
373.425
113.809
143.012
124.935
132.194
129.366
125.362
127.981
114.764
131.03
140.703
172.79
114.245
213.457
215.476
110.068
38.5605
31.4808
33.6643
24.8625
18.8119
13.8896
10.8612
18.1369
16.7295
3325.6
2576.31
900.987
1967.25
353.27
574.928
811.922
527.11
450.153
496.537
476.214
483.889
549.914
801.157
509.297
498.505
523.669
563.598
868.706
554.646
368.077
98.4747
154.589
131.844
132.293
129.593
125.92
126.044
122.766
125.283
141.047
141.047
109.212
204.017
150.989
76.6339
40.9944
32.369
33.5416
24.815
18.8009
13.7673
24.2492
24.1665
19.6816
3294.17
1301.66
1345.91
1690.01
351.254
565.708
964.326
575.003
462.672
500.127
472.654
485.704
458.454
385.898
502.072
488.188
413.059
434.05
955.184
626.378
358.22
102.229
156.428
127.889
134.224
129.636
128.146
127.492
121.34
123.578
140.313
136.58
103.403
196.819
98.9589
51.999
43.927
33.3399
33.3633
24.794
18.7648
13.8601
16.4759
5.58059
5.04123
3176.16
1323.98
710.662
1002.78
248.289
538.712
918.317
579.394
471.329
503.507
473.674
488.184
453.989
395.218
490.075
488.807
416.706
505.776
956.418
626.332
396.525
187.718
150.968
127.26
131.033
129.548
126.462
117.325
120.53
120.905
138.917
135.275
111.663
189.655
69.4018
36.7597
45.8226
33.2244
32.9703
24.7587
18.7369
13.8799
14.9449
7.98314
4.6361
1642.8
1490.62
1432.47
1431.04
1546.72
1633.26
1496.88
1432.86
1407.95
1439.94
1635.69
1501.61
1438.48
1436.35
1399.73
1650.52
1500.68
1440.21
1464.39
1442.92
1680.25
1498.39
1438.89
1463.53
1434.92
2433.89
1247.82
807.835
943.677
334.759
484.097
766.887
608.764
494.893
485.735
474.929
448.01
449.108
412.654
465.059
464.312
430.209
546.174
874.628
560.901
485.343
377.886
120.957
114.014
129.097
130.038
126.627
119.437
116.223
119.45
127.429
130.843
113.984
171.778
54.2243
35.2873
45.4555
36.0387
31.8384
24.6205
18.5838
14.0054
13.2464
7.68795
3.08523
1907.91
1059.74
1079.3
2135.77
491.554
486.747
733.175
622.539
520.15
490.839
479.107
455.39
445.154
421.772
450.939
450.059
400.206
255.485
171.733
724.751
482.565
553.653
111.825
121.168
130.345
130.764
127.865
121.57
119.709
119.852
125.504
128.159
117.136
151.392
76.3474
46.667
45.7163
37.5479
30.8404
24.0435
18.1216
13.2689
11.1974
4.51178
2.33119
1352.06
1052.55
907.877
63.8738
1050.07
514.256
685.759
627.451
536.401
497.851
481.872
460.265
445.331
430.874
443.23
453.376
399.381
388.617
300.1
716.263
488.035
521.035
147.46
135.126
134.904
132.114
128.964
122.005
117.655
120.165
124.6
125.183
119.016
139.273
89.571
57.3066
47.3166
38.2033
30.4514
23.7781
18.0019
13.345
10.8614
6.70091
1.45069
1543.59
1211.38
685.041
144.678
660.431
522.101
655.318
621.768
543.754
502.857
483.879
461.949
445.544
434.628
442.877
449.701
400.507
375.344
332.771
681.314
511.007
507.9
232.517
149.73
139.722
133.937
129.675
122.613
119.256
121.413
124.785
124.676
120.52
132.601
96.0443
62.9781
48.0124
38.1417
30.2777
24.0287
18.9489
15.6586
12.1144
3.89633
2.16284
1397.04
1143.74
1066.45
270.413
632.755
517.053
644.457
618.685
546.064
505.553
485.431
462.155
445.551
436.868
444.619
448.982
391.265
401.374
367.097
685.737
522.869
477.939
267.336
163.926
143.114
136.716
130.706
123.515
120.245
122.126
124.466
124.164
121.861
131.057
98.7584
64.4826
47.2019
37.4662
30.5555
24.8587
19.8665
14.5915
15.184
10.4552
26.7694
)
;

boundaryField
{
    AirInlet
    {
        type            fixedFluxPressure;
        gradient        nonuniform List<scalar> 5(3.14864e+07 96191 -1.67136e+07 3.62942e+06 4.04887e+07);
        value           nonuniform List<scalar> 5(3602.29 4204.52 3158.47 3330.47 3581.05);
    }
    WaterInlet
    {
        type            fixedFluxPressure;
        gradient        nonuniform List<scalar> 10(-0.000355981 -29.1334 -25.5701 2.24704 3.71438 -0.444964 -13.5616 -4.3493 2.47527 2.49845);
        value           nonuniform List<scalar> 10(545.362 515.482 500.533 498.021 507.521 1642.8 1633.26 1635.69 1650.52 1680.25);
    }
    ChannelWall
    {
        type            fixedFluxPressure;
        gradient        uniform 0;
        value           nonuniform List<scalar> 
110
(
507.521
352.361
288.416
182.41
567.967
1642.8
1490.62
1432.47
1431.04
1546.72
1680.25
1498.39
1438.89
1463.53
1434.92
1397.04
1143.74
1066.45
270.413
632.755
517.053
644.457
618.685
546.064
505.553
485.431
462.155
445.551
436.868
444.619
448.982
391.265
401.374
367.097
685.737
522.869
477.939
267.336
163.926
143.114
136.716
130.706
123.515
120.245
122.126
124.466
124.164
121.861
131.057
98.7584
64.4826
47.2019
37.4662
30.5555
24.8587
19.8665
14.5915
15.184
10.4552
26.7694
545.362
362.185
316.562
328.773
396.471
998.506
691.779
186.405
804.454
657.519
626.023
563.926
484.859
471.317
459.29
464.619
477.253
481.598
495.438
518.684
506.661
517.691
498.878
640.817
482.27
279.902
222.143
175.473
146.707
134.037
125.855
123.229
121.941
115.281
124.174
116.895
125.488
95.6518
179.058
229.145
225.265
159.71
41.8171
24.2403
17.1436
13.7695
9.3885
3.12626
-5.02815
10.5773
)
;
    }
    Outlet
    {
        type            totalPressure;
        rho             rho;
        psi             none;
        gamma           1;
        p0              uniform 0;
        value           uniform 0;
    }
    FrontAndBack
    {
        type            empty;
    }
}


// ************************************************************************* //
