/*--------------------------------*- C++ -*----------------------------------*\
| =========                 |                                                 |
| \\      /  F ield         | OpenFOAM: The Open Source CFD Toolbox           |
|  \\    /   O peration     | Version:  2.3.0                                 |
|   \\  /    A nd           | Web:      www.OpenFOAM.org                      |
|    \\/     M anipulation  |                                                 |
\*---------------------------------------------------------------------------*/
FoamFile
{
    version     2.0;
    format      ascii;
    class       surfaceScalarField;
    location    "0.016";
    object      phi;
}
// * * * * * * * * * * * * * * * * * * * * * * * * * * * * * * * * * * * * * //

dimensions      [0 3 -1 0 0 0 0];

internalField   nonuniform List<scalar> 
1380
(
3.12378e-13
1.87622e-13
2.8965e-13
2.27275e-14
2.68052e-13
2.15986e-14
3.71979e-13
-1.03927e-13
6.60291e-13
-2.88311e-13
6.01579e-13
8.60435e-14
6.19273e-13
5.03283e-15
6.02978e-13
3.78943e-14
5.7282e-13
-7.37698e-14
1.73985e-12
-5.0674e-13
6.8343e-13
-9.73869e-14
7.04707e-13
-1.62437e-14
6.13771e-13
1.2883e-13
-1.1829e-13
6.58291e-13
3.06897e-12
-1.44741e-12
5.97415e-13
-1.94802e-13
6.0356e-13
-2.23887e-14
6.65772e-13
6.66179e-14
8.74308e-13
4.49756e-13
1.01905e-12
2.92423e-12
3.05198e-13
2.8281e-13
3.49427e-13
7.99183e-13
1.81823e-12
-9.7067e-13
6.82359e-13
-2.21162e-13
-7.49508e-13
2.91714e-12
-3.1383e-12
-3.80143e-13
3.29728e-12
-6.36478e-13
2.56335e-13
-4.92618e-13
-1.4386e-13
-1.54612e-13
-3.38006e-13
1.11297e-13
-2.65909e-13
1.91837e-13
-8.05402e-14
1.8511e-13
6.72726e-15
1.60057e-13
2.50528e-14
1.41919e-13
1.81382e-14
1.34623e-13
7.29625e-15
1.51351e-13
-1.67288e-14
2.13692e-13
-6.23406e-14
3.36056e-13
-1.22364e-13
7.47087e-13
-4.11031e-13
-1.23095e-12
1.97804e-12
-5.37011e-13
-6.93943e-13
1.12744e-12
-1.66446e-12
1.3305e-12
-2.03059e-13
5.44789e-13
7.85714e-13
-9.66656e-13
1.51145e-12
-3.51822e-13
-6.14834e-13
-6.4998e-14
-2.86824e-13
1.04915e-13
-1.69913e-13
1.49982e-13
-4.5067e-14
1.64024e-13
-1.40424e-14
1.6519e-13
-1.16575e-15
1.58252e-13
6.93833e-15
1.50829e-13
7.42264e-15
1.46382e-13
4.44775e-15
1.44462e-13
1.91988e-15
1.4363e-13
8.31515e-16
1.43994e-13
-3.63551e-16
1.45199e-13
-1.20556e-15
1.46256e-13
-1.05641e-15
1.46217e-13
3.80872e-17
1.44557e-13
1.66003e-15
1.42772e-13
1.78568e-15
1.40416e-13
2.3557e-15
1.40857e-13
-4.41029e-16
1.41891e-13
-1.03385e-15
1.42155e-13
-2.63816e-16
-8.41511e-16
-7.59039e-13
9.34658e-13
3.54301e-12
-5.05155e-12
6.6681e-12
-6.2634e-12
-1.35399e-12
1.13194e-11
-1.26391e-12
1.66256e-13
-7.71144e-13
-6.36627e-13
-2.64014e-13
-8.45137e-13
2.15905e-13
-7.45828e-13
4.07006e-13
-2.71641e-13
4.36628e-13
-2.28938e-14
4.10612e-13
5.10682e-14
3.95665e-13
3.30851e-14
4.06465e-13
-3.50361e-15
4.53997e-13
-6.42608e-14
5.22266e-13
-1.30609e-13
5.83173e-13
-1.83272e-13
1.06963e-12
-8.97487e-13
1.23391e-13
2.92428e-12
-5.75876e-13
5.32196e-15
2.22523e-12
-4.46557e-12
2.57884e-12
-5.56668e-13
1.11027e-12
2.25429e-12
-3.95972e-13
3.01769e-12
-2.42663e-13
-7.68142e-13
-2.29435e-14
-5.06545e-13
2.21483e-13
-4.14339e-13
3.3357e-13
-1.57154e-13
3.83716e-13
-6.41881e-14
4.02052e-13
-1.95018e-14
3.98887e-13
1.01039e-14
3.89535e-13
1.67739e-14
3.83143e-13
1.08399e-14
3.80662e-13
4.4004e-15
3.79725e-13
1.76939e-15
3.80525e-13
-1.16399e-15
3.82687e-13
-3.36758e-15
3.84544e-13
-2.91341e-15
3.84259e-13
3.22619e-16
3.80993e-13
4.92608e-15
3.76869e-13
5.91018e-15
3.72011e-13
7.21273e-15
3.72149e-13
-5.78475e-16
3.73914e-13
-2.79835e-15
3.74427e-13
-7.76991e-16
-6.7965e-16
1.37929e-12
-1.89204e-12
1.17592e-11
-1.54315e-11
1.38031e-11
-8.30734e-12
1.5598e-12
2.35627e-11
-9.87464e-13
2.71352e-12
-4.94116e-13
-1.12997e-12
-3.59556e-14
-1.3033e-12
3.68853e-13
-1.15064e-12
5.70279e-13
-4.73067e-13
6.16182e-13
-6.87967e-14
5.9996e-13
6.72907e-14
5.91071e-13
4.19735e-14
6.10302e-13
-2.27346e-14
6.55087e-13
-1.09046e-13
6.79967e-13
-1.55489e-13
6.01174e-13
-1.04479e-13
1.42237e-12
-1.71868e-12
4.13658e-12
2.10071e-13
2.82658e-12
1.31532e-12
2.71527e-12
-4.35425e-12
2.74628e-12
-5.87681e-13
2.0035e-12
2.99706e-12
2.29883e-12
2.72236e-12
1.1188e-12
4.11885e-13
4.4859e-13
1.63664e-13
4.05192e-13
-3.7094e-13
4.8432e-13
-2.36282e-13
5.44129e-13
-1.23997e-13
5.74145e-13
-4.95186e-14
5.81221e-13
3.02839e-15
5.72855e-13
2.51403e-14
5.67251e-13
1.64435e-14
5.65999e-13
5.65203e-15
5.65874e-13
1.89434e-15
5.67055e-13
-2.34471e-15
5.6938e-13
-5.69244e-15
5.71183e-13
-4.71728e-15
5.70619e-13
8.87192e-16
5.66762e-13
8.7826e-15
5.61466e-13
1.12068e-14
5.54741e-13
1.39374e-14
5.54263e-13
-1.00301e-16
5.55936e-13
-4.47183e-15
5.56035e-13
-8.75815e-16
4.61823e-17
6.21374e-12
-5.18155e-12
4.49903e-12
-1.37168e-11
-6.33818e-12
2.52987e-12
3.73772e-12
1.34868e-11
6.95166e-13
5.75608e-12
7.80813e-13
-1.21562e-12
6.44115e-13
-1.1666e-12
6.21493e-13
-1.12801e-12
7.05764e-13
-5.57338e-13
7.38807e-13
-1.0184e-13
7.23897e-13
8.22006e-14
7.17961e-13
4.79099e-14
7.31686e-13
-3.64601e-14
7.40856e-13
-1.18215e-13
6.08192e-13
-2.28255e-14
9.58517e-14
4.07862e-13
9.70084e-14
-1.71984e-12
6.97703e-12
-6.66996e-12
7.83922e-12
4.53138e-13
3.0769e-12
4.08074e-13
8.21886e-13
1.66733e-12
6.13981e-12
-2.32085e-12
4.59253e-12
4.26963e-12
2.88216e-12
2.12226e-12
1.31086e-12
1.73496e-12
6.94369e-13
2.4555e-13
6.22924e-13
-1.64838e-13
6.6195e-13
-1.63023e-13
6.91683e-13
-7.92509e-14
7.05003e-13
-1.02915e-14
7.02604e-13
2.75392e-14
6.99964e-13
1.90831e-14
7.01265e-13
4.3509e-15
7.02488e-13
6.71362e-16
7.03809e-13
-3.66613e-15
7.05408e-13
-7.29069e-15
7.06237e-13
-5.54675e-15
7.05414e-13
1.71055e-15
7.01777e-13
1.24196e-14
6.9663e-13
1.63538e-14
6.88313e-13
2.22539e-14
6.87065e-13
1.14755e-15
6.88006e-13
-5.41232e-15
6.87541e-13
-4.11057e-16
1.69352e-15
1.37313e-11
-1.70946e-11
-6.04103e-13
6.18669e-13
-5.23113e-12
7.15689e-12
-2.59843e-12
1.08541e-11
2.60369e-12
5.5396e-13
2.07826e-12
-6.90186e-13
1.31457e-12
-4.02911e-13
8.88056e-13
-7.01504e-13
8.09003e-13
-4.78285e-13
8.09467e-13
-1.02304e-13
7.90814e-13
1.00854e-13
7.8169e-13
5.70338e-14
7.81786e-13
-3.65558e-14
7.53486e-13
-8.99149e-14
5.01836e-13
2.28825e-13
-6.15986e-13
1.52568e-12
-3.87239e-12
1.53657e-12
-5.40306e-12
-5.13928e-12
6.1327e-12
-1.10826e-11
5.42877e-13
5.99789e-12
-6.23783e-12
8.44805e-12
-1.47911e-11
6.23243e-12
5.08592e-12
-1.56074e-11
4.24375e-12
2.96443e-12
2.04523e-12
3.93349e-12
9.95581e-13
1.2952e-12
7.5395e-13
7.67927e-14
7.51356e-13
-1.60429e-13
7.62317e-13
-9.0212e-14
7.72009e-13
-1.9983e-14
7.72613e-13
2.6935e-14
7.75988e-13
1.57079e-14
7.82526e-13
-2.18705e-15
7.87058e-13
-3.8606e-15
7.89419e-13
-6.02728e-15
7.89848e-13
-7.71985e-15
7.88544e-13
-4.24222e-15
7.86642e-13
3.61179e-15
7.86682e-13
1.23795e-14
7.82993e-13
2.00436e-14
7.72921e-13
3.23254e-14
7.70565e-13
3.50346e-15
7.69363e-13
-4.21006e-15
7.68442e-13
5.09996e-16
3.93554e-15
-3.60867e-12
-1.3286e-11
-3.24542e-12
2.55411e-13
-1.73536e-12
5.64683e-12
8.69919e-13
8.24884e-12
9.09409e-13
5.1447e-13
4.63978e-13
-2.44755e-13
2.98007e-13
-2.3694e-13
2.11939e-13
-6.15436e-13
1.85162e-13
-4.51508e-13
1.80803e-13
-9.79446e-14
1.77357e-13
1.04299e-13
1.74472e-13
5.99193e-14
1.7184e-13
-3.3924e-14
1.64871e-13
-8.29459e-14
1.05454e-13
2.88241e-13
-6.61652e-14
1.6973e-12
-8.75717e-13
2.34612e-12
-3.3515e-12
-2.6635e-12
-1.45754e-12
-1.29766e-11
-6.78026e-13
5.21838e-12
-2.07863e-12
9.84865e-12
-4.34456e-12
8.49837e-12
-3.53677e-13
-1.95983e-11
2.16449e-13
2.39431e-12
2.50797e-13
3.89914e-12
1.9593e-13
1.35006e-12
1.81344e-13
9.13791e-14
1.75602e-13
-1.54687e-13
1.73723e-13
-8.83333e-14
1.742e-13
-2.04601e-14
1.75155e-13
2.59798e-14
1.76037e-13
1.48259e-14
1.76968e-13
-3.11852e-15
1.77747e-13
-4.63982e-15
1.78068e-13
-6.3476e-15
1.77932e-13
-7.58386e-15
1.77616e-13
-3.92605e-15
1.77482e-13
3.74495e-15
1.77551e-13
1.23108e-14
1.7745e-13
2.01445e-14
1.7692e-13
3.28556e-14
1.7565e-13
4.77373e-15
1.74853e-13
-3.41292e-15
1.74604e-13
7.5905e-16
4.12984e-15
-4.64577e-12
-8.4402e-12
-3.77369e-12
-6.16663e-13
-4.17485e-12
6.04799e-12
1.52763e-12
2.54635e-12
9.09353e-13
1.13275e-12
4.16136e-13
2.48462e-13
2.93785e-13
-1.14588e-13
2.162e-13
-5.37851e-13
1.86152e-13
-4.21459e-13
1.80622e-13
-9.2415e-14
1.77327e-13
1.07594e-13
1.74369e-13
6.28772e-14
1.70976e-13
-3.05315e-14
1.64873e-13
-7.68424e-14
1.11872e-13
3.41242e-13
6.23991e-14
1.74678e-12
-3.90267e-13
2.79878e-12
-2.19532e-12
-8.58449e-13
-1.56087e-12
-1.3611e-11
-5.24434e-13
4.18194e-12
-1.7227e-12
1.10469e-11
1.98321e-14
6.75584e-12
-1.40707e-12
-1.81714e-11
-5.19905e-13
1.50715e-12
9.23209e-14
3.28691e-12
1.84253e-13
1.25813e-12
1.84282e-13
9.13499e-14
1.78524e-13
-1.48929e-13
1.75313e-13
-8.51226e-14
1.75553e-13
-2.06995e-14
1.76718e-13
2.48147e-14
1.77375e-13
1.41691e-14
1.77805e-13
-3.54859e-15
1.78364e-13
-5.19937e-15
1.78566e-13
-6.54897e-15
1.78305e-13
-7.32296e-15
1.77959e-13
-3.58017e-15
1.77874e-13
3.82992e-15
1.7801e-13
1.21743e-14
1.78108e-13
2.00471e-14
1.77941e-13
3.30222e-14
1.76665e-13
6.04971e-15
1.75717e-13
-2.46453e-15
1.75465e-13
1.01039e-15
4.2238e-15
-5.1636e-12
-3.0766e-12
-3.89285e-12
-1.88741e-12
-3.24822e-12
5.40336e-12
1.24114e-12
-1.94301e-12
6.83416e-13
1.69048e-12
3.24941e-13
6.06938e-13
2.86756e-13
-7.64036e-14
2.19055e-13
-4.7015e-13
1.87113e-13
-3.89517e-13
1.7999e-13
-8.52917e-14
1.76678e-13
1.10906e-13
1.73801e-13
6.57542e-14
1.69998e-13
-2.67278e-14
1.64778e-13
-7.16229e-14
1.24731e-13
3.81289e-13
1.72747e-13
1.69876e-12
-3.30094e-13
3.30162e-12
-2.34903e-12
1.16048e-12
8.52743e-13
-1.68128e-11
2.43418e-13
4.79127e-12
-7.72302e-13
1.20626e-11
7.94244e-12
-1.9589e-12
-8.33132e-14
-1.01456e-11
-6.24256e-13
2.04809e-12
-1.52452e-14
2.6779e-12
1.77876e-13
1.06501e-12
1.86856e-13
8.23703e-14
1.79801e-13
-1.41874e-13
1.75926e-13
-8.12478e-14
1.76404e-13
-2.11775e-14
1.77968e-13
2.32504e-14
1.78793e-13
1.33439e-14
1.78962e-13
-3.71717e-15
1.78954e-13
-5.19099e-15
1.78647e-13
-6.24247e-15
1.78174e-13
-6.85025e-15
1.77799e-13
-3.20431e-15
1.7775e-13
3.8782e-15
1.77943e-13
1.19815e-14
1.78221e-13
1.97691e-14
1.78321e-13
3.2922e-14
1.77272e-13
7.09885e-15
1.76159e-13
-1.35109e-15
1.7568e-13
1.48917e-15
4.0207e-15
-4.79515e-12
1.91856e-12
-3.85666e-12
-2.82591e-12
-7.73697e-13
2.3204e-12
2.62769e-13
-2.97947e-12
2.91661e-13
1.66158e-12
2.30347e-13
6.68251e-13
2.7961e-13
-1.25666e-13
2.20371e-13
-4.10912e-13
1.87332e-13
-3.56479e-13
1.78541e-13
-7.65009e-14
1.75361e-13
1.14087e-13
1.72756e-13
6.83585e-14
1.68688e-13
-2.2659e-14
1.64382e-13
-6.73167e-14
1.38339e-13
4.07332e-13
2.33241e-13
1.60386e-12
-5.87678e-14
3.59363e-12
4.31896e-13
6.6982e-13
6.24668e-13
-1.70056e-11
3.41217e-13
5.07471e-12
3.49399e-12
8.90985e-12
3.48147e-12
-1.94638e-12
3.70409e-13
-7.03458e-12
-4.11681e-13
2.83018e-12
-8.84447e-15
2.27507e-12
1.75299e-13
8.80867e-13
1.88415e-13
6.92545e-14
1.80394e-13
-1.33853e-13
1.75792e-13
-7.66464e-14
1.75692e-13
-2.10775e-14
1.77373e-13
2.15692e-14
1.78359e-13
1.23578e-14
1.78446e-13
-3.80358e-15
1.78297e-13
-5.0418e-15
1.77938e-13
-5.88373e-15
1.77439e-13
-6.35138e-15
1.77076e-13
-2.84103e-15
1.77074e-13
3.8798e-15
1.77324e-13
1.17313e-14
1.77764e-13
1.93298e-14
1.78136e-13
3.25502e-14
1.77334e-13
7.90052e-15
1.7636e-13
-3.77244e-16
1.76057e-13
1.79254e-15
4.06155e-15
-3.63323e-12
5.75179e-12
-1.97456e-12
-4.48458e-12
-1.6284e-13
5.08677e-13
1.39142e-13
-3.28145e-12
6.78341e-14
1.73289e-12
1.85276e-13
5.50809e-13
2.72647e-13
-2.13037e-13
2.20146e-13
-3.58411e-13
1.86041e-13
-3.22374e-13
1.76226e-13
-6.66856e-14
1.73717e-13
1.16596e-13
1.7124e-13
7.08356e-14
1.6711e-13
-1.85294e-14
1.63146e-13
-6.33531e-14
1.5171e-13
4.18768e-13
2.67564e-13
1.488e-12
4.62712e-13
3.39848e-12
6.76593e-12
-5.6334e-12
4.59947e-13
-1.06996e-11
-8.46838e-14
5.61934e-12
3.72402e-12
5.10115e-12
1.71617e-13
1.60603e-12
5.99492e-13
-7.46246e-12
-2.0262e-13
3.63229e-12
2.24333e-14
2.05001e-12
1.75651e-13
7.27649e-13
1.89248e-13
5.56572e-14
1.80127e-13
-1.24732e-13
1.75036e-13
-7.15558e-14
1.74573e-13
-2.0614e-14
1.76219e-13
1.99231e-14
1.77227e-13
1.13501e-14
1.77229e-13
-3.80555e-15
1.76994e-13
-4.80678e-15
1.76606e-13
-5.49628e-15
1.76122e-13
-5.86705e-15
1.75799e-13
-2.51822e-15
1.75847e-13
3.83222e-15
1.76163e-13
1.14151e-14
1.76737e-13
1.87561e-14
1.77377e-13
3.19101e-14
1.76801e-13
8.47642e-15
1.75975e-13
4.48864e-16
1.75691e-13
2.07607e-15
4.1327e-15
3.04231e-13
1.95769e-13
2.71914e-13
3.23163e-14
2.98308e-13
-2.63937e-14
4.86496e-13
-1.88188e-13
2.24432e-13
2.62064e-13
5.97289e-13
9.84802e-14
6.08756e-13
2.08497e-14
6.65495e-13
-8.31326e-14
1.00897e-12
-5.31664e-13
-1.05426e-12
2.28766e-12
6.8403e-13
-8.55503e-14
7.18116e-13
-1.3236e-14
6.82081e-13
-4.70975e-14
3.76215e-13
-2.25797e-13
-5.63091e-13
-1.14956e-13
6.00959e-13
-1.8651e-13
6.13408e-13
-2.56843e-14
5.63405e-13
2.90497e-15
2.31547e-13
1.06061e-13
1.58644e-13
-4.90188e-13
3.1349e-13
2.87806e-13
2.90711e-13
3.96772e-13
5.55416e-13
4.11184e-12
1.90202e-12
8.38932e-13
-1.21168e-12
2.0057e-12
-6.58094e-13
1.2722e-12
-2.54795e-12
5.49646e-13
2.45545e-12
1.0199e-12
8.05553e-14
1.14824e-12
-3.41373e-13
9.725e-13
-1.82674e-13
8.17973e-13
-1.67847e-13
7.62071e-13
-1.0784e-14
7.53572e-13
1.25095e-13
7.46939e-13
7.7469e-14
7.25031e-13
3.37859e-15
6.96078e-13
-3.44005e-14
7.76371e-13
3.38475e-13
1.46092e-12
8.03459e-13
3.22456e-12
1.63484e-12
8.06564e-12
-1.04745e-11
1.59339e-12
-4.22734e-12
2.94589e-12
4.26685e-12
3.07209e-12
4.97495e-12
4.87406e-12
-1.95945e-13
2.01363e-12
-4.60202e-12
1.56415e-13
5.4895e-12
4.67323e-13
1.7391e-12
8.17743e-13
3.77229e-13
8.55393e-13
1.80072e-14
8.00565e-13
-6.99029e-14
7.72399e-13
-4.33901e-14
7.65256e-13
-1.34716e-14
7.72653e-13
1.25262e-14
7.76573e-13
7.43e-15
7.75107e-13
-2.33884e-15
7.73304e-13
-3.00431e-15
7.71447e-13
-3.63878e-15
7.69633e-13
-4.05324e-15
7.68771e-13
-1.65674e-15
7.69529e-13
3.07506e-15
7.7189e-13
9.05375e-15
7.75225e-13
1.54209e-14
7.82118e-13
2.5018e-14
7.81196e-13
9.39835e-15
7.79439e-13
2.2057e-15
7.78802e-13
2.71274e-15
4.87244e-15
1.87164e-12
2.31804e-12
-1.34257e-12
2.00254e-12
-3.57482e-12
1.57416e-12
-2.00432e-12
-4.11846e-12
6.20091e-13
-1.68964e-13
1.23488e-12
-5.34235e-13
9.92803e-13
-9.92957e-14
8.19807e-13
-9.67832e-15
7.05294e-13
-5.3334e-14
6.57848e-13
3.66618e-14
6.6015e-13
1.22793e-13
6.60911e-13
7.67076e-14
6.38893e-13
2.53963e-14
5.97316e-13
7.177e-15
6.07944e-13
3.27847e-13
6.20946e-13
7.90457e-13
1.06291e-12
1.19288e-12
-5.89719e-13
-8.82185e-12
-2.00625e-12
-2.81081e-12
-1.34362e-12
3.60421e-12
-5.1802e-12
8.81153e-12
-6.5609e-12
1.18476e-12
-2.34218e-12
-8.82074e-12
-3.75453e-14
3.18487e-12
6.77164e-13
1.02439e-12
8.02147e-13
2.52246e-13
7.76589e-13
4.3565e-14
7.24811e-13
-1.81257e-14
6.98155e-13
-1.67336e-14
6.8895e-13
-4.26687e-15
6.91881e-13
9.59582e-15
6.93341e-13
5.96906e-15
6.9125e-13
-2.47065e-16
6.89317e-13
-1.0713e-15
6.87571e-13
-1.89259e-15
6.85893e-13
-2.37504e-15
6.85132e-13
-8.95883e-16
6.85999e-13
2.20774e-15
6.88773e-13
6.28035e-15
6.9344e-13
1.07532e-14
7.01492e-13
1.69662e-14
7.0355e-13
7.34063e-15
7.03466e-13
2.28929e-15
7.03502e-13
2.67635e-15
4.73924e-15
1.39394e-12
8.09146e-13
3.72088e-12
-3.24405e-13
1.28201e-12
4.01302e-12
1.28673e-13
-2.96512e-12
6.00107e-13
-6.40398e-13
6.03578e-13
-5.37705e-13
6.04564e-13
-1.00281e-13
5.80481e-13
1.44044e-14
5.19349e-13
7.79869e-15
5.03725e-13
5.22855e-14
5.33849e-13
9.26692e-14
5.421e-13
6.84566e-14
5.32865e-13
3.46305e-14
5.08657e-13
3.13855e-14
5.86862e-13
2.49642e-13
8.04015e-13
5.73303e-13
1.16611e-12
8.30784e-13
-3.76815e-12
-3.88759e-12
-4.08485e-12
-2.49411e-12
-3.07065e-12
2.59e-12
-2.85517e-12
8.59605e-12
-5.31853e-12
3.64811e-12
-2.33387e-12
-1.18054e-11
-6.33343e-14
9.14335e-13
5.32679e-13
4.28382e-13
6.23191e-13
1.61734e-13
6.11351e-13
5.54049e-14
5.82345e-13
1.08797e-14
5.63804e-13
1.80696e-15
5.5637e-13
3.16733e-15
5.57436e-13
8.53004e-15
5.58017e-13
5.38848e-15
5.56561e-13
1.20897e-15
5.55328e-13
1.6201e-16
5.54112e-13
-6.76543e-16
5.52844e-13
-1.10712e-15
5.52326e-13
-3.78516e-16
5.53289e-13
1.24535e-15
5.56151e-13
3.41814e-15
5.61105e-13
5.79939e-15
5.68818e-13
9.253e-15
5.72069e-13
4.08964e-15
5.72917e-13
1.44124e-15
5.73628e-13
1.96493e-15
4.01161e-15
9.49362e-13
-6.30405e-13
3.27677e-12
-2.65181e-12
5.13011e-12
2.15969e-12
1.70642e-12
4.58571e-13
1.04394e-12
2.20843e-14
4.65067e-13
4.11673e-14
3.14927e-13
4.98585e-14
2.96525e-13
3.28071e-14
2.84827e-13
1.94967e-14
3.08539e-13
2.85732e-14
3.54153e-13
4.7055e-14
3.8563e-13
3.69794e-14
3.95434e-13
2.48273e-14
4.00509e-13
2.63103e-14
5.28112e-13
1.22039e-13
7.96035e-13
3.0538e-13
9.99628e-13
6.27192e-13
-3.87915e-13
-2.50005e-12
-2.91015e-12
2.81245e-14
-1.62525e-12
1.3051e-12
3.24341e-12
3.72739e-12
4.88077e-12
2.01076e-12
-1.10514e-12
-5.81949e-12
-1.48363e-13
-4.24473e-14
2.09943e-13
7.00761e-14
3.3506e-13
3.66164e-14
3.66976e-13
2.34894e-14
3.67705e-13
1.01504e-14
3.65014e-13
4.49786e-15
3.64908e-13
3.27323e-15
3.69135e-13
4.30326e-15
3.71873e-13
2.65033e-15
3.72263e-13
8.19417e-16
3.72186e-13
2.38654e-16
3.71668e-13
-1.58047e-16
3.70887e-13
-3.26461e-16
3.70604e-13
-9.53309e-17
3.71435e-13
4.144e-16
3.73764e-13
1.08914e-15
3.77779e-13
1.78423e-15
3.8396e-13
3.07205e-15
3.86843e-13
1.20643e-15
3.87851e-13
4.33592e-16
3.89069e-13
7.46842e-16
2.75723e-15
-7.4989e-14
-2.7268e-12
-5.67117e-13
-1.08546e-13
-8.64616e-14
-4.52943e-14
4.5643e-15
3.73714e-14
5.68681e-14
8.54413e-14
1.32496e-13
1.69476e-13
1.94303e-13
2.20613e-13
3.42652e-13
6.48032e-13
1.27522e-12
-1.22482e-12
-1.1967e-12
1.08406e-13
3.8358e-12
5.84655e-12
2.70665e-14
-1.53806e-14
5.46956e-14
9.13119e-14
1.14801e-13
1.24952e-13
1.29449e-13
1.32723e-13
1.37026e-13
1.39676e-13
1.40496e-13
1.40734e-13
1.40577e-13
1.4025e-13
1.40155e-13
1.40569e-13
1.41658e-13
1.43443e-13
1.46515e-13
1.47721e-13
1.48154e-13
1.48901e-13
)
;

boundaryField
{
    AirInlet
    {
        type            calculated;
        value           nonuniform List<scalar> 5(-2e-13 -2e-13 -2e-13 -2e-13 -2e-13);
    }
    WaterInlet
    {
        type            calculated;
        value           nonuniform List<scalar> 10(-5e-13 -5e-13 -5e-13 -5e-13 -5e-13 -5e-13 -5e-13 -5e-13 -5e-13 -5e-13);
    }
    ChannelWall
    {
        type            calculated;
        value           uniform 0;
    }
    Outlet
    {
        type            calculated;
        value           nonuniform List<scalar> 
15
(
1.42996e-13
3.74265e-13
5.55309e-13
6.85894e-13
7.662e-13
1.7441e-13
1.75371e-13
1.75883e-13
1.76016e-13
1.7562e-13
7.78062e-13
7.03636e-13
5.74356e-13
3.90323e-13
1.51659e-13
)
;
    }
    FrontAndBack
    {
        type            empty;
        value           nonuniform 0();
    }
}


// ************************************************************************* //
