/*--------------------------------*- C++ -*----------------------------------*\
| =========                 |                                                 |
| \\      /  F ield         | OpenFOAM: The Open Source CFD Toolbox           |
|  \\    /   O peration     | Version:  2.3.0                                 |
|   \\  /    A nd           | Web:      www.OpenFOAM.org                      |
|    \\/     M anipulation  |                                                 |
\*---------------------------------------------------------------------------*/
FoamFile
{
    version     2.0;
    format      ascii;
    class       surfaceScalarField;
    location    "0.016";
    object      phi;
}
// * * * * * * * * * * * * * * * * * * * * * * * * * * * * * * * * * * * * * //

dimensions      [0 3 -1 0 0 0 0];

internalField   nonuniform List<scalar> 
1380
(
1.32562e-12
6.74377e-13
1.10446e-12
2.21164e-13
1.04051e-12
6.39486e-14
4.07203e-13
6.33306e-13
-3.89039e-13
7.96242e-13
2.41152e-12
2.62857e-13
2.50244e-12
1.30239e-13
2.61931e-12
-5.29207e-14
2.73163e-12
5.2099e-13
-2.57452e-12
4.91711e-12
2.67868e-12
-4.15824e-13
2.93781e-12
-1.28887e-13
3.07853e-12
-1.93647e-13
2.97622e-12
6.23302e-13
-1.78509e-12
2.18679e-12
2.34854e-12
-7.64362e-13
2.42277e-12
-2.03117e-13
2.39485e-12
-1.65733e-13
2.46123e-12
5.56927e-13
-2.0145e-12
2.69064e-12
1.23564e-12
1.03252e-12
8.66788e-13
1.42371e-12
-5.90785e-13
5.30522e-12
-4.50898e-12
8.09685e-12
-2.79163e-12
4.0422e-12
4.05465e-12
2.75606e-12
1.28614e-12
2.43624e-12
3.19818e-13
2.59087e-12
-1.54624e-13
1.53063e-12
1.06024e-12
1.54675e-12
-1.61248e-14
8.7469e-13
6.72063e-13
4.84717e-13
3.89973e-13
3.21857e-13
1.62858e-13
3.59894e-13
-3.80369e-14
3.9717e-13
-3.72753e-14
4.27891e-13
-3.07213e-14
6.55238e-13
-2.27347e-13
7.27026e-13
-7.17876e-14
1.26637e-12
-5.39343e-13
2.28491e-12
-1.01854e-12
2.41084e-12
-1.25926e-13
1.85728e-12
5.5356e-13
1.3135e-12
5.43783e-13
1.31212e-12
1.37446e-15
1.12741e-12
1.84716e-13
8.42746e-13
2.8466e-13
6.62662e-13
1.80084e-13
5.58548e-13
1.04113e-13
5.60865e-13
-2.31699e-15
5.45891e-13
1.49752e-14
4.61294e-13
8.4597e-14
5.29655e-13
-6.83606e-14
6.58844e-13
-1.29189e-13
1.16405e-12
-5.05208e-13
1.25539e-12
-9.13419e-14
4.73555e-13
7.81839e-13
5.40323e-13
-6.67678e-14
1.12465e-12
-5.84326e-13
1.25501e-12
-1.30366e-13
6.68394e-13
5.8662e-13
4.6159e-13
2.06804e-13
4.35838e-13
2.57518e-14
4.67252e-13
-3.14138e-14
4.88591e-13
-2.13397e-14
4.88783e-13
-1.91227e-16
5.07055e-13
-1.8272e-14
-3.84476e-15
1.17709e-11
-1.13628e-11
9.33586e-12
-3.56552e-13
4.07412e-12
9.31639e-12
4.21007e-12
1.15019e-12
3.45124e-12
1.07866e-12
3.27627e-12
2.034e-14
3.24123e-12
1.09528e-12
2.76799e-12
4.57111e-13
1.90521e-12
1.53484e-12
1.3397e-12
9.5548e-13
1.03907e-12
4.63486e-13
1.06918e-12
-6.81479e-14
1.21847e-12
-1.86562e-13
1.38893e-12
-2.01183e-13
1.61596e-12
-4.54371e-13
1.68008e-12
-1.35906e-13
2.3547e-12
-1.21396e-12
2.72795e-12
-1.3918e-12
3.08085e-12
-4.78828e-13
1.57323e-12
2.06118e-12
1.72876e-12
3.88256e-13
2.27471e-12
-5.44573e-13
2.32789e-12
1.31534e-13
1.98645e-12
6.26099e-13
1.66927e-12
4.97266e-13
1.53881e-12
2.3457e-13
1.62301e-12
-8.65205e-14
1.707e-12
-6.90151e-14
1.51008e-12
2.81517e-13
1.51145e-12
-6.97246e-14
1.54971e-12
-1.67454e-13
1.8179e-12
-7.73396e-13
1.68266e-12
4.39019e-14
8.15761e-13
1.64874e-12
9.1988e-13
-1.70887e-13
1.24589e-12
-9.10335e-13
9.1756e-13
1.97962e-13
1.0384e-12
4.65775e-13
1.08764e-12
1.57568e-13
1.14438e-12
-3.09912e-14
1.2235e-12
-1.10535e-13
1.27473e-12
-7.2565e-14
1.2209e-12
5.36417e-14
1.03571e-12
1.66919e-13
7.95807e-14
8.0549e-12
-1.72309e-11
1.41817e-13
7.55653e-12
-2.91858e-12
1.23768e-11
1.78866e-12
-3.55705e-12
3.63585e-12
-7.68537e-13
2.83307e-12
8.23124e-13
2.8442e-12
1.08415e-12
2.03558e-12
1.26574e-12
1.9409e-12
1.62952e-12
1.85485e-12
1.04153e-12
1.6563e-12
6.6204e-13
1.67667e-12
-8.85175e-14
1.76459e-12
-2.74485e-13
2.01184e-12
-4.48431e-13
2.219e-12
-6.61535e-13
1.98178e-12
1.01317e-13
2.33275e-12
-1.56494e-12
2.58021e-12
-1.63926e-12
3.45623e-12
-1.35485e-12
1.66178e-12
3.85563e-12
1.71318e-12
3.36855e-13
2.43936e-12
-1.27075e-12
2.84433e-12
-2.73442e-13
2.69386e-12
7.76576e-13
2.39128e-12
7.99845e-13
2.19764e-12
4.28203e-13
2.27009e-12
-1.58961e-13
2.5969e-12
-3.95825e-13
2.76542e-12
1.12994e-13
2.53802e-12
1.57677e-13
2.45929e-12
-8.87311e-14
2.54542e-12
-8.59519e-13
2.24157e-12
3.47747e-13
1.24358e-12
2.64672e-12
1.09024e-12
-1.7546e-14
1.31797e-12
-1.13806e-12
1.04983e-12
4.66098e-13
1.39141e-12
1.24198e-13
1.61267e-12
-6.36928e-14
1.74169e-12
-1.60018e-13
1.83407e-12
-2.02913e-13
1.88895e-12
-1.27439e-13
1.86774e-12
7.48445e-14
1.68293e-12
3.51731e-13
1.40618e-13
5.37797e-12
-1.99182e-11
-3.52653e-12
1.6461e-11
-4.54416e-12
1.33944e-11
8.97058e-13
-8.99828e-12
4.39574e-12
-4.26722e-12
3.76253e-12
1.45634e-12
1.22239e-12
3.62429e-12
3.51512e-13
2.13661e-12
1.36324e-12
6.17795e-13
2.14894e-12
2.55823e-13
2.13301e-12
6.77979e-13
2.22579e-12
-1.81303e-13
2.15541e-12
-2.04105e-13
2.43743e-12
-7.30447e-13
2.67416e-12
-8.98263e-13
1.93538e-12
8.4009e-13
1.50368e-12
-1.13323e-12
1.72851e-12
-1.86409e-12
3.73163e-12
-3.35797e-12
1.94635e-12
5.64091e-12
1.55553e-12
7.27679e-13
2.02616e-12
-1.74138e-12
2.77854e-12
-1.02582e-12
2.94457e-12
6.10541e-13
2.79259e-12
9.51826e-13
2.60639e-12
6.14403e-13
2.6202e-12
-1.72766e-13
2.89195e-12
-6.67579e-13
3.13849e-12
-1.33541e-13
2.98289e-12
3.13278e-13
2.99913e-12
-1.0498e-13
2.8666e-12
-7.26979e-13
2.84314e-12
3.71206e-13
1.5995e-12
3.89036e-12
1.22335e-12
3.58603e-13
9.7418e-13
-8.8889e-13
1.40912e-12
3.11561e-14
1.82631e-12
-2.92989e-13
2.08289e-12
-3.20276e-13
2.22279e-12
-2.99915e-13
2.31586e-12
-2.95988e-13
2.37182e-12
-1.83392e-13
2.34109e-12
1.05572e-13
2.48849e-12
2.0433e-13
3.07557e-13
8.62591e-13
-2.13716e-11
-1.14292e-11
2.87528e-11
-2.74915e-12
4.71439e-12
6.9229e-12
-1.86703e-11
6.1093e-12
-3.45363e-12
4.97982e-12
2.58582e-12
1.60589e-12
6.99821e-12
1.27753e-13
3.61475e-12
1.86708e-12
-1.12153e-12
2.55859e-12
-4.35686e-13
2.48214e-12
7.54425e-13
2.75922e-12
-4.58386e-13
2.83623e-12
-2.8111e-13
3.18969e-12
-1.08391e-12
2.66683e-12
-3.75406e-13
1.33335e-12
2.17358e-12
2.10666e-14
1.79045e-13
1.10062e-12
-2.94364e-12
4.29781e-12
-6.55515e-12
2.64619e-12
7.29253e-12
1.68576e-12
1.68811e-12
1.52335e-12
-1.57898e-12
2.34851e-12
-1.85098e-12
2.77645e-12
1.82601e-13
2.85731e-12
8.70963e-13
2.75302e-12
7.18699e-13
2.70892e-12
-1.28662e-13
2.81756e-12
-7.76226e-13
2.90378e-12
-2.19763e-13
2.92179e-12
2.95276e-13
2.85983e-12
-4.30204e-14
2.72898e-12
-5.96136e-13
2.36362e-12
7.36571e-13
1.49188e-12
4.7621e-12
1.30861e-12
5.41871e-13
1.10984e-12
-6.90118e-13
1.61367e-12
-4.72674e-13
2.18835e-12
-8.6767e-13
2.45368e-12
-5.85606e-13
2.58039e-12
-4.26624e-13
2.63995e-12
-3.55556e-13
2.66916e-12
-2.12594e-13
2.5588e-12
2.1593e-13
2.60663e-12
1.56504e-13
3.32515e-13
-6.65359e-12
-1.4558e-11
-2.3743e-12
2.44735e-11
7.14928e-13
1.62517e-12
1.72693e-12
-1.96823e-11
1.11051e-12
-2.83721e-12
7.59261e-13
2.93708e-12
4.15154e-13
7.34232e-12
3.70747e-13
3.65916e-12
5.39017e-13
-1.2898e-12
5.87884e-13
-4.84553e-13
5.84803e-13
7.57506e-13
6.66039e-13
-5.39622e-13
7.67931e-13
-3.83002e-13
7.80674e-13
-1.09665e-12
5.07681e-13
-1.02412e-13
2.56414e-13
2.42484e-12
-3.09007e-14
4.6636e-13
4.7832e-15
-2.97933e-12
7.3748e-13
-7.28785e-12
5.4578e-13
7.48423e-12
3.14651e-13
1.91923e-12
2.53983e-13
-1.51831e-12
4.05211e-13
-2.00221e-12
5.6196e-13
2.58508e-14
6.11602e-13
8.21321e-13
6.0911e-13
7.21192e-13
5.94925e-13
-1.14478e-13
5.82773e-13
-7.64074e-13
6.27575e-13
-2.64564e-13
6.10124e-13
3.12727e-13
5.06997e-13
6.01071e-14
3.77112e-13
-4.66252e-13
3.93687e-13
7.19996e-13
4.18595e-13
4.7372e-12
2.58386e-13
7.0208e-13
3.07343e-13
-7.39075e-13
4.44996e-13
-6.10328e-13
5.32911e-13
-9.55586e-13
5.84467e-13
-6.37161e-13
6.06365e-13
-4.48522e-13
6.11687e-13
-3.60878e-13
6.03571e-13
-2.04478e-13
6.15472e-13
2.04028e-13
6.4485e-13
1.27126e-13
3.10529e-13
-1.98118e-11
5.41375e-12
-2.85775e-12
7.51949e-12
1.96655e-12
-3.19913e-12
1.32051e-12
-1.90363e-11
9.16297e-13
-2.43299e-12
4.40658e-13
3.41272e-12
4.73525e-13
7.30945e-12
5.09143e-13
3.62354e-12
5.80337e-13
-1.36099e-12
5.9066e-13
-4.94877e-13
5.9828e-13
7.49886e-13
6.95176e-13
-6.36518e-13
8.39709e-13
-5.27534e-13
8.25444e-13
-1.08239e-12
4.9043e-13
2.32602e-13
1.9889e-13
2.71638e-12
-2.22626e-15
6.67476e-13
2.06649e-14
-3.00222e-12
1.61735e-13
-7.42892e-12
4.70083e-13
7.17588e-12
2.62829e-13
2.12649e-12
1.94298e-13
-1.44978e-12
3.50683e-13
-2.15859e-12
5.38864e-13
-1.6233e-13
6.01026e-13
7.59159e-13
6.0602e-13
7.16198e-13
5.90398e-13
-9.88551e-14
5.82679e-13
-7.56355e-13
5.98917e-13
-2.80802e-13
5.93693e-13
3.17951e-13
4.82997e-13
1.70803e-13
2.92988e-13
-2.76243e-13
3.84792e-13
6.28191e-13
5.12395e-13
4.60959e-12
2.73459e-13
9.41016e-13
3.42609e-13
-8.08226e-13
4.78507e-13
-7.46227e-13
5.53075e-13
-1.03015e-12
5.98237e-13
-6.82323e-13
6.1711e-13
-4.67395e-13
6.18787e-13
-3.62555e-13
6.0891e-13
-1.94601e-13
6.22914e-13
1.90025e-13
6.85881e-13
6.4159e-14
2.96895e-13
-2.54015e-12
8.11389e-12
-8.09053e-13
5.7884e-12
1.92214e-12
-5.93032e-12
1.02949e-12
-1.81437e-11
7.33722e-13
-2.13722e-12
4.76286e-13
3.67015e-12
4.96991e-13
7.28875e-12
6.11513e-13
3.50902e-12
6.32271e-13
-1.38175e-12
6.08835e-13
-4.71441e-13
6.04753e-13
7.53968e-13
7.10055e-13
-7.41819e-13
9.63461e-13
-7.8094e-13
8.38884e-13
-9.5781e-13
4.77185e-13
5.94301e-13
1.68631e-13
3.02494e-12
4.65067e-14
7.89601e-13
-2.02134e-13
-2.75358e-12
1.72507e-13
-7.80356e-12
3.35423e-13
7.01297e-12
1.89241e-13
2.27267e-12
9.77233e-14
-1.35826e-12
2.93949e-13
-2.35482e-12
5.14083e-13
-3.82464e-13
5.88937e-13
6.84305e-13
6.01189e-13
7.03946e-13
5.88843e-13
-8.65097e-14
5.7597e-13
-7.43482e-13
5.70042e-13
-2.74874e-13
5.83012e-13
3.04981e-13
4.75658e-13
2.78158e-13
3.28459e-13
-1.29044e-13
3.95698e-13
5.60952e-13
5.91505e-13
4.41379e-12
3.84167e-13
1.14835e-12
3.94694e-13
-8.18752e-13
5.13006e-13
-8.64538e-13
5.73197e-13
-1.09034e-12
6.10064e-13
-7.19191e-13
6.25248e-13
-4.82578e-13
6.2388e-13
-3.61187e-13
6.12831e-13
-1.83552e-13
6.23575e-13
1.79281e-13
6.87325e-13
4.09107e-16
2.76806e-13
1.53993e-12
6.73396e-12
-5.17944e-13
7.84627e-12
-6.46475e-13
-5.80179e-12
8.26173e-13
-1.96163e-11
6.53553e-13
-1.9646e-12
6.75301e-13
3.6484e-12
3.78839e-13
7.58521e-12
6.83995e-13
3.20386e-12
6.59738e-13
-1.35749e-12
6.22211e-13
-4.33914e-13
6.17008e-13
7.59171e-13
7.15372e-13
-8.40183e-13
8.55564e-13
-9.21132e-13
7.48775e-13
-8.51021e-13
4.72862e-13
8.70214e-13
2.89983e-13
3.20782e-12
8.9058e-14
9.90526e-13
4.06915e-13
-3.07144e-12
1.54841e-13
-7.55149e-12
2.69387e-13
6.89842e-12
9.30023e-14
2.44905e-12
2.54341e-14
-1.29069e-12
2.41053e-13
-2.57044e-12
4.87956e-13
-6.29367e-13
5.74714e-13
5.97547e-13
5.95274e-13
6.83386e-13
5.86848e-13
-7.80837e-14
5.68971e-13
-7.25604e-13
5.7407e-13
-2.79973e-13
5.65512e-13
3.13539e-13
4.83665e-13
3.60005e-13
3.74966e-13
-2.03441e-14
4.21759e-13
5.14159e-13
6.15093e-13
4.22045e-12
4.86855e-13
1.27659e-12
4.67949e-13
-7.99847e-13
5.4767e-13
-9.44259e-13
5.92245e-13
-1.13492e-12
6.19947e-13
-7.46893e-13
6.30885e-13
-4.93516e-13
6.26603e-13
-3.56905e-13
6.13646e-13
-1.70594e-13
6.28862e-13
1.64065e-13
6.68737e-13
-3.94662e-14
2.53469e-13
2.42027e-13
6.65194e-12
2.98482e-14
8.05845e-12
-1.13557e-13
-5.65839e-12
3.88885e-13
-2.01187e-11
4.43895e-13
-2.01961e-12
4.78172e-13
3.61413e-12
5.46377e-13
7.51701e-12
6.78231e-13
3.07201e-12
6.69301e-13
-1.34856e-12
6.32642e-13
-3.97255e-13
6.31919e-13
7.59894e-13
6.93977e-13
-9.02241e-13
7.8803e-13
-1.01518e-12
6.84182e-13
-7.47173e-13
4.7556e-13
1.07884e-12
3.52032e-13
3.33134e-12
-8.46218e-15
1.35102e-12
-2.78441e-13
-2.80146e-12
1.66965e-13
-7.99689e-12
3.39707e-13
6.72568e-12
1.93672e-14
2.76939e-12
-2.95487e-14
-1.24177e-12
1.91271e-13
-2.79126e-12
4.58971e-13
-8.97067e-13
5.58816e-13
4.97703e-13
5.8588e-13
6.56322e-13
5.79982e-13
-7.21861e-14
5.57722e-13
-7.03344e-13
5.70714e-13
-2.92965e-13
5.49369e-13
3.34883e-13
4.90807e-13
4.18567e-13
4.07838e-13
6.26254e-14
4.32335e-13
4.89662e-13
6.36226e-13
4.01656e-12
5.57571e-13
1.35525e-12
5.32812e-13
-7.75088e-13
5.83599e-13
-9.95047e-13
6.09215e-13
-1.16054e-12
6.27945e-13
-7.65622e-13
6.3397e-13
-4.99541e-13
6.27137e-13
-3.50072e-13
6.14094e-13
-1.57552e-13
6.26032e-13
1.52127e-13
6.52968e-13
-6.6402e-14
2.33727e-13
1.24038e-12
7.59617e-13
1.05238e-12
1.88001e-13
9.79886e-13
7.24958e-14
1.15472e-12
-1.74836e-13
2.33154e-12
-1.17682e-12
2.35022e-12
4.09397e-13
2.42328e-12
1.14946e-13
2.4939e-12
1.87177e-15
3.04735e-12
-7.28291e-13
5.39805e-13
4.83909e-12
2.67584e-12
-2.66442e-13
2.91293e-12
-1.22144e-13
2.95928e-12
-4.44785e-14
2.48693e-12
-2.55938e-13
-7.11289e-13
3.73802e-12
2.40824e-12
-6.74684e-13
2.48868e-12
-2.02583e-13
2.47865e-12
-3.44527e-14
1.90987e-12
3.12844e-13
5.02638e-14
1.14832e-12
1.32531e-12
1.12273e-12
1.08828e-12
1.40112e-12
1.45139e-12
-2.93743e-12
8.41255e-12
1.1665e-12
3.95452e-12
6.18122e-13
-5.11001e-12
-3.66402e-12
-1.58366e-11
-1.46653e-12
-4.2171e-12
1.06185e-12
1.08576e-12
2.6406e-12
5.93825e-12
3.3814e-12
2.33121e-12
2.93257e-12
-8.9974e-13
2.80379e-12
-2.68475e-13
3.00215e-12
5.61534e-13
2.87047e-12
-7.70557e-13
2.91381e-12
-1.05853e-12
2.39402e-12
-2.27382e-13
2.11763e-12
1.35523e-12
2.25744e-12
3.19153e-12
8.72108e-13
2.73635e-12
-2.56803e-12
6.38685e-13
1.57166e-13
-1.07221e-11
1.61343e-12
5.26942e-12
-6.11334e-13
4.99415e-12
-8.04178e-13
-1.04893e-12
5.23426e-13
-4.11886e-12
1.71836e-12
-2.092e-12
2.30273e-12
-8.66647e-14
2.50836e-12
4.50686e-13
2.50495e-12
-6.87746e-14
2.36307e-12
-5.61464e-13
2.31931e-12
-2.49199e-13
2.29234e-12
3.61852e-13
2.21764e-12
4.9326e-13
2.03914e-12
2.4113e-13
1.92938e-12
5.99421e-13
3.08682e-12
2.85912e-12
3.19728e-12
1.24479e-12
3.01405e-12
-5.91863e-13
3.02157e-12
-1.00257e-12
2.91258e-12
-1.05154e-12
2.89064e-12
-7.43681e-13
2.85576e-12
-4.64662e-13
2.7984e-12
-2.92705e-13
2.73131e-12
-9.04687e-14
2.77406e-12
1.0938e-13
2.72555e-12
-1.78895e-14
1.82085e-13
6.32293e-12
6.92871e-12
7.5305e-12
2.74695e-12
-2.84236e-12
5.26285e-12
-5.61011e-12
-1.30689e-11
-2.34686e-12
-7.48036e-12
9.24998e-14
-1.3536e-12
2.1325e-12
3.89824e-12
2.97099e-12
1.49273e-12
2.56781e-12
-4.96556e-13
2.47199e-12
-1.72655e-13
2.72962e-12
3.03904e-13
2.53212e-12
-5.73058e-13
2.2579e-12
-7.84315e-13
2.06125e-12
-3.07251e-14
2.15597e-12
1.26051e-12
2.75002e-12
2.59748e-12
3.06913e-12
2.41724e-12
3.24147e-12
4.6635e-13
3.05114e-13
-7.78574e-12
5.47929e-13
5.0266e-12
9.90988e-13
4.55109e-12
2.68756e-13
-3.26697e-13
7.4071e-13
-4.59082e-12
1.51885e-12
-2.87014e-12
1.96888e-12
-5.36689e-13
2.19985e-12
2.19716e-13
2.1992e-12
-6.8125e-14
2.02927e-12
-3.91534e-13
1.929e-12
-1.48931e-13
1.99519e-12
2.9566e-13
2.08909e-12
3.99363e-13
2.06994e-12
2.60276e-13
2.12474e-12
5.44624e-13
3.1676e-12
1.81626e-12
3.57071e-12
8.41683e-13
3.42494e-12
-4.46094e-13
3.21898e-12
-7.96603e-13
2.94104e-12
-7.73606e-13
2.74949e-12
-5.52129e-13
2.62223e-12
-3.37404e-13
2.53147e-12
-2.01941e-13
2.48127e-12
-4.02738e-14
2.4978e-12
9.28514e-14
2.45462e-12
2.52889e-14
2.29183e-13
5.73936e-12
4.92737e-12
4.24179e-12
4.24452e-12
5.05776e-12
4.44688e-12
1.16968e-12
-9.18077e-12
-1.76649e-12
-4.54419e-12
-8.80531e-13
-2.23956e-12
1.62732e-12
1.3904e-12
2.37417e-12
7.45875e-13
2.09124e-12
-2.13626e-13
2.0291e-12
-1.10516e-13
2.20479e-12
1.28213e-13
1.98399e-12
-3.52256e-13
1.65331e-12
-4.53636e-13
1.58607e-12
3.6517e-14
1.94289e-12
9.03694e-13
2.71554e-12
1.82483e-12
3.15663e-12
1.97614e-12
4.27434e-12
-6.51352e-13
7.58699e-13
-4.2701e-12
1.97101e-12
3.8143e-12
3.44321e-12
3.07889e-12
2.44795e-12
6.68562e-13
1.85457e-12
-3.99744e-12
1.53301e-12
-2.54858e-12
1.61256e-12
-6.16242e-13
1.7728e-12
5.94758e-14
1.754e-12
-4.93271e-14
1.5885e-12
-2.2603e-13
1.5187e-12
-7.91348e-14
1.6265e-12
1.87863e-13
1.7899e-12
2.35961e-13
1.88186e-12
1.68316e-13
2.07692e-12
3.49569e-13
2.91175e-12
9.81425e-13
3.317e-12
4.36426e-13
3.1866e-12
-3.15685e-13
2.8905e-12
-5.00507e-13
2.55387e-12
-4.36975e-13
2.29926e-12
-2.97517e-13
2.13532e-12
-1.73472e-13
2.02872e-12
-9.53322e-14
1.99052e-12
-2.08211e-15
2.00039e-12
8.29833e-14
1.87691e-12
1.48775e-13
2.23353e-13
3.97942e-12
2.09627e-12
6.64644e-12
1.5775e-12
9.19367e-12
1.89965e-12
4.44429e-12
-4.4314e-12
1.16127e-12
-1.26117e-12
6.91329e-15
-1.0852e-12
1.17117e-12
2.26134e-13
1.65264e-12
2.6441e-13
1.50327e-12
-6.42571e-14
1.44696e-12
-5.42025e-14
1.53661e-12
3.85628e-14
1.31691e-12
-1.32563e-13
1.0223e-12
-1.5902e-13
1.03084e-12
2.79693e-14
1.54644e-12
3.88095e-13
2.52916e-12
8.42113e-13
3.29359e-12
1.21172e-12
2.68639e-12
-4.41524e-14
6.94494e-13
-2.27821e-12
2.98956e-12
1.51923e-12
4.66522e-12
1.40324e-12
4.25165e-12
1.08213e-12
2.65714e-12
-2.40293e-12
1.42739e-12
-1.31883e-12
1.14291e-12
-3.31763e-13
1.20276e-12
-3.71497e-16
1.17266e-12
-1.92253e-14
1.02521e-12
-7.8585e-14
9.73435e-13
-2.73594e-14
1.10296e-12
5.83355e-14
1.25919e-12
7.97377e-14
1.37388e-12
5.36196e-14
1.60209e-12
1.21361e-13
2.23306e-12
3.50451e-13
2.5358e-12
1.33687e-13
2.37072e-12
-1.506e-13
2.05648e-12
-1.86265e-13
1.75676e-12
-1.37258e-13
1.54632e-12
-8.70728e-14
1.41998e-12
-4.7131e-14
1.34534e-12
-2.06948e-14
1.33487e-12
8.38367e-15
1.40014e-12
1.77178e-14
1.3762e-12
1.72711e-13
1.82268e-13
3.54766e-12
5.12516e-12
7.02481e-12
2.59341e-12
1.33225e-12
2.47044e-13
4.73179e-13
7.37588e-13
6.73331e-13
6.19128e-13
6.57691e-13
5.25129e-13
3.66109e-13
3.94079e-13
7.82174e-13
1.62429e-12
2.836e-12
2.79185e-12
5.13638e-13
2.03287e-12
3.4361e-12
4.51824e-12
2.11531e-12
7.96477e-13
4.64714e-13
4.64342e-13
4.45117e-13
3.66532e-13
3.39172e-13
3.97508e-13
4.77246e-13
5.30865e-13
6.52226e-13
1.00268e-12
1.13636e-12
9.85764e-13
7.99499e-13
6.62241e-13
5.75169e-13
5.28038e-13
5.07343e-13
5.15727e-13
5.33444e-13
7.06155e-13
)
;

boundaryField
{
    AirInlet
    {
        type            calculated;
        value           nonuniform List<scalar> 5(-1.6e-13 -1.6e-13 -1.6e-13 -1.6e-13 -1.6e-13);
    }
    WaterInlet
    {
        type            calculated;
        value           nonuniform List<scalar> 10(-2e-12 -2e-12 -2e-12 -2e-12 -2e-12 -2e-12 -2e-12 -2e-12 -2e-12 -2e-12);
    }
    ChannelWall
    {
        type            calculated;
        value           uniform 0;
    }
    Outlet
    {
        type            calculated;
        value           nonuniform List<scalar> 
15
(
5.109e-13
9.52281e-13
1.62189e-12
2.32155e-12
2.58167e-12
6.66836e-13
6.99514e-13
7.07415e-13
6.92073e-13
6.7271e-13
2.77719e-12
2.40752e-12
1.88274e-12
1.41729e-12
8.88423e-13
)
;
    }
    FrontAndBack
    {
        type            empty;
        value           nonuniform 0();
    }
}


// ************************************************************************* //
