/*--------------------------------*- C++ -*----------------------------------*\
| =========                 |                                                 |
| \\      /  F ield         | OpenFOAM: The Open Source CFD Toolbox           |
|  \\    /   O peration     | Version:  2.3.0                                 |
|   \\  /    A nd           | Web:      www.OpenFOAM.org                      |
|    \\/     M anipulation  |                                                 |
\*---------------------------------------------------------------------------*/
FoamFile
{
    version     2.0;
    format      ascii;
    class       volVectorField;
    location    "0.016";
    object      U;
}
// * * * * * * * * * * * * * * * * * * * * * * * * * * * * * * * * * * * * * //

dimensions      [0 1 -1 0 0 0 0];

internalField   nonuniform List<vector> 
725
(
(0.0453003 0.00698119 -3.26054e-31)
(0.0543786 0.0016105 5.6509e-32)
(0.029204 0.00116381 -8.8575e-33)
(0.0547577 0.000781664 0)
(0.0201474 0.0106931 -9.74854e-32)
(0.0871032 0.0139487 -1.42879e-30)
(0.111789 0.00757172 2.63897e-31)
(0.0695409 0.00453479 1.59868e-31)
(0.109002 -0.0089185 0)
(0.0164919 0.05634 -4.84309e-31)
(0.0991345 0.00962943 -3.10376e-31)
(0.128461 0.0123817 -2.9236e-33)
(0.0747124 0.011837 -2.44596e-31)
(0.109927 0.0242382 0)
(-0.157281 0.123975 3.53749e-30)
(0.0878459 0.00312844 1.88865e-30)
(0.109604 0.0142244 -2.02581e-31)
(0.0664605 0.0159746 -7.21029e-31)
(0.134169 0.0580327 0)
(0.103779 0.132731 -1.37029e-30)
(0.0455076 0.00154388 1.99571e-30)
(0.0519844 0.00905773 -3.01934e-31)
(0.0313722 0.00718046 -1.00355e-32)
(0.0741033 0.0244581 -3.64673e-31)
(0.135011 0.0339871 -8.11298e-30)
(-0.0714758 -0.00075953 0)
(-0.192928 -0.00899399 0)
(0.204232 -0.0741467 0)
(0.161777 0.0880708 0)
(-0.154002 0.024193 0)
(-0.0369858 -0.00300189 0)
(-0.0494137 -0.00553873 0)
(0.00686389 -0.00292053 0)
(0.019124 -0.000580719 0)
(0.0223465 0.000540343 0)
(0.0192397 0.000550127 0)
(0.016578 0.000420724 0)
(0.0147721 0.000383029 0)
(0.0155849 3.57805e-05 0)
(0.0188239 -0.000963454 0)
(0.0250759 -0.00298216 0)
(0.0539955 -0.014879 0)
(0.122417 0.0100629 0)
(-0.233445 -0.0941102 0)
(-0.0670115 -0.0222223 0)
(0.272846 -3.68581e-05 0)
(0.159536 -0.0690482 0)
(-0.12317 0.0319632 0)
(-0.0718399 -0.0154085 0)
(-0.0204707 -0.00414122 0)
(0.00770141 -0.00205564 0)
(0.0156047 -0.000177747 0)
(0.0178511 4.17079e-05 0)
(0.018662 0.00011454 0)
(0.0181108 0.000161015 0)
(0.0171622 0.000126376 0)
(0.0164711 6.96016e-05 0)
(0.0161396 2.83512e-05 0)
(0.0159901 1.29656e-05 0)
(0.0159608 -6.22982e-06 0)
(0.0160603 -1.87919e-05 0)
(0.0162048 -1.65772e-05 0)
(0.0162767 -1.8836e-06 0)
(0.0161706 2.30529e-05 0)
(0.0159734 1.74914e-05 0)
(0.0157056 3.49488e-05 0)
(0.0155877 -1.42253e-05 0)
(0.015709 -1.59896e-05 0)
(0.0157957 -3.82554e-07 0)
(0.0158851 -2.26839e-05 0)
(-0.150957 0.0902072 0)
(0.00561379 -0.0589979 0)
(0.954135 -0.267244 0)
(0.159468 0.284021 0)
(-0.30353 -0.00943805 0)
(-0.0548196 -0.012289 0)
(-0.0804038 -0.0275164 0)
(0.0111563 -0.0245759 0)
(0.039039 -0.00786156 0)
(0.0498779 8.4504e-05 0)
(0.0473358 0.00205505 0)
(0.0443241 0.00142489 0)
(0.0432046 0.000368129 0)
(0.047322 -0.001658 0)
(0.0540446 -0.00492129 0)
(0.0605741 -0.00870791 0)
(0.0855081 -0.0332121 0)
(0.108926 0.121869 0)
(-0.0486733 0.00460408 0)
(-0.0483515 -0.152527 0)
(0.504339 -0.0145717 0)
(0.189424 0.124851 0)
(-0.0449988 0.0938902 0)
(-0.0415729 -0.0539519 0)
(-0.01997 -0.0240486 0)
(0.0156409 -0.0150273 0)
(0.0340186 -0.0044828 0)
(0.0408275 -0.00152422 0)
(0.0445225 -0.000251661 0)
(0.0449375 0.000570432 0)
(0.0438567 0.000646371 0)
(0.0428528 0.000397981 0)
(0.0424046 0.000172983 0)
(0.0422208 7.41282e-05 0)
(0.0421993 -3.27874e-05 0)
(0.0423889 -0.000109166 0)
(0.0426552 -9.5592e-05 0)
(0.0427778 8.16081e-06 0)
(0.0425553 0.00015504 0)
(0.0421375 0.000174073 0)
(0.0415429 0.000214232 0)
(0.0412449 -3.44636e-05 0)
(0.041447 -9.39896e-05 0)
(0.0416086 -2.79785e-05 0)
(0.0415852 -5.00944e-05 0)
(-0.129521 -0.0293357 0)
(0.528413 -0.527019 0)
(2.09032 -0.542833 0)
(0.713613 0.899176 0)
(-0.233629 0.0326308 0)
(-0.0406604 -0.043276 0)
(-0.0403325 -0.0577468 0)
(0.0278588 -0.0509052 0)
(0.0558739 -0.0192559 0)
(0.069201 -0.00226916 0)
(0.0679843 0.00299311 0)
(0.0656215 0.00191493 0)
(0.0651598 -0.000655938 0)
(0.0701605 -0.00448961 0)
(0.0764184 -0.00832877 0)
(0.0736112 -0.0132069 0)
(0.0864877 -0.0739331 0)
(0.143102 0.166328 0)
(0.514567 -0.0186812 0)
(0.244692 -0.280465 0)
(0.417783 -0.0428127 0)
(0.170173 0.133105 0)
(0.257506 0.159936 0)
(0.197348 -0.0152709 0)
(0.0650416 -0.0220633 0)
(0.0398643 -0.0250316 0)
(0.0512135 -0.0109673 0)
(0.0579676 -0.00480978 0)
(0.0629732 -0.00167745 0)
(0.0647426 0.000438959 0)
(0.0642539 0.0010949 0)
(0.0632795 0.000711988 0)
(0.0629333 0.000275512 0)
(0.0628745 0.000103294 0)
(0.0629119 -8.4124e-05 0)
(0.0631279 -0.000229975 0)
(0.0634021 -0.000198299 0)
(0.0635055 2.63244e-05 0)
(0.0632395 0.000346576 0)
(0.0627424 0.00041734 0)
(0.0619433 0.000503787 0)
(0.0614793 -2.83063e-05 0)
(0.0616649 -0.000186732 0)
(0.061836 -4.50454e-05 0)
(0.0617019 -2.55704e-05 0)
(0.468197 -0.127141 0)
(1.03761 -0.672586 0)
(-0.853205 -0.0497267 0)
(0.54055 1.05798 0)
(0.0444273 0.262582 0)
(0.131568 -0.066048 0)
(0.0706821 -0.068773 0)
(0.0652959 -0.0627669 0)
(0.0733494 -0.0278993 0)
(0.0825539 -0.00470757 0)
(0.0816383 0.00367253 0)
(0.0796859 0.00218672 0)
(0.0791874 -0.00166124 0)
(0.0822747 -0.00615155 0)
(0.0814241 -0.00538915 0)
(0.0453308 0.001982 0)
(-0.010644 -0.0976781 0)
(-0.00854214 -0.198314 0)
(1.07674 0.259332 0)
(0.783501 -0.116201 0)
(0.178509 0.000127632 0)
(0.416849 0.0445061 0)
(0.456047 0.196859 0)
(0.452362 0.0624375 0)
(0.220256 0.0388065 0)
(0.0844647 -0.0123383 0)
(0.0692447 -0.0133006 0)
(0.0714153 -0.00789145 0)
(0.0756384 -0.00339733 0)
(0.0780242 -0.00017571 0)
(0.0783541 0.00136094 0)
(0.0778616 0.000943742 0)
(0.0778313 0.000323832 0)
(0.0780138 0.000110821 0)
(0.0781373 -0.000139149 0)
(0.0783038 -0.000333905 0)
(0.0784615 -0.000277399 0)
(0.0784583 5.09349e-05 0)
(0.0782219 0.000552652 0)
(0.0777921 0.000695632 0)
(0.0768957 0.000883315 0)
(0.0762752 1.37039e-05 0)
(0.0763563 -0.00026249 0)
(0.0764782 -3.97973e-05 0)
(0.0762133 3.20926e-05 0)
(0.218295 -0.350334 0)
(1.47815 -0.33272 0)
(-0.844952 0.262099 0)
(-0.444529 0.690239 0)
(0.151519 0.138711 0)
(0.319041 -0.0597125 0)
(0.183948 -0.0418736 0)
(0.108142 -0.0469521 0)
(0.0888233 -0.0273091 0)
(0.0906233 -0.00560494 0)
(0.0890509 0.00457262 0)
(0.0872301 0.00253003 0)
(0.0860253 -0.00208335 0)
(0.0861305 -0.00556196 0)
(0.0801402 0.00442358 0)
(0.0126601 0.050716 0)
(-0.180014 -0.019759 0)
(-0.504556 -0.277661 0)
(-0.255021 -0.25824 0)
(0.824156 0.30081 0)
(-0.291656 0.212009 0)
(-2.42761 0.631391 0)
(0.57129 -0.139958 0)
(0.606935 0.125606 0)
(0.327241 0.146577 0)
(0.128562 0.0407537 0)
(0.0868828 -0.000971364 0)
(0.0829041 -0.00859911 0)
(0.0839279 -0.00462859 0)
(0.0853139 -0.000899063 0)
(0.0859047 0.00140871 0)
(0.0860091 0.00088408 0)
(0.086564 4.17601e-05 0)
(0.0872373 -7.51036e-05 0)
(0.0876292 -0.000247162 0)
(0.0877656 -0.000387532 0)
(0.0877091 -0.000247142 0)
(0.0875062 0.000150254 0)
(0.0874235 0.000637848 0)
(0.087277 0.0009706 0)
(0.0864746 0.00146572 0)
(0.0856979 7.64488e-05 0)
(0.0854723 -0.000285174 0)
(0.0854507 -5.15522e-06 0)
(0.085139 0.000159066 0)
(-1.47449 -0.80339 0)
(-1.49774 0.0143942 0)
(-2.01554 0.334021 0)
(0.158862 0.513827 0)
(0.605464 0.0180293 0)
(0.305242 -0.0244392 0)
(0.179414 -0.0155477 0)
(0.118473 -0.0328485 0)
(0.0934783 -0.0232921 0)
(0.091436 -0.00502783 0)
(0.0893768 0.00512721 0)
(0.088034 0.00292259 0)
(0.0863987 -0.00177404 0)
(0.0847569 -0.00433139 0)
(0.0805875 0.012934 0)
(0.0165169 0.0809898 0)
(-0.116662 0.0960352 0)
(-0.59604 -0.181784 0)
(-1.90602 -0.626847 0)
(-0.133389 0.308849 0)
(-0.378751 0.438152 0)
(-2.55034 0.251512 0)
(-0.284863 -0.909527 0)
(0.0186353 0.131352 0)
(0.130249 0.199746 0)
(0.103483 0.0676489 0)
(0.0908823 0.00442187 0)
(0.0889396 -0.00788575 0)
(0.0868544 -0.00448 0)
(0.0868293 -0.0010143 0)
(0.0873945 0.00132448 0)
(0.087822 0.000762851 0)
(0.0882351 -0.000136112 0)
(0.0887081 -0.000215349 0)
(0.0890211 -0.000311324 0)
(0.0890359 -0.000383654 0)
(0.0888901 -0.000204306 0)
(0.088725 0.000184457 0)
(0.0887653 0.000618627 0)
(0.0887894 0.00100741 0)
(0.0886739 0.00163254 0)
(0.0881753 0.000207946 0)
(0.0875212 -0.000192692 0)
(0.0873463 3.08483e-05 0)
(0.0872116 0.000203318 0)
(-2.02425 -0.59545 0)
(-2.14317 0.000458845 0)
(-3.02053 0.325289 0)
(0.433269 0.249437 0)
(0.723453 0.0370479 0)
(0.25228 0.000459811 0)
(0.172846 -0.00798897 0)
(0.121262 -0.0286818 0)
(0.0947596 -0.0218432 0)
(0.091367 -0.00477742 0)
(0.0892129 0.00529945 0)
(0.0880908 0.00306832 0)
(0.0862772 -0.00162162 0)
(0.0842417 -0.00399026 0)
(0.081211 0.0158209 0)
(0.0264721 0.0871223 0)
(0.0322072 0.128684 0)
(-0.456233 -0.0614048 0)
(-1.05215 -0.696608 0)
(-0.762485 0.158591 0)
(-0.13084 0.549439 0)
(-0.454602 0.263463 0)
(-0.416628 -0.956583 0)
(-0.496683 0.098899 0)
(-0.0554466 0.183695 0)
(0.0916027 0.0669368 0)
(0.0921394 0.0047986 0)
(0.0906566 -0.00760728 0)
(0.0878215 -0.00434943 0)
(0.0874609 -0.00103196 0)
(0.0881009 0.00127493 0)
(0.0885962 0.000726075 0)
(0.088804 -0.000170593 0)
(0.0890726 -0.000250008 0)
(0.0892937 -0.000325473 0)
(0.0892389 -0.000374586 0)
(0.0890551 -0.00018804 0)
(0.0889021 0.000190209 0)
(0.0889742 0.000612376 0)
(0.0890289 0.0010073 0)
(0.089115 0.00165302 0)
(0.0887402 0.000270317 0)
(0.0879852 -0.000148413 0)
(0.0877435 4.40804e-05 0)
(0.0876896 0.000209863 0)
(-2.21817 -0.292645 0)
(-2.40876 -0.0613801 0)
(-2.52319 0.28323 0)
(0.305912 -0.00301349 0)
(0.617771 0.0664155 0)
(0.153388 0.023682 0)
(0.164346 -0.00386058 0)
(0.123073 -0.0250567 0)
(0.0957791 -0.0202938 0)
(0.0911682 -0.00446086 0)
(0.0887869 0.00546481 0)
(0.0878929 0.00321648 0)
(0.0859219 -0.00143667 0)
(0.08369 -0.00370274 0)
(0.0819104 0.0182217 0)
(0.0417744 0.0869209 0)
(0.122495 0.15371 0)
(-0.443049 0.0468503 0)
(-0.73933 -0.642471 0)
(-0.257898 0.22907 0)
(0.325715 0.586956 0)
(3.23947 0.23009 0)
(0.333783 -0.693883 0)
(-0.399436 0.088386 0)
(-0.114801 0.151033 0)
(0.0840673 0.0588343 0)
(0.093727 0.00447719 0)
(0.0917136 -0.00728531 0)
(0.0882163 -0.00416933 0)
(0.0877443 -0.00104951 0)
(0.0886027 0.00120533 0)
(0.0893118 0.000688734 0)
(0.0894585 -0.000185107 0)
(0.089493 -0.000263757 0)
(0.0894535 -0.000322881 0)
(0.0892195 -0.000356022 0)
(0.0889735 -0.000169854 0)
(0.0888285 0.000193312 0)
(0.0889256 0.000604431 0)
(0.0890079 0.000997426 0)
(0.0892436 0.00165355 0)
(0.0890239 0.000330216 0)
(0.0882489 -9.53794e-05 0)
(0.0878995 6.23447e-05 0)
(0.0879135 0.000206545 0)
(-2.11265 0.00161764 0)
(-2.56671 -0.122545 0)
(-0.992934 0.159768 0)
(-0.00945591 -0.143269 0)
(0.291696 0.0860125 0)
(0.0438933 0.0339449 0)
(0.156658 -0.00441427 0)
(0.123794 -0.0219094 0)
(0.0963379 -0.0186676 0)
(0.0905962 -0.00406527 0)
(0.0879993 0.0056253 0)
(0.0874165 0.00335394 0)
(0.0853266 -0.00123913 0)
(0.0830349 -0.0034701 0)
(0.0823245 0.0199007 0)
(0.057856 0.0832916 0)
(0.169926 0.172801 0)
(-0.249821 0.0423938 0)
(0.709288 -0.873544 0)
(-0.17192 0.266655 0)
(0.437279 0.5302 0)
(2.77795 -0.00239208 0)
(0.524379 -0.422953 0)
(-0.253099 0.120472 0)
(-0.091549 0.123445 0)
(0.0812146 0.0488189 0)
(0.0949472 0.00384655 0)
(0.092237 -0.00690725 0)
(0.0882573 -0.00395322 0)
(0.0874728 -0.00105766 0)
(0.0882603 0.00112466 0)
(0.0890958 0.000644952 0)
(0.0892479 -0.000189563 0)
(0.0891998 -0.000258914 0)
(0.0890978 -0.000305897 0)
(0.0888422 -0.000331693 0)
(0.0885988 -0.000151836 0)
(0.0884769 0.00019381 0)
(0.0885994 0.000593214 0)
(0.0887153 0.000978826 0)
(0.0890775 0.00164073 0)
(0.08902 0.000377569 0)
(0.0883328 -4.19787e-05 0)
(0.0880302 8.20645e-05 0)
(0.0880108 0.000201977 0)
(-1.60831 0.218747 0)
(-1.6756 -0.174968 0)
(-0.309503 0.0619082 0)
(0.00707254 -0.168118 0)
(0.121667 0.089747 0)
(-0.00428676 0.0319158 0)
(0.1507 -0.0082811 0)
(0.123323 -0.0192109 0)
(0.0961956 -0.016985 0)
(0.0894522 -0.00359655 0)
(0.0869267 0.00577055 0)
(0.0867295 0.00348101 0)
(0.084507 -0.00103388 0)
(0.0822785 -0.00326911 0)
(0.0823736 0.0207636 0)
(0.0690538 0.077789 0)
(0.241734 0.177715 0)
(0.108289 -0.123049 0)
(3.64809 -0.763349 0)
(-0.237041 0.269836 0)
(0.31091 0.414356 0)
(1.06856 -0.0854377 0)
(0.575732 -0.340665 0)
(-0.115227 0.158144 0)
(-0.0519874 0.106905 0)
(0.0821601 0.0401211 0)
(0.09564 0.00311554 0)
(0.0922479 -0.00647433 0)
(0.0879959 -0.00371192 0)
(0.0869616 -0.00104719 0)
(0.0876575 0.00103639 0)
(0.0885369 0.000593007 0)
(0.088672 -0.00019117 0)
(0.0885641 -0.000247631 0)
(0.08843 -0.000285082 0)
(0.088176 -0.000305503 0)
(0.0879473 -0.000133716 0)
(0.0878515 0.000193227 0)
(0.0879982 0.000579309 0)
(0.088153 0.000953836 0)
(0.0886211 0.00161398 0)
(0.0887071 0.000412709 0)
(0.0881184 3.39441e-06 0)
(0.087856 9.75103e-05 0)
(0.0878134 0.00020384 0)
(0.0460983 -0.00165736 0)
(0.0502873 -0.00834674 2.14343e-32)
(0.0326048 -0.00640513 -1.73864e-31)
(0.0571851 -0.0129951 -7.74842e-31)
(0.0427839 0.023802 0)
(0.0891682 -0.00325041 0)
(0.106969 -0.0132594 0)
(0.0755299 -0.0141237 0)
(0.124422 -0.0391043 7.50966e-31)
(0.114074 -0.0379146 0)
(0.100746 -0.009752 0)
(0.12573 -0.0123846 0)
(0.0863961 -0.012625 0)
(0.118506 -0.0357815 1.34132e-30)
(-0.0540496 -0.0507441 0)
(0.0884942 -0.0139864 0)
(0.108892 -0.00783113 0)
(0.0719675 -0.00436376 0)
(0.10063 -0.004161 4.67411e-32)
(-0.0679982 0.00308308 0)
(0.0460991 -0.00692678 0)
(0.0533155 -0.00165794 0)
(0.0323023 0.000214907 0)
(0.061682 0.00542814 2.53631e-31)
(0.0102794 0.0106816 0)
(0.111423 0.163745 0)
(0.302362 -0.221877 0)
(0.117753 -0.0456451 0)
(0.179722 -0.132763 0)
(0.116179 0.116937 0)
(0.0537158 0.0170944 0)
(0.139093 -0.0206162 0)
(0.118656 -0.0135872 0)
(0.094256 -0.0122753 0)
(0.0857418 -0.00212681 0)
(0.0835523 0.00608859 0)
(0.0841611 0.00376255 0)
(0.0816052 -0.000503783 0)
(0.0798147 -0.00279567 0)
(0.0811944 0.0197888 0)
(0.0979942 0.0523563 0)
(0.271727 0.134491 0)
(0.277927 -0.343906 0)
(0.995899 -0.248869 0)
(-0.0409687 0.25231 0)
(0.321078 0.012316 0)
(0.626899 -0.0570492 0)
(0.299891 -0.258044 0)
(0.0177006 0.246827 0)
(0.0205377 0.0805752 0)
(0.090899 0.0209726 0)
(0.0959047 0.000721587 0)
(0.0908949 -0.00504083 0)
(0.0864632 -0.00296492 0)
(0.0849097 -0.000946834 0)
(0.0853361 0.00077795 0)
(0.0861917 0.000441187 0)
(0.0862546 -0.000180933 0)
(0.0860204 -0.000205139 0)
(0.0858307 -0.000224192 0)
(0.0856049 -0.00023617 0)
(0.085431 -9.10413e-05 0)
(0.0854074 0.000184174 0)
(0.0856114 0.000528493 0)
(0.0858761 0.000872007 0)
(0.0865785 0.00148687 0)
(0.0870031 0.000484993 0)
(0.0866891 0.00010244 0)
(0.0865194 0.0001332 0)
(0.0864537 0.000219744 0)
(0.351245 0.104728 0)
(0.104872 0.075482 0)
(-0.453258 -0.00791433 0)
(-0.402683 -0.172702 0)
(0.0288546 0.0534183 0)
(0.121467 -0.0136381 0)
(0.116102 -0.00910216 0)
(0.0991175 -0.00297939 0)
(0.0815433 -0.00497771 0)
(0.0734112 0.000888255 0)
(0.0725872 0.00636405 0)
(0.074572 0.00392177 0)
(0.0720937 0.000755265 0)
(0.0705617 -0.000676602 0)
(0.0656074 0.0162935 0)
(0.0684664 0.035715 0)
(0.0795078 0.0533638 0)
(0.117844 -0.529391 0)
(-0.0903304 -0.192123 0)
(-0.389007 0.175616 0)
(-0.255017 0.267883 0)
(-0.818438 -0.141581 0)
(-0.336149 -0.226942 0)
(-0.0785416 0.237429 0)
(0.0633424 0.0681178 0)
(0.0905794 0.0145467 0)
(0.0882794 0.00151278 0)
(0.0823001 -0.00196169 0)
(0.078248 -0.00142554 0)
(0.0765623 -0.000451154 0)
(0.076582 0.000515277 0)
(0.0770318 0.000310562 0)
(0.0769402 -6.39095e-05 0)
(0.0766822 -9.50263e-05 0)
(0.0764969 -0.000132964 0)
(0.076293 -0.000157124 0)
(0.0761321 -6.2164e-05 0)
(0.0761227 0.000133187 0)
(0.0763353 0.00038692 0)
(0.0766998 0.00066055 0)
(0.0775379 0.00106229 0)
(0.0781958 0.000436084 0)
(0.0781874 0.000130492 0)
(0.0781387 0.000144611 0)
(0.0781818 0.000248403 0)
(0.0442716 0.0999951 0)
(0.310778 0.0925118 0)
(0.36182 0.189746 0)
(-0.00910139 -0.238335 0)
(0.0479268 -0.0546859 0)
(0.0668129 -0.027557 0)
(0.0640785 -0.00196639 0)
(0.0686463 0.00166398 0)
(0.0590162 -0.000344809 0)
(0.0548019 0.00272018 0)
(0.0571933 0.00567186 0)
(0.0611164 0.0037965 0)
(0.0595972 0.00170481 0)
(0.0597301 0.00130516 0)
(0.0561656 0.0153264 0)
(0.0791492 0.0382448 0)
(0.0909763 0.0614995 0)
(0.155712 -0.297973 0)
(-0.599489 -0.105725 0)
(-0.591572 0.178418 0)
(-0.16207 0.482069 0)
(-0.610908 0.154817 0)
(-0.317359 -0.594789 0)
(-0.0796229 0.0837843 0)
(0.0548334 0.0348633 0)
(0.0683465 0.0108725 0)
(0.0691309 0.00321147 0)
(0.0658439 0.000263156 0)
(0.0631854 -0.000178611 0)
(0.0618666 4.8922e-05 0)
(0.0617737 0.00047173 0)
(0.0620117 0.000296605 0)
(0.0619233 4.24738e-05 0)
(0.0617608 -9.16857e-06 0)
(0.0616429 -5.60987e-05 0)
(0.0614909 -8.15495e-05 0)
(0.0613664 -2.84049e-05 0)
(0.0613768 8.69457e-05 0)
(0.061588 0.000240537 0)
(0.0619856 0.000410322 0)
(0.0628064 0.000645371 0)
(0.0634964 0.000286561 0)
(0.0636387 9.95385e-05 0)
(0.0636717 0.000121664 0)
(0.0638168 0.000228746 0)
(-0.00661255 -0.0169743 0)
(0.183793 -0.137425 0)
(0.604112 0.144115 0)
(0.390137 -0.00978699 0)
(0.0733098 -0.0146885 0)
(0.100958 -0.0124779 0)
(0.0291922 -0.00376085 0)
(0.0367407 0.000864457 0)
(0.0308397 0.00134235 0)
(0.031578 0.00246096 0)
(0.036618 0.00377635 0)
(0.0422915 0.00291382 0)
(0.0432562 0.00184503 0)
(0.0454526 0.00199874 0)
(0.0456039 0.0102302 0)
(0.07086 0.023879 0)
(0.0973409 0.0334525 0)
(0.129856 -0.165033 0)
(-0.173508 -0.0809235 0)
(-0.506858 0.101072 0)
(0.210455 0.344456 0)
(0.780806 0.21388 0)
(-0.122178 -0.421522 0)
(-0.0626325 0.0110631 0)
(0.0175001 0.0104794 0)
(0.0331613 0.0050723 0)
(0.0405023 0.00255341 0)
(0.0409466 0.000949297 0)
(0.0405663 0.000400606 0)
(0.0403683 0.000290828 0)
(0.0407342 0.000379673 0)
(0.0412014 0.000234695 0)
(0.0413476 7.4461e-05 0)
(0.04136 2.29418e-05 0)
(0.041336 -1.36573e-05 0)
(0.0412498 -3.05453e-05 0)
(0.0411707 -9.02981e-06 0)
(0.0411904 3.94311e-05 0)
(0.0413612 0.000103837 0)
(0.041691 0.000173666 0)
(0.0423437 0.000283292 0)
(0.0429019 0.000119419 0)
(0.043059 4.43714e-05 0)
(0.0431246 7.3462e-05 0)
(0.0433682 0.000188441 0)
(0.152437 -0.0333096 0)
(-0.207068 -0.0812917 0)
(-0.217099 0.0860396 0)
(0.0224977 0.0399198 0)
(-0.028182 0.0127226 0)
(-0.00318663 0.0103707 0)
(-0.00336039 0.00510095 0)
(0.00360616 0.00106173 0)
(0.00461701 0.0006539 0)
(0.00748084 0.000604506 0)
(0.012027 0.000929756 0)
(0.0172626 0.000788838 0)
(0.0201238 0.000633762 0)
(0.0232178 0.000769762 0)
(0.0272757 0.00244187 0)
(0.0510075 0.00564295 0)
(0.0988566 0.0216081 0)
(0.156002 -0.0386923 0)
(-0.247179 0.0851127 0)
(-0.204706 0.0200467 0)
(0.266548 0.050146 0)
(0.865113 0.0462473 0)
(0.0181678 -0.139892 0)
(-0.00949121 -0.0108108 0)
(0.00636357 -0.00159629 0)
(0.00749108 -0.000505575 0)
(0.0126383 0.00015618 0)
(0.0135734 0.000173489 0)
(0.0141945 9.33338e-05 0)
(0.0145437 6.37497e-05 0)
(0.0149915 7.88191e-05 0)
(0.015399 4.61867e-05 0)
(0.0155763 1.32687e-05 0)
(0.0156301 3.91987e-06 0)
(0.0156353 -2.55211e-06 0)
(0.0156012 -4.72014e-06 0)
(0.0155694 -1.17874e-06 0)
(0.0155827 5.28197e-06 0)
(0.0156635 1.32673e-05 0)
(0.0158148 1.81072e-05 0)
(0.0161186 4.3466e-05 0)
(0.0163762 1.02025e-05 0)
(0.0164431 3.79806e-06 0)
(0.0164895 6.09541e-06 0)
(0.0168411 6.37314e-05 0)
)
;

boundaryField
{
    AirInlet
    {
        type            fixedValue;
        value           uniform (0.1 0 0);
    }
    WaterInlet
    {
        type            fixedValue;
        value           uniform (0.1 0 0);
    }
    ChannelWall
    {
        type            fixedValue;
        value           uniform (0 0 0);
    }
    Outlet
    {
        type            pressureInletOutletVelocity;
        value           nonuniform List<vector> 
15
(
(0.0158851 -2.26839e-05 0)
(0.0415852 -5.00944e-05 0)
(0.0617019 -2.55704e-05 0)
(0.0762133 3.20926e-05 0)
(0.085139 0.000159066 0)
(0.0872116 0.000203318 0)
(0.0876896 0.000209863 0)
(0.0879135 0.000206545 0)
(0.0880108 0.000201977 0)
(0.0878134 0.00020384 0)
(0.0864537 0.000219744 0)
(0.0781818 0.000248403 0)
(0.0638168 0.000228746 0)
(0.0433682 0.000188441 0)
(0.0168411 6.37314e-05 0)
)
;
    }
    FrontAndBack
    {
        type            empty;
    }
}


// ************************************************************************* //
