/*--------------------------------*- C++ -*----------------------------------*\
| =========                 |                                                 |
| \\      /  F ield         | OpenFOAM: The Open Source CFD Toolbox           |
|  \\    /   O peration     | Version:  2.3.0                                 |
|   \\  /    A nd           | Web:      www.OpenFOAM.org                      |
|    \\/     M anipulation  |                                                 |
\*---------------------------------------------------------------------------*/
FoamFile
{
    version     2.0;
    format      ascii;
    class       volScalarField;
    location    "0.04";
    object      alpha.water;
}
// * * * * * * * * * * * * * * * * * * * * * * * * * * * * * * * * * * * * * //

dimensions      [0 0 0 0 0 0 0];

internalField   nonuniform List<scalar> 
725
(
1
1
1
1.00001
0.992547
1
1
1
1.00018
0.994366
1
1
1
1.0001
1
1
1
1
1.00011
1
1
1
1
1.00011
0.979936
0.939072
0.908841
0.962736
1.00001
1.00001
1
0.464303
0.010386
0.00987694
0.00987586
0.276398
0.985121
0.999778
0.99974
0.999803
0.999871
0.99995
1.00002
1.00002
1.00002
1.00001
1.00001
1.00001
0.999999
1
1
1.00001
1.00001
1.00001
1.00002
1
0.975609
0.218945
0.000580508
0.000580548
0.00058063
0.0593713
0.760659
0.999868
0.999864
0.99991
0.999665
0.999996
0.833077
0.0329886
0.987275
0.915798
0.957024
0.999949
0.999984
1
0.471658
0.0106645
0.00987591
0.00987557
0.278002
0.997215
0.999794
0.99977
0.999659
0.999567
0.999537
0.999578
0.999656
0.999739
0.999815
0.999871
0.999912
0.999942
0.999962
0.999971
0.999972
0.999968
0.999978
1.00001
1
0.966656
0.204518
0.000580508
0.000580585
0.00058059
0.0675021
0.754045
0.999836
0.999804
0.999815
0.999786
0.999997
0.908348
0.107973
0.88529
0.897509
0.981921
0.999995
0.99999
1
0.446497
0.00998372
0.00987514
0.00987513
0.312206
0.999969
0.999903
0.999895
0.999787
0.999585
0.999383
0.999253
0.999241
0.999353
0.99952
0.999663
0.999759
0.999818
0.999854
0.999876
0.999889
0.999898
0.99992
1.00001
1
0.947275
0.185461
0.000580612
0.000580906
0.000580642
0.0712694
0.760407
0.999864
0.999865
0.99986
0.999827
0.999998
0.972767
0.276601
0.715799
0.798681
0.971027
0.99999
0.999973
1
0.489707
0.0101148
0.00989633
0.00987164
0.357791
0.999969
0.999967
0.999936
0.999927
0.999726
0.999387
0.999097
0.998925
0.998932
0.999083
0.999269
0.999437
0.999573
0.999677
0.999765
0.999821
0.999857
0.999904
1.00001
1
0.913126
0.172145
0.000625469
0.000581023
0.000580773
0.0813111
0.749154
0.999862
0.999863
0.999923
0.999817
0.999998
0.989157
0.291976
0.313931
0.831717
0.998158
1
1
0.991665
0.459068
0.0112022
0.0100676
0.0114533
0.43665
0.999761
0.999946
0.999894
0.99998
1.0002
0.99956
0.998048
0.998035
0.998183
0.998504
0.99885
0.999137
0.999353
0.999496
0.99974
0.999841
0.999876
0.999929
0.999979
1
0.875555
0.167381
0.000609733
0.000582195
0.000580919
0.082071
0.761226
0.999859
0.999858
0.999717
0.999704
0.999999
0.972831
0.291025
0.055069
0.721008
0.999961
1.00002
1.00005
0.969977
0.455238
0.0115341
0.0227614
0.0234347
0.463427
0.963846
0.999966
0.999847
0.999779
0.999477
0.998948
0.998346
0.998079
0.99813
0.998382
0.998707
0.999016
0.99927
0.999462
0.999603
0.999722
0.999816
0.999908
0.999872
1.00002
0.858331
0.165542
0.00147231
0.00189454
0.000582195
0.0838305
0.755137
0.999694
0.999548
0.999674
0.999688
1
0.963411
0.174033
0.0694182
0.743751
0.999945
1.00002
1.00006
0.982348
0.441279
0.0144634
0.0627756
0.0619551
0.444105
0.941248
0.999897
0.999797
0.999854
0.999571
0.999038
0.998451
0.998138
0.99815
0.998392
0.998721
0.999033
0.999284
0.999473
0.999613
0.999715
0.99981
0.999905
0.999858
1
0.858156
0.162667
0.00217868
0.00260399
0.000593799
0.08197
0.759338
0.999544
0.999484
0.999632
0.999697
1
0.950415
0.144497
0.0344432
0.684064
0.999943
1.00001
0.999994
0.987288
0.392696
0.0347493
0.0128191
0.051132
0.639517
0.941159
0.999756
0.999694
0.999812
0.99959
0.999132
0.998577
0.998258
0.998244
0.998449
0.998758
0.999069
0.999319
0.999501
0.99963
0.999724
0.999816
0.999905
0.999853
1.00002
0.853706
0.164686
0.00182121
0.00237284
0.000616907
0.0814751
0.758268
0.999286
0.999188
0.999922
0.999741
1
0.921204
0.133568
0.0904754
0.680854
0.997758
1.00001
1.00004
0.973871
0.427672
0.0189133
0.0128316
0.0132811
0.571989
0.958502
0.999656
0.999589
0.999782
0.999581
0.99918
0.998691
0.998391
0.998355
0.998537
0.998845
0.999158
0.999399
0.999561
0.999669
0.999749
0.99983
0.999908
0.999881
1.00001
0.846561
0.168445
0.00112279
0.00124779
0.000652744
0.079158
0.762867
0.999514
0.999425
0.999624
0.999712
1.00001
0.89606
0.109039
0.0758261
0.626954
0.998018
1.00003
1.00013
0.952215
0.421712
0.0130375
0.0129847
0.0196285
0.352494
0.893965
0.99973
0.999593
0.999774
0.999563
0.999193
0.998768
0.998495
0.998457
0.998648
0.998972
0.999279
0.999498
0.999636
0.999724
0.99979
0.999851
0.999912
1.00004
1.00003
0.842212
0.169221
0.00094218
0.000923185
0.000708202
0.0783743
0.761152
0.999679
0.999578
0.999753
0.999778
1
0.882095
0.0948263
1
1
1
1.00009
0.997591
1
1
1
1.00006
0.966903
1
1
1
1
1
1
1
0.999999
1
0.912685
1
1
0.999998
0.998654
0.869747
0.420509
0.65631
0.99994
0.99994
1.00001
1
0.438257
0.0131032
0.012811
0.0127954
0.209356
0.878249
0.999775
0.999774
0.999766
0.999543
0.999205
0.998891
0.998727
0.998759
0.998946
0.999194
0.999419
0.999583
0.999703
0.999788
0.999839
0.99987
0.999951
1
1
0.841523
0.169139
0.000924634
0.000905299
0.000768987
0.071143
0.772989
0.999951
0.999944
0.999904
0.999833
1
0.838527
0.0345961
0.338954
0.64265
0.999724
1.00002
1
0.99662
0.387356
0.0131206
0.0127783
0.0127562
0.358243
0.909819
0.999774
0.999774
0.999656
0.999497
0.99932
0.999169
0.99914
0.999243
0.999418
0.999582
0.9997
0.99988
0.999905
0.999894
0.999887
0.999892
0.999929
1.00001
1
0.829655
0.169771
0.000958915
0.000920448
0.000832095
0.0712028
0.760721
0.999954
0.999949
0.999977
0.999889
0.999948
0.813283
0.0150678
0.421242
0.824969
1
1.00002
1.00006
1
0.346133
0.0127706
0.0127214
0.0127171
0.262204
0.922233
0.999661
0.99955
0.999466
0.99941
0.999401
0.999417
0.999471
0.999556
0.999664
0.999889
0.999883
0.99987
0.999864
0.999865
0.99987
0.999882
0.999921
1.00001
1
0.831382
0.160142
0.000989774
0.000955193
0.00091594
0.0571332
0.775637
0.999861
0.999759
0.999838
0.999813
0.999992
0.850609
0.0464949
0.423518
0.791507
0.971332
1
1.00001
0.991593
0.326852
0.0127218
0.0127099
0.0127113
0.362205
0.958992
0.999683
0.999485
0.999474
0.999559
0.999655
0.999711
0.999754
0.999791
0.999814
0.999823
0.999827
0.999834
0.999849
0.999872
0.999896
0.999914
0.999949
1.00003
1.00001
0.836736
0.158481
0.00104037
0.000997788
0.00104894
0.0478961
0.77336
0.999807
0.999675
0.999768
0.999759
0.99999
0.960038
0.229412
0.757665
0.813937
0.922638
1
0.999998
0.987441
0.308067
0.0127097
0.0127096
0.0127096
0.379411
0.981821
0.999713
0.999709
0.999821
0.999883
0.999906
0.999911
0.999918
0.999925
0.999932
0.999935
0.999938
0.999953
0.999969
0.999998
1.00001
1.00002
1.00002
1.00002
1.00001
0.835695
0.149062
0.00107487
0.00104639
0.00106371
0.0399678
0.779916
1
1.00003
0.999945
0.999693
0.999987
0.982767
0.283239
)
;

boundaryField
{
    AirInlet
    {
        type            fixedValue;
        value           uniform 0;
    }
    WaterInlet
    {
        type            fixedValue;
        value           uniform 1;
    }
    ChannelWall
    {
        type            zeroGradient;
    }
    Outlet
    {
        type            inletOutlet;
        inletValue      uniform 0;
        value           nonuniform List<scalar> 
15
(
0
0.107973
0.276601
0.291976
0.291025
0
0
0
0
0
0
0
0
0.229412
0.283239
)
;
    }
    FrontAndBack
    {
        type            empty;
    }
}


// ************************************************************************* //
