/*--------------------------------*- C++ -*----------------------------------*\
| =========                 |                                                 |
| \\      /  F ield         | OpenFOAM: The Open Source CFD Toolbox           |
|  \\    /   O peration     | Version:  2.3.0                                 |
|   \\  /    A nd           | Web:      www.OpenFOAM.org                      |
|    \\/     M anipulation  |                                                 |
\*---------------------------------------------------------------------------*/
FoamFile
{
    version     2.0;
    format      ascii;
    class       volScalarField;
    location    "0.04";
    object      p;
}
// * * * * * * * * * * * * * * * * * * * * * * * * * * * * * * * * * * * * * //

dimensions      [1 -1 -2 0 0 0 0];

internalField   nonuniform List<scalar> 
725
(
1374.11
1197.56
1145.73
1122.33
1101.94
1346.69
1199.79
1147.56
1123.61
1101.22
1332.01
1200.86
1147.46
1122.66
1100.41
1329.69
1197.23
1144.56
1116.77
1069.42
1338.18
1191.63
1141.14
1120.16
1085.11
1085.44
1083.07
955.508
573.517
50.3587
473.007
354.698
325.924
333.122
337.151
329.351
308.236
305.642
309.873
330.113
300.591
296.651
321.807
318.975
301.18
288.427
248.812
197.765
269.871
235.26
192.356
172.454
161.45
152.603
175.913
246.712
220.911
148.065
213.411
195.109
126.084
135.503
75.7524
43.6534
32.286
25.7157
19.8834
16.3134
7.6424
1.64308
1091.29
1147.14
988.401
733.648
-152.647
535.436
362.177
316.992
323.161
327.829
321.612
310.918
311.031
315.141
324.52
300.028
281.834
280.002
286.106
290.669
306.243
254.396
192.089
266.645
242.405
190.154
171.768
160.511
153.056
151.619
157.792
148.276
147.938
145.512
144.675
121.087
138.214
74.3211
49.0476
40.0709
32.3872
28.7721
24.2977
6.80433
1.40497
1104.18
1219.79
1007.59
490.108
-686.976
692.212
351.53
301.213
317.905
325.721
320.822
305.002
326.023
322.202
326.757
294.46
280.064
277.091
288.093
290.627
275.498
239.315
192.614
291.65
256.832
183.103
169.594
159.62
151.935
152.078
156.737
168.185
174.415
186.515
176.093
115.504
142.774
62.5785
34.7922
28.4302
20.5904
14.6246
10.9573
5.898
1.25426
1158.5
1579.14
1469.13
1044.21
-1350.9
943.958
346.559
278.879
306.352
317.793
312.343
303.813
398.691
364.021
348.12
287.624
279.446
273.546
294.008
296.355
279.841
235.598
370.458
356.831
296.156
170.932
170.124
158.804
150.756
153.279
153.192
160.48
146.144
182.984
215.069
122.671
157.819
44.4864
29.5933
29.6334
22.9347
16.7531
12.6077
6.77279
1.98236
1911.45
1878.6
1866.38
1362.78
-2270.07
837.032
302.782
253.507
303.673
314.159
315.273
326.674
375.379
377.472
343.162
276.787
276.731
265.254
302.828
296.101
278.79
237.718
284.914
380.245
528.059
134.481
162.08
154.783
148.344
154.704
150.691
165.094
142.536
179.211
234.035
120.652
144.411
20.1351
23.365
29.2375
22.345
16.3243
12.8689
6.70173
1.99565
1917.57
1867.44
1901.99
1526.22
4784.64
861.425
258.225
267.818
306.903
311.033
308.43
342.906
398.273
371.197
447.451
259.13
277.958
251.904
311.804
324.217
282.964
217.042
401.6
349.923
550.513
131.002
169.926
153.65
144.996
157.322
141.154
157.394
160.248
167.884
247.805
152.369
128.051
4.85739
17.3007
28.2021
22.4152
16.074
13.4661
6.09358
1.93523
1917.17
1865.41
1892.06
1609.77
3535.85
1562.26
192.768
268.738
306.712
312.573
309.098
338.971
382.792
372.107
398.336
251.562
327
297.694
314.71
422.623
287.026
204.621
412.044
341.424
574.876
320.071
166.875
159.942
151.539
158.593
168.048
145.024
141.012
139.869
241.307
151.54
104.399
3.50125
15.5129
30.225
26.6413
19.5522
14.2595
5.92769
1.91219
1917.8
1861.54
1915.14
2011.24
2786.98
907.152
108.077
261.593
369.252
310.669
307.285
340.792
404.223
373.639
404.521
250.93
267.545
294.172
317.255
241.215
314.398
199.947
397.8
341.739
840.978
314.3
189.558
157.361
145.315
161.228
156.654
150.941
155.302
123.436
619.186
149.276
123.777
13.9301
51.4885
30.0489
23.4784
19.0911
16.3273
8.15503
2.63549
1919.3
1859.79
1900.23
1883.82
5922.1
3570.81
309.448
763.89
382.755
310.793
303.77
448.185
495.904
372.705
401.665
251.898
267.257
284.952
322.243
244.315
294.828
196.614
384.496
341.529
850.492
292.384
164.353
157.543
144.494
161.735
154.147
216.833
154.472
124.072
274.207
149.359
114.605
69.6903
17.2553
26.2156
23.5363
18.9035
11.4842
7.94397
2.6697
1960.45
1825.91
1901.35
1930.56
2582.99
2318.31
168.591
440.333
333.645
311.275
301.618
276.406
349.935
369.351
341.761
283.518
267.502
284.213
238.238
248.505
301.595
188.304
343.254
325.509
33.2871
194.94
164.155
154.904
144.994
157.895
138.525
128.599
144.39
133.341
391.072
147.024
106.644
46.1493
18.9074
26.2908
23.5642
18.8395
10.8431
6.5574
2.00783
2652.48
2505.17
2455.53
2429.33
2402.9
2643.93
2510.77
2459.98
2432.82
2411.16
2646.19
2514.37
2462.96
2436.64
2416.17
2660.78
2513.21
2462.93
2437.73
2420.15
2688.1
2510.75
2460.34
2432.65
2402.81
2381.74
1911.5
1850.49
1990.94
1262.12
101.151
206.305
345.172
336.39
311.084
303.423
295.638
303.292
340.474
259.134
265.553
260.07
274.089
247.413
264.836
309.4
216.289
220.865
261.279
97.8075
174.921
156.943
147.355
140.22
121.517
131.524
108.933
117.142
125.986
77.4762
136.411
-1.22224
39.2498
21.5218
26.189
23.9164
18.8609
10.1456
6.13303
2.00757
2420.83
1939.69
1741.29
1900.05
1117.32
-128.116
165.295
337.814
330.606
309.643
299.48
291.145
298.948
334.458
264.866
270.256
263.318
267.52
250.194
249.876
261.65
262.342
291.531
191.555
114.407
158.257
157.837
146.665
138.625
125.112
121.309
112.889
117.944
120.768
38.3317
105.263
21.6977
48.5994
27.9134
24.4307
20.15
14.8991
10.3137
6.90806
2.16257
2428.24
2302.07
1636.34
1684.57
1530.85
-36.2231
126.034
324.303
320.735
307.322
295.011
300.368
302.634
331.369
269.394
272.924
264.738
264.125
250.669
250.92
268.9
289.553
288.159
151.474
126.471
151.219
148.028
142.541
136.849
125.813
120.253
111.921
114.238
115.005
52.1221
83.3063
22.105
38.1126
27.2738
25.0354
20.3871
15.205
10.8108
6.38021
2.32922
2452.44
2166.64
2474.63
1493.09
1555.27
-42.1696
109.257
310.038
309.023
306.61
320.168
311.219
303.96
328.277
270.001
273.747
265.675
262.99
250.549
243.951
301.547
283.634
268.974
162.881
145.148
147.266
145.135
141.824
135.792
125.276
117.793
112.895
114.167
108.971
75.458
104.125
23.7413
33.8502
28.2049
25.5554
20.4751
15.4261
10.7691
6.47084
1.50834
2400.04
2147.08
2165.93
1533.98
1414.4
-52.83
109.547
297.274
331.662
312.118
308.215
301.043
310.176
324.724
266.678
274.088
266.374
263.152
247.786
345.863
313.018
280.467
264.267
215.723
155.545
149.362
168.54
167.636
146.357
125.131
117.466
111.79
112.792
115.284
68.1029
86.6204
19.3585
34.1836
29.8565
28.83
23.9544
18.8483
14.0839
9.34882
4.9494
)
;

boundaryField
{
    AirInlet
    {
        type            calculated;
        value           nonuniform List<scalar> 5(1918.15 1916.86 1918.68 1919.3 1887.71);
    }
    WaterInlet
    {
        type            calculated;
        value           nonuniform List<scalar> 10(1374.11 1346.69 1332.02 1329.7 1338.2 2652.46 2643.92 2646.18 2660.78 2688.09);
    }
    ChannelWall
    {
        type            calculated;
        value           nonuniform List<scalar> 
110
(
1338.15
1191.6
1141.11
1120.12
1085.07
2652.51
2505.2
2455.57
2429.37
2402.95
2688.07
2510.72
2460.31
2432.61
2402.77
2400
2147.04
2165.89
1533.96
1414.4
-52.8651
109.503
297.23
331.618
312.074
308.171
300.999
310.132
324.68
266.634
274.044
266.33
263.108
247.741
345.821
312.978
280.426
264.226
215.68
155.501
149.318
168.496
167.592
146.313
125.087
117.422
111.746
112.748
115.24
68.059
86.5765
19.3146
34.1397
29.8124
28.786
23.9104
18.8042
14.0399
9.30477
4.90535
1374.14
1197.59
1145.76
1122.36
1101.98
1085.48
1083.11
955.552
573.559
50.3973
473.048
354.743
325.968
333.166
337.195
329.395
308.28
305.686
309.917
330.157
300.635
296.695
321.85
319.019
301.224
288.472
248.856
197.809
269.915
235.305
192.4
172.498
161.494
152.647
175.957
246.755
220.954
148.108
213.455
195.153
126.128
135.547
75.7966
43.6975
32.3302
25.7598
19.9275
16.3575
7.68654
1.6872
)
;
    }
    Outlet
    {
        type            calculated;
        value           nonuniform List<scalar> 
15
(
-0.0441242
-0.13238
-0.220647
-0.308952
-0.397238
-0.451106
-0.47069
-0.490272
-0.509911
-0.529497
-0.583313
-0.671429
-0.759707
-0.847796
-0.934942
)
;
    }
    FrontAndBack
    {
        type            empty;
    }
}


// ************************************************************************* //
