/*--------------------------------*- C++ -*----------------------------------*\
| =========                 |                                                 |
| \\      /  F ield         | OpenFOAM: The Open Source CFD Toolbox           |
|  \\    /   O peration     | Version:  2.3.0                                 |
|   \\  /    A nd           | Web:      www.OpenFOAM.org                      |
|    \\/     M anipulation  |                                                 |
\*---------------------------------------------------------------------------*/
FoamFile
{
    version     2.0;
    format      ascii;
    class       volScalarField;
    location    "0.04";
    object      p_rgh;
}
// * * * * * * * * * * * * * * * * * * * * * * * * * * * * * * * * * * * * * //

dimensions      [1 -1 -2 0 0 0 0];

internalField   nonuniform List<scalar> 
725
(
1374.14
1197.59
1145.76
1122.36
1101.98
1346.77
1199.89
1147.67
1123.72
1101.35
1332.14
1201.01
1147.63
1122.85
1100.62
1329.87
1197.45
1144.8
1117.04
1069.71
1338.42
1191.91
1141.45
1120.51
1085.48
1085.48
1083.11
955.552
573.559
50.3973
473.048
354.743
325.968
333.166
337.195
329.395
308.28
305.686
309.917
330.157
300.635
296.695
321.85
319.019
301.224
288.472
248.856
197.809
269.915
235.305
192.4
172.498
161.494
152.647
175.957
246.755
220.954
148.108
213.455
195.153
126.128
135.547
75.7966
43.6975
32.3302
25.7598
19.9275
16.3575
7.68654
1.6872
1091.42
1147.27
988.534
733.78
-152.526
535.56
362.309
317.124
323.294
327.962
321.745
311.05
311.164
315.274
324.653
300.16
281.966
280.134
286.238
290.801
306.375
254.528
192.221
266.778
242.537
190.286
171.901
160.643
153.188
151.751
157.925
148.407
148.067
145.64
144.806
121.22
138.346
74.4534
49.1798
40.2031
32.5194
28.9043
24.4298
6.93668
1.53735
1104.41
1219.99
1007.79
490.283
-686.782
692.419
351.751
301.434
318.126
325.941
321.043
305.222
326.24
322.42
326.977
294.681
280.285
277.311
288.314
290.848
275.719
239.535
192.832
291.863
257.051
183.324
169.815
159.841
152.155
152.299
156.958
168.406
174.634
186.726
176.306
115.724
142.994
62.7991
35.0128
28.6507
20.811
14.8452
11.178
6.11863
1.47491
1158.79
1579.23
1469.2
1044.3
-1350.66
944.251
346.868
279.188
306.661
318.101
312.652
304.121
398.992
364.32
348.426
287.933
279.754
273.855
294.317
296.664
280.15
235.907
370.754
357.123
296.455
171.241
170.433
159.113
151.065
153.588
153.501
160.789
146.448
183.279
215.364
122.97
158.127
44.7953
29.9023
29.9424
23.2436
17.0621
12.9166
7.08174
2.29132
1911.45
1878.61
1866.38
1362.83
-2269.85
837.408
303.179
253.904
304.07
314.557
315.67
327.071
375.767
377.857
343.554
277.185
277.128
265.651
303.225
296.498
279.187
238.115
285.299
380.621
528.435
134.876
162.478
155.181
148.741
155.102
151.088
165.491
142.926
179.591
234.415
121.035
144.806
20.5323
23.7623
29.6347
22.7422
16.7214
13.2661
7.09896
2.39288
1917.57
1867.44
1902
1526.25
4784.76
861.836
258.675
268.268
307.354
311.484
308.881
343.357
398.716
371.633
447.899
259.581
278.409
252.355
312.255
324.665
283.414
217.493
402.048
350.35
550.939
131.449
170.377
154.101
145.447
157.773
141.605
157.845
160.691
168.315
248.237
152.8
128.502
5.30855
17.7519
28.6531
22.8662
16.525
13.9171
6.54468
2.38634
1917.17
1865.42
1892.06
1609.79
3535.99
1562.7
193.238
269.208
307.182
313.043
309.569
339.442
383.252
372.562
398.801
252.032
327.47
298.164
315.179
423.089
287.491
205.089
412.512
341.868
575.338
320.541
167.345
160.412
152.01
159.064
168.518
145.493
141.473
140.321
241.763
151.991
104.859
3.97197
15.9837
30.6956
27.1118
20.0228
14.7301
6.39836
2.38288
1917.8
1861.54
1915.14
2011.24
2787.16
907.56
108.558
262.083
369.74
311.159
307.775
341.28
404.699
374.114
404.995
251.42
268.035
294.661
317.742
241.703
314.883
200.434
398.287
342.202
841.464
314.785
190.047
157.851
145.806
161.719
157.144
151.428
155.781
123.914
619.666
149.745
124.246
14.4194
51.9783
30.5391
23.9686
19.5813
16.8175
8.64528
3.12577
1919.3
1859.79
1900.23
1883.83
5922.35
3571.17
309.939
764.389
383.262
311.303
304.28
448.691
496.397
373.198
402.159
252.406
267.767
285.462
322.75
244.824
295.333
197.122
385.002
342.011
850.984
292.888
164.862
158.052
145.004
162.244
154.657
217.338
154.97
124.572
274.701
149.847
115.094
70.1977
17.7652
26.7255
24.0462
19.4134
11.9941
8.45388
3.17961
1960.54
1825.92
1901.35
1930.56
2583.19
2318.7
169.104
440.857
334.174
311.805
302.147
276.936
350.45
369.863
342.274
284.044
268.032
284.743
238.766
249.034
302.124
188.83
343.779
326.009
33.8119
195.469
164.684
155.433
145.523
158.424
139.054
129.126
144.907
133.864
391.581
147.531
107.151
46.6771
19.4371
26.8204
24.0938
19.3691
11.3726
7.08691
2.53733
2653.22
2505.88
2456.2
2429.96
2403.5
2644.73
2511.54
2460.72
2433.54
2411.84
2647.03
2515.2
2463.77
2437.43
2416.94
2661.69
2514.1
2463.81
2438.59
2421.01
2689.05
2511.7
2461.29
2433.59
2403.75
2382.32
1911.54
1850.5
1990.95
1262.33
101.673
206.869
345.756
336.974
311.667
304.006
296.222
303.868
341.047
259.717
266.135
260.653
274.673
247.996
265.42
309.984
216.849
221.414
261.85
98.3911
175.505
157.526
147.938
140.803
122.101
132.107
109.516
117.725
126.569
78.045
136.969
-0.645139
39.8334
22.1055
26.7726
24.5
19.4445
10.729
6.71638
2.59089
2421.5
1940.2
1741.34
1900.07
1117.5
-127.609
165.965
338.486
331.278
310.315
300.152
291.817
299.615
335.127
265.538
270.928
263.99
268.192
250.866
250.547
262.318
262.971
292.151
192.187
115.077
158.929
158.509
147.337
139.296
125.784
121.981
113.561
118.615
121.44
38.9976
105.918
22.364
49.2713
28.5853
25.1023
20.8215
15.5705
10.9849
7.57923
2.834
2429
2302.83
1636.76
1684.61
1530.94
-35.592
126.794
325.063
321.495
308.082
295.771
301.124
303.392
332.129
270.154
273.684
265.498
264.885
251.429
251.677
269.612
290.254
288.861
152.204
127.231
151.979
148.788
143.301
137.609
126.573
121.013
112.681
114.998
115.765
52.8802
84.0631
22.8629
38.8721
28.033
25.7946
21.1464
15.9643
11.5701
7.13961
3.08892
2453.29
2167.45
2475.38
1493.34
1555.4
-41.5318
110.106
310.887
309.87
307.455
321.012
312.063
304.806
329.125
270.849
274.595
266.524
263.838
251.398
244.785
302.33
284.417
269.757
163.699
145.996
148.114
145.983
142.672
136.639
126.124
118.64
113.742
115.015
109.818
76.3053
104.972
24.5867
34.6951
29.0517
26.4027
21.3224
16.2734
11.6166
7.3185
2.35614
2400.98
2147.96
2166.65
1534.24
1414.56
-52.0846
110.484
298.205
332.591
313.048
309.15
301.979
311.112
325.66
267.615
275.024
267.311
264.089
248.722
346.749
313.883
281.331
265.132
216.644
156.481
150.294
169.47
168.567
147.291
126.067
118.402
112.726
113.728
116.218
69.0346
87.5521
20.2902
35.1164
30.791
29.7644
24.889
19.783
15.0188
10.2838
5.88434
)
;

boundaryField
{
    AirInlet
    {
        type            fixedFluxPressure;
        gradient        nonuniform List<scalar> 5(58052.9 -31546.7 87465.2 -11.8334 -7.28267e+06);
        value           nonuniform List<scalar> 5(1918.15 1916.86 1918.68 1919.3 1887.71);
    }
    WaterInlet
    {
        type            fixedFluxPressure;
        gradient        nonuniform List<scalar> 10(0.00577811 0.228759 -0.829016 -6.08219 -5.65004 0.0375203 -2.36805 -9.26902 0.328152 -23.5037);
        value           nonuniform List<scalar> 10(1374.14 1346.77 1332.14 1329.87 1338.42 2653.22 2644.73 2647.03 2661.69 2689.05);
    }
    ChannelWall
    {
        type            fixedFluxPressure;
        gradient        uniform 0;
        value           nonuniform List<scalar> 
110
(
1338.42
1191.91
1141.45
1120.51
1085.48
2653.22
2505.88
2456.2
2429.96
2403.5
2689.05
2511.7
2461.29
2433.59
2403.75
2400.98
2147.96
2166.65
1534.24
1414.56
-52.0846
110.484
298.205
332.591
313.048
309.15
301.979
311.112
325.66
267.615
275.024
267.311
264.089
248.722
346.749
313.883
281.331
265.132
216.644
156.481
150.294
169.47
168.567
147.291
126.067
118.402
112.726
113.728
116.218
69.0346
87.5521
20.2902
35.1164
30.791
29.7644
24.889
19.783
15.0188
10.2838
5.88434
1374.14
1197.59
1145.76
1122.36
1101.98
1085.48
1083.11
955.552
573.559
50.3973
473.048
354.743
325.968
333.166
337.195
329.395
308.28
305.686
309.917
330.157
300.635
296.695
321.85
319.019
301.224
288.472
248.856
197.809
269.915
235.305
192.4
172.498
161.494
152.647
175.957
246.755
220.954
148.108
213.455
195.153
126.128
135.547
75.7966
43.6975
32.3302
25.7598
19.9275
16.3575
7.68654
1.6872
)
;
    }
    Outlet
    {
        type            totalPressure;
        rho             rho;
        psi             none;
        gamma           1;
        p0              uniform 0;
        value           uniform 0;
    }
    FrontAndBack
    {
        type            empty;
    }
}


// ************************************************************************* //
