/*--------------------------------*- C++ -*----------------------------------*\
| =========                 |                                                 |
| \\      /  F ield         | OpenFOAM: The Open Source CFD Toolbox           |
|  \\    /   O peration     | Version:  2.3.0                                 |
|   \\  /    A nd           | Web:      www.OpenFOAM.org                      |
|    \\/     M anipulation  |                                                 |
\*---------------------------------------------------------------------------*/
FoamFile
{
    version     2.0;
    format      ascii;
    class       surfaceScalarField;
    location    "0.04";
    object      phi;
}
// * * * * * * * * * * * * * * * * * * * * * * * * * * * * * * * * * * * * * //

dimensions      [0 3 -1 0 0 0 0];

internalField   nonuniform List<scalar> 
1380
(
3.12977e-13
1.87023e-13
2.77535e-13
3.54428e-14
3.01719e-13
-2.41845e-14
2.44309e-13
5.74104e-14
-3.13005e-13
5.57314e-13
5.99633e-13
8.73896e-14
6.03838e-13
3.12377e-14
5.67434e-13
1.22193e-14
-6.87811e-14
6.93626e-13
-4.70471e-13
8.86847e-14
6.83814e-13
-9.64243e-14
7.24674e-13
-9.62198e-15
7.32868e-13
4.02477e-15
6.73128e-13
7.53366e-13
-6.64716e-13
8.67373e-13
5.97712e-13
-1.94136e-13
6.15802e-13
-2.77124e-14
6.27926e-13
-8.09878e-15
9.68002e-13
4.1329e-13
-7.47977e-13
1.05126e-12
3.05864e-13
2.78151e-13
2.70053e-13
6.83343e-13
-6.4634e-14
2.36688e-12
-1.80957e-12
1.2758e-12
1.09108e-12
3.84378e-13
8.9142e-13
3.0789e-13
7.6488e-14
3.8773e-13
-7.98405e-14
8.92989e-13
-5.05259e-13
2.82413e-13
6.10576e-13
-1.52274e-12
1.80515e-12
4.71364e-12
-6.23637e-12
6.24149e-12
-1.52785e-12
9.96694e-13
5.24479e-12
4.96389e-14
9.47056e-13
-2.88762e-15
5.25266e-14
1.36663e-13
-1.3955e-13
1.82471e-13
-4.58077e-14
1.71138e-13
1.1333e-14
1.4696e-13
2.41782e-14
1.31074e-13
1.58863e-14
1.25567e-13
5.50674e-15
1.35146e-13
-9.57898e-15
1.40615e-13
-5.46965e-15
1.39451e-13
1.16397e-15
1.34235e-13
5.21654e-15
1.26851e-13
7.38363e-15
1.15086e-13
1.17658e-14
9.14573e-14
2.36282e-14
5.31783e-14
3.8279e-14
-1.15807e-14
6.47591e-14
-7.35148e-14
6.19341e-14
-1.66904e-13
9.33892e-14
-4.85124e-13
3.1822e-13
-2.02238e-12
1.53726e-12
-6.02164e-12
3.99926e-12
-3.54795e-12
-2.47368e-12
-1.13164e-12
-2.4163e-12
5.67233e-13
-1.69887e-12
1.01281e-12
-4.45577e-13
5.75128e-13
4.37682e-13
3.08011e-13
2.67117e-13
1.62563e-13
1.45448e-13
1.19833e-13
4.27295e-14
-1.29966e-13
2.49799e-13
-6.35947e-13
5.0598e-13
-4.58046e-12
3.94451e-12
-1.7998e-12
3.00446e-12
-4.72534e-12
1.6639e-12
2.43164e-12
8.00852e-13
1.75447e-12
6.97848e-13
1.79492e-13
8.12969e-13
-1.94961e-13
1.60218e-12
-1.29447e-12
1.93875e-12
2.73998e-13
-7.17778e-13
4.46169e-12
5.07222e-12
-1.20264e-11
3.39828e-12
1.46103e-13
1.22813e-13
8.52026e-12
-4.80355e-13
1.55022e-12
-1.47334e-13
-2.80495e-13
2.40989e-13
-5.27872e-13
3.97063e-13
-2.01881e-13
4.06435e-13
1.96049e-15
3.70438e-13
6.01758e-14
3.44628e-13
4.16961e-14
3.33721e-13
1.64138e-14
3.4956e-13
-2.54186e-14
3.60645e-13
-1.65546e-14
3.61523e-13
2.86151e-16
3.57261e-13
9.47938e-15
3.51812e-13
1.28319e-14
3.44304e-13
1.92739e-14
3.26263e-13
4.16698e-14
3.01912e-13
6.263e-14
2.73415e-13
9.32559e-14
2.85652e-13
4.96968e-14
3.0065e-13
7.83917e-14
-1.93211e-13
8.12081e-13
-2.39581e-12
3.73986e-12
-5.29428e-12
6.89772e-12
-3.57298e-12
-4.19498e-12
-1.49467e-12
-4.4946e-12
4.97512e-13
-3.69104e-12
8.11984e-13
-7.60048e-13
8.21957e-13
4.27709e-13
5.6408e-13
5.24994e-13
3.99709e-13
3.0982e-13
3.95791e-13
4.66472e-14
5.7333e-13
7.22599e-14
7.93386e-13
2.85924e-13
3.1079e-12
1.63e-12
-8.83993e-13
2.29363e-12
-6.1516e-12
1.37716e-12
3.34811e-12
9.26409e-13
2.20522e-12
8.28556e-13
2.77345e-13
8.90572e-13
-2.56978e-13
1.04095e-12
-1.44484e-12
6.04319e-13
7.10628e-13
-3.1983e-12
8.26431e-12
4.41247e-12
-1.96371e-11
1.63527e-12
2.9233e-12
-1.25369e-12
1.14092e-11
-8.07252e-13
1.10379e-12
-1.36366e-13
-9.51381e-13
3.81447e-13
-1.04569e-12
5.64914e-13
-3.85348e-13
5.9514e-13
-2.82658e-14
5.64798e-13
9.05177e-14
5.32653e-13
7.38416e-14
5.10883e-13
3.81841e-14
5.21247e-13
-3.5783e-14
5.29158e-13
-2.44655e-14
5.29955e-13
-5.10882e-16
5.28206e-13
1.12282e-14
5.27987e-13
1.30507e-14
5.29471e-13
1.77906e-14
5.22273e-13
4.88672e-14
5.14724e-13
7.01797e-14
5.10032e-13
9.79479e-14
5.50219e-13
9.51006e-15
5.24532e-13
1.04078e-13
-9.56926e-14
1.43231e-12
-2.22517e-12
5.86934e-12
-2.19554e-12
6.86809e-12
-1.40143e-12
-4.98909e-12
-9.42654e-13
-4.95337e-12
5.03108e-13
-5.1368e-12
8.87662e-13
-1.1446e-12
8.5651e-13
4.58861e-13
6.98259e-13
6.83245e-13
5.72032e-13
4.36047e-13
6.11326e-13
7.35352e-15
8.7463e-13
-1.91045e-13
1.62018e-12
-4.59627e-13
3.23174e-12
1.8443e-14
1.10038e-13
1.45315e-13
-5.24565e-12
8.829e-13
2.61053e-12
9.31115e-13
2.157e-12
8.75083e-13
3.33377e-13
6.88388e-13
-7.02833e-14
1.32654e-13
-8.89108e-13
-1.42169e-12
2.26497e-12
-4.21783e-12
1.10604e-11
1.30677e-12
-2.51617e-11
-3.07645e-12
7.30653e-12
-1.09215e-12
9.42491e-12
-6.45744e-13
6.57389e-13
9.12784e-14
-1.6884e-12
5.47556e-13
-1.50196e-12
6.80775e-13
-5.18567e-13
6.9515e-13
-4.26411e-14
6.99176e-13
8.64919e-14
6.89569e-13
8.34481e-14
6.54637e-13
7.31161e-14
6.49638e-13
-3.07838e-14
6.43305e-13
-1.81322e-14
6.40964e-13
1.83026e-15
6.41888e-13
1.03039e-14
6.4627e-13
8.66921e-15
6.55314e-13
8.74621e-15
6.53782e-13
5.03995e-14
6.48305e-13
7.56569e-14
6.29198e-13
1.17055e-13
6.01224e-13
3.74845e-14
3.90079e-13
3.15222e-13
-1.12107e-13
1.93449e-12
-1.40459e-12
7.16183e-12
2.59277e-13
5.20422e-12
1.33433e-12
-6.06414e-12
-1.78166e-13
-3.44086e-12
5.11456e-13
-5.82641e-12
7.06907e-13
-1.34005e-12
7.65626e-13
4.00142e-13
7.69134e-13
6.79737e-13
7.02725e-13
5.02456e-13
7.17499e-13
-7.42035e-15
7.8006e-13
-2.53606e-13
1.03835e-12
-7.17919e-13
2.33889e-12
-1.28209e-12
1.8676e-14
-2.78395e-12
-2.52633e-12
1.20661e-12
-1.38003e-12
1.68705e-12
1.67657e-12
1.058e-12
9.62427e-13
2.70765e-13
7.1695e-13
-7.13834e-13
9.54915e-14
-1.35213e-12
2.90327e-12
-4.80227e-12
1.45106e-11
-2.04459e-12
-2.79194e-11
-1.51598e-11
2.04217e-11
3.42436e-13
-6.0773e-12
3.00666e-13
6.99159e-13
6.49894e-13
-2.03763e-12
7.53794e-13
-1.60586e-12
7.79877e-13
-5.44649e-13
8.07814e-13
-7.05787e-14
8.10511e-13
8.37945e-14
8.12591e-13
8.13684e-14
7.86436e-13
9.92714e-14
7.27205e-13
2.84464e-14
6.97874e-13
1.11987e-14
6.92693e-13
7.01163e-15
6.98483e-13
4.51476e-15
7.08826e-13
-1.67478e-15
7.27773e-13
-1.01999e-14
7.28107e-13
5.00655e-14
7.17435e-13
8.63285e-14
6.65557e-13
1.68934e-13
5.12031e-13
1.9101e-13
2.00335e-13
6.26918e-13
6.82885e-15
2.128e-12
-4.17942e-14
7.21045e-12
2.97803e-12
2.1844e-12
2.39189e-12
-5.47799e-12
-6.25382e-14
-9.86436e-13
1.10732e-12
-6.99625e-12
7.68664e-13
-1.0014e-12
5.84133e-13
5.84673e-13
7.2057e-13
5.43299e-13
7.73497e-13
4.49529e-13
7.70152e-13
-4.07463e-15
8.13114e-13
-2.96568e-13
1.14266e-12
-1.04747e-12
3.15844e-12
-3.29787e-12
1.38824e-12
-8.74744e-14
-2.23886e-12
9.45591e-13
-2.4131e-12
7.60566e-13
1.86159e-12
3.03176e-13
1.41982e-12
-1.19547e-14
1.03208e-12
-4.33913e-13
5.1745e-13
7.37335e-13
1.73202e-12
-3.12026e-13
1.556e-11
-3.02832e-12
-2.52031e-11
-8.4228e-12
2.58162e-11
-1.20375e-12
-1.32963e-11
2.18366e-13
-7.22958e-13
2.45899e-13
-2.06516e-12
1.87678e-13
-1.54764e-12
1.80142e-13
-5.37114e-13
1.87855e-13
-7.82915e-14
1.93105e-13
7.85442e-14
1.85215e-13
8.92581e-14
1.7593e-13
1.08557e-13
1.61428e-13
4.29476e-14
1.5467e-13
1.79567e-14
1.54454e-13
7.22771e-15
1.57698e-13
1.27145e-15
1.61653e-13
-5.63015e-15
1.64111e-13
-1.26575e-14
1.65838e-13
4.83391e-14
1.62013e-13
9.01524e-14
1.51858e-13
1.7909e-13
1.02131e-13
2.40737e-13
3.88138e-14
6.90235e-13
4.95623e-14
2.11725e-12
3.58736e-13
6.90127e-12
3.07416e-13
2.23572e-12
2.67925e-13
-5.43849e-12
-2.55172e-13
-4.63338e-13
8.68521e-14
-7.33827e-12
1.31367e-13
-1.04591e-12
1.04171e-13
6.11869e-13
1.39303e-13
5.08167e-13
1.84504e-13
4.04328e-13
1.54113e-13
2.63162e-14
1.61997e-13
-3.04452e-13
8.42342e-14
-9.69704e-13
-5.34497e-13
-2.67914e-12
8.80552e-13
-6.96045e-13
-1.34281e-12
1.11919e-12
-4.22833e-12
8.66552e-13
2.11423e-12
3.1944e-13
1.96693e-12
1.93254e-16
1.35133e-12
-3.50058e-13
8.677e-13
7.96244e-13
5.85716e-13
5.79618e-13
1.57766e-11
-3.281e-12
-2.13425e-11
-2.43469e-12
2.49699e-11
1.85338e-13
-1.59164e-11
4.75963e-13
-1.01358e-12
2.8702e-13
-1.87622e-12
1.9532e-13
-1.45594e-12
1.78851e-13
-5.20645e-13
1.86629e-13
-8.60694e-14
1.90926e-13
7.42474e-14
1.85718e-13
9.44656e-14
1.77157e-13
1.17118e-13
1.64978e-13
5.51269e-14
1.57275e-13
2.56596e-14
1.57169e-13
7.33346e-15
1.60747e-13
-2.306e-15
1.6442e-13
-9.3037e-15
1.66075e-13
-1.43124e-14
1.66851e-13
4.75632e-14
1.62866e-13
9.41381e-14
1.52538e-13
1.89418e-13
1.00069e-13
2.93205e-13
4.14616e-14
7.48842e-13
5.56213e-14
2.10309e-12
3.75713e-13
6.58118e-12
2.21181e-13
2.39025e-12
1.14585e-13
-5.3319e-12
-6.18733e-13
2.69979e-13
1.01182e-13
-8.05819e-12
1.19636e-13
-1.06436e-12
8.54041e-14
6.46101e-13
1.32261e-13
4.6131e-13
1.87418e-13
3.4917e-13
1.50606e-13
6.31285e-14
1.60669e-13
-3.14514e-13
7.09933e-14
-8.80028e-13
-5.09496e-13
-2.09865e-12
1.90915e-13
3.27624e-14
-1.17558e-12
8.67007e-13
-5.06258e-12
8.48872e-13
2.13236e-12
3.2035e-13
2.49545e-12
1.53499e-14
1.65633e-12
-1.60679e-13
1.04373e-12
6.91904e-14
3.55846e-13
3.3192e-13
1.55138e-11
-2.86421e-12
-1.81464e-11
6.83709e-12
1.52686e-11
3.46018e-12
-1.25395e-11
9.10338e-13
1.53626e-12
3.10519e-13
-1.2764e-12
1.99883e-13
-1.34531e-12
1.76707e-13
-4.97469e-13
1.79934e-13
-8.92958e-14
1.87043e-13
6.71379e-14
1.85062e-13
9.64466e-14
1.78462e-13
1.23718e-13
1.68535e-13
6.50541e-14
1.62121e-13
3.2074e-14
1.61885e-13
7.5686e-15
1.64901e-13
-5.32153e-15
1.67698e-13
-1.21006e-14
1.68853e-13
-1.54671e-14
1.69223e-13
4.71924e-14
1.64865e-13
9.84961e-14
1.54121e-13
2.00162e-13
1.00071e-13
3.47255e-13
5.09018e-14
7.98012e-13
8.23697e-14
2.07162e-12
3.45651e-13
6.3179e-12
2.9786e-13
2.43804e-12
2.67593e-14
-5.06079e-12
3.25457e-14
2.64193e-13
9.6868e-14
-8.12251e-12
1.24324e-13
-1.09182e-12
6.95061e-14
7.00919e-13
1.26201e-13
4.04615e-13
1.86243e-13
2.89128e-13
1.5089e-13
9.84814e-14
1.60809e-13
-3.24434e-13
1.08742e-13
-8.27962e-13
-1.99467e-13
-1.79044e-12
6.59217e-14
-1.15313e-12
1.77554e-13
3.39201e-13
-6.55491e-12
7.1382e-13
1.75774e-12
3.02113e-13
2.90716e-12
7.11896e-15
1.95132e-12
-2.59607e-13
1.31046e-12
-7.41484e-13
8.37724e-13
2.37191e-13
1.45352e-11
1.51968e-12
-1.94289e-11
4.23759e-12
1.25507e-11
3.21925e-12
-1.15211e-11
1.03424e-12
3.72128e-12
3.00538e-13
-5.42705e-13
2.00768e-13
-1.24554e-12
1.75293e-13
-4.71994e-13
1.76315e-13
-9.03181e-14
1.83149e-13
6.03046e-14
1.83598e-13
9.59974e-14
1.79148e-13
1.28168e-13
1.71328e-13
7.28749e-14
1.66201e-13
3.72009e-14
1.66027e-13
7.74271e-15
1.68475e-13
-7.76953e-15
1.70533e-13
-1.41587e-14
1.71092e-13
-1.60263e-14
1.71154e-13
4.71305e-14
1.66755e-13
1.02895e-13
1.56309e-13
2.10608e-13
1.02322e-13
4.01242e-13
6.63737e-14
8.3396e-13
1.40085e-13
1.99791e-12
4.70091e-13
5.9879e-12
3.1646e-13
2.59168e-12
5.37585e-15
-4.74971e-12
2.61893e-13
7.6762e-15
2.28079e-13
-8.08869e-12
1.11951e-13
-9.75693e-13
7.10543e-14
7.41816e-13
1.24192e-13
3.51478e-13
1.84136e-13
2.29185e-13
1.50655e-13
1.31962e-13
1.59689e-13
-3.33467e-13
1.26343e-13
-7.94615e-13
5.30154e-14
-1.71711e-12
3.19411e-13
-7.16219e-13
1.09377e-12
-1.15351e-13
-7.15578e-12
5.10807e-13
1.13158e-12
2.74283e-13
3.14368e-12
5.27012e-14
2.1729e-12
7.43556e-15
1.35572e-12
-2.41027e-13
1.08619e-12
-2.557e-13
1.45498e-11
1.01571e-12
-2.07003e-11
3.09857e-13
1.32565e-11
1.40869e-12
-1.262e-11
7.36739e-13
4.39323e-12
2.77709e-13
-8.36744e-14
1.97882e-13
-1.16571e-12
1.74035e-13
-4.48147e-13
1.73954e-13
-9.02366e-14
1.80455e-13
5.38028e-14
1.82027e-13
9.44254e-14
1.7944e-13
1.30756e-13
1.73472e-13
7.88428e-14
1.69513e-13
4.11599e-14
1.69386e-13
7.8695e-15
1.71302e-13
-9.68566e-15
1.72687e-13
-1.55434e-14
1.72687e-13
-1.60267e-14
1.72491e-13
4.73264e-14
1.68277e-13
1.07109e-13
1.58253e-13
2.20632e-13
1.07118e-13
4.52377e-13
8.16e-14
8.59478e-13
1.73564e-13
1.90595e-12
5.31141e-13
5.63032e-12
2.92447e-13
2.83037e-12
-2.34844e-15
-4.45491e-12
3.91886e-13
-3.86558e-13
2.9797e-13
-7.99478e-12
6.32553e-14
-7.40978e-13
7.82286e-14
7.26842e-13
1.25143e-13
3.04563e-13
1.8103e-13
1.73297e-13
1.52479e-13
1.60513e-13
1.4582e-13
-3.26809e-13
9.13811e-14
-7.40175e-13
-1.75344e-14
-1.6082e-12
2.76843e-13
2.93675e-13
2.06325e-13
2.26534e-13
6.71412e-14
1.48708e-14
2.11664e-13
-1.76311e-13
1.91181e-13
5.29797e-13
-7.06107e-13
5.93523e-13
1.12801e-13
5.84975e-13
7.56894e-14
4.50453e-13
3.46186e-13
-3.30851e-14
6.74719e-13
1.35232e-12
-8.55605e-13
6.87681e-13
-7.48793e-14
7.55877e-13
7.49263e-15
9.33858e-13
1.68205e-13
2.51609e-12
-9.07509e-13
-2.39665e-12
6.26506e-12
6.06991e-13
-1.8187e-13
6.34788e-13
-2.03048e-14
7.33295e-13
6.9698e-14
7.49112e-13
-9.23326e-13
-2.0144e-12
3.66855e-13
3.1813e-13
2.97825e-13
3.67523e-13
-5.55803e-13
-2.5702e-12
-1.63785e-12
2.02552e-12
-3.93242e-12
-4.86121e-12
-4.20999e-13
-2.37984e-12
7.6623e-13
1.95645e-12
1.16216e-12
1.77698e-12
9.81061e-13
1.53682e-12
2.01176e-12
5.54927e-14
6.42192e-12
1.01397e-11
2.54432e-12
-1.68227e-11
-1.88882e-13
1.59897e-11
-6.29295e-12
-6.51591e-12
-4.94988e-13
-1.40473e-12
1.00328e-12
-1.58195e-12
8.84415e-13
-1.04684e-12
7.61696e-13
-3.25428e-13
7.5309e-13
-8.1631e-14
7.86771e-13
2.01222e-14
7.94293e-13
8.69033e-14
8.04031e-13
1.21017e-13
7.97389e-13
8.54849e-14
7.92691e-13
4.58576e-14
7.92475e-13
8.086e-15
7.95259e-13
-1.247e-14
7.94384e-13
-1.4668e-14
7.86124e-13
-7.76667e-15
7.84237e-13
4.92125e-14
7.68852e-13
1.22494e-13
7.22503e-13
2.66982e-13
5.69497e-13
6.05383e-13
5.02056e-13
9.26919e-13
8.89711e-13
1.51829e-12
2.26356e-12
4.25647e-12
1.55651e-12
3.53742e-12
3.58212e-13
-3.25662e-12
2.92176e-12
-2.9501e-12
1.13726e-12
-6.21028e-12
2.78441e-13
1.17845e-13
3.82695e-13
6.22589e-13
6.09771e-13
7.74877e-14
7.4117e-13
4.18984e-14
7.21594e-13
1.80089e-13
4.14889e-13
-2.01034e-14
-2.38313e-13
-8.6974e-14
-7.90612e-13
-1.0559e-12
-1.84603e-13
2.32962e-12
-1.15971e-12
3.6484e-13
-2.89642e-12
-1.07307e-13
-1.90769e-12
4.74745e-13
1.3744e-12
9.38807e-13
1.31292e-12
2.57317e-14
2.44989e-12
3.92077e-13
-3.10853e-13
3.62473e-12
6.90703e-12
-4.96575e-12
-8.23218e-12
2.86061e-12
8.16337e-12
-7.67954e-14
-3.5785e-12
1.25664e-12
-2.73816e-12
1.17311e-12
-1.49842e-12
8.15516e-13
-6.89247e-13
6.81553e-13
-1.91465e-13
6.66818e-13
-6.68961e-14
6.8113e-13
5.81095e-15
7.00114e-13
6.79193e-14
7.29447e-13
9.16845e-14
7.47815e-13
6.71164e-14
7.57589e-13
3.60844e-14
7.57986e-13
7.68912e-15
7.53756e-13
-8.2406e-15
7.47516e-13
-8.42819e-15
7.37561e-13
2.18897e-15
7.3737e-13
4.94028e-14
7.38982e-13
1.20882e-13
7.43664e-13
2.62301e-13
7.37141e-13
6.11906e-13
8.00377e-13
8.63683e-13
1.15917e-12
1.1595e-12
2.69814e-12
2.7175e-12
2.58314e-12
3.65241e-12
1.70259e-12
-2.37606e-12
2.48132e-12
-3.72883e-12
9.22261e-13
-4.65121e-12
1.37398e-13
9.02709e-13
4.47369e-13
3.12618e-13
6.21426e-13
-9.65699e-14
6.63479e-13
-1.54296e-16
6.37344e-13
2.06224e-13
2.5068e-13
3.66561e-13
-5.39381e-13
7.03087e-13
-3.44828e-12
1.853e-12
-9.55577e-13
-8.60944e-13
5.96629e-12
-1.38227e-12
-2.3751e-12
-4.65451e-13
-2.8245e-12
1.55257e-13
7.53693e-13
6.5303e-13
8.15142e-13
1.26094e-12
1.84198e-12
2.45367e-12
-1.50358e-12
5.00668e-12
4.35402e-12
1.55873e-12
-4.78423e-12
5.5864e-12
4.1357e-12
3.25731e-12
-1.24941e-12
1.69957e-12
-1.18042e-12
9.68155e-13
-7.67003e-13
6.60405e-13
-3.81497e-13
5.66391e-13
-9.7451e-14
5.37011e-13
-3.75162e-14
5.34635e-13
8.18631e-15
5.60611e-13
4.19433e-14
5.98482e-13
5.3814e-14
6.26374e-13
3.92245e-14
6.41941e-13
2.05178e-14
6.43795e-13
5.83534e-15
6.38884e-13
-3.33045e-15
6.30769e-13
-3.13041e-16
6.24062e-13
8.89601e-15
6.32178e-13
4.12861e-14
6.58544e-13
9.45169e-14
7.22232e-13
1.98613e-13
8.73689e-13
4.60449e-13
1.06915e-12
6.68223e-13
1.34945e-12
8.79204e-13
2.42459e-12
1.64236e-12
3.0416e-12
3.03541e-12
2.63681e-12
-1.97126e-12
2.15048e-12
-3.2425e-12
4.00847e-13
-2.90157e-12
2.75632e-13
1.02792e-12
4.94503e-13
9.37474e-14
5.37968e-13
-1.40035e-13
5.44993e-13
-7.17953e-15
5.71174e-13
1.80044e-13
4.95447e-13
4.42288e-13
6.84352e-14
1.1301e-12
-4.45707e-13
2.36714e-12
-2.15849e-12
4.98254e-13
5.83489e-12
-3.68174e-14
-1.84003e-12
-8.7777e-13
-1.98355e-12
-3.2889e-13
2.04813e-13
1.23526e-13
3.62727e-13
1.10718e-12
8.58323e-13
7.70201e-13
-1.1666e-12
3.0541e-12
2.07013e-12
-4.66386e-13
-1.26375e-12
1.93378e-12
1.73554e-12
1.44609e-12
-7.6173e-13
1.03737e-12
-7.71693e-13
6.67947e-13
-3.97582e-13
4.50075e-13
-1.63625e-13
3.77064e-13
-2.444e-14
3.46272e-13
-6.72398e-15
3.48286e-13
6.17215e-15
3.74044e-13
1.61861e-14
4.0905e-13
1.88079e-14
4.35123e-13
1.3152e-14
4.48835e-13
6.80564e-15
4.52278e-13
2.392e-15
4.48393e-13
5.54239e-16
4.45413e-13
2.66662e-15
4.4699e-13
7.31875e-15
4.67088e-13
2.11886e-14
5.17192e-13
4.44127e-14
6.27196e-13
8.86085e-14
8.82751e-13
2.04894e-13
1.25154e-12
2.99436e-13
1.66802e-12
4.6272e-13
2.35645e-12
9.53939e-13
3.5301e-12
1.86175e-12
3.26019e-12
-1.70135e-12
1.58896e-12
-1.57127e-12
-1.20119e-13
-1.19249e-12
3.01591e-13
6.06216e-13
4.2759e-13
-3.22508e-14
3.72883e-13
-8.53277e-14
3.76803e-13
-1.10996e-14
4.65032e-13
9.18149e-14
7.49962e-13
1.57358e-13
1.40747e-12
4.72589e-13
2.30818e-12
1.46643e-12
-3.25628e-13
3.26469e-12
1.42466e-12
-5.5889e-13
-3.54076e-13
8.65085e-15
8.66974e-13
-2.99627e-13
1.7705e-12
5.06759e-13
2.2423e-12
1.48057e-12
7.0888e-13
3.11298e-13
1.47673e-13
1.23233e-13
1.16509e-13
1.22682e-13
1.38868e-13
1.57676e-13
1.70828e-13
1.77633e-13
1.80025e-13
1.80579e-13
1.83246e-13
1.90565e-13
2.11753e-13
2.56166e-13
3.44775e-13
5.49669e-13
8.49104e-13
1.31182e-12
2.26576e-12
4.12751e-12
2.42617e-12
8.54902e-13
-3.37587e-13
2.6863e-13
2.36379e-13
1.51051e-13
1.39952e-13
2.31767e-13
3.89124e-13
8.61714e-13
2.32815e-12
)
;

boundaryField
{
    AirInlet
    {
        type            calculated;
        value           nonuniform List<scalar> 5(-2e-13 -2e-13 -2e-13 -2e-13 -2e-13);
    }
    WaterInlet
    {
        type            calculated;
        value           nonuniform List<scalar> 10(-5e-13 -5e-13 -5e-13 -5e-13 -5e-13 -5e-13 -5e-13 -5e-13 -5e-13 -5e-13);
    }
    ChannelWall
    {
        type            calculated;
        value           uniform 0;
    }
    Outlet
    {
        type            calculated;
        value           nonuniform List<scalar> 
15
(
-2.78066e-12
2.19209e-12
2.23771e-12
2.43025e-12
1.78888e-12
-2.68141e-14
1.80141e-13
-7.44736e-14
-2.00474e-13
2.50339e-14
-3.29166e-13
-2.67731e-12
7.57207e-13
4.75319e-13
2.00252e-12
)
;
    }
    FrontAndBack
    {
        type            empty;
        value           nonuniform 0();
    }
}


// ************************************************************************* //
