/*--------------------------------*- C++ -*----------------------------------*\
| =========                 |                                                 |
| \\      /  F ield         | OpenFOAM: The Open Source CFD Toolbox           |
|  \\    /   O peration     | Version:  2.3.0                                 |
|   \\  /    A nd           | Web:      www.OpenFOAM.org                      |
|    \\/     M anipulation  |                                                 |
\*---------------------------------------------------------------------------*/
FoamFile
{
    version     2.0;
    format      ascii;
    class       surfaceScalarField;
    location    "0.04";
    object      phi;
}
// * * * * * * * * * * * * * * * * * * * * * * * * * * * * * * * * * * * * * //

dimensions      [0 3 -1 0 0 0 0];

internalField   nonuniform List<scalar> 
1380
(
1.32725e-12
6.72747e-13
1.11647e-12
2.10784e-13
1.07142e-12
4.50482e-14
1.06379e-12
7.62778e-15
1.16829e-13
9.46964e-13
2.40857e-12
2.64174e-13
2.4951e-12
1.24261e-13
2.51678e-12
2.33688e-14
2.48893e-12
3.54731e-14
3.24104e-13
2.28166e-12
2.67578e-12
-4.11605e-13
2.92937e-12
-1.29326e-13
3.01214e-12
-5.94036e-14
3.07597e-12
-2.83561e-14
1.5355e-13
3.24652e-12
2.34948e-12
-7.61089e-13
2.42492e-12
-2.04764e-13
2.4537e-12
-8.81808e-14
2.64501e-12
-2.19671e-13
-8.11549e-13
3.61011e-12
1.23891e-12
1.03415e-12
9.45966e-13
7.26295e-13
-8.5254e-14
8.26002e-13
1.20962e-13
1.48573e-12
-6.5973e-13
1.98871e-12
-5.02981e-13
4.0316e-12
-2.04288e-12
5.92371e-13
3.43923e-12
-3.94661e-13
9.87032e-13
-5.5408e-13
1.59419e-13
-3.0008e-13
-2.54e-13
1.20462e-13
-4.20542e-13
4.40699e-13
-3.20236e-13
4.32627e-13
8.07182e-15
2.34498e-13
1.98128e-13
3.14462e-13
-7.99636e-14
5.57258e-13
-2.42796e-13
8.70646e-13
-3.13388e-13
7.90815e-13
7.98311e-14
8.18926e-13
-2.81109e-14
6.51596e-13
1.67329e-13
5.5773e-13
9.38671e-14
8.15138e-13
-2.57409e-13
9.9876e-13
-1.83623e-13
6.93023e-13
3.05737e-13
4.31051e-13
2.61972e-13
1.00784e-12
-5.76785e-13
8.3292e-13
1.74917e-13
6.13865e-13
2.19055e-13
5.73447e-13
4.04178e-14
5.57787e-13
1.56607e-14
5.80457e-13
-2.26702e-14
9.46483e-13
-3.66026e-13
1.07265e-12
-1.26169e-13
1.06002e-12
1.26346e-14
9.33293e-13
1.26724e-13
1.32155e-12
-3.88253e-13
1.17855e-12
1.42996e-13
8.76858e-13
3.01692e-13
1.17578e-12
-2.98923e-13
1.00383e-12
1.71955e-13
7.33497e-13
2.70329e-13
5.98644e-13
1.34854e-13
5.54661e-13
4.39828e-14
5.23968e-13
3.06932e-14
5.47197e-13
-2.32289e-14
5.12611e-13
3.45862e-14
1.29478e-14
2.08568e-12
3.16942e-13
3.32068e-12
-1.89473e-12
4.83952e-12
-2.02182e-12
6.54233e-12
-3.7457e-12
2.35107e-12
7.63049e-12
3.9064e-13
2.94746e-12
-2.9626e-13
8.46319e-13
5.96785e-14
-6.09939e-13
7.08024e-13
-1.06889e-12
1.18986e-12
-8.02074e-13
1.11756e-12
8.03775e-14
8.8744e-13
4.28245e-13
1.07369e-12
-2.66218e-13
1.40144e-12
-5.70543e-13
1.87414e-12
-7.86089e-13
1.79924e-12
1.54734e-13
1.63563e-12
1.35503e-13
1.4328e-12
3.70149e-13
1.4414e-12
8.52693e-14
1.73661e-12
-5.52618e-13
2.08655e-12
-5.33565e-13
1.53979e-12
8.52503e-13
1.27126e-12
5.30501e-13
2.23949e-12
-1.54502e-12
2.04095e-12
3.73455e-13
1.648e-12
6.1201e-13
1.49718e-12
1.91236e-13
1.42066e-12
9.21856e-14
1.31328e-12
8.47034e-14
1.3073e-12
-3.60046e-13
1.53263e-12
-3.51494e-13
1.72356e-12
-1.78292e-13
1.87296e-12
-2.268e-14
1.55238e-12
-6.7676e-14
1.80443e-12
-1.0905e-13
1.8549e-12
2.5122e-13
2.47244e-12
-9.16461e-13
2.1879e-12
4.56495e-13
1.68568e-12
7.72548e-13
1.45323e-12
3.67308e-13
1.3596e-12
1.3761e-13
1.34572e-12
4.4574e-14
1.29923e-12
2.32622e-14
1.30786e-12
2.59509e-14
2.85326e-14
3.45961e-12
1.03856e-13
5.99653e-12
-4.43166e-12
9.62397e-12
-5.64926e-12
1.06979e-11
-4.81963e-12
2.43422e-12
1.58942e-11
9.72374e-13
4.4093e-12
5.33334e-13
1.28536e-12
8.58053e-13
-9.34659e-13
1.42141e-12
-1.63224e-12
1.8875e-12
-1.26817e-12
1.93284e-12
3.50367e-14
1.80773e-12
5.53362e-13
1.76849e-12
-2.26979e-13
1.90615e-12
-7.0821e-13
2.63446e-12
-1.51439e-12
2.50582e-12
2.83374e-13
2.3143e-12
3.27019e-13
2.00956e-12
6.74886e-13
2.06368e-12
3.11513e-14
2.56263e-12
-1.05157e-12
2.82458e-12
-7.95513e-13
2.44471e-12
1.23237e-12
2.22186e-12
7.53359e-13
2.94027e-12
-2.26343e-12
2.5876e-12
7.26118e-13
2.21494e-12
9.84676e-13
2.11511e-12
2.91068e-13
2.044e-12
1.63292e-13
1.83031e-12
2.98394e-13
1.69067e-12
-2.20401e-13
1.58466e-12
-2.45484e-13
1.50945e-12
-1.03085e-13
1.91577e-12
-4.29006e-13
1.6104e-12
2.37697e-13
2.04941e-12
-5.48061e-13
2.09549e-12
2.0514e-13
3.2117e-12
-2.03267e-12
2.91654e-12
7.5165e-13
2.35715e-12
1.33194e-12
2.06817e-12
6.56294e-13
2.00413e-12
2.01646e-13
1.97215e-12
7.65565e-14
1.95814e-12
3.72752e-14
1.93742e-12
4.66662e-14
4.29173e-14
3.9451e-12
-2.31132e-13
7.61506e-12
-8.10162e-12
1.07297e-11
-8.76391e-12
1.25061e-11
-6.59604e-12
1.71562e-12
2.66847e-11
1.45992e-12
4.665e-12
1.77e-12
9.75283e-13
1.95923e-12
-1.12388e-12
2.1639e-12
-1.83692e-12
2.41652e-12
-1.52078e-12
2.4696e-12
-1.80439e-14
2.76566e-12
2.57295e-13
2.43681e-12
1.01872e-13
2.12837e-12
-3.99765e-13
3.1728e-12
-2.55882e-12
3.02945e-12
4.2672e-13
2.8803e-12
4.76175e-13
2.40854e-12
1.14664e-12
2.43516e-12
4.53256e-15
2.82716e-12
-1.44358e-12
3.3355e-12
-1.30385e-12
3.45125e-12
1.11662e-12
3.87064e-12
3.33976e-13
3.15761e-12
-1.5504e-12
2.3812e-12
1.50252e-12
2.19482e-12
1.17106e-12
2.4174e-12
6.84868e-14
2.42237e-12
1.58327e-13
2.16951e-12
5.51255e-13
2.02998e-12
-8.08729e-14
1.80969e-12
-2.51898e-14
1.68785e-12
1.8748e-14
1.70288e-12
-4.4403e-13
1.58445e-12
3.56127e-13
1.79162e-12
-7.55226e-13
1.51488e-12
4.81879e-13
3.30869e-12
-3.82648e-12
3.217e-12
8.43338e-13
2.73011e-12
1.81882e-12
2.47368e-12
9.12728e-13
2.44701e-12
2.28312e-13
2.44018e-12
8.3384e-14
2.44026e-12
3.7194e-14
2.40513e-12
8.18054e-14
5.27636e-14
4.35379e-12
-4.67018e-12
-9.88316e-13
-2.7595e-12
5.27411e-12
-1.50263e-11
5.46686e-12
-6.78879e-12
-4.30903e-12
3.64606e-11
3.8026e-12
-3.44663e-12
3.98391e-12
7.93974e-13
3.1666e-12
-3.0657e-13
2.74613e-12
-1.41645e-12
2.63673e-12
-1.41139e-12
2.3478e-12
2.70889e-13
1.89852e-12
7.06579e-13
1.99459e-12
5.79713e-15
1.53287e-12
6.19582e-14
3.19419e-12
-4.22014e-12
3.25685e-12
3.64058e-13
3.23094e-12
5.0209e-13
2.67322e-12
1.70436e-12
2.69001e-12
-1.22537e-14
2.70819e-12
-1.46176e-12
3.20434e-12
-1.80001e-12
2.86041e-12
1.46055e-12
2.67255e-12
5.21836e-13
9.55966e-13
1.66186e-13
8.06677e-13
1.65181e-12
2.07684e-12
-9.911e-14
2.61334e-12
-4.68009e-13
2.62381e-12
1.47859e-13
2.38576e-12
7.893e-13
2.40488e-12
-9.99908e-14
2.24457e-12
1.35126e-13
1.98896e-12
2.74354e-13
1.921e-12
-3.76066e-13
1.17345e-12
1.10367e-12
8.5272e-13
-4.34496e-13
7.80875e-13
5.53724e-13
2.912e-12
-5.9576e-12
3.13176e-12
6.23578e-13
2.85718e-12
2.0934e-12
2.68794e-12
1.08197e-12
2.70919e-12
2.0706e-13
2.70676e-12
8.58104e-14
2.72121e-12
2.27402e-14
2.68589e-12
1.17126e-13
6.06022e-14
-9.20626e-13
-3.58955e-12
-3.32014e-12
-3.59976e-13
-3.47006e-12
-1.48764e-11
-8.15322e-12
-2.10563e-12
8.8316e-13
2.74242e-11
2.54235e-12
-5.10583e-12
1.52786e-12
1.80847e-12
8.67257e-13
3.54033e-13
6.27907e-13
-1.1771e-12
5.89392e-13
-1.37287e-12
5.62561e-13
2.97719e-13
5.38569e-13
7.3057e-13
5.32245e-13
1.21225e-14
4.44351e-13
1.49852e-13
7.43954e-13
-4.51975e-12
7.67737e-13
3.40274e-13
6.92863e-13
5.76964e-13
6.41583e-13
1.75564e-12
6.17375e-13
1.1955e-14
5.5288e-13
-1.39726e-12
5.26088e-13
-1.77322e-12
3.97553e-13
1.58909e-12
9.75115e-14
8.21877e-13
2.64103e-14
2.37287e-13
5.41208e-13
1.13702e-12
6.37293e-13
-1.95195e-13
6.25789e-13
-4.56503e-13
5.86787e-13
1.8686e-13
5.63042e-13
8.13045e-13
5.88089e-13
-1.25038e-13
6.31678e-13
9.15365e-14
6.47689e-13
2.58343e-13
4.80852e-13
-2.09227e-13
2.44812e-13
1.33971e-12
1.42172e-13
-3.31856e-13
7.71838e-14
6.18712e-13
4.61622e-13
-6.34204e-12
6.60562e-13
4.24638e-13
6.15871e-13
2.13809e-12
6.04567e-13
1.09328e-12
6.13772e-13
1.97856e-13
6.14644e-13
8.49388e-14
6.14442e-13
2.29419e-14
6.10202e-13
1.21366e-13
6.26622e-14
-2.43689e-13
-3.18587e-12
-4.98103e-12
4.37736e-12
-4.87865e-12
-1.49788e-11
-6.87287e-12
-1.11419e-13
2.08338e-12
1.84679e-11
2.83847e-12
-5.86092e-12
1.6749e-12
2.97204e-12
9.02339e-13
1.12659e-12
6.27793e-13
-9.02556e-13
5.96437e-13
-1.34151e-12
6.0675e-13
2.87406e-13
7.12065e-13
6.25255e-13
5.8552e-13
1.38668e-13
3.81198e-13
3.54174e-13
6.70017e-13
-4.80857e-12
7.54187e-13
2.56104e-13
6.85783e-13
6.45368e-13
6.48348e-13
1.79307e-12
6.39711e-13
2.05923e-14
5.3231e-13
-1.28986e-12
4.58302e-13
-1.69921e-12
3.44968e-13
1.70242e-12
-3.79753e-14
1.20482e-12
-2.26148e-14
2.21927e-13
5.4853e-13
5.65871e-13
6.72391e-13
-3.19056e-13
6.21404e-13
-4.05515e-13
5.85141e-13
2.23123e-13
5.74832e-13
8.23354e-13
6.05993e-13
-1.56199e-13
6.91286e-13
6.24332e-15
7.5397e-13
1.95659e-13
5.28168e-13
1.65753e-14
2.36276e-13
1.6316e-12
1.41841e-13
-2.37421e-13
1.69755e-14
7.43577e-13
3.72675e-13
-6.69774e-12
6.09793e-13
1.8752e-13
6.02947e-13
2.14494e-12
6.06287e-13
1.08994e-12
6.15589e-13
1.88554e-13
6.1688e-13
8.36477e-14
6.16328e-13
2.34936e-14
6.12644e-13
1.2505e-13
6.4415e-14
-6.91811e-13
-2.33406e-12
-5.15726e-12
8.84281e-12
-5.21063e-12
-1.49254e-11
-5.05139e-12
-2.70659e-13
3.09053e-12
1.0326e-11
2.52505e-12
-5.29544e-12
1.6106e-12
3.88649e-12
8.9806e-13
1.83913e-12
6.3128e-13
-6.35775e-13
6.0991e-13
-1.32014e-12
6.75869e-13
2.21448e-13
9.09458e-13
3.91667e-13
6.61348e-13
3.86777e-13
3.24068e-13
6.91453e-13
5.68622e-13
-5.05312e-12
7.0104e-13
1.23686e-13
6.44867e-13
7.01541e-13
6.51874e-13
1.78607e-12
6.06086e-13
6.63811e-14
4.82211e-13
-1.16599e-12
3.75856e-13
-1.59285e-12
3.14985e-13
1.76329e-12
6.84521e-14
1.45135e-12
-2.48549e-14
3.15234e-13
4.29253e-13
1.11764e-13
5.58971e-13
-4.48774e-13
6.11573e-13
-4.58118e-13
5.87897e-13
2.46799e-13
5.83648e-13
8.27603e-13
6.21656e-13
-1.94208e-13
7.19205e-13
-9.13057e-14
8.72404e-13
4.24602e-14
5.91557e-13
2.97422e-13
2.36436e-13
1.98672e-12
8.4449e-14
-8.54342e-14
9.37295e-15
8.18653e-13
2.41264e-13
-6.92963e-12
5.12108e-13
-8.33241e-14
5.8473e-13
2.07232e-12
6.06643e-13
1.06803e-12
6.17754e-13
1.77442e-13
6.17747e-13
8.36548e-14
6.159e-13
2.53406e-14
6.13064e-13
1.27886e-13
6.56113e-14
-1.06537e-12
-1.10869e-12
-4.82008e-12
1.25975e-11
-3.6753e-12
-1.60702e-11
7.64759e-12
-1.15935e-11
2.71838e-12
1.52552e-11
1.507e-12
-4.08406e-12
1.38769e-12
4.0058e-12
8.7114e-13
2.35568e-12
6.59067e-13
-4.23702e-13
6.22241e-13
-1.28332e-12
7.18539e-13
1.2515e-13
1.13042e-12
-2.02183e-14
6.98049e-13
8.19152e-13
3.0663e-13
1.08287e-12
3.7448e-13
-5.12097e-12
6.37903e-13
-1.39737e-13
6.08956e-13
7.30488e-13
6.67211e-13
1.72781e-12
5.42548e-13
1.91045e-13
3.81686e-13
-1.00513e-12
3.44598e-13
-1.55576e-12
3.14574e-13
1.79332e-12
1.10942e-13
1.65499e-12
-2.9327e-13
7.19446e-13
2.19998e-13
-4.01504e-13
5.45416e-13
-7.74192e-13
5.91157e-13
-5.03859e-13
5.87949e-13
2.50007e-13
5.95598e-13
8.19955e-13
6.39538e-13
-2.38148e-13
7.66628e-13
-2.18396e-13
9.98917e-13
-1.89828e-13
6.08384e-13
6.87955e-13
3.31552e-13
2.26356e-12
2.56144e-13
-1.00255e-14
9.26212e-14
9.82175e-13
5.13489e-14
-6.88836e-12
4.45526e-13
-4.77501e-13
5.63572e-13
1.95427e-12
6.04874e-13
1.02672e-12
6.17574e-13
1.64742e-13
6.18039e-13
8.31898e-14
6.14178e-13
2.92021e-14
6.1178e-13
1.30284e-13
6.66335e-14
-9.83012e-13
3.43238e-14
-2.96149e-12
1.4576e-11
-2.23751e-13
-1.88079e-11
4.63915e-12
-1.64564e-11
1.46427e-12
1.84301e-11
1.37216e-12
-3.99195e-12
1.30795e-12
4.07001e-12
9.09893e-13
2.75373e-12
6.74047e-13
-1.87855e-13
6.35702e-13
-1.24497e-12
7.28314e-13
3.25375e-14
9.02994e-13
-1.94898e-13
7.00536e-13
1.02161e-12
3.36069e-13
1.44734e-12
4.06695e-13
-5.19159e-12
5.45675e-13
-2.78718e-13
5.75468e-13
7.00696e-13
6.25397e-13
1.67788e-12
5.24699e-13
2.91742e-13
3.07879e-13
-7.88308e-13
2.90187e-13
-1.53807e-12
3.10165e-13
1.77334e-12
1.2341e-13
1.84174e-12
-1.41562e-14
8.57012e-13
2.30525e-13
-6.46185e-13
5.29842e-13
-1.07351e-12
5.7424e-13
-5.48257e-13
5.83236e-13
2.4101e-13
6.1115e-13
7.9204e-13
6.63766e-13
-2.90763e-13
7.52457e-13
-3.07087e-13
8.53603e-13
-2.90974e-13
6.37715e-13
9.03842e-13
4.65433e-13
2.43584e-12
4.47723e-13
7.68419e-15
2.40351e-13
1.18955e-12
1.79912e-13
-6.82792e-12
3.8242e-13
-6.80009e-13
5.44587e-13
1.7921e-12
6.00964e-13
9.70345e-13
6.15121e-13
1.50586e-13
6.15486e-13
8.28242e-14
6.10999e-13
3.36896e-14
6.08237e-13
1.33045e-13
6.73907e-14
1.24172e-12
7.58276e-13
1.0491e-12
1.92625e-13
1.03571e-12
1.33906e-14
1.12856e-12
-9.28522e-14
-1.08579e-12
2.21435e-12
2.35019e-12
4.08088e-13
2.42744e-12
1.15373e-13
2.4555e-12
-1.46714e-14
2.52449e-12
-1.6184e-13
-1.06024e-12
2.49894e-12
2.67475e-12
-2.66665e-13
2.92334e-12
-1.33217e-13
2.96893e-12
-6.02559e-14
2.88951e-12
-8.242e-14
-4.41448e-13
2.27072e-12
2.40689e-12
-6.73551e-13
2.48692e-12
-2.13252e-13
2.47089e-12
-4.42259e-14
2.33302e-12
5.54538e-14
3.20037e-13
1.57153e-12
1.32645e-12
1.1132e-12
1.06897e-12
1.12442e-12
1.44446e-12
2.92733e-12
-6.78658e-13
1.39073e-11
3.59605e-12
-2.3874e-13
-4.66192e-12
-4.89913e-12
-1.1796e-11
8.9422e-12
4.58877e-12
5.00544e-12
-5.51884e-14
4.56712e-12
4.50834e-12
3.83011e-12
3.49074e-12
3.25506e-12
3.87193e-13
2.92483e-12
-9.14739e-13
2.86307e-12
9.43016e-14
2.75581e-12
-8.76444e-14
2.80458e-12
9.7284e-13
2.80687e-12
1.44505e-12
1.42731e-12
-3.81204e-12
1.62254e-12
-4.73941e-13
2.06141e-12
2.61818e-13
2.55203e-12
1.18727e-12
1.89073e-12
9.5304e-13
8.69633e-13
2.3279e-13
3.89244e-13
-1.05768e-12
1.45884e-12
7.03743e-13
1.54342e-12
1.75716e-12
2.2478e-12
1.52636e-13
2.07541e-12
-4.73799e-13
2.34217e-12
-1.34027e-12
2.40126e-12
-6.07352e-13
2.55686e-12
8.54104e-14
2.86416e-12
4.84745e-13
2.83695e-12
-2.63559e-13
2.9413e-12
-4.11432e-13
2.83536e-12
-1.85036e-13
2.64208e-12
1.09712e-12
3.22344e-12
1.85448e-12
3.33342e-12
-1.02294e-13
3.43958e-12
1.08339e-12
1.40056e-12
-4.7889e-12
1.44082e-12
-7.20263e-13
2.24236e-12
9.90564e-13
2.62691e-12
5.85787e-13
2.7034e-12
7.40991e-14
2.72432e-12
6.19088e-14
2.6787e-12
7.93032e-14
2.66841e-12
1.43342e-13
6.50113e-14
2.77494e-12
-9.54661e-13
8.10775e-12
-1.73676e-12
-3.51571e-12
6.96153e-12
-1.84723e-11
3.1605e-12
1.14504e-12
-1.50285e-11
1.89928e-12
-8.09422e-13
2.43545e-12
3.97216e-12
3.15492e-12
2.77127e-12
3.05043e-12
4.91678e-13
2.62187e-12
-4.86181e-13
2.40671e-12
3.0947e-13
2.2448e-12
7.42609e-14
2.52413e-12
6.93515e-13
3.04849e-12
9.2069e-13
1.64219e-12
-2.40574e-12
1.60417e-12
-4.3592e-13
1.77715e-12
8.88423e-14
2.06983e-12
8.94582e-13
1.72354e-12
1.29933e-12
1.17682e-12
7.79508e-13
1.02305e-12
-9.03911e-13
1.55193e-12
1.74865e-13
1.78338e-12
1.5257e-12
2.46551e-12
-5.29485e-13
2.59894e-12
-6.07232e-13
2.34896e-12
-1.09028e-12
2.2357e-12
-4.94097e-13
2.37205e-12
-5.09363e-14
2.61458e-12
2.42218e-13
2.50341e-12
-1.52394e-13
2.36028e-12
-2.68303e-13
2.20484e-12
-2.95944e-14
2.43242e-12
8.69541e-13
3.15282e-12
1.13407e-12
3.28839e-12
-2.37858e-13
3.7189e-12
6.5287e-13
1.94155e-12
-3.01155e-12
1.70101e-12
-4.79714e-13
2.10878e-12
5.82795e-13
2.36869e-12
3.25877e-13
2.39612e-12
4.66643e-14
2.39486e-12
6.31695e-14
2.38234e-12
9.18224e-14
2.39429e-12
1.31394e-13
5.05138e-14
2.12714e-12
-8.11085e-13
4.34961e-12
-3.95923e-12
9.62996e-12
1.68118e-12
8.38378e-13
1.19521e-11
-2.5658e-12
-1.16244e-11
-1.16856e-12
-2.20667e-12
1.10453e-12
1.69907e-12
2.26343e-12
1.61238e-12
2.29993e-12
4.55178e-13
2.04307e-12
-2.29324e-13
1.99451e-12
3.58036e-13
1.95374e-12
1.15026e-13
2.22185e-12
4.2541e-13
2.66402e-12
4.78514e-13
1.61835e-12
-1.36007e-12
1.48151e-12
-2.99076e-13
1.49542e-12
7.49343e-14
1.69192e-12
6.98073e-13
1.6979e-12
1.29336e-12
1.83196e-12
6.45449e-13
1.70636e-12
-7.78313e-13
1.70928e-12
1.71946e-13
1.45396e-12
1.78102e-12
1.77573e-12
-8.51256e-13
2.28261e-12
-1.11411e-12
2.11351e-12
-9.21179e-13
1.96799e-12
-3.48582e-13
2.01161e-12
-9.45538e-14
2.13355e-12
1.20274e-13
2.01172e-12
-3.05633e-14
1.90297e-12
-1.59551e-13
1.82582e-12
4.75546e-14
2.12603e-12
5.6933e-13
2.70267e-12
5.57431e-13
2.68853e-12
-2.23712e-13
3.00758e-12
3.33818e-13
1.69101e-12
-1.69498e-12
1.53207e-12
-3.20771e-13
1.75201e-12
3.62853e-13
1.89153e-12
1.86357e-13
1.89456e-12
4.36299e-14
1.90323e-12
5.45061e-14
1.93155e-12
6.35034e-14
1.98465e-12
7.82935e-14
4.23942e-14
-3.53258e-14
7.95773e-13
-1.45955e-12
-2.53501e-12
1.64645e-12
-1.42481e-12
8.96272e-12
4.63581e-12
9.81414e-14
-2.75977e-12
-1.06343e-12
-1.0451e-12
1.59349e-13
4.76297e-13
1.14468e-12
6.27043e-13
1.33257e-12
2.67294e-13
1.13579e-12
-3.25465e-14
1.39018e-12
1.03646e-13
1.42531e-12
7.98998e-14
1.71735e-12
1.33371e-13
2.01077e-12
1.85088e-13
1.18938e-12
-5.38673e-13
1.00715e-12
-1.16849e-13
1.02341e-12
5.8673e-14
1.33302e-12
3.88464e-13
1.74242e-12
8.83955e-13
2.09462e-12
2.93249e-13
1.97381e-12
-6.57498e-13
2.04784e-12
9.7914e-14
2.85804e-12
9.70821e-13
2.52124e-12
-5.1446e-13
2.12328e-12
-7.16155e-13
1.63087e-12
-4.28767e-13
1.41277e-12
-1.30481e-13
1.39981e-12
-8.15922e-14
1.45705e-12
6.30266e-14
1.40612e-12
2.03699e-14
1.29782e-12
-5.12486e-14
1.31357e-12
3.18042e-14
1.63018e-12
2.5272e-13
1.88998e-12
2.97629e-13
1.84494e-12
-1.7867e-13
2.06016e-12
1.18598e-13
1.08735e-12
-7.22176e-13
9.02227e-13
-1.35643e-13
1.10551e-12
1.59572e-13
1.21247e-12
7.9391e-14
1.22767e-12
2.84359e-14
1.255e-12
2.71769e-14
1.2954e-12
2.30976e-14
1.3438e-12
2.98991e-14
3.65042e-14
2.24023e-12
-2.94775e-13
-1.71959e-12
2.91622e-12
1.56449e-13
-8.88651e-13
-4.12354e-13
2.14689e-13
4.81983e-13
4.49437e-13
5.53083e-13
6.32983e-13
7.66354e-13
9.51442e-13
4.1277e-13
2.9592e-13
3.54593e-13
7.43057e-13
1.62701e-12
1.92026e-12
1.26276e-12
1.36068e-12
2.3315e-12
1.81704e-12
1.10088e-12
6.72115e-13
5.41633e-13
4.60041e-13
5.23067e-13
5.43437e-13
4.92189e-13
5.23993e-13
7.76713e-13
1.07434e-12
8.95671e-13
1.01427e-12
2.92094e-13
1.5645e-13
3.16022e-13
3.95413e-13
4.23849e-13
4.51026e-13
4.74123e-13
5.04022e-13
)
;

boundaryField
{
    AirInlet
    {
        type            calculated;
        value           nonuniform List<scalar> 5(-1.6e-13 -1.6e-13 -1.6e-13 -1.6e-13 -1.6e-13);
    }
    WaterInlet
    {
        type            calculated;
        value           nonuniform List<scalar> 10(-2e-12 -2e-12 -2e-12 -2e-12 -2e-12 -2e-12 -2e-12 -2e-12 -2e-12 -2e-12);
    }
    ChannelWall
    {
        type            calculated;
        value           uniform 0;
    }
    Outlet
    {
        type            calculated;
        value           nonuniform List<scalar> 
15
(
4.99663e-13
1.29228e-12
1.92304e-12
2.39528e-12
2.67806e-12
6.08142e-13
6.10892e-13
6.11868e-13
6.10758e-13
6.0748e-13
2.67078e-12
2.40878e-12
1.99277e-12
1.34969e-12
5.40527e-13
)
;
    }
    FrontAndBack
    {
        type            empty;
        value           nonuniform 0();
    }
}


// ************************************************************************* //
