/*--------------------------------*- C++ -*----------------------------------*\
| =========                 |                                                 |
| \\      /  F ield         | OpenFOAM: The Open Source CFD Toolbox           |
|  \\    /   O peration     | Version:  2.3.0                                 |
|   \\  /    A nd           | Web:      www.OpenFOAM.org                      |
|    \\/     M anipulation  |                                                 |
\*---------------------------------------------------------------------------*/
FoamFile
{
    version     2.0;
    format      ascii;
    class       volVectorField;
    location    "0.04";
    object      U;
}
// * * * * * * * * * * * * * * * * * * * * * * * * * * * * * * * * * * * * * //

dimensions      [0 1 -1 0 0 0 0];

internalField   nonuniform List<vector> 
725
(
(0.217133 0.0248984 -2.23622e-30)
(0.197243 0.00961294 3.97455e-31)
(0.158453 0.00253302 2.16011e-31)
(0.140357 0.000387941 0)
(0.118786 0.00221021 -1.14446e-32)
(0.379422 0.0522521 -1.06775e-29)
(0.406651 0.0375419 1.82866e-30)
(0.364695 0.0240276 8.23786e-31)
(0.32736 0.0195394 0)
(0.277504 0.0260281 5.29575e-32)
(0.416663 0.0378312 -4.74291e-30)
(0.466307 0.0463501 3.61892e-31)
(0.432265 0.042416 6.27082e-33)
(0.391737 0.0422742 0)
(0.360619 0.0653459 3.47988e-30)
(0.375408 0.0171105 6.539e-30)
(0.394053 0.0425096 6.73676e-34)
(0.354287 0.0451694 -8.8971e-31)
(0.325535 0.0392643 0)
(0.33587 0.026517 5.96008e-30)
(0.21 0.0108174 8.2558e-30)
(0.180924 0.0279755 -5.85908e-31)
(0.144623 0.0252669 -4.61233e-31)
(0.114237 0.0135572 1.11269e-30)
(0.0403914 -0.0289418 -8.44844e-31)
(0.0752098 0.000824452 0)
(0.142273 -0.0170936 0)
(0.15112 -0.0107341 0)
(0.367392 -0.0490459 0)
(0.311164 0.0923924 0)
(-0.0647891 0.00860382 0)
(-0.0746193 -0.00179311 0)
(-0.0535926 -0.0038718 0)
(-0.00883273 -0.00619386 0)
(0.0370535 -0.00501476 0)
(0.0567994 -0.00104319 0)
(0.0310953 0.00398163 0)
(0.0248612 0.000160538 0)
(0.0488464 -0.00360519 0)
(0.0838916 -0.00633729 0)
(0.0943475 0.00197964 0)
(0.0892953 -0.00242871 0)
(0.0843388 0.0034549 0)
(0.0603314 0.00246672 0)
(0.0718886 -0.0048782 0)
(0.113373 -0.00346651 0)
(0.0959411 0.00534309 0)
(0.0379767 0.00772279 0)
(0.0832396 -0.00904395 0)
(0.115969 0.00534648 0)
(0.0745562 0.00202324 0)
(0.062905 -0.000508265 0)
(0.0627929 -0.000120825 0)
(0.0596103 -0.00105563 0)
(0.0811209 -0.00963038 0)
(0.116482 -0.00123123 0)
(0.11921 0.0041422 0)
(0.107103 0.00448805 0)
(0.126852 -0.0144479 0)
(0.143631 0.00545208 0)
(0.108419 0.00853327 0)
(0.113007 -0.00691672 0)
(0.126071 0.00328338 0)
(0.0955472 0.00438591 0)
(0.0718364 0.00194492 0)
(0.0633597 0.000579738 0)
(0.05969 0.000719232 0)
(0.0596399 -0.00121648 0)
(0.0588687 0.00104452 0)
(0.0556148 0.000261501 0)
(0.20367 0.0123936 0)
(0.311512 -0.0549999 0)
(0.399241 -0.046957 0)
(0.709367 -0.154746 0)
(0.579994 0.270249 0)
(0.0926301 0.0977739 0)
(-0.0455236 0.0198931 0)
(-0.0262815 -0.0234635 0)
(0.0428679 -0.0374547 0)
(0.117595 -0.0267379 0)
(0.140572 0.00245471 0)
(0.0989215 0.0159041 0)
(0.102804 -0.00995752 0)
(0.137519 -0.0208712 0)
(0.189927 -0.0259384 0)
(0.207677 0.00586869 0)
(0.189243 0.000871322 0)
(0.172894 0.012998 0)
(0.149895 0.00557395 0)
(0.170943 -0.0194313 0)
(0.236133 -0.0170902 0)
(0.201842 0.0286324 0)
(0.119456 0.0181445 0)
(0.203518 -0.0538505 0)
(0.261803 0.0152425 0)
(0.199737 0.0204398 0)
(0.167315 0.0048373 0)
(0.162498 0.00188029 0)
(0.150321 -0.000691229 0)
(0.142171 -0.0227637 0)
(0.157259 -0.0139964 0)
(0.180573 -0.0037429 0)
(0.204133 0.00516738 0)
(0.188172 -0.0155124 0)
(0.1831 0.00566464 0)
(0.196681 0.0184849 0)
(0.246904 -0.0255333 0)
(0.27108 0.0161076 0)
(0.213727 0.0244403 0)
(0.168478 0.0116831 0)
(0.154475 0.00437769 0)
(0.150188 0.00189211 0)
(0.147179 -0.000335496 0)
(0.144588 0.00164847 0)
(0.14365 0.0011416 0)
(0.33089 0.0163961 0)
(0.509744 -0.138702 0)
(0.843621 -0.156518 0)
(1.27987 -0.218915 0)
(0.76881 0.536511 0)
(0.0478629 0.184756 0)
(0.048187 0.0589774 0)
(0.0718156 -0.0397816 0)
(0.123998 -0.0715702 0)
(0.193883 -0.0537695 0)
(0.222333 0.00622094 0)
(0.198309 0.0298397 0)
(0.198473 -0.0190691 0)
(0.195414 -0.0358119 0)
(0.258875 -0.0546568 0)
(0.293899 0.0113914 0)
(0.2675 0.0114461 0)
(0.241172 0.0251204 0)
(0.215882 0.00257552 0)
(0.249158 -0.0393402 0)
(0.323892 -0.0315005 0)
(0.286604 0.0540589 0)
(0.231449 0.0359798 0)
(0.304613 -0.108469 0)
(0.324266 0.0204472 0)
(0.255135 0.0398654 0)
(0.232633 0.0133365 0)
(0.234322 0.00705663 0)
(0.216645 0.00907163 0)
(0.193617 -0.0156829 0)
(0.178509 -0.0176104 0)
(0.168137 -0.00947335 0)
(0.195148 -0.0105226 0)
(0.191911 0.00797708 0)
(0.200218 -0.0164135 0)
(0.218078 0.00916093 0)
(0.297429 -0.0652622 0)
(0.364947 0.0326777 0)
(0.294294 0.0519544 0)
(0.236749 0.0254139 0)
(0.223632 0.00875012 0)
(0.221439 0.00312925 0)
(0.218697 0.00196021 0)
(0.216033 0.00158008 0)
(0.213723 0.00171543 0)
(0.409141 -0.00273704 0)
(0.599559 -0.233685 0)
(1.12535 -0.340718 0)
(1.44518 -0.362967 0)
(0.722215 0.976814 0)
(-0.0426939 0.286981 0)
(0.179787 0.0647424 0)
(0.220201 -0.058306 0)
(0.224517 -0.0928467 0)
(0.257956 -0.0746881 0)
(0.276277 -0.00521598 0)
(0.288133 0.0136609 0)
(0.297754 0.00247735 0)
(0.232382 -0.0273512 0)
(0.292061 -0.0958973 0)
(0.362323 0.0194175 0)
(0.331301 0.0214366 0)
(0.29505 0.0444021 0)
(0.259884 0.00034395 0)
(0.27933 -0.0650601 0)
(0.359523 -0.0491692 0)
(0.36589 0.0637191 0)
(0.41851 0.0317266 0)
(0.403141 -0.10734 0)
(0.308148 0.0437677 0)
(0.223923 0.072852 0)
(0.255259 0.0195141 0)
(0.277469 0.00973686 0)
(0.257215 0.0214717 0)
(0.232247 -0.00682412 0)
(0.212527 -0.00831688 0)
(0.190878 -0.00521662 0)
(0.191416 -0.022974 0)
(0.178808 0.01244 0)
(0.193852 -0.037649 0)
(0.152266 0.013413 0)
(0.248561 -0.137139 0)
(0.40702 0.0437129 0)
(0.337064 0.0796146 0)
(0.277387 0.04019 0)
(0.270698 0.0113273 0)
(0.272682 0.00426823 0)
(0.271722 0.00204292 0)
(0.269094 0.00317225 0)
(0.266156 0.00235544 0)
(0.240391 -0.0180225 0)
(0.28361 -0.373588 0)
(0.654655 -0.866943 0)
(0.229566 -0.286321 0)
(-0.260081 1.61572 0)
(0.00862916 -0.0371117 0)
(0.487073 0.0242759 0)
(0.416629 -0.063881 0)
(0.306913 -0.0908915 0)
(0.298693 -0.0752347 0)
(0.277318 0.0052817 0)
(0.225807 0.0236958 0)
(0.238974 0.00271789 0)
(0.14739 -0.011828 0)
(0.24574 -0.170734 0)
(0.392443 0.0224002 0)
(0.365881 0.0222567 0)
(0.32841 0.0747267 0)
(0.295024 -0.000682401 0)
(0.288598 -0.0798079 0)
(0.325 -0.0882725 0)
(0.346003 0.0588244 0)
(0.347173 0.00391403 0)
(0.177123 -0.0207347 0)
(0.0592558 0.10823 0)
(0.147888 0.0203776 0)
(0.273891 -0.0159426 0)
(0.301329 0.00465216 0)
(0.276357 0.0351263 0)
(0.2641 -0.00235498 0)
(0.257543 0.00760858 0)
(0.235646 0.00923618 0)
(0.235142 -0.0305273 0)
(0.160328 0.0285777 0)
(0.126935 -0.0325509 0)
(0.033756 0.0264499 0)
(0.165656 -0.250488 0)
(0.403233 0.040113 0)
(0.340432 0.0999231 0)
(0.296209 0.0518462 0)
(0.298634 0.0112869 0)
(0.302401 0.00428353 0)
(0.302076 0.00136129 0)
(0.300428 0.00516193 0)
(0.29756 0.00284625 0)
(0.538044 -0.224898 0)
(-1.35138 -0.112008 0)
(-1.51192 -0.657344 0)
(-4.60662 -0.189375 0)
(-0.691563 1.66607 0)
(1.283 -0.215604 0)
(1.07402 0.060947 0)
(0.560315 -0.000458447 0)
(0.316994 -0.0652275 0)
(0.307847 -0.0695531 0)
(0.277969 0.0145675 0)
(0.263017 0.0370694 0)
(0.326901 -0.000639539 0)
(0.181416 0.00493399 0)
(0.267434 -0.21841 0)
(0.440197 0.0177878 0)
(0.356952 0.0269321 0)
(0.327077 0.0867833 0)
(0.323923 -9.88613e-05 0)
(0.292098 -0.0718762 0)
(0.258563 -0.0897669 0)
(0.25159 0.0757723 0)
(0.165271 0.0331293 0)
(-0.0766103 0.0114392 0)
(0.12247 0.0719807 0)
(0.348938 -0.00689997 0)
(0.321729 -0.023259 0)
(0.305107 0.00830114 0)
(0.28053 0.0401585 0)
(0.285993 -0.00548008 0)
(0.297782 0.00600158 0)
(0.329155 0.0139982 0)
(0.330982 -0.0152327 0)
(0.142153 0.0602255 0)
(0.115268 -0.0193615 0)
(0.0126863 0.0291523 0)
(0.0788213 -0.307888 0)
(0.359429 0.0265755 0)
(0.317457 0.106322 0)
(0.298339 0.0545567 0)
(0.305483 0.010139 0)
(0.307881 0.00426008 0)
(0.307411 0.00114049 0)
(0.306441 0.00596627 0)
(0.304057 0.00308771 0)
(0.885748 -0.193381 0)
(-1.53189 0.0782954 0)
(-2.86725 -0.751702 0)
(-4.52813 -0.0290295 0)
(0.0891317 1.17506 0)
(1.61129 -0.264253 0)
(1.16297 0.114255 0)
(0.590373 0.0364512 0)
(0.317102 -0.0522852 0)
(0.310617 -0.0678207 0)
(0.282336 0.0152911 0)
(0.322625 0.0353919 0)
(0.400561 0.0025859 0)
(0.174884 0.0118101 0)
(0.220756 -0.233917 0)
(0.425665 0.0152021 0)
(0.34774 0.0304862 0)
(0.326127 0.0891534 0)
(0.337279 0.000569189 0)
(0.293217 -0.067495 0)
(0.23498 -0.0870326 0)
(0.215132 0.0826075 0)
(0.12321 0.0503679 0)
(-0.137991 0.0113676 0)
(0.127562 0.0436143 0)
(0.364601 -0.0126175 0)
(0.324164 -0.0215899 0)
(0.303548 0.0103267 0)
(0.282183 0.0410614 0)
(0.293937 -0.00695319 0)
(0.311634 0.00284354 0)
(0.375686 0.0122105 0)
(0.382009 -0.0055954 0)
(0.140867 0.0740413 0)
(0.114288 -0.0142926 0)
(-0.00370838 0.0335009 0)
(0.033453 -0.32764 0)
(0.315536 0.0160873 0)
(0.303676 0.107482 0)
(0.298633 0.0547773 0)
(0.307058 0.00967326 0)
(0.308827 0.00421407 0)
(0.30835 0.00114195 0)
(0.307452 0.00617325 0)
(0.305431 0.00317952 0)
(0.830119 -0.162902 0)
(-1.92162 0.357156 0)
(-3.30088 -0.802663 0)
(-3.71379 -0.0504232 0)
(1.12013 0.682621 0)
(1.5756 -0.276951 0)
(1.04464 0.172032 0)
(0.583294 0.0749111 0)
(0.316397 -0.0384899 0)
(0.315168 -0.0664825 0)
(0.290294 0.0132468 0)
(0.400578 0.0261806 0)
(0.488176 0.0125853 0)
(0.174522 0.0252388 0)
(0.164486 -0.247665 0)
(0.384741 0.00967287 0)
(0.326221 0.0340629 0)
(0.318957 0.0898422 0)
(0.337146 0.00183497 0)
(0.26908 -0.0618097 0)
(0.198388 -0.0823327 0)
(0.181585 0.0874669 0)
(0.161295 0.0665143 0)
(-0.108757 0.0124401 0)
(0.0853625 0.0163256 0)
(0.30539 -0.0184867 0)
(0.298558 -0.021202 0)
(0.301265 0.0119248 0)
(0.284977 0.041454 0)
(0.300092 -0.00872023 0)
(0.317287 -0.00188586 0)
(0.418541 0.00644655 0)
(0.435457 0.00765879 0)
(0.144602 0.0905183 0)
(0.106241 -0.00784597 0)
(-0.00602374 0.0386382 0)
(0.00569475 -0.34295 0)
(0.23411 0.00283619 0)
(0.284279 0.106166 0)
(0.297823 0.0541865 0)
(0.308148 0.00916968 0)
(0.309552 0.00418622 0)
(0.308467 0.0011993 0)
(0.307295 0.00632959 0)
(0.305875 0.0032549 0)
(0.584727 -0.057833 0)
(-1.97087 0.583094 0)
(-2.99785 -0.728961 0)
(3.0701 -0.155489 0)
(1.73508 0.563991 0)
(1.02031 -0.254374 0)
(0.762169 0.203346 0)
(0.539048 0.105671 0)
(0.320991 -0.026278 0)
(0.32371 -0.0651705 0)
(0.301577 0.00863766 0)
(0.469809 0.00833447 0)
(0.55694 0.0299598 0)
(0.181636 0.0444086 0)
(0.114943 -0.256701 0)
(0.305545 -0.000239584 0)
(0.302836 0.0363202 0)
(0.316194 0.0883045 0)
(0.330682 0.00601331 0)
(0.227312 -0.0545727 0)
(0.159093 -0.0788562 0)
(0.165109 0.0896885 0)
(0.187547 0.0784846 0)
(-0.144961 0.0252726 0)
(-0.0451768 -0.00930143 0)
(0.237962 -0.0305643 0)
(0.291204 -0.0236974 0)
(0.297475 0.0125958 0)
(0.288698 0.0413902 0)
(0.309691 -0.0108646 0)
(0.333386 -0.00784918 0)
(0.460127 -0.00374659 0)
(0.471162 0.0247822 0)
(0.170534 0.107111 0)
(0.178305 -0.00213397 0)
(0.0568579 0.0450367 0)
(-0.00274262 -0.348975 0)
(0.118442 -0.0136926 0)
(0.267295 0.101311 0)
(0.296214 0.0526116 0)
(0.308088 0.00858081 0)
(0.309609 0.00418051 0)
(0.308108 0.00133798 0)
(0.306358 0.00645583 0)
(0.305354 0.00331047 0)
(0.500488 -0.00801001 0)
(-1.62725 0.707016 0)
(-1.11935 -0.919181 0)
(1.70988 -0.802749 0)
(1.27707 0.780243 0)
(0.600234 -0.196243 0)
(0.729489 0.204197 0)
(0.542408 0.128781 0)
(0.344863 -0.0148661 0)
(0.330957 -0.0634004 0)
(0.306669 0.00364236 0)
(0.417474 -0.00740361 0)
(0.489901 0.0465394 0)
(0.199274 0.0633922 0)
(0.143438 -0.260176 0)
(0.263596 -0.0110188 0)
(0.276529 0.0361492 0)
(0.301858 0.0853625 0)
(0.319073 0.011959 0)
(0.203717 -0.045132 0)
(0.118232 -0.0770741 0)
(0.147836 0.0894937 0)
(0.18555 0.0881435 0)
(-0.0578235 0.0398554 0)
(0.0278692 -0.0281583 0)
(0.233833 -0.0469328 0)
(0.284068 -0.0264953 0)
(0.290949 0.0124814 0)
(0.293272 0.0404789 0)
(0.320214 -0.013191 0)
(0.336975 -0.0135442 0)
(0.419102 -0.0126477 0)
(0.432811 0.0403655 0)
(0.2129 0.118618 0)
(0.261781 0.000660114 0)
(0.145808 0.0536702 0)
(0.101894 -0.345051 0)
(0.107644 -0.0300753 0)
(0.252596 0.0940005 0)
(0.293342 0.0501324 0)
(0.30686 0.00790328 0)
(0.308402 0.00414332 0)
(0.306735 0.00156721 0)
(0.30451 0.00657961 0)
(0.303728 0.00335445 0)
(0.210305 -0.0109488 0)
(0.181327 -0.028335 -1.20578e-32)
(0.150671 -0.0288404 5.50798e-31)
(0.134376 -0.0282987 4.16856e-31)
(0.131211 -0.0648074 0)
(0.375772 -0.0173374 0)
(0.393351 -0.0431897 0)
(0.35706 -0.0504405 0)
(0.310521 -0.0517409 6.77209e-31)
(0.303511 -0.107214 0)
(0.417006 -0.0380241 0)
(0.464975 -0.0468478 0)
(0.433756 -0.0454851 0)
(0.372118 -0.0446855 3.76694e-31)
(0.33746 -0.076697 0)
(0.37971 -0.052348 0)
(0.405182 -0.0377331 0)
(0.365279 -0.0246791 0)
(0.305232 -0.0162702 3.0931e-31)
(0.264178 -0.00786868 0)
(0.217302 -0.0249013 0)
(0.196434 -0.00965995 0)
(0.159569 -0.00204981 0)
(0.135355 0.00202347 3.87418e-31)
(0.14123 0.0145987 0)
(0.406464 -0.0145312 0)
(0.25716 0.293789 0)
(1.59153 -0.61995 0)
(-1.29428 -0.824494 0)
(0.69697 0.88889 0)
(0.690027 -0.0419315 0)
(0.616762 0.235497 0)
(0.436707 0.19041 0)
(0.380296 0.0157381 0)
(0.344571 -0.0559589 0)
(0.307424 -0.00362773 0)
(0.309933 -0.0179207 0)
(0.335138 0.0657051 0)
(0.325355 0.098302 0)
(0.225787 -0.234928 0)
(0.123166 -0.019769 0)
(0.208442 0.0263353 0)
(0.260779 0.073631 0)
(0.279875 0.029678 0)
(0.15441 -0.0141359 0)
(0.0225673 -0.0673856 0)
(0.0873135 0.0742566 0)
(0.206459 0.104834 0)
(0.174183 0.0427434 0)
(0.242282 -0.0379309 0)
(0.271157 -0.075161 0)
(0.257887 -0.0324722 0)
(0.270352 0.010114 0)
(0.30064 0.0347517 0)
(0.323958 -0.0170218 0)
(0.319042 -0.0234649 0)
(0.319531 -0.0197652 0)
(0.32329 0.0638101 0)
(0.293758 0.128111 0)
(0.384704 0.00547519 0)
(0.400261 0.0729761 0)
(0.283767 -0.294104 0)
(0.0706332 -0.0471295 0)
(0.215078 0.0702653 0)
(0.282686 0.0400986 0)
(0.300034 0.00561093 0)
(0.301755 0.00370642 0)
(0.300152 0.00260995 0)
(0.296947 0.00695833 0)
(0.29672 0.00343298 0)
(0.228293 -0.0444115 0)
(0.481042 0.0373738 0)
(1.09034 0.229424 0)
(-2.33497 -0.283567 0)
(-0.241882 -0.332656 0)
(0.195253 -0.0249089 0)
(0.293714 0.214539 0)
(0.308953 0.165918 0)
(0.356839 0.022197 0)
(0.31336 -0.0345557 0)
(0.271686 0.011128 0)
(0.255851 0.00479353 0)
(0.258463 0.0437399 0)
(0.340179 0.0610836 0)
(0.265491 -0.151967 0)
(0.141846 -0.0304903 0)
(0.190407 0.00434665 0)
(0.214182 0.0498019 0)
(0.229261 0.0582761 0)
(0.158526 0.0323955 0)
(0.100695 -0.0463466 0)
(0.139512 0.0107072 0)
(0.194015 0.0788379 0)
(0.217244 -0.018576 0)
(0.296975 -0.020141 0)
(0.289538 -0.0582344 0)
(0.24548 -0.0279226 0)
(0.248258 -0.000809387 0)
(0.280246 0.0161561 0)
(0.291625 -0.0113242 0)
(0.271611 -0.016679 0)
(0.247132 -0.00303814 0)
(0.250553 0.0530462 0)
(0.308461 0.0731899 0)
(0.3564 -0.0142012 0)
(0.428009 0.04506 0)
(0.327387 -0.188536 0)
(0.146738 -0.034105 0)
(0.207897 0.0346505 0)
(0.257868 0.0203544 0)
(0.267401 0.00217888 0)
(0.265684 0.00306959 0)
(0.264977 0.0046648 0)
(0.26549 0.00732288 0)
(0.267571 0.00297917 0)
(0.203479 -0.0629897 0)
(0.218907 -0.177176 0)
(0.880695 0.22616 0)
(0.613605 0.518123 0)
(-0.15949 -0.811106 0)
(-0.381445 -0.0667128 0)
(0.100596 0.149214 0)
(0.18966 0.110422 0)
(0.268774 0.0243659 0)
(0.23572 -0.016142 0)
(0.219445 0.0197376 0)
(0.219389 0.00529741 0)
(0.224961 0.0275881 0)
(0.293067 0.032931 0)
(0.244234 -0.0934098 0)
(0.152428 -0.0187585 0)
(0.164832 0.00371019 0)
(0.173836 0.0400454 0)
(0.191869 0.0690965 0)
(0.196421 0.0423258 0)
(0.194695 -0.0410288 0)
(0.195846 0.00624077 0)
(0.167743 0.0836356 0)
(0.170797 -0.0422111 0)
(0.235962 -0.0475498 0)
(0.254005 -0.0520191 0)
(0.222371 -0.0215412 0)
(0.215458 -0.00479065 0)
(0.232289 0.00766461 0)
(0.234642 -0.0043782 0)
(0.21801 -0.0100379 0)
(0.199427 0.000800919 0)
(0.214505 0.0355201 0)
(0.27326 0.0375447 0)
(0.294902 -0.0121034 0)
(0.343691 0.023626 0)
(0.267482 -0.116937 0)
(0.147563 -0.0195778 0)
(0.179144 0.0217924 0)
(0.206906 0.0119382 0)
(0.21105 0.00228269 0)
(0.210172 0.0032001 0)
(0.212444 0.00421871 0)
(0.217917 0.00545474 0)
(0.221408 0.00225466 0)
(0.122185 0.00450575 0)
(-0.165442 -0.196158 0)
(-0.0746401 -0.0165081 0)
(0.672488 0.474088 0)
(0.564843 -0.24343 0)
(-0.283636 -0.116231 0)
(-0.0105067 0.0407915 0)
(0.0641281 0.050126 0)
(0.155296 0.0185056 0)
(0.129574 -0.00441839 0)
(0.136906 0.0122091 0)
(0.15833 0.00601959 0)
(0.170725 0.0134833 0)
(0.223169 0.0148371 0)
(0.182202 -0.0470187 0)
(0.110079 -0.0100809 0)
(0.109598 0.00430762 0)
(0.122941 0.0311227 0)
(0.168008 0.062904 0)
(0.224378 0.0242703 0)
(0.229999 -0.0409368 0)
(0.216995 0.00720326 0)
(0.269039 0.0788591 0)
(0.3164 -0.0339793 0)
(0.26436 -0.0552092 0)
(0.206055 -0.0371617 0)
(0.16409 -0.0122464 0)
(0.151937 -0.00530932 0)
(0.158729 0.00427095 0)
(0.161319 0.000789072 0)
(0.150571 -0.00478528 0)
(0.138043 0.00297479 0)
(0.162586 0.0207942 0)
(0.201053 0.0203896 0)
(0.202036 -0.0113267 0)
(0.23611 0.00922467 0)
(0.179189 -0.060972 0)
(0.0894158 -0.0107203 0)
(0.110078 0.0131856 0)
(0.130881 0.00670844 0)
(0.135684 0.0021357 0)
(0.137306 0.00230037 0)
(0.141214 0.00219288 0)
(0.14701 0.0026785 0)
(0.149979 0.00222963 0)
(0.234807 0.0497244 0)
(0.175414 -0.0571481 0)
(-0.271459 -0.0950299 0)
(0.0747225 0.116704 0)
(0.28228 -0.110866 0)
(-0.161923 -0.00343325 0)
(-0.0544667 0.00491859 0)
(-0.0184243 0.0106537 0)
(0.0506102 0.00577156 0)
(0.0491882 4.59971e-06 0)
(0.0545515 0.000313546 0)
(0.0672077 0.00104609 0)
(0.0763623 0.00158959 0)
(0.106278 0.00396698 0)
(0.0769359 -0.0116817 0)
(0.030298 -0.00100536 0)
(0.0327533 0.00162031 0)
(0.0502557 0.00804673 0)
(0.129447 0.0211253 0)
(0.215923 0.00507119 0)
(0.178655 -0.0168173 0)
(0.123921 0.00230705 0)
(0.214508 0.0239562 0)
(0.24972 -0.0141354 0)
(0.163734 -0.0148728 0)
(0.0931185 -0.00725598 0)
(0.0642394 -0.00134446 0)
(0.0533886 -0.00184018 0)
(0.0538848 0.00159683 0)
(0.0601644 0.000848701 0)
(0.0574967 -0.000917814 0)
(0.0517847 0.00051004 0)
(0.0718127 0.00506675 0)
(0.108012 0.00718662 0)
(0.106808 -0.00556589 0)
(0.118888 0.00302165 0)
(0.0726426 -0.0159233 0)
(0.0070787 -0.00140974 0)
(0.0259803 0.00349345 0)
(0.0408012 0.00140731 0)
(0.0456156 0.000630035 0)
(0.0483734 0.00055769 0)
(0.0512516 0.000285718 0)
(0.0545731 0.000449119 0)
(0.0598227 0.00095933 0)
)
;

boundaryField
{
    AirInlet
    {
        type            fixedValue;
        value           uniform (0.08 0 0);
    }
    WaterInlet
    {
        type            fixedValue;
        value           uniform (0.4 0 0);
    }
    ChannelWall
    {
        type            fixedValue;
        value           uniform (0 0 0);
    }
    Outlet
    {
        type            pressureInletOutletVelocity;
        value           nonuniform List<vector> 
15
(
(0.0556148 0.000261501 0)
(0.14365 0.0011416 0)
(0.213723 0.00171543 0)
(0.266156 0.00235544 0)
(0.29756 0.00284625 0)
(0.304057 0.00308771 0)
(0.305431 0.00317952 0)
(0.305875 0.0032549 0)
(0.305354 0.00331047 0)
(0.303728 0.00335445 0)
(0.29672 0.00343298 0)
(0.267571 0.00297917 0)
(0.221408 0.00225466 0)
(0.149979 0.00222963 0)
(0.0598227 0.00095933 0)
)
;
    }
    FrontAndBack
    {
        type            empty;
    }
}


// ************************************************************************* //
