/*--------------------------------*- C++ -*----------------------------------*\
| =========                 |                                                 |
| \\      /  F ield         | OpenFOAM: The Open Source CFD Toolbox           |
|  \\    /   O peration     | Version:  2.3.0                                 |
|   \\  /    A nd           | Web:      www.OpenFOAM.org                      |
|    \\/     M anipulation  |                                                 |
\*---------------------------------------------------------------------------*/
FoamFile
{
    version     2.0;
    format      ascii;
    class       volVectorField;
    location    "0.04";
    object      U;
}
// * * * * * * * * * * * * * * * * * * * * * * * * * * * * * * * * * * * * * //

dimensions      [0 1 -1 0 0 0 0];

internalField   nonuniform List<vector> 
725
(
(0.0472862 0.00685053 -3.72204e-31)
(0.050299 0.00194804 6.83238e-32)
(0.0392825 -0.000763367 1.0248e-31)
(0.0495713 -0.00538603 0)
(-0.00840343 -0.00727214 -2.25198e-32)
(0.0908285 0.0141509 -1.67104e-30)
(0.103675 0.00830993 1.75411e-31)
(0.0845541 0.00427631 -1.65575e-32)
(0.0787617 0.0194279 0)
(-0.112923 -0.0302511 -1.6461e-31)
(0.103503 0.0101299 -3.82045e-31)
(0.120505 0.0126419 -8.76834e-32)
(0.106919 0.011688 -5.47826e-31)
(0.0867673 0.0515519 0)
(0.072391 -0.0205619 -7.24613e-31)
(0.0916064 0.00371989 2.20876e-30)
(0.102395 0.0130229 -2.3771e-31)
(0.0937352 0.0128955 -1.48813e-31)
(0.0662894 0.0437818 0)
(0.199223 -0.0122894 -4.40264e-30)
(0.0473719 0.00202429 2.30567e-30)
(0.0480896 0.00788738 -3.61802e-31)
(0.0441021 0.00855662 -5.17356e-32)
(0.0167233 0.0103848 -1.22522e-30)
(0.199957 0.0103004 -2.13308e-30)
(0.177014 -0.0286208 0)
(0.256455 0.0306266 0)
(0.0627004 0.0159094 0)
(0.0335172 0.000467948 0)
(0.0326256 -0.00262175 0)
(0.0647036 -0.0159742 0)
(0.118691 0.0307668 0)
(-0.129343 -0.00518243 0)
(0.0214417 -0.120867 0)
(0.973113 -0.0100426 0)
(0.198233 0.120973 0)
(0.0244399 0.0248452 0)
(-0.0133993 0.005337 0)
(0.0112685 -0.000351797 0)
(0.0198594 0.000189673 0)
(0.0207084 0.000586482 0)
(0.0179003 0.000496821 0)
(0.0153297 0.000272932 0)
(0.0140116 0.000111607 0)
(0.0144132 -0.000149544 0)
(0.0154238 -6.06701e-05 0)
(0.0156337 4.30698e-05 0)
(0.0152189 0.000114282 0)
(0.0145072 0.000164348 0)
(0.0135061 0.000267324 0)
(0.0116131 0.000543837 0)
(0.0080824 0.000951824 0)
(0.00315693 0.00174714 0)
(-0.00646368 0.00242314 0)
(-0.00912683 0.00416808 0)
(-0.0335123 0.00775845 0)
(-0.0827235 0.0329499 0)
(-0.288055 0.100265 0)
(-0.725812 0.038414 0)
(-0.293422 -0.0341104 0)
(-0.0243128 -0.00898196 0)
(0.138713 0.00524362 0)
(0.0734328 0.0155768 0)
(0.0533715 0.0052863 0)
(0.00649689 0.00308015 0)
(0.0416196 0.000589759 0)
(-0.0272194 0.00874512 0)
(0.0353539 0.0175559 0)
(-0.26463 0.118583 0)
(-0.402394 -0.0431805 0)
(0.164496 -0.171177 0)
(0.357627 0.086875 0)
(0.0902763 0.0698182 0)
(0.0734423 0.00633232 0)
(0.0797076 -0.00630875 0)
(0.12318 -0.0462552 0)
(0.18232 0.010423 0)
(0.0367131 0.183125 0)
(0.0284376 -0.444715 0)
(0.723651 -0.0714045 0)
(0.105187 0.344596 0)
(-0.0680877 0.0714193 0)
(-0.0479003 -0.000130941 0)
(0.0127474 -0.0143846 0)
(0.0401395 -0.0053173 0)
(0.0469663 0.000621233 0)
(0.0438579 0.00207713 0)
(0.0395615 0.00134119 0)
(0.0371372 0.000432486 0)
(0.0377631 -0.000891081 0)
(0.0396312 -0.000534872 0)
(0.0402387 6.22181e-05 0)
(0.0399131 0.000415931 0)
(0.0393236 0.000591145 0)
(0.0386591 0.000926224 0)
(0.0371968 0.0018587 0)
(0.0344116 0.00288328 0)
(0.0313782 0.00456186 0)
(0.026373 0.0037967 0)
(0.0369408 0.00528454 0)
(0.0213867 0.0257176 0)
(-0.0679994 0.12525 0)
(-0.389843 0.27864 0)
(-0.612678 -0.18775 0)
(-0.329352 -0.195448 0)
(-0.0157478 -0.153293 0)
(0.100861 -0.0382425 0)
(0.0932777 0.0254024 0)
(0.0896208 0.0213681 0)
(0.0226391 0.011629 0)
(0.08465 0.00333895 0)
(-0.0219428 0.0124314 0)
(0.194754 0.0312254 0)
(-0.0622504 0.184038 0)
(0.41108 -0.11167 0)
(0.15646 -0.297029 0)
(0.271175 0.134279 0)
(0.0910255 0.103236 0)
(0.0938213 0.0114583 0)
(0.0955637 -0.0118391 0)
(0.108936 -0.0699831 0)
(0.117701 0.00403329 0)
(-0.187198 0.316715 0)
(-0.0167571 -0.817633 0)
(0.552701 0.0694968 0)
(-0.0752881 0.502459 0)
(-0.14978 0.0750376 0)
(-0.0565802 -0.029723 0)
(0.0238263 -0.0394107 0)
(0.0584217 -0.0148138 0)
(0.0666112 -0.000614992 0)
(0.0651925 0.00397693 0)
(0.0611112 0.00295807 0)
(0.0575115 0.00122385 0)
(0.0570149 -0.00168831 0)
(0.0584112 -0.00111808 0)
(0.0588845 -2.67712e-05 0)
(0.058714 0.000541452 0)
(0.0585488 0.000693553 0)
(0.0586835 0.00100927 0)
(0.0583351 0.00231724 0)
(0.0570898 0.00333079 0)
(0.0559891 0.0046317 0)
(0.0553207 0.00117475 0)
(0.0656168 0.00218622 0)
(0.0454939 0.0523261 0)
(-0.0705773 0.239589 0)
(-0.371891 0.37448 0)
(-0.164676 -0.23213 0)
(-0.150043 -0.254954 0)
(-0.0104925 -0.229828 0)
(0.0992888 -0.0465964 0)
(0.0884882 0.0227609 0)
(0.102176 0.0315601 0)
(0.0396105 0.0190117 0)
(0.108382 0.00121204 0)
(-0.00434202 -0.00296517 0)
(0.234037 -0.0035183 0)
(0.10635 0.077386 0)
(0.330245 0.0506357 0)
(-0.0191195 -0.29609 0)
(0.0843915 0.177781 0)
(0.109234 0.124266 0)
(0.103441 0.0171634 0)
(0.0864244 -0.0129143 0)
(0.0472456 -0.0678122 0)
(0.00705113 0.100819 0)
(-0.442277 0.468679 0)
(-0.128277 -1.21603 0)
(-0.0861088 0.184438 0)
(-0.162052 0.592624 0)
(-0.121337 0.0523691 0)
(-0.0239544 -0.0661388 0)
(0.044995 -0.066656 0)
(0.0735327 -0.0235028 0)
(0.077822 -0.00188969 0)
(0.078096 0.00464025 0)
(0.0775374 0.00411826 0)
(0.0747291 0.00275925 0)
(0.0721936 -0.00221575 0)
(0.0714752 -0.00134705 0)
(0.0711789 -3.79045e-05 0)
(0.0711258 0.000567307 0)
(0.0714148 0.000596524 0)
(0.072276 0.000819025 0)
(0.0727912 0.00247937 0)
(0.072237 0.00348859 0)
(0.0708144 0.00481614 0)
(0.0697228 -0.000437179 0)
(0.0618863 0.00728225 0)
(0.0340148 0.0843129 0)
(-0.0670957 0.330136 0)
(-0.237043 0.332864 0)
(0.261285 -0.274813 0)
(0.0361235 -0.224177 0)
(-0.00013617 -0.275283 0)
(0.0773539 -0.057508 0)
(0.071245 0.0217752 0)
(0.100951 0.0361701 0)
(0.0556357 0.0249292 0)
(0.122935 0.000626523 0)
(0.00110104 -0.012836 0)
(0.188366 -0.0327709 0)
(0.0488198 -0.0444696 0)
(0.298235 -0.0119118 0)
(-0.32687 -0.187663 0)
(-0.0475431 0.0951134 0)
(0.232783 0.0843079 0)
(0.156112 0.01222 0)
(0.0733839 0.00686836 0)
(-0.00950018 -0.0341125 0)
(-0.135479 0.149219 0)
(-0.260401 0.686994 0)
(-0.343726 -1.59408 0)
(-1.3925 1.07692 0)
(-0.175482 0.289666 0)
(0.0575844 0.0388389 0)
(0.0550119 -0.104641 0)
(0.0782099 -0.0842507 0)
(0.0869626 -0.0279566 0)
(0.0885291 -0.00289568 0)
(0.0906309 0.00435675 0)
(0.0909268 0.00374298 0)
(0.0892922 0.00409301 0)
(0.083977 -0.000352327 0)
(0.0784022 -0.000329799 0)
(0.0767738 0.0002464 0)
(0.0770583 0.00050178 0)
(0.0781787 0.000281784 0)
(0.0798582 -9.05259e-05 0)
(0.0811466 0.00256134 0)
(0.0808861 0.00390405 0)
(0.0778204 0.00698676 0)
(0.0732534 0.00417358 0)
(0.0377687 0.0232431 0)
(0.0181846 0.105184 0)
(-0.0188318 0.368582 0)
(-0.0167871 0.157368 0)
(0.509502 -0.304249 0)
(0.0910154 -0.099474 0)
(0.0406868 -0.312025 0)
(0.0935486 -0.0616462 0)
(0.0512688 0.0240506 0)
(0.0835522 0.0311572 0)
(0.063011 0.0262277 0)
(0.131853 -0.00187629 0)
(0.00418092 -0.0135204 0)
(0.202988 -0.0507653 0)
(0.0770462 -0.159891 0)
(0.312678 -0.0101023 0)
(-0.446459 -0.113163 0)
(0.292809 -0.0924426 0)
(0.567136 0.0891349 0)
(0.24135 0.0583111 0)
(0.0556325 0.0433947 0)
(-0.0746926 0.0148543 0)
(-0.264143 0.112774 0)
(0.479012 0.766624 0)
(-0.178501 -1.31751 0)
(-4.90767 1.06695 0)
(-0.919751 -0.509738 0)
(-0.0852605 0.00399592 0)
(0.132413 -0.10442 0)
(0.101047 -0.0791748 0)
(0.0896948 -0.027159 0)
(0.0911237 -0.00374146 0)
(0.0964536 0.00406072 0)
(0.0952903 0.0042893 0)
(0.0909054 0.00520438 0)
(0.0844251 0.0017948 0)
(0.0779 0.000725586 0)
(0.0766702 0.000355069 0)
(0.0777851 0.000145788 0)
(0.0799995 -0.000186167 0)
(0.0815543 -0.000576853 0)
(0.0827539 0.00245189 0)
(0.0828945 0.00440903 0)
(0.0790486 0.00869266 0)
(0.0736563 0.0107548 0)
(0.0269811 0.0330044 0)
(0.0189077 0.106584 0)
(0.0333567 0.355059 0)
(0.233932 0.109058 0)
(0.187099 -0.27636 0)
(-0.0390989 -0.0350898 0)
(-0.0805436 -0.357838 0)
(0.0907429 -0.0519736 0)
(0.0334505 0.0297293 0)
(0.0715299 0.0264152 0)
(0.0625659 0.02144 0)
(0.133244 0.000434801 0)
(0.00241722 -0.0151901 0)
(0.170499 -0.0509578 0)
(-0.114929 -0.151329 0)
(-0.185705 0.0627861 0)
(-0.71921 -0.0938285 0)
(0.298953 -0.164426 0)
(0.666887 0.0992869 0)
(0.262832 0.0840472 0)
(0.0468662 0.0595463 0)
(-0.0537563 0.0341931 0)
(-0.221731 0.0514521 0)
(0.788202 0.767721 0)
(0.0100759 -1.12197 0)
(-3.27549 1.19407 0)
(0.527614 -0.774347 0)
(0.151792 -0.0357625 0)
(0.162092 -0.100558 0)
(0.108142 -0.0754043 0)
(0.0898672 -0.0265205 0)
(0.0900434 -0.00412592 0)
(0.0956681 0.00384166 0)
(0.0949886 0.00460023 0)
(0.0912611 0.00565365 0)
(0.0856064 0.00247283 0)
(0.0794222 0.00109921 0)
(0.0780302 0.000365702 0)
(0.0792271 -2.54159e-05 0)
(0.0815201 -0.000376199 0)
(0.0827141 -0.000685835 0)
(0.0834626 0.00239693 0)
(0.0834388 0.00460356 0)
(0.079381 0.00922126 0)
(0.0739592 0.0133248 0)
(0.0245394 0.0361001 0)
(0.0192039 0.105778 0)
(0.0437079 0.338237 0)
(0.268877 0.113442 0)
(0.0515637 -0.269615 0)
(-0.137693 -0.00562653 0)
(-0.155952 -0.385645 0)
(0.0881497 -0.0533849 0)
(0.0242667 0.0315037 0)
(0.0650326 0.0242917 0)
(0.0620844 0.0189438 0)
(0.133868 0.00215018 0)
(0.00248635 -0.0155719 0)
(0.169386 -0.046727 0)
(-0.118501 -0.12226 0)
(-0.142076 0.0326223 0)
(-0.371267 -0.0594094 0)
(0.166198 -0.23512 0)
(0.635271 0.10621 0)
(0.262376 0.11241 0)
(0.0440828 0.0753314 0)
(-0.0162268 0.0490428 0)
(-0.192119 0.0154993 0)
(0.401898 0.771439 0)
(-0.316561 -0.963712 0)
(1.24837 1.17673 0)
(2.1072 -0.708419 0)
(0.999554 -0.00458228 0)
(0.207885 -0.0793178 0)
(0.113262 -0.0700742 0)
(0.0897465 -0.025511 0)
(0.0875532 -0.00440987 0)
(0.0927661 0.00354451 0)
(0.0937859 0.00479674 0)
(0.0914224 0.00604478 0)
(0.0868952 0.00303555 0)
(0.0816805 0.00145635 0)
(0.0804438 0.000374452 0)
(0.0814687 -0.000194618 0)
(0.0834317 -0.000542518 0)
(0.0842199 -0.000754462 0)
(0.0846991 0.00236559 0)
(0.0845193 0.00481453 0)
(0.080254 0.00974085 0)
(0.0746666 0.0160125 0)
(0.0240161 0.0388115 0)
(0.0286933 0.104606 0)
(0.0536245 0.322716 0)
(0.281627 0.119369 0)
(0.0192569 -0.257446 0)
(-0.0160007 0.0139841 0)
(0.0325388 -0.405843 0)
(0.088013 -0.0545608 0)
(0.0167102 0.0337515 0)
(0.0594613 0.0216953 0)
(0.0609274 0.0159946 0)
(0.133983 0.00403049 0)
(0.00266611 -0.0160997 0)
(0.180037 -0.0429319 0)
(-0.0895946 -0.0964888 0)
(-0.0855838 -0.00124665 0)
(-0.778223 -0.0379048 0)
(-0.156791 -0.300385 0)
(0.477762 0.0991092 0)
(0.238593 0.137227 0)
(0.0561953 0.0907565 0)
(-0.0307791 0.0575902 0)
(-0.26361 0.0314625 0)
(-0.0135357 0.759837 0)
(-0.415836 -0.92304 0)
(2.18551 0.710092 0)
(1.63007 -0.579147 0)
(1.07336 0.113411 0)
(0.192643 -0.0425913 0)
(0.114923 -0.0644151 0)
(0.0894902 -0.0242802 0)
(0.0860413 -0.00451553 0)
(0.0904958 0.00319493 0)
(0.092422 0.00483115 0)
(0.0912362 0.00632384 0)
(0.0877906 0.00347863 0)
(0.0835847 0.00175169 0)
(0.0825909 0.000387954 0)
(0.0834417 -0.000329938 0)
(0.0850405 -0.000662899 0)
(0.0854559 -0.000794241 0)
(0.0857135 0.00235554 0)
(0.0854428 0.00503532 0)
(0.0812336 0.0102653 0)
(0.0757406 0.018737 0)
(0.025438 0.0409165 0)
(0.0484444 0.101961 0)
(0.0841724 0.307727 0)
(0.345099 0.125597 0)
(-0.0197098 -0.247354 0)
(0.0471674 0.0108789 0)
(0.175203 -0.407704 0)
(0.0795161 -0.0520074 0)
(0.0144302 0.0361208 0)
(0.0594413 0.0189565 0)
(0.0601256 0.0129179 0)
(0.133693 0.0058145 0)
(0.00245553 -0.0166841 0)
(0.185374 -0.04071 0)
(-0.0782999 -0.0871431 0)
(0.0151255 0.00839184 0)
(-0.459985 0.0439275 0)
(-0.355637 -0.351076 0)
(0.283397 0.0763918 0)
(0.198118 0.153066 0)
(0.0718278 0.103761 0)
(0.0195464 0.0663864 0)
(-0.142538 0.047079 0)
(0.0417656 0.737686 0)
(-0.418012 -1.02697 0)
(0.672459 0.56597 0)
(0.503292 -0.617858 0)
(0.697829 0.212711 0)
(0.124191 -0.0123933 0)
(0.113235 -0.0603569 0)
(0.0888008 -0.0230636 0)
(0.0850866 -0.00454553 0)
(0.0889249 0.00284421 0)
(0.0912541 0.00478024 0)
(0.0908915 0.00649434 0)
(0.0884095 0.0038168 0)
(0.0851231 0.00197384 0)
(0.0843541 0.000391122 0)
(0.085034 -0.000443202 0)
(0.0862768 -0.000751179 0)
(0.0863653 -0.000807021 0)
(0.0864271 0.00235672 0)
(0.0860785 0.00525057 0)
(0.0820908 0.0107877 0)
(0.0771108 0.0213646 0)
(0.0285438 0.0424635 0)
(0.0620432 0.097836 0)
(0.103118 0.290975 0)
(0.372577 0.134581 0)
(-0.0428688 -0.22896 0)
(0.0852809 -0.0079003 0)
(0.249501 -0.401775 0)
(0.0541286 -0.0437499 0)
(0.0135221 0.0370329 0)
(0.0613506 0.0163966 0)
(0.0597261 0.0100355 0)
(0.133288 0.00732318 0)
(0.00145414 -0.0167654 0)
(0.176766 -0.0388668 0)
(-0.111427 -0.0878965 0)
(0.0560105 0.0148754 0)
(0.0438021 -0.0009247 0)
(0.0521848 -0.00814506 -2.57673e-31)
(0.00241728 0.0046781 -5.42869e-31)
(0.00614695 -0.00736667 1.06414e-30)
(-0.0658874 -0.0107839 0)
(0.0861029 -0.00220271 0)
(0.114938 -0.0118273 0)
(0.0390383 0.0103623 0)
(0.113765 0.0173949 -1.0026e-29)
(-0.153138 0.110127 0)
(0.0977347 -0.00879664 0)
(0.139048 -0.0117996 0)
(0.073239 0.00635401 0)
(0.21428 -0.0171497 -8.05555e-30)
(0.527107 -0.0625208 0)
(0.0856033 -0.0133361 0)
(0.123198 -0.00843611 0)
(0.0486719 0.00257168 0)
(0.18921 -0.0769942 -1.61086e-30)
(-0.0393598 -0.163026 0)
(0.0441225 -0.00690637 0)
(0.0634906 -0.00133434 0)
(0.0114001 0.000861298 0)
(0.126969 -0.02291 -2.09771e-31)
(-0.353618 -0.0133965 0)
(-0.0392335 0.131178 0)
(-0.4511 -0.320961 0)
(-0.204121 -0.0263869 0)
(0.0692181 0.150721 0)
(0.107604 0.117092 0)
(0.131178 0.093849 0)
(0.0572951 0.0266127 0)
(0.545669 0.631242 0)
(0.0687003 -1.05119 0)
(0.444257 0.531888 0)
(-0.752142 -0.54849 0)
(-0.175432 0.153235 0)
(0.0431291 -0.0376876 0)
(0.103038 -0.0574634 0)
(0.0858059 -0.0201501 0)
(0.0825064 -0.00462081 0)
(0.0851632 0.00174408 0)
(0.0879963 0.00456025 0)
(0.0892458 0.00664832 0)
(0.0891284 0.00448598 0)
(0.0881378 0.00241401 0)
(0.0879412 0.000405923 0)
(0.0881921 -0.000673454 0)
(0.0885308 -0.0008986 0)
(0.0878664 -0.00072854 0)
(0.0874881 0.0023742 0)
(0.0869653 0.00580678 0)
(0.0840105 0.0123257 0)
(0.0814745 0.027976 0)
(0.0408747 0.0464363 0)
(0.0816505 0.0856781 0)
(0.101795 0.246394 0)
(0.351789 0.172074 0)
(0.0150379 -0.191151 0)
(0.155935 -0.0803414 0)
(0.287089 -0.371926 0)
(0.0390104 -0.0157614 0)
(0.0187129 0.0356982 0)
(0.065154 0.00950568 0)
(0.0582618 0.00334361 0)
(0.13108 0.00987662 0)
(-0.00269177 -0.0125842 0)
(0.138415 -0.028532 0)
(-0.237641 -0.0802956 0)
(0.0134132 0.0326767 0)
(0.107425 -0.0224741 0)
(0.162527 -0.165617 0)
(-0.0454482 -0.146778 0)
(0.0294746 0.0791381 0)
(0.0859239 0.0779233 0)
(0.0789498 0.0948359 0)
(-0.0361795 -0.00197325 0)
(0.300158 0.428979 0)
(-0.109722 -0.605582 0)
(0.0659363 0.623507 0)
(-0.0764686 0.0157167 0)
(0.0929034 -0.151672 0)
(0.140693 -0.0809539 0)
(0.0946231 -0.0414671 0)
(0.0778863 -0.0122299 0)
(0.073777 -0.00377455 0)
(0.0740648 0.000398102 0)
(0.0764324 0.0038934 0)
(0.0796101 0.00549845 0)
(0.0823069 0.00401502 0)
(0.0838086 0.00216912 0)
(0.0843601 0.000402176 0)
(0.0841082 -0.000573581 0)
(0.0835835 -0.000635404 0)
(0.0824889 -0.000136373 0)
(0.0821117 0.00250719 0)
(0.0821584 0.00630464 0)
(0.0826866 0.0138695 0)
(0.087504 0.0323323 0)
(0.0721439 0.0465811 0)
(0.118663 0.0667287 0)
(0.127742 0.173938 0)
(0.395532 0.196248 0)
(0.213551 -0.130398 0)
(0.243439 -0.17907 0)
(0.22424 -0.276261 0)
(-0.0114425 0.0365925 0)
(0.0344474 0.0245037 0)
(0.0728202 -0.00258621 0)
(0.0500717 0.00014446 0)
(0.121682 0.00974096 0)
(-0.0101811 0.0102768 0)
(0.101813 0.0177452 0)
(-0.310371 0.0185865 0)
(-0.282503 -0.0161965 0)
(0.414221 -0.000213521 0)
(-0.406958 -0.126225 0)
(-0.0433929 -0.099338 0)
(-0.0129192 0.0526392 0)
(0.0463669 0.0512826 0)
(0.0936848 0.112225 0)
(0.143018 -0.0553055 0)
(0.514141 0.270697 0)
(0.202071 -0.289831 0)
(0.432166 0.284954 0)
(0.405075 -0.237706 0)
(0.25824 -0.115167 0)
(0.151044 -0.0529713 0)
(0.0767607 -0.0247452 0)
(0.0650888 -0.00676969 0)
(0.0605538 -0.00261032 0)
(0.0585477 0.000281567 0)
(0.0602706 0.00275901 0)
(0.0644419 0.00366165 0)
(0.0683415 0.00268987 0)
(0.0708007 0.00143138 0)
(0.0717189 0.000344756 0)
(0.0714115 -0.000292941 0)
(0.0706441 -0.000201343 0)
(0.0696177 0.000345728 0)
(0.0698061 0.00238919 0)
(0.0712042 0.00568196 0)
(0.0759238 0.012217 0)
(0.0891359 0.0285515 0)
(0.100394 0.0409047 0)
(0.149123 0.0528438 0)
(0.13664 0.104424 0)
(0.346419 0.174264 0)
(0.342617 -0.112547 0)
(0.306774 -0.184311 0)
(0.107509 -0.187161 0)
(0.0066945 0.0496947 0)
(0.0487426 0.00820806 0)
(0.0702423 -0.00694 0)
(0.0345362 -0.000241676 0)
(0.109265 0.0101861 0)
(-0.0124932 0.0245227 0)
(0.170203 0.0585495 0)
(-0.188648 0.114131 0)
(0.121889 -0.176923 0)
(0.0945486 0.416484 0)
(0.0714592 -0.145711 0)
(-0.107513 -0.144472 0)
(-0.0494284 0.0172559 0)
(-0.0213322 0.0303992 0)
(0.0502785 0.0733014 0)
(0.150285 -0.0742855 0)
(0.129725 0.157616 0)
(0.225141 -0.157312 0)
(0.0128817 0.0995359 0)
(0.161939 0.013407 0)
(0.117015 -0.0256262 0)
(0.109171 -0.0257524 0)
(0.0524575 -0.013358 0)
(0.0443526 -0.00247928 0)
(0.039697 -0.00089705 0)
(0.03768 0.000442542 0)
(0.039565 0.00141686 0)
(0.0435329 0.00171245 0)
(0.0471546 0.00122033 0)
(0.0494124 0.000636554 0)
(0.0503026 0.000216114 0)
(0.0501472 -8.05205e-06 0)
(0.0496979 0.000165495 0)
(0.0494119 0.000570335 0)
(0.050635 0.00179271 0)
(0.0537816 0.00385765 0)
(0.0619834 0.00786205 0)
(0.0814049 0.0178884 0)
(0.111215 0.0267305 0)
(0.177218 0.0371564 0)
(0.178013 0.0625238 0)
(0.316857 0.113989 0)
(0.427327 -0.123042 0)
(0.311901 -0.13054 0)
(-0.0208242 -0.0984857 0)
(0.0169362 0.0455324 0)
(0.0475068 -0.000775804 0)
(0.055099 -0.00714666 0)
(0.0150181 -0.00047148 0)
(0.0877206 0.00691846 0)
(-0.013289 0.0177039 0)
(0.219975 0.0472942 0)
(0.0602063 0.153285 0)
(0.168298 0.0123469 0)
(0.00590413 0.232959 0)
(0.478932 -0.00595493 0)
(-0.0643796 -0.0471946 0)
(-0.0642558 0.00141813 0)
(-0.0274462 0.00698945 0)
(0.0338119 0.0190885 0)
(0.108132 -0.0318246 0)
(-0.0834838 0.0812246 0)
(0.235643 -0.0108137 0)
(0.177294 0.0615914 0)
(0.113025 -0.0317837 0)
(0.108141 -0.0269819 0)
(0.068949 -0.00783774 0)
(0.0168294 -0.00194995 0)
(0.0149212 4.92615e-05 0)
(0.0130795 0.00013934 0)
(0.012883 0.000229653 0)
(0.0142997 0.00028396 0)
(0.0164893 0.000275192 0)
(0.0183593 0.000172435 0)
(0.0194812 8.68669e-05 0)
(0.0199651 4.61995e-05 0)
(0.0200646 4.64971e-05 0)
(0.0201967 0.000100991 0)
(0.020632 0.000182318 0)
(0.0221645 0.000449727 0)
(0.0253259 0.000845814 0)
(0.0319896 0.0015491 0)
(0.0474505 0.00373279 0)
(0.0714791 0.00484212 0)
(0.126594 0.0114935 0)
(0.156698 0.027417 0)
(0.287146 0.0705591 0)
(0.458711 0.0258437 0)
(0.204499 -0.0205654 0)
(-0.0653195 -0.0280767 0)
(0.0303374 0.00550398 0)
(0.029547 -0.00410501 0)
(0.0266411 -0.00161225 0)
(-0.00159667 -0.000661787 0)
(0.0441509 0.00271411 0)
(-0.0145077 0.00146659 0)
(0.114747 0.0123487 0)
(0.081751 0.0686981 0)
(0.258304 -0.00377883 0)
)
;

boundaryField
{
    AirInlet
    {
        type            fixedValue;
        value           uniform (0.1 0 0);
    }
    WaterInlet
    {
        type            fixedValue;
        value           uniform (0.1 0 0);
    }
    ChannelWall
    {
        type            fixedValue;
        value           uniform (0 0 0);
    }
    Outlet
    {
        type            pressureInletOutletVelocity;
        value           nonuniform List<vector> 
15
(
(-0.308962 -0 0)
(0.41108 -0.11167 0)
(0.330245 0.0506357 0)
(0.298235 -0.0119118 0)
(0.312678 -0.0101023 0)
(-0.013407 0 0)
(-0.142076 0.0326223 0)
(-0.0372368 -0 0)
(-0.100237 0 0)
(0.0560105 0.0148754 0)
(-0.036574 0 0)
(-0.297478 -0 0)
(0.121889 -0.176923 0)
(0.168298 0.0123469 0)
(0.258304 -0.00377883 0)
)
;
    }
    FrontAndBack
    {
        type            empty;
    }
}


// ************************************************************************* //
