/*--------------------------------*- C++ -*----------------------------------*\
| =========                 |                                                 |
| \\      /  F ield         | OpenFOAM: The Open Source CFD Toolbox           |
|  \\    /   O peration     | Version:  2.3.0                                 |
|   \\  /    A nd           | Web:      www.OpenFOAM.org                      |
|    \\/     M anipulation  |                                                 |
\*---------------------------------------------------------------------------*/
FoamFile
{
    version     2.0;
    format      ascii;
    class       volScalarField;
    location    "0.035";
    object      T;
}
// * * * * * * * * * * * * * * * * * * * * * * * * * * * * * * * * * * * * * //

dimensions      [0 0 0 1 0 0 0];

internalField   nonuniform List<scalar> 
12225
(
1.10231e-10
1.09556e-10
1.09388e-10
1.09338e-10
1.09372e-10
1.09537e-10
1.09942e-10
1.10791e-10
1.12435e-10
1.15468e-10
1.20883e-10
1.30401e-10
1.4717e-10
1.77417e-10
2.34367e-10
3.48022e-10
5.91635e-10
1.16928e-09
1.08705e-10
1.0888e-10
1.09053e-10
1.09167e-10
1.0929e-10
1.09509e-10
1.09951e-10
1.10833e-10
1.12515e-10
1.15601e-10
1.21092e-10
1.30705e-10
1.47555e-10
1.77719e-10
2.33919e-10
3.44345e-10
5.74367e-10
1.07871e-09
1.0953e-10
1.09502e-10
1.09471e-10
1.09465e-10
1.09523e-10
1.09708e-10
1.10144e-10
1.11049e-10
1.12797e-10
1.1601e-10
1.21713e-10
1.31637e-10
1.48859e-10
1.79227e-10
2.34603e-10
3.40091e-10
5.49122e-10
9.65642e-10
1.09683e-10
1.096e-10
1.09554e-10
1.09565e-10
1.09651e-10
1.09872e-10
1.1036e-10
1.11354e-10
1.13259e-10
1.16741e-10
1.22882e-10
1.33465e-10
1.51552e-10
1.82728e-10
2.37768e-10
3.38011e-10
5.24333e-10
8.6228e-10
1.09923e-10
1.0987e-10
1.09839e-10
1.09857e-10
1.09957e-10
1.10208e-10
1.10762e-10
1.11889e-10
1.14048e-10
1.17981e-10
1.24874e-10
1.36616e-10
1.56312e-10
1.89307e-10
2.4523e-10
3.41606e-10
5.08383e-10
7.8603e-10
1.10282e-10
1.10255e-10
1.10236e-10
1.10263e-10
1.10382e-10
1.10683e-10
1.11343e-10
1.12686e-10
1.15251e-10
1.19909e-10
1.28016e-10
1.41662e-10
1.64098e-10
2.00537e-10
2.59597e-10
3.55485e-10
5.09812e-10
7.48056e-10
1.10814e-10
1.10801e-10
1.10796e-10
1.10835e-10
1.10986e-10
1.11363e-10
1.12187e-10
1.13861e-10
1.17056e-10
1.22844e-10
1.3286e-10
1.49535e-10
1.76445e-10
2.189e-10
2.84859e-10
3.86085e-10
5.38551e-10
7.59363e-10
1.11437e-10
1.1143e-10
1.11437e-10
1.11495e-10
1.11688e-10
1.12162e-10
1.13199e-10
1.15305e-10
1.19325e-10
1.26599e-10
1.3914e-10
1.59863e-10
1.92873e-10
2.43887e-10
3.208e-10
4.34246e-10
5.97459e-10
8.2392e-10
1.12122e-10
1.1212e-10
1.12138e-10
1.12218e-10
1.12462e-10
1.13054e-10
1.14347e-10
1.16976e-10
1.22002e-10
1.31093e-10
1.46736e-10
1.7246e-10
2.13086e-10
2.75004e-10
3.66483e-10
4.97849e-10
6.81068e-10
9.27958e-10
1.13046e-10
1.13049e-10
1.13081e-10
1.13194e-10
1.13514e-10
1.14284e-10
1.1597e-10
1.19403e-10
1.25978e-10
1.37883e-10
1.5835e-10
1.91895e-10
2.44525e-10
3.23883e-10
4.39313e-10
6.01711e-10
8.22923e-10
1.11434e-09
1.14295e-10
1.14304e-10
1.14354e-10
1.14515e-10
1.14955e-10
1.16007e-10
1.18313e-10
1.23027e-10
1.32083e-10
1.48513e-10
1.76771e-10
2.23009e-10
2.95243e-10
4.03356e-10
5.58906e-10
7.74659e-10
1.06376e-09
1.43847e-09
1.15985e-10
1.16002e-10
1.16077e-10
1.16314e-10
1.16948e-10
1.18461e-10
1.21792e-10
1.28637e-10
1.41848e-10
1.65899e-10
2.07341e-10
2.75147e-10
3.80834e-10
5.38283e-10
7.63205e-10
1.07225e-09
1.4818e-09
2.00649e-09
1.18272e-10
1.18299e-10
1.18417e-10
1.18779e-10
1.1974e-10
1.22048e-10
1.27162e-10
1.37746e-10
1.58306e-10
1.95924e-10
2.60956e-10
3.67504e-10
5.33465e-10
7.80019e-10
1.13053e-09
1.60894e-09
2.23773e-09
3.03587e-09
1.21366e-10
1.21411e-10
1.216e-10
1.22183e-10
1.23734e-10
1.27488e-10
1.35895e-10
1.53463e-10
1.87882e-10
2.51291e-10
3.61448e-10
5.42411e-10
8.24393e-10
1.24255e-09
1.83468e-09
2.63817e-09
3.68635e-09
5.00503e-09
1.25549e-10
1.25626e-10
1.25948e-10
1.26944e-10
1.29625e-10
1.36197e-10
1.51115e-10
1.82701e-10
2.45291e-10
3.61673e-10
5.65222e-10
9.0095e-10
1.42472e-09
2.2002e-09
3.29382e-09
4.7683e-09
6.67573e-09
9.05105e-09
1.31198e-10
1.31336e-10
1.31919e-10
1.33746e-10
1.38743e-10
1.51219e-10
1.80067e-10
2.42205e-10
3.67224e-10
6.02607e-10
1.01811e-09
1.70732e-09
2.78461e-09
4.3768e-09
6.61053e-09
9.59757e-09
1.34206e-08
1.81207e-08
1.38796e-10
1.3906e-10
1.40193e-10
1.43806e-10
1.53918e-10
1.79796e-10
2.41122e-10
3.76302e-10
6.53931e-10
1.18569e-09
2.13656e-09
3.72659e-09
6.21902e-09
9.89396e-09
1.50123e-08
2.17787e-08
3.03121e-08
4.06258e-08
1.48203e-10
1.48723e-10
1.50993e-10
1.58417e-10
1.79826e-10
2.36388e-10
3.74788e-10
6.89309e-10
1.35339e-09
2.65566e-09
5.02706e-09
9.03893e-09
1.53548e-08
2.4636e-08
3.74264e-08
5.40541e-08
7.45764e-08
9.87748e-08
1.58092e-10
1.59048e-10
1.63305e-10
1.77627e-10
2.20348e-10
3.37406e-10
6.34657e-10
1.33509e-09
2.86482e-09
5.95505e-09
1.17173e-08
2.16212e-08
3.73106e-08
6.02688e-08
9.14518e-08
1.31055e-07
1.78494e-07
2.32549e-07
1.67396e-10
1.68967e-10
1.76103e-10
2.008e-10
2.7701e-10
4.93744e-10
1.0659e-09
2.46784e-09
5.64759e-09
1.2297e-08
2.50601e-08
4.74483e-08
8.32312e-08
1.35339e-07
2.04792e-07
2.90335e-07
3.88873e-07
4.96325e-07
1.75791e-10
1.78136e-10
1.88985e-10
2.27566e-10
3.50612e-10
7.13684e-10
1.71085e-09
4.25703e-09
1.02768e-08
2.33766e-08
4.94211e-08
9.63373e-08
1.72306e-07
2.82364e-07
4.25425e-07
5.9447e-07
7.79325e-07
9.69703e-07
1.83068e-10
1.86289e-10
2.0144e-10
2.56684e-10
4.38372e-10
9.93657e-10
2.57921e-09
6.80166e-09
1.72365e-08
4.09833e-08
9.02312e-08
1.82071e-07
3.33718e-07
5.52385e-07
8.26972e-07
1.13327e-06
1.44536e-06
1.74345e-06
1.89135e-10
1.93257e-10
2.12928e-10
2.86257e-10
5.34141e-10
1.31646e-09
3.63369e-09
1.00643e-08
2.66957e-08
6.64347e-08
1.53022e-07
3.21863e-07
6.09028e-07
1.02224e-06
1.51578e-06
2.02246e-06
2.49032e-06
2.89386e-06
1.94e-10
1.98975e-10
2.22997e-10
3.14237e-10
6.30007e-10
1.6549e-09
4.79232e-09
1.38409e-08
3.8312e-08
9.98355e-08
2.41582e-07
5.33944e-07
1.05382e-06
1.80612e-06
2.63728e-06
3.3905e-06
3.99329e-06
4.44233e-06
1.9775e-10
2.03462e-10
2.31342e-10
3.38893e-10
7.18343e-10
1.97895e-09
5.94796e-09
1.77915e-08
5.11766e-08
1.39441e-07
3.55375e-07
8.3202e-07
1.73666e-06
3.07822e-06
4.37734e-06
5.34238e-06
5.95687e-06
6.31175e-06
2.00547e-10
2.06842e-10
2.37898e-10
3.59212e-10
7.93703e-10
2.26398e-09
6.99907e-09
2.15332e-08
6.39987e-08
1.81592e-07
4.87145e-07
1.21575e-06
2.72981e-06
5.12536e-06
6.94403e-06
7.88767e-06
8.24787e-06
8.30793e-06
2.02509e-10
2.092e-10
2.42643e-10
3.74643e-10
8.52806e-10
2.49343e-09
7.8686e-09
2.47309e-08
7.54261e-08
2.21371e-07
6.2201e-07
1.65721e-06
4.07502e-06
8.4689e-06
1.04806e-05
1.0827e-05
1.0567e-05
1.01551e-05
2.03856e-10
2.11005e-10
2.46261e-10
3.86118e-10
8.96737e-10
2.66567e-09
8.53063e-09
2.72116e-08
8.45267e-08
2.54309e-07
7.40898e-07
2.09146e-06
5.69425e-06
1.41431e-05
1.48062e-05
1.36535e-05
1.25165e-05
1.15977e-05
2.02954e-10
2.10606e-10
2.47214e-10
3.91987e-10
9.22983e-10
2.77477e-09
8.96365e-09
2.88713e-08
9.07363e-08
2.77262e-07
8.26096e-07
2.42043e-06
7.17542e-06
2.42266e-05
1.87595e-05
1.5625e-05
1.37827e-05
1.25035e-05
2.06393e-10
2.12666e-10
2.4923e-10
3.96512e-10
9.391e-10
2.83778e-09
9.20766e-09
2.97926e-08
9.41412e-08
2.89664e-07
8.70449e-07
2.5651e-06
7.37409e-06
1.92082e-05
1.89478e-05
1.63966e-05
1.43488e-05
1.28988e-05
2.01783e-08
2.02278e-08
2.03265e-08
2.04768e-08
2.06804e-08
2.09385e-08
2.12528e-08
2.16246e-08
2.20555e-08
2.2547e-08
2.31008e-08
2.37183e-08
2.4401e-08
2.51505e-08
2.59683e-08
2.68558e-08
2.78145e-08
2.88458e-08
2.99512e-08
3.1132e-08
3.23896e-08
3.37253e-08
3.51404e-08
3.66362e-08
3.82138e-08
3.98744e-08
4.16192e-08
4.34491e-08
4.53652e-08
4.73685e-08
4.94599e-08
5.16402e-08
5.39101e-08
5.62703e-08
5.87215e-08
6.12641e-08
6.38986e-08
6.66254e-08
6.94447e-08
7.23566e-08
7.53611e-08
7.84583e-08
8.16479e-08
8.49296e-08
8.83031e-08
9.17678e-08
9.5323e-08
9.8968e-08
1.02702e-07
1.06524e-07
1.10433e-07
1.14428e-07
1.18508e-07
1.2267e-07
1.26914e-07
1.31238e-07
1.3564e-07
1.40119e-07
1.44672e-07
1.49298e-07
1.53994e-07
1.5876e-07
1.63592e-07
1.68488e-07
1.73447e-07
1.78465e-07
1.83542e-07
1.88674e-07
1.9386e-07
1.99096e-07
2.04382e-07
2.09714e-07
2.1509e-07
2.20508e-07
2.25966e-07
2.31461e-07
2.36991e-07
2.42554e-07
2.48147e-07
2.53769e-07
2.59416e-07
2.65086e-07
2.70778e-07
2.76488e-07
2.82215e-07
2.87956e-07
2.93709e-07
2.99471e-07
3.05241e-07
3.11014e-07
3.1679e-07
3.22566e-07
3.2834e-07
3.34109e-07
3.3987e-07
3.45621e-07
3.51361e-07
3.57086e-07
3.62795e-07
3.68484e-07
3.74152e-07
3.79796e-07
3.85413e-07
3.91002e-07
3.96559e-07
4.02082e-07
4.07569e-07
4.13017e-07
4.18422e-07
4.23783e-07
4.29096e-07
4.34357e-07
4.39565e-07
4.44715e-07
4.49805e-07
4.5483e-07
4.59786e-07
4.64672e-07
4.69481e-07
4.74212e-07
4.78858e-07
4.83416e-07
4.87883e-07
4.92252e-07
4.96521e-07
5.00683e-07
5.04735e-07
5.08671e-07
5.12486e-07
5.16175e-07
5.19732e-07
5.23153e-07
5.26431e-07
5.29562e-07
5.32539e-07
5.35356e-07
5.38008e-07
5.40488e-07
5.4279e-07
5.44908e-07
5.46836e-07
5.48567e-07
5.50095e-07
5.51413e-07
5.52515e-07
5.53395e-07
5.54045e-07
5.54458e-07
5.5463e-07
5.54553e-07
5.54219e-07
5.53624e-07
5.52761e-07
5.51623e-07
5.50204e-07
5.48499e-07
5.465e-07
5.44204e-07
5.41602e-07
5.38694e-07
5.35467e-07
5.31923e-07
5.28062e-07
5.23852e-07
5.1931e-07
5.14434e-07
5.09204e-07
5.03636e-07
4.97729e-07
4.9148e-07
4.84887e-07
4.77949e-07
4.70667e-07
4.63042e-07
4.55087e-07
4.46816e-07
4.38291e-07
4.29543e-07
4.20954e-07
4.11939e-07
2.01482e-08
2.01973e-08
2.02973e-08
2.04492e-08
2.06543e-08
2.09141e-08
2.12298e-08
2.16031e-08
2.20352e-08
2.25277e-08
2.30822e-08
2.37001e-08
2.43831e-08
2.51326e-08
2.59501e-08
2.68372e-08
2.77952e-08
2.88255e-08
2.99297e-08
3.11091e-08
3.2365e-08
3.36988e-08
3.51118e-08
3.66052e-08
3.81803e-08
3.98381e-08
4.15799e-08
4.34067e-08
4.53195e-08
4.73194e-08
4.94072e-08
5.15837e-08
5.38498e-08
5.62062e-08
5.86534e-08
6.1192e-08
6.38225e-08
6.65452e-08
6.93604e-08
7.22683e-08
7.52689e-08
7.83621e-08
8.15479e-08
8.4826e-08
8.81959e-08
9.16572e-08
9.52092e-08
9.88514e-08
1.02583e-07
1.06402e-07
1.10309e-07
1.14302e-07
1.18379e-07
1.2254e-07
1.26783e-07
1.31105e-07
1.35507e-07
1.39985e-07
1.44538e-07
1.49164e-07
1.53862e-07
1.58628e-07
1.63462e-07
1.6836e-07
1.73321e-07
1.78343e-07
1.83424e-07
1.8856e-07
1.9375e-07
1.98992e-07
2.04284e-07
2.09623e-07
2.15006e-07
2.20432e-07
2.25899e-07
2.31404e-07
2.36944e-07
2.42518e-07
2.48123e-07
2.53757e-07
2.59418e-07
2.65103e-07
2.7081e-07
2.76537e-07
2.82282e-07
2.88041e-07
2.93813e-07
2.99596e-07
3.05387e-07
3.11183e-07
3.16983e-07
3.22784e-07
3.28583e-07
3.34378e-07
3.40168e-07
3.45948e-07
3.51718e-07
3.57475e-07
3.63216e-07
3.68939e-07
3.74641e-07
3.80321e-07
3.85975e-07
3.91602e-07
3.97199e-07
4.02762e-07
4.0829e-07
4.1378e-07
4.19229e-07
4.24634e-07
4.29992e-07
4.35299e-07
4.40554e-07
4.45752e-07
4.50889e-07
4.55963e-07
4.6097e-07
4.65906e-07
4.70767e-07
4.75548e-07
4.80247e-07
4.84858e-07
4.89377e-07
4.938e-07
4.98122e-07
5.02338e-07
5.06443e-07
5.10433e-07
5.14302e-07
5.18046e-07
5.21657e-07
5.25132e-07
5.28464e-07
5.31649e-07
5.34679e-07
5.37549e-07
5.40253e-07
5.42785e-07
5.45139e-07
5.47309e-07
5.49287e-07
5.51068e-07
5.52645e-07
5.54012e-07
5.55161e-07
5.56087e-07
5.56783e-07
5.57242e-07
5.57457e-07
5.57423e-07
5.57131e-07
5.56577e-07
5.55753e-07
5.54653e-07
5.53271e-07
5.51601e-07
5.49637e-07
5.47373e-07
5.44803e-07
5.41923e-07
5.38724e-07
5.35207e-07
5.31369e-07
5.2719e-07
5.22685e-07
5.17851e-07
5.12669e-07
5.07146e-07
5.0128e-07
4.95069e-07
4.88511e-07
4.81604e-07
4.74349e-07
4.6675e-07
4.58814e-07
4.50561e-07
4.42042e-07
4.333e-07
4.24636e-07
4.15765e-07
2.00894e-08
2.01375e-08
2.02374e-08
2.03898e-08
2.05956e-08
2.0856e-08
2.11723e-08
2.15458e-08
2.19782e-08
2.24707e-08
2.30249e-08
2.36423e-08
2.43244e-08
2.50726e-08
2.58885e-08
2.67734e-08
2.77289e-08
2.87564e-08
2.98572e-08
3.10327e-08
3.22844e-08
3.36136e-08
3.50214e-08
3.65093e-08
3.80785e-08
3.97301e-08
4.14653e-08
4.32851e-08
4.51907e-08
4.71831e-08
4.92631e-08
5.14317e-08
5.36897e-08
5.60377e-08
5.84766e-08
6.10067e-08
6.36286e-08
6.63428e-08
6.91495e-08
7.20489e-08
7.50411e-08
7.81261e-08
8.13038e-08
8.4574e-08
8.79363e-08
9.13903e-08
9.49353e-08
9.85708e-08
1.02296e-07
1.0611e-07
1.10011e-07
1.13999e-07
1.18072e-07
1.22229e-07
1.26468e-07
1.30788e-07
1.35188e-07
1.39665e-07
1.44218e-07
1.48844e-07
1.53543e-07
1.58312e-07
1.63149e-07
1.68051e-07
1.73018e-07
1.78046e-07
1.83134e-07
1.88279e-07
1.93479e-07
1.98732e-07
2.04037e-07
2.09389e-07
2.14789e-07
2.20232e-07
2.25717e-07
2.31242e-07
2.36804e-07
2.42402e-07
2.48033e-07
2.53694e-07
2.59384e-07
2.65101e-07
2.70842e-07
2.76604e-07
2.82386e-07
2.88186e-07
2.94e-07
2.99827e-07
3.05665e-07
3.11511e-07
3.17363e-07
3.23218e-07
3.29074e-07
3.34929e-07
3.4078e-07
3.46625e-07
3.52463e-07
3.58289e-07
3.64102e-07
3.699e-07
3.7568e-07
3.81439e-07
3.87176e-07
3.92887e-07
3.98571e-07
4.04224e-07
4.09844e-07
4.15428e-07
4.20973e-07
4.26476e-07
4.31934e-07
4.37345e-07
4.42703e-07
4.48007e-07
4.53253e-07
4.58437e-07
4.63555e-07
4.68603e-07
4.73578e-07
4.78475e-07
4.8329e-07
4.88019e-07
4.92656e-07
4.97198e-07
5.0164e-07
5.05977e-07
5.10204e-07
5.14315e-07
5.18306e-07
5.22171e-07
5.25904e-07
5.295e-07
5.32954e-07
5.36258e-07
5.39408e-07
5.42398e-07
5.4522e-07
5.4787e-07
5.5034e-07
5.52624e-07
5.54716e-07
5.56609e-07
5.58296e-07
5.59771e-07
5.61027e-07
5.62058e-07
5.62856e-07
5.63415e-07
5.63729e-07
5.6379e-07
5.63592e-07
5.63128e-07
5.62393e-07
5.61378e-07
5.60079e-07
5.58489e-07
5.56601e-07
5.54411e-07
5.51911e-07
5.49099e-07
5.45967e-07
5.42511e-07
5.3873e-07
5.34611e-07
5.3016e-07
5.25376e-07
5.20246e-07
5.14771e-07
5.08948e-07
5.02776e-07
4.96252e-07
4.89375e-07
4.82145e-07
4.74563e-07
4.66637e-07
4.58382e-07
4.49844e-07
4.41062e-07
4.32285e-07
4.23368e-07
1.99954e-08
2.00429e-08
2.01429e-08
2.02956e-08
2.05017e-08
2.07622e-08
2.10784e-08
2.14518e-08
2.18837e-08
2.23755e-08
2.29286e-08
2.35445e-08
2.42246e-08
2.49703e-08
2.57831e-08
2.66645e-08
2.76158e-08
2.86385e-08
2.9734e-08
3.09036e-08
3.21488e-08
3.34708e-08
3.48711e-08
3.63509e-08
3.79114e-08
3.95538e-08
4.12794e-08
4.30893e-08
4.49845e-08
4.69662e-08
4.90352e-08
5.11926e-08
5.34391e-08
5.57755e-08
5.82025e-08
6.07208e-08
6.33309e-08
6.60332e-08
6.88282e-08
7.17159e-08
7.46967e-08
7.77705e-08
8.09372e-08
8.41968e-08
8.75489e-08
9.0993e-08
9.45287e-08
9.81554e-08
1.01872e-07
1.05678e-07
1.09573e-07
1.13555e-07
1.17622e-07
1.21775e-07
1.26011e-07
1.30328e-07
1.34726e-07
1.39203e-07
1.43757e-07
1.48385e-07
1.53087e-07
1.57861e-07
1.62704e-07
1.67614e-07
1.7259e-07
1.77629e-07
1.82729e-07
1.87888e-07
1.93105e-07
1.98376e-07
2.03701e-07
2.09076e-07
2.14499e-07
2.19969e-07
2.25483e-07
2.31039e-07
2.36635e-07
2.42269e-07
2.47939e-07
2.53643e-07
2.59377e-07
2.65142e-07
2.70933e-07
2.76749e-07
2.82588e-07
2.88448e-07
2.94326e-07
3.00221e-07
3.06129e-07
3.12049e-07
3.17979e-07
3.23915e-07
3.29857e-07
3.35801e-07
3.41745e-07
3.47687e-07
3.53625e-07
3.59556e-07
3.65477e-07
3.71387e-07
3.77282e-07
3.83161e-07
3.89021e-07
3.9486e-07
4.00673e-07
4.0646e-07
4.12217e-07
4.17942e-07
4.23631e-07
4.29281e-07
4.3489e-07
4.40453e-07
4.45968e-07
4.5143e-07
4.56837e-07
4.62185e-07
4.67469e-07
4.72686e-07
4.77832e-07
4.82901e-07
4.8789e-07
4.92795e-07
4.9761e-07
5.0233e-07
5.06952e-07
5.11469e-07
5.15877e-07
5.2017e-07
5.24343e-07
5.28389e-07
5.32305e-07
5.36082e-07
5.39717e-07
5.43202e-07
5.46531e-07
5.49699e-07
5.52698e-07
5.55523e-07
5.58167e-07
5.60623e-07
5.62885e-07
5.64945e-07
5.66798e-07
5.68435e-07
5.69851e-07
5.71039e-07
5.71991e-07
5.72701e-07
5.73161e-07
5.73366e-07
5.73308e-07
5.72981e-07
5.72377e-07
5.71491e-07
5.70316e-07
5.68846e-07
5.67073e-07
5.64995e-07
5.62603e-07
5.59893e-07
5.56859e-07
5.53496e-07
5.49801e-07
5.45767e-07
5.41394e-07
5.3668e-07
5.31617e-07
5.26203e-07
5.20436e-07
5.14314e-07
5.07834e-07
5.00995e-07
4.93793e-07
4.86231e-07
4.78314e-07
4.70052e-07
4.61486e-07
4.52644e-07
4.43742e-07
4.34682e-07
1.98644e-08
1.99115e-08
2.00114e-08
2.01642e-08
2.03702e-08
2.06304e-08
2.09461e-08
2.13186e-08
2.17493e-08
2.22395e-08
2.27905e-08
2.34037e-08
2.40806e-08
2.48226e-08
2.5631e-08
2.65073e-08
2.74528e-08
2.84691e-08
2.95575e-08
3.07193e-08
3.19561e-08
3.32691e-08
3.46596e-08
3.61291e-08
3.76787e-08
3.93097e-08
4.10234e-08
4.2821e-08
4.47035e-08
4.6672e-08
4.87276e-08
5.08713e-08
5.31039e-08
5.54263e-08
5.78392e-08
6.03434e-08
6.29394e-08
6.56277e-08
6.84088e-08
7.1283e-08
7.42504e-08
7.73112e-08
8.04654e-08
8.37129e-08
8.70534e-08
9.04866e-08
9.40121e-08
9.76292e-08
1.01337e-07
1.05136e-07
1.09023e-07
1.12999e-07
1.17062e-07
1.21211e-07
1.25445e-07
1.29761e-07
1.3416e-07
1.38638e-07
1.43195e-07
1.47829e-07
1.52538e-07
1.5732e-07
1.62173e-07
1.67096e-07
1.72086e-07
1.77141e-07
1.8226e-07
1.87441e-07
1.92681e-07
1.97978e-07
2.03331e-07
2.08737e-07
2.14195e-07
2.19702e-07
2.25256e-07
2.30855e-07
2.36498e-07
2.42181e-07
2.47904e-07
2.53664e-07
2.59459e-07
2.65287e-07
2.71147e-07
2.77035e-07
2.8295e-07
2.8889e-07
2.94853e-07
3.00836e-07
3.06838e-07
3.12856e-07
3.18889e-07
3.24933e-07
3.30987e-07
3.37048e-07
3.43115e-07
3.49184e-07
3.55253e-07
3.61321e-07
3.67384e-07
3.7344e-07
3.79487e-07
3.85522e-07
3.91543e-07
3.97547e-07
4.03531e-07
4.09493e-07
4.15429e-07
4.21337e-07
4.27214e-07
4.33056e-07
4.3886e-07
4.44623e-07
4.50341e-07
4.5601e-07
4.61627e-07
4.67188e-07
4.72689e-07
4.78125e-07
4.83493e-07
4.88786e-07
4.94002e-07
4.99136e-07
5.04181e-07
5.09134e-07
5.13989e-07
5.18741e-07
5.23385e-07
5.27914e-07
5.32323e-07
5.36607e-07
5.40758e-07
5.44772e-07
5.48642e-07
5.52362e-07
5.55925e-07
5.59325e-07
5.62555e-07
5.65608e-07
5.68478e-07
5.71158e-07
5.73641e-07
5.7592e-07
5.77987e-07
5.79837e-07
5.81461e-07
5.82853e-07
5.84006e-07
5.84912e-07
5.85564e-07
5.85957e-07
5.86081e-07
5.85932e-07
5.85502e-07
5.84782e-07
5.8377e-07
5.82458e-07
5.80837e-07
5.78904e-07
5.76652e-07
5.74076e-07
5.71169e-07
5.67928e-07
5.64348e-07
5.60424e-07
5.56153e-07
5.51532e-07
5.46557e-07
5.41225e-07
5.35532e-07
5.29477e-07
5.23056e-07
5.16267e-07
5.09106e-07
5.01572e-07
4.9367e-07
4.85405e-07
4.7681e-07
4.67905e-07
4.58881e-07
4.49635e-07
1.96927e-08
1.97398e-08
1.98396e-08
1.99921e-08
2.01975e-08
2.04569e-08
2.07715e-08
2.11424e-08
2.15711e-08
2.20588e-08
2.26067e-08
2.32163e-08
2.38889e-08
2.46258e-08
2.54285e-08
2.62984e-08
2.72369e-08
2.82453e-08
2.93251e-08
3.04776e-08
3.17043e-08
3.30066e-08
3.43858e-08
3.58432e-08
3.73803e-08
3.89982e-08
4.06982e-08
4.24817e-08
4.43497e-08
4.63034e-08
4.83439e-08
5.04723e-08
5.26894e-08
5.49962e-08
5.73936e-08
5.98822e-08
6.24628e-08
6.51359e-08
6.79021e-08
7.07616e-08
7.37149e-08
7.6762e-08
7.99031e-08
8.31381e-08
8.64668e-08
8.98891e-08
9.34045e-08
9.70126e-08
1.00713e-07
1.04504e-07
1.08386e-07
1.12357e-07
1.16417e-07
1.20565e-07
1.24798e-07
1.29117e-07
1.33518e-07
1.38002e-07
1.42566e-07
1.47209e-07
1.51929e-07
1.56724e-07
1.61593e-07
1.66534e-07
1.71545e-07
1.76624e-07
1.81769e-07
1.86978e-07
1.9225e-07
1.97582e-07
2.02973e-07
2.0842e-07
2.13922e-07
2.19477e-07
2.25082e-07
2.30737e-07
2.36438e-07
2.42185e-07
2.47975e-07
2.53806e-07
2.59677e-07
2.65585e-07
2.71529e-07
2.77507e-07
2.83517e-07
2.89556e-07
2.95624e-07
3.01717e-07
3.07834e-07
3.13974e-07
3.20133e-07
3.26309e-07
3.32501e-07
3.38706e-07
3.44922e-07
3.51147e-07
3.57377e-07
3.63612e-07
3.69848e-07
3.76083e-07
3.82315e-07
3.88541e-07
3.94758e-07
4.00963e-07
4.07155e-07
4.13329e-07
4.19483e-07
4.25614e-07
4.31719e-07
4.37793e-07
4.43835e-07
4.49841e-07
4.55805e-07
4.61726e-07
4.67598e-07
4.73418e-07
4.79181e-07
4.84884e-07
4.9052e-07
4.96087e-07
5.01578e-07
5.06988e-07
5.12314e-07
5.17548e-07
5.22687e-07
5.27723e-07
5.32652e-07
5.37468e-07
5.42164e-07
5.46735e-07
5.51174e-07
5.55475e-07
5.59631e-07
5.63635e-07
5.67482e-07
5.71163e-07
5.74673e-07
5.78004e-07
5.81149e-07
5.84101e-07
5.86853e-07
5.89397e-07
5.91726e-07
5.93833e-07
5.95711e-07
5.97352e-07
5.98749e-07
5.99894e-07
6.00781e-07
6.01402e-07
6.0175e-07
6.01817e-07
6.01599e-07
6.01085e-07
6.00272e-07
5.99151e-07
5.97716e-07
5.95962e-07
5.93882e-07
5.9147e-07
5.88721e-07
5.8563e-07
5.82193e-07
5.78404e-07
5.7426e-07
5.69759e-07
5.64894e-07
5.59665e-07
5.54066e-07
5.48097e-07
5.41751e-07
5.35027e-07
5.2792e-07
5.20428e-07
5.12551e-07
5.04291e-07
4.95674e-07
4.86711e-07
4.77574e-07
4.68133e-07
1.94769e-08
1.95242e-08
1.96238e-08
1.97757e-08
1.99803e-08
2.02384e-08
2.05512e-08
2.09199e-08
2.13458e-08
2.18301e-08
2.23741e-08
2.2979e-08
2.36463e-08
2.43772e-08
2.51732e-08
2.60355e-08
2.69657e-08
2.79651e-08
2.90351e-08
3.01771e-08
3.13926e-08
3.26829e-08
3.40495e-08
3.54937e-08
3.70169e-08
3.86205e-08
4.03058e-08
4.2074e-08
4.39265e-08
4.58643e-08
4.78888e-08
5.00009e-08
5.22017e-08
5.44923e-08
5.68735e-08
5.93461e-08
6.19109e-08
6.45685e-08
6.73196e-08
7.01646e-08
7.31038e-08
7.61376e-08
7.92661e-08
8.24893e-08
8.58072e-08
8.92197e-08
9.27264e-08
9.63269e-08
1.00021e-07
1.03807e-07
1.07686e-07
1.11655e-07
1.15715e-07
1.19864e-07
1.24101e-07
1.28425e-07
1.32834e-07
1.37328e-07
1.41904e-07
1.46561e-07
1.51298e-07
1.56113e-07
1.61004e-07
1.65969e-07
1.71008e-07
1.76117e-07
1.81296e-07
1.86543e-07
1.91855e-07
1.97232e-07
2.0267e-07
2.08169e-07
2.13726e-07
2.1934e-07
2.25009e-07
2.30731e-07
2.36505e-07
2.42328e-07
2.48199e-07
2.54116e-07
2.60078e-07
2.66083e-07
2.72128e-07
2.78213e-07
2.84335e-07
2.90493e-07
2.96685e-07
3.02908e-07
3.09162e-07
3.15444e-07
3.21751e-07
3.28083e-07
3.34437e-07
3.40811e-07
3.47202e-07
3.53608e-07
3.60028e-07
3.66458e-07
3.72896e-07
3.7934e-07
3.85787e-07
3.92235e-07
3.9868e-07
4.0512e-07
4.11553e-07
4.17974e-07
4.24382e-07
4.30772e-07
4.37141e-07
4.43487e-07
4.49805e-07
4.56091e-07
4.62343e-07
4.68554e-07
4.74723e-07
4.80843e-07
4.86911e-07
4.92922e-07
4.98871e-07
5.04753e-07
5.10563e-07
5.16295e-07
5.21945e-07
5.27506e-07
5.32973e-07
5.3834e-07
5.436e-07
5.48748e-07
5.53777e-07
5.58681e-07
5.63453e-07
5.68087e-07
5.72574e-07
5.7691e-07
5.81085e-07
5.85094e-07
5.88929e-07
5.92583e-07
5.96047e-07
5.99316e-07
6.0238e-07
6.05234e-07
6.07868e-07
6.10275e-07
6.12448e-07
6.1438e-07
6.16062e-07
6.17486e-07
6.18646e-07
6.19535e-07
6.20144e-07
6.20466e-07
6.20495e-07
6.20222e-07
6.19642e-07
6.18747e-07
6.17531e-07
6.15987e-07
6.1411e-07
6.11893e-07
6.09331e-07
6.06419e-07
6.03152e-07
5.99524e-07
5.95533e-07
5.91175e-07
5.86445e-07
5.81341e-07
5.75858e-07
5.69993e-07
5.63743e-07
5.57101e-07
5.50065e-07
5.42628e-07
5.3479e-07
5.26548e-07
5.17922e-07
5.08914e-07
4.9968e-07
4.90057e-07
1.92134e-08
1.9261e-08
1.93603e-08
1.95114e-08
1.97146e-08
1.9971e-08
2.02815e-08
2.06474e-08
2.10699e-08
2.15501e-08
2.20894e-08
2.26889e-08
2.335e-08
2.40741e-08
2.48624e-08
2.57163e-08
2.66373e-08
2.76267e-08
2.8686e-08
2.98166e-08
3.102e-08
3.22975e-08
3.36507e-08
3.5081e-08
3.65897e-08
3.81783e-08
3.98482e-08
4.16007e-08
4.34372e-08
4.53588e-08
4.7367e-08
4.94627e-08
5.16473e-08
5.39216e-08
5.62868e-08
5.87438e-08
6.12933e-08
6.39362e-08
6.6673e-08
6.95045e-08
7.24309e-08
7.54528e-08
7.85703e-08
8.17836e-08
8.50928e-08
8.84977e-08
9.19982e-08
9.55939e-08
9.92845e-08
1.0307e-07
1.06948e-07
1.1092e-07
1.14984e-07
1.19139e-07
1.23384e-07
1.27718e-07
1.3214e-07
1.36649e-07
1.41243e-07
1.45921e-07
1.50681e-07
1.55522e-07
1.60443e-07
1.65441e-07
1.70516e-07
1.75665e-07
1.80887e-07
1.8618e-07
1.91543e-07
1.96973e-07
2.0247e-07
2.08031e-07
2.13655e-07
2.19341e-07
2.25086e-07
2.30888e-07
2.36747e-07
2.42661e-07
2.48628e-07
2.54646e-07
2.60714e-07
2.66831e-07
2.72995e-07
2.79203e-07
2.85455e-07
2.91749e-07
2.98084e-07
3.04457e-07
3.10866e-07
3.17311e-07
3.23789e-07
3.30298e-07
3.36836e-07
3.43402e-07
3.49992e-07
3.56605e-07
3.63238e-07
3.69889e-07
3.76556e-07
3.83236e-07
3.89926e-07
3.96624e-07
4.03327e-07
4.10032e-07
4.16736e-07
4.23436e-07
4.30129e-07
4.36811e-07
4.43479e-07
4.50128e-07
4.56757e-07
4.63359e-07
4.69932e-07
4.76471e-07
4.82972e-07
4.89429e-07
4.95839e-07
5.02197e-07
5.08496e-07
5.14732e-07
5.209e-07
5.26993e-07
5.33007e-07
5.38934e-07
5.4477e-07
5.50507e-07
5.56139e-07
5.6166e-07
5.67063e-07
5.72341e-07
5.77488e-07
5.82494e-07
5.87355e-07
5.92062e-07
5.96608e-07
6.00985e-07
6.05185e-07
6.09202e-07
6.13026e-07
6.16651e-07
6.20068e-07
6.2327e-07
6.26248e-07
6.28993e-07
6.315e-07
6.33761e-07
6.35765e-07
6.37506e-07
6.38976e-07
6.40168e-07
6.41073e-07
6.41684e-07
6.41994e-07
6.41996e-07
6.41682e-07
6.41045e-07
6.40079e-07
6.38777e-07
6.37133e-07
6.3514e-07
6.32794e-07
6.30088e-07
6.27018e-07
6.23579e-07
6.19766e-07
6.15576e-07
6.11005e-07
6.06049e-07
6.00703e-07
5.94965e-07
5.8883e-07
5.82291e-07
5.75344e-07
5.67982e-07
5.602e-07
5.51993e-07
5.43377e-07
5.34341e-07
5.25033e-07
5.15255e-07
1.88977e-08
1.89455e-08
1.90444e-08
1.91945e-08
1.93962e-08
1.96504e-08
1.99583e-08
2.03209e-08
2.07394e-08
2.1215e-08
2.17489e-08
2.23424e-08
2.29967e-08
2.37132e-08
2.44931e-08
2.5338e-08
2.62492e-08
2.7228e-08
2.82761e-08
2.93947e-08
3.05855e-08
3.18498e-08
3.31892e-08
3.46052e-08
3.60992e-08
3.76727e-08
3.93272e-08
4.1064e-08
4.28847e-08
4.47905e-08
4.67828e-08
4.88628e-08
5.10318e-08
5.32909e-08
5.56412e-08
5.80837e-08
6.06194e-08
6.32492e-08
6.59737e-08
6.87936e-08
7.17096e-08
7.4722e-08
7.78312e-08
8.10376e-08
8.43412e-08
8.7742e-08
9.124e-08
9.4835e-08
9.85266e-08
1.02315e-07
1.06198e-07
1.10177e-07
1.1425e-07
1.18417e-07
1.22676e-07
1.27027e-07
1.31469e-07
1.36e-07
1.40619e-07
1.45326e-07
1.50117e-07
1.54993e-07
1.59952e-07
1.64992e-07
1.70112e-07
1.75311e-07
1.80586e-07
1.85936e-07
1.9136e-07
1.96856e-07
2.02423e-07
2.08059e-07
2.13762e-07
2.19531e-07
2.25365e-07
2.31262e-07
2.37221e-07
2.43239e-07
2.49316e-07
2.55451e-07
2.61641e-07
2.67886e-07
2.74183e-07
2.80533e-07
2.86932e-07
2.9338e-07
2.99875e-07
3.06416e-07
3.13001e-07
3.19628e-07
3.26296e-07
3.33003e-07
3.39746e-07
3.46525e-07
3.53336e-07
3.60178e-07
3.67048e-07
3.73944e-07
3.80863e-07
3.87804e-07
3.94763e-07
4.01737e-07
4.08724e-07
4.1572e-07
4.22723e-07
4.29729e-07
4.36735e-07
4.43737e-07
4.50732e-07
4.57716e-07
4.64684e-07
4.71633e-07
4.78559e-07
4.85456e-07
4.92321e-07
4.99148e-07
5.05932e-07
5.12668e-07
5.19351e-07
5.25975e-07
5.32534e-07
5.39022e-07
5.45434e-07
5.51762e-07
5.58e-07
5.64143e-07
5.70182e-07
5.76111e-07
5.81923e-07
5.8761e-07
5.93165e-07
5.98581e-07
6.0385e-07
6.08964e-07
6.13915e-07
6.18696e-07
6.23297e-07
6.27712e-07
6.31931e-07
6.35947e-07
6.39751e-07
6.43336e-07
6.46692e-07
6.49812e-07
6.52686e-07
6.55308e-07
6.57668e-07
6.59758e-07
6.61571e-07
6.63098e-07
6.64331e-07
6.65264e-07
6.65887e-07
6.66193e-07
6.66175e-07
6.65827e-07
6.65141e-07
6.64109e-07
6.62727e-07
6.60987e-07
6.58884e-07
6.56411e-07
6.53565e-07
6.5034e-07
6.46731e-07
6.42735e-07
6.38347e-07
6.33563e-07
6.28379e-07
6.22791e-07
6.16793e-07
6.10379e-07
6.03542e-07
5.96275e-07
5.88571e-07
5.80422e-07
5.71837e-07
5.62799e-07
5.53447e-07
5.43548e-07
1.85241e-08
1.85723e-08
1.86707e-08
1.88197e-08
1.90197e-08
1.92716e-08
1.95765e-08
1.99354e-08
2.03496e-08
2.08202e-08
2.13483e-08
2.19352e-08
2.25823e-08
2.32908e-08
2.4062e-08
2.48974e-08
2.57983e-08
2.67663e-08
2.78027e-08
2.89092e-08
3.00872e-08
3.13382e-08
3.26639e-08
3.40657e-08
3.55452e-08
3.7104e-08
3.87436e-08
4.04655e-08
4.22711e-08
4.4162e-08
4.61396e-08
4.82052e-08
5.03602e-08
5.26057e-08
5.49431e-08
5.73734e-08
5.98977e-08
6.25169e-08
6.52319e-08
6.80434e-08
7.09522e-08
7.39588e-08
7.70637e-08
8.02673e-08
8.35697e-08
8.69712e-08
9.04717e-08
9.40713e-08
9.77696e-08
1.01566e-07
1.05461e-07
1.09454e-07
1.13543e-07
1.17729e-07
1.2201e-07
1.26385e-07
1.30855e-07
1.35417e-07
1.4007e-07
1.44814e-07
1.49646e-07
1.54567e-07
1.59574e-07
1.64667e-07
1.69843e-07
1.75102e-07
1.80441e-07
1.85861e-07
1.91358e-07
1.96933e-07
2.02582e-07
2.08306e-07
2.14102e-07
2.19969e-07
2.25906e-07
2.31912e-07
2.37985e-07
2.44123e-07
2.50326e-07
2.56592e-07
2.62921e-07
2.6931e-07
2.75758e-07
2.82265e-07
2.88829e-07
2.95448e-07
3.02122e-07
3.08849e-07
3.15627e-07
3.22456e-07
3.29333e-07
3.36256e-07
3.43225e-07
3.50236e-07
3.57289e-07
3.6438e-07
3.71508e-07
3.7867e-07
3.85864e-07
3.93088e-07
4.00337e-07
4.0761e-07
4.14904e-07
4.22215e-07
4.29541e-07
4.36877e-07
4.4422e-07
4.51568e-07
4.58915e-07
4.66258e-07
4.73592e-07
4.80914e-07
4.88218e-07
4.955e-07
5.02755e-07
5.09978e-07
5.17164e-07
5.24306e-07
5.314e-07
5.38439e-07
5.45417e-07
5.52328e-07
5.59166e-07
5.65923e-07
5.72594e-07
5.7917e-07
5.85644e-07
5.9201e-07
5.9826e-07
6.04386e-07
6.10379e-07
6.16234e-07
6.2194e-07
6.2749e-07
6.32876e-07
6.38089e-07
6.43121e-07
6.47964e-07
6.52607e-07
6.57044e-07
6.61265e-07
6.65262e-07
6.69026e-07
6.72547e-07
6.75819e-07
6.78831e-07
6.81576e-07
6.84044e-07
6.86228e-07
6.88119e-07
6.89709e-07
6.90989e-07
6.91953e-07
6.92592e-07
6.92899e-07
6.92866e-07
6.92486e-07
6.91752e-07
6.90658e-07
6.89197e-07
6.87363e-07
6.85151e-07
6.82554e-07
6.79569e-07
6.76189e-07
6.72412e-07
6.68232e-07
6.63645e-07
6.58646e-07
6.53231e-07
6.47395e-07
6.41129e-07
6.34427e-07
6.27279e-07
6.19678e-07
6.11611e-07
6.03085e-07
5.94075e-07
5.84712e-07
5.74733e-07
1.80866e-08
1.81351e-08
1.82331e-08
1.8381e-08
1.85792e-08
1.88286e-08
1.91304e-08
1.94854e-08
1.9895e-08
2.03603e-08
2.08824e-08
2.14625e-08
2.2102e-08
2.28022e-08
2.35645e-08
2.43902e-08
2.52808e-08
2.62377e-08
2.72626e-08
2.8357e-08
2.95224e-08
3.07604e-08
3.20728e-08
3.3461e-08
3.49267e-08
3.64716e-08
3.80973e-08
3.98054e-08
4.15974e-08
4.34751e-08
4.54398e-08
4.7493e-08
4.96363e-08
5.18708e-08
5.41981e-08
5.66192e-08
5.91354e-08
6.17477e-08
6.44571e-08
6.72645e-08
7.01706e-08
7.31762e-08
7.62819e-08
7.94881e-08
8.27952e-08
8.62034e-08
8.97129e-08
9.33237e-08
9.70357e-08
1.00849e-07
1.04763e-07
1.08777e-07
1.12891e-07
1.17104e-07
1.21416e-07
1.25826e-07
1.30333e-07
1.34936e-07
1.39634e-07
1.44426e-07
1.49311e-07
1.54288e-07
1.59355e-07
1.64512e-07
1.69757e-07
1.75089e-07
1.80507e-07
1.86009e-07
1.91594e-07
1.9726e-07
2.03008e-07
2.08834e-07
2.14738e-07
2.20718e-07
2.26774e-07
2.32904e-07
2.39107e-07
2.45382e-07
2.51727e-07
2.58142e-07
2.64625e-07
2.71176e-07
2.77792e-07
2.84474e-07
2.9122e-07
2.98029e-07
3.04899e-07
3.1183e-07
3.1882e-07
3.25868e-07
3.32972e-07
3.40131e-07
3.47343e-07
3.54607e-07
3.6192e-07
3.6928e-07
3.76685e-07
3.84133e-07
3.91621e-07
3.99146e-07
4.06707e-07
4.14299e-07
4.2192e-07
4.29566e-07
4.37234e-07
4.44921e-07
4.52623e-07
4.60336e-07
4.68057e-07