/*--------------------------------*- C++ -*----------------------------------*\
| =========                 |                                                 |
| \\      /  F ield         | OpenFOAM: The Open Source CFD Toolbox           |
|  \\    /   O peration     | Version:  2.3.0                                 |
|   \\  /    A nd           | Web:      www.OpenFOAM.org                      |
|    \\/     M anipulation  |                                                 |
\*---------------------------------------------------------------------------*/
FoamFile
{
    version     2.0;
    format      ascii;
    class       volScalarField;
    location    "0.048";
    object      alpha.water;
}
// * * * * * * * * * * * * * * * * * * * * * * * * * * * * * * * * * * * * * //

dimensions      [0 0 0 0 0 0 0];

internalField   nonuniform List<scalar> 
725
(
1
1
1
1.00001
0.971166
1
1
1
1
0.982969
1
1
1
1.00009
0.995602
1
1
1
1.00004
1
1
1
1
1.00006
0.992599
0.904069
0.911442
0.98636
0.99991
0.886352
0.257442
0.00789683
0.00721431
0.240132
0.647932
0.998587
0.999962
0.999878
0.999901
0.99992
0.999935
0.999964
0.999983
1
1.00001
1.00001
1.00001
1.00001
1.00001
1.00001
1.00003
1.00002
1.00006
1.00002
0.994718
0.585561
0.0478092
0.00797111
0.0439823
0.18238
0.792604
1
1.00004
1.00003
1.00003
0.999971
0.999693
1
0.816494
0.0701824
0.91551
0.89408
0.980634
0.999947
0.884392
0.25963
0.00649409
0.00692152
0.00721322
0.778686
0.999967
0.999974
0.999972
0.999912
0.999875
0.999862
0.999869
0.999875
0.999875
0.999878
0.999886
0.999895
0.999904
0.999911
0.999923
0.999946
0.999957
1.00008
1.00003
0.990024
0.603319
0.0418349
0.00746367
0.0320688
0.225484
0.762576
1
1
0.999929
0.999872
0.999836
0.99977
1
0.924355
0.123872
0.884422
0.899982
0.993861
0.999963
0.896661
0.274086
0.00584057
0.00579546
0.025429
0.740159
0.999952
0.99996
0.999931
0.999954
0.999836
0.9998
0.99982
0.99983
0.999836
0.999841
0.999847
0.999852
0.999858
0.999865
0.999879
0.999904
0.999914
1
1.00001
0.977566
0.604505
0.052902
0.00673419
0.00722456
0.24528
0.767767
0.999995
0.999998
0.999914
0.999859
0.999796
0.999754
1
0.98629
0.276131
0.524808
0.846603
0.999973
0.999968
0.914408
0.290752
0.00571003
0.00563182
0.0168623
0.585637
0.999096
0.999946
0.999912
0.999857
0.999766
0.999714
0.999722
0.999786
0.999809
0.99988
0.999874
0.999862
0.999852
0.999848
0.999852
0.999876
0.999887
0.999998
1.00003
0.973824
0.577414
0.056423
0.00536013
0.00552527
0.219581
0.848104
0.999987
0.99999
0.999923
0.999877
0.999818
0.999768
0.999999
0.996904
0.283944
0.14492
0.880646
0.999973
0.999973
0.928644
0.29883
0.00697553
0.00519244
0.00987375
0.554143
0.994454
0.999978
0.99989
0.999863
0.998021
0.997861
0.999716
0.999674
0.999595
0.999599
0.99968
0.999745
0.99978
0.999797
0.999812
0.999842
0.99988
0.999888
1.00001
0.982006
0.584854
0.0453631
0.00468777
0.00407357
0.193443
0.948212
0.99994
0.999892
0.999926
0.999883
0.999828
0.999781
1
0.992092
0.29153
0.0614859
0.918497
0.999981
0.999942
0.928596
0.305734
0.00555643
0.00512759
0.0127332
0.511645
0.983074
0.999982
0.999853
1.00023
0.99379
0.991232
0.998361
0.999129
0.999212
0.999382
0.999592
0.999708
0.999759
0.999783
0.999802
0.999835
0.999876
0.999889
1.00017
0.980846
0.567874
0.0335859
0.00362682
0.00372485
0.199229
0.969126
0.999917
0.999906
0.999923
0.999882
0.999827
0.999776
1.00006
0.952478
0.161271
0.101508
0.865962
0.999921
0.999915
0.930875
0.306356
0.00511058
0.00508015
0.0121701
0.503398
0.982531
0.999976
0.999834
1.00019
0.993361
0.991227
0.997524
0.998382
0.998863
0.999223
0.999513
0.999667
0.999732
0.999762
0.999788
0.999825
0.999872
0.999895
0.99993
0.985889
0.577065
0.0173745
0.00310663
0.00283317
0.207006
0.974079
0.999851
0.999918
0.999943
0.999879
0.999823
0.99977
1.00006
0.937717
0.133192
0.168981
0.756611
0.999903
0.999888
0.933506
0.306904
0.00505976
0.00506175
0.00884953
0.490067
0.983524
0.999982
0.999835
0.997208
0.991235
0.991226
0.994355
0.998282
0.998875
0.999184
0.999335
0.999539
0.999674
0.999727
0.999766
0.999812
0.999866
0.999907
0.999918
0.985011
0.570632
0.0144756
0.00457194
0.00233945
0.212788
0.979174
1.0002
0.999937
0.999922
0.999873
0.999816
0.999764
1.00002
0.915996
0.107001
0.131789
0.853767
0.999895
0.99987
0.938489
0.306337
0.00506186
0.00503927
0.00778898
0.470904
0.984362
1.00003
0.999948
0.994957
0.991255
0.991388
0.996476
0.998901
0.999186
0.999191
0.999628
0.999773
0.999729
0.99973
0.999753
0.999798
0.999859
0.999915
0.999947
0.981286
0.5503
0.0163882
0.0138416
0.00176786
0.222443
0.983848
1.00025
0.999946
0.999925
0.999868
0.99981
0.999759
1.00002
0.897894
0.0919663
0.184751
0.766409
0.999885
0.999821
0.942288
0.305371
0.00503954
0.005036
0.00602242
0.451557
0.990292
1.00002
1.00002
0.99944
0.99288
0.994143
0.997913
0.9992
0.999388
0.999262
0.999423
0.999587
0.99967
0.999695
0.999729
0.999781
0.99985
0.999917
1.00022
0.982465
0.536154
0.0177685
0.017938
0.00153985
0.228765
0.987298
1.00036
0.999952
0.999927
0.999834
0.999795
0.999753
1.00004
0.883496
0.0756081
1
1
1
1.00008
0.969767
1
1
1
1.00016
0.989388
1
1
1
1
0.971697
1
1
1
1.00008
1
1
1
1
1.00002
0.98131
0.676418
0.923144
0.999844
0.999826
0.958851
0.301349
0.00501398
0.00501215
0.00500188
0.401666
0.995823
1
0.999916
0.999863
0.998618
0.997942
0.998899
0.999343
0.999468
0.999717
0.999658
0.999651
0.999659
0.999668
0.999687
0.999727
0.999792
0.999905
1.00009
0.992641
0.527937
0.0125917
0.00460921
0.00150991
0.238496
0.989532
1.00004
0.999926
0.999885
0.999938
0.999756
0.999745
1
0.863625
0.0649922
0.863112
0.867648
0.991973
0.999825
0.982124
0.30063
0.00501367
0.00500049
0.00499946
0.352154
0.999885
0.999866
0.999791
0.999762
0.999795
0.999509
0.999532
0.999555
0.999592
0.99963
0.999652
0.999667
0.999676
0.999683
0.999693
0.999714
0.999747
0.999858
1.00004
0.999999
0.50131
0.00243335
0.0015097
0.00150694
0.273061
0.995365
0.999926
0.999962
0.999837
0.999805
0.999781
0.999757
1
0.818966
0.0649951
0.83822
0.864946
0.994188
0.999831
0.999006
0.303076
0.00500568
0.0050003
0.00500008
0.335993
0.999885
0.999869
0.999733
0.999714
0.999705
0.99965
0.999649
0.999676
0.999707
0.999722
0.999725
0.999734
0.999747
0.999756
0.999756
0.999756
0.999762
0.999856
0.999957
1
0.504405
0.00150989
0.00150901
0.0015079
0.312757
0.997959
0.999842
0.999851
0.999816
0.999793
0.999768
0.999746
1
0.880024
0.0738061
0.843097
0.878315
0.983748
0.999835
0.999834
0.318016
0.00500341
0.00500016
0.00500006
0.334621
0.999885
0.999846
0.999756
0.999734
0.999713
0.999722
0.999751
0.999792
0.99982
0.999832
0.999837
0.999847
0.999855
0.999855
0.99984
0.999831
0.999824
0.999866
0.999948
1
0.479025
0.00150929
0.00150898
0.00150893
0.346053
0.999636
0.999921
0.99983
0.999806
0.9998
0.999796
0.999748
1
0.958484
0.20446
0.843367
0.880481
0.980896
0.999835
0.999834
0.324928
0.00500278
0.00500011
0.00500006
0.325493
0.999885
0.999852
0.999825
0.999839
0.999876
0.999912
1
1
0.999991
0.999985
0.999983
0.999989
1.00001
1.00002
1.00001
0.999976
0.99995
0.999951
0.999987
1
0.476502
0.00168341
0.00150924
0.00150897
0.362301
0.998675
0.999985
0.999929
0.999935
0.999941
0.999911
0.999654
1
0.984774
0.282635
)
;

boundaryField
{
    AirInlet
    {
        type            fixedValue;
        value           uniform 0;
    }
    WaterInlet
    {
        type            fixedValue;
        value           uniform 1;
    }
    ChannelWall
    {
        type            zeroGradient;
    }
    Outlet
    {
        type            inletOutlet;
        inletValue      uniform 0;
        value           nonuniform List<scalar> 
15
(
0.0701824
0.123872
0
0
0
0
0.133192
0
0
0
0.0649922
0.0649951
0.0738061
0
0
)
;
    }
    FrontAndBack
    {
        type            empty;
    }
}


// ************************************************************************* //
