/*--------------------------------*- C++ -*----------------------------------*\
| =========                 |                                                 |
| \\      /  F ield         | OpenFOAM: The Open Source CFD Toolbox           |
|  \\    /   O peration     | Version:  2.3.0                                 |
|   \\  /    A nd           | Web:      www.OpenFOAM.org                      |
|    \\/     M anipulation  |                                                 |
\*---------------------------------------------------------------------------*/
FoamFile
{
    version     2.0;
    format      ascii;
    class       volVectorField;
    location    "0.048";
    object      U;
}
// * * * * * * * * * * * * * * * * * * * * * * * * * * * * * * * * * * * * * //

dimensions      [0 1 -1 0 0 0 0];

internalField   nonuniform List<vector> 
725
(
(0.0466809 0.00717138 -2.4568e-31)
(0.053587 0.00161025 2.98538e-32)
(0.0234663 -0.000813052 2.96401e-32)
(0.0802426 -0.00919572 0)
(-0.0355562 0.000596693 6.37148e-32)
(0.0898721 0.0144343 -1.09133e-30)
(0.1086 0.00822514 -4.94289e-32)
(0.0603451 0.0030146 -3.92042e-31)
(0.111852 0.0172143 0)
(-0.200516 0.0199691 7.8659e-30)
(0.102479 0.0100457 -3.14588e-31)
(0.125406 0.0131372 -2.51206e-31)
(0.0801028 0.0123518 -1.57326e-30)
(0.132582 0.0674876 0)
(-0.114339 0.0535177 1.01323e-29)
(0.0908008 0.00336551 1.26629e-30)
(0.106931 0.014055 -5.41355e-31)
(0.0729334 0.0149787 -2.92283e-30)
(0.123848 0.0752053 0)
(0.0506415 0.111197 4.18958e-29)
(0.0470975 0.00173809 1.41253e-30)
(0.0515159 0.008967 -5.76197e-31)
(0.0364546 0.00869989 -1.06784e-30)
(0.0832135 0.0354239 -5.12403e-30)
(0.224668 0.110476 3.22308e-29)
(0.0809728 -0.0327407 0)
(0.284398 -0.00853333 0)
(0.151337 0.0182525 0)
(0.152291 -0.00207757 0)
(0.0730438 0.0242011 0)
(-0.0320198 0.00749174 0)
(-0.245348 0.155422 0)
(-2.71631 0.0090669 0)
(-0.120555 -0.48726 0)
(0.324145 0.0203638 0)
(0.0583404 0.00778679 0)
(0.07791 0.000442394 0)
(0.0386019 0.000950609 0)
(0.0250371 0.00245608 0)
(0.0136402 0.000237897 0)
(0.0233534 -0.00126462 0)
(0.0289074 0.000405122 0)
(0.0252756 0.000286667 0)
(0.0223676 0.00026054 0)
(0.0207658 0.00010175 0)
(0.0196388 0.000104039 0)
(0.0180474 0.000143031 0)
(0.0169351 6.81887e-05 0)
(0.0160533 7.46073e-05 0)
(0.0163704 1.76452e-05 0)
(0.0156629 8.79818e-05 0)
(0.0179277 -0.000165182 0)
(0.022893 -0.00109687 0)
(0.0363098 -0.00315913 0)
(0.0700911 -0.0102156 0)
(0.109151 0.0184559 0)
(-0.0955061 0.0456956 0)
(-0.652224 -0.0172774 0)
(0.221974 -0.0385575 0)
(0.168871 0.0696568 0)
(0.142371 0.00340479 0)
(0.11379 0.0204177 0)
(0.0201627 0.00396283 0)
(0.0176094 -0.00142191 0)
(-0.00799037 -0.00162822 0)
(0.043506 -0.00259198 0)
(-0.0143097 -0.0049941 0)
(0.157297 -0.0118272 0)
(0.0217154 -0.190277 0)
(1.37677 -0.151312 0)
(0.0326556 -0.157123 0)
(0.223422 0.0137175 0)
(0.0348297 0.0416544 0)
(0.116322 0.011814 0)
(0.0355442 0.0651001 0)
(-0.00201021 0.0596374 0)
(0.0103397 0.652208 0)
(-0.984656 0.61059 0)
(-0.22717 -1.29773 0)
(0.304013 -0.0277569 0)
(0.311016 0.0791333 0)
(0.178615 0.0304723 0)
(0.0920594 0.0167827 0)
(0.0563701 0.0141155 0)
(0.0381561 -0.000130241 0)
(0.0562957 -0.00789817 0)
(0.0678712 0.000508116 0)
(0.062229 0.00222026 0)
(0.0565692 0.00203846 0)
(0.0535435 0.0010867 0)
(0.0512109 0.00112705 0)
(0.0475914 0.00125054 0)
(0.0449178 0.000747385 0)
(0.042777 0.000293155 0)
(0.0435061 -0.000115074 0)
(0.0417932 -0.00079261 0)
(0.0469727 -0.00298238 0)
(0.0523195 -0.00869972 0)
(0.073109 -0.014167 0)
(0.0600943 -0.0203568 0)
(0.0958239 0.035861 0)
(0.158414 0.293209 0)
(-0.880855 -0.0828489 0)
(-0.230606 -0.520361 0)
(0.0698875 0.0305017 0)
(0.114223 -0.0235889 0)
(0.200008 0.0495975 0)
(0.126224 0.0349001 0)
(0.0755257 0.00887259 0)
(0.0172753 -0.00264496 0)
(0.0871955 -0.00446702 0)
(-0.017033 -0.0176832 0)
(0.194297 -0.0307306 0)
(0.00403155 -0.337827 0)
(0.0977329 -0.234366 0)
(0.11988 -0.31123 0)
(0.295705 0.0513633 0)
(0.0741655 0.0351597 0)
(0.174571 0.0149962 0)
(0.0905455 0.0912455 0)
(-0.0202859 0.0779076 0)
(-0.0212302 0.738911 0)
(-0.341512 0.405802 0)
(-0.286774 -1.29654 0)
(0.21176 -0.308686 0)
(0.358516 0.0981829 0)
(0.229875 0.0867162 0)
(0.12622 0.0432268 0)
(0.0799924 0.031448 0)
(0.0561123 -0.000591536 0)
(0.0742211 -0.0172212 0)
(0.0872595 0.000243837 0)
(0.0819474 0.00428736 0)
(0.077669 0.00430865 0)
(0.0755189 0.0023428 0)
(0.0736374 0.00260642 0)
(0.0695695 0.00302841 0)
(0.0661256 0.00202114 0)
(0.0630369 0.000892989 0)
(0.0632221 0.000160203 0)
(0.0595491 -0.001244 0)
(0.0623982 -0.00445313 0)
(0.0581409 -0.0133765 0)
(0.0666818 -0.01297 0)
(0.034056 -0.0126941 0)
(0.0430978 0.0201235 0)
(0.151168 0.304626 0)
(0.909892 0.340707 0)
(-0.200531 -0.479129 0)
(-0.00735945 -0.0016357 0)
(0.170299 -0.0815079 0)
(0.270389 0.0239751 0)
(0.210067 0.0693837 0)
(0.126699 0.0387369 0)
(0.0469422 0.00729627 0)
(0.111904 -0.00542575 0)
(-0.00781679 -0.0259927 0)
(0.137765 -0.0510961 0)
(-0.0419503 -0.229729 0)
(-0.556223 -0.0935463 0)
(-0.0147588 -0.386602 0)
(0.0988103 0.0743727 0)
(-0.0206472 0.0607142 0)
(0.0692116 0.0205372 0)
(0.0557568 0.134077 0)
(0.0464468 0.13605 0)
(-0.173859 0.65025 0)
(0.460816 0.482911 0)
(0.0989089 -1.28282 0)
(0.108897 -0.353884 0)
(0.210373 0.104451 0)
(0.210611 0.123494 0)
(0.141379 0.0680957 0)
(0.098335 0.0516795 0)
(0.0687995 0.00161434 0)
(0.0771093 -0.0257914 0)
(0.0846035 0.00037128 0)
(0.0817591 0.0048295 0)
(0.0845818 0.00539672 0)
(0.086024 0.00282084 0)
(0.0861878 0.0036538 0)
(0.0834904 0.00477066 0)
(0.0805188 0.00351764 0)
(0.0771876 0.00184831 0)
(0.0766867 0.00111383 0)
(0.0712801 -0.000140523 0)
(0.0692997 -0.00224091 0)
(0.0535928 -0.0103143 0)
(0.0418474 -0.00306638 0)
(0.0301658 -0.014321 0)
(0.0615207 -0.00601521 0)
(0.194205 -0.10971 0)
(1.77307 0.317681 0)
(-0.365045 0.023348 0)
(0.0615944 -0.239078 0)
(0.216457 -0.145686 0)
(0.278782 0.0171543 0)
(0.208016 0.106687 0)
(0.141273 0.0712765 0)
(0.0648836 0.0218998 0)
(0.124073 -0.00135954 0)
(-0.0057596 -0.0159917 0)
(0.0726064 -0.0292275 0)
(-0.148723 -0.0312403 0)
(-0.673856 -0.0428336 0)
(0.358209 -0.263894 0)
(0.014081 0.109731 0)
(-0.0273056 0.0495254 0)
(-0.0496127 -0.00535359 0)
(-0.0172296 0.0924693 0)
(0.178273 0.215394 0)
(-0.201507 0.475791 0)
(0.696096 0.418243 0)
(0.134567 -1.06772 0)
(0.12748 -0.39852 0)
(0.13552 0.0765815 0)
(0.175738 0.140164 0)
(0.135832 0.08267 0)
(0.108995 0.0727845 0)
(0.0791075 0.00818103 0)
(0.0638661 -0.0306998 0)
(0.0535054 0.00313365 0)
(0.0606088 0.00231661 0)
(0.0782178 0.00349353 0)
(0.0859526 0.00153391 0)
(0.0890269 0.0035176 0)
(0.0892104 0.00576287 0)
(0.088213 0.00473018 0)
(0.0855287 0.00287682 0)
(0.0849548 0.00253377 0)
(0.079196 0.00248642 0)
(0.0738308 0.00380325 0)
(0.0527728 -0.0016382 0)
(0.0292162 -0.00182217 0)
(0.0651497 -0.0375118 0)
(0.0868638 0.0188986 0)
(-0.051592 -0.489165 0)
(1.65927 -0.0156432 0)
(0.0303088 0.941903 0)
(0.096772 -0.526394 0)
(0.0738398 -0.165434 0)
(0.184147 0.0219399 0)
(0.138569 0.127127 0)
(0.126828 0.0886511 0)
(0.0704626 0.0340735 0)
(0.131567 0.00143147 0)
(0.00297804 0.000318278 0)
(0.112824 -0.00620044 0)
(-0.0814879 0.104579 0)
(-0.557935 0.0482216 0)
(0.376053 -0.231952 0)
(-0.0140134 0.136843 0)
(0.10197 0.0638242 0)
(-0.0261483 0.014229 0)
(-0.0809628 0.0596041 0)
(0.187955 0.227856 0)
(-0.0702327 0.394427 0)
(0.652328 0.395547 0)
(0.0405647 -1.0421 0)
(0.00899192 -0.404694 0)
(-0.0688557 0.0778355 0)
(0.134638 0.129461 0)
(0.113943 0.0856928 0)
(0.106835 0.0798288 0)
(0.0964798 0.0149988 0)
(0.0465597 -0.0215124 0)
(0.0104294 0.00524068 0)
(0.0385965 -0.00513111 0)
(0.0689131 -0.00177823 0)
(0.0812582 -0.000680402 0)
(0.0857345 0.00264256 0)
(0.0881276 0.00541274 0)
(0.0891349 0.00494479 0)
(0.0872085 0.00321923 0)
(0.0871118 0.00328001 0)
(0.0821859 0.00404385 0)
(0.0766978 0.00771521 0)
(0.0547394 0.00615364 0)
(0.0152297 -0.00220406 0)
(0.0220277 -0.0546145 0)
(0.0989546 0.0360751 0)
(0.636571 -0.575735 0)
(2.63975 -0.525458 0)
(0.816764 1.50642 0)
(0.0956848 -0.570228 0)
(-0.00299363 -0.161917 0)
(0.108144 0.0119014 0)
(0.0875298 0.128144 0)
(0.112709 0.0907026 0)
(0.0674449 0.0354738 0)
(0.133527 0.00493635 0)
(0.00372765 0.00641665 0)
(0.136825 0.00388261 0)
(-0.137046 0.211618 0)
(-0.390987 0.109882 0)
(0.481909 -0.270649 0)
(-0.0559185 0.162472 0)
(0.0544092 0.0631941 0)
(-0.0146874 0.0229054 0)
(-0.08464 0.0475133 0)
(0.197668 0.224626 0)
(0.0538163 0.367209 0)
(0.650414 0.403952 0)
(0.16711 -1.02311 0)
(-0.0326244 -0.377939 0)
(-0.13193 0.0699023 0)
(0.118644 0.119073 0)
(0.103126 0.0860778 0)
(0.115805 0.0802997 0)
(0.11645 0.0180311 0)
(0.0374142 -0.015735 0)
(-0.0101669 0.00557899 0)
(0.0308063 -0.0086246 0)
(0.0654422 -0.00406888 0)
(0.0793411 -0.00156647 0)
(0.0841829 0.00227095 0)
(0.0873686 0.00518863 0)
(0.0891702 0.00496627 0)
(0.0875403 0.00331009 0)
(0.0876426 0.00351705 0)
(0.0830818 0.00455745 0)
(0.0777994 0.00906892 0)
(0.0561547 0.00936716 0)
(0.0119917 0.00145037 0)
(-0.0777405 -0.0523029 0)
(-0.0357214 -0.00675782 0)
(0.675041 -0.613081 0)
(2.57795 -0.697084 0)
(1.18396 1.755 0)
(0.104144 -0.543485 0)
(-0.0250996 -0.160748 0)
(0.0814909 0.00759064 0)
(0.0689928 0.127038 0)
(0.10712 0.0906372 0)
(0.065817 0.0351614 0)
(0.134099 0.00673451 0)
(0.0041778 0.00753507 0)
(0.15118 0.00866268 0)
(-0.0985897 0.233343 0)
(0.0244143 0.116805 0)
(-0.379869 -0.246203 0)
(-0.292165 0.176943 0)
(-0.00546203 0.0506523 0)
(-0.00625144 0.0294454 0)
(-0.0820103 0.0353784 0)
(0.194307 0.217279 0)
(0.133891 0.344734 0)
(0.656412 0.42356 0)
(-0.0616056 -1.02145 0)
(-0.0541294 -0.346862 0)
(-0.14261 0.0601035 0)
(0.103677 0.106843 0)
(0.0919076 0.0855821 0)
(0.127474 0.0785238 0)
(0.134984 0.0223401 0)
(0.0335463 -0.00781703 0)
(-0.0212964 0.00564753 0)
(0.026424 -0.0128986 0)
(0.063193 -0.00654418 0)
(0.0774167 -0.00249854 0)
(0.0824912 0.00184675 0)
(0.0863986 0.00486719 0)
(0.088949 0.00494064 0)
(0.0876084 0.00337496 0)
(0.0879287 0.00372318 0)
(0.0837957 0.00503045 0)
(0.078969 0.0103624 0)
(0.0583226 0.0126957 0)
(0.0149564 0.00792349 0)
(-0.104967 -0.0412437 0)
(-0.0902869 -0.0639554 0)
(0.384838 -0.683697 0)
(1.26251 -0.832388 0)
(1.29119 1.93958 0)
(0.137261 -0.509885 0)
(-0.0282031 -0.157639 0)
(0.060359 0.00348173 0)
(0.0514871 0.125296 0)
(0.101581 0.0900191 0)
(0.0639976 0.0344144 0)
(0.134575 0.0086397 0)
(0.00489426 0.00792489 0)
(0.169634 0.0126906 0)
(-0.0901313 0.239115 0)
(0.120567 0.107083 0)
(-0.450227 -0.18248 0)
(-0.228403 0.147897 0)
(0.0937902 0.0363709 0)
(-0.00280853 0.0363368 0)
(-0.0834848 0.0247897 0)
(0.163531 0.207872 0)
(0.192135 0.322926 0)
(0.650227 0.454307 0)
(-0.57306 -1.00316 0)
(-0.0965801 -0.350863 0)
(-0.126621 0.0504689 0)
(0.0897496 0.0954821 0)
(0.0825002 0.0838382 0)
(0.136245 0.0748392 0)
(0.145644 0.0277599 0)
(0.0470174 0.000163987 0)
(0.000534013 0.00584108 0)
(0.0377492 -0.01679 0)
(0.0640933 -0.00880731 0)
(0.0775775 -0.00345035 0)
(0.0829447 0.00140004 0)
(0.0863611 0.00453717 0)
(0.0885605 0.00489662 0)
(0.0873944 0.00341619 0)
(0.0879588 0.00389463 0)
(0.0843122 0.00545379 0)
(0.0801602 0.0115629 0)
(0.0612224 0.0158745 0)
(0.0225074 0.0131236 0)
(0.00763103 -0.0382483 0)
(0.0638037 -0.103272 0)
(0.266106 -0.67067 0)
(0.0244491 -0.794214 0)
(1.22961 2.02895 0)
(0.153231 -0.477451 0)
(-0.0282645 -0.150129 0)
(0.0408375 5.43334e-05 0)
(0.0354886 0.122777 0)
(0.0960052 0.0886619 0)
(0.0618243 0.0333791 0)
(0.134818 0.0103862 0)
(0.00569253 0.00769851 0)
(0.185444 0.0156173 0)
(-0.0784475 0.243768 0)
(0.131691 0.0965938 0)
(0.390738 -0.179562 0)
(0.0295717 0.127497 0)
(0.113287 0.0327618 0)
(-0.00765876 0.0456189 0)
(-0.0806402 0.0163003 0)
(0.1304 0.19146 0)
(0.317634 0.299402 0)
(0.645377 0.492544 0)
(-0.796089 -0.949055 0)
(-0.127219 -0.399518 0)
(-0.0982967 0.0407526 0)
(0.0759054 0.086236 0)
(0.0706897 0.0813452 0)
(0.118694 0.071153 0)
(0.129423 0.0322393 0)
(0.0562449 0.00646858 0)
(0.019821 0.00614086 0)
(0.0478025 -0.0194047 0)
(0.0655938 -0.0106252 0)
(0.0775699 -0.00437153 0)
(0.0823735 0.00100801 0)
(0.0851491 0.00425988 0)
(0.0875199 0.00483103 0)
(0.0868539 0.00342816 0)
(0.0877319 0.00402478 0)
(0.0846114 0.00581659 0)
(0.0812715 0.0126391 0)
(0.06442 0.0187538 0)
(0.0298618 0.0154506 0)
(0.0584165 -0.0444405 0)
(0.1126 -0.127116 0)
(0.11034 -0.603589 0)
(-0.962739 -0.83252 0)
(0.438743 2.08143 0)
(0.077573 -0.452439 0)
(-0.0506087 -0.143294 0)
(0.0201876 -0.00337891 0)
(0.0213671 0.119515 0)
(0.0905143 0.0865684 0)
(0.0593709 0.0322212 0)
(0.134812 0.0117294 0)
(0.00655937 0.00716791 0)
(0.193097 0.01766 0)
(-0.0886172 0.249494 0)
(0.10646 0.0816248 0)
(0.0469695 -0.00161159 0)
(0.0486359 -0.00797777 1.12766e-31)
(0.0365565 -0.00606114 -5.71972e-31)
(0.00568861 -0.0140244 8.03069e-31)
(0.203665 -0.00840418 0)
(0.0908737 -0.00297773 0)
(0.104273 -0.0118169 0)
(0.0754885 -0.00751543 0)
(0.0591867 -0.0427786 1.35301e-30)
(0.0248524 0.0706254 0)
(0.102865 -0.00952632 0)
(0.123925 -0.0100377 0)
(0.0890603 -0.00102192 0)
(0.0730161 0.00933867 1.70958e-31)
(-0.168342 0.11717 0)
(0.0905678 -0.014091 0)
(0.109279 -0.00620808 0)
(0.0876183 0.00417855 0)
(0.106865 0.0382243 6.18679e-31)
(0.149539 0.108837 0)
(0.0472273 -0.00708392 0)
(0.0539889 -0.0013859 0)
(0.0433763 0.00158824 0)
(0.068554 0.00992117 2.05298e-31)
(0.200756 0.0250103 0)
(-0.363232 -0.068228 0)
(-0.395236 0.120064 0)
(-0.0575427 -0.00474854 0)
(-0.0396932 0.0686442 0)
(-0.0441965 0.00132788 0)
(0.0610711 0.0839332 0)
(0.513428 0.240446 0)
(0.631813 0.621758 0)
(-0.415463 -0.772448 0)
(-0.150947 -0.513805 0)
(-0.0442942 0.00579314 0)
(0.0356914 0.0700282 0)
(0.0376066 0.0747983 0)
(0.0789488 0.0640881 0)
(0.0996227 0.0376633 0)
(0.0763226 0.0186091 0)
(0.0621752 0.006859 0)
(0.0703432 -0.0229934 0)
(0.0703841 -0.01432 0)
(0.076151 -0.00652714 0)
(0.0792043 9.14677e-05 0)
(0.0814648 0.00357667 0)
(0.0840743 0.00450694 0)
(0.0846138 0.00336378 0)
(0.086366 0.00423709 0)
(0.0847691 0.0066345 0)
(0.0840632 0.0152402 0)
(0.0730287 0.0260035 0)
(0.0524689 0.0220294 0)
(0.00803281 -0.0490743 0)
(-0.0172616 -0.162753 0)
(0.391519 -0.569664 0)
(-0.55347 -1.39534 0)
(-0.607982 1.83822 0)
(-0.00250778 -0.426772 0)
(-0.0866524 -0.148174 0)
(-0.0334034 -0.0142489 0)
(-0.0118572 0.108108 0)
(0.0757256 0.0783477 0)
(0.0513267 0.0292546 0)
(0.133334 0.0131118 0)
(0.00886492 0.0041461 0)
(0.210582 0.0122613 0)
(-0.0526741 0.223691 0)
(0.704779 0.0853771 0)
(-0.0430222 0.037468 0)
(0.0789119 -0.0163203 0)
(0.102547 -0.0488756 0)
(0.0113081 0.047263 0)
(0.0609142 -0.0243784 0)
(0.0958623 -0.049541 0)
(0.313438 0.216151 0)
(0.576738 0.591867 0)
(0.610223 -0.480398 0)
(-0.0971259 -0.5105 0)
(-0.106572 -0.0271683 0)
(-0.0287246 0.0561714 0)
(0.000742378 0.0611973 0)
(0.0496182 0.0500913 0)
(0.0755968 0.0300497 0)
(0.0829611 0.0188175 0)
(0.0864962 0.00583888 0)
(0.0838865 -0.0175648 0)
(0.0722821 -0.0134116 0)
(0.069269 -0.00685715 0)
(0.0692384 -0.000517038 0)
(0.0712974 0.0025802 0)
(0.0744396 0.00332792 0)
(0.0760456 0.00270984 0)
(0.0787893 0.00365505 0)
(0.0793976 0.00644546 0)
(0.084107 0.0159493 0)
(0.0868768 0.0304498 0)
(0.09124 0.0391725 0)
(0.0266646 -0.0216089 0)
(-0.016315 -0.230529 0)
(0.175868 -0.542914 0)
(-0.467994 -0.0919308 0)
(-0.0122446 1.21627 0)
(0.125611 -0.329525 0)
(-0.0608115 -0.1297 0)
(-0.0788238 -0.0153921 0)
(-0.0449874 0.0794531 0)
(0.0551475 0.0561393 0)
(0.0357956 0.0238553 0)
(0.125797 0.00886171 0)
(0.00405334 0.00486424 0)
(0.21656 0.0091742 0)
(-0.0413504 -0.0451919 0)
(1.24113 -0.0954011 0)
(-0.0827458 -0.0774301 0)
(0.0714074 -0.00597325 0)
(0.0411864 0.0162864 0)
(0.0716874 0.0486373 0)
(0.131104 -0.0298936 0)
(0.0695287 -0.0718087 0)
(0.0844666 0.174897 0)
(0.603139 0.400321 0)
(0.616507 -0.316082 0)
(-0.0536739 -0.322847 0)
(-0.123805 -0.0364564 0)
(-0.0603676 0.028605 0)
(-0.0210002 0.0395283 0)
(0.0318002 0.0323381 0)
(0.0566797 0.020186 0)
(0.0747899 0.0137351 0)
(0.0847685 0.00391111 0)
(0.0797576 -0.0115421 0)
(0.0648843 -0.00943751 0)
(0.0571204 -0.00503393 0)
(0.055039 -0.000646897 0)
(0.0567817 0.00145436 0)
(0.0598856 0.0019642 0)
(0.061909 0.00165528 0)
(0.0651938 0.00242822 0)
(0.0671948 0.00463898 0)
(0.0757049 0.0121571 0)
(0.0902267 0.0249234 0)
(0.117778 0.0374279 0)
(0.113853 0.00682258 0)
(0.0691334 -0.163537 0)
(-0.312202 -0.504083 0)
(-0.785081 0.130001 0)
(0.195461 0.729047 0)
(0.124852 -0.175519 0)
(-0.051152 -0.0802491 0)
(-0.0922979 -0.0152783 0)
(-0.0581704 0.0457907 0)
(0.0391033 0.0331028 0)
(0.0203735 0.0148208 0)
(0.113177 0.00458754 0)
(-0.00354909 -0.000697258 0)
(0.218232 -0.00308721 0)
(-4.90421e-06 -0.336339 0)
(0.600732 -0.250523 0)
(0.238913 -0.0700576 0)
(0.10436 -0.0417435 0)
(0.0997555 -0.0308962 0)
(0.137642 0.0188374 0)
(0.164934 -0.00534798 0)
(0.0895092 -0.0601037 0)
(-0.0265515 0.0498878 0)
(0.588764 0.192064 0)
(0.611048 -0.163579 0)
(-0.00953477 -0.146907 0)
(-0.0932672 -0.0181972 0)
(-0.0663956 0.00682118 0)
(-0.0312843 0.0172373 0)
(0.0150665 0.0149225 0)
(0.036245 0.00993352 0)
(0.0560227 0.00697965 0)
(0.0662127 0.00179816 0)
(0.0611984 -0.00567164 0)
(0.0475686 -0.00452097 0)
(0.0394499 -0.00241579 0)
(0.0368474 -0.00040923 0)
(0.0379487 0.000508398 0)
(0.0402398 0.000743856 0)
(0.0417848 0.000589312 0)
(0.0444315 0.00101764 0)
(0.0465297 0.00213115 0)
(0.0553391 0.00603972 0)
(0.0729774 0.0131029 0)
(0.109083 0.0203185 0)
(0.139242 0.0117844 0)
(0.108373 -0.0593696 0)
(-0.235923 -0.336332 0)
(-0.951463 0.0662986 0)
(0.174747 0.351647 0)
(0.0742188 -0.0570398 0)
(-0.0384623 -0.0346621 0)
(-0.0736487 -0.0124034 0)
(-0.0519248 0.0168003 0)
(0.0278191 0.0131146 0)
(0.00725634 0.00507549 0)
(0.0888029 1.27629e-05 0)
(-0.02032 -0.00974933 0)
(0.134327 -0.0175135 0)
(-0.0867989 -0.218427 0)
(-0.770752 -0.0643938 0)
(0.238779 -0.0154363 0)
(0.120058 1.80739e-05 0)
(0.0865269 -0.00334665 0)
(0.0958458 0.00391522 0)
(0.115325 0.00634619 0)
(0.104318 -0.00724401 0)
(-0.0408405 0.0437617 0)
(0.327961 0.0416181 0)
(0.30565 -0.0406175 0)
(0.00174498 -0.0240358 0)
(-0.0365522 -0.00422395 0)
(-0.0375428 -0.00111746 0)
(-0.0222105 0.00185923 0)
(0.000785763 0.00217165 0)
(0.0131255 0.00166067 0)
(0.0249725 0.001124 0)
(0.0308055 0.00032235 0)
(0.0276448 -0.00109534 0)
(0.0200301 -0.000626033 0)
(0.0157808 -0.0003353 0)
(0.0142659 -7.26565e-05 0)
(0.0145668 3.0092e-05 0)
(0.0154487 8.6216e-05 0)
(0.0160273 4.07392e-05 0)
(0.0171202 0.000152088 0)
(0.0182053 0.000275185 0)
(0.0229146 0.000904722 0)
(0.0335454 0.00210235 0)
(0.057521 0.00401137 0)
(0.0852148 0.00747608 0)
(0.0816237 0.00255043 0)
(-0.045663 -0.0373731 0)
(-0.583522 -0.00754829 0)
(0.0779091 0.061356 0)
(0.0566786 -0.00345452 0)
(0.0126529 -0.00740747 0)
(-0.0156349 -0.00552114 0)
(-0.0202579 0.000296458 0)
(0.0181086 0.00108955 0)
(2.45126e-05 -0.00103525 0)
(0.0434002 -0.000542472 0)
(-0.026234 -0.00846619 0)
(0.0133927 -0.00868483 0)
(-0.0722225 -0.0227859 0)
(-0.424095 -0.0371091 0)
)
;

boundaryField
{
    AirInlet
    {
        type            fixedValue;
        value           uniform (0.1 0 0);
    }
    WaterInlet
    {
        type            fixedValue;
        value           uniform (0.1 0 0);
    }
    ChannelWall
    {
        type            fixedValue;
        value           uniform (0 0 0);
    }
    Outlet
    {
        type            pressureInletOutletVelocity;
        value           nonuniform List<vector> 
15
(
(1.37677 -0.151312 0)
(0.0977329 -0.234366 0)
(-0.535847 -0 0)
(-0.661875 -0 0)
(-0.550208 0 0)
(-0.317749 0 0)
(-0.0821443 0 0)
(0.120567 0.107083 0)
(0.131691 0.0965938 0)
(0.10646 0.0816248 0)
(0.704779 0.0853771 0)
(1.24113 -0.0954011 0)
(0.600732 -0.250523 0)
(-0.745278 -0 0)
(-0.412272 -0 0)
)
;
    }
    FrontAndBack
    {
        type            empty;
    }
}


// ************************************************************************* //
