/*--------------------------------*- C++ -*----------------------------------*\
| =========                 |                                                 |
| \\      /  F ield         | OpenFOAM: The Open Source CFD Toolbox           |
|  \\    /   O peration     | Version:  2.3.0                                 |
|   \\  /    A nd           | Web:      www.OpenFOAM.org                      |
|    \\/     M anipulation  |                                                 |
\*---------------------------------------------------------------------------*/
FoamFile
{
    version     2.0;
    format      ascii;
    class       volScalarField;
    location    "0.07";
    object      T;
}
// * * * * * * * * * * * * * * * * * * * * * * * * * * * * * * * * * * * * * //

dimensions      [0 0 0 1 0 0 0];

internalField   nonuniform List<scalar> 
12225
(
1.00702
1.00235
1.00097
1.00057
1.00029
1.0001
1.00001
0.999957
0.999926
0.999905
0.999885
0.999852
0.999779
0.999598
0.999148
0.99804
0.995259
0.988222
0.99388
0.995662
0.997505
0.998595
0.999122
0.9994
0.999575
0.999689
0.999763
0.999809
0.999833
0.999831
0.999779
0.999617
0.999193
0.99814
0.99557
0.989319
1.00047
1.00054
1.00043
1.00038
1.00027
1.00015
1.00007
1.00002
0.999985
0.999959
0.999935
0.9999
0.999828
0.99966
0.999254
0.998289
0.996052
0.991099
1.00033
0.999923
0.999616
0.999668
0.999738
0.999771
0.999797
0.999821
0.99984
0.999853
0.999857
0.999844
0.999791
0.999646
0.99929
0.998454
0.996605
0.992818
1.00018
1
0.999776
0.999808
0.999867
0.999886
0.999893
0.999898
0.999901
0.999901
0.999896
0.999876
0.999823
0.999691
0.999379
0.998679
0.997209
0.994412
1.00003
0.999994
0.999833
0.999822
0.999856
0.999871
0.999878
0.999884
0.999889
0.999891
0.999888
0.999873
0.999828
0.999716
0.999457
0.998896
0.997774
0.995765
1.00001
1.00003
0.999913
0.999874
0.999883
0.999891
0.999895
0.999898
0.999901
0.999903
0.999899
0.999885
0.999847
0.999753
0.999545
0.999113
0.998288
0.99688
1
1.00003
0.999948
0.999903
0.9999
0.999903
0.999904
0.999906
0.999908
0.999909
0.999905
0.999893
0.999861
0.999784
0.999616
0.99928
0.998657
0.997628
1
1.00003
0.99997
0.999929
0.999919
0.999917
0.999916
0.999916
0.999917
0.999917
0.999913
0.999902
0.999875
0.999811
0.999677
0.999414
0.998941
0.998178
0.999998
1.00002
0.999986
0.999952
0.999938
0.999932
0.999929
0.999927
0.999927
0.999926
0.999921
0.999912
0.99989
0.99984
0.999737
0.999541
0.999197
0.998655
0.999998
1.00002
0.999996
0.99997
0.999956
0.999948
0.999943
0.99994
0.999938
0.999936
0.999931
0.999923
0.999907
0.999869
0.999794
0.999654
0.999417
0.99905
0.999998
1.00001
1
0.999983
0.999972
0.999964
0.999958
0.999954
0.99995
0.999947
0.999944
0.999937
0.999924
0.999897
0.999845
0.999752
0.999596
0.999362
0.999998
1.00001
1.00001
0.999993
0.999984
0.999977
0.999972
0.999967
0.999962
0.99996
0.999956
0.99995
0.999941
0.999923
0.999889
0.99983
0.999734
0.999594
0.999998
1.00001
1.00001
1
0.999993
0.999986
0.999982
0.999979
0.999975
0.999971
0.999968
0.999964
0.999957
0.999945
0.999924
0.99989
0.999836
0.999758
0.999998
1.00001
1.00001
1
0.999998
0.999995
0.999991
0.999988
0.999985
0.999982
0.99998
0.999976
0.999971
0.999963
0.99995
0.999932
0.999903
0.999864
0.999999
1.00001
1.00001
1
1
1
0.999997
0.999994
0.999992
0.999989
0.999988
0.999987
0.999983
0.999978
0.99997
0.99996
0.999946
0.999929
0.999998
1.00001
1.00001
1
1
1
1
0.999999
0.999997
0.999996
0.999994
0.999992
0.99999
0.999988
0.999984
0.999978
0.99997
0.999962
0.999999
1
1.00001
1.00001
1.00001
1.00001
1
0.999999
0.999998
0.999998
0.999997
0.999996
0.999994
0.99999
0.999986
0.999983
0.999979
0.999978
0.999999
1.00001
1.00001
1.00001
1.00001
1.00001
1
0.999999
0.999996
0.999995
0.999993
0.999991
0.999989
0.999988
0.999986
0.999983
0.99998
0.99998
0.999998
1.00001
1.00001
1.00001
1
1
1
0.999996
0.999992
0.999989
0.999988
0.999986
0.999984
0.999983
0.999981
0.999978
0.999976
0.999978
0.999997
1.00001
1.00001
1.00001
1
0.999995
0.999992
0.999987
0.999983
0.99998
0.999977
0.999975
0.999973
0.999972
0.999971
0.999969
0.999967
0.999968
0.999997
1.00001
1.00002
1.00001
0.999995
0.999987
0.999982
0.999976
0.999973
0.99997
0.999967
0.999966
0.999966
0.999964
0.999963
0.999962
0.99996
0.999961
0.999996
1.00003
1.00002
0.999994
0.999975
0.999966
0.999959
0.999954
0.999952
0.99995
0.999949
0.999948
0.999948
0.999949
0.999948
0.999948
0.999948
0.999949
0.999994
1.00005
1.00003
0.999984
0.999963
0.999957
0.999953
0.99995
0.999949
0.999948
0.999947
0.999947
0.999948
0.999948
0.999948
0.999948
0.999948
0.999949
0.999986
1.00005
0.999974
0.999913
0.9999
0.9999
0.9999
0.999902
0.999905
0.999908
0.999911
0.999914
0.999918
0.999921
0.999925
0.999927
0.999928
0.999931
1.00011
1.00014
0.999977
0.99993
0.999954
0.99997
0.999971
0.999969
0.999965
0.999962
0.999959
0.999954
0.999952
0.99995
0.999949
0.999948
0.999947
0.999947
1.00029
1.00004
0.999634
0.999556
0.999609
0.999662
0.999706
0.999746
0.999781
0.999809
0.999832
0.99985
0.999865
0.999878
0.999888
0.999897
0.999905
0.999908
1.00089
1.00118
1.00097
1.00079
1.00062
1.00045
1.00031
1.00022
1.00015
1.0001
1.00006
1.00003
1.00001
0.999992
0.999981
0.999974
0.99997
0.999957
0.993498
0.994872
0.996789
0.998012
0.998681
0.999064
0.999313
0.999485
0.999605
0.99969
0.99975
0.999794
0.999827
0.999852
0.999872
0.999888
0.999905
0.999901
1.00657
1.00291
1.00132
1.00082
1.00049
1.00027
1.00014
1.00007
1.00002
0.99999
0.999968
0.999954
0.999944
0.999937
0.999933
0.999931
0.999938
0.999912
0.657609
0.657593
0.657521
0.657426
0.657317
0.657185
0.657033
0.656862
0.656667
0.656455
0.656229
0.655986
0.655728
0.655457
0.655172
0.654876
0.654571
0.654257
0.653937
0.653613
0.653285
0.652958
0.652631
0.652308
0.65199
0.65168
0.651379
0.65109
0.650814
0.650553
0.65031
0.650087
0.649885
0.649706
0.649552
0.649425
0.649326
0.649257
0.649219
0.649213
0.649241
0.649304
0.649403
0.649538
0.649711
0.649922
0.65017
0.650457
0.650784
0.651149
0.651553
0.651995
0.652476
0.652994
0.653549
0.65414
0.654766
0.655426
0.65612
0.656846
0.657602
0.658388
0.659202
0.660042
0.660908
0.661797
0.662709
0.663641
0.664593
0.665562
0.666547
0.667547
0.66856
0.669584
0.670619
0.671663
0.672714
0.673772
0.674834
0.6759
0.676969
0.678039
0.679109
0.680178
0.681245
0.68231
0.683369
0.684424
0.685473
0.686514
0.687548
0.688573
0.689589
0.690594
0.691587
0.692569
0.693538
0.694495
0.695438
0.696366
0.697279
0.698178
0.699061
0.699928
0.70078
0.701614
0.702432
0.703233
0.704017
0.704784
0.705534
0.706265
0.706979
0.707675
0.708352
0.709011
0.709651
0.710272
0.710874
0.711456
0.712018
0.712561
0.713082
0.713584
0.714064
0.714523
0.714961
0.715377
0.71577
0.716141
0.71649
0.716815
0.717116
0.717394
0.717648
0.717877
0.718081
0.71826
0.718413
0.718541
0.718642
0.718716
0.718764
0.718784
0.718776
0.718741
0.718677
0.718584
0.718463
0.718312
0.718132
0.717922
0.717683
0.717412
0.717112
0.716782
0.716419
0.716028
0.715603
0.71515
0.714661
0.714142
0.7136
0.712997
0.712362
0.711696
0.710975
0.710225
0.709447
0.708639
0.707802
0.706936
0.706041
0.705118
0.70417
0.703195
0.702223
0.701177
0.700413
0.698358
0.658556
0.658524
0.658478
0.65841
0.658318
0.658204
0.658069
0.657911
0.657729
0.657523
0.657296
0.657052
0.65679
0.656513
0.656223
0.655921
0.655609
0.65529
0.654963
0.654633
0.6543
0.653966
0.653634
0.653305
0.652982
0.652666
0.65236
0.652066
0.651785
0.65152
0.651272
0.651044
0.650837
0.650654
0.650495
0.650363
0.650259
0.650184
0.650141
0.65013
0.650153
0.650211
0.650304
0.650433
0.6506
0.650805
0.651048
0.651329
0.65165
0.652008
0.652406
0.652842
0.653315
0.653827
0.654375
0.654959
0.655578
0.656231
0.656918
0.657636
0.658386
0.659164
0.659971
0.660805
0.661663
0.662545
0.66345
0.664375
0.66532
0.666282
0.66726
0.668253
0.66926
0.670277
0.671306
0.672343
0.673388
0.67444
0.675496
0.676556
0.677619
0.678683
0.679747
0.680811
0.681873
0.682931
0.683986
0.685035
0.686078
0.687114
0.688143
0.689163
0.690173
0.691173
0.692161
0.693138
0.694102
0.695053
0.695991
0.696914
0.697822
0.698715
0.699593
0.700455
0.701301
0.702131
0.702944
0.70374
0.704519
0.70528
0.706025
0.706751
0.707459
0.708149
0.708821
0.709474
0.710108
0.710724
0.711319
0.711895
0.712452
0.712987
0.713503
0.713998
0.714472
0.714924
0.715355
0.715764
0.71615
0.716514
0.716856
0.717173
0.717467
0.717738
0.717984
0.718205
0.718401
0.718572
0.718718
0.718837
0.71893
0.718997
0.719036
0.719047
0.719031
0.718987
0.718914
0.718812
0.718682
0.718522
0.718332
0.718113
0.717863
0.717583
0.717272
0.716931
0.716557
0.716154
0.715717
0.71525
0.714748
0.714215
0.713658
0.713052
0.712423
0.711772
0.711079
0.710353
0.709597
0.708809
0.707992
0.707143
0.706266
0.70536
0.704429
0.703474
0.702518
0.70151
0.700694
0.699092
0.660485
0.660406
0.660338
0.660259
0.660159
0.660035
0.659886
0.659713
0.659517
0.659299
0.659062
0.658807
0.658536
0.65825
0.657951
0.65764
0.657321
0.656993
0.65666
0.656323
0.655984
0.655644
0.655306
0.654972
0.654643
0.654322
0.654011
0.653711
0.653425
0.653154
0.6529
0.652666
0.652453
0.652263
0.652097
0.651958
0.651846
0.651764
0.651713
0.651693
0.651707
0.651756
0.651839
0.651959
0.652116
0.65231
0.652543
0.652813
0.653122
0.65347
0.653856
0.654279
0.654741
0.655241
0.655777
0.656348
0.656955
0.657597
0.658271
0.658977
0.659714
0.660481
0.661276
0.662098
0.662945
0.663816
0.664709
0.665624
0.666558
0.667509
0.668478
0.669462
0.670459
0.671468
0.672488
0.673517
0.674555
0.675599
0.676649
0.677704
0.678761
0.67982
0.68088
0.681939
0.682998
0.684054
0.685106
0.686153
0.687195
0.688231
0.68926
0.69028
0.691291
0.692292
0.693282
0.694261
0.695228
0.696182
0.697122
0.698049
0.698961
0.699858
0.70074
0.701607
0.702457
0.703291
0.704109
0.70491
0.705694
0.706461
0.70721
0.707941
0.708655
0.70935
0.710027
0.710685
0.711324
0.711945
0.712545
0.713126
0.713687
0.714228
0.714748
0.715247
0.715725
0.716181
0.716616
0.717029
0.717419
0.717786
0.71813
0.718451
0.718748
0.71902
0.719268
0.719491
0.719689
0.719861
0.720008
0.720128
0.720221
0.720287
0.720326
0.720337
0.72032
0.720274
0.7202
0.720096
0.719963
0.719801
0.719608
0.719385
0.719132
0.718848
0.718533
0.718187
0.717808
0.717399
0.716956
0.716484
0.715979
0.715441
0.714875
0.714269
0.713638
0.712985
0.712294
0.711572
0.710818
0.710032
0.709216
0.708368
0.707491
0.706585
0.705654
0.704696
0.703734
0.702722
0.70185
0.700486
0.663334
0.663218
0.663128
0.663036
0.662921
0.66278
0.662613
0.662423
0.662212
0.66198
0.66173
0.661462
0.661178
0.660881
0.66057
0.660249
0.659919
0.659581
0.659238
0.658891
0.658542
0.658193
0.657845
0.657502
0.657164
0.656833
0.656512
0.656203
0.655906
0.655625
0.655362
0.655117
0.654893
0.654691
0.654514
0.654362
0.654238
0.654143
0.654078
0.654045
0.654045
0.654078
0.654147
0.654251
0.654392
0.65457
0.654785
0.655038
0.65533
0.655659
0.656027
0.656433
0.656876
0.657357
0.657874
0.658427
0.659015
0.659637
0.660292
0.66098
0.661699
0.662447
0.663223
0.664027
0.664857
0.66571
0.666587
0.667484
0.668402
0.669338
0.670292
0.671261
0.672244
0.67324
0.674247
0.675264
0.67629
0.677324
0.678364
0.679409
0.680458
0.681509
0.682563
0.683616
0.68467
0.685722
0.686771
0.687816
0.688857
0.689892
0.690921
0.691943
0.692956
0.69396
0.694954
0.695937
0.696909
0.697868
0.698815
0.699748
0.700667
0.701572
0.702462
0.703337
0.704196
0.705039
0.705866
0.706677
0.70747
0.708246
0.709005
0.709747
0.710471
0.711176
0.711863
0.712532
0.713181
0.713812
0.714423
0.715014
0.715585
0.716135
0.716665
0.717174
0.717661
0.718127
0.718571
0.718992
0.719391
0.719767
0.720119
0.720447
0.720751
0.72103
0.721285
0.721514
0.721718
0.721895
0.722047
0.722171
0.722269
0.722338
0.72238
0.722394
0.722379
0.722336
0.722263
0.72216
0.722028
0.721865
0.721672
0.721449
0.721195
0.720908
0.720591
0.720242
0.719861
0.71945
0.719005
0.718528
0.718019
0.717478
0.716906
0.716299
0.715663
0.715001
0.714305
0.713577
0.712817
0.712025
0.711203
0.710349
0.709466
0.708553
0.707613
0.706645
0.705666
0.704638
0.703723
0.702468
0.667096
0.666956
0.666851
0.666745
0.666616
0.666459
0.666276
0.66607
0.665842
0.665594
0.665327
0.665043
0.664744
0.664431
0.664106
0.66377
0.663426
0.663074
0.662717
0.662357
0.661995
0.661633
0.661272
0.660916
0.660565
0.660221
0.659887
0.659565
0.659255
0.65896
0.658682
0.658423
0.658184
0.657967
0.657774
0.657606
0.657465
0.657353
0.65727
0.657218
0.657199
0.657213
0.657261
0.657345
0.657464
0.65762
0.657813
0.658044
0.658312
0.658618
0.658962
0.659344
0.659763
0.660219
0.660711
0.661239
0.661802
0.6624
0.66303
0.663693
0.664387
0.665111
0.665863
0.666643
0.667449
0.66828
0.669134
0.670009
0.670906
0.671821
0.672754
0.673703
0.674667
0.675645
0.676634
0.677635
0.678646
0.679665
0.680691
0.681723
0.68276
0.683801
0.684845
0.68589
0.686936
0.687981
0.689025
0.690067
0.691105
0.692138
0.693167
0.694189
0.695203
0.69621
0.697208
0.698195
0.699172
0.700138
0.701091
0.702032
0.70296
0.703873
0.704772
0.705657
0.706526
0.70738
0.708217
0.709039
0.709844
0.710632
0.711403
0.712156
0.712892
0.71361
0.714309
0.71499
0.715652
0.716295
0.716919
0.717522
0.718105
0.718668
0.71921
0.71973
0.720229
0.720707
0.721161
0.721593
0.722003
0.722388
0.72275
0.723088
0.723401
0.723689
0.723951
0.724188
0.724399
0.724583
0.724741
0.724871
0.724973
0.725048
0.725094
0.725111
0.725099
0.725058
0.724987
0.724885
0.724753
0.724591
0.724398
0.724173
0.723918
0.723629
0.72331
0.722959
0.722575
0.722159
0.72171
0.721229
0.720715
0.720168
0.71959
0.718978
0.718336
0.717665
0.71696
0.716224
0.715457
0.714657
0.713827
0.712965
0.712073
0.71115
0.710199
0.709219
0.708224
0.707178
0.706235
0.705011
0.671799
0.671647
0.671528
0.671409
0.671266
0.671093
0.670894
0.67067
0.670424
0.670158
0.669873
0.669571
0.669254
0.668923
0.66858
0.668227
0.667865
0.667496
0.667123
0.666745
0.666367
0.665988
0.665612
0.665239
0.664871
0.664511
0.664161
0.663821
0.663494
0.663182
0.662886
0.662608
0.66235
0.662114
0.661901
0.661713
0.661551
0.661416
0.661311
0.661236
0.661193
0.661183
0.661206
0.661264
0.661357
0.661486
0.661652
0.661854
0.662094
0.662371
0.662686
0.663038
0.663427
0.663852
0.664314
0.664812
0.665344
0.665911
0.666511
0.667143
0.667806
0.6685
0.669223
0.669973
0.67075
0.671551
0.672377
0.673225
0.674094
0.674983
0.67589
0.676814
0.677754
0.678709
0.679676
0.680656
0.681646
0.682645
0.683653
0.684668
0.68569
0.686716
0.687746
0.688779
0.689815
0.690851
0.691887
0.692921
0.693954
0.694984
0.69601
0.69703
0.698045
0.699053
0.700053
0.701044
0.702026
0.702997
0.703956
0.704904
0.70584
0.706762
0.70767
0.708564
0.709444
0.710308
0.711157
0.71199
0.712807
0.713607
0.714391
0.715157
0.715906
0.716637
0.71735
0.718044
0.71872
0.719376
0.720013
0.72063
0.721226
0.721802
0.722357
0.722891
0.723403
0.723892
0.724359
0.724803
0.725223
0.72562
0.725993
0.726341
0.726663
0.726961
0.727232
0.727477
0.727696
0.727887
0.728051
0.728187
0.728295
0.728375
0.728425
0.728445
0.728436
0.728397
0.728328
0.728227
0.728096
0.727934
0.727739
0.727512
0.727255
0.726965
0.726642
0.726287
0.725898
0.725477
0.725023
0.724536
0.724016
0.723463
0.722877
0.722258
0.721608
0.720928
0.720215
0.71947
0.718693
0.717884
0.717044
0.716173
0.715271
0.714338
0.713375
0.712381
0.711369
0.710306
0.709339
0.708108
0.677473
0.677315
0.677187
0.677056
0.676898
0.676709
0.676492
0.67625
0.675986
0.6757
0.675395
0.675073
0.674735
0.674383
0.67402
0.673647
0.673265
0.672876
0.672482
0.672085
0.671687
0.671288
0.670892
0.670499
0.670111
0.669731
0.66936
0.669
0.668652
0.668318
0.668
0.6677
0.667419
0.667159
0.666922
0.666709
0.666522
0.666361
0.666229
0.666127
0.666055
0.666016
0.666009
0.666036
0.666098
0.666196
0.666329
0.666498
0.666704
0.666947
0.667227
0.667544
0.667898
0.668287
0.668713
0.669174
0.669671
0.670201
0.670764
0.67136
0.671987
0.672645
0.673331
0.674046
0.674788
0.675555
0.676346
0.677161
0.677997
0.678854
0.67973
0.680623
0.681534
0.682459
0.683399
0.684352
0.685316
0.686291
0.687276
0.688269
0.68927
0.690277
0.691289
0.692306
0.693327
0.694349
0.695374
0.696398
0.697422
0.698445
0.699465
0.700482
0.701494
0.7025
0.7035
0.704493
0.705477
0.706451
0.707416
0.70837
0.709311
0.710241
0.711157
0.71206
0.712949
0.713823
0.714683
0.715527
0.716355
0.717167
0.717963
0.718742
0.719503
0.720247
0.720974
0.721681
0.72237
0.72304
0.723691
0.724321
0.724932
0.725521
0.726089
0.726636
0.727161
0.727663
0.728142
0.728598
0.729031
0.729439
0.729822
0.730181
0.730514
0.730821
0.731101
0.731355
0.731581
0.73178
0.731951
0.732093
0.732206
0.73229
0.732345
0.732368
0.732362
0.732325
0.732257
0.732156
0.732025
0.731863
0.731667
0.731438
0.731178
0.730884
0.730557
0.730197
0.729803
0.729376
0.728916
0.728422
0.727894
0.727333
0.72674
0.726112
0.725453
0.724763
0.72404
0.723285
0.722498
0.721679
0.720829
0.719947
0.719033
0.718088
0.717113
0.716105
0.715077
0.713995
0.713006
0.71175
0.684169
0.684008
0.683869
0.683724
0.68355
0.683344
0.683108
0.682847
0.682562
0.682254
0.681927
0.681583
0.681222
0.680848
0.680462
0.680065
0.679659
0.679247
0.67883
0.67841
0.677988
0.677566
0.677146
0.676729
0.676318
0.675914
0.675518
0.675133
0.67476
0.674401
0.674057
0.67373
0.673423
0.673135
0.67287
0.672628
0.67241
0.67222
0.672056
0.671922
0.671818
0.671744
0.671703
0.671696
0.671722
0.671782
0.671878
0.672009
0.672177
0.672381
0.672621
0.672897
0.67321
0.673558
0.673942
0.674362
0.674816
0.675304
0.675825
0.676379
0.676964
0.677579
0.678224
0.678898
0.679598
0.680325
0.681076
0.681851
0.682648
0.683466
0.684305
0.685162
0.686036
0.686927
0.687833
0.688753
0.689686
0.690631
0.691587
0.692552
0.693527
0.694509
0.695499
0.696494
0.697494
0.698498
0.699506
0.700516
0.701527
0.702538
0.703548
0.704556
0.705562
0.706563
0.70756
0.70855
0.709533
0.710508
0.711474
0.712431
0.713377
0.714311
0.715233
0.716142
0.717038
0.71792
0.718788
0.719641
0.720479
0.721302
0.722108
0.722898
0.723671
0.724427
0.725165
0.725885
0.726587
0.72727
0.727933
0.728576
0.729199
0.729801
0.730382
0.730942
0.731479
0.731993
0.732485
0.732953
0.733396
0.733816
0.73421
0.734578
0.734921
0.735237
0.735527
0.735789
0.736023
0.736229
0.736406
0.736554
0.736672
0.73676
0.736818
0.736845
0.736841
0.736806
0.736739
0.736639
0.736507
0.736343
0.736145
0.735914
0.73565
0.735352
0.73502
0.734654
0.734255
0.733821
0.733353
0.732851
0.732316
0.731746
0.731143
0.730507
0.729838
0.729136
0.728402
0.727636
0.726838
0.726008
0.725146
0.724253
0.723328
0.72237
0.721382
0.720359
0.719315
0.718215
0.717204
0.715917
0.691932
0.691767
0.691617
0.691455
0.691263
0.691038
0.690783
0.6905
0.690192
0.689862
0.689511
0.689141
0.688755
0.688355
0.687942
0.687519
0.687087
0.686648
0.686204
0.685756
0.685307
0.684858
0.68441
0.683966
0.683527
0.683094
0.68267
0.682256
0.681854
0.681465
0.681092
0.680734
0.680395
0.680076
0.679778
0.679503
0.679252
0.679026
0.678827
0.678656
0.678515
0.678404
0.678324
0.678276
0.678262
0.678281
0.678335
0.678423
0.678547
0.678707
0.678902
0.679132
0.679399
0.679701
0.680038
0.68041
0.680817
0.681257
0.68173
0.682236
0.682773
0.68334
0.683937
0.684563
0.685216
0.685895
0.6866
0.687329
0.688081
0.688854
0.689649
0.690463
0.691295
0.692144
0.69301
0.693891
0.694786
0.695694
0.696614
0.697546
0.698488
0.699439
0.700399
0.701366
0.70234
0.70332
0.704304
0.705293
0.706285
0.707279
0.708274
0.709269
0.710262
0.711254
0.712242
0.713225
0.714203
0.715173
0.716137
0.717092
0.718037
0.718972
0.719895
0.720807
0.721707
0.722593
0.723466
0.724326
0.72517
0.726
0.726814
0.727613
0.728395
0.72916
0.729908
0.730638
0.73135
0.732043
0.732717
0.733371
0.734005
0.734618
0.73521
0.735781
0.736329
0.736854
0.737356
0.737834
0.738288
0.738717
0.739121
0.739499
0.739851
0.740175
0.740472
0.740742
0.740983
0.741195
0.741377
0.74153
0.741653
0.741746
0.741807
0.741836
0.741834
0.7418
0.741733
0.741632
0.741499
0.741333
0.741132
0.740898
0.74063
0.740327
0.73999
0.739618
0.739212
0.738771
0.738295
0.737785
0.73724
0.736661
0.736048
0.735401
0.734722
0.734009
0.733264
0.732486
0.731676
0.730834
0.72996
0.729055
0.728117
0.727147
0.726145
0.725108
0.724048
0.722931
0.721899
0.720581
0.700812
0.700642
0.700478
0.700298
0.700087
0.69984
0.699563
0.699256
0.698923
0.698566
0.698188
0.697791
0.697376
0.696947
0.696504
0.696051
0.695588
0.695118
0.694643
0.694164
0.693683
0.693202
0.692723
0.692247
0.691775
0.69131
0.690854
0.690407
0.689971
0.689548
0.68914
0.688748
0.688374
0.688019
0.687684
0.687371
0.687082
0.686817
0.686578
0.686367
0.686184
0.686031
0.685907
0.685816
0.685756
0.68573
0.685737
0.685777
0.685853
0.685963
0.686108
0.686289
0.686504
0.686754
0.687039
0.687358
0.687711
0.688098
0.688517
0.688969
0.689451
0.689965
0.690507
0.691079
0.691678
0.692304
0.692955
0.693631
0.694331
0.695053
0.695796
0.69656
0.697342
0.698143
0.698961
0.699796
0.700645
0.701509
0.702387
0.703277
0.704178
0.705091
0.706014
0.706946
0.707886
0.708835
0.70979
0.71075
0.711716
0.712686
0.713658
0.714633
0.715608
0.716583
0.717556
0.718526
0.719491
0.720452
0.721407
0.722354
0.723293
0.724223
0.725143
0.726052
0.72695
0.727836
0.728709
0.72957
0.730416
0.731249
0.732067
0.732869
0.733656
0.734427
0.735181
0.735918
0.736636
0.737337
0.738018
0.73868
0.739322
0.739944
0.740544
0.741123
0.741679
0.742213
0.742723
0.74321
0.743672
0.744109
0.74452
0.744906
0.745264
0.745595
0.745899
0.746174
0.746421
0.746638
0.746825
0.746982
0.747108
0.747203
0.747266
0.747297
0.747296
0.747262
0.747194
0.747093
0.746958
0.746789
0.746585
0.746347
0.746074
0.745765
0.745422
0.745044
0.74463
0.744181
0.743697
0.743178
0.742623
0.742035
0.741411
0.740754
0.740063
0.739339
0.738581
0.737792
0.736969
0.736115
0.735229
0.734311
0.73336
0.732378
0.731363
0.730312
0.729238
0.728104
0.727052
0.725706
0.710863
0.710686
0.710507
0.710306
0.710072
0.709801
0.709498
0.709164
0.708803
0.708417
0.708008
0.707578
0.707131
0.706668
0.706191
0.705703
0.705206
0.7047
0.704189
0.703674
0.703157
0.70264
0.702124
0.701611
0.701103
0.700601
0.700107
0.699622
0.699149
0.698688
0.698241
0.697809
0.697395
0.696999
0.696624
0.696269
0.695937
0.695629
0.695347
0.695091
0.694862
0.694662
0.694491
0.694351
0.694242
0.694165
0.694121
0.694109
0.694132
0.694188
0.694278
0.694403
0.694562
0.694755
0.694982
0.695243
0.695537
0.695864
0.696223
0.696614
0.697037
0.697489
0.697971
0.698482
0.69902
0.699586
0.700177
0.700793
0.701432
0.702095
0.70278
0.703485
0.70421
0.704955
0.705717
0.706497
0.707293
0.708105
0.708931
0.709771
0.710625
0.711491
0.712368
0.713256
0.714155
0.715063
0.71598
0.716904
0.717836
0.718773
0.719715
0.720661
0.721609
0.722559
0.723509
0.724458
0.725404
0.726348
0.727286
0.728218
0.729144
0.730061
0.73097
0.73187
0.73276
0.733639
0.734506
0.735362
0.736205
0.737035
0.73785
0.738652
0.739438
0.740209
0.740964
0.741702
0.742423
0.743126
0.743811
0.744477
0.745123
0.745748
0.746353
0.746937
0.747498
0.748037
0.748552
0.749044
0.749511
0.749953
0.75037
0.75076
0.751123
0.751458
0.751766
0.752045
0.752295
0.752515
0.752705
0.752864
0.752992
0.753088
0.753152
0.753184
0.753182
0.753146
0.753077
0.752974
0.752836
0.752663
0.752455
0.752212
0.751934
0.75162
0.75127
0.750884
0.750463
0.750006
0.749513
0.748984
0.74842
0.747821
0.747187
0.746518
0.745816
0.74508
0.74431
0.743508
0.742674
0.741807
0.740909
0.739978
0.739015
0.73802
0.736992
0.735929
0.734841
0.733693
0.732623
0.731253
0.722145
0.721959
0.721761
0.721537
0.721276
0.720978
0.720645
0.72028
0.719886
0.719465
0.71902
0.718554
0.718068
0.717566
0.71705
0.716522
0.715983
0.715437
0.714885
0.714328
0.71377
0.713211
0.712653
0.712098
0.711548
0.711003
0.710467
0.70994
0.709423
0.708919
0.708429
0.707954
0.707495
0.707055
0.706633
0.706233
0.705855
0.705499
0.705169
0.704863
0.704585
0.704334
0.704111
0.703918
0.703756
0.703624
0.703524
0.703455
0.70342
0.703417
0.703448
0.703512
0.703609
0.703739
0.703903
0.7041
0.704329
0.70459
0.704884
0.705208
0.705563
0.705949
0.706363
0.706806
0.707276
0.707773
0.708296
0.708844
0.709416
0.710012
0.710629
0.711269
0.711928
0.712608
0.713306
0.714022
0.714756
0.715506
0.716272
0.717053
0.717849
0.718659
0.719482
0.720317
0.721164
0.722023
0.722891
0.72377
0.724657
0.725553
0.726455
0.727363
0.728275
0.729191
0.730108
0.731026
0.731944
0.732861
0.733774
0.734682
0.735585
0.736482
0.737373
0.738255
0.739128
0.739992
0.740846
0.741689
0.742521
0.743341
0.744147
0.744941
0.74572
0.746485
0.747235
0.747968
0.748685
0.749385
0.750068
0.750732
0.751376
0.752001
0.752606
0.753189
0.753751
0.754291
0.754807
0.7553
0.755768
0.756211
0.756629
0.757021
0.757385
0.757722
0.758031
0.758312
0.758562
0.758783
0.758973
0.759132
0.75926
0.759356
0.759419
0.759448
0.759444
0.759407
0.759335
0.759228
0.759086
0.758909
0.758696
0.758448
0.758163
0.757842
0.757485
0.757092
0.756663
0.756197
0.755695
0.755156
0.754582
0.753972
0.753328
0.752648
0.751934
0.751186
0.750405
0.749591
0.748744
0.747865
0.746954
0.746011
0.745037
0.74403
0.74299
0.741915
0.740815
0.739654
0.738569
0.737178
0.734724
0.734526
0.734306
0.734054
0.733763
0.733432
0.733063
0.732661
0.732227
0.731765
0.731278
0.730768
0.730237
0.729689
0.729127
0.728551
0.727965
0.727371
0.726771
0.726166
0.72556
0.724952
0.724347
0.723744
0.723146
0.722554
0.721969
0.721394
0.72083
0.720278
0.719739
0.719216
0.718708
0.718218
0.717748
0.717297
0.716867
0.71646
0.716077
0.715719
0.715386
0.71508
0.714801
0.714551
0.71433
0.714139
0.713979
0.713849
0.713751
0.713685
0.71365
0.713648
0.713678
0.71374
0.713835
0.713961
0.71412
0.714309
0.71453
0.714781
0.715062
0.715373
0.715712
0.716079
0.716474
0.716895
0.717342
0.717813
0.718309
0.718829
0.719371
0.719935
0.72052
0.721125
0.721749
0.722393
0.723054
0.723733
0.724429
0.725141
0.725869
0.726613
0.727371
0.728142
0.728928
0.729726
0.730537
0.731359
0.732191
0.733034
0.733885
0.734744
0.73561
0.73648
0.737354
0.738232
0.739111
0.73999
0.740867
0.741741
0.742612
0.743479
0.74434
0.745195
0.746043
0.746883
0.747714
0.748536
0.749348
0.750149
0.750939
0.751716
0.752481
0.753232
0.753969
0.754691
0.755397
0.756087
0.75676
0.757416
0.758053
0.758671
0.759269
0.759847
0.760404
0.760939
0.761451
0.76194
0.762405
0.762845
0.76326
0.763649
0.764011
0.764346
0.764652
0.76493
0.765179
0.765397
0.765585
0.765741
0.765866
0.765959
0.766018
0.766045
0.766037
0.765995
0.765919
0.765807
0.76566
0.765478
0.765259
0.765004
0.764713
0.764385
0.76402
0.763619
0.76318
0.762705
0.762194
0.761646
0.761062
0.760441
0.759786
0.759095
0.75837
0.75761
0.756817
0.755991
0.755133
0.754242
0.753319
0.752365
0.751379
0.750361
0.749311
0.748225
0.747114
0.745943
0.744846
0.743439
0.748672
0.748458
0.748211
0.747926
0.747598
0.747227
0.746815
0.746367
0.745886
0.745374
0.744834
0.744271
0.743687
0.743084
0.742465
0.741834
0.741192
0.740542
0.739885
0.739225
0.738563
0.7379
0.73724
0.736582
0.73593
0.735284
0.734646
0.734018
0.7334
0.732795
0.732203
0.731626
0.731065
0.730521
0.729996
0.72949
0.729005
0.728542
0.728102
0.727686
0.727295
0.726929
0.72659
0.726279
0.725995
0.72574
0.725514
0.725318
0.725153
0.725017
0.724913
0.724839
0.724796
0.724784
0.724804
0.724854
0.724934
0.725045
0.725186
0.725356
0.725556
0.725784
0.72604
0.726324
0.726634
0.726971
0.727333
0.72772
0.728131
0.728565
0.729022
0.729501
0.730001
0.730522
0.731062
0.731623
0.732202
0.732799
0.733414
0.734047
0.734696
0.735362
0.736044
0.736741
0.737453
0.73818
0.738921
0.739675
0.740441
0.741219
0.742008
0.742807
0.743613
0.744426
0.745246
0.746071
0.746899
0.747728
0.748558
0.749387
0.750214
0.751039
0.751861
0.752678
0.753489
0.754295
0.755094
0.755884
0.756667
0.75744
0.758203
0.758955
0.759696
0.760424
0.76114
0.761842
0.76253
0.763202
0.763858
0.764498
0.765121
0.765725
0.76631
0.766876
0.767421
0.767945
0.768448
0.768927
0.769383
0.769815
0.770222
0.770604
0.770959
0.771286
0.771586
0.771858
0.772101
0.772313
0.772495
0.772646
0.772765
0.772852
0.772906
0.772926
0.772913
0.772865
0.772782
0.772665
0.772511
0.772321
0.772096
0.771833
0.771534
0.771198
0.770825
0.770415
0.769968
0.769484
0.768963
0.768405
0.76781
0.76718
0.766514
0.765812
0.765076
0.764305
0.763501
0.762663
0.761794
0.760892
0.759958
0.758993
0.757996
0.756968
0.755908
0.754813
0.753694
0.752514
0.751406
0.749989
0.764067
0.763832
0.763553
0.763228
0.762854
0.762433
0.761968
0.761462
0.760921
0.760346
0.759743
0.759114
0.758463
0.757794
0.757108
0.756409
0.755701
0.754984
0.754262
0.753537
0.75281
0.752085
0.751361
0.750642
0.749928
0.749222
0.748524
0.747836
0.747159
0.746495
0.745844
0.745208
0.744588
0.743986
0.743401
0.742836
0.742291
0.741768
0.741266
0.740788
0.740334
0.739904
0.7395
0.739122
0.738771
0.738447
0.738151
0.737884
0.737645
0.737435
0.737254
0.737103
0.736981
0.736888
0.736826
0.736792
0.736788
0.736813
0.736866
0.736948
0.737058
0.737196
0.737361
0.737552
0.737769
0.738012
0.73828
0.738572
0.738888
0.739227
0.739589
0.739972
0.740377
0.740803
0.74125
0.741716
0.742202
0.742707
0.74323
0.743771
0.744331
0.744907
0.745501
0.746112
0.746739
0.747382
0.748041
0.748714
0.749402
0.750103
0.750817
0.75154
0.752275
0.753021
0.753774
0.754532
0.755296
0.756063
0.756833
0.757605
0.758377
0.759148
0.759918
0.760685
0.76145
0.762209
0.762964
0.763713
0.764455
0.76519
0.765916
0.766633
0.76734
0.768037
0.768722
0.769395
0.770055
0.770701
0.771332
0.771948
0.772548
0.77313
0.773695
0.774241
0.774768
0.775275
0.77576
0.776224
0.776665
0.777083
0.777476
0.777845
0.778188
0.778504
0.778793
0.779054
0.779286
0.779489
0.779661
0.779802
0.779913
0.779991
0.780036
0.780048
0.780027
0.77997
0.779879
0.779753
0.779591
0.779393
0.779159
0.778888
0.77858
0.778235
0.777853
0.777434
0.776978
0.776484
0.775953
0.775385
0.774781
0.77414
0.773464
0.772752
0.772004
0.771223
0.770408
0.76956
0.768679
0.767767
0.766823
0.765848
0.764842
0.763804
0.762736
0.761634
0.760507
0.759321
0.758205
0.756782
0.781
0.780737
0.780418
0.780042
0.779611
0.779125
0.77859
0.778011
0.777392
0.776738
0.776053
0.775342
0.774609
0.773857
0.773089
0.77231
0.771521
0.770726
0.769927
0.769126
0.768325
0.767527
0.766732
0.765942
0.76516
0.764385
0.76362
0.762866
0.762124
0.761394
0.760679
0.759979
0.759295
0.758629
0.75798
0.75735
0.75674
0.756151
0.755584
0.755038
0.754516
0.754017
0.753542
0.753093
0.752668
0.75227
0.751898
0.751553
0.751234
0.750943
0.75068
0.750444
0.750236
0.750056
0.749904
0.74978
0.749683
0.749614
0.749572
0.749556
0.749568
0.749606
0.74967
0.749759