/*--------------------------------*- C++ -*----------------------------------*\
| =========                 |                                                 |
| \\      /  F ield         | OpenFOAM: The Open Source CFD Toolbox           |
|  \\    /   O peration     | Version:  2.3.0                                 |
|   \\  /    A nd           | Web:      www.OpenFOAM.org                      |
|    \\/     M anipulation  |                                                 |
\*---------------------------------------------------------------------------*/
FoamFile
{
    version     2.0;
    format      ascii;
    class       volScalarField;
    location    "0.094";
    object      p;
}
// * * * * * * * * * * * * * * * * * * * * * * * * * * * * * * * * * * * * * //

dimensions      [1 -1 -2 0 0 0 0];

internalField   nonuniform List<scalar> 
725
(
-889.699
-930.371
-945.029
-950.082
-962.505
-895.465
-930.058
-944.931
-948.999
-948.244
-898.12
-930.21
-944.136
-946.948
-959.955
-897.761
-931.296
-945.978
-954.032
-977.026
-894.534
-932.843
-945.522
-948.112
-949.36
-989.077
-944.721
-1073.08
-1104.31
-1115.6
-1172.76
-1194.92
-1204.99
-1207.29
-1211.45
-1218.12
-1229.68
-1250.09
-1297.56
-1401.37
-1458.7
-1238.98
-1235.08
-1233.03
-1231.99
-1239.06
-1437.58
-1338.49
-1292.78
-1268.99
-1257.59
-1251.4
-1244.02
-1236.53
-1232.36
-1230.8
-1241.34
-1249.05
-1254.92
-1260.38
-1262.42
-1262.35
-1266.13
-1260.11
-1280.61
-1255.55
-1343.81
-1316.58
-1801.65
93.3848
-988.921
-810.513
-1067.53
-1105.62
-1109.52
-1175.76
-1196
-1206.13
-1208.4
-1211.95
-1217.9
-1228.26
-1245.57
-1285.4
-1346.28
-1369.23
-1239.78
-1235.31
-1232.89
-1232.78
-1239.64
-1394.35
-1322.95
-1287.49
-1266.9
-1255.4
-1248.99
-1242.41
-1236.4
-1240.75
-1239.5
-1245.74
-1251.13
-1256.6
-1261.59
-1263.43
-1263.28
-1266.65
-1260.65
-1279.86
-1250.91
-1330.73
-1257.65
-1726.69
-63.1639
-889.271
-905.899
-1024.99
-1114.98
-1126.75
-1190.93
-1200.43
-1208.29
-1209.36
-1211.73
-1216.6
-1225.06
-1237.24
-1263.23
-1276.71
-1272.69
-1240.99
-1235.83
-1232.77
-1233.38
-1239.86
-1342.97
-1297.84
-1276.62
-1262.27
-1252.49
-1246.61
-1245.4
-1245.06
-1233.69
-1233.26
-1245.2
-1250.77
-1255.92
-1260.69
-1263.67
-1263.47
-1266.61
-1260.32
-1277.73
-1242.53
-1295.29
-1159.88
-990.108
-524.898
-850.978
-642.788
-805.883
-1091.24
-1119.49
-1217.04
-1207.55
-1211.41
-1210.25
-1211.09
-1214.64
-1220.75
-1227.38
-1241.51
-1248.18
-1075.26
-1245.16
-1236.74
-1232.17
-1233.51
-1239.79
-1271.73
-1269.42
-1263.92
-1256.51
-1253.05
-1248.22
-1244.11
-1240.28
-1233.24
-1232.29
-1244.26
-1250.43
-1256.52
-1261.25
-1264.19
-1263.68
-1266.61
-1259.97
-1275.99
-1235.75
-1267.07
-1075.96
-596.32
-454.771
-10.0205
-215.823
-584.262
-1007.32
-1096.88
-1249.6
-1212.13
-1213.64
-1210.48
-1210.04
-1212.09
-1216.03
-1218.81
-1232.72
-1348.18
-1651.66
-1239.89
-1235.44
-1229.96
-1233
-1231.75
-1222.95
-1244.95
-1250.3
-1249.28
-1249.52
-1248.6
-1243.81
-1245.88
-1233.71
-1231.11
-1241.35
-1251.33
-1255.08
-1260.07
-1264.85
-1263.96
-1266.76
-1259.88
-1275.1
-1234.58
-1267.83
-1084.17
-718.412
-516.174
-23.0857
-24.4437
-331.67
-1010.8
-1077
-1263.18
-1208.43
-1214.22
-1209.79
-1209.24
-1210.53
-1213.41
-1214.13
-1238.09
-1234.48
-1328.03
-998.267
-1239.05
-1230.22
-1232.5
-1229.11
-1206.02
-1233.93
-1242.78
-1244.93
-1247.87
-1248.25
-1244.05
-1237.64
-1237.22
-1228.9
-1241.28
-1251.39
-1256.81
-1255.4
-1258.63
-1263.1
-1267.41
-1258.94
-1277.74
-1234.81
-1282.35
-1114.7
-933.314
-473.381
-22.4156
-6.92941
-291.148
-963.832
-1075.92
-1271.03
-1202.15
-1214.07
-1209.49
-1208.91
-1209.96
-1212.36
-1212.01
-1231.42
-1141.2
-1167.29
-1085.3
-1248.13
-1230.82
-1232.05
-1230.7
-1202.92
-1230.37
-1239.96
-1242.55
-1247.32
-1247.57
-1243.32
-1232.24
-1203.63
-1150.94
-1242.15
-1249.89
-1256.12
-1253.61
-1259.28
-1261
-1267.51
-1258.75
-1278.3
-1235.34
-1288.69
-1128.69
-1019.9
-331.218
-22.1022
-0.717397
-130.379
-811.108
-1070.25
-1283.07
-1203.46
-1213.53
-1209.1
-1208.16
-1209.34
-1211.12
-1209.5
-1217.37
-1129.75
103.624
-1098.13
-1227.06
-1248.45
-1231.33
-1230.64
-1200.09
-1226.98
-1234.24
-1239.83
-1246.35
-1247.24
-1242.98
-1249.97
-1208.33
-1262.38
-1242.76
-1249.95
-1241.48
-1254.04
-1262.38
-1261.88
-1265.67
-1258.63
-1278.59
-1236.37
-1295.16
-1145.86
-1162.64
-213.577
-22.4312
-0.917955
-41.3748
-791.571
-1078.66
-1298.79
-1204.68
-1212.17
-1207.41
-1207.65
-1208.85
-1209.89
-1206.77
-1198.82
-1089.2
-285.658
-1081.39
-1219.37
-1158.72
-1230.8
-1229.67
-1197.03
-1223.63
-1237.32
-1241.92
-1245.7
-1247.29
-1243.45
-1259.99
-1248.7
-1261.11
-1241.28
-1250.58
-1244.47
-1257.11
-1262.59
-1262.36
-1267.01
-1257.51
-1276.99
-1236.31
-1301.65
-1165.36
-1326.59
-178.53
-24.3205
1.15497
3.615
-636.691
-1126.31
-1315.19
-1204.62
-1211.43
-1207.8
-1207.82
-1208.35
-1208.65
-1203.86
-1180.82
-1060.82
-85.8828
-892.544
-1244.12
-1237.57
-1229.72
-1229.78
-1192.8
-1220.28
-1235.65
-1240.8
-1245.81
-1247.39
-1238.26
-1256.08
-1247.96
-1259.45
-1256.67
-1250.72
-1247.56
-1257.71
-1262.34
-1262.32
-1266.94
-1259.71
-1278.37
-1238.96
-1308.52
-1186.22
-1455.56
-169.524
468.282
434.931
407.286
420.057
304
465.047
437.091
408.043
428.564
269.891
464.585
438.868
411.438
448.445
346.639
467.04
438.572
409.548
437.122
350.347
472.498
437.93
408.744
429.97
345.169
68.45
-10.1396
-8.09442
-384.664
-1492.37
-1356.7
-1213.71
-1213.54
-1207.69
-1206.85
-1206.69
-1205
-1195.66
-1135.44
-1038.81
-925.671
-1269.46
-1230.29
-1227.89
-1227.93
-1228.78
-1181.81
-1211.33
-1229.46
-1239.12
-1244.51
-1248.55
-1252.43
-1259.72
-1243.26
-1255.76
-1251.8
-1252.52
-1249.75
-1257.3
-1261.53
-1262.4
-1266.27
-1261.09
-1278.07
-1245.71
-1325.67
-1245.82
-1786.7
-91.8507
-23.7345
-51.5708
-15.9377
-420.049
-1296.74
-1337.94
-1211.51
-1210.08
-1205.58
-1205.13
-1204.32
-1201.16
-1194.69
-1188.21
-1394.5
-2062.51
-1235.67
-1219.73
-1224.4
-1226.63
-1229.86
-1195.31
-1202.14
-1221.21
-1233.15
-1241.94
-1247.48
-1245.84
-1257.71
-1245.1
-1257.07
-1254.65
-1253.17
-1251.69
-1256.75
-1260.9
-1262.36
-1266.22
-1261.15
-1279.03
-1248.44
-1337.92
-1298.81
-1959.12
14.7548
783.586
-200.874
-55.2245
-285.412
-1081.81
-1288.34
-1203.99
-1207.3
-1203.26
-1203.59
-1202.36
-1198.17
-1190.54
-1178.82
-1219.54
-1312.49
-1231.17
-1219.94
-1224.52
-1225.55
-1220.54
-1184.39
-1190.44
-1213.87
-1229.66
-1238.98
-1241.7
-1250.65
-1255.75
-1254.37
-1258.03
-1256.35
-1253.9
-1252.83
-1256.58
-1260.56
-1262.33
-1265.46
-1260.56
-1278.5
-1245.89
-1329.71
-1271.41
-1849.5
-100.531
334.043
27.3771
-181.812
-345.677
-1088.42
-1266.91
-1197.44
-1204.8
-1201.41
-1202.51
-1201
-1195.92
-1185.75
-1165.3
-1146.23
-1101.73
-1232.18
-1221.41
-1224.29
-1224.06
-1202.11
-1124.19
-1171.41
-1206.63
-1223.9
-1233.95
-1242.87
-1244.55
-1254.12
-1254.94
-1257.88
-1255.92
-1253.94
-1253.61
-1256.6
-1260.49
-1261.55
-1264.55
-1258.63
-1274.99
-1242.64
-1308.4
-1201.68
-1258.26
-574.194
371.226
89.8079
-195.175
-306.87
-1084.29
-1263.98
-1194.43
-1202.61
-1199.64
-1201.46
-1200
-1194.26
-1181.79
-1154.45
-1085.13
-878.079
-1217.29
-1222.24
-1224.15
-1222.5
-1189.49
-1052.31
-1157.07
-1202.03
-1223.13
-1234.46
-1242.96
-1246.99
-1250.98
-1250.14
-1254.09
-1252.77
-1251.46
-1252.17
-1255.49
-1260.3
-1262.44
-1261.96
-1252.51
-1264.85
-1227.67
-1287.61
-1133.69
-729.137
-530.425
)
;

boundaryField
{
    AirInlet
    {
        type            calculated;
        value           nonuniform List<scalar> 5(-23.0918 -21.8938 -22.5085 -21.8651 -24.3219);
    }
    WaterInlet
    {
        type            calculated;
        value           nonuniform List<scalar> 10(-889.697 -895.459 -898.11 -897.747 -894.516 468.264 465.032 464.575 467.034 472.496);
    }
    ChannelWall
    {
        type            calculated;
        value           nonuniform List<scalar> 
110
(
-894.56
-932.873
-945.556
-948.15
-949.401
468.308
434.961
407.32
420.095
304.042
472.472
437.899
408.709
429.931
345.127
371.186
89.7777
-195.18
-306.875
-1084.32
-1264.03
-1194.48
-1202.65
-1199.69
-1201.5
-1200.05
-1194.31
-1181.84
-1154.49
-1085.18
-878.112
-1217.3
-1222.24
-1224.15
-1222.5
-1189.5
-1052.35
-1157.12
-1202.07
-1223.17
-1234.5
-1243.01
-1247.03
-1251.03
-1250.18
-1254.13
-1252.82
-1251.51
-1252.21
-1255.54
-1260.34
-1262.48
-1262.01
-1252.55
-1264.89
-1227.71
-1287.65
-1133.73
-729.18
-530.438
-889.672
-930.341
-944.994
-950.044
-962.463
-989.034
-944.681
-1073.04
-1104.26
-1115.56
-1172.71
-1194.88
-1204.94
-1207.24
-1211.41
-1218.08
-1229.63
-1250.05
-1297.52
-1401.32
-1458.68
-1238.98
-1235.08
-1233.03
-1231.99
-1239.06
-1437.54
-1338.44
-1292.74
-1268.95
-1257.55
-1251.36
-1243.98
-1236.49
-1232.32
-1230.76
-1241.3
-1249.01
-1254.87
-1260.34
-1262.37
-1262.3
-1266.08
-1260.07
-1280.56
-1255.5
-1343.77
-1316.53
-1801.61
93.3864
)
;
    }
    Outlet
    {
        type            calculated;
        value           nonuniform List<scalar> 
15
(
-0.165467
-0.0111579
-0.0566194
-0.0844474
-0.110749
-0.645906
-1.2856
-0.0004905
-0.0187511
-0.00969111
-0.00244769
-0.0457422
-0.0197016
-0.193991
-0.276559
)
;
    }
    FrontAndBack
    {
        type            empty;
    }
}


// ************************************************************************* //
