/*--------------------------------*- C++ -*----------------------------------*\
| =========                 |                                                 |
| \\      /  F ield         | OpenFOAM: The Open Source CFD Toolbox           |
|  \\    /   O peration     | Version:  2.3.0                                 |
|   \\  /    A nd           | Web:      www.OpenFOAM.org                      |
|    \\/     M anipulation  |                                                 |
\*---------------------------------------------------------------------------*/
FoamFile
{
    version     2.0;
    format      ascii;
    class       volScalarField;
    location    "0.094";
    object      p_rgh;
}
// * * * * * * * * * * * * * * * * * * * * * * * * * * * * * * * * * * * * * //

dimensions      [1 -1 -2 0 0 0 0];

internalField   nonuniform List<scalar> 
725
(
-889.672
-930.341
-944.994
-950.044
-962.463
-895.385
-929.966
-944.828
-948.884
-948.119
-897.988
-930.057
-943.964
-946.757
-959.745
-897.575
-931.083
-945.737
-953.764
-976.731
-894.295
-932.569
-945.213
-947.768
-948.988
-989.034
-944.681
-1073.04
-1104.26
-1115.56
-1172.71
-1194.88
-1204.94
-1207.24
-1211.41
-1218.08
-1229.63
-1250.05
-1297.52
-1401.32
-1458.68
-1238.98
-1235.08
-1233.03
-1231.99
-1239.06
-1437.54
-1338.44
-1292.74
-1268.95
-1257.55
-1251.36
-1243.98
-1236.49
-1232.32
-1230.76
-1241.3
-1249.01
-1254.87
-1260.34
-1262.37
-1262.3
-1266.08
-1260.07
-1280.56
-1255.5
-1343.77
-1316.53
-1801.61
93.3864
-988.792
-810.384
-1067.41
-1105.5
-1109.39
-1175.63
-1195.87
-1206
-1208.27
-1211.81
-1217.77
-1228.13
-1245.43
-1285.27
-1346.15
-1369.17
-1239.78
-1235.31
-1232.89
-1232.78
-1239.62
-1394.24
-1322.81
-1287.36
-1266.77
-1255.27
-1248.85
-1242.28
-1236.27
-1240.61
-1239.36
-1245.6
-1251
-1256.46
-1261.45
-1263.3
-1263.15
-1266.52
-1260.52
-1279.72
-1250.77
-1330.59
-1257.52
-1726.57
-63.1528
-889.051
-905.72
-1024.8
-1114.78
-1126.53
-1190.71
-1200.21
-1208.07
-1209.14
-1211.5
-1216.38
-1224.84
-1237.02
-1263.01
-1276.49
-1272.57
-1240.99
-1235.83
-1232.77
-1233.38
-1239.84
-1342.8
-1297.62
-1276.4
-1262.05
-1252.26
-1246.39
-1245.18
-1244.84
-1233.47
-1233.04
-1244.98
-1250.55
-1255.7
-1260.47
-1263.45
-1263.25
-1266.39
-1260.1
-1277.51
-1242.31
-1295.07
-1159.66
-989.893
-524.842
-850.718
-642.634
-805.67
-1090.98
-1119.19
-1216.73
-1207.24
-1211.1
-1209.94
-1210.78
-1214.33
-1220.44
-1227.07
-1241.2
-1247.87
-1075.1
-1245.16
-1236.74
-1232.16
-1233.51
-1239.75
-1271.48
-1269.11
-1263.61
-1256.2
-1252.74
-1247.91
-1243.8
-1239.97
-1232.93
-1231.98
-1243.95
-1250.12
-1256.21
-1260.95
-1263.88
-1263.37
-1266.3
-1259.66
-1275.68
-1235.44
-1266.76
-1075.65
-596.018
-454.687
-9.99408
-215.76
-584.092
-1007.04
-1096.5
-1249.21
-1211.74
-1213.24
-1210.08
-1209.64
-1211.69
-1215.63
-1218.42
-1232.32
-1347.79
-1651.43
-1239.88
-1235.44
-1229.96
-1233
-1231.7
-1222.61
-1244.56
-1249.91
-1248.88
-1249.13
-1248.2
-1243.41
-1245.48
-1233.31
-1230.72
-1240.95
-1250.94
-1254.68
-1259.68
-1264.45
-1263.56
-1266.37
-1259.48
-1274.71
-1234.19
-1267.43
-1083.78
-718.024
-516.064
-23.0852
-24.442
-331.618
-1010.56
-1076.56
-1262.73
-1207.98
-1213.77
-1209.34
-1208.79
-1210.08
-1212.96
-1213.67
-1237.63
-1234.05
-1327.8
-998.263
-1239.05
-1230.22
-1232.5
-1229.05
-1205.64
-1233.48
-1242.33
-1244.47
-1247.42
-1247.8
-1243.6
-1237.19
-1236.77
-1228.45
-1240.83
-1250.94
-1256.36
-1254.95
-1258.18
-1262.65
-1266.96
-1258.49
-1277.29
-1234.36
-1281.9
-1114.25
-932.879
-473.283
-22.4151
-6.92847
-291.116
-963.621
-1075.46
-1270.56
-1201.67
-1213.6
-1209.02
-1208.43
-1209.49
-1211.89
-1211.54
-1230.95
-1140.75
-1167.03
-1085.29
-1248.13
-1230.82
-1232.05
-1230.63
-1202.52
-1229.9
-1239.49
-1242.08
-1246.85
-1247.1
-1242.85
-1231.77
-1203.16
-1150.47
-1241.68
-1249.42
-1255.65
-1253.14
-1258.81
-1260.53
-1267.04
-1258.28
-1277.83
-1234.87
-1288.22
-1128.22
-1019.45
-331.133
-22.1017
-0.716851
-130.371
-810.941
-1069.77
-1282.58
-1202.96
-1213.04
-1208.61
-1207.67
-1208.85
-1210.63
-1209.01
-1216.88
-1129.28
103.948
-1098.11
-1227.06
-1248.45
-1231.33
-1230.56
-1199.67
-1226.49
-1233.75
-1239.34
-1245.86
-1246.75
-1242.49
-1249.48
-1207.84
-1261.89
-1242.27
-1249.46
-1241
-1253.55
-1261.89
-1261.39
-1265.18
-1258.14
-1278.1
-1235.88
-1294.67
-1145.37
-1162.18
-213.5
-22.4307
-0.917385
-41.3711
-791.413
-1078.16
-1298.28
-1204.17
-1211.66
-1206.9
-1207.14
-1208.34
-1209.38
-1206.26
-1198.3
-1088.71
-285.356
-1081.37
-1219.37
-1158.71
-1230.8
-1229.59
-1196.6
-1223.12
-1236.81
-1241.41
-1245.19
-1246.78
-1242.94
-1259.48
-1248.19
-1260.6
-1240.77
-1250.07
-1243.96
-1256.6
-1262.09
-1261.85
-1266.5
-1257
-1276.48
-1235.8
-1301.14
-1164.85
-1326.12
-178.46
-24.3199
1.15553
3.61586
-636.598
-1125.79
-1314.66
-1204.09
-1210.9
-1207.27
-1207.29
-1207.82
-1208.12
-1203.33
-1180.29
-1060.3
-85.5272
-892.504
-1244.12
-1237.57
-1229.72
-1229.69
-1192.35
-1219.75
-1235.12
-1240.27
-1245.29
-1246.86
-1237.73
-1255.55
-1247.43
-1258.92
-1256.15
-1250.2
-1247.03
-1257.18
-1261.81
-1261.79
-1266.41
-1259.18
-1277.84
-1238.43
-1307.99
-1185.69
-1455.08
-169.465
469.024
435.638
407.958
420.693
304.601
465.842
437.859
408.783
429.277
270.576
465.433
439.697
412.247
449.235
347.409
467.941
439.461
410.426
437.988
351.2
473.453
438.88
409.69
430.912
346.108
68.4761
-10.1387
-8.09207
-384.614
-1491.83
-1356.12
-1213.13
-1212.95
-1207.11
-1206.27
-1206.1
-1204.41
-1195.07
-1134.86
-1038.23
-925.378
-1269.45
-1230.29
-1227.88
-1227.93
-1228.68
-1181.3
-1210.75
-1228.88
-1238.54
-1243.92
-1247.96
-1251.84
-1259.14
-1242.68
-1255.18
-1251.22
-1251.94
-1249.17
-1256.71
-1260.94
-1261.82
-1265.69
-1260.51
-1277.49
-1245.12
-1325.09
-1245.23
-1786.19
-91.8195
-23.297
-51.5472
-15.934
-419.991
-1296.18
-1337.27
-1210.84
-1209.41
-1204.9
-1204.46
-1203.64
-1200.49
-1194.01
-1187.53
-1393.83
-2062.09
-1235.66
-1219.73
-1224.4
-1226.63
-1229.74
-1194.72
-1201.46
-1220.54
-1232.48
-1241.27
-1246.81
-1245.16
-1257.04
-1244.43
-1256.4
-1253.98
-1252.5
-1251.02
-1256.08
-1260.23
-1261.69
-1265.54
-1260.48
-1278.36
-1247.77
-1337.25
-1298.14
-1958.56
14.7702
784.346
-200.723
-55.2177
-285.37
-1081.25
-1287.58
-1203.23
-1206.54
-1202.5
-1202.83
-1201.6
-1197.41
-1189.78
-1178.06
-1218.78
-1311.99
-1231.16
-1219.94
-1224.52
-1225.55
-1220.4
-1183.71
-1189.68
-1213.11
-1228.9
-1238.22
-1240.94
-1249.89
-1254.99
-1253.61
-1257.27
-1255.59
-1253.14
-1252.07
-1255.82
-1259.8
-1261.57
-1264.7
-1259.8
-1277.74
-1245.13
-1328.95
-1270.65
-1848.84
-100.488
334.755
27.954
-181.724
-345.577
-1087.8
-1266.06
-1196.59
-1203.95
-1200.56
-1201.67
-1200.15
-1195.07
-1184.9
-1164.45
-1145.39
-1101.11
-1232.17
-1221.4
-1224.29
-1224.06
-1201.94
-1123.41
-1170.56
-1205.78
-1223.05
-1233.1
-1242.02
-1243.7
-1253.27
-1254.09
-1257.03
-1255.07
-1253.09
-1252.77
-1255.75
-1259.64
-1260.71
-1263.7
-1257.79
-1274.15
-1241.79
-1307.55
-1200.83
-1257.44
-574
372.065
90.4497
-195.073
-306.768
-1083.64
-1263.05
-1193.5
-1201.67
-1198.71
-1200.52
-1199.07
-1193.33
-1180.86
-1153.51
-1084.2
-877.39
-1217.25
-1222.24
-1224.15
-1222.5
-1189.3
-1051.43
-1156.14
-1201.09
-1222.19
-1233.52
-1242.03
-1246.05
-1250.05
-1249.2
-1253.15
-1251.84
-1250.53
-1251.23
-1254.56
-1259.36
-1261.5
-1261.03
-1251.57
-1263.91
-1226.73
-1286.68
-1132.75
-728.218
-530.148
)
;

boundaryField
{
    AirInlet
    {
        type            fixedFluxPressure;
        gradient        nonuniform List<scalar> 5(-608.958 52177.5 -40635.2 56609.5 -145.351);
        value           nonuniform List<scalar> 5(-23.0913 -21.8934 -22.508 -21.8646 -24.3214);
    }
    WaterInlet
    {
        type            fixedFluxPressure;
        gradient        nonuniform List<scalar> 10(0.00198135 -2.20659 -0.268626 -1.97695 -6.68792 -0.0280989 0.131021 0.0954351 -0.56702 -2.14729);
        value           nonuniform List<scalar> 10(-889.672 -895.385 -897.988 -897.575 -894.295 469.024 465.842 465.433 467.941 473.453);
    }
    ChannelWall
    {
        type            fixedFluxPressure;
        gradient        uniform 0;
        value           nonuniform List<scalar> 
110
(
-894.295
-932.569
-945.213
-947.768
-948.988
469.024
435.638
407.958
420.693
304.601
473.453
438.88
409.69
430.912
346.108
372.065
90.4497
-195.073
-306.768
-1083.64
-1263.05
-1193.5
-1201.67
-1198.71
-1200.52
-1199.07
-1193.33
-1180.86
-1153.51
-1084.2
-877.39
-1217.25
-1222.24
-1224.15
-1222.5
-1189.3
-1051.43
-1156.14
-1201.09
-1222.19
-1233.52
-1242.03
-1246.05
-1250.05
-1249.2
-1253.15
-1251.84
-1250.53
-1251.23
-1254.56
-1259.36
-1261.5
-1261.03
-1251.57
-1263.91
-1226.73
-1286.68
-1132.75
-728.218
-530.148
-889.672
-930.341
-944.994
-950.044
-962.463
-989.034
-944.681
-1073.04
-1104.26
-1115.56
-1172.71
-1194.88
-1204.94
-1207.24
-1211.41
-1218.08
-1229.63
-1250.05
-1297.52
-1401.32
-1458.68
-1238.98
-1235.08
-1233.03
-1231.99
-1239.06
-1437.54
-1338.44
-1292.74
-1268.95
-1257.55
-1251.36
-1243.98
-1236.49
-1232.32
-1230.76
-1241.3
-1249.01
-1254.87
-1260.34
-1262.37
-1262.3
-1266.08
-1260.07
-1280.56
-1255.5
-1343.77
-1316.53
-1801.61
93.3864
)
;
    }
    Outlet
    {
        type            totalPressure;
        rho             rho;
        psi             none;
        gamma           1;
        p0              uniform 0;
        value           nonuniform List<scalar> 
15
(
-0.165423
0
0
0
0
-0.548179
-1.19998
0
-0.018241
-0.00916137
-0.00186399
-0.0450703
-0.0189413
0
0
)
;
    }
    FrontAndBack
    {
        type            empty;
    }
}


// ************************************************************************* //
