/*--------------------------------*- C++ -*----------------------------------*\
| =========                 |                                                 |
| \\      /  F ield         | OpenFOAM: The Open Source CFD Toolbox           |
|  \\    /   O peration     | Version:  2.3.0                                 |
|   \\  /    A nd           | Web:      www.OpenFOAM.org                      |
|    \\/     M anipulation  |                                                 |
\*---------------------------------------------------------------------------*/
FoamFile
{
    version     2.0;
    format      ascii;
    class       surfaceScalarField;
    location    "0.094";
    object      phi;
}
// * * * * * * * * * * * * * * * * * * * * * * * * * * * * * * * * * * * * * //

dimensions      [0 3 -1 0 0 0 0];

internalField   nonuniform List<scalar> 
1380
(
3.12407e-13
1.87593e-13
2.80392e-13
3.20155e-14
2.67191e-13
1.32006e-14
2.00636e-13
6.65547e-14
4.339e-13
-2.33264e-13
6.01349e-13
8.62441e-14
6.19113e-13
1.42513e-14
6.23743e-13
8.57023e-15
4.91962e-13
1.98336e-13
1.31185e-12
-3.85992e-13
6.84762e-13
-9.85179e-14
7.25358e-13
-2.63444e-14
7.30348e-13
3.57992e-15
6.09411e-13
3.19273e-13
1.47778e-12
4.43484e-13
5.98035e-13
-1.96553e-13
6.1266e-13
-4.09695e-14
6.554e-13
-3.91602e-14
9.82113e-13
-7.43997e-15
1.69749e-13
2.29014e-12
3.03447e-13
2.62478e-13
2.23318e-13
2.15878e-13
3.85626e-13
-3.80373e-13
1.47109e-13
3.02452e-13
-6.82825e-13
3.86631e-13
-8.41795e-14
6.32051e-13
-2.45419e-13
7.10334e-13
-7.82833e-14
2.98229e-13
4.12105e-13
3.4288e-14
2.63941e-13
-6.57578e-15
4.08639e-14
5.03635e-14
-5.69396e-14
1.02388e-13
-5.20243e-14
1.35849e-13
-3.34618e-14
1.61504e-13
-2.56553e-14
2.11234e-13
-4.97293e-14
3.04006e-13
-9.27724e-14
8.77303e-13
-5.73296e-13
-1.94343e-12
2.82073e-12
-3.25553e-12
1.3121e-12
-3.28435e-12
2.88241e-14
-1.79712e-12
-1.48723e-12
-1.82223e-12
2.5113e-14
1.03091e-12
-2.85314e-12
6.94674e-13
3.36237e-13
2.68595e-13
4.26079e-13
1.44739e-13
1.23856e-13
1.43584e-13
1.15553e-15
1.36542e-13
7.04178e-15
1.13669e-13
2.28736e-14
1.27726e-13
-1.40576e-14
1.31692e-13
-3.9663e-15
1.83348e-13
-5.16555e-14
2.96276e-13
-1.12928e-13
2.50166e-13
4.611e-14
2.04499e-13
4.56673e-14
1.84233e-13
2.02652e-14
1.34614e-13
4.96197e-14
1.21942e-13
1.26714e-14
1.35722e-13
-1.37799e-14
1.39425e-13
-3.70214e-15
1.42826e-13
-3.40098e-15
1.30915e-13
1.19107e-14
1.02987e-13
2.79284e-14
-1.92382e-13
2.95368e-13
-8.01031e-13
6.08649e-13
-6.51547e-12
5.71444e-12
-1.32247e-12
-4.685e-13
2.29617e-13
1.30773e-12
-2.45906e-12
1.40286e-12
-1.79309e-13
1.93162e-12
-7.74179e-13
1.62842e-12
2.2492e-13
7.33812e-13
1.30671e-12
1.29646e-13
8.68107e-13
4.35889e-14
1.26921e-13
1.51769e-13
-1.65121e-13
2.47816e-13
-1.48071e-13
3.00245e-13
-8.58907e-14
3.32616e-13
-5.80257e-14
4.0519e-13
-1.22304e-13
6.45786e-13
-3.33368e-13
1.58113e-12
-1.50864e-12
-1.22875e-12
5.63061e-12
-4.56584e-12
4.64919e-12
-4.98567e-12
4.48654e-13
-1.39055e-12
-5.08235e-12
6.96963e-13
-2.0624e-12
9.19715e-13
-3.07589e-12
1.09596e-12
1.59996e-13
6.86457e-13
8.35579e-13
4.52943e-13
3.5737e-13
4.4459e-13
9.5084e-15
4.43204e-13
8.42836e-15
4.2094e-13
4.51375e-14
4.9479e-13
-8.79075e-14
4.84137e-13
6.6867e-15
4.81362e-13
-4.88807e-14
5.98467e-13
-2.30034e-13
5.23083e-13
1.21494e-13
4.40295e-13
1.28456e-13
4.01008e-13
5.95515e-14
3.25449e-13
1.25179e-13
3.16105e-13
2.20157e-14
3.47049e-13
-4.47236e-14
3.66623e-13
-2.32767e-14
3.77355e-13
-1.41321e-14
3.86906e-13
2.35951e-15
4.02552e-13
1.22818e-14
5.28027e-13
1.69894e-13
6.38087e-13
4.98589e-13
3.74427e-12
2.60826e-12
-1.11638e-12
9.89248e-13
-3.16147e-13
1.02123e-12
-2.49104e-12
7.41584e-13
1.00333e-13
1.53757e-12
-1.57017e-12
1.97704e-12
-2.14546e-13
1.04499e-12
2.23876e-12
3.2335e-13
1.58975e-12
1.87084e-13
2.63187e-13
2.93474e-13
-2.7151e-13
3.91932e-13
-2.46529e-13
4.41319e-13
-1.35277e-13
4.5798e-13
-7.46862e-14
4.9412e-13
-1.58444e-13
6.75822e-13
-5.15071e-13
1.51861e-12
-2.35143e-12
2.46573e-12
4.6835e-12
-2.34455e-12
9.45946e-12
-3.9262e-12
2.03031e-12
4.08582e-13
-9.41713e-12
2.32137e-12
-3.97519e-12
6.53151e-13
-1.40767e-12
9.30746e-13
-1.17599e-13
8.02824e-13
9.63501e-13
6.58468e-13
5.01726e-13
6.5081e-13
1.71659e-14
6.65973e-13
-6.73439e-15
6.46821e-13
6.429e-14
6.00051e-13
-4.11378e-14
6.53705e-13
-4.69669e-14
6.62389e-13
-5.75648e-14
7.82707e-13
-3.50353e-13
6.9789e-13
2.06312e-13
5.7986e-13
2.46486e-13
5.33468e-13
1.05943e-13
4.67487e-13
1.91161e-13
4.64898e-13
2.46037e-14
5.12035e-13
-9.18604e-14
5.40222e-13
-5.14634e-14
5.64736e-13
-3.86456e-14
5.79148e-13
-1.20528e-14
6.65416e-13
-7.39865e-14
9.48147e-13
-1.12837e-13
1.68158e-12
-2.34843e-13
3.29849e-12
9.91344e-13
-5.93456e-14
1.40973e-12
5.64267e-13
-1.0967e-13
-9.71634e-13
-2.90659e-13
2.81322e-13
3.41444e-13
-2.20227e-12
1.82572e-12
-1.69883e-12
1.26569e-12
2.79879e-12
6.50406e-13
2.20503e-12
4.47147e-13
4.66446e-13
4.86191e-13
-3.10554e-13
5.42181e-13
-3.02519e-13
5.6845e-13
-1.61547e-13
5.5729e-13
-6.35263e-14
4.96e-13
-9.71538e-14
3.20363e-13
-3.39433e-13
3.99598e-14
-2.07103e-12
-2.95832e-12
7.68178e-12
7.93809e-13
5.70733e-12
-2.44645e-14
2.84858e-12
2.02432e-12
-1.14659e-11
2.33218e-12
-4.28304e-12
7.29734e-13
1.9477e-13
7.12093e-13
-9.99573e-14
7.71445e-13
9.04148e-13
7.75702e-13
4.97469e-13
8.20908e-13
-2.80402e-14
8.40717e-13
-2.65426e-14
7.24304e-13
1.80703e-13
5.37525e-13
1.45641e-13
6.60544e-13
-1.69986e-13
6.89279e-13
-8.63e-14
8.15984e-13
-4.77058e-13
7.84868e-13
2.37428e-13
6.95123e-13
3.3623e-13
6.38775e-13
1.62292e-13
5.56162e-13
2.73774e-13
5.66276e-13
1.44891e-14
6.29895e-13
-1.5548e-13
6.61449e-13
-8.30168e-14
6.94666e-13
-7.1863e-14
6.91285e-13
-8.67207e-15
7.68207e-13
-1.50908e-13
9.11321e-13
-2.55952e-13
1.32435e-12
-6.47869e-13
3.41942e-12
-1.10373e-12
-4.17706e-13
5.29208e-13
4.20686e-13
-3.99668e-13
-4.27579e-14
-1.06056e-12
9.42217e-13
-1.50643e-12
-1.7564e-12
1.49655e-12
-4.70181e-12
1.51127e-12
2.78406e-12
1.10594e-12
2.61037e-12
8.08323e-13
7.64063e-13
7.11336e-13
-2.13568e-13
6.84887e-13
-2.7607e-13
6.79336e-13
-1.55996e-13
6.47737e-13
-3.19268e-14
5.08085e-13
4.24978e-14
2.84656e-13
-1.16004e-13
4.65191e-13
-2.25157e-12
-1.33878e-12
9.48575e-12
1.23575e-11
-7.98898e-12
4.88462e-12
1.03215e-11
2.95792e-12
-9.53922e-12
1.53562e-12
-2.86074e-12
8.92082e-13
8.38303e-13
5.03253e-13
2.88872e-13
6.71453e-13
7.35947e-13
8.33852e-13
3.35071e-13
8.91238e-13
-8.54263e-14
8.66663e-13
-1.96761e-15
7.6396e-13
2.83406e-13
6.60614e-13
2.48986e-13
6.56613e-13
-1.65984e-13
6.22687e-13
-5.23741e-14
8.14866e-13
-6.69237e-13
8.05417e-13
2.46877e-13
6.82023e-13
4.59624e-13
5.84768e-13
2.59547e-13
5.61559e-13
2.96982e-13
6.24734e-13
-4.86852e-14
7.02e-13
-2.32746e-13
7.33491e-13
-1.14508e-13
7.59389e-13
-9.7761e-14
7.47765e-13
2.95208e-15
7.99587e-13
-2.0273e-13
8.99069e-13
-3.55434e-13
1.37441e-12
-1.12321e-12
3.78981e-12
-3.51913e-12
-1.77366e-13
-1.72049e-12
2.34117e-12
1.47026e-13
-1.91027e-12
5.65015e-13
5.24228e-13
-4.6967e-14
-1.14442e-12
4.23033e-13
-5.17181e-12
4.07488e-13
2.79961e-12
2.96497e-13
2.72136e-12
2.27442e-13
8.33118e-13
1.82551e-13
-1.68677e-13
1.66812e-13
-2.60331e-13
1.62604e-13
-1.51788e-13
1.59791e-13
-2.91138e-14
1.2746e-13
7.48291e-14
2.4862e-13
-2.37163e-13
1.05364e-12
-3.05659e-12
9.38977e-12
1.14962e-12
5.98741e-12
-4.58662e-12
2.55205e-12
1.37568e-11
4.01607e-13
-7.38877e-12
4.13341e-13
-2.87248e-12
1.96413e-13
1.05523e-12
7.5905e-14
4.0938e-13
1.38611e-13
6.73242e-13
1.8422e-13
2.89461e-13
1.93459e-13
-9.46652e-14
1.90241e-13
1.24999e-15
1.73186e-13
3.00462e-13
1.37279e-13
2.84893e-13
1.08081e-13
-1.36786e-13
1.13486e-13
-5.77795e-14
1.61892e-13
-7.17643e-13
1.58838e-13
2.49931e-13
1.29755e-13
4.88707e-13
9.05916e-14
2.98711e-13
1.0629e-13
2.81284e-13
1.45406e-13
-8.78014e-14
1.57751e-13
-2.45091e-13
1.72722e-13
-1.29478e-13
1.61408e-13
-8.64472e-14
1.77309e-13
-1.29485e-14
1.52543e-13
-1.77965e-13
1.75453e-13
-3.78344e-13
1.73015e-13
-1.12078e-12
-1.0643e-14
-3.33548e-12
-2.85554e-14
-2.75441e-12
5.29558e-12
-3.62716e-12
-1.03752e-12
4.1564e-13
-3.51857e-12
1.89842e-13
-9.18619e-13
4.85647e-13
-5.46761e-12
4.32066e-13
2.85319e-12
3.12488e-13
2.84094e-12
2.42779e-13
9.02827e-13
1.90775e-13
-1.16673e-13
1.71672e-13
-2.41229e-13
1.66505e-13
-1.46621e-13
1.64483e-13
-2.70916e-14
1.36506e-13
1.02806e-13
3.45842e-13
-4.46499e-13
8.64685e-13
-3.57543e-12
3.25406e-12
-1.23975e-12
5.30394e-12
-6.6365e-12
2.28145e-12
1.67793e-11
2.65939e-13
-5.37326e-12
3.70108e-13
-2.97665e-12
1.84644e-13
1.2407e-12
6.36733e-14
5.3035e-13
1.36189e-13
6.00726e-13
1.82283e-13
2.43367e-13
1.90893e-13
-1.03275e-13
1.87948e-13
4.19548e-15
1.75013e-13
3.13397e-13
1.36867e-13
3.23039e-13
9.4859e-14
-9.47778e-14
1.04259e-13
-6.71796e-14
1.41861e-13
-7.55244e-13
1.62325e-13
2.29466e-13
1.22985e-13
5.28047e-13
7.15364e-14
3.5016e-13
9.8765e-14
2.54055e-13
1.46079e-13
-1.35115e-13
1.59059e-13
-2.58071e-13
1.74322e-13
-1.44741e-13
1.59899e-13
-7.20247e-14
1.78895e-13
-3.19448e-14
1.45593e-13
-1.44662e-13
1.65084e-13
-3.97834e-13
1.10212e-13
-1.0659e-12
-4.15669e-14
-3.1837e-12
1.77605e-13
-3.38265e-12
8.87823e-12
-2.17076e-12
-2.24941e-12
-1.35989e-12
-4.32944e-12
3.0416e-13
-2.58267e-12
5.38789e-13
-5.70224e-12
4.49746e-13
2.94224e-12
3.28354e-13
2.96233e-12
2.55638e-13
9.75543e-13
1.97807e-13
-5.88426e-14
1.75781e-13
-2.19202e-13
1.70033e-13
-1.40873e-13
1.68089e-13
-2.51476e-14
1.47286e-13
1.23609e-13
3.76586e-13
-6.75799e-13
6.41449e-13
-3.8403e-12
1.6071e-12
-2.2054e-12
2.10768e-12
-7.13708e-12
1.48405e-12
1.7403e-11
9.01681e-15
-3.89823e-12
3.21967e-13
-3.2896e-12
1.84901e-13
1.37776e-12
5.7746e-14
6.57505e-13
1.34148e-13
5.24324e-13
1.7972e-13
1.97795e-13
1.87805e-13
-1.1136e-13
1.85784e-13
6.21595e-15
1.76901e-13
3.2228e-13
1.4539e-13
3.5455e-13
9.68825e-14
-4.62706e-14
1.16737e-13
-8.70338e-14
1.40015e-13
-7.78523e-13
1.63374e-13
2.06108e-13
1.18636e-13
5.72784e-13
6.83142e-14
4.00481e-13
1.12801e-13
2.09568e-13
1.53963e-13
-1.76277e-13
1.61286e-13
-2.65394e-13
1.74402e-13
-1.57857e-13
1.59138e-13
-5.67612e-14
1.77206e-13
-5.00129e-14
1.41971e-13
-1.09428e-13
1.52528e-13
-4.08391e-13
6.98052e-14
-9.83181e-13
-3.62032e-13
-2.75186e-12
-4.9063e-13
-2.8287e-12
1.19069e-11
-3.78315e-12
-1.29496e-12
-4.73498e-12
-3.3776e-12
5.46417e-13
-7.86407e-12
5.27085e-13
-5.68291e-12
4.55127e-13
3.01419e-12
3.38459e-13
3.079e-12
2.66406e-13
1.0476e-12
2.03171e-13
4.39213e-15
1.80027e-13
-1.96058e-13
1.7349e-13
-1.34336e-13
1.70797e-13
-2.24544e-14
1.53869e-13
1.40537e-13
2.94017e-13
-8.15947e-13
4.62309e-13
-4.00859e-12
1.46921e-12
-3.2123e-12
1.0486e-12
-6.71647e-12
1.23654e-12
1.7215e-11
-1.24276e-12
-1.41894e-12
4.57338e-13
-4.9897e-12
1.91116e-13
1.64398e-12
5.61976e-14
7.92424e-13
1.34308e-13
4.46213e-13
1.78077e-13
1.54026e-13
1.8501e-13
-1.18293e-13
1.82874e-13
8.35208e-15
1.77834e-13
3.2732e-13
1.57541e-13
3.74843e-13
1.25844e-13
-1.45734e-14
1.35355e-13
-9.65442e-14
1.47884e-13
-7.91053e-13
1.42886e-13
2.11106e-13
1.22541e-13
5.93129e-13
9.77872e-14
4.25235e-13
1.26383e-13
1.80973e-13
1.62538e-13
-2.12432e-13
1.65931e-13
-2.68787e-13
1.75399e-13
-1.67325e-13
1.57465e-13
-3.88269e-14
1.75107e-13
-6.76551e-14
1.38498e-13
-7.28195e-14
1.4208e-13
-4.11972e-13
4.90415e-14
-8.90143e-13
-5.39548e-13
-2.16327e-12
-6.36594e-13
-2.14349e-12
1.42504e-11
-3.52533e-12
8.68854e-14
-1.57786e-12
-5.32508e-12
5.86976e-13
-1.00289e-11
4.47631e-13
-5.54356e-12
4.35219e-13
3.02661e-12
3.43395e-13
3.17082e-12
2.73212e-13
1.11778e-12
2.10856e-13
6.67481e-14
1.84515e-13
-1.69717e-13
1.76774e-13
-1.26595e-13
1.72277e-13
-1.79574e-14
1.5729e-13
1.55524e-13
1.64199e-13
-8.22857e-13
-2.36223e-13
-3.60817e-12
-7.89437e-13
-2.65909e-12
2.46256e-12
-9.96846e-12
4.66589e-13
1.9211e-11
-1.24837e-14
-9.39865e-13
2.9251e-13
-5.29468e-12
2.0172e-13
1.73477e-12
5.89654e-14
9.35179e-13
1.34141e-13
3.71037e-13
1.75109e-13
1.13058e-13
1.81585e-13
-1.24768e-13
1.77372e-13
1.25647e-14
1.74222e-13
3.3047e-13
1.67801e-13
3.81264e-13
1.48445e-13
4.78183e-15
1.52164e-13
-1.00263e-13
1.38873e-13
-7.77761e-13
1.45403e-13
2.04576e-13
1.28553e-13
6.09979e-13
1.17509e-13
4.36279e-13
1.42259e-13
1.56223e-13
1.70005e-13
-2.40179e-13
1.69511e-13
-2.68293e-13
1.76237e-13
-1.7405e-13
1.59315e-13
-2.19047e-14
1.71552e-13
-7.98925e-14
1.39063e-13
-4.03298e-14
1.27656e-13
-4.00566e-13
2.3174e-14
-7.8566e-13
-3.28702e-13
-1.81139e-12
-6.9122e-13
3.06335e-13
1.93665e-13
3.00748e-13
5.58638e-15
4.35659e-13
-1.3491e-13
1.24797e-12
-8.12315e-13
-9.35587e-13
2.18356e-12
5.98258e-13
9.54067e-14
6.08473e-13
-4.62854e-15
7.23374e-13
-2.49811e-13
1.26539e-12
-1.35433e-12
-3.43541e-12
3.76522e-12
6.8186e-13
-8.64537e-14
6.84727e-13
-7.4954e-15
5.01644e-13
-6.6728e-14
-6.14802e-13
-2.37887e-13
-1.79828e-12
-2.25194e-12
6.00944e-13
-1.87398e-13
6.07411e-13
-1.3962e-14
5.36394e-13
4.28892e-15
5.48745e-15
2.9302e-13
-4.76207e-13
-1.31658e-12
3.12602e-13
2.9864e-13
3.02929e-13
5.95949e-13
1.19742e-13
1.11028e-11
5.33113e-12
-5.91826e-12
1.7108e-11
-4.65293e-12
-6.59041e-12
-1.24119e-12
-1.34406e-11
6.10729e-13
-7.39548e-12
1.41909e-12
2.21825e-12
1.54579e-12
3.04411e-12
1.27213e-12
1.39144e-12
1.01642e-12
3.22464e-13
8.79373e-13
-3.26737e-14
8.31584e-13
-7.88066e-14
7.9632e-13
1.7307e-14
6.81643e-13
2.70202e-13
-5.2059e-13
3.79375e-13
-3.9912e-12
-1.37551e-13
-2.99793e-12
-3.65236e-12
4.30219e-12
-1.72686e-11
5.6496e-12
1.78636e-11
2.2456e-12
2.46414e-12
1.83293e-12
-4.88201e-12
6.82482e-13
2.88523e-12
3.38152e-13
1.27951e-12
5.95129e-13
1.14061e-13
7.48893e-13
-4.07061e-14
7.50927e-13
-1.26803e-13
7.21748e-13
4.17444e-14
7.33752e-13
3.18465e-13
8.14718e-13
3.00299e-13
8.57459e-13
-3.7959e-14
8.28575e-13
-7.13796e-14
6.16441e-13
-5.65627e-13
6.38857e-13
1.82161e-13
6.9767e-13
5.51166e-13
7.33606e-13
4.00344e-13
8.13868e-13
7.59606e-14
8.32439e-13
-2.5875e-13
8.06996e-13
-2.42849e-13
7.74142e-13
-1.41196e-13
7.54356e-13
-2.11867e-15
7.01851e-13
-2.73873e-14
6.51429e-13
1.00922e-14
3.80911e-13
-1.30049e-13
-2.0069e-13
-2.04059e-13
-6.53915e-13
-1.35817e-12
-8.19177e-13
5.99648e-12
3.09987e-12
1.07686e-11
1.23359e-11
-7.40835e-12
1.15866e-11
-1.39305e-12
-1.94559e-11
-1.25302e-12
-7.53551e-12
2.67394e-13
6.97835e-13
9.63745e-13
2.34776e-12
1.04079e-12
1.31439e-12
9.34864e-13
4.28394e-13
8.51302e-13
5.08886e-14
8.1246e-13
-3.99642e-14
7.96781e-13
3.29856e-14
8.19097e-13
2.47886e-13
4.76447e-13
7.22026e-13
2.80216e-13
5.86798e-14
7.35958e-12
-1.07317e-11
-1.64029e-13
-9.74498e-12
4.1238e-12
1.35758e-11
3.28936e-12
3.29858e-12
1.65847e-12
-3.25112e-12
-1.37044e-13
4.68074e-12
4.03067e-13
7.39398e-13
5.81159e-13
-6.40313e-14
6.44685e-13
-1.04232e-13
6.03783e-13
-8.59005e-14
5.82406e-13
6.31209e-14
6.45734e-13
2.55138e-13
6.79235e-13
2.66797e-13
7.55775e-13
-1.14499e-13
7.80979e-13
-9.65834e-14
5.5249e-13
-3.37138e-13
5.63467e-13
1.71184e-13
7.25049e-13
3.89584e-13
8.53483e-13
2.71909e-13
9.01536e-13
2.79078e-14
8.44651e-13
-2.01865e-13
7.76225e-13
-1.74423e-13
7.21236e-13
-8.6208e-14
6.99734e-13
1.93836e-14
6.37655e-13
3.46919e-14
5.68731e-13
7.90162e-14
2.05491e-13
2.33191e-13
-5.85464e-13
5.86896e-13
-3.24819e-12
1.30456e-12
-1.39586e-12
5.48336e-13
2.99594e-13
9.78901e-12
3.09519e-12
1.25263e-11
8.84928e-12
1.81735e-12
-8.747e-12
-1.71151e-12
-4.00666e-12
-7.9275e-13
-2.20925e-13
1.88005e-13
1.36701e-12
6.25455e-13
8.76942e-13
7.24911e-13
3.28939e-13
7.23219e-13
5.25802e-14
7.06898e-13
-2.3643e-14
7.20486e-13
1.9397e-14
8.1871e-13
1.49663e-13
9.84747e-13
5.55989e-13
6.46512e-13
3.96914e-13
-6.63971e-12
-3.4455e-12
-6.77441e-12
-9.61028e-12
-4.39558e-13
7.2409e-12
1.81371e-12
1.0453e-12
1.31732e-12
-2.75473e-12
-2.85943e-13
6.28401e-12
3.37259e-13
1.16197e-13
4.53355e-13
-1.80127e-13
4.58223e-13
-1.09101e-13
4.15596e-13
-4.32738e-14
4.13619e-13
6.50982e-14
5.32126e-13
1.36631e-13
6.48503e-13
1.50419e-13
6.37879e-13
-1.03874e-13
5.9342e-13
-5.2124e-14
4.3088e-13
-1.74599e-13
4.90589e-13
1.11475e-13
6.65328e-13
2.14845e-13
7.97497e-13
1.39741e-13
8.18872e-13
6.53201e-15
7.36759e-13
-1.19752e-13
6.52692e-13
-9.03552e-14
6.03983e-13
-3.75e-14
5.90117e-13
3.32505e-14
5.667e-13
5.81083e-14
5.29604e-13
1.16112e-13
4.02467e-13
3.60328e-13
-1.11184e-13
1.10055e-12
-2.09424e-12
3.28761e-12
-1.75007e-12
-2.39367e-13
-7.7762e-13
2.72647e-12
1.29351e-13
7.6376e-12
3.93815e-12
1.19661e-12
-2.30602e-12
-1.20467e-12
-1.60537e-12
-1.15331e-12
-2.72286e-13
-2.91951e-13
5.05645e-13
2.58351e-13
3.2664e-13
4.64793e-13
1.22496e-13
5.04438e-13
1.29348e-14
4.98477e-13
-1.76817e-14
5.23014e-13
-5.14075e-15
6.36475e-13
3.62023e-14
9.79328e-13
2.13135e-13
1.1075e-12
2.68744e-13
-7.56604e-13
-1.5814e-12
-6.98503e-12
-3.38186e-12
-2.30754e-12
2.56341e-12
-1.12186e-12
-1.40377e-13
-1.51255e-12
-2.36404e-12
2.14411e-13
4.55705e-12
3.78626e-13
-4.80177e-14
3.15708e-13
-1.1721e-13
2.59799e-13
-5.31915e-14
2.38579e-13
-2.20539e-14
2.8463e-13
1.90467e-14
3.8568e-13
3.55804e-14
5.07744e-13
2.83557e-14
4.35888e-13
-3.2019e-14
3.86596e-13
-2.83166e-15
2.70617e-13
-5.86193e-14
3.44508e-13
3.75839e-14
4.91934e-13
6.7419e-14
5.87858e-13
4.38167e-14
5.93408e-13
9.8182e-16
5.13526e-13
-3.98696e-14
4.48123e-13
-2.49521e-14
4.14797e-13
-4.17379e-15
4.22416e-13
2.56312e-14
4.53074e-13
2.74506e-14
4.81928e-13
8.72583e-14
6.95421e-13
1.46835e-13
1.25661e-12
5.39357e-13
2.2241e-12
2.32012e-12
1.6845e-13
-6.57878e-13
-5.28527e-13
3.40962e-12
1.1036e-12
-5.01773e-13
-7.74059e-13
-2.68414e-13
5.82258e-14
1.80722e-13
1.93657e-13
1.75975e-13
1.70834e-13
2.07037e-13
4.20171e-13
6.88915e-13
-8.92481e-13
-4.27434e-12
-1.71092e-12
-1.8513e-12
-4.21534e-12
3.41705e-13
2.93688e-13
1.76478e-13
1.23286e-13
1.01233e-13
1.20279e-13
1.5586e-13
1.84215e-13
1.52196e-13
1.49365e-13
9.07454e-14
1.28329e-13
1.95748e-13
2.39565e-13
2.40547e-13
2.00677e-13
1.75725e-13
1.71551e-13
1.97182e-13
2.24633e-13
3.11891e-13
4.58726e-13
9.98084e-13
3.3182e-12
)
;

boundaryField
{
    AirInlet
    {
        type            calculated;
        value           nonuniform List<scalar> 5(-2e-13 -2e-13 -2e-13 -2e-13 -2e-13);
    }
    WaterInlet
    {
        type            calculated;
        value           nonuniform List<scalar> 10(-5e-13 -5e-13 -5e-13 -5e-13 -5e-13 -5e-13 -5e-13 -5e-13 -5e-13 -5e-13);
    }
    ChannelWall
    {
        type            calculated;
        value           uniform 0;
    }
    Outlet
    {
        type            calculated;
        value           nonuniform List<scalar> 
15
(
-5.19301e-12
3.53819e-12
2.24145e-12
3.77778e-12
3.54947e-12
-1.59453e-13
-2.47727e-13
3.06203e-13
-3.93584e-13
-2.74076e-13
-5.25957e-13
-2.6715e-12
-1.74003e-12
3.05586e-13
3.48665e-12
)
;
    }
    FrontAndBack
    {
        type            empty;
        value           nonuniform 0();
    }
}


// ************************************************************************* //
