/*--------------------------------*- C++ -*----------------------------------*\
| =========                 |                                                 |
| \\      /  F ield         | OpenFOAM: The Open Source CFD Toolbox           |
|  \\    /   O peration     | Version:  2.3.0                                 |
|   \\  /    A nd           | Web:      www.OpenFOAM.org                      |
|    \\/     M anipulation  |                                                 |
\*---------------------------------------------------------------------------*/
FoamFile
{
    version     2.0;
    format      ascii;
    class       volScalarField;
    location    "1e-06";
    object      alpha.fuel;
}
// * * * * * * * * * * * * * * * * * * * * * * * * * * * * * * * * * * * * * //

dimensions      [0 0 0 0 0 0 0];

internalField   nonuniform List<scalar> 
7500
(
1
1
1
1
1
1
1
1
1
1
0.67692139
0.010934808
7.9790716e-09
1.5751615e-09
1.8774365e-10
1.388899e-11
6.4263264e-13
1.9282102e-14
3.9073367e-16
5.5484554e-18
5.7018073e-20
4.3604323e-22
2.5424815e-24
1.1544561e-26
4.1583141e-29
1.2076041e-31
2.8681953e-34
5.6423676e-37
9.2973229e-40
1.2961108e-42
1.5424033e-45
1.5794644e-48
1.4018911e-51
1.0855344e-54
7.3767304e-58
4.422902e-61
2.3512571e-64
1.1132356e-67
4.713597e-71
1.7915895e-74
6.1342551e-78
1.8981372e-81
5.3240561e-85
1.3574598e-88
3.1544573e-92
6.6975104e-96
1.3023085e-99
2.3243327e-103
3.8159129e-107
5.7744901e-111
8.0708274e-115
1.0439222e-118
1.2520149e-122
1.3950317e-126
1.4468937e-130
1.3996569e-134
1.2653469e-138
1.0712573e-142
8.5113048e-147
6.3602378e-151
4.480461e-155
2.9825474e-159
1.880881e-163
1.1266619e-167
6.4282353e-172
3.5036782e-176
1.8298763e-180
9.1870804e-185
4.4488313e-189
2.0851624e-193
9.493503e-198
4.2142617e-202
1.8309729e-206
7.8162253e-211
3.2913512e-215
1
1
1
1
1
1
1
1
1
1
0.46067621
5.9202355e-09
2.2731376e-09
5.3128986e-10
7.0831034e-11
5.4939856e-12
2.6032485e-13
7.9218004e-15
1.6188046e-16
2.3090902e-18
2.3771821e-20
1.8178567e-22
1.0586043e-24
4.7967723e-27
1.7232983e-29
4.9899995e-32
1.1815107e-34
2.3168869e-37
3.8054546e-40
5.2881882e-43
6.2734106e-46
6.4045755e-49
5.6677218e-52
4.3761582e-55
2.9655841e-58
1.7733367e-61
9.4028624e-65
4.440775e-68
1.8757215e-71
7.1125886e-75
2.4296843e-78
7.5013013e-82
2.0993819e-85
5.3411071e-89
1.2385032e-92
2.6240008e-96
5.0915486e-100
9.0682756e-104
1.4856554e-107
2.2435063e-111
3.1291382e-115
4.0389196e-119
4.8338464e-123
5.3746249e-127
5.5625598e-131
5.3693998e-135
4.8436287e-139
4.091685e-143
3.2437016e-147
2.4184826e-151
1.6998288e-155
1.1289385e-159
7.1028401e-164
4.2446254e-168
2.416016e-172
1.3136569e-176
6.8441088e-181
3.4276644e-185
1.6556978e-189
7.7406742e-194
3.515276e-198
1.5564658e-202
6.7449271e-207
2.8718618e-211
1.2061876e-215
1
1
1
1
1
1
1
1
1
1
0.50097175
0.0058181296
2.5386013e-09
5.181696e-10
6.1827473e-11
4.5120518e-12
2.0562257e-13
6.0678128e-15
1.2077531e-16
1.6837761e-18
1.6990602e-20
1.2764844e-22
7.3161445e-25
3.2673112e-27
1.1581417e-29
3.3116278e-32
7.7490096e-35
1.5027258e-37
2.4424833e-40
3.3609196e-43
3.950502e-46
3.9985544e-49
3.5103182e-52
2.6903585e-55
1.8107188e-58
1.0759416e-61
5.6719768e-65
2.664501e-68
1.1199515e-71
4.2277381e-75
1.4382705e-78
4.423683e-82
1.2337525e-85
3.1287925e-89
7.2336786e-93
1.5284085e-96
2.9581865e-100
5.2562778e-104
8.5924937e-108
1.2949059e-111
1.8026072e-115
2.3225055e-119
2.774879e-123
3.0803409e-127
3.1831736e-131
3.0681615e-135
2.7638769e-139
2.3316911e-143
1.8460932e-147
1.3747389e-151
9.6508475e-156
6.402215e-160
4.0235249e-164
2.4018297e-168
1.3656613e-172
7.4178233e-177
3.8607588e-181
1.9316313e-185
9.3214888e-190
4.3538016e-194
1.9753391e-198
8.7381698e-203
3.7832295e-207
1.6093818e-211
6.7534367e-216
1
1
1
1
1
1
1
1
1
1
0.96810671
0.15893488
1.8284589e-09
4.2525952e-10
5.1995958e-11
3.6997289e-12
1.6427604e-13
4.7705317e-15
9.4123146e-17
1.3058523e-18
1.3140697e-20
9.856761e-23
5.643942e-25
2.5186819e-27
8.9206319e-30
2.5479794e-32
5.9527943e-35
1.1519403e-37
1.8671885e-40
2.5606071e-43
2.9977176e-46
3.0201831e-49
2.63771e-52
2.0101354e-55
1.3446678e-58
7.938682e-62
4.1569132e-65
1.9393003e-68
8.09415e-72
3.0339354e-75
1.0248957e-78
3.1304539e-82
8.6717126e-86
2.1847359e-89
5.0192366e-93
1.0541453e-96
2.0286505e-100
3.5853116e-104
5.8315743e-108
8.7473331e-112
1.2124428e-115
1.5559227e-119
1.8522067e-123
2.049247e-127
2.111221e-131
2.0293083e-135
1.82345e-139
1.5347955e-143
1.2126252e-147
9.0129328e-152
6.3161804e-156
4.183348e-160
2.6251768e-164
1.5649421e-168
8.886744e-173
4.8211789e-177
2.5064253e-181
1.2526661e-185
6.0387218e-190
2.8176906e-194
1.2771577e-198
5.6443287e-203
2.4414755e-207
1.0376582e-211
4.3504337e-216
1
1
1
1
1
1
1
1
1
1
0.85118416
0.16104026
1.658082e-09
3.8380357e-10
4.7216602e-11
3.3225391e-12
1.4419589e-13
4.0785037e-15
7.8401812e-17
1.0611151e-18
1.043055e-20
7.6531429e-23
4.2926401e-25
1.8792081e-27
6.5382076e-30
1.8369148e-32
4.2265097e-35
8.0644995e-38
1.2904278e-40
1.7490429e-43
2.0261919e-46
2.0224707e-49
1.7521237e-52
1.3261074e-55
8.820674e-59
5.1840633e-62
2.7052484e-65
1.2590598e-68
5.2475306e-72
1.9658586e-75
6.6424302e-79
2.0307325e-82
5.6338033e-86
1.4221888e-89
3.2751073e-93
6.8967702e-97
1.3310678e-100
2.3595181e-104
3.8495539e-108
5.7919642e-112
8.0521339e-116
1.0363144e-119
1.2370437e-123
1.3721695e-127
1.4170386e-131
1.3650265e-135
1.2289636e-139
1.0362239e-143
8.1996302e-148
6.1024953e-152
4.2813652e-156
2.8382826e-160
1.7824481e-164
1.0631925e-168
6.0401299e-173
3.2778381e-177
1.7043793e-181
8.5187587e-186
4.1065127e-190
1.9158925e-194
8.6823874e-199
3.836145e-203
1.6588162e-207
7.0476131e-212
2.9535461e-216
1
1
1
1
1
0.99999999
1
1
1
0.84975854
0.25862454
0.0077639476
1.7226712e-09
3.7496387e-10
4.2420945e-11
2.8112381e-12
1.1638419e-13
3.1501725e-15
5.8116964e-17
7.5966504e-19
7.2767052e-21
5.2528542e-23
2.9240223e-25
1.2794252e-27
4.4733923e-30
1.2680002e-32
2.9516066e-35
5.707998e-38
9.2667307e-41
1.2748856e-43
1.4990012e-46
1.5179085e-49
1.3329449e-52
1.0214873e-55
6.8705845e-59
4.0772253e-62
2.1449977e-65
1.0048326e-68
4.2085369e-72
1.5818811e-75
5.3547579e-79
1.6377338e-82
4.5394757e-86
1.1435783e-89
2.6253637e-93
5.5065194e-97
1.0577253e-100
1.8649683e-104
3.0250036e-108
4.5232937e-112
6.2481192e-116
7.9887774e-120
9.4733889e-124
1.0439402e-127
1.0711315e-131
1.0253354e-135
9.1752586e-140
7.6911955e-144
6.052207e-148
4.4805649e-152
3.1278433e-156
2.0639044e-160
1.2904933e-164
7.6663255e-169
4.3389611e-173
2.3464625e-177
1.2161729e-181
6.0606286e-186
2.9135918e-190
1.3559231e-194
6.1305277e-199
2.7028827e-203
1.1664741e-207
4.9468346e-212
2.0696459e-216
1
1
1
1
0.99999996
0.99999994
1
1
1
0.65869418
3.0537485e-09
1.7500389e-09
9.2619128e-10
2.0854594e-10
2.478827e-11
1.688887e-12
7.0913111e-14
1.9525076e-15
3.7063139e-17
5.0424987e-19
5.065607e-21
3.8465202e-23
2.2509842e-25
1.0324297e-27
3.7678499e-30
1.109283e-32
2.6678723e-35
5.3021636e-38
8.799709e-41
1.231337e-43
1.4654954e-46
1.4954381e-49
1.3179837e-52
1.010004e-55
6.7714373e-59
3.9942963e-62
2.0838373e-65
9.6613729e-69
3.9984823e-72
1.4832703e-75
4.9507741e-79
1.4920939e-82
4.074052e-86
1.0108947e-89
2.2860703e-93
4.7244927e-97
8.94563e-101
1.5556206e-104
2.4901578e-108
3.6772941e-112
5.0201717e-116
6.3486058e-120
7.4519034e-124
8.1345083e-128
8.2739256e-132
7.8569124e-136
6.9792177e-140
5.8109763e-144
4.5444144e-148
3.3452244e-152
2.3230733e-156
1.5254878e-160
9.4958107e-165
5.6176989e-169
3.167186e-173
1.7065762e-177
8.8151004e-182
4.3787997e-186
2.0986926e-190
9.7388669e-195
4.3912639e-199
1.9310695e-203
8.3134655e-208
3.5174325e-212
1.4683719e-216
1
1
1
1
1
0.99998976
0.99997986
1
1
0.93013444
0.11964712
1.2288871e-09
4.7475266e-10
1.1740912e-10
1.7168613e-11
1.4569747e-12
7.444921e-14
2.4009493e-15
5.1138143e-17
7.49358e-19
7.8287694e-21
6.0130591e-23
3.4863641e-25
1.5611398e-27
5.5071587e-30
1.5573431e-32
3.5848544e-35
6.809113e-38
1.0801689e-40
1.4466319e-43
1.6514838e-46
1.6210006e-49
1.3785892e-52
1.0228953e-55
6.6629354e-59
3.8314263e-62
1.9547938e-65
8.8892628e-69
3.6178867e-72
1.3228609e-75
4.3606958e-79
1.3001013e-82
3.5162235e-86
8.6509943e-90
1.941263e-93
3.9829657e-97
7.4895123e-101
1.2936017e-104
2.0567672e-108
3.0165754e-112
4.0895092e-116
5.1347902e-120
5.9830813e-124
6.4823122e-128
6.54323e-132
6.1655872e-136
5.4344318e-140
4.4898254e-144
3.4843789e-148
2.5456553e-152
1.7548835e-156
1.144225e-160
7.0742071e-165
4.1580448e-169
2.3299366e-173
1.2482464e-177
6.4132216e-182
3.1699429e-186
1.5123952e-190
6.9889946e-195
3.1394241e-199
1.375845e-203
5.9049028e-208
2.4914519e-212
1.037499e-216
1
1
1
1
1
1
0.99916996
0.99799772
0.9991633
1
0.88497884
0.10276846
1.5796291e-09
4.0287263e-10
5.0646282e-11
3.606669e-12
1.5540172e-13
4.2763443e-15
7.9042016e-17
1.0254402e-18
9.6812619e-21
6.8475908e-23
3.7151901e-25
1.5771472e-27
5.3296216e-30
1.4558353e-32
3.259154e-35
6.0542504e-38
9.4365468e-41
1.2464812e-43
1.407774e-46
1.3702124e-49
1.1574757e-52
8.5397161e-56
5.534086e-59
3.1662883e-62
1.6069191e-65
7.2652517e-69
2.9380373e-72
1.0666776e-75
3.4889522e-79
1.0314979e-82
2.7650088e-86
6.7398147e-90
1.4980378e-93
3.0441009e-97
5.6694247e-101
9.7005293e-105
1.528334e-108
2.2220872e-112
2.9877732e-116
3.7228736e-120
4.3076117e-124
4.6376203e-128
4.6550306e-132
4.3650445e-136
3.831525e-140
3.1547426e-144
2.4416232e-148
1.7801482e-152
1.225379e-156
7.9824337e-161
4.9329912e-165
2.8993867e-169
1.6251334e-173
8.7113322e-178
4.4789904e-182
2.2157759e-186
1.0581182e-190
4.8941596e-195
2.2003278e-199
9.6503533e-204
4.1444951e-208
1.7495881e-212
7.2882932e-217
1
1
0.99999996
0.99999996
0.99999998
0.99999999
1
0.98789205
0.95454446
1
1
0.92383963
0.028142753
7.0910837e-10
8.0861435e-11
5.7456886e-12
2.9208579e-13
1.0286199e-14
2.4967014e-16
4.2417992e-18
5.1507705e-20
4.570204e-22
3.0282077e-24
1.5293469e-26
5.9981981e-29
1.857987e-31
4.6142896e-34
9.3117265e-37
1.5452999e-39
2.1315579e-42
2.4674689e-45
2.4178695e-48
2.0213489e-51
1.4520118e-54
9.0208441e-58
4.8760793e-61
2.3059074e-64
9.5894061e-68
3.5237644e-71
1.1493488e-74
3.3418784e-78
8.6977581e-82
2.0343573e-85
4.2927836e-89
8.2038572e-93
1.4254511e-96
2.2608326e-100
3.286681e-104
4.3984185e-108
5.4432411e-112
6.2589044e-116
6.7192934e-120
6.7672576e-124
6.4226774e-128
5.7668487e-132
4.9140318e-136
3.9826509e-140
3.0740745e-144
2.2611697e-148
1.5853127e-152
1.0594835e-156
6.7509508e-161
4.103538e-165
2.3816992e-169
1.3217785e-173
7.0270742e-178
3.5868497e-182
1.7624291e-186
8.3607339e-191
3.8415193e-195
1.7154462e-199
7.4719949e-204
3.186511e-208
1.3356605e-212
5.5245146e-217
1
1
0.99999986
0.99999974
1
1
1
1
0.90400491
0.6810011
0.57547989
0.24506361
0.0099641416
9.7699053e-10
2.8742415e-10
4.6910457e-11
3.7199744e-12
1.5647299e-13
3.8356066e-15
5.9109511e-17
6.0842279e-19
4.3961063e-21
2.3252066e-23
9.3319561e-26
2.9299542e-28
7.3806218e-31
1.5217422e-33
2.6069776e-36
3.7519548e-39
4.5734395e-42
4.7522659e-45
4.2332291e-48
3.2496672e-51
2.1607864e-54
1.2506684e-57
6.331539e-61
2.8164628e-64
1.1056569e-67
3.846444e-71
1.1905401e-74
3.2911181e-78
8.1565235e-82
1.819253e-85
3.6663387e-89
6.7043666e-93
1.1175344e-96
1.7066108e-100
2.4010032e-104
3.130781e-108
3.8076018e-112
4.3459602e-116
4.6814903e-120
4.7804232e-124
4.6405425e-128
4.2875551e-132
3.7697356e-136
3.1508288e-140
2.5002621e-144
1.8815394e-148
1.3419721e-152
9.0715944e-157
5.8159453e-161
3.5407695e-165
2.0506164e-169
1.1322436e-173
5.9756165e-178
3.0231864e-182
1.4707882e-186
6.903921e-191
3.1378917e-195
1.3860463e-199
5.9726814e-204
2.520624e-208
1.0459721e-212
4.2849658e-217
1
0.99999999
1
0.99997668
0.99994638
1
1
1
0.89325205
0.21417712
6.9937972e-09
5.7954579e-09
5.5948202e-09
2.4550357e-05
8.5359307e-10
1.1220946e-10
7.8980754e-12
2.8501502e-13
5.9105658e-15
7.7055536e-17
6.7782918e-19
4.2591216e-21
2.0009525e-23
7.2829215e-26
2.1091181e-28
4.9561376e-31
9.5904554e-34
1.5462188e-36
2.0974772e-39
2.4143378e-42
2.3756534e-45
2.0112212e-48
1.473351e-51
9.3875501e-55
5.2271038e-58
2.5550474e-61
1.1012647e-64
4.2040749e-68
1.4279421e-71
4.3357963e-75
1.1828192e-78
2.9145985e-82
6.5242725e-86
1.3347787e-89
2.5114773e-93
4.3729903e-97
7.0865395e-101
1.0739009e-104
1.5270811e-108
2.0416374e-112
2.5678967e-116
3.0373581e-120
3.3755941e-124
3.5214916e-128
3.4460427e-132
3.1623835e-136
2.7221133e-140
2.1994069e-144
1.6699951e-148
1.1934526e-152
8.0424705e-157
5.1215989e-161
3.0895743e-165
1.7701483e-169
9.6597607e-174
5.035894e-178
2.5160693e-182
1.2088049e-186
5.6039409e-191
2.515994e-195
1.0980742e-199
4.6766243e-204
1.9512905e-208
8.0082143e-213
3.2458488e-217
1
0.99999999
0.99999999
1
0.99950722
0.99890107
1
1
0.94715171
0.14292148
5.9047177e-09
5.0472475e-09
4.5031445e-09
2.0366801e-06
1.0011525e-07
2.8103464e-09
5.4238798e-11
7.491229e-13
7.6759545e-15
6.0840755e-17
3.8527223e-19
1.9790641e-21
8.2719886e-24
2.8136225e-26
7.8087535e-29
1.7792902e-31
3.3571844e-34
5.294847e-37
7.0447883e-40
7.9737985e-43
7.7357018e-46
6.475805e-49
4.7069982e-52
2.988314e-55
1.6667741e-58
8.2156774e-62
3.6000373e-65
1.4108309e-68
4.9744836e-72
1.5873061e-75
4.6089307e-79
1.2238107e-82
2.9841935e-86
6.7047652e-90
1.3913633e-93
2.6711918e-97
4.7491134e-101
7.8238801e-105
1.1948413e-108
1.6921772e-112
2.2235347e-116
2.7126647e-120
3.075281e-124
3.2432888e-128
3.1861348e-132
2.9199133e-136
2.5005212e-140
2.0046855e-144
1.5076019e-148
1.0658316e-152
7.0999467e-157
4.4674092e-161
2.6621176e-165
1.5065177e-169
8.1202593e-174
4.1817303e-178
2.0641544e-182
9.7994997e-187
4.4903429e-191
1.9932675e-195
8.6042085e-200
3.6258452e-204
1.4975834e-208
6.087111e-213
2.44478e-217
1
0.99999997
0.99999998
1
1
0.99418409
0.98793819
0.99963025
0.99996851
0.28271486
5.4374614e-09
4.3466958e-09
3.9321652e-09
2.0241387e-09
1.0518368e-08
4.5399604e-10
1.0584808e-11
1.632228e-13
1.829502e-15
1.575223e-17
1.0704164e-19
5.8024872e-22
2.526015e-24
8.9142549e-27
2.5838726e-29
6.2473971e-32
1.2799503e-34
2.2539289e-37
3.4511728e-40
4.6332887e-43
5.4822212e-46
5.7322649e-49
5.3023116e-52
4.3404589e-55
3.1454358e-58
2.0192293e-61
1.1495674e-64
5.8130452e-68
2.6159206e-71
1.0498724e-74
3.7665618e-78
1.2108427e-81
3.4962994e-85
9.0895421e-89
2.1325624e-92
4.5255981e-96
8.7061362e-100
1.5215435e-103
2.4208237e-107
3.5136018e-111
4.661529e-115
5.6644438e-119
6.3168781e-123
6.4778432e-127
6.1209268e-131
5.3401756e-135
4.3108425e-139
3.226897e-143
2.2449763e-147
1.4550472e-151
8.8079013e-156
4.992923e-160
2.6580142e-164
1.3329055e-168
6.3168334e-173
2.839146e-177
1.2148451e-181
4.9693278e-186
1.9519801e-190
7.3992252e-195
2.7211343e-199
9.765168e-204
3.4409161e-208
1.1983477e-212
4.1528941e-217
1
0.99999841
1
1
0.9999986
1
0.94657192
0.96985296
0.98117467
0.42149374
0.010721193
2.2943086e-09
2.9984394e-09
1.4549729e-09
1.2603164e-09
6.7762809e-11
1.8756573e-12
3.4095984e-14
4.5038519e-16
4.5568582e-18
3.6488473e-20
2.3698092e-22
1.2717877e-24
5.7038049e-27
2.1468245e-29
6.7815179e-32
1.7965765e-34
3.994062e-37
7.4696362e-40
1.1798558e-42
1.5818198e-45
1.8098758e-48
1.7771764e-51
1.5058944e-54
1.1069937e-57
7.0953105e-61
3.9841558e-64
1.9686824e-67
8.5961295e-71
3.3297898e-74
1.1484455e-77
3.5390033e-81
9.7755118e-85
2.4278407e-88
5.4373723e-92
1.101165e-95
2.021921e-99
3.3746845e-103
5.1325049e-107
7.1300065e-111
9.068276e-115
1.0583315e-118
1.1359314e-122
1.1237646e-126
1.0269393e-130
8.6878637e-135
6.8192751e-139
4.9772642e-143
3.3857918e-147
2.1516129e-151
1.2804297e-155
7.153753e-160
3.7622961e-164
1.8678111e-168
8.7795205e-173
3.9196902e-177
1.6678667e-181
6.7888787e-186
2.6539103e-190
1.000667e-194
3.6561467e-199
1.3009678e-203
4.5327902e-208
1.5553529e-212
5.2882698e-217
1
1
0.9999954
0.99978068
0.99977496
0.99999652
1
0.94711222
0.96813331
0.93727397
0.017870306
1.6665063e-09
1.2709887e-09
2.3259581e-11
2.3743533e-11
1.0826477e-11
5.0010566e-13
1.326259e-14
2.5435429e-16
3.7903958e-18
4.4329852e-20
4.0405423e-22
2.8594319e-24
1.5766178e-26
6.8319504e-29
2.3528912e-31
6.5176433e-34
1.4692938e-36
2.7256182e-39
4.2034635e-42
5.4401541e-45
5.9593322e-48
5.5687992e-51
4.4709953e-54
3.104305e-57
1.8751991e-60
9.9094894e-64
4.6045746e-67
1.8902142e-70
6.8852095e-74
2.2344805e-77
6.4854122e-81
1.6894259e-84
3.9629633e-88
8.3970617e-92
1.6118469e-95
2.8105743e-99
4.4633095e-103
6.4708719e-107
8.5844196e-111
1.0443679e-114
1.1676304e-118
1.2021361e-122
1.1420052e-126
1.0030251e-130
8.1611703e-135
6.1641527e-139
4.3309743e-143
2.8368696e-147
1.7363467e-151
9.9550303e-156
5.3604423e-160
2.7185926e-164
1.3026028e-168
5.9164866e-173
2.556798e-177
1.0555032e-181
4.180922e-186
1.5967374e-190
5.9105701e-195
2.1326708e-199
7.5462984e-204
2.6349898e-208
9.1368893e-213
3.1656063e-217
1
1
0.9998773
0.99963622
0.99999984
1
1
0.87107977
0.917778
0.95353588
0.56702225
6.0314085e-10
6.5430064e-11
2.546599e-05
4.0821825e-07
5.2158499e-10
2.0440065e-11
2.8552543e-13
2.0807357e-15
1.2896471e-17
1.0576531e-19
9.0769652e-22
6.2662197e-24
3.3146318e-26
1.3560852e-28
4.3624181e-31
1.120995e-33
2.3338773e-36
3.9871649e-39
5.6533813e-42
6.7215095e-45
6.7635468e-48
5.8090107e-51
4.291453e-54
2.746367e-57
1.5324844e-60
7.5011259e-64
3.2385897e-67
1.2396566e-70
4.2266941e-74
1.2892049e-77
3.5315883e-81
8.7195953e-85
1.9467378e-88
3.9416452e-92
7.2570749e-96
1.2178997e-99
1.8672087e-103
2.6206125e-107
3.3735566e-111
3.9908185e-115
4.3463225e-119
4.3658081e-123
4.052298e-127
3.4823511e-131
2.7762712e-135
2.0578356e-139
1.4214531e-143
9.1733664e-148
5.5463074e-152
3.1512464e-156
1.688197e-160
8.5592022e-165
4.1235939e-169
1.8961366e-173
8.3613401e-178
3.5536072e-182
1.4631557e-186
5.8665236e-191
2.3020248e-195
8.8819016e-200
3.3837897e-204
1.2776869e-208
4.7971395e-213
1.79611e-217
1
1
1
0.9998032
0.99828937
0.99876497
0.9998077
1
0.8144227
0.95354012
0.95354499
0.66051383
0.12818402
4.8320947e-09
6.3505286e-08
1.1872542e-09
1.3978301e-11
1.3937222e-13
1.9155019e-15
2.9432568e-17
3.5051089e-19
3.0113382e-21
1.8935386e-23
8.9264847e-26
3.2258834e-28
9.1138567e-31
2.0482068e-33
3.7186053e-36
5.5305261e-39
6.8237104e-42
7.0658165e-45
6.2059943e-48
4.6691424e-51
3.036627e-54
1.7215795e-57
8.5743838e-61
3.7781634e-64
1.4822345e-67
5.2066116e-71
1.6456052e-74
4.6995338e-78
1.2169944e-81
2.8663471e-85
6.1557237e-89
1.2080843e-92
2.1709388e-96
3.5789101e-100
5.4228469e-104
7.5671649e-108
9.7451142e-112
1.1608818e-115
1.2824053e-119
1.3172711e-123
1.2617925e-127
1.1304785e-131
9.501865e-136
7.5146018e-140
5.6073141e-144
3.9576921e-148
2.6479943e-152
1.6826456e-156
1.0171054e-160
5.8567669e-165
3.2170842e-169
1.6880904e-173
8.475006e-178
4.0782746e-182
1.8849771e-186
8.3880295e-191
3.6033017e-195
1.4987072e-199
6.0550008e-204
2.384534e-208
9.1871686e-213
3.4763359e-217
0.99999963
0.99999959
1
1
0.9936643
0.99246391
0.998898
1
0.67547562
0.69678257
0.95355043
0.92861621
0.18705361
3.1283593e-09
1.4959848e-09
4.4409911e-10
2.3914461e-11
7.7454337e-13
1.5170778e-14
1.9064965e-16
1.6321591e-18
1.000523e-20
4.5777511e-23
1.6193965e-25
4.5644924e-28
1.051299e-30
2.0196538e-33
3.2891632e-36
4.5980458e-39
5.5697953e-42
5.8872977e-45
5.4572255e-48
4.4513699e-51
3.2024215e-54
2.0353168e-57
1.144311e-60
5.6992604e-64
2.5185421e-67
9.8935696e-71
3.4623713e-74
1.0821158e-77
3.0284804e-81
7.6120648e-85
1.7238121e-88
3.5293045e-92
6.5575054e-96
1.1102806e-99
1.7208131e-103
2.4533857e-107
3.2342743e-111
3.9632702e-115
4.5372275e-119
4.8744473e-123
4.9315475e-127
4.7095195e-131
4.2501105e-135
3.625132e-139
2.9211263e-143
2.2222352e-147
1.5951743e-151
1.0802533e-155
6.9035378e-160
4.1667756e-164
2.3783811e-168
1.2861285e-172
6.6031676e-177
3.2268662e-181
1.5052108e-185
6.7226706e-190
2.8843808e-194
1.1930302e-198
4.7745442e-203
1.8558503e-207
7.0336529e-212
2.6096282e-216
1
0.99999802
0.99997766
0.99998795
1
1
1
1
0.889282
0.14991393
0.29690431
0.14744525
0.0051236637
2.4006757e-07
3.7342434e-09
4.6588906e-10
2.3970121e-11
6.6497852e-13
1.1124778e-14
1.2165239e-16
9.2473997e-19
5.1389879e-21
2.1808978e-23
7.3451285e-26
2.0288828e-28
4.7161035e-31
9.3864851e-34
1.6146771e-36
2.4093971e-39
3.1208728e-42
3.5090496e-45
3.4267185e-48
2.9106546e-51
2.1557224e-54
1.396692e-57
7.9469072e-61
3.9881439e-64
1.7735991e-67
7.0243119e-71
2.4902948e-74
7.9447262e-78
2.2928198e-81
6.0164134e-85
1.4422646e-88
3.1718531e-92
6.4215963e-96
1.1999657e-99
2.0732786e-103
3.3155681e-107
4.9100155e-111
6.7345464e-115
8.5558933e-119
1.0069621e-122
1.0982185e-126
1.1105414e-130
1.0421024e-134
9.0843114e-139
7.3666113e-143
5.565831e-147
3.925255e-151
2.58917e-155
1.6009301e-159
9.3014111e-164
5.0911309e-168
2.6325076e-172
1.289707e-176
6.0052075e-181
2.6662519e-185
1.1326599e-189
4.6203694e-194
1.8165446e-198
6.9099709e-203
2.5531549e-207
9.2002977e-212
3.2466316e-216
1
1
0.99980921
0.99984143
1
0.88599887
0.42454493
0.85622977
0.89732635
0.091986067
3.0666929e-09
2.241921e-09
1.5652083e-09
1.2081416e-08
3.4744962e-09
3.2021618e-10
1.3636158e-11
3.2309051e-13
4.7800291e-15
4.8041686e-17
3.5153397e-19
1.9871503e-21
9.0930016e-24
3.4669117e-26
1.1131357e-28
3.0071554e-31
6.8096443e-34
1.290328e-36
2.0489138e-39
2.7374688e-42
3.0947247e-45
2.9795759e-48
2.4599728e-51
1.753902e-54
1.0875973e-57
5.9078749e-61
2.8316012e-64
1.2062115e-67
4.5998054e-71
1.5813288e-74
4.9329715e-78
1.4044017e-81
3.6659491e-85
8.8033875e-89
1.9488346e-92
3.9808428e-96
7.5045392e-100
1.3053162e-103
2.0941279e-107
3.0981276e-111
4.2270315e-115
5.3209251e-119
6.1841072e-123
6.6430433e-127
6.6046007e-131
6.0872373e-135
5.210741e-139
4.1514224e-143
3.0854911e-147
2.1448322e-151
1.3983581e-155
8.5767039e-160
4.9651233e-164
2.7226332e-168
1.4195437e-172
7.0658076e-177
3.371855e-181
1.5494477e-185
6.8870007e-190
2.9742407e-194
1.2535158e-198
5.1777597e-203
2.1045834e-207
8.4499511e-212
3.3631799e-216
1
1
1
1
1
0.37748657
1.950549e-08
0.2422221
0.80790963
0.22048925
3.1528277e-09
2.0541553e-09
9.7941996e-10
1.0621904e-09
1.7557075e-09
1.5950825e-10
6.6229459e-12
1.7120351e-13
3.2011676e-15
4.5615729e-17
4.9399637e-19
4.0234969e-21
2.4665049e-23
1.1499727e-25
4.1390126e-28
1.1686005e-30
2.628778e-33
4.7805365e-36
7.1230773e-39
8.8048188e-42
9.1341017e-45
8.0400325e-48
6.0681568e-51
3.9673292e-54
2.2695162e-57
1.1471553e-60
5.1720736e-64
2.0982627e-67
7.718235e-71
2.5898568e-74
7.9613285e-78
2.2476579e-81
5.8339688e-85
1.3922924e-88
3.054118e-92
6.1557159e-96
1.1398862e-99
1.9397433e-103
3.0353162e-107
4.3719274e-111
5.8038701e-115
7.1124126e-119
8.0601612e-123
8.4635357e-127
8.252147e-131
7.4882627e-135
6.339411e-139
5.0197846e-143
3.72787e-147
2.6037476e-151
1.7154081e-155
1.0692288e-159
6.3246783e-164
3.5613546e-168
1.914915e-172
9.8624658e-177
4.8804329e-181
2.3275196e-185
1.0730245e-189
4.79653e-194
2.0853333e-198
8.8451337e-203
3.6718401e-207
1.4966474e-211
6.0096673e-216
1
1
1
1
0.98642464
0.20311485
1.8767006e-08
0.10747681
0.57369411
0.55046083
0.058937844
2.6996169e-09
8.9509831e-07
1.4666878e-07
7.7462351e-10
8.4143059e-11
3.9797762e-12
1.2102822e-13
2.5968449e-15
3.9438317e-17
4.2565457e-19
3.3221986e-21
1.9186419e-23
8.3912589e-26
2.8396513e-28
7.5819267e-31
1.6258065e-33
2.8458383e-36
4.1286854e-39
5.0364892e-42
5.2374422e-45
4.7036432e-48
3.6923679e-51
2.5607555e-54
1.5829598e-57
8.7806673e-61
4.3905628e-64
1.9843691e-67
8.1177495e-71
3.0077314e-74
1.0097124e-77
3.0725436e-81
8.4803943e-85
2.1248918e-88
4.8389148e-92
1.0028172e-95
1.894072e-99
3.265587e-103
5.1480877e-107
7.4338872e-111
9.8508024e-115
1.2001909e-118
1.3471994e-122
1.396192e-126
1.338986e-130
1.1911767e-134
9.8553351e-139
7.6044701e-143
5.4886193e-147
3.7173789e-151
2.3706032e-155
1.4284807e-159
8.1637315e-164
4.4416471e-168
2.309357e-172
1.1517511e-176
5.5300124e-181
2.5650934e-185
1.1532433e-189
5.041215e-194
2.1490257e-198
8.9598158e-203
3.6639225e-207
1.4737892e-211
5.8484979e-216
1
1
1
1
0.74446236
0.037988978
1.6590639e-08
0.13985339
0.16146193
0.053394667
0.0077931949
3.6420587e-05
8.9948013e-07
8.6847482e-08
8.8764802e-10
1.4392694e-10
1.4352966e-11
7.0220895e-13
1.8452737e-14
2.8895999e-16
2.9128796e-18
2.0010374e-20
9.7874723e-23
3.5310598e-25
9.6807259e-28
2.071005e-30
3.5443824e-33
4.9746345e-36
5.8753439e-39
5.997322e-42
5.4288018e-45
4.4493318e-48
3.340875e-51
2.3026956e-54
1.4497646e-57
8.2783965e-61
4.2613393e-64
1.9699809e-67
8.1662727e-71
3.0358613e-74
1.0133466e-77
3.0426958e-81
8.236675e-85
2.0150933e-88
4.4667585e-92
8.9944468e-96
1.649641e-99
2.7631327e-103
4.2383172e-107
5.9699067e-111
7.7437257e-115
9.2766179e-119
1.0293307e-122
1.0610239e-126
1.0190093e-130
9.1447746e-135
7.6900855e-139
6.0759994e-143
4.5219631e-147
3.1774265e-151
2.1125372e-155
1.3316555e-159
7.9739754e-164
4.5443863e-168
2.4696116e-172
1.2823649e-176
6.3762309e-181
3.0430288e-185
1.397489e-189
6.192936e-194
2.6561359e-198
1.1061117e-202
4.487511e-207
1.7799444e-211
6.9277789e-216
0.99997491
1
0.98342731
1
0.44681435
0.013636897
1.575745e-08
0.0021185884
0.0024627591
3.3839901e-06
3.384495e-06
9.7257282e-06
2.3803829e-07
1.3314816e-09
5.0937317e-10
1.7169367e-09
1.7219986e-10
6.4776124e-12
1.2522496e-13
1.4374583e-15
1.0688107e-17
5.4661244e-20
2.0123574e-22
5.5390439e-25
1.181105e-27
2.0274182e-30
2.9346994e-33
3.7849966e-36
4.5777977e-39
5.3156482e-42
5.8512205e-45
5.9245938e-48
5.3767969e-51
4.3090571e-54
3.0311579e-57
1.8698354e-60
1.013171e-63
4.8357884e-67
2.0397561e-70
7.6294415e-74
2.5390953e-77
7.5434531e-81
2.0070494e-84
4.7972958e-88
1.0332631e-91
2.0114574e-95
3.5498091e-99
5.696624e-103
8.3388299e-107
1.1170507e-110
1.3740059e-114
1.5573668e-118
1.6326372e-122
1.5891097e-126
1.4417306e-130
1.2239669e-134
9.7596188e-139
7.3344846e-143
5.2107288e-147
3.5085817e-151
2.2437598e-155
1.3651138e-159
7.9128274e-164
4.375659e-168
2.3115667e-172
1.16843e-176
5.6615363e-181
2.6353992e-185
1.1815079e-189
5.1162697e-194
2.1467787e-198
8.7591047e-203
3.4881669e-207
1.3612163e-211
5.2270034e-216
1
0.89369872
0.20143053
0.36503402
0.085927306
0.00015629904
1.4039545e-08
1.2526533e-08
0.37651503
0.12709424
0.0025051408
2.5432094e-09
1.9382806e-09
1.2407178e-09
2.9705378e-10
3.4092106e-10
4.3774619e-10
1.4048994e-11
1.9791833e-13
1.6241539e-15
8.7801885e-18
3.3803733e-20
9.8691286e-23
2.3261561e-25
4.7632339e-28
9.164349e-31
1.7331838e-33
3.1642401e-36
5.2968826e-39
7.79898e-42
9.8943692e-45
1.0748413e-47
1.0005486e-50
8.0108355e-54
5.5426747e-57
3.3305126e-60
1.7464262e-63
8.0284439e-67
3.2496287e-70
1.1628543e-73
3.6929595e-77
1.044637e-80
2.6412798e-84
5.9894827e-88
1.2221638e-91
2.2514772e-95
3.7571127e-99
5.6987942e-103
7.8852719e-107
9.9910659e-111
1.1639582e-114
1.2522231e-118
1.2497988e-122
1.1627205e-126
1.0130868e-130
8.3044787e-135
6.4301576e-139
4.7186977e-143
3.2901309e-147
2.1835335e-151
1.3809174e-155
8.3290349e-160
4.7948207e-164
2.6370016e-168
1.3873021e-172
6.9937722e-177
3.3860894e-181
1.5787111e-185
7.1101779e-190
3.1041802e-194
1.318697e-198
5.4728284e-203
2.2281272e-207
8.9361684e-212
3.5453774e-216
1
0.30144271
7.071043e-09
5.7633773e-09
5.7633773e-09
5.8234504e-09
0.0049679476
1.2696571e-08
0.67874011
0.25682482
3.1235849e-09
2.0220661e-09
1.3667699e-09
6.7100215e-10
2.1556321e-10
5.6202385e-08
1.9808588e-09
2.8016698e-11
2.2625193e-13
1.1528674e-15
4.1151364e-18
1.1857718e-20
3.2601182e-23
9.5812567e-26
2.9397156e-28
8.5087233e-31
2.1483529e-33
4.567162e-36
8.0948939e-39
1.1978454e-41
1.4881347e-44
1.5628115e-47
1.3970333e-50
1.0700741e-53
7.066466e-57
4.0461674e-60
2.0193987e-63
8.8277964e-67
3.3955096e-70
1.1540612e-73
3.4799722e-77
9.3460094e-81
2.2439713e-84
4.834748e-88
9.383038e-92
1.6467809e-95
2.6246111e-99
3.8158478e-103
5.0857397e-107
6.2472142e-111
7.1135341e-115
7.5531747e-119
7.5218971e-123
7.0618377e-127
6.2757849e-131
5.2934755e-135
4.2430981e-139
3.2325476e-143
2.3392949e-147
1.6069068e-151
1.0472712e-155
6.4760935e-160
3.8023746e-164
2.1226351e-168
1.1288479e-172
5.7337012e-177
2.7898257e-181
1.3047605e-185
5.887035e-190
2.5725975e-194
1.0932471e-198
4.5366001e-203
1.8458846e-207
7.3946772e-212
2.9282867e-216
1
0.14413456
0.0016765376
6.9083152e-09
6.0988733e-09
5.9447057e-09
0.0074309799
0.096464675
0.41712319
0.19254052
0.0066712581
1.2774757e-09
7.7401794e-10
4.8754263e-10
7.8337067e-06
3.9509539e-07
5.1491642e-10
8.1870214e-12
5.2140501e-14
2.1610704e-16
8.4834645e-19
4.0357054e-21
2.120223e-23
1.0107646e-25
3.9786432e-28
1.2616103e-30
3.2243483e-33
6.6960353e-36
1.1412501e-38
1.6122641e-41
1.9055229e-44
1.9002577e-47
1.6114174e-50
1.1702799e-53
7.3265518e-57
3.9780846e-60
1.8840251e-63
7.8251425e-67
2.8653212e-70
9.2980212e-74
2.6880514e-77
6.9614109e-81
1.6244029e-84
3.4365808e-88
6.6353899e-92
1.1772991e-95
1.9324624e-99
2.9524428e-103
4.2189023e-107
5.6561929e-111
7.1238669e-115
8.4265778e-119
9.3490181e-123
9.7124704e-127
9.4335724e-131
8.5575824e-135
7.2473711e-139
5.7316999e-143
4.2369547e-147
2.9317746e-151
1.9026858e-155
1.1609266e-159
6.6780882e-164
3.6330218e-168
1.8756308e-172
9.2237509e-177
4.3378339e-181
1.9590961e-185
8.5336249e-190
3.6009925e-194
1.4785888e-198
5.9334679e-203
2.3370057e-207
9.0715823e-212
3.4839929e-216
0.40113281
1.842793e-08
1.6395852e-08
1.6315311e-08
7.2497688e-09
9.4461148e-05
7.1507876e-09
0.017923372
0.00040178239
0.34703288
1.8265733e-09
6.5206431e-10
4.8823994e-10
0.001060243
0.00010119892
6.1674137e-10
7.3184496e-11
9.5500328e-13
7.2505644e-15
6.0634586e-17
5.8852999e-19
5.0443193e-21
3.3772616e-23
1.7333697e-25
6.8826645e-28
2.1454593e-30
5.3280516e-33
1.068506e-35
1.7516035e-38
2.3729561e-41
2.6829221e-44
2.5542023e-47
2.064234e-50
1.4268327e-53
8.4945797e-57
4.3849454e-60
1.9754376e-63
7.8174234e-67
2.7357334e-70
8.5264789e-74
2.3848561e-77
6.0355435e-81
1.3940571e-84
2.9640162e-88
5.8462703e-92
1.076154e-95
1.8552331e-99
2.9981699e-103
4.5367902e-107
6.413101e-111
8.4469575e-115
1.0344677e-118
1.1763234e-122
1.2414117e-126
1.2162525e-130
1.1073694e-134
9.3845244e-139
7.4177594e-143
5.4818069e-147
3.7978963e-151
2.4740603e-155
1.5201369e-159
8.8384088e-164
4.8790313e-168
2.5658229e-172
1.2897882e-176
6.2181521e-181
2.8846189e-185
1.2918506e-189
5.6031188e-194
2.361198e-198
9.6985944e-203
3.8955451e-207
1.5351183e-211
5.9551309e-216
0.12614695
6.5446071e-05
1.8251856e-08
1.0812255e-07
1.6616354e-05
0.00024038876
2.9109688e-05
3.2059543e-05
0.00016296811
0.88493602
0.080986432
6.6409703e-10
0.12748711
0.014814044
8.1625065e-10
2.1771608e-10
1.0794963e-11
2.2485681e-13