/*--------------------------------*- C++ -*----------------------------------*\
| =========                 |                                                 |
| \\      /  F ield         | OpenFOAM: The Open Source CFD Toolbox           |
|  \\    /   O peration     | Version:  2.3.0                                 |
|   \\  /    A nd           | Web:      www.OpenFOAM.org                      |
|    \\/     M anipulation  |                                                 |
\*---------------------------------------------------------------------------*/
FoamFile
{
    version     2.0;
    format      ascii;
    class       volScalarField;
    location    "1e-06";
    object      nuSgs;
}
// * * * * * * * * * * * * * * * * * * * * * * * * * * * * * * * * * * * * * //

dimensions      [0 2 -1 0 0 0 0];

internalField   nonuniform List<scalar> 
7500
(
4.1469223e-10
4.2347746e-10
4.3828118e-10
4.7043013e-10
5.5343268e-10
9.5843583e-10
2.6250225e-09
7.362828e-09
2.0159399e-08
5.1172284e-08
1.02626e-07
1.1254323e-07
7.75566e-08
3.1781034e-08
1.1048895e-08
3.7484319e-09
1.4463613e-09
6.4793304e-10
3.1942123e-10
1.6844365e-10
9.3945383e-11
5.5033962e-11
3.3685968e-11
2.1455348e-11
1.4174055e-11
9.688514e-12
6.8396337e-12
4.9800478e-12
3.7360298e-12
2.8851877e-12
2.2915361e-12
1.8698069e-12
1.5653099e-12
1.3422179e-12
1.1766084e-12
1.0522176e-12
9.5780714e-13
8.8548967e-13
8.2964205e-13
7.9630475e-13
7.62194e-13
7.3544309e-13
7.1442106e-13
6.9788766e-13
6.8489798e-13
6.7472597e-13
6.6680889e-13
6.6070726e-13
6.5607527e-13
6.5263885e-13
6.5017941e-13
6.4852143e-13
6.4752317e-13
6.4706951e-13
6.4706643e-13
6.4743678e-13
6.4811694e-13
6.4905423e-13
6.502049e-13
6.5153235e-13
6.5300601e-13
6.5460025e-13
6.5629352e-13
6.5806772e-13
6.599076e-13
6.6180036e-13
6.6373529e-13
6.6570341e-13
6.6769732e-13
6.6971095e-13
6.7173944e-13
6.7377901e-13
6.7582691e-13
6.7788553e-13
6.7994548e-13
4.5626511e-10
4.6727267e-10
4.821023e-10
5.1622918e-10
6.026758e-10
1.0358493e-09
2.8293192e-09
7.9673785e-09
2.2183967e-08
5.9007675e-08
1.1432314e-07
1.2106074e-07
7.9994933e-08
3.3056075e-08
1.1659989e-08
3.993637e-09
1.5483741e-09
6.9542671e-10
3.4353694e-10
1.8151477e-10
1.0143095e-10
5.9531805e-11
3.6506606e-11
2.3293859e-11
1.5415603e-11
1.0555018e-11
7.4634608e-12
5.4426549e-12
4.0889672e-12
3.16192e-12
2.5142925e-12
2.0536675e-12
1.7207024e-12
1.476481e-12
1.2949909e-12
1.1585297e-12
1.0548528e-12
9.7535882e-13
9.1390932e-13
8.7720443e-13
8.396005e-13
8.1008122e-13
7.8686037e-13
7.685784e-13
7.5419872e-13
7.4292419e-13
7.3413656e-13
7.273526e-13
7.2219181e-13
7.1835245e-13
7.1559364e-13
7.137219e-13
7.1258085e-13
7.1204339e-13
7.1200569e-13
7.1238247e-13
7.1310338e-13
7.1411013e-13
7.1535423e-13
7.1679522e-13
7.1839922e-13
7.2013782e-13
7.2198714e-13
7.2392707e-13
7.2594072e-13
7.2801386e-13
7.3013457e-13
7.322929e-13
7.3448064e-13
7.3669109e-13
7.3891893e-13
7.4116001e-13
7.4341122e-13
7.4567561e-13
7.4793792e-13
5.0221075e-10
5.1527622e-10
5.3742977e-10
5.8870411e-10
6.9420402e-10
1.2688192e-09
3.2528566e-09
8.9027413e-09
2.4277341e-08
6.1708394e-08
1.3471114e-07
1.578188e-07
1.0032838e-07
3.9816068e-08
1.3838032e-08
4.7589781e-09
1.8625928e-09
8.408291e-10
4.1633392e-10
2.2028462e-10
1.2320198e-10
7.2341514e-11
4.4363438e-11
2.8295863e-11
1.8709377e-11
1.2791875e-11
9.0264847e-12
6.5643342e-12
4.9144607e-12
3.7842199e-12
2.9943859e-12
2.4324152e-12
2.026024e-12
1.7277998e-12
1.5060462e-12
1.3391901e-12
1.2123083e-12
1.1149166e-12
1.039533e-12
9.9357086e-13
9.4722992e-13
9.1075442e-13
8.8196648e-13
8.592083e-13
8.4121578e-13
8.2701679e-13
8.1585725e-13
8.0714779e-13
8.0042429e-13
7.9531866e-13
7.9153708e-13
7.8884348e-13
7.8704709e-13
7.8599287e-13
7.8555411e-13
7.8562678e-13
7.8612503e-13
7.8697775e-13
7.8812577e-13
7.8951972e-13
7.9111827e-13
7.9288675e-13
7.9479601e-13
7.9682154e-13
7.9894269e-13
8.0114213e-13
8.0340531e-13
8.0572008e-13
8.080764e-13
8.1046603e-13
8.128824e-13
8.1532047e-13
8.1777639e-13
8.2025446e-13
8.2273421e-13
5.5267217e-10
5.726601e-10
5.9326548e-10
6.4984346e-10
7.9776281e-10
1.55176e-09
4.2166856e-09
1.1466829e-08
3.0264874e-08
7.295175e-08
1.4245468e-07
1.6765657e-07
1.2205409e-07
4.9174695e-08
1.6822633e-08
5.7077907e-09
2.2209049e-09
1.002184e-09
4.9661588e-10
2.6296265e-10
1.4715959e-10
8.6442479e-11
5.3017753e-11
3.3809715e-11
2.2342991e-11
1.5261341e-11
1.075321e-11
7.8042271e-12
5.8274118e-12
4.4727277e-12
3.5257168e-12
2.8516656e-12
2.364026e-12
2.0060147e-12
1.7396631e-12
1.5391242e-12
1.3865156e-12
1.2692726e-12
1.1784272e-12
1.1221698e-12
1.0661269e-12
1.0219237e-12
9.8694871e-13
9.5921362e-13
9.3720227e-13
9.1974854e-13
9.0594781e-13
8.9509296e-13
8.8662709e-13
8.8010851e-13
8.751846e-13
8.7157207e-13
8.6904193e-13
8.6740808e-13
8.6651845e-13
8.6624813e-13
8.6649409e-13
8.6717093e-13
8.6820763e-13
8.6954491e-13
8.7113315e-13
8.7293071e-13
8.749026e-13
8.7701938e-13
8.7925627e-13
8.8159246e-13
8.8401046e-13
8.8649572e-13
8.8903616e-13
8.9162194e-13
8.9424518e-13
8.9689981e-13
8.9958081e-13
9.0229389e-13
9.0501191e-13
5.9923175e-10
6.2985763e-10
6.5395884e-10
7.569083e-10
9.5320849e-10
1.9149215e-09
5.4273553e-09
1.566978e-08
4.7181692e-08
1.4175393e-07
2.2886018e-07
2.3988525e-07
1.6386624e-07
6.4297218e-08
2.1118436e-08
6.8961773e-09
2.644257e-09
1.1932763e-09
5.9268929e-10
3.1455481e-10
1.7639877e-10
1.0380727e-10
6.3765412e-11
4.0711487e-11
2.6924724e-11
1.8396296e-11
1.29588e-11
9.3967094e-12
7.0056108e-12
5.3648632e-12
4.2164201e-12
3.3979904e-12
2.8051903e-12
2.3694608e-12
2.0449128e-12
1.8002773e-12
1.6139008e-12
1.4705552e-12
1.359381e-12
1.2725453e-12
1.2042737e-12
1.1503349e-12
1.107551e-12
1.0735212e-12
1.0464143e-12
1.0248218e-12
1.0076509e-12
9.9404732e-13
9.8333808e-13
9.7498945e-13
9.6857526e-13
9.6375307e-13
9.6024611e-13
9.5782938e-13
9.5631903e-13
9.5556403e-13
9.554398e-13
9.5584306e-13
9.5668794e-13
9.5790273e-13
9.5942742e-13
9.6121165e-13
9.632131e-13
9.6539616e-13
9.6773086e-13
9.7019201e-13
9.7275849e-13
9.7541265e-13
9.7813993e-13
9.8092842e-13
9.8376857e-13
9.8665293e-13
9.8957542e-13
9.9254354e-13
9.9551979e-13
6.3332292e-10
6.6336878e-10
6.8644437e-10
8.3416136e-10
1.2079801e-09
2.3431444e-09
7.7737286e-09
2.3137365e-08
8.1001789e-08
1.8163377e-07
5.855468e-07
5.1247488e-07
2.1436593e-07
7.3904073e-08
2.3218847e-08
7.6242059e-09
2.9707537e-09
1.349341e-09
6.7211664e-10
3.5754808e-10
2.0094637e-10
1.1848691e-10
7.2908846e-11
4.6616939e-11
3.0865459e-11
2.1105246e-11
1.4872572e-11
1.0783495e-11
8.0347956e-12
6.1461496e-12
4.8225068e-12
3.8780704e-12
3.193198e-12
2.6892207e-12
2.3134272e-12
2.0298637e-12
1.8136088e-12
1.6471201e-12
1.5178766e-12
1.4168211e-12
1.3373222e-12
1.2744686e-12
1.2245835e-12
1.1848872e-12
1.1532578e-12
1.128062e-12
1.1080313e-12
1.0921736e-12
1.0797065e-12
1.0700093e-12
1.0625858e-12
1.0570371e-12
1.0530405e-12
1.0503335e-12
1.0487015e-12
1.0479679e-12
1.0479872e-12
1.0486385e-12
1.0498213e-12
1.0514515e-12
1.0534589e-12
1.0557843e-12
1.0583782e-12
1.0611986e-12
1.0642105e-12
1.0673842e-12
1.0706951e-12
1.0741223e-12
1.0776488e-12
1.0812607e-12
1.0849468e-12
1.0886985e-12
1.0925089e-12
1.0963883e-12
1.1002852e-12
6.5875313e-10
7.0578133e-10
8.272484e-10
9.8389105e-10
1.4063548e-09
3.6122751e-09
8.8930155e-09
2.3130823e-08
6.4409881e-08
2.5872014e-07
9.586151e-07
6.1189035e-07
2.3252218e-07
7.8834572e-08
2.4856499e-08
8.2362394e-09
3.2355696e-09
1.4756008e-09
7.3702316e-10
3.9307564e-10
2.2144203e-10
1.3085828e-10
8.0679193e-11
5.1673233e-11
3.4262219e-11
2.3454295e-11
1.654099e-11
1.1998236e-11
8.9400561e-12
6.8358279e-12
5.3591424e-12
4.3041797e-12
3.538238e-12
2.9739566e-12
2.5527356e-12
2.2345614e-12
1.9916706e-12
1.8045011e-12
1.6590773e-12
1.5452806e-12
1.4556959e-12
1.3848266e-12
1.3285544e-12
1.2837629e-12
1.2480715e-12
1.219646e-12
1.1970612e-12
1.179201e-12
1.165185e-12
1.1543138e-12
1.1460282e-12
1.1398781e-12
1.1354992e-12
1.132595e-12
1.1309227e-12
1.1302828e-12
1.1305103e-12
1.1314684e-12
1.133043e-12
1.1351388e-12
1.1376761e-12
1.1405876e-12
1.143817e-12
1.1473169e-12
1.1510471e-12
1.1549741e-12
1.1590697e-12
1.1633104e-12
1.1676769e-12
1.1721533e-12
1.1767272e-12
1.1813891e-12
1.1861313e-12
1.1909664e-12
1.1958265e-12
7.2558659e-10
1.2295144e-09
2.1595845e-09
2.4712099e-09
3.6170218e-09
6.852672e-09
1.7377275e-08
5.3502635e-08
9.542498e-08
2.0520144e-07
1.0287069e-06
1.1896078e-06
5.558376e-07
1.4980235e-07
3.7042313e-08
9.9100573e-09
3.5159622e-09
1.5778855e-09
7.8915466e-10
4.2199277e-10
2.3833981e-10
1.4117511e-10
8.7224928e-11
5.5970984e-11
3.717251e-11
2.5481303e-11
1.7989876e-11
1.3059167e-11
9.7347156e-12
7.4439687e-12
5.8341971e-12
4.6826715e-12
3.8455988e-12
3.2281987e-12
2.7668196e-12
2.41795e-12
2.1513677e-12
1.9457562e-12
1.785872e-12
1.6606675e-12
1.5620403e-12
1.483978e-12
1.4219725e-12
1.3726094e-12
1.3332781e-12
1.3019658e-12
1.2771069e-12
1.2574747e-12
1.2421005e-12
1.2302145e-12
1.2212005e-12
1.2145622e-12
1.2098976e-12
1.2068793e-12
1.2052391e-12
1.2047562e-12
1.2052481e-12
1.2065633e-12
1.2085754e-12
1.2111788e-12
1.2142848e-12
1.217819e-12
1.2217188e-12
1.2259313e-12
1.2304122e-12
1.2351241e-12
1.2400356e-12
1.2451209e-12
1.2503584e-12
1.2557307e-12
1.261224e-12
1.2668281e-12
1.2725345e-12
1.2783594e-12
1.284212e-12
9.5256332e-10
3.67423e-09
6.7694932e-09
7.3693371e-09
8.5625946e-09
1.3909004e-08
3.4455911e-08
1.3611309e-07
2.4441611e-07
2.9515861e-07
7.6456378e-07
8.7875828e-07
5.4938454e-07
1.6809897e-07
4.2440794e-08
1.0863965e-08
3.7082692e-09
1.6557416e-09
8.3006377e-10
4.4512352e-10
2.5207881e-10
1.4968301e-10
9.2689805e-11
5.9597879e-11
3.9651886e-11
2.722273e-11
1.9243975e-11
1.3983624e-11
1.0431307e-11
7.9799132e-12
6.2548463e-12
5.0192223e-12
4.1199015e-12
3.4558122e-12
2.9589957e-12
2.5829422e-12
2.2953117e-12
2.07327e-12
1.900472e-12
1.7650602e-12
1.6583298e-12
1.573816e-12
1.5066667e-12
1.453204e-12
1.4106134e-12
1.376723e-12
1.3498421e-12
1.328645e-12
1.3120839e-12
1.2993255e-12
1.2897022e-12
1.2826761e-12
1.2778111e-12
1.2747516e-12
1.2732062e-12
1.2729349e-12
1.2737392e-12
1.2754539e-12
1.2779416e-12
1.2810869e-12
1.2847933e-12
1.2889795e-12
1.293577e-12
1.2985283e-12
1.3037848e-12
1.3093057e-12
1.3150569e-12
1.32101e-12
1.3271417e-12
1.3334329e-12
1.3398689e-12
1.3464386e-12
1.3531327e-12
1.3599717e-12
1.3668383e-12
2.9554512e-09
1.0153429e-08
1.3654944e-08
1.4997407e-08
1.7402277e-08
2.5146627e-08
5.2605614e-08
1.9650218e-07
5.9598997e-07
6.2042104e-07
6.6384688e-07
7.3468574e-07
4.9656014e-07
1.7222788e-07
4.3772885e-08
1.1164423e-08
3.8202047e-09
1.7125314e-09
8.6129503e-10
4.6324305e-10
2.6307123e-10
1.5661229e-10
9.720837e-11
6.2635773e-11
4.1752025e-11
2.8712345e-11
2.0326068e-11
1.4787459e-11
1.1041186e-11
8.4520359e-12
6.6274431e-12
5.3187877e-12
4.3651187e-12
3.660067e-12
3.1320237e-12
2.7319223e-12
2.4256074e-12
2.1889367e-12
2.004611e-12
1.8600686e-12
1.7460787e-12
1.6557795e-12
1.5840162e-12
1.5268782e-12
1.4813704e-12
1.4451793e-12
1.4165027e-12
1.3939263e-12
1.3763315e-12
1.3628276e-12
1.3527011e-12
1.345376e-12
1.3403854e-12
1.3373483e-12
1.3359522e-12
1.3359393e-12
1.3370966e-12
1.3392465e-12
1.3422411e-12
1.3459565e-12
1.3502886e-12
1.3551498e-12
1.3604664e-12
1.3661764e-12
1.3722273e-12
1.3785753e-12
1.3851835e-12
1.3920213e-12
1.3990638e-12
1.4062905e-12
1.4136858e-12
1.4212377e-12
1.4289375e-12
1.4368063e-12
1.4446997e-12
9.8711985e-10
5.2352921e-09
1.068678e-08
1.7617471e-08
1.9764358e-08
3.2053676e-08
7.6149544e-08
2.0232715e-07
1.1490764e-06
1.4243051e-06
1.1063434e-06
8.5410635e-07
5.0137244e-07
1.6401121e-07
4.2445946e-08
1.1172147e-08
3.8909697e-09
1.7526132e-09
8.8428007e-10
4.7705451e-10
2.7169199e-10
1.621732e-10
1.009039e-10
6.5159901e-11
4.3520551e-11
2.9981315e-11
2.1257201e-11
1.5485298e-11
1.1574811e-11
8.8680178e-12
6.9577801e-12
5.5858515e-12
4.5848099e-12
3.8438599e-12
3.2883179e-12
2.8669489e-12
2.5440474e-12
2.2943477e-12
2.099727e-12
1.9470122e-12
1.8265139e-12
1.7310225e-12
1.6551174e-12
1.5946822e-12
1.5465617e-12
1.5083167e-12
1.4780456e-12
1.4542546e-12
1.4357615e-12
1.4216243e-12
1.4110875e-12
1.4035411e-12
1.3984901e-12
1.3955303e-12
1.3943298e-12
1.394615e-12
1.3961591e-12
1.3987735e-12
1.4023006e-12
1.4066083e-12
1.4115858e-12
1.4171398e-12
1.4231915e-12
1.4296748e-12
1.4365338e-12
1.4437215e-12
1.4511988e-12
1.4589331e-12
1.4668977e-12
1.4750711e-12
1.4834367e-12
1.4919816e-12
1.500698e-12
1.5096099e-12
1.5185355e-12
1.8972896e-09
9.4117158e-09
1.3414984e-08
1.8189049e-08
2.2799219e-08
4.8275131e-08
1.0876077e-07
3.2265458e-07
8.2331504e-07
2.6233744e-06
2.3651525e-06
1.2368296e-06
5.244355e-07
1.6651664e-07
4.4638009e-08
1.180603e-08
3.9884068e-09
1.7803426e-09
9.0016856e-10
4.8717868e-10
2.7827435e-10
1.6655271e-10
1.0388603e-10
6.723718e-11
4.4999806e-11
3.1057335e-11
2.2056046e-11
1.6090103e-11
1.2041425e-11
9.2346264e-12
7.2509401e-12
5.8243272e-12
4.7820635e-12
4.0096866e-12
3.4299425e-12
2.9897674e-12
2.6521387e-12
2.3908298e-12
2.1870088e-12
2.0269732e-12
1.9006343e-12
1.8004786e-12
1.7208515e-12
1.6574553e-12
1.606993e-12
1.5669134e-12
1.5352261e-12
1.5103663e-12
1.4910947e-12
1.4764227e-12
1.4655572e-12
1.4578572e-12
1.4528022e-12
1.4499666e-12
1.4490013e-12
1.4496177e-12
1.4515768e-12
1.4546794e-12
1.4587592e-12
1.4636768e-12
1.4693149e-12
1.4755747e-12
1.4823731e-12
1.4896399e-12
1.4973162e-12
1.5053521e-12
1.5137063e-12
1.5223443e-12
1.5312381e-12
1.5403649e-12
1.5497072e-12
1.5592524e-12
1.5689907e-12
1.5789528e-12
1.5889123e-12
1.5518293e-09
7.7542902e-09
1.1735466e-08
1.5273409e-08
2.9898197e-08
6.3230935e-08
1.4653351e-07
2.9506567e-07
1.3694503e-06
2.5245391e-06
3.3954619e-06
2.051276e-06
7.0460542e-07
2.0452944e-07
5.1515604e-08
1.2578598e-08
4.0437586e-09
1.7955864e-09
9.1034312e-10
4.941298e-10
2.8310918e-10
1.6991643e-10
1.0625199e-10
6.8926969e-11
4.6227358e-11
3.1964969e-11
2.273916e-11
1.6613347e-11
1.2449195e-11
9.5578258e-12
7.5113877e-12
6.0376388e-12
4.959568e-12
4.1597079e-12
3.5586736e-12
3.1018697e-12
2.7511608e-12
2.4795016e-12
2.2674518e-12
2.1008517e-12
1.9692659e-12
1.8649152e-12
1.7819395e-12
1.7158814e-12
1.6633179e-12
1.6215984e-12
1.5886532e-12
1.5628536e-12
1.5429089e-12
1.5277889e-12
1.5166659e-12
1.5088711e-12
1.5038606e-12
1.5011897e-12
1.5004928e-12
1.5014681e-12
1.5038651e-12
1.5074751e-12
1.5121236e-12
1.5176642e-12
1.5239738e-12
1.5309488e-12
1.5385017e-12
1.5465587e-12
1.5550577e-12
1.5639467e-12
1.573182e-12
1.5827275e-12
1.5925537e-12
1.6026371e-12
1.6129594e-12
1.6235077e-12
1.6342726e-12
1.6452861e-12
1.656276e-12
3.0471506e-09
1.0956496e-08
1.9013568e-08
3.0224904e-08
4.8479606e-08
9.9332492e-08
2.1635894e-07
3.8383165e-07
9.8142779e-07
3.3993413e-06
3.6642045e-06
2.0467772e-06
7.0828918e-07
2.0523628e-07
5.1388458e-08
1.2579246e-08
4.04718e-09
1.7996864e-09
9.1541223e-10
4.9855391e-10
2.8645418e-10
1.7240795e-10
1.0808768e-10
7.0281807e-11
4.7236484e-11
3.2725986e-11
2.3321212e-11
1.7065195e-11
1.280535e-11
9.8428864e-12
7.7430591e-12
6.2287961e-12
5.1196784e-12
4.2958084e-12
3.6760529e-12
3.204544e-12
2.8422122e-12
2.5613178e-12
2.3419009e-12
2.1694078e-12
2.0331024e-12
1.9249736e-12
1.8389814e-12
1.7705269e-12
1.7160759e-12
1.6728892e-12
1.6388261e-12
1.6122007e-12
1.591676e-12
1.5761839e-12
1.5648658e-12
1.5570272e-12
1.552103e-12
1.5496308e-12
1.5492304e-12
1.5505874e-12
1.5534409e-12
1.5575733e-12
1.5628026e-12
1.5689759e-12
1.5759648e-12
1.5836609e-12
1.5919728e-12
1.6008234e-12
1.6101479e-12
1.6198917e-12
1.6300093e-12
1.640463e-12
1.6512221e-12
1.6622621e-12
1.6735642e-12
1.6851151e-12
1.6969065e-12
1.7089724e-12
1.7209849e-12
3.6468255e-09
1.495092e-08
2.1513688e-08
3.5870421e-08
7.0405971e-08
1.7807836e-07
3.3222477e-07
5.664814e-07
8.6576886e-07
2.7413708e-06
5.346186e-06
2.4557223e-06
7.4590296e-07
2.111782e-07
5.3354548e-08
1.3161766e-08
4.1200499e-09
1.8006315e-09
9.1641287e-10
5.0065353e-10
2.8857946e-10
1.741596e-10
1.0946744e-10
7.1348049e-11
4.8056593e-11
3.3359646e-11
2.3815187e-11
1.7454645e-11
1.3116285e-11
1.0094467e-11
7.9494298e-12
6.4004513e-12
5.2644645e-12
4.4196392e-12
3.7834261e-12
3.2989103e-12
2.9262435e-12
2.6371012e-12
2.4110806e-12
2.2332899e-12
2.0927329e-12
1.9811963e-12
1.8924822e-12
1.8218672e-12
1.7657184e-12
1.7212175e-12
1.6861603e-12
1.6588098e-12
1.6377868e-12
1.6219892e-12
1.6105302e-12
1.6026918e-12
1.5978897e-12
1.5956453e-12
1.5955646e-12
1.5973219e-12
1.6006466e-12
1.6053129e-12
1.6111318e-12
1.6179444e-12
1.6256173e-12
1.6340377e-12
1.6431106e-12
1.6527558e-12
1.6629056e-12
1.6735036e-12
1.6845021e-12
1.6958623e-12
1.7075522e-12
1.7195465e-12
1.7318257e-12
1.7443764e-12
1.7571905e-12
1.7703069e-12
1.7833322e-12
4.6691943e-09
1.4133414e-08
2.1155067e-08
3.4842126e-08
1.1062569e-07
3.3865603e-07
4.8273788e-07
8.6316329e-07
1.0697697e-06
1.8751247e-06
5.4513769e-06
4.9551276e-06
1.0809817e-06
2.7624104e-07
6.9626665e-08
1.6397805e-08
4.4255657e-09
1.803572e-09
9.1415316e-10
5.009102e-10
2.8961086e-10
1.7529261e-10
1.1046069e-10
7.2165869e-11
4.8713605e-11
3.3882945e-11
2.423256e-11
1.778965e-11
1.3387658e-11
1.0316689e-11
8.1335701e-12
6.5549446e-12
5.3957495e-12
4.5326514e-12
3.8819723e-12
3.3859465e-12
3.0040821e-12
2.7075646e-12
2.4756162e-12
2.2930556e-12
2.148662e-12
2.0340461e-12
1.9428716e-12
1.8703054e-12
1.8126268e-12
1.7669471e-12
1.7310055e-12
1.7030183e-12
1.681569e-12
1.665524e-12
1.6539711e-12
1.6461709e-12
1.6415213e-12
1.6395289e-12
1.6397871e-12
1.6419596e-12
1.645767e-12
1.6509756e-12
1.6573901e-12
1.664846e-12
1.6732052e-12
1.6823507e-12
1.6921842e-12
1.7026226e-12
1.7135957e-12
1.7250449e-12
1.7369211e-12
1.7491839e-12
1.7618004e-12
1.7747446e-12
1.7879967e-12
1.8015446e-12
1.8153748e-12
1.8295361e-12
1.8435614e-12
1.053671e-09
1.5443788e-08
3.4324808e-08
5.6224197e-08
1.8454792e-07
6.2054953e-07
7.5950281e-07
1.0412131e-06
1.2517562e-06
1.6135914e-06
3.8071258e-06
4.4821416e-06
2.3521392e-06
5.4350474e-07
1.1596035e-07
2.2223475e-08
4.7926317e-09
1.7981381e-09
9.0894604e-10
4.9963242e-10
2.8976464e-10
1.7588281e-10
1.1112687e-10
7.2772471e-11
4.9230075e-11
3.431086e-11
2.4583453e-11
1.8077237e-11
1.3624465e-11
1.0513191e-11
8.2981921e-12
6.6943417e-12
5.5151405e-12
4.6361218e-12
3.9727273e-12
3.4665094e-12
3.0764507e-12
2.7733291e-12
2.5360508e-12
2.3491875e-12
2.2013249e-12
2.083921e-12
1.990518e-12
1.9161859e-12
1.8571264e-12
1.8103878e-12
1.7736583e-12
1.7451125e-12
1.7232997e-12
1.7070581e-12
1.6954519e-12
1.6877224e-12
1.6832511e-12
1.6815308e-12
1.6821435e-12
1.684743e-12
1.6890414e-12
1.6947982e-12
1.7018119e-12
1.7099128e-12
1.7189584e-12
1.7288279e-12
1.7394198e-12
1.7506481e-12
1.7624406e-12
1.7747365e-12
1.7874853e-12
1.8006453e-12
1.8141825e-12
1.8280704e-12
1.8422876e-12
1.8568264e-12
1.8716688e-12
1.8868673e-12
1.9018772e-12
1.7918658e-09
4.0745911e-08
7.4372588e-08
1.0608394e-07
2.8750008e-07
9.432202e-07
1.1530945e-06
1.2916752e-06
1.7005179e-06
1.7738245e-06
2.4589104e-06
3.22749e-06
2.1973257e-06
6.4607199e-07
1.3430903e-07
2.3748051e-08
4.8119262e-09
1.7772398e-09
9.0126351e-10
4.9709035e-10
2.8918518e-10
1.7603065e-10
1.1150946e-10
7.3199542e-11
4.9626438e-11
3.4656486e-11
2.4876777e-11
1.8323599e-11
1.3831118e-11
1.0687188e-11
8.4456918e-12
6.8204664e-12
5.6240558e-12
4.7311761e-12
4.0566023e-12
3.5413516e-12
3.1439825e-12
2.8349374e-12
2.5928575e-12
2.402105e-12
2.2510991e-12
2.131165e-12
2.035739e-12
1.9598052e-12
1.8994965e-12
1.8518048e-12
1.8143726e-12
1.7853367e-12
1.7632154e-12
1.7468212e-12
1.7351968e-12
1.7275657e-12
1.7232943e-12
1.7218627e-12
1.7228422e-12
1.7258775e-12
1.7306731e-12
1.7369816e-12
1.744596e-12
1.7533418e-12
1.7630721e-12
1.7736628e-12
1.7850092e-12
1.7970228e-12
1.8096292e-12
1.8227658e-12
1.8363807e-12
1.8504308e-12
1.8648816e-12
1.8797053e-12
1.8948811e-12
1.9103978e-12
1.9262476e-12
1.9424763e-12
1.9584539e-12
3.3478427e-09
1.0033248e-07
1.4922126e-07
1.7131978e-07
4.0992152e-07
1.3047084e-06
1.6670768e-06
1.5645109e-06
1.8949627e-06
2.0154571e-06
2.1715692e-06
2.379955e-06
1.8459276e-06
6.2200051e-07
1.3146888e-07
2.3023095e-08
4.6419725e-09
1.7466664e-09
8.9165711e-10
4.9352056e-10
2.8800033e-10
1.7580798e-10
1.1165807e-10
7.3471462e-11
4.9920732e-11
3.493137e-11
2.5120363e-11
1.8534188e-11
1.4011505e-11
1.0841516e-11
8.5781829e-12
6.9349285e-12
5.7237464e-12
4.8188064e-12
4.1344e-12
3.611135e-12
3.2072336e-12
2.892865e-12
2.6464503e-12
2.4521741e-12
2.298313e-12
2.1760771e-12
2.0788098e-12
2.0014197e-12
1.9399781e-12
1.8914268e-12
1.8533668e-12
1.8239009e-12
1.8015191e-12
1.7850105e-12
1.773398e-12
1.7658888e-12
1.7618352e-12
1.7607057e-12
1.7620617e-12
1.7655394e-12
1.7708358e-12
1.7776977e-12
1.7859125e-12
1.7953013e-12
1.8057132e-12
1.8170208e-12
1.8291165e-12
1.8419094e-12
1.855323e-12
1.8692932e-12
1.8837664e-12
1.8986988e-12
1.9140546e-12
1.929806e-12
1.9459325e-12
1.9624207e-12
1.9792637e-12
1.9965149e-12
2.0134412e-12
2.3623196e-08
2.2128381e-07
3.1787127e-07
3.3021399e-07
6.189108e-07
1.7613236e-06
2.4615796e-06
2.0977121e-06
2.3360756e-06
2.6912859e-06
2.4040856e-06
2.3386041e-06
1.8200098e-06
5.6384211e-07
1.1647535e-07
2.0275246e-08
4.3132019e-09
1.7102942e-09
8.8059231e-10
4.8912613e-10
2.8632093e-10
1.752783e-10
1.1161024e-10
7.3614285e-11
5.012662e-11
3.5146225e-11
2.5320981e-11
1.8713799e-11
1.4169048e-11
1.0978675e-11
8.6975302e-12
7.0391486e-12
5.8153164e-12
4.8998882e-12
4.2068279e-12
3.6764423e-12
3.2666931e-12
2.9475298e-12
2.6971919e-12
2.4997149e-12
2.3432534e-12
2.2189178e-12
2.1199701e-12
2.0412521e-12
1.9787805e-12
1.9294519e-12
1.8908299e-12
1.8609866e-12
1.8383861e-12
1.8217959e-12
1.8102212e-12
1.8028535e-12
1.7990325e-12
1.7982159e-12
1.7999555e-12
1.8038799e-12
1.8096792e-12
1.8170944e-12
1.8259078e-12
1.8359364e-12
1.8470255e-12
1.8590445e-12
1.8718832e-12
1.8854484e-12
1.8996616e-12
1.9144571e-12
1.9297801e-12
1.9455856e-12
1.9618374e-12
1.9785067e-12
1.995573e-12
2.0130254e-12
2.0308518e-12
2.049114e-12
2.066969e-12
1.9158961e-08
4.3888477e-07
6.1260324e-07
5.9545657e-07
9.0405561e-07
2.1688862e-06
3.8461389e-06
3.0655387e-06
2.7285822e-06
2.9115443e-06
3.1109628e-06
2.793394e-06
1.6637144e-06
4.6670046e-07
9.5735127e-08
1.7198341e-08
4.0125096e-09
1.6743028e-09
8.6847855e-10
4.8408022e-10
2.8424217e-10
1.7449661e-10
1.1139896e-10
7.3648392e-11
5.0258504e-11
3.5308887e-11
2.5485062e-11
1.886661e-11
1.4306756e-11
1.1100864e-11
8.8053771e-12
7.1343791e-12
5.8997401e-12
4.9751936e-12
4.27451e-12
3.7377872e-12
3.3227915e-12
2.9992989e-12
2.745401e-12
2.5450083e-12
2.3861715e-12
2.2599148e-12
2.1594289e-12
2.0794966e-12
2.0160857e-12
1.9660522e-12
1.9269262e-12
1.8967514e-12
1.8739685e-12
1.8573251e-12
1.8458098e-12
1.8386001e-12
1.8350238e-12
1.8345282e-12
1.8366567e-12
1.8410303e-12
1.8473328e-12
1.8552998e-12
1.8647089e-12
1.8753728e-12
1.8871336e-12
1.8998577e-12
1.9134322e-12
1.9277617e-12
1.942766e-12
1.9583779e-12
1.9745413e-12
1.9912102e-12
2.0083478e-12
2.025925e-12
2.0439211e-12
2.0623242e-12
2.0811247e-12
2.1003883e-12
2.1191504e-12
5.0767719e-08
7.6970037e-07
1.0422897e-06
9.8589509e-07
1.3822292e-06
2.6305612e-06
5.8851952e-06
4.4978693e-06
3.165976e-06
3.2831586e-06
3.1885743e-06
2.877911e-06
1.3673571e-06
3.6717393e-07
7.6181188e-08
1.443748e-08
3.7591923e-09
1.638976e-09
8.5558048e-10
4.7852901e-10
2.8184543e-10
1.7351018e-10
1.1105281e-10
7.3591639e-11
5.0327849e-11
3.5427602e-11
2.5617388e-11
1.8996378e-11
1.4427272e-11
1.1210019e-11
8.9031702e-12
7.2217236e-12
5.9778756e-12
5.0454033e-12
4.3379962e-12
3.7956222e-12
3.3759078e-12
3.0484955e-12
2.7913576e-12
2.5883008e-12
2.4272877e-12
2.2992677e-12
2.1973693e-12
2.1163229e-12
2.0520527e-12
2.0013782e-12
1.9617987e-12
1.9313325e-12
1.9083985e-12
1.8917263e-12
1.8802888e-12
1.8732507e-12
1.8699286e-12
1.8697602e-12
1.8722809e-12
1.8771047e-12
1.8839095e-12
1.8924255e-12
1.9024261e-12
1.9137202e-12
1.9261463e-12
1.9395682e-12
1.9538705e-12
1.9689558e-12
1.9847421e-12
2.0011607e-12
2.0181544e-12
2.0356766e-12
2.0536894e-12
2.0721636e-12
2.0910787e-12
2.1104224e-12
2.1301849e-12
2.1504383e-12
2.1700852e-12
1.2427475e-07
1.2092264e-06
1.6056981e-06
1.5175752e-06
2.2271179e-06
3.5711586e-06
6.0899429e-06
4.8595486e-06
3.5796086e-06
4.529427e-06
3.780021e-06
2.7938789e-06
1.1206275e-06
2.9179447e-07
6.2209557e-08
1.2626316e-08
3.5907137e-09
1.605596e-09
8.4214471e-10
4.7259644e-10
2.7919998e-10
1.7235955e-10
1.1059641e-10
7.3459506e-11
5.034468e-11
3.5509051e-11
2.5722733e-11
1.9106335e-11
1.4532888e-11
1.1307839e-11
8.9921818e-12
7.3021539e-12
6.0504796e-12
5.1111175e-12
4.3977715e-12
3.8503465e-12
3.4263764e-12
3.0954044e-12
2.8353083e-12
2.6298093e-12
2.4667955e-12
2.3371517e-12
2.2339518e-12
2.1518798e-12
2.0868208e-12
2.0355612e-12
1.9955727e-12
1.9648499e-12
1.9417919e-12
1.9251115e-12
1.9137675e-12
1.906912e-12
1.9038514e-12
1.9040146e-12
1.9069293e-12
1.912203e-12
1.9195078e-12
1.9285692e-12
1.9391563e-12
1.9510743e-12
1.9641588e-12
1.9782705e-12
1.9932921e-12
2.009124e-12
2.0256826e-12
2.0428979e-12
2.0607116e-12
2.0790762e-12
2.0979533e-12
2.117313e-12
2.1371356e-12
2.1574084e-12
2.1781214e-12
2.1993532e-12
2.2198617e-12
2.5224585e-07
1.7363369e-06
2.3497738e-06
2.2266223e-06
3.915932e-06
5.1474145e-06
4.8664389e-06
4.0621135e-06
3.4160586e-06
4.9178405e-06
4.219484e-06
2.3562663e-06
8.7008552e-07
2.3159961e-07
5.2604509e-08
1.1557775e-08
3.4787285e-09
1.5735057e-09
8.2834663e-10
4.6638638e-10
2.7636455e-10
1.7107928e-10
1.1005089e-10
7.3265337e-11
5.0317692e-11
3.5559045e-11
2.580513e-11
1.9199188e-11
1.4625713e-11
1.1395813e-11
9.0735291e-12
7.3765242e-12
6.1182177e-12
5.1728646e-12
4.4542633e-12
3.9023116e-12
3.4744916e-12
3.1402763e-12
2.8774702e-12
2.6697248e-12
2.5048652e-12
2.3737208e-12
2.2693174e-12
2.1862978e-12
2.1205121e-12
2.0687166e-12
2.0283579e-12
1.9974088e-12
1.9742502e-12
1.9575792e-12
1.9463412e-12
1.9396773e-12
1.9368838e-12
1.9373814e-12
1.9406907e-12
1.9464127e-12
1.9542144e-12
1.9638167e-12
1.9749845e-12
1.9875196e-12
2.0012547e-12
2.016048e-12
2.0317798e-12
2.0483487e-12
2.0656697e-12
2.0836712e-12
2.1022942e-12
2.12149e-12
2.14122e-12
2.1614541e-12
2.1821753e-12
2.2033622e-12
2.2250137e-12
2.2472121e-12
2.2685583e-12
4.7644699e-07
2.4172856e-06
3.3790312e-06
3.3278409e-06
7.081881e-06
6.5396798e-06
5.4580505e-06
4.0333722e-06
3.2926136e-06
5.1205511e-06
4.4814665e-06
2.1959844e-06
7.6243127e-07
2.0900664e-07
4.9485082e-08
1.1327264e-08
3.4330467e-09
1.5437118e-09
8.1436739e-10
4.5998634e-10
2.7338875e-10
1.6969878e-10
1.0943431e-10
7.3020619e-11
5.0254393e-11
3.5582632e-11
2.5868054e-11
1.9277471e-11
1.4707436e-11
1.1475237e-11
9.1481924e-12
7.4455851e-12
6.1816757e-12
5.2311101e-12
4.5078479e-12
3.9518275e-12
3.5205131e-12
3.1833322e-12
2.9180345e-12
2.7082152e-12
2.5416467e-12
2.4091104e-12
2.3035901e-12
2.2196918e-12
2.153234e-12
2.1009459e-12
2.0602507e-12
2.0291016e-12
2.0058624e-12
1.9892156e-12
1.9780943e-12
1.9716288e-12
1.9691064e-12
1.9699399e-12
1.9736429e-12
1.9798109e-12
1.9881056e-12
1.9982434e-12
2.0099856e-12
2.0231306e-12
2.0375083e-12
2.0529743e-12
2.0694069e-12
2.086703e-12
2.1047759e-12
2.1235531e-12
2.1429742e-12
2.1629901e-12
2.1835614e-12
2.204656e-12
2.2262632e-12
2.2483567e-12
2.2709328e-12
2.2940859e-12
2.3162456e-12
8.9173037e-07
3.3942106e-06
4.9071159e-06
5.4306927e-06
1.2725017e-05
7.2290791e-06
4.9481105e-06
3.5820501e-06
3.0302773e-06
5.2493973e-06
5.6657468e-06
2.4708744e-06
7.6692623e-07
2.0584484e-07
4.9762302e-08
1.1735674e-08
3.4641404e-09
1.5172369e-09
8.0034942e-10
4.5346913e-10
2.703143e-10
1.6824296e-10
1.0876209e-10
7.2735191e-11
5.0161252e-11
3.5584176e-11
2.5914521e-11
1.9343317e-11
1.477962e-11
1.1547286e-11
9.2170304e-12
7.5099949e-12
6.2413677e-12
5.2862629e-12
4.5588562e-12
3.9991667e-12
3.5646692e-12
3.2247667e-12
2.9571697e-12
2.7454287e-12
2.577272e-12
2.4434399e-12
2.3368791e-12
2.2521628e-12
2.185081e-12
2.1323382e-12
2.0913361e-12
2.0600096e-12
2.0367068e-12
2.0200966e-12
2.0091006e-12
2.0028389e-12
2.0005902e-12
2.0017599e-12
2.0058552e-12
2.0124658e-12
2.0212488e-12
2.0319163e-12
2.044226e-12
2.0579733e-12
2.072985e-12
2.0891148e-12
2.1062386e-12
2.1242518e-12
2.1430662e-12
2.162608e-12
2.1828161e-12
2.2036406e-12
2.2250411e-12
2.2469863e-12
2.2694609e-12
2.292452e-12
2.315942e-12
2.3400381e-12
2.3629865e-12
1.6635104e-06
4.9278183e-06
7.3067783e-06
1.0514638e-05
1.4302988e-05
5.3353581e-06
4.07444e-06
3.4121853e-06
2.7558179e-06
4.6280884e-06
5.6342782e-06
2.5571724e-06
7.7125491e-07
2.1464794e-07
5.7243839e-08
1.3923786e-08
3.6714294e-09
1.49727e-09
7.8641675e-10
4.4689239e-10
2.6717512e-10
1.6673247e-10
1.0804722e-10
7.2417434e-11
5.0043817e-11
3.5567445e-11
2.5947146e-11
1.939858e-11
1.4843625e-11
1.1612921e-11
9.2807913e-12
7.570331e-12
6.2977452e-12
5.3386824e-12
4.6075798e-12
4.0445695e-12
3.6071612e-12
3.2647514e-12
2.9950242e-12
2.7814957e-12
2.6118574e-12
2.4768143e-12
2.3692805e-12
2.2837998e-12
2.2161364e-12
2.162972e-12
2.1216888e-12
2.0902045e-12
2.0668527e-12
2.0502895e-12
2.0394256e-12
2.0333715e-12
2.031398e-12
2.0329032e-12
2.0373883e-12
2.0444376e-12
2.0537038e-12
2.0648948e-12
2.0777649e-12
2.0921063e-12
2.1077435e-12
2.1245276e-12
2.1423328e-12
2.1610529e-12
2.1805981e-12
2.2008937e-12
2.2218776e-12
2.2434992e-12
2.2657178e-12
2.2885027e-12
2.3118352e-12
2.3357062e-12
2.3600992e-12
2.3851264e-12
2.4088382e-12
3.0740712e-06
7.5118335e-06
9.6432574e-06
1.4666622e-05
5.0744493e-06
3.8648329e-06
3.5356327e-06
3.1907667e-06
2.6753655e-06
3.7429541e-06
8.809245e-06
3.3563997e-06
1.0027343e-06
3.1470357e-07
8.7405364e-08
1.9495969e-08
4.1196939e-09
1.4807288e-09
7.725103e-10
4.4031254e-10
2.6400869e-10
1.6518992e-10
1.0730335e-10
7.2075808e-11
4.9907489e-11
3.5535981e-11
2.5968327e-11
1.9444924e-11
1.4900629e-11
1.1673005e-11
9.340116e-12
7.6270874e-12
6.351193e-12
5.3886741e-12
4.6542655e-12
4.0882393e-12
3.6481598e-12
3.3034318e-12
3.0317245e-12
2.8165275e-12
2.6455025e-12
2.509324e-12
2.4008773e-12
2.3146798e-12
2.2464723e-12
2.1929156e-12
2.1513739e-12
2.1197489e-12
2.0963605e-12
2.079853e-12
2.0691265e-12
2.0632829e-12
2.061585e-12
2.0634244e-12
2.0682962e-12
2.0757799e-12
2.0855236e-12
2.0972315e-12
2.1106544e-12
2.1255818e-12
2.1418356e-12
2.1592647e-12
2.1777415e-12
2.197158e-12
2.2174235e-12
2.2384619e-12
2.2602104e-12
2.2826176e-12
2.3056424e-12
2.3292543e-12
2.3534352e-12