/*--------------------------------*- C++ -*----------------------------------*\
| =========                 |                                                 |
| \\      /  F ield         | OpenFOAM: The Open Source CFD Toolbox           |
|  \\    /   O peration     | Version:  2.3.0                                 |
|   \\  /    A nd           | Web:      www.OpenFOAM.org                      |
|    \\/     M anipulation  |                                                 |
\*---------------------------------------------------------------------------*/
FoamFile
{
    version     2.0;
    format      ascii;
    class       volScalarField;
    location    "1e-06";
    object      p;
}
// * * * * * * * * * * * * * * * * * * * * * * * * * * * * * * * * * * * * * //

dimensions      [1 -1 -2 0 0 0 0];

internalField   nonuniform List<scalar> 
7500
(
24973.443
-11581.347
85546.325
60592.31
-164724.91
-427670
-269712.15
238875.79
1060995.9
2035248.6
1212468.8
1625802.8
1452174.8
1194964
924867.23
701527.79
534497.07
412603.11
323637
258032.79
208948.6
171635.21
142815.47
120215.81
102241.42
87758.39
75948.63
66213.329
58107.918
51297.913
45528.447
40603.033
36368.509
32704.261
29514.398
26722.005
24264.872
22092.298
20162.656
18441.542
16900.335
15515.084
14265.635
13134.929
12108.461
11173.832
10320.393
9538.9594
8821.5716
8161.3041
7552.1053
6988.6661
6466.3104
5980.903
5528.7737
5106.6515
4711.6107
4341.024
3992.5225
3663.962
3353.3932
3059.0369
2779.2614
2512.5637
2257.5525
2012.9338
1777.4978
1550.107
1329.6865
1115.2142
905.7122
700.23873
497.88035
297.74482
98.936008
24488.614
-9678.8892
82685.289
53882.793
-153855.18
-414501.22
-270781.4
222007.8
1045776.8
1976210.1
1346095
1622385.6
1441022.2
1193509.7
923469.55
700352.48
533661.44
412028.87
323242.51
257758.64
208754.94
171495.89
142713.38
120139.66
102183.67
87713.908
75913.877
66185.821
58085.884
51280.07
45513.854
40590.988
36358.482
32695.85
29507.291
26715.96
24259.699
22087.845
20158.803
18438.19
16897.406
15512.514
14263.37
13132.926
12106.683
11172.248
10318.978
9537.6916
8820.4329
8160.2787
7551.1801
6987.8296
6465.5529
5980.2161
5528.1499
5106.0847
4711.0954
4340.5553
3992.0963
3663.5745
3353.0414
3058.7179
2778.9728
2512.3033
2257.3185
2012.7246
1777.3118
1549.9431
1329.5437
1115.0916
905.60906
700.15445
497.81448
297.69741
98.90629
23645.969
-5425.021
78870.003
39945.006
-158462.95
-371355.4
-256476.48
166994.51
956799.6
1901683.6
1249112.5
1616375.6
1432620.6
1190320.4
919696.89
697278.5
531501.62
410550.99
322228.21
257053.29
208255.87
171136.11
142449.12
119942.06
102033.43
87597.888
75823.008
66113.723
58027.998
51233.088
45475.343
40559.133
36331.912
32673.516
29488.385
26699.849
24245.886
22075.935
20148.479
18429.198
16889.537
15505.598
14257.267
13127.52
12101.878
11167.963
10315.146
9534.2546
8817.3424
8157.4935
7548.6648
6985.554
6463.4907
5978.345
5526.4504
5104.5399
4709.6906
4339.2777
3990.9348
3662.5194
3352.084
3057.8509
2778.1897
2511.5984
2256.6869
2012.162
1776.8145
1549.508
1329.1681
1114.7733
905.34628
699.94593
497.65938
297.59557
98.857499
21008.246
3059.5347
69724.084
30555.831
-161423.82
-363245.72
-230050.59
96111.292
892593.97
1819590.4
1256851
1572885.5
1412024.7
1186205.2
914375.43
692927.25
528450.8
408462.79
320793.54
256054.35
207548.14
170625.23
142073.4
119660.77
101819.29
87432.342
75693.203
66010.618
57945.13
51165.762
45420.1
40513.392
36293.721
32641.384
29461.158
26676.626
24225.957
22058.736
20133.557
18416.187
16878.14
15495.573
14248.412
13119.67
12094.895
11161.731
10309.566
9529.2459
8812.8348
8153.4276
7544.9896
6982.226
6460.4725
5975.6041
5523.9588
5102.2733
4707.6278
4337.4004
3989.2268
3660.9667
3350.6745
3056.5738
2777.0357
2510.5594
2255.7559
2011.3328
1776.082
1548.8677
1328.6162
1114.3068
904.9627
699.64345
497.43703
297.4534
98.795415
18438.458
8223.0281
66066.318
-2604.9043
-66658.597
-307154.55
-337535.09
53420.972
767152.49
1628783.8
1411136.7
1411779.4
1386948.4
1179617.2
907446.85
687461.82
524644.58
405858.55
319002.48
254805.45
206661.88
169984.43
141601.36
119306.8
101549.4
87223.377
75529.113
65880.096
57840.078
51080.296
45349.88
40455.174
36245.051
32600.383
29426.372
26646.919
24200.433
22036.681
20114.399
18399.463
16863.474
15482.656
14236.991
13109.533
12085.866
11153.663
10302.336
9522.7483
8806.9807
8148.1411
7540.206
6977.8896
6456.5353
5972.0248
5520.7017
5099.3071
4704.9257
4334.9387
3986.985
3658.9269
3348.8211
3054.8931
2775.5158
2509.19
2254.5279
2010.2387
1775.1151
1548.0224
1327.888
1113.6918
904.45802
699.24703
497.14768
297.27089
98.72024
20574.514
10882.183
50597.185
-10766.018
-77017.951
-232441.19
-327137
-146938.65
1011642.7
1639999.2
1304089.6
1367517
1366083.8
1171662.2
899179.82
681065.22
520212.12
402826.3
316914.75
253347.44
205625.5
169233.79
141047.47
118890.78
101231.7
86977.012
75335.368
65725.763
57715.69
50978.962
45266.512
40385.966
36187.12
32551.519
29384.864
26611.429
24169.903
22010.27
20091.43
18379.39
16845.851
15467.118
14223.235
13097.31
12074.968
11143.914
10293.589
9514.8789
8799.8829
8141.7246
7534.3936
6972.6149
6451.7412
5967.6618
5516.7271
5095.6839
4701.6215
4331.9254
3984.2382
3656.4251
3346.5456
3052.8278
2773.6464
2507.5043
2253.0152
2008.8899
1773.9225
1546.9794
1326.9891
1112.9328
903.83566
698.75903
496.79282
297.04905
98.632336
18537.574
20977.438
30264.346
-30290.796
-30642.151
-216774.06
-311663.16
-169430.64
775608.96
1972056.9
1422588
1362626.6
1344560.4
1163207.6
889826.29
673900.92
515263.79
399440.56
314580.77
251714.77
204462.89
168390.19
140423.88
118421.58
100872.79
86698.25
75115.807
65550.607
57574.315
50863.628
45171.497
40306.985
36120.922
32495.612
29337.314
26570.723
24134.844
21979.903
20064.991
18356.256
16825.517
15449.168
14207.328
13083.16
12062.336
11132.602
10283.429
9505.7277
8791.6199
8134.2466
7527.6122
6966.4542
6446.1358
5962.5552
5512.0703
5091.4343
4697.7421
4328.384
3981.0066
3653.4789
3343.8634
3050.3909
2771.4387
2505.5117
2251.2257
2007.293
1772.5094
1545.7428
1325.9231
1112.0325
903.09749
698.18068
496.3732
296.78832
98.531862
15377.349
19306.271
27128.356
-62479.188
-1763.6556
-168919.16
-329465.79
-248290.05
654350.01
1797647.3
1368252.4
1369419.9
1331010.9
1157338.4
879842.45
666130.75
509895.94
395765.83
312044.16
249937.26
203194.75
167468.26
139741.11
117906.93
100478.43
86391.448
74873.778
65357.23
57418.004
50735.927
45066.149
40219.296
36047.33
32433.379
29284.317
26525.297
24095.672
21945.935
20035.379
18330.317
16802.691
15428.996
14189.43
13067.221
12048.092
11119.832
10271.946
9495.3743
8782.2612
8125.768
7519.9152
6959.4542
6439.76
5956.7407
5506.7623
5086.5854
4693.3111
4324.335
3977.3082
3650.1038
3340.7877
3047.5939
2768.9024
2503.2204
2249.1661
2005.4536
1770.8805
1544.3164
1324.6926
1110.9928
902.24496
697.51296
495.88944
296.48888
98.418963
21522.568
17599.785
12351.095
-56214.3
43084.786
-172158.49
-388162.27
-303270.03
377635.08
1521443.1
834003.49
1285738
1313086.4
1153167.5
869146.32
657850.31
504189.15
391858.13
309342.95
248040.93
201839.15
166480.8
139008.38
117353.6
100053.67
86060.43
74612.218
65147.922
57248.56
50597.296
44951.622
40123.836
35967.108
32365.453
29226.399
26475.59
24052.757
21908.674
20002.86
18301.798
16777.566
15406.766
14169.684
13049.616
12032.342
11105.697
10259.222
9483.8889
8771.8683
8116.3422
7511.3493
6951.656
6432.6498
5950.2496
5500.8307
5081.1615
4688.3496
4319.7967
3973.1588
3646.3134
3337.3303
3044.4468
2766.046
2500.6377
2246.8425
2003.3767
1769.0398
1542.7033
1323.3001
1109.8157
901.27944
696.75681
495.34216
296.15125
98.293745
14891.966
18607.564
9733.8761
-70685.162
101646.56
-127058.75
-482952.46
-390146.74
153014.31
1193490.6
939159.04
848482.33
1247343.8
1146296
857241.91
649102.7
498211.36
387766
306510.15
246048.41
200411.88
165438.98
138233.78
116767.52
99602.951
85708.565
74333.721
64924.704
57067.579
50449.006
44828.941
40021.438
35880.941
32292.396
29164.025
26421.994
24006.426
21868.401
19967.669
18270.899
16750.312
15382.626
14148.217
13030.456
12015.183
11090.279
10245.329
9471.335
8760.4965
8106.0179
7501.9572
6943.0968
6424.8377
5943.1106
5494.3005
5075.1842
4682.8766
4314.7857
3968.5728
3642.1202
3333.5019
3040.9589
2762.8773
2497.7701
2244.2604
2001.0667
1766.991
1540.9064
1321.748
1108.5029
900.20222
695.91312
494.73191
295.77568
98.156317
22847.578
5703.8696
2522.0397
-81289.098
139613.98
-69825.64
-520658.77
-537093.64
-37543.987
1013387.4
1031918.2
940876.13
1162891.5
1118913.9
843354.06
639972.18
492025.65
383531.65
303574.26
243979.27
198926.61
164352.54
137424.35
116153.88
99130.155
85338.809
74040.569
64689.359
56876.469
50292.184
44699.014
39912.842
35789.434
32214.71
29097.615
26364.857
23956.974
21825.362
19930.018
18237.801
16721.086
15356.71
14125.146
13009.841
11996.7
11073.655
10230.332
9457.7701
8748.1961
8094.8392
7491.7774
6933.8103
6416.3535
5935.3497
5487.1944
5068.6735
4676.9096
4309.3171
3963.5634
3637.5357
3329.3124
3037.1385
2759.4036
2494.6238
2241.4249
1998.5281
1764.7375
1538.9287
1320.0385
1107.0562
899.01454
694.98273
494.05934
295.36236
98.006775
16458.495
15776.146
-20361.52
-82120.969
174212.33
-33783.113
-532475.75
-633374.99
-251463.05
909589.58
1009399.5
954901.2
1130764.1
1086227.1
828718.31
630601.63
485690.72
379191.49
300559.81
241850.4
197395.15
163229.91
136586.2
115517.21
98638.684
84953.757
73734.765
64443.456
56676.472
50127.823
44562.645
39798.701
35693.125
32132.84
29027.538
26304.491
23904.663
21779.781
19890.096
18202.667
16690.027
15329.138
14100.573
12987.861
11976.972
11055.892
10214.292
9443.2461
8735.0127
8082.8459
7480.845
6923.8275
6407.2242
5926.9907
5479.5335
5061.6479
4670.4646
4303.405
3958.1428
3632.5704
3324.7711
3032.9937
2755.6317
2491.2045
2238.3409
1995.7647
1762.2827
1536.7727
1318.1737
1105.477
897.71757
693.96644
493.32503
294.9116
97.845216
7294.5912
10040.863
-18134.327
-114055.52
240688.98
-7794.2846
-555166.63
-712032.99
-330745.31
890809.38
1012616
972270
1116901.6
1057160.8
814072.59
621099.63
479256.22
374776.63
297487.76
239676.27
195827.7
162078.39
135724.67
114861.45
98131.503
84555.674
73418.067
64188.373
56468.684
49956.801
44420.543
39679.597
35592.492
32047.181
28954.125
26241.172
23849.727
21731.856
19848.072
18165.642
16657.259
15300.017
14074.591
12964.596
11956.069
11037.052
10197.261
9427.8103
8720.9877
8070.0744
7469.1919
6913.1765
6397.4746
5918.0553
5471.3368
5054.124
4663.5562
4297.0624
3952.3223
3627.2342
3319.8862
3028.5316
2751.5678
2487.5175
2235.0128
1992.7804
1759.6297
1534.4409
1316.1556
1103.767
896.31246
692.865
492.52503
294.42364
97.671737
10449.989
4248.38
-26567.465
-124318.43
282480.46
22171.566
-597396.15
-806432.66
-431411.15
943333.76
995532.12
990902.49
1104150.9
1031472
799609.19
611538.65
472762.89
370313.33
294375.95
237469.24
194232.97
160904.23
134844.33
114190.01
97611.193
84146.539
73092.01
63925.32
56254.065
49779.891
44273.337
39556.041
35487.957
31958.086
28877.67
26175.148
23792.376
21681.764
19804.099
18126.855
16622.895
15269.444
14047.285
12940.12
11934.055
11017.191
10179.29
9411.5054
8706.1586
8056.5578
7456.8473
6901.8828
6387.1272
5908.5635
5462.6217
5046.1172
4656.1981
4290.3009
3946.1122
3621.5361
3314.6658
3023.7592
2747.2177
2483.5678
2231.4449
1989.5787
1756.7814
1531.9358
1313.9859
1101.9276
894.8003
691.67938
491.66826
293.89897
97.486433
7581.871
1938.8691
-34320.133
-137252.67
337610.47
43136.076
-643858.57
-954753.04
-400128.78
870217.6
1003883.9
998198.81
1092999.7
1008610.7
785426.3
601974.95
466244.22
365823.71
291239.48
235239.84
192618.43
159712.83
133949.13
113505.84
97079.992
83728.073
72757.938
63655.354
56033.461
49597.774
44121.578
39428.488
35379.895
31865.866
28798.433
26106.639
23732.795
21629.666
19758.311
18086.423
16587.034
15237.506
14018.731
12914.499
11910.988
10996.358
10160.421
9394.37
8690.5595
8042.3261
7443.8377
6889.9699
6376.2027
5898.5333
5453.4044
5037.6417
4648.4026
4283.1316
3939.5222
3615.4845
3309.117
3018.6826
2742.5869
2479.3601
2227.6411
1986.1628
1753.7404
1529.2595
1311.6667
1099.9602
893.18215
690.41033
490.75098
293.3378
97.289394
10345.182
-5116.2479
-42938.752
-150674.42
388199.88
86447.947
-701522.24
-1127973.7
-476232.46
768360.56
961451.45
1040711.7
1080537.5
987649.44
771566.18
592452.19
459727.52
361326.19
288091.05
232996.95
190990.41
158508.78
133042.48
112811.49
96539.838
83301.773
72417.02
63379.402
55807.61
49411.046
43965.754
39297.337
35268.639
31770.797
28716.648
26035.841
23671.151
21575.702
19710.832
18044.452
16549.768
15204.282
13988.996
12887.791
11886.919
10974.6
10140.696
9376.4396
8674.2215
8027.4066
7430.1872
6877.4592
6364.7199
5887.9816
5443.6996
5028.7105
4640.1813
4275.5646
3932.561
3609.087
3303.2468
3013.3079
2737.6805
2474.8987
2223.6051
1982.536
1750.5095
1526.4142
1309.1995
1097.8662
891.45904
689.05849
489.77365
292.74039
97.080709
10052.844
-6324.7601
-57657.411
-157478.77
428066.66
135118.54
-743566.53
-1309701.7
-736976.1
694946.96
614641.82
940354.22
1080538.2
969657.3
758214.71
583012.84
453234.83
356836.04
284941.26
230748.05
189354.27
157295.99
132127.26
112109.14
95992.403
82868.934
72070.273
63098.271
55577.161
49220.233
43806.294
39162.943
35154.48
31673.124
28632.52
25962.928
23607.592
21519.999
19661.768
18001.034
16511.178
15169.841
13958.142
12860.051
11861.896
10951.958
10120.149
9357.746
8657.1729
8011.8245
7415.9179
6864.3701
6352.6962
5876.9237
5433.5209
5019.3357
4631.5448
4267.6092
3925.237
3602.3511
3297.0613
3007.6405
2732.5032
2470.1878
2219.3405
1978.7012
1747.0912
1523.402
1306.586
1095.6469
889.63198
687.6247
488.7368
292.10699
96.860467
5840.1431
-11490.8
-66656.481
-170184.53
466568.25
166424.64
-759706.14
-1486894.3
-973468.96
466972.01
379210.44
651418.96
1040816
953138.24
745632.47
573673.09
446782.11
352365.77
281798.94
228499.39
187714.52
156077.78
131205.97
111400.67
95439.127
82430.678
71718.581
62812.665
55342.681
49025.794
43643.575
39025.616
35037.679
31573.065
28546.232
25888.055
23542.251
21462.67
19611.218
17956.253
16471.335
15134.248
13926.224
12831.327
11835.96
10928.469
10098.815
9338.3184
8639.4394
7995.6025
7401.0501
6850.7207
6340.1475
5865.3737
5422.8808
5009.5283
4622.5029
4259.2741
3917.5578
3595.2833
3290.5666
3001.6855
2727.0595
2465.2312
2214.8507
1974.6613
1743.4878
1520.2249
1303.8279
1093.3035
887.70194
686.10985
487.64093
291.43786
96.628753
4285.2131
-14513.132
-77360.115
-177582.41
502423.7
176088.25
-789073.66
-1606662.7
-1343333.9
234724.3
298825.61
469983.8
852312.43
934909.03
732522.52
564370.24
440380.81
347925.59
278671.33
226256.15
186074.93
154856.93
130280.68
110687.68
94881.243
81987.97
71362.707
62523.194
55104.662
48828.133
43477.927
38885.63
34918.464
31470.811
28457.946
25811.36
23475.245
21403.817
19559.27
17910.186
16430.307
15097.56
13893.292
12801.663
11809.152
10904.167
10076.723
9318.1834
8621.0445
7978.7615
7385.6024
6836.5274
6327.0885
5853.3446
5411.7909
4999.2987
4613.0647
4250.5675
3909.5305
3587.8901
3283.7682
2995.448
2721.3538
2460.0327
2210.1387
1970.419
1739.7016
1516.8848
1300.9267
1090.8374
885.66988
684.51427
486.48651
290.73327
96.385658
1829.7694
-19215.019
-86705.017
-189412.41
546795.94
179845.14
-817308.22
-1706775.2
-1478489.9
44023.138
242013.23
346578.37
776981.32
915266.4
718575.2
555122.8
434043.29
343523.93
275564.35
224022.59
184438.64
153635.79
129353.17
109971.53
94319.809
81541.64
71003.312
62230.389
54863.536
48627.601
43309.642
38743.228
34797.036
31366.534
28367.806
25732.966
23406.679
21343.53
19506
17862.9
16388.152
15059.827
13859.391
12771.098
11781.504
10879.083
10053.901
9297.3652
8602.0098
7961.3206
7369.5916
6821.8054
6313.5326
5840.8484
5400.2619
4988.6563
4603.2388
4241.4968
3901.1619
3580.1774
3276.6712
2988.9324
2715.39
2454.5957
2205.2076
1965.9768
1735.7349
1513.3834
1297.884
1088.2497
883.53673
682.83683
485.27401
289.9935
96.131271
-1309.0486
-25419.071
-100832.34
-208718.72
594931.31
226550.85
-810250.04
-1699373.6
-1628078.3
-188440.36
222754.31
320808.66
749437.9
889904.43
704446.45
545986.78
427781.28
339167.59
272482.8
221802.21
182808.22
152416.29
128424.92
109253.35
93755.723
81092.401
70640.966
61934.711
54619.676
48424.506
43138.973
38598.621
34673.575
31260.382
28275.942
25652.983
23336.647
21281.89
19451.479
17814.456
16344.923
15021.098
13824.563
12739.669
11753.051
10853.245
10030.373
9275.8859
8582.355
7943.2974
7353.0336
6806.5686
6299.4924
5827.8964
5388.3038
4977.6101
4593.033
4232.0692
3892.4583
3572.1507
3269.2808
2982.1431
2709.172
2448.9236
2200.0604
1961.3373
1731.5897
1509.7227
1294.7013
1085.5417
881.30353
681.08185
484.00402
289.21883
95.865683
-1633.2928
-34127.827
-117719.72
-229423.52
603451.09
288555.38
-791261.34
-1679899.7
-1622178.8
-358973.43
217088.36
333071.22
739890.4
864768.18
690607.03
536990.4
421603.69
334861.91
269430.44
219597.79
181185.79
151200.04
127497.18
108534.13
93189.749
80640.86
70276.156
61636.555
54373.408
48219.115
42966.144
38451.995
34548.237
31152.491
28182.465
25571.507
23265.233
21218.969
19395.771
17764.909
16300.668
14981.413
13788.844
12707.408
11723.819
10826.679
10006.162
9253.7659
8562.0982
7924.708
7335.9427
6790.8301
6284.9794
5814.4988
5375.9259
4966.1684
4582.4547
4222.2912
3883.4254
3563.8152
3261.6014
2975.0843
2702.7034
2443.0196
2194.6997
1956.5029
1727.2682
1505.9044
1291.38
1082.7146
878.97122
679.24843
482.67702
288.40954
95.588984
-5872.5811
-43858.348
-136215.06
-254717.49
605876.85
346597.29
-794549.49
-1686767.1
-1547790.3
-334013.4
196064.48
341398.46
728670.72
841154.74
677229.75
528154.11
415517.3
330610.98
266410.26
217411.55
179573.03
149988.36
126570.97
107814.66
92622.529
80187.535
69909.302
61336.263
54125.013
48011.663
42791.35
38303.515
34421.161
31042.976
28087.476
25488.625
23192.512
21154.831
19338.931
17714.308
16255.431
14940.811
13752.268
12674.345
11693.836
10799.408
9981.2897
9231.0237
8541.2559
7905.5672
7318.3323
6774.6016
6270.0043
5800.6653
5363.1367
4954.3388
4571.511
4212.169
3874.069
3555.1761
3253.6376
2967.7598
2695.9876
2436.8867
2189.1284
1951.4759
1722.7724
1501.9302
1287.9215
1079.7695
876.54075
677.33729
481.29349
287.56593
95.301267
-8933.2632
-60614.076
-160834.04
-279636.48
616106.6
443420.1
-810752.31
-1682114.3
-1564166.9
-334539.14
163036.45
338650.94
717147.42
819231.49
664366.01
519487.06
409526.55
326417.77
263424.47
215245.23
177971.29
148782.3
125647.14
107095.63
92054.607
79732.863
69540.762
61034.131
53874.734
47802.352
42614.76
38153.325
34292.468
30931.943
27991.066
25404.414
23118.55
21089.536
19281.01
17662.697
16209.25
14899.326
13714.865
12640.507
11663.125
10771.453
9955.7745
9207.6764
8519.8435
7885.889
7300.2146
6757.8944
6254.5771
5786.4049
5349.9443
4942.1287
4560.2083
4201.7086
3864.3942
3546.2379
3245.3935
2960.1735
2689.028
2430.5279
2183.349
1946.2587
1718.1042
1497.8018
1284.3273
1076.7077
874.01302
675.34909
479.85394
286.68827
95.002623
-6745.7186
-76208.907
-190239.13
-302116.78
615561.14
503089.09
-821383.05
-1674402.1
-1581755.2
-338068.39
166178.8
337649.08
707164.32
799369.09
652071.66
510995.61
403634.33
322284.38
260474.72
213100.14
176381.63
147582.71
124726.36
106377.59
91486.433
79277.215
69170.84
60730.409
53622.781
47591.358
42436.523
38001.549
34162.267
30819.484
27893.313
25318.943
23043.408
21023.136
19222.053
17610.117
16162.16
14856.989
13676.663
12605.918
11631.71
10742.835
9929.6342
9183.7399
8497.8752
7865.6859
7281.6013
6740.7187
6238.7072
5771.7259
5336.3564
4929.5449
4548.5528
4190.9155
3854.4061
3537.0051
3236.8732
2952.3289
2681.8279
2423.9461
2177.364
1940.8534
1713.2656
1493.5208
1280.5988
1073.5302
871.3891
673.28456
478.35886
285.77687
94.693145
-5522.9894
-53755.65
-203091.91
-289208.58
613180.88
512959.41
-830615.28
-1696658.8
-1611866.6
-335470.61
168370.62
337263.14
699415.35
781805.4
640309.9
502676.26
397841.9
318212.11
257562.15
210977.21
174804.85
146390.27
123809.19
105660.99
90918.383
78820.902
68799.795
60425.314
53369.336
47378.834
42256.77
37848.3
34030.652
30705.679
27794.289
25232.274
22967.138
20955.676
19162.103
17556.604
16114.195
14813.83
13637.687
12570.602
11599.608
10713.571
9902.8849
9159.2286
8475.3642
7844.9699
7262.5029
6723.0843
6222.4032
5756.6362
5322.3801
4916.5939
4536.5504
4179.7949
3844.1095
3527.4821
3228.0806
2944.2295
2674.3903
2417.144
2171.1758
1935.2621
1708.2584
1489.0889
1276.7373
1070.2383
868.67001
671.14438
476.80876
284.83202
94.372925
-9566.7996
-5681.1335
-195533.84
-286230.52
606059.03
491893.49
-847762.85
-1677341.6
-1490832
-312543.12
159498.92
337554.87
690535.43
765428.84
628996.01
494526.12
392149.71
314201.67
254687.46
208877.13
173241.53
145205.46
122896.05
104946.19
90350.764
78364.182
68427.844
60119.03
53114.555
47164.913
42075.612
37693.673
33897.707
30590.603
27694.055
25144.46
22889.788
20887.199
19101.196
17502.19
16065.382
14769.873
13597.961
12534.579
11566.841
10683.678
9875.5417
9134.1562
8452.3225
7823.7519
7242.9295
6705.0001
6205.6733
5741.1434
5308.0221
4903.2817
4524.2066
4168.352
3833.5088
3517.673
3219.0193
2935.8787
2666.7183
2410.1243
2164.787
1929.4871
1703.0845
1484.5077
1272.7443
1066.8331
865.8566
668.92927
475.20414
283.85403
94.042056
-13625.522
25556.767
-188431.82
-284209.65
597183.34
459374.43
-879392.13
-1778086.6
-1514236.5
-506663.1
190021.68
343485.22
681518.05
749840.22
618075.92
486543.95
386557.36
310253.22
251851.01
206800.28
171692.07
144028.68
121987.29
104233.5
89783.829
77907.27
68055.171
59811.713
52858.571
46949.709
41893.149
37537.755
33763.505
30474.318
27592.668
25055.551
22811.402
20817.744
19039.365
17446.906
16015.749
14725.143
13557.506
12497.867
11533.423
10653.172
9847.6184
9108.5351
8428.7615
7802.0422
7222.8903
6686.4746
6188.5253
5725.2544
5293.2888
4889.6142
4511.5266
4156.5914
3822.6085
3507.5817
3209.693
2927.2797
2658.8147
2402.8897
2158.1997
1923.5303
1697.7458
1479.7788
1268.6212
1063.3156
862.94963
666.63992
473.54554
282.84321
93.700628
-34650.223
30170.168
-183462.07
-279528.73
581998.05
411498.36
-903687.45
-1805922.5
-1542729.2
-783398.04
157157.59
345448.42
677799.37
733283.31
607777.33
478739.85
381063.67
306366.54
249052.87
204746.87
170156.73
142860.19
121083.16
103523.13
89217.778
77450.343
67681.929
59503.496
52601.498
46733.322
41709.467
37380.619
33628.112
30356.881
27490.178
24965.591
22732.019
20747.344
18976.642
17390.779
15965.32
14679.662
13516.34
12460.485
11499.372
10622.066
9819.128
9082.377
8404.692
7779.8506
7202.3943
6667.516
6170.9665
5708.9758
5278.1863
4875.597
4498.5156
4144.5179
3811.4127
3497.2121
3200.1051
2918.4356
2650.6824
2395.4426
2151.4163
1917.3939
1692.244
1474.9038
1264.3692
1059.6871
859.94698
664.27706
471.83349
281.79986
93.348731
-74982.851
31047.568
-178521.83
-273626.62
564607.89
358706.7
-919325.28
-1786501.5
-1558571
-896947.63
5319.5693
332181.62
666714.08
727427.61
599010.34
471087.2
375665.64
302541.02
246292.88
202716.93
168635.64
141700.15
120183.84
102815.26
88652.774
76993.546
67308.246
59194.49
52343.436
46515.837
41524.64
37222.332
33491.584
30238.344
27386.629
24874.62
22651.673
20676.031
18913.053
17333.833
15914.117
14633.448
13474.483
12422.449
11464.701
10590.374
9790.0826
9055.693
8380.1239
7757.1861
7181.4496
6648.1316
6153.0038
5692.314
5262.7204
4861.2353
4485.1784
4132.1358
3799.9255
3486.5678
3190.259
2909.3495
2642.3242
2387.7857
2144.4391
1911.0798
1686.581
1469.8842
1259.9897
1055.9488
856.85496
661.84158
470.06853
280.72432
92.986452
-95066.019
28604.176
-172709.97
-265356.99
545077.03
314377.8
-930799.64
-1824238.4
-1581731.4
-882372.67
-389670.48
296493.52
580580.5
726374.05
588404.31
463280.93
370202.44
298665.37
243491.95
200653.22
167086.61
140516.95
119265.25
102091.31
88074.26
76525.343
66924.879
58877.215
52078.271
46292.218
41334.488
37059.398
33350.983
30116.218
27279.905
24780.828
22568.811
20602.466
18847.441
17275.063
15861.265
14585.739
13431.266
12383.172
11428.898
10557.644
9760.0841
9028.1328
8354.7487
7733.7773
7159.8176
6628.112
6134.4534
5675.1084
5246.751
4846.4077
4471.4102
4119.3554
3788.0708
3475.585
3180.1019
2899.9787
2633.7064
2379.8933
2137.2499
1904.5764
1680.7509
1464.7195
1255.4868
1052.1084
853.68262
659.34697
468.26605
279.63315
92.630726
-95258.486
23604.902
-166363.53
-254844.42
522567.93
275058.05
-940118.49
-1781188.5
-1622611.2
-947800.42
-646222.99
171648.22
574651.07
718214.54
576264.6
455172.08
364554.95
294658.56
240593.43
198515.23
165480.08
139288.6
118310.76
101338.46
87472.247
76037.838
66525.509
58546.559
51801.828
46059.024
41136.151
36889.421
33204.287
29988.788
27168.541
24682.957
22482.348
20525.707
18778.986
17213.753
15806.135
14535.981
13386.199
12342.222
11391.575
10523.532
9728.8269
8999.4227
8328.3212
7709.4039
7137.3001
6607.2784
6115.1543
5657.2135
5230.1468
4830.9952
4457.1033
4106.0791
3775.76
3464.1832
3169.5606
2890.2565
2624.7682
2371.71
2129.798
1897.8373
1674.7111
1459.37
1250.8234
1048.1315
850.397
656.76199
466.39587
278.49678
92.25221
-94857.66
18629.028
-161328.04
-243760.59
499670.53
243416.14
-948868.83
-1769161.6
-1721638.6
-1069670.9
-668519.01
47206.235
572844.6
698927.53
563054.36
446782.34
358740.6
290536.24
237610.93
196314.56
163825.88
138023.38
117327.34
100562.63
86851.749
75535.298
66113.786
58205.654
51516.808
45818.592
40931.659
36714.174
33053.046
29857.416
27053.738
24582.069
22393.224
20446.59
18708.432
17150.567
15749.32
14484.705
13339.761
12300.027
11353.121
10488.388
9696.6244
8969.8457
8301.0971
7684.2968
7114.1058
6585.8197
6095.2768
5638.783
5213.0463
4815.1228
4442.3701
4092.4078
3763.0834
3452.4433
3158.7074
2880.2471
2615.5666
2363.2861
2122.1273
1890.9009
1668.4948
1453.8647
1246.0248
1044.0396
847.01685
654.10298
464.47244
277.32831
91.863257
-94487.723
13813.112
-157845.53
-233922.02
476513.49
204904.35
-974314.98
-1805099.1
-1808376.7
-1140497.4
-656303.05
8460.2233
562941.05
675997.22
549190.51
438114.06
352752.56
286292.79
234540.17
194047.98
162121.51
136719.39
116313.53
99762.649
86211.844
75016.989
65689.119
57854.025
51222.823
45570.605
40720.751
36533.44
32897.081
29721.951
26935.368
24478.055
22301.347
20365.037
18635.713
17085.447
15690.773
14431.87
13291.914
12256.557
11313.507
10452.187
9663.4569
8939.3848
8273.0615
7658.4433
7090.2239
6563.7263
6074.813
5619.8103
5195.444
4798.7858
4427.2068
4078.3384
3750.0387
3440.3633
3147.5405
2869.9493
2606.1006
2354.6209
2114.2377
1883.7671
1662.1024
1448.2041
1241.0913
1039.8332
843.54264
651.37042
462.49614
276.128
91.463929
-94223.57
8853.2862
-155129.25
-224315.55
453905.69
144058.86
-1004499.7
-1763995.5
-1862137.8
-1156631.3
-650892.67
19919.31
553757.18
652118.26
534906.31
429168.04
346583.73
281922.3
231376.6
191711.99
160364.31
135374.55
115267.69
98937.258
85551.53
74482.113
65250.866
57491.15
50919.449
45314.714
40503.139
36346.978
32736.192
29582.226
26813.29
24370.798
22206.617
20280.963
18560.755
17018.331
15630.439
14377.43
13242.62
12211.778
11272.705
10414.905
9629.302
8908.0208
8244.1979
7631.8293
7065.642
6540.9878
6053.7539
5600.2877
5177.3334
4781.9787
4411.6087
4063.867
3736.6227
3427.9408
3136.0583
2859.3618
2596.3693
2345.7139
2106.1289
1876.4361
1655.5341
1442.3885
1236.0233
1035.5129
839.97489
648.56476
460.46737
274.89609
91.05429
-93727.17
3668.9337
-152570.92
-212762.55
429238.24
88690.583
-1022077.3
-1776125.5
-1934393.3
-1156363.4
-647880.39
28690.484
546086.62
627741.97
520281.5
419940.94
340226.85
277418.66
228115.44
189302.91
158551.41
133986.64
114188.1
98085.082
84869.719
73929.798
64798.326
57116.461
50606.22
45050.537
40278.507
36154.529
32570.16
29438.057
26687.35
24260.165
22108.923
20194.273
18483.477
16949.15
15568.259
14321.333
13191.834
12165.65
11230.682
10376.512
9594.1353
8875.7323
8214.4879
7604.4387
7040.3464
6517.5924
6032.0893
5580.2065
5158.7071
4764.6953
4395.5707
4048.9895
3722.8319
3415.173
3124.2585
2848.483
2586.3717
2336.5643
2097.8005
1868.9076
1648.7898
1436.4181
1230.8214
1031.0792
836.3141
645.6865
458.38652
273.63285
90.634406
-93298.663
-1034.3533
-149925.45
-205424.37
402790.25
58841.039
-1019977.7
-1829992
-1991784.4
-1148002.2
-631517.79
43116.237
537185.5
603006.21
505344.28
410428.83
333674.62
272775.49
224751.65
186816.81
156679.76
132553.27
113072.88
97204.637
84165.229
73359.096
64330.734
56729.336
50282.63
44777.657
40046.511
35955.804
32398.746
29289.242
26557.379
24146.015
22008.142
20104.862
18403.792
16877.828
15504.167
14263.522
13139.508
12118.133
11187.4
10336.978
9557.9294
8842.4957
8183.9109
7576.2538
7014.3218
6493.5269
6009.808
5559.557
5139.5569
4746.9287
4379.0869
4033.701
3708.6624
3402.0567
3112.1385
2837.3108
2576.1062
2327.1712
2089.2518
1861.1814
1641.8697
1430.2931
1225.4858
1026.5324
832.56073
642.73609
456.25399
272.33855
90.204344
-92902.228
-6333.8385
-147504.15
-188041.21
370780.35
49670.157
-1030396.2
-1862678
-2005549.4
-1126002.1
-602195.5
74639.851
530223.08
578532.64
490135.97
400628.1
326919.69
267986.26
221279.96
184249.53
154746.1
131071.88
111920.01
96294.321
83436.781
72768.982
63847.259
56329.1
49948.125
44495.619
39806.774
35750.489
32221.687
29135.563
26423.189
24028.187
21904.142
20012.617
18321.6
16804.28
15438.091
14203.937
13085.587
12069.178
11142.82
10296.266
9520.6538
8808.2846
8152.4442
7547.2549
6987.5511
6468.7766
5986.8972
5538.3284
5119.8734
4728.6709
4362.1508
4017.9959
3694.1097
3388.5882
3099.6954
2825.843
2565.571
2317.5332
2080.482
1853.257
1634.7735
1424.0135
1220.0168
1021.873
828.71525
639.71399
454.07018
271.01345
89.764171
-92578.371
-11339.616
-145029.28
-182320.69
333448.25
19500.796
-1065255.3
-1847626.3
-1996908.2
-1130575.8
-415895.08
91330.668
518404.52
554505.76
474660.51
390533.58
319954.71
263044.29
217694.87
181596.68
152746.96
129539.74
110727.31
95352.408
82682.993
72158.342
63347.001
55915.018
49602.101
44203.925
39558.883
35538.242
32038.695
28976.775
26284.578
23906.511
21796.773
19917.412
18236.793
16728.414
15369.951
14142.507
13030.012
12018.736
11096.896
10254.339
9482.275
8773.0699
8120.0624
7517.42
6960.0153
6443.3249
5963.3428
5516.5085
5099.6463
4709.9132
4344.7547
4001.8679
3679.1684
3374.7631
3086.9258
2814.0768
2554.7643
2307.649
2071.4902
1845.1337
1627.501
1417.5795
1214.4145
1017.1013
824.7781
636.62066
451.83549
269.65783