/*--------------------------------*- C++ -*----------------------------------*\
| =========                 |                                                 |
| \\      /  F ield         | OpenFOAM: The Open Source CFD Toolbox           |
|  \\    /   O peration     | Version:  2.3.0                                 |
|   \\  /    A nd           | Web:      www.OpenFOAM.org                      |
|    \\/     M anipulation  |                                                 |
\*---------------------------------------------------------------------------*/
FoamFile
{
    version     2.0;
    format      ascii;
    class       surfaceScalarField;
    location    "1e-06";
    object      phi;
}
// * * * * * * * * * * * * * * * * * * * * * * * * * * * * * * * * * * * * * //

dimensions      [0 3 -1 0 0 0 0];

internalField   nonuniform List<scalar> 
14825
(
1.0315918e-09
-1.7830415e-11
1.0540581e-09
-2.2466292e-11
1.0853451e-09
-3.1287035e-11
1.0954245e-09
-1.0079423e-11
1.09965e-09
-4.2254527e-12
1.1235318e-09
-2.388183e-11
1.1735383e-09
-5.0006442e-11
1.2068074e-09
-3.3269118e-11
1.2098675e-09
-3.0601664e-12
1.1830446e-09
2.6822986e-11
1.0719404e-09
1.1110412e-10
8.2695252e-10
2.4498791e-10
5.7556981e-10
2.5138272e-10
4.0385014e-10
1.7171967e-10
2.8555664e-10
1.182935e-10
2.0572635e-10
7.9830283e-11
1.5179278e-10
5.3933574e-11
1.147869e-10
3.7005878e-11
8.8854367e-11
2.5932537e-11
7.0263464e-11
1.8590904e-11
5.6632632e-11
1.3630833e-11
4.642374e-11
1.0208893e-11
3.8626078e-11
7.7976619e-12
3.2562602e-11
6.0634752e-12
2.7770541e-11
4.7920613e-12
2.3927391e-11
3.8431496e-12
2.0804119e-11
3.1232718e-12
1.8235237e-11
2.5688822e-12
1.6099184e-11
2.1360529e-12
1.4305338e-11
1.7938461e-12
1.2785183e-11
1.5201545e-12
1.1486267e-11
1.2989157e-12
1.036795e-11
1.1183167e-12
9.3984092e-12
9.695407e-13
8.5524677e-12
8.4594131e-13
7.810025e-12
7.4244245e-13
7.1548895e-12
6.5513539e-13
6.5739148e-12
5.8097456e-13
6.0563441e-12
5.1757047e-13
5.5933157e-12
4.6302833e-13
5.177479e-12
4.1583652e-13
4.802701e-12
3.7477797e-13
4.463834e-12
3.3886691e-13
4.1565345e-12
3.0729943e-13
3.877119e-12
2.7941535e-13
3.6224487e-12
2.5467026e-13
3.3898368e-12
2.3261182e-13
3.1769737e-12
2.1286298e-13
2.9818663e-12
1.951074e-13
2.8027875e-12
1.790787e-13
2.6382361e-12
1.6455134e-13
2.4869024e-12
1.5133367e-13
2.3476404e-12
1.3926198e-13
2.2194445e-12
1.2819582e-13
2.1014302e-12
1.1801426e-13
1.9928177e-12
1.0861243e-13
1.8929183e-12
9.989937e-14
1.8011229e-12
9.1795374e-14
1.716892e-12
8.4230856e-14
1.6397482e-12
7.7143776e-14
1.5692687e-12
7.0479487e-14
1.5050796e-12
6.4189148e-14
1.4468503e-12
5.8229277e-14
1.3942895e-12
5.256072e-14
1.3471413e-12
4.7148259e-14
1.3051814e-12
4.1959808e-14
1.2682154e-12
3.6966062e-14
1.2360753e-12
3.2140033e-14
1.2086188e-12
2.7456516e-14
1.1857268e-12
2.2892042e-14
1.1673023e-12
1.8424426e-14
1.1532695e-12
1.4032856e-14
1.1435712e-12
9.6982427e-15
1.1381585e-12
5.4127411e-15
1.7647589e-15
2.8545492e-09
-7.0413662e-11
2.9217262e-09
-8.9643278e-11
3.0113952e-09
-1.209561e-10
3.0408816e-09
-3.9565751e-11
3.0575824e-09
-2.0926279e-11
3.1298232e-09
-9.6122643e-11
3.2746925e-09
-1.9487572e-10
3.3638644e-09
-1.2244109e-10
3.3631141e-09
-2.3097869e-12
3.2714313e-09
1.1850574e-10
2.9260104e-09
4.5652506e-10
2.2090607e-09
9.6193755e-10
1.5973273e-09
8.6311613e-10
1.1306682e-09
6.3837875e-10
8.0109873e-10
4.4786301e-10
5.7782061e-10
3.0310841e-10
4.2685832e-10
2.0489586e-10
3.2319961e-10
1.4066459e-10
2.5049611e-10
9.8636037e-11
1.9832862e-10
7.0758394e-11
1.6004563e-10
5.1913825e-11
1.3134886e-10
3.8905663e-11
1.0941203e-10
2.9734493e-11
9.2340569e-11
2.3134937e-11
7.8838604e-11
1.8294026e-11
6.8002451e-11
1.4679302e-11
5.9189923e-11
1.19358e-11
5.1936729e-11
9.8220762e-12
4.5901627e-11
8.1711547e-12
4.0830087e-11
6.8653854e-12
3.6529574e-11
5.8206669e-12
3.2852619e-11
4.9758706e-12
2.9684912e-11
4.2860229e-12
2.6936906e-11
3.7175464e-12
2.4537726e-11
3.2451211e-12
2.2430765e-11
2.8494028e-12
2.0570409e-11
2.5154918e-12
1.8919608e-11
2.2317749e-12
1.744804e-11
1.9891386e-12
1.6130714e-11
1.7803538e-12
1.4946898e-11
1.5996519e-12
1.3879289e-11
1.4423871e-12
1.291336e-11
1.3047955e-12
1.2036852e-11
1.183807e-12
1.1239368e-11
1.0768994e-12
1.0512046e-11
9.8199243e-13
9.8473004e-12
8.9735723e-13
9.2386109e-12
8.2155227e-13
8.6803504e-12
7.5336778e-13
8.1676442e-12
6.9178481e-13
7.696255e-12
6.3594038e-13
7.2624877e-12
5.8510091e-13
6.86311e-12
5.386396e-13
6.4952871e-12
4.9601854e-13
6.1565269e-12
4.5677439e-13
5.8446342e-12
4.2050509e-13
5.5576718e-12
3.8686168e-13
5.2939292e-12
3.5553794e-13
5.051894e-12
3.2626602e-13
4.8302298e-12
2.9880788e-13
4.6277558e-12
2.7295342e-13
4.4434303e-12
2.4851459e-13
4.2763359e-12
2.2532369e-13
4.1256671e-12
2.0322948e-13
3.9907197e-12
1.8209561e-13
3.8708819e-12
1.617976e-13
3.7656265e-12
1.4222144e-13
3.6745046e-12
1.2326193e-13
3.5971407e-12
1.0482037e-13
3.5332281e-12
8.6804617e-14
3.4825253e-12
6.912723e-14
3.444853e-12
5.1705207e-14
3.4200932e-12
3.4458028e-14
3.4082028e-12
1.7303138e-14
1.1112627e-15
4.3539408e-09
-1.5624498e-10
4.4648257e-09
-2.0052818e-10
4.6050675e-09
-2.6119792e-10
4.6544875e-09
-8.898572e-11
4.689727e-09
-5.6165759e-11
4.8361864e-09
-2.4258208e-10
5.0544581e-09
-4.131474e-10
5.1887844e-09
-2.5676737e-10
5.2132698e-09
-2.6795183e-11
5.0981887e-09
2.3358688e-10
4.550315e-09
1.0043988e-09
3.5407741e-09
1.9714784e-09
2.478511e-09
1.9253792e-09
1.7465788e-09
1.370311e-09
1.2376815e-09
9.5676034e-10
8.9389118e-10
6.4689872e-10
6.6146117e-10
4.3732587e-10
5.0170394e-10
3.0042182e-10
3.8950988e-10
2.108301e-10
3.0889771e-10
1.5137056e-10
2.4966249e-10
1.1114905e-10
2.0520428e-10
8.3363871e-11
1.7117881e-10
6.3759963e-11
1.4467067e-10
4.9643081e-11
1.2368348e-10
3.9281214e-11
1.0682357e-10
3.153921e-11
9.3099543e-11
2.5659826e-11
8.1793962e-11
2.1127657e-11
7.2379062e-11
1.7586054e-11
6.4460869e-11
1.4783578e-11
5.7741141e-11
1.2540394e-11
5.1991284e-11
1.0725727e-11
4.703399e-11
9.2433161e-12
4.2730274e-11
8.0212623e-12
3.8970068e-11
7.0053257e-12
3.566542e-11
6.1540508e-12
3.2745416e-11
5.4354954e-12
3.0152436e-11
4.8247545e-12
2.7839297e-11
4.3022768e-12
2.5767102e-11
3.8525486e-12
2.3903566e-11
3.463187e-12
2.2221737e-11
3.1242157e-12
2.0698982e-11
2.8275502e-12
1.9316195e-11
2.5665936e-12
1.8057169e-11
2.3359254e-12
1.6908088e-11
2.1310732e-12
1.5857126e-11
1.9483189e-12
1.4894116e-11
1.7845619e-12
1.4010285e-11
1.6371988e-12
1.3198033e-11
1.5040365e-12
1.2450756e-11
1.383217e-12
1.1762697e-11
1.2731603e-12
1.112882e-11
1.172516e-12
1.0544714e-11
1.0801246e-12
1.0006501e-11
9.9498704e-13
9.5107702e-12
9.1623594e-13
9.0545136e-12
8.431181e-13
8.6350797e-12
7.7497173e-13
8.250128e-12
7.1121764e-13
7.897595e-12
6.5134085e-13
7.575662e-12
5.9488631e-13
7.2827303e-12
5.4144617e-13
7.0173978e-12
4.9065617e-13
6.77844e-12
4.421872e-13
6.5647936e-12
3.9574203e-13
6.3755424e-12
3.5104872e-13
6.2099064e-12
3.0785747e-13
6.0672314e-12
2.659369e-13
5.9469824e-12
2.2506936e-13
5.8487362e-12
1.8505072e-13
5.7721773e-12
1.4568619e-13
5.71709e-12
1.0679245e-13
5.683364e-12
6.8184035e-14
5.6709956e-12
2.9671477e-14
-7.8977104e-15
5.5729375e-09
-2.7271173e-10
5.7320268e-09
-3.5961746e-10
5.9072826e-09
-4.3645375e-10
5.9728827e-09
-1.5458581e-10
6.0508619e-09
-1.3414497e-10
6.2915562e-09
-4.8327641e-10
6.5353088e-09
-6.5689991e-10
6.704779e-09
-4.2623759e-10
6.7478163e-09
-6.9832525e-11
6.6810499e-09
3.0035323e-10
6.3125699e-09
1.3728788e-09
5.0460267e-09
3.2380216e-09
3.3014138e-09
3.6699921e-09
2.2687537e-09
2.402971e-09
1.6032706e-09
1.6222435e-09
1.1593225e-09
1.0908469e-09
8.5952183e-10
7.3712651e-10
6.5324229e-10
5.0670136e-10
5.0815654e-10
3.5591585e-10
4.0374314e-10
2.5578398e-10
3.2689692e-10
1.8799526e-10
2.6913467e-10
1.4112612e-10
2.2486549e-10
1.0802915e-10
1.903322e-10
8.4176369e-11
1.6295846e-10
6.665495e-11
1.4094334e-10
5.3554339e-11
1.2300409e-10
4.3599066e-11
1.0821142e-10
3.5920336e-11
9.5880924e-11
2.9916545e-11
8.5501238e-11
2.5163262e-11
7.6684879e-11
2.1356752e-11
6.9134609e-11
1.8275996e-11
6.2619692e-11
1.5758232e-11
5.6959134e-11
1.3681819e-11
5.2009506e-11
1.1954953e-11
4.765612e-11
1.0507436e-11
4.3806456e-11
9.2851588e-12
4.0385297e-11
8.2459126e-12
3.733102e-11
7.3565527e-12
3.45928e-11
6.5907683e-12
3.2128435e-11
5.9275513e-12
2.990268e-11
5.3499708e-12
2.7885928e-11
4.8443016e-12
2.605318e-11
4.399341e-12
2.4383225e-11
4.0058805e-12
2.2857977e-11
3.6563203e-12
2.1461955e-11
3.3443404e-12
2.0181849e-11
3.0646679e-12
1.9006172e-11
2.8128752e-12
1.7924978e-11
2.5852309e-12
1.6929622e-11
2.3785725e-12
1.6012572e-11
2.1902098e-12
1.5167245e-11
2.017843e-12
1.4387873e-11
1.8594963e-12
1.3669393e-11
1.7134667e-12
1.3007354e-11
1.5782747e-12
1.2397837e-11
1.4526349e-12
1.1837392e-11
1.3354168e-12
1.1322979e-11
1.2256303e-12
1.0851926e-11
1.1223944e-12
1.0421882e-11
1.0249296e-12
1.0030792e-11
9.3253627e-13
9.6768593e-12
8.4458869e-13
9.3585259e-12
7.6052052e-13
9.0744487e-12
6.7981922e-13
8.8234825e-12
6.0201486e-13
8.6046654e-12
5.2667452e-13
8.4172061e-12
4.5339617e-13
8.2604753e-12
3.8180016e-13
8.1339963e-12
3.1152962e-13
8.0374403e-12
2.4224226e-13
7.9706251e-12
1.7360761e-13
7.9335114e-12
1.0529768e-13
7.9262102e-12
3.6972703e-14
-3.0711338e-14
6.5526213e-09
-4.1956172e-10
6.7541846e-09
-5.611808e-10
6.9624939e-09
-6.4476303e-10
7.037796e-09
-2.2988786e-10
7.1218091e-09
-2.1815805e-10
7.3460752e-09
-7.0754253e-10
7.7821314e-09
-1.0929561e-09
8.0177166e-09
-6.6182277e-10
7.9847037e-09
-3.6819658e-11
7.8762742e-09
4.0878273e-10
7.4076993e-09
1.8414537e-09
5.9418989e-09
4.7038219e-09
3.9175961e-09
5.6942949e-09
2.6908794e-09
3.6296877e-09
1.9038967e-09
2.4092262e-09
1.3793027e-09
1.6154409e-09
1.0248644e-09
1.0915648e-09
7.8065737e-10
7.5090838e-10
6.0859606e-10
5.2797717e-10
4.8454085e-10
3.7983918e-10
3.9307393e-10
2.7946219e-10
3.2420498e-10
2.0999507e-10
2.713404e-10
1.6089372e-10
2.3004218e-10
1.2547459e-10
1.9726219e-10
9.9434943e-11
1.708664e-10
7.9950127e-11
1.4933264e-10
6.5132822e-11
1.3155664e-10
5.369634e-11
1.1672416e-10
4.474902e-11
1.0422612e-10
3.7661307e-11
9.3600496e-11
3.1982372e-11
8.4492557e-11
2.7383935e-11
7.6626677e-11
2.3624111e-11
6.978648e-11
2.0522015e-11
6.3800361e-11
1.7941071e-11
5.8531014e-11
1.5776783e-11
5.3867596e-11
1.3948576e-11
4.9719943e-11
1.2393565e-11
4.6014143e-11
1.1062352e-11
4.2689204e-11
9.9157061e-12
3.9694462e-11
8.9222926e-12
3.6987584e-11
8.0568483e-12
3.4532999e-11
7.2988865e-12
3.230066e-11
6.6316794e-12
3.0265067e-11
6.0414726e-12
2.8404477e-11
5.5169107e-12
2.670027e-11
5.048547e-12
2.5136439e-11
4.6284982e-12
2.3699172e-11
4.2501419e-12
2.2376507e-11
3.9078952e-12
2.1158055e-11
3.5970248e-12
2.0034761e-11
3.3135032e-12
1.8998718e-11
3.0538854e-12
1.8043003e-11
2.8152112e-12
1.7161542e-11
2.5949272e-12
1.6349003e-11
2.3908142e-12
1.5600695e-11
2.2009428e-12
1.4912496e-11
2.023615e-12
1.4280784e-11
1.8573423e-12
1.370238e-11
1.7007985e-12
1.31745e-11
1.5528092e-12
1.2694717e-11
1.4123188e-12
1.2260924e-11
1.2783817e-12
1.1871304e-11
1.1501405e-12
1.1524306e-11
1.0268177e-12
1.1218622e-11
9.076988e-13
1.0953172e-11
7.9212375e-13
1.072709e-11
6.7947796e-13
1.0539712e-11
5.6917894e-13
1.0390565e-11
4.6067663e-13
1.0279368e-11
3.5343919e-13
1.0206023e-11
2.4695172e-13
1.0170623e-11
1.4069776e-13
1.0173442e-11
3.4153929e-14
-7.2317483e-14
7.3263674e-09
-5.9608253e-10
7.5724595e-09
-8.0727296e-10
7.7994962e-09
-8.7179971e-10
7.8936595e-09
-3.2405118e-10
8.0537989e-09
-3.7829736e-10
8.2633848e-09
-9.1712849e-10
8.5563448e-09
-1.3859161e-09
9.0187347e-09
-1.1242127e-09
9.1216378e-09
-1.3972277e-10
8.7978128e-09
7.3260775e-10
7.6686977e-09
2.9705689e-09
6.0303094e-09
6.3422103e-09
4.2506541e-09
7.4739502e-09
3.0146295e-09
4.8657123e-09
2.1463429e-09
3.2775128e-09
1.5589788e-09
2.202805e-09
1.1612033e-09
1.4893404e-09
8.8668094e-10
1.0254307e-09
6.9288453e-10
7.2177358e-10
5.5287278e-10
5.1985094e-10
4.4943503e-10
3.8289995e-10
3.7140687e-10
2.8802324e-10
3.11408e-10
2.2089259e-10
2.6446205e-10
1.7242054e-10
2.2714494e-10
1.3675205e-10
1.9705532e-10
1.1003975e-10
1.7247753e-10
8.9710611e-11
1.5216507e-10
7.4008802e-11
1.3519757e-10
6.171652e-11
1.2088567e-10
5.1973204e-11
1.0870588e-10
4.416216e-11
9.8255821e-11
3.7833995e-11
8.9222547e-11
3.2657383e-11
8.1360167e-11
2.8384394e-11
7.4473507e-11
2.482773e-11
6.8406279e-11
2.1844009e-11
6.3032233e-11
1.9322621e-11
5.8248599e-11
1.7177197e-11
5.3971087e-11
1.5339864e-11
5.0130098e-11
1.3756694e-11
4.6667792e-11
1.2384598e-11
4.3535818e-11
1.1188822e-11
4.0693532e-11
1.0141172e-11
3.8106592e-11
9.218619e-12
3.5745843e-11
8.4022209e-12
3.358642e-11
7.6763335e-12
3.1607029e-11
7.0279376e-12
2.9789361e-11
6.4461651e-12
2.811762e-11
5.9218829e-12
2.6578126e-11
5.4473891e-12
2.5158999e-11
5.0161511e-12
2.3849893e-11
4.6226086e-12
2.2641775e-11
4.2620036e-12
2.152674e-11
3.9302455e-12
2.0497862e-11
3.6238045e-12
1.9549066e-11
3.3396106e-12
1.8675015e-11
3.0749936e-12
1.7871029e-11
2.8276007e-12
1.7133003e-11
2.5953683e-12
1.6457346e-11
2.3764553e-12
1.5840925e-11
2.1692299e-12
1.5281021e-11
1.9722227e-12
1.4775287e-11
1.7841158e-12
1.4321715e-11
1.6037116e-12
1.3918611e-11
1.4299223e-12
1.3564564e-11
1.2617457e-12
1.3258434e-11
1.0982534e-12
1.2999334e-11
9.3857818e-13
1.2786617e-11
7.8189522e-13
1.2619871e-11
6.2742312e-13
1.2498909e-11
4.7440111e-13
1.2423769e-11
3.2209121e-13
1.2394716e-11
1.697508e-13
1.241229e-11
1.6579863e-14
-1.3728744e-13
7.9255515e-09
-8.0339748e-10
8.1914452e-09
-1.0731667e-09
8.481719e-09
-1.1620735e-09
8.5997274e-09
-4.4205957e-10
8.6999589e-09
-4.7852885e-10
9.2683651e-09
-1.4855348e-09
9.4960551e-09
-1.613606e-09
9.4027903e-09
-1.0309479e-09
9.8968301e-09
-6.3376259e-10
8.5299477e-09
2.0994902e-09
5.6821464e-09
5.8183701e-09
5.1303152e-09
6.8940415e-09
4.3120072e-09
8.2922582e-09
3.2490885e-09
5.928631e-09
2.3377609e-09
4.1888404e-09
1.7032891e-09
2.8372767e-09
1.272045e-09
1.9205845e-09
9.7387409e-10
1.3236017e-09
7.6293801e-10
9.3270966e-10
6.1020497e-10
6.7258398e-10
4.9712526e-10
4.9597966e-10
4.1165119e-10
3.7349731e-10
3.4580458e-10
2.867392e-10
2.9419544e-10
2.2402968e-10
2.5310773e-10
1.7783976e-10
2.1993041e-10
1.4321707e-10
1.9279469e-10
1.1684633e-10
1.7034061e-10
9.6462883e-11
1.5156251e-10
8.049462e-11
1.3570612e-10
6.7829589e-11
1.2219794e-10
5.7670339e-11
1.1059664e-10
4.9435293e-11
1.0055863e-10
4.2695395e-11
9.1813663e-11
3.7129356e-11
8.4147059e-11
3.2494333e-11
7.7386762e-11
2.8604305e-11
7.1393676e-11
2.5315706e-11
6.6054503e-11
2.2516369e-11
6.1276251e-11
2.0118115e-11
5.6982096e-11
1.8050847e-11
5.3108157e-11
1.6258536e-11
4.9601009e-11
1.4695969e-11
4.6415724e-11
1.3326456e-11
4.3514325e-11
1.2120017e-11
4.0864566e-11
1.105198e-11
3.8438935e-11
1.0101964e-11
3.6213871e-11
9.253001e-12
3.4169114e-11
8.4909213e-12
3.2287183e-11
7.8038131e-12
3.0552945e-11
7.1816273e-12
2.8953258e-11
6.6158376e-12
2.7476682e-11
6.0991837e-12
2.6113235e-11
5.6254504e-12
2.4854189e-11
5.1892915e-12
2.3691901e-11
4.7860921e-12
2.2619676e-11
4.4118353e-12
2.1631644e-11
4.0630252e-12
2.0722666e-11
3.7365789e-12
1.9888244e-11
3.4297899e-12
1.9124458e-11
3.1402406e-12
1.8427902e-11
2.865786e-12
1.7795633e-11
2.6044912e-12
1.722513e-11
2.3546185e-12
1.6714256e-11
2.1145855e-12
1.6261226e-11
1.8829522e-12
1.5864584e-11
1.6583883e-12
1.5523179e-11
1.4396583e-12
1.5236152e-11
1.2256048e-12
1.5002924e-11
1.0151228e-12
1.4823186e-11
8.0716175e-13
1.4696893e-11
6.0069335e-13
1.462427e-11
3.9471417e-13
1.4605826e-11
1.8819466e-13
1.4642271e-11
-1.9864857e-14
-2.2980358e-13
8.3668838e-09
-1.0335744e-09
8.6741367e-09
-1.3804196e-09
8.9460434e-09
-1.4339802e-09
9.1464459e-09
-6.4246213e-10
9.3669189e-09
-6.9900178e-10
9.7516826e-09
-1.8702985e-09
1.0277506e-08
-2.1394293e-09
1.056179e-08
-1.3152321e-09
1.0387658e-08
-4.5963008e-10
1.0553165e-08
1.9339826e-09
1.0019452e-08
6.3520829e-09
7.201416e-09
9.7120778e-09
4.8123652e-09
1.0681309e-08
3.4844587e-09
7.2565375e-09
2.4908547e-09
5.1824443e-09
1.8171249e-09
3.5110065e-09
1.3606501e-09
2.3770594e-09
1.0446018e-09
1.6396499e-09
8.2051894e-10
1.1567925e-09
6.5788116e-10
8.3522177e-10
5.3719079e-10
6.1667004e-10
4.4576785e-10
4.6492025e-10
3.751995e-10
3.5730755e-10
3.1979008e-10
2.794391e-10
2.7560442e-10
2.2202542e-10
2.3987192e-10
1.7894956e-10
2.106058e-10
1.4611245e-10
1.8635769e-10
1.2071099e-10
1.6605485e-10
1.0079746e-10
1.4889152e-10
8.4992916e-11
1.3425422e-10
7.230764e-11
1.2167029e-10
6.2019226e-11
1.1077132e-10
5.3594364e-11
1.0126726e-10
4.6633407e-11
9.2927482e-11
4.0834113e-11
8.5566973e-11
3.5964813e-11
7.9036055e-11
3.1846623e-11
7.3212715e-11
2.8339707e-11
6.7996743e-11
2.5334086e-11
6.3305302e-11
2.2742288e-11
5.9069469e-11
2.0494368e-11
5.5231575e-11
1.8533862e-11
5.1743104e-11
1.6814927e-11
4.856303e-11
1.530009e-11
4.5656504e-11
1.3958505e-11
4.2993793e-11
1.2764675e-11
4.0549424e-11
1.1697369e-11
3.8301496e-11
1.0738849e-11
3.6231111e-11
9.8741979e-12
3.432191e-11
9.0908278e-12
3.2559694e-11
8.3780532e-12
3.0932106e-11
7.7267715e-12
2.9428368e-11
7.1291876e-12
2.8039067e-11
6.5785924e-12
2.6755967e-11
6.069192e-12
2.5571862e-11
5.5959397e-12
2.4480446e-11
5.154441e-12
2.3476208e-11
4.7408161e-12
2.2554341e-11
4.3516567e-12
2.1710667e-11
3.9839142e-12
2.0941573e-11
3.6348804e-12
2.0243955e-11
3.3021088e-12
1.9615175e-11
2.9833984e-12
1.9053019e-11
2.6767412e-12
1.8555665e-11
2.380306e-12
1.8121656e-11
2.0923976e-12
1.7749878e-11
1.8114361e-12
1.7439545e-11
1.5359381e-12
1.7190186e-11
1.2644812e-12
1.7001638e-11
9.9570994e-13
1.6874042e-11
7.2828961e-13
1.6807841e-11
4.6091502e-13
1.6803791e-11
1.922442e-13
1.6863038e-11
-7.9111704e-14
-3.5362844e-13
8.6800631e-09
-1.2859294e-09
8.9936079e-09
-1.6939644e-09
9.3610508e-09
-1.8014231e-09
9.435223e-09
-7.1663438e-10
9.6364641e-09
-9.0024284e-10
1.0296961e-08
-2.5307959e-09
1.0896575e-08
-2.7390425e-09
1.1053204e-08
-1.4718618e-09
1.0984707e-08
-3.9113249e-10
1.1265333e-08
1.6533564e-09
1.1769167e-08
5.8482492e-09
9.6014884e-09
1.1879756e-08
5.6793446e-09
1.4603453e-08
3.7322801e-09
9.203602e-09
2.6105015e-09
6.304223e-09
1.904505e-09
4.217003e-09
1.4299746e-09
2.8515898e-09
1.1010206e-09
1.9686039e-09
8.6723165e-10
1.3905815e-09
6.9712197e-10
1.0053315e-09
5.7058012e-10
7.4321189e-10
4.7450806e-10
5.6099231e-10
4.0019774e-10
4.3161787e-10
3.4174039e-10
3.3789645e-10
2.9504433e-10
2.6872147e-10
2.5722255e-10
2.1677134e-10
2.2620058e-10
1.7713442e-10
2.0046338e-10
1.4644819e-10
1.7888687e-10
1.2237396e-10
1.6062547e-10
1.0325431e-10
1.4503445e-10
8.7898659e-11
1.3161645e-10
7.5437232e-11
1.1998333e-10
6.5227481e-11
1.098292e-10
5.6787528e-11
1.0091058e-10
4.9752733e-11
9.3031983e-11
4.384341e-11
8.6035111e-11
3.8843493e-11
7.9790836e-11
3.4583981e-11
7.4193023e-11
3.0931898e-11
6.9153884e-11
2.7781425e-11
6.4600334e-11
2.5047917e-11
6.0471191e-11
2.2663004e-11
5.6714956e-11
2.0571161e-11
5.328807e-11
1.8726976e-11
5.0153516e-11
1.7093057e-11
4.7279706e-11
1.5638484e-11
4.4639574e-11
1.43375e-11
4.2209847e-11
1.3168575e-11
3.9970445e-11
1.2113599e-11
3.7903989e-11
1.1157284e-11
3.5995397e-11
1.0286644e-11
3.4231553e-11
9.4906158e-12
3.260102e-11
8.7597193e-12
3.1093821e-11
8.0857912e-12
2.9701234e-11
7.4617786e-12
2.841564e-11
6.8815333e-12
2.7230382e-11
6.3396985e-12
2.6139658e-11
5.8315403e-12
2.5138418e-11
5.3528962e-12
2.4222293e-11
4.9000385e-12
2.3387522e-11
4.4696511e-12
2.2630897e-11
4.0587341e-12
2.1949711e-11
3.6645842e-12
2.1341722e-11
3.2847298e-12
2.0805115e-11
2.9169129e-12
2.0338475e-11
2.5590376e-12
1.9940766e-11
2.209145e-12
1.9611313e-11
1.8653912e-12
1.9349793e-11
1.5260008e-12
1.9156226e-11
1.189277e-12
1.9030975e-11
8.5354105e-13
1.8974746e-11
5.1714385e-13
1.8988618e-11
1.7837229e-13
1.9073982e-11
-1.6447657e-13
-5.1222563e-13
8.9350397e-09
-1.610189e-09
9.2608617e-09
-2.0197864e-09
9.5798747e-09
-2.1204361e-09
9.7621902e-09
-8.9894989e-10
9.9048086e-09
-1.0428612e-09
1.0500873e-08
-3.1268602e-09
1.1270452e-08
-3.5086215e-09
1.151268e-08
-1.71409e-09
1.1458458e-08
-3.3691056e-10
1.1359184e-08
1.752631e-09
1.1143183e-08
6.0642498e-09
9.663113e-09
1.3359826e-08
6.6242933e-09
1.7642273e-08
3.8739369e-09
1.1953958e-08
2.691135e-09
7.4870249e-09
1.9685937e-09
4.9395443e-09
1.4826738e-09
3.3375097e-09
1.1450772e-09
2.3062005e-09
9.0452323e-10
1.6311354e-09
7.2902738e-10
1.1808273e-09
5.981473e-10
8.7409198e-10
4.9854766e-10
6.6059195e-10
4.2134326e-10
5.0882227e-10
3.6049073e-10
3.9874897e-10
3.1179518e-10
3.1741703e-10
2.7229004e-10
2.5627648e-10
2.3983918e-10
2.0958529e-10
2.1287947e-10
1.734079e-10
1.9024914e-10
1.4500429e-10
1.7107282e-10
1.2243064e-10
1.5468207e-10
1.0428941e-10
1.4056056e-10
8.9558731e-11
1.2830489e-10
7.7483155e-11
1.1759674e-10
6.7495679e-11
1.0818247e-10
5.9167e-11
9.9858277e-11
5.2167601e-11
9.245897e-11
4.6242799e-11
8.584969e-11
4.119326e-11
7.9919512e-11
3.6862075e-11
7.4576625e-11
3.3124311e-11
6.9744549e-11
2.9879993e-11
6.5359225e-11
2.7048327e-11
6.136671e-11
2.4563675e-11
5.7721356e-11
2.237233e-11
5.4384362e-11
2.043005e-11
5.1322609e-11
1.8700237e-11
4.8507714e-11
1.7152394e-11
4.5915272e-11
1.5761017e-11
4.3524224e-11
1.4504646e-11
4.1316351e-11
1.3365156e-11
3.9275847e-11
1.2327148e-11
3.7388969e-11
1.1377493e-11
3.5643747e-11
1.0504941e-11
3.4029742e-11
9.6997955e-12
3.2537844e-11
8.9536763e-12
3.1160105e-11
8.2592723e-12
2.9889593e-11
7.61021e-12
2.8720282e-11
7.0008506e-12
2.7646946e-11
6.4262321e-12
2.666508e-11
5.8819043e-12
2.5770827e-11
5.363904e-12
2.4960921e-11
4.8686398e-12
2.4232635e-11
4.3928698e-12
2.358374e-11
3.9336249e-12
2.3012467e-11
3.4881859e-12
2.2517481e-11
3.0540234e-12
2.209786e-11
2.628766e-12
2.1753075e-11
2.2101758e-12
2.1482986e-11
1.7960899e-12
2.1287828e-11
1.3844347e-12
2.116822e-11
9.73149e-13
2.1125169e-11
5.6019484e-13
2.1160072e-11
1.4346982e-13
2.1274699e-11
-2.7910415e-13
-7.0868812e-13
9.0197005e-09
-1.9269812e-09
9.5043267e-09
-2.5044125e-09
9.729247e-09
-2.3453564e-09
9.9675432e-09
-1.1372461e-09
1.012781e-08
-1.2031276e-09
1.0663949e-08
-3.6629998e-09
1.1493758e-08
-4.3384302e-09
1.1853965e-08
-2.074297e-09
1.1779839e-08
-2.6278459e-10
1.1567742e-08
1.9647284e-09
1.0719373e-08
6.9126188e-09
8.8244124e-09
1.5254786e-08
5.9295715e-09
2.0537113e-08
3.8584625e-09
1.4025067e-08
2.7376246e-09
8.6078628e-09
2.0128118e-09
5.6643572e-09
1.5211554e-09
3.8291661e-09
1.1785156e-09
2.6488403e-09
9.3368906e-10
1.875962e-09
7.5458202e-10
1.3599344e-09
6.2065677e-10
1.0080172e-09
5.1849161e-10
7.6275712e-10
4.3912295e-10
5.8819092e-10
3.7643885e-10
4.6143308e-10
3.2618611e-10
3.6766976e-10
2.8534991e-10
2.9711268e-10
2.5175449e-10
2.431807e-10
2.2380461e-10
2.0135778e-10
2.0031236e-10
1.6849654e-10
1.8038123e-10
1.4236176e-10
1.633256e-10
1.2134504e-10
1.4861511e-10
1.0426922e-10
1.3583487e-10
9.02634e-11
1.2465712e-10
7.8673423e-11
1.1482044e-10
6.900368e-11
1.0611454e-10
6.0873498e-11
9.8368838e-11
5.39885e-11
9.1443953e-11
4.8118143e-11
8.5225155e-11
4.3080872e-11
7.9617419e-11
3.8732045e-11
7.454154e-11
3.4955871e-11
6.9931139e-11
3.1658727e-11
6.5730294e-11
2.8764519e-11
6.1891663e-11
2.621096e-11
5.8374994e-11
2.3946718e-11
5.5145916e-11
2.1929314e-11
5.2174976e-11
2.0123333e-11
4.9436843e-11
1.8499149e-11
4.6909664e-11
1.7031825e-11
4.4574533e-11
1.5700285e-11
4.2415057e-11
1.4486623e-11
4.0416988e-11
1.3375562e-11
3.8567926e-11
1.2354003e-11
3.6857067e-11
1.1410653e-11
3.5274996e-11
1.0535748e-11
3.3813508e-11
9.7207596e-12
3.2465467e-11
8.958251e-12
3.1224682e-11
8.2416352e-12
3.0085804e-11
7.565109e-12
2.9044244e-11
6.9234638e-12
2.8096097e-11
6.3120516e-12
2.723808e-11
5.7266564e-12
2.6467485e-11
5.1634647e-12
2.5782133e-11
4.6189765e-12
2.5180338e-11
4.0899809e-12
2.4660877e-11
3.5734835e-12
2.4222976e-11
3.0666679e-12
2.3866281e-11
2.56687e-12
2.3590865e-11
2.0715058e-12
2.339721e-11
1.5780895e-12
2.3286218e-11
1.0841411e-12
2.3259211e-11
5.8720241e-13
2.3318006e-11
8.4674214e-14
2.3464654e-11
-4.2575183e-13
-9.4580607e-13
8.9937043e-09
-2.2018475e-09
9.4606763e-09
-2.9713846e-09
9.8804528e-09
-2.7651328e-09
9.9596403e-09
-1.2164336e-09
1.0496608e-08
-1.7400953e-09
1.0832508e-08
-3.9989e-09
1.150513e-08
-5.0110522e-09
1.1931479e-08
-2.5006454e-09
1.1604936e-08
6.3758031e-11
1.1852874e-08
1.7167908e-09
1.040122e-08
8.3642728e-09
7.4307672e-09
1.8225239e-08
5.256491e-09
2.271139e-08
3.8209705e-09
1.5460588e-08
2.7622041e-09
9.6666291e-09
2.0406249e-09
6.3859364e-09
1.5475761e-09
4.3222149e-09
1.2028861e-09
2.9935302e-09
9.5588109e-10
2.122967e-09
7.746621e-10
1.5411533e-09
6.3878928e-10
1.1438901e-09
5.3487893e-10
8.6666746e-10
4.5397089e-10
6.6909897e-10
3.8993947e-10
5.2546449e-10
3.3851085e-10
4.1909838e-10
2.966481e-10
3.3897543e-10
2.6215455e-10
2.7767425e-10
2.3341625e-10
2.3009608e-10
2.0922911e-10
1.9268369e-10
1.8868281e-10
1.6290806e-10
1.7108006e-10
1.3894778e-10
1.5588077e-10
1.1946851e-10
1.426618e-10
1.0348237e-10
1.3108854e-10
9.0246675e-11
1.2089378e-10
7.9198436e-11
1.1186239e-10
6.9904895e-11
1.0381965e-10
6.2031235e-11
9.6622724e-11
5.5315067e-11
9.0153929e-11
4.9549665e-11
8.431573e-11
4.4570244e-11
7.9026774e-11
4.0244825e-11
7.4218852e-11
3.6466648e-11
6.9834466e-11
3.3148904e-11
6.5824923e-11
3.0220502e-11
6.2148808e-11
2.7622832e-11
5.8770751e-11
2.530737e-11
5.5660436e-11
2.3233647e-11
5.2791791e-11
2.1367794e-11
5.0142323e-11
1.9681292e-11
4.7692582e-11
1.8150026e-11
4.5425703e-11
1.6753501e-11
4.3327042e-11
1.5474223e-11
4.138386e-11
1.4297184e-11
3.9585071e-11
1.3209442e-11
3.7921025e-11
1.2199793e-11
3.6383331e-11
1.1258453e-11
3.4964704e-11
1.0376878e-11
3.3658843e-11
9.5474955e-12
3.2460325e-11
8.7636267e-12
3.136452e-11
8.0192685e-12
3.0367512e-11
7.3090588e-12
2.9466046e-11
6.6281227e-12
2.8657464e-11
5.9720464e-12
2.7939671e-11
5.3367692e-12
2.7311093e-11
4.7185587e-12
2.6770652e-11
4.1139246e-12
2.6317744e-11
3.5195751e-12
2.5952225e-11
2.9323892e-12
2.5674404e-11
2.3493272e-12
2.5485036e-11
1.7674575e-12
2.5385339e-11
1.1838381e-12
2.5377017e-11
5.9552423e-13
2.5462108e-11
-4.1748901e-16
2.5643324e-11
-6.0696809e-13
-1.2260742e-12
8.9651426e-09
-2.4956397e-09
9.5041159e-09
-3.5103579e-09
9.8207202e-09
-3.0817372e-09
9.9724824e-09
-1.3681958e-09
1.0486856e-08
-2.2544693e-09
1.1158857e-08
-4.6709003e-09
1.1681753e-08
-5.533949e-09
1.1928357e-08
-2.7472492e-09
1.132834e-08
6.6377482e-10
1.0729698e-08
2.3154331e-09
9.5271663e-09
9.5668045e-09
6.8764496e-09
2.0875955e-08
5.0465196e-09
2.454132e-08
3.795698e-09
1.6711409e-08
2.7697697e-09
1.0692557e-08
2.0547709e-09
7.1009352e-09
1.5638238e-09
4.8131619e-09
1.219557e-09
3.3377971e-09
9.7211778e-10
2.3704063e-09
7.9004345e-10
1.7232277e-09
6.5314835e-10
1.2807852e-09
5.4818804e-10
9.7162777e-10
4.6627268e-10
7.5101433e-10
4.0130804e-10
5.9042914e-10
3.4903073e-10
4.7137569e-10
3.0640363e-10
3.8160253e-10
2.7122471e-10
3.1285317e-10
2.4187267e-10
2.5944812e-10
2.1713554e-10
2.1742082e-10
1.9609546e-10
1.8394814e-10
1.7804822e-10
1.5699502e-10
1.6244753e-10
1.350692e-10
1.4886488e-10
1.1706501e-10
1.3696099e-10
1.0215057e-10
1.2646457e-10
8.9694848e-11
1.1715703e-10
7.921244e-11
1.0886066e-10
7.0327598e-11
1.0143006e-10
6.274567e-11
9.474532e-11
5.6234404e-11
8.870701e-11
5.0608552e-11
8.3232137e-11
4.5719697e-11
7.8251076e-11
4.1447707e-11
7.3705109e-11
3.7694871e-11
6.954449e-11
3.438112e-11
6.5726892e-11
3.1440429e-11
6.2216162e-11
2.8818099e-11
5.8981306e-11
2.6468502e-11
5.5995669e-11
2.435343e-11
5.3236258e-11
2.2440701e-11
5.0683194e-11
2.0703089e-11
4.8319252e-11
1.9117443e-11
4.6129477e-11
1.7663997e-11
4.4100875e-11
1.6325786e-11
4.2222152e-11
1.5088164e-11
4.0483486e-11
1.3938459e-11
3.8876356e-11
1.2865583e-11
3.739338e-11
1.1859854e-11
3.6028194e-11
1.091268e-11
3.4775343e-11
1.0016477e-11
3.3630196e-11
9.1644153e-12
3.2588865e-11
8.3503896e-12
3.1648148e-11
7.5688392e-12
3.0805473e-11
6.8147212e-12
3.0058857e-11
6.0833855e-12
2.9406865e-11
5.3705498e-12
2.884859e-11
4.6721995e-12
2.8383626e-11
3.9845391e-12
2.8012057e-11
3.3039581e-12
2.7734455e-11
2.6269298e-12
2.7551871e-11
1.9500416e-12
2.7465854e-11
1.2698542e-12
2.747849e-11
5.8288892e-13
2.7592225e-11
-1.1415326e-13
2.7810181e-11
-8.2492417e-13
-1.5517023e-12
8.9183893e-09
-2.8425235e-09
9.3822472e-09
-3.9742158e-09
9.7926119e-09
-3.4921018e-09
9.8567898e-09
-1.4323737e-09
1.035126e-08
-2.7489399e-09
1.1131431e-08
-5.4510706e-09
1.1693337e-08
-6.095855e-09
1.2248353e-08
-3.3022657e-09
1.1502255e-08
1.4098728e-09
9.1601504e-09
4.6575379e-09
6.7095886e-09
1.2017366e-08
6.0546943e-09
2.153085e-08
4.8420288e-09
2.5753985e-08
3.753195e-09
1.7800243e-08
2.7620202e-09
1.1683732e-08
2.0575388e-09
7.8054167e-09
1.5715483e-09
5.2991524e-09
1.2297289e-09
3.6796164e-09
9.8329507e-10
2.6168402e-09
8.0140993e-10
1.9051128e-09
6.6426689e-10
1.4179282e-09
5.5884204e-10
1.0770526e-09
4.7636983e-10
8.3348654e-10
4.1082422e-10
6.5597475e-10
3.5797776e-10
5.2422215e-10
3.1481109e-10
4.2476919e-10
2.7912982e-10
3.4853444e-10
2.4931471e-10
2.8926322e-10
2.2415294e-10
2.4258259e-10
2.0272432e-10
2.0537675e-10
1.8432172e-10
1.7539762e-10
1.6839575e-10
1.5099516e-10
1.5451489e-10
1.3094587e-10
1.4233703e-10
1.1432843e-10
1.3158833e-10
1.0044354e-10
1.2204791e-10
8.8752865e-11
1.1353602e-10
7.8839486e-11
1.0590545e-10
7.037623e-11
9.9034752e-11
6.3105105e-11
9.2823089e-11
5.6820214e-11
8.718627e-11
5.1356515e-11
8.205362e-11
4.6580356e-11
7.7365504e-11
4.2382985e-11
7.3071382e-11
3.8675242e-11
6.9128237e-11
3.5383574e-11
6.5499315e-11
3.244702e-11
6.2153105e-11
2.9814711e-11
5.9062508e-11
2.7444026e-11
5.6204154e-11
2.5299055e-11
5.3557839e-11
2.3349403e-11
5.1106061e-11
2.156922e-11
4.8833645e-11
1.9936412e-11
4.672741e-11
1.8432021e-11
4.4775911e-11
1.7039662e-11
4.2969215e-11
1.5745154e-11
4.1298721e-11
1.4536077e-11
3.9756994e-11
1.3401581e-11
3.833765e-11
1.2332024e-11
3.7035239e-11
1.1318888e-11
3.584516e-11
1.0354494e-11
3.4763584e-11
9.4319649e-12
3.3787396e-11
8.5450274e-12
3.2914133e-11
7.687984e-12
3.2141949e-11
6.8555689e-12
3.1469576e-11
6.0429222e-12
3.0896296e-11
5.2454797e-12
3.0421924e-11
4.458911e-12
3.0046794e-11
3.6790878e-12
2.9771762e-11
2.9019623e-12
2.9598194e-11
2.123609e-12
2.9527999e-11
1.3400493e-12
2.9563664e-11
5.4722356e-13
2.9707988e-11
-2.5847723e-13
2.9964667e-11
-1.0816029e-12
-1.924643e-12
8.85712e-09