/*--------------------------------*- C++ -*----------------------------------*\
| =========                 |                                                 |
| \\      /  F ield         | OpenFOAM: The Open Source CFD Toolbox           |
|  \\    /   O peration     | Version:  2.3.0                                 |
|   \\  /    A nd           | Web:      www.OpenFOAM.org                      |
|    \\/     M anipulation  |                                                 |
\*---------------------------------------------------------------------------*/
FoamFile
{
    version     2.0;
    format      ascii;
    class       volVectorField;
    location    "1e-06";
    object      U;
}
// * * * * * * * * * * * * * * * * * * * * * * * * * * * * * * * * * * * * * //

dimensions      [0 1 -1 0 0 0 0];

internalField   nonuniform List<vector> 
7500
(
(459.62457 0.073420719 3.4199836e-16)
(457.91741 -0.022319053 3.5967353e-15)
(462.46748 -0.33521426 2.091594e-15)
(463.89059 0.32628421 2.1106979e-18)
(456.59179 0.47155162 2.4332251e-15)
(454.91186 -0.22388082 5.3255872e-15)
(462.16944 -0.85561577 8.8245653e-16)
(467.80285 -0.20137796 6.450777e-15)
(463.29636 0.48262231 8.1261682e-15)
(449.71256 0.74834822 -1.9215346e-15)
(427.59002 3.5641801 -4.4596545e-15)
(351.52757 6.8975421 -3.6065097e-15)
(242.39588 7.4818873 -1.0027955e-15)
(169.4803 4.9405928 -2.4048321e-16)
(118.30217 3.3575293 -1.3334361e-16)
(83.54754 2.2550967 -1.8312684e-16)
(60.248615 1.5168012 -4.6195343e-17)
(44.483063 1.0356155 -2.5295995e-17)
(33.625103 0.72196037 4.0871006e-17)
(25.986636 0.51483995 -4.7715295e-17)
(20.492438 0.37549771 1.0154062e-17)
(16.454209 0.27977642 1.5432262e-17)
(13.425228 0.21261227 -2.0182794e-17)
(11.110373 0.16450609 1.2563893e-17)
(9.3108747 0.12937784 3.7780513e-17)
(7.8902174 0.10326099 -2.2096746e-18)
(6.7528473 0.08352125 -1.7536758e-17)
(5.8306648 0.06837366 -1.2254459e-17)
(5.0743137 0.056588224 1.2924404e-17)
(4.4474572 0.047301427 1.0034753e-17)
(3.9229548 0.039898051 -1.4183931e-17)
(3.4802613 0.033932445 3.0805202e-18)
(3.1036321 0.029077747 -9.5641757e-18)
(2.7808626 0.025090692 -6.0000344e-18)
(2.5023923 0.021788363 2.8620018e-18)
(2.2606577 0.019031424 1.2742803e-18)
(2.0496207 0.016712827 -2.603283e-18)
(1.8644194 0.014749368 4.732094e-18)
(1.7011078 0.013075904 1.4867777e-18)
(1.5564595 0.011640897 1.9144204e-19)
(1.4278179 0.01040331 -4.0130006e-19)
(1.3129817 0.0093301745 2.3747223e-18)
(1.2101153 0.0083948359 2.491354e-18)
(1.1176797 0.0075755983 -2.3258266e-18)
(1.0343774 0.0068546774 -3.6366971e-18)
(0.959109 0.0062174313 -2.4070085e-18)
(0.89093855 0.0056517146 2.2054848e-19)
(0.82906563 0.0051474186 1.6882202e-18)
(0.7728028 0.004696074 1.5625519e-18)
(0.72155727 0.004290559 -6.7821362e-19)
(0.67481593 0.0039248508 1.866545e-18)
(0.63213309 0.0035938378 -8.7093642e-20)
(0.59312029 0.0032931587 -9.2876983e-19)
(0.55743795 0.0030190765 1.0016491e-20)
(0.52478837 0.0027683769 -1.175516e-18)
(0.49490993 0.0025382766 -3.7256123e-19)
(0.46757223 0.0023263641 8.208836e-19)
(0.44257197 0.002130532 -2.042749e-19)
(0.41972956 0.0019489428 1.7085248e-20)
(0.39888616 0.0017799598 -7.6238046e-20)
(0.37990122 0.001622144 7.6584244e-19)
(0.36265038 0.001474213 1.290927e-20)
(0.34702364 0.0013350279 -1.6425978e-18)
(0.33292382 0.0012035661 -8.1507585e-19)
(0.32026522 0.0010789111 6.4370971e-19)
(0.30897253 0.00096023171 6.9666877e-19)
(0.29897977 0.00084677444 -8.647805e-20)
(0.29022958 0.00073785131 -2.1358722e-20)
(0.28267246 0.00063280832 -5.7715043e-19)
(0.27626624 0.00053101765 -5.7544702e-19)
(0.27097557 0.00043185171 4.8679388e-19)
(0.26677149 0.00033464716 1.1347581e-18)
(0.26363094 0.0002388609 -5.6954439e-20)
(0.26154005 0.0001444968 1.3852072e-20)
(0.26028012 7.0222671e-05 5.586056e-19)
(459.60612 0.15932073 -6.1342061e-16)
(457.90578 -0.19610036 1.0898523e-15)
(462.61251 -0.5094501 -3.5724662e-16)
(463.76004 0.58119908 -4.8911863e-16)
(456.43902 0.91487819 8.3508885e-17)
(455.10447 -0.22024805 1.0778701e-15)
(462.27293 -1.5993299 -2.7416845e-15)
(467.86168 -0.66795751 2.6180098e-15)
(462.89024 0.94914215 -1.3771176e-15)
(449.42007 3.0215402 6.5454716e-16)
(429.80723 8.3360624 -1.0606333e-15)
(325.67001 15.263147 -2.0931077e-15)
(238.71856 13.181919 -1.2865593e-15)
(168.79899 9.5874217 7.0114477e-17)
(118.04199 6.677074 -3.3361097e-16)
(83.371982 4.496842 1.9005766e-16)
(60.128559 3.0269987 -3.18283e-16)
(44.402746 2.0697358 -2.0085112e-17)
(33.571332 1.445733 -2.294855e-16)
(25.950175 1.033292 2.2936696e-16)
(20.467263 0.75540869 -2.3392222e-17)
(16.436473 0.56417649 -5.5270103e-18)
(13.412477 0.42973707 5.8569662e-18)
(11.101024 0.33325471 -8.0680208e-19)
(9.3038936 0.26266243 -2.9759928e-17)
(7.884915 0.21007806 -5.3507504e-17)
(6.7487568 0.17025931 -2.5167135e-17)
(5.8274637 0.13964874 8.8953193e-18)
(5.0717759 0.11579113 5.2280276e-18)
(4.4454212 0.096960147 -1.2757649e-17)
(3.9213033 0.081923994 3.407842e-18)
(3.4789082 0.069789064 -7.9656131e-18)
(3.1025133 0.059899009 -6.9851791e-19)
(2.7799295 0.051764677 5.7484308e-18)
(2.501608 0.045017763 -5.2929987e-19)
(2.2599936 0.039377358 1.1503906e-18)
(2.0490546 0.034627383 -1.7153845e-18)
(1.8639338 0.030599684 -3.417383e-18)
(1.7006887 0.027162457 1.1505849e-17)
(1.5560958 0.024211308 4.1698775e-18)
(1.4275007 0.021663025 -5.2166936e-18)
(1.3127036 0.019450683 -2.2976127e-18)
(1.2098704 0.017520124 -6.7505734e-18)
(1.1174631 0.015827218 3.2957727e-18)
(1.034185 0.014335758 1.4165687e-18)
(0.95893751 0.013015905 1.0907042e-19)
(0.8907851 0.011842886 4.3451288e-19)
(0.82892785 0.010796063 1.8018417e-18)
(0.77267867 0.0098581306 -2.1741094e-19)
(0.72144508 0.0090145219 3.3053107e-19)
(0.67471423 0.0082529088 -5.4165434e-19)
(0.63204063 0.0075628177 7.0997871e-19)
(0.59303599 0.0069353052 -6.5169376e-19)
(0.55736088 0.0063627008 -1.7455564e-19)
(0.52471773 0.0058384007 1.4616797e-18)
(0.49484503 0.0053566816 2.0780148e-19)
(0.46751244 0.0049125783 -5.7002485e-20)
(0.44251677 0.004501742 1.5056631e-19)
(0.41967846 0.0041203722 -1.4433787e-18)
(0.39883875 0.0037650976 -1.9469578e-19)
(0.37985713 0.0034329458 2.298803e-20)
(0.36260927 0.0031212638 3.7264341e-19)
(0.34698521 0.0028276892 -1.0814979e-20)
(0.3328878 0.0025500968 -4.7199772e-19)
(0.32023138 0.0022865736 6.9771774e-20)
(0.30894064 0.0020353776 3.2196728e-19)
(0.29894964 0.0017949144 2.5074085e-19)
(0.29020102 0.0015637116 3.7224206e-19)
(0.28264531 0.0013404198 2.5320571e-19)
(0.27624033 0.0011238156 2.7116593e-19)
(0.27095073 0.00091280302 3.7892248e-20)
(0.26674756 0.00070647494 -9.539794e-21)
(0.26360784 0.00050387768 7.3256494e-20)
(0.26151995 0.00030407558 3.4055253e-20)
(0.26025531 0.00012111775 -1.314955e-19)
(459.52313 0.29289415 -3.8822107e-16)
(457.95405 -0.19836648 9.1012086e-17)
(462.84463 -1.0341672 -7.2331414e-16)
(463.66114 1.0275106 4.0353845e-16)
(456.09934 1.3455319 1.9272167e-18)
(455.22854 -0.13922446 4.2182509e-16)
(462.53559 -2.9232292 -3.7219677e-16)
(467.50018 -1.0493966 3.1881794e-16)
(463.73874 2.0186624 5.3224997e-16)
(452.0745 5.064534 -1.0417909e-15)
(431.26036 13.561477 -2.0179922e-15)
(342.36989 27.978136 -1.1687355e-15)
(239.69137 21.883604 1.1214142e-15)
(168.22967 15.381453 -8.0719978e-16)
(117.4422 10.714248 -2.5420541e-16)
(82.931448 7.2093059 -1.232378e-16)
(59.832678 4.8501927 5.1056575e-16)
(44.207741 3.3169511 2.8735607e-17)
(33.441999 2.3182159 -1.6260292e-16)
(25.863023 1.6580841 -1.4360008e-16)
(20.407355 1.2131469 8.5993394e-17)
(16.394413 0.90677637 1.3006369e-17)
(13.382322 0.69125036 -9.1505778e-18)
(11.078969 0.53646843 -1.7391102e-18)
(9.2874596 0.42314304 2.5607527e-17)
(7.8724575 0.33867044 -2.9472463e-17)
(6.739164 0.27466391 3.4296157e-18)
(5.8199701 0.225429 -1.6718327e-17)
(5.0658448 0.18703342 -9.007513e-18)
(4.4406701 0.15671069 1.111319e-18)
(3.9174554 0.13248576 -3.163116e-18)
(3.4757601 0.11292509 -8.8729282e-19)
(3.0999135 0.096975217 1.0797871e-19)
(2.7777641 0.083850652 -3.2555699e-18)
(2.4997899 0.072959701 1.912906e-18)
(2.2584558 0.063850871 -3.5885507e-18)
(2.0477448 0.056176722 4.8421778e-18)
(1.8628109 0.049666769 2.5947507e-19)
(1.6997204 0.044108916 2.192554e-18)
(1.5552559 0.039335109 -4.8262754e-19)
(1.4267683 0.035211351 -2.7461027e-18)
(1.3120617 0.03162983 -4.5434318e-18)
(1.2093052 0.028503275 1.2525234e-18)
(1.1169631 0.025760548 3.5711665e-19)
(1.0337408 0.023343269 -7.2755033e-19)
(0.95854123 0.021203307 3.2843721e-19)
(0.89043021 0.019300695 1.6442932e-18)
(0.82860882 0.017602123 -1.4383567e-18)
(0.77239085 0.016079655 -1.3501498e-18)
(0.72118451 0.014709767 -1.688649e-18)
(0.67447755 0.013472547 2.1163104e-18)
(0.63182494 0.012351073 -3.2215617e-19)
(0.59283882 0.011330889 -6.8185792e-19)
(0.55718009 0.010399596 -1.4981148e-18)
(0.52455145 0.0095465138 -1.3168978e-19)
(0.49469163 0.0087623848 -3.1036042e-19)
(0.46737051 0.0080391739 -1.3148981e-18)
(0.44238507 0.0073698391 5.3385525e-19)
(0.41955589 0.0067482217 -2.0324567e-19)
(0.39872433 0.006168864 -7.7740266e-19)
(0.37974999 0.0056269508 -2.4526212e-20)
(0.36250862 0.0051181822 -2.3086467e-20)
(0.34689037 0.004638727 1.8488615e-19)
(0.33279813 0.0041851378 5.5320744e-20)
(0.3201463 0.0037543104 -3.4048823e-19)
(0.30885963 0.0033434184 4.9333833e-20)
(0.29887221 0.0029498768 4.4166834e-19)
(0.29012672 0.002571301 -8.4438345e-20)
(0.28257373 0.0022054737 5.8638968e-20)
(0.27617112 0.0018503343 1.7464604e-20)
(0.27088359 0.0015039132 -1.3645839e-20)
(0.26668222 0.0011643158 -3.9897297e-21)
(0.26354399 0.00083029573 9.2819444e-20)
(0.26145885 0.00050040929 7.2186029e-20)
(0.26019015 0.00018359988 5.4567895e-20)
(459.26551 0.32993159 2.2178458e-16)
(458.04701 -0.34245129 -1.2413108e-16)
(463.58552 -1.2973758 -1.0107196e-15)
(462.92105 1.669654 -2.5777128e-16)
(455.64008 1.6232122 -1.8789219e-16)
(456.02287 -2.1547615 2.6005978e-16)
(462.56632 -2.4025166 -3.9566488e-16)
(467.32799 -1.3614918 2.6995915e-16)
(464.72859 2.0880684 -3.7664312e-16)
(453.23008 5.1588418 -5.0579211e-16)
(430.66893 14.628235 -4.1373353e-16)
(390.92289 27.313998 1.5104334e-15)
(248.56604 31.621792 2.2430562e-16)
(168.04007 21.288328 -1.0051829e-16)
(116.64053 14.478236 4.0741187e-17)
(82.313371 9.6993592 -2.0307463e-16)
(59.416537 6.5220205 -2.9860704e-17)
(43.933536 4.4622651 -7.4376692e-17)
(33.260061 3.1208961 -1.1876871e-16)
(25.74033 2.233959 -6.341794e-18)
(20.322943 1.6357904 1.0587653e-17)
(16.335095 1.2236246 -8.1228541e-18)
(13.339757 0.93346862 -9.1059886e-18)
(11.04781 0.7249473 2.603579e-18)
(9.2642225 0.57217655 1.052412e-18)
(7.8548292 0.45823182 -1.4763347e-17)
(6.7255794 0.37184443 -1.4469134e-18)
(5.8093506 0.30535829 3.33025e-18)
(5.0574339 0.25348348 -7.313316e-18)
(4.4339281 0.21249626 -2.4503542e-18)
(3.9119916 0.17973684 -1.5399925e-18)
(3.4712873 0.15327366 -4.0936195e-18)
(3.0962177 0.13168669 4.4218067e-18)
(2.774684 0.11391663 -3.7465076e-19)
(2.4972023 0.099165245 9.0333289e-19)
(2.2562658 0.086823178 -6.3532514e-19)
(2.0458786 0.076421359 -2.8288041e-18)
(1.8612102 0.067594481 -8.1813184e-19)
(1.6983391 0.060056008 2.7490489e-18)
(1.5540572 0.053578831 1.5964386e-18)
(1.4257224 0.047981813 -4.5713078e-19)
(1.3111446 0.043119174 -2.2425176e-19)
(1.2084971 0.038872871 -6.8293494e-20)
(1.1162479 0.035146664 2.6434383e-19)
(1.033105 0.031861546 3.8084645e-19)
(0.95797368 0.028952368 -2.2589731e-19)
(0.88992159 0.026365015 -2.9504438e-19)
(0.82815129 0.024054379 -9.0527019e-19)
(0.77197777 0.021982613 -2.3851875e-19)
(0.72081027 0.020117849 4.7459423e-20)
(0.67413733 0.018433098 -4.9004603e-19)
(0.63151464 0.016905421 -8.657029e-20)
(0.5925549 0.01551522 -5.3221125e-19)
(0.55691948 0.014245677 -2.0119123e-19)
(0.52431151 0.013082305 -4.2238427e-20)
(0.49447004 0.012012541 1.1748982e-19)
(0.46716525 0.011025478 -4.7444164e-21)
(0.44219434 0.010111554 4.9713048e-19)
(0.41937813 0.0092624038 2.5991321e-19)
(0.39855813 0.008470611 -3.0237136e-19)
(0.3795941 0.0077296307 -6.9780465e-20)
(0.36236194 0.0070336154 -1.1916813e-19)
(0.34675187 0.0063773527 -1.784987e-19)
(0.33266691 0.0057561496 2.0398392e-19)
(0.32002153 0.0051657789 1.3945447e-19)
(0.30874054 0.0046023904 -9.3617268e-20)
(0.2987581 0.0040624622 8.4490409e-20)
(0.29001694 0.003542747 -1.7728108e-19)
(0.28246767 0.003040197 -8.508641e-20)
(0.27606817 0.0025519409 1.2556277e-19)
(0.27078314 0.0020752344 6.3756119e-20)
(0.2665838 0.0016076036 8.5260835e-21)
(0.26344725 0.0011471027 -6.5571656e-21)
(0.26136457 0.00069188084 -6.8581301e-21)
(0.26009256 0.00024667769 -1.5531592e-19)
(459.12722 0.48245006 -8.6484373e-17)
(458.24297 -0.58019055 -7.2325498e-17)
(463.7413 -1.2354707 3.6950967e-16)
(462.9129 1.4776161 2.6510721e-16)
(455.21479 2.6732614 -3.6242228e-16)
(455.10576 -1.7554405 9.3893466e-17)
(463.57101 -5.9482693 5.4704972e-16)
(470.78139 0.15077383 -6.9686022e-16)
(464.5212 2.3636174 -9.0811941e-17)
(447.73977 5.7783169 -2.5793607e-17)
(424.98793 17.154864 -7.0993916e-17)
(387.20154 31.579217 1.2825631e-15)
(245.2867 42.018151 5.8088376e-16)
(166.06954 27.278875 -1.2542054e-16)
(115.48183 18.100154 -1.7269089e-16)
(81.533725 12.070591 2.2075976e-19)
(58.898981 8.1132147 8.903094e-17)
(43.593002 5.5541649 -2.563179e-17)
(33.033965 3.8878989 2.6269217e-18)
(25.587678 2.7855879 1.1918575e-18)
(20.217776 2.0416156 -1.9974142e-17)
(16.261087 1.528558 -6.2225975e-18)
(13.286575 1.1670724 -1.5596221e-17)
(11.008826 0.90707882 -3.2392086e-18)
(9.2351113 0.71645181 -2.7474057e-20)
(7.8327166 0.57417039 -7.3708136e-19)
(6.7085184 0.46622807 -1.7412555e-18)
(5.7959978 0.38310147 3.2617818e-18)
(5.0468461 0.31820592 -2.4678385e-18)
(4.4254319 0.26690315 2.292196e-18)
(3.9050988 0.22587812 1.1971628e-19)
(3.4656387 0.19272203 -8.5110308e-19)
(3.0915457 0.16566305 -1.7754875e-18)
(2.7707863 0.14337878 -2.1240386e-18)
(2.4939247 0.12487225 -4.5604645e-19)
(2.2534892 0.10938209 1.3275618e-18)
(2.0435101 0.096321964 4.34268e-19)
(1.8591768 0.085235038 9.8587977e-19)
(1.6965828 0.075762882 5.058017e-19)
(1.5525316 0.067621289 -2.0926872e-19)
(1.4243901 0.060583508 3.9636419e-19)
(1.3099752 0.05446699 1.8829279e-19)
(1.2074657 0.049123874 -2.2699008e-19)
(1.1153341 0.04443357 1.6615716e-19)
(1.0322919 0.040297054 -6.6098509e-19)
(0.95724721 0.036632647 3.3958423e-19)
(0.88926992 0.033372488 5.6360432e-20)
(0.82756449 0.030459988 -2.6831633e-19)
(0.77144746 0.027847663 -9.7407761e-19)
(0.7203293 0.025495514 -1.3505203e-19)
(0.67369963 0.023369661 4.1187517e-19)
(0.631115 0.021441298 -5.8531759e-19)
(0.59218881 0.019685808 1.7741878e-19)
(0.55658307 0.018082062 2.4821547e-19)
(0.5240014 0.016611852 -3.3018314e-19)
(0.49418329 0.015259385 -2.8160905e-19)
(0.46689928 0.014010945 1.7112262e-19)
(0.44194688 0.012854503 1.9890135e-19)
(0.41914716 0.01177953 -1.0425669e-19)
(0.39834187 0.010776689 -1.6035121e-19)
(0.37939095 0.0098377358 -1.3190823e-19)
(0.36217045 0.0089553009 1.5567767e-20)
(0.34657076 0.0081228111 2.5801972e-20)
(0.33249501 0.0073343437 1.3647513e-20)
(0.31985776 0.0065845604 -1.8332005e-19)
(0.30858392 0.0058685939 -1.7803583e-19)
(0.29860772 0.0051819865 2.487162e-19)
(0.28987194 0.0045206235 -7.0691549e-20)
(0.28232724 0.0038806648 1.0765536e-21)
(0.27593155 0.0032585436 8.7377163e-20)
(0.27064967 0.0026508977 -2.1910319e-20)
(0.26645286 0.002054719 -5.7866784e-20)
(0.26331828 0.0014670829 -8.924655e-20)
(0.26123773 0.00088468789 8.7502217e-22)
(0.25996214 0.00031111012 -6.7053934e-20)
(459.00369 0.64565176 -2.7572416e-16)
(458.46135 -1.0530798 6.2442299e-17)
(464.60148 -1.4249053 -1.3630632e-16)
(461.41045 3.0099744 2.2340505e-16)
(454.33779 1.2063192 -3.0738837e-16)
(458.74913 -1.208496 8.3094175e-17)
(460.56378 -3.9266161 6.014919e-16)
(470.7078 -4.3477899 -4.0582258e-16)
(465.59423 5.6182355 6.8761014e-17)
(446.63411 8.370063 -1.1162589e-16)
(418.01569 13.349893 -5.2605839e-16)
(334.5222 44.606455 2.570063e-16)
(230.32172 51.23627 -3.8119745e-17)
(162.32588 32.499288 -5.9366868e-17)
(114.01605 21.458916 -1.1615437e-16)
(80.620987 14.295272 2.9932661e-17)
(58.297687 9.6090531 4.6768158e-17)
(43.197586 6.5824956 -1.9796977e-17)
(32.771196 4.611898 -4.0314065e-18)
(25.410021 3.3075685 -2.5761047e-17)
(20.095191 2.4265556 -5.4242532e-18)
(16.174681 1.8184533 5.8629285e-18)
(13.224384 1.389618 -1.1841884e-17)
(10.963167 1.080918 -1.173984e-17)
(9.200965 0.85439675 -3.4968925e-18)
(7.8067422 0.6851977 3.8636701e-18)
(6.6884502 0.55674559 2.7738066e-19)
(5.7802708 0.4577612 -3.6528693e-18)
(5.0343598 0.38044011 -3.1401009e-18)
(4.4154001 0.31928076 1.0302601e-18)
(3.8969504 0.27034863 1.3958882e-18)
(3.4589535 0.23078292 -2.8363289e-18)
(3.0860099 0.19847823 1.2427564e-19)
(2.7661629 0.17186231 -7.330399e-20)
(2.4900326 0.14974929 5.2602471e-19)
(2.2501885 0.13123306 -9.7774523e-19)
(2.0406916 0.11561558 4.5373409e-19)
(1.8567546 0.10235274 -1.1050483e-19)
(1.6944884 0.0910175 -2.5158835e-19)
(1.5507105 0.081271089 -1.2967702e-18)
(1.4227981 0.072843159 3.6999223e-19)
(1.3085764 0.065515976 2.2335615e-19)
(1.2062309 0.05911313 4.0416438e-19)
(1.1142389 0.053490705 -3.0310799e-19)
(1.0313165 0.048530486 2.4339788e-20)
(0.95637473 0.044134937 2.5243583e-19)
(0.88848647 0.040222998 -1.0260413e-18)
(0.82685831 0.036727061 -1.7930487e-19)
(0.77080858 0.033590377 -3.5369333e-21)
(0.71974928 0.030765131 2.4252572e-19)
(0.67317123 0.028210811 6.3752541e-20)
(0.63063201 0.025892967 -3.6681046e-19)
(0.5917459 0.023782149 1.3823801e-19)
(0.55617561 0.021853072 1.9791316e-19)
(0.52362537 0.020083944 -1.4979738e-19)
(0.49383518 0.018455854 -1.2258122e-19)
(0.46657601 0.016952377 5.0098797e-20)
(0.44164572 0.015559098 -8.1635486e-20)
(0.41886572 0.014263399 -2.6511178e-19)
(0.398078 0.013054084 -1.2504703e-19)
(0.37914273 0.011921265 -4.8583075e-21)
(0.36193618 0.010856095 3.9844477e-20)
(0.34634886 0.0098506842 -7.7873815e-20)
(0.33228407 0.008897918 -1.676065e-19)
(0.31965649 0.0079913819 1.5640831e-19)
(0.30839112 0.0071252241 7.9230101e-20)
(0.29842228 0.0062940831 -1.0620685e-19)
(0.28969284 0.0054930124 -1.5807239e-20)
(0.28215351 0.0047173947 -1.7317826e-20)
(0.27576228 0.0039629465 -4.1818522e-20)
(0.27048399 0.003225598 -4.5014235e-21)
(0.26628995 0.0025015076 7.2190597e-20)
(0.2631572 0.0017870062 -5.5910697e-20)
(0.26107858 0.0010793862 8.7701332e-21)
(0.25979977 0.00037582076 5.4199253e-20)
(458.79664 0.6627202 -2.2079688e-16)
(459.1086 -0.74942655 -9.4143685e-17)
(462.60721 -1.7882789 9.4919724e-17)
(465.0109 2.7219017 2.597033e-16)
(452.00933 3.3818537 8.5479193e-17)
(452.31388 -3.1176683 -1.5364789e-17)
(477.80643 -4.9782903 -8.6043178e-17)
(453.38123 -0.44332059 2.0592635e-16)
(465.2681 1.6592312 -4.0158069e-16)
(462.11157 14.676692 -6.1391584e-17)
(285.27009 50.631042 9.3040195e-16)
(232.81953 47.638233 1.1584566e-15)
(205.86507 52.005169 3.7930432e-16)
(157.26959 35.526864 -2.5536989e-17)
(112.34539 24.414734 -8.2547309e-17)
(79.603999 16.365287 4.6438134e-17)
(57.628072 11.009938 3.1775603e-18)
(42.757067 7.5479874 1.3327953e-17)
(32.478127 5.2935462 -4.7371232e-17)
(25.211574 3.8004523 -1.2329848e-17)
(19.958022 2.7910687 -9.5715945e-18)
(16.077824 2.0936904 -5.0276387e-18)
(13.154548 1.601421 -1.2556464e-17)
(10.911807 1.2467287 1.511786e-19)
(9.1624926 0.98623346 1.0887642e-18)
(7.7774314 0.79150209 6.5123119e-18)
(6.6657705 0.64355786 -4.1895391e-18)
(5.7624717 0.52947583 -3.0716297e-18)
(5.0202091 0.44030575 6.3063929e-19)
(4.4040157 0.36973324 1.1731958e-18)
(3.8876916 0.31323944 3.1880172e-19)
(3.4513477 0.26753639 -2.6630709e-18)
(3.0797041 0.23020291 1.0447991e-18)
(2.7608903 0.19942986 -6.6180831e-19)
(2.4855888 0.17385203 -1.7054779e-18)
(2.2464156 0.15242575 -4.0620759e-20)
(2.0374662 0.13434666 1.6765177e-18)
(1.8539796 0.1189875 -4.7667364e-19)
(1.6920865 0.10585575 3.7773076e-19)
(1.5486196 0.094560583 -3.3559842e-20)
(1.4209684 0.084789978 -6.4109588e-19)
(1.306967 0.076292555 1.6116415e-19)
(1.2048085 0.068864576 4.0028445e-19)
(1.1129762 0.062339777 -6.2546051e-19)
(1.0301905 0.056581547 -4.7756422e-19)
(0.95536662 0.051477136 -4.0561976e-19)
(0.88758027 0.046932817 -3.9078556e-19)
(0.82604062 0.042870392 3.7442388e-19)
(0.77006805 0.039224207 -3.2900534e-19)
(0.71907624 0.035938928 -1.1120678e-19)
(0.67255743 0.032967663 -7.0377648e-20)
(0.63007036 0.030270524 2.4576149e-20)
(0.5912303 0.027813404 3.3999738e-19)
(0.55570075 0.025567013 7.837204e-20)
(0.52318665 0.023506099 -3.855061e-19)
(0.49342857 0.021608742 1.6469515e-19)
(0.46619797 0.0198559 1.2398646e-19)
(0.44129314 0.018230851 -7.1814862e-20)
(0.41853582 0.016718954 3.0854259e-20)
(0.39776832 0.015307216 -3.6286494e-20)
(0.37885107 0.013984153 1.4275928e-19)
(0.36166053 0.012739487 -4.0581067e-21)
(0.34608744 0.011564046 2.3222614e-21)
(0.33203523 0.010449557 6.1349666e-20)
(0.31941873 0.0093885535 -2.4346831e-20)
(0.30816306 0.0083742239 -8.2822864e-20)
(0.29820263 0.0074003212 -5.3149781e-20)
(0.28948039 0.006461081 1.3247711e-20)
(0.28194712 0.0055511024 -2.0491041e-19)
(0.27556087 0.0046653455 2.8767905e-20)
(0.27028652 0.0037990005 1.1628278e-19)
(0.26609544 0.002947514 -1.3097871e-19)
(0.26296497 0.0021064846 -1.0739098e-20)
(0.26088752 0.0012714145 1.5505657e-19)
(0.25960483 0.00044106386 1.7277943e-19)
(459.00981 0.52292317 -2.5469378e-16)
(458.52962 -1.2108387 2.689184e-16)
(464.49998 -1.2016394 2.9476162e-16)
(461.88565 3.1602377 -2.4756655e-16)
(453.37606 2.3269545 -2.2233105e-16)
(456.1539 -3.4867402 2.1667756e-16)
(463.56353 -3.9564646 -1.9451813e-17)
(475.09569 -1.345448 -1.0902326e-16)
(462.77152 3.396052 2.2263625e-16)
(438.20109 17.518632 2.7737404e-16)
(478.68892 29.692251 -3.6347604e-16)
(345.00424 56.580385 -1.4019276e-15)
(221.49479 56.435706 -8.9623919e-17)
(156.96363 38.470108 8.422722e-18)
(111.00091 27.179998 6.4516205e-18)
(78.530957 18.299336 5.4378291e-17)
(56.904365 12.318744 5.1574506e-19)
(42.27993 8.4519755 -1.7743602e-17)
(32.16028 5.9337332 -2.318309e-17)
(24.995989 4.2648619 6.3349279e-18)
(19.808731 3.1356013 -1.1268428e-17)
(15.972206 2.3545967 1.2364096e-17)
(13.078252 1.8027272 -1.8243206e-17)
(10.855595 1.4046992 -6.6081869e-19)
(9.1203121 1.1121086 3.5558338e-18)
(7.7452423 0.89319958 -2.823194e-18)
(6.6408244 0.72675787 -2.1702673e-18)
(5.7428644 0.59832075 9.4604251e-19)
(5.0045982 0.49786455 -2.5145376e-18)
(4.3914392 0.41831158 2.5298385e-20)
(3.8774494 0.35459302 4.4361736e-19)
(3.4429231 0.30301802 8.4089719e-19)
(3.0727107 0.26086709 3.386134e-19)
(2.7550354 0.22610687 2.1803304e-19)
(2.4806483 0.19720218 7.4182748e-20)
(2.242216 0.17297874 -2.0563924e-19)
(2.0338719 0.15253117 -5.3126039e-20)
(1.8508836 0.13515304 -5.0694161e-19)
(1.6894037 0.1202895 5.7000393e-19)
(1.5462817 0.10750004 -1.8915648e-19)
(1.4189201 0.09643288 -1.1327872e-18)
(1.3051635 0.086804472 -5.500756e-20)
(1.2032129 0.078384945 -1.8390731e-19)
(1.111558 0.070986644 -2.9823789e-19)
(1.0289246 0.064455333 -7.3543524e-19)
(0.95423201 0.058663678 9.7899205e-20)
(0.88655928 0.053505795 -2.7279206e-19)
(0.82511837 0.048893319 4.2389213e-20)
(0.76923193 0.044752042 -2.917442e-19)
(0.71831552 0.041019399 1.0564952e-19)
(0.67186293 0.037642361 -8.4259459e-20)
(0.62943419 0.034575803 1.4660482e-19)
(0.59064565 0.031781135 1.4145976e-19)
(0.55516172 0.029225202 -2.1622026e-19)
(0.5226881 0.026879418 -2.0777977e-19)
(0.492966 0.024718957 -1.693358e-19)
(0.46576742 0.022722247 -8.8939229e-20)
(0.44089113 0.020870339 1.4415518e-19)
(0.41815925 0.019146636 2.3199775e-20)
(0.39741441 0.0175364 -1.3831042e-19)
(0.37851735 0.0160266 -2.280998e-19)
(0.36134477 0.014605571 -2.4006595e-19)
(0.34578761 0.013262893 2.0201534e-19)
(0.33174948 0.01198916 3.0255538e-20)
(0.31914536 0.010775883 -1.947704e-20)
(0.3079005 0.0096153067 8.3756326e-20)
(0.29794942 0.0085003117 2.9297425e-21)
(0.28923515 0.0074243235 -3.0587377e-20)
(0.28170855 0.0063811697 7.5012913e-20)
(0.27532772 0.0053650837 3.2975228e-20)
(0.2700576 0.0043705459 2.4083646e-20)
(0.26586956 0.0033923222 -7.6100618e-20)
(0.26274069 0.00242532 9.3291775e-20)
(0.26066472 0.0014644129 1.1654062e-19)
(0.25937864 0.00050641771 -2.3241657e-20)
(461.1046 1.339365 4.9204071e-17)
(455.93365 -1.8628026 -1.3303131e-16)
(465.31287 -1.5788638 3.9207238e-18)
(465.19437 3.8208057 2.9891824e-16)
(446.97866 2.6462066 1.1931986e-16)
(454.74001 -5.5265704 -1.0146549e-17)
(472.49301 -6.2238121 4.0842714e-16)
(475.67492 0.71523706 -1.866424e-16)
(459.92358 4.2924037 1.1132821e-17)
(445.44385 15.825609 1.0923378e-15)
(454.24522 36.783745 -2.008267e-16)
(462.61548 53.896791 -3.4472345e-17)
(259.9442 69.271787 -2.3849652e-16)
(160.18953 43.591626 -1.4781841e-16)
(109.83297 30.110339 -5.7719314e-17)
(77.399843 20.127913 -3.995132e-18)
(56.136333 13.539456 -6.6772429e-17)
(41.773429 9.2963311 5.0905717e-17)
(31.822463 6.5336931 8.1701827e-18)
(24.766458 4.7016387 -8.4837422e-19)
(19.64947 3.46074 6.6738644e-18)
(15.859307 2.601592 3.2689986e-18)
(12.996535 1.9938446 -2.5781832e-18)
(10.795274 1.5550606 1.6194491e-18)
(9.0749667 1.2321994 -1.3019443e-18)
(7.7105783 0.99042839 -3.5039305e-19)
(6.6139162 0.80645511 1.8113013e-18)
(5.7216817 0.66438385 1.7517161e-18)
(4.9877076 0.55318795 -4.5913835e-19)
(4.3778121 0.46507441 -5.582451e-19)
(3.8663362 0.39445793 1.2253402e-18)
(3.4337698 0.33726838 7.206557e-19)
(3.0651023 0.29050489 -1.4063038e-19)
(2.7486575 0.25192221 1.138719e-20)
(2.4752598 0.21982429 -4.4667988e-19)
(2.23763 0.19291304 1.345394e-18)
(2.0299422 0.17018713 6.8471735e-19)
(1.8474947 0.15086491 4.1916732e-22)
(1.6864637 0.13433219 -4.9879978e-19)
(1.5437168 0.12010112 3.6448351e-19)
(1.4166704 0.10778198 2.7675929e-20)
(1.3031804 0.097060522 -1.1388462e-21)
(1.2014564 0.087681892 -1.6433411e-19)
(1.1099953 0.07943797 6.2377583e-21)
(1.0275282 0.072157645 -2.2864566e-19)
(0.95297902 0.065699605 2.6848664e-19)
(0.88543056 0.059946309 -8.4736748e-20)
(0.82409772 0.054799634 1.2161751e-19)
(0.76830562 0.050177153 -1.9150523e-20)
(0.71747185 0.046009355 2.1619751e-19)
(0.67109188 0.042237305 -1.0876991e-20)
(0.62872716 0.038810837 2.0089868e-19)
(0.58999518 0.035687045 -3.9667833e-19)
(0.55456137 0.032829049 -1.6214854e-19)
(0.52213224 0.030205046 4.2695478e-20)
(0.4924497 0.027787405 -2.4797747e-20)
(0.46528635 0.025552113 -1.6289652e-19)
(0.44044145 0.023478063 7.4672871e-20)
(0.41773755 0.021546768 1.3710466e-20)
(0.39701767 0.019741797 -2.8091512e-20)
(0.37814282 0.018048622 1.2999551e-20)
(0.36098999 0.016454228 6.8811761e-20)
(0.34545033 0.014946982 4.0947966e-20)
(0.33142766 0.013516381 9.6383274e-20)
(0.31883713 0.012152934 1.6340788e-19)
(0.30760411 0.010847967 1.4499402e-20)
(0.29766323 0.0095935107 -4.429165e-20)
(0.28895763 0.008382197 6.0489455e-20)
(0.28143823 0.0072070989 9.8987044e-20)
(0.27506321 0.0060617385 3.8115231e-20)
(0.26979754 0.0049399 -3.7124749e-20)
(0.26561265 0.0038356877 -3.3845232e-21)
(0.26248586 0.0027435356 3.6448782e-20)
(0.26041041 0.0016584424 -1.3025218e-19)
(0.25912 0.00057192676 6.0780185e-20)
(456.92749 0.13171516 1.007174e-16)
(465.18517 -0.29761985 -1.4426827e-16)
(459.03992 -2.3674441 -1.4901821e-16)
(465.89943 4.6812601 -5.8311931e-16)
(450.82474 3.6605932 3.3344152e-18)
(451.98059 -5.9179617 2.8012779e-16)
(474.793 -7.4987006 4.8456991e-16)
(473.0141 0.75635113 -3.0897776e-16)
(461.8026 6.8010145 6.2106993e-16)
(447.43682 15.456822 -1.5590928e-16)
(430.53512 34.440025 6.0085073e-17)
(399.86528 60.134103 -1.4339687e-16)
(300.72482 74.84466 8.2978295e-18)
(158.32362 51.149166 2.2996683e-16)
(108.05648 33.140775 -4.1614625e-17)
(76.174159 21.841852 -1.6425606e-17)
(55.331085 14.674545 -1.3934847e-17)
(41.243814 10.083418 -5.0387741e-18)
(31.468845 7.0950451 2.1385176e-17)
(24.525751 5.1118734 1.9378589e-17)
(19.482111 3.7672313 6.4225569e-18)
(15.74042 2.8351979 -1.7524904e-19)
(12.910307 2.1751459 -1.1698209e-17)
(10.731499 1.6980852 1.1409156e-18)
(9.026934 1.3467087 -1.4502918e-17)
(7.6737945 1.0833425 -1.0427632e-18)
(6.5853141 0.88276842 2.7285461e-18)
(5.6991292 0.7277582 -1.4807151e-18)
(4.9696971 0.60634973 9.4897681e-19)
(4.3632599 0.51008093 2.769367e-19)
(3.8544516 0.43288213 -2.1635623e-18)
(3.4239675 0.37032665 -2.1636828e-20)
(3.0569437 0.31914859 -3.0550393e-19)
(2.7418095 0.27690266 -1.051514e-18)
(2.4694668 0.24174071 1.0870532e-19)
(2.2326937 0.21224736 4.2739426e-19)
(2.0257072 0.18733031 -2.1744282e-19)
(1.8438383 0.16613643 6.6997566e-20)
(1.6832879 0.1479951 3.7781734e-21)
(1.5409429 0.1323734 -5.3581514e-20)
(1.4142347 0.11884542 5.4555462e-20)
(1.3010309 0.10706763 -8.5950232e-20)
(1.1995505 0.09676131 5.1867599e-20)
(1.1082977 0.087698763 2.1799477e-20)
(1.0260096 0.07969273 4.4980997e-19)
(0.95161498 0.072588508 3.2008464e-19)
(0.88420049 0.066257384 1.1844477e-19)
(0.82298425 0.060591868 -3.2737162e-19)
(0.76729401 0.055501645 -3.5536092e-19)
(0.71654953 0.050910526 -7.437343e-20)
(0.67024808 0.046753899 1.5211333e-19)
(0.6279526 0.042976748 2.9002311e-19)
(0.58928185 0.039532007 -2.9179483e-20)
(0.55390231 0.036379209 7.7449161e-20)
(0.52152138 0.033483449 -3.8932741e-20)
(0.49188172 0.030814389 -5.6965641e-20)
(0.46475656 0.028345656 -1.5516286e-19)
(0.43994571 0.026054062 5.2649086e-20)
(0.41727217 0.023919284 1.2334029e-19)
(0.39657935 0.021923259 -9.7406912e-20)
(0.37772859 0.020050003 -8.6152876e-20)
(0.36059718 0.01828519 -2.4550974e-21)
(0.3450765 0.016616012 3.6343313e-20)
(0.33107059 0.015030893 -2.8897727e-20)
(0.31849474 0.013519371 -1.4095649e-19)
(0.3072745 0.012071875 -1.7535611e-21)
(0.29734461 0.010679601 -9.2292492e-20)
(0.28864831 0.0093344073 -6.8115601e-21)
(0.28113659 0.0080286257 5.2345312e-20)
(0.2747677 0.00675508 -1.0425172e-19)
(0.26950666 0.005506869 -8.1576533e-20)
(0.26532496 0.0042774312 2.3588152e-20)
(0.2621999 0.0030601567 -9.6945149e-20)
(0.26012472 0.0018498963 -5.5384765e-20)
(0.25882982 0.00063743445 5.2386032e-20)
(448.40959 1.2785915 -9.4625758e-17)
(470.55344 -2.7065981 3.9622573e-16)
(462.81151 -0.4346736 8.1996274e-16)
(460.04414 3.8993519 -2.3474429e-16)
(457.7834 3.9630962 -3.0165567e-16)
(445.78051 -6.3604026 7.161252e-16)
(479.53228 -7.8495643 3.2606413e-16)
(480.30501 -0.018367798 -1.0512558e-17)
(454.03486 7.6019515 -5.3888009e-17)
(439.09809 16.685781 1.6720087e-16)
(421.24501 35.054489 5.8249814e-16)
(377.1875 65.574484 -3.6826131e-17)
(247.54815 86.989454 2.2120833e-16)