/*--------------------------------*- C++ -*----------------------------------*\
| =========                 |                                                 |
| \\      /  F ield         | OpenFOAM: The Open Source CFD Toolbox           |
|  \\    /   O peration     | Version:  2.3.0                                 |
|   \\  /    A nd           | Web:      www.OpenFOAM.org                      |
|    \\/     M anipulation  |                                                 |
\*---------------------------------------------------------------------------*/
FoamFile
{
    version     2.0;
    format      ascii;
    class       volScalarField;
    location    "2.7e-05";
    object      alpha.fuel;
}
// * * * * * * * * * * * * * * * * * * * * * * * * * * * * * * * * * * * * * //

dimensions      [0 0 0 0 0 0 0];

internalField   nonuniform List<scalar> 
7500
(
1
1
1
1
1
1
1
1
1
1
1
1
1
1
1
1
1
1
1
1
1
1
1
1
1
1
1
1
1
1
1
1
1
1
1
1
1
1
1
1
1
1
1
1
1
1
1
1
1
1
1
1
1
1
1
1
1
1
1
1
1
1
1
1
1
1
1
1
1
1
1
1
1
1
1
1
1
1
1
1
1
1
1
1
1
1
1
1
1
1
1
1
1
1
1
1
1
1
1
1
1
1
1
1
1
1
1
1
1
1
1
1
1
1
1
1
1
1
1
1
1
1
1
1
1
1
1
1
1
1
1
1
1
1
1
1
1
1
1
1
1
1
1
1
1
1
1
1
1
1
1
1
1
1
1
1
1
1
1
1
1
1
1
1
1
1
1
1
1
1
1
1
1
1
1
1
1
1
1
1
1
1
1
1
1
1
1
1
1
1
1
1
1
1
1
1
1
1
1
1
1
1
1
1
1
1
1
1
1
1
1
1
1
1
1
1
1
1
1
1
1
1
1
1
1
1
1
1
1
1
1
1
1
1
1
1
1
1
1
1
1
1
1
1
1
1
1
1
1
1
1
1
1
1
1
1
1
1
1
1
1
1
1
1
1
1
1
1
1
1
1
1
1
1
1
1
1
1
1
1
1
1
1
1
1
1
1
1
1
1
1
1
1
1
1
1
1
1
1
1
1
1
1
1
1
1
1
1
1
1
1
1
1
1
1
1
1
1
1
1
1
1
1
1
1
1
1
1
1
1
1
1
1
1
1
1
1
1
1
1
1
1
1
1
1
1
1
1
1
1
1
1
1
1
1
1
1
1
1
1
1
1
1
1
1
1
1
1
1
1
1
1
1
1
1
1
1
1
1
1
1
1
1
1
1
1
1
1
1
1
1
1
1
1
1
1
1
1
1
1
1
1
1
1
1
1
1
1
1
1
1
1
1
1
1
1
1
1
1
1
1
1
1
1
1
1
1
1
1
1
1
1
1
1
1
1
1
1
1
1
1
1
1
1
1
1
1
1
1
1
1
1
1
1
1
1
1
1
1
1
1
1
1
1
1
1
1
1
1
1
1
1
1
1
1
1
1
1
1
1
1
1
1
1
1
1
1
1
1
1
1
1
1
1
1
1
1
1
1
1
1
1
1
1
1
1
1
1
1
1
1
1
1
1
1
1
1
1
1
1
1
1
1
1
1
1
1
1
1
1
1
1
1
1
1
1
1
1
1
1
1
1
1
1
1
1
1
1
1
1
1
1
1
1
1
1
1
1
1
1
1
1
1
1
1
1
1
1
1
1
1
1
1
1
1
1
1
1
1
1
1
1
1
1
1
1
1
1
1
1
1
1
1
1
1
1
1
1
1
1
1
1
1
1
1
1
1
1
1
1
1
1
1
1
1
1
1
1
1
1
1
1
1
1
1
1
1
1
1
1
1
1
1
1
1
1
1
1
1
1
1
1
1
1
1
1
1
1
1
1
1
1
1
1
1
1
1
1
1
1
1
1
1
1
1
1
1
1
1
1
1
1
1
1
1
1
1
1
1
1
1
1
1
1
1
1
1
1
1
1
1
1
1
1
1
1
1
1
1
1
1
1
1
1
1
1
1
1
1
1
1
1
1
1
1
1
1
1
1
1
1
1
1
1
1
1
1
1
1
1
1
1
1
1
1
1
1
1
1
1
1
1
1
0.99961064
0.9966621
0.99196783
0.98507657
0.97620518
0.96644637
0.9480786
1
1
1
1
1
1
1
1
1
1
1
1
1
1
1
1
1
1
1
1
1
1
1
1
1
1
1
1
1
1
1
1
1
1
1
1
1
1
1
1
1
1
1
1
1
1
1
1
1
1
1
1
0.9995313
0.99385975
0.98408832
0.96882806
0.94758483
0.92182979
0.88934027
0.83284763
0.76912669
0.70945533
0.64799524
0.58919366
0.53722239
0.48372262
0.4355208
0.38541829
0.33324726
0.28517357
0.2368928
0.19468881
0.15831149
0.13157642
0.088755149
1
1
1
1
1
1
1
1
1
1
1
1
1
1
1
1
1
1
1
1
1
1
1
1
1
1
1
1
1
1
1
1
1
1
1
1
1
1
1
1
1
1
0.99230187
0.9752668
0.94792123
0.91088264
0.837929
0.75028162
0.66300392
0.57440817
0.491027
0.40620201
0.32957515
0.25347167
0.19176951
0.13661501
0.087974158
0.042507971
9.6544212e-10
3.640496e-10
3.6404959e-10
3.6404996e-10
3.6405251e-10
3.6404883e-10
3.6404883e-10
3.6404883e-10
3.6404895e-10
3.6404892e-10
3.6404888e-10
3.6404887e-10
3.6404887e-10
3.6404887e-10
3.6404887e-10
3.6405001e-10
3.6405035e-10
1
1
1
1
1
1
1
1
1
1
1
1
1
1
1
1
1
1
1
1
1
1
1
1
1
1
1
1
1
1
1
1
1
1
0.98867501
0.96150574
0.91435013
0.81501723
0.69969627
0.58381726
0.46811419
0.35546289
0.25050204
0.15976494
0.092850209
0.0042470119
7.7025676e-10
6.9839297e-10
6.9839276e-10
6.9839255e-10
6.9839226e-10
6.9839089e-10
6.9839026e-10
6.983877e-10
6.9831357e-10
6.9831357e-10
6.9831357e-10
6.9831371e-10
8.2290451e-10
6.8662129e-10
1.2500558e-09
2.269455e-07
1.8997637e-06
7.6061446e-10
7.5230931e-10
7.1698726e-10
6.8611085e-08
1.7755593e-08
4.629062e-09
2.413652e-09
7.0405569e-10
6.9073313e-10
6.8322873e-10
2.5582854e-07
5.6779306e-08
1
1
1
1
1
1
1
1
1
1
1
1
1
1
1
1
1
1
1
1
1
1
1
1
1
1
1
1
0.98174392
0.92781233
0.81562109
0.67195856
0.52313214
0.37238317
0.2338156
0.12790218
0.0025429132
2.6809112e-09
2.6427166e-09
2.6427166e-09
2.6427166e-09
2.6427166e-09
2.6427166e-09
2.6427167e-09
2.6427167e-09
2.6427178e-09
4.3259133e-09
6.6750326e-09
7.8468759e-09
7.5937437e-09
5.3694444e-07
1.7476852e-07
4.8493592e-07
2.1538225e-05
1.3185262e-09
9.9980732e-10
1.0636111e-09
1.3261923e-08
2.5016435e-08
3.6615699e-10
3.6548812e-10
3.6486283e-06
0.00010045132
0.00046024274
0.00087695695
0.00032473505
8.4439612e-06
3.4848631e-09
3.1574896e-09
2.8139455e-09
0.00059437725
0.00052341879
0.00016190409
2.2327328e-06
1.396333e-08
1
1
1
1
1
1
1
1
1
1
1
1
1
1
1
1
1
1
1
1
1
1
1
0.97688314
0.90087371
0.7403105
0.55434865
0.36253956
0.20185423
0.025531774
3.4824801e-09
3.2014228e-09
3.2012668e-09
3.2008164e-09
3.2002042e-09
3.2001157e-09
3.2884817e-09
3.2198231e-09
3.2899841e-09
3.3942213e-09
3.5490827e-09
3.6017279e-09
6.0084508e-09
7.9779755e-09
9.3218328e-09
1.1017283e-08
2.463835e-08
2.481425e-08
2.3105126e-08
7.6058202e-09
1.7759865e-05
5.1229981e-06
3.8923008e-09
0.0032628133
0.0075800769
1.1302006e-09
0.0041854228
1.3850188e-08
0.0007519232
9.7330624e-05
8.1028906e-10
1.1740932e-09
1.1805376e-09
0.0026348634
0.0029583903
0.0021582934
2.3647485e-08
0.0011458734
0.0016302234
0.0027259435
0.0029809235
0.0029809236
0.0010530978
2.5136178e-09
1.3627009e-08
1
1
1
1
1
1
1
1
1
1
1
1
1
1
1
1
1
1
1
0.96461203
0.84839741
0.64207835
0.40935512
0.19534126
4.9800096e-09
3.7415769e-09
3.7415761e-09
3.7415533e-09
3.7414181e-09
3.7414109e-09
4.1955426e-09
5.7758269e-05
0.00014110418
0.00012158651
1.9620289e-05
3.888689e-09
0.00045890012
0.00019882301
3.9659959e-09
3.9937951e-09
4.0913102e-09
4.1132665e-09
2.046689e-06
8.6928886e-09
2.3404839e-08
1.500049e-08
1.5408791e-08
1.6103384e-08
1.6556478e-08
1.9658863e-06
1.3069357e-06
4.2068605e-09
3.8917507e-09
3.7605048e-09
0.0095060581
0.069583644
0.069630729
0.03515242
0.00014326592
1.0677156e-07
0.0027219933
0.0013515239
0.00039008734
0.00034249108
0.0015555377
0.00018502561
2.3093129e-08
0.0041096734
0.0042025907
0.0042133571
0.0027727258
0.00016921823
1.9177104e-09
2.2056422e-09
2.4940169e-09
1
1
1
1
1
1
1
1
1
1
1
1
1
1
1
1
0.9220057
0.72172836
0.45738918
0.16051105
5.3281151e-09
4.308165e-09
4.3082128e-09
4.3107085e-09
5.1739868e-09
4.8743987e-09
7.1796421e-06
1.8542249e-05
6.7415266e-07
4.8378077e-09
0.00088276172
0.0012827755
0.0012821859
0.00019700763
0.00059934374
0.0037353356
0.0051710718
0.0015275482
0.0042423742
0.003480107
0.0026022865
0.0004241239
2.6860223e-07
2.620988e-05
3.4321866e-07
1.4753585e-08
0.00057613992
0.0031727728
0.0014201585
3.8866397e-05
4.6164121e-09
4.2276895e-09
3.7606399e-09
4.1452001e-09
3.8399461e-09
0.030389764
0.069630729
0.069630729
0.0016142736
1.0640718e-07
0.0046567153
0.0042494188
6.0595009e-06
1.4115487e-09
1.542397e-09
0.0010127738
0.0032299896
2.0073844e-09
1.7996503e-09
1.7996502e-09
1.79965e-09
1.7996484e-09
1.7996394e-09
3.3767051e-05
8.4412296e-05
1
1
1
1
1
1
1
1
1
1
1
1
1
0.93079398
0.71746224
0.40768615
0.048780159
5.681306e-09
5.268368e-09
5.2685453e-09
6.0989702e-09
2.0084209e-07
1.2304429e-05
0.00037819523
0.0023366822
0.0023509133
0.00079760859
4.7126932e-09
3.9877586e-09
0.0012598647
0.0025368158
4.1214159e-09
3.9358705e-09
3.9358689e-09
0.0079826517
0.0079937552
0.00096033223
0.00082954383
0.0071936793
0.0071839753
0.0071825988
0.0014839828
2.6759805e-07
3.4492839e-05
2.733302e-05
1.4755144e-08
0.0034688337
0.0034696623
0.0034696623
0.00019413178
4.6410061e-09
0.011962759
0.0093882069
0.0035584098
2.4070092e-05
3.5110351e-09
0.015881568
0.04399655
0.05328308
0.0065083292
2.3389181e-09
2.1450726e-09
7.1763164e-08
1.7670505e-09
1.5113089e-09
0.010011595
0.010011641
0.00041999123
2.122547e-09
2.2382632e-09
8.3887622e-09
4.2552792e-09
1.7996507e-09
9.4526889e-05
0.00021328213
1
1
1
1
1
1
1
1
1
1
1
0.86933904
0.54746774
0.10440677
5.2864294e-09
4.5627712e-09
4.5630337e-09
5.6531358e-09
6.3970358e-09
2.1450447e-05
0.00090960228
2.0547686e-07
0.0034228728
0.0057361309
0.0057420165
0.0028924293
5.2505941e-09
5.9823568e-09
5.8939659e-09
5.6807982e-09
6.7153233e-05
4.1215221e-09
5.5353132e-09
4.1106756e-09
3.8973929e-09
0.0079937543
0.00017530515
0.0023461046
0.00174337
1.8883852e-08
1.9056524e-08
1.9484491e-08
2.6683584e-07
1.1171374e-08
1.1146507e-08
0.00037631905
0.0017878413
0.00023571049
0.00049481145
7.4619641e-09
0.0058059238
0.021375231
0.021375231
0.010761131
3.5026275e-09
3.1371001e-09
3.1497348e-09
2.9462069e-09
2.9014367e-09
0.00019797656
2.7646376e-09
2.4361462e-09
2.1521916e-09
0.0056152171
0.003365029
0.0076737599
0.0023626675
4.9846308e-05
0.00018573854
7.2101144e-05
2.6759643e-09
2.35856e-09
2.0107318e-09
1.7971952e-09
1.7971912e-09
1
1
1
1
1
1
1
1
1
0.84734257
0.4566282
0.0049468702
4.8098736e-09
4.7585973e-09
5.9119602e-09
7.2199305e-06
1.356339e-05
0.002218951
0.0028628124
0.0025122355
0.0074574339
0.00033505535
6.3678145e-09
6.2521087e-09
0.00070009278
0.0015522404
4.5519792e-09
6.3826284e-09
5.5493219e-09
5.6649514e-09
4.9118299e-09
4.8634525e-09
4.993232e-09
4.3244443e-09
3.8938951e-09
0.0064112268
0.0043335114
5.017716e-09
4.7305646e-09
0.00014852554
0.0042776374
0.00099929045
2.1445473e-07
1.9189317e-06
1.1322589e-08
0.0026319676
1.4931659e-09
1.0738513e-09
1.6961692e-09
0.00012446775
0.0010057343
8.2925691e-06
0.0038546378
1.9364078e-09
0.0026085074
2.7440227e-05
0.010100375
0.0021901951
3.195855e-09
3.2450633e-09
0.0089569821
1.1609261e-05
0.00031536118
0.0096045713
0.00028705657
4.9714764e-05
4.9714812e-05
0.00020135075
0.00023288469
7.9343042e-05
1.217137e-05
0.0021349679
0.00015089004
2.034414e-09
2.077833e-09
1
1
1
1
1
1
1
0.89281694
0.50970112
0.0079466316
4.9141458e-09
4.8266286e-09
4.8111051e-09
7.4125045e-06
0.00041118597
7.4260299e-06
0.0042347241
0.0053966612
0.0053986007
1.1668581e-08
1.1697057e-08
1.2881814e-08
0.00018720168
3.3957342e-05
0.0049798137
0.0045279116
4.5519594e-09
6.285472e-09
5.0508498e-09
4.9079716e-09
4.3850514e-09
4.9053726e-09
5.254883e-09
4.4166814e-09
3.8939847e-09
4.6223402e-09
0.0017435458
0.00044961242
4.7989275e-09
0.0057628124
0.01030396
0.001197371
2.1417608e-07
0.00043866121
0.00071697275
1.6937261e-09
1.3958026e-09
1.1839734e-09
1.1642182e-09
5.8861937e-06
1.43611e-09
1.4369777e-09
1.7488793e-09
1.8276337e-09
0.024246915
0.00092946345
0.011405316
3.74371e-08
4.7953498e-05
0.0004834694
0.01141779
0.0019136015
3.0291186e-08
3.0710862e-08
0.0089260947
0.011364865
0.0029830872
8.3156057e-10
6.0547559e-10
6.0364451e-10
0.0016892215
0.0026348476
0.001736482
0.00068277714
0.0013743561
1
1
1
1
1
1
0.73668516
0.10584217
1.3792125e-08
1.3820201e-08
4.5563322e-05
4.8944667e-05
5.88917e-09
0.00021641661
0.0013273692
6.5264269e-05
1.0613824e-08
1.0603932e-08
1.0591577e-08
1.170563e-08
3.7927111e-05
0.00055542473
0.00064810847
0.00029144766
0.0049798131
0.0049795173
4.5519575e-09
4.694471e-09
4.9975974e-09
4.3067726e-09
4.3359655e-09
0.00029950837
0.00014934942
3.1609895e-05
7.9192866e-06
5.8390634e-07
6.7832349e-09
0.00063285143
5.536982e-09
5.5500352e-09
5.5491472e-09
0.0057496009
0.0012657295
0.00017145477
0.00175434
0.0009321777
1.6897799e-09
1.2583899e-09
1.5198849e-09
1.3037627e-09
1.1151824e-09
0.0034861898
0.0021141191
0.0014366253
1.0197796e-08
1.0199068e-08
0.035508276
0.012682737
0.0063357522
2.1517536e-08
0.0030935639
0.0039419361
2.9638681e-08
0.0010808563
0.012805339
0.0084539964
0.0011251492
1.100296e-09
1.0218202e-09
6.0224706e-10
0.00048819978
0.00026664342
0.0020187399
0.0020211239
0.0020207069
1
1
1
1
0.96941838
0.47695017
1.2350657e-08
1.0092132e-08
1.3004235e-08
0.00012756354
0.00022898459
0.00022863378
4.1322507e-05
1.0800079e-08
1.0791972e-08
1.2140602e-08
1.1647115e-08
6.1352662e-05
1.1070634e-08
0.00016009817
0.00092783678
0.0008598453
8.4741269e-09
9.2360661e-09
0.00066544264
0.0043518286
0.0036112357
5.6890726e-09
0.0021249128
0.0016899428
0.0024268645
0.0028271756
0.00017558746
0.00014254473
0.00014847692
4.6776031e-06
6.7970656e-09
0.00078075267
0.0013856327
8.6384254e-05
5.6676358e-09
0.0054589617
0.0059143933
0.0034272194
0.00028638418
4.1552577e-08
6.1345571e-08
1.7578075e-09
0.00044361524
1.0466075e-05
1.1155786e-09
0.0071939847
0.0085723602
0.00066508559
1.0295642e-08
0.050530696
0.070867071
0.059814431
1.780455e-08
4.4898945e-08
2.1709207e-09
0.00052079051
8.7105575e-09
0.0043358315
0.012805339
0.00060855071
4.676188e-05
1.0147162e-09
7.8546016e-10
6.0125646e-10
3.7565771e-10
3.7488305e-10
3.7488281e-10
3.7488277e-10
4.0529672e-10
1
1
1
0.95681726
0.26654711
1.610775e-08
1.4494065e-08
3.2309947e-07
0.00064099946
0.00067774676
0.00018065785
8.3509115e-09
2.1397958e-05
9.2309771e-07
7.4443966e-06
0.0005359564
8.7637834e-05
0.0001536138
0.00081413389
0.00081560093
0.0011645464
5.2902277e-09
4.6410329e-08
1.0189006e-08
0.00032979571
0.0022799755
0.004159534
0.0016335623
0.0047022661
0.0047383193
0.0047383193
4.7265e-07
3.6828715e-09
3.6814138e-09
4.6692961e-06
9.5441984e-07
1.8433072e-08
1.9062434e-08
0.0018703868
0.00036359539
6.4953296e-09
0.00012076391
0.0022345282
0.0035133298
0.0010829234
4.0989458e-08
4.0514097e-08
0.015632341
0.0013589463
0.0039792917
0.00048972698
8.4979787e-09
8.3424942e-09
8.1814455e-09
0.0019278781
0.070867071
0.070867071
1.2742601e-05
1.7705614e-08
1.3868694e-05
1.9048306e-09
0.0089470603
8.4499584e-09
8.3641205e-09
0.006835807
5.4420742e-08
0.00019012193
0.00011535901
1.4376487e-05
2.4551516e-06
4.2601545e-07
5.5643434e-10
6.3966864e-10
3.7489059e-10
0.00014331737
1
1
0.98723349
0.24994176
2.0198606e-08
1.8189181e-08
7.0845975e-05
0.00030030084
9.1458417e-09
8.6799737e-09
8.6762403e-09
1.0024467e-08
1.0683402e-08
0.00016429256
0.00084829372
0.0009741034
0.00027104793
1.5531061e-05
0.00070642715
0.0011749967
0.00071989212
5.2903548e-09
5.291636e-09
1.2937706e-05
9.3458572e-06
9.6988113e-06
0.00047761923
0.0022562198
8.41923e-09
0.0022792905
0.0047383194
0.00023692444
4.3116258e-09
4.2207886e-09
5.279785e-07
6.9192697e-09
7.4644427e-09
0.0056203765
4.2966586e-07
5.548332e-09
3.4680803e-08
1.5683964e-09
1.5683595e-09
6.2859444e-05
6.1780891e-09
1.3777553e-05
6.830042e-06
0.019437097
0.0036953983
0.00014893362
0.00026630971
0.0019465844
0.0037679032
8.3405144e-09
0.019674933
0.062893727
0.020099798
2.4612773e-07
2.2238078e-05
1.9151565e-09
1.9002302e-09
0.0104735
0.0076630331
8.173512e-09
7.8564321e-09
5.4363141e-08
1.2021116e-07
0.00037248213
0.00037248215
6.5459378e-06
6.0451954e-10
1.1917695e-09
6.2438092e-10
4.5930711e-10
0.00052602219
1
1
0.31606251
2.2751852e-08
2.0215204e-08
2.825807e-05
0.00022149994
8.476414e-08
1.1066699e-07
1.6827508e-06
1.5424034e-07
1.027445e-08
7.7140798e-07
8.4658495e-05
1.8265183e-09
1.8315064e-09
0.0001014818
3.74423e-09
6.249212e-06
0.00038904752
5.5840189e-09
6.0689644e-09
6.0176769e-09
6.021868e-09
6.0256051e-09
5.385332e-05
8.9790697e-09
8.380125e-09
8.4183958e-09
9.0865449e-09
0.0015081412
0.0010828527
0.00069762272
0.00017803328
1.5733379e-08
0.0069933235
0.0072040343
0.012843829
0.0018491752
5.9874583e-09
3.2807473e-08
7.5097213e-09
2.2718095e-08
1.6480098e-09
6.1758987e-09
1.4818444e-09
0.0072031132
0.0081982607
0.0025268411
0.00037368591
0.0043584118
0.011877464
0.011877464
0.0023299913
5.0918325e-09
5.0256899e-09
5.1853924e-09
0.0049545269
0.00082316793
2.2213079e-09
2.0446326e-09
0.0064805141
0.00043286412
1.1651132e-06
7.6144668e-09
9.5500309e-08
3.1760592e-10
0.000187423
8.848555e-05
7.2030125e-10
4.4496817e-10
2.6786031e-10
1.2751036e-05
0.0001156423
8.688915e-10
1
0.64665088
0.024811504
0.00027579221
2.2106663e-08
0.00010816644
7.0522662e-08
8.4025384e-08
1.4924905e-07
3.8594081e-06
1.6597483e-07
4.4787738e-09
2.9734918e-09
1.8265959e-09
1.8265654e-09
2.7042231e-06
2.8830389e-09
2.7558969e-09
3.2125009e-09
3.4348957e-09
2.3063663e-07
5.7351194e-05
0.00035939433
0.003771176
0.0037713394
0.0037736258
2.9742985e-06
8.9230537e-09
8.9262943e-09
0.00011890942
1.6026113e-07
0.0012082075
0.0012057487
0.00044675492
1.6179413e-08
0.001951846
0.012620443
0.01242241
0.0026742601
6.5279211e-05
1.8170057e-09
5.1319094e-09
1.9235903e-08
1.6872082e-08
3.9850286e-08
1.4907731e-09
0.017662236
7.8527795e-06
0.0078063918
0.0075369935
0.010813135
0.0096918967
0.0031894416
0.010788162
0.0016311441
4.6304371e-09
0.014539399
0.019073153
0.00041092744
0.0023774872
0.00084394051
2.459993e-09
2.3016587e-09
4.4693165e-09
4.389196e-06
4.8272659e-08
4.8859201e-10
4.5728512e-10
6.8290925e-10
0.0046647298
0.0014544347
4.9637861e-10
0.00010676418
7.0467203e-10
8.4372034e-10
0.96969039
0.080747555
3.1470917e-08
2.8246731e-08
6.9027035e-08
2.8981684e-08
7.0127524e-08
2.3232344e-07
7.8399231e-09
5.2826829e-09
1.057983e-05
0.0010901251
2.0162968e-05
3.3213934e-09
1.8268029e-09
3.7828529e-05
0.0012507732
1.9181757e-09
2.4271404e-09
0.0035538407
5.5742869e-08
0.00021759019
0.0017328289
0.0017361176
0.0021961463
7.4643802e-09
6.1245707e-08
9.5451299e-09
5.8590353e-05
5.3695839e-08
5.3598904e-08
0.00064409158
3.8390593e-09
3.7276722e-09
2.6516322e-07
3.0217997e-09
2.5731927e-09
2.5871912e-09
0.0023448737
0.00065640476
2.0678768e-09
2.0284352e-09
2.4927088e-09
2.5423142e-07
3.5337287e-07
0.00029206523
0.0015744356
0.00013933313
0.0011895157
6.1012143e-08
6.0787055e-08
6.0677436e-08
0.010355451
0.010792814
0.0086878643
4.2312412e-09
0.04661674
0.023940937
0.0017991882
0.0034167285
0.0028729799
1.2723968e-06
2.2339421e-09
1.8022217e-09
1.5267305e-09
1.7382655e-09
8.3888596e-05
4.8837304e-10
0.003171371
0.005484073
0.0054840729
0.0003853976
7.3778053e-10
6.1788597e-10
2.2431623e-07
0.32134837
5.459227e-08
5.0463254e-08
3.2584419e-08
3.483063e-08
1.1795898e-07
1.8142209e-07
2.3593002e-07
6.362865e-07
5.2826829e-09
6.2021231e-05
0.0021839754
0.00019356123
3.6442378e-09
2.1041579e-09
1.6401145e-09
0.006356657
0.0055131365
0.0024256442
0.0015846456
7.2298111e-05
3.9456365e-08
0.0013201728
7.6628744e-09
6.8306238e-09
6.8487157e-09
6.8371199e-09
0.0005740999
0.0010526597
0.0034953993
0.0012856555
4.7435681e-09
3.9118495e-09
4.3511234e-09
7.3324486e-08
1.1008395e-08
2.573731e-09
3.7893248e-05
0.011092604
0.00060238482
5.0117616e-05
0.00014432407
6.9206826e-05
1.0187282e-06
4.1925313e-08
0.011176276
0.00018542054
1.6428162e-08
1.6408777e-08
0.0053986663
0.0017072143
0.001955472
0.014042984
0.0099616445
3.3804968e-07
0.04632709
0.046617215
0.018319837
0.00056763181
7.867027e-10
7.051612e-10
7.4091433e-08
1.7058398e-09
0.0035072311
0.00284173
0.0022382679
0.001715276
6.6419366e-07
0.0054840731
0.0054840733
0.0054840732
0.0024343594
7.9967257e-10
6.0295314e-10
1.8073686e-05
0.10236971
5.3361437e-08
4.5029927e-08
6.3238403e-07
3.537377e-08
1.1852104e-07
1.7725832e-07
1.1081483e-06
1.1072181e-06
5.282683e-09
9.4569028e-05
0.0021839755
0.00039411894
4.2119299e-09
2.5899148e-09
1.6401211e-09
0.0011950828
0.0075508691
0.0075508694
5.8620177e-07
1.2057436e-05
5.6772607e-07
5.7396433e-07
0.00011164251
7.51092e-09
7.3788981e-09
6.8335688e-09
0.0017262355
4.569626e-08
0.0014677003
0.0020398188
0.00043183231
4.3714934e-09
5.0677247e-09
1.8684336e-08
8.2357318e-09
2.9374675e-09
0.00015168951
0.0086178614
0.00052238456
0.00030826305
0.00044590421
9.9066176e-05
8.3390906e-08
0.0054131122
1.9403553e-08
0.00015017546
1.680448e-08
0.014965067
0.018077024
0.0060319103
0.013518796
0.0090648077
0.0057960348
1.1662834e-06
0.024095778
0.011709151
0.013774715
0.0074232208
0.001082504
1.0081316e-09
1.0087199e-09
0.0045159873
0.004528681
0.0045382239
0.0045334861
5.769722e-09
0.0021809468
0.00097044108
5.1352362e-05
0.00029959443
0.0014802801
4.7536673e-05
7.384355e-10
1.8079745e-05
2.4943551e-08
5.2810308e-05
4.4902349e-08
4.1745328e-08
3.7715668e-08
2.2040712e-07
5.1415447e-08
4.6542506e-08
1.5040252e-07
5.2830489e-09
8.9191648e-05
0.0021839757
0.00054976651
3.974728e-09
2.5721854e-09
1.6402509e-09
0.00034289339
0.0075508689
0.0075308536
2.6083649e-09
2.6071184e-09
2.9990357e-09
1.9242804e-05
0.00085526497
0.00011119705
5.9000425e-07
0.0006954058
4.6442093e-08
4.6127958e-08
6.195811e-08
0.002039819
2.3175381e-05
8.6609149e-06
0.00025810657
0.00014475402
3.312749e-09
2.8246611e-09
2.3844151e-09
1.9872561e-09
1.982712e-09
1.6092731e-09
1.1704963e-09
1.0505412e-09
0.00037432649
0.00042179952
1.853085e-06
0.0064239584
0.0055856287
0.0099069921
0.011900736
0.0041522677
2.1357895e-09
1.8906586e-09
0.0014209888
4.6636201e-08
4.6452286e-08
4.6310699e-08
0.013106862
0.013334791
0.0066310271
1.2171155e-09
1.5973213e-06
0.00022177467
1.2495499e-09
1.2483418e-09
1.2643845e-09
1.3882256e-05
0.0037264683
1.1885855e-10
1.188585e-10
1.1885855e-10
1.1885851e-10
4.8637646e-05
8.4591631e-07
3.9363517e-06
3.6535958e-06
0.00019477198
0.00019681327
0.00038488884
0.00015021983
9.9282762e-06
8.0222079e-06
1.1378391e-08
9.4503225e-09
5.2822868e-09
8.6533887e-05
0.0021839758
0.00061281618
5.5983847e-09
6.2350821e-06
2.9447332e-09
9.7524164e-05
0.0027551621
4.8535375e-09
3.4659227e-09
2.6247782e-09
4.3153615e-09
4.6762876e-09
2.6166953e-05
0.00084016174
0.0026010416
0.0026010413
0.0019233984
0.0011003159
1.3159095e-05
0.00060814441
2.1459942e-07
0.0039691312
0.00029810207
3.2325197e-09
2.8585577e-09
0.0036998204
0.00088083886
9.4815538e-05
0.0046292611
0.013728185
0.00011660228
1.5681061e-09
0.00037524478
1.301496e-05
2.0338964e-08
0.0062133462
0.0062095948
3.0158051e-05
0.0015644455
0.012919321
0.0044022383
1.9292171e-09
0.0090589379
0.0016377065
4.6465886e-08
0.012435286
0.0044663198
0.0072650957
2.0591519e-08
0.0016792805
9.9485437e-06
1.9213301e-09
1.7997249e-05
1.325465e-09
0.00016872481
0.0006617019
0.0026443848
3.5913249e-10
1.1885962e-10
1.7260892e-10
1.1885878e-10
0.00016956673
3.5748639e-05
7.9201741e-10
4.2600545e-08
4.3004568e-08
0.00040777203
0.00041054245
0.00041054294
8.4094231e-07
1.4025333e-05
3.1100802e-06
2.0549519e-08
5.2824332e-09
0.00010219425
0.0018569151
0.0010439288
2.0842589e-05
0.00019439206
0.00064684812
5.9894547e-08
6.0614642e-08
7.8084357e-05
7.0425905e-05
2.6272978e-09
3.4226451e-09
3.3971214e-08
1.6162491e-09
1.6142591e-09
0.00082258377
0.0018008156
0.0024935126
0.0024914272
1.0791452e-07
1.0790651e-07
0.00090693288
0.0039618831
6.0413837e-08
3.2416197e-09
2.8584498e-09
0.0077758645
0.0034821871
0.0085330512
0.021880703
0.021880703
0.014532815
0.014303953
0.0018958948
9.5374679e-10
0.0036028787
8.6065265e-10
8.7071634e-10
8.5337354e-10
0.015594403
0.01247247
0.0017468445
1.7702072e-09
0.00043465027
0.0047353988
0.00065312982
0.01203773
2.584027e-09
2.6454628e-09
0.0011003471
0.0044650264
1.7492768e-09
1.7631874e-09
0.00041077878
0.00047191226
0.00091452156
0.0009144087
3.1923336e-07
8.6237618e-05
1.1885954e-10
2.4217924e-10
1.1885899e-10
0.00016956532
4.5069313e-05
8.2241002e-10
5.3731237e-08
5.3172304e-08
3.2072394e-08
0.00017209088
0.00041054264
3.0873026e-07
3.5035648e-06
4.1179827e-06
2.1135575e-06
5.4196896e-09
7.4354992e-05
1.1431938e-08
0.00099901144
0.00077037074
4.9788122e-07
0.00089524204
5.8443911e-08
1.0031105e-06
5.8313927e-05
0.00016105707
3.551785e-09
0.00158656
3.6590643e-09
1.5976845e-08
5.0022663e-09
2.0419227e-09
1.4955797e-09
8.2697319e-10
8.6409122e-10
0.00060532896
4.5319705e-07
0.0013484127
7.0855174e-10
0.0010310765
0.0018534534
0.00010313171
7.9504347e-10
7.8103768e-10
7.8103761e-10
0.0069763455
0.0099175528
0.015185199
0.014876715
0.001142379
8.0883594e-10
4.980556e-10
7.7523846e-10
0.00023883662
8.7602781e-10
0.001871681
1.4161843e-09
1.2956508e-09
1.4845542e-09
1.4891414e-09
0.006996061
0.00027798334
2.1818734e-09
2.3037729e-09
0.00039580885
0.0033746463
0.0033798067
0.002462999
0.000513541
1.2378605e-08
0.001162272
1.2700484e-10
1.2768206e-10
9.3355465e-06
0.00011328982
1.1890589e-10
3.3697803e-10
1.1886397e-10
9.6909175e-05
6.7988238e-05
3.1309923e-09
5.4596003e-08
2.7839298e-07
3.2040292e-08
3.2942378e-08
0.0001389006
5.7440518e-08
7.0826105e-09
5.6479443e-09
5.2768529e-09
5.241905e-09
2.2357617e-05
1.5380529e-08
1.1451874e-08
6.4810572e-05
4.9883537e-07
4.9895732e-07
0.00040741023
5.8101735e-09
5.9834943e-09
0.00053433976
0.0021123887
0.0029315887
3.9701417e-08
1.1230655e-06
2.8474031e-09
1.9939045e-09
2.2307179e-09
8.270911e-10
3.1657327e-05
0.0014247698
4.0459715e-05
9.5681657e-05
7.0057961e-10
0.0045951346
0.0077693853
0.00012528415
0.00012503797
1.0943676e-09
7.8300291e-10
5.0597825e-10
5.0041418e-10
4.996703e-10
4.996703e-10
5.2817374e-10
1.4152047e-07
4.9833749e-10
0.00092988245
0.0027998667
0.0089880478
0.012955585
0.0037618159
5.8984097e-06
1.761735e-05
1.5079408e-09
0.0035122593
3.1128577e-05
1.8682521e-09
0.00028178911
0.0012837112
5.1630016e-09
5.2178642e-09
0.00025310581
0.0016210447
1.240077e-08
0.00017271774
2.5960517e-07
1.3329401e-10
1.2709709e-10
1.2696302e-10
2.7494176e-10
4.2074903e-10
2.6795126e-10
2.6596862e-10
0.00011330101
6.4817386e-06
5.4639977e-08
3.4172035e-08
3.3880699e-08
2.2676454e-05
0.00033604555
7.1823659e-09
7.8264481e-09
6.0624405e-07
3.7348391e-08
5.2419214e-09
1.0041685e-05
4.4575951e-08
7.2869981e-07
3.1480823e-08
1.4847483e-06
8.4508242e-05
0.0021154531
5.1043212e-09
5.1738371e-09
0.00013925507
0.0029163211
0.0029315896
2.0728618e-06
1.3730535e-07
0.0029482393
4.0731493e-05
1.8736943e-09
1.2380328e-09
7.2199264e-10
2.0668109e-10
2.0525268e-10
2.0488085e-10
6.9220847e-10
7.0552266e-10
7.3817494e-10
7.5357431e-10
0.0014953218
9.7185325e-05
0.00016021759
0.00010313867
8.0918324e-06
7.4728109e-10
8.0815878e-10
4.9563639e-05
2.3007621e-06
4.9921765e-10
0.0023604385
3.5304087e-05
0.02293372
0.017831405
0.01781076
0.0094950768
0.00034839816
1.7005828e-09
1.9063901e-09
1.6884955e-09
1.6869742e-09
2.8548695e-05
1.2945861e-08
0.00015142788
0.0010102244
1.3076396e-06
0.00028476931
5.6708941e-06
4.8016062e-10
2.0653977e-09
1.8222237e-09
4.6754653e-09
1.761859e-08
7.9518462e-06
3.3838994e-05
3.3123967e-05
1.1850335e-07
0.00011333968
1.8562327e-05
5.6738074e-08
6.216495e-08
3.5323501e-08
6.5370536e-06
0.00033604693
7.182286e-09
1.3692322e-06
1.6751441e-06
1.6612943e-06
5.2429639e-09
7.2620967e-06
4.5134982e-08
9.4905581e-07
3.0754768e-08
1.9120366e-08
0.00039185567
0.00173659
0.0014627708
4.3279821e-09
5.066813e-09
5.1374983e-09
0.0001958934
0.0013144028
5.065406e-07
0.0032823598
0.0014325489
1.9518477e-09
0.0027980717
0.00011079983
3.5973975e-06
2.8644644e-09
2.0497158e-10
0.00035024654
8.5069275e-05
0.00025961685
0.0098370734
0.0095186084
0.0046688327
0.0038546879
0.0010765246
1.3500908e-09
1.0794746e-09
0.0074757756
0.00052224776
9.4255625e-10
7.2279869e-10
8.5008979e-10
0.0028205455
0.0078418226
3.7077836e-05
0.012490839
0.01669879
0.0016130762
1.8766605e-09
1.398952e-05
0.0036961894
0.0018521988
8.5348802e-09
4.3118355e-06
0.0026101612
0.0028886991
1.2677038e-06
1.2138742e-05
8.5759778e-09
3.4444249e-10
1.9974186e-09
4.3503317e-09
2.8289521e-09
6.498181e-10
1.6932735e-05
6.5309667e-05
6.5309663e-05
9.3872107e-06
0.00010456696
2.0868921e-05
2.3895633e-07
7.2232011e-08
1.2052733e-06
8.3531527e-07
0.00033604885
7.1496334e-09
7.1496299e-09
5.207167e-09
5.2055772e-09
5.2879153e-09
1.6744852e-06
2.0166442e-06
1.8548591e-08
1.7144385e-08
1.8219209e-08
1.8461636e-08
7.5280154e-08
0.0026513435
0.00022520855
0.0043623633
0.00016676085
3.2516497e-09
0.0013107696
0.0011914599
0.00041803741
0.0062771562
0.0030886415
0.0058700511
0.00051493979
9.128858e-05
6.4390005e-10
2.0502692e-10
0.00052785904
0.00052974032
0.00061915799
0.011889125
0.0034861787
1.558267e-09
1.5023857e-09
1.8150528e-09
0.0003029398
0.015524149
0.015518248
0.00037085698
1.1223453e-09
0.00018691928
0.0024142765
0.0041839117
0.00046840446
3.1963924e-05
9.7012217e-08
0.0085086453
0.0016270578
1.9011205e-09
0.00015256274
0.0083026555
0.0032754925
0.0014250613
0.00073472996
6.0214431e-10
0.0020220556
1.2285188e-06
1.189936e-06
4.7060692e-08
1.7966671e-06
1.1727506e-09
1.1245175e-08
9.1968238e-10
5.0991707e-10
2.1681984e-10
1.9144188e-05
2.0951489e-05
3.7229026e-05
2.0469186e-05
1.2216941e-05
2.3740314e-07
4.1328164e-08
3.3583948e-05
0.00020192414
0.00033604981
0.00033544369
6.0449548e-09
6.522804e-09
5.2160719e-09
6.4508167e-09
7.2984148e-09
3.5786709e-05
0.00013744544
7.1912981e-06
0.0010331692
0.00010536349
2.8572905e-05
0.0026513436
1.2566934e-05
0.0084424217
0.00067261534
2.9752034e-09
2.2694528e-09
2.2695083e-09
0.0041311171
0.0062772002
0.0062771999
8.093794e-05
0.00081887944
0.00010098223
1.0392268e-09
2.0543914e-09
7.6784675e-10
7.8884278e-10
1.2662128e-09
0.0049843779
3.5186949e-06
1.8308117e-09
1.7401344e-09
0.002221918
0.024508051
0.026802903
8.5547006e-07
1.1523767e-09
1.1521904e-09
0.0013289721
0.0041646586
0.0010152199
0.00042596082
1.1397295e-07
6.2381998e-06
0.00049123017
0.010962453
0.0060214904
4.839805e-05
0.0062034026
6.8200112e-05
0.00037778528
5.1687634e-05
5.4728565e-10
0.0011410453
0.0041538352
9.2722753e-05
8.5694477e-09
1.1278328e-05
1.17455e-09
2.8867068e-08
7.6269997e-10
3.9826982e-10
2.5312533e-10
9.4477675e-11
9.4478301e-11
9.4541313e-11
1.9851592e-10
9.8275246e-07
3.9780755e-08
3.9766122e-08
4.096032e-06
0.00025778487
0.00020506147
5.0081266e-05
6.5936064e-09
3.439723e-05
5.2746613e-09
1.1041426e-05
8.3980763e-09
8.8632967e-09
0.00014228852
5.9517069e-05
0.0013002484
0.00057609997
2.9040607e-05
0.0013418515
0.0013884058
7.0862898e-08
7.0822311e-08
0.00029555906
2.2708423e-09
6.8836028e-08
0.0043118556
0.00063738187
0.0057792693
0.00043143918
0.0019907549
0.001145609
0.00010014595
1.4539903e-09
4.1814655e-08
3.0263481e-05
1.0378219e-09
1.3482303e-09
1.3065092e-05
0.0023415892
0.0011330382
0.023917236
0.023450998
0.0065248979
9.3405536e-05
1.4790365e-09
4.2111351e-05
8.9773184e-10
8.7948922e-10
8.794892e-10
9.2030307e-10
4.7082801e-06
0.0013205155
0.014005844
3.6141578e-10
0.017083835
0.014826682
5.8561396e-10
3.7527653e-10
5.3119617e-10
1.863092e-06
3.5164637e-10
0.00042861836
0.0035771526
9.867191e-05
5.3093701e-05
5.8770177e-09
6.8239489e-09
8.641836e-08
8.7321902e-10
5.0698437e-05
6.4636585e-05
2.4025923e-10
3.4091203e-10
1.122601e-08
9.4497723e-11
9.447901e-11
4.2963729e-08
3.8165948e-08
3.7059086e-08
8.3207131e-08
0.00033624887
2.0261299e-07
5.5036603e-05
5.4931044e-05
5.8120315e-09
1.5651245e-05
1.0715983e-06
9.4513617e-09
9.6613916e-09
0.0001848236
0.0013002462
1.9387536e-09
1.0003431e-06
8.88687e-08
0.0085258163
0.00031919269
7.163384e-08
0.00038202885
2.8640176e-09
0.001283424
0.0011441136
4.1560759e-05
1.9902417e-09
1.4027034e-09
0.00028113394