/*--------------------------------*- C++ -*----------------------------------*\
| =========                 |                                                 |
| \\      /  F ield         | OpenFOAM: The Open Source CFD Toolbox           |
|  \\    /   O peration     | Version:  2.3.0                                 |
|   \\  /    A nd           | Web:      www.OpenFOAM.org                      |
|    \\/     M anipulation  |                                                 |
\*---------------------------------------------------------------------------*/
FoamFile
{
    version     2.0;
    format      ascii;
    class       volScalarField;
    location    "2.7e-05";
    object      k;
}
// * * * * * * * * * * * * * * * * * * * * * * * * * * * * * * * * * * * * * //

dimensions      [0 2 -2 0 0 0 0];

internalField   nonuniform List<scalar> 
7500
(
9.9981154e-06
1.0000491e-05
1.0005825e-05
1.0006193e-05
1.0007789e-05
1.0008997e-05
1.0008882e-05
1.0008926e-05
1.0009154e-05
1.0009978e-05
1.0011027e-05
1.0013485e-05
1.0016434e-05
1.0020587e-05
1.0024282e-05
1.0027897e-05
1.002964e-05
1.0031664e-05
1.0032725e-05
1.0034399e-05
1.0036288e-05
1.0040272e-05
1.004476e-05
1.0053779e-05
1.0060272e-05
1.0069594e-05
1.0073998e-05
1.0077415e-05
1.0079074e-05
1.0080945e-05
1.0081782e-05
1.0082858e-05
1.0084943e-05
1.008787e-05
1.0094484e-05
1.0100696e-05
1.0110371e-05
1.0117503e-05
1.0126675e-05
1.0130777e-05
1.0137425e-05
1.0141302e-05
1.0148924e-05
1.0154784e-05
1.0166635e-05
1.0177515e-05
1.020036e-05
1.0214687e-05
1.0243091e-05
1.0261775e-05
1.0285559e-05
1.0304121e-05
1.0326136e-05
1.0343268e-05
1.0370513e-05
1.0385595e-05
1.0411479e-05
1.0429121e-05
1.046023e-05
1.0482432e-05
1.0521118e-05
1.054783e-05
1.0594336e-05
1.0629862e-05
1.0693295e-05
1.073725e-05
1.0820141e-05
1.0876362e-05
1.0985606e-05
1.1056531e-05
1.1196564e-05
1.1284954e-05
1.1460297e-05
1.1569784e-05
1.1868392e-05
9.9983615e-06
9.9989561e-06
9.9991675e-06
9.9984409e-06
9.9984513e-06
9.9987563e-06
9.9996908e-06
1.0000331e-05
1.000188e-05
1.000304e-05
1.0004811e-05
1.000668e-05
1.0008413e-05
1.0010803e-05
1.0012575e-05
1.0015374e-05
1.0017502e-05
1.0020533e-05
1.0024052e-05
1.0027272e-05
1.0032817e-05
1.0036941e-05
1.0044009e-05
1.0047859e-05
1.0053186e-05
1.0056459e-05
1.005974e-05
1.0062006e-05
1.0064369e-05
1.0067818e-05
1.0071805e-05
1.0078359e-05
1.0084557e-05
1.009336e-05
1.0105718e-05
1.0116183e-05
1.0133903e-05
1.0152334e-05
1.0182757e-05
1.0206538e-05
1.0249266e-05
1.0284291e-05
1.0347615e-05
1.0396285e-05
1.0486323e-05
1.0558976e-05
1.0699859e-05
1.080223e-05
1.0988648e-05
1.111481e-05
1.1325473e-05
1.1477074e-05
1.1694436e-05
1.1866409e-05
1.2117762e-05
1.2307385e-05
1.2616839e-05
1.2844986e-05
1.3221725e-05
1.3514234e-05
1.3985006e-05
1.4327048e-05
1.4897427e-05
1.5318551e-05
1.6021764e-05
1.6516621e-05
1.7365592e-05
1.7985873e-05
1.9050621e-05
1.9784106e-05
2.1074956e-05
2.1920434e-05
2.340609e-05
2.4380998e-05
2.6771208e-05
1.0000569e-05
1.0002913e-05
1.0009824e-05
1.0012148e-05
1.0017838e-05
1.0022043e-05
1.0031225e-05
1.0036866e-05
1.0048329e-05
1.0055818e-05
1.0069137e-05
1.0077799e-05
1.0091035e-05
1.0102311e-05
1.0113367e-05
1.0126703e-05
1.0138782e-05
1.0151546e-05
1.0166591e-05
1.0177448e-05
1.0194621e-05
1.0204587e-05
1.0220664e-05
1.023019e-05
1.0245204e-05
1.0256578e-05
1.0268788e-05
1.0286915e-05
1.0305167e-05
1.0334684e-05
1.0363372e-05
1.0413389e-05
1.0460346e-05
1.0538288e-05
1.0632314e-05
1.0748274e-05
1.0877825e-05
1.1112322e-05
1.1377177e-05
1.1621801e-05
1.2058031e-05
1.2454167e-05
1.3135367e-05
1.3673956e-05
1.4620178e-05
1.5413776e-05
1.6866355e-05
1.798395e-05
1.9946739e-05
2.1403208e-05
2.3864317e-05
2.5679101e-05
2.8618364e-05
3.0879449e-05
3.4414975e-05
3.7136475e-05
4.158299e-05
4.4898203e-05
5.0413617e-05
5.4591423e-05
6.1248514e-05
6.6058679e-05
7.392838e-05
7.958409e-05
8.8752688e-05
9.5222227e-05
0.00010586065
0.0001136767
0.00012645598
0.00013540155
0.00015028945
0.0001601304
0.00017635512
0.00018728057
0.0002124493
1.0021755e-05
1.0039936e-05
1.0092112e-05
1.011301e-05
1.0165015e-05
1.019283e-05
1.0255202e-05
1.0288065e-05
1.0356927e-05
1.0392814e-05
1.045935e-05
1.0492666e-05
1.0548438e-05
1.0578045e-05
1.0625186e-05
1.0653577e-05
1.0698623e-05
1.072736e-05
1.0774878e-05
1.080592e-05
1.0859898e-05
1.089608e-05
1.0960469e-05
1.100861e-05
1.1094069e-05
1.1180819e-05
1.1283519e-05
1.1469439e-05
1.1658365e-05
1.1984462e-05
1.2306492e-05
1.2893956e-05
1.3464915e-05
1.4502014e-05
1.5454814e-05
1.7168035e-05
1.8729027e-05
2.1619826e-05
2.4485251e-05
2.764052e-05
3.3244587e-05
3.8133614e-05
4.6155798e-05
5.2697919e-05
6.4056966e-05
7.3625703e-05
9.0523444e-05
0.00010348183
0.0001259196
0.00014283576
0.00017157676
0.00019279909
0.00022773815
0.0002541276
0.00029643468
0.00032833745
0.00038057896
0.00041895782
0.0004834686
0.00053005675
0.00060478583
0.00065757723
0.00074392418
0.00080339056
0.00089946965
0.00096623936
0.0010747594
0.001152888
0.0012791406
0.0013665956
0.0015088879
0.0016014724
0.001750149
0.0018500185
0.0020738769
1.01151e-05
1.019808e-05
1.0431121e-05
1.052347e-05
1.0766984e-05
1.08785e-05
1.1147771e-05
1.1263273e-05
1.1522496e-05
1.162455e-05
1.1828605e-05
1.1901808e-05
1.2032838e-05
1.2084412e-05
1.2178784e-05
1.2230406e-05
1.2325258e-05
1.2388997e-05
1.2509264e-05
1.2607203e-05
1.2798901e-05
1.2979997e-05
1.3336809e-05
1.37039e-05
1.4420198e-05
1.5223684e-05
1.6400924e-05
1.854609e-05
2.0723706e-05
2.4607856e-05
2.869537e-05
3.6238972e-05
4.3482277e-05
5.6569243e-05
6.8560092e-05
9.0701393e-05
0.00010997234
0.00014539337
0.00017566512
0.00021836114
0.00028307091
0.0003358621
0.0004224951
0.00049489521
0.00062006578
0.00071988148
0.00089270153
0.0010214563
0.0012461359
0.0014101188
0.0016918412
0.0018901504
0.0022236118
0.0024626931
0.0028564604
0.0031405824
0.003608076
0.0039433663
0.0045114234
0.0048997528
0.0055324961
0.0059655487
0.0066791338
0.0071479582
0.0079120563
0.008426286
0.0092656447
0.0098508427
0.010802135
0.011451368
0.012490133
0.013142257
0.014179936
0.014863578
0.016383768
1.0232951e-05
1.0396662e-05
1.0845284e-05
1.1024257e-05
1.1506e-05
1.1745725e-05
1.2332524e-05
1.2603653e-05
1.3238972e-05
1.3500577e-05
1.4097322e-05
1.4279559e-05
1.4629786e-05
1.4751016e-05
1.502581e-05
1.5185021e-05
1.5506875e-05
1.5790315e-05
1.6352922e-05
1.7025135e-05
1.837247e-05
2.0063815e-05
2.3421781e-05
2.7461888e-05
3.547767e-05
4.4575509e-05
6.0156765e-05
8.3990031e-05
0.00010917259
0.00015656724
0.00020425752
0.00029170413
0.00037109818
0.0005161215
0.0006438428
0.00088050509
0.0010741335
0.0014332685
0.0017126411
0.0021897032
0.0027010218
0.0032114729
0.0039573747
0.0046464326
0.0056769195
0.0064954253
0.0078768018
0.0088847189
0.010663344
0.011884479
0.013989494
0.015399374
0.017826545
0.019464528
0.022232735
0.024121865
0.027238152
0.029425714
0.033145893
0.03556142
0.039562557
0.042204466
0.04657644
0.049327025
0.053853507
0.05677779
0.06158975
0.064851368
0.070180952
0.073930195
0.079395978
0.082784772
0.088141813
0.091598421
0.099272015
1.0230524e-05
1.040461e-05
1.0869752e-05
1.10811e-05
1.1631732e-05
1.1952583e-05
1.2721987e-05
1.3121615e-05
1.4062616e-05
1.4489327e-05
1.5477212e-05
1.5948443e-05
1.7002083e-05
1.7580755e-05
1.8665542e-05
1.9717551e-05
2.1588266e-05
2.4247208e-05
2.9281117e-05
3.6660329e-05
5.1456501e-05
7.0940149e-05
0.00010990486
0.00015564937
0.00024750866
0.00034565937
0.00053052164
0.0007474183
0.0010133446
0.0015072384
0.0019520209
0.002760393
0.0034552264
0.0047515335
0.0058165485
0.0077805676
0.0092857666
0.012091093
0.014148151
0.018004051
0.020728749
0.02565594
0.029228483
0.035490946
0.040117866
0.047019058
0.054330086
0.060818537
0.071401701
0.078165565
0.089910106
0.097567507
0.11093583
0.11948065
0.13383477
0.14381988
0.15872865
0.17006138
0.18824266
0.19970144
0.21845226
0.23109013
0.25104084
0.26330661
0.28342991
0.29604312
0.31688348
0.33098339
0.3537833
0.37004481
0.39198072
0.40563932
0.42671314
0.44038235
0.47039763
1.018192e-05
1.0348258e-05
1.0706214e-05
1.08779e-05
1.1236385e-05
1.1461075e-05
1.1906758e-05
1.2362137e-05
1.28884e-05
1.3793274e-05
1.4643974e-05
1.6324153e-05
1.8144592e-05
2.1706301e-05
2.6899502e-05
3.6723106e-05
5.2947041e-05
8.2219039e-05
0.00013649237
0.00021624942
0.00038110944
0.00058099339
0.00098825636
0.0014238716
0.0023104292
0.0031694751
0.0048729086
0.0064141284
0.0091523941
0.012447694
0.015885903
0.021690296
0.026497614
0.035505357
0.042243948
0.054613773
0.063624176
0.080420766
0.092052386
0.1137307
0.12825619
0.15541879
0.17298032
0.20569578
0.22645231
0.26487282
0.28930986
0.32966577
0.36998573
0.40094535
0.4533747
0.48605847
0.54094012
0.57955446
0.63021708
0.68103705
0.72932819
0.7842154
0.84689627
0.89592764
0.96254672
1.0148976
1.0868706
1.1337243
1.2068175
1.2529667
1.3289309
1.380059
1.4635704
1.5222426
1.5994844
1.6496218
1.7235546
1.7740628
1.8826779
1.0089432e-05
1.0457235e-05
1.060483e-05
1.0952647e-05
1.1130194e-05
1.1476537e-05
1.1871306e-05
1.2422684e-05
1.3436841e-05
1.506058e-05
1.8204052e-05
2.4568354e-05
3.7185712e-05
6.2739021e-05
0.00011086769
0.00020551348
0.0003665268
0.00067549998
0.0011836158
0.0019324177
0.0034742124
0.0051302368
0.0085587227
0.011859048
0.018602567
0.024503139
0.036320498
0.046059491
0.065259014
0.080083567
0.10809494
0.13206486
0.16212011
0.20812586
0.24083116
0.30140844
0.34363547
0.42111197
0.47207165
0.56625654
0.62746029
0.74168033
0.81240363
0.94412793
1.0243026
1.1729932
1.2643016
1.4289134
1.5485629
1.6940233
1.8642073
1.998522
2.1771165
2.3374363
2.4915559
2.6960393
2.84017
3.066571
3.2589884
3.4652267
3.6804852
3.9116919
4.1384837
4.3458212
4.5906775
4.7684466
5.0501522
5.2473527
5.5641534
5.7702805
6.0756187
6.2921019
6.6064905
6.8433336
7.3357652
1.0049562e-05
1.0285665e-05
1.0576889e-05
1.1155976e-05
1.1809584e-05
1.2545639e-05
1.4119564e-05
1.6666208e-05
2.2403943e-05
3.470437e-05
6.1891554e-05
0.00011978529
0.00023779249
0.00048054742
0.00092598976
0.0018223995
0.0031956025
0.0060105395
0.0096331278
0.015875281
0.026699199
0.037709398
0.060403748
0.080126596
0.11977489
0.151488
0.21495416
0.26319607
0.35811076
0.42574434
0.55618511
0.64554209
0.80742743
0.95130929
1.102794
1.3368447
1.4981697
1.7788899
1.9682256
2.3143242
2.5356995
2.9421484
3.1907049
3.6499098
3.9312611
4.4476833
4.7711577
5.3668032
5.7408929
6.3748738
6.852686
7.4440868
8.0141223
8.6127193
9.1799334
9.9372768
10.531001
11.460168
12.279851
13.157498
14.054381
15.169744
15.930366
17.07262
17.848798
18.798439
19.960672
20.855659
22.275741
23.368805
25.163265
26.628329
28.771876
30.270412
33.07737
1.0989164e-05
1.160197e-05
1.3067562e-05
1.4200549e-05
1.5659413e-05
1.8486734e-05
2.5423228e-05
4.3087357e-05
8.7906501e-05
0.00019362979
0.00042851343
0.00093617126
0.0019397862
0.004094735
0.007570292
0.014575668
0.02436671
0.043409743
0.066568109
0.11005656
0.15839374
0.22589687
0.33808733
0.43444133
0.61218861
0.75191647
1.0175028
1.2099272
1.5805166
1.8300295
2.3069846
2.6226544
3.2207227
3.6177653
4.3320392
4.9033552
5.6417366
6.4644725
7.2453795
8.406315
9.203297
10.633562
11.514507
13.136842
14.201804
16.155884
17.436694
19.892595
21.410363
24.100801
25.694611
28.501062
30.235358
32.815772
36.08946
39.596341
43.124728
48.897462
52.825357
56.427721
62.027522
67.515549
71.191797
77.464237
81.194816
87.413039
92.705049
97.96476
111.32876
120.23502
140.15872
151.8955
167.17248
174.24119
188.64611
1.2206352e-05
1.4585788e-05
1.7376741e-05
1.9646933e-05
2.5394135e-05
4.2994651e-05
9.6245708e-05
0.0002424969
0.00060910187
0.0014520304
0.0032579141
0.0071740042
0.014400726
0.030505635
0.052221146
0.095840309
0.15586841
0.24761729
0.38789131
0.56648241
0.79126637
1.1340683
1.4626992
1.9723618
2.480315
3.1384605
3.9107334
4.6712611
5.8304966
6.6776272
8.2541158
9.3187316
11.34422
12.703184
15.215021
16.990102
20.355462
22.663167
26.785023
30.180136
34.052303
39.215026
42.695606
50.072517
55.202134
64.884513
70.372024
85.016819
90.286936
103.80035
108.93145
124.79197
131.9244
151.8755
181.39887
198.32162
228.41873
270.46835
263.56755
281.44705
332.24366
364.31031
372.54637
429.04958
434.17007
481.91736
499.23076
538.23193
624.79282
627.69783
648.36277
690.93001
699.05856
718.49618
739.75358
1.201523e-05
1.5743364e-05
1.9170389e-05
3.01695e-05
7.0578093e-05
0.00021082971
0.00063144675
0.0017454064
0.0043986592
0.010243294
0.022233626
0.04940348
0.09127614
0.1859858
0.29479858
0.52654552
0.78780801
1.1887411
1.79053
2.356987
3.4184633
4.2690453
5.7206222
7.1675774
8.8578836
11.227875
13.153093
16.550255
19.143033
23.083976
28.087734
32.385188
39.92425
45.180235
55.079172
63.384269
79.472167
89.37508
109.90829
122.11501
143.11004
163.38118
181.23086
241.61575
264.09813
311.87791
340.44594
447.20767
435.75442
521.75049
517.74052
647.82248
628.77922
723.90596
769.92059
770.10487
920.60978
984.81071
837.92491
889.56628
1081.6194
906.6849
907.73428
959.40894
860.8256
859.16205
835.6909
1005.1542
802.17837
736.28335
582.5453
569.09349
479.39948
449.19955
371.7047
1.0742976e-05
1.4047313e-05
2.7190769e-05
0.00010028725
0.00040459216
0.0014304304
0.0043553211
0.011683394
0.028104518
0.062921014
0.13102051
0.28142197
0.48144249
0.92274735
1.3677997
2.3553045
3.1957351
4.9872211
6.3706902
8.9612902
11.708484
14.800824
19.595938
23.35952
30.739604
36.489021
45.804898
55.869167
65.818306
86.561303
102.7368
128.2448
155.3097
181.76599
238.83981
288.85813
374.96874
412.08227
544.89751
570.07005
715.46895
733.586
864.05937
934.43339
1016.1999
1010.9538
1200.1744
1137.8735
1003.7938
1003.424
1032.7987
1002.5095
856.5999
873.06868
709.58521
718.7919
711.38574
462.66932
464.7943
455.39062
346.19657
231.07786
281.79382
194.89111
211.15873
153.74192
236.60321
186.88252
69.415656
77.915357
54.246109
44.532834
29.758774
28.307306
22.472921
1.007101e-05
1.9134171e-05
0.00010978975
0.00062415249
0.0026998825
0.0091979872
0.026683951
0.067914133
0.15448809
0.33572051
0.66590404
1.3055361
2.1403624
3.7514812
5.3406485
8.6763921
11.35727
17.040579
21.381001
30.471199
37.432056
51.035933
63.36039
79.955892
109.82032
131.15195
173.63754
207.03253
269.48828
390.31718
457.07553
601.72607
681.059
888.97328
937.33943
1114.8109
1179.8973
1227.9862
1419.5522
1235.7206
1355.1668
1004.9223
1168.0813
827.67663
842.36251
641.02136
837.46329
275.83535
303.01358
172.48681
254.31857
119.17119
168.16164
125.22166
65.765742
131.55732
70.86568
30.52445
93.170196
100.17089
34.303037
19.119273
36.009348
27.62115
22.760198
21.590067
57.167736
13.377934
5.3897213
6.056839
6.1218447
5.9456327
4.8280811
4.2647963
3.8481534
9.6931915e-06
7.4419597e-05
0.00073058941
0.0041035623
0.016650036
0.052708428
0.14319131
0.34381779
0.73237994
1.5818547
2.9226568
4.9758233
8.4399977
12.648118
18.685322
28.376829
37.070233
55.745378
69.742146
103.14345
128.55197
185.01374
226.6508
333.47133
451.5536
546.85547
765.41529
903.2996
1128.4288
1301.9932
1343.4857
1502.4313
1414.2505
1437.0652
1080.4372
1063.6698
905.91507
722.55648
443.10003
388.58431
203.12365
178.83878
210.90958
101.43063
122.62631
99.333573
59.021326
18.098114
20.636031
29.732438
29.264891
13.902092
17.073418
12.137149
10.288491
33.071361
16.153153
11.283142
60.401091
40.50707
8.7957455
7.4062243
36.963517
18.152742
13.689509
16.564196
24.744576
4.6469584
3.0783632
3.5330896
4.3713708
5.2405322
5.0687421
4.5207961
3.7209998
8.2710973e-06
0.0004859247
0.0046966335
0.024177445
0.089902058
0.26264359
0.6678828
1.5174357
3.0001371
6.4257379
10.209029
17.838682
27.448435
40.234748
63.97574
88.070827
123.94887
192.18167
241.77105
404.9514
506.70009
783.88449
926.36655
1251.5528
1316.118
1419.1634
1620.9524
1533.6438
1330.8899
1034.0064
845.46716
678.83376
422.5418
262.11535
167.95971
167.86586
144.29477
72.307999
33.664338
30.72157
18.699402
22.686735
20.995296
18.07891
37.882213
26.924749
8.165968
7.5326633
9.4887947
9.8595221
9.7784015
6.2684303
5.4344327
5.4671521
5.9453567
16.058043
9.0716367
9.0016341
15.963026
12.366569
5.9888136
6.045173
10.302162
13.076453
11.586142
10.514156
11.981339
3.2779585
2.8869187
2.9583763
4.3663307
5.7363232
5.4824116
5.1654735
3.8327235
3.8531833e-05
0.0031140501
0.027025524
0.12567565
0.42324581
1.1367533
2.7211555
5.6745343
10.843725
21.410428
33.122634
57.900534
84.471272
139.40545
213.34811
300.99767
493.69277
735.06646
948.7075
1405.5834
1461.4592
1808.4801
1577.9178
1369.2952
981.4946
797.28959
526.15687
519.25382
187.45448
133.79937
101.31884
60.686464
35.635279
16.935362
17.95791
36.820945
15.867795
10.994507
9.2910379
7.4392258
5.1116786
7.167363
10.313927
7.1348535
8.8903162
7.9558399
5.9188053
6.2255426
11.036155
11.775386
9.3625605
4.647476
4.2577589
6.5506558
6.2884436
10.535191
8.1697219
8.188209
12.871379
7.7941285
7.9525101
6.1104963
18.077442
6.6949032
6.9763467
7.1371284
6.632422
2.789295
3.0415957
3.2386212
4.3114479
6.0471258
6.3511123
4.5754691
3.4424887
1.0216837e-05
0.017713413
0.13670062
0.57197882
1.7412481
4.3074227
9.7390972
18.66796
36.61858
65.175161
104.57012
186.37716
287.01827
529.90845
800.04289
1215.7195
1513.8351
1681.9388
1739.6924
1572.3043
1230.4538
723.15231
405.48364
212.3774
136.9252
117.03691
61.723958
68.989278
15.316254
15.291956
14.516125
4.8345601
4.6047897
3.1924847
3.818159
14.838172
8.0030251
11.822331
10.734771
6.9389576
5.024864
4.9500147
6.955003
9.3987053
17.964032
8.7380603
4.5963625
4.6938382
6.9101869
8.1112495
6.1590947
5.8302973
4.5927379
5.4216004
5.2043828
10.201462
7.8689579
8.2057041
8.9245208
6.9351579
8.8782165
10.735472
9.8573517
6.1491953
8.5783157
5.3843276
4.6737302
2.6220107
2.9590367
3.0142591
3.3661605
4.7090054
6.7366881
6.0378921
4.9838837
0.00062451775
0.093748782
0.6174607
2.2875813
6.2901775
14.442453
30.333388
58.888593
116.81448
201.13493
354.71626
690.39611
1123.8257
1646.0198
1917.396
1840.0005
1487.6568
876.50422
577.102
326.80406
232.73849
65.248445
38.308639
23.873951
20.642952
27.07071
9.3864403
5.131178
4.5778422
5.3600856
1.9885037
1.4177388
4.8595944
1.9227205
1.9163815
10.630396
2.0770198
4.9229241
11.724923
6.893735
5.618349
4.1946724
7.5066581
6.7165945
19.064584
9.8028832
5.5446664
4.2250535
6.3107647
6.9947348
5.8061054
9.2548369
5.933298
5.4010519
4.7848785
7.5984569
10.060308
8.2764924
7.3514592
6.2990599
13.852584
8.2736375
8.3561602
7.548629
7.0538089
4.2446012
3.2633676
2.7242965
2.8552893
2.829761
3.1073358
4.5380627
5.6312137
6.6959395
5.4563416
0.0076011404
0.44596383
2.4843031
8.0740348
20.254474
44.254957
91.216813
187.91009
378.71695
719.75563
1406.6039
1824.2586
1977.9501
1775.5642
1047.8832
458.10549
240.13351
126.39624
90.407826
56.821824
56.66459
10.62086
4.4952355
5.4871562
6.8397173
10.032247
3.6584699
2.6378236
4.518337
4.1375857
1.1594932
2.0986163
2.2341653
1.271841
1.4863495
5.6668306
1.7758372
2.662538
15.817577
6.8799737
3.2995853
4.5385849
8.3621126
4.9623401
6.1286918
5.6073648
3.3823193
3.5625138
8.5888492
8.6012285
7.7745462
5.5153802
5.1012588
4.0888593
4.7550716
7.7750252
8.7045876
7.7158707
5.7621724
6.1210524
20.181428
11.565448
17.852351
9.4789461
6.752355
4.3563466
2.964603
3.0423395
3.1534809
2.9841416
3.1874629
4.7697325
4.3454427
4.7394269
4.3824396
0.05947006
1.897106
8.8550853
25.389453
59.829103
130.2302
283.05114
652.25455
1442.9814
1801.208
2104.9365
1615.0583
694.11654
376.37613
123.72841
46.988089
27.002133
23.027545
13.382495
8.7385884
9.0536137
8.3803463
2.372077
3.8200972
6.3426169
4.6640666
5.0425513
2.3507794
3.772899
3.5830043
1.6219887
3.4010258
1.6140903
0.98123656
2.0451057
3.5888934
1.7781007
2.6894157
3.0748623
3.9650359
3.0321561
4.3234606
5.3397198
4.0639552
6.3400928
5.0901167
3.3389818
3.3585088
5.2645958
15.331328
9.133728
9.4953836
4.6379063
3.3785958
3.9353719
8.1792612
7.0257839
4.54779
5.4131418
8.4274516
16.522655
15.159876
8.6371458
7.3449491
7.1881564
4.1682976
3.1629295
3.0011226
3.2269904
3.3059387
3.5888115
3.9543038
3.9221979
4.0590258
4.1619705
0.37076266
7.2197066
28.221321
72.890868
169.99551
392.96842
994.49587
1803.6437
2324.5651
1612.2126
722.7664
312.35598
97.300207
56.266445
9.621372
4.1597737
2.915307
5.7292273
4.6332592
2.5574789
2.3195713
1.9897952
1.5855156
2.0843414
3.9595919
4.0678471
3.6234338
3.6055929
4.3974417
3.7241894
2.4808545
3.0258606
1.5236936
0.94274427
1.4395194
2.9440474
1.7501575
1.7994921
2.6479563
3.4082515
2.9855638
2.8338277
9.9338859
7.520759
6.789243
5.7474
3.1818665
2.871855
4.042465
25.533996
12.401473
6.1016809
3.2856474
3.3667417
4.1507874
7.551075
6.0632103
4.6000046
6.0886274
10.750992
7.9145112
10.886014
5.6706891
5.5043622
6.1089722
4.6804399
4.1037282
2.7405682
3.2000701
3.3781273
3.8075066
3.7812437
3.4801475
3.579073
4.7522282
1.9712161
24.680933
81.979038
197.97601
497.59072
1346.5422
1936.301
1863.5986
950.82609
343.28574
142.47097
35.01597
10.007489
5.1180831
1.4207533
0.88456837
0.865958
1.8556767
2.5695491
1.9335552
2.0713082
1.6220166
1.583314
1.6863323
4.7308241
11.623057
2.0419548
7.6729701
4.6212548
3.7267692
2.4042024
1.836397
1.3888624
1.0017405
1.083164
2.3810437
1.5766215
1.6632632
4.3104338
2.2156947
1.7050106
2.1368894
31.599065
13.609409
4.3074422
3.2817809
2.8876999
2.8071158
6.1962862
7.3949804
10.750112
5.15221
3.1689219
3.4710606
4.003443
5.5113144
5.8514783
4.9117098
4.9813781
8.4427751
8.4887427
10.177368
6.2377929
5.4925972
5.0274474
4.551511
3.3025096
2.1376193
3.1882944
3.3397881
4.1912192
4.1105781
3.7954008
4.3959979
5.7660503
9.199127
76.758439
222.36484
539.75738
1628.3369
2154.5987
1403.8998
525.05715
184.03986
46.042815
17.373936
2.8252648
1.20476
0.90914211
1.0881091
0.66884884
0.64965748
1.0295483
1.743374
1.7034912
1.8629032
1.5957626
1.7766233
1.5388603
4.3095963
12.493106
2.7623271
18.810727
4.9867656
3.5220053
2.4919883
1.781909
1.3008268
1.0445388
1.0699701
2.25536
1.5306816
1.9234068
6.6212422
1.5987806
1.4926975
3.4448479
7.3515266
5.2666094
2.6738477
2.4267917
2.888759
2.7697763
5.216205
6.5299796
6.2723218
3.551361
3.4711262
3.397162
4.5316173
5.410647
5.813966
4.2630606
5.8908167
6.8741595
6.5346161
8.727227
6.309305
4.6856132
6.1651975
2.8090384
2.6377838
2.1499707
3.4478464
3.6627312
4.044867
4.0105705
4.5674363
5.7948103
5.9527953
38.5646
219.54885
588.46947
1609.1652
2220.3884
1162.8075
478.19417
127.11957
20.356612
4.6716186
2.2405311
0.78124961
0.50854208
0.72557052
1.0763141
0.64729491
0.63642845
0.81104067
1.5246138
1.5893274
1.5346101
1.5898785
1.6314907
1.688754
3.5713851
5.3850745
2.7582479
27.517123
5.3425488
2.9464806
2.8655466
1.8741615
1.4615267
1.1336812
1.1347756
2.2572886
1.5274346
2.5988416
1.9879598
1.4040902
1.4100668
4.4296567
5.6110081
3.8353071
2.1752763
2.3474316
3.2281148
2.5580997
4.3640211
9.3442648
5.7334876
3.548354
2.7390752
2.7990882
3.7281576
7.4909556
5.9111712
3.4702081
3.7278353
6.1370461
5.0429652
7.7979456
5.9202073
3.229567
4.0334766
1.8392165
2.475563
2.2760256
4.2183074
4.8612121
4.5740693
4.709977
6.2741735
5.9633125
5.1359421
148.67754
586.692
1632.7995
2132.9452
1072.326
356.81485
113.93775
16.147637
2.1978871
0.56944355
0.5803122
0.67698923
0.49773719
0.94640931
1.1643029
0.6587645
0.65854757
0.75437193
1.3988339
1.3582001
1.4894141
1.4507234
2.2423365
1.6268358
4.646765
4.3350655
2.6644338
21.55245
5.2345178
2.5594454
2.7699691
1.9031756
1.6991832
1.3381933
1.0989286
2.0593333
1.6286011
2.8195317
1.6776698
1.4908447
1.56591
4.4812325
5.3936105
3.2122497
2.0962613
2.5202435
3.8785837
2.4601795
3.9431465
6.436849
4.2007218
3.4027533
2.4203672
2.5935317
4.3330043
9.6368107
5.5383054
3.7644321
5.4424386
5.0124865
4.6293323
7.4063538
4.9175078
2.7216883
2.9478433
1.8932569
2.7840781
2.8813334
5.1140368
6.203895
4.8721995
5.1373625
7.0352203
5.0515005
4.3359494
484.56295
1567.1636
2574.3456
1330.7514
381.66436
71.862056
15.83437
2.1523548
1.2014635
0.30117973
0.38183702
0.66827153
0.54887518
1.0148879
1.2019496
0.6538511
0.67875267
0.74237161
1.2734451
1.2262585
2.1655926
1.4790398
2.6470678
1.3479644
6.2278626
4.3335483
2.8088328
6.6215383
3.8098614
2.5430856
2.1593685
2.0451686
1.9301202
1.3952685
0.9738897
1.8426558
1.6727381
2.1078985
1.6502471
1.4576047
1.6084299
2.6286849
2.7310604
3.5417023
3.2806573
6.3383756
4.9630143
2.2868728
4.2652448
4.3019958
3.2633978
2.6361606
2.2167354
3.3022863
5.247469
8.7280223
5.6327847
3.6319837
3.7466324
4.5137043
4.6300689
6.7596867
4.6865788
2.6465312
3.383319
1.5523378
1.7022804
3.7247535
5.3985517
6.732324
4.3022663
4.8739939
5.2104571
4.5629182
4.146033
1457.4511
3100.439
2021.1927
558.28172
78.590884
9.1057129
2.0465979
0.99882656
1.0985529
0.44930298
0.35712002
0.69871905
0.51968164
0.98066101
1.2780138
0.66062512
0.68503016
0.69307735
1.1175363
1.2856209
2.9275379
1.5237536
2.3300658
1.2711708
2.7782996
2.0918629
2.6192534
4.6558499
3.6610104
3.2967464
2.1489582
2.6138602
2.1162549
1.2446881
0.97031452
1.6183924
2.010466
2.1846682
1.3536986
1.5742476
1.9236814
1.5533312
1.6025722
5.8986226
3.8226107
8.4820606
5.2011592
2.1739444
4.4919822
3.749994
2.8537127
2.7011244
2.3010096
3.9709329
4.1850094
9.3097612
5.7811845
3.7143112
2.8432862
4.3324897
4.6405761
6.5677823
5.0766283
2.8299352
3.1015783
1.2728571
1.4026295
5.141947
5.3040368
6.2174035
3.8386963
4.8491583
4.6952871
4.5444934
4.1130414
4177.5818
3293.0997
727.46579
115.56834
8.9073659
1.193868
0.60678132
0.90602116
1.0241421
0.63578889
0.36878177
0.74421204
0.50440332
0.88384925
1.3229076
0.69168438
0.67438537
0.6473416
1.0478148
1.3272425
2.8975205
1.6127989
1.4540195
1.1704935
2.2746149
1.5530739
2.240672
5.8284737
3.8246319
7.3318775
3.6794634
3.447067
2.1493098
1.1751309
1.2514544
1.6045681
2.364883
3.0870844
1.4564757
1.366916
1.9662957
1.3448059
1.4880282
6.9914412
4.3948185
4.0572716
2.8726913
2.142967
3.8670777
3.5982668
2.7621872
2.4131693
2.7012783
3.466979
5.8623332
7.2905257
5.286792
4.0077508
3.3667061
4.0948552
4.9761214
6.3277299
5.2936069
3.233676
3.1186508
1.1359388
1.466144
5.6724931
5.1118107
5.0608794
3.7544521
5.2899627
5.1055896
5.11739
4.1863079
7840.9145
1599.6631
133.52735
14.198711
1.0487749
0.33705886
0.47192774
0.88964383
1.1821384
0.70909881
0.38885736
0.80352162
0.56722239
0.80406428
1.3706465
0.69976014
0.6364879
0.64174694
0.97829202
1.2997528
2.2109138
1.6161948
1.2245372
2.1654321
2.3614769
1.5964404
1.7912765
3.3788327
4.0718539
17.922228
3.5596044
4.0041105
2.1640194
1.1472044
1.2473417
1.6844735
1.9956645
5.278284
1.9318969
1.6813993
1.6165597
1.4572034
1.5995025
3.0845007
3.5786959
2.3901138
2.070428
2.2879243
2.9366365
4.6126591
3.2579974
2.4431855
3.0057329
2.820238
4.4441747
7.0410808
5.0043378
3.5912892
6.6852275
4.8219823
4.5734654
6.0681859
5.2589243
4.2564474
1.7285667
0.87674419
1.9004614
4.9844464
4.6141729
4.8905273
3.7896994
5.1771659
6.081685
5.5852295
4.1096225
1530.0349
256.74018
13.056995
1.5742025
0.38211795
0.25315948
0.46644258
0.84187682
1.2453248
0.91821812
0.41080069
0.86217078
1.0447136
0.81095577
1.3869281
0.69802937
0.61820494
0.67759242
0.94013799
1.3115338
2.1070221
1.5011768
1.1929686
7.0527344
1.7210497
1.2860245
1.4524686
1.658821
4.1456209
16.561744
6.6029073
4.9677007
1.7097233
1.0759824
1.1421514
1.751167
1.9912715
6.071642
3.1104603
2.7521666
1.5577878
1.4999901
1.7310316
1.9488089
2.5086621
2.0983513
2.3719594
2.5442756
2.4506618
4.5784213
3.4153963
2.4926092
1.9619584
2.6900561
2.9523614
6.4290754
5.0790295
4.0183886
12.725131
5.1329213
4.1734326
5.5174625
6.5760023
4.2895523
2.5318246
0.82285315
2.7669531
4.5998614
4.2404063
4.9072146
3.9990033
4.7029353
6.7472547
5.7726822
3.8006148
105.83161
21.753551
1.0958637
0.38635547
0.33490503
0.25033694
0.46822963
0.75129199
0.98561823
1.3886254
0.46015086
0.93707263
2.7935277
1.0512433
1.3931515
0.68168475
0.62210463
0.82652318
0.90904122
1.342711
2.4118321
1.4693035
1.0193145
4.8780491
1.2675855
1.1366207
1.2170517
1.5054889
2.6294811
5.6911048
7.4485919
5.0597104
1.292416
1.0711738
1.2114548
1.6791356
1.888662
4.8636602
3.9879301
4.1090746
1.9730361
1.9257786
1.7613061
1.9179659
2.5548453
2.0055661
3.216167
2.8211583
2.3522837
4.6225021
3.3808643
2.1337177
1.7008855
2.6305579
2.5111947
4.7292479
6.1387302
6.8150174
9.8802514
7.8537522
4.5609121
5.7710717
10.392325
4.6570445
2.4373579
0.91088827
3.2339495
4.6145654
4.1398711
4.4412943
4.2555614
4.8581263
7.3013895
5.876154
3.0999866
3.7926154
1.4310069
0.34235192
0.29349023
0.32931653
0.26002263
0.46114051
0.64867357
0.8291235
1.5255683
0.50598262
1.0610568
6.2304201
1.5407765
1.3800548
0.63287807
0.62036029
0.93569809
0.87385865
1.3828401
2.4692319
1.4345171
1.0155693
1.3133763
0.89935047
0.94865742
1.1830935
1.476985
2.1622928
7.2973161
16.008381
2.141778
1.1585838
1.1659218
2.5074414
1.6847226
1.6987212
2.0977391
3.360755
4.6332053
2.5416573
2.3652435
1.7729034
2.1053498
1.8452984
2.1857658
3.4714082
3.4889054
2.463937
3.2688897
2.5559584
1.9475614
1.7887476
1.9122488
2.4057594
3.9130269
7.4648406
7.3100105
5.7319893
9.6380046
4.9970837
6.0917184
8.9359379
5.0618174
2.2171328
0.9474279
3.2583799
4.8942058
3.7299948
3.4685538
4.4712842
6.0760677
7.8395354
6.7990676
2.4739513
0.69650289
0.49785657
0.3123949
0.28679059
0.32915542
0.26859308
0.45136672
0.60249504
0.82331059
1.2907775
0.52258557
1.1369749
8.619455
1.9079247
1.3140115
0.54897197
0.59562756
0.9446634
0.86498479
1.3894198
2.4739208
1.4186899
0.79111835
1.2420798
0.84255794
0.85441822
1.3947075
1.4300969
1.8404043
2.6777121
4.0133423
1.6094631
1.2657055
1.2849746
8.4856327
1.9228844
2.5872507
1.9002266
2.2550877
3.484606
2.9865889
2.3409315
1.7423835
2.0349952
1.5611645
1.7284155
2.8068049
4.2977715
2.786546
2.2863914
2.4251182
2.0068336
2.0083289
1.9019143
2.4630151
3.9094416
6.881076
6.4601581
5.5258372
7.9008333
5.6432398
5.8446712
4.7467703
2.5015136
2.1924178
0.87210539
3.3729665
4.2524345
3.5474745
3.3825527
4.8938172
7.8861129
7.281305
7.4345796
2.7220191
0.62687581
0.45998276
0.3234004
0.28852494
0.33387603
0.27771287
0.44404001
0.59216026
0.87751447
1.1542988
0.51873496
1.1668245
5.93201
3.6151162
1.1978932
0.49258635
0.54036254
0.91272936
0.86433406
1.3949869
2.6120021
1.3790887
0.76701506
1.2145246
0.8413875
0.78766657
1.314886
1.3964997
1.8163206
2.3937243
1.9248466
1.6911583
1.5143869
1.5082375
11.440806
2.4354756
2.3693006
1.6468242
1.8215021
1.945101
2.7807836
2.2119035
1.7475399
2.2712066
1.6191723
1.8117454
2.9186138
4.5647418
3.7261867
2.094835
3.2204342