/*--------------------------------*- C++ -*----------------------------------*\
| =========                 |                                                 |
| \\      /  F ield         | OpenFOAM: The Open Source CFD Toolbox           |
|  \\    /   O peration     | Version:  2.3.0                                 |
|   \\  /    A nd           | Web:      www.OpenFOAM.org                      |
|    \\/     M anipulation  |                                                 |
\*---------------------------------------------------------------------------*/
FoamFile
{
    version     2.0;
    format      ascii;
    class       volScalarField;
    location    "2.7e-05";
    object      nuSgs;
}
// * * * * * * * * * * * * * * * * * * * * * * * * * * * * * * * * * * * * * //

dimensions      [0 2 -1 0 0 0 0];

internalField   nonuniform List<scalar> 
7500
(
4.1402997e-10
4.1906531e-10
4.2411893e-10
4.2902307e-10
4.3390838e-10
4.3874038e-10
4.4349799e-10
4.4821351e-10
4.5288762e-10
4.5752984e-10
4.6213201e-10
4.6672188e-10
4.7127879e-10
4.7581997e-10
4.8030635e-10
4.8474676e-10
4.890974e-10
4.9341007e-10
4.9765403e-10
5.018681e-10
5.0604263e-10
5.1022546e-10
5.1437712e-10
5.1860172e-10
5.2271844e-10
5.2686591e-10
5.3084157e-10
5.3474691e-10
5.3856078e-10
5.4233516e-10
5.4603645e-10
5.4969874e-10
5.5334331e-10
5.5696604e-10
5.6064633e-10
5.642718e-10
5.6795074e-10
5.7151507e-10
5.7509373e-10
5.8431476e-10
5.8809972e-10
5.9176306e-10
5.954945e-10
5.9913339e-10
6.0290877e-10
6.0661581e-10
6.1064132e-10
6.1437414e-10
6.1849314e-10
6.2228192e-10
6.2618792e-10
6.2989732e-10
6.3367429e-10
6.3726313e-10
6.4112567e-10
6.4457398e-10
6.4831893e-10
6.5176886e-10
6.5560156e-10
6.5911734e-10
6.6311408e-10
6.6669633e-10
6.7086729e-10
6.7465423e-10
6.7929076e-10
6.8327285e-10
6.8845784e-10
6.9275855e-10
6.9871089e-10
7.0340742e-10
7.1026238e-10
7.1543873e-10
7.233261e-10
7.2908859e-10
7.4073551e-10
4.5543857e-10
4.6093647e-10
4.6637558e-10
4.7174253e-10
4.7707651e-10
4.8236745e-10
4.8762375e-10
4.9282315e-10
4.9799532e-10
5.0310836e-10
5.0818737e-10
5.1321959e-10
5.1819906e-10
5.2314639e-10
5.2802839e-10
5.3288837e-10
5.3768151e-10
5.4244988e-10
5.4718277e-10
5.5185882e-10
5.5655062e-10
5.6115491e-10
5.6579367e-10
5.7029391e-10
5.7478774e-10
5.7917439e-10
5.8351235e-10
5.8777171e-10
5.9198454e-10
5.9618014e-10
6.0034283e-10
6.0453372e-10
6.0866598e-10
6.1282933e-10
6.1705405e-10
6.2117464e-10
6.2547243e-10
6.297478e-10
6.3435236e-10
6.4514509e-10
6.5046842e-10
6.5551232e-10
6.6142494e-10
6.668374e-10
6.7354602e-10
6.7966738e-10
6.8795517e-10
6.9497597e-10
7.0466741e-10
7.1239303e-10
7.2278908e-10
7.3126124e-10
7.4178748e-10
7.5083111e-10
7.6233689e-10
7.7184955e-10
7.8505566e-10
7.9566318e-10
8.1078573e-10
8.2322797e-10
8.4097156e-10
8.5470757e-10
8.7508063e-10
8.9087948e-10
9.1463493e-10
9.3218244e-10
9.5939705e-10
9.799378e-10
1.0121217e-09
1.0350192e-09
1.0718955e-09
1.0968313e-09
1.137086e-09
1.1642228e-09
1.2237534e-09
5.0103774e-10
5.0713042e-10
5.1328643e-10
5.1927235e-10
5.2529269e-10
5.3122171e-10
5.3723121e-10
5.4309481e-10
5.4906537e-10
5.5487727e-10
5.6080029e-10
5.6654413e-10
5.7236696e-10
5.7808515e-10
5.8374739e-10
5.8942613e-10
5.9501917e-10
6.0058293e-10
6.0616538e-10
6.115736e-10
6.1712261e-10
6.2240416e-10
6.2782235e-10
6.329895e-10
6.3827619e-10
6.4339954e-10
6.4849847e-10
6.5373489e-10
6.5892698e-10
6.6443286e-10
6.6986747e-10
6.7594964e-10
6.8189314e-10
6.8880988e-10
6.9621952e-10
7.0431579e-10
7.1282598e-10
7.2473429e-10
7.3757778e-10
7.5726445e-10
7.7608754e-10
7.9349409e-10
8.1973642e-10
8.4124142e-10
8.7483203e-10
9.0330149e-10
9.5011117e-10
9.8638921e-10
1.044337e-09
1.0874286e-09
1.154119e-09
1.2032048e-09
1.2764533e-09
1.3323246e-09
1.4131952e-09
1.4748328e-09
1.567746e-09
1.6363251e-09
1.7415207e-09
1.8200332e-09
1.9359335e-09
2.0188164e-09
2.1443255e-09
2.2336541e-09
2.3679693e-09
2.4620801e-09
2.6056347e-09
2.7099493e-09
2.8684056e-09
2.9784801e-09
3.148662e-09
3.2609551e-09
3.4333306e-09
3.5493547e-09
3.7921041e-09
5.5172498e-10
5.5887487e-10
5.6693112e-10
5.7406951e-10
5.8205101e-10
5.8930181e-10
5.9751534e-10
6.048339e-10
6.1317617e-10
6.2050816e-10
6.2871981e-10
6.3589662e-10
6.4371476e-10
6.5069406e-10
6.5816991e-10
6.650216e-10
6.7234889e-10
6.7911921e-10
6.8643956e-10
6.9319089e-10
7.006344e-10
7.0746114e-10
7.1516208e-10
7.222933e-10
7.3061141e-10
7.389397e-10
7.4776361e-10
7.5931652e-10
7.7094123e-10
7.8705388e-10
8.0296787e-10
8.273782e-10
8.5101614e-10
8.8883508e-10
9.2332985e-10
9.7915409e-10
1.0288754e-09
1.1119754e-09
1.1902427e-09
1.2846258e-09
1.4175085e-09
1.5273305e-09
1.6902811e-09
1.8166153e-09
2.0143003e-09
2.1716289e-09
2.4212354e-09
2.6027382e-09
2.8863174e-09
3.0900996e-09
3.4040663e-09
3.6265597e-09
3.960893e-09
4.2043018e-09
4.5623185e-09
4.8238671e-09
5.2171453e-09
5.4983573e-09
5.9324153e-09
6.2383676e-09
6.6916953e-09
7.0064486e-09
7.482421e-09
7.8065446e-09
8.2922282e-09
8.627164e-09
9.132603e-09
9.4931794e-09
1.0035123e-08
1.0408678e-08
1.0974455e-08
1.1343847e-08
1.1897392e-08
1.2271108e-08
1.3032771e-08
6.0081078e-10
6.110101e-10
6.2571585e-10
6.3621358e-10
6.5129059e-10
6.6238764e-10
6.7829744e-10
6.8953805e-10
7.0518486e-10
7.1602486e-10
7.3000551e-10
7.3994006e-10
7.5165472e-10
7.6086423e-10
7.7139043e-10
7.8053146e-10
7.9101987e-10
8.0047986e-10
8.1173909e-10
8.2225251e-10
8.358071e-10
8.4900663e-10
8.6793168e-10
8.8715723e-10
9.1752435e-10
9.5034492e-10
9.9421918e-10
1.0654651e-09
1.1348841e-09
1.245949e-09
1.3553668e-09
1.5341559e-09
1.6924367e-09
1.9438661e-09
2.1546556e-09
2.4949521e-09
2.7654005e-09
3.2003579e-09
3.5402075e-09
3.9717683e-09
4.5499383e-09
4.9859995e-09
5.6253472e-09
6.1237231e-09
6.8937035e-09
7.4695438e-09
8.3637744e-09
8.994997e-09
9.9878684e-09
1.0680081e-08
1.1758211e-08
1.2490597e-08
1.3614365e-08
1.4396794e-08
1.5578581e-08
1.6410919e-08
1.7670184e-08
1.855556e-08
1.9934112e-08
2.0863614e-08
2.2263252e-08
2.3213597e-08
2.4662129e-08
2.5614104e-08
2.7052995e-08
2.802441e-08
2.949643e-08
3.0524426e-08
3.2078276e-08
3.314339e-08
3.4732072e-08
3.5746067e-08
3.7251527e-08
3.8260452e-08
4.0294417e-08
6.3869971e-10
6.525818e-10
6.7542837e-10
6.8990166e-10
7.1386299e-10
7.3033574e-10
7.575855e-10
7.7512734e-10
8.0384113e-10
8.2118203e-10
8.4870417e-10
8.6372872e-10
8.8385398e-10
8.9706946e-10
9.1495948e-10
9.2934049e-10
9.4870689e-10
9.6691558e-10
9.9365704e-10
1.023656e-09
1.0734665e-09
1.1322314e-09
1.2345011e-09
1.3487478e-09
1.5465345e-09
1.7485605e-09
2.0486159e-09
2.4409264e-09
2.8058092e-09
3.3872839e-09
3.8996938e-09
4.6967211e-09
5.3381742e-09
6.3429761e-09
7.1370837e-09
8.407301e-09
9.3524758e-09
1.0879678e-08
1.1975375e-08
1.3633335e-08
1.5243255e-08
1.6730986e-08
1.8693089e-08
2.0384428e-08
2.2673064e-08
2.4402112e-08
2.7034836e-08
2.8883637e-08
3.1828395e-08
3.3795083e-08
3.68738e-08
3.8902774e-08
4.2085649e-08
4.4213374e-08
4.750287e-08
4.9737221e-08
5.3122569e-08
5.5491947e-08
5.9186145e-08
6.160224e-08
6.5285147e-08
6.7745527e-08
7.1495415e-08
7.390877e-08
7.7568294e-08
7.9993721e-08
8.3671271e-08
8.6219137e-08
9.0062196e-08
9.2811084e-08
9.6563223e-08
9.8987243e-08
1.0253089e-07
1.0491464e-07
1.0962326e-07
6.6381363e-10
6.7916388e-10
7.0405596e-10
7.2077534e-10
7.4855059e-10
7.6895954e-10
8.0373053e-10
8.2675568e-10
8.6668357e-10
8.9061929e-10
9.3165333e-10
9.569945e-10
9.996517e-10
1.0281853e-09
1.0713664e-09
1.1133246e-09
1.1775966e-09
1.2613274e-09
1.4006161e-09
1.5833352e-09
1.8948167e-09
2.2469342e-09
2.8240774e-09
3.3930793e-09
4.3191444e-09
5.15158e-09
6.4404278e-09
7.7130561e-09
9.0602603e-09
1.1145715e-08
1.2792421e-08
1.5340146e-08
1.7304419e-08
2.0457512e-08
2.2815463e-08
2.6595466e-08
2.9279383e-08
3.3665392e-08
3.6689888e-08
4.1694237e-08
4.5063148e-08
5.0492122e-08
5.427239e-08
6.0218938e-08
6.4460677e-08
7.0253593e-08
7.6017247e-08
8.0951665e-08
8.8274278e-08
9.2942995e-08
1.0029975e-07
1.0512189e-07
1.1276657e-07
1.1772175e-07
1.2531875e-07
1.3065483e-07
1.3803508e-07
1.4367208e-07
1.519843e-07
1.5738504e-07
1.6548087e-07
1.7108852e-07
1.7923694e-07
1.8449149e-07
1.9236402e-07
1.9756041e-07
2.0538085e-07
2.1089568e-07
2.1905584e-07
2.2506214e-07
2.3268302e-07
2.3775393e-07
2.4491745e-07
2.4987898e-07
2.5934614e-07
6.8026375e-10
6.9638859e-10
7.1904102e-10
7.3551707e-10
7.5838427e-10
7.7681917e-10
8.0281368e-10
8.2919908e-10
8.5801024e-10
8.9928622e-10
9.385527e-10
1.0034743e-09
1.07109e-09
1.1857944e-09
1.3358511e-09
1.5791852e-09
1.9181038e-09
2.4173426e-09
3.1493585e-09
4.0075472e-09
5.3774794e-09
6.709864e-09
8.8422051e-09
1.0722206e-08
1.3795744e-08
1.6318166e-08
2.0430603e-08
2.3664501e-08
2.8534547e-08
3.3586001e-08
3.8288343e-08
4.5141716e-08
5.0335301e-08
5.8773391e-08
6.4658015e-08
7.4137938e-08
8.0685213e-08
9.1454628e-08
9.8633439e-08
1.1050399e-07
1.182658e-07
1.311904e-07
1.3945344e-07
1.5320589e-07
1.6193292e-07
1.764016e-07
1.8567623e-07
1.9959845e-07
2.1291865e-07
2.2316239e-07
2.3890277e-07
2.4900531e-07
2.6440467e-07
2.7544243e-07
2.8905314e-07
3.02362e-07
3.1482812e-07
3.2844407e-07
3.4336238e-07
3.5524718e-07
3.7036071e-07
3.8248e-07
3.9804712e-07
4.0880111e-07
4.2408922e-07
4.3446029e-07
4.4982303e-07
4.6080397e-07
4.7699986e-07
4.8895068e-07
5.037242e-07
5.1409469e-07
5.280565e-07
5.3831755e-07
5.5718295e-07
6.8950348e-10
7.1347272e-10
7.3002596e-10
7.5356463e-10
7.7134519e-10
7.9507117e-10
8.2058615e-10
8.5159371e-10
8.9826107e-10
9.642451e-10
1.0746083e-09
1.2651564e-09
1.5769867e-09
2.0748637e-09
2.7932118e-09
3.8503928e-09
5.2050731e-09
7.1512823e-09
9.5782168e-09
1.2380864e-08
1.6790563e-08
2.063289e-08
2.6944487e-08
3.2061679e-08
4.0585183e-08
4.7069254e-08
5.7899554e-08
6.5865953e-08
7.9187139e-08
8.8587327e-08
1.0392072e-07
1.1596534e-07
1.2969556e-07
1.4831333e-07
1.609992e-07
1.8173407e-07
1.9576775e-07
2.1860896e-07
2.3345049e-07
2.5784865e-07
2.7369424e-07
3.0001511e-07
3.1654236e-07
3.4397146e-07
3.6110466e-07
3.8943096e-07
4.0740331e-07
4.3638742e-07
4.5767603e-07
4.822066e-07
5.0951423e-07
5.3132008e-07
5.5846079e-07
5.8267999e-07
6.0570737e-07
6.3433349e-07
6.5541142e-07
6.8551445e-07
7.1128126e-07
7.3813847e-07
7.6552504e-07
7.9412229e-07
8.2184103e-07
8.472854e-07
8.7603969e-07
8.9811295e-07
9.2964652e-07
9.5307124e-07
9.8698688e-07
1.0107281e-06
1.0428529e-06
1.0670528e-06
1.0992652e-06
1.1247321e-06
1.1705924e-06
6.9592773e-10
7.1631338e-10
7.3875737e-10
7.7136218e-10
8.0659379e-10
8.4464401e-10
9.1010066e-10
1.0039571e-09
1.181539e-09
1.4922525e-09
2.0216677e-09
2.8524825e-09
4.0750642e-09
5.8722992e-09
8.2611717e-09
1.1742374e-08
1.5750926e-08
2.1876862e-08
2.8042473e-08
3.6442327e-08
4.7831962e-08
5.7521597e-08
7.3653065e-08
8.5806048e-08
1.0609702e-07
1.2064859e-07
1.4529243e-07
1.6250723e-07
1.9157216e-07
2.1106607e-07
2.4372785e-07
2.652419e-07
2.9960591e-07
3.2840835e-07
3.5702003e-07
3.9684116e-07
4.2406038e-07
4.6637376e-07
4.9505342e-07
5.4165864e-07
5.7201378e-07
6.2155578e-07
6.5287292e-07
7.0422636e-07
7.3700836e-07
7.9042204e-07
8.2535536e-07
8.824217e-07
9.1992091e-07
9.7699659e-07
1.0207962e-06
1.0720658e-06
1.1207463e-06
1.1704973e-06
1.2173038e-06
1.2757062e-06
1.3226624e-06
1.3895273e-06
1.4483928e-06
1.5095802e-06
1.5707868e-06
1.6428771e-06
1.6947153e-06
1.7658986e-06
1.8172575e-06
1.8768701e-06
1.9462014e-06
2.0017283e-06
2.0814635e-06
2.1448534e-06
2.2390153e-06
2.3169024e-06
2.4224264e-06
2.4990521e-06
2.6272453e-06
7.3200859e-10
7.6603332e-10
8.2766193e-10
8.780414e-10
9.3798557e-10
1.0364058e-09
1.2355418e-09
1.6346163e-09
2.3719841e-09
3.5753132e-09
5.4001758e-09
8.1017027e-09
1.1833901e-08
1.7442133e-08
2.4052803e-08
3.3840508e-08
4.4353538e-08
5.9996752e-08
7.5278637e-08
9.8051498e-08
1.191321e-07
1.4405788e-07
1.7841427e-07
2.0470456e-07
2.4590497e-07
2.7573402e-07
3.2446999e-07
3.5785732e-07
4.1359732e-07
4.4996774e-07
5.10713e-07
5.5037307e-07
6.1634931e-07
6.6003537e-07
7.29667e-07
7.8413878e-07
8.4948967e-07
9.1825392e-07
9.8154862e-07
1.0673598e-06
1.127326e-06
1.2230135e-06
1.2843223e-06
1.3842129e-06
1.4520544e-06
1.5623522e-06
1.6371854e-06
1.7636585e-06
1.8451663e-06
1.9739976e-06
2.0550049e-06
2.1819148e-06
2.2653512e-06
2.3787355e-06
2.5140785e-06
2.6537358e-06
2.7905726e-06
2.9938669e-06
3.134943e-06
3.2638816e-06
3.4468418e-06
3.6218793e-06
3.7455237e-06
3.9343852e-06
4.0558593e-06
4.2370509e-06
4.3928771e-06
4.5458969e-06
4.8779983e-06
5.102386e-06
5.5444034e-06
5.8086033e-06
6.1320292e-06
6.2992422e-06
6.5947277e-06
7.7262407e-10
8.6111676e-10
9.5788502e-10
1.0375927e-09
1.2012186e-09
1.5910025e-09
2.4221532e-09
3.910717e-09
6.3021898e-09
9.8908565e-09
1.5054864e-08
2.2694214e-08
3.2653125e-08
4.8249867e-08
6.4074059e-08
8.807841e-08
1.1394568e-07
1.4565432e-07
1.8484004e-07
2.2643297e-07
2.7121491e-07
3.2898862e-07
3.7848958e-07
4.4513693e-07
5.0546259e-07
5.7562943e-07
6.5039764e-07
7.19367e-07
8.1318685e-07
8.8039065e-07
9.90036e-07
1.0638294e-06
1.1868263e-06
1.2696749e-06
1.4045613e-06
1.5000442e-06
1.6591407e-06
1.76879e-06
1.9425544e-06
2.0827561e-06
2.2343051e-06
2.4211906e-06
2.5507692e-06
2.788693e-06
2.9556031e-06
3.2340951e-06
3.3989468e-06
3.7697099e-06
3.919487e-06
4.2396358e-06
4.3809698e-06
4.7293822e-06
4.9039389e-06
5.3058207e-06
5.8466607e-06
6.16331e-06
6.6679221e-06
7.3136918e-06
7.2767424e-06
7.5781215e-06
8.2970564e-06
8.7543696e-06
8.9193752e-06
9.6430728e-06
9.7717431e-06
1.0369847e-05
1.0630284e-05
1.1116085e-05
1.2060724e-05
1.2172641e-05
1.2456301e-05
1.2945971e-05
1.3109297e-05
1.3378512e-05
1.3664086e-05
7.6491357e-10
8.9374608e-10
1.0062187e-09
1.287283e-09
2.007003e-09
3.534435e-09
6.2300119e-09
1.0545509e-08
1.7037941e-08
2.6452061e-08
3.9634963e-08
6.0067845e-08
8.2983819e-08
1.2035734e-07
1.5391621e-07
2.0888346e-07
2.5938227e-07
3.2337115e-07
4.0268298e-07
4.6865881e-07
5.723921e-07
6.4854636e-07
7.6101874e-07
8.6329955e-07
9.7240738e-07
1.1090446e-06
1.2157458e-06
1.3809368e-06
1.5036124e-06
1.6713352e-06
1.8658004e-06
2.0272229e-06
2.2771574e-06
2.4503161e-06
2.7361721e-06
2.9680603e-06
3.3601131e-06
3.6020748e-06
4.0373204e-06
4.3006375e-06
4.7042675e-06
5.0781595e-06
5.4027e-06
6.3007065e-06
6.6524989e-06
7.2998655e-06
7.7003969e-06
8.9095826e-06
8.8773975e-06
9.8040976e-06
9.8558509e-06
1.112447e-05
1.1057733e-05
1.1969531e-05
1.2451805e-05
1.2560667e-05
1.3850326e-05
1.4445742e-05
1.3435842e-05
1.3957537e-05
1.551577e-05
1.4319923e-05
1.4442051e-05
1.496407e-05
1.4284524e-05
1.4380325e-05
1.4290265e-05
1.5790068e-05
1.4210778e-05
1.3714649e-05
1.2287756e-05
1.2232389e-05
1.1306985e-05
1.1022079e-05
1.0096168e-05
7.1955533e-10
8.4089035e-10
1.1949962e-09
2.3430112e-09
4.8022907e-09
9.2100699e-09
1.6384743e-08
2.7348415e-08
4.3209517e-08
6.5836306e-08
9.6705828e-08
1.4421909e-07
1.9187919e-07
2.7012553e-07
3.3432271e-07
4.4583616e-07
5.2760104e-07
6.6941254e-07
7.6821359e-07
9.2487301e-07
1.0728596e-06
1.2238339e-06
1.4283812e-06
1.581512e-06
1.8393739e-06
2.031357e-06
2.3064925e-06
2.5809674e-06
2.8378019e-06
3.2960767e-06
3.636151e-06
4.1130241e-06
4.5816755e-06
5.0163553e-06
5.8185867e-06
6.473897e-06
7.4612115e-06
7.9108449e-06
9.1989842e-06
9.5133226e-06
1.0774195e-05
1.1027408e-05
1.2095306e-05
1.2710319e-05
1.3392155e-05
1.3494224e-05
1.4851482e-05
1.4605121e-05
1.3852794e-05
1.3984981e-05
1.4324538e-05
1.4246885e-05
1.3292856e-05
1.3544372e-05
1.2322393e-05
1.2514287e-05
1.2560978e-05
1.0219462e-05
1.0332399e-05
1.0315685e-05
9.0711135e-06
7.4736079e-06
8.3220111e-06
6.977988e-06
7.322701e-06
6.2987901e-06
7.8764013e-06
7.0553954e-06
4.3336002e-06
4.6267816e-06
3.8901284e-06
3.5513821e-06
2.924882e-06
2.8738245e-06
2.5793957e-06
6.9131932e-10
9.7506924e-10
2.3886312e-09
5.8212e-09
1.2368338e-08
2.3309897e-08
4.051979e-08
6.5943595e-08
1.0141478e-07
1.5237813e-07
2.1864808e-07
3.1179823e-07
4.064452e-07
5.4762695e-07
6.6474836e-07
8.6171561e-07
1.0023696e-06
1.2479493e-06
1.4203801e-06
1.7224533e-06
1.9387292e-06
2.2983195e-06
2.5992408e-06
2.9629192e-06
3.5228004e-06
3.9046718e-06
4.5558654e-06
5.0434145e-06
5.8322855e-06
7.1129704e-06
7.7986944e-06
9.0641681e-06
9.7664953e-06
1.1298688e-05
1.1746028e-05
1.2966591e-05
1.3500679e-05
1.3936897e-05
1.5160387e-05
1.4308403e-05
1.5155026e-05
1.3197459e-05
1.4386675e-05
1.2243107e-05
1.2484962e-05
1.1007553e-05
1.2714406e-05
7.3729255e-06
7.8071406e-06
5.9501859e-06
7.2975994e-06
5.0450201e-06
6.0516807e-06
5.272755e-06
3.8577506e-06
5.507827e-06
4.0802082e-06
2.7026127e-06
4.7648456e-06
4.9852543e-06
2.9433756e-06
2.2168453e-06
3.0689224e-06
2.7110453e-06
2.4819974e-06
2.4378009e-06
4.0000548e-06
1.9510397e-06
1.2485286e-06
1.334275e-06
1.3521797e-06
1.3431601e-06
1.2198786e-06
1.155433e-06
1.1059982e-06
6.7152291e-10
1.9064887e-09
6.1166466e-09
1.4834766e-08
3.0562008e-08
5.5584185e-08
9.3601026e-08
1.4810924e-07
2.2063598e-07
3.3081488e-07
4.5856008e-07
6.0990938e-07
8.0938813e-07
1.0092197e-06
1.2489672e-06
1.5665979e-06
1.8218638e-06
2.2724457e-06
2.5845558e-06
3.1950411e-06
3.6248095e-06
4.4178926e-06
4.9663854e-06
6.1168086e-06
7.2255859e-06
8.0699334e-06
9.6870899e-06
1.0675072e-05
1.2100526e-05
1.3179193e-05
1.3571445e-05
1.4545963e-05
1.4300688e-05
1.4604815e-05
1.2827423e-05
1.2889763e-05
1.2045069e-05
1.0890547e-05
8.6325499e-06
8.1815078e-06
5.9855403e-06
5.6822196e-06
6.2421284e-06
4.3782588e-06
4.8683023e-06
4.4303759e-06
3.4525767e-06
1.932603e-06
2.0857798e-06
2.5301337e-06
2.5364089e-06
1.766239e-06
1.9773354e-06
1.6839819e-06
1.5658973e-06
2.8351252e-06
2.0007144e-06
1.6882398e-06
3.9432796e-06
3.2596503e-06
1.5330897e-06
1.4197486e-06
3.2006515e-06
2.2631815e-06
1.982884e-06
2.200407e-06
2.7128916e-06
1.1858022e-06
9.733853e-07
1.0516262e-06
1.1795465e-06
1.302206e-06
1.2911956e-06
1.2293178e-06
1.1242599e-06
6.1301267e-10
4.8210168e-09
1.536764e-08
3.5726382e-08
7.0544702e-08
1.2339533e-07
2.0125849e-07
3.1010815e-07
4.4551145e-07
6.6583538e-07
8.5666501e-07
1.1553645e-06
1.4616018e-06
1.8039527e-06
2.3180104e-06
2.7704022e-06
3.3466434e-06
4.2418363e-06
4.8413217e-06
6.3736267e-06
7.2501774e-06
9.1676191e-06
1.012869e-05
1.1961787e-05
1.2459794e-05
1.3138866e-05
1.425591e-05
1.4074521e-05
1.3304568e-05
1.1897332e-05
1.091183e-05
9.9151209e-06
7.9309796e-06
6.3317707e-06
5.1366767e-06
5.2032868e-06
4.887168e-06
3.5041382e-06
2.4213189e-06
2.3420299e-06
1.849759e-06
2.0622749e-06
2.0077577e-06
1.8852041e-06
2.7608688e-06
2.3544814e-06
1.3114497e-06
1.273764e-06
1.4455298e-06
1.489696e-06
1.4996659e-06
1.2135979e-06
1.1419644e-06
1.1573974e-06
1.2194525e-06
2.0246268e-06
1.537142e-06
1.5465188e-06
2.0798275e-06
1.8485123e-06
1.2988229e-06
1.3174085e-06
1.7360907e-06
1.9742485e-06
1.8755654e-06
1.8030761e-06
1.9422385e-06
1.0250247e-06
9.7049443e-07
9.9107569e-07
1.2145199e-06
1.4040803e-06
1.3843726e-06
1.3551212e-06
1.1770564e-06
1.3053912e-09
1.205849e-08
3.6473417e-08
8.0696389e-08
1.5183153e-07
2.5494729e-07
4.0390137e-07
5.968824e-07
8.4390672e-07
1.212182e-06
1.5404476e-06
2.079911e-06
2.5643427e-06
3.3611465e-06
4.2406671e-06
5.1349649e-06
6.7016471e-06
8.3301274e-06
9.6368241e-06
1.1940589e-05
1.2390144e-05
1.4021246e-05
1.3319407e-05
1.2614647e-05
1.0855e-05
9.9410648e-06
8.203613e-06
8.2765167e-06
5.0490192e-06
4.3299424e-06
3.8237902e-06
3.0025466e-06
2.3339032e-06
1.6317205e-06
1.7036947e-06
2.4730841e-06
1.6454774e-06
1.3879722e-06
1.2927174e-06
1.1717513e-06
9.8373261e-07
1.1795716e-06
1.4326282e-06
1.2062026e-06
1.3627737e-06
1.3046033e-06
1.1385637e-06
1.1813263e-06
1.5909948e-06
1.6621306e-06
1.4987636e-06
1.0676884e-06
1.0331654e-06
1.295417e-06
1.2828396e-06
1.6780407e-06
1.4931845e-06
1.5103654e-06
1.9130578e-06
1.5037602e-06
1.5341877e-06
1.3581554e-06
2.35895e-06
1.4494945e-06
1.4938557e-06
1.5253287e-06
1.4842345e-06
9.7148694e-07
1.0238188e-06
1.066093e-06
1.2411665e-06
1.4830575e-06
1.5333299e-06
1.3128607e-06
1.1486582e-06
6.6222269e-10
2.8376615e-08
8.1055146e-08
1.7034012e-07
3.0510961e-07
4.9228793e-07
7.5885461e-07
1.0763573e-06
1.5434849e-06
2.1070978e-06
2.7296086e-06
3.7249324e-06
4.7226479e-06
6.5528946e-06
8.2185247e-06
1.0336405e-05
1.176324e-05
1.264021e-05
1.3100287e-05
1.2686701e-05
1.1428665e-05
8.9189296e-06
6.7963782e-06
5.0038155e-06
4.0861399e-06
3.8408749e-06
2.8351107e-06
3.045718e-06
1.4578614e-06
1.4794545e-06
1.4635858e-06
8.5741303e-07
8.4924794e-07
7.1748751e-07
7.9598066e-07
1.5914733e-06
1.1851698e-06
1.4603693e-06
1.4105254e-06
1.1492726e-06
9.9094562e-07
9.9638022e-07
1.19627e-06
1.4083149e-06
1.9714294e-06
1.3919724e-06
1.0218944e-06
1.0451348e-06
1.2832103e-06
1.406625e-06
1.2399744e-06
1.2202793e-06
1.095344e-06
1.2034327e-06
1.192147e-06
1.6873636e-06
1.4980097e-06
1.5461086e-06
1.6294805e-06
1.4514739e-06
1.6592775e-06
1.8432899e-06
1.7841973e-06
1.4233291e-06
1.6977952e-06
1.3582938e-06
1.2777914e-06
9.6627962e-07
1.0362782e-06
1.0557619e-06
1.126101e-06
1.3442164e-06
1.6224963e-06
1.5499616e-06
1.4208316e-06
5.0942558e-09
6.4335702e-08
1.7002567e-07
3.3670236e-07
5.7394446e-07
8.9329404e-07
1.3287566e-06
1.8989156e-06
2.7412875e-06
3.6846213e-06
5.0092586e-06
7.1502291e-06
9.3287701e-06
1.1539155e-05
1.2722775e-05
1.2726293e-05
1.1679328e-05
9.1460156e-06
7.5681972e-06
5.8056545e-06
4.9925205e-06
2.6927283e-06
2.1010045e-06
1.6883681e-06
1.5976358e-06
1.8612052e-06
1.114597e-06
8.3786462e-07
8.0440152e-07
8.8448162e-07
5.4728531e-07
4.6933959e-07
8.823114e-07
5.6339164e-07
5.7085334e-07
1.3642479e-06
6.1175936e-07
9.5526309e-07
1.49496e-06
1.1621965e-06
1.0635337e-06
9.3134321e-07
1.2624649e-06
1.2098439e-06
2.0646801e-06
1.4994356e-06
1.1419044e-06
1.0092074e-06
1.248563e-06
1.3304383e-06
1.2266687e-06
1.5670491e-06
1.2694008e-06
1.225132e-06
1.1663103e-06
1.4863446e-06
1.7293589e-06
1.5858828e-06
1.51095e-06
1.413724e-06
2.1188726e-06
1.6548196e-06
1.6804287e-06
1.61368e-06
1.5758511e-06
1.2347983e-06
1.0935534e-06
1.0090662e-06
1.0431818e-06
1.0486004e-06
1.1093997e-06
1.3534661e-06
1.5219187e-06
1.6750795e-06
1.5260939e-06
1.7467151e-08
1.381418e-07
3.3628076e-07
6.2464631e-07
1.0184332e-06
1.5483058e-06
2.284342e-06
3.3667619e-06
4.9044881e-06
6.933155e-06
9.9322059e-06
1.1584005e-05
1.2346018e-05
1.1966076e-05
9.3988923e-06
6.3507166e-06
4.6965535e-06
3.478847e-06
3.0026019e-06
2.4282761e-06
2.4726856e-06
1.0911874e-06
7.233404e-07
8.1401792e-07
9.2539225e-07
1.1408028e-06
7.0101817e-07
6.055344e-07
8.0596218e-07
7.8412563e-07
4.2190493e-07
5.7676763e-07
6.0455406e-07
4.632654e-07
5.0851775e-07
1.0079695e-06
5.7268136e-07
7.1153951e-07
1.7594179e-06
1.1769317e-06
8.2653236e-07
9.828306e-07
1.3523309e-06
1.0558331e-06
1.1890102e-06
1.1522734e-06
9.0653486e-07
9.4229125e-07
1.4816119e-06
1.501203e-06
1.4448501e-06
1.2317839e-06
1.1989029e-06
1.0861342e-06
1.1850535e-06
1.5329526e-06
1.6406389e-06
1.5621995e-06
1.3651725e-06
1.4226704e-06
2.6116301e-06
1.9985279e-06
2.5096885e-06
1.8481882e-06
1.5763034e-06
1.2792998e-06
1.0662211e-06
1.0911276e-06
1.1220966e-06
1.1024652e-06
1.1506818e-06
1.4213973e-06
1.3698732e-06
1.4443785e-06
1.4021401e-06
4.7970389e-08
2.8024015e-07
6.2548858e-07
1.0929621e-06
1.7295838e-06
2.6280315e-06
3.9866351e-06
6.2218106e-06
9.5067069e-06
1.0903121e-05
1.2090764e-05
1.0856923e-05
7.2918176e-06
5.4976911e-06
3.2255927e-06
2.033022e-06
1.5754319e-06
1.4865044e-06
1.1573152e-06
9.54668e-07
9.9153388e-07
9.7300803e-07
5.2780073e-07
6.8265466e-07
8.9619159e-07
7.8271253e-07
8.2861837e-07
5.7584597e-07
7.422933e-07
7.3581812e-07
5.0344892e-07
7.4114161e-07
5.1893025e-07
4.111201e-07
6.0293164e-07
8.1117367e-07
5.7974021e-07
7.237813e-07
7.8545046e-07
9.0503293e-07
8.0289998e-07
9.724312e-07
1.09591e-06
9.6934893e-07
1.2273353e-06
1.1145792e-06
9.1476546e-07
9.2951766e-07
1.1788988e-06
2.0376204e-06
1.5926795e-06
1.6442385e-06
1.1633454e-06
1.0050586e-06
1.0978166e-06
1.6015741e-06
1.5018667e-06
1.22242e-06
1.3490399e-06
1.7024442e-06
2.410657e-06
2.3348626e-06
1.7818249e-06
1.6610787e-06
1.6610055e-06
1.2783794e-06
1.1253715e-06
1.1076877e-06
1.1605214e-06
1.1866865e-06
1.2489774e-06
1.3242259e-06
1.3319799e-06
1.3683856e-06
1.3991728e-06
1.174974e-07
5.3728699e-07
1.0993069e-06
1.8260568e-06
2.8790444e-06
4.5144089e-06
7.3992651e-06
1.0257199e-05
1.1976161e-05
1.0249474e-05
7.0470018e-06
4.7537433e-06
2.720702e-06
2.1202443e-06
8.9795619e-07
6.0436432e-07
5.1760402e-07
7.419433e-07
6.8189804e-07
5.1752545e-07
5.0325063e-07
4.7572194e-07
4.3323595e-07
5.0657417e-07
7.1176941e-07
7.3518144e-07
7.0683702e-07
7.1804043e-07
8.0727594e-07
7.5607409e-07
6.2783508e-07
7.0524555e-07
5.08879e-07
4.0690725e-07
5.1100699e-07
7.4250712e-07
5.8152847e-07
5.9883745e-07
7.3755011e-07
8.4939104e-07
8.0680253e-07
7.9755797e-07
1.5148459e-06
1.3368646e-06
1.2880472e-06
1.2015461e-06
9.062555e-07
8.7260821e-07
1.0490954e-06
2.6713603e-06
1.8859068e-06
1.3398306e-06
9.9565752e-07
1.0205005e-06
1.1471453e-06
1.5661742e-06
1.4203931e-06
1.251983e-06
1.457414e-06
1.9592718e-06
1.7004901e-06
2.0171301e-06
1.4723184e-06
1.4667961e-06
1.5623631e-06
1.3825256e-06
1.3085864e-06
1.080859e-06
1.180368e-06
1.2255159e-06
1.3146184e-06
1.3235833e-06
1.2827566e-06
1.3140141e-06
1.5292951e-06
2.6555849e-07
9.7563093e-07
1.843391e-06
2.9657745e-06
4.8616785e-06
8.2598653e-06
1.0218664e-05
1.0332215e-05
7.5992694e-06
4.6975795e-06
3.1108509e-06
1.5841096e-06
8.6923415e-07
6.3760805e-07
3.4435425e-07
2.7835103e-07
2.8197157e-07
4.2237598e-07
5.0832412e-07
4.5075297e-07
4.7667742e-07
4.3079928e-07
4.3449799e-07
4.5756488e-07
7.8172475e-07
1.2493512e-06
5.3373725e-07
1.0541775e-06
8.3328335e-07
7.6193611e-07
6.2293303e-07
5.5400229e-07
4.9012159e-07
4.2332674e-07
4.4755983e-07
6.744963e-07
5.5775217e-07
5.8201338e-07
9.5166606e-07
6.9286805e-07
6.1706875e-07
7.0119907e-07
2.7363798e-06
1.8220452e-06
1.0398325e-06
9.2053188e-07
8.7560673e-07
8.7525195e-07
1.3181398e-06
1.4594262e-06
1.7830559e-06
1.2506304e-06
9.9355609e-07
1.0531848e-06
1.1454108e-06
1.3607512e-06
1.4194754e-06
1.316419e-06
1.3417619e-06
1.7676971e-06
1.7934711e-06
1.986745e-06
1.5733923e-06
1.4933248e-06
1.444877e-06
1.3901946e-06
1.197321e-06
9.7385789e-07
1.2022745e-06
1.243744e-06
1.4081307e-06
1.4092253e-06
1.3682642e-06
1.4877802e-06
1.7213762e-06
5.6191732e-07
1.6887322e-06
2.9854028e-06
4.8236976e-06
8.6767884e-06
1.0323347e-05
8.6088139e-06
5.4330301e-06
3.3160244e-06
1.7082648e-06
1.0798226e-06
4.477162e-07
3.0036981e-07
2.6787825e-07
3.0065904e-07
2.4167738e-07
2.4405113e-07
3.1461188e-07
4.1900537e-07
4.2368003e-07
4.529905e-07
4.2844618e-07
4.6177427e-07
4.3879539e-07
7.4942788e-07
1.3017338e-06
6.2421381e-07
1.6605336e-06
8.7126415e-07
7.4590455e-07
6.3895029e-07
5.5005466e-07
4.7831058e-07
4.3608635e-07
4.4893476e-07
6.6278704e-07
5.5508892e-07
6.3241029e-07
1.1922548e-06
5.9514929e-07
5.8404853e-07
9.0091143e-07
1.336058e-06
1.1477565e-06
8.2987211e-07
8.0210491e-07
8.8768439e-07
8.8151873e-07
1.2266292e-06
1.3913658e-06
1.3822091e-06
1.0540418e-06
1.0559056e-06
1.0582978e-06
1.2381361e-06
1.3702263e-06
1.4383524e-06
1.2470625e-06
1.4840625e-06
1.6227483e-06
1.6012891e-06
1.8726599e-06
1.6110782e-06
1.404622e-06
1.6298463e-06
1.1127473e-06
1.0905126e-06
9.9556732e-07
1.2747428e-06
1.3283036e-06
1.4110621e-06
1.4202023e-06
1.5317623e-06
1.7435665e-06
1.7856642e-06
1.1262251e-06
2.8017237e-06
4.7735232e-06
8.2008822e-06
9.9928672e-06
7.4909081e-06
4.9696648e-06
2.6476392e-06
1.0935908e-06
5.4018355e-07
3.8536774e-07
2.3420758e-07
1.9431852e-07
2.3850421e-07
2.9827175e-07
2.3734457e-07
2.4132622e-07
2.7917967e-07
3.9203102e-07
4.0971647e-07
4.1189082e-07
4.286991e-07
4.4385569e-07
4.6133078e-07
6.8507331e-07
8.5866145e-07
6.2701191e-07
2.0198844e-06
9.074124e-07
6.8680523e-07
6.9006301e-07
5.6839359e-07
5.1106062e-07
4.5814779e-07
4.6642155e-07
6.6920241e-07
5.5984354e-07
7.4247481e-07
6.6007142e-07
5.637316e-07
5.7395565e-07
1.0332996e-06
1.180991e-06
9.9132565e-07
7.5782961e-07
7.9895001e-07
9.5064777e-07
8.5850259e-07
1.1373184e-06
1.6876691e-06
1.3403639e-06
1.0689315e-06
9.5189264e-07
9.7515199e-07
1.1403008e-06
1.6374996e-06
1.4734091e-06
1.1433355e-06
1.1999703e-06
1.5588576e-06
1.430521e-06
1.8005578e-06
1.5877926e-06
1.186724e-06
1.3418834e-06
9.1671692e-07
1.0758388e-06
1.0433712e-06
1.436512e-06
1.5593843e-06
1.5294133e-06
1.5690196e-06
1.8306132e-06
1.8039156e-06
1.6919686e-06
2.163414e-06
4.4908299e-06
7.8124246e-06
9.2937774e-06
6.8471827e-06
4.0977541e-06
2.3989529e-06
9.3442325e-07
3.5626638e-07
1.8719794e-07
1.9487904e-07
2.1685495e-07
1.9139728e-07
2.7143776e-07
3.0939897e-07
2.3899365e-07
2.4521606e-07
2.6915198e-07
3.7563683e-07
3.7913345e-07
4.0644417e-07
4.1042917e-07
5.21831e-07
4.5433481e-07
7.8452134e-07
7.7385921e-07
6.1932558e-07
1.7973917e-06
9.0353135e-07
6.4421034e-07
6.8310555e-07
5.7694852e-07
5.5529316e-07
5.0179786e-07
4.6290178e-07
6.4487334e-07
5.8344805e-07
7.8081473e-07
6.1243833e-07
5.8689943e-07
6.1131009e-07
1.0507596e-06
1.171035e-06
9.1783018e-07
7.52858e-07
8.3801578e-07
1.0551609e-06
8.5276594e-07
1.0953373e-06
1.4195838e-06
1.1630664e-06
1.0614471e-06
9.0758814e-07
9.523256e-07
1.2475389e-06
1.8852817e-06
1.4480382e-06
1.2093638e-06
1.4728377e-06
1.4314378e-06
1.392936e-06
1.7837751e-06
1.4713551e-06
1.1079339e-06
1.1669181e-06
9.4630597e-07
1.1610542e-06
1.1949261e-06
1.6103021e-06
1.79386e-06
1.6076835e-06
1.669328e-06
1.9751351e-06
1.6920311e-06
1.5846566e-06
3.8190776e-06
7.1939615e-06
9.6351628e-06
7.2241165e-06
4.0269396e-06
1.815713e-06
8.8428532e-07
3.3777899e-07
2.6112821e-07
1.3511921e-07
1.5706182e-07
2.142848e-07
2.000882e-07
2.8007695e-07
3.1349716e-07
2.3763629e-07
2.4865251e-07
2.6687671e-07
3.5848333e-07
3.6056201e-07
4.9083181e-07
4.1528653e-07
5.6849177e-07
4.1490221e-07
9.1165886e-07
7.7703728e-07
6.3892501e-07
1.0015007e-06
7.7524134e-07
6.461096e-07
6.0711651e-07
6.0228507e-07
5.9622538e-07
5.1639898e-07
4.3935168e-07
6.152451e-07
5.9659702e-07
6.8141213e-07
6.1327954e-07
5.8612182e-07
6.259533e-07
8.1334619e-07
8.4242835e-07
9.7461616e-07
9.5273139e-07
1.3447658e-06
1.2081087e-06
8.3241615e-07
1.1536948e-06
1.1756258e-06
1.0387292e-06
9.4690575e-07
8.8054931e-07
1.089694e-06
1.3925124e-06
1.8202766e-06
1.4819262e-06
1.2057423e-06
1.2406643e-06
1.3793892e-06
1.4149379e-06
1.7312854e-06
1.4596036e-06
1.1104225e-06
1.270886e-06
8.712795e-07
9.2332441e-07
1.3820007e-06
1.6833189e-06
1.9016352e-06
1.537659e-06
1.6552797e-06