/*--------------------------------*- C++ -*----------------------------------*\
| =========                 |                                                 |
| \\      /  F ield         | OpenFOAM: The Open Source CFD Toolbox           |
|  \\    /   O peration     | Version:  2.3.0                                 |
|   \\  /    A nd           | Web:      www.OpenFOAM.org                      |
|    \\/     M anipulation  |                                                 |
\*---------------------------------------------------------------------------*/
FoamFile
{
    version     2.0;
    format      ascii;
    class       volScalarField;
    location    "2.7e-05";
    object      p_rgh;
}
// * * * * * * * * * * * * * * * * * * * * * * * * * * * * * * * * * * * * * //

dimensions      [1 -1 -2 0 0 0 0];

internalField   nonuniform List<scalar> 
7500
(
997.31443
-15520.569
-22039.045
-6437.9805
2819.1896
11435.909
3548.4403
3602.498
829.06674
1488.799
1150.5731
1011.4046
2015.38
1997.9438
3636.0244
-109.82883
2884.368
-3448.1403
4272.856
-3379.5351
6725.9629
-2769.8322
3833.3122
1098.0854
497.41946
5404.5237
-4525.5832
4318.2939
-3627.8823
6871.8694
-216.50348
3529.2582
1861.4568
4144.9454
1363.6785
5048.1066
2516.0243
5561.4204
2574.9271
325.17348
5012.6621
-993.36919
5447.6674
-906.40995
4167.1454
1000.8117
1866.0428
-176.93998
934.81532
8646.1656
270.62149
-5819.196
-11428.224
2375.1116
12903.823
8308.9894
11073.645
4395.3576
2700.385
19875.166
21338.448
4252.3347
187.8521
8692.6352
18118.465
13918.554
9460.7657
17075.356
17299.901
14265.296
20393.09
18909.203
10785.223
3444.3057
-1925.6541
25.74616
-14732.657
-20784.556
-6524.802
2114.5243
10631.938
3909.4302
3449.3264
1333.0286
1198.3385
1433.803
730.45574
2123.5545
1985.3981
3498.5468
126.1259
2603.7806
-3018.2817
3747.6063
-2882.4211
6156.4766
-2148.8123
3353.402
1352.2581
514.65726
5133.1643
-4224.7112
4040.7417
-3258.4377
6347.434
349.67244
2934.9642
2539.3805
3558.5721
1686.3135
5059.2233
2372.765
5849.7461
2129.507
860.51854
4377.2664
-518.72071
5231.9927
-647.83203
3599.3766
1322.7459
1940.6184
-60.499999
1500.5346
7291.3386
108.91084
-5533.6764
-10258.26
1882.8686
12050.398
8915.3056
10601.944
4986.9537
3831.532
18764.463
19801.548
5043.9248
2052.3941
8296.3135
16288.577
14007.574
10602.574
17246.222
16963.99
14322.493
20743.915
18624.769
10283.782
3541.9963
-1774.2483
-1408.0356
-14056.396
-18852.08
-6586.088
2068.1829
9142.4308
4271.4598
3300.1601
1687.2577
1168.6868
1516.689
692.64235
2011.2628
2134.3489
3177.5237
573.25227
1989.0844
-2262.4428
2956.5345
-2022.0884
5359.7531
-1642.7441
3241.8449
1146.2521
907.89894
4615.7153
-3705.6874
3268.4749
-2119.3342
5097.5279
1447.1233
2134.7954
2833.2872
3674.6921
1463.6974
5538.2503
1763.3033
6197.3384
1884.2473
1410.1504
3462.677
457.47153
4486.7672
45.844161
3004.8831
1259.8543
2095.6624
-239.47138
3115.9363
5643.1483
-336.86852
-5757.961
-8566.9031
2066.4431
10404.681
9640.5776
9793.9572
5363.3281
5982.3892
17438.644
17536.088
6000.6755
3926.5973
8311.4415
14641.54
13742.883
11794.724
16901.739
16812.231
15309.487
20665.992
18088.398
9935.989
3324.3315
-1638.6458
-3262.5705
-13736.407
-16392.061
-6524.4671
2240.3801
7607.5629
4460.8111
3095.6421
2159.2316
1133.7958
1598.507
790.8898
1724.4693
2534.4279
2541.5107
1327.139
1105.0573
-1381.2686
2183.7681
-1302.8246
4814.8038
-1304.8138
3088.5375
1165.0869
1140.7973
3964.6564
-2840.4072
2083.1052
-644.37908
3673.1182
2567.5303
1467.4653
2936.3902
3844.1722
1354.737
5833.9593
1533.862
6142.5995
1371.9833
2579.2327
2285.6121
1682.1075
3335.8449
987.09626
2512.6613
980.58114
2153.0311
-455.89714
5000.4288
4090.9185
-870.64167
-6389.3667
-6505.4618
2231.1212
8750.2001
10535.367
8413.8749
6117.3458
8753.8993
15350.795
14886.979
7463.694
5906.3104
8404.1012
12940.605
13030.541
13329.604
16765.969
16552.316
16652.265
20109.313
17241.301
10043.723
3073.2411
-1607.2338
-5383.466
-13529.873
-13836.223
-6135.1754
2348.4063
6144.0585
4600.5335
2803.3023
2606.29
1267.6946
1526.9518
1046.5365
1341.487
2925.3729
2040.8715
1796.4082
620.04871
-907.68127
1651.2476
-706.08223
4203.4776
-669.99946
2625.3588
1461.5127
1269.1703
3159.0669
-1888.727
1123.7267
488.07296
2515.1243
3465.5163
842.74576
3415.256
3362.1449
1808.4223
5863.2516
1377.8321
6204.1203
498.42259
3720.2398
1559.5584
2805.9754
2070.3295
2030.0348
1994.7671
1007.7968
1622.747
-336.75797
6659.3437
2671.9929
-1539.6771
-7060.8862
-3760.7036
1711.3801
7402.1456
11517.063
6399.5032
7640.6814
11647.954
12341.255
12416.909
9340.0858
7438.3844
8720.3941
11728.499
11882.56
14771.301
16761.456
16507.701
18301.49
19247.899
15991.84
10150.185
2849.8262
-1515.87
-7517.0018
-13189.056
-11553.356
-5478.191
2381.9734
4753.6327
4590.5459
2701.7733
2716.8406
1673.271
1349.176
1245.6711
1192.6896
2876.9274
2026.1146
1843.6668
444.33013
-539.30737
1085.1945
-90.482092
3523.3382
-8.1375265
2302.5299
1714.3571
1273.0896
2588.2951
-1483.2603
882.11791
1231.2515
1383.078
4435.4005
-17.197043
4169.4915
2821.9557
2303.4572
5934.7042
1158.0355
5950.7508
278.37971
3957.5681
1332.1778
3984.5776
756.58434
3217.2432
1297.2203
1389.7993
633.5801
304.54496
7682.2505
1424.6379
-2481.0083
-7485.8505
-620.47215
559.67467
6588.0381
12002.707
4669.7885
9915.6225
13455.586
8958.3711
10929.954
11586.511
7815.2798
8619.4937
11710.722
11070.613
15656.344
16573.988
16776.132
20005.057
18434.057
14655.77
9896.8549
2674.7098
-1286.461
-9470.9186
-12743.523
-9556.3827
-4772.6426
2300.5821
3666.0866
4215.3717
2899.8728
2613.4191
2093.0398
1298.2724
1273.2449
1252.5419
2646.5889
2054.2061
1894.9085
318.44414
-282.36784
833.39647
100.68852
3165.191
410.1005
2111.4237
2165.534
874.55453
2392.8799
-1485.1496
963.47783
1833.145
464.01675
4975.141
-509.3767
4480.9961
2756.5817
2987.3388
5504.1902
1600.7833
4782.8566
775.49243
3921.328
885.77826
5187.2234
-153.58495
4100.0238
652.30521
1775.5359
-263.3528
1632.819
7447.1732
347.73907
-3398.8726
-7236.7133
1909.0036
-751.9592
6671.2971
11212.695
4530.8311
12573.971
12956.43
5832.1392
10829.622
14043.572
7385.2221
7863.6643
12163.855
10959.261
16292.893
16526.883
17621.735
20842.939
17712.59
13807.217
9157.3177
2554.9232
-861.0607
-11208.897
-12278.387
-7800.571
-4087.3829
2011.0383
2981.4189
3611.9265
3169.3211
2542.0221
2436.6195
1278.1717
1387.813
1181.7495
2617.8764
1901.1442
1888.6343
450.44432
-424.08581
1048.1237
-0.79216404
2895.9608
822.48968
1865.5298
2759.1469
358.81925
2112.6289
-1384.2572
1163.9412
2101.0498
267.30736
4567.6674
-400.32024
4484.9176
2611.5275
4357.6279
4447.8811
2466.8084
3393.4401
1155.122
4127.2672
540.38845
5573.0502
-82.48893
4490.3697
-53.893218
1887.6382
-402.69415
3570.9602
5789.236
-932.93915
-4054.3419
-5719.3212
2999.7064
-1709.3709
7339.7938
8904.1745
6898.1909
14938.573
9851.8683
3786.5835
11979.262
15538.146
6402.1556
7666.0331
12068.611
10970.298
16792.785
16854.124
19367.028
20595.934
17098.854
13930.471
8100.7193
2163.2581
-284.19161
-12779.321
-11815.91
-6293.3686
-3396.3354
1544.436
2545.3287
3076.9848
3313.7693
2581.9844
2745.7821
1141.0322
1705.8822
962.74316
2653.9589
1863.9066
1634.2844
754.74878
-674.14258
1243.5005
55.612577
2495.5617
1217.2805
1866.8056
3057.4943
54.569578
1579.4101
-1232.2528
1645.457
2084.7168
536.4797
3709.6873
-317.77145
4513.4251
2579.4966
5634.8423
3676.4977
2982.9979
2239.1963
1579.0433
3938.2117
1015.5714
5044.9766
662.46216
4746.737
-763.12997
1063.9831
829.90192
5961.7435
3045.582
-2522.2626
-4893.1692
-2822.0753
2277.1267
-1624.9705
7776.536
5669.7372
12484.592
16130.018
4304.7267
3749.5145
14552.305
14723.593
4757.8512
8790.4178
11328.205
11209.741
16890.507
17508.612
21566.339
19159.707
16851.911
14685.45
7379.3912
1814.8469
313.26111
-14225.559
-11328.347
-5035.5543
-2743.5163
1061.2633
2194.7226
2674.2587
3388.0167
2643.3531
3035.1986
983.83137
1955.858
930.59582
2490.1761
1997.1707
1408.1139
826.08516
-679.13819
1219.2551
180.30703
2121.7826
1494.961
2253.1733
3065.0798
-230.30418
982.22162
-1092.3285
2126.7223
2301.3983
796.53565
2869.0755
-450.24009
4318.7853
3138.2212
6285.0623
3540.2464
3069.7925
1184.3716
2268.3561
3368.6178
1790.6448
4064.708
1960.5794
4781.4984
-1123.38
-632.46962
3054.7298
8670.0702
-296.7158
-4130.1033
-5784.3993
412.55394
-58.46878
-252.44432
7244.0368
2713.2955
20704.286
15592.916
-2527.9376
5616.293
18286.069
11639.248
3333.1499
10309.265
9609.9816
12045.521
16395.503
18990.809
23586.535
16469.181
17186.686
15085.533
6906.6258
2052.6788
895.16636
-15597.923
-10787.689
-3996.9171
-2199.7589
661.07948
1912.8018
2306.591
3490.4762
2692.015
3217.7603
1015.7349
1918.5862
1149.979
2226.8641
2053.477
1446.2289
648.86064
-544.72029
1154.1618
227.18086
1694.0628
1866.9029
2767.6749
3151.4599
-766.58147
335.88048
-735.5674
2209.4401
2985.3718
984.9992
2002.4457
-561.73618
3869.0878
3963.0317
6447.3685
4065.1329
2692.7261
463.99645
2809.7896
2905.1211
2495.6032
2436.1377
3614.5832
4812.0985
-1597.3976
-2097.539
5799.9517
10837.306
-3166.1938
-5941.3107
-6002.3347
2471.0862
-2809.5325
1390.6516
4740.1413
1559.7274
28272.877
13705.966
-7114.3397
8289.8591
20627.274
6670.3876
3493.8932
10239.424
7050.7977
12828.161
14638.003
21314.531
23732.872
14196.341
17589.95
14251.167
6656.1311
2244.6192
1498.5979
-16923.577
-10196.206
-3120.9026
-1796.1429
332.06728
1739.367
1943.6803
3593.5066
2802.7968
3195.5593
1251.235
1761.9682
1368.7676
2009.1363
2044.9897
1535.5735
521.74728
-447.93826
1110.5329
314.20682
966.4253
2559.0798
3156.3423
3494.042
-1489.1875
-436.01015
-100.41292
1730.0956
4124.519
1197.763
1109.3522
-764.72521
3447.9886
4643.7978
5996.6614
5188.9492
2080.9643
69.537666
3083.0112
2521.8324
2990.6785
672.97932
4513.1137
4610.7402
-2148.0716
-2904.7873
8737.1736
11454.043
-5015.7857
-7540.6756
-5702.3816
2008.4241
-4070.8891
957.90317
1502.6068
4265.6058
28224.961
11832.539
-4158.114
10125.95
19543.072
6051.8549
4068.1025
8248.5199
7192.1188
12175.174
13396.211
22946.332
22691.763
14271.851
17571.436
12939.134
6712.2952
2012.3945
1167.3783
-18191.64
-9560.4227
-2370.7427
-1509.9938
46.477115
1639.93
1645.3749
3645.4607
2981.6564
3044.6428
1508.834
1671.9542
1587.6194
1691.4739
2157.1572
1497.8451
478.35574
-346.03619
1085.3661
431.8233
-50.556036
3523.5204
3382.0273
4007.3575
-2307.883
-1158.2974
562.25587
685.22562
5410.9696
1643.899
237.747
-1058.0762
3020.6639
4948.5475
4960.1389
5849.9397
1842.8901
31.523053
2955.0439
2146.2323
2724.8515
-675.15521
4511.5728
2834.8338
-2528.5671
-1645.2354
10196.906
11162.398
-5420.8721
-7741.8733
-5210.5457
911.8076
-3752.3943
-88.085381
-825.21079
6463.0565
26779.747
8683.6742
-3614.0854
12281.589
19966.754
7250.5803
4981.7182
8378.193
7666.252
12534.346
12306.901
23492.43
23219.182
14865.515
18755.269
12128.38
6832.4588
2372.8814
1215.0993
-19386.081
-8872.8406
-1747.95
-1297.5903
-178.68157
1521.9377
1448.6717
3709.4816
3090.4816
2937.4247
1726.9682
1523.746
1982.7852
1253.6093
2278.8029
1504.3661
369.7986
-272.62573
1219.2213
361.58262
-1117.2173
4498.0903
3362.3059
4613.6829
-3234.4444
-1581.8423
879.2995
-748.53121
5885.8737
2464.4523
-592.9549
-1125.345
2398.7699
4532.9593
3396.0201
5018.1331
2889.5486
922.31272
2982.1659
2179.7493
2659.6727
-835.36423
4582.6089
1064.9494
-3809.0558
-1013.3706
11530.942
11925.373
-5258.4505
-7355.1771
-4621.804
1803.2482
-3353.1959
1175.1115
-1826.1721
7003.8981
30024.278
5717.3338
-1627.4128
14478.47
15758.124
6071.7404
6438.441
7421.291
7825.8912
12732.224
14229.534
22993.354
20941.464
14826.01
18448.227
12177.038
6632.8692
2395.6476
1558.5999
-20501.757
-8115.3705
-1266.9456
-1134.52
-300.66248
1331.5254
1297.2445
3908.9915
3042.233
2834.1434
2103.7367
1154.4859
2441.8657
1004.8599
2131.8806
1669.2699
243.0174
-367.07391
1466.7736
-55.448907
-2003.394
5219.6487
2810.6947
4727.8667
-3790.9875
-1743.7001
659.30292
-2466.5557
5088.8865
3098.1299
91.890467
-578.2293
2419.4248
4481.5781
2814.2155
3093.0505
3454.5676
2059.4614
3510.2035
2815.4371
3040.4413
162.56414
5251.8399
1235.7574
-4421.3843
-535.4636
11790.531
11013.688
-5805.5976
-7817.7896
-5630.9225
739.37623
-3462.2553
88.909767
-999.06309
6288.3466
25196.108
4627.49
-2684.3121
11554.848
16499.032
5506.6918
5387.766
7508.2941
6829.55
11968.688
12087.455
23136.972
19513.816
14401.544
18046.216
11980.061
6304.1385
2157.4758
1716.4434
-21521.129
-7293.1972
-921.23664
-1018.8595
-304.70927
1099.4364
1092.4579
4277.3278
2952.0895
2503.8363
2771.406
699.69564
2646.9859
1096.8424
1760.547
1653.8392
224.86768
-565.89751
1360.5207
-856.31235
-2596.4465
5646.574
1504.5048
3724.8706
-2923.2639
-1100.3238
581.54171
-2603.8503
4387.4666
2827.272
835.44156
357.1373
3017.927
4948.3274
3727.6849
2852.4624
3154.6863
2334.3016
2658.1254
2394.8708
1878.852
-798.21071
4798.3632
735.76877
-4060.3182
-1002.13
11129.273
9420.9404
-5799.5233
-7270.1283
-4785.7527
650.74232
-2750.8454
-254.79631
-3815.8352
5595.0588
31169.989
4810.4819
-2871.4932
12493.613
15594.112
3851.7641
6544.8625
8588.3386
6907.5124
11916.892
10843.986
21288.863
17583.869
13316.919
17400.707
11573.625
5762.1388
1927.6121
1990.5751
-22409.163
-6459.5471
-662.56077
-969.69605
-194.50697
866.82655
815.94263
4701.3984
2996.2322
1898.1088
3463.9604
469.76521
2370.3669
1256.0875
1554.0426
737.94699
383.44059
-759.64893
678.63621
-1929.3311
-1678.6155
6244.7682
1418.1333
2546.4372
-2374.6761
84.88387
789.69308
-1925.3987
4716.6558
2653.9801
527.66871
-163.1966
2601.0048
3913.6732
2791.1186
2914.707
3717.2028
2560.9987
2763.01
2679.7673
2307.4908
401.15837
4668.3259
-262.1148
-3663.0652
-1412.5981
10621.193
5743.2998
-7849.7886
-8592.4769
-5433.4705
662.8619
-3507.2531
-354.79353
-5743.7995
-764.26017
18239.81
7075.769
-1395.154
12973.348
14795.106
6155.4176
6695.9543
6559.4066
7298.5625
12512.422
10569.666
19751.09
17104.816
13096.804
16531.032
10948.022
5147.2408
1714.9521
2246.0503
-23196.666
-5671.6581
-458.23124
-1003.9279
42.418792
571.75401
622.55839
4931.4704
3279.1773
1180.2777
3704.5157
647.89139
1322.3052
1246.7907
1620.8244
-1058.0471
828.50105
33.151703
766.90033
-2751.8195
-892.5083
7097.069
2248.1484
2483.2574
-2721.2631
158.10038
76.319035
-3052.9328
4620.4102
2542.059
913.17527
143.2507
2817.9657
4199.6279
3299.9389
2448.0954
2517.8159
2579.6998
2456.7143
2814.2459
1514.3823
-747.21913
3987.1898
-903.33037
-2617.6404
-841.84123
9664.4167
3928.0072
-8901.3677
-8818.0241
-5938.7148
572.54913
-3794.9544
-553.21465
-7442.5188
-3004.9877
16226.456
9702.9797
1717.2333
13454.73
13053.063
6595.8251
8530.4058
6729.2668
6298.6966
12353.656
10146.011
19400.584
16402.554
12766.416
15582.121
10077.211
5001.0286
1848.6495
2338.536
-23948.513
-4937.6703
-351.53559
-1079.1998
378.41012
137.31391
675.99834
4707.7123
3835.9054
324.52276
3354.8318
1011.7401
-345.20306
1186.797
2470.0176
-1380.4936
899.34017
1034.6742
1394.3143
-2920.3872
-952.58151
6579.4865
1086.1096
2378.4587
-2660.3968
383.19785
504.52746
-2614.173
4769.2897
2495.3065
505.49464
-206.37657
2628.0559
3846.4347
3446.1749
1455.8767
1547.9995
2501.8132
2198.3871
2720.0357
1262.1944
115.88028
3427.4811
-1455.378
-1777.8525
-114.02586
8264.8245
3926.3681
-8934.562
-8615.2387
-6204.5316
-876.51941
-3471.6979
-1014.3935
-8392.2131
-5440.9899
14665.612
10070.914
3944.0868
12319.205
12153.554
6967.9644
8525.439
7296.6497
7951.1415
12924.267
10541.625
18606.584
15514.093
12413.881
14504.204
8931.3745
4700.2643
2195.2329
2557.0721
-24670.207
-4206.2343
-420.91632
-1099.5034
672.20985
-283.66557
777.87003
4069.5894
4393.9114
-593.39845
2580.7461
1873.4106
-401.10379
1096.2208
3357.9285
-922.20452
738.37031
498.29753
652.76465
-3252.1456
-891.51906
6970.8631
1227.6756
2363.053
-2625.1605
220.74846
-232.74569
-3109.4906
4478.4461
2186.7794
662.77799
-276.96113
2644.8629
3625.695
3368.0595
1580.5829
1000.3836
2460.352
1677.9623
1900.3532
582.83859
-844.55278
3338.7363
-1938.699
-1173.477
-52.587172
7825.5858
4244.3642
-8719.3143
-8316.4824
-6126.005
-785.77774
-2503.9065
-1939.9872
-7964.5507
-8275.2111
13225.065
10478.173
3624.8076
11788.29
11630.667
6870.6605
10732.014
6878.5551
5771.7142
12801.251
10715.64
17597.498
14839.342
12200.428
13668.711
7972.91
4806.8172
2686.626
2479.7143
-25297.588
-3410.8855
-681.49622
-1016.0267
734.64067
-327.10989
402.84149
3348.3708
4281.49
199.83257
2180.1171
2856.8902
165.92066
978.48183
2815.5908
-1426.6887
606.62719
834.50637
1075.4364
-3138.6468
-1023.4184
6747.0926
1110.8597
2344.4486
-2531.629
162.85995
-755.60137
-3588.1474
4050.3715
1586.189
290.56483
-426.62389
2450.4842
3352.901
2886.8918
1584.8199
658.95847
2431.2176
2012.0738
1784.2271
-13.048385
-350.38368
3553.3568
-1660.2738
-630.17967
-568.34111
7626.7186
2884.39
-9622.7269
-8290.9807
-6345.7774
-997.78854
-2420.9737
-2907.48
-6727.2126
-11103.906
11217.224
11020.669
3788.0317
10677.357
9063.4964
6967.4574
11556.212
6247.779
5924.5332
13390.341
11151.315
17423.815
14407.303
11911.613
13024.813
6992.6874
5393.7628
3610.5606
2223.8742
-25772.202
-2520.022
-995.94718
-884.36993
503.73914
116.48585
-438.54911
3067.7206
4237.6687
1373.6983
2213.7674
2490.9373
-191.84027
863.67717
3029.8762
-1308.7327
549.43418
705.03178
750.68174
-3191.7219
-964.34607
6527.616
1141.1717
2452.5529
-2340.9363
-27.812426
-1377.0865
-3992.5721
3488.5562
1419.2125
104.24902
-662.94775
2259.5032
3124.7356
2625.7396
1395.6012
825.43815
2519.6815
1630.9371
1861.3771
87.170397
-201.28457
3825.9554
-1107.7332
-396.99115
-1211.6789
7292.3893
827.39074
-10573.247
-8089.5195
-7841.8052
-1428.5977
-3354.0839
-2923.9718
-5061.0677
-15329.963
8012.9355
10386.48
4434.9937
10114.295
7999.3382
8415.0433
12290.635
5507.1115
6396.9021
13312.646
10863.231
16928.261
13521.906
11454.355
12745.814
6308.685
5385.7449
4096.9759
2190.6567
-26170.401
-1549.3873
-1054.8176
-796.96342
149.68442
453.29784
163.17589
3197.0922
4312.0217
1081.4817
2007.7174
2504.3649
-25.489961
815.59488
2860.8312
-1331.7882
562.90504
806.46875
748.17608
-3344.1846
-1250.9545
6036.4019
1082.0141
2538.0087
-2034.5597
-72.985461
-1669.085
-3950.006
2729.1441
1018.3302
-146.62436
-778.62622
2153.4647
2735.6028
2063.9793
1271.7249
1013.9684
2433.0327
1808.9733
1847.9695
68.920662
-206.33366
4133.9512
-771.53353
-156.63331
-1333.036
6774.4762
-720.07061
-10934.137
-7237.5344
-8118.1549
-2022.7812
-2968.5744
-2424.7846
-6180.1391
-17320.257
10742.466
11252.643
6029.2697
10535.261
7193.0649
8717.4399
12388.418
5570.1257
7914.8904
13051.167
10711.963
16965.755
12547.64
10855.939
12493.888
5811.1703
5088.0827
4332.8304
2304.2566
-26900.843
-567.04007
-498.32214
-798.99756
32.299436
526.06106
1194.5405
2997.9158
3877.3545
1076.4703
2059.5661
2438.8572
-88.639897
812.79614
2700.1765
-1333.9259
555.25679
746.02268
584.23603
-3451.9332
-1473.855
5577.9204
1044.6909
2567.0433
-1965.6573
-173.12305
-1961.1621
-3898.265
1633.6044
636.99072
-31.984173
-789.25414
2113.0687
2425.2317
1811.2757
1132.455
1149.4577
2137.8402
1285.6239
2211.5976
237.56352
-121.36102
4416.2763
-676.05521
237.1263
-997.00457
6625.5884
-2368.6604
-11746.722
-7166.0167
-6552.9437
-1772.299
-3197.9232
-2239.3603
-8639.5922
-10784.612
15242.519
13381.496
6999.5562
10076.423
6260.8941
6742.2348
11393.965
6387.6499
9496.3356
12335.701
10372.585
15998.222
11377.546
10180.41
12056.609
5225.3129
4859.5057
4474.4217
2425.4272
-28674.53
322.40615
644.53031
-820.21321
289.00079
521.26467
1029.947
3049.4249
3921.1632
1051.0585
2012.3204
2364.1319
-65.280821
800.88889
2493.0253
-1382.6197
524.27913
725.68282
467.2171
-3568.2927
-1701.3301
5068.0401
1002.6897
2592.4725
-1846.2602
-298.42562
-2205.4964
-3836.6339
335.29452
283.63562
73.03043
-706.62522
2052.291
2001.3799
1172.0207
998.21304
1520.7606
1990.0955
1262.3049
2207.615
221.92717
181.4204
4241.6134
-519.21421
705.69596
-1094.8716
6461.199
-4566.7893
-13178.352
-6248.2647
-5833.7982
-1577.5244
-2958.1311
-2315.3439
-11868.284
-5987.8421
16699.573
15132.874
7368.726
9499.1807
4779.9344
4981.8701
11657.434
6832.0089
9695.5336
11743.735
10226.471
15683.331
10790.155
9556.8647
11431.656
4526.2833
4766.666
4540.7254
2466.4737
-31262.477
815.50499
1310.4587
-625.99761
362.20141
353.58971
1007.5915
3039.3939
3878.8635
1049.7758
2026.5689
2264.9597
-100.14739
786.42496
2285.1333
-1433.8273
477.97406
656.55655
322.15103
-3648.6802
-1931.7308
4544.315
923.50138
2478.5246
-1696.7857
-462.88318
-2332.318
-3702.598
-566.0616
-27.004812
236.53995
-566.89993
1991.5006
1630.6058
793.5744
774.20436
1432.3393
2095.2832
1041.6147
1951.9425
135.25363
-342.47642
4199.5281
-286.03947
720.30241
-1151.1782
6120.4524
-5082.1265
-15368.417
-5715.2091
-5441.4147
-1337.1154
-3170.3755
-2694.1411
-14688.829
-7536.2414
16661.56
13100.994
7145.1494
9292.281
3196.4876
3249.0467
11942.672
6510.2454
9019.3979
11192.559
10638.267
15608.195
10669.428
9099.7766
10917.318
3781.0733
4366.6309
4422.629
2380.6168
-31118.251
-124.84106
794.8265
-291.4509
337.74326
310.40347
961.01148
3023.6539
3847.9261
1053.268
2021.2333
2150.9033
-122.87862
771.58722
2097.48
-1487.6456
414.63226
592.73573
173.10891
-3671.4333
-2067.373
4096.082
758.73022
2356.5979
-1522.0604
-635.71831
-2106.6443
-3186.5149
-812.6819
-368.57227
463.18796
-257.3228
1972.4619
1219.6492
389.32703
446.70803
1451.8047
1785.6408
845.25328
1984.1679
203.49151
-327.11354
3852.0802
-283.80201
662.13758
-1140.5216
6104.1671
-4193.4768
-16017.997
-4969.717
-5415.6282
-1913.4532
-3105.4879
-2872.0842
-14136.82
-8837.4884
16383.152
12549.95
8194.0567
8743.8873
852.81962
1110.129
11506.614
5657.5626
8982.0561
10921.807
10800.984
15634.062
10626.769
8697.1596
10408.503
3372.1889
3869.9496
4081.7792
2283.33
-21823.081
-2732.6835
312.18997
-141.97253
335.09862
307.38194
949.26737
3002.6398
3804.2226
1056.9241
2022.7108
2010.2744
-177.58642
755.83863
1945.5832
-1522.6665
358.879
533.95333
29.263545
-3630.4733
-2206.7152
3780.8735
679.2535
2277.5019
-1379.5049
-811.98679
-1610.0389
-2442.2205
-605.82035
-706.87469
709.62017
131.2285
1953.3323
849.17176
41.323239
-11.836893
1090.3385
1843.8524
804.52052
1767.4435
310.69129
-274.29608
3061.0922
-452.08368
493.55181
-1008.8868
5749.1115
-3183.7235
-14999.128
-4164.7574
-5355.1964
-1565.7714
-2963.1822
-3074.7347
-10203.092
-8448.2624
15336.363
13352.395
8172.2906
7719.4118
-584.27415
-800.43674
10730.699
5097.9284
9290.2467
10603.412
10573.735
15004.065
10498.127
8320.9898
9745.67
3302.4386
3680.3803
3480.6332
2148.8023
-3759.7072
-3793.4698
246.82259
-248.98564
328.52922
317.52525
949.5369
2969.813
3751.5367
1061.4907
2000.3836
1843.5392
-221.72764
740.8537
1829.0879
-1547.6285
340.87339
477.61961
-114.92348
-3578.326
-2294.3686
3617.0797
630.04122
2319.161
-1251.1122
-922.48662
-1042.0912
-1737.1073
-347.00277
-970.35128
933.66168
560.03091
1959.3935
588.28154
-235.28821
-611.53309
953.52371
1851.8562
748.1966
1617.5203
443.01797
-4.9633673
1928.9957
-855.97863
243.44584
-1042.1401
5666.2617
-2701.2018
-14263.923
-3897.0683
-5287.9767
-1666.9496
-3208.5848
-3253.0753
-8728.4409
-6176.5756
14551.724
13509.884
8198.1615
7048.238
-1421.7753
-2144.212
10057.397
5023.4174
9175.478
10160.683
10344.575
14101.701
10495.037
8155.1844
8861.1807
3279.7104
3591.9964
2863.0569
1977.9964
447.85251
-2280.889
210.65582
-279.5754
325.9402
330.92722
948.06683
2924.3305
3680.943
1061.5598
1961.4758
1659.6338
-283.63962
720.66733
1752.7095
-1555.161
213.2056
430.34913
-229.07317
-3462.4469
-2334.3906
3579.9544
648.57353
2439.6526
-1260.5741
-1048.4881
-675.76203
-1261.5908
-115.2231
-1157.1727
1158.7577
928.36042
1954.7553
407.43188
-267.00615
-1177.3646
958.21125
1800.8424
682.85976
1530.5155
541.15813
108.96491
1010.3588
-1212.7279
53.844182
-1216.13
5121.1315
-3550.148
-13241.951
-2993.5373
-5176.6208
-1559.9679
-3327.9893
-3818.5932
-7987.9083
-2709.3726
13698.006
13514.084
9028.4479
6759.2942
-4516.7831
-4000.7802
9537.8186
4497.9209
9625.4944
9563.8529
10036.367
13168.13
9882.0668
7890.6816
7969.6976
3175.0369
3470.1525
2383.388
1866.9172
-8800.484
-1353.3364
274.02587
-275.10977
315.39671
343.51535
941.77648
2869.292
3588.1314
1052.6873
1894.8957
1461.8952
-344.46009
694.2034
1703.8166
-1546.6046
133.03345
352.87821
-401.60975
-3284.6895
-2337.3747
3581.4283
652.65519
2498.1385
-1401.7792
-1165.2646
-465.84926
-1021.0746
239.57211
-1143.9017
1358.6257
1027.0142
1931.2763
141.87622
-513.47189
-1976.8226
453.86787
1823.77
675.69928
1448.6689
575.05975
165.53704
597.38814
-1332.0369
106.9243
-1333.7284
4246.527
-4827.7103
-11035.876
-1741.2381
-4958.229
-1624.4774
-3319.1234
-4181.3607
-7887.0886
-1879.7219
13030.911
13250.719
10804.563
6987.8164
-5520.7076
-5396.8848
8815.157
4520.488
9271.6664
8741.1868
9647.0342
11827.962
8961.0552
7442.2524
7371.0714
2951.7777
3392.0394
1983.2834
1772.1635
-8774.6006
-1578.42
287.83752
-259.31444
302.29496
353.54977
928.40918
2808.8856
3469.1035
1025.2787
1806.3071
1253.4982
-416.28181
650.75921
1672.6748
-1524.5348
53.5483
276.36902
-581.41042
-3040.6791
-2329.4965
3540.1136
595.93441
2474.5773
-1562.5918
-1233.4453
-341.80784
-864.91288
834.71112
-956.19503
1559.3793
1168.9662
1892.6638
-60.487902
-923.98682
-3105.112
455.30671
1743.2314
568.65907
1390.9857
591.6469
315.21658
487.38208
-1391.0142
324.54226
-1360.604
3207.1801
-4905.7232
-10336.333
-1553.8994
-4933.7358
-1720.4868
-3279.8105
-4050.3696
-6969.5749
-1679.7659
12140.295
13009.257
11133.527
6622.7994
-6350.3493
-5609.1563
9485.8409
4724.002
8935.5301
8064.7518
9115.9677
10330.556
8112.2935
6962.261
7134.934
2707
2976.3238
1731.0505
1704.2978
-8453.4084
-1432.4533
293.07499
-242.56852
287.14609
360.08216
908.05275
2750.3305
3329.9434
979.77586
1705.6795
1061.5153
-483.95413
591.72442
1648.1005
-1498.5881
-34.472604
218.15372
-758.66552
-2900.7108
-2361.6811
3463
496.6854
2465.8286
-1644.8089
-1367.4848
-241.96075
-719.16105
1493.2188
-792.82514
1754.259
1511.3419
1829.0753
-224.65999
-1439.5508
-4516.9933
414.05431
1687.1436
477.06028
1404.0834
594.52839
334.56657
458.14907
-1322.9302
449.6295
-1313.5775
2408.7773
-4875.2026
-9602.4844
-995.65188
-4600.1232
-1843.8833
-3283.0307
-3904.4605
-6011.7755
-1528.775
11306.128
12700.13
11897.077
5999.3291
-7624.685
-5492.3189
10866.306
3916.047
7806.4405
7604.709
8621.0169
9116.2984
7418.9955
6284.9798
7040.9855
2542.8652
2319.5363
1677.2221
1738.1337
-7959.7595
-1367.9115
280.71828
-229.66694
269.73341
362.35161
880.52849
2691.8166
3185.4367
927.22499
1612.0273
936.14378
-546.07127
524.25644
1622.3571
-1464.7705
-132.90435
173.05661
-952.10901
-2855.3554
-2426.9333
3354.5293
379.22057
2456.0131
-1667.7574
-1474.6306
-185.96558
-720.97988
1617.7947
-678.3923
1752.5286
1536.4095
1722.3441
-445.00257
-2257.3483
-6126.8386
491.42696
1406.3343
148.24957
1246.7208
488.23872
447.57581
485.73031
-1123.3101
556.99039
-1398.9599
1691.8341
-5220.988
-8029.0131
-719.03995
-4507.1755
-1940.3638
-3349.6893
-3873.4257
-5038.5666
-1512.6187
10693.099
11757.766
11876.062
5344.0309
-8151.9211
-6020.5404
10913.156
1863.4223
6705.1681
7110.0431
8244.1862
8160.1599
6773.7707
5545.5226
6691.7556
2524.7007
1630.272
1564.7107
1980.3255
-7459.8989
-1244.4159
271.45967
-212.63949
250.10788
359.73174
847.21923
2624.8093
3052.8249
882.38921
1533.21
907.59165
-570.65666
440.23767
1606.6379
-1443.9259
-238.19886
127.0916
-1164.1824
-2862.4909
-2481.1621
3195.991
244.15391
2400.0129
-1714.9936
-1549.8014
-198.25741
-689.18016
1681.6269
-650.9314
1518.7294
1424.7501
1627.6692
-650.13553
-3236.8406
-7661.1539
619.1627
1124.6163
-3.1735313
1205.9521
466.22595
519.55565
669.75671
-981.60636
685.13595
-1524.7111
880.94314
-5477.2447
-7915.8237
-466.77638
-4504.949
-2114.4462
-3419.2495
-3827.2978
-3922.8125
-1307.0543
9943.25
10399.649
11210.072
4785.9988
-7249.9105
-7179.9798
9350.4935
-992.54707
6010.5515
6697.4154
7883.2622
6584.6434
6008.4207
5095.9802
5924.7209
2790.0949
1109.5903
1005.9531
2266.3922
-6916.6413
-1192.0197
259.70326
-194.48263
225.57244
351.43221
808.98558
2544.6623
2927.5533
847.05416
1458.6542
972.11279
-557.3214
379.38071
1645.084
-1423.0333
-347.38473
85.216635
-1370.5379
-2911.933
-2517.7489
3017.1637
121.19825
2312.6278
-1794.2606
-1622.231
-214.29215
-614.00392
1686.2047
-579.90732
1372.2186
1290.4574
1534.6454
-628.88559
-3788.5863
-8458.184
793.25275
968.42214
-52.60668
1221.0511
505.84146
620.9549
989.42204
-790.80498
690.92559
-1582.344
110.70052
-5584.0109
-5287.1671
-216.15799
-4704.2076
-2229.8499
-3493.1726
-3946.0454
-3284.5285
-1102.0323
9131.9101
8905.5667
9883.7309
3839.0948
-6380.0361
-8939.0075
6317.5751
-1892.9932
5999.7455
5895.8131
7538.0699
5488.6881
5163.8625
4768.0265
5413.6134
2781.4879
261.62319
-49.45575
2178.0524
-6401.8212
-1057.2743
245.32563
-174.28685
201.31553
337.63028
766.84989
2449.7535
2787.7102
806.34013
1364.7543
1077.4867
-531.24051
345.24686
1765.1108
-1408.3354
-490.57916
47.481721
-1580.5774
-2984.5713
-2584.1791
2860.0987
17.688043
2230.7794
-1896.2308
-1725.5965
-240.57026
-529.32661
1644.4551
-573.31042
1191.3385
1192.4861
1478.204
-411.39589
-3695.0023
-7654.4118
1376.3983
979.07888
-125.51545
1206.5159
554.18371
743.32762
1309.0636
-605.14714
828.58081
-1666.747
-336.06652
-5281.286
-4099.5902
-172.28822
-5477.9691
-2574.1526
-3467.7278
-4051.1905
-3453.0906
-1101.8931
8435.5436
7471.1751
8690.4146
3216.4058
-6090.4592
-9558.1666
5966.3343
-1564.0017
6278.3132
5287.1472
7263.3244
4646.9006
4104.5769
4359.9264
4896.754
2234.1955
-943.43869
-1206.0089
2046.1991
-5858.5757
-1031.9999
231.94533
-151.53374
174.76159
318.24706
721.50378
2335.8991
2605.799
747.90801
1223.1039
1117.2683
-555.50706
316.38688
1935.6742
-1405.5983
-639.3356
6.2453184
-1760.7169
-3053.2824
-2627.8862
2743.9201
-71.67691
2146.5747
-2028.4211
-1809.9419
-275.10668
-423.73705
1572.3484
-521.98844
1080.1469
1148.6354
1418.1727
-205.71531
-3081.6323
-4962.0264
1578.253
1034.2303
-223.44744
1227.4003
587.93857
1033.4329
1691.0838
-490.72161
929.94267
-1754.7768
-573.3363
-4626.1864
-3868.7316
-335.58428
-5620.5982
-2379.8349
-3325.1728
-3867.7147
-3549.6378
-843.72733
7702.7328
5887.5017
7728.0449
3034.105
-4085.844
-7417.3651
4734.647
-851.44278
6462.0542
4941.7844
6938.1318
3665.6113
3209.0495
3981.0577
4345.2829
1544.7831
-2064.7987
-2317.6441
2029.4199
-5363.4184
-873.83236
216.18626
-125.50457
146.17254
296.5006
673.27757
2199.9052
2387.5021
667.12731
1023.1391