/*--------------------------------*- C++ -*----------------------------------*\
| =========                 |                                                 |
| \\      /  F ield         | OpenFOAM: The Open Source CFD Toolbox           |
|  \\    /   O peration     | Version:  2.3.0                                 |
|   \\  /    A nd           | Web:      www.OpenFOAM.org                      |
|    \\/     M anipulation  |                                                 |
\*---------------------------------------------------------------------------*/
FoamFile
{
    version     2.0;
    format      ascii;
    class       surfaceScalarField;
    location    "2.7e-05";
    object      phi;
}
// * * * * * * * * * * * * * * * * * * * * * * * * * * * * * * * * * * * * * //

dimensions      [0 3 -1 0 0 0 0];

internalField   nonuniform List<scalar> 
14825
(
1.0345206e-09
-2.0759238e-11
1.0542367e-09
-1.9716139e-11
1.0750143e-09
-2.0777532e-11
1.0955362e-09
-2.0521966e-11
1.1160371e-09
-2.0500879e-11
1.1364493e-09
-2.0412132e-11
1.1561578e-09
-1.9708577e-11
1.1765744e-09
-2.041656e-11
1.1959626e-09
-1.9388218e-11
1.2163132e-09
-2.0350545e-11
1.2354116e-09
-1.9098446e-11
1.2555979e-09
-2.0186297e-11
1.2744033e-09
-1.8805401e-11
1.2943112e-09
-1.990786e-11
1.3129039e-09
-1.8592769e-11
1.3323217e-09
-1.941774e-11
1.3509161e-09
-1.8594398e-11
1.3695876e-09
-1.8671558e-11
1.3883873e-09
-1.8799669e-11
1.4060865e-09
-1.7699229e-11
1.4251804e-09
-1.9093907e-11
1.4419136e-09
-1.6733157e-11
1.4610749e-09
-1.9161321e-11
1.4772004e-09
-1.612551e-11
1.495932e-09
-1.873154e-11
1.5119169e-09
-1.5984938e-11
1.5297116e-09
-1.7794746e-11
1.5458281e-09
-1.6116428e-11
1.5625328e-09
-1.6704751e-11
1.5789683e-09
-1.6435518e-11
1.5944392e-09
-1.5470892e-11
1.6110477e-09
-1.6608472e-11
1.6255224e-09
-1.4474669e-11
1.6419409e-09
-1.641849e-11
1.6557066e-09
-1.3765762e-11
1.6717026e-09
-1.5996008e-11
1.685016e-09
-1.3313315e-11
1.7003609e-09
-1.5344946e-11
1.7133047e-09
-1.2943826e-11
1.7277819e-09
-1.4477135e-11
1.7406917e-09
-1.2909874e-11
1.7539337e-09
-1.324196e-11
1.7669659e-09
-1.3032216e-11
1.7789884e-09
-1.2022493e-11
1.7919255e-09
-1.2937079e-11
1.80302e-09
-1.1094493e-11
1.8155405e-09
-1.2520567e-11
1.8259828e-09
-1.0442269e-11
1.8377085e-09
-1.1725695e-11
1.8484383e-09
-1.0729767e-11
1.8586417e-09
-1.020338e-11
1.868724e-09
-1.0082378e-11
1.8779814e-09
-9.2574013e-12
1.8883766e-09
-1.0395199e-11
1.8969171e-09
-8.5404705e-12
1.9057802e-09
-8.8630877e-12
1.914394e-09
-8.6138378e-12
1.9219388e-09
-7.5448036e-12
1.929983e-09
-8.0441631e-12
1.9383502e-09
-8.3672412e-12
1.944982e-09
-6.6317984e-12
1.9511504e-09
-6.1683213e-12
1.9578015e-09
-6.6511738e-12
1.9644546e-09
-6.6530363e-12
1.970113e-09
-5.6583899e-12
1.9748879e-09
-4.7749529e-12
1.9799581e-09
-5.0701502e-12
1.9849995e-09
-5.0414608e-12
1.9891673e-09
-4.1677479e-12
1.9931765e-09
-4.009267e-12
1.9972077e-09
-4.0311253e-12
2.0006044e-09
-3.3967795e-12
2.0033945e-09
-2.7900107e-12
2.0058239e-09
-2.4294245e-12
-2.1431101e-12
2.8627635e-09
-8.1556764e-11
2.9211212e-09
-7.8073884e-11
2.9820142e-09
-8.1670573e-11
3.0425497e-09
-8.1057387e-11
3.1029644e-09
-8.0915589e-11
3.1633917e-09
-8.0839474e-11
3.222038e-09
-7.835484e-11
3.2824439e-09
-8.0822466e-11
3.3405238e-09
-7.7468134e-11
3.4007617e-09
-8.0588412e-11
3.4584246e-09
-7.6761378e-11
3.5182328e-09
-7.9994454e-11
3.5753808e-09
-7.5953453e-11
3.6345483e-09
-7.9075325e-11
3.6912739e-09
-7.5318385e-11
3.749363e-09
-7.750685e-11
3.8060926e-09
-7.5324038e-11
3.8625276e-09
-7.5106569e-11
3.9197114e-09
-7.59834e-11
3.9739746e-09
-7.1962492e-11
4.0317637e-09
-7.6882971e-11
4.0838765e-09
-6.8845919e-11
4.14173e-09
-7.7014852e-11
4.1924894e-09
-6.6884959e-11
4.2493232e-09
-7.5565286e-11
4.2997405e-09
-6.6402293e-11
4.3543021e-09
-7.2356324e-11
4.4050242e-09
-6.6838543e-11
4.4569537e-09
-6.8634252e-11
4.5084764e-09
-6.7958202e-11
4.5574439e-09
-6.4438366e-11
4.609261e-09
-6.8425556e-11
4.6559517e-09
-6.1165422e-11
4.7071187e-09
-6.7585431e-11
4.7521233e-09
-5.8770414e-11
4.8022691e-09
-6.6141765e-11
4.8460779e-09
-5.7122094e-11
4.8947348e-09
-6.4001864e-11
4.9373978e-09
-5.5606789e-11
4.9839821e-09
-6.1061453e-11
5.0264735e-09
-5.540131e-11
5.0701848e-09
-5.6953207e-11
5.1127884e-09
-5.5635896e-11
5.1533805e-09
-5.2614572e-11
5.1956644e-09
-5.5220977e-11
5.2340231e-09
-4.9453145e-11
5.2751517e-09
-5.3649237e-11
5.3117792e-09
-4.7069729e-11
5.3512138e-09
-5.1160312e-11
5.3880963e-09
-4.7612233e-11
5.4239584e-09
-4.6065496e-11
5.4589773e-09
-4.5101308e-11
5.492438e-09
-4.2718038e-11
5.5282479e-09
-4.620511e-11
5.5595699e-09
-3.9862471e-11
5.5918553e-09
-4.1148496e-11
5.6229326e-09
-3.9691117e-11
5.6516409e-09
-3.6253136e-11
5.6820423e-09
-3.844561e-11
5.712201e-09
-3.8525893e-11
5.7380881e-09
-3.2518923e-11
5.7635321e-09
-3.1612274e-11
5.7898597e-09
-3.2978767e-11
5.8152525e-09
-3.2045904e-11
5.8390592e-09
-2.9465014e-11
5.8606241e-09
-2.6339911e-11
5.8824152e-09
-2.6861226e-11
5.9041087e-09
-2.6735018e-11
5.9235673e-09
-2.3626323e-11
5.9429534e-09
-2.3395311e-11
5.9620221e-09
-2.3099876e-11
5.9789946e-09
-2.0369233e-11
5.9951166e-09
-1.8912034e-11
6.0098272e-09
-1.7140047e-11
-1.6125373e-11
4.3667368e-09
-1.801841e-10
4.4623816e-09
-1.7371861e-10
4.5614166e-09
-1.8070558e-10
4.6600727e-09
-1.797135e-10
4.759031e-09
-1.7987387e-10
4.8576981e-09
-1.7950661e-10
4.9548759e-09
-1.7553259e-10
5.0534615e-09
-1.7940807e-10
5.1503375e-09
-1.7434414e-10
5.2487721e-09
-1.7902306e-10
5.3455568e-09
-1.7354609e-10
5.4435612e-09
-1.7799884e-10
5.5399185e-09
-1.7231071e-10
5.637396e-09
-1.7655289e-10
5.7332221e-09
-1.7114444e-10
5.829747e-09
-1.7403181e-10
5.9254176e-09
-1.709946e-10
6.0203469e-09
-1.700359e-10
6.1163585e-09
-1.7199498e-10
6.2090315e-09
-1.6463544e-10
6.3056125e-09
-1.7346399e-10
6.3958598e-09
-1.5909328e-10
6.4924785e-09
-1.7363352e-10
6.5810718e-09
-1.5547829e-10
6.6766302e-09
-1.7112369e-10
6.7646422e-09
-1.5441424e-10
6.8574851e-09
-1.6519926e-10
6.9455952e-09
-1.5494859e-10
7.0355107e-09
-1.585498e-10
7.124265e-09
-1.5671245e-10
7.2108802e-09
-1.5105361e-10
7.2995786e-09
-1.5712391e-10
7.3835461e-09
-1.4513297e-10
7.4713372e-09
-1.5537648e-10
7.5528113e-09
-1.402446e-10
7.639892e-09
-1.5322245e-10
7.7191329e-09
-1.3636301e-10
7.804784e-09
-1.4965297e-10
7.881934e-09
-1.3275677e-10
7.9651661e-09
-1.4429357e-10
8.0418072e-09
-1.3204233e-10
8.1216153e-09
-1.3676137e-10
8.1978843e-09
-1.3190484e-10
8.2738093e-09
-1.2853964e-10
8.349725e-09
-1.3113668e-10
8.4226622e-09
-1.2239027e-10
8.4970108e-09
-1.2799789e-10
8.5670087e-09
-1.1706761e-10
8.6401021e-09
-1.2425368e-10
8.7092872e-09
-1.1679732e-10
8.7781186e-09
-1.1489689e-10
8.8443175e-09
-1.1130027e-10
8.9101218e-09
-1.0852234e-10
8.9773662e-09
-1.1344951e-10
9.0393833e-09
-1.0187949e-10
9.1028063e-09
-1.0457157e-10
9.1633163e-09
-1.0020111e-10
9.2221229e-09
-9.5059742e-11
9.2832045e-09
-9.9527191e-11
9.3420057e-09
-9.7327053e-11
9.3959351e-09
-8.6448376e-11
9.4504197e-09
-8.6096844e-11
9.5052424e-09
-8.7801428e-11
9.557259e-09
-8.4062523e-11
9.6083199e-09
-8.0525947e-11
9.6567638e-09
-7.4783794e-11
9.7043377e-09
-7.4435153e-11
9.7517641e-09
-7.4161394e-11
9.7963967e-09
-6.8258903e-11
9.8412837e-09
-6.8282375e-11
9.885113e-09
-6.6929096e-11
9.9255995e-09
-6.0855736e-11
9.9654046e-09
-5.8717161e-11
1.0002742e-08
-5.4477099e-11
-5.2675705e-11
5.590672e-09
-3.1438535e-10
5.7222559e-09
-3.0530259e-10
5.8573361e-09
-3.1578568e-10
5.9922367e-09
-3.1461414e-10
6.1282175e-09
-3.1585471e-10
6.2632652e-09
-3.1455424e-10
6.3983448e-09
-3.1061224e-10
6.5333013e-09
-3.1436452e-10
6.6687994e-09
-3.0984224e-10
6.8037348e-09
-3.1395849e-10
6.9397938e-09
-3.096051e-10
7.074574e-09
-3.1277904e-10
7.2104986e-09
-3.0823528e-10
7.3453387e-09
-3.1139299e-10
7.4806568e-09
-3.0646257e-10
7.615318e-09
-3.0869299e-10
7.750251e-09
-3.0592761e-10
7.8841809e-09
-3.0396578e-10
8.0191659e-09
-3.0698001e-10
8.1515437e-09
-2.9701323e-10
8.2869378e-09
-3.0885811e-10
8.417314e-09
-2.8946941e-10
8.5527028e-09
-3.0902233e-10
8.6816046e-09
-2.8438009e-10
8.8162333e-09
-3.0575243e-10
8.944395e-09
-2.8257594e-10
9.0766261e-09
-2.9743033e-10
9.2042446e-09
-2.8256707e-10
9.3344456e-09
-2.8875084e-10
9.4618572e-09
-2.84124e-10
9.5897058e-09
-2.7890221e-10
9.7163538e-09
-2.8377198e-10
9.8418952e-09
-2.7067435e-10
9.9676189e-09
-2.8110021e-10
1.0090197e-08
-2.6282276e-10
1.0216167e-08
-2.791923e-10
1.0335388e-08
-2.5558405e-10
1.0460704e-08
-2.7496849e-10
1.0576613e-08
-2.4866618e-10
1.0700238e-08
-2.6791875e-10
1.0815049e-08
-2.4685326e-10
1.0935834e-08
-2.5754632e-10
1.1049502e-08
-2.4557237e-10
1.1166558e-08
-2.4559631e-10
1.1279427e-08
-2.4400518e-10
1.1393107e-08
-2.3607061e-10
1.1504549e-08
-2.3944002e-10
1.1614902e-08
-2.2742073e-10
1.1726839e-08
-2.3619038e-10
1.1833933e-08
-2.2389124e-10
1.1941726e-08
-2.2268989e-10
1.2045049e-08
-2.1462325e-10
1.2150714e-08
-2.1418717e-10
1.225413e-08
-2.1686592e-10
1.2354389e-08
-2.0213802e-10
1.2455391e-08
-2.0557398e-10
1.2551472e-08
-1.962824e-10
1.2649171e-08
-1.927588e-10
1.2747459e-08
-1.9781516e-10
1.2841062e-08
-1.9093018e-10
1.293157e-08
-1.7695573e-10
1.3023359e-08
-1.7788597e-10
1.3114179e-08
-1.786213e-10
1.3200152e-08
-1.7003534e-10
1.3286788e-08
-1.6716224e-10
1.337077e-08
-1.5876565e-10
1.3452614e-08
-1.5627967e-10
1.3534146e-08
-1.5569271e-10
1.3613061e-08
-1.471738e-10
1.3692399e-08
-1.4762124e-10
1.3769163e-08
-1.4369294e-10
1.3842469e-08
-1.341617e-10
1.3915374e-08
-1.3162226e-10
1.3985345e-08
-1.2444824e-10
-1.2175019e-10
6.5731835e-09
-4.817975e-10
6.7392692e-09
-4.7138829e-10
6.9082728e-09
-4.8478933e-10
7.0777031e-09
-4.8404448e-10
7.2489423e-09
-4.8709386e-10
7.4187807e-09
-4.8439266e-10
7.5906006e-09
-4.8243208e-10
7.760623e-09
-4.8438693e-10
7.9337995e-09
-4.8301877e-10
8.1042708e-09
-4.844298e-10
8.2787026e-09
-4.8403689e-10
8.449612e-09
-4.8368848e-10
8.6243462e-09
-4.829694e-10
8.7961542e-09
-4.8320101e-10
8.9705603e-09
-4.8086865e-10
9.1430694e-09
-4.8120214e-10
9.3172976e-09
-4.8015583e-10
9.4901574e-09
-4.768255e-10
9.664458e-09
-4.8128068e-10
9.8368612e-09
-4.6941643e-10
1.0011584e-08
-4.8358133e-10
1.0182829e-08
-4.6071399e-10
1.0357408e-08
-4.8360094e-10
1.0527968e-08
-4.549407e-10
1.0702217e-08
-4.8000068e-10
1.0872069e-08
-4.5242802e-10
1.1044663e-08
-4.7002438e-10
1.1213498e-08
-4.5140233e-10
1.1385503e-08
-4.6075604e-10
1.1553188e-08
-4.518088e-10
1.1724458e-08
-4.5017259e-10
1.1890572e-08
-4.4988576e-10
1.2060583e-08
-4.4068493e-10
1.2225658e-08
-4.4617537e-10
1.2393272e-08
-4.3043689e-10
1.2559371e-08
-4.4529152e-10
1.27229e-08
-4.1911331e-10
1.2889666e-08
-4.4173439e-10
1.3048539e-08
-4.075385e-10
1.3215366e-08
-4.3474663e-10
1.3372285e-08
-4.037721e-10
1.353766e-08
-4.2292096e-10
1.3692366e-08
-4.002784e-10
1.3855504e-08
-4.0873412e-10
1.400909e-08
-3.9759107e-10
1.4169186e-08
-3.961667e-10
1.4320899e-08
-3.9115303e-10
1.4477264e-08
-3.8378637e-10
1.4631499e-08
-3.9042542e-10
1.4782445e-08
-3.7483658e-10
1.4934272e-08
-3.7451714e-10
1.5080694e-08
-3.6104568e-10
1.5231919e-08
-3.654114e-10
1.5375832e-08
-3.6077925e-10
1.5521874e-08
-3.4817966e-10
1.5665189e-08
-3.4888891e-10
1.5802832e-08
-3.3392569e-10
1.5947479e-08
-3.3740567e-10
1.6087544e-08
-3.3788058e-10
1.6221995e-08
-3.2538048e-10
1.6357008e-08
-3.1196951e-10
1.6492989e-08
-3.1386684e-10
1.6625911e-08
-3.1154272e-10
1.6753463e-08
-2.9758813e-10
1.6883307e-08
-2.9700559e-10
1.7009123e-08
-2.8458189e-10
1.7133175e-08
-2.8033188e-10
1.7255851e-08
-2.7836899e-10
1.7377895e-08
-2.6921709e-10
1.7500652e-08
-2.7037812e-10
1.7618354e-08
-2.6139512e-10
1.7734045e-08
-2.4985282e-10
1.7848398e-08
-2.4597568e-10
1.795956e-08
-2.356103e-10
-2.3236431e-10
7.3481944e-09
-6.8014528e-10
7.5469531e-09
-6.7014702e-10
7.7481131e-09
-6.8594932e-10
7.9502383e-09
-6.8616968e-10
8.1550865e-09
-6.919421e-10
8.3582702e-09
-6.8757637e-10
8.5652976e-09
-6.8945945e-10
8.7696459e-09
-6.887352e-10
8.9786091e-09
-6.9198199e-10
9.1846686e-09
-6.9048929e-10
9.3951958e-09
-6.9456409e-10
9.6027031e-09
-6.9119576e-10
9.8142103e-09
-6.9447664e-10
1.0023296e-08
-6.9228663e-10
1.0235553e-08
-6.9312621e-10
1.0445781e-08
-6.9142969e-10
1.0658919e-08
-6.9329408e-10
1.0870395e-08
-6.8830156e-10
1.1084076e-08
-6.9496152e-10
1.1296302e-08
-6.8164236e-10
1.151069e-08
-6.9796952e-10
1.1722954e-08
-6.7297759e-10
1.1937298e-08
-6.9794464e-10
1.2149969e-08
-6.6761197e-10
1.236457e-08
-6.9460184e-10
1.2576926e-08
-6.6478377e-10
1.2790692e-08
-6.837908e-10
1.3002502e-08
-6.6321204e-10
1.3217068e-08
-6.7532262e-10
1.3427145e-08
-6.6188555e-10
1.3643039e-08
-6.660659e-10
1.3850732e-08
-6.5757879e-10
1.4066831e-08
-6.5678389e-10
1.42734e-08
-6.5274474e-10
1.4488768e-08
-6.4580518e-10
1.4696756e-08
-6.5327936e-10
1.4908249e-08
-6.3060597e-10
1.5118192e-08
-6.5167773e-10
1.5324337e-08
-6.1368296e-10
1.5536141e-08
-6.4655144e-10
1.5739337e-08
-6.0696787e-10
1.5951602e-08
-6.3518584e-10
1.6151246e-08
-5.9992232e-10
1.6363861e-08
-6.2134895e-10
1.6561449e-08
-5.9517949e-10
1.6771913e-08
-6.0663044e-10
1.6967011e-08
-5.8625065e-10
1.7175542e-08
-5.923182e-10
1.7374899e-08
-5.8978194e-10
1.7574798e-08
-5.7473561e-10
1.7772337e-08
-5.7205593e-10
1.7968131e-08
-5.568404e-10
1.8168831e-08
-5.6611131e-10
1.8357987e-08
-5.49935e-10
1.8556023e-08
-5.4621577e-10
1.8744912e-08
-5.3777784e-10
1.8930821e-08
-5.1983445e-10
1.9128493e-08
-5.350781e-10
1.9313303e-08
-5.2269005e-10
1.9495193e-08
-5.0727089e-10
1.9681326e-08
-4.9810227e-10
1.9867642e-08
-5.0018316e-10
2.0046631e-08
-4.9053194e-10
2.0224041e-08
-4.7499799e-10
2.0403721e-08
-4.7668495e-10
2.057744e-08
-4.5830125e-10
2.0752894e-08
-4.5578554e-10
2.0923686e-08
-4.491612e-10
2.1096673e-08
-4.4220425e-10
2.126844e-08
-4.421451e-10
2.1433631e-08
-4.2658586e-10
2.1600533e-08
-4.1675456e-10
2.1765546e-08
-4.1098862e-10
2.1926176e-08
-3.9624114e-10
-3.9239662e-10
7.9456543e-09
-9.0756302e-10
8.1746526e-09
-8.9914532e-10
8.4069141e-09
-9.1821081e-10
8.6393421e-09
-9.1859777e-10
8.8767899e-09
-9.2938986e-10
9.111419e-09
-9.2220542e-10
9.3522674e-09
-9.3030788e-10
9.5899769e-09
-9.2644476e-10
9.8325559e-09
-9.345609e-10
1.0074327e-08
-9.3226067e-10
1.0318172e-08
-9.3840879e-10
1.0563071e-08
-9.3609458e-10
1.0808788e-08
-9.4019402e-10
1.1055918e-08
-9.3941687e-10
1.130418e-08
-9.4138823e-10
1.1552489e-08
-9.3973847e-10
1.1803437e-08
-9.4424218e-10
1.2053447e-08
-9.3831123e-10
1.2306116e-08
-9.476304e-10
1.2557823e-08
-9.3334926e-10
1.2812137e-08
-9.5228397e-10
1.3065041e-08
-9.25881e-10
1.3320045e-08
-9.5294896e-10
1.3574771e-08
-9.2233835e-10
1.383083e-08
-9.5066073e-10
1.4086018e-08
-9.1997121e-10
1.4341935e-08
-9.3970858e-10
1.4598367e-08
-9.1964313e-10
1.485605e-08
-9.3300601e-10
1.5110931e-08
-9.1676674e-10
1.5371909e-08
-9.2704383e-10
1.5624214e-08
-9.0988371e-10
1.5886531e-08
-9.1910075e-10
1.6138045e-08
-9.0425856e-10
1.6402073e-08
-9.0983385e-10
1.6654165e-08
-9.0537078e-10
1.6916148e-08
-8.9258893e-10
1.7169997e-08
-9.0552658e-10
1.742763e-08
-8.7131618e-10
1.7685064e-08
-9.0398528e-10
1.7938926e-08
-8.6082987e-10
1.8199502e-08
-8.9576194e-10
1.8447634e-08
-8.4805507e-10
1.8711614e-08
-8.8532827e-10
1.8956146e-08
-8.3971202e-10
1.9218505e-08
-8.6898903e-10
1.9459818e-08
-8.2756409e-10
1.9723452e-08
-8.5595152e-10
1.9969602e-08
-8.3593223e-10
2.0223774e-08
-8.2890728e-10
2.0469856e-08
-8.1813878e-10
2.0720369e-08
-8.0735309e-10
2.0970854e-08
-8.165962e-10
2.1210331e-08
-7.8941209e-10
2.1464003e-08
-7.9988722e-10
2.1701209e-08
-7.7498452e-10
2.1944085e-08
-7.6271027e-10
2.2196713e-08
-7.8770575e-10
2.2429973e-08
-7.5595048e-10
2.2666288e-08
-7.4358534e-10
2.290879e-08
-7.4060452e-10
2.3150663e-08
-7.4205664e-10
2.3379743e-08
-7.1961203e-10
2.3615214e-08
-7.1046844e-10
2.3847703e-08
-7.0917384e-10
2.4074409e-08
-6.8500771e-10
2.4308623e-08
-6.8999891e-10
2.4533995e-08
-6.7453347e-10
2.4766553e-08
-6.7476266e-10
2.4993634e-08
-6.6922565e-10
2.5214912e-08
-6.4786361e-10
2.5438061e-08
-6.3990411e-10
2.5657579e-08
-6.3050688e-10
2.5875419e-08
-6.1408036e-10
-6.0837247e-10
8.3914377e-09
-1.1622938e-09
8.6485935e-09
-1.1563011e-09
8.910592e-09
-1.1802094e-09
9.1713442e-09
-1.1793499e-09
9.4400074e-09
-1.198053e-09
9.7041672e-09
-1.1863652e-09
9.9774327e-09
-1.2035735e-09
1.0246721e-08
-1.1957329e-09
1.052173e-08
-1.20957e-09
1.079788e-08
-1.2084109e-09
1.1073852e-08
-1.2143806e-09
1.1355699e-08
-1.2179418e-09
1.1634152e-08
-1.2186467e-09
1.1919767e-08
-1.225032e-09
1.2202096e-08
-1.2237172e-09
1.2489614e-08
-1.2272568e-09
1.2776281e-08
-1.2309091e-09
1.3066001e-08
-1.2280306e-09
1.3356259e-08
-1.2378892e-09
1.3648061e-08
-1.2251509e-09
1.3941948e-08
-1.2461704e-09
1.4235405e-08
-1.2193389e-09
1.4531942e-08
-1.2494857e-09
1.4828338e-08
-1.218734e-09
1.5127265e-08
-1.2495878e-09
1.542475e-08
-1.2174567e-09
1.5724311e-08
-1.2392693e-09
1.6025583e-08
-1.2209149e-09
1.6327227e-08
-1.2346499e-09
1.6628411e-08
-1.2179509e-09
1.6933961e-08
-1.2325942e-09
1.7233849e-08
-1.2097711e-09
1.7540885e-08
-1.226137e-09
1.7840964e-08
-1.2043377e-09
1.8152713e-08
-1.221583e-09
1.8451012e-08
-1.2036696e-09
1.8764495e-08
-1.2060722e-09
1.9062129e-08
-1.2031601e-09
1.9374059e-08
-1.1832464e-09
1.967657e-08
-1.2064957e-09
1.9983721e-08
-1.1679813e-09
2.029273e-08
-1.2047711e-09
2.0592522e-08
-1.1478468e-09
2.090843e-08
-1.2012365e-09
2.1203512e-08
-1.1347935e-09
2.1518248e-08
-1.1837255e-09
2.1810457e-08
-1.1197732e-09
2.2129572e-08
-1.175066e-09
2.2424646e-08
-1.1310062e-09
2.2735123e-08
-1.1393843e-09
2.3031935e-08
-1.1149511e-09
2.334145e-08
-1.1168678e-09
2.3642455e-08
-1.1176013e-09
2.3940304e-08
-1.0872608e-09
2.4247491e-08
-1.1070743e-09
2.4537453e-08
-1.0649468e-09
2.4844022e-08
-1.0692799e-09
2.5148116e-08
-1.0917994e-09
2.5436252e-08
-1.0440866e-09
2.573253e-08
-1.0398636e-09
2.6035056e-08
-1.0431305e-09
2.6333315e-08
-1.0403153e-09
2.6617302e-08
-1.003599e-09
2.691892e-08
-1.0120865e-09
2.7204504e-08
-9.9475717e-10
2.7490816e-08
-9.713197e-10
2.7784417e-08
-9.8360029e-10
2.8067133e-08
-9.5724934e-10
2.8361933e-08
-9.6956329e-10
2.8641842e-08
-9.491337e-10
2.8927332e-08
-9.3335385e-10
2.9211941e-08
-9.2451361e-10
2.9491404e-08
-9.0996923e-10
2.9768575e-08
-8.9125142e-10
-8.8419753e-10
8.7076189e-09
-1.4422046e-09
8.9922293e-09
-1.4409115e-09
9.2809901e-09
-1.4689702e-09
9.5701537e-09
-1.4685136e-09
9.8666345e-09
-1.4945338e-09
1.0160321e-08
-1.4800515e-09
1.0463503e-08
-1.5067559e-09
1.0763124e-08
-1.4953536e-09
1.1070306e-08
-1.5167522e-09
1.1378038e-08
-1.5161431e-09
1.168748e-08
-1.5238223e-09
1.2003124e-08
-1.5335862e-09
1.2315525e-08
-1.5310475e-09
1.2637558e-08
-1.5470653e-09
1.2953681e-08
-1.53984e-09
1.3280402e-08
-1.5539772e-09
1.3600809e-08
-1.5513162e-09
1.3931818e-08
-1.5590403e-09
1.4257032e-08
-1.563103e-09
1.459081e-08
-1.5589291e-09
1.4922097e-08
-1.5774565e-09
1.5256833e-08
-1.5540757e-09
1.5594333e-08
-1.586985e-09
1.5932112e-08
-1.5565136e-09
1.6273947e-08
-1.5914224e-09
1.6612707e-08
-1.556217e-09
1.6956804e-08
-1.5833664e-09
1.7301491e-08
-1.565602e-09
1.7647869e-08
-1.5810272e-09
1.7994934e-08
-1.5650167e-09
1.8344317e-08
-1.5819765e-09
1.8692443e-08
-1.5578978e-09
1.9043069e-08
-1.5767624e-09
1.9393302e-08
-1.5545705e-09
1.9751316e-08
-1.5795972e-09
2.0097767e-08
-1.5501204e-09
2.0462057e-08
-1.5703621e-09
2.080402e-08
-1.5451237e-09
2.1171446e-08
-1.5506718e-09
2.151868e-08
-1.5537301e-09
2.1880988e-08
-1.5302892e-09
2.2237394e-08
-1.5611773e-09
2.2591984e-08
-1.5024365e-09
2.2958184e-08
-1.5674368e-09
2.3307691e-08
-1.4843001e-09
2.3671683e-08
-1.5477174e-09
2.4020992e-08
-1.4690821e-09
2.4393228e-08
-1.5473028e-09
2.4740688e-08
-1.4784664e-09
2.5107022e-08
-1.5057183e-09
2.5456391e-08
-1.4643202e-09
2.5824725e-08
-1.4852009e-09
2.6172325e-08
-1.4652015e-09
2.6536824e-08
-1.4517596e-09
2.6889212e-08
-1.4594623e-09
2.7238199e-08
-1.4139341e-09
2.7610263e-08
-1.4413441e-09
2.7958903e-08
-1.4404395e-09
2.8302156e-08
-1.3873394e-09
2.8661191e-08
-1.3988982e-09
2.902287e-08
-1.4048097e-09
2.9368175e-08
-1.3856202e-09
2.9715258e-08
-1.3506826e-09
3.0078911e-08
-1.3757392e-09
3.0409586e-08
-1.3254321e-09
3.0764957e-08
-1.3266911e-09
3.1107398e-08
-1.3260408e-09
3.1452244e-08
-1.3020955e-09
3.180616e-08
-1.323479e-09
3.2132573e-08
-1.2755465e-09
3.2484587e-08
-1.2853681e-09
3.2824325e-08
-1.2642516e-09
3.3161623e-08
-1.247267e-09
3.350078e-08
-1.2304088e-09
-1.2180024e-09
8.9143444e-09
-1.7457689e-09
9.2253642e-09
-1.7519313e-09
9.5383075e-09
-1.7819136e-09
9.8561573e-09
-1.7863633e-09
1.0176998e-08
-1.8153745e-09
1.0501324e-08
-1.8043775e-09
1.0831031e-08
-1.8364632e-09
1.116136e-08
-1.8256824e-09
1.1498926e-08
-1.8543185e-09
1.183642e-08
-1.8536365e-09
1.2179665e-08
-1.8670676e-09
1.252522e-08
-1.8791415e-09
1.2873412e-08
-1.8792392e-09
1.3227206e-08
-1.9008589e-09
1.3579054e-08
-1.8916881e-09
1.3941297e-08
-1.9162206e-09
1.4296093e-08
-1.9061123e-09
1.4666548e-08
-1.9294948e-09
1.50254e-08
-1.9219549e-09
1.5401621e-08
-1.93515e-09
1.5767152e-08
-1.9429878e-09
1.6144441e-08
-1.9313644e-09
1.6520112e-08
-1.9626563e-09
1.6900662e-08
-1.9370637e-09
1.7282278e-08
-1.9730386e-09
1.7663748e-08
-1.9376872e-09
1.8050136e-08
-1.9697539e-09
1.8438501e-08
-1.9539668e-09
1.882879e-08
-1.9713162e-09
1.922149e-08
-1.9577171e-09
1.9614434e-08
-1.9749203e-09
2.0009053e-08
-1.9525173e-09
2.0404825e-08
-1.9725346e-09
2.0803485e-08
-1.9532301e-09
2.1207006e-08
-1.9831185e-09
2.1603421e-08
-1.9465352e-09
2.2015168e-08
-1.9821095e-09
2.2403124e-08
-1.9330793e-09
2.2824287e-08
-1.971835e-09
2.3214465e-08
-1.943908e-09
2.3632323e-08
-1.9481468e-09
2.4031301e-08
-1.9601555e-09
2.4442807e-08
-1.9139421e-09
2.4851698e-08
-1.9763277e-09
2.5257983e-08
-1.890585e-09
2.566168e-08
-1.9514148e-09
2.6070686e-08
-1.8780882e-09
2.6485613e-08
-1.96223e-09
2.6883466e-08
-1.8763191e-09
2.7299948e-08
-1.9222003e-09
2.7698067e-08
-1.8624387e-09
2.8120594e-08
-1.907728e-09
2.850424e-08
-1.8488481e-09
2.8936775e-08
-1.8842944e-09
2.9317587e-08
-1.8402742e-09
2.9726095e-08
-1.8224427e-09
3.0155139e-08
-1.8703878e-09
3.0539137e-08
-1.8244371e-09
3.0926683e-08
-1.7748858e-09
3.1345261e-08
-1.8174757e-09
3.1756847e-08
-1.8163957e-09
3.2128863e-08
-1.7576366e-09
3.2553906e-08
-1.7757253e-09
3.2958143e-08
-1.7799765e-09
3.3326175e-08
-1.6934644e-09
3.375667e-08
-1.7571858e-09
3.4124189e-08
-1.6935603e-09
3.453905e-08
-1.716956e-09
3.4937496e-08
-1.721925e-09
3.5300072e-08
-1.638123e-09
3.5717445e-08
-1.7027406e-09
3.6102939e-08
-1.6497452e-09
3.6487111e-08
-1.6314392e-09
3.6879544e-08
-1.6228422e-09
-1.5982956e-09
9.0301714e-09
-2.073032e-09
9.3641694e-09
-2.0859292e-09
9.7013948e-09
-2.119139e-09
1.0044818e-08
-2.1297862e-09
1.0389693e-08
-2.1602501e-09
1.0742725e-08
-2.157409e-09
1.1096998e-08
-2.1907368e-09
1.1457649e-08
-2.1863327e-09
1.1821974e-08
-2.2186433e-09
1.2189686e-08
-2.2213493e-09
1.2563062e-08
-2.2404433e-09
1.293815e-08
-2.2542291e-09
1.3320461e-08
-2.2615502e-09
1.3703252e-08
-2.2836505e-09
1.4092138e-08
-2.2805739e-09
1.4484492e-08
-2.3085748e-09
1.4877764e-08
-2.2993844e-09
1.5280412e-08
-2.3321423e-09
1.5677733e-08
-2.3192764e-09
1.6091204e-08
-2.3486204e-09
1.649231e-08
-2.3440941e-09
1.6911327e-08
-2.3503817e-09
1.732306e-08
-2.374389e-09
1.7749099e-08
-2.3631028e-09
1.8165225e-08
-2.3891646e-09
1.859388e-08
-2.366342e-09
1.9016771e-08
-2.3926447e-09
1.9452384e-08
-2.3895802e-09
1.988059e-08
-2.399522e-09
2.0322546e-08
-2.3996737e-09
2.0752908e-08
-2.4052824e-09
2.1193495e-08
-2.3931038e-09
2.1631986e-08
-2.4110253e-09
2.2075141e-08
-2.3963851e-09
2.2518175e-08
-2.4261527e-09
2.2964589e-08
-2.3929491e-09
2.3411421e-08
-2.4289417e-09
2.3846446e-08
-2.3681042e-09
2.4308346e-08
-2.4337351e-09
2.4736013e-08
-2.3715749e-09
2.5202319e-08
-2.4144529e-09
2.5629476e-08
-2.3873129e-09
2.6096532e-08
-2.3809974e-09
2.6527921e-08
-2.407717e-09
2.6988078e-08
-2.3507422e-09
2.7412359e-08
-2.3756957e-09
2.7873359e-08
-2.3390884e-09
2.8313171e-08
-2.402042e-09
2.8752543e-08
-2.3156909e-09
2.9206739e-08
-2.3763959e-09
2.9641453e-08
-2.2971535e-09
3.0109907e-08
-2.3761818e-09
3.0513909e-08
-2.2528499e-09
3.1006624e-08
-2.3770095e-09
3.1396867e-08
-2.2305167e-09
3.1859673e-08
-2.2852494e-09
3.2313823e-08
-2.3245377e-09
3.2720807e-08
-2.2314208e-09
3.311405e-08
-2.1681284e-09
3.3611478e-08
-2.3149039e-09
3.4080282e-08
-2.2851994e-09
3.4447747e-08
-2.1251023e-09
3.4990383e-08
-2.3183606e-09
3.5400981e-08
-2.1905751e-09
3.5783586e-08
-2.0760692e-09
3.6296767e-08
-2.2703665e-09
3.6614221e-08
-2.0110147e-09
3.7115241e-08
-2.2179758e-09
3.7511356e-08
-2.1180404e-09
3.7787377e-08
-1.914144e-09
3.8266695e-08
-2.1820588e-09
3.8567224e-08
-1.9502735e-09
3.8864769e-08
-1.928985e-09
3.9176392e-08
-1.9344647e-09
-1.8781381e-09
9.0696594e-09
-2.4238534e-09
9.4225159e-09
-2.4387858e-09
9.7845407e-09
-2.4811638e-09
1.0148791e-08
-2.4940361e-09
1.0518753e-08
-2.5302129e-09
1.0896102e-08
-2.5347576e-09
1.1274932e-08
-2.5695664e-09
1.1663586e-08
-2.5749872e-09
1.2052296e-08
-2.6073532e-09
1.2451033e-08
-2.6200866e-09
1.2849943e-08
-2.6393533e-09
1.3257366e-08
-2.6616519e-09
1.3668617e-08
-2.6728009e-09
1.4082927e-08
-2.6979604e-09
1.4505544e-08
-2.7031915e-09
1.4927838e-08
-2.7308686e-09
1.5360659e-08
-2.7322058e-09
1.5790457e-08
-2.7619396e-09
1.6232462e-08
-2.7612814e-09
1.6674566e-08
-2.7907244e-09
1.7118537e-08
-2.7880648e-09
1.7570904e-08
-2.802749e-09
1.8023549e-08
-2.8270341e-09
1.848825e-08
-2.8278041e-09
1.8940238e-08
-2.8411518e-09
1.9409338e-08
-2.835442e-09
1.9868382e-08
-2.8516894e-09
2.0342893e-08
-2.8640908e-09
2.0803083e-08
-2.8597119e-09
2.1291025e-08
-2.8876162e-09
2.1743821e-08
-2.8580775e-09
2.2228447e-08
-2.8777302e-09
2.2691362e-08
-2.8739404e-09
2.317681e-08
-2.881833e-09
2.3634663e-08
-2.884006e-09
2.4131963e-08
-2.890249e-09
2.4581771e-08
-2.87875e-09
2.5066224e-08
-2.8525569e-09
2.5534513e-08
-2.9020241e-09
2.6003479e-08
-2.8405403e-09
2.6490718e-08
-2.9016922e-09
2.6936392e-08
-2.8329874e-09
2.7445627e-08
-2.8902323e-09
2.7872401e-08
-2.8344909e-09
2.8375407e-08
-2.8537484e-09
2.8771826e-08
-2.7721142e-09
2.9289621e-08
-2.8568837e-09
2.9760359e-08
-2.8727801e-09
3.0233245e-08
-2.788577e-09
3.0716761e-08
-2.859912e-09
3.1167482e-08
-2.747874e-09
3.1655797e-08
-2.8644969e-09
3.1984107e-08
-2.58116e-09
3.2525634e-08
-2.918536e-09
3.2685947e-08
-2.3908298e-09
3.2941253e-08
-2.5405562e-09
3.3384511e-08
-2.7677951e-09
3.3281173e-08
-2.1280835e-09
3.2613874e-08
-1.5008288e-09
3.3197591e-08
-2.8986209e-09
3.3833533e-08
-2.9211417e-09
3.3842059e-08
-2.1336279e-09
3.4235246e-08
-2.7115484e-09
3.4449631e-08
-2.4049601e-09
3.4376742e-08
-2.00318e-09
3.4596511e-08
-2.4901351e-09
3.431318e-08
-1.7276839e-09
3.4467264e-08
-2.3720596e-09
3.4478804e-08
-2.129581e-09
3.3930078e-08
-1.3654174e-09
3.4091974e-08
-2.3439546e-09
3.3739501e-08
-1.5978011e-09
3.3480492e-08
-1.6699759e-09
3.3260846e-08
-1.714818e-09
-1.5733426e-09
9.0431963e-09
-2.7956993e-09
9.4131403e-09
-2.8087299e-09
9.7987042e-09
-2.8667277e-09
1.0180938e-08
-2.8762704e-09
1.057638e-08
-2.9256545e-09
1.0974027e-08
-2.9324041e-09
1.1378934e-08
-2.9744739e-09
1.1791373e-08
-2.987426e-09
1.2206059e-08
-3.0220391e-09
1.2632972e-08
-3.0470001e-09
1.3057077e-08
-3.0634582e-09
1.3497089e-08
-3.1016633e-09
1.3933455e-08
-3.109167e-09
1.4383745e-08
-3.1482503e-09
1.4832608e-08
-3.1520546e-09
1.529244e-08
-3.1907007e-09
1.5755247e-08
-3.1950131e-09
1.6219476e-08
-3.2261689e-09
1.6697302e-08
-3.2391067e-09
1.7170244e-08
-3.2636672e-09
1.7651551e-08
-3.2693711e-09
1.8131062e-08
-3.2822602e-09
1.862311e-08
-3.3190816e-09
1.9109943e-08
-3.314638e-09
1.9601088e-08
-3.332296e-09
2.0083362e-08
-3.317716e-09
2.0586084e-08
-3.3544119e-09
2.1063115e-08
-3.3411221e-09
2.1562598e-08
-3.3591944e-09
2.2059008e-08
-3.3840264e-09
2.2534729e-08
-3.3337988e-09
2.303219e-08
-3.3751912e-09
2.3515933e-08
-3.3576827e-09
2.4018446e-08
-3.3843457e-09
2.4475612e-08
-3.3411721e-09
2.5002661e-08
-3.4172983e-09
2.5409352e-08
-3.2854412e-09
2.5958e-08
-3.4012045e-09
2.6419444e-08
-3.3634688e-09
2.6935861e-08
-3.3569568e-09
2.7385879e-08
-3.3517102e-09
2.7817223e-08
-3.2643316e-09
2.8203642e-08
-3.2766514e-09
2.8546429e-08
-3.177278e-09
2.8449213e-08
-2.7565322e-09
2.8384579e-08
-2.7074799e-09
2.8622785e-08
-3.0950897e-09
2.9106788e-08
-3.3567833e-09
2.9134614e-08
-2.8164034e-09
2.9239924e-08
-2.965222e-09
2.9183198e-08
-2.6911473e-09
2.9159726e-08
-2.8410257e-09
2.8757019e-08
-2.1784525e-09
2.865369e-08
-2.8152068e-09
2.7915267e-08
-1.6524076e-09
2.7244095e-08
-1.8693842e-09
2.6874106e-08
-2.3978062e-09
2.6033882e-08
-1.2878591e-09
2.5246148e-08
-7.1309437e-10
2.4216098e-08
-1.8685713e-09
2.2729602e-08
-1.4346458e-09
2.1837164e-08
-1.2411896e-09
2.0733159e-08
-1.6075431e-09
1.9418101e-08
-1.0899029e-09
1.8266949e-08
-8.520277e-10
1.7081385e-08
-1.3045707e-09
1.5874007e-08
-5.2030603e-10
1.4092579e-08
-5.9063155e-10
1.3272342e-08
-1.3093443e-09
1.2230256e-08
-3.2333116e-10
1.1139513e-08
-1.2532116e-09
1.0513027e-08
-9.7131505e-10
1.0107133e-08
-1.2640822e-09
9.3926617e-09
-1.0003466e-09
-1.3355335e-09
8.960465e-09
-3.1846588e-09
9.3485722e-09
-3.1968371e-09
9.7537933e-09
-3.2719488e-09
1.0154701e-08
-3.2771777e-09
1.0573138e-08
-3.3440914e-09
1.0989791e-08
-3.3490578e-09
1.1421214e-08
-3.4058962e-09
1.1853134e-08
-3.4193469e-09
1.2298069e-08
-3.466974e-09
1.2745584e-08
-3.494515e-09
1.3201899e-08
-3.5197729e-09
1.3666174e-08
-3.5659385e-09
1.4133904e-08
-3.5768965e-09
1.4614459e-08
-3.6288057e-09
1.5090539e-08
-3.6281346e-09
1.5586407e-08
-3.686569e-09
1.6071446e-08
-3.6800517e-09
1.6572945e-08
-3.7276677e-09
1.7067477e-08
-3.7336389e-09
1.7577364e-08
-3.7735545e-09
1.8066402e-08
-3.7584086e-09
1.8579757e-08
-3.7956155e-09
1.9074202e-08
-3.8135262e-09
1.9585694e-08
-3.8261308e-09
2.0080158e-08
-3.82676e-09
2.0566792e-08
-3.8043499e-09
2.1090613e-08
-3.8782326e-09
2.1552793e-08
-3.8033027e-09
2.2071585e-08
-3.8779858e-09
2.2545505e-08
-3.8579468e-09
2.3047065e-08
-3.8353593e-09
2.3526697e-08
-3.8548223e-09
2.4046546e-08
-3.8775326e-09
2.4445943e-08
-3.7837429e-09
2.481177e-08
-3.7069989e-09
2.4854388e-08
-3.4599161e-09
2.4731054e-08
-3.1621069e-09
2.5039609e-08
-3.7097594e-09
2.5110608e-08
-3.4344684e-09
2.5244486e-08
-3.4908341e-09
2.4995653e-08
-3.1028778e-09
2.4718703e-08
-2.987381e-09
2.4199052e-08
-2.7570008e-09
2.3613172e-08