/*--------------------------------*- C++ -*----------------------------------*\
| =========                 |                                                 |
| \\      /  F ield         | OpenFOAM: The Open Source CFD Toolbox           |
|  \\    /   O peration     | Version:  2.3.0                                 |
|   \\  /    A nd           | Web:      www.OpenFOAM.org                      |
|    \\/     M anipulation  |                                                 |
\*---------------------------------------------------------------------------*/
FoamFile
{
    version     2.0;
    format      ascii;
    class       volScalarField;
    location    "0.014";
    object      alpha.water;
}
// * * * * * * * * * * * * * * * * * * * * * * * * * * * * * * * * * * * * * //

dimensions      [0 0 0 0 0 0 0];

internalField   nonuniform List<scalar> 
725
(
1
1
0.999989
0.999999
0.990215
1
1
0.999998
1
0.993476
1
1
0.999999
1.00001
1
1
1
0.999998
1.00002
1
1
1
1.00001
1.00001
0.801249
0.812341
0.186595
0.204807
0.794672
0.999946
0.999873
0.999888
0.999968
0.999996
1
0.968227
0.302135
0.0003447
0.00039902
0.000327689
0.000168726
0.130837
0.982673
0.999982
0.999841
0.999889
0.999927
0.999955
0.999976
0.999987
0.999993
0.999995
0.999996
0.999996
0.999997
0.999998
0.999999
0.999999
0.999999
0.999999
1
1
1
1
1
1
1
1
1
1
0.675484
0.161731
0.204921
0.811704
0.999948
0.999747
0.999738
0.999842
1.00001
1.00004
0.963885
0.315903
0.000234238
0.000315793
0.000221272
0.000168724
0.126697
0.990659
0.999983
0.999745
0.99967
0.999633
0.99962
0.999631
0.999662
0.999703
0.999741
0.999773
0.999799
0.999823
0.999845
0.999864
0.99988
0.999894
0.999909
0.999923
0.999937
0.999948
0.999958
0.999967
0.999973
0.999979
0.999983
0.999986
0.999988
0.162867
0.0318063
0.199775
0.91561
0.999949
0.999802
0.999709
0.999797
0.99988
1
0.965972
0.336306
0.000193502
0.000189591
0.000171767
0.00017018
0.124727
0.999985
0.999982
0.999922
0.999708
0.999673
0.999632
0.99958
0.999531
0.999497
0.999477
0.999473
0.99949
0.999528
0.99958
0.999635
0.999684
0.999723
0.999755
0.999782
0.999802
0.999815
0.999822
0.999828
0.999832
0.999837
0.999843
0.999848
0.999852
0.0345878
0.0223041
0.116938
0.962142
0.99995
0.999872
0.999671
0.999742
0.999849
1
0.970835
0.367286
0.000478761
0.000176702
0.000173126
0.0001751
0.153947
0.990297
1
0.99969
0.999722
0.999667
0.999649
0.999615
0.99957
0.999515
0.999454
0.99939
0.999333
0.999294
0.999279
0.999292
0.999322
0.999368
0.999427
0.999497
0.999569
0.999637
0.999697
0.999791
0.999852
0.99984
0.999832
0.999824
0.999818
0.00155369
0.021349
0.336643
0.99995
0.999952
0.999896
0.999594
0.999522
0.999766
1
0.988091
0.398811
0.00053845
0.00020289
0.000321636
0.000282262
0.212449
0.954966
1
0.999675
0.999595
0.999581
0.999549
0.999512
0.999474
0.999439
0.999401
0.999357
0.999309
0.999261
0.99922
0.999195
0.999189
0.999205
0.999246
0.999306
0.999377
0.999452
0.999521
0.999582
0.999632
0.999671
0.999698
0.999734
0.999777
1.04862e-05
0.0501306
0.678672
0.999302
0.999958
0.999904
0.999626
0.99952
0.999759
1
0.98187
0.384562
0.00113077
0.00203736
0.000559825
0.000768673
0.246252
0.876258
0.999952
0.999492
0.999551
0.999541
0.999506
0.999464
0.999403
0.999389
0.999366
0.999336
0.999301
0.999258
0.999215
0.999183
0.999168
0.999171
0.999198
0.999248
0.999315
0.999389
0.999464
0.999534
0.999595
0.999645
0.999685
0.999718
0.999744
1.10559e-05
0.0883957
0.838367
0.985535
1.00002
1.00002
0.999682
0.999536
0.999741
1.00002
0.986349
0.371952
0.00229806
0.00456598
0.0024617
0.00209838
0.254805
0.860326
0.999625
0.999451
0.999573
0.999575
0.999522
0.999467
0.999641
0.999433
0.999436
0.999418
0.999379
0.999325
0.999266
0.999214
0.999184
0.999181
0.999206
0.999254
0.99932
0.999394
0.999469
0.999539
0.9996
0.99965
0.99969
0.999722
0.999746
0.0186146
0.1533
0.837256
0.962048
0.999931
0.99987
0.999748
0.999573
0.999748
1.00006
0.989534
0.376382
0.00181128
0.00341348
0.000959481
0.00156977
0.267069
0.844007
0.999926
0.999505
0.999623
0.999622
0.999555
0.999486
0.999419
0.999413
0.999401
0.999377
0.999342
0.999297
0.999248
0.999206
0.999179
0.999174
0.999196
0.999242
0.999307
0.999381
0.999456
0.999528
0.999592
0.999645
0.999689
0.999722
0.999748
0.0380707
0.311546
0.840639
0.951178
1
0.999989
0.999779
0.999652
0.999813
1.00004
0.991326
0.390745
0.000689611
0.000402003
0.000451408
0.000802926
0.293969
0.844967
0.999984
0.999977
0.999775
0.999691
0.9996
0.999522
0.999471
0.99944
0.999418
0.999395
0.999363
0.999318
0.999266
0.999218
0.999186
0.999179
0.999199
0.999245
0.99931
0.999384
0.999461
0.999533
0.999597
0.999651
0.999694
0.999727
0.999753
0.0470448
0.56441
0.879814
0.98085
0.999934
0.999752
0.999965
0.999768
0.999821
1.00008
0.987991
0.374436
0.000283714
0.000297341
0.000391478
0.000362398
0.34509
0.831434
0.999958
0.999499
0.999711
0.9997
0.999633
0.999564
0.999498
0.999461
0.999442
0.999423
0.999396
0.999352
0.999295
0.999244
0.999209
0.999204
0.999229
0.999279
0.999346
0.999419
0.999492
0.999559
0.999616
0.999659
0.999689
0.999705
0.999744
1
1
1
1.00004
0.901642
1
1
1
1.00007
0.995256
1
1
1
1.00009
1
1
1
1
1.0002
0.997972
1
1
1
1
0.992337
0.0862891
0.53011
0.877774
0.991691
0.999985
0.999918
0.999797
0.999001
0.999365
1
0.99458
0.379916
0.000301296
0.000299228
0.00031227
0.000322079
0.376856
0.87767
0.999922
0.999764
0.999771
0.999723
0.999661
0.999614
0.999655
0.999651
0.999627
0.999593
0.999548
0.999492
0.999435
0.999386
0.999356
0.999355
0.999379
0.99942
0.999472
0.999525
0.999575
0.999617
0.999651
0.999677
0.999709
0.999863
0.999856
0.66831
0.843905
0.984425
0.999986
0.999986
0.999159
0.998467
0.998453
0.999254
1
1
0.371212
0.000299749
0.000297601
0.000333
0.000334831
0.354681
0.895509
0.999893
0.999793
0.999777
0.999743
0.999709
0.999684
0.999662
0.999635
0.999603
0.999566
0.99953
0.999502
0.999486
0.999487
0.999508
0.99955
0.999605
0.999661
0.99971
0.999751
0.999819
0.999854
0.999842
0.999833
0.999822
0.999811
0.999798
0.928208
0.927944
0.981738
0.999983
0.999976
0.999356
0.998976
0.999235
0.999637
0.999964
1
0.356625
0.000299397
0.00029726
0.000299092
0.00102717
0.396721
0.94533
0.99983
0.999794
0.999982
0.999726
0.999695
0.99968
0.999663
0.999639
0.999616
0.999602
0.999601
0.999612
0.999632
0.99966
0.999692
0.999726
0.999756
0.999778
0.99979
0.999795
0.999795
0.999791
0.999785
0.999779
0.999775
0.999776
0.99978
0.918937
0.967773
0.978062
0.992877
0.999962
0.999729
0.999619
0.999768
0.999869
0.999989
1
0.338861
0.000298381
0.000296615
0.00030309
0.000300977
0.400455
0.982241
0.999805
0.999791
0.999759
0.999726
0.99971
0.999712
0.999725
0.999739
0.999753
0.999768
0.999781
0.999792
0.999802
0.999812
0.999824
0.999838
0.999854
0.999869
0.999885
0.9999
0.999914
0.999927
0.999939
0.999949
0.999958
0.999967
0.999975
0.956032
0.987184
0.978135
0.988895
0.999962
0.999872
0.999957
1
1.00002
1.00003
1
0.339857
0.000298267
0.000298267
0.000300919
0.000300971
0.430277
0.998224
0.99981
0.999834
0.999888
0.999929
0.999954
0.999969
0.999978
0.999982
0.999986
0.999989
0.999991
0.999993
0.999994
0.999995
0.999996
0.999997
0.999998
0.999999
0.999999
0.999999
0.999999
0.999999
1
1
1
1
1
)
;

boundaryField
{
    AirInlet
    {
        type            fixedValue;
        value           uniform 0;
    }
    WaterInlet
    {
        type            fixedValue;
        value           uniform 1;
    }
    ChannelWall
    {
        type            zeroGradient;
    }
    Outlet
    {
        type            inletOutlet;
        inletValue      uniform 0;
        value           nonuniform List<scalar> 
15
(
1
0.999988
0.999852
0.999818
0.999777
0.999744
0.999746
0.999748
0.999753
0.999744
0.999856
0.999798
0.99978
0.999975
1
)
;
    }
    FrontAndBack
    {
        type            empty;
    }
}


// ************************************************************************* //
