/*--------------------------------*- C++ -*----------------------------------*\
| =========                 |                                                 |
| \\      /  F ield         | OpenFOAM: The Open Source CFD Toolbox           |
|  \\    /   O peration     | Version:  2.3.0                                 |
|   \\  /    A nd           | Web:      www.OpenFOAM.org                      |
|    \\/     M anipulation  |                                                 |
\*---------------------------------------------------------------------------*/
FoamFile
{
    version     2.0;
    format      ascii;
    class       volScalarField;
    location    "0.014";
    object      alpha.water;
}
// * * * * * * * * * * * * * * * * * * * * * * * * * * * * * * * * * * * * * //

dimensions      [0 0 0 0 0 0 0];

internalField   nonuniform List<scalar> 
725
(
1
1
1
1.00006
1
1
1
1
1.00001
1
1
1
1
1.00002
1
1
1
1
1.00001
1
1
1
1
1.00001
0.736132
0.942214
0.684524
0.659042
0.874396
0.999778
0.999418
0.999336
0.999413
0.999588
0.999721
0.999803
0.999871
0.999929
0.999968
0.999985
0.999997
1.00001
1.00002
1
0.907747
0.869669
0.86959
0.869561
0.939977
0.999956
0.999958
0.999997
0.993684
0.9848
0.984725
0.994295
0.995148
0.916773
0.909891
0.909891
0.929772
0.996417
0.999673
0.999606
0.999627
0.999632
0.999998
0.807051
0.0311567
0.00096992
1
0.522573
0.582751
0.881609
0.999774
0.999772
0.999751
0.999412
0.99936
0.999468
0.999653
0.999807
0.999898
0.999943
0.999967
0.999955
0.999983
0.999947
1
0.927443
0.869676
0.869594
0.869557
0.92764
0.99978
0.99997
0.999962
0.999983
0.999433
0.992186
0.994615
0.998
0.937566
0.909894
0.909891
0.925428
0.995
0.999751
0.999618
0.999677
0.999847
0.999999
0.843677
0.0463564
0.00147173
0.602568
0.324306
0.427194
0.968131
0.999771
0.999772
0.999758
0.999754
0.999566
0.999605
0.999592
0.999617
0.999704
0.999805
0.999957
0.999957
0.997708
0.999201
1
0.954357
0.869603
0.869532
0.869426
0.937638
0.999915
0.99995
0.999867
0.999917
1
0.997192
0.997027
0.998054
0.949189
0.909899
0.909893
0.927626
0.995306
0.999824
0.999578
0.999731
0.999887
0.999999
0.932817
0.156202
0.00299014
0.0232229
0.131749
0.273047
0.999279
0.999751
0.999681
0.998877
0.998853
0.999892
0.999915
0.999869
0.999815
0.999789
0.999786
0.999958
0.996395
0.990602
0.993932
0.999994
0.989661
0.878522
0.869473
0.869336
0.965196
0.999916
0.999923
0.999807
0.999797
1.00001
0.999423
0.998107
0.998092
0.964
0.909897
0.909896
0.933747
0.996991
0.999888
0.999633
0.99979
0.999959
0.999999
0.982596
0.195026
0.00567847
0.012531
0.0241236
0.489746
0.955311
0.991781
0.93902
0.996997
0.998448
0.999352
0.999041
0.99921
0.999827
0.999856
0.999861
0.999957
0.992484
0.990606
0.992894
0.996716
0.991314
0.932885
0.927421
0.893762
0.976066
0.999901
0.999907
0.999752
0.999759
1
0.999629
0.999623
0.98624
0.985014
0.931048
0.909898
0.936799
0.997784
1.00001
0.999824
0.999879
0.999931
0.999936
0.999938
0.387697
0.000604744
2.64165e-05
0.0258621
0.494725
0.815422
0.909465
0.753312
0.962206
0.996041
0.998731
0.99904
0.999117
0.999607
0.999822
1.00029
0.997345
0.996622
0.997181
0.987488
0.985903
0.986986
0.983159
0.987879
0.979755
0.982782
0.999326
0.999907
0.999702
0.999803
0.986161
0.997502
0.99893
0.989104
0.994933
0.90999
0.909917
0.945027
0.999139
1.00015
0.999939
0.999907
0.999931
0.99992
0.997052
0.51788
0.0208962
3.49673e-05
0.0510102
0.385136
0.610144
0.797049
0.73232
0.953713
0.999112
0.99931
0.999189
0.999206
0.999513
1.00028
0.998181
0.995057
0.997888
0.997877
0.985893
0.985881
0.989974
0.989876
0.987911
0.987861
0.9818
0.996383
0.999853
0.999655
0.999904
0.938748
0.984576
0.99826
0.995849
0.995337
0.909942
0.909935
0.946859
0.999247
1.00015
0.999952
0.999921
0.999932
0.999942
0.998489
0.560922
0.0424587
0.011339
0.122785
0.462533
0.511859
0.663307
0.725085
0.999275
0.999284
0.999664
0.999713
0.99948
0.999613
1.00013
0.99953
0.997274
0.998301
0.99335
0.985892
0.985888
0.990001
0.976352
0.990811
0.98255
0.963762
0.988482
0.998878
0.999252
0.999901
0.911455
0.962926
0.99743
0.997621
0.992151
0.91603
0.909935
0.953381
0.999332
1.00017
0.999972
0.999934
0.999937
1.00001
1
0.602142
0.0661454
0.0385449
0.160414
0.640236
0.692363
0.667172
0.903391
0.998514
0.998055
0.99959
0.999737
0.999619
0.999712
0.999908
0.999745
1.00009
0.998378
0.986343
0.985928
0.989545
0.989975
0.974251
0.998196
0.963757
0.963754
0.982902
0.999023
0.999723
0.999951
0.908913
0.950569
0.997099
0.99765
0.921437
0.910068
0.909994
0.957773
0.999967
1.00014
0.999986
1.00002
0.999956
0.999949
1
0.674012
0.0750613
0.0896667
0.238098
0.776238
0.864423
0.722439
0.960993
0.998499
0.998054
0.999306
0.999566
0.999622
0.999713
0.999841
0.999766
0.99967
0.994833
0.986012
0.985971
0.989931
0.988033
0.97426
0.998268
0.964001
0.963765
0.979605
0.99987
1.00017
1.00001
0.907823
0.935647
0.996807
0.997645
0.951677
0.910633
0.910043
0.959029
1.00002
1.00014
0.999986
0.999922
0.999948
0.99998
1
0.775858
0.0875546
1
1
1
1.00001
0.968836
1
1
1
1.00002
1
1
1
1
1.00001
1.00001
1
1
1
1.00002
1
1
1
1
1.00001
0.986215
0.324166
0.414213
0.820722
0.89606
0.815898
0.968875
0.998509
0.998071
0.999644
0.999795
0.999817
0.999828
0.999846
0.999924
1
0.994458
0.986635
0.990978
0.986094
0.986102
0.997112
0.999599
0.985643
0.991801
0.993118
0.999336
1
0.997356
0.905476
0.897191
0.925702
0.997484
0.998064
0.946571
0.945798
0.975636
0.999628
1.00001
1.00002
0.999766
0.9998
0.999962
1
0.882125
0.145528
0.569778
0.568511
0.855306
0.992047
0.916918
0.968906
0.999136
0.999175
0.999787
0.9999
0.999921
0.999921
0.999928
1
1.00004
0.999431
0.99136
0.991857
0.98833
0.990069
0.997657
0.999658
0.999732
0.999731
0.999268
0.999586
0.999998
0.971276
0.897192
0.897183
0.897175
0.964928
0.998241
0.999149
0.999692
0.999956
0.9999
0.999913
0.999941
0.999762
0.9997
0.999836
0.999999
0.939283
0.245906
0.569344
0.749097
0.91338
0.995792
0.996414
0.996417
0.996385
0.99915
1.00001
1.00002
0.999981
0.999962
0.999963
0.999976
0.999882
0.999935
0.99974
0.998392
0.998587
0.999309
0.999345
0.999195
0.999199
0.99973
0.999697
0.999799
1
0.952256
0.897185
0.897179
0.897178
0.922596
0.995398
0.999901
0.999901
0.999953
0.999976
0.999966
0.999963
0.999895
0.999811
0.999847
0.999996
0.999018
0.430964
0.64636
0.855363
0.954302
0.987775
0.995321
0.994783
0.994835
0.999217
1.00001
1.00004
1.00003
1.00003
1.00003
1.00005
1.00008
1.00007
1.00012
1
0.999886
0.999443
0.999428
0.999428
0.999511
0.999694
0.99982
0.999943
1
0.934009
0.897182
0.897178
0.897178
0.91711
0.996062
0.999902
0.999897
0.999902
0.999903
0.999914
0.999934
0.999939
0.999914
0.999916
1.00001
1
0.772725
0.933419
0.963805
0.971986
0.979312
0.992308
0.993714
0.997548
0.999867
0.999894
0.99991
0.999901
0.999868
0.999816
0.999743
0.999683
0.999669
0.99969
0.999656
0.99961
0.999657
0.999748
0.999852
0.999914
0.999965
1.00001
1.00002
1
0.914374
0.89718
0.897178
0.897178
0.930585
0.998446
0.99987
0.999864
0.999895
0.999926
0.999954
0.999971
0.999977
0.999976
0.999981
1
0.995148
0.832646
)
;

boundaryField
{
    AirInlet
    {
        type            fixedValue;
        value           uniform 0;
    }
    WaterInlet
    {
        type            fixedValue;
        value           uniform 1;
    }
    ChannelWall
    {
        type            zeroGradient;
    }
    Outlet
    {
        type            inletOutlet;
        inletValue      uniform 0;
        value           nonuniform List<scalar> 
15
(
0.00096992
0.00147173
0.00299014
0.00567847
0
0.0208962
0.0424587
0.0661454
0.0750613
0.0875546
0.145528
0
0
0
0.832646
)
;
    }
    FrontAndBack
    {
        type            empty;
    }
}


// ************************************************************************* //
