/*--------------------------------*- C++ -*----------------------------------*\
| =========                 |                                                 |
| \\      /  F ield         | OpenFOAM: The Open Source CFD Toolbox           |
|  \\    /   O peration     | Version:  2.3.0                                 |
|   \\  /    A nd           | Web:      www.OpenFOAM.org                      |
|    \\/     M anipulation  |                                                 |
\*---------------------------------------------------------------------------*/
FoamFile
{
    version     2.0;
    format      ascii;
    class       volScalarField;
    location    "0.014";
    object      p;
}
// * * * * * * * * * * * * * * * * * * * * * * * * * * * * * * * * * * * * * //

dimensions      [1 -1 -2 0 0 0 0];

internalField   nonuniform List<scalar> 
725
(
537.501
524.803
447.762
621.437
538.512
531.567
523.655
443.424
585.456
376.24
528.776
520.268
438.518
538.086
311.836
528.953
515.217
433.406
497.173
425.898
532.425
511.191
437.094
499.569
339.887
1445.54
545.009
521.552
-262.867
-166.977
-20.332
19.377
26.9187
17.0885
-4.51266
-83.6695
-58.0418
-1.87378
-6.03069
-1.87441
-2.47351
-14.0647
-43.8315
-5.2383
13.471
20.9281
26.828
28.9701
29.5776
29.2923
28.2924
27.1115
25.8484
24.5365
23.164
21.7029
20.1788
18.7031
17.2801
15.8606
14.3689
12.8153
11.2268
9.63797
8.07679
6.536
4.9962
3.47339
1.97348
0.568655
473.083
577.004
463.364
-71.6618
-93.1548
-9.82166
20.9757
28.9963
21.3702
5.02969
-59.679
-52.7891
-2.23261
-6.68242
-1.36156
-1.79619
-26.606
-47.6825
-6.44847
12.8707
20.4734
25.7596
27.6642
28.1511
27.9674
27.1053
26.0538
24.8983
23.6768
22.3923
21.0211
19.5777
18.1593
16.7851
15.4148
13.976
12.4754
10.9359
9.38713
7.85768
6.3447
4.83032
3.33208
1.84852
0.450784
640.538
851.091
385.851
-53.501
-90.4439
5.65808
25.4925
33.7879
27.633
23.4867
-8.08369
-51.5932
-2.78529
-7.13343
-0.154134
-0.720994
-49.2567
-18.5556
-3.71507
15.3343
21.1077
26.1228
27.8774
28.2643
28.1579
27.1783
26.0547
24.8582
23.6144
22.3197
20.9415
19.4952
18.0689
16.6993
15.3349
13.892
12.3872
10.8454
9.29726
7.7728
6.25732
4.73983
3.24488
1.75707
0.365673
1098.27
937.874
497.862
-365.843
-94.4988
19.2283
32.2564
40.0907
35.4936
48.5684
116.887
74.789
-3.69962
-8.39947
0.71456
0.170848
-62.2065
86.4402
1.29503
16.1711
22.5897
27.0286
28.3975
28.3882
28.2671
27.1776
26.0432
24.877
23.6469
22.3251
20.8985
19.4255
17.9776
16.6327
15.2868
13.8357
12.3196
10.7757
9.22347
7.6808
6.17238
4.64639
3.14625
1.65099
0.289048
1193.19
920.667
-352.732
-197.076
-31.7184
29.4668
37.6859
48.5278
41.1285
62.2938
141.783
269.572
-3.87134
-11.2569
0.645846
1.84857
-42.1678
57.5254
-15.3056
17.3809
24.3572
28.899
29.1404
28.5203
29.1388
27.7578
26.4277
25.0893
23.7902
22.5606
21.3618
20.0712
18.4157
16.6378
15.3186
13.8627
12.3348
10.7859
9.22411
7.65824
6.12909
4.65563
3.22878
1.61836
0.204101
1260.45
805.929
303.937
39.9199
6.27854
27.2987
35.5584
52.9248
41.9777
68.183
56.3096
-126.117
7.70775
-20.7541
0.982081
3.98417
41.1646
1.3573
-49.288
16.7428
27.8049
30.4712
31.6025
31.1483
29.8348
27.812
26.5475
25.1218
23.7786
22.5151
21.2892
20.0528
19.0208
17.6293
15.7075
14.1941
12.6578
11.1093
9.5456
8.00211
6.49642
5.01057
3.53974
1.88167
0.351899
1263.44
674.077
1292.88
-28.5457
12.9743
29.835
35.2791
54.3149
42.3914
70.3587
25.3146
-232.446
14.058
58.164
59.4634
7.38473
43.6702
22.5292
-57.7689
18.8593
27.7061
30.9655
31.3499
31.0628
38.5714
27.9271
26.5577
25.3208
23.9997
22.6774
21.3803
20.0865
18.7028
17.3714
15.6548
14.1495
12.6128
11.0612
9.49199
7.93777
6.41589
4.91343
3.4219
1.77455
0.255629
1243.88
445.352
1476.37
107.339
12.8728
23.5923
35.4679
55.8774
42.4525
69.061
54.1047
-107.531
12.7443
20.3523
13.9506
7.82672
-41.2785
90.354
-57.6254
18.8878
28.505
31.5022
31.5484
31.0677
30.7604
27.9522
26.5453
25.2254
23.9193
22.6144
21.3414
20.0586
18.6828
17.4726
15.9102
14.4464
12.9236
11.3619
9.76016
8.1526
6.55677
4.96853
3.39877
1.75174
0.21012
1418.2
292.025
1456.84
445.95
13.4994
24.7983
35.9514
57.5957
44.2369
64.4481
83.4546
146.474
12.413
29.5401
16.0071
4.31887
-145.1
109.092
-49.3232
40.0601
29.4561
32.0688
31.8009
31.0905
29.0848
27.8664
26.514
25.1696
23.8516
22.5523
21.2813
20.0051
18.6483
17.3598
15.7986
14.3382
12.8134
11.2464
9.63124
8.01186
6.42223
4.87052
3.40259
1.7045
0.193408
1523.73
613.186
1148.76
-223.573
16.8809
24.7494
36.7408
63.4706
44.3388
59.72
67.9238
80.826
16.6985
28.9426
15.8982
1.29062
9.54218
210.035
-30.9533
25.035
28.4975
32.6318
32.0654
31.1171
28.3339
27.8366
26.4765
25.108
23.7973
22.5003
21.227
19.9511
18.6081
17.3062
15.7119
14.1864
12.6231
11.0429
9.44387
7.86003
6.30823
4.80022
3.42689
2.3141
0.26385
-155.627
-199.046
-195.84
-293.045
366.682
-159.498
-197.976
-206.207
-266.98
-207.886
-159.988
-196.981
-207.003
-230.045
-188.226
-157.421
-196.925
-208.881
-213.796
-230.095
-151.1
-197.305
-209.986
-203.349
-227.712
1509.71
905.925
1068.77
-114.249
27.0701
30.891
37.2971
28.5785
39.2748
46.4237
-3.05551
-78.752
22.9102
26.4501
14.6204
1.53448
542.221
42.3071
25.8269
37.2027
34.7985
34.344
32.8051
31.222
28.7383
27.746
26.4373
25.085
23.7687
22.453
21.1475
19.8416
18.5022
17.1593
15.6079
14.0667
12.5037
10.9254
9.3333
7.75997
6.21849
4.70591
3.1462
1.68718
0.207688
-335.517
374.963
794.679
92.1267
61.7533
44.6587
45.3105
40.6771
39.6803
45.0584
83.7984
70.0207
20.7956
25.4653
16.6875
9.63693
8.1355
24.6692
57.5213
55.2947
42.4465
37.3509
34.029
31.5855
29.1423
27.7568
26.3835
25.0284
23.7102
22.3718
21.0427
19.717
18.377
17.0097
15.4978
13.9593
12.393
10.8176
9.25556
7.70403
6.13154
4.56874
3.05891
1.6049
0.126773
-353.251
159.988
546.417
199.099
91.8168
55.6289
47.7759
38.2722
37.8499
36.7013
32.6801
13.8723
20.7861
24.147
18.1202
13.6574
45.4249
81.922
78.8586
66.0249
50.452
40.0066
35.125
31.9414
29.3879
27.7769
26.3355
24.939
23.5706
22.237
20.9217
19.6035
18.2712
16.8942
15.4033
13.8687
12.3027
10.729
9.16401
7.60003
6.03934
4.48957
2.9639
1.54687
0.0505635
-169.026
89.9708
404.566
197.232
101.799
60.3145
50.8992
41.4838
37.7121
28.5426
-10.6153
-24.6548
20.8435
23.0994
18.5148
14.4156
64.8769
213.301
106.964
75.9463
53.7041
41.8348
35.7414
32.0977
29.4396
27.6948
26.2242
24.8341
23.4741
22.1418
20.8282
19.5124
18.1835
16.7981
15.3132
13.7798
12.2164
10.6446
9.08024
7.51625
5.94928
4.3998
2.88153
1.451
-0.0230645
-101.711
121.232
360.071
210.258
103.184
65.3061
55.0342
44.9151
39.0034
26.0243
-7.80997
-6.44022
20.9423
22.5433
18.6082
12.6623
116.896
248.094
118.537
81.1952
55.1449
42.9554
36.8049
33.0694
30.3684
28.5686
27.0506
25.6116
24.2029
22.8312
21.4863
20.1403
18.7766
17.3359
15.7921
14.1967
12.5723
10.9425
9.32296
7.70668
6.09338
4.50614
2.96032
1.50141
-0.0148627
)
;

boundaryField
{
    AirInlet
    {
        type            calculated;
        value           nonuniform List<scalar> 5(1260.84 1263.51 1175.08 971.662 1909.48);
    }
    WaterInlet
    {
        type            calculated;
        value           nonuniform List<scalar> 10(537.503 531.573 528.787 528.967 532.443 -155.645 -159.512 -159.998 -157.427 -151.102);
    }
    ChannelWall
    {
        type            calculated;
        value           nonuniform List<scalar> 
110
(
532.399
511.16
437.06
499.531
339.854
-155.601
-199.016
-195.806
-293.007
366.719
-151.127
-197.335
-210.021
-203.387
-227.754
-101.753
121.188
360.028
210.214
103.14
65.262
54.9901
44.871
38.9592
25.9801
-7.85412
-6.45525
20.9422
22.5433
18.6081
12.6623
116.877
248.05
118.493
81.1511
55.1008
42.9112
36.7608
33.0253
30.3243
28.5245
27.0064
25.5675
24.1588
22.787
21.4421
20.0962
18.7325
17.2918
15.7479
14.1525
12.5281
10.8984
9.27881
7.66253
6.04924
4.462
2.91618
1.45726
-0.0590077
537.528
524.833
447.796
621.475
538.554
1445.57
545.017
521.561
-262.832
-166.933
-20.2878
19.4211
26.9628
17.1327
-4.46851
-83.6268
-58.0284
-1.87372
-6.03063
-1.87435
-2.47346
-14.0589
-43.7881
-5.19415
13.5152
20.9722
26.8721
29.0143
29.6217
29.3365
28.3365
27.1557
25.8925
24.5806
23.2082
21.7471
20.2229
18.7472
17.3243
15.9047
14.4131
12.8594
11.2709
9.68212
8.12093
6.58014
5.04035
3.51754
2.01762
0.6128
)
;
    }
    Outlet
    {
        type            calculated;
        value           nonuniform List<scalar> 
15
(
-0.044145
-0.132433
-0.220692
-0.308959
-0.397216
-0.451144
-0.470761
-0.490377
-0.509994
-0.529605
-0.583611
-0.671849
-0.760108
-0.848544
-0.936855
)
;
    }
    FrontAndBack
    {
        type            empty;
    }
}


// ************************************************************************* //
