/*--------------------------------*- C++ -*----------------------------------*\
| =========                 |                                                 |
| \\      /  F ield         | OpenFOAM: The Open Source CFD Toolbox           |
|  \\    /   O peration     | Version:  2.3.0                                 |
|   \\  /    A nd           | Web:      www.OpenFOAM.org                      |
|    \\/     M anipulation  |                                                 |
\*---------------------------------------------------------------------------*/
FoamFile
{
    version     2.0;
    format      ascii;
    class       volScalarField;
    location    "0.014";
    object      p;
}
// * * * * * * * * * * * * * * * * * * * * * * * * * * * * * * * * * * * * * //

dimensions      [1 -1 -2 0 0 0 0];

internalField   nonuniform List<scalar> 
725
(
340.365
171.594
116.894
131.614
61.8461
313.302
172.882
115.629
117.745
-2.41811
298.417
172.729
112.109
97.5319
-25.1748
295.864
167.904
106.174
81.2769
80.9272
303.887
161.162
96.9958
25.6379
127.175
468.197
21.3605
-307.975
191.425
264.218
-82.989
-345.955
-337.848
-321.89
-319.122
-314.666
-311.684
-312.82
-318.472
-323.712
-331.949
-330.477
-302.922
-276.48
-188.495
-121.837
-94.9017
-104.107
-244.323
-334.384
-380.177
-410.431
-388.503
-358.805
-411.53
-474.202
-500.436
-356.095
-482.636
-454.112
-512.734
-560.389
-587.17
-608.314
-640.283
-706.909
-833.537
-1073.34
-101.274
11.7864
571.457
-201.465
-450.346
240.979
293.221
-113.599
-389.796
-339.91
-317.479
-316.597
-313.523
-311.169
-312.176
-318.022
-323.628
-333.561
-335.902
-301.883
-270.514
-247.858
-125.108
-102.812
-90.3245
-239.856
-343.028
-380.754
-411.676
-416.085
-429.771
-455.554
-469.812
-491.799
-402.543
-502.454
-447.831
-507.998
-568.62
-587.731
-607.717
-637.482
-695.66
-792.824
-923.866
-138.711
7.06579
231.553
-45.3827
-91.2745
354.517
363.72
-193.178
-506.078
-336.645
-316.631
-315.168
-311.193
-308.098
-309.921
-317.017
-323.321
-336.305
-346.736
-301.566
-257.101
-281.678
-123.716
-112.566
-67.7123
-285.187
-337.311
-382.33
-414.966
-418.533
-436.011
-463.997
-463.099
-499.586
-402.247
-541.316
-438.29
-505.479
-569.195
-586.793
-604.309
-629.732
-675.702
-732.948
-690.819
-289.967
-0.384453
1492.12
604.246
404.41
828.908
532.277
-388.867
-717.571
-330.208
-314.691
-310.912
-306.404
-306.034
-308.795
-315.951
-319.67
-330.886
-305.576
-306.297
-234.964
-264.085
-145.268
-127.942
-18.9319
-341.705
-318.279
-385.704
-419.629
-421.41
-444.555
-459.401
-451.006
-524.589
-364.72
-617.353
-425.539
-502.08
-568.103
-584.742
-599.063
-618.119
-652.569
-703.915
-703.986
-523.303
-9.67373
1671.46
1734.61
350.579
1278.39
820.814
-683.287
-942.08
-306.041
-314.496
-299.97
-298.304
-302.16
-306.897
-314.944
-315.993
-294.131
-341.689
-309.646
-246.51
-289.04
-245.088
-269.872
-44.188
-386.626
-285.07
-397.46
-426.927
-421.916
-456.202
-464.719
-422.496
-509.95
-284.917
-629.992
-413.151
-491.454
-570.388
-581.858
-591.652
-604.035
-628.774
-693.886
-775.382
-1158.94
13.6636
2122.35
1815.04
-259.918
1076.75
871.772
-470.856
13.2883
-315.02
-295.042
-290.946
-292.183
-298.088
-305.946
-315.321
-313.408
-300.643
-124.787
-293.879
-226.086
-246.249
-250.294
-323.181
-2.54129
-183.452
-237.396
-419.809
-433.81
-419.003
-462.851
-472.484
-405.752
-539.234
-184.018
-308.543
-386.118
-508.047
-574.448
-579.025
-586.612
-594.774
-611.516
-684.198
-739.636
-972.583
-105.825
2125.27
1602.38
2409.17
1020.52
881.768
272.532
241.998
-316.123
-292.101
-287.823
-292.177
-294.374
-292.962
-252.302
-230.349
-298.165
-113.479
-281.727
-217.05
-273.473
-10.6664
-342.236
306.291
-226.379
-234.102
-429.386
-435.765
-418.226
-449.517
-466.524
-396.645
-529.203
-195.868
-306.132
-375.64
-511.236
-575.395
-577.999
-584.779
-591.348
-605.086
-677.777
-722.303
-882.093
-198.7
2054.77
1466.09
163.474
4563.95
1280.19
421.003
-54.3517
-302.181
-278.267
-284.841
-291.256
-296.161
-298.162
-298.424
-310.301
-282.849
-178.094
-280.74
-210.928
-279.941
-476.187
-363.438
155.574
-234.912
-216.45
-421.845
-424.909
-418.196
-408.292
-444.578
-376.368
-500.086
-291.165
-251.802
-362.897
-517.201
-574.917
-576.42
-582.807
-587.862
-598.581
-666.298
-694.757
-873.941
-177.887
2017.13
1512.24
31.6419
-1649.87
1210.14
356.665
-37.9786
-322.954
-276.47
-281.197
-290.069
-295.543
-299.88
-298.718
-303.923
-281.004
-182.801
-282.206
-198.91
-291.345
-394.669
-374.634
252.954
-248.136
-178.934
-434.349
-438.172
-418.932
-379.386
-434.21
-369.762
-493.592
1312.27
-186
-347.22
-503.268
-574.006
-576.129
-580.808
-581.284
-591.435
-655.197
-659.253
-958.299
-147.469
1954.65
1554.81
302.336
-1443.92
-571.615
364.527
-26.3776
-310.354
-274.051
-284.143
-288.858
-294.593
-299.175
-298.517
-314.258
-281.345
-183.65
-284.748
-174.783
-304.881
-398.88
-392.371
285.297
-269.807
-69.0021
-446.001
-435.021
-413.517
-373.285
-421.282
-372.045
-477.47
215.437
-211.115
-333.069
-498.283
-574.511
-575.186
-578.953
-581.138
-585.341
-640.876
-623.24
-816.034
-158.729
1099.08
956.285
903.876
896.885
1048.03
1090.67
961.365
904.847
882.871
943.237
1092.94
964.78
905.66
869.167
828.166
1107.61
964.084
906.359
865.888
748.784
1134.49
962.354
907.112
890.818
816.72
1644.56
1515.43
390.16
-990.806
-539.342
216.429
0.122736
-277.113
-267.752
-279.562
-285.268
-292.068
-296.593
-297.695
-305.39
-277.153
-226.615
-309.815
-359.264
-321.163
-425.161
-421.862
-712.981
-431.504
-560.229
-466.814
-434.715
-410.673
-384.626
-396.077
-486.389
-452.224
-662.412
-407.233
-515.745
-558.698
-577.617
-574.342
-573.747
-570.923
-568.164
-593.644
-526.017
-374.603
-343.576
1289.43
1225.55
362.48
-351.596
-407.687
56.7064
-19.7231
-231.547
-256.145
-271.372
-280.453
-288.442
-294.134
-295.478
-299.239
-306.767
-280.14
-315.542
-364.958
-362.303
-417.483
-449.928
-613.808
-472.537
-534.178
-474.724
-445.392
-445.951
-379.572
-397.287
-432.129
-487.194
-614.915
-427.77
-528.863
-580.095
-571.363
-569.182
-566.738
-556.629
-537.652
-525.109
-410.339
-86.1091
-467.152
1285.75
855.472
248.291
-126.049
-256.638
-86.6325
-56.0881
-202.376
-248.178
-266.142
-276.956
-285.421
-291.311
-293.789
-298.504
-305.179
-298.444
-321.648
-361.909
-374.997
-414.4
-459.983
-558.387
-495.122
-516.231
-476.558
-450.259
-434.559
-383.784
-393.624
-413.107
-401.9
-597.766
-466.426
-520.712
-564.198
-566.965
-566.034
-561.19
-545.615
-512.738
-465.622
-310.997
43.6459
-428.918
906.494
618.292
202.492
-137.673
-202.991
-118.714
-76.8229
-192.089
-243.56
-262.441
-274.055
-282.593
-288.713
-292.06
-297.674
-304.023
-301.953
-323
-354.064
-374.732
-413.734
-466.306
-532.368
-504.986
-508.243
-476.676
-454.803
-417.192
-385.268
-392.368
-403.679
-383.684
-582.356
-490.049
-517.992
-555.149
-564.368
-563.637
-556.696
-536.235
-493.408
-429.154
-286.988
62.1523
-210.112
1381.71
888.762
273.319
-67.2951
-187.062
-139.67
-99.6873
-190.065
-241.91
-261.095
-272.854
-281.457
-286.635
-290.299
-297.082
-306.107
-306.854
-323.798
-350.367
-373.306
-413.815
-468.366
-521.526
-508.719
-504.396
-476.248
-461.242
-364.816
-380.086
-393.086
-409.052
-418.708
-559.042
-487.719
-516.424
-551.246
-563.056
-562.719
-553.606
-529.588
-481.63
-411.516
-284.506
17.3099
-177.696
)
;

boundaryField
{
    AirInlet
    {
        type            calculated;
        value           nonuniform List<scalar> 5(2123.43 2125.66 2074.39 2055.46 2049.84);
    }
    WaterInlet
    {
        type            calculated;
        value           nonuniform List<scalar> 10(340.367 313.308 298.427 295.878 303.905 1099.06 1090.66 1092.93 1107.6 1134.49);
    }
    ChannelWall
    {
        type            calculated;
        value           nonuniform List<scalar> 
110
(
303.861
161.132
96.9618
25.5999
127.144
1099.11
956.315
903.91
896.923
1048.07
1134.46
962.323
907.077
890.78
816.678
1381.67
888.72
273.276
-67.3384
-187.106
-139.714
-99.7314
-190.109
-241.954
-261.139
-272.898
-281.501
-286.679
-290.343
-297.126
-306.152
-306.898
-323.842
-350.411
-373.35
-413.859
-468.411
-521.57
-508.764
-504.441
-476.292
-461.287
-364.856
-380.125
-393.126
-409.092
-418.749
-559.086
-487.763
-516.469
-551.29
-563.1
-562.763
-553.65
-529.632
-481.675
-411.56
-284.55
17.266
-177.733
340.392
171.624
116.928
131.652
61.8883
468.239
21.3907
-307.946
191.463
264.262
-82.9449
-345.911
-337.803
-321.846
-319.078
-314.622
-311.64
-312.776
-318.428
-323.667
-331.905
-330.433
-302.878
-276.436
-188.455
-121.798
-94.8633
-104.069
-244.281
-334.34
-380.132
-410.387
-388.459
-358.761
-411.486
-474.158
-500.392
-356.054
-482.596
-454.072
-512.693
-560.345
-587.126
-608.27
-640.239
-706.865
-833.492
-1073.31
-101.273
11.7865
)
;
    }
    Outlet
    {
        type            calculated;
        value           nonuniform List<scalar> 
15
(
-8.69193e-05
-0.000327148
-0.000880063
-0.00206199
-0.000397305
-0.00987143
-0.0204438
-0.0329024
-0.0387621
-0.0468645
-1.94685
-0.188402
-0.794854
-0.146438
-0.780225
)
;
    }
    FrontAndBack
    {
        type            empty;
    }
}


// ************************************************************************* //
