/*--------------------------------*- C++ -*----------------------------------*\
| =========                 |                                                 |
| \\      /  F ield         | OpenFOAM: The Open Source CFD Toolbox           |
|  \\    /   O peration     | Version:  2.3.0                                 |
|   \\  /    A nd           | Web:      www.OpenFOAM.org                      |
|    \\/     M anipulation  |                                                 |
\*---------------------------------------------------------------------------*/
FoamFile
{
    version     2.0;
    format      ascii;
    class       volScalarField;
    location    "0.014";
    object      p_rgh;
}
// * * * * * * * * * * * * * * * * * * * * * * * * * * * * * * * * * * * * * //

dimensions      [1 -1 -2 0 0 0 0];

internalField   nonuniform List<scalar> 
725
(
340.392
171.624
116.928
131.652
61.8883
313.381
172.974
115.732
117.859
-2.29147
298.55
172.881
112.281
97.7233
-24.9637
296.05
168.117
106.415
81.5449
81.2227
304.126
161.437
97.3051
25.9825
127.454
468.239
21.3907
-307.946
191.463
264.262
-82.9449
-345.911
-337.803
-321.846
-319.078
-314.622
-311.64
-312.776
-318.428
-323.667
-331.905
-330.433
-302.878
-276.436
-188.455
-121.798
-94.8633
-104.069
-244.281
-334.34
-380.132
-410.387
-388.459
-358.761
-411.486
-474.158
-500.392
-356.054
-482.596
-454.072
-512.693
-560.345
-587.126
-608.27
-640.239
-706.865
-833.492
-1073.31
-101.273
11.7865
571.589
-201.396
-450.268
241.096
293.353
-113.466
-389.664
-339.777
-317.347
-316.465
-313.39
-311.037
-312.044
-317.89
-323.496
-333.429
-335.769
-301.75
-270.382
-247.735
-124.993
-102.697
-90.2093
-239.734
-342.895
-380.622
-411.543
-415.953
-429.639
-455.423
-469.681
-491.667
-402.419
-502.334
-447.71
-507.875
-568.488
-587.599
-607.584
-637.35
-695.527
-792.692
-923.755
-138.705
7.06612
231.686
-45.311
-91.1801
354.731
363.94
-192.957
-505.857
-336.424
-316.41
-314.948
-310.972
-307.877
-309.701
-316.796
-323.1
-336.085
-346.515
-301.345
-256.88
-281.467
-123.524
-112.374
-67.5203
-284.98
-337.09
-382.109
-414.745
-418.312
-435.791
-463.777
-462.879
-499.366
-402.038
-541.115
-438.089
-505.274
-568.976
-586.572
-604.089
-629.512
-675.482
-732.728
-690.613
-289.933
-0.383573
1492.13
604.287
404.495
829.217
532.586
-388.559
-717.263
-329.899
-314.382
-310.603
-306.095
-305.725
-308.486
-315.642
-319.361
-330.578
-305.27
-305.989
-234.655
-263.779
-144.997
-127.673
-18.6632
-341.407
-317.97
-385.395
-419.32
-421.101
-444.246
-459.092
-450.697
-524.281
-364.422
-617.072
-425.258
-501.791
-567.795
-584.433
-598.754
-617.81
-652.26
-703.606
-703.683
-523.243
-9.67167
1671.47
1734.62
350.774
1278.77
821.208
-682.914
-941.684
-305.644
-314.099
-299.573
-297.907
-301.763
-306.5
-314.547
-315.595
-293.736
-341.295
-309.252
-246.114
-288.646
-244.718
-269.503
-43.8328
-386.238
-284.673
-397.063
-426.53
-421.518
-455.805
-464.322
-422.099
-509.558
-284.525
-629.622
-412.79
-491.081
-569.992
-581.461
-591.255
-603.637
-628.377
-693.489
-774.984
-1158.79
13.6642
2122.35
1815.06
-259.694
1077.12
872.182
-470.516
13.7225
-314.57
-294.591
-290.495
-291.733
-297.637
-305.494
-314.869
-312.958
-300.194
-124.337
-293.434
-225.641
-245.804
-249.85
-322.735
-2.09916
-183.009
-236.945
-419.358
-433.359
-418.552
-462.406
-472.034
-405.301
-538.787
-183.569
-308.132
-385.707
-507.621
-573.997
-578.574
-586.161
-594.323
-611.065
-683.747
-739.186
-972.349
-105.816
2125.27
1602.4
2409.35
1020.81
882.144
272.877
242.447
-315.652
-291.631
-287.352
-291.707
-293.903
-292.491
-251.832
-229.881
-297.695
-113.009
-281.263
-216.586
-273.006
-10.2003
-341.771
306.756
-225.917
-233.632
-428.915
-435.294
-417.755
-449.075
-466.061
-396.175
-528.734
-195.4
-305.704
-375.212
-510.79
-574.925
-577.528
-584.308
-590.877
-604.616
-677.306
-721.832
-881.829
-198.68
2054.78
1466.15
163.701
4564.21
1280.52
421.359
-53.8615
-301.69
-277.777
-284.35
-290.766
-295.671
-297.671
-297.934
-309.812
-282.359
-177.607
-280.257
-210.444
-279.455
-475.708
-362.952
156.056
-234.439
-215.965
-421.355
-424.419
-417.706
-407.845
-444.106
-375.879
-499.597
-290.678
-251.353
-362.451
-516.733
-574.427
-575.93
-582.316
-587.372
-598.09
-665.808
-694.267
-873.646
-177.854
2017.15
1512.32
31.9687
-1649.51
1210.48
357.126
-37.4693
-322.445
-275.96
-280.687
-289.559
-295.033
-299.37
-298.208
-303.413
-280.495
-182.298
-281.703
-198.405
-290.84
-394.172
-374.124
253.445
-247.644
-178.433
-433.84
-437.662
-418.422
-378.922
-433.725
-369.253
-493.083
1312.74
-185.536
-346.756
-502.78
-573.496
-575.619
-580.298
-580.774
-590.925
-654.687
-658.743
-957.955
-147.43
1954.69
1554.94
302.747
-1443.46
-571.232
365.036
-25.8486
-309.825
-273.522
-283.614
-288.328
-294.064
-298.645
-297.987
-313.729
-280.818
-183.127
-284.226
-174.259
-304.357
-398.364
-391.842
285.808
-269.296
-68.4831
-445.471
-434.491
-412.987
-372.804
-420.787
-371.517
-476.941
215.941
-210.632
-332.587
-497.774
-573.982
-574.657
-578.423
-580.608
-584.811
-640.347
-622.71
-815.623
-158.682
1099.82
956.992
904.547
897.522
1048.61
1091.47
962.133
905.588
883.584
943.922
1093.79
965.609
906.47
869.957
828.936
1108.51
964.974
907.237
866.754
749.638
1135.44
963.304
908.058
891.761
817.646
1644.75
1515.67
390.639
-990.283
-538.865
216.995
0.705562
-276.53
-267.169
-278.979
-284.684
-291.485
-296.009
-297.111
-304.807
-276.572
-226.039
-309.237
-358.689
-320.587
-424.579
-421.279
-712.406
-430.925
-559.649
-466.231
-434.131
-410.091
-384.098
-395.553
-485.849
-451.641
-661.83
-406.681
-515.193
-558.128
-577.034
-573.759
-573.163
-570.34
-567.581
-593.06
-525.434
-374.088
-343.491
1289.81
1225.93
363.055
-350.93
-407.07
57.3575
-19.0516
-230.875
-255.473
-270.7
-279.781
-287.77
-293.462
-294.806
-298.567
-306.095
-279.473
-314.875
-364.294
-361.638
-416.812
-449.256
-613.136
-471.865
-533.507
-474.052
-444.72
-445.298
-378.969
-396.684
-431.526
-486.545
-614.244
-427.099
-528.191
-579.423
-570.691
-568.51
-566.066
-555.957
-536.98
-524.437
-409.667
-85.4779
-466.986
1286.18
856.042
248.985
-125.292
-255.88
-85.8749
-55.3306
-201.617
-247.418
-265.381
-276.196
-284.661
-290.551
-293.029
-297.744
-304.419
-297.684
-320.889
-361.15
-374.238
-413.641
-459.223
-557.627
-494.362
-515.471
-475.798
-449.499
-433.835
-383.102
-392.941
-412.425
-401.198
-597.009
-465.665
-519.952
-563.438
-566.204
-565.274
-560.43
-544.855
-511.978
-464.862
-310.237
44.4054
-428.589
907.043
619.018
203.302
-136.834
-202.146
-117.87
-75.9787
-191.241
-242.711
-261.593
-273.206
-281.744
-287.865
-291.211
-296.826
-303.175
-301.104
-322.151
-353.216
-373.884
-412.886
-465.458
-531.52
-504.137
-507.395
-475.827
-453.954
-416.399
-384.506
-391.607
-402.917
-382.906
-581.511
-489.201
-517.143
-554.301
-563.52
-562.788
-555.848
-535.387
-492.559
-428.305
-286.139
63.0009
-209.456
1382.59
889.665
274.23
-66.3776
-186.133
-138.739
-98.7528
-189.129
-240.974
-260.158
-271.917
-280.52
-285.698
-289.362
-296.146
-305.171
-305.917
-322.861
-349.43
-372.37
-412.878
-467.43
-520.589
-507.783
-503.46
-475.311
-460.306
-363.959
-379.245
-392.246
-408.211
-417.836
-558.107
-486.782
-515.488
-550.309
-562.119
-561.782
-552.669
-528.651
-480.694
-410.579
-283.569
18.2423
-176.916
)
;

boundaryField
{
    AirInlet
    {
        type            fixedFluxPressure;
        gradient        nonuniform List<scalar> 5(107921 38399.3 1.96107e+06 3.83187e+06 9.51428e+06);
        value           nonuniform List<scalar> 5(2123.43 2125.66 2074.39 2055.46 2049.84);
    }
    WaterInlet
    {
        type            fixedFluxPressure;
        gradient        nonuniform List<scalar> 10(-0.0572674 -0.267652 -3.55873 -0.683412 -1.0564 0.0474102 -6.66844 -11.4081 -9.02964 -42.1108);
        value           nonuniform List<scalar> 10(340.392 313.381 298.55 296.05 304.126 1099.82 1091.47 1093.79 1108.51 1135.44);
    }
    ChannelWall
    {
        type            fixedFluxPressure;
        gradient        uniform 0;
        value           nonuniform List<scalar> 
110
(
304.126
161.437
97.3051
25.9825
127.454
1099.82
956.992
904.547
897.522
1048.61
1135.44
963.304
908.058
891.761
817.646
1382.59
889.665
274.23
-66.3776
-186.133
-138.739
-98.7528
-189.129
-240.974
-260.158
-271.917
-280.52
-285.698
-289.362
-296.146
-305.171
-305.917
-322.861
-349.43
-372.37
-412.878
-467.43
-520.589
-507.783
-503.46
-475.311
-460.306
-363.959
-379.245
-392.246
-408.211
-417.836
-558.107
-486.782
-515.488
-550.309
-562.119
-561.782
-552.669
-528.651
-480.694
-410.579
-283.569
18.2423
-176.916
340.392
171.624
116.928
131.652
61.8883
468.239
21.3907
-307.946
191.463
264.262
-82.9449
-345.911
-337.803
-321.846
-319.078
-314.622
-311.64
-312.776
-318.428
-323.667
-331.905
-330.433
-302.878
-276.436
-188.455
-121.798
-94.8633
-104.069
-244.281
-334.34
-380.132
-410.387
-388.459
-358.761
-411.486
-474.158
-500.392
-356.054
-482.596
-454.072
-512.693
-560.345
-587.126
-608.27
-640.239
-706.865
-833.492
-1073.31
-101.273
11.7865
)
;
    }
    Outlet
    {
        type            totalPressure;
        rho             rho;
        psi             none;
        gamma           1;
        p0              uniform 0;
        value           nonuniform List<scalar> 
15
(
0
0
0
0
0
0
0
0
0
0
-1.86141
-0.18773
-0.794094
-0.14559
0
)
;
    }
    FrontAndBack
    {
        type            empty;
    }
}


// ************************************************************************* //
