/*--------------------------------*- C++ -*----------------------------------*\
| =========                 |                                                 |
| \\      /  F ield         | OpenFOAM: The Open Source CFD Toolbox           |
|  \\    /   O peration     | Version:  2.3.0                                 |
|   \\  /    A nd           | Web:      www.OpenFOAM.org                      |
|    \\/     M anipulation  |                                                 |
\*---------------------------------------------------------------------------*/
FoamFile
{
    version     2.0;
    format      ascii;
    class       surfaceScalarField;
    location    "0.014";
    object      phi;
}
// * * * * * * * * * * * * * * * * * * * * * * * * * * * * * * * * * * * * * //

dimensions      [0 3 -1 0 0 0 0];

internalField   nonuniform List<scalar> 
1380
(
1.32507e-12
6.74933e-13
1.10471e-12
2.2036e-13
9.92055e-13
1.12652e-13
6.05185e-13
3.86871e-13
2.09652e-12
-1.49133e-12
2.40952e-12
2.65414e-13
2.49539e-12
1.34494e-13
2.55256e-12
5.54782e-14
2.68946e-12
2.4997e-13
1.90098e-12
2.88499e-12
2.67802e-12
-4.12602e-13
2.9365e-12
-1.23992e-13
3.10026e-12
-1.08281e-13
3.42728e-12
-7.70468e-14
5.50731e-13
4.77753e-12
2.35043e-12
-7.63033e-13
2.42807e-12
-2.01634e-13
2.44214e-12
-1.22352e-13
2.33417e-12
3.09263e-14
1.3688e-12
1.51611e-12
1.23697e-12
1.03533e-12
9.1298e-13
9.43905e-13
2.3127e-12
1.26321e-12
-2.75454e-12
7.83025e-12
-6.56705e-12
4.66028e-12
3.16997e-12
6.00096e-13
4.06019e-12
3.9116e-13
2.08936e-13
1.7155e-12
-1.32434e-12
1.28065e-12
4.34856e-13
1.00401e-12
2.76639e-13
7.17923e-13
2.86084e-13
5.13661e-13
2.04263e-13
4.49436e-13
6.4224e-14
4.45073e-13
4.36282e-15
4.36401e-13
8.6715e-15
3.8275e-13
5.36504e-14
3.66385e-13
1.63649e-14
3.55047e-13
1.13392e-14
4.56514e-13
-1.01469e-13
7.6631e-13
-3.09796e-13
1.37684e-12
-6.10526e-13
7.78821e-13
5.98015e-13
6.31385e-13
1.47435e-13
1.57751e-12
-9.46127e-13
2.66465e-12
-1.08714e-12
2.05085e-12
6.13805e-13
1.12057e-12
9.30272e-13
7.16306e-13
4.04269e-13
6.33595e-13
8.27111e-14
1.19346e-12
-5.59868e-13
1.47369e-12
-2.80224e-13
1.24818e-12
2.25508e-13
1.21174e-12
3.64358e-14
1.63839e-12
-4.26645e-13
1.5309e-12
1.07485e-13
7.56039e-13
7.74866e-13
1.15607e-12
-4.0003e-13
1.16707e-12
-1.10031e-14
7.48632e-13
4.1844e-13
6.59203e-13
8.94289e-14
8.22516e-13
-1.63312e-13
1.12623e-12
-3.03718e-13
1.40177e-12
-2.75537e-13
1.91914e-12
-5.17372e-13
2.43566e-12
-5.16516e-13
-2.47572e-12
4.91138e-12
-8.98596e-12
1.0556e-11
-1.04255e-11
9.84812e-12
-5.85917e-12
9.96071e-13
1.2022e-11
-1.49209e-12
6.54835e-12
6.22594e-13
-1.90575e-12
2.99124e-12
-3.69299e-12
2.4943e-12
9.31797e-13
2.28095e-12
4.89983e-13
1.79921e-12
7.67824e-13
1.37623e-12
6.27244e-13
1.22486e-12
2.15599e-13
1.19354e-12
3.5677e-14
1.15348e-12
4.87264e-14
1.04843e-12
1.58708e-13
1.02887e-12
3.59189e-14
1.08266e-12
-4.24516e-14
1.26975e-12
-2.88556e-13
1.42939e-12
-4.69436e-13
1.53932e-12
-7.20463e-13
7.40451e-13
1.39689e-12
1.08245e-12
-1.94565e-13
2.23865e-12
-2.10233e-12
2.71929e-12
-1.56778e-12
2.33701e-12
9.96087e-13
1.90156e-12
1.36572e-12
1.50729e-12
7.98538e-13
1.36713e-12
2.22871e-13
2.00813e-12
-1.20087e-12
2.65621e-12
-9.28298e-13
2.66513e-12
2.16584e-13
2.49802e-12
2.03547e-13
1.96905e-12
1.02323e-13
2.10791e-12
-3.13712e-14
1.16642e-12
1.71636e-12
1.31304e-12
-5.46652e-13
1.1953e-12
1.0674e-13
1.15919e-12
4.54547e-13
1.1654e-12
8.32143e-14
1.3885e-12
-3.86412e-13
1.67559e-12
-5.90802e-13
1.84444e-12
-4.44389e-13
2.3122e-12
-9.85134e-13
2.79368e-12
-9.97993e-13
9.35427e-13
6.76964e-12
-1.79426e-11
1.44382e-11
-2.00862e-11
5.3967e-12
3.18235e-12
-5.12332e-12
2.2542e-11
-1.92413e-12
3.34915e-12
2.40914e-12
-6.23901e-12
4.4062e-12
-5.69005e-12
3.04994e-12
2.28805e-12
3.04524e-12
4.94687e-13
2.61678e-12
1.19628e-12
2.13355e-12
1.11047e-12
1.8923e-12
4.56853e-13
1.82257e-12
1.054e-13
1.75027e-12
1.21033e-13
1.61187e-12
2.97103e-13
1.62406e-12
2.37305e-14
1.77974e-12
-1.98133e-13
1.89298e-12
-4.01795e-13
1.6233e-12
-1.99756e-13
1.12495e-12
-2.22114e-13
8.29271e-13
1.69257e-12
1.32866e-12
-6.93955e-13
1.97722e-12
-2.75089e-12
2.23869e-12
-1.82925e-12
2.09898e-12
1.13579e-12
2.21896e-12
1.24575e-12
1.99886e-12
1.01863e-12
1.75568e-12
4.66056e-13
2.35436e-12
-1.79954e-12
3.03612e-12
-1.61006e-12
3.10793e-12
1.44772e-13
3.00406e-12
3.07423e-13
2.13661e-12
9.69767e-13
2.77413e-12
-6.6889e-13
1.34745e-12
3.14304e-12
1.47534e-12
-6.74545e-13
1.47142e-12
1.10656e-13
1.38741e-12
5.38562e-13
1.38376e-12
8.68666e-14
1.47692e-12
-4.79571e-13
1.53426e-12
-6.4815e-13
1.42086e-12
-3.3098e-13
1.45434e-12
-1.01862e-12
1.35326e-12
-8.96913e-13
5.30264e-12
2.82025e-12
-2.04497e-11
1.15514e-11
-3.01216e-11
1.47862e-12
1.32552e-11
-2.66037e-12
2.6681e-11
7.87852e-13
-9.90712e-14
3.61609e-12
-9.06725e-12
4.57364e-12
-6.6476e-12
2.63819e-12
4.2235e-12
3.16822e-12
-3.53453e-14
3.07166e-12
1.29285e-12
2.73384e-12
1.44829e-12
2.47997e-12
7.10724e-13
2.35653e-12
2.28839e-13
2.23332e-12
2.44245e-13
2.04603e-12
4.8439e-13
2.09036e-12
-2.05986e-14
2.45888e-12
-5.66645e-13
2.58095e-12
-5.2387e-13
1.92808e-12
4.53113e-13
1.11322e-12
5.92746e-13
1.30475e-12
1.50104e-12
1.57594e-12
-9.65138e-13
1.49983e-12
-2.67479e-12
1.55962e-12
-1.88904e-12
2.16103e-12
5.34381e-13
2.63591e-12
7.70873e-13
2.35642e-12
1.29812e-12
1.95171e-12
8.70765e-13
2.47259e-12
-2.32042e-12
2.87693e-12
-2.01441e-12
2.85188e-12
1.69824e-13
2.90775e-12
2.51559e-13
1.69431e-12
2.1832e-12
2.2467e-12
-1.22128e-12
9.76811e-13
4.41293e-12
1.56953e-12
-1.26727e-12
1.87884e-12
-1.98652e-13
1.68076e-12
7.3664e-13
1.58971e-12
1.77916e-13
1.51992e-12
-4.09778e-13
1.31339e-12
-4.41618e-13
8.70566e-13
1.11841e-13
3.82333e-13
-5.30384e-13
2.02273e-12
-2.53731e-12
3.35056e-12
1.49242e-12
-1.83305e-11
-1.38103e-11
-1.39986e-11
-9.61888e-12
9.06374e-12
7.38289e-13
1.63239e-11
1.30818e-12
-6.68966e-13
-2.20823e-13
-7.53825e-12
2.30236e-13
-7.09866e-12
9.55536e-13
3.49821e-12
2.42887e-12
-1.50868e-12
3.03954e-12
6.82174e-13
3.05374e-12
1.43409e-12
2.87723e-12
8.8723e-13
2.73622e-12
3.69854e-13
2.57789e-12
4.0257e-13
2.4057e-12
6.56582e-13
2.49009e-12
-1.04989e-13
2.80344e-12
-8.79997e-13
2.76492e-12
-4.8535e-13
2.15737e-12
1.06066e-12
2.02454e-12
7.25576e-13
2.06058e-12
1.465e-12
1.47371e-12
-3.78267e-13
1.02154e-12
-2.22262e-12
1.92761e-12
-2.7951e-12
2.48258e-12
-2.05905e-14
3.28442e-12
-3.09713e-14
2.62495e-12
1.95759e-12
2.13259e-12
1.36313e-12
2.61484e-12
-2.80267e-12
2.48494e-12
-1.88451e-12
2.22101e-12
4.33755e-13
2.22335e-12
2.49219e-13
1.33372e-13
4.27318e-12
-1.28267e-13
-9.59636e-13
5.21931e-13
3.76273e-12
1.54861e-12
-2.29394e-12
2.01251e-12
-6.62554e-13
1.94526e-12
8.03882e-13
1.87783e-12
2.45356e-13
1.70185e-12
-2.33801e-13
1.33051e-12
-7.0284e-14
7.56594e-13
6.85761e-13
2.68599e-14
1.99348e-13
1.0506e-12
-3.56105e-12
8.10694e-12
-5.56393e-12
-2.2676e-11
-6.92173e-12
-6.91682e-12
-5.0033e-12
7.1453e-12
-1.92797e-12
1.32485e-11
-7.67057e-13
-1.82988e-12
-1.15848e-12
-7.14682e-12
-1.97215e-12
-6.285e-12
-2.29649e-13
1.75571e-12
4.51758e-13
-2.19008e-12
6.50608e-13
4.83325e-13
6.78768e-13
1.40593e-12
6.59164e-13
9.06834e-13
6.25344e-13
4.03675e-13
6.00303e-13
4.2761e-13
5.89433e-13
6.67454e-13
5.51457e-13
-6.70122e-14
5.07021e-13
-8.35561e-13
5.44281e-13
-5.2261e-13
5.03339e-13
1.1016e-12
4.27919e-13
8.00996e-13
2.95808e-13
1.59711e-12
2.49822e-13
-3.32281e-13
2.52645e-13
-2.22545e-12
6.24917e-13
-3.16737e-12
9.04437e-13
-3.00111e-13
8.37112e-13
3.63536e-14
6.0611e-13
2.18859e-12
5.3196e-13
1.43728e-12
6.07957e-13
-2.87866e-12
4.68406e-13
-1.74496e-12
4.17787e-13
4.84374e-13
2.97847e-13
3.69158e-13
-1.49143e-13
4.72017e-12
1.00921e-13
-1.2097e-12
3.63402e-13
3.50025e-12
3.74903e-13
-2.30544e-12
3.90583e-13
-6.78234e-13
4.56033e-13
7.38432e-13
4.67283e-13
2.34105e-13
4.30224e-13
-1.96742e-13
3.40025e-13
1.99144e-14
1.99755e-13
8.26031e-13
6.63751e-14
3.32729e-13
1.59665e-13
-3.65433e-12
2.22038e-12
-7.62465e-12
-2.19787e-11
-3.44018e-12
-3.31665e-12
-8.69945e-12
1.24046e-11
-2.72875e-12
7.27784e-12
-1.15364e-12
-3.40499e-12
-1.0255e-12
-7.27496e-12
-2.53016e-12
-4.78034e-12
-2.64683e-13
-5.09774e-13
4.50843e-13
-2.90561e-12
6.34581e-13
2.99587e-13
6.75145e-13
1.36537e-12
6.62826e-13
9.19153e-13
6.28777e-13
4.37724e-13
5.98032e-13
4.58354e-13
6.31894e-13
6.33592e-13
5.46222e-13
1.86599e-14
5.03103e-13
-7.92441e-13
5.51139e-13
-5.70647e-13
5.1312e-13
1.13962e-12
4.16135e-13
8.9798e-13
2.30356e-13
1.78289e-12
2.54808e-13
-3.56733e-13
2.15042e-13
-2.18568e-12
6.44428e-13
-3.59676e-12
8.05467e-13
-4.6115e-13
8.25122e-13
1.66985e-14
6.03485e-13
2.41023e-12
5.48407e-13
1.49235e-12
6.31048e-13
-2.96131e-12
4.37285e-13
-1.5512e-12
3.72611e-13
5.49048e-13
2.66243e-13
4.75526e-13
-1.49221e-13
5.13563e-12
1.12617e-13
-1.47154e-12
4.91055e-13
3.12181e-12
3.94454e-13
-2.20884e-12
3.75985e-13
-6.59766e-13
4.6726e-13
6.47157e-13
4.85392e-13
2.15973e-13
4.49034e-13
-1.60384e-13
3.59914e-13
1.09035e-13
2.19971e-13
9.65974e-13
1.29349e-13
4.2335e-13
2.92755e-13
-3.81774e-12
1.40644e-12
-8.73833e-12
-2.15617e-11
-1.06905e-12
-2.08758e-12
-2.65837e-12
1.39939e-11
-2.41073e-12
7.0302e-12
-1.40207e-12
-4.41364e-12
-1.06265e-12
-7.61438e-12
-9.99952e-13
-4.84304e-12
-7.83625e-14
-1.43136e-12
4.53778e-13
-3.43775e-12
6.14091e-13
1.39274e-13
6.67408e-13
1.31205e-12
6.65116e-13
9.21445e-13
6.31491e-13
4.71349e-13
6.09815e-13
4.8003e-13
6.08492e-13
6.34916e-13
5.64609e-13
6.2543e-14
5.0846e-13
-7.36292e-13
5.81939e-13
-6.44126e-13
5.15986e-13
1.20557e-12
4.83705e-13
9.30261e-13
2.74451e-13
1.99215e-12
2.26054e-13
-3.08336e-13
2.43526e-13
-2.20315e-12
6.12625e-13
-3.96586e-12
6.83143e-13
-5.31668e-13
7.22838e-13
-2.29965e-14
5.89503e-13
2.54356e-12
5.6013e-13
1.52173e-12
6.51756e-13
-3.05293e-12
4.10159e-13
-1.3096e-12
3.68328e-13
5.90879e-13
2.66633e-13
5.7722e-13
-2.36439e-14
5.42591e-12
3.47027e-13
-1.84221e-12
6.35789e-13
2.83305e-12
4.22882e-13
-1.99594e-12
3.90916e-13
-6.278e-13
4.81068e-13
5.57005e-13
5.04563e-13
1.92478e-13
4.69052e-13
-1.24873e-13
3.82307e-13
1.9578e-13
2.47961e-13
1.10032e-12
2.09628e-13
4.61684e-13
4.81903e-13
-4.09002e-12
6.19271e-13
-8.8757e-12
-2.15677e-11
-7.21828e-14
-1.8554e-12
-9.83202e-14
1.402e-11
2.68817e-13
6.66307e-12
-4.8926e-13
-3.65557e-12
-1.39194e-12
-6.7117e-12
-3.2563e-13
-5.90935e-12
1.33084e-13
-1.89008e-12
4.29812e-13
-3.73448e-12
5.85897e-13
-1.68099e-14
6.55271e-13
1.24267e-12
6.62773e-13
9.13943e-13
6.32866e-13
5.01256e-13
6.11125e-13
5.01771e-13
6.00929e-13
6.45113e-13
5.7021e-13
9.32615e-14
5.71068e-13
-7.3715e-13
5.78364e-13
-6.51421e-13
5.24481e-13
1.25946e-12
5.04144e-13
9.50598e-13
4.70921e-13
2.02537e-12
2.24598e-13
-6.20133e-14
3.17218e-13
-2.29577e-12
5.94174e-13
-4.24281e-12
4.42461e-13
-3.79954e-13
6.47076e-13
-2.27612e-13
5.694e-13
2.62124e-12
5.42188e-13
1.54894e-12
7.15507e-13
-3.22625e-12
3.30905e-13
-9.24999e-13
5.22932e-13
3.98852e-13
3.00144e-13
8.00008e-13
1.74806e-13
5.55124e-12
1.02383e-12
-2.69123e-12
8.03403e-13
3.05347e-12
3.63658e-13
-1.55619e-12
4.22639e-13
-6.86782e-13
4.93571e-13
4.86074e-13
5.24002e-13
1.62047e-13
4.90427e-13
-9.12975e-14
4.07575e-13
2.78631e-13
2.80896e-13
1.227e-12
2.61066e-13
4.81514e-13
4.30773e-13
-4.25972e-12
3.83144e-13
-8.82807e-12
-2.1585e-11
4.35697e-13
-2.1311e-12
1.44859e-12
1.30071e-11
1.27291e-12
6.83874e-12
5.2074e-13
-2.90339e-12
-1.858e-13
-6.00516e-12
-1.40436e-13
-5.95471e-12
2.34125e-13
-2.26464e-12
3.82146e-13
-3.8825e-12
5.54311e-13
-1.88975e-13
6.39332e-13
1.15765e-12
6.56144e-13
8.97131e-13
6.31605e-13
5.25795e-13
6.10536e-13
5.2284e-13
6.07062e-13
6.48587e-13
5.63476e-13
1.36848e-13
6.44253e-13
-8.17927e-13
5.90543e-13
-5.97712e-13
5.53782e-13
1.29622e-12
5.37806e-13
9.66574e-13
4.64612e-13
2.09856e-12
4.88739e-13
-8.61401e-14
4.53341e-13
-2.26037e-12
5.76386e-13
-4.36586e-12
3.55562e-13
-1.5913e-13
5.53841e-13
-4.25891e-13
5.49852e-13
2.62523e-12
5.15315e-13
1.58348e-12
5.56047e-13
-3.26698e-12
3.52317e-13
-7.21269e-13
4.55916e-13
2.95253e-13
3.66871e-13
8.89054e-13
2.87768e-13
5.63035e-12
1.16409e-12
-3.56755e-12
8.80917e-13
3.33664e-12
4.23386e-13
-1.09866e-12
4.01148e-13
-6.64544e-13
5.06349e-13
3.80873e-13
5.43072e-13
1.25324e-13
5.1321e-13
-6.14348e-14
4.35251e-13
3.5659e-13
3.20407e-13
1.34184e-12
2.94537e-13
5.07383e-13
3.17434e-13
-4.28262e-12
4.61834e-13
-8.97247e-12
-2.13832e-11
1.24407e-12
7.55931e-13
1.06139e-12
1.82678e-13
9.9033e-13
7.10608e-14
1.0128e-12
-2.24677e-14
8.02577e-13
2.10222e-13
2.35571e-12
4.00221e-13
2.45615e-12
8.22384e-14
2.54786e-12
-2.06498e-14
2.84831e-12
-3.22914e-13
9.09279e-13
2.74161e-12
2.67723e-12
-2.77012e-13
2.94347e-12
-1.83996e-13
3.10869e-12
-1.85872e-13
3.66841e-12
-8.82638e-13
5.91597e-14
4.51853e-12
2.40363e-12
-6.80639e-13
2.47138e-12
-2.5175e-13
2.50486e-12
-2.19351e-13
2.88752e-12
-1.2653e-12
-1.03389e-12
3.98057e-12
1.31936e-12
1.06761e-12
8.48261e-13
-4.17039e-13
-1.45092e-12
-1.91641e-13
-1.72924e-12
7.1183e-12
5.69719e-12
9.41984e-12
4.5372e-12
6.94985e-12
-4.33406e-13
3.0907e-12
-2.146e-12
1.4714e-12
-4.33542e-12
1.44268e-12
-2.23592e-12
1.29863e-12
-3.73844e-12
2.05499e-12
-9.45336e-13
2.65416e-12
5.5848e-13
2.83069e-12
7.20598e-13
2.78518e-12
5.7131e-13
2.71823e-12
5.89787e-13
2.79107e-12
5.75752e-13
3.0126e-12
-8.46886e-14
3.14762e-12
-9.52944e-13
2.75461e-12
-2.04698e-13
2.93062e-12
1.1202e-12
2.42042e-12
1.47678e-12
2.69476e-12
1.82422e-12
2.9419e-12
-3.33284e-13
2.87571e-12
-2.19418e-12
1.22968e-12
-2.71983e-12
1.87257e-12
-8.02019e-13
1.79399e-12
-3.47304e-13
2.26196e-12
2.15726e-12
2.00193e-12
1.8435e-12
1.40538e-12
-2.67043e-12
1.58338e-12
-8.99266e-13
2.08884e-12
-2.10207e-13
2.32542e-12
6.52472e-13
3.50299e-12
4.45278e-12
2.62215e-12
-2.68671e-12
3.73959e-12
2.2192e-12
2.1606e-12
4.80332e-13
1.90959e-12
-4.13543e-13
2.42007e-12
-1.29605e-13
2.6741e-12
-1.28702e-13
2.57709e-12
3.55698e-14
2.29222e-12
6.41461e-13
2.03929e-12
1.59478e-12
1.78677e-12
7.59905e-13
1.16284e-12
-3.65869e-12
1.57374e-12
-9.38338e-12
-1.78837e-11
1.61416e-12
-6.01792e-13
4.94971e-12
2.36163e-12
7.87635e-12
1.61056e-12
7.61263e-12
-1.69686e-13
5.1786e-12
2.88025e-13
3.61495e-12
-2.77176e-12
2.93648e-12
-1.55745e-12
1.69573e-12
-2.49769e-12
1.75668e-12
-1.00629e-12
2.15202e-12
1.63135e-13
2.38453e-12
4.8809e-13
2.47549e-12
4.80352e-13
2.55873e-12
5.06547e-13
2.73275e-12
4.01732e-13
2.82834e-12
-1.8028e-13
2.57527e-12
-6.99868e-13
2.44354e-12
-7.29755e-14
2.69252e-12
8.71229e-13
2.80531e-12
1.36399e-12
3.37683e-12
1.25271e-12
3.40632e-12
-3.6278e-13
2.87098e-12
-1.65883e-12
1.61789e-12
-1.46674e-12
1.66024e-12
-8.44375e-13
1.49053e-12
-1.77585e-13
2.09595e-12
1.55184e-12
2.48199e-12
1.45745e-12
1.47964e-12
-1.66808e-12
1.43013e-12
-8.49753e-13
1.61804e-12
-3.98117e-13
2.05278e-12
2.1773e-13
3.93295e-12
2.57261e-12
2.58397e-12
-1.33772e-12
3.38946e-12
1.41371e-12
3.14471e-12
7.2508e-13
2.87607e-12
-1.44902e-13
2.98768e-12
-2.41209e-13
3.0321e-12
-1.73125e-13
2.94811e-12
1.19564e-13
2.84747e-12
7.42094e-13
2.88304e-12
1.55921e-12
2.70658e-12
9.36368e-13
1.26924e-12
-2.22136e-12
-1.21932e-12
-6.89481e-12
-1.36379e-11
9.14086e-13
3.00265e-12
2.43578e-12
8.39941e-13
5.66293e-12
-1.61659e-12
5.98814e-12
-4.94894e-13
5.48117e-12
7.9499e-13
3.87045e-12
-1.16104e-12
3.1161e-12
-8.03101e-13
1.82738e-12
-1.20897e-12
1.4283e-12
-6.07207e-13
1.57607e-12
1.53664e-14
1.79874e-12
2.65412e-13
1.98865e-12
2.90449e-13
2.18802e-12
3.07175e-13
2.37136e-12
2.18388e-13
2.34821e-12
-1.57126e-13
2.03989e-12
-3.91545e-13
1.94348e-12
2.34256e-14
2.26461e-12
5.50107e-13
2.73141e-12
8.97186e-13
3.28472e-12
6.99391e-13
3.18411e-12
-2.62162e-13
2.52501e-12
-9.99735e-13
1.76641e-12
-7.0814e-13
1.51089e-12
-5.88859e-13
1.39821e-12
-6.49081e-14
1.95438e-12
9.95671e-13
2.29719e-12
1.11464e-12
1.57306e-12
-9.43951e-13
1.36164e-12
-6.38327e-13
1.09498e-12
-1.31459e-13
9.56864e-13
3.55843e-13
2.21922e-12
1.31025e-12
2.0061e-12
-1.12461e-12
2.85445e-12
5.6536e-13
3.11654e-12
4.63e-13
3.06272e-12
-9.10835e-14
3.01901e-12
-1.97503e-13
2.95237e-12
-1.06488e-13
2.93921e-12
1.32724e-13
3.08181e-12
5.99503e-13
3.46108e-12
1.17993e-12
3.51552e-12
8.81928e-13
1.25558e-12
3.85858e-14
-4.03494e-12
-1.60429e-12
-6.34639e-12
1.59105e-12
5.39218e-12
2.12183e-12
3.09162e-13
2.5214e-12
-2.01617e-12
3.05063e-12
-1.02412e-12
3.51636e-12
3.29257e-13
2.75846e-12
-4.0314e-13
2.14847e-12
-1.93103e-13
1.32365e-12
-3.84144e-13
9.2725e-13
-2.1081e-13
9.58666e-13
-1.60497e-14
1.14122e-12
8.28607e-14
1.34248e-12
8.91842e-14
1.54774e-12
1.01919e-13
1.69366e-12
7.24634e-14
1.59063e-12
-5.40979e-14
1.33602e-12
-1.36927e-13
1.31531e-12
4.41303e-14
1.64577e-12
2.19651e-13
2.20517e-12
3.37783e-13
2.66258e-12
2.41979e-13
2.50532e-12
-1.04898e-13
1.87747e-12
-3.71891e-13
1.42755e-12
-2.5821e-13
1.09265e-12
-2.53967e-13
1.04607e-12
-1.83218e-14
1.58077e-12
4.6097e-13
1.95869e-12
7.36717e-13
1.41464e-12
-3.99901e-13
1.18591e-12
-4.09593e-13
1.02138e-12
3.30622e-14
8.92486e-13
4.84741e-13
1.57476e-12
6.27976e-13
1.48815e-12
-1.038e-12
2.03484e-12
1.86766e-14
2.37245e-12
1.2539e-13
2.35127e-12
-6.99086e-14
2.24367e-12
-8.98988e-14
2.17511e-12
-3.79329e-14
2.25464e-12
5.31959e-14
2.61104e-12
2.431e-13
3.29738e-12
4.93599e-13
3.801e-12
3.78305e-13
3.21478e-12
6.24815e-13
-6.15825e-14
1.67207e-12
-1.55651e-12
3.94125e-12
4.25041e-12
2.23425e-12
1.21012e-12
1.53938e-12
1.13624e-12
9.43139e-13
5.58995e-13
3.48185e-13
3.32136e-13
4.14996e-13
5.0418e-13
6.06098e-13
6.78562e-13
6.24464e-13
4.87538e-13
5.31668e-13
7.5132e-13
1.0891e-12
1.33108e-12
1.22619e-12
8.54295e-13
5.96085e-13
3.42118e-13
3.23797e-13
7.84767e-13
1.52148e-12
1.12158e-12
7.1199e-13
7.45053e-13
1.22979e-12
1.85777e-12
8.19771e-13
8.38448e-13
9.63837e-13
8.93929e-13
8.04031e-13
7.66097e-13
8.19293e-13
1.06239e-12
1.55599e-12
1.9343e-12
2.55911e-12
4.23118e-12
)
;

boundaryField
{
    AirInlet
    {
        type            calculated;
        value           nonuniform List<scalar> 5(-1.6e-13 -1.6e-13 -1.6e-13 -1.6e-13 -1.6e-13);
    }
    WaterInlet
    {
        type            calculated;
        value           nonuniform List<scalar> 10(-2e-12 -2e-12 -2e-12 -2e-12 -2e-12 -2e-12 -2e-12 -2e-12 -2e-12 -2e-12);
    }
    ChannelWall
    {
        type            calculated;
        value           uniform 0;
    }
    Outlet
    {
        type            calculated;
        value           nonuniform List<scalar> 
15
(
6.51023e-12
9.89209e-12
7.80967e-12
1.23139e-12
1.24525e-11
1.52305e-12
9.89414e-13
6.25324e-13
4.00462e-13
2.6001e-13
-1.92577e-12
-5.46511e-12
-1.13265e-11
-4.85145e-12
2.67467e-12
)
;
    }
    FrontAndBack
    {
        type            empty;
        value           nonuniform 0();
    }
}


// ************************************************************************* //
