/*--------------------------------*- C++ -*----------------------------------*\
| =========                 |                                                 |
| \\      /  F ield         | OpenFOAM: The Open Source CFD Toolbox           |
|  \\    /   O peration     | Version:  2.3.0                                 |
|   \\  /    A nd           | Web:      www.OpenFOAM.org                      |
|    \\/     M anipulation  |                                                 |
\*---------------------------------------------------------------------------*/
FoamFile
{
    version     2.0;
    format      ascii;
    class       volScalarField;
    location    "0.085";
    object      T;
}
// * * * * * * * * * * * * * * * * * * * * * * * * * * * * * * * * * * * * * //

dimensions      [0 0 0 1 0 0 0];

internalField   nonuniform List<scalar> 
12225
(
3.35612e-10
3.33597e-10
3.33032e-10
3.3285e-10
3.32765e-10
3.32855e-10
3.33245e-10
3.34191e-10
3.36225e-10
3.40468e-10
3.49337e-10
3.68266e-10
4.0983e-10
5.03636e-10
7.20151e-10
1.22987e-09
2.46296e-09
5.63482e-09
3.30874e-10
3.31448e-10
3.31923e-10
3.32233e-10
3.32422e-10
3.32669e-10
3.33156e-10
3.34168e-10
3.36256e-10
3.40539e-10
3.49411e-10
3.68196e-10
4.09128e-10
5.00774e-10
7.10376e-10
1.19734e-09
2.34434e-09
5.07147e-09
3.33174e-10
3.33131e-10
3.32987e-10
3.32924e-10
3.32906e-10
3.33032e-10
3.33455e-10
3.3445e-10
3.36566e-10
3.40917e-10
3.49853e-10
3.68534e-10
4.08624e-10
4.96903e-10
6.94957e-10
1.14311e-09
2.15177e-09
4.33598e-09
3.33274e-10
3.33059e-10
3.32873e-10
3.32852e-10
3.32908e-10
3.33105e-10
3.33603e-10
3.34699e-10
3.36965e-10
3.41536e-10
3.50735e-10
3.69527e-10
4.08846e-10
4.93093e-10
6.76399e-10
1.07542e-09
1.92407e-09
3.6056e-09
3.33438e-10
3.33311e-10
3.33172e-10
3.33159e-10
3.3323e-10
3.33456e-10
3.34016e-10
3.35235e-10
3.3773e-10
3.42675e-10
3.52396e-10
3.71661e-10
4.10566e-10
4.90735e-10
6.57853e-10
1.00395e-09
1.69542e-09
2.96278e-09
3.33708e-10
3.33652e-10
3.33553e-10
3.33544e-10
3.33636e-10
3.33914e-10
3.3458e-10
3.36008e-10
3.38883e-10
3.44466e-10
3.55133e-10
3.75498e-10
4.14804e-10
4.91768e-10
6.43567e-10
9.39609e-10
1.49337e-09
2.4422e-09
3.34176e-10
3.34158e-10
3.34094e-10
3.34099e-10
3.34223e-10
3.34579e-10
3.35408e-10
3.37159e-10
3.40634e-10
3.47247e-10
3.59517e-10
3.82013e-10
4.23248e-10
4.99236e-10
6.39462e-10
8.94608e-10
1.34008e-09
2.05875e-09
3.34747e-10
3.34744e-10
3.34708e-10
3.34736e-10
3.34905e-10
3.35361e-10
3.36403e-10
3.38578e-10
3.42848e-10
3.50854e-10
3.65369e-10
3.9111e-10
4.36233e-10
5.14947e-10
6.51527e-10
8.84745e-10
1.26838e-09
1.85865e-09
3.35386e-10
3.35391e-10
3.35379e-10
3.35436e-10
3.35658e-10
3.36234e-10
3.37533e-10
3.40225e-10
3.45473e-10
3.5521e-10
3.72571e-10
4.02597e-10
4.53409e-10
5.38107e-10
6.77412e-10
9.02112e-10
1.25237e-09
1.76891e-09
3.36263e-10
3.36274e-10
3.36287e-10
3.36382e-10
3.36685e-10
3.37443e-10
3.39133e-10
3.42622e-10
3.4939e-10
3.61846e-10
3.83755e-10
4.20846e-10
4.81689e-10
5.78965e-10
7.30997e-10
9.62824e-10
1.30504e-09
1.78808e-09
3.37463e-10
3.3748e-10
3.37519e-10
3.37668e-10
3.38096e-10
3.39139e-10
3.4145e-10
3.4621e-10
3.55427e-10
3.72308e-10
4.01724e-10
4.50748e-10
5.29277e-10
6.50762e-10
8.32863e-10
1.0976e-09
1.47e-09
1.97448e-09
3.39104e-10
3.39127e-10
3.39198e-10
3.39428e-10
3.40053e-10
3.41561e-10
3.44898e-10
3.51781e-10
3.65119e-10
3.8952e-10
4.31843e-10
5.01713e-10
6.11944e-10
7.78777e-10
1.02181e-09
1.36339e-09
1.82707e-09
2.4349e-09
3.41342e-10
3.41376e-10
3.41492e-10
3.4185e-10
3.42808e-10
3.45113e-10
3.50233e-10
3.60847e-10
3.81502e-10
4.19375e-10
4.85033e-10
5.9301e-10
7.62027e-10
1.01472e-09
1.37675e-09
1.87533e-09
2.53704e-09
3.38517e-09
3.44393e-10
3.44443e-10
3.44633e-10
3.45215e-10
3.46765e-10
3.50519e-10
3.5893e-10
3.76521e-10
4.11006e-10
4.74588e-10
5.85156e-10
7.6703e-10
1.05091e-09
1.47276e-09
2.07165e-09
2.88672e-09
3.95347e-09
5.30007e-09
3.48544e-10
3.48624e-10
3.48948e-10
3.49944e-10
3.52625e-10
3.59198e-10
3.74121e-10
4.05722e-10
4.68355e-10
5.84843e-10
7.88638e-10
1.1249e-09
1.64973e-09
2.42724e-09
3.52449e-09
5.00505e-09
6.92209e-09
9.31174e-09
3.54176e-10
3.54317e-10
3.54901e-10
3.56729e-10
3.61727e-10
3.74204e-10
4.03056e-10
4.65204e-10
5.90248e-10
8.2569e-10
1.24133e-09
1.93082e-09
3.00865e-09
4.60184e-09
6.83731e-09
9.82723e-09
1.36548e-08
1.83615e-08
3.61782e-10
3.62049e-10
3.63183e-10
3.66797e-10
3.76911e-10
4.0279e-10
4.64118e-10
5.99304e-10
8.76946e-10
1.40873e-09
2.35967e-09
3.94982e-09
6.4425e-09
1.01179e-08
1.52369e-08
2.20046e-08
3.05398e-08
4.08563e-08
3.71232e-10
3.71754e-10
3.74026e-10
3.81451e-10
4.02861e-10
4.59425e-10
5.97825e-10
9.12349e-10
1.57644e-09
2.87872e-09
5.25015e-09
9.26207e-09
1.5578e-08
2.48594e-08
3.76502e-08
5.42783e-08
7.48014e-08
9.90008e-08
3.81191e-10
3.82149e-10
3.86408e-10
4.00731e-10
4.43453e-10
5.60512e-10
8.57763e-10
1.55819e-09
3.08793e-09
6.17816e-09
1.19405e-08
2.18444e-08
3.75338e-08
6.0492e-08
9.16752e-08
1.31279e-07
1.78718e-07
2.32774e-07
3.90578e-10
3.92153e-10
3.9929e-10
4.23987e-10
5.00198e-10
7.16931e-10
1.28908e-09
2.69102e-09
5.87077e-09
1.25202e-08
2.52833e-08
4.76715e-08
8.34544e-08
1.35562e-07
2.05016e-07
2.90558e-07
3.89096e-07
4.96548e-07
3.99062e-10
4.01412e-10
4.12262e-10
4.50842e-10
5.73886e-10
9.36954e-10
1.93412e-09
4.48029e-09
1.05001e-08
2.35998e-08
4.96444e-08
9.65606e-08
1.7253e-07
2.82587e-07
4.25648e-07
5.94694e-07
7.79548e-07
9.69926e-07
4.06431e-10
4.09658e-10
4.24808e-10
4.80048e-10
6.6173e-10
1.21701e-09
2.80255e-09
7.025e-09
1.74598e-08
4.12067e-08
9.04545e-08
1.82294e-07
3.33941e-07
5.52608e-07
8.27195e-07
1.13349e-06
1.44558e-06
1.74367e-06
4.12588e-10
4.16718e-10
4.36384e-10
5.09701e-10
7.57573e-10
1.53988e-09
3.85709e-09
1.02877e-08
2.6919e-08
6.66581e-08
1.53245e-07
3.22086e-07
6.09251e-07
1.02247e-06
1.516e-06
2.02269e-06
2.49054e-06
2.89408e-06
4.17541e-10
4.22527e-10
4.46534e-10
5.37754e-10
8.53505e-10
1.87838e-09
5.01578e-09
1.40644e-08
3.85354e-08
1.00059e-07
2.41806e-07
5.34167e-07
1.05405e-06
1.80634e-06
2.6375e-06
3.39072e-06
3.99352e-06
4.44255e-06
4.21374e-10
4.27092e-10
4.54937e-10
5.62457e-10
9.41883e-10
2.20247e-09
6.17146e-09
1.8015e-08
5.14e-08
1.39665e-07
3.55599e-07
8.32244e-07
1.73688e-06
3.07844e-06
4.37757e-06
5.3426e-06
5.95709e-06
6.31198e-06
4.24285e-10
4.30561e-10
4.61552e-10
5.82831e-10
1.0173e-09
2.48755e-09
7.22262e-09
2.17568e-08
6.42222e-08
1.81816e-07
4.87369e-07
1.21597e-06
2.73003e-06
5.12558e-06
6.94426e-06
7.8879e-06
8.24809e-06
8.30815e-06
4.26346e-10
4.3295e-10
4.66268e-10
5.98216e-10
1.07636e-09
2.71696e-09
8.09212e-09
2.49544e-08
7.56496e-08
2.21594e-07
6.22233e-07
1.65744e-06
4.07525e-06
8.46913e-06
1.04809e-05
1.08272e-05
1.05673e-05
1.01553e-05
4.27846e-10
4.35056e-10
4.70219e-10
6.09994e-10
1.12054e-09
2.88939e-09
8.75429e-09
2.74352e-08
8.47503e-08
2.54533e-07
7.41122e-07
2.09168e-06
5.69447e-06
1.41433e-05
1.48064e-05
1.36537e-05
1.25168e-05
1.15979e-05
4.25206e-10
4.33308e-10
4.70261e-10
6.15254e-10
1.14636e-09
2.99819e-09
9.1871e-09
2.90947e-08
9.09598e-08
2.77486e-07
8.2632e-07
2.42065e-06
7.17564e-06
2.42269e-05
1.87598e-05
1.56252e-05
1.37829e-05
1.25037e-05
4.32089e-10
4.37149e-10
4.73289e-10
6.20412e-10
1.16289e-09
3.06148e-09
9.4313e-09
3.00162e-08
9.43648e-08
2.89888e-07
8.70672e-07
2.56532e-06
7.37432e-06
1.92084e-05
1.89481e-05
1.63969e-05
1.43491e-05
1.2899e-05
1.48072e-07
1.48243e-07
1.48581e-07
1.49097e-07
1.49797e-07
1.50684e-07
1.51761e-07
1.53033e-07
1.54502e-07
1.56173e-07
1.58049e-07
1.60133e-07
1.62427e-07
1.64934e-07
1.67656e-07
1.70594e-07
1.73751e-07
1.77126e-07
1.80721e-07
1.84535e-07
1.8857e-07
1.92825e-07
1.97298e-07
2.01988e-07
2.06896e-07
2.12017e-07
2.1735e-07
2.22893e-07
2.28643e-07
2.34596e-07
2.40749e-07
2.47098e-07
2.53639e-07
2.60366e-07
2.67276e-07
2.74363e-07
2.81622e-07
2.89047e-07
2.96632e-07
3.0437e-07
3.12257e-07
3.20284e-07
3.28445e-07
3.36734e-07
3.45143e-07
3.53665e-07
3.62293e-07
3.71019e-07
3.79836e-07
3.88738e-07
3.97716e-07
4.06764e-07
4.15873e-07
4.25038e-07
4.34251e-07
4.43505e-07
4.52794e-07
4.6211e-07
4.71448e-07
4.80802e-07
4.90167e-07
4.99535e-07
5.08903e-07
5.18266e-07
5.27618e-07
5.36956e-07
5.46275e-07
5.55572e-07
5.64844e-07
5.74087e-07
5.83299e-07
5.92478e-07
6.0162e-07
6.10725e-07
6.19791e-07
6.28816e-07
6.37799e-07
6.4674e-07
6.55637e-07
6.64491e-07
6.73301e-07
6.82068e-07
6.9079e-07
6.9947e-07
7.08107e-07
7.16702e-07
7.25256e-07
7.3377e-07
7.42245e-07
7.50682e-07
7.59083e-07
7.67448e-07
7.75781e-07
7.84081e-07
7.92351e-07
8.00591e-07
8.08805e-07
8.16993e-07
8.25156e-07
8.33297e-07
8.41415e-07
8.49514e-07
8.57594e-07
8.65656e-07
8.737e-07
8.81728e-07
8.89741e-07
8.97738e-07
9.05721e-07
9.13689e-07
9.21644e-07
9.29585e-07
9.37511e-07
9.45424e-07
9.53322e-07
9.61206e-07
9.69075e-07
9.76929e-07
9.84768e-07
9.9259e-07
1.00039e-06
1.00818e-06
1.01595e-06
1.0237e-06
1.03143e-06
1.03914e-06
1.04682e-06
1.05448e-06
1.06212e-06
1.06973e-06
1.07732e-06
1.08487e-06
1.0924e-06
1.09989e-06
1.10736e-06
1.11479e-06
1.12218e-06
1.12953e-06
1.13685e-06
1.14413e-06
1.15136e-06
1.15856e-06
1.1657e-06
1.1728e-06
1.17985e-06
1.18686e-06
1.19381e-06
1.2007e-06
1.20755e-06
1.21433e-06
1.22106e-06
1.22773e-06
1.23434e-06
1.24089e-06
1.24738e-06
1.2538e-06
1.26015e-06
1.26644e-06
1.27266e-06
1.27881e-06
1.28488e-06
1.29089e-06
1.29683e-06
1.30265e-06
1.3084e-06
1.31407e-06
1.31961e-06
1.32509e-06
1.33049e-06
1.33581e-06
1.34106e-06
1.34623e-06
1.35131e-06
1.35631e-06
1.36123e-06
1.36605e-06
1.37082e-06
1.37535e-06
1.38029e-06
1.38241e-06
1.47668e-07
1.47838e-07
1.48184e-07
1.48709e-07
1.49417e-07
1.50311e-07
1.51395e-07
1.52672e-07
1.54145e-07
1.55818e-07
1.57694e-07
1.59777e-07
1.62068e-07
1.6457e-07
1.67286e-07
1.70217e-07
1.73364e-07
1.76729e-07
1.80312e-07
1.84114e-07
1.88134e-07
1.92373e-07
1.96829e-07
2.01502e-07
2.0639e-07
2.11491e-07
2.16803e-07
2.22324e-07
2.2805e-07
2.3398e-07
2.40108e-07
2.46431e-07
2.52946e-07
2.59647e-07
2.6653e-07
2.73589e-07
2.8082e-07
2.88217e-07
2.95774e-07
3.03484e-07
3.11343e-07
3.19342e-07
3.27475e-07
3.35736e-07
3.44118e-07
3.52613e-07
3.61214e-07
3.69914e-07
3.78706e-07
3.87583e-07
3.96536e-07
4.0556e-07
4.14646e-07
4.23788e-07
4.32978e-07
4.42211e-07
4.51478e-07
4.60775e-07
4.70094e-07
4.79429e-07
4.88776e-07
4.98127e-07
5.07479e-07
5.16827e-07
5.26164e-07
5.35489e-07
5.44795e-07
5.5408e-07
5.63341e-07
5.72574e-07
5.81777e-07
5.90947e-07
6.00082e-07
6.0918e-07
6.18239e-07
6.27259e-07
6.36237e-07
6.45174e-07
6.54069e-07
6.6292e-07
6.71728e-07
6.80494e-07
6.89216e-07
6.97896e-07
7.06533e-07
7.15129e-07
7.23685e-07
7.32201e-07
7.40678e-07
7.49118e-07
7.57523e-07
7.65892e-07
7.74229e-07
7.82534e-07
7.90809e-07
7.99055e-07
8.07275e-07
8.1547e-07
8.2364e-07
8.31788e-07
8.39916e-07
8.48024e-07
8.56114e-07
8.64186e-07
8.72242e-07
8.80283e-07
8.88308e-07
8.96319e-07
9.04316e-07
9.12299e-07
9.20269e-07
9.28225e-07
9.36168e-07
9.44097e-07
9.52013e-07
9.59915e-07
9.67802e-07
9.75674e-07
9.83531e-07
9.91372e-07
9.99197e-07
1.007e-06
1.01479e-06
1.02256e-06
1.03031e-06
1.03804e-06
1.04574e-06
1.05343e-06
1.06108e-06
1.06872e-06
1.07632e-06
1.0839e-06
1.09144e-06
1.09896e-06
1.10644e-06
1.11389e-06
1.1213e-06
1.12867e-06
1.13601e-06
1.1433e-06
1.15055e-06
1.15776e-06
1.16492e-06
1.17204e-06
1.1791e-06
1.18612e-06
1.19308e-06
1.19999e-06
1.20684e-06
1.21364e-06
1.22038e-06
1.22706e-06
1.23367e-06
1.24023e-06
1.24671e-06
1.25314e-06
1.25949e-06
1.26578e-06
1.27199e-06
1.27814e-06
1.28421e-06
1.2902e-06
1.29614e-06
1.30197e-06
1.30774e-06
1.31345e-06
1.31906e-06
1.32459e-06
1.33005e-06
1.33542e-06
1.34072e-06
1.34593e-06
1.35106e-06
1.3561e-06
1.36106e-06
1.36593e-06
1.37074e-06
1.37536e-06
1.38022e-06
1.38328e-06
1.46865e-07
1.47027e-07
1.47371e-07
1.47898e-07
1.48607e-07
1.49501e-07
1.50584e-07
1.51858e-07
1.53328e-07
1.54996e-07
1.56865e-07
1.58938e-07
1.61218e-07
1.63706e-07
1.66406e-07
1.69319e-07
1.72445e-07
1.75787e-07
1.79344e-07
1.83118e-07
1.87108e-07
1.91313e-07
1.95734e-07
2.00369e-07
2.05218e-07
2.10277e-07
2.15546e-07
2.21021e-07
2.267e-07
2.32581e-07
2.38659e-07
2.44931e-07
2.51393e-07
2.5804e-07
2.64868e-07
2.71873e-07
2.79048e-07
2.86388e-07
2.93889e-07
3.01543e-07
3.09344e-07
3.17287e-07
3.25364e-07
3.33569e-07
3.41895e-07
3.50335e-07
3.58882e-07
3.67529e-07
3.76269e-07
3.85094e-07
3.93997e-07
4.02972e-07
4.1201e-07
4.21106e-07
4.30251e-07
4.3944e-07
4.48666e-07
4.57922e-07
4.67202e-07
4.76501e-07
4.85812e-07
4.9513e-07
5.04451e-07
5.13768e-07
5.23078e-07
5.32376e-07
5.41659e-07
5.50922e-07
5.60162e-07
5.69377e-07
5.78564e-07
5.87719e-07
5.96842e-07
6.05929e-07
6.1498e-07
6.23993e-07
6.32967e-07
6.41901e-07
6.50794e-07
6.59646e-07
6.68457e-07
6.77226e-07
6.85954e-07
6.94641e-07
7.03288e-07
7.11895e-07
7.20464e-07
7.28994e-07
7.37487e-07
7.45944e-07
7.54367e-07
7.62757e-07
7.71116e-07
7.79445e-07
7.87745e-07
7.96019e-07
8.04267e-07
8.12492e-07
8.20695e-07
8.28878e-07
8.37041e-07
8.45187e-07
8.53317e-07
8.61431e-07
8.6953e-07
8.77616e-07
8.85688e-07
8.93748e-07
9.01795e-07
9.0983e-07
9.17854e-07
9.25866e-07
9.33866e-07
9.41853e-07
9.49829e-07
9.57792e-07
9.65741e-07
9.73678e-07
9.816e-07
9.89506e-07
9.97398e-07
1.00527e-06
1.01313e-06
1.02097e-06
1.02879e-06
1.03659e-06
1.04436e-06
1.05212e-06
1.05985e-06
1.06755e-06
1.07523e-06
1.08287e-06
1.09049e-06
1.09808e-06
1.10563e-06
1.11315e-06
1.12063e-06
1.12807e-06
1.13547e-06
1.14284e-06
1.15015e-06
1.15743e-06
1.16466e-06
1.17183e-06
1.17896e-06
1.18604e-06
1.19306e-06
1.20003e-06
1.20693e-06
1.21379e-06
1.22058e-06
1.22731e-06
1.23397e-06
1.24057e-06
1.2471e-06
1.25357e-06
1.25997e-06
1.26629e-06
1.27254e-06
1.27872e-06
1.28483e-06
1.29086e-06
1.29682e-06
1.30269e-06
1.3085e-06
1.31424e-06
1.31989e-06
1.32547e-06
1.33096e-06
1.33637e-06
1.3417e-06
1.34694e-06
1.3521e-06
1.35717e-06
1.36216e-06
1.36705e-06
1.37187e-06
1.37652e-06
1.3813e-06
1.38491e-06
1.45644e-07
1.458e-07
1.46143e-07
1.46669e-07
1.47377e-07
1.48268e-07
1.49346e-07
1.50615e-07
1.52076e-07
1.53733e-07
1.55589e-07
1.57646e-07
1.59907e-07
1.62374e-07
1.65048e-07
1.67932e-07
1.71026e-07
1.74332e-07
1.7785e-07
1.81581e-07
1.85525e-07
1.89681e-07
1.94049e-07
1.98629e-07
2.03419e-07
2.08416e-07
2.13621e-07
2.1903e-07
2.2464e-07
2.30449e-07
2.36454e-07
2.42651e-07
2.49036e-07
2.55606e-07
2.62355e-07
2.69279e-07
2.76374e-07
2.83632e-07
2.91051e-07
2.98622e-07
3.06342e-07
3.14202e-07
3.22198e-07
3.30322e-07
3.38567e-07
3.46928e-07
3.55397e-07
3.63966e-07
3.7263e-07
3.81381e-07
3.90211e-07
3.99114e-07
4.08084e-07
4.17112e-07
4.26192e-07
4.35318e-07
4.44483e-07
4.5368e-07
4.62904e-07
4.72149e-07
4.81409e-07
4.90679e-07
4.99954e-07
5.09228e-07
5.18498e-07
5.27759e-07
5.37007e-07
5.46238e-07
5.5545e-07
5.64639e-07
5.73803e-07
5.82938e-07
5.92043e-07
6.01116e-07
6.10156e-07
6.1916e-07
6.28128e-07
6.37058e-07
6.45951e-07
6.54806e-07
6.63622e-07
6.72399e-07
6.81137e-07
6.89837e-07
6.98499e-07
7.07125e-07
7.15713e-07
7.24266e-07
7.32785e-07
7.4127e-07
7.49724e-07
7.58147e-07
7.66541e-07
7.74908e-07
7.83249e-07
7.91566e-07
7.99861e-07
8.08135e-07
8.16389e-07
8.24626e-07
8.32847e-07
8.41054e-07
8.49246e-07
8.57426e-07
8.65594e-07
8.73751e-07
8.81898e-07
8.90035e-07
8.98162e-07
9.0628e-07
9.14388e-07
9.22487e-07
9.30577e-07
9.38656e-07
9.46726e-07
9.54785e-07
9.62832e-07
9.70869e-07
9.78892e-07
9.86903e-07
9.94899e-07
1.00288e-06
1.01084e-06
1.01879e-06
1.02672e-06
1.03463e-06
1.04252e-06
1.05038e-06
1.05823e-06
1.06604e-06
1.07383e-06
1.08159e-06
1.08932e-06
1.09702e-06
1.10469e-06
1.11232e-06
1.11991e-06
1.12746e-06
1.13497e-06
1.14244e-06
1.14987e-06
1.15724e-06
1.16457e-06
1.17185e-06
1.17908e-06
1.18625e-06
1.19337e-06
1.20043e-06
1.20743e-06
1.21437e-06
1.22125e-06
1.22806e-06
1.2348e-06
1.24148e-06
1.24809e-06
1.25463e-06
1.2611e-06
1.26749e-06
1.27381e-06
1.28005e-06
1.28622e-06
1.29231e-06
1.29832e-06
1.30425e-06
1.3101e-06
1.31589e-06
1.32159e-06
1.3272e-06
1.33273e-06
1.33818e-06
1.34354e-06
1.34882e-06
1.35401e-06
1.3591e-06
1.36412e-06
1.36903e-06
1.37386e-06
1.37852e-06
1.38328e-06
1.38718e-06
1.43994e-07
1.44147e-07
1.44489e-07
1.45013e-07
1.45718e-07
1.46604e-07
1.47674e-07
1.48932e-07
1.5038e-07
1.5202e-07
1.53856e-07
1.5589e-07
1.58124e-07
1.60559e-07
1.63199e-07
1.66043e-07
1.69093e-07
1.72351e-07
1.75817e-07
1.79492e-07
1.83376e-07
1.87468e-07
1.91768e-07
1.96275e-07
2.00989e-07
2.05908e-07
2.1103e-07
2.16353e-07
2.21875e-07
2.27594e-07
2.33505e-07
2.39606e-07
2.45894e-07
2.52364e-07
2.59012e-07
2.65834e-07
2.72825e-07
2.7998e-07
2.87294e-07
2.94761e-07
3.02376e-07
3.10132e-07
3.18024e-07
3.26044e-07
3.34187e-07
3.42447e-07
3.50815e-07
3.59287e-07
3.67854e-07
3.76509e-07
3.85247e-07
3.94059e-07
4.0294e-07
4.11883e-07
4.2088e-07
4.29925e-07
4.39013e-07
4.48136e-07
4.57289e-07
4.66466e-07
4.75662e-07
4.84871e-07
4.94088e-07
5.03308e-07
5.12528e-07
5.21742e-07
5.30947e-07
5.40139e-07
5.49315e-07
5.58472e-07
5.67608e-07
5.76719e-07
5.85803e-07
5.94859e-07
6.03886e-07
6.12881e-07
6.21843e-07
6.30771e-07
6.39666e-07
6.48525e-07
6.5735e-07
6.66139e-07
6.74893e-07
6.83612e-07
6.92297e-07
7.00947e-07
7.09565e-07
7.1815e-07
7.26705e-07
7.35229e-07
7.43725e-07
7.52193e-07
7.60636e-07
7.69055e-07
7.77452e-07
7.85828e-07
7.94185e-07
8.02525e-07
8.10849e-07
8.19159e-07
8.27457e-07
8.35744e-07
8.44022e-07
8.5229e-07
8.6055e-07
8.68803e-07
8.77049e-07
8.85288e-07
8.93521e-07
9.01748e-07
9.09969e-07
9.18184e-07
9.26392e-07
9.34593e-07
9.42787e-07
9.50973e-07
9.5915e-07
9.67319e-07
9.75477e-07
9.83623e-07
9.91758e-07
9.99879e-07
1.00799e-06
1.01608e-06
1.02415e-06
1.03221e-06
1.04024e-06
1.04825e-06
1.05624e-06
1.06421e-06
1.07214e-06
1.08005e-06
1.08793e-06
1.09578e-06
1.10359e-06
1.11136e-06
1.1191e-06
1.1268e-06
1.13445e-06
1.14206e-06
1.14962e-06
1.15714e-06
1.1646e-06
1.17201e-06
1.17937e-06
1.18667e-06
1.19391e-06
1.20109e-06
1.20821e-06
1.21527e-06
1.22225e-06
1.22918e-06
1.23603e-06
1.24281e-06
1.24952e-06
1.25615e-06
1.26271e-06
1.26919e-06
1.2756e-06
1.28192e-06
1.28817e-06
1.29433e-06
1.30041e-06
1.30641e-06
1.31233e-06
1.31817e-06
1.32392e-06
1.32959e-06
1.33517e-06
1.34067e-06
1.34607e-06
1.35139e-06
1.35662e-06
1.36175e-06
1.36679e-06
1.37173e-06
1.37658e-06
1.38126e-06
1.38603e-06
1.39009e-06
1.41908e-07
1.42062e-07
1.42402e-07
1.42923e-07
1.43621e-07
1.44498e-07
1.45557e-07
1.46799e-07
1.48229e-07
1.49847e-07
1.51657e-07
1.5366e-07
1.55858e-07
1.58254e-07
1.60849e-07
1.63644e-07
1.6664e-07
1.69839e-07
1.73242e-07
1.76848e-07
1.80658e-07
1.84672e-07
1.8889e-07
1.9331e-07
1.97933e-07
2.02757e-07
2.0778e-07
2.13001e-07
2.18418e-07
2.24027e-07
2.29827e-07
2.35814e-07
2.41985e-07
2.48336e-07
2.54864e-07
2.61565e-07
2.68433e-07
2.75464e-07
2.82654e-07
2.89996e-07
2.97486e-07
3.05118e-07
3.12885e-07
3.20783e-07
3.28804e-07
3.36942e-07
3.45192e-07
3.53545e-07
3.61997e-07
3.70539e-07
3.79166e-07
3.87871e-07
3.96646e-07
4.05486e-07
4.14385e-07
4.23335e-07
4.3233e-07
4.41365e-07
4.50434e-07
4.5953e-07
4.68649e-07
4.77786e-07
4.86935e-07
4.96091e-07
5.05251e-07
5.1441e-07
5.23565e-07
5.32711e-07
5.41846e-07
5.50967e-07
5.6007e-07
5.69154e-07
5.78216e-07
5.87253e-07
5.96266e-07
6.05252e-07
6.14209e-07
6.23138e-07
6.32037e-07
6.40905e-07
6.49743e-07
6.58549e-07
6.67325e-07
6.7607e-07
6.84785e-07
6.9347e-07
7.02125e-07
7.10753e-07
7.19353e-07
7.27928e-07
7.36478e-07
7.45005e-07
7.5351e-07
7.61996e-07
7.70463e-07
7.78914e-07
7.8735e-07
7.95774e-07
8.04186e-07
8.12589e-07
8.20984e-07
8.29373e-07
8.37756e-07
8.46135e-07
8.5451e-07
8.62882e-07
8.71251e-07
8.79618e-07
8.87983e-07
8.96345e-07
9.04706e-07
9.13064e-07
9.21419e-07
9.2977e-07
9.38117e-07
9.4646e-07
9.54797e-07
9.63128e-07
9.71451e-07
9.79766e-07
9.8807e-07
9.96363e-07
1.00464e-06
1.01291e-06
1.02116e-06
1.02939e-06
1.03761e-06
1.0458e-06
1.05397e-06
1.06212e-06
1.07024e-06
1.07832e-06
1.08638e-06
1.09441e-06
1.1024e-06
1.11035e-06
1.11826e-06
1.12613e-06
1.13396e-06
1.14174e-06
1.14947e-06
1.15715e-06
1.16478e-06
1.17235e-06
1.17987e-06
1.18732e-06
1.19471e-06
1.20204e-06
1.2093e-06
1.2165e-06
1.22362e-06
1.23067e-06
1.23766e-06
1.24456e-06
1.25139e-06
1.25814e-06
1.26481e-06
1.2714e-06
1.2779e-06
1.28433e-06
1.29066e-06
1.29692e-06
1.30309e-06
1.30917e-06
1.31516e-06
1.32107e-06
1.32689e-06
1.33262e-06
1.33826e-06
1.34381e-06
1.34927e-06
1.35464e-06
1.35991e-06
1.36509e-06
1.37017e-06
1.37514e-06
1.38002e-06
1.38473e-06
1.38952e-06
1.39366e-06
1.39378e-07
1.39534e-07
1.39872e-07
1.40388e-07
1.41078e-07
1.41943e-07
1.42986e-07
1.44209e-07
1.45614e-07
1.47205e-07
1.48981e-07
1.50947e-07
1.53103e-07
1.5545e-07
1.57992e-07
1.60729e-07
1.63661e-07
1.66791e-07
1.70119e-07
1.73646e-07
1.77371e-07
1.81295e-07
1.85418e-07
1.89739e-07
1.94257e-07
1.98972e-07
2.03882e-07
2.08985e-07
2.14281e-07
2.19766e-07
2.25438e-07
2.31295e-07
2.37333e-07
2.43549e-07
2.4994e-07
2.56501e-07
2.63229e-07
2.70119e-07
2.77166e-07
2.84366e-07
2.91714e-07
2.99203e-07
3.0683e-07
3.14586e-07
3.22468e-07
3.30468e-07
3.38581e-07
3.46801e-07
3.5512e-07
3.63533e-07
3.72034e-07
3.80615e-07
3.8927e-07
3.97993e-07
4.06779e-07
4.1562e-07
4.2451e-07
4.33444e-07
4.42417e-07
4.51421e-07
4.60453e-07
4.69508e-07
4.78579e-07
4.87664e-07
4.96757e-07
5.05855e-07
5.14953e-07
5.24048e-07
5.33137e-07
5.42217e-07
5.51286e-07
5.6034e-07
5.69378e-07
5.78397e-07
5.87397e-07
5.96375e-07
6.0533e-07
6.14262e-07
6.23169e-07
6.32051e-07
6.40907e-07
6.49738e-07
6.58542e-07
6.67321e-07
6.76074e-07
6.84803e-07
6.93507e-07
7.02188e-07
7.10847e-07
7.19485e-07
7.28102e-07
7.36701e-07
7.45284e-07
7.53851e-07
7.62406e-07
7.70948e-07
7.79481e-07
7.88006e-07
7.96526e-07
8.05041e-07
8.13554e-07
8.22066e-07
8.30577e-07
8.39088e-07
8.47602e-07
8.56117e-07
8.64634e-07
8.73154e-07
8.81676e-07
8.902e-07
8.98726e-07
9.07254e-07
9.15784e-07
9.24313e-07
9.32843e-07
9.41371e-07
9.49897e-07
9.5842e-07
9.66938e-07
9.7545e-07
9.83955e-07
9.92451e-07
1.00094e-06
1.00941e-06
1.01787e-06
1.02631e-06
1.03473e-06
1.04314e-06
1.05152e-06
1.05988e-06
1.06821e-06
1.07651e-06
1.08478e-06
1.09301e-06
1.10121e-06
1.10937e-06
1.11749e-06
1.12556e-06
1.13359e-06
1.14157e-06
1.1495e-06
1.15737e-06
1.16519e-06
1.17294e-06
1.18064e-06
1.18827e-06
1.19584e-06
1.20334e-06
1.21077e-06
1.21812e-06
1.22541e-06
1.23261e-06
1.23974e-06
1.24679e-06
1.25375e-06
1.26063e-06
1.26743e-06
1.27414e-06
1.28077e-06
1.2873e-06
1.29375e-06
1.3001e-06
1.30637e-06
1.31254e-06
1.31862e-06
1.32461e-06
1.33051e-06
1.33632e-06
1.34203e-06
1.34764e-06
1.35316e-06
1.35858e-06
1.36391e-06
1.36913e-06
1.37426e-06
1.37927e-06
1.38418e-06
1.38892e-06
1.39375e-06
1.39793e-06
1.36395e-07
1.36553e-07
1.36889e-07
1.37398e-07
1.38077e-07
1.38928e-07
1.39951e-07
1.41151e-07
1.42528e-07
1.44084e-07
1.45822e-07
1.47744e-07
1.4985e-07
1.52143e-07
1.54624e-07
1.57294e-07
1.60154e-07
1.63206e-07
1.6645e-07
1.69887e-07
1.73517e-07
1.77341e-07
1.81357e-07
1.85567e-07
1.89969e-07
1.94562e-07
1.99347e-07
2.0432e-07
2.09482e-07
2.14829e-07
2.2036e-07
2.26072e-07
2.31963e-07
2.38029e-07
2.44268e-07
2.50675e-07
2.57248e-07
2.63982e-07
2.70872e-07
2.77914e-07
2.85104e-07
2.92436e-07
2.99905e-07
3.07506e-07
3.15233e-07
3.23081e-07
3.31043e-07
3.39113e-07
3.47286e-07
3.55556e-07
3.63916e-07
3.7236e-07
3.80882e-07
3.89476e-07
3.98136e-07
4.06856e-07
4.15631e-07
4.24454e-07
4.3332e-07
4.42223e-07
4.5116e-07
4.60124e-07
4.69111e-07
4.78117e-07
4.87137e-07
4.96167e-07
5.05204e-07
5.14245e-07
5.23286e-07
5.32323e-07
5.41356e-07
5.5038e-07
5.59395e-07
5.68397e-07
5.77385e-07
5.86359e-07
5.95315e-07
6.04255e-07
6.13175e-07
6.22077e-07
6.30959e-07
6.39821e-07
6.48663e-07
6.57485e-07
6.66288e-07
6.75071e-07
6.83835e-07
6.92582e-07
7.01312e-07
7.10026e-07
7.18726e-07
7.27413e-07
7.36088e-07
7.44754e-07
7.53413e-07
7.62065e-07
7.70714e-07
7.7936e-07
7.88007e-07
7.96656e-07
8.05307e-07
8.13963e-07
8.22625e-07
8.31293e-07
8.39967e-07
8.48649e-07
8.57339e-07
8.66036e-07
8.74741e-07
8.83453e-07
8.92172e-07
9.00897e-07
9.09627e-07
9.18362e-07
9.27101e-07
9.35843e-07
9.44585e-07
9.53329e-07
9.6207e-07
9.70809e-07
9.79543e-07
9.8827e-07
9.96988e-07
1.0057e-06
1.01439e-06
1.02307e-06
1.03174e-06
1.04038e-06
1.049e-06
1.0576e-06
1.06617e-06
1.07471e-06
1.08322e-06
1.09169e-06
1.10012e-06
1.10852e-06
1.11687e-06
1.12517e-06
1.13343e-06
1.14163e-06
1.14978e-06
1.15787e-06
1.1659e-06
1.17386e-06
1.18177e-06
1.1896e-06
1.19736e-06
1.20505e-06
1.21267e-06
1.22021e-06
1.22766e-06
1.23504e-06
1.24233e-06
1.24954e-06
1.25666e-06
1.26369e-06
1.27063e-06
1.27747e-06
1.28423e-06
1.29089e-06
1.29745e-06
1.30392e-06
1.31029e-06
1.31657e-06
1.32275e-06
1.32883e-06
1.33481e-06
1.3407e-06
1.34648e-06
1.35217e-06
1.35776e-06
1.36324e-06
1.36862e-06
1.3739e-06
1.37907e-06
1.38413e-06
1.38908e-06
1.39386e-06
1.39872e-06
1.40293e-06
1.32948e-07
1.33108e-07
1.33441e-07
1.33942e-07
1.34608e-07
1.35441e-07
1.36442e-07
1.37614e-07
1.38958e-07
1.40477e-07
1.42171e-07
1.44043e-07
1.46094e-07
1.48326e-07
1.50739e-07
1.53336e-07
1.56117e-07
1.59083e-07
1.62235e-07
1.65574e-07
1.691e-07
1.72813e-07
1.76714e-07
1.80803e-07
1.85079e-07
1.89541e-07
1.94189e-07
1.99022e-07
2.04038e-07
2.09236e-07
2.14614e-07
2.20169e-07
2.25901e-07
2.31805e-07
2.3788e-07
2.44121e-07
2.50525e-07
2.5709e-07
2.6381e-07
2.70682e-07
2.77701e-07
2.84863e-07
2.92162e-07
2.99594e-07
3.07154e-07
3.14836e-07
3.22634e-07
3.30544e-07
3.38558e-07
3.46673e-07
3.54881e-07
3.63176e-07
3.71554e-07
3.80009e-07
3.88534e-07
3.97123e-07
4.05772e-07
4.14476e-07
4.23227e-07
4.32023e-07
4.40856e-07
4.49724e-07
4.58621e-07
4.67543e-07
4.76486e-07
4.85447e-07
4.9442e-07
5.03404e-07
5.12395e-07
5.21391e-07
5.30387e-07
5.39383e-07
5.48376e-07
5.57364e-07
5.66346e-07
5.75319e-07
5.84283e-07
5.93236e-07
6.02177e-07
6.11107e-07
6.20023e-07
6.28927e-07
6.37817e-07
6.46693e-07
6.55556e-07
6.64407e-07
6.73245e-07
6.82072e-07
6.90888e-07
6.99694e-07
7.08492e-07
7.17283e-07
7.2607e-07
7.34852e-07
7.43633e-07
7.52415e-07
7.61199e-07
7.69987e-07
7.78783e-07
7.87586e-07
7.96399e-07
8.05222e-07
8.14057e-07
8.22905e-07
8.31765e-07
8.40638e-07
8.49525e-07
8.58425e-07
8.67337e-07
8.76262e-07
8.85199e-07
8.94147e-07
9.03104e-07
9.12072e-07
9.21046e-07
9.30028e-07
9.39015e-07
9.48005e-07
9.56997e-07
9.65989e-07
9.74978e-07
9.83964e-07
9.92943e-07
1.00191e-06
1.01087e-06
1.01982e-06
1.02875e-06
1.03766e-06
1.04654e-06
1.05541e-06
1.06424e-06
1.07305e-06
1.08182e-06
1.09055e-06
1.09925e-06
1.1079e-06
1.11651e-06
1.12506e-06
1.13357e-06
1.14202e-06
1.15041e-06
1.15874e-06
1.167e-06
1.1752e-06
1.18332e-06
1.19138e-06
1.19935e-06
1.20725e-06
1.21507e-06
1.22281e-06
1.23045e-06
1.23802e-06
1.24549e-06
1.25287e-06
1.26015e-06
1.26734e-06
1.27444e-06
1.28143e-06
1.28833e-06
1.29512e-06
1.30181e-06
1.3084e-06
1.31489e-06
1.32128e-06
1.32756e-06
1.33374e-06
1.33981e-06
1.34578e-06
1.35165e-06
1.35741e-06
1.36307e-06
1.36862e-06
1.37406e-06
1.37939e-06
1.38462e-06
1.38972e-06
1.39471e-06
1.39953e-06
1.40443e-06
1.40867e-06
1.2902e-07
1.29183e-07
1.29512e-07
1.30004e-07
1.30656e-07
1.31469e-07
1.32446e-07
1.33588e-07
1.34896e-07
1.36373e-07
1.38019e-07
1.39837e-07
1.41828e-07
1.43993e-07
1.46333e-07
1.4885e-07
1.51545e-07
1.54419e-07
1.57473e-07
1.60706e-07
1.64121e-07
1.67717e-07
1.71495e-07
1.75455e-07
1.79596e-07
1.83918e-07
1.88421e-07
1.93104e-07
1.97966e-07
2.03005e-07
2.08221e-07
2.1361e-07
2.19173e-07
2.24905e-07
2.30805e-07
2.36869e-07
2.43096e-07
2.49481e-07
2.5602e-07
2.62711e-07
2.69549e-07
2.7653e-07
2.83649e-07
2.90902e-07
2.98284e-07
3.0579e-07
3.13414e-07
3.21153e-07
3.28999e-07
3.36949e-07
3.44996e-07
3.53135e-07
3.6136e-07
3.69667e-07
3.78049e-07
3.86501e-07
3.95018e-07
4.03595e-07
4.12227e-07
4.20909e-07
4.29636e-07
4.38403e-07
4.47207e-07
4.56043e-07
4.64908e-07
4.73797e-07
4.82707e-07
4.91635e-07
5.00577e-07
5.09532e-07
5.18496e-07
5.27468e-07
5.36444e-07
5.45423e-07
5.54403e-07
5.63384e-07
5.72362e-07
5.81338e-07
5.9031e-07
5.99277e-07
6.08239e-07
6.17195e-07
6.26146e-07
6.3509e-07
6.44028e-07
6.52961e-07
6.61888e-07
6.70811e-07
6.7973e-07
6.88646e-07
6.9756e-07
7.06475e-07
7.15391e-07
7.2431e-07
7.33235e-07
7.42166e-07
7.51107e-07
7.6006e-07
7.69026e-07
7.78007e-07
7.87004e-07
7.96018e-07
8.05051e-07
8.14102e-07
8.23172e-07
8.32261e-07
8.41369e-07
8.50496e-07
8.59642e-07
8.68805e-07
8.77985e-07
8.8718e-07
8.96391e-07
9.05615e-07
9.14851e-07
9.24098e-07
9.33353e-07
9.42616e-07
9.51883e-07
9.61153e-07
9.70423e-07
9.79692e-07
9.88956e-07
9.98212e-07
1.00746e-06
1.01669e-06
1.02591e-06
1.03511e-06
1.04429e-06
1.05344e-06
1.06256e-06
1.07166e-06
1.08071e-06
1.08973e-06
1.0987e-06
1.10764e-06
1.11652e-06
1.12535e-06
1.13412e-06
1.14283e-06
1.15148e-06
1.16007e-06
1.16858e-06
1.17703e-06
1.18539e-06
1.19368e-06
1.20189e-06
1.21001e-06
1.21804e-06
1.22599e-06
1.23384e-06
1.2416e-06
1.24926e-06
1.25683e-06
1.26429e-06
1.27165e-06
1.2789e-06
1.28605e-06
1.2931e-06
1.30003e-06
1.30686e-06
1.31358e-06
1.32019e-06
1.32669e-06
1.33308e-06
1.33936e-06
1.34553e-06
1.35159e-06
1.35754e-06
1.36338e-06
1.36911e-06
1.37472e-06
1.38023e-06
1.38562e-06
1.3909e-06
1.39604e-06
1.40109e-06
1.40594e-06
1.41088e-06
1.41514e-06
1.24595e-07
1.2476e-07
1.25086e-07
1.25568e-07
1.26205e-07
1.26998e-07
1.27948e-07
1.29058e-07
1.30327e-07
1.31759e-07
1.33355e-07
1.35115e-07
1.37042e-07
1.39137e-07
1.414e-07
1.43833e-07
1.46437e-07
1.49214e-07
1.52163e-07
1.55287e-07
1.58584e-07
1.62057e-07
1.65706e-07
1.6953e-07
1.7353e-07
1.77705e-07
1.82056e-07
1.86582e-07
1.91282e-07
1.96156e-07
2.01201e-07
2.06418e-07
2.11803e-07
2.17355e-07
2.23073e-07
2.28953e-07
2.34993e-07
2.4119e-07
2.47541e-07
2.54042e-07
2.60691e-07
2.67483e-07
2.74414e-07
2.8148e-07
2.88676e-07
2.95998e-07
3.03442e-07
3.11002e-07
3.18674e-07
3.26452e-07
3.34331e-07
3.42307e-07
3.50374e-07
3.58528e-07
3.66762e-07
3.75072e-07
3.83454e-07
3.91901e-07
4.0041e-07
4.08976e-07
4.17595e-07
4.26261e-07
4.34972e-07
4.43722e-07
4.52509e-07
4.61329e-07
4.70178e-07
4.79053e-07
4.87952e-07
4.96871e-07
5.05809e-07
5.14762e-07
5.23729e-07
5.32707e-07
5.41696e-07
5.50693e-07
5.59697e-07
5.68707e-07
5.77721e-07
5.86739e-07
5.95761e-07
6.04785e-07
6.13811e-07
6.22839e-07
6.31869e-07
6.40901e-07
6.49935e-07
6.58972e-07
6.68013e-07
6.77058e-07
6.8611e-07
6.95168e-07
7.04235e-07
7.13313e-07
7.22403e-07
7.31508e-07
7.40629e-07
7.4977e-07
7.58931e-07
7.68113e-07
7.77319e-07
7.86549e-07
7.95803e-07
8.05083e-07
8.14387e-07
8.23717e-07
8.33071e-07
8.4245e-07