/*--------------------------------*- C++ -*----------------------------------*\
| =========                 |                                                 |
| \\      /  F ield         | OpenFOAM: The Open Source CFD Toolbox           |
|  \\    /   O peration     | Version:  2.3.0                                 |
|   \\  /    A nd           | Web:      www.OpenFOAM.org                      |
|    \\/     M anipulation  |                                                 |
\*---------------------------------------------------------------------------*/
FoamFile
{
    version     2.0;
    format      ascii;
    class       volScalarField;
    location    "2.1e-05";
    object      alpha.fuel;
}
// * * * * * * * * * * * * * * * * * * * * * * * * * * * * * * * * * * * * * //

dimensions      [0 0 0 0 0 0 0];

internalField   nonuniform List<scalar> 
7500
(
1
1
1
1
1
1
1
1
1
1
1
1
1
1
1
1
1
1
1
1
1
1
1
1
1
1
1
1
1
1
1
1
1
1
1
1
1
1
1
1
1
1
1
1
1
1
1
1
1
1
1
1
1
1
1
1
1
1
1
1
1
1
1
1
1
1
1
1
1
1
1
1
1
1
1
1
1
1
1
1
1
1
1
1
1
1
1
1
1
1
1
1
1
1
1
1
1
1
1
1
1
1
1
1
1
1
1
1
1
1
1
1
1
1
1
1
1
1
1
1
1
1
1
1
1
1
1
1
1
1
1
1
1
1
1
1
1
1
1
1
1
1
1
1
1
1
1
1
1
1
1
1
1
1
1
1
1
1
1
1
1
1
1
1
1
1
1
1
1
1
1
1
1
1
1
1
1
1
1
1
1
1
1
1
1
1
1
1
1
1
1
1
1
1
1
1
1
1
1
1
1
1
1
1
1
1
1
1
1
1
1
1
1
1
1
1
1
1
1
1
1
1
1
1
1
1
1
1
1
1
1
1
1
1
1
1
1
1
1
1
1
1
1
1
1
1
1
1
1
1
1
1
1
1
1
1
1
1
1
1
1
1
1
1
1
1
1
1
1
1
1
1
1
1
1
1
1
1
1
1
1
1
1
1
1
1
1
1
1
1
1
1
1
1
1
1
1
1
1
1
1
1
1
1
1
1
1
1
1
1
1
1
1
1
1
1
1
1
1
1
1
1
1
1
1
1
1
1
1
1
1
1
1
1
1
1
1
1
1
1
1
1
1
1
1
1
1
1
1
1
1
1
1
1
1
1
1
1
1
1
1
1
1
1
1
1
1
1
1
1
1
1
1
1
1
1
1
1
1
1
1
1
1
1
1
1
1
1
1
1
1
1
1
1
1
1
1
1
1
1
1
1
1
1
1
1
1
1
1
1
1
1
1
1
1
1
1
1
1
1
1
1
1
1
1
1
1
1
1
1
1
1
1
1
1
1
1
1
1
1
1
1
1
1
1
1
1
1
1
1
1
1
1
1
1
1
1
1
1
1
1
1
1
1
1
1
1
1
1
1
1
1
1
1
1
1
1
1
1
1
1
1
1
1
1
1
1
1
1
1
1
1
1
1
1
1
1
1
1
1
1
1
1
1
1
1
1
1
1
1
1
1
1
1
1
1
1
1
1
1
1
1
1
1
1
1
1
1
1
1
1
1
1
1
1
1
1
1
1
1
1
1
1
1
1
1
1
1
1
1
1
1
1
1
1
1
1
1
1
1
1
1
1
1
1
1
1
1
1
1
1
1
1
1
1
1
1
1
1
1
1
1
1
1
1
1
1
1
1
1
1
1
1
1
1
1
1
1
1
1
1
1
1
1
1
1
1
1
1
1
1
1
1
1
1
1
1
1
1
1
1
1
1
1
1
1
1
1
1
1
1
1
1
1
1
1
1
1
1
1
1
1
1
1
1
1
1
1
1
1
1
1
1
1
1
1
1
1
1
1
1
1
1
1
1
1
1
1
1
1
1
1
1
1
1
1
1
1
1
1
1
1
1
1
1
1
1
1
1
1
1
1
1
1
1
1
1
1
1
1
1
1
1
1
1
1
1
1
1
1
1
1
1
1
1
1
1
1
1
1
1
1
1
1
1
1
1
1
1
1
1
1
1
1
1
1
1
1
1
1
1
1
1
0.9987485
0.99588509
0.9919652
0.98704973
0.98094493
0.9728709
0.95177463
1
1
1
1
1
1
1
1
1
1
1
1
1
1
1
1
1
1
1
1
1
1
1
1
1
1
1
1
1
1
1
1
1
1
1
1
1
1
1
1
1
1
1
1
1
1
1
1
1
1
1
1
1
0.99454938
0.98421163
0.969361
0.94595145
0.917841
0.88209161
0.82414785
0.76523527
0.71274239
0.65958392
0.61068868
0.5540001
0.49429373
0.43314272
0.36813746
0.31009168
0.26667871
0.23131785
0.20375632
0.17958158
0.15449418
0.09859396
1
1
1
1
1
1
1
1
1
1
1
1
1
1
1
1
1
1
1
1
1
1
1
1
1
1
1
1
1
1
1
1
1
1
1
1
1
1
1
1
1
1
0.99249053
0.97684482
0.94868701
0.911688
0.83580739
0.7495445
0.65798449
0.57192993
0.48983438
0.40958189
0.33673839
0.26024388
0.19197962
0.13945379
0.085512684
0.033140788
8.5797431e-10
3.6404671e-10
3.640467e-10
3.6404669e-10
3.6404669e-10
3.6404669e-10
3.6404669e-10
3.6404668e-10
3.6404668e-10
3.6404667e-10
3.6404665e-10
3.6404662e-10
3.6404659e-10
3.6404655e-10
3.6404769e-10
3.6407948e-10
3.6404739e-10
1
1
1
1
1
1
1
1
1
1
1
1
1
1
1
1
1
1
1
1
1
1
1
1
1
1
1
1
1
1
1
1
1
1
0.98786836
0.96128639
0.91092243
0.81085217
0.69528822
0.57882476
0.46840577
0.35794555
0.25317723
0.16707724
0.095359479
0.0041348958
8.2410349e-10
7.5545022e-10
7.5545021e-10
7.554502e-10
7.554502e-10
7.5545019e-10
7.5545018e-10
7.5545018e-10
7.5545018e-10
7.5545018e-10
7.5545019e-10
7.5545022e-10
8.9280823e-10
1.3346585e-09
1.3227326e-09
1.3164357e-09
1.3402131e-09
1.9819336e-09
2.5595766e-09
4.5224892e-09
5.7578199e-09
6.5514278e-09
1.2035166e-08
1.4997732e-08
1.0225723e-08
3.8149584e-10
3.6803998e-07
3.9211145e-06
7.3016617e-10
1
1
1
1
1
1
1
1
1
1
1
1
1
1
1
1
1
1
1
1
1
1
1
1
1
1
1
1
0.98235494
0.92749333
0.81863837
0.67334186
0.52218891
0.37478748
0.23010451
0.1271881
4.1650109e-09
3.1257121e-09
3.1257121e-09
3.1257121e-09
3.1257121e-09
3.1257121e-09
3.1257122e-09
3.1257122e-09
3.125721e-09
3.125721e-09
3.170356e-09
3.2547851e-09
3.3171197e-09
3.3872096e-09
3.4529791e-09
3.6165974e-09
3.8760041e-09
7.5546941e-10
1.2782038e-09
7.5545088e-10
2.1130312e-09
3.4742736e-09
4.6416798e-09
5.6856855e-09
1.7462178e-09
1.7311894e-09
1.340582e-09
9.5196699e-09
2.8858068e-09
1.3818564e-07
2.9093029e-08
3.523051e-08
4.6801816e-08
4.0162132e-08
1.3360882e-08
6.2499674e-09
1.3247216e-09
3.7808277e-06
0.00013220207
1
1
1
1
1
1
1
1
1
1
1
1
1
1
1
1
1
1
1
1
1
1
1
0.97700637
0.90111332
0.73826887
0.55461265
0.36012278
0.20310576
0.026004306
3.9196526e-09
3.6297991e-09
3.6297991e-09
3.6297991e-09
3.6297991e-09
3.6297991e-09
6.0947654e-09
7.6870842e-09
1.0122014e-08
1.415261e-08
1.8872461e-08
1.7479372e-08
1.4638567e-08
1.2739321e-08
1.1819063e-06
3.6520666e-09
3.7353302e-09
4.1987413e-09
3.746414e-09
3.9572553e-09
3.4538317e-09
3.863384e-09
3.8643059e-09
0.0042050854
0.016841025
0.0012487082
2.4895068e-09
2.4102511e-09
2.016585e-09
1.6534931e-09
0.00086744474
0.0067990251
0.0052989505
9.9503567e-09
3.8427703e-05
5.9779164e-06
8.732292e-09
4.6141071e-07
2.3057914e-07
1.1706865e-08
2.0823826e-09
1.7604215e-09
1.3215893e-09
1.3362604e-09
0.00043404544
1
1
1
1
1
1
1
1
1
1
1
1
1
1
1
1
1
1
1
0.96509221
0.84812935
0.64579147
0.41229591
0.19677845
4.9819067e-09
3.7402595e-09
3.7402595e-09
3.7402746e-09
3.741027e-09
3.758738e-09
4.3958557e-09
4.2100415e-09
4.375108e-09
4.8815813e-09
4.1934523e-09
3.6298841e-09
2.5011205e-08
3.6463678e-08
3.8629937e-08
4.3914532e-08
9.3805015e-08
9.3326845e-09
8.8297826e-09
7.9705852e-09
2.4947116e-05
0.00025728243
4.3993879e-09
4.4501749e-09
0.012496225
0.044951665
0.029253433
0.0076876787
4.1070002e-09
0.026617586
0.028907043
0.028977195
0.0018700753
0.00098863088
0.00065420231
1.7941589e-09
0.0023676785
0.015714674
0.015759687
0.010846247
0.00055663151
8.6966761e-09
8.4105786e-09
8.6928847e-09
1.8265127e-06
1.3680238e-09
0.00018364131
0.00072474283
0.00040740066
2.0170351e-05
2.2541639e-09
1
1
1
1
1
1
1
1
1
1
1
1
1
1
1
1
0.92145866
0.72045098
0.45688808
0.16168255
4.8082855e-09
3.7865668e-09
3.7865668e-09
3.7865668e-09
4.4881233e-09
1.302243e-08
1.4514175e-08
4.2452088e-06
0.00013530978
0.00049490177
0.00025029662
1.3898142e-05
4.935365e-09
4.9121658e-09
0.0010596206
4.4944929e-05
7.7673369e-09
1.7407287e-07
1.0281249e-07
2.5562756e-08
7.0902639e-06
1.7544492e-05
8.4477976e-09
7.970767e-09
7.9756892e-09
0.0012903461
0.0014078548
0.0043543591
0.070738775
0.070738774
0.070738774
0.039712498
4.5899273e-09
0.0044885287
9.7986909e-09
0.0043580969
0.0023178286
0.0029753641
0.0030043178
0.0008768398
1.2863691e-08
1.2595273e-08
0.014216452
0.014785971
0.00089157204
8.6733292e-09
8.4116129e-09
6.8177865e-06
3.5058276e-07
1.3314888e-09
0.00083707968
0.00090809742
0.00091001497
7.8500041e-05
2.4609627e-09
1
1
1
1
1
1
1
1
1
1
1
1
1
0.93058542
0.71656061
0.40574293
0.047175398
5.2589108e-09
4.8587619e-09
4.8688804e-09
5.5574854e-09
4.6630671e-09
4.6732839e-09
4.5494285e-09
2.8908186e-06
8.2120932e-07
1.4797954e-08
0.0016295431
0.0025371802
0.0025371798
0.0016061815
0.00075374121
4.4592498e-05
0.00088964164
0.0079931039
0.0005010965
7.0253218e-09
6.4395727e-09
5.9883914e-09
3.735723e-07
9.7503529e-09
8.6736723e-05
7.088537e-05
3.8490482e-05
8.1509093e-09
8.1515281e-09
0.0067616633
0.041200152
0.0051821933
0.046764296
0.070738773
0.012166233
4.7213004e-09
4.8802806e-09
0.0016706616
4.1641962e-09
4.0592394e-09
3.4864371e-09
0.00024459264
0.00087552472
0.0001415282
4.0092978e-07
0.001582159
0.0024521543
1.9408982e-05
3.3811688e-05
0.000181803
0.00023076319
0.00010171809
1.3388434e-09
1.0161247e-09
1.0161298e-09
1.0100199e-05
1.2777405e-09
2.9530442e-06
1
1
1
1
1
1
1
1
1
1
1
0.86988762
0.54721453
0.10375326
4.8610989e-09
4.1404555e-09
4.1404555e-09
5.1550395e-09
0.00047745753
0.0013459773
0.0011964749
0.00041154063
0.0008365263
0.0004127236
6.8667042e-05
1.287922e-07
0.00037517431
4.8716801e-09
0.00031566227
0.0023599773
0.00089917307
0.00076827425
0.0010084785
0.0010955717
0.0079931038
0.0003965098
0.0095993422
0.00015587337
1.4642427e-05
7.8931051e-07
1.0181118e-08
1.0147692e-08
0.00037755665
0.00048278121
0.00021144241
8.652871e-09
6.9331922e-05
1.7673384e-08
1.7533512e-08
1.7150054e-08
0.013936519
0.052073833
0.049420835
0.0061889579
0.027472734
0.025769843
4.05518e-09
4.0009911e-09
2.2171312e-08
0.00087421873
8.6284266e-05
1.3428965e-08
1.3327252e-08
1.3232801e-08
0.00033984627
0.00037790347
0.00013457197
9.9308401e-05
5.504622e-05
2.014651e-06
1.2585491e-09
9.75454e-09
4.5580088e-09
1.1066656e-09
6.9786297e-06
1
1
1
1
1
1
1
1
1
0.84826131
0.45734576
0.0054336719
4.3939678e-09
4.3376566e-09
4.8190673e-09
5.2651747e-09
5.1201375e-09
0.0023340634
0.0082637972
0.0082597425
0.0044543055
0.001442683
0.0021758029
0.0021776967
3.8033826e-07
0.0028431334
0.0052801574
4.6306532e-09
5.0144049e-09
0.0003294246
3.8780066e-09
3.8755542e-09
3.8755383e-09
4.18999e-09
0.0062989071
0.0024182297
0.021340541
0.0086819619
5.1496108e-09
4.4232412e-09
4.3053603e-07
2.6268481e-06
7.0082034e-09
7.4258228e-05
6.8277344e-09
0.00068096223
0.0062707228
0.011243375
0.016153523
1.7568536e-08
0.037222907
0.067896819
0.067896819
0.05798875
0.026573354
0.017280599
0.00047401867
4.1221804e-09
0.001870089
0.00031427347
8.0197609e-08
0.0011639255
0.0057675133
0.0031140858
0.0028005365
3.6124563e-07
1.6541082e-09
1.3157738e-09
1.3157654e-09
1.3358543e-06
2.0967993e-07
2.0600119e-09
2.429478e-09
1.3243588e-09
1.5160844e-09
1
1
1
1
1
1
1
0.89338071
0.51096083
0.008781156
5.5719073e-09
5.476275e-09
5.4759518e-09
6.0881435e-09
6.6775253e-09
1.427068e-06
0.0025629896
0.0085801973
0.0030123223
4.7389209e-09
4.7404351e-09
1.7268717e-06
1.1837538e-06
0.0021778818
0.0019249383
0.0060599297
0.0060731605
4.6306528e-09
5.7550086e-09
4.9714312e-09
4.4038646e-09
1.0419399e-08
6.6884238e-09
3.9270927e-09
3.9484613e-09
0.0013262142
0.0035563255
0.0073464173
4.4229955e-09
4.4230196e-09
2.6007546e-06
7.130887e-06
7.0045138e-09
6.5953581e-09
6.5565433e-09
6.7194554e-09
0.0014693083
0.031961373
0.032059545
0.0051165324
0.0077368158
0.034180382
0.067896819
0.025488589
0.00045706386
4.4677172e-09
0.00037566275
4.4015269e-09
0.00055558862
7.9864774e-06
0.01043663
0.013154028
0.013154028
0.013154028
0.00046918423
2.0223356e-09
1.7951043e-09
1.5482365e-09
1.4860502e-09
1.3285931e-09
1.3291614e-09
1.8400968e-09
2.0375747e-09
0.0034952616
0.00023037188
1
1
1
1
1
1
0.73757137
0.10668181
8.6915444e-09
7.9027372e-09
3.1229938e-06
9.345399e-07
4.6565996e-06
0.0039421129
0.0024003509
0.00020220451
0.0084544452
5.1582099e-08
5.9042714e-09
5.7427122e-09
4.801148e-09
5.4948274e-09
3.0210287e-06
0.00074543816
0.0025257859
4.8093814e-09
0.0048290656
4.6897103e-09
3.496264e-06
4.9850234e-09
0.00029898367
4.3082038e-09
4.3079979e-09
0.00050171654
0.00010081818
0.0068678157
4.7154521e-09
4.6990312e-09
4.4229936e-09
4.4534193e-09
4.9578863e-09
5.111676e-09
0.00054003841
0.0034352722
0.0036789429
0.0022382783
6.2086832e-09
5.6480236e-09
5.6229951e-09
8.9632644e-05
1.6262809e-08
1.5992962e-08
0.028456207
0.0039272717
4.3917101e-09
4.074061e-09
0.00051434701
0.0039745576
7.4650943e-05
7.9862705e-06
0.010892038
0.0086612152
0.0026290157
0.00013003589
7.4564997e-07
0.00070287894
0.0026387035
0.0016249478
1.7996015e-09
1.5571838e-09
1.5575944e-09
1.7470377e-09
0.0020107723
0.01238177
0.0089681455
1
1
1
1
0.96968923
0.47905907
1.215721e-08
9.8910482e-09
1.3526048e-08
1.039262e-05
2.7043885e-05
7.4357016e-09
0.0011935075
0.0046033444
5.6581642e-08
5.639331e-08
0.0049180236
6.9769149e-05
0.00032315471
0.00090363041
4.7519956e-09
5.4862173e-09
5.3112084e-09
4.6284134e-09
4.628414e-09
4.8581526e-09
5.8176769e-09
5.2442021e-07
4.5507281e-09
0.0047694945
0.004781722
4.7591769e-09
4.3083359e-09
4.3534641e-05
5.6248425e-05
0.0038142826
1.0678628e-07
0.007808262
1.4407029e-05
4.840095e-09
1.3264793e-05
5.5299678e-05
0.0023952496
0.0056847517
0.0056847514
0.0030732254
0.00058895419
0.0017575222
0.00028182092
0.012748167
0.015024316
0.0075126795
6.4400819e-09
6.2615283e-09
0.0018778268
0.00043685579
0.0002001333
0.017652397
0.01770081
0.017647616
0.006694653
9.9759778e-09
9.7519817e-09
4.7420572e-05
7.4562879e-07
0.0045357996
0.007647003
0.006078227
0.0059471318
0.004760599
0.0051611754
0.002855257
0.012491081
0.0065826563
0.01086372
1
1
1
0.95735026
0.26721275
3.0623575e-08
2.9760462e-08
4.1902115e-07
2.1772941e-08
0.00011464565
1.4546191e-05
7.2935475e-09
7.4076526e-09
0.0038750596
3.7781689e-05
5.7052931e-08
0.0008793205
4.0136046e-05
5.9702321e-05
0.0018016205
3.3706154e-05
0.00047535625
3.6482072e-05
4.6306918e-09
5.8333644e-09
6.4134603e-09
7.2642589e-09
5.3662756e-09
5.1684611e-09
0.00018443232
0.0039858836
7.253491e-05
4.7688313e-09
4.860255e-09
3.1644867e-06
5.6311543e-09
5.8280321e-09
0.010848142
0.0062860172
0.0010033584
6.7928183e-05
0.0015031445
0.0022142261
0.0003500404
0.00076198641
2.8537838e-09
0.006214408
0.016029067
0.010179385
0.016029113
0.016029113
0.016029113
3.6249545e-06
6.2332352e-09
0.00035482748
0.00012452128
0.0094065259
3.7743279e-08
0.0010326632
0.016648808
0.0016875448
1.0270838e-08
8.4548892e-05
0.00040210514
3.1281697e-05
2.4487909e-10
2.5169507e-10
0.0032691637
0.012559495
0.012499001
0.01241884
0.012318275
0.00010374345
8.1858619e-10
8.1451473e-10
1
1
0.98759266
0.25083836
2.685505e-08
2.9036242e-08
2.8594053e-08
5.4005063e-06
7.6386288e-05
7.470094e-09
7.1490922e-09
9.3212183e-09
5.3385914e-05
0.0018445759
4.5402116e-06
1.5617213e-06
6.7585062e-09
9.8028904e-05
0.00031252504
8.2251506e-07
0.00016102788
0.003837326
0.0025838163
5.1329801e-09
5.8065169e-09
6.2341909e-09
5.2156695e-09
2.9921714e-06
1.2214141e-05
4.5164312e-09
5.1235382e-09
9.2156117e-05
5.1070939e-09
0.00027120075
5.0867644e-09
5.0619314e-09
0.0003047908
0.00080725857
0.012343876
0.011788479
2.594649e-06
8.5883657e-09
0.00027171122
0.0001095593
7.4453286e-06
2.6251125e-09
0.0094544022
0.016029067
0.016029066
0.0052875736
0.0034634945
0.01494795
0.015218295
0.00022237954
3.8234297e-09
3.8274344e-09
0.011459749
0.0024640022
1.9024691e-09
1.6557828e-09
4.6211145e-05
1.0300659e-08
0.0012566978
3.6053487e-10
2.4435929e-10
2.4434261e-10
0.00015875412
0.002980675
1.8699292e-06
5.9142798e-10
5.9095079e-10
5.9095002e-10
6.5956557e-10
8.3540403e-10
1.010803e-09
1
1
0.31693348
2.7385576e-08
2.4877891e-08
2.1539894e-06
3.0276944e-08
3.2201135e-08
8.2047501e-05
1.2940358e-05
9.0460047e-09
0.00010700554
0.00016573799
6.6138464e-09
5.1773847e-09
5.1749855e-09
5.8892115e-09
4.0956381e-05
0.0046204258
0.0059855278
7.5001723e-05
3.4546619e-09
3.4950773e-09
0.0010701614
0.00090928617
0.0035836306
4.5508768e-09
4.5748029e-09
2.7298223e-05
3.9843156e-09
3.9671783e-09
9.2181557e-05
8.0841472e-09
8.1187302e-09
0.0046601232
0.021882338
0.0059072441
4.4517414e-05
0.0043046066
2.2177628e-06
2.7189147e-06
1.0136307e-08
4.7983886e-09
0.0020017309
9.6172708e-05
2.6177809e-09
0.0043393944
0.011061229
0.0092864794
1.1095391e-09
6.9416836e-10
0.0027795819
0.0020934675
0.00011601012
3.5798059e-09
0.0047811558
0.0023005874
0.0030233118
0.00027362955
1.2735706e-09
0.0009787438
0.00012865071
2.9397262e-07
6.5470914e-10
6.1485357e-10
2.4434263e-10
0.0057259532
0.00076309451
6.0243377e-09
1.6989634e-08
2.6066662e-08
5.9141033e-10
1.4545491e-05
0.00061274046
0.001819903
1
0.64746096
0.025033181
0.00028665181
2.4365169e-08
3.4063887e-05
0.00039639825
7.0291505e-06
5.9676899e-06
4.7559231e-05
7.0706276e-09
7.0419502e-09
7.0418477e-09
1.235887e-08
6.2417665e-09
5.1837385e-09
2.7594319e-06
0.0012527153
0.0032943882
0.0085891073
0.008585193
3.4546556e-09
7.2334463e-06
0.0031713054
0.0041359031
0.0041381222
0.0041235801
0.0011901036
3.5903337e-07
0.0005493767
0.00074032146
9.2207288e-05
0.00075252979
3.1036573e-05
0.00049840379
0.021934159
2.4769692e-08
4.3632008e-05
2.2183804e-06
2.2177022e-06
2.8186199e-05
1.4868275e-05
1.3980042e-06
2.6228991e-09
6.3924567e-07
2.5762248e-09
0.00036314645
1.0213022e-09
7.5118294e-10
8.8328394e-10
6.941685e-10
0.0032588874
3.4766079e-09
3.3791511e-09
3.569958e-09
0.0035288874
1.4915271e-09
1.1395927e-09
3.28778e-05
1.2210813e-09
1.2511698e-09
0.0031005054
0.00052813217
5.4471506e-10
8.0732151e-10
2.444079e-10
0.00096755564
0.00041344863
3.4420088e-06
3.6204818e-07
1.7077212e-07
6.5507702e-10
4.4033429e-10
0.0030068876
0.0040033649
0.96968889
0.08088845
2.4319043e-08
2.1109002e-08
2.2646485e-08
1.4698035e-05
0.0019085113
3.9105126e-05
1.1398755e-08
1.1408083e-08
1.9642657e-08
1.4338763e-08
1.3319637e-08
5.3885409e-09
5.9989929e-05
5.9625011e-09
0.00028138725
0.0036746384
0.0010188797
0.0024452221
0.0046812118
3.4533186e-09
3.4549345e-09
3.4547294e-09
3.4545779e-09
3.6189316e-09
0.0040113694
7.2078253e-05
3.5963804e-07
3.4652334e-05
0.00071567974
1.3282408e-07
0.0009527119
8.9376666e-05
6.8025601e-08
6.5649354e-05
2.5029382e-08
2.5345336e-08
1.2730055e-05
2.2181393e-06
2.2181579e-06
0.00013936016
3.7294604e-06
2.9292904e-09
2.8467068e-09
2.5540785e-09
2.2214611e-09
2.1500071e-09
1.4481994e-07
9.9344695e-10
6.9416872e-10
0.00093240712
0.0089553237
0.0089803153
0.0033982114
1.6698213e-09
1.3666042e-09
1.1395929e-09
0.0030451478
0.0034652877
0.0011828694
0.0016756875
0.00015415156
7.8443278e-10
9.6023332e-10
4.4646754e-09
5.8319373e-10
5.8318992e-10
4.338304e-05
1.1002635e-09
9.1814408e-10
6.7504083e-10
5.1992602e-10
4.4052394e-10
0.00028560232
0.32130225
2.6859925e-08
2.9567142e-08
2.1971333e-07
3.2852402e-07
2.6874077e-07
0.0019085146
1.5263681e-05
1.1436881e-08
1.8449791e-07
1.9988089e-08
1.4462743e-08
1.0862067e-06
8.2719067e-06
0.00026595843
1.5799514e-05
6.1197415e-05
0.00094859044
0.00075848549
0.0085620856
2.8386351e-09
3.5171668e-09
4.1002117e-09
2.6051531e-07
2.5167054e-08
3.0410665e-07
1.337613e-08
1.3435245e-08
0.0006701006
2.9850051e-05
1.0951083e-07
1.0847276e-07
2.0246886e-09
0.00065314015
2.4353885e-05
3.4927446e-09
0.00063116834
0.0053631038
1.1161148e-05
7.8232616e-05
7.0987914e-05
4.2783713e-09
3.9136627e-09
3.4153172e-09
0.00066458365
0.0089625342
0.0034984371
2.2262506e-09
2.5135514e-06
0.0054356425
0.00059741325
9.3415319e-08
0.0028158179
0.0079143202
0.0044928249
2.0841445e-09
0.0027813381
1.4185929e-09
0.00022669652
1.4457915e-09
1.3892362e-09
1.2525272e-09
1.0087623e-09
9.8324756e-10
1.0030989e-09
8.2967433e-10
6.7254075e-10
5.8319111e-10
8.6956194e-06
0.0012353749
0.0024549131
0.00015787178
6.9688621e-10
1.5924258e-07
7.1509633e-10
0.10232609
2.2705966e-08
9.928323e-07
1.8248365e-06
3.7400131e-06
0.0007422842
0.001908488
1.2899955e-06
1.4903819e-08
2.2025978e-07
2.1090538e-08
1.6784397e-08
4.2953269e-07
3.708144e-05
0.00018362676
0.00018464447
2.0958761e-08
2.1909075e-08
4.9482735e-08
0.0085640141
2.0323993e-09
2.8074048e-05
6.4716897e-05
2.3119164e-06
1.3903595e-08
1.3462021e-08
1.2310671e-08
0.0018293431
0.0018118892
6.3761536e-05
1.052197e-05
1.3050662e-06
1.4320862e-07
3.2355462e-05
7.843453e-06
3.1261802e-09
0.0039207908
0.012362385
0.010308309
0.00014905802
0.0014340112
0.0012390052
0.014104002
0.014357631
0.024279443
0.027748876
0.027855216
0.01493068
6.0038718e-05
0.016488196
0.0025510026
9.3298009e-08
9.3049135e-08
9.2775471e-08
0.001022548
0.00024563933
0.013075552
0.0066441296
0.00022783622
0.00031463316
0.00065146515
1.257725e-09
0.0040514889
0.0032878048
0.00085439419
4.7614462e-05
8.5042151e-10
5.8329441e-10
2.9399727e-06
0.002924056
0.0029240562
0.0011025112
9.355963e-10
4.707953e-06
1.6537052e-05
1.0033441e-08
1.6010949e-08
1.6088604e-08
1.7653834e-08
5.3884649e-06
0.0015656285
6.252075e-06
8.6822774e-07
1.3523793e-06
2.2360124e-07
2.0748471e-08
1.7895092e-08
2.1599379e-07
2.170265e-05
1.963168e-08
1.96306e-08
1.9630594e-08
0.0010676272
0.0079641835
0.0085650677
2.0281734e-09
0.00085656966
0.0028189036
1.4343905e-08
1.3302062e-08
1.2310636e-08
1.2310633e-08
0.0009137028
1.1894705e-08
2.3827501e-06
5.048321e-06
2.4672431e-09
1.8021441e-09
0.0042898846
3.3894157e-09
3.1231676e-09
3.1705103e-09
3.2184607e-09
0.0011346262
0.00013153143
4.6893396e-09
0.0066814652
0.017610335
0.017713812
1.5685387e-08
1.562955e-08
0.0040208218
2.3998233e-09
0.012467055
0.016488196
0.0076506102
0.0012199367
9.3071521e-08
9.2447152e-08
0.0012401119
3.9463217e-05
0.010474915
0.013209398
0.013233723
0.00655677
0.0052705239
0.009173022
0.0092104223
0.0091528348
0.0051880319
0.001850399
9.6474326e-10
7.8459795e-10
0.000935672
0.0022398405
0.0029240563
0.0029240563
9.0925675e-05
8.309598e-10
0.0017224957
5.2103467e-05
1.6118553e-08
1.8497166e-08
2.1448163e-08
5.1842552e-05
0.0011102223
3.0980466e-08
7.6465823e-07
1.0874798e-07
2.1191475e-05
2.0247255e-08
1.8953167e-08
2.0211149e-08
2.0603977e-08
1.9816356e-08
2.0415087e-08
0.0025682063
0.0025815596
0.0019861906
0.00856483
1.9639896e-09
1.9641384e-09
0.0028077945
0.0012665511
0.0050350964
0.0028316482
6.7163817e-05
1.2479498e-08
1.1224713e-08
1.0069423e-08
3.0969137e-09
2.893814e-09
2.5185553e-09
2.0149518e-09
0.004548724
0.0029886375
0.0003052213
0.00093703458
2.0346466e-09
1.9468731e-09
4.5267961e-09
1.0496958e-09
1.050988e-09
1.0511098e-09
2.7152421e-06
0.00067838582
0.00044605373
1.9799718e-09
0.015997842
0.0064977535
0.014038852
0.012030779
9.3322028e-08
0.003372918
0.015668038
0.0082551029
6.3053138e-09
6.2161702e-09
0.003634782
8.0896786e-10
7.9580554e-10
0.0055099049
0.00044792018
5.7894916e-10
5.7623044e-10
0.00071111057
0.00064695248
0.0013733535
0.0024358722
1.5740003e-09
0.00033130805
0.0029240562
0.0007364478
9.7693155e-10
0.0010630974
0.0001403468
2.6255387e-08
0.00014553529
0.00092991964
0.00076547929
2.2983578e-08
1.4829076e-06
1.4448218e-05
1.1079776e-07
2.1169722e-05
7.9412554e-06
9.5059027e-06
0.00022161632
1.9702028e-05
2.019423e-08
8.7138579e-05
0.00079350057
0.00041108041
3.5653154e-05
0.0069624659
6.1975756e-06
9.7067051e-08
1.5107101e-09
0.0030530393
0.0057039597
0.0040341347
2.3177937e-08
7.5415556e-06
0.0021013299
3.0400051e-09
2.5622048e-09
2.9437882e-09
2.6723352e-09
2.0149512e-09
0.015278897
0.015282461
0.0044258212
0.0076168691
0.0073616959
1.9963465e-09
1.6488139e-09
1.329108e-09
2.7255699e-05
9.4859113e-06
1.075307e-09
0.025788438
0.031761015
0.03164226
0.0044187974
0.0027734622
0.010964814
1.5912617e-08
0.00026471277
4.5811576e-10
0.017115651
0.017158675
0.0015160252
6.3887189e-09
6.5951426e-09
0.00020531171
7.8918267e-10
7.8847351e-10
5.7563025e-10
8.0411347e-10
7.1197615e-10
5.7644599e-10
0.0021346684
0.0021354103
7.2798948e-08
1.4974661e-09
1.3222112e-09
0.0026187372
0.0026521777
9.3284701e-05
6.1072513e-09
4.9999996e-08
0.00010465627
0.00082106879
0.00099809067
0.00099200369
2.307315e-08
1.8856797e-06
1.4435097e-05
4.2265267e-06
5.7437496e-08
4.8855092e-05
0.00031320933
0.00051892533
6.210033e-05
3.4399215e-08
0.00020317469
6.9308955e-08
6.8522139e-08
7.1532695e-05
9.9735826e-08
5.3698034e-05
2.5453807e-06
2.0819407e-09
1.5104503e-09
1.5104484e-09
0.007234676
0.0072188445
0.0065167641
0.0065136193
0.001028475
4.6326656e-05
6.3690605e-05
0.0032070595
0.00013720347
0.0068645607
0.0074407634
1.1508993e-07
0.0002290302
0.0011318693
0.010780517
0.01039203
0.0023172211
5.4361118e-05
1.3005231e-09
1.2794809e-09
1.0373377e-09
0.0066846973
0.0072016893
0.0010204656
0.010526844
0.00142223
1.5890146e-08
1.194156e-07
4.0263116e-10
0.017112993
0.016440493
1.1527788e-05
6.5507086e-09
0.0002132357
0.0010000942
1.1863277e-08
7.2977089e-10
7.4086825e-10
9.1632217e-10
9.0528565e-10
7.2419228e-10
0.0004167396
0.00024770745
0.00081620337
0.0025305108
1.1891254e-07
0.00050922321
0.0018671308
0.00029627789
6.0860619e-09
2.8689185e-05
0.00081860663
0.00081984428
1.2270809e-05
2.3228583e-08
2.49309e-08
2.5020045e-08
2.5131324e-08
4.2170782e-06
2.3722731e-07
2.9458552e-08
2.9455068e-08
0.00039007711
0.00038733754
3.5498867e-08
0.00010878512
4.2449111e-06
6.9959393e-08
4.5398506e-06
1.0944297e-06
3.4090068e-05
2.010183e-06
2.666632e-09
6.5954806e-09
1.5104518e-09
0.0065026942
0.0019297238
3.9202764e-09
0.0047758591
0.0062310026
0.0062338079
0.0028207167
0.0036545354
0.0036687532
4.2813728e-08
4.3320702e-08
1.4620167e-06
1.1280465e-07
1.1233719e-07
0.035870434
0.035962716
0.032563361
1.1171833e-09
1.0499731e-09
9.3037378e-05
6.674518e-07
1.1425294e-09
1.2948547e-09
0.004845886
0.0011105642
1.9511113e-06
0.00012234342
4.7316878e-06
6.3572027e-05
0.0042513135
1.0492309e-09
2.5333772e-07
2.5271173e-06
4.5035454e-05
4.3619504e-05
0.00053653149
0.00045656257
0.00049133381
0.00071727617
0.001030504
0.00035988097
2.9737488e-09
2.9347018e-09
0.004294011
0.0042972058
0.0015296715
9.2326571e-09
9.1038737e-09
0.00011935665
1.428463e-05
0.00044429955
0.00081735897
0.00015632556
3.1955235e-08
6.7340726e-08
2.8415498e-08
1.295744e-07
1.4209759e-07
2.0039718e-08
2.0035111e-08
1.6486036e-07
3.0467858e-08
2.9823235e-08
2.9991487e-08
0.00029877954
6.9175958e-08
3.6013865e-06
5.2456703e-06
2.4992511e-08
2.1585099e-07
2.4558112e-09
2.4563118e-09
3.2867875e-09
2.159793e-09
1.9544865e-09
2.7117837e-09
3.1923973e-09
3.736253e-09
3.7414577e-09
3.7262346e-09
3.7012496e-09
3.6998382e-09
3.6998381e-09
0.00056994744
1.0863902e-08
0.00016550517
1.7606297e-05
0.00014840042
0.0037582427
5.0706546e-10
4.8970859e-10
4.8970867e-10
6.6098727e-10
6.7697917e-05
0.00097288116
9.348481e-08
1.3823602e-09
0.010448204
0.013986497
5.9798291e-05
1.950883e-06
0.0026072974
3.1787649e-05
7.653369e-10
7.5910936e-10
6.7457287e-10
6.8083075e-10
7.8161101e-10
9.1871277e-10
6.3640495e-05
0.0016807506
0.001691914
0.001689058
0.001681005
0.0016724066
0.0016582571
2.1994958e-05
0.00012380398
0.0016502724
0.0018962468
0.002634794
0.00010504335
9.2935696e-09
4.5801382e-05
8.0430989e-06
1.6714913e-05
0.00027093801
1.4213713e-07
1.4244714e-07
8.1717264e-08
2.9574596e-08
1.5295689e-07
1.912193e-07
7.4077615e-08
3.0982111e-08
5.9728553e-07
3.1182127e-08
2.9883402e-08
4.4790581e-07
0.0016266153
7.2168796e-05
1.6378087e-06
0.00010711005
0.00010683768
3.1049236e-09
3.0251379e-09
3.2095966e-09
3.3280964e-09
2.7280003e-09
3.5131403e-05
2.7271695e-09
8.8786585e-05
0.0001237399
6.3387563e-05
0.0001275917
5.2479516e-06
4.0554643e-09
4.0683882e-09
4.4034002e-09
0.00032015671
7.7578686e-05
3.3804549e-08
3.3423479e-08
0.0081529939
0.00041034425
7.7003371e-10
5.7998304e-09
8.5984239e-06
1.7942681e-08
0.00080925199
0.0096979191
0.0091374845
0.00088491823
0.0025614806
0.0001147992
0.0035045753
1.5072092e-09
1.2940828e-09
0.0053322168
0.0078318646
7.0201438e-05
8.9247218e-10
1.3820562e-06
9.7717215e-10
0.00023348651
2.4646428e-10
2.5072186e-07
2.4687813e-10
2.4704145e-10
2.4791844e-10
2.4663242e-10
2.4657941e-10
0.00091052875
2.4600818e-10
2.1695525e-10
2.1695526e-10
7.7793334e-05
3.0518348e-06
1.9409019e-05
5.5327406e-07
5.5429759e-05
1.2009079e-07
1.4077985e-07
4.8742957e-07
9.3899989e-08
8.5026591e-06
1.5275316e-07
1.8645685e-07
5.8380289e-08
3.5942233e-08
8.1456001e-08
3.1588936e-08
3.0082564e-08
3.0133965e-08
0.0016266151
0.00021608772
1.5329273e-06
3.9867281e-05
5.0353016e-05
3.1314254e-09
0.00067460402
0.0030261242
0.0019034581
0.0018320107
0.004320682
0.00043294205
1.2614977e-08
0.00023223448
1.1316938e-05
0.00032564823
1.051835e-05
1.7647163e-05
4.4680004e-09
4.3655365e-09
0.0022106117
0.00038140266
3.4020281e-08
3.3717069e-08
3.3867106e-08
0.000651964
0.00011531221
4.7618792e-09
2.5001151e-05
1.785615e-08
1.7839231e-08
0.013237279
0.013275008
0.00065019103
6.9280801e-08
6.6590763e-07
0.017254336
0.0064933177
0.0047216216
0.014029802
0.014029802
0.0039841839
1.0592569e-09
0.00014392988
0.00035257622
0.00070000219
4.4212649e-10
3.2613106e-09
1.3605684e-07
7.9717455e-07
6.4801374e-06
3.8351802e-07
3.5263468e-09
2.2417243e-10
2.9438897e-10
2.4848182e-10
3.5488288e-10
4.1828692e-10
5.3853901e-07
8.8295647e-06
7.5676094e-08
0.00012311291
1.1902423e-07
1.0750665e-07
2.2089022e-09
3.7118251e-09
0.00018931004
0.00053308582
1.8827427e-07
3.5513767e-06
3.463983e-08
3.382217e-08
3.202863e-08
2.2131243e-09
1.2892231e-05
0.0016266399
0.00021463324
2.7007481e-06
0.00015762742
1.4498667e-07
0.0008945363
0.0030564372
0.0042852749
0.0042824268
0.0042979059
0.0043151105
0.00066146258
1.2067027e-08
1.1597295e-08
1.1076255e-08
1.0662399e-08
1.0599978e-08
0.00055459988
0.0023521673
0.0031076245
0.0010114397
2.5517895e-05
0.0017436272
0.007712627
0.007857755
0.0063554296
0.00041766962
9.2615025e-10
7.0537826e-10
0.00042572107
1.8070709e-08
1.8124965e-08
0.0023562804
4.3361581e-08
0.0026584601
0.01382405
0.017254336
0.017254336
0.015190552
0.0081303635
0.0042364818
0.00034869376
0.0001868509
0.00079704523
0.00079704512
0.00028608729
0.002240701
3.7380896e-09
5.9668973e-05
1.4170838e-06
2.116252e-05
1.6273144e-05
1.1845743e-09
1.941562e-07
4.7024913e-10
3.6494451e-10
0.00023171242
3.3602271e-05
9.0072655e-10
1.9625765e-05
1.4218096e-14
7.0706205e-05
8.5464459e-06
1.0576156e-06
2.2254231e-09
9.0973713e-09
1.1434609e-08
0.00074641727
0.00047560894
2.3579327e-07
2.0980796e-05
3.2647024e-08
3.2592499e-08
2.213251e-09
1.5622661e-09
0.0014400464
0.00064298769
6.2957833e-08
1.3726989e-07
1.4078514e-07
1.9878997e-05
2.7464523e-09
2.743152e-09
2.4428868e-09
2.4428868e-09
2.4444229e-09
3.0230101e-09
0.001199658
0.0012514065
0.00025219869
2.3144006e-05
1.0842173e-08
2.9178262e-05
0.0046360882
0.0021903711
6.3034872e-05
1.8755536e-09
0.0066619144
0.029857426
0.029945052
0.027085179
0.00011225907
9.204615e-10
7.0539988e-10
0.00025934799
0.00096253926
0.0013725685
5.5355409e-07
0.014591781
0.017414446
0.017367261
0.00037804417
0.010214221
2.2543059e-09
2.0301172e-09
1.992129e-09
2.1422341e-09
0.00024371609
0.00079704506
0.00068442345
0.0007443657
0.0034314842
0.0031748653
1.4364559e-06
1.4266789e-06
1.3455752e-05
1.0238357e-09
1.0005193e-09
8.6159121e-10
0.0049717239
0.0003903036
0.00050517338
5.1360422e-05
8.5904513e-10
8.5887675e-10
0.00086525987
1.6047101e-07
0.00010048404
3.2419053e-09
3.2299642e-09
4.9267136e-09
3.1737201e-06
0.00047213331
0.00047524358
8.0553958e-06
0.00011097627
9.5325348e-05
3.353187e-08
1.4815859e-06
7.3235311e-09
2.0934204e-09
0.000228678
6.2341769e-08
6.2543159e-08
0.0011136191
7.3046591e-09
5.4928539e-06
0.0011686277
2.4487708e-09
2.443304e-09
8.3521727e-06
0.0014373911
0.0027921982
0.002787708
0.0012928867
0.00015286238
2.4016266e-08
3.7927892e-09
0.00463022