/*--------------------------------*- C++ -*----------------------------------*\
| =========                 |                                                 |
| \\      /  F ield         | OpenFOAM: The Open Source CFD Toolbox           |
|  \\    /   O peration     | Version:  2.3.0                                 |
|   \\  /    A nd           | Web:      www.OpenFOAM.org                      |
|    \\/     M anipulation  |                                                 |
\*---------------------------------------------------------------------------*/
FoamFile
{
    version     2.0;
    format      ascii;
    class       volScalarField;
    location    "2.1e-05";
    object      k;
}
// * * * * * * * * * * * * * * * * * * * * * * * * * * * * * * * * * * * * * //

dimensions      [0 2 -2 0 0 0 0];

internalField   nonuniform List<scalar> 
7500
(
9.9993067e-06
9.996366e-06
9.996706e-06
9.9955836e-06
9.9939648e-06
9.9926521e-06
9.9924832e-06
9.9931532e-06
9.9945671e-06
9.9964638e-06
9.999812e-06
1.0003207e-05
1.0009973e-05
1.0014348e-05
1.0017727e-05
1.0021399e-05
1.0027264e-05
1.0029011e-05
1.0031561e-05
1.0033299e-05
1.003674e-05
1.0040378e-05
1.0044233e-05
1.0048381e-05
1.0054376e-05
1.0060845e-05
1.0072739e-05
1.0085387e-05
1.0094151e-05
1.0097367e-05
1.0099509e-05
1.0104236e-05
1.0115006e-05
1.0123099e-05
1.0133992e-05
1.0149608e-05
1.0164855e-05
1.0172143e-05
1.0175815e-05
1.0174941e-05
1.0173972e-05
1.0175449e-05
1.0176062e-05
1.0178332e-05
1.0188673e-05
1.0209782e-05
1.0216971e-05
1.0219683e-05
1.022551e-05
1.0230474e-05
1.0241086e-05
1.0254244e-05
1.0275849e-05
1.0287955e-05
1.0311853e-05
1.0333227e-05
1.037222e-05
1.0426942e-05
1.0473894e-05
1.0560638e-05
1.0622283e-05
1.0729319e-05
1.0830145e-05
1.0954913e-05
1.1097315e-05
1.1205275e-05
1.1353183e-05
1.1432459e-05
1.1537359e-05
1.161727e-05
1.1791355e-05
1.1972203e-05
1.2425109e-05
1.2768327e-05
1.3734217e-05
9.9985433e-06
9.9977675e-06
9.9968993e-06
9.995494e-06
9.9945007e-06
9.9946804e-06
9.9953711e-06
9.9971216e-06
1.0001011e-05
1.0004406e-05
1.0010901e-05
1.0017139e-05
1.0024665e-05
1.0030654e-05
1.0035551e-05
1.0039089e-05
1.0041402e-05
1.0043237e-05
1.0045171e-05
1.0047419e-05
1.0051259e-05
1.0058417e-05
1.0070677e-05
1.0079557e-05
1.0094624e-05
1.01024e-05
1.0111313e-05
1.0114656e-05
1.0115916e-05
1.011717e-05
1.0119362e-05
1.0123935e-05
1.0129274e-05
1.0139609e-05
1.0148367e-05
1.0162012e-05
1.0174005e-05
1.0184161e-05
1.0197423e-05
1.0207885e-05
1.0223983e-05
1.0240622e-05
1.0268771e-05
1.0294966e-05
1.0339338e-05
1.038692e-05
1.044174e-05
1.0494332e-05
1.0586496e-05
1.0662146e-05
1.0775998e-05
1.0902707e-05
1.1063269e-05
1.1226097e-05
1.1500852e-05
1.1713002e-05
1.2086903e-05
1.2413303e-05
1.275296e-05
1.3365952e-05
1.3742594e-05
1.4388945e-05
1.4986959e-05
1.5677715e-05
1.6603816e-05
1.7176055e-05
1.8207898e-05
1.896121e-05
1.9770619e-05
2.0482611e-05
2.1801598e-05
2.2881433e-05
2.5236391e-05
2.6987546e-05
3.1502213e-05
9.9992992e-06
9.999968e-06
9.9999638e-06
1.0000214e-05
1.000167e-05
1.0004598e-05
1.001178e-05
1.0021879e-05
1.0042672e-05
1.0065557e-05
1.0102218e-05
1.0139869e-05
1.0178318e-05
1.0211356e-05
1.0234313e-05
1.0249438e-05
1.0257507e-05
1.0263683e-05
1.0268599e-05
1.0272902e-05
1.0280064e-05
1.0296327e-05
1.0340566e-05
1.0372995e-05
1.04107e-05
1.0426996e-05
1.0442941e-05
1.0450153e-05
1.0456251e-05
1.0463185e-05
1.0472949e-05
1.0491685e-05
1.051873e-05
1.0572197e-05
1.0630312e-05
1.0735907e-05
1.0829773e-05
1.0973977e-05
1.1170603e-05
1.1359029e-05
1.1672354e-05
1.1968577e-05
1.2486345e-05
1.2934581e-05
1.373422e-05
1.4371451e-05
1.5427996e-05
1.633031e-05
1.789765e-05
1.9136218e-05
2.103773e-05
2.299102e-05
2.5252832e-05
2.8175468e-05
3.1561577e-05
3.4365177e-05
3.9175437e-05
4.2836244e-05
4.7096988e-05
5.3660687e-05
5.7774355e-05
6.4389366e-05
7.0289381e-05
7.7931052e-05
8.803206e-05
9.4674183e-05
0.00010624727
0.00011519338
0.00012459031
0.00013287208
0.00014689727
0.0001572262
0.00017749926
0.00019241853
0.0002279179
1.0006585e-05
1.0014398e-05
1.0029613e-05
1.0038446e-05
1.0061471e-05
1.0084414e-05
1.0139496e-05
1.0212062e-05
1.0324159e-05
1.0461456e-05
1.0622486e-05
1.0815906e-05
1.0976199e-05
1.1130149e-05
1.1218845e-05
1.1280745e-05
1.1306612e-05
1.1320991e-05
1.1328455e-05
1.1337686e-05
1.1357796e-05
1.1400205e-05
1.1526739e-05
1.1624331e-05
1.1751055e-05
1.1820532e-05
1.1923774e-05
1.201717e-05
1.215131e-05
1.2354199e-05
1.2610084e-05
1.3070784e-05
1.3566251e-05
1.4493947e-05
1.5372492e-05
1.7010526e-05
1.8463038e-05
2.0915223e-05
2.3774913e-05
2.6668898e-05
3.1657351e-05
3.6250164e-05
4.4158651e-05
5.0735094e-05
6.2392636e-05
7.1534181e-05
8.7367317e-05
9.9764027e-05
0.00012106951
0.00013699669
0.00016390632
0.00018635619
0.00021650893
0.0002535108
0.0002907927
0.00032435111
0.00038176241
0.00041950496
0.00046918687
0.00053639638
0.00057859513
0.0006447784
0.00070591498
0.00078033325
0.00088609219
0.0009563543
0.0010760335
0.0011642231
0.0012552389
0.0013325141
0.0014574944
0.0015486387
0.001718443
0.0018423746
0.0021248193
1.0045625e-05
1.0085067e-05
1.0180387e-05
1.0237437e-05
1.0378866e-05
1.0531019e-05
1.0750468e-05
1.1074549e-05
1.1358783e-05
1.1869065e-05
1.2232224e-05
1.2858464e-05
1.3210637e-05
1.3709075e-05
1.3916508e-05
1.4143413e-05
1.4216364e-05
1.4275742e-05
1.4329803e-05
1.4412541e-05
1.4591588e-05
1.483004e-05
1.5339712e-05
1.5755213e-05
1.6529958e-05
1.7244268e-05
1.8612605e-05
2.0058065e-05
2.2515466e-05
2.6078804e-05
3.0171371e-05
3.7712275e-05
4.5056489e-05
5.884016e-05
7.1135246e-05
9.4235223e-05
0.00011342927
0.00014793649
0.00018053683
0.00021805064
0.00028298259
0.00033707551
0.00042634262
0.00050195747
0.00063597759
0.00073683455
0.00091279779
0.0010410133
0.0012652707
0.0014229314
0.001700771
0.0019036642
0.0022200363
0.0025510522
0.0028849008
0.0032059441
0.0037150939
0.0040338405
0.0044892484
0.0050332233
0.0053746444
0.0059093908
0.0064261285
0.0069902833
0.007864752
0.0084325041
0.0094095915
0.010036112
0.010732454
0.011275746
0.012131623
0.012756565
0.013888786
0.014712755
0.016570464
1.0087129e-05
1.0151242e-05
1.0329404e-05
1.0490877e-05
1.0771151e-05
1.1171314e-05
1.1500777e-05
1.2194827e-05
1.2611532e-05
1.3559778e-05
1.40696e-05
1.5224896e-05
1.5760447e-05
1.6894095e-05
1.7323098e-05
1.8098003e-05
1.8445489e-05
1.8895585e-05
1.9592712e-05
2.0505216e-05
2.2293143e-05
2.4293674e-05
2.8376775e-05
3.2742476e-05
4.1717434e-05
5.1105515e-05
7.0225689e-05
8.9188091e-05
0.00012641338
0.00016474156
0.00021926729
0.00031288462
0.00039693792
0.00055516167
0.00068899733
0.00093989789
0.0011371706
0.0015036685
0.0017853195
0.0022350671
0.0027649464
0.0032933587
0.0040103864
0.0047548978
0.0059060706
0.0067253244
0.0081738353
0.0091815442
0.01095972
0.012135309
0.014243905
0.015675312
0.018064248
0.020185662
0.0225997
0.024847892
0.028193414
0.030289039
0.033415558
0.036736584
0.038831276
0.042192404
0.045273456
0.048763833
0.053865615
0.057329121
0.063121229
0.066463318
0.070564791
0.073409687
0.077780609
0.081004742
0.086726252
0.090874282
0.10021723
1.0024245e-05
1.0062539e-05
1.0162331e-05
1.0358469e-05
1.0601143e-05
1.1211071e-05
1.1605507e-05
1.27056e-05
1.3277583e-05
1.4803137e-05
1.5619828e-05
1.7445257e-05
1.850849e-05
2.036284e-05
2.1455768e-05
2.3324182e-05
2.5249722e-05
2.8575551e-05
3.4660258e-05
4.3417419e-05
6.0889666e-05
8.2658008e-05
0.00012835284
0.00017866211
0.00028411738
0.00038873331
0.00060451508
0.00080092464
0.0012006872
0.0015499388
0.002209574
0.0029110227
0.0036976194
0.0051195759
0.0062215534
0.0082971694
0.0098527473
0.012747854
0.014812087
0.018566884
0.021291885
0.026234012
0.02982061
0.036149974
0.042217848
0.047516861
0.056992592
0.062951982
0.073335199
0.07994323
0.091890609
0.099574953
0.11299163
0.12287558
0.13667043
0.14792219
0.16447616
0.17497575
0.19116962
0.206354
0.21620758
0.23265192
0.24562936
0.26301338
0.28426383
0.30041928
0.32576055
0.33965279
0.35837728
0.37013778
0.38773685
0.40069003
0.42268415
0.43910598
0.47602218
1.0055548e-05
1.0114676e-05
1.026122e-05
1.0373782e-05
1.0629388e-05
1.1291004e-05
1.1805986e-05
1.2993676e-05
1.4607573e-05
1.6474279e-05
1.9447229e-05
2.1973613e-05
2.6009442e-05
3.0238173e-05
3.73162e-05
4.8624787e-05
6.8362803e-05
0.00010238704
0.00016925047
0.00026046906
0.000448642
0.00067003914
0.0011365101
0.0016159842
0.0026172443
0.0035356352
0.0054259214
0.0070100577
0.010269227
0.012849423
0.018111323
0.022119822
0.029415702
0.037239825
0.044408485
0.05783952
0.067130183
0.084321903
0.095985905
0.11716877
0.13174432
0.15829279
0.17652041
0.21068284
0.23370496
0.26701462
0.30835824
0.33465603
0.38102509
0.41086922
0.46392365
0.49600936
0.55303975
0.5890321
0.65107592
0.6932133
0.75773179
0.79916785
0.86571746
0.91887255
0.95816414
1.0251467
1.0719518
1.1400039
1.2132091
1.2778596
1.3696567
1.420667
1.4914896
1.5341761
1.5958216
1.6430829
1.7175776
1.7769731
1.9096106
1.0300194e-05
1.0491405e-05
1.1096562e-05
1.1466045e-05
1.24688e-05
1.3534262e-05
1.478292e-05
1.627283e-05
1.8512223e-05
2.1140648e-05
2.6364206e-05
3.511085e-05
5.1966513e-05
8.3429059e-05
0.00014285516
0.00025892777
0.00045268
0.00080267215
0.00145608
0.0022801967
0.003967327
0.0058066726
0.0095975071
0.013196899
0.020610228
0.02687902
0.039653301
0.049567789
0.069928967
0.084719515
0.11523661
0.13635188
0.17887945
0.20811173
0.25853072
0.31455324
0.35748979
0.43629257
0.48926893
0.58211863
0.64459338
0.75552101
0.82927989
0.96632828
1.0518171
1.2000108
1.3272747
1.4390576
1.6157207
1.7275307
1.9120753
2.0273285
2.2307951
2.3579385
2.5825163
2.7161569
2.9380192
3.0898758
3.3405679
3.5086066
3.7038348
3.9543383
4.1272508
4.3762917
4.6487258
4.9192877
5.2413336
5.4381331
5.7001314
5.8680743
6.1013086
6.3078271
6.6023211
6.8526647
7.3893416
1.0254614e-05
1.049088e-05
1.10637e-05
1.1738087e-05
1.2700928e-05
1.45337e-05
1.6507481e-05
2.0234799e-05
2.6500806e-05
3.9905019e-05
6.8613522e-05
0.00013101669
0.00026028091
0.00053315369
0.0010383102
0.0021295728
0.0036936358
0.0069392395
0.011303252
0.017734394
0.029300098
0.041763921
0.065295894
0.086755677
0.12937319
0.16266557
0.22952917
0.2780549
0.37631251
0.44289354
0.5797309
0.66798967
0.84754303
0.96225259
1.1880315
1.3346322
1.580846
1.8208463
2.0629993
2.3504279
2.6303419
3.0007349
3.2698784
3.7450116
4.0480391
4.5862597
4.9423313
5.4760351
5.9651618
6.4576585
7.0254291
7.4690503
8.1566561
8.6108008
9.4124687
9.9018327
10.688713
11.460852
12.611089
13.362567
14.516893
15.30851
16.133376
17.159703
18.40963
19.522915
20.843341
21.761173
23.09515
24.046638
25.334021
26.857265
28.227009
29.596398
32.173287
1.0013627e-05
1.0075454e-05
1.0228054e-05
1.0551616e-05
1.1388373e-05
1.3746644e-05
2.0555875e-05
3.9633497e-05
8.8417101e-05
0.0002051672
0.00046340343
0.0010202844
0.0021243064
0.0045326239
0.0083779446
0.01689973
0.027248764
0.04985761
0.073005607
0.12181639
0.16714161
0.25017983
0.34614061
0.46230559
0.64407054
0.78714373
1.0653339
1.2558325
1.6329732
1.8784266
2.3746583
2.6849041
3.3181371
3.7107496
4.4946164
4.9974227
5.9534079
6.5980597
7.7388168
8.5255698
9.7747108
10.727822
11.989121
13.462547
14.649782
16.706123
18.045226
20.292209
21.767165
24.224314
25.737524
28.092611
30.251221
32.23606
36.505171
38.944669
43.363951
49.980942
55.814268
59.295301
65.375614
68.062944
72.038999
77.433283
84.274033
89.583446
99.630635
105.17001
120.23241
125.34676
136.96343
147.9224
153.82931
163.63279
172.26448
1.0034642e-05
1.0259236e-05
1.0620376e-05
1.1815331e-05
1.6377331e-05
3.2654721e-05
8.5317395e-05
0.00023286615
0.00060798113
0.0014931474
0.0034235192
0.00766911
0.015644103
0.033610752
0.057662353
0.11119679
0.16737223
0.28908781
0.39872661
0.63133825
0.81715298
1.2061055
1.4909484
2.0686599
2.5400013
3.1821539
4.0780109
4.7353188
5.9781584
6.7938303
8.4161922
9.4636796
11.651281
12.995789
15.872788
17.74297
21.547728
24.052026
28.476508
31.218629
35.900511
38.919662
45.741872
50.481876
57.755664
67.159908
72.773197
82.73652
88.999271
101.63179
107.11172
121.50816
130.22674
141.65979
188.92463
193.64061
244.79038
291.1121
289.52567
301.53352
351.54158
347.75743
366.05264
417.92994
438.92785
506.91753
505.38482
499.02796
556.33098
565.15952
609.45443
608.31064
648.35871
680.58314
608.46498
1.0509463e-05
1.1030554e-05
1.2856243e-05
2.1837028e-05
6.157787e-05
0.00020120416
0.00063192245
0.0017683284
0.0044857812
0.010655808
0.023319017
0.052484185
0.097841993
0.200529
0.3176986
0.57542132
0.81654725
1.3271431
1.7486615
2.6200294
3.2688261
4.6059706
5.5458687
7.5291698
8.865169
11.562578
13.634479
16.404265
20.028337
22.923003
28.725423
32.688807
41.602181
46.502954
60.375585
67.943691
86.604161
96.416221
113.56428
124.08551
144.51965
156.56879
218.19435
235.30833
286.97968
317.49662
341.60597
401.15728
425.75416
521.71116
503.40211
648.68641
616.92749
678.05099
850.999
750.43716
1127.698
1111.7842
818.56901
938.98229
962.40338
897.89243
826.06009
877.09287
867.77105
761.71191
626.69043
608.26923
567.87188
651.40836
625.90236
432.01003
460.04429
373.83409
190.81306
1.0737498e-05
1.4307426e-05
2.7692137e-05
0.00010062319
0.00040635815
0.0014330583
0.0043963621
0.011834244
0.028559345
0.06667042
0.13811824
0.30603092
0.51655144
0.9902195
1.4580569
2.4681206
3.3168366
5.075284
6.4533258
9.1818813
11.256412
15.424433
18.488822
25.033662
29.7113
39.419652
45.875586
57.162902
67.991606
81.739855
110.55972
124.75415
174.05265
184.38263
288.94441
300.34487
417.81694
447.15723
514.75921
563.86182
681.82958
708.78236
946.02088
830.01285
1130.7358
1019.4307
1082.5466
1011.0736
1135.9061
996.8904
1011.163
1003.915
829.81289
930.18172
689.44803
599.92724
646.38508
371.50202
274.49847
440.35678
251.4171
307.36979
201.15647
209.93575
174.65265
70.444646
71.221117
84.187754
63.132954
70.489197
56.137357
45.125443
42.483234
24.251892
15.380004
1.0076697e-05
1.9914317e-05
0.00011422994
0.00064161045
0.002764473
0.0093865233
0.0272987
0.069360454
0.15772522
0.37065199
0.69271629
1.4408193
2.2411158
3.9880266
5.5903334
8.903436
11.575986
17.089731
21.424248
29.622417
36.997035
50.701122
61.875174
87.565955
106.229
145.09675
170.43462
215.4032
271.48923
363.62013
488.86901
551.54676
793.2149
790.54415
1117.5982
1010.3619
1448.7853
1211.6021
1230.102
1196.4015
1126.085
1060.0127
945.42802
620.72041
777.39292
513.66219
647.03906
379.78937
404.68202
197.59982
304.32278
105.88746
175.30117
151.03964
55.328489
172.42734
126.88392
23.731176
32.006673
81.439944
38.678769
21.180151
24.150667
31.139455
19.640733
13.512234
12.027032
12.910707
14.216269
24.399011
18.970771
14.761829
15.289268
10.777647
9.1304685
1.0593438e-05
7.7467604e-05
0.00074906979
0.0041623447
0.016930058
0.053623247
0.14672326
0.35055655
0.74982748
1.713525
2.9200926
5.6128322
8.2373675
13.741928
18.994682
28.664994
37.270343
55.344288
69.542845
98.289365
130.89021
179.32171
229.12799
364.75695
442.61801
623.85511
719.44832
975.73907
1066.3647
1336.9564
1277.4904
1537.1342
1398.901
1410.7756
1222.4398
920.81358
755.09881
454.56491
379.49649
327.52443
183.30078
222.52071
82.118012
77.784989
77.896108
43.984384
56.416494
37.27554
29.226142
17.916279
30.82507
17.717786
23.37025
21.630974
23.201883
100.55808
47.467565
9.9414857
14.419706
31.566797
17.657148
8.3660114
13.669232
13.490022
10.785812
10.054542
8.2082707
7.8472771
11.205671
12.219981
11.276989
9.1177213
8.1210441
8.3775021
8.8203208
9.7011434e-06
0.00050675604
0.0048198264
0.024621365
0.091582405
0.26785902
0.68826545
1.5399043
3.0903075
6.6334025
10.543154
18.811201
27.00217
43.828603
62.620608
88.816248
123.61045
190.216
242.11596
388.35212
538.51843
735.41131
1002.4927
1315.6926
1389.3347
1571.7871
1510.5194
1620.5474
1273.5039
1126.1993
790.27813
760.27138
320.38458
554.28419
109.01326
259.01506
105.91831
30.623977
33.816614
28.670611
20.591418
18.828745
10.832284
17.476102
22.1745
13.06296
8.1662897
8.0745052
7.0332734
6.0839348
7.4537767
7.8764978
14.5959
12.615841
29.205477
133.78688
30.330658
8.8482594
11.700881
19.783421
11.447288
6.7414504
13.961988
15.06984
8.7339667
8.969342
7.3869469
6.1552446
6.7964702
7.9939732
10.560186
9.713437
7.6276805
9.1569493
9.0740818
3.0952254e-06
0.0031802086
0.027611527
0.12810446
0.43247042
1.1643083
2.8339937
5.7822788
11.296063
22.14958
34.144804
58.5246
85.975988
145.83437
206.24343
305.07857
485.82752
736.89878
948.8458
1387.4527
1513.3851
1710.5536
1776.731
1439.4747
1294.0241
625.34499
496.28994
456.29679
252.56844
165.46551
130.20729
73.421719
35.620128
78.090159
12.78601
120.04095
11.286824
7.7911163
15.389394
12.558311
11.337718
12.617223
7.666216
10.99796
14.532401
9.2943188
6.922445
6.6255468
6.5976255
6.5315423
5.5524889
6.9182732
20.751219
10.192144
33.457893
78.240465
14.646363
8.4921185
9.6560818
14.480664
8.9984831
5.9505105
7.6003307
10.81939
7.7972379
8.2411674
7.1224209
6.5069174
7.545386
7.4024721
9.3244553
11.123893
10.275842
10.920452
9.7844118
2.9203884e-05
0.01809693
0.13964986
0.5837005
1.78363
4.4294365
10.069301
19.341519
38.80442
66.657198
107.26121
186.96287
293.70665
537.55394
779.37955
1280.7463
1443.8227
1722.5829
1677.3201
1535.4107
1074.5414
901.10787
493.38495
236.51353
182.30096
55.807485
57.070928
46.128438
26.382524
25.747933
18.993055
12.63383
15.512115
16.420415
7.7575046
45.649982
8.5770431
10.803047
22.496906
12.80367
13.595017
10.630064
7.339207
8.3763699
9.8757211
8.585017
9.2793594
8.5942167
9.2242963
12.543174
7.0149265
6.689214
12.570641
8.724323
32.33803
45.534424
11.396342
9.1855289
11.544615
10.788437
9.3087776
6.3404546
6.2861557
6.8806661
7.5315136
8.7623273
7.2568607
7.4590217
7.5897102
7.8207053
8.539306
11.117836
12.020621
11.482179
9.5924489
0.00069630784
0.095662311
0.6309542
2.3386772
6.4676922
14.923726
31.606226
61.24769
122.46597
204.83462
364.4941
691.16812
1169.2064
1558.2595
1948.7014
1881.7451
1383.3959
913.95684
573.90818
307.69689
161.40768
143.65358
42.033707
24.171802
15.309625
13.511584
16.061525
5.9896022
5.9103792
14.890178
2.9677178
4.035843
4.9478267
9.3373698
5.174544
18.204004
4.0221907
11.027069
21.069371
14.006532
10.842228
10.543227
8.7136271
7.3927835
9.5161716
7.1325532
8.0384826
7.1189642
10.024941
36.991276
15.716532
10.071484
12.553857
8.4675153
15.859042
33.991763
10.369231
9.2555606
12.823916
8.8195373
10.165943
8.5933301
6.5954248
7.534521
8.1400937
9.3011729
9.3588478
8.1353077
8.2658103
9.0291503
9.2105629
10.808792
11.607121
10.735224
8.9991035
0.0081291724
0.4548633
2.5392266
8.2722483
20.940265
46.009029
95.588207
195.876
393.21701
726.60429
1458.2612
1839.2383
1973.6615
1607.2745
1249.6433
396.82143
213.76151
137.98582
91.652529
42.707329
33.383927
26.700684
9.1682227
4.3245699
4.4808467
14.050176
9.5419314
3.517242
4.3935782
14.841577
1.8869785
2.8649067
2.8397319
8.8188725
4.4664384
10.802267
3.0865491
13.51686
21.454579
14.229364
9.6319797
7.0854225
8.9022305
7.3324819
8.0392735
7.6015357
6.5042466
7.2585224
18.269568
42.400301
26.042136
11.517899
10.973049
7.4381972
9.8350065
16.862315
8.3998636
8.5925227
9.984709
11.157458
9.9340019
11.425685
9.5772505
8.1376362
8.77229
9.9802564
9.3676572
8.2942274
7.5140785
7.7881561
9.3927478
9.9851494
10.304799
9.7312456
8.4074172
0.062788075
1.9330404
9.0578065
26.090928
62.363579
136.31265
299.46268
679.48314
1477.6237
1826.7955
2211.9562
1608.6177
619.56275
316.27233
176.05789
31.100525
33.831822
29.675523
12.977911
5.8066448
11.063418
7.7802848
7.7255902
3.7476527
3.1109617
13.243291
6.9202378
2.7124258
4.1522977
8.0643793
1.9382441
2.4308267
2.7012297
4.3934917
3.426755
6.318103
3.0626318
15.907268
18.392463
15.493389
10.484073
6.5840317
8.5328494
10.228305
8.6634787
7.0442162
6.9648501
8.5292048
26.255022
18.720276
17.902448
10.666945
9.5181372
6.6967933
6.9048557
14.448987
7.5591727
8.0527836
10.450135
11.774784
9.8431751
9.6336178
12.362783
10.199577
10.246044
10.468885
8.6222688
8.102196
7.3226307
7.8873552
9.726937
9.8656787
9.8171052
9.4128609
8.3008286
0.38893379
7.3476165
28.913186
75.2501
179.36058
413.86687
1063.4563
1843.9879
2349.5914
1720.6472
751.06952
288.55486
76.819667
65.428095
19.026999
2.4301922
9.0848153
7.0187715
9.2373926
3.2154945
6.4755724
4.1646286
4.0794873
4.0918324
3.5854527
9.361222
4.8336971
2.7175392
3.7474379
5.2212849
3.1324545
2.3077699
2.9155737
2.8713081
3.0279151
4.2281451
3.1998989
10.91942
83.03586
15.451473
10.37252
7.007798
8.4708254
14.034189
10.121119
8.3938278
6.0458735
4.4882303
11.919856
27.275087
19.116851
10.158857
8.3568357
7.3504572
8.128876
10.630781
7.4063691
8.3143363
19.281486
11.938022
10.747481
14.20708
10.343717
13.634281
12.188203
10.790968
8.8156253
9.6872742
8.4965109
9.8090047
11.142682
10.470215
9.675351
9.261583
8.3219021
2.0596081
25.073923
84.278005
205.8531
533.62247
1424.6744
2014.8525
1860.9283
892.43785
400.64801
119.9554
31.715365
8.0992369
15.255243
3.1593544
1.1110745
4.1530382
2.309347
2.5744049
2.8123341
4.4061356
4.0619779
3.5630637
3.4997826
3.4830758
4.3048337
4.0527744
4.1060561
3.8368329
3.9255078
3.3537029
2.1806357
2.7250342
2.6200676
3.0680302
3.2433198
2.7260595
3.408468
45.500987
12.534668
12.764945
7.6415743
9.4508442
26.515954
12.863455
8.3290403
6.2824397
4.3430591
12.552717
16.176277
14.427221
9.6715545
8.1268328
9.1589624
7.5218554
8.0509335
7.1568128
9.5446815
11.83875
11.087972
12.108954
14.784089
9.6386506
17.898437
12.960153
10.526955
9.1184492
9.3724
10.419048
12.613336
12.225476
10.757642
9.1627717
9.1950372
8.8410885
9.5877294
77.784622
230.20695
566.86542
1774.0502
2290.7322
1394.2332
471.65328
165.06943
64.028261
11.564105
2.8673251
1.7801926
5.3454545
1.4386921
1.0135704
2.884856
1.2875569
1.8991291
2.585837
3.5186919
3.7723079
3.4696843
3.8338903
3.7658589
3.6924311
3.9797601
4.5740573
3.9181944
2.8347951
3.6423211
2.121838
2.9770296
2.5867531
2.8463316
2.7695859
2.5967296
3.5367004
10.82615
7.1599649
10.436364
4.652738
12.553021
22.27287
15.518322
8.8206189
7.8236385
6.5040275
7.9343715
7.8746824
7.6194985
8.3433414
7.4203744
7.8114494
6.7833069
6.7287994
6.8239191
9.6000787
16.017945
16.314037
14.836671
10.735171
9.7703953
17.871131
11.814754
10.442111
8.6921917
10.267077
14.34344
13.888557
12.365656
9.5982737
8.9360198
9.4143698
9.8600107
40.130832
221.74753
616.83044
1710.9712
2405.3879
1216.6424
415.47328
96.387513
20.877876
8.3782262
1.4621828
1.0192292
1.0723146
2.929305
1.1790923
0.93891119
2.468193
1.2848468
1.0088338
2.3000221
3.1024431
3.2950882
3.1452029
6.86952
5.8379925
5.3823361
3.5775024
3.2334117
3.8932504
2.4912202
4.2788399
2.2063556
2.1294417
2.3660473
2.7547661
2.279719
2.5928148
2.9983277
11.615751
6.3137547
5.0337382
3.9714473
16.470329
18.941666
13.758476
9.3032275
12.660729
10.488604
8.1778563
7.2799053
8.065481
12.157247
7.5864065
7.1585196
6.8600573
5.8997131
7.2222545
9.6816952
9.9096509
18.246054
16.167392
9.83261
9.2876854
12.66761
8.9159411
9.0447556
10.081149
14.672932
14.607425
13.205395
10.313679
9.1785045
8.8952192
9.379777
10.553206
154.59858
589.69204
1743.6362
2322.0564
1145.4292
334.45156
70.319668
11.578424
2.7025434
3.5293413
0.78150151
0.90057005
0.86994826
1.7573174
1.0856864
0.9982225
2.1451316
1.6422116
0.8920182
2.1736717
2.8633718
3.3768302
3.0040944
7.7109105
7.4720566
9.4177726
3.1644826
3.9859039
3.8677153
2.4132181
5.9444175
2.2259967
2.2455597
2.3861539
2.5232714
2.1240608
2.7253937
2.6017845
10.132516
5.6592127
5.4038519
4.7808553
19.165338
19.985734
9.961392
9.2921866
8.8967852
7.161707
13.324307
7.9275536
9.7751807
8.3601731
7.141728
10.297759
11.169636
6.7310233
8.344419
11.83454
8.9295988
12.792925
15.187627
11.865121
11.567384
8.6475449
7.9228499
8.8498128
12.045429
11.36821
11.213088
10.519785
9.6309156
9.2794485
9.0483161
9.5580913
10.577117
496.16224
1572.5233
2813.4749
1480.4765
387.51648
51.662052
7.6098398
1.5307611
0.71316407
2.5738849
0.67665829
0.85881055
0.79013911
1.1458861
1.0951058
0.98171718
2.0549707
3.4519876
0.76095961
2.1902784
2.926201
5.3518346
3.1128682
5.624619
5.3298278
10.216696
3.2935802
7.1123802
3.9332516
2.7549495
5.5626919
2.0318776
2.8165174
2.1553607
2.4908574
2.147218
2.8060557
2.5759765
7.0145033
5.9175926
5.0581132
3.852896
14.196756
10.145245
7.8912773
7.5545516
6.0912956
6.88542
10.940027
6.5300522
7.8448355
5.6029186
6.3106801
9.8167846
9.2657331
7.1197679
10.58658
14.467522
10.958849
15.358139
10.579269
11.605579
8.4428179
8.4966494
7.6826448
9.4011234
9.0856816
11.290835
10.69006
10.18218
9.4077419
9.6409333
9.3243291
9.6339909
11.859475
1484.6348
3223.8868
2277.88
665.03246
62.536225
5.5127995
1.161418
0.62654423
0.3912688
1.350075
0.65373672
0.85884543
0.72815309
0.80247596
1.1572053
0.94188682
1.8466209
2.6928602
0.8214721
2.2745187
3.4692038
11.53237
3.7241252
3.8973774
3.3120694
8.5040578
3.6780153
14.900946
4.2403676
5.9205897
4.6876121
1.846801
3.0187011
3.0687232
3.2653492
2.5174371
2.8117826
2.5677484
3.1893743
5.6394807
3.915813
4.3418613
4.4114444
6.4050163
6.1451268
5.7351519
6.331363
6.8651124
6.6249568
6.3296298
6.3700967
6.3706093
6.6831105
6.4929023
5.1876057
6.0703831
9.1594511
13.265565
10.548744
16.00816
10.676305
11.216973
7.4496705
8.235131
7.8978795
8.9237905
8.8931264
11.245845
11.121019
10.637021
9.7960686
9.3479905
9.2207857
9.1740954
12.041586
4281.4648
3499.5693
934.2432
144.27526
6.9437783
0.95379061
0.61830085
0.56684509
0.30462154
0.54685392
0.6423527
0.90755961
0.70520449
0.66948154
1.2342265
0.95910085
1.6655702
0.99115769
0.87001272
2.3301891
4.2060795
14.359645
4.4589481
3.0775357
2.8273949
6.7713513
3.5050913
17.605659
4.4122272
6.5436352
3.929663
1.8049278
2.4018381
2.7082823
3.0851662
2.766021
2.9869311
2.5983543
3.2876519
6.0137435
4.2734858
5.1854978
3.8349572
4.6663671
5.6625619
5.447589
6.0117964
5.9092949
7.8996251
6.995991
6.3332831
8.265573
8.0676589
7.1133704
5.3389178
6.3460306
9.0607126
12.508951
10.385987
8.2601874
12.306755
9.5993162
7.1333332
8.4709891
8.1101627
7.4532107
9.9219607
11.924172
11.820537
11.807347
10.861327
9.3335022
9.2389465
9.2740933
9.8339085
8083.0783
1818.8571
187.68855
18.083374
1.2519172
0.63380873
0.57920165
0.65849586
0.29184345
0.32330159
0.64113101
0.98339826
0.69633659
0.66783428
1.3237316
0.95539213
1.5195912
0.69230496
0.9718382
2.3027047
4.2562361
13.565508
4.7825381
2.527793
2.362905
5.6131334
3.0751222
12.190086
4.1368206
3.2138517
2.6777647
1.8081874
1.8436797
2.8466165
3.8429617
2.8384406
3.0583861
2.8774287
3.0518407
6.1586032
3.8953442
4.1591194
3.4935782
4.394041
6.0250501
5.6498372
10.118803
6.5232951
5.8369952
6.9568649
5.9313455
7.1175873
8.335782
7.0475422
5.7881116
10.046095
9.6644666
9.8090909
14.227043
10.702616
32.366264
10.80096
7.935649
9.9349208
8.10693
7.1395168
10.579139
11.182523
11.424737
12.106391
11.097739
9.8721455
10.319649
9.6841302
8.6889312
1637.6263
361.84064
21.68702
2.3029034
0.90513495
0.6595751
0.59237494
0.76289592
0.31986591
0.28574436
0.64098036
1.0132036
0.69253349
0.7975024
1.4436643
0.98022176
1.4010182
0.6711758
1.1995508
2.1953014
3.8871102
7.1013726
3.9228701
2.3701113
1.9177701
3.8915099
2.9224623
4.1208489
3.771691
2.002262
2.0824446
1.9405658
1.8186131
2.9932592
5.4626799
3.277638
3.1490927
4.1684598
3.1131999
4.2812658
6.4499759
3.9550575
3.3674461
6.6256525
5.1643382
5.0709013
16.815313
7.9172406
5.9873081
6.239961
5.960764
5.5984599
6.0664471
5.6046907
5.9104645
12.940918
6.3530791
6.4136292
14.44274
22.013544
36.045153
9.7391235
8.7747331
10.958428
7.8125334
6.7454661
9.6466441
9.0736176
9.6885871
12.03328
11.144474
10.184332
10.888701
10.248626
8.6016053
120.12325
36.381876
2.4481888
1.0189819
0.94979303
0.75342559
0.60379699
0.78773761
0.39290047
0.28731601
0.64210386
1.0280988
0.68152777
0.93972572
1.593687
1.0007427
1.2944675
0.71527172
1.3780002
2.1316493
3.3671704
4.0521878
3.5296321
2.3231388
1.8316999
2.4639389
3.1505392
2.6286291
3.7961579
1.9535899
1.7557276
2.0377776
1.9577148
2.8496421
4.9193408
3.2141573
3.2645542
7.0008563
3.7543899
3.895505
5.0876772
3.7671811
3.2999669
11.623541
4.8872043
4.983999
7.5326863
7.4517944
6.482472
4.6437272
5.4897301
6.1834133
5.0262751
5.218422
6.8487489
17.699736
5.8090643
5.497853
12.165774
26.673045
26.235725
9.9729035
10.486731
10.908043
7.5391981
6.2347776
8.0314733
7.3901555
8.81196
11.761968
11.039854
11.512418
11.544849
10.549639
8.9287042
5.0916404
3.1748229
0.95778626
0.96268531
0.94355825
0.7975252
0.6007262
0.7888605
0.52648292
0.31275696
0.6417351
1.0702463
0.66367892
0.83458496
1.7810622
1.0494491
1.2104413
0.83424731
1.3891268
1.9924844
2.9044822
4.0111092
3.6539097
2.3712342
1.8298944
2.3120284
3.0557943
2.8795269
3.8934702
1.9509776
2.0534088
2.2749793
2.2490693
2.7731397
3.1642377
2.7018794
3.3026215
8.1532585
4.0035133
3.9327218
4.182984
3.5005997
3.03714
8.2487818
5.0699333
5.762234
7.7816744
6.4088679
5.866133
3.9946671
5.2176341
6.755658
5.1810291
5.784333
8.9644313
16.309363
4.6249566
4.8222404
11.658042
24.74004
30.354741
12.450899
14.261346
10.821947
7.5745497
5.8880014
7.0574381
6.7261967
8.7288403
11.191215
10.903906
11.987408
11.329711
10.311644
8.5278578
1.2214889
1.0343238
0.89140945
0.98542277
0.89170896
0.8084234
0.60129233
0.78179634
0.68008954
0.3402812
0.64361006
1.2012272
0.65943258
0.79639657
2.04531
1.1098308
1.1393574
0.98499454
1.3575817
1.9200931
2.4995125
5.4929236
4.4837574
2.3585203
2.0220459
2.2366582
3.636642
3.9321033
4.1115743
2.1764007
2.4249093
2.4912667
2.4159124
2.6168218
2.3113536
1.9386162
3.2974387
10.66207
4.351754
4.2425325
4.968441
2.9158034
2.8246872
4.7702376
5.3067888
6.1403528
7.7125232
7.5587471
6.4479025
3.0050993
5.0422712
5.9843623
6.239423
5.0311217
8.1813831
11.222721
4.8828695
4.7758357
10.926702
18.404437
21.487788
21.438307
18.56614
8.6613273
7.7823339
5.2208755
7.0158259
6.3952945
8.866185
11.097875
10.648277
11.651641
9.4200708
10.528594
10.475822
1.1249908
0.93475895
0.93162531
0.99706616
0.8404057
0.81239329
0.59226254
0.77154886
0.80557038
0.37440153
0.65609188
1.3615797
0.69628645
0.95675354
2.3935381
1.1840206
1.0897822
1.1195094
1.3902919
1.7120727
2.3475597
6.2150445
4.6388473
2.0383704
2.5137867
2.1740432
3.8017318
6.3877349
4.1786687
1.9688786
2.3333735
2.8142426
2.463259
2.2633579
2.1213977
2.0568303
2.9851629
15.566397
4.4649902
5.2026966
5.0197681
2.2266423
2.806444
4.1084692
4.1011011
8.1174172
5.1799772
7.4835109
6.3594717
2.7145767
4.3868474
6.9893441
5.9956896
4.0764998
6.9978358