/*--------------------------------*- C++ -*----------------------------------*\
| =========                 |                                                 |
| \\      /  F ield         | OpenFOAM: The Open Source CFD Toolbox           |
|  \\    /   O peration     | Version:  2.3.0                                 |
|   \\  /    A nd           | Web:      www.OpenFOAM.org                      |
|    \\/     M anipulation  |                                                 |
\*---------------------------------------------------------------------------*/
FoamFile
{
    version     2.0;
    format      ascii;
    class       volScalarField;
    location    "2.1e-05";
    object      nuSgs;
}
// * * * * * * * * * * * * * * * * * * * * * * * * * * * * * * * * * * * * * //

dimensions      [0 2 -1 0 0 0 0];

internalField   nonuniform List<scalar> 
7500
(
4.1405464e-10
4.1897888e-10
4.2392561e-10
4.2879556e-10
4.336086e-10
4.3838199e-10
4.4313453e-10
4.4786022e-10
4.5255749e-10
4.5722088e-10
4.6187308e-10
4.664823e-10
4.7112676e-10
4.7567182e-10
4.8014928e-10
4.8458967e-10
4.8903947e-10
4.9334483e-10
4.9762517e-10
5.018406e-10
5.0605401e-10
5.1022816e-10
5.1436362e-10
5.1846249e-10
5.2256524e-10
5.2663698e-10
5.3080839e-10
5.3495838e-10
5.3896344e-10
5.4277671e-10
5.4651628e-10
5.5028119e-10
5.5416745e-10
5.5793771e-10
5.6174241e-10
5.6563637e-10
5.69479e-10
5.7305623e-10
5.7648736e-10
5.8558702e-10
5.8915886e-10
5.9275847e-10
5.9629012e-10
5.9982764e-10
6.0356188e-10
6.0757665e-10
6.1113831e-10
6.1452438e-10
6.1796211e-10
6.2133215e-10
6.2483268e-10
6.2837095e-10
6.3212944e-10
6.3555689e-10
6.3930987e-10
6.4294683e-10
6.4709546e-10
6.5170078e-10
6.560296e-10
6.6157153e-10
6.6629451e-10
6.7240755e-10
6.7829229e-10
6.8489168e-10
6.9200444e-10
6.9800557e-10
7.0521204e-10
7.102478e-10
7.1604233e-10
7.2102372e-10
7.2888377e-10
7.3690175e-10
7.5315837e-10
7.6592222e-10
7.9683645e-10
4.5544271e-10
4.6090907e-10
4.6632268e-10
4.71673e-10
4.7698225e-10
4.8226913e-10
4.8751842e-10
4.9274405e-10
4.979737e-10
5.0314271e-10
5.0834201e-10
5.1348773e-10
5.1861963e-10
5.236648e-10
5.2863388e-10
5.3351892e-10
5.3832254e-10
5.4306405e-10
5.4775889e-10
5.5241296e-10
5.570619e-10
5.6175493e-10
5.6654431e-10
5.7119277e-10
5.7597113e-10
5.804958e-10
5.8500617e-10
5.8930748e-10
5.934986e-10
5.9763957e-10
6.017585e-10
6.0589906e-10
6.1001398e-10
6.1423175e-10
6.1835474e-10
6.2258011e-10
6.2670878e-10
6.3073414e-10
6.3480904e-10
6.4518767e-10
6.4966563e-10
6.5411912e-10
6.5890025e-10
6.6358006e-10
6.6880889e-10
6.7410713e-10
6.7960655e-10
6.8499985e-10
6.9165284e-10
6.9773571e-10
7.0503741e-10
7.1272853e-10
7.2149209e-10
7.3029276e-10
7.4267831e-10
7.5298073e-10
7.6839173e-10
7.8217893e-10
7.9628319e-10
8.1869919e-10
8.3365112e-10
8.5655187e-10
8.7770624e-10
9.0126292e-10
9.3110053e-10
9.5060923e-10
9.8238898e-10
1.006157e-09
1.0310704e-09
1.0531321e-09
1.0902178e-09
1.1206161e-09
1.180708e-09
1.2248758e-09
1.3274875e-09
5.0100592e-10
5.0705577e-10
5.1303357e-10
5.189628e-10
5.2486864e-10
5.3075917e-10
5.3671027e-10
5.426892e-10
5.489108e-10
5.551459e-10
5.6172075e-10
5.6828617e-10
5.7483699e-10
5.8119672e-10
5.8722753e-10
5.9298727e-10
5.9849285e-10
6.0389092e-10
6.0919879e-10
6.1443487e-10
6.1970332e-10
6.2519563e-10
6.3149422e-10
6.373922e-10
6.4341071e-10
6.4872272e-10
6.5397445e-10
6.5890135e-10
6.6373967e-10
6.6855089e-10
6.7339959e-10
6.7848602e-10
6.8379348e-10
6.8991718e-10
6.9615399e-10
7.0391049e-10
7.1124983e-10
7.2020878e-10
7.3085105e-10
7.4865454e-10
7.6357508e-10
7.7787105e-10
7.9922819e-10
8.1818163e-10
8.4791116e-10
8.7222497e-10
9.0869587e-10
9.3994615e-10
9.8924246e-10
1.0282279e-09
1.0836163e-09
1.1384888e-09
1.1990508e-09
1.2726555e-09
1.3533426e-09
1.4187365e-09
1.5216851e-09
1.5983093e-09
1.6832603e-09
1.8044515e-09
1.8802267e-09
1.9931452e-09
2.0908842e-09
2.2103348e-09
2.3583363e-09
2.4549847e-09
2.6103885e-09
2.7279675e-09
2.8471674e-09
2.950528e-09
3.112925e-09
3.2312487e-09
3.4444498e-09
3.5977128e-09
3.9277318e-09
5.5130726e-10
5.5816363e-10
5.6517291e-10
5.7194926e-10
5.7907894e-10
5.8615935e-10
5.9413496e-10
6.0259564e-10
6.122054e-10
6.2255393e-10
6.3360394e-10
6.4561714e-10
6.5663703e-10
6.6745905e-10
6.7630692e-10
6.8431635e-10
6.9118929e-10
6.9765674e-10
7.0385221e-10
7.1004222e-10
7.1651555e-10
7.2364202e-10
7.3340379e-10
7.4221772e-10
7.5193351e-10
7.5978498e-10
7.6868588e-10
7.7723593e-10
7.8707116e-10
7.9910251e-10
8.1281185e-10
8.330322e-10
8.542125e-10
8.8858782e-10
9.2086744e-10
9.7465211e-10
1.0215433e-09
1.0937053e-09
1.1728507e-09
1.2618452e-09
1.3832558e-09
1.4891349e-09
1.6533078e-09
1.7824628e-09
1.9879603e-09
2.1405615e-09
2.3786524e-09
2.5555562e-09
2.8301849e-09
3.0262795e-09
3.327106e-09
3.5654491e-09
3.8620076e-09
4.1991965e-09
4.5186931e-09
4.7944945e-09
5.2252506e-09
5.5019465e-09
5.8441363e-09
6.275563e-09
6.5451973e-09
6.9379282e-09
7.2887659e-09
7.6937052e-09
8.2303337e-09
8.5829206e-09
9.1380145e-09
9.5397334e-09
9.9409239e-09
1.0278068e-08
1.0785938e-08
1.1155157e-08
1.1789132e-08
1.2245731e-08
1.3191868e-08
5.9874392e-10
6.0761511e-10
6.1814989e-10
6.2750773e-10
6.3944431e-10
6.5172277e-10
6.6610062e-10
6.837368e-10
7.0015727e-10
7.2351624e-10
7.4235576e-10
7.6910317e-10
7.8758282e-10
8.1039825e-10
8.2458878e-10
8.3935773e-10
8.4953963e-10
8.5927399e-10
8.6880177e-10
8.7915635e-10
8.9242348e-10
9.0749649e-10
9.3082527e-10
9.5124118e-10
9.8235364e-10
1.0114485e-09
1.0591356e-09
1.1080454e-09
1.1829278e-09
1.2826472e-09
1.3897877e-09
1.5650309e-09
1.7228004e-09
1.9824995e-09
2.1947476e-09
2.5430908e-09
2.8085287e-09
3.2282258e-09
3.5889619e-09
3.9689434e-09
4.5492285e-09
4.9949981e-09
5.6509032e-09
6.1672617e-09
6.9815946e-09
7.5569852e-09
8.457392e-09
9.080699e-09
1.0064259e-08
1.0728492e-08
1.1789201e-08
1.2535169e-08
1.3603415e-08
1.465279e-08
1.5655943e-08
1.6580812e-08
1.7930323e-08
1.8767216e-08
1.988506e-08
2.114587e-08
2.1943349e-08
2.3104076e-08
2.4190519e-08
2.5330021e-08
2.6972002e-08
2.8034748e-08
2.9724668e-08
3.0810132e-08
3.1974646e-08
3.2888259e-08
3.4229977e-08
3.5217634e-08
3.6867109e-08
3.8065839e-08
4.0523346e-08
6.3413258e-10
6.4483349e-10
6.591685e-10
6.7300521e-10
6.906909e-10
7.1225378e-10
7.3159251e-10
7.6245228e-10
7.8456156e-10
8.2298054e-10
8.4786928e-10
8.9186093e-10
9.1737269e-10
9.6002504e-10
9.8241661e-10
1.0145711e-09
1.0347013e-09
1.0577264e-09
1.0876423e-09
1.1234168e-09
1.1824707e-09
1.2458766e-09
1.3588234e-09
1.4727238e-09
1.6770301e-09
1.872261e-09
2.2134326e-09
2.5153258e-09
3.0192415e-09
3.4745834e-09
4.0404376e-09
4.8642467e-09
5.5208967e-09
6.5784994e-09
7.3831151e-09
8.6862235e-09
9.6229956e-09
1.1143672e-08
1.2226832e-08
1.3773831e-08
1.542258e-08
1.6942946e-08
1.8817876e-08
2.062098e-08
2.312614e-08
2.4830202e-08
2.753986e-08
2.9362153e-08
3.2267681e-08
3.4149855e-08
3.7207581e-08
3.9249772e-08
4.236531e-08
4.5024947e-08
4.7893298e-08
5.0480175e-08
5.4046066e-08
5.6300105e-08
5.9426418e-08
6.2611821e-08
6.4678962e-08
6.7735846e-08
7.0488273e-08
7.3485632e-08
7.7577013e-08
8.0381165e-08
8.4705161e-08
8.7284095e-08
9.0308148e-08
9.2483787e-08
9.5575851e-08
9.7917253e-08
1.0170424e-07
1.0449911e-07
1.1014392e-07
6.5708729e-10
6.6790617e-10
6.8076001e-10
6.9687721e-10
7.1462023e-10
7.447254e-10
7.6765317e-10
8.1354418e-10
8.4214528e-10
9.0021217e-10
9.3593588e-10
1.0008961e-09
1.0429972e-09
1.1065519e-09
1.1486554e-09
1.2108728e-09
1.2735499e-09
1.3692863e-09
1.5238464e-09
1.723085e-09
2.061194e-09
2.4254189e-09
3.0519041e-09
3.6352691e-09
4.6275532e-09
5.4631379e-09
6.8749055e-09
7.9843663e-09
9.8622736e-09
1.1302492e-08
1.3610208e-08
1.5753129e-08
1.7901107e-08
2.1235032e-08
2.3596415e-08
2.7464199e-08
3.0160026e-08
3.4567618e-08
3.7540899e-08
4.2340933e-08
4.567116e-08
5.105779e-08
5.4819374e-08
6.0775466e-08
6.6126266e-08
7.062451e-08
7.7857624e-08
8.2359274e-08
8.9461491e-08
9.3993922e-08
1.0139841e-07
1.0619782e-07
1.1380664e-07
1.1938251e-07
1.266394e-07
1.3250513e-07
1.4051196e-07
1.4573318e-07
1.5316133e-07
1.5998501e-07
1.6462848e-07
1.7166569e-07
1.7729459e-07
1.8438874e-07
1.9264681e-07
1.9901524e-07
2.0823771e-07
2.1363981e-07
2.204735e-07
2.2509041e-07
2.3141999e-07
2.3629904e-07
2.4375846e-07
2.4951661e-07
2.6089204e-07
6.7602906e-10
6.8848428e-10
7.0393928e-10
7.1827175e-10
7.3761567e-10
7.7103404e-10
7.994092e-10
8.5011574e-10
9.1344414e-10
9.8280525e-10
1.0815785e-09
1.1642376e-09
1.2823834e-09
1.3995688e-09
1.5733837e-09
1.817156e-09
2.1795216e-09
2.697581e-09
3.5069765e-09
4.3982433e-09
5.834503e-09
7.2057337e-09
9.4822724e-09
1.1422661e-08
1.4683207e-08
1.7235004e-08
2.1558761e-08
2.4739409e-08
3.0225431e-08
3.4123664e-08
4.0882336e-08
4.5586488e-08
5.3034551e-08
6.019184e-08
6.6293827e-08
7.6295997e-08
8.2878481e-08
9.364655e-08
1.0071876e-07
1.1216182e-07
1.1986322e-07
1.3239782e-07
1.4087319e-07
1.5505199e-07
1.6450562e-07
1.7711336e-07
1.9169133e-07
2.0110347e-07
2.1607176e-07
2.2590728e-07
2.4166614e-07
2.515413e-07
2.6734538e-07
2.776855e-07
2.9379772e-07
3.0505298e-07
3.2090004e-07
3.3156047e-07
3.4715681e-07
3.597674e-07
3.695166e-07
3.8440643e-07
3.9530582e-07
4.099317e-07
4.2521078e-07
4.3875481e-07
4.5666356e-07
4.6753437e-07
4.8152803e-07
4.9086348e-07
5.031471e-07
5.1307477e-07
5.2714011e-07
5.3875891e-07
5.611542e-07
6.9666789e-10
7.1463742e-10
7.4675937e-10
7.7102378e-10
8.1641268e-10
8.6341158e-10
9.1570387e-10
9.74667e-10
1.0543463e-09
1.1424198e-09
1.2932233e-09
1.5124355e-09
1.8642398e-09
2.3926511e-09
3.1706576e-09
4.3218948e-09
5.7845505e-09
7.7954349e-09
1.0623604e-08
1.3448895e-08
1.7942628e-08
2.1951036e-08
2.8532817e-08
3.3821845e-08
4.2719136e-08
4.9298439e-08
6.0497718e-08
6.8328389e-08
8.1971513e-08
9.1115366e-08
1.0729876e-07
1.1783251e-07
1.3623444e-07
1.483083e-07
1.6681053e-07
1.856546e-07
1.9967513e-07
2.2251438e-07
2.3766468e-07
2.6143516e-07
2.7740575e-07
3.028015e-07
3.1981326e-07
3.4799205e-07
3.6592246e-07
3.9389031e-07
4.1742611e-07
4.3793369e-07
4.6749492e-07
4.8695222e-07
5.1601426e-07
5.3513557e-07
5.6530352e-07
5.8522982e-07
6.1666468e-07
6.3669576e-07
6.6660589e-07
6.8811435e-07
7.2012869e-07
7.4274434e-07
7.679495e-07
7.9843942e-07
8.2072493e-07
8.5025056e-07
8.8156097e-07
9.1220743e-07
9.4707968e-07
9.7024218e-07
9.9897419e-07
1.0192569e-06
1.0450553e-06
1.0683854e-06
1.0989182e-06
1.1254987e-06
1.1748593e-06
7.0299174e-10
7.2342388e-10
7.5556715e-10
7.9123083e-10
8.3647952e-10
9.0910786e-10
9.8405456e-10
1.106232e-09
1.2850362e-09
1.6001622e-09
2.1286239e-09
2.983215e-09
4.2634046e-09
6.1853782e-09
8.7478659e-09
1.269347e-08
1.6933891e-08
2.3506298e-08
3.0376264e-08
3.85171e-08
5.0107602e-08
6.0535031e-08
7.6577611e-08
8.9285e-08
1.102662e-07
1.2502042e-07
1.5013744e-07
1.6703146e-07
1.9638035e-07
2.1527503e-07
2.4883342e-07
2.6981415e-07
3.0695838e-07
3.3029186e-07
3.7056071e-07
3.9651264e-07
4.3560412e-07
4.7184159e-07
5.0683217e-07
5.4586726e-07
5.8259091e-07
6.2771374e-07
6.6092342e-07
7.1334201e-07
7.4787467e-07
8.0264118e-07
8.4003042e-07
8.9135653e-07
9.377172e-07
9.8331981e-07
1.0335823e-06
1.0738619e-06
1.1306688e-06
1.1703669e-06
1.2326251e-06
1.2734291e-06
1.3325297e-06
1.3895687e-06
1.4677974e-06
1.5212987e-06
1.5964239e-06
1.6503742e-06
1.7054795e-06
1.7703966e-06
1.845587e-06
1.9126947e-06
1.9887668e-06
2.0447222e-06
2.1194009e-06
2.1757377e-06
2.2465993e-06
2.3268408e-06
2.3993794e-06
2.471073e-06
2.5910922e-06
6.9876247e-10
7.1386173e-10
7.3223789e-10
7.5687108e-10
7.9990657e-10
8.9371302e-10
1.1109898e-09
1.567733e-09
2.3788628e-09
3.6802894e-09
5.6157182e-09
8.4578361e-09
1.2383961e-08
1.8351076e-08
2.5303356e-08
3.6438671e-08
4.690328e-08
6.4298355e-08
7.8834578e-08
1.031571e-07
1.2237765e-07
1.5160309e-07
1.8052669e-07
2.1116723e-07
2.522269e-07
2.8211915e-07
3.320088e-07
3.6458277e-07
4.2040484e-07
4.5587885e-07
5.1814955e-07
5.5686641e-07
6.2560096e-07
6.6846372e-07
7.4323274e-07
7.9162464e-07
8.726388e-07
9.2769319e-07
1.0144217e-06
1.0749041e-06
1.1617957e-06
1.2284222e-06
1.3105242e-06
1.4012674e-06
1.4747782e-06
1.5887348e-06
1.6655089e-06
1.7812851e-06
1.8604775e-06
1.9790494e-06
2.0567203e-06
2.1662238e-06
2.2659454e-06
2.3576309e-06
2.5285168e-06
2.6318078e-06
2.7983019e-06
3.0268545e-06
3.2224119e-06
3.345787e-06
3.5386453e-06
3.6365322e-06
3.7677441e-06
3.933599e-06
4.1320504e-06
4.2893299e-06
4.5540082e-06
4.7101051e-06
5.0693087e-06
5.20972e-06
5.4808393e-06
5.7321328e-06
5.8822213e-06
6.1044713e-06
6.3018898e-06
7.0052916e-10
7.221952e-10
7.4885747e-10
8.0464154e-10
9.6466587e-10
1.3865535e-09
2.2804981e-09
3.8322732e-09
6.2963892e-09
1.0029918e-08
1.5432753e-08
2.3464257e-08
3.40336e-08
5.0646005e-08
6.7329473e-08
9.487275e-08
1.1807569e-07
1.5737936e-07
1.874039e-07
2.390438e-07
2.7561566e-07
3.392766e-07
3.82127e-07
4.5587406e-07
5.1150816e-07
5.7962252e-07
6.6416202e-07
7.242826e-07
8.2341976e-07
8.8801782e-07
9.9970884e-07
1.0720712e-06
1.2027814e-06
1.2842145e-06
1.4346007e-06
1.5329191e-06
1.7070392e-06
1.8221822e-06
2.002952e-06
2.1182867e-06
2.294138e-06
2.4120553e-06
2.6401983e-06
2.800069e-06
3.0231902e-06
3.2903137e-06
3.4564483e-06
3.7188112e-06
3.8914369e-06
4.1951156e-06
4.3442229e-06
4.6667422e-06
4.8722839e-06
5.12427e-06
5.9667094e-06
6.090139e-06
6.9027451e-06
7.5876722e-06
7.6266633e-06
7.8438814e-06
8.534617e-06
8.553175e-06
8.8412982e-06
9.5172932e-06
9.8251382e-06
1.0635422e-05
1.0695604e-05
1.0703592e-05
1.1380779e-05
1.1550347e-05
1.2076767e-05
1.2147316e-05
1.2624968e-05
1.3020756e-05
1.2392383e-05
7.1537965e-10
7.4810756e-10
8.2401276e-10
1.0951831e-09
1.8746724e-09
3.4528091e-09
6.2323581e-09
1.0614529e-08
1.7205844e-08
2.6979437e-08
4.0590876e-08
6.1912382e-08
8.5916669e-08
1.2497447e-07
1.5978254e-07
2.18363e-07
2.6407102e-07
3.416776e-07
3.979471e-07
4.9411868e-07
5.5972418e-07
6.7365297e-07
7.4930479e-07
8.8480764e-07
9.7280719e-07
1.1254535e-06
1.2377932e-06
1.3748327e-06
1.5379881e-06
1.6654976e-06
1.8868616e-06
2.0367036e-06
2.324517e-06
2.4859256e-06
2.8647082e-06
3.0729575e-06
3.5076459e-06
3.7412744e-06
4.1039199e-06
4.3351971e-06
4.7273788e-06
4.971162e-06
5.9281137e-06
6.2179221e-06
6.9347006e-06
7.3653282e-06
7.7135049e-06
8.4383994e-06
8.7749413e-06
9.803728e-06
9.7184177e-06
1.1131886e-05
1.0953025e-05
1.1584232e-05
1.3091032e-05
1.2399237e-05
1.5329169e-05
1.5348774e-05
1.3279753e-05
1.4339973e-05
1.463574e-05
1.4250321e-05
1.3777021e-05
1.4307727e-05
1.4342034e-05
1.3540246e-05
1.2374965e-05
1.2283315e-05
1.1956596e-05
1.2899975e-05
1.273682e-05
1.0657771e-05
1.107638e-05
1.0055029e-05
7.2337184e-06
7.1937183e-10
8.4863998e-10
1.205963e-09
2.3469321e-09
4.8127599e-09
9.218526e-09
1.646176e-08
2.7524403e-08
4.3557752e-08
6.7769486e-08
9.9290689e-08
1.5039258e-07
1.9875243e-07
2.7982722e-07
3.45177e-07
4.5638876e-07
5.3750474e-07
6.7529682e-07
7.7317986e-07
9.3618714e-07
1.0519439e-06
1.24935e-06
1.3874448e-06
1.6372037e-06
1.8083468e-06
2.1113563e-06
2.3082716e-06
2.6106795e-06
2.884273e-06
3.2029661e-06
3.7720492e-06
4.0566625e-06
4.8502639e-06
5.0523331e-06
6.3998722e-06
6.6013627e-06
7.8759842e-06
8.2406417e-06
8.9409677e-06
9.4613794e-06
1.0517859e-05
1.0839378e-05
1.265597e-05
1.1979114e-05
1.4126724e-05
1.3550681e-05
1.4104929e-05
1.3767325e-05
1.4736229e-05
1.3939376e-05
1.4173704e-05
1.4256869e-05
1.3083363e-05
1.3980367e-05
1.2146287e-05
1.1432832e-05
1.1973374e-05
9.1574226e-06
7.94037e-06
1.014398e-05
7.730305e-06
8.6194933e-06
7.0312019e-06
7.2423149e-06
6.6596955e-06
4.2636838e-06
4.3213746e-06
4.7354525e-06
4.1328361e-06
4.4007707e-06
3.9573605e-06
3.5749336e-06
3.4946977e-06
2.6600132e-06
2.1338625e-06
6.9151448e-10
9.9474861e-10
2.4364538e-09
5.90205e-09
1.251541e-08
2.3547583e-08
4.0983883e-08
6.6642074e-08
1.0247179e-07
1.6010941e-07
2.2300651e-07
3.275548e-07
4.159015e-07
5.6462804e-07
6.8010995e-07
8.7291749e-07
1.0119753e-06
1.2497478e-06
1.4218159e-06
1.6982942e-06
1.9274307e-06
2.2907682e-06
2.5685961e-06
3.1007176e-06
3.4647207e-06
4.1070123e-06
4.513651e-06
5.1443611e-06
5.8538978e-06
6.8654044e-06
8.0653676e-06
8.6780012e-06
1.0540029e-05
1.0654835e-05
1.2825829e-05
1.2344221e-05
1.4960135e-05
1.384361e-05
1.4112539e-05
1.4078925e-05
1.3814841e-05
1.3554378e-05
1.2943095e-05
1.0602525e-05
1.1993833e-05
9.853564e-06
1.1175795e-05
8.651398e-06
9.0223134e-06
6.3686278e-06
7.9828545e-06
4.7555367e-06
6.1788115e-06
5.7908637e-06
3.5384143e-06
6.3055917e-06
5.4596856e-06
2.3829752e-06
2.7927406e-06
4.4950578e-06
3.1254728e-06
2.3332659e-06
2.5132914e-06
2.8785342e-06
2.3056435e-06
1.9285674e-06
1.8347195e-06
1.9166667e-06
2.0277207e-06
2.6779869e-06
2.3803223e-06
2.1164052e-06
2.1708143e-06
1.836782e-06
1.703628e-06
7.020142e-10
1.945139e-09
6.1935243e-09
1.4940641e-08
3.0817934e-08
5.6064476e-08
9.4748374e-08
1.4955366e-07
2.2324862e-07
3.4430788e-07
4.5835887e-07
6.4777452e-07
7.9961307e-07
1.0519537e-06
1.2592638e-06
1.5745322e-06
1.8267745e-06
2.2642558e-06
2.5808602e-06
3.1189535e-06
3.6576268e-06
4.3494025e-06
4.9934518e-06
6.3973104e-06
7.1537367e-06
8.6193702e-06
9.3917076e-06
1.1094858e-05
1.1763053e-05
1.3354975e-05
1.3233917e-05
1.4712993e-05
1.422287e-05
1.4470608e-05
1.3644367e-05
1.1992987e-05
1.0996828e-05
8.6379709e-06
7.988994e-06
7.5112561e-06
5.6859793e-06
6.338294e-06
3.8949668e-06
3.8341118e-06
3.880106e-06
2.9480973e-06
3.3755294e-06
2.7735626e-06
2.4822248e-06
1.9640481e-06
2.603142e-06
1.9939493e-06
2.3134056e-06
2.2481078e-06
2.351522e-06
4.9437294e-06
3.4296904e-06
1.5846916e-06
1.9266968e-06
2.8775366e-06
2.1721585e-06
1.5089409e-06
1.9463628e-06
1.9509879e-06
1.7600694e-06
1.714348e-06
1.5624936e-06
1.5409458e-06
1.8571364e-06
1.9557771e-06
1.8945359e-06
1.7176519e-06
1.6343605e-06
1.6734548e-06
1.7309283e-06
6.6389492e-10
4.9232696e-09
1.5567883e-08
3.6052875e-08
7.120092e-08
1.2461446e-07
2.0430645e-07
3.1239558e-07
4.5215691e-07
6.7650894e-07
8.7057077e-07
1.1864404e-06
1.4496715e-06
1.8827962e-06
2.293329e-06
2.7821017e-06
3.3420716e-06
4.2200873e-06
4.8447737e-06
6.2416299e-06
7.47435e-06
8.8796465e-06
1.0536648e-05
1.2264467e-05
1.2801678e-05
1.3827336e-05
1.3761728e-05
1.4467792e-05
1.3014571e-05
1.2416397e-05
1.0549677e-05
1.0493023e-05
6.9060195e-06
9.2075735e-06
4.1382748e-06
6.4633709e-06
4.18714e-06
2.280441e-06
2.426789e-06
2.2625032e-06
1.9410845e-06
1.8787597e-06
1.4421496e-06
1.8535083e-06
2.1122972e-06
1.6399863e-06
1.3114755e-06
1.3187809e-06
1.2445154e-06
1.1702051e-06
1.309329e-06
1.3603855e-06
1.8715046e-06
1.7581666e-06
2.7027638e-06
5.8439357e-06
2.8106845e-06
1.5332869e-06
1.7806518e-06
2.3380211e-06
1.7956878e-06
1.3912102e-06
2.0210723e-06
2.1193913e-06
1.628428e-06
1.6653563e-06
1.525044e-06
1.4046084e-06
1.4890781e-06
1.6291514e-06
1.8887833e-06
1.827097e-06
1.6329144e-06
1.8042574e-06
1.8111101e-06
3.6997892e-10
1.2185909e-08
3.6866728e-08
8.1472425e-08
1.5347719e-07
2.5801876e-07
4.121906e-07
6.0252237e-07
8.613284e-07
1.2329285e-06
1.5640363e-06
2.0910899e-06
2.5870816e-06
3.4377755e-06
4.1694603e-06
5.1696574e-06
6.6480493e-06
8.3405033e-06
9.6375265e-06
1.1863328e-05
1.2608334e-05
1.3636348e-05
1.4133624e-05
1.2933873e-05
1.2463989e-05
8.8040945e-06
7.9673753e-06
7.7585659e-06
5.8606886e-06
4.8151388e-06
4.3347754e-06
3.3026011e-06
2.333407e-06
3.5038595e-06
1.437578e-06
4.4653564e-06
1.3877765e-06
1.1684032e-06
1.6637277e-06
1.5224295e-06
1.4650692e-06
1.5650439e-06
1.2351281e-06
1.4975585e-06
1.7423437e-06
1.4100816e-06
1.2313175e-06
1.2186868e-06
1.2301376e-06
1.2378996e-06
1.1541963e-06
1.3026712e-06
2.2808732e-06
1.615846e-06
2.9590348e-06
4.5729556e-06
1.9992851e-06
1.538139e-06
1.6569752e-06
2.0496941e-06
1.6319657e-06
1.3402577e-06
1.5295599e-06
1.8426626e-06
1.5793014e-06
1.6390645e-06
1.5380848e-06
1.4838069e-06
1.6125496e-06
1.6117712e-06
1.825283e-06
2.0114622e-06
1.9503808e-06
2.0282484e-06
1.9365196e-06
1.1196084e-09
2.8682164e-08
8.192484e-08
1.7207667e-07
3.0880046e-07
4.9921161e-07
7.7161183e-07
1.0956033e-06
1.5888841e-06
2.1309201e-06
2.7645084e-06
3.7307808e-06
4.7773568e-06
6.5999977e-06
8.1116972e-06
1.0609243e-05
1.1488004e-05
1.2792024e-05
1.2863305e-05
1.2536973e-05
1.0680078e-05
9.956031e-06
7.4969363e-06
5.280501e-06
4.7148298e-06
2.6522531e-06
2.7261554e-06
2.4904812e-06
1.9133663e-06
1.9197349e-06
1.6741341e-06
1.3860507e-06
1.5587092e-06
1.627204e-06
1.1345837e-06
2.7914474e-06
1.2269371e-06
1.3959963e-06
2.0419537e-06
1.5611447e-06
1.6299622e-06
1.4601242e-06
1.2288677e-06
1.3295163e-06
1.4617185e-06
1.3797287e-06
1.4519707e-06
1.4142019e-06
1.4825848e-06
1.7491947e-06
1.3233229e-06
1.3070778e-06
1.8121469e-06
1.5265953e-06
2.9716796e-06
3.5649003e-06
1.8027635e-06
1.6358149e-06
1.853303e-06
1.8103407e-06
1.6990357e-06
1.416587e-06
1.4248046e-06
1.5056063e-06
1.5908361e-06
1.7327572e-06
1.592218e-06
1.6297708e-06
1.6596396e-06
1.7005862e-06
1.7935819e-06
2.0654502e-06
2.1673245e-06
2.1374228e-06
1.9711669e-06
5.3790923e-09
6.4988971e-08
1.7187343e-07
3.4044193e-07
5.8198674e-07
9.0805589e-07
1.3563485e-06
1.9365777e-06
2.8068162e-06
3.7183545e-06
5.0778299e-06
7.1542257e-06
9.5152564e-06
1.1227328e-05
1.2826217e-05
1.2869846e-05
1.1262628e-05
9.3393742e-06
7.5472261e-06
5.6333797e-06
4.1576493e-06
3.9954498e-06
2.2007842e-06
1.6988675e-06
1.3758597e-06
1.3149147e-06
1.4580109e-06
9.0524118e-07
9.1400832e-07
1.4741881e-06
6.6859311e-07
7.9187423e-07
8.9028513e-07
1.2415511e-06
9.3803621e-07
1.7852624e-06
8.5131764e-07
1.4296887e-06
2.0040123e-06
1.6565997e-06
1.4774274e-06
1.4765478e-06
1.3601771e-06
1.2692839e-06
1.4587142e-06
1.2790084e-06
1.3749252e-06
1.3100043e-06
1.573658e-06
3.0595585e-06
2.0181954e-06
1.6347259e-06
1.8464574e-06
1.5339871e-06
2.1233282e-06
3.1437186e-06
1.75571e-06
1.6770627e-06
1.9956007e-06
1.6728218e-06
1.8151532e-06
1.6864877e-06
1.4929254e-06
1.6121713e-06
1.6928483e-06
1.8278747e-06
1.8519028e-06
1.743731e-06
1.7749154e-06
1.8730897e-06
1.9100161e-06
2.0888185e-06
2.1850064e-06
2.1209734e-06
1.9598828e-06
1.8063664e-08
1.3951334e-07
3.3997772e-07
6.3226719e-07
1.0355312e-06
1.5786916e-06
2.3384379e-06
3.4373834e-06
4.9974961e-06
6.9660623e-06
1.0112941e-05
1.1631468e-05
1.2332626e-05
1.1384884e-05
1.026392e-05
5.9106813e-06
4.4311621e-06
3.6348414e-06
3.0232006e-06
2.1051919e-06
1.8979368e-06
1.7301378e-06
1.0330208e-06
7.2265625e-07
7.4900863e-07
1.3500577e-06
1.1321336e-06
6.992252e-07
7.9475732e-07
1.4850879e-06
5.3822512e-07
6.7389091e-07
6.8157894e-07
1.2198881e-06
8.8150813e-07
1.3916652e-06
7.5500194e-07
1.6032049e-06
2.0490805e-06
1.6925854e-06
1.4121732e-06
1.2280083e-06
1.3953218e-06
1.2834457e-06
1.3617899e-06
1.3416115e-06
1.257117e-06
1.345027e-06
2.1608822e-06
3.3330641e-06
2.6443782e-06
1.7800551e-06
1.7583649e-06
1.4649279e-06
1.7043028e-06
2.257545e-06
1.611666e-06
1.6485585e-06
1.797058e-06
1.9207633e-06
1.8323053e-06
1.9864155e-06
1.838199e-06
1.7124398e-06
1.7966715e-06
1.9363416e-06
1.8953067e-06
1.8016054e-06
1.7321001e-06
1.7810352e-06
1.9752816e-06
2.0565808e-06
2.1095175e-06
2.0696758e-06
1.9420694e-06
4.9290434e-08
2.8288181e-07
6.3260779e-07
1.1079577e-06
1.7658381e-06
2.6887026e-06
4.1005809e-06
6.3503487e-06
9.6201461e-06
1.0980291e-05
1.2394314e-05
1.0835253e-05
6.8890963e-06
5.0396445e-06
3.847712e-06
1.6539869e-06
1.7634506e-06
1.6874914e-06
1.1396868e-06
7.7820561e-07
1.0960774e-06
9.3752572e-07
9.5251413e-07
6.7615073e-07
6.2764483e-07
1.3189183e-06
9.707109e-07
6.1855643e-07
7.7872155e-07
1.1039065e-06
5.5034589e-07
6.2657524e-07
6.713142e-07
8.699349e-07
7.8046192e-07
1.0762841e-06
7.6085631e-07
1.7602574e-06
1.9209936e-06
1.7890152e-06
1.4929687e-06
1.2000217e-06
1.3853602e-06
1.5378271e-06
1.4347016e-06
1.3111833e-06
1.3211697e-06
1.4812852e-06
2.6326929e-06
2.251591e-06
2.2297725e-06
1.7427239e-06
1.6665704e-06
1.4150009e-06
1.4541667e-06
2.1286718e-06
1.5578339e-06
1.6266468e-06
1.8743946e-06
2.0123394e-06
1.8606432e-06
1.861265e-06
2.1317586e-06
1.9574329e-06
1.9830808e-06
2.0259589e-06
1.8580694e-06
1.8200228e-06
1.748187e-06
1.8329656e-06
2.0562092e-06
2.0916574e-06
2.1072916e-06
2.0838114e-06
1.9759802e-06
1.2034225e-07
5.4202559e-07
1.1127004e-06
1.8553731e-06
2.9572847e-06
4.6328944e-06
7.6515058e-06
1.0371282e-05
1.2040456e-05
1.0588546e-05
7.1836551e-06
4.5690406e-06
2.4174656e-06
2.2863531e-06
1.2627628e-06
4.6193863e-07
9.1372088e-07
8.2120813e-07
9.6283273e-07
5.8029599e-07
8.4085197e-07
6.8823561e-07
6.9493155e-07
7.0976983e-07
6.7730784e-07
1.1152661e-06
8.1639218e-07
6.2337368e-07
7.4522803e-07
8.9523524e-07
7.0548424e-07
6.1590276e-07
7.0392716e-07
7.1013084e-07
7.4112238e-07
8.8982205e-07
7.863222e-07
1.4751418e-06
4.1301799e-06
1.8085345e-06
1.5038212e-06
1.2541986e-06
1.3988519e-06
1.8262081e-06
1.5726619e-06
1.4520607e-06
1.2492208e-06
1.0908765e-06
1.8014714e-06
2.7609348e-06
2.341487e-06
1.7288112e-06
1.5878901e-06
1.5078756e-06
1.6053453e-06
1.8583104e-06
1.5698563e-06
1.6831898e-06
2.5935432e-06
2.0646032e-06
1.9815973e-06
2.3043683e-06
1.9884841e-06
2.3085132e-06
2.2068242e-06
2.09923e-06
1.9179605e-06
2.0321208e-06
1.9233486e-06
2.0883025e-06
2.2489213e-06
2.2024787e-06
2.1388425e-06
2.1137682e-06
2.0237365e-06
2.714472e-07
9.8336764e-07
1.8690597e-06
3.0242003e-06
5.0346254e-06
8.496123e-06
1.0423878e-05
1.032481e-05
7.3622453e-06
5.074903e-06
2.8544728e-06
1.507603e-06
7.8198114e-07
1.1008032e-06
5.1350572e-07
3.1195986e-07
6.1750413e-07
4.711863e-07
5.0880419e-07
5.4361792e-07
6.9523424e-07
6.8173579e-07
6.5180253e-07
6.5917639e-07
6.7075964e-07
7.6033074e-07
7.5193564e-07
7.7115984e-07
7.5927516e-07
7.8198826e-07
7.3572946e-07
6.0369814e-07
6.8653107e-07
6.8462747e-07
7.5324073e-07
7.8721032e-07
7.3340726e-07
8.3316706e-07
3.0919645e-06
1.6479802e-06
1.6884161e-06
1.3259945e-06
1.4964926e-06
2.543274e-06
1.7969354e-06
1.4664982e-06
1.2915084e-06
1.0886814e-06
1.8761373e-06
2.1585042e-06
2.0656171e-06
1.7134851e-06
1.5910993e-06
1.7107897e-06
1.5700263e-06
1.6446528e-06
1.5698382e-06
1.8350948e-06
2.0684911e-06
2.0257754e-06
2.1420323e-06
2.3945376e-06
1.9558236e-06
2.6957088e-06
2.3198622e-06
2.1142151e-06
1.9895233e-06
2.0391812e-06
2.1733939e-06
2.417055e-06
2.4049478e-06
2.2797516e-06
2.1259574e-06
2.1517251e-06
2.1315202e-06
5.736632e-07
1.6999831e-06
3.0375895e-06
4.9433432e-06
9.0566965e-06
1.064448e-05
8.5791247e-06
5.1493244e-06
3.1404733e-06
2.0144668e-06
8.8096633e-07
4.5103651e-07
3.6512326e-07
6.4955194e-07
3.4571799e-07
2.9750823e-07
5.1428123e-07
3.5183171e-07
4.3732222e-07
5.2199775e-07
6.2256481e-07
6.5874253e-07
6.4532285e-07
6.9259972e-07
7.0055715e-07
7.0769016e-07
7.4924572e-07
8.1883362e-07
7.7229524e-07
6.6918946e-07
7.7247279e-07
6.0023207e-07
7.2358877e-07
6.8625845e-07
7.3221762e-07
7.3446904e-07
7.22992e-07
8.5755601e-07
1.5245314e-06
1.2594674e-06
1.5443212e-06
1.0470113e-06
1.745865e-06
2.3603278e-06
1.9992413e-06
1.5292006e-06
1.4608557e-06
1.350829e-06
1.5128374e-06
1.5279247e-06
1.5234309e-06
1.6155873e-06
1.5438418e-06
1.6047802e-06
1.5148252e-06
1.5280462e-06
1.5582818e-06
1.8713924e-06
2.4471907e-06
2.4998969e-06
2.4128368e-06
2.0769462e-06
2.0048502e-06
2.7431672e-06
2.256241e-06
2.1454178e-06
1.9795922e-06
2.1755935e-06
2.6000114e-06
2.5865648e-06
2.4671899e-06
2.197069e-06
2.1425314e-06
2.2223606e-06
2.2981481e-06
1.1488673e-06
2.8157177e-06
4.8871984e-06
8.4563238e-06
1.0400835e-05
7.662351e-06
4.6322982e-06
2.3054886e-06
1.1075039e-06
7.2340867e-07
3.1131547e-07
2.675112e-07
2.8217067e-07
4.7922396e-07
3.1218821e-07
2.8585149e-07
4.7524688e-07
3.5138899e-07
3.1889692e-07
4.9288175e-07
5.8564576e-07
6.1716903e-07
6.1627396e-07
9.3044871e-07
8.7589182e-07
8.584431e-07
7.1408369e-07
6.9239754e-07
7.7461629e-07
6.3152109e-07
8.4323384e-07
6.1671345e-07
6.1688174e-07
6.6186868e-07
7.2671809e-07
6.7251908e-07
7.2940898e-07
7.9750125e-07
1.5955513e-06
1.1954151e-06
1.0844357e-06
9.7839814e-07
2.0233793e-06
2.2030551e-06
1.9058974e-06
1.590523e-06
1.8826713e-06
1.738368e-06
1.5568916e-06
1.4896272e-06
1.5897485e-06
1.9785817e-06
1.5841782e-06
1.559465e-06
1.5468072e-06
1.4532089e-06
1.6286321e-06
1.9097284e-06
1.9564615e-06
2.6878885e-06
2.5613635e-06
2.0218614e-06
1.9887448e-06
2.3503087e-06
1.9950721e-06
2.0329057e-06
2.1710269e-06
2.6491633e-06
2.6731724e-06
2.5701388e-06
2.2965732e-06
2.1903068e-06
2.1796996e-06
2.2623963e-06
2.4253501e-06
2.206072e-06
4.5022971e-06
8.0732304e-06
9.6970314e-06
7.07673e-06
3.9672635e-06
1.8846309e-06
7.9125027e-07
3.9505585e-07
4.6603932e-07
2.2615135e-07
2.5011354e-07
2.5303607e-07
3.6987575e-07
2.9877075e-07
2.9419478e-07
4.4257034e-07
3.9711783e-07
2.9996594e-07
4.7963094e-07
5.6354947e-07
6.2618191e-07
6.0399907e-07
9.891382e-07
9.9483139e-07
1.1406128e-06
6.7494426e-07
7.7296142e-07
7.7666214e-07
6.2553705e-07
1.0007026e-06
6.2396453e-07
6.3835832e-07
6.7006758e-07
7.0143283e-07
6.5492953e-07
7.5476101e-07
7.5005855e-07
1.5051083e-06
1.1434719e-06
1.1356118e-06
1.085319e-06
2.2074371e-06
2.2893792e-06
1.6411579e-06
1.6091254e-06
1.5980805e-06
1.4549723e-06
2.0134866e-06
1.5754113e-06
1.7742097e-06
1.6637603e-06
1.5590133e-06
1.8976279e-06
2.0029912e-06
1.5756151e-06
1.7774182e-06
2.144287e-06
1.8865751e-06
2.2868139e-06
2.5229982e-06
2.2577402e-06
2.2566414e-06
1.9748816e-06
1.9130613e-06
2.0459445e-06
2.4150322e-06
2.373506e-06
2.3844491e-06
2.3359296e-06
2.2603298e-06
2.243534e-06
2.2399681e-06
2.327468e-06
2.4750086e-06
3.8645172e-06
7.2062526e-06
1.0072729e-05
7.6196853e-06
4.057695e-06
1.5395125e-06
6.1302725e-07
2.8485865e-07
2.011839e-07
3.9500155e-07
2.0908184e-07
2.4292017e-07
2.4006921e-07
2.976042e-07
2.9923923e-07
2.9118335e-07
4.3265316e-07
5.754858e-07
2.7711476e-07
4.8187968e-07
5.7055353e-07
7.8996755e-07
6.1648428e-07
8.4752614e-07
8.433725e-07
1.1930956e-06
6.9186453e-07
1.0379568e-06
7.8769521e-07
6.7248489e-07
9.7443117e-07
6.0032483e-07
7.2023546e-07
6.4182475e-07
7.0263833e-07
6.6414686e-07
7.7270771e-07
7.5327917e-07
1.2643941e-06
1.1809745e-06
1.1100311e-06
9.8469064e-07
1.9207104e-06
1.6495248e-06
1.4776232e-06
1.4681215e-06
1.3384066e-06
1.4443908e-06
1.847686e-06
1.4484132e-06
1.6104945e-06
1.3804732e-06
1.4857127e-06
1.8788055e-06
1.8503932e-06
1.64404e-06
2.0316218e-06
2.4064654e-06
2.1218576e-06
2.5444245e-06
2.1388064e-06
2.2685001e-06
1.9590733e-06
1.9896359e-06
1.9150958e-06
2.1441455e-06
2.133131e-06
2.4061491e-06
2.3687425e-06
2.3386492e-06
2.2738095e-06
2.3280292e-06
2.3152987e-06