/*--------------------------------*- C++ -*----------------------------------*\
| =========                 |                                                 |
| \\      /  F ield         | OpenFOAM: The Open Source CFD Toolbox           |
|  \\    /   O peration     | Version:  2.3.0                                 |
|   \\  /    A nd           | Web:      www.OpenFOAM.org                      |
|    \\/     M anipulation  |                                                 |
\*---------------------------------------------------------------------------*/
FoamFile
{
    version     2.0;
    format      ascii;
    class       surfaceScalarField;
    location    "2.1e-05";
    object      phi;
}
// * * * * * * * * * * * * * * * * * * * * * * * * * * * * * * * * * * * * * //

dimensions      [0 3 -1 0 0 0 0];

internalField   nonuniform List<scalar> 
14825
(
1.0341808e-09
-2.0419446e-11
1.0551116e-09
-2.0930751e-11
1.0752961e-09
-2.0184582e-11
1.0955209e-09
-2.0224759e-11
1.1159315e-09
-2.0410544e-11
1.1357811e-09
-1.984961e-11
1.1564179e-09
-2.0636817e-11
1.1757886e-09
-1.9370683e-11
1.1964247e-09
-2.0636138e-11
1.2153542e-09
-1.8929544e-11
1.2360001e-09
-2.0645856e-11
1.2545798e-09
-1.8579716e-11
1.2749453e-09
-2.0365528e-11
1.2933863e-09
-1.8440911e-11
1.3131787e-09
-1.9792402e-11
1.3316446e-09
-1.8465903e-11
1.3507668e-09
-1.9122234e-11
1.3692849e-09
-1.8518099e-11
1.388065e-09
-1.8780056e-11
1.4062444e-09
-1.8179461e-11
1.4247262e-09
-1.8481772e-11
1.4420207e-09
-1.7294526e-11
1.460729e-09
-1.8708248e-11
1.4769167e-09
-1.618771e-11
1.4958463e-09
-1.8929604e-11
1.5113439e-09
-1.5497634e-11
1.5298203e-09
-1.8476357e-11
1.5455705e-09
-1.5750258e-11
1.5622577e-09
-1.6687126e-11
1.5790238e-09
-1.6766158e-11
1.5938533e-09
-1.4829467e-11
1.6113943e-09
-1.7541073e-11
1.6249767e-09
-1.3582361e-11
1.6423361e-09
-1.7359438e-11
1.6552241e-09
-1.2887992e-11
1.6719544e-09
-1.6730287e-11
1.6847252e-09
-1.277082e-11
1.7002074e-09
-1.5482168e-11
1.713363e-09
-1.3155617e-11
1.7269357e-09
-1.357263e-11
1.7411237e-09
-1.4188057e-11
1.7530112e-09
-1.1887508e-11
1.7669882e-09
-1.3976938e-11
1.7780336e-09
-1.1045464e-11
1.7924754e-09
-1.4441769e-11
1.8028168e-09
-1.0341427e-11
1.8150033e-09
-1.2186502e-11
1.8261531e-09
-1.11498e-11
1.8375295e-09
-1.1376318e-11
1.8481491e-09
-1.0619621e-11
1.8577681e-09
-9.6189812e-12
1.8688605e-09
-1.1092465e-11
1.877711e-09
-8.8505031e-12
1.8879391e-09
-1.0228043e-11
1.8964662e-09
-8.5271063e-12
1.9050481e-09
-8.5818894e-12
1.9146983e-09
-9.6502829e-12
1.921221e-09
-6.522623e-12
1.9290812e-09
-7.8601935e-12
1.9382071e-09
-9.125984e-12
1.9447952e-09
-6.5880653e-12
1.9513127e-09
-6.5174746e-12
1.9569527e-09
-5.6400402e-12
1.9642862e-09
-7.3335096e-12
1.9700765e-09
-5.7902481e-12
1.974191e-09
-4.1145544e-12
1.9801079e-09
-5.9168362e-12
1.9852211e-09
-5.1132078e-12
1.9876837e-09
-2.4626306e-12
1.9923032e-09
-4.6194798e-12
1.996141e-09
-3.8378494e-12
1.9979292e-09
-1.7881465e-12
2.0017848e-09
-3.8555656e-12
2.0047067e-09
-2.9219669e-12
-2.1650631e-12
2.8619245e-09
-8.0377981e-11
2.9232009e-09
-8.2207186e-11
2.9827221e-09
-7.9705793e-11
3.0424435e-09
-7.9946133e-11
3.1028413e-09
-8.0808339e-11
3.1616179e-09
-7.8626229e-11
3.2226776e-09
-8.1696555e-11
3.2804032e-09
-7.7096264e-11
3.3416111e-09
-8.1844014e-11
3.3984629e-09
-7.5781358e-11
3.4597069e-09
-8.1889899e-11
3.5159113e-09
-7.4784053e-11
3.5764557e-09
-8.0909896e-11
3.6325086e-09
-7.4493835e-11
3.6916283e-09
-7.8912084e-11
3.7479152e-09
-7.4752869e-11
3.8053766e-09
-7.6583565e-11
3.8618965e-09
-7.5038018e-11
3.9187815e-09
-7.5665053e-11
3.9742699e-09
-7.3667897e-11
4.0308879e-09
-7.509975e-11
4.0837354e-09
-7.0142027e-11
4.1413396e-09
-7.6312461e-11
4.1913158e-09
-6.6163954e-11
4.2494422e-09
-7.7055959e-11
4.2980732e-09
-6.4128589e-11
4.3546932e-09
-7.5096439e-11
4.4043281e-09
-6.5385092e-11
4.4562773e-09
-6.8636309e-11
4.50856e-09
-6.9048895e-11
4.5560144e-09
-6.2283907e-11
4.6100346e-09
-7.1561266e-11
4.6546403e-09
-5.8188031e-11
4.7081417e-09
-7.0860851e-11
4.7509595e-09
-5.5705781e-11
4.8030203e-09
-6.8791116e-11
4.8454962e-09
-5.5246727e-11
4.8944546e-09
-6.4440582e-11
4.9375571e-09
-5.6258096e-11
4.9822638e-09
-5.8279304e-11
5.0273442e-09
-5.9268501e-11
5.0681556e-09
-5.2698853e-11
5.1129187e-09
-5.8740052e-11
5.1513764e-09
-4.9503207e-11
5.1970079e-09
-6.0073199e-11
5.2337085e-09
-4.7042086e-11
5.2741148e-09
-5.2592726e-11
5.3122146e-09
-4.9249689e-11
5.3510444e-09
-5.0206059e-11
5.3872605e-09
-4.6835694e-11
5.4223963e-09
-4.4754821e-11
5.4592903e-09
-4.798645e-11
5.4921588e-09
-4.1719048e-11
5.5277968e-09
-4.5866059e-11
5.5584511e-09
-3.9181386e-11
5.5911977e-09
-4.1328466e-11
5.6245429e-09
-4.2995473e-11
5.6503586e-09
-3.2338368e-11
5.6808941e-09
-3.8395693e-11
5.7127584e-09
-4.0990281e-11
5.7383116e-09
-3.2141198e-11
5.7643175e-09
-3.2523448e-11
5.7872715e-09
-2.8593986e-11
5.8148852e-09
-3.4947194e-11
5.8390385e-09
-2.9943611e-11
5.8584766e-09
-2.3552617e-11
5.8829605e-09
-3.0400773e-11
5.9044964e-09
-2.6649036e-11
5.9193685e-09
-1.7334803e-11
5.9396686e-09
-2.491957e-11
5.9582469e-09
-2.2416147e-11
5.9712185e-09
-1.4759746e-11
5.9902165e-09
-2.2853541e-11
6.0062788e-09
-1.898431e-11
-1.6331375e-11
4.3656655e-09
-1.7793396e-10
4.464881e-09
-1.8142273e-10
4.5622251e-09
-1.7704986e-10
4.659978e-09
-1.7769908e-10
4.7588193e-09
-1.7964959e-10
4.8555399e-09
-1.7534686e-10
4.9552722e-09
-1.8142884e-10
5.0511242e-09
-1.7294829e-10
5.1511311e-09
-1.8185091e-10
5.2463826e-09
-1.7103282e-10
5.3465469e-09
-1.8205421e-10
5.4412345e-09
-1.6947166e-10
5.5407022e-09
-1.8037755e-10
5.6354485e-09
-1.6924021e-10
5.7332035e-09
-1.7666704e-10
5.8283382e-09
-1.6988761e-10
5.924067e-09
-1.7231233e-10
6.0194454e-09
-1.7041644e-10
6.1151606e-09
-1.713802e-10
6.2087715e-09
-1.6727878e-10
6.3051773e-09
-1.7150559e-10
6.3948115e-09
-1.5977621e-10
6.4929298e-09
-1.7443075e-10
6.578935e-09
-1.521692e-10
6.6774298e-09
-1.755507e-10
6.7621052e-09
-1.48804e-10
6.8585491e-09
-1.715404e-10
6.9441979e-09
-1.5103387e-10
7.0352171e-09
-1.5965551e-10
7.1239428e-09
-1.5777456e-10
7.2093922e-09
-1.4773329e-10
7.3005141e-09
-1.6268324e-10
7.381961e-09
-1.3963492e-10
7.4729443e-09
-1.6184416e-10
7.5515682e-09
-1.3432963e-10
7.6414232e-09
-1.5864615e-10
7.7187291e-09
-1.3255258e-10
7.8051966e-09
-1.5090809e-10
7.8823028e-09
-1.3336431e-10
7.9642194e-09
-1.4019594e-10
8.0423724e-09
-1.3742142e-10
8.1195333e-09
-1.2985977e-10
8.1973876e-09
-1.365944e-10
8.2718613e-09
-1.2397691e-10
8.3514815e-09
-1.396934e-10
8.4223387e-09
-1.1789927e-10
8.4970146e-09
-1.2726862e-10
8.5672579e-09
-1.1949294e-10
8.6405906e-09
-1.2353881e-10
8.7073153e-09
-1.1356036e-10
8.7770676e-09
-1.1450716e-10
8.8442471e-09
-1.1516592e-10
8.9099564e-09
-1.0742837e-10
8.9777321e-09
-1.1364175e-10
9.0379085e-09
-9.9357821e-11
9.1041748e-09
-1.0759472e-10
9.1671815e-09
-1.0600219e-10
9.2209666e-09
-8.6123476e-11
9.2840199e-09
-1.0144896e-10
9.3445674e-09
-1.015378e-10
9.3968246e-09
-8.4398373e-11
9.4520354e-09
-8.7734285e-11
9.5009213e-09
-7.7479863e-11
9.5569779e-09
-9.1003821e-11
9.6081866e-09
-8.1152332e-11
9.6530721e-09
-6.8438024e-11
9.705181e-09
-8.2509705e-11
9.7516117e-09
-7.3079737e-11
9.7902863e-09
-5.6009442e-11
9.8357996e-09
-7.0432833e-11
9.8787664e-09
-6.5382911e-11
9.91471e-09
-5.0703407e-11
9.958292e-09
-6.6435534e-11
9.9971275e-09
-5.7819767e-11
-5.3435416e-11
5.5896867e-09
-3.1114997e-10
5.7243344e-09
-3.1607039e-10
5.8580734e-09
-3.107889e-10
5.9922047e-09
-3.1183035e-10
6.1277402e-09
-3.1518508e-10
6.2613331e-09
-3.0893974e-10
6.3978531e-09
-3.179489e-10
6.5314511e-09
-3.0654621e-10
6.6684034e-09
-3.188033e-10
6.8022546e-09
-3.04884e-10
6.9395845e-09
-3.1938411e-10
7.0735011e-09
-3.0338824e-10
7.2103276e-09
-3.1720408e-10
7.3448939e-09
-3.0380645e-10
7.4800346e-09
-3.1180776e-10
7.6149878e-09
-3.0484079e-10
7.7484917e-09
-3.0581625e-10
7.8832243e-09
-3.0514902e-10
8.018073e-09
-3.0622891e-10
8.1500907e-09
-2.9929647e-10
8.2873227e-09
-3.0873764e-10
8.415096e-09
-2.8754954e-10
8.5545382e-09
-3.1387295e-10
8.6789763e-09
-2.7660721e-10
8.8183282e-09
-3.1490264e-10
8.9416019e-09
-2.7207771e-10
9.0792567e-09
-3.0919518e-10
9.2020809e-09
-2.7385804e-10
9.3358277e-09
-2.9340236e-10
9.4608262e-09
-2.8277304e-10
9.5896153e-09
-2.7652239e-10
9.7173487e-09
-2.9041661e-10
9.841191e-09
-2.6347727e-10
9.9700021e-09
-2.9065523e-10
1.0090017e-08
-2.5434417e-10
1.0219102e-08
-2.8773122e-10
1.033603e-08
-2.4948069e-10
1.0462954e-08
-2.7783208e-10
1.0578169e-08
-2.4857952e-10
1.0701633e-08
-2.6365972e-10
1.0815668e-08
-2.5145648e-10
1.0935582e-08
-2.4977428e-10
1.1049133e-08
-2.5014471e-10
1.1166863e-08
-2.4170705e-10
1.1281097e-08
-2.5392759e-10
1.1392451e-08
-2.2925313e-10
1.1506467e-08
-2.412847e-10
1.1614811e-08
-2.2783738e-10
1.1728849e-08
-2.3757692e-10
1.1830705e-08
-2.154158e-10
1.1942176e-08
-2.2597873e-10
1.2044155e-08
-2.1714414e-10
1.2151142e-08
-2.1441604e-10
1.2255719e-08
-2.1821839e-10
1.2353713e-08
-1.9735226e-10
1.2460295e-08
-2.1417584e-10
1.2558095e-08
-2.0380232e-10
1.2648345e-08
-1.7637348e-10
1.2751847e-08
-2.0495129e-10
1.2845675e-08
-1.9536587e-10
1.2931358e-08
-1.7008141e-10
1.3024051e-08
-1.8042715e-10
1.3106148e-08
-1.5957718e-10
1.3197598e-08
-1.8245353e-10
1.3283499e-08
-1.6705337e-10
1.3365179e-08
-1.5011788e-10
1.3454028e-08
-1.7135903e-10
1.3533889e-08
-1.5294064e-10
1.3608403e-08
-1.3052313e-10
1.3687079e-08
-1.4910866e-10
1.3762425e-08
-1.4072904e-10
1.3832369e-08
-1.2064729e-10
1.3908155e-08
-1.4222147e-10
1.3980073e-08
-1.2973831e-10
-1.2332268e-10
6.5726273e-09
-4.7800595e-10
6.7403728e-09
-4.8381588e-10
6.9089304e-09
-4.7934651e-10
7.0776449e-09
-4.8054491e-10
7.2480264e-09
-4.8556651e-10
7.4171933e-09
-4.7810665e-10
7.5887137e-09
-4.8946931e-10
7.7593341e-09
-4.7716662e-10
7.9316177e-09
-4.9108687e-10
8.1038692e-09
-4.7713549e-10
8.2768326e-09
-4.9234757e-10
8.4504141e-09
-4.7696972e-10
8.6230716e-09
-4.8986152e-10
8.7983327e-09
-4.7906758e-10
8.9696624e-09
-4.8313745e-10
9.1450789e-09
-4.8025729e-10
9.315731e-09
-4.7646836e-10
9.4899579e-09
-4.7937594e-10
9.6638128e-09
-4.8008377e-10
9.8346577e-09
-4.7014142e-10
1.0012991e-08
-4.8707065e-10
1.0179976e-08
-4.5453497e-10
1.0360551e-08
-4.9444749e-10
1.0525813e-08
-4.4186998e-10
1.0706117e-08
-4.9520644e-10
1.0870147e-08
-4.3610785e-10
1.1049721e-08
-4.8876925e-10
1.1211241e-08
-4.3537803e-10
1.1389896e-08
-4.7205685e-10
1.1551858e-08
-4.447355e-10
1.1727549e-08
-4.5221319e-10
1.1891875e-08
-4.5474254e-10
1.2062696e-08
-4.3429796e-10
1.2229321e-08
-4.5728001e-10
1.2395816e-08
-4.208394e-10
1.2564293e-08
-4.5620798e-10
1.2725485e-08
-4.1067348e-10
1.2894063e-08
-4.4640974e-10
1.3052427e-08
-4.0694378e-10
1.3218795e-08
-4.3002782e-10
1.3373688e-08
-4.0634908e-10
1.353875e-08
-4.1483608e-10
1.3691909e-08
-4.0330424e-10
1.3858529e-08
-4.0832689e-10
1.40102e-08
-4.0559867e-10
1.4169805e-08
-3.8885803e-10
1.4325993e-08
-3.9747277e-10
1.4476228e-08
-3.7807168e-10
1.4633344e-08
-3.9469337e-10
1.4777663e-08
-3.5973452e-10
1.4936974e-08
-3.852896e-10
1.5078458e-08
-3.5862891e-10
1.5231899e-08
-3.6785686e-10
1.5376314e-08
-3.6263362e-10
1.5521479e-08
-3.425164e-10
1.5671144e-08
-3.6384088e-10
1.5808102e-08
-3.407607e-10
1.5943595e-08
-3.1186608e-10
1.6093002e-08
-3.5435903e-10
1.6224522e-08
-3.2688527e-10
1.6351633e-08
-2.9719236e-10
1.6488281e-08
-3.170755e-10
1.6612395e-08
-2.836911e-10
1.6745866e-08
-3.1592413e-10
1.6873756e-08
-2.949437e-10
1.700238e-08
-2.7874232e-10
1.7134756e-08
-3.0373441e-10
1.7254558e-08
-2.727427e-10
1.7378172e-08
-2.5413764e-10
1.749877e-08
-2.6970679e-10
1.7616035e-08
-2.5799416e-10
1.7730892e-08
-2.3550342e-10
1.7844712e-08
-2.5604169e-10
1.7956933e-08
-2.4195988e-10
-2.3477127e-10
7.3482067e-09
-6.7636609e-10
7.5467687e-09
-6.8237789e-10
7.7486533e-09
-6.8123104e-10
7.9498952e-09
-6.8178683e-10
8.1535353e-09
-6.8920666e-10
8.3569395e-09
-6.8151083e-10
8.5617828e-09
-6.9431257e-10
8.7686892e-09
-6.8407301e-10
8.9747875e-09
-6.9718523e-10
9.1849842e-09
-6.8733214e-10
9.3922731e-09
-6.9963649e-10
9.6052387e-09
-6.899353e-10
9.812668e-09
-6.9729081e-10
1.0028391e-08
-6.9479101e-10
1.0235292e-08
-6.900376e-10
1.0451233e-08
-6.9619854e-10
1.0658911e-08
-6.8414616e-10
1.0873083e-08
-6.9354862e-10
1.1085441e-08
-6.9244171e-10
1.1295529e-08
-6.8022906e-10
1.1513697e-08
-7.0523882e-10
1.1721315e-08
-6.6215334e-10
1.194157e-08
-7.1470179e-10
1.2149459e-08
-6.4975918e-10
1.2369979e-08
-7.1572647e-10
1.2577262e-08
-6.4339056e-10
1.2798269e-08
-7.0977632e-10
1.3001423e-08
-6.3853214e-10
1.3224883e-08
-6.9551678e-10
1.3425884e-08
-6.4573642e-10
1.3650025e-08
-6.763548e-10
1.3851569e-08
-6.5628626e-10
1.4071996e-08
-6.5472483e-10
1.4276957e-08
-6.6224131e-10
1.4493464e-08
-6.3734655e-10
1.4701983e-08
-6.6472705e-10
1.4911824e-08
-6.2051384e-10
1.512348e-08
-6.5806649e-10
1.5330107e-08
-6.135701e-10
1.5538915e-08
-6.3883611e-10
1.5740473e-08
-6.0790686e-10
1.595026e-08
-6.2462344e-10
1.6148746e-08
-6.0179013e-10
1.6366076e-08
-6.256568e-10
1.6557874e-08
-5.973965e-10
1.6771161e-08
-6.0214532e-10
1.6972056e-08
-5.9836743e-10
1.7174234e-08
-5.8025008e-10
1.7376672e-08
-5.9713098e-10
1.757015e-08
-5.5321254e-10
1.7773957e-08
-5.8909696e-10
1.7961425e-08
-5.4609693e-10
1.8166006e-08
-5.7243753e-10
1.8352636e-08
-5.4926406e-10
1.8552549e-08
-5.4242937e-10
1.8746165e-08
-5.5745643e-10
1.8926399e-08
-5.2099486e-10
1.9118092e-08
-5.0355933e-10
1.9316331e-08
-5.525979e-10
1.9490794e-08
-5.0134849e-10
1.9670595e-08
-4.7699301e-10
1.9856179e-08
-5.0265942e-10
2.0029619e-08
-4.5713066e-10
2.0211742e-08
-4.9804739e-10
2.0387951e-08
-4.7115299e-10
2.0573326e-08
-4.6411699e-10
2.075572e-08
-4.8612858e-10
2.0923257e-08
-4.4027967e-10
2.1102591e-08
-4.334722e-10
2.1267535e-08
-4.3465077e-10
2.1431681e-08
-4.2213958e-10
2.1601718e-08
-4.0554063e-10
2.1762906e-08
-4.1722922e-10
2.1924017e-08
-4.0307176e-10
-3.9641258e-10
7.9459869e-09
-9.041165e-10
8.1730734e-09
-9.0946434e-10
8.4072009e-09
-9.1535851e-10
8.6385107e-09
-9.1309667e-10
8.8748205e-09
-9.2551648e-10
9.1108459e-09
-9.1753625e-10
9.3480992e-09
-9.3156587e-10
9.5903614e-09
-9.2633515e-10
9.8287512e-09
-9.35575e-10
1.0076018e-08
-9.3459899e-10
1.0316155e-08
-9.3977327e-10
1.0567137e-08
-9.4091786e-10
1.0808704e-08
-9.3885772e-10
1.1063192e-08
-9.4927856e-10
1.1305904e-08
-9.3274934e-10
1.1561202e-08
-9.5149699e-10
1.1806301e-08
-9.2924505e-10
1.2060239e-08
-9.4748686e-10
1.2310487e-08
-9.4268923e-10
1.2560659e-08
-9.3040128e-10
1.2816515e-08
-9.6109455e-10
1.3066185e-08
-9.1182392e-10
1.332322e-08
-9.7173625e-10
1.3576147e-08
-9.0268673e-10
1.3834761e-08
-9.7433983e-10
1.4087718e-08
-8.9634752e-10
1.4349108e-08
-9.7116636e-10
1.4597117e-08
-8.8654162e-10
1.4864727e-08
-9.6312629e-10
1.510698e-08
-8.879899e-10
1.5380155e-08
-9.4952965e-10
1.5620078e-08
-8.9620936e-10
1.58913e-08
-9.2594642e-10
1.6136003e-08
-9.0694437e-10
1.6404138e-08
-9.0548158e-10
1.6653846e-08
-9.1443487e-10
1.6914952e-08
-8.8162075e-10
1.7171201e-08
-9.14315e-10
1.7430135e-08
-8.7250442e-10
1.7682511e-08
-8.9121204e-10
1.7938454e-08
-8.6384989e-10
1.8192636e-08
-8.78805e-10
1.8444189e-08
-8.5334317e-10
1.8709752e-08
-8.9121995e-10
1.8947139e-08
-8.3478367e-10
1.9214012e-08
-8.6901814e-10
1.946033e-08
-8.4468554e-10
1.9718187e-08
-8.3810677e-10
1.9966127e-08
-8.4507106e-10
2.0219909e-08
-8.0699465e-10
2.0469909e-08
-8.3909694e-10
2.0711289e-08
-7.8747728e-10
2.0964204e-08
-8.2535183e-10
2.1196694e-08
-7.8175487e-10
2.1458661e-08
-8.0439585e-10
2.1695337e-08
-7.9413222e-10
2.1929058e-08
-7.5471583e-10
2.2186201e-08
-7.6070263e-10
2.2433701e-08
-8.0009775e-10
2.2657647e-08
-7.2529487e-10
2.2900913e-08
-7.2025843e-10
2.3138789e-08
-7.4053542e-10
2.3367567e-08
-6.8590877e-10
2.3601405e-08
-7.3188537e-10
2.3827952e-08
-6.9770021e-10
2.4072824e-08
-7.0898904e-10
2.4305978e-08
-7.1928306e-10
2.453078e-08
-6.650812e-10
2.4771958e-08
-6.7464992e-10
2.4991977e-08
-6.5467005e-10
2.5214294e-08
-6.44457e-10
2.5440857e-08
-6.3210369e-10
2.5649915e-08
-6.2628638e-10
2.5870489e-08
-6.2364597e-10
-6.1628038e-10
8.3919875e-09
-1.1593971e-09
8.6459682e-09
-1.163445e-09
8.9111955e-09
-1.1805858e-09
9.1703713e-09
-1.1722725e-09
9.4394121e-09
-1.1945573e-09
9.7054133e-09
-1.1835374e-09
9.9754387e-09
-1.2015913e-09
1.0250289e-08
-1.2011854e-09
1.0520411e-08
-1.2056969e-09
1.0802445e-08
-1.2166331e-09
1.107414e-08
-1.2114679e-09
1.1360957e-08
-1.2277349e-09
1.1636024e-08
-1.2139253e-09
1.1926521e-08
-1.2397749e-09
1.2205412e-08
-1.2116407e-09
1.2497361e-08
-1.2434456e-09
1.2780441e-08
-1.2123252e-09
1.307293e-08
-1.2399767e-09
1.3360335e-08
-1.2300938e-09
1.3652051e-08
-1.2221167e-09
1.3943064e-08
-1.252108e-09
1.4237801e-08
-1.2065612e-09
1.4528662e-08
-1.2625965e-09
1.482957e-08
-1.203595e-09
1.5124414e-08
-1.2691843e-09
1.5425188e-08
-1.1971211e-09
1.572535e-08
-1.2713288e-09
1.6020797e-08
-1.1819887e-09
1.6331581e-08
-1.2739102e-09
1.6617929e-08
-1.1743377e-09
1.6939566e-08
-1.2711666e-09
1.7220477e-08
-1.1771202e-09
1.7542584e-08
-1.2480539e-09
1.7829558e-08
-1.1939179e-09
1.8149556e-08
-1.2254795e-09
1.8442927e-08
-1.2078064e-09
1.8756193e-08
-1.1948868e-09
1.906004e-08
-1.2181615e-09
1.9371461e-08
-1.1839254e-09
1.9669849e-08
-1.1896004e-09
1.9982776e-08
-1.1767772e-09
2.028146e-08
-1.1774882e-09
2.0593233e-08
-1.1651162e-09
2.0902306e-08
-1.2002938e-09
2.1196596e-08
-1.1290738e-09
2.151509e-08
-1.187512e-09
2.1811457e-08
-1.1410521e-09
2.2123712e-08
-1.1503624e-09
2.2418756e-08
-1.1401147e-09
2.2734248e-08
-1.1224865e-09
2.3028234e-08
-1.1330831e-09
2.3334658e-08
-1.0939016e-09
2.3638582e-08
-1.129275e-09
2.3928959e-08
-1.0721319e-09
2.4252673e-08
-1.1281102e-09
2.4528849e-08
-1.0703088e-09
2.4826855e-08
-1.0527218e-09
2.5147555e-08
-1.0814025e-09
2.5442606e-08
-1.0951482e-09
2.5726273e-08
-1.008962e-09
2.6035783e-08
-1.029768e-09
2.6324683e-08
-1.0294359e-09
2.6614119e-08
-9.7534506e-10
2.6902397e-08
-1.0201627e-09
2.7193369e-08
-9.8867224e-10
2.7495074e-08
-1.0106947e-09
2.7776336e-08
-1.000545e-09
2.8064318e-08
-9.5306304e-10
2.8361395e-08
-9.7172731e-10
2.8636088e-08
-9.2936287e-10
2.8926481e-08
-9.3484978e-10
2.9217646e-08
-9.2326868e-10
2.9486443e-08
-8.9508374e-10
2.9763771e-08
-9.0097401e-10
-8.9770958e-10
8.7091636e-09
-1.4408526e-09
8.9895717e-09
-1.4438531e-09
9.2833046e-09
-1.4743187e-09
9.5696345e-09
-1.4586025e-09
9.8694157e-09
-1.4943385e-09
1.0162614e-08
-1.476736e-09
1.046566e-08
-1.504637e-09
1.0767844e-08
-1.5033696e-09
1.1071891e-08
-1.509744e-09
1.1383045e-08
-1.5277867e-09
1.1688295e-08
-1.5167178e-09
1.2006676e-08
-1.5461166e-09
1.2315979e-08
-1.5232281e-09
1.2639419e-08
-1.5632141e-09
1.2954424e-08
-1.5266465e-09
1.3280882e-08
-1.5699029e-09
1.36017e-08
-1.5331434e-09
1.3932072e-08
-1.5703492e-09
1.4255835e-08
-1.5538568e-09
1.4591421e-08
-1.5577019e-09
1.4915465e-08
-1.5761526e-09
1.525893e-08
-1.5500264e-09
1.5581461e-08
-1.5851268e-09
1.5933482e-08
-1.5556167e-09
1.626241e-08
-1.5981124e-09
1.6613272e-08
-1.5479829e-09
1.6950326e-08
-1.608383e-09
1.729628e-08
-1.5279424e-09
1.764687e-08
-1.6245e-09
1.798203e-08
-1.5094977e-09
1.834885e-08
-1.6379862e-09
1.8674457e-08
-1.5027281e-09
1.9047152e-08
-1.6207487e-09
1.9377876e-08
-1.5246418e-09
1.9749894e-08
-1.5974973e-09
2.0088699e-08
-1.5466116e-09
2.0453976e-08
-1.5601635e-09
2.0807341e-08
-1.5715266e-09
2.1168218e-08
-1.544802e-09
2.1516486e-08
-1.5378689e-09
2.1883849e-08
-1.5441402e-09
2.2228419e-08
-1.5220579e-09
2.2601704e-08
-1.5384015e-09
2.2948409e-08
-1.5469985e-09
2.3309573e-08
-1.4902382e-09
2.3671551e-08
-1.5494899e-09
2.4024672e-08
-1.4941728e-09
2.4389296e-08
-1.5149869e-09
2.4740798e-08
-1.4916162e-09
2.5112824e-08
-1.4945125e-09
2.5451398e-08
-1.4716574e-09
2.5822266e-08
-1.464769e-09
2.6167513e-08
-1.4745223e-09
2.6532203e-08
-1.4368226e-09
2.6906348e-08
-1.5022549e-09
2.7222472e-08
-1.3864322e-09
2.7599334e-08
-1.4295843e-09
2.7969409e-08
-1.4514777e-09
2.8297698e-08
-1.4234373e-09
2.8658714e-08
-1.3699773e-09
2.9027506e-08
-1.3985601e-09
2.9361145e-08
-1.3630748e-09
2.9716049e-08
-1.3302499e-09
3.004853e-08
-1.3526434e-09
3.0411783e-08
-1.3519255e-09
3.0767038e-08
-1.3659496e-09
3.1094569e-08
-1.3280753e-09
3.1455241e-08
-1.3137355e-09
3.1803952e-08
-1.3204386e-09
3.2132439e-08
-1.2578492e-09
3.2486745e-08
-1.2891563e-09
3.2828261e-08
-1.2647845e-09
3.3155824e-08
-1.2226464e-09
3.3497275e-08
-1.2424255e-09
-1.2362237e-09
8.9170932e-09
-1.7471657e-09
9.2233057e-09
-1.7500656e-09
9.5416842e-09
-1.7926972e-09
9.8554658e-09
-1.772384e-09
1.0181167e-08
-1.8200397e-09
1.0501336e-08
-1.7969053e-09
1.0834853e-08
-1.8381538e-09
1.1161234e-08
-1.8297505e-09
1.1501454e-08
-1.8499641e-09
1.1835096e-08
-1.8614287e-09
1.2179491e-08
-1.8611124e-09
1.2522177e-08
-1.8888027e-09
1.28707e-08
-1.8717517e-09
1.3222445e-08
-1.9149587e-09
1.3575502e-08
-1.8797034e-09
1.3935221e-08
-1.9296217e-09
1.4293441e-08
-1.8913638e-09
1.4661656e-08
-1.9385641e-09
1.5021162e-08
-1.9133631e-09
1.5401012e-08
-1.9375519e-09
1.5757147e-08
-1.9322877e-09
1.6149829e-08
-1.9427079e-09
1.6502826e-08
-1.9381241e-09
1.6907766e-08
-1.9605572e-09
1.7267838e-08
-1.9581843e-09
1.7671111e-08
-1.9512553e-09
1.8041011e-08
-1.9782828e-09
1.8441738e-08
-1.9286694e-09
1.8825354e-08
-2.0081162e-09
1.9216789e-08
-1.9009331e-09
1.9619614e-08
-2.040811e-09
1.9996288e-08
-1.8794024e-09
2.0415973e-08
-2.0404334e-09
2.0789993e-08
-1.898662e-09
2.1213167e-08
-2.0206715e-09
2.1595887e-08
-1.9293317e-09
2.201389e-08
-1.9781658e-09
2.2412835e-08
-1.970472e-09
2.2820841e-08
-1.9528078e-09
2.3219163e-08
-1.9361913e-09
2.3635364e-08
-1.9603406e-09
2.4027012e-08
-1.9137056e-09
2.4457658e-08
-1.9690482e-09
2.4835017e-08
-1.9243569e-09
2.5267187e-08
-1.9224084e-09
2.5661771e-08
-1.9440744e-09
2.6071655e-08
-1.9040565e-09
2.6476865e-08
-1.9201963e-09
2.6890167e-08
-1.9049183e-09
2.7304896e-08
-1.9092419e-09
2.7694689e-08
-1.8614506e-09
2.812037e-08
-1.8904493e-09
2.8492696e-08
-1.8468486e-09
2.8939477e-08
-1.8836034e-09
2.9334306e-08
-1.8970841e-09
2.9684336e-08
-1.7364622e-09
3.0156223e-08
-1.9014719e-09
3.0551562e-08
-1.8468168e-09
3.0900861e-08
-1.7727358e-09
3.1347567e-08
-1.8166835e-09
3.1756959e-08
-1.8079521e-09
3.2125481e-08
-1.7315967e-09
3.2545984e-08
-1.7507531e-09
3.2904574e-08
-1.7112333e-09
3.3341543e-08
-1.7888943e-09
3.3733482e-08
-1.7578887e-09
3.4109075e-08
-1.7036681e-09
3.4545312e-08
-1.7499725e-09
3.4930084e-08
-1.7052103e-09
3.5306995e-08
-1.634761e-09
3.5719924e-08
-1.7020856e-09
3.6100463e-08
-1.6453234e-09
3.6473777e-08
-1.5959599e-09
3.6867949e-08
-1.6365975e-09
-1.6206532e-09
9.0316825e-09
-2.07594e-09
9.3622971e-09
-2.0806802e-09
9.7023822e-09
-2.1327823e-09
1.0043335e-08
-2.113337e-09
1.0390791e-08
-2.1674951e-09
1.0740221e-08
-2.1463354e-09
1.1098483e-08
-2.196416e-09
1.1452845e-08
-2.1841125e-09
1.1824289e-08
-2.2214086e-09
1.2182036e-08
-2.2191751e-09
1.2564972e-08
-2.2440483e-09
1.2928985e-08
-2.2528163e-09
1.3320769e-08
-2.2635357e-09
1.3694627e-08
-2.288816e-09
1.4091254e-08
-2.2763308e-09
1.4477543e-08
-2.3159105e-09
1.4877857e-08
-2.2916778e-09
1.527674e-08
-2.3374469e-09
1.5676817e-08
-2.3134401e-09
1.6092833e-08
-2.3535681e-09
1.6487037e-08
-2.3264916e-09
1.691962e-08
-2.375291e-09
1.7308611e-08
-2.3271152e-09
1.7761601e-08
-2.4135475e-09
1.8152708e-08
-2.3492912e-09
1.860816e-08
-2.4067072e-09
1.90069e-08
-2.3770232e-09
1.9465214e-08
-2.3869829e-09
1.9872038e-08
-2.41494e-09
2.0330419e-08
-2.3593141e-09
2.0749196e-08
-2.4595887e-09
2.119175e-08
-2.3219564e-09
2.1640795e-08
-2.4894784e-09
2.2063131e-08
-2.3209974e-09
2.2527626e-08
-2.4851666e-09
2.2949775e-08
-2.3514804e-09
2.3419197e-08
-2.4475878e-09
2.3850283e-08
-2.4015586e-09
2.4301781e-08
-2.4043057e-09
2.4745029e-08
-2.3794397e-09
2.5195896e-08
-2.4112073e-09
2.5633927e-08
-2.3517361e-09
2.6108107e-08
-2.443229e-09
2.6503119e-08
-2.3193687e-09
2.7002827e-08
-2.4221164e-09
2.741037e-08
-2.3516176e-09
2.7868566e-08
-2.3622521e-09
2.8297413e-08
-2.3490432e-09
2.8769804e-08
-2.3773088e-09
2.9198709e-08
-2.3381474e-09
2.9645157e-08
-2.3078984e-09
3.0099673e-08
-2.3449657e-09
3.0494953e-08
-2.2421281e-09
3.1021257e-08
-2.4099076e-09
3.1407164e-08
-2.2829907e-09
3.1777993e-08
-2.107291e-09
3.2339333e-08
-2.4628128e-09
3.27171e-08
-2.2245834e-09
3.3061229e-08
-2.1168647e-09
3.3631821e-08
-2.3872759e-09
3.4058992e-08
-2.2351227e-09
3.4448716e-08
-2.1213202e-09
3.4941873e-08
-2.2439107e-09
3.5278037e-08
-2.0473976e-09
3.582777e-08
-2.3386272e-09
3.6206969e-08
-2.1370872e-09
3.6588882e-08
-2.0855817e-09
3.7100434e-08
-2.2615238e-09
3.7453915e-08
-2.0586913e-09
3.7809488e-08
-1.9903339e-09
3.8289934e-08
-2.1825318e-09
3.8618375e-08
-1.9737649e-09
3.8886303e-08
-1.8638878e-09
3.9221146e-08
-1.9714403e-09
-1.9243697e-09
9.0684727e-09
-2.4255746e-09
9.4214703e-09
-2.4336778e-09
9.7824481e-09
-2.4937601e-09
1.0148686e-08
-2.4795749e-09
1.0516604e-08
-2.5354136e-09
1.0895808e-08
-2.5255388e-09
1.1273722e-08
-2.5743305e-09
1.1661495e-08
-2.5718851e-09
1.205353e-08
-2.6134439e-09
1.2445612e-08
-2.6112569e-09
1.2853597e-08
-2.6520337e-09
1.3249061e-08
-2.6482804e-09
1.3673857e-08
-2.6883311e-09
1.4073645e-08
-2.6886039e-09
1.4511201e-08
-2.7138872e-09
1.4919465e-08
-2.7241744e-09
1.536701e-08
-2.7392229e-09
1.5784949e-08
-2.7553859e-09
1.6236334e-08
-2.7648246e-09
1.6673086e-08
-2.790321e-09
1.7120247e-08
-2.7736525e-09
1.7572222e-08
-2.8272661e-09
1.8015443e-08
-2.7703358e-09
1.8495522e-08
-2.8936264e-09
1.8930875e-08
-2.7846441e-09
1.9421695e-08
-2.8975272e-09
1.985648e-08
-2.8118085e-09
2.0358113e-08
-2.888616e-09
2.0787461e-08
-2.8442884e-09
2.1307306e-08
-2.8791587e-09
2.1725988e-08
-2.8782708e-09
2.2239537e-08
-2.8355053e-09
2.2689594e-08
-2.9395349e-09
2.3167424e-08
-2.7988281e-09
2.3643794e-08
-2.9615362e-09
2.410182e-08
-2.8095066e-09
2.4605099e-08
-2.9508664e-09
2.5051931e-08
-2.8483909e-09
2.5529722e-08
-2.8820964e-09
2.6015274e-08
-2.8649921e-09
2.6468622e-08
-2.8645546e-09
2.6960695e-08
-2.8438098e-09
2.7440427e-08
-2.922961e-09
2.7844961e-08
-2.7239027e-09
2.83974e-08
-2.9745555e-09
2.8760483e-08
-2.7146999e-09
2.9291767e-08
-2.8935367e-09
2.972217e-08
-2.7794459e-09
3.0283794e-08
-2.9389332e-09
3.0688868e-08
-2.7432211e-09
3.1182078e-08
-2.8011086e-09
3.1640864e-08
-2.8037519e-09
3.1912628e-08
-2.5138917e-09
3.2573817e-08
-3.0710965e-09
3.2832364e-08
-2.5415374e-09
3.2616846e-08
-1.8917734e-09
3.3328822e-08
-3.1747892e-09
3.3240913e-08
-2.1366744e-09
3.2560187e-08
-1.4361383e-09
3.3356411e-08
-3.1835002e-09
3.3827596e-08
-2.7063075e-09
3.3740296e-08
-2.0340203e-09
3.3926034e-08
-2.4296487e-09
3.3642065e-08
-1.7634287e-09
3.4395943e-08
-3.0925052e-09
3.4438216e-08
-2.1793604e-09
3.4251951e-08
-1.8993159e-09
3.4592355e-08
-2.6019284e-09
3.4525384e-08
-1.9917197e-09
3.4173059e-08
-1.6380088e-09
3.4415853e-08
-2.425326e-09
3.4482678e-08
-2.04059e-09
3.4090361e-08
-1.4715709e-09
3.3987004e-08
-1.8680834e-09
-1.809181e-09
9.0429888e-09
-2.7972131e-09
9.4134812e-09
-2.8041703e-09
9.7971205e-09
-2.8773993e-09
1.0182842e-08
-2.8652966e-09
1.0573824e-08
-2.9263957e-09
1.0976765e-08
-2.9284799e-09
1.1376064e-08
-2.9736295e-09
1.1793507e-08
-2.989328e-09
1.2203976e-08
-3.023912e-09
1.2632654e-08
-3.0399358e-09
1.3056225e-08
-3.0756047e-09
1.3493921e-08
-3.0859758e-09
1.393497e-08
-3.1293802e-09
1.4377391e-08
-3.1310251e-09
1.4836817e-08
-3.1733133e-09
1.5283518e-08
-3.1708751e-09
1.5763104e-08
-3.2188086e-09
1.6210328e-08
-3.2026099e-09
1.6704178e-08
-3.2586751e-09
1.7163709e-08
-3.2498521e-09
1.7661096e-08
-3.2710392e-09
1.8122262e-08
-3.288432e-09
1.8625246e-08
-3.2733192e-09
1.910695e-08
-3.3753307e-09
1.9598708e-08
-3.2764024e-09
2.0088061e-08
-3.3868796e-09
2.0574946e-08
-3.2986943e-09
2.1075452e-08
-3.389122e-09
2.1543251e-08
-3.3120873e-09
2.2079026e-08
-3.4149332e-09
2.2506637e-08
-3.3058816e-09
2.3052147e-08
-3.3810159e-09
2.3504361e-08
-3.3917485e-09
2.4010079e-08
-3.3045465e-09
2.4481707e-08
-3.4331644e-09
2.4950529e-08
-3.2783285e-09
2.5453767e-08
-3.454104e-09
2.5905442e-08
-3.3000662e-09
2.642203e-08
-3.3986839e-09
2.6943049e-08
-3.3860113e-09
2.7329289e-08
-3.2507953e-09
2.7885426e-08
-3.3999466e-09
2.8222628e-08
-3.2601629e-09
2.8404025e-08
-2.9052995e-09
2.8509578e-08
-3.0801091e-09
2.8412436e-08
-2.6175575e-09
2.865871e-08
-3.1398102e-09
2.8846669e-08
-2.9674058e-09
2.9378016e-08
-3.4702797e-09
2.9181356e-08
-2.5465608e-09
2.9177195e-08
-2.7969476e-09
2.9283308e-08
-2.9098649e-09
2.8552441e-08
-1.7830253e-09
2.8753579e-08
-3.2722336e-09
2.8400605e-08
-2.1885642e-09
2.6858141e-08
-3.4930953e-10
2.6418399e-08
-2.7350468e-09
2.5447985e-08
-1.1662601e-09
2.4543767e-08
-5.3192062e-10
2.3802056e-08
-2.4417887e-09
2.2731612e-08
-1.635864e-09
2.2015822e-08
-1.3182305e-09
1.9819016e-08
-2.3284229e-10
1.8584744e-08
-5.2915727e-10
1.7735465e-08
-2.2432259e-09
1.6311033e-08
-7.5492868e-10
1.6863869e-08
-2.4521519e-09
1.5267913e-08
-1.0059717e-09
1.3986533e-08
-7.1034e-10
1.326032e-08
-9.1179625e-10
1.2962317e-08
-2.1273225e-09
1.2289742e-08
-1.3680147e-09
1.0321424e-08
4.9674661e-10
1.2635778e-08
-4.1824373e-09
-4.3696257e-09
8.962606e-09
-3.1883136e-09
9.3475933e-09
-3.1891576e-09
9.7539573e-09
-3.2837633e-09
1.015415e-08
-3.2654888e-09
1.0571666e-08
-3.3439121e-09
1.0990308e-08
-3.347122e-09
1.1418431e-08
-3.4017523e-09
1.1854606e-08
-3.4255027e-09
1.2294188e-08
-3.4634943e-09
1.2747029e-08
-3.4927772e-09
1.3197447e-08
-3.5260225e-09
1.3668081e-08
-3.5566092e-09
1.4130191e-08
-3.5914907e-09
1.461532e-08
-3.6161542e-09
1.5088541e-08
-3.6465343e-09
1.5584936e-08
-3.6672704e-09
1.6074186e-08
-3.7080579e-09
1.656951e-08
-3.6979338e-09
1.7071857e-08
-3.7610226e-09
1.7573019e-08
-3.7510137e-09
1.8081597e-08
-3.7796172e-09
1.856424e-08
-3.7710755e-09
1.9087034e-08
-3.796113e-09
1.9571828e-08
-3.8601247e-09
2.0086888e-08
-3.791462e-09
2.05598e-08
-3.8597918e-09
2.1083497e-08
-3.8223914e-09
2.1560536e-08
-3.8661614e-09
2.2045019e-08
-3.7965702e-09
2.2573645e-08
-3.9435596e-09
2.2996604e-08
-3.7288405e-09
2.3555639e-08
-3.9400504e-09
2.4018204e-08
-3.8543138e-09
2.4404506e-08
-3.6908482e-09
2.4885115e-08
-3.9137736e-09
2.4544943e-08
-2.9381567e-09
2.4951218e-08
-3.860379e-09
2.5107123e-08
-3.4559709e-09
2.5148457e-08
-3.440018e-09
2.5389079e-08
-3.6266332e-09
2.4875572e-08
-2.7372882e-09
2.4842737e-08
-3.3671118e-09
2.4445853e-08