/*--------------------------------*- C++ -*----------------------------------*\
| =========                 |                                                 |
| \\      /  F ield         | OpenFOAM: The Open Source CFD Toolbox           |
|  \\    /   O peration     | Version:  2.3.0                                 |
|   \\  /    A nd           | Web:      www.OpenFOAM.org                      |
|    \\/     M anipulation  |                                                 |
\*---------------------------------------------------------------------------*/
FoamFile
{
    version     2.0;
    format      ascii;
    class       volScalarField;
    location    "0.038";
    object      alpha.water;
}
// * * * * * * * * * * * * * * * * * * * * * * * * * * * * * * * * * * * * * //

dimensions      [0 0 0 0 0 0 0];

internalField   nonuniform List<scalar> 
725
(
1
1
1
1.00001
0.989604
1
1
1
1.00001
1
1
1
1
1.00003
1
1
1
1
1.00003
0.986296
1
1
1
1
0.760557
0.967842
0.922358
0.941448
0.954406
0.950262
0.94584
0.987225
0.999989
0.99397
0.975919
0.974684
0.99101
0.999706
0.999725
0.999724
0.99838
0.995777
0.99575
0.996256
0.996842
0.997262
0.99758
0.997916
0.998025
0.99814
0.998283
0.998526
0.998842
0.999065
0.99917
0.999215
0.999294
0.999423
0.999555
0.999667
0.999752
0.999823
0.999872
0.9999
0.999912
0.99999
1
0.472527
0.004172
0.00329415
0.886363
0.79123
0.842139
0.948113
0.939285
0.902874
0.981976
1
1
0.987398
0.958566
0.964815
0.994309
0.999863
0.999859
0.999805
0.999564
0.999301
0.99919
0.999237
0.999618
0.999877
0.997907
0.996716
0.996714
0.996771
0.996771
0.997579
0.999067
0.999055
0.99897
0.998955
0.998989
0.999132
0.99934
0.999536
0.999661
0.999791
0.99985
0.999858
0.999982
1
0.558862
0.0125074
0.00329485
0.206146
0.340699
0.74812
0.947545
0.920135
0.902805
0.995537
0.999993
1.00002
1
0.961299
0.953697
0.961126
0.994924
0.999975
0.999972
0.999891
0.999821
0.999767
0.999745
0.999726
0.999685
0.999607
0.99946
0.999519
0.999643
0.999741
0.999589
0.997835
0.99776
0.998059
0.999362
0.999358
0.999196
0.999374
0.999373
0.999647
0.999793
0.999856
0.999897
0.99999
1
0.667707
0.0206338
0.00345279
0.0671718
0.164019
0.724385
0.945852
0.903095
0.902928
0.998402
0.99995
1.00001
1
0.965016
0.953632
0.953642
0.973172
0.999549
0.999957
0.999983
0.999877
0.999875
0.999874
0.999872
0.999865
0.999852
0.999832
0.999827
0.999829
0.999942
1.00012
0.999305
0.997774
0.99778
0.999259
0.999729
0.999457
0.999068
0.999647
0.999732
0.999801
0.99986
0.999948
1.00001
1
0.854541
0.149467
0.00370179
0.0513852
0.150508
0.768719
0.906163
0.903023
0.904344
0.999908
0.999907
1.00005
1
0.972449
0.953698
0.957164
0.978185
0.998917
0.999955
0.999845
0.999853
0.999914
0.999901
0.999886
0.999869
0.999854
0.999843
0.999838
0.999836
0.999841
0.999847
0.999689
0.999424
0.999631
0.999085
0.998325
0.998053
0.998737
0.999651
0.999917
0.999884
0.999868
0.999927
1.00001
1
0.902809
0.177027
0.00939615
0.0405296
0.613649
0.618329
0.831086
0.904524
0.930157
0.998209
0.999702
1.00023
0.999932
0.994517
0.974886
0.9895
0.991041
0.998686
0.999585
0.999655
0.999721
0.999748
0.999818
0.999843
0.999843
0.999836
0.999828
0.999817
0.999794
0.999769
0.99976
0.999974
0.999674
0.999869
0.998747
0.996718
0.997216
0.99796
0.998284
0.999023
0.999594
0.999794
0.999911
0.999915
0.999967
0.943187
0.295005
0.018772
0.00437818
0.521758
0.818991
0.870435
0.938855
0.96447
0.998817
0.999844
1.00015
0.998781
0.997539
0.99433
0.992073
0.967484
0.997574
0.99941
0.999375
0.999552
0.999687
0.999772
0.999809
0.999816
0.999813
0.999808
0.999799
0.999777
0.999771
0.999767
0.99982
0.999745
0.999798
0.998601
0.995212
0.995209
0.996528
0.998711
0.99902
0.999506
0.99975
0.999898
0.999927
0.999935
0.958582
0.342518
0.0334865
0.00136167
0.253025
0.906954
0.956096
0.984441
0.999384
0.999832
0.999859
1.00028
0.995255
0.97454
0.963671
0.962068
0.960559
0.998367
0.998369
0.999012
0.999386
0.999619
0.999732
0.999775
0.999781
0.999785
0.999791
0.999787
0.999763
0.999797
0.999701
0.9997
0.999934
0.997688
0.995266
0.99497
0.995344
0.997286
0.997267
0.998431
0.999246
0.999672
0.999893
0.999912
0.999934
0.972701
0.391321
0.0426465
0.00816636
0.0927347
0.76711
0.995203
0.999766
0.999899
0.9999
0.999888
1.00007
0.999271
0.961889
0.96065
0.960594
0.960579
0.962551
0.996312
0.999537
0.999527
0.999611
0.999678
0.999704
0.999711
0.999723
0.999739
0.999745
0.999732
0.999708
0.999988
0.999674
0.998819
0.995
0.994969
0.994969
0.996112
0.996959
0.996448
0.997618
0.999408
0.999786
1.00002
0.999925
0.999968
0.99186
0.550256
0.0519424
0.00546822
0.0520271
0.597611
0.933983
0.999688
0.999791
0.999465
0.999875
0.999941
1
0.997485
0.960631
0.960602
0.960571
0.979621
0.998796
0.999223
0.999266
0.999467
0.999564
0.999605
0.999646
0.99968
0.999706
0.999726
0.999735
0.999749
0.999746
0.999593
0.998006
0.995044
0.994971
0.994969
0.996347
0.995395
0.99535
0.996902
0.999499
0.999825
0.999833
0.999978
0.999984
0.999241
0.691252
0.0622408
1
1
1
1
0.831452
1
1
1
1.00006
1
1
1
1
1.00001
1
1
1
1
1.00004
1.00001
1
1
1
1.00006
1.00001
0.00711545
0.033094
0.416744
0.775694
0.997464
0.996884
0.998922
0.999955
0.999944
1
1
0.972965
0.96063
0.972616
0.997521
0.998908
0.998655
0.998752
0.999358
0.999527
0.999632
0.999683
0.999707
0.999726
0.999748
0.999775
0.999802
0.999832
0.999823
0.999765
1
0.999311
0.999012
0.995882
0.995231
0.995231
0.995231
0.997307
0.99983
0.999607
0.999747
0.999902
0.999907
0.854218
0.0991461
0.192163
0.185116
0.183291
0.869373
0.934318
0.992155
0.999954
0.999955
0.999952
0.999994
1
0.979692
0.973729
0.992932
0.999108
0.998924
0.997624
0.99762
0.99762
0.999486
0.999915
0.999875
0.999833
0.999826
0.999826
0.99983
0.999834
0.999842
0.99986
0.999939
1.00003
1.00006
1
0.996575
0.995236
0.996121
0.998841
0.999772
0.999786
0.999579
0.999527
0.999662
0.999916
0.928618
0.20532
0.902974
0.548196
0.391004
0.713719
0.863399
0.984752
0.999879
0.999656
0.999687
0.99997
0.999159
0.991458
0.997671
0.998764
0.999125
0.998084
0.997624
0.99762
0.99906
0.99982
0.999816
0.999595
0.999552
0.999582
0.999612
0.999623
0.999617
0.999604
0.99961
0.999618
0.999607
0.999572
0.99958
0.999574
0.998359
0.996566
0.997167
0.999042
0.999795
0.999791
0.999702
0.999719
0.999916
0.999966
0.728369
0.989485
0.841591
0.53673
0.608977
0.867329
0.984082
0.999698
0.99921
0.999147
0.999592
0.999656
0.999745
0.999745
0.999653
0.999121
0.999117
0.99914
0.999291
0.999586
0.999228
0.998771
0.997563
0.997649
0.997651
0.997655
0.998741
0.999101
0.999162
0.999331
0.999461
0.999662
0.999925
0.998796
0.993685
0.993444
0.993444
0.993444
0.99476
0.999706
1.00004
0.999911
0.999881
0.999913
0.99997
0.981278
0.98507
0.790805
0.514238
0.68623
0.861301
0.996048
0.999557
0.999541
0.999589
0.999605
0.999425
0.999222
0.999076
0.999087
0.999217
0.999422
0.999611
0.999711
0.999261
0.991487
0.990047
0.990045
0.995213
0.998946
0.998944
0.99912
0.9985
0.99485
0.994711
0.994324
0.993861
0.99362
0.99428
0.99837
0.99838
0.998325
0.998466
0.999193
0.999716
0.999892
0.99993
0.999947
0.999965
0.999968
0.943903
)
;

boundaryField
{
    AirInlet
    {
        type            fixedValue;
        value           uniform 0;
    }
    WaterInlet
    {
        type            fixedValue;
        value           uniform 1;
    }
    ChannelWall
    {
        type            zeroGradient;
    }
    Outlet
    {
        type            inletOutlet;
        inletValue      uniform 0;
        value           nonuniform List<scalar> 
15
(
0.00329415
0.00329485
0.00345279
0.00370179
0.00939615
0
0
0
0
0.0622408
0.0991461
0
0
0.981278
0.943903
)
;
    }
    FrontAndBack
    {
        type            empty;
    }
}


// ************************************************************************* //
