/*--------------------------------*- C++ -*----------------------------------*\
| =========                 |                                                 |
| \\      /  F ield         | OpenFOAM: The Open Source CFD Toolbox           |
|  \\    /   O peration     | Version:  2.3.0                                 |
|   \\  /    A nd           | Web:      www.OpenFOAM.org                      |
|    \\/     M anipulation  |                                                 |
\*---------------------------------------------------------------------------*/
FoamFile
{
    version     2.0;
    format      ascii;
    class       volScalarField;
    location    "0.038";
    object      alpha.water;
}
// * * * * * * * * * * * * * * * * * * * * * * * * * * * * * * * * * * * * * //

dimensions      [0 0 0 0 0 0 0];

internalField   nonuniform List<scalar> 
725
(
1
1
1
0.999994
0.999919
1
1
1
0.999998
0.999894
1
1
1
0.999999
0.999944
1
1
1
0.999999
1
1
1
1
1.00001
1.00001
0.999859
0.999862
0.979642
0.844016
0.788774
0.856319
0.991922
0.999808
0.999795
0.999716
0.999732
0.999829
0.999914
0.99996
1
1.00001
1.00002
1.00002
1.00002
1.00001
1.00001
1.00001
0.999994
0.999975
1
0.873264
0.16113
0.000479597
0.000475471
0.000473433
0.0473608
0.782573
1
1.00002
1.00003
1.00003
1.00002
1.00002
0.999989
0.999972
0.999917
0.999678
1
0.808591
0.0181803
1
0.991621
0.927804
0.927776
0.798798
0.794848
0.961186
0.999816
0.999816
0.999385
0.999243
0.999371
0.999581
0.999725
0.999789
0.999831
0.999876
0.999916
0.999951
0.99997
0.999996
1.00001
1.00001
1.00001
1.00001
0.872198
0.161325
0.000475029
0.000474484
0.000473416
0.0652692
0.787655
1
0.999935
0.999827
0.999794
0.999779
0.999779
0.999785
0.999789
0.999761
0.99967
0.999998
0.880412
0.0719988
1
0.979298
0.886876
0.694355
0.737232
0.721045
0.913151
0.999602
0.999561
0.998423
0.99867
0.999011
0.999244
0.999674
0.999873
0.999842
0.999835
0.999837
0.999853
0.999879
0.999907
0.999963
0.999991
0.999984
1
0.877329
0.16247
0.000473376
0.000473384
0.000473402
0.0218692
0.701737
1
0.999869
0.999868
0.999827
0.999776
0.99972
0.999665
0.999615
0.999579
0.999559
0.999998
0.961225
0.239295
0.991509
0.391951
0.112258
0.238995
0.608674
0.703282
0.89346
0.999557
0.999561
0.996366
0.99556
0.998683
0.999297
0.999352
0.999511
0.99967
0.999765
0.999812
0.999833
0.999849
0.99987
0.999906
0.999967
1.00003
1
0.881199
0.156991
0.000473351
0.000473548
0.000473446
0.0758262
0.749873
0.999993
0.999979
0.999975
0.999897
0.999851
0.999798
0.999744
0.999686
0.999632
0.999571
1
0.987521
0.276665
0.193541
0.00130751
0.00214939
0.0765112
0.393358
0.601002
0.838742
0.999552
0.999555
0.995519
0.99452
0.997389
0.999357
0.999353
0.999344
0.999378
0.999923
0.999904
0.999875
0.999862
0.999861
0.999891
0.999937
1.00001
1
0.882815
0.163226
0.000473325
0.000475148
0.000484007
0.0866384
0.690761
0.999988
0.999982
0.999838
0.999832
0.999827
0.999811
0.999784
0.999748
0.999705
0.999647
1
0.97154
0.278516
2.34471e-06
0.000595459
0.00106036
0.00111421
0.0673845
0.451648
0.800568
0.999549
0.999551
0.994531
0.994519
0.997006
0.999133
0.999376
0.999442
0.999613
0.999774
0.999833
0.999851
0.999855
0.999859
0.999888
0.999933
1.00008
1.00001
0.885884
0.163875
0.000473823
0.000484353
0.000872049
0.100658
0.772805
0.999989
0.999781
0.999654
0.999705
0.999748
0.999772
0.999763
0.999738
0.999694
0.999635
1.00002
0.956728
0.192049
5.60888e-06
0.000616175
0.000841676
0.000962066
0.00866414
0.322606
0.756876
0.99953
0.999543
0.994549
0.994523
0.9976
0.999159
0.999443
0.999573
0.999724
0.999808
0.999855
0.999868
0.999864
0.999862
0.999887
0.999936
0.99991
1.00004
0.88733
0.166513
0.000479601
0.0014744
0.00178035
0.081057
0.78639
0.999806
0.999614
0.999539
0.99964
0.999712
0.999747
0.999746
0.999723
0.999684
0.999626
1
0.955124
0.156231
0.0375904
0.00110083
0.000957495
0.00103347
0.00252343
0.127049
0.774326
0.999399
0.999353
0.995869
0.996449
0.998989
0.999261
0.999516
0.999664
0.99979
0.999845
0.999877
0.999882
0.999874
0.999867
0.999887
0.999931
0.999872
1.00005
0.890452
0.165899
0.000491082
0.00191921
0.00174124
0.0744
0.819633
0.999533
0.999454
0.999493
0.999613
0.999693
0.999731
0.999734
0.999713
0.999678
0.999621
1
0.929824
0.146042
0.381965
0.00606033
0.00510477
0.000998877
0.000957642
0.026928
0.806376
0.9848
0.999556
0.999364
0.999336
0.999614
0.999619
0.999581
0.999742
0.999844
0.999877
0.999896
0.999894
0.999883
0.999873
0.999889
0.999928
0.999906
1.00002
0.892377
0.167844
0.000498124
0.000779584
0.000798512
0.098844
0.792514
0.999581
0.999515
0.999504
0.99961
0.999684
0.999724
0.999731
0.999712
0.99968
0.999621
1
0.907095
0.122819
0.584236
0.00758434
0.00178923
0.000886653
0.000846506
0.0758027
0.715784
0.985495
0.999603
0.999603
0.998776
0.999244
0.999285
0.999598
0.999781
0.999846
0.99989
0.999905
0.999902
0.99989
0.999878
0.999891
0.999922
0.999964
1.00003
0.894361
0.1669
0.000514053
0.000573085
0.00058294
0.152721
0.776986
0.999664
0.999615
0.999538
0.999625
0.999661
0.999721
0.999728
0.999713
0.999681
0.999621
1
0.901146
0.0938026
1
1
1
1.00001
1.00001
1
1
1
1.00001
1.00001
1
1
1
1.00001
1.00011
1
1
1
1.00001
1.00001
1
1
1
1.00002
1.00002
0.844541
0.163426
0.000877736
0.000811176
0.000812114
0.0012369
0.386008
0.999685
0.998775
0.994542
0.993843
0.998723
0.999366
0.999664
0.99977
0.999953
0.999941
0.999928
0.99991
0.999894
0.999882
0.999887
0.999897
1.00001
1.00001
0.899137
0.169753
0.000553188
0.000570323
0.000572631
0.119046
0.802695
0.999803
0.999705
0.999677
0.999752
0.99981
0.999771
0.99975
0.999721
0.999681
0.99962
1
0.861416
0.0481525
0.92192
0.347303
0.000808598
0.000806536
0.000806864
0.000808454
0.255143
0.999685
0.998081
0.993425
0.996675
0.998806
0.999985
0.999939
0.99994
0.999939
0.999924
0.999905
0.999887
0.999872
0.999865
0.999871
0.999891
0.999958
1
0.9037
0.166495
0.000576487
0.000561868
0.000576044
0.114
0.819671
0.999908
0.999704
0.999944
0.999834
0.999778
0.999739
0.999693
0.99963
0.999566
0.999496
0.999947
0.806982
0.0181216
1
0.496943
0.000805999
0.00080594
0.000805835
0.000805819
0.130022
0.999685
0.999476
0.995747
0.999688
0.999552
0.999811
0.999863
0.999886
0.999887
0.999876
0.999858
0.999844
0.999836
0.999837
0.999846
0.999877
0.999931
1
0.914736
0.177002
0.000561961
0.000553931
0.000549297
0.071625
0.822816
0.999907
0.999892
0.99983
0.99978
0.999724
0.999663
0.999602
0.999545
0.999504
0.999483
0.999982
0.847613
0.049598
1
0.608365
0.000995586
0.000806954
0.000805776
0.000805785
0.0862925
0.97121
0.999914
0.999906
0.999735
0.999796
0.999848
0.999863
0.999854
0.999832
0.999812
0.9998
0.999801
0.999811
0.999829
0.999853
0.999894
0.999937
1
0.918485
0.174541
0.000554435
0.000543034
0.000531428
0.00333878
0.740086
0.999948
0.999805
0.99977
0.999735
0.999718
0.99972
0.999728
0.99973
0.999712
0.999615
0.999981
0.961837
0.228236
1
0.659012
0.000812736
0.00104997
0.000806626
0.000805777
0.0872816
0.945013
0.999914
0.999739
0.999818
0.999872
0.999898
0.999918
0.999927
0.999928
0.99993
0.999934
0.999934
0.999937
0.99994
0.99994
0.999957
1.00001
1.00001
0.915263
0.177129
0.000541638
0.000531695
0.000530034
0.000530068
0.703081
1
1.00002
1.00001
1.00003
1.00003
1.00004
1.00003
1.00004
0.999957
0.999643
0.999979
0.983421
0.303129
)
;

boundaryField
{
    AirInlet
    {
        type            fixedValue;
        value           uniform 0;
    }
    WaterInlet
    {
        type            fixedValue;
        value           uniform 1;
    }
    ChannelWall
    {
        type            zeroGradient;
    }
    Outlet
    {
        type            inletOutlet;
        inletValue      uniform 0;
        value           nonuniform List<scalar> 
15
(
0
0.0719988
0.239295
0.276665
0.278516
0
0
0
0
0
0
0
0
0.228236
0.303129
)
;
    }
    FrontAndBack
    {
        type            empty;
    }
}


// ************************************************************************* //
