/*--------------------------------*- C++ -*----------------------------------*\
| =========                 |                                                 |
| \\      /  F ield         | OpenFOAM: The Open Source CFD Toolbox           |
|  \\    /   O peration     | Version:  2.3.0                                 |
|   \\  /    A nd           | Web:      www.OpenFOAM.org                      |
|    \\/     M anipulation  |                                                 |
\*---------------------------------------------------------------------------*/
FoamFile
{
    version     2.0;
    format      ascii;
    class       volScalarField;
    location    "0.038";
    object      p;
}
// * * * * * * * * * * * * * * * * * * * * * * * * * * * * * * * * * * * * * //

dimensions      [1 -1 -2 0 0 0 0];

internalField   nonuniform List<scalar> 
725
(
1142.26
952.527
884.662
808.294
540.813
1113.34
956.832
893.216
831.523
567.676
1099.55
961.759
908.249
891.392
822.747
1098.06
961.458
923.097
958.89
1304.63
1108.3
958.534
933.465
1023.16
1941.44
-113.683
-1906.55
-2141.56
-1456.98
-769.788
-483.626
-489.204
-353.248
-326.657
-315.517
-388.219
-373.357
-485.033
-397.028
-350.59
-306.1
-268.697
-260.252
-261.782
-265.384
-269.248
-273.964
-282.574
-286.776
-288.297
-289.295
-292.237
-300.272
-303.536
-306.318
-295.445
-307.783
-322.632
-330.609
-340.044
-346.884
-351.667
-357.015
-361.824
-377.309
-402.034
-540.086
-564.299
-5.7759
11.5406
-219.275
-2586.78
-2495.77
-1455.28
-758.107
-443.626
-482.756
-348.335
-320.712
-353.004
-346.871
-434.981
-540.796
-401.745
-347.608
-308.922
-284.771
-275.689
-273.363
-274.565
-277.238
-280.152
-283.238
-281.173
-282.214
-283.111
-283.857
-295.382
-303.372
-306.888
-294.864
-306.51
-321.927
-331.173
-341.835
-348.267
-352.79
-358.308
-363.72
-377.875
-400.254
-518.826
-695.803
-41.0867
13.2958
1204.5
-2180.37
-2428.7
-1346.89
-674.303
-377.148
-456.864
-327.748
-302.131
-307.181
-380.013
-376.263
-594.254
-389.395
-342.171
-301.686
-280.413
-273.034
-272.212
-273.894
-276.901
-280.692
-285.079
-291.136
-297.385
-301.496
-304.761
-306.151
-297.403
-298.764
-285.164
-307.861
-322.777
-331.327
-342.801
-348.05
-353.392
-359.009
-364.84
-376.793
-395.159
-468.052
-617.576
-99.1732
13.2241
2289.41
-1237
-2611.61
-1120.5
-474.44
-287.208
-381.946
-294.153
-277.181
-291.81
-427.101
-317.987
-664.682
-285.211
-339.26
-291.348
-272.212
-269.251
-269.766
-272.7
-276.284
-280.579
-285.532
-291.443
-297.369
-301.525
-304.113
-304.079
-308.753
-300.965
-273.797
-308.813
-321.652
-330.252
-344.731
-348.599
-353.229
-358.844
-364.619
-373.352
-389.49
-419.13
-541.054
-236.198
19.1229
2926.15
-2533.25
-1651.18
-772.647
-225.744
-184.005
-348.402
-261.557
-242.509
-274.973
-509.65
-226.033
-914.082
-279.843
-292.109
-266.401
-262.528
-264.849
-267.403
-271.043
-275.301
-280.23
-285.815
-291.747
-297.404
-301.515
-306.129
-308.231
-309.685
-307.561
-263.567
-313.076
-325.355
-329.697
-347.29
-348.915
-351.952
-358.067
-363.798
-370.15
-383.572
-411.225
-672.183
-377.335
6.25834
3768.34
15147.5
502.128
1544.12
-19.8681
-140.217
-300.171
-235.181
-213.554
-226.225
593.941
-73.7662
640.556
-163.795
-285.72
-254.471
-257.794
-261.929
-265.928
-270.302
-274.792
-280.008
-286.021
-292.085
-297.651
-301.444
-304.232
-310.056
-306.729
-310.706
-233.912
-322.608
-325.484
-327.52
-351.676
-352.334
-352.927
-358.064
-363.802
-368.371
-379.001
-415.28
-688.37
-456.548
-17.1667
4140.54
7870.75
1488.67
1013.25
64.0063
-132.371
-293.194
-227.741
-205.133
-215.647
674.999
664.564
656.019
-148.263
-287.482
-251.251
-255.875
-260.765
-265.367
-269.939
-274.553
-279.895
-286.081
-292.211
-297.733
-301.415
-304.688
-310.943
-309.481
-309.287
-229.858
-325.886
-324.893
-323.783
-338.097
-350.906
-352.815
-357.981
-363.544
-367.52
-377.629
-413.945
-688.856
-571.271
-22.8952
4218.78
5056.08
5055.06
1127.07
131.239
-104.599
-291.189
-219.272
-195.797
-103.764
687.817
-343.22
597.279
-107.399
-279.425
-244.171
-242.772
-259.442
-264.882
-269.595
-274.306
-279.776
-286.141
-292.349
-297.824
-301.398
-304.458
-309.418
-310.68
-303.595
-223.32
-329.855
-324.728
-328.354
-339.571
-352.418
-352.728
-351.363
-361.162
-367.05
-375.775
-410.636
-676.475
-732.562
8.88851
4163.3
4708.12
802.255
2373.42
239.586
-53.7591
-269.046
-210.527
-193.474
-220.29
1113.19
-217.157
537.992
-88.6416
686.017
-190.893
-243.501
-258.111
-264.388
-269.262
-274.058
-279.65
-286.2
-292.498
-297.934
-301.341
-302.563
-299.397
-311.822
-303.226
-204.209
-322.459
-325.446
-353.993
-344.258
-352.255
-351.962
-352.242
-364.037
-362.471
-374.514
-406.963
-630.738
-954.61
35.1238
4192.81
4739.58
891.62
359.688
260.111
-30.4972
-261.826
-202.664
-189.062
-215.674
-63.7938
-172.881
478.112
-77.3062
92.802
-250.091
-250.504
-257.942
-263.889
-268.904
-273.786
-279.495
-286.232
-292.635
-297.98
-301.432
-304.508
-309.636
-311.979
-290.146
-195.965
-326.81
-326.916
-352.997
-346.001
-351.197
-350.633
-350.38
-363.781
-368.451
-370.909
-405.07
-556.157
-809.89
16.0804
2561.4
2409.11
2348.53
2300.77
2142.33
2551.72
2414.99
2350.8
2300.88
2238.66
2554.08
2420
2360.71
2349.44
2224.72
2568.65
2419.37
2366.55
2379.1
2298.12
2597.8
2417
2367.67
2390.76
2345.09
4205.18
4614.51
1449.69
422.288
175.934
16.0536
-192.663
-180.307
-173.637
-187.039
-88.4992
-202.682
318.124
-61.1003
-123.012
-231.333
-249.219
-255.427
-262.392
-267.846
-273.194
-279.33
-286.512
-293.153
-298.55
-303.356
-306.425
-311.633
-320.532
-341.709
-414.866
-343.672
-333.204
-353.6
-347.957
-349.026
-342.916
-360.745
-364.412
-368.424
-379.989
-407.415
-482.966
-474.829
-137.994
3568.78
3059.97
3510.2
628.22
192.863
91.2255
-101.8
-141.408
-150.923
-161.145
-112.593
-112.52
154.017
-65.3996
-119.487
-207.265
-232.194
-243.094
-248.154
-266.383
-271.202
-278.211
-286.799
-293.932
-299.107
-303.221
-307.678
-313.974
-323.411
-340.147
-388.476
-344.708
-330.89
-353.715
-353.032
-356.401
-346.801
-356.52
-363.862
-368.01
-376.402
-387.41
-375.509
-200.824
-396.222
2707.32
2380.81
1855.73
794.827
434.173
161.092
-32.7383
-111.789
-136.455
-146.333
-119.24
-88.4474
54.935
-69.0879
-120.427
-187.349
-224.226
-240.888
-257.08
-263.319
-271.344
-280.019
-289.194
-295.297
-300.053
-303.608
-308.813
-315.543
-326.87
-342.402
-376.268
-352.171
-338.014
-335.494
-337.061
-350.87
-357.431
-362.096
-364.393
-369.405
-375.877
-382.909
-420.158
-348.745
-608.004
2905.8
2737.29
1571.52
1266.47
414.008
190.852
0.914716
-90.3426
-123.65
-138.371
-118.659
-72.3956
13.3189
-64.7751
-121.192
-186.456
-224.231
-242.414
-254.275
-264.988
-271.313
-279.057
-287.004
-285.053
-286.713
-301.491
-309.229
-316.248
-327.867
-342.415
-368.565
-350.691
-344.496
-324.411
-321.709
-325.625
-324.103
-335.087
-364.267
-367.337
-372.933
-375.454
-415.071
-250.357
-736.336
2893.25
2417.78
1602.44
992.267
533.014
252.196
23.6931
-80.7407
-122.86
-135.408
-118.248
-64.6588
-6.56098
-67.8731
-121.319
-183.506
-220.371
-239.262
-255.175
-229.496
-230.87
-242.087
-278.64
-289.407
-291.667
-301.527
-308.179
-295.845
-309.08
-322.228
-343.489
-326.144
-326.455
-332.033
-341.256
-345.699
-349.781
-349.339
-361.409
-367.065
-369.49
-366.18
-409.681
-164.257
-704.656
)
;

boundaryField
{
    AirInlet
    {
        type            calculated;
        value           nonuniform List<scalar> 5(3951.24 4166.89 4249.37 4130.88 4267.52);
    }
    WaterInlet
    {
        type            calculated;
        value           nonuniform List<scalar> 10(1142.26 1113.34 1099.56 1098.07 1108.32 2561.38 2551.7 2554.07 2568.64 2597.8);
    }
    ChannelWall
    {
        type            calculated;
        value           nonuniform List<scalar> 
110
(
1108.28
958.504
933.431
1023.13
1941.41
2561.43
2409.14
2348.56
2300.8
2142.37
2597.77
2416.97
2367.63
2390.72
2345.04
2893.21
2417.74
1602.42
992.237
532.976
252.152
23.649
-80.7849
-122.904
-135.452
-118.292
-64.7029
-6.60509
-67.9172
-121.363
-183.551
-220.415
-239.306
-255.219
-229.539
-230.914
-242.131
-278.684
-289.451
-291.711
-301.571
-308.223
-295.889
-309.124
-322.272
-343.533
-326.188
-326.499
-332.077
-341.3
-345.743
-349.825
-349.383
-361.454
-367.11
-369.535
-366.224
-409.725
-164.301
-704.697
1142.28
952.557
884.696
808.332
540.855
-113.64
-1906.51
-2141.52
-1456.94
-769.746
-483.584
-489.16
-353.204
-326.613
-315.473
-388.176
-373.313
-484.989
-396.984
-350.546
-306.056
-268.653
-260.208
-261.738
-265.34
-269.204
-273.92
-282.529
-286.732
-288.253
-289.251
-292.193
-300.228
-303.492
-306.274
-295.401
-307.739
-322.588
-330.565
-340
-346.84
-351.623
-356.971
-361.78
-377.265
-401.99
-540.042
-564.278
-5.77567
11.5407
)
;
    }
    Outlet
    {
        type            calculated;
        value           nonuniform List<scalar> 
15
(
-0.00018942
-0.000568352
-0.00098208
-0.00145178
-0.00412671
-0.191936
-0.728744
-1.15623
-0.160406
-0.0334682
-0.0583969
-1.28162
-0.18306
-0.832694
-0.884353
)
;
    }
    FrontAndBack
    {
        type            empty;
    }
}


// ************************************************************************* //
