/*--------------------------------*- C++ -*----------------------------------*\
| =========                 |                                                 |
| \\      /  F ield         | OpenFOAM: The Open Source CFD Toolbox           |
|  \\    /   O peration     | Version:  2.3.0                                 |
|   \\  /    A nd           | Web:      www.OpenFOAM.org                      |
|    \\/     M anipulation  |                                                 |
\*---------------------------------------------------------------------------*/
FoamFile
{
    version     2.0;
    format      ascii;
    class       volScalarField;
    location    "0.038";
    object      p_rgh;
}
// * * * * * * * * * * * * * * * * * * * * * * * * * * * * * * * * * * * * * //

dimensions      [1 -1 -2 0 0 0 0];

internalField   nonuniform List<scalar> 
725
(
1142.28
952.557
884.696
808.332
540.855
1113.42
956.923
893.319
831.638
567.803
1099.69
961.911
908.421
891.584
822.958
1098.25
961.671
923.338
959.158
1304.92
1108.54
958.808
933.774
1023.51
1941.73
-113.64
-1906.51
-2141.52
-1456.94
-769.746
-483.584
-489.16
-353.204
-326.613
-315.473
-388.176
-373.313
-484.989
-396.984
-350.546
-306.056
-268.653
-260.208
-261.738
-265.34
-269.204
-273.92
-282.529
-286.732
-288.253
-289.251
-292.193
-300.228
-303.492
-306.274
-295.401
-307.739
-322.588
-330.565
-340
-346.84
-351.623
-356.971
-361.78
-377.265
-401.99
-540.042
-564.278
-5.77567
11.5407
-219.158
-2586.67
-2495.66
-1455.16
-757.982
-443.507
-482.626
-348.203
-320.58
-352.873
-346.744
-434.853
-540.664
-401.612
-347.475
-308.79
-284.639
-275.557
-273.231
-274.432
-277.105
-280.019
-283.106
-281.041
-282.082
-282.979
-283.725
-295.25
-303.24
-306.755
-294.731
-306.378
-321.795
-331.041
-341.702
-348.134
-352.657
-358.176
-363.587
-377.742
-400.122
-518.694
-695.729
-41.0849
13.2963
1204.55
-2180.29
-2428.53
-1346.69
-674.1
-376.949
-456.644
-327.528
-301.911
-306.96
-379.801
-376.053
-594.042
-389.176
-341.951
-301.466
-280.192
-272.813
-271.991
-273.673
-276.68
-280.471
-284.858
-290.916
-297.164
-301.276
-304.541
-305.93
-297.183
-298.544
-284.944
-307.64
-322.556
-331.106
-342.581
-347.83
-353.171
-358.789
-364.619
-376.573
-394.938
-467.831
-617.428
-99.1684
13.2251
2289.43
-1236.95
-2611.38
-1120.21
-474.161
-286.929
-381.638
-293.844
-276.872
-291.501
-426.803
-317.693
-664.388
-284.91
-338.951
-291.039
-271.903
-268.942
-269.457
-272.391
-275.975
-280.27
-285.223
-291.134
-297.06
-301.216
-303.804
-303.77
-308.445
-300.657
-273.489
-308.505
-321.343
-329.943
-344.422
-348.291
-352.92
-358.535
-364.31
-373.043
-389.181
-418.821
-540.79
-236.152
19.1243
2926.17
-2533.19
-1650.87
-772.287
-225.385
-183.646
-348.005
-261.16
-242.112
-274.576
-509.264
-225.655
-913.702
-279.454
-291.712
-266.004
-262.131
-264.452
-267.006
-270.646
-274.903
-279.832
-285.417
-291.35
-297.007
-301.118
-305.732
-307.834
-309.288
-307.164
-263.17
-312.679
-324.959
-329.301
-346.893
-348.518
-351.555
-357.67
-363.4
-369.752
-383.174
-410.828
-671.824
-377.264
6.26246
3768.36
15147.8
502.407
1544.49
-19.4599
-139.797
-299.72
-234.73
-213.102
-225.774
594.39
-73.3262
641.003
-163.348
-285.27
-254.02
-257.342
-261.478
-265.477
-269.851
-274.341
-279.557
-285.57
-291.634
-297.2
-300.993
-303.781
-309.605
-306.278
-310.254
-233.461
-322.157
-325.034
-327.07
-351.226
-351.884
-352.476
-357.613
-363.351
-367.92
-378.55
-414.829
-687.944
-456.415
-17.1578
4140.54
7871
1489.05
1013.66
64.4484
-131.917
-292.723
-227.27
-204.662
-215.177
675.469
665.032
656.486
-147.808
-287.013
-250.78
-255.405
-260.295
-264.896
-269.469
-274.082
-279.425
-285.61
-291.741
-297.263
-300.944
-304.217
-310.472
-309.01
-308.816
-229.387
-325.416
-324.425
-323.315
-337.628
-350.436
-352.344
-357.51
-363.073
-367.049
-377.159
-413.474
-688.405
-571.109
-22.8789
4218.78
5056.2
5055.51
1127.54
131.722
-104.109
-290.698
-218.781
-195.306
-103.276
688.295
-342.747
597.751
-106.927
-278.935
-243.682
-242.282
-258.952
-264.392
-269.104
-273.816
-279.286
-285.651
-291.859
-297.333
-300.907
-303.968
-308.928
-310.19
-303.105
-222.831
-329.366
-324.24
-327.866
-339.082
-351.929
-352.238
-350.873
-360.671
-366.559
-375.285
-410.146
-675.998
-732.37
8.9099
4163.3
4708.17
802.646
2373.92
240.096
-53.249
-268.536
-210.017
-192.963
-219.781
1113.68
-216.667
538.482
-88.1515
686.508
-190.385
-242.991
-257.602
-263.878
-268.753
-273.548
-279.14
-285.69
-291.988
-297.424
-300.831
-302.053
-298.887
-311.312
-302.716
-203.701
-321.952
-324.939
-353.485
-343.75
-351.747
-351.453
-351.732
-363.527
-361.961
-374.004
-406.453
-630.232
-954.329
35.1508
4192.82
4739.61
891.937
360.183
260.641
-29.9675
-261.296
-202.134
-188.533
-215.144
-63.2654
-172.372
478.621
-76.7973
93.321
-249.562
-249.975
-257.413
-263.36
-268.375
-273.256
-278.965
-285.702
-292.105
-297.45
-300.903
-303.978
-309.107
-311.45
-289.617
-195.437
-326.283
-326.389
-352.47
-345.474
-350.67
-350.105
-349.851
-363.252
-367.922
-370.379
-404.541
-555.628
-809.523
16.1139
2562.14
2409.82
2349.2
2301.4
2142.83
2552.51
2415.76
2351.54
2301.59
2239.34
2554.93
2420.83
2361.52
2350.23
2225.49
2569.55
2420.26
2367.43
2379.96
2298.97
2598.75
2417.95
2368.61
2391.7
2346.03
4205.18
4614.53
1449.93
422.74
176.516
16.6355
-192.08
-179.723
-173.053
-186.455
-87.9155
-202.114
318.685
-60.5325
-122.429
-230.75
-248.636
-254.844
-261.809
-267.263
-272.611
-278.746
-285.928
-292.569
-297.966
-302.773
-305.842
-311.049
-319.948
-341.125
-414.282
-343.088
-332.621
-353.018
-347.376
-348.445
-342.335
-360.163
-363.828
-367.841
-379.405
-406.831
-482.382
-474.33
-137.936
3568.91
3060.1
3510.33
628.804
193.491
91.8922
-101.128
-140.736
-150.251
-160.473
-111.921
-111.861
154.671
-64.7324
-118.815
-206.594
-231.524
-242.423
-247.484
-265.711
-270.53
-277.54
-286.127
-293.26
-298.435
-302.549
-307.006
-313.302
-322.739
-339.475
-387.804
-344.036
-330.218
-353.045
-352.363
-355.732
-346.13
-355.849
-363.19
-367.338
-375.731
-386.739
-374.837
-200.2
-396.084
2708.01
2381.22
1856.03
795.37
434.83
161.84
-31.9781
-111.029
-135.695
-145.572
-118.48
-87.6936
55.6935
-68.3286
-119.667
-186.59
-223.468
-240.13
-256.32
-262.559
-270.584
-279.259
-288.434
-294.537
-299.293
-302.848
-308.053
-314.783
-326.11
-341.642
-375.508
-351.411
-337.255
-334.734
-336.302
-350.112
-356.673
-361.336
-363.633
-368.645
-375.117
-382.149
-419.398
-347.985
-607.45
2906.64
2738
1571.98
1266.99
414.745
191.687
1.76303
-89.4947
-122.802
-137.523
-117.811
-71.5472
14.1672
-63.9269
-120.344
-185.608
-223.383
-241.566
-253.427
-264.14
-270.465
-278.21
-286.158
-284.206
-285.866
-300.644
-308.381
-315.4
-327.019
-341.567
-367.717
-349.842
-343.649
-323.568
-320.866
-324.782
-323.26
-334.243
-363.419
-366.489
-372.084
-374.606
-414.223
-249.509
-735.503
2894.18
2418.52
1602.92
992.91
533.821
253.129
24.6295
-79.8043
-121.924
-134.472
-117.312
-63.7227
-5.62499
-66.9371
-120.383
-182.57
-219.434
-238.326
-254.238
-228.567
-229.943
-241.16
-277.707
-288.471
-290.731
-300.591
-307.243
-294.913
-308.148
-321.297
-342.558
-325.213
-325.524
-331.097
-340.321
-344.764
-348.845
-348.403
-360.473
-366.129
-368.554
-365.243
-408.744
-163.32
-703.771
)
;

boundaryField
{
    AirInlet
    {
        type            fixedFluxPressure;
        gradient        nonuniform List<scalar> 5(1.82882e+07 2.63541e+06 3.05889e+06 -3.24219e+06 7.47071e+06);
        value           nonuniform List<scalar> 5(3951.24 4166.89 4249.37 4130.88 4267.52);
    }
    WaterInlet
    {
        type            fixedFluxPressure;
        gradient        nonuniform List<scalar> 10(0.000340207 -1.13263 0.23214 0.548085 -14.0537 -0.0339862 -0.47839 -0.885226 -25.5027 -5.84014);
        value           nonuniform List<scalar> 10(1142.28 1113.42 1099.69 1098.25 1108.54 2562.14 2552.51 2554.93 2569.55 2598.75);
    }
    ChannelWall
    {
        type            fixedFluxPressure;
        gradient        uniform 0;
        value           nonuniform List<scalar> 
110
(
1108.54
958.808
933.774
1023.51
1941.73
2562.14
2409.82
2349.2
2301.4
2142.83
2598.75
2417.95
2368.61
2391.7
2346.03
2894.18
2418.52
1602.92
992.91
533.821
253.129
24.6295
-79.8043
-121.924
-134.472
-117.312
-63.7227
-5.62499
-66.9371
-120.383
-182.57
-219.434
-238.326
-254.238
-228.567
-229.943
-241.16
-277.707
-288.471
-290.731
-300.591
-307.243
-294.913
-308.148
-321.297
-342.558
-325.213
-325.524
-331.097
-340.321
-344.764
-348.845
-348.403
-360.473
-366.129
-368.554
-365.243
-408.744
-163.32
-703.771
1142.28
952.557
884.696
808.332
540.855
-113.64
-1906.51
-2141.52
-1456.94
-769.746
-483.584
-489.16
-353.204
-326.613
-315.473
-388.176
-373.313
-484.989
-396.984
-350.546
-306.056
-268.653
-260.208
-261.738
-265.34
-269.204
-273.92
-282.529
-286.732
-288.253
-289.251
-292.193
-300.228
-303.492
-306.274
-295.401
-307.739
-322.588
-330.565
-340
-346.84
-351.623
-356.971
-361.78
-377.265
-401.99
-540.042
-564.278
-5.77567
11.5407
)
;
    }
    Outlet
    {
        type            totalPressure;
        rho             rho;
        psi             none;
        gamma           1;
        p0              uniform 0;
        value           nonuniform List<scalar> 
15
(
0
0
0
0
0
-0.191485
-0.728273
-1.15574
-0.159896
0
0
-1.28095
-0.1823
0
0
)
;
    }
    FrontAndBack
    {
        type            empty;
    }
}


// ************************************************************************* //
