/*--------------------------------*- C++ -*----------------------------------*\
| =========                 |                                                 |
| \\      /  F ield         | OpenFOAM: The Open Source CFD Toolbox           |
|  \\    /   O peration     | Version:  2.3.0                                 |
|   \\  /    A nd           | Web:      www.OpenFOAM.org                      |
|    \\/     M anipulation  |                                                 |
\*---------------------------------------------------------------------------*/
FoamFile
{
    version     2.0;
    format      ascii;
    class       volScalarField;
    location    "0.038";
    object      p_rgh;
}
// * * * * * * * * * * * * * * * * * * * * * * * * * * * * * * * * * * * * * //

dimensions      [1 -1 -2 0 0 0 0];

internalField   nonuniform List<scalar> 
725
(
-959.745
-1003.59
-1015.61
-1038.28
-1015.2
-965.744
-1002.97
-1015.1
-1035.33
-1009.82
-968.331
-1002.95
-1014.72
-1032.48
-1004.08
-967.922
-1003.73
-1014.59
-1028.78
-995.631
-964.45
-1005.24
-1014.66
-1024.46
-999.786
-1084.22
-1136.42
-1229.06
-1335.47
-1520.95
-1575.28
-1395.67
-1425.72
-1417.49
-1412.3
-1419.47
-1437.85
-1444.66
-1447
-1448.65
-1450.53
-1452.95
-1454.28
-1455.51
-1457.66
-1460.5
-1464.93
-1470.28
-1478.38
-1484.96
-1491.35
-1477.33
-1480.16
-1479.7
-1481.89
-1484.46
-1350.66
-1303.87
-1347.57
-1315.95
-1321.14
-1318.98
-1326.99
-1321.62
-1360.57
-1335.05
-1493.89
-1516.23
-2313.67
61.3881
-1070.17
-1192.42
-1468.98
-1018.84
-1493.68
-1721.27
-1520.85
-1442.99
-1418.68
-1410.36
-1421.28
-1439.71
-1445.49
-1447.41
-1449.24
-1451.08
-1453.35
-1454.6
-1455.68
-1457.55
-1460.08
-1464.18
-1469.19
-1477.43
-1485.61
-1492.68
-1476.93
-1480.71
-1479.08
-1481.28
-1481.59
-1505.63
-1345.92
-1375.02
-1318.27
-1321.27
-1319.79
-1327.14
-1321.6
-1357.87
-1323.75
-1459.75
-1411.84
-1930.93
-153.096
-1037.78
-1282.25
-1540.94
-1478.29
-1444.86
-1634.9
-1428.08
-1438.24
-1415.96
-1402.11
-1421.34
-1441.41
-1444.78
-1447.04
-1448.89
-1450.88
-1453.2
-1454.42
-1455.4
-1457.14
-1459.43
-1463.19
-1467.84
-1476.03
-1486.07
-1496.8
-1482.25
-1481.45
-1477.91
-1479.71
-1464.6
-1825.16
-1338.7
-1358.83
-1311.2
-1319.38
-1319.04
-1325.71
-1318.98
-1351.17
-1305.66
-1402.51
-1262.8
-1067.04
-594.336
-963.685
-1114.41
-1142.15
-1001.43
-1343.25
-1757.11
-1334.99
-1409.83
-1407.43
-1383.56
-1419.09
-1445.26
-1445.56
-1447.16
-1448.85
-1450.57
-1453
-1454.18
-1454.91
-1456.64
-1458.65
-1461.91
-1465.88
-1473.36
-1485.61
-1509.75
-1490.97
-1482.52
-1476.99
-1482.88
-1492.73
-1581.54
-1263.43
-1356.67
-1303.4
-1317.39
-1318.01
-1325.01
-1317.48
-1345.8
-1289.13
-1343.52
-1115.13
-521.005
-515.09
-618.009
-889.591
-959.506
-894.245
-1239.94
-1907.14
-1216.92
-1398.97
-1401.29
-1359.64
-1420.38
-1443.88
-1446.14
-1446.85
-1447.13
-1448.23
-1453.11
-1453.92
-1454.75
-1456.17
-1457.74
-1460.48
-1463.4
-1469.96
-1482.86
-1518.93
-1490.71
-1483.8
-1475.12
-1488.06
-1443.47
-1068.65
-1205.77
-1331.84
-1296.57
-1314.74
-1316.66
-1323.66
-1315.39
-1340.99
-1280.97
-1331.79
-1106.59
-712.854
-536.009
-657.877
-857.721
-966.554
-942.294
-1084.08
-2145.31
-995.486
-1413.3
-1398.71
-1298.24
-1433.67
-1440.85
-1442.91
-1446.95
-1447.35
-1448.68
-1447.57
-1451.01
-1454.35
-1455.83
-1457.12
-1459.66
-1461.72
-1467.06
-1478.74
-1508.48
-1483.9
-1485.43
-1471.85
-1492.69
-1416.88
-847.342
-1134.57
-1304.01
-1289.6
-1314.2
-1315.5
-1324.04
-1313.45
-1341.19
-1277.84
-1339.24
-1116.14
-802.748
-404.534
-647.228
-860.409
-960.944
-937.169
-978.724
-2247.64
-245.07
-1413.39
-1397.85
-1289.68
-1440.17
-1445.8
-1443.27
-1446.85
-1447.29
-1448.72
-1448.67
-1451.62
-1454.19
-1455.71
-1456.96
-1459.32
-1461.03
-1466.71
-1476.71
-1503.02
-1482.72
-1486.13
-1476.12
-1491.72
-1406.07
-793.296
-1111.15
-1294.69
-1287.36
-1313.93
-1315.17
-1324.07
-1312.92
-1341.18
-1277.14
-1343.38
-1125.35
-856.179
-295.13
-1932.64
-858.69
-966.502
-937.246
-939.184
-2033.75
-316.403
-1413.84
-1398.22
-1288.19
-1450.38
-1447.48
-1444.58
-1446.78
-1447.24
-1448.73
-1448.88
-1451.63
-1454.08
-1455.59
-1456.78
-1458.98
-1460.49
-1464.49
-1474.21
-1495.5
-1483.22
-1486.79
-1462
-1491.34
-1336.29
-474.339
-1097.37
-1281.95
-1284.57
-1313.42
-1314.96
-1324.01
-1312.59
-1340.94
-1276.95
-1348.4
-1140.19
-1048.85
-272.94
-1672.45
-817.482
-832.855
-936.745
-920.63
-664.354
353.073
-1398.57
-1402.75
-1276.47
-1362.81
-1425.79
-1432.61
-1446.66
-1447.19
-1448.72
-1448.97
-1451.61
-1453.97
-1455.46
-1456.6
-1458.63
-1459.83
-1464.37
-1471.76
-1488.22
-1484.34
-1487.28
-1492.1
-1494.09
-1610.52
-728.983
-1098.8
-1277.99
-1283.77
-1313.07
-1314.71
-1323.73
-1312.35
-1340.67
-1277.26
-1353.83
-1156.18
-1148.77
-290.943
-1262.52
-825.45
-925.374
-936.035
-922.875
-1602.8
-788.014
-1417.8
-1410.74
-1255.85
-1391.27
-1438.2
-1444.54
-1446.69
-1447.09
-1448.72
-1449.06
-1451.59
-1453.86
-1455.33
-1456.43
-1458.24
-1459.17
-1462.98
-1469.51
-1484.26
-1487.13
-1487.74
-1491.07
-1494.94
-1433.03
-641.965
-1097.44
-1273.01
-1283.6
-1313.23
-1313.94
-1323.44
-1312.27
-1340.21
-1278.02
-1359.11
-1170.76
-1278.56
-266.638
5.59762
-34.7979
-48.7119
-61.1762
-98.0536
2.1583
-32.9827
-47.3597
-56.6202
-74.7103
1.78537
-31.8869
-46.0104
-51.7021
-67.7846
4.39853
-31.6487
-45.2443
-48.0183
-57.5945
10.3855
-32.1534
-45.5429
-47.8882
-58.9991
-594.99
-1198.02
-920.518
-934.61
-928.324
-956.586
-752.753
-1554.59
-1455.04
-1514.66
-1414.87
-1436.43
-1446.98
-1446.9
-1447.3
-1448.54
-1449.26
-1451.41
-1453.54
-1454.97
-1455.95
-1457.2
-1457.37
-1459.41
-1463.47
-1482.04
-1494.38
-1488.81
-1493.59
-1496.33
-1398.27
-588.589
-1058.13
-1259.37
-1283.45
-1313.06
-1318.25
-1323.25
-1313.54
-1338.37
-1281.14
-1373.35
-1211.57
-1575.01
-137.576
-240.604
-726.25
-926.964
-934.707
-928.466
-933.191
-1490.22
-1682.25
-1486.73
-1484.32
-1456.93
-1438.62
-1450.16
-1446.99
-1447.3
-1448.56
-1449.52
-1451.46
-1453.33
-1454.57
-1455.18
-1455.64
-1454.42
-1454.73
-1452.93
-1470.17
-1492.9
-1489.44
-1492.06
-1493.71
-1478.21
-886.415
-1152.64
-1291.09
-1290.07
-1315.36
-1319.1
-1323.37
-1312.34
-1338.95
-1281.85
-1390.43
-1297.72
-1988.12
-12.8654
-45.0858
-579.222
-929.312
-933.991
-930.302
-934.071
-1054.58
-1590.79
-1486.71
-1499.33
-1472.92
-1444.07
-1450.9
-1447.41
-1447.62
-1448.84
-1449.71
-1451.3
-1452.8
-1453.82
-1454.12
-1453.96
-1451.52
-1449.53
-1439.17
-1432.32
-1483.91
-1489.67
-1490.97
-1492.84
-1488.99
-1184.6
-1255.54
-1354.07
-1313.48
-1320.86
-1320.25
-1323.01
-1310.67
-1337.2
-1279.13
-1388.45
-1300.86
-1980.13
-112.012
-9.14787
-438.51
-931.424
-933.494
-931.444
-933.593
-989.23
-1588.57
-1486.69
-1488.53
-1474.24
-1446.65
-1451
-1447.13
-1447.49
-1448.33
-1449.13
-1450.69
-1452.23
-1453.25
-1453.36
-1452.73
-1449.09
-1444.97
-1428.35
-1414.74
-1482.57
-1489.48
-1489.84
-1490.93
-1478.95
-1992.17
-1405.37
-1398.25
-1329.3
-1325.43
-1321.41
-1323.65
-1310.53
-1337.04
-1274.98
-1363.98
-1241.27
-1331.11
-634.069
-6.78949
-354.203
-931.813
-932.939
-931.989
-934.528
-969.95
-1522.99
-1483.11
-1486.28
-1474.53
-1447.88
-1450.37
-1446.68
-1447.49
-1448.54
-1449.45
-1451.01
-1451.86
-1452.55
-1452.46
-1451.53
-1447.07
-1441.7
-1423.23
-1416.79
-1480.27
-1488.5
-1489.35
-1490.46
-1482.08
-2285.94
-1557.4
-1417.44
-1338.98
-1327.66
-1321.04
-1322.83
-1308.22
-1334.68
-1268.6
-1339.63
-1167.69
-753.414
-591.443
)
;

boundaryField
{
    AirInlet
    {
        type            fixedFluxPressure;
        gradient        nonuniform List<scalar> 5(-124.563 39268.3 -645284 -4.32549e+07 -1.28357e+08);
        value           nonuniform List<scalar> 5(-657.878 -646.835 -1939.1 -2105 -2546.1);
    }
    WaterInlet
    {
        type            fixedFluxPressure;
        gradient        nonuniform List<scalar> 10(0.0149999 -2.88946 -9.85749 -15.8375 -7.3725 0.00111304 0.0830143 0.25099 -2.20664 -4.38381);
        value           nonuniform List<scalar> 10(-959.745 -965.744 -968.331 -967.922 -964.45 5.59762 2.1583 1.78537 4.3985 10.3855);
    }
    ChannelWall
    {
        type            fixedFluxPressure;
        gradient        uniform 0;
        value           nonuniform List<scalar> 
110
(
-964.45
-1005.24
-1014.66
-1024.46
-999.786
5.59762
-34.7979
-48.7119
-61.1762
-98.0536
10.3855
-32.1534
-45.5429
-47.8882
-58.9991
-6.78949
-354.203
-931.813
-932.939
-931.989
-934.528
-969.95
-1522.99
-1483.11
-1486.28
-1474.53
-1447.88
-1450.37
-1446.68
-1447.49
-1448.54
-1449.45
-1451.01
-1451.86
-1452.55
-1452.46
-1451.53
-1447.07
-1441.7
-1423.23
-1416.79
-1480.27
-1488.5
-1489.35
-1490.46
-1482.08
-2285.94
-1557.4
-1417.44
-1338.98
-1327.66
-1321.04
-1322.83
-1308.22
-1334.68
-1268.6
-1339.63
-1167.69
-753.414
-591.443
-959.745
-1003.59
-1015.61
-1038.28
-1015.2
-1084.22
-1136.42
-1229.06
-1335.47
-1520.95
-1575.28
-1395.67
-1425.72
-1417.49
-1412.3
-1419.47
-1437.85
-1444.66
-1447
-1448.65
-1450.53
-1452.95
-1454.28
-1455.51
-1457.66
-1460.5
-1464.93
-1470.28
-1478.38
-1484.96
-1491.35
-1477.33
-1480.16
-1479.7
-1481.89
-1484.46
-1350.66
-1303.87
-1347.57
-1315.95
-1321.14
-1318.98
-1326.99
-1321.62
-1360.57
-1335.05
-1493.89
-1516.23
-2313.67
61.3881
)
;
    }
    Outlet
    {
        type            totalPressure;
        rho             rho;
        psi             none;
        gamma           1;
        p0              uniform 0;
        value           nonuniform List<scalar> 
15
(
-0.0955069
0
0
0
0
-0.00344762
-4.91882e-05
-0.00446054
-0.0217495
-0.00551726
0
-0.0175005
-0.000715187
-0.102772
0
)
;
    }
    FrontAndBack
    {
        type            empty;
    }
}


// ************************************************************************* //
