/*--------------------------------*- C++ -*----------------------------------*\
| =========                 |                                                 |
| \\      /  F ield         | OpenFOAM: The Open Source CFD Toolbox           |
|  \\    /   O peration     | Version:  2.3.0                                 |
|   \\  /    A nd           | Web:      www.OpenFOAM.org                      |
|    \\/     M anipulation  |                                                 |
\*---------------------------------------------------------------------------*/
FoamFile
{
    version     2.0;
    format      ascii;
    class       surfaceScalarField;
    location    "0.038";
    object      phi;
}
// * * * * * * * * * * * * * * * * * * * * * * * * * * * * * * * * * * * * * //

dimensions      [0 3 -1 0 0 0 0];

internalField   nonuniform List<scalar> 
1380
(
1.3276e-12
6.72399e-13
1.14212e-12
1.85477e-13
1.18557e-12
-4.34432e-14
1.42831e-12
-2.42742e-13
-2.90479e-13
1.71879e-12
2.41486e-12
2.57538e-13
2.52172e-12
7.86163e-14
2.66605e-12
-1.8777e-13
2.91593e-12
-4.9262e-13
-1.72346e-12
4.34891e-12
2.68063e-12
-4.23094e-13
2.92962e-12
-1.70372e-13
3.02121e-12
-2.79361e-13
2.7218e-12
-1.93209e-13
-1.9594e-12
2.95774e-12
2.34656e-12
-7.69659e-13
2.39849e-12
-2.22302e-13
2.32695e-12
-2.07814e-13
2.1304e-12
3.33613e-15
-1.74377e-12
1.91477e-12
1.23034e-12
1.00804e-12
8.00226e-13
8.03562e-13
-9.40203e-13
3.50528e-12
-1.78649e-12
4.9191e-12
-1.41382e-12
2.29188e-12
2.62721e-12
1.56051e-13
2.13583e-12
6.59612e-13
-5.03561e-13
2.09902e-12
-1.43941e-12
1.08473e-12
1.01429e-12
7.27577e-13
3.57153e-13
1.28079e-12
-5.53214e-13
1.1355e-12
1.45291e-13
1.21985e-12
-8.43457e-14
1.14335e-12
7.64954e-14
6.73599e-13
4.69752e-13
5.1339e-13
1.60209e-13
3.75738e-13
1.37652e-13
4.15524e-13
-3.9786e-14
4.45066e-13
-2.95417e-14
4.46704e-13
-1.63853e-15
4.3593e-13
1.07744e-14
4.3682e-13
-8.89736e-16
4.51498e-13
-1.46781e-14
4.83428e-13
-3.19302e-14
4.64205e-13
1.92227e-14
4.27778e-13
3.6427e-14
4.33204e-13
-5.42569e-15
4.8685e-13
-5.36464e-14
5.52432e-13
-6.55819e-14
5.10806e-13
4.16259e-14
4.47123e-13
6.36831e-14
3.61812e-13
8.53112e-14
4.71226e-13
-1.09414e-13
5.22467e-13
-5.12412e-14
4.94499e-13
2.79685e-14
5.08906e-13
-1.44076e-14
5.18875e-13
-9.96896e-15
5.64003e-13
-4.51283e-14
6.56397e-13
-9.23935e-14
8.2764e-13
-1.71244e-13
1.20866e-12
-3.81025e-13
1.97531e-12
-7.66645e-13
3.21575e-12
-1.24044e-12
6.32379e-12
-3.10804e-12
1.07395e-11
-4.4157e-12
4.35114e-12
6.38835e-12
-1.68999e-12
8.94505e-12
-6.38263e-12
7.75224e-12
-2.21018e-13
3.15914e-12
7.22032e-12
1.12874e-12
4.16623e-12
5.6599e-13
5.91939e-14
1.43071e-13
-1.01649e-12
3.82793e-13
7.74572e-13
7.8572e-13
-4.57739e-14
1.28655e-12
-1.05405e-12
1.74869e-12
-3.16841e-13
1.44968e-12
2.14662e-13
1.12934e-12
3.9683e-13
1.28758e-12
3.11516e-13
1.62783e-12
-1.80036e-13
1.3963e-12
3.69176e-13
1.26513e-12
9.13815e-14
1.29664e-12
-6.10432e-14
1.30256e-12
-7.56534e-15
1.27278e-12
4.05512e-14
1.25121e-12
2.06893e-14
1.2465e-12
-9.97353e-15
1.23669e-12
-2.21232e-14
1.24292e-12
1.30014e-14
1.20698e-12
7.23605e-14
1.20553e-12
-3.97473e-15
1.25448e-12
-1.02596e-13
1.28803e-12
-9.91341e-14
1.2962e-12
3.34571e-14
1.20857e-12
1.51319e-13
1.05006e-12
2.43815e-13
1.17988e-12
-2.39235e-13
1.24675e-12
-1.18106e-13
1.21173e-12
6.29858e-14
1.22196e-12
-2.46386e-14
1.21868e-12
-6.6898e-15
1.27617e-12
-1.02621e-13
1.38115e-12
-1.97367e-13
1.55417e-12
-3.44268e-13
1.95117e-12
-7.78022e-13
2.73619e-12
-1.55167e-12
3.79642e-12
-2.30068e-12
5.83561e-12
-5.14723e-12
1.12972e-11
-9.87725e-12
5.44963e-12
1.22359e-11
-4.42195e-12
9.93146e-12
-1.33564e-11
4.50837e-12
5.20208e-12
3.45937e-12
8.26931e-12
1.76276e-12
5.86284e-12
4.17162e-13
1.40479e-12
-1.04098e-12
4.41648e-13
-2.92429e-13
2.60218e-14
9.17297e-13
-1.2555e-12
1.81879e-12
-1.95555e-12
2.71975e-12
-1.2178e-12
2.33206e-12
6.02352e-13
1.52919e-12
1.1997e-12
1.26996e-12
5.70745e-13
2.15857e-12
-1.06865e-12
2.09072e-12
4.37025e-13
1.94482e-12
2.37283e-13
1.96699e-12
-8.32204e-14
1.97752e-12
-1.8095e-14
1.93528e-12
8.27985e-14
1.89903e-12
5.69356e-14
1.88729e-12
1.76322e-15
1.89913e-12
-3.39565e-14
1.91925e-12
-7.11931e-15
1.934e-12
5.76128e-14
1.9234e-12
6.62531e-15
1.91319e-12
-9.23864e-14
1.89735e-12
-8.3297e-14
1.88588e-12
4.49299e-14
1.78031e-12
2.56887e-13
1.6065e-12
4.17627e-13
1.82267e-12
-4.55408e-13
1.83346e-12
-1.28893e-13
1.78182e-12
1.14625e-13
1.79387e-12
-3.66925e-14
1.74172e-12
4.54616e-14
1.76549e-12
-1.26394e-13
1.81324e-12
-2.45113e-13
1.84652e-12
-3.7755e-13
1.98147e-12
-9.12971e-13
2.29739e-12
-1.86759e-12
2.74213e-12
-2.74542e-12
3.74377e-12
-6.14887e-12
2.89648e-12
-9.02995e-12
2.82761e-12
1.23048e-11
-1.27551e-11
-4.26341e-12
-7.17817e-12
-9.43736e-12
1.0376e-11
2.39639e-12
-3.56444e-12
2.46838e-12
5.79085e-12
1.01184e-12
2.86134e-12
-3.41425e-13
1.79491e-12
1.53988e-13
-4.69391e-13
1.31941e-12
-2.42092e-12
2.38148e-12
-3.01762e-12
3.52407e-12
-2.36039e-12
3.22221e-12
9.04221e-13
1.86284e-12
2.55907e-12
5.52168e-13
1.88142e-12
2.03268e-12
-2.54916e-12
2.35449e-12
1.15216e-13
2.33518e-12
2.56591e-13
2.41684e-12
-1.64877e-13
2.45517e-12
-5.64328e-14
2.41624e-12
1.2173e-13
2.37167e-12
1.01504e-13
2.36177e-12
1.16713e-14
2.37948e-12
-5.16726e-14
2.40667e-12
-3.43042e-14
2.42972e-12
3.45551e-14
2.42082e-12
1.55308e-14
2.39148e-12
-6.3047e-14
2.3533e-12
-4.5119e-14
2.31119e-12
8.70443e-14
2.15372e-12
4.14359e-13
2.01057e-12
5.60771e-13
2.39348e-12
-8.38318e-13
2.3462e-12
-8.16103e-14
2.26181e-12
1.99016e-13
2.2687e-12
-4.3588e-14
2.1783e-12
1.3586e-13
2.18102e-12
-1.2911e-13
2.15168e-12
-2.15769e-13
2.03958e-12
-2.65454e-13
1.87652e-12
-7.4991e-13
1.71881e-12
-1.70987e-12
1.78579e-12
-2.81241e-12
2.45448e-12
-6.81755e-12
1.53166e-12
-8.10713e-12
1.17971e-11
2.03929e-12
-1.62739e-11
1.07673e-11
-1.88857e-11
-1.07905e-11
3.19338e-11
-2.26722e-12
-1.20877e-11
7.15695e-13
2.80794e-12
2.58788e-13
3.31824e-12
-4.33897e-13
2.4876e-12
5.90115e-13
-1.4934e-12
1.5792e-12
-3.41001e-12
2.09406e-12
-3.53248e-12
3.15051e-12
-3.41684e-12
3.09601e-12
9.58719e-13
3.48049e-12
2.17459e-12
1.93994e-12
3.42197e-12
3.10869e-12
-3.71791e-12
2.42518e-12
7.98727e-13
2.44097e-12
2.40799e-13
2.65558e-12
-3.79482e-13
2.73444e-12
-1.35297e-13
2.69775e-12
1.58426e-13
2.65783e-12
1.41418e-13
2.65545e-12
1.40511e-14
2.68218e-12
-7.84024e-14
2.7113e-12
-6.34261e-14
2.73049e-12
1.53717e-14
2.71716e-12
2.88548e-14
2.68466e-12
-3.05486e-14
2.618e-12
2.15408e-14
2.55125e-12
1.53795e-13
2.41303e-12
5.52584e-13
2.29952e-12
6.74278e-13
2.86652e-12
-1.40531e-12
2.74301e-12
4.18931e-14
2.5595e-12
3.82528e-13
2.60445e-12
-8.85385e-14
2.45669e-12
2.83624e-13
2.43817e-12
-1.10595e-13
2.3864e-12
-1.64e-13
2.22036e-12
-9.94132e-14
1.85728e-12
-3.86826e-13
1.33702e-12
-1.18961e-12
8.73066e-13
-2.34845e-12
-2.90783e-13
-5.6537e-12
-1.95273e-12
-6.44519e-12
2.68838e-12
-2.60182e-12
-1.49261e-11
3.96753e-12
-2.26932e-11
3.37141e-12
3.25299e-11
5.77343e-13
-9.29361e-12
8.26698e-13
2.55858e-12
4.58218e-13
3.68672e-12
1.49291e-13
2.79652e-12
3.25912e-13
-1.67002e-12
4.02339e-13
-3.48643e-12
3.05498e-13
-3.43564e-12
6.99452e-14
-3.18129e-12
4.6847e-13
5.60194e-13
8.34708e-13
1.80835e-12
1.09614e-12
3.16054e-12
6.92511e-13
-3.31428e-12
4.22922e-13
1.06832e-12
4.91447e-13
1.72274e-13
5.94505e-13
-4.8254e-13
6.1883e-13
-1.59622e-13
6.10805e-13
1.66451e-13
6.04131e-13
1.48092e-13
6.06196e-13
1.19859e-14
6.13538e-13
-8.57438e-14
6.2013e-13
-7.00187e-14
6.22599e-13
1.29026e-14
6.17887e-13
3.35668e-14
6.07758e-13
-2.04189e-14
5.96163e-13
3.31356e-14
5.82057e-13
1.679e-13
5.56921e-13
5.7772e-13
5.67865e-13
6.63334e-13
6.73474e-13
-1.51092e-12
6.49632e-13
6.57356e-14
5.95441e-13
4.36719e-13
5.93834e-13
-8.69317e-14
5.77412e-13
3.00046e-13
5.63497e-13
-9.66793e-14
5.49496e-13
-1.5e-13
5.13886e-13
-6.38024e-14
4.27819e-13
-3.00759e-13
2.76683e-13
-1.03848e-12
3.43473e-14
-2.10612e-12
-5.36566e-13
-5.08279e-12
-1.13637e-12
-5.84538e-12
-1.26675e-12
-2.47145e-12
-1.49433e-11
-1.59618e-12
-2.0937e-11
4.90066e-12
2.6033e-11
2.39546e-12
-6.7884e-12
1.5668e-12
3.38724e-12
7.59731e-13
4.49379e-12
2.94183e-13
3.26207e-12
4.09487e-13
-1.78533e-12
4.33762e-13
-3.51071e-12
3.15135e-13
-3.31701e-12
1.03672e-13
-2.96982e-12
4.81074e-13
1.82792e-13
8.93112e-13
1.39632e-12
1.09285e-12
2.9608e-12
6.65449e-13
-2.88688e-12
3.46007e-13
1.38776e-12
4.69834e-13
4.84465e-14
5.96119e-13
-6.08824e-13
6.20523e-13
-1.84026e-13
6.12422e-13
1.74552e-13
6.06907e-13
1.53607e-13
6.10056e-13
8.83723e-15
6.17983e-13
-9.36711e-14
6.24556e-13
-7.65911e-14
6.26448e-13
1.10103e-14
6.20878e-13
3.91365e-14
6.10274e-13
-9.8142e-15
5.99008e-13
4.44013e-14
5.86824e-13
1.80084e-13
5.66101e-13
5.98443e-13
5.88633e-13
6.40802e-13
6.98944e-13
-1.62123e-12
6.62596e-13
1.02084e-13
6.01543e-13
4.97772e-13
5.95352e-13
-8.07408e-14
5.84539e-13
3.10858e-13
5.70332e-13
-8.24716e-14
5.55038e-13
-1.34706e-13
5.2059e-13
-2.93541e-14
4.33955e-13
-2.14124e-13
2.7671e-13
-8.81233e-13
7.51378e-15
-1.83692e-12
-5.85049e-13
-4.49023e-12
-8.51312e-13
-5.57912e-12
-1.84018e-12
-1.48257e-12
-1.43548e-11
-1.33105e-11
-7.46648e-12
6.12492e-12
6.5976e-12
3.81851e-12
-4.482e-12
2.45489e-12
4.75086e-12
1.15135e-12
5.79733e-12
5.08582e-13
3.90484e-12
4.95268e-13
-1.77201e-12
4.74098e-13
-3.48954e-12
3.77086e-13
-3.22e-12
3.0394e-13
-2.89668e-12
7.1401e-13
-2.27277e-13
8.06239e-13
1.30409e-12
1.00263e-12
2.76441e-12
4.69243e-13
-2.35349e-12
2.34581e-13
1.62242e-12
4.48414e-13
-1.65387e-13
5.99346e-13
-7.59756e-13
6.19947e-13
-2.04627e-13
6.11718e-13
1.82781e-13
6.07627e-13
1.57698e-13
6.1195e-13
4.51362e-15
6.20475e-13
-1.02196e-13
6.27004e-13
-8.312e-14
6.28303e-13
9.7114e-15
6.21923e-13
4.55169e-14
6.1082e-13
1.28867e-15
5.99954e-13
5.52678e-14
5.92226e-13
1.87812e-13
5.79579e-13
6.1109e-13
6.11183e-13
6.09197e-13
7.19077e-13
-1.72913e-12
6.71611e-13
1.4955e-13
6.07708e-13
5.61675e-13
5.95816e-13
-6.88484e-14
5.94108e-13
3.12565e-13
5.76805e-13
-6.51679e-14
5.57785e-13
-1.15686e-13
5.27505e-13
9.25703e-16
4.44089e-13
-1.30709e-13
2.83798e-13
-7.20941e-13
-5.60402e-15
-1.54752e-12
-6.20701e-13
-3.87513e-12
-9.91198e-13
-5.20862e-12
-2.95046e-12
4.76692e-13
-1.4242e-11
-1.65383e-12
-5.65266e-12
2.00052e-12
2.94326e-12
3.51577e-12
-5.99725e-12
3.07424e-12
5.19239e-12
1.51481e-12
7.35676e-12
6.82319e-13
4.73733e-12
5.84885e-13
-1.67458e-12
5.19693e-13
-3.42434e-12
4.39144e-13
-3.13945e-12
4.38071e-13
-2.89561e-12
8.12659e-13
-6.01865e-13
7.87215e-13
1.32953e-12
8.92287e-13
2.65934e-12
2.14043e-13
-1.67525e-12
9.33667e-14
1.7431e-12
4.73548e-13
-5.45568e-13
6.01376e-13
-8.87584e-13
6.16332e-13
-2.19583e-13
6.08599e-13
1.90515e-13
6.06337e-13
1.5996e-13
6.11892e-13
-1.04139e-15
6.20983e-13
-1.11287e-13
6.27442e-13
-8.95794e-14
6.28141e-13
9.01275e-15
6.21096e-13
5.25618e-14
6.0964e-13
1.27448e-14
5.99022e-13
6.58854e-14
5.96897e-13
1.89937e-13
5.99991e-13
6.07996e-13
6.36698e-13
5.72491e-13
7.30626e-13
-1.82305e-12
6.7548e-13
2.04696e-13
6.17001e-13
6.20154e-13
6.09143e-13
-6.09899e-14
5.99093e-13
3.22615e-13
5.81353e-13
-4.74283e-14
5.72724e-13
-1.07057e-13
5.39973e-13
3.36768e-14
4.55779e-13
-4.65151e-14
2.96709e-13
-5.61871e-13
-3.30684e-15
-1.2475e-12
-6.54417e-13
-3.22402e-12
-1.30341e-12
-4.55963e-12
-2.2117e-12
1.38499e-12
-1.5306e-11
-5.10999e-12
-3.82667e-13
-7.93851e-13
-1.37288e-12
1.82282e-12
-8.61392e-12
2.8886e-12
4.1266e-12
1.66552e-12
8.57985e-12
8.19106e-13
5.58374e-12
6.63598e-13
-1.51907e-12
5.69482e-13
-3.33023e-12
4.9028e-13
-3.06025e-12
4.34741e-13
-2.84007e-12
6.4206e-13
-8.09185e-13
7.14056e-13
1.25753e-12
8.22608e-13
2.55079e-12
2.40411e-13
-1.09305e-12
2.20943e-13
1.76257e-12
4.8702e-13
-8.11645e-13
6.02434e-13
-1.003e-12
6.09313e-13
-2.26461e-13
6.03221e-13
1.96607e-13
6.03103e-13
1.60077e-13
6.0989e-13
-7.82789e-15
6.19512e-13
-1.2091e-13
6.25858e-13
-9.59251e-14
6.25957e-13
8.91361e-15
6.18382e-13
6.01366e-14
6.06996e-13
2.4131e-14
5.98593e-13
7.42883e-14
5.99424e-13
1.89107e-13
6.18629e-13
5.88791e-13
6.74232e-13
5.16887e-13
7.26145e-13
-1.87497e-12
6.625e-13
2.68341e-13
6.36816e-13
6.45837e-13
6.15694e-13
-3.98676e-14
6.05272e-13
3.33037e-13
5.85811e-13
-2.79673e-14
5.73228e-13
-9.44735e-14
5.47574e-13
5.93311e-14
4.67125e-13
3.39336e-14
3.14318e-13
-4.09063e-13
1.61338e-14
-9.49321e-13
-6.08241e-13
-2.59965e-12
-1.34757e-12
-3.82031e-12
-4.66529e-13
5.03949e-13
-1.65883e-11
1.23536e-12
7.64644e-13
1.03852e-12
1.96841e-13
8.61719e-13
1.76797e-13
8.83844e-13
-2.21249e-14
2.3167e-13
6.52174e-13
2.35335e-12
4.11297e-13
2.44125e-12
1.08933e-13
2.57053e-12
4.75176e-14
3.18475e-12
-6.36343e-13
-8.57279e-13
4.2737e-12
2.68053e-12
-2.69229e-13
2.92773e-12
-1.38275e-13
3.05791e-12
-8.26621e-14
2.96876e-12
-5.47193e-13
-2.27388e-12
4.38537e-12
2.409e-12
-6.78229e-13
2.48153e-12
-2.1081e-13
2.47103e-12
-7.21557e-14
2.06861e-12
-1.44775e-13
-1.11984e-12
9.14564e-13
1.32177e-12
1.11096e-12
1.03881e-12
8.94031e-13
-2.25807e-13
-2.19804e-11
2.22499e-11
-1.65553e-11
-6.79795e-12
-2.82906e-12
-2.23402e-11
4.31938e-12
-3.02184e-12
5.54392e-12
7.35531e-12
4.56119e-12
6.56647e-12
3.76687e-12
-7.24751e-13
3.17938e-12
-2.74273e-12
2.57919e-12
-2.46007e-12
1.81821e-12
-2.07908e-12
1.796e-12
-7.86971e-13
2.11566e-12
9.37871e-13
3.15758e-12
1.50887e-12
1.89899e-12
1.65531e-13
2.39221e-12
1.26934e-12
2.65102e-12
-1.07045e-12
2.67038e-12
-1.02236e-12
2.6239e-12
-1.79987e-13
2.61664e-12
2.03865e-13
2.65099e-12
1.25728e-13
2.69565e-12
-5.24822e-14
2.74621e-12
-1.71474e-13
2.77052e-12
-1.20238e-13
2.76505e-12
1.43888e-14
2.72793e-12
9.7257e-14
2.67689e-12
7.51721e-14
2.65673e-12
9.44468e-14
2.6996e-12
1.46241e-13
2.95121e-12
3.3718e-13
3.22506e-12
2.4303e-13
2.62202e-12
-1.27192e-12
2.75071e-12
1.3965e-13
2.97173e-12
4.24815e-13
2.84467e-12
8.72002e-14
2.7854e-12
3.92305e-13
2.67545e-12
8.198e-14
2.5673e-12
1.36811e-14
2.47063e-12
1.55996e-13
2.24962e-12
2.5495e-13
1.70734e-12
1.33217e-13
5.46579e-13
2.11436e-13
-1.22597e-12
-8.27098e-13
-2.42805e-12
-2.61823e-12
3.76491e-12
-5.68902e-12
-1.6638e-11
1.2913e-11
1.36106e-11
2.46781e-12
3.64722e-12
-4.39769e-12
-1.54747e-11
-1.01069e-13
-7.31846e-12
2.62019e-12
4.63405e-12
4.78526e-12
4.40139e-12
4.5314e-12
-4.70884e-13
3.67013e-12
-1.88147e-12
2.80864e-12
-1.59857e-12
2.00771e-12
-1.27815e-12
1.64519e-12
-4.24453e-13
1.84105e-12
7.42009e-13
2.51071e-12
8.39217e-13
2.3152e-12
3.61039e-13
2.91397e-12
6.70577e-13
2.70045e-12
-8.56933e-13
2.38939e-12
-7.11301e-13
2.28158e-12
-7.2177e-14
2.36851e-12
1.16942e-13
2.43358e-12
6.0653e-14
2.45433e-12
-7.32346e-14
2.49685e-12
-2.13994e-13
2.4977e-12
-1.21085e-13
2.47352e-12
3.8573e-14
2.43323e-12
1.37539e-13
2.41275e-12
9.566e-14
2.41284e-12
9.43566e-14
2.46662e-12
9.24567e-14
2.65373e-12
1.50073e-13
2.80798e-12
8.87807e-14
2.28664e-12
-7.50587e-13
2.3474e-12
7.88953e-14
2.55486e-12
2.17351e-13
2.60808e-12
3.39806e-14
2.76326e-12
2.37122e-13
2.83916e-12
6.07845e-15
2.79487e-12
5.79719e-14
2.62723e-12
3.23638e-13
2.51586e-12
3.66325e-13
2.24153e-12
4.07541e-13
1.68402e-12
7.68948e-13
4.42879e-13
4.14043e-13
-2.40843e-12
2.33087e-13
-7.25123e-12
-8.46223e-13
-9.48492e-12
1.2411e-11
5.58497e-12
9.67265e-12
6.38557e-12
7.20331e-13
-6.52236e-12
-1.25914e-12
-5.33899e-12
1.32153e-12
2.05338e-12
4.01296e-12
1.70996e-12
4.06003e-12
-5.17958e-13
3.29355e-12
-1.11499e-12
2.51261e-12
-8.17627e-13
1.88652e-12
-6.52073e-13
1.67512e-12
-2.1305e-13
1.79894e-12
6.18188e-13
2.13307e-12
5.05087e-13
2.18062e-12
3.13495e-13
2.56063e-12
2.90566e-13
2.28365e-12
-5.79959e-13
1.96109e-12
-3.88739e-13
1.92334e-12
-3.44254e-14
1.9639e-12
7.6383e-14
2.02431e-12
2.42543e-16
2.04144e-12
-9.03664e-14
2.03828e-12
-2.10834e-13
1.99661e-12
-7.94168e-14
1.97145e-12
6.37339e-14
1.95309e-12
1.55903e-13
1.97617e-12
7.25812e-14
1.99064e-12
7.98892e-14
2.05059e-12
3.25067e-14
2.1471e-12
5.35572e-14
2.22361e-12
1.2273e-14
1.87474e-12
-4.01722e-13
1.88034e-12
7.33039e-14
1.98553e-12
1.1216e-13
2.02423e-12
-4.72678e-15
2.23478e-12
2.65742e-14
2.2819e-12
-4.10418e-14
2.30157e-12
3.83002e-14
2.34015e-12
2.85063e-13
2.45155e-12
2.5492e-13
2.50255e-12
3.56548e-13
2.55513e-12
7.16368e-13
2.33804e-12
6.31129e-13
1.6718e-12
8.99331e-13
-1.08073e-12
1.90631e-12
-5.13121e-12
4.76981e-12
1.72972e-12
8.49097e-12
2.66442e-12
1.96091e-12
7.70578e-15
-1.38038e-12
-1.99769e-12
1.1833e-12
-5.10304e-13
2.90801e-12
-1.47447e-14
2.8733e-12
-4.83248e-13
2.20988e-12
-4.51573e-13
1.66728e-12
-2.75025e-13
1.23749e-12
-2.22282e-13
1.05891e-12
-3.44691e-14
1.34614e-12
3.30952e-13
1.57037e-12
2.80862e-13
1.73665e-12
1.47209e-13
1.94589e-12
8.13325e-14
1.61501e-12
-2.49079e-13
1.38182e-12
-1.55555e-13
1.37285e-12
-2.54537e-14
1.40078e-12
4.84573e-14
1.41534e-12
-1.43219e-14
1.39573e-12
-7.07511e-14
1.34067e-12
-1.55777e-13
1.22739e-12
3.38606e-14
1.26528e-12
2.58523e-14
1.33085e-12
9.03258e-14
1.38225e-12
2.11803e-14
1.39752e-12
6.46186e-14
1.44514e-12
-1.51056e-14
1.48751e-12
1.11817e-14
1.5114e-12
-1.16165e-14
1.27598e-12
-1.66299e-13
1.31881e-12
3.04779e-14
1.39969e-12
3.12804e-14
1.36915e-12
2.58072e-14
1.43045e-12
-3.47254e-14
1.41165e-12
-2.22458e-14
1.40143e-12
4.853e-14
1.61073e-12
7.57628e-14
1.84101e-12
2.46408e-14
2.09012e-12
1.07436e-13
2.51891e-12
2.87578e-13
2.89337e-12
2.56672e-13
3.35252e-12
4.40173e-13
4.17599e-12
1.08284e-12
-2.21055e-12
1.50392e-12
4.16833e-12
4.17604e-12
2.17835e-12
1.66804e-12
1.6533e-12
1.17005e-12
7.18478e-13
4.43453e-13
2.21171e-13
1.86702e-13
5.17654e-13
7.98516e-13
9.45725e-13
1.02706e-12
7.77978e-13
6.22423e-13
5.96969e-13
6.45427e-13
6.31105e-13
5.60354e-13
4.04577e-13
4.38437e-13
4.6429e-13
5.54615e-13
5.75796e-13
6.40414e-13
6.25309e-13
6.3649e-13
6.24874e-13
4.58575e-13
4.89053e-13
5.20333e-13
5.4614e-13
5.11415e-13
4.89169e-13
5.37699e-13
6.13462e-13
6.38103e-13
7.45539e-13
1.03312e-12
1.28979e-12
1.72996e-12
2.81281e-12
)
;

boundaryField
{
    AirInlet
    {
        type            calculated;
        value           nonuniform List<scalar> 5(-1.6e-13 -1.6e-13 -1.6e-13 -1.6e-13 -1.6e-13);
    }
    WaterInlet
    {
        type            calculated;
        value           nonuniform List<scalar> 10(-2e-12 -2e-12 -2e-12 -2e-12 -2e-12 -2e-12 -2e-12 -2e-12 -2e-12 -2e-12);
    }
    ChannelWall
    {
        type            calculated;
        value           uniform 0;
    }
    Outlet
    {
        type            calculated;
        value           nonuniform List<scalar> 
15
(
6.04113e-12
8.18159e-12
1.11608e-11
1.5316e-11
1.34057e-12
-1.24958e-12
-2.42869e-12
-3.06324e-12
-1.14767e-12
8.15766e-13
3.81456e-12
-1.44043e-11
-5.43445e-12
1.25533e-12
6.02259e-13
)
;
    }
    FrontAndBack
    {
        type            empty;
        value           nonuniform 0();
    }
}


// ************************************************************************* //
