/*--------------------------------*- C++ -*----------------------------------*\
| =========                 |                                                 |
| \\      /  F ield         | OpenFOAM: The Open Source CFD Toolbox           |
|  \\    /   O peration     | Version:  2.3.0                                 |
|   \\  /    A nd           | Web:      www.OpenFOAM.org                      |
|    \\/     M anipulation  |                                                 |
\*---------------------------------------------------------------------------*/
FoamFile
{
    version     2.0;
    format      ascii;
    class       volVectorField;
    location    "0.038";
    object      U;
}
// * * * * * * * * * * * * * * * * * * * * * * * * * * * * * * * * * * * * * //

dimensions      [0 1 -1 0 0 0 0];

internalField   nonuniform List<vector> 
725
(
(0.0474577 0.00707273 -2.70847e-31)
(0.0515892 0.00183812 5.52243e-32)
(0.0390546 0.000498791 3.87695e-32)
(0.0269529 0.000864015 0)
(0.0371066 0.00251436 -1.96397e-31)
(0.0909166 0.0143606 -1.18377e-30)
(0.106002 0.00788705 2.15489e-31)
(0.0863702 0.00606126 1.93119e-31)
(0.0691337 0.00923941 0)
(0.0722048 0.0279203 -1.15562e-30)
(0.103433 0.0100306 -2.3439e-31)
(0.12262 0.0118555 3.26422e-32)
(0.102221 0.0116697 2.36953e-31)
(0.0877693 0.0176466 0)
(0.115566 0.0463577 -8.55004e-31)
(0.0914611 0.0033984 1.63552e-30)
(0.104112 0.0124841 -8.32576e-33)
(0.0848276 0.0129239 3.03991e-31)
(0.075658 0.0147591 0)
(0.122633 0.0369473 -1.03426e-30)
(0.047314 0.00178587 1.70965e-30)
(0.0490286 0.00797215 -1.30256e-31)
(0.0360197 0.0070005 6.2167e-32)
(0.0318289 0.00542827 5.04482e-31)
(0.0390983 0.0111156 -4.73436e-31)
(-0.0455786 0.0170828 0)
(-0.144261 0.00625268 0)
(-0.240026 0.00352133 0)
(-0.0561289 -0.0684904 0)
(0.203534 -0.0355603 0)
(0.421895 -0.0612921 0)
(0.493297 0.0467416 0)
(0.21019 0.0404958 0)
(0.0623355 0.0134491 0)
(0.0382468 0.000276502 0)
(0.0446967 -0.00224636 0)
(0.0459361 0.000989772 0)
(0.0338432 0.00145551 0)
(0.0251329 0.000741973 0)
(0.0213606 0.000354193 0)
(0.0195353 0.000194284 0)
(0.0168485 0.000458303 0)
(0.0144231 0.000146643 0)
(0.0142108 -1.296e-05 0)
(0.0139423 8.00594e-05 0)
(0.0134963 0.000150867 0)
(0.00958513 0.000504789 0)
(0.00653122 0.000554581 0)
(-0.00170184 0.000441425 0)
(0.000216192 0.000253562 0)
(-0.0136958 -0.000472098 0)
(-0.00314488 -0.0261633 0)
(0.180567 0.00265402 0)
(0.17213 -0.00972907 0)
(0.210733 -0.0223235 0)
(0.358377 0.0048392 0)
(0.0168682 0.0873111 0)
(-0.000662444 0.0101708 0)
(0.0217806 0.00522462 0)
(0.00526681 0.000291361 0)
(0.014661 -0.000258304 0)
(0.016833 -0.000385612 0)
(0.0127033 0.000167741 0)
(0.0260891 -0.000250005 0)
(-0.000522453 0.000908718 0)
(0.0408794 0.000434521 0)
(-0.0272179 0.00880289 0)
(0.0223497 0.0154121 0)
(-0.250539 0.136569 0)
(-0.529925 -0.00972471 0)
(-0.0523719 0.0731834 0)
(-0.0660643 0.0597274 0)
(-0.110166 0.0120743 0)
(0.0861027 -0.206822 0)
(0.175983 -0.128178 0)
(0.111832 -0.125832 0)
(0.241983 0.0937772 0)
(0.201868 0.119503 0)
(0.123945 0.0560776 0)
(0.0985724 0.00656792 0)
(0.103329 -0.00533774 0)
(0.0983189 0.00712684 0)
(0.0743659 0.00899418 0)
(0.0578961 0.00477968 0)
(0.0509821 0.0022088 0)
(0.04767 0.00150517 0)
(0.0428429 0.00249686 0)
(0.0385548 0.000969194 0)
(0.0383535 6.59792e-06 0)
(0.0379685 0.000505765 0)
(0.0371216 0.00160375 0)
(0.0293208 0.00335751 0)
(0.0246864 0.00448753 0)
(0.00851117 0.00316118 0)
(0.0165736 0.00424237 0)
(-0.0129605 0.00190466 0)
(-0.0139505 -0.077019 0)
(0.0433972 -0.0412618 0)
(0.221051 -0.0172056 0)
(0.163349 -0.0575245 0)
(0.225301 0.019179 0)
(-0.0214948 0.110033 0)
(-0.0214467 -0.0217332 0)
(0.0450754 -0.00535243 0)
(0.026922 -0.00216004 0)
(0.0402917 -0.00225653 0)
(0.0449919 -0.00146477 0)
(0.0381015 -0.00049284 0)
(0.059611 0.000354364 0)
(0.017443 0.000789307 0)
(0.0904019 0.00273457 0)
(-0.0225855 0.0156102 0)
(0.176956 0.0408805 0)
(-0.10311 0.205116 0)
(0.384776 -0.105233 0)
(0.0566347 0.0803603 0)
(0.222589 -0.0152459 0)
(0.566461 -0.0328639 0)
(0.452494 -0.161493 0)
(0.218849 -0.0482555 0)
(-0.022474 -0.0340504 0)
(0.0119819 0.0218318 0)
(0.159197 0.105674 0)
(0.147101 0.0673709 0)
(0.131331 0.00893094 0)
(0.137421 -0.00700238 0)
(0.129091 0.0178111 0)
(0.099665 0.0195231 0)
(0.0804884 0.0104779 0)
(0.0717158 0.00490634 0)
(0.067756 0.00326252 0)
(0.0626218 0.00510339 0)
(0.0579491 0.00196709 0)
(0.0579695 -7.63503e-05 0)
(0.0577979 0.000932107 0)
(0.0570397 0.00333272 0)
(0.0483032 0.00667103 0)
(0.0440458 0.00884337 0)
(0.0254162 0.00521316 0)
(0.0364788 0.00813355 0)
(0.0050537 0.0111047 0)
(-0.0168659 -0.0720329 0)
(-0.121413 -0.0746871 0)
(0.190612 -0.0728963 0)
(-0.0565521 0.120855 0)
(0.310566 -0.0123293 0)
(0.0946089 0.225448 0)
(0.00169004 -0.023519 0)
(0.077843 0.00134361 0)
(0.052163 -0.00372353 0)
(0.0612659 -0.00327125 0)
(0.0664596 -0.00278293 0)
(0.0587136 -0.000861797 0)
(0.0827122 -0.000119773 0)
(0.0373631 0.000706661 0)
(0.120145 -0.000312669 0)
(0.00285634 0.0012177 0)
(0.237397 0.0109291 0)
(0.118036 0.11961 0)
(0.26471 0.0742314 0)
(0.118685 0.0399655 0)
(0.409667 -0.197157 0)
(0.352296 -0.078889 0)
(-0.264202 -0.0471758 0)
(-0.0499973 -0.0331686 0)
(0.0254435 -0.0167939 0)
(0.162193 -0.0357249 0)
(0.236268 0.0917337 0)
(0.171134 0.078675 0)
(0.136463 0.00803482 0)
(0.148232 -0.00864642 0)
(0.14108 0.030391 0)
(0.111903 0.0301817 0)
(0.0937615 0.0169306 0)
(0.083757 0.0081274 0)
(0.0800167 0.0048964 0)
(0.0761917 0.00773545 0)
(0.0722571 0.00287478 0)
(0.0727012 -0.00038701 0)
(0.0727947 0.00131062 0)
(0.072205 0.0050774 0)
(0.0637096 0.0101063 0)
(0.0595953 0.0136409 0)
(0.0364153 0.00834159 0)
(0.0356452 0.0135322 0)
(-0.00062919 0.0291848 0)
(-0.0548072 -0.02603 0)
(-0.226962 -0.086044 0)
(0.243628 -0.361248 0)
(0.759178 0.0191524 0)
(0.713039 -0.0389633 0)
(0.0833739 0.351879 0)
(-0.0645216 -0.0421591 0)
(0.0843152 -0.0133978 0)
(0.0576416 -0.00764266 0)
(0.0724636 -0.00427974 0)
(0.0787537 -0.0044221 0)
(0.0711445 -0.0014695 0)
(0.0956874 -0.000938119 0)
(0.0502193 0.000433414 0)
(0.132222 -0.00443511 0)
(0.00964247 -0.00802362 0)
(0.195522 -0.0234231 0)
(0.0917514 0.0433852 0)
(0.32261 0.00971823 0)
(0.156275 -0.0389838 0)
(1.96719 -0.013301 0)
(-1.29799 0.542037 0)
(-0.061662 -0.0337803 0)
(0.282664 -0.122578 0)
(-0.0261124 -0.0411738 0)
(0.139422 -0.100959 0)
(0.307256 0.10642 0)
(0.19735 0.109129 0)
(0.12229 0.00611228 0)
(0.136764 -0.0107651 0)
(0.130015 0.0408156 0)
(0.108901 0.038258 0)
(0.0965609 0.0231967 0)
(0.0879494 0.0112534 0)
(0.0854725 0.00517587 0)
(0.0843652 0.00991805 0)
(0.0830687 0.00329338 0)
(0.0835268 -0.000924672 0)
(0.0829775 0.00173684 0)
(0.0826296 0.00664777 0)
(0.0754372 0.0135709 0)
(0.0722031 0.0198539 0)
(0.0424729 0.0171268 0)
(0.0230646 0.0246318 0)
(-0.00428765 0.0512371 0)
(-0.0658982 0.00991782 0)
(-0.293264 -0.0496264 0)
(0.112028 -0.737352 0)
(-0.656257 -0.0433551 0)
(-1.01248 0.332136 0)
(-0.00647296 0.380441 0)
(0.00285298 -0.0735402 0)
(0.110058 -0.0289633 0)
(0.0715687 -0.0111517 0)
(0.0805391 -0.00445647 0)
(0.0856609 -0.00629076 0)
(0.0773342 -0.00115426 0)
(0.101185 -0.00300548 0)
(0.0556222 0.00242252 0)
(0.13598 -0.00961565 0)
(0.0106278 -0.00944569 0)
(0.212362 -0.0490999 0)
(0.1172 -0.0828887 0)
(0.414305 -0.00719734 0)
(0.22453 -0.940545 0)
(1.26311 0.472945 0)
(-0.743075 1.04815 0)
(-0.342126 -0.846016 0)
(0.425115 -0.116438 0)
(-0.430929 0.0429541 0)
(0.0287532 -0.209618 0)
(0.38389 0.100585 0)
(0.228863 0.14362 0)
(0.117936 0.0146272 0)
(0.137302 -0.00867004 0)
(0.118454 0.0462171 0)
(0.0974283 0.0410228 0)
(0.0935965 0.0251756 0)
(0.0884585 0.0124561 0)
(0.0853122 0.00542993 0)
(0.0857017 0.00985382 0)
(0.0881124 0.0030697 0)
(0.0879069 -0.000787514 0)
(0.086316 0.00198335 0)
(0.0864086 0.00739842 0)
(0.0808183 0.014826 0)
(0.0793948 0.0241964 0)
(0.0495665 0.0246768 0)
(0.0285066 0.0295175 0)
(0.0275623 0.0580956 0)
(-0.0181231 0.0378266 0)
(-0.467292 -0.00929324 0)
(-0.0198186 -0.501743 0)
(-3.0287 0.223077 0)
(-1.88578 0.137979 0)
(0.197319 0.0699192 0)
(0.117375 -0.0848263 0)
(0.120604 -0.0208004 0)
(0.0727617 -0.00925324 0)
(0.0816845 -0.0049568 0)
(0.0865782 -0.00661696 0)
(0.077762 -0.00194478 0)
(0.101916 -0.00235089 0)
(0.0555009 0.00171665 0)
(0.134753 -0.00823875 0)
(0.00102222 -0.011754 0)
(0.171593 -0.0537968 0)
(-0.104944 -0.0987266 0)
(-0.157585 0.0221219 0)
(-0.411226 -0.969591 0)
(-0.609352 0.530435 0)
(-0.374637 1.14719 0)
(-1.0852 -0.946487 0)
(0.667216 -0.086826 0)
(-0.683754 0.108447 0)
(0.129616 -0.285755 0)
(0.463526 0.0977045 0)
(0.233193 0.160685 0)
(0.107537 0.0183885 0)
(0.139379 -0.00856861 0)
(0.120475 0.0486028 0)
(0.0940996 0.0420971 0)
(0.0919936 0.0256118 0)
(0.08834 0.0128053 0)
(0.0855752 0.00556793 0)
(0.0865878 0.00965781 0)
(0.0896273 0.00295303 0)
(0.0890806 -0.00067751 0)
(0.0872601 0.00206305 0)
(0.0875454 0.0076445 0)
(0.0825907 0.0151578 0)
(0.0819914 0.025731 0)
(0.0525852 0.027363 0)
(0.0294374 0.0304977 0)
(0.0315495 0.0602889 0)
(-0.0248674 0.0637151 0)
(-0.464936 -0.00391703 0)
(0.0198394 -0.350051 0)
(-4.37042 0.384297 0)
(-2.04339 -0.0709547 0)
(0.32413 -0.0812008 0)
(0.180755 -0.0759532 0)
(0.123675 -0.0156603 0)
(0.0731342 -0.00793739 0)
(0.0818815 -0.00538169 0)
(0.0866989 -0.00658058 0)
(0.0777207 -0.00246443 0)
(0.101965 -0.00173828 0)
(0.0553321 0.000989518 0)
(0.134342 -0.00689237 0)
(-0.00199599 -0.0119992 0)
(0.163972 -0.0493971 0)
(-0.13707 -0.0727456 0)
(-0.203792 0.00460646 0)
(-0.921349 -0.394856 0)
(-4.74966 0.306434 0)
(0.090489 1.16203 0)
(-1.03425 -0.915137 0)
(-0.235664 -0.287981 0)
(0.23505 0.170544 0)
(0.618353 -0.331271 0)
(0.612788 0.113106 0)
(0.226923 0.182143 0)
(0.0945671 0.0221894 0)
(0.13508 -0.00945802 0)
(0.120975 0.0513311 0)
(0.0918201 0.0433968 0)
(0.0902229 0.0258952 0)
(0.0878875 0.0130715 0)
(0.0856346 0.00565687 0)
(0.0871539 0.00940398 0)
(0.0906093 0.00282738 0)
(0.0898511 -0.000542518 0)
(0.0879132 0.0021382 0)
(0.0884298 0.00785308 0)
(0.0841272 0.0154031 0)
(0.0845609 0.0271808 0)
(0.0561201 0.0300758 0)
(0.0299972 0.0314344 0)
(0.0291515 0.0635281 0)
(-0.0340897 0.0896774 0)
(-0.312371 -0.0136177 0)
(0.132732 -0.17269 0)
(-5.17445 0.587502 0)
(-1.73035 -0.417805 0)
(0.370023 -0.223522 0)
(0.207309 -0.0572622 0)
(0.125391 -0.0100095 0)
(0.0735189 -0.0063257 0)
(0.0818585 -0.00587361 0)
(0.0865849 -0.0064874 0)
(0.0774506 -0.00304749 0)
(0.101757 -0.000998256 0)
(0.0550087 0.000110108 0)
(0.133882 -0.0051715 0)
(-0.00440634 -0.0122442 0)
(0.173835 -0.0448735 0)
(-0.102125 -0.044798 0)
(-0.136362 -0.0245761 0)
(-0.402978 -0.213998 0)
(-1.67556 0.0545878 0)
(0.450877 1.11408 0)
(-0.855733 -0.842953 0)
(-3.15472 -0.282766 0)
(-1.14602 0.118181 0)
(0.182271 -0.397259 0)
(0.453667 0.139375 0)
(0.202472 0.202721 0)
(0.0782563 0.0255442 0)
(0.122374 -0.0113229 0)
(0.116236 0.0539556 0)
(0.0884095 0.0447143 0)
(0.0881944 0.0260767 0)
(0.0871188 0.0132373 0)
(0.0854431 0.00568425 0)
(0.0873641 0.00911653 0)
(0.0910907 0.00269147 0)
(0.0902334 -0.000399762 0)
(0.088269 0.00220474 0)
(0.089048 0.00801334 0)
(0.085482 0.0155627 0)
(0.0870244 0.0285011 0)
(0.0605753 0.032746 0)
(0.0349885 0.032562 0)
(0.0316548 0.0676023 0)
(-0.0247903 0.109417 0)
(-0.250583 -0.0297669 0)
(0.123903 -0.0211045 0)
(-3.144 0.75116 0)
(-0.741187 -0.68062 0)
(0.308507 -0.328249 0)
(0.134855 -0.0399369 0)
(0.125498 -0.00564035 0)
(0.0741381 -0.00462523 0)
(0.0820338 -0.0063392 0)
(0.0863536 -0.00638176 0)
(0.0770144 -0.00362494 0)
(0.101362 -0.000255484 0)
(0.0545645 -0.000757135 0)
(0.133306 -0.00336365 0)
(-0.00639152 -0.0126044 0)
(0.180042 -0.0418068 0)
(-0.0838064 -0.0320841 0)
(-0.053392 -0.00217644 0)
(-0.253001 -0.154471 0)
(-0.64909 -0.0418582 0)
(1.10309 1.12769 0)
(-0.439041 -0.697118 0)
(-2.20806 -0.16105 0)
(-2.49234 -0.238758 0)
(-0.355092 -0.525661 0)
(0.151621 0.135285 0)
(0.170975 0.214485 0)
(0.0653843 0.0286203 0)
(0.09858 -0.0133873 0)
(0.100252 0.0558237 0)
(0.0819628 0.0455518 0)
(0.0848487 0.0260374 0)
(0.0859654 0.0132791 0)
(0.0849619 0.00566791 0)
(0.0872061 0.00879707 0)
(0.0910924 0.00255395 0)
(0.0902306 -0.00025497 0)
(0.0883161 0.00225959 0)
(0.0893757 0.0081142 0)
(0.0865992 0.0156345 0)
(0.0893901 0.0296386 0)
(0.0655347 0.0352181 0)
(0.0427127 0.0338246 0)
(0.0375429 0.0712193 0)
(0.00219646 0.123091 0)
(-0.17164 -0.0449761 0)
(0.17354 0.0570378 0)
(0.122154 0.786258 0)
(0.309795 -0.575813 0)
(0.349866 -0.340971 0)
(0.0920744 -0.0291514 0)
(0.125679 -0.00256007 0)
(0.0749304 -0.00304321 0)
(0.0826524 -0.00669078 0)
(0.0863163 -0.00627386 0)
(0.0764885 -0.0041112 0)
(0.100672 0.000383477 0)
(0.053845 -0.00143087 0)
(0.13254 -0.00172126 0)
(-0.00820129 -0.0126267 0)
(0.170282 -0.0387852 0)
(-0.126013 -0.0309389 0)
(-0.0154619 0.00517143 0)
(0.0468805 -0.00169437 0)
(0.049978 -0.00832774 5.87643e-32)
(0.0367327 -0.00762197 9.08559e-32)
(0.0507253 -0.0137704 4.33152e-31)
(0.0902333 -0.0186732 0)
(0.090473 -0.00329529 0)
(0.105803 -0.0132531 0)
(0.0820059 -0.0146436 0)
(0.0974074 -0.0321387 5.71872e-31)
(0.108831 -0.0382627 0)
(0.102202 -0.00994966 0)
(0.124418 -0.0125118 0)
(0.0962418 -0.0130709 0)
(0.103113 -0.0297745 5.45878e-31)
(0.0376208 -0.0316937 0)
(0.0898019 -0.0143179 0)
(0.107525 -0.00816507 0)
(0.0799666 -0.00641227 0)
(0.0813137 -0.0136713 -1.26689e-31)
(-0.00350538 -0.00600908 0)
(0.0468701 -0.00709401 0)
(0.0523774 -0.00182298 0)
(0.0356368 -0.000551877 0)
(0.0388504 -0.000726067 3.71713e-33)
(-0.00386781 0.00351491 0)
(0.0366748 -0.0503166 0)
(-0.259609 -0.208353 0)
(1.15165 1.07007 0)
(0.502295 -0.242328 0)
(-0.588774 0.0947534 0)
(0.950361 0.323339 0)
(-0.306578 -0.546762 0)
(-0.100455 0.0652637 0)
(0.103366 0.210295 0)
(0.0528786 0.044007 0)
(0.00169822 -0.0129389 0)
(0.0211589 0.0550651 0)
(0.0599283 0.0442717 0)
(0.0745864 0.0246906 0)
(0.0816092 0.0128848 0)
(0.0827823 0.00552774 0)
(0.0858053 0.00775203 0)
(0.0898844 0.00219458 0)
(0.0892098 0.000133919 0)
(0.087594 0.00237452 0)
(0.0894439 0.00817173 0)
(0.0888824 0.0156494 0)
(0.0954723 0.0321195 0)
(0.0801887 0.0414595 0)
(0.0656362 0.0384618 0)
(0.0407564 0.0739377 0)
(0.0425154 0.140089 0)
(0.106227 -0.0956121 0)
(0.310213 -0.0960729 0)
(3.36734 -0.0798517 0)
(1.56544 -0.214599 0)
(0.542981 -0.0757926 0)
(0.12995 0.0384116 0)
(0.12805 0.00771609 0)
(0.0769172 0.000128193 0)
(0.0843571 -0.00707876 0)
(0.0862431 -0.006063 0)
(0.0745644 -0.00479463 0)
(0.0981247 0.00104122 0)
(0.0515607 -0.00179279 0)
(0.130639 0.00105723 0)
(-0.0127311 -0.0102337 0)
(0.145635 -0.0278853 0)
(-0.216382 -0.0397512 0)
(0.137403 0.00490094 0)
(0.100182 0.0281163 0)
(-0.1203 -0.312071 0)
(-0.362707 0.690662 0)
(0.645129 0.111801 0)
(0.129532 0.00332591 0)
(-1.16896 -0.673843 0)
(-0.447752 -0.1622 0)
(-0.231835 -0.0582633 0)
(-0.0273153 0.149943 0)
(0.00943717 0.064168 0)
(-0.0305206 -0.000693718 0)
(-0.0105223 0.0304737 0)
(0.0427761 0.0287599 0)
(0.060002 0.0174499 0)
(0.0705466 0.00990602 0)
(0.0741723 0.0046732 0)
(0.0779144 0.00547405 0)
(0.0817587 0.00162637 0)
(0.0816347 0.000564675 0)
(0.0807616 0.00224932 0)
(0.0835983 0.00689391 0)
(0.0863588 0.0138499 0)
(0.0996344 0.0298464 0)
(0.10286 0.0441656 0)
(0.117911 0.0460507 0)
(0.0862354 0.0694619 0)
(0.12848 0.136986 0)
(0.130823 -0.154311 0)
(-0.0180701 -0.361668 0)
(-0.263221 -0.465293 0)
(-0.17859 0.623189 0)
(0.0551146 0.165086 0)
(0.0231016 0.0643337 0)
(0.117265 0.00930696 0)
(0.076021 0.000953509 0)
(0.0811407 -0.00549721 0)
(0.080887 -0.00535235 0)
(0.0674618 -0.00355103 0)
(0.0911122 -0.000343382 0)
(0.04353 0.00124899 0)
(0.124537 0.00239796 0)
(-0.0202815 0.00798937 0)
(0.111173 0.0161456 0)
(-0.300051 0.00156902 0)
(-0.109267 -0.0565624 0)
(0.071354 0.0576125 0)
(0.0528313 -0.078974 0)
(-0.0920777 0.275528 0)
(0.594926 0.14034 0)
(0.561902 0.151665 0)
(0.276742 -0.125841 0)
(-0.0860512 -0.499927 0)
(-0.186904 -0.130169 0)
(-0.106837 0.0921643 0)
(-0.0165438 0.0571412 0)
(-0.0134415 -0.00120981 0)
(-0.0105946 0.0133785 0)
(0.0303627 0.0156805 0)
(0.0445972 0.0104025 0)
(0.0550871 0.00639903 0)
(0.0597086 0.00324172 0)
(0.063642 0.00337789 0)
(0.0669271 0.000910199 0)
(0.0672552 0.000660144 0)
(0.0672173 0.00176723 0)
(0.0707394 0.0048937 0)
(0.0757233 0.00997721 0)
(0.0938596 0.0221771 0)
(0.110904 0.0367671 0)
(0.153876 0.0442 0)
(0.125509 0.0689978 0)
(0.170521 0.130357 0)
(0.197323 -0.11578 0)
(0.115524 -0.136962 0)
(-0.295085 -0.335628 0)
(-0.510376 0.203242 0)
(-0.0193957 -0.117567 0)
(-0.0282986 0.0417851 0)
(0.093253 -0.00177124 0)
(0.0638974 0.00110582 0)
(0.07113 -0.00359333 0)
(0.0699486 -0.00381352 0)
(0.0556435 -0.00241825 0)
(0.0786806 -0.000178415 0)
(0.0314757 0.00158457 0)
(0.115008 0.0056495 0)
(-0.022183 0.0233317 0)
(0.157412 0.0629302 0)
(-0.208986 0.0727525 0)
(0.0219425 -0.149546 0)
(0.000991734 0.0450293 0)
(0.0603206 -0.0828392 0)
(-0.0111625 0.0824671 0)
(0.419513 0.0802535 0)
(0.608892 0.131345 0)
(0.422834 0.00152701 0)
(0.144133 -0.318328 0)
(-0.160124 -0.0695487 0)
(-0.128581 0.0513387 0)
(-0.0193961 0.0330642 0)
(-0.00444482 -0.00232951 0)
(-0.0123879 0.00503374 0)
(0.01602 0.00657845 0)
(0.0256814 0.00453495 0)
(0.0349767 0.00301403 0)
(0.039633 0.00158233 0)
(0.0432347 0.00157587 0)
(0.0456734 0.000258283 0)
(0.046072 0.000546198 0)
(0.0466711 0.00102045 0)
(0.050357 0.00252563 0)
(0.0559468 0.00508139 0)
(0.0747323 0.0118451 0)
(0.0968351 0.022374 0)
(0.159267 0.0328377 0)
(0.148715 0.0648779 0)
(0.215867 0.077022 0)
(0.306076 -0.126204 0)
(0.234465 -0.0344692 0)
(-0.321109 -0.152292 0)
(-0.376636 0.311894 0)
(0.0565264 -0.200605 0)
(0.000451499 0.00185943 0)
(0.072432 -0.0108151 0)
(0.0473655 -0.00124623 0)
(0.0520142 -0.00197339 0)
(0.0498856 -0.00186576 0)
(0.0367036 -0.00119925 0)
(0.0574836 -0.00025296 0)
(0.0145325 0.0013045 0)
(0.0936402 0.00501177 0)
(-0.0203013 0.0185911 0)
(0.207366 0.0563413 0)
(0.0583692 0.13376 0)
(0.061925 0.0127906 0)
(0.048904 0.0176702 0)
(0.114361 -0.0374211 0)
(-0.119894 0.103179 0)
(0.174452 0.00511357 0)
(0.316021 0.0290247 0)
(0.664035 0.0352694 0)
(0.0241645 -0.0951785 0)
(-0.118249 -0.00564993 0)
(-0.0949394 0.0110648 0)
(-0.00805154 0.00421506 0)
(-0.00440905 -0.00214069 0)
(-0.0123513 0.000990672 0)
(0.0027391 0.000894702 0)
(0.00618995 0.000707161 0)
(0.0115195 0.00048923 0)
(0.0140711 0.000225144 0)
(0.0160506 0.000289962 0)
(0.0171249 -5.69269e-05 0)
(0.0174263 0.000169161 0)
(0.0182386 0.000146446 0)
(0.020429 0.000404777 0)
(0.0236225 0.000671087 0)
(0.0347938 0.00213248 0)
(0.0495756 0.00424486 0)
(0.105095 0.0106203 0)
(0.134297 0.0339738 0)
(0.288019 0.0419807 0)
(0.311469 0.0401794 0)
(0.202213 0.00737709 0)
(-0.00347354 -0.0385815 0)
(0.355742 0.06726 0)
(0.0985838 -0.105368 0)
(0.0201328 0.000280248 0)
(0.0349243 -0.00275955 0)
(0.0179896 0.00024615 0)
(0.0217242 -0.00038969 0)
(0.020491 -0.000111556 0)
(0.0126343 -0.000456348 0)
(0.0256556 0.000382041 0)
(-0.00111516 -0.000408179 0)
(0.0478211 0.00244298 0)
(-0.0157437 0.00186788 0)
(0.116259 0.0148655 0)
(0.114697 0.072921 0)
(0.295482 0.017997 0)
)
;

boundaryField
{
    AirInlet
    {
        type            fixedValue;
        value           uniform (0.1 0 0);
    }
    WaterInlet
    {
        type            fixedValue;
        value           uniform (0.1 0 0);
    }
    ChannelWall
    {
        type            fixedValue;
        value           uniform (0 0 0);
    }
    Outlet
    {
        type            pressureInletOutletVelocity;
        value           nonuniform List<vector> 
15
(
(-0.436513 -0 0)
(0.384776 -0.105233 0)
(0.26471 0.0742314 0)
(0.32261 0.00971823 0)
(0.414305 -0.00719734 0)
(-0.0873962 0 0)
(-0.0121899 0 0)
(-0.101444 -0 0)
(-0.209038 -0 0)
(-0.106985 0 0)
(0.137403 0.00490094 0)
(-0.184463 -0 0)
(-0.0366897 -0 0)
(-0.0297784 0 0)
(0.295482 0.017997 0)
)
;
    }
    FrontAndBack
    {
        type            empty;
    }
}


// ************************************************************************* //
