/*--------------------------------*- C++ -*----------------------------------*\
| =========                 |                                                 |
| \\      /  F ield         | OpenFOAM: The Open Source CFD Toolbox           |
|  \\    /   O peration     | Version:  2.3.0                                 |
|   \\  /    A nd           | Web:      www.OpenFOAM.org                      |
|    \\/     M anipulation  |                                                 |
\*---------------------------------------------------------------------------*/
FoamFile
{
    version     2.0;
    format      ascii;
    class       volScalarField;
    location    "1.65";
    object      alpha.water;
}
// * * * * * * * * * * * * * * * * * * * * * * * * * * * * * * * * * * * * * //

dimensions      [0 0 0 0 0 0 0];

internalField   nonuniform List<scalar> 
2268
(
1
1
1
1
1
1
1
1
1
1
0.999999
0.999998
0.999998
0.999999
1
1
1
0.984435
0.9765
0.976498
0.992773
0.991771
0.988567
1
1
1
1
1
1
1
1
1
0.999999
0.999999
0.999999
0.999999
1
1
1
1
0.979278
0.976498
0.9765
0.993114
0.998647
0.988713
1
1
1
1
1
1
1
0.999999
0.999999
0.999999
1
1
1
1
1
1
0.99978
0.987605
0.976734
0.98304
0.997567
0.999817
0.989454
1
1
1
1
1
1
1
0.999999
0.999999
0.999999
1
1
1
1
1
0.999982
0.999895
0.999417
0.997297
0.99883
0.999751
0.999838
0.99135
1
1
1
1
1
1
1
1
0.999999
0.999999
1
1
1
1
1
1
1
1
0.999993
0.999906
0.999849
0.999839
0.997984
1
1
1
1
1
1
1
1
1
0.999999
1
1
1
1
1
1
1
0.999999
0.999999
0.999905
0.999855
0.999829
0.999876
1
1
1
1
1
1
1
1
0.999999
0.999999
0.999999
1
1
1
1
1
1
0.999917
0.999983
0.999982
0.999971
0.99994
0.999921
1
1
1
1
1
0.999999
0.999999
0.999998
0.999996
0.999995
0.999995
0.999996
0.999997
0.999998
0.999999
1
1
0.999997
0.999778
0.999932
0.999953
0.999922
0.999887
0.992245
0.992773
0.993071
0.993105
0.995428
0.995323
0.99523
0.995315
0.995315
0.985322
0.982167
0.971566
0.944303
0.907407
0.907342
0.907294
0.907251
0.939476
0.961534
0.992245
0.993171
0.993826
0.994892
0.995379
0.995315
0.995315
0.995315
0.995315
0.990602
0.940801
0.970343
0.953267
0.90695
0.907307
0.907193
0.90714
0.913848
0.961636
0.994048
0.992812
0.971713
0.986104
0.9948
0.995277
0.99528
0.995314
0.995312
0.892118
0.645883
0.707906
0.923693
0.948475
0.931758
0.909108
0.907243
0.935252
0.961712
0.994502
0.881315
0.775956
0.812789
0.965485
0.991731
0.97843
0.950871
0.767421
0.618285
0.617921
0.617005
0.724818
0.959688
0.961609
0.961145
0.931162
0.961814
0.961712
0.993123
0.825464
0.743254
0.742696
0.818953
0.895556
0.789746
0.640332
0.618299
0.617921
0.617921
0.617921
0.761643
0.961281
0.961899
0.961972
0.961817
0.961814
0.961773
0.907756
0.998635
0.988303
0.770341
0.704743
0.731644
0.637557
0.637557
0.690708
0.782171
0.658704
0.66277
0.950925
0.961744
0.961843
0.96183
0.961838
0.961901
0.962346
0.998807
0.998836
0.99878
0.977268
0.728625
0.693319
0.781313
0.775365
0.814049
0.814049
0.819686
0.843892
0.878729
0.957381
0.961826
0.96186
0.961912
0.962294
0.963142
0.998839
0.998779
0.99861
0.997975
0.863726
0.684642
0.812043
0.814034
0.81421
0.814027
0.814182
0.727868
0.600469
0.744152
0.96185
0.961826
0.961838
0.95046
0.825059
0.999998
0.999999
0.999999
0.999997
0.999994
0.999987
0.999975
0.999959
0.999943
0.999931
0.999927
0.999931
0.999942
0.999961
0.99999
0.999995
0.999998
0.999997
0.992986
0.949925
0.93817
0.966488
0.998667
0.999925
0.999965
0.999973
0.999954
0.99991
0.999838
0.999732
0.999606
0.999493
0.99942
0.999402
0.999439
0.999523
0.999642
0.999792
0.999886
0.999963
0.999992
0.986954
0.938056
0.936304
0.934217
0.936304
0.781699
0.78244
0.725391
0.700961
0.688316
0.66256
0.658169
0.66578
0.674915
0.684536
0.700535
0.724256
0.754684
0.793364
0.841302
0.891977
0.940059
0.977909
0.977597
0.971631
0.958898
0.928205
0.958322
0.128731
0.138564
0.105005
0.0776333
0.0521055
0.0349691
0.027318
0.026704
0.0282751
0.0313107
0.0375131
0.0482424
0.0638721
0.0877417
0.124966
0.177966
0.250885
0.361285
0.531647
0.694689
0.785656
0.850617
0.85886
0.0196738
0.0252746
0.0433328
0.0343545
0.0160593
0.00616304
0.00501399
0.00308095
0.001053
0.000752114
0.000607315
0.000515683
0.000426033
0.00032172
0.000229911
0.00019162
0.000191433
0.000168901
0.000195788
0.00946897
0.0449754
0.0835078
0.077679
0.0199597
0.0221032
0.0246393
0.0294482
0.0296801
0.0290281
0.0272902
0.0257268
0.0244554
0.00518482
0.00075209
0.000607315
0.0010733
0.00186535
0.00185121
0.000960168
0.000129455
0.000145749
0.000834371
0.00171723
0.000580022
0.00030125
0.000215633
0.0184745
0.0112768
0.00324314
0.00544734
0.0175624
0.0207076
0.0227051
0.0254001
0.0243782
0.0100118
0.00167343
0.00151551
0.00243512
0.00244476
0.00243512
0.00172334
3.68101e-05
2.15969e-06
0.00249988
0.00649882
0.00633936
0.00418361
0.000188032
0.000961836
8.49745e-07
1.16681e-06
2.2485e-06
1.67173e-06
0.00140174
6.28818e-06
1.24712e-05
0.000664748
0.00253
0.00239355
0.00233942
0.00183825
0.000402045
0.000161418
3.54662e-05
1.80035e-06
2.11886e-08
3.3169e-07
0.00136548
0.00445494
0.00114649
0.000178347
7.71205e-07
8.21932e-07
8.50657e-07
2.51276e-06
1.56471e-06
1.67175e-06
2.68968e-06
1.01862e-05
1.24821e-05
0.000548227
0.000631558
0.000179864
2.07572e-08
5.07563e-09
8.30265e-09
1.66236e-08
2.1183e-08
2.11871e-08
0.000193832
0.00126505
0.00198133
0.000735898
0.000185458
7.1796e-07
8.10208e-07
5.43971e-06
1.21216e-05
1.45771e-06
1.01937e-05
7.72179e-05
0.000108654
2.24249e-05
7.40212e-07
3.12624e-08
5.17475e-09
2.4836e-09
4.65245e-09
5.07732e-09
3.95972e-08
2.16807e-08
2.11829e-08
0.0005835
0.00133423
0.00199109
0.00113568
2.66132e-05
5.0967e-07
1.15185e-06
7.91265e-06
8.83435e-06
8.13666e-07
1.98224e-05
1.80513e-05
6.52423e-06
1.45171e-09
1.19914e-09
8.42071e-10
1.6028e-09
2.21048e-09
2.50809e-09
3.26156e-07
1.01085e-06
5.4315e-07
4.77305e-08
6.01379e-08
1.71025e-07
0.000229094
0.000185264
1.33068e-05
6.99199e-08
4.48774e-07
1.73032e-09
1.73032e-09
1.73033e-09
1.73398e-09
1.64529e-09
1.55418e-09
1.50786e-09
1.14972e-09
6.58948e-10
1.68889e-09
3.62112e-10
7.40016e-09
7.01684e-07
1.10963e-06
9.75872e-07
4.19753e-08
5.01161e-08
7.14818e-08
1.74594e-07
1.04987e-06
8.15034e-06
5.9808e-09
4.25499e-09
4.46026e-09
1.73092e-09
1.7308e-09
1.73932e-09
2.0622e-09
2.53377e-09
2.57287e-09
1.06374e-09
5.09482e-10
3.99595e-10
3.53779e-10
2.57158e-10
2.05469e-10
7.71584e-09
3.06705e-09
3.2979e-08
3.35687e-07
5.05359e-07
4.45673e-07
6.19263e-07
2.00045e-06
6.4758e-09
3.83103e-09
1.43117e-08
2.68737e-09
2.43945e-09
3.0062e-09
3.00698e-09
3.00304e-09
2.87566e-09
1.58152e-09
7.64798e-10
4.71106e-10
3.24191e-10
2.41475e-10
1.84987e-10
2.18026e-10
2.90561e-09
4.06675e-09
2.72139e-09
6.02906e-09
2.73741e-08
1.26979e-07
8.28468e-07
1.03521e-07
3.32461e-09
2.94548e-09
2.8483e-09
2.95536e-09
2.63689e-09
2.47947e-09
2.82111e-09
2.86106e-09
2.52288e-09
1.4742e-09
7.02612e-10
3.33703e-10
2.2946e-10
1.81341e-10
1.50077e-10
1.54303e-10
2.01133e-10
6.21744e-10
3.24805e-09
2.04091e-08
1.40495e-07
7.42359e-06
1.41813e-07
5.56204e-09
1.09065e-08
2.5211e-09
1.77056e-09
1.56854e-09
1.61218e-09
1.99422e-09
2.39998e-09
2.48457e-09
1.99033e-09
1.00155e-09
4.69264e-10
2.45806e-10
1.67775e-10
1.43622e-10
1.26188e-10
1.62045e-10
3.65356e-10
1.42025e-09
1.00738e-08
3.12338e-07
5.32747e-06
8.87965e-09
2.1876e-08
5.85986e-08
2.08087e-08
1.37315e-09
1.3646e-09
1.36044e-09
1.25263e-09
1.40283e-09
1.58533e-09
1.58894e-09
1.15105e-09
6.24619e-10
3.14419e-10
1.5143e-10
1.0203e-10
8.58385e-11
8.07806e-11
1.24102e-10
1.99973e-10
2.63039e-09
7.50083e-08
2.46329e-07
1.00947e-06
2.23141e-08
5.86158e-08
4.96538e-08
1.38167e-09
1.36017e-09
1.3604e-09
1.12127e-09
9.87207e-10
9.30027e-10
8.97121e-10
8.51966e-10
6.76482e-10
3.67982e-10
1.68595e-10
8.90671e-11
6.85959e-11
6.08526e-11
5.46662e-11
1.56564e-10
3.95894e-10
2.6676e-10
9.9768e-10
2.40007e-05
1.62849e-05
2.29286e-09
1.80798e-09
1.85803e-09
2.21675e-09
1.70203e-09
1.4055e-09
1.02409e-09
8.21025e-10
7.2102e-10
6.09861e-10
4.62143e-10
2.88146e-10
1.50516e-10
8.95118e-11
6.21584e-11
4.44342e-11
3.77255e-11
3.98396e-11
5.69449e-11
7.34776e-11
6.19516e-11
3.47584e-05
3.49693e-05
2.48613e-05
1.63738e-09
1.58809e-09
1.58418e-09
1.71675e-09
1.70968e-09
1.2074e-09
7.80002e-10
5.99761e-10
4.61939e-10
3.27237e-10
2.03578e-10
1.20971e-10
8.18369e-11
5.45797e-11
3.49127e-11
2.32864e-11
1.92535e-11
2.2345e-11
2.45847e-11
2.09508e-11
1.78453e-05
3.49693e-05
3.49693e-05
6.50341e-06
1.56117e-09
1.53667e-09
1.53395e-09
1.56609e-09
1.28778e-09
7.84144e-10
4.704e-10
2.96259e-10
1.86418e-10
1.31023e-10
9.46951e-11
6.36087e-11
4.01535e-11
2.44966e-11
1.67067e-11
1.21375e-11
9.87066e-12
1.1347e-11
1.61265e-11
3.56247e-08
2.50431e-05
2.17111e-05
5.56182e-06
3.22219e-07
2.1592e-09
1.28872e-09
1.04994e-09
9.22788e-10
6.10911e-10
3.30835e-10
1.91443e-10
1.27794e-10
9.06259e-11
6.35386e-11
3.71972e-11
2.39982e-11
1.64262e-11
1.14244e-11
7.96868e-12
5.6466e-12
4.49826e-12
4.7738e-12
6.28174e-10
7.63655e-07
2.80286e-07
2.92345e-07
1.64827e-07
5.11442e-08
1.68736e-09
8.90084e-10
6.41048e-10
3.58589e-10
1.90178e-10
1.40627e-10
8.3029e-11
5.10449e-11
3.27356e-11
2.15752e-11
1.44285e-11
9.69409e-12
6.51417e-12
4.37343e-12
2.94463e-12
2.06986e-12
1.64843e-12
7.08463e-11
3.02565e-10
1.32667e-10
1.32909e-10
1.6727e-10
1.18235e-09
1.35487e-09
8.60118e-10
4.38086e-10
2.07086e-10
1.15743e-10
6.80751e-11
4.2973e-11
2.78892e-11
1.83065e-11
1.20256e-11
7.87044e-12
5.11514e-12
3.30018e-12
2.11807e-12
1.35431e-12
8.67879e-13
6.3014e-13
6.45352e-11
4.78655e-11
5.49116e-11
1.20122e-10
1.89515e-10
2.90098e-10
3.42285e-10
2.8525e-10
1.64942e-10
9.7704e-11
5.73321e-11
3.5685e-11
2.30096e-11
1.49727e-11
9.67621e-12
6.16415e-12
3.86409e-12
2.38737e-12
1.45848e-12
8.84539e-13
5.34892e-13
3.24281e-13
2.09571e-13
3.24678e-11
4.38203e-11
5.45609e-11
1.17921e-10
1.7671e-10
1.86521e-10
1.47672e-10
9.98067e-11
6.4189e-11
4.13355e-11
2.68657e-11
1.74582e-11
1.12253e-11
7.0926e-12
4.38835e-12
2.65656e-12
1.57551e-12
9.18015e-13
5.27576e-13
3.00361e-13
1.70268e-13
9.6867e-14
5.64304e-14
1.50777e-11
4.0957e-11
5.49689e-11
6.93364e-11
7.3495e-11
6.55043e-11
5.18193e-11
3.7949e-11
2.64103e-11
1.7736e-11
1.1579e-11
7.36515e-12
4.56283e-12
2.75065e-12
1.61322e-12
9.21441e-13
5.13827e-13
2.8073e-13
1.50929e-13
8.02542e-14
4.25282e-14
2.29327e-14
1.36219e-14
5.00679e-12
1.69659e-11
2.44664e-11
2.7991e-11
2.74468e-11
2.39056e-11
1.88722e-11
1.38159e-11
9.55641e-12
6.32016e-12
4.02083e-12
2.4668e-12
1.46078e-12
8.3558e-13
4.6233e-13
2.48039e-13
1.29476e-13
6.60426e-14
3.30868e-14
1.6407e-14
8.24247e-15
4.65926e-15
4.0783e-15
1.33556e-12
5.15638e-12
7.81462e-12
8.9182e-12
8.56508e-12
7.26104e-12
5.60069e-12
4.01967e-12
2.72192e-12
1.75226e-12
1.07655e-12
6.32545e-13
3.56009e-13
1.92296e-13
9.99453e-14
5.01606e-14
2.44153e-14
1.15857e-14
5.40252e-15
2.54223e-15
1.3905e-15
1.37561e-15
2.77084e-15
3.0519e-13
1.25351e-12
1.88505e-12
2.10981e-12
1.98911e-12
1.66109e-12
1.26445e-12
8.92623e-13
5.90269e-13
3.67805e-13
2.16774e-13
1.21184e-13
6.44329e-14
3.26842e-14
1.58772e-14
7.41958e-15
3.35341e-15
1.47787e-15
6.54522e-16
3.51655e-16
4.10512e-16
1.02033e-15
2.93763e-15
6.06219e-14
2.50725e-13
3.65384e-13
3.9664e-13
3.64736e-13
2.98126e-13
2.21734e-13
1.52126e-13
9.70637e-14
5.78963e-14
3.24106e-14
1.70878e-14
8.51595e-15
4.02823e-15
1.81721e-15
7.86181e-16
3.28908e-16
1.37585e-16
7.3364e-17
1.0325e-16
3.11721e-16
1.03395e-15
3.23092e-15
1.04417e-14
4.18873e-14
5.80232e-14
6.04327e-14
5.35936e-14
4.22911e-14
3.02907e-14
1.99046e-14
1.2084e-14
6.81178e-15
3.5801e-15
1.76142e-15
8.1487e-16
3.56261e-16
1.48056e-16
5.89774e-17
2.33257e-17
1.23167e-17
2.07386e-17
7.45473e-17
2.83789e-16
1.01665e-15
3.385e-15
1.54237e-15
5.88886e-15
7.62813e-15
7.50446e-15
6.33001e-15
4.75312e-15
3.23031e-15
2.00404e-15
1.14158e-15
5.99906e-16
2.92119e-16
1.32439e-16
5.6208e-17
2.24686e-17
8.5302e-18
3.18268e-18
1.62496e-18
3.13605e-18
1.31871e-17
5.76662e-17
2.37197e-16
9.10293e-16
3.25831e-15
1.94697e-16
6.99081e-16
8.35784e-16
7.68014e-16
6.08245e-16
4.28516e-16
2.72344e-16
1.57221e-16
8.27974e-17
3.99481e-17
1.775e-17
7.30738e-18
2.8063e-18
1.01382e-18
3.5495e-19
1.66601e-19
3.36186e-19
1.61925e-18
8.17431e-18
3.89209e-17
1.72716e-16
7.14232e-16
2.76161e-15
2.09054e-17
7.04631e-17
7.72659e-17
6.57778e-17
4.84062e-17
3.16315e-17
1.85342e-17
9.78749e-18
4.67858e-18
2.03546e-18
8.11356e-19
2.98558e-19
1.02301e-19
3.34149e-20
1.35612e-20
2.43969e-20
1.28506e-19
7.47688e-19
4.17925e-18
2.17569e-17
1.04833e-16
4.69269e-16
1.96546e-15
1.90387e-18
6.05265e-18
6.09682e-18
4.78958e-18
3.24907e-18
1.94475e-18
1.03457e-18
4.91325e-19
2.09423e-19
8.07031e-20
2.836e-20
9.1746e-21
2.78228e-21
9.4398e-22
1.2114e-21
6.24637e-21
4.00177e-20
2.64479e-19
1.65504e-18
9.50878e-18
5.01651e-17
2.45031e-16
1.11928e-15
1.47649e-19
4.47103e-19
4.17003e-19
3.01992e-19
1.87859e-19
1.01919e-19
4.85245e-20
2.0382e-20
7.60833e-21
2.54864e-21
7.74625e-22
2.16956e-22
6.21421e-23
4.74187e-23
1.93845e-22
1.17204e-21
8.53424e-21
6.55399e-20
4.67039e-19
3.01098e-18
1.76758e-17
9.56128e-17
4.82942e-16
9.74064e-21
2.89807e-20
2.52446e-20
1.69554e-20
9.63037e-21
4.70041e-21
1.97645e-21
7.21185e-22
2.30892e-22
6.57325e-23
1.69044e-23
4.17093e-24
1.88363e-24
4.83187e-24
2.24254e-23
1.24587e-22
1.07474e-21
9.93465e-21
8.3008e-20
6.1802e-19
4.14465e-18
2.54086e-17
1.44725e-16
5.58932e-22
1.65819e-21
1.37093e-21
8.60894e-22
4.48879e-22
1.95462e-22
7.15318e-23
2.22081e-23
5.94323e-24
1.39724e-24
2.99882e-25
8.7901e-26
1.30626e-25
4.34088e-25
1.48016e-24
5.9784e-24
6.31544e-23
7.38158e-22
7.58714e-21
6.83187e-20
5.46078e-19
3.93734e-18
2.60659e-17
2.94925e-23
8.33144e-23
6.76907e-23
4.04621e-23
1.9529e-23
7.56522e-24
2.36818e-24
6.07867e-25
1.30903e-25
2.44391e-26
4.96096e-27
4.33454e-27
1.08705e-26
2.77414e-26
5.38429e-26
1.03595e-25
1.14057e-24
1.79152e-23
2.45026e-22
2.89534e-21
2.99262e-20
2.74539e-19
2.27454e-18
1.50298e-24
3.65171e-24
3.05678e-24
1.81013e-24
8.13731e-25
2.77994e-25
7.24933e-26
1.46608e-26
2.37628e-27
3.47845e-28
1.63195e-28
3.71118e-28
7.66087e-28
1.28482e-27
1.18401e-27
6.49482e-28
2.38662e-27
5.61781e-26
1.20669e-24
2.21691e-23
3.52526e-22
4.91642e-21
6.09809e-20
7.6312e-26
1.2032e-25
1.21689e-25
7.44101e-26
3.17111e-26
9.55906e-27
2.0197e-27
2.95796e-28
3.12564e-29
5.88152e-30
1.3007e-29
2.91172e-29
4.25424e-29
4.27629e-29
1.48051e-29
2.54821e-30
2.86078e-31
2.38637e-31
1.25214e-29
6.20267e-28
2.66608e-26
1.01176e-24
3.44673e-23
0.997396
0.996694
0.997082
0.998209
0.938326
0.962657
0.997093
0.997985
0.973721
0.979679
0.985622
0.994777
0.850085
0.837622
0.812993
0.770947
0.0643163
0.0524495
0.00737648
0.000214188
0.000198146
0.000194264
0.000205353
0.000213555
0.000189908
0.000194278
0.000193016
0.000201922
0.000188826
0.000189891
0.000230333
0.000300513
0.000133595
0.000219084
0.00042758
0.00177026
5.20478e-05
0.000147297
0.000442153
0.00613338
2.63408e-05
9.60246e-05
0.000389166
0.00750813
1.32119e-05
4.55426e-05
0.00118877
0.00539306
5.54915e-06
0.000214557
0.00129516
0.0012217
5.6065e-05
0.000357179
0.000408596
1.5381e-05
8.43878e-05
8.62625e-05
3.39467e-06
1.55477e-06
9.20207e-06
4.79879e-07
2.95862e-07
1.65594e-07
3.99755e-08
3.44109e-08
2.51043e-08
7.59433e-09
2.30461e-09
2.20479e-09
1.44026e-10
1.45829e-09
1.35341e-10
4.8753e-11
1.49747e-10
2.39813e-10
2.94494e-11
3.13658e-11
3.759e-11
5.01964e-11
1.95889e-11
1.71786e-11
2.5516e-11
3.10693e-11
7.05458e-12
8.70059e-12
1.20958e-11
1.87395e-11
1.77023e-12
1.99529e-12
2.65575e-12
4.22446e-12
5.80916e-13
5.44476e-13
5.78463e-13
7.64498e-13
1.8298e-13
1.61321e-13
1.49674e-13
1.57379e-13
4.74104e-14
4.1334e-14
3.79697e-14
3.77737e-14
1.13729e-14
1.06293e-14
1.10318e-14
1.25208e-14
4.36091e-15
5.25045e-15
6.77537e-15
9.03537e-15
3.76078e-15
5.19552e-15
7.20295e-15
9.97816e-15
4.19007e-15
5.94709e-15
8.38397e-15
1.17175e-14
4.67747e-15
6.72731e-15
9.61469e-15
1.36257e-14
4.97645e-15
7.27736e-15
1.05967e-14
1.53722e-14
4.87624e-15
7.27849e-15
1.08685e-14
1.62883e-14
4.21197e-15
6.43737e-15
9.93329e-15
1.56093e-14
3.05775e-15
4.8082e-15
7.76942e-15
1.31114e-14
1.78119e-15
2.91525e-15
5.0662e-15
9.53126e-15
7.92204e-16
1.38551e-15
2.71254e-15
5.94261e-15
2.49264e-16
4.90997e-16
1.15108e-15
3.02373e-15
4.95065e-17
1.20703e-16
3.5704e-16
1.13562e-15
5.48755e-18
1.89383e-17
7.22463e-17
2.88005e-16
2.71432e-19
1.47797e-18
7.51137e-18
4.37943e-17
7.47976e-22
1.03952e-20
1.42749e-19
2.7011e-18
0.998772
0.998472
0.997972
0.997388
0.955693
0.612224
0.71307
0.813671
0.814038
0.691195
0.577052
0.497986
0.45263
0.498023
0.518141
0.504817
0.479542
0.466317
0.450539
0.998326
0.997814
0.995585
0.98532
0.924387
0.502918
0.410706
0.570105
0.554185
0.498514
0.486083
0.429385
0.305986
0.17131
0.142658
0.133774
0.110239
0.109971
0.0928735
0.99553
0.942184
0.672309
0.400616
0.438424
0.343069
0.240394
0.138958
0.128187
0.304896
0.294097
0.174901
0.15507
0.150745
0.150243
0.192564
0.201006
0.105872
0.091693
0.622677
0.271417
0.00851639
0.0211028
0.0267448
0.125285
0.118916
0.0322302
0.0295497
0.0902128
0.165412
0.192491
0.192295
0.181077
0.200733
0.201036
0.201006
0.117309
0.091693
0.00103796
0.00242112
0.00656326
0.00665249
0.00804869
0.0176837
0.0268708
0.0295384
0.0256596
0.0220902
0.0485154
0.128032
0.15497
0.130065
0.133909
0.157985
0.201012
0.199217
0.155824
0.00133817
0.00266707
0.00279403
0.00540184
0.0190619
0.0207468
0.0252949
0.0293843
0.0275934
0.0193491
0.0165419
0.0126631
0.00757828
0.00623843
0.00569065
0.0116274
0.0492896
0.0919622
0.0859242
0.000388963
0.00427339
0.0309724
0.0406844
0.0407015
0.0407094
0.0407115
0.0404025
0.0394494
0.0383681
0.0302768
0.0169347
0.00497028
0.00233487
0.00202239
0.00155777
0.00191014
0.00572055
0.00419592
0.0032978
0.033846
0.040693
0.0407048
0.0407097
0.0407104
0.0407107
0.0407138
0.0369008
0.0264131
0.0129425
0.00524237
0.00300129
0.00363712
0.0036732
0.00143596
9.44193e-05
8.69379e-05
9.44715e-05
0.0201386
0.0399871
0.04038
0.0375071
0.0129179
0.0137794
0.0124308
0.0076656
0.00323388
0.000614957
9.35215e-05
8.3605e-05
8.20859e-05
0.000423348
0.00153998
0.00119561
0.000124577
8.38264e-05
0.000111726
0.03145
0.0394165
0.029799
0.000326561
1.80583e-05
1.67222e-05
3.31413e-05
5.72349e-05
7.29245e-05
8.48872e-05
8.35837e-05
8.20858e-05
8.04831e-05
7.90251e-05
8.0723e-05
0.000311092
9.5091e-05
8.30055e-05
8.3861e-05
0.0216454
0.0215196
0.00262886
7.03181e-06
5.83244e-06
5.89019e-06
1.90229e-05
4.95939e-05
6.85134e-05
7.99724e-05
0.000244295
0.000264417
0.000213859
7.92734e-05
7.88803e-05
7.93985e-05
8.1322e-05
8.27246e-05
9.55591e-05
0.00363285
0.000260925
6.937e-06
5.28964e-06
5.20379e-06
5.33013e-06
5.85397e-06
1.05291e-05
0.000139748
0.000265763
0.000265762
0.000265735
0.000265443
0.000249658
8.05738e-05
7.99167e-05
7.99118e-05
0.000165053
0.000166156
3.91725e-05
8.35119e-06
5.27047e-06
5.17516e-06
5.17449e-06
5.1995e-06
5.32707e-06
5.86296e-06
0.000126968
0.000265762
0.000265766
0.000265782
0.000266427
0.00026688
0.000181832
7.99167e-05
0.000115006
0.000166321
0.000166394
4.89372e-06
4.18987e-06
4.77867e-06
5.16261e-06
5.17509e-06
5.17452e-06
5.19467e-06
6.34279e-06
0.000154765
0.000265766
0.000265762
0.000151636
2.04538e-05
7.08769e-05
0.000129335
0.000128044
0.000104707
7.17366e-05
0.000132353
7.47658e-07
1.98935e-06
8.2487e-06
1.18992e-05
6.99697e-06
5.21239e-06
5.21428e-06
5.82845e-06
0.000157497
0.000265237
0.000178135
2.84219e-08
4.77159e-08
4.05982e-06
2.75486e-05
3.75432e-05
1.21602e-05
1.41883e-05
5.95839e-05
1.1644e-07
1.291e-06
1.79453e-05
2.77629e-05
2.77566e-05
1.45681e-05
5.4547e-06
5.6381e-06
8.21597e-05
0.000260281
5.95484e-05
1.14505e-08
1.25083e-08
1.95361e-08
4.44304e-08
4.96383e-07
4.05795e-06
9.48758e-05
0.000123787
2.45325e-08
6.53669e-07
1.84019e-05
2.78173e-05
2.78157e-05
2.77922e-05
1.76151e-05
7.44167e-06
4.78089e-05
4.21734e-05
1.14377e-08
1.15138e-08
1.1434e-08
1.07165e-08
4.28099e-09
4.42866e-08
2.00877e-05
0.000123658
0.000123787
5.38088e-09
4.49174e-08
1.09266e-05
2.78157e-05
2.78169e-05
2.78157e-05
2.77818e-05
2.71478e-05
1.19803e-05
1.39229e-07
1.21528e-07
5.66601e-08
1.06168e-07
4.33639e-08
6.79419e-10
6.10538e-10
6.44392e-06
0.000108227
0.000123658
4.5745e-10
4.41351e-09
1.26786e-06
1.3969e-05
2.21389e-05
2.75188e-05
2.75285e-05
2.17781e-05
1.08048e-06
3.9485e-07
4.79382e-07
1.33285e-06
1.36663e-06
6.36008e-07
6.0923e-10
6.0073e-10
5.95152e-10
3.15827e-06
0.000122744
7.80561e-11
1.01934e-09
4.54359e-09
7.07469e-08
1.16201e-06
3.64413e-06
8.11307e-06
2.36642e-06
1.40314e-06
4.24347e-07
4.30901e-07
1.37262e-06
1.37262e-06
4.12036e-07
6.25079e-10
2.01431e-09
5.76446e-10
5.95151e-10
5.53153e-05
3.38081e-11
4.42125e-11
2.67104e-10
1.86583e-09
4.24198e-09
8.41122e-09
1.3581e-08
4.79481e-09
7.54684e-07
7.66478e-07
4.51812e-07
6.29189e-07
5.17394e-07
6.6043e-08
2.47652e-09
3.28729e-09
5.6139e-10
4.75599e-10
2.08397e-09
3.11471e-11
1.81775e-11
3.39178e-11
1.47161e-10
2.53214e-10
5.07879e-10
7.83e-10
3.12111e-10
7.41067e-08
7.52352e-07
7.44823e-07
1.43067e-07
3.79276e-09
3.01281e-09
3.93187e-09
2.37318e-09
3.0228e-10
3.33746e-10
1.71716e-08
8.0736e-12
1.4702e-11
1.29982e-11
2.166e-11
3.89167e-11
6.79685e-11
6.93546e-11
4.88527e-11
1.79599e-10
2.65107e-07
7.22572e-07
4.07406e-07
3.76412e-08
1.74043e-09
1.70773e-09
7.55295e-10
2.9115e-10
8.24306e-09
1.07005e-05
1.51095e-12
3.62943e-12
1.05039e-11
9.79559e-12
1.60396e-11
2.5383e-11
2.66305e-11
3.32236e-11
3.65891e-11
1.81468e-10
6.05881e-08
2.39295e-07
2.35484e-07
6.83509e-08
3.3729e-10
2.93795e-10
2.83256e-10
4.43483e-06
6.41062e-05
2.59171e-13
7.33641e-13
2.52184e-12
6.77783e-12
1.45815e-11
2.15965e-11
2.12152e-11
2.71934e-11
2.70589e-11
3.67482e-11
1.14843e-10
9.78805e-09
5.85494e-08
4.23953e-08
8.913e-09
2.85789e-10
2.7436e-10
1.98342e-05
6.41062e-05
5.77917e-14
1.60485e-13
5.79739e-13
1.95887e-12
4.64693e-12
8.83086e-12
1.3004e-11
1.65342e-11
2.47828e-11
2.7746e-11
3.68994e-11
5.73631e-11
9.85597e-11
1.55003e-09
8.1067e-10
2.78215e-10
2.69516e-10
2.47757e-05
6.41062e-05
2.66373e-14
7.03809e-14
2.10394e-13
6.67424e-13
1.70077e-12
3.67866e-12
6.64419e-12
1.05214e-11
1.76468e-11
2.97355e-11
3.38163e-11
4.1114e-11
6.45859e-11
1.11444e-10
2.68134e-10
2.63808e-10
2.65442e-10
1.51127e-05
6.4098e-05
2.46378e-14
6.44454e-14
1.65431e-13
4.26828e-13
1.02902e-12
2.2608e-12
4.45959e-12
7.99613e-12
1.41265e-11
2.42515e-11
3.61916e-11
5.67942e-11
8.83466e-11
1.31278e-10
2.564e-10
2.5796e-10
2.6108e-10
1.22342e-05
6.40107e-05
2.85187e-14
7.43667e-14
1.82978e-13
4.3212e-13
9.68666e-13
2.03158e-12
3.96283e-12
7.22658e-12
1.2728e-11
2.1636e-11
3.44926e-11
5.45089e-11
8.28301e-11
1.26482e-10
2.90057e-10
2.66598e-10
2.65442e-10
2.57858e-05
6.39894e-05
3.46089e-14
9.0968e-14
2.19945e-13
5.00743e-13
1.07459e-12
2.16071e-12
4.07239e-12
7.25848e-12
1.24786e-11
2.08428e-11
3.36529e-11
5.32151e-11
7.86771e-11
1.1867e-10
5.19088e-10
4.86458e-10
2.69618e-10
3.29512e-05
6.39893e-05
4.35319e-14
1.1752e-13
2.78766e-13
6.10023e-13
1.25432e-12
2.42287e-12
4.40224e-12
7.59931e-12
1.26711e-11
2.06707e-11
3.32024e-11
5.37236e-11
8.09243e-11
1.67287e-10
9.82074e-10
8.37069e-10
2.785e-10
3.065e-05
6.39893e-05
5.7723e-14
1.65319e-13
3.85469e-13
8.01773e-13
1.55898e-12
2.86428e-12
4.97918e-12
8.25298e-12
1.32373e-11
2.09818e-11
3.39405e-11
6.08722e-11
9.24849e-11
3.85362e-10
1.33041e-09
9.38682e-10
2.96353e-10
2.87263e-05
5.89225e-05
7.95894e-14
2.50244e-13
5.88063e-13
1.18338e-12
2.18938e-12
3.81364e-12
6.29889e-12
9.94255e-12
1.5229e-11
2.34495e-11
4.07653e-11
7.6736e-11
1.2056e-10
8.69606e-10
1.61906e-09
9.46091e-10
4.13456e-06
3.75466e-05
3.31046e-05
1.05594e-13
3.72345e-13
9.21981e-13
1.88564e-12
3.4336e-12
5.74499e-12
9.01804e-12
1.35228e-11
1.97362e-11
2.92414e-11
5.26891e-11
8.73546e-11
1.60654e-10
1.52726e-09
2.11339e-09
9.68746e-10
1.00273e-09
3.91281e-05
3.93482e-05
1.22473e-13
4.88589e-13
1.33288e-12
2.94663e-12
5.54864e-12
9.1213e-12
1.35549e-11
1.91189e-11
2.71883e-11
3.96962e-11
6.78306e-11
1.03008e-10
2.90432e-10
2.14337e-09
2.37605e-09
9.94121e-10
1.02743e-09
2.67865e-05
2.41182e-05
1.18471e-13
5.26766e-13
1.64062e-12
4.16199e-12
8.67521e-12
1.47088e-11
2.12461e-11
2.80409e-11
3.89116e-11
6.12572e-11
1.26163e-10
2.94257e-10
9.13378e-10
2.21354e-09
2.16097e-09
9.28665e-10
3.70988e-08
1.39447e-06
3.75872e-07
9.19254e-14
4.52319e-13
1.6774e-12
5.11219e-12
1.27607e-11
2.43518e-11
3.68997e-11
4.75956e-11
6.00303e-11
1.10731e-10
4.00705e-10
1.04346e-09
1.4883e-09
1.87934e-09
1.20826e-09
9.15122e-10
9.28671e-10
2.17419e-09
5.98146e-08
5.38965e-14
3.0425e-13
1.39842e-12
5.27982e-12
1.62856e-11
3.73643e-11
6.258e-11
8.36543e-11
9.95247e-11
1.87365e-10
6.71067e-10
1.23074e-09
1.31641e-09
9.70419e-10
8.49709e-10
8.82878e-10
3.47549e-07
9.97026e-08
7.78979e-08
2.19679e-14
1.54254e-13
8.9511e-13
4.23154e-12
1.65893e-11
4.41169e-11
8.73514e-11
1.26735e-10
1.57208e-10
2.30118e-10
6.22092e-10
7.89348e-10
5.36456e-10
5.21911e-10
5.24601e-10
1.78109e-06
3.32451e-06
5.88974e-07
7.78947e-08
5.89534e-15
5.86087e-14
4.60923e-13
2.68962e-12
1.30829e-11
3.92458e-11
9.05195e-11
1.56772e-10
1.9229e-10
2.66706e-10
3.79695e-10
3.75452e-10
3.6865e-10
3.0787e-08
1.92748e-06
3.34506e-06
3.35203e-06
1.66746e-06
7.97103e-08
9.82119e-16
1.62314e-14
1.80902e-13
1.37653e-12
7.72406e-12
2.5435e-11
7.29476e-11
1.62071e-10
3.31905e-10
3.33625e-10
3.5816e-10
4.25951e-10
3.68632e-10
3.68775e-10
3.30968e-06
3.35221e-06
3.34857e-06
1.69182e-06
8.17328e-08
8.62719e-17
2.71841e-15
4.36883e-14
4.32666e-13
3.48547e-12
1.32529e-11
5.62223e-11
1.41815e-10
4.38271e-10
5.90244e-10
6.02354e-10
1.48583e-09
8.87316e-10
6.46322e-10
6.80915e-07
2.36214e-06
2.29567e-06
5.58413e-07
8.19436e-08
)
;

boundaryField
{
    leftWall
    {
        type            zeroGradient;
    }
    rightWall
    {
        type            zeroGradient;
    }
    lowerWall
    {
        type            zeroGradient;
    }
    atmosphere
    {
        type            inletOutlet;
        inletValue      uniform 0;
        value           nonuniform List<scalar> 
46
(
0
0
0
0
0
0
0
0
0
0
0
0
0
0
0
0
0
0
0
0
0
0
0
0
0
0
0
0
0
0
0
3.48547e-12
1.32529e-11
5.62223e-11
1.41815e-10
4.38271e-10
5.90244e-10
6.02354e-10
1.48583e-09
8.87316e-10
6.46322e-10
6.80915e-07
2.36214e-06
2.29567e-06
5.58413e-07
8.19436e-08
)
;
    }
    defaultFaces
    {
        type            empty;
    }
}


// ************************************************************************* //
