/*--------------------------------*- C++ -*----------------------------------*\
| =========                 |                                                 |
| \\      /  F ield         | OpenFOAM: The Open Source CFD Toolbox           |
|  \\    /   O peration     | Version:  2.3.0                                 |
|   \\  /    A nd           | Web:      www.OpenFOAM.org                      |
|    \\/     M anipulation  |                                                 |
\*---------------------------------------------------------------------------*/
FoamFile
{
    version     2.0;
    format      ascii;
    class       volScalarField;
    location    "1.65";
    object      epsilon;
}
// * * * * * * * * * * * * * * * * * * * * * * * * * * * * * * * * * * * * * //

dimensions      [0 2 -3 0 0 0 0];

internalField   nonuniform List<scalar> 
2268
(
0.0127502
0.0696517
0.136082
0.196778
0.250012
0.297728
0.341172
0.380654
0.415528
0.444719
0.467213
0.482216
0.489127
0.487396
0.476237
0.453756
0.421823
0.383383
0.340717
0.294198
0.236769
0.148352
0.0418106
0.020604
0.0438978
0.0712499
0.0958626
0.117495
0.136585
0.153531
0.168512
0.181443
0.192108
0.200294
0.205851
0.208697
0.208789
0.20609
0.200592
0.194199
0.188255
0.182017
0.173979
0.15731
0.120797
0.0818688
0.0343043
0.046867
0.0660069
0.0837297
0.0994589
0.11333
0.125563
0.136252
0.14533
0.15267
0.158183
0.161845
0.163694
0.163817
0.162362
0.159649
0.156842
0.15504
0.154318
0.15374
0.148706
0.133777
0.155011
0.0514422
0.0547685
0.0699428
0.0848119
0.0982843
0.110287
0.120921
0.130181
0.137939
0.144063
0.148502
0.151303
0.152587
0.152529
0.151375
0.14955
0.147947
0.147544
0.148734
0.151219
0.152714
0.154477
0.240026
0.0709165
0.0651804
0.0774917
0.0907134
0.103071
0.114269
0.124282
0.132996
0.140191
0.145694
0.149481
0.15167
0.15247
0.152142
0.151009
0.149543
0.148508
0.148843
0.15114
0.155715
0.16262
0.180548
0.33442
0.0934141
0.0772569
0.0871004
0.0992373
0.111037
0.121944
0.131803
0.140374
0.147321
0.152415
0.155659
0.157263
0.157546
0.156868
0.155622
0.15431
0.153639
0.154525
0.15779
0.164377
0.176834
0.212577
0.448754
0.117539
0.0904637
0.0980943
0.109528
0.121146
0.132098
0.142093
0.150755
0.157607
0.162349
0.165021
0.165955
0.165618
0.16449
0.163042
0.161803
0.161465
0.162914
0.167262
0.176093
0.194662
0.251113
0.602832
0.143655
0.104549
0.110169
0.121229
0.132983
0.144246
0.154596
0.16351
0.170345
0.174705
0.176682
0.176775
0.175649
0.173941
0.17221
0.171018
0.171049
0.173212
0.178901
0.190298
0.215104
0.293841
0.907684
0.0755594
0.358224
0.735881
0.907893
0.94605
0.915232
0.847253
0.761629
0.653906
0.526174
0.401398
0.324818
0.304821
0.285731
0.252313
0.203973
0.145834
0.0947079
0.0345214
0.086446
0.243271
0.396951
0.449868
0.450343
0.429553
0.399595
0.363723
0.323082
0.282844
0.248217
0.221049
0.196508
0.172489
0.14729
0.11909
0.0890623
0.0637971
0.0471815
0.123702
0.303608
0.418988
0.441501
0.419588
0.38404
0.346252
0.308586
0.271692
0.239002
0.214314
0.197638
0.179656
0.158614
0.136108
0.112083
0.0885606
0.0708338
0.0708469
0.188496
0.409668
0.500542
0.4998
0.458752
0.406184
0.353546
0.305219
0.262363
0.227446
0.203136
0.188377
0.175315
0.157947
0.137384
0.115716
0.0955276
0.0821062
0.0953839
0.301312
0.549802
0.600131
0.578331
0.523555
0.455404
0.384942
0.320744
0.267363
0.22765
0.201955
0.186156
0.174964
0.160755
0.142002
0.122448
0.104977
0.0951986
0.123325
0.54577
0.712132
0.698615
0.657235
0.596391
0.518643
0.42903
0.345805
0.279971
0.23443
0.206452
0.188817
0.177254
0.16483
0.147863
0.13038
0.11558
0.110096
0.160452
1.09643
0.891873
0.788127
0.727678
0.664775
0.584606
0.478669
0.376781
0.298206
0.245595
0.214292
0.194738
0.181683
0.169801
0.154471
0.138987
0.12685
0.126498
0.205867
1.95517
1.03378
0.855182
0.786999
0.723085
0.643198
0.528664
0.411796
0.320922
0.259878
0.224104
0.202671
0.187866
0.175795
0.161884
0.148176
0.138542
0.144035
0.257074
0.182254
0.126751
0.130061
0.141104
0.153492
0.165532
0.176636
0.186062
0.192881
0.196511
0.197134
0.195589
0.192946
0.190151
0.187932
0.186923
0.187841
0.19158
0.199901
0.21575
0.247878
0.327459
0.598682
0.235964
0.16095
0.162603
0.175104
0.189457
0.203293
0.216001
0.226562
0.233439
0.235444
0.23287
0.227382
0.221095
0.215645
0.212064
0.2111
0.213561
0.220487
0.233189
0.254792
0.291503
0.359764
0.495822
0.289578
0.200842
0.204425
0.220065
0.237005
0.252838
0.267425
0.2797
0.287165
0.286803
0.278812
0.26639
0.253799
0.243827
0.23778
0.236432
0.240749
0.252053
0.271671
0.301169
0.345502
0.414323
0.517607
0.36289
0.250806
0.261157
0.280568
0.29977
0.317176
0.333617
0.348955
0.359888
0.357142
0.340325
0.315582
0.292303
0.275158
0.26523
0.262933
0.269514
0.287157
0.317319
0.359868
0.419361
0.507221
0.635831
0.509839
0.310369
0.320809
0.344643
0.368132
0.382551
0.39116
0.40397
0.420525
0.431407
0.418481
0.377799
0.337433
0.3098
0.294491
0.290432
0.299193
0.325911
0.37415
0.436803
0.517285
0.639878
0.831883
0.385458
0.319213
0.330594
0.355103
0.380664
0.393778
0.39685
0.402358
0.41478
0.431622
0.438831
0.416258
0.373541
0.339214
0.319179
0.31386
0.325288
0.357836
0.420691
0.504996
0.616737
0.792204
1.08641
0.325475
0.313022
0.318944
0.340733
0.363927
0.378085
0.385375
0.393382
0.404222
0.417849
0.429324
0.422055
0.392697
0.362383
0.341226
0.335313
0.349837
0.387215
0.447035
0.534616
0.674785
0.913035
1.31854
0.444383
0.353764
0.339402
0.354164
0.367692
0.37603
0.384431
0.394858
0.40371
0.414186
0.426803
0.426028
0.405927
0.380428
0.359409
0.352076
0.368667
0.413328
0.477516
0.564812
0.718534
1.00171
1.42468
0.625786
0.393815
0.370988
0.378186
0.383561
0.383819
0.386731
0.393995
0.400619
0.411074
0.425803
0.428644
0.41079
0.384718
0.364584
0.360687
0.382074
0.430397
0.496785
0.586226
0.739965
0.996015
1.27921
0.771697
0.412448
0.36738
0.367958
0.372357
0.372327
0.371472
0.375341
0.382564
0.394266
0.406691
0.406375
0.389656
0.368458
0.355287
0.358164
0.383149
0.431098
0.498438
0.592967
0.736616
0.935492
1.11956
0.895287
0.4256
0.356171
0.343166
0.341584
0.340249
0.340036
0.343617
0.350495
0.359529
0.366461
0.364528
0.353917
0.342594
0.338758
0.348349
0.375429
0.421913
0.489776
0.585023
0.713575
0.86499
0.987036
0.952034
0.428026
0.343688
0.319176
0.310703
0.30707
0.306441
0.309016
0.313979
0.319617
0.323103
0.321962
0.317579
0.314769
0.318633
0.333212
0.361387
0.405158
0.467501
0.552898
0.661625
0.780251
0.874355
0.946283
0.41762
0.328184
0.297265
0.283926
0.277764
0.275682
0.27655
0.279227
0.282288
0.284283
0.284672
0.284884
0.287844
0.29667
0.314021
0.341987
0.382335
0.437225
0.508855
0.596048
0.689292
0.764534
0.891456
0.394807
0.308183
0.275587
0.25999
0.252114
0.248605
0.247876
0.248781
0.25035
0.251975
0.253803
0.256976
0.263304
0.274733
0.293052
0.319826
0.356485
0.404387
0.464171
0.533728
0.60559
0.663202
0.803933
0.362316
0.283872
0.253077
0.23749
0.229107
0.224856
0.223197
0.223166
0.224151
0.225947
0.228864
0.233731
0.241713
0.254086
0.272115
0.296991
0.329788
0.371253
0.421155
0.477052
0.532734
0.576681
0.698559
0.323596
0.256469
0.22969
0.21575
0.207971
0.203802
0.201964
0.201731
0.202724
0.204897
0.208539
0.214234
0.222765
0.235017
0.251915
0.27436
0.303104
0.338478
0.379849
0.424884
0.468551
0.502864
0.583793
0.281719
0.227499
0.205906
0.194576
0.188165
0.184705
0.183249
0.183287
0.184589
0.187159
0.191221
0.19718
0.205579
0.217055
0.232289
0.25194
0.276501
0.306044
0.33983
0.375873
0.410248
0.437409
0.478605
0.240024
0.198431
0.182316
0.17397
0.169288
0.166869
0.166083
0.166607
0.168304
0.17119
0.175423
0.181282
0.189147
0.199474
0.212757
0.229457
0.249874
0.273942
0.300975
0.329415
0.3563
0.37778
0.384708
0.200467
0.170342
0.159429
0.154006
0.151085
0.149776
0.149722
0.150752
0.152794
0.155866
0.160072
0.1656
0.17271
0.181722
0.19298
0.206792
0.223323
0.242458
0.26363
0.28569
0.306476
0.323334
0.29528
0.164404
0.143937
0.137659
0.134824
0.13348
0.133173
0.133769
0.135212
0.137482
0.140599
0.144628
0.149689
0.155954
0.163638
0.17297
0.184144
0.197245
0.21215
0.228432
0.245285
0.261199
0.274352
0.213223
0.132046
0.120012
0.117374
0.116626
0.116576
0.117084
0.118183
0.119906
0.122276
0.125314
0.129063
0.133594
0.139016
0.145466
0.153086
0.161995
0.172231
0.183691
0.196068
0.208819
0.22098
0.231267
0.149107
0.103878
0.0986539
0.0987109
0.0996456
0.100621
0.101756
0.103208
0.105086
0.107446
0.110317
0.113727
0.11772
0.122358
0.127725
0.133905
0.140968
0.148927
0.157708
0.167104
0.176751
0.186116
0.194268
0.101425
0.0798206
0.0799989
0.0822059
0.0843095
0.0860167
0.0875888
0.0892622
0.0911927
0.0934676
0.0961175
0.0991689
0.102649
0.106593
0.111049
0.116065
0.12168
0.1279
0.134677
0.141882
0.149293
0.156591
0.163194
0.0724738
0.0622689
0.0652598
0.068552
0.0711746
0.0732537
0.0750549
0.0768232
0.0787239
0.0808518
0.0832523
0.0859494
0.0889613
0.0923085
0.0960182
0.100117
0.104625
0.109547
0.11486
0.12049
0.126307
0.132104
0.1376
0.0592931
0.0510823
0.0545102
0.057886
0.0605056
0.0626324
0.0644711
0.0662241
0.0680356
0.0699933
0.0721438
0.0745111
0.0771095
0.0799518
0.0830532
0.0864303
0.0900972
0.0940608
0.0983114
0.102812
0.107491
0.11223
0.116872
0.0553101
0.0440475
0.0466319
0.0496042
0.0520478
0.0540888
0.055875
0.0575606
0.0592611
0.0610506
0.0629718
0.0650481
0.0672926
0.0697157
0.0723276
0.0751404
0.078166
0.0814132
0.0848832
0.0885625
0.092416
0.0963795
0.100355
0.0539639
0.0394038
0.0406864
0.0431386
0.0453944
0.0473445
0.0490778
0.0507045
0.0523132
0.0539649
0.055698
0.0575353
0.0594909
0.061575
0.0637974
0.0661688
0.0687011
0.0714055
0.0742902
0.0773562
0.0805916
0.0839659
0.0874246
0.0534363
0.0362718
0.0363807
0.0382573
0.040268
0.0421261
0.0438255
0.0454227
0.0469773
0.0485366
0.0501338
0.0517912
0.053524
0.0553441
0.0572624
0.0592905
0.0614411
0.0637276
0.0661627
0.0687559
0.0715094
0.0744131
0.0774392
0.053496
0.0341564
0.0333181
0.0346913
0.0364627
0.0382286
0.0399025
0.0414899
0.0430213
0.0445285
0.0460378
0.0475696
0.0491399
0.0507619
0.052448
0.0542111
0.0560653
0.0580256
0.0601075
0.0623253
0.0646892
0.0672013
0.0698507
0.054285
0.0328934
0.0313089
0.0322803
0.0338432
0.0355176
0.0371612
0.0387404
0.0402602
0.0417375
0.0431908
0.044637
0.0460911
0.0475667
0.0490771
0.0506361
0.0522587
0.0539608
0.0557595
0.0576714
0.0597114
0.0618884
0.0642024
0.0561021
0.0324932
0.0302984
0.0309562
0.0323424
0.0339226
0.0355196
0.0370745
0.0385741
0.0400229
0.0414317
0.0428129
0.0441792
0.0455431
0.0469176
0.0483163
0.0497543
0.0512478
0.0528142
0.0544711
0.0562352
0.0581198
0.0601311
0.0593856
0.0331152
0.0303581
0.0307468
0.0319648
0.0334321
0.0349514
0.0364496
0.0379024
0.0393052
0.0406621
0.0419805
0.0432694
0.0445391
0.0458008
0.0470672
0.0483522
0.0496713
0.0510413
0.0524798
0.0540039
0.0556286
0.057364
0.0647278
0.035059
0.0316769
0.0317707
0.0327824
0.0340873
0.0354754
0.0368669
0.0382304
0.0395546
0.040837
0.0420794
0.0432865
0.0444648
0.0456228
0.0467709
0.0479211
0.0490875
0.0502852
0.0515308
0.0528407
0.0542303
0.0557114
0.0728981
0.0387609
0.0345478
0.0342219
0.0349203
0.0359674
0.037142
0.0383576
0.0395758
0.0407775
0.0419522
0.0430952
0.0442052
0.0452841
0.0463365
0.0473697
0.048393
0.049418
0.0504579
0.0515274
0.0526412
0.053814
0.0550576
0.0849211
0.044804
0.0393549
0.0383459
0.0385314
0.0391688
0.0400152
0.0409688
0.0419763
0.0430053
0.0440342
0.0450488
0.0460404
0.0470052
0.047943
0.0488572
0.0497539
0.0506419
0.0515316
0.0524351
0.0533653
0.0543345
0.0553537
0.102285
0.0539636
0.0465562
0.044399
0.043755
0.0437714
0.0441497
0.0447467
0.0454774
0.0462853
0.0471315
0.047989
0.04884
0.0496736
0.0504845
0.0512718
0.0520381
0.0527887
0.0535314
0.0542752
0.0550302
0.0558062
0.0566115
0.127404
0.0673082
0.0566438
0.0525739
0.0506526
0.0497948
0.0495629
0.0497211
0.0501236
0.0506749
0.0513111
0.0519894
0.0526812
0.0533686
0.0540408
0.0546927
0.0553233
0.0559348
0.0565318
0.0571204
0.0577075
0.0582998
0.058902
0.16479
0.0864022
0.0700367
0.0628628
0.0591156
0.0571488
0.056213
0.0558966
0.0559559
0.0562413
0.0566587
0.0571483
0.0576713
0.0582032
0.0587288
0.0592394
0.0597309
0.0602027
0.0606564
0.0610953
0.0615231
0.0619431
0.0623561
0.224762
0.113661
0.0867626
0.074811
0.0687518
0.0655968
0.0639948
0.0632594
0.0630204
0.0630697
0.0632855
0.0635946
0.0639517
0.0643282
0.0647063
0.0650751
0.0654285
0.0657638
0.0660802
0.0663785
0.0666599
0.0669243
0.067169
0.335844
0.152101
0.105458
0.0870865
0.0787835
0.0747669
0.0727751
0.0718101
0.0713938
0.0712818
0.0713419
0.0714985
0.0717069
0.0719392
0.0721782
0.0724128
0.0726362
0.0728448
0.0730363
0.0732099
0.0733647
0.0734988
0.0736069
0.600886
0.19978
0.120506
0.0969635
0.0881103
0.0842858
0.0824953
0.0816302
0.081225
0.0810638
0.0810377
0.0810872
0.0811782
0.0812896
0.0814084
0.0815261
0.081637
0.0817377
0.081826
0.0819002
0.0819589
0.0819995
0.0820169
1.60654
0.213356
0.117776
0.100812
0.0959483
0.0941398
0.0933492
0.0929711
0.0927855
0.0926992
0.0926673
0.0926661
0.0926821
0.0927071
0.0927358
0.0927647
0.0927916
0.0928149
0.0928334
0.0928464
0.0928531
0.0928523
0.0928419
1.79411
1.63393
1.66087
1.93554
0.649434
0.714047
0.773452
0.837675
0.613214
0.690656
0.774403
0.863052
0.763801
0.872922
0.994033
1.12039
1.03931
1.22138
1.4249
1.61695
1.43312
1.75757
2.09914
2.27207
1.69233
1.90671
2.05008
2.06671
1.61019
1.65894
1.65895
1.6191
1.36888
1.37972
1.36305
1.32042
1.16191
1.16349
1.14835
1.1104
1.01098
1.0089
0.992935
0.960933
0.895621
0.892754
0.876401
0.850783
0.785421
0.785384
0.774742
0.757105
0.681468
0.684121
0.678928
0.667109
0.592218
0.595833
0.593316
0.585147
0.516139
0.519912
0.518907
0.513462
0.448711
0.452409
0.452485
0.449162
0.387308
0.390823
0.391662
0.389941
0.331272
0.334515
0.335828
0.335258
0.280915
0.283841
0.285412
0.285632
0.236711
0.239335
0.241029
0.241777
0.198855
0.201225
0.202972
0.204071
0.167149
0.169321
0.171087
0.172418
0.141086
0.143107
0.144869
0.146347
0.119996
0.121893
0.123631
0.125192
0.103183
0.104961
0.106648
0.108229
0.0899702
0.0916168
0.0932208
0.0947686
0.0797174
0.0812245
0.0827199
0.0841925
0.0718787
0.0732359
0.0746054
0.0759735
0.0659946
0.0672039
0.0684339
0.0696786
0.0617009
0.0627652
0.0638538
0.0649636
0.0587241
0.0596485
0.0605972
0.0615684
0.0568733
0.0576631
0.0584752
0.0593086
0.0560309
0.0566911
0.05737
0.058067
0.0561461
0.0566812
0.0572301
0.0577927
0.0572299
0.0576438
0.0580659
0.0584957
0.0593537
0.0596514
0.0599506
0.0602502
0.0626522
0.0628412
0.0630245
0.0631999
0.0673277
0.0674212
0.0675022
0.0675671
0.0736578
0.0736778
0.0736809
0.0736622
0.0820039
0.0819835
0.0819474
0.0818903
0.0928236
0.0928065
0.0927829
0.0927502
1.19546
0.965127
0.900678
0.857071
0.797194
0.717971
0.601248
0.469526
0.361651
0.285722
0.241274
0.216802
0.200085
0.187138
0.174976
0.163521
0.157085
0.172253
0.344507
0.902826
0.962833
0.996489
0.96561
0.881531
0.774045
0.657161
0.53561
0.420566
0.323289
0.264158
0.234145
0.217587
0.20575
0.196693
0.187602
0.180688
0.20502
0.450836
1.01181
1.14292
1.20391
1.13787
0.977493
0.810859
0.677959
0.578945
0.472341
0.355282
0.282792
0.246953
0.229973
0.220151
0.216052
0.209988
0.197349
0.214127
0.466157
1.32767
1.48947
1.55539
1.38593
1.07264
0.837247
0.682128
0.576175
0.480616
0.373989
0.296869
0.255912
0.235962
0.224587
0.22199
0.21934
0.201003
0.209179
0.399927
1.88438
2.02141
1.83345
1.4257
1.06905
0.837122
0.675738
0.561901
0.464601
0.376595
0.308706
0.265502
0.242292
0.228579
0.225883
0.22638
0.20413
0.203272
0.315623
2.27315
2.00029
1.59363
1.25055
0.975109
0.789444
0.656289
0.555939
0.462459
0.375724
0.311904
0.273964
0.252309
0.23651
0.237307
0.252579
0.22232
0.202374
0.246118
1.89532
1.57965
1.29329
1.05132
0.857834
0.715131
0.609109
0.52487
0.443607
0.368218
0.308824
0.269486
0.247668
0.2344
0.237812
0.267529
0.275702
0.218422
0.216715
1.49558
1.27004
1.06722
0.892226
0.747491
0.63402
0.54632
0.474989
0.409408
0.348444
0.298323
0.261276
0.238216
0.224951
0.225385
0.239528
0.25489
0.220223
0.268189
1.22016
1.05309
0.899415
0.764082
0.64905
0.55665
0.48409
0.427003
0.37757
0.329826
0.285654
0.250622
0.228112
0.214639
0.209521
0.217607
0.224032
0.217039
0.349734
1.0298
0.899876
0.776317
0.663894
0.566903
0.4882
0.426037
0.37768
0.336654
0.298015
0.262967
0.235043
0.21616
0.201865
0.192358
0.194348
0.201365
0.193897
0.282623
0.895958
0.791354
0.688113
0.592496
0.504862
0.43225
0.374248
0.328806
0.291982
0.260764
0.234516
0.213055
0.196468
0.182793
0.172535
0.170052
0.172426
0.161711
0.193937
0.799117
0.71376
0.626663
0.538985
0.459957
0.39341
0.338894
0.295452
0.261353
0.234111
0.211312
0.191822
0.175457
0.162037
0.151837
0.146365
0.143033
0.129473
0.129684
0.718109
0.648067
0.570047
0.492725
0.423407
0.364068
0.31465
0.274404
0.242443
0.217036
0.195876
0.177181
0.160507
0.14628
0.135093
0.127608
0.121792
0.110016
0.106728
0.638264
0.580123
0.515809
0.451717
0.392445
0.340445
0.296279
0.25954
0.229808
0.206108
0.186547
0.168881
0.152247
0.137249
0.124996
0.11667
0.112182
0.109702
0.119461
0.564112
0.518795
0.467171
0.414374
0.364102
0.3189
0.279796
0.246798
0.219759
0.198159
0.180341
0.163809
0.147683
0.132921
0.120846
0.113127
0.112085
0.119552
0.146994
0.498606
0.46397
0.422674
0.379104
0.336569
0.297541
0.263295
0.234168
0.210186
0.190898
0.174696
0.159279
0.144278
0.13075
0.12003
0.114007
0.11603
0.129817
0.179395
0.439055
0.413065
0.380323
0.3446
0.308937
0.275658
0.246121
0.220865
0.200004
0.183015
0.168268
0.154183
0.140815
0.129079
0.120255
0.116171
0.120248
0.138613
0.21192
0.383472
0.364514
0.339111
0.310378
0.281052
0.253251
0.228307
0.206829
0.188931
0.174069
0.160882
0.148445
0.136927
0.127154
0.120318
0.118119
0.12378
0.14593
0.242558
0.331521
0.318267
0.299224
0.276815
0.253384
0.230803
0.210297
0.192454
0.177355
0.16453
0.15306
0.142393
0.132742
0.12487
0.11989
0.119428
0.126665
0.151347
0.271627
0.2839
0.275198
0.261568
0.244785
0.226741
0.209025
0.192714
0.178307
0.165866
0.155076
0.145374
0.136457
0.128576
0.122438
0.1191
0.120188
0.128913
0.156074
0.297047
0.241495
0.23634
0.22717
0.215211
0.201958
0.188636
0.176111
0.164836
0.154899
0.146107
0.138144
0.13089
0.124633
0.120042
0.118115
0.120379
0.13001
0.15838
0.308743
0.204826
0.202362
0.196758
0.188842
0.179639
0.170079
0.160848
0.152337
0.144661
0.13774
0.131429
0.125735
0.120963
0.117726
0.116939
0.120032
0.130089
0.158438
0.308016
0.173901
0.173444
0.170611
0.165898
0.159984
0.153535
0.147078
0.140938
0.13525
0.130016
0.12521
0.120921
0.11746
0.11538
0.115512
0.119177
0.12934
0.15705
0.302279
0.148327
0.149313
0.148542
0.146275
0.142935
0.138976
0.134786
0.130627
0.126641
0.122883
0.119406
0.116348
0.114015
0.112907
0.113768
0.117824
0.127933
0.154953
0.297504
0.127484
0.129448
0.130142
0.129672
0.128277
0.12625
0.123862
0.121318
0.118754
0.116258
0.113925
0.111924
0.110545
0.110237
0.111671
0.116007
0.126031
0.152646
0.295267
0.110679
0.113251
0.114927
0.115717
0.115737
0.11516
0.114166
0.112908
0.111506
0.110064
0.108699
0.107588
0.107005
0.107351
0.10924
0.113788
0.123768
0.150218
0.293399
0.0972496
0.100141
0.102419
0.104042
0.105045
0.105517
0.105567
0.105305
0.104833
0.104254
0.10369
0.103318
0.103388
0.104264
0.106514
0.111228
0.121186
0.147496
0.290815
0.0866068
0.0896019
0.0921955
0.0943199
0.0959627
0.097156
0.0979593
0.0984457
0.0986965
0.0988053
0.0988918
0.0991194
0.0997165
0.101014
0.103542
0.108359
0.118278
0.144322
0.287482
0.0782514
0.0811964
0.0838952
0.0862723
0.0882898
0.0899449
0.0912623
0.0922865
0.0930789
0.0937199
0.0943174
0.0950189
0.0960298
0.0976507
0.100382
0.105253
0.115051
0.140669
0.282854
0.0717742
0.0745642
0.0772198
0.0796679
0.0818601
0.0837743
0.0854129
0.0867992
0.0879766
0.0890106
0.0899939
0.0910559
0.0923788
0.0942364
0.0970993
0.101963
0.111543
0.136635
0.276957
0.0668498
0.0694171
0.0719278
0.0743172
0.0765359
0.0785534
0.0803592
0.0819621
0.0833905
0.084695
0.0859523
0.0872733
0.0888185
0.090837
0.093773
0.0985869
0.10792
0.132358
0.27054
0.0632305
0.0655325
0.0678298
0.0700686
0.0722042
0.0742054
0.0760559
0.0777553
0.0793207
0.0807892
0.0822222
0.0837128
0.0854016
0.0875164
0.0904774
0.095209
0.104257
0.127844
0.26314
0.0607389
0.062749
0.0647857
0.0668067
0.068776
0.0706667
0.0724627
0.074159
0.0757644
0.0773046
0.0788273
0.0804095
0.0821742
0.0843301
0.0872756
0.0919002
0.100651
0.123307
0.253427
0.0592639
0.0609628
0.0627025
0.0644518
0.066186
0.0678874
0.0695447
0.0711525
0.0727141
0.0742462
0.0757841
0.0773906
0.0791733
0.0813238
0.0842197
0.0887158
0.097175
0.119018
0.244232
0.0587571
0.0601265
0.0615351
0.0629617
0.064395
0.0658325
0.0672733
0.0687155
0.0701593
0.0716133
0.0731019
0.0746751
0.0764268
0.0785336
0.0813532
0.0857056
0.0938803
0.115097
0.237068
0.0592273
0.0602503
0.0612902
0.0623352
0.0633918
0.0644828
0.0656263
0.0668278
0.0680856
0.0693999
0.0707838
0.072275
0.0739547
0.0759861
0.0787094
0.0829102
0.0907968
0.111369
0.229725
0.0607505
0.0614122
0.0620358
0.0626209
0.0631967
0.0638339
0.0645853
0.0654677
0.0664749
0.0675956
0.0688289
0.0701984
0.0717726
0.0737025
0.0763126
0.0803551
0.0879474
0.107807
0.222331
0.0634759
0.0637648
0.0639193
0.0639329
0.0638638
0.0638906
0.0641289
0.0646063
0.0653026
0.0661853
0.0672332
0.0684526
0.0698974
0.0717069
0.0741918
0.0780743
0.0853824
0.104548
0.215495
0.0676403
0.0675676
0.0672083
0.0664878
0.0654811
0.0646489
0.064215
0.0641967
0.0645317
0.065147
0.0659904
0.0670454
0.06835
0.0700316
0.072391
0.0761266
0.0831882
0.101787
0.209983
0.0735817
0.0732169
0.0723619
0.0706922
0.0681449
0.0660479
0.0647475
0.064156
0.0641046
0.0644483
0.0650898
0.0659852
0.0671549
0.0687169
0.0709664
0.0745848
0.0814574
0.0997021
0.206581
0.0817462
0.0812696
0.080119
0.0773924
0.0718216
0.067845
0.0655146
0.0643396
0.063933
0.0640417
0.064514
0.0652773
0.0663367
0.067804
0.0699733
0.0735057
0.0802413
0.0984238
0.206208
0.092673
0.0924169
0.0916386
0.0887282
0.0757301
0.0693615
0.0661211
0.0645279
0.0638951
0.0638631
0.0642364
0.0649222
0.0659162
0.0673293
0.0694508
0.0728827
0.079476
0.0979114
0.209478
)
;

boundaryField
{
    leftWall
    {
        type            epsilonWallFunction;
        value           nonuniform List<scalar> 
50
(
0.0127502
0.020604
0.0343043
0.0514422
0.0709165
0.0934141
0.117539
0.143655
0.182254
0.235964
0.289578
0.36289
0.509839
0.385458
0.325475
0.444383
0.625786
0.771697
0.895287
0.952034
0.946283
0.891456
0.803933
0.698559
0.583793
0.478605
0.384708
0.29528
0.213223
0.149107
0.101425
0.0724738
0.0592931
0.0553101
0.0539639
0.0534363
0.053496
0.054285
0.0561021
0.0593856
0.0647278
0.0728981
0.0849211
0.102285
0.127404
0.16479
0.224762
0.335844
0.600886
1.60654
)
;
        Cmu             0.09;
        kappa           0.41;
        E               9.8;
        value           nonuniform List<scalar> 
50
(
0.0127502
0.020604
0.0343043
0.0514422
0.0709165
0.0934141
0.117539
0.143655
0.182254
0.235964
0.289578
0.36289
0.509839
0.385458
0.325475
0.444383
0.625786
0.771697
0.895287
0.952034
0.946283
0.891456
0.803933
0.698559
0.583793
0.478605
0.384708
0.29528
0.213223
0.149107
0.101425
0.0724738
0.0592931
0.0553101
0.0539639
0.0534363
0.053496
0.054285
0.0561021
0.0593856
0.0647278
0.0728981
0.0849211
0.102285
0.127404
0.16479
0.224762
0.335844
0.600886
1.60654
)
;
    }
    rightWall
    {
        type            epsilonWallFunction;
        value           nonuniform List<scalar> 
50
(
0.0345214
0.0471815
0.0708469
0.0953839
0.123325
0.160452
0.205867
0.257074
0.344507
0.450836
0.466157
0.399927
0.315623
0.246118
0.216715
0.268189
0.349734
0.282623
0.193937
0.129684
0.106728
0.119461
0.146994
0.179395
0.21192
0.242558
0.271627
0.297047
0.308743
0.308016
0.302279
0.297504
0.295267
0.293399
0.290815
0.287482
0.282854
0.276957
0.27054
0.26314
0.253427
0.244232
0.237068
0.229725
0.222331
0.215495
0.209983
0.206581
0.206208
0.209478
)
;
        Cmu             0.09;
        kappa           0.41;
        E               9.8;
        value           nonuniform List<scalar> 
50
(
0.0345214
0.0471815
0.0708469
0.0953839
0.123325
0.160452
0.205867
0.257074
0.344507
0.450836
0.466157
0.399927
0.315623
0.246118
0.216715
0.268189
0.349734
0.282623
0.193937
0.129684
0.106728
0.119461
0.146994
0.179395
0.21192
0.242558
0.271627
0.297047
0.308743
0.308016
0.302279
0.297504
0.295267
0.293399
0.290815
0.287482
0.282854
0.276957
0.27054
0.26314
0.253427
0.244232
0.237068
0.229725
0.222331
0.215495
0.209983
0.206581
0.206208
0.209478
)
;
    }
    lowerWall
    {
        type            epsilonWallFunction;
        value           nonuniform List<scalar> 
62
(
0.0127502
0.0696517
0.136082
0.196778
0.250012
0.297728
0.341172
0.380654
0.415528
0.444719
0.467213
0.482216
0.489127
0.487396
0.476237
0.453756
0.421823
0.383383
0.340717
0.294198
0.236769
0.148352
0.0418106
0.0418106
0.0818688
0.155011
0.240026
0.33442
0.448754
0.602832
0.907684
1.79411
1.63393
1.66087
1.93554
0.0755594
0.086446
0.123702
0.188496
0.301312
0.54577
1.09643
1.95517
0.0755594
0.358224
0.735881
0.907893
0.94605
0.915232
0.847253
0.761629
0.653906
0.526174
0.401398
0.324818
0.304821
0.285731
0.252313
0.203973
0.145834
0.0947079
0.0345214
)
;
        Cmu             0.09;
        kappa           0.41;
        E               9.8;
        value           nonuniform List<scalar> 
62
(
0.0127502
0.0696517
0.136082
0.196778
0.250012
0.297728
0.341172
0.380654
0.415528
0.444719
0.467213
0.482216
0.489127
0.487396
0.476237
0.453756
0.421823
0.383383
0.340717
0.294198
0.236769
0.148352
0.0418106
0.0418106
0.0818688
0.155011
0.240026
0.33442
0.448754
0.602832
0.907684
1.79411
1.63393
1.66087
1.93554
0.0755594
0.086446
0.123702
0.188496
0.301312
0.54577
1.09643
1.95517
0.0755594
0.358224
0.735881
0.907893
0.94605
0.915232
0.847253
0.761629
0.653906
0.526174
0.401398
0.324818
0.304821
0.285731
0.252313
0.203973
0.145834
0.0947079
0.0345214
)
;
    }
    atmosphere
    {
        type            inletOutlet;
        inletValue      uniform 0.1;
        value           nonuniform List<scalar> 
46
(
0.1
0.1
0.1
0.1
0.1
0.1
0.1
0.1
0.1
0.1
0.1
0.1
0.1
0.1
0.1
0.1
0.1
0.1
0.1
0.1
0.1
0.1
0.1
0.1
0.1
0.1
0.1
0.1
0.1
0.1
0.1
0.0757301
0.0693615
0.0661211
0.0645279
0.0638951
0.0638631
0.0642364
0.0649222
0.0659162
0.0673293
0.0694508
0.0728827
0.079476
0.0979114
0.209478
)
;
    }
    defaultFaces
    {
        type            empty;
    }
}


// ************************************************************************* //
