/*--------------------------------*- C++ -*----------------------------------*\
| =========                 |                                                 |
| \\      /  F ield         | OpenFOAM: The Open Source CFD Toolbox           |
|  \\    /   O peration     | Version:  2.3.0                                 |
|   \\  /    A nd           | Web:      www.OpenFOAM.org                      |
|    \\/     M anipulation  |                                                 |
\*---------------------------------------------------------------------------*/
FoamFile
{
    version     2.0;
    format      ascii;
    class       volScalarField;
    location    "1.65";
    object      k;
}
// * * * * * * * * * * * * * * * * * * * * * * * * * * * * * * * * * * * * * //

dimensions      [0 2 -2 0 0 0 0];

internalField   nonuniform List<scalar> 
2268
(
0.00255781
0.00644987
0.0100684
0.0128691
0.015107
0.0169976
0.0186468
0.0200953
0.021338
0.0223529
0.0231194
0.0236229
0.0238525
0.0237954
0.0234261
0.0226781
0.0215947
0.0202253
0.0186324
0.016817
0.0144784
0.0105401
0.00462232
0.00473389
0.0146682
0.0221251
0.0279422
0.0326954
0.0366955
0.0401283
0.0430731
0.0455344
0.0474891
0.0489189
0.0498187
0.0501927
0.0500465
0.0493762
0.0481504
0.046284
0.0438987
0.0412616
0.0383024
0.0342152
0.0269883
0.0117202
0.0066401
0.0196026
0.0287587
0.036033
0.0420279
0.0470942
0.0514426
0.0551591
0.0582456
0.0606777
0.0624423
0.0635469
0.0640132
0.0638675
0.0631315
0.0618149
0.0599101
0.0575283
0.0547904
0.0515284
0.0467181
0.0379853
0.017947
0.00869014
0.023804
0.0341878
0.0424345
0.0492714
0.0550812
0.060082
0.0643526
0.0678828
0.0706431
0.0726268
0.073858
0.0743805
0.0742454
0.0735025
0.0721977
0.0703684
0.0681302
0.0655016
0.0622083
0.0571157
0.0476751
0.0241422
0.0107494
0.0278732
0.0392632
0.0482679
0.0557711
0.0621859
0.0677305
0.0724669
0.0763648
0.0793852
0.0815293
0.0828423
0.0833962
0.0832716
0.0825478
0.0813008
0.0795944
0.077543
0.0751152
0.0719571
0.0668921
0.0572247
0.0301552
0.0128946
0.0319384
0.0442075
0.0538604
0.0619425
0.0688953
0.0749326
0.0800931
0.0843188
0.0875574
0.0898193
0.0911772
0.0917387
0.0916199
0.0909312
0.0897749
0.0882369
0.0864156
0.0842843
0.0814455
0.0767534
0.0673728
0.0366987
0.0149917
0.0359947
0.0490698
0.0593212
0.067946
0.0754099
0.0819203
0.0874877
0.0920192
0.0954442
0.0977843
0.0991479
0.0996885
0.0995654
0.0989226
0.0978875
0.0965691
0.0950416
0.0933301
0.0910357
0.0871568
0.0788162
0.0447357
0.0170963
0.0400039
0.0538479
0.0646903
0.0738573
0.0818326
0.0888179
0.0947918
0.0996184
0.103202
0.105577
0.106899
0.10738
0.107234
0.106643
0.105759
0.104707
0.103572
0.102436
0.100952
0.098387
0.0923364
0.0590841
0.00706303
0.0198143
0.032145
0.0368804
0.0376094
0.0364806
0.0344934
0.0321081
0.0290415
0.0251186
0.020831
0.0178108
0.0169086
0.0162371
0.0149806
0.0130103
0.0104312
0.00785482
0.00501269
0.0136195
0.0451184
0.0684419
0.0772576
0.0781944
0.0756585
0.0717561
0.0670671
0.0609107
0.0527698
0.0446477
0.0402393
0.0390484
0.0373374
0.0342599
0.0298514
0.0243051
0.0180168
0.0087001
0.0171679
0.0623802
0.0900376
0.100876
0.101792
0.098204
0.0927588
0.0862895
0.0783844
0.0689201
0.0595853
0.0540658
0.0519635
0.0493784
0.0452374
0.0396472
0.032796
0.0246426
0.0114163
0.022439
0.0787785
0.109368
0.121393
0.122149
0.117404
0.110092
0.10153
0.0916836
0.0809888
0.0710184
0.0645679
0.0617119
0.0585457
0.0536991
0.0474314
0.0398309
0.0304746
0.0139498
0.0304207
0.0956033
0.127825
0.141069
0.142084
0.136311
0.126796
0.115455
0.103327
0.0914016
0.0809884
0.0736365
0.0698778
0.066256
0.0609171
0.0542571
0.0462445
0.0360577
0.0166391
0.0449157
0.112534
0.145693
0.160083
0.161765
0.155502
0.143391
0.128841
0.114272
0.101096
0.0901936
0.0820379
0.0772123
0.0730405
0.067359
0.0604729
0.0522398
0.0414873
0.0198833
0.0719177
0.131506
0.164369
0.178827
0.180605
0.174229
0.159703
0.142022
0.125063
0.110441
0.0988474
0.0900003
0.0840707
0.0792353
0.0732919
0.0662704
0.0579262
0.0468288
0.0234423
0.106108
0.154203
0.18479
0.197804
0.198327
0.191346
0.175334
0.15514
0.135927
0.119577
0.107011
0.0975514
0.0906231
0.0850859
0.0789136
0.0717679
0.0633379
0.0520734
0.0270974
0.0199732
0.0459111
0.0610162
0.0728187
0.0828475
0.0916197
0.0993353
0.105925
0.111179
0.114952
0.117304
0.118479
0.118811
0.118616
0.118148
0.11761
0.117161
0.116875
0.116917
0.117135
0.117226
0.116066
0.1037
0.0236286
0.0533831
0.0704937
0.0838538
0.0952443
0.105253
0.114113
0.121681
0.127589
0.131524
0.133565
0.134161
0.133931
0.133412
0.132987
0.132936
0.13349
0.134813
0.136881
0.139872
0.143782
0.149054
0.156223
0.0270725
0.0609099
0.0803766
0.0954915
0.108399
0.119808
0.130031
0.138882
0.145738
0.149803
0.151117
0.150484
0.149083
0.147804
0.147166
0.147515
0.149182
0.152459
0.157391
0.163768
0.172025
0.18336
0.199141
0.0314598
0.069757
0.0914782
0.108233
0.122726
0.1357
0.14756
0.158286
0.167058
0.171482
0.171456
0.168413
0.16482
0.162148
0.160945
0.161529
0.164368
0.170024
0.178524
0.189103
0.202148
0.219639
0.243513
0.0383484
0.0760705
0.0999835
0.119177
0.136066
0.149739
0.161022
0.172229
0.183309
0.192141
0.194524
0.188665
0.181425
0.176575
0.174428
0.174971
0.178823
0.187415
0.201161
0.216855
0.234312
0.258397
0.293173
0.0318155
0.0709594
0.0960227
0.118337
0.137858
0.152587
0.163466
0.173564
0.184048
0.194529
0.202029
0.201489
0.194481
0.188527
0.185614
0.186224
0.191133
0.201397
0.2189
0.239463
0.262974
0.296
0.346376
0.0296405
0.062085
0.0889711
0.114522
0.135978
0.152072
0.164271
0.175038
0.185142
0.194791
0.203289
0.206664
0.203351
0.198751
0.195747
0.19632
0.202146
0.213592
0.229573
0.249977
0.278802
0.322716
0.389592
0.0369599
0.0686904
0.0960337
0.121208
0.141465
0.156793
0.169222
0.180282
0.189579
0.198218
0.206805
0.211671
0.210751
0.207449
0.204422
0.2044
0.210559
0.223736
0.240279
0.25959
0.290255
0.341665
0.409436
0.0458201
0.0866497
0.113699
0.135829
0.152903
0.165421
0.175885
0.185465
0.193541
0.201665
0.210459
0.216003
0.215473
0.211731
0.208633
0.209293
0.216496
0.23025
0.246825
0.266135
0.2964
0.342682
0.388533
0.0523654
0.0984471
0.123659
0.143321
0.15849
0.169446
0.177762
0.185449
0.192846
0.200725
0.208541
0.212862
0.212156
0.209241
0.207667
0.209946
0.217879
0.23119
0.24774
0.268311
0.296948
0.33349
0.363632
0.0573769
0.105447
0.12803
0.14447
0.15709
0.166335
0.173586
0.18032
0.187011
0.193782
0.199761
0.203057
0.203383
0.202726
0.203473
0.207467
0.215821
0.228582
0.245355
0.266654
0.29302
0.32161
0.342004
0.0595469
0.108632
0.129273
0.142736
0.152793
0.160467
0.166784
0.172652
0.178401
0.183902
0.188522
0.1915
0.193041
0.194436
0.197202
0.202556
0.211206
0.223304
0.239025
0.258836
0.282197
0.305717
0.322452
0.0592428
0.108517
0.127789
0.139179
0.147309
0.153637
0.159014
0.164002
0.168786
0.173238
0.17705
0.180037
0.182543
0.185403
0.189557
0.19577
0.204509
0.215967
0.23032
0.247719
0.2675
0.287151
0.301618
0.0569631
0.105475
0.123803
0.133969
0.14089
0.146255
0.150851
0.155087
0.159097
0.162843
0.166248
0.169376
0.172561
0.176351
0.181333
0.187996
0.196671
0.207541
0.220702
0.236041
0.252769
0.268896
0.2808
0.0532503
0.100072
0.11768
0.127227
0.133542
0.138365
0.142469
0.146219
0.149762
0.153147
0.156424
0.159743
0.163384
0.167718
0.173129
0.179949
0.188422
0.198691
0.21076
0.224357
0.238649
0.251971
0.26169
0.0485837
0.0929222
0.109888
0.119193
0.125335
0.129987
0.13391
0.137472
0.140851
0.144153
0.147487
0.151016
0.154962
0.159589
0.165164
0.171924
0.180049
0.189629
0.200598
0.21261
0.22488
0.236026
0.244141
0.0432057
0.0845675
0.100899
0.110166
0.116404
0.121153
0.125146
0.128762
0.132205
0.135613
0.139111
0.142848
0.146998
0.151757
0.157317
0.163852
0.171488
0.180269
0.190084
0.200581
0.211077
0.220455
0.227325
0.0379098
0.0754384
0.0911214
0.100437
0.106905
0.111902
0.116122
0.119944
0.123588
0.127201
0.130906
0.13483
0.13911
0.143889
0.149312
0.155502
0.162544
0.170446
0.179079
0.188125
0.197024
0.204896
0.210724
0.0328254
0.0659408
0.0808888
0.090263
0.0969996
0.102301
0.106815
0.11091
0.114808
0.118653
0.12256
0.126633
0.130977
0.135699
0.140903
0.146677
0.153074
0.160077
0.167563
0.175263
0.182744
0.189325
0.194265
0.0275872
0.0564802
0.0704646
0.0798872
0.0868727
0.0924732
0.097283
0.101653
0.105799
0.109858
0.11393
0.1181
0.12245
0.127058
0.131999
0.137332
0.143086
0.149235
0.155672
0.162184
0.168447
0.173953
0.17816
0.0222461
0.0467796
0.06015
0.0695727
0.0767601
0.0826228
0.0876947
0.0923041
0.0966555
0.100879
0.105062
0.109276
0.113581
0.118037
0.122696
0.127597
0.132755
0.138143
0.143673
0.149186
0.154445
0.159098
0.162735
0.0175662
0.0375628
0.0502701
0.0596037
0.0669678
0.0730557
0.078335
0.0831222
0.0876174
0.0919434
0.0961772
0.100378
0.104596
0.108875
0.113252
0.117753
0.122386
0.127127
0.13191
0.13662
0.141085
0.14509
0.148312
0.0136042
0.0302736
0.0419144
0.0508524
0.0581176
0.0642319
0.069594
0.074468
0.0790291
0.0833913
0.0876106
0.0917444
0.0958355
0.0999185
0.104021
0.108163
0.112346
0.116554
0.120741
0.124828
0.128699
0.132213
0.135145
0.0108626
0.0255732
0.0358094
0.043961
0.0507902
0.0567075
0.0619797
0.0668033
0.0713152
0.075607
0.0797365
0.0837475
0.0876746
0.0915456
0.0953833
0.0992006
0.102999
0.106771
0.110487
0.114096
0.117522
0.120664
0.123399
0.00948422
0.02294
0.0318716
0.0390944
0.0452923
0.0508135
0.0558261
0.0604602
0.064811
0.068946
0.0729116
0.0767425
0.0804659
0.0841039
0.0876743
0.0911889
0.0946524
0.0980606
0.101397
0.104631
0.107714
0.110579
0.113152
0.00905284
0.0215177
0.0294734
0.035905
0.0415028
0.0465646
0.0512257
0.0555775
0.0596845
0.0635933
0.0673376
0.0709434
0.0744316
0.0778198
0.0811225
0.0843506
0.0875106
0.090603
0.0936203
0.0965454
0.0993495
0.101991
0.104416
0.00891362
0.0207261
0.0280323
0.0339119
0.0390501
0.0437119
0.0480294
0.0520801
0.055914
0.0595656
0.0630603
0.066418
0.069655
0.072786
0.0758236
0.0787782
0.0816577
0.0844662
0.0872026
0.0898598
0.0924221
0.0948646
0.0971521
0.00886775
0.0202886
0.0272194
0.0327455
0.0375653
0.0419325
0.0459739
0.049762
0.0533424
0.0567458
0.0599943
0.0631054
0.0660939
0.0689731
0.071755
0.0744505
0.0770687
0.0796165
0.0820975
0.084511
0.0868506
0.0891027
0.0912445
0.00889021
0.0201099
0.026846
0.0321712
0.0367964
0.0409704
0.0448147
0.0483996
0.0517702
0.0549575
0.0579842
0.0608683
0.0636252
0.0662688
0.0688118
0.0712659
0.0736417
0.0759484
0.0781928
0.0803788
0.0825063
0.084569
0.0865532
0.00899711
0.0201939
0.0268664
0.0321006
0.036622
0.0406785
0.0443888
0.0478226
0.0510263
0.0540329
0.0568675
0.0595504
0.0620988
0.0645281
0.0668524
0.0690847
0.0712372
0.0733208
0.0753448
0.0773163
0.0792391
0.0811123
0.0829288
0.00922038
0.0205855
0.0273054
0.0325319
0.0370128
0.0410007
0.0446162
0.0479316
0.0509965
0.0538475
0.0565131
0.0590163
0.0613768
0.0636116
0.0657364
0.0677656
0.0697126
0.0715896
0.0734078
0.0751762
0.0769014
0.0785864
0.0802284
0.00960296
0.0213549
0.0282282
0.0335144
0.0379972
0.0419421
0.0454787
0.0486868
0.0516222
0.0543269
0.0568337
0.0591687
0.0613538
0.0634077
0.0653474
0.0671882
0.0689442
0.0706287
0.0722536
0.0738294
0.0753644
0.0768638
0.0783281
0.0101962
0.0225906
0.0297265
0.0351294
0.039639
0.0435463
0.0469988
0.0500901
0.0528868
0.0554383
0.0577825
0.0599489
0.0619614
0.06384
0.0656022
0.0672637
0.068839
0.0703413
0.0717831
0.0731752
0.0745269
0.0758446
0.0771309
0.0110577
0.0243988
0.0319153
0.0374823
0.0420257
0.0458798
0.0492224
0.0521691
0.0548013
0.0571783
0.0593438
0.0613305
0.0631641
0.064865
0.0664506
0.0679364
0.0693363
0.0706633
0.0719292
0.0731448
0.0743194
0.0754597
0.0765695
0.0122539
0.0269101
0.0349349
0.040699
0.0452592
0.04902
0.0522059
0.0549627
0.0573911
0.0595611
0.0615225
0.0633107
0.0649521
0.0664668
0.0678715
0.0691804
0.0704064
0.0715614
0.0726562
0.0737007
0.0747036
0.0756712
0.0766071
0.0138721
0.0302948
0.0389568
0.0449206
0.0494449
0.0530423
0.0560025
0.0585095
0.0606846
0.0626085
0.0643354
0.0659021
0.0673344
0.0686511
0.0698672
0.0709952
0.0720461
0.0730302
0.0739569
0.0748346
0.0756707
0.0764705
0.0772365
0.0160476
0.0347864
0.0441868
0.0502932
0.0546754
0.0580032
0.0606484
0.0628354
0.064704
0.0663417
0.067804
0.0691266
0.070333
0.0714397
0.0724591
0.0734014
0.0742752
0.0750888
0.0758498
0.0765647
0.0772393
0.0778772
0.0784792
0.0190276
0.0407268
0.0508695
0.0569482
0.0610068
0.0639211
0.0661483
0.0679448
0.0694584
0.0707762
0.0719501
0.0730113
0.0739795
0.0748674
0.0756843
0.0764376
0.0771334
0.0777779
0.0783762
0.0789333
0.0794529
0.0799369
0.0803839
0.0233684
0.0486553
0.0592834
0.064967
0.0684278
0.0707569
0.0724662
0.0738153
0.0749418
0.0759211
0.0767952
0.077588
0.0783135
0.07898
0.0795934
0.0801583
0.0806783
0.0811574
0.0815987
0.0820053
0.0823791
0.0827203
0.0830256
0.0304878
0.0594872
0.0696801
0.0743034
0.0768159
0.0783985
0.0795235
0.0804026
0.0811385
0.0817831
0.0823637
0.0828946
0.0833834
0.0838345
0.0842504
0.084633
0.0849843
0.0853059
0.0855995
0.0858666
0.0861077
0.0863217
0.0865045
0.0448555
0.0746282
0.0820054
0.0846203
0.0858884
0.0866604
0.0872131
0.0876553
0.0880354
0.0883764
0.0886895
0.08898
0.0892502
0.0895013
0.0897335
0.0899471
0.0901424
0.09032
0.0904804
0.0906239
0.0907502
0.0908582
0.0909442
0.0865001
0.0943244
0.0948889
0.095066
0.0952038
0.0953274
0.0954402
0.0955448
0.0956433
0.095737
0.0958265
0.0959116
0.0959922
0.0960678
0.0961381
0.0962028
0.0962618
0.0963151
0.0963625
0.0964042
0.0964399
0.096469
0.0964902
0.0938243
0.0882534
0.0895224
0.0992583
0.164139
0.172333
0.182635
0.195733
0.21461
0.227462
0.2419
0.257596
0.266191
0.284488
0.304223
0.32432
0.327698
0.355824
0.385859
0.4133
0.39969
0.445254
0.489545
0.51028
0.443091
0.471782
0.489787
0.490842
0.434997
0.440567
0.439024
0.432072
0.400238
0.400496
0.396792
0.389358
0.368401
0.367468
0.364157
0.357257
0.344294
0.342916
0.339393
0.333185
0.324965
0.323586
0.31986
0.314522
0.304724
0.304073
0.301409
0.29743
0.283882
0.283938
0.282371
0.279425
0.264561
0.264942
0.263938
0.261656
0.246798
0.247319
0.246669
0.244935
0.229766
0.230371
0.230014
0.228761
0.212948
0.213611
0.213501
0.212662
0.196283
0.196982
0.197072
0.196578
0.180002
0.180724
0.180976
0.180767
0.164446
0.165196
0.165584
0.165614
0.149946
0.150731
0.151242
0.151476
0.136744
0.137574
0.138196
0.138606
0.124988
0.125865
0.126586
0.127143
0.114738
0.115657
0.116457
0.117134
0.105991
0.106935
0.107791
0.108552
0.0986877
0.0996335
0.100514
0.101324
0.0927149
0.0936396
0.0945171
0.0953426
0.0879383
0.0888195
0.0896694
0.0904812
0.0842123
0.0850354
0.0858361
0.0866108
0.081398
0.0821521
0.0828898
0.083609
0.0793762
0.0800536
0.0807188
0.0813699
0.0780529
0.078649
0.0792353
0.0798104
0.0773633
0.0778755
0.0783789
0.0788724
0.0772724
0.0776996
0.0781181
0.0785268
0.0777748
0.0781174
0.0784504
0.0787726
0.0788939
0.0791539
0.0794027
0.0796388
0.0806816
0.0808636
0.0810324
0.0811858
0.0832179
0.08333
0.0834271
0.0835065
0.086609
0.0866642
0.0867044
0.0867259
0.0909853
0.0910021
0.0910069
0.0909963
0.0964974
0.0964982
0.0964944
0.0964842
0.143809
0.187838
0.215165
0.22563
0.223843
0.215092
0.19805
0.175326
0.153046
0.133606
0.11906
0.108671
0.100597
0.093973
0.0874143
0.0799979
0.0713215
0.0599965
0.0329391
0.221489
0.248865
0.2662
0.267491
0.256069
0.238569
0.219477
0.198352
0.174946
0.150911
0.132727
0.120589
0.11187
0.104633
0.0979539
0.090102
0.0800182
0.0683516
0.039172
0.284745
0.310267
0.322832
0.313304
0.286448
0.256754
0.233096
0.215469
0.19373
0.16524
0.143622
0.129624
0.120169
0.112559
0.106092
0.0976834
0.0846097
0.0697554
0.0400692
0.356548
0.381483
0.390767
0.363889
0.312856
0.271213
0.242375
0.221897
0.201477
0.174976
0.151988
0.136356
0.125571
0.116574
0.109182
0.0999278
0.0835506
0.0658259
0.0362616
0.450478
0.467366
0.439232
0.379152
0.32131
0.279575
0.248624
0.225036
0.202639
0.179621
0.15877
0.142384
0.130217
0.119611
0.110609
0.0998373
0.0798271
0.0581124
0.0310427
0.509615
0.472639
0.4136
0.359618
0.312307
0.2775
0.250921
0.229148
0.206532
0.182705
0.162345
0.147265
0.135231
0.123294
0.113874
0.104321
0.079901
0.0531693
0.0263395
0.466262
0.419315
0.373842
0.332497
0.296773
0.268431
0.245938
0.226377
0.20543
0.183466
0.163509
0.147506
0.135195
0.123832
0.115101
0.109222
0.0917549
0.0578356
0.0241474
0.412437
0.376081
0.341144
0.308798
0.280052
0.255926
0.235841
0.217838
0.199392
0.180072
0.161786
0.145783
0.13271
0.121305
0.112279
0.104548
0.0937033
0.0659358
0.0275439
0.372322
0.343291
0.314822
0.287902
0.263292
0.242089
0.22399
0.208142
0.192669
0.175897
0.158447
0.142383
0.129101
0.117587
0.107314
0.0991203
0.0883206
0.0686356
0.0331277
0.342675
0.318513
0.294069
0.270139
0.247796
0.228216
0.211188
0.196247
0.181808
0.166519
0.150931
0.136472
0.124014
0.11213
0.100673
0.0914631
0.0817179
0.0632791
0.0290176
0.320659
0.299963
0.278278
0.256578
0.235056
0.215568
0.198211
0.182747
0.168365
0.154385
0.140846
0.127928
0.11583
0.1039
0.092174
0.0819217
0.0716753
0.0536512
0.022624
0.303915
0.286047
0.266657
0.245601
0.225064
0.206071
0.188645
0.172827
0.158489
0.14515
0.132226
0.119517
0.107091
0.0949223
0.0830556
0.0719294
0.0603567
0.0430016
0.0173225
0.288855
0.273222
0.254804
0.235223
0.216236
0.19837
0.181709
0.166284
0.152162
0.139061
0.126382
0.113649
0.100818
0.0880999
0.0757144
0.0638408
0.0515436
0.0354929
0.0149587
0.272515
0.258574
0.242437
0.225317
0.208245
0.191821
0.17625
0.161583
0.147952
0.135268
0.12303
0.110564
0.0976741
0.0846303
0.0718115
0.0595133
0.0472736
0.0334354
0.0160502
0.256118
0.244407
0.230608
0.215707
0.200487
0.185546
0.171186
0.157524
0.144705
0.13274
0.121177
0.109236
0.096708
0.0839692
0.0714164
0.0593734
0.047908
0.0358764
0.0184649
0.240602
0.230918
0.219123
0.206096
0.192539
0.179034
0.165936
0.153427
0.141653
0.1306
0.119804
0.108545
0.0967837
0.0849227
0.0733253
0.0622812
0.0519213
0.04038
0.0211322
0.225454
0.217552
0.207518
0.19616
0.184152
0.172058
0.160256
0.148966
0.138324
0.128251
0.118249
0.107842
0.0971326
0.0864606
0.0761443
0.0663697
0.0569799
0.0454623
0.0236565
0.210231
0.203915
0.195514
0.185746
0.175259
0.164589
0.154115
0.144063
0.134539
0.125426
0.116296
0.106895
0.0973443
0.0879317
0.0789115
0.070342
0.0617203
0.0503267
0.0259231
0.194891
0.189997
0.183145
0.17494
0.165976
0.156753
0.147632
0.138822
0.130394
0.12223
0.114047
0.105696
0.0972905
0.0890588
0.0811742
0.0735719
0.0654536
0.054357
0.0279863
0.17971
0.176083
0.170689
0.164007
0.156554
0.148779
0.141016
0.13344
0.126096
0.118902
0.111683
0.104357
0.0970136
0.0898179
0.0828497
0.0758951
0.0681396
0.0568981
0.0296757
0.165093
0.162584
0.158527
0.153283
0.147296
0.140937
0.134484
0.128099
0.121824
0.115604
0.109335
0.102972
0.0965822
0.0902704
0.0840404
0.0775961
0.0699905
0.0584135
0.0303574
0.151415
0.149874
0.147015
0.143109
0.138484
0.133441
0.128216
0.122948
0.117686
0.112403
0.107041
0.101576
0.0960489
0.0905044
0.0848715
0.0787723
0.0711849
0.0592063
0.030254
0.138936
0.138228
0.13642
0.133694
0.130286
0.126433
0.122325
0.118083
0.11376
0.10935
0.104826
0.100173
0.095406
0.0905141
0.0853604
0.079506
0.0718802
0.0595411
0.0298874
0.127802
0.127788
0.126866
0.125145
0.122793
0.119982
0.116865
0.113543
0.110069
0.106452
0.102682
0.0987466
0.0946351
0.0902922
0.0855278
0.0798592
0.0721961
0.0596145
0.0296269
0.118054
0.118594
0.118389
0.117498
0.116029
0.114107
0.111846
0.109329
0.106605
0.103691
0.100585
0.0972714
0.0937182
0.0898341
0.0853906
0.0798808
0.0722201
0.0595505
0.0295306
0.109664
0.11062
0.11097
0.110737
0.109985
0.108797
0.107255
0.105426
0.10335
0.101045
0.0985118
0.0957288
0.0926456
0.0891441
0.0849707
0.0796127
0.0720074
0.0593787
0.0294341
0.102558
0.103801
0.104557
0.104822
0.104629
0.104028
0.103074
0.101815
0.100285
0.0984969
0.096448
0.0941105
0.0914186
0.0882357
0.0842941
0.0790854
0.0715747
0.0590487
0.0292834
0.0966322
0.0980504
0.0990787
0.0996995
0.0999212
0.09977
0.0992794
0.0984812
0.0973975
0.0960368
0.094389
0.0924188
0.0900487
0.0871293
0.0833863
0.0783183
0.0709247
0.0585208
0.0290767
0.0917718
0.0932687
0.0944566
0.0953093
0.0958198
0.0959964
0.0958554
0.0954141
0.0946838
0.0936649
0.0923403
0.090666
0.0885552
0.0858505
0.0822759
0.0773402
0.0700706
0.0578169
0.0287763
0.0878575
0.0893557
0.0906104
0.0915914
0.0922828
0.0926801
0.0927868
0.092608
0.0921447
0.0913888
0.0903149
0.0888715
0.0869642
0.0844307
0.0809963
0.0761809
0.0690352
0.0569765
0.0283856
0.0847774
0.0862164
0.0874638
0.0884888
0.0892705
0.0897969
0.0900618
0.0900608
0.089786
0.0892206
0.0883316
0.0870601
0.0853064
0.0829056
0.0795867
0.0748825
0.0678685
0.0560189
0.0279563
0.0824346
0.0837684
0.0849504
0.0859512
0.0867483
0.0873256
0.0876711
0.087773
0.087616
0.0871756
0.0864117
0.0852595
0.0836148
0.0813124
0.0780867
0.0734841
0.0666013
0.0549489
0.0274599
0.0807528
0.0819467
0.0830174
0.0839384
0.0846882
0.0852497
0.085608
0.0857467
0.0856444
0.0852702
0.0845781
0.0834978
0.0819224
0.0796873
0.0765333
0.0720208
0.0652692
0.0538239
0.0267982
0.0796804
0.0807073
0.0816296
0.0824239
0.0830717
0.0835585
0.0838693
0.0839855
0.0838814
0.083521
0.0828529
0.0818027
0.0802612
0.0780651
0.0749611
0.0705223
0.0638939
0.0526773
0.0261614
0.0791929
0.0800305
0.0807718
0.0813966
0.0818914
0.0822479
0.082455
0.0824943
0.0823375
0.081944
0.0812578
0.0802007
0.0786619
0.0764794
0.0734047
0.0690206
0.0624956
0.0515158
0.0256635
0.0792918
0.0799226
0.0804527
0.0808644
0.0811524
0.0813208
0.0813679
0.0812785
0.0810222
0.0805541
0.0798132
0.0787174
0.0771543
0.0749628
0.0718988
0.0675514
0.0611044
0.0503174
0.0251402
0.0800099
0.0804214
0.0807094
0.0808583
0.0808739
0.0807861
0.0806121
0.0803422
0.0799435
0.0793649
0.0785388
0.0773783
0.0757683
0.0735487
0.0704787
0.0661522
0.0597601
0.049118
0.0246038
0.0814128
0.0815993
0.0816163
0.0814399
0.0810898
0.080655
0.0801876
0.0796845
0.0791051
0.0783873
0.0774533
0.0762091
0.074536
0.0722741
0.0691857
0.0648685
0.0585182
0.0480002
0.0241021
0.0836033
0.0835753
0.0833027
0.0827189
0.0818475
0.0809307
0.0800815
0.0792931
0.078503
0.0776277
0.0765736
0.0752362
0.0734919
0.0711804
0.0680681
0.0637564
0.0574423
0.047039
0.0236928
0.0867224
0.0865252
0.0859846
0.0848952
0.0831922
0.0815816
0.0802488
0.0791341
0.0781202
0.0770853
0.0759125
0.0744841
0.0726702
0.0703109
0.0671772
0.062873
0.0565892
0.0462912
0.0234356
0.0909438
0.090684
0.0900027
0.0883835
0.0850925
0.0824752
0.0805788
0.0791373
0.0779199
0.0767479
0.075476
0.0739724
0.0721014
0.0697043
0.0665575
0.0622594
0.0559877
0.0457853
0.0233987
0.0964522
0.0963135
0.0958699
0.0942398
0.0871194
0.0832445
0.0808599
0.0791882
0.0778431
0.07659
0.0752606
0.073713
0.0718083
0.0693899
0.066236
0.0619186
0.0556111
0.0454738
0.0236261
)
;

boundaryField
{
    leftWall
    {
        type            kqRWallFunction;
        value           nonuniform List<scalar> 
50
(
0.00255781
0.00473389
0.0066401
0.00869014
0.0107494
0.0128946
0.0149917
0.0170963
0.0199732
0.0236286
0.0270725
0.0314598
0.0383484
0.0318155
0.0296405
0.0369599
0.0458201
0.0523654
0.0573769
0.0595469
0.0592428
0.0569631
0.0532503
0.0485837
0.0432057
0.0379098
0.0328254
0.0275872
0.0222461
0.0175662
0.0136042
0.0108626
0.00948422
0.00905284
0.00891362
0.00886775
0.00889021
0.00899711
0.00922038
0.00960296
0.0101962
0.0110577
0.0122539
0.0138721
0.0160476
0.0190276
0.0233684
0.0304878
0.0448555
0.0865001
)
;
    }
    rightWall
    {
        type            kqRWallFunction;
        value           nonuniform List<scalar> 
50
(
0.00501269
0.0087001
0.0114163
0.0139498
0.0166391
0.0198833
0.0234423
0.0270974
0.0329391
0.039172
0.0400692
0.0362616
0.0310427
0.0263395
0.0241474
0.0275439
0.0331277
0.0290176
0.022624
0.0173225
0.0149587
0.0160502
0.0184649
0.0211322
0.0236565
0.0259231
0.0279863
0.0296757
0.0303574
0.030254
0.0298874
0.0296269
0.0295306
0.0294341
0.0292834
0.0290767
0.0287763
0.0283856
0.0279563
0.0274599
0.0267982
0.0261614
0.0256635
0.0251402
0.0246038
0.0241021
0.0236928
0.0234356
0.0233987
0.0236261
)
;
    }
    lowerWall
    {
        type            kqRWallFunction;
        value           nonuniform List<scalar> 
62
(
0.00255781
0.00644987
0.0100684
0.0128691
0.015107
0.0169976
0.0186468
0.0200953
0.021338
0.0223529
0.0231194
0.0236229
0.0238525
0.0237954
0.0234261
0.0226781
0.0215947
0.0202253
0.0186324
0.016817
0.0144784
0.0105401
0.00462232
0.00462232
0.0117202
0.017947
0.0241422
0.0301552
0.0366987
0.0447357
0.0590841
0.0938243
0.0882534
0.0895224
0.0992583
0.00706303
0.0136195
0.0171679
0.022439
0.0304207
0.0449157
0.0719177
0.106108
0.00706303
0.0198143
0.032145
0.0368804
0.0376094
0.0364806
0.0344934
0.0321081
0.0290415
0.0251186
0.020831
0.0178108
0.0169086
0.0162371
0.0149806
0.0130103
0.0104312
0.00785482
0.00501269
)
;
    }
    atmosphere
    {
        type            inletOutlet;
        inletValue      uniform 0.1;
        value           nonuniform List<scalar> 
46
(
0.1
0.1
0.1
0.1
0.1
0.1
0.1
0.1
0.1
0.1
0.1
0.1
0.1
0.1
0.1
0.1
0.1
0.1
0.1
0.1
0.1
0.1
0.1
0.1
0.1
0.1
0.1
0.1
0.1
0.1
0.1
0.0871194
0.0832445
0.0808599
0.0791882
0.0778431
0.07659
0.0752606
0.073713
0.0718083
0.0693899
0.066236
0.0619186
0.0556111
0.0454738
0.0236261
)
;
    }
    defaultFaces
    {
        type            empty;
    }
}


// ************************************************************************* //
