/*--------------------------------*- C++ -*----------------------------------*\
| =========                 |                                                 |
| \\      /  F ield         | OpenFOAM: The Open Source CFD Toolbox           |
|  \\    /   O peration     | Version:  2.3.0                                 |
|   \\  /    A nd           | Web:      www.OpenFOAM.org                      |
|    \\/     M anipulation  |                                                 |
\*---------------------------------------------------------------------------*/
FoamFile
{
    version     2.0;
    format      ascii;
    class       volScalarField;
    location    "1.65";
    object      nut;
}
// * * * * * * * * * * * * * * * * * * * * * * * * * * * * * * * * * * * * * //

dimensions      [0 2 -1 0 0 0 0];

internalField   nonuniform List<scalar> 
2268
(
4.61807e-05
5.37542e-05
6.70444e-05
7.5747e-05
8.21553e-05
8.73366e-05
9.17233e-05
9.54772e-05
9.86168e-05
0.000101117
0.000102963
0.000104152
0.000104686
0.000104555
0.000103709
0.000102008
9.94962e-05
9.60283e-05
9.17038e-05
8.65172e-05
7.96814e-05
6.73965e-05
4.59913e-05
9.78872e-05
0.000441116
0.000618342
0.000733017
0.000818838
0.000887291
0.000943952
0.00099089
0.00102844
0.00105654
0.0010753
0.00108511
0.00108645
0.00107965
0.00106469
0.00104023
0.000992789
0.000921297
0.000841829
0.000758921
0.000669768
0.000542674
0.000151006
0.000115676
0.000737908
0.0011277
0.00139561
0.00159836
0.0017613
0.00189682
0.00200971
0.00210094
0.00217043
0.0022184
0.00224559
0.00225293
0.002241
0.00220928
0.00215409
0.00205959
0.00192115
0.00175079
0.00155435
0.00132095
0.000970717
0.00018701
0.000132123
0.000931137
0.00150398
0.00191084
0.00222305
0.00247584
0.00268677
0.00286305
0.00300659
0.00311766
0.00319672
0.00324482
0.00326319
0.00325259
0.00321213
0.00313691
0.00301225
0.00283139
0.00259618
0.0023032
0.00192254
0.00132423
0.000218544
0.000146643
0.00107275
0.00179043
0.00231147
0.00271595
0.00304579
0.00332203
0.00355372
0.00374376
0.00389295
0.00400207
0.00407237
0.00410534
0.00410191
0.00406115
0.00397802
0.00383935
0.0036358
0.00335984
0.00299268
0.00247638
0.00163236
0.000244724
0.000160194
0.00118832
0.00201936
0.00263092
0.00310993
0.00350318
0.00383406
0.00411288
0.00434337
0.00452691
0.00466453
0.00475761
0.00480772
0.00481603
0.00478188
0.00470066
0.00456079
0.00434937
0.00405187
0.00363192
0.00299827
0.00192175
0.000270107
0.000172093
0.00128898
0.00220916
0.0028916
0.00342973
0.0038744
0.00425062
0.00456946
0.00483531
0.00505002
0.00521486
0.00533113
0.00540039
0.00542401
0.00540177
0.00532978
0.00519807
0.00499013
0.00468694
0.0042357
0.00351207
0.00222641
0.000298782
0.000183117
0.00137761
0.00236875
0.0031068
0.00369174
0.00417823
0.00459246
0.00494584
0.00524316
0.00548669
0.0056779
0.0058179
0.00590808
0.0059499
0.00594365
0.00588623
0.00576864
0.00557378
0.00527882
0.0048199
0.00405012
0.00261142
0.000346138
5.94205e-05
9.86383e-05
0.000126375
0.000134834
0.000134562
0.000130869
0.000126387
0.000121823
0.000116082
0.000107921
9.72946e-05
8.78958e-05
8.44135e-05
8.3043e-05
8.00494e-05
7.46871e-05
6.71502e-05
5.86312e-05
6.55081e-05
0.000193118
0.000753114
0.00106206
0.0011941
0.00122194
0.00119934
0.00115968
0.00111299
0.00103352
0.000886067
0.000722787
0.00065926
0.000698345
0.000727394
0.0007172
0.000673435
0.000596958
0.000457929
0.000144384
0.000214438
0.00115351
0.00174136
0.00207435
0.00222253
0.00226008
0.00223646
0.00217161
0.00203528
0.00178868
0.00149097
0.00133112
0.00135269
0.00138348
0.00135317
0.0012622
0.00109306
0.000771572
0.000165565
0.000240408
0.00136341
0.00215073
0.00265361
0.00292716
0.00305411
0.00308538
0.0030396
0.00288353
0.00259546
0.00223459
0.00199181
0.00195506
0.00195309
0.00188904
0.00174978
0.0014947
0.00101799
0.000183613
0.000276416
0.00149617
0.00245034
0.00309691
0.00347034
0.00367206
0.0037589
0.00374034
0.00359394
0.0033028
0.00292304
0.00262151
0.00251172
0.00245769
0.00235194
0.00216373
0.00183344
0.00122916
0.000202046
0.000332682
0.00160048
0.00273451
0.00350923
0.00394894
0.00419608
0.0043132
0.00432038
0.00419769
0.00392375
0.00354629
0.00320797
0.00302705
0.00291294
0.00276169
0.00252436
0.00212503
0.00140702
0.000221754
0.000424554
0.00174515
0.00308522
0.0039552
0.00441597
0.00467328
0.00479549
0.00481797
0.00472042
0.00446975
0.00410363
0.00374352
0.00350121
0.00332767
0.00312973
0.00284386
0.00238069
0.00156022
0.000240247
0.000518268
0.00207013
0.00359371
0.00447446
0.00489572
0.00512314
0.00523353
0.00526026
0.00518147
0.00495188
0.00459887
0.00422589
0.00393434
0.00370638
0.00346213
0.00312842
0.00260608
0.00169436
0.000257063
0.000196998
0.00149667
0.00257625
0.00338213
0.00402454
0.00456393
0.00502771
0.00542722
0.00576761
0.00605189
0.00628211
0.00645928
0.00658445
0.00665928
0.00668495
0.00665996
0.0065769
0.00641704
0.00615441
0.0057235
0.00498946
0.00370251
0.0016166
0.000212947
0.00159353
0.00275051
0.00361404
0.00430934
0.00490444
0.00542572
0.00588171
0.00627614
0.00661249
0.00689467
0.00712427
0.00730176
0.00742835
0.00750576
0.00753427
0.00750967
0.00741861
0.0072314
0.0069106
0.00638275
0.00555796
0.00443002
0.00022779
0.00166251
0.00284426
0.00372924
0.00446204
0.00510941
0.00569029
0.00620639
0.00665664
0.00704204
0.00737152
0.00765082
0.00788152
0.00806364
0.00819746
0.00828341
0.00831979
0.00829958
0.0082065
0.00801474
0.00770862
0.00730317
0.00689545
0.000245459
0.00174615
0.00288388
0.00375775
0.00452199
0.00522516
0.005874
0.00646185
0.00697927
0.00741036
0.00777413
0.00808872
0.00836427
0.00859974
0.0087897
0.00893094
0.00902188
0.00906028
0.00903939
0.00894327
0.00876991
0.00855977
0.00839355
0.0002596
0.00167802
0.00280448
0.003709
0.00452624
0.00527499
0.00596567
0.00660853
0.00719146
0.00770185
0.00813792
0.00847941
0.0087791
0.00905775
0.00929826
0.00948703
0.00961913
0.00969953
0.00973388
0.00968938
0.00955213
0.00939115
0.00929883
0.000236344
0.00141965
0.00251013
0.00354919
0.0044933
0.00532139
0.00605998
0.00673831
0.00734998
0.00789054
0.00837092
0.0087777
0.00911292
0.00943014
0.00971474
0.00994437
0.0101075
0.0102015
0.0102511
0.0102195
0.0100918
0.00995381
0.00993902
0.000242939
0.00110826
0.00223371
0.00346422
0.00457261
0.00550494
0.00630203
0.00700961
0.00763188
0.00817258
0.00866335
0.00910758
0.00947712
0.00981053
0.0101063
0.0103448
0.0105126
0.0106038
0.0106107
0.0105196
0.0103674
0.0102658
0.0103602
0.000276659
0.00120039
0.00244554
0.00373339
0.00489841
0.00588403
0.00670409
0.00740809
0.00801223
0.00853752
0.0090186
0.00946511
0.00984773
0.0101811
0.0104643
0.0106799
0.0108232
0.0108998
0.0108815
0.0107378
0.0105525
0.0104882
0.01059
0.000301945
0.00171587
0.00313617
0.00439059
0.0054858
0.00641652
0.00719936
0.00785737
0.00841508
0.00890401
0.00936199
0.00979632
0.0101721
0.0104875
0.0107451
0.01093
0.0110407
0.0110859
0.011037
0.0108738
0.0106853
0.0106111
0.0106208
0.000319805
0.00211485
0.00374609
0.00502415
0.00607141
0.00694033
0.00765582
0.00824646
0.00874903
0.00919723
0.00962417
0.0100349
0.0103961
0.0106941
0.0109245
0.0110758
0.0111508
0.0111585
0.0110821
0.0109267
0.0107736
0.0106996
0.0106297
0.000330944
0.0023513
0.00414196
0.00547385
0.00650194
0.00731835
0.00797525
0.00851639
0.00898035
0.00940018
0.00980022
0.01018
0.010519
0.0107965
0.0109993
0.0111206
0.0111661
0.0111456
0.011062
0.0109387
0.0108292
0.010762
0.0106653
0.000335203
0.00248135
0.00437618
0.00574483
0.00676244
0.00754702
0.00816966
0.00868168
0.00912294
0.00952321
0.00989983
0.0102512
0.0105606
0.0108094
0.0109843
0.0110819
0.0111091
0.0110767
0.0109988
0.0109055
0.0108327
0.0107807
0.0107025
0.000333805
0.00253777
0.00447826
0.00586472
0.00687854
0.0076482
0.00825476
0.00875322
0.00918245
0.00956839
0.00992393
0.0102475
0.010527
0.0107478
0.0109006
0.0109844
0.0110067
0.0109793
0.0109194
0.0108534
0.0108046
0.0107661
0.0107093
0.000327589
0.00253605
0.00447609
0.00586126
0.00687145
0.00763598
0.00823813
0.0087329
0.00915695
0.00953304
0.00987182
0.010173
0.0104288
0.0106302
0.0107717
0.0108541
0.0108845
0.0108745
0.0108407
0.0108029
0.0107738
0.0107457
0.0107002
0.000317443
0.00248759
0.00439065
0.00575638
0.00675824
0.00752067
0.00812414
0.00862105
0.00904524
0.00941708
0.00974642
0.0100349
0.0102789
0.0104738
0.010617
0.01071
0.0107588
0.0107737
0.0107683
0.0107567
0.0107448
0.0107259
0.0106876
0.000304102
0.00240147
0.00423748
0.00556674
0.00655291
0.00731204
0.00791887
0.00842159
0.00885091
0.00922537
0.0095547
0.00984236
0.0100879
0.0102897
0.0104466
0.0105599
0.0106342
0.0106772
0.0106995
0.0107102
0.010712
0.0107006
0.0106677
0.000287783
0.00228472
0.00402754
0.00530484
0.00626743
0.00702052
0.00763131
0.00814281
0.00858237
0.00896683
0.00930582
0.00960403
0.00986293
0.0100823
0.0102618
0.010402
0.0105054
0.0105776
0.0106255
0.0106552
0.010668
0.010662
0.0106328
0.000270251
0.00213389
0.00376595
0.00497974
0.00591246
0.00665722
0.00727269
0.00779604
0.0082509
0.00865221
0.00900909
0.00932668
0.00960731
0.00985146
0.0100587
0.0102289
0.010363
0.0104639
0.0105359
0.0105829
0.0106057
0.0106046
0.0105787
0.000252076
0.00195212
0.00345698
0.00459935
0.00549852
0.00623424
0.00685589
0.00739428
0.00786902
0.00829273
0.00867347
0.00901616
0.00932335
0.00959572
0.00983275
0.0100336
0.0101979
0.0103267
0.0104222
0.0104865
0.0105205
0.010526
0.0105046
0.000231966
0.00174631
0.00310464
0.00417247
0.00503782
0.00576577
0.00639587
0.00695237
0.00745059
0.00790052
0.00830873
0.00867948
0.00901515
0.00931647
0.0095829
0.00981324
0.0100064
0.010162
0.0102806
0.0103634
0.0104112
0.0104265
0.0104125
0.00020889
0.00149153
0.00271325
0.00371148
0.00454691
0.00527028
0.00591142
0.0064883
0.00701219
0.00749031
0.00792746
0.00832699
0.00869097
0.00902016
0.00931415
0.00957172
0.00979141
0.00997217
0.0101137
0.0102163
0.0102807
0.0103091
0.010306
0.000186251
0.00122245
0.00230541
0.00323909
0.00405057
0.00477377
0.00542744
0.00602506
0.00657471
0.00708098
0.0075465
0.00797367
0.0083642
0.00871892
0.00903767
0.00931945
0.00956287
0.00976661
0.00992989
0.0100527
0.0101355
0.0101797
0.0101904
0.000164227
0.00103337
0.00197645
0.00283115
0.00360563
0.0043168
0.00497666
0.00559131
0.00616392
0.00669612
0.0071871
0.00763883
0.0080527
0.00842956
0.00876949
0.00907184
0.00933549
0.00955925
0.00974222
0.00988408
0.00998521
0.0100466
0.0100725
0.000146531
0.000945241
0.00176844
0.00253721
0.00326195
0.00395088
0.0046064
0.00522812
0.00581433
0.00636322
0.00687322
0.00734418
0.00777659
0.00817101
0.00852773
0.00884632
0.00912597
0.0093659
0.00956528
0.00972371
0.00984136
0.00991924
0.00995968
0.000136534
0.000927172
0.00167715
0.00237629
0.00305138
0.00371023
0.00435063
0.00496782
0.00555654
0.00611229
0.00663188
0.00711367
0.00755716
0.00796246
0.00832973
0.00865886
0.0089494
0.00920075
0.00941222
0.00958337
0.00971427
0.00980573
0.00985944
0.000133354
0.000946049
0.00167657
0.00233902
0.00297848
0.00360783
0.0042267
0.00482964
0.00540999
0.00596177
0.00648054
0.00696357
0.00740951
0.00781794
0.00818881
0.00852208
0.00881752
0.00907471
0.00929311
0.00947232
0.00961228
0.00971358
0.00977768
0.000132509
0.00098116
0.00173825
0.00239927
0.00302332
0.00363223
0.00423031
0.00481437
0.00537864
0.00591729
0.00642563
0.00690047
0.00734002
0.00774345
0.00811052
0.00844115
0.00873521
0.00899241
0.00921234
0.0093946
0.00953904
0.00964601
0.00971658
0.000132444
0.00102135
0.00183285
0.00252251
0.00315396
0.00375659
0.00434047
0.00490642
0.0054513
0.00597091
0.00646147
0.00692021
0.00734541
0.00773624
0.00809239
0.0084138
0.00870041
0.00895202
0.00916829
0.00934886
0.00949348
0.00960228
0.00967598
0.000132967
0.00106559
0.0019468
0.00268508
0.00334199
0.0039518
0.00452984
0.0050814
0.00560684
0.00610462
0.00657275
0.00700963
0.00741425
0.00778617
0.0081253
0.00843174
0.00870555
0.00894664
0.00915476
0.00932957
0.00947076
0.00957827
0.00965247
0.000134205
0.00111576
0.00207488
0.00287297
0.00356661
0.00419303
0.00477199
0.00531307
0.00582042
0.00629553
0.00673875
0.00715018
0.00752996
0.0078784
0.00819592
0.00848294
0.00873974
0.00896642
0.00916286
0.00932876
0.00946378
0.00956769
0.00964057
0.000136383
0.00117374
0.00221472
0.00307691
0.00381219
0.00446001
0.00504382
0.00557713
0.00606775
0.00652027
0.00693758
0.0073217
0.00767419
0.00799636
0.00828932
0.00855396
0.00879091
0.00900051
0.00918282
0.00933764
0.00946462
0.00956342
0.00963384
0.000139756
0.0012394
0.00236229
0.0032878
0.00406512
0.00473564
0.00532592
0.0058529
0.00632774
0.00675807
0.00714931
0.00750549
0.00782968
0.00812429
0.00839124
0.00863197
0.00884753
0.00903855
0.00920532
0.00934778
0.00946563
0.00955845
0.00962583
0.000144554
0.00131008
0.00251066
0.00349588
0.00431368
0.00500672
0.00560388
0.00612507
0.00658459
0.00699304
0.00735837
0.00768661
0.00798237
0.0082492
0.0084898
0.0087062
0.00889988
0.00907179
0.00922245
0.00935199
0.00946019
0.00954662
0.0096107
0.000150959
0.00138224
0.0026535
0.0036948
0.00455192
0.00526716
0.00587088
0.00638583
0.00682959
0.00721581
0.00755506
0.00785537
0.00812286
0.00836214
0.00857664
0.00876895
0.00894092
0.00909379
0.00922833
0.00934484
0.00944323
0.00952309
0.00958376
0.000159139
0.00145464
0.00279103
0.00388768
0.00478455
0.0055214
0.00612993
0.0066363
0.00706199
0.00742415
0.00773608
0.00800782
0.00824687
0.00845875
0.00864753
0.00881618
0.00896685
0.00910102
0.00921964
0.00932317
0.00941167
0.00948479
0.00954187
0.000169324
0.00153066
0.0029338
0.00409036
0.00502872
0.00578492
0.00639337
0.00688548
0.00728792
0.00762195
0.00790372
0.00814516
0.00835488
0.00853909
0.00870224
0.00884752
0.00897723
0.00909298
0.00919584
0.00928638
0.00936477
0.00943079
0.00948382
0.000181919
0.00161806
0.00310224
0.00433004
0.00531159
0.00608083
0.00667919
0.00714679
0.0075173
0.00781668
0.00806383
0.00827214
0.00845094
0.00860669
0.00874394
0.00886587
0.00897475
0.00907217
0.00915921
0.00923652
0.00930435
0.00936258
0.00941071
0.000197734
0.00172774
0.0033253
0.00464311
0.00566627
0.00643462
0.00700557
0.00743308
0.00775971
0.00801608
0.00822315
0.00839499
0.00854094
0.00866725
0.00877816
0.00887657
0.00896455
0.00904354
0.00911454
0.00917817
0.00923473
0.00928419
0.00932614
0.000218663
0.00187453
0.00364566
0.00507765
0.00612948
0.00686905
0.00738532
0.00775195
0.00802065
0.00822521
0.008387
0.00851946
0.00863105
0.00872721
0.00881152
0.00888637
0.00895343
0.00901388
0.00906855
0.00911798
0.00916246
0.009202
0.0092363
0.00024909
0.00209391
0.00414364
0.0057057
0.00674078
0.00739858
0.00782078
0.00810209
0.00829918
0.00844482
0.00855795
0.00864963
0.00872652
0.0087927
0.00885075
0.0089024
0.00894883
0.00899088
0.00902914
0.00906403
0.00909576
0.00912435
0.0091496
0.000301357
0.00250897
0.00502251
0.00664635
0.00753503
0.00801916
0.00829807
0.00847127
0.00858751
0.00867137
0.00873574
0.00878769
0.00883125
0.00886882
0.00890188
0.00893141
0.00895806
0.00898232
0.00900452
0.0090249
0.00904361
0.00906066
0.00907589
0.000419164
0.00375307
0.00688043
0.0080683
0.00850186
0.0086877
0.00878203
0.00883708
0.00887302
0.0088987
0.00891841
0.00893438
0.00894784
0.00895953
0.00896987
0.00897915
0.00898756
0.00899526
0.00900233
0.00900885
0.00901488
0.0090204
0.00902536
0.000441595
0.000429015
0.00043428
0.000458115
0.00373361
0.00374329
0.0038813
0.00411621
0.00675975
0.00674215
0.00680061
0.00691964
0.00834925
0.00834439
0.00837964
0.00844927
0.00929925
0.00932959
0.00940404
0.00950771
0.0100325
0.0101519
0.0102751
0.0103143
0.010441
0.0105061
0.0105314
0.0104917
0.0105764
0.0105301
0.0104565
0.0103772
0.0105321
0.0104628
0.0103958
0.0103331
0.0105126
0.0104452
0.0103931
0.0103449
0.0105526
0.0104899
0.0104407
0.0103973
0.0106118
0.0105558
0.0105065
0.0104646
0.0106403
0.0105954
0.0105535
0.0105161
0.0106432
0.0106061
0.0105696
0.0105336
0.0106369
0.0106028
0.0105672
0.0105302
0.0106209
0.0105883
0.0105531
0.0105157
0.0105888
0.0105576
0.0105232
0.0104859
0.0105374
0.0105077
0.0104745
0.0104381
0.0104671
0.0104395
0.0104082
0.0103736
0.0103806
0.0103562
0.0103279
0.0102961
0.0102819
0.010262
0.0102379
0.0102099
0.0101759
0.0101616
0.0101426
0.0101192
0.0100683
0.0100601
0.0100466
0.0100282
0.00996546
0.00996308
0.00995488
0.00994133
0.00987395
0.00987656
0.00987294
0.00986351
0.00979879
0.00980524
0.00980515
0.0097989
0.00974249
0.00975165
0.00975405
0.00975005
0.00970484
0.00971571
0.00971972
0.00971724
0.00968276
0.00969472
0.00969976
0.00969833
0.00967129
0.00968385
0.00968973
0.00968919
0.00966449
0.00967743
0.00968407
0.00968452
0.0096562
0.00966952
0.00967697
0.00967859
0.00964078
0.00965454
0.00966293
0.00966594
0.00961356
0.00962785
0.00963732
0.00964192
0.00957131
0.00958609
0.00959669
0.00960296
0.00951256
0.00952764
0.00953918
0.00954703
0.00943802
0.00945293
0.00946498
0.009474
0.00935095
0.00936492
0.0093767
0.00938613
0.00925725
0.00926933
0.00927981
0.00928856
0.00916536
0.00917457
0.00918268
0.00918959
0.00908552
0.00909115
0.00909613
0.00910033
0.00902849
0.00903031
0.00903189
0.00903317
0.00155697
0.00329022
0.00462613
0.00534591
0.00565672
0.00579939
0.00587134
0.00589218
0.00582902
0.00562281
0.00528769
0.0049024
0.00455195
0.00424703
0.00393032
0.00352231
0.00291441
0.00188074
0.000283445
0.0048904
0.00578919
0.0064001
0.00666896
0.00669449
0.00661768
0.00659705
0.00661099
0.00654963
0.00634005
0.00600201
0.00558952
0.00517647
0.00478897
0.00439032
0.0038947
0.00318927
0.0020509
0.000306319
0.00721197
0.00758048
0.00779115
0.00776394
0.00755476
0.00731698
0.0072129
0.00721731
0.00715124
0.00691667
0.00656475
0.00612348
0.00565131
0.00517943
0.0046887
0.00408969
0.00326473
0.00204516
0.000309979
0.00861767
0.00879346
0.00883562
0.00859884
0.0082126
0.00790695
0.00775088
0.00769118
0.00760144
0.00736786
0.00700317
0.00653882
0.00601427
0.00544578
0.00483295
0.00409731
0.00312564
0.00186431
0.000295907
0.00969215
0.00972529
0.00947025
0.00907483
0.00869144
0.00840332
0.00823286
0.00811123
0.00795445
0.00771051
0.00734914
0.00687218
0.00629855
0.00563313
0.00487466
0.00396269
0.00280955
0.00149521
0.000274784
0.0102825
0.010051
0.00966085
0.00930733
0.00900229
0.00877907
0.0086342
0.00850054
0.00830124
0.00799602
0.00760499
0.00712439
0.00652326
0.00578463
0.00491789
0.00387781
0.00258445
0.00125721
0.000253696
0.0103234
0.0100176
0.0097257
0.00946413
0.00924034
0.00906825
0.00893712
0.00878733
0.00856196
0.00822712
0.0077914
0.00726654
0.0066419
0.00588775
0.00501379
0.00401323
0.00274828
0.00137827
0.000242155
0.0102364
0.0100228
0.00981439
0.0096187
0.00944308
0.00929754
0.00916293
0.00899139
0.00873978
0.00837532
0.00789659
0.00732081
0.00665396
0.00588723
0.00503406
0.00410693
0.00310027
0.00177673
0.000254596
0.010225
0.0100716
0.00991775
0.00976317
0.00961254
0.00947568
0.00932765
0.0091313
0.00884847
0.00844255
0.00790993
0.00728015
0.00657585
0.00579764
0.00494686
0.00406345
0.0031337
0.00195345
0.000282414
0.0102625
0.0101464
0.0100254
0.0098928
0.00974818
0.00960148
0.0094218
0.00917756
0.00883657
0.00837393
0.00779643
0.00713148
0.00640337
0.00560566
0.00474199
0.00387394
0.00298464
0.00185862
0.000268138
0.0103286
0.0102331
0.0101284
0.00999992
0.00984942
0.00967557
0.00944794
0.00914124
0.00873752
0.00822635
0.00761303
0.00691327
0.00614601
0.00531511
0.00443182
0.00355189
0.00268151
0.001602
0.000237531
0.0104025
0.0103173
0.0102121
0.0100722
0.00991146
0.00971478
0.00945078
0.00909865
0.00864991
0.00809941
0.00744655
0.00670196
0.0058827
0.00500456
0.00408885
0.00318141
0.00229222
0.00128538
0.000208245
0.0104571
0.010367
0.0102505
0.0101065
0.00993899
0.00972776
0.00944424
0.0090689
0.00859499
0.00801898
0.00733895
0.00656075
0.00569929
0.00477539
0.00381916
0.00287448
0.00196325
0.00103055
0.000188691
0.0104718
0.0103727
0.0102553
0.0101149
0.00994523
0.00972722
0.0094362
0.00905376
0.00857272
0.00798979
0.00730256
0.00651466
0.00563964
0.00469663
0.0037131
0.0027322
0.0017929
0.000917154
0.000194078
0.0104654
0.0103627
0.0102451
0.010106
0.00993555
0.00971614
0.00942627
0.00904885
0.00857562
0.00800266
0.0073281
0.00655598
0.00569948
0.00477407
0.00379844
0.00280453
0.00184294
0.000968956
0.000208756
0.0104492
0.0103435
0.0102238
0.0100838
0.00991301
0.00969539
0.00941204
0.00904722
0.00859188
0.00804126
0.00739434
0.00665732
0.00584315
0.00496421
0.00403145
0.00306214
0.00209104
0.00113043
0.000224039
0.0104193
0.0103121
0.0101906
0.0100496
0.00987933
0.00966546
0.00939128
0.00904248
0.00860996
0.00808869
0.00747884
0.0067886
0.0060301
0.00521222
0.00433925
0.00341259
0.00243001
0.00134197
0.000237668
0.010373
0.0102666
0.0101451
0.0100044
0.00983597
0.00962705
0.00936297
0.00903098
0.00862263
0.00813381
0.00756602
0.0069277
0.00622836
0.00547274
0.00465793
0.0037701
0.0027698
0.00156205
0.000249346
0.0103113
0.010208
0.0100887
0.00995014
0.00978485
0.00958153
0.00932762
0.00901219
0.00862803
0.00817248
0.00764794
0.00706111
0.00641762
0.00571662
0.00494649
0.00407905
0.00304406
0.00175703
0.000259514
0.0102381
0.0101399
0.0100247
0.00988966
0.00972834
0.00953078
0.0092868
0.00898762
0.00862748
0.00820488
0.00772201
0.00718275
0.00658793
0.00592995
0.00518696
0.0043133
0.00324149
0.00186684
0.00026682
0.0101577
0.0100661
0.00995626
0.00982573
0.0096686
0.00947692
0.00924271
0.00895939
0.00862297
0.00823229
0.00778812
0.00729083
0.006736
0.0061094
0.00538161
0.00450165
0.00339113
0.00193896
0.000268642
0.0100739
0.00998996
0.00988634
0.00976066
0.00960811
0.00942265
0.00919835
0.00893059
0.00861665
0.00825542
0.00784602
0.00738531
0.00686397
0.00626194
0.00554379
0.00465256
0.00350572
0.00199121
0.000267446
0.00999015
0.0099146
0.00981732
0.00969665
0.00954909
0.00937036
0.0091564
0.00890412
0.00861157
0.00827725
0.00789843
0.0074687
0.00697438
0.00639062
0.00567713
0.00477366
0.00359525
0.0020316
0.000265958
0.00991055
0.00984299
0.00975176
0.00963614
0.00949399
0.00932258
0.00911937
0.00888235
0.00860986
0.00829963
0.00794704
0.00754272
0.00706944
0.00649866
0.00578678
0.00487144
0.00366681
0.00206417
0.000265536
0.00983901
0.00977847
0.00969273
0.00958208
0.00944561
0.00928193
0.00908956
0.00886714
0.00861287
0.0083235
0.00799261
0.00760835
0.00715074
0.00658865
0.00587652
0.00495044
0.0037246
0.00209088
0.00026581
0.0097793
0.00972448
0.00964348
0.00953752
0.00940674
0.00925071
0.0090687
0.00885953
0.00862105
0.00834893
0.00803515
0.00766589
0.00721919
0.00666223
0.00594839
0.00501313
0.00377042
0.00211243
0.000265757
0.00973399
0.00968357
0.00960653
0.00950479
0.00937931
0.00923034
0.00905752
0.00885964
0.00863398
0.00837524
0.00807404
0.0077151
0.00727514
0.00672041
0.00600385
0.00506083
0.00380461
0.00212757
0.000265381
0.00970365
0.00965659
0.00958281
0.00948474
0.00936387
0.00922088
0.00905557
0.0088665
0.00865041
0.00840112
0.00810822
0.00775541
0.00731864
0.0067638
0.00604388
0.00509452
0.00382765
0.00213565
0.000264681
0.00968655
0.00964224
0.00957128
0.00947636
0.00935928
0.00922095
0.00906118
0.00887828
0.00866848
0.0084249
0.00813641
0.00778611
0.00734961
0.00679287
0.00606923
0.00511468
0.00384083
0.00213872
0.000263481
0.00967903
0.00963732
0.00956907
0.00947696
0.00936292
0.00922794
0.00907177
0.00889249
0.00868593
0.00844474
0.00815734
0.00780655
0.00736802
0.00680808
0.00608074
0.00512262
0.00384542
0.00213832
0.000261834
0.00967614
0.00963732
0.009572
0.00948267
0.00937117
0.00923847
0.00908423
0.00890639
0.00870049
0.00845892
0.0081699
0.00781627
0.00737398
0.00681
0.00607918
0.00511898
0.0038413
0.00213383
0.000259999
0.00967241
0.00963711
0.0095753
0.00948905
0.00937998
0.0092489
0.00909541
0.00891732
0.00871009
0.008466
0.00817333
0.00781513
0.00736788
0.00679933
0.00606536
0.00510448
0.00382914
0.00212559
0.000257901
0.00966252
0.0096316
0.00957418
0.00949171
0.00938538
0.00925579
0.00910242
0.00892306
0.00871315
0.00846509
0.00816736
0.00780343
0.00735042
0.006777
0.00604019
0.00507974
0.00380925
0.00211449
0.000255036
0.00964173
0.00961619
0.00956429
0.00948666
0.0093839
0.00925624
0.00910301
0.00892198
0.00870874
0.0084559
0.0081523
0.00778197
0.00732276
0.00674433
0.00600483
0.00504539
0.003781
0.00209835
0.00025221
0.00960627
0.0095871
0.009542
0.00947062
0.00937276
0.00924808
0.00909565
0.00891325
0.00869666
0.00843885
0.00812913
0.00775217
0.00728662
0.00670311
0.00596096
0.00500254
0.00374427
0.00207519
0.000250036
0.00955383
0.00954162
0.00950457
0.00944113
0.00935001
0.00923001
0.0090797
0.00889686
0.00867752
0.00841511
0.0080995
0.00771607
0.00724431
0.00665581
0.00591097
0.0049534
0.00370097
0.00204604
0.000247612
0.00948375
0.00947831
0.00945036
0.00939664
0.00931462
0.00920163
0.00905543
0.00887365
0.00865269
0.0083865
0.00806567
0.00767632
0.00719877
0.00660557
0.00585818
0.00490137
0.00365461
0.00201408
0.000245046
0.00939765
0.00939797
0.00937915
0.00933669
0.00926661
0.00916365
0.0090241
0.00884534
0.00862424
0.00835549
0.00803043
0.00763601
0.00715342
0.00655612
0.00580656
0.00485067
0.00360957
0.00198341
0.000242612
0.00930003
0.00930378
0.00929261
0.00926211
0.00920741
0.00911817
0.00898817
0.00881455
0.00859492
0.00832494
0.00799687
0.00759849
0.00711185
0.00651132
0.00576029
0.00480567
0.00356981
0.00195644
0.000240597
0.00919889
0.00920272
0.00919547
0.00917566
0.00914058
0.00906919
0.00895151
0.00878482
0.008568
0.00829801
0.00796812
0.00756699
0.00707747
0.00647476
0.00572312
0.00477002
0.00353817
0.00193435
0.000239279
0.00910586
0.00910702
0.00909952
0.0090842
0.00907339
0.00902342
0.00891962
0.00876046
0.008547
0.00827776
0.00794706
0.0075443
0.00705304
0.00644921
0.00569775
0.00474604
0.00351584
0.00191688
0.000238957
0.0090347
0.0090337
0.00902669
0.00900844
0.00901995
0.00899156
0.00889956
0.00874614
0.00853522
0.00826678
0.00793591
0.00753247
0.00704043
0.00643622
0.00568531
0.00473436
0.0035021
0.00190078
0.000239821
)
;

boundaryField
{
    leftWall
    {
        type            nutkWallFunction;
        Cmu             0.09;
        kappa           0.41;
        E               9.8;
        value           nonuniform List<scalar> 
50
(
8.6746e-06
1.16395e-05
1.36501e-05
1.54801e-05
1.70904e-05
1.85953e-05
1.99378e-05
2.11844e-05
2.27585e-05
2.45877e-05
2.61814e-05
2.82459e-05
3.19701e-05
2.9309e-05
2.84221e-05
3.28481e-05
3.44199e-05
3.72567e-05
3.92947e-05
4.0144e-05
4.00253e-05
3.91273e-05
3.76208e-05
3.56401e-05
3.32179e-05
3.06674e-05
2.81743e-05
2.52685e-05
2.17536e-05
1.82263e-05
1.4928e-05
1.23095e-05
1.08488e-05
1.03669e-05
1.02086e-05
1.01561e-05
1.01818e-05
1.03037e-05
1.05556e-05
1.09792e-05
1.16175e-05
1.25076e-05
1.36802e-05
1.5167e-05
1.70176e-05
1.93339e-05
2.23647e-05
2.67088e-05
3.39779e-05
4.95243e-05
)
;
    }
    rightWall
    {
        type            nutkWallFunction;
        Cmu             0.09;
        kappa           0.41;
        E               9.8;
        value           nonuniform List<scalar> 
50
(
1.32058e-05
1.70837e-05
1.93763e-05
2.12556e-05
2.30542e-05
2.50219e-05
2.69866e-05
2.88456e-05
3.15793e-05
3.45019e-05
3.48662e-05
3.33083e-05
3.08764e-05
2.87863e-05
2.96749e-05
2.92367e-05
3.27712e-05
3.01228e-05
2.58615e-05
2.21318e-05
2.00649e-05
2.08427e-05
2.2423e-05
2.49217e-05
2.67641e-05
2.8325e-05
2.96759e-05
3.03708e-05
3.04408e-05
3.03764e-05
3.02197e-05
3.03926e-05
3.03322e-05
3.02715e-05
3.01765e-05
3.00453e-05
2.98543e-05
2.96044e-05
2.93275e-05
2.89735e-05
2.83725e-05
2.79867e-05
2.7547e-05
2.70192e-05
2.66428e-05
2.62888e-05
2.59968e-05
2.58119e-05
2.57853e-05
2.5949e-05
)
;
    }
    lowerWall
    {
        type            nutkWallFunction;
        Cmu             0.09;
        kappa           0.41;
        E               9.8;
        value           nonuniform List<scalar> 
62
(
4.08344e-06
6.55131e-06
8.15029e-06
9.17595e-06
9.90882e-06
1.04821e-05
1.09539e-05
1.13495e-05
1.16765e-05
1.19357e-05
1.21272e-05
1.22511e-05
1.23071e-05
1.22932e-05
1.22028e-05
1.20174e-05
1.17427e-05
1.13844e-05
1.09501e-05
1.04291e-05
9.70948e-06
8.33329e-06
5.54474e-06
5.54474e-06
1.77905e-05
2.16644e-05
2.48321e-05
2.75006e-05
3.00896e-05
3.29428e-05
3.74068e-05
4.64087e-05
4.51323e-05
4.54268e-05
4.76144e-05
6.85234e-06
2.10212e-05
2.33876e-05
2.64494e-05
3.04077e-05
3.63408e-05
4.50392e-05
5.37677e-05
6.85234e-06
1.12741e-05
1.41589e-05
1.50982e-05
1.52368e-05
1.50216e-05
1.46336e-05
1.41512e-05
1.35009e-05
1.26108e-05
1.15445e-05
1.0718e-05
1.04564e-05
1.02567e-05
9.86971e-06
9.22469e-06
8.29178e-06
7.22033e-06
5.77624e-06
)
;
    }
    atmosphere
    {
        type            calculated;
        value           nonuniform List<scalar> 
46
(
0.009
0.009
0.009
0.009
0.009
0.009
0.009
0.009
0.009
0.009
0.009
0.009
0.009
0.009
0.009
0.009
0.009
0.009
0.009
0.009
0.009
0.009
0.009
0.009
0.009
0.009
0.009
0.009
0.009
0.009
0.009
0.00901995
0.00899156
0.00889956
0.00874614
0.00853522
0.00826678
0.00793591
0.00753247
0.00704043
0.00643622
0.00568531
0.00473436
0.0035021
0.00190078
0.000239821
)
;
    }
    defaultFaces
    {
        type            empty;
    }
}


// ************************************************************************* //
