/*--------------------------------*- C++ -*----------------------------------*\
| =========                 |                                                 |
| \\      /  F ield         | OpenFOAM: The Open Source CFD Toolbox           |
|  \\    /   O peration     | Version:  2.3.0                                 |
|   \\  /    A nd           | Web:      www.OpenFOAM.org                      |
|    \\/     M anipulation  |                                                 |
\*---------------------------------------------------------------------------*/
FoamFile
{
    version     2.0;
    format      ascii;
    class       volScalarField;
    location    "1.65";
    object      p;
}
// * * * * * * * * * * * * * * * * * * * * * * * * * * * * * * * * * * * * * //

dimensions      [1 -1 -2 0 0 0 0];

internalField   nonuniform List<scalar> 
2268
(
800.158
800.271
801.106
802.186
803.241
804.502
806.151
808.279
810.899
813.985
817.513
821.485
825.95
831.012
836.851
843.795
852.222
861.918
873.582
886.772
900.272
911.666
920.241
741.396
741.016
741.421
742.181
743.029
744.121
745.589
747.516
749.936
752.861
756.299
760.278
764.869
770.197
776.457
783.973
793.285
804.858
817.989
832.121
845.336
855.288
863.237
682.652
682.313
682.092
682.272
682.688
683.413
684.532
686.115
688.223
690.906
694.21
698.194
702.955
708.639
715.464
723.773
734.125
747.31
761.852
776.682
789.669
799.28
807.633
623.861
623.811
623.153
622.716
622.602
622.859
623.555
624.757
626.54
628.977
632.139
636.109
641.004
646.987
654.285
663.222
674.263
688.111
703.448
718.66
731.747
742.829
753.735
565.011
565.214
564.287
563.305
562.667
562.44
562.714
563.558
565.05
567.266
570.293
574.228
579.202
585.39
593.014
602.354
613.739
627.639
643.048
658.385
671.78
685.668
699.315
506.122
506.445
505.299
503.836
502.696
501.986
501.848
502.357
503.582
505.594
508.487
512.369
517.381
523.707
531.554
541.152
552.707
566.51
581.702
596.757
610.108
627.483
643.306
447.297
447.556
446.179
444.265
442.625
441.424
440.869
441.049
442.02
443.831
446.584
450.395
455.416
461.837
469.854
479.636
491.296
504.974
519.796
534.051
546.603
566.627
583.055
388.606
388.634
387.002
384.633
382.476
380.781
379.806
379.663
380.391
382.009
384.611
388.329
393.326
399.805
407.938
417.84
429.557
443.095
457.387
470.127
480.908
497.665
511.694
676.214
687.706
709.232
717.147
707.499
685.226
658.405
632.043
607.637
587.936
574.964
569.488
566.895
565.585
565.516
565.482
565.728
567.872
570.275
615.814
623.444
641.833
649.177
641.822
622.563
597.976
572.719
548.565
530.052
519.381
515.958
514.447
514.096
513.494
512.846
512.162
512.08
512.862
554.223
561.523
578.563
584.424
578.596
561.837
538.972
514.77
491.147
475.76
471.225
466.402
461.442
462.198
461.136
460.075
458.205
456.219
455.642
492.337
505.256
528.656
532.853
522.93
504.763
481.609
459.057
440.809
431.577
430.243
423.663
414.095
409.348
407.234
405.491
403.057
399.471
398.423
430.498
453.901
486.021
491.857
476.108
452.72
430.007
413.399
402.543
394.294
388.771
381.109
368.292
356.078
352.215
349.212
346.183
342.082
341.091
370.982
401.143
436.832
448.848
436.881
409.127
391.497
377.15
363.527
350.565
344.691
334.633
316.328
301.326
296.951
292.746
288.441
284.392
283.564
303.503
352.713
388.272
400.425
396.947
370.364
352.098
335.942
319.901
302.993
294.705
281.329
255.663
243.924
241.363
236.222
230.701
226.345
225.398
236.357
307.8
342.899
349.828
351.882
327.454
307.282
290.979
273.298
254.15
240.588
223.963
203.251
190.427
185.38
179.58
172.972
168.418
169.942
297.253
296.852
294.617
291.432
288.435
285.966
284.369
283.795
284.216
285.554
287.893
291.394
296.26
302.71
310.883
320.792
332.412
345.615
359.216
371.095
379.199
378.953
346.852
174.974
174.316
170.068
165.258
161.069
157.319
155.014
154.221
154.475
155.398
157.259
160.298
164.731
170.88
178.852
188.415
199.423
211.874
225.255
237.897
246.118
246.257
240.461
68.2454
68.2619
64.3045
60.0824
56.0809
52.1687
49.7919
48.7331
48.1807
47.6831
48.0885
49.5914
52.1237
56.0154
61.4409
68.0519
75.7088
84.9405
96.2292
108.306
116.413
119.281
115.509
12.9648
13.4255
13.706
12.8737
11.0732
9.18451
7.82629
6.77608
5.64272
4.27447
3.31895
3.1456
3.58865
4.61291
6.23574
8.32182
10.8965
14.4267
19.2093
22.9278
24.5338
25.2143
23.9148
3.81937
3.9318
5.07586
5.7667
5.86959
5.60591
5.11599
4.47632
3.6781
2.29171
0.954159
0.218783
-0.101015
-0.228736
-0.340403
-0.535419
-0.684305
-0.663071
-0.531833
-0.503074
-0.923929
-1.43376
-1.39065
1.50839
1.34301
1.15357
1.56986
2.40884
2.74747
2.63375
2.33306
1.68987
0.86154
0.282195
-0.00734514
-0.197518
-0.32591
-0.420531
-0.534488
-0.612908
-0.55677
-0.367354
-0.312367
-0.815455
-1.46035
-1.31027
-0.292759
-0.536824
-0.84561
-0.837479
-0.455969
-0.289871
-0.308057
-0.162497
-0.176418
-0.391927
-0.368413
-0.446175
-0.611933
-0.757993
-0.825841
-0.868374
-0.873968
-0.860487
-0.794244
-0.57227
-0.379521
-0.489594
-0.485639
-1.38642
-1.3705
-1.33169
-1.362
-1.43723
-1.46598
-1.55402
-1.54491
-1.4582
-1.24926
-1.03806
-1.02649
-1.09099
-1.13075
-1.14673
-1.14177
-1.11476
-1.12622
-1.15742
-1.13828
-1.04078
-0.900562
-0.710939
-1.55491
-1.54087
-1.51774
-1.52088
-1.55053
-1.59091
-1.60762
-1.62076
-1.61576
-1.56713
-1.46503
-1.39666
-1.35222
-1.32589
-1.32617
-1.31956
-1.3043
-1.30357
-1.32293
-1.35682
-1.34149
-1.19135
-1.03159
-1.68006
-1.68384
-1.67235
-1.67564
-1.6945
-1.71688
-1.73238
-1.73803
-1.73026
-1.69646
-1.62752
-1.56181
-1.52371
-1.50365
-1.4958
-1.48962
-1.48462
-1.49464
-1.52694
-1.56004
-1.55819
-1.48483
-1.37662
-1.79266
-1.80619
-1.81012
-1.8159
-1.82804
-1.84222
-1.85169
-1.85027
-1.83519
-1.80369
-1.75713
-1.71502
-1.68596
-1.66771
-1.65862
-1.65544
-1.65992
-1.68176
-1.72102
-1.75373
-1.77336
-1.75256
-1.68673
-1.90256
-1.92154
-1.93391
-1.94195
-1.95039
-1.95889
-1.9624
-1.95788
-1.94413
-1.92039
-1.8891
-1.85966
-1.83697
-1.82163
-1.81372
-1.81228
-1.81863
-1.83677
-1.86551
-1.89502
-1.91864
-1.91954
-1.90504
-2.01371
-2.03512
-2.05148
-2.06086
-2.06751
-2.07229
-2.07309
-2.06826
-2.05705
-2.03963
-2.01805
-1.99705
-1.97991
-1.96797
-1.96182
-1.96135
-1.96717
-1.9807
-2.00137
-2.02456
-2.04493
-2.05604
-2.06895
-2.12887
-2.15021
-2.16783
-2.17769
-2.18338
-2.18642
-2.18614
-2.18175
-2.17296
-2.1602
-2.145
-2.13004
-2.1175
-2.10865
-2.10416
-2.10429
-2.1094
-2.11992
-2.13535
-2.15329
-2.17083
-2.18526
-2.20237
-2.2491
-2.26856
-2.28536
-2.29487
-2.2999
-2.30213
-2.30154
-2.2979
-2.29121
-2.28193
-2.27115
-2.26053
-2.25152
-2.24516
-2.24209
-2.24263
-2.247
-2.25533
-2.26715
-2.28115
-2.29583
-2.30944
-2.32431
-2.37379
-2.39036
-2.40499
-2.41344
-2.41781
-2.41958
-2.41905
-2.41625
-2.41133
-2.40467
-2.39706
-2.38955
-2.38316
-2.37871
-2.37673
-2.3775
-2.38118
-2.38775
-2.39688
-2.40783
-2.41973
-2.43142
-2.44424
-2.50162
-2.51487
-2.5266
-2.53359
-2.53723
-2.53868
-2.53833
-2.53632
-2.53282
-2.52815
-2.52283
-2.51757
-2.51311
-2.51007
-2.50888
-2.50977
-2.51281
-2.51799
-2.52506
-2.53363
-2.5432
-2.55297
-2.56371
-2.63094
-2.64089
-2.64968
-2.65512
-2.65804
-2.65925
-2.65908
-2.65772
-2.65533
-2.65213
-2.64847
-2.64485
-2.64179
-2.63978
-2.63914
-2.64006
-2.64257
-2.64665
-2.65217
-2.65892
-2.66663
-2.67472
-2.68354
-2.76163
-2.76817
-2.77368
-2.77777
-2.78007
-2.78107
-2.78106
-2.78021
-2.77864
-2.77651
-2.77406
-2.77163
-2.76959
-2.7683
-2.76804
-2.76894
-2.77103
-2.77428
-2.77865
-2.78403
-2.79028
-2.79698
-2.80431
-2.8934
-2.89664
-2.89884
-2.9014
-2.90312
-2.90395
-2.90406
-2.90359
-2.90263
-2.90128
-2.89971
-2.89813
-2.89682
-2.89606
-2.89605
-2.89692
-2.89868
-2.90133
-2.90485
-2.90921
-2.91433
-2.91991
-2.92605
-3.02353
-3.02447
-3.02468
-3.02584
-3.02694
-3.0276
-3.02781
-3.02764
-3.02714
-3.02638
-3.02544
-3.02448
-3.0237
-3.02332
-3.02349
-3.02433
-3.02585
-3.02807
-3.03097
-3.03456
-3.03881
-3.0435
-3.04866
-3.15027
-3.15028
-3.15007
-3.15047
-3.15112
-3.15168
-3.15201
-3.1521
-3.15197
-3.15164
-3.15118
-3.15069
-3.15031
-3.1502
-3.1505
-3.15131
-3.15266
-3.15456
-3.15702
-3.16003
-3.1636
-3.16757
-3.17194
-3.27568
-3.2749
-3.27453
-3.27484
-3.27543
-3.276
-3.27646
-3.27676
-3.27691
-3.27691
-3.27681
-3.27667
-3.27659
-3.27669
-3.27709
-3.27788
-3.2791
-3.28077
-3.28289
-3.28548
-3.28852
-3.29192
-3.29563
-3.40134
-3.39999
-3.39933
-3.39952
-3.40004
-3.40059
-3.4011
-3.40153
-3.40185
-3.40207
-3.40222
-3.40233
-3.40248
-3.40276
-3.40324
-3.40403
-3.40515
-3.40665
-3.40852
-3.41077
-3.41341
-3.41633
-3.41951
-3.52737
-3.526
-3.52502
-3.52483
-3.52508
-3.52549
-3.52595
-3.52638
-3.52677
-3.52711
-3.52741
-3.52769
-3.528
-3.5284
-3.52896
-3.52975
-3.53081
-3.53218
-3.53386
-3.53586
-3.53816
-3.54071
-3.54344
-3.65337
-3.65207
-3.65094
-3.65046
-3.65043
-3.65065
-3.65097
-3.65133
-3.6517
-3.65206
-3.65242
-3.65279
-3.6532
-3.65369
-3.65431
-3.65512
-3.65614
-3.65741
-3.65895
-3.66074
-3.66279
-3.66503
-3.6674
-3.77925
-3.77802
-3.77685
-3.77618
-3.77594
-3.77596
-3.77612
-3.77637
-3.77666
-3.77698
-3.77734
-3.77774
-3.7782
-3.77875
-3.77941
-3.78023
-3.78123
-3.78244
-3.78386
-3.7855
-3.78734
-3.78933
-3.79141
-3.90501
-3.90385
-3.90268
-3.90191
-3.90151
-3.90136
-3.90137
-3.90149
-3.90169
-3.90195
-3.90227
-3.90266
-3.90314
-3.90371
-3.9044
-3.90523
-3.90621
-3.90737
-3.90871
-3.91023
-3.9119
-3.91369
-3.91553
-4.03071
-4.02961
-4.02845
-4.02761
-4.02709
-4.02681
-4.0267
-4.02671
-4.02682
-4.02701
-4.02729
-4.02766
-4.02813
-4.02871
-4.02941
-4.03023
-4.0312
-4.03232
-4.03359
-4.03501
-4.03655
-4.03818
-4.03984
-4.15637
-4.15534
-4.15418
-4.1533
-4.15271
-4.15233
-4.15212
-4.15205
-4.15209
-4.15223
-4.15247
-4.15282
-4.15328
-4.15385
-4.15454
-4.15535
-4.1563
-4.15738
-4.15859
-4.15992
-4.16135
-4.16285
-4.16436
-4.28205
-4.28108
-4.27994
-4.27902
-4.27838
-4.27794
-4.27767
-4.27754
-4.27753
-4.27764
-4.27786
-4.27818
-4.27862
-4.27918
-4.27986
-4.28065
-4.28157
-4.28261
-4.28375
-4.285
-4.28634
-4.28772
-4.28912
-4.40774
-4.40685
-4.40574
-4.40482
-4.40414
-4.40367
-4.40336
-4.4032
-4.40317
-4.40325
-4.40346
-4.40377
-4.4042
-4.40474
-4.40539
-4.40616
-4.40703
-4.40802
-4.4091
-4.41027
-4.41151
-4.4128
-4.41409
-4.53347
-4.53267
-4.53161
-4.5307
-4.53002
-4.52953
-4.52921
-4.52904
-4.529
-4.52908
-4.52927
-4.52958
-4.52999
-4.53051
-4.53113
-4.53186
-4.53269
-4.53361
-4.53462
-4.53571
-4.53686
-4.53805
-4.53925
-4.65925
-4.65855
-4.65756
-4.65669
-4.65603
-4.65554
-4.65523
-4.65506
-4.65502
-4.6551
-4.65529
-4.65558
-4.65597
-4.65646
-4.65705
-4.65773
-4.6585
-4.65935
-4.66029
-4.66129
-4.66234
-4.66343
-4.66454
-4.78509
-4.78449
-4.7836
-4.78279
-4.78215
-4.78169
-4.78139
-4.78124
-4.78121
-4.78129
-4.78148
-4.78175
-4.78212
-4.78258
-4.78311
-4.78374
-4.78444
-4.78521
-4.78606
-4.78696
-4.78792
-4.7889
-4.78992
-4.91098
-4.91051
-4.90972
-4.90897
-4.90838
-4.90796
-4.90769
-4.90756
-4.90754
-4.90763
-4.9078
-4.90806
-4.90839
-4.9088
-4.90929
-4.90984
-4.91046
-4.91115
-4.9119
-4.9127
-4.91354
-4.91442
-4.91534
-5.03692
-5.03659
-5.03591
-5.03525
-5.03471
-5.03433
-5.0341
-5.03399
-5.03399
-5.03407
-5.03423
-5.03446
-5.03475
-5.03511
-5.03553
-5.03601
-5.03654
-5.03713
-5.03777
-5.03846
-5.03919
-5.03995
-5.04076
-5.16288
-5.16274
-5.16218
-5.16159
-5.16111
-5.16078
-5.16059
-5.16051
-5.16052
-5.16059
-5.16073
-5.16092
-5.16116
-5.16146
-5.16181
-5.1622
-5.16265
-5.16313
-5.16366
-5.16423
-5.16483
-5.16546
-5.16615
-5.28895
-5.28903
-5.28855
-5.288
-5.28757
-5.2873
-5.28715
-5.28709
-5.2871
-5.28715
-5.28726
-5.28741
-5.2876
-5.28783
-5.2881
-5.28841
-5.28875
-5.28913
-5.28953
-5.28997
-5.29044
-5.29094
-5.29148
-5.41529
-5.4157
-5.41519
-5.41446
-5.41405
-5.41385
-5.41375
-5.4137
-5.4137
-5.41373
-5.4138
-5.4139
-5.41403
-5.41419
-5.41438
-5.4146
-5.41483
-5.41509
-5.41537
-5.41568
-5.416
-5.41634
-5.41673
-5.54139
-5.54369
-5.54247
-5.54104
-5.54059
-5.54047
-5.5404
-5.54035
-5.54032
-5.54032
-5.54034
-5.54039
-5.54045
-5.54054
-5.54064
-5.54076
-5.54089
-5.54103
-5.54118
-5.54134
-5.5415
-5.54168
-5.54188
-5.66544
-5.67429
-5.67029
-5.66814
-5.66764
-5.66746
-5.66733
-5.66723
-5.66716
-5.66711
-5.66708
-5.66707
-5.66707
-5.66708
-5.6671
-5.66711
-5.66713
-5.66715
-5.66716
-5.66716
-5.66715
-5.66714
-5.66713
252.723
245.957
259.907
258.416
224.711
213.761
202.249
188.142
100.373
92.3707
87.8724
86.728
21.3811
22.7147
26.4449
32.0983
-0.514782
-0.113516
-0.41213
-0.00314568
-0.53658
0.411849
0.990029
1.11548
-0.24985
-0.0463563
0.170226
0.350067
-0.547202
-0.423336
-0.280947
-0.165135
-0.917317
-0.842457
-0.75952
-0.731
-1.31532
-1.29012
-1.27016
-1.31119
-1.6653
-1.66867
-1.68768
-1.72132
-1.92664
-1.95307
-2.00644
-2.08309
-2.1079
-2.14656
-2.20967
-2.2825
-2.23464
-2.26675
-2.31107
-2.33939
-2.34959
-2.37533
-2.40085
-2.41975
-2.46405
-2.48175
-2.50033
-2.5162
-2.57827
-2.59162
-2.60615
-2.61837
-2.69479
-2.70508
-2.71633
-2.72588
-2.81315
-2.82116
-2.82995
-2.83748
-2.93305
-2.93926
-2.9461
-2.95201
-3.0542
-3.05894
-3.06417
-3.06874
-3.1763
-3.17986
-3.18375
-3.18721
-3.29906
-3.30169
-3.30452
-3.30709
-3.42222
-3.42415
-3.42619
-3.42807
-3.54561
-3.54705
-3.54853
-3.54993
-3.66917
-3.67027
-3.6714
-3.67248
-3.7929
-3.79379
-3.7947
-3.7956
-3.91683
-3.91761
-3.9184
-3.91921
-4.041
-4.04173
-4.04248
-4.04324
-4.16545
-4.16615
-4.16689
-4.16764
-4.29016
-4.29086
-4.2916
-4.29234
-4.4151
-4.4158
-4.41654
-4.41728
-4.54022
-4.54093
-4.54166
-4.54238
-4.66547
-4.66617
-4.66689
-4.66759
-4.7908
-4.79147
-4.79217
-4.79284
-4.91615
-4.91678
-4.91745
-4.91809
-5.04149
-5.04207
-5.04269
-5.04328
-5.16679
-5.1673
-5.16786
-5.16839
-5.292
-5.29244
-5.29291
-5.29337
-5.41712
-5.41745
-5.41782
-5.41818
-5.54208
-5.54228
-5.5425
-5.54274
-5.66714
-5.66718
-5.66725
-5.66732
216.613
244.987
269.817
272.447
268.782
251.039
227.606
213.808
200.196
186.613
174.499
161.463
145.762
131.373
124.142
119.443
113.174
108.501
110.003
160.175
162.158
171.937
161.482
147.899
136.697
120.236
108.22
106.46
110.866
107.166
99.1335
91.6736
84.9976
81.6098
79.4445
75.1974
70.4544
71.2107
87.3026
86.9011
74.9002
59.2089
52.7833
52.9405
49.6453
42.3487
44.655
54.3475
58.325
60.0924
61.504
61.6774
61.258
59.7661
56.6823
53.7546
55.3926
34.5023
25.3636
11.8738
13.1634
12.7296
16.5519
20.4426
21.9579
22.8606
23.3454
27.7912
34.5123
37.1197
36.238
36.6266
37.4079
37.1214
37.221
39.9474
1.26079
5.03741
7.09457
7.55375
7.89493
8.61254
11.9062
14.6809
14.4395
12.703
11.9647
13.0475
12.7164
11.1372
11.5548
14.4349
17.6891
19.4487
21.4441
1.24368
2.36386
4.35181
5.29324
5.70815
6.79662
8.59585
9.94051
9.56183
7.87667
5.91168
3.54098
1.55954
0.850762
0.850547
1.43018
3.13721
4.46445
4.94533
0.611517
1.19246
2.09751
2.62382
2.89053
3.48175
4.38452
5.00645
4.64537
3.42087
1.9106
0.71733
0.110261
-0.0854211
-0.160444
-0.267106
-0.56543
-0.753594
-0.724507
-0.0426269
-0.0942746
0.541278
0.633152
0.142509
0.0538873
0.203178
0.215744
0.00606545
-0.312483
-0.587282
-0.746696
-0.756725
-0.733167
-0.765902
-0.882599
-1.02048
-1.11338
-1.10481
-0.887299
-0.755643
-0.180911
-0.611351
-1.44154
-1.57445
-1.56388
-1.60503
-1.58244
-1.4668
-1.30908
-1.21676
-1.18154
-1.18167
-1.18604
-1.19826
-1.23074
-1.25848
-1.25546
-1.36
-0.87178
-1.05252
-1.89805
-1.98216
-1.97586
-1.89197
-1.75509
-1.60883
-1.49802
-1.43055
-1.39402
-1.377
-1.38499
-1.40361
-1.40227
-1.38977
-1.39703
-1.39585
-1.67148
-1.48437
-1.99941
-2.01208
-1.98949
-1.95039
-1.88685
-1.80771
-1.72619
-1.65755
-1.60684
-1.57115
-1.55041
-1.54634
-1.55281
-1.55216
-1.53994
-1.53743
-1.53891
-2.23906
-2.24509
-2.18681
-2.13861
-2.09873
-2.05937
-2.00888
-1.95041
-1.88676
-1.82689
-1.782
-1.74893
-1.72533
-1.71105
-1.70703
-1.70149
-1.6908
-1.6864
-1.68964
-2.31102
-2.28846
-2.27118
-2.23905
-2.20554
-2.17059
-2.12967
-2.08428
-2.03533
-1.98692
-1.94757
-1.9216
-1.90276
-1.88394
-1.86745
-1.85641
-1.8474
-1.84486
-1.84704
-2.35906
-2.36465
-2.35505
-2.33247
-2.30683
-2.27854
-2.2464
-2.21192
-2.17493
-2.13698
-2.10626
-2.08523
-2.06616
-2.04837
-2.03042
-2.01598
-2.00753
-2.00342
-2.00435
-2.44181
-2.44927
-2.44345
-2.42836
-2.40955
-2.38783
-2.36341
-2.33802
-2.31232
-2.28218
-2.25764
-2.23419
-2.21252
-2.19661
-2.1837
-2.17257
-2.16346
-2.15643
-2.15621
-2.53339
-2.54061
-2.53848
-2.52939
-2.51602
-2.49948
-2.48094
-2.46228
-2.4451
-2.42366
-2.39999
-2.3744
-2.35446
-2.34002
-2.32955
-2.32167
-2.31564
-2.31104
-2.30828
-2.63185
-2.63918
-2.64007
-2.63514
-2.62601
-2.61352
-2.59907
-2.58455
-2.57185
-2.55707
-2.53381
-2.51124
-2.49392
-2.48159
-2.47325
-2.46852
-2.46729
-2.4672
-2.46209
-2.73662
-2.74372
-2.7464
-2.74433
-2.73827
-2.72915
-2.7179
-2.70607
-2.69492
-2.68074
-2.66229
-2.64473
-2.63077
-2.62079
-2.61457
-2.6123
-2.61435
-2.6188
-2.61078
-2.8461
-2.85258
-2.85595
-2.85595
-2.85238
-2.84592
-2.8373
-2.82747
-2.8166
-2.80406
-2.7898
-2.77627
-2.76524
-2.75726
-2.75251
-2.75134
-2.75391
-2.75928
-2.75345
-2.95894
-2.96465
-2.96802
-2.96895
-2.96711
-2.96274
-2.95622
-2.948
-2.93839
-2.92796
-2.91681
-2.90632
-2.89757
-2.89105
-2.88709
-2.88594
-2.88735
-2.88953
-2.88821
-3.07429
-3.07924
-3.08241
-3.08357
-3.08256
-3.07951
-3.07463
-3.06808
-3.06042
-3.05201
-3.04325
-3.03502
-3.02796
-3.02247
-3.01882
-3.01708
-3.01677
-3.01618
-3.01403
-3.19162
-3.19587
-3.19877
-3.20007
-3.19961
-3.19745
-3.19375
-3.18872
-3.18271
-3.17606
-3.16914
-3.16256
-3.15675
-3.15198
-3.1484
-3.14587
-3.14377
-3.14071
-3.13639
-3.31055
-3.31419
-3.31679
-3.31813
-3.31805
-3.31658
-3.31384
-3.30999
-3.30531
-3.30008
-3.2946
-3.28925
-3.28437
-3.28013
-3.27654
-3.27334
-3.26984
-3.26509
-3.25913
-3.4308
-3.4339
-3.43621
-3.43753
-3.43771
-3.43676
-3.43476
-3.43184
-3.4282
-3.42408
-3.41971
-3.41534
-3.41118
-3.40736
-3.40382
-3.40026
-3.39603
-3.39053
-3.38446
-3.55211
-3.55478
-3.55683
-3.55808
-3.55843
-3.55786
-3.55642
-3.55421
-3.55138
-3.54812
-3.5446
-3.541
-3.53745
-3.53401
-3.53062
-3.52702
-3.52269
-3.51728
-3.51214
-3.67428
-3.6766
-3.67843
-3.67961
-3.68006
-3.67976
-3.67874
-3.67707
-3.67487
-3.67228
-3.66942
-3.66642
-3.66337
-3.66029
-3.65711
-3.65365
-3.64956
-3.64452
-3.6391
-3.79716
-3.79921
-3.80085
-3.80196
-3.80246
-3.80235
-3.80164
-3.80039
-3.79868
-3.7966
-3.79425
-3.79173
-3.78909
-3.78633
-3.78338
-3.78008
-3.77613
-3.77117
-3.76546
-3.92061
-3.92246
-3.92395
-3.92499
-3.92552
-3.92555
-3.92507
-3.92413
-3.92279
-3.92111
-3.91918
-3.91704
-3.91473
-3.91224
-3.90949
-3.90632
-3.90233
-3.89697
-3.89144
-4.04455
-4.04623
-4.0476
-4.04858
-4.04914
-4.04926
-4.04896
-4.04825
-4.04719
-4.04583
-4.04421
-4.04239
-4.04036
-4.03811
-4.03556
-4.03253
-4.02858
-4.02298
-4.0174
-4.16888
-4.17043
-4.1717
-4.17263
-4.1732
-4.17339
-4.17321
-4.17268
-4.17184
-4.17072
-4.16936
-4.16779
-4.16601
-4.16399
-4.16166
-4.15884
-4.15513
-4.14967
-4.14368
-4.29353
-4.29496
-4.29614
-4.29703
-4.2976
-4.29784
-4.29776
-4.29736
-4.29668
-4.29575
-4.2946
-4.29325
-4.29168
-4.28988
-4.28777
-4.2852
-4.28176
-4.27656
-4.27044
-4.41841
-4.41974
-4.42085
-4.4217
-4.42227
-4.42254
-4.42252
-4.42222
-4.42167
-4.42088
-4.4199
-4.41872
-4.41734
-4.41574
-4.41385
-4.41151
-4.40824
-4.40316
-4.39765
-4.54346
-4.5447
-4.54575
-4.54656
-4.54712
-4.5474
-4.54742
-4.54719
-4.54672
-4.54605
-4.5452
-4.54417
-4.54296
-4.54154
-4.53986
-4.53777
-4.53476
-4.52966
-4.5243
-4.66861
-4.66977
-4.67076
-4.67154
-4.67209
-4.67238
-4.67241
-4.67221
-4.6718
-4.67121
-4.67046
-4.66955
-4.66849
-4.66725
-4.66577
-4.66395
-4.66132
-4.65661
-4.65091
-4.7938
-4.79489
-4.79583
-4.7966
-4.79714
-4.79741
-4.79744
-4.79725
-4.79687
-4.79633
-4.79565
-4.79484
-4.7939
-4.7928
-4.79151
-4.7899
-4.78756
-4.78366
-4.7782
-4.91898
-4.92001
-4.92094
-4.92171
-4.92225
-4.92249
-4.92248
-4.92227
-4.92188
-4.92136
-4.92073
-4.92
-4.91916
-4.91819
-4.91701
-4.91551
-4.91319
-4.90939
-4.9041
-5.04411
-5.04509
-5.04603
-5.04685
-5.04741
-5.0476
-5.04752
-5.04725
-5.04683
-5.04631
-5.04571
-5.04503
-5.04428
-5.04342
-5.04234
-5.04087
-5.03842
-5.03432
-5.02931
-5.16915
-5.1701
-5.17107
-5.17201
-5.17263
-5.17273
-5.17254
-5.17218
-5.1717
-5.17115
-5.17055
-5.16993
-5.16928
-5.16854
-5.16763
-5.16625
-5.16382
-5.1598
-5.15512
-5.29405
-5.29495
-5.296
-5.29723
-5.29805
-5.29797
-5.29758
-5.29707
-5.29649
-5.29588
-5.29528
-5.2947
-5.29416
-5.29361
-5.29297
-5.29194
-5.28974
-5.28585
-5.28148
-5.41874
-5.41957
-5.42082
-5.42286
-5.42435
-5.42374
-5.42291
-5.42211
-5.42135
-5.42062
-5.41995
-5.41937
-5.41892
-5.41863
-5.41843
-5.41801
-5.41622
-5.41246
-5.40835
-5.54314
-5.54386
-5.54554
-5.54955
-5.55237
-5.55038
-5.54869
-5.54745
-5.54639
-5.54544
-5.54462
-5.54395
-5.54349
-5.54343
-5.54392
-5.54436
-5.54316
-5.53961
-5.53594
-5.66747
-5.66797
-5.66984
-5.67579
-5.67682
-5.67387
-5.67208
-5.67094
-5.67004
-5.66925
-5.66856
-5.66799
-5.66755
-5.66756
-5.66952
-5.67294
-5.67208
-5.66699
-5.66357
)
;

boundaryField
{
    leftWall
    {
        type            calculated;
        value           nonuniform List<scalar> 
50
(
800.158
741.396
682.652
623.861
565.011
506.122
447.297
388.606
297.253
174.974
68.2454
12.9648
3.81937
1.50839
-0.292759
-1.38642
-1.55491
-1.68006
-1.79266
-1.90256
-2.01371
-2.12887
-2.2491
-2.37379
-2.50162
-2.63094
-2.76163
-2.8934
-3.02353
-3.15027
-3.27568
-3.40134
-3.52737
-3.65337
-3.77925
-3.90501
-4.03071
-4.15637
-4.28205
-4.40774
-4.53347
-4.65925
-4.78509
-4.91098
-5.03692
-5.16288
-5.28895
-5.41529
-5.54139
-5.66544
)
;
    }
    rightWall
    {
        type            calculated;
        value           nonuniform List<scalar> 
50
(
570.275
512.862
455.642
398.423
341.091
283.564
225.398
169.942
110.003
71.2107
55.3926
39.9474
21.4441
4.94533
-0.724507
-1.10481
-1.25546
-1.39585
-1.53891
-1.68964
-1.84704
-2.00435
-2.15621
-2.30828
-2.46209
-2.61078
-2.75345
-2.88821
-3.01403
-3.13639
-3.25913
-3.38446
-3.51214
-3.6391
-3.76546
-3.89144
-4.0174
-4.14368
-4.27044
-4.39765
-4.5243
-4.65091
-4.7782
-4.9041
-5.02931
-5.15512
-5.28148
-5.40835
-5.53594
-5.66357
)
;
    }
    lowerWall
    {
        type            calculated;
        value           nonuniform List<scalar> 
62
(
829.588
829.7
830.536
831.615
832.67
833.931
835.58
837.708
840.329
843.415
846.942
850.915
855.379
860.441
866.281
873.224
881.651
890.889
902.321
915.511
929.489
940.853
949.334
920.241
863.237
807.633
753.735
699.315
643.306
583.055
511.694
315.157
308.348
322.322
320.902
676.214
615.814
554.223
492.337
430.498
370.982
303.503
236.357
705.415
716.923
738.458
746.374
736.794
714.518
687.695
661.334
636.929
616.934
603.869
598.081
594.686
592.292
592.221
592.186
592.431
595.522
598.573
)
;
    }
    atmosphere
    {
        type            calculated;
        value           nonuniform List<scalar> 
46
(
-5.73058
-5.73292
-5.73222
-5.73171
-5.73138
-5.73114
-5.73096
-5.73083
-5.73073
-5.73065
-5.73059
-5.73055
-5.73052
-5.73049
-5.73046
-5.73043
-5.73039
-5.73034
-5.73027
-5.73019
-5.73009
-5.72998
-5.72985
-5.72974
-5.72967
-5.72959
-5.72951
-5.72939
-5.72924
-5.72912
-5.72905
-5.72904
-5.72904
-5.72904
-5.72904
-5.72904
-5.72904
-5.72904
-5.72905
-5.72905
-5.72904
-5.73294
-5.74256
-5.74218
-5.73224
-5.72951
)
;
    }
    defaultFaces
    {
        type            empty;
    }
}


// ************************************************************************* //
