/*--------------------------------*- C++ -*----------------------------------*\
| =========                 |                                                 |
| \\      /  F ield         | OpenFOAM: The Open Source CFD Toolbox           |
|  \\    /   O peration     | Version:  2.3.0                                 |
|   \\  /    A nd           | Web:      www.OpenFOAM.org                      |
|    \\/     M anipulation  |                                                 |
\*---------------------------------------------------------------------------*/
FoamFile
{
    version     2.0;
    format      ascii;
    class       volScalarField;
    location    "1.65";
    object      p_rgh;
}
// * * * * * * * * * * * * * * * * * * * * * * * * * * * * * * * * * * * * * //

dimensions      [1 -1 -2 0 0 0 0];

internalField   nonuniform List<scalar> 
2268
(
829.588
829.7
830.536
831.615
832.67
833.931
835.58
837.708
840.329
843.415
846.942
850.915
855.379
860.441
866.281
873.224
881.651
890.889
902.321
915.511
929.489
940.853
949.334
829.684
829.305
829.709
830.469
831.317
832.409
833.877
835.804
838.224
841.149
844.587
848.566
853.157
858.485
864.745
872.261
881.573
891.318
904.204
918.336
933.016
943.457
950.529
829.799
829.46
829.239
829.419
829.835
830.56
831.678
833.261
835.37
838.053
841.357
845.341
850.102
855.786
862.61
870.919
881.24
892.634
905.579
921.336
936.458
946.4
953.23
829.867
829.817
829.159
828.721
828.608
828.865
829.56
830.762
832.546
834.982
838.144
842.115
847.009
852.993
860.291
869.224
880.247
893.996
908.897
924.425
937.701
948.801
957.961
829.876
830.078
829.152
828.169
827.531
827.304
827.578
828.423
829.914
832.13
835.157
839.093
844.067
850.254
857.878
867.218
878.603
892.503
907.911
923.224
936.604
950.49
963.645
829.846
830.168
829.022
827.559
826.419
825.709
825.57
826.08
827.305
829.317
832.21
836.092
841.104
847.429
855.277
864.875
876.43
890.233
905.424
920.449
933.784
951.151
966.989
829.879
830.138
828.761
826.847
825.207
824.006
823.451
823.631
824.601
826.413
829.166
832.977
837.997
844.419
852.436
862.218
873.877
887.523
902.371
916.625
929.173
949.186
965.606
830.046
830.074
828.442
826.073
823.917
822.221
821.246
821.102
821.83
823.447
826.05
829.767
834.765
841.244
849.377
859.28
870.997
884.534
898.73
911.537
922.328
939.07
953.085
705.415
716.923
738.458
746.374
736.794
714.518
687.695
661.334
636.929
616.934
603.869
598.081
594.686
592.292
592.221
592.186
592.431
595.522
598.573
703.419
711.13
729.577
737.014
729.703
710.438
685.851
660.594
636.44
617.511
602.448
601.63
598.614
594.177
593.607
592.948
592.259
592.769
597.766
700.495
707.613
721.552
729.528
724.978
708.289
685.425
661.228
637.605
607.048
566.317
570.611
597.372
601.77
598.252
593.86
591.716
593.847
597.16
697.211
686.836
688.554
700.33
721.833
709.067
683.176
654.952
598.95
559.025
557.617
550.848
563.468
607.057
605.339
603.5
594.896
597.618
596.549
693.543
672.583
682.95
688.638
693.067
689.949
639.238
583.095
566.409
558.06
552.537
544.875
570.088
610.697
606.998
604.014
600.944
596.843
595.84
664.874
724.425
756.773
698.299
665.118
646.064
598.006
583.659
587.225
603.842
558.039
549.296
624.18
612.676
608.334
604.125
599.823
595.793
595.109
685.629
734.85
770.387
774.318
675.81
635.733
651.097
632.669
631.412
614.505
608.371
604.247
591.895
610.217
609.355
604.226
598.726
594.515
593.893
677.285
748.702
783.726
790.376
733.225
629.822
665.834
650.408
632.806
613.576
600.082
545.393
468.499
519.039
609.996
604.186
597.583
588.011
534.233
830.719
830.318
828.083
824.898
821.899
819.426
817.823
817.241
817.653
818.985
821.321
824.824
829.696
836.156
844.344
854.256
865.879
879.081
888.944
877.876
879.714
894.561
879.609
833.587
832.955
828.712
823.889
819.672
815.874
813.499
812.624
812.803
813.678
815.527
818.591
823.079
829.306
837.377
847.001
858.06
870.53
875.332
855.799
862.867
861.633
857.21
681.156
681.753
633.122
609.769
595.866
571.785
565.97
570.871
577.472
584.508
597.442
617.52
643.879
678.06
721.025
767.318
812.627
851.498
862.542
869.947
868.084
846.916
866.729
130.78
140.17
109.974
84.2847
59.3015
41.8504
33.5439
31.9362
32.2296
33.618
38.2952
47.8656
62.5026
85.2038
120.631
170.849
239.645
343.434
502.929
654.713
738.93
798.604
804.79
25.1808
31.0801
50.882
42.2964
23.4965
13.0079
11.3307
8.69384
5.80031
4.10305
2.61589
1.78584
1.37341
1.13791
0.931389
0.69681
0.547731
0.545684
0.704702
10.3146
46.5794
85.8817
79.9024
25.7868
28.1041
30.8522
36.8386
37.9462
37.5296
35.4028
33.2914
31.1755
8.02645
2.31277
1.85554
2.2051
2.99413
2.88313
1.7371
0.696477
0.771487
1.75852
2.83611
1.01581
0.0480248
0.0989345
24.7012
15.2199
4.60111
7.438
23.3673
27.5698
30.1152
33.7193
32.3939
13.7414
3.06382
2.78339
3.79782
3.66413
3.58391
2.62791
0.457906
0.426919
3.69862
9.05262
9.04073
6.16408
1.04031
1.37808
0.0405235
0.0797835
0.0509978
-0.0250443
1.91809
-0.135339
-0.117517
0.887867
3.72388
3.74288
3.67823
2.90787
0.845327
0.490439
0.318014
0.297603
0.283635
0.252875
2.19473
6.64348
2.12401
0.950078
-0.0187074
-0.00458727
0.0185888
0.0179936
-0.0131033
-0.0533266
-0.0684738
-0.0701194
-0.0615909
0.808591
1.03848
0.414182
0.182837
0.209146
0.208867
0.215491
0.230757
0.231489
0.509336
2.11813
3.23188
1.47217
0.787828
-0.0186561
-0.0222788
-0.0031059
0.00467992
-0.031861
-0.0397563
0.0559126
0.102396
-0.0328488
-0.0350192
0.0327509
0.0984122
0.136513
0.156575
0.164423
0.170663
0.175634
0.165618
1.10105
2.31308
3.40435
2.05898
0.327741
-0.00634109
-0.0187248
-0.0105966
-0.0147276
-0.0411776
-0.0214563
-0.0340833
-0.053219
-0.0497746
-0.0182766
0.0282808
0.0703986
0.0994523
0.117702
0.127371
0.13178
0.126465
0.103733
0.0644993
0.0319908
0.420673
0.363291
0.122421
0.00818156
-0.0100806
-0.0233037
-0.0313385
-0.0397835
-0.0482823
-0.0517851
-0.0472686
-0.0335221
-0.00978016
0.0215126
0.050946
0.0736409
0.0889904
0.098228
0.100444
0.0938416
0.0739147
0.0451928
0.0157228
-0.00769895
-0.00692591
0.0211278
0.0221003
0.000685445
-0.0156686
-0.0250537
-0.0317048
-0.0364803
-0.0372845
-0.0324568
-0.0212464
-0.00382851
0.0177554
0.0387508
0.0558882
0.0678333
0.0739831
0.0744659
0.0686346
0.0551687
0.0351098
0.0122654
-0.00822359
-0.0189805
-0.0290788
0.0321395
0.0107941
-0.00680182
-0.0166834
-0.0223744
-0.0254169
-0.0251352
-0.0207486
-0.0119591
0.000799718
0.0159984
0.0309573
0.0434927
0.0523505
0.0568379
0.056703
0.0516066
0.0410881
0.0256481
0.00771837
-0.00977285
-0.0239854
-0.0395832
0.0373295
0.01764
0.000835744
-0.00866915
-0.0137057
-0.0159298
-0.0153473
-0.0117078
-0.00501466
0.00426831
0.0150403
0.025664
0.034667
0.0410261
0.0441011
0.0435641
0.0391874
0.0308614
0.0190459
0.00505238
-0.00958805
-0.0229306
-0.0211628
0.0379317
0.0210365
0.0064239
-0.00204764
-0.00641748
-0.00818835
-0.00765925
-0.00486298
6.37906e-05
0.0067192
0.0143317
0.0218417
0.0282236
0.0326731
0.0346553
0.0338809
0.0302032
0.0236333
0.0145072
0.00356322
-0.00832551
-0.0192791
-0.0200234
0.0349808
0.0217603
0.0101249
0.0030398
-0.000644811
-0.0021007
-0.00174674
0.00026327
0.00375987
0.00843392
0.0137558
0.0190131
0.0234715
0.0265091
0.0276981
0.0268128
0.0237654
0.0185944
0.0115192
0.00295177
-0.00660995
-0.0162038
-0.026507
0.0335182
0.020945
0.0122533
0.00678762
0.00373987
0.00253072
0.0026972
0.00405488
0.00644665
0.00964908
0.0133042
0.0169259
0.0199817
0.0219954
0.0226316
0.0217187
0.0192059
0.0151252
0.00960131
0.00284956
-0.0048504
-0.0129408
-0.0217671
0.0921658
0.0641408
0.0132926
0.00920791
0.00690756
0.00590207
0.00591132
0.00676383
0.00833104
0.0104587
0.0129075
0.0153443
0.0173843
0.0186657
0.0189251
0.0180281
0.0159419
0.012686
0.008319
0.00293485
-0.00331132
-0.0100118
-0.0173402
0.119887
0.117259
0.0856547
0.0107665
0.00904541
0.0082163
0.00810822
0.00857928
0.009537
0.0108818
0.0124583
0.0140394
0.0153478
0.0161085
0.0161111
0.015244
0.0134798
0.0108283
0.00731034
0.00295314
-0.00216499
-0.00775088
-0.0138863
0.0679733
0.118995
0.118786
0.0312495
0.0104233
0.00976485
0.00955282
0.00972148
0.0102181
0.0109833
0.0119203
0.0128768
0.0136538
0.014041
0.0138666
0.0130306
0.011503
0.00928658
0.00638484
0.0027954
-0.00144837
-0.00613965
-0.0113072
0.0123978
0.0913978
0.0810798
0.0296586
0.0124539
0.0108788
0.010544
0.0104529
0.0105861
0.0109115
0.0113701
0.011861
0.012242
0.0123528
0.0120511
0.0112432
0.00989139
0.00799008
0.00553637
0.0025197
-0.00104846
-0.00502109
-0.00939222
0.01207
0.0153507
0.0141325
0.0138639
0.0128614
0.0119099
0.0112921
0.0109877
0.0108421
0.0108384
0.0109399
0.0110799
0.0111585
0.0110552
0.0106531
0.00986493
0.00864434
0.00697612
0.00485387
0.00226837
-0.000775627
-0.00417027
-0.00788471
0.0116031
0.0129545
0.0136122
0.0134171
0.0129063
0.0123542
0.0118439
0.0114168
0.0110932
0.0108693
0.0107218
0.0106074
0.0104578
0.0101854
0.00969735
0.00891534
0.00778917
0.00629524
0.00442383
0.0021691
-0.000464111
-0.00339207
-0.00656498
0.0107709
0.0121389
0.0131127
0.0133046
0.0130599
0.0126478
0.0121914
0.0117525
0.0113616
0.0110247
0.0107295
0.0104486
0.0101376
0.00973568
0.00917331
0.00838485
0.00732182
0.00595651
0.00427682
0.00227963
-2.81716e-05
-0.00257682
-0.00530582
0.00995795
0.0112558
0.0123874
0.0128754
0.0128991
0.0126854
0.0123616
0.0119977
0.0116302
0.0112705
0.0109137
0.0105434
0.0101317
0.00963891
0.00901632
0.00821351
0.00718898
0.00591583
0.00438175
0.00258606
0.000537948
-0.00170183
-0.00406928
0.00927543
0.0105004
0.011675
0.0123447
0.0125828
0.0125645
0.0124008
0.0121562
0.0118659
0.0115429
0.0111861
0.0107855
0.0103239
0.00977671
0.00911193
0.00829427
0.00729229
0.00608409
0.00465989
0.00302159
0.00118056
-0.000809023
-0.00288434
0.00870772
0.00986646
0.0110371
0.0118133
0.0122111
0.0123599
0.0123482
0.0122294
0.0120339
0.011774
0.0114501
0.0110559
0.0105802
0.0100082
0.00932005
0.00849336
0.00750724
0.00634698
0.00500712
0.00349256
0.00181667
2.83058e-05
-0.00181434
0.00820746
0.00930683
0.010467
0.0113086
0.0118206
0.0121001
0.0122146
0.0122057
0.0120979
0.0119026
0.0116211
0.0112492
0.0107794
0.0102027
0.00950756
0.00868107
0.00771159
0.00659157
0.0053204
0.00390596
0.00236335
0.000736726
-0.00092279
0.00773356
0.00877243
0.00992472
0.0108108
0.0114026
0.0117771
0.0119862
0.012061
0.0120215
0.0118783
0.0116341
0.0112865
0.0108307
0.0102609
0.00957104
0.00875487
0.00780757
0.00672741
0.00551785
0.00418919
0.00275772
0.001263
-0.000252196
0.00725628
0.00822693
0.00936659
0.0102806
0.0109252
0.0113635
0.0116361
0.011767
0.0117731
0.0116649
0.011447
0.0111191
0.0106784
0.0101218
0.00944638
0.00865035
0.00773331
0.00669743
0.0055489
0.00429941
0.00296571
0.00158267
0.000184355
0.00675545
0.00764729
0.0087589
0.00968105
0.0103546
0.0108299
0.011139
0.0113012
0.0113321
0.0112432
0.0110409
0.0107271
0.0103011
0.00976167
0.0091084
0.00834186
0.00746423
0.0064798
0.0053961
0.00422508
0.00298317
0.00170048
0.000402562
0.00621793
0.00701983
0.00808132
0.00898843
0.00966839
0.0101574
0.0104803
0.0106537
0.0106933
0.010612
0.0104179
0.010115
0.00970452
0.00918694
0.00856326
0.00783544
0.00700683
0.00608251
0.00507017
0.00398117
0.00283084
0.00164441
0.00043956
0.00563424
0.00633544
0.00732411
0.00819323
0.0088589
0.00934158
0.00965956
0.00982873
0.00986574
0.00978485
0.00959588
0.0093043
0.00891282
0.0084232
0.00783732
0.00715773
0.00638806
0.00553328
0.00460052
0.00359982
0.00254475
0.00145565
0.000343124
0.00499483
0.00558622
0.00648362
0.00729595
0.00792993
0.00838937
0.00868772
0.00884161
0.00886923
0.00878607
0.00860294
0.00832628
0.00795974
0.00750579
0.00696669
0.00634506
0.00564425
0.00486868
0.00402442
0.00311974
0.00216593
0.00117855
0.00016186
0.00429522
0.00476691
0.00555944
0.00630268
0.00689225
0.00731549
0.0075835
0.00771522
0.00773067
0.00764607
0.00747251
0.00721671
0.00688261
0.00647287
0.00598969
0.00543542
0.00481292
0.00412583
0.00337895
0.00257858
0.00173338
0.000854258
-6.02394e-05
0.0035518
0.00387956
0.00455568
0.00522355
0.00576087
0.00613907
0.00636994
0.00647641
0.00648035
0.00639799
0.00623983
0.00601212
0.00571848
0.00536132
0.00494253
0.00446409
0.00392834
0.00333812
0.00269698
0.00200927
0.00128091
0.000518288
-0.000285102
0.00278386
0.00292118
0.00347998
0.00407275
0.00455372
0.00488099
0.00507108
0.00515261
0.0051487
0.00507442
0.00493871
0.00474662
0.00450104
0.00420389
0.00385672
0.00346122
0.00301932
0.00253327
0.00200556
0.00143876
0.000836177
0.000200021
-0.000480534
0.0019089
0.00182434
0.00231104
0.00286349
0.00329259
0.00356221
0.00370899
0.00376898
0.00376377
0.00370516
0.00359952
0.00345026
0.00325938
0.00302836
0.0027586
0.00245169
0.00210945
0.00173378
0.00132645
0.000888701
0.000421603
-7.61146e-05
-0.000618796
0.000762221
0.000355979
0.000862115
0.00159173
0.00200355
0.00220178
0.00230285
0.002349
0.00235247
0.00231879
0.00225112
0.00215127
0.00202059
0.00186047
0.00167245
0.00145835
0.00122018
0.000959881
0.000678965
0.000378024
5.67144e-05
-0.000288576
-0.000674791
-0.000144357
-0.002437
-0.00122498
0.000207036
0.000654224
0.000779132
0.000849249
0.000899709
0.00092652
0.000928568
0.000906615
0.000861765
0.000795449
0.000709489
0.000606022
0.000487457
0.000356357
0.000215156
6.57539e-05
-9.10193e-05
-0.00025579
-0.000432381
-0.000631471
0.00100082
-0.00784825
-0.00385183
-0.00169312
-0.00120211
-0.00101501
-0.000888715
-0.000791487
-0.000720194
-0.000671551
-0.000642222
-0.000629024
-0.000628743
-0.000638053
-0.000653579
-0.00067197
-0.000689981
-0.000704619
-0.000713419
-0.000714859
-0.000708886
-0.000698013
-0.00068907
784.802
777.662
791.819
790.929
842.791
847.851
858.999
845.478
863.651
860.314
860.469
866.494
794.288
784.303
765.667
733.136
66.9718
55.1121
8.24358
1.2524
0.852368
1.7963
2.38732
2.52228
1.2785
1.4876
1.70257
1.89384
1.12857
1.25394
1.45329
1.66794
0.822573
1.02853
1.43119
3.51869
0.431219
0.614404
1.12339
10.5216
0.167098
0.288015
0.791859
13.4558
0.00918519
0.0444598
2.17318
10.1212
-0.0608145
0.325602
2.46017
2.23797
0.0473907
0.665332
0.732018
-0.145187
0.129338
0.107873
-0.10691
-0.130004
-0.030502
-0.0692134
-0.0882312
-0.104415
-0.0415925
-0.0549529
-0.0695092
-0.081767
-0.0330067
-0.0433029
-0.0545601
-0.0641
-0.0261809
-0.0341877
-0.0429838
-0.0505083
-0.020884
-0.0270952
-0.0339356
-0.0398457
-0.0168387
-0.0215864
-0.0268105
-0.0313818
-0.0137494
-0.0173077
-0.0212014
-0.02466
-0.0113156
-0.0139403
-0.0167766
-0.0193394
-0.00927911
-0.0112066
-0.0132513
-0.0151315
-0.00747857
-0.00891096
-0.0103975
-0.0117929
-0.0058429
-0.00694358
-0.00806684
-0.00914758
-0.00437322
-0.00526795
-0.00617678
-0.00707386
-0.00310862
-0.00388802
-0.00468532
-0.00548798
-0.00209061
-0.00281502
-0.00356458
-0.00432598
-0.00134147
-0.00204646
-0.00278248
-0.00352903
-0.000855778
-0.00155835
-0.00229484
-0.00303543
-0.000602132
-0.00130645
-0.00204494
-0.00277855
-0.000531463
-0.00123344
-0.0019685
-0.00268946
-0.000588021
-0.00127857
-0.00200117
-0.00270215
-0.000718635
-0.00138601
-0.0020854
-0.00275851
-0.000876917
-0.0015083
-0.00217277
-0.00280959
-0.00102276
-0.00160458
-0.00222141
-0.00281273
-0.00112154
-0.00163882
-0.00219356
-0.00272852
-0.00114291
-0.00157818
-0.00205267
-0.00251571
-0.00106396
-0.00139806
-0.00176762
-0.00213092
-0.000832399
-0.00102683
-0.00125579
-0.00149231
-0.000698981
-0.000739999
-0.000804834
-0.000877273
749.426
777.64
802.203
804.522
778.637
577.847
608.158
647.974
634.557
555.507
482.564
427.39
387.518
397.319
400.81
389.011
369.271
357.55
350.644
817.735
819.381
827.694
810.484
756.807
468.278
391.141
484.009
471.774
439.548
427.668
382.329
293.672
198.379
176.138
168.127
148.394
143.474
132.98
867.659
825.483
602.15
373.704
396.884
322.372
238.675
151.947
145.819
293.887
289.408
197.836
183.719
180.506
179.693
211.342
214.868
137.444
127.979
600.89
272.758
20.5169
33.2369
37.9268
131.238
129.344
52.1366
50.605
106.18
178.918
210.231
212.66
201.59
219.83
220.886
220.572
144.664
124.127
3.36746
8.57318
14.9101
15.4614
17.2452
27.9177
40.7037
46.2345
41.9856
36.5611
63.1255
146.366
173.868
146.556
150.945
178.701
226.411
226.316
183.477
3.9531
6.61251
8.74752
12.7095
28.9466
31.9867
39.0538
45.1352
42.6821
31.4478
26.2313
19.3679
11.4968
9.23605
8.60135
16.0574
61.3878
112.142
105.629
2.39533
7.96135
43.1306
56.1208
56.4094
57.0108
57.9163
58.1416
56.5574
53.9453
42.051
23.7351
7.7735
4.19567
3.71963
3.01669
3.17058
7.8725
5.94496
6.01189
48.9849
59.264
59.3725
58.8887
58.8011
58.9507
58.9677
53.3877
38.298
19.051
8.04659
4.88018
5.79925
5.81733
2.54967
0.522335
0.418892
0.438079
31.5301
62.0992
63.2764
58.4404
19.903
21.0912
19.0336
11.6851
4.91169
1.01125
0.36936
0.446474
0.47936
1.00255
2.71052
2.17021
0.495324
0.405085
0.450897
52.4618
66.1629
50.0311
0.303791
-0.291992
-0.287909
-0.176781
5.81386e-05
0.172338
0.302986
0.3683
0.402339
0.416707
0.406292
0.390492
0.773917
0.42816
0.40086
0.403461
38.7213
38.6839
4.47491
-0.214122
-0.19367
-0.15447
-0.067505
0.0661631
0.181424
0.270507
0.614306
0.685887
0.616447
0.380468
0.373294
0.374872
0.390524
0.395528
0.416947
6.60556
0.163548
-0.262967
-0.217902
-0.178191
-0.138585
-0.0870963
-0.019704
0.290584
0.590973
0.635866
0.668886
0.691926
0.676083
0.357365
0.361655
0.372334
0.539239
0.538113
-0.195552
-0.235675
-0.224664
-0.192723
-0.15921
-0.124212
-0.0830369
-0.0365586
0.258696
0.589375
0.628734
0.654738
0.674891
0.694636
0.538155
0.341919
0.422296
0.529195
0.527174
-0.187503
-0.194611
-0.183739
-0.160327
-0.134662
-0.106372
-0.0741905
-0.0372356
0.320175
0.597762
0.628475
0.403123
0.138996
0.265636
0.409792
0.421439
0.379511
0.312439
0.442374
-0.153908
-0.158536
-0.138421
-0.114993
-0.107375
-0.0897386
-0.0653146
-0.0385158
0.333582
0.609787
0.435398
0.0520616
0.0737762
0.0988515
0.165413
0.199369
0.150503
0.162168
0.266061
-0.12172
-0.126116
-0.0838675
-0.0511264
-0.0377742
-0.0530039
-0.0564118
-0.0373086
0.164208
0.614731
0.154846
0.0370088
0.0569598
0.0714163
0.0819403
0.0909147
0.105524
0.328902
0.401304
-0.0952058
-0.100941
-0.056856
-0.0280703
-0.0189417
-0.00651089
-0.0178542
-0.0291127
0.0858777
0.0863798
0.00279782
0.0253731
0.0426929
0.05502
0.0633356
0.068176
0.120196
0.382735
0.388169
-0.0748314
-0.0818282
-0.0555694
-0.00858615
-0.00253163
0.00659243
0.0177445
0.0278909
-0.0012879
-0.0185915
-0.000194398
0.0171922
0.0312876
0.0411042
0.0472056
0.0494784
0.0645571
0.330759
0.379813
-0.0591276
-0.0656036
-0.0654522
-0.030087
-0.00377677
0.0176673
0.0263151
0.0201318
-0.0266184
-0.015995
-0.0014977
0.0144095
0.0255362
0.0314814
0.0344583
0.0356299
0.0330574
0.0364856
0.375258
-0.0467769
-0.0524872
-0.0558452
-0.05658
-0.0515648
-0.0399787
-0.0204544
-0.0289557
-0.0221492
-0.0145643
-0.00339035
0.00983368
0.0185912
0.0223077
0.0250722
0.026231
0.0248192
0.0226343
0.184875
-0.036933
-0.0418838
-0.0450515
-0.0462103
-0.045191
-0.0421243
-0.0372295
-0.0307118
-0.0207757
-0.0123244
-0.00451805
0.00425037
0.0109722
0.0150905
0.0185424
0.0202859
0.0205922
0.0211819
0.0233309
-0.0290658
-0.0333175
-0.0362152
-0.0375197
-0.0370566
-0.0348964
-0.0311956
-0.0261671
-0.019928
-0.0111343
-0.00423855
0.000444935
0.00581739
0.0105802
0.0141653
0.0166861
0.0187838
0.0218445
0.026213
-0.0228077
-0.0264395
-0.0290393
-0.0303808
-0.0303042
-0.0288378
-0.0260928
-0.0222434
-0.0175591
-0.0114646
-0.00447916
-0.000166775
0.003501
0.00762309
0.011213
0.0144053
0.0179029
0.0226805
0.0637579
-0.0178604
-0.0209619
-0.0232727
-0.0245885
-0.0247701
-0.0238221
-0.0218189
-0.0188955
-0.015257
-0.0111364
-0.00656056
-0.00157953
0.00255916
0.00580948
0.00912157
0.0126845
0.0169142
0.0375318
0.247055
-0.0139744
-0.016641
-0.0186913
-0.0199479
-0.0202941
-0.019723
-0.0182826
-0.0160738
-0.0132488
-0.00998452
-0.0064624
-0.00282804
0.000889535
0.00427065
0.00754724
0.0111217
0.0154441
0.0909579
0.252584
-0.0109512
-0.0132727
-0.0150982
-0.0162807
-0.0167271
-0.0164252
-0.0154056
-0.0137415
-0.0115444
-0.00894704
-0.0060855
-0.00308667
-3.78855e-05
0.0030473
0.00622038
0.00967818
0.0137718
0.109477
0.258841
-0.00863302
-0.0106861
-0.0123247
-0.0134318
-0.0139366
-0.0138261
-0.0131187
-0.0118671
-0.0101528
-0.00807342
-0.00572919
-0.00320857
-0.000566322
0.00219788
0.0051494
0.00844492
0.0123945
0.0745529
0.265656
-0.00689527
-0.00874043
-0.0102275
-0.0112665
-0.011805
-0.0118307
-0.0113546
-0.0104146
-0.00907024
-0.00739343
-0.00545632
-0.00331883
-0.00101184
0.00147987
0.00422763
0.00740163
0.011391
0.0645777
0.272548
-0.00563742
-0.00731902
-0.00868445
-0.00966522
-0.010223
-0.0103465
-0.0100419
-0.00933679
-0.00827575
-0.00691203
-0.00529745
-0.00347119
-0.00144673
0.000801664
0.0033502
0.00638083
0.0103349
0.119981
0.279701
-0.00477331
-0.00632171
-0.00758795
-0.00851938
-0.00908713
-0.00928041
-0.00910268
-0.0085746
-0.00773034
-0.00661057
-0.00525321
-0.0036836
-0.00190396
0.000116442
0.00245187
0.00526753
0.00898421
0.151515
0.286623
-0.00422366
-0.00565846
-0.00684095
-0.00772914
-0.0082995
-0.00854111
-0.00845585
-0.00806004
-0.00738109
-0.00645142
-0.00530009
-0.00394409
-0.00237947
-0.000574287
0.00154033
0.00410851
0.00754149
0.144082
0.293062
-0.0039124
-0.00524628
-0.00635558
-0.00720462
-0.00777118
-0.00804319
-0.00802219
-0.00772251
-0.00716773
-0.00638524
-0.00539892
-0.0042212
-0.00284562
-0.00124057
0.000656983
0.00299423
0.00625935
0.13802
0.276698
-0.00376692
-0.00500936
-0.0060542
-0.00686814
-0.00742588
-0.00771246
-0.00773076
-0.00749587
-0.0070304
-0.00635938
-0.0055041
-0.00447522
-0.00326627
-0.0018456
-0.000162049
0.00192176
0.0236827
0.180314
0.165531
-0.00372074
-0.0048809
-0.00587108
-0.00665665
-0.0072032
-0.00748975
-0.00752365
-0.00732431
-0.00691651
-0.00632539
-0.00557161
-0.00466576
-0.00360261
-0.00235157
-0.000876182
0.000936564
0.0035676
0.190619
0.197346
-0.00371607
-0.00480434
-0.00575333
-0.00652339
-0.00706111
-0.00733328
-0.00735849
-0.00716561
-0.00678503
-0.00624431
-0.00556478
-0.00475734
-0.00381688
-0.00271253
-0.00141491
0.000185846
0.00252212
0.134599
0.127289
-0.00370402
-0.00473249
-0.00565982
-0.00643815
-0.006977
-0.00721851
-0.0072079
-0.00699092
-0.00660719
-0.00608857
-0.00545786
-0.00472551
-0.00388344
-0.0029011
-0.00172806
-0.000226116
0.0022647
0.0127371
0.0130175
-0.00364181
-0.00462362
-0.00555588
-0.00638292
-0.00694345
-0.00713197
-0.00705343
-0.00677956
-0.00636235
-0.00583927
-0.0052347
-0.00455912
-0.00380619
-0.00293666
-0.00186795
-0.000394199
0.00205518
0.00616349
0.011462
-0.00348792
-0.0044324
-0.00540155
-0.00634563
-0.00696921
-0.0070677
-0.00687979
-0.00651314
-0.00603286
-0.00548159
-0.00488633
-0.00426247
-0.00360567
-0.00287433
-0.00195771
-0.000584929
0.00363928
0.00638266
0.0109491
-0.00319141
-0.00409318
-0.00514401
-0.0063702
-0.00719406
-0.0071086
-0.00672527
-0.00621097
-0.00562987
-0.00502203
-0.00441725
-0.00383904
-0.00329383
-0.00275108
-0.00210589
0.00833059
0.0186931
0.00812691
0.00979477
-0.00268242
-0.00351336
-0.0047657
-0.00680274
-0.00829293
-0.00768438
-0.00685176
-0.006059
-0.0052935
-0.00456161
-0.0038913
-0.00331338
-0.00286268
-0.00240524
0.00805697
0.016145
0.0179681
0.0126186
0.0081374
-0.00189325
-0.00260798
-0.00429067
-0.0083065
-0.0111188
-0.00913192
-0.00743928
-0.00619617
-0.0051391
-0.00419301
-0.00336819
-0.00269518
-0.00224216
-0.00218217
0.0156464
0.0154488
0.0166252
0.0110047
0.00576064
-0.00102396
-0.00152662
-0.00340059
-0.00935004
-0.010376
-0.00743095
-0.0056391
-0.00449922
-0.00359147
-0.00280016
-0.00211385
-0.00153566
-0.00110437
-0.00111756
0.000777048
0.00687555
0.00735389
0.00261844
0.00334151
)
;

boundaryField
{
    leftWall
    {
        type            fixedFluxPressure;
        gradient        uniform 0;
        value           nonuniform List<scalar> 
50
(
829.588
829.684
829.799
829.867
829.876
829.846
829.879
830.046
830.719
833.587
681.156
130.78
25.1808
25.7868
24.7012
1.37808
-0.0187074
-0.0186561
-0.00634109
0.00818156
0.0221003
0.0321395
0.0373295
0.0379317
0.0349808
0.0335182
0.0921658
0.119887
0.0679733
0.0123978
0.01207
0.0116031
0.0107709
0.00995795
0.00927543
0.00870772
0.00820746
0.00773356
0.00725628
0.00675545
0.00621793
0.00563424
0.00499483
0.00429522
0.0035518
0.00278386
0.0019089
0.000762221
-0.000144357
0.00100082
)
;
    }
    rightWall
    {
        type            fixedFluxPressure;
        gradient        uniform 0;
        value           nonuniform List<scalar> 
50
(
598.573
597.766
597.16
596.549
595.84
595.109
593.893
534.233
350.644
132.98
127.979
124.127
183.477
105.629
5.94496
0.438079
0.450897
0.403461
0.416947
0.538113
0.527174
0.442374
0.266061
0.401304
0.388169
0.379813
0.375258
0.184875
0.0233309
0.026213
0.0637579
0.247055
0.252584
0.258841
0.265656
0.272548
0.279701
0.286623
0.293062
0.276698
0.165531
0.197346
0.127289
0.0130175
0.011462
0.0109491
0.00979477
0.0081374
0.00576064
0.00334151
)
;
    }
    lowerWall
    {
        type            fixedFluxPressure;
        gradient        uniform 0;
        value           nonuniform List<scalar> 
62
(
829.588
829.7
830.536
831.615
832.67
833.931
835.58
837.708
840.329
843.415
846.942
850.915
855.379
860.441
866.281
873.224
881.651
890.889
902.321
915.511
929.489
940.853
949.334
949.334
950.529
953.23
957.961
963.645
966.989
965.606
953.085
784.802
777.662
791.819
790.929
705.415
703.419
700.495
697.211
693.543
664.874
685.629
677.285
705.415
716.923
738.458
746.374
736.794
714.518
687.695
661.334
636.929
616.934
603.869
598.081
594.686
592.292
592.221
592.186
592.431
595.522
598.573
)
;
    }
    atmosphere
    {
        type            totalPressure;
        rho             rho;
        psi             none;
        gamma           1;
        p0              uniform 0;
        value           nonuniform List<scalar> 
46
(
-0.00154151
-0.00387677
-0.00317612
-0.00266715
-0.00233835
-0.00210021
-0.0019215
-0.00178651
-0.00168519
-0.00160984
-0.00155404
-0.00151217
-0.00147918
-0.00145039
-0.00142151
-0.00138857
-0.00134794
-0.00129638
-0.00123114
-0.00115002
-0.00105172
-0.00093621
-0.000805303
-0.000697752
-0.000626009
-0.000550576
-0.000473502
-0.00035091
-0.000198624
-8.40797e-05
-9.21461e-06
0
0
0
0
0
0
0
0
0
0
0
0
0
0
0
)
;
    }
    defaultFaces
    {
        type            empty;
    }
}


// ************************************************************************* //
