/*--------------------------------*- C++ -*----------------------------------*\
| =========                 |                                                 |
| \\      /  F ield         | OpenFOAM: The Open Source CFD Toolbox           |
|  \\    /   O peration     | Version:  2.3.0                                 |
|   \\  /    A nd           | Web:      www.OpenFOAM.org                      |
|    \\/     M anipulation  |                                                 |
\*---------------------------------------------------------------------------*/
FoamFile
{
    version     2.0;
    format      ascii;
    class       surfaceScalarField;
    location    "1.65";
    object      phi;
}
// * * * * * * * * * * * * * * * * * * * * * * * * * * * * * * * * * * * * * //

dimensions      [0 3 -1 0 0 0 0];

internalField   nonuniform List<scalar> 
4432
(
-1.75831e-06
1.75831e-06
-1.25297e-06
-5.05335e-07
-4.96949e-08
-1.20328e-06
1.14553e-06
-1.19523e-06
2.26004e-06
-1.11453e-06
3.31679e-06
-1.05675e-06
4.37899e-06
-1.06222e-06
5.49846e-06
-1.11947e-06
6.69422e-06
-1.19577e-06
7.95352e-06
-1.2593e-06
9.24094e-06
-1.28743e-06
1.0505e-05
-1.26406e-06
1.16797e-05
-1.17474e-06
1.26807e-05
-1.00091e-06
1.33924e-05
-7.1171e-07
1.36162e-05
-2.23821e-07
1.30262e-05
5.89958e-07
1.1108e-05
1.91828e-06
7.95042e-06
3.15755e-06
3.84624e-06
4.10419e-06
-3.65682e-07
4.21193e-06
-3.09187e-06
2.7262e-06
-3.09189e-06
-5.53722e-07
2.31202e-06
4.85077e-08
-1.10757e-06
8.27447e-07
-1.98224e-06
1.66045e-06
-2.02825e-06
2.51367e-06
-1.96777e-06
3.41431e-06
-1.9574e-06
4.39748e-06
-2.04539e-06
5.48642e-06
-2.20841e-06
6.67946e-06
-2.38881e-06
7.95071e-06
-2.53053e-06
9.25734e-06
-2.59406e-06
1.05445e-05
-2.55122e-06
1.17458e-05
-2.37603e-06
1.27799e-05
-2.03497e-06
1.35427e-05
-1.47447e-06
1.39071e-05
-5.88296e-07
1.37004e-05
7.96696e-07
1.26763e-05
2.94234e-06
1.05322e-05
5.30173e-06
7.2887e-06
7.34767e-06
3.31511e-06
8.18551e-06
2.55624e-07
5.78568e-06
-2.83627e-06
3.52521e-07
1.95949e-06
7.88979e-07
-1.54405e-06
1.29049e-06
-2.48377e-06
1.87504e-06
-2.6128e-06
2.55474e-06
-2.64748e-06
3.34799e-06
-2.75065e-06
4.27374e-06
-2.97114e-06
5.33844e-06
-3.27311e-06
6.52646e-06
-3.57683e-06
7.80251e-06
-3.80657e-06
9.11891e-06
-3.91045e-06
1.04195e-05
-3.85179e-06
1.16393e-05
-3.59579e-06
1.27011e-05
-3.09685e-06
1.35091e-05
-2.28248e-06
1.39488e-05
-1.02794e-06
1.38875e-05
8.58006e-07
1.32366e-05
3.59321e-06
1.17397e-05
6.79865e-06
9.27144e-06
9.81592e-06
5.93772e-06
1.15192e-05
2.54963e-06
9.17378e-06
-2.86658e-07
8.71616e-07
1.08787e-06
1.22628e-06
-1.89873e-06
1.52811e-06
-2.7856e-06
1.93397e-06
-3.01868e-06
2.48314e-06
-3.19664e-06
3.19141e-06
-3.45892e-06
4.0696e-06
-3.84932e-06
5.11398e-06
-4.31749e-06
6.29873e-06
-4.76157e-06
7.58074e-06
-5.08858e-06
8.9084e-06
-5.23811e-06
1.02251e-05
-5.16849e-06
1.14685e-05
-4.83915e-06
1.25674e-05
-4.19582e-06
1.34378e-05
-3.15284e-06
1.3984e-05
-1.57414e-06
1.41119e-05
7.30075e-07
1.37672e-05
3.93799e-06
1.27606e-05
7.80519e-06
1.08812e-05
1.16954e-05
8.06184e-06
1.43385e-05
4.46059e-06
1.2775e-05
4.17392e-06
1.10462e-06
-1.67529e-08
1.4261e-06
-2.22023e-06
1.60032e-06
-2.95983e-06
1.87903e-06
-3.29739e-06
2.32755e-06
-3.64516e-06
2.96462e-06
-4.09598e-06
3.79964e-06
-4.68433e-06
4.82394e-06
-5.34179e-06
6.00415e-06
-5.94179e-06
7.2904e-06
-6.37482e-06
8.62784e-06
-6.57554e-06
9.96038e-06
-6.50103e-06
1.12295e-05
-6.10826e-06
1.23719e-05
-5.33823e-06
1.33169e-05
-4.09781e-06
1.39893e-05
-2.24652e-06
1.4325e-05
3.94416e-07
1.42801e-05
3.98288e-06
1.37026e-05
8.38264e-06
1.23573e-05
1.30407e-05
1.0038e-05
1.66578e-05
6.33265e-06
1.64804e-05
1.05066e-05
1.16192e-06
-1.17868e-06
1.46238e-06
-2.52072e-06
1.56272e-06
-3.06017e-06
1.75553e-06
-3.49021e-06
2.12733e-06
-4.01695e-06
2.70315e-06
-4.6718e-06
3.49622e-06
-5.47741e-06
4.49714e-06
-6.3427e-06
5.66714e-06
-7.11179e-06
6.95048e-06
-7.65815e-06
8.28999e-06
-7.91505e-06
9.63125e-06
-7.84229e-06
1.09209e-05
-7.39789e-06
1.21048e-05
-6.52213e-06
1.31264e-05
-5.11941e-06
1.39299e-05
-3.05007e-06
1.44748e-05
-1.50403e-07
1.47328e-05
3.72487e-06
1.45836e-05
8.53177e-06
1.37941e-05
1.38302e-05
1.20746e-05
1.83774e-05
8.448e-06
2.0107e-05
1.89546e-05
1.11931e-06
-2.29799e-06
1.41496e-06
-2.81639e-06
1.48481e-06
-3.13002e-06
1.62592e-06
-3.63131e-06
1.9411e-06
-4.33213e-06
2.46287e-06
-5.19356e-06
3.2117e-06
-6.22623e-06
4.18088e-06
-7.31188e-06
5.32834e-06
-8.25925e-06
6.5936e-06
-8.92341e-06
7.91852e-06
-9.23997e-06
9.25174e-06
-9.17551e-06
1.05465e-05
-8.69261e-06
1.1759e-05
-7.73462e-06
1.2847e-05
-6.20749e-06
1.37727e-05
-3.97568e-06
1.45164e-05
-8.9415e-07
1.50737e-05
3.16759e-06
1.5366e-05
8.23945e-06
1.51928e-05
1.40034e-05
1.42919e-05
1.92782e-05
1.09889e-05
2.341e-05
2.99435e-05
1.03466e-06
-3.33267e-06
1.36399e-06
-3.14572e-06
1.43788e-06
-3.2039e-06
1.55479e-06
-3.74822e-06
1.8315e-06
-4.60883e-06
2.30531e-06
-5.66736e-06
3.00533e-06
-6.92625e-06
3.93032e-06
-8.23687e-06
5.03691e-06
-9.36582e-06
6.26147e-06
-1.0148e-05
7.54669e-06
-1.05252e-05
8.84617e-06
-1.0475e-05
1.0121e-05
-9.96749e-06
1.13391e-05
-8.95271e-06
1.24726e-05
-7.34098e-06
1.34994e-05
-5.00242e-06
1.44182e-05
-1.81304e-06
1.52542e-05
2.33169e-06
1.59876e-05
7.50604e-06
1.64925e-05
1.34985e-05
1.66441e-05
1.91266e-05
1.47839e-05
2.52703e-05
4.47273e-05
-6.53232e-06
6.53232e-06
-2.82335e-06
-3.70894e-06
5.65923e-06
-8.48257e-06
1.37764e-05
-8.11711e-06
1.9767e-05
-5.9907e-06
2.33538e-05
-3.58679e-06
2.50826e-05
-1.72873e-06
2.57553e-05
-6.72718e-07
2.49783e-05
7.7694e-07
2.10312e-05
3.94715e-06
1.27706e-05
8.26054e-06
4.51923e-06
8.25139e-06
-1.23094e-07
4.64234e-06
-2.69432e-06
2.57123e-06
-4.23029e-06
1.53599e-06
-5.38043e-06
1.15014e-06
-6.09319e-06
7.12731e-07
-4.46542e-06
-1.62778e-06
-4.46539e-06
-3.41387e-06
9.94618e-06
1.42425e-06
-8.54707e-06
8.88075e-06
-1.59391e-05
1.53807e-05
-1.4617e-05
1.96575e-05
-1.02676e-05
2.16516e-05
-5.58083e-06
2.21414e-05
-2.21858e-06
2.20668e-05
-5.98091e-07
2.16214e-05
1.22225e-06
1.97653e-05
5.80333e-06
1.43006e-05
1.37252e-05
7.07929e-06
1.54726e-05
2.06493e-06
9.65674e-06
-5.9481e-07
5.23098e-06
-2.35795e-06
3.29913e-06
-3.536e-06
2.32821e-06
-3.98983e-06
1.16657e-06
-2.9472e-06
-2.67041e-06
-7.41259e-06
-5.5974e-07
1.05059e-05
4.71946e-06
-1.38263e-05
1.17802e-05
-2.29999e-05
1.71168e-05
-1.99536e-05
1.99187e-05
-1.30694e-05
2.051e-05
-6.1721e-06
1.99341e-05
-1.64267e-06
1.91594e-05
1.76551e-07
1.81951e-05
2.18656e-06
1.66078e-05
7.39058e-06
1.35566e-05
1.67765e-05
8.47262e-06
2.05567e-05
3.86929e-06
1.42601e-05
1.17119e-06
7.9291e-06
-7.0008e-07
5.17037e-06
-1.84047e-06
3.46859e-06
-2.29765e-06
1.62375e-06
-1.68991e-06
-3.27814e-06
-9.10249e-06
1.49786e-06
9.00807e-06
8.11191e-06
-2.04403e-05
1.53473e-05
-3.02352e-05
1.96153e-05
-2.42217e-05
2.07614e-05
-1.42156e-05
1.98807e-05
-5.29132e-06
1.82044e-05
3.36202e-08
1.66106e-05
1.77034e-06
1.51785e-05
3.61865e-06
1.39662e-05
8.60294e-06
1.27068e-05
1.80359e-05
9.64761e-06
2.36158e-05
5.76491e-06
1.81428e-05
2.81625e-06
1.08778e-05
8.53281e-07
7.13335e-06
-2.93064e-07
4.61494e-06
-7.21243e-07
2.05193e-06
-6.75602e-07
-3.32378e-06
-9.77808e-06
3.79886e-06
5.20921e-06
1.27265e-05
-2.9368e-05
1.97399e-05
-3.72486e-05
2.28332e-05
-2.73149e-05
2.22539e-05
-1.36363e-05
1.96908e-05
-2.72824e-06
1.66958e-05
3.02858e-06
1.41567e-05
4.30946e-06
1.25786e-05
5.19675e-06
1.20362e-05
9.14532e-06
1.18974e-05
1.81747e-05
1.04941e-05
2.50191e-05
7.53042e-06
2.11065e-05
4.40897e-06
1.39992e-05
2.39816e-06
9.14415e-06
1.25784e-06
5.75527e-06
8.10728e-07
2.49905e-06
4.31779e-07
-2.94485e-06
-9.3463e-06
8.721e-06
-3.51178e-06
1.85287e-05
-3.91756e-05
2.40428e-05
-4.27627e-05
2.6176e-05
-2.94482e-05
2.43175e-05
-1.17777e-05
1.97846e-05
1.80466e-06
1.54223e-05
7.39085e-06
1.22802e-05
7.45154e-06
1.07334e-05
6.74349e-06
1.04304e-05
9.44839e-06
1.11472e-05
1.74579e-05
1.10787e-05
2.50876e-05
8.7458e-06
2.34394e-05
5.82105e-06
1.69239e-05
3.9179e-06
1.10473e-05
2.88097e-06
6.7922e-06
2.41444e-06
2.96558e-06
1.80744e-06
-2.33787e-06
-7.53885e-06
1.65046e-05
-2.00163e-05
2.48142e-05
-4.74853e-05
2.79357e-05
-4.58842e-05
2.88478e-05
-3.03602e-05
2.63217e-05
-9.25167e-06
2.03128e-05
7.81362e-06
1.48386e-05
1.2865e-05
1.12288e-05
1.10614e-05
9.53866e-06
8.43369e-06
9.24534e-06
9.74172e-06
1.03565e-05
1.63468e-05
1.1184e-05
2.426e-05
9.48172e-06
2.51417e-05
7.01155e-06
1.93941e-05
5.40226e-06
1.26566e-05
4.53565e-06
7.65881e-06
4.102e-06
3.39923e-06
3.37572e-06
-1.6116e-06
-4.16312e-06
2.58793e-05
-4.58956e-05
3.03742e-05
-5.19801e-05
3.10142e-05
-4.65243e-05
3.06815e-05
-3.00276e-05
2.79369e-05
-6.50706e-06
2.13041e-05
1.44464e-05
1.49279e-05
1.92411e-05
1.0807e-05
1.51823e-05
8.7699e-06
1.04708e-05
8.32711e-06
1.01845e-05
9.48685e-06
1.5187e-05
1.08244e-05
2.29225e-05
1.0108e-05
2.58581e-05
8.19173e-06
2.13104e-05
6.83579e-06
1.40125e-05
6.19113e-06
8.30347e-06
5.81036e-06
3.78e-06
4.79624e-06
-5.97483e-07
6.33101e-07
2.03713e-06
-5.3698e-06
2.94744e-06
-4.05603e-06
3.18463e-06
-3.44109e-06
3.41787e-06
-3.98146e-06
3.93903e-06
-5.12999e-06
4.80897e-06
-6.5373e-06
6.12479e-06
-8.24207e-06
7.91092e-06
-1.0023e-05
1.00741e-05
-1.1529e-05
1.24709e-05
-1.25448e-05
1.49911e-05
-1.30454e-05
1.75601e-05
-1.30439e-05
2.01251e-05
-1.25325e-05
2.26579e-05
-1.14856e-05
2.51466e-05
-9.82964e-06
2.75875e-05
-7.44335e-06
3.00216e-05
-4.24708e-06
3.25985e-05
-2.45239e-07
3.55049e-05
4.59964e-06
3.89524e-05
1.0051e-05
4.33466e-05
1.47324e-05
5.06998e-05
1.7917e-05
1.8868e-05
7.65592e-05
2.59831e-06
-7.96811e-06
3.94694e-06
-5.40466e-06
4.28827e-06
-3.78242e-06
4.66736e-06
-4.36055e-06
5.27677e-06
-5.73939e-06
6.01814e-06
-7.27865e-06
7.11478e-06
-9.33871e-06
8.62831e-06
-1.15365e-05
1.0457e-05
-1.33577e-05
1.24507e-05
-1.45384e-05
1.4558e-05
-1.51528e-05
1.67572e-05
-1.52431e-05
1.90308e-05
-1.48061e-05
2.13979e-05
-1.38526e-05
2.39015e-05
-1.23333e-05
2.65721e-05
-1.0114e-05
2.94789e-05
-7.15384e-06
3.27996e-05
-3.56593e-06
3.69167e-05
4.82488e-07
4.23182e-05
4.64959e-06
4.9264e-05
7.7865e-06
5.82372e-05
8.94384e-06
6.75646e-06
7.03488e-05
3.00251e-06
-1.09706e-05
4.8163e-06
-7.21844e-06
5.93459e-06
-4.90071e-06
7.10316e-06
-5.52912e-06
8.13145e-06
-6.76768e-06
8.89141e-06
-8.03861e-06
9.83438e-06
-1.02817e-05
1.10273e-05
-1.27295e-05
1.23406e-05
-1.46709e-05
1.36355e-05
-1.58334e-05
1.50479e-05
-1.65652e-05
1.66774e-05
-1.68726e-05
1.85252e-05
-1.66538e-05
2.062e-05
-1.59474e-05
2.30317e-05
-1.4745e-05
2.58191e-05
-1.29013e-05
2.90771e-05
-1.04119e-05
3.30293e-05
-7.51809e-06
3.80623e-05
-4.55047e-06
4.45195e-05
-1.80762e-06
5.22819e-05
2.40848e-08
6.14037e-05
-1.77971e-07
-3.42935e-06
7.15895e-05
-3.45943e-07
-1.06247e-05
2.60302e-06
-1.01674e-05
7.33008e-06
-9.62775e-06
1.12746e-05
-9.47366e-06
1.35795e-05
-9.07259e-06
1.48176e-05
-9.27675e-06
1.59774e-05
-1.14415e-05
1.70255e-05
-1.37776e-05
1.74673e-05
-1.51127e-05
1.70261e-05
-1.53922e-05
1.66067e-05
-1.61458e-05
1.69042e-05
-1.71701e-05
1.79256e-05
-1.76753e-05
1.95445e-05
-1.75664e-05
2.17534e-05
-1.69538e-05
2.46307e-05
-1.57786e-05
2.83972e-05
-1.41784e-05
3.32966e-05
-1.24176e-05
3.95073e-05
-1.07612e-05
4.67302e-05
-9.03046e-06
5.4781e-05
-8.02675e-06
6.3629e-05
-9.02599e-06
-1.23528e-05
7.25525e-05
-5.08654e-06
-5.53813e-06
4.75002e-07
-1.57289e-05
9.16176e-06
-1.83144e-05
1.81882e-05
-1.85001e-05
2.89279e-05
-1.98124e-05
3.94679e-05
-1.98168e-05
4.78728e-05
-1.98464e-05
5.37293e-05
-1.96342e-05
5.51922e-05
-1.65759e-05
4.45143e-05
-4.71432e-06
2.99396e-05
-1.57105e-06
2.21775e-05
-9.40804e-06
1.97314e-05
-1.5229e-05
2.00237e-05
-1.78587e-05
2.13547e-05
-1.82849e-05
2.3035e-05
-1.74589e-05
2.59112e-05
-1.70546e-05
3.09185e-05
-1.74249e-05
3.83651e-05
-1.82077e-05
4.75858e-05
-1.82511e-05
5.69955e-05
-1.74365e-05
6.64077e-05
-1.84382e-05
-2.18052e-05
7.586e-05
8.73751e-06
-1.42756e-05
1.88938e-05
-2.58853e-05
2.2036e-05
-2.14568e-05
2.86162e-05
-2.50802e-05
3.94439e-05
-3.06402e-05
4.99735e-05
-3.03463e-05
5.81986e-05
-2.80716e-05
6.48592e-05
-2.62949e-05
7.01244e-05
-2.18411e-05
7.2478e-05
-7.06789e-06
6.14559e-05
9.45111e-06
4.83954e-05
3.65228e-06
4.01614e-05
-6.99496e-06
3.64647e-05
-1.41619e-05
3.53636e-05
-1.71838e-05
3.29509e-05
-1.50462e-05
2.56256e-05
-9.72941e-06
2.24273e-05
-1.42268e-05
3.21176e-05
-2.78982e-05
4.69273e-05
-3.3061e-05
5.85448e-05
-2.9054e-05
6.65081e-05
-2.64015e-05
-2.62469e-05
7.09498e-05
2.61688e-05
-4.04443e-05
3.77201e-05
-3.74365e-05
3.46429e-05
-1.838e-05
3.57623e-05
-2.61997e-05
4.24226e-05
-3.73007e-05
4.9233e-05
-3.71568e-05
5.3837e-05
-3.26756e-05
5.67351e-05
-2.9193e-05
5.76432e-05
-2.27493e-05
5.55457e-05
-4.97045e-06
5.24364e-05
1.25606e-05
4.76294e-05
8.45923e-06
4.2766e-05
-2.13155e-06
3.77872e-05
-9.18303e-06
3.38967e-05
-1.32935e-05
3.02717e-05
-1.14214e-05
2.63192e-05
-5.77663e-06
2.46525e-05
-1.25597e-05
2.60159e-05
-2.92614e-05
2.94758e-05
-3.65209e-05
3.37167e-05
-3.32948e-05
3.03151e-05
-2.29999e-05
-2.02407e-06
6.09217e-06
2.44084e-05
-6.48527e-05
3.06786e-05
-4.37066e-05
3.94133e-05
-2.71143e-05
4.19547e-05
-2.87415e-05
4.06896e-05
-3.60356e-05
4.36504e-05
-4.01177e-05
4.4957e-05
-3.39822e-05
4.26216e-05
-2.68577e-05
3.75201e-05
-1.76478e-05
3.60421e-05
-3.49243e-06
3.89753e-05
9.62761e-06
3.95683e-05
7.8663e-06
3.75336e-05
-9.68562e-08
3.26352e-05
-4.28466e-06
2.65189e-05
-7.17728e-06
2.15406e-05
-6.4434e-06
2.13158e-05
-5.55222e-06
2.21813e-05
-1.34248e-05
2.0464e-05
-2.7544e-05
1.86259e-05
-3.46828e-05
1.51702e-05
-2.98391e-05
1.16011e-06
-8.99006e-06
2.39334e-05
-2.47974e-05
4.85486e-06
-6.97078e-05
1.22872e-05
-5.11399e-05
2.17884e-05
-3.66153e-05
2.71211e-05
-3.40739e-05
2.76825e-05
-3.65971e-05
2.38822e-05
-3.63176e-05
2.09958e-05
-3.10959e-05
1.78411e-05
-2.3703e-05
1.52271e-05
-1.50337e-05
1.64053e-05
-4.67064e-06
2.16208e-05
4.41222e-06
2.39974e-05
5.48968e-06
2.18921e-05
2.00846e-06
1.84186e-05
-8.10966e-07
1.43156e-05
-3.07413e-06
1.16739e-05
-3.80164e-06
1.13491e-05
-5.22766e-06
1.01477e-05
-1.22234e-05
7.17742e-06
-2.45737e-05
2.83577e-06
-3.03412e-05
-5.12692e-06
-2.18765e-05
-1.85755e-05
4.45852e-06
4.19101e-05
-3.65524e-05
-2.44925e-06
-6.72586e-05
-1.01324e-06
-5.25764e-05
3.27265e-06
-4.09016e-05
5.60665e-06
-3.6408e-05
4.06524e-06
-3.50558e-05
4.68597e-07
-3.2721e-05
-2.82429e-06
-2.78028e-05
-5.31127e-06
-2.12159e-05
-6.57895e-06
-1.37657e-05
-5.31224e-06
-5.93737e-06
-1.34887e-06
4.48827e-07
2.02831e-06
2.11255e-06
3.24436e-06
7.92412e-07
3.37928e-06
-9.46097e-07
2.84806e-06
-2.5429e-06
2.66797e-06
-3.62144e-06
2.95482e-06
-5.51459e-06
1.62434e-06
-1.0893e-05
-3.12692e-06
-1.98224e-05
-1.03239e-05
-2.31443e-05
-1.88181e-05
-1.33821e-05
-2.84531e-05
1.40938e-05
5.04086e-05
-3.69516e-05
-7.28411e-06
-5.99742e-05
-1.069e-05
-4.91709e-05
-1.10597e-05
-4.05321e-05
-1.18549e-05
-3.56127e-05
-1.43031e-05
-3.26075e-05
-1.75759e-05
-2.94484e-05
-2.05083e-05
-2.48704e-05
-2.24203e-05
-1.93039e-05
-2.27896e-05
-1.33962e-05
-2.09928e-05
-7.73412e-06
-1.71361e-05
-3.408e-06
-1.32421e-05
-1.7814e-06
-1.03945e-05
-2.05499e-06
-8.39417e-06
-2.94655e-06
-6.94457e-06
-3.99259e-06
-5.5137e-06
-5.05216e-06
-4.16695e-06
-6.86129e-06
-4.60398e-06
-1.04559e-05
-9.87417e-06
-1.45522e-05
-1.91654e-05
-1.38529e-05
-2.88675e-05
-3.67999e-06
-3.46097e-05
1.9836e-05
4.86751e-05
-3.2876e-05
-1.05205e-05
-4.94536e-05
-1.68493e-05
-4.28421e-05
-2.04825e-05
-3.68989e-05
-2.33655e-05
-3.27297e-05
-2.63987e-05
-2.95742e-05
-2.94631e-05
-2.63839e-05
-3.17952e-05
-2.25383e-05
-3.28905e-05
-1.82085e-05
-3.24866e-05
-1.38e-05
-3.04244e-05
-9.79631e-06
-2.70158e-05
-6.81669e-06
-2.34038e-05
-5.39333e-06
-2.02974e-05
-5.16122e-06
-1.77586e-05
-5.48532e-06
-1.56895e-05
-6.06186e-06
-1.39243e-05
-6.81741e-06
-1.27707e-05
-8.01465e-06
-1.35116e-05
-9.71488e-06
-1.75323e-05
-1.05314e-05
-2.41234e-05
-7.26167e-06
-3.07302e-05
2.9271e-06
-3.22313e-05
2.13372e-05
4.18811e-05
-2.5437e-05
-1.20813e-05
-3.73723e-05
-2.00973e-05
-3.48263e-05
-2.54827e-05
-3.15135e-05
-2.95391e-05
-2.86732e-05
-3.29406e-05
-2.61726e-05
-3.57252e-05
-2.3599e-05
-3.75683e-05
-2.06949e-05
-3.82209e-05
-1.75557e-05
-3.75872e-05
-1.44335e-05
-3.57345e-05
-1.16491e-05
-3.30037e-05
-9.5476e-06
-3.00506e-05
-8.34647e-06
-2.73402e-05
-7.87146e-06
-2.5016e-05
-7.80939e-06
-2.31067e-05
-7.97123e-06
-2.16511e-05
-8.27304e-06
-2.09787e-05
-8.68697e-06
-2.17966e-05
-8.89715e-06
-2.45647e-05
-7.76326e-06
-2.84925e-05
-3.3338e-06
-3.14455e-05
5.87995e-06
-2.98908e-05
1.97824e-05
3.39772e-05
-2.19868e-05
-1.21861e-05
-2.51859e-05
-2.08017e-05
-2.62106e-05
-2.69612e-05
-2.53538e-05
-3.15574e-05
-2.40772e-05
-3.50984e-05
-2.26314e-05
-3.772e-05
-2.09772e-05
-3.93465e-05
-1.90684e-05
-3.99141e-05
-1.6988e-05
-3.94464e-05
-1.49013e-05
-3.80848e-05
-1.30107e-05
-3.61201e-05
-1.15122e-05
-3.39581e-05
-1.05082e-05
-3.19103e-05
-9.91912e-06
-3.01295e-05
-9.5903e-06
-2.87023e-05
-9.39854e-06
-2.77384e-05
-9.23703e-06
-2.74772e-05
-8.94795e-06
-2.82429e-05
-8.13134e-06
-3.00648e-05
-5.94132e-06
-3.21632e-05
-1.23524e-06
-3.29517e-05
6.66849e-06
-3.03958e-05
1.72267e-05
2.75826e-05
-2.4001e-05
-1.12978e-05
-1.38881e-05
-1.96828e-05
-1.78256e-05
-2.5924e-05
-1.91126e-05
-3.06259e-05
-1.93753e-05
-3.41663e-05
-1.90912e-05
-3.67143e-05
-1.8429e-05
-3.83189e-05
-1.74636e-05
-3.90202e-05
-1.62865e-05
-3.89036e-05
-1.50178e-05
-3.81222e-05
-1.37922e-05
-3.6903e-05
-1.27314e-05
-3.55129e-05
-1.18982e-05
-3.4167e-05
-1.12649e-05
-3.30016e-05
-1.07556e-05
-3.21159e-05
-1.02841e-05
-3.16159e-05
-9.73679e-06
-3.1642e-05
-8.92174e-06
-3.22965e-05
-7.47675e-06
-3.34213e-05
-4.81645e-06
-3.43657e-05
-2.90963e-07
-3.40656e-05
6.36833e-06
-3.14522e-05
1.46134e-05
2.26575e-05
-2.65272e-05
-9.79068e-06
-4.09756e-06
-1.73737e-05
-1.02423e-05
-2.32168e-05
-1.32697e-05
-2.77203e-05
-1.48716e-05
-3.11448e-05
-1.56668e-05
-3.36445e-05
-1.59295e-05
-3.53122e-05
-1.5796e-05
-3.62311e-05
-1.53674e-05
-3.65057e-05
-1.47433e-05
-3.62736e-05
-1.40243e-05
-3.57064e-05
-1.32987e-05
-3.49861e-05
-1.26183e-05
-3.42655e-05
-1.19853e-05
-3.36558e-05
-1.13653e-05
-3.32437e-05
-1.06964e-05
-3.31054e-05
-9.87499e-06
-3.33025e-05
-8.72471e-06
-3.38194e-05
-6.95994e-06
-3.44429e-05
-4.19293e-06
-3.46722e-05
-6.17945e-08
-3.38151e-05
5.51125e-06
-3.12798e-05
1.2078e-05
1.84938e-05
-2.7116e-05
-7.94536e-06
3.84791e-06
-1.43279e-05
-3.85952e-06
-1.94533e-05
-8.14423e-06
-2.35499e-05
-1.07749e-05
-2.67581e-05
-1.24587e-05
-2.91852e-05
-1.35025e-05
-3.09199e-05
-1.40611e-05
-3.20497e-05
-1.42374e-05
-3.26719e-05
-1.41211e-05
-3.28989e-05
-1.37974e-05
-3.28568e-05
-1.33408e-05
-3.26722e-05
-1.28028e-05
-3.24541e-05
-1.22032e-05
-3.22875e-05
-1.15317e-05
-3.22372e-05
-1.07467e-05
-3.23478e-05
-9.76445e-06
-3.26285e-05
-8.44409e-06
-3.30102e-05
-6.57826e-06
-3.32846e-05
-3.9186e-06
-3.30783e-05
-2.68173e-07
-3.19345e-05
4.36749e-06
-2.95033e-05
9.64693e-06
1.48265e-05
-2.5836e-05
-5.92465e-06
9.77283e-06
-1.08571e-05
1.07278e-06
-1.50754e-05
-3.92579e-06
-1.86249e-05
-7.22568e-06
-2.15348e-05
-9.54867e-06
-2.38415e-05
-1.11957e-05
-2.5604e-05
-1.22984e-05
-2.68918e-05
-1.29496e-05
-2.7782e-05
-1.32311e-05
-2.83587e-05
-1.32207e-05
-2.87115e-05
-1.2988e-05
-2.89277e-05
-1.25864e-05
-2.90839e-05
-1.20467e-05
-2.92411e-05
-1.13744e-05
-2.94424e-05
-1.05454e-05
-2.97072e-05
-9.4997e-06
-3.00162e-05
-8.13522e-06
-3.02839e-05
-6.31063e-06
-3.03305e-05
-3.87196e-06
-2.98828e-05
-7.1585e-07
-2.86367e-05
3.12147e-06
-2.63803e-05
7.39066e-06
1.15958e-05
-2.31496e-05
-3.98488e-06
1.37576e-05
-7.34542e-06
4.43292e-06
-1.04199e-05
-8.514e-07
-1.33443e-05
-4.30183e-06
-1.58912e-05
-7.00177e-06
-1.80241e-05
-9.06278e-06
-1.97591e-05
-1.05634e-05
-2.11368e-05
-1.1572e-05
-2.2208e-05
-1.21601e-05
-2.30292e-05
-1.23996e-05
-2.36598e-05
-1.23573e-05
-2.41578e-05
-1.20882e-05
-2.45747e-05
-1.16297e-05
-2.49513e-05
-1.09978e-05
-2.53131e-05
-1.01836e-05
-2.56634e-05
-9.14945e-06
-2.59707e-05
-7.82793e-06
-2.61529e-05
-6.1284e-06
-2.60658e-05
-3.959e-06
-2.55131e-05
-1.26853e-06
-2.42924e-05
1.90081e-06
-2.22733e-05
5.37157e-06
8.80874e-06
-1.94862e-05
-1.94525e-06
1.57026e-05
-3.83349e-06
6.32091e-06
-5.79723e-06
1.11216e-06
-8.0371e-06
-2.06205e-06
-1.01813e-05
-4.8575e-06
-1.20928e-05
-7.15124e-06
-1.37449e-05
-8.91126e-06
-1.51455e-05
-1.01715e-05
-1.63175e-05
-1.09882e-05
-1.72912e-05
-1.14258e-05
-1.81013e-05
-1.15472e-05
-1.87827e-05
-1.14067e-05
-1.93674e-05
-1.10449e-05
-1.98803e-05
-1.04849e-05
-2.03343e-05
-9.72948e-06
-2.07239e-05
-8.75984e-06
-2.10156e-05
-7.53607e-06
-2.11398e-05
-6.00414e-06
-2.09868e-05
-4.11205e-06
-2.04184e-05
-1.83687e-06
-1.93013e-05
7.83699e-07
-1.75562e-05
3.62646e-06
6.46448e-06
-1.52118e-05
8.32071e-07
1.48706e-05
3.08861e-08
7.12214e-06
-1.34401e-06
2.48686e-06
-2.98385e-06
-4.21865e-07
-4.71693e-06
-3.12447e-06
-6.37579e-06
-5.49237e-06
-7.89823e-06
-7.3888e-06
-9.2622e-06
-8.8075e-06
-1.04645e-05
-9.78582e-06
-1.15128e-05
-1.03775e-05
-1.24209e-05
-1.06391e-05
-1.32058e-05
-1.06218e-05
-1.38844e-05
-1.03663e-05
-1.44698e-05
-9.89952e-06
-1.49663e-05
-9.23286e-06
-1.53647e-05
-8.36144e-06
-1.56351e-05
-7.26559e-06
-1.57229e-05
-5.91638e-06
-1.55482e-05
-4.28672e-06
-1.50167e-05
-2.36843e-06
-1.40419e-05
-1.91041e-07
-1.25777e-05
2.16241e-06
4.54008e-06
-1.06533e-05
3.85143e-06
1.10191e-05
3.8213e-06
7.15227e-06
2.77164e-06
3.53638e-06
1.55126e-06
7.98717e-07
2.01976e-07
-1.77534e-06
-1.18614e-06
-4.10421e-06
-2.53788e-06
-6.03705e-06
-3.80994e-06
-7.53544e-06
-4.9784e-06
-8.61731e-06
-6.03207e-06
-9.32379e-06
-6.96834e-06
-9.70287e-06
-7.79009e-06
-9.8001e-06
-8.50267e-06
-9.65375e-06
-9.11032e-06
-9.2919e-06
-9.61214e-06
-8.73103e-06
-9.99778e-06
-7.97575e-06
-1.02432e-05
-7.02013e-06
-1.0308e-05
-5.85154e-06
-1.01367e-05
-4.458e-06
-9.66662e-06
-2.83838e-06
-8.84385e-06
-1.01373e-06
-7.64391e-06
9.62518e-07
2.99161e-06
-6.09548e-06
5.15192e-06
5.867e-06
6.27889e-06
6.02512e-06
5.91066e-06
3.90472e-06
5.1697e-06
1.53959e-06
4.22888e-06
-8.34511e-07
3.15796e-06
-3.03314e-06
2.03457e-06
-4.91361e-06
9.1848e-07
-6.41936e-06
-1.48913e-07
-7.54992e-06
-1.14062e-06
-8.33213e-06
-2.04048e-06
-8.8031e-06
-2.83992e-06
-9.00069e-06
-3.53502e-06
-8.95862e-06
-4.12326e-06
-8.70366e-06
-4.6e-06
-8.25427e-06
-4.95517e-06
-7.62052e-06
-5.17035e-06
-6.80487e-06
-5.21716e-06
-5.80466e-06
-5.05862e-06
-4.61644e-06
-4.65497e-06
-3.24194e-06
-3.97408e-06
-1.69457e-06
-3.00529e-06
-6.28884e-09
1.76174e-06
-1.7755e-06
4.38419e-06
1.48277e-06
6.65828e-06
3.75091e-06
7.3934e-06
3.16976e-06
7.40946e-06
1.52334e-06
7.02008e-06
-4.44953e-07
6.36959e-06
-2.3825e-06
5.56449e-06
-4.10852e-06
4.68662e-06
-5.54159e-06
3.79629e-06
-6.65971e-06
2.93622e-06
-7.47218e-06
2.13551e-06
-8.00249e-06
1.41334e-06
-8.27855e-06
7.81993e-07
-8.32727e-06
2.50005e-07
-8.17169e-06
-1.74788e-07
-7.82953e-06
-4.82548e-07
-7.31279e-06
-6.59243e-07
-6.62819e-06
-6.85556e-07
-5.77836e-06
-5.37863e-07
-4.76414e-06
-1.92096e-07
-3.58771e-06
3.69462e-07
-2.25614e-06
1.14917e-06
-7.86022e-07
7.87867e-07
2.12301e-06
3.13705e-06
-1.6543e-06
5.77971e-06
1.10824e-06
7.39702e-06
1.55238e-06
8.21974e-06
7.00492e-07
8.47438e-06
-6.99455e-07
8.33292e-06
-2.24103e-06
7.92934e-06
-3.70506e-06
7.36757e-06
-4.98001e-06
6.72612e-06
-6.01846e-06
6.06276e-06
-6.80897e-06
5.41894e-06
-7.35879e-06
4.82382e-06
-7.68351e-06
4.29762e-06
-7.80115e-06
3.85463e-06
-7.72884e-06
3.50606e-06
-7.48112e-06
3.26233e-06
-7.06919e-06
3.13483e-06
-6.50078e-06
3.13685e-06
-5.78045e-06
3.28312e-06
-4.91047e-06
3.58745e-06
-3.89209e-06
4.05859e-06
-2.72733e-06
4.69438e-06
-1.42184e-06
7.75249e-09
5.4745e-06
2.25473e-06
-3.90906e-06
4.71576e-06
-1.35281e-06
6.69572e-06
-4.27743e-07
8.05322e-06
-6.57015e-07
8.84579e-06
-1.49201e-06
9.18893e-06
-2.58425e-06
9.20203e-06
-3.71832e-06
8.99034e-06
-4.7685e-06
8.63954e-06
-5.66778e-06
8.2162e-06
-6.38572e-06
7.77053e-06
-6.9132e-06
7.33957e-06
-7.25264e-06
6.95023e-06
-7.41192e-06
6.62205e-06
-7.40081e-06
6.36969e-06
-7.22888e-06
6.20484e-06
-6.90442e-06
6.13785e-06
-6.43381e-06
6.17857e-06
-5.82118e-06
6.33635e-06
-5.06827e-06
6.61886e-06
-4.17464e-06
7.0297e-06
-3.13822e-06
7.56487e-06
-1.95704e-06
-6.35354e-07
8.20798e-06
1.76985e-06
-5.6789e-06
3.9072e-06
-3.49024e-06
5.8726e-06
-2.3932e-06
7.43742e-06
-2.22181e-06
8.5497e-06
-2.60436e-06
9.24912e-06
-3.28375e-06
9.61221e-06
-4.08151e-06
9.72282e-06
-4.87918e-06
9.6581e-06
-5.60307e-06
9.48318e-06
-6.21078e-06
9.25042e-06
-6.68044e-06
9.00058e-06
-7.00284e-06
8.76466e-06
-7.1761e-06
8.56597e-06
-7.20222e-06
8.42198e-06
-7.08494e-06
8.34593e-06
-6.82836e-06
8.34817e-06
-6.43599e-06
8.43695e-06
-5.90992e-06
8.61884e-06
-5.25014e-06
8.89821e-06
-4.45404e-06
9.27613e-06
-3.5162e-06
9.74838e-06
-2.42933e-06
-1.1895e-06
1.03025e-05
1.5249e-06
-7.20385e-06
3.3608e-06
-5.3262e-06
5.15083e-06
-4.1833e-06
6.70432e-06
-3.77544e-06
7.93581e-06
-3.836e-06
8.83581e-06
-4.18386e-06
9.43883e-06
-4.68461e-06
9.79915e-06
-5.23952e-06
9.97559e-06
-5.77948e-06
1.00233e-05
-6.25848e-06
9.99029e-06
-6.64739e-06
9.91613e-06
-6.92872e-06
9.8326e-06
-7.09264e-06
9.76455e-06
-7.13422e-06
9.73102e-06
-7.05141e-06
9.74639e-06
-6.84368e-06
9.82138e-06
-6.51091e-06
9.96379e-06
-6.05229e-06
1.0179e-05
-5.46536e-06
1.04699e-05
-4.74505e-06
1.08368e-05
-3.88318e-06
1.12762e-05
-2.86877e-06
-1.69256e-06
1.17792e-05
1.37415e-06
-8.57812e-06
2.9603e-06
-6.91236e-06
4.54088e-06
-5.76408e-06
5.98269e-06
-5.21748e-06
7.20627e-06
-5.05975e-06
8.18227e-06
-5.16001e-06
8.918e-06
-5.42043e-06
9.44271e-06
-5.76425e-06
9.79585e-06
-6.13261e-06
1.00193e-05
-6.48189e-06
1.01525e-05
-6.78068e-06
1.02307e-05
-7.0069e-06
1.02833e-05
-7.14529e-06
1.03346e-05
-7.18547e-06
1.04036e-05
-7.12041e-06
1.05052e-05
-6.94521e-06
1.06503e-05
-6.65596e-06
1.08467e-05
-6.24869e-06
1.10994e-05
-5.71817e-06
1.14112e-05
-5.05691e-06
1.17822e-05
-4.25433e-06
1.22103e-05
-3.29691e-06
-2.17204e-06
1.26897e-05
1.23913e-06
-9.81728e-06
2.61494e-06
-8.28818e-06
3.99871e-06
-7.14804e-06
5.29846e-06
-6.51733e-06
6.45094e-06
-6.21227e-06
7.42376e-06
-6.13293e-06
8.21097e-06
-6.2077e-06
8.82533e-06
-6.37862e-06
9.29093e-06
-6.5982e-06
9.63715e-06
-6.82815e-06
9.89448e-06
-7.03807e-06
1.00918e-05
-7.20421e-06
1.02547e-05
-7.30822e-06
1.04052e-05
-7.33595e-06
1.05614e-05
-7.27651e-06
1.07375e-05
-7.12126e-06
1.09445e-05
-6.86288e-06
1.11901e-05
-6.49433e-06
1.14795e-05
-6.00769e-06
1.18156e-05
-5.39313e-06
1.21993e-05
-4.63809e-06
1.26295e-05
-3.72722e-06
-2.64591e-06
1.31033e-05
1.09337e-06
-1.09105e-05
2.28348e-06
-9.47836e-06
3.49152e-06
-8.35604e-06
4.64797e-06
-7.67361e-06
5.7037e-06
-7.26793e-06
6.62968e-06
-7.05891e-06
7.41498e-06
-6.99296e-06
8.06308e-06
-7.02667e-06
8.58767e-06
-7.12279e-06
9.00853e-06
-7.24906e-06
9.34813e-06
-7.37776e-06
9.62921e-06
-7.48535e-06
9.87308e-06
-7.55209e-06
1.00987e-05
-7.56155e-06
1.03223e-05
-7.50007e-06
1.05572e-05
-7.35612e-06
1.08138e-05
-7.11951e-06
1.10999e-05
-6.7805e-06
1.14209e-05
-6.32876e-06
1.17801e-05
-5.75238e-06
1.2179e-05
-5.03712e-06
1.2618e-05
-4.16632e-06
-3.12418e-06
1.30962e-05
9.36897e-07
-1.18474e-05
1.95723e-06
-1.04987e-05
3.00689e-06
-9.40544e-06
4.02702e-06
-8.69344e-06
4.97801e-06
-8.21882e-06
5.83497e-06
-7.91581e-06
6.58576e-06
-7.74364e-06
7.22917e-06
-7.66999e-06
7.77251e-06
-7.66612e-06
8.22885e-06
-7.70548e-06
8.61449e-06
-7.76351e-06
8.94692e-06
-7.81786e-06
9.2433e-06
-7.84852e-06
9.51956e-06
-7.83784e-06
9.78983e-06
-7.77037e-06
1.00661e-05
-7.63244e-06
1.03581e-05
-7.41163e-06
1.06736e-05
-7.09603e-06
1.1018e-05
-6.67327e-06
1.13952e-05
-6.12968e-06
1.18075e-05
-5.44962e-06
1.22566e-05
-4.61547e-06
-3.61058e-06
1.27428e-05
7.78165e-07
-1.26256e-05
1.64082e-06
-1.13613e-05
2.54473e-06
-1.0309e-05
3.43625e-06
-9.58476e-06
4.2815e-06
-9.06404e-06
5.0586e-06
-8.69284e-06
5.75549e-06
-8.44041e-06
6.36878e-06
-8.28319e-06
6.90213e-06
-8.19945e-06
7.36421e-06
-8.16759e-06
7.7668e-06
-8.16617e-06
8.12324e-06
-8.17436e-06
8.44716e-06
-8.1725e-06
8.75169e-06
-8.14244e-06
9.04889e-06
-8.06764e-06
9.34937e-06
-7.93302e-06
9.66217e-06
-7.72456e-06
9.99467e-06
-7.42867e-06
1.03526e-05
-7.03138e-06
1.07404e-05
-6.51761e-06
1.11612e-05
-5.87059e-06
1.16175e-05
-5.07195e-06
-4.1043e-06
1.2111e-05
6.25821e-07
-1.32515e-05
1.34129e-06
-1.20764e-05
2.10905e-06
-1.10765e-05
2.87891e-06
-1.03546e-05
3.62e-06
-9.80516e-06
4.31211e-06
-9.38487e-06
4.94356e-06
-9.07175e-06
5.51014e-06
-8.84969e-06
6.01352e-06
-8.70277e-06
6.45955e-06
-8.6136e-06
6.85683e-06
-8.56345e-06
7.2155e-06
-8.53302e-06
7.54628e-06
-8.5033e-06
7.85988e-06
-8.45609e-06
8.16647e-06
-8.37432e-06
8.47538e-06
-8.24205e-06
8.79489e-06
-8.04421e-06
9.1321e-06
-7.76603e-06
9.49298e-06
-7.39242e-06
9.88244e-06
-6.90723e-06
1.03045e-05
-6.29283e-06
1.07626e-05
-5.53024e-06
-4.60131e-06
1.12594e-05
4.85584e-07
-1.3737e-05
1.06338e-06
-1.26538e-05
1.70327e-06
-1.17162e-05
2.35812e-06
-1.10095e-05
2.99799e-06
-1.0445e-05
3.60317e-06
-9.98993e-06
4.16249e-06
-9.63096e-06
4.67168e-06
-9.35879e-06
5.13142e-06
-9.16244e-06
5.54584e-06
-9.02793e-06
5.92126e-06
-8.93878e-06
6.26534e-06
-8.87704e-06
6.58647e-06
-8.82442e-06
6.8933e-06
-8.76294e-06
7.19435e-06
-8.67542e-06
7.49774e-06
-8.54553e-06
7.81103e-06
-8.3576e-06
8.1411e-06
-8.09621e-06
8.49409e-06
-7.74555e-06
8.8755e-06
-7.28879e-06
9.29024e-06
-6.70772e-06
9.74278e-06
-5.98292e-06
-5.09542e-06
1.02368e-05
3.59725e-07
-1.40964e-05
8.0735e-07
-1.3101e-05
1.32787e-06
-1.22367e-05
1.87556e-06
-1.15572e-05
2.41875e-06
-1.0988e-05
2.93745e-06
-1.05085e-05
3.42125e-06
-1.01147e-05
3.86642e-06
-9.80389e-06
4.27344e-06
-9.56937e-06
4.64532e-06
-9.39972e-06
4.98677e-06
-9.28013e-06
5.30356e-06
-9.19375e-06
5.60214e-06
-9.12297e-06
5.88942e-06
-9.05022e-06
6.17245e-06
-8.95848e-06
6.45827e-06
-8.8314e-06
6.75376e-06
-8.65315e-06
7.06554e-06
-8.40806e-06
7.39995e-06
-8.08004e-06
7.76309e-06
-7.652e-06
8.16081e-06
-7.10553e-06
8.5988e-06
-6.42098e-06
-5.57864e-06
9.08196e-06
2.44299e-07
-1.43404e-05
5.66966e-07
-1.34235e-05
9.79977e-07
-1.26497e-05
1.43176e-06
-1.20088e-05
1.88528e-06
-1.14414e-05
2.32007e-06
-1.09431e-05
2.72733e-06
-1.05219e-05
3.10474e-06
-1.01812e-05
3.45313e-06
-9.91769e-06
3.77498e-06
-9.7215e-06
4.07376e-06
-9.57886e-06
4.35374e-06
-9.4737e-06
4.61979e-06
-9.38901e-06
4.8773e-06
-9.30773e-06
5.13203e-06
-9.21323e-06