/*--------------------------------*- C++ -*----------------------------------*\
| =========                 |                                                 |
| \\      /  F ield         | OpenFOAM: The Open Source CFD Toolbox           |
|  \\    /   O peration     | Version:  2.3.0                                 |
|   \\  /    A nd           | Web:      www.OpenFOAM.org                      |
|    \\/     M anipulation  |                                                 |
\*---------------------------------------------------------------------------*/
FoamFile
{
    version     2.0;
    format      ascii;
    class       volScalarField;
    location    "2.95";
    object      alpha.water;
}
// * * * * * * * * * * * * * * * * * * * * * * * * * * * * * * * * * * * * * //

dimensions      [0 0 0 0 0 0 0];

internalField   nonuniform List<scalar> 
2268
(
0.995012
0.995004
0.996568
0.995849
0.994246
0.993263
0.992832
0.993059
0.999487
0.999901
0.99984
0.996825
0.989815
0.978348
0.967659
0.97366
0.985115
0.998672
0.999826
0.999826
0.999826
0.999824
0.999807
0.927644
0.996662
0.999985
0.999984
0.999984
0.999984
0.999666
0.999362
0.999806
0.999901
0.999901
0.999901
0.999443
0.992028
0.969561
0.959113
0.959113
0.963785
0.99521
0.999826
0.999826
0.999826
0.999826
0.8928
0.996506
0.999985
0.999985
0.999985
0.999984
0.999933
0.999882
0.9999
0.999901
0.999833
0.999883
0.999872
0.999681
0.999437
0.999084
0.968334
0.962011
0.974757
0.998929
0.999825
0.999826
0.999826
0.8928
0.904736
0.97905
0.990585
0.987526
0.984259
0.986014
0.991452
0.996563
0.999781
0.999831
0.999618
0.995103
0.98567
0.987672
0.995032
0.995516
0.962877
0.962795
0.99018
0.999819
0.999826
0.999826
0.913544
0.898793
0.898771
0.898775
0.899444
0.904349
0.912563
0.937156
0.978024
0.999747
0.998226
0.988496
0.981799
0.981799
0.981799
0.987608
0.996075
0.971312
0.962771
0.976849
0.999346
0.999826
0.999826
0.985817
0.910194
0.930643
0.941512
0.947562
0.961706
0.972826
0.970039
0.979261
0.995015
0.98383
0.982243
0.981958
0.981807
0.982914
0.988293
0.999457
0.990596
0.962899
0.963688
0.995323
0.999822
0.999825
0.997563
0.99295
0.997241
0.997577
0.997575
0.997575
0.997575
0.997575
0.997573
0.987657
0.988529
0.988801
0.991402
0.997257
0.999864
0.999868
0.999867
0.999867
0.973735
0.964388
0.967571
0.997494
0.999822
0.997563
0.997569
0.997577
0.997575
0.997575
0.997575
0.997575
0.997574
0.997709
0.998018
0.998465
0.998828
0.99921
0.999586
0.999826
0.999864
0.999868
0.999864
0.997594
0.965086
0.965528
0.983613
0.999732
0.936695
0.955786
0.999253
0.999253
0.998761
0.998479
0.998473
0.998488
0.998415
0.998414
0.998414
0.999098
0.999106
0.999106
0.956288
0.942163
0.941937
0.925958
0.880681
0.936695
0.964384
0.999254
0.999254
0.999255
0.999255
0.999253
0.999226
0.999195
0.999065
0.999104
0.999106
0.999106
0.999106
0.9646
0.879744
0.879512
0.87783
0.877828
0.936768
0.947629
0.999253
0.999254
0.999254
0.999254
0.999037
0.997179
0.998052
0.997583
0.997423
0.999104
0.999106
0.999106
0.984607
0.884749
0.87783
0.877828
0.878598
0.936841
0.954416
0.999253
0.999254
0.999254
0.999185
0.99662
0.996615
0.997137
0.998458
0.984552
0.958507
0.987521
0.999106
0.998559
0.982029
0.918705
0.87783
0.967924
0.93979
0.977482
0.983226
0.999255
0.999255
0.997484
0.996615
0.997219
0.998455
0.998455
0.970551
0.946413
0.967737
0.998518
0.998412
0.998443
0.998412
0.878213
0.973975
0.97969
0.990363
0.955698
0.993606
0.998995
0.997657
0.996731
0.998329
0.998442
0.998457
0.994705
0.946093
0.946413
0.986821
0.998443
0.998467
0.998469
0.927152
0.9739
0.991951
0.995312
0.955907
0.986858
0.999087
0.999087
0.999087
0.998244
0.998364
0.998433
0.976928
0.946188
0.95835
0.990567
0.998467
0.99847
0.998469
0.986279
0.984339
0.998053
0.997451
0.985166
0.995627
0.999087
0.999087
0.999087
0.998313
0.962725
0.976008
0.961062
0.980408
0.99799
0.998463
0.99847
0.998471
0.986252
0.986042
0.985531
0.997563
0.997554
0.997578
0.997577
0.997575
0.997575
0.994558
0.984941
0.982141
0.983441
0.987491
0.99536
0.998773
0.99921
0.999599
0.999788
0.999854
0.99986
0.999723
0.995849
0.983838
0.983724
0.99646
0.761416
0.796258
0.746544
0.662869
0.587724
0.506399
0.430728
0.383578
0.370613
0.385374
0.419517
0.491002
0.603364
0.726624
0.852735
0.961313
0.999092
0.999726
0.999647
0.998471
0.998066
0.998216
0.998309
0.178998
0.119954
0.069737
0.034624
0.0144507
0.00331686
0.000260027
0.000193613
0.000188401
0.000201265
0.000243386
0.000288626
0.000297347
0.000300982
0.00929926
0.262645
0.591701
0.710321
0.846956
0.96435
0.99501
0.998329
0.999462
0.000135974
0.00013468
0.000123088
0.000109884
0.000100828
9.34654e-05
9.978e-05
0.000305861
0.000464827
0.000839043
0.0013776
0.00139275
0.000519297
0.000300574
0.000341473
0.000673947
0.00370359
0.00115367
0.052794
0.307996
0.509621
0.587433
0.602007
0.000138197
0.000285746
0.0002871
0.000102197
9.05657e-05
9.13331e-05
9.36707e-05
0.000453247
0.00136341
0.0013728
0.00138733
0.00139214
0.00139104
0.00131015
0.000621459
0.000760314
0.000883022
0.00110116
0.000566426
0.000340271
0.000266994
0.0063507
0.0112988
0.000220512
0.000496257
0.000496078
0.000363686
9.05657e-05
9.04086e-05
9.09146e-05
0.000121497
0.000444072
0.00112938
0.00136876
0.00138915
0.00139162
0.00134563
0.00129892
0.00129449
0.00133616
0.00133958
0.000747391
0.000266805
0.000175507
5.7773e-05
2.68675e-05
0.000262839
0.000496205
0.000496158
0.000160266
9.04164e-05
9.13331e-05
0.000511073
0.00049825
8.94067e-05
6.03827e-05
6.10159e-05
0.000245223
0.000503159
0.000455751
0.000359201
0.000474047
0.00130882
0.00133199
0.00131706
0.00108908
0.00019444
2.52475e-05
1.72165e-05
0.000231232
0.000493109
0.000490056
0.000113223
9.15796e-05
0.000211974
0.000724858
0.000724858
0.000162901
3.55582e-05
1.94592e-05
1.00665e-05
8.9505e-06
9.65143e-06
9.61803e-06
9.82472e-06
1.00323e-05
0.000353021
0.00126721
0.00116089
0.000367622
1.77057e-05
1.15727e-05
0.00026399
0.000232452
0.000103446
9.52848e-05
9.39601e-05
0.000422756
0.000719273
0.000725115
0.00014999
0.000226573
0.000234733
3.44765e-05
7.18242e-06
8.95483e-06
1.42226e-05
2.17618e-05
1.94034e-05
1.42438e-05
0.000385709
0.000768589
0.000289353
1.15727e-05
9.49557e-06
0.000313769
0.00023706
0.000319726
0.000100602
9.52839e-05
0.000195639
0.000713379
0.000250273
9.21815e-05
0.00026106
0.00026106
4.70732e-05
6.06824e-06
1.30981e-05
7.16884e-05
7.16884e-05
6.90438e-05
9.10571e-06
7.20417e-06
3.83514e-05
7.45679e-05
1.1831e-05
9.63248e-06
0.000310539
0.00063872
0.000825338
0.000382687
9.66713e-05
9.80633e-05
0.000646481
0.000144274
8.14217e-05
0.000241621
6.64587e-05
6.06824e-06
5.57317e-06
1.83838e-05
6.66632e-05
7.16884e-05
6.82455e-05
6.84085e-06
4.24573e-06
5.89581e-06
4.45366e-06
4.64197e-06
1.00959e-05
0.00022549
0.000825338
0.000825338
0.000807448
0.000105694
9.53316e-05
9.34693e-05
0.000384219
8.13467e-05
2.01959e-05
1.11152e-05
6.32306e-06
5.07809e-06
4.41969e-06
6.60522e-06
2.2757e-05
2.18496e-05
3.77762e-06
3.66773e-06
4.19337e-06
4.30672e-06
3.92822e-06
7.24202e-06
7.43066e-05
0.000758076
0.000825338
0.000821767
0.000311643
9.29815e-05
9.34693e-05
0.000505458
0.000355166
0.000135768
7.45948e-05
1.74616e-05
4.7794e-06
3.63863e-06
3.59666e-06
3.5984e-06
3.6e-06
3.59856e-06
3.50991e-06
3.69086e-06
3.88915e-06
3.87313e-06
3.94998e-06
4.1636e-05
0.000297576
0.000827589
0.000825366
0.000684224
9.47676e-05
9.28727e-05
0.000511328
0.000511766
0.000511971
0.00050808
0.000297286
5.0563e-05
3.99181e-06
3.64712e-06
3.6e-06
3.62877e-06
3.93455e-06
3.4372e-06
3.53487e-06
3.68943e-06
3.81309e-06
3.88112e-06
4.1636e-05
0.000472642
0.000832427
0.00033974
0.000431046
0.000269469
9.35914e-05
0.000475514
0.000512384
0.000511143
0.00050925
0.000506063
0.000381327
6.66146e-05
4.01214e-06
3.64873e-06
3.49008e-06
3.75588e-06
3.36547e-06
3.4312e-06
3.54113e-06
3.68902e-06
4.16246e-06
0.00045938
0.000820134
0.000154652
1.26085e-06
1.75943e-05
0.000444242
0.00018702
0.000208815
0.00048839
0.00050925
0.000466258
0.000406491
0.000409699
0.000361441
2.52273e-05
3.94736e-06
3.28678e-06
3.29894e-06
3.30364e-06
4.8331e-06
7.18272e-06
1.10707e-05
1.54676e-05
0.000897961
0.000807338
1.73445e-05
4.49604e-07
5.08165e-07
0.000461497
0.000465234
0.000203498
5.04252e-05
0.000114144
2.45138e-05
2.43405e-05
9.55896e-05
0.000252152
0.000219484
6.07445e-05
4.90567e-05
3.30364e-06
3.29677e-06
3.30364e-06
4.05089e-06
5.53072e-06
6.26492e-06
0.000897961
3.18195e-05
3.2651e-07
3.84063e-07
4.49604e-07
0.00023859
0.00046616
0.000390522
3.56536e-05
2.45148e-05
2.43431e-05
2.42488e-05
2.42359e-05
2.42488e-05
5.82503e-05
0.00074459
0.000797453
0.000146776
3.30331e-06
3.44744e-06
3.69596e-06
3.67143e-06
3.51972e-06
0.000782188
7.53834e-07
3.02959e-07
3.42627e-07
4.54892e-07
1.70203e-05
0.000464217
0.000462089
0.00021602
2.58064e-05
2.45137e-05
2.43419e-05
2.42488e-05
2.42343e-05
2.82754e-05
0.000879988
0.000877721
0.000849379
9.38554e-05
3.47633e-06
3.69865e-06
3.55049e-06
3.49939e-06
1.04379e-05
2.19601e-07
2.9728e-07
6.49207e-06
5.84069e-06
1.54568e-05
0.000258066
0.000460788
0.000392044
0.000102567
4.03432e-05
5.08469e-05
2.48495e-05
2.1987e-05
0.000283937
0.000882336
0.000879684
0.000879525
0.000879525
0.000333444
4.31609e-06
3.38753e-06
3.5396e-06
3.18372e-07
2.23625e-07
6.87517e-08
1.06169e-05
5.05336e-05
4.34069e-05
9.54553e-06
5.56789e-05
0.000117804
0.000168731
0.000168731
0.000154395
5.28157e-05
2.13326e-05
9.38612e-05
0.000784906
0.000879473
0.000879651
0.000879422
0.000879406
0.000850995
0.000339485
4.34618e-06
7.33083e-05
2.18773e-06
3.11461e-08
6.81297e-06
5.58502e-05
5.57976e-05
8.42289e-06
8.96127e-09
8.9648e-09
2.11009e-05
1.63086e-05
1.51089e-05
5.10153e-05
5.08281e-06
5.03532e-06
0.000183265
0.000828749
0.000861808
0.000878099
0.000876972
0.000874285
0.000341726
3.79522e-05
0.000381188
4.84209e-06
2.7865e-08
5.51232e-07
2.79964e-05
5.58512e-05
4.90835e-05
5.07473e-06
8.96106e-09
8.97578e-09
9.21253e-09
1.34286e-08
9.17643e-08
1.93479e-06
3.97811e-06
4.14147e-05
0.000138226
9.82897e-05
0.000186755
0.000381034
0.000526993
0.000181863
6.89704e-05
0.000381188
1.13817e-06
2.6285e-08
1.9825e-08
2.66402e-08
4.70637e-05
4.76131e-05
9.34451e-06
8.97578e-09
9.10166e-09
1.07544e-08
1.4636e-07
9.00954e-06
5.13781e-05
4.49788e-05
2.77612e-05
2.07245e-05
6.83387e-05
0.000977989
0.00130555
0.00130405
0.00123132
0.000858543
0.000380626
2.47018e-08
2.26361e-08
1.93606e-08
1.5193e-08
1.15057e-08
1.44746e-05
6.00885e-08
9.1015e-09
9.66906e-09
1.51657e-08
4.4828e-07
6.87089e-05
0.000132667
0.000132493
2.59365e-05
9.62192e-06
0.000266222
0.00119758
0.00130716
0.00130394
0.00129897
0.00129587
0.000207485
2.68864e-08
6.26839e-08
1.57393e-08
1.16841e-08
1.16774e-08
1.12826e-08
1.32022e-08
1.10469e-08
1.12298e-08
1.68307e-08
1.57217e-06
9.66332e-05
0.000132685
0.000132621
8.2091e-05
5.74858e-06
4.73764e-05
1.05559e-05
8.40825e-05
0.000927283
0.00129587
0.00107739
1.56651e-09
3.78625e-08
8.9439e-08
1.86192e-08
2.17308e-08
1.12834e-08
1.07113e-08
3.90068e-08
3.67128e-08
6.44212e-09
1.2549e-08
1.81102e-07
6.17404e-05
0.000132621
0.000104591
7.89307e-07
7.91786e-07
9.0271e-07
1.50185e-06
6.21376e-05
0.000226187
0.000263489
9.61004e-05
1.25605e-09
5.35196e-08
8.70056e-08
4.6887e-07
6.9489e-07
1.03309e-08
9.93733e-09
4.00597e-08
3.39673e-08
2.80846e-09
6.06765e-09
5.43721e-08
1.69069e-05
0.000131247
8.13261e-05
7.65624e-07
7.5426e-07
7.49691e-07
2.02434e-06
3.90301e-06
3.0558e-06
8.35922e-07
1.26598e-06
1.1522e-09
4.45265e-08
1.00951e-07
1.0269e-06
1.02932e-06
1.49696e-07
3.03264e-10
8.91425e-09
9.49286e-10
1.02339e-09
2.22095e-09
3.06679e-08
8.28694e-06
9.29997e-05
8.82798e-05
7.54163e-07
7.40749e-07
7.13632e-07
6.91387e-07
6.01822e-07
5.11651e-07
6.45737e-07
9.15132e-07
1.01903e-09
5.65567e-09
6.84913e-08
1.02934e-06
1.02932e-06
8.14918e-07
2.94903e-10
4.18797e-10
8.67303e-10
6.07544e-10
1.49921e-09
1.82356e-08
4.31799e-06
7.79376e-05
8.89545e-05
7.71964e-07
7.54264e-07
2.02071e-06
4.09311e-06
5.17932e-07
4.95318e-07
5.03957e-07
1.04029e-06
7.1865e-10
4.85027e-10
1.12152e-09
4.09101e-07
1.02932e-06
9.03669e-07
2.20459e-10
3.84881e-09
2.83686e-09
3.07285e-10
5.57071e-10
5.29097e-09
8.42849e-08
3.38476e-05
8.20646e-05
8.16367e-07
8.53969e-07
6.29001e-06
8.74109e-06
6.00997e-06
4.27384e-07
3.36355e-07
1.67809e-06
2.20428e-10
4.75121e-10
1.94434e-10
5.09132e-08
8.67191e-07
1.01063e-07
1.62548e-10
3.75134e-09
2.99756e-09
2.11569e-10
3.02561e-10
1.62347e-09
2.56207e-08
8.11785e-06
5.42492e-05
2.64202e-05
1.17399e-06
5.85097e-06
8.74109e-06
8.74109e-06
2.39603e-06
2.5312e-07
1.56867e-06
3.12888e-11
5.42485e-10
1.65514e-10
7.5618e-09
6.59043e-14
4.69123e-13
1.58e-10
9.04298e-10
7.88038e-10
1.37664e-10
2.04294e-10
1.1435e-09
2.05102e-08
5.79343e-06
7.85476e-05
9.01301e-05
1.13301e-06
3.17296e-06
8.74109e-06
7.56459e-06
1.35398e-07
2.14853e-07
1.12179e-06
7.47788e-12
1.81329e-10
3.55427e-12
2.3102e-14
6.58864e-14
1.75768e-12
1.07278e-11
3.27168e-11
7.42041e-11
6.45325e-11
1.22388e-10
1.15817e-09
1.84518e-08
5.0352e-06
8.94497e-05
0.000110417
5.24418e-07
3.37755e-07
2.525e-06
1.35529e-06
1.15884e-07
9.99946e-08
4.33679e-08
1.09872e-14
1.44689e-13
3.41606e-13
3.42563e-14
1.18435e-13
8.86382e-13
3.06155e-12
2.651e-12
4.28869e-12
8.9394e-12
4.80824e-11
7.43496e-10
1.26171e-08
2.34749e-06
8.1281e-05
0.000113073
3.21847e-05
2.37277e-07
1.99508e-07
1.55772e-07
1.37935e-07
1.18451e-07
9.74549e-07
8.40139e-15
1.48533e-13
3.27921e-13
4.17217e-14
1.22618e-14
1.18505e-13
4.84913e-13
1.43074e-12
4.46511e-12
7.59863e-12
3.63724e-11
4.15197e-10
7.29464e-09
1.93807e-07
5.66749e-05
0.00011355
0.000102777
2.22605e-07
2.10345e-07
1.87248e-07
1.56013e-07
7.46062e-07
2.34911e-06
3.34603e-15
6.26375e-14
1.88869e-13
4.37975e-14
-4.94437e-15
5.71974e-15
1.16846e-13
6.67958e-13
3.32588e-12
5.01923e-12
1.65848e-11
1.92961e-10
3.56813e-09
5.88497e-08
2.73085e-05
0.000113441
0.000112907
4.01508e-06
2.14886e-07
2.10345e-07
1.94405e-07
2.59199e-07
1.53986e-06
1.11894e-15
2.42722e-14
9.61462e-14
3.53605e-14
-2.46453e-15
-1.76814e-15
3.24442e-14
2.63276e-13
1.68123e-12
4.08639e-12
9.50111e-12
5.95715e-11
1.01733e-09
1.88962e-08
6.59007e-06
5.16438e-05
4.56584e-05
9.01084e-05
0.000145962
5.22518e-05
2.25242e-07
2.33855e-07
6.08409e-07
2.58503e-16
6.98898e-15
3.59999e-14
2.06921e-14
-2.18465e-16
5.72373e-16
7.36418e-15
7.87827e-14
7.02258e-13
4.78786e-12
5.58007e-12
2.01878e-11
2.13474e-10
4.0436e-09
6.38072e-08
1.53672e-05
4.21001e-05
0.000131023
0.000382313
0.000318812
2.34255e-07
2.65252e-07
5.56773e-06
3.50682e-17
1.33835e-15
9.70752e-15
8.00505e-15
-5.77797e-17
4.17417e-17
7.84569e-16
1.32164e-14
1.93162e-13
2.17959e-12
3.35448e-12
1.43203e-11
2.20163e-10
5.63145e-09
3.00344e-07
6.37756e-05
0.000123775
0.000138792
0.000381839
0.000382454
0.000110203
5.66938e-07
2.16999e-06
1.99429e-18
1.30747e-16
1.44323e-15
1.6321e-15
1.46201e-20
4.90813e-19
1.43676e-17
3.96109e-16
1.0575e-14
2.52542e-13
2.90181e-12
2.98193e-12
4.59827e-11
1.84701e-09
8.70749e-08
5.68822e-05
0.00012308
9.30892e-05
0.000292519
0.00037543
0.000359075
1.4134e-05
3.40472e-09
4.67338e-21
1.48957e-18
3.60867e-17
1.41693e-17
8.21476e-25
4.26401e-23
1.92474e-21
9.74348e-20
6.22305e-18
4.49239e-16
3.12797e-14
1.49221e-12
2.94726e-12
4.26213e-10
1.01273e-07
5.3636e-06
5.14562e-05
5.10549e-05
5.10549e-05
0.000195326
0.000353502
0.00021211
2.4633e-16
0.999843
0.99989
0.999896
0.999896
0.999324
0.99987
0.999891
0.999896
0.999812
0.999873
0.999879
0.999873
0.599106
0.594932
0.582732
0.532593
0.00531837
1.8219e-05
2.48332e-05
8.04783e-05
1.77884e-05
1.65669e-05
1.82618e-05
9.95504e-05
1.57436e-05
1.61636e-05
1.90346e-05
0.000171052
1.4739e-05
1.92586e-05
5.53242e-05
0.000136986
1.49304e-05
5.494e-05
6.02627e-05
1.57441e-05
3.41828e-05
5.35265e-05
3.56218e-05
4.38537e-06
3.37432e-05
2.73662e-05
4.29115e-06
3.38174e-06
1.20036e-05
4.35697e-06
3.46994e-06
3.09411e-06
4.18126e-06
3.82177e-06
3.58963e-06
3.47688e-06
3.97196e-06
4.22357e-06
6.78817e-06
1.29922e-05
6.62461e-06
1.11827e-05
1.68666e-05
1.71067e-05
1.65076e-05
1.68684e-05
1.71114e-05
1.71996e-05
7.11794e-06
5.87482e-06
6.37824e-06
1.46244e-05
3.48167e-06
3.44785e-06
3.45421e-06
3.49711e-06
3.4542e-06
3.4104e-06
3.43031e-06
3.45226e-06
3.43992e-06
3.4104e-06
7.2056e-05
0.000284489
4.50305e-06
1.22945e-05
3.05854e-05
8.31587e-05
2.01587e-05
2.12159e-05
4.04505e-05
5.58885e-05
3.95493e-05
0.000995549
0.000364132
6.60446e-05
0.00115878
0.00127796
0.00103676
0.000441051
0.00128798
0.00127968
0.00127799
0.00126661
0.000668283
0.00127789
0.00126023
0.000598629
7.93409e-05
0.000191148
9.93784e-05
1.66673e-05
8.6062e-07
8.14605e-08
-8.07608e-08
6.01967e-07
4.05043e-07
3.98054e-07
3.72702e-07
2.67949e-07
4.03684e-07
3.85119e-07
3.60985e-07
2.02443e-07
1.81447e-06
1.77812e-06
1.20464e-06
6.98144e-08
1.81682e-06
1.8169e-06
8.67268e-07
8.67343e-09
5.91233e-07
9.46445e-08
4.19208e-08
7.33265e-09
1.51114e-08
5.7312e-09
3.43e-09
3.1954e-09
2.34881e-06
2.34444e-06
2.32262e-06
1.90898e-06
2.34916e-06
2.34916e-06
2.34916e-06
2.33739e-06
2.34911e-06
2.06782e-06
1.43551e-07
2.04134e-08
2.07766e-06
2.62197e-06
2.76482e-06
1.83119e-06
1.55391e-05
1.55391e-05
1.55401e-05
1.549e-05
1.50481e-05
1.55391e-05
1.54731e-05
1.50946e-05
1.21849e-11
1.11904e-06
3.14754e-06
5.61583e-06
4.53019e-13
7.24978e-15
4.75326e-26
7.4491e-25
0.999896
0.99075
0.988036
0.99685
0.99908
0.999087
0.999087
0.999077
0.912182
0.869211
0.95273
0.974209
0.981426
0.99847
0.998471
0.998471
0.987792
0.980698
0.964591
0.999895
0.998836
0.999068
0.999068
0.999069
0.999081
0.999078
0.999026
0.936688
0.779485
0.632793
0.499242
0.441306
0.443335
0.452601
0.416906
0.38313
0.371752
0.375119
0.999656
0.98728
0.888966
0.83115
0.883781
0.9928
0.976861
0.751468
0.493579
0.347167
0.208676
0.104408
0.0497669
0.0262952
0.0161743
0.00936484
0.00253503
0.00101058
0.00100169
0.371091
0.127894
0.0820991
0.23317
0.750272
0.771413
0.420991
0.0874221
0.0147361
0.00727335
0.00480906
0.00242263
0.000331309
6.43731e-05
5.80109e-05
6.82421e-05
0.000368996
0.000836226
0.000471902
0.000233713
0.000478779
0.000246466
0.039678
0.128651
0.0502401
0.000407135
0.000365394
0.000286838
0.000245534
0.000226488
0.000150414
6.12818e-05
5.60256e-05
5.63827e-05
5.80118e-05
0.000307622
0.00114742
0.000432875
0.000440461
0.000109943
7.11504e-05
8.70502e-05
0.00011292
0.000133077
0.000255963
0.000663422
0.00088283
0.000869582
0.000556908
4.39842e-05
4.78148e-05
5.19311e-05
5.60583e-05
6.25356e-05
0.000623412
0.000674451
0.000432875
0.000244928
1.84497e-05
1.11737e-05
0.00011577
0.000146511
0.00069761
0.00107065
0.00112676
0.000911446
0.00027492
3.78895e-05
3.71104e-05
4.26091e-05
6.64236e-05
0.000104091
6.60533e-05
0.000374191
0.000532877
0.000938301
1.56816e-05
4.68762e-06
3.00566e-06
2.90704e-06
3.62646e-06
0.000922507
0.0012033
0.00107818
3.94135e-05
3.58897e-05
3.52749e-05
3.59539e-05
5.19526e-05
0.000128563
0.000150918
9.12614e-05
8.31308e-05
0.000183703
0.00112073
4.92844e-06
2.92969e-06
2.9223e-06
2.92054e-06
2.90535e-06
0.000286139
0.00120711
0.000550897
3.58142e-05
3.49997e-05
3.52054e-05
5.25117e-05
0.000176851
0.000125901
8.50534e-05
8.07789e-05
8.0701e-05
8.31308e-05
0.00109821
3.34757e-06
2.91368e-06
2.91881e-06
2.92254e-06
2.92079e-06
0.000896578
0.00120204
0.000691124
3.45818e-05
3.47436e-05
3.49995e-05
7.32623e-05
0.000185112
0.00019231
0.000109199
8.0701e-05
8.07789e-05
0.000539858
0.0011683
2.99683e-06
2.91888e-06
2.92404e-06
2.92351e-06
2.90135e-06
0.00118011
0.00119724
0.000602362
3.44635e-05
3.47427e-05
3.47434e-05
3.51294e-05
0.000126059
0.000316643
0.00029063
8.07789e-05
0.000302716
0.00116845
0.00116933
2.94123e-06
2.92628e-06
2.91483e-06
2.91697e-06
2.89516e-06
0.000810813
0.00119739
0.00035746
3.48995e-05
3.47436e-05
3.48993e-05
3.57005e-05
0.000273552
0.000311383
0.000317372
0.000404902
0.00116736
0.00116933
0.00116933
3.23141e-06
3.1364e-06
2.90652e-06
2.89732e-06
2.88381e-06
0.000260645
0.00118693
0.0002794
3.49368e-05
3.49003e-05
0.000134243
0.000391081
0.000406503
0.000252877
0.000161306
0.000306941
0.000660182
0.000728377
0.000440407
1.69913e-05
1.31301e-05
2.99436e-06
2.90875e-06
2.89429e-06
0.000148414
0.00116638
0.000242345
3.60052e-05
0.000214362
0.000781235
0.000753261
0.00023644
0.000153484
0.00015713
0.000161378
0.000167408
0.000171232
0.000251685
1.71996e-05
1.65873e-05
3.5846e-06
2.99205e-06
2.9947e-06
0.000113135
0.0011552
0.000241168
0.00011118
0.000827931
0.000805304
0.000625331
0.000151333
0.000151904
0.000153561
0.000248568
0.000171323
0.00017117
0.00017117
1.71637e-05
9.59316e-06
3.9322e-06
3.24325e-06
3.50667e-06
0.000274707
0.00107138
0.000262162
0.000184635
0.000827057
0.000819658
0.00058529
0.000150593
0.000150617
0.000180384
0.000305411
0.000306166
0.000189842
0.00017117
9.59596e-06
7.02869e-06
5.12008e-06
3.89725e-06
6.17024e-06
0.000712825
0.00107676
0.000214069
0.000505053
0.00082863
0.000827057
0.00071443
0.000150617
0.000150586
0.000152025
0.000301435
0.000305043
0.00029361
0.000648288
3.87584e-06
2.92158e-05
0.000109668
3.42599e-05
0.000411849
0.000853135
0.000705013
0.000115989
0.000807285
0.00082863
0.00082863
0.00057414
0.000221929
0.000225954
0.000226051
0.000138268
0.000127116
0.000305075
0.000762506
0.000112066
0.000290952
0.000207948
4.96489e-05
0.00067653
0.000853135
0.000115593
9.0017e-05
0.000472399
0.00082863
0.000649583
0.00010997
3.04643e-05
0.000108487
0.000224717
6.90356e-05
6.36214e-05
6.36214e-05
0.000719032
0.000291116
0.000289293
8.94971e-05
5.61531e-05
0.000500433
0.000853135
8.36148e-05
8.13573e-05
0.000188144
0.000521324
0.000246353
3.82949e-05
2.76428e-05
2.74312e-05
3.56663e-05
2.85436e-05
0.000193208
0.000449
9.93594e-05
0.000228926
7.09925e-05
5.63898e-05
5.64639e-05
0.000185717
0.000596805
7.22962e-05
7.59887e-05
0.000202487
0.000145355
0.000235958
0.000179882
2.75382e-05
2.7313e-05
2.7313e-05
2.73281e-05
0.000548005
0.000547128
9.10018e-05
7.63903e-05
0.000141217
0.000734104
0.000188976
1.48321e-05
3.99714e-05
6.69328e-05
0.000115527
0.000154712
9.88746e-05
0.00011465
8.61824e-05
2.55046e-05
2.73939e-05
5.47397e-05
0.000510416
0.000547219
0.000340782
2.77154e-05
8.51996e-05
0.000917599
0.000937456
9.73817e-05
1.22421e-05
1.47758e-05
8.49155e-05
0.000157693
0.000131133
4.39435e-05
1.87714e-05
2.17861e-05
2.29779e-05
7.50815e-05
0.000320537
0.00032071
9.17812e-05
2.6964e-05
2.69664e-05
0.000760109
0.000983804
0.000818503
1.22421e-05
1.17362e-05
1.22421e-05
0.000108465
0.000157693
9.87041e-05
1.80722e-05
1.85482e-05
1.87773e-05
4.85018e-05
7.86472e-05
4.08433e-05
2.79636e-05
2.6964e-05
2.6964e-05
2.69622e-05
0.00124111
0.000450765
5.56438e-05
1.17362e-05
1.17362e-05
1.30069e-05
0.000136586
0.000157693
2.07221e-05
1.79697e-05
1.80311e-05
2.24682e-05
0.000177655
0.000183275
0.00015537
0.000170079
3.39524e-05
2.69624e-05
2.69667e-05
9.44775e-05
1.20817e-05
1.19727e-05
1.18785e-05
1.17362e-05
9.56969e-05
0.000373987
8.32776e-05
1.76957e-05
1.77714e-05
1.79849e-05
1.87224e-05
0.000110491
0.000635656
0.000671322
0.000682374
0.000449582
2.71216e-05
7.00764e-05
2.91909e-06
5.78302e-06
1.06071e-05
1.19755e-05
0.000139514
0.000428421
0.000405421
3.08078e-05
1.76898e-05
1.76611e-05
1.77713e-05
1.85125e-05
2.27536e-05
0.000352663
0.000577699
0.000707026
0.000726224
0.000235075
0.000283233
8.27073e-07
3.15094e-06
5.78333e-06
0.000117174
0.000432577
0.000435494
0.000416823
6.68966e-05
1.76717e-05
1.76898e-05
1.82144e-05
8.13485e-05
0.000179643
0.000174265
0.000152465
0.000361159
0.000734222
0.000733851
0.000383916
3.01995e-07
9.3174e-07
3.37492e-06
0.0002048
0.000435494
0.000437832
0.000435578
0.000392482
7.98828e-05
4.02811e-05
0.000166626
0.000295996
0.000295996
0.000193657
0.000148468
0.000140736
0.000686565
0.000735456
0.0003869
1.23678e-07
2.7496e-07
1.27764e-06
5.95812e-05
0.00036284
0.000439499
0.000438188
0.000442121
0.000427233
0.00040573
0.000395208
0.000281589
0.000164795
0.000231704
0.000207287
0.000140035
0.000610883
0.000736436
0.000650408
8.04097e-08
4.63621e-08
2.81574e-07
3.76167e-06
4.48913e-05
0.000212422
0.000371511
0.000431152
0.000421913
0.000420971
0.000268393
7.13954e-05
1.57695e-05
4.62352e-05
4.62716e-05
0.000141556
0.000736436
0.000736472
0.000736472
7.95112e-08
1.09774e-08
4.79557e-08
1.50472e-07
3.47075e-07
1.55742e-06
2.41204e-05
0.000110644
0.000283051
0.000278419
2.47621e-05
1.71131e-07
1.71646e-07
1.71117e-07
0.000125827
0.000355316
0.000709075
0.000736436
0.000736472
1.44725e-08
6.60938e-09
1.87741e-09
7.80017e-09
2.84346e-08
8.6149e-08
1.99005e-07
3.77514e-07
1.99337e-05
4.57528e-05
5.18173e-05
3.08575e-06
8.88821e-08
2.33248e-07
0.00024411
0.000363425
0.000188069
0.00073579
0.000276136
2.93274e-09
2.38428e-09
2.53717e-10
6.23459e-10
2.34992e-09
6.47824e-09
1.32049e-08
2.03645e-08
2.3002e-08
4.23565e-09
6.1602e-08
4.69351e-09
5.99386e-09
7.88623e-05
1.13994e-05
0.000172129
0.000185127
0.000506002
4.91019e-06
4.08694e-07
2.53119e-10
1.51809e-10
1.8191e-10
5.63105e-10
1.05017e-09
1.04496e-09
9.60644e-10
8.06181e-10
1.31238e-09
2.30041e-09
2.74138e-09
5.44125e-05
0.000156107
1.05735e-05
1.11623e-05
4.476e-05
2.53795e-05
4.91019e-06
2.11277e-06
5.52717e-08
1.46163e-10
1.50152e-10
5.29545e-10
7.41301e-10
4.7424e-10
3.63622e-10
4.07088e-10
1.19925e-09
1.31189e-09
3.51164e-07
0.000169182
0.000156897
2.12385e-07
1.51261e-05
6.83906e-05
1.93555e-05
1.24523e-05
3.99703e-09
2.15368e-09
1.46162e-10
1.46972e-10
2.44419e-10
4.24886e-10
4.03323e-10
3.45275e-10
3.63321e-10
4.01237e-10
2.93872e-09
7.25821e-06
0.00016931
2.32214e-05
3.88648e-08
1.90392e-05
6.58607e-05
6.73109e-05
1.68939e-05
5.63734e-07
1.89419e-10
1.59899e-10
1.32629e-09
7.10366e-11
1.56507e-10
1.76527e-10
1.84335e-10
3.14194e-10
1.71269e-06
1.5167e-05
0.00010768
0.000141857
3.86855e-08
3.43566e-08
2.2749e-16
3.06871e-15
1.17533e-06
1.61401e-14
1.17633e-05
1.14638e-06
2.51343e-13
6.15069e-09
6.16165e-11
6.73315e-11
7.55686e-11
1.77177e-10
3.55333e-09
2.16065e-05
0.00016937
0.000156781
4.20858e-09
3.62356e-08
1.03809e-07
2.18512e-17
3.59938e-17
2.2363e-16
1.04671e-15
1.45835e-05
6.65752e-06
1.18567e-13
1.06856e-11
5.7787e-11
6.02611e-11
6.6501e-11
8.14725e-11
9.09738e-13
3.10691e-05
0.000199539
0.000118842
2.91709e-09
1.89876e-07
1.38914e-07
6.77427e-18
5.86801e-15
1.31391e-14
3.39713e-14
8.40239e-06
5.3016e-16
1.18565e-13
4.77336e-12
5.56344e-11
6.38807e-11
8.76484e-11
8.4576e-11
5.94085e-14
2.19363e-14
0.000199108
4.13081e-05
2.05886e-09
1.99137e-07
1.61176e-08
2.83162e-18
1.57184e-15
4.42286e-15
1.20162e-14
8.88739e-24
5.29301e-16
5.80832e-14
1.90071e-12
5.99702e-11
7.04998e-11
1.94366e-10
1.20692e-10
1.79074e-11
3.359e-19
7.50077e-05
2.46799e-17
1.96535e-09
7.38407e-08
1.08366e-23
2.69293e-18
6.20721e-17
3.62869e-16
1.50671e-15
)
;

boundaryField
{
    leftWall
    {
        type            zeroGradient;
    }
    rightWall
    {
        type            zeroGradient;
    }
    lowerWall
    {
        type            zeroGradient;
    }
    atmosphere
    {
        type            inletOutlet;
        inletValue      uniform 0;
        value           nonuniform List<scalar> 
46
(
0
0
0
0
0
0
0
0
0
0
0
0
2.94726e-12
4.26213e-10
1.01273e-07
5.3636e-06
5.14562e-05
5.10549e-05
5.10549e-05
0.000195326
0.000353502
0.00021211
0
0
0
0
0
0
0
0
0
5.99702e-11
7.04998e-11
1.94366e-10
0
0
0
7.50077e-05
0
0
0
0
0
0
0
0
)
;
    }
    defaultFaces
    {
        type            empty;
    }
}


// ************************************************************************* //
