/*--------------------------------*- C++ -*----------------------------------*\
| =========                 |                                                 |
| \\      /  F ield         | OpenFOAM: The Open Source CFD Toolbox           |
|  \\    /   O peration     | Version:  2.3.0                                 |
|   \\  /    A nd           | Web:      www.OpenFOAM.org                      |
|    \\/     M anipulation  |                                                 |
\*---------------------------------------------------------------------------*/
FoamFile
{
    version     2.0;
    format      ascii;
    class       volScalarField;
    location    "2.95";
    object      p;
}
// * * * * * * * * * * * * * * * * * * * * * * * * * * * * * * * * * * * * * //

dimensions      [1 -1 -2 0 0 0 0];

internalField   nonuniform List<scalar> 
2268
(
644.21
645.477
644.681
643.127
641.986
641.422
642.605
646.056
651.336
657.406
665.386
675.679
688.107
701.842
716.513
732.857
750.306
767.12
782.328
797.121
811.051
821.215
826.308
586.742
586.911
586.118
584.398
582.969
582.353
583.532
586.976
592.225
598.169
606.058
616.316
628.825
642.983
658.478
675.222
692.343
708.392
723.432
738.83
753.536
763.528
768.478
532.271
528.319
527.611
525.529
523.494
522.729
524.224
527.917
532.876
538.666
546.478
556.463
568.702
582.821
598.661
615.806
633.552
649.856
665.037
681.3
696.613
706.999
711.988
478.825
472.142
469.792
466.91
464.197
463.065
464.388
467.725
472.712
478.762
486.433
496.178
508.104
521.886
537.236
554.233
572.719
590.394
606.969
623.841
639.962
651.125
657.107
425.45
419.443
416.302
412.624
409.409
407.718
408.037
409.651
412.909
418.271
425.78
435.622
447.474
460.981
475.84
492.285
510.71
530.065
548.575
566.472
583.168
595.279
602.085
370.62
366.671
363.58
358.379
354.122
351.319
350.408
351.072
353.22
357.31
365.037
375.06
386.785
399.966
414.417
430.523
448.658
469.195
490.03
509.539
526.275
539.248
546.635
313.935
311.666
307.394
301.293
296.266
292.497
290.558
290.309
291.911
295.687
303.497
313.45
325.194
338.475
352.75
369.004
387.389
408.678
431.765
453.208
470.196
482.876
489.008
256.964
253.701
248.954
241.615
235.904
231.775
228.98
227.092
228.361
232.133
239.429
249.325
261.203
274.929
289.848
307.437
327.405
349.728
374.226
397.872
415.401
426.908
427.36
776.631
776.929
774.864
769.807
775.754
784.275
775.218
757.81
735.699
709.848
681.631
660.345
651.356
649.742
643.297
628.33
618.655
610.52
609.646
721.568
720.304
715.495
708.38
713.789
722.586
714.989
698.664
676.813
650.127
620.048
596.985
588.956
590.527
587.108
574.066
563.807
555.819
557.144
666.073
662.899
655.072
646.064
650.812
659.929
654.493
639.507
617.637
589.591
557.394
533.073
525.045
528.524
528.158
519.478
510.445
502.455
504.634
610.255
605.214
594.896
584.757
588.162
597.755
594.517
580.687
558.104
528.305
494.034
469.266
461.059
464.782
466.546
461.373
455.251
448.364
449.708
554.584
547.087
536.168
525.439
526.952
537.163
535.387
522.194
498.569
467.628
432.36
407.567
398.657
401.11
404.299
400.85
397.276
393.388
391.983
498.584
488.873
480.146
469.274
468.244
478.61
477.795
464.747
440.159
408.894
372.976
348.632
339.287
339.242
343.041
340.761
337.273
336.523
333.497
441.639
430.207
425.11
414.963
411.103
421.253
422.072
409.007
383.652
352.071
315.874
292.726
281.413
279.467
282.753
280.943
276.649
276.691
273.57
385.302
371.749
370.024
359.996
353.506
364.162
368.093
355.06
329.431
296.276
261.619
236.982
223.341
220.262
222.378
220.404
215.656
215.055
212.423
169.458
165.569
158.88
150.49
142.519
135.419
128.665
124.48
125.929
128.603
134.357
143.605
155.773
170.885
188.21
210.916
235.745
260.462
285.622
311.481
329.427
336.8
317.434
65.6009
62.7525
54.3113
45.7879
38.9541
32.5813
27.4664
24.7695
24.4492
25.7635
28.0071
32.1198
38.6213
45.6533
51.5792
82.6285
119.499
143.224
166.792
195.271
215.732
224.278
223.025
11.3484
7.48606
4.35822
1.87203
0.94017
0.718093
0.660304
0.730773
0.934688
1.09243
1.1108
0.985531
0.928432
0.788209
1.03528
15.4568
37.1643
42.6008
54.154
86.0792
107.214
117.093
120.815
0.0868333
0.0210384
-0.0534521
-0.119091
-0.0318749
0.158304
0.280852
0.399192
0.58052
0.680271
0.620659
0.504993
0.334915
0.112425
-0.190052
-0.631045
-0.947483
-0.69512
1.65243
18.0049
31.3308
35.5095
37.8441
-0.18242
-0.258152
-0.248377
-0.199937
-0.128218
-0.0424234
0.0326302
0.0480678
0.0608206
0.0617991
-0.0371704
-0.167789
-0.327455
-0.479353
-0.700874
-1.0598
-1.29371
-1.24746
-1.33563
-1.01749
-0.606689
-0.267189
0.172208
-0.409519
-0.486104
-0.4707
-0.405037
-0.326988
-0.259568
-0.203866
-0.258463
-0.389244
-0.470838
-0.561383
-0.688994
-0.845423
-1.00424
-1.16689
-1.36477
-1.52417
-1.50959
-1.33282
-1.09288
-0.845351
-0.66865
-0.448321
-0.597282
-0.716921
-0.682604
-0.62239
-0.553091
-0.498226
-0.466923
-0.565233
-0.703804
-0.802671
-0.911277
-1.05688
-1.2268
-1.40545
-1.58024
-1.75902
-1.89553
-1.88493
-1.69999
-1.43093
-1.12123
-0.856463
-0.67321
-0.716139
-0.822362
-0.815501
-0.781437
-0.749986
-0.713244
-0.727799
-0.867227
-0.957809
-1.01344
-1.13469
-1.30923
-1.4964
-1.69086
-1.88138
-2.04864
-2.1621
-2.20293
-2.12509
-1.86959
-1.48085
-1.17101
-0.988496
-0.794057
-0.816743
-0.843188
-0.888014
-0.907689
-0.901587
-0.946554
-1.10571
-1.17188
-1.21766
-1.34502
-1.52025
-1.71022
-1.91807
-2.1168
-2.27898
-2.39325
-2.44913
-2.43121
-2.24038
-1.88187
-1.5491
-1.35885
-0.912779
-0.838744
-0.900422
-1.0183
-1.07996
-1.08807
-1.13978
-1.28917
-1.34561
-1.40993
-1.54109
-1.69982
-1.88667
-2.09848
-2.29847
-2.45588
-2.56034
-2.60943
-2.59149
-2.45048
-2.17378
-1.88941
-1.72443
-1.12804
-1.0287
-1.08899
-1.2153
-1.2826
-1.28378
-1.33955
-1.43756
-1.50139
-1.57637
-1.69195
-1.83395
-2.01722
-2.2266
-2.41974
-2.56362
-2.65122
-2.68534
-2.65748
-2.54266
-2.34189
-2.14052
-2.01567
-1.43072
-1.39708
-1.37485
-1.44124
-1.47671
-1.47868
-1.51168
-1.5713
-1.64408
-1.71089
-1.80644
-1.93724
-2.1078
-2.30319
-2.4813
-2.60725
-2.67596
-2.69421
-2.66055
-2.56875
-2.43124
-2.3017
-2.21716
-1.69511
-1.77324
-1.65126
-1.64236
-1.65275
-1.65738
-1.66313
-1.71269
-1.7794
-1.83286
-1.91618
-2.03122
-2.17589
-2.33858
-2.48853
-2.5927
-2.64351
-2.64903
-2.6145
-2.545
-2.45745
-2.38883
-2.35956
-1.84348
-1.93386
-1.86736
-1.83409
-1.83702
-1.83197
-1.83389
-1.87165
-1.92456
-1.97768
-2.04596
-2.1351
-2.24064
-2.3547
-2.45639
-2.52542
-2.55343
-2.54745
-2.51479
-2.46821
-2.42958
-2.42854
-2.46673
-1.91806
-1.98504
-2.03905
-2.03489
-2.03171
-2.0087
-2.01043
-2.04725
-2.09042
-2.14612
-2.2013
-2.2572
-2.31634
-2.37263
-2.41294
-2.4233
-2.41084
-2.38678
-2.35944
-2.34576
-2.36838
-2.44213
-2.54489
-2.01857
-2.09378
-2.21117
-2.21701
-2.2094
-2.19108
-2.19561
-2.23012
-2.2818
-2.3338
-2.3731
-2.39921
-2.41413
-2.41319
-2.39502
-2.34018
-2.26668
-2.21292
-2.19536
-2.2243
-2.31201
-2.45119
-2.60219
-2.19043
-2.29282
-2.36987
-2.37667
-2.36821
-2.37623
-2.38841
-2.41337
-2.45866
-2.50328
-2.52774
-2.53178
-2.52102
-2.49144
-2.43932
-2.33058
-2.19179
-2.10886
-2.10365
-2.16863
-2.3019
-2.4778
-2.64856
-2.39516
-2.48651
-2.5171
-2.52361
-2.51768
-2.54372
-2.56815
-2.58461
-2.59698
-2.62351
-2.64107
-2.64308
-2.62868
-2.60015
-2.5464
-2.41334
-2.23572
-2.13603
-2.13854
-2.22144
-2.3678
-2.54381
-2.70017
-2.60202
-2.64043
-2.65171
-2.65994
-2.66145
-2.68693
-2.71721
-2.72763
-2.72088
-2.72455
-2.73802
-2.7461
-2.74141
-2.72461
-2.68259
-2.594
-2.44515
-2.3328
-2.32137
-2.39458
-2.52141
-2.66298
-2.77845
-2.77587
-2.77706
-2.78554
-2.79347
-2.8001
-2.81913
-2.84882
-2.85936
-2.84767
-2.83796
-2.84338
-2.85826
-2.8699
-2.87263
-2.86169
-2.83564
-2.78163
-2.7126
-2.65166
-2.66172
-2.73115
-2.82817
-2.90103
-2.90315
-2.91001
-2.9184
-2.92781
-2.9365
-2.95242
-2.97651
-2.98825
-2.98433
-2.97323
-2.97625
-2.99345
-3.0147
-3.03652
-3.05938
-3.0949
-3.12761
-3.11803
-3.06734
-3.02455
-3.02814
-3.07512
-3.09321
-3.03248
-3.04468
-3.05146
-3.06134
-3.07091
-3.08449
-3.10173
-3.11339
-3.11276
-3.10953
-3.11688
-3.13478
-3.15874
-3.18812
-3.22325
-3.28977
-3.37352
-3.40041
-3.37144
-3.35882
-3.38259
-3.39135
-3.3362
-3.16965
-3.18333
-3.18499
-3.19268
-3.20178
-3.21347
-3.22748
-3.23614
-3.23549
-3.23757
-3.24714
-3.26335
-3.28603
-3.31498
-3.35272
-3.4137
-3.49132
-3.53115
-3.54742
-3.60959
-3.68976
-3.68575
-3.59825
-3.31362
-3.31846
-3.31958
-3.32286
-3.32949
-3.3397
-3.35066
-3.35641
-3.35772
-3.36251
-3.37226
-3.38479
-3.40021
-3.42477
-3.462
-3.51575
-3.57108
-3.61292
-3.68446
-3.84356
-4.01542
-4.04139
-3.94463
-3.45314
-3.45076
-3.45235
-3.45285
-3.45668
-3.46436
-3.47236
-3.47686
-3.48
-3.48534
-3.49355
-3.50198
-3.51112
-3.5296
-3.56075
-3.60267
-3.6471
-3.70116
-3.80888
-4.02125
-4.25081
-4.35062
-4.29722
-3.59073
-3.58315
-3.58338
-3.58264
-3.58441
-3.58884
-3.5943
-3.59825
-3.60176
-3.6063
-3.61232
-3.61742
-3.62227
-3.6323
-3.6556
-3.69016
-3.73165
-3.79097
-3.89427
-4.04532
-4.2171
-4.3426
-4.36907
-3.72114
-3.71428
-3.71227
-3.71147
-3.71205
-3.71443
-3.71757
-3.7205
-3.7231
-3.72614
-3.72977
-3.73198
-3.7335
-3.7358
-3.75192
-3.78012
-3.81749
-3.8702
-3.94862
-4.0521
-4.16156
-4.23281
-4.24856
-3.84618
-3.84267
-3.8398
-3.8392
-3.83922
-3.84028
-3.84178
-3.84334
-3.84463
-3.84614
-3.8477
-3.8474
-3.84558
-3.84362
-3.85509
-3.8815
-3.91702
-3.95969
-4.01435
-4.08293
-4.15035
-4.18745
-4.17951
-3.97172
-3.96898
-3.96684
-3.96643
-3.96615
-3.96635
-3.9667
-3.96711
-3.96728
-3.96761
-3.96779
-3.96591
-3.96238
-3.95985
-3.96865
-3.99718
-4.03331
-4.07001
-4.10934
-4.15192
-4.18838
-4.20407
-4.19304
-4.09712
-4.09496
-4.09396
-4.09378
-4.09329
-4.09294
-4.09252
-4.09216
-4.0916
-4.0912
-4.0907
-4.08836
-4.08499
-4.08412
-4.09229
-4.12092
-4.15604
-4.1868
-4.21568
-4.24439
-4.26624
-4.27228
-4.26108
-4.22376
-4.22236
-4.22179
-4.22166
-4.22102
-4.22032
-4.2194
-4.21858
-4.21765
-4.21688
-4.21623
-4.21437
-4.21193
-4.21344
-4.22104
-4.24592
-4.27811
-4.3029
-4.32364
-4.34345
-4.35778
-4.36041
-4.35096
-4.35214
-4.35113
-4.35057
-4.35028
-4.34954
-4.34857
-4.34733
-4.34624
-4.34515
-4.34427
-4.34383
-4.34304
-4.34167
-4.34366
-4.35048
-4.36963
-4.39758
-4.41675
-4.43137
-4.44484
-4.45436
-4.45592
-4.44903
-4.48174
-4.48098
-4.48032
-4.47976
-4.47887
-4.47768
-4.47625
-4.47496
-4.4738
-4.47298
-4.4729
-4.47336
-4.47339
-4.47535
-4.48087
-4.49481
-4.51634
-4.53031
-4.54073
-4.55014
-4.55669
-4.55798
-4.55289
-4.61229
-4.61169
-4.61094
-4.61012
-4.60902
-4.60764
-4.60605
-4.60459
-4.60337
-4.60261
-4.60286
-4.60446
-4.60631
-4.60887
-4.61418
-4.62306
-4.63651
-4.6465
-4.65399
-4.66112
-4.66635
-4.66769
-4.66305
-4.7437
-4.74318
-4.74234
-4.74132
-4.74
-4.73842
-4.73665
-4.73499
-4.73364
-4.73285
-4.73322
-4.73555
-4.73924
-4.74297
-4.74863
-4.75337
-4.75996
-4.76765
-4.77299
-4.77919
-4.78435
-4.78583
-4.78071
-4.87592
-4.87541
-4.8745
-4.87331
-4.87179
-4.86998
-4.868
-4.86609
-4.86449
-4.86348
-4.86367
-4.86614
-4.87115
-4.87638
-4.88268
-4.88591
-4.88945
-4.89501
-4.89894
-4.90546
-4.91194
-4.91409
-4.90807
-5.00893
-5.00842
-5.00744
-5.00611
-5.0044
-5.00237
-5.00014
-4.9979
-4.99592
-4.99448
-4.99416
-4.99615
-5.00157
-5.00834
-5.01514
-5.02085
-5.02499
-5.0279
-5.03081
-5.04021
-5.05197
-5.05574
-5.04868
-5.14268
-5.14217
-5.14114
-5.1397
-5.13783
-5.1356
-5.1331
-5.13051
-5.12805
-5.126
-5.12488
-5.12581
-5.13048
-5.13819
-5.14619
-5.15635
-5.165
-5.17116
-5.17436
-5.18639
-5.20826
-5.21419
-5.20524
-5.27702
-5.27652
-5.27546
-5.27395
-5.27197
-5.26959
-5.26687
-5.26394
-5.261
-5.25831
-5.25627
-5.25583
-5.25875
-5.26567
-5.2749
-5.28859
-5.30882
-5.32812
-5.33865
-5.35714
-5.39089
-5.39584
-5.37329
-5.41181
-5.41134
-5.41028
-5.40874
-5.40672
-5.40424
-5.40138
-5.39823
-5.39494
-5.39173
-5.38899
-5.38741
-5.38876
-5.39459
-5.40545
-5.42637
-5.46777
-5.49854
-5.52978
-5.57006
-5.60215
-5.58673
-5.51936
-5.54724
-5.54681
-5.5458
-5.54429
-5.54228
-5.53979
-5.53689
-5.53365
-5.5302
-5.52675
-5.52363
-5.52145
-5.52152
-5.52642
-5.53904
-5.56825
-5.64834
-5.67811
-5.72125
-5.81999
-5.98323
-5.88171
-5.61863
-5.6837
-5.68351
-5.68259
-5.68115
-5.67919
-5.67677
-5.67392
-5.67073
-5.66733
-5.66393
-5.66092
-5.65902
-5.65917
-5.66356
-5.67951
-5.71225
-5.86273
-5.91679
-6.01748
-6.3308
-6.54913
-6.27086
-5.94657
269.896
281.229
299.206
303.877
215.772
214.249
211.226
202.931
118.874
116.172
112.605
107.766
38.4256
37.8987
36.9173
33.5727
0.272618
0.286136
0.399193
0.621898
-0.288093
-0.217914
-0.159738
-0.0715299
-0.588866
-0.550839
-0.544019
-0.562911
-0.926765
-0.917577
-0.941981
-0.993689
-1.31794
-1.32106
-1.34487
-1.38224
-1.68886
-1.68287
-1.68593
-1.69874
-1.97594
-1.96208
-1.95541
-1.95957
-2.19028
-2.18337
-2.18304
-2.19108
-2.36398
-2.37378
-2.38675
-2.40272
-2.50744
-2.53496
-2.56097
-2.5845
-2.61857
-2.65982
-2.69445
-2.72039
-2.69522
-2.74288
-2.77826
-2.80052
-2.74174
-2.78504
-2.81285
-2.82544
-2.77263
-2.80069
-2.81352
-2.81262
-2.81545
-2.8214
-2.81645
-2.80324
-2.90566
-2.89513
-2.88032
-2.85939
-3.06091
-3.03011
-3.00095
-2.9695
-3.25928
-3.20326
-3.16942
-3.13542
-3.50725
-3.45202
-3.4182
-3.3606
-3.86557
-3.82909
-3.76357
-3.6664
-4.23468
-4.17974
-4.09506
-3.98346
-4.30455
-4.24446
-4.18157
-4.10047
-4.20979
-4.16804
-4.11208
-4.05482
-4.14991
-4.12395
-4.09121
-4.05687
-4.17236
-4.15622
-4.13724
-4.11642
-4.24519
-4.23327
-4.22
-4.20559
-4.33832
-4.32897
-4.31884
-4.30803
-4.43955
-4.43251
-4.42477
-4.41647
-4.54559
-4.54012
-4.53387
-4.52701
-4.65654
-4.65174
-4.64608
-4.63966
-4.77383
-4.7689
-4.76305
-4.75621
-4.89972
-4.89378
-4.88673
-4.87844
-5.03781
-5.02982
-5.02005
-5.00903
-5.19116
-5.18037
-5.16836
-5.15285
-5.35813
-5.34647
-5.32788
-5.30601
-5.49317
-5.48159
-5.46462
-5.44504
-5.6108
-5.60743
-5.59988
-5.58495
-5.8421
-5.78333
-5.7572
-5.73508
298.145
279.643
276.264
267.495
266.642
280.336
287.491
273.391
248.594
216.204
178.183
147.872
131.416
126.757
126.938
123.348
119.009
117.509
116.075
186.861
168.611
172.222
181.049
187.76
197.597
189.079
162.157
131.908
101.002
70.3287
49.4251
37.5421
32.0156
30.5324
27.8639
25.2864
24.6574
24.827
95.9062
75.9342
67.0483
78.0203
111.124
121.932
93.1854
59.1735
36.3937
23.2404
13.0926
6.46476
3.3426
2.0844
1.51397
1.01689
1.00693
1.28862
1.2255
21.2018
6.34328
6.66686
21.0083
43.3884
46.5892
26.5283
6.93382
2.08308
0.660733
0.125092
0.0788649
0.308636
0.514163
0.48589
0.434876
0.58577
0.709993
0.744878
0.575061
-0.694879
-0.527873
1.50969
7.24527
4.12448
1.67407
0.907304
0.402557
-0.0831497
-0.327426
-0.314979
-0.0682903
0.154953
0.205284
0.206174
0.302224
0.318521
0.417795
-0.00744671
-0.538942
-0.831605
-0.953043
-0.757745
-0.0102794
0.466778
0.228157
-0.210297
-0.593025
-0.765635
-0.65878
-0.387867
-0.134397
-0.032991
-0.0296831
-0.00410912
0.038487
0.153111
-0.668248
-1.04754
-1.31253
-1.35235
-1.15109
-0.678615
-0.249709
-0.400061
-0.789634
-1.01202
-1.06202
-0.94035
-0.675244
-0.416605
-0.29135
-0.249498
-0.319452
-0.26039
-0.113705
-1.14004
-1.44551
-1.60202
-1.58906
-1.46183
-1.22363
-0.894405
-0.967233
-1.18324
-1.28147
-1.27409
-1.15749
-0.924523
-0.690537
-0.550858
-0.477948
-0.516731
-0.486628
-0.356671
-1.47645
-1.68947
-1.78659
-1.76633
-1.67344
-1.5242
-1.30627
-1.33286
-1.4477
-1.49676
-1.45979
-1.33981
-1.13007
-0.907875
-0.760192
-0.666094
-0.643525
-0.60442
-0.540472
-1.74534
-1.86815
-1.93297
-1.90814
-1.83517
-1.7219
-1.54438
-1.54323
-1.62545
-1.66569
-1.61734
-1.49259
-1.29934
-1.07244
-0.9191
-0.814037
-0.74303
-0.713595
-0.685753
-1.98451
-2.04823
-2.08206
-2.04178
-1.96185
-1.86072
-1.65474
-1.61285
-1.68828
-1.74156
-1.70446
-1.59146
-1.41599
-1.2183
-1.06481
-0.94414
-0.842559
-0.85846
-0.85869
-2.21461
-2.24879
-2.24076
-2.16413
-2.05055
-1.92393
-1.67689
-1.58627
-1.64392
-1.69715
-1.70179
-1.62565
-1.49848
-1.35402
-1.22165
-1.09044
-1.01444
-1.05177
-1.0624
-2.43094
-2.44257
-2.3909
-2.26396
-2.10024
-1.92458
-1.65829
-1.54351
-1.58624
-1.66502
-1.69356
-1.66001
-1.58964
-1.48869
-1.37948
-1.276
-1.24998
-1.25752
-1.26257
-2.61383
-2.60123
-2.50718
-2.33212
-2.12519
-1.91191
-1.63447
-1.53415
-1.58042
-1.68583
-1.74402
-1.74009
-1.70211
-1.62338
-1.53208
-1.45958
-1.44752
-1.44435
-1.44138
-2.74389
-2.70105
-2.57384
-2.36917
-2.14447
-1.9215
-1.65252
-1.58551
-1.65434
-1.79996
-1.86828
-1.85962
-1.82612
-1.77367
-1.70366
-1.64149
-1.61829
-1.60723
-1.60151
-2.81144
-2.74536
-2.59465
-2.38802
-2.17691
-1.97422
-1.76858
-1.73913
-1.83272
-2.01354
-2.06889
-2.02126
-1.97801
-1.94428
-1.8945
-1.83501
-1.79377
-1.76922
-1.75415
-2.81885
-2.73746
-2.58898
-2.4073
-2.22933
-2.09281
-2.00441
-2.00061
-2.10428
-2.28162
-2.30861
-2.21567
-2.1466
-2.10868
-2.06774
-2.01755
-1.97221
-1.9566
-1.93232
-2.79007
-2.70878
-2.59018
-2.45185
-2.32199
-2.27747
-2.31115
-2.29234
-2.39186
-2.52207
-2.51518
-2.41074
-2.31868
-2.26557
-2.21362
-2.17273
-2.13436
-2.16386
-2.13334
-2.77116
-2.70124
-2.61667
-2.53336
-2.47285
-2.49921
-2.5659
-2.52844
-2.60501
-2.67931
-2.65114
-2.55841
-2.47089
-2.41176
-2.3566
-2.31436
-2.27521
-2.30802
-2.31072
-2.81494
-2.74457
-2.67289
-2.63312
-2.63255
-2.69177
-2.72302
-2.6833
-2.73445
-2.78405
-2.75525
-2.67254
-2.5947
-2.53311
-2.48202
-2.44071
-2.40053
-2.42294
-2.436
-2.91116
-2.8343
-2.78099
-2.76192
-2.76925
-2.81607
-2.81907
-2.80021
-2.84586
-2.88809
-2.86008
-2.78577
-2.71305
-2.64718
-2.5924
-2.54872
-2.52758
-2.54187
-2.54908
-3.0651
-2.96229
-2.9202
-2.91334
-2.90051
-2.9195
-2.91017
-2.92031
-2.96906
-2.99338
-2.96656
-2.90656
-2.83381
-2.76188
-2.70114
-2.66152
-2.66862
-2.68255
-2.68324
-3.24686
-3.14514
-3.12057
-3.08461
-3.03789
-3.02251
-3.01145
-3.03971
-3.08812
-3.09812
-3.07373
-3.02823
-2.96068
-2.88517
-2.81842
-2.78803
-2.7984
-2.81352
-2.81534
-3.50774
-3.39817
-3.33779
-3.2385
-3.15996
-3.12378
-3.12306
-3.17339
-3.21714
-3.22024
-3.20338
-3.16709
-3.10287
-3.02745
-2.96009
-2.92221
-2.92125
-2.94378
-2.94758
-3.80849
-3.63486
-3.49321
-3.35315
-3.27094
-3.2455
-3.26988
-3.34407
-3.37762
-3.37305
-3.35699
-3.32757
-3.28523
-3.222
-3.14749
-3.08826
-3.0662
-3.08948
-3.09211
-3.93691
-3.74686
-3.5944
-3.46987
-3.40438
-3.40121
-3.46177
-3.53979
-3.55
-3.53474
-3.51985
-3.51418
-3.52274
-3.50446
-3.43938
-3.34163
-3.25501
-3.24109
-3.24809
-3.95434
-3.82003
-3.70775
-3.61425
-3.56797
-3.59257
-3.66277
-3.69956
-3.69412
-3.6776
-3.67454
-3.69928
-3.74627
-3.77194
-3.7379
-3.63805
-3.48431
-3.41163
-3.42341
-3.99777
-3.91715
-3.84679
-3.78369
-3.75362
-3.77561
-3.81062
-3.81086
-3.80294
-3.79556
-3.8086
-3.85655
-3.91866
-3.93801
-3.91271
-3.85468
-3.70994
-3.6093
-3.60841
-4.08061
-4.03368
-3.99258
-3.95738
-3.93172
-3.92716
-3.93335
-3.92195
-3.90612
-3.90308
-3.93089
-3.98905
-4.04758
-4.05505
-4.02457
-4.00351
-3.89818
-3.78863
-3.78391
-4.18127
-4.15112
-4.12713
-4.11183
-4.09395
-4.07674
-4.07187
-4.06576
-4.04696
-4.03874
-4.06688
-4.11912
-4.15729
-4.16894
-4.14808
-4.13018
-4.05492
-3.95562
-3.96353
-4.28952
-4.26717
-4.25178
-4.24332
-4.23557
-4.22757
-4.23224
-4.23974
-4.22948
-4.21906
-4.23242
-4.25327
-4.27518
-4.30127
-4.29373
-4.26713
-4.21703
-4.15209
-4.16263
-4.40158
-4.38308
-4.37132
-4.36559
-4.36157
-4.36306
-4.38103
-4.40831
-4.41753
-4.40707
-4.39998
-4.40471
-4.41327
-4.42874
-4.43321
-4.42479
-4.42278
-4.37476
-4.37421
-4.51432
-4.4984
-4.48838
-4.48406
-4.4835
-4.48907
-4.50874
-4.54042
-4.56375
-4.56213
-4.54509
-4.53689
-4.53788
-4.54605
-4.56257
-4.5873
-4.61702
-4.58724
-4.56491
-4.62782
-4.61394
-4.60566
-4.60236
-4.6032
-4.60956
-4.62484
-4.6473
-4.66616
-4.66876
-4.66032
-4.65251
-4.64734
-4.6586
-4.6859
-4.72411
-4.74795
-4.74302
-4.71529
-4.74384
-4.73125
-4.72494
-4.72316
-4.72469
-4.72956
-4.73868
-4.75087
-4.76116
-4.76407
-4.76512
-4.7627
-4.75801
-4.77612
-4.80089
-4.83261
-4.84565
-4.86056
-4.84493
-4.86388
-4.85124
-4.84685
-4.84718
-4.85013
-4.85465
-4.86036
-4.86689
-4.87343
-4.87844
-4.87996
-4.87775
-4.8795
-4.9036
-4.92268
-4.94169
-4.94949
-4.96292
-4.96303
-4.99021
-4.97533
-4.97198
-4.9744
-4.9791
-4.98438
-4.98914
-4.99346
-4.99758
-4.99776
-4.99964
-4.99577
-5.00965
-5.03354
-5.04782
-5.06146
-5.07034
-5.07604
-5.07854
-5.12654
-5.10578
-5.10129
-5.10488
-5.11072
-5.11664
-5.12091
-5.12399
-5.12623
-5.12193
-5.12072
-5.12332
-5.14585
-5.16344
-5.17437
-5.18456
-5.19268
-5.19682
-5.19942
-5.27157
-5.24401
-5.23579
-5.23884
-5.24478
-5.25109
-5.25499
-5.25694
-5.26214
-5.25155
-5.25302
-5.26094
-5.2776
-5.29324
-5.30126
-5.30838
-5.31464
-5.31801
-5.32053
-5.41482
-5.38833
-5.37645
-5.37636
-5.38095
-5.38721
-5.39168
-5.39
-5.40301
-5.37503
-5.37443
-5.39088
-5.40473
-5.42171
-5.43114
-5.43515
-5.43954
-5.44196
-5.44278
-5.56014
-5.53644
-5.52176
-5.5171
-5.51904
-5.52407
-5.53027
-5.52235
-5.54639
-5.49811
-5.53701
-5.52593
-5.55672
-5.55626
-5.56564
-5.56455
-5.56627
-5.56711
-5.56623
-5.70636
-5.68445
-5.66814
-5.66042
-5.65982
-5.66105
-5.66545
-5.66362
-5.6814
-5.65378
-5.83742
-5.70148
-5.72688
-5.69559
-5.70012
-5.69516
-5.69315
-5.6923
-5.68974
)
;

boundaryField
{
    leftWall
    {
        type            calculated;
        value           nonuniform List<scalar> 
50
(
644.21
586.742
532.271
478.825
425.45
370.62
313.935
256.964
169.458
65.6009
11.3484
0.0868333
-0.18242
-0.409519
-0.597282
-0.716139
-0.794057
-0.912779
-1.12804
-1.43072
-1.69511
-1.84348
-1.91806
-2.01857
-2.19043
-2.39516
-2.60202
-2.77587
-2.90315
-3.03248
-3.16965
-3.31362
-3.45314
-3.59073
-3.72114
-3.84618
-3.97172
-4.09712
-4.22376
-4.35214
-4.48174
-4.61229
-4.7437
-4.87592
-5.00893
-5.14268
-5.27702
-5.41181
-5.54724
-5.6837
)
;
    }
    rightWall
    {
        type            calculated;
        value           nonuniform List<scalar> 
50
(
609.646
557.144
504.634
449.708
391.983
333.497
273.57
212.423
116.075
24.827
1.2255
0.744878
0.417795
0.153111
-0.113705
-0.356671
-0.540472
-0.685753
-0.85869
-1.0624
-1.26257
-1.44138
-1.60151
-1.75415
-1.93232
-2.13334
-2.31072
-2.436
-2.54908
-2.68324
-2.81534
-2.94758
-3.09211
-3.24809
-3.42341
-3.60841
-3.78391
-3.96353
-4.16263
-4.37421
-4.56491
-4.71529
-4.84493
-4.96303
-5.07854
-5.19942
-5.32053
-5.44278
-5.56623
-5.68974
)
;
    }
    lowerWall
    {
        type            calculated;
        value           nonuniform List<scalar> 
62
(
673.492
674.76
674.01
672.434
671.246
670.653
671.824
675.281
680.75
686.833
694.811
705.016
717.237
730.635
744.992
761.512
779.298
796.51
811.752
826.545
840.475
850.64
855.732
826.308
768.478
711.988
657.107
602.085
546.635
489.008
427.36
332.484
343.82
361.797
366.467
776.631
721.568
666.073
610.255
554.584
498.584
441.639
385.302
804.199
805.058
804.272
799.214
805.147
813.659
804.603
787.195
765.082
739.231
711.014
689.748
680.759
679.145
671.441
656.059
646.377
637.772
635.567
)
;
    }
    atmosphere
    {
        type            calculated;
        value           nonuniform List<scalar> 
46
(
-5.75249
-5.75264
-5.75175
-5.75034
-5.74844
-5.74608
-5.74332
-5.74023
-5.73694
-5.73369
-5.73085
-5.72915
-5.72904
-5.72904
-5.72962
-5.75974
-6.02354
-6.02124
-6.02124
-6.84695
-7.75224
-6.94301
-5.85705
-5.93288
-5.85444
-5.83982
-5.81782
-5.77758
-5.75867
-5.74219
-5.73069
-5.72904
-5.72904
-5.72904
-5.73011
-5.74206
-5.74551
-6.15833
-5.76812
-5.80374
-5.76359
-5.76677
-5.76061
-5.75658
-5.75495
-5.75114
)
;
    }
    defaultFaces
    {
        type            empty;
    }
}


// ************************************************************************* //
