/*--------------------------------*- C++ -*----------------------------------*\
| =========                 |                                                 |
| \\      /  F ield         | OpenFOAM: The Open Source CFD Toolbox           |
|  \\    /   O peration     | Version:  2.3.0                                 |
|   \\  /    A nd           | Web:      www.OpenFOAM.org                      |
|    \\/     M anipulation  |                                                 |
\*---------------------------------------------------------------------------*/
FoamFile
{
    version     2.0;
    format      ascii;
    class       volScalarField;
    location    "2.95";
    object      p_rgh;
}
// * * * * * * * * * * * * * * * * * * * * * * * * * * * * * * * * * * * * * //

dimensions      [1 -1 -2 0 0 0 0];

internalField   nonuniform List<scalar> 
2268
(
673.492
674.76
674.01
672.434
671.246
670.653
671.824
675.281
680.75
686.833
694.811
705.016
717.237
730.635
744.992
761.512
779.298
796.51
811.752
826.545
840.475
850.64
855.732
668.648
674.904
674.404
672.684
671.255
670.64
671.79
675.207
680.496
686.448
694.337
704.595
717.064
730.568
744.082
759.904
777.025
793.486
811.298
827.103
841.809
851.801
856.751
663.66
674.952
674.755
672.673
670.638
669.873
671.36
675.047
680.008
685.799
693.6
703.593
715.83
729.921
745.725
762.818
776.044
791.418
808.473
828.289
843.734
854.12
859.109
662.768
658.542
671.486
670.978
667.636
665.831
667.515
671.971
678.011
684.722
692.404
702.104
713.102
724.942
740.705
759.216
777.802
788.76
805.318
827.825
845.931
857.095
863.077
667.439
657.528
654.381
650.705
647.666
647.273
649.765
657.887
671.959
683.068
690.175
697.442
707.522
721.029
735.889
753.87
774.536
787.338
803.588
825.211
847.859
860.097
866.903
689.757
661.351
664.873
663.187
660.886
662.657
665.343
665.106
670.237
679.421
683.531
693.041
704.673
717.805
732.615
750.46
772.205
789.876
801.755
821.519
848.486
862.913
870.302
695.585
691.553
688.922
682.948
677.921
674.151
672.213
671.964
673.565
673.552
681.695
691.752
704.489
720.008
735.28
751.536
769.92
791.209
804.308
822.178
840.384
864.5
871.521
697.33
694.069
689.325
681.986
676.275
672.146
669.351
667.463
668.792
672.699
680.193
690.248
702.295
716.187
731.211
748.818
768.787
791.109
814.605
823.915
841.64
861.122
868.682
804.199
805.058
804.272
799.214
805.147
813.659
804.603
787.195
765.082
739.231
711.014
689.748
680.759
679.145
671.441
656.059
646.377
637.772
635.567
804.272
805.451
803.718
796.603
802.011
810.809
803.212
786.884
765.03
738.332
708.257
685.194
677.165
678.736
672.274
651.748
641.468
633.331
634.656
803.924
802.348
802.109
793.101
797.849
806.966
801.498
786.24
764.498
736.383
704.162
680.089
672.06
675.539
673.042
649.683
639.633
631.643
633.935
803.263
801.839
800.747
790.609
794.014
803.593
799.827
785.996
763.52
733.993
696.861
666.732
664.496
670.604
672.255
663.68
644.526
629.227
649.112
803.516
805.993
796.594
790.106
791.62
801.361
799.356
786.322
763.024
732.084
689.432
658.252
654.985
665.582
668.744
665.302
661.721
626.027
649.961
815.739
809.479
789.542
790.929
791.642
801.576
800.461
787.929
763.378
732.118
694.987
654.922
645.68
658.703
666.26
663.988
660.501
636.687
648.779
821.145
810.997
790.84
792.521
793.336
803.486
804.305
790.917
765.609
734.054
689.638
654.741
648.076
658.443
664.749
662.94
658.645
654.028
650.165
825.884
812.066
804.923
799.508
794.543
805.199
809.13
795.756
754.433
727.136
685.888
669.783
663.894
661.024
663.144
661.17
651.034
650.34
647.482
701.627
697.733
691.056
682.666
674.694
667.594
659.232
649.922
649.878
653.245
661.158
674.6
688.586
703.931
721.463
744.27
769.134
793.855
818.941
842.737
854.281
861.593
849.014
567.273
587.351
546.198
482.616
426.337
366.452
311.546
277.824
268.973
280
304.709
355.859
436.295
524.433
613.34
715.834
777.562
801.706
825.222
852.926
873.121
881.766
880.574
152.301
102.203
59.7512
29.769
13.04
4.09929
1.64778
1.66624
1.86608
2.03389
2.08525
1.9954
1.94513
1.80776
9.10113
221.911
501.293
599.617
718.166
842.019
887.163
899.641
904.249
1.11937
1.0524
0.96738
0.889749
0.968742
1.15223
1.28052
1.58601
1.9117
2.35129
2.78077
2.67886
1.71556
1.29444
1.0291
0.890044
3.32495
1.26163
50.5059
298.618
495.047
569.89
585.461
0.994612
1.07133
1.0825
0.939899
0.999601
1.08619
1.16366
1.55061
2.50376
2.51443
2.43048
2.30483
2.14403
1.90855
0.97547
0.760012
0.652881
0.924516
0.283856
0.368326
0.703418
7.32867
12.8804
1.00534
1.24814
1.26334
1.17565
0.937352
1.00459
1.06088
1.0417
1.28455
1.99674
2.18346
2.07948
1.92591
1.71382
1.49706
1.29405
1.18292
1.20146
0.692303
0.375597
0.517375
0.557707
0.742239
1.02467
1.20452
1.23877
0.867921
0.847579
0.903621
1.4736
1.35883
0.695571
0.559455
0.451662
0.542464
0.703561
0.46407
0.165372
0.133978
1.06878
1.1091
1.2749
1.25138
0.41294
0.460572
0.633519
1.01936
1.28197
1.28453
0.787856
0.788825
0.995133
1.70293
1.56351
0.681453
0.446473
0.302545
0.114778
-0.0739666
-0.267438
-0.458006
-0.624971
-0.738141
-0.295895
1.0695
1.17526
0.446744
0.263754
0.437632
1.14579
1.07474
0.850468
0.793127
0.771421
1.28173
1.69147
1.54127
0.593155
0.664808
0.549965
0.0676448
-0.164179
-0.369319
-0.559964
-0.710588
-0.828474
-0.892266
-0.304708
0.47327
0.0968714
0.00367403
0.190735
1.26784
1.21465
1.29008
0.808767
0.738287
0.896623
1.70362
0.786145
0.467494
0.683266
0.552108
0.0384667
-0.216388
-0.416534
-0.519355
-0.676758
-0.785608
-0.934109
-0.919321
-0.726651
-0.389885
-0.209573
-0.0482328
1.21125
1.89595
2.16852
1.25269
0.675242
0.676537
1.59894
0.605188
0.429244
0.640007
0.211995
-0.0377175
-0.221872
-0.408398
-0.515429
-0.65034
-0.744078
-0.887727
-0.864498
-0.746729
-0.548529
-0.346829
-0.212255
0.910278
2.08885
2.11108
2.01054
0.63564
0.613888
0.577331
1.07266
0.421792
0.238267
0.125385
-0.014564
-0.187501
-0.384149
-0.558081
-0.653204
-0.723651
-0.776392
-0.742945
-0.65014
-0.512415
-0.3836
-0.292731
0.491818
1.80431
2.06308
2.06472
1.01686
0.567521
0.562764
1.3511
0.978722
0.479062
0.271327
0.0400988
-0.130369
-0.295376
-0.445418
-0.54958
-0.600391
-0.605913
-0.571556
-0.501689
-0.413738
-0.345154
-0.315722
0.407397
0.869555
2.08026
2.10874
1.8011
0.533617
0.527604
1.39322
1.34125
1.28857
1.2119
0.667685
0.0295145
-0.18509
-0.287517
-0.356648
-0.384602
-0.377957
-0.346372
-0.299581
-0.260618
-0.259316
-0.297357
0.463221
1.38061
2.14833
1.02723
1.23894
0.892936
0.489515
1.32497
1.366
1.30747
1.24797
1.18479
0.840768
0.0656968
-0.117586
-0.128777
-0.116681
-0.092015
-0.0655677
-0.0517367
-0.0741068
-0.147517
-0.249193
1.49945
2.29328
0.572773
0.197411
0.244373
1.29047
0.666304
0.684297
1.30611
1.30436
1.16149
0.991397
0.984205
0.868899
0.0771339
0.0807104
0.15262
0.206412
0.223984
0.198726
0.116678
-0.0131353
-0.153546
2.62163
2.28958
0.210662
0.161054
0.169661
1.3298
1.32709
0.638882
0.205697
0.322549
0.0709587
0.0664812
0.257792
0.6841
0.653442
0.359933
0.469098
0.436088
0.441283
0.376326
0.244949
0.072795
-0.0961039
2.65439
0.259876
0.145537
0.139185
0.145286
0.752497
1.3332
1.1156
0.159603
0.103451
0.0854315
0.083173
0.0975389
0.126106
0.270267
2.22838
2.54657
0.916038
0.532013
0.449499
0.303802
0.127729
-0.0290362
2.3627
0.148641
0.136099
0.127986
0.126784
0.147425
1.36222
1.34588
0.667531
0.134264
0.117199
0.108641
0.113076
0.129828
0.1831
2.64301
2.78555
2.81899
0.726911
0.402068
0.275856
0.133872
0.018266
0.166658
0.135744
0.127489
0.137584
0.12906
0.138002
0.814119
1.39336
1.20505
0.372599
0.186149
0.201829
0.114552
0.103495
0.876519
2.64346
2.68976
2.75832
2.81926
1.22051
0.193568
0.0938514
0.0214278
0.135172
0.128028
0.119168
0.141759
0.254195
0.216649
0.0898147
0.218053
0.410487
0.576116
0.573092
0.512387
0.182914
0.0655701
0.262787
2.32412
2.57835
2.58847
2.63847
2.6812
2.59141
0.992345
-0.0426669
0.361686
0.124788
0.111186
0.122738
0.268096
0.254349
0.0874319
0.049189
0.0498181
0.119685
0.0971935
0.0755112
0.164994
-0.00950858
-0.0447892
0.451787
2.40738
2.48493
2.56537
2.57443
2.54216
0.850853
-0.0537437
1.37009
0.120316
0.102851
0.0968737
0.177917
0.257717
0.221482
0.0682731
0.0522893
0.0502018
0.0406366
0.0244454
0.00202195
-0.0208784
-0.0519105
0.0100733
0.250425
0.0794271
0.353715
0.929653
1.32888
0.19932
-0.0839687
1.39899
0.0983572
0.0934506
0.0901491
0.0835465
0.233707
0.224623
0.0883916
0.0552477
0.0504615
0.0407148
0.0286548
0.0434479
0.163343
0.104293
-0.00815148
-0.0874732
0.0330242
3.06296
4.02069
3.84373
3.56977
2.39554
1.43036
0.0874664
0.0858624
0.0853499
0.0815134
0.0738158
0.116937
0.0614893
0.0581718
0.0528332
0.0446377
0.0377395
0.269871
0.477461
0.445699
0.0271408
-0.0749522
0.777968
3.96222
4.13715
3.89623
3.77883
3.82131
0.831923
0.0802815
0.0801754
0.0807462
0.0789621
0.0745342
0.0690754
0.0651315
0.0616067
0.0570676
0.0510684
0.0516599
0.394708
0.516617
0.493079
0.273595
-0.0472777
0.0457399
-0.192311
-0.0742736
2.83977
4.0632
3.23716
0.067391
0.074387
0.0765932
0.0771272
0.0765552
0.0741378
0.0709927
0.0681768
0.0655636
0.0624047
0.0588035
0.0572259
0.288693
0.554663
0.432458
0.0113917
-0.0259699
-0.0782554
-0.154407
-0.0283999
0.483026
0.552949
-0.0963205
0.0675433
0.0712632
0.0742621
0.0763523
0.0772186
0.0734777
0.071976
0.0705327
0.0692179
0.0675877
0.0660408
0.0665318
0.134244
0.583247
0.376602
0.0352176
-0.000354926
-0.0430435
-0.0927181
-0.15395
-0.224682
-0.270465
-0.260842
0.0671968
0.0701144
0.0724815
0.0766292
0.0769219
0.0731658
0.0722118
0.0718427
0.0716401
0.071308
0.0711308
0.0731239
0.109973
0.454306
0.426462
0.0447748
0.00858991
-0.0282118
-0.0676327
-0.110582
-0.147403
-0.162548
-0.150431
0.0669957
0.0691671
0.0704359
0.0746096
0.0751046
0.0745601
0.0715904
0.0719525
0.0725076
0.0729115
0.0734177
0.0758256
0.0970858
0.404201
0.441864
0.0463955
0.0112085
-0.0142895
-0.0345459
-0.0781316
-0.100074
-0.106073
-0.0926443
0.0655434
0.0669462
0.0675226
0.0693913
0.072693
0.0728558
0.0699085
0.0707412
0.071667
0.0724279
0.0730769
0.0749533
0.0777297
0.220903
0.419907
0.0468812
0.0148511
0.0133594
0.00312349
-0.0283911
-0.0666459
-0.0696702
-0.0544696
0.0623566
0.0633664
0.0639247
0.0644377
0.0687856
0.0663743
0.0671647
0.0682753
0.069364
0.0702255
0.0706652
0.0714676
0.0729381
0.106635
0.303257
0.161381
0.0220939
0.0235545
0.0216777
0.00820178
-0.0292958
-0.0403053
-0.0276191
0.0579474
0.058718
0.0593726
0.0599648
0.060825
0.0620152
0.0634441
0.0647346
0.0658908
0.0667144
0.0667918
0.0663369
0.0663981
0.0906201
0.415043
0.453631
0.0284926
0.0237669
0.0386017
0.0238632
-0.0163801
-0.0173175
-0.00810611
0.0525949
0.0531964
0.0539482
0.0547655
0.0558643
0.0572473
0.0588391
0.0602979
0.0615166
0.0622735
0.0620273
0.0604342
0.0586626
0.0794798
0.467562
0.556392
0.0308227
0.0199569
0.0226664
0.010083
-0.000923232
-0.00233279
0.00203586
0.0463809
0.0469059
0.047738
0.0487635
0.0500764
0.0516652
0.053435
0.0550908
0.0564423
0.0572306
0.0568619
0.0545374
0.0509012
0.058348
0.430401
0.577802
0.184137
0.0235652
0.0180454
0.01164
0.00639018
0.00481482
0.0140342
0.0393586
0.0398669
0.0407722
0.0419641
0.0434863
0.0452915
0.0472749
0.0491853
0.0507884
0.0517932
0.0516042
0.0491395
0.0441641
0.039843
0.31089
0.586941
0.5305
0.0213552
0.0173637
0.0107309
0.00410445
0.00485063
0.0187391
0.031542
0.0320547
0.0330289
0.0343596
0.0360734
0.0380985
0.0403328
0.0425658
0.0445518
0.0459869
0.0463094
0.0443248
0.0389212
0.032429
0.162843
0.590841
0.584017
0.0327896
0.010747
0.00132302
-0.0105245
-0.0139617
-0.000452922
0.0229821
0.0234951
0.0245235
0.0259636
0.0278355
0.0300637
0.0325599
0.0351546
0.037619
0.0396611
0.040787
0.0398552
0.0351915
0.0275714
0.0534819
0.275826
0.236285
0.459507
0.744542
0.24892
-0.0414319
-0.0473173
-0.036435
0.0138404
0.0143384
0.0153976
0.0169075
0.0188871
0.0212716
0.0239909
0.0269163
0.0298575
0.0325516
0.0345924
0.0350317
0.0321114
0.0252151
0.0162969
0.0834978
0.204564
0.65527
1.97295
1.61882
-0.0987924
-0.103581
-0.0530043
0.0042435
0.00471809
0.00577811
0.0073112
0.00933836
0.0118109
0.014672
0.0178241
0.0211175
0.0243213
0.0270676
0.0286395
0.0272971
0.0214973
0.0122309
0.334746
0.617988
0.668466
1.95226
1.91531
0.410175
-0.167611
-0.0915629
-0.00598909
-0.00556372
-0.00455342
-0.0030467
-0.00103171
0.00145382
0.00435843
0.00759905
0.0110467
0.0144995
0.0176148
0.0198008
0.0197245
0.0148359
0.00268679
0.287879
0.574248
0.37845
1.43929
1.79953
1.54575
-0.262219
-0.0773584
-0.0172554
-0.0170633
-0.016152
-0.0147059
-0.0127519
-0.0103268
-0.00748081
-0.0042916
-0.000887563
0.00251024
0.0055204
0.0074249
0.00727113
0.00288914
-0.0124967
-0.0154477
0.0949963
0.0386582
-0.0620268
0.441342
1.11841
0.596291
-0.280129
803.28
814.638
832.618
837.288
873.989
872.825
869.816
861.524
902.583
899.929
896.366
891.522
583.408
579.091
567.03
518.152
6.80186
1.3392
1.4591
1.73929
0.89195
0.960715
1.02085
1.20322
0.715972
0.754539
0.765043
0.941243
0.503823
0.519376
0.545767
0.609074
0.239975
0.298217
0.282568
0.17693
0.0280565
0.0661283
0.0333731
-0.031253
-0.13034
-0.127859
-0.162339
-0.16813
-0.256759
-0.264451
-0.265805
-0.274567
-0.319671
-0.330203
-0.343648
-0.359843
-0.337873
-0.364849
-0.385317
-0.395459
-0.317252
-0.348085
-0.369737
-0.395127
-0.244067
-0.290856
-0.325651
-0.347699
-0.187124
-0.233576
-0.260109
-0.2518
-0.101593
-0.129746
-0.142559
-0.141547
-0.018864
-0.0249399
-0.0199307
-0.00665775
0.0165093
0.0269529
0.24147
0.880425
-0.00989164
0.0445504
0.129216
0.320186
-0.033043
0.0263209
0.120929
0.203701
-0.0896006
3.10556
1.06552
0.144068
3.49825
3.9411
3.18425
1.25032
3.85595
3.88155
3.96025
4.03163
1.80447
4.09552
4.09379
1.75364
-0.120976
0.343936
0.0525678
-0.20321
-0.232829
-0.209912
-0.177808
-0.140796
-0.131809
-0.1157
-0.0968267
-0.0764277
-0.0793991
-0.0675601
-0.0543863
-0.0406388
-0.0412393
-0.0320522
-0.0243752
-0.0184327
-0.017037
-0.00999833
-0.0064467
-0.00193611
-0.00321331
1.39173e-06
0.00600806
0.0127151
0.0084145
0.0131764
0.0188184
0.0252429
0.0274874
0.0324043
0.0381497
0.0430056
0.0270944
0.0330294
0.0400836
0.0483149
0.0144855
0.0210646
0.0211463
0.0315414
-0.0147744
-0.00117781
0.0115715
0.0222642
0.014863
0.0265179
0.045113
0.0667261
0.00430289
0.0185385
0.0351564
0.0526872
-0.0695517
-0.0599918
-0.0412033
-0.012614
-0.175655
-0.116888
-0.0907581
-0.0686395
831.557
808.181
803.355
799.283
799.619
813.317
820.471
806.367
735.26
679.969
686.458
667.595
654.984
659.409
659.59
656
645.97
640.69
630.671
845.453
826.507
830.271
839.097
845.809
855.654
847.134
820.178
748.91
614.564
487.367
378.587
328.582
324.39
329.004
302.848
278.046
269.93
272.315
879.493
849.83
763.957
729.655
803.972
900.15
858.922
648.411
423.686
295.881
177.285
89.0075
43.0975
23.4593
14.9635
9.13409
3.7759
2.86383
2.79375
359.114
123.398
82.1335
233.669
725.651
748.051
409.757
87.2345
16.3746
8.17501
5.40145
3.18801
1.51856
1.48167
1.44762
1.4059
1.82992
2.37846
2.08248
1.85078
0.834046
0.761024
43.5396
141.204
57.0674
3.12897
2.31908
1.73317
1.20478
0.940829
0.874676
1.02927
1.24708
1.29778
1.30036
1.65431
2.53829
1.89929
1.66217
0.747843
0.410247
0.307225
0.532488
1.3033
1.92269
2.15603
1.97171
1.57363
1.03886
0.551606
0.826956
1.08519
1.19138
1.20219
1.87742
1.97913
1.81394
0.930715
0.260774
-0.0135588
0.0808595
0.321571
1.5013
2.40895
2.3306
1.6647
0.625436
0.271239
0.39191
0.664073
0.953274
1.12687
1.11991
1.4454
1.70811
2.3751
0.291871
-0.0290836
-0.187963
-0.175138
-0.0468945
1.48547
2.21017
1.96112
0.282103
0.178909
0.185417
0.302972
0.558477
0.900362
1.07153
1.06042
1.01018
1.18193
2.63161
0.0661346
-0.149951
-0.247087
-0.226829
-0.133966
0.449619
2.07984
1.04695
0.142239
0.0919363
0.129224
0.275741
0.676153
0.820216
0.90526
0.992803
1.01525
1.05808
2.67864
-0.0795663
-0.203097
-0.267908
-0.24308
-0.170108
1.42534
2.10949
1.26326
0.0921286
0.0521508
0.100922
0.28914
0.667901
0.906736
0.922231
0.980028
1.05116
1.84201
2.91216
-0.193757
-0.257616
-0.291429
-0.251157
-0.17126
2.02956
2.26611
1.24695
0.158601
0.105819
0.142924
0.256612
0.59426
1.13189
1.23898
0.985352
1.48279
3.01104
3.01238
-0.298386
-0.332598
-0.324588
-0.24796
-0.134413
1.53428
2.51917
1.00661
0.333298
0.279774
0.275433
0.353099
0.934258
1.15092
1.29472
1.593
3.12429
3.09074
3.08011
-0.388571
-0.400386
-0.349183
-0.222266
-0.0585718
0.641317
2.79145
1.06053
0.520616
0.441757
0.615256
1.17116
1.27289
1.06141
0.984384
1.38405
2.12848
2.25963
1.66891
-0.416148
-0.411891
-0.339719
-0.164844
0.0420524
0.569491
3.04455
1.15002
0.658302
0.937935
2.10353
2.04708
0.969316
0.868967
0.968134
1.04981
1.07488
1.08631
1.26296
-0.418416
-0.376971
-0.279459
-0.0761462
0.148557
0.623081
3.27203
1.25148
0.885775
2.37715
2.25714
1.85477
0.8057
0.859454
0.933253
1.21241
1.05919
1.0699
1.07562
-0.35871
-0.31087
-0.173788
0.031174
0.242925
1.09893
3.22373
1.3038
1.02345
2.3902
2.31703
1.80007
0.796148
0.829938
0.951426
1.3121
1.35516
1.09949
1.06958
-0.25795
-0.183074
-0.0394273
0.139157
0.322889
2.2501
3.26074
1.07843
1.71212
2.35475
2.32377
2.1313
0.771647
0.809495
0.854081
1.28288
1.33736
1.324
2.24705
-0.117986
0.030686
0.363212
0.301027
1.43493
2.65289
2.22533
0.677859
2.41657
2.34313
2.35001
1.77774
0.93323
0.997046
1.04925
0.856709
0.865427
1.30914
2.55602
0.327824
0.89579
0.749265
0.39184
2.1977
2.66304
0.542904
0.509156
1.49721
2.41471
1.94439
0.534739
0.400898
0.677253
1.05602
0.664812
0.688894
0.656077
2.47817
0.944156
1.00922
0.49964
0.442405
1.7355
2.70238
0.432399
0.465553
0.725074
1.64477
0.873612
0.351032
0.397878
0.458854
0.533907
0.554491
1.07372
1.79548
0.765229
0.820836
0.418472
0.427477
0.446767
0.831636
2.03218
0.437659
0.467724
0.80591
0.590325
0.89325
0.797411
0.407866
0.473054
0.52783
0.571563
2.1726
2.15565
0.764407
0.338798
0.646418
2.56167
0.846261
0.308907
0.369339
0.463849
0.607234
0.682291
0.481555
0.558218
0.528281
0.409321
0.48722
0.634355
2.11364
2.22281
1.55666
0.566872
0.320716
3.15642
3.24622
0.522984
0.290067
0.313767
0.555196
0.765975
0.630328
0.333956
0.275671
0.331072
0.402541
0.649181
1.52212
1.55308
0.790794
0.562788
0.560975
2.49681
3.36908
2.86586
0.216183
0.292993
0.330898
0.659696
0.777208
0.53234
0.254319
0.272799
0.309877
0.475438
0.653643
0.592107
0.586077
0.583622
0.561097
0.557288
4.11647
1.49655
0.241603
0.226471
0.308677
0.338613
0.751034
0.751453
0.233762
0.2286
0.244879
0.289979
0.880847
0.963939
0.939815
1.05104
0.591948
0.54396
0.541345
0.0721791
-0.0393105
0.112747
0.236932
0.3019
0.612344
1.57022
0.428313
0.178091
0.193627
0.2093
0.217664
0.544949
2.48516
2.68076
2.81897
2.05364
0.521498
0.671697
-0.15477
-0.00962288
0.120923
0.219594
0.748574
1.81742
1.66016
0.205567
0.161357
0.17777
0.181241
0.159309
0.128371
1.35132
2.23706
2.82638
3.05278
1.26659
1.43708
-0.0808184
0.00889165
0.0895373
0.588158
1.85139
1.8408
1.7328
0.364414
0.179869
0.187319
0.176332
0.375231
0.697424
0.657055
0.597116
1.4711
3.07445
3.17364
1.80635
-0.0404779
0.00899478
0.0599463
0.907881
1.86436
1.87835
1.86307
1.70058
0.45511
0.298364
0.780338
1.24417
1.18565
0.76525
0.613388
0.60326
2.91094
3.21776
1.81609
-0.0166489
0.0141364
0.0422913
0.300133
1.57956
1.91567
1.91507
1.93755
1.89441
1.81318
1.74128
1.21639
0.692354
0.959043
0.878331
0.61647
2.65043
3.27202
2.90623
0.00012969
0.0223325
0.0387308
0.0620975
0.246093
0.971964
1.64899
1.89706
1.86772
1.87411
1.20695
0.341962
0.0816922
0.186153
0.193844
0.628742
3.22791
3.293
3.28246
0.0132688
0.0314645
0.0433914
0.0495662
0.0544617
0.058301
0.13984
0.494139
1.24525
1.23528
0.123724
0.010546
0.00198307
-0.0134855
0.536198
1.55668
3.1188
3.28748
3.28819
0.0254376
0.0413261
0.0513238
0.0556705
0.0563212
0.0510147
0.0318532
0.000985038
0.0663405
0.185061
0.229602
0.0167962
0.00221031
-0.00529731
1.0842
1.60058
0.775594
3.28937
1.22711
0.03708
0.0509558
0.0592319
0.0625329
0.0616952
0.0553597
0.04011
0.0176773
-0.00116934
-0.00385414
0.00485502
0.0124015
0.0175781
0.373798
0.0321081
0.742937
0.779667
2.27995
-0.0275252
0.0481945
0.0588344
0.0651429
0.066922
0.0653911
0.0605262
0.0514091
0.0392181
0.0289246
0.0260176
0.0249745
0.0273963
0.292449
0.760981
0.0397854
0.0108859
0.158623
0.0509656
-0.0313492
0.0617684
0.0643065
0.0684249
0.0680927
0.0651497
0.060626
0.0549207
0.0483918
0.0418487
0.0368391
0.0353257
0.0392505
0.866524
0.782093
-0.00636414
0.0478619
0.301609
0.0473976
0.01339
0.0502833
0.0651555
0.0684862
0.0660705
0.0613706
0.0560913
0.05133
0.0470138
0.0428921
0.0427162
0.0408466
0.0812469
0.883374
0.123856
-0.00715158
0.0748772
0.301764
0.30337
0.0469992
0.0420334
0.0598821
0.0643753
0.0607888
0.0549498
0.0490222
0.0447579
0.0416794
0.0394327
0.0525702
0.123217
0.598024
0.751864
0.00242383
-0.008527
-0.0188935
-0.0270189
-0.0250893
-0.0337536
0.0814683
0.0529092
0.0550661
0.052052
0.0460748
0.039766
0.0358743
0.0339211
0.0287351
0.153516
0.933055
0.858596
0.0132832
-0.00219
-0.00985229
-0.0175242
-0.0237857
-0.0271515
-0.0296682
0.0801394
0.0637461
0.0396007
0.0396928
0.0351076
0.0288453
0.0243742
0.0260571
0.0130405
0.209132
1.12125
0.668181
0.0113436
-0.0046277
-0.0143377
-0.0190986
-0.0234906
-0.0259028
-0.0267311
0.0276226
0.00481116
0.019491
0.0241521
0.0222088
0.0171781
0.0109787
0.0188981
-0.00514339
0.0431414
1.10644
0.243988
-0.0154565
-0.0139121
-0.0242992
-0.023302
-0.0250231
-0.0258604
-0.0249867
-0.0399168
-0.0180029
-0.00169924
0.00602426
0.00662316
0.00538992
0.00099688
0.0028194
-0.0149548
0.0126655
0.253628
-0.0350403
-0.0604269
-0.0287338
-0.0336783
-0.0287213
-0.0267059
-0.025853
-0.0232999
)
;

boundaryField
{
    leftWall
    {
        type            fixedFluxPressure;
        gradient        uniform 0;
        value           nonuniform List<scalar> 
50
(
673.492
668.648
663.66
662.768
667.439
689.757
695.585
697.33
701.627
567.273
152.301
1.11937
0.994612
1.00534
1.02467
1.01936
1.14579
1.26784
1.21125
0.910278
0.491818
0.407397
0.463221
1.49945
2.62163
2.65439
2.3627
0.166658
0.135172
0.361686
1.37009
1.39899
1.43036
0.831923
0.067391
0.0675433
0.0671968
0.0669957
0.0655434
0.0623566
0.0579474
0.0525949
0.0463809
0.0393586
0.031542
0.0229821
0.0138404
0.0042435
-0.00598909
-0.0172554
)
;
    }
    rightWall
    {
        type            fixedFluxPressure;
        gradient        uniform 0;
        value           nonuniform List<scalar> 
50
(
635.567
634.656
633.935
649.112
649.961
648.779
650.165
647.482
630.671
272.315
2.79375
2.08248
1.89929
1.81394
2.3751
2.63161
2.67864
2.91216
3.01238
3.08011
1.66891
1.26296
1.07562
1.06958
2.24705
2.55602
2.47817
0.765229
0.764407
0.566872
0.560975
0.557288
0.541345
0.671697
1.43708
1.80635
1.81609
2.90623
3.28246
3.28819
1.22711
-0.0275252
-0.0313492
0.01339
0.0469992
-0.0337536
-0.0296682
-0.0267311
-0.0249867
-0.0232999
)
;
    }
    lowerWall
    {
        type            fixedFluxPressure;
        gradient        uniform 0;
        value           nonuniform List<scalar> 
62
(
673.492
674.76
674.01
672.434
671.246
670.653
671.824
675.281
680.75
686.833
694.811
705.016
717.237
730.635
744.992
761.512
779.298
796.51
811.752
826.545
840.475
850.64
855.732
855.732
856.751
859.109
863.077
866.903
870.302
871.521
868.682
803.28
814.638
832.618
837.288
804.199
804.272
803.924
803.263
803.516
815.739
821.145
825.884
804.199
805.058
804.272
799.214
805.147
813.659
804.603
787.195
765.082
739.231
711.014
689.748
680.759
679.145
671.441
656.059
646.377
637.772
635.567
)
;
    }
    atmosphere
    {
        type            totalPressure;
        rho             rho;
        psi             none;
        gamma           1;
        p0              uniform 0;
        value           nonuniform List<scalar> 
46
(
-0.0234513
-0.0235995
-0.0227055
-0.0213
-0.0193994
-0.0170422
-0.0142804
-0.0111904
-0.00790397
-0.00464638
-0.00181028
-0.00011282
0
0
0
0
0
0
0
0
0
0
-0.128009
-0.203838
-0.125397
-0.110781
-0.0887821
-0.0485434
-0.0296293
-0.0131513
-0.00165329
0
0
0
-0.00107126
-0.0130157
-0.0164687
0
-0.0390837
-0.0747011
-0.0345456
-0.0377333
-0.0315712
-0.0275355
-0.025914
-0.0221004
)
;
    }
    defaultFaces
    {
        type            empty;
    }
}


// ************************************************************************* //
