/*--------------------------------*- C++ -*----------------------------------*\
| =========                 |                                                 |
| \\      /  F ield         | OpenFOAM: The Open Source CFD Toolbox           |
|  \\    /   O peration     | Version:  2.3.0                                 |
|   \\  /    A nd           | Web:      www.OpenFOAM.org                      |
|    \\/     M anipulation  |                                                 |
\*---------------------------------------------------------------------------*/
FoamFile
{
    version     2.0;
    format      ascii;
    class       surfaceScalarField;
    location    "2.95";
    object      phi;
}
// * * * * * * * * * * * * * * * * * * * * * * * * * * * * * * * * * * * * * //

dimensions      [0 3 -1 0 0 0 0];

internalField   nonuniform List<scalar> 
4432
(
-3.01248e-06
3.01248e-06
-2.77336e-06
-2.39115e-07
-2.02282e-06
-7.50543e-07
-2.07113e-06
4.83128e-08
-1.92072e-06
-1.50418e-07
-1.14425e-06
-7.76473e-07
-9.47779e-07
-1.96466e-07
-2.4613e-06
1.51353e-06
-4.11007e-06
1.64876e-06
-4.6966e-06
5.86535e-07
-3.94413e-06
-7.52473e-07
-1.98552e-06
-1.95861e-06
8.29156e-07
-2.81467e-06
4.03177e-06
-3.20261e-06
7.1131e-06
-3.08133e-06
8.8403e-06
-1.7272e-06
7.06931e-06
1.77099e-06
2.47645e-06
4.59286e-06
-1.58592e-06
4.06238e-06
-3.21607e-06
1.63014e-06
-3.21283e-06
-3.23599e-09
-2.49766e-06
-7.15174e-07
-2.49766e-06
-3.74811e-06
6.76059e-06
-5.73307e-06
1.74584e-06
-6.38233e-06
-1.01284e-07
-7.03852e-06
7.0451e-07
-7.17251e-06
-1.64404e-08
-6.43305e-06
-1.51592e-06
-4.93588e-06
-1.69363e-06
-3.4873e-06
6.49472e-08
-2.45213e-06
6.13595e-07
-1.13215e-06
-7.33437e-07
7.46615e-07
-2.63125e-06
3.09734e-06
-4.30932e-06
5.83387e-06
-5.55121e-06
8.60022e-06
-5.96896e-06
1.12245e-05
-5.70555e-06
1.37919e-05
-4.29461e-06
1.51778e-05
3.85091e-07
1.35866e-05
6.18407e-06
9.62387e-06
8.02507e-06
5.42842e-06
5.8256e-06
2.22656e-06
3.19862e-06
8.23557e-08
1.42904e-06
-2.4153e-06
-1.35414e-06
8.11473e-06
-5.14057e-06
5.53227e-06
-6.14493e-06
9.03075e-07
-6.42864e-06
9.88217e-07
-6.72226e-06
2.77181e-07
-6.70419e-06
-1.53399e-06
-5.85328e-06
-2.54454e-06
-3.50065e-06
-2.28768e-06
-1.74565e-07
-2.7125e-06
3.37428e-06
-4.28228e-06
6.525e-06
-5.78197e-06
9.47517e-06
-7.25949e-06
1.21357e-05
-8.2117e-06
1.43654e-05
-8.19867e-06
1.60604e-05
-7.40057e-06
1.73558e-05
-5.59003e-06
1.87638e-05
-1.02287e-06
1.8823e-05
6.12482e-06
1.61365e-05
1.07116e-05
1.1559e-05
1.04031e-05
6.6998e-06
8.05783e-06
2.6762e-06
5.45264e-06
2.60902e-07
2.60733e-06
5.50741e-06
1.91533e-07
7.94807e-06
-1.43202e-06
2.52663e-06
-1.53308e-06
1.08928e-06
-1.461e-06
2.05099e-07
-1.02134e-06
-1.97365e-06
-4.49215e-08
-3.52095e-06
1.96107e-06
-4.29366e-06
5.29394e-06
-6.04537e-06
8.73065e-06
-7.71898e-06
1.18484e-05
-8.8997e-06
1.45669e-05
-9.97796e-06
1.68642e-05
-1.05091e-05
1.86767e-05
-1.00111e-05
1.97931e-05
-8.51699e-06
2.02926e-05
-6.08954e-06
2.09386e-05
-1.66885e-06
2.09852e-05
6.07815e-06
1.89896e-05
1.27072e-05
1.4742e-05
1.46507e-05
9.60622e-06
1.31937e-05
4.63644e-06
1.04224e-05
4.89735e-06
2.90705e-06
2.60036e-06
3.57652e-06
7.2786e-06
3.6216e-06
2.48155e-06
3.65211e-06
1.05876e-06
3.74979e-06
1.0742e-07
4.02631e-06
-2.25016e-06
4.95899e-06
-4.45364e-06
6.68259e-06
-6.01726e-06
9.10031e-06
-8.46309e-06
1.13933e-05
-1.00119e-05
1.33734e-05
-1.08798e-05
1.51787e-05
-1.17833e-05
1.69022e-05
-1.22326e-05
1.85656e-05
-1.16745e-05
1.98984e-05
-9.84974e-06
2.06986e-05
-6.88973e-06
2.12331e-05
-2.20343e-06
2.15083e-05
5.80297e-06
2.01809e-05
1.40346e-05
1.65443e-05
1.82873e-05
1.16517e-05
1.80862e-05
6.41427e-06
1.56598e-05
1.13116e-05
-3.99442e-08
2.6403e-06
2.33271e-06
4.90595e-06
4.33081e-06
4.83445e-07
5.82949e-06
-4.39918e-07
6.4796e-06
-5.42681e-07
6.45306e-06
-2.22362e-06
6.49468e-06
-4.49527e-06
6.93102e-06
-6.45359e-06
7.54352e-06
-9.0756e-06
7.96435e-06
-1.04328e-05
8.63576e-06
-1.15512e-05
9.66547e-06
-1.2813e-05
1.11738e-05
-1.37409e-05
1.32227e-05
-1.37234e-05
1.56205e-05
-1.22476e-05
1.77053e-05
-8.97453e-06
1.91526e-05
-3.65064e-06
2.0359e-05
4.59649e-06
2.02363e-05
1.41574e-05
1.78616e-05
2.06619e-05
1.35679e-05
2.238e-05
8.26731e-06
2.09604e-05
1.95789e-05
-1.76755e-06
4.40785e-06
1.6953e-06
1.4431e-06
5.1473e-06
-2.96855e-06
6.62439e-06
-1.917e-06
6.50928e-06
-4.27575e-07
5.11078e-06
-8.25127e-07
3.29899e-06
-2.68348e-06
1.78081e-06
-4.93541e-06
3.58373e-07
-7.65316e-06
-7.63964e-07
-9.31042e-06
-1.09432e-06
-1.12209e-05
-5.34275e-07
-1.33731e-05
1.06412e-06
-1.53393e-05
3.92007e-06
-1.65793e-05
7.81118e-06
-1.61387e-05
1.18206e-05
-1.2984e-05
1.49374e-05
-6.76739e-06
1.74889e-05
2.045e-06
1.91439e-05
1.25023e-05
1.86983e-05
2.11075e-05
1.57731e-05
2.53052e-05
1.11908e-05
2.55427e-05
3.07697e-05
-4.34532e-08
4.4513e-06
3.81649e-06
-2.41684e-06
5.972e-06
-5.12406e-06
5.54185e-06
-1.48685e-06
3.68252e-06
1.43176e-06
8.09516e-07
2.04787e-06
-2.45423e-06
5.8027e-07
-5.46295e-06
-1.9267e-06
-8.09642e-06
-5.01969e-06
-1.00571e-05
-7.34975e-06
-1.11283e-05
-1.01497e-05
-1.10515e-05
-1.34499e-05
-9.65573e-06
-1.6735e-05
-6.62735e-06
-1.96077e-05
-1.93677e-06
-2.08293e-05
3.84632e-06
-1.87671e-05
9.09792e-06
-1.2019e-05
1.33613e-05
-2.21839e-06
1.69694e-05
8.89425e-06
1.8995e-05
1.90819e-05
1.83668e-05
2.59334e-05
1.38608e-05
3.00487e-05
4.46305e-05
-8.83105e-07
8.83105e-07
-5.14775e-06
4.26464e-06
-1.08868e-05
5.73907e-06
-1.44985e-05
3.61169e-06
-8.47555e-06
-6.02298e-06
2.70892e-06
-1.11845e-05
1.02754e-05
-7.56649e-06
1.46869e-05
-4.41147e-06
1.8987e-05
-4.3001e-06
2.37459e-05
-4.75896e-06
2.63649e-05
-2.61901e-06
2.40179e-05
2.34707e-06
1.63715e-05
7.64638e-06
9.31559e-06
7.0559e-06
4.5699e-06
4.74569e-06
-1.25442e-06
5.82432e-06
-3.06364e-06
1.80922e-06
-2.84452e-06
-2.19112e-07
-2.84452e-06
-3.12765e-06
4.01076e-06
-9.51116e-06
1.06481e-05
-1.44286e-05
1.06565e-05
-1.36384e-05
2.82152e-06
-7.61095e-06
-1.20505e-05
8.31541e-07
-1.96269e-05
9.14489e-06
-1.58798e-05
1.48958e-05
-1.01624e-05
1.97776e-05
-9.18192e-06
2.45021e-05
-9.48347e-06
2.72805e-05
-5.39737e-06
2.73817e-05
2.24589e-06
2.34226e-05
1.16055e-05
1.47508e-05
1.57277e-05
6.37559e-06
1.31209e-05
1.11127e-06
1.10886e-05
-8.9831e-07
3.8188e-06
-2.64109e-06
1.52366e-06
-5.48561e-06
-3.46671e-06
7.47747e-06
-8.49502e-06
1.56765e-05
-1.16279e-05
1.37894e-05
-1.05631e-05
1.7567e-06
-7.11952e-06
-1.54941e-05
-1.56433e-06
-2.51821e-05
5.68829e-06
-2.31325e-05
1.19129e-05
-1.63871e-05
1.7395e-05
-1.4664e-05
2.25699e-05
-1.46583e-05
2.49352e-05
-7.76266e-06
2.42081e-05
2.97302e-06
2.17977e-05
1.40158e-05
1.50079e-05
2.25175e-05
6.89575e-06
2.1233e-05
3.91464e-06
1.40697e-05
2.77411e-06
4.95933e-06
-5.89825e-07
4.88759e-06
-6.07543e-06
-2.70208e-06
1.01795e-05
-5.18607e-06
1.81604e-05
-7.23109e-06
1.58345e-05
-6.80467e-06
1.33029e-06
-5.32081e-06
-1.6978e-05
-2.15285e-06
-2.83501e-05
3.64906e-06
-2.89344e-05
9.97675e-06
-2.27147e-05
1.51164e-05
-1.98037e-05
1.91518e-05
-1.86937e-05
2.09062e-05
-9.51714e-06
1.98064e-05
4.07285e-06
1.81903e-05
1.5632e-05
1.369e-05
2.70178e-05
7.63417e-06
2.72889e-05
5.85456e-06
1.58493e-05
5.40498e-06
5.40892e-06
1.6749e-06
8.61766e-06
-4.40053e-06
-2.27735e-06
1.24569e-05
-1.79993e-06
1.7683e-05
-2.54476e-06
1.65793e-05
-2.96326e-06
1.74879e-06
-2.47933e-06
-1.74619e-05
-1.00027e-06
-2.98291e-05
3.52253e-06
-3.34572e-05
8.96922e-06
-2.81614e-05
1.19205e-05
-2.2755e-05
1.31977e-05
-1.99709e-05
1.42717e-05
-1.05912e-05
1.38983e-05
4.44628e-06
1.35086e-05
1.60217e-05
1.17515e-05
2.87748e-05
8.83476e-06
3.02056e-05
7.45892e-06
1.72252e-05
6.21578e-06
6.65206e-06
3.64006e-06
1.11934e-05
-7.6047e-07
-2.90927e-06
1.53662e-05
5.89296e-07
1.41845e-05
2.48192e-06
1.46866e-05
1.11886e-06
3.11186e-06
9.01668e-07
-1.72447e-05
1.37306e-06
-3.03005e-05
4.19175e-06
-3.62759e-05
7.46282e-06
-3.14325e-05
7.40672e-06
-2.26989e-05
5.72503e-06
-1.82892e-05
6.09025e-06
-1.09564e-05
6.43296e-06
4.10357e-06
7.67996e-06
1.47747e-05
9.2198e-06
2.7235e-05
9.50786e-06
2.99176e-05
8.90347e-06
1.78296e-05
5.33256e-06
1.0223e-05
4.11899e-06
1.24069e-05
3.35853e-06
-2.30145e-06
1.76676e-05
6.13227e-07
1.12698e-05
4.23042e-06
1.10694e-05
4.35061e-06
2.99168e-06
3.62947e-06
-1.65236e-05
4.58613e-06
-3.12572e-05
5.53549e-06
-3.72252e-05
6.2608e-06
-3.21578e-05
3.46012e-06
-1.98983e-05
-7.76025e-07
-1.4053e-05
-1.86758e-06
-9.86482e-06
-6.56591e-07
2.89258e-06
2.24596e-06
1.18722e-05
6.19883e-06
2.32821e-05
9.00733e-06
2.71091e-05
8.74766e-06
1.80892e-05
4.74819e-06
1.42224e-05
4.12725e-06
1.30279e-05
7.48578e-06
1.13915e-06
1.65285e-05
2.88199e-06
9.52695e-06
4.65206e-06
9.29937e-06
6.82924e-06
8.14498e-07
7.27383e-06
-1.69682e-05
8.47918e-06
-3.24625e-05
8.0084e-06
-3.67544e-05
6.65495e-06
-3.08043e-05
2.05294e-06
-1.52962e-05
-4.6059e-06
-7.39419e-06
-7.69209e-06
-6.77864e-06
-6.04996e-06
1.25045e-06
-2.88908e-06
8.71128e-06
2.24294e-06
1.81501e-05
6.04183e-06
2.33102e-05
5.59898e-06
1.85321e-05
3.2712e-06
1.65502e-05
3.44287e-06
1.28562e-05
1.09286e-05
6.53601e-06
-2.08471e-06
9.01576e-06
-4.89659e-06
5.74901e-06
-1.85731e-06
1.30727e-06
2.95489e-06
-3.36667e-06
6.1057e-06
-8.6179e-06
7.2991e-06
-1.42495e-05
6.21187e-06
-1.92538e-05
3.07765e-06
-2.34211e-05
-8.5239e-07
-2.68093e-05
-3.96161e-06
-2.94122e-05
-7.5468e-06
-3.13747e-05
-1.14874e-05
-3.2208e-05
-1.59017e-05
-3.11328e-05
-2.0683e-05
-2.64437e-05
-2.55183e-05
-1.58612e-05
-2.93496e-05
-2.32543e-06
-2.55548e-05
1.1517e-05
-1.60608e-05
2.54099e-05
-4.99862e-06
3.79483e-05
6.54349e-06
4.73763e-05
1.65054e-05
5.45986e-05
2.28263e-05
3.10859e-05
6.81433e-05
5.31304e-06
-7.39774e-06
-5.68951e-07
9.85399e-07
-4.48191e-06
2.05565e-06
-4.56702e-06
3.03999e-06
-3.92176e-06
5.46044e-06
-2.85571e-06
6.23304e-06
-6.48014e-07
4.00417e-06
3.63346e-06
-1.20382e-06
1.03181e-05
-7.537e-06
1.89465e-05
-1.25901e-05
2.48686e-05
-1.34688e-05
2.32039e-05
-9.82272e-06
1.22159e-05
-4.91365e-06
-3.33532e-06
-5.13179e-06
-1.89377e-05
-9.91594e-06
-2.3911e-05
-2.43762e-05
-2.10781e-05
-2.83877e-05
-1.16492e-05
-2.54898e-05
4.67929e-06
-2.13271e-05
2.5251e-05
-1.40282e-05
4.51206e-05
-3.36419e-06
6.27067e-05
5.24025e-06
1.28157e-05
8.09769e-05
3.52095e-06
-1.09187e-05
2.29317e-05
-1.84253e-05
3.94828e-05
-1.44955e-05
4.60951e-05
-3.57227e-06
2.43579e-05
2.71976e-05
-6.57182e-06
3.71627e-05
-2.00232e-05
1.74556e-05
8.21969e-06
-2.94466e-05
6.60415e-05
-6.53588e-05
0.000131051
-7.75992e-05
0.000186952
-6.93703e-05
0.000216774
-3.96446e-05
0.000209314
2.5469e-06
0.000142589
6.15936e-05
8.84345e-05
4.42381e-05
5.35043e-05
1.0554e-05
2.11226e-05
3.99401e-06
1.91778e-06
-6.28497e-06
-1.42636e-06
-1.7983e-05
8.76157e-06
-2.42162e-05
2.46804e-05
-1.92831e-05
4.13771e-05
-1.14564e-05
-4.72145e-06
5.89143e-05
-4.40622e-05
3.31435e-05
-6.90191e-05
6.53172e-06
-7.22761e-05
-1.12386e-05
-7.06365e-05
-5.21209e-06
-6.22651e-05
1.88262e-05
-3.47383e-05
9.63626e-06
1.00132e-05
-2.72954e-05
6.16827e-05
-8.11159e-05
0.000105867
-0.000109543
0.000139796
-0.000111528
0.000167459
-9.7033e-05
0.000198709
-7.08955e-05
0.000236439
-3.51826e-05
0.000272508
2.55247e-05
0.000254796
6.19497e-05
0.000209888
5.54616e-05
0.00017481
3.90721e-05
0.000107339
6.11862e-05
7.03085e-05
1.90477e-05
4.71867e-05
-1.09432e-06
3.58006e-05
-7.89692e-06
3.66678e-05
-1.23236e-05
-1.33598e-05
4.53061e-05
-4.04416e-05
7.35853e-05
-6.53019e-05
3.1392e-05
-6.86555e-05
-7.88522e-06
-5.73207e-05
-1.6547e-05
-2.51682e-05
-1.33263e-05
2.45582e-05
-4.009e-05
7.81911e-05
-8.09283e-05
0.000112217
-0.000115142
0.000129837
-0.000127164
0.000138487
-0.000120177
0.000146752
-0.000105298
0.0001636
-8.77433e-05
0.000193336
-6.49187e-05
0.000243436
-2.45755e-05
0.000289386
1.59993e-05
0.000307792
3.70553e-05
0.00030126
4.56044e-05
0.000299094
6.33521e-05
0.000257378
6.07642e-05
0.0002107
4.5583e-05
0.000155371
4.74317e-05
0.000121436
2.16112e-05
-1.00772e-05
0.000118154
-2.52014e-05
9.87867e-05
-3.54862e-05
4.16767e-05
-3.16949e-05
-1.16767e-05
-1.45817e-05
-3.36601e-05
1.7349e-05
-4.52567e-05
5.59821e-05
-7.87233e-05
0.00010219
-0.000127137
0.000124325
-0.000137276
0.00011984
-0.00012268
0.000111679
-0.000112016
0.000113398
-0.000107017
0.000127729
-0.000102074
0.000150517
-8.77067e-05
0.000183616
-5.76746e-05
0.000221512
-2.18965e-05
0.00025496
3.60682e-06
0.000278838
2.17272e-05
0.00029257
4.96193e-05
0.000280016
7.33188e-05
0.000246014
7.95849e-05
0.000208251
8.51955e-05
0.000157866
7.19957e-05
4.1036e-05
0.000106753
-1.30142e-06
0.000100088
1.5166e-06
3.88585e-05
6.01423e-06
-1.61744e-05
2.13505e-05
-4.89962e-05
4.33087e-05
-6.72149e-05
6.56227e-05
-0.000101037
9.29005e-05
-0.000154415
0.000104856
-0.000149232
9.56153e-05
-0.000113438
9.05024e-05
-0.000106903
9.81433e-05
-0.000114658
0.00011333
-0.00011726
0.000134627
-0.000109005
0.000160905
-8.39518e-05
0.000187321
-4.8313e-05
0.000208098
-1.71701e-05
0.000224754
5.07133e-06
0.000241692
3.2681e-05
0.000250344
6.46669e-05
0.00023665
9.3279e-05
0.000205138
0.000116707
0.000164385
0.000112749
8.72842e-05
0.000118137
2.59229e-05
7.41651e-05
3.63296e-05
2.84517e-05
4.92268e-05
-2.90717e-05
6.11747e-05
-6.09441e-05
6.62689e-05
-7.23092e-05
7.06917e-05
-0.00010546
7.59374e-05
-0.00015966
7.45467e-05
-0.000147841
6.80925e-05
-0.000106984
7.62146e-05
-0.000115025
9.25677e-05
-0.000131012
0.000109337
-0.00013403
0.000127829
-0.000127497
0.000149131
-0.000105254
0.000171234
-7.04159e-05
0.000187198
-3.3134e-05
0.000193784
-1.51491e-06
0.000199304
2.71612e-05
0.000203529
6.04422e-05
0.00019422
0.000102588
0.000168979
0.000141947
0.000132416
0.000149313
0.00013413
8.55693e-05
3.2179e-05
4.19859e-05
5.75374e-05
3.09306e-06
7.95892e-05
-5.11236e-05
8.98548e-05
-7.12097e-05
8.36915e-05
-6.61461e-05
6.90835e-05
-9.08524e-05
6.03692e-05
-0.000150946
5.04207e-05
-0.000137893
4.5626e-05
-0.00010219
5.38606e-05
-0.00012326
6.55163e-05
-0.000142668
7.89822e-05
-0.000147495
9.44479e-05
-0.000142963
0.000110032
-0.000120838
0.000124813
-8.51972e-05
0.00013782
-4.61411e-05
0.000146029
-9.72363e-06
0.000147124
2.60656e-05
0.000141781
6.57857e-05
0.000127602
0.000116766
0.000106371
0.000163179
7.87078e-05
0.000176976
0.000177752
3.50865e-05
1.04188e-05
3.15671e-05
4.47398e-05
-3.12281e-05
7.79805e-05
-8.43643e-05
9.34279e-05
-8.66572e-05
8.75796e-05
-6.02977e-05
6.3686e-05
-6.69588e-05
4.75567e-05
-0.000134817
3.77891e-05
-0.000128125
3.48614e-05
-9.92622e-05
3.54994e-05
-0.000123898
3.74327e-05
-0.000144601
4.42567e-05
-0.00015432
5.44339e-05
-0.00015314
6.59105e-05
-0.000132315
7.61758e-05
-9.54624e-05
8.40833e-05
-5.40486e-05
8.76181e-05
-1.32586e-05
8.49618e-05
2.87218e-05
7.37658e-05
7.69818e-05
5.82438e-05
0.000132289
4.43239e-05
0.000177099
2.27507e-05
0.000198549
0.00021686
-1.63572e-05
-1.17047e-05
4.32715e-05
1.94139e-05
-6.23469e-05
5.08572e-05
-0.000115808
6.95431e-05
-0.000105343
7.25457e-05
-6.33002e-05
5.80833e-05
-5.24962e-05
3.62868e-05
-0.00011302
3.07203e-05
-0.000122559
2.92351e-05
-9.77772e-05
2.24348e-05
-0.000117097
1.52797e-05
-0.000137446
1.26023e-05
-0.000151642
1.50769e-05
-0.000155614
2.22502e-05
-0.000139488
3.00495e-05
-0.000103262
3.48232e-05
-5.88223e-05
3.49544e-05
-1.33901e-05
2.90354e-05
3.4641e-05
1.84768e-05
8.75404e-05
7.96415e-06
0.000142801
-3.5468e-06
0.000188609
-2.58184e-05
0.000220821
0.000245516
-5.4475e-05
-1.28737e-05
5.61452e-05
8.20119e-06
-8.34217e-05
2.38361e-05
-0.000131442
3.89284e-05
-0.000120436
5.14628e-05
-7.58347e-05
5.12395e-05
-5.22729e-05
2.69585e-05
-8.8739e-05
2.04633e-05
-0.000116064
1.96957e-05
-9.70098e-05
9.09357e-06
-0.000106495
-4.7036e-06
-0.000123649
-1.57523e-05
-0.000140594
-2.09125e-05
-0.000150454
-1.90861e-05
-0.000141315
-1.2815e-05
-0.000109533
-8.01775e-06
-6.36192e-05
-7.56328e-06
-1.38445e-05
-1.19149e-05
3.89925e-05
-1.92328e-05
9.48584e-05
-2.79031e-05
0.000151471
-4.11699e-05
0.000201876
-6.01856e-05
0.000239836
0.000257199
-7.18682e-05
3.10708e-06
5.30382e-05
1.25982e-05
-9.29127e-05
1.8568e-05
-0.000137412
2.45268e-05
-0.000126394
3.90711e-05
-9.03789e-05
4.36303e-05
-5.68321e-05
2.05296e-05
-6.56386e-05
5.76562e-06
-0.0001013
2.4089e-06
-9.36531e-05
-8.57512e-06
-9.55111e-05
-2.318e-05
-0.000109044
-3.86404e-05
-0.000125133
-5.11169e-05
-0.000137978
-5.58929e-05
-0.000136539
-5.22808e-05
-0.000113145
-4.5453e-05
-7.04469e-05
-4.16741e-05
-1.76232e-05
-4.18969e-05
3.92151e-05
-4.6364e-05
9.93256e-05
-5.47042e-05
0.000159811
-6.60991e-05
0.000213271
-7.36791e-05
0.000247416
0.000251723
-6.82041e-05
2.7067e-05
2.59712e-05
3.37579e-05
-9.96033e-05
3.4245e-05
-0.0001379
2.62198e-05
-0.000118369
3.10661e-05
-9.5225e-05
3.7676e-05
-6.34419e-05
1.90086e-05
-4.69713e-05
-5.39457e-06
-7.68967e-05
-1.55099e-05
-8.35376e-05
-2.55616e-05
-8.54594e-05
-3.88854e-05
-9.57201e-05
-5.43666e-05
-0.000109652
-7.0179e-05
-0.000122165
-8.17632e-05
-0.000124954
-8.36437e-05
-0.000111264
-7.72823e-05
-7.68085e-05
-7.05645e-05
-2.4341e-05
-6.66028e-05
3.52534e-05
-6.71432e-05
9.98662e-05
-7.05059e-05
0.000163174
-7.19328e-05
0.000214698
-6.47987e-05
0.000240282
0.000233291
-4.6366e-05
3.94422e-05
-1.34709e-05
5.33676e-05
-0.000113529
4.84827e-05
-0.000133015
3.12139e-05
-0.0001011
2.36939e-05
-8.77048e-05
3.53882e-05
-7.51362e-05
2.74878e-05
-3.90707e-05
-3.2302e-06
-4.61787e-05
-2.19589e-05
-6.48089e-05
-3.31924e-05
-7.42257e-05
-4.51924e-05
-8.37201e-05
-5.91561e-05
-9.56878e-05
-7.48485e-05
-0.000106472
-8.98373e-05
-0.000109965
-9.85388e-05
-0.000102563
-9.57426e-05
-7.96045e-05
-8.7004e-05
-3.30795e-05
-7.90606e-05
2.731e-05
-7.30578e-05
9.38633e-05
-6.66197e-05
0.000156736
-5.52868e-05
0.000203365
-3.60143e-05
0.00022101
0.000206762
-9.48534e-06
3.88502e-05
-5.2321e-05
5.3866e-05
-0.000128545
4.38446e-05
-0.000122993
3.01071e-05
-8.73628e-05
2.01121e-05
-7.77098e-05
3.27413e-05
-8.77655e-05
4.32156e-05
-4.9545e-05
1.91983e-05
-2.21613e-05
-9.38347e-06
-3.62271e-05
-2.53077e-05
-5.83013e-05
-3.69158e-05
-7.21119e-05
-4.88801e-05
-8.37237e-05
-6.26206e-05
-9.27319e-05
-7.70668e-05
-9.55192e-05
-8.90462e-05
-9.05834e-05
-9.01933e-05
-7.84574e-05
-8.01731e-05
-4.30997e-05
-6.79601e-05
1.50971e-05
-5.48664e-05
8.07696e-05
-3.91759e-05
0.000141046
-1.82013e-05
0.000182391
8.65045e-06
0.000194158
0.000176753
3.86594e-05
3.30779e-05
-8.53988e-05
3.51817e-05
-0.000130648
2.07404e-05
-0.000108552
1.78941e-05
-8.45163e-05
1.65152e-05
-7.63309e-05
2.45799e-05
-9.58301e-05
4.62214e-05
-7.11865e-05
4.95189e-05
-2.54589e-05
2.74906e-05
-1.41986e-05
6.69836e-06
-3.75089e-05
-5.90647e-06
-5.95069e-05
-1.65869e-05
-7.30433e-05
-2.96081e-05
-7.97108e-05
-4.35261e-05
-8.1601e-05
-5.46277e-05
-7.94818e-05
-5.56196e-05
-7.74655e-05
-4.5075e-05
-5.36444e-05
-3.12108e-05
1.23295e-06
-1.46393e-05
6.41982e-05
6.66533e-06
0.000119741
3.29187e-05
0.000156137
6.20937e-05
0.000164983
0.00014704
9.18061e-05
2.06826e-05
-0.000106081
7.15257e-06
-0.000117118
-2.6503e-06
-9.87492e-05
1.55818e-06
-8.87246e-05
8.07854e-06
-8.28513e-05
9.9123e-06
-9.76637e-05
2.79958e-05
-8.927e-05
5.1862e-05
-4.93252e-05
5.80677e-05
-2.04042e-05
4.74568e-05
-2.68977e-05
3.66259e-05
-4.8676e-05
2.95886e-05
-6.6006e-05
2.19532e-05
-7.20754e-05
1.16161e-05
-7.12638e-05
3.20864e-06
-7.10743e-05
4.28213e-06
-7.8539e-05
8.98952e-06
-5.83518e-05
2.37539e-05
-1.35313e-05
4.0953e-05
4.69993e-05
6.21959e-05
9.84984e-05
8.78735e-05
0.00013046
0.000115269
0.000137588
0.000121083
0.000141226
5.07989e-07
-0.000106589
-1.33342e-05
-0.000103276
-1.63989e-05
-9.56842e-05
-1.16795e-05
-9.34443e-05
-4.01541e-06
-9.05153e-05
-4.14551e-06
-9.75334e-05
4.00373e-06
-9.74193e-05
2.4891e-05
-7.02125e-05
4.68799e-05
-4.23931e-05
5.66902e-05
-3.67079e-05
5.88674e-05
-5.08531e-05
6.01062e-05
-6.72448e-05
6.13289e-05
-7.32981e-05
6.0773e-05
-7.07078e-05
6.29195e-05
-7.32209e-05
6.15219e-05
-7.71415e-05
5.79687e-05
-5.47986e-05
6.27017e-05
-1.82641e-05
8.25616e-05
2.71395e-05
0.000107573
7.34871e-05
0.000132146
0.000105886
0.000153935
0.000115799
0.000104456
0.000170563
-9.41155e-06
-9.71779e-05
-1.72927e-05
-9.53953e-05
-1.79206e-05
-9.50561e-05
-1.60842e-05
-9.52809e-05
-9.39271e-06
-9.72066e-05
-7.46668e-06
-9.94595e-05
-7.88373e-06
-9.70023e-05
1.88566e-06
-7.99818e-05
2.00515e-05
-6.05588e-05
3.85156e-05
-5.5172e-05
5.2465e-05
-6.48026e-05
6.21131e-05
-7.68928e-05
6.9191e-05
-8.0376e-05
7.52209e-05
-7.67376e-05
8.08614e-05
-7.88614e-05
8.29114e-05
-7.91914e-05
8.44064e-05
-5.62935e-05
8.65894e-05
-2.0447e-05
9.83903e-05
1.53388e-05
0.00012111
5.07673e-05
0.000148355
7.86417e-05
0.000167996
9.61577e-05
9.48423e-05
0.000177609
-4.99477e-06
-9.21832e-05
-1.05325e-05
-8.98574e-05
-1.22343e-05
-9.33544e-05
-1.23455e-05
-9.51696e-05
-8.19232e-06
-0.00010136
-4.00556e-06
-0.000103646
-5.60384e-06
-9.5404e-05
-3.51408e-06
-8.20713e-05
6.93869e-06
-7.10115e-05
2.38951e-05
-7.21284e-05
3.8105e-05
-7.90125e-05
4.7219e-05
-8.60067e-05
5.46965e-05
-8.78534e-05
6.13839e-05
-8.3425e-05
6.21022e-05
-7.95797e-05
6.10929e-05
-7.8182e-05
6.49406e-05
-6.01412e-05
7.27591e-05
-2.82654e-05
8.64437e-05
1.65427e-06
0.000109931
2.72797e-05
0.000137906
5.06671e-05
0.00015786
7.6203e-05
8.6397e-05
0.000166306
2.23174e-06
-9.4415e-05
-3.13854e-06
-8.4487e-05
-5.76564e-06
-9.07274e-05
-7.93173e-06
-9.30033e-05
-8.02669e-06
-0.000101265
-6.13163e-06
-0.000105542
-4.90438e-06
-9.66311e-05
-3.46661e-06
-8.35089e-05
2.07733e-06
-7.65555e-05
1.08689e-05
-8.09199e-05
1.73687e-05
-8.55121e-05
1.99599e-05
-8.85978e-05
2.13603e-05
-8.92536e-05
2.24619e-05
-8.45265e-05
1.99343e-05
-7.7052e-05
1.46564e-05
-7.29039e-05
1.61631e-05
-6.16477e-05
2.63503e-05
-3.84526e-05
4.64637e-05
-1.84591e-05
7.43499e-05
-6.0648e-07
0.000102102
2.29151e-05
0.000120125
5.81799e-05
8.03856e-05
0.000126136
2.94599e-06
-9.7361e-05
-3.90842e-07
-8.11501e-05
-3.35914e-06
-8.77591e-05
-7.38774e-06
-8.89744e-05
-1.17945e-05
-9.68581e-05
-1.5015e-05
-0.000102321
-1.60478e-05
-9.55981e-05
-1.52523e-05
-8.43043e-05
-1.16307e-05
-8.01771e-05
-8.21036e-06
-8.43401e-05
-6.81717e-06
-8.6905e-05
-9.32983e-06
-8.60849e-05
-1.42794e-05
-8.43039e-05
-1.91299e-05
-7.96759e-05
-2.59824e-05
-7.01994e-05
-3.65516e-05
-6.23345e-05
-4.31223e-05
-5.50769e-05
-3.4993e-05
-4.65817e-05
-8.97364e-06
-4.44784e-05
2.22511e-05
-3.18312e-05
5.00179e-05
-4.8517e-06
7.16692e-05
3.65286e-05
6.94083e-05
8.26466e-05
-2.41327e-06
-9.49476e-05
-2.61439e-06
-8.0949e-05
-5.04756e-06
-8.53257e-05
-1.01116e-05
-8.39103e-05
-1.67217e-05
-9.0248e-05
-2.37685e-05
-9.5274e-05
-2.83186e-05
-9.10478e-05
-2.90773e-05
-8.35456e-05
-2.61597e-05
-8.30947e-05
-2.34355e-05
-8.70641e-05
-2.36796e-05
-8.66607e-05
-2.87876e-05
-8.09769e-05
-3.7314e-05
-7.57775e-05
-4.75147e-05
-6.94751e-05
-5.94032e-05
-5.83108e-05
-7.19758e-05
-4.97618e-05
-7.81797e-05
-4.8873e-05
-7.11264e-05
-5.36349e-05
-5.61037e-05
-5.95011e-05
-3.856e-05
-4.93748e-05
-2.11935e-05
-2.22181e-05
-1.23279e-06
1.65678e-05
5.23359e-05
1.58396e-05
-8.20851e-06
-8.67391e-05
-6.08104e-06
-8.30764e-05
-8.31447e-06
-8.30921e-05
-1.33672e-05
-7.88576e-05
-2.00587e-05
-8.35563e-05
-2.77776e-05
-8.75548e-05
-3.31903e-05
-8.56351e-05
-3.43172e-05
-8.24188e-05
-3.25492e-05
-8.48626e-05
-3.1243e-05
-8.83702e-05
-3.2794e-05
-8.51096e-05
-3.91914e-05
-7.45795e-05
-4.95571e-05
-6.54119e-05
-6.27465e-05
-5.62857e-05
-7.86332e-05
-4.2424e-05
-9.45901e-05
-3.38048e-05
-0.000106556
-3.69067e-05
-0.000111686
-4.85055e-05
-0.00011231
-5.88765e-05
-0.000107715
-5.39702e-05
-9.90561e-05
-3.08769e-05
-8.9256e-05
6.76767e-06
4.04513e-05
-7.73712e-05
-1.1531e-05
-7.52081e-05
-8.97156e-06
-8.56358e-05
-1.11598e-05
-8.09039e-05
-1.52696e-05
-7.47478e-05
-2.11605e-05
-7.76653e-05
-2.74513e-05
-8.12639e-05
-3.20877e-05
-8.09988e-05
-3.39397e-05
-8.05668e-05
-3.47127e-05
-8.40896e-05
-3.58016e-05
-8.72813e-05
-3.83076e-05
-8.26036e-05
-4.47779e-05
-6.81093e-05
-5.67922e-05
-5.33976e-05
-7.29754e-05
-4.01024e-05
-9.19302e-05
-2.34692e-05
-0.000110148
-1.55871e-05
-0.000125308
-2.17466e-05
-0.00013984
-3.39734e-05
-0.000156912
-4.18051e-05
-0.000171996
-3.88864e-05
-0.000180268
-2.26044e-05
-0.000178781
5.2806e-06
3.65619e-05
-0.000174892
-1.06458e-05
-6.45621e-05
-1.00671e-05
-8.62144e-05
-1.24993e-05
-7.84719e-05
-1.55181e-05
-7.17289e-05
-2.03574e-05
-7.2826e-05
-2.52502e-05
-7.63713e-05
-2.91392e-05
-7.71099e-05
-3.21073e-05
-7.75988e-05
-3.52333e-05
-8.09636e-05
-3.84929e-05
-8.40217e-05
-4.19475e-05
-7.91492e-05
-4.83392e-05
-6.17177e-05
-6.12102e-05
-4.05265e-05
-7.84794e-05
-2.28333e-05
-9.81254e-05
-3.82307e-06
-0.00011911
5.3974e-06
-0.000140184
-6.72321e-07
-0.000164305
-9.85303e-06
-0.000190806
-1.53041e-05
-0.000214752
-1.49399e-05
-0.000231197
-6.16008e-06
-0.000238686
1.27702e-05
3.84921e-05
-0.000240616
-6.48516e-06
-5.80768e-05
-9.26409e-06
-8.34357e-05
-1.23208e-05
-7.54151e-05
-1.47249e-05
-6.93247e-05
-1.86787e-05
-6.88723e-05
-2.27946e-05
-7.22555e-05
-2.64563e-05
-7.34483e-05
-3.03158e-05
-7.37392e-05
-3.50074e-05
-7.6272e-05
-3.98954e-05
-7.91338e-05
-4.40896e-05
-7.49551e-05
-4.97575e-05
-5.60497e-05
-6.13635e-05
-2.89205e-05
-7.79261e-05
-6.27073e-06
-9.66836e-05
1.49344e-05
-0.000117743
2.64566e-05
-0.000139393
2.09774e-05
-0.000162467
1.32212e-05
-0.000186679
8.90755e-06
-0.000209826
8.20703e-06
-0.000228374
1.23883e-05
-0.000238296
2.26923e-05
3.73829e-05
-0.000237187
-2.52903e-06
-5.55479e-05
-7.83153e-06
-7.81333e-05
-1.15266e-05
-7.172e-05
-1.38569e-05
-6.69945e-05
-1.72299e-05
-6.54995e-05
-2.10916e-05
-6.83939e-05
-2.49378e-05
-6.96021e-05
-2.93879e-05
-6.9289e-05
-3.48083e-05
-7.08516e-05
-4.04576e-05
-7.34846e-05
-4.48535e-05
-7.05593e-05
-4.9113e-05
-5.17902e-05
-5.78845e-05
-2.01489e-05
-7.18393e-05
7.68412e-06
-8.73714e-05
3.04665e-05
-0.000104971
4.40562e-05
-0.000122601
3.86073e-05
-0.000139883
3.05035e-05
-0.000157254
2.62779e-05
-0.000173529
2.44822e-05
-0.000185904
2.4763e-05
-0.000191191
2.79801e-05
3.36682e-05
-0.000187477
-3.52387e-07
-5.51957e-05
-6.72425e-06
-7.17615e-05
-1.08619e-05
-6.75824e-05
-1.34473e-05
-6.44092e-05
-1.65087e-05
-6.24383e-05
-2.03731e-05
-6.45294e-05
-2.45082e-05
-6.54668e-05
-2.91604e-05
-6.46368e-05
-3.46205e-05
-6.53916e-05
-4.03938e-05
-6.77114e-05
-4.47564e-05
-6.61965e-05
-4.74651e-05
-4.90814e-05
-5.27108e-05
-1.49031e-05
-6.33306e-05
1.83039e-05
-7.48317e-05
4.19676e-05
-8.71737e-05
5.63981e-05
-9.95793e-05
5.10128e-05
-0.00010999
4.09145e-05
-0.000119736
3.6024e-05
-0.000128815
3.35613e-05
-0.00013526
3.12073e-05
-0.000137129
2.98495e-05
3.05332e-05
-0.000133994
-2.43591e-07
-5.49522e-05
-6.26793e-06
-6.57372e-05
-1.04408e-05
-6.34097e-05
-1.33558e-05
-6.14943e-05
-1.62853e-05
-5.95089e-05
-2.01453e-05
-6.06692e-05
-2.43904e-05
-6.12217e-05
-2.89327e-05
-6.00946e-05
-3.41129e-05
-6.02115e-05
-3.97841e-05
-6.20402e-05
-4.41908e-05
-6.17897e-05
-4.5779e-05
-4.74932e-05
-4.76731e-05
-1.30089e-05
-5.45834e-05
2.52142e-05
-6.25392e-05
4.99234e-05
-6.98965e-05
6.37554e-05
-7.84204e-05
5.95367e-05
-8.43023e-05
4.67964e-05
-8.9233e-05
4.09547e-05
-9.43757e-05
3.8704e-05
-9.84121e-05
3.52437e-05
-0.000100193
3.163e-05
3.02374e-05
-9.98968e-05
-1.06962e-06
-5.38826e-05
-6.0917e-06
-6.07151e-05
-1.00079e-05
-5.94935e-05
-1.31599e-05
-5.83423e-05
-1.60636e-05
-5.66051e-05
-1.97987e-05
-5.6934e-05
-2.39582e-05
-5.70623e-05
-2.8285e-05
-5.5768e-05
-3.31696e-05
-5.5327e-05
-3.87435e-05
-5.64661e-05
-4.33992e-05
-5.7134e-05
-4.45704e-05
-4.6322e-05
-4.38698e-05
-1.37095e-05
-4.70684e-05
2.84127e-05
-5.23662e-05
5.52212e-05
-5.66213e-05
6.80105e-05
-6.31187e-05
6.60341e-05
-6.8136e-05
5.18137e-05
-7.23643e-05
4.5183e-05
-7.73106e-05
4.36504e-05
-8.19017e-05
3.98347e-05
-8.52771e-05
3.50054e-05
3.23307e-05
-8.73706e-05
-1.74396e-06
-5.21386e-05
-5.81496e-06
-5.66441e-05
-9.3949e-06
-5.59136e-05
-1.26171e-05
-5.512e-05
-1.55253e-05
-5.36968e-05
-1.90643e-05
-5.33951e-05
-2.30583e-05
-5.30685e-05
-2.72024e-05
-5.16242e-05
-3.18706e-05
-5.06588e-05
-3.73782e-05
-5.09585e-05
-4.24539e-05
-5.20583e-05
-4.39128e-05
-4.48631e-05
-4.15311e-05
-1.60913e-05
-4.13345e-05
2.82161e-05
-4.50353e-05
5.89219e-05
-4.8376e-05
7.13513e-05
-5.39634e-05
7.16216e-05
-6.06241e-05
5.84745e-05
-6.70924e-05
5.16512e-05
-7.40656e-05
5.06236e-05
-8.0316e-05
4.60852e-05
-8.50192e-05
3.97086e-05
3.48897e-05
-8.75785e-05
-2.10446e-06
-5.00341e-05
-5.44081e-06
-5.33077e-05
-8.64258e-06
-5.27117e-05
-1.17624e-05
-5.20001e-05
-1.46539e-05
-5.08054e-05
-1.80055e-05
-5.00438e-05
-2.18197e-05
-4.92545e-05
-2.58199e-05
-4.76241e-05
-3.03078e-05
-4.61708e-05
-3.57118e-05
-4.55545e-05
-4.12843e-05
-4.64857e-05
-4.36694e-05
-4.24781e-05
-4.07272e-05
-1.90336e-05
-3.7657e-05
2.51459e-05
-4.02888e-05
6.15535e-05
-4.4208e-05
7.52706e-05
-4.94208e-05
7.68344e-05
-5.80591e-05
6.71128e-05
-6.72442e-05
6.08363e-05
-7.66258e-05
6.00051e-05
-8.47416e-05
5.4201e-05
-9.02343e-05
4.52012e-05
3.65492e-05
-9.18938e-05
-2.17512e-06
-4.7859e-05
-5.00908e-06
-5.04737e-05
-7.84687e-06
-4.98739e-05
-1.07478e-05
-4.90993e-05
-1.35811e-05
-4.79723e-05
-1.67622e-05
-4.68629e-05
-2.03766e-05
-4.56403e-05
-2.42219e-05
-4.37789e-05
-2.85179e-05
-4.18747e-05
-3.37336e-05
-4.03388e-05
-3.97422e-05
-4.04772e-05
-4.35293e-05
-3.86911e-05
-4.12592e-05
-2.13039e-05
-3.61221e-05
2.00087e-05
-3.72571e-05
6.26884e-05
-4.22327e-05
8.02461e-05
-4.77694e-05
8.23711e-05
-5.70745e-05
7.64179e-05
-6.76165e-05
7.13783e-05
-7.8854e-05
7.12425e-05
-8.93668e-05
6.47136e-05
-9.60913e-05
5.19256e-05
3.75606e-05
-9.71027e-05
-2.02498e-06
-4.5834e-05
-4.52098e-06
-4.79777e-05
-7.04752e-06
-4.73474e-05
-9.67791e-06
-4.6469e-05
-1.23787e-05
-4.52717e-05
-1.53637e-05
-4.3878e-05
-1.87318e-05
-4.22722e-05
-2.23731e-05
-4.01375e-05
-2.64499e-05
-3.77979e-05
-3.13851e-05
-3.54036e-05
-3.76101e-05
-3.42523e-05
-4.29808e-05
-3.33205e-05
-4.25318e-05
-2.17529e-05
-3.64443e-05
1.39213e-05
-3.49318e-05
6.11761e-05
-4.06386e-05
8.59529e-05
-4.76553e-05
8.93876e-05
-5.65093e-05
8.52718e-05
-6.6423e-05
8.1292e-05
-7.84354e-05
8.32549e-05
-9.20479e-05
7.8326e-05
-0.000101341
6.1219e-05
3.9371e-05
-0.000103152
-1.76741e-06
-4.40665e-05
-3.96851e-06
-4.57766e-05
-6.2057e-06
-4.51103e-05
-8.54184e-06
-4.4133e-05
-1.10132e-05
-4.28003e-05
-1.37332e-05
-4.1158e-05
-1.67911e-05
-3.92142e-05
-2.01599e-05
-3.67686e-05
-2.39768e-05
-3.39811e-05
-2.85542e-05
-3.08263e-05
-3.46538e-05
-2.81528e-05
-4.13943e-05
-2.658e-05
-4.36782e-05
-1.9469e-05