/*--------------------------------*- C++ -*----------------------------------*\
| =========                 |                                                 |
| \\      /  F ield         | OpenFOAM: The Open Source CFD Toolbox           |
|  \\    /   O peration     | Version:  2.3.0                                 |
|   \\  /    A nd           | Web:      www.OpenFOAM.org                      |
|    \\/     M anipulation  |                                                 |
\*---------------------------------------------------------------------------*/
FoamFile
{
    version     2.0;
    format      ascii;
    class       volVectorField;
    location    "2.95";
    object      U;
}
// * * * * * * * * * * * * * * * * * * * * * * * * * * * * * * * * * * * * * //

dimensions      [0 1 -1 0 0 0 0];

internalField   nonuniform List<vector> 
2268
(
(-0.0263335 0.00549894 0)
(-0.0368662 -0.00572235 0)
(-0.027813 -0.0066723 0)
(-0.0213804 -0.00146589 0)
(-0.0255636 -0.000676348 0)
(-0.020442 -0.00283604 0)
(-0.00687354 0.000313453 0)
(-0.013798 0.00657556 0)
(-0.0408171 0.00603224 0)
(-0.0555198 0.00164059 0)
(-0.0530926 -0.00217247 0)
(-0.036198 -0.00547934 0)
(-0.00793905 -0.00767662 0)
(0.0267414 -0.0084004 0)
(0.0635547 -0.00761622 0)
(0.0997121 -0.0018856 0)
(0.104393 0.0101448 0)
(0.0585419 0.0169485 0)
(-0.00195043 0.00968044 0)
(-0.0336074 -0.00143165 0)
(-0.0365654 -0.00530864 0)
(-0.0370641 -0.00635996 0)
(-0.0206218 -0.0102658 0)
(-0.0293042 0.0258935 0)
(-0.0542284 0.00323421 0)
(-0.0746026 -0.00170769 0)
(-0.0754431 0.0019306 0)
(-0.0847747 -0.00121817 0)
(-0.0813819 -0.00611374 0)
(-0.0667231 -0.00308668 0)
(-0.0429968 0.00830079 0)
(-0.0344404 0.011917 0)
(-0.0231339 0.00458003 0)
(-0.00331041 -0.00665922 0)
(0.021812 -0.0165932 0)
(0.0514181 -0.0235548 0)
(0.082847 -0.0263604 0)
(0.113945 -0.0253292 0)
(0.142753 -0.0166144 0)
(0.17257 0.0083498 0)
(0.174038 0.0332669 0)
(0.136477 0.0357764 0)
(0.0857942 0.0201815 0)
(0.0444179 0.00572959 0)
(0.00521532 -0.00107849 0)
(-0.00421993 -0.0173415 0)
(0.000327737 0.0440456 0)
(-0.0363338 0.0165145 0)
(-0.073983 0.00071487 0)
(-0.0707391 0.00573582 0)
(-0.0776042 0.0010083 0)
(-0.0778982 -0.00986195 0)
(-0.0740518 -0.0130059 0)
(-0.0559829 -0.00709424 0)
(-0.0221122 -0.00435694 0)
(0.0179494 -0.0116387 0)
(0.056732 -0.02106 0)
(0.0927351 -0.0304449 0)
(0.125078 -0.0371257 0)
(0.152987 -0.0389633 0)
(0.175628 -0.0369958 0)
(0.191901 -0.029202 0)
(0.206099 -0.00377656 0)
(0.220399 0.0333247 0)
(0.208888 0.0519374 0)
(0.163044 0.0446179 0)
(0.105676 0.030192 0)
(0.0467269 0.0179674 0)
(0.0127085 -0.00821117 0)
(0.02709 0.0402907 0)
(0.0231733 0.0403217 0)
(-0.0171616 0.00797985 0)
(-0.0177388 0.0037881 0)
(-0.0194434 0.0012615 0)
(-0.0146607 -0.00907664 0)
(-0.00809361 -0.0172613 0)
(0.0072056 -0.0198089 0)
(0.0395145 -0.0260938 0)
(0.079284 -0.0339405 0)
(0.118026 -0.040728 0)
(0.152319 -0.0474422 0)
(0.181068 -0.0513534 0)
(0.204541 -0.0497963 0)
(0.221904 -0.0434481 0)
(0.230485 -0.0323824 0)
(0.235287 -0.00838197 0)
(0.241747 0.0320015 0)
(0.236773 0.063423 0)
(0.199287 0.0680976 0)
(0.141336 0.057579 0)
(0.0779742 0.0429616 0)
(0.0287006 0.0131094 0)
(0.00923561 0.0180687 0)
(0.0488136 0.045458 0)
(0.0378439 0.0193246 0)
(0.040963 0.00899816 0)
(0.0414337 0.00146755 0)
(0.0436541 -0.0103772 0)
(0.0504194 -0.0211495 0)
(0.0648988 -0.0282702 0)
(0.0896069 -0.0405635 0)
(0.117052 -0.0498156 0)
(0.141943 -0.05521 0)
(0.163626 -0.0601442 0)
(0.183426 -0.0624602 0)
(0.202819 -0.0592604 0)
(0.220744 -0.049766 0)
(0.233535 -0.0349316 0)
(0.24037 -0.0104683 0)
(0.245964 0.0316538 0)
(0.245299 0.0725447 0)
(0.216725 0.0895515 0)
(0.163869 0.0847977 0)
(0.103063 0.070581 0)
(0.0453922 0.043077 0)
(-0.0245716 0.0116484 0)
(0.022198 0.0350267 0)
(0.0342023 0.0111005 0)
(0.058753 0.00384511 0)
(0.0722005 -0.000166165 0)
(0.0754848 -0.011925 0)
(0.0740791 -0.0250379 0)
(0.0761779 -0.0348975 0)
(0.0820188 -0.0488388 0)
(0.0885278 -0.0568521 0)
(0.094379 -0.0613406 0)
(0.103437 -0.0664058 0)
(0.117321 -0.0696492 0)
(0.137742 -0.0675672 0)
(0.164203 -0.0581572 0)
(0.19163 -0.0415004 0)
(0.212376 -0.0148512 0)
(0.228258 0.0286447 0)
(0.238516 0.0771991 0)
(0.224858 0.106578 0)
(0.183333 0.110303 0)
(0.128712 0.0995838 0)
(0.0612257 0.0855095 0)
(-0.0394563 0.0191883 0)
(-0.0024818 0.0205477 0)
(0.041125 -0.00698526 0)
(0.070323 -0.00811056 0)
(0.0790138 -0.00464469 0)
(0.0697733 -0.0105843 0)
(0.0486946 -0.0211091 0)
(0.0286215 -0.0317182 0)
(0.010487 -0.0459802 0)
(-0.00374973 -0.0530628 0)
(-0.0124888 -0.0603039 0)
(-0.0119243 -0.0688255 0)
(-0.000593117 -0.0758749 0)
(0.0249181 -0.0785239 0)
(0.0645226 -0.0731698 0)
(0.112934 -0.0559929 0)
(0.155479 -0.0259971 0)
(0.188756 0.0189128 0)
(0.215307 0.0731511 0)
(0.223774 0.114651 0)
(0.202265 0.130082 0)
(0.161019 0.125887 0)
(0.0916065 0.131572 0)
(-0.0322113 0.0242816 0)
(0.0304706 -0.00857047 0)
(0.060403 -0.0283616 0)
(0.0683599 -0.016403 0)
(0.0570662 -0.00177304 0)
(0.0285784 0.0021666 0)
(-0.0094566 -0.00438114 0)
(-0.0463638 -0.0182469 0)
(-0.0795262 -0.0343509 0)
(-0.105108 -0.0453286 0)
(-0.123457 -0.0584418 0)
(-0.130173 -0.0732694 0)
(-0.122775 -0.0870785 0)
(-0.0975854 -0.0975449 0)
(-0.0540684 -0.0993209 0)
(0.00963138 -0.0841923 0)
(0.0769839 -0.0470789 0)
(0.132612 0.00311675 0)
(0.178847 0.0613639 0)
(0.212679 0.112594 0)
(0.219663 0.14261 0)
(0.205968 0.154233 0)
(0.0993726 0.209995 0)
(0.00314766 -0.00073089 0)
(-0.0210974 0.00801082 0)
(-0.0905471 0.016812 0)
(-0.176139 0.0158354 0)
(-0.144846 -0.0137348 0)
(-0.0277959 -0.0323426 0)
(0.0820209 -0.0170917 0)
(0.147332 -0.00842474 0)
(0.190842 -0.0109527 0)
(0.24062 -0.0143531 0)
(0.287815 -0.00969829 0)
(0.306186 0.00577072 0)
(0.251186 0.0216521 0)
(0.139137 0.0173574 0)
(0.0751946 0.00895214 0)
(0.0176614 0.0149024 0)
(-0.0411896 0.00332775 0)
(-0.0359448 -0.0037189 0)
(-0.0211789 -0.00779316 0)
(-0.0136092 0.0104227 0)
(-0.0542926 0.036286 0)
(-0.158804 0.0413578 0)
(-0.189588 0.0154612 0)
(-0.111597 -0.0496647 0)
(-0.0443241 -0.0823378 0)
(0.0592458 -0.0602454 0)
(0.144777 -0.0358942 0)
(0.19867 -0.031039 0)
(0.250247 -0.0328488 0)
(0.295618 -0.018683 0)
(0.317365 0.012497 0)
(0.316344 0.0482611 0)
(0.234604 0.0566166 0)
(0.106559 0.0419083 0)
(0.026682 0.041679 0)
(-0.000287928 0.0135866 0)
(-0.025458 0.000574676 0)
(-0.0252161 -0.0224704 0)
(-0.0234362 0.0279583 0)
(-0.0524352 0.0647252 0)
(-0.141163 0.0582343 0)
(-0.142374 0.00807324 0)
(-0.0878224 -0.0716346 0)
(-0.0588423 -0.113475 0)
(0.0185542 -0.0979094 0)
(0.108017 -0.0647427 0)
(0.167469 -0.0570614 0)
(0.22525 -0.0595701 0)
(0.2757 -0.0337071 0)
(0.283724 0.0103161 0)
(0.276927 0.0612131 0)
(0.235942 0.0927404 0)
(0.109478 0.0825675 0)
(0.0391562 0.0609063 0)
(0.051266 0.0215187 0)
(0.00391073 0.0146203 0)
(-0.0121311 -0.0313586 0)
(-0.0303212 0.0427713 0)
(-0.0318003 0.0846708 0)
(-0.0884165 0.0723843 0)
(-0.0913929 0.00666726 0)
(-0.0551209 -0.0818495 0)
(-0.052245 -0.133558 0)
(-0.00109722 -0.12793 0)
(0.0827056 -0.094975 0)
(0.147293 -0.0865123 0)
(0.192289 -0.0862299 0)
(0.229614 -0.0461413 0)
(0.238949 0.0156016 0)
(0.221963 0.0719637 0)
(0.206556 0.121149 0)
(0.109487 0.119339 0)
(0.0575664 0.0725843 0)
(0.0801849 0.025091 0)
(0.0315411 0.0336227 0)
(0.0138224 -0.0275026 0)
(-0.038876 0.0563374 0)
(-0.0185439 0.0914224 0)
(-0.0213832 0.0820139 0)
(-0.0460424 0.00494064 0)
(-0.0168783 -0.0861895 0)
(-0.028449 -0.143017 0)
(0.00286199 -0.154045 0)
(0.0765317 -0.12708 0)
(0.128601 -0.10855 0)
(0.137574 -0.0984398 0)
(0.149233 -0.0511505 0)
(0.170001 0.0200273 0)
(0.155217 0.0775152 0)
(0.164001 0.137943 0)
(0.110307 0.143693 0)
(0.083634 0.0823396 0)
(0.0907214 0.0279221 0)
(0.045371 0.0479634 0)
(0.0400253 -0.0128255 0)
(-0.0475761 0.0656022 0)
(-0.0284227 0.0822218 0)
(0.0432267 0.0823654 0)
(0.00488939 0.0154334 0)
(0.0196426 -0.0818659 0)
(0.00770522 -0.144118 0)
(0.0231105 -0.171896 0)
(0.0718854 -0.148121 0)
(0.0969496 -0.114038 0)
(0.0671291 -0.0950906 0)
(0.0527643 -0.0524169 0)
(0.0828053 0.0224402 0)
(0.0699914 0.0781132 0)
(0.112865 0.141461 0)
(0.105408 0.151444 0)
(0.105383 0.0886262 0)
(0.0921247 0.0400911 0)
(0.0367183 0.0590268 0)
(0.0499418 0.00677 0)
(-0.0427615 0.0788877 0)
(-0.0205578 0.0513119 0)
(0.0380814 0.0606972 0)
(0.0472698 0.0194334 0)
(0.0462819 -0.0796389 0)
(0.0494708 -0.148183 0)
(0.0548809 -0.179931 0)
(0.0702112 -0.15672 0)
(0.0702574 -0.10481 0)
(0.005981 -0.0803873 0)
(-0.0321194 -0.0495424 0)
(-0.00690872 0.0222602 0)
(-0.00502698 0.0682251 0)
(0.0596539 0.127447 0)
(0.0898162 0.141664 0)
(0.111676 0.0871779 0)
(0.0796606 0.0580744 0)
(0.0368626 0.0633984 0)
(0.0491546 0.0250964 0)
(-0.0319893 0.0962146 0)
(0.0487867 0.0626345 0)
(0.0298376 0.0563044 0)
(0.0635046 0.0100039 0)
(0.0832885 -0.0887225 0)
(0.0993451 -0.161225 0)
(0.0967905 -0.182012 0)
(0.0827367 -0.154829 0)
(0.0669517 -0.0838344 0)
(-0.0227986 -0.0524612 0)
(-0.0924776 -0.0422254 0)
(-0.0796138 0.00570531 0)
(-0.0579784 0.0494709 0)
(-0.00113911 0.100559 0)
(0.0572034 0.123347 0)
(0.0779681 0.0905984 0)
(0.0434675 0.082131 0)
(0.0370465 0.065692 0)
(0.0352649 0.0499604 0)
(0.00672365 0.0309416 0)
(0.0589258 -0.0184211 0)
(0.0399566 -0.020111 0)
(0.0184517 0.0153668 0)
(-0.00502543 0.0315176 0)
(-0.0321192 0.0298638 0)
(-0.0622272 0.0173391 0)
(-0.0904123 -0.00086277 0)
(-0.114634 -0.0197109 0)
(-0.135793 -0.03769 0)
(-0.151581 -0.059356 0)
(-0.164337 -0.0839046 0)
(-0.173529 -0.108682 0)
(-0.172157 -0.131033 0)
(-0.161305 -0.142683 0)
(-0.119507 -0.140467 0)
(-0.0516354 -0.102737 0)
(0.0266823 -0.0416016 0)
(0.103961 0.0239709 0)
(0.177162 0.0835359 0)
(0.232053 0.130627 0)
(0.295368 0.159116 0)
(0.308705 0.241479 0)
(0.0379838 -0.0522304 0)
(0.0201571 -0.0254608 0)
(-0.0299669 0.00361745 0)
(-0.0243781 0.0119422 0)
(-0.0243815 0.0244835 0)
(-0.0202382 0.0342864 0)
(-0.0116488 0.0345127 0)
(0.00496065 0.023802 0)
(0.0367233 0.000423402 0)
(0.0778538 -0.0230392 0)
(0.123608 -0.0442314 0)
(0.141751 -0.0635826 0)
(0.106155 -0.0861425 0)
(0.0206202 -0.116102 0)
(-0.0637151 -0.153119 0)
(-0.120268 -0.180396 0)
(-0.136554 -0.169196 0)
(-0.0987211 -0.127888 0)
(-0.0239195 -0.0768002 0)
(0.082941 -0.0189466 0)
(0.189897 0.0426844 0)
(0.292923 0.0895051 0)
(0.379612 0.131574 0)
(-0.084213 -0.012412 0)
(0.111887 0.037891 0)
(0.135882 0.0239759 0)
(0.238894 0.0127758 0)
(0.240073 0.0334143 0)
(0.0504299 0.0612112 0)
(-0.149101 0.06217 0)
(-0.057928 -0.00863563 0)
(0.197259 -0.0981329 0)
(0.531472 -0.158345 0)
(0.856912 -0.144452 0)
(1.10358 -0.0323717 0)
(1.2223 0.0855159 0)
(0.851131 0.146036 0)
(0.677367 0.0813996 0)
(0.400979 -0.0550419 0)
(0.173297 -0.114583 0)
(0.0336084 -0.137285 0)
(-0.0163945 -0.144262 0)
(0.00685708 -0.12478 0)
(0.0832099 -0.0766987 0)
(0.175941 -0.0255488 0)
(0.269254 0.00976335 0)
(-0.191118 -0.0544514 0)
(-0.324909 -0.162546 0)
(-0.425178 -0.139273 0)
(-0.422523 -0.0171365 0)
(-0.291665 0.242909 0)
(-0.309574 0.235289 0)
(-0.11136 0.0296157 0)
(0.22775 -0.34651 0)
(0.471689 -0.539216 0)
(0.661228 -0.587448 0)
(0.821722 -0.528207 0)
(0.976232 -0.378313 0)
(1.16592 -0.121001 0)
(1.40421 0.316043 0)
(1.47775 0.384623 0)
(1.24868 0.19983 0)
(0.952463 0.134263 0)
(0.781265 0.127903 0)
(0.506223 -0.0317958 0)
(0.30246 -0.11199 0)
(0.200027 -0.108981 0)
(0.179351 -0.0828705 0)
(0.21305 -0.053238 0)
(-0.196513 0.303861 0)
(-0.306381 0.173203 0)
(-0.366766 -0.0191307 0)
(-0.346382 -0.0663395 0)
(-0.252292 -0.000153277 0)
(-0.00805101 -0.0930877 0)
(0.283849 -0.289242 0)
(0.540998 -0.550219 0)
(0.674365 -0.681653 0)
(0.720467 -0.655671 0)
(0.75571 -0.558847 0)
(0.822159 -0.434795 0)
(0.933528 -0.28192 0)
(1.1609 -0.0230592 0)
(1.43968 0.231278 0)
(1.63064 0.34782 0)
(1.67806 0.314977 0)
(1.62566 0.396739 0)
(1.47272 0.262741 0)
(1.31811 0.123421 0)
(0.979415 0.0685123 0)
(0.691914 -0.0274123 0)
(0.613646 -0.0864253 0)
(-0.159219 0.481102 0)
(-0.165592 0.196697 0)
(-0.188802 -0.0741598 0)
(-0.125239 -0.154933 0)
(-0.0148184 -0.178555 0)
(0.197434 -0.345257 0)
(0.434991 -0.581797 0)
(0.638941 -0.687548 0)
(0.678995 -0.694042 0)
(0.614358 -0.645238 0)
(0.585289 -0.575796 0)
(0.630885 -0.507889 0)
(0.735835 -0.405544 0)
(0.885253 -0.235163 0)
(1.08334 -0.0432136 0)
(1.2807 0.0765514 0)
(1.44445 0.16963 0)
(1.56095 0.334523 0)
(1.56881 0.386238 0)
(1.44612 0.350627 0)
(1.22307 0.37422 0)
(0.98992 0.262762 0)
(0.720466 0.0331965 0)
(-0.0806734 0.582084 0)
(0.0395459 0.201992 0)
(-0.00762024 -0.0748474 0)
(0.0816747 -0.237355 0)
(0.168309 -0.341432 0)
(0.307482 -0.520224 0)
(0.421668 -0.798251 0)
(0.545747 -0.799458 0)
(0.558923 -0.630053 0)
(0.484067 -0.560945 0)
(0.492043 -0.574004 0)
(0.556814 -0.584021 0)
(0.655189 -0.531309 0)
(0.788187 -0.387267 0)
(0.937416 -0.198955 0)
(1.0632 -0.054471 0)
(1.15969 0.0523641 0)
(1.25673 0.199367 0)
(1.3439 0.360052 0)
(1.35002 0.477581 0)
(1.21521 0.565068 0)
(0.998726 0.492477 0)
(0.759584 0.348562 0)
(0.0190437 0.519018 0)
(0.191425 0.246754 0)
(0.238166 -0.0935105 0)
(0.310295 -0.294043 0)
(0.348676 -0.390515 0)
(0.394696 -0.57721 0)
(0.365371 -0.869793 0)
(0.410163 -0.819119 0)
(0.392766 -0.592874 0)
(0.371538 -0.584573 0)
(0.439871 -0.659681 0)
(0.540043 -0.679494 0)
(0.631266 -0.64406 0)
(0.7356 -0.520151 0)
(0.856228 -0.328535 0)
(0.969869 -0.132627 0)
(1.03195 0.0139233 0)
(1.0496 0.151619 0)
(1.09153 0.321169 0)
(1.11197 0.51101 0)
(1.00962 0.679987 0)
(0.818418 0.705165 0)
(0.601579 0.598967 0)
(0.0774472 0.322249 0)
(0.246613 0.112985 0)
(0.364649 -0.176564 0)
(0.475775 -0.334167 0)
(0.494547 -0.36745 0)
(0.441567 -0.545077 0)
(0.294961 -0.846379 0)
(0.306565 -0.768445 0)
(0.263535 -0.557545 0)
(0.257822 -0.653932 0)
(0.302932 -0.754491 0)
(0.388957 -0.770837 0)
(0.459772 -0.737392 0)
(0.542181 -0.618569 0)
(0.627993 -0.435772 0)
(0.70511 -0.23824 0)
(0.765763 -0.0473014 0)
(0.785862 0.124934 0)
(0.78797 0.319552 0)
(0.759434 0.573888 0)
(0.655563 0.818243 0)
(0.516104 0.879162 0)
(0.328737 0.824793 0)
(0.0386216 0.162865 0)
(0.125518 -0.0582562 0)
(0.306269 -0.351062 0)
(0.484814 -0.415297 0)
(0.530257 -0.333015 0)
(0.450759 -0.422933 0)
(0.227186 -0.775932 0)
(0.237121 -0.711491 0)
(0.206772 -0.538633 0)
(0.181753 -0.676871 0)
(0.181161 -0.786699 0)
(0.220991 -0.825122 0)
(0.252978 -0.808367 0)
(0.314234 -0.688491 0)
(0.379563 -0.489437 0)
(0.431617 -0.270184 0)
(0.462846 -0.0635422 0)
(0.465901 0.142133 0)
(0.435752 0.380758 0)
(0.373955 0.67731 0)
(0.294434 0.928313 0)
(0.212975 1.00581 0)
(0.0277289 1.06283 0)
(-0.077745 0.188268 0)
(0.00235371 -0.272018 0)
(0.164689 -0.573401 0)
(0.336842 -0.539298 0)
(0.417865 -0.331226 0)
(0.415127 -0.301865 0)
(0.187291 -0.675312 0)
(0.173014 -0.674912 0)
(0.184837 -0.529655 0)
(0.133285 -0.654919 0)
(0.0998082 -0.767687 0)
(0.0711038 -0.834765 0)
(0.0578985 -0.841225 0)
(0.0881314 -0.737632 0)
(0.136771 -0.535691 0)
(0.180813 -0.304783 0)
(0.192653 -0.0714596 0)
(0.177196 0.174501 0)
(0.13409 0.45221 0)
(0.0760755 0.751957 0)
(0.0304021 0.986095 0)
(-0.0527762 1.13018 0)
(-0.227698 1.27103 0)
(-0.138858 0.231759 0)
(0.0279231 -0.459255 0)
(0.0622985 -0.700683 0)
(0.161566 -0.620863 0)
(0.259386 -0.366189 0)
(0.337709 -0.273828 0)
(0.191692 -0.539886 0)
(0.0881858 -0.648404 0)
(0.13855 -0.529671 0)
(0.0824327 -0.602433 0)
(0.0152788 -0.705801 0)
(-0.0622506 -0.791309 0)
(-0.11584 -0.83013 0)
(-0.127697 -0.761348 0)
(-0.0936975 -0.574462 0)
(-0.0473583 -0.329291 0)
(-0.0317354 -0.0715247 0)
(-0.0444693 0.201667 0)
(-0.0768751 0.49532 0)
(-0.116539 0.792486 0)
(-0.164495 1.05146 0)
(-0.269045 1.25789 0)
(-0.378362 1.38519 0)
(-0.0878003 0.311614 0)
(0.096497 -0.50283 0)
(0.0830928 -0.73624 0)
(0.0946905 -0.675971 0)
(0.167195 -0.453754 0)
(0.26943 -0.293468 0)
(0.199065 -0.411626 0)
(0.0116197 -0.595113 0)
(0.0440879 -0.520302 0)
(-0.0077175 -0.545206 0)
(-0.0825209 -0.627395 0)
(-0.167863 -0.719543 0)
(-0.253717 -0.782201 0)
(-0.309311 -0.751878 0)
(-0.305451 -0.600065 0)
(-0.259898 -0.358082 0)
(-0.221958 -0.0805182 0)
(-0.213663 0.213078 0)
(-0.227178 0.524431 0)
(-0.259315 0.841768 0)
(-0.315499 1.13186 0)
(-0.390398 1.33741 0)
(-0.404546 1.39466 0)
(0.0273315 0.259973 0)
(0.194347 -0.490629 0)
(0.215914 -0.741779 0)
(0.147393 -0.670938 0)
(0.127885 -0.51305 0)
(0.213187 -0.319182 0)
(0.202647 -0.297832 0)
(-0.0100836 -0.487483 0)
(-0.0543695 -0.480853 0)
(-0.103568 -0.486858 0)
(-0.169694 -0.550119 0)
(-0.249475 -0.63285 0)
(-0.338625 -0.705203 0)
(-0.423245 -0.710055 0)
(-0.462719 -0.603995 0)
(-0.438182 -0.388025 0)
(-0.388811 -0.102802 0)
(-0.356455 0.215669 0)
(-0.348029 0.552178 0)
(-0.36195 0.889393 0)
(-0.386426 1.17727 0)
(-0.388234 1.33776 0)
(-0.316134 1.32263 0)
(0.115568 0.057944 0)
(0.26419 -0.546917 0)
(0.309037 -0.725988 0)
(0.220304 -0.596319 0)
(0.111761 -0.503025 0)
(0.15944 -0.367122 0)
(0.228521 -0.212893 0)
(0.0519895 -0.332885 0)
(-0.0896179 -0.406892 0)
(-0.147726 -0.428508 0)
(-0.20808 -0.477056 0)
(-0.278413 -0.545714 0)
(-0.360885 -0.611808 0)
(-0.447879 -0.635687 0)
(-0.52058 -0.578474 0)
(-0.532356 -0.41081 0)
(-0.487807 -0.138574 0)
(-0.436769 0.196629 0)
(-0.400613 0.551344 0)
(-0.374428 0.890476 0)
(-0.338579 1.15169 0)
(-0.264177 1.26174 0)
(-0.132983 1.19719 0)
(0.129513 -0.187437 0)
(0.25912 -0.664058 0)
(0.283324 -0.703624 0)
(0.2111 -0.502027 0)
(0.114073 -0.441735 0)
(0.118213 -0.441533 0)
(0.244293 -0.220486 0)
(0.202433 -0.160736 0)
(-0.00271862 -0.286363 0)
(-0.104235 -0.368795 0)
(-0.168244 -0.42181 0)
(-0.228515 -0.478942 0)
(-0.299399 -0.528296 0)
(-0.375459 -0.54576 0)
(-0.455722 -0.519728 0)
(-0.48959 -0.421872 0)
(-0.454786 -0.191196 0)
(-0.394424 0.140563 0)
(-0.328033 0.498658 0)
(-0.258058 0.826485 0)
(-0.167638 1.05858 0)
(-0.0403078 1.13182 0)
(0.120279 1.0407 0)
(0.124038 -0.3782 0)
(0.197649 -0.725629 0)
(0.150518 -0.635602 0)
(0.100197 -0.453408 0)
(0.101248 -0.404286 0)
(0.0776423 -0.505491 0)
(0.192415 -0.327762 0)
(0.303076 -0.0958671 0)
(0.210964 -0.116118 0)
(0.0736663 -0.272913 0)
(-0.0014616 -0.366818 0)
(-0.0585786 -0.426619 0)
(-0.123537 -0.464921 0)
(-0.196628 -0.4733 0)
(-0.27448 -0.4557 0)
(-0.297605 -0.438427 0)
(-0.254544 -0.279729 0)
(-0.212307 0.0505651 0)
(-0.128881 0.401361 0)
(-0.0323621 0.713631 0)
(0.0907974 0.921534 0)
(0.243693 0.973469 0)
(0.409551 0.875294 0)
(0.0935348 -0.541236 0)
(0.0901492 -0.689594 0)
(-0.00970319 -0.545728 0)
(-0.0173007 -0.462096 0)
(0.0474513 -0.424402 0)
(0.0255913 -0.527413 0)
(0.0785444 -0.448697 0)
(0.232829 -0.197198 0)
(0.316528 -0.0538737 0)
(0.286622 -0.142201 0)
(0.220127 -0.285585 0)
(0.176166 -0.37285 0)
(0.139054 -0.40321 0)
(0.0887575 -0.407385 0)
(0.0239853 -0.402756 0)
(0.0165681 -0.421831 0)
(0.0467282 -0.30899 0)
(0.0738987 -0.0517516 0)
(0.161064 0.288041 0)
(0.262936 0.577791 0)
(0.388914 0.764855 0)
(0.537972 0.811309 0)
(0.687706 0.719813 0)
(0.0270864 -0.598886 0)
(-0.0328761 -0.585641 0)
(-0.0973825 -0.515061 0)
(-0.0810378 -0.492925 0)
(-0.02844 -0.468557 0)
(-0.0231619 -0.525103 0)
(-0.0277878 -0.511391 0)
(0.0770761 -0.327051 0)
(0.202091 -0.161966 0)
(0.28646 -0.139196 0)
(0.312147 -0.232657 0)
(0.319121 -0.337032 0)
(0.324502 -0.377847 0)
(0.321873 -0.370524 0)
(0.331712 -0.380322 0)
(0.352717 -0.412508 0)
(0.339395 -0.313705 0)
(0.30681 -0.109852 0)
(0.364276 0.18479 0)
(0.501335 0.462794 0)
(0.639065 0.630665 0)
(0.767061 0.67197 0)
(0.874022 0.594345 0)
(-0.0189029 -0.550091 0)
(-0.0831691 -0.526773 0)
(-0.101345 -0.514655 0)
(-0.0915577 -0.510407 0)
(-0.0696938 -0.5087 0)
(-0.0380369 -0.526099 0)
(-0.0535288 -0.520246 0)
(-0.0293903 -0.404877 0)
(0.0584287 -0.277741 0)
(0.157942 -0.242967 0)
(0.245922 -0.301283 0)
(0.310401 -0.380666 0)
(0.353436 -0.410833 0)
(0.387341 -0.397781 0)
(0.424747 -0.418839 0)
(0.440049 -0.43245 0)
(0.455036 -0.308427 0)
(0.463308 -0.115854 0)
(0.482412 0.0864593 0)
(0.570604 0.318613 0)
(0.719241 0.507822 0)
(0.856708 0.582831 0)
(0.935785 0.536985 0)
(-0.00431444 -0.500437 0)
(-0.0480626 -0.499882 0)
(-0.0664681 -0.509321 0)
(-0.0658931 -0.51616 0)
(-0.0607725 -0.539265 0)
(-0.0299256 -0.547565 0)
(-0.022842 -0.5162 0)
(-0.0348325 -0.438968 0)
(0.00160551 -0.360256 0)
(0.0824555 -0.356063 0)
(0.169812 -0.402854 0)
(0.232655 -0.452952 0)
(0.274608 -0.466505 0)
(0.313082 -0.444399 0)
(0.346445 -0.440239 0)
(0.316407 -0.440262 0)
(0.327101 -0.332708 0)
(0.373781 -0.139501 0)
(0.427709 0.0456837 0)
(0.514118 0.197667 0)
(0.658251 0.323704 0)
(0.801864 0.441386 0)
(0.880515 0.476925 0)
(0.0206954 -0.502111 0)
(-0.000871111 -0.467943 0)
(-0.0285814 -0.497161 0)
(-0.0357714 -0.510553 0)
(-0.0465449 -0.552165 0)
(-0.0407305 -0.571627 0)
(-0.0304803 -0.523901 0)
(-0.0258095 -0.454291 0)
(-0.00710364 -0.409823 0)
(0.0366061 -0.429025 0)
(0.0790486 -0.458016 0)
(0.103334 -0.483036 0)
(0.112635 -0.490542 0)
(0.117678 -0.465435 0)
(0.131574 -0.42994 0)
(0.0711905 -0.412013 0)
(0.0636659 -0.329111 0)
(0.113567 -0.175665 0)
(0.201902 -0.0291764 0)
(0.317058 0.0921639 0)
(0.46598 0.216377 0)
(0.606174 0.371959 0)
(0.673731 0.453159 0)
(0.0128821 -0.521739 0)
(0.0111946 -0.445368 0)
(-0.011514 -0.481221 0)
(-0.0273326 -0.492774 0)
(-0.051183 -0.538273 0)
(-0.0755405 -0.567695 0)
(-0.0900103 -0.526486 0)
(-0.0864894 -0.458398 0)
(-0.0694678 -0.426144 0)
(-0.0518534 -0.448507 0)
(-0.0367284 -0.46881 0)
(-0.0373745 -0.476299 0)
(-0.063034 -0.472792 0)
(-0.0871215 -0.447872 0)
(-0.109646 -0.401838 0)
(-0.181915 -0.36195 0)
(-0.233058 -0.294684 0)
(-0.220237 -0.199515 0)
(-0.118942 -0.158309 0)
(0.0273596 -0.0984246 0)
(0.173491 0.0327859 0)
(0.341135 0.256308 0)
(0.430042 0.413157 0)
(-0.0183142 -0.526517 0)
(-0.00979768 -0.431856 0)
(-0.0152031 -0.466678 0)
(-0.0394622 -0.46672 0)
(-0.0691046 -0.505683 0)
(-0.111431 -0.534866 0)
(-0.14766 -0.504877 0)
(-0.157671 -0.452319 0)
(-0.147007 -0.44047 0)
(-0.131492 -0.46308 0)
(-0.121681 -0.469844 0)
(-0.133215 -0.45201 0)
(-0.172658 -0.432369 0)
(-0.223962 -0.403303 0)
(-0.285091 -0.348213 0)
(-0.368242 -0.30545 0)
(-0.419625 -0.291403 0)
(-0.393463 -0.296768 0)
(-0.337429 -0.312898 0)
(-0.269763 -0.252203 0)
(-0.188135 -0.108578 0)
(-0.057307 0.100865 0)
(0.0591275 0.287396 0)
(-0.0479767 -0.492389 0)
(-0.0373523 -0.439637 0)
(-0.0304143 -0.454402 0)
(-0.0562609 -0.4382 0)
(-0.086712 -0.468302 0)
(-0.13088 -0.491547 0)
(-0.170443 -0.474818 0)
(-0.185116 -0.447534 0)
(-0.178714 -0.456166 0)
(-0.169442 -0.476396 0)
(-0.167816 -0.464384 0)
(-0.18475 -0.419044 0)
(-0.231392 -0.381385 0)
(-0.297774 -0.341057 0)
(-0.37937 -0.27394 0)
(-0.472935 -0.22769 0)
(-0.543374 -0.233874 0)
(-0.57859 -0.277879 0)
(-0.606755 -0.307335 0)
(-0.610001 -0.261272 0)
(-0.57766 -0.13225 0)
(-0.506459 0.0472813 0)
(-0.434117 0.239357 0)
(-0.0613195 -0.434976 0)
(-0.0535139 -0.457026 0)
(-0.0490414 -0.442672 0)
(-0.0675729 -0.413053 0)
(-0.0958823 -0.433736 0)
(-0.132961 -0.453583 0)
(-0.164196 -0.448519 0)
(-0.179262 -0.441317 0)
(-0.182886 -0.459205 0)
(-0.188904 -0.476555 0)
(-0.197192 -0.452995 0)
(-0.214433 -0.384523 0)
(-0.26311 -0.3213 0)
(-0.342248 -0.260221 0)
(-0.44215 -0.175358 0)
(-0.549004 -0.131732 0)
(-0.630772 -0.167962 0)
(-0.700981 -0.247195 0)
(-0.795496 -0.314261 0)
(-0.897595 -0.289728 0)
(-0.966298 -0.149662 0)
(-0.974416 0.0518514 0)
(-0.954924 0.239403 0)
(-0.0538516 -0.374293 0)
(-0.050966 -0.468935 0)
(-0.0617194 -0.430482 0)
(-0.0710563 -0.394042 0)
(-0.0950688 -0.404748 0)
(-0.12454 -0.424085 0)
(-0.147917 -0.426195 0)
(-0.164557 -0.42807 0)
(-0.179201 -0.447556 0)
(-0.198481 -0.46432 0)
(-0.216171 -0.437018 0)
(-0.23445 -0.348999 0)
(-0.283174 -0.251636 0)
(-0.367916 -0.167864 0)
(-0.471325 -0.0733083 0)
(-0.585404 -0.0299691 0)
(-0.69156 -0.062222 0)
(-0.80816 -0.115064 0)
(-0.95308 -0.145763 0)
(-1.10239 -0.141868 0)
(-1.21514 -0.0897236 0)
(-1.27373 0.0291724 0)
(-1.29324 0.199128 0)
(-0.0282124 -0.328313 0)
(-0.0361398 -0.462293 0)
(-0.0639493 -0.415816 0)
(-0.0691013 -0.379869 0)
(-0.0885184 -0.381176 0)
(-0.1127 -0.400385 0)
(-0.132653 -0.406327 0)
(-0.151457 -0.40917 0)
(-0.1736 -0.425336 0)
(-0.201949 -0.441281 0)
(-0.227596 -0.415763 0)
(-0.246201 -0.31538 0)
(-0.286777 -0.183868 0)
(-0.365492 -0.0748595 0)
(-0.463713 0.0338354 0)
(-0.577268 0.0871313 0)
(-0.689664 0.0554328 0)
(-0.805774 0.0112051 0)
(-0.936145 -0.0138501 0)
(-1.07143 -0.0133714 0)
(-1.191 0.0214399 0)
(-1.26766 0.0989011 0)
(-1.2865 0.206037 0)
(-0.000189067 -0.303231 0)
(-0.0239287 -0.437053 0)
(-0.0592666 -0.397273 0)
(-0.0661132 -0.367565 0)
(-0.0822808 -0.361666 0)
(-0.103171 -0.379271 0)
(-0.123445 -0.386335 0)
(-0.14453 -0.386255 0)
(-0.17069 -0.397034 0)
(-0.202912 -0.411885 0)
(-0.232633 -0.392374 0)
(-0.249481 -0.288694 0)
(-0.275752 -0.128517 0)
(-0.339324 0.00715554 0)
(-0.421929 0.126707 0)
(-0.519206 0.194276 0)
(-0.614171 0.165382 0)
(-0.702872 0.124961 0)
(-0.797025 0.10259 0)
(-0.893068 0.094352 0)
(-0.975594 0.103795 0)
(-1.02397 0.136746 0)
(-1.02499 0.18606 0)
(0.0159287 -0.296776 0)
(-0.0185411 -0.403367 0)
(-0.0536453 -0.375591 0)
(-0.0644493 -0.354633 0)
(-0.0794186 -0.344623 0)
(-0.0981883 -0.358503 0)
(-0.120391 -0.364622 0)
(-0.143001 -0.361237 0)
(-0.169808 -0.367195 0)
(-0.201805 -0.380766 0)
(-0.232925 -0.368866 0)
(-0.24806 -0.270268 0)
(-0.258468 -0.0901246 0)
(-0.302761 0.0741434 0)
(-0.366923 0.199579 0)
(-0.437919 0.276411 0)
(-0.507551 0.247007 0)
(-0.562587 0.199999 0)
(-0.615544 0.176114 0)
(-0.670996 0.162579 0)
(-0.716395 0.153196 0)
(-0.737961 0.153232 0)
(-0.731392 0.164915 0)
(0.0158428 -0.297546 0)
(-0.0179011 -0.369707 0)
(-0.0496868 -0.352924 0)
(-0.0637602 -0.339889 0)
(-0.0789616 -0.328731 0)
(-0.0962217 -0.33753 0)
(-0.119637 -0.341698 0)
(-0.142483 -0.336201 0)
(-0.167919 -0.338439 0)
(-0.198166 -0.349955 0)
(-0.22974 -0.345619 0)
(-0.245275 -0.259763 0)
(-0.242802 -0.0716412 0)
(-0.265274 0.121542 0)
(-0.312624 0.250956 0)
(-0.357509 0.329169 0)
(-0.40474 0.301999 0)
(-0.437858 0.24059 0)
(-0.463623 0.211924 0)
(-0.49491 0.197957 0)
(-0.522145 0.180167 0)
(-0.536131 0.163879 0)
(-0.53763 0.159071 0)
(0.00832093 -0.295088 0)
(-0.0188693 -0.33986 0)
(-0.0462336 -0.331099 0)
(-0.0624394 -0.323396 0)
(-0.0782855 -0.313134 0)
(-0.0944496 -0.316928 0)
(-0.117523 -0.318858 0)
(-0.13989 -0.312283 0)
(-0.163611 -0.311408 0)
(-0.192204 -0.319717 0)
(-0.224126 -0.321496 0)
(-0.242684 -0.253418 0)
(-0.23343 -0.0697825 0)
(-0.233309 0.148453 0)
(-0.266202 0.285296 0)
(-0.294021 0.358302 0)
(-0.324819 0.340736 0)
(-0.353324 0.265677 0)
(-0.374585 0.231421 0)
(-0.402764 0.22107 0)
(-0.430229 0.201408 0)
(-0.45036 0.178134 0)
(-0.46405 0.167304 0)
(0.001593 -0.287094 0)
(-0.0195502 -0.315531 0)
(-0.0423395 -0.310848 0)
(-0.059461 -0.305987 0)
(-0.0756843 -0.297493 0)
(-0.0911638 -0.297307 0)
(-0.112906 -0.296831 0)
(-0.134723 -0.289501 0)
(-0.157192 -0.285705 0)
(-0.184528 -0.289795 0)
(-0.216684 -0.295389 0)
(-0.240044 -0.247149 0)
(-0.230629 -0.0794964 0)
(-0.210805 0.156062 0)
(-0.229322 0.308935 0)
(-0.252672 0.376405 0)
(-0.273469 0.372101 0)
(-0.306969 0.294912 0)
(-0.340954 0.257707 0)
(-0.380098 0.251396 0)
(-0.417321 0.229683 0)
(-0.446297 0.200657 0)
(-0.465624 0.182487 0)
(-0.00259729 -0.276145 0)
(-0.0195356 -0.295846 0)
(-0.0383587 -0.292539 0)
(-0.0550347 -0.288708 0)
(-0.0711184 -0.281837 0)
(-0.0863061 -0.278767 0)
(-0.106469 -0.275753 0)
(-0.12772 -0.26753 0)
(-0.149363 -0.260964 0)
(-0.175471 -0.260202 0)
(-0.207427 -0.266614 0)
(-0.236381 -0.237467 0)
(-0.233257 -0.0953761 0)
(-0.200529 0.146503 0)
(-0.201946 0.326351 0)
(-0.229085 0.394503 0)
(-0.247193 0.400491 0)
(-0.285501 0.336696 0)
(-0.335336 0.300513 0)
(-0.387704 0.295385 0)
(-0.437222 0.268 0)
(-0.474443 0.228487 0)
(-0.493278 0.194993 0)
(-0.0044181 -0.264108 0)
(-0.0187221 -0.279447 0)
(-0.034646 -0.276283 0)
(-0.0499461 -0.272362 0)
(-0.0654074 -0.26631 0)
(-0.0804548 -0.261135 0)
(-0.0990955 -0.255643 0)
(-0.119494 -0.246278 0)
(-0.140435 -0.237171 0)
(-0.165138 -0.231319 0)
(-0.196205 -0.235021 0)
(-0.230399 -0.221046 0)
(-0.23877 -0.110634 0)
(-0.20281 0.123643 0)
(-0.183911 0.337843 0)
(-0.214244 0.418143 0)
(-0.237697 0.428731 0)
(-0.27698 0.386805 0)
(-0.333587 0.355778 0)
(-0.393446 0.351475 0)
(-0.456514 0.317536 0)
(-0.505291 0.260554 0)
(-0.525038 0.201251 0)
(-0.00454174 -0.252473 0)
(-0.0171219 -0.265173 0)
(-0.0311168 -0.261844 0)
(-0.0447475 -0.257389 0)
(-0.059147 -0.25124 0)
(-0.0737743 -0.244414 0)
(-0.0908997 -0.236696 0)
(-0.109984 -0.225953 0)
(-0.130107 -0.21447 0)
(-0.153301 -0.203697 0)
(-0.182667 -0.201432 0)
(-0.22038 -0.196073 0)
(-0.24309 -0.118929 0)
(-0.214703 0.0923215 0)
(-0.174818 0.338929 0)
(-0.19869 0.44832 0)
(-0.235457 0.461382 0)
(-0.27581 0.436775 0)
(-0.328695 0.412515 0)
(-0.38556 0.415695 0)
(-0.461847 0.382073 0)
(-0.529182 0.30184 0)
(-0.557543 0.20653 0)
(-0.00398801 -0.242212 0)
(-0.0149877 -0.252562 0)
(-0.0273925 -0.24906 0)
(-0.0393755 -0.244035 0)
(-0.0523189 -0.237224 0)
(-0.065929 -0.228972 0)
(-0.0813675 -0.219312 0)
(-0.098697 -0.206962 0)
(-0.117668 -0.193103 0)
(-0.139321 -0.177905 0)
(-0.166276 -0.167545 0)
(-0.204587 -0.162592 0)
(-0.241233 -0.11464 0)
(-0.230829 0.0586584 0)
(-0.176234 0.321197 0)
(-0.176854 0.480461 0)
(-0.228003 0.505746 0)
(-0.276216 0.484223 0)
(-0.323503 0.461168 0)
(-0.367414 0.481103 0)
(-0.450267 0.463946 0)
(-0.540061 0.36052 0)
(-0.583458 0.219974 0)
(-0.00328848 -0.233581 0)
(-0.0125173 -0.241659 0)
(-0.0231775 -0.237941 0)
(-0.0334655 -0.232412 0)
(-0.044623 -0.224808 0)
(-0.056577 -0.215292 0)
(-0.0699947 -0.203903 0)
(-0.0851741 -0.189768 0)
(-0.102398 -0.173401 0)
(-0.122293 -0.154347 0)
(-0.146427 -0.135517 0)
(-0.181877 -0.122994 0)
(-0.228168 -0.0935054 0)
(-0.243965 0.0332383 0)
(-0.192656 0.283482 0)
(-0.154708 0.501157 0)
(-0.19812 0.559861 0)
(-0.257482 0.530879 0)
(-0.314032 0.499949 0)
(-0.348781 0.538299 0)
(-0.424399 0.562294 0)
(-0.529269 0.441168 0)
(-0.588415 0.242925 0)
(-0.00251755 -0.226404 0)
(-0.0098019 -0.232358 0)
(-0.0184645 -0.228377 0)
(-0.0268347 -0.222398 0)
(-0.0359096 -0.214102 0)
(-0.0457082 -0.203523 0)
(-0.0566967 -0.190598 0)
(-0.069269 -0.174663 0)
(-0.0838984 -0.155728 0)
(-0.101263 -0.13323 0)
(-0.122217 -0.107207 0)
(-0.151766 -0.0820176 0)
(-0.199152 -0.0547513 0)
(-0.240435 0.0293534 0)
(-0.214007 0.236923 0)
(-0.144061 0.489235 0)
(-0.136346 0.616892 0)
(-0.176079 0.604613 0)