/*--------------------------------*- C++ -*----------------------------------*\
| =========                 |                                                 |
| \\      /  F ield         | OpenFOAM: The Open Source CFD Toolbox           |
|  \\    /   O peration     | Version:  2.3.0                                 |
|   \\  /    A nd           | Web:      www.OpenFOAM.org                      |
|    \\/     M anipulation  |                                                 |
\*---------------------------------------------------------------------------*/
FoamFile
{
    version     2.0;
    format      ascii;
    class       volScalarField;
    location    "2.4";
    object      alpha.water;
}
// * * * * * * * * * * * * * * * * * * * * * * * * * * * * * * * * * * * * * //

dimensions      [0 0 0 0 0 0 0];

internalField   nonuniform List<scalar> 
2268
(
1
1
1
1
1
1
0.999999
0.999999
0.999999
1
0.999998
0.999998
0.999999
0.999996
0.999997
0.999998
0.999997
0.997667
0.985579
0.9872
0.999018
0.994827
0.994186
1
1
1
1
1
0.999998
0.999998
0.999998
0.999998
0.999999
0.999998
0.999996
0.999997
0.999996
0.999997
0.999999
0.999997
0.994405
0.979095
0.983084
0.999099
0.999142
0.998517
1
1
1
1
1
0.999999
0.999999
0.999999
0.999998
0.999998
0.999998
0.999997
0.999999
0.999999
0.999999
1
0.999999
0.99669
0.979132
0.979095
0.984729
0.999288
0.99998
1
1
1
1
0.999999
0.999999
0.999999
0.999999
0.999998
0.999998
0.999999
0.999999
1
1
1
1
1
0.999917
0.992037
0.979097
0.9791
0.992071
0.999981
1
1
1
1
0.999999
0.999999
1
1
0.999999
0.999998
0.999999
0.999999
1
1
1
1
1
1
0.999068
0.982762
0.979308
0.992422
0.999982
1
1
1
0.999999
0.999999
0.999999
1
1
0.999999
0.999999
0.999999
0.999999
1
1
1
1
1
1
0.999984
0.998653
0.995936
0.999999
0.999982
1
1
0.999999
0.999999
1
1
1
0.999999
0.999999
0.999999
0.999999
0.999999
0.999999
1
1
1
0.999999
0.999999
1
1
0.999999
0.999999
0.999999
1
1
0.999999
1
1
1
1
1
1
1
1
1
1
1
1
1
1
1
1
1
0.999998
0.999999
0.999996
0.946349
0.946349
0.957444
0.965927
0.95314
0.947021
0.939466
0.918449
0.918449
0.978581
0.994662
0.994662
0.981998
0.971237
0.966431
0.963103
0.962145
0.963645
0.963774
0.946349
0.971582
0.99705
0.997009
0.996975
0.996931
0.996886
0.972917
0.918449
0.96093
0.994662
0.994648
0.957426
0.902981
0.9305
0.954907
0.964849
0.992753
0.981145
0.94811
0.996117
0.997067
0.997028
0.996924
0.996886
0.996841
0.99671
0.941065
0.922024
0.986724
0.985348
0.906286
0.902892
0.902993
0.903737
0.985603
0.993507
0.993507
0.948691
0.997227
0.997236
0.995957
0.995877
0.996834
0.996797
0.996149
0.946591
0.922024
0.922024
0.952781
0.902923
0.902911
0.902923
0.928084
0.993402
0.993477
0.993507
0.951276
0.997275
0.997336
0.99625
0.995828
0.995531
0.996748
0.996151
0.9548
0.922024
0.936742
0.977448
0.905938
0.902923
0.902939
0.960974
0.993275
0.993155
0.993197
0.974392
0.997297
0.997361
0.997556
0.997431
0.992718
0.989099
0.993382
0.98671
0.957735
0.991472
0.994497
0.955901
0.902939
0.91391
0.989973
0.993162
0.993332
0.993578
0.995236
0.996886
0.99703
0.997684
0.997594
0.994659
0.963686
0.969077
0.993513
0.994479
0.994563
0.994566
0.994507
0.974382
0.984544
0.993212
0.993315
0.993633
0.993633
0.992189
0.995212
0.997851
0.997801
0.997684
0.997495
0.941204
0.841254
0.914894
0.994563
0.994565
0.994563
0.994566
0.994529
0.986545
0.978997
0.993093
0.99351
0.993633
0.999999
0.999998
0.999998
1
1
1
1
1
1
1
1
1
1
1
1
1
1
1
1
1
1
0.999997
0.99998
0.849689
0.853812
0.853728
0.850582
0.844454
0.836739
0.827437
0.817867
0.808007
0.797123
0.788126
0.782165
0.779539
0.781515
0.791518
0.8117
0.839955
0.876315
0.916702
0.955016
0.984851
0.997708
0.99988
0.121346
0.123031
0.125341
0.125326
0.123157
0.118594
0.111217
0.100532
0.0891609
0.0806382
0.0735394
0.0689828
0.0657992
0.0666853
0.0713382
0.0841763
0.110637
0.152815
0.219709
0.324688
0.510497
0.778902
0.960717
0.00245899
0.00234662
0.0023246
0.00232326
0.0023246
0.00232319
0.00238907
0.0026487
0.00307963
0.00361987
0.0042542
0.00498067
0.00556362
0.00632833
0.00729368
0.00822185
0.00960272
0.0118631
0.0102751
0.00785012
0.0189104
0.0844598
0.251026
0.00259059
0.0067252
0.00713812
0.00714322
0.00713379
0.00261393
0.00266841
0.00858277
0.00979756
0.00982137
0.00979756
0.00630032
0.00575141
0.00732349
0.0183426
0.018341
0.0182864
0.0123228
0.00920029
0.00594518
0.00418049
0.00404886
0.00405654
0.00216671
0.0012157
0.000604536
0.00199596
0.0044336
0.00452582
0.00452582
0.00326354
0.00341352
0.00549383
0.00537803
0.00319722
0.0127657
0.018378
0.0183645
0.0183502
0.018341
0.0182864
0.0174369
0.00454385
0.00412498
0.00408231
0.00406758
0.000380293
1.84676e-06
2.98503e-06
2.02183e-05
0.000492241
0.00106322
0.000847052
0.000252006
0.000395266
0.000597856
0.000708473
0.00118853
0.00594658
0.00690717
0.00526401
0.012166
0.0182863
0.0180475
0.00952765
0.00415843
0.00414091
0.00412743
0.00407829
1.83678e-06
3.1309e-07
1.93064e-06
3.22798e-06
1.8106e-06
6.34152e-06
2.85685e-05
7.28559e-05
0.000811709
0.00145071
0.00081237
0.000582825
0.000351891
0.000314015
0.000297876
0.000377087
0.0037041
0.0122971
0.0136328
0.013656
0.00939022
0.00413694
0.00884226
2.77208e-07
1.38893e-07
1.64793e-06
3.22071e-06
7.82204e-07
1.81045e-06
6.33806e-06
0.000256985
0.00146509
0.00146509
0.00146509
0.0011124
0.000315397
0.000288044
0.000285401
0.000284802
0.00026793
0.00124934
0.00911443
0.0134374
0.013124
0.0107025
0.00256913
5.08772e-08
1.04482e-07
2.27323e-06
2.61558e-06
4.81339e-07
1.63928e-06
4.3179e-06
9.54437e-05
0.000517853
0.00113255
0.0014467
0.00144517
0.0011433
0.000285322
0.000272432
0.000266635
0.000258907
0.000202728
5.64933e-05
6.04929e-05
0.000975116
0.00126094
0.000534656
8.92047e-09
8.60277e-08
1.57327e-06
1.22166e-06
3.24134e-07
5.14933e-06
1.45996e-05
1.87919e-05
3.11316e-06
4.10338e-05
0.000333239
0.000985156
0.0012042
0.000850367
0.000259618
0.000286579
0.000739159
0.000631184
6.39624e-05
2.72242e-07
2.72242e-07
3.41538e-07
2.4502e-07
4.21973e-09
3.24453e-08
1.0617e-07
1.93196e-08
2.99757e-07
3.29512e-06
3.37047e-06
2.49479e-07
3.43097e-07
5.57352e-07
1.40185e-06
3.84657e-05
0.000260494
0.000342118
0.000208674
0.000581783
0.000741041
0.000741653
0.000655038
2.72242e-07
2.51183e-06
1.35899e-05
2.56387e-05
3.24962e-09
1.98491e-09
3.40032e-09
3.41841e-09
6.67949e-08
8.30349e-08
3.78613e-08
3.05685e-08
3.85395e-08
5.62736e-08
1.28167e-07
3.17577e-07
8.15288e-07
1.31865e-06
2.65366e-05
0.00033049
0.000741466
0.000741099
0.000435463
3.39933e-06
3.38031e-06
6.31957e-05
9.66446e-05
7.68974e-09
1.14022e-09
1.38006e-09
1.89361e-09
2.52939e-09
5.55522e-09
5.81434e-09
4.37167e-09
4.73582e-09
6.05562e-09
1.24147e-08
2.73186e-08
6.50101e-08
1.00655e-07
1.32003e-07
1.9649e-05
0.000124026
0.000179492
3.07312e-05
8.20169e-07
2.85951e-09
4.17149e-05
9.75167e-05
4.66713e-08
1.09852e-09
1.14089e-09
1.54892e-09
1.81427e-09
2.38205e-09
1.91144e-09
1.29288e-09
1.03856e-09
9.93934e-10
1.70762e-09
2.63625e-09
4.99665e-09
7.28909e-09
8.80961e-09
5.89574e-08
9.98201e-08
5.99646e-08
8.50059e-09
4.24487e-08
2.22468e-09
2.46497e-10
6.97172e-05
5.34227e-08
1.08839e-09
1.28193e-09
1.68854e-09
2.09707e-09
1.97356e-09
1.43843e-09
9.44787e-10
6.0674e-10
4.80353e-10
7.08495e-10
5.90762e-10
5.83e-10
7.11695e-10
6.95723e-10
2.53494e-09
2.25163e-09
1.87445e-09
3.46582e-10
9.7721e-11
1.55554e-10
2.07407e-10
9.18445e-08
5.35031e-08
1.08842e-09
1.20935e-09
1.63435e-09
2.02672e-09
1.90947e-09
1.49499e-09
9.06835e-10
5.30255e-10
4.12031e-10
5.39673e-10
3.00503e-10
2.22284e-10
2.0921e-10
1.90858e-10
2.85453e-10
2.85903e-10
1.02594e-10
9.8406e-11
7.36481e-11
7.57638e-11
8.06381e-11
3.37452e-06
5.35197e-08
4.38519e-09
1.30522e-09
1.30967e-09
1.53987e-09
1.55057e-09
1.39436e-09
9.48983e-10
5.81901e-10
3.98693e-10
3.44688e-10
2.27021e-10
1.81312e-10
1.56453e-10
1.42392e-10
1.26203e-10
1.1725e-10
1.11997e-10
9.97074e-11
6.77802e-11
7.91834e-11
2.31882e-07
8.8003e-08
5.35194e-08
2.46893e-08
3.87948e-09
1.16629e-09
1.20046e-09
1.20842e-09
1.08677e-09
8.94228e-10
6.05028e-10
3.97884e-10
2.98327e-10
2.23774e-10
1.76907e-10
1.50828e-10
1.36763e-10
1.09461e-10
1.03347e-10
1.04679e-10
1.05303e-10
6.27832e-11
5.97427e-11
2.30596e-07
2.50043e-07
5.35196e-08
2.26982e-08
5.45771e-09
1.12531e-09
1.20447e-09
1.24015e-09
1.01271e-09
7.97684e-10
5.88269e-10
3.95884e-10
2.95279e-10
2.15628e-10
1.6541e-10
1.34967e-10
1.1574e-10
1.05747e-10
9.98659e-11
1.0044e-10
9.37442e-11
5.7308e-11
5.76815e-11
2.63522e-08
2.57733e-08
1.48695e-08
4.87021e-09
2.3543e-09
1.10996e-09
1.11242e-09
1.22511e-09
1.11277e-09
8.23329e-10
5.59159e-10
3.90591e-10
2.84414e-10
2.07792e-10
1.56123e-10
1.22556e-10
9.99975e-11
8.58399e-11
7.63859e-11
7.31666e-11
6.75805e-11
5.08522e-11
1.39221e-09
4.14774e-10
4.68279e-11
1.47986e-09
1.18821e-09
1.10957e-09
1.10943e-09
1.11016e-09
1.13067e-09
1.12799e-09
9.17308e-10
5.89326e-10
3.78925e-10
2.75302e-10
1.98767e-10
1.46401e-10
1.11309e-10
8.68194e-11
6.95042e-11
5.70677e-11
4.96251e-11
4.35373e-11
4.41814e-11
2.44367e-10
1.78212e-10
6.7489e-11
2.34126e-09
8.53692e-06
3.08143e-06
1.67024e-07
1.08226e-09
1.12572e-09
1.23256e-09
9.88892e-10
6.38836e-10
3.83828e-10
2.63852e-10
1.88964e-10
1.3452e-10
9.8038e-11
7.28421e-11
5.48848e-11
4.19552e-11
3.31466e-11
2.67812e-11
2.68929e-11
3.2922e-11
2.70191e-11
2.06257e-11
2.56372e-05
2.97495e-05
2.93376e-05
5.30132e-06
2.65855e-09
1.34391e-09
1.29882e-09
9.67932e-10
6.63355e-10
4.06237e-10
2.56521e-10
1.81102e-10
1.22309e-10
8.38764e-11
5.87173e-11
4.17701e-11
3.0115e-11
2.2116e-11
1.6512e-11
1.39174e-11
1.21788e-11
9.81821e-12
7.28868e-12
2.97495e-05
2.97495e-05
2.97495e-05
9.19189e-06
3.5879e-09
1.11269e-09
1.07474e-09
8.39034e-10
6.47388e-10
4.35875e-10
2.4515e-10
1.49856e-10
1.03998e-10
6.86074e-11
4.5655e-11
3.0858e-11
2.11609e-11
1.46988e-11
1.03049e-11
7.5044e-12
5.52982e-12
3.96261e-12
2.74865e-12
2.13768e-05
2.97495e-05
2.04404e-05
5.07954e-06
2.38697e-09
5.65825e-10
4.84324e-10
5.7451e-10
5.26548e-10
3.78024e-10
1.91614e-10
1.17484e-10
8.00469e-11
5.13219e-11
3.29528e-11
2.13981e-11
1.40554e-11
9.30738e-12
6.18309e-12
4.12781e-12
2.74311e-12
1.79998e-12
1.1662e-12
7.13527e-07
5.61802e-06
8.2925e-07
3.38768e-07
6.84859e-08
2.99607e-09
2.85835e-10
2.77523e-10
2.61461e-10
1.92037e-10
1.15909e-10
8.19242e-11
5.27391e-11
3.31221e-11
2.0723e-11
1.30199e-11
8.2169e-12
5.1914e-12
3.26829e-12
2.04306e-12
1.26165e-12
7.70732e-13
4.66643e-13
8.59217e-09
2.21181e-08
7.54536e-09
2.2116e-09
1.66013e-08
3.37392e-09
3.14941e-10
1.16127e-10
1.08928e-10
8.91868e-11
6.89691e-11
4.58963e-11
2.8923e-11
1.77714e-11
1.08124e-11
6.55201e-12
3.9538e-12
2.3688e-12
1.40344e-12
8.19229e-13
4.69706e-13
2.66604e-13
1.50148e-13
6.83744e-10
1.74294e-09
6.02518e-10
1.92607e-10
8.43653e-11
5.58947e-10
1.73452e-10
7.98255e-11
6.47016e-11
4.83863e-11
3.33143e-11
2.13177e-11
1.30246e-11
7.74592e-12
4.53186e-12
2.61805e-12
1.49243e-12
8.37153e-13
4.6043e-13
2.47415e-13
1.30088e-13
6.78801e-14
3.52597e-14
9.04601e-11
1.80495e-10
8.75563e-11
4.63603e-11
3.52886e-11
4.11897e-11
4.60437e-11
3.94138e-11
2.92698e-11
2.04413e-11
1.32762e-11
8.11353e-12
4.74631e-12
2.69229e-12
1.49112e-12
8.07899e-13
4.27638e-13
2.20445e-13
1.10222e-13
5.31509e-14
2.52047e-14
1.18936e-14
5.6742e-15
2.90406e-11
3.39038e-11
3.06253e-11
2.73679e-11
2.86511e-11
2.7576e-11
2.06195e-11
1.53074e-11
1.07454e-11
7.04614e-12
4.31691e-12
2.49697e-12
1.37996e-12
7.34941e-13
3.78723e-13
1.8886e-13
9.08967e-14
4.2025e-14
1.85454e-14
7.78762e-15
3.24921e-15
1.37711e-15
6.75532e-16
2.22773e-11
2.09538e-11
2.2106e-11
1.69815e-11
1.23165e-11
9.30022e-12
6.85366e-12
4.84072e-12
3.20013e-12
1.96944e-12
1.13264e-12
6.13993e-13
3.16347e-13
1.55721e-13
7.33329e-14
3.29675e-14
1.40738e-14
5.65685e-15
2.11262e-15
7.52233e-16
2.73839e-16
1.28664e-16
1.56263e-16
7.18504e-12
1.08358e-11
7.5563e-12
5.02408e-12
3.58046e-12
2.61486e-12
1.85362e-12
1.23909e-12
7.69422e-13
4.43046e-13
2.37649e-13
1.19531e-13
5.66699e-14
2.53773e-14
1.07159e-14
4.24298e-15
1.55944e-15
5.23364e-16
1.5714e-16
4.78058e-17
2.13159e-17
3.53046e-17
1.17927e-16
1.53697e-12
2.56121e-12
1.76992e-12
1.20303e-12
8.46722e-13
5.98987e-13
4.05449e-13
2.55722e-13
1.48751e-13
7.97991e-14
3.96375e-14
1.83082e-14
7.88042e-15
3.15674e-15
1.17024e-15
3.97117e-16
1.21093e-16
3.21787e-17
7.87015e-18
3.09176e-18
6.30686e-18
2.49159e-17
9.92628e-17
2.67582e-13
4.81892e-13
3.39399e-13
2.33591e-13
1.62501e-13
1.11129e-13
7.15942e-14
4.25078e-14
2.30926e-14
1.14834e-14
5.24054e-15
2.19833e-15
8.46568e-16
2.97641e-16
9.4488e-17
2.65721e-17
6.41086e-18
1.2768e-18
3.87203e-19
8.12957e-19
3.69928e-18
1.67585e-17
7.22332e-17
3.79256e-14
7.3506e-14
5.32039e-14
3.69282e-14
2.53403e-14
1.67172e-14
1.02301e-14
5.70573e-15
2.88484e-15
1.32211e-15
5.49481e-16
2.06761e-16
7.00505e-17
2.11338e-17
5.57105e-18
1.24337e-18
2.23829e-19
4.38561e-20
6.89102e-20
3.57831e-19
1.86761e-18
9.20147e-18
4.30377e-17
4.40305e-15
9.19629e-15
6.85098e-15
4.7837e-15
3.22921e-15
2.05142e-15
1.19061e-15
6.22438e-16
2.91759e-16
1.2244e-16
4.58936e-17
1.52754e-17
4.46469e-18
1.12445e-18
2.36642e-19
3.95884e-20
5.19549e-21
3.54346e-21
2.0013e-20
1.23978e-19
7.163e-19
3.88024e-18
1.99274e-17
4.22871e-16
9.53926e-16
7.31194e-16
5.12583e-16
3.39588e-16
2.07464e-16
1.14059e-16
5.57712e-17
2.4138e-17
9.21346e-18
3.08242e-18
8.93755e-19
2.20383e-19
4.48279e-20
7.16281e-21
8.36398e-22
1.36699e-22
5.32118e-22
4.09032e-21
2.91089e-20
1.90334e-19
1.15792e-18
6.64912e-18
3.40144e-17
8.30065e-17
6.54393e-17
4.59933e-17
2.98609e-17
1.75326e-17
9.12369e-18
4.16509e-18
1.6584e-18
5.72152e-19
1.69176e-19
4.20934e-20
8.55644e-21
1.3552e-21
1.54925e-22
1.17847e-23
5.42181e-24
4.82764e-23
4.59385e-22
3.916e-21
3.0193e-20
2.13967e-19
1.41759e-18
2.32077e-18
6.13063e-18
4.97592e-18
3.50647e-18
2.23062e-18
1.259e-18
6.20114e-19
2.64038e-19
9.64785e-20
2.99502e-20
7.7699e-21
1.63999e-21
2.6977e-22
3.22432e-23
2.50115e-24
1.28437e-25
1.20157e-25
1.56267e-24
1.97652e-23
2.19474e-22
2.16604e-21
1.93224e-20
1.58722e-19
1.35306e-19
3.88271e-19
3.26011e-19
2.30853e-19
1.44056e-19
7.82441e-20
3.65058e-20
1.45017e-20
4.86088e-21
1.35628e-21
3.0813e-22
5.50178e-23
7.2944e-24
6.5422e-25
3.43805e-26
1.25509e-27
4.36573e-28
7.01693e-27
1.40066e-25
2.42426e-24
3.67722e-23
4.96425e-22
6.05572e-21
6.68253e-21
2.12941e-20
1.86945e-20
1.33484e-20
8.18286e-21
4.28305e-21
1.89596e-21
7.04006e-22
2.17014e-22
5.4628e-23
1.09372e-23
1.67106e-24
1.82634e-25
1.29113e-26
5.15725e-28
1.20086e-29
4.48733e-31
7.79857e-32
2.21008e-30
1.04094e-28
4.31868e-27
1.6072e-25
5.46122e-24
0.999883
0.995695
0.984579
0.984579
0.999397
0.999005
0.998088
0.996071
0.991059
0.99079
0.990511
0.990552
0.408939
0.425801
0.402683
0.395521
0.00404041
0.00403399
0.00400704
0.00404804
0.00405724
0.00401157
0.00397348
0.00404789
0.00439577
0.00724506
0.00969986
0.0137616
0.0227371
0.0227371
0.0227371
0.0226147
0.00586995
0.0198653
0.022125
0.0103485
1.5749e-07
1.58937e-07
1.58937e-07
1.72359e-07
1.58939e-07
1.57492e-07
1.71888e-07
2.00011e-07
2.44082e-07
1.66207e-07
1.99438e-07
2.1277e-07
3.99552e-05
2.03217e-06
2.13509e-07
2.53155e-07
9.72443e-05
6.61285e-05
4.11178e-06
4.5781e-07
9.75167e-05
9.66958e-05
2.0287e-05
3.47056e-07
9.37724e-05
7.32999e-05
8.79223e-06
1.67257e-08
4.31919e-06
5.78066e-06
4.69901e-06
1.09885e-07
1.8881e-09
8.40142e-10
5.87874e-10
8.61501e-10
1.41076e-07
3.45829e-09
1.8545e-10
8.3951e-11
1.34661e-08
2.61828e-09
5.81407e-11
6.78347e-11
4.26573e-11
4.0298e-11
5.05289e-11
5.29749e-11
4.6692e-11
3.66223e-11
3.09321e-11
2.73639e-11
1.75547e-11
1.47625e-11
1.24411e-11
1.06939e-11
6.12167e-12
5.07995e-12
4.20991e-12
3.53225e-12
2.2501e-12
1.83134e-12
1.48733e-12
1.21195e-12
9.23336e-13
7.28654e-13
5.73127e-13
4.49686e-13
3.55551e-13
2.7018e-13
2.04571e-13
1.54274e-13
1.09607e-13
7.98695e-14
5.80663e-14
4.21274e-14
2.45345e-14
1.71053e-14
1.19808e-14
8.48277e-15
3.78905e-15
2.60194e-15
1.88525e-15
1.49858e-15
5.11524e-16
4.62006e-16
5.01761e-16
6.24604e-16
2.01753e-16
2.8239e-16
4.07475e-16
5.93338e-16
1.77097e-16
2.65588e-16
3.96912e-16
5.91254e-16
1.51902e-16
2.31128e-16
3.50336e-16
5.30382e-16
1.11852e-16
1.72306e-16
2.65115e-16
4.09753e-16
6.74338e-17
1.05327e-16
1.65377e-16
2.6445e-16
3.16311e-17
5.03477e-17
8.19299e-17
1.40395e-16
1.07299e-17
1.76831e-17
3.11722e-17
6.21176e-17
2.35618e-18
4.24725e-18
9.11856e-18
2.42092e-17
2.88596e-19
6.84702e-19
2.19171e-18
8.52988e-18
1.64357e-20
7.49576e-20
3.85108e-19
2.3278e-18
8.95156e-23
1.26527e-21
1.7627e-20
3.36184e-19
0.984967
0.9986
0.998612
0.997032
0.997307
0.996592
0.933008
0.693672
0.685913
0.748131
0.884659
0.939415
0.941556
0.917249
0.910228
0.936387
0.991917
0.993112
0.99319
0.996647
0.998612
0.99858
0.9933
0.97228
0.968472
0.946529
0.720842
0.686095
0.685839
0.696126
0.709152
0.711163
0.758229
0.825444
0.814696
0.752559
0.71034
0.752459
0.990451
0.98529
0.943505
0.864289
0.806164
0.789162
0.797177
0.795284
0.793485
0.792686
0.788261
0.703292
0.598537
0.522912
0.363171
0.194195
0.0916815
0.114635
0.198736
0.392249
0.360833
0.320924
0.282726
0.239252
0.209583
0.221134
0.31424
0.333063
0.274693
0.178211
0.11726
0.0755976
0.0104508
2.71062e-05
2.67817e-05
5.56551e-05
0.000211858
0.000329295
0.00410258
0.00403373
0.0034514
0.00298518
0.00287537
0.00281901
0.0025984
0.0021728
0.00162264
0.00094747
0.00034254
7.37079e-05
3.1724e-05
2.71312e-05
2.65279e-05
2.65936e-05
2.679e-05
4.80029e-05
0.000230529
0.00476343
0.0103921
0.011859
0.0102905
0.00937864
0.00906159
0.0110057
0.0133051
0.012412
0.0133054
0.0129399
0.00590958
7.14598e-05
2.79877e-05
2.54347e-05
2.63178e-05
2.65943e-05
3.75008e-05
0.000242167
0.0226187
0.0227576
0.0228166
0.0228166
0.0228166
0.0228066
0.0227169
0.0224205
0.0203788
0.0118094
0.00217212
0.00151751
0.00100649
2.86847e-05
2.44131e-05
2.54351e-05
2.8573e-05
0.000197833
0.000253351
0.0182752
0.0130326
0.0138939
0.0146077
0.0129344
0.00967012
0.00619688
0.00210044
2.09546e-05
1.73776e-05
1.63227e-05
1.73783e-05
0.000379046
2.20048e-05
2.32474e-05
2.43868e-05
0.000119841
0.000219966
0.000219606
7.31217e-07
2.73975e-06
3.98683e-06
7.48478e-06
1.5232e-05
2.48537e-05
3.61203e-05
4.0672e-05
3.47955e-05
1.63276e-05
1.52179e-05
1.82337e-05
1.86551e-05
1.98826e-05
2.79037e-05
0.000126892
0.000161493
0.000161505
4.65741e-05
2.70774e-07
1.35993e-06
5.85645e-05
0.000110816
0.000142923
0.000152627
0.000139845
0.000146588
0.000206826
0.000122151
1.40555e-05
1.63959e-05
3.34307e-05
3.07848e-05
0.000110124
0.000158225
0.000160387
8.11888e-05
3.48439e-05
3.30453e-07
8.06741e-06
0.000167407
0.000219236
0.000221331
0.000221331
0.000221331
0.00021696
0.000209691
0.000201286
1.28276e-05
1.0339e-05
2.81875e-05
6.61905e-05
0.000156515
0.000157119
0.000134277
1.25016e-05
1.2427e-05
3.41898e-07
5.43172e-07
1.33456e-06
4.86809e-05
0.00013519
0.000182862
8.19168e-05
4.91706e-05
0.000143947
0.000155575
1.54788e-05
9.02789e-06
1.47561e-06
6.03511e-05
0.000156106
0.000153477
2.17384e-05
1.2427e-05
2.48247e-05
5.21417e-06
1.30453e-05
6.20525e-06
5.99488e-07
3.22095e-07
2.65826e-07
2.5136e-07
1.90689e-07
4.49084e-07
4.94327e-05
0.000116682
8.70736e-05
3.21613e-07
1.65063e-05
7.44531e-05
4.93127e-05
8.21437e-07
2.41855e-05
6.00096e-05
7.7845e-06
2.81359e-05
2.83554e-05
1.43199e-05
4.3802e-06
2.51362e-07
1.84359e-07
8.8076e-08
2.45482e-07
5.72374e-05
0.000116682
8.22899e-05
1.73411e-07
1.07707e-07
7.65723e-08
3.58223e-08
1.07516e-07
3.6392e-05
6.00096e-05
2.95986e-06
2.83507e-05
2.8397e-05
2.83908e-05
2.84723e-05
1.03444e-05
8.80763e-08
7.49796e-08
7.97292e-08
5.23021e-06
1.76178e-05
5.05791e-06
3.7584e-06
3.85354e-07
9.93674e-07
2.07655e-08
3.58217e-08
2.29657e-05
6.0009e-05
6.46631e-09
1.25076e-05
2.83822e-05
2.84537e-05
2.8492e-05
2.8536e-05
6.75262e-06
7.48996e-08
8.1676e-08
8.0942e-08
8.22731e-08
8.51543e-08
8.68866e-08
1.80391e-06
2.49769e-06
1.88707e-08
1.15435e-08
7.14769e-06
6.00027e-05
2.13233e-10
5.79344e-11
1.06904e-05
2.78104e-05
2.84537e-05
2.82866e-05
2.10838e-05
7.49794e-08
7.49003e-08
7.93584e-08
2.37115e-07
8.65079e-08
9.08835e-08
5.444e-07
1.8055e-06
9.80352e-10
5.81183e-10
2.10461e-06
5.996e-05
7.77316e-10
5.09097e-11
3.28462e-11
3.92886e-06
2.30058e-05
2.80587e-05
1.6627e-05
7.49077e-08
7.83367e-08
7.94215e-07
1.1421e-06
5.94115e-07
8.25987e-08
4.1582e-10
4.1582e-10
9.82978e-10
2.37484e-10
1.61236e-07
5.97111e-05
6.75228e-11
5.55508e-11
3.4004e-11
2.80318e-11
2.67162e-11
4.48914e-06
2.80589e-11
1.73019e-07
1.2517e-07
1.1421e-06
1.14276e-06
1.14329e-06
4.6866e-07
4.15762e-10
4.21976e-10
5.85007e-10
2.37426e-10
2.37428e-10
3.76137e-05
8.02306e-11
5.79445e-11
4.30653e-11
3.28843e-11
2.65009e-11
2.64547e-11
2.64547e-11
1.61272e-07
6.58301e-08
1.07694e-06
1.1421e-06
1.14072e-06
5.89093e-07
4.48806e-10
4.48096e-10
1.49573e-09
2.37316e-10
2.24137e-10
5.85608e-10
4.83923e-11
4.30133e-11
3.77052e-11
3.52517e-11
3.03454e-11
2.73019e-11
2.67225e-11
2.67227e-11
2.68942e-11
1.12972e-07
1.10265e-06
1.11528e-06
2.17006e-07
1.73944e-08
8.29706e-09
2.59998e-09
1.86617e-10
1.81562e-10
3.2326e-06
2.53535e-11
2.54923e-11
2.57048e-11
2.47794e-11
2.3926e-11
2.44409e-11
2.60691e-11
2.80622e-11
2.88258e-11
2.88258e-11
1.3689e-07
1.43428e-07
1.59381e-07
1.36542e-07
8.92458e-08
4.06833e-09
1.39921e-10
6.62508e-13
3.42325e-05
9.77646e-12
1.05918e-11
1.19874e-11
1.34777e-11
1.52799e-11
1.80125e-11
2.18267e-11
2.68853e-11
3.01139e-11
3.05262e-11
2.79299e-11
2.78897e-11
8.6791e-08
1.47922e-07
1.27128e-07
4.96948e-09
9.23529e-11
5.0867e-07
3.47988e-05
2.99359e-12
3.20089e-12
3.99671e-12
5.40721e-12
7.59888e-12
1.08244e-11
1.51359e-11
2.01729e-11
2.58389e-11
2.81925e-11
2.84843e-11
2.78897e-11
2.78583e-11
5.95636e-08
2.12861e-08
2.73147e-09
6.94813e-11
2.23791e-06
3.47988e-05
8.88771e-13
8.22735e-13
1.03456e-12
1.64412e-12
2.90057e-12
5.18743e-12
8.70374e-12
1.31689e-11
1.78377e-11
2.19705e-11
2.51371e-11
2.7539e-11
2.78573e-11
2.78578e-11
2.80518e-11
1.99389e-10
6.8173e-11
3.51391e-06
3.47718e-05
2.84983e-13
2.12319e-13
2.37581e-13
4.23382e-13
9.30683e-13
2.04727e-12
4.0339e-12
6.90723e-12
1.04346e-11
1.44924e-11
1.91466e-11
2.41028e-11
2.8882e-11
3.3863e-11
4.45137e-11
6.86721e-11
6.81728e-11
3.60237e-06
3.47101e-05
8.84504e-14
5.65368e-14
5.57197e-14
1.07901e-13
2.8571e-13
7.43137e-13
1.68172e-12
3.25565e-12
5.53586e-12
8.7283e-12
1.32141e-11
1.92652e-11
2.7795e-11
3.94067e-11
6.29624e-11
9.04972e-11
6.81729e-11
1.53281e-06
3.46195e-05
2.29783e-14
1.50798e-14
1.74355e-14
3.86139e-14
1.09228e-13
3.03033e-13
7.4519e-13
1.59277e-12
3.02437e-12
5.33902e-12
8.9688e-12
1.46522e-11
2.371e-11
3.71799e-11
6.62681e-11
9.83864e-11
6.84705e-11
5.12244e-08
3.4471e-05
5.21833e-15
5.66415e-15
1.11613e-14
2.75302e-14
7.12322e-14
1.82052e-13
4.38245e-13
9.66097e-13
1.95301e-12
3.70486e-12
6.68221e-12
1.16157e-11
1.97051e-11
3.28284e-11
6.36314e-11
1.03847e-10
9.01804e-11
9.01816e-11
3.10655e-05
2.00693e-15
4.73131e-15
1.22475e-14
3.05453e-14
7.29405e-14
1.68279e-13
3.74169e-13
7.93425e-13
1.59705e-12
3.07065e-12
5.66783e-12
1.01183e-11
1.7613e-11
3.00975e-11
6.46009e-11
1.18378e-10
9.0246e-11
9.06002e-11
5.17028e-06
1.9205e-15
5.88919e-15
1.62864e-14
4.05541e-14
9.28916e-14
2.00437e-13
4.14191e-13
8.25372e-13
1.59002e-12
2.97162e-12
5.40515e-12
9.63151e-12
1.68929e-11
2.92689e-11
6.85955e-11
1.37938e-10
9.0658e-11
9.39222e-11
1.42256e-06
2.36024e-15
8.29081e-15
2.44033e-14
6.13161e-14
1.36521e-13
2.79274e-13
5.39978e-13
1.00534e-12
1.8219e-12
3.23622e-12
5.67046e-12
9.91178e-12
1.72948e-11
3.0259e-11
7.26923e-11
1.54079e-10
9.11698e-11
5.25279e-07
2.12495e-05
3.00869e-15
1.25248e-14
3.9918e-14
1.02621e-13
2.2539e-13
4.42991e-13
8.07774e-13
1.40403e-12
2.37109e-12
3.94397e-12
6.55334e-12
1.10934e-11
1.89694e-11
3.33538e-11
1.06548e-10
1.48412e-10
9.21128e-11
4.23093e-06
2.19968e-05
3.78387e-15
1.88428e-14
6.55731e-14
1.76012e-13
3.91952e-13
7.61377e-13
1.34002e-12
2.20464e-12
3.48122e-12
5.39498e-12
8.41749e-12
1.35913e-11
2.22392e-11
3.84967e-11
1.32184e-10
1.75966e-10
9.30028e-11
4.06931e-06
2.19968e-05
4.45384e-15
2.59322e-14
9.90872e-14
2.85099e-13
6.6677e-13
1.32711e-12
2.32723e-12
3.71282e-12
5.56616e-12
8.10018e-12
1.18803e-11
1.81019e-11
2.77492e-11
4.61906e-11
1.48251e-10
3.09492e-10
9.57371e-11
1.00037e-10
1.21542e-05
4.66582e-15
3.06387e-14
1.30107e-13
4.15612e-13
1.06431e-12
2.25676e-12
4.07632e-12
6.47547e-12
9.3961e-12
1.3025e-11
1.81732e-11
2.62954e-11
3.77844e-11
6.07079e-11
2.10682e-10
4.45863e-10
2.87784e-10
4.02315e-07
4.93493e-10
4.1115e-15
2.97918e-14
1.44742e-13
5.37507e-13
1.57969e-12
3.71026e-12
7.12923e-12
1.15936e-11
1.66486e-11
2.23297e-11
3.00767e-11
4.24222e-11
5.9335e-11
9.52263e-11
2.65951e-10
9.47997e-10
8.62545e-10
5.25893e-10
4.92271e-10
2.85648e-15
2.31948e-14
1.34664e-13
6.09994e-13
2.14945e-12
5.75315e-12
1.20364e-11
2.04997e-11
2.98027e-11
3.93397e-11
5.17902e-11
7.36815e-11
1.0787e-10
1.83375e-10
6.0368e-10
1.17683e-09
1.07854e-09
6.196e-10
1.08044e-09
1.46656e-15
1.4196e-14
1.03261e-13
5.91839e-13
2.5919e-12
7.97362e-12
1.8368e-11
3.32879e-11
4.9993e-11
6.627e-11
8.61483e-11
1.23406e-10
1.98421e-10
3.89255e-10
9.33443e-10
1.1809e-09
8.76532e-10
4.57629e-10
2.03135e-09
5.29726e-16
6.86467e-15
6.6557e-14
4.8878e-13
2.69901e-12
9.43722e-12
2.41386e-11
4.73069e-11
7.50242e-11
1.02179e-10
1.34075e-10
1.86031e-10
2.92251e-10
5.61159e-10
9.02707e-10
7.38894e-10
4.35278e-10
4.37199e-10
1.00059e-09
1.26086e-16
2.53871e-15
3.38714e-14
3.19266e-13
2.27188e-12
8.9322e-12
2.61963e-11
5.68741e-11
1.00155e-10
1.45609e-10
1.92931e-10
2.67261e-10
3.28817e-10
4.86606e-10
2.31062e-09
7.40552e-10
1.56758e-07
9.23521e-08
1.01661e-09
1.62655e-17
5.72746e-16
1.04572e-14
1.21056e-13
1.25025e-12
5.5803e-12
1.99322e-11
4.80169e-11
9.73332e-11
1.68384e-10
2.33541e-10
3.14504e-10
3.78641e-10
3.6722e-10
1.41317e-14
1.31646e-07
5.22048e-07
5.22048e-07
1.86258e-07
)
;

boundaryField
{
    leftWall
    {
        type            zeroGradient;
    }
    rightWall
    {
        type            zeroGradient;
    }
    lowerWall
    {
        type            zeroGradient;
    }
    atmosphere
    {
        type            inletOutlet;
        inletValue      uniform 0;
        value           nonuniform List<scalar> 
46
(
6.68253e-21
2.12941e-20
1.86945e-20
1.33484e-20
8.18286e-21
4.28305e-21
1.89596e-21
7.04006e-22
2.17014e-22
5.4628e-23
1.09372e-23
1.67106e-24
1.82634e-25
1.29113e-26
5.15725e-28
1.20086e-29
0
0
0
0
0
0
0
0
0
0
0
0
0
0
0
0
0
0
0
0
0
0
0
0
0
0
1.31646e-07
5.22048e-07
5.22048e-07
1.86258e-07
)
;
    }
    defaultFaces
    {
        type            empty;
    }
}


// ************************************************************************* //
