/*--------------------------------*- C++ -*----------------------------------*\
| =========                 |                                                 |
| \\      /  F ield         | OpenFOAM: The Open Source CFD Toolbox           |
|  \\    /   O peration     | Version:  2.3.0                                 |
|   \\  /    A nd           | Web:      www.OpenFOAM.org                      |
|    \\/     M anipulation  |                                                 |
\*---------------------------------------------------------------------------*/
FoamFile
{
    version     2.0;
    format      ascii;
    class       volScalarField;
    location    "2.4";
    object      epsilon;
}
// * * * * * * * * * * * * * * * * * * * * * * * * * * * * * * * * * * * * * //

dimensions      [0 2 -3 0 0 0 0];

internalField   nonuniform List<scalar> 
2268
(
0.00502607
0.0238182
0.0433288
0.0622338
0.080727
0.099475
0.118777
0.138733
0.159435
0.180947
0.203262
0.226184
0.249124
0.270871
0.289509
0.30258
0.307152
0.299153
0.274953
0.239715
0.191366
0.123149
0.0353603
0.00928412
0.0159789
0.0242857
0.0326932
0.0410998
0.0496797
0.0585562
0.0678009
0.0774821
0.0876395
0.0982653
0.109262
0.120365
0.131039
0.140428
0.147399
0.150654
0.148973
0.141493
0.127291
0.106503
0.0812186
0.0591973
0.0149604
0.0166705
0.0224657
0.0287211
0.0351328
0.0417423
0.0486244
0.0558537
0.063503
0.071624
0.0802268
0.0892392
0.0984403
0.107389
0.115411
0.121664
0.125272
0.125491
0.121871
0.114161
0.103188
0.0918346
0.0980968
0.0204325
0.0185074
0.0230112
0.0283195
0.0339272
0.0397914
0.045963
0.0525178
0.0595295
0.0670642
0.0751498
0.0837258
0.0925696
0.101236
0.109081
0.115382
0.119487
0.120954
0.119728
0.116277
0.112112
0.110876
0.140025
0.0258878
0.020761
0.0243552
0.0291076
0.0343034
0.0398362
0.0457359
0.052077
0.0589459
0.0664207
0.074551
0.0832838
0.0923693
0.101306
0.109417
0.116036
0.12069
0.123237
0.124068
0.124386
0.126614
0.135751
0.188035
0.0313534
0.023259
0.0261212
0.0304996
0.0354711
0.0408771
0.0467307
0.0531014
0.0600879
0.0678009
0.0763123
0.0855738
0.0952825
0.104829
0.113449
0.12051
0.125725
0.129285
0.132089
0.136147
0.145309
0.167771
0.251152
0.0368879
0.0259573
0.0281879
0.0322959
0.0371551
0.042563
0.0485185
0.0550872
0.0623796
0.0705477
0.0797129
0.0898211
0.10048
0.110902
0.120187
0.127725
0.133452
0.137941
0.142645
0.150434
0.167142
0.208122
0.352112
0.0426354
0.0288683
0.0305233
0.0344269
0.0392518
0.0447587
0.0509346
0.0578408
0.0656049
0.0744269
0.0845084
0.0957887
0.107727
0.119263
0.129291
0.137246
0.143337
0.14857
0.15494
0.166003
0.189188
0.249948
0.532207
0.0346317
0.098949
0.166852
0.213747
0.239939
0.251716
0.240654
0.198055
0.147676
0.104319
0.0867274
0.0750365
0.0588084
0.0528956
0.0585702
0.0656986
0.0673209
0.0530238
0.0170787
0.0460908
0.0671631
0.0911882
0.107912
0.117187
0.120101
0.115348
0.102767
0.088307
0.0683582
0.0535386
0.0438939
0.0373344
0.0342077
0.0340801
0.0343337
0.03426
0.0304829
0.0217925
0.0689783
0.0686832
0.0834335
0.093463
0.0983819
0.0985369
0.0936575
0.084972
0.0751089
0.0616154
0.0497412
0.0410882
0.0354137
0.032558
0.032071
0.0325258
0.0330727
0.0317916
0.0306909
0.0897581
0.0760032
0.085191
0.0914316
0.0936617
0.0919452
0.0864255
0.0786873
0.0701115
0.0597469
0.0499557
0.0423073
0.0372051
0.0345074
0.0339503
0.0346261
0.0353201
0.0351389
0.0391825
0.111391
0.0862657
0.0902258
0.093243
0.0932268
0.0899617
0.0838146
0.0764083
0.0684612
0.0598552
0.0516897
0.0451387
0.0407678
0.0383525
0.0376875
0.0381515
0.0385823
0.0389574
0.0480505
0.137698
0.0987554
0.0967594
0.0965975
0.0945566
0.0900044
0.0833738
0.0761639
0.0687452
0.0613786
0.0545709
0.0491248
0.0455683
0.0435079
0.0426382
0.0425047
0.0423991
0.0430976
0.0581699
0.176438
0.112792
0.103789
0.100488
0.096658
0.0910905
0.0841871
0.0772387
0.0704955
0.0642221
0.0585888
0.0541472
0.0513159
0.0495671
0.0483927
0.0474098
0.0466212
0.0476973
0.0711362
0.263062
0.126667
0.110404
0.104351
0.0990536
0.0927632
0.0858313
0.0793464
0.0735499
0.0683779
0.0637436
0.0600973
0.057768
0.0561966
0.0546101
0.0526385
0.0511077
0.0527535
0.0873202
0.0522101
0.0337692
0.0345882
0.0382565
0.043132
0.0489272
0.0556226
0.0632653
0.0720191
0.0821933
0.0941463
0.107835
0.122342
0.135947
0.14712
0.155431
0.161643
0.167484
0.175628
0.189687
0.213847
0.252093
0.304578
0.0672937
0.041903
0.0415888
0.0450619
0.0502412
0.0568011
0.064745
0.0740238
0.0848791
0.0979314
0.113976
0.133032
0.152971
0.170042
0.181866
0.188773
0.192834
0.19682
0.203648
0.214916
0.228083
0.234553
0.227217
0.0901631
0.053289
0.0509694
0.0541589
0.0598346
0.0676806
0.0777631
0.0895811
0.103511
0.120851
0.143345
0.171401
0.199626
0.219766
0.229151
0.23076
0.228915
0.227473
0.229593
0.235245
0.238006
0.23084
0.216034
0.147974
0.0710999
0.0637082
0.0664547
0.0728089
0.0827907
0.096539
0.111799
0.129728
0.15259
0.184037
0.225424
0.261566
0.278104
0.279156
0.273961
0.265106
0.255847
0.251365
0.254985
0.254128
0.240342
0.223403
0.203167
0.0858578
0.0754981
0.0780769
0.0851359
0.0970109
0.113572
0.131747
0.152221
0.177102
0.21072
0.252739
0.281572
0.291304
0.291539
0.29062
0.28776
0.281119
0.271863
0.266379
0.265275
0.259068
0.240496
0.185344
0.0990766
0.089128
0.0877465
0.0937623
0.105158
0.121885
0.142571
0.162532
0.183965
0.211628
0.240105
0.259894
0.271625
0.278328
0.281841
0.284023
0.284796
0.284677
0.285621
0.278164
0.268952
0.254373
0.192322
0.101598
0.0928707
0.0955782
0.103443
0.114534
0.130143
0.148291
0.164476
0.183418
0.20742
0.229152
0.246469
0.262039
0.273544
0.276206
0.275911
0.276543
0.28065
0.286856
0.279114
0.261197
0.244667
0.198544
0.0967046
0.0899096
0.0976053
0.110311
0.122812
0.135103
0.146915
0.160871
0.180184
0.203701
0.2235
0.23829
0.257642
0.273378
0.276441
0.272644
0.270304
0.271898
0.274481
0.270677
0.257332
0.238295
0.191108
0.091185
0.0858737
0.094749
0.108673
0.122288
0.133165
0.142624
0.155475
0.173319
0.194037
0.212971
0.227363
0.243939
0.258912
0.266804
0.268753
0.267211
0.265992
0.264107
0.259394
0.250399
0.234176
0.177653
0.08559
0.0809631
0.0891016
0.10162
0.114405
0.125219
0.135119
0.147866
0.163836
0.181141
0.198031
0.21284
0.226251
0.237097
0.244453
0.250557
0.257124
0.26145
0.258678
0.250303
0.24047
0.225913
0.162505
0.0801239
0.0756496
0.0823284
0.0927705
0.103969
0.114317
0.124515
0.137275
0.152487
0.168077
0.183177
0.197325
0.209338
0.217366
0.222409
0.226835
0.232638
0.239592
0.239671
0.230066
0.216767
0.19985
0.14933
0.075526
0.0707678
0.0758263
0.0842065
0.0936631
0.10308
0.112767
0.124337
0.138153
0.152882
0.16743
0.18099
0.191884
0.198189
0.201083
0.203095
0.205745
0.208717
0.208636
0.202245
0.191204
0.177865
0.140344
0.0723659
0.0668925
0.0703834
0.0769265
0.0847276
0.0929614
0.101655
0.111605
0.123251
0.136083
0.149274
0.161747
0.171754
0.177355
0.179244
0.180091
0.181155
0.182084
0.1809
0.176098
0.168451
0.159109
0.135647
0.0706223
0.0641607
0.0662149
0.0711875
0.0775147
0.0845173
0.0920549
0.100436
0.109943
0.120411
0.131314
0.141788
0.150479
0.155899
0.158122
0.159006
0.159685
0.159915
0.158474
0.154803
0.149409
0.142772
0.133365
0.0696686
0.0622989
0.0631424
0.0668076
0.0718551
0.0776848
0.0840766
0.0910812
0.0988075
0.107175
0.115847
0.124217
0.13139
0.136433
0.139182
0.140537
0.14127
0.141314
0.140073
0.137341
0.133407
0.128517
0.132059
0.068988
0.0608809
0.0607597
0.0633728
0.0673518
0.0721404
0.0774855
0.0833121
0.0896124
0.0963077
0.103171
0.109803
0.115642
0.120122
0.123034
0.124718
0.125582
0.125662
0.124736
0.122725
0.119773
0.116054
0.130606
0.0681587
0.0595288
0.0586761
0.0604666
0.0635795
0.0674865
0.071925
0.0767643
0.0819331
0.0873415
0.0928245
0.0981171
0.102869
0.106728
0.109506
0.111283
0.112239
0.112427
0.111779
0.110279
0.108009
0.105102
0.12819
0.0668879
0.0579685
0.0565911
0.0577553
0.0601828
0.0633669
0.0670474
0.0710731
0.0753437
0.079763
0.0842016
0.0884775
0.0923633
0.0956304
0.098127
0.0998349
0.100813
0.101093
0.100659
0.0995283
0.097756
0.0954474
0.124304
0.065013
0.0560408
0.0543162
0.0550179
0.0569143
0.0595195
0.0625812
0.0659443
0.0694996
0.0731512
0.0767921
0.0802904
0.0834909
0.0862384
0.0884159
0.0899747
0.0909179
0.0912541
0.090983
0.0901307
0.0887466
0.0869148
0.11876
0.0624856
0.0536844
0.0517637
0.0521387
0.0536335
0.0557835
0.0583476
0.0611753
0.0641588
0.0672076
0.070231
0.0731285
0.0757888
0.0781019
0.0799787
0.0813668
0.0822468
0.0826136
0.0824693
0.0818414
0.0807766
0.0793425
0.111675
0.0593304
0.050907
0.0489202
0.0490832
0.0502848
0.0520833
0.0542512
0.0566478
0.0591726
0.0617435
0.0642835
0.0667129
0.0689488
0.0709103
0.072529
0.0737577
0.0745708
0.0749575
0.0749197
0.0744822
0.0736882
0.0725915
0.103349
0.0556044
0.0477528
0.0458197
0.0458721
0.0468717
0.0484038
0.0502584
0.0523084
0.0544644
0.0566544
0.0588132
0.0608767
0.0627808
0.0644642
0.0658739
0.0669699
0.0677274
0.0681345
0.0681926
0.0679225
0.0673616
0.0665526
0.0941899
0.0514131
0.044282
0.0425247
0.0425599
0.0434338
0.0447679
0.0463762
0.0481487
0.050009
0.0518956
0.053754
0.055532
0.057179
0.0586472
0.0598949
0.0608894
0.0616087
0.0620419
0.06219
0.0620692
0.0617106
0.0611474
0.0847435
0.0468357
0.0405736
0.039113
0.0392149
0.0400251
0.0412168
0.042635
0.0441891
0.0458159
0.0474641
0.0490884
0.0506462
0.0520969
0.0534024
0.0545297
0.0554521
0.056151
0.0566169
0.05685
0.0568626
0.0566796
0.0563263
0.0754773
0.0420455
0.0367608
0.0356769
0.0359058
0.0367021
0.0378008
0.0390808
0.0404708
0.04192
0.0433865
0.044833
0.0462248
0.047529
0.0487151
0.0497566
0.0506317
0.0513249
0.0518279
0.0521403
0.0522706
0.0522388
0.0520633
0.0665591
0.0373747
0.0330318
0.03233
0.0327093
0.0335304
0.0345833
0.0357757
0.0370533
0.0383762
0.0397111
0.041028
0.0422987
0.0434969
0.0445981
0.0455809
0.0464275
0.0471252
0.0476665
0.0480502
0.0482821
0.0483781
0.0483511
0.0583252
0.0331029
0.0295817
0.0292083
0.0297322
0.0306052
0.0316532
0.0328034
0.0340142
0.0352552
0.0365008
0.0377276
0.0389133
0.040037
0.0410793
0.0420231
0.0428539
0.0435612
0.0441382
0.0445833
0.0449003
0.0451011
0.0451948
0.0513152
0.0294303
0.0265879
0.026471
0.0271196
0.0280556
0.0291248
0.030265
0.031443
0.0326358
0.0338241
0.0349904
0.0361176
0.0371896
0.0381912
0.0391087
0.0399306
0.0406481
0.0412552
0.04175
0.042135
0.0424184
0.0426065
0.0460301
0.02656
0.0242142
0.0242828
0.0250278
0.0260207
0.0271185
0.0282637
0.0294278
0.0305927
0.0317443
0.0328693
0.0339554
0.0349901
0.035962
0.0368603
0.0376756
0.0384007
0.0390302
0.0395619
0.0399985
0.0403436
0.0406017
0.0427266
0.0246391
0.0225937
0.0227776
0.0235848
0.0246165
0.0257353
0.0268853
0.0280404
0.0291853
0.0303094
0.0314031
0.0324573
0.0334629
0.0344109
0.0352929
0.0361013
0.0368298
0.0374738
0.0380311
0.0385033
0.0388909
0.0391975
0.0414277
0.0237471
0.0218122
0.0220421
0.0228744
0.0239198
0.0250423
0.0261863
0.0273264
0.0284494
0.029547
0.0306123
0.0316387
0.0326191
0.0335465
0.0344137
0.0352144
0.0359429
0.036595
0.0371685
0.0376625
0.0380766
0.0384132
0.0420471
0.0239066
0.0219115
0.022121
0.0229389
0.0239685
0.0250712
0.0261907
0.0273026
0.0283953
0.0294624
0.0304987
0.031499
0.0324577
0.0333682
0.034224
0.0350187
0.0357467
0.0364039
0.0369871
0.037493
0.0379211
0.0382733
0.044512
0.0251182
0.0229089
0.0230313
0.0237908
0.0247688
0.0258216
0.0268925
0.0279583
0.029009
0.0300395
0.031046
0.0320239
0.0329675
0.0338696
0.0347228
0.0355192
0.0362523
0.0369172
0.0375076
0.0380201
0.0384539
0.0388114
0.0488259
0.0273963
0.0248174
0.0247757
0.0254203
0.0263003
0.0272648
0.0282572
0.0292554
0.0302513
0.0312407
0.0322202
0.0331849
0.0341279
0.0350397
0.0359095
0.0367261
0.0374798
0.0381619
0.0387639
0.0392829
0.0397191
0.0400757
0.0550617
0.0307817
0.0276509
0.0273417
0.0277934
0.0285128
0.0293402
0.030218
0.0311254
0.0320547
0.0330025
0.033965
0.0349362
0.0359067
0.0368625
0.0377863
0.038659
0.0394641
0.0401837
0.0408099
0.0413414
0.0417809
0.0421345
0.0632868
0.0353184
0.0314064
0.0306871
0.0308391
0.0313165
0.0319472
0.03267
0.0334628
0.0343174
0.0352297
0.0361956
0.0372078
0.0382539
0.0393135
0.0403576
0.041351
0.0422596
0.0430545
0.043728
0.0442837
0.0447311
0.0450821
0.073428
0.0409931
0.036025
0.0347112
0.0344287
0.0345677
0.0349356
0.0354622
0.0361198
0.036897
0.0377883
0.0387899
0.0398958
0.0410926
0.0423535
0.0436312
0.0448591
0.0459582
0.0468869
0.0476404
0.0482356
0.0486964
0.0490457
0.0851066
0.0476513
0.041337
0.0392199
0.0383559
0.0380575
0.0381003
0.0383958
0.0389043
0.0396079
0.0404998
0.04158
0.0428498
0.0443043
0.0459174
0.0476184
0.0492749
0.0507102
0.0518556
0.0527265
0.0533732
0.053848
0.0541932
0.0975093
0.0549124
0.0470085
0.0438965
0.0423233
0.0415103
0.0411856
0.0412305
0.0415866
0.0422266
0.0431437
0.0443475
0.0458605
0.0477087
0.0498953
0.0523397
0.0547831
0.0567788
0.0582352
0.0592454
0.0599368
0.0604123
0.0607419
0.10937
0.0621132
0.052502
0.0482872
0.0459462
0.0445955
0.0439005
0.0437018
0.0439167
0.0445069
0.0454678
0.0468273
0.0486489
0.0510318
0.0540852
0.0578106
0.0617757
0.0646409
0.0664537
0.0675605
0.0682446
0.0686813
0.0689694
0.119108
0.0682831
0.0570687
0.0518167
0.0487784
0.046957
0.0459478
0.0455482
0.0456504
0.0462056
0.0472136
0.0487261
0.0508659
0.0538598
0.0580725
0.0639268
0.0712019
0.0751672
0.0771409
0.078148
0.0786976
0.079022
0.0792269
0.124951
0.0721065
0.05979
0.0538508
0.05037
0.0482601
0.0470632
0.0465456
0.0465827
0.0471189
0.048157
0.0497681
0.0521268
0.0555991
0.06094
0.0697598
0.0857334
0.0898161
0.0910755
0.0915502
0.0917683
0.0918865
0.0919587
0.429429
0.380923
0.413517
0.503217
0.21775
0.209661
0.204413
0.19742
0.202046
0.193412
0.185115
0.176651
0.208312
0.198995
0.190231
0.18205
0.220333
0.208788
0.199431
0.191859
0.230387
0.216352
0.205276
0.196678
0.225941
0.213741
0.202752
0.193058
0.22073
0.208898
0.197342
0.186775
0.21529
0.201939
0.189572
0.178512
0.205919
0.19222
0.179725
0.168935
0.184093
0.174419
0.16547
0.15711
0.167031
0.16006
0.153122
0.146338
0.151483
0.146394
0.14114
0.13581
0.137195
0.133395
0.129404
0.125268
0.124303
0.121381
0.118292
0.115068
0.112795
0.110493
0.108046
0.105488
0.102543
0.100711
0.0987548
0.0967112
0.0934117
0.0919508
0.0903959
0.088767
0.085295
0.0841336
0.0829005
0.0816047
0.0780672
0.0771504
0.0761761
0.0751482
0.0716042
0.0708902
0.0701279
0.069319
0.0658075
0.0652633
0.0646776
0.0640508
0.0606071
0.0602063
0.0597692
0.0592958
0.0559592
0.0556798
0.0553684
0.0550246
0.0518419
0.0516647
0.0514592
0.0512245
0.0482506
0.0481582
0.0480405
0.0478965
0.0451921
0.0451684
0.0451218
0.0450512
0.0426802
0.0427101
0.0427191
0.0427059
0.0407322
0.0408018
0.0408521
0.0408815
0.0393673
0.0394643
0.039543
0.039602
0.0386074
0.0387213
0.0388176
0.0388948
0.03848
0.0386022
0.0387073
0.0387936
0.0390217
0.039146
0.0392532
0.0393416
0.0402839
0.040406
0.0405107
0.0405965
0.0423374
0.0424549
0.0425546
0.042635
0.0452786
0.0453906
0.0454842
0.0455581
0.0492355
0.0493416
0.0494289
0.0494965
0.0543746
0.0544742
0.054555
0.0546166
0.0609097
0.0610004
0.0610734
0.0611287
0.0691124
0.069189
0.0692506
0.0692976
0.0793274
0.0793812
0.079425
0.079459
0.0919942
0.0920135
0.0920296
0.0920424
0.194656
0.136604
0.11862
0.109691
0.102727
0.0957954
0.0892526
0.0841094
0.0802669
0.0768739
0.0734611
0.0705977
0.0686267
0.0670394
0.0645032
0.0606408
0.057769
0.0599248
0.107004
0.167643
0.140439
0.125242
0.115323
0.107589
0.100902
0.0957811
0.093562
0.0930276
0.092065
0.0899634
0.0874505
0.0849218
0.0817683
0.0768174
0.0707429
0.0671569
0.0712601
0.134509
0.163769
0.145963
0.131882
0.121263
0.113159
0.107117
0.103666
0.104018
0.106399
0.107776
0.107068
0.104846
0.101276
0.0957848
0.0882456
0.0799569
0.0769321
0.0823827
0.140937
0.17081
0.154757
0.140413
0.128999
0.120522
0.114961
0.112825
0.115161
0.119937
0.123555
0.124093
0.121722
0.11666
0.109003
0.0993783
0.0885732
0.0841492
0.086706
0.151827
0.181997
0.166003
0.150939
0.138973
0.13022
0.124725
0.123126
0.126843
0.134125
0.139204
0.139267
0.135627
0.128542
0.120487
0.111855
0.0962987
0.0804043
0.0759606
0.111312
0.186156
0.171501
0.158456
0.147984
0.139398
0.132498
0.1281
0.127637
0.130197
0.131174
0.129206
0.127029
0.126125
0.132346
0.128086
0.101789
0.0764833
0.0690174
0.0835395
0.180348
0.16596
0.155048
0.146949
0.140336
0.134378
0.128768
0.124265
0.121095
0.118456
0.117449
0.117521
0.119419
0.124335
0.116336
0.0912733
0.0697758
0.0606363
0.0700463
0.172723
0.158176
0.148355
0.141776
0.13686
0.132391
0.127446
0.122205
0.116747
0.111456
0.109509
0.107777
0.103772
0.102015
0.0943299
0.0785581
0.064999
0.0566969
0.0701799
0.163696
0.149239
0.139972
0.134123
0.129878
0.125609
0.120124
0.113929
0.107348
0.100893
0.0966618
0.0932107
0.0880175
0.0841729
0.0792288
0.0706653
0.0616556
0.0543581
0.0720293
0.154517
0.139886
0.129601
0.122232
0.116454
0.111
0.105197
0.0993306
0.0933552
0.0878321
0.0836117
0.0799392
0.0759533
0.0727554
0.0695634
0.0639603
0.0569438
0.0525382
0.0712668
0.145024
0.131352
0.120626
0.112118
0.105064
0.0988265
0.0930213
0.087592
0.0825011
0.0780602
0.0745542
0.0714342
0.0681711
0.0650085
0.061714
0.0569923
0.0522216
0.0515679
0.0696019
0.136073
0.12364
0.113265
0.10466
0.0973727
0.0910344
0.0853522
0.080226
0.0757119
0.0719329
0.0689025
0.0660825
0.0628193
0.0591567
0.0553473
0.0515517
0.0491943
0.0516276
0.0696109
0.127267
0.116302
0.106824
0.0987776
0.0919107
0.0859433
0.0805804
0.0757327
0.0715044
0.0679312
0.0649442
0.0620789
0.0586869
0.0548071
0.0510777
0.0482375
0.0476635
0.0522913
0.0730542
0.118336
0.109033
0.100726
0.0935262
0.0873272
0.0819089
0.0769743
0.0724164
0.0683286
0.0647545
0.0616219
0.0586258
0.0552896
0.0516472
0.0483819
0.0463814
0.0469486
0.0531922
0.0793593
0.109529
0.101861
0.0947896
0.0884983
0.0829824
0.0780999
0.0736044
0.0693538
0.0654094
0.0618612
0.0586729
0.055628
0.0524514
0.0492365
0.0465741
0.0452651
0.0466124
0.0543354
0.0870377
0.101085
0.094919
0.0890104
0.0836091
0.0787536
0.0743664
0.070275
0.0663403
0.0625961
0.059148
0.0559903
0.0529877
0.0500245
0.0472581
0.0451661
0.0444408
0.0464063
0.0554002
0.0948404
0.0931872
0.0882515
0.0834322
0.0788673
0.0746442
0.0707351
0.0670235
0.0634059
0.0599077
0.0566207
0.0535592
0.0506677
0.0479437
0.0455755
0.0439627
0.043731
0.0462108
0.056077
0.101962
0.0859415
0.0819714
0.0780504
0.0742717
0.0706694
0.0672307
0.0638973
0.060602
0.0573798
0.0543034
0.0514004
0.0486764
0.0461974
0.0441662
0.0429432
0.0431268
0.0460623
0.056538
0.108179
0.0793421
0.0761402
0.0729438
0.0698271
0.0668059
0.0638504
0.060899
0.0579417
0.0550193
0.0521914
0.0494979
0.046984
0.044754
0.0430173
0.0421187
0.0426568
0.0460341
0.0572548
0.113579
0.0733424
0.0707646
0.0681611
0.0655939
0.0630709
0.0605591
0.0580098
0.055413
0.0528064
0.0502553
0.0478091
0.0455366
0.0435615
0.0420954
0.0414763
0.0423081
0.0460236
0.057613
0.116108
0.0678886
0.0658257
0.0637161
0.0616101
0.0595125
0.0573954
0.0552214
0.0529832
0.0507123
0.0484601
0.0462863
0.044275
0.0425597
0.0413512
0.0409806
0.0420447
0.0459497
0.0576872
0.116501
0.0629335
0.0613007
0.0596072
0.0578937
0.0561638
0.0543964
0.0525647
0.0506629
0.0487149
0.0467656
0.0448775
0.04314
0.0416881
0.040726
0.0405732
0.0418118
0.0458308
0.0576496
0.117045
0.0584423
0.0571717
0.0558313
0.0544539
0.0530434
0.0515848
0.0500598
0.0484645
0.0468179
0.0451602
0.0435528
0.0420848
0.0408872
0.0401547
0.0401934
0.0415712
0.0456734
0.0576168
0.118611
0.0543943
0.0534295
0.0523887
0.0512989
0.0501645
0.0489761
0.0477217
0.0463997
0.0450267
0.043639
0.0422949
0.04108
0.0401187
0.0395945
0.0398005
0.0412942
0.0454683
0.057568
0.120409
0.0507822
0.0500741
0.0492858
0.0484398
0.0475415
0.0465856
0.0455654
0.0444818
0.0433503
0.0422043
0.0410981
0.040112
0.0393624
0.0390218
0.0393717
0.0409614
0.0451938
0.0574214
0.121747
0.0476101
0.0471146
0.0465359
0.0458929
0.0451921
0.0444318
0.0436093
0.0427281
0.0418033
0.0408662
0.0399668
0.0391797
0.0386131
0.0384294
0.038899
0.0405633
0.0448295
0.0571211
0.122535
0.0448913
0.0445676
0.0441583
0.0436798
0.0431393
0.0425381
0.0418767
0.0411609
0.0404063
0.039642
0.0389146
0.0382931
0.037878
0.0378223
0.0383865
0.0401019
0.0443684
0.0566417
0.122839
0.0426448
0.0424552
0.0421778
0.0418273
0.0414112
0.0409331
0.0403964
0.0398088
0.0391863
0.0385567
0.0379636
0.0374713
0.0371735
0.0372156
0.0378483
0.0395906
0.0438217
0.0559825
0.122649
0.040894
0.0408039
0.0406238
0.0403668
0.0400409
0.0396513
0.0392035
0.0387066
0.0381773
0.0376427
0.037144
0.0367417
0.0365247
0.0366318
0.0373058
0.039052
0.0432185
0.0551754
0.121745
0.0396653
0.0396437
0.0395299
0.0393351
0.0390675
0.0387335
0.0383399
0.0378972
0.0374223
0.0369419
0.0364955
0.0361411
0.0359642
0.0360996
0.0367837
0.0385093
0.0425886
0.0542548
0.119654
0.0389896
0.0390099
0.0389349
0.0387747
0.0385369
0.0382285
0.0378571
0.0374336
0.0369752
0.0365078
0.0360699
0.0357178
0.0355353
0.0356546
0.0363081
0.0379777
0.0419371
0.0532272
0.116392
0.0389039
0.0389441
0.0388856
0.0387367
0.0385047
0.038196
0.0378183
0.0373824
0.0369047
0.0364103
0.0359363
0.0355378
0.0352975
0.0353466
0.0359152
0.0374754
0.0412648
0.0521609
0.113467
0.0394554
0.0394989
0.0394395
0.0392843
0.0390391
0.0387098
0.0383028
0.0378279
0.0372998
0.0367415
0.0361878
0.035692
0.035336
0.0352512
0.0356675
0.0370516
0.0406184
0.0511697
0.111688
0.0407056
0.0407409
0.0406692
0.0404959
0.0402255
0.039862
0.0394103
0.0388775
0.0382752
0.0376223
0.0369496
0.0363066
0.0357732
0.035482
0.0356666
0.0367978
0.0400859
0.0503126
0.110493
0.0427347
0.0427557
0.0426663
0.04247
0.0421697
0.0417675
0.0412653
0.0406664
0.0399773
0.0392103
0.0383886
0.0375539
0.0367808
0.036202
0.0360599
0.0368418
0.0397726
0.0496245
0.109406
0.0456469
0.0456526
0.0455458
0.0453288
0.0450027
0.0445671
0.0440205
0.0433615
0.0425891
0.041706
0.0407225
0.0396656
0.0385962
0.0376408
0.0370517
0.0373488
0.0397975
0.0491411
0.10785
0.049575
0.0495685
0.0494505
0.0492221
0.0488828
0.0484301
0.0478592
0.0471629
0.0463319
0.0453558
0.0442258
0.042944
0.0415417
0.0401206
0.0389319
0.0385434
0.0403166
0.0490016
0.106362
0.0546864
0.0546739
0.054555
0.0543303
0.0539986
0.0535556
0.0529939
0.0523015
0.0514609
0.050447
0.0492275
0.047767
0.0460433
0.0440931
0.0421212
0.0407473
0.0415646
0.0495131
0.106775
0.0611911
0.0611795
0.0610723
0.0608702
0.0605719
0.0601729
0.0596647
0.0590328
0.0582541
0.0572921
0.0560915
0.0545724
0.0526315
0.0501706
0.0472222
0.0443629
0.0437788
0.0509146
0.10994
0.0693514
0.069346
0.0692626
0.0691025
0.0688649
0.0685464
0.0681398
0.0676318
0.0669994
0.0662033
0.0651767
0.0638055
0.0618958
0.0591272
0.0550708
0.0497598
0.047077
0.0532235
0.11549
0.0794991
0.0795004
0.0794492
0.0793468
0.0791937
0.0789882
0.0787262
0.0783992
0.0779913
0.0774731
0.0767893
0.0758309
0.0743637
0.0718327
0.0668804
0.0569183
0.0511534
0.056156
0.122915
0.0920576
0.0920588
0.0920412
0.0920058
0.0919532
0.0918836
0.091796
0.0916882
0.0915555
0.0913884
0.0911676
0.0908484
0.0903027
0.0890591
0.0849312
0.0642245
0.0546465
0.0586848
0.129648
)
;

boundaryField
{
    leftWall
    {
        type            epsilonWallFunction;
        value           nonuniform List<scalar> 
50
(
0.00502607
0.00928412
0.0149604
0.0204325
0.0258878
0.0313534
0.0368879
0.0426354
0.0522101
0.0672937
0.0901631
0.147974
0.203167
0.185344
0.192322
0.198544
0.191108
0.177653
0.162505
0.14933
0.140344
0.135647
0.133365
0.132059
0.130606
0.12819
0.124304
0.11876
0.111675
0.103349
0.0941899
0.0847435
0.0754773
0.0665591
0.0583252
0.0513152
0.0460301
0.0427266
0.0414277
0.0420471
0.044512
0.0488259
0.0550617
0.0632868
0.073428
0.0851066
0.0975093
0.10937
0.119108
0.124951
)
;
        Cmu             0.09;
        kappa           0.41;
        E               9.8;
        value           nonuniform List<scalar> 
50
(
0.00502607
0.00928412
0.0149604
0.0204325
0.0258878
0.0313534
0.0368879
0.0426354
0.0522101
0.0672937
0.0901631
0.147974
0.203167
0.185344
0.192322
0.198544
0.191108
0.177653
0.162505
0.14933
0.140344
0.135647
0.133365
0.132059
0.130606
0.12819
0.124304
0.11876
0.111675
0.103349
0.0941899
0.0847435
0.0754773
0.0665591
0.0583252
0.0513152
0.0460301
0.0427266
0.0414277
0.0420471
0.044512
0.0488259
0.0550617
0.0632868
0.073428
0.0851066
0.0975093
0.10937
0.119108
0.124951
)
;
    }
    rightWall
    {
        type            epsilonWallFunction;
        value           nonuniform List<scalar> 
50
(
0.0170787
0.0217925
0.0306909
0.0391825
0.0480505
0.0581699
0.0711362
0.0873202
0.107004
0.134509
0.140937
0.151827
0.111312
0.0835395
0.0700463
0.0701799
0.0720293
0.0712668
0.0696019
0.0696109
0.0730542
0.0793593
0.0870377
0.0948404
0.101962
0.108179
0.113579
0.116108
0.116501
0.117045
0.118611
0.120409
0.121747
0.122535
0.122839
0.122649
0.121745
0.119654
0.116392
0.113467
0.111688
0.110493
0.109406
0.10785
0.106362
0.106775
0.10994
0.11549
0.122915
0.129648
)
;
        Cmu             0.09;
        kappa           0.41;
        E               9.8;
        value           nonuniform List<scalar> 
50
(
0.0170787
0.0217925
0.0306909
0.0391825
0.0480505
0.0581699
0.0711362
0.0873202
0.107004
0.134509
0.140937
0.151827
0.111312
0.0835395
0.0700463
0.0701799
0.0720293
0.0712668
0.0696019
0.0696109
0.0730542
0.0793593
0.0870377
0.0948404
0.101962
0.108179
0.113579
0.116108
0.116501
0.117045
0.118611
0.120409
0.121747
0.122535
0.122839
0.122649
0.121745
0.119654
0.116392
0.113467
0.111688
0.110493
0.109406
0.10785
0.106362
0.106775
0.10994
0.11549
0.122915
0.129648
)
;
    }
    lowerWall
    {
        type            epsilonWallFunction;
        value           nonuniform List<scalar> 
62
(
0.00502607
0.0238182
0.0433288
0.0622338
0.080727
0.099475
0.118777
0.138733
0.159435
0.180947
0.203262
0.226184
0.249124
0.270871
0.289509
0.30258
0.307152
0.299153
0.274953
0.239715
0.191366
0.123149
0.0353603
0.0353603
0.0591973
0.0980968
0.140025
0.188035
0.251152
0.352112
0.532207
0.429429
0.380923
0.413517
0.503217
0.0346317
0.0460908
0.0689783
0.0897581
0.111391
0.137698
0.176438
0.263062
0.0346317
0.098949
0.166852
0.213747
0.239939
0.251716
0.240654
0.198055
0.147676
0.104319
0.0867274
0.0750365
0.0588084
0.0528956
0.0585702
0.0656986
0.0673209
0.0530238
0.0170787
)
;
        Cmu             0.09;
        kappa           0.41;
        E               9.8;
        value           nonuniform List<scalar> 
62
(
0.00502607
0.0238182
0.0433288
0.0622338
0.080727
0.099475
0.118777
0.138733
0.159435
0.180947
0.203262
0.226184
0.249124
0.270871
0.289509
0.30258
0.307152
0.299153
0.274953
0.239715
0.191366
0.123149
0.0353603
0.0353603
0.0591973
0.0980968
0.140025
0.188035
0.251152
0.352112
0.532207
0.429429
0.380923
0.413517
0.503217
0.0346317
0.0460908
0.0689783
0.0897581
0.111391
0.137698
0.176438
0.263062
0.0346317
0.098949
0.166852
0.213747
0.239939
0.251716
0.240654
0.198055
0.147676
0.104319
0.0867274
0.0750365
0.0588084
0.0528956
0.0585702
0.0656986
0.0673209
0.0530238
0.0170787
)
;
    }
    atmosphere
    {
        type            inletOutlet;
        inletValue      uniform 0.1;
        value           nonuniform List<scalar> 
46
(
0.124951
0.0721065
0.05979
0.0538508
0.05037
0.0482601
0.0470632
0.0465456
0.0465827
0.0471189
0.048157
0.0497681
0.0521268
0.0555991
0.06094
0.0697598
0.1
0.1
0.1
0.1
0.1
0.1
0.1
0.1
0.1
0.1
0.1
0.1
0.1
0.1
0.1
0.1
0.1
0.1
0.1
0.1
0.1
0.1
0.1
0.1
0.1
0.1
0.0642245
0.0546465
0.0586848
0.129648
)
;
    }
    defaultFaces
    {
        type            empty;
    }
}


// ************************************************************************* //
