/*--------------------------------*- C++ -*----------------------------------*\
| =========                 |                                                 |
| \\      /  F ield         | OpenFOAM: The Open Source CFD Toolbox           |
|  \\    /   O peration     | Version:  2.3.0                                 |
|   \\  /    A nd           | Web:      www.OpenFOAM.org                      |
|    \\/     M anipulation  |                                                 |
\*---------------------------------------------------------------------------*/
FoamFile
{
    version     2.0;
    format      ascii;
    class       volScalarField;
    location    "2.4";
    object      nut;
}
// * * * * * * * * * * * * * * * * * * * * * * * * * * * * * * * * * * * * * //

dimensions      [0 2 -1 0 0 0 0];

internalField   nonuniform List<scalar> 
2268
(
3.30625e-05
3.73117e-05
4.56685e-05
5.15435e-05
5.62141e-05
6.02755e-05
6.3944e-05
6.73301e-05
7.05114e-05
7.35408e-05
7.64461e-05
7.9216e-05
8.1783e-05
8.40196e-05
8.57609e-05
8.68318e-05
8.70211e-05
8.59811e-05
8.3405e-05
7.96197e-05
7.43161e-05
6.4331e-05
4.23016e-05
7.371e-05
0.000306792
0.000420548
0.0004958
0.000554001
0.000602063
0.000643279
0.000680004
0.000713395
0.000744359
0.000773486
0.000800764
0.00082533
0.000845586
0.000859728
0.000866279
0.000863475
0.00084572
0.000805801
0.000759396
0.000688601
0.000514155
0.000136077
8.66938e-05
0.000523869
0.000776759
0.000947806
0.00107967
0.00118823
0.00128114
0.00136283
0.00143589
0.00150233
0.00156346
0.00161924
0.00166787
0.00170597
0.00172972
0.00173565
0.00171963
0.00167317
0.0015858
0.00145963
0.0012507
0.000843658
0.000160467
9.64572e-05
0.000680024
0.00106105
0.001325
0.00152925
0.00169712
0.00184032
0.00196522
0.0020758
0.0021751
0.00226503
0.0023455
0.0024138
0.00246509
0.0024938
0.00249457
0.00246093
0.00238191
0.00224223
0.00202477
0.00166965
0.00106629
0.000180131
0.000104622
0.000797974
0.00129361
0.00164348
0.00191495
0.00213765
0.00232668
0.00249039
0.0026342
0.00276208
0.00287645
0.00297709
0.00306052
0.0031208
0.00315108
0.00314431
0.00309174
0.00297935
0.00278548
0.00247692
0.00198476
0.00121958
0.000198379
0.000111675
0.000892721
0.0014898
0.00191818
0.00225108
0.00252341
0.00275328
0.00295099
0.00312338
0.00327542
0.0034099
0.00352643
0.00362098
0.0036869
0.00371648
0.00370123
0.00363005
0.00348533
0.00323847
0.00284322
0.00222531
0.00131642
0.000218594
0.00011802
0.000973032
0.00166027
0.00216016
0.00254889
0.00286572
0.00313155
0.00335862
0.0035552
0.00372722
0.00387781
0.00400642
0.00410872
0.0041778
0.00420543
0.00418179
0.00409341
0.00391895
0.00362343
0.00315076
0.0024209
0.00137554
0.000244734
0.000124039
0.0010446
0.00181282
0.00237789
0.00281716
0.00317363
0.00347084
0.00372297
0.00393972
0.0041279
0.00429103
0.00442844
0.00453585
0.00460649
0.0046318
0.00460063
0.00449724
0.00429702
0.00396052
0.00342722
0.00261517
0.00145698
0.000278451
4.07359e-05
5.90311e-05
7.06706e-05
7.67119e-05
8.00644e-05
8.13003e-05
7.96714e-05
7.42709e-05
6.73362e-05
6.0334e-05
5.69258e-05
5.44649e-05
5.00954e-05
4.90571e-05
5.11813e-05
5.30169e-05
5.31998e-05
4.83922e-05
5.12715e-05
0.000141959
0.000438589
0.000606721
0.000687637
0.000730296
0.00073825
0.000709437
0.000647659
0.000526748
0.000479188
0.000497194
0.00049615
0.000423721
0.000380028
0.00040701
0.000443528
0.000417882
0.000313535
0.000111469
0.000163134
0.000775072
0.00110174
0.00127611
0.00136942
0.00139383
0.00134533
0.0012308
0.00104644
0.000955977
0.000971846
0.00096779
0.000874809
0.000810229
0.000826273
0.000833676
0.000737212
0.000492202
0.000125482
0.000178955
0.00103229
0.00149063
0.00174377
0.00188261
0.00192733
0.00187517
0.00173568
0.00153347
0.00142033
0.00141868
0.00140676
0.0013148
0.00123715
0.00121601
0.00117185
0.00100097
0.000639041
0.00013684
0.000193364
0.00124166
0.00180987
0.00212656
0.0023037
0.00236966
0.0023247
0.00218209
0.00198772
0.00186849
0.0018487
0.00182543
0.00173568
0.00164447
0.00158106
0.00148249
0.00124618
0.000788226
0.00014744
0.000208853
0.00142729
0.00208742
0.00245398
0.00266226
0.00274926
0.00271876
0.00258729
0.00241419
0.00230087
0.00226668
0.0022294
0.00213725
0.00202986
0.00192549
0.00177428
0.00148114
0.000943616
0.000158404
0.000228781
0.00160965
0.00234438
0.00274694
0.00297926
0.00308626
0.00307477
0.00296306
0.00281808
0.00271726
0.00267216
0.00261967
0.00251951
0.00239336
0.0022497
0.00204796
0.00170206
0.00109391
0.000171123
0.000264942
0.00181742
0.00259873
0.00302041
0.00326932
0.0033945
0.00340426
0.00331703
0.00320286
0.00311662
0.00306294
0.00299496
0.0028821
0.00273472
0.00255479
0.00230619
0.00190902
0.00122635
0.000183654
0.000132887
0.00114911
0.00203209
0.00269044
0.00320162
0.00361313
0.00395281
0.0042379
0.00448036
0.00468835
0.00486605
0.00501296
0.00512545
0.00519739
0.0052196
0.00517871
0.00505604
0.0048236
0.00443984
0.00385152
0.00301018
0.00194182
0.000851671
0.000145128
0.00128904
0.00230786
0.00307189
0.00366021
0.00412713
0.00450675
0.0048206
0.00508379
0.00530645
0.00549429
0.00564845
0.00576572
0.00583974
0.00585928
0.00580937
0.0056719
0.00542228
0.00503142
0.00448183
0.00379301
0.00303713
0.00238327
0.000161139
0.00144236
0.0025933
0.00344684
0.00409247
0.00459727
0.00500228
0.00533217
0.00560519
0.00583431
0.0060297
0.00619713
0.00632657
0.006405
0.00641864
0.00635653
0.00620843
0.0059585
0.00559195
0.00511621
0.00457854
0.00406808
0.00368729
0.000192279
0.00161054
0.00290989
0.0038422
0.00452308
0.00504867
0.00546825
0.00580229
0.00607495
0.00630367
0.00650931
0.00670573
0.00684758
0.00691768
0.00691697
0.00684353
0.00669082
0.0064515
0.00612545
0.00573433
0.00531655
0.00495839
0.00471015
0.000215219
0.00183323
0.0032738
0.00424634
0.00492843
0.00544488
0.00585905
0.0061863
0.0064465
0.0066594
0.0068592
0.00706311
0.00720027
0.00727268
0.00728317
0.00722907
0.00710499
0.00690179
0.00662084
0.00629035
0.00596881
0.00571359
0.00551899
0.000210193
0.00203048
0.00355805
0.00455431
0.00524079
0.00574159
0.0061406
0.00646867
0.00671535
0.00690891
0.0070903
0.00725049
0.0073792
0.00747951
0.00752577
0.0075025
0.00741714
0.00726749
0.00705871
0.00681345
0.00653989
0.00632756
0.0061735
0.000214569
0.00209388
0.00369011
0.00475888
0.00547975
0.00598476
0.00637266
0.0066791
0.00690308
0.00709019
0.00726837
0.00741375
0.00754523
0.0076636
0.00773306
0.00772946
0.00766887
0.00756021
0.00741616
0.00724633
0.00702641
0.00682247
0.00668963
0.000218615
0.00207055
0.0037193
0.00484897
0.00562573
0.00616089
0.00654032
0.00681213
0.00702882
0.00722899
0.00741921
0.00756788
0.0076896
0.00781628
0.00790058
0.00791773
0.00788089
0.00781172
0.00772116
0.00760248
0.00744161
0.00727006
0.00713714
0.00021659
0.00202771
0.0036877
0.00483819
0.00564564
0.00621321
0.00660616
0.00688488
0.00711601
0.00732622
0.00751591
0.00767128
0.00779215
0.00790608
0.00798825
0.00803182
0.00803597
0.00800824
0.00796147
0.00788557
0.00777638
0.00764549
0.00751794
0.000211589
0.00196423
0.00360183
0.00475129
0.00556838
0.0061562
0.00657816
0.00689188
0.00715248
0.00737697
0.0075675
0.00772606
0.00785401
0.00795512
0.00802425
0.00807145
0.0081046
0.00812302
0.00811894
0.00808082
0.00800695
0.00791264
0.00780096
0.000204579
0.00188175
0.00347535
0.00461514
0.00543742
0.00604144
0.00649139
0.00684002
0.00713136
0.00737764
0.0075803
0.0077466
0.00788174
0.00798237
0.00804567
0.00808967
0.00812599
0.00815492
0.00817291
0.00815785
0.00810846
0.00803541
0.0079436
0.000196884
0.00178932
0.00332887
0.00445688
0.00528563
0.00590586
0.00637978
0.00675444
0.00706479
0.00732662
0.00754514
0.00772556
0.00787058
0.00797646
0.0080421
0.00808667
0.00812305
0.00815032
0.00816466
0.00815848
0.00813273
0.00808951
0.00803594
0.000190137
0.00169426
0.00318113
0.00429774
0.00513446
0.00577105
0.00626502
0.00665842
0.0069807
0.00724937
0.00747462
0.00766262
0.00781499
0.0079288
0.00800406
0.00805698
0.00809972
0.00813054
0.00814635
0.00814565
0.00813632
0.0081203
0.00809789
0.000185529
0.0016093
0.00304482
0.00415083
0.00499545
0.00564716
0.00615765
0.00656496
0.00689595
0.00716861
0.00739511
0.00758326
0.00773678
0.00785625
0.00794431
0.00801116
0.0080646
0.00810336
0.00812564
0.0081344
0.00813853
0.00814025
0.00813776
0.000182541
0.00154685
0.00293435
0.00402556
0.00487339
0.00553616
0.00605957
0.00647807
0.00681673
0.00709343
0.00732107
0.00750881
0.00766261
0.00778633
0.00788441
0.00796311
0.00802625
0.00807326
0.008104
0.00812356
0.00813916
0.00815299
0.00816308
0.000180609
0.00150225
0.00284816
0.00392217
0.0047685
0.00543779
0.00597052
0.00639791
0.00674354
0.00702491
0.00725525
0.00744454
0.00760024
0.00772806
0.00783302
0.00791951
0.00798964
0.00804363
0.00808296
0.00811251
0.00813746
0.00815986
0.0081783
0.000179167
0.0014686
0.00277938
0.00383548
0.00467675
0.0053486
0.00588741
0.00632172
0.00667363
0.00696019
0.00719464
0.00738735
0.00754647
0.00767847
0.0077885
0.00788027
0.0079557
0.00801585
0.0080629
0.0081009
0.00813343
0.00816219
0.00818645
0.000177728
0.00143926
0.00271941
0.00375777
0.00459182
0.00526342
0.00580591
0.00624559
0.00660326
0.00689534
0.00713487
0.00733228
0.00749591
0.00763244
0.00774701
0.00784327
0.00792349
0.00798939
0.00804332
0.00808848
0.0081274
0.00816136
0.00819011
0.00017592
0.00140887
0.00266038
0.00368131
0.00450713
0.00517694
0.00572167
0.00616583
0.00652902
0.00682696
0.00707234
0.00727543
0.00744452
0.00758623
0.00770573
0.00780679
0.00789206
0.0079637
0.00802404
0.00807563
0.0081203
0.00815903
0.00819183
0.000173487
0.00137365
0.00259641
0.00360012
0.00441753
0.00508501
0.00563143
0.0060798
0.00644863
0.00675296
0.00700503
0.0072148
0.00739038
0.00753829
0.00766366
0.0077704
0.00786145
0.00793921
0.00800592
0.0080637
0.00811397
0.00815742
0.00819426
0.0001703
0.00133242
0.00252481
0.00351131
0.00432047
0.00498565
0.00553377
0.00598651
0.00636147
0.00667297
0.00693274
0.00715037
0.0073337
0.00748909
0.0076216
0.00773522
0.00783304
0.00791757
0.00799097
0.00805507
0.00811105
0.00815939
0.00820037
0.000166349
0.00128674
0.00244692
0.00341588
0.00421676
0.00487958
0.0054295
0.005887
0.00626878
0.00658844
0.00685713
0.00708399
0.00727653
0.00744088
0.00758198
0.00770381
0.00780952
0.00790164
0.00798224
0.00805296
0.00811484
0.00816828
0.00821349
0.000161686
0.00123846
0.00236807
0.00331881
0.00411041
0.00477018
0.00532169
0.0057843
0.00617371
0.00650268
0.00678166
0.00701925
0.00722254
0.00739738
0.00754854
0.00767991
0.0077946
0.00789512
0.00798345
0.00806113
0.00812909
0.00818769
0.00823712
0.000156481
0.00119492
0.00229511
0.00322666
0.00400699
0.00466237
0.0052151
0.0056832
0.00608114
0.00642065
0.00671134
0.00696114
0.00717668
0.00736344
0.00752597
0.007668
0.00779258
0.00790213
0.00799859
0.00808338
0.00815742
0.00822105
0.00827447
0.000151002
0.00116025
0.00223091
0.00314292
0.00391094
0.00456135
0.00511546
0.00558978
0.00599734
0.00634863
0.00665232
0.00691563
0.00714463
0.0073444
0.00751923
0.00767268
0.00780767
0.00792655
0.00803119
0.00812297
0.00820281
0.00827105
0.00832794
0.000145312
0.00112658
0.00217344
0.00306783
0.00382523
0.00447223
0.00502916
0.00551103
0.00592938
0.00629354
0.00661119
0.00688881
0.00713192
0.00734522
0.0075327
0.00769773
0.0078431
0.00797109
0.00808353
0.00818177
0.00826678
0.0083389
0.0083985
0.000139518
0.00109247
0.00212153
0.0030029
0.00375406
0.00440109
0.00496321
0.00545417
0.0058843
0.00626186
0.00659371
0.00688567
0.00714275
0.00736927
0.00756896
0.00774499
0.00790006
0.00803637
0.00815572
0.00825948
0.00834867
0.00842367
0.00848501
0.000133957
0.00106548
0.00208025
0.00295431
0.00370425
0.00435491
0.00492439
0.00542543
0.00586751
0.0062581
0.0066034
0.0069087
0.0071786
0.0074171
0.00762769
0.0078134
0.00797682
0.00812009
0.00824502
0.00835301
0.0084451
0.00852183
0.00858385
0.00012918
0.00104976
0.00205744
0.00292986
0.00368263
0.00433931
0.00491709
0.00542805
0.00588109
0.00628318
0.00664007
0.00695666
0.00723726
0.00748561
0.00770503
0.00789842
0.00806829
0.00821676
0.00834562
0.00845636
0.00854995
0.00862721
0.00868893
0.000125739
0.00104722
0.00205712
0.00293337
0.0036918
0.00435548
0.00494118
0.00546067
0.00592258
0.00633362
0.0066993
0.0070243
0.00731271
0.00756814
0.00779378
0.00799242
0.00816651
0.00831818
0.00844921
0.00856111
0.00865488
0.00873163
0.00879226
0.000124009
0.00105716
0.00207817
0.00296296
0.00372884
0.00439943
0.00499169
0.00551749
0.00598548
0.00640232
0.00677345
0.00710349
0.00739644
0.00765584
0.00788481
0.00808608
0.00826209
0.0084149
0.00854633
0.00865786
0.0087507
0.0088261
0.00888509
0.000124121
0.00107791
0.00211653
0.00301299
0.00378706
0.00446376
0.00506078
0.00559038
0.00606144
0.00648077
0.0068539
0.0071855
0.00747962
0.00773982
0.0079692
0.00817052
0.00834614
0.00849814
0.00862831
0.00873813
0.00882908
0.00890249
0.00895947
0.000126008
0.00110793
0.00216772
0.00307704
0.00385911
0.00454078
0.00514073
0.00567173
0.00614303
0.0065617
0.00693353
0.00726336
0.00755542
0.00781336
0.00804037
0.00823922
0.0084123
0.00856163
0.00868897
0.00879597
0.0088842
0.00895506
0.00900974
0.000129483
0.00114547
0.00222747
0.00314941
0.00393881
0.00462443
0.0052258
0.00575623
0.00622536
0.00664065
0.00700822
0.00733327
0.00762029
0.00787317
0.00809524
0.00828934
0.00845787
0.00860283
0.008726
0.00882916
0.00891389
0.00898165
0.00903369
0.000134288
0.00118777
0.00229113
0.00322492
0.00402124
0.00471034
0.00531233
0.00584089
0.00630607
0.0067158
0.0070767
0.00739445
0.00767394
0.00791938
0.00813433
0.00832174
0.00848403
0.00862316
0.00874109
0.00883952
0.00892001
0.00898405
0.00903299
0.000140102
0.00123095
0.00235329
0.00329831
0.0041019
0.00479495
0.00539763
0.00592385
0.00638407
0.00678681
0.00713935
0.00744799
0.00771816
0.0079545
0.00816083
0.00834023
0.00849515
0.00862756
0.00873948
0.00883245
0.008908
0.00896766
0.00901292
0.000146525
0.00127071
0.00240832
0.00336427
0.00417631
0.00487462
0.00547892
0.00600313
0.0064582
0.00685339
0.00719677
0.00749543
0.00775549
0.00798209
0.00817936
0.00835043
0.00849766
0.0086233
0.00872896
0.00881602
0.008886
0.00894061
0.00898153
0.000153086
0.00130328
0.00245151
0.00341821
0.00424023
0.0049456
0.00555294
0.00607609
0.00652655
0.00691445
0.00724883
0.00753771
0.00778804
0.00800559
0.00819482
0.00835879
0.00849957
0.00861931
0.00871906
0.00879996
0.00886377
0.00891255
0.00894841
0.00015927
0.00132603
0.00247998
0.00345711
0.00429044
0.00500446
0.00561625
0.00613951
0.00658638
0.00696795
0.00729434
0.00757465
0.00781683
0.00802747
0.0082115
0.00837181
0.00850968
0.00862604
0.00872069
0.00879498
0.00885158
0.00889348
0.0089234
0.000164559
0.00133759
0.00249332
0.00348032
0.00432538
0.00504874
0.00566578
0.00619012
0.00663457
0.00701123
0.00733131
0.00760503
0.0078415
0.00804852
0.00823208
0.00839566
0.00853912
0.00865678
0.00874644
0.00881215
0.00885931
0.00889258
0.00891545
0.000168486
0.0013386
0.00249434
0.00349016
0.00434573
0.00507743
0.00569936
0.00622515
0.00666826
0.00704163
0.00735743
0.00762689
0.0078603
0.008067
0.00825558
0.00843448
0.00860794
0.0087318
0.00881108
0.00886191
0.00889517
0.00891718
0.00893164
0.000170622
0.00133455
0.00249033
0.00349199
0.00435417
0.00509104
0.00571602
0.00624286
0.00668541
0.00705717
0.00737084
0.00763828
0.00787057
0.00807842
0.00827406
0.00848124
0.00877524
0.00888474
0.00892916
0.00895126
0.00896394
0.00897177
0.00897671
0.000269897
0.000264797
0.000271138
0.000288725
0.00204456
0.00196545
0.0019561
0.00202967
0.00352203
0.00347072
0.00346969
0.00352019
0.00460274
0.00456118
0.00454756
0.00456141
0.00542795
0.00539183
0.00537663
0.00537901
0.00609321
0.0060609
0.00604462
0.00604003
0.00662881
0.00659882
0.00657616
0.00655881
0.00707669
0.00704243
0.00701092
0.00698257
0.00744128
0.00739635
0.00735633
0.00732014
0.00771051
0.00765995
0.00761768
0.00758163
0.00787774
0.00784238
0.00781094
0.00778115
0.00799736
0.00797459
0.00795181
0.00792873
0.00807764
0.00806459
0.00805028
0.00803468
0.00813033
0.00812486
0.00811767
0.00810878
0.00816441
0.00816462
0.00816299
0.00815958
0.00818602
0.00819056
0.0081933
0.00819432
0.00819884
0.00820661
0.00821272
0.00821719
0.00820603
0.00821627
0.00822499
0.0082321
0.00821073
0.00822295
0.00823368
0.00824278
0.00821593
0.00822983
0.0082422
0.00825285
0.00822472
0.00824017
0.00825395
0.00826587
0.00824048
0.00825737
0.0082724
0.00828542
0.0082666
0.0082848
0.00830094
0.00831486
0.00830618
0.00832551
0.00834253
0.0083571
0.00836147
0.00838161
0.0083992
0.00841412
0.00843326
0.00845383
0.0084716
0.00848647
0.00852031
0.00854087
0.0085584
0.00857281
0.00861901
0.00863914
0.00865603
0.00866962
0.00872335
0.00874271
0.00875868
0.00877121
0.00882552
0.00884392
0.00885883
0.0088702
0.00891698
0.00893437
0.00894823
0.00895852
0.00898993
0.00900635
0.00901927
0.00902866
0.00903875
0.00905427
0.00906637
0.00907506
0.00906116
0.00907578
0.00908714
0.00909524
0.00905869
0.00907233
0.0090829
0.00909043
0.00903653
0.009049
0.00905864
0.00906549
0.00900263
0.00901371
0.00902222
0.00902822
0.00896657
0.008976
0.00898318
0.00898818
0.00893819
0.00894575
0.00895143
0.0089553
0.0089264
0.00893191
0.00893598
0.00893867
0.00893835
0.00894167
0.00894407
0.00894563
0.00897895
0.00898005
0.00898083
0.00898133
0.00106999
0.00232145
0.00301537
0.00342603
0.00368494
0.00383362
0.00388256
0.00384602
0.00377941
0.00371364
0.00364776
0.00355512
0.00341677
0.00323495
0.00300149
0.00267712
0.00219711
0.00140014
0.000196622
0.00245332
0.00314656
0.00363293
0.00397238
0.00421626
0.00438178
0.00447217
0.00449647
0.00447764
0.0044319
0.00435476
0.00422983
0.00405099
0.0038146
0.00350629
0.00309575
0.00251993
0.00158689
0.000211237
0.00366459
0.00398219
0.00427701
0.00452764
0.00473627
0.00490049
0.00501468
0.00508207
0.00509972
0.00506074
0.00496118
0.0047992
0.00457681
0.00428234
0.00390156
0.00340839
0.00274962
0.00170268
0.000210839
0.00460978
0.00475181
0.00491639
0.00508479
0.00524678
0.00539192
0.0055091
0.0055932
0.00562459
0.00558417
0.0054635
0.00526706
0.00500043
0.00464498
0.00418661
0.00360008
0.00282937
0.00168691
0.000219799
0.00539402
0.0054475
0.00552622
0.00562633
0.00573859
0.00585202
0.00595586
0.00603927
0.00607364
0.00602128
0.00586958
0.00563499
0.00531893
0.00490307
0.00437066
0.00367238
0.00274717
0.00152722
0.000199286
0.00603453
0.00604059
0.00606926
0.00612151
0.00618789
0.006259
0.00632747
0.00637637
0.00637325
0.00628213
0.00609736
0.00583685
0.00549381
0.00506603
0.00446718
0.00363545
0.00259285
0.00138375
0.000182611
0.00653015
0.00650743
0.00651176
0.00653727
0.00657212
0.00660575
0.00662871
0.00662158
0.00655852
0.00641873
0.00620104
0.00589678
0.00548633
0.00498084
0.00432878
0.00348496
0.00247521
0.00133456
0.000171885
0.00693628
0.00689101
0.00687649
0.00688018
0.00688802
0.0068883
0.00686987
0.00681381
0.00669135
0.00648817
0.00620795
0.00582854
0.00532868
0.00475422
0.00410178
0.00332729
0.00241472
0.00134948
0.0001698
0.00726204
0.00720256
0.00717056
0.00715141
0.00712933
0.00709036
0.00702214
0.00691161
0.00673023
0.00646158
0.00610903
0.00567232
0.00514114
0.00455421
0.00392785
0.00321317
0.00236233
0.00132579
0.000169489
0.00752327
0.00745369
0.00740102
0.00735294
0.00729515
0.00721443
0.00710017
0.00694038
0.00671197
0.00640065
0.00600845
0.00554189
0.00500647
0.0044275
0.00381437
0.00311222
0.00225964
0.00120671
0.000166378
0.00772913
0.00765837
0.00759415
0.00752612
0.00744183
0.00732982
0.00717965
0.00698017
0.00671629
0.00637816
0.00596729
0.00549022
0.00495381
0.00437168
0.00374149
0.00300982
0.0021172
0.00107246
0.000163121
0.0078874
0.0078234
0.00775739
0.00768116
0.00758326
0.00745233
0.00727769
0.00705062
0.00676271
0.00640849
0.00599003
0.00550997
0.00496974
0.00437327
0.00370873
0.00292916
0.00199638
0.000979032
0.000163044
0.00800597
0.0079538
0.00789279
0.00781598
0.00771312
0.00757295
0.00738506
0.00714275
0.0068416
0.00647918
0.00605706
0.00557503
0.0050306
0.00442048
0.0037257
0.00291068
0.00196066
0.000958179
0.000166744
0.00809208
0.00805357
0.00800084
0.00792752
0.00782454
0.00768147
0.00748878
0.00724087
0.00693521
0.00657068
0.00614764
0.00566537
0.0051204
0.00450437
0.00379734
0.00297179
0.00201927
0.00100147
0.000172526
0.0081527
0.00812694
0.00808327
0.00801524
0.00791464
0.00777239
0.00758029
0.0073333
0.0070295
0.00666836
0.0062495
0.00577155
0.00523066
0.00461701
0.00391225
0.00309148
0.00213873
0.0010833
0.000178692
0.00819453
0.00817824
0.00814312
0.00808113
0.00798465
0.00784575
0.00765756
0.00741563
0.0071183
0.00676507
0.00635497
0.00588588
0.00535323
0.00474721
0.0040501
0.00323684
0.00228232
0.00118746
0.000184325
0.00822289
0.00821355
0.0081847
0.00812873
0.00803758
0.00790392
0.00772191
0.00748777
0.0072
0.0068578
0.00645958
0.0060024
0.00548076
0.0048841
0.00419417
0.00338462
0.00242406
0.00129519
0.000189013
0.00824189
0.00823765
0.00821367
0.00816274
0.00807729
0.00795018
0.00777598
0.0075515
0.00727526
0.00694602
0.0065615
0.00611776
0.00560796
0.00501994
0.00433381
0.00352098
0.00254583
0.00138179
0.000192774
0.00825558
0.00825514
0.00823484
0.00818814
0.00810812
0.00798817
0.00782276
0.00760914
0.00734551
0.00703015
0.00666
0.00622996
0.00573142
0.00515011
0.0044636
0.00363983
0.00263752
0.00142434
0.000195571
0.00826792
0.00827038
0.00825294
0.0082097
0.00813448
0.00802132
0.00786528
0.00766313
0.00741231
0.00711093
0.00675495
0.00633789
0.00584927
0.00527244
0.0045822
0.00374286
0.0027107
0.00146048
0.000196369
0.00828275
0.00828749
0.00827231
0.00823194
0.00816087
0.00805385
0.00790639
0.0077151
0.0074771
0.00718922
0.00684651
0.00644108
0.00596057
0.00538611
0.00469026
0.00383607
0.00278018
0.0014931
0.000196456
0.00830375
0.00831029
0.00829686
0.00825878
0.00819122
0.00808956
0.00794964
0.00776798
0.00754122
0.0072653
0.00693426
0.00653892
0.00606528
0.00549267
0.0047919
0.00392451
0.00284546
0.00152396
0.000197346
0.00833432
0.00834216
0.0083299
0.00829348
0.00822868
0.00813139
0.00799775
0.00782417
0.00760684
0.00734095
0.00701958
0.00663237
0.00616398
0.00559226
0.00488659
0.004007
0.00290652
0.00155305
0.00019879
0.00837727
0.00838578
0.00837404
0.00833851
0.00827554
0.00818145
0.00805261
0.00788533
0.00767539
0.00741731
0.0071033
0.00672202
0.00625698
0.00568491
0.00497403
0.00408305
0.00296302
0.0015801
0.000200067
0.00843445
0.00844288
0.00843085
0.00839532
0.00833313
0.00824094
0.00811531
0.00795242
0.00774769
0.00749505
0.00718597
0.00680826
0.00634456
0.00577074
0.00505415
0.00415236
0.00301454
0.00160498
0.000200991
0.00850633
0.00851382
0.00850063
0.00846417
0.00840166
0.00831008
0.00818607
0.00802569
0.00782403
0.0075745
0.00726795
0.00689149
0.00642712
0.00585008
0.00512712
0.00421487
0.00306083
0.00162728
0.000201599
0.00859155
0.00859728
0.00858211
0.00854388
0.00848011
0.00838799
0.0082642
0.00810468
0.00790418
0.00765567
0.00734947
0.00697214
0.0065052
0.0059235
0.00519338
0.00427081
0.00310179
0.00164651
0.000201931
0.00868669
0.00868999
0.00867228
0.0086317
0.00856603
0.00847258
0.00834803
0.00818813
0.00798735
0.00773824
0.00743065
0.00705072
0.0065796
0.00599189
0.00525374
0.0043207
0.00313759
0.00166249
0.000201951
0.00878628
0.00878682
0.00876636
0.0087233
0.00865558
0.00856056
0.00843486
0.00827402
0.00807221
0.00782156
0.00751151
0.00712782
0.00665133
0.00605651
0.00530942
0.00436548
0.00316879
0.00167561
0.000201479
0.00888323
0.00888111
0.00885818
0.00881302
0.00874368
0.00864752
0.00852101
0.00835949
0.00815676
0.00790457
0.00759189
0.00720408
0.0067217
0.00611904
0.0053622
0.00440668
0.00319646
0.00168674
0.000200204
0.00896973
0.00896546
0.00894078
0.0088944
0.00882445
0.00872822
0.00860203
0.00844096
0.00823844
0.00798574
0.00767137
0.00728017
0.00679228
0.00618174
0.00541463
0.00444673
0.00322252
0.00169734
0.000198354
0.00903846
0.0090328
0.00900738
0.00896103
0.00889188
0.00879717
0.00867308
0.00851438
0.00831413
0.0080631
0.00774921
0.00735663
0.00686485
0.00624738
0.00547008
0.00448903
0.00324956
0.00170807
0.000197019
0.00908387
0.00907764
0.00905256
0.00900756
0.0089408
0.00884947
0.00872959
0.00857572
0.00838054
0.00813432
0.00782429
0.00743376
0.00694122
0.00631914
0.00553265
0.00453778
0.00328076
0.00171969
0.000196369
0.00910336
0.00909722
0.0090734
0.00903092
0.00896798
0.00888177
0.00876825
0.00862181
0.00843485
0.0081972
0.00789537
0.00751167
0.00702312
0.00640045
0.00560703
0.00459792
0.00332001
0.00173434
0.000195979
0.00909795
0.00909227
0.00907029
0.00903115
0.00897313
0.00889347
0.00878814
0.0086515
0.00847582
0.00825063
0.00796186
0.00759072
0.00711245
0.00649507
0.00569862
0.00467542
0.0033722
0.00175428
0.000195653
0.00907232
0.00906715
0.00904728
0.00901197
0.00895958
0.00888748
0.00879176
0.00866688
0.00850518
0.00829612
0.00802527
0.00767292
0.00721232
0.00660786
0.00581419
0.00477796
0.00344407
0.00178368
0.000195123
0.00903414
0.00902939
0.00901173
0.0089805
0.00893423
0.00887046
0.0087855
0.00867408
0.0085288
0.00833932
0.00809118
0.00776401
0.00732912
0.00674653
0.00596306
0.00491554
0.0035441
0.00182689
0.000194855
0.00899298
0.00898856
0.0089732
0.00894636
0.00890672
0.00885209
0.00877912
0.00868298
0.00855675
0.00839061
0.00817041
0.00787549
0.00747526
0.00692449
0.00615922
0.00510078
0.00368166
0.00188649
0.000196015
0.00895886
0.00895485
0.00894206
0.00892007
0.00888782
0.00884342
0.00878402
0.00870544
0.00860158
0.00846354
0.00827801
0.00802452
0.0076706
0.0071641
0.00642469
0.00534774
0.00386363
0.00196349
0.000198986
0.00894101
0.00893766
0.0089279
0.00891146
0.00888753
0.00885468
0.00881073
0.00875242
0.0086749
0.00857084
0.00842875
0.0082296
0.00793991
0.00749845
0.00679564
0.0056682
0.00409044
0.0020584
0.000203418
0.00894688
0.00894458
0.00893842
0.00892823
0.00891354
0.00889346
0.00886665
0.00883106
0.00878356
0.0087193
0.00863021
0.00850159
0.00830363
0.00796926
0.00733858
0.00605655
0.00433845
0.00215944
0.000208738
0.00898172
0.00898089
0.00897877
0.00897533
0.00897041
0.00896373
0.00895485
0.00894311
0.00892747
0.00890629
0.00887669
0.0088329
0.00876057
0.00861418
0.00820592
0.00643623
0.0045339
0.00223365
0.000213135
)
;

boundaryField
{
    leftWall
    {
        type            nutkWallFunction;
        Cmu             0.09;
        kappa           0.41;
        E               9.8;
        value           nonuniform List<scalar> 
50
(
6.364e-06
8.99471e-06
1.04819e-05
1.15761e-05
1.24783e-05
1.32551e-05
1.39498e-05
1.45995e-05
1.55546e-05
1.68457e-05
1.8595e-05
2.2907e-05
2.56033e-05
2.4786e-05
2.31056e-05
2.14345e-05
2.10677e-05
2.03577e-05
1.94758e-05
1.86168e-05
1.79552e-05
1.75621e-05
1.73417e-05
1.72064e-05
1.70809e-05
1.69058e-05
1.66393e-05
1.62564e-05
1.57489e-05
1.51217e-05
1.43864e-05
1.37946e-05
1.29668e-05
1.19899e-05
1.08824e-05
1.00086e-05
9.28788e-06
8.79669e-06
8.58355e-06
8.65835e-06
9.00389e-06
9.58984e-06
1.03796e-05
1.1329e-05
1.23819e-05
1.34675e-05
1.45038e-05
1.54045e-05
1.60882e-05
1.6475e-05
)
;
    }
    rightWall
    {
        type            nutkWallFunction;
        Cmu             0.09;
        kappa           0.41;
        E               9.8;
        value           nonuniform List<scalar> 
50
(
1.05531e-05
1.34293e-05
1.49586e-05
1.61582e-05
1.72394e-05
1.83229e-05
1.95425e-05
2.08272e-05
2.21726e-05
2.37687e-05
2.41096e-05
2.44446e-05
2.10714e-05
1.86405e-05
1.72264e-05
1.69854e-05
1.59967e-05
1.57223e-05
1.52681e-05
1.53706e-05
1.60872e-05
1.6821e-05
1.76427e-05
1.84163e-05
1.90765e-05
1.96193e-05
1.98994e-05
1.9789e-05
1.98428e-05
2.01518e-05
2.03033e-05
2.04575e-05
2.05703e-05
2.06384e-05
2.06676e-05
2.0656e-05
2.05598e-05
2.01863e-05
1.98902e-05
1.9819e-05
1.96894e-05
1.95995e-05
1.94399e-05
1.92209e-05
1.91137e-05
1.91826e-05
1.94947e-05
2.00037e-05
2.0644e-05
2.11939e-05
)
;
    }
    lowerWall
    {
        type            nutkWallFunction;
        Cmu             0.09;
        kappa           0.41;
        E               9.8;
        value           nonuniform List<scalar> 
62
(
2.88863e-06
4.54924e-06
5.58501e-06
6.30441e-06
6.87041e-06
7.35741e-06
7.79489e-06
8.19699e-06
8.57298e-06
8.92893e-06
9.26813e-06
9.59023e-06
9.88965e-06
1.01545e-05
1.03674e-05
1.0508e-05
1.05511e-05
1.04551e-05
1.01731e-05
9.73648e-06
9.07294e-06
7.87539e-06
5.20204e-06
5.20204e-06
1.61051e-05
1.88145e-05
2.098e-05
2.29596e-05
2.5093e-05
2.78277e-05
3.15056e-05
2.99249e-05
2.8988e-05
2.96991e-05
3.15138e-05
5.12478e-06
1.69247e-05
1.91914e-05
2.0836e-05
2.22939e-05
2.38269e-05
2.57564e-05
2.91925e-05
5.12478e-06
7.3105e-06
8.67255e-06
9.3887e-06
9.75185e-06
9.90047e-06
9.74741e-06
9.14729e-06
8.32256e-06
7.44538e-06
7.01459e-06
6.69499e-06
6.17205e-06
5.97923e-06
6.19889e-06
6.43491e-06
6.47956e-06
5.96243e-06
4.53167e-06
)
;
    }
    atmosphere
    {
        type            calculated;
        value           nonuniform List<scalar> 
46
(
0.000170622
0.00133455
0.00249033
0.00349199
0.00435417
0.00509104
0.00571602
0.00624286
0.00668541
0.00705717
0.00737084
0.00763828
0.00787057
0.00807842
0.00827406
0.00848124
0.009
0.009
0.009
0.009
0.009
0.009
0.009
0.009
0.009
0.009
0.009
0.009
0.009
0.009
0.009
0.009
0.009
0.009
0.009
0.009
0.009
0.009
0.009
0.009
0.009
0.009
0.00643623
0.0045339
0.00223365
0.000213135
)
;
    }
    defaultFaces
    {
        type            empty;
    }
}


// ************************************************************************* //
