/*--------------------------------*- C++ -*----------------------------------*\
| =========                 |                                                 |
| \\      /  F ield         | OpenFOAM: The Open Source CFD Toolbox           |
|  \\    /   O peration     | Version:  2.3.0                                 |
|   \\  /    A nd           | Web:      www.OpenFOAM.org                      |
|    \\/     M anipulation  |                                                 |
\*---------------------------------------------------------------------------*/
FoamFile
{
    version     2.0;
    format      ascii;
    class       volScalarField;
    location    "2.4";
    object      p;
}
// * * * * * * * * * * * * * * * * * * * * * * * * * * * * * * * * * * * * * //

dimensions      [1 -1 -2 0 0 0 0];

internalField   nonuniform List<scalar> 
2268
(
688.125
687.976
687.98
687.936
687.866
687.812
687.854
688.097
688.662
689.676
691.265
693.546
696.62
700.558
705.384
711.029
717.301
723.768
729.956
736.124
741.651
744.679
744.834
629.321
629.128
629.103
629.056
629.007
628.983
629.058
629.333
629.928
630.969
632.58
634.879
637.971
641.935
646.802
652.503
658.868
665.73
672.706
678.457
682.75
685.218
685.369
570.493
570.322
570.269
570.21
570.166
570.157
570.249
570.541
571.151
572.204
573.823
576.13
579.235
583.23
588.157
593.96
600.494
607.767
615.39
620.953
624.403
625.966
625.986
511.663
511.564
511.488
511.407
511.344
511.314
511.383
511.648
512.227
513.246
514.833
517.114
520.206
524.219
529.214
535.161
541.93
549.499
557.561
563.535
567.032
567.659
567.013
452.846
452.834
452.75
452.635
452.528
452.446
452.453
452.643
453.14
454.076
455.586
457.802
460.852
464.86
469.921
476.039
483.102
490.989
499.417
506.345
510.392
510.444
508.534
394.038
394.115
394.04
393.885
393.717
393.556
393.464
393.538
393.906
394.713
396.103
398.217
401.19
405.169
410.288
416.601
424.03
432.394
441.347
449.334
454.459
454.464
450.098
335.239
335.401
335.345
335.145
334.905
334.644
334.426
334.345
334.541
335.18
336.42
338.406
341.275
345.2
350.371
356.911
364.8
373.855
383.694
392.988
400.135
401.074
391.007
276.453
276.686
276.651
276.408
276.086
275.716
275.353
275.088
275.08
275.527
276.605
278.461
281.217
285.069
290.289
297.098
305.561
315.552
326.746
338.159
348.551
351.897
335.786
832.764
829.052
823.433
815.503
804.782
791.003
774.77
758.561
745.945
739.447
733.574
724.477
713.998
704.687
697.581
695.548
699.45
702.495
700.547
777.89
772.936
765.379
756.489
745.436
731.637
716.059
701.692
691.953
683.885
676.34
667.09
657.885
649.594
641.068
637.221
640.241
642.769
642.285
722.802
716.217
707.038
697.209
685.452
671.506
656.581
644.205
637.074
629.153
619.326
610.328
603.352
596.065
586.382
581.24
580.957
582.378
583.047
667.607
659.466
649.413
638.909
626.611
612.522
597.942
586.057
580.905
574.275
564.279
554.99
549.319
541.505
531.583
525.076
521.485
521.986
523.236
612.483
603.312
592.207
581.268
568.662
554.454
539.77
527.731
523.914
518.602
509.435
499.492
494.527
486.088
475.951
467.482
461.804
461.509
463.28
556.716
547.405
535.097
523.903
511.232
497.124
481.914
468.749
465.559
461.213
452.38
442.536
437.942
429.916
419.351
408.242
401.786
400.936
403.243
499.63
490.853
477.802
466.623
454.166
440.435
425.106
409.293
405.204
401.95
393.746
384.537
378.908
371.007
359.865
347.701
341.432
340.333
343.254
439.715
431.651
419.957
409.272
397.425
384.543
370.26
353.08
346.139
341.361
335.13
326.395
318.747
309.737
298.322
286.84
280.977
279.728
283.392
184.524
184.881
184.892
184.589
184.125
183.561
182.921
182.287
181.854
181.886
182.608
184.163
186.639
190.257
195.435
202.593
211.964
223.603
237.493
253.361
269.614
279.429
278.597
68.9755
69.3283
69.4471
69.2858
68.9134
68.3453
67.6102
66.6649
65.728
65.1842
65.1702
65.8694
67.3733
69.8265
73.4953
78.8869
86.6265
97.1018
111.224
130.119
152.759
170.948
180.919
8.1125
8.25722
8.47989
8.58017
8.52053
8.31919
8.18525
8.00391
7.75412
7.62386
7.60636
7.98517
9.00545
10.6255
12.552
14.7047
17.519
21.1135
26
33.5624
47.2825
65.6701
80.4177
0.240427
0.328351
0.463472
0.581956
0.630527
0.596297
0.834148
1.27225
1.61355
1.88235
2.12882
2.5346
3.47786
4.77634
6.033
6.85942
7.38084
7.38992
6.86281
5.9099
5.98363
9.19672
16.9495
-0.260575
-0.26792
-0.198045
-0.0684245
0.0546327
0.13002
0.220888
0.365676
0.634833
0.909351
1.13335
1.47341
2.24725
3.04228
3.74167
4.43118
4.77638
4.69442
4.13513
3.44078
3.06451
2.74202
2.42102
-0.766841
-0.85026
-0.859409
-0.813952
-0.691695
-0.5427
-0.513944
-0.527684
-0.394374
-0.190925
0.00293035
0.265607
0.702963
1.13537
1.455
2.14861
2.7333
3.01288
2.7767
2.49364
2.2201
2.02762
2.03714
-1.06738
-1.07635
-1.0793
-1.09416
-1.09495
-1.05903
-1.01919
-0.953529
-0.854655
-0.754793
-0.656683
-0.573831
-0.561901
-0.498582
-0.395263
-0.0207688
0.54617
1.12815
1.42469
1.64594
1.49846
1.29643
1.28529
-1.22296
-1.22526
-1.2308
-1.24173
-1.25057
-1.24521
-1.21835
-1.16718
-1.10117
-1.03168
-0.959035
-0.956227
-1.06118
-1.09987
-1.08884
-1.10282
-1.0008
-0.633269
-0.0249875
0.342882
0.339302
0.185561
-0.104011
-1.36073
-1.36568
-1.37105
-1.37807
-1.38317
-1.38018
-1.36912
-1.35411
-1.33467
-1.29943
-1.24334
-1.22693
-1.2646
-1.31284
-1.3405
-1.36397
-1.38877
-1.39883
-1.22609
-1.13094
-1.10725
-1.23095
-1.50765
-1.50137
-1.5057
-1.51075
-1.51613
-1.52048
-1.52157
-1.52149
-1.53122
-1.5538
-1.55443
-1.53565
-1.5063
-1.49558
-1.50932
-1.53543
-1.55873
-1.5741
-1.59636
-1.69296
-1.81372
-1.86918
-1.8921
-1.89468
-1.64245
-1.64595
-1.65059
-1.65568
-1.66078
-1.66583
-1.67302
-1.68881
-1.71423
-1.7371
-1.7508
-1.752
-1.74238
-1.73218
-1.73768
-1.74483
-1.76356
-1.79502
-1.83532
-1.88116
-1.92607
-1.95865
-1.97121
-1.78305
-1.7857
-1.78975
-1.79477
-1.8006
-1.80782
-1.81795
-1.83319
-1.85274
-1.87142
-1.89056
-1.91333
-1.93069
-1.93494
-1.92966
-1.93057
-1.94578
-1.97051
-1.99616
-2.02259
-2.04195
-2.05542
-2.06399
-1.92273
-1.92465
-1.928
-1.93278
-1.93882
-1.94655
-1.95672
-1.9703
-1.98692
-2.00386
-2.02069
-2.03836
-2.05752
-2.07277
-2.08228
-2.09855
-2.11495
-2.13412
-2.15306
-2.15793
-2.16541
-2.17203
-2.17439
-2.06131
-2.06263
-2.06533
-2.06965
-2.07547
-2.08295
-2.09248
-2.10445
-2.11865
-2.13383
-2.14943
-2.16531
-2.18105
-2.19563
-2.21115
-2.23403
-2.25846
-2.27482
-2.28188
-2.28029
-2.28334
-2.28823
-2.28904
-2.19865
-2.19952
-2.20167
-2.20544
-2.21079
-2.21777
-2.2265
-2.2371
-2.24938
-2.26273
-2.27676
-2.29117
-2.30557
-2.31965
-2.33464
-2.35281
-2.37205
-2.38616
-2.39199
-2.39416
-2.39736
-2.40151
-2.4038
-2.33467
-2.33525
-2.33696
-2.3402
-2.345
-2.35134
-2.35922
-2.36864
-2.3794
-2.39115
-2.40357
-2.41643
-2.42946
-2.44249
-2.45598
-2.47059
-2.48486
-2.49604
-2.50292
-2.50691
-2.51046
-2.5138
-2.51661
-2.46939
-2.46981
-2.47119
-2.47396
-2.47821
-2.48389
-2.49095
-2.49929
-2.50875
-2.5191
-2.53008
-2.54147
-2.55306
-2.56471
-2.57651
-2.58854
-2.59993
-2.60925
-2.61586
-2.62039
-2.62394
-2.62672
-2.62852
-2.60286
-2.60321
-2.60431
-2.6067
-2.61047
-2.61555
-2.62184
-2.62922
-2.63753
-2.64662
-2.65629
-2.66633
-2.67656
-2.68681
-2.69702
-2.70708
-2.71646
-2.72438
-2.73045
-2.73492
-2.73824
-2.74058
-2.74183
-2.73518
-2.73546
-2.73635
-2.73843
-2.74179
-2.74634
-2.75194
-2.75846
-2.76578
-2.77374
-2.78221
-2.79102
-2.79999
-2.80896
-2.81778
-2.82631
-2.83419
-2.84098
-2.84643
-2.85058
-2.85361
-2.85559
-2.85648
-2.86645
-2.86664
-2.86733
-2.86919
-2.87223
-2.87631
-2.88129
-2.88706
-2.89349
-2.90046
-2.90786
-2.91556
-2.92339
-2.93121
-2.93885
-2.94616
-2.95288
-2.95876
-2.9636
-2.96737
-2.97012
-2.97188
-2.97264
-2.99678
-2.99679
-2.99734
-2.99908
-3.00189
-3.00557
-3.00999
-3.01507
-3.02071
-3.0268
-3.03326
-3.03997
-3.0468
-3.05361
-3.06025
-3.06657
-3.07238
-3.07751
-3.08181
-3.08522
-3.08772
-3.08934
-3.09007
-3.12628
-3.12599
-3.12648
-3.12826
-3.13094
-3.13427
-3.13817
-3.14262
-3.14754
-3.15285
-3.15847
-3.16431
-3.17026
-3.1762
-3.18199
-3.18749
-3.19257
-3.19708
-3.20091
-3.204
-3.20631
-3.20783
-3.20857
-3.25512
-3.25471
-3.25509
-3.25707
-3.25965
-3.2626
-3.26599
-3.26984
-3.27411
-3.27872
-3.2836
-3.28868
-3.29386
-3.29903
-3.30409
-3.30891
-3.31337
-3.31736
-3.3208
-3.32361
-3.32574
-3.3272
-3.32798
-3.3851
-3.38459
-3.38466
-3.38623
-3.38833
-3.39073
-3.39356
-3.39683
-3.40049
-3.40447
-3.40871
-3.41312
-3.41763
-3.42215
-3.42657
-3.4308
-3.43474
-3.4383
-3.44139
-3.44396
-3.44595
-3.44736
-3.44818
-3.51633
-3.51558
-3.51537
-3.51585
-3.51699
-3.5187
-3.52094
-3.52364
-3.52674
-3.53017
-3.53384
-3.53767
-3.54161
-3.54556
-3.54944
-3.55317
-3.55666
-3.55984
-3.56263
-3.56498
-3.56685
-3.56822
-3.56909
-3.64688
-3.64605
-3.64542
-3.64497
-3.64524
-3.64634
-3.64806
-3.65027
-3.65289
-3.65583
-3.65901
-3.66235
-3.66579
-3.66925
-3.67267
-3.67597
-3.67907
-3.68192
-3.68444
-3.6866
-3.68835
-3.68968
-3.69059
-3.7753
-3.7746
-3.7736
-3.77283
-3.77279
-3.77353
-3.77488
-3.77672
-3.77894
-3.78147
-3.78423
-3.78715
-3.79017
-3.79321
-3.79622
-3.79914
-3.8019
-3.80446
-3.80674
-3.80872
-3.81035
-3.81163
-3.81255
-3.90216
-3.90129
-3.9003
-3.89973
-3.89973
-3.90033
-3.90145
-3.90301
-3.90492
-3.90711
-3.90951
-3.91206
-3.91471
-3.91739
-3.92005
-3.92263
-3.92509
-3.92738
-3.92945
-3.93125
-3.93276
-3.93397
-3.93488
-4.0288
-4.02776
-4.02679
-4.02631
-4.02635
-4.02689
-4.02785
-4.0292
-4.03085
-4.03275
-4.03485
-4.03708
-4.0394
-4.04175
-4.0441
-4.04638
-4.04857
-4.05061
-4.05247
-4.0541
-4.05549
-4.05662
-4.0575
-4.15537
-4.15422
-4.15324
-4.15279
-4.15283
-4.15331
-4.15416
-4.15532
-4.15676
-4.15842
-4.16024
-4.16219
-4.16421
-4.16627
-4.16833
-4.17034
-4.17228
-4.17409
-4.17574
-4.17722
-4.17847
-4.17952
-4.18034
-4.28186
-4.28067
-4.27968
-4.27922
-4.27925
-4.27967
-4.2804
-4.28142
-4.28267
-4.2841
-4.28568
-4.28737
-4.28913
-4.29092
-4.29272
-4.29448
-4.29617
-4.29776
-4.29923
-4.30054
-4.30167
-4.30262
-4.30338
-4.40827
-4.40708
-4.4061
-4.40563
-4.40563
-4.40599
-4.40662
-4.40749
-4.40857
-4.4098
-4.41116
-4.41261
-4.41413
-4.41567
-4.41722
-4.41874
-4.42022
-4.42161
-4.4229
-4.42406
-4.42506
-4.42591
-4.4266
-4.5346
-4.53345
-4.53249
-4.53203
-4.53199
-4.53228
-4.53281
-4.53355
-4.53446
-4.53551
-4.53667
-4.5379
-4.53918
-4.5405
-4.54182
-4.54312
-4.54439
-4.5456
-4.54672
-4.54773
-4.54862
-4.54938
-4.55
-4.66085
-4.65975
-4.65885
-4.65839
-4.65832
-4.65854
-4.65898
-4.65959
-4.66035
-4.66123
-4.66219
-4.66321
-4.66428
-4.66538
-4.66649
-4.66759
-4.66867
-4.66971
-4.67068
-4.67156
-4.67234
-4.67301
-4.67356
-4.787
-4.78599
-4.78514
-4.7847
-4.78462
-4.78477
-4.78512
-4.78561
-4.78623
-4.78694
-4.78772
-4.78855
-4.78941
-4.7903
-4.79121
-4.79212
-4.79303
-4.79392
-4.79476
-4.79553
-4.79621
-4.7968
-4.79728
-4.91306
-4.91214
-4.91138
-4.91097
-4.91086
-4.91096
-4.91122
-4.91161
-4.91209
-4.91265
-4.91325
-4.9139
-4.91456
-4.91525
-4.91596
-4.91669
-4.91745
-4.91822
-4.91895
-4.91962
-4.92022
-4.92074
-4.92116
-5.03901
-5.03821
-5.03753
-5.03716
-5.03705
-5.0371
-5.03729
-5.03758
-5.03794
-5.03835
-5.03879
-5.03925
-5.03972
-5.04021
-5.04073
-5.04128
-5.04192
-5.04259
-5.04324
-5.04383
-5.04436
-5.04481
-5.04519
-5.16486
-5.16418
-5.1636
-5.16327
-5.16316
-5.16319
-5.16332
-5.16351
-5.16376
-5.16403
-5.16432
-5.1646
-5.16488
-5.16517
-5.16548
-5.16587
-5.1664
-5.16702
-5.16761
-5.16815
-5.16862
-5.16902
-5.16934
-5.2906
-5.29004
-5.28956
-5.2893
-5.2892
-5.28922
-5.2893
-5.28942
-5.28956
-5.28971
-5.28984
-5.28995
-5.29004
-5.29012
-5.2902
-5.29037
-5.29085
-5.2915
-5.29208
-5.29258
-5.29299
-5.29334
-5.29362
-5.41621
-5.41578
-5.41542
-5.41525
-5.4152
-5.41522
-5.41527
-5.41533
-5.41538
-5.4154
-5.41539
-5.41532
-5.41519
-5.41499
-5.41473
-5.41453
-5.41509
-5.41601
-5.41667
-5.41713
-5.41749
-5.41777
-5.418
-5.54165
-5.54139
-5.5412
-5.54117
-5.54121
-5.54126
-5.54129
-5.54129
-5.54125
-5.54115
-5.54097
-5.54071
-5.54032
-5.53975
-5.5389
-5.53791
-5.53869
-5.54049
-5.54138
-5.54182
-5.5421
-5.54231
-5.54248
-5.6669
-5.66681
-5.66681
-5.66687
-5.66694
-5.66698
-5.66698
-5.66695
-5.66686
-5.66671
-5.66649
-5.66619
-5.66575
-5.66511
-5.66398
-5.66206
-5.66232
-5.66514
-5.66619
-5.66657
-5.66676
-5.66688
-5.66698
296.057
299.468
298.12
302.355
189.718
194.67
199.725
204.7
85.8431
87.3907
88.5416
90.7356
23.8855
25.1803
24.2104
23.7151
2.36581
2.45283
2.59725
2.77424
2.20867
2.33466
2.45516
2.60921
1.33099
1.26129
1.18577
1.15455
0.0104744
-0.00442139
-0.160306
-0.407921
-1.46448
-1.0353
-0.905457
-1.34453
-1.93019
-1.9261
-1.8752
-1.82916
-1.96823
-1.96036
-1.95038
-1.94059
-2.06761
-2.0662
-2.06139
-2.05443
-2.173
-2.17021
-2.16656
-2.16248
-2.28568
-2.28182
-2.27789
-2.27439
-2.40022
-2.39672
-2.39265
-2.38913
-2.51458
-2.51218
-2.50838
-2.50493
-2.62825
-2.62642
-2.62339
-2.62062
-2.74114
-2.73987
-2.73798
-2.73607
-2.85585
-2.8549
-2.85358
-2.85228
-2.97217
-2.97147
-2.97052
-2.96959
-3.08978
-3.08928
-3.08858
-3.08791
-3.20844
-3.20811
-3.2076
-3.20712
-3.32799
-3.3278
-3.32745
-3.32713
-3.44833
-3.44825
-3.44804
-3.44783
-3.56935
-3.56937
-3.56925
-3.56912
-3.69094
-3.69102
-3.69096
-3.6909
-3.81296
-3.81309
-3.81307
-3.81304
-3.93532
-3.93547
-3.93547
-3.93547
-4.05793
-4.05808
-4.0581
-4.0581
-4.18075
-4.18089
-4.1809
-4.18092
-4.30375
-4.30387
-4.30388
-4.3039
-4.42693
-4.42702
-4.42702
-4.42704
-4.55028
-4.55035
-4.55034
-4.55035
-4.6738
-4.67385
-4.67383
-4.67384
-4.79749
-4.79752
-4.7975
-4.7975
-4.92134
-4.92136
-4.92133
-4.92134
-5.04534
-5.04535
-5.04533
-5.04533
-5.16947
-5.16949
-5.16946
-5.16947
-5.29373
-5.29374
-5.29373
-5.29374
-5.41809
-5.41811
-5.4181
-5.41812
-5.54256
-5.54258
-5.54258
-5.5426
-5.66703
-5.66705
-5.66707
-5.66708
331.738
335.006
328.694
319.54
309.104
298.448
288.122
278.812
270.942
261.832
250.959
239.123
227.671
216.958
206.048
194.667
186.075
184.346
189.464
212.308
211.048
206.545
198.998
190.844
183.909
180.194
180.447
176.166
165.74
150.907
135.266
121.077
108.12
93.8746
78.5099
67.17
67.3103
74.2455
95.2695
95.0136
92.6361
88.3321
83.4685
79.3042
78.1593
82.156
79.6614
71.7256
60.7914
49.6901
39.498
29.2574
20.0446
11.7023
6.70194
7.82769
12.0488
23.8196
23.4892
22.7624
21.5717
19.7946
18.1025
17.719
19.479
18.2572
14.2264
9.19163
5.52932
2.69847
-0.221305
-0.732655
-0.623961
-0.493132
-0.543341
-0.59061
3.21142
3.94364
4.45124
4.58867
4.57905
4.40251
3.94446
2.96116
1.95757
1.15506
0.527674
-0.175797
-0.746112
-0.793039
-0.784186
-0.771831
-0.761209
-0.763045
-0.75422
2.95435
3.32318
3.48961
3.44783
3.28748
3.05295
2.73965
2.34594
1.83168
1.0546
0.148573
-0.486343
-0.785822
-0.894337
-0.912821
-0.907861
-0.8976
-0.894742
-0.902949
1.19658
1.15229
1.12501
1.10225
0.963441
0.709954
0.358628
0.00305191
-0.270216
-0.691952
-1.04655
-1.09498
-1.06943
-1.07875
-1.06809
-1.05645
-1.04575
-1.04647
-1.06244
-0.770887
-0.924906
-0.94728
-0.955519
-1.03167
-1.15347
-1.28422
-1.4123
-1.45085
-1.39003
-1.32719
-1.314
-1.28297
-1.24535
-1.22216
-1.20785
-1.20372
-1.21197
-1.22721
-1.66715
-1.69469
-1.70305
-1.69612
-1.67155
-1.63177
-1.58006
-1.52978
-1.50421
-1.49028
-1.47083
-1.45539
-1.43454
-1.39803
-1.37282
-1.36084
-1.36232
-1.37286
-1.38136
-1.79129
-1.77987
-1.76266
-1.73988
-1.71544
-1.69189
-1.67025
-1.65276
-1.6383
-1.62185
-1.6051
-1.58848
-1.56827
-1.54229
-1.52243
-1.51517
-1.51687
-1.52296
-1.52517
-1.92427
-1.90886
-1.89512
-1.87807
-1.85777
-1.83694
-1.81874
-1.80159
-1.78266
-1.75997
-1.73907
-1.72204
-1.7062
-1.6878
-1.6738
-1.66769
-1.66721
-1.66564
-1.66571
-2.0425
-2.03
-2.02133
-2.01005
-1.99489
-1.97736
-1.95948
-1.9416
-1.92274
-1.89956
-1.87335
-1.85589
-1.84455
-1.83373
-1.82443
-1.81765
-1.81197
-1.80537
-1.80443
-2.15555
-2.14556
-2.13615
-2.12646
-2.11559
-2.10187
-2.08436
-2.06736
-2.05204
-2.03267
-2.00885
-1.99258
-1.98231
-1.97533
-1.9698
-1.96228
-1.95286
-1.94683
-1.94532
-2.26953
-2.26131
-2.25218
-2.24195
-2.23061
-2.21803
-2.20398
-2.18971
-2.17591
-2.16175
-2.14618
-2.132
-2.11964
-2.11202
-2.10695
-2.1002
-2.09336
-2.08986
-2.08789
-2.38486
-2.37838
-2.36984
-2.35977
-2.34868
-2.33674
-2.32465
-2.31263
-2.30088
-2.29008
-2.27902
-2.26658
-2.25445
-2.24646
-2.241
-2.23612
-2.23257
-2.23167
-2.22888
-2.50087
-2.49573
-2.48831
-2.4791
-2.46895
-2.45782
-2.44672
-2.43635
-2.42615
-2.41634
-2.40651
-2.39616
-2.3868
-2.37984
-2.37497
-2.37142
-2.36966
-2.37024
-2.36746
-2.61707
-2.6127
-2.60686
-2.59921
-2.59014
-2.58036
-2.57029
-2.56081
-2.55164
-2.54277
-2.53404
-2.52551
-2.51795
-2.51219
-2.50808
-2.50538
-2.50453
-2.50566
-2.5036
-2.73344
-2.72976
-2.725
-2.71905
-2.71179
-2.70349
-2.69465
-2.68564
-2.67727
-2.66935
-2.66176
-2.65459
-2.64833
-2.64345
-2.63996
-2.63783
-2.63736
-2.63841
-2.63769
-2.85043
-2.84745
-2.84339
-2.83839
-2.8327
-2.82595
-2.81822
-2.81021
-2.80279
-2.79584
-2.78929
-2.7832
-2.77792
-2.77371
-2.77064
-2.76878
-2.76825
-2.76872
-2.76927
-2.96826
-2.96587
-2.96245
-2.95816
-2.95317
-2.94748
-2.94102
-2.9344
-2.92807
-2.9221
-2.91646
-2.91128
-2.90676
-2.90306
-2.90026
-2.89838
-2.89738
-2.89689
-2.89672
-3.08695
-3.08504
-3.08219
-3.07853
-3.07424
-3.06937
-3.06403
-3.05852
-3.05316
-3.04807
-3.04326
-3.03883
-3.0349
-3.0316
-3.02896
-3.02694
-3.02536
-3.02385
-3.02186
-3.20644
-3.20494
-3.20259
-3.1995
-3.19585
-3.19174
-3.18726
-3.18266
-3.17812
-3.17377
-3.16967
-3.16586
-3.16243
-3.15947
-3.15698
-3.15487
-3.15292
-3.15094
-3.14829
-3.32666
-3.32551
-3.32359
-3.32101
-3.31794
-3.31447
-3.31071
-3.30684
-3.30299
-3.29926
-3.29573
-3.29244
-3.28945
-3.28679
-3.28444
-3.28232
-3.28025
-3.27813
-3.2758
-3.44754
-3.44667
-3.44512
-3.44299
-3.44041
-3.43749
-3.43433
-3.43106
-3.42778
-3.42458
-3.42153
-3.41866
-3.41602
-3.41362
-3.41143
-3.40936
-3.40725
-3.40499
-3.40261
-3.56896
-3.56834
-3.56711
-3.56535
-3.5632
-3.56075
-3.55808
-3.5553
-3.55249
-3.54973
-3.54708
-3.54456
-3.54221
-3.54003
-3.53798
-3.53599
-3.53387
-3.53147
-3.52888
-3.69082
-3.6904
-3.68944
-3.68801
-3.68623
-3.68417
-3.68191
-3.67953
-3.67712
-3.67472
-3.6724
-3.67018
-3.66807
-3.66608
-3.66416
-3.66225
-3.66015
-3.65765
-3.65479
-3.81303
-3.81278
-3.81204
-3.81089
-3.80941
-3.80768
-3.80577
-3.80373
-3.80165
-3.79956
-3.79751
-3.79554
-3.79364
-3.79181
-3.79002
-3.78819
-3.78613
-3.78354
-3.78049
-3.93551
-3.93538
-3.93484
-3.93391
-3.9327
-3.93125
-3.92963
-3.92788
-3.92608
-3.92426
-3.92245
-3.92069
-3.91897
-3.91729
-3.9156
-3.91385
-3.91182
-3.90918
-3.90614
-4.05818
-4.05817
-4.05778
-4.05705
-4.05605
-4.05485
-4.05348
-4.05199
-4.05043
-4.04884
-4.04725
-4.04568
-4.04412
-4.04256
-4.04095
-4.03924
-4.03721
-4.03453
-4.03189
-4.18103
-4.1811
-4.18083
-4.18027
-4.17947
-4.17847
-4.17732
-4.17605
-4.17472
-4.17334
-4.17195
-4.17055
-4.16914
-4.16768
-4.16613
-4.16439
-4.16221
-4.15931
-4.15665
-4.30403
-4.30416
-4.304
-4.30358
-4.30294
-4.30213
-4.30117
-4.30011
-4.29897
-4.29779
-4.29659
-4.29536
-4.29409
-4.29274
-4.29124
-4.28944
-4.28703
-4.28369
-4.28013
-4.42719
-4.42737
-4.42729
-4.42698
-4.42649
-4.42584
-4.42506
-4.42418
-4.42323
-4.42223
-4.42121
-4.42014
-4.41903
-4.4178
-4.41638
-4.41461
-4.41213
-4.40862
-4.40484
-4.5505
-4.55072
-4.55072
-4.5505
-4.55013
-4.54962
-4.54899
-4.54828
-4.5475
-4.54668
-4.54583
-4.54494
-4.54399
-4.54292
-4.54165
-4.54001
-4.53769
-4.53437
-4.53091
-4.67399
-4.67423
-4.67428
-4.67415
-4.67388
-4.67349
-4.673
-4.67243
-4.67182
-4.67116
-4.67047
-4.66976
-4.66898
-4.66809
-4.667
-4.66558
-4.66354
-4.66059
-4.65733
-4.79765
-4.7979
-4.79799
-4.79792
-4.79774
-4.79745
-4.79708
-4.79665
-4.79617
-4.79566
-4.79514
-4.79459
-4.79399
-4.79329
-4.7924
-4.79119
-4.78936
-4.7866
-4.78368
-4.92148
-4.92173
-4.92184
-4.92183
-4.92171
-4.92151
-4.92124
-4.92092
-4.92056
-4.92019
-4.91981
-4.91942
-4.919
-4.91849
-4.9178
-4.91674
-4.91499
-4.91218
-4.90926
-5.04546
-5.0457
-5.04583
-5.04585
-5.04579
-5.04566
-5.04547
-5.04524
-5.04498
-5.04472
-5.04447
-5.04422
-5.04398
-5.04366
-5.04318
-5.04227
-5.04055
-5.03768
-5.03461
-5.16959
-5.16981
-5.16994
-5.16999
-5.16997
-5.16989
-5.16976
-5.1696
-5.16943
-5.16925
-5.1691
-5.16898
-5.1689
-5.16879
-5.16854
-5.16783
-5.1662
-5.16338
-5.16036
-5.29384
-5.29404
-5.29417
-5.29423
-5.29423
-5.29419
-5.29411
-5.294
-5.29388
-5.29377
-5.29369
-5.29366
-5.29371
-5.29382
-5.29388
-5.29347
-5.29199
-5.28931
-5.28642
-5.41821
-5.41838
-5.41849
-5.41855
-5.41857
-5.41856
-5.4185
-5.41843
-5.41834
-5.41827
-5.41822
-5.41825
-5.41839
-5.41873
-5.41931
-5.41937
-5.41795
-5.41544
-5.41272
-5.54267
-5.54279
-5.54289
-5.54295
-5.54298
-5.54297
-5.54294
-5.54289
-5.54282
-5.54276
-5.54272
-5.54273
-5.54289
-5.54353
-5.54513
-5.54587
-5.54411
-5.54172
-5.53928
-5.66713
-5.6672
-5.66725
-5.66728
-5.66729
-5.66728
-5.66726
-5.66722
-5.66717
-5.66713
-5.66709
-5.6671
-5.66727
-5.66811
-5.67106
-5.67115
-5.66986
-5.66817
-5.66598
)
;

boundaryField
{
    leftWall
    {
        type            calculated;
        value           nonuniform List<scalar> 
50
(
688.125
629.321
570.493
511.663
452.846
394.038
335.239
276.453
184.524
68.9755
8.1125
0.240427
-0.260575
-0.766841
-1.06738
-1.22296
-1.36073
-1.50137
-1.64245
-1.78305
-1.92273
-2.06131
-2.19865
-2.33467
-2.46939
-2.60286
-2.73518
-2.86645
-2.99678
-3.12628
-3.25512
-3.3851
-3.51633
-3.64688
-3.7753
-3.90216
-4.0288
-4.15537
-4.28186
-4.40827
-4.5346
-4.66085
-4.787
-4.91306
-5.03901
-5.16486
-5.2906
-5.41621
-5.54165
-5.6669
)
;
    }
    rightWall
    {
        type            calculated;
        value           nonuniform List<scalar> 
50
(
700.547
642.285
583.047
523.236
463.28
403.243
343.254
283.392
189.464
74.2455
12.0488
-0.59061
-0.75422
-0.902949
-1.06244
-1.22721
-1.38136
-1.52517
-1.66571
-1.80443
-1.94532
-2.08789
-2.22888
-2.36746
-2.5036
-2.63769
-2.76927
-2.89672
-3.02186
-3.14829
-3.2758
-3.40261
-3.52888
-3.65479
-3.78049
-3.90614
-4.03189
-4.15665
-4.28013
-4.40484
-4.53091
-4.65733
-4.78368
-4.90926
-5.03461
-5.16036
-5.28642
-5.41272
-5.53928
-5.66598
)
;
    }
    lowerWall
    {
        type            calculated;
        value           nonuniform List<scalar> 
62
(
717.554
717.405
717.41
717.365
717.296
717.241
717.283
717.526
718.091
719.105
720.694
722.975
726.049
729.987
734.813
740.458
746.73
753.129
758.962
765.177
771.051
773.957
774.093
744.834
685.369
625.986
567.013
508.534
450.098
391.007
335.786
358.647
361.796
359.753
363.988
832.764
777.89
722.802
667.607
612.483
556.716
499.63
439.715
860.616
856.904
851.611
843.931
832.834
818.875
802.42
785.593
772.976
768.247
762.846
753.75
742.898
733.271
726.024
723.893
727.767
730.855
728.912
)
;
    }
    atmosphere
    {
        type            calculated;
        value           nonuniform List<scalar> 
46
(
-5.72904
-5.72904
-5.72904
-5.72904
-5.72904
-5.72904
-5.72904
-5.72904
-5.72904
-5.72904
-5.72904
-5.72904
-5.72904
-5.72904
-5.72904
-5.72904
-5.72904
-5.72905
-5.72907
-5.72911
-5.72915
-5.72919
-5.72923
-5.72926
-5.72928
-5.72929
-5.72931
-5.72934
-5.72937
-5.72938
-5.72939
-5.72938
-5.72935
-5.72933
-5.72929
-5.72925
-5.72921
-5.72917
-5.72913
-5.7291
-5.72907
-5.72904
-5.72979
-5.73203
-5.73203
-5.73011
)
;
    }
    defaultFaces
    {
        type            empty;
    }
}


// ************************************************************************* //
