/*--------------------------------*- C++ -*----------------------------------*\
| =========                 |                                                 |
| \\      /  F ield         | OpenFOAM: The Open Source CFD Toolbox           |
|  \\    /   O peration     | Version:  2.3.0                                 |
|   \\  /    A nd           | Web:      www.OpenFOAM.org                      |
|    \\/     M anipulation  |                                                 |
\*---------------------------------------------------------------------------*/
FoamFile
{
    version     2.0;
    format      ascii;
    class       surfaceScalarField;
    location    "2.4";
    object      phi;
}
// * * * * * * * * * * * * * * * * * * * * * * * * * * * * * * * * * * * * * //

dimensions      [0 3 -1 0 0 0 0];

internalField   nonuniform List<scalar> 
4432
(
-3.37156e-07
3.37156e-07
-3.63543e-07
2.63946e-08
-2.71494e-07
-9.20491e-08
-1.84918e-07
-8.65901e-08
-1.60671e-07
-2.42628e-08
-2.0914e-07
4.84618e-08
-3.278e-07
1.18665e-07
-5.13311e-07
1.85527e-07
-7.61733e-07
2.48427e-07
-1.06528e-06
3.03541e-07
-1.41272e-06
3.4744e-07
-1.79191e-06
3.79198e-07
-2.19336e-06
4.01453e-07
-2.61061e-06
4.17241e-07
-3.03463e-06
4.2403e-07
-3.44183e-06
4.0721e-07
-3.79274e-06
3.50909e-07
-4.17821e-06
3.85484e-07
-4.94652e-06
7.68327e-07
-5.48847e-06
5.41943e-07
-4.90089e-06
-5.87561e-07
-2.89479e-06
-2.00609e-06
-2.89476e-06
-2.31003e-07
5.68162e-07
-1.74327e-07
-3.02847e-08
-1.01263e-07
-1.65131e-07
-5.9363e-08
-1.2851e-07
-6.71078e-08
-1.65181e-08
-1.30845e-07
1.12218e-07
-2.51732e-07
2.39561e-07
-4.29031e-07
3.62825e-07
-6.59915e-07
4.79323e-07
-9.37862e-07
5.81494e-07
-1.25359e-06
6.63163e-07
-1.59806e-06
7.23672e-07
-1.96555e-06
7.68949e-07
-2.35341e-06
8.0511e-07
-2.75721e-06
8.27836e-07
-3.16351e-06
8.13515e-07
-3.55626e-06
7.43682e-07
-3.92072e-06
7.49945e-07
-4.18483e-06
1.03245e-06
-4.17674e-06
5.33867e-07
-3.7182e-06
-1.04609e-06
-2.43892e-06
-3.28537e-06
-5.3337e-06
-9.38109e-08
6.61973e-07
-3.21757e-08
-9.1923e-08
2.39695e-08
-2.21285e-07
4.50492e-08
-1.49598e-07
2.43028e-08
4.231e-09
-4.21644e-08
1.78698e-07
-1.57197e-07
3.54599e-07
-3.22068e-07
5.27689e-07
-5.35365e-07
6.92623e-07
-7.91745e-07
8.37879e-07
-1.08338e-06
9.54791e-07
-1.40323e-06
1.04353e-06
-1.74826e-06
1.11398e-06
-2.11882e-06
1.17567e-06
-2.51406e-06
1.22307e-06
-2.92565e-06
1.2251e-06
-3.3343e-06
1.15234e-06
-3.66358e-06
1.07921e-06
-3.71345e-06
1.08232e-06
-3.50004e-06
3.20458e-07
-2.95589e-06
-1.59024e-06
-1.86383e-06
-4.37746e-06
-7.19754e-06
3.15725e-08
6.304e-07
9.49009e-08
-1.5525e-07
1.40472e-07
-2.66858e-07
1.52088e-07
-1.61214e-07
1.27833e-07
2.84905e-08
6.41614e-08
2.42378e-07
-4.2515e-08
4.61277e-07
-1.95536e-07
6.80702e-07
-3.9514e-07
8.92226e-07
-6.37054e-07
1.0798e-06
-9.14445e-07
1.23218e-06
-1.2217e-06
1.35078e-06
-1.55795e-06
1.45022e-06
-1.92631e-06
1.54403e-06
-2.32865e-06
1.6254e-06
-2.75796e-06
1.65441e-06
-3.18711e-06
1.58148e-06
-3.51965e-06
1.41174e-06
-3.53484e-06
1.09751e-06
-3.23296e-06
1.8567e-08
-2.53401e-06
-2.28918e-06
-1.32651e-06
-5.58495e-06
-8.52403e-06
1.40546e-07
4.89855e-07
2.11568e-07
-2.26267e-07
2.55026e-07
-3.10312e-07
2.66331e-07
-1.72512e-07
2.4534e-07
4.94846e-08
1.88975e-07
2.98744e-07
9.21254e-08
5.58124e-07
-5.05701e-08
8.2339e-07
-2.41139e-07
1.08279e-06
-4.76358e-07
1.31502e-06
-7.50076e-07
1.5059e-06
-1.05769e-06
1.6584e-06
-1.40032e-06
1.79285e-06
-1.78375e-06
1.92745e-06
-2.21215e-06
2.0538e-06
-2.67876e-06
2.12101e-06
-3.15198e-06
2.0547e-06
-3.53486e-06
1.79462e-06
-3.63686e-06
1.19951e-06
-3.3506e-06
-2.67697e-07
-2.53623e-06
-3.10355e-06
-1.07142e-06
-7.04975e-06
-9.59546e-06
2.20683e-07
2.69176e-07
3.16211e-07
-3.21786e-07
3.67601e-07
-3.61695e-07
3.86528e-07
-1.91432e-07
3.74795e-07
6.12196e-08
3.29181e-07
3.44355e-07
2.4301e-07
6.4429e-07
1.08513e-07
9.5788e-07
-7.84164e-08
1.26972e-06
-3.15559e-07
1.55216e-06
-5.97319e-07
1.78766e-06
-9.19884e-07
1.98096e-06
-1.28626e-06
2.15922e-06
-1.70501e-06
2.3462e-06
-2.1828e-06
2.53159e-06
-2.7139e-06
2.6521e-06
-3.26775e-06
2.60856e-06
-3.75864e-06
2.28552e-06
-4.02564e-06
1.46651e-06
-3.90126e-06
-3.92082e-07
-3.13747e-06
-3.86734e-06
-1.38579e-06
-8.80143e-06
-1.09813e-05
2.82844e-07
-1.36614e-08
4.07158e-07
-4.46088e-07
4.74119e-07
-4.28648e-07
5.07092e-07
-2.24398e-07
5.0927e-07
5.90401e-08
4.76774e-07
3.76845e-07
4.01121e-07
7.19936e-07
2.71795e-07
1.0872e-06
8.2262e-08
1.45925e-06
-1.66465e-07
1.80089e-06
-4.69392e-07
2.09059e-06
-8.23469e-07
2.33504e-06
-1.23357e-06
2.56932e-06
-1.7111e-06
2.82373e-06
-2.26558e-06
3.08607e-06
-2.89433e-06
3.28085e-06
-3.57324e-06
3.28748e-06
-4.23702e-06
2.94931e-06
-4.75515e-06
1.98464e-06
-4.9623e-06
-1.84926e-07
-4.55924e-06
-4.2704e-06
-2.86301e-06
-1.04977e-05
-1.38443e-05
3.28101e-07
-3.41754e-07
4.80307e-07
-5.98286e-07
5.66875e-07
-5.15211e-07
6.17914e-07
-2.75435e-07
6.36622e-07
4.03271e-08
6.18003e-07
3.95454e-07
5.51404e-07
7.86529e-07
4.2329e-07
1.21531e-06
2.24335e-07
1.6582e-06
-4.61098e-08
2.07133e-06
-3.84089e-07
2.42857e-06
-7.87404e-07
2.73835e-06
-1.26246e-06
3.04437e-06
-1.82324e-06
3.38451e-06
-2.4824e-06
3.74522e-06
-3.24247e-06
4.04092e-06
-4.09122e-06
4.13622e-06
-4.99172e-06
3.8498e-06
-5.85754e-06
2.85046e-06
-6.57003e-06
5.27567e-07
-6.97686e-06
-3.86357e-06
-6.5894e-06
-1.08851e-05
-2.04337e-05
-2.72724e-06
2.72724e-06
-3.66181e-06
9.34593e-07
-2.34979e-06
-1.31201e-06
-1.19365e-07
-2.23043e-06
2.46984e-06
-2.5892e-06
5.21908e-06
-2.74923e-06
7.45088e-06
-2.23179e-06
7.48225e-06
-3.13785e-08
3.85687e-06
3.62541e-06
1.93217e-07
3.66366e-06
-1.48862e-06
1.68185e-06
-2.28234e-06
7.93705e-07
-5.53963e-06
3.25731e-06
-1.01669e-05
4.62729e-06
-1.27751e-05
2.60812e-06
-1.20355e-05
-7.39581e-07
-8.17312e-06
-3.86236e-06
-2.81081e-06
-5.36228e-06
-2.8108e-06
-2.94381e-06
5.67106e-06
-2.9529e-06
9.43687e-07
-2.18628e-06
-2.07862e-06
-7.84501e-07
-3.6322e-06
1.07184e-06
-4.44555e-06
2.94371e-06
-4.6211e-06
4.12363e-06
-3.41166e-06
3.96216e-06
1.30098e-07
2.13292e-06
5.45467e-06
-7.87572e-07
6.58413e-06
-2.56483e-06
3.45915e-06
-3.81748e-06
2.04633e-06
-6.25129e-06
5.69115e-06
-8.7869e-06
7.1629e-06
-1.00731e-05
3.89428e-06
-9.66101e-06
-1.15158e-06
-7.14778e-06
-6.37562e-06
-3.59408e-06
-8.91595e-06
-6.40489e-06
-2.57994e-06
8.251e-06
-2.6154e-06
9.79147e-07
-2.27071e-06
-2.42332e-06
-1.35653e-06
-4.54638e-06
-2.40823e-08
-5.77799e-06
1.29057e-06
-5.93577e-06
1.88786e-06
-4.00893e-06
1.36655e-06
6.51403e-07
1.77239e-07
6.644e-06
-1.59131e-06
8.35267e-06
-3.17539e-06
5.04324e-06
-4.31102e-06
3.18195e-06
-5.5113e-06
6.89145e-06
-6.50706e-06
8.15866e-06
-7.24817e-06
4.63537e-06
-7.0025e-06
-1.39721e-06
-5.51955e-06
-7.85858e-06
-3.4208e-06
-1.10147e-05
-9.8257e-06
-2.22503e-06
1.0476e-05
-2.60483e-06
1.35895e-06
-2.57634e-06
-2.4518e-06
-2.02991e-06
-5.09282e-06
-1.08833e-06
-6.71955e-06
-1.48947e-07
-6.87516e-06
1.16862e-07
-4.27472e-06
-6.44789e-07
1.41305e-06
-1.5156e-06
7.5148e-06
-2.51182e-06
9.34887e-06
-3.60573e-06
6.13716e-06
-4.37512e-06
3.95133e-06
-4.66718e-06
7.18354e-06
-4.72798e-06
8.21949e-06
-4.82034e-06
4.72771e-06
-4.37858e-06
-1.83894e-06
-3.74133e-06
-8.49586e-06
-2.7014e-06
-1.20546e-05
-1.25271e-05
-2.11322e-06
1.25892e-05
-2.86873e-06
2.11445e-06
-3.0884e-06
-2.23212e-06
-2.81415e-06
-5.36708e-06
-2.1669e-06
-7.36679e-06
-1.47524e-06
-7.56682e-06
-1.38133e-06
-4.36865e-06
-2.25685e-06
2.28855e-06
-2.94019e-06
8.19813e-06
-3.37653e-06
9.7852e-06
-3.83809e-06
6.59874e-06
-4.27534e-06
4.38857e-06
-3.83573e-06
6.74394e-06
-3.17687e-06
7.56064e-06
-2.60356e-06
4.15437e-06
-2.05445e-06
-2.38803e-06
-1.90464e-06
-8.64568e-06
-1.70353e-06
-1.22557e-05
-1.42306e-05
-2.38978e-06
1.4979e-05
-3.44138e-06
3.16605e-06
-3.7826e-06
-1.89088e-06
-3.68998e-06
-5.45972e-06
-3.26962e-06
-7.78715e-06
-2.72354e-06
-8.11291e-06
-2.65561e-06
-4.43658e-06
-3.50816e-06
3.14109e-06
-3.99516e-06
8.68513e-06
-3.94312e-06
9.73316e-06
-3.88127e-06
6.5369e-06
-3.86111e-06
4.3684e-06
-2.97276e-06
5.85558e-06
-1.70858e-06
6.29645e-06
-5.75306e-07
3.02107e-06
-6.45557e-09
-2.95688e-06
-7.45564e-08
-8.5776e-06
-4.95012e-07
-1.18353e-05
-1.47256e-05
-3.15013e-06
1.81292e-05
-4.3478e-06
4.36372e-06
-4.62963e-06
-1.60903e-06
-4.6238e-06
-5.46555e-06
-4.38382e-06
-8.02713e-06
-3.9474e-06
-8.54932e-06
-3.74434e-06
-4.63963e-06
-4.39679e-06
3.79353e-06
-4.60866e-06
8.89701e-06
-4.13632e-06
9.26082e-06
-3.60497e-06
6.00556e-06
-3.09371e-06
3.85713e-06
-1.92246e-06
4.68432e-06
-2.67295e-07
4.6413e-06
1.21827e-06
1.53551e-06
1.87705e-06
-3.61567e-06
1.70309e-06
-8.40363e-06
8.14767e-07
-1.0947e-05
-1.39109e-05
-4.93771e-06
2.30669e-05
-5.55822e-06
4.98423e-06
-5.58598e-06
-1.58128e-06
-5.57574e-06
-5.47579e-06
-5.4881e-06
-8.11475e-06
-5.19536e-06
-8.84206e-06
-4.7651e-06
-5.06988e-06
-5.00501e-06
4.03346e-06
-4.74987e-06
8.64187e-06
-3.93996e-06
8.45091e-06
-2.9477e-06
5.01331e-06
-2.00947e-06
2.91889e-06
-6.13077e-07
3.28793e-06
1.23691e-06
2.79132e-06
2.93424e-06
-1.61829e-07
3.68995e-06
-4.37138e-06
3.39565e-06
-8.10933e-06
2.03963e-06
-9.59095e-06
-1.18713e-05
7.4237e-07
-1.08412e-06
1.16709e-06
-1.023e-06
1.42938e-06
-7.77496e-07
1.60454e-06
-4.50602e-07
1.69963e-06
-5.47595e-08
1.7045e-06
3.90575e-07
1.58691e-06
9.0412e-07
1.30876e-06
1.49346e-06
8.39301e-07
2.12767e-06
1.69224e-07
2.74142e-06
-6.99487e-07
3.29728e-06
-1.76382e-06
3.8027e-06
-3.0389e-06
4.31947e-06
-4.56101e-06
4.90663e-06
-6.36885e-06
5.55307e-06
-8.49028e-06
6.16236e-06
-1.09532e-05
6.59913e-06
-1.3798e-05
6.69464e-06
-1.70369e-05
6.08933e-06
-2.06527e-05
4.1434e-06
-2.46599e-05
1.43646e-07
-2.9696e-05
-5.84907e-06
-9.79821e-06
-4.03314e-05
5.89735e-07
-1.67384e-06
9.91837e-07
-1.4251e-06
1.33094e-06
-1.11659e-06
1.59978e-06
-7.19452e-07
1.77088e-06
-2.25863e-07
1.80496e-06
3.56488e-07
1.70343e-06
1.00565e-06
1.42007e-06
1.77682e-06
8.98955e-07
2.64879e-06
1.2569e-07
3.51468e-06
-9.5811e-07
4.38108e-06
-2.35746e-06
5.20204e-06
-4.03631e-06
5.99831e-06
-5.9741e-06
6.8444e-06
-8.22662e-06
7.80557e-06
-1.09034e-05
8.83912e-06
-1.41027e-05
9.79843e-06
-1.80532e-05
1.06452e-05
-2.29746e-05
1.10107e-05
-2.87883e-05
9.95704e-06
-3.44935e-05
5.84885e-06
-3.89842e-05
-1.35836e-06
-7.22179e-06
-4.15606e-05
-5.78959e-07
-1.09488e-06
-2.31823e-08
-1.98086e-06
5.7236e-07
-1.71214e-06
1.05457e-06
-1.20166e-06
1.32482e-06
-4.96117e-07
1.18981e-06
4.91501e-07
9.13745e-07
1.28171e-06
5.61228e-07
2.12935e-06
-4.15773e-08
3.25163e-06
-9.47856e-07
4.42099e-06
-2.49462e-06
5.92785e-06
-4.70216e-06
7.4096e-06
-7.19726e-06
8.49344e-06
-9.60398e-06
9.25115e-06
-1.19724e-05
1.0174e-05
-1.47572e-05
1.16239e-05
-1.80361e-05
1.30773e-05
-2.22995e-05
1.49086e-05
-2.7929e-05
1.66403e-05
-3.48069e-05
1.68349e-05
-4.0469e-05
1.1511e-05
-4.25202e-05
6.92836e-07
-8.35454e-06
-4.13875e-05
-7.61141e-06
6.51654e-06
-4.64819e-06
-4.944e-06
-2.87803e-06
-3.4823e-06
-1.60279e-06
-2.47691e-06
-6.24401e-07
-1.47451e-06
-2.60646e-06
2.47357e-06
-5.32646e-06
4.00175e-06
-6.38633e-06
3.18924e-06
-7.31505e-06
4.18031e-06
-9.08445e-06
6.19033e-06
-1.29692e-05
9.81258e-06
-2.02051e-05
1.46455e-05
-2.66817e-05
1.497e-05
-2.99581e-05
1.25276e-05
-2.88534e-05
9.06932e-06
-2.6373e-05
9.14352e-06
-2.37063e-05
1.04106e-05
-2.29384e-05
1.41408e-05
-2.51828e-05
1.88846e-05
-3.23342e-05
2.39862e-05
-3.9881e-05
1.90579e-05
-4.28895e-05
3.7013e-06
-9.76023e-06
-4.14838e-05
-1.32011e-05
1.97177e-05
-1.5357e-05
-2.78806e-06
-1.7789e-05
-1.05019e-06
-1.88773e-05
-1.38867e-06
-1.91006e-05
-1.25115e-06
-2.23831e-05
5.75617e-06
-2.60168e-05
7.63556e-06
-2.84276e-05
5.60011e-06
-3.12646e-05
7.0173e-06
-3.49464e-05
9.87209e-06
-4.20269e-05
1.68931e-05
-5.42334e-05
2.6852e-05
-6.0638e-05
2.13745e-05
-5.99476e-05
1.18373e-05
-5.68165e-05
5.93825e-06
-5.19277e-05
4.25472e-06
-4.48539e-05
3.33673e-06
-3.60695e-05
5.35639e-06
-2.80578e-05
1.0873e-05
-2.68576e-05
2.2786e-05
-2.88748e-05
2.10751e-05
-3.28594e-05
7.68581e-06
-5.0886e-06
-3.75309e-05
-5.59011e-07
2.02767e-05
-1.26574e-05
9.31044e-06
-2.28216e-05
9.11401e-06
-2.77509e-05
3.54049e-06
-2.98303e-05
8.28328e-07
-3.01515e-05
6.07738e-06
-3.2033e-05
9.51703e-06
-3.82663e-05
1.18333e-05
-4.39021e-05
1.2653e-05
-4.83911e-05
1.43611e-05
-5.50455e-05
2.35474e-05
-6.2159e-05
3.39657e-05
-6.31275e-05
2.23429e-05
-6.36212e-05
1.2331e-05
-6.53232e-05
7.64028e-06
-6.42423e-05
3.17385e-06
-6.01779e-05
-7.27635e-07
-5.35617e-05
-1.25993e-06
-4.62186e-05
3.52988e-06
-3.75043e-05
1.40717e-05
-3.34921e-05
1.7063e-05
-3.92523e-05
1.34459e-05
2.817e-06
-4.71579e-05
-2.36909e-06
2.26458e-05
-1.20101e-05
1.89519e-05
-1.93537e-05
1.64577e-05
-2.70582e-05
1.1245e-05
-3.36126e-05
7.38263e-06
-3.70701e-05
9.53505e-06
-4.23065e-05
1.47534e-05
-4.94154e-05
1.8942e-05
-5.35016e-05
1.67393e-05
-5.60611e-05
1.69206e-05
-5.7384e-05
2.48701e-05
-5.56366e-05
3.22182e-05
-5.66456e-05
2.33519e-05
-6.0453e-05
1.61383e-05
-6.67765e-05
1.39638e-05
-6.96196e-05
6.0169e-06
-6.95159e-05
-8.31209e-07
-6.70355e-05
-3.74028e-06
-6.15425e-05
-1.9631e-06
-4.97405e-05
2.26971e-06
-4.13467e-05
8.66928e-06
-4.23345e-05
1.44336e-05
5.36967e-06
-4.48875e-05
-5.33726e-06
2.79829e-05
-1.09809e-05
2.45954e-05
-1.66292e-05
2.21061e-05
-2.37281e-05
1.83441e-05
-3.23928e-05
1.60472e-05
-4.07645e-05
1.79068e-05
-4.81801e-05
2.21692e-05
-5.28063e-05
2.3568e-05
-5.34165e-05
1.73494e-05
-5.26078e-05
1.6112e-05
-4.8832e-05
2.10943e-05
-4.26546e-05
2.60407e-05
-4.48217e-05
2.55191e-05
-5.18453e-05
2.31619e-05
-5.93792e-05
2.14977e-05
-6.71104e-05
1.37482e-05
-7.07526e-05
2.81095e-06
-6.98937e-05
-4.59916e-06
-6.48633e-05
-6.99366e-06
-5.69647e-05
-5.62897e-06
-4.81886e-05
-1.06679e-07
-4.02112e-05
6.4564e-06
3.70629e-06
-3.85479e-05
-4.78376e-06
3.27669e-05
-9.4985e-06
2.93096e-05
-1.41746e-05
2.67823e-05
-2.02955e-05
2.44648e-05
-2.78772e-05
2.36289e-05
-3.53343e-05
2.53634e-05
-4.12365e-05
2.80713e-05
-4.44028e-05
2.67344e-05
-4.59439e-05
1.88904e-05
-4.59132e-05
1.60813e-05
-4.24188e-05
1.75998e-05
-3.69811e-05
2.06031e-05
-3.47181e-05
2.32561e-05
-3.84131e-05
2.68568e-05
-4.42261e-05
2.73105e-05
-5.1545e-05
2.1067e-05
-5.86255e-05
9.89154e-06
-6.29137e-05
-3.10937e-07
-6.00111e-05
-9.89623e-06
-5.57903e-05
-9.84987e-06
-4.96022e-05
-6.29478e-06
-4.01773e-05
-2.96845e-06
-2.88822e-06
-3.35827e-05
-3.57151e-06
3.63386e-05
-7.24152e-06
3.29793e-05
-1.11096e-05
3.06502e-05
-1.58038e-05
2.9159e-05
-2.11352e-05
2.89604e-05
-2.59804e-05
3.02082e-05
-2.93931e-05
3.14836e-05
-3.19559e-05
2.92972e-05
-3.56395e-05
2.25739e-05
-3.74318e-05
1.78735e-05
-3.67077e-05
1.68756e-05
-3.38079e-05
1.77033e-05
-3.07524e-05
2.02005e-05
-2.97165e-05
2.58208e-05
-3.11561e-05
2.87501e-05
-3.3699e-05
2.36099e-05
-3.73221e-05
1.35145e-05
-4.21374e-05
4.50448e-06
-4.88437e-05
-3.18984e-06
-5.11387e-05
-7.55474e-06
-4.70335e-05
-1.04e-05
-3.89696e-05
-1.10324e-05
-1.51558e-05
-2.67021e-05
-2.06946e-06
3.84077e-05
-4.6729e-06
3.55829e-05
-7.54322e-06
3.352e-05
-1.0737e-05
3.23528e-05
-1.39364e-05
3.21594e-05
-1.64278e-05
3.26995e-05
-1.78477e-05
3.29032e-05
-1.93806e-05
3.08297e-05
-2.28143e-05
2.60074e-05
-2.65182e-05
2.15773e-05
-2.84085e-05
1.87658e-05
-2.80939e-05
1.73885e-05
-2.6693e-05
1.87996e-05
-2.41287e-05
2.32565e-05
-2.20423e-05
2.66638e-05
-1.99718e-05
2.15394e-05
-1.88575e-05
1.24002e-05
-1.91737e-05
4.82069e-06
-2.21092e-05
-2.54227e-07
-2.65437e-05
-3.12003e-06
-2.8849e-05
-8.09464e-06
-2.70069e-05
-1.28741e-05
-1.81154e-05
-2.40469e-05
-7.28426e-07
3.91358e-05
-2.29104e-06
3.71453e-05
-4.11104e-06
3.53397e-05
-5.98903e-06
3.42305e-05
-7.61236e-06
3.37823e-05
-8.59881e-06
3.36857e-05
-8.91799e-06
3.32223e-05
-9.4479e-06
3.13596e-05
-1.12943e-05
2.78537e-05
-1.39306e-05
2.42134e-05
-1.6445e-05
2.12801e-05
-1.8471e-05
1.94145e-05
-1.8886e-05
1.92144e-05
-1.6986e-05
2.13562e-05
-1.34531e-05
2.31308e-05
-1.00469e-05
1.81332e-05
-7.92858e-06
1.0282e-05
-7.13879e-06
4.03099e-06
-7.73693e-06
3.43877e-07
-1.00754e-05
-7.81541e-07
-1.24623e-05
-5.70782e-06
-1.35942e-05
-1.17421e-05
-1.71816e-05
-1.45275e-05
2.1202e-07
3.89241e-05
-4.38037e-07
3.77949e-05
-1.30665e-06
3.62087e-05
-2.1452e-06
3.50686e-05
-2.70525e-06
3.43426e-05
-2.79925e-06
3.37793e-05
-2.48767e-06
3.29105e-05
-2.30886e-06
3.11808e-05
-2.92782e-06
2.84725e-05
-4.21075e-06
2.54961e-05
-5.75987e-06
2.28288e-05
-7.1788e-06
2.08333e-05
-7.8813e-06
1.99169e-05
-6.77638e-06
2.02512e-05
-3.69091e-06
2.00452e-05
-1.31636e-06
1.57587e-05
2.98517e-08
8.9357e-06
4.58011e-07
3.6029e-06
-2.1989e-07
1.02188e-06
-8.45393e-07
-1.55963e-07
-2.25268e-06
-4.30037e-06
-3.98069e-06
-1.00139e-05
-1.51386e-05
-6.02375e-06
7.22317e-07
3.82018e-05
7.90915e-07
3.7726e-05
6.8569e-07
3.63138e-05
6.2041e-07
3.51336e-05
7.73976e-07
3.41894e-05
1.24541e-06
3.33078e-05
1.95902e-06
3.21967e-05
2.58912e-06
3.05504e-05
2.7566e-06
2.8305e-05
2.45132e-06
2.58015e-05
1.87498e-06
2.3405e-05
1.31922e-06
2.13891e-05
1.26338e-06
1.99729e-05
2.41838e-06
1.90961e-05
4.78079e-06
1.76826e-05
6.49865e-06
1.40407e-05
6.71109e-06
8.72322e-06
6.13336e-06
4.18065e-06
5.38143e-06
1.7739e-06
5.34172e-06
-1.16131e-07
4.63416e-06
-3.59262e-06
2.95619e-06
-8.33567e-06
-1.28963e-05
7.14367e-07
8.9931e-07
3.7302e-05
1.46935e-06
3.71562e-05
1.9209e-06
3.58616e-05
2.40523e-06
3.46494e-05
3.04076e-06
3.35536e-05
3.87991e-06
3.24686e-05
4.86091e-06
3.12159e-05
5.78909e-06
2.96222e-05
6.4454e-06
2.76487e-05
6.78604e-06
2.54609e-05
6.91586e-06
2.32751e-05
7.03789e-06
2.12668e-05
7.47356e-06
1.95372e-05
8.59971e-06
1.797e-05
1.02992e-05
1.59831e-05
1.15666e-05
1.27734e-05
1.16131e-05
8.67671e-06
1.08168e-05
4.97678e-06
1.02375e-05
2.353e-06
1.0037e-05
8.41903e-08
9.47928e-06
-3.03499e-06
8.01892e-06
-6.87538e-06
-1.06738e-05
5.79639e-06
8.95286e-07
3.64065e-05
1.75646e-06
3.62948e-05
2.57452e-06
3.50433e-05
3.42606e-06
3.37982e-05
4.37808e-06
3.26012e-05
5.45623e-06
3.13905e-05
6.61502e-06
3.00573e-05
7.7374e-06
2.84998e-05
8.69495e-06
2.6691e-05
9.44495e-06
2.47105e-05
1.00397e-05
2.268e-05
1.06049e-05
2.07016e-05
1.13261e-05
1.88159e-05
1.23681e-05
1.69278e-05
1.36153e-05
1.47359e-05
1.44989e-05
1.18897e-05
1.46003e-05
8.57522e-06
1.41427e-05
5.43425e-06
1.36784e-05
2.8172e-06
1.33884e-05
3.74278e-07
1.28171e-05
-2.4637e-06
1.15944e-05
-5.65254e-06
-8.68375e-06
9.60453e-06
8.24758e-07
3.5582e-05
1.82586e-06
3.52933e-05
2.86058e-06
3.40089e-05
3.93625e-06
3.27226e-05
5.08071e-06
3.14564e-05
6.30263e-06
3.01686e-05
7.57007e-06
2.87898e-05
8.81181e-06
2.72579e-05
9.94958e-06
2.55532e-05
1.09477e-05
2.37123e-05
1.18278e-05
2.17997e-05
1.2658e-05
1.98715e-05
1.35315e-05
1.79426e-05
1.4508e-05
1.59514e-05
1.54957e-05
1.37482e-05
1.61964e-05
1.1189e-05
1.63935e-05
8.37805e-06
1.62008e-05
5.6268e-06
1.5905e-05
3.11299e-06
1.55959e-05
6.83342e-07
1.5035e-05
-1.90276e-06
1.39728e-05
-4.59023e-06
-7.04584e-06
1.2335e-05
7.7159e-07
3.48103e-05
1.82964e-06
3.42351e-05
2.97861e-06
3.28603e-05
4.17349e-06
3.15273e-05
5.41625e-06
3.02138e-05
6.70722e-06
2.88778e-05
8.02544e-06
2.74715e-05
9.32714e-06
2.59562e-05
1.05624e-05
2.43179e-05
1.17016e-05
2.2573e-05
1.27471e-05
2.07543e-05
1.37281e-05
1.88906e-05
1.46838e-05
1.69868e-05
1.56273e-05
1.50079e-05
1.64925e-05
1.28828e-05
1.71255e-05
1.0556e-05
1.74169e-05
8.08668e-06
1.74172e-05
5.62639e-06
1.7263e-05
3.26711e-06
1.69897e-05
9.56478e-07
1.64738e-05
-1.38691e-06
1.5574e-05
-3.69037e-06
-5.70283e-06
1.4231e-05
7.91434e-07
3.40185e-05
1.8808e-06
3.31462e-05
3.08671e-06
3.16542e-05
4.32864e-06
3.02849e-05
5.59872e-06
2.8944e-05
6.89947e-06
2.75773e-05
8.22068e-06
2.61502e-05
9.53539e-06
2.46414e-05
1.08096e-05
2.30436e-05
1.20177e-05
2.13647e-05
1.31506e-05
1.96215e-05
1.42135e-05
1.78279e-05
1.52154e-05
1.59848e-05
1.61497e-05
1.40736e-05
1.69708e-05
1.20618e-05
1.75965e-05
9.93016e-06
1.79698e-05
7.71333e-06
1.81086e-05
5.48748e-06
1.80707e-05
3.30502e-06
1.7866e-05
1.16117e-06
1.74297e-05
-9.50615e-07
1.66878e-05
-2.94844e-06
-4.64692e-06
1.56319e-05
9.10841e-07
3.31077e-05
2.04962e-06
3.20077e-05
3.28888e-06
3.04145e-05
4.52928e-06
2.90445e-05
5.77383e-06
2.76997e-05
7.03936e-06
2.63116e-05
8.32712e-06
2.48625e-05
9.62036e-06
2.33482e-05
1.08934e-05
2.17703e-05
1.21227e-05
2.01353e-05
1.32921e-05
1.8452e-05
1.43933e-05
1.67268e-05
1.54196e-05
1.49585e-05
1.6356e-05
1.31371e-05
1.717e-05
1.12479e-05
1.78143e-05
9.2857e-06
1.82562e-05
7.27141e-06
1.84974e-05
5.2462e-06
1.8558e-05
3.24443e-06
1.84372e-05
1.28213e-06
1.81016e-05
-6.14885e-07
1.75197e-05
-2.36642e-06
-3.83413e-06
1.6707e-05
1.10675e-06
3.20013e-05
2.35428e-06
3.07602e-05
3.6269e-06
2.91415e-05
4.83159e-06
2.784e-05
6.01267e-06
2.65188e-05
7.2141e-06
2.51099e-05
8.44687e-06
2.36295e-05
9.69858e-06
2.20964e-05
1.09466e-05
2.05221e-05
1.21673e-05
1.89144e-05
1.33408e-05
1.72785e-05
1.44513e-05
1.56162e-05
1.54848e-05
1.3925e-05
1.64234e-05
1.21985e-05
1.7242e-05
1.04294e-05
1.79105e-05
8.61723e-06
1.84068e-05
6.77512e-06
1.87254e-05
4.92766e-06
1.88696e-05
3.10038e-06
1.88348e-05
1.31716e-06
1.86048e-05
-3.84809e-07
1.81716e-05
-1.93308e-06
-3.22179e-06
1.75593e-05
1.31387e-06
3.06876e-05
2.75458e-06
2.93193e-05
4.06635e-06
2.78294e-05
5.20957e-06
2.66968e-05
6.31045e-06
2.54178e-05
7.44269e-06
2.39774e-05
8.61975e-06
2.24523e-05
9.82711e-06
2.08889e-05
1.10414e-05
1.93078e-05
1.22382e-05
1.77177e-05
1.3396e-05
1.61209e-05
1.44963e-05
1.45161e-05
1.5522e-05
1.28993e-05
1.64555e-05
1.1265e-05
1.72762e-05
9.60877e-06
1.79627e-05
7.93083e-06
1.84981e-05
6.2398e-06
1.88738e-05
4.55197e-06
1.90864e-05
2.88789e-06
1.91307e-05
1.27301e-06
1.89999e-05
-2.53965e-07
1.86971e-05
-1.63014e-06
-2.77245e-06
1.82478e-05
1.59476e-06
2.90927e-05
3.06992e-06
2.7844e-05
4.44586e-06
2.64533e-05
5.54206e-06
2.56007e-05
6.59287e-06
2.43668e-05
7.69088e-06
2.28793e-05
8.83915e-06
2.13041e-05
1.0018e-05
1.971e-05
1.12033e-05
1.81226e-05
1.23719e-05
1.65493e-05
1.35033e-05
1.49896e-05
1.45797e-05
1.34398e-05
1.55847e-05
1.18942e-05
1.65024e-05
1.03474e-05
1.73157e-05
8.79544e-06
1.80083e-05
7.23828e-06
1.85664e-05
5.68171e-06
1.89809e-05
4.13751e-06
1.92461e-05
2.62286e-06
1.93573e-05
1.16194e-06
1.93128e-05
-2.09256e-07
1.91199e-05
-1.43714e-06
-2.45507e-06
1.88025e-05
1.72524e-06
2.73675e-05
3.13589e-06
2.64333e-05
4.49562e-06
2.50936e-05
5.65578e-06
2.44407e-05
6.76727e-06
2.32551e-05
7.91052e-06
2.17362e-05
9.07985e-06
2.01349e-05
1.02583e-05
1.85317e-05
1.14272e-05
1.69538e-05
1.25691e-05
1.54075e-05
1.36685e-05
1.38903e-05
1.47114e-05
1.23969e-05
1.56846e-05
1.0921e-05
1.6575e-05
9.4571e-06
1.73692e-05
8.00127e-06
1.80544e-05
6.55312e-06
1.86195e-05
5.11671e-06
1.90561e-05
3.70116e-06
1.9358e-05
2.32112e-06
1.95218e-05
9.98365e-07
1.95479e-05
-2.35216e-07
1.94451e-05
-1.33426e-06
-2.24438e-06
1.92345e-05
1.54529e-06
2.58224e-05
3.00237e-06
2.4976e-05
4.25693e-06
2.38394e-05
5.55876e-06
2.31388e-05
6.84114e-06
2.19726e-05
8.09911e-06
2.04783e-05
9.33026e-06
1.89037e-05
1.05298e-05
1.73322e-05
1.16914e-05
1.57923e-05
1.28077e-05
1.42913e-05
1.38708e-05
1.28272e-05
1.48726e-05
1.1395e-05
1.58046e-05
9.98911e-06
1.66574e-05
8.60431e-06
1.74214e-05
7.23733e-06
1.80869e-05
5.88767e-06
1.86451e-05
4.55853e-06
1.9089e-05
3.25743e-06
1.94134e-05
1.997e-06
1.96154e-05
7.96468e-07
1.96969e-05
-3.16579e-07
1.96663e-05
-1.30355e-06
-2.11968e-06
1.95416e-05
1.47879e-06
2.43436e-05
2.80562e-06
2.3649e-05
4.05645e-06
2.2589e-05
5.49048e-06
2.17047e-05
6.93648e-06
2.05265e-05
8.30583e-06
1.91089e-05
9.5963e-06
1.76132e-05
1.08143e-05
1.61142e-05
1.1965e-05
1.46416e-05
1.30509e-05
1.32053e-05
1.4072e-05
1.1806e-05
1.50262e-05
1.04408e-05
1.59095e-05
9.1057e-06
1.67168e-05
7.79694e-06
1.74418e-05
6.51225e-06
1.80779e-05
5.25158e-06
1.86185e-05
4.01789e-06
1.90582e-05
2.81781e-06
1.93929e-05
1.66246e-06
1.96208e-05
5.6872e-07
1.97437e-05
-4.39417e-07
1.97699e-05
-1.3296e-06
-2.06398e-06
1.97143e-05
1.63432e-06
2.27091e-05
2.82893e-06
2.24546e-05
4.15622e-06
2.12621e-05
5.65074e-06
2.02103e-05
7.15187e-06
1.90256e-05
8.56301e-06
1.76978e-05
9.87072e-06
1.63056e-05
1.1082e-05
1.4903e-05
1.22067e-05
1.3517e-05
1.32525e-05
1.21593e-05
1.42247e-05
1.08337e-05
1.51257e-05
9.53976e-06
1.59555e-05
8.2758e-06
1.67123e-05
7.03999e-06
1.7393e-05
5.83146e-06
1.79934e-05
4.65106e-06
1.85093e-05
3.502e-06
1.89367e-05
2.3905e-06
1.92727e-05
1.3266e-06
1.95164e-05
3.25255e-07
1.96697e-05
-5.92647e-07
1.97399e-05
-1.39963e-06
-2.06349e-06
1.97396e-05
1.74845e-06
2.09605e-05
3.1e-06
2.11035e-05
4.49951e-06
1.98628e-05
5.9798e-06
1.87304e-05
7.44713e-06
1.75586e-05
8.83058e-06
1.63147e-05
1.01091e-05
1.50274e-05
1.12846e-05
1.37277e-05
1.23657e-05
1.2436e-05
1.33614e-05
1.11636e-05
1.4279e-05
9.91604e-06
1.51236e-05
8.69516e-06
1.58979e-05
7.50145e-06
1.66028e-05
6.33509e-06
1.72374e-05
5.19684e-06
1.77998e-05
4.08869e-06
1.82875e-05
3.0144e-06
1.8698e-05
1.98017e-06
1.90294e-05
9.95306e-07
1.92815e-05
7.32595e-08
1.94566e-05
-7.67609e-07
1.95607e-05
-1.50365e-06
-2.10721e-06
1.96045e-05
1.81486e-06
1.91456e-05
3.3567e-06
1.95621e-05
4.8266e-06
1.83931e-05
6.28564e-06
1.72716e-05
7.69642e-06
1.61482e-05
9.02097e-06
1.49904e-05
1.02439e-05
1.38047e-05
1.1365e-05
1.26066e-05
1.2391e-05
1.141e-05
1.33304e-05
1.02243e-05
1.41909e-05
9.05551e-06
1.4979e-05
7.9071e-06
1.56991e-05
6.78144e-06
1.63536e-05
5.68057e-06
1.69436e-05
4.6069e-06
1.74687e-05
3.56367e-06
1.79278e-05
2.55541e-06
1.83195e-05
1.58847e-06
1.86432e-05
6.71738e-07
1.8899e-05
-1.82515e-07
1.90893e-05
-9.57936e-07
1.92195e-05
-1.63388e-06
-2.18635e-06
1.92987e-05
1.81226e-06
1.73335e-05
3.47987e-06
1.78948e-05
5.00369e-06
1.68693e-05
6.44258e-06
1.58328e-05
7.79798e-06
1.47929e-05
9.05801e-06
1.37305e-05
1.02169e-05
1.26458e-05
1.12765e-05
1.1547e-05
1.2243e-05
1.04434e-05
1.31244e-05
9.34282e-06
1.39288e-05
8.25113e-06
1.4663e-05
7.17294e-06
1.53323e-05
6.11213e-06
1.59404e-05
5.07246e-06
1.64894e-05
4.05791e-06
1.698e-05
3.07303e-06
1.74122e-05
2.12321e-06
1.77856e-05
1.21508e-06
1.81001e-05
3.57231e-07
1.83565e-05
-4.39001e-07
1.85575e-05
-1.15893e-06
1.87079e-05
-1.78424e-06
-2.29384e-06
1.88154e-05
1.75277e-06
1.55811e-05
3.46122e-06
1.61866e-05
4.99727e-06
1.53334e-05
6.40647e-06
1.44236e-05
7.70707e-06
1.34924e-05
8.90306e-06
1.25345e-05
9.99707e-06
1.15517e-05
1.0994e-05
1.05499e-05
1.19009e-05
9.53642e-06
1.27259e-05
8.51783e-06
1.34768e-05
7.50014e-06
1.4161e-05
6.48875e-06
1.47842e-05
5.48889e-06
1.53507e-05
4.50587e-06
1.58633e-05
3.54524e-06
1.63235e-05
2.61288e-06
1.67316e-05
1.71507e-06
1.70879e-05
8.58749e-07
1.73929e-05
5.21855e-08
1.7648e-05
-6.94152e-07
1.78561e-05
-1.36695e-06
1.80217e-05
-1.94974e-06
-2.42378e-06
1.81517e-05
1.6569e-06
1.39245e-05
3.32779e-06
1.45159e-05
4.82741e-06
1.3834e-05
6.18575e-06
1.30654e-05
7.42426e-06
1.22539e-05
8.55389e-06
1.14048e-05
9.58217e-06
1.05233e-05
1.05164e-05
9.61562e-06
1.13645e-05
8.68831e-06
1.21347e-05
7.74766e-06
1.2835e-05
6.79981e-06
1.34728e-05
5.85094e-06
1.40542e-05
4.9075e-06
1.45837e-05
3.97631e-06
1.50644e-05
3.06453e-06
1.54978e-05
2.17943e-06
1.58846e-05
1.32826e-06
1.62252e-05
5.18125e-07
1.65206e-05
-2.43197e-07
1.67727e-05
-9.46196e-07
1.69845e-05
-1.57878e-06
1.71608e-05
-2.12597e-06
-2.5709e-06
1.7308e-05
1.53666e-06
1.2388e-05
3.11206e-06
1.29407e-05
4.53147e-06
1.24146e-05
5.81349e-06
1.17835e-05
6.97668e-06
1.10908e-05
8.03316e-06
1.03483e-05
8.99209e-06
9.56431e-06
9.8617e-06
8.74603e-06
1.06502e-05
7.89987e-06
1.13659e-05
7.03204e-06
1.20168e-05
6.14896e-06
1.26102e-05
5.25751e-06
1.31524e-05
4.3653e-06
1.3648e-05
3.48068e-06
1.41e-05
2.61255e-06
1.45096e-05
1.76981e-06
1.48771e-05
9.60791e-07
1.52026e-05
1.92548e-07
1.54875e-05
-5.28111e-07
1.57342e-05
-1.19289e-06
1.59463e-05
-1.7909e-06
1.61288e-05
-2.30836e-06
-2.72986e-06
1.62878e-05
1.39989e-06
1.09882e-05
2.8415e-06
1.14992e-05
4.14761e-06
1.11085e-05
5.33019e-06
1.0601e-05
6.4032e-06
1.00178e-05
7.37706e-06
9.37437e-06
8.26031e-06
8.68107e-06
9.06087e-06
7.94554e-06
9.78666e-06
7.17417e-06
1.04457e-05
6.37306e-06
1.10459e-05
5.5488e-06
1.15945e-05
4.70888e-06
1.20978e-05
3.86198e-06
1.25605e-05
3.01804e-06
1.29851e-05
2.18795e-06
1.33721e-05
1.38273e-06
1.37207e-05
6.1217e-07
1.40304e-05
-1.17172e-07
1.43026e-05
-8.00352e-07
1.45405e-05
-1.43079e-06
1.47484e-05
-1.99882e-06
1.49317e-05
-2.49164e-06
-2.89484e-06
1.50967e-05
1.25263e-06
9.73561e-06
2.5383e-06
1.02136e-05
3.71004e-06
9.9368e-06
4.77616e-06
9.5349e-06
5.74618e-06
9.0477e-06
6.62775e-06
8.49275e-06
7.42776e-06
7.88108e-06
8.15311e-06
7.22026e-06
8.811e-06
6.51634e-06
9.40896e-06
5.77514e-06
9.95455e-06
5.00321e-06
1.0455e-05
4.20838e-06
1.09168e-05
3.40023e-06
1.13445e-05
2.59028e-06
1.17406e-05
1.79186e-06
1.21043e-05
1.019e-06
1.24325e-05
2.83949e-07
1.27233e-05
-4.08041e-07
1.29785e-05
-1.0556e-06
1.32024e-05
-1.65464e-06
1.34003e-05
-2.19669e-06
1.35783e-05
-2.66954e-06
-3.05929e-06
1.37428e-05
1.10005e-06
8.63564e-06
2.22124e-06
9.09251e-06
3.24918e-06
8.90891e-06
4.18948e-06
8.59458e-06
5.04788e-06
8.18923e-06
5.82938e-06
7.71123e-06
6.53911e-06
7.17138e-06
7.18273e-06
6.57669e-06
7.76649e-06
5.93259e-06
8.29718e-06
5.24442e-06
8.78197e-06
4.51838e-06
9.22808e-06
3.76224e-06
9.64225e-06
2.98604e-06
1.00298e-05
2.2027e-06
1.03932e-05
1.42846e-06
1.07303e-05
6.8193e-07
1.1034e-05
-1.97192e-08
1.13001e-05
-6.74122e-07
1.15313e-05
-1.28676e-06
1.17336e-05
-1.85697e-06
1.19141e-05
-2.37711e-06
1.20795e-05
-2.83476e-06
-3.21589e-06
1.22361e-05
9.47939e-07
7.68777e-06
1.90823e-06
8.13235e-06
2.79345e-06
8.02381e-06
3.60621e-06
7.7818e-06
4.3495e-06
7.44593e-06
5.0265e-06
7.03427e-06
5.64103e-06
6.5569e-06
6.19759e-06
6.02014e-06
6.70134e-06
5.42881e-06
7.15811e-06
4.78761e-06
7.5744e-06
4.10203e-06
7.95738e-06
3.37924e-06
8.31449e-06
2.62893e-06
8.65255e-06
1.86467e-06
8.97525e-06
1.1058e-06
9.27931e-06
3.77913e-07
9.55092e-06
-2.91282e-07
9.78229e-06
-9.05433e-07
9.97882e-06
-1.48322e-06
1.01499e-05
-2.02792e-06
1.03041e-05
-2.53126e-06
1.04486e-05
-2.97923e-06
-3.35683e-06
1.05896e-05
8.05421e-07
6.88242e-06
1.6195e-06
7.3185e-06
2.37168e-06
7.27176e-06
3.06166e-06
7.09187e-06
3.69135e-06
6.81631e-06
4.26352e-06
6.46218e-06
4.78137e-06
6.03911e-06
5.24836e-06
5.55315e-06
5.66833e-06
5.00881e-06
6.04568e-06
4.4102e-06
6.38574e-06
3.76192e-06
6.69516e-06
3.06979e-06
6.98221e-06
2.34189e-06
7.25627e-06
1.59064e-06
7.52469e-06