/*--------------------------------*- C++ -*----------------------------------*\
| =========                 |                                                 |
| \\      /  F ield         | OpenFOAM: The Open Source CFD Toolbox           |
|  \\    /   O peration     | Version:  2.3.0                                 |
|   \\  /    A nd           | Web:      www.OpenFOAM.org                      |
|    \\/     M anipulation  |                                                 |
\*---------------------------------------------------------------------------*/
FoamFile
{
    version     2.0;
    format      ascii;
    class       volVectorField;
    location    "2.4";
    object      U;
}
// * * * * * * * * * * * * * * * * * * * * * * * * * * * * * * * * * * * * * //

dimensions      [0 1 -1 0 0 0 0];

internalField   nonuniform List<vector> 
2268
(
(-0.00472543 0.00163476 0)
(-0.00396271 0.000266795 0)
(-0.00372153 -0.000392914 0)
(-0.00249821 -0.000413448 0)
(-0.00185937 -0.000155426 0)
(-0.00202448 0.000142256 0)
(-0.00300498 0.000417699 0)
(-0.00475911 0.000668178 0)
(-0.00725045 0.000899323 0)
(-0.0104182 0.00109932 0)
(-0.0141498 0.00125507 0)
(-0.0183047 0.00136368 0)
(-0.0227515 0.00143626 0)
(-0.0273932 0.0014926 0)
(-0.0321528 0.00153318 0)
(-0.0369023 0.00150247 0)
(-0.0411332 0.00132078 0)
(-0.0446584 0.00172998 0)
(-0.0514464 0.00433341 0)
(-0.0605666 0.00354167 0)
(-0.0616987 -0.0020242 0)
(-0.0484473 -0.00888276 0)
(-0.0201009 -0.0113233 0)
(-0.00380596 0.00250451 0)
(-0.00218292 -4.37523e-07 0)
(-0.00153982 -0.000725619 0)
(-0.000798999 -0.00062592 0)
(-0.000593663 -0.000132789 0)
(-0.0010077 0.000445373 0)
(-0.00206887 0.00101231 0)
(-0.00377599 0.00155572 0)
(-0.0061168 0.00206682 0)
(-0.0090414 0.00251392 0)
(-0.0124529 0.00286969 0)
(-0.0162366 0.00312925 0)
(-0.0203005 0.00331653 0)
(-0.024598 0.00345817 0)
(-0.0291041 0.00353577 0)
(-0.0337611 0.00343942 0)
(-0.0383805 0.00309511 0)
(-0.0425189 0.00331955 0)
(-0.0464189 0.00531823 0)
(-0.0487477 0.00333153 0)
(-0.0463617 -0.00441905 0)
(-0.0380349 -0.0151977 0)
(-0.0185135 -0.0238209 0)
(-0.00187147 0.00341426 0)
(-0.00066347 -0.000315864 0)
(2.69622e-05 -0.00104831 0)
(0.000505041 -0.0007562 0)
(0.000510371 -3.67015e-05 0)
(1.3763e-05 0.000790765 0)
(-0.00102106 0.00161574 0)
(-0.00261794 0.00242038 0)
(-0.00478475 0.00318296 0)
(-0.00748458 0.00385229 0)
(-0.0106341 0.0043884 0)
(-0.0141374 0.00478975 0)
(-0.0179296 0.00509866 0)
(-0.0219994 0.00535715 0)
(-0.0263609 0.00553897 0)
(-0.0309969 0.00549989 0)
(-0.0358058 0.00512325 0)
(-0.0401972 0.00496841 0)
(-0.0426543 0.00568787 0)
(-0.0420471 0.00234109 0)
(-0.0378682 -0.00699337 0)
(-0.0297962 -0.0206398 0)
(-0.0128037 -0.0347472 0)
(-0.000146831 0.00363208 0)
(0.000760254 -0.000642144 0)
(0.00142434 -0.00131429 0)
(0.00176863 -0.000836951 0)
(0.00169586 8.99864e-05 0)
(0.00119949 0.0011417 0)
(0.000235791 0.002208 0)
(-0.00124028 0.00326606 0)
(-0.00325819 0.00427888 0)
(-0.00579542 0.00517298 0)
(-0.00877906 0.00589519 0)
(-0.0121255 0.00644945 0)
(-0.0157906 0.00690091 0)
(-0.0197932 0.00731083 0)
(-0.0241814 0.00764638 0)
(-0.0289586 0.00771971 0)
(-0.0340081 0.00732363 0)
(-0.0387029 0.00666313 0)
(-0.0409995 0.00578923 0)
(-0.0395904 0.000871489 0)
(-0.0340654 -0.0103753 0)
(-0.0242041 -0.0267156 0)
(-0.00649025 -0.0430051 0)
(0.00111259 0.00314852 0)
(0.0020549 -0.000995751 0)
(0.00273905 -0.00154601 0)
(0.00306563 -0.00089139 0)
(0.00300826 0.000220254 0)
(0.00257539 0.00147094 0)
(0.00171547 0.00276065 0)
(0.000360652 0.00406501 0)
(-0.00154302 0.00532987 0)
(-0.00398874 0.00645547 0)
(-0.00691158 0.00737396 0)
(-0.0102358 0.00809699 0)
(-0.0139339 0.00871782 0)
(-0.018053 0.00932091 0)
(-0.022674 0.00986523 0)
(-0.027815 0.0101078 0)
(-0.0333259 0.00971585 0)
(-0.0385959 0.00852591 0)
(-0.0417054 0.00602931 0)
(-0.0409936 -0.000843152 0)
(-0.0351575 -0.0146504 0)
(-0.0232342 -0.034003 0)
(-0.00265827 -0.0480158 0)
(0.001995 0.00213761 0)
(0.00318512 -0.001437 0)
(0.00397657 -0.00178975 0)
(0.00438945 -0.000962386 0)
(0.00442867 0.000316975 0)
(0.00411342 0.00175089 0)
(0.0033821 0.0032554 0)
(0.00214171 0.00480951 0)
(0.000310093 0.00633999 0)
(-0.00212399 0.00771578 0)
(-0.00510237 0.00885198 0)
(-0.00855482 0.00976991 0)
(-0.0124683 0.010597 0)
(-0.016918 0.0114455 0)
(-0.0220186 0.012264 0)
(-0.0278082 0.0127444 0)
(-0.0341292 0.0124154 0)
(-0.0404308 0.0107859 0)
(-0.0451264 0.00687675 0)
(-0.0464051 -0.00216819 0)
(-0.0420634 -0.0192454 0)
(-0.0295679 -0.0430394 0)
(-0.00570852 -0.054401 0)
(0.00262208 0.000757172 0)
(0.00412928 -0.00202465 0)
(0.00510409 -0.00210124 0)
(0.00568442 -0.00109581 0)
(0.00588553 0.000347249 0)
(0.00572866 0.00196245 0)
(0.005139 0.00368922 0)
(0.00399567 0.00551471 0)
(0.00218383 0.00734498 0)
(-0.000328612 0.00901165 0)
(-0.00349189 0.0104093 0)
(-0.00724217 0.0115699 0)
(-0.0115802 0.0126611 0)
(-0.0166083 0.0138283 0)
(-0.0224756 0.0150099 0)
(-0.0292505 0.0158281 0)
(-0.0368096 0.0156836 0)
(-0.0447261 0.0138219 0)
(-0.0518187 0.00887218 0)
(-0.0564635 -0.00217333 0)
(-0.0559408 -0.022774 0)
(-0.0463643 -0.0530977 0)
(-0.0279048 -0.0732355 0)
(0.00307531 -0.00084811 0)
(0.00485429 -0.00278945 0)
(0.00604561 -0.00252722 0)
(0.00684534 -0.00133181 0)
(0.00725061 0.000285665 0)
(0.00727203 0.0021022 0)
(0.00681902 0.00408309 0)
(0.00574161 0.00622908 0)
(0.00388925 0.0084252 0)
(0.00120436 0.0104603 0)
(-0.00227817 0.0122057 0)
(-0.00650738 0.0136996 0)
(-0.0114959 0.0151515 0)
(-0.0173653 0.0167455 0)
(-0.0242945 0.0184153 0)
(-0.0323946 0.0197251 0)
(-0.0416218 0.0199753 0)
(-0.0517474 0.018233 0)
(-0.0620756 0.0128214 0)
(-0.0714381 0.000515572 0)
(-0.0772471 -0.0225433 0)
(-0.0776622 -0.05921 0)
(-0.0881045 -0.0979289 0)
(-0.0253663 0.00982573 0)
(-0.0442028 0.00428016 0)
(-0.0369208 -0.00579962 0)
(-0.0145706 -0.00933189 0)
(0.0127597 -0.0106445 0)
(0.0435304 -0.0116619 0)
(0.0726564 -0.0105653 0)
(0.0905474 -0.00200575 0)
(0.0747104 0.0120956 0)
(0.0219236 0.0141537 0)
(-0.0151916 0.00612255 0)
(-0.0198713 0.00208668 0)
(-0.0366058 0.0120242 0)
(-0.0933747 0.016522 0)
(-0.143751 0.0072177 0)
(-0.149619 -0.00541371 0)
(-0.115307 -0.0169957 0)
(-0.061485 -0.0215222 0)
(-0.0135965 -0.00877312 0)
(-0.034917 0.0210799 0)
(-0.0377744 0.00477119 0)
(-0.0308765 -0.008798 0)
(-0.0182444 -0.0154194 0)
(0.000837668 -0.0185646 0)
(0.0231552 -0.0194739 0)
(0.0422605 -0.0149437 0)
(0.0495398 0.000284336 0)
(0.04243 0.0235784 0)
(0.00762522 0.027077 0)
(-0.0241457 0.013388 0)
(-0.0354472 0.00738304 0)
(-0.0525724 0.023864 0)
(-0.0893711 0.0314741 0)
(-0.11557 0.0172005 0)
(-0.116711 -0.00456678 0)
(-0.0974658 -0.0269022 0)
(-0.0622242 -0.0369176 0)
(-0.0250209 -0.0220762 0)
(-0.032554 0.0334933 0)
(-0.0317772 0.00439611 0)
(-0.0290752 -0.0111474 0)
(-0.0221775 -0.0201723 0)
(-0.00867145 -0.0252122 0)
(0.00771857 -0.0260183 0)
(0.0205896 -0.0183128 0)
(0.0212316 0.00167999 0)
(0.0122687 0.0297492 0)
(-0.00768603 0.0369607 0)
(-0.0300142 0.0211781 0)
(-0.0430834 0.0131703 0)
(-0.0542611 0.0315129 0)
(-0.0702741 0.0382817 0)
(-0.0822442 0.0214479 0)
(-0.084228 -0.00610262 0)
(-0.0725602 -0.0353592 0)
(-0.0523355 -0.0495959 0)
(-0.0260626 -0.0403269 0)
(-0.0271225 0.0455002 0)
(-0.029537 0.00538581 0)
(-0.0306139 -0.0120398 0)
(-0.0277744 -0.0236253 0)
(-0.0185749 -0.030587 0)
(-0.00659936 -0.0313055 0)
(0.00234161 -0.0202462 0)
(-0.00089475 0.00495287 0)
(-0.0112819 0.034571 0)
(-0.0227787 0.0435334 0)
(-0.0360821 0.0276683 0)
(-0.0467302 0.017805 0)
(-0.0517701 0.0348856 0)
(-0.0543998 0.0405645 0)
(-0.0560068 0.0234048 0)
(-0.0538371 -0.00778745 0)
(-0.0463541 -0.0401747 0)
(-0.0377943 -0.0571404 0)
(-0.0219706 -0.0555105 0)
(-0.0226261 0.056167 0)
(-0.0313352 0.00823161 0)
(-0.0349634 -0.0115178 0)
(-0.0350651 -0.0256017 0)
(-0.0292113 -0.0344463 0)
(-0.0204992 -0.0352498 0)
(-0.0138666 -0.0210348 0)
(-0.0190608 0.00904588 0)
(-0.0301201 0.0384165 0)
(-0.036304 0.0469994 0)
(-0.041617 0.0315188 0)
(-0.0476731 0.0208225 0)
(-0.0474887 0.0343979 0)
(-0.0405713 0.0390758 0)
(-0.0331774 0.0222304 0)
(-0.0265411 -0.0101084 0)
(-0.0214469 -0.041916 0)
(-0.0208864 -0.0599452 0)
(-0.0151217 -0.0664251 0)
(-0.0215728 0.0673119 0)
(-0.0378658 0.0130703 0)
(-0.0419762 -0.00997934 0)
(-0.043789 -0.0264064 0)
(-0.040473 -0.0370058 0)
(-0.034243 -0.038238 0)
(-0.0285219 -0.021337 0)
(-0.0337613 0.0133855 0)
(-0.0441533 0.0413148 0)
(-0.0461185 0.0478211 0)
(-0.0447436 0.0324645 0)
(-0.045354 0.0217923 0)
(-0.0407662 0.0309771 0)
(-0.0272149 0.0341157 0)
(-0.0123672 0.0178943 0)
(-0.00221307 -0.012805 0)
(0.00160983 -0.0420605 0)
(-0.00272591 -0.0591737 0)
(-0.00556789 -0.0721512 0)
(-0.0259716 0.0829377 0)
(-0.0494521 0.0191873 0)
(-0.0515089 -0.00821644 0)
(-0.0535401 -0.0265277 0)
(-0.0520394 -0.03857 0)
(-0.0479831 -0.0406256 0)
(-0.0423323 -0.0219687 0)
(-0.0453848 0.0171933 0)
(-0.0530582 0.043072 0)
(-0.0510082 0.0464945 0)
(-0.0441517 0.0309261 0)
(-0.039071 0.0204348 0)
(-0.0304449 0.0258634 0)
(-0.0131091 0.0267181 0)
(0.00650236 0.0112609 0)
(0.019706 -0.0158369 0)
(0.0232082 -0.041431 0)
(0.0157088 -0.0558188 0)
(0.00620981 -0.0710847 0)
(-0.050332 0.105578 0)
(-0.0650369 0.0230934 0)
(-0.0632605 -0.00741343 0)
(-0.0638122 -0.026554 0)
(-0.0635256 -0.0393554 0)
(-0.0616981 -0.0423971 0)
(-0.0565495 -0.0235342 0)
(-0.0551779 0.0195673 0)
(-0.0572304 0.0432597 0)
(-0.050494 0.0436071 0)
(-0.0391851 0.0272802 0)
(-0.0288456 0.0168911 0)
(-0.0165698 0.0195613 0)
(0.00282918 0.0181231 0)
(0.0250023 0.00339641 0)
(0.0405232 -0.0193738 0)
(0.0438061 -0.040046 0)
(0.0332145 -0.0499735 0)
(0.0183941 -0.0629258 0)
(0.00343884 -0.00432793 0)
(0.0054093 -0.00436967 0)
(0.00701093 -0.0034494 0)
(0.00821027 -0.00191963 0)
(0.0089689 5.32898e-06 0)
(0.00926693 0.00219594 0)
(0.00899431 0.00464157 0)
(0.00796948 0.00737655 0)
(0.00598891 0.0102613 0)
(0.00294436 0.0130154 0)
(-0.00117351 0.0154745 0)
(-0.00635705 0.0176704 0)
(-0.0126275 0.0198669 0)
(-0.0201001 0.0223173 0)
(-0.0289787 0.0249794 0)
(-0.0394603 0.0273712 0)
(-0.0516989 0.0287159 0)
(-0.0658883 0.0279823 0)
(-0.0821861 0.0232459 0)
(-0.100309 0.0110976 0)
(-0.118964 -0.0125046 0)
(-0.143116 -0.0479447 0)
(-0.195667 -0.0718513 0)
(0.00277775 -0.00585323 0)
(0.00436617 -0.00575745 0)
(0.00625154 -0.00447055 0)
(0.00795012 -0.00267616 0)
(0.00919876 -0.000509371 0)
(0.00978764 0.00202069 0)
(0.00960343 0.00489735 0)
(0.00858282 0.00822438 0)
(0.00649355 0.0118374 0)
(0.00309764 0.0153409 0)
(-0.00182547 0.0185553 0)
(-0.00850469 0.0215217 0)
(-0.0168362 0.0246349 0)
(-0.0265637 0.0282327 0)
(-0.0377416 0.0323219 0)
(-0.050787 0.0364575 0)
(-0.0663562 0.0400151 0)
(-0.0852931 0.0423229 0)
(-0.108899 0.041731 0)
(-0.137617 0.0350683 0)
(-0.168829 0.0169197 0)
(-0.19922 -0.0144672 0)
(-0.222792 -0.0419169 0)
(-0.00402301 -0.0115175 0)
(-0.00143846 -0.00889579 0)
(0.00159527 -0.00653881 0)
(0.00456765 -0.00415977 0)
(0.00669855 -0.0015065 0)
(0.00711284 0.001758 0)
(0.00584333 0.00528214 0)
(0.00400787 0.00952626 0)
(0.001691 0.0144042 0)
(-0.00212141 0.0190252 0)
(-0.00853542 0.0235344 0)
(-0.0187447 0.0279708 0)
(-0.031668 0.0323861 0)
(-0.0450191 0.037355 0)
(-0.0579005 0.0431128 0)
(-0.0712662 0.0495071 0)
(-0.0871643 0.0556857 0)
(-0.106811 0.0617647 0)
(-0.133427 0.0651558 0)
(-0.168523 0.0593597 0)
(-0.203841 0.036249 0)
(-0.225323 -0.00156604 0)
(-0.229011 -0.0349689 0)
(-0.0422955 0.00695692 0)
(-0.0286557 -0.0163522 0)
(-0.0183354 -0.0109874 0)
(-0.0114705 -0.00786303 0)
(-0.00561311 -0.00534216 0)
(-0.00700823 0.0036171 0)
(-0.0196223 0.0102473 0)
(-0.0322389 0.0135301 0)
(-0.036647 0.0195699 0)
(-0.0427844 0.0265851 0)
(-0.0577506 0.0369687 0)
(-0.0879604 0.0505214 0)
(-0.126094 0.0586364 0)
(-0.153156 0.0650341 0)
(-0.163354 0.0635466 0)
(-0.148634 0.0695954 0)
(-0.13301 0.0767803 0)
(-0.121797 0.0889529 0)
(-0.125289 0.097874 0)
(-0.153765 0.093747 0)
(-0.199429 0.0596793 0)
(-0.22437 0.00132186 0)
(-0.227267 -0.0479504 0)
(-0.0715702 0.056735 0)
(-0.073928 -0.0297529 0)
(-0.0892982 -0.0243406 0)
(-0.0983225 -0.0174083 0)
(-0.100838 -0.00799181 0)
(-0.109665 0.0263394 0)
(-0.132918 0.0312151 0)
(-0.14424 0.0211225 0)
(-0.158338 0.0295328 0)
(-0.175713 0.0457734 0)
(-0.202512 0.0791225 0)
(-0.257608 0.122254 0)
(-0.316773 0.109494 0)
(-0.330836 0.0667591 0)
(-0.313103 0.0403291 0)
(-0.293905 0.0384913 0)
(-0.261955 0.044026 0)
(-0.218133 0.0663536 0)
(-0.172289 0.102989 0)
(-0.139842 0.167598 0)
(-0.142748 0.140314 0)
(-0.164713 0.0270435 0)
(-0.190452 -0.0520629 0)
(0.00569918 0.121325 0)
(-0.0287985 0.00865055 0)
(-0.103766 0.0108824 0)
(-0.139048 -0.00145508 0)
(-0.152936 -0.00372928 0)
(-0.159975 0.0289252 0)
(-0.166716 0.0461458 0)
(-0.186437 0.0426101 0)
(-0.221075 0.0469358 0)
(-0.246607 0.0626911 0)
(-0.274415 0.105222 0)
(-0.321711 0.159165 0)
(-0.33752 0.117389 0)
(-0.340799 0.0672407 0)
(-0.346426 0.0338271 0)
(-0.350583 0.0163812 0)
(-0.336609 0.00244943 0)
(-0.307292 0.00604627 0)
(-0.271398 0.041949 0)
(-0.226302 0.11232 0)
(-0.178028 0.121003 0)
(-0.187846 0.072002 0)
(-0.234813 -0.00399368 0)
(0.00128044 0.122905 0)
(-0.0340342 0.0779847 0)
(-0.0870962 0.0756685 0)
(-0.127249 0.0376751 0)
(-0.165892 0.0138671 0)
(-0.190383 0.0371483 0)
(-0.209507 0.0610552 0)
(-0.246418 0.0815872 0)
(-0.279908 0.0820185 0)
(-0.293884 0.087032 0)
(-0.307124 0.139656 0)
(-0.304254 0.190424 0)
(-0.299845 0.125822 0)
(-0.308837 0.0735404 0)
(-0.344736 0.0460379 0)
(-0.369374 0.0157473 0)
(-0.374639 -0.00927142 0)
(-0.368842 -0.0161129 0)
(-0.350697 0.001136 0)
(-0.302852 0.0372993 0)
(-0.237243 0.0703703 0)
(-0.216746 0.0873038 0)
(-0.234521 0.0338486 0)
(-0.0160869 0.135499 0)
(-0.042896 0.122087 0)
(-0.0740349 0.109052 0)
(-0.106723 0.0838022 0)
(-0.150864 0.0626687 0)
(-0.198093 0.0715101 0)
(-0.23976 0.100107 0)
(-0.276287 0.120059 0)
(-0.287507 0.097219 0)
(-0.285392 0.0942204 0)
(-0.27362 0.129205 0)
(-0.244856 0.165352 0)
(-0.229075 0.133056 0)
(-0.251648 0.0998954 0)
(-0.29792 0.0922645 0)
(-0.347623 0.0418711 0)
(-0.374478 -0.00199028 0)
(-0.3797 -0.025564 0)
(-0.364381 -0.0297644 0)
(-0.328953 -0.0159527 0)
(-0.28401 0.0159628 0)
(-0.232622 0.0522734 0)
(-0.208066 0.0134831 0)
(-0.0166502 0.163074 0)
(-0.0388846 0.147397 0)
(-0.0625009 0.133235 0)
(-0.0906755 0.117539 0)
(-0.128692 0.110023 0)
(-0.170523 0.119944 0)
(-0.207775 0.138933 0)
(-0.233961 0.13701 0)
(-0.244362 0.0981597 0)
(-0.249172 0.085397 0)
(-0.239194 0.101768 0)
(-0.213504 0.123353 0)
(-0.186725 0.13462 0)
(-0.190532 0.145555 0)
(-0.219471 0.145204 0)
(-0.254515 0.106038 0)
(-0.29976 0.0325638 0)
(-0.33635 -0.0168621 0)
(-0.32984 -0.039846 0)
(-0.313844 -0.0380575 0)
(-0.284573 -0.0159318 0)
(-0.245689 0.0103659 0)
(-0.198479 0.00984078 0)
(-0.0119348 0.18769 0)
(-0.0294441 0.169152 0)
(-0.048495 0.155997 0)
(-0.0711449 0.146388 0)
(-0.0990373 0.144499 0)
(-0.127395 0.152832 0)
(-0.14928 0.163056 0)
(-0.165202 0.15205 0)
(-0.18326 0.110263 0)
(-0.198722 0.0898112 0)
(-0.201966 0.0902118 0)
(-0.190057 0.100121 0)
(-0.171389 0.116037 0)
(-0.159223 0.144905 0)
(-0.161892 0.157604 0)
(-0.173084 0.128237 0)
(-0.186812 0.0708201 0)
(-0.205274 0.00903138 0)
(-0.253181 -0.0479631 0)
(-0.277819 -0.0513362 0)
(-0.268385 -0.0387312 0)
(-0.235694 -0.0275004 0)
(-0.17698 -0.0397564 0)
(-0.00599535 0.20331 0)
(-0.0181387 0.186259 0)
(-0.0324393 0.174463 0)
(-0.048684 0.167706 0)
(-0.0665849 0.16714 0)
(-0.0825361 0.172026 0)
(-0.0925279 0.175546 0)
(-0.0986896 0.163593 0)
(-0.111724 0.13061 0)
(-0.134103 0.104374 0)
(-0.150867 0.0946998 0)
(-0.15336 0.0939232 0)
(-0.147871 0.104822 0)
(-0.136217 0.131662 0)
(-0.123976 0.150479 0)
(-0.111475 0.125033 0)
(-0.103132 0.0745517 0)
(-0.0993809 0.0303285 0)
(-0.107261 -0.00588773 0)
(-0.130899 -0.0358912 0)
(-0.155684 -0.0658455 0)
(-0.155283 -0.0816661 0)
(-0.133906 -0.102124 0)
(-0.00101795 0.210481 0)
(-0.00783195 0.197454 0)
(-0.017093 0.187106 0)
(-0.0271452 0.181161 0)
(-0.037009 0.179567 0)
(-0.0443857 0.180652 0)
(-0.0474548 0.179738 0)
(-0.048362 0.169339 0)
(-0.0541449 0.147447 0)
(-0.0669125 0.124961 0)
(-0.0819233 0.107132 0)
(-0.0959968 0.097156 0)
(-0.103514 0.101732 0)
(-0.0986106 0.121082 0)
(-0.0815962 0.134718 0)
(-0.0616473 0.107349 0)
(-0.0471029 0.0618581 0)
(-0.0389661 0.0257959 0)
(-0.037786 0.00389372 0)
(-0.0462226 -0.00870438 0)
(-0.0621032 -0.0382477 0)
(-0.0714273 -0.0715942 0)
(-0.0739831 -0.0998157 0)
(0.00198433 0.211362 0)
(-0.000173883 0.203176 0)
(-0.00468894 0.194137 0)
(-0.00945796 0.188135 0)
(-0.013494 0.184934 0)
(-0.0153882 0.182975 0)
(-0.0144577 0.179207 0)
(-0.0123025 0.169677 0)
(-0.0130488 0.153472 0)
(-0.0184922 0.135832 0)
(-0.0265304 0.120374 0)
(-0.0351999 0.108858 0)
(-0.0426999 0.104701 0)
(-0.0423023 0.111787 0)
(-0.0283381 0.116574 0)
(-0.0121356 0.0912462 0)
(-0.00209847 0.0518323 0)
(0.00217964 0.0209146 0)
(0.00117615 0.004349 0)
(-0.00180852 -0.000852942 0)
(-0.00804291 -0.0255277 0)
(-0.0166308 -0.0584152 0)
(-0.0261206 -0.0877008 0)
(0.00310617 0.208332 0)
(0.00449731 0.204503 0)
(0.00394596 0.196498 0)
(0.00330414 0.190251 0)
(0.0033649 0.18567 0)
(0.00500461 0.181609 0)
(0.00843807 0.176114 0)
(0.012546 0.167061 0)
(0.0149831 0.154027 0)
(0.0144809 0.13954 0)
(0.0118001 0.125979 0)
(0.00824141 0.115017 0)
(0.0057507 0.108107 0)
(0.00818237 0.105682 0)
(0.0189517 0.100857 0)
(0.0313729 0.079237 0)
(0.036724 0.0462506 0)
(0.0350847 0.0197472 0)
(0.0308258 0.00689705 0)
(0.0292214 5.13586e-05 0)
(0.0275926 -0.0205176 0)
(0.0211568 -0.048973 0)
(0.0102765 -0.0753149 0)
(0.00302391 0.203696 0)
(0.00670521 0.202486 0)
(0.00908926 0.195289 0)
(0.0114457 0.188845 0)
(0.0143443 0.183277 0)
(0.0183004 0.17786 0)
(0.023354 0.171387 0)
(0.0287769 0.162661 0)
(0.0332329 0.151438 0)
(0.0358676 0.138968 0)
(0.0369151 0.126732 0)
(0.037243 0.115869 0)
(0.0382497 0.107123 0)
(0.0421929 0.0999081 0)
(0.0505408 0.0901978 0)
(0.0596367 0.0715632 0)
(0.0634009 0.0462182 0)
(0.0606422 0.0242189 0)
(0.0562822 0.0110752 0)
(0.054477 1.77236e-05 0)
(0.0532463 -0.0177262 0)
(0.0479628 -0.0408289 0)
(0.0374397 -0.0633401 0)
(0.00243102 0.198741 0)
(0.00732557 0.198386 0)
(0.0116077 0.191629 0)
(0.015975 0.185018 0)
(0.0207543 0.178791 0)
(0.0262146 0.172528 0)
(0.0323295 0.165499 0)
(0.0386299 0.157014 0)
(0.0443428 0.146901 0)
(0.0489242 0.135758 0)
(0.0524095 0.124444 0)
(0.055305 0.113672 0)
(0.0585013 0.103757 0)
(0.0631507 0.0940994 0)
(0.0697364 0.0825124 0)
(0.076147 0.066246 0)
(0.078974 0.046546 0)
(0.0775061 0.0282859 0)
(0.07455 0.0141528 0)
(0.0727293 0.00121176 0)
(0.0710182 -0.0147879 0)
(0.0664981 -0.0335624 0)
(0.0573396 -0.0519815 0)
(0.00178668 0.194093 0)
(0.00719581 0.193215 0)
(0.0125425 0.186467 0)
(0.0181346 0.179655 0)
(0.0240635 0.172982 0)
(0.0304299 0.166198 0)
(0.0371848 0.158852 0)
(0.0440294 0.150532 0)
(0.0505011 0.141114 0)
(0.0562452 0.130875 0)
(0.0612223 0.120274 0)
(0.0656957 0.109707 0)
(0.0701501 0.099304 0)
(0.0751105 0.0886518 0)
(0.0806343 0.076642 0)
(0.0855371 0.0621306 0)
(0.0880479 0.0458453 0)
(0.0877919 0.0300923 0)
(0.086219 0.0161783 0)
(0.0847066 0.00288121 0)
(0.0827331 -0.0117186 0)
(0.0786133 -0.0273832 0)
(0.0711702 -0.0420323 0)
(0.00136374 0.189859 0)
(0.00698223 0.187601 0)
(0.0128516 0.180484 0)
(0.0191045 0.173419 0)
(0.0256356 0.166436 0)
(0.0324496 0.15933 0)
(0.039501 0.151801 0)
(0.0466037 0.143592 0)
(0.0534722 0.134613 0)
(0.0598637 0.124987 0)
(0.0657016 0.114951 0)
(0.071087 0.104709 0)
(0.0762401 0.0943054 0)
(0.081361 0.083496 0)
(0.0863606 0.0717515 0)
(0.0905723 0.0586186 0)
(0.0931077 0.0445109 0)
(0.0937662 0.0305419 0)
(0.0932309 0.0173613 0)
(0.0921513 0.00450465 0)
(0.0902415 -0.00877033 0)
(0.0865697 -0.0221044 0)
(0.0804268 -0.03397 0)
(0.00133995 0.185774 0)
(0.00715892 0.181814 0)
(0.0132798 0.174089 0)
(0.0198318 0.166773 0)
(0.0265667 0.159586 0)
(0.0334729 0.152277 0)
(0.0405399 0.144629 0)
(0.0476623 0.136483 0)
(0.054656 0.127781 0)
(0.061342 0.118578 0)
(0.067623 0.108992 0)
(0.0734999 0.0991264 0)
(0.0790342 0.0889907 0)
(0.0842613 0.0784531 0)
(0.0890584 0.0672684 0)
(0.0930419 0.0552728 0)
(0.0957561 0.0427052 0)
(0.0970802 0.0301157 0)
(0.0973033 0.0178573 0)
(0.096696 0.00581679 0)
(0.0950905 -0.00617834 0)
(0.0919867 -0.0176911 0)
(0.0870463 -0.0275768 0)
(0.00180877 0.181343 0)
(0.00799055 0.17586 0)
(0.0143051 0.167485 0)
(0.0209443 0.160032 0)
(0.0275949 0.152752 0)
(0.0343254 0.145311 0)
(0.0411936 0.137557 0)
(0.0481546 0.129417 0)
(0.0550801 0.120873 0)
(0.0618238 0.111957 0)
(0.0682743 0.102733 0)
(0.0743727 0.0932465 0)
(0.0800924 0.0834965 0)
(0.0853902 0.0734126 0)
(0.0901428 0.0628856 0)
(0.0941142 0.0518651 0)
(0.0970534 0.0404931 0)
(0.0988723 0.0290573 0)
(0.0996701 0.0177759 0)
(0.0995373 0.00669857 0)
(0.0983724 -0.00408929 0)
(0.0959241 -0.014141 0)
(0.0920845 -0.0226011 0)
(0.00267691 0.176035 0)
(0.009483 0.169509 0)
(0.0160974 0.160731 0)
(0.0227047 0.153419 0)
(0.02906 0.14618 0)
(0.0354326 0.138633 0)
(0.0419721 0.130743 0)
(0.0486674 0.122538 0)
(0.0554109 0.114053 0)
(0.0620671 0.105322 0)
(0.0685143 0.0963815 0)
(0.0746598 0.087251 0)
(0.0804316 0.0779204 0)
(0.0857519 0.0683486 0)
(0.0905062 0.0584857 0)
(0.0945346 0.0483223 0)
(0.097681 0.0379466 0)
(0.0998704 0.0275228 0)
(0.101115 0.0172062 0)
(0.101427 0.00711397 0)
(0.100746 -0.00256744 0)
(0.098957 -0.0114232 0)
(0.0960756 -0.0188071 0)
(0.00366987 0.169587 0)
(0.0113502 0.162337 0)
(0.0184259 0.153771 0)
(0.0249381 0.147105 0)
(0.0308767 0.140041 0)
(0.0368357 0.132354 0)
(0.0430385 0.124257 0)
(0.0494646 0.115912 0)
(0.0559976 0.107407 0)
(0.0625002 0.0987876 0)
(0.0688452 0.0900733 0)
(0.0749259 0.0812651 0)
(0.080652 0.0723458 0)
(0.0859348 0.0632847 0)
(0.0906716 0.0540542 0)
(0.0947437 0.0446556 0)
(0.098041 0.0351457 0)
(0.100495 0.0256289 0)
(0.102082 0.0162272 0)
(0.102783 0.00707833 0)
(0.102564 -0.00160593 0)
(0.101381 -0.00946019 0)
(0.0993058 -0.0159837 0)
(0.00506653 0.161583 0)
(0.0130323 0.154372 0)
(0.0203379 0.146475 0)
(0.0268577 0.141102 0)
(0.0325301 0.134316 0)
(0.038259 0.126409 0)
(0.0442956 0.118034 0)
(0.0505689 0.109503 0)
(0.0569455 0.100945 0)
(0.0632921 0.0924044 0)
(0.0694896 0.0838865 0)
(0.0754356 0.0753763 0)
(0.0810413 0.0668484 0)
(0.0862223 0.0582733 0)
(0.0908905 0.0496293 0)
(0.0949532 0.0409175 0)
(0.0983261 0.0321753 0)
(0.100948 0.0234757 0)
(0.10278 0.0149195 0)
(0.103798 0.00664264 0)
(0.103981 -0.00115092 0)
(0.103322 -0.00814813 0)
(0.101911 -0.013951 0)
(0.0058816 0.15228 0)
(0.0135221 0.146355 0)
(0.0205914 0.139047 0)
(0.0272678 0.13506 0)
(0.0333189 0.128592 0)
(0.0393479 0.120459 0)
(0.0455622 0.111844 0)
(0.0518851 0.103178 0)
(0.0582084 0.094609 0)
(0.064432 0.0861731 0)
(0.0704667 0.077861 0)
(0.0762334 0.0696459 0)
(0.0816604 0.0614953 0)
(0.0866785 0.0533784 0)
(0.091217 0.0452741 0)
(0.0952043 0.0371808 0)
(0.0985739 0.029124 0)
(0.101273 0.0211584 0)
(0.103262 0.0133693 0)
(0.104517 0.00588109 0)
(0.105027 -0.00112251 0)
(0.1048 -0.00737642 0)
(0.103929 -0.0125578 0)
(0.00518222 0.143418 0)
(0.0126883 0.138542 0)
(0.0194482 0.131986 0)
(0.0263177 0.128472 0)
(0.0332852 0.122192 0)
(0.0401109 0.114028 0)
(0.0467976 0.105396 0)
(0.0533297 0.096777 0)
(0.0596761 0.0883265 0)
(0.0657997 0.0800786 0)
(0.0716595 0.0720196 0)
(0.0772125 0.064119 0)
(0.0824137 0.0563429 0)
(0.0872157 0.0486614 0)
(0.0915677 0.0410549 0)
(0.0954168 0.0335199 0)
(0.0987124 0.0260753 0)
(0.101411 0.0187647 0)
(0.103479 0.0116612 0)
(0.104894 0.00487518 0)
(0.105655 -0.00143285 0)
(0.105771 -0.0070399 0)
(0.105334 -0.0116791 0)
(0.00492179 0.135451 0)
(0.0118853 0.13116 0)
(0.0182909 0.12526 0)
(0.0255447 0.121107 0)
(0.0333858 0.11479 0)
(0.040982 0.106897 0)
(0.0481242 0.098564 0)
(0.0548516 0.090236 0)
(0.0612049 0.0820753 0)
(0.0672068 0.0741271 0)
(0.0728638 0.0663874 0)
(0.0781692 0.0588331 0)
(0.0831066 0.0514365 0)
(0.0876513 0.0441732 0)
(0.0917723 0.0370273 0)
(0.0954341 0.029997 0)
(0.0986007 0.0230979 0)
(0.101239 0.0163675 0)
(0.103322 0.00986933 0)
(0.104833 0.00370021 0)
(0.105774 -0.00200101 0)
(0.106155 -0.00704634 0)
(0.106063 -0.0112126 0)
(0.00584517 0.12725 0)
(0.0122611 0.124513 0)
(0.0185865 0.118394 0)
(0.0262275 0.113152 0)
(0.0344116 0.106739 0)
(0.0422833 0.0993063 0)
(0.0495851 0.0914943 0)
(0.0563358 0.0836446 0)
(0.0625942 0.0759137 0)
(0.0684116 0.0683614 0)
(0.0738234 0.0610003 0)
(0.0788494 0.0538219 0)
(0.0834957 0.0468098 0)
(0.0877571 0.0399488 0)
(0.09162 0.0332301 0)
(0.0950641 0.0266555 0)
(0.0980662 0.020241 0)
(0.100603 0.0140208 0)
(0.102655 0.00805152 0)
(0.104211 0.0024183 0)
(0.105276 -0.00275861 0)
(0.105858 -0.00731934 0)
(0.106037 -0.0110759 0)
(0.00653885 0.118027 0)
(0.01338 0.117706 0)
(0.0202686 0.11107 0)
(0.0280693 0.105067 0)
(0.0360976 0.0986545 0)
(0.0438004 0.0917015 0)
(0.0509524 0.0844687 0)
(0.0575308 0.0771731 0)
(0.0635759 0.0699429 0)
(0.0691392 0.0628419 0)
(0.0742664 0.0558959 0)
(0.078991 0.0491104 0)
(0.0833335 0.0424818 0)
(0.0873034 0.0360059 0)
(0.0909002 0.0296823 0)
(0.0941159 0.0235184 0)
(0.0969379 0.0175328 0)
(0.0993517 0.0117585 0)
(0.101345 0.00624743 0)
(0.10291 0.00107558 0)
(0.104056 -0.00365195 0)
(0.10479 -0.00779842 0)
(0.105179 -0.0112033 0)
(0.00666653 0.108229 0)
(0.0143427 0.109908 0)
(0.0219606 0.103306 0)
(0.0298289 0.0971126 0)
(0.037602 0.0908667 0)
(0.0449798 0.0843721 0)
(0.0518247 0.0776987 0)
(0.0581105 0.0709607 0)
(0.0638628 0.0642477 0)
(0.0691266 0.0576164 0)
(0.0739479 0.051098 0)
(0.0783656 0.044708 0)
(0.0824085 0.0384543 0)
(0.0860953 0.0323433 0)
(0.089435 0.0263835 0)
(0.0924287 0.020589 0)
(0.0950719 0.0149819 0)
(0.0973571 0.00959592 0)
(0.0992779 0.0044799 0)
(0.100832 -0.000297184 0)
(0.102029 -0.0046424 0)
(0.102875 -0.00843714 0)
(0.103429 -0.0115429 0)
(0.00645019 0.0983479 0)
(0.0147161 0.101148 0)
(0.0228766 0.0951714 0)
(0.0307826 0.0892787 0)
(0.0383168 0.0834007 0)
(0.0453553 0.0773955 0)
(0.0518504 0.0712675 0)
(0.0577989 0.0650726 0)
(0.0632268 0.0588698 0)
(0.0681757 0.0527047 0)
(0.0726902 0.0466096 0)
(0.0768112 0.0406065 0)
(0.0805718 0.0347128 0)
(0.0839963 0.0289441 0)
(0.0870998 0.0233179 0)
(0.0898896 0.0178551 0)
(0.0923668 0.0125825 0)
(0.0945294 0.00753489 0)
(0.0963753 0.00275941 0)
(0.0979059 -0.00168045 0)
(0.0991325 -0.00570156 0)
(0.100062 -0.00919942 0)
(0.100746 -0.0120532 0)
(0.00609835 0.0886728 0)
(0.0145025 0.0919229 0)
(0.0228712 0.0868476 0)
(0.0307079 0.0815667 0)
(0.0379943 0.0762266 0)
(0.0447007 0.0707667 0)
(0.0508438 0.0651877 0)
(0.0564482 0.0595237 0)
(0.0615479 0.0538164 0)
(0.0661851 0.0481039 0)
(0.0704043 0.0424182 0)
(0.0742471 0.0367862 0)
(0.077749 0.0312328 0)
(0.0809372 0.0257825 0)
(0.0838307 0.0204611 0)
(0.0864401 0.0152967 0)
(0.0887699 0.0103206 0)
(0.0908211 0.0055696 0)
(0.092595 0.0010892 0)
(0.0940961 -0.00306178 0)
(0.0953375 -0.00680811 0)
(0.0963282 -0.0100565 0)
(0.0971102 -0.0127001 0)
(0.00571591 0.0794345 0)
(0.0138496 0.0827165 0)
(0.0220765 0.0785934 0)
(0.0296773 0.0740644 0)
(0.0366523 0.0693594 0)
(0.0430067 0.0644843 0)
(0.0487913 0.0594579 0)
(0.0540492 0.0543119 0)
(0.0588223 0.049082 0)
(0.0631546 0.0438027 0)
(0.0670908 0.0385064 0)
(0.0706729 0.0332246 0)
(0.0739376 0.0279887 0)
(0.0769137 0.0228316 0)
(0.0796218 0.0177874 0)
(0.0820737 0.0128915 0)
(0.0842744 0.00818024 0)
(0.0862258 0.00369179 0)
(0.087931 -0.000530248 0)
(0.0893973 -0.00443179 0)
(0.0906399 -0.00794442 0)
(0.0916702 -0.0109837 0)
(0.0925245 -0.0134541 0)
(0.00531322 0.0707936 0)
(0.0128986 0.0738978 0)
(0.0206951 0.0706671 0)
(0.0278841 0.0669071 0)
(0.0344511 0.0628596 0)
(0.0404048 0.058574 0)
(0.0458052 0.0540891 0)
(0.0507027 0.049441 0)
(0.0551423 0.0446647 0)
(0.0591684 0.0397937 0)
(0.0628257 0.0348619 0)
(0.066156 0.0299048 0)
(0.0691964 0.0249603 0)
(0.0719765 0.0200694 0)
(0.0745168 0.015275 0)
(0.0768281 0.0106205 0)
(0.0789134 0.0061477 0)
(0.0807724 0.00189514 0)
(0.0824084 -0.00209708 0)
(0.0838313 -0.00578047 0)
(0.0850591 -0.00909297 0)
(0.0861069 -0.0119574 0)
(0.087007 -0.014287 0)
(0.00488186 0.0628559 0)
(0.0117554 0.0657215 0)
(0.0189163 0.0632791 0)
(0.0255457 0.0602315 0)
(0.0316062 0.0568075 0)
(0.0370966 0.0530827 0)
(0.0420725 0.0491094 0)
(0.0465819 0.0449283 0)
(0.0506681 0.0405744 0)
(0.0543744 0.0360813 0)
(0.0577438 0.031484 0)
(0.0608179 0.0268218 0)
(0.0636337 0.0221388 0)
(0.066221 0.0174842 0)
(0.0685999 0.0129108 0)
(0.0707785 0.00847191 0)
(0.0727539 0.00421557 0)
(0.0745198 0.000179251 0)
(0.0760784 -0.00360396 0)
(0.0774425 -0.00709314 0)
(0.078634 -0.0102327 0)
(0.0796729 -0.0129514 0)
(0.0805897 -0.0151692 0)
(0.0044207 0.0556925 0)
(0.0104978 0.0583466 0)
(0.0169004 0.0565754 0)
(0.0228686 0.0541482 0)
(0.0283429 0.0512812 0)
(0.0333108 0.0480649 0)
(0.0378169 0.0445584 0)
(0.0419021 0.0408035 0)
(0.0456051 0.0368343 0)
(0.0489657 0.0326834 0)
(0.052025 0.0283865 0)
(0.0548234 0.0239855 0)
(0.0573983 0.01953 0)
(0.0597805 0.0150778 0)
(0.06199 0.0106936 0)
(0.0640316 0.00644379 0)
(0.065892 0.00238608 0)
(0.0675532 -0.00144643 0)
(0.0690145 -0.0050341 0)
(0.0702939 -0.00834694 0)
(0.0714195 -0.0113361 0)
(0.0724171 -0.0139348 0)
(0.0733171 -0.0160674 0)
(0.00393181 0.0493444 0)
(0.00918938 0.0518522 0)
(0.0147855 0.050637 0)
(0.0200412 0.0487287 0)
(0.0248802 0.0463403 0)
(0.0292815 0.0435699 0)
(0.0332782 0.0404773 0)
(0.0369031 0.0371024 0)
(0.040189 0.0334764 0)
(0.043171 0.0296298 0)
(0.045887 0.0255974 0)
(0.0483761 0.0214219 0)
(0.0506768 0.017157 0)
(0.052823 0.0128691 0)
(0.0548377 0.00863716 0)
(0.0567236 0.00454696 0)
(0.0584509 0.000674011 0)
(0.0599808 -0.00295883 0)
(0.0613092 -0.00635759 0)
(0.0624642 -0.00950804 0)
(0.0634838 -0.0123676 0)
(0.0644007 -0.014871 0)
(0.0652456 -0.0169439 0)
(0.00342057 0.0438244 0)
(0.00789493 0.0462489 0)
(0.0127004 0.0454837 0)
(0.0172399 0.0440019 0)
(0.021428 0.0420182 0)
(0.0252406 0.0396322 0)
(0.0287026 0.0369006 0)
(0.0318398 0.0338592 0)
(0.0346787 0.0305357 0)
(0.0372488 0.0269572 0)
(0.0395833 0.0231557 0)
(0.0417189 0.0191724 0)
(0.0436957 0.0150617 0)
(0.0455539 0.0108965 0)
(0.0473259 0.00677281 0)
(0.0490192 0.00280624 0)
(0.0505787 -0.00089046 0)
(0.0519297 -0.00431655 0)
(0.0530675 -0.00752746 0)
(0.0540421 -0.0105296 0)
(0.0549056 -0.0132826 0)
(0.0556969 -0.0157176 0)
(0.0564452 -0.0177573 0)