/*--------------------------------*- C++ -*----------------------------------*\
| =========                 |                                                 |
| \\      /  F ield         | OpenFOAM: The Open Source CFD Toolbox           |
|  \\    /   O peration     | Version:  2.3.0                                 |
|   \\  /    A nd           | Web:      www.OpenFOAM.org                      |
|    \\/     M anipulation  |                                                 |
\*---------------------------------------------------------------------------*/
FoamFile
{
    version     2.0;
    format      ascii;
    class       volScalarField;
    location    "0.076";
    object      alpha.water;
}
// * * * * * * * * * * * * * * * * * * * * * * * * * * * * * * * * * * * * * //

dimensions      [0 0 0 0 0 0 0];

internalField   nonuniform List<scalar> 
725
(
1
1
1
1.00001
1
1
1
1
1
0.999973
1
1
1
1
1.00003
1
1
1
1
1.00003
1
1
1
1
1
1.00001
0.938508
0.15607
0.00589406
0.00584832
0.00810008
0.475495
0.999964
0.99996
0.999937
0.999862
0.999892
0.999914
0.999932
0.999944
0.999957
0.999967
0.999973
0.99998
0.999998
1.00001
1.00002
1.00004
1.00001
0.967661
0.384219
0.000375806
0.000371757
0.000368381
0.000368323
0.441667
1
1.00001
1.00001
1.00002
1.00002
1.00002
1
0.999954
0.999904
0.999863
0.999676
0.999994
0.91912
0.201579
1
0.886256
0.12488
0.00575946
0.00567051
0.00658152
0.450686
0.999964
0.99996
0.999922
0.999765
0.999858
0.99986
0.999848
0.999842
0.999842
0.999851
0.999866
0.999884
0.999898
0.999913
0.99993
1.00001
1.00001
0.973159
0.381673
0.000375072
0.000371445
0.000368348
0.000368324
0.425832
1
0.999979
0.999871
0.999834
0.999822
0.99982
0.999829
0.999834
0.999859
0.999853
0.999788
0.999996
0.944583
0.170032
1
0.861706
0.0666059
0.00566978
0.00556482
0.00566776
0.469781
0.999964
0.999964
0.999851
0.999466
0.999744
0.999879
0.999881
0.999869
0.99986
0.999856
0.999858
0.999865
0.999873
0.999887
0.999894
1
1.00001
0.97235
0.351418
0.000372815
0.000369427
0.000368417
0.000368324
0.390905
0.997241
0.999892
0.999919
0.999855
0.999824
0.999794
0.999773
0.999759
0.99975
0.999748
0.999741
0.999997
0.930985
0.114887
0.989573
0.613224
0.0235379
0.00567509
0.00559624
0.00926042
0.530326
0.999962
0.999967
0.999788
0.999313
0.999325
0.999885
0.999858
0.999878
0.999863
0.99986
0.999856
0.999856
0.999858
0.999876
0.99989
0.999996
1.00001
0.97339
0.336405
0.000371179
0.000370274
0.000369146
0.000371733
0.376535
0.967392
0.999884
0.999861
0.999866
0.999834
0.999805
0.99978
0.999757
0.999735
0.999717
0.999701
0.999852
0.935873
0.120666
0.944487
0.327093
0.00119926
0.00581386
0.00527697
0.00539006
0.498061
0.983706
0.999963
0.999806
0.999654
0.99913
0.999187
0.999487
0.999668
0.999783
0.999824
0.999835
0.999838
0.999842
0.999861
0.999896
0.999998
1.00001
0.965285
0.280414
0.000372596
0.00037182
0.000372052
0.000392136
0.347713
0.8865
0.999867
0.999864
0.99981
0.999768
0.999745
0.999739
0.999735
0.99973
0.999716
0.999699
0.999955
0.920791
0.0989353
0.512228
0.0756601
0.00110096
0.00297821
0.00308932
0.0395527
0.781252
0.993772
0.99403
0.999316
1.00007
0.99917
0.999017
0.999295
0.99958
0.999734
0.999797
0.99982
0.99983
0.999837
0.999856
0.999916
0.999928
1
0.959723
0.269115
0.000385044
0.000381778
0.0010979
0.00047245
0.351152
0.852037
0.999843
0.999806
0.999743
0.999717
0.999695
0.999688
0.99968
0.999686
0.999678
0.999677
0.999952
0.931567
0.124693
0.457752
0.023086
0.000951447
0.00110546
0.00191995
0.139581
0.946613
0.990473
0.987979
0.996557
0.99974
0.99941
0.999157
0.999407
0.999631
0.999761
0.999809
0.999824
0.999831
0.999836
0.999851
0.999912
0.999921
1
0.955802
0.259148
0.000795545
0.00128834
0.00237652
0.000535543
0.32704
0.853899
0.999827
0.999811
0.999686
0.999684
0.999679
0.99967
0.999663
0.999661
0.999657
0.999659
1
0.947263
0.144134
0.0938868
0.000766667
0.00083334
0.000954826
0.00434019
0.253461
0.95342
0.991168
0.987977
0.995335
0.9997
0.999609
0.999412
0.999568
0.999695
0.999807
0.999832
0.999834
0.999833
0.999838
0.999841
0.999944
0.999921
1
0.954215
0.254037
0.00127669
0.00251099
0.00244804
0.000790273
0.334357
0.853996
0.999792
0.999732
0.999668
0.999691
0.999692
0.999678
0.999663
0.999651
0.999645
0.999647
1
0.95148
0.149318
1.11417e-05
0.000667136
0.000449887
0.000716141
0.0253955
0.456326
0.969057
0.994847
0.987979
0.994896
0.999639
0.999715
0.999602
0.99964
0.999904
0.999879
0.999859
0.999846
0.99984
0.999842
0.99985
0.999924
0.999926
1
0.951379
0.242561
0.00102143
0.00253701
0.00150537
0.00142766
0.345528
0.859503
0.99974
0.99971
0.999726
0.99972
0.999701
0.999681
0.999663
0.99965
0.999642
0.999643
1.00001
0.952766
0.159519
1.26954e-05
0.000106189
0.00016756
0.000441532
0.0559944
0.559134
0.977188
0.995346
0.988148
0.992627
0.999758
0.9998
0.999715
0.999698
0.999804
0.999844
0.999852
0.99985
0.999847
0.99985
0.999854
0.999928
0.999946
1
0.947994
0.240125
0.000897476
0.00182336
0.00073841
0.00141418
0.346282
0.868891
0.999814
0.999654
0.999744
0.999735
0.999718
0.999701
0.99968
0.999666
0.99965
0.999647
1.00001
0.951081
0.174386
1
1
1
1.00003
0.955969
1
1
1
1.00005
1.00002
1
1
1
1.00001
1.00002
1
1
1
1.00001
0.999949
1
1
1
1.00001
1.00001
2.91565e-05
0.000555601
0.00107063
0.0120996
0.201823
0.695619
0.987886
0.995697
0.995781
0.996149
0.999793
0.999853
0.99977
0.999869
0.999868
0.999856
0.999864
0.999866
0.999866
0.999868
0.999871
0.999915
1.00004
1.00001
0.939813
0.213968
0.000363999
0.000350164
0.000350539
0.000688737
0.312375
0.914469
0.999944
0.999801
0.999792
0.999779
0.999757
0.999732
0.999705
0.999685
0.999665
0.999657
1
0.926261
0.19511
0.424995
0.011613
0.166433
0.158914
0.622248
0.953662
0.989501
0.99373
0.999879
0.999889
0.999885
0.999994
0.999837
0.999768
0.999749
0.999754
0.99976
0.999782
0.99981
0.999837
0.999856
0.999889
1
1
0.928644
0.201331
0.000351593
0.000346157
0.000338064
0.000394507
0.334073
0.997833
0.999945
0.99985
0.999835
0.999812
0.999782
0.999752
0.999722
0.999728
0.999745
0.999753
0.999999
0.918706
0.208667
0.967106
0.165141
0.310224
0.406122
0.886206
0.983518
0.966094
0.986772
0.999976
0.999866
0.999859
0.999805
0.999769
0.999739
0.999728
0.999739
0.999761
0.99979
0.999821
0.999851
0.999877
0.99989
1
1
0.908906
0.167919
0.000350335
0.000338415
0.000336025
0.000335455
0.358697
1
0.999982
0.999944
0.999874
0.999852
0.999836
0.999823
0.999811
0.999805
0.999801
0.999794
0.999999
0.927914
0.191725
0.999951
0.719484
0.881022
0.954662
0.991826
0.983593
0.966031
0.996974
0.999977
0.99993
0.999825
0.999765
0.999719
0.999715
0.999759
0.999819
0.999868
0.999897
0.99991
0.999919
0.99993
0.999936
0.999996
1.00001
0.902601
0.165014
0.000354481
0.000338124
0.000335634
0.000335453
0.38825
1
0.999969
0.999895
0.999861
0.999848
0.999843
0.999848
0.999855
0.999868
0.999864
0.99982
1
0.921154
0.104769
0.999653
0.999642
0.99822
0.998035
0.991846
0.963243
0.978106
0.999831
0.99983
0.999839
0.999843
0.999898
0.999972
1.00003
1.00003
1.00003
1.00002
1.00002
1.00002
1.00002
1.00001
1.00001
1.00002
1.00001
0.893076
0.1526
0.000355304
0.000341184
0.000336971
0.00033545
0.383757
1
1.00001
1.00002
1.00002
1.00003
1.00005
1.00009
1.00013
1.00017
1.00006
0.999739
0.999925
0.944106
0.146995
)
;

boundaryField
{
    AirInlet
    {
        type            fixedValue;
        value           uniform 0;
    }
    WaterInlet
    {
        type            fixedValue;
        value           uniform 1;
    }
    ChannelWall
    {
        type            zeroGradient;
    }
    Outlet
    {
        type            inletOutlet;
        inletValue      uniform 0;
        value           nonuniform List<scalar> 
15
(
0.201579
0.170032
0
0
0
0.124693
0.144134
0.149318
0.159519
0.174386
0.19511
0.208667
0.191725
0
0
)
;
    }
    FrontAndBack
    {
        type            empty;
    }
}


// ************************************************************************* //
