/*--------------------------------*- C++ -*----------------------------------*\
| =========                 |                                                 |
| \\      /  F ield         | OpenFOAM: The Open Source CFD Toolbox           |
|  \\    /   O peration     | Version:  2.3.0                                 |
|   \\  /    A nd           | Web:      www.OpenFOAM.org                      |
|    \\/     M anipulation  |                                                 |
\*---------------------------------------------------------------------------*/
FoamFile
{
    version     2.0;
    format      ascii;
    class       volScalarField;
    location    "0.076";
    object      p;
}
// * * * * * * * * * * * * * * * * * * * * * * * * * * * * * * * * * * * * * //

dimensions      [1 -1 -2 0 0 0 0];

internalField   nonuniform List<scalar> 
725
(
1822.65
1782.24
1766.68
1758.78
1719.74
1816.8
1782.74
1767.08
1760.79
1721.72
1814.17
1782.6
1767
1763.04
1723.67
1814.53
1781.61
1766.74
1765.73
1729.01
1817.79
1779.87
1766.11
1767.75
1710.15
1817.58
1471.49
443.887
348.302
340.871
328.565
344.997
-8.25254
-111.932
-194.061
-210.952
-239.283
-251.98
-258.526
-261.862
-263.87
-265.453
-266.481
-266.785
-265.757
-262.8
-255.225
-240.917
-221.917
-174.615
-203.947
-264.162
-262.244
-263.581
-268.925
-155.648
-131.956
-189.977
-223.137
-238.712
-245.376
-247.059
-251.217
-244.779
-262.813
-226.553
-288.939
-164.765
-299.469
-47.649
1834.3
1406.99
404.621
349.423
342.253
328.163
106.51
-127.725
-139.208
-204.73
-217.584
-241.673
-253.121
-259.402
-262.647
-264.602
-266.141
-267.118
-267.438
-266.596
-263.91
-256.876
-243.604
-222.534
-172.055
-192.298
-264.368
-262.131
-263.553
-268.7
-221.255
-166.991
-197.239
-227.787
-241.023
-246.768
-248.185
-251.952
-245.528
-262.671
-226.233
-289.556
-164.066
-521.681
-52.4127
1868.6
1413.34
375.161
351.333
343.593
326.633
148.872
-230.476
-179.416
-220.276
-226.508
-245.217
-255.085
-260.467
-263.332
-265.024
-266.509
-267.502
-267.956
-267.444
-265.391
-259.493
-248.57
-228.969
-179.493
-203.737
-264.497
-261.7
-263.562
-267.278
-283.136
-193.847
-215.88
-235.93
-244.383
-248.019
-248.637
-252.113
-245.744
-262.404
-225.703
-285.41
-145.529
-346.113
45.8095
1861.34
935.066
385.778
355.057
346.302
329.371
-638.718
-604.719
-237.371
-236.192
-236.849
-249.431
-257.969
-262.107
-264.255
-265.549
-266.997
-268.02
-268.697
-268.679
-267.609
-263.848
-256.254
-241.508
-206.661
-223.622
-264.917
-260.875
-263.522
-265.551
-263.443
-263.936
-250.508
-248.869
-248.658
-249.644
-249.276
-252.447
-245.566
-262.538
-226.358
-289.294
-178.32
-404.514
58.904
1728.85
689.792
386.195
363.056
347.956
350.362
-1505.98
-824.161
-267.042
-243.609
-250.278
-253.235
-256.98
-262.464
-264.503
-265.825
-267.484
-268.609
-269.587
-270.166
-270.319
-268.849
-265.892
-259.331
-249.773
-286.585
-265.685
-259.887
-262.457
-268.14
-96.3265
-340.873
-296.275
-256.088
-252.319
-251.3
-249.93
-252.952
-247.164
-263.433
-229.58
-302.177
-210.149
-705.789
72.3265
904.939
454.627
390.553
380.114
377.913
216.965
-1252.14
-743.013
-290.911
-256.74
-261.869
-258.579
-257.837
-258.734
-262.941
-264.756
-267.008
-268.347
-269.933
-271.12
-272.294
-272.482
-272.9
-271.42
-268.507
-268.821
-267.471
-258.882
-261.431
-267.457
-520.932
-306.464
-329.683
-269.808
-254.993
-252.231
-249.925
-253.721
-246.122
-265.576
-228.719
-306.423
-202.72
-650.024
20.5434
803.763
423.318
390.425
392.416
397.487
-41.4877
-658.055
-688.396
-308.299
-257.783
-263.888
-260.466
-259.429
-260.999
-264.028
-265.275
-267.397
-268.609
-270.181
-271.486
-272.985
-273.693
-275.236
-275.75
-274.835
-260.298
-268.789
-261.694
-262.389
-265.06
-617.751
-343.903
-336.07
-272.576
-255.464
-251.353
-249.369
-253.543
-246.022
-266.135
-228.505
-307.099
-198.661
-531.373
-20.5067
398.092
380.93
389.079
396.233
363.282
-231.484
-473.641
-656.215
-316.951
-260.595
-266.896
-261.517
-260.446
-261.618
-264.405
-265.435
-267.566
-268.771
-270.442
-271.893
-273.406
-274.266
-277.578
-279.933
-283.665
-269.074
-269.88
-264.503
-259.359
-267.679
-464.369
-320.235
-336.777
-273.711
-255.018
-251.755
-249.859
-253.87
-246.113
-266.143
-228.544
-306.894
-194.137
-445.821
-24.0357
373.704
380.156
385.814
403.733
282.145
-243.944
-345.333
-647.01
-328.097
-263.078
-269.404
-262.821
-261.389
-262.095
-263.363
-265.508
-267.708
-268.923
-270.672
-272.291
-274.347
-276.096
-279.983
-283.928
-294.332
-286.503
-270.931
-263.31
-286.645
-273.797
-67.552
-288.046
-333.908
-273.347
-256.959
-251.825
-249.873
-253.885
-246.209
-266.234
-228.642
-306.479
-191.506
-392.705
-56.7187
371.836
398.245
396.447
410.104
227.579
-114.463
-307.132
-603.54
-340.184
-242.712
-273.104
-264.11
-262.281
-262.603
-267.109
-266.823
-268.12
-269.077
-270.899
-272.688
-275.03
-277.36
-282.172
-287.725
-302.489
-295.428
-271.601
-285.023
-283.619
-274.373
36.0299
-298.902
-326.63
-270.401
-256.76
-251.796
-249.906
-253.76
-246.495
-266.192
-229.582
-306.032
-192.137
-347.503
-95.8619
-349.08
-385.801
-403.725
-391.673
-409.091
-352.504
-384.265
-407.077
-405.311
-515.488
-352.904
-382.66
-404.363
-384.844
-483.835
-350.321
-382.294
-403.453
-374.932
-466.291
-344.594
-382.739
-403.537
-373.048
-437.779
367.301
370.642
342.357
292.062
58.9878
20.6263
-218.105
-504.351
-366.213
-303.517
-281.023
-268.032
-264.615
-263.9
-264.776
-266.415
-267.883
-269.446
-271.458
-273.74
-276.821
-280.728
-287.822
-297.629
-315.691
-286.941
-273.185
-279.101
-280.244
-270.766
-337.731
-404.155
-298.351
-270.537
-255.754
-251.512
-250.081
-253.137
-247.625
-265.229
-232.134
-305.228
-200.801
-317.039
-88.0981
-169.24
357.758
144.968
129.935
-39.0473
-163.242
-201.482
-466.095
-364.681
-327.342
-288.08
-271.022
-267.21
-265.908
-265.773
-266.855
-268.082
-270.09
-272.391
-275.27
-279.549
-285.824
-297.525
-313.217
-348.939
-295.925
-274.714
-279.066
-279.115
-276.791
-395.109
-260.48
-262.095
-260.149
-252.515
-250.65
-249.884
-253.11
-247.557
-265.864
-231.457
-302.959
-202.586
-285.176
-85.2282
-310.802
95.0522
-59.092
-73.53
-216.168
-165.584
-266.296
-404.733
-367.531
-327.495
-292.459
-276.145
-269.294
-266.9
-266.305
-267.193
-268.627
-270.679
-273.209
-276.581
-281.783
-289.811
-305.457
-327.765
-387.785
-296.473
-275.549
-278.657
-279.128
-280.991
-286.775
-185.934
-236.08
-249.374
-248.691
-249.54
-249.528
-252.952
-247.209
-264.94
-228.668
-298.415
-199.172
-478.723
-134.627
-292.633
-643.463
-511.125
-344.737
-264.24
-193.71
-238.328
-422.938
-366.696
-325.225
-294.65
-277.591
-270.135
-267.445
-267.111
-268.125
-269.348
-271.224
-273.804
-277.433
-283.239
-292.537
-310.54
-336.616
-401.774
-294.515
-275.949
-278.387
-279.113
-281.865
-206.486
-205.315
-226.934
-243.813
-245.517
-248.454
-249.125
-252.757
-246.651
-264.331
-225.308
-285.252
-174.569
-403.023
39.2031
-237.512
268.018
-42.7553
-119.394
-252.035
-208.81
-328.579
-392.487
-355.776
-322.896
-294.875
-278.506
-269.74
-266.584
-266.383
-267.581
-268.974
-270.978
-273.649
-277.435
-283.557
-293.368
-312.691
-341.101
-412.165
-291.435
-275.334
-278.172
-279.179
-281.275
-253.886
-204.967
-221.705
-240.94
-242.56
-247.007
-247.965
-251.756
-244.611
-262.88
-222.743
-274.814
-179.67
-203.99
27.144
)
;

boundaryField
{
    AirInlet
    {
        type            calculated;
        value           nonuniform List<scalar> 5(-322.578 -22.0297 364.756 373.704 372.57);
    }
    WaterInlet
    {
        type            calculated;
        value           nonuniform List<scalar> 10(1822.65 1816.81 1814.18 1814.55 1817.81 -349.098 -352.519 -352.914 -350.327 -344.596);
    }
    ChannelWall
    {
        type            calculated;
        value           nonuniform List<scalar> 
110
(
1817.77
1779.84
1766.07
1767.71
1710.1
-349.054
-385.77
-403.691
-391.635
-409.051
-344.621
-382.769
-403.572
-373.086
-437.821
-237.557
267.974
-42.7993
-119.438
-252.079
-208.852
-328.622
-392.531
-355.821
-322.94
-294.919
-278.55
-269.784
-266.628
-266.428
-267.625
-269.018
-271.022
-273.694
-277.479
-283.601
-293.412
-312.735
-341.145
-412.204
-291.442
-275.334
-278.172
-279.179
-281.275
-253.903
-205.011
-221.749
-240.984
-242.604
-247.052
-248.009
-251.8
-244.655
-262.924
-222.788
-274.858
-179.714
-204.032
27.1375
1822.68
1782.27
1766.72
1758.82
1719.78
1817.63
1471.53
443.894
348.302
340.871
328.565
345.018
-8.2084
-111.888
-194.017
-210.908
-239.238
-251.936
-258.482
-261.818
-263.825
-265.409
-266.437
-266.741
-265.713
-262.756
-255.18
-240.873
-221.873
-174.572
-203.93
-264.162
-262.244
-263.581
-268.925
-155.628
-131.912
-189.933
-223.093
-238.668
-245.332
-247.015
-251.173
-244.735
-262.768
-226.509
-288.895
-164.721
-299.429
-47.64
)
;
    }
    Outlet
    {
        type            calculated;
        value           nonuniform List<scalar> 
15
(
-0.00893393
-0.0226281
-0.55228
-0.68679
-0.437846
-0.0964432
-0.0682729
-0.0736579
-0.0818024
-0.0928168
-0.114355
-0.140753
-0.146378
-0.233653
-0.396908
)
;
    }
    FrontAndBack
    {
        type            empty;
    }
}


// ************************************************************************* //
