/*--------------------------------*- C++ -*----------------------------------*\
| =========                 |                                                 |
| \\      /  F ield         | OpenFOAM: The Open Source CFD Toolbox           |
|  \\    /   O peration     | Version:  2.3.0                                 |
|   \\  /    A nd           | Web:      www.OpenFOAM.org                      |
|    \\/     M anipulation  |                                                 |
\*---------------------------------------------------------------------------*/
FoamFile
{
    version     2.0;
    format      ascii;
    class       volScalarField;
    location    "0.076";
    object      p_rgh;
}
// * * * * * * * * * * * * * * * * * * * * * * * * * * * * * * * * * * * * * //

dimensions      [1 -1 -2 0 0 0 0];

internalField   nonuniform List<scalar> 
725
(
1822.68
1782.27
1766.72
1758.82
1719.78
1816.88
1782.83
1767.18
1760.9
1721.85
1814.31
1782.75
1767.17
1763.23
1723.88
1814.72
1781.82
1766.98
1766
1729.3
1818.03
1780.14
1766.42
1768.1
1710.53
1817.63
1471.53
443.894
348.302
340.871
328.565
345.018
-8.2084
-111.888
-194.017
-210.908
-239.238
-251.936
-258.482
-261.818
-263.825
-265.409
-266.437
-266.741
-265.713
-262.756
-255.18
-240.873
-221.873
-174.572
-203.93
-264.162
-262.244
-263.581
-268.925
-155.628
-131.912
-189.933
-223.093
-238.668
-245.332
-247.015
-251.173
-244.735
-262.768
-226.509
-288.895
-164.721
-299.429
-47.64
1834.43
1407.11
404.638
349.424
342.254
328.164
106.569
-127.593
-139.075
-204.597
-217.452
-241.541
-252.988
-259.27
-262.514
-264.47
-266.008
-266.986
-267.305
-266.463
-263.778
-256.743
-243.471
-222.402
-171.926
-192.247
-264.368
-262.13
-263.553
-268.7
-221.199
-166.859
-197.107
-227.655
-240.891
-246.636
-248.052
-251.82
-245.395
-262.539
-226.1
-289.424
-163.934
-521.556
-52.3901
1868.82
1413.53
375.176
351.334
343.594
326.635
148.976
-230.255
-179.195
-220.055
-226.287
-244.997
-254.864
-260.246
-263.111
-264.804
-266.289
-267.282
-267.735
-267.223
-265.17
-259.273
-248.35
-228.749
-179.279
-203.659
-264.496
-261.7
-263.561
-267.278
-283.05
-193.627
-215.659
-235.71
-244.162
-247.798
-248.416
-251.893
-245.523
-262.184
-225.482
-285.189
-145.309
-345.908
45.835
1861.65
935.256
385.786
355.059
346.304
329.374
-638.554
-604.41
-237.062
-235.883
-236.54
-249.122
-257.66
-261.798
-263.946
-265.24
-266.688
-267.711
-268.388
-268.37
-267.3
-263.539
-255.945
-241.199
-206.36
-223.518
-264.917
-260.874
-263.522
-265.55
-263.327
-263.637
-250.199
-248.56
-248.349
-249.335
-248.967
-252.138
-245.257
-262.229
-226.049
-288.985
-178.011
-404.224
58.9415
1729.23
689.922
386.195
363.058
347.958
350.364
-1505.78
-823.77
-266.645
-243.211
-249.881
-252.838
-256.583
-262.067
-264.106
-265.427
-267.087
-268.212
-269.189
-269.768
-269.922
-268.452
-265.495
-258.934
-249.389
-286.474
-265.684
-259.886
-262.456
-268.14
-96.1881
-340.521
-295.878
-255.69
-251.922
-250.903
-249.533
-252.555
-246.766
-263.035
-229.183
-301.78
-209.752
-705.423
72.3662
905.17
454.662
390.554
380.116
377.915
216.983
-1251.79
-742.565
-290.462
-256.289
-261.418
-258.128
-257.386
-258.283
-262.49
-264.305
-266.557
-267.896
-269.481
-270.669
-271.843
-272.031
-272.449
-270.969
-268.074
-268.699
-267.47
-258.881
-261.43
-267.456
-520.773
-306.08
-329.232
-269.357
-254.542
-251.78
-249.474
-253.27
-245.671
-265.125
-228.268
-305.972
-202.269
-649.603
20.6001
803.979
423.329
390.426
392.417
397.488
-41.4216
-657.61
-687.929
-307.833
-257.314
-263.417
-259.996
-258.959
-260.529
-263.557
-264.804
-266.926
-268.138
-269.711
-271.015
-272.514
-273.222
-274.765
-275.279
-274.385
-260.176
-268.788
-261.693
-262.387
-265.059
-617.597
-343.501
-335.599
-272.105
-254.993
-250.882
-248.898
-253.072
-245.551
-265.665
-228.034
-306.628
-198.19
-530.927
-20.4385
398.138
380.931
389.08
396.234
363.285
-231.359
-473.173
-655.729
-316.466
-260.107
-266.406
-261.026
-259.956
-261.128
-263.915
-264.945
-267.076
-268.28
-269.952
-271.403
-272.916
-273.776
-277.088
-279.443
-283.197
-268.949
-269.879
-264.501
-259.357
-267.678
-464.205
-319.816
-336.286
-273.221
-254.528
-251.264
-249.369
-253.38
-245.623
-265.653
-228.054
-306.404
-193.647
-445.354
-23.962
373.704
380.157
385.815
403.734
282.158
-243.711
-344.838
-646.502
-327.593
-262.57
-268.894
-262.311
-260.879
-261.585
-262.853
-264.998
-267.198
-268.413
-270.162
-271.78
-273.837
-275.586
-279.473
-283.418
-293.847
-286.379
-270.93
-263.308
-286.644
-273.795
-67.3754
-287.608
-333.398
-272.837
-256.449
-251.316
-249.363
-253.375
-245.699
-265.725
-228.132
-305.969
-190.995
-392.219
-56.6369
371.836
398.245
396.448
410.105
227.61
-114.167
-306.614
-603.012
-339.661
-242.187
-272.575
-263.58
-261.752
-262.073
-266.58
-266.294
-267.59
-268.548
-270.369
-272.159
-274.501
-276.83
-281.642
-287.195
-301.987
-295.301
-271.6
-285.021
-283.618
-274.372
36.2137
-298.442
-326.101
-269.871
-256.23
-251.266
-249.377
-253.231
-245.965
-265.662
-229.053
-305.502
-191.607
-346.999
-95.769
-348.338
-385.094
-403.053
-391.037
-408.516
-351.709
-383.497
-406.337
-404.598
-514.803
-352.056
-381.831
-403.554
-384.055
-483.065
-349.42
-381.405
-402.575
-374.066
-465.437
-343.64
-381.788
-402.591
-372.105
-436.84
367.302
370.643
342.358
292.07
59.1061
21.0325
-217.529
-503.77
-365.631
-302.936
-280.439
-267.448
-264.031
-263.316
-264.192
-265.831
-267.299
-268.862
-270.874
-273.157
-276.238
-280.145
-287.238
-297.045
-315.142
-286.815
-273.185
-279.1
-280.244
-270.765
-337.548
-403.621
-297.768
-269.953
-255.17
-250.928
-249.497
-252.553
-247.042
-264.645
-231.55
-304.645
-200.217
-316.498
-87.9837
-168.954
357.767
145.08
130.042
-38.6289
-162.601
-200.817
-465.428
-364.009
-326.67
-287.408
-270.35
-266.538
-265.236
-265.101
-266.183
-267.411
-269.418
-271.719
-274.598
-278.877
-285.152
-296.853
-312.545
-348.315
-295.789
-274.713
-279.065
-279.114
-276.79
-394.884
-259.81
-261.423
-259.477
-251.843
-249.978
-249.212
-252.438
-246.885
-265.192
-230.785
-302.287
-201.914
-284.559
-85.0874
-310.067
95.1784
-58.8556
-73.2208
-215.494
-164.836
-265.562
-403.982
-366.771
-326.735
-291.699
-275.385
-268.534
-266.14
-265.545
-266.433
-267.867
-269.919
-272.449
-275.82
-281.022
-289.051
-304.697
-327.005
-387.094
-296.345
-275.548
-278.656
-279.127
-280.99
-286.502
-185.173
-235.32
-248.614
-247.93
-248.78
-248.768
-252.192
-246.449
-264.179
-227.908
-297.655
-198.412
-478.017
-134.481
-291.785
-642.853
-510.377
-343.927
-263.398
-192.876
-237.509
-422.092
-365.847
-324.376
-293.801
-276.743
-269.286
-266.596
-266.263
-267.277
-268.499
-270.376
-272.955
-276.584
-282.391
-291.689
-309.691
-335.768
-401.008
-294.374
-275.948
-278.386
-279.112
-281.863
-206.156
-204.466
-226.085
-242.965
-244.669
-247.605
-248.276
-251.909
-245.803
-263.483
-224.46
-284.403
-173.721
-402.241
39.2927
-236.576
268.955
-41.8201
-118.459
-251.106
-207.907
-327.662
-391.55
-354.84
-321.959
-293.939
-277.569
-268.803
-265.647
-265.447
-266.644
-268.037
-270.041
-272.713
-276.498
-282.62
-292.431
-311.754
-340.164
-411.328
-291.291
-275.333
-278.171
-279.178
-281.274
-253.526
-204.03
-220.768
-240.003
-241.623
-246.071
-247.028
-250.819
-243.674
-261.943
-221.807
-273.877
-178.733
-203.106
27.2825
)
;

boundaryField
{
    AirInlet
    {
        type            fixedFluxPressure;
        gradient        nonuniform List<scalar> 5(-1.22775e+08 -8.26008e+07 -3.33823e+06 -1.948 73392.7);
        value           nonuniform List<scalar> 5(-322.577 -22.0293 364.756 373.704 372.57);
    }
    WaterInlet
    {
        type            fixedFluxPressure;
        gradient        nonuniform List<scalar> 10(0.0202236 -10.3904 -7.81361 -0.0983435 -3.49956 0.00754549 -35.3266 -0.720509 -6.33387 -13.6082);
        value           nonuniform List<scalar> 10(1822.68 1816.88 1814.31 1814.72 1818.03 -348.338 -351.709 -352.056 -349.42 -343.64);
    }
    ChannelWall
    {
        type            fixedFluxPressure;
        gradient        uniform 0;
        value           nonuniform List<scalar> 
110
(
1818.03
1780.14
1766.42
1768.1
1710.53
-348.338
-385.094
-403.053
-391.037
-408.516
-343.64
-381.788
-402.591
-372.105
-436.84
-236.576
268.955
-41.8201
-118.459
-251.106
-207.907
-327.662
-391.55
-354.84
-321.959
-293.939
-277.569
-268.803
-265.647
-265.447
-266.644
-268.037
-270.041
-272.713
-276.498
-282.62
-292.431
-311.754
-340.164
-411.328
-291.291
-275.333
-278.171
-279.178
-281.274
-253.526
-204.03
-220.768
-240.003
-241.623
-246.071
-247.028
-250.819
-243.674
-261.943
-221.807
-273.877
-178.733
-203.106
27.2825
1822.68
1782.27
1766.72
1758.82
1719.78
1817.63
1471.53
443.894
348.302
340.871
328.565
345.018
-8.2084
-111.888
-194.017
-210.908
-239.238
-251.936
-258.482
-261.818
-263.825
-265.409
-266.437
-266.741
-265.713
-262.756
-255.18
-240.873
-221.873
-174.572
-203.93
-264.162
-262.244
-263.581
-268.925
-155.628
-131.912
-189.933
-223.093
-238.668
-245.332
-247.015
-251.173
-244.735
-262.768
-226.509
-288.895
-164.721
-299.429
-47.64
)
;
    }
    Outlet
    {
        type            totalPressure;
        rho             rho;
        psi             none;
        gamma           1;
        p0              uniform 0;
        value           nonuniform List<scalar> 
15
(
0
0
-0.55206
-0.686481
-0.437449
-0.0397792
0
0
0
0
0
0
0
-0.232805
-0.395971
)
;
    }
    FrontAndBack
    {
        type            empty;
    }
}


// ************************************************************************* //
