/*--------------------------------*- C++ -*----------------------------------*\
| =========                 |                                                 |
| \\      /  F ield         | OpenFOAM: The Open Source CFD Toolbox           |
|  \\    /   O peration     | Version:  2.3.0                                 |
|   \\  /    A nd           | Web:      www.OpenFOAM.org                      |
|    \\/     M anipulation  |                                                 |
\*---------------------------------------------------------------------------*/
FoamFile
{
    version     2.0;
    format      ascii;
    class       surfaceScalarField;
    location    "0.076";
    object      phi;
}
// * * * * * * * * * * * * * * * * * * * * * * * * * * * * * * * * * * * * * //

dimensions      [0 3 -1 0 0 0 0];

internalField   nonuniform List<scalar> 
1380
(
3.14029e-13
1.85971e-13
2.92708e-13
2.1321e-14
3.04668e-13
-1.19601e-14
3.76918e-13
-7.22492e-14
-7.15547e-14
4.48472e-13
6.03488e-13
8.24831e-14
6.25621e-13
-8.12327e-16
6.28838e-13
-1.51769e-14
6.34106e-13
-7.75172e-14
-9.32708e-14
6.55822e-13
6.86039e-13
-1.03555e-13
7.26701e-13
-4.14748e-14
7.46421e-13
-3.48971e-14
8.18705e-13
-1.49801e-13
-3.97208e-13
1.12264e-12
5.95815e-13
-1.99371e-13
5.98729e-13
-4.43886e-14
6.00349e-13
-3.65172e-14
6.38968e-13
-1.8842e-13
-2.94942e-13
5.36702e-13
3.00629e-13
2.56241e-13
2.19723e-13
3.13039e-14
-2.63638e-13
1.22674e-12
-7.78266e-13
4.75724e-13
7.51014e-13
1.37332e-12
-8.97594e-13
1.33765e-12
3.56661e-14
-3.68674e-13
1.70633e-12
-4.74228e-13
1.05554e-13
-1.99108e-12
1.51686e-12
-1.32092e-12
-6.70169e-13
-4.86492e-13
-8.34423e-13
-4.2338e-14
-4.44154e-13
1.34892e-13
-1.7723e-13
1.74901e-13
-4.00092e-14
1.42512e-13
3.23896e-14
1.26413e-13
1.60986e-14
1.28059e-13
-1.64611e-15
1.35162e-13
-7.10277e-15
1.36542e-13
-1.38047e-15
1.33121e-13
3.42148e-15
1.23561e-13
9.56004e-15
1.06876e-13
1.6685e-14
8.13921e-14
2.54837e-14
6.39736e-14
1.74185e-14
6.55318e-15
5.74204e-14
-8.7251e-14
9.38041e-14
6.12709e-14
-1.48522e-13
6.3161e-14
-1.89006e-15
-2.61346e-13
3.24508e-13
1.88763e-12
-2.14898e-12
3.48613e-12
-1.5985e-12
1.94219e-12
1.54394e-12
-2.13323e-13
2.15552e-12
-4.11314e-14
-1.72192e-13
1.70408e-13
-2.11539e-13
2.18939e-13
-4.85306e-14
1.94118e-13
2.48208e-14
1.65039e-13
2.90784e-14
1.54872e-13
1.01678e-14
1.45219e-13
9.65299e-15
1.51524e-13
-6.30546e-15
1.73807e-13
-2.22832e-14
2.86732e-13
-1.12925e-13
6.9641e-13
-4.09678e-13
1.97766e-12
-1.28125e-12
8.79022e-12
-6.81257e-12
-2.29687e-12
1.79165e-12
-1.91409e-12
1.77184e-12
7.70828e-13
5.19958e-12
-4.32534e-12
4.9798e-12
2.5545e-13
2.30457e-12
4.38155e-12
-1.09717e-12
3.5073e-12
-2.29429e-12
2.71397e-12
-1.74133e-12
-1.22313e-12
-6.67433e-13
-1.90832e-12
2.41321e-14
-1.13572e-12
2.90368e-13
-4.43466e-13
3.67258e-13
-1.169e-13
3.26835e-13
7.2813e-14
3.10845e-13
3.20886e-14
3.28257e-13
-1.90583e-14
3.52899e-13
-3.17447e-14
3.65411e-13
-1.38925e-14
3.68654e-13
1.78072e-16
3.63774e-13
1.44402e-14
3.53892e-13
2.65671e-14
3.44177e-13
3.51987e-14
3.59836e-13
1.75959e-15
3.36421e-13
8.08355e-14
1.11016e-13
3.19209e-13
-3.04438e-14
-7.06214e-15
1.29773e-14
-4.53112e-14
-1.34857e-13
4.72341e-13
3.24625e-12
-5.53009e-12
5.05728e-12
-3.40952e-12
3.36551e-12
3.23571e-12
-1.89192e-13
5.71022e-12
-2.69066e-14
-3.34477e-13
3.77886e-13
-6.16332e-13
4.90894e-13
-1.61539e-13
4.59233e-13
5.64813e-14
4.14139e-13
7.41722e-14
3.93399e-13
3.0908e-14
3.82792e-13
2.02605e-14
3.79202e-13
-2.71615e-15
3.9074e-13
-3.38213e-14
4.2513e-13
-1.47314e-13
6.88584e-13
-6.73132e-13
1.3779e-12
-1.97056e-12
4.58322e-12
-1.00179e-11
-2.60815e-12
2.7391e-12
-3.53055e-12
1.43055e-12
2.07938e-12
5.80718e-12
-8.70197e-12
6.58352e-12
-5.20891e-13
5.71795e-12
5.24712e-12
5.16423e-12
4.06102e-12
-1.93113e-12
9.80933e-12
-1.71587e-12
-1.43839e-12
-3.33295e-13
-3.29089e-12
2.78459e-13
-1.74747e-12
4.63169e-13
-6.28176e-13
5.12989e-13
-1.66719e-13
4.61279e-13
1.24523e-13
4.5183e-13
4.15373e-14
4.82425e-13
-4.96537e-14
5.21563e-13
-7.08824e-14
5.42848e-13
-3.51779e-14
5.52005e-13
-8.9788e-15
5.51203e-13
1.52423e-14
5.44321e-13
3.34496e-14
5.35488e-13
4.40309e-14
5.37727e-13
-4.78615e-16
4.95472e-13
1.2309e-13
2.45769e-13
5.68912e-13
-1.03575e-13
3.42282e-13
-1.95543e-14
-1.29332e-13
-5.41568e-13
9.94354e-13
2.7563e-12
-8.82796e-12
3.97237e-12
-4.6256e-12
3.35814e-12
3.84994e-12
1.15038e-12
7.91798e-12
5.6251e-13
2.53391e-13
6.77593e-13
-7.31414e-13
7.20526e-13
-2.04472e-13
6.54557e-13
1.2245e-13
5.99369e-13
1.2936e-13
5.76593e-13
5.36848e-14
5.63418e-13
3.34347e-14
5.6008e-13
6.22162e-16
5.35096e-13
-8.83717e-15
4.7965e-13
-9.1869e-14
1.85845e-13
-3.79327e-13
-8.69066e-13
-9.1565e-13
-7.66995e-12
-3.217e-12
-8.20338e-13
1.7183e-12
-4.71214e-12
3.91085e-12
-1.13176e-13
2.9892e-12
-7.78032e-12
5.13174e-12
-2.66342e-12
7.02277e-13
9.67658e-12
-4.73636e-12
9.49965e-12
-4.04302e-12
9.11599e-12
-8.81501e-13
-4.59991e-12
6.81657e-13
-4.85405e-12
8.66067e-13
-1.93188e-12
7.10223e-13
-4.72332e-13
6.48707e-13
-1.05203e-13
5.80447e-13
1.92784e-13
5.70941e-13
5.10436e-14
6.03954e-13
-8.26668e-14
6.4877e-13
-1.15699e-13
6.72117e-13
-5.8525e-14
6.83391e-13
-2.02524e-14
6.83559e-13
1.5074e-14
6.73705e-13
4.33035e-14
6.50458e-13
6.72776e-14
6.0436e-13
4.56203e-14
5.06617e-13
2.20833e-13
3.31684e-13
7.43844e-13
-5.9364e-14
7.33329e-13
-9.43185e-13
7.5449e-13
-2.38541e-12
2.43658e-12
9.68274e-15
-1.1223e-11
1.03131e-12
-5.64722e-12
-8.97986e-13
5.77924e-12
2.7309e-12
4.28909e-12
1.6466e-12
1.3377e-12
1.14439e-12
-2.29199e-13
9.11044e-13
2.88689e-14
7.86742e-13
2.46752e-13
7.25742e-13
1.90361e-13
7.06728e-13
7.26988e-14
6.90058e-13
5.01047e-14
6.9202e-13
-1.33942e-15
6.36031e-13
4.71513e-14
5.31241e-13
1.29206e-14
-8.50508e-14
2.36965e-13
-1.50729e-12
5.06584e-13
-8.5104e-12
3.78611e-12
1.21145e-12
2.98027e-13
-5.27381e-12
2.90117e-13
-1.05266e-13
2.96489e-12
-1.04551e-11
2.25232e-12
-1.95085e-12
4.79455e-13
1.14494e-11
-5.52216e-12
1.55013e-11
2.30448e-13
3.36339e-12
2.70192e-12
-7.07138e-12
2.79698e-12
-4.9491e-12
1.74595e-12
-8.8085e-13
9.77154e-13
2.96461e-13
7.38093e-13
1.33857e-13
6.85288e-13
2.45589e-13
6.76535e-13
5.97971e-14
7.01989e-13
-1.08121e-13
7.40304e-13
-1.54015e-13
7.57151e-13
-7.53719e-14
7.66354e-13
-2.94548e-14
7.65345e-13
1.60825e-14
7.51525e-13
5.71237e-14
7.14247e-13
1.04555e-13
6.1655e-13
1.43317e-13
4.75845e-13
3.61539e-13
4.01872e-13
8.17817e-13
1.52649e-13
9.82552e-13
2.11565e-13
6.95574e-13
-3.87294e-12
6.52108e-12
-2.50661e-12
-1.25894e-11
-4.31892e-13
-7.72194e-12
3.77846e-12
1.56888e-12
2.77313e-12
5.29442e-12
2.61999e-12
1.49084e-12
1.73583e-12
6.54966e-13
1.05378e-12
7.10915e-13
8.4961e-13
4.50923e-13
7.98227e-13
2.41743e-13
7.85548e-13
8.5378e-14
7.73499e-13
6.21539e-14
7.73938e-13
-1.7785e-15
7.2465e-13
9.64389e-14
6.50048e-13
8.75232e-14
2.19102e-13
6.67911e-13
-8.38939e-13
1.56462e-12
-5.68301e-12
8.63018e-12
3.93859e-12
-1.26043e-12
-3.81338e-12
-1.98649e-12
6.20797e-13
-2.82644e-12
-9.61516e-12
-3.86787e-12
-9.09417e-13
-3.62799e-12
1.12096e-11
1.27252e-13
1.1746e-11
1.18289e-12
2.30775e-12
1.23621e-12
-7.1247e-12
7.94865e-13
-4.50776e-12
4.50999e-13
-5.36983e-13
2.40944e-13
5.06515e-13
1.78742e-13
1.9606e-13
1.66414e-13
2.57916e-13
1.66025e-13
6.01867e-14
1.68287e-13
-1.10383e-13
1.71924e-13
-1.57652e-13
1.74034e-13
-7.74821e-14
1.75141e-13
-3.05613e-14
1.74889e-13
1.63341e-14
1.71409e-13
6.06041e-14
1.6413e-13
1.11834e-13
1.38616e-13
1.68831e-13
1.09426e-13
3.9073e-13
1.02087e-13
8.25156e-13
6.22602e-14
1.02238e-12
3.98227e-13
3.59607e-13
-5.94705e-13
7.51401e-12
-1.008e-12
-1.21761e-11
-1.53465e-12
-7.19529e-12
8.022e-13
-7.67968e-13
-1.79793e-13
6.27641e-12
2.59773e-13
1.05127e-12
3.02211e-13
6.12528e-13
2.12742e-13
8.00385e-13
1.85787e-13
4.77878e-13
1.81316e-13
2.46214e-13
1.74769e-13
9.1925e-14
1.81429e-13
5.54941e-14
1.68055e-13
1.1595e-14
1.78913e-13
8.55813e-14
1.47556e-13
1.18881e-13
1.2918e-13
6.86287e-13
2.16727e-14
1.67213e-12
3.11355e-13
8.3405e-12
4.29588e-12
-1.33147e-12
-2.28191e-12
-3.2063e-12
2.49563e-12
-3.90447e-12
-8.91699e-12
-5.07328e-12
2.59398e-13
-6.62332e-12
1.27596e-11
5.74801e-13
4.5479e-12
1.42942e-12
1.45313e-12
1.32123e-12
-7.01651e-12
7.97821e-13
-3.98435e-12
4.442e-13
-1.83363e-13
2.44802e-13
7.05913e-13
1.83129e-13
2.57733e-13
1.73464e-13
2.67581e-13
1.73334e-13
6.03173e-14
1.73537e-13
-1.10586e-13
1.74963e-13
-1.59078e-13
1.75891e-13
-7.84104e-14
1.76472e-13
-3.11421e-14
1.76134e-13
1.66721e-14
1.72681e-13
6.40572e-14
1.65709e-13
1.18806e-13
1.40294e-13
1.94246e-13
1.13059e-13
4.17965e-13
1.12465e-13
8.2575e-13
1.1341e-13
1.02143e-12
-1.01991e-13
5.75008e-13
-5.01569e-13
7.91359e-12
-1.176e-12
-1.15017e-11
-9.80345e-13
-7.39095e-12
-5.87098e-12
4.12266e-12
-4.42828e-13
8.48265e-13
2.05804e-13
4.02638e-13
2.75069e-13
5.43263e-13
2.04944e-13
8.7051e-13
1.83515e-13
4.99306e-13
1.81681e-13
2.48047e-13
1.75282e-13
9.83248e-14
1.83113e-13
4.76631e-14
1.67929e-13
2.6779e-14
1.83684e-13
6.98258e-14
1.49833e-13
1.52732e-13
1.61176e-13
6.74944e-13
1.06156e-13
1.72715e-12
-9.53686e-14
8.54203e-12
3.69287e-12
-2.22611e-12
1.44202e-13
-2.89896e-12
3.16847e-12
-4.77548e-12
-7.04046e-12
-5.83083e-12
1.31475e-12
-3.52924e-12
1.0458e-11
1.05065e-12
-3.19893e-14
1.46135e-12
1.04242e-12
1.3254e-12
-6.88056e-12
7.33581e-13
-3.39252e-12
4.19518e-13
1.307e-13
2.42996e-13
8.82435e-13
1.8738e-13
3.13349e-13
1.79416e-13
2.75545e-13
1.79737e-13
5.99964e-14
1.78185e-13
-1.09034e-13
1.77461e-13
-1.58354e-13
1.77138e-13
-7.80873e-14
1.77281e-13
-3.12849e-14
1.76887e-13
1.70662e-14
1.73588e-13
6.7356e-14
1.67e-13
1.25394e-13
1.42595e-13
2.18651e-13
1.18528e-13
4.42032e-13
1.2587e-13
8.18408e-13
1.62251e-13
9.85053e-13
-2.26045e-13
9.63304e-13
-4.07925e-13
8.09547e-12
-1.39659e-12
-1.0513e-11
-1.56225e-12
-7.22529e-12
-3.59311e-12
6.15352e-12
-2.36787e-13
-2.50805e-12
2.43529e-13
-7.76785e-14
2.56384e-13
5.30408e-13
1.97474e-13
9.2942e-13
1.81273e-13
5.15507e-13
1.81138e-13
2.48182e-13
1.75298e-13
1.04165e-13
1.83429e-13
3.95315e-14
1.68675e-13
4.15334e-14
1.85736e-13
5.27642e-14
1.55402e-13
1.83066e-13
1.87599e-13
6.42747e-13
1.71383e-13
1.74337e-12
1.62924e-13
8.55049e-12
3.11641e-12
-1.56844e-12
1.91264e-12
-2.81223e-12
4.41226e-12
-4.83155e-12
-5.02114e-12
-5.67162e-12
2.15481e-12
-1.06376e-12
5.85016e-12
-1.54009e-14
-1.08035e-12
1.51308e-12
-4.86056e-13
1.25372e-12
-6.62121e-12
6.66396e-13
-2.8052e-12
3.86067e-13
4.11029e-13
2.3638e-13
1.03212e-12
1.90445e-13
3.59284e-13
1.84444e-13
2.81546e-13
1.85083e-13
5.9357e-14
1.82095e-13
-1.06046e-13
1.79186e-13
-1.55445e-13
1.77726e-13
-7.66273e-14
1.7747e-13
-3.10282e-14
1.77052e-13
1.7484e-14
1.7407e-13
7.03376e-14
1.68151e-13
1.31314e-13
1.45094e-13
2.41708e-13
1.2526e-13
4.61865e-13
1.3937e-13
8.04298e-13
2.05471e-13
9.18951e-13
2.65935e-13
9.0284e-13
2.08187e-16
8.3612e-12
-1.51776e-12
-8.99502e-12
-1.82679e-12
-6.91626e-12
2.37472e-12
1.95201e-12
2.2237e-13
-3.55703e-13
2.93822e-13
-1.49131e-13
2.43268e-13
5.80962e-13
1.89479e-13
9.83209e-13
1.78457e-13
5.26529e-13
1.80064e-13
2.46576e-13
1.74767e-13
1.09462e-13
1.83063e-13
3.1236e-14
1.68786e-13
5.58104e-14
1.87538e-13
3.40118e-14
1.60996e-13
2.09608e-13
2.15596e-13
5.88147e-13
2.41961e-13
1.717e-12
7.51663e-13
8.04078e-12
2.67301e-12
-1.62076e-12
3.7334e-12
-1.93037e-12
4.72187e-12
-4.09186e-12
-2.85965e-12
-4.48033e-12
2.54328e-12
-1.1431e-13
1.48414e-12
3.52532e-13
-1.54719e-12
1.52212e-12
-1.65564e-12
1.13886e-12
-6.23794e-12
5.87347e-13
-2.25369e-12
3.39787e-13
6.5859e-13
2.27093e-13
1.14482e-12
1.92223e-13
3.94154e-13
1.8811e-13
2.85659e-13
1.9e-13
5.74666e-14
1.84539e-13
-1.00585e-13
1.80076e-13
-1.50982e-13
1.77603e-13
-7.41542e-14
1.77089e-13
-3.0515e-14
1.76627e-13
1.79461e-14
1.74086e-13
7.28788e-14
1.68782e-13
1.36618e-13
1.47999e-13
2.62491e-13
1.31675e-13
4.7819e-13
1.49201e-13
7.86772e-13
2.13397e-13
8.54756e-13
3.32715e-13
7.83522e-13
-3.54238e-14
8.72934e-12
-1.32557e-12
-7.70487e-12
-1.61159e-12
-6.63024e-12
1.71363e-12
-1.37321e-12
3.93899e-13
9.6403e-13
3.65678e-13
-1.20911e-13
2.28503e-13
7.18138e-13
1.81816e-13
1.0299e-12
1.75525e-13
5.32821e-13
1.78313e-13
2.43788e-13
1.73941e-13
1.13834e-13
1.81501e-13
2.3676e-14
1.69755e-13
6.75563e-14
1.86248e-13
1.75184e-14
1.6978e-13
2.26077e-13
2.36763e-13
5.21164e-13
3.28016e-13
1.62575e-12
9.17616e-13
7.45119e-12
2.02768e-12
3.04201e-13
1.95799e-13
2.74899e-13
2.93019e-14
2.39713e-13
3.51865e-14
3.80514e-13
-1.40801e-13
-1.52557e-14
3.9577e-13
6.01695e-13
9.41037e-14
6.34129e-13
-3.13188e-15
8.0368e-13
-1.34365e-13
1.67847e-12
-1.0156e-12
-2.36185e-12
4.02507e-12
6.857e-13
-9.1596e-14
7.22733e-13
-4.0165e-14
7.57883e-13
-1.69515e-13
7.16639e-13
-9.74351e-13
-2.48447e-12
8.39262e-13
5.9904e-13
-1.90636e-13
5.97864e-13
-3.89889e-14
5.18715e-13
-9.03667e-14
-3.50168e-14
-4.20619e-13
-1.53591e-12
-9.83581e-13
3.09364e-13
2.70375e-13
1.80008e-13
-2.40611e-13
-1.77652e-12
8.22276e-13
3.30689e-12
6.44534e-12
-9.01198e-13
3.5881e-12
-2.40724e-15
2.90257e-12
3.22881e-12
2.27535e-12
2.11136e-12
4.55897e-12
-3.83081e-12
6.62336e-12
-3.72003e-12
3.6275e-12
-3.24208e-12
1.57866e-12
-2.04853e-13
8.94839e-13
1.34241e-12
8.91231e-13
1.14842e-12
8.73175e-13
4.1221e-13
8.80116e-13
2.78718e-13
8.76344e-13
6.12393e-14
8.46649e-13
-7.0891e-14
8.0988e-13
-1.14213e-13
7.91018e-13
-5.52926e-14
7.84621e-13
-2.41171e-14
7.81197e-13
2.13696e-14
7.76542e-13
7.75334e-14
7.61374e-13
1.51787e-13
7.0783e-13
3.16034e-13
6.58859e-13
5.27161e-13
7.55069e-13
6.90562e-13
7.63165e-13
8.46659e-13
3.11921e-13
1.23477e-12
9.19358e-13
8.1219e-12
-5.54446e-12
-1.24105e-12
-8.84174e-12
-3.33296e-12
-1.20401e-11
1.82518e-12
1.42113e-12
-1.24972e-11
1.64155e-12
-3.41339e-13
8.42477e-13
1.51722e-12
7.2559e-13
1.14678e-12
7.49656e-13
5.08755e-13
7.68799e-13
2.24645e-13
7.77369e-13
1.05264e-13
7.74413e-13
2.66319e-14
7.91078e-13
5.08911e-14
7.94063e-13
1.45342e-14
8.92512e-13
1.27628e-13
1.21535e-12
1.98328e-13
2.25366e-12
5.87437e-13
8.04942e-12
1.65543e-12
5.92303e-14
2.89135e-12
4.44061e-12
-1.51774e-12
3.50789e-12
-2.03924e-12
5.19095e-13
2.4062e-13
9.48956e-13
2.80776e-12
-4.55782e-13
3.30569e-12
-4.32874e-12
3.4304e-12
-3.84475e-12
1.17033e-12
-9.82012e-13
2.46785e-13
7.18694e-13
3.71032e-13
1.21817e-12
7.09918e-13
8.09538e-13
7.85049e-13
3.37079e-13
8.20869e-13
2.42897e-13
8.16219e-13
6.58892e-14
7.82517e-13
-3.71888e-14
7.38984e-13
-7.06793e-14
7.17447e-13
-3.37557e-14
7.0339e-13
-1.00596e-14
7.02612e-13
2.21469e-14
7.12994e-13
6.7152e-14
7.27027e-13
1.37753e-13
7.49603e-13
2.93459e-13
7.83041e-13
4.93722e-13
8.8101e-13
5.92593e-13
7.75021e-13
9.52649e-13
4.65208e-13
1.54458e-12
2.71302e-12
5.87408e-12
2.68754e-13
1.20322e-12
-2.31124e-12
-7.5297e-13
-1.43312e-12
9.47063e-13
1.63859e-13
-1.40942e-11
1.31136e-13
-3.08615e-13
2.1498e-13
1.43337e-12
5.10194e-13
8.51567e-13
6.22486e-13
3.96463e-13
6.68336e-13
1.78795e-13
6.90227e-13
8.33733e-14
6.91947e-13
2.49118e-14
7.16658e-13
2.61807e-14
7.28417e-13
2.77474e-15
8.54944e-13
1.10128e-15
1.21169e-12
-1.58419e-13
2.31826e-12
-5.19128e-13
8.93589e-12
-4.9622e-12
-2.54781e-12
2.77752e-12
2.50235e-12
2.04625e-12
4.23916e-12
9.88417e-13
1.57692e-12
8.9857e-13
1.0388e-12
2.77627e-12
-2.33348e-12
1.42245e-12
-2.97492e-12
1.93596e-14
-2.44166e-12
-5.4506e-13
-4.17592e-13
-3.10718e-13
4.84352e-13
1.54723e-13
7.52727e-13
4.92732e-13
4.7153e-13
5.96913e-13
2.32897e-13
6.64914e-13
1.74897e-13
6.70353e-13
6.04498e-14
6.4071e-13
-7.546e-15
6.04556e-13
-3.45248e-14
5.85158e-13
-1.43576e-14
5.75386e-13
-2.87492e-16
5.79014e-13
1.85188e-14
5.97635e-13
4.85311e-14
6.36254e-13
9.91334e-14
7.16079e-13
2.13634e-13
8.4196e-13
3.67842e-13
9.76447e-13
4.58106e-13
1.17046e-12
7.58641e-13
1.47328e-12
1.24175e-12
3.99266e-12
3.3547e-12
4.2106e-12
9.85281e-13
4.61722e-12
-1.15958e-12
7.41451e-12
-1.85024e-12
-3.19194e-13
-6.3605e-12
-6.52624e-13
2.48144e-14
-8.28838e-14
8.63631e-13
2.92373e-13
4.7631e-13
4.51036e-13
2.378e-13
5.18891e-13
1.1094e-13
5.4873e-13
5.35344e-14
5.58404e-13
1.52375e-14
5.76538e-13
8.04677e-15
5.94855e-13
-1.55429e-14
6.90227e-13
-9.42703e-14
1.00231e-12
-4.70499e-13
1.88671e-12
-1.40353e-12
6.72035e-12
-9.79584e-12
-2.90863e-12
1.27614e-12
2.42633e-13
2.21041e-12
3.3049e-12
3.19285e-12
5.94477e-13
3.99344e-12
2.38213e-13
2.68474e-12
-1.02477e-12
5.81989e-13
-8.72174e-13
-1.41143e-12
-4.48248e-13
-1.17523e-12
-6.53791e-13
-6.12409e-13
-7.84657e-14
-1.11924e-13
2.52242e-13
1.84677e-13
1.74928e-13
3.18658e-13
9.89167e-14
4.14911e-13
7.86436e-14
4.45295e-13
3.00664e-14
4.34204e-13
3.54439e-15
4.08172e-13
-8.49212e-15
3.95806e-13
-1.9925e-15
3.92596e-13
2.92338e-15
4.00849e-13
1.02655e-14
4.25831e-13
2.35488e-14
4.78474e-13
4.64911e-14
5.9265e-13
9.94576e-14
7.85984e-13
1.74508e-13
9.92171e-13
2.51919e-13
1.23403e-12
5.16777e-13
1.58364e-12
8.92152e-13
4.26088e-12
6.77454e-13
5.20704e-12
3.91185e-14
4.60602e-12
-5.58558e-13
3.85071e-12
-1.09493e-12
-7.86742e-13
-1.72304e-12
-8.49195e-13
8.72677e-14
-2.21035e-13
2.35471e-13
9.57547e-14
1.5952e-13
2.55476e-13
7.80781e-14
3.27062e-13
3.93545e-14
3.59471e-13
2.11251e-14
3.72143e-13
2.56526e-15
3.79944e-13
2.46359e-16
3.84705e-13
-2.03043e-14
3.74713e-13
-8.42781e-14
3.00586e-13
-3.96371e-13
-3.29253e-13
-7.73696e-13
-4.8808e-12
-5.2443e-12
-1.63507e-12
-1.53388e-12
1.77101e-12
2.36549e-12
2.6037e-12
1.57893e-12
7.06756e-13
2.58507e-13
-3.95284e-13
-4.73749e-13
-2.21507e-13
-4.6579e-14
5.23377e-14
1.30981e-13
1.61048e-13
1.64592e-13
1.561e-13
1.54108e-13
1.57031e-13
1.67296e-13
1.90845e-13
2.37336e-13
3.36794e-13
5.11302e-13
7.6322e-13
1.28e-12
2.17215e-12
2.8496e-12
2.88872e-12
2.33016e-12
1.23523e-12
-4.87809e-13
-4.00542e-13
-1.65071e-13
-5.55046e-15
7.25277e-14
1.11882e-13
1.33007e-13
1.35573e-13
1.35819e-13
1.15515e-13
3.12366e-14
-3.65135e-13
-1.13883e-12
-6.38313e-12
)
;

boundaryField
{
    AirInlet
    {
        type            calculated;
        value           nonuniform List<scalar> 5(-2e-13 -2e-13 -2e-13 -2e-13 -2e-13);
    }
    WaterInlet
    {
        type            calculated;
        value           nonuniform List<scalar> 10(-5e-13 -5e-13 -5e-13 -5e-13 -5e-13 -5e-13 -5e-13 -5e-13 -5e-13 -5e-13);
    }
    ChannelWall
    {
        type            calculated;
        value           uniform 0;
    }
    Outlet
    {
        type            calculated;
        value           nonuniform List<scalar> 
15
(
1.10871e-11
4.8945e-12
-9.45776e-12
-1.05422e-11
-8.41015e-12
-4.59411e-14
5.07646e-13
7.39378e-13
1.19506e-12
1.56295e-12
1.00179e-11
1.15429e-11
7.08117e-12
-6.15435e-12
-8.0182e-12
)
;
    }
    FrontAndBack
    {
        type            empty;
        value           nonuniform 0();
    }
}


// ************************************************************************* //
