/*--------------------------------*- C++ -*----------------------------------*\
| =========                 |                                                 |
| \\      /  F ield         | OpenFOAM: The Open Source CFD Toolbox           |
|  \\    /   O peration     | Version:  2.3.0                                 |
|   \\  /    A nd           | Web:      www.OpenFOAM.org                      |
|    \\/     M anipulation  |                                                 |
\*---------------------------------------------------------------------------*/
FoamFile
{
    version     2.0;
    format      ascii;
    class       volVectorField;
    location    "0.076";
    object      U;
}
// * * * * * * * * * * * * * * * * * * * * * * * * * * * * * * * * * * * * * //

dimensions      [0 1 -1 0 0 0 0];

internalField   nonuniform List<vector> 
725
(
(0.0452228 0.00699125 -3.30851e-31)
(0.0545715 0.00165291 6.83288e-32)
(0.0372049 -0.000115272 4.01353e-32)
(0.0504568 -0.00218065 0)
(0.0281551 -0.00491038 -3.6364e-32)
(0.0863172 0.0138366 -1.46846e-30)
(0.112461 0.00754434 2.59162e-31)
(0.0780818 0.00379175 1.54665e-31)
(0.0994104 0.0018169 0)
(0.0375917 0.00150365 -2.1353e-31)
(0.0980658 0.00926587 -3.09946e-31)
(0.129702 0.0117911 2.53232e-32)
(0.090459 0.00803653 1.17252e-31)
(0.120922 0.00751572 0)
(0.0558797 -0.00475482 -2.89405e-31)
(0.0868791 0.00263041 1.97951e-30)
(0.109139 0.0126192 -4.13263e-32)
(0.0724502 0.00826256 6.31142e-32)
(0.0977942 0.00402014 0)
(0.0318139 -0.0180033 3.0765e-30)
(0.0450624 0.00131101 2.05307e-30)
(0.0503094 0.00808061 -1.93539e-31)
(0.02831 0.00442227 -3.10636e-32)
(0.0381384 0.00157225 7.53754e-31)
(-0.0370923 -0.0182581 3.15573e-30)
(0.104667 -0.0217675 0)
(0.109199 0.0249402 0)
(0.00435175 0.00213549 0)
(0.276229 -0.0109339 0)
(0.0442292 0.0087771 0)
(0.0491317 -0.15198 0)
(-0.331147 0.0246475 0)
(-0.151185 -0.0213688 0)
(-0.111886 -0.0163655 0)
(-0.00828759 -0.00590956 0)
(0.00380493 -0.00248936 0)
(0.0223656 -0.000298787 0)
(0.017527 0.000639941 0)
(0.0146225 0.000353573 0)
(0.0139446 8.02553e-05 0)
(0.0146886 -1.9744e-05 0)
(0.0151957 6.73778e-05 0)
(0.0150379 0.000136872 0)
(0.0142791 0.000266982 0)
(0.0128155 0.000459681 0)
(0.0100333 0.000835973 0)
(0.00770859 0.00098044 0)
(0.00618023 0.00192694 0)
(-0.00600484 0.00146993 0)
(-0.00973271 -0.0052493 0)
(0.0272189 0.00145743 0)
(-0.0312901 -0.0070792 0)
(0.0276493 -0.037824 0)
(0.429597 -0.0294206 0)
(0.353024 -0.0185778 0)
(-0.0372282 0.0483499 0)
(-0.0210251 -0.00159864 0)
(0.0119313 -0.00144404 0)
(0.0252687 7.15537e-05 0)
(0.0247188 0.000684111 0)
(0.0191931 0.000564503 0)
(0.0192888 1.76999e-05 0)
(0.0125679 0.000382664 0)
(0.0242104 -0.000500391 0)
(0.00237817 -0.000177233 0)
(0.0473201 -0.00360132 0)
(-0.00230748 -0.00897309 0)
(0.196925 -0.0334842 0)
(0.234967 -0.241179 0)
(1.30908 -0.123542 0)
(0.148446 -0.0568491 0)
(0.180356 0.0351084 0)
(0.184965 -0.117449 0)
(0.853122 0.0248132 0)
(0.409301 0.159924 0)
(0.0889897 0.158702 0)
(-0.35307 0.0516741 0)
(-0.193632 -0.0526854 0)
(-0.158834 -0.0712034 0)
(-0.00754331 -0.0414259 0)
(0.0148628 -0.0156949 0)
(0.0439959 -0.00383941 0)
(0.0382266 0.00265529 0)
(0.0346299 0.00132428 0)
(0.0351613 -0.000275769 0)
(0.0380523 -0.000741269 0)
(0.0401954 -0.000228786 0)
(0.0409369 0.000192679 0)
(0.040717 0.000681441 0)
(0.0397411 0.00118741 0)
(0.0377313 0.00168697 0)
(0.0383662 0.000728808 0)
(0.0397188 0.00371298 0)
(0.0292375 0.00920455 0)
(-0.00380001 -0.0076097 0)
(0.00492131 0.00275642 0)
(-0.0328245 0.0303208 0)
(0.0697776 -0.191238 0)
(0.692013 -0.126989 0)
(0.563061 0.127611 0)
(-0.0370324 0.176711 0)
(-0.0283096 -0.0151734 0)
(0.0289976 -0.0194755 0)
(0.0537793 -0.00530055 0)
(0.055618 0.00172838 0)
(0.0470285 0.00238899 0)
(0.0474805 0.000993283 0)
(0.0361033 0.000692871 0)
(0.0558316 -0.000101332 0)
(0.0175275 -0.00175024 0)
(0.0857371 -0.00670431 0)
(-0.0141746 -0.0293797 0)
(0.212543 -0.0872933 0)
(0.0669677 -0.496927 0)
(0.653306 -0.202269 0)
(0.249661 -0.134507 0)
(0.259229 0.0661771 0)
(0.134495 -0.388248 0)
(0.961871 -0.0251934 0)
(0.715246 0.240475 0)
(0.990382 0.138131 0)
(-0.272218 0.373275 0)
(-0.202289 -0.0463464 0)
(-0.119816 -0.127152 0)
(0.031116 -0.0757471 0)
(0.0375067 -0.0289684 0)
(0.0596023 -0.00773835 0)
(0.0536694 0.00481867 0)
(0.0496369 0.0018396 0)
(0.0514802 -0.00160719 0)
(0.0560831 -0.00243239 0)
(0.0595597 -0.00114761 0)
(0.0610663 -0.000180619 0)
(0.0613682 0.00075152 0)
(0.0608262 0.00145084 0)
(0.0590216 0.00180052 0)
(0.0598224 -0.00054851 0)
(0.0570481 0.00439489 0)
(0.0467805 0.0226128 0)
(0.00686117 0.00824189 0)
(-0.0193516 -0.00763209 0)
(-0.0338166 0.0290975 0)
(0.0122852 -0.363919 0)
(0.521796 -0.211316 0)
(0.488263 0.225044 0)
(0.100707 0.360142 0)
(0.0847989 -0.0137573 0)
(0.0668953 -0.0374547 0)
(0.0811431 -0.0107655 0)
(0.0785153 0.00370013 0)
(0.0676883 0.00488742 0)
(0.0681194 0.00210773 0)
(0.0555686 0.00130212 0)
(0.0774359 -0.000163369 0)
(0.0339784 -0.00131109 0)
(0.103298 -0.00672067 0)
(-0.0219703 -0.0302949 0)
(0.0856114 -0.0845025 0)
(-0.323653 -0.340677 0)
(-1.11787 -0.014496 0)
(0.119729 -0.227144 0)
(0.213194 0.0782322 0)
(0.43809 -0.324654 0)
(0.503102 -0.0616524 0)
(0.661176 0.394417 0)
(-0.432334 0.34953 0)
(-0.514443 0.387084 0)
(-0.206127 -0.158619 0)
(-0.00220106 -0.203551 0)
(0.119954 -0.0969281 0)
(0.0790773 -0.0327659 0)
(0.0755636 -0.00840431 0)
(0.0674115 0.0078567 0)
(0.0628231 0.00228541 0)
(0.0647934 -0.00339342 0)
(0.0698906 -0.00470913 0)
(0.0738559 -0.00236542 0)
(0.0755904 -0.0007555 0)
(0.0760895 0.000729147 0)
(0.0756318 0.00181478 0)
(0.0731479 0.00248463 0)
(0.0717477 0.000248447 0)
(0.0594912 0.00763099 0)
(0.0480191 0.033614 0)
(0.0184416 0.0277721 0)
(-0.0217813 0.00643786 0)
(-0.193214 0.0678405 0)
(-0.194508 -0.516818 0)
(0.106163 -0.259898 0)
(-0.135381 0.313105 0)
(0.222758 0.376342 0)
(0.268663 0.04344 0)
(0.144855 -0.036521 0)
(0.105657 -0.0115128 0)
(0.0938017 0.00793416 0)
(0.0815921 0.00790381 0)
(0.0823315 0.0031892 0)
(0.069828 0.00204728 0)
(0.0919161 0.000333572 0)
(0.0474465 0.000586652 0)
(0.113539 -0.00120684 0)
(-0.0212596 -0.00479364 0)
(0.0176037 -0.0104433 0)
(-0.407385 0.00675929 0)
(-1.23784 -0.0217871 0)
(0.00520779 -0.303501 0)
(0.0259533 -0.0633399 0)
(0.129567 -0.445614 0)
(0.334348 -0.160501 0)
(0.196119 0.508493 0)
(-0.617075 1.08777 0)
(-0.170319 0.321017 0)
(0.323329 -0.321679 0)
(0.295646 -0.271735 0)
(0.259616 -0.0834245 0)
(0.131332 -0.0115499 0)
(0.0872748 -0.00119765 0)
(0.0774093 0.0108643 0)
(0.0748271 0.00280414 0)
(0.0762126 -0.0050832 0)
(0.0802622 -0.0071204 0)
(0.0835545 -0.00350958 0)
(0.0848718 -0.00133727 0)
(0.0852806 0.000743487 0)
(0.0847676 0.00243381 0)
(0.0815793 0.00424337 0)
(0.0776611 0.00421493 0)
(0.0569222 0.0143594 0)
(0.0462577 0.0395135 0)
(0.0392342 0.0430817 0)
(0.00294432 0.0435053 0)
(-0.0858954 0.228883 0)
(-0.438063 -0.660066 0)
(-0.206155 -0.340511 0)
(0.359665 0.108583 0)
(0.200785 0.197368 0)
(0.373039 0.0942395 0)
(0.243818 0.0164989 0)
(0.125969 0.0153731 0)
(0.100102 0.017666 0)
(0.0888998 0.0112374 0)
(0.0908963 0.00375343 0)
(0.0790391 0.00332445 0)
(0.100792 -0.000734328 0)
(0.0572902 0.00465183 0)
(0.123985 0.00192728 0)
(-0.00714853 0.0259197 0)
(0.083671 0.0588673 0)
(-0.307744 0.325051 0)
(-0.909139 0.0758245 0)
(-0.110066 -0.223466 0)
(-0.953852 0.0139705 0)
(-1.174 -0.512219 0)
(-1.65854 -0.0782686 0)
(-2.63069 0.578972 0)
(-0.385257 0.684851 0)
(0.332624 0.158284 0)
(0.809043 -0.353258 0)
(0.475351 -0.238546 0)
(0.301741 -0.0358376 0)
(0.147241 0.0200827 0)
(0.0942751 0.0082421 0)
(0.0840068 0.0126063 0)
(0.0827752 0.00300104 0)
(0.0833415 -0.0054846 0)
(0.0850343 -0.00781599 0)
(0.0867058 -0.0038364 0)
(0.0873782 -0.00150654 0)
(0.0876893 0.000808406 0)
(0.0872148 0.0029422 0)
(0.0841035 0.00540897 0)
(0.0801273 0.00779865 0)
(0.0582269 0.018814 0)
(0.0511857 0.0410972 0)
(0.0497074 0.0503528 0)
(0.0181982 0.0259949 0)
(0.147805 0.35657 0)
(-0.512174 -0.620012 0)
(-0.534748 -0.359353 0)
(-0.124387 0.0057265 0)
(-0.126617 0.280689 0)
(0.0533339 0.0634572 0)
(0.173337 0.03251 0)
(0.114336 0.0379901 0)
(0.0959448 0.0232802 0)
(0.0889573 0.0122265 0)
(0.0927387 0.00443828 0)
(0.0808327 0.00294865 0)
(0.103105 0.000183475 0)
(0.0596547 0.00458245 0)
(0.129243 0.00515111 0)
(0.00279613 0.0341297 0)
(0.15557 0.081509 0)
(-0.122576 0.429043 0)
(0.194816 0.223052 0)
(-0.110594 -0.158892 0)
(-1.2478 0.0608935 0)
(-1.67431 -0.476503 0)
(-2.50703 -0.0226272 0)
(-4.0889 0.641818 0)
(-0.326469 0.378601 0)
(0.565851 0.101361 0)
(0.874923 -0.354139 0)
(0.490292 -0.213649 0)
(0.295798 -0.0179712 0)
(0.14752 0.0305734 0)
(0.0964769 0.0114186 0)
(0.0868089 0.0131559 0)
(0.0865793 0.00302146 0)
(0.0866374 -0.00554558 0)
(0.087034 -0.0079467 0)
(0.0878273 -0.00391085 0)
(0.0881213 -0.00154801 0)
(0.0883158 0.000824994 0)
(0.0878385 0.00311823 0)
(0.0848059 0.00577454 0)
(0.0809799 0.00908321 0)
(0.0591271 0.0202549 0)
(0.0545343 0.0413356 0)
(0.0599841 0.0512832 0)
(0.0388046 0.0221919 0)
(-0.0772926 0.378429 0)
(-0.511289 -0.596438 0)
(-0.706123 -0.372748 0)
(-3.16101 0.117034 0)
(-0.261565 0.177356 0)
(-0.00927713 0.035807 0)
(0.155974 0.0293735 0)
(0.108946 0.0422474 0)
(0.0942553 0.0245475 0)
(0.0887093 0.0123857 0)
(0.093149 0.00475135 0)
(0.0812611 0.00260265 0)
(0.103686 0.000918785 0)
(0.0603308 0.0039554 0)
(0.131032 0.00676635 0)
(0.00647434 0.0344176 0)
(0.175452 0.0856182 0)
(-0.101914 0.429022 0)
(0.138789 0.20312 0)
(-0.161632 -0.092299 0)
(-1.62684 0.137533 0)
(-1.62587 -0.409267 0)
(-3.17812 0.0447063 0)
(-2.80236 0.591123 0)
(-0.120775 0.0750477 0)
(0.706034 0.061706 0)
(0.867194 -0.347814 0)
(0.470891 -0.184926 0)
(0.270239 -0.00103968 0)
(0.143518 0.0400806 0)
(0.0979957 0.0143725 0)
(0.0893923 0.0136029 0)
(0.0899816 0.00301358 0)
(0.0895963 -0.00551249 0)
(0.0887295 -0.00796268 0)
(0.0886314 -0.00392616 0)
(0.088576 -0.00156545 0)
(0.0886703 0.000843328 0)
(0.0882286 0.00328905 0)
(0.0853287 0.00611289 0)
(0.0818096 0.01034 0)
(0.0605395 0.0215438 0)
(0.0586067 0.0411943 0)
(0.0719876 0.0503226 0)
(0.0660709 0.0359818 0)
(-0.111564 0.400142 0)
(-0.476671 -0.551178 0)
(-0.963725 -0.370064 0)
(-2.03788 0.248691 0)
(-0.161327 -0.0292936 0)
(0.0479022 0.00666323 0)
(0.146915 0.0262497 0)
(0.103174 0.045208 0)
(0.0925446 0.025455 0)
(0.0881903 0.0124281 0)
(0.0931341 0.00506849 0)
(0.0813342 0.00218285 0)
(0.103915 0.00171492 0)
(0.0608253 0.00308643 0)
(0.132676 0.00845196 0)
(0.0102423 0.0332567 0)
(0.196009 0.0875138 0)
(-0.0539028 0.430166 0)
(0.317089 0.170161 0)
(-0.198089 0.0397028 0)
(-1.35868 0.206224 0)
(-1.5132 -0.303258 0)
(-3.75575 0.103078 0)
(-0.949636 0.368241 0)
(-0.531699 -0.0414829 0)
(0.593062 0.0129546 0)
(0.842501 -0.338738 0)
(0.431556 -0.155266 0)
(0.241806 0.0139639 0)
(0.137328 0.0482815 0)
(0.098764 0.0169376 0)
(0.0915858 0.0139541 0)
(0.0928505 0.00298245 0)
(0.0920969 -0.00539336 0)
(0.0900469 -0.00787013 0)
(0.0890824 -0.0038803 0)
(0.0887194 -0.00156211 0)
(0.0887171 0.000863545 0)
(0.0883606 0.00344781 0)
(0.0856845 0.00642523 0)
(0.0825681 0.0115366 0)
(0.0624013 0.0226403 0)
(0.0634799 0.040628 0)
(0.0825161 0.0476938 0)
(0.0968769 0.0455928 0)
(0.199287 0.410576 0)
(-0.319582 -0.490371 0)
(-1.03053 -0.365816 0)
(0.927307 0.200772 0)
(0.07386 -0.0661641 0)
(0.153663 -0.0069712 0)
(0.135888 0.0266886 0)
(0.0971542 0.0478538 0)
(0.0906391 0.0261118 0)
(0.0873906 0.0123833 0)
(0.0928026 0.00535808 0)
(0.0811217 0.00175043 0)
(0.103782 0.00247685 0)
(0.0611239 0.00212974 0)
(0.134195 0.00994724 0)
(0.0142719 0.0309979 0)
(0.220597 0.0874049 0)
(0.0184223 0.417661 0)
(0.635207 0.142577 0)
(-0.287949 0.211423 0)
(-1.04304 0.226168 0)
(-1.13361 -0.192654 0)
(-3.48732 0.109969 0)
(0.0220523 0.140248 0)
(-0.31666 -0.0721974 0)
(0.659731 -0.0579563 0)
(0.80489 -0.323511 0)
(0.378177 -0.126003 0)
(0.207806 0.0273307 0)
(0.127257 0.0548302 0)
(0.0986905 0.0189785 0)
(0.0933011 0.0142003 0)
(0.0951468 0.00292536 0)
(0.094007 -0.00518859 0)
(0.0908676 -0.0076809 0)
(0.0891739 -0.00378195 0)
(0.0885609 -0.00154341 0)
(0.0884605 0.000884917 0)
(0.0882094 0.00358437 0)
(0.0857968 0.00670564 0)
(0.083225 0.012627 0)
(0.0645684 0.0235411 0)
(0.0685161 0.0397967 0)
(0.0856582 0.0446427 0)
(0.100109 0.0427163 0)
(0.213429 0.432968 0)
(-0.247427 -0.412314 0)
(-1.06767 -0.330928 0)
(0.615409 0.0425424 0)
(0.175501 0.0260762 0)
(0.23857 -0.00702486 0)
(0.129952 0.031607 0)
(0.0913178 0.05042 0)
(0.0885574 0.0265396 0)
(0.0863576 0.0122739 0)
(0.0921369 0.00558916 0)
(0.0806552 0.00136545 0)
(0.103355 0.00309999 0)
(0.0612009 0.00124412 0)
(0.135441 0.0109512 0)
(0.0183346 0.0278307 0)
(0.244051 0.0840032 0)
(0.0686736 0.391547 0)
(0.778428 0.120777 0)
(0.0450011 -0.00134284 0)
(0.0522841 -0.00873297 -8.98522e-33)
(0.0279795 -0.00242841 -7.33533e-31)
(0.0403412 -0.00111515 -1.81753e-30)
(0.0537155 0.0305598 0)
(0.0867823 -0.00294211 0)
(0.112838 -0.0148548 0)
(0.0747567 -0.0119307 0)
(0.168685 -0.0516174 8.6647e-31)
(0.267071 -0.0926047 0)
(0.0976604 -0.00971953 0)
(0.131373 -0.0145852 0)
(0.0784776 -0.017577 0)
(0.150394 -0.0753152 2.43862e-30)
(-0.0137959 -0.14213 0)
(0.0856731 -0.0141448 0)
(0.112786 -0.00922152 0)
(0.0589032 -0.0106502 0)
(0.102343 -0.0431534 -4.97348e-31)
(-0.123086 -0.0993042 0)
(0.0446416 -0.00708741 0)
(0.0543564 -0.00184888 0)
(0.0216379 -0.00220489 0)
(0.0388443 -0.00766797 -5.65585e-32)
(-0.120517 -0.0319256 0)
(0.0770993 0.165077 0)
(0.403206 0.0474562 0)
(0.542155 0.0342921 0)
(0.27508 0.210278 0)
(0.174197 0.118532 0)
(0.342889 -0.138902 0)
(0.731644 -0.189652 0)
(0.63822 -0.251138 0)
(0.237728 -0.0514155 0)
(0.108084 0.0625791 0)
(0.0942458 0.0673787 0)
(0.0963818 0.0227947 0)
(0.0965031 0.0145315 0)
(0.0984754 0.00280582 0)
(0.0961219 -0.00446817 0)
(0.091638 -0.00691039 0)
(0.08856 -0.00339435 0)
(0.0873655 -0.00145955 0)
(0.0869088 0.000949998 0)
(0.0869877 0.00386749 0)
(0.0855808 0.00737529 0)
(0.084934 0.0151552 0)
(0.0712227 0.0255934 0)
(0.0796427 0.0374544 0)
(0.0810112 0.043209 0)
(0.0827314 0.0511446 0)
(0.105633 0.441334 0)
(-0.0600909 -0.23434 0)
(-1.18242 -0.253169 0)
(-1.62373 -0.160882 0)
(0.065934 -0.339798 0)
(0.292578 -0.0254783 0)
(0.0947389 0.0641217 0)
(0.0760621 0.0592207 0)
(0.0824359 0.0273129 0)
(0.0828812 0.011962 0)
(0.0894819 0.00593125 0)
(0.0787374 0.000838395 0)
(0.101456 0.0037987 0)
(0.0608622 -1.24416e-05 0)
(0.138137 0.0107012 0)
(0.0290245 0.0168163 0)
(0.291878 0.0571941 0)
(0.191785 0.273658 0)
(1.20587 0.102571 0)
(0.506692 0.181215 0)
(0.0169032 0.0539741 0)
(-0.240157 -0.0386372 0)
(-0.143747 0.044203 0)
(0.190872 0.0341959 0)
(0.37824 -0.239357 0)
(0.408693 -0.21152 0)
(0.274978 -0.0974242 0)
(0.0288816 0.0337662 0)
(0.018101 0.0728193 0)
(0.0700344 0.0505577 0)
(0.0838759 0.0189301 0)
(0.0889286 0.0132947 0)
(0.0921687 0.00326473 0)
(0.0891795 -0.00269599 0)
(0.0840919 -0.00465446 0)
(0.0804599 -0.00225046 0)
(0.0786958 -0.00087868 0)
(0.0778827 0.00111528 0)
(0.0788637 0.00372702 0)
(0.0797056 0.00751239 0)
(0.0838241 0.0159601 0)
(0.0817764 0.0263169 0)
(0.0986587 0.0317549 0)
(0.0839831 0.0422711 0)
(0.0854993 0.0702041 0)
(0.116055 0.370661 0)
(0.255729 0.0643481 0)
(-0.173777 -0.0710335 0)
(-0.278528 0.0831026 0)
(-0.030491 -0.741904 0)
(0.0467954 -0.00857145 0)
(-0.00737063 0.0838988 0)
(0.0493125 0.0529977 0)
(0.0656953 0.0235421 0)
(0.0709344 0.0104271 0)
(0.0793693 0.00489095 0)
(0.0692879 0.00147635 0)
(0.0928928 0.00185811 0)
(0.0525888 0.000949881 0)
(0.131822 0.00309097 0)
(0.0270456 0.00126419 0)
(0.291944 0.00185838 0)
(0.215775 -0.105133 0)
(1.35942 -0.0843146 0)
(0.244234 0.201354 0)
(0.273452 0.240612 0)
(0.247693 0.0862687 0)
(-0.0531313 0.054686 0)
(0.305234 -0.109576 0)
(0.269424 -0.203944 0)
(0.0503496 -0.158672 0)
(-0.0489463 -0.00931542 0)
(-0.0591785 0.0408567 0)
(-0.0130202 0.0499674 0)
(0.0484088 0.0313037 0)
(0.0601041 0.0146248 0)
(0.0704692 0.0109067 0)
(0.0756608 0.00339737 0)
(0.0732549 -0.000943406 0)
(0.0688424 -0.00251346 0)
(0.0656875 -0.00113576 0)
(0.0642171 -0.000207125 0)
(0.0638188 0.00105854 0)
(0.0654133 0.00294963 0)
(0.06785 0.00608651 0)
(0.0754793 0.0131354 0)
(0.0842334 0.0222354 0)
(0.112298 0.0263556 0)
(0.0914787 0.0428256 0)
(0.126098 0.0735804 0)
(0.265044 0.232633 0)
(0.487661 0.0776302 0)
(0.586697 -0.0391087 0)
(0.996828 -0.0283623 0)
(-0.0347555 -0.490995 0)
(-0.0795142 -0.0120082 0)
(-0.037646 0.0597801 0)
(0.0230357 0.0333913 0)
(0.0449603 0.0162401 0)
(0.0537024 0.0074569 0)
(0.0634381 0.00349021 0)
(0.0541302 0.00109467 0)
(0.0776929 0.000823727 0)
(0.0376077 -0.000463744 0)
(0.115001 -0.00276739 0)
(0.00977171 -0.0165987 0)
(0.263544 -0.0527816 0)
(0.150249 -0.466736 0)
(0.918629 -0.269357 0)
(-0.0385995 0.0562304 0)
(0.242111 0.22774 0)
(0.330992 0.0814536 0)
(0.40178 0.042772 0)
(0.438503 -0.0828619 0)
(0.198725 -0.0915301 0)
(-0.0957101 -0.0614284 0)
(-0.181055 -0.0336451 0)
(-0.0973427 0.00353238 0)
(-0.0391283 0.0236472 0)
(0.0142488 0.0158885 0)
(0.0268394 0.00879543 0)
(0.0419423 0.00678676 0)
(0.0491966 0.00255013 0)
(0.0492765 0.000176295 0)
(0.0466509 -0.000855292 0)
(0.0443896 -0.00027372 0)
(0.0435992 0.000163025 0)
(0.0438223 0.000781526 0)
(0.0458847 0.00185887 0)
(0.0494374 0.00374466 0)
(0.0589228 0.00806026 0)
(0.0740479 0.0141069 0)
(0.111 0.0183973 0)
(0.0917908 0.0348068 0)
(0.14922 0.0576844 0)
(0.288012 0.0729512 0)
(0.528554 0.0208442 0)
(0.728294 -0.0493999 0)
(0.6148 -0.0853489 0)
(-0.0944204 -0.196617 0)
(-0.120583 0.00904543 0)
(-0.0526687 0.0238902 0)
(0.000814752 0.0152499 0)
(0.0230448 0.00777982 0)
(0.0324779 0.00378983 0)
(0.0419933 0.00187687 0)
(0.0341089 0.00051368 0)
(0.0552212 -1.01141e-05 0)
(0.0180062 -0.000920308 0)
(0.0838719 -0.0055852 0)
(-0.0226295 -0.0248071 0)
(0.116272 -0.0664893 0)
(-0.210672 -0.390507 0)
(-0.709231 -0.0179358 0)
(-0.290399 -0.0200847 0)
(0.0322773 0.0755906 0)
(0.274651 -0.0103056 0)
(0.298551 -0.0107101 0)
(0.253067 -0.0246805 0)
(0.11668 -0.00363774 0)
(0.0454513 0.00426046 0)
(-0.00570314 -0.0228224 0)
(-0.0648733 -0.00862676 0)
(-0.0391699 0.00336969 0)
(-0.0106072 0.0026698 0)
(-0.000233969 0.0017038 0)
(0.0112103 0.00137688 0)
(0.0170018 0.00054444 0)
(0.0183688 0.000160409 0)
(0.0178143 -6.10799e-05 0)
(0.0171294 5.79785e-05 0)
(0.0172107 0.000124849 0)
(0.0178968 0.000250157 0)
(0.0198257 0.000529077 0)
(0.0232699 0.000984273 0)
(0.0312694 0.00207859 0)
(0.0446365 0.00361133 0)
(0.0781397 0.0068511 0)
(0.0769694 0.0152182 0)
(0.161021 0.0300604 0)
(0.295006 0.0429641 0)
(0.322293 -0.00896213 0)
(0.375498 -0.0129313 0)
(0.225862 0.0351841 0)
(-0.0527628 -0.0266853 0)
(-0.0487062 0.00163003 0)
(-0.0357755 0.00125163 0)
(-0.00512642 0.00146043 0)
(0.00497831 0.000809546 0)
(0.0104251 0.000427508 0)
(0.015807 0.000413695 0)
(0.0112562 -0.000240526 0)
(0.023259 0.000143043 0)
(-0.000283363 -0.00117179 0)
(0.035079 -0.00208623 0)
(-0.0343245 -0.0124399 0)
(-0.0313634 -0.0218345 0)
(-0.258904 -0.130817 0)
(-0.947439 -0.0861333 0)
)
;

boundaryField
{
    AirInlet
    {
        type            fixedValue;
        value           uniform (0.1 0 0);
    }
    WaterInlet
    {
        type            fixedValue;
        value           uniform (0.1 0 0);
    }
    ChannelWall
    {
        type            fixedValue;
        value           uniform (0 0 0);
    }
    Outlet
    {
        type            pressureInletOutletVelocity;
        value           nonuniform List<vector> 
15
(
(1.30908 -0.123542 0)
(0.653306 -0.202269 0)
(-1.05086 -0 0)
(-1.17135 -0 0)
(-0.934461 0 0)
(-0.0229705 0 0)
(0.138789 0.20312 0)
(0.317089 0.170161 0)
(0.635207 0.142577 0)
(0.778428 0.120777 0)
(1.20587 0.102571 0)
(1.35942 -0.0843146 0)
(0.918629 -0.269357 0)
(-0.683817 -0 0)
(-0.890911 -0 0)
)
;
    }
    FrontAndBack
    {
        type            empty;
    }
}


// ************************************************************************* //
