/*--------------------------------*- C++ -*----------------------------------*\
| =========                 |                                                 |
| \\      /  F ield         | OpenFOAM: The Open Source CFD Toolbox           |
|  \\    /   O peration     | Version:  2.3.0                                 |
|   \\  /    A nd           | Web:      www.OpenFOAM.org                      |
|    \\/     M anipulation  |                                                 |
\*---------------------------------------------------------------------------*/
FoamFile
{
    version     2.0;
    format      ascii;
    class       volScalarField;
    location    "0.045";
    object      T;
}
// * * * * * * * * * * * * * * * * * * * * * * * * * * * * * * * * * * * * * //

dimensions      [0 0 0 1 0 0 0];

internalField   nonuniform List<scalar> 
12225
(
1.00702
1.00235
1.00097
1.00057
1.00029
1.0001
1.00001
0.999957
0.999925
0.999902
0.999876
0.999828
0.999715
0.999432
0.998727
0.996985
0.992625
0.981454
0.99388
0.995662
0.997505
0.998595
0.999122
0.9994
0.999575
0.999689
0.999762
0.999806
0.999825
0.999808
0.999717
0.999456
0.998787
0.997132
0.993098
0.983303
1.00047
1.00054
1.00043
1.00038
1.00027
1.00015
1.00007
1.00002
0.999984
0.999956
0.999927
0.999878
0.999769
0.999508
0.998874
0.99736
0.993847
0.986074
1.00033
0.999923
0.999616
0.999668
0.999738
0.999771
0.999797
0.999821
0.999839
0.999851
0.99985
0.999823
0.999735
0.999506
0.998944
0.99763
0.994723
0.988791
1.00018
1
0.999776
0.999808
0.999867
0.999886
0.999893
0.999898
0.9999
0.999899
0.999889
0.999857
0.999773
0.999565
0.999075
0.997975
0.995666
0.991288
1.00003
0.999994
0.999833
0.999822
0.999855
0.999871
0.999877
0.999884
0.999888
0.999889
0.999882
0.999855
0.999783
0.999606
0.999198
0.998316
0.996556
0.99341
1.00001
1.00003
0.999913
0.999874
0.999883
0.999891
0.999895
0.999898
0.999901
0.999901
0.999893
0.99987
0.999808
0.999661
0.999334
0.998655
0.99736
0.995155
1
1.00003
0.999948
0.999903
0.9999
0.999903
0.999904
0.999906
0.999907
0.999907
0.9999
0.99988
0.999828
0.999706
0.999443
0.998914
0.997938
0.996326
1
1.00003
0.99997
0.999929
0.999919
0.999917
0.999916
0.999916
0.999916
0.999915
0.999908
0.999891
0.999847
0.999747
0.999535
0.999122
0.998381
0.997186
0.999998
1.00002
0.999986
0.999952
0.999938
0.999932
0.999929
0.999927
0.999926
0.999924
0.999917
0.999903
0.999867
0.999788
0.999626
0.999318
0.99878
0.99793
0.999998
1.00002
0.999996
0.99997
0.999956
0.999948
0.999943
0.99994
0.999938
0.999935
0.999928
0.999916
0.999889
0.99983
0.999712
0.999493
0.999122
0.998546
0.999998
1.00001
1
0.999983
0.999972
0.999964
0.999958
0.999954
0.99995
0.999946
0.999941
0.999931
0.999911
0.999869
0.999788
0.999642
0.999399
0.999031
0.999998
1.00001
1.00001
0.999993
0.999984
0.999977
0.999972
0.999967
0.999962
0.999959
0.999955
0.999946
0.999932
0.999904
0.999851
0.99976
0.999611
0.99939
0.999998
1.00001
1.00001
1
0.999993
0.999986
0.999982
0.999979
0.999975
0.999971
0.999967
0.999961
0.999951
0.999933
0.999901
0.999848
0.999764
0.999641
0.999998
1.00001
1.00001
1
0.999998
0.999995
0.999991
0.999988
0.999985
0.999982
0.999979
0.999974
0.999968
0.999956
0.999938
0.99991
0.999865
0.999803
0.999999
1.00001
1.00001
1
1
1
0.999997
0.999994
0.999992
0.999989
0.999988
0.999986
0.999981
0.999975
0.999964
0.999949
0.999928
0.999899
0.999998
1.00001
1.00001
1
1
1
1
0.999999
0.999997
0.999996
0.999994
0.999991
0.999989
0.999986
0.999982
0.999973
0.999962
0.99995
0.999999
1
1.00001
1.00001
1.00001
1.00001
1
0.999999
0.999998
0.999998
0.999997
0.999996
0.999993
0.99999
0.999985
0.999981
0.999976
0.999973
0.999999
1.00001
1.00001
1.00001
1.00001
1.00001
1
0.999999
0.999996
0.999995
0.999993
0.999991
0.999989
0.999987
0.999986
0.999982
0.999978
0.999978
0.999998
1.00001
1.00001
1.00001
1
1
1
0.999996
0.999992
0.999989
0.999988
0.999986
0.999984
0.999983
0.999981
0.999978
0.999976
0.999977
0.999997
1.00001
1.00001
1.00001
1
0.999995
0.999992
0.999987
0.999983
0.99998
0.999977
0.999975
0.999973
0.999972
0.999971
0.999969
0.999966
0.999968
0.999997
1.00001
1.00002
1.00001
0.999995
0.999987
0.999982
0.999976
0.999973
0.99997
0.999967
0.999966
0.999966
0.999964
0.999963
0.999962
0.99996
0.999961
0.999996
1.00003
1.00002
0.999994
0.999975
0.999966
0.999959
0.999954
0.999952
0.99995
0.999949
0.999948
0.999948
0.999949
0.999948
0.999948
0.999948
0.999949
0.999994
1.00005
1.00003
0.999984
0.999963
0.999957
0.999953
0.99995
0.999949
0.999948
0.999947
0.999947
0.999948
0.999948
0.999948
0.999948
0.999947
0.999949
0.999986
1.00005
0.999974
0.999913
0.9999
0.9999
0.9999
0.999902
0.999905
0.999908
0.999911
0.999914
0.999918
0.999921
0.999925
0.999927
0.999928
0.999931
1.00011
1.00014
0.999977
0.99993
0.999954
0.99997
0.999971
0.999969
0.999965
0.999962
0.999959
0.999954
0.999952
0.99995
0.999949
0.999948
0.999947
0.999947
1.00029
1.00004
0.999634
0.999556
0.999609
0.999662
0.999706
0.999746
0.999781
0.999809
0.999832
0.99985
0.999865
0.999878
0.999888
0.999897
0.999905
0.999908
1.00089
1.00118
1.00097
1.00079
1.00062
1.00045
1.00031
1.00022
1.00015
1.0001
1.00006
1.00003
1.00001
0.999992
0.999981
0.999974
0.99997
0.999957
0.993498
0.994872
0.996789
0.998012
0.998681
0.999064
0.999313
0.999485
0.999605
0.99969
0.99975
0.999794
0.999827
0.999852
0.999872
0.999888
0.999905
0.999901
1.00657
1.00291
1.00132
1.00082
1.00049
1.00027
1.00014
1.00007
1.00002
0.99999
0.999968
0.999954
0.999944
0.999937
0.999933
0.999931
0.999938
0.999912
0.462711
0.462664
0.462542
0.462365
0.462141
0.461863
0.461535
0.461156
0.460724
0.460243
0.459717
0.459144
0.458527
0.457866
0.457164
0.456422
0.455644
0.45483
0.453984
0.453109
0.452206
0.45128
0.450332
0.449365
0.448384
0.44739
0.446388
0.44538
0.444369
0.443359
0.442353
0.441354
0.440365
0.43939
0.438432
0.437493
0.436577
0.435686
0.434824
0.433994
0.433197
0.432436
0.431715
0.431034
0.430396
0.429804
0.429258
0.42876
0.428312
0.427916
0.427572
0.42728
0.427043
0.42686
0.426731
0.426657
0.426638
0.426673
0.426763
0.426906
0.427101
0.427349
0.427647
0.427996
0.428393
0.428837
0.429327
0.429861
0.430438
0.431056
0.431713
0.432407
0.433137
0.433901
0.434696
0.435521
0.436374
0.437252
0.438155
0.439079
0.440023
0.440985
0.441962
0.442952
0.443954
0.444966
0.445984
0.447008
0.448035
0.449062
0.450089
0.451112
0.452131
0.453142
0.454144
0.455136
0.456114
0.457079
0.458028
0.458959
0.459871
0.460763
0.461634
0.462482
0.463306
0.464106
0.464879
0.465626
0.466345
0.467035
0.467696
0.468326
0.468925
0.469491
0.470024
0.470523
0.470987
0.471414
0.471805
0.472157
0.472471
0.472744
0.472977
0.473167
0.473314
0.473417
0.473475
0.473487
0.473451
0.473366
0.473232
0.473046
0.472808
0.472518
0.472172
0.471771
0.471313
0.470797
0.470221
0.469585
0.468887
0.468125
0.467299
0.466408
0.465449
0.464422
0.463325
0.462157
0.460918
0.459606
0.458218
0.456756
0.455217
0.453599
0.451903
0.450127
0.448269
0.44633
0.444307
0.442201
0.440008
0.43773
0.43537
0.432906
0.430353
0.427712
0.424967
0.422134
0.419213
0.416203
0.413103
0.409914
0.406635
0.403268
0.39982
0.396296
0.392729
0.389109
0.385692
0.381743
0.464178
0.464116
0.464009
0.463848
0.463632
0.463364
0.463043
0.46267
0.462242
0.461762
0.461232
0.460654
0.460031
0.459364
0.458655
0.457907
0.457122
0.456303
0.455451
0.45457
0.453663
0.452731
0.451779
0.450809
0.449824
0.448827
0.447822
0.446811
0.445797
0.444785
0.443776
0.442775
0.441784
0.440806
0.439845
0.438904
0.437986
0.437093
0.436228
0.435395
0.434595
0.433832
0.433107
0.432422
0.431781
0.431185
0.430635
0.430134
0.429682
0.429281
0.428932
0.428636
0.428394
0.428206
0.428072
0.427993
0.427968
0.427998
0.428082
0.428219
0.428409
0.42865
0.428943
0.429286
0.429677
0.430115
0.430599
0.431128
0.431699
0.432311
0.432963
0.433652
0.434377
0.435135
0.435926
0.436746
0.437595
0.438469
0.439368
0.440288
0.441229
0.442187
0.443161
0.444149
0.445149
0.446159
0.447176
0.448198
0.449224
0.450251
0.451277
0.452301
0.45332
0.454332
0.455335
0.456327
0.457308
0.458274
0.459224
0.460157
0.461072
0.461966
0.46284
0.46369
0.464518
0.46532
0.466096
0.466846
0.467568
0.468262
0.468925
0.469559
0.470161
0.47073
0.471266
0.471768
0.472235
0.472666
0.47306
0.473415
0.473731
0.474007
0.474242
0.474435
0.474585
0.47469
0.47475
0.474764
0.474729
0.474646
0.474514
0.474329
0.474093
0.473803
0.473459
0.473058
0.472601
0.472085
0.471509
0.470873
0.470175
0.469413
0.468586
0.467693
0.466733
0.465705
0.464607
0.463438
0.462196
0.460882
0.459492
0.458027
0.456485
0.454864
0.453165
0.451385
0.449524
0.44758
0.445552
0.443441
0.441242
0.438959
0.436592
0.434129
0.431581
0.428952
0.426226
0.42341
0.420504
0.417508
0.414422
0.411244
0.407977
0.404621
0.401183
0.39767
0.39411
0.390504
0.387044
0.383301
0.467154
0.467056
0.466927
0.466752
0.466523
0.46624
0.465902
0.46551
0.465066
0.464571
0.464027
0.463436
0.4628
0.462121
0.461402
0.460644
0.45985
0.459023
0.458164
0.457277
0.456364
0.455427
0.454471
0.453497
0.452508
0.451508
0.4505
0.449486
0.44847
0.447455
0.446444
0.44544
0.444447
0.443467
0.442503
0.441559
0.440637
0.43974
0.438872
0.438034
0.43723
0.436461
0.435731
0.435041
0.434393
0.43379
0.433234
0.432725
0.432265
0.431856
0.431499
0.431194
0.430943
0.430746
0.430602
0.430513
0.430479
0.430499
0.430572
0.430699
0.430879
0.431111
0.431393
0.431726
0.432107
0.432535
0.43301
0.433529
0.434091
0.434694
0.435337
0.436018
0.436735
0.437486
0.438269
0.439083
0.439926
0.440795
0.441689
0.442606
0.443544
0.4445
0.445473
0.44646
0.44746
0.448471
0.449491
0.450516
0.451546
0.452578
0.453611
0.454641
0.455668
0.456688
0.457701
0.458704
0.459695
0.460673
0.461635
0.462581
0.463509
0.464418
0.465305
0.46617
0.467012
0.46783
0.468622
0.469387
0.470125
0.470835
0.471515
0.472165
0.472784
0.47337
0.473923
0.474441
0.474925
0.475372
0.475782
0.476154
0.476487
0.476779
0.477031
0.477239
0.477405
0.477525
0.4776
0.477629
0.477609
0.47754
0.477421
0.47725
0.477027
0.47675
0.476417
0.476028
0.475582
0.475077
0.474511
0.473885
0.473195
0.472442
0.471623
0.470738
0.469785
0.468763
0.46767
0.466506
0.46527
0.463959
0.462573
0.461111
0.459571
0.457952
0.456254
0.454475
0.452614
0.45067
0.448641
0.446529
0.444331
0.442046
0.439676
0.437214
0.434667
0.432036
0.429313
0.4265
0.423597
0.420602
0.417517
0.41434
0.411073
0.407716
0.404276
0.400757
0.397186
0.393563
0.390045
0.386369
0.471578
0.47145
0.4713
0.471108
0.47086
0.470556
0.470196
0.469783
0.469319
0.468805
0.468243
0.467635
0.466983
0.46629
0.465557
0.464786
0.46398
0.463141
0.462272
0.461376
0.460454
0.45951
0.458546
0.457565
0.45657
0.455564
0.45455
0.453531
0.45251
0.45149
0.450474
0.449465
0.448466
0.44748
0.446511
0.445561
0.444632
0.443729
0.442853
0.442008
0.441195
0.440418
0.439678
0.438979
0.438321
0.437708
0.43714
0.436619
0.436147
0.435725
0.435355
0.435037
0.434771
0.43456
0.434402
0.434298
0.434248
0.434253
0.434311
0.434422
0.434586
0.434802
0.435069
0.435386
0.435752
0.436165
0.436625
0.437129
0.437677
0.438267
0.438896
0.439565
0.440269
0.441009
0.441782
0.442586
0.44342
0.444281
0.445168
0.446079
0.447011
0.447964
0.448934
0.449921
0.450921
0.451934
0.452956
0.453986
0.455022
0.456061
0.457102
0.458143
0.459181
0.460214
0.461241
0.462259
0.463266
0.464262
0.465243
0.466208
0.467156
0.468085
0.468994
0.469882
0.470746
0.471587
0.472403
0.473192
0.473955
0.474689
0.475394
0.476069
0.476713
0.477325
0.477904
0.478448
0.478958
0.479431
0.479867
0.480264
0.480623
0.480941
0.481217
0.481451
0.481641
0.481786
0.481884
0.481936
0.48194
0.481893
0.481796
0.481647
0.481445
0.481188
0.480875
0.480505
0.480077
0.479589
0.479041
0.47843
0.477756
0.477017
0.476212
0.475339
0.474398
0.473387
0.472305
0.471151
0.469923
0.468621
0.467242
0.465786
0.464252
0.462638
0.460943
0.459168
0.457309
0.455367
0.453341
0.451229
0.449031
0.446745
0.444374
0.441912
0.439363
0.436729
0.434003
0.431187
0.42828
0.425282
0.422193
0.419012
0.41574
0.412378
0.408929
0.405398
0.401807
0.398157
0.39458
0.390894
0.477471
0.477319
0.47715
0.47694
0.476673
0.476348
0.475966
0.47553
0.475044
0.474508
0.473924
0.473296
0.472625
0.471912
0.471161
0.470374
0.469552
0.468699
0.467816
0.466906
0.465973
0.465017
0.464043
0.463052
0.462048
0.461034
0.460011
0.458984
0.457955
0.456927
0.455904
0.454887
0.45388
0.452886
0.451908
0.450949
0.450011
0.449098
0.448212
0.447356
0.446532
0.445743
0.44499
0.444277
0.443606
0.442977
0.442394
0.441858
0.44137
0.440931
0.440543
0.440206
0.439922
0.439691
0.439514
0.439391
0.439321
0.439305
0.439342
0.439433
0.439576
0.439772
0.440018
0.440314
0.440659
0.441053
0.441492
0.441977
0.442506
0.443077
0.443689
0.44434
0.445028
0.445752
0.44651
0.4473
0.448121
0.448971
0.449847
0.450749
0.451674
0.45262
0.453586
0.45457
0.455569
0.456582
0.457606
0.45864
0.459682
0.460729
0.46178
0.462832
0.463883
0.464931
0.465974
0.46701
0.468037
0.469053
0.470056
0.471044
0.472017
0.472971
0.473906
0.47482
0.475712
0.476581
0.477425
0.478244
0.479037
0.479801
0.480537
0.481243
0.481919
0.482562
0.483172
0.483749
0.48429
0.484795
0.485263
0.485693
0.486083
0.486432
0.48674
0.487005
0.487225
0.487401
0.487529
0.48761
0.487642
0.487624
0.487555
0.487433
0.487256
0.487025
0.486736
0.486391
0.485985
0.48552
0.484992
0.484402
0.483747
0.483026
0.482238
0.481382
0.480456
0.47946
0.478391
0.477249
0.476032
0.47474
0.47337
0.471922
0.470395
0.468787
0.467098
0.465327
0.463472
0.461533
0.459508
0.457397
0.455199
0.452913
0.45054
0.448077
0.445526
0.442887
0.440158
0.437337
0.434426
0.431424
0.428331
0.425145
0.421866
0.418496
0.415037
0.411492
0.407881
0.4042
0.400571
0.396833
0.484862
0.484695
0.484508
0.484279
0.483991
0.483644
0.483239
0.48278
0.482269
0.481709
0.481101
0.48045
0.479755
0.479021
0.478249
0.477442
0.476601
0.47573
0.47483
0.473904
0.472955
0.471985
0.470997
0.469994
0.468978
0.467951
0.466917
0.465879
0.464839
0.463801
0.462766
0.461738
0.46072
0.459715
0.458726
0.457754
0.456804
0.455878
0.454978
0.454108
0.453269
0.452464
0.451695
0.450965
0.450276
0.449629
0.449027
0.44847
0.447962
0.447502
0.447092
0.446733
0.446426
0.446171
0.445969
0.445821
0.445727
0.445685
0.445697
0.445762
0.44588
0.446049
0.446269
0.44654
0.446859
0.447227
0.447642
0.448102
0.448606
0.449154
0.449742
0.450371
0.451038
0.451741
0.452479
0.453251
0.454055
0.454889
0.455751
0.45664
0.457553
0.45849
0.459448
0.460425
0.46142
0.462431
0.463455
0.464491
0.465538
0.466591
0.467651
0.468713
0.469777
0.47084
0.4719
0.472955
0.474002
0.47504
0.476066
0.47708
0.478078
0.479059
0.480023
0.480966
0.481888
0.482788
0.483665
0.484516
0.485342
0.48614
0.48691
0.487651
0.488362
0.489041
0.489687
0.490299
0.490876
0.491418
0.491922
0.492388
0.492814
0.493199
0.493542
0.493842
0.494098
0.494308
0.494471
0.494585
0.49465
0.494665
0.494627
0.494536
0.494389
0.494187
0.493927
0.493609
0.49323
0.49279
0.492287
0.49172
0.491088
0.490388
0.489621
0.488783
0.487875
0.486896
0.485842
0.484714
0.48351
0.48223
0.480871
0.479432
0.477914
0.476314
0.474631
0.472865
0.471014
0.469078
0.467055
0.464945
0.462748
0.460462
0.458088
0.455623
0.45307
0.450427
0.447694
0.44487
0.441955
0.438948
0.435849
0.432658
0.429373
0.425996
0.422527
0.418968
0.415335
0.411624
0.407947
0.404142
0.493797
0.493618
0.493415
0.493167
0.492859
0.492488
0.492059
0.491575
0.491038
0.490452
0.489819
0.489141
0.488422
0.487663
0.486867
0.486036
0.485173
0.48428
0.48336
0.482414
0.481447
0.480459
0.479454
0.478434
0.477401
0.476359
0.475311
0.474258
0.473203
0.47215
0.471101
0.470059
0.469027
0.468007
0.467002
0.466016
0.465049
0.464107
0.46319
0.462301
0.461444
0.46062
0.459831
0.459081
0.45837
0.4577
0.457075
0.456494
0.455961
0.455475
0.455039
0.454653
0.454318
0.454035
0.453805
0.453627
0.453503
0.453431
0.453413
0.453447
0.453533
0.453671
0.45386
0.454099
0.454388
0.454724
0.455108
0.455538
0.456013
0.456531
0.457091
0.457691
0.458331
0.459008
0.459721
0.460469
0.46125
0.462063
0.462905
0.463775
0.464672
0.465594
0.46654
0.467506
0.468493
0.469498
0.470518
0.471553
0.4726
0.473657
0.474722
0.475793
0.476867
0.477943
0.479018
0.48009
0.481157
0.482215
0.483264
0.484302
0.485326
0.486335
0.487326
0.488299
0.489252
0.490184
0.491093
0.491978
0.492837
0.493671
0.494477
0.495254
0.496001
0.496717
0.497401
0.498051
0.498667
0.499247
0.49979
0.500294
0.500758
0.501182
0.501564
0.501902
0.502195
0.502442
0.502642
0.502793
0.502894
0.502943
0.50294
0.502882
0.502769
0.502599
0.50237
0.502082
0.501733
0.501321
0.500845
0.500304
0.499696
0.49902
0.498275
0.497459
0.496571
0.49561
0.494574
0.493461
0.492273
0.491006
0.489659
0.488232
0.486723
0.485131
0.483456
0.481696
0.47985
0.477918
0.475898
0.47379
0.471594
0.469308
0.466933
0.464468
0.461912
0.459267
0.45653
0.453703
0.450784
0.447773
0.44467
0.441474
0.438183
0.434799
0.43132
0.427748
0.424097
0.420358
0.416638
0.412762
0.504342
0.504152
0.503931
0.503662
0.503331
0.502936
0.502481
0.50197
0.501406
0.500792
0.50013
0.499424
0.498676
0.497889
0.497066
0.496209
0.49532
0.494402
0.493457
0.492488
0.491498
0.490488
0.489461
0.488421
0.487368
0.486307
0.485239
0.484168
0.483095
0.482024
0.480956
0.479896
0.478845
0.477807
0.476783
0.475777
0.474791
0.473828
0.47289
0.47198
0.471101
0.470254
0.469441
0.468666
0.467929
0.467234
0.466581
0.465972
0.46541
0.464894
0.464427
0.46401
0.463643
0.463327
0.463063
0.462851
0.462692
0.462585
0.46253
0.462528
0.462578
0.462679
0.462831
0.463033
0.463285
0.463584
0.463931
0.464325
0.464763
0.465245
0.46577
0.466336
0.466942
0.467587
0.468269
0.468986
0.469737
0.470522
0.471338
0.472183
0.473058
0.473959
0.474885
0.475835
0.476807
0.477799
0.47881
0.479838
0.48088
0.481935
0.483001
0.484075
0.485156
0.48624
0.487326
0.488411
0.489493
0.490569
0.491637
0.492696
0.493743
0.494776
0.495793
0.496793
0.497774
0.498736
0.499675
0.500592
0.501485
0.502352
0.503193
0.504005
0.504789
0.505542
0.506263
0.506951
0.507605
0.508223
0.508804
0.509347
0.509851
0.510313
0.510734
0.511111
0.511442
0.511728
0.511966
0.512154
0.512292
0.512378
0.51241
0.512388
0.512309
0.512172
0.511977
0.51172
0.511402
0.511019
0.510572
0.510059
0.509477
0.508827
0.508106
0.507312
0.506446
0.505505
0.504488
0.503394
0.502222
0.50097
0.499637
0.498222
0.496724
0.495142
0.493476
0.491723
0.489883
0.487956
0.485941
0.483836
0.481642
0.479357
0.476983
0.474517
0.471961
0.469313
0.466575
0.463745
0.460823
0.457809
0.454703
0.451503
0.448208
0.444818
0.441332
0.437749
0.434083
0.430319
0.426562
0.422623
0.516565
0.516361
0.516122
0.515829
0.515473
0.515051
0.514568
0.514028
0.513433
0.512788
0.512096
0.511358
0.510579
0.509761
0.508906
0.508018
0.507099
0.506151
0.505178
0.504181
0.503163
0.502127
0.501075
0.500009
0.498932
0.497846
0.496755
0.49566
0.494565
0.493471
0.492381
0.491298
0.490225
0.489163
0.488117
0.487087
0.486077
0.48509
0.484127
0.483192
0.482286
0.481412
0.480572
0.479768
0.479002
0.478276
0.477591
0.47695
0.476355
0.475805
0.475303
0.47485
0.474446
0.474092
0.473789
0.473538
0.473339
0.473191
0.473095
0.473051
0.473059
0.473117
0.473226
0.473385
0.473593
0.473849
0.474153
0.474502
0.474898
0.475337
0.47582
0.476344
0.476909
0.477513
0.478155
0.478834
0.479549
0.480297
0.481079
0.481891
0.482735
0.483606
0.484506
0.485431
0.48638
0.487352
0.488346
0.489358
0.490388
0.491434
0.492493
0.493564
0.494643
0.495729
0.496819
0.49791
0.499001
0.500088
0.50117
0.502243
0.503307
0.504358
0.505396
0.506418
0.507423
0.508409
0.509375
0.51032
0.511241
0.512139
0.51301
0.513855
0.514671
0.515457
0.516213
0.516936
0.517626
0.51828
0.518898
0.519478
0.520019
0.520518
0.520976
0.521391
0.52176
0.522083
0.522357
0.522583
0.522757
0.522879
0.522947
0.52296
0.522915
0.522812
0.52265
0.522425
0.522138
0.521786
0.521368
0.520883
0.520329
0.519705
0.519009
0.51824
0.517396
0.516477
0.51548
0.514405
0.51325
0.512014
0.510696
0.509295
0.50781
0.50624
0.504583
0.502839
0.501007
0.499087
0.497077
0.494977
0.492786
0.490504
0.488132
0.485667
0.483112
0.480464
0.477725
0.474895
0.471972
0.468957
0.465849
0.462647
0.45935
0.455956
0.452466
0.448876
0.445198
0.441416
0.43763
0.433637
0.53054
0.530322
0.53006
0.529741
0.529356
0.528905
0.528391
0.527818
0.52719
0.526511
0.525783
0.52501
0.524195
0.523341
0.52245
0.521527
0.520573
0.51959
0.518583
0.517553
0.516502
0.515434
0.51435
0.513254
0.512147
0.511033
0.509912
0.508789
0.507666
0.506544
0.505427
0.504317
0.503216
0.502128
0.501053
0.499996
0.498958
0.497943
0.496951
0.495986
0.495049
0.494144
0.493272
0.492435
0.491635
0.490875
0.490155
0.489477
0.488844
0.488256
0.487714
0.48722
0.486774
0.486378
0.486031
0.485736
0.48549
0.485296
0.485153
0.485061
0.48502
0.485029
0.485089
0.485197
0.485355
0.48556
0.485813
0.486112
0.486456
0.486845
0.487277
0.487751
0.488266
0.488821
0.489415
0.490046
0.490714
0.491418
0.492155
0.492925
0.493728
0.494561
0.495423
0.496313
0.49723
0.498172
0.499137
0.500125
0.501133
0.502159
0.503202
0.504258
0.505327
0.506404
0.507489
0.508577
0.509667
0.510756
0.511842
0.512922
0.513994
0.515056
0.516105
0.517142
0.518162
0.519166
0.520151
0.521116
0.52206
0.52298
0.523876
0.524747
0.52559
0.526404
0.527189
0.527942
0.528662
0.529348
0.529998
0.53061
0.531184
0.531717
0.532209
0.532657
0.533061
0.533418
0.533727
0.533987
0.534196
0.534351
0.534453
0.534499
0.534488
0.534417
0.534286
0.534093
0.533837
0.533515
0.533126
0.532669
0.532142
0.531544
0.530874
0.530129
0.529308
0.528411
0.527435
0.52638
0.525243
0.524025
0.522724
0.521338
0.519867
0.518309
0.516664
0.51493
0.513108
0.511196
0.509193
0.5071
0.504915
0.502638
0.500269
0.497808
0.495255
0.49261
0.489873
0.487043
0.484122
0.481108
0.478001
0.474799
0.471503
0.46811
0.464618
0.461026
0.457343
0.453549
0.449743
0.445707
0.546352
0.546116
0.545829
0.54548
0.545063
0.544578
0.544028
0.543418
0.542752
0.542033
0.541265
0.540451
0.539594
0.538698
0.537766
0.536801
0.535805
0.534782
0.533735
0.532665
0.531575
0.530469
0.529348
0.528214
0.527072
0.525922
0.524767
0.52361
0.522453
0.521298
0.520148
0.519006
0.517873
0.516752
0.515645
0.514556
0.513485
0.512436
0.511411
0.510412
0.509441
0.5085
0.507592
0.506718
0.50588
0.50508
0.50432
0.503602
0.502926
0.502294
0.501708
0.501168
0.500676
0.500231
0.499836
0.49949
0.499193
0.498947
0.49875
0.498604
0.498507
0.49846
0.498462
0.498513
0.498612
0.498759
0.498952
0.499192
0.499476
0.499805
0.500177
0.500591
0.501046
0.501542
0.502078
0.502651
0.503262
0.503909
0.504592
0.505308
0.506058
0.50684
0.507654
0.508497
0.509369
0.510269
0.511195
0.512145
0.513118
0.514113
0.515126
0.516157
0.517202
0.518259
0.519326
0.520399
0.521476
0.522555
0.523633
0.524707
0.525776
0.526836
0.527887
0.528926
0.529952
0.530963
0.531957
0.532933
0.533888
0.534823
0.535735
0.536622
0.537484
0.538318
0.539124
0.539899
0.540642
0.541352
0.542027
0.542666
0.543266
0.543827
0.544347
0.544824
0.545256
0.545643
0.545982
0.546271
0.54651
0.546696
0.546828
0.546904
0.546923
0.546882
0.54678
0.546616
0.546388
0.546094
0.545733
0.545303
0.544803
0.54423
0.543584
0.542863
0.542066
0.541191
0.540236
0.539201
0.538084
0.536884
0.5356
0.534231
0.532775
0.531231
0.529599
0.527878
0.526067
0.524165
0.522172
0.520087
0.51791
0.51564
0.513278
0.510823
0.508275
0.505635
0.502902
0.500077
0.49716
0.49415
0.491047
0.48785
0.484558
0.481169
0.477681
0.474092
0.470409
0.466611
0.462794
0.45873
0.564094
0.563837
0.56352
0.563136
0.562682
0.562157
0.561566
0.560912
0.560201
0.559435
0.55862
0.557757
0.556851
0.555906
0.554924
0.553909
0.552864
0.551792
0.550696
0.549579
0.548443
0.54729
0.546124
0.544947
0.543762
0.54257
0.541374
0.540176
0.538979
0.537785
0.536597
0.535416
0.534245
0.533087
0.531943
0.530816
0.529708
0.528621
0.527557
0.526519
0.525509
0.524528
0.523579
0.522663
0.521783
0.52094
0.520135
0.519371
0.518648
0.517968
0.517332
0.516741
0.516196
0.515698
0.515247
0.514844
0.51449
0.514184
0.513927
0.513719
0.513559
0.513448
0.513385
0.51337
0.513402
0.513481
0.513605
0.513775
0.51399
0.514248
0.51455
0.514894
0.515278
0.515704
0.516169
0.516672
0.517214
0.517792
0.518407
0.519057
0.519741
0.52046
0.52121
0.521993
0.522807
0.52365
0.524521
0.52542
0.526344
0.527292
0.528261
0.529251
0.530258
0.531279
0.532313
0.533356
0.534406
0.53546
0.536515
0.537569
0.53862
0.539665
0.540703
0.541732
0.542749
0.543754
0.544744
0.545718
0.546674
0.547611
0.548526
0.54942
0.550289
0.551132
0.551948
0.552735
0.553492
0.554217
0.554908
0.555564
0.556182
0.556763
0.557303
0.557801
0.558255
0.558664
0.559026
0.55934
0.559602
0.559813
0.55997
0.560071
0.560115
0.5601
0.560024
0.559885
0.559682
0.559414
0.559077
0.558672
0.558196
0.557647
0.557025
0.556327
0.555551
0.554698
0.553765
0.55275
0.551652
0.550471
0.549205
0.547853
0.546413
0.544886
0.543269
0.541562
0.539764
0.537874
0.535893
0.533819
0.531652
0.529392
0.527039
0.524593
0.522054
0.519422
0.516697
0.51388
0.51097
0.507968
0.504873
0.501684
0.4984
0.49502
0.491542
0.487961
0.484285
0.480492
0.476675
0.472595
0.583867
0.583584
0.583232
0.582808
0.582309
0.581736
0.581095
0.580389
0.579623
0.578801
0.577928
0.577006
0.576041
0.575035
0.573994
0.572919
0.571815
0.570684
0.56953
0.568355
0.567163
0.565956
0.564737
0.563507
0.562271
0.561029
0.559784
0.558539
0.557295
0.556055
0.554822
0.553597
0.552382
0.551181
0.549993
0.548823
0.547672
0.546542
0.545436
0.544354
0.543299
0.542274
0.541279
0.540317
0.539389
0.538497
0.537643
0.536827
0.536052
0.535318
0.534626
0.533979
0.533375
0.532817
0.532304
0.531838
0.531418
0.531045
0.53072
0.530442
0.530211
0.530026
0.529889
0.529798
0.529753
0.529753
0.529799
0.529889
0.530022
0.530199
0.530418
0.530679
0.530981
0.531323
0.531704
0.532124
0.532583
0.533078
0.533611
0.53418
0.534784
0.535423
0.536096
0.536802
0.537541
0.538311
0.539112
0.539943
0.540801
0.541685
0.542594
0.543525
0.544476
0.545445
0.546428
0.547424
0.548429
0.54944
0.550455
0.551472
0.552488
0.553502
0.55451
0.555512
0.556506
0.557489
0.55846
0.559417
0.560359
0.561283
0.562189
0.563074
0.563937
0.564777
0.565591
0.566378
0.567136
0.567864
0.56856
0.569222
0.569848
0.570437
0.570988
0.571498
0.571965
0.572388
0.572765
0.573094
0.573374
0.573602
0.573777
0.573897
0.57396
0.573964
0.573909
0.573791
0.573609
0.573361
0.573046
0.572662
0.572207
0.57168
0.571079
0.570402
0.569647
0.568814
0.567901
0.566906
0.565828
0.564666
0.563419
0.562084
0.560662
0.559151
0.55755
0.555859
0.554077
0.552202
0.550235
0.548175
0.546021
0.543774
0.541433
0.538999
0.536472
0.533851
0.531138
0.528332
0.525434
0.522444
0.519361
0.516185
0.512914
0.509548
0.506084
0.502518
0.498858
0.495077
0.49127
0.487188
0.605781
0.605468
0.605074
0.604601
0.604047
0.603417
0.602713
0.601942
0.601109
0.600217
0.599272
0.598277
0.597238
0.596159
0.595044
0.593896
0.592719
0.591517
0.590293
0.58905
0.587791
0.586519
0.585235
0.583944
0.582647
0.581346
0.580044
0.578743
0.577445
0.576153
0.574867
0.573591
0.572326
0.571075
0.569838
0.56862
0.56742
0.566241
0.565086
0.563955
0.562851
0.561775
0.56073
0.559716
0.558735
0.557789
0.556879
0.556006
0.555172
0.554378
0.553624
0.552913
0.552243
0.551617
0.551035
0.550497
0.550004
0.549556
0.549153
0.548795
0.548483
0.548216
0.547993
0.547816
0.547683
0.547593
0.547548
0.547545
0.547585
0.547667
0.54779
0.547954
0.548159
0.548403
0.548686
0.549008
0.549368
0.549766
0.550201
0.550672
0.551179
0.551722
0.5523
0.552913
0.55356
0.55424
0.554952
0.555696
0.55647
0.557272
0.558101
0.558955
0.55983
0.560726
0.56164
0.562568
0.563508
0.564458
0.565413
0.566374
0.567337
0.568299
0.56926
0.570218
0.571169
0.572113
0.573048
0.573971
0.574881
0.575777
0.576657
0.577518
0.57836
0.579181
0.579978
0.580751
0.581497
0.582214
0.582902
0.583557
0.584179
0.584766
0.585315
0.585825
0.586295
0.586721
0.587103
0.587439
0.587726
0.587963
0.588148
0.588279
0.588355
0.588372
0.58833
0.588227
0.58806
0.587829
0.58753
0.587163
0.586726
0.586216
0.585633
0.584974
0.584239
0.583424
0.58253
0.581553
0.580494
0.579351
0.578121
0.576805
0.575402
0.573908
0.572325
0.570651
0.568886
0.567028
0.565078
0.563034
0.560896
0.558665
0.55634
0.553921
0.551409
0.548804
0.546106
0.543316
0.540434
0.53746
0.534394
0.531235
0.527983
0.524636
0.521193
0.517649
0.51401
0.510252
0.506464
0.502392
0.62996
0.629609
0.629164
0.628631
0.62801
0.627306
0.626524
0.62567
0.62475
0.623769
0.622733
0.621647
0.620516
0.619344
0.618138
0.6169
0.615634
0.614346
0.613037
0.611711
0.610372
0.609022
0.607663
0.606299
0.604931
0.603561
0.602193
0.600827
0.599466
0.598112
0.596767
0.595432
0.59411
0.592802
0.59151
0.590236
0.588982
0.587749
0.586538
0.585352
0.584193
0.583061
0.581958
0.580886
0.579846
0.578839
0.577866
0.57693
0.57603
0.575168
0.574345
0.573561
0.572818
0.572116
0.571455
0.570836
0.57026
0.569726
0.569235
0.568787
0.568382
0.56802
0.567701
0.567424
0.56719
0.566998
0.566847
0.566739
0.566671
0.566643
0.566656
0.566709
0.566801
0.566931
0.567101
0.567308
0.567553
0.567836
0.568155
0.568512
0.568905
0.569334
0.569799
0.5703
0.570835
0.571406
0.57201
0.572647
0.573317
0.574017
0.574745
0.575499
0.576279
0.577082
0.577905
0.578745
0.579598
0.580464
0.58134
0.582223
0.583112
0.584004
0.584897
0.58579
0.58668
0.587565
0.588444
0.589315
0.590177
0.591026
0.591862
0.592683
0.593486
0.594271
0.595036
0.595778
0.596496
0.597189
0.597853
0.598488
0.599092
0.599662
0.600198
0.600696
0.601155
0.601574
0.60195
0.602281
0.602565
0.602801
0.602987
0.60312
0.603199
0.603222
0.603186
0.60309
0.602932
0.60271
0.602423
0.602067
0.601643
0.601147
0.600578
0.599934
0.599214
0.598415
0.597537
0.596578
0.595537
0.594411
0.5932
0.591902
0.590516
0.589042
0.587477
0.585822
0.584075
0.582236
0.580305
0.578279
0.576161
0.573949
0.571643
0.569243
0.56675
0.564164
0.561486
0.558716
0.555854
0.552901
0.549857
0.546721
0.543492
0.54017
0.536754
0.533238
0.529628
0.5259
0.522141
0.518093
0.656543
0.656145
0.655637
0.655027
0.654319
0.653519
0.652634
0.651671
0.650638
0.649542
0.648388
0.647184
0.645936
0.644649
0.643328
0.641979
0.640605
0.639211
0.6378
0.636375
0.63494
0.633498
0.632051
0.6306
0.62915
0.627701
0.626255
0.624815
0.623382
0.621958
0.620545
0.619143
0.617756
0.616384
0.615029
0.613693
0.612376
0.611081
0.609809
0.608561
0.607339
0.606143
0.604976
0.603838
0.602731
0.601655
0.600613
0.599604
0.598629
0.597691
0.596788
0.595923
0.595096
0.594307
0.593557
0.592846
0.592174
0.591543
0.590952
0.590401
0.58989
0.58942
0.58899
0.5886
0.58825