/*--------------------------------*- C++ -*----------------------------------*\
| =========                 |                                                 |
| \\      /  F ield         | OpenFOAM: The Open Source CFD Toolbox           |
|  \\    /   O peration     | Version:  2.3.0                                 |
|   \\  /    A nd           | Web:      www.OpenFOAM.org                      |
|    \\/     M anipulation  |                                                 |
\*---------------------------------------------------------------------------*/
FoamFile
{
    version     2.0;
    format      ascii;
    class       volScalarField;
    location    "0.045";
    object      T;
}
// * * * * * * * * * * * * * * * * * * * * * * * * * * * * * * * * * * * * * //

dimensions      [0 0 0 1 0 0 0];

internalField   nonuniform List<scalar> 
12225
(
1.54701e-10
1.5378e-10
1.53518e-10
1.53457e-10
1.53461e-10
1.53608e-10
1.54009e-10
1.5487e-10
1.56567e-10
1.59764e-10
1.65649e-10
1.76447e-10
1.96596e-10
2.3552e-10
3.14285e-10
4.82164e-10
8.61424e-10
1.79517e-09
1.52541e-10
1.52813e-10
1.53032e-10
1.53197e-10
1.53329e-10
1.5355e-10
1.53999e-10
1.549e-10
1.56638e-10
1.59887e-10
1.65838e-10
1.76701e-10
1.96833e-10
2.35391e-10
3.12562e-10
4.74534e-10
8.30243e-10
1.63961e-09
1.53658e-10
1.53645e-10
1.53579e-10
1.53572e-10
1.53612e-10
1.53782e-10
1.54214e-10
1.5513e-10
1.56928e-10
1.60295e-10
1.66437e-10
1.77553e-10
1.97891e-10
2.36163e-10
3.11041e-10
4.63425e-10
7.82025e-10
1.44102e-09
1.53802e-10
1.5371e-10
1.53626e-10
1.53639e-10
1.53717e-10
1.5393e-10
1.54418e-10
1.55426e-10
1.5738e-10
1.6101e-10
1.67567e-10
1.79267e-10
2.00247e-10
2.38665e-10
3.11232e-10
4.5235e-10
7.29383e-10
1.25152e-09
1.54029e-10
1.53977e-10
1.53916e-10
1.53936e-10
1.54028e-10
1.54272e-10
1.54825e-10
1.55964e-10
1.58168e-10
1.62239e-10
1.69516e-10
1.82281e-10
2.04594e-10
2.44024e-10
3.15134e-10
4.45655e-10
6.84249e-10
1.09747e-09
1.54374e-10
1.54355e-10
1.54315e-10
1.54339e-10
1.54453e-10
1.54747e-10
1.55406e-10
1.5676e-10
1.59367e-10
1.6415e-10
1.72605e-10
1.87165e-10
2.11897e-10
2.53861e-10
3.25579e-10
4.48817e-10
6.57773e-10
9.9327e-10
1.54898e-10
1.54896e-10
1.54875e-10
1.54912e-10
1.55058e-10
1.55428e-10
1.56251e-10
1.57935e-10
1.61168e-10
1.67068e-10
1.77389e-10
1.94855e-10
2.23714e-10
2.70738e-10
3.46826e-10
4.69066e-10
6.61568e-10
9.50445e-10
1.55516e-10
1.5552e-10
1.55515e-10
1.55572e-10
1.5576e-10
1.56229e-10
1.57265e-10
1.59379e-10
1.63433e-10
1.70806e-10
1.83615e-10
2.05019e-10
2.39676e-10
2.94461e-10
3.79505e-10
5.0929e-10
7.02594e-10
9.78746e-10
1.56197e-10
1.56205e-10
1.56215e-10
1.56294e-10
1.56534e-10
1.57122e-10
1.58414e-10
1.61051e-10
1.66107e-10
1.75285e-10
1.91161e-10
2.17469e-10
2.59479e-10
3.24495e-10
4.22487e-10
5.66574e-10
7.72574e-10
1.05626e-09
1.57119e-10
1.57131e-10
1.57157e-10
1.57269e-10
1.57587e-10
1.58355e-10
1.6004e-10
1.6348e-10
1.70081e-10
1.8206e-10
2.02722e-10
2.36748e-10
2.90493e-10
3.72286e-10
4.92695e-10
6.64545e-10
9.02241e-10
1.21977e-09
1.58367e-10
1.58383e-10
1.5843e-10
1.58591e-10
1.5903e-10
1.6008e-10
1.62385e-10
1.67105e-10
1.76182e-10
1.92673e-10
2.21088e-10
2.67704e-10
3.40791e-10
4.5072e-10
6.09877e-10
8.32289e-10
1.13273e-09
1.52509e-09
1.60059e-10
1.6008e-10
1.60155e-10
1.60392e-10
1.61025e-10
1.62537e-10
1.65869e-10
1.72719e-10
1.85946e-10
2.10045e-10
2.51606e-10
3.19691e-10
4.25993e-10
5.84714e-10
8.12094e-10
1.12556e-09
1.54246e-09
2.07844e-09
1.6235e-10
1.62381e-10
1.62498e-10
1.62861e-10
1.63823e-10
1.66129e-10
1.71244e-10
1.81833e-10
2.02405e-10
2.40057e-10
3.05174e-10
4.11916e-10
5.78289e-10
8.25674e-10
1.17775e-09
1.65888e-09
2.29214e-09
3.09706e-09
1.65453e-10
1.655e-10
1.6569e-10
1.66273e-10
1.67825e-10
1.71579e-10
1.79986e-10
1.97557e-10
2.31985e-10
2.95418e-10
4.0563e-10
5.86716e-10
8.68955e-10
1.28761e-09
1.88066e-09
2.68571e-09
3.73641e-09
5.05886e-09
1.69652e-10
1.6973e-10
1.70052e-10
1.71049e-10
1.7373e-10
1.80302e-10
1.95221e-10
2.26809e-10
2.89405e-10
4.05801e-10
6.09383e-10
9.45183e-10
1.46909e-09
2.24485e-09
3.33896e-09
4.81426e-09
6.72299e-09
9.10024e-09
1.75324e-10
1.75463e-10
1.76046e-10
1.77873e-10
1.82871e-10
1.95347e-10
2.24195e-10
2.86335e-10
4.11357e-10
6.46748e-10
1.06227e-09
1.75152e-09
2.82888e-09
4.42121e-09
6.65517e-09
9.64259e-09
1.34662e-08
1.81672e-08
1.82956e-10
1.83221e-10
1.84354e-10
1.87967e-10
1.98079e-10
2.23957e-10
2.85283e-10
4.20464e-10
6.98094e-10
1.22985e-09
2.18073e-09
3.77078e-09
6.26325e-09
9.93824e-09
1.50566e-08
2.18232e-08
3.03568e-08
4.0671e-08
1.92406e-10
1.92926e-10
1.95197e-10
2.02621e-10
2.2403e-10
2.80592e-10
4.18992e-10
7.33513e-10
1.3976e-09
2.69987e-09
5.07127e-09
9.08315e-09
1.5399e-08
2.46802e-08
3.74707e-08
5.40984e-08
7.46209e-08
9.88194e-08
2.02339e-10
2.03296e-10
2.07553e-10
2.21875e-10
2.64597e-10
3.81655e-10
6.78905e-10
1.37934e-09
2.90907e-09
5.9993e-09
1.17616e-08
2.16655e-08
3.73549e-08
6.0313e-08
9.1496e-08
1.31099e-07
1.78538e-07
2.32594e-07
2.11684e-10
2.13257e-10
2.20392e-10
2.4509e-10
3.213e-10
5.38034e-10
1.11019e-09
2.51213e-09
5.69188e-09
1.23413e-08
2.51044e-08
4.74926e-08
8.32754e-08
1.35383e-07
2.04837e-07
2.90379e-07
3.88917e-07
4.96369e-07
2.20116e-10
2.22463e-10
2.33312e-10
2.71894e-10
3.9494e-10
7.58011e-10
1.75518e-09
4.30135e-09
1.03212e-08
2.34209e-08
4.94654e-08
9.63817e-08
1.72351e-07
2.82408e-07
4.25469e-07
5.94515e-07
7.79369e-07
9.69747e-07
2.27426e-10
2.3065e-10
2.458e-10
3.01044e-10
4.82732e-10
1.03801e-09
2.62356e-09
6.84602e-09
1.72808e-08
4.10277e-08
9.02755e-08
1.82115e-07
3.33763e-07
5.52429e-07
8.27016e-07
1.13331e-06
1.44541e-06
1.74349e-06
2.33521e-10
2.37648e-10
2.57317e-10
3.30645e-10
5.78527e-10
1.36085e-09
3.67807e-09
1.01086e-08
2.674e-08
6.64791e-08
1.53066e-07
3.21907e-07
6.09072e-07
1.02229e-06
1.51583e-06
2.02251e-06
2.49036e-06
2.8939e-06
2.38412e-10
2.43392e-10
2.6741e-10
3.58648e-10
6.74415e-10
1.69931e-09
4.83672e-09
1.38853e-08
3.83564e-08
9.98799e-08
2.41627e-07
5.33988e-07
1.05387e-06
1.80616e-06
2.63732e-06
3.39054e-06
3.99334e-06
4.44237e-06
2.42184e-10
2.47901e-10
2.75772e-10
3.8332e-10
7.62765e-10
2.02337e-09
5.99238e-09
1.7836e-08
5.1221e-08
1.39486e-07
3.5542e-07
8.32065e-07
1.7367e-06
3.07826e-06
4.37739e-06
5.34242e-06
5.95691e-06
6.3118e-06
2.45007e-10
2.51304e-10
2.82344e-10
4.03654e-10
8.38141e-10
2.30841e-09
7.0435e-09
2.15777e-08
6.40431e-08
1.81637e-07
4.8719e-07
1.21579e-06
2.72985e-06
5.12541e-06
6.94408e-06
7.88772e-06
8.24791e-06
8.30797e-06
2.46991e-10
2.5367e-10
2.87087e-10
4.19079e-10
8.97238e-10
2.53786e-09
7.91303e-09
2.47753e-08
7.54705e-08
2.21415e-07
6.22054e-07
1.65726e-06
4.07507e-06
8.46895e-06
1.04807e-05
1.08271e-05
1.05671e-05
1.01551e-05
2.4837e-10
2.55537e-10
2.90773e-10
4.30615e-10
9.4122e-10
2.71014e-09
8.57508e-09
2.7256e-08
8.45711e-08
2.54354e-07
7.40943e-07
2.0915e-06
5.69429e-06
1.41431e-05
1.48062e-05
1.36535e-05
1.25166e-05
1.15977e-05
2.47123e-10
2.54871e-10
2.91546e-10
4.36364e-10
9.67382e-10
2.81917e-09
9.00806e-09
2.89157e-08
9.07807e-08
2.77307e-07
8.26141e-07
2.42047e-06
7.17546e-06
2.42267e-05
1.87596e-05
1.5625e-05
1.37827e-05
1.25035e-05
2.51247e-10
2.57283e-10
2.93764e-10
4.41015e-10
9.83581e-10
2.88225e-09
9.25211e-09
2.9837e-08
9.41856e-08
2.89708e-07
8.70493e-07
2.56514e-06
7.37414e-06
1.92082e-05
1.89479e-05
1.63967e-05
1.43489e-05
1.28989e-05
3.83223e-08
3.84005e-08
3.85568e-08
3.8795e-08
3.91178e-08
3.95269e-08
4.00247e-08
4.06133e-08
4.12948e-08
4.20716e-08
4.29461e-08
4.39203e-08
4.49963e-08
4.61761e-08
4.74617e-08
4.88552e-08
5.03584e-08
5.19731e-08
5.37011e-08
5.5544e-08
5.75035e-08
5.9581e-08
6.17779e-08
6.40955e-08
6.65352e-08
6.90979e-08
7.17848e-08
7.45966e-08
7.75343e-08
8.05985e-08
8.37898e-08
8.71086e-08
9.05552e-08
9.41298e-08
9.78324e-08
1.01663e-07
1.05621e-07
1.09706e-07
1.13918e-07
1.18256e-07
1.22719e-07
1.27305e-07
1.32015e-07
1.36845e-07
1.41795e-07
1.46863e-07
1.52046e-07
1.57344e-07
1.62753e-07
1.68271e-07
1.73896e-07
1.79625e-07
1.85455e-07
1.91383e-07
1.97406e-07
2.03521e-07
2.09725e-07
2.16015e-07
2.22386e-07
2.28835e-07
2.3536e-07
2.41956e-07
2.48619e-07
2.55348e-07
2.62137e-07
2.68983e-07
2.75883e-07
2.82833e-07
2.89831e-07
2.96872e-07
3.03953e-07
3.11072e-07
3.18225e-07
3.25409e-07
3.32621e-07
3.39859e-07
3.47119e-07
3.54398e-07
3.61695e-07
3.69007e-07
3.76331e-07
3.83665e-07
3.91007e-07
3.98355e-07
4.05706e-07
4.13059e-07
4.20412e-07
4.27763e-07
4.3511e-07
4.42451e-07
4.49787e-07
4.57114e-07
4.64431e-07
4.71737e-07
4.79032e-07
4.86313e-07
4.93579e-07
5.0083e-07
5.08064e-07
5.1528e-07
5.22478e-07
5.29655e-07
5.36812e-07
5.43947e-07
5.51057e-07
5.58144e-07
5.65204e-07
5.72237e-07
5.79241e-07
5.86215e-07
5.93157e-07
6.00066e-07
6.06939e-07
6.13774e-07
6.20571e-07
6.27325e-07
6.34037e-07
6.40702e-07
6.4732e-07
6.53887e-07
6.604e-07
6.66858e-07
6.73258e-07
6.79596e-07
6.8587e-07
6.92077e-07
6.98214e-07
7.04278e-07
7.10264e-07
7.16171e-07
7.21995e-07
7.27731e-07
7.33377e-07
7.38929e-07
7.44382e-07
7.49734e-07
7.5498e-07
7.60116e-07
7.65139e-07
7.70044e-07
7.74826e-07
7.79483e-07
7.84008e-07
7.88399e-07
7.9265e-07
7.96757e-07
8.00716e-07
8.04522e-07
8.08171e-07
8.11658e-07
8.14979e-07
8.18129e-07
8.21104e-07
8.23898e-07
8.26509e-07
8.28931e-07
8.31159e-07
8.33191e-07
8.35019e-07
8.36644e-07
8.38053e-07
8.39248e-07
8.40235e-07
8.40965e-07
8.41467e-07
8.41739e-07
8.41748e-07
8.41523e-07
8.4106e-07
8.40354e-07
8.39403e-07
8.38203e-07
8.36753e-07
8.35054e-07
8.33113e-07
8.30936e-07
8.28582e-07
8.26006e-07
8.23712e-07
8.20029e-07
3.82373e-08
3.83152e-08
3.84739e-08
3.87147e-08
3.90397e-08
3.9451e-08
3.99509e-08
4.05413e-08
4.12243e-08
4.20019e-08
4.28766e-08
4.38504e-08
4.49255e-08
4.61039e-08
4.73877e-08
4.87787e-08
5.0279e-08
5.18902e-08
5.36141e-08
5.54524e-08
5.74068e-08
5.94786e-08
6.16693e-08
6.39803e-08
6.64128e-08
6.89678e-08
7.16466e-08
7.44499e-08
7.73786e-08
8.04334e-08
8.36149e-08
8.69235e-08
9.03596e-08
9.39234e-08
9.7615e-08
1.01434e-07
1.05381e-07
1.09454e-07
1.13654e-07
1.1798e-07
1.22431e-07
1.27005e-07
1.31702e-07
1.3652e-07
1.41458e-07
1.46513e-07
1.51685e-07
1.5697e-07
1.62368e-07
1.67874e-07
1.73488e-07
1.79205e-07
1.85024e-07
1.90941e-07
1.96954e-07
2.03058e-07
2.09252e-07
2.15532e-07
2.21893e-07
2.28334e-07
2.3485e-07
2.41437e-07
2.48093e-07
2.54814e-07
2.61596e-07
2.68436e-07
2.75331e-07
2.82276e-07
2.89269e-07
2.96307e-07
3.03385e-07
3.10501e-07
3.17652e-07
3.24835e-07
3.32047e-07
3.39285e-07
3.46546e-07
3.53828e-07
3.61128e-07
3.68443e-07
3.75771e-07
3.83111e-07
3.90458e-07
3.97813e-07
4.05172e-07
4.12533e-07
4.19896e-07
4.27257e-07
4.34615e-07
4.41969e-07
4.49317e-07
4.56658e-07
4.6399e-07
4.71312e-07
4.78623e-07
4.85921e-07
4.93206e-07
5.00476e-07
5.07731e-07
5.14968e-07
5.22187e-07
5.29388e-07
5.36569e-07
5.43728e-07
5.50865e-07
5.57978e-07
5.65066e-07
5.72128e-07
5.79161e-07
5.86165e-07
5.93138e-07
6.00079e-07
6.06984e-07
6.13853e-07
6.20683e-07
6.27472e-07
6.34218e-07
6.40919e-07
6.47573e-07
6.54176e-07
6.60726e-07
6.67221e-07
6.73658e-07
6.80034e-07
6.86346e-07
6.92591e-07
6.98766e-07
7.04867e-07
7.10893e-07
7.16838e-07
7.22699e-07
7.28474e-07
7.34157e-07
7.39746e-07
7.45238e-07
7.50626e-07
7.55909e-07
7.61081e-07
7.6614e-07
7.7108e-07
7.75897e-07
7.80588e-07
7.85147e-07
7.8957e-07
7.93853e-07
7.97992e-07
8.01981e-07
8.05817e-07
8.09495e-07
8.13011e-07
8.16359e-07
8.19535e-07
8.22536e-07
8.25354e-07
8.27988e-07
8.30432e-07
8.32682e-07
8.34733e-07
8.36579e-07
8.3822e-07
8.39644e-07
8.40854e-07
8.41853e-07
8.42609e-07
8.43146e-07
8.43464e-07
8.43534e-07
8.43365e-07
8.42955e-07
8.423e-07
8.41397e-07
8.40243e-07
8.38838e-07
8.37183e-07
8.35284e-07
8.3315e-07
8.30833e-07
8.2831e-07
8.25952e-07
8.22763e-07
3.8066e-08
3.81419e-08
3.83002e-08
3.85416e-08
3.88672e-08
3.92789e-08
3.97785e-08
4.03682e-08
4.10499e-08
4.18259e-08
4.26982e-08
4.36689e-08
4.474e-08
4.59137e-08
4.71917e-08
4.85761e-08
5.00687e-08
5.16714e-08
5.33857e-08
5.52134e-08
5.71562e-08
5.92154e-08
6.13926e-08
6.3689e-08
6.6106e-08
6.86447e-08
7.13062e-08
7.40914e-08
7.70012e-08
8.00363e-08
8.31974e-08
8.64849e-08
8.98993e-08
9.34408e-08
9.71095e-08
1.00905e-07
1.04828e-07
1.08878e-07
1.13053e-07
1.17354e-07
1.2178e-07
1.26329e-07
1.31001e-07
1.35794e-07
1.40706e-07
1.45737e-07
1.50883e-07
1.56144e-07
1.61517e-07
1.66999e-07
1.72588e-07
1.78282e-07
1.84078e-07
1.89973e-07
1.95963e-07
2.02046e-07
2.08219e-07
2.14479e-07
2.20821e-07
2.27243e-07
2.33741e-07
2.40313e-07
2.46953e-07
2.5366e-07
2.60428e-07
2.67256e-07
2.7414e-07
2.81076e-07
2.88061e-07
2.95091e-07
3.02164e-07
3.09277e-07
3.16426e-07
3.23608e-07
3.30821e-07
3.38061e-07
3.45327e-07
3.52615e-07
3.59923e-07
3.67248e-07
3.74589e-07
3.81942e-07
3.89306e-07
3.96678e-07
4.04057e-07
4.1144e-07
4.18827e-07
4.26214e-07
4.33601e-07
4.40985e-07
4.48366e-07
4.55742e-07
4.63112e-07
4.70473e-07
4.77826e-07
4.85169e-07
4.925e-07
4.99819e-07
5.07124e-07
5.14415e-07
5.2169e-07
5.28949e-07
5.3619e-07
5.43412e-07
5.50613e-07
5.57793e-07
5.6495e-07
5.72083e-07
5.7919e-07
5.86269e-07
5.93319e-07
6.00338e-07
6.07324e-07
6.14275e-07
6.21189e-07
6.28064e-07
6.34897e-07
6.41686e-07
6.48429e-07
6.55123e-07
6.61766e-07
6.68353e-07
6.74884e-07
6.81355e-07
6.87762e-07
6.94103e-07
7.00374e-07
7.06572e-07
7.12694e-07
7.18736e-07
7.24695e-07
7.30566e-07
7.36346e-07
7.42032e-07
7.47619e-07
7.53103e-07
7.5848e-07
7.63746e-07
7.68898e-07
7.7393e-07
7.78838e-07
7.83618e-07
7.88265e-07
7.92775e-07
7.97144e-07
8.01366e-07
8.05438e-07
8.09355e-07
8.13112e-07
8.16705e-07
8.20128e-07
8.23378e-07
8.2645e-07
8.29339e-07
8.3204e-07
8.3455e-07
8.36863e-07
8.38976e-07
8.40882e-07
8.42581e-07
8.44065e-07
8.45332e-07
8.46381e-07
8.47195e-07
8.47788e-07
8.48159e-07
8.48287e-07
8.48175e-07
8.4782e-07
8.47218e-07
8.46367e-07
8.45263e-07
8.43906e-07
8.42295e-07
8.40437e-07
8.38339e-07
8.36044e-07
8.33536e-07
8.31112e-07
8.28151e-07
3.78037e-08
3.78781e-08
3.80359e-08
3.8277e-08
3.86021e-08
3.90127e-08
3.95108e-08
4.00982e-08
4.07771e-08
4.15493e-08
4.24169e-08
4.33818e-08
4.44461e-08
4.56116e-08
4.68803e-08
4.8254e-08
4.97346e-08
5.13238e-08
5.30234e-08
5.48351e-08
5.67603e-08
5.88007e-08
6.09576e-08
6.32325e-08
6.56267e-08
6.81413e-08
7.07775e-08
7.35363e-08
7.64185e-08
7.94251e-08
8.25566e-08
8.58137e-08
8.91967e-08
9.2706e-08
9.63418e-08
1.00104e-07
1.03993e-07
1.08008e-07
1.12148e-07
1.16414e-07
1.20804e-07
1.25317e-07
1.29953e-07
1.3471e-07
1.39586e-07
1.44581e-07
1.49692e-07
1.54917e-07
1.60255e-07
1.65702e-07
1.71258e-07
1.76918e-07
1.82681e-07
1.88543e-07
1.94503e-07
2.00556e-07
2.06699e-07
2.1293e-07
2.19246e-07
2.25642e-07
2.32116e-07
2.38664e-07
2.45283e-07
2.5197e-07
2.58721e-07
2.65532e-07
2.72401e-07
2.79324e-07
2.86298e-07
2.9332e-07
3.00387e-07
3.07496e-07
3.14643e-07
3.21825e-07
3.29041e-07
3.36287e-07
3.43561e-07
3.50859e-07
3.58181e-07
3.65522e-07
3.72881e-07
3.80256e-07
3.87645e-07
3.95045e-07
4.02455e-07
4.09873e-07
4.17296e-07
4.24724e-07
4.32154e-07
4.39586e-07
4.47017e-07
4.54446e-07
4.61873e-07
4.69295e-07
4.76711e-07
4.84121e-07
4.91523e-07
4.98916e-07
5.06299e-07
5.13671e-07
5.21031e-07
5.28378e-07
5.35711e-07
5.43027e-07
5.50327e-07
5.57609e-07
5.64871e-07
5.72111e-07
5.79329e-07
5.86522e-07
5.93689e-07
6.00827e-07
6.07935e-07
6.15011e-07
6.22052e-07
6.29056e-07
6.36021e-07
6.42945e-07
6.49823e-07
6.56655e-07
6.63437e-07
6.70165e-07
6.76838e-07
6.83452e-07
6.90004e-07
6.9649e-07
7.02908e-07
7.09253e-07
7.15522e-07
7.21711e-07
7.27817e-07
7.33835e-07
7.39762e-07
7.45594e-07
7.51327e-07
7.56956e-07
7.62477e-07
7.67886e-07
7.73179e-07
7.78351e-07
7.83397e-07
7.88314e-07
7.93096e-07
7.97739e-07
8.02238e-07
8.06589e-07
8.10787e-07
8.14828e-07
8.18706e-07
8.22417e-07
8.25956e-07
8.2932e-07
8.32502e-07
8.35498e-07
8.38305e-07
8.40917e-07
8.43329e-07
8.4554e-07
8.47541e-07
8.49331e-07
8.50904e-07
8.52257e-07
8.53388e-07
8.54287e-07
8.54959e-07
8.55402e-07
8.55604e-07
8.55563e-07
8.55278e-07
8.54743e-07
8.53957e-07
8.52917e-07
8.5162e-07
8.50066e-07
8.48259e-07
8.46204e-07
8.43937e-07
8.41443e-07
8.38976e-07
8.36097e-07
3.74446e-08
3.75183e-08
3.76755e-08
3.79158e-08
3.82395e-08
3.86479e-08
3.9143e-08
3.97266e-08
4.04005e-08
4.11667e-08
4.2027e-08
4.29833e-08
4.40375e-08
4.51915e-08
4.64472e-08
4.78063e-08
4.92706e-08
5.08419e-08
5.25219e-08
5.43123e-08
5.62146e-08
5.82304e-08
6.03612e-08
6.26084e-08
6.49733e-08
6.74571e-08
7.0061e-08
7.27862e-08
7.56335e-08
7.86038e-08
8.16979e-08
8.49165e-08
8.826e-08
9.17289e-08
9.53233e-08
9.90435e-08
1.02889e-07
1.06861e-07
1.10957e-07
1.15179e-07
1.19524e-07
1.23993e-07
1.28584e-07
1.33296e-07
1.38127e-07
1.43077e-07
1.48144e-07
1.53325e-07
1.58619e-07
1.64024e-07
1.69537e-07
1.75156e-07
1.80878e-07
1.86701e-07
1.92622e-07
1.98638e-07
2.04746e-07
2.10943e-07
2.17225e-07
2.23591e-07
2.30035e-07
2.36556e-07
2.43149e-07
2.49813e-07
2.56542e-07
2.63335e-07
2.70187e-07
2.77097e-07
2.84059e-07
2.91073e-07
2.98133e-07
3.05239e-07
3.12386e-07
3.19571e-07
3.26793e-07
3.34049e-07
3.41335e-07
3.4865e-07
3.5599e-07
3.63355e-07
3.70741e-07
3.78147e-07
3.8557e-07
3.93008e-07
4.0046e-07
4.07924e-07
4.15397e-07
4.22879e-07
4.30368e-07
4.37863e-07
4.45361e-07
4.52862e-07
4.60364e-07
4.67866e-07
4.75367e-07
4.82866e-07
4.90362e-07
4.97853e-07
5.05338e-07
5.12818e-07
5.20289e-07
5.27752e-07
5.35205e-07
5.42646e-07
5.50075e-07
5.5749e-07
5.64889e-07
5.72271e-07
5.79634e-07
5.86976e-07
5.94296e-07
6.01591e-07
6.08859e-07
6.16098e-07
6.23305e-07
6.30479e-07
6.37616e-07
6.44714e-07
6.5177e-07
6.58781e-07
6.65745e-07
6.72657e-07
6.79516e-07
6.86317e-07
6.93057e-07
6.99733e-07
7.06341e-07
7.12877e-07
7.19338e-07
7.25719e-07
7.32017e-07
7.38227e-07
7.44345e-07
7.50368e-07
7.5629e-07
7.62108e-07
7.67817e-07
7.73412e-07
7.78889e-07
7.84243e-07
7.8947e-07
7.94564e-07
7.99522e-07
8.04338e-07
8.09007e-07
8.13526e-07
8.17888e-07
8.22089e-07
8.26125e-07
8.29991e-07
8.33681e-07
8.37192e-07
8.40519e-07
8.43654e-07
8.46598e-07
8.49344e-07
8.51886e-07
8.54222e-07
8.56346e-07
8.58254e-07
8.59943e-07
8.61408e-07
8.62647e-07
8.63652e-07
8.64426e-07
8.64965e-07
8.65262e-07
8.65313e-07
8.65117e-07
8.64671e-07
8.63969e-07
8.63011e-07
8.61792e-07
8.60312e-07
8.58572e-07
8.56576e-07
8.54353e-07
8.51885e-07
8.49407e-07
8.46539e-07
3.69863e-08
3.70597e-08
3.7216e-08
3.74547e-08
3.77759e-08
3.81809e-08
3.86715e-08
3.92494e-08
3.99164e-08
4.06742e-08
4.15247e-08
4.24696e-08
4.35108e-08
4.46501e-08
4.58892e-08
4.723e-08
4.86742e-08
5.02234e-08
5.18795e-08
5.36441e-08
5.55187e-08
5.7505e-08
5.96044e-08
6.18184e-08
6.41484e-08
6.65957e-08
6.91614e-08
7.18467e-08
7.46528e-08
7.75804e-08
8.06305e-08
8.38038e-08
8.71009e-08
9.05223e-08
9.40684e-08
9.77393e-08
1.01535e-07
1.05456e-07
1.09501e-07
1.13671e-07
1.17965e-07
1.22381e-07
1.2692e-07
1.3158e-07
1.36359e-07
1.41257e-07
1.46273e-07
1.51403e-07
1.56647e-07
1.62002e-07
1.67467e-07
1.73038e-07
1.78714e-07
1.84492e-07
1.90369e-07
1.96343e-07
2.0241e-07
2.08568e-07
2.14814e-07
2.21144e-07
2.27556e-07
2.34046e-07
2.40612e-07
2.47249e-07
2.53956e-07
2.60729e-07
2.67564e-07
2.74459e-07
2.81411e-07
2.88416e-07
2.95473e-07
3.02577e-07
3.09727e-07
3.16919e-07
3.24151e-07
3.3142e-07
3.38725e-07
3.46062e-07
3.53429e-07
3.60824e-07
3.68246e-07
3.75691e-07
3.83158e-07
3.90645e-07
3.9815e-07
4.05672e-07
4.13209e-07
4.20759e-07
4.28322e-07
4.35894e-07
4.43476e-07
4.51065e-07
4.58661e-07
4.66263e-07
4.73869e-07
4.81478e-07
4.89089e-07
4.967e-07
5.04312e-07
5.11923e-07
5.19532e-07
5.27137e-07
5.34737e-07
5.42332e-07
5.49919e-07
5.57497e-07
5.65064e-07
5.72619e-07
5.80159e-07
5.87683e-07
5.9519e-07
6.02675e-07
6.10138e-07
6.17576e-07
6.24986e-07
6.32366e-07
6.39712e-07
6.47023e-07
6.54295e-07
6.61525e-07
6.6871e-07
6.75846e-07
6.8293e-07
6.89959e-07
6.96928e-07
7.03834e-07
7.10673e-07
7.17442e-07
7.24135e-07
7.3075e-07
7.3728e-07
7.43723e-07
7.50074e-07
7.56328e-07
7.62481e-07
7.68528e-07
7.74464e-07
7.80285e-07
7.85985e-07
7.9156e-07
7.97006e-07
8.02316e-07
8.07487e-07
8.12512e-07
8.17388e-07
8.22109e-07
8.26671e-07
8.31067e-07
8.35295e-07
8.39348e-07
8.43221e-07
8.4691e-07
8.50412e-07
8.53719e-07
8.56828e-07
8.59735e-07
8.62434e-07
8.64923e-07
8.67194e-07
8.69247e-07
8.71075e-07
8.72676e-07
8.74046e-07
8.7518e-07
8.76077e-07
8.76735e-07
8.77147e-07
8.77312e-07
8.77226e-07
8.76886e-07
8.76288e-07
8.7543e-07
8.74307e-07
8.72919e-07
8.71264e-07
8.69343e-07
8.67182e-07
8.64759e-07
8.62293e-07
8.59411e-07
3.64245e-08
3.6498e-08
3.66532e-08
3.68896e-08
3.72074e-08
3.76078e-08
3.80924e-08
3.86629e-08
3.9321e-08
4.00683e-08
4.09066e-08
4.18376e-08
4.2863e-08
4.39846e-08
4.52041e-08
4.65232e-08
4.79437e-08
4.94673e-08
5.10957e-08
5.28304e-08
5.46733e-08
5.66257e-08
5.86893e-08
6.08656e-08
6.3156e-08
6.55617e-08
6.80843e-08
7.07247e-08
7.34843e-08
7.63639e-08
7.93646e-08
8.24871e-08
8.57323e-08
8.91006e-08
9.25926e-08
9.62085e-08
9.99487e-08
1.03813e-07
1.07802e-07
1.11914e-07
1.1615e-07
1.20508e-07
1.24989e-07
1.29591e-07
1.34313e-07
1.39154e-07
1.44113e-07
1.49188e-07
1.54376e-07
1.59677e-07
1.65089e-07
1.70608e-07
1.76233e-07
1.81962e-07
1.87792e-07
1.9372e-07
1.99743e-07
2.05859e-07
2.12066e-07
2.18359e-07
2.24736e-07
2.31194e-07
2.37731e-07
2.44342e-07
2.51026e-07
2.57779e-07
2.64598e-07
2.7148e-07
2.78423e-07
2.85423e-07
2.92477e-07
2.99584e-07
3.0674e-07
3.13943e-07
3.21191e-07
3.2848e-07
3.35809e-07
3.43175e-07
3.50576e-07
3.5801e-07
3.65475e-07
3.72969e-07
3.80491e-07
3.88037e-07
3.95608e-07
4.03201e-07
4.10814e-07
4.18446e-07
4.26096e-07
4.33762e-07
4.41444e-07
4.49139e-07
4.56846e-07
4.64566e-07
4.72295e-07
4.80034e-07
4.87782e-07
4.95536e-07
5.03297e-07
5.11063e-07
5.18832e-07
5.26605e-07
5.34379e-07
5.42153e-07
5.49925e-07
5.57694e-07
5.65458e-07
5.73215e-07
5.80963e-07
5.887e-07
5.96424e-07
6.04133e-07
6.11823e-07
6.19493e-07
6.27139e-07
6.34759e-07
6.4235e-07
6.49909e-07
6.57433e-07
6.64917e-07
6.72359e-07
6.79755e-07
6.87101e-07
6.94394e-07
7.0163e-07
7.08804e-07
7.15912e-07
7.2295e-07
7.29914e-07
7.36799e-07
7.43601e-07
7.50314e-07
7.56934e-07
7.63457e-07
7.69877e-07
7.7619e-07
7.8239e-07
7.88473e-07
7.94433e-07
8.00265e-07
8.05964e-07
8.11525e-07
8.16943e-07
8.22212e-07
8.27327e-07
8.32284e-07
8.37076e-07
8.41699e-07
8.46149e-07
8.5042e-07
8.54506e-07
8.58403e-07
8.62107e-07
8.65612e-07
8.68913e-07
8.72008e-07
8.74889e-07
8.77554e-07
8.79999e-07
8.82218e-07
8.84209e-07
8.85967e-07
8.8749e-07
8.88773e-07
8.89814e-07
8.90611e-07
8.9116e-07
8.91456e-07
8.91499e-07
8.91283e-07
8.90807e-07
8.90066e-07
8.89058e-07
8.87777e-07
8.86225e-07
8.84397e-07
8.82316e-07
8.79955e-07
8.77524e-07
8.74633e-07
3.57556e-08
3.58292e-08
3.59829e-08
3.62164e-08
3.65299e-08
3.69245e-08
3.74018e-08
3.79633e-08
3.86107e-08
3.93456e-08
4.01696e-08
4.10843e-08
4.20915e-08
4.31928e-08
4.43899e-08
4.56845e-08
4.70784e-08
4.85732e-08
5.01706e-08
5.18722e-08
5.36797e-08
5.55948e-08
5.76189e-08
5.97537e-08
6.20005e-08
6.4361e-08
6.68363e-08
6.94278e-08
7.21367e-08
7.49641e-08
7.79111e-08
8.09787e-08
8.41676e-08
8.74785e-08
9.09121e-08
9.44687e-08
9.81488e-08
1.01952e-07
1.0588e-07
1.09931e-07
1.14105e-07
1.18401e-07
1.2282e-07
1.27361e-07
1.32022e-07
1.36802e-07
1.417e-07
1.46715e-07
1.51846e-07
1.57089e-07
1.62445e-07
1.67909e-07
1.73482e-07
1.79159e-07
1.84939e-07
1.90819e-07
1.96798e-07
2.02871e-07
2.09037e-07
2.15293e-07
2.21635e-07
2.28062e-07
2.3457e-07
2.41157e-07
2.47819e-07
2.54553e-07
2.61358e-07
2.6823e-07
2.75166e-07
2.82165e-07
2.89222e-07
2.96336e-07
3.03504e-07
3.10723e-07
3.17992e-07
3.25307e-07
3.32668e-07
3.40071e-07
3.47514e-07
3.54996e-07
3.62515e-07
3.70068e-07
3.77655e-07
3.85272e-07
3.9292e-07
4.00596e-07
4.08299e-07
4.16027e-07
4.2378e-07
4.31555e-07
4.39352e-07
4.47169e-07
4.55006e-07
4.62861e-07
4.70733e-07
4.78621e-07
4.86525e-07
4.94443e-07
5.02374e-07
5.10317e-07
5.18271e-07
5.26235e-07
5.34206e-07
5.42184e-07
5.50167e-07
5.58153e-07
5.66141e-07
5.74127e-07
5.82111e-07
5.90089e-07
5.9806e-07
6.06021e-07
6.13968e-07
6.219e-07
6.29813e-07
6.37705e-07
6.45572e-07
6.5341e-07
6.61217e-07
6.68988e-07
6.76721e-07
6.8441e-07
6.92051e-07
6.99642e-07
7.07177e-07
7.14653e-07
7.22063e-07
7.29405e-07
7.36673e-07
7.43862e-07
7.50968e-07
7.57986e-07
7.64909e-07
7.71734e-07
7.78455e-07
7.85066e-07
7.91563e-07
7.9794e-07
8.04192e-07
8.10312e-07
8.16297e-07
8.22139e-07
8.27835e-07
8.33377e-07
8.38761e-07
8.43983e-07
8.49036e-07
8.53914e-07
8.58614e-07
8.63129e-07
8.67454e-07
8.71585e-07
8.75517e-07
8.79243e-07
8.82762e-07
8.86067e-07
8.89154e-07
8.92018e-07
8.94657e-07
8.97065e-07
8.99239e-07
9.01175e-07
9.0287e-07
9.04321e-07
9.05525e-07
9.0648e-07
9.07181e-07
9.07628e-07
9.07816e-07
9.07742e-07
9.07404e-07
9.06797e-07
9.05918e-07
9.04763e-07
9.03329e-07
9.01611e-07
8.99629e-07
8.9735e-07
8.94977e-07
8.92096e-07
3.49744e-08
3.50481e-08
3.52001e-08
3.54302e-08
3.57385e-08
3.61264e-08
3.65952e-08
3.71464e-08
3.77816e-08
3.85024e-08
3.93103e-08
4.02068e-08
4.11937e-08
4.22725e-08
4.3445e-08
4.47127e-08
4.60774e-08
4.75408e-08
4.91045e-08
5.07703e-08
5.25397e-08
5.44145e-08
5.63962e-08
5.84865e-08
6.06869e-08
6.29989e-08
6.5424e-08
6.79634e-08
7.06187e-08
7.33908e-08
7.62812e-08
7.92906e-08
8.24202e-08
8.56708e-08
8.9043e-08
9.25375e-08
9.61546e-08
9.98949e-08
1.03758e-07
1.07745e-07
1.11855e-07
1.16087e-07
1.20442e-07
1.24918e-07
1.29516e-07
1.34234e-07
1.3907e-07
1.44024e-07
1.49095e-07
1.5428e-07
1.59578e-07
1.64987e-07
1.70505e-07
1.76131e-07
1.81862e-07
1.87695e-07
1.93628e-07
1.9966e-07
2.05787e-07
2.12006e-07
2.18316e-07
2.24713e-07
2.31195e-07
2.37759e-07
2.44402e-07
2.51123e-07
2.57917e-07
2.64783e-07
2.71718e-07
2.7872e-07
2.85785e-07
2.92912e-07
3.00099e-07
3.07342e-07
3.14639e-07
3.21989e-07
3.2939e-07
3.36839e-07
3.44334e-07
3.51874e-07
3.59457e-07
3.6708e-07
3.74744e-07
3.82445e-07
3.90182e-07
3.97955e-07
4.05761e-07
4.13599e-07
4.21469e-07
4.29369e-07
4.37297e-07
4.45253e-07
4.53236e-07
4.61244e-07
4.69277e-07
4.77334e-07
4.85414e-07
4.93515e-07
5.01637e-07
5.09778e-07
5.17938e-07
5.26115e-07
5.34307e-07
5.42512e-07
5.5073e-07
5.58957e-07
5.67192e-07
5.75433e-07
5.83678e-07
5.91923e-07
6.00167e-07
6.08406e-07
6.16637e-07
6.24859e-07
6.33066e-07
6.41257e-07
6.49428e-07
6.57574e-07
6.65693e-07
6.7378e-07
6.81831e-07
6.89842e-07
6.97808e-07
7.05726e-07
7.1359e-07
7.21396e-07
7.29138e-07
7.36813e-07
7.44414e-07
7.51937e-07
7.59377e-07
7.66727e-07
7.73983e-07
7.81138e-07
7.88189e-07
7.95128e-07
8.01949e-07
8.08649e-07
8.15219e-07
8.21656e-07
8.27953e-07
8.34104e-07
8.40104e-07
8.45946e-07
8.51626e-07
8.57137e-07
8.62475e-07
8.67632e-07
8.72605e-07
8.77389e-07
8.81976e-07
8.86363e-07
8.90545e-07
8.94516e-07
8.98272e-07
9.01808e-07
9.05121e-07
9.08205e-07
9.11056e-07
9.13671e-07
9.16047e-07
9.18178e-07
9.20064e-07
9.21699e-07
9.23083e-07
9.24212e-07
9.25084e-07
9.25695e-07
9.26044e-07
9.26127e-07
9.25942e-07
9.25485e-07
9.24751e-07
9.23736e-07
9.22436e-07
9.20846e-07
9.18981e-07
9.16804e-07
9.14512e-07
9.11668e-07
3.40749e-08
3.41487e-08
3.42988e-08
3.4525e-08
3.48278e-08
3.52081e-08
3.56675e-08
3.62074e-08
3.68293e-08
3.75346e-08
3.83248e-08
3.92016e-08
4.01665e-08
4.12211e-08
4.2367e-08
4.36059e-08
4.49395e-08
4.63694e-08
4.78974e-08
4.95252e-08
5.12544e-08
5.30867e-08
5.50239e-08
5.70676e-08
5.92194e-08
6.14808e-08
6.38535e-08
6.63389e-08
6.89384e-08
7.16533e-08
7.4485e-08
7.74346e-08
8.05031e-08
8.36916e-08
8.70008e-08
9.04316e-08
9.39845e-08
9.76599e-08
1.01458e-07
1.0538e-07
1.09424e-07
1.13592e-07
1.17882e-07
1.22294e-07
1.26828e-07
1.31483e-07
1.36257e-07
1.41151e-07
1.46162e-07
1.51289e-07
1.56531e-07
1.61886e-07
1.67352e-07
1.72928e-07
1.78611e-07
1.84399e-07
1.9029e-07
1.96282e-07
2.02373e-07
2.0856e-07
2.1484e-07
2.21212e-07
2.27672e-07
2.34219e-07
2.40849e-07
2.47561e-07
2.54351e-07
2.61218e-07
2.68159e-07
2.75171e-07
2.82252e-07
2.894e-07
2.96613e-07
3.03889e-07
3.11225e-07
3.18619e-07
3.2607e-07
3.33576e-07
3.41134e-07
3.48743e-07
3.56402e-07
3.64108e-07
3.71861e-07
3.79658e-07
3.87499e-07
3.95383e-07
4.03307e-07
4.1127e-07
4.19273e-07
4.27312e-07
4.35388e-07
4.435e-07
4.51646e-07
4.59825e-07
4.68037e-07
4.76281e-07
4.84555e-07
4.92859e-07
5.01192e-07
5.09552e-07
5.17938e-07
5.26348e-07
5.34782e-07
5.43236e-07
5.5171e-07
5.60201e-07
5.68706e-07
5.77224e-07
5.85752e-07
5.94287e-07
6.02827e-07
6.11368e-07
6.19908e-07
6.28442e-07
6.36969e-07
6.45483e-07
6.53981e-07
6.6246e-07
6.70915e-07
6.79342e-07
6.87737e-07
6.96094e-07
7.0441e-07
7.12679e-07
7.20897e-07
7.29058e-07
7.37157e-07
7.45189e-07
7.53149e-07
7.6103e-07
7.68827e-07
7.76535e-07
7.84147e-07
7.91657e-07
7.9906e-07
8.0635e-07
8.13521e-07
8.20566e-07
8.27479e-07
8.34254e-07
8.40886e-07
8.47367e-07
8.53693e-07
8.59857e-07
8.65853e-07
8.71675e-07
8.77318e-07
8.82775e-07
8.88042e-07
8.93113e-07
8.97981e-07
9.02643e-07
9.07093e-07
9.11326e-07
9.15338e-07
9.19123e-07
9.22678e-07
9.25998e-07
9.29079e-07
9.31917e-07
9.34509e-07
9.36852e-07
9.38943e-07
9.40778e-07
9.42356e-07
9.43673e-07
9.44728e-07
9.45519e-07
9.46043e-07
9.46297e-07
9.46278e-07
9.45983e-07
9.45408e-07
9.44548e-07
9.43398e-07
9.41951e-07
9.40221e-07
9.38165e-07
9.35978e-07
9.33198e-07
3.30502e-08
3.31241e-08
3.32722e-08
3.34944e-08
3.37911e-08
3.41635e-08
3.46128e-08
3.51406e-08
3.57482e-08
3.6437e-08
3.72086e-08
3.80644e-08
3.9006e-08
4.0035e-08
4.1153e-08
4.23616e-08
4.36626e-08
4.50576e-08
4.65483e-08
4.81366e-08
4.9824e-08
5.16125e-08
5.35037e-08
5.54994e-08
5.76012e-08
5.98108e-08
6.21299e-08
6.45601e-08
6.71029e-08
6.97597e-08
7.25319e-08
7.54209e-08
7.84279e-08
8.15539e-08
8.47999e-08
8.81669e-08
9.16555e-08
9.52665e-08
9.90001e-08
1.02857e-07
1.06837e-07
1.1094e-07
1.15167e-07
1.19516e-07
1.23988e-07
1.28582e-07
1.33297e-07
1.38132e-07
1.43086e-07
1.48158e-07
1.53347e-07
1.58651e-07
1.64069e-07
1.69599e-07
1.75238e-07
1.80986e-07
1.8684e-07
1.92798e-07
1.98858e-07
2.05018e-07
2.11276e-07
2.17629e-07
2.24074e-07
2.30611e-07
2.37236e-07
2.43947e-07
2.50742e-07
2.57618e-07
2.64573e-07
2.71606e-07
2.78713e-07
2.85893e-07
2.93143e-07
3.00463e-07
3.07849e-07
3.15299e-07
3.22813e-07
3.30388e-07
3.38022e-07
3.45714e-07
3.53462e-07
3.61265e-07
3.69122e-07
3.77031e-07
3.8499e-07
3.92999e-07
4.01057e-07
4.09162e-07
4.17313e-07
4.2551e-07
4.3375e-07
4.42035e-07
4.50361e-07
4.58729e-07
4.67138e-07
4.75587e-07
4.84074e-07
4.926e-07
5.01162e-07
5.0976e-07
5.18392e-07
5.27056e-07
5.35751e-07
5.44474e-07
5.53224e-07
5.61998e-07
5.70794e-07
5.79609e-07