/*--------------------------------*- C++ -*----------------------------------*\
| =========                 |                                                 |
| \\      /  F ield         | OpenFOAM: The Open Source CFD Toolbox           |
|  \\    /   O peration     | Version:  2.3.0                                 |
|   \\  /    A nd           | Web:      www.OpenFOAM.org                      |
|    \\/     M anipulation  |                                                 |
\*---------------------------------------------------------------------------*/
FoamFile
{
    version     2.0;
    format      ascii;
    class       volScalarField;
    location    "2.45";
    object      epsilon;
}
// * * * * * * * * * * * * * * * * * * * * * * * * * * * * * * * * * * * * * //

dimensions      [0 2 -3 0 0 0 0];

internalField   nonuniform List<scalar> 
2268
(
0.00457021
0.0225284
0.0413008
0.0593925
0.0770826
0.0950835
0.113498
0.132479
0.152165
0.172676
0.194008
0.215826
0.237231
0.256696
0.272254
0.281776
0.282822
0.27215
0.24847
0.217013
0.177974
0.115255
0.0319689
0.00862945
0.0150285
0.0229622
0.0309964
0.0390658
0.0473716
0.0559828
0.0649743
0.0744098
0.0843262
0.0946934
0.105336
0.115835
0.125477
0.133297
0.138224
0.139237
0.135682
0.127263
0.114095
0.0974789
0.075416
0.0533946
0.0140679
0.0157172
0.021218
0.0271815
0.0333449
0.03976
0.0464872
0.0535955
0.0611481
0.0691827
0.0776714
0.0864563
0.0951809
0.103267
0.109982
0.114564
0.116378
0.115113
0.110861
0.104131
0.0957402
0.0859634
0.0874425
0.0193868
0.0175242
0.0217782
0.0268324
0.0322302
0.0379396
0.044007
0.0505004
0.0574894
0.0650199
0.0730647
0.0814539
0.0898187
0.0976035
0.104167
0.108926
0.111491
0.111822
0.110396
0.108197
0.106162
0.105196
0.123505
0.0247565
0.0197516
0.02313
0.0276572
0.0326701
0.0380772
0.0439123
0.0502442
0.0571528
0.0646951
0.0728415
0.0813908
0.089924
0.0978592
0.104602
0.109713
0.113033
0.114819
0.11595
0.117965
0.122371
0.130709
0.164896
0.0301322
0.0222302
0.0249127
0.0290963
0.0339156
0.0392284
0.0450556
0.0514751
0.0585791
0.0664399
0.07502
0.0840658
0.0930717
0.101395
0.108469
0.114
0.118077
0.121283
0.12492
0.131164
0.142666
0.163336
0.220978
0.0355967
0.024922
0.027016
0.0309667
0.0357133
0.0410725
0.0470521
0.0537379
0.0612466
0.069668
0.0789507
0.088759
0.0984561
0.107304
0.114761
0.120697
0.125475
0.130019
0.136031
0.146242
0.164992
0.202579
0.312334
0.0413398
0.0278475
0.0294191
0.033214
0.0379804
0.0435008
0.0497727
0.0568834
0.0649855
0.0741946
0.084436
0.0952484
0.105805
0.115237
0.123032
0.129256
0.134568
0.140204
0.148109
0.161183
0.184781
0.238121
0.468383
0.0284038
0.0883927
0.152511
0.196059
0.222478
0.231585
0.217774
0.178101
0.132574
0.0959163
0.0809179
0.070832
0.0548473
0.0515811
0.0584597
0.0646157
0.065271
0.0485225
0.0147897
0.039589
0.0587846
0.0813002
0.0970497
0.106078
0.108492
0.10368
0.0925761
0.0798567
0.0625141
0.0490791
0.0409573
0.0354782
0.0336824
0.0341505
0.0337794
0.0326303
0.0276731
0.0194238
0.060059
0.0611976
0.07413
0.0833695
0.0881308
0.0882063
0.0838387
0.076531
0.0681135
0.0562737
0.0455375
0.0383556
0.0338344
0.0319497
0.0317798
0.0315882
0.0310875
0.0288542
0.0278796
0.0792869
0.0685363
0.0757497
0.0812051
0.0834145
0.0819161
0.0772436
0.0709766
0.0637015
0.054573
0.0459941
0.0397784
0.0357617
0.0337129
0.0332216
0.0332654
0.0331567
0.0322643
0.0363696
0.100151
0.0783453
0.0802978
0.0825781
0.082713
0.0799781
0.0749533
0.0690747
0.0623595
0.0549705
0.0480763
0.0428824
0.0394546
0.0373428
0.0364752
0.0363503
0.0363095
0.0362715
0.0457142
0.126636
0.0901051
0.0861521
0.0853784
0.0836976
0.0799985
0.0747335
0.0691089
0.0629892
0.0569068
0.0513617
0.0471635
0.0443505
0.0422332
0.0408972
0.0402563
0.0400226
0.0406525
0.0568618
0.168168
0.103357
0.0924358
0.0887234
0.0854888
0.081085
0.0757912
0.0705177
0.065149
0.0601985
0.0557626
0.0524164
0.0500935
0.047956
0.0460903
0.0447265
0.0441479
0.0456075
0.0717427
0.267173
0.116497
0.0983525
0.0921417
0.0876841
0.0828515
0.0777681
0.07304
0.0686535
0.0647509
0.0611855
0.0584472
0.0563993
0.0541622
0.0517354
0.0495563
0.0485672
0.0509096
0.0883647
0.050954
0.0328354
0.033672
0.0373262
0.0422512
0.0481944
0.0551375
0.0631635
0.0724883
0.0832947
0.0954503
0.108197
0.120282
0.130582
0.138659
0.144953
0.150609
0.157225
0.166656
0.180438
0.199709
0.225735
0.275252
0.0666642
0.0414341
0.041298
0.0449367
0.0503929
0.0574277
0.0659519
0.0759597
0.0878146
0.101923
0.117985
0.134329
0.148604
0.159256
0.166203
0.170717
0.174671
0.179712
0.186701
0.194479
0.199475
0.198212
0.193942
0.0920866
0.0542017
0.0520653
0.0555783
0.0618581
0.070789
0.0819419
0.0948226
0.110271
0.129305
0.151276
0.172244
0.187971
0.196922
0.199997
0.199965
0.199844
0.201037
0.203584
0.204901
0.201995
0.193923
0.183039
0.158513
0.0753494
0.0676101
0.0705967
0.0778787
0.0899885
0.105271
0.121656
0.141537
0.167382
0.197844
0.223096
0.23696
0.240871
0.237864
0.231627
0.225719
0.222634
0.222072
0.219194
0.212941
0.202681
0.189022
0.22356
0.0949709
0.083413
0.0854426
0.093408
0.107812
0.126343
0.1451
0.166899
0.195462
0.227491
0.248047
0.257935
0.263
0.262417
0.257648
0.252235
0.244734
0.239108
0.235525
0.23067
0.220656
0.202155
0.213981
0.117666
0.102038
0.0977167
0.103544
0.116344
0.134886
0.154622
0.173826
0.196872
0.218815
0.2335
0.243607
0.251295
0.256534
0.259231
0.261737
0.26237
0.259685
0.249023
0.240299
0.230848
0.209981
0.22772
0.12097
0.109376
0.109328
0.115007
0.125778
0.141467
0.158275
0.173485
0.191468
0.208109
0.221403
0.232716
0.241446
0.246702
0.24947
0.253058
0.258999
0.262838
0.252523
0.236946
0.223502
0.205892
0.240214
0.113693
0.105785
0.114204
0.125153
0.134525
0.143442
0.154491
0.169148
0.187003
0.201975
0.213958
0.227857
0.238171
0.241952
0.24182
0.242976
0.24669
0.249408
0.245919
0.235934
0.220505
0.202374
0.232485
0.106476
0.0998735
0.110295
0.124093
0.134196
0.140375
0.14903
0.162611
0.178773
0.193374
0.205232
0.218857
0.229978
0.235652
0.236428
0.235703
0.236928
0.237942
0.23594
0.230047
0.218607
0.198859
0.216386
0.0991216
0.092601
0.101765
0.114494
0.12508
0.132527
0.141267
0.153442
0.167303
0.180679
0.192894
0.204836
0.21403
0.21914
0.221928
0.224335
0.227839
0.230135
0.227552
0.220641
0.20895
0.189126
0.195637
0.0912677
0.084657
0.0918261
0.102526
0.112567
0.121059
0.130795
0.142742
0.155273
0.167385
0.179184
0.190136
0.197783
0.201073
0.20278
0.205009
0.209022
0.212193
0.209158
0.199574
0.185677
0.169171
0.174275
0.0837302
0.0771101
0.0824041
0.0910579
0.100013
0.108465
0.117917
0.129285
0.141403
0.153308
0.164766
0.174996
0.181755
0.183833
0.183927
0.184235
0.185679
0.186901
0.184323
0.176279
0.165226
0.153427
0.1563
0.0775861
0.0707613
0.0744489
0.0812984
0.0889654
0.0967012
0.105111
0.114919
0.125773
0.136967
0.147922
0.157606
0.163951
0.165711
0.165011
0.164343
0.164417
0.164335
0.161763
0.155933
0.14821
0.139743
0.14388
0.0732371
0.0659764
0.0682596
0.0735577
0.0799355
0.0866875
0.0939241
0.102033
0.111007
0.120479
0.129926
0.138394
0.144341
0.146702
0.146636
0.146156
0.145987
0.145378
0.143007
0.1388
0.133436
0.127325
0.135477
0.070184
0.0625116
0.0636337
0.0676223
0.0728007
0.0785146
0.0846426
0.0913147
0.0985613
0.106189
0.113801
0.120721
0.125979
0.12887
0.129815
0.129966
0.12991
0.129183
0.127266
0.124248
0.120464
0.116038
0.129815
0.0679871
0.0599775
0.0601697
0.0630816
0.0672082
0.071945
0.0770735
0.0825712
0.0884235
0.0945053
0.100545
0.106102
0.110598
0.113587
0.115142
0.115782
0.115885
0.115319
0.113922
0.111766
0.109021
0.105747
0.125668
0.0662166
0.0579615
0.057433
0.0594815
0.0627233
0.0665987
0.0708562
0.0753961
0.0801592
0.0850436
0.0898634
0.0943368
0.0981157
0.10091
0.102663
0.103565
0.103827
0.1035
0.102528
0.100969
0.0989147
0.096411
0.121959
0.0645008
0.0561093
0.0550423
0.056415
0.0589358
0.0620843
0.0656045
0.0693628
0.0732732
0.0772419
0.0811343
0.084765
0.0879143
0.0903878
0.0920986
0.0930958
0.0934853
0.0933542
0.0926932
0.0915443
0.0899653
0.0879949
0.117863
0.0625655
0.0541655
0.0527153
0.0535722
0.0555214
0.0580759
0.0609866
0.0641088
0.0673449
0.0706057
0.0737873
0.0767606
0.0793798
0.0815108
0.0830736
0.0840641
0.08453
0.084535
0.0840949
0.0832387
0.0820082
0.0804403
0.112849
0.0602426
0.0519778
0.0502774
0.0507532
0.0522616
0.0543435
0.0567602
0.0593675
0.0620658
0.064772
0.0674014
0.0698594
0.0720444
0.0738621
0.0752479
0.0761809
0.0766773
0.0767749
0.0764968
0.0758632
0.0749086
0.0736685
0.106705
0.0574536
0.0494789
0.0476458
0.0478566
0.0490369
0.0507519
0.0527747
0.0549674
0.0572352
0.0595025
0.0616991
0.0637527
0.0655898
0.0671425
0.0683609
0.0692206
0.0697224
0.0698845
0.069734
0.069282
0.0685586
0.0675968
0.0994963
0.0541836
0.0466603
0.0448058
0.0448556
0.0458052
0.0472423
0.0489545
0.050815
0.0527379
0.0546568
0.0565133
0.0582509
0.0598146
0.0611543
0.0622313
0.0630229
0.063523
0.0637396
0.0636943
0.0633977
0.0628745
0.0621529
0.0914588
0.0504692
0.0435488
0.0417892
0.0417754
0.0425767
0.0438081
0.0452774
0.0468729
0.0485206
0.050164
0.0517549
0.0532483
0.0546018
0.0557773
0.0567444
0.0574831
0.0579849
0.0582526
0.0583011
0.058142
0.0577944
0.0572816
0.0830129
0.0463782
0.0401903
0.0386538
0.0386684
0.0393884
0.0404713
0.0417527
0.04314
0.0445718
0.0460011
0.0473883
0.048697
0.0498935
0.0509481
0.0518361
0.0525403
0.0530519
0.0533706
0.0535065
0.0534707
0.0532777
0.0529457
0.0746681
0.0420308
0.0366815
0.0354715
0.0355893
0.0362817
0.0372646
0.0384081
0.0396392
0.0409087
0.0421781
0.0434148
0.0445889
0.0456733
0.0466437
0.0474801
0.0481675
0.0486973
0.0490678
0.0492855
0.0493601
0.0493022
0.0491257
0.0666448
0.037661
0.0331812
0.0323347
0.0325946
0.0333016
0.0342314
0.0352869
0.0364128
0.0375705
0.0387289
0.0398614
0.0409434
0.0419525
0.0428691
0.0436762
0.0443611
0.0449158
0.0453376
0.0456304
0.0458025
0.045861
0.0458163
0.0591124
0.0335807
0.0298774
0.0293609
0.029764
0.0305169
0.0314385
0.0324545
0.0335231
0.0346145
0.0357046
0.0367717
0.0377959
0.0387592
0.0396451
0.0404398
0.0411323
0.0417152
0.0421856
0.0425458
0.0428017
0.0429582
0.0430228
0.0524328
0.029997
0.0269443
0.0266893
0.0272188
0.0280361
0.0289836
0.0299987
0.0310485
0.0321102
0.0331652
0.0341967
0.035189
0.0361277
0.0369995
0.0377929
0.0384985
0.03911
0.0396241
0.0400423
0.0403681
0.0406045
0.0407574
0.0470813
0.0270821
0.0245361
0.0244751
0.0251087
0.025993
0.026982
0.028018
0.0290726
0.0301279
0.0311696
0.0321852
0.0331625
0.0340904
0.0349582
0.0357564
0.0364773
0.037115
0.0376664
0.0381329
0.0385149
0.0388143
0.0390356
0.0434149
0.0249957
0.0227889
0.0228607
0.0235712
0.0245105
0.0255389
0.0266001
0.0276675
0.028726
0.0297649
0.0307745
0.031746
0.0326705
0.0335397
0.0343457
0.0350819
0.0357429
0.0363258
0.0368309
0.0372565
0.0376037
0.0378761
0.0415848
0.0238446
0.0218059
0.0219491
0.0227038
0.0236762
0.0247291
0.0258059
0.0268813
0.0279416
0.0289785
0.0299849
0.0309541
0.0318791
0.0327531
0.0335691
0.034321
0.0350036
0.035614
0.03615
0.0366092
0.0369917
0.0373005
0.0415921
0.023685
0.0216482
0.0217987
0.0225592
0.0235354
0.0245887
0.0256626
0.026732
0.0277852
0.0288152
0.029817
0.0307854
0.0317144
0.0325978
0.0334285
0.0341999
0.0349065
0.035544
0.0361074
0.0365936
0.0370025
0.0373368
0.0433851
0.0245351
0.0223423
0.0224311
0.0231519
0.0240948
0.0251175
0.026163
0.0272073
0.0282401
0.0292561
0.0302517
0.0312224
0.0321628
0.0330655
0.0339223
0.0347246
0.0354647
0.0361348
0.0367276
0.0372394
0.03767
0.0380224
0.0469223
0.0263971
0.0238913
0.0238398
0.0244644
0.0253278
0.0262815
0.027268
0.0282646
0.0292627
0.0302586
0.0312497
0.0322319
0.0331991
0.0341418
0.0350482
0.0359048
0.0366993
0.0374171
0.0380489
0.0385906
0.0390427
0.0394099
0.0521724
0.0292662
0.0262795
0.025992
0.0264484
0.0271745
0.0280131
0.0289057
0.0298309
0.0307812
0.0317546
0.0327495
0.0337624
0.0347857
0.0358065
0.0368056
0.0377599
0.0386463
0.0394404
0.0401303
0.0407124
0.0411902
0.0415718
0.0590555
0.0331134
0.0294603
0.028819
0.0290179
0.0295372
0.0302082
0.0309698
0.0318002
0.032693
0.0336475
0.0346641
0.0357408
0.0368698
0.0380329
0.0391993
0.0403273
0.0413675
0.0422842
0.0430615
0.0437
0.0442101
0.0446073
0.067349
0.0378434
0.0333301
0.0321989
0.0320373
0.0322733
0.0327223
0.0333171
0.034033
0.0348634
0.0358097
0.0368764
0.0380672
0.0393779
0.0407868
0.0422439
0.0436701
0.0449663
0.0460738
0.0469767
0.0476887
0.0482363
0.0486487
0.0765961
0.0432443
0.0376959
0.0359367
0.0353118
0.035192
0.035371
0.0357699
0.036358
0.0371271
0.038082
0.0392364
0.0406081
0.0422084
0.0440216
0.0459739
0.0479104
0.0496202
0.0510072
0.0520732
0.0528674
0.0534488
0.0538691
0.0860594
0.0489485
0.0422491
0.0397512
0.0385831
0.0380564
0.0379356
0.038124
0.0385809
0.0392952
0.0402778
0.0415594
0.0431877
0.0452155
0.0476653
0.0504539
0.0532814
0.0556379
0.0573945
0.0586346
0.059492
0.0600827
0.0604907
0.0947526
0.0544221
0.0465547
0.0432744
0.0415378
0.0405962
0.040178
0.0401634
0.040498
0.0411678
0.0421926
0.0436292
0.0455772
0.048177
0.0515712
0.055762
0.0602528
0.0635617
0.0657076
0.06705
0.067894
0.0684364
0.0687937
0.101571
0.0589741
0.0500593
0.0460679
0.0438277
0.0425289
0.0418613
0.0416798
0.0419164
0.0425539
0.0436223
0.0452097
0.0474859
0.0507362
0.0553816
0.0618663
0.0698883
0.0743393
0.0766141
0.0778096
0.0784775
0.0788759
0.0791275
0.1054
0.0617242
0.0521163
0.0476637
0.0451081
0.0435922
0.0427761
0.0424967
0.0426765
0.0432959
0.044392
0.0460765
0.0485792
0.0523385
0.0581944
0.0678423
0.0850363
0.0894828
0.0908894
0.0914386
0.0916989
0.091842
0.0919292
0.439815
0.411512
0.43997
0.520315
0.195825
0.192333
0.188254
0.180208
0.174545
0.168936
0.163089
0.156639
0.177818
0.171326
0.165418
0.159775
0.186901
0.179239
0.173085
0.167477
0.193084
0.184066
0.17634
0.169492
0.189478
0.179811
0.171392
0.164053
0.185445
0.175028
0.165832
0.157862
0.179984
0.169045
0.159468
0.151224
0.171546
0.161561
0.152308
0.143829
0.157104
0.149648
0.14219
0.135181
0.144528
0.138742
0.132918
0.12724
0.133095
0.128677
0.124136
0.119572
0.122321
0.118947
0.115428
0.111817
0.112255
0.109653
0.106901
0.104046
0.102879
0.100855
0.0986873
0.0964202
0.0941983
0.0926072
0.0908894
0.089085
0.0862459
0.0849837
0.0836259
0.0821959
0.0790463
0.0780417
0.0769666
0.0758333
0.0725638
0.0717671
0.0709163
0.070018
0.0667338
0.0661091
0.0654409
0.0647327
0.0614947
0.0610147
0.0604981
0.0599471
0.0567979
0.0564407
0.056052
0.0556329
0.0526112
0.0523585
0.0520783
0.0517708
0.0489179
0.0487539
0.0485655
0.0483523
0.0457148
0.0456252
0.0455136
0.0453793
0.0430089
0.0429803
0.0429316
0.042862
0.0408133
0.0408333
0.0408348
0.0408166
0.0391454
0.0392027
0.0392425
0.0392635
0.0380254
0.0381099
0.0381776
0.038227
0.0374774
0.0375805
0.0376671
0.0377357
0.0375317
0.0376466
0.0377448
0.0378251
0.0382286
0.0383502
0.0384547
0.038541
0.0396231
0.039748
0.0398552
0.0399435
0.0417899
0.0419162
0.0420238
0.0421116
0.0448291
0.0449557
0.0450623
0.0451484
0.0488724
0.048998
0.0491025
0.0491859
0.05409
0.0542119
0.0543122
0.0543916
0.0606985
0.0608114
0.0609036
0.0609762
0.0689709
0.069066
0.0691435
0.0692046
0.0792501
0.0793157
0.0793694
0.0794122
0.0919715
0.0919943
0.0920134
0.0920287
0.186008
0.12446
0.105571
0.0969915
0.091258
0.0862025
0.0819136
0.0786051
0.0760831
0.0736652
0.0710127
0.068765
0.066758
0.0641852
0.0608405
0.0573171
0.0554811
0.0586476
0.108337
0.151851
0.126431
0.111746
0.102792
0.0967067
0.0922916
0.0898316
0.0896258
0.0898718
0.0889103
0.086786
0.084299
0.0814216
0.077614
0.0726981
0.067697
0.0658795
0.0706797
0.13427
0.146066
0.130751
0.118374
0.109409
0.10332
0.0997683
0.0991478
0.101691
0.104385
0.104706
0.102695
0.0995802
0.0954959
0.090159
0.083699
0.0776328
0.076956
0.081088
0.134158
0.151442
0.138465
0.126765
0.117717
0.111583
0.108581
0.109286
0.113744
0.118475
0.120098
0.118084
0.114016
0.108478
0.101996
0.0944519
0.0872355
0.0857042
0.087366
0.153245
0.159415
0.146946
0.135831
0.12723
0.121272
0.118303
0.119391
0.125168
0.131877
0.13361
0.13007
0.124184
0.117402
0.111995
0.106758
0.0953736
0.082822
0.0795421
0.116223
0.160302
0.148966
0.140249
0.133742
0.128557
0.124617
0.12289
0.124339
0.126563
0.125321
0.121678
0.118382
0.116469
0.119958
0.116714
0.096445
0.0773046
0.0705403
0.0902092
0.154218
0.143803
0.136967
0.13237
0.128656
0.125165
0.121882
0.119283
0.116757
0.114255
0.114296
0.114494
0.112272
0.112691
0.106428
0.087536
0.0706957
0.0622888
0.0757457
0.147261
0.13699
0.1309
0.127179
0.124612
0.122308
0.119661
0.116425
0.111256
0.10662
0.105388
0.104067
0.0995924
0.0964724
0.0900754
0.0775781
0.06594
0.0574176
0.07374
0.140019
0.129359
0.122897
0.11892
0.116228
0.113645
0.110404
0.106472
0.10059
0.0949971
0.0914574
0.0889497
0.0849588
0.081746
0.077838
0.0705975
0.0621034
0.0539716
0.071059
0.13264
0.121545
0.113803
0.108256
0.10397
0.100085
0.0962067
0.0920039
0.0871605
0.0824623
0.0790239
0.076153
0.0730966
0.070908
0.0684233
0.0633585
0.0564993
0.0509968
0.0662304
0.125354
0.114609
0.106354
0.0998525
0.0944787
0.089774
0.0854544
0.0813187
0.0772589
0.0736189
0.0706385
0.0678367
0.0650367
0.0625747
0.0597117
0.0553292
0.0505752
0.0489119
0.0610425
0.118762
0.108763
0.100664
0.0940071
0.0883584
0.0834103
0.0789407
0.0748996
0.0713001
0.0682091
0.0655235
0.0626942
0.0594875
0.0561257
0.0526177
0.0490268
0.0468597
0.0486353
0.0601161
0.112403
0.103464
0.0959454
0.0896235
0.0842114
0.0794277
0.0750599
0.071125
0.0676818
0.0646838
0.061955
0.0589796
0.0554548
0.0516671
0.0481633
0.0456178
0.045316
0.0493933
0.064449
0.105908
0.0982053
0.0914793
0.085701
0.0807107
0.0762661
0.0721446
0.068331
0.0648976
0.0618163
0.0589333
0.055886
0.0524257
0.0488197
0.0457794
0.0440643
0.0447715
0.0503733
0.071674
0.0992417
0.0927873
0.0869507
0.0817948
0.0772545
0.0731657
0.0693289
0.065669
0.0622559
0.0591339
0.0561883
0.0531772
0.0499672
0.0468175
0.0443462
0.0432417
0.0445691
0.0515576
0.0799146
0.0925506
0.0872401
0.0822968
0.0777934
0.0737214
0.0699814
0.0664206
0.0629505
0.0596273
0.0565287
0.0535965
0.0506911
0.047782
0.0451143
0.0431746
0.0425704
0.0444072
0.0525262
0.087926
0.085986
0.0816984
0.0775788
0.0737209
0.0701307
0.0667512
0.0634701
0.0602194
0.0570509
0.0540417
0.0511812
0.0484195
0.0457982
0.0435435
0.0420517
0.0418837
0.0441778
0.0530294
0.0949106
0.0797203
0.076262
0.0728866
0.0696401
0.0665307
0.0635281
0.0605481
0.0575492
0.054588
0.051733
0.0490049
0.0464171
0.0440558
0.0421355
0.0410054
0.0412126
0.0439402
0.053395
0.100642
0.0738583
0.0710703
0.0683048
0.0656073
0.0629702
0.0603454
0.0576877
0.0549764
0.0522667
0.0496192
0.0470769
0.0446923
0.0425769
0.0409385
0.0401047
0.0406262
0.0437489
0.0539153
0.104703
0.0684443
0.0662004
0.0639395
0.0617021
0.0594824
0.0572366
0.054914
0.0525133
0.0500864
0.0476867
0.0453719
0.0432171
0.0413463
0.0399624
0.0393814
0.0401566
0.0435658
0.054082
0.10587
0.063485
0.0616867
0.0598469
0.0579994
0.0561396
0.0542342
0.0522454
0.0501691
0.0480407
0.0459111
0.0438509
0.0419448
0.0403217
0.0391788
0.0388228
0.0398038
0.0433969
0.0540886
0.10655
0.0589689
0.0575401
0.0560548
0.0545406
0.052995
0.051394
0.0497109
0.0479412
0.0461105
0.0442662
0.0424746
0.0408259
0.0394499
0.038538
0.0383861
0.0395311
0.0432489
0.0541446
0.108392
0.0548809
0.0537619
0.0525772
0.0513495
0.0500786
0.0487481
0.0473397
0.0458503
0.0442999
0.0427303
0.0412043
0.0398105
0.0386743
0.0379782
0.038007
0.039289
0.0431153
0.0542619
0.110886
0.0512101
0.0503524
0.0494231
0.0484414
0.0474091
0.046316
0.0451503
0.0439108
0.0426146
0.0412987
0.0400213
0.0388663
0.0379522
0.0374516
0.0376391
0.039038
0.04296
0.0543416
0.113099
0.0479531
0.0473154
0.0466021
0.0458298
0.0450022
0.0441138
0.0431579
0.0421358
0.0410629
0.0399726
0.0389182
0.0379774
0.0372612
0.0369323
0.037256
0.0387513
0.0427462
0.0542982
0.114755
0.0451152
0.0446606
0.0441274
0.0435305
0.0428747
0.0421586
0.0413794
0.0405408
0.0396578
0.0387606
0.0378981
0.0371419
0.036595
0.0364114
0.0368473
0.0384162
0.0424518
0.0540915
0.115888
0.0427085
0.0424033
0.042017
0.0415629
0.0410472
0.0404712
0.0398357
0.0391463
0.0384179
0.0376788
0.0369738
0.036369
0.0359604
0.0358936
0.0364165
0.0380341
0.0420731
0.0537078
0.116541
0.040751
0.040564
0.0402936
0.0399516
0.0395451
0.0390778
0.0385531
0.0379784
0.0373688
0.0367512
0.0361672
0.0356782
0.0353742
0.0353942
0.035978
0.0376199
0.0416275
0.0531612
0.116612
0.0392651
0.0391678
0.0389843
0.0387256
0.0383992
0.0380105
0.0375646
0.0370706
0.0365439
0.0360103
0.0355091
0.0350979
0.0348625
0.0349366
0.0355534
0.0371964
0.0411459
0.0524886
0.115747
0.038277
0.0382438
0.0381214
0.0379198
0.0376465
0.0373079
0.0369107
0.0364648
0.0359857
0.0354985
0.0350405
0.0346669
0.0344604
0.034551
0.0351677
0.036784
0.0406489
0.0517052
0.1135
0.0378182
0.037827
0.0377432
0.0375755
0.0373314
0.0370177
0.0366415
0.0362132
0.0357482
0.0352704
0.0348155
0.0344368
0.0342146
0.0342771
0.0348498
0.0363974
0.0401363
0.0508363
0.110533
0.037927
0.0379598
0.037896
0.0377431
0.0375083
0.0371978
0.036819
0.0363816
0.0359001
0.0353968
0.0349055
0.0344771
0.0341903
0.0341716
0.0346442
0.0360655
0.0396257
0.0499902
0.10854
0.0386523
0.0386953
0.0386373
0.0384848
0.0382439
0.0379204
0.0375204
0.0370525
0.0365291
0.0359697
0.035405
0.0348829
0.0344793
0.0343196
0.0346264
0.0358546
0.0391844
0.0492656
0.107654
0.0400574
0.040101
0.0400393
0.0398778
0.0396213
0.0392745
0.0388418
0.0383292
0.0377459
0.037107
0.0364381
0.0357815
0.0352092
0.0348445
0.034912
0.0358721
0.0389129
0.048711
0.107196
0.0422239
0.0422628
0.0421928
0.0420183
0.0417431
0.0413701
0.0409015
0.0403398
0.0396894
0.0389588
0.0381652
0.0373422
0.036553
0.0359166
0.0356612
0.0362618
0.0389306
0.0483788
0.106855
0.0452569
0.0452893
0.0452108
0.0450252
0.0447349
0.0443413
0.0438436
0.0432404
0.0425297
0.0417111
0.0407897
0.0397839
0.0387405
0.0377659
0.0370887
0.0372077
0.0393801
0.0483409
0.106245
0.0492896
0.0493166
0.0492335
0.0490437
0.0487489
0.0483486
0.0478396
0.0472161
0.0464692
0.0455878
0.0445604
0.0433823
0.0420703
0.0406997
0.0394838
0.0389526
0.0404548
0.0488021
0.106192
0.0544893
0.0545135
0.0544326
0.0542499
0.0539668
0.0535816
0.0530893
0.0524806
0.0517403
0.0508464
0.0497685
0.0484699
0.046918
0.0451211
0.0432326
0.0418128
0.0424213
0.0501381
0.10864
0.0610654
0.061089
0.0610184
0.0608567
0.0606052
0.0602623
0.0598222
0.0592741
0.0585994
0.057768
0.0567326
0.0554207
0.0537292
0.0515396
0.048832
0.0461112
0.0454687
0.0525544
0.114149
0.0692803
0.0693039
0.0692506
0.0691238
0.0689248
0.0686526
0.0683026
0.0678653
0.067323
0.0666445
0.0657752
0.0646167
0.0629887
0.0605744
0.0569302
0.0520535
0.0496002
0.0560144
0.122356
0.079466
0.0794861
0.0794544
0.0793736
0.0792453
0.0790695
0.0788439
0.0785625
0.0782136
0.0777745
0.0772011
0.0764003
0.0751592
0.0729541
0.0685016
0.0594159
0.0543023
0.0600172
0.132371
0.0920481
0.0920555
0.0920443
0.092016
0.0919715
0.0919114
0.0918353
0.0917419
0.0916278
0.0914861
0.0913013
0.0910354
0.0905714
0.0894685
0.0856854
0.0665623
0.0580605
0.0631868
0.140836
)
;

boundaryField
{
    leftWall
    {
        type            epsilonWallFunction;
        value           nonuniform List<scalar> 
50
(
0.00457021
0.00862945
0.0140679
0.0193868
0.0247565
0.0301322
0.0355967
0.0413398
0.050954
0.0666642
0.0920866
0.158513
0.22356
0.213981
0.22772
0.240214
0.232485
0.216386
0.195637
0.174275
0.1563
0.14388
0.135477
0.129815
0.125668
0.121959
0.117863
0.112849
0.106705
0.0994963
0.0914588
0.0830129
0.0746681
0.0666448
0.0591124
0.0524328
0.0470813
0.0434149
0.0415848
0.0415921
0.0433851
0.0469223
0.0521724
0.0590555
0.067349
0.0765961
0.0860594
0.0947526
0.101571
0.1054
)
;
        Cmu             0.09;
        kappa           0.41;
        E               9.8;
        value           nonuniform List<scalar> 
50
(
0.00457021
0.00862945
0.0140679
0.0193868
0.0247565
0.0301322
0.0355967
0.0413398
0.050954
0.0666642
0.0920866
0.158513
0.22356
0.213981
0.22772
0.240214
0.232485
0.216386
0.195637
0.174275
0.1563
0.14388
0.135477
0.129815
0.125668
0.121959
0.117863
0.112849
0.106705
0.0994963
0.0914588
0.0830129
0.0746681
0.0666448
0.0591124
0.0524328
0.0470813
0.0434149
0.0415848
0.0415921
0.0433851
0.0469223
0.0521724
0.0590555
0.067349
0.0765961
0.0860594
0.0947526
0.101571
0.1054
)
;
    }
    rightWall
    {
        type            epsilonWallFunction;
        value           nonuniform List<scalar> 
50
(
0.0147897
0.0194238
0.0278796
0.0363696
0.0457142
0.0568618
0.0717427
0.0883647
0.108337
0.13427
0.134158
0.153245
0.116223
0.0902092
0.0757457
0.07374
0.071059
0.0662304
0.0610425
0.0601161
0.064449
0.071674
0.0799146
0.087926
0.0949106
0.100642
0.104703
0.10587
0.10655
0.108392
0.110886
0.113099
0.114755
0.115888
0.116541
0.116612
0.115747
0.1135
0.110533
0.10854
0.107654
0.107196
0.106855
0.106245
0.106192
0.10864
0.114149
0.122356
0.132371
0.140836
)
;
        Cmu             0.09;
        kappa           0.41;
        E               9.8;
        value           nonuniform List<scalar> 
50
(
0.0147897
0.0194238
0.0278796
0.0363696
0.0457142
0.0568618
0.0717427
0.0883647
0.108337
0.13427
0.134158
0.153245
0.116223
0.0902092
0.0757457
0.07374
0.071059
0.0662304
0.0610425
0.0601161
0.064449
0.071674
0.0799146
0.087926
0.0949106
0.100642
0.104703
0.10587
0.10655
0.108392
0.110886
0.113099
0.114755
0.115888
0.116541
0.116612
0.115747
0.1135
0.110533
0.10854
0.107654
0.107196
0.106855
0.106245
0.106192
0.10864
0.114149
0.122356
0.132371
0.140836
)
;
    }
    lowerWall
    {
        type            epsilonWallFunction;
        value           nonuniform List<scalar> 
62
(
0.00457021
0.0225284
0.0413008
0.0593925
0.0770826
0.0950835
0.113498
0.132479
0.152165
0.172676
0.194008
0.215826
0.237231
0.256696
0.272254
0.281776
0.282822
0.27215
0.24847
0.217013
0.177974
0.115255
0.0319689
0.0319689
0.0533946
0.0874425
0.123505
0.164896
0.220978
0.312334
0.468383
0.439815
0.411512
0.43997
0.520315
0.0284038
0.039589
0.060059
0.0792869
0.100151
0.126636
0.168168
0.267173
0.0284038
0.0883927
0.152511
0.196059
0.222478
0.231585
0.217774
0.178101
0.132574
0.0959163
0.0809179
0.070832
0.0548473
0.0515811
0.0584597
0.0646157
0.065271
0.0485225
0.0147897
)
;
        Cmu             0.09;
        kappa           0.41;
        E               9.8;
        value           nonuniform List<scalar> 
62
(
0.00457021
0.0225284
0.0413008
0.0593925
0.0770826
0.0950835
0.113498
0.132479
0.152165
0.172676
0.194008
0.215826
0.237231
0.256696
0.272254
0.281776
0.282822
0.27215
0.24847
0.217013
0.177974
0.115255
0.0319689
0.0319689
0.0533946
0.0874425
0.123505
0.164896
0.220978
0.312334
0.468383
0.439815
0.411512
0.43997
0.520315
0.0284038
0.039589
0.060059
0.0792869
0.100151
0.126636
0.168168
0.267173
0.0284038
0.0883927
0.152511
0.196059
0.222478
0.231585
0.217774
0.178101
0.132574
0.0959163
0.0809179
0.070832
0.0548473
0.0515811
0.0584597
0.0646157
0.065271
0.0485225
0.0147897
)
;
    }
    atmosphere
    {
        type            inletOutlet;
        inletValue      uniform 0.1;
        value           nonuniform List<scalar> 
46
(
0.1054
0.0617242
0.0521163
0.0476637
0.0451081
0.0435922
0.0427761
0.0424967
0.0426765
0.0432959
0.044392
0.0460765
0.0485792
0.0523385
0.0581944
0.0678423
0.1
0.1
0.1
0.1
0.1
0.1
0.1
0.1
0.1
0.1
0.1
0.1
0.1
0.1
0.1
0.1
0.1
0.1
0.1
0.1
0.1
0.1
0.1
0.1
0.1
0.1
0.0665623
0.0580605
0.0631868
0.140836
)
;
    }
    defaultFaces
    {
        type            empty;
    }
}


// ************************************************************************* //
