/*--------------------------------*- C++ -*----------------------------------*\
| =========                 |                                                 |
| \\      /  F ield         | OpenFOAM: The Open Source CFD Toolbox           |
|  \\    /   O peration     | Version:  2.3.0                                 |
|   \\  /    A nd           | Web:      www.OpenFOAM.org                      |
|    \\/     M anipulation  |                                                 |
\*---------------------------------------------------------------------------*/
FoamFile
{
    version     2.0;
    format      ascii;
    class       volScalarField;
    location    "2.45";
    object      p;
}
// * * * * * * * * * * * * * * * * * * * * * * * * * * * * * * * * * * * * * //

dimensions      [1 -1 -2 0 0 0 0];

internalField   nonuniform List<scalar> 
2268
(
690.232
690.404
691.008
691.88
693.018
694.439
696.186
698.325
700.925
704.056
707.781
712.151
717.2
722.924
729.254
736.018
742.901
749.288
754.893
759.946
763.577
764.274
762.153
631.356
631.494
632.074
632.957
634.138
635.614
637.428
639.64
642.318
645.527
649.323
653.757
658.862
664.633
670.989
677.744
684.631
691.368
697.407
701.616
704.095
704.435
702.4
572.395
572.557
573.122
574.012
575.224
576.753
578.633
580.923
583.686
586.98
590.859
595.371
600.55
606.393
612.817
619.629
626.597
633.683
639.954
643.699
645.225
644.736
642.357
513.364
513.59
514.148
515.036
516.258
517.809
519.722
522.052
524.862
528.207
532.139
536.708
541.954
547.883
554.424
561.395
568.567
575.88
582.468
586.379
587.665
585.943
582.285
454.266
454.574
455.141
456.018
457.228
458.772
460.68
463.008
465.821
469.175
473.123
477.721
483.018
489.04
495.738
502.958
510.46
518.054
525.067
529.681
531.106
528.14
522.26
395.1
395.496
396.085
396.946
398.131
399.645
401.516
403.806
406.584
409.912
413.844
418.444
423.777
429.895
436.787
444.335
452.307
460.413
467.966
473.463
475.556
471.806
461.711
335.865
336.35
336.969
337.812
338.961
340.43
342.243
344.467
347.183
350.462
354.359
358.946
364.304
370.524
377.645
385.604
394.204
403.09
411.494
418.122
421.859
417.883
399.56
276.554
277.123
277.781
278.612
279.728
281.149
282.894
285.036
287.681
290.91
294.778
299.358
304.745
311.071
318.456
326.912
336.295
346.226
355.879
364.234
370.351
366.621
340.447
809.893
808.117
803.563
796.285
785.837
772.525
757.363
743.11
732.253
727.094
721.744
714.108
705.338
697.631
691.646
690.964
695.796
698.813
697.736
754.684
751.468
745.174
736.924
726.176
712.965
698.588
686.316
678.227
671.518
664.627
656.563
649.103
642.25
635.023
632.795
636.414
639.342
639.586
699.376
694.408
686.468
677.268
665.937
652.76
639.17
628.7
623.359
616.482
607.504
599.718
594.656
588.766
580.318
576.442
576.913
579.387
580.664
644.157
637.544
628.558
618.618
606.808
593.585
580.444
570.721
567.322
561.487
552.01
544.602
540.726
534.326
525.664
520.183
517.827
519.541
521.374
589.306
581.376
571.134
560.644
548.545
535.222
522.011
512.492
510.637
505.699
497.457
489.413
485.975
478.988
470.198
462.845
458.782
459.676
462.058
534.448
525.507
513.823
502.921
490.757
477.594
463.659
453.608
452.374
448.768
440.58
432.626
429.976
422.925
414.001
404.161
399.452
399.781
402.82
478.681
469.23
456.298
445.247
433.307
420.539
406.037
393.75
392.48
390.095
382.071
374.511
371.284
364.591
355.111
344.308
339.859
340.143
343.706
420.403
410.162
398.13
387.488
376.2
364.293
350.63
335.925
331.616
329.398
323.39
316.132
310.939
303.938
293.994
284.025
280.225
280.653
284.869
183.666
184.369
185.105
185.945
187.009
188.339
189.925
191.864
194.313
197.383
201.133
205.632
210.99
217.416
225.173
234.434
245.198
257.105
269.231
280.695
289.666
288.87
279.224
67.2802
67.859
68.5413
69.2965
70.1579
71.1476
72.1655
73.252
74.6763
76.6753
79.2794
82.5624
86.6511
91.8328
98.2808
106.387
116.964
130.066
144.758
160.068
172.087
175.579
175.383
7.59293
7.74309
8.09776
8.47464
8.81551
9.19918
9.70081
10.2011
10.7221
11.4625
12.5243
14.0618
16.1263
18.9196
22.2819
25.4395
28.8021
34.071
41.4622
52.0974
63.4941
70.4852
74.0314
0.452662
0.524044
0.638039
0.747584
0.776165
0.842347
1.18728
1.67256
2.0161
2.3489
2.83787
3.74751
4.93361
6.33801
7.77163
8.03936
6.8705
5.82259
5.15001
5.98794
7.94342
10.8127
14.3626
-0.100055
-0.131874
-0.0522133
0.0870736
0.208027
0.300231
0.406512
0.657478
0.935992
1.15029
1.55866
2.38388
3.23415
3.9936
4.59481
4.77487
4.22356
3.47779
2.92865
2.61448
2.44922
2.52681
2.76809
-0.672169
-0.769385
-0.773233
-0.692163
-0.533064
-0.418693
-0.419821
-0.34709
-0.144749
0.0427538
0.360591
0.907078
1.48949
1.83832
2.24971
2.73166
2.78718
2.37852
2.14714
1.90562
1.75718
1.79209
2.03061
-1.01794
-1.02855
-1.03843
-1.05902
-1.04643
-1.00518
-0.962969
-0.903417
-0.795978
-0.644867
-0.52953
-0.428604
-0.319687
-0.277271
0.0490383
0.671389
1.18355
1.36354
1.41866
1.23621
1.02467
0.985737
1.17505
-1.19595
-1.19741
-1.20806
-1.2282
-1.2426
-1.23386
-1.19272
-1.12959
-1.06752
-0.992386
-0.994823
-1.11076
-1.17086
-1.18427
-1.1755
-0.997406
-0.592845
-0.0503087
0.192491
0.145307
-0.00331096
-0.28428
-0.249615
-1.34052
-1.34744
-1.35734
-1.3707
-1.37996
-1.37818
-1.36624
-1.33666
-1.30426
-1.27997
-1.28096
-1.31601
-1.36439
-1.4016
-1.43515
-1.47058
-1.46449
-1.29458
-1.15486
-1.15713
-1.2429
-1.4787
-1.61374
-1.48872
-1.4953
-1.50404
-1.51403
-1.52237
-1.527
-1.53522
-1.55467
-1.55962
-1.55474
-1.53877
-1.5364
-1.54595
-1.57767
-1.61292
-1.63078
-1.63369
-1.69031
-1.78321
-1.84507
-1.86713
-1.83193
-1.85783
-1.63674
-1.64244
-1.65013
-1.65917
-1.6688
-1.67932
-1.69648
-1.73103
-1.76157
-1.77736
-1.7814
-1.77638
-1.76197
-1.77088
-1.78796
-1.79689
-1.80889
-1.82717
-1.85313
-1.88707
-1.91069
-1.92635
-1.93444
-1.78296
-1.78753
-1.79409
-1.80266
-1.81322
-1.82672
-1.8462
-1.87327
-1.9005
-1.9254
-1.94939
-1.9657
-1.9722
-1.96753
-1.96658
-1.97086
-1.98347
-1.99372
-2.00426
-2.01947
-2.02837
-2.03339
-2.03618
-1.92688
-1.93023
-1.93555
-1.94344
-1.95379
-1.96728
-1.98498
-2.00702
-2.02965
-2.05064
-2.07116
-2.09263
-2.10978
-2.1175
-2.12269
-2.13766
-2.14659
-2.15489
-2.16053
-2.15646
-2.15492
-2.15424
-2.15069
-2.06848
-2.07068
-2.07486
-2.0818
-2.09126
-2.10345
-2.11873
-2.13695
-2.15621
-2.17502
-2.19322
-2.2104
-2.2249
-2.23712
-2.25101
-2.27137
-2.28724
-2.2944
-2.29139
-2.28146
-2.27661
-2.27495
-2.2708
-2.20792
-2.20915
-2.21234
-2.21822
-2.22656
-2.23728
-2.2504
-2.26563
-2.28195
-2.29842
-2.31457
-2.32985
-2.34345
-2.35582
-2.3691
-2.38469
-2.39891
-2.40501
-2.40274
-2.39744
-2.39381
-2.39192
-2.38972
-2.3453
-2.34585
-2.34822
-2.35308
-2.36027
-2.36958
-2.38086
-2.39378
-2.40769
-2.42194
-2.43607
-2.44966
-2.46223
-2.47392
-2.48558
-2.49756
-2.50752
-2.51292
-2.51342
-2.51131
-2.50919
-2.50741
-2.50568
-2.48078
-2.48093
-2.48267
-2.48664
-2.49275
-2.50077
-2.51046
-2.52151
-2.53345
-2.54577
-2.55809
-2.57004
-2.58133
-2.59189
-2.60197
-2.61151
-2.61932
-2.62411
-2.62574
-2.62534
-2.62421
-2.6227
-2.6207
-2.61457
-2.61451
-2.61576
-2.619
-2.6242
-2.63109
-2.63942
-2.64889
-2.65914
-2.6698
-2.68051
-2.69098
-2.70094
-2.71028
-2.71896
-2.72682
-2.73324
-2.73754
-2.73964
-2.74009
-2.73954
-2.73829
-2.73636
-2.74685
-2.74668
-2.74757
-2.75023
-2.75466
-2.7606
-2.76778
-2.77593
-2.78474
-2.79393
-2.80322
-2.81235
-2.82108
-2.82926
-2.83675
-2.8434
-2.84884
-2.85271
-2.85496
-2.85582
-2.85564
-2.85465
-2.85289
-2.87781
-2.87756
-2.87817
-2.88039
-2.8842
-2.88934
-2.89555
-2.90258
-2.91018
-2.91811
-2.92615
-2.93408
-2.94171
-2.94885
-2.95536
-2.96109
-2.9658
-2.96931
-2.97154
-2.97262
-2.97271
-2.97199
-2.9705
-3.00765
-3.00728
-3.00768
-3.0096
-3.01294
-3.01741
-3.02279
-3.02886
-3.03542
-3.04228
-3.04924
-3.05613
-3.06278
-3.06902
-3.07472
-3.07972
-3.08389
-3.08708
-3.08924
-3.09043
-3.09072
-3.09024
-3.08904
-3.13654
-3.136
-3.13625
-3.13802
-3.14103
-3.14496
-3.14961
-3.15485
-3.16051
-3.16644
-3.17247
-3.17846
-3.18426
-3.18974
-3.19474
-3.19916
-3.20288
-3.2058
-3.20788
-3.20912
-3.20957
-3.20931
-3.20839
-3.26467
-3.26383
-3.26402
-3.26591
-3.26873
-3.27217
-3.27616
-3.28065
-3.28552
-3.29063
-3.29585
-3.30106
-3.30613
-3.31094
-3.31536
-3.31929
-3.32263
-3.32532
-3.32731
-3.32858
-3.32915
-3.32909
-3.32843
-3.39306
-3.39219
-3.3922
-3.39387
-3.39636
-3.39924
-3.40258
-3.40636
-3.41051
-3.41489
-3.41941
-3.42393
-3.42836
-3.43259
-3.4365
-3.44001
-3.44303
-3.44551
-3.4474
-3.44869
-3.44936
-3.44947
-3.44905
-3.52274
-3.5219
-3.52159
-3.52248
-3.52414
-3.52629
-3.52894
-3.53206
-3.53554
-3.53927
-3.54316
-3.54708
-3.55095
-3.55466
-3.55812
-3.56126
-3.564
-3.56629
-3.56809
-3.56936
-3.57011
-3.57038
-3.57017
-3.65307
-3.65193
-3.65136
-3.65128
-3.65185
-3.65322
-3.65523
-3.65773
-3.66062
-3.66378
-3.6671
-3.6705
-3.67386
-3.67712
-3.68019
-3.683
-3.68548
-3.68758
-3.68927
-3.69053
-3.69132
-3.6917
-3.69166
-3.7817
-3.78076
-3.77985
-3.77906
-3.77902
-3.77985
-3.78135
-3.78336
-3.78575
-3.78841
-3.79125
-3.79417
-3.79709
-3.79995
-3.80265
-3.80515
-3.80738
-3.80931
-3.81089
-3.81209
-3.81291
-3.81336
-3.81345
-3.90837
-3.90758
-3.90644
-3.90567
-3.90555
-3.90613
-3.9073
-3.90893
-3.91091
-3.91315
-3.91557
-3.91808
-3.92061
-3.92309
-3.92547
-3.92768
-3.92968
-3.93142
-3.93287
-3.93401
-3.93481
-3.9353
-3.93548
-4.03446
-4.03342
-4.03238
-4.03176
-4.03169
-4.03216
-4.03311
-4.03445
-4.03611
-4.038
-4.04006
-4.0422
-4.04438
-4.04653
-4.0486
-4.05054
-4.05231
-4.05387
-4.05519
-4.05624
-4.05701
-4.05751
-4.05774
-4.16046
-4.15931
-4.15826
-4.15771
-4.15765
-4.15805
-4.15884
-4.15997
-4.16136
-4.16295
-4.16469
-4.16652
-4.16838
-4.17023
-4.17202
-4.17371
-4.17526
-4.17663
-4.17781
-4.17877
-4.17948
-4.17997
-4.18023
-4.28641
-4.2852
-4.28415
-4.28361
-4.28356
-4.28389
-4.28455
-4.2855
-4.28666
-4.288
-4.28947
-4.29101
-4.29259
-4.29416
-4.29569
-4.29714
-4.29849
-4.29969
-4.30073
-4.30158
-4.30223
-4.30269
-4.30295
-4.41232
-4.41109
-4.41006
-4.40952
-4.40945
-4.40972
-4.41026
-4.41105
-4.41202
-4.41313
-4.41436
-4.41565
-4.41697
-4.4183
-4.41959
-4.42082
-4.42197
-4.42301
-4.42392
-4.42467
-4.42525
-4.42567
-4.42592
-4.53818
-4.53698
-4.53597
-4.53544
-4.53534
-4.53554
-4.53598
-4.53662
-4.53742
-4.53834
-4.53934
-4.54041
-4.5415
-4.5426
-4.54367
-4.54471
-4.54568
-4.54657
-4.54735
-4.54801
-4.54852
-4.5489
-4.54914
-4.66398
-4.66284
-4.66188
-4.66137
-4.66123
-4.66137
-4.66171
-4.66222
-4.66286
-4.6636
-4.66441
-4.66527
-4.66615
-4.66704
-4.66792
-4.66878
-4.66959
-4.67035
-4.67102
-4.67159
-4.67204
-4.67239
-4.67261
-4.78971
-4.78866
-4.78777
-4.78727
-4.78712
-4.78719
-4.78744
-4.78783
-4.78833
-4.78891
-4.78954
-4.79021
-4.7909
-4.7916
-4.7923
-4.79299
-4.79367
-4.79431
-4.79489
-4.79539
-4.79579
-4.7961
-4.79631
-4.91538
-4.91442
-4.91361
-4.91315
-4.91298
-4.913
-4.91317
-4.91346
-4.91383
-4.91426
-4.91472
-4.91522
-4.91572
-4.91624
-4.91677
-4.91731
-4.91787
-4.91843
-4.91894
-4.91938
-4.91975
-4.92003
-4.92023
-5.04096
-5.04012
-5.0394
-5.03897
-5.0388
-5.03879
-5.03889
-5.03909
-5.03934
-5.03963
-5.03995
-5.04027
-5.04061
-5.04094
-5.0413
-5.0417
-5.04217
-5.04267
-5.04314
-5.04355
-5.04388
-5.04414
-5.04433
-5.16646
-5.16573
-5.16511
-5.16474
-5.16457
-5.16454
-5.16459
-5.16471
-5.16486
-5.16503
-5.1652
-5.16537
-5.16553
-5.16569
-5.16588
-5.16613
-5.16653
-5.16702
-5.16748
-5.16787
-5.16818
-5.16842
-5.16859
-5.29185
-5.29125
-5.29073
-5.29042
-5.29029
-5.29025
-5.29027
-5.29032
-5.29039
-5.29045
-5.29049
-5.2905
-5.29049
-5.29045
-5.29043
-5.2905
-5.2909
-5.29146
-5.29194
-5.29233
-5.29263
-5.29285
-5.29301
-5.41712
-5.41664
-5.41624
-5.41604
-5.41597
-5.41595
-5.41595
-5.41596
-5.41595
-5.4159
-5.41581
-5.41566
-5.41544
-5.41515
-5.4148
-5.41452
-5.41506
-5.41595
-5.41656
-5.41695
-5.41722
-5.41742
-5.41756
-5.54222
-5.54191
-5.54169
-5.54165
-5.54167
-5.5417
-5.5417
-5.54166
-5.54157
-5.54142
-5.54118
-5.54084
-5.54038
-5.53973
-5.53879
-5.53772
-5.53857
-5.54044
-5.54134
-5.54173
-5.54195
-5.54211
-5.54222
-5.66713
-5.66701
-5.66699
-5.66705
-5.66711
-5.66714
-5.66713
-5.66707
-5.66696
-5.66678
-5.66652
-5.66617
-5.66569
-5.66498
-5.66376
-5.66174
-5.66205
-5.66507
-5.66617
-5.66655
-5.66672
-5.66683
-5.6669
294.998
298.254
297.809
300.293
180.947
183.642
185.595
188.379
73.7603
72.6445
71.9836
72.7831
15.3522
14.657
14.1553
14.2242
2.99458
3.08279
3.09735
3.07383
2.25474
2.35478
2.44001
2.51056
1.03933
0.900854
0.775166
0.638542
-0.226014
-0.345887
-0.597273
-0.891608
-1.16475
-1.25481
-1.52944
-1.57973
-1.85102
-1.79461
-1.7511
-1.74086
-1.92172
-1.90886
-1.89711
-1.88569
-2.02891
-2.02168
-2.01362
-2.00625
-2.14318
-2.13675
-2.1306
-2.12531
-2.26307
-2.25666
-2.25053
-2.24551
-2.38323
-2.37771
-2.37163
-2.36644
-2.50177
-2.49732
-2.4919
-2.48677
-2.6178
-2.61449
-2.60996
-2.60575
-2.73343
-2.73061
-2.72721
-2.72399
-2.85032
-2.84796
-2.8452
-2.84262
-2.96834
-2.96636
-2.96406
-2.96193
-3.08725
-3.08559
-3.08366
-3.08187
-3.20692
-3.20554
-3.20391
-3.20239
-3.32725
-3.32611
-3.32474
-3.32345
-3.44815
-3.44722
-3.44607
-3.44498
-3.5695
-3.56876
-3.5678
-3.56688
-3.6912
-3.69061
-3.68981
-3.68904
-3.81314
-3.81268
-3.81202
-3.81138
-3.93528
-3.93492
-3.93438
-3.93386
-4.05762
-4.05733
-4.05688
-4.05646
-4.18014
-4.1799
-4.17953
-4.17919
-4.30289
-4.30268
-4.30237
-4.3021
-4.42587
-4.42569
-4.42542
-4.4252
-4.5491
-4.54893
-4.5487
-4.54851
-4.67257
-4.67242
-4.67221
-4.67206
-4.79628
-4.79614
-4.79596
-4.79583
-4.9202
-4.92008
-4.91992
-4.91981
-5.04431
-5.04421
-5.04407
-5.04398
-5.16859
-5.16851
-5.1684
-5.16833
-5.29302
-5.29296
-5.29287
-5.29282
-5.41757
-5.41754
-5.41748
-5.41745
-5.54224
-5.54223
-5.54219
-5.54218
-5.66693
-5.66694
-5.66694
-5.66694
315.797
313.682
306.188
297.027
287.341
277.92
268.951
260.57
254.016
246.832
237.782
228.227
219.234
210.56
201.687
192.887
187.212
187.498
192.766
192.741
188.372
182.547
175.108
168.143
163.203
162.128
163.022
158.825
148.815
136.574
123.972
112.192
101.187
89.7069
78.3212
70.7825
72.5673
79.1205
75.6128
74.6064
72.3066
68.7096
65.17
62.9469
64.9109
69.4448
66.9633
59.4974
49.9665
41.1002
32.9443
25.4421
18.1343
11.817
8.55983
10.75
14.3544
14.3633
14.1176
14.0329
13.6227
12.6907
11.9061
12.7656
14.7527
13.5774
9.52061
4.95355
2.25466
0.406487
-0.730674
-0.734092
-0.641453
-0.531575
-0.569852
-0.601891
3.09773
3.33581
3.5599
3.64272
3.66395
3.52205
2.99571
2.04187
1.2005
0.561366
0.143131
-0.346063
-0.723039
-0.79649
-0.80796
-0.806765
-0.799954
-0.796338
-0.778533
2.57005
2.58956
2.574
2.50725
2.37791
2.19549
1.94187
1.62578
1.14902
0.410326
-0.285052
-0.677913
-0.850078
-0.929906
-0.945343
-0.94105
-0.931493
-0.926897
-0.92872
0.439213
0.357775
0.384838
0.385681
0.273919
0.0796392
-0.166652
-0.375444
-0.575021
-0.958804
-1.16133
-1.15782
-1.10197
-1.10399
-1.09465
-1.0833
-1.07278
-1.07223
-1.08386
-1.17111
-1.21389
-1.16111
-1.149
-1.2072
-1.29578
-1.39377
-1.45461
-1.4265
-1.36539
-1.32155
-1.31958
-1.30176
-1.26813
-1.24389
-1.22972
-1.22529
-1.23243
-1.24435
-1.59823
-1.61412
-1.62928
-1.62656
-1.60738
-1.57598
-1.53824
-1.50889
-1.50214
-1.48502
-1.4669
-1.45592
-1.44053
-1.41067
-1.38793
-1.3778
-1.37928
-1.3894
-1.39581
-1.73496
-1.72679
-1.7146
-1.69994
-1.68425
-1.66849
-1.6539
-1.64402
-1.63388
-1.61712
-1.60125
-1.58754
-1.57129
-1.54853
-1.53257
-1.52751
-1.5299
-1.53457
-1.53562
-1.87051
-1.85964
-1.85105
-1.83975
-1.82568
-1.81151
-1.79891
-1.78728
-1.77185
-1.75285
-1.73423
-1.72015
-1.70706
-1.69082
-1.68039
-1.67575
-1.67454
-1.67188
-1.67167
-1.99577
-1.9863
-1.98057
-1.97194
-1.96046
-1.94767
-1.93469
-1.92188
-1.90717
-1.88756
-1.86646
-1.85295
-1.84407
-1.83564
-1.82724
-1.82103
-1.81417
-1.80807
-1.80788
-2.11769
-2.10871
-2.1007
-2.09208
-2.08297
-2.0716
-2.05851
-2.04661
-2.03493
-2.01816
-1.99969
-1.98789
-1.98001
-1.97532
-1.96924
-1.96146
-1.9528
-1.94771
-1.94727
-2.23917
-2.23086
-2.22193
-2.21243
-2.2024
-2.1917
-2.1808
-2.17004
-2.15927
-2.148
-2.13542
-2.12417
-2.1146
-2.10906
-2.10407
-2.09752
-2.09236
-2.09003
-2.08847
-2.36018
-2.35295
-2.34416
-2.33459
-2.32443
-2.31394
-2.30397
-2.29439
-2.28496
-2.27641
-2.267
-2.25636
-2.24735
-2.24143
-2.23683
-2.23278
-2.23064
-2.23095
-2.2284
-2.48056
-2.47422
-2.46656
-2.45757
-2.448
-2.43803
-2.42836
-2.41961
-2.41107
-2.40279
-2.39436
-2.38591
-2.37881
-2.37362
-2.36985
-2.36727
-2.36673
-2.36828
-2.36608
-2.60028
-2.59439
-2.58805
-2.58053
-2.57201
-2.56296
-2.55397
-2.54548
-2.53748
-2.52986
-2.52244
-2.51545
-2.50961
-2.50528
-2.50222
-2.5005
-2.50071
-2.50267
-2.50157
-2.71962
-2.71446
-2.70875
-2.70255
-2.69558
-2.68783
-2.67964
-2.67145
-2.66403
-2.65715
-2.65068
-2.64477
-2.63984
-2.63613
-2.63359
-2.6323
-2.63262
-2.63426
-2.63491
-2.83912
-2.8347
-2.82963
-2.82404
-2.81811
-2.81159
-2.80427
-2.79706
-2.79046
-2.78439
-2.77877
-2.77371
-2.76947
-2.76621
-2.76393
-2.7627
-2.76259
-2.76326
-2.764
-2.95904
-2.95525
-2.9508
-2.94582
-2.94045
-2.93467
-2.92851
-2.92242
-2.9167
-2.91142
-2.90654
-2.90219
-2.89849
-2.89555
-2.89339
-2.89198
-2.89121
-2.89069
-2.88965
-3.07945
-3.0762
-3.07233
-3.06793
-3.06318
-3.05813
-3.05287
-3.04768
-3.04275
-3.03817
-3.03396
-3.03018
-3.02691
-3.02423
-3.02213
-3.02055
-3.0193
-3.01816
-3.01613
-3.20035
-3.19759
-3.19423
-3.1904
-3.18625
-3.18187
-3.17736
-3.17289
-3.16863
-3.16464
-3.16099
-3.15769
-3.15478
-3.15232
-3.15031
-3.14864
-3.14715
-3.14573
-3.1438
-3.32173
-3.31939
-3.31652
-3.3132
-3.3096
-3.30581
-3.30192
-3.29807
-3.29436
-3.29087
-3.28766
-3.28474
-3.28215
-3.27991
-3.27798
-3.2763
-3.27471
-3.27311
-3.27128
-3.44352
-3.44157
-3.43912
-3.43627
-3.43316
-3.42988
-3.42651
-3.42317
-3.41993
-3.41686
-3.41402
-3.41142
-3.40909
-3.40702
-3.40519
-3.40353
-3.40188
-3.4001
-3.39809
-3.56565
-3.56403
-3.56197
-3.55953
-3.55685
-3.55401
-3.55109
-3.54817
-3.54533
-3.54262
-3.54009
-3.53775
-3.53563
-3.53372
-3.53199
-3.53036
-3.52866
-3.52672
-3.52444
-3.68802
-3.6867
-3.68497
-3.6829
-3.6806
-3.67815
-3.67561
-3.67306
-3.67056
-3.66815
-3.66588
-3.66378
-3.66184
-3.66007
-3.65842
-3.65684
-3.65513
-3.65303
-3.6505
-3.81056
-3.8095
-3.80807
-3.80633
-3.80436
-3.80225
-3.80004
-3.79781
-3.7956
-3.79347
-3.79144
-3.78953
-3.78776
-3.78611
-3.78455
-3.78301
-3.78131
-3.7791
-3.77644
-3.93321
-3.93239
-3.93122
-3.92976
-3.9281
-3.92629
-3.92438
-3.92243
-3.92049
-3.9186
-3.91679
-3.91507
-3.91345
-3.91191
-3.91042
-3.90891
-3.90721
-3.90494
-3.90247
-4.05597
-4.05535
-4.05442
-4.05321
-4.05181
-4.05027
-4.04863
-4.04695
-4.04526
-4.04359
-4.04198
-4.04044
-4.03895
-4.03751
-4.03606
-4.03454
-4.03274
-4.03033
-4.02811
-4.17884
-4.1784
-4.17766
-4.17668
-4.17552
-4.17422
-4.17283
-4.17139
-4.16993
-4.16848
-4.16707
-4.16569
-4.16434
-4.16298
-4.16156
-4.15996
-4.15791
-4.15509
-4.15231
-4.30185
-4.30156
-4.301
-4.30021
-4.29926
-4.29818
-4.29702
-4.2958
-4.29456
-4.29332
-4.29209
-4.29088
-4.28967
-4.28841
-4.28702
-4.28535
-4.28307
-4.27987
-4.27641
-4.42504
-4.42486
-4.42445
-4.42383
-4.42306
-4.42219
-4.42123
-4.42022
-4.41918
-4.41813
-4.41709
-4.41605
-4.41499
-4.41385
-4.41255
-4.41092
-4.40861
-4.40533
-4.40184
-4.54842
-4.54833
-4.54804
-4.54757
-4.54697
-4.54627
-4.5455
-4.54467
-4.54382
-4.54296
-4.5421
-4.54123
-4.54033
-4.53935
-4.5382
-4.53671
-4.53459
-4.53154
-4.52829
-4.67201
-4.67199
-4.6718
-4.67145
-4.67099
-4.67045
-4.66983
-4.66918
-4.6685
-4.66781
-4.66712
-4.66642
-4.66569
-4.66489
-4.66392
-4.66264
-4.66078
-4.65804
-4.65502
-4.79581
-4.79584
-4.79573
-4.79548
-4.79514
-4.79473
-4.79426
-4.79375
-4.79322
-4.79268
-4.79215
-4.79162
-4.79106
-4.79044
-4.78965
-4.78856
-4.78689
-4.78428
-4.78153
-4.91981
-4.91988
-4.91983
-4.91966
-4.91942
-4.91912
-4.91876
-4.91838
-4.91797
-4.91758
-4.91719
-4.91681
-4.91642
-4.91597
-4.91536
-4.91442
-4.91281
-4.91014
-4.9073
-5.044
-5.04409
-5.04408
-5.04398
-5.04382
-5.0436
-5.04334
-5.04306
-5.04277
-5.04248
-5.04222
-5.04197
-5.04174
-5.04147
-5.04104
-5.04024
-5.03867
-5.03596
-5.03301
-5.16835
-5.16845
-5.16848
-5.16842
-5.16832
-5.16817
-5.16799
-5.16779
-5.16758
-5.16738
-5.16722
-5.16709
-5.167
-5.16691
-5.16669
-5.16608
-5.16461
-5.16198
-5.15915
-5.29285
-5.29295
-5.29299
-5.29298
-5.29291
-5.29282
-5.29269
-5.29255
-5.29241
-5.29228
-5.29218
-5.29214
-5.29217
-5.29226
-5.29231
-5.29195
-5.29064
-5.28818
-5.28549
-5.41748
-5.41757
-5.41762
-5.41762
-5.41759
-5.41753
-5.41745
-5.41735
-5.41725
-5.41716
-5.4171
-5.4171
-5.41721
-5.41749
-5.41796
-5.41802
-5.41679
-5.41454
-5.41207
-5.54221
-5.54228
-5.54232
-5.54234
-5.54233
-5.5423
-5.54224
-5.54218
-5.5421
-5.54203
-5.54198
-5.54197
-5.5421
-5.54263
-5.54397
-5.54463
-5.5431
-5.54103
-5.53887
-5.66697
-5.66701
-5.66705
-5.66706
-5.66706
-5.66704
-5.667
-5.66696
-5.66691
-5.66685
-5.66681
-5.66681
-5.66695
-5.66766
-5.67019
-5.67026
-5.66918
-5.66775
-5.66585
)
;

boundaryField
{
    leftWall
    {
        type            calculated;
        value           nonuniform List<scalar> 
50
(
690.232
631.356
572.395
513.364
454.266
395.1
335.865
276.554
183.666
67.2802
7.59293
0.452662
-0.100055
-0.672169
-1.01794
-1.19595
-1.34052
-1.48872
-1.63674
-1.78296
-1.92688
-2.06848
-2.20792
-2.3453
-2.48078
-2.61457
-2.74685
-2.87781
-3.00765
-3.13654
-3.26467
-3.39306
-3.52274
-3.65307
-3.7817
-3.90837
-4.03446
-4.16046
-4.28641
-4.41232
-4.53818
-4.66398
-4.78971
-4.91538
-5.04096
-5.16646
-5.29185
-5.41712
-5.54222
-5.66713
)
;
    }
    rightWall
    {
        type            calculated;
        value           nonuniform List<scalar> 
50
(
697.736
639.586
580.664
521.374
462.058
402.82
343.706
284.869
192.766
79.1205
14.3544
-0.601891
-0.778533
-0.92872
-1.08386
-1.24435
-1.39581
-1.53562
-1.67167
-1.80788
-1.94727
-2.08847
-2.2284
-2.36608
-2.50157
-2.63491
-2.764
-2.88965
-3.01613
-3.1438
-3.27128
-3.39809
-3.52444
-3.6505
-3.77644
-3.90247
-4.02811
-4.15231
-4.27641
-4.40184
-4.52829
-4.65502
-4.78153
-4.9073
-5.03301
-5.15915
-5.28549
-5.41207
-5.53887
-5.66585
)
;
    }
    lowerWall
    {
        type            calculated;
        value           nonuniform List<scalar> 
62
(
719.661
719.834
720.437
721.309
722.447
723.868
725.616
727.754
730.354
733.485
737.21
741.58
746.629
752.354
758.683
765.447
772.33
778.597
783.837
789.103
792.978
793.56
791.426
762.153
702.4
642.357
582.285
522.26
461.711
399.56
340.447
356.877
359.954
359.509
361.998
809.893
754.684
699.376
644.157
589.306
534.448
478.681
420.403
837.746
835.97
831.836
824.789
814.048
800.608
785.231
770.157
759.301
755.703
751.008
743.373
734.329
726.471
720.179
719.246
724.116
727.298
726.155
)
;
    }
    atmosphere
    {
        type            calculated;
        value           nonuniform List<scalar> 
46
(
-5.72904
-5.72904
-5.72904
-5.72904
-5.72904
-5.72904
-5.72904
-5.72904
-5.72904
-5.72904
-5.72904
-5.72904
-5.72904
-5.72904
-5.72904
-5.72904
-5.72904
-5.72905
-5.72907
-5.72911
-5.72915
-5.7292
-5.72924
-5.72927
-5.72929
-5.72931
-5.72932
-5.72935
-5.72938
-5.7294
-5.7294
-5.7294
-5.72938
-5.72935
-5.72931
-5.72927
-5.72923
-5.72918
-5.72914
-5.7291
-5.72907
-5.72904
-5.72974
-5.73178
-5.73178
-5.73002
)
;
    }
    defaultFaces
    {
        type            empty;
    }
}


// ************************************************************************* //
