/*--------------------------------*- C++ -*----------------------------------*\
| =========                 |                                                 |
| \\      /  F ield         | OpenFOAM: The Open Source CFD Toolbox           |
|  \\    /   O peration     | Version:  2.3.0                                 |
|   \\  /    A nd           | Web:      www.OpenFOAM.org                      |
|    \\/     M anipulation  |                                                 |
\*---------------------------------------------------------------------------*/
FoamFile
{
    version     2.0;
    format      ascii;
    class       volScalarField;
    location    "2.45";
    object      p_rgh;
}
// * * * * * * * * * * * * * * * * * * * * * * * * * * * * * * * * * * * * * //

dimensions      [1 -1 -2 0 0 0 0];

internalField   nonuniform List<scalar> 
2268
(
719.661
719.834
720.437
721.309
722.447
723.868
725.616
727.754
730.354
733.485
737.21
741.58
746.629
752.354
758.683
765.447
772.33
778.597
783.837
789.103
792.978
793.56
791.426
719.644
719.783
720.362
721.246
722.426
723.902
725.716
727.928
730.606
733.815
737.611
742.045
747.15
752.92
759.277
766.032
772.918
778.836
783.869
788.655
792.308
792.648
790.583
719.542
719.704
720.269
721.159
722.371
723.899
725.78
728.07
730.832
734.127
738.005
742.517
747.697
753.539
759.964
766.776
773.743
779.759
784.065
787.8
790.268
791.747
789.502
719.37
719.596
720.154
721.041
722.263
723.814
725.727
728.057
730.867
734.212
738.145
742.713
747.96
753.888
760.429
767.401
774.572
781.742
785.979
788.12
789.406
790.424
788.288
719.13
719.438
720.005
720.882
722.092
723.636
725.544
727.872
730.684
734.039
737.987
742.585
747.882
753.904
760.602
767.823
775.324
782.917
789.042
789.708
791.062
792.145
787.122
718.823
719.219
719.808
720.669
721.853
723.367
725.239
727.528
730.306
733.634
737.567
742.167
747.5
753.618
760.51
768.058
776.03
784.135
791.625
796.876
799.065
795.528
785.431
718.447
718.931
719.551
720.393
721.543
723.012
724.825
727.048
729.764
733.043
736.94
741.527
746.886
753.105
760.226
768.186
776.786
785.671
794.075
800.704
804.441
800.464
782.139
717.994
718.563
719.221
720.052
721.168
722.59
724.335
726.477
729.121
732.35
736.218
740.798
746.186
752.512
759.896
768.352
777.736
787.667
797.319
805.675
811.791
808.059
781.874
837.746
835.97
831.836
824.789
814.048
800.608
785.231
770.157
759.301
755.703
751.008
743.373
734.329
726.471
720.179
719.246
724.116
727.298
726.155
838.242
837.541
833.228
824.974
814.221
801.007
786.625
772.852
759.369
756.909
752.411
744.356
734.023
722.323
717.88
717.413
723.534
727.059
726.442
839.142
841.177
833.23
824.01
812.656
799.489
785.894
775.419
761.702
752.312
753.796
744.327
727.321
721.52
713.056
712.13
723.107
725.581
726.858
839.84
843.022
834.035
823.73
811.915
798.997
785.851
776.041
761.577
751.638
742.992
738.69
726.547
720.208
711.581
713.736
722.498
724.212
726.042
840.912
845.563
835.321
824.5
812.251
798.841
786.096
776.314
761.727
750.184
743.96
745.443
724.9
717.952
709.184
718.939
721.933
722.782
725.157
845.807
848.405
836.725
826.036
813.825
798.071
784.002
775.94
769.731
752.056
760.785
754.279
730.897
715.039
707.915
724.783
721.092
721.426
724.464
859.198
850.6
837.952
827.144
815.169
800.273
773.66
771.461
772.508
770.411
762.561
755.002
751.451
729.911
729.576
724.423
719.987
720.268
723.832
860.037
849.813
838.81
828.159
816.851
804.302
754.628
722.863
765.569
768.425
762.417
755.158
749.967
742.938
731.201
717.031
718.658
719.256
723.474
717.133
717.836
718.571
719.412
720.476
721.806
723.392
725.331
727.78
730.85
734.6
739.099
744.457
750.883
758.641
767.901
778.665
790.572
802.698
814.161
823.128
822.312
812.502
617.361
621.652
624.378
626.02
626.711
627.348
627.901
629.467
632.008
634.602
638.881
645.27
654.39
667.408
686.154
710.851
739.983
771.831
800.042
818.724
828.947
834.043
833.328
94.1075
95.0849
98.8687
102.476
105.73
108.327
109.069
107.853
107.025
108.409
111.862
116.992
125.434
139.994
157.851
188.231
245.838
318.332
407.864
524.325
656.866
748.924
791.755
3.60922
3.63584
3.77605
3.91275
3.94133
4.07614
4.76416
5.91201
7.22102
8.89137
10.5664
11.3074
12.6965
15.1342
21.7112
25.515
17.4539
14.8021
18.5386
39.6885
74.0756
118.818
187.182
4.09502
8.12081
8.20271
8.33977
6.66912
4.11783
5.82884
11.2816
11.5601
11.7744
10.3678
10.9851
11.8353
12.8262
24.5986
30.9785
15.0274
11.911
8.91474
7.83395
7.62955
7.70966
7.92044
3.34899
1.84944
1.50072
4.25952
6.63246
6.48088
5.36096
6.72418
9.15648
7.24044
5.4201
17.0892
24.3066
26.2536
28.504
31.0628
23.4985
15.5546
7.95148
7.77351
7.59295
7.60314
7.83867
1.10372
0.261812
0.253493
0.586182
1.82033
2.33012
1.22614
0.813555
1.50636
1.84839
3.11563
13.074
15.972
13.6662
20.9282
29.7606
24.8924
10.6195
7.91076
7.72997
7.5246
7.42475
8.25219
0.220126
0.213538
0.204333
0.186478
0.176298
0.212602
0.322314
0.466984
1.48859
2.5559
1.90271
1.14181
0.851087
0.694591
1.67061
8.88036
19.8212
20.8067
20.8732
15.8161
7.12798
8.40029
28.2079
0.195591
0.188086
0.179235
0.167635
0.158424
0.166697
0.334381
2.02065
2.36435
2.56377
1.81274
0.712157
0.575553
0.456857
0.395994
0.318593
1.70283
11.6484
20.0839
19.439
17.2716
3.77636
2.40013
0.171763
0.16531
0.159724
0.149901
0.139667
0.136859
0.177225
1.40085
2.40682
2.41308
2.4239
2.23997
0.712104
0.409261
0.320512
0.239819
0.214848
0.0210858
-0.109451
0.0991266
0.592364
0.73226
-0.174582
0.148721
0.143361
0.139213
0.128409
0.1179
0.113759
0.146798
0.17249
0.445196
1.03838
2.01229
2.29695
2.30495
0.744227
0.320341
0.596121
1.29735
0.641991
-0.0669526
-0.100896
-0.124512
-0.139887
-0.148172
0.127658
0.123327
0.117614
0.108008
0.0986082
0.0952603
0.080938
0.0393374
0.0131466
-0.00978944
0.101086
0.716377
1.06189
0.716065
0.29191
1.35319
1.3413
1.33033
0.928331
-0.108042
-0.111968
-0.0695516
-0.0447624
0.108933
0.105613
0.100272
0.0923758
0.0827047
0.0714416
0.0510908
0.0290563
0.00651943
-0.0143146
-0.0343945
-0.0545674
-0.0707089
-0.021872
0.0741946
0.858997
1.39596
1.38765
0.693238
-0.119671
-0.111783
0.0335232
0.073559
0.0925216
0.0903189
0.0861437
0.0792007
0.0697829
0.0575897
0.0423073
0.0240861
0.00483236
-0.0139626
-0.0321309
-0.0492099
-0.0636493
-0.0758534
-0.086098
-0.0441691
0.295471
0.269009
-0.0513011
-0.119341
-0.115605
-0.0628581
0.0919259
0.0783064
0.0770418
0.0738585
0.0679746
0.0596346
0.048917
0.035796
0.0205654
0.00424752
-0.012219
-0.0283683
-0.0436478
-0.0572399
-0.0696137
-0.0828821
-0.0984306
-0.112683
-0.118816
-0.116544
-0.111169
-0.107604
-0.105727
-0.0104503
0.0662115
0.065538
0.0631693
0.0583079
0.0511236
0.041811
0.0305313
0.0176046
0.00369236
-0.0105543
-0.0246842
-0.03827
-0.0508404
-0.0625367
-0.0741942
-0.0861732
-0.0961327
-0.101522
-0.102031
-0.0999287
-0.0978061
-0.0960297
-0.0942982
0.0559308
0.0556509
0.0539174
0.0499474
0.0438331
0.035813
0.0261213
0.0150714
0.00313611
-0.00919123
-0.0215081
-0.0334639
-0.0447478
-0.0553132
-0.0653878
-0.0749322
-0.0827391
-0.0875269
-0.0891599
-0.0887614
-0.0876256
-0.086071
-0.0789375
0.0473463
0.047271
0.0460169
0.0427749
0.037581
0.0306884
0.0223578
0.0128855
0.00263343
-0.00802083
-0.0187348
-0.0292032
-0.0391696
-0.0485042
-0.0571829
-0.0650449
-0.0714621
-0.0757625
-0.0778659
-0.0783195
-0.0777648
-0.0760763
-0.0742153
0.0402699
0.040328
0.0394086
0.0367403
0.0323101
0.0263706
0.0191897
0.0110451
0.00222925
-0.00696298
-0.0162524
-0.0253789
-0.0341123
-0.0422864
-0.0497846
-0.0564306
-0.0618692
-0.0657428
-0.0679862
-0.0688521
-0.0686731
-0.0672597
-0.06537
0.0345101
0.0346857
0.0340124
0.0317756
0.0279637
0.0228234
0.0166136
0.00958692
0.00198821
-0.00594512
-0.0139864
-0.0219199
-0.0295431
-0.0366833
-0.0431966
-0.0489233
-0.0536413
-0.0571463
-0.0593808
-0.0604543
-0.0605441
-0.059795
-0.0582708
0.0298482
0.0301154
0.0296904
0.0277621
0.0244239
0.0199495
0.0145712
0.00849917
0.00193688
-0.00491882
-0.0118816
-0.0187736
-0.025422
-0.0316653
-0.0373591
-0.0423641
-0.0465276
-0.049719
-0.0518865
-0.0530701
-0.0533593
-0.0528834
-0.0516845
0.0260266
0.0265532
0.0263095
0.024535
0.0215207
0.0175977
0.0129439
0.0077058
0.00204202
-0.00388444
-0.0099176
-0.0159088
-0.0217117
-0.0271832
-0.0321897
-0.0366094
-0.0403272
-0.0432497
-0.045329
-0.0465705
-0.0470184
-0.04676
-0.045837
0.0230824
0.0239161
0.0237322
0.0218372
0.0190178
0.0155843
0.0115893
0.00710081
0.00223352
-0.0028788
-0.00810379
-0.013314
-0.0183838
-0.0231885
-0.0276094
-0.0315396
-0.0348854
-0.0375732
-0.0395583
-0.0408287
-0.0414021
-0.0413412
-0.040679
0.0590635
0.0962461
0.0846584
0.0271631
0.0165816
0.0137053
0.0103666
0.00658025
0.00243647
-0.00195034
-0.00646389
-0.0109908
-0.0154206
-0.0196442
-0.0235575
-0.027067
-0.0300925
-0.0325718
-0.0344624
-0.035744
-0.0364185
-0.0365328
-0.0361115
0.117598
0.119482
0.118803
0.0552911
0.0140104
0.0118527
0.00919735
0.00608092
0.00260009
-0.00113579
-0.00501842
-0.00894315
-0.0128097
-0.0165218
-0.0199884
-0.0231275
-0.0258689
-0.0281572
-0.029952
-0.0312283
-0.0319791
-0.0322404
-0.0320302
0.115561
0.117838
0.118644
0.0463895
0.0115012
0.0101159
0.00810698
0.00559963
0.00271089
-0.000448341
-0.00377348
-0.007166
-0.0105341
-0.013792
-0.0168597
-0.019665
-0.0221458
-0.0242517
-0.0259438
-0.0271954
-0.0279936
-0.0283674
-0.0283294
0.0270751
0.0811125
0.0381342
0.0171667
0.00979942
0.00867431
0.00717264
0.00516651
0.00277873
0.000116608
-0.00272142
-0.00564448
-0.0085697
-0.0114205
-0.0141267
-0.0166248
-0.0188593
-0.0207844
-0.022363
-0.0235679
-0.0243833
-0.0248325
-0.0249243
0.00545851
0.00757302
0.00739625
0.00808255
0.00834631
0.0076048
0.00642097
0.00479412
0.00281155
0.000568222
-0.00184856
-0.0043588
-0.00688921
-0.00937256
-0.0117475
-0.0139582
-0.0159559
-0.0176989
-0.0191525
-0.0202899
-0.0210938
-0.0215835
-0.0217639
0.00446048
0.00551745
0.00654347
0.00715236
0.0072262
0.00676059
0.0058072
0.00446235
0.00280502
0.000912563
-0.00114138
-0.00328859
-0.00546615
-0.0076162
-0.00968574
-0.0116265
-0.0133956
-0.0149557
-0.016275
-0.0173276
-0.0180959
-0.0185959
-0.0188292
0.00365051
0.00480444
0.0058454
0.00640217
0.0064538
0.00605563
0.00526419
0.00414093
0.00274991
0.0011542
-0.000585666
-0.00241286
-0.00427457
-0.00612194
-0.00790999
-0.00959745
-0.0111472
-0.0125265
-0.0137063
-0.0146618
-0.0153765
-0.0158633
-0.0161213
0.0028931
0.0041063
0.00515235
0.00569023
0.00574537
0.00541095
0.00474807
0.00380779
0.00264162
0.00130092
-0.000164764
-0.00170863
-0.00328707
-0.00485965
-0.00638899
-0.0078405
-0.00918264
-0.0103867
-0.0114266
-0.0122793
-0.0129295
-0.0133873
-0.01365
0.00218011
0.00340553
0.00444202
0.00497431
0.00504934
0.0047806
0.00423277
0.00345179
0.00248119
0.00136367
0.000140099
-0.0011512
-0.00247478
-0.00379797
-0.0050906
-0.0063245
-0.00747343
-0.00851238
-0.00941769
-0.0101683
-0.0107497
-0.0111704
-0.0114256
0.00151581
0.00271394
0.003721
0.00424788
0.00435073
0.00414923
0.00370832
0.00307049
0.00227392
0.00135504
0.000347897
-0.000716311
-0.00180939
-0.00290594
-0.00398279
-0.00501813
-0.00599083
-0.00687894
-0.00766022
-0.00831494
-0.00882972
-0.00921107
-0.00945278
0.000908863
0.0020481
0.00300591
0.00352109
0.0036525
0.00351639
0.00317472
0.00266688
0.00202719
0.00128736
0.00047593
-0.000382023
-0.00126495
-0.00215445
-0.0030345
-0.00389001
-0.00470533
-0.00546029
-0.00613236
-0.00670204
-0.00715647
-0.00750036
-0.00772649
0.000367759
0.00142348
0.00231522
0.00280968
0.00296501
0.00288841
0.00263678
0.00224652
0.00174888
0.00117179
0.000539195
-0.000129227
-0.000818124
-0.00151612
-0.00221495
-0.00290759
-0.00358543
-0.00422811
-0.00480926
-0.00530785
-0.00571095
-0.00602168
-0.00623237
-0.000100718
0.000853635
0.00166588
0.00212969
0.00230048
0.00227396
0.00210128
0.001816
0.00144675
0.00101826
0.000550608
5.87507e-05
-0.000447709
-0.000964519
-0.00149243
-0.00203529
-0.00259658
-0.00315198
-0.00366406
-0.00410787
-0.0044702
-0.00475321
-0.00494976
-0.000490028
0.000351096
0.00107366
0.00149649
0.00167143
0.00168271
0.00157615
0.0013827
0.00112857
0.00083578
0.000521243
0.000196112
-0.000135014
-0.0004749
-0.000834899
-0.0012344
-0.00170201
-0.00220193
-0.00267105
-0.00307834
-0.00341106
-0.00367194
-0.00385594
-0.000791398
-6.98735e-05
0.00055603
0.000926603
0.00109155
0.00112577
0.00107076
0.000955004
0.000802362
0.000632483
0.000459993
0.000293561
0.00013427
-2.65476e-05
-0.000211871
-0.000462947
-0.000866272
-0.00135479
-0.0018116
-0.00220097
-0.00251407
-0.00275709
-0.00292927
-0.000989985
-0.000389395
0.000133665
0.000435668
0.000571029
0.000609651
0.000589518
0.000536229
0.000471024
0.000411494
0.000371087
0.000358029
0.000373094
0.000406923
0.000428101
0.000357891
-3.60732e-05
-0.000598238
-0.00108334
-0.00146947
-0.00176709
-0.00199229
-0.00215078
-0.00106182
-0.000588075
-0.0001881
1.09377e-05
8.51037e-05
0.000103815
0.00010029
9.56962e-05
0.000107989
0.00015314
0.000245218
0.000395525
0.000611641
0.000902297
0.00125667
0.00152895
0.000995125
0.000100487
-0.000502634
-0.000892934
-0.00116592
-0.00136502
-0.00150333
-0.000970113
-0.000664313
-0.000444661
-0.000402808
-0.000425039
-0.000447524
-0.000447197
-0.000409964
-0.000322054
-0.000168659
6.70518e-05
0.000403975
0.000866385
0.00151637
0.00245841
0.00352481
0.00268246
0.000808055
-8.77239e-05
-0.000478607
-0.000702177
-0.000858018
-0.00096693
-0.000683737
-0.00056848
-0.000545499
-0.000608886
-0.00067107
-0.000699868
-0.00068725
-0.000627797
-0.000514328
-0.000336937
-8.14994e-05
0.000271806
0.000755106
0.00146498
0.00267783
0.00470103
0.00438925
0.00137376
0.000268362
-0.000105422
-0.000276761
-0.000383887
-0.000458231
822.342
824.074
823.629
826.162
836.482
837.651
840.519
843.92
801.093
800.407
802.622
807.346
213.968
200.31
198.051
210.082
8.11707
8.26849
8.42949
8.6047
8.06722
9.42216
12.4056
14.4891
23.3885
27.5157
27.5857
27.2511
28.7144
29.0774
28.5899
16.6161
23.8546
20.7246
0.682209
-0.0440022
-0.190375
-0.133959
-0.090448
-0.0801618
-0.135838
-0.12299
-0.11118
-0.0996712
-0.115465
-0.110518
-0.102358
-0.0946307
0.0217047
-0.0881708
-0.0939995
-0.0882189
0.0996523
0.0812777
-0.0777875
-0.0834693
0.116368
0.119166
-0.0285718
-0.0792795
0.0427032
0.0725523
-0.0500549
-0.0753442
-0.081199
-0.0779008
-0.0671952
-0.0672384
-0.0715953
-0.0688309
-0.0654395
-0.0622105
-0.0628031
-0.0608519
-0.0582279
-0.0556517
-0.0561287
-0.0541741
-0.0518997
-0.049768
-0.0498891
-0.0482325
-0.0463045
-0.0445114
-0.0443669
-0.042985
-0.0413574
-0.0398394
-0.0395056
-0.0383649
-0.0369927
-0.0357046
-0.03521
-0.0342831
-0.0331306
-0.032037
-0.0313685
-0.030628
-0.0296654
-0.0287394
-0.0278665
-0.0272833
-0.0264845
-0.0257069
-0.0246147
-0.0241582
-0.0234995
-0.0228555
-0.0215641
-0.0212042
-0.0206626
-0.0201376
-0.0187014
-0.0184115
-0.0179647
-0.0175425
-0.0160362
-0.0157952
-0.0154228
-0.0150855
-0.013588
-0.0133804
-0.0130648
-0.0127949
-0.0113754
-0.0111912
-0.0109186
-0.0107
-0.00940925
-0.00924251
-0.00900305
-0.00882251
-0.00768834
-0.00753662
-0.00732418
-0.0071723
-0.00620031
-0.00606361
-0.00587547
-0.00574647
-0.00492549
-0.00480533
-0.00464123
-0.00453233
-0.00384154
-0.00374007
-0.00360105
-0.00351138
-0.00292646
-0.00284557
-0.00273298
-0.00266244
-0.00215978
-0.00210046
-0.00201525
-0.00196381
-0.00152058
-0.00148222
-0.00142471
-0.00139255
-0.000993598
-0.000976909
-0.000946745
-0.00093116
-0.00048898
-0.000494935
-0.000495325
-0.000500028
844.695
846.244
838.756
829.295
819.768
809.948
740.476
627.675
626.568
676.921
720.97
730.98
723.867
704.606
688.563
689.267
712.452
717.519
722.769
849.272
845.917
840.067
828.729
811.201
807.429
750.939
616.305
612.077
602.098
603.958
601.233
587.999
597.446
622.1
601.322
565.816
555.13
584.503
811.744
796.567
746.197
675.157
631.377
622.312
645.404
649.666
646.676
639.097
625.447
551.446
466.512
382.285
266.253
158.808
100.509
135.964
199.444
215.133
199.603
184.304
166.402
141.969
128.757
165.894
250.864
254.607
184
92.7781
49.1403
21.1729
0.204448
0.197902
0.289859
0.402616
0.6655
0.670296
8.56294
8.38118
8.23738
8.04527
7.84008
7.44892
6.55124
5.08536
3.65897
2.39746
1.46255
0.750412
0.340816
0.263877
0.251619
0.251994
0.259446
0.306747
0.495873
16.3797
18.9276
19.3816
17.4557
16.5061
15.9908
16.7289
16.9299
15.8751
15.5436
13.2135
6.28309
0.38
0.259566
0.241446
0.245315
0.255293
0.277898
0.487494
26.5001
25.5595
25.1283
25.1253
25.0135
24.8151
24.4866
23.5563
19.648
8.29518
0.138448
0.353286
1.35191
0.405965
0.219457
0.230988
0.241681
0.413004
0.524313
6.96251
7.68064
11.4285
12.5629
10.6188
7.40886
3.86017
-0.0190015
0.00109268
0.0610569
0.104676
0.107194
0.478093
0.184497
0.198281
0.212453
0.33416
0.490756
0.478378
-0.062333
-0.0778485
-0.0902855
-0.0764598
-0.0408687
0.00573595
0.0566539
0.0946938
0.146322
0.0688561
0.0857834
0.100345
0.116449
0.147262
0.185023
0.35836
0.418787
0.40925
0.225186
-0.073918
-0.0468692
0.1028
0.175482
0.210369
0.207348
0.18256
0.284272
0.31587
0.237534
0.0780672
0.091241
0.134777
0.191517
0.37363
0.398996
0.398464
0.227908
0.169771
-0.0841111
-0.0368996
0.205982
0.244887
0.258961
0.273128
0.289232
0.30739
0.325265
0.304111
0.0711454
0.0845083
0.123272
0.342272
0.38584
0.392418
0.281364
0.137321
0.138355
-0.0805454
-0.0695805
-0.0625867
-0.010008
0.118865
0.124107
0.0130271
0.0556802
0.23897
0.192779
0.0668143
0.0752703
0.0838946
0.3097
0.381808
0.319571
0.10342
0.127081
0.170356
-0.0610797
-0.0174502
-0.0456769
-0.0543817
-0.0463948
-0.0352082
-0.0221672
-0.0104114
0.00209878
0.153629
0.230139
0.176296
0.0560509
0.126191
0.204925
0.115464
0.0881568
0.168591
0.210577
-0.0570486
-0.00986742
-0.000745685
-0.00239102
-0.0219208
-0.0301149
-0.0194291
-0.00888042
0.00380381
0.154399
0.231539
0.110218
0.0466162
0.0521508
0.0570873
0.0635396
0.0723782
0.178459
0.202075
-0.0707608
-0.00529401
0.00590134
0.0154785
0.0256331
0.0115994
-0.0176058
-0.00802832
0.00140397
0.00996514
0.0274717
0.030212
0.04423
0.0461661
0.0512684
0.0534291
0.0556267
0.101959
0.194842
-0.0691517
-0.0571068
0.00703434
0.0211898
0.0307687
0.0407335
0.00325687
-0.0080406
0.000497658
0.00877712
0.0172231
0.0256929
0.033569
0.0425231
0.0462796
0.0441172
0.0446741
0.0574905
0.189815
-0.0636999
-0.0578107
-0.0487966
0.00711579
0.0354443
0.0434644
0.0321299
-0.00870133
-0.0007082
0.00721125
0.0150841
0.0213771
0.0271734
0.0326713
0.0374632
0.0360781
0.0358726
0.0382549
0.186714
-0.057846
-0.0526847
-0.0469743
-0.040778
-0.0016948
0.0308692
-0.00223287
-0.00947079
-0.00187639
0.00762649
0.0141327
0.0188491
0.0220931
0.0256439
0.0281889
0.0294782
0.0291547
0.0275131
0.159235
-0.052155
-0.047728
-0.0426644
-0.0370697
-0.0311388
-0.0246174
-0.0172999
-0.0096347
-0.00290562
0.00575802
0.0113827
0.0164403
0.0187159
0.0207595
0.023041
0.0242748
0.0243746
0.0237135
0.0257456
-0.0468811
-0.043087
-0.0386393
-0.0336548
-0.0282877
-0.0225053
-0.0163477
-0.00996679
-0.00439939
0.00340345
0.00894056
0.0132837
0.0151809
0.0166127
0.018775
0.0201848
0.0209496
0.0214751
0.0240764
-0.042093
-0.0388459
-0.0349676
-0.0305725
-0.025824
-0.0207734
-0.0155164
-0.0103184
-0.00538793
-0.000815335
0.00624484
0.0100526
0.011011
0.0132623
0.0152942
0.016814
0.0180598
0.0192015
0.0985182
-0.0378011
-0.0350351
-0.0316822
-0.027848
-0.0236985
-0.019316
-0.0148042
-0.0103416
-0.00607629
-0.00209211
0.00156057
0.00486646
0.00817845
0.0106837
0.0126051
0.01393
0.0154022
0.0174124
0.127168
-0.0339832
-0.0316446
-0.0287705
-0.0254537
-0.0218529
-0.0180595
-0.0141717
-0.0103184
-0.00661185
-0.00312675
9.0352e-05
0.00300926
0.00571071
0.00830575
0.0101449
0.0114717
0.0130404
0.0186683
0.129179
-0.0305833
-0.028624
-0.0261798
-0.0233291
-0.0202182
-0.0169365
-0.0135727
-0.010227
-0.00698874
-0.00392368
-0.00107637
0.0015238
0.00385623
0.0060011
0.00775882
0.00942058
0.0110664
0.0210337
0.131736
-0.0275173
-0.0258937
-0.0238317
-0.0213953
-0.0187165
-0.0158779
-0.012958
-0.0100392
-0.00719591
-0.00448599
-0.00195074
0.00038331
0.00250252
0.00441213
0.00614691
0.00777918
0.00947175
0.0212996
0.134471
-0.0246928
-0.0233671
-0.0216433
-0.0195732
-0.0172746
-0.0148217
-0.0122834
-0.00972989
-0.00722511
-0.0048204
-0.00255324
-0.000447253
0.00148814
0.00326173
0.00490627
0.00649291
0.00820313
0.0175579
0.137371
-0.022033
-0.0209725
-0.0195474
-0.0178009
-0.015838
-0.0137243
-0.01152
-0.00928621
-0.00707867
-0.00494319
-0.00291331
-0.00100939
0.000762586
0.00241364
0.00397447
0.00551158
0.00721445
0.0109012
0.140457
-0.0194913
-0.018666
-0.0175041
-0.0160434
-0.0143785
-0.0125667
-0.0106605
-0.00871319
-0.00677372
-0.00488271
-0.00306955
-0.00135064
0.000272245
0.00181356
0.00330424
0.00480785
0.00650926
0.00877481
0.142386
-0.0170538
-0.0164341
-0.0155027
-0.0142945
-0.0128953
-0.0113549
-0.0097189
-0.00803339
-0.00634127
-0.00467793
-0.0030681
-0.00152329
-3.92791e-05
0.00140552
0.00285073
0.00437518
0.00617698
0.00858081
0.0785436
-0.0147318
-0.0142879
-0.0135566
-0.0125711
-0.0114093
-0.0101143
-0.00872521
-0.00728184
-0.0058212
-0.00437348
-0.00295841
-0.0015818
-0.000231685
0.00112487
0.00254723
0.00415286
0.00620349
0.00901633
0.0118045
-0.0125511
-0.0122535
-0.0116942
-0.0109043
-0.00995415
-0.00888078
-0.00771752
-0.00649849
-0.00525535
-0.00401339
-0.00278757
-0.00157825
-0.000365996
0.000893763
0.00228124
0.00395378
0.00623715
0.00943764
0.0440401
-0.010541
-0.0103621
-0.00994873
-0.00932925
-0.00856638
-0.0076917
-0.00673348
-0.00572091
-0.00468107
-0.00363512
-0.00259428
-0.00155501
-0.000493014
0.000643114
0.00194312
0.00357865
0.00589255
0.0140078
0.104908
-0.00872591
-0.00864035
-0.00834892
-0.00787607
-0.00727691
-0.00657816
-0.00580374
-0.00497875
-0.00412661
-0.00326547
-0.00240426
-0.00153769
-0.000639856
0.000341909
0.00149558
0.00297913
0.00510548
0.0258581
0.106263
-0.0071198
-0.00710526
-0.00691355
-0.00656468
-0.00610625
-0.00556071
-0.00494831
-0.00429083
-0.00360897
-0.00291902
-0.00222907
-0.00153389
-0.000808289
-8.54387e-07
0.000971407
0.0022484
0.00410761
0.0198183
0.107328
-0.00572451
-0.00576178
-0.00564944
-0.00540312
-0.00506319
-0.00464841
-0.00417596
-0.00366495
-0.00313417
-0.00259905
-0.00206805
-0.00153739
-0.000983526
-0.000355559
0.000430283
0.00151769
0.00319494
0.00580307
0.0496552
-0.00453157
-0.00460423
-0.00455282
-0.00438903
-0.00414643
-0.00384058
-0.00348605
-0.00309978
-0.00269927
-0.00229997
-0.00191184
-0.00153381
-0.00114501
-0.000693634
-8.55949e-05
0.000854374
0.0024689
0.00683637
0.00797745
-0.00352532
-0.00361932
-0.00361233
-0.00351268
-0.00334767
-0.00312994
-0.00287174
-0.00258812
-0.00229573
-0.00201073
-0.0017458
-0.00150458
-0.00127166
-0.000996235
-0.000571279
0.00022978
0.00180323
0.00451649
0.00746465
-0.00268623
-0.00278942
-0.00281223
-0.00276026
-0.00265486
-0.00250595
-0.00232354
-0.0021208
-0.00191354
-0.00171895
-0.00155354
-0.0014283
-0.0013384
-0.00124148
-0.00102611
-0.000405281
0.00106407
0.00369284
0.00652184
-0.0019934
-0.00209529
-0.00213529
-0.00211675
-0.00205532
-0.00195819
-0.00183301
-0.00169078
-0.00154593
-0.0014161
-0.00132147
-0.00128221
-0.00131166
-0.00139437
-0.00144771
-0.00108111
0.000224842
0.00267846
0.00537915
-0.00142542
-0.00151691
-0.00156366
-0.00156694
-0.00153673
-0.00147737
-0.00139404
-0.00129494
-0.00119197
-0.00110128
-0.00104393
-0.00104736
-0.00115512
-0.00143039
-0.00189956
-0.00196563
-0.000732293
0.00151603
0.00399337
-0.000957852
-0.00102953
-0.00107423
-0.00108988
-0.00108069
-0.00104829
-0.00099529
-0.00092665
-0.000850285
-0.000777997
-0.000726595
-0.000723384
-0.000854029
-0.00138224
-0.00270783
-0.00337323
-0.00108617
0.000698536
0.00238772
-0.000525487
-0.000571897
-0.000603108
-0.00061711
-0.000614379
-0.000595447
-0.000561918
-0.00051666
-0.000464032
-0.00041106
-0.000370148
-0.000366865
-0.000505211
-0.00121566
-0.00374982
-0.00312877
-2.81458e-05
0.00140844
0.00155491
)
;

boundaryField
{
    leftWall
    {
        type            fixedFluxPressure;
        gradient        uniform 0;
        value           nonuniform List<scalar> 
50
(
719.661
719.644
719.542
719.37
719.13
718.823
718.447
717.994
717.133
617.361
94.1075
3.60922
4.09502
3.34899
1.10372
0.220126
0.195591
0.171763
0.148721
0.127658
0.108933
0.0925216
0.0783064
0.0662115
0.0559308
0.0473463
0.0402699
0.0345101
0.0298482
0.0260266
0.0230824
0.0590635
0.117598
0.115561
0.0270751
0.00545851
0.00446048
0.00365051
0.0028931
0.00218011
0.00151581
0.000908863
0.000367759
-0.000100718
-0.000490028
-0.000791398
-0.000989985
-0.00106182
-0.000970113
-0.000683737
)
;
    }
    rightWall
    {
        type            fixedFluxPressure;
        gradient        uniform 0;
        value           nonuniform List<scalar> 
50
(
726.155
726.442
726.858
726.042
725.157
724.464
723.832
723.474
722.769
584.503
199.444
0.670296
0.495873
0.487494
0.524313
0.478378
0.225186
0.169771
0.138355
0.170356
0.210577
0.202075
0.194842
0.189815
0.186714
0.159235
0.0257456
0.0240764
0.0985182
0.127168
0.129179
0.131736
0.134471
0.137371
0.140457
0.142386
0.0785436
0.0118045
0.0440401
0.104908
0.106263
0.107328
0.0496552
0.00797745
0.00746465
0.00652184
0.00537915
0.00399337
0.00238772
0.00155491
)
;
    }
    lowerWall
    {
        type            fixedFluxPressure;
        gradient        uniform 0;
        value           nonuniform List<scalar> 
62
(
719.661
719.834
720.437
721.309
722.447
723.868
725.616
727.754
730.354
733.485
737.21
741.58
746.629
752.354
758.683
765.447
772.33
778.597
783.837
789.103
792.978
793.56
791.426
791.426
790.583
789.502
788.288
787.122
785.431
782.139
781.874
822.342
824.074
823.629
826.162
837.746
838.242
839.142
839.84
840.912
845.807
859.198
860.037
837.746
835.97
831.836
824.789
814.048
800.608
785.231
770.157
759.301
755.703
751.008
743.373
734.329
726.471
720.179
719.246
724.116
727.298
726.155
)
;
    }
    atmosphere
    {
        type            totalPressure;
        rho             rho;
        psi             none;
        gamma           1;
        p0              uniform 0;
        value           nonuniform List<scalar> 
46
(
0
0
0
0
0
0
0
0
0
0
0
0
0
0
0
0
-3.24025e-08
-7.95058e-06
-3.27123e-05
-6.96868e-05
-0.000113277
-0.000158958
-0.000202805
-0.000231137
-0.0002487
-0.000265816
-0.000282636
-0.000310179
-0.000340595
-0.000359207
-0.000364441
-0.000356467
-0.000336706
-0.000307361
-0.000270954
-0.000229963
-0.000186595
-0.000142729
-0.000100033
-6.04311e-05
-2.62405e-05
-2.35734e-06
0
0
0
0
)
;
    }
    defaultFaces
    {
        type            empty;
    }
}


// ************************************************************************* //
