/*--------------------------------*- C++ -*----------------------------------*\
| =========                 |                                                 |
| \\      /  F ield         | OpenFOAM: The Open Source CFD Toolbox           |
|  \\    /   O peration     | Version:  2.3.0                                 |
|   \\  /    A nd           | Web:      www.OpenFOAM.org                      |
|    \\/     M anipulation  |                                                 |
\*---------------------------------------------------------------------------*/
FoamFile
{
    version     2.0;
    format      ascii;
    class       surfaceScalarField;
    location    "2.45";
    object      phi;
}
// * * * * * * * * * * * * * * * * * * * * * * * * * * * * * * * * * * * * * //

dimensions      [0 3 -1 0 0 0 0];

internalField   nonuniform List<scalar> 
4432
(
-3.61415e-07
3.61415e-07
-4.24929e-07
6.35056e-08
-3.802e-07
-4.47379e-08
-3.49746e-07
-3.04619e-08
-3.91013e-07
4.12592e-08
-5.198e-07
1.28781e-07
-7.40005e-07
2.20201e-07
-1.05275e-06
3.12741e-07
-1.45527e-06
4.02525e-07
-1.93846e-06
4.83192e-07
-2.4882e-06
5.49745e-07
-3.08782e-06
5.99609e-07
-3.71938e-06
6.3155e-07
-4.35889e-06
6.39512e-07
-4.96462e-06
6.05736e-07
-5.46564e-06
5.01013e-07
-5.78112e-06
3.15472e-07
-6.03206e-06
2.50939e-07
-6.38188e-06
3.4983e-07
-6.14158e-06
-2.40289e-07
-4.70195e-06
-1.43963e-06
-2.23984e-06
-2.46212e-06
-2.23985e-06
-2.55214e-07
6.16618e-07
-2.48168e-07
5.64477e-08
-2.22978e-07
-6.99382e-08
-2.29406e-07
-2.40419e-08
-2.9334e-07
1.05185e-07
-4.28841e-07
2.64277e-07
-6.43565e-07
4.34927e-07
-9.41359e-07
6.10542e-07
-1.32102e-06
7.82191e-07
-1.77544e-06
9.37603e-07
-2.29333e-06
1.06762e-06
-2.86182e-06
1.1681e-06
-3.46697e-06
1.23671e-06
-4.08893e-06
1.26145e-06
-4.6937e-06
1.21049e-06
-5.22854e-06
1.03585e-06
-5.6367e-06
7.23628e-07
-5.85172e-06
4.65961e-07
-5.74406e-06
2.42167e-07
-5.14771e-06
-8.36638e-07
-3.94829e-06
-2.63906e-06
-2.0897e-06
-4.3207e-06
-4.32953e-06
-1.27052e-07
7.43662e-07
-1.13119e-07
4.25056e-08
-9.87269e-08
-8.43372e-08
-1.18145e-07
-4.62887e-09
-1.86793e-07
1.73829e-07
-3.16759e-07
3.94242e-07
-5.17835e-07
6.36004e-07
-7.95774e-07
8.88486e-07
-1.15095e-06
1.13737e-06
-1.57803e-06
1.36467e-06
-2.06824e-06
1.55783e-06
-2.61207e-06
1.71194e-06
-3.19976e-06
1.82441e-06
-3.81657e-06
1.87825e-06
-4.43613e-06
1.83005e-06
-5.01611e-06
1.61583e-06
-5.49401e-06
1.20153e-06
-5.71586e-06
6.8781e-07
-5.48436e-06
1.06707e-08
-4.77272e-06
-1.54828e-06
-3.50675e-06
-3.90505e-06
-1.71462e-06
-6.1128e-06
-6.04414e-06
-1.03276e-08
7.53985e-07
9.12433e-09
2.30501e-08
1.96053e-08
-9.48212e-08
-2.30861e-09
1.72836e-08
-6.78772e-08
2.39395e-07
-1.88861e-07
5.15227e-07
-3.76212e-07
8.23355e-07
-6.3775e-07
1.15002e-06
-9.75498e-07
1.47511e-06
-1.38572e-06
1.77489e-06
-1.86182e-06
2.03393e-06
-2.39731e-06
2.24743e-06
-2.98638e-06
2.41347e-06
-3.61891e-06
2.51079e-06
-4.27386e-06
2.48499e-06
-4.91323e-06
2.2552e-06
-5.4655e-06
1.75381e-06
-5.76051e-06
9.82823e-07
-5.56441e-06
-1.85421e-07
-4.82491e-06
-2.28779e-06
-3.38359e-06
-5.34636e-06
-1.32366e-06
-8.1727e-06
-7.36781e-06
8.60057e-08
6.67977e-07
1.20781e-07
-1.17246e-08
1.3444e-07
-1.08482e-07
1.16655e-07
3.50682e-08
5.8348e-08
2.97701e-07
-5.20983e-08
6.25673e-07
-2.27289e-07
9.98545e-07
-4.77087e-07
1.39982e-06
-8.05243e-07
1.80326e-06
-1.20951e-06
2.17916e-06
-1.68531e-06
2.50972e-06
-2.22903e-06
2.79115e-06
-2.8388e-06
3.02325e-06
-3.50888e-06
3.18087e-06
-4.22235e-06
3.19846e-06
-4.94366e-06
2.97652e-06
-5.59785e-06
2.40799e-06
-6.02331e-06
1.40828e-06
-5.98676e-06
-2.21975e-07
-5.31559e-06
-2.95895e-06
-3.74264e-06
-6.91929e-06
-1.28441e-06
-1.06309e-05
-8.65223e-06
1.58698e-07
5.09278e-07
2.18331e-07
-7.13562e-08
2.41385e-07
-1.31535e-07
2.31915e-07
4.45374e-08
1.82991e-07
3.46623e-07
8.27987e-08
7.25864e-07
-8.31733e-08
1.16451e-06
-3.27094e-07
1.64373e-06
-6.54498e-07
2.13066e-06
-1.06459e-06
2.58924e-06
-1.55474e-06
2.99987e-06
-2.12421e-06
3.36062e-06
-2.77504e-06
3.67409e-06
-3.50571e-06
3.91154e-06
-4.30323e-06
3.99599e-06
-5.1353e-06
3.80859e-06
-5.93037e-06
3.20305e-06
-6.5402e-06
2.01811e-06
-6.74679e-06
-1.53868e-08
-6.305e-06
-3.40073e-06
-4.85092e-06
-8.37337e-06
-2.05494e-06
-1.34269e-05
-1.07072e-05
2.12706e-07
2.96573e-07
2.96707e-07
-1.55358e-07
3.31603e-07
-1.66431e-07
3.31776e-07
4.43646e-08
2.91851e-07
3.86546e-07
1.9946e-07
8.18254e-07
3.78869e-08
1.32608e-06
-2.07584e-07
1.8892e-06
-5.44373e-07
2.46744e-06
-9.73157e-07
3.01802e-06
-1.49337e-06
3.52008e-06
-2.107e-06
3.97426e-06
-2.81987e-06
4.38697e-06
-3.63441e-06
4.72609e-06
-4.54185e-06
4.90343e-06
-5.51511e-06
4.78185e-06
-6.49071e-06
4.17865e-06
-7.33995e-06
2.86735e-06
-7.86918e-06
5.13832e-07
-7.84734e-06
-3.42257e-06
-6.94452e-06
-9.2762e-06
-4.42087e-06
-1.59506e-05
-1.5128e-05
2.45433e-07
5.11414e-08
3.48611e-07
-2.58538e-07
3.93836e-07
-2.11658e-07
4.01858e-07
3.63384e-08
3.67785e-07
4.20611e-07
2.78322e-07
9.07708e-07
1.14307e-07
1.49009e-06
-1.41645e-07
2.14513e-06
-4.98979e-07
2.82476e-06
-9.60011e-07
3.47905e-06
-1.52635e-06
4.08641e-06
-2.20234e-06
4.65025e-06
-2.99678e-06
5.1814e-06
-3.91546e-06
5.64476e-06
-4.95406e-06
5.94202e-06
-6.09289e-06
5.92067e-06
-7.28035e-06
5.36611e-06
-8.41105e-06
3.99805e-06
-9.33017e-06
1.43295e-06
-9.87875e-06
-2.87398e-06
-1.0012e-05
-9.14299e-06
-9.10083e-06
-1.68617e-05
-2.42289e-05
-1.95877e-06
1.95877e-06
-1.72764e-06
-2.31137e-07
1.71699e-07
-1.89934e-06
2.6792e-06
-2.50749e-06
5.39405e-06
-2.71488e-06
8.06417e-06
-2.6701e-06
1.00065e-05
-1.94232e-06
9.71872e-06
2.87763e-07
5.75445e-06
3.96427e-06
2.07945e-06
3.67501e-06
6.73977e-07
1.40544e-06
-1.56105e-07
8.30066e-07
-3.73763e-06
3.58156e-06
-8.51602e-06
4.77836e-06
-1.13076e-05
2.79157e-06
-1.0877e-05
-4.30508e-07
-7.17848e-06
-3.6986e-06
-2.4472e-06
-4.73126e-06
-2.44721e-06
-1.81381e-06
3.77257e-06
-1.00153e-06
-1.04342e-06
2.16474e-07
-3.11738e-06
1.89542e-06
-4.1864e-06
3.87187e-06
-4.69136e-06
5.67647e-06
-4.47469e-06
6.60164e-06
-2.86748e-06
6.27373e-06
6.1567e-07
4.32429e-06
5.91366e-06
1.44535e-06
6.55394e-06
-2.07368e-07
3.05818e-06
-1.45195e-06
2.07461e-06
-4.03635e-06
6.16601e-06
-6.81033e-06
7.55236e-06
-8.41966e-06
4.40088e-06
-8.28532e-06
-5.64824e-07
-6.21867e-06
-5.76528e-06
-3.30563e-06
-7.64427e-06
-5.75286e-06
-1.35648e-06
5.12905e-06
-7.57869e-07
-1.64202e-06
2.12647e-08
-3.89653e-06
1.20969e-06
-5.37481e-06
2.66932e-06
-6.151e-06
3.93824e-06
-5.74363e-06
4.30386e-06
-3.2331e-06
3.56999e-06
1.34953e-06
2.37226e-06
7.11139e-06
6.40818e-07
8.28542e-06
-8.09625e-07
4.50865e-06
-1.92112e-06
3.18608e-06
-3.17497e-06
7.41988e-06
-4.37806e-06
8.75548e-06
-5.45761e-06
5.48041e-06
-5.52933e-06
-4.93085e-07
-4.71831e-06
-6.57631e-06
-3.18387e-06
-9.1787e-06
-8.93673e-06
-9.90717e-07
6.11977e-06
-8.16707e-07
-1.81603e-06
-3.81185e-07
-4.33205e-06
4.42152e-07
-6.19815e-06
1.52992e-06
-7.23877e-06
2.44493e-06
-6.65867e-06
2.49164e-06
-3.27979e-06
1.5585e-06
2.2827e-06
7.11128e-07
7.95874e-06
-1.92468e-07
9.18901e-06
-1.19807e-06
5.51428e-06
-1.89637e-06
3.88437e-06
-2.20185e-06
7.72536e-06
-2.45763e-06
9.01128e-06
-2.88046e-06
5.90321e-06
-2.91106e-06
-4.62467e-07
-2.93264e-06
-6.55475e-06
-2.41377e-06
-9.69755e-06
-1.13505e-05
-8.93832e-07
7.01362e-06
-1.13944e-06
-1.57044e-06
-9.77397e-07
-4.4941e-06
-4.20752e-07
-6.7548e-06
4.02289e-07
-8.06178e-06
1.10402e-06
-7.3604e-06
9.81651e-07
-3.15743e-06
-2.76008e-08
3.29198e-06
-6.15037e-07
8.54617e-06
-9.5772e-07
9.53167e-06
-1.34183e-06
5.89841e-06
-1.65744e-06
4.19996e-06
-1.23425e-06
7.30216e-06
-7.79749e-07
8.55678e-06
-5.74098e-07
5.69754e-06
-5.94398e-07
-4.42156e-07
-1.04936e-06
-6.0998e-06
-1.31605e-06
-9.43084e-06
-1.26665e-05
-1.1465e-06
8.16015e-06
-1.75768e-06
-9.59285e-07
-1.74067e-06
-4.51111e-06
-1.36211e-06
-7.13336e-06
-7.33261e-07
-8.69062e-06
-1.20314e-07
-7.97335e-06
-2.53753e-07
-3.02402e-06
-1.21459e-06
4.25282e-06
-1.56715e-06
8.89873e-06
-1.38174e-06
9.34624e-06
-1.2601e-06
5.77677e-06
-1.15428e-06
4.09413e-06
-2.37321e-07
6.38518e-06
7.65676e-07
7.55378e-06
1.48492e-06
4.97827e-06
1.43182e-06
-3.89054e-07
7.71196e-07
-5.43919e-06
3.31636e-08
-8.6928e-06
-1.26334e-05
-1.92446e-06
1.00846e-05
-2.68391e-06
-1.99836e-07
-2.64346e-06
-4.55157e-06
-2.35275e-06
-7.42408e-06
-1.87406e-06
-9.16933e-06
-1.29224e-06
-8.55518e-06
-1.25482e-06
-3.06146e-06
-2.00682e-06
5.00483e-06
-2.07626e-06
8.96818e-06
-1.43936e-06
8.70933e-06
-8.7483e-07
5.21225e-06
-3.40123e-07
3.55942e-06
8.41063e-07
5.20399e-06
2.22459e-06
6.17025e-06
3.24054e-06
3.96231e-06
3.21809e-06
-3.66607e-07
2.44611e-06
-4.66722e-06
1.22851e-06
-7.47521e-06
-1.14049e-05
-3.76947e-06
1.38541e-05
-3.90275e-06
-6.65553e-08
-3.65007e-06
-4.80426e-06
-3.36345e-06
-7.71071e-06
-3.01347e-06
-9.51932e-06
-2.48787e-06
-9.08076e-06
-2.12624e-06
-3.42309e-06
-2.45272e-06
5.33131e-06
-2.13983e-06
8.6553e-06
-1.14749e-06
7.717e-06
-1.62362e-07
4.22712e-06
7.3837e-07
2.65869e-06
2.06914e-06
3.87321e-06
3.64464e-06
4.59475e-06
4.79103e-06
2.81592e-06
4.82857e-06
-4.04155e-07
3.95083e-06
-3.78949e-06
2.34251e-06
-5.8669e-06
-9.06239e-06
5.26727e-07
-4.75584e-07
7.97822e-07
-5.29632e-07
9.24706e-07
-3.38536e-07
9.59221e-07
1.82614e-09
8.92287e-07
4.87549e-07
6.95891e-07
1.1041e-06
3.1911e-07
1.86687e-06
-2.84279e-07
2.74852e-06
-1.14063e-06
3.68111e-06
-2.26168e-06
4.6001e-06
-3.65788e-06
5.48262e-06
-5.34208e-06
6.33445e-06
-7.33925e-06
7.17858e-06
-9.669e-06
7.97452e-06
-1.23365e-05
8.60948e-06
-1.53342e-05
8.91843e-06
-1.86027e-05
8.63459e-06
-2.19878e-05
7.3831e-06
-2.53084e-05
4.75359e-06
-2.84089e-05
2.26431e-07
-3.13034e-05
-6.24841e-06
-3.4777e-05
-1.33882e-05
-1.60708e-05
-4.2935e-05
3.26521e-07
-8.0211e-07
4.99881e-07
-7.03002e-07
6.42573e-07
-4.81236e-07
7.00723e-07
-5.63384e-08
6.23926e-07
5.64333e-07
3.8924e-07
1.33877e-06
-3.90208e-08
2.2951e-06
-7.24346e-07
3.43382e-06
-1.71712e-06
4.67386e-06
-3.03816e-06
5.92112e-06
-4.71539e-06
7.15982e-06
-6.7377e-06
8.35674e-06
-9.10601e-06
9.54687e-06
-1.17871e-05
1.06556e-05
-1.48131e-05
1.16355e-05
-1.82979e-05
1.24032e-05
-2.22556e-05
1.25923e-05
-2.6559e-05
1.16865e-05
-3.10457e-05
9.24028e-06
-3.51121e-05
4.29282e-06
-3.79338e-05
-3.42671e-06
-3.97428e-05
-1.15792e-05
-1.58074e-05
-4.00063e-05
-1.00229e-06
2.00184e-07
-7.78124e-07
-9.27143e-07
-4.58062e-07
-8.01301e-07
-2.94668e-07
-2.19726e-07
-4.55451e-07
7.25117e-07
-9.57706e-07
1.84102e-06
-1.59944e-06
2.93683e-06
-2.40619e-06
4.24058e-06
-3.6049e-06
5.87258e-06
-5.28981e-06
7.60603e-06
-7.48535e-06
9.35535e-06
-1.00257e-05
1.08971e-05
-1.28253e-05
1.23464e-05
-1.55954e-05
1.34257e-05
-1.81411e-05
1.41812e-05
-2.10345e-05
1.52966e-05
-2.4865e-05
1.64227e-05
-2.92079e-05
1.60294e-05
-3.38385e-05
1.38709e-05
-3.75159e-05
7.9702e-06
-3.94866e-05
-1.45597e-06
-4.01189e-05
-1.09469e-05
-1.71895e-05
-3.87368e-05
-8.00197e-06
8.20214e-06
-5.41087e-06
-3.51815e-06
-4.11522e-06
-2.09692e-06
-2.95288e-06
-1.38201e-06
-3.18458e-06
9.56813e-07
-5.79365e-06
4.4502e-06
-8.15499e-06
5.29823e-06
-8.90027e-06
4.98591e-06
-1.04248e-05
7.3971e-06
-1.34007e-05
1.0582e-05
-1.7695e-05
1.36498e-05
-2.13086e-05
1.45107e-05
-2.42111e-05
1.52489e-05
-2.60282e-05
1.52428e-05
-2.43003e-05
1.24534e-05
-2.15443e-05
1.25406e-05
-2.26777e-05
1.75562e-05
-2.60787e-05
1.94304e-05
-3.10092e-05
1.88014e-05
-3.4129e-05
1.10901e-05
-3.67527e-05
1.1677e-06
-3.90801e-05
-8.61955e-06
-1.73178e-05
-3.89518e-05
-1.35951e-05
2.17973e-05
-1.79194e-05
8.06156e-07
-2.10247e-05
1.00842e-06
-2.2339e-05
-6.76503e-08
-2.36846e-05
2.30236e-06
-2.79801e-05
8.74573e-06
-3.22921e-05
9.61018e-06
-3.44404e-05
7.13417e-06
-3.73977e-05
1.03544e-05
-4.37956e-05
1.69799e-05
-5.31714e-05
2.30255e-05
-5.73132e-05
1.86526e-05
-5.65723e-05
1.4508e-05
-5.25696e-05
1.12401e-05
-4.65275e-05
6.41127e-06
-3.90558e-05
5.06894e-06
-3.04851e-05
8.98549e-06
-2.45774e-05
1.35226e-05
-2.42684e-05
1.84924e-05
-2.62453e-05
1.30669e-05
-3.0418e-05
5.34038e-06
-3.54332e-05
-3.60437e-06
-1.29752e-05
-3.97756e-05
-1.92464e-06
2.37222e-05
-1.72127e-05
1.60944e-05
-2.84662e-05
1.22621e-05
-3.2711e-05
4.1773e-06
-3.46183e-05
4.20975e-06
-3.60357e-05
1.01632e-05
-4.08149e-05
1.43895e-05
-4.68468e-05
1.31661e-05
-5.14814e-05
1.49892e-05
-5.84211e-05
2.39198e-05
-6.50748e-05
2.96791e-05
-6.49434e-05
1.85212e-05
-6.35254e-05
1.30901e-05
-6.21153e-05
9.83001e-06
-5.99104e-05
4.20649e-06
-5.5458e-05
6.16532e-07
-4.80321e-05
1.55954e-06
-4.06066e-05
6.09716e-06
-3.31306e-05
1.10164e-05
-3.12976e-05
1.12339e-05
-3.69197e-05
1.09624e-05
-4.4624e-05
4.09995e-06
-1.06442e-05
-4.69552e-05
-3.5631e-06
2.72852e-05
-1.4956e-05
2.74874e-05
-2.45393e-05
2.18455e-05
-3.37501e-05
1.33884e-05
-3.9364e-05
9.82342e-06
-4.32184e-05
1.40176e-05
-4.88737e-05
2.00449e-05
-5.59606e-05
2.0253e-05
-6.08718e-05
1.99004e-05
-6.18575e-05
2.49054e-05
-6.08845e-05
2.87059e-05
-6.10412e-05
1.86778e-05
-6.19004e-05
1.39492e-05
-6.46952e-05
1.26249e-05
-6.63487e-05
5.85996e-06
-6.57093e-05
-2.29173e-08
-6.24886e-05
-1.66101e-06
-5.58288e-05
-5.62647e-07
-4.48541e-05
4.18028e-08
-3.78469e-05
4.22644e-06
-3.83412e-05
1.14565e-05
-4.18765e-05
7.63531e-06
-1.4446e-05
-3.80747e-05
-7.30252e-06
3.4588e-05
-1.2989e-05
3.3174e-05
-1.99168e-05
2.8773e-05
-2.92083e-05
2.268e-05
-3.94884e-05
2.01033e-05
-4.84022e-05
2.29313e-05
-5.46668e-05
2.63097e-05
-5.69431e-05
2.25295e-05
-5.68329e-05
1.97902e-05
-5.33073e-05
2.138e-05
-4.84711e-05
2.38698e-05
-5.07224e-05
2.09291e-05
-5.53889e-05
1.86158e-05
-6.02924e-05
1.75287e-05
-6.56594e-05
1.12269e-05
-6.73438e-05
1.66132e-06
-6.57344e-05
-3.2704e-06
-6.01783e-05
-6.11877e-06
-5.27811e-05
-7.35529e-06
-4.50424e-05
-3.51211e-06
-3.66393e-05
3.05373e-06
-3.43489e-05
5.34511e-06
-1.64945e-05
-3.23003e-05
-6.18754e-06
4.07761e-05
-1.10891e-05
3.8076e-05
-1.6615e-05
3.42991e-05
-2.45431e-05
3.06079e-05
-3.38272e-05
2.93875e-05
-4.19075e-05
3.10116e-05
-4.69722e-05
3.13745e-05
-4.82231e-05
2.37805e-05
-4.76088e-05
1.91759e-05
-4.491e-05
1.86811e-05
-4.03765e-05
1.93362e-05
-3.84716e-05
1.90244e-05
-4.07853e-05
2.09293e-05
-4.54502e-05
2.21936e-05
-5.18928e-05
1.76697e-05
-5.79916e-05
7.76024e-06
-6.02127e-05
-1.04951e-06
-5.66235e-05
-9.70797e-06
-5.20124e-05
-1.19665e-05
-4.65875e-05
-8.93689e-06
-3.8204e-05
-5.32961e-06
-2.89059e-05
-3.95283e-06
-1.83356e-05
-2.70647e-05
-4.70679e-06
4.5483e-05
-8.54988e-06
4.19197e-05
-1.29173e-05
3.86669e-05
-1.86437e-05
3.63339e-05
-2.49703e-05
3.57142e-05
-3.0263e-05
3.63044e-05
-3.36326e-05
3.47442e-05
-3.67075e-05
2.68554e-05
-3.796e-05
2.04284e-05
-3.73614e-05
1.80825e-05
-3.4894e-05
1.68688e-05
-3.25068e-05
1.66372e-05
-3.10148e-05
1.94371e-05
-3.21003e-05
2.3279e-05
-3.56201e-05
2.11895e-05
-3.98738e-05
1.20141e-05
-4.23882e-05
1.46504e-06
-4.5884e-05
-6.21218e-06
-4.73369e-05
-1.05134e-05
-4.43332e-05
-1.19405e-05
-3.77625e-05
-1.19003e-05
-2.65572e-05
-1.51581e-05
-2.43973e-05
-2.04956e-05
-2.84169e-06
4.83247e-05
-5.52311e-06
4.46015e-05
-8.53222e-06
4.16758e-05
-1.20325e-05
3.98341e-05
-1.54289e-05
3.91103e-05
-1.78415e-05
3.87171e-05
-1.94825e-05
3.63853e-05
-2.29613e-05
3.03343e-05
-2.65241e-05
2.39911e-05
-2.81202e-05
1.96787e-05
-2.80363e-05
1.6785e-05
-2.71749e-05
1.5776e-05
-2.52773e-05
1.75397e-05
-2.35943e-05
2.15959e-05
-2.33918e-05
2.09869e-05
-2.2818e-05
1.14405e-05
-2.26401e-05
1.28721e-06
-2.28792e-05
-5.97315e-06
-2.39951e-05
-9.39783e-06
-2.54279e-05
-1.05077e-05
-2.40784e-05
-1.32499e-05
-2.14621e-05
-1.77746e-05
-2.40646e-05
-2.17951e-05
-9.98252e-07
4.93233e-05
-2.47903e-06
4.60824e-05
-4.15597e-06
4.33524e-05
-5.86904e-06
4.15474e-05
-7.18283e-06
4.04241e-05
-7.73224e-06
3.92665e-05
-8.15153e-06
3.68046e-05
-9.98294e-06
3.21659e-05
-1.28955e-05
2.69039e-05
-1.57132e-05
2.24965e-05
-1.79708e-05
1.90425e-05
-1.88925e-05
1.66977e-05
-1.83199e-05
1.69672e-05
-1.58797e-05
1.91556e-05
-1.32621e-05
1.83689e-05
-1.12809e-05
9.45928e-06
-1.04572e-05
4.63526e-07
-1.03072e-05
-6.12312e-06
-1.07764e-05
-8.92873e-06
-1.23815e-05
-8.90253e-06
-1.34488e-05
-1.21825e-05
-1.40666e-05
-1.71565e-05
-2.20336e-05
-1.60974e-05
5.10204e-07
4.88136e-05
1.00484e-07
4.64923e-05
-4.42064e-07
4.38951e-05
-8.83159e-07
4.19883e-05
-9.42898e-07
4.04839e-05
-5.36373e-07
3.88601e-05
-1.32232e-07
3.64006e-05
-6.35604e-07
3.26692e-05
-2.10168e-06
2.83701e-05
-3.96866e-06
2.43635e-05
-5.85264e-06
2.09263e-05
-7.50548e-06
1.83502e-05
-7.89121e-06
1.7353e-05
-6.06141e-06
1.73262e-05
-3.01027e-06
1.53179e-05
-1.83415e-06
8.2832e-06
-1.51014e-06
1.39472e-07
-2.08442e-06
-5.54873e-06
-3.37055e-06
-7.64242e-06
-4.27582e-06
-7.99702e-06
-5.50463e-06
-1.09537e-05
-7.12564e-06
-1.55353e-05
-1.97929e-05
-9.36614e-06
1.49887e-06
4.73148e-05
1.97197e-06
4.60192e-05
2.30752e-06
4.35601e-05
2.72833e-06
4.15671e-05
3.40778e-06
3.98045e-05
4.34695e-06
3.79211e-05
5.24127e-06
3.55063e-05
5.57078e-06
3.23397e-05
5.20504e-06
2.87358e-05
4.39483e-06
2.5174e-05
3.38771e-06
2.19339e-05
2.48993e-06
1.92482e-05
2.43791e-06
1.7405e-05
3.82897e-06
1.59354e-05
5.9895e-06
1.31577e-05
6.62614e-06
7.64677e-06
5.8027e-06
9.63001e-07
4.13573e-06
-3.88157e-06
2.52625e-06
-6.03259e-06
1.86628e-06
-7.33665e-06
8.82006e-07
-9.96923e-06
-9.1324e-07
-1.37401e-05
-1.74787e-05
-3.22756e-06
1.94776e-06
4.5367e-05
3.10708e-06
4.48602e-05
4.08503e-06
4.25821e-05
5.08376e-06
4.05681e-05
6.21944e-06
3.86689e-05
7.47788e-06
3.66628e-05
8.66871e-06
3.43158e-05
9.50058e-06
3.15079e-05
9.85394e-06
2.83826e-05
9.82559e-06
2.52025e-05
9.58493e-06
2.21748e-05
9.38165e-06
1.94516e-05
9.66834e-06
1.71184e-05
1.07485e-05
1.48553e-05
1.21129e-05
1.17934e-05
1.25235e-05
7.23646e-06
1.13737e-05
2.11298e-06
9.50328e-06
-2.01117e-06
8.0181e-06
-4.54727e-06
7.12176e-06
-6.44027e-06
6.1e-06
-8.94754e-06
4.41376e-06
-1.2054e-05
-1.51371e-05
2.07211e-06
2.03956e-06
4.33274e-05
3.63636e-06
4.32639e-05
5.0485e-06
4.11694e-05
6.42762e-06
3.91892e-05
7.85135e-06
3.72454e-05
9.30743e-06
3.52068e-05
1.06837e-05
3.29397e-05
1.18154e-05
3.03763e-05
1.26155e-05
2.75826e-05
1.31161e-05
2.47022e-05
1.34235e-05
2.18675e-05
1.37059e-05
1.91691e-05
1.42045e-05
1.66198e-05
1.50375e-05
1.40224e-05
1.58812e-05
1.09498e-05
1.60004e-05
7.11734e-06
1.51039e-05
3.00959e-06
1.36348e-05
-5.42187e-07
1.22907e-05
-3.20323e-06
1.12729e-05
-5.42242e-06
1.01568e-05
-7.8316e-06
8.57135e-06
-1.04685e-05
-1.29579e-05
6.39214e-06
1.94705e-06
4.13807e-05
3.75931e-06
4.14518e-05
5.42979e-06
3.94986e-05
7.0414e-06
3.7578e-05
8.63896e-06
3.5648e-05
1.02145e-05
3.36315e-05
1.17028e-05
3.14515e-05
1.30099e-05
2.90693e-05
1.40771e-05
2.65154e-05
1.49114e-05
2.3868e-05
1.5572e-05
2.1207e-05
1.61564e-05
1.85846e-05
1.67798e-05
1.59961e-05
1.74709e-05
1.33312e-05
1.80293e-05
1.03915e-05
1.80691e-05
7.07753e-06
1.74339e-05
3.64478e-06
1.63683e-05
5.23376e-07
1.52615e-05
-2.09641e-06
1.42467e-05
-4.40762e-06
1.31152e-05
-6.70002e-06
1.16315e-05
-8.98473e-06
-1.10275e-05
9.70117e-06
1.79997e-06
3.9581e-05
3.67366e-06
3.95779e-05
5.46925e-06
3.77031e-05
7.20133e-06
3.58462e-05
8.88654e-06
3.39628e-05
1.05195e-05
3.19988e-05
1.20632e-05
2.9908e-05
1.3464e-05
2.76685e-05
1.46829e-05
2.52965e-05
1.57154e-05
2.28356e-05
1.65891e-05
2.03334e-05
1.73529e-05
1.78208e-05
1.8055e-05
1.52941e-05
1.86882e-05
1.2698e-05
1.91323e-05
9.94731e-06
1.91921e-05
7.01783e-06
1.8787e-05
4.04991e-06
1.80449e-05
1.26554e-06
1.71718e-05
-1.22325e-06
1.62474e-05
-3.48315e-06
1.51762e-05
-5.62873e-06
1.38304e-05
-7.63893e-06
-9.34101e-06
1.2144e-05
1.68391e-06
3.78972e-05
3.54102e-06
3.77205e-05
5.37501e-06
3.58697e-05
7.14533e-06
3.40761e-05
8.85012e-06
3.22579e-05
1.04876e-05
3.03615e-05
1.20392e-05
2.83565e-05
1.34747e-05
2.62331e-05
1.47679e-05
2.40035e-05
1.59086e-05
2.16951e-05
1.69045e-05
1.93377e-05
1.77741e-05
1.69514e-05
1.85313e-05
1.4537e-05
1.91585e-05
1.20709e-05
1.95842e-05
9.52154e-06
1.97092e-05
6.89275e-06
1.94937e-05
4.26532e-06
1.90015e-05
1.7578e-06
1.83374e-05
-5.59221e-07
1.75484e-05
-2.69408e-06
1.65943e-05
-4.67472e-06
1.54137e-05
-6.45835e-06
-7.91772e-06
1.39904e-05
1.64752e-06
3.62495e-05
3.47377e-06
3.58944e-05
5.30091e-06
3.40431e-05
7.05163e-06
3.23255e-05
8.72149e-06
3.05884e-05
1.03186e-05
2.87647e-05
1.18388e-05
2.68363e-05
1.32661e-05
2.4806e-05
1.45811e-05
2.26887e-05
1.57708e-05
2.05057e-05
1.68305e-05
1.82782e-05
1.77609e-05
1.60211e-05
1.85594e-05
1.37386e-05
1.92065e-05
1.14239e-05
1.96589e-05
9.06914e-06
1.98647e-05
6.68697e-06
1.98034e-05
4.32657e-06
1.95058e-05
2.0555e-06
1.90243e-05
-7.77252e-08
1.83866e-05
-2.05639e-06
1.758e-05
-3.86811e-06
1.65832e-05
-5.46153e-06
-6.74098e-06
1.54064e-05
1.69855e-06
3.45509e-05
3.52829e-06
3.40653e-05
5.33544e-06
3.22364e-05
7.02658e-06
3.06344e-05
8.6182e-06
2.89975e-05
1.01399e-05
2.72436e-05
1.16004e-05
2.5376e-05
1.29907e-05
2.34157e-05
1.42943e-05
2.13852e-05
1.54951e-05
1.93049e-05
1.65813e-05
1.71921e-05
1.75436e-05
1.5059e-05
1.83713e-05
1.2911e-05
1.90464e-05
1.0749e-05
1.95408e-05
8.57487e-06
1.98256e-05
6.40231e-06
1.98891e-05
4.26315e-06
1.97453e-05
2.19933e-06
1.94206e-05
2.47003e-07
1.8932e-05
-1.56778e-06
1.828e-05
-3.21617e-06
1.7465e-05
-4.64654e-06
-5.78481e-06
1.65088e-05
1.79805e-06
3.2753e-05
3.69929e-06
3.21649e-05
5.49349e-06
3.04422e-05
7.09665e-06
2.90313e-05
8.57942e-06
2.75155e-05
1.00065e-05
2.58169e-05
1.13951e-05
2.39876e-05
1.27361e-05
2.20748e-05
1.40114e-05
2.01098e-05
1.5202e-05
1.81142e-05
1.62913e-05
1.61027e-05
1.72655e-05
1.40848e-05
1.81107e-05
1.2066e-05
1.88103e-05
1.00493e-05
1.93453e-05
8.03997e-06
1.96977e-05
6.04982e-06
1.986e-05
4.10078e-06
1.98381e-05
2.22122e-06
1.96452e-05
4.39772e-07
1.92929e-05
-1.21554e-06
1.87878e-05
-2.71113e-06
1.81404e-05
-3.99917e-06
-5.02084e-06
1.73765e-05
1.91256e-06
3.08407e-05
3.89897e-06
3.01793e-05
5.70312e-06
2.86376e-05
7.19329e-06
2.75413e-05
8.56606e-06
2.6143e-05
9.91024e-06
2.44729e-05
1.1239e-05
2.2659e-05
1.2537e-05
2.07769e-05
1.37822e-05
1.88647e-05
1.49534e-05
1.6943e-05
1.60326e-05
1.50234e-05
1.70044e-05
1.3113e-05
1.78548e-05
1.12155e-05
1.85698e-05
9.33435e-06
1.91352e-05
7.47443e-06
1.95395e-05
5.64546e-06
1.97769e-05
3.86324e-06
1.98496e-05
2.14846e-06
1.97647e-05
5.24621e-07
1.95307e-05
-9.81539e-07
1.91567e-05
-2.33711e-06
1.86572e-05
-3.49959e-06
-4.42144e-06
1.80578e-05
2.02943e-06
2.88118e-05
3.92672e-06
2.82824e-05
5.67776e-06
2.68862e-05
7.14297e-06
2.60763e-05
8.47942e-06
2.48066e-05
9.80345e-06
2.31488e-05
1.11147e-05
2.13479e-05
1.23935e-05
1.94983e-05
1.36181e-05
1.76402e-05
1.47693e-05
1.57919e-05
1.5831e-05
1.39619e-05
1.67898e-05
1.21543e-05
1.76339e-05
1.03716e-05
1.83522e-05
8.61605e-06
1.89348e-05
6.8919e-06
1.93735e-05
5.20671e-06
1.96644e-05
3.57239e-06
1.9808e-05
2.00494e-06
1.98086e-05
5.24075e-07
1.96732e-05
-8.45976e-07
1.94113e-05
-2.07517e-06
1.90384e-05
-3.12657e-06
-3.96127e-06
1.85783e-05
1.93774e-06
2.68749e-05
3.70367e-06
2.65166e-05
5.32784e-06
2.52621e-05
6.84254e-06
2.45619e-05
8.27113e-06
2.33779e-05
9.66183e-06
2.1758e-05
1.10072e-05
2.00026e-05
1.22943e-05
1.82114e-05
1.35098e-05
1.64249e-05
1.46421e-05
1.46598e-05
1.5681e-05
1.29232e-05
1.66178e-05
1.12177e-05
1.74447e-05
9.54484e-06
1.81544e-05
7.90655e-06
1.87403e-05
6.30621e-06
1.91972e-05
4.74994e-06
1.95225e-05
3.24721e-06
1.97166e-05
1.81102e-06
1.97826e-05
4.58212e-07
1.97264e-05
-7.89745e-07
1.95576e-05
-1.90628e-06
1.92906e-05
-2.8596e-06
-3.61762e-06
1.89468e-05
1.6587e-06
2.52167e-05
3.36231e-06
2.48128e-05
4.86089e-06
2.3764e-05
6.44852e-06
2.29745e-05
8.03164e-06
2.17948e-05
9.52598e-06
2.02637e-05
1.09257e-05
1.8603e-05
1.22298e-05
1.69073e-05
1.34375e-05
1.52172e-05
1.45473e-05
1.35502e-05
1.55568e-05
1.19138e-05
1.64632e-05
1.03114e-05
1.72632e-05
8.74499e-06
1.79534e-05
7.21654e-06
1.85303e-05
5.7294e-06
1.89915e-05
4.28897e-06
1.93355e-05
2.90328e-06
1.95632e-05
1.58347e-06
1.96772e-05
3.44197e-07
1.96831e-05
-7.95623e-07
1.95895e-05
-1.81275e-06
1.94098e-05
-2.67993e-06
-3.37045e-06
1.91626e-05
1.65441e-06
2.35623e-05
3.12366e-06
2.33432e-05
4.5963e-06
2.22917e-05
6.24836e-06
2.13225e-05
7.90929e-06
2.01338e-05
9.46006e-06
1.8713e-05
1.08844e-05
1.71786e-05
1.21864e-05
1.56053e-05
1.33729e-05
1.40306e-05
1.44498e-05
1.24732e-05
1.5421e-05
1.09426e-05
1.62886e-05
9.44386e-06
1.70535e-05
7.98014e-06
1.77155e-05
6.55453e-06
1.82742e-05
5.17083e-06
1.87289e-05
3.83439e-06
1.90796e-05
2.55262e-06
1.93277e-05
1.33549e-06
1.94759e-05
1.96037e-07
1.95293e-05
-8.48958e-07
1.94958e-05
-1.77921e-06
1.93871e-05
-2.57123e-06
-3.20261e-06
1.92194e-05
1.77256e-06
2.17893e-05
3.16158e-06
2.19539e-05
4.68279e-06
2.07705e-05
6.31576e-06
1.96893e-05
7.94347e-06
1.8506e-05
9.46938e-06
1.71871e-05
1.08655e-05
1.57824e-05
1.2132e-05
1.43388e-05
1.32763e-05
1.28862e-05
1.43068e-05
1.14427e-05
1.52304e-05
1.0019e-05
1.60523e-05
8.62192e-06
1.67763e-05
7.25619e-06
1.74046e-05
5.9262e-06
1.79388e-05
4.63667e-06
1.838e-05
3.39335e-06
1.87292e-05
2.20356e-06
1.89882e-05
1.07662e-06
1.916e-05
2.44043e-08
1.92493e-05
-9.38081e-07
1.92632e-05
-1.79301e-06
1.92122e-05
-2.51998e-06
-3.09996e-06
1.91097e-05
1.81402e-06
1.99748e-05
3.36801e-06
2.03998e-05
4.91206e-06
1.92261e-05
6.49094e-06
1.81102e-05
8.03549e-06
1.69613e-05
9.4846e-06
1.57378e-05
1.08129e-05
1.4454e-05
1.20167e-05
1.31348e-05
1.31013e-05
1.18015e-05
1.40743e-05
1.04696e-05
1.49435e-05
9.14977e-06
1.57156e-05
7.84985e-06
1.63957e-05
6.57608e-06
1.69878e-05
5.33412e-06
1.74948e-05
4.12981e-06
1.79187e-05
2.9696e-06
1.82614e-05
1.86102e-06
1.85251e-05
8.13103e-07
1.87128e-05
-1.63142e-07
1.88292e-05
-1.05417e-06
1.88805e-05
-1.84418e-06
1.8876e-05
-2.5152e-06
-3.05089e-06
1.8827e-05
1.83088e-06
1.81437e-05
3.50688e-06
1.87238e-05
5.08138e-06
1.76514e-05
6.60582e-06
1.65856e-05
8.06109e-06
1.5506e-05
9.41825e-06
1.43805e-05
1.06621e-05
1.321e-05
1.17897e-05
1.20071e-05
1.2805e-05
1.07862e-05
1.37149e-05
9.55969e-06
1.45269e-05
8.33777e-06
1.5248e-05
7.12873e-06
1.58842e-05
5.93987e-06
1.64402e-05
4.77811e-06
1.69197e-05
3.65043e-06
1.73252e-05
2.56416e-06
1.76591e-05
1.52726e-06
1.79237e-05
5.48623e-07
1.81221e-05
-3.61408e-07
1.82587e-05
-1.1906e-06
1.83394e-05
-1.92475e-06
1.83722e-05
-2.5479e-06
-3.04575e-06
1.83671e-05
1.79433e-06
1.63495e-05
3.52598e-06
1.69921e-05
5.10295e-06
1.60745e-05
6.57256e-06
1.51162e-05
7.94362e-06
1.41349e-05
9.21001e-06
1.31141e-05
1.03671e-05
1.20528e-05
1.14153e-05
1.09589e-05
1.23589e-05
9.84255e-06
1.32045e-05
8.71405e-06
1.39595e-05
7.58276e-06
1.4631e-05
6.45727e-06
1.5225e-05
5.34576e-06
1.57468e-05
4.25631e-06
1.62001e-05
3.1971e-06
1.65878e-05
2.17649e-06
1.69122e-05
1.20297e-06
1.71755e-05
2.85368e-07
1.73807e-05
-5.66638e-07
1.75322e-05
-1.34204e-06
1.76356e-05
-2.02805e-06
1.7698e-05
-2.61036e-06
-3.07621e-06
1.77285e-05
1.7155e-06
1.46341e-05
3.42723e-06
1.52805e-05
4.9665e-06
1.45355e-05
6.37033e-06
1.37125e-05
7.65848e-06
1.28468e-05
8.83729e-06
1.19353e-05
9.90974e-06
1.09804e-05
1.08796e-05
9.98904e-06
1.17525e-05
8.96974e-06
1.25351e-05
7.93145e-06
1.32348e-05
6.88305e-06
1.38586e-05
5.83338e-06
1.44129e-05
4.79142e-06
1.49027e-05
3.76643e-06
1.53318e-05
2.76794e-06
1.57027e-05
1.80549e-06
1.60174e-05
8.88271e-07
1.62778e-05
2.49795e-08
1.64868e-05
-7.75605e-07
1.66485e-05
-1.50376e-06
1.67685e-05
-2.14804e-06
1.68537e-05
-2.69555e-06
-3.13469e-06
1.69122e-05
1.60579e-06
1.30283e-05
3.23507e-06
1.36514e-05
4.69651e-06
1.30743e-05
6.01682e-06
1.23923e-05
7.21699e-06
1.16467e-05
8.30809e-06
1.08442e-05
9.29701e-06
9.99156e-06
1.01898e-05
9.09636e-06
1.09929e-05
8.16665e-06
1.17136e-05
7.2108e-06
1.23592e-05
6.23743e-06
1.29368e-05
5.25566e-06
1.34529e-05
4.27529e-06
1.39123e-05
3.3069e-06
1.43186e-05
2.36159e-06
1.46737e-05
1.45043e-06
1.49783e-05
5.83575e-07
1.5234e-05
-2.3066e-07
1.54433e-05
-9.84879e-07
1.56105e-05
-1.67093e-06
1.57413e-05
-2.27877e-06
1.58425e-05
-2.7967e-06
-3.21396e-06
1.59219e-05
1.4739e-06
1.15544e-05
2.97704e-06
1.21485e-05
4.32826e-06
1.17232e-05
5.54673e-06
1.11739e-05
6.65026e-06
1.05431e-05
7.65001e-06
9.84447e-06
8.55387e-06
9.08778e-06
9.36871e-06
8.28159e-06
1.01015e-05
7.43388e-06
1.07597e-05
6.55266e-06
1.13507e-05
5.6464e-06
1.18818e-05
4.72451e-06
1.23595e-05
3.79761e-06
1.27886e-05
2.87773e-06
1.31722e-05
1.97799e-06
1.3511e-05
1.11163e-06
1.38043e-05
2.90237e-07
1.40524e-05
-4.78681e-07
1.42577e-05
-1.19009e-06
1.44248e-05
-1.83796e-06
1.45599e-05
-2.41377e-06
1.46701e-05
-2.90678e-06
-3.30667e-06
1.47629e-05
1.32729e-06
1.02272e-05
2.67807e-06
1.0798e-05
3.89771e-06
1.05036e-05
5.00002e-06
1.00715e-05
5.99815e-06
9.545e-06
6.90122e-06
8.94144e-06
7.71644e-06
8.27262e-06
8.45055e-06
7.54753e-06
9.11046e-06
6.774e-06
9.70347e-06
5.95966e-06
1.02371e-05
5.11274e-06
1.07189e-05
4.24277e-06
1.11554e-05
3.36109e-06
1.15518e-05
2.48129e-06
1.19107e-05
1.6191e-06
1.22313e-05
7.91031e-07
1.25103e-05
1.12642e-08
1.2746e-05
-7.14377e-07
1.29411e-05
-1.38508e-06
1.3101e-05
-1.99781e-06
1.32329e-05
-2.54555e-06
1.33443e-05
-3.0181e-06
-3.40509e-06
1.34428e-05
1.17306e-06
9.05437e-06
2.36067e-06
9.61064e-06
3.43888e-06
9.42545e-06
4.41691e-06
9.09349e-06
5.30336e-06
8.65859e-06
6.10482e-06
8.14003e-06
6.82729e-06
7.55019e-06
7.47683e-06
6.89802e-06
8.05986e-06
6.19098e-06
8.58332e-06
5.4362e-06
9.05463e-06
4.64144e-06
9.48143e-06
3.81599e-06
9.87101e-06
2.97152e-06
1.02292e-05
2.12308e-06
1.05587e-05
1.28964e-06
1.08569e-05
4.9282e-07
1.1116e-05
-2.479e-07
1.13318e-05
-9.30174e-07
1.15078e-05
-1.561e-06
1.16514e-05
-2.1414e-06
1.17712e-05
-2.66533e-06
1.18755e-05
-3.12225e-06
-3.50107e-06
1.19716e-05
1.01951e-06
8.03509e-06
2.04676e-06
8.58344e-06
2.98419e-06
8.48801e-06
3.83648e-06
8.24124e-06
4.60872e-06
7.88641e-06
5.30574e-06
7.44307e-06
5.93245e-06
6.9235e-06
6.49406e-06
6.33642e-06
6.99616e-06
5.68887e-06
7.44493e-06
4.98742e-06
7.84733e-06
4.23905e-06
8.21111e-06
3.45221e-06
8.54449e-06
2.63815e-06
8.85494e-06
1.81263e-06
9.14637e-06
9.98187e-07
9.41492e-06
2.2423e-07
9.64529e-06
-4.78306e-07
9.82938e-06
-1.1143e-06
9.97383e-06
-1.70547e-06
1.00898e-05
-2.25736e-06
1.01878e-05
-2.76324e-06
1.02762e-05
-3.21057e-06
-3.58657e-06
1.03619e-05
8.78567e-07
7.15663e-06
1.76038e-06
7.70152e-06
2.56607e-06
7.6823e-06
3.29671e-06
7.51063e-06
3.95621e-06
7.22695e-06
4.54901e-06
6.85029e-06
5.07951e-06
6.39299e-06
5.55194e-06
5.86396e-06
5.97063e-06
5.27015e-06
6.3404e-06