/*--------------------------------*- C++ -*----------------------------------*\
| =========                 |                                                 |
| \\      /  F ield         | OpenFOAM: The Open Source CFD Toolbox           |
|  \\    /   O peration     | Version:  2.3.0                                 |
|   \\  /    A nd           | Web:      www.OpenFOAM.org                      |
|    \\/     M anipulation  |                                                 |
\*---------------------------------------------------------------------------*/
FoamFile
{
    version     2.0;
    format      ascii;
    class       volVectorField;
    location    "2.45";
    object      U;
}
// * * * * * * * * * * * * * * * * * * * * * * * * * * * * * * * * * * * * * //

dimensions      [0 1 -1 0 0 0 0];

internalField   nonuniform List<vector> 
2268
(
(-0.00460364 0.00161897 0)
(-0.00445003 0.000284905 0)
(-0.00468317 -0.000293411 0)
(-0.00402446 -0.000258567 0)
(-0.00406915 4.77589e-05 0)
(-0.0050464 0.00041313 0)
(-0.0070511 0.000781371 0)
(-0.0101027 0.00114548 0)
(-0.0141991 0.00149661 0)
(-0.0192771 0.00181061 0)
(-0.0251984 0.00206718 0)
(-0.031779 0.00225656 0)
(-0.0388173 0.00237793 0)
(-0.0460822 0.00241592 0)
(-0.0532406 0.00230533 0)
(-0.0596758 0.00191306 0)
(-0.0642265 0.00121248 0)
(-0.0670345 0.00135265 0)
(-0.0711099 0.00270024 0)
(-0.0732739 0.000251274 0)
(-0.0639464 -0.00553493 0)
(-0.0422733 -0.0105603 0)
(-0.0153852 -0.00890965 0)
(-0.00359807 0.00269697 0)
(-0.00277422 0.000325539 0)
(-0.00265486 -0.000337995 0)
(-0.00243642 -0.000182162 0)
(-0.00281096 0.000390322 0)
(-0.00393318 0.00109947 0)
(-0.00592125 0.00185218 0)
(-0.00884057 0.00262008 0)
(-0.012716 0.00336734 0)
(-0.0175012 0.00404098 0)
(-0.0230825 0.00459986 0)
(-0.0293123 0.00502389 0)
(-0.0360387 0.00530235 0)
(-0.0430853 0.00538375 0)
(-0.0501728 0.00512581 0)
(-0.0568415 0.00430675 0)
(-0.0623575 0.00290072 0)
(-0.0659404 0.00206786 0)
(-0.067122 0.00180672 0)
(-0.0637604 -0.00286452 0)
(-0.0534975 -0.0113532 0)
(-0.0361883 -0.0192042 0)
(-0.0153989 -0.0189249 0)
(-0.00182585 0.00376277 0)
(-0.00134463 0.000282077 0)
(-0.00114045 -0.000418775 0)
(-0.00110669 -7.93906e-05 0)
(-0.00158446 0.000756536 0)
(-0.00269388 0.00178891 0)
(-0.0045645 0.00291001 0)
(-0.00728744 0.004072 0)
(-0.0109069 0.00521186 0)
(-0.015393 0.0062476 0)
(-0.0206552 0.00711975 0)
(-0.0265799 0.00780297 0)
(-0.0330599 0.00828308 0)
(-0.039973 0.00848098 0)
(-0.0471061 0.00819311 0)
(-0.0541039 0.00712111 0)
(-0.0604028 0.00515201 0)
(-0.0647345 0.00305849 0)
(-0.0651224 0.000574393 0)
(-0.0601219 -0.00645535 0)
(-0.0488578 -0.017499 0)
(-0.0311677 -0.0279532 0)
(-0.0108984 -0.0287801 0)
(-0.000281829 0.0041749 0)
(2.49921e-06 0.000204524 0)
(0.000238867 -0.000475813 0)
(0.000215763 3.99898e-05 0)
(-0.000260976 0.00112161 0)
(-0.00129692 0.0024619 0)
(-0.00303053 0.00394517 0)
(-0.00557646 0.00550512 0)
(-0.00899933 0.00704915 0)
(-0.0132856 0.00846513 0)
(-0.0183649 0.00967708 0)
(-0.024153 0.010658 0)
(-0.0305837 0.0113944 0)
(-0.0375855 0.0117828 0)
(-0.0450006 0.0115601 0)
(-0.0525266 0.0103398 0)
(-0.0596367 0.0078521 0)
(-0.0649539 0.00436558 0)
(-0.06599 -0.000639872 0)
(-0.0610647 -0.010417 0)
(-0.0488997 -0.0248203 0)
(-0.0285019 -0.0382605 0)
(-0.00533592 -0.0365271 0)
(0.000847926 0.00395022 0)
(0.00122277 6.533e-05 0)
(0.0015292 -0.000533994 0)
(0.00154103 0.000152794 0)
(0.00112898 0.00146068 0)
(0.000198344 0.0030895 0)
(-0.00139932 0.00492441 0)
(-0.00380327 0.00688308 0)
(-0.00710047 0.00884098 0)
(-0.0112938 0.0106544 0)
(-0.0163313 0.0122335 0)
(-0.0221558 0.0135541 0)
(-0.0287412 0.0146092 0)
(-0.0360657 0.015273 0)
(-0.0440208 0.0152226 0)
(-0.0523396 0.0139728 0)
(-0.0604978 0.0110526 0)
(-0.0671859 0.00622905 0)
(-0.0699267 -0.00135678 0)
(-0.0665199 -0.0143972 0)
(-0.0544027 -0.0332403 0)
(-0.0312677 -0.0505369 0)
(-0.0031869 -0.0413645 0)
(0.00164233 0.00326085 0)
(0.0022662 -0.00018585 0)
(0.00269745 -0.000627857 0)
(0.00280516 0.000229365 0)
(0.00249484 0.00175045 0)
(0.00168018 0.0036552 0)
(0.000200405 0.00583864 0)
(-0.00211131 0.00820485 0)
(-0.00536654 0.0105948 0)
(-0.00958454 0.0128315 0)
(-0.014731 0.0148139 0)
(-0.0207755 0.0165261 0)
(-0.0277315 0.0179736 0)
(-0.0356263 0.0190107 0)
(-0.0443977 0.0192523 0)
(-0.0538178 0.0181082 0)
(-0.0633848 0.0148933 0)
(-0.0719045 0.00893048 0)
(-0.0771334 -0.00104281 0)
(-0.0765749 -0.0176346 0)
(-0.0666341 -0.0417822 0)
(-0.0434997 -0.0649316 0)
(-0.0121663 -0.0495683 0)
(0.00219938 0.00223982 0)
(0.00308403 -0.000572766 0)
(0.00366332 -0.000783827 0)
(0.00388992 0.000251481 0)
(0.00368819 0.00198407 0)
(0.00297379 0.00416564 0)
(0.00157077 0.00671025 0)
(-0.000718093 0.0095102 0)
(-0.00403117 0.0123686 0)
(-0.00840464 0.0150731 0)
(-0.0138232 0.0175139 0)
(-0.020283 0.0196881 0)
(-0.0278354 0.0216197 0)
(-0.0365532 0.0231449 0)
(-0.0464185 0.0238161 0)
(-0.0572539 0.0229395 0)
(-0.068618 0.0196232 0)
(-0.0794658 0.0128054 0)
(-0.0878964 0.000840597 0)
(-0.0915176 -0.019076 0)
(-0.086432 -0.048477 0)
(-0.0692569 -0.0801976 0)
(-0.0480857 -0.0761002 0)
(0.00256727 0.00101889 0)
(0.00361062 -0.00108674 0)
(0.0043148 -0.00100384 0)
(0.00464682 0.000228235 0)
(0.00452864 0.00218841 0)
(0.00386835 0.00466923 0)
(0.00247412 0.00761297 0)
(0.000118301 0.0109013 0)
(-0.00336549 0.0142963 0)
(-0.00803422 0.0175491 0)
(-0.0138942 0.0205411 0)
(-0.0209675 0.0232819 0)
(-0.0293354 0.0258175 0)
(-0.0391046 0.0279659 0)
(-0.0502952 0.0292259 0)
(-0.0627958 0.0288121 0)
(-0.0762637 0.0256418 0)
(-0.0898356 0.0183336 0)
(-0.102016 0.00494012 0)
(-0.110787 -0.0174587 0)
(-0.112809 -0.0504443 0)
(-0.110566 -0.0909294 0)
(-0.121272 -0.112405 0)
(-0.0205148 0.00744118 0)
(-0.0274102 0.000490624 0)
(-0.0104551 -0.00775732 0)
(0.0155284 -0.010333 0)
(0.0454929 -0.0111451 0)
(0.0766309 -0.0113807 0)
(0.103633 -0.00951062 0)
(0.118629 -0.000989999 0)
(0.0984721 0.0134357 0)
(0.0427613 0.0141412 0)
(0.00749922 0.00503619 0)
(0.00664928 0.00202781 0)
(-0.013132 0.0134548 0)
(-0.0749615 0.0168413 0)
(-0.125341 0.0077954 0)
(-0.134091 -0.00414515 0)
(-0.102844 -0.0166238 0)
(-0.0537454 -0.0193483 0)
(-0.011081 -0.00731202 0)
(-0.0254107 0.0144824 0)
(-0.0186595 -0.00328912 0)
(-0.00557521 -0.0130188 0)
(0.0109411 -0.0175769 0)
(0.0324338 -0.0195022 0)
(0.055172 -0.0188417 0)
(0.0723494 -0.012755 0)
(0.0765951 0.00231823 0)
(0.0684623 0.0257386 0)
(0.0319782 0.0270632 0)
(0.00160831 0.0116492 0)
(-0.0076812 0.00763254 0)
(-0.0256377 0.0260651 0)
(-0.0657711 0.0328747 0)
(-0.0945094 0.0188762 0)
(-0.099021 -0.00240891 0)
(-0.0838438 -0.0251577 0)
(-0.0556926 -0.0321161 0)
(-0.0237862 -0.0194602 0)
(-0.0211764 0.0214563 0)
(-0.0134187 -0.00684367 0)
(-0.00497862 -0.0172802 0)
(0.00582063 -0.0235397 0)
(0.0217134 -0.0267067 0)
(0.0387076 -0.0251814 0)
(0.0498795 -0.0150872 0)
(0.0473053 0.00468936 0)
(0.0372656 0.0320545 0)
(0.017156 0.0367859 0)
(-0.00385742 0.0189079 0)
(-0.0153541 0.0132941 0)
(-0.0267684 0.0340093 0)
(-0.0446706 0.0407284 0)
(-0.0594932 0.0247298 0)
(-0.0651225 -0.00264262 0)
(-0.059085 -0.0307236 0)
(-0.0468819 -0.0420117 0)
(-0.0256533 -0.0364845 0)
(-0.0151908 0.0273944 0)
(-0.0118014 -0.00873669 0)
(-0.00757537 -0.0201869 0)
(-0.000860176 -0.0283039 0)
(0.0108332 -0.0327247 0)
(0.0237266 -0.0302836 0)
(0.0311789 -0.0159387 0)
(0.0247045 0.00878316 0)
(0.0135416 0.0368466 0)
(0.00293267 0.04302 0)
(-0.0091599 0.024868 0)
(-0.0184439 0.0176725 0)
(-0.0231302 0.0375054 0)
(-0.0269692 0.0439136 0)
(-0.0315559 0.0282489 0)
(-0.0339145 -0.00229939 0)
(-0.0330378 -0.0323025 0)
(-0.0320604 -0.0469034 0)
(-0.0210542 -0.0506188 0)
(-0.0109086 0.0318826 0)
(-0.0140786 -0.0085066 0)
(-0.0128491 -0.021587 0)
(-0.00911222 -0.0316417 0)
(-0.000591067 -0.037359 0)
(0.00949623 -0.0341703 0)
(0.0149499 -0.0156508 0)
(0.00654953 0.0136215 0)
(-0.00474277 0.0403727 0)
(-0.00924023 0.0460329 0)
(-0.0135592 0.0283005 0)
(-0.0182915 0.0201915 0)
(-0.0172333 0.0370843 0)
(-0.0114851 0.0433664 0)
(-0.00744814 0.0287619 0)
(-0.00613468 -0.00209928 0)
(-0.00821877 -0.0310249 0)
(-0.0144136 -0.0472776 0)
(-0.0127017 -0.059978 0)
(-0.0102921 0.0369578 0)
(-0.0207387 -0.00609142 0)
(-0.0206059 -0.0218552 0)
(-0.0186544 -0.0338371 0)
(-0.0124945 -0.0408514 0)
(-0.00431359 -0.0373366 0)
(0.000713849 -0.0149056 0)
(-0.00758965 0.0185705 0)
(-0.0178039 0.0426896 0)
(-0.0174924 0.0462926 0)
(-0.015082 0.02889 0)
(-0.014901 0.0206298 0)
(-0.00916784 0.033583 0)
(0.003136 0.0396004 0)
(0.0140868 0.0263525 0)
(0.0182131 -0.00190185 0)
(0.0143423 -0.0282545 0)
(0.00391626 -0.0445686 0)
(-0.0017092 -0.0633759 0)
(-0.0165102 0.0474988 0)
(-0.0321071 -0.00210399 0)
(-0.030668 -0.0217545 0)
(-0.0291118 -0.0353509 0)
(-0.0246226 -0.0435059 0)
(-0.0180049 -0.04024 0)
(-0.0121801 -0.0145693 0)
(-0.0180838 0.0228683 0)
(-0.0255503 0.0437569 0)
(-0.0209931 0.0441783 0)
(-0.012972 0.0271275 0)
(-0.00777165 0.0189991 0)
(0.00150031 0.0283324 0)
(0.0176178 0.0334535 0)
(0.0328643 0.0218596 0)
(0.0392193 -0.00176092 0)
(0.0345696 -0.0247373 0)
(0.0214953 -0.03978 0)
(0.0104589 -0.0596539 0)
(-0.0440334 0.0637416 0)
(-0.0472333 -2.06249e-05 0)
(-0.0428123 -0.0224448 0)
(-0.0400823 -0.0367346 0)
(-0.036726 -0.0455155 0)
(-0.031834 -0.0429211 0)
(-0.0250908 -0.0155643 0)
(-0.0259052 0.0257362 0)
(-0.0282398 0.0433811 0)
(-0.0194828 0.0403697 0)
(-0.00715151 0.0233371 0)
(0.00275994 0.0154265 0)
(0.0148496 0.0221691 0)
(0.0326273 0.0261253 0)
(0.0499499 0.0164555 0)
(0.0578437 -0.00184227 0)
(0.0528001 -0.0204695 0)
(0.0371984 -0.0325074 0)
(0.0216102 -0.0499365 0)
(0.00279063 -0.00155949 0)
(0.00380606 -0.00215057 0)
(0.00468664 -0.00148128 0)
(0.00515746 0.000122637 0)
(0.00512127 0.00249355 0)
(0.00446192 0.00550052 0)
(0.00297412 0.00914501 0)
(0.000394543 0.0132989 0)
(-0.0034882 0.0176649 0)
(-0.00877687 0.0219371 0)
(-0.0155195 0.0259787 0)
(-0.0237709 0.0298096 0)
(-0.0336346 0.0335093 0)
(-0.0452284 0.0368683 0)
(-0.0586133 0.0393365 0)
(-0.0738162 0.0400383 0)
(-0.0907118 0.0376138 0)
(-0.108746 0.0302609 0)
(-0.127004 0.015756 0)
(-0.143964 -0.00875869 0)
(-0.157816 -0.0438503 0)
(-0.177532 -0.083931 0)
(-0.220264 -0.0991547 0)
(0.00204154 -0.0040949 0)
(0.00226728 -0.00397272 0)
(0.00312266 -0.00260185 0)
(0.00373737 -0.000486392 0)
(0.00376967 0.00237447 0)
(0.00296824 0.00597066 0)
(0.00120018 0.0103978 0)
(-0.00173436 0.0155372 0)
(-0.0061437 0.0210246 0)
(-0.012301 0.026479 0)
(-0.0203447 0.031802 0)
(-0.0302953 0.0370274 0)
(-0.0421251 0.042305 0)
(-0.0556944 0.0474136 0)
(-0.0709494 0.0518085 0)
(-0.0882823 0.054707 0)
(-0.108197 0.0546784 0)
(-0.130483 0.0496045 0)
(-0.154373 0.0370242 0)
(-0.177628 0.0130056 0)
(-0.196814 -0.0236419 0)
(-0.211785 -0.063753 0)
(-0.219756 -0.0849773 0)
(-0.00572058 -0.00711144 0)
(-0.00454679 -0.00490725 0)
(-0.00304793 -0.00294919 0)
(-0.00173248 -0.000465945 0)
(-0.00158075 0.00292775 0)
(-0.00341341 0.00711573 0)
(-0.00665564 0.0123775 0)
(-0.010539 0.0187014 0)
(-0.0155958 0.0256044 0)
(-0.023228 0.0323622 0)
(-0.0337862 0.0392139 0)
(-0.0466035 0.0459759 0)
(-0.0611984 0.0529393 0)
(-0.0762242 0.0597696 0)
(-0.090385 0.0658575 0)
(-0.104701 0.0708746 0)
(-0.122316 0.0728761 0)
(-0.14453 0.0683175 0)
(-0.169595 0.0549702 0)
(-0.192347 0.0276326 0)
(-0.207706 -0.013951 0)
(-0.215942 -0.0577352 0)
(-0.214583 -0.0834603 0)
(-0.043641 0.0166269 0)
(-0.0319748 -0.00875239 0)
(-0.0237615 -0.00471323 0)
(-0.0186096 -0.0026068 0)
(-0.015599 0.00327552 0)
(-0.0227685 0.0116638 0)
(-0.0367533 0.0191225 0)
(-0.0465307 0.0242051 0)
(-0.0508658 0.0334985 0)
(-0.0629846 0.0440719 0)
(-0.0836551 0.0557219 0)
(-0.104733 0.0643831 0)
(-0.123094 0.0738956 0)
(-0.134937 0.0817303 0)
(-0.136703 0.0813388 0)
(-0.123874 0.0842545 0)
(-0.115304 0.0934973 0)
(-0.12935 0.0876943 0)
(-0.154846 0.0730883 0)
(-0.175291 0.0410029 0)
(-0.189216 -0.0073034 0)
(-0.204016 -0.0595091 0)
(-0.211716 -0.0939845 0)
(-0.0738791 0.0597404 0)
(-0.0836445 -0.0202907 0)
(-0.10522 -0.014659 0)
(-0.116103 -0.00839441 0)
(-0.121729 0.00955753 0)
(-0.138461 0.0399152 0)
(-0.164621 0.0394256 0)
(-0.176464 0.0332643 0)
(-0.190824 0.0511496 0)
(-0.215595 0.0800458 0)
(-0.261272 0.107297 0)
(-0.300669 0.101343 0)
(-0.31166 0.0918754 0)
(-0.296485 0.0783271 0)
(-0.264403 0.0540464 0)
(-0.232626 0.0560202 0)
(-0.189724 0.0909491 0)
(-0.143593 0.11561 0)
(-0.124918 0.129917 0)
(-0.133009 0.0771513 0)
(-0.149399 0.013641 0)
(-0.175024 -0.0439497 0)
(-0.203685 -0.0914428 0)
(0.00651072 0.138623 0)
(-0.0465803 0.0330887 0)
(-0.133153 0.0232278 0)
(-0.16542 0.00531031 0)
(-0.179012 0.0156088 0)
(-0.188226 0.0494749 0)
(-0.206353 0.0618108 0)
(-0.234688 0.0498916 0)
(-0.262676 0.0669495 0)
(-0.293064 0.107168 0)
(-0.340013 0.138127 0)
(-0.349325 0.100367 0)
(-0.34535 0.0752556 0)
(-0.339349 0.0563997 0)
(-0.328203 0.0276613 0)
(-0.31101 0.0123681 0)
(-0.281536 0.0250799 0)
(-0.240579 0.0582397 0)
(-0.194925 0.0947014 0)
(-0.163074 0.082006 0)
(-0.177191 0.0577722 0)
(-0.220194 0.0139752 0)
(-0.253647 -0.0548813 0)
(0.00092032 0.14595 0)
(-0.0450534 0.122369 0)
(-0.110913 0.0977095 0)
(-0.161392 0.0406379 0)
(-0.198643 0.0310372 0)
(-0.220803 0.0607795 0)
(-0.244869 0.0903523 0)
(-0.283012 0.0862654 0)
(-0.316029 0.0923408 0)
(-0.331855 0.139284 0)
(-0.33181 0.165895 0)
(-0.325235 0.104358 0)
(-0.328319 0.072342 0)
(-0.341056 0.0529741 0)
(-0.352997 0.0210527 0)
(-0.355227 -0.00177841 0)
(-0.347055 -0.00283144 0)
(-0.323901 0.0116309 0)
(-0.271236 0.0226808 0)
(-0.215672 0.0425062 0)
(-0.198818 0.0709158 0)
(-0.215225 0.0420385 0)
(-0.21753 -0.0703845 0)
(-0.0227952 0.166273 0)
(-0.05243 0.171001 0)
(-0.087479 0.143644 0)
(-0.1306 0.100333 0)
(-0.18651 0.0767037 0)
(-0.238704 0.0962687 0)
(-0.27912 0.128765 0)
(-0.304226 0.12425 0)
(-0.307496 0.114796 0)
(-0.295507 0.131005 0)
(-0.271947 0.148571 0)
(-0.261773 0.104073 0)
(-0.282419 0.0803003 0)
(-0.310254 0.0751125 0)
(-0.343071 0.0362941 0)
(-0.359133 -0.000418892 0)
(-0.359682 -0.0166405 0)
(-0.340541 -0.0241778 0)
(-0.304329 -0.0249955 0)
(-0.264002 -0.00316001 0)
(-0.217676 0.0361096 0)
(-0.185562 0.0266464 0)
(-0.17791 -0.0778613 0)
(-0.0236563 0.201703 0)
(-0.046846 0.194713 0)
(-0.0721363 0.172373 0)
(-0.108311 0.147255 0)
(-0.156765 0.137632 0)
(-0.205987 0.149282 0)
(-0.244273 0.158205 0)
(-0.257786 0.12688 0)
(-0.259092 0.10486 0)
(-0.250843 0.106535 0)
(-0.228912 0.116067 0)
(-0.206764 0.110254 0)
(-0.208952 0.11419 0)
(-0.228095 0.116766 0)
(-0.258966 0.0830646 0)
(-0.301658 0.0189404 0)
(-0.325119 -0.0137632 0)
(-0.312551 -0.0370714 0)
(-0.293259 -0.0461955 0)
(-0.266353 -0.0302935 0)
(-0.231201 -0.00430516 0)
(-0.185247 0.0110378 0)
(-0.138334 -0.0978415 0)
(-0.018191 0.233856 0)
(-0.0361689 0.216783 0)
(-0.0560943 0.198291 0)
(-0.0833678 0.183224 0)
(-0.117268 0.179135 0)
(-0.149214 0.184779 0)
(-0.173629 0.179949 0)
(-0.191504 0.135727 0)
(-0.202289 0.105234 0)
(-0.204815 0.0960168 0)
(-0.194585 0.0949724 0)
(-0.179565 0.095712 0)
(-0.167788 0.110296 0)
(-0.167038 0.12797 0)
(-0.180605 0.112057 0)
(-0.201659 0.0598032 0)
(-0.216699 -0.00145285 0)
(-0.24131 -0.0511399 0)
(-0.25703 -0.0641553 0)
(-0.251601 -0.0515328 0)
(-0.225213 -0.0357286 0)
(-0.170392 -0.0445025 0)
(-0.124251 -0.112078 0)
(-0.0107866 0.255207 0)
(-0.0227017 0.234858 0)
(-0.0370371 0.218481 0)
(-0.0547969 0.207936 0)
(-0.0743246 0.204826 0)
(-0.0900764 0.205094 0)
(-0.0993369 0.193513 0)
(-0.113478 0.153299 0)
(-0.134867 0.117537 0)
(-0.149057 0.10036 0)
(-0.152191 0.0896658 0)
(-0.148854 0.0871495 0)
(-0.140304 0.0998269 0)
(-0.130777 0.121309 0)
(-0.12538 0.117024 0)
(-0.12372 0.0673312 0)
(-0.121308 0.0113463 0)
(-0.121234 -0.0341423 0)
(-0.124624 -0.0625199 0)
(-0.135608 -0.0753336 0)
(-0.137143 -0.0870064 0)
(-0.121075 -0.100285 0)
(-0.112202 -0.136704 0)
(-0.00344856 0.26554 0)
(-0.00916959 0.246187 0)
(-0.0176721 0.231075 0)
(-0.0270306 0.221547 0)
(-0.035767 0.216722 0)
(-0.0407103 0.212318 0)
(-0.0419484 0.19933 0)
(-0.0469962 0.170618 0)
(-0.0607216 0.137981 0)
(-0.0773915 0.112445 0)
(-0.0922397 0.0944503 0)
(-0.100941 0.0864417 0)
(-0.101953 0.09321 0)
(-0.0927762 0.110213 0)
(-0.0773328 0.106655 0)
(-0.0646952 0.0577379 0)
(-0.0576559 0.00562477 0)
(-0.0546495 -0.0308972 0)
(-0.0551333 -0.0484882 0)
(-0.0621811 -0.0539987 0)
(-0.0705499 -0.0719504 0)
(-0.0733666 -0.0984759 0)
(-0.0792892 -0.125683 0)
(0.00232129 0.266455 0)
(0.0021066 0.251043 0)
(-0.00102061 0.23674 0)
(-0.00386772 0.226785 0)
(-0.00548985 0.21961 0)
(-0.00442403 0.211922 0)
(-0.00130379 0.19868 0)
(-0.000858746 0.176683 0)
(-0.0064528 0.151093 0)
(-0.0159255 0.127845 0)
(-0.02638 0.107929 0)
(-0.037303 0.0932185 0)
(-0.0442243 0.0913824 0)
(-0.0394206 0.0987671 0)
(-0.0233032 0.0911681 0)
(-0.0114671 0.0479904 0)
(-0.00766455 0.00178506 0)
(-0.00891167 -0.0311097 0)
(-0.0142057 -0.0444193 0)
(-0.0201308 -0.0449866 0)
(-0.026282 -0.0620543 0)
(-0.0333843 -0.0884791 0)
(-0.0437402 -0.113071 0)
(0.0057303 0.260187 0)
(0.00992344 0.250675 0)
(0.0113565 0.236963 0)
(0.0132154 0.226383 0)
(0.016063 0.217413 0)
(0.0205701 0.207753 0)
(0.0260466 0.194595 0)
(0.0298161 0.176343 0)
(0.029654 0.155384 0)
(0.0261649 0.135037 0)
(0.0209347 0.116893 0)
(0.0151303 0.102213 0)
(0.0116358 0.0936936 0)
(0.015273 0.0889709 0)
(0.0267821 0.0760469 0)
(0.035597 0.041626 0)
(0.0347739 0.00151186 0)
(0.0272895 -0.0269302 0)
(0.0175085 -0.0375346 0)
(0.0117673 -0.0407647 0)
(0.00785994 -0.0560721 0)
(0.000619153 -0.0788969 0)
(-0.0109434 -0.100464 0)
(0.00693693 0.250324 0)
(0.0142348 0.245934 0)
(0.0192492 0.233113 0)
(0.0244018 0.222228 0)
(0.030086 0.212217 0)
(0.0366423 0.201578 0)
(0.0435454 0.188702 0)
(0.0492824 0.17275 0)
(0.0524926 0.154837 0)
(0.0531775 0.136804 0)
(0.0521846 0.119948 0)
(0.0505443 0.105239 0)
(0.0502341 0.0934766 0)
(0.0539441 0.0826668 0)
(0.0617345 0.0665958 0)
(0.0675991 0.0394367 0)
(0.0655409 0.00764523 0)
(0.0564409 -0.0162977 0)
(0.0465707 -0.0284908 0)
(0.040401 -0.037078 0)
(0.0360564 -0.0510081 0)
(0.0290147 -0.0695201 0)
(0.017508 -0.0879437 0)
(0.00672907 0.239267 0)
(0.015838 0.238157 0)
(0.0233336 0.226387 0)
(0.0306888 0.215566 0)
(0.0381919 0.20511 0)
(0.0460099 0.194115 0)
(0.0538053 0.181649 0)
(0.0607239 0.167247 0)
(0.0659598 0.151412 0)
(0.0693589 0.135165 0)
(0.0713443 0.119388 0)
(0.0726538 0.104697 0)
(0.0744857 0.0912542 0)
(0.0781432 0.0777164 0)
(0.0833499 0.0609227 0)
(0.0866793 0.0385763 0)
(0.0845674 0.0140267 0)
(0.0774729 -0.00644122 0)
(0.069313 -0.0205956 0)
(0.0631147 -0.0319947 0)
(0.057957 -0.0452636 0)
(0.0510106 -0.0606008 0)
(0.0404435 -0.0756144 0)
(0.00592788 0.228385 0)
(0.015792 0.228701 0)
(0.0247267 0.217849 0)
(0.0334251 0.207312 0)
(0.0420317 0.196808 0)
(0.0506066 0.185819 0)
(0.0589449 0.173817 0)
(0.0665613 0.160533 0)
(0.0729779 0.146195 0)
(0.0780406 0.131351 0)
(0.0819473 0.116542 0)
(0.0851415 0.102132 0)
(0.0882692 0.088112 0)
(0.091888 0.0736915 0)
(0.0956409 0.0573637 0)
(0.0976568 0.0382762 0)
(0.0960436 0.0182411 0)
(0.0910538 0.000380821 0)
(0.084853 -0.013986 0)
(0.0792117 -0.0264095 0)
(0.0737808 -0.0391138 0)
(0.0669776 -0.0522609 0)
(0.0576277 -0.0643601 0)
(0.00508372 0.218283 0)
(0.0150392 0.218611 0)
(0.0246078 0.208355 0)
(0.033998 0.198165 0)
(0.0431723 0.187846 0)
(0.0521165 0.177079 0)
(0.0607118 0.165556 0)
(0.0686854 0.153125 0)
(0.075752 0.139897 0)
(0.0817814 0.12617 0)
(0.0868452 0.11226 0)
(0.091171 0.0983756 0)
(0.0950684 0.0844876 0)
(0.0987284 0.0701866 0)
(0.10184 0.0548016 0)
(0.103405 0.0380781 0)
(0.10247 0.0210053 0)
(0.0991673 0.005171 0)
(0.0946267 -0.00866795 0)
(0.0898172 -0.021105 0)
(0.0846411 -0.0330984 0)
(0.0782599 -0.0446033 0)
(0.0699702 -0.0545627 0)
(0.00451043 0.208979 0)
(0.0142896 0.208498 0)
(0.0239923 0.198491 0)
(0.0336179 0.188636 0)
(0.0429515 0.178628 0)
(0.051945 0.168198 0)
(0.0605455 0.157153 0)
(0.0686083 0.145411 0)
(0.0759614 0.133039 0)
(0.0824969 0.120212 0)
(0.0882125 0.107123 0)
(0.0931944 0.0938984 0)
(0.0975591 0.08053 0)
(0.101333 0.0668306 0)
(0.10428 0.0525326 0)
(0.105867 0.0376151 0)
(0.10562 0.0226339 0)
(0.103609 0.00842287 0)
(0.100398 -0.00455862 0)
(0.0964984 -0.016462 0)
(0.0919094 -0.0276013 0)
(0.0862193 -0.0377813 0)
(0.0790792 -0.0462155 0)
(0.00437639 0.200128 0)
(0.0139973 0.198585 0)
(0.023618 0.18859 0)
(0.0331903 0.179084 0)
(0.042372 0.169469 0)
(0.0511474 0.159429 0)
(0.0595358 0.148829 0)
(0.0674774 0.13765 0)
(0.0748641 0.125956 0)
(0.0816002 0.11387 0)
(0.0876385 0.101521 0)
(0.0929786 0.0889992 0)
(0.0976321 0.0763181 0)
(0.101555 0.0634109 0)
(0.104576 0.0501952 0)
(0.106399 0.0367293 0)
(0.106787 0.0233423 0)
(0.105769 0.0104957 0)
(0.103624 -0.00150673 0)
(0.100616 -0.0126184 0)
(0.096778 -0.022843 0)
(0.0919341 -0.0319132 0)
(0.0859639 -0.0392401 0)
(0.00469522 0.191223 0)
(0.0143409 0.188795 0)
(0.0238923 0.178797 0)
(0.0332471 0.169767 0)
(0.042038 0.160632 0)
(0.050382 0.150985 0)
(0.0583942 0.140765 0)
(0.0660687 0.130027 0)
(0.0733254 0.118866 0)
(0.0800678 0.107389 0)
(0.0862193 0.0956989 0)
(0.0917284 0.0838654 0)
(0.0965513 0.0719172 0)
(0.100618 0.0598458 0)
(0.103799 0.0476472 0)
(0.105922 0.0353976 0)
(0.106859 0.0233045 0)
(0.106618 0.0116437 0)
(0.105333 0.000635253 0)
(0.103144 -0.00959428 0)
(0.100095 -0.0189144 0)
(0.0961319 -0.0270399 0)
(0.0912594 -0.0335214 0)
(0.00523529 0.181886 0)
(0.0152075 0.178822 0)
(0.0248423 0.169106 0)
(0.0338997 0.160881 0)
(0.042122 0.152329 0)
(0.0499016 0.143027 0)
(0.0574611 0.133079 0)
(0.0648094 0.122656 0)
(0.0718596 0.111899 0)
(0.0785032 0.100921 0)
(0.0846425 0.089809 0)
(0.0901982 0.0786214 0)
(0.0951007 0.0673898 0)
(0.0992721 0.0561289 0)
(0.102614 0.0448628 0)
(0.105016 0.0336624 0)
(0.106401 0.0226669 0)
(0.106766 0.0120565 0)
(0.106175 0.00200194 0)
(0.104704 -0.00734582 0)
(0.102402 -0.0158094 0)
(0.0992744 -0.0231175 0)
(0.0953853 -0.0289171 0)
(0.00594615 0.171865 0)
(0.0161881 0.168344 0)
(0.0260008 0.159381 0)
(0.0347372 0.152555 0)
(0.0423391 0.144677 0)
(0.0495866 0.135597 0)
(0.0567651 0.125785 0)
(0.063841 0.115557 0)
(0.0706969 0.105105 0)
(0.0772096 0.0945439 0)
(0.083272 0.083946 0)
(0.0887956 0.073356 0)
(0.0937044 0.0628003 0)
(0.0979253 0.0522981 0)
(0.101381 0.0418784 0)
(0.103998 0.0315997 0)
(0.105724 0.0215605 0)
(0.106552 0.0118885 0)
(0.10651 0.00272197 0)
(0.105646 -0.00578913 0)
(0.104007 -0.0134618 0)
(0.101627 -0.0200516 0)
(0.0985926 -0.0252753 0)
(0.00676778 0.160909 0)
(0.016556 0.157641 0)
(0.0259871 0.149701 0)
(0.034517 0.144614 0)
(0.0419655 0.13747 0)
(0.0490695 0.128494 0)
(0.0561497 0.118726 0)
(0.0631276 0.108642 0)
(0.0698742 0.0984576 0)
(0.0762746 0.0882798 0)
(0.0822335 0.0781626 0)
(0.0876728 0.068135 0)
(0.0925264 0.058214 0)
(0.0967343 0.0484148 0)
(0.100239 0.0387625 0)
(0.10299 0.0293029 0)
(0.104953 0.0201088 0)
(0.106117 0.0112765 0)
(0.106498 0.00292131 0)
(0.106128 -0.0048188 0)
(0.105052 -0.0117729 0)
(0.103313 -0.017727 0)
(0.101008 -0.0224503 0)
(0.00652584 0.150033 0)
(0.0156514 0.147608 0)
(0.0243383 0.14057 0)
(0.0327038 0.13663 0)
(0.0406035 0.130101 0)
(0.0481672 0.12125 0)
(0.0555185 0.111609 0)
(0.0626014 0.101746 0)
(0.0693354 0.0918844 0)
(0.0756516 0.0821189 0)
(0.0814917 0.0724884 0)
(0.0868058 0.0630099 0)
(0.0915497 0.0536925 0)
(0.0956834 0.0445469 0)
(0.0991693 0.035593 0)
(0.101975 0.0268666 0)
(0.104077 0.0184239 0)
(0.10547 0.0103416 0)
(0.106163 0.00271726 0)
(0.106182 -0.00432603 0)
(0.105569 -0.0106356 0)
(0.104366 -0.0160271 0)
(0.10267 -0.0203103 0)
(0.00540411 0.140412 0)
(0.0139465 0.138269 0)
(0.0220226 0.132164 0)
(0.0303187 0.128306 0)
(0.0389171 0.121986 0)
(0.0472105 0.113464 0)
(0.0549886 0.104198 0)
(0.0622494 0.0947482 0)
(0.068994 0.0853385 0)
(0.0752175 0.0760609 0)
(0.0809098 0.066952 0)
(0.0860566 0.0580265 0)
(0.0906412 0.049292 0)
(0.0946456 0.0407582 0)
(0.0980513 0.0324423 0)
(0.100841 0.0243746 0)
(0.103003 0.0166009 0)
(0.104536 0.00918534 0)
(0.105449 0.00221206 0)
(0.105764 -0.00421052 0)
(0.10552 -0.00994861 0)
(0.104756 -0.014844 0)
(0.103565 -0.0187392 0)
(0.00555884 0.131737 0)
(0.0131418 0.129893 0)
(0.020598 0.124233 0)
(0.029029 0.119549 0)
(0.0380577 0.113155 0)
(0.0467441 0.105168 0)
(0.0547406 0.0965227 0)
(0.0620529 0.0876802 0)
(0.0687245 0.0788544 0)
(0.0747941 0.0701444 0)
(0.080288 0.0615959 0)
(0.0852218 0.0532304 0)
(0.0896033 0.0450612 0)
(0.0934341 0.0371014 0)
(0.0967117 0.0293695 0)
(0.0994325 0.0218936 0)
(0.101594 0.0147147 0)
(0.103199 0.00788881 0)
(0.104258 0.00149005 0)
(0.104792 -0.00438591 0)
(0.104839 -0.00962235 0)
(0.10443 -0.0140834 0)
(0.103651 -0.0176377 0)
(0.00635216 0.122569 0)
(0.0135351 0.122293 0)
(0.0209211 0.11622 0)
(0.0294433 0.110629 0)
(0.0383385 0.104185 0)
(0.0468709 0.0967804 0)
(0.054727 0.0888502 0)
(0.0618679 0.0807083 0)
(0.0683285 0.0725383 0)
(0.0741563 0.0644413 0)
(0.0793934 0.0564728 0)
(0.0840728 0.0486648 0)
(0.0882182 0.0410391 0)
(0.0918454 0.0336154 0)
(0.0949645 0.0264163 0)
(0.0975814 0.0194713 0)
(0.0997012 0.0128196 0)
(0.101331 0.00651254 0)
(0.102483 0.000616977 0)
(0.103177 -0.00478196 0)
(0.103448 -0.00958212 0)
(0.103325 -0.013666 0)
(0.10288 -0.0169229 0)
(0.00660151 0.112762 0)
(0.0142999 0.114409 0)
(0.0221614 0.107968 0)
(0.0305831 0.101923 0)
(0.0390639 0.0955771 0)
(0.0471524 0.0887093 0)
(0.0546217 0.0814622 0)
(0.0614154 0.0740157 0)
(0.0675485 0.0665062 0)
(0.0730608 0.0590245 0)
(0.077996 0.0516296 0)
(0.0823934 0.0443612 0)
(0.0862851 0.0372497 0)
(0.0896954 0.0303221 0)
(0.0926422 0.0236066 0)
(0.0951383 0.0171361 0)
(0.0971935 0.0109501 0)
(0.098818 0.0050979 0)
(0.100025 -0.000359192 0)
(0.100835 -0.00534455 0)
(0.10128 -0.00976799 0)
(0.101384 -0.0135268 0)
(0.101211 -0.0165264 0)
(0.00652457 0.102805 0)
(0.014795 0.105662 0)
(0.0231089 0.0995126 0)
(0.0314037 0.0935349 0)
(0.0394565 0.087476 0)
(0.0470386 0.0811277 0)
(0.0540305 0.0745104 0)
(0.0603939 0.067715 0)
(0.0661378 0.0608336 0)
(0.0712951 0.0539407 0)
(0.0759066 0.0470928 0)
(0.0800127 0.0403337 0)
(0.0836486 0.0337004 0)
(0.0868431 0.0272268 0)
(0.0896182 0.0209475 0)
(0.0919904 0.0148996 0)
(0.0939722 0.00912445 0)
(0.0955752 0.00367035 0)
(0.0968134 -0.00140524 0)
(0.0977065 -0.00603305 0)
(0.0982845 -0.0101325 0)
(0.0985703 -0.0136127 0)
(0.0986168 -0.0163917 0)
(0.00626582 0.0929588 0)
(0.0147783 0.0963587 0)
(0.0233018 0.0909522 0)
(0.0314197 0.085441 0)
(0.0390697 0.0798507 0)
(0.0461647 0.0740511 0)
(0.0526732 0.0680329 0)
(0.0585887 0.0618445 0)
(0.0639271 0.0555489 0)
(0.0687199 0.0492059 0)
(0.0730061 0.0428677 0)
(0.0768255 0.0365801 0)
(0.0802144 0.0303849 0)
(0.0832033 0.0243227 0)
(0.085816 0.0184342 0)
(0.08807 0.0127616 0)
(0.0899782 0.00734916 0)
(0.091552 0.00224456 0)
(0.0928051 -0.00249808 0)
(0.0937568 -0.00681609 0)
(0.0944357 -0.0106369 0)
(0.0948636 -0.0138793 0)
(0.0950854 -0.0164708 0)
(0.0059328 0.0834385 0)
(0.0142897 0.0869712 0)
(0.0227097 0.0824865 0)
(0.0305384 0.0776647 0)
(0.0377739 0.0726705 0)
(0.0443997 0.0674548 0)
(0.0504398 0.0620202 0)
(0.0559156 0.0564026 0)
(0.0608533 0.050651 0)
(0.0652869 0.0448159 0)
(0.0692554 0.0389462 0)
(0.0727985 0.0330889 0)
(0.0759526 0.0272902 0)
(0.0787488 0.0215968 0)
(0.0812108 0.0160563 0)
(0.0833553 0.0107166 0)
(0.0851931 0.00562537 0)
(0.0867334 0.000829855 0)
(0.0879886 -0.00361974 0)
(0.0889778 -0.00766728 0)
(0.0897286 -0.0112475 0)
(0.0902637 -0.0142872 0)
(0.0906215 -0.0167212 0)
(0.00555882 0.0744429 0)
(0.0134428 0.0778887 0)
(0.0214747 0.0743422 0)
(0.0288738 0.0702891 0)
(0.0356437 0.065946 0)
(0.0417922 0.0613273 0)
(0.0473689 0.0564588 0)
(0.0524115 0.0513786 0)
(0.0569544 0.0461309 0)
(0.0610344 0.0407617 0)
(0.0646914 0.0353183 0)
(0.0679653 0.0298488 0)
(0.0708929 0.0244041 0)
(0.0735053 0.0190373 0)
(0.0758253 0.0138038 0)
(0.0778667 0.00875863 0)
(0.079636 0.00395354 0)
(0.0811373 -0.000565192 0)
(0.0823807 -0.00475313 0)
(0.0833852 -0.00856155 0)
(0.084179 -0.0119324 0)
(0.0847869 -0.0147996 0)
(0.0852432 -0.0171032 0)
(0.00514263 0.0661119 0)
(0.0123495 0.0693949 0)
(0.0197787 0.0667196 0)
(0.0266189 0.0634176 0)
(0.0328563 0.0597183 0)
(0.0384986 0.0556799 0)
(0.0436004 0.0513491 0)
(0.0482048 0.0467699 0)
(0.0523494 0.0419857 0)
(0.0560728 0.0370405 0)
(0.0594156 0.0319805 0)
(0.0624179 0.0268559 0)
(0.0651175 0.0217217 0)
(0.0675456 0.0166388 0)
(0.0697242 0.0116719 0)
(0.0716629 0.00688551 0)
(0.0733601 0.00233748 0)
(0.0748115 -0.00192875 0)
(0.0760234 -0.00587816 0)
(0.0770161 -0.00947158 0)
(0.0778202 -0.0126588 0)
(0.0784641 -0.0153797 0)
(0.0789804 -0.0175777 0)
(0.00468384 0.058543 0)
(0.0111034 0.0616753 0)
(0.017796 0.0597649 0)
(0.023984 0.0571418 0)
(0.0296289 0.0540381 0)
(0.0347293 0.0505395 0)
(0.0393338 0.0467064 0)
(0.0434837 0.042587 0)
(0.0472161 0.0382243 0)
(0.0505691 0.0336607 0)
(0.053583 0.0289415 0)
(0.0562987 0.0241182 0)
(0.058755 0.0192503 0)
(0.060985 0.0144068 0)
(0.0630106 0.00966473 0)
(0.064837 0.00510256 0)
(0.0664499 0.000788022 0)
(0.0678307 -0.00324153 0)
(0.0689813 -0.00696749 0)
(0.0699258 -0.0103641 0)
(0.0707007 -0.0133895 0)
(0.0713394 -0.015988 0)
(0.0718749 -0.0181044 0)
(0.00418811 0.0517951 0)
(0.00978659 0.0548253 0)
(0.0156863 0.0535611 0)
(0.0211736 0.0515237 0)
(0.0261873 0.0489483 0)
(0.0307162 0.0459359 0)
(0.0348 0.0425532 0)
(0.0384747 0.0388493 0)
(0.0417744 0.0348656 0)
(0.0447348 0.0306422 0)
(0.0473948 0.0262228 0)
(0.0497952 0.0216585 0)
(0.0519773 0.0170123 0)
(0.0539781 0.0123617 0)
(0.055823 0.00779951 0)
(0.0575143 0.00342572 0)
(0.0590187 -0.000672926 0)
(0.0602938 -0.00447172 0)
(0.0613374 -0.00798179 0)
(0.0621845 -0.0111962 0)
(0.0628818 -0.0140807 0)
(0.0634693 -0.016581 0)
(0.0639804 -0.0186399 0)
(0.00367007 0.0458867 0)
(0.00848416 0.0488623 0)
(0.0136014 0.0481303 0)
(0.0183836 0.0465884 0)
(0.0227538 0.0444734 0)
(0.0266964 0.0418919 0)
(0.0302439 0.038911 0)
(0.0334267 0.0355785 0)
(0.0362743 0.0319334 0)
(0.038818 0.0280127 0)
(0.041093 0.0238567 0)
(0.043139 0.019514 0)
(0.0449995 0.0150478 0)
(0.0467192 0.0105426 0)
(0.0483333 0.00611019 0)
(0.049849 0.00188427 0)
(0.0512039 -0.00200815 0)
(0.0523168 -0.00556878 0)
(0.0531859 -0.00886453 0)
(0.0538707 -0.0119125 0)
(0.0544337 -0.0146813 0)
(0.0549212 -0.0171116 0)
(0.0553645 -0.0191399 0)
(0.0031639 0.0407833 0)
(0.00730033 0.0437359 0)
(0.0116965 0.0434442 0)