/*--------------------------------*- C++ -*----------------------------------*\
| =========                 |                                                 |
| \\      /  F ield         | OpenFOAM: The Open Source CFD Toolbox           |
|  \\    /   O peration     | Version:  2.3.0                                 |
|   \\  /    A nd           | Web:      www.OpenFOAM.org                      |
|    \\/     M anipulation  |                                                 |
\*---------------------------------------------------------------------------*/
FoamFile
{
    version     2.0;
    format      ascii;
    class       volScalarField;
    location    "13";
    object      p;
}
// * * * * * * * * * * * * * * * * * * * * * * * * * * * * * * * * * * * * * //

dimensions      [0 2 -2 0 0 0 0];

internalField   nonuniform List<scalar> 
1720
(
0.000679365
0.00067764
0.000404515
0.000231013
0.000221522
0.000287072
0.000337753
0.000344059
0.000318082
0.000279753
0.000238969
0.000195174
0.000143239
8.10475e-05
9.03634e-06
-6.87926e-05
-0.000153019
-0.000236245
-0.000314081
-0.000383811
-0.000440677
-0.000482745
-0.000510562
-0.000525744
-0.000534602
-0.000542235
-0.000561293
-0.000649382
-0.000927225
-0.00151135
-0.00205371
-0.00254212
-0.00292283
-0.00315362
-0.00323325
-0.00319974
-0.00312028
-0.00305437
-0.00304004
-0.00310228
-0.00326131
-0.00354157
-0.00394687
-0.00446969
-0.00511181
-0.00584175
-0.0066336
-0.00744203
-0.00821419
-0.00889487
-0.00943696
-0.00978877
-0.00991662
-0.00979416
-0.0093955
-0.008714
-0.00770136
-0.00634823
-0.00451483
-0.00220116
0.00213201
0.00187616
0.00107544
0.000688068
0.000719657
0.000893067
0.00100735
0.00101226
0.000941662
0.000839058
0.00072552
0.000597224
0.000443336
0.000256651
3.75218e-05
-0.000205064
-0.000462634
-0.000719277
-0.000960724
-0.0011741
-0.00134856
-0.00147599
-0.00155976
-0.00160706
-0.00163396
-0.00165388
-0.00168175
-0.00173013
-0.00175662
-0.00175575
-0.00170316
-0.00154464
-0.00127972
-0.000940303
-0.000557628
-0.000159502
0.000208199
0.000524597
0.000792702
0.000972825
0.00104245
0.00105886
0.00102539
0.000946988
0.000782556
0.000611809
0.000461756
0.000356814
0.000304865
0.000310745
0.000373589
0.000483774
0.000629065
0.00079196
0.000960065
0.00110607
0.00120953
0.0012203
0.00106069
0.000556193
0.00372865
0.00293445
0.0016454
0.00116588
0.00127869
0.00153622
0.00168423
0.00167715
0.00156873
0.00141374
0.00123674
0.0010278
0.000772241
0.000457077
8.38818e-05
-0.000337336
-0.00078753
-0.00123997
-0.00166496
-0.00203629
-0.00233336
-0.00254485
-0.00267922
-0.00275382
-0.00279247
-0.00281343
-0.00281786
-0.00280245
-0.00274278
-0.00265436
-0.00252641
-0.00234368
-0.00213995
-0.00193171
-0.00172106
-0.00152962
-0.00136515
-0.00126151
-0.00122633
-0.00122027
-0.00125231
-0.0013877
-0.00163429
-0.00196331
-0.00226812
-0.00250216
-0.00275351
-0.00299171
-0.00317822
-0.00329246
-0.00331772
-0.00326949
-0.00313991
-0.00295443
-0.0027085
-0.00241802
-0.0020773
-0.0016921
-0.00125082
-0.000698574
0.0050451
0.00395241
0.00223795
0.00167459
0.00187615
0.00220434
0.0023712
0.0023492
0.00221179
0.00201737
0.00178841
0.00150478
0.00114867
0.000699707
0.000161746
-0.000456601
-0.00113021
-0.00181797
-0.00246648
-0.0030231
-0.00344714
-0.00372906
-0.00389451
-0.0039824
-0.00402539
-0.00403938
-0.00401935
-0.00395286
-0.00382528
-0.0036258
-0.00335856
-0.00302136
-0.00261787
-0.00215257
-0.00163591
-0.00108251
-0.000542065
-7.01421e-05
0.000297298
0.000453191
0.000464547
0.000368208
0.000165638
-0.000153991
-0.000593874
-0.00105004
-0.00161458
-0.00207312
-0.00243065
-0.00266319
-0.00277461
-0.00276842
-0.00264531
-0.0024217
-0.00210941
-0.0017439
-0.00133176
-0.000904694
-0.000476295
-0.000157073
0.00638321
0.00491929
0.0028129
0.00218366
0.00248539
0.00288414
0.00306968
0.00303926
0.00288594
0.00266806
0.00240139
0.00205165
0.00159734
0.00100604
0.000288235
-0.000554561
-0.00149057
-0.00247015
-0.00340888
-0.00420217
-0.00476467
-0.00508939
-0.00524864
-0.00532425
-0.00536388
-0.00537197
-0.00532924
-0.0052125
-0.00500026
-0.00468658
-0.00425681
-0.00372085
-0.00309632
-0.00241096
-0.00171701
-0.00106788
-0.000519245
-9.44449e-05
0.000186069
0.000391451
0.000401984
0.000218315
-0.000132056
-0.000610007
-0.00112737
-0.00171972
-0.0021662
-0.00259153
-0.00292178
-0.00312247
-0.00317917
-0.00308465
-0.00285679
-0.00253331
-0.0021399
-0.00171524
-0.00127637
-0.0008672
-0.000502273
-0.000246899
0.00769637
0.00580753
0.00335432
0.00268732
0.00310007
0.00357315
0.0037842
0.00375914
0.00360786
0.00338718
0.00309985
0.00269749
0.00214871
0.00140475
0.000481252
-0.000634351
-0.00188121
-0.00321918
-0.00453327
-0.0056285
-0.00634699
-0.00668616
-0.00679128
-0.00681785
-0.00683996
-0.0068416
-0.00678288
-0.00662553
-0.00633424
-0.00588621
-0.00527469
-0.00452102
-0.0036647
-0.00275646
-0.00185541
-0.00101002
-0.000252946
0.000368351
0.00081317
0.00103047
0.00102003
0.000783431
0.000346857
-0.000240167
-0.000919111
-0.00167384
-0.00236398
-0.00299462
-0.00347055
-0.00375713
-0.00383825
-0.00372637
-0.00343203
-0.0030233
-0.00254658
-0.0020474
-0.00155345
-0.00110026
-0.000692916
-0.000355746
0.0089568
0.0066206
0.00386692
0.00319928
0.00372472
0.00426844
0.00451165
0.00451158
0.00438801
0.00419347
0.00390907
0.00347692
0.00284078
0.00194162
0.00076928
-0.000712503
-0.00236996
-0.00415165
-0.00590804
-0.00731655
-0.00813676
-0.00847882
-0.00852691
-0.00848927
-0.00847241
-0.0084549
-0.00837936
-0.00819531
-0.00783044
-0.00724733
-0.00644595
-0.00545813
-0.004342
-0.00316378
-0.00198792
-0.000884375
8.01454e-05
0.000855198
0.00138179
0.00166253
0.00164939
0.00134854
0.000785683
9.46051e-06
-0.000913841
-0.00190801
-0.00286251
-0.00358731
-0.00424554
-0.00460122
-0.00468313
-0.00455545
-0.00421452
-0.00369285
-0.0030847
-0.00245901
-0.00184431
-0.00127847
-0.000763807
-0.000339792
0.0101349
0.0073429
0.00433406
0.00373583
0.00437367
0.00496685
0.00524419
0.00529279
0.00523201
0.00510226
0.00485937
0.00443272
0.00372653
0.00268318
0.0012095
-0.000777613
-0.00314038
-0.00561779
-0.00780545
-0.00931201
-0.0100574
-0.0102475
-0.0101987
-0.0101379
-0.0101282
-0.0101276
-0.0100838
-0.00989356
-0.00946802
-0.00876165
-0.0077812
-0.00656256
-0.00517138
-0.00369601
-0.00223028
-0.000869061
0.000304235
0.00123216
0.00185894
0.00222071
0.00222118
0.00188126
0.00123238
0.000321166
-0.000781155
-0.00198469
-0.00318355
-0.00430274
-0.00506921
-0.00558121
-0.00573783
-0.0055565
-0.0051235
-0.00449493
-0.00372957
-0.00293028
-0.00215237
-0.0014476
-0.000826234
-0.000345506
0.0112263
0.00803087
0.00461451
0.00429329
0.00506341
0.00566767
0.00597875
0.00609955
0.00614022
0.00612085
0.00598096
0.00561529
0.00489085
0.00371849
0.00189223
-0.000758779
-0.00432958
-0.00858313
-0.0112998
-0.0123172
-0.0122394
-0.0117311
-0.0113473
-0.0113977
-0.011429
-0.0114379
-0.0114543
-0.0113369
-0.0109414
-0.0102113
-0.00913944
-0.00776786
-0.00618069
-0.00447836
-0.00278149
-0.00121777
0.000112486
0.00114982
0.00184471
0.00228452
0.00234103
0.00204506
0.00141732
0.000490183
-0.000682054
-0.00201637
-0.00339107
-0.00468013
-0.00573055
-0.00644967
-0.00677685
-0.00665833
-0.00615248
-0.00538713
-0.00445792
-0.00347382
-0.00252275
-0.00167971
-0.000947614
-0.000392252
0.0122113
0.00863461
0.00492557
0.00478116
0.00567944
0.00633939
0.00670643
0.00692047
0.00709535
0.00723653
0.00727822
0.00706757
0.00645324
0.00517997
0.0030216
-0.000806821
-0.00553075
-0.0143164
-0.0182389
-0.0184821
-0.0162933
-0.0137418
-0.0119732
-0.012168
-0.0121185
-0.0121064
-0.0121832
-0.0121366
-0.0118395
-0.0112087
-0.0102048
-0.00885757
-0.00725851
-0.00553526
-0.00382796
-0.00225629
-0.000898981
0.000212506
0.00110092
0.0015114
0.00164385
0.00147068
0.000999757
0.00022469
-0.00084207
-0.00214878
-0.00357867
-0.00499133
-0.00621562
-0.00712836
-0.00760828
-0.00761327
-0.00714846
-0.00631284
-0.005242
-0.0040826
-0.00297918
-0.00198895
-0.00110888
-0.000453794
0.0130761
0.00915117
0.00524399
0.00519279
0.00620936
0.0069543
0.00739856
0.00772475
0.00805675
0.00840958
0.00870604
0.00879229
0.00848748
0.0073714
0.00519866
-0.00163283
-0.00693552
-0.0137315
-0.0124891
-0.0122102
-0.0118276
-0.0119407
-0.0120609
-0.012116
-0.011975
-0.0115387
-0.0107595
-0.00965327
-0.00830001
-0.00682186
-0.00534204
-0.00396534
-0.00275452
-0.00173764
-0.000918649
-0.000427444
-0.000142745
-7.13179e-05
-0.000258722
-0.000738328
-0.0015195
-0.00257789
-0.00384502
-0.00524429
-0.00654766
-0.007582
-0.00819692
-0.00834453
-0.00795831
-0.00712552
-0.00598002
-0.00468974
-0.0034483
-0.0023073
-0.00129004
-0.000526333
0.0137993
0.00957467
0.00552007
0.00553497
0.00665589
0.00748928
0.00801913
0.00846567
0.0089666
0.00956375
0.0101682
0.0107
0.0108919
0.0104725
0.00854512
0.00313308
-0.0116471
-0.0115705
-0.011636
-0.0117235
-0.011681
-0.0114347
-0.0109427
-0.01021
-0.00927824
-0.00825702
-0.00722714
-0.00625396
-0.00536323
-0.0045567
-0.00389177
-0.00326124
-0.00273271
-0.00235606
-0.00218555
-0.00226333
-0.00261121
-0.00326511
-0.00425183
-0.00544301
-0.00669841
-0.00779049
-0.008533
-0.00876331
-0.00847309
-0.0076958
-0.00654552
-0.00519582
-0.00382924
-0.00256777
-0.00146034
-0.000605028
0.0143599
0.00989755
0.00573761
0.00580489
0.00701144
0.00791921
0.00853003
0.00908673
0.00975451
0.0105863
0.0115271
0.0125283
0.0133718
0.0139392
0.0125804
0.00931274
-0.0111672
-0.0110125
-0.0110758
-0.0111681
-0.0112116
-0.0111531
-0.0109674
-0.0106637
-0.0102451
-0.00980708
-0.00937904
-0.00893623
-0.00842819
-0.00775794
-0.00721337
-0.00647931
-0.00567894
-0.00492146
-0.00430481
-0.00392326
-0.00384693
-0.0041182
-0.00469391
-0.00554711
-0.00661744
-0.0076657
-0.0084434
-0.00878241
-0.00860319
-0.00792104
-0.00682979
-0.00548703
-0.00406139
-0.00276241
-0.00159266
-0.00066391
0.0147416
0.0101156
0.00588818
0.00599351
0.00726
0.00822153
0.00889476
0.00953723
0.0103396
0.0113619
0.0125963
0.0139976
0.0154811
0.016819
0.0171572
-0.010496
-0.0105515
-0.0106537
-0.0107727
-0.0108879
-0.0109877
-0.0110895
-0.011202
-0.0113756
-0.0115908
-0.0117299
-0.0116954
-0.0114376
-0.0107079
-0.00973767
-0.00857048
-0.0073715
-0.00629184
-0.0054425
-0.00489265
-0.00471561
-0.00495162
-0.00551168
-0.00628544
-0.00718667
-0.00795313
-0.00836103
-0.00829467
-0.00773758
-0.00675986
-0.0055007
-0.00413235
-0.0028343
-0.00164353
-0.000627412
0.0149333
0.0102255
0.00596589
0.00609179
0.00738854
0.00837919
0.00908604
0.00977751
0.0106533
0.0117868
0.0131857
0.0148432
0.0167254
0.0186888
0.0201628
-0.0101087
-0.0101496
-0.0102546
-0.0104289
-0.0106803
-0.0110309
-0.0115217
-0.0121823
-0.0129255
-0.0137095
-0.0143496
-0.0146336
-0.0144696
-0.0136771
-0.0124339
-0.0108825
-0.00924284
-0.0077298
-0.00648154
-0.00555481
-0.00500008
-0.00482299
-0.00511969
-0.00567939
-0.0063682
-0.00705239
-0.00750218
-0.00755096
-0.00713487
-0.00631956
-0.0052145
-0.00397313
-0.00275078
-0.00161374
-0.000531534
0.0149296
0.0102253
0.0059676
0.0060939
0.00739104
0.00838234
0.00909031
0.00978314
0.0106606
0.0117958
0.0131968
0.0148563
0.0167409
0.0187044
0.0201783
-0.00985085
-0.00986778
-0.00996961
-0.0101881
-0.0105592
-0.0111382
-0.0119648
-0.0130292
-0.0142306
-0.0154226
-0.0163784
-0.01684
-0.0166815
-0.0158099
-0.0143276
-0.0124402
-0.0104216
-0.00853811
-0.00696258
-0.00574128
-0.00487906
-0.00440611
-0.0043683
-0.0047185
-0.00526788
-0.00583255
-0.00627009
-0.00639547
-0.00615336
-0.00553441
-0.00463507
-0.00358481
-0.0025132
-0.0014766
-0.000444061
0.0147304
0.010115
0.00589321
0.00599975
0.00726738
0.00823082
0.0089074
0.00955386
0.0103612
0.0113886
0.0126293
0.0140366
0.0155266
0.0168645
0.0171872
-0.00968488
-0.00961371
-0.00972207
-0.00999164
-0.0104689
-0.011211
-0.0122676
-0.0135818
-0.0150578
-0.0164843
-0.0176042
-0.0181661
-0.0180121
-0.0170683
-0.0154199
-0.0132916
-0.0109862
-0.00881784
-0.00698745
-0.00552884
-0.00445874
-0.0037854
-0.00350485
-0.00358395
-0.00394308
-0.00442842
-0.00481304
-0.00500623
-0.00490575
-0.00448563
-0.00381935
-0.00300155
-0.00213089
-0.00125875
-0.000377582
0.0143418
0.00989642
0.0057457
0.00581508
0.0070232
0.00793417
0.00855033
0.00911366
0.00978914
0.0106294
0.0115797
0.0125911
0.0134435
0.0140173
0.0126317
0.00932555
-0.00937783
-0.00936927
-0.00931038
-0.00943753
-0.00975323
-0.0103141
-0.0111696
-0.0123426
-0.0137802
-0.0153517
-0.0168454
-0.018026
-0.0186001
-0.0184305
-0.0174269
-0.0156735
-0.013409
-0.0109506
-0.00861667
-0.00663257
-0.00507102
-0.0038681
-0.00305396
-0.00259854
-0.00246215
-0.00260133
-0.00293245
-0.00329886
-0.00350477
-0.00352457
-0.00329098
-0.0028578
-0.00228676
-0.00164578
-0.000976369
-0.000298914
0.0137749
0.00957281
0.00553084
0.00554888
0.00667133
0.00750916
0.00804597
0.00850159
0.00901252
0.00962125
0.0102381
0.0107848
0.0109899
0.0105833
0.00864734
0.00318151
-0.0093792
-0.00914105
-0.00900797
-0.00911491
-0.00946383
-0.0100809
-0.0109935
-0.0122019
-0.0136426
-0.0151789
-0.0166158
-0.01771
-0.0182604
-0.0180249
-0.016941
-0.0151157
-0.0128084
-0.0103466
-0.0080491
-0.00605373
-0.00445852
-0.00323245
-0.00233764
-0.00174977
-0.00144242
-0.0013974
-0.00155199
-0.00181687
-0.00204786
-0.00213102
-0.00206748
-0.00184562
-0.00150812
-0.00110071
-0.000658613
-0.000199121
0.0130464
0.00914839
0.00525691
0.00520978
0.00622787
0.00697804
0.00743063
0.00776777
0.00811201
0.00847891
0.00879106
0.00889576
0.0086105
0.00751463
0.00535858
-0.00151847
-0.00682404
-0.0136334
-0.0104547
-0.00986921
-0.00936008
-0.00898961
-0.00876466
-0.00883237
-0.00919518
-0.00983993
-0.0107639
-0.0119497
-0.0133171
-0.0147348
-0.016039
-0.0170049
-0.0173747
-0.0169672
-0.0157673
-0.0139191
-0.0116857
-0.00936618
-0.00721415
-0.00537593
-0.0038623
-0.00266143
-0.00173874
-0.00106253
-0.000615875
-0.000401035
-0.000401276
-0.000545779
-0.000740608
-0.000882962
-0.000930325
-0.00087423
-0.000735688
-0.000545369
-0.000326312
-8.83989e-05
0.0121773
0.00863071
0.00493996
0.00480037
0.00570031
0.0063659
0.00674215
0.00696857
0.00715748
0.00731485
0.00737489
0.00718635
0.00659754
0.00535414
0.00323113
-0.000574477
-0.00527419
-0.0141172
-0.0179675
-0.0179738
-0.0153885
-0.0122494
-0.00992863
-0.00977196
-0.00940154
-0.00891333
-0.00867834
-0.00875987
-0.00912299
-0.0097505
-0.010633
-0.0117353
-0.0129586
-0.0141712
-0.0152114
-0.0159106
-0.0160184
-0.0153892
-0.0140964
-0.0123315
-0.0103065
-0.00824959
-0.00634492
-0.00468968
-0.00330862
-0.00218392
-0.00128301
-0.000571132
-3.13947e-05
0.000326308
0.000484687
0.000464865
0.000334768
0.00017803
5.47774e-05
-1.27945e-05
-3.15003e-05
-2.34758e-05
-6.43435e-07
2.25563e-05
0.0111893
0.00802592
0.00462948
0.00431392
0.00508573
0.00569577
0.00601639
0.00615055
0.00620645
0.00620486
0.00608529
0.00574454
0.00505089
0.00391582
0.00213577
-0.000465608
-0.00398056
-0.00815809
-0.0107219
-0.0115193
-0.0111486
-0.0102873
-0.00953912
-0.00926548
-0.00902133
-0.0087526
-0.00862471
-0.00872653
-0.00906549
-0.00966924
-0.0104824
-0.0114186
-0.0123999
-0.0133155
-0.0140195
-0.0143049
-0.014084
-0.0133686
-0.0122087
-0.0106819
-0.00895074
-0.00720949
-0.00558099
-0.00412793
-0.00287309
-0.00181614
-0.000947167
-0.000240491
0.000331534
0.00077653
0.00106974
0.00118939
0.00115499
0.00102552
0.000862871
0.000706578
0.000567281
0.000430193
0.000290039
0.000123821
0.0100957
0.00733726
0.00434849
0.00375719
0.00439658
0.00499517
0.00528202
0.00534429
0.00529946
0.00518822
0.00496702
0.00456689
0.00389439
0.00289235
0.00147121
-0.000455326
-0.00274284
-0.0051155
-0.00716888
-0.00852134
-0.00907556
-0.0090285
-0.00872983
-0.00845027
-0.00828311
-0.00820262
-0.00821997
-0.00839798
-0.00874002
-0.0092605
-0.00990214
-0.0106151
-0.0113168
-0.0119106
-0.0122902
-0.0123468
-0.0120571
-0.0114306
-0.0104447
-0.00916315
-0.00774831
-0.0063249
-0.0049654
-0.00371378
-0.00259473
-0.00161181
-0.00076719
-5.9222e-05
0.000521948
0.000998323
0.00137055
0.00161206
0.00169485
0.00163375
0.00148064
0.00127862
0.0010552
0.000806182
0.000538681
0.000217761
0.00891747
0.00661373
0.0038804
0.00322042
0.00374732
0.0042957
0.00454798
0.00456118
0.00445369
0.00427754
0.00401523
0.00360983
0.00300798
0.00215116
0.00103033
-0.000389796
-0.00197169
-0.00366431
-0.00531305
-0.006607
-0.007303
-0.00749728
-0.00739991
-0.00725074
-0.00719051
-0.00723345
-0.00736748
-0.00759985
-0.00793389
-0.00836726
-0.00890467
-0.0094611
-0.00996179
-0.010354
-0.0105745
-0.0105716
-0.0103139
-0.00975761
-0.0089008
-0.00784899
-0.00671191
-0.00556151
-0.00444327
-0.00338831
-0.00241819
-0.00153808
-0.000748965
-5.12955e-05
0.000547468
0.0010505
0.0014584
0.00176836
0.00194581
0.0019845
0.00188715
0.00168994
0.00142708
0.00110617
0.000745244
0.000303412
0.00765897
0.00579902
0.00336625
0.00270735
0.00312147
0.0035982
0.00381742
0.00380463
0.0036688
0.00346564
0.00319944
0.00282248
0.00230588
0.00160129
0.000725219
-0.000334041
-0.00151566
-0.00278058
-0.00401275
-0.00502214
-0.00565414
-0.00591201
-0.0059524
-0.00595254
-0.0060141
-0.00615195
-0.00636175
-0.00664356
-0.00699537
-0.00740381
-0.00785466
-0.00829328
-0.00867482
-0.0089589
-0.00910854
-0.00909201
-0.0088523
-0.00836757
-0.00767751
-0.0068223
-0.00587442
-0.00490931
-0.00396901
-0.00306982
-0.00222935
-0.00146047
-0.00076986
-0.000145002
0.00041742
0.000922737
0.00136807
0.00175874
0.00194428
0.00206148
0.00206356
0.00193246
0.00166901
0.00131857
0.000897118
0.000391085
0.00634919
0.00490968
0.00282295
0.00220185
0.00250467
0.00290591
0.00309825
0.00307864
0.00293931
0.00273732
0.00248951
0.00216238
0.00173615
0.00117918
0.000502188
-0.000292862
-0.00117538
-0.00209642
-0.00297329
-0.00370437
-0.00421244
-0.00449861
-0.00464278
-0.00474511
-0.0048816
-0.005078
-0.00532812
-0.00563803
-0.00601873
-0.0064312
-0.00683868
-0.00721206
-0.00752905
-0.00776768
-0.00789875
-0.00788712
-0.00770326
-0.00734426
-0.00683162
-0.00616311
-0.00537767
-0.00453455
-0.00369375
-0.00287153
-0.00209523
-0.00137875
-0.000736111
-0.000164837
0.000325397
0.000745594
0.00110417
0.00138762
0.00171525
0.00190681
0.00196962
0.00191843
0.00172972
0.00141617
0.000988629
0.000455317
0.00501571
0.00394249
0.00224589
0.00169032
0.00189264
0.00222203
0.00239389
0.00238075
0.00225512
0.00207418
0.00186082
0.00159583
0.00126254
0.000841517
0.000336383
-0.000244115
-0.000875845
-0.00151872
-0.00212216
-0.00263727
-0.00303021
-0.00329926
-0.00347741
-0.00361938
-0.00378678
-0.00402505
-0.00433519
-0.00466957
-0.00509015
-0.00553487
-0.00594701
-0.00630885
-0.0066127
-0.00684423
-0.00698272
-0.00701082
-0.00691721
-0.00669361
-0.00633461
-0.00585204
-0.00526239
-0.00458224
-0.00385736
-0.0031053
-0.00237426
-0.00166146
-0.000983192
-0.000350783
0.000213436
0.000673816
0.000995425
0.00124697
0.00147399
0.00164956
0.00171635
0.00171038
0.00157899
0.00135003
0.000985118
0.000420931
0.00370458
0.00292502
0.00165069
0.00117837
0.00129197
0.00154943
0.00170031
0.00169964
0.0016002
0.00145553
0.00129016
0.00109502
0.000856281
0.000561732
0.000212649
-0.000181044
-0.000601198
-0.00102194
-0.00141593
-0.00176036
-0.00204087
-0.00225487
-0.00241959
-0.00255915
-0.00271688
-0.00294301
-0.00335967
-0.00396549
-0.00446943
-0.00494562
-0.0053901
-0.00577439
-0.00607799
-0.00628885
-0.00639601
-0.00638904
-0.00626367
-0.00601399
-0.00567145
-0.00529953
-0.00488725
-0.00444279
-0.00395364
-0.0034797
-0.00298564
-0.00248223
-0.00197005
-0.00145008
-0.000922569
-0.000364003
0.000165971
0.00067848
0.00105696
0.00126139
0.00132468
0.00133389
0.00124231
0.00107659
0.000785099
0.000305892
0.00211826
0.00186818
0.00107729
0.000696165
0.000728705
0.000901302
0.00101657
0.00102521
0.00096031
0.000864231
0.000757878
0.000637923
0.000494369
0.000320243
0.000115844
-0.000109573
-0.0003486
-0.000587141
-0.000809806
-0.00100653
-0.00117058
-0.0013023
-0.00141807
-0.00153792
-0.00168764
-0.00183069
-0.00194885
-0.00211731
-0.00240108
-0.00258661
-0.00263927
-0.00262088
-0.00256932
-0.00248328
-0.00234863
-0.0021551
-0.00190192
-0.00159822
-0.0012524
-0.000869883
-0.000476383
-9.49606e-05
0.000245361
0.000535218
0.000745486
0.000878362
0.000938931
0.000952094
0.000952041
0.000948143
0.00108481
0.000813181
0.000744932
0.000793252
0.000857497
0.000872491
0.000808164
0.000701864
0.000495704
0.000197344
0.000675203
0.000674
0.00040441
0.000233794
0.000224936
0.000289823
0.000340455
0.000347853
0.000323947
0.000287775
0.000249486
0.000208253
0.000159903
0.000102096
3.40547e-05
-3.7755e-05
-0.000114401
-0.000192642
-0.000264259
-0.000327932
-0.000379177
-0.000419041
-0.00045124
-0.000498816
-0.000639159
-0.00107662
-0.00250672
-0.00429075
-0.00601002
-0.0076311
-0.00919938
-0.0107236
-0.0121815
-0.0135325
-0.0147291
-0.0157219
-0.0164606
-0.0169054
-0.0170204
-0.0167907
-0.016219
-0.0153129
-0.0141026
-0.0126355
-0.0109587
-0.00914355
-0.00727215
-0.00541172
-0.00362721
-0.00201272
-0.000680462
0.000157895
0.000217726
0.000163143
0.000240894
0.000275387
0.000258912
0.000233467
0.000156229
5.21434e-05
)
;

boundaryField
{
    upstream
    {
        type            fixedValue;
        value           uniform 0;
    }
    downstream
    {
        type            fixedValue;
        value           uniform 0;
    }
    upANDdown
    {
        type            fixedValue;
        value           uniform 0;
    }
    frontAndBack
    {
        type            empty;
    }
    cylinder
    {
        type            zeroGradient;
    }
}


// ************************************************************************* //
