/*--------------------------------*- C++ -*----------------------------------*\
| =========                 |                                                 |
| \\      /  F ield         | OpenFOAM: The Open Source CFD Toolbox           |
|  \\    /   O peration     | Version:  2.3.0                                 |
|   \\  /    A nd           | Web:      www.OpenFOAM.org                      |
|    \\/     M anipulation  |                                                 |
\*---------------------------------------------------------------------------*/
FoamFile
{
    version     2.0;
    format      ascii;
    class       surfaceScalarField;
    location    "13";
    object      phi;
}
// * * * * * * * * * * * * * * * * * * * * * * * * * * * * * * * * * * * * * //

dimensions      [0 3 -1 0 0 0 0];

internalField   nonuniform List<scalar> 
3330
(
1.99241e-07
-3.63392e-09
1.99154e-07
-1.10645e-08
1.98495e-07
-1.51284e-08
1.97873e-07
-1.74672e-08
1.97568e-07
-1.98143e-08
1.97401e-07
-2.26707e-08
1.97226e-07
-2.60457e-08
1.97009e-07
-2.95474e-08
1.96799e-07
-3.29512e-08
1.96626e-07
-3.60375e-08
1.96523e-07
-3.88434e-08
1.96509e-07
-4.12813e-08
1.96597e-07
-4.33625e-08
1.9683e-07
-4.49073e-08
1.97181e-07
-4.5909e-08
1.97721e-07
-4.6115e-08
1.98389e-07
-4.56276e-08
1.99167e-07
-4.43144e-08
2.00034e-07
-4.21888e-08
2.00931e-07
-3.92809e-08
2.01788e-07
-3.57848e-08
2.0258e-07
-3.17271e-08
2.03267e-07
-2.75023e-08
2.03859e-07
-2.30032e-08
2.04329e-07
-1.86788e-08
2.04775e-07
-1.42048e-08
2.05004e-07
-9.95763e-09
2.05562e-07
-5.82855e-09
2.07455e-07
-2.48412e-09
2.09223e-07
1.10736e-09
2.09953e-07
3.16913e-09
2.1007e-07
4.70376e-09
2.09904e-07
5.70473e-09
2.09592e-07
6.28487e-09
2.09286e-07
6.42843e-09
2.09147e-07
6.19861e-09
2.09305e-07
5.75321e-09
2.09861e-07
5.23084e-09
2.10842e-07
4.77998e-09
2.12249e-07
4.47274e-09
2.13984e-07
4.44387e-09
2.15968e-07
4.72417e-09
2.18009e-07
5.42868e-09
2.19992e-07
6.46686e-09
2.21654e-07
7.99e-09
2.2288e-07
9.78719e-09
2.2336e-07
1.20032e-08
2.23061e-07
1.42795e-08
2.21752e-07
1.67131e-08
2.19615e-07
1.87908e-08
2.16423e-07
2.08376e-08
2.12576e-07
2.21345e-08
2.07852e-07
2.32392e-08
2.02735e-07
2.34059e-08
1.96973e-07
2.33146e-08
1.90975e-07
2.2296e-08
1.8423e-07
2.11696e-08
1.76622e-07
1.95217e-08
1.66844e-07
1.81272e-08
1.70119e-08
1.98512e-07
-5.8582e-09
1.97982e-07
-1.05344e-08
1.96739e-07
-1.38858e-08
1.95824e-07
-1.65514e-08
1.95366e-07
-1.93572e-08
1.95134e-07
-2.24382e-08
1.94994e-07
-2.59054e-08
1.94818e-07
-2.93716e-08
1.9469e-07
-3.2823e-08
1.9464e-07
-3.59877e-08
1.9478e-07
-3.89836e-08
1.95129e-07
-4.16308e-08
1.95726e-07
-4.39595e-08
1.96624e-07
-4.58044e-08
1.97733e-07
-4.70183e-08
1.99149e-07
-4.75312e-08
2.00722e-07
-4.72005e-08
2.0239e-07
-4.59824e-08
2.04098e-07
-4.38967e-08
2.05697e-07
-4.08799e-08
2.07061e-07
-3.71487e-08
2.08164e-07
-3.28307e-08
2.0901e-07
-2.83481e-08
2.09668e-07
-2.36613e-08
2.10048e-07
-1.90583e-08
2.10372e-07
-1.45291e-08
2.10514e-07
-1.0099e-08
2.10729e-07
-6.04432e-09
2.10406e-07
-2.16113e-09
2.10435e-07
1.0792e-09
2.09713e-07
3.89047e-09
2.08692e-07
5.72455e-09
2.07653e-07
6.74439e-09
2.06735e-07
7.20226e-09
2.0605e-07
7.11373e-09
2.05774e-07
6.4743e-09
2.05959e-07
5.56818e-09
2.0666e-07
4.53025e-09
2.08066e-07
3.37427e-09
2.10201e-07
2.33777e-09
2.1266e-07
1.98456e-09
2.1543e-07
1.9546e-09
2.18412e-07
2.44593e-09
2.21264e-07
3.61504e-09
2.2366e-07
5.5937e-09
2.25447e-07
8.00038e-09
2.26425e-07
1.10255e-08
2.26645e-07
1.40599e-08
2.25949e-07
1.74088e-08
2.24411e-07
2.03285e-08
2.21938e-07
2.3311e-08
2.18765e-07
2.53074e-08
2.14813e-07
2.71913e-08
2.10414e-07
2.78044e-08
2.05572e-07
2.81572e-08
2.00636e-07
2.72317e-08
1.95648e-07
2.61577e-08
1.90963e-07
2.42068e-08
1.87214e-07
2.18758e-08
1.85642e-08
1.94424e-07
-6.27574e-09
1.93992e-07
-1.01023e-08
1.9371e-07
-1.36035e-08
1.93233e-07
-1.60745e-08
1.9279e-07
-1.89141e-08
1.92518e-07
-2.21668e-08
1.92403e-07
-2.57907e-08
1.92292e-07
-2.92597e-08
1.92327e-07
-3.2858e-08
1.92473e-07
-3.61337e-08
1.92939e-07
-3.94501e-08
1.93694e-07
-4.2385e-08
1.94838e-07
-4.51038e-08
1.96345e-07
-4.73111e-08
1.98269e-07
-4.89426e-08
2.00498e-07
-4.97603e-08
2.02995e-07
-4.96978e-08
2.05578e-07
-4.85653e-08
2.08048e-07
-4.63669e-08
2.10241e-07
-4.30723e-08
2.12003e-07
-3.89107e-08
2.13345e-07
-3.41732e-08
2.14241e-07
-2.92435e-08
2.14901e-07
-2.43222e-08
2.15334e-07
-1.94909e-08
2.15504e-07
-1.46993e-08
2.15436e-07
-1.00306e-08
2.15075e-07
-5.68336e-09
2.14484e-07
-1.56993e-09
2.13662e-07
1.90091e-09
2.12836e-07
4.71615e-09
2.11928e-07
6.63324e-09
2.11043e-07
7.62943e-09
2.10444e-07
7.80106e-09
2.10294e-07
7.26303e-09
2.10573e-07
6.19615e-09
2.11425e-07
4.71624e-09
2.12874e-07
3.08072e-09
2.14624e-07
1.62458e-09
2.16801e-07
1.6042e-10
2.19627e-07
-8.41761e-10
2.22739e-07
-1.15671e-09
2.25772e-07
-5.8721e-10
2.28466e-07
9.20419e-10
2.31046e-07
3.01392e-09
2.33205e-07
5.84143e-09
2.34665e-07
9.56553e-09
2.35057e-07
1.36677e-08
2.34415e-07
1.80511e-08
2.3261e-07
2.21335e-08
2.29919e-07
2.60025e-08
2.26205e-07
2.90211e-08
2.21893e-07
3.15029e-08
2.16852e-07
3.28457e-08
2.11402e-07
3.3607e-08
2.05569e-07
3.30652e-08
1.99419e-07
3.23077e-08
1.93384e-07
3.02418e-08
1.86389e-07
2.88709e-08
2.60919e-08
1.92003e-07
-6.40321e-09
1.9177e-07
-9.86913e-09
1.91086e-07
-1.29201e-08
1.90674e-07
-1.56627e-08
1.9025e-07
-1.849e-08
1.89924e-07
-2.18403e-08
1.89788e-07
-2.56545e-08
1.89673e-07
-2.91452e-08
1.89811e-07
-3.29964e-08
1.90076e-07
-3.63982e-08
1.90845e-07
-4.0219e-08
1.91889e-07
-4.3429e-08
1.93603e-07
-4.68181e-08
1.95726e-07
-4.94338e-08
1.98463e-07
-5.16801e-08
2.01743e-07
-5.304e-08
2.0531e-07
-5.32648e-08
2.089e-07
-5.21557e-08
2.12301e-07
-4.97679e-08
2.15121e-07
-4.58917e-08
2.17278e-07
-4.10683e-08
2.18841e-07
-3.57359e-08
2.19956e-07
-3.03583e-08
2.20701e-07
-2.50676e-08
2.21063e-07
-1.98526e-08
2.21106e-07
-1.47422e-08
2.20771e-07
-9.69568e-09
2.19978e-07
-4.89009e-09
2.18835e-07
-4.27207e-10
2.1734e-07
3.39602e-09
2.15632e-07
6.42414e-09
2.13823e-07
8.44208e-09
2.11929e-07
9.52369e-09
2.10063e-07
9.66677e-09
2.08458e-07
8.8681e-09
2.07377e-07
7.27709e-09
2.07054e-07
5.03963e-09
2.07979e-07
2.15574e-09
2.10343e-07
-7.3979e-10
2.13344e-07
-2.84034e-09
2.17117e-07
-4.615e-09
2.21583e-07
-5.62295e-09
2.2652e-07
-5.52391e-09
2.31748e-07
-4.30734e-09
2.36765e-07
-2.00364e-09
2.40444e-07
2.16288e-09
2.42745e-07
7.26404e-09
2.43702e-07
1.27111e-08
2.43106e-07
1.86472e-08
2.41087e-07
2.41527e-08
2.37665e-07
2.94245e-08
2.33219e-07
3.34672e-08
2.27888e-07
3.68337e-08
2.22104e-07
3.86295e-08
2.15741e-07
3.99699e-08
2.09145e-07
3.96617e-08
2.02155e-07
3.92975e-08
1.95265e-07
3.7132e-08
1.88323e-07
3.58125e-08
3.13614e-08
1.89637e-07
-6.33818e-09
1.89401e-07
-9.63307e-09
1.88664e-07
-1.21834e-08
1.88203e-07
-1.52021e-08
1.87697e-07
-1.79839e-08
1.87269e-07
-2.14116e-08
1.87034e-07
-2.54199e-08
1.86838e-07
-2.89496e-08
1.8698e-07
-3.31382e-08
1.87282e-07
-3.67006e-08
1.88256e-07
-4.11922e-08
1.89562e-07
-4.4735e-08
1.9187e-07
-4.9126e-08
1.94624e-07
-5.21885e-08
1.98397e-07
-5.54525e-08
2.0275e-07
-5.73932e-08
2.07675e-07
-5.81896e-08
2.12766e-07
-5.72472e-08
2.17356e-07
-5.43579e-08
2.20808e-07
-4.93436e-08
2.23296e-07
-4.3556e-08
2.25153e-07
-3.75931e-08
2.26523e-07
-3.17279e-08
2.27359e-07
-2.59043e-08
2.27575e-07
-2.00685e-08
2.27142e-07
-1.43085e-08
2.26148e-07
-8.70242e-09
2.24614e-07
-3.3556e-09
2.22568e-07
1.61834e-09
2.20064e-07
5.90059e-09
2.17176e-07
9.31163e-09
2.14034e-07
1.15843e-08
2.10935e-07
1.26229e-08
2.08157e-07
1.24451e-08
2.0605e-07
1.09749e-08
2.0501e-07
8.3172e-09
2.05038e-07
5.01129e-09
2.05683e-07
1.51126e-09
2.07414e-07
-2.47078e-09
2.10636e-07
-6.0624e-09
2.14913e-07
-8.89231e-09
2.20074e-07
-1.07839e-08
2.25772e-07
-1.12219e-08
2.31546e-07
-1.00816e-08
2.36605e-07
-7.06214e-09
2.40991e-07
-2.22369e-09
2.44766e-07
3.48963e-09
2.46994e-07
1.0483e-08
2.47529e-07
1.81125e-08
2.46241e-07
2.54406e-08
2.43096e-07
3.25696e-08
2.38361e-07
3.8202e-08
2.32278e-07
4.29169e-08
2.25492e-07
4.54147e-08
2.18357e-07
4.71049e-08
2.112e-07
4.68193e-08
2.04028e-07
4.64697e-08
1.9712e-07
4.40396e-08
1.90562e-07
4.23701e-08
3.73675e-08
1.87358e-07
-6.13509e-09
1.87003e-07
-9.27795e-09
1.86299e-07
-1.14801e-08
1.85677e-07
-1.45801e-08
1.85041e-07
-1.73477e-08
1.84497e-07
-2.08672e-08
1.84062e-07
-2.49849e-08
1.83714e-07
-2.8602e-08
1.83716e-07
-3.31404e-08
1.83979e-07
-3.69629e-08
1.85058e-07
-4.22716e-08
1.86572e-07
-4.62484e-08
1.89535e-07
-5.20891e-08
1.9294e-07
-5.55933e-08
1.98083e-07
-6.05958e-08
2.0351e-07
-6.28199e-08
2.10216e-07
-6.48961e-08
2.17316e-07
-6.43468e-08
2.23372e-07
-6.04146e-08
2.27775e-07
-5.37463e-08
2.30826e-07
-4.66073e-08
2.32293e-07
-3.90602e-08
2.32696e-07
-3.21309e-08
2.32438e-07
-2.56456e-08
2.31615e-07
-1.92454e-08
2.30277e-07
-1.29713e-08
2.28462e-07
-6.88738e-09
2.26084e-07
-9.77483e-10
2.23013e-07
4.68966e-09
2.19315e-07
9.59799e-09
2.15148e-07
1.34791e-08
2.1073e-07
1.60026e-08
2.06396e-07
1.69565e-08
2.02445e-07
1.63959e-08
1.99144e-07
1.42756e-08
1.96672e-07
1.07898e-08
1.95246e-07
6.43724e-09
1.95308e-07
1.4494e-09
1.96689e-07
-3.85163e-09
1.99564e-07
-8.93809e-09
2.03812e-07
-1.314e-08
2.09291e-07
-1.62625e-08
2.15776e-07
-1.77074e-08
2.22974e-07
-1.728e-08
2.30504e-07
-1.45918e-08
2.37942e-07
-9.66133e-09
2.43869e-07
-2.43819e-09
2.47871e-07
6.48136e-09
2.49949e-07
1.60344e-08
2.50137e-07
2.52529e-08
2.4822e-07
3.44861e-08
2.44148e-07
4.22747e-08
2.38254e-07
4.88103e-08
2.31048e-07
5.2621e-08
2.23075e-07
5.50772e-08
2.1501e-07
5.48845e-08
2.07088e-07
5.43916e-08
1.99689e-07
5.14393e-08
1.92467e-07
4.95918e-08
4.42104e-08
1.85154e-07
-5.79002e-09
1.846e-07
-8.72453e-09
1.83888e-07
-1.07674e-08
1.8305e-07
-1.37428e-08
1.82286e-07
-1.65829e-08
1.81609e-07
-2.01903e-08
1.80852e-07
-2.42284e-08
1.80269e-07
-2.80186e-08
1.7992e-07
-3.27916e-08
1.80098e-07
-3.71412e-08
1.81004e-07
-4.31776e-08
1.82778e-07
-4.80216e-08
1.86125e-07
-5.54366e-08
1.90504e-07
-5.99724e-08
1.97676e-07
-6.77673e-08
2.04448e-07
-6.95921e-08
2.133e-07
-7.37476e-08
2.22951e-07
-7.39985e-08
2.30246e-07
-6.7709e-08
2.34212e-07
-5.77125e-08
2.35861e-07
-4.82569e-08
2.35403e-07
-3.86017e-08
2.34406e-07
-3.11338e-08
2.33219e-07
-2.44591e-08
2.31209e-07
-1.72349e-08
2.2849e-07
-1.02528e-08
2.2536e-07
-3.75675e-09
2.21717e-07
2.6654e-09
2.17254e-07
9.15287e-09
2.12155e-07
1.46971e-08
2.06515e-07
1.91187e-08
2.00593e-07
2.19248e-08
1.94634e-07
2.29152e-08
1.88949e-07
2.20813e-08
1.83819e-07
1.94052e-08
1.79541e-07
1.50686e-08
1.7641e-07
9.56824e-09
1.74403e-07
3.45591e-09
1.73997e-07
-3.44531e-09
1.75418e-07
-1.03595e-08
1.78881e-07
-1.66027e-08
1.8446e-07
-2.18412e-08
1.92003e-07
-2.52503e-08
2.01096e-07
-2.63734e-08
2.11052e-07
-2.45482e-08
2.21282e-07
-1.9891e-08
2.30994e-07
-1.21498e-08
2.39499e-07
-2.0244e-09
2.45011e-07
1.05227e-08
2.47514e-07
2.27499e-08
2.47431e-07
3.45696e-08
2.45091e-07
4.46145e-08
2.40476e-07
5.34252e-08
2.34007e-07
5.90895e-08
2.26186e-07
6.28982e-08
2.17818e-07
6.3253e-08
2.09244e-07
6.29658e-08
2.01105e-07
5.95776e-08
1.93144e-07
5.75533e-08
5.11037e-08
1.83162e-07
-5.38663e-09
1.82434e-07
-7.99688e-09
1.81176e-07
-9.50863e-09
1.80233e-07
-1.28004e-08
1.79506e-07
-1.58555e-08
1.78612e-07
-1.92968e-08
1.77412e-07
-2.30283e-08
1.76453e-07
-2.70593e-08
1.75576e-07
-3.19142e-08
1.75465e-07
-3.70307e-08
1.75905e-07
-4.36171e-08
1.77865e-07
-4.9982e-08
1.81176e-07
-5.8748e-08
1.86908e-07
-6.57044e-08
1.9608e-07
-7.69395e-08
2.06883e-07
-8.03948e-08
2.18584e-07
-8.54486e-08
2.29395e-07
-8.48096e-08
2.34747e-07
-7.30606e-08
2.35505e-07
-5.84706e-08
2.33857e-07
-4.66092e-08
2.30226e-07
-3.49707e-08
2.25839e-07
-2.67465e-08
2.21627e-07
-2.0247e-08
2.16573e-07
-1.21814e-08
2.11554e-07
-5.23359e-09
2.06728e-07
1.06895e-09
2.01475e-07
7.91877e-09
1.96179e-07
1.44493e-08
1.90368e-07
2.05082e-08
1.83934e-07
2.55525e-08
1.76849e-07
2.90097e-08
1.69284e-07
3.04797e-08
1.61558e-07
2.98077e-08
1.53977e-07
2.69863e-08
1.46806e-07
2.22394e-08
1.40428e-07
1.59465e-08
1.35483e-07
8.40069e-09
1.32417e-07
-3.79556e-10
1.32385e-07
-1.03272e-08
1.35676e-07
-1.98936e-08
1.42321e-07
-2.84867e-08
1.5196e-07
-3.48892e-08
1.63913e-07
-3.8326e-08
1.7727e-07
-3.79058e-08
1.91135e-07
-3.37551e-08
2.04831e-07
-2.58463e-08
2.17775e-07
-1.49683e-08
2.29053e-07
-7.55614e-10
2.36894e-07
1.49087e-08
2.407e-07
3.07643e-08
2.40924e-07
4.43906e-08
2.38199e-07
5.61499e-08
2.331e-07
6.41884e-08
2.26103e-07
6.98955e-08
2.18089e-07
7.12668e-08
2.09506e-07
7.15488e-08
2.01101e-07
6.79825e-08
1.93029e-07
6.56252e-08
5.81069e-08
1.81253e-07
-4.87174e-09
1.79931e-07
-6.6744e-09
1.8019e-07
-9.76789e-09
1.78895e-07
-1.15049e-08
1.77098e-07
-1.40587e-08
1.75521e-07
-1.77196e-08
1.73824e-07
-2.13316e-08
1.72327e-07
-2.55625e-08
1.70722e-07
-3.03094e-08
1.69911e-07
-3.62198e-08
1.69519e-07
-4.32245e-08
1.71172e-07
-5.16353e-08
1.741e-07
-6.16756e-08
1.80992e-07
-7.25971e-08
1.92303e-07
-8.82499e-08
2.09053e-07
-9.7145e-08
2.26829e-07
-1.03225e-07
2.29983e-07
-8.79629e-08
2.26754e-07
-6.98321e-08
2.17915e-07
-4.9632e-08
2.07049e-07
-3.57433e-08
1.93978e-07
-2.1899e-08
1.84148e-07
-1.6917e-08
1.73547e-07
-9.6462e-09
1.64822e-07
-3.45552e-09
1.58843e-07
7.45424e-10
1.54e-07
5.91169e-09
1.50202e-07
1.17166e-08
1.46423e-07
1.82285e-08
1.41878e-07
2.5053e-08
1.36098e-07
3.13325e-08
1.28909e-07
3.61992e-08
1.20377e-07
3.90109e-08
1.10812e-07
3.93726e-08
1.00783e-07
3.70153e-08
9.12303e-08
3.17925e-08
8.33869e-08
2.37899e-08
7.83536e-08
1.3434e-08
7.66734e-08
1.30071e-09
7.89658e-08
-1.26197e-08
8.50837e-08
-2.60114e-08
9.46866e-08
-3.80896e-08
1.07321e-07
-4.75236e-08
1.22348e-07
-5.33533e-08
1.38952e-07
-5.45097e-08
1.56143e-07
-5.0946e-08
1.72885e-07
-4.25886e-08
1.88655e-07
-3.07378e-08
2.03189e-07
-1.52898e-08
2.15855e-07
2.24292e-09
2.25119e-07
2.15e-08
2.30018e-07
3.94917e-08
2.30662e-07
5.55059e-08
2.27853e-07
6.6998e-08
2.22411e-07
7.53367e-08
2.15392e-07
7.82864e-08
2.07445e-07
7.94957e-08
1.99248e-07
7.61791e-08
1.91403e-07
7.34704e-08
6.51443e-08
1.79561e-07
-4.29096e-09
1.78546e-07
-5.65915e-09
1.77566e-07
-8.78813e-09
1.76265e-07
-1.02044e-08
1.74481e-07
-1.22741e-08
1.72453e-07
-1.56917e-08
1.70175e-07
-1.90536e-08
1.679e-07
-2.32871e-08
1.65422e-07
-2.7832e-08
1.63403e-07
-3.42002e-08
1.61647e-07
-4.14688e-08
1.61726e-07
-5.17148e-08
1.63908e-07
-6.38572e-08
1.70725e-07
-7.94136e-08
1.88152e-07
-1.05678e-07
2.02161e-07
-1.11154e-07
2.11399e-07
-1.12463e-07
2.76594e-07
-1.53158e-07
2.06762e-07
1.5713e-07
1.21387e-07
9.94877e-08
7.0847e-08
1.17238e-08
6.4499e-08
-3.29826e-09
6.37802e-08
-2.73666e-09
6.58802e-08
-1.35458e-09
6.88466e-08
2.94523e-09
7.10369e-08
9.52627e-09
7.16929e-08
1.75725e-08
7.04274e-08
2.63185e-08
6.69909e-08
3.4769e-08
6.1445e-08
4.17452e-08
5.42338e-08
4.6222e-08
4.62721e-08
4.73344e-08
3.84851e-08
4.48023e-08
3.18957e-08
3.83819e-08
2.73909e-08
2.82946e-08
2.58177e-08
1.50073e-08
2.77588e-08
-6.40373e-10
3.25677e-08
-1.74287e-08
4.06652e-08
-3.41089e-08
5.18819e-08
-4.93063e-08
6.595e-08
-6.15918e-08
8.25333e-08
-6.99366e-08
1.01189e-07
-7.31658e-08
1.20918e-07
-7.0675e-08
1.40512e-07
-6.21817e-08
1.58772e-07
-4.89978e-08
1.75291e-07
-3.18091e-08
1.90044e-07
-1.25106e-08
2.02221e-07
9.32362e-09
2.11119e-07
3.05931e-08
2.15963e-07
5.06627e-08
2.16741e-07
6.62198e-08
2.14125e-07
7.79522e-08
2.09038e-07
8.33735e-08
2.02612e-07
8.59216e-08
1.95208e-07
8.3583e-08
1.87856e-07
8.08228e-08
7.20114e-08
1.78019e-07
-3.59995e-09
1.77002e-07
-4.64205e-09
1.75577e-07
-7.3633e-09
1.73972e-07
-8.5996e-09
1.72005e-07
-1.03075e-08
1.69543e-07
-1.32297e-08
1.66696e-07
-1.62063e-08
1.63498e-07
-2.00891e-08
1.59978e-07
-2.4312e-08
1.56301e-07
-3.05234e-08
1.52575e-07
-3.7743e-08
1.49647e-07
-4.87866e-08
1.48318e-07
-6.25283e-08
1.51237e-07
-8.23321e-08
1.68276e-07
-1.22717e-07
2.65621e-07
-2.08499e-07
1.53158e-07
1.17238e-08
8.42555e-09
1.16486e-08
-5.95967e-09
1.50767e-08
-4.78272e-09
1.71371e-08
8.84844e-10
1.77892e-08
8.87418e-09
1.70342e-08
1.83275e-08
1.49103e-08
2.84424e-08
1.15254e-08
3.81539e-08
7.05021e-09
4.62203e-08
1.85874e-09
5.14135e-08
-3.81449e-09
5.30076e-08
-9.1087e-09
5.00965e-08
-1.33129e-08
4.25862e-08
-1.54541e-08
3.04358e-08
-1.45138e-08
1.4067e-08
-1.08631e-08
-4.29108e-09
-4.23476e-09
-2.4057e-08
5.18846e-09
-4.35321e-08
1.68807e-08
-6.09985e-08
3.06809e-08
-7.5392e-08
4.67127e-08
-8.59684e-08
6.53343e-08
-9.17873e-08
8.61843e-08
-9.15251e-08
1.0775e-07
-8.3747e-08
1.28324e-07
-6.9572e-08
1.47034e-07
-5.05192e-08
1.63358e-07
-2.88347e-08
1.77457e-07
-4.77515e-09
1.88662e-07
1.93884e-08
1.96575e-07
4.27494e-08
2.00661e-07
6.21334e-08
2.01234e-07
7.73791e-08
1.98626e-07
8.59819e-08
1.94366e-07
9.01819e-08
1.88568e-07
8.93811e-08
1.82277e-07
8.71131e-08
7.84239e-08
1.76707e-07
-2.79775e-09
1.75629e-07
-3.56366e-09
1.73972e-07
-5.70701e-09
1.72056e-07
-6.68362e-09
1.69812e-07
-8.06325e-09
1.6693e-07
-1.03474e-08
1.63505e-07
-1.27818e-08
1.59408e-07
-1.59917e-08
1.54702e-07
-1.96064e-08
1.49227e-07
-2.50482e-08
1.4293e-07
-3.14458e-08
1.36024e-07
-4.18809e-08
1.27726e-07
-5.42303e-08
1.20215e-07
-7.48214e-08
1.06831e-07
-1.09332e-07
-1.01669e-07
-2.06982e-09
-3.88984e-09
-4.14411e-09
-2.70844e-09
-7.07875e-09
3.81949e-09
-1.02378e-08
1.20333e-08
-1.38782e-08
2.19679e-08
-1.80435e-08
3.26077e-08
-2.2711e-08
4.28214e-08
-2.79731e-08
5.14824e-08
-3.32735e-08
5.6714e-08
-3.78793e-08
5.76134e-08
-4.11548e-08
5.3372e-08
-4.22256e-08
4.3657e-08
-4.057e-08
2.87801e-08
-3.60204e-08
9.51742e-09
-2.8919e-08
-1.13925e-08
-1.96877e-08
-3.32883e-08
-9.04496e-09
-5.41748e-08
2.58588e-09
-7.26294e-08
1.48309e-08
-8.7637e-08
2.76371e-08
-9.87746e-08
4.15182e-08
-1.05668e-07
5.80017e-08
-1.08009e-07
7.79175e-08
-1.03663e-07
9.91455e-08
-9.07999e-08
1.19004e-07
-7.03781e-08
1.36687e-07
-4.65175e-08
1.52071e-07
-2.01592e-08
1.64846e-07
6.61329e-09
1.74835e-07
3.27609e-08
1.81444e-07
5.55236e-08
1.849e-07
7.39233e-08
1.84992e-07
8.58905e-08
1.83076e-07
9.20977e-08
1.79324e-07
9.3133e-08
1.74634e-07
9.18031e-08
8.41437e-08
1.75686e-07
-1.90672e-09
1.74536e-07
-2.41363e-09
1.72712e-07
-3.88287e-09
1.70578e-07
-4.55017e-09
1.68042e-07
-5.52689e-09
1.64788e-07
-7.09385e-09
1.60827e-07
-8.82e-09
1.55932e-07
-1.10973e-08
1.50083e-07
-1.37573e-08
1.42847e-07
-1.78121e-08
1.34065e-07
-2.26634e-08
1.23213e-07
-3.10296e-08
1.09256e-07
-4.02733e-08
9.41303e-08
-5.96954e-08
1.01669e-07
-1.1687e-07
-3.88984e-09
-9.06072e-09
2.46247e-09
-1.57012e-08
1.04599e-08
-2.22836e-08
1.86157e-08
-2.87598e-08
2.8444e-08
-3.51777e-08
3.90256e-08
-4.13088e-08
4.89525e-08
-4.62395e-08
5.64131e-08
-4.96968e-08
6.01712e-08
-5.19225e-08
5.98391e-08
-5.24022e-08
5.38517e-08
-5.08053e-08
4.20602e-08
-4.67202e-08
2.4695e-08
-3.98619e-08
2.65911e-09
-3.1022e-08
-2.02324e-08
-2.04256e-08
-4.38847e-08
-9.01189e-09
-6.55885e-08
2.42861e-09
-8.40699e-08
1.3399e-08
-9.86074e-08
2.39982e-08
-1.09374e-07
3.44652e-08
-1.16135e-07
4.50476e-08
-1.18591e-07
5.78737e-08
-1.16489e-07
7.47175e-08
-1.07644e-07
9.36778e-08
-8.93384e-08
1.114e-07
-6.42398e-08
1.2733e-07
-3.60895e-08
1.40989e-07
-7.04522e-09
1.52297e-07
2.14525e-08
1.60808e-07
4.7013e-08
1.66501e-07
6.82299e-08
1.69045e-07
8.33466e-08
1.69197e-07
9.19459e-08
1.67682e-07
9.46476e-08
1.65222e-07
9.42631e-08
8.85404e-08
1.74989e-07
-9.53992e-10
1.73781e-07
-1.20585e-09
1.71838e-07
-1.94043e-09
1.69563e-07
-2.27519e-09
1.66809e-07
-2.77244e-09
1.63273e-07
-3.55792e-09
1.589e-07
-4.44698e-09
1.53405e-07
-5.60275e-09
1.46664e-07
-7.01605e-09
1.37953e-07
-9.10124e-09
1.27097e-07
-1.1807e-08
1.12335e-07
-1.62679e-08
9.39594e-08
-2.18975e-08
6.82907e-08
-3.40267e-08
-4.85793e-08
-7.73277e-09
1.01952e-08
-1.68455e-08
1.95727e-08
-2.50683e-08
2.68385e-08
-3.21538e-08
3.55295e-08
-3.80056e-08
4.48775e-08
-4.26663e-08
5.36133e-08
-4.59651e-08
5.97119e-08
-4.81893e-08
6.23954e-08
-4.91614e-08
6.08112e-08
-4.82851e-08
5.29754e-08
-4.47138e-08
3.8489e-08
-3.75903e-08
1.75715e-08
-2.85787e-08
-6.35246e-09
-1.75246e-08
-3.12866e-08
-5.66541e-09
-5.57438e-08
5.99258e-09
-7.72465e-08
1.63117e-08
-9.4389e-08
2.48535e-08
-1.07149e-07
3.17199e-08
-1.1624e-07
3.78223e-08
-1.22238e-07
4.40675e-08
-1.24836e-07
5.10154e-08
-1.23437e-07
6.01148e-08
-1.16743e-07
7.367e-08
-1.02894e-07
8.95456e-08
-8.01153e-08
1.0472e-07
-5.12637e-08
1.18391e-07
-2.07161e-08
1.30326e-07
9.51719e-09
1.40081e-07
3.72578e-08
1.47454e-07
6.08566e-08
1.52184e-07
7.86171e-08
1.54496e-07
8.96333e-08
1.54764e-07
9.438e-08
1.54044e-07
9.49835e-08
9.11474e-08
1.74638e-07
2.98954e-11
1.73399e-07
3.28243e-11
1.71396e-07
6.28424e-11
1.69045e-07
7.56404e-11
1.6618e-07
9.21672e-11
1.62501e-07
1.21082e-10
1.579e-07
1.54565e-10
1.52102e-07
1.95164e-10
1.44842e-07
2.43584e-10
1.35439e-07
3.02058e-10
1.23253e-07
3.79347e-10
1.06518e-07
4.66673e-10
8.40282e-08
5.92292e-10
4.92824e-08
7.19192e-10
7.0307e-10
-6.13297e-09
1.63282e-08
-1.46462e-08
2.80859e-08
-2.235e-08
3.45423e-08
-2.86927e-08
4.18722e-08
-3.35528e-08
4.97376e-08
-3.67617e-08
5.68222e-08
-3.84543e-08
6.14045e-08
-3.88439e-08
6.27849e-08
-3.69483e-08
5.89156e-08
-3.2022e-08
4.8049e-08
-2.39949e-08
3.04619e-08
-1.40624e-08
7.63895e-09
-3.13969e-09
-1.72752e-08
8.70055e-09
-4.31268e-08
2.04338e-08
-6.74771e-08
3.14253e-08
-8.82381e-08
4.08406e-08
-1.03804e-07
4.74628e-08
-1.13771e-07
5.08264e-08
-1.19604e-07
5.15435e-08
-1.22955e-07
5.14174e-08
-1.2471e-07
5.26922e-08
-1.24712e-07
5.60981e-08
-1.20149e-07
6.24251e-08
-1.09221e-07
7.30067e-08
-9.06969e-08
8.59185e-08
-6.41755e-08
9.85597e-08
-3.33574e-08
1.10278e-07
-2.20152e-09
1.20589e-07
2.69476e-08
1.29092e-07
5.23529e-08
1.35518e-07
7.21915e-08
1.39772e-07
8.53796e-08
1.41745e-07
9.24068e-08
1.42296e-07
9.44327e-08
9.23059e-08
1.74645e-07
1.01247e-09
1.73408e-07
1.27022e-09
1.71407e-07
2.06372e-09
1.69059e-07
2.42332e-09
1.66198e-07
2.95305e-09
1.62524e-07
3.79551e-09
1.57929e-07
4.74941e-09
1.52139e-07
5.98572e-09
1.44891e-07
7.49165e-09
1.35497e-07
9.6958e-09
1.23335e-07
1.25414e-08
1.06612e-07
1.71897e-08
8.4202e-08
2.3002e-08
4.94563e-08
3.54649e-08
5.01594e-08
-4.70866e-09
2.10369e-08
-1.01232e-08
3.35004e-08
-1.52854e-08
3.97045e-08
-1.92016e-08
4.57883e-08
-2.15711e-08
5.21072e-08
-2.208e-08
5.7331e-08
-2.07395e-08
6.0064e-08
-1.70921e-08
5.91376e-08
-1.05642e-08
5.23877e-08
-1.75042e-09
3.92353e-08
8.47623e-09
2.02352e-08
1.88528e-08
-2.73759e-09
2.95684e-08
-2.79908e-08
4.01849e-08
-5.37434e-08
5.03571e-08
-7.76493e-08
5.9597e-08
-9.7478e-08
6.73959e-08
-1.11603e-07
7.28307e-08
-1.19206e-07
7.48218e-08
-1.21595e-07
7.31697e-08
-1.21303e-07
6.79047e-08
-1.19445e-07
6.19029e-08
-1.1871e-07
5.88438e-08
-1.1709e-07
5.95502e-08
-1.09927e-07
6.39099e-08
-9.50566e-08
7.22908e-08
-7.25565e-08
8.27629e-08
-4.38295e-08
9.34001e-08
-1.28387e-08
1.03561e-07
1.67866e-08
1.1264e-07
4.32742e-08
1.20232e-07
6.45993e-08
1.25986e-07
7.96262e-08
1.29469e-07
8.89237e-08
1.31033e-07
9.28686e-08
9.23818e-08
1.75011e-07
1.96134e-09
1.73807e-07
2.47415e-09
1.71872e-07
3.99899e-09
1.69606e-07
4.68899e-09
1.66863e-07
5.69662e-09
1.6334e-07
7.31783e-09
1.58988e-07
9.10202e-09
1.53511e-07
1.14626e-08
1.46807e-07
1.41957e-08
1.38122e-07
1.83803e-08
1.2733e-07
2.33337e-08
1.12592e-07
3.19281e-08
9.43251e-08
4.12684e-08
6.86763e-08
6.11137e-08
1.18836e-07
-3.70688e-09
2.47437e-08
-4.08128e-09
3.38748e-08
-4.80939e-09
4.04326e-08
-4.46714e-09
4.54461e-08
-2.58451e-09
5.02245e-08
1.12219e-09
5.36243e-08
6.74155e-09
5.44446e-08
1.46298e-08
5.12493e-08
2.43835e-08
4.26339e-08
3.50188e-08
2.86e-08
4.54229e-08
9.8311e-09
5.55084e-08
-1.28231e-08
6.50433e-08
-3.75256e-08
7.38914e-08
-6.25915e-08
8.17619e-08
-8.55198e-08
8.81935e-08
-1.0391e-07
9.28695e-08
-1.16279e-07
9.55678e-08
-1.21904e-07
9.632e-08
-1.22347e-07
9.4623e-08
-1.19606e-07
8.82799e-08
-1.13102e-07
7.8013e-08
-1.08443e-07
6.80025e-08
-1.07079e-07
6.23086e-08
-1.04233e-07
6.15773e-08
-9.43252e-08
6.49929e-08
-7.59721e-08
7.20202e-08
-5.08568e-08
8.08081e-08
-2.16265e-08
9.0169e-08
7.42566e-09
9.92574e-08
3.41858e-08
1.07426e-07
5.64305e-08
1.14048e-07
7.30042e-08
1.18673e-07
8.42992e-08
1.21172e-07
9.03694e-08
9.17394e-08
1.75722e-07
2.84615e-09
1.74579e-07
3.61785e-09
1.72766e-07
5.81138e-09
1.70646e-07
6.80878e-09
1.68129e-07
8.21425e-09
1.64897e-07
1.055e-08
1.60967e-07
1.30312e-08
1.56107e-07
1.63229e-08
1.50311e-07
1.99914e-08
1.43123e-07
2.55686e-08
1.3443e-07
3.20271e-08
1.23665e-07
4.26931e-08
1.09836e-07
5.50973e-08
9.49018e-08
7.60478e-08
1.02993e-07
1.10744e-07
1.02993e-07
-5.65458e-09
5.65457e-09
-8.80348e-11
1.91772e-08
3.73008e-09
3.00567e-08
8.28779e-09
3.58749e-08
1.35712e-08
4.01627e-08
2.01333e-08
4.36625e-08
2.81716e-08
4.5586e-08
3.77441e-08
4.4872e-08
4.87248e-08
4.02687e-08
6.03893e-08
3.09694e-08
7.18102e-08
1.71791e-08
8.25444e-08
-9.03134e-10
9.24009e-08
-2.26796e-08
1.01483e-07
-4.6608e-08
1.09523e-07
-7.06314e-08
1.15875e-07
-9.18716e-08
1.19814e-07
-1.07849e-07
1.2088e-07
-1.17345e-07
1.19593e-07
-1.20617e-07
1.1673e-07
-1.19484e-07
1.121e-07
-1.14976e-07
1.05694e-07
-1.06696e-07
9.58011e-08
-9.85501e-08
8.27779e-08
-9.40562e-08
7.09376e-08
-9.23928e-08
6.43444e-08
-8.77321e-08
6.33401e-08
-7.49679e-08
6.66651e-08
-5.41818e-08
7.31201e-08
-2.80815e-08
8.103e-08
-4.84166e-10
8.95012e-08
2.57146e-08
9.76218e-08
4.83099e-08
1.04517e-07
6.61086e-08
1.09846e-07
7.89708e-08
1.13173e-07
8.7042e-08
9.06112e-08
1.76756e-07
3.64004e-09
1.75686e-07
4.6877e-09
1.74046e-07
7.45194e-09
1.72146e-07
8.70853e-09
1.69929e-07
1.0431e-08
1.67075e-07
1.34037e-08
1.63695e-07
1.64118e-08
1.59645e-07
2.03728e-08
1.55004e-07
2.46327e-08
1.49609e-07
3.0963e-08
1.4341e-07
3.82258e-08
1.36649e-07
4.94542e-08
1.28467e-07
6.32798e-08
1.21221e-07
8.32933e-08
1.07843e-07
1.24122e-07
2.10836e-07
-3.19143e-10
5.9737e-09
4.21209e-09
1.46459e-08
1.27163e-08
2.15525e-08
2.22503e-08
2.63408e-08
3.21917e-08
3.02213e-08
4.2863e-08
3.29911e-08
5.44618e-08
3.39872e-08
6.69705e-08
3.23634e-08
8.01005e-08
2.71387e-08
9.32474e-08
1.78225e-08
1.05667e-07
4.75995e-09
1.17321e-07
-1.2558e-08
1.28029e-07
-3.33871e-08
1.37621e-07
-5.61999e-08
1.45156e-07
-7.81668e-08
1.49651e-07
-9.63662e-08
1.50775e-07
-1.08973e-07
1.48806e-07
-1.15376e-07
1.44109e-07
-1.15921e-07
1.36817e-07
-1.12192e-07
1.28155e-07
-1.06313e-07
1.20204e-07
-9.87449e-08
1.11262e-07
-8.96082e-08
9.89982e-08
-8.17924e-08
8.45875e-08
-7.79821e-08
7.25767e-08
-7.57213e-08
6.64528e-08
-6.88439e-08
6.60168e-08
-5.37458e-08
6.98479e-08
-3.19126e-08
7.60061e-08
-6.64244e-09
8.34025e-08
1.83182e-08
9.09591e-08
4.07534e-08
9.77746e-08
5.9293e-08
1.03484e-07
7.32619e-08
1.07424e-07
8.3102e-08
8.92857e-08
1.78078e-07
4.32129e-09
1.77071e-07
5.69429e-09
1.75666e-07
8.85772e-09
1.74082e-07
1.02918e-08
1.72147e-07
1.23664e-08
1.69721e-07
1.58294e-08
1.66925e-07
1.92082e-08
1.63786e-07
2.35117e-08
1.60344e-07
2.80749e-08
1.56766e-07
3.45403e-08
1.53152e-07
4.18406e-08
1.50402e-07
5.22035e-08
1.49259e-07
6.44228e-08
1.52485e-07
8.00679e-08
1.69934e-07
1.06673e-07
2.68675e-07
1.12095e-07
1.55286e-07
1.13389e-07
1.55286e-07
1.08315e-08
-1.08315e-08
6.04103e-09
4.79049e-09
8.56825e-09
3.44646e-09
1.64313e-08
6.78285e-09
2.75234e-08
1.04604e-08
3.93956e-08
1.44686e-08
5.18974e-08
1.77195e-08
6.52309e-08
1.96576e-08
7.93179e-08
1.99002e-08
9.40291e-08
1.76522e-08
1.09074e-07
1.20942e-08
1.24086e-07
2.81045e-09
1.38264e-07
-9.41894e-09
1.51598e-07
-2.58912e-08
1.63719e-07
-4.55083e-08
1.73224e-07
-6.57052e-08
1.78712e-07
-8.3655e-08
1.79706e-07
-9.736e-08
1.76578e-07
-1.05845e-07
1.70224e-07
-1.09022e-07
1.62015e-07
-1.07711e-07
1.52811e-07
-1.02989e-07
1.42786e-07
-9.62878e-08
1.32918e-07
-8.88775e-08
1.23769e-07
-8.04587e-08
1.13353e-07
-7.13768e-08
9.98728e-08
-6.45017e-08
8.54326e-08
-6.12811e-08
7.45173e-08
-5.79286e-08
6.97693e-08
-4.89979e-08
7.04398e-08
-3.2583e-08
7.46548e-08
-1.08575e-08
8.07749e-08
1.21981e-08
8.75138e-08
3.40145e-08
9.40028e-08
5.2804e-08
9.97021e-08
6.75626e-08
1.03795e-07
7.90087e-08
8.80067e-08
1.79628e-07
4.89182e-09
1.78625e-07
6.69675e-09
1.77667e-07
9.81606e-09
1.76395e-07
1.15638e-08
1.7464e-07
1.41215e-08
1.72658e-07
1.78107e-08
1.7043e-07
2.14362e-08
1.68231e-07
2.57108e-08
1.65829e-07
3.04772e-08
1.63931e-07
3.64378e-08
1.62294e-07
4.34783e-08
1.62567e-07
5.19301e-08
1.64955e-07
6.20345e-08
1.72053e-07
7.29705e-08
1.89944e-07
8.87819e-08
2.04377e-07
9.76623e-08
2.13973e-07
1.03793e-07
2.80935e-07
8.83247e-08
2.10925e-07
7.00101e-08
1.61293e-07
4.96319e-08
1.25314e-07
3.59785e-08
1.03178e-07
2.21366e-08
7.37638e-08
1.85823e-08
6.61149e-08
1.24394e-08
6.28878e-08
6.67352e-09
6.4611e-08
5.05964e-09
6.97964e-08
5.27501e-09
7.83692e-08
5.89577e-09
8.92841e-08
6.80456e-09
1.01805e-07
7.13686e-09
1.15731e-07
5.97406e-09
1.30938e-07
2.44497e-09
1.4641e-07
-3.3779e-09
1.61585e-07
-1.23641e-08
1.76819e-07
-2.46526e-08
1.90923e-07
-3.99956e-08
2.01719e-07
-5.63047e-08
2.07315e-07
-7.13009e-08
2.07454e-07
-8.37935e-08
2.0306e-07
-9.29669e-08
1.95339e-07
-9.8123e-08
1.85431e-07
-9.91144e-08
1.74592e-07
-9.68725e-08
1.63898e-07
-9.22945e-08
1.53532e-07
-8.59219e-08
1.43357e-07
-7.87032e-08
1.3399e-07
-7.10911e-08
1.25075e-07
-6.24624e-08
1.14237e-07
-5.36633e-08
1.00539e-07
-4.75829e-08
8.69268e-08
-4.43164e-08
7.76721e-08
-3.97432e-08
7.44514e-08
-2.93624e-08
7.62401e-08
-1.26462e-08
8.09006e-08
7.53756e-09
8.67765e-08
2.81386e-08
9.28031e-08
4.67774e-08
9.81948e-08
6.2171e-08
1.02482e-07
7.47215e-08
8.64841e-08
1.81324e-07
5.39748e-09
1.80019e-07
8.00142e-09
1.80298e-07
9.53674e-09
1.79036e-07
1.28266e-08
1.77269e-07
1.5888e-08
1.75745e-07
1.9335e-08
1.74097e-07
2.30835e-08
1.72687e-07
2.71217e-08
1.71158e-07
3.20059e-08
1.70478e-07
3.71177e-08
1.70209e-07
4.37471e-08
1.72052e-07
5.00871e-08
1.7518e-07
5.89071e-08
1.82317e-07
6.58329e-08
1.93949e-07
7.71505e-08
2.11187e-07
8.04239e-08
2.29484e-07
8.54957e-08
2.3306e-07
8.47482e-08
2.29933e-07
7.31377e-08
2.21316e-07
5.82488e-08
2.10973e-07
4.63219e-08
1.9827e-07
3.48395e-08
1.89408e-07
2.74439e-08
1.79488e-07
2.2359e-08
1.70617e-07
1.5545e-08
1.64926e-07
1.075e-08
1.61977e-07
8.22478e-09
1.61893e-07
5.97984e-09
1.64572e-07
4.12486e-09
1.70148e-07
1.56126e-09
1.78384e-07
-2.26254e-09
1.88437e-07
-7.60739e-09
1.99777e-07
-1.47185e-08
2.11321e-07
-2.39076e-08
2.21584e-07
-3.49153e-08
2.2823e-07
-4.66418e-08
2.30369e-07
-5.84441e-08