/*--------------------------------*- C++ -*----------------------------------*\
| =========                 |                                                 |
| \\      /  F ield         | OpenFOAM: The Open Source CFD Toolbox           |
|  \\    /   O peration     | Version:  2.3.0                                 |
|   \\  /    A nd           | Web:      www.OpenFOAM.org                      |
|    \\/     M anipulation  |                                                 |
\*---------------------------------------------------------------------------*/
FoamFile
{
    version     2.0;
    format      ascii;
    class       volScalarField;
    location    "1.7";
    object      alpha.water;
}
// * * * * * * * * * * * * * * * * * * * * * * * * * * * * * * * * * * * * * //

dimensions      [0 0 0 0 0 0 0];

internalField   nonuniform List<scalar> 
2268
(
0.999991
0.999991
0.999983
0.975424
0.93074
0.940157
0.999165
1
1
1
1
1
1
0.999981
0.999932
0.999931
0.998203
0.982919
0.981901
0.983021
0.999169
0.999652
0.999819
0.999991
0.990033
0.904172
0.730271
0.704231
0.704235
0.848457
0.994286
1
1
1
1
1
0.999996
0.999693
0.999479
0.999403
0.997178
0.994219
0.99598
0.992557
0.99327
0.999812
0.999851
0.953397
0.715273
0.704738
0.704235
0.704229
0.816302
0.98495
1
1
1
0.999995
0.999971
0.999986
0.999998
0.999684
0.998081
0.998716
0.998716
0.998654
0.998681
0.999418
0.998753
0.999059
0.966329
0.719098
0.705158
0.704723
0.704672
0.715344
0.98476
0.999519
1
0.999987
0.99985
0.999847
0.999961
0.999998
0.999998
0.99893
0.989045
0.988952
0.983169
0.997781
0.999444
0.999443
0.99821
0.955878
0.845974
0.883696
0.848928
0.856848
0.802831
0.935807
0.999996
0.999998
0.999848
0.999822
0.999846
0.99999
0.999998
0.999998
0.999997
0.984008
0.96046
0.960516
0.971361
0.996729
0.999445
0.994441
0.90073
0.955398
0.985988
0.987885
0.988412
0.97259
0.921127
0.997946
0.999996
0.999878
0.999892
0.999982
0.999993
0.999998
0.999998
0.999998
0.995053
0.971248
0.960447
0.960687
0.981733
0.999236
0.980221
0.90073
0.961638
0.987885
0.988415
0.990489
0.985772
0.952593
0.999763
0.999995
0.999982
0.999979
0.999978
0.999981
0.999995
0.999987
0.999982
0.998415
0.994819
0.978951
0.988398
0.982787
0.996066
0.967479
0.909435
0.971593
0.971703
0.988597
0.99466
0.997993
0.999073
0.999648
0.999995
0.999995
0.999993
0.999902
0.999818
0.999912
0.999801
0.999978
0.987852
0.903334
0.993696
0.995293
0.996625
0.996771
0.99527
0.992575
0.992482
0.979853
0.958336
0.951758
0.955944
0.977715
0.979358
0.979358
0.923462
0.885701
0.885701
0.885701
0.885931
0.884911
0.897071
0.918497
0.917921
0.99527
0.995166
0.945994
0.881896
0.881315
0.880841
0.880492
0.880041
0.91062
0.933146
0.932393
0.892903
0.885616
0.885927
0.885297
0.885547
0.91266
0.918467
0.893367
0.995251
0.976534
0.894028
0.893236
0.960088
0.967954
0.927773
0.861683
0.857317
0.857317
0.857327
0.883415
0.963782
0.957988
0.934371
0.936329
0.93894
0.896265
0.893367
0.99516
0.982919
0.951321
0.988922
0.999095
0.999103
0.999095
0.992277
0.916877
0.872257
0.914781
0.976361
0.982676
0.98256
0.98228
0.981912
0.907202
0.89339
0.893379
0.994259
0.996751
0.999131
0.999111
0.99909
0.999095
0.999104
0.999098
0.999088
0.999092
0.996391
0.985724
0.982782
0.982664
0.982539
0.982277
0.895012
0.893372
0.89339
0.993999
0.999097
0.999131
0.999131
0.999124
0.998983
0.999035
0.999083
0.999092
0.999088
0.969819
0.943745
0.972042
0.982539
0.981708
0.952552
0.934159
0.930339
0.896697
0.995197
0.997845
0.999132
0.999127
0.998806
0.998256
0.998465
0.998912
0.999069
0.992729
0.939814
0.939064
0.95705
0.981868
0.969454
0.970797
0.975454
0.975486
0.974325
0.993671
0.995686
0.999072
0.998653
0.996374
0.974594
0.971056
0.984211
0.998506
0.985433
0.939319
0.939061
0.957849
0.978222
0.977048
0.975838
0.975847
0.975843
0.975826
0.968573
0.970169
0.970846
0.971593
0.928578
0.836776
0.855193
0.972196
0.96767
0.968289
0.975496
0.983969
0.967152
0.976239
0.945991
0.992325
0.999972
0.997019
0.849974
0.992658
0.993833
0.995693
0.996771
0.691808
0.775066
0.803703
0.798596
0.840195
0.452267
0.173004
0.211917
0.2768
0.296304
0.35504
0.492003
0.46936
0.542367
0.617369
0.833791
0.999902
0.985365
0.863337
0.806668
0.772494
0.834607
0.930519
0.0999574
0.161949
0.203369
0.180639
0.0756009
9.55998e-05
7.59068e-05
6.59127e-05
6.19618e-05
6.33654e-05
0.000734819
0.0726875
0.192337
0.218347
0.294631
0.505185
0.578312
0.533117
0.462979
0.206924
0.0749107
0.117164
0.245982
0.00186554
0.00080366
0.000164929
0.000144761
0.000105665
8.11859e-05
6.76635e-05
6.15942e-05
6.25306e-05
6.1393e-05
5.23249e-05
0.000523633
0.0169291
0.00579069
0.000279661
0.068751
0.214726
0.284752
0.060725
0.000241345
0.000207233
0.0002034
0.00020744
0.000797912
0.000539672
0.000383816
0.000448907
0.000388001
0.000285423
7.83122e-05
0.000165727
0.000212992
0.000158584
3.87042e-05
0.000124951
0.000129791
0.000144759
0.000272244
0.000274675
0.000269773
0.000284903
0.000241476
0.000207387
0.000203459
0.000200354
0.000203317
0.000579236
0.000580745
0.000767442
0.000779292
0.000673577
0.000263673
2.5991e-06
2.29759e-06
0.00014119
0.000134686
1.94057e-05
2.73128e-05
3.50743e-05
0.000115515
0.000339306
0.000269767
0.000343993
0.00119249
0.000651534
0.00083993
0.000205852
0.000200203
0.00019899
0.000546713
0.000572191
0.000775397
0.000289829
6.91688e-06
2.03684e-06
1.09111e-06
9.07145e-07
8.82406e-07
4.42393e-06
1.48379e-06
5.8559e-06
1.01296e-05
4.00966e-05
0.000304383
0.000560524
0.000606554
0.00141893
0.00141893
0.000967859
0.000277441
0.000198219
0.000197913
0.000547071
0.000571817
0.000130114
9.58323e-06
6.67309e-06
2.54274e-06
1.08999e-06
8.82331e-07
8.53116e-07
8.22149e-07
8.88631e-07
1.55387e-06
3.46907e-06
2.04989e-05
0.000353256
0.000362245
0.000572902
0.00128294
0.000771635
0.00028614
0.000200217
0.000197914
0.000198219
0.000614724
0.000547591
7.74215e-05
4.74873e-06
9.5913e-06
6.08992e-06
1.74777e-06
8.46863e-07
8.25115e-07
8.25115e-07
8.24997e-07
8.94188e-07
1.78529e-06
5.08976e-05
0.000352963
0.000226963
0.000434285
0.000690495
0.002627
0.00633076
0.000198366
0.000198219
0.000941804
0.000253256
1.66365e-06
1.63111e-06
2.23635e-06
8.6271e-05
0.000178318
2.02014e-05
1.20982e-06
8.31454e-07
8.25115e-07
8.32903e-07
8.57154e-07
1.04083e-06
4.52748e-05
0.000215593
0.000210666
0.00117138
0.00339315
0.0102342
0.0110344
0.00588304
0.00175485
0.00182394
1.66365e-06
1.63111e-06
1.09273e-06
1.53143e-06
0.000497096
0.00101888
0.000535186
3.75265e-05
1.25027e-06
8.26096e-07
8.58921e-07
9.49859e-07
1.32768e-06
4.08754e-06
2.20558e-05
0.000342429
0.00416857
0.011102
0.011109
0.011109
0.0110344
0.00282516
0.00178993
2.94388e-06
1.55007e-06
4.44818e-07
6.71056e-06
0.00066206
0.0010176
0.00101969
0.000874142
3.89949e-05
2.72729e-05
9.59527e-07
1.51855e-06
3.86849e-06
1.25198e-05
5.86742e-05
0.00307562
0.0108943
0.0110017
0.011109
0.0105161
0.00773661
0.00340082
0.00183804
0.000311183
2.61236e-05
2.68555e-07
4.85791e-08
0.000167181
0.000970377
0.00100266
0.000983198
0.000977997
0.000918027
3.73666e-05
3.92645e-06
9.1864e-06
3.11316e-05
0.000509612
0.00821632
0.0108134
0.0108943
0.00541612
9.38933e-05
0.000112588
0.000337284
0.00406291
0.000837516
8.45564e-05
4.89844e-08
5.02852e-09
1.34208e-08
6.39028e-09
0.000450396
0.000685477
0.00017054
0.000177793
0.000255098
0.000108879
7.39978e-05
0.000337052
0.00126843
0.00952878
0.0107324
0.00655881
8.75492e-05
8.52025e-05
8.49954e-05
0.000290968
0.000420426
0.000837516
9.83842e-05
5.02909e-09
4.37836e-09
5.03027e-09
5.97266e-09
6.26403e-09
6.26403e-09
1.05629e-08
4.61556e-07
0.000114116
0.000414851
0.000547403
0.00047667
0.00107062
0.00846911
0.0104689
0.00392316
8.52025e-05
8.46581e-05
8.18446e-05
7.01096e-05
6.3735e-05
0.000836549
2.65171e-05
4.3779e-09
4.37788e-09
4.37017e-09
5.44885e-09
6.26494e-09
8.5615e-09
8.6383e-08
2.60013e-06
7.80005e-06
0.000145498
0.00020366
0.000170287
0.000521703
0.00650119
0.00992254
0.00561719
8.75508e-05
8.51993e-05
0.00145804
0.00233096
0.000806551
0.00081154
1.85532e-08
1.82446e-08
4.37859e-09
8.35069e-09
4.5657e-08
4.05906e-08
4.04736e-08
3.44539e-07
2.56936e-06
1.61737e-06
3.05432e-06
7.09234e-06
9.72538e-06
0.000109862
0.00253775
0.00857997
0.00830123
0.00347502
0.000230681
0.00282201
0.00602833
0.00613002
0.0005961
1.93643e-08
2.24752e-07
1.2778e-08
2.03914e-07
5.75986e-05
0.000126108
5.86818e-05
4.34093e-07
1.46408e-06
1.59711e-06
1.59436e-06
1.74286e-06
2.21172e-06
7.76529e-06
4.10028e-05
0.00220885
0.00795788
0.00810437
0.00538658
0.00202959
0.00307073
0.00612844
0.000614589
2.9281e-08
2.13681e-07
4.45038e-07
0.000187243
0.000477271
0.000500671
0.000500443
0.000214544
1.61098e-06
1.60865e-06
1.28896e-06
6.62272e-07
4.8637e-07
2.09081e-06
8.96538e-06
4.22194e-05
0.00154629
0.00819675
0.00879
0.00864263
0.00758411
0.00242481
0.00068724
4.16554e-05
3.7932e-07
0.00012832
0.000493447
0.000497355
0.000500408
0.000500883
0.000500408
0.000159283
1.2857e-06
6.78463e-07
3.85927e-07
1.94028e-07
3.78868e-07
2.19174e-06
7.63785e-06
2.27142e-05
0.000509933
0.00618066
0.0085316
0.00621428
0.00129232
0.00068724
0.000342377
4.74396e-06
0.00040223
0.000494777
0.000401827
0.000328718
0.000500408
0.000497946
0.000427603
3.23111e-05
3.79346e-07
1.82821e-07
1.30975e-07
1.61502e-07
3.77278e-07
1.34431e-06
3.62708e-06
9.55145e-06
0.000194987
0.00106596
0.000889846
0.000347718
0.00068724
0.000381526
6.04841e-05
0.000420898
0.000314467
3.75305e-06
4.17884e-06
9.80476e-05
0.000280353
0.00010391
5.02584e-06
5.35112e-07
1.20297e-07
1.24288e-07
1.31519e-07
1.59379e-07
2.25108e-07
1.3669e-07
1.30875e-06
4.64547e-06
5.45743e-06
1.67197e-05
3.50924e-05
0.000684942
0.000108438
8.26563e-05
0.000400002
3.00281e-06
3.36627e-06
3.92341e-06
3.88436e-06
3.21885e-06
2.91696e-05
3.7999e-05
1.18506e-07
1.22863e-07
1.20565e-07
1.24979e-07
1.51395e-07
9.0109e-08
8.41684e-08
1.2038e-07
4.15052e-07
4.8369e-07
1.39334e-06
3.49642e-06
0.000265487
0.000113865
0.000182778
0.000229947
2.82618e-06
3.00281e-06
6.6049e-06
3.09375e-06
1.91909e-06
3.74599e-05
5.41074e-05
5.41632e-05
5.24929e-05
9.98146e-06
1.22884e-07
9.25446e-08
5.30955e-08
4.20827e-08
2.71644e-08
3.38532e-08
3.15024e-08
6.65649e-08
1.62634e-07
0.000129047
0.000124162
0.0001935
0.00015192
2.20262e-06
4.88354e-06
7.2341e-06
5.77763e-06
1.07591e-06
3.26573e-06
4.55063e-05
5.41074e-05
1.5065e-05
4.09925e-06
1.04063e-07
5.28912e-08
4.15823e-08
3.3685e-08
2.03243e-08
9.24995e-09
3.85351e-09
2.44159e-09
5.06044e-09
6.25116e-05
0.000140562
0.000193988
8.82657e-05
1.38689e-06
4.43893e-06
7.2341e-06
1.43572e-06
9.54142e-07
1.05129e-06
4.2571e-06
4.7234e-05
4.7358e-05
4.00676e-05
1.29666e-05
8.21867e-08
3.17407e-08
1.46e-08
1.04532e-08
5.83114e-09
2.32548e-09
1.83345e-09
1.79204e-09
6.11022e-05
0.000100778
0.00019186
8.54082e-05
9.94913e-07
1.57096e-06
2.82171e-06
9.09763e-07
9.20875e-07
9.21029e-07
1.49156e-06
1.76141e-05
4.5929e-05
4.55837e-05
4.54417e-05
2.49818e-05
1.17557e-07
1.90037e-08
4.3182e-09
2.15586e-09
1.83406e-09
1.79187e-09
1.79137e-09
6.08431e-05
6.11022e-05
0.00012651
0.000128843
9.36317e-07
9.2083e-07
9.20953e-07
9.18606e-07
9.21309e-07
9.30223e-07
9.23649e-07
3.13668e-06
4.62769e-05
4.57957e-05
4.54504e-05
3.64448e-05
2.44548e-05
1.03097e-05
1.95126e-08
4.32139e-09
2.38354e-09
1.8299e-09
1.78828e-09
6.08431e-05
6.08431e-05
6.17819e-05
0.000146303
1.10811e-06
9.21319e-07
9.20924e-07
9.21328e-07
9.14539e-07
9.18262e-07
9.64427e-07
8.3971e-07
1.45072e-05
4.56959e-05
4.55876e-05
4.44036e-05
1.01354e-05
1.45047e-05
1.24193e-05
1.65139e-06
5.38139e-09
2.33938e-09
1.85331e-09
7.07063e-05
0.000217396
0.000220363
0.000137207
3.25401e-06
9.22707e-07
9.21338e-07
9.19509e-07
9.07577e-07
9.41083e-07
8.15644e-07
3.62679e-07
8.31714e-06
4.53876e-05
4.52565e-05
1.74509e-05
3.9485e-07
1.14673e-05
1.23262e-05
2.40466e-06
5.23418e-09
5.67426e-09
6.13131e-09
0.000278306
0.000795142
0.000836929
0.000159445
1.14542e-06
9.19182e-07
9.23288e-07
1.57681e-06
1.84137e-06
9.58445e-07
3.3363e-07
2.2575e-07
4.15646e-07
2.22584e-05
4.34476e-05
2.94903e-06
3.4909e-07
1.24446e-06
3.90997e-06
3.20555e-06
4.90928e-09
5.39665e-09
2.51722e-08
0.00027952
0.000679172
0.000836929
0.000570732
1.05166e-05
1.09568e-06
9.40073e-07
1.37085e-06
4.80523e-06
9.71146e-07
2.05212e-07
1.60311e-07
6.69883e-08
4.65291e-06
3.1297e-05
2.04894e-06
3.41163e-07
3.15782e-07
2.34646e-06
2.13149e-06
3.00002e-09
1.46555e-09
2.96951e-09
7.17945e-05
0.000161131
0.000836929
0.000831917
0.000141071
2.52522e-06
1.14621e-06
1.3685e-06
3.89316e-06
1.54416e-05
3.00855e-05
6.70686e-08
3.17148e-08
6.53311e-08
4.84481e-06
1.35845e-05
9.11879e-07
3.51577e-08
5.62013e-09
2.2058e-08
2.87447e-08
6.91456e-10
2.95783e-11
9.07241e-06
6.06913e-06
0.000269944
0.000349764
0.000340955
0.000111565
2.46115e-06
1.51422e-06
2.2167e-06
0.000185715
0.000165864
3.15885e-08
2.8026e-08
1.68731e-08
3.13896e-06
1.35939e-05
6.41388e-06
1.10492e-07
2.18156e-10
1.77185e-09
6.77163e-08
8.10811e-10
1.81069e-12
7.68259e-06
2.55511e-06
1.7457e-06
9.52326e-07
0.000264584
0.000478594
0.000144939
3.26334e-06
3.86853e-06
0.000259971
0.000216639
1.78713e-06
1.52792e-08
1.94728e-09
2.21736e-07
8.3767e-06
9.93797e-06
4.3119e-06
2.18149e-10
8.53052e-10
4.82055e-09
2.16218e-12
2.14922e-12
2.00691e-06
2.04428e-06
6.31173e-07
2.2078e-07
9.50114e-05
0.000520158
0.000546262
9.1191e-05
7.94688e-06
0.00026078
0.000174698
2.10072e-06
2.06183e-09
1.03378e-09
3.61366e-12
5.31374e-07
8.94031e-06
2.42388e-06
2.12467e-10
2.11703e-10
4.09129e-12
3.90449e-12
4.15608e-12
2.74991e-09
2.45569e-06
8.53201e-07
3.91536e-08
2.20779e-07
0.000377374
0.000566536
0.000406852
3.16194e-05
0.000243421
0.000127886
2.66566e-07
1.59327e-09
1.71086e-10
1.22071e-12
6.09909e-13
6.14965e-13
2.03312e-12
6.16347e-10
1.67865e-09
2.59477e-10
3.57714e-12
3.82379e-12
1.43332e-12
2.11635e-06
3.29236e-07
3.65668e-09
3.91519e-08
0.000464192
0.000578063
0.000557895
5.57843e-05
0.000440971
0.00013936
2.47411e-07
-1.2178e-09
1.31551e-11
3.41094e-12
6.09909e-13
1.85388e-12
5.78221e-11
2.64007e-09
3.01789e-09
8.02097e-13
3.22928e-12
2.93925e-12
1.29113e-12
2.13283e-07
2.4202e-08
-6.15022e-12
0.000286642
0.000576547
0.000576547
0.00035194
0.0002152
0.000469657
0.000168379
2.53746e-07
5.2261e-09
5.0457e-11
1.99478e-12
1.09453e-12
2.68592e-12
2.87564e-10
2.85603e-09
3.1372e-09
7.84449e-13
2.61968e-12
2.63452e-12
1.29108e-12
3.30519e-18
-4.36061e-14
-9.02464e-15
0.000349868
0.000564774
0.00047459
0.000212459
0.000467674
0.00046544
9.13297e-05
9.4456e-08
1.66652e-09
1.80419e-11
1.58073e-12
4.64711e-13
2.75321e-12
6.12034e-11
8.36854e-10
2.30617e-09
9.30686e-14
1.60604e-12
2.08354e-12
3.7794e-13
4.07698e-13
1.15363e-13
3.07001e-22
0.000284719
0.000551486
0.000241114
0.000212459
0.000460935
0.000261837
1.79767e-06
-1.0358e-09
-4.69396e-11
1.28899e-12
1.14932e-12
6.16704e-14
4.68467e-13
1.48323e-12
2.98164e-11
1.7411e-10
6.88861e-14
6.23021e-13
1.16902e-12
8.00983e-14
1.39279e-13
4.37291e-14
1.23748e-15
2.99542e-21
0.000420733
0.000428112
0.000300548
0.000191557
3.68776e-13
-2.54507e-11
-1.63286e-11
-2.16712e-13
6.5171e-13
1.42749e-14
-5.63079e-16
-3.41706e-15
-1.19594e-14
-4.26845e-14
9.83868e-17
1.87019e-14
1.1831e-13
3.89664e-13
0.995659
0.994547
0.994305
0.993872
0.978473
0.987978
0.98577
0.978802
0.384431
0.448436
0.424002
0.368204
0.000215138
0.000244821
0.000329763
0.000470497
0.000205863
0.00131599
0.00233805
0.0012035
0.0006985
0.00289464
0.00294646
0.00292153
0.000199243
0.00214584
0.00295349
0.00287396
0.00019808
0.00148498
0.00292081
0.00139947
0.00163589
0.00169091
0.0016195
0.00146255
0.00159564
0.00163494
0.00201367
0.0106805
0.00164842
0.00177646
0.0078982
0.0119582
0.00402847
0.0105646
0.0120535
0.0120169
0.00474358
0.0029451
0.00264251
0.00332905
0.000245713
5.53902e-05
4.84705e-05
4.86739e-05
5.83389e-05
5.00637e-05
4.19801e-05
4.22783e-05
0.000109403
6.1147e-05
4.22058e-05
4.21865e-05
0.00516507
0.00039158
6.41029e-05
4.22783e-05
0.00618408
0.00624903
0.00631606
0.00566197
0.003333
0.00629442
0.00631472
0.00631472
0.00100375
0.00208449
0.00401162
0.00556252
1.87335e-05
6.36951e-06
3.69855e-06
2.41859e-06
3.88632e-05
1.36962e-05
1.5552e-06
5.80644e-07
3.63706e-06
6.02523e-06
4.51374e-06
7.87031e-07
1.17423e-07
2.59937e-09
3.0021e-09
2.17337e-08
2.20544e-09
2.03504e-09
2.68233e-09
3.10032e-09
1.82699e-09
1.85494e-09
1.77162e-09
-2.038e-09
1.78967e-09
1.70543e-09
-1.12535e-08
6.74714e-08
1.69782e-09
-1.29641e-09
4.00523e-08
7.62166e-07
-1.64133e-09
-5.16103e-08
2.86476e-07
1.01782e-05
2.4514e-07
2.08674e-06
6.74422e-05
0.00137649
1.6667e-06
1.15962e-05
0.0007881
0.00475216
1.32222e-07
4.39642e-06
0.000933199
0.00458811
3.68961e-10
1.05411e-08
2.8179e-07
0.000307595
1.46657e-12
-2.07719e-10
-1.13428e-08
-2.93235e-11
-5.53196e-13
-9.56596e-12
1.28715e-12
2.37569e-12
4.67132e-12
5.65494e-12
8.04643e-12
8.69265e-12
4.66559e-12
6.96585e-12
5.42005e-12
5.26464e-12
1.84889e-12
2.08532e-12
2.73742e-12
3.18099e-12
9.72327e-13
7.37579e-13
1.08924e-12
2.04592e-12
7.54711e-13
2.84957e-13
1.41359e-13
3.11301e-13
5.04295e-13
1.76828e-13
2.1787e-14
1.6365e-14
1.70554e-13
6.08117e-14
6.90854e-15
4.66039e-16
0.994281
0.996084
0.998065
0.983342
0.842367
0.48752
0.500553
0.693867
0.943961
0.965101
0.942778
0.950777
0.951066
0.951259
0.975838
0.975843
0.975843
0.975846
0.975843
0.955936
0.897383
0.732019
0.394988
0.0451192
0.0130728
0.0209554
0.171557
0.581654
0.971692
0.977552
0.977653
0.975847
0.95183
0.838526
0.683723
0.507563
0.431814
0.463596
0.278346
0.135755
0.00402316
0.00524169
0.00538237
0.00973732
0.0372822
0.178355
0.530756
0.965502
0.977793
0.977726
0.977764
0.977727
0.930387
0.505948
0.0591463
0.0240528
0.0191739
0.000632256
0.000937538
0.00205395
0.00650458
0.0555629
0.232132
0.266818
0.478713
0.897229
0.977521
0.977742
0.977766
0.977821
0.977868
0.889984
0.396359
0.024997
0.0181198
0.0169366
0.000919343
0.00113982
0.0160442
0.107743
0.257512
0.332358
0.296066
0.0735996
0.305235
0.72784
0.963653
0.977733
0.977769
0.832213
0.166873
0.0468617
0.0649982
0.0178109
0.0158097
0.00109228
0.00110925
0.0352608
0.175807
0.175943
0.0891494
0.00202221
0.00204835
0.0021377
0.116725
0.376211
0.576055
0.485166
0.0907071
0.0378449
0.0374935
0.0661333
0.0551313
0.0145414
0.00109228
0.00118801
0.0322017
0.0289411
0.0019917
0.00198402
0.00198761
0.00198992
0.00193852
0.0019852
0.00694456
0.0157114
0.0172106
0.0286533
0.0537882
0.0643429
0.0648557
0.0620876
0.0142227
0.00109228
0.00293111
0.00731343
0.00198553
0.00191881
0.00197907
0.00196598
0.00195603
0.00196713
0.00192125
0.00186048
0.00183026
0.0161366
0.0554079
0.0608029
0.0631173
0.0311886
0.0203793
0.0142227
0.00325218
0.0104705
0.00515983
0.00198371
0.00198547
0.00198008
0.001948
0.00197494
0.00197438
0.00197433
0.00192377
0.00191273
0.00215428
0.00565129
0.018178
0.0100927
0.00778496
0.00717714
0.0146328
0.0119582
0.00823399
0.00196724
0.00197542
0.00198363
0.00198532
0.00197193
0.00196324
0.00197733
0.00197484
0.00197438
0.0020022
0.00202266
0.0021109
0.0101785
0.0244713
0.00578855
0.00597798
0.0146356
0.0119601
0.0119582
0.0117035
0.0106229
0.00741554
0.00214837
0.00198707
0.00199417
0.00195758
0.00197347
0.0019961
0.00199762
0.00211078
0.00232165
0.00912302
0.0249105
0.00579119
0.00578738
0.00900372
0.011962
0.0119597
0.00874941
0.00588003
0.0127364
0.0127487
0.0115391
0.00642622
0.00363492
0.00457744
0.010216
0.0101337
0.00721344
0.00865893
0.00921768
0.0249105
0.0104057
0.0107497
0.00552985
0.003615
0.0023278
0.000906403
0.00595065
0.0108109
0.0121131
0.0134468
0.0139967
0.0149702
0.0156353
0.0159287
0.0160235
0.0160656
0.0160868
0.00931888
0.0236084
0.0225755
0.018741
0.00552985
4.73101e-05
0.000181491
0.00074764
0.000367879
5.56175e-05
2.05099e-05
0.00067402
0.00153738
0.00281945
0.0047569
0.0124761
0.0159378
0.0160121
0.0160656
0.0158766
0.0148226
0.0184874
0.00913475
0.00603178
4.41555e-05
5.23444e-05
6.04838e-05
5.5335e-05
2.05085e-05
1.66764e-06
3.23262e-07
2.21177e-07
2.08591e-07
2.10617e-07
6.79342e-06
0.00715705
0.0147971
0.0159944
0.0159421
0.00641734
0.00389073
0.000285284
0.00269526
4.22783e-05
4.43866e-05
0.000135105
0.000392683
0.000441617
9.4338e-06
7.92816e-07
3.04309e-07
2.11817e-07
2.06685e-07
2.07098e-07
2.06666e-07
0.00046592
0.00219334
0.00417372
0.000275159
7.33902e-05
1.63407e-05
5.73534e-05
4.35245e-05
5.26005e-05
0.00155143
0.00547765
0.00529236
0.000931941
4.32348e-06
6.20404e-07
2.31678e-07
2.07253e-07
2.06681e-07
2.07305e-07
2.39582e-07
9.57891e-07
1.11619e-05
2.40376e-05
9.26846e-06
2.36405e-06
3.45399e-06
0.000779706
0.000444974
0.0049426
0.00616442
0.00617524
0.00586295
0.00048617
3.12861e-06
3.73239e-07
2.13536e-07
2.08976e-07
2.14693e-07
1.81325e-06
1.11029e-05
3.11111e-06
5.92446e-06
2.4209e-06
1.00261e-06
9.00862e-07
0.00631472
0.00501459
0.00612544
0.00617524
0.00615624
0.00601792
0.0023809
1.85867e-05
1.31e-06
2.9702e-07
2.46262e-07
4.47219e-07
4.22187e-07
1.13149e-06
2.18364e-06
4.50449e-06
3.84101e-06
8.45667e-07
6.66008e-07
0.00534241
0.00594674
0.00609799
0.00608053
0.004669
0.00431184
0.00272306
0.000620632
7.97536e-06
3.48781e-06
1.3035e-07
1.21146e-07
3.26381e-07
3.20941e-06
4.97133e-06
3.94021e-06
6.65572e-06
3.86055e-06
6.33768e-07
5.80609e-07
0.00186263
0.00344685
0.000765693
1.03077e-08
9.31639e-09
0.000991165
0.00221948
0.00077262
8.19142e-06
8.26858e-08
8.15099e-08
5.25606e-07
4.68693e-06
4.74771e-06
3.40955e-06
8.63333e-06
8.98689e-06
6.17601e-07
1.25666e-07
3.93763e-08
1.58454e-08
1.02973e-08
9.31635e-09
9.25168e-09
0.00116836
0.00226019
0.00195285
0.000116891
8.20037e-08
8.20038e-08
1.11152e-07
6.02297e-07
7.87216e-07
3.14316e-06
8.98755e-06
8.98689e-06
4.53749e-07
1.66756e-08
1.55444e-08
1.29497e-08
9.91647e-09
9.25611e-09
9.24698e-09
0.000753562
0.00235236
0.00242584
0.000293533
8.72979e-08
8.14642e-08
8.73366e-08
1.55702e-06
9.64025e-06
1.47587e-05
7.72519e-06
2.74046e-06
1.08098e-07
1.32568e-08
1.38565e-08
1.12845e-08
9.68712e-09
9.23502e-09
9.25444e-09
0.000284282
0.00235896
0.00245183
0.000504451
2.94848e-07
8.71993e-08
5.969e-06
1.44499e-05
1.56054e-05
1.52562e-05
1.51214e-06
2.19727e-08
2.06777e-08
6.04739e-09
1.42439e-08
1.31335e-08
1.12717e-08
9.68937e-09
9.2271e-09
0.000249968
0.00242394
0.0024591
0.000863458
2.97463e-06
3.14725e-06
1.29935e-05
1.59558e-05
1.57637e-05
1.04907e-05
9.14063e-07
1.94472e-08
1.93393e-08
2.59803e-08
3.72754e-08
3.19805e-08
1.8102e-07
6.51723e-08
9.88752e-09
0.000566214
0.0024591
0.00246238
0.00101807
1.0896e-05
1.51033e-05
1.63705e-05
1.61841e-05
1.35156e-05
1.35974e-06
1.37748e-07
1.93395e-08
1.93392e-08
2.6083e-07
2.64421e-07
2.02648e-06
1.45514e-06
3.72043e-08
1.7022e-08
0.000741219
0.00246232
0.00246232
0.00077112
3.84393e-06
6.76511e-06
1.5866e-05
1.59558e-05
4.81597e-06
6.53484e-09
1.59429e-08
6.01918e-08
1.93392e-08
2.77462e-06
1.70164e-05
1.18365e-05
2.03931e-07
4.4932e-08
3.42139e-08
0.000390251
0.00235273
0.00166941
0.000185026
8.97283e-07
3.96453e-08
3.78958e-06
3.62368e-06
2.69596e-07
5.1738e-10
1.98237e-08
1.24881e-07
6.21825e-08
2.22278e-05
0.00010065
1.06098e-05
1.27186e-07
8.83556e-08
0.000356322
0.00129445
0.000569522
8.67622e-05
1.2235e-05
1.36655e-07
2.58766e-09
6.23639e-09
4.67367e-09
4.94853e-10
1.52644e-10
8.6225e-08
1.2491e-07
1.24881e-07
0.00178605
0.000156789
2.02003e-07
1.6607e-07
0.000528001
0.00429084
0.00200215
1.96741e-05
3.1464e-06
3.74576e-08
2.95015e-09
5.49416e-10
3.61112e-10
2.90049e-10
8.03334e-11
1.30465e-10
6.0658e-08
1.24885e-07
6.83795e-08
0.00509158
0.000149575
2.34382e-06
5.2259e-05
0.00606418
0.00670614
0.00234786
3.51855e-06
4.69818e-07
6.97654e-09
3.81647e-10
1.4941e-10
6.29861e-11
6.54081e-11
5.0431e-11
1.56597e-10
6.54713e-09
5.84541e-08
4.72852e-09
0.00525703
0.00531873
0.00361179
0.00671574
0.00672456
0.00672456
0.00198613
3.00715e-06
6.73996e-08
3.09684e-09
1.29452e-10
5.38553e-11
3.71625e-11
4.4418e-11
4.65752e-11
2.73109e-10
6.85912e-11
2.4258e-10
3.91189e-11
0.00424303
0.00660211
0.00663069
0.00668205
0.00672456
0.00561818
0.00321217
1.07807e-07
9.27392e-09
4.93927e-10
4.45349e-11
3.46586e-11
3.46413e-11
3.97816e-11
3.69562e-11
2.36309e-10
5.77751e-11
1.92219e-11
2.58947e-11
-4.22045e-08
0.00250849
0.00535548
0.00532417
0.00242349
0.000135007
0.00183105
1.41469e-07
1.17699e-07
2.77676e-09
3.33004e-11
3.09537e-11
2.72965e-11
2.84059e-11
2.55734e-11
9.48174e-11
3.08708e-11
1.41253e-11
2.64467e-11
1.42835e-12
1.50614e-11
1.5146e-10
1.81059e-09
3.37228e-08
1.03485e-05
1.4164e-05
2.43026e-06
8.4571e-10
1.15342e-09
7.26901e-11
2.19929e-11
1.88664e-11
1.81472e-11
1.58808e-11
2.11861e-11
1.57273e-11
1.03986e-11
1.74527e-11
2.20743e-10
1.08058e-09
1.02996e-09
5.42962e-10
2.46007e-07
1.66812e-06
6.13364e-07
4.06815e-06
2.02356e-10
7.66278e-11
3.73371e-11
1.40994e-11
1.14659e-11
1.04643e-11
8.7753e-12
1.08119e-11
6.21334e-12
5.36227e-12
1.23257e-11
1.28738e-09
7.74507e-09
8.04289e-09
1.35534e-11
1.01859e-08
4.78106e-08
4.42695e-08
6.54224e-07
1.25852e-11
1.31571e-11
1.54369e-11
8.05852e-12
6.06947e-12
5.40845e-12
4.31826e-12
4.29362e-12
2.23213e-12
3.13822e-12
8.28009e-12
3.32735e-12
3.47484e-12
2.53652e-11
1.04802e-11
1.27461e-11
4.06703e-10
2.71882e-10
1.32722e-11
6.15377e-12
1.17998e-11
7.95225e-12
3.93564e-12
2.8215e-12
2.50349e-12
1.8999e-12
1.53316e-12
7.68062e-13
1.96736e-12
4.97732e-12
3.65108e-12
8.44833e-12
1.33282e-11
1.03572e-11
1.39193e-11
4.45649e-11
2.03292e-11
7.14294e-12
5.2976e-12
6.42207e-12
3.40884e-12
1.64037e-12
1.16636e-12
1.04001e-12
7.51265e-13
5.02485e-13
2.65962e-13
1.20977e-12
2.63411e-12
7.22215e-13
2.26404e-12
4.79214e-12
6.6996e-12
8.78467e-12
1.15505e-11
1.17989e-11
5.21162e-12
3.92284e-12
2.65396e-12
1.23416e-12
5.95584e-13
4.33813e-13
3.896e-13
2.68904e-13
1.53164e-13
9.62263e-14
6.92676e-13
1.23095e-12
6.15554e-14
3.77428e-13
1.6185e-12
4.41974e-12
6.62703e-12
6.63509e-12
1.13196e-11
8.71446e-12
1.74927e-12
8.82694e-13
3.85185e-13
1.9328e-13
1.46738e-13
1.3256e-13
8.78672e-14
4.38467e-14
3.64364e-14
3.61722e-13
5.12632e-13
6.21546e-16
9.94241e-15
1.05586e-13
6.34698e-13
1.5955e-12
1.7932e-12
3.30053e-12
2.65325e-12
5.67337e-13
2.46834e-13
1.07204e-13
5.73932e-14
4.56069e-14
4.13033e-14
2.64389e-14
1.18907e-14
1.40769e-14
1.71529e-13
1.92296e-13
)
;

boundaryField
{
    leftWall
    {
        type            zeroGradient;
    }
    rightWall
    {
        type            zeroGradient;
    }
    lowerWall
    {
        type            zeroGradient;
    }
    atmosphere
    {
        type            inletOutlet;
        inletValue      uniform 0;
        value           nonuniform List<scalar> 
46
(
0
0
0
0
0
0.000420733
0.000428112
0.000300548
0.000191557
0
0
0
0
0
0
0
0
0
0
0
0
0
0
0
0
0
0
0
0
0
0
0
1.7932e-12
3.30053e-12
2.65325e-12
5.67337e-13
2.46834e-13
1.07204e-13
5.73932e-14
4.56069e-14
4.13033e-14
2.64389e-14
1.18907e-14
1.40769e-14
1.71529e-13
1.92296e-13
)
;
    }
    defaultFaces
    {
        type            empty;
    }
}


// ************************************************************************* //
