/*--------------------------------*- C++ -*----------------------------------*\
| =========                 |                                                 |
| \\      /  F ield         | OpenFOAM: The Open Source CFD Toolbox           |
|  \\    /   O peration     | Version:  2.3.0                                 |
|   \\  /    A nd           | Web:      www.OpenFOAM.org                      |
|    \\/     M anipulation  |                                                 |
\*---------------------------------------------------------------------------*/
FoamFile
{
    version     2.0;
    format      ascii;
    class       volScalarField;
    location    "1.7";
    object      p;
}
// * * * * * * * * * * * * * * * * * * * * * * * * * * * * * * * * * * * * * //

dimensions      [1 -1 -2 0 0 0 0];

internalField   nonuniform List<scalar> 
2268
(
666.124
653.939
634.186
619.416
605.91
582.454
579.744
611.961
622.361
629.208
640.235
650.728
663.337
676.939
688.741
698.259
704.9
706.445
706.474
711.613
719.905
728.569
733.924
610.158
596.534
575.999
565.094
552.941
525.242
517.359
549.306
560.249
567.728
580.765
591.425
604.164
618.086
630.247
640.181
646.787
647.295
645.825
651.832
660.321
668.31
674.441
554.296
540.352
524.937
518.255
505.176
477.48
459.697
484.997
501.336
509.435
521.783
531.949
544.596
559.155
571.925
581.888
588.329
588.979
588.476
594.129
601.93
608.993
615.445
497.645
483.565
475.325
470.617
457.327
429.019
407.936
424.348
444.447
451.395
462.226
471.854
484.533
500.175
513.854
524.154
530.429
531.346
530.77
536.574
543.642
550.346
557.223
438.939
423.517
417.935
416.203
405.154
375.512
356.282
367.202
386.51
392.717
402.009
411.311
424.45
441.405
455.929
466.941
473.804
474.477
471.838
478.539
485.738
492.345
500.446
378.157
361.761
353.926
352.374
344.673
316.4
300.8
311.378
326.224
332.527
341.28
350.909
365.192
382.783
397.125
409.067
418.107
417.716
409.47
418.697
428.033
434.904
444.696
316.933
301.239
288.752
286.736
281.608
258.584
245.093
254.286
264.586
271.303
280.414
291.012
307.162
322.941
335.022
348.837
361.32
360.535
342.834
354.616
366.95
377.363
385.119
257.777
244.404
228.626
226.646
221.838
205.773
190.913
196.349
202.629
209.705
219.842
232.416
249.649
261.097
267.903
285.489
303.198
303.242
275.797
284.862
302.866
318.05
335.072
643.069
624.554
587.789
576.683
616.253
688.227
744.842
773.995
784.156
789.677
796.031
804.697
813.586
816.716
820.48
829.178
823.277
790.972
797.844
587.433
566.015
524.013
511.372
551.098
626.282
685.227
714.52
725.775
732.26
740.389
749.43
757.601
761.922
769.099
779.402
768.001
733.19
740.89
530.013
505.651
461.125
444.67
480.453
559.598
622.081
655.94
669.905
678.44
687.535
695.288
698.065
700.535
711.944
722.905
707.034
674.333
685.204
471.893
446.415
399.306
377.854
410.821
488.609
553.284
591.022
611.435
624.813
633.421
638.805
635.809
634.29
646.782
657.543
640.573
617.727
633.428
416.008
390.816
341.322
316.346
345.564
417.489
479.357
519.788
548.111
567.212
576.958
580.348
573.868
568.064
578.967
588.361
575.711
563.846
584.736
362.87
340.171
289.717
261.629
285.396
347.556
403.538
445.497
480.97
506.678
519.194
522.879
511.977
502.844
513.584
522.222
510.296
504.953
527.425
312.611
296.87
245.592
211.362
225.017
271.461
320.935
367.774
412.804
447.036
465.009
468.507
450.97
438.938
452.087
457.613
438.869
433.191
454.762
253.841
244.545
199.927
165
160.207
177.132
216.461
278.692
343.223
389.267
413.816
417.109
391.983
378.694
395.899
395.332
365.66
353.104
371.178
167.445
160.528
146.353
144.674
139.177
130.582
112.064
100.329
102.993
112.441
123.879
142.102
163.003
168.477
164.075
182.907
209.552
212.73
181.511
173.594
200.764
219.624
238.321
60.4478
68.2129
69.101
65.7534
58.1085
31.8924
14.5789
16.2756
19.5669
21.4922
25.6503
48.6642
72.2749
71.6068
70.3336
85.8762
107.579
106.81
79.9637
65.0221
71.719
82.8944
99.1083
8.48706
12.0926
14.3725
13.1103
7.08179
3.17305
3.03137
2.8188
2.66631
3.22638
3.54135
4.21964
12.1156
15.3883
20.8046
36.3813
52.6227
49.9385
30.8752
15.8367
9.02962
11.4884
19.6861
1.71344
1.32434
1.24792
1.41823
1.80025
2.3299
2.48821
2.45871
2.46133
2.58281
2.27832
1.0793
0.740255
2.35357
2.91033
5.8904
15.5543
21.5464
8.03881
3.94837
3.81717
4.13683
4.36043
1.23195
0.855041
0.725047
0.87544
1.33114
1.76945
1.89297
1.8199
1.70448
1.64674
1.46769
1.09494
1.02178
1.81846
2.10102
1.95709
2.14996
2.7906
3.36922
3.48587
3.51644
3.66117
3.55073
1.04854
0.692704
0.601767
0.714415
1.00705
1.2205
1.23898
1.1228
0.987269
0.903022
0.900132
0.937513
1.1831
1.54979
1.80909
1.8507
1.9694
2.39059
3.00295
3.12771
3.17834
3.14896
2.77289
1.09059
0.898257
0.812161
0.818054
0.882203
0.882831
0.780705
0.628891
0.49618
0.434334
0.488811
0.676412
1.00834
1.37747
1.74765
1.97793
2.02991
2.25161
2.63784
2.68005
2.69954
2.6794
2.49801
1.11071
1.08006
0.966282
0.88582
0.827375
0.691479
0.486798
0.285527
0.146305
0.105207
0.179703
0.404456
0.796965
1.2735
1.77492
2.18252
2.38963
2.33451
2.39255
2.35226
2.24914
2.29977
2.4076
1.01063
1.00003
0.93087
0.867489
0.782909
0.585646
0.32961
0.0951157
-0.0708265
-0.127612
-0.060426
0.163424
0.575451
1.11441
1.72511
2.25442
2.53105
2.35266
2.16886
1.77258
1.87445
1.95573
2.14317
0.839234
0.822819
0.79346
0.777687
0.714434
0.512752
0.248597
0.0152183
-0.167493
-0.259554
-0.228184
-0.0303352
0.361981
0.911351
1.56743
2.12184
2.42357
2.22417
1.48286
0.595894
0.933522
1.14211
1.43232
0.661553
0.632668
0.612166
0.60553
0.553006
0.385944
0.172792
0.00787746
-0.136911
-0.24336
-0.260817
-0.116286
0.206089
0.686314
1.32219
1.91285
2.01917
1.51357
0.477326
-0.506496
-0.757087
-0.210943
0.305687
0.472557
0.423827
0.399076
0.359562
0.276063
0.154833
0.0613413
0.0307639
0.00222325
-0.0559161
-0.0996065
-0.0439098
0.115111
0.363711
0.834413
1.37107
1.19966
0.490162
-0.346365
-0.955565
-1.28976
-0.873744
-0.334486
0.256738
0.192704
0.160007
0.102048
0.0108515
-0.0761981
-0.0846131
0.00508848
0.103487
0.158513
0.14277
0.0910834
0.0172749
-0.0540658
0.0847731
0.150685
0.0306006
-0.551446
-1.1302
-1.47314
-1.6156
-1.42034
-1.07773
-0.0119262
-0.0893366
-0.0897352
-0.123744
-0.181204
-0.230218
-0.217752
-0.118394
-0.00989332
0.0531003
0.0893266
0.0306723
-0.17339
-0.46086
-0.642078
-0.781581
-0.827185
-1.15088
-1.38381
-1.5198
-1.60729
-1.57659
-1.5432
-0.294101
-0.374512
-0.312359
-0.328135
-0.343219
-0.364163
-0.360468
-0.299814
-0.212414
-0.174627
-0.205187
-0.306804
-0.525293
-0.842311
-1.18772
-1.41294
-1.3585
-1.335
-1.45209
-1.56549
-1.63116
-1.6179
-1.60745
-0.53656
-0.57806
-0.516781
-0.519307
-0.517124
-0.523826
-0.519988
-0.497375
-0.459825
-0.461417
-0.540896
-0.701788
-0.931541
-1.22638
-1.68611
-2.00985
-1.91145
-1.55395
-1.54063
-1.72618
-1.86012
-1.86961
-1.78691
-0.739454
-0.735252
-0.703989
-0.700013
-0.694556
-0.698156
-0.703101
-0.707138
-0.716421
-0.757604
-0.857353
-1.02489
-1.24998
-1.5395
-1.98999
-2.50509
-2.43986
-2.07385
-1.79535
-2.033
-2.41853
-2.53234
-2.29774
-0.906524
-0.895654
-0.88021
-0.875843
-0.872936
-0.884771
-0.910002
-0.938215
-0.982243
-1.05163
-1.15849
-1.31244
-1.51564
-1.78416
-2.16739
-2.6383
-2.91709
-2.84104
-2.51633
-2.65527
-3.05714
-3.32968
-3.27606
-1.06248
-1.05865
-1.05247
-1.05162
-1.06451
-1.10944
-1.1702
-1.23491
-1.29636
-1.37134
-1.46159
-1.58805
-1.75983
-1.98607
-2.28001
-2.68754
-3.04875
-3.2643
-3.3154
-3.42544
-3.75224
-3.93853
-3.78145
-1.22589
-1.22501
-1.22773
-1.23624
-1.28617
-1.36758
-1.45392
-1.54986
-1.64626
-1.71082
-1.76337
-1.84303
-1.97829
-2.16534
-2.39614
-2.71068
-3.05974
-3.36962
-3.65321
-3.82471
-3.87322
-3.93571
-3.92304
-1.39797
-1.4062
-1.41035
-1.44381
-1.52626
-1.61666
-1.7071
-1.82308
-1.95105
-2.01256
-2.02491
-2.05665
-2.16155
-2.32456
-2.52094
-2.7574
-3.03808
-3.34369
-3.65645
-3.9625
-4.21172
-4.22943
-4.09678
-1.574
-1.60351
-1.61061
-1.66664
-1.75505
-1.83078
-1.91856
-2.03756
-2.16007
-2.21191
-2.19584
-2.21195
-2.30709
-2.46205
-2.64338
-2.83748
-3.04632
-3.27396
-3.52678
-3.79378
-4.02259
-4.09863
-4.0564
-1.76334
-1.79616
-1.81986
-1.88657
-1.95911
-2.02646
-2.11491
-2.21891
-2.30753
-2.3337
-2.32125
-2.34215
-2.43446
-2.58731
-2.76317
-2.93622
-3.09886
-3.25506
-3.41294
-3.57276
-3.70424
-3.76946
-3.7749
-1.96136
-1.98916
-2.03284
-2.10549
-2.17167
-2.24928
-2.33505
-2.41732
-2.47315
-2.48479
-2.47344
-2.49823
-2.59292
-2.73404
-2.89771
-3.05255
-3.18386
-3.29368
-3.39158
-3.4802
-3.54932
-3.59285
-3.62245
-2.16924
-2.2069
-2.26223
-2.34159
-2.42315
-2.50989
-2.59238
-2.65468
-2.68609
-2.68745
-2.68018
-2.70382
-2.78378
-2.91439
-3.06157
-3.19666
-3.29601
-3.36622
-3.42582
-3.48145
-3.52727
-3.56163
-3.59777
-2.40241
-2.44934
-2.50925
-2.59998
-2.70606
-2.80969
-2.887
-2.93221
-2.9436
-2.93395
-2.92793
-2.95201
-3.02351
-3.14248
-3.26705
-3.3753
-3.43569
-3.46196
-3.48529
-3.51707
-3.55056
-3.58225
-3.61621
-2.65533
-2.70728
-2.76976
-2.87102
-3.00435
-3.12338
-3.20287
-3.23733
-3.23298
-3.21115
-3.20022
-3.22336
-3.29151
-3.4013
-3.51775
-3.58404
-3.59684
-3.57447
-3.56002
-3.5676
-3.58804
-3.6129
-3.64613
-2.9094
-2.96029
-3.02438
-3.13626
-3.2963
-3.43505
-3.52191
-3.55313
-3.53635
-3.49902
-3.47466
-3.48682
-3.54579
-3.64338
-3.74012
-3.77977
-3.75284
-3.69014
-3.64664
-3.63384
-3.64169
-3.66143
-3.69415
-3.13991
-3.18558
-3.24183
-3.37232
-3.5556
-3.71897
-3.82215
-3.85848
-3.83377
-3.77794
-3.73133
-3.72087
-3.75655
-3.82937
-3.90192
-3.91985
-3.87402
-3.79681
-3.74532
-3.72501
-3.72691
-3.74192
-3.76828
-3.33557
-3.38535
-3.41146
-3.56637
-3.75995
-3.94976
-4.07616
-4.12718
-4.10429
-4.03141
-3.95715
-3.9158
-3.91743
-3.95362
-3.9942
-3.99759
-3.95489
-3.89568
-3.85723
-3.84349
-3.84687
-3.8587
-3.87637
-3.52472
-3.60884
-3.58808
-3.72333
-3.90537
-4.1073
-4.25965
-4.33306
-4.32581
-4.2466
-4.14661
-4.07384
-4.04279
-4.04405
-4.05524
-4.05009
-4.02328
-3.9961
-3.98267
-3.98339
-3.99306
-4.00745
-4.02469
-3.71216
-3.86188
-3.81342
-3.85713
-3.99411
-4.18892
-4.36077
-4.45734
-4.47173
-4.40769
-4.29621
-4.20152
-4.1488
-4.12878
-4.12489
-4.12087
-4.11519
-4.11313
-4.11951
-4.13318
-4.15174
-4.17403
-4.20135
-3.88479
-4.00184
-4.03662
-3.99144
-4.06007
-4.21882
-4.38679
-4.49813
-4.53548
-4.49759
-4.4018
-4.30603
-4.24714
-4.22112
-4.21511
-4.21826
-4.22896
-4.24451
-4.26389
-4.28663
-4.31301
-4.34431
-4.3836
-4.00884
-4.07083
-4.16663
-4.14591
-4.14299
-4.23865
-4.38473
-4.48762
-4.53036
-4.52792
-4.47244
-4.39579
-4.34519
-4.32524
-4.3253
-4.33787
-4.3591
-4.38498
-4.41213
-4.44047
-4.47161
-4.50766
-4.55186
-4.11503
-4.12299
-4.21419
-4.25491
-4.25331
-4.29458
-4.41365
-4.48718
-4.51188
-4.53155
-4.52085
-4.47863
-4.44728
-4.44185
-4.45218
-4.47325
-4.50121
-4.5323
-4.56323
-4.59409
-4.62679
-4.66338
-4.7062
-4.23003
-4.19966
-4.26273
-4.35339
-4.41331
-4.4504
-4.51293
-4.53218
-4.50684
-4.50997
-4.55756
-4.56404
-4.55844
-4.5708
-4.59266
-4.62032
-4.6521
-4.68485
-4.71652
-4.74744
-4.77923
-4.81368
-4.8523
-4.38702
-4.35255
-4.40985
-4.53437
-4.64672
-4.71581
-4.7204
-4.64922
-4.54994
-4.5363
-4.61866
-4.66448
-4.68474
-4.71276
-4.74478
-4.77697
-4.80977
-4.84163
-4.87185
-4.90079
-4.92981
-4.96031
-4.99327
-4.60433
-4.59478
-4.6789
-4.83198
-4.98626
-5.0854
-5.04285
-4.84809
-4.64425
-4.61172
-4.71758
-4.78768
-4.82903
-4.86868
-4.90726
-4.94157
-4.97314
-5.00241
-5.02942
-5.05477
-5.07964
-5.10504
-5.1316
-4.87313
-4.89793
-5.01159
-5.17553
-5.39964
-5.55211
-5.46191
-5.12533
-4.7823
-4.74066
-4.85627
-4.93698
-4.99201
-5.03883
-5.0792
-5.11286
-5.14153
-5.16672
-5.18926
-5.20989
-5.22963
-5.24927
-5.2692
-5.17779
-5.23361
-5.35574
-5.54065
-5.79625
-6.02383
-5.90048
-5.46045
-4.98919
-4.93282
-5.04698
-5.11575
-5.17449
-5.22315
-5.26107
-5.29063
-5.31423
-5.33396
-5.35101
-5.36616
-5.38021
-5.39377
-5.40711
-5.49513
-5.57092
-5.69116
-5.93998
-6.15869
-6.56894
-6.54334
-5.89914
-5.28421
-5.13832
-5.23773
-5.32411
-5.38335
-5.42507
-5.4545
-5.47592
-5.49184
-5.50449
-5.5149
-5.52379
-5.5317
-5.53902
-5.5459
-5.81125
-5.89313
-6.01921
-6.29574
-6.5473
-7.22659
-7.11894
-6.59907
-6.07629
-5.61378
-5.60788
-5.60611
-5.62906
-5.64784
-5.66186
-5.67116
-5.67669
-5.6803
-5.68268
-5.68429
-5.68534
-5.686
-5.68629
230.87
226.618
223.552
215.406
106.148
108.312
107.753
102.865
29.183
33.7579
32.0245
27.7419
4.57117
4.74123
4.97325
5.13395
3.59943
3.86529
4.47189
4.89263
2.65332
2.94552
3.73942
4.27352
2.45187
2.58016
3.15851
3.47181
2.52143
2.64286
2.9281
3.06913
2.44704
2.71725
2.84448
2.8915
1.78744
1.95286
2.10687
2.22352
0.750974
0.877789
0.948252
0.996897
-0.172261
-0.228497
-0.246831
-0.192853
-1.08227
-1.13661
-1.15063
-1.147
-1.50456
-1.49383
-1.5216
-1.56267
-1.62964
-1.6505
-1.68183
-1.72466
-1.77717
-1.80598
-1.84951
-1.90888
-2.14984
-2.12195
-2.11432
-2.13291
-2.94601
-2.69631
-2.56721
-2.55781
-3.62069
-3.496
-3.41521
-3.34583
-3.87313
-3.81881
-3.71211
-3.59533
-4.01964
-3.9751
-3.91559
-3.85477
-4.00054
-3.97366
-3.94389
-3.89998
-3.77155
-3.76661
-3.76091
-3.75379
-3.6467
-3.66181
-3.67835
-3.69406
-3.62851
-3.65078
-3.67481
-3.69889
-3.6511
-3.67727
-3.7065
-3.73816
-3.68408
-3.71528
-3.75268
-3.79529
-3.73565
-3.77274
-3.82104
-3.88082
-3.80395
-3.84134
-3.89575
-3.98236
-3.89887
-3.92179
-3.96056
-4.06092
-4.04312
-4.05747
-4.08513
-4.18938
-4.22577
-4.24196
-4.27396
-4.34912
-4.42085
-4.44852
-4.48388
-4.52516
-4.59374
-4.6247
-4.65944
-4.69802
-4.7443
-4.77156
-4.80235
-4.83656
-4.88461
-4.90667
-4.93
-4.95448
-5.01954
-5.037
-5.05498
-5.07319
-5.15196
-5.16519
-5.17854
-5.1919
-5.284
-5.29345
-5.30282
-5.31202
-5.4167
-5.42273
-5.42861
-5.43428
-5.55061
-5.55349
-5.55621
-5.55873
-5.68622
-5.68605
-5.68575
-5.68532
190.246
169.443
136.745
106.815
76.8601
65.4376
74.2466
132.232
228.718
300.587
336.262
344.049
324.097
304.337
314.162
293.063
248.174
222.107
231.455
88.1082
68.5644
59.3833
43.5057
31.6657
35.803
41.0703
54.63
121.47
197.539
243.9
263.241
255.771
231.352
203.066
155.603
103.719
80.6763
82.0971
20.6556
13.4098
14.7122
18.3107
22.1248
28.2995
37.3464
50.1875
83.7326
127.214
161.301
187.323
190.295
159.534
113.303
78.0033
57.5027
49.2058
50.0511
4.90367
4.99559
8.84335
13.8712
17.2237
11.9849
16.6229
19.3577
21.1692
21.484
71.0108
106.171
117.96
99.0296
64.4317
51.89
43.9473
42.767
46.0589
4.75855
4.42053
5.48854
6.28006
6.1897
14.4192
22.4206
8.68515
8.16058
10.2909
22.3859
47.136
62.7546
60.7823
36.953
26.7133
27.8367
32.0584
38.1655
4.21561
3.68818
3.53153
6.92544
10.8217
5.70193
3.97471
2.98159
-0.596372
1.83404
15.6691
28.4644
37.9273
32.8881
27.5097
19.2131
12.1882
15.8379
25.8662
3.6219
3.4489
3.32442
4.03739
2.57687
2.13056
2.24814
1.65155
0.255926
-1.59712
-2.46645
1.25407
11.1859
19.391
17.5043
5.62849
-3.62691
2.24976
15.6291
3.15746
3.19823
2.63058
2.72789
2.49825
2.06473
1.66684
0.743081
-0.105753
-0.591342
-0.442056
1.08418
4.32338
9.39022
11.1061
7.88591
3.76024
5.37404
12.0726
2.94008
2.58009
2.33225
2.28982
2.20893
1.67034
0.844671
0.0224118
-0.498827
-0.495813
0.171626
1.29261
2.50403
3.99477
7.01765
8.90901
8.37449
8.97295
11.4797
2.41393
1.69504
1.81951
1.94685
1.90954
1.38478
0.518121
-0.245896
-0.602673
-0.431907
0.272741
1.24887
2.14449
3.15608
5.02658
8.8941
8.6051
8.99318
9.48737
0.957312
0.836698
0.948644
1.23553
1.43311
1.19664
0.53323
-0.11538
-0.400767
-0.286928
0.274425
1.11146
1.95738
2.94843
4.61609
8.31984
7.63509
7.5405
6.80809
-0.178227
-0.191456
0.194089
0.709186
0.804427
0.705789
0.378883
0.133289
-0.0766892
-0.318894
-0.24801
0.482687
1.4297
2.45948
4.36368
6.74764
6.27698
5.48382
4.74594
-1.11228
-1.02439
-0.832009
-0.622346
-0.457509
-0.324056
-0.0460345
-0.0294357
-0.26768
-0.585379
-0.680157
-0.552827
0.205608
1.30698
2.79124
4.07315
4.1842
2.29896
2.50255
-1.61269
-1.54773
-1.39122
-1.30683
-1.27523
-1.22364
-1.17076
-1.19837
-1.28096
-1.32956
-1.19069
-1.44553
-1.07149
-0.488751
0.023732
0.459889
0.641007
-0.704589
0.196006
-1.80645
-1.84353
-1.77402
-1.63033
-1.47988
-1.41121
-1.44117
-1.51665
-1.63351
-1.73371
-1.82797
-1.77257
-1.75388
-1.98445
-2.19588
-1.97869
-1.54445
-1.64507
-1.3791
-2.02447
-2.14976
-2.15279
-1.98925
-1.70856
-1.58183
-1.61308
-1.68342
-1.7841
-1.90369
-2.03513
-2.18648
-2.42583
-2.82896
-2.9718
-2.58261
-2.13654
-1.93537
-1.89647
-2.23855
-2.44531
-2.61736
-2.69314
-2.27552
-1.82496
-1.78843
-1.85044
-1.91897
-2.0165
-2.13245
-2.28146
-2.4815
-2.73717
-2.84203
-2.58022
-2.28385
-2.14077
-2.09861
-2.54484
-2.74346
-3.23052
-3.62709
-2.98453
-2.16524
-1.96
-2.00745
-2.0469
-2.11243
-2.19061
-2.29104
-2.42821
-2.56084
-2.58641
-2.48224
-2.36265
-2.29307
-2.26089
-3.18863
-3.37766
-3.96144
-3.9556
-3.24325
-2.46929
-2.16881
-2.14474
-2.16227
-2.21186
-2.27482
-2.34221
-2.41903
-2.48629
-2.51539
-2.4994
-2.46719
-2.42941
-2.4135
-3.51422
-3.73261
-3.98488
-3.71503
-3.08269
-2.63988
-2.44816
-2.28956
-2.26622
-2.30701
-2.37107
-2.44014
-2.50075
-2.55498
-2.5858
-2.5928
-2.58543
-2.56431
-2.55888
-3.7845
-3.73429
-3.68012
-3.52085
-3.20503
-2.96713
-2.75623
-2.4897
-2.38474
-2.40731
-2.46969
-2.55249
-2.6194
-2.66836
-2.69826
-2.70858
-2.70926
-2.70082
-2.70041
-3.81652
-3.75061
-3.68113
-3.50378
-3.28157
-3.09867
-2.93215
-2.70862
-2.54065
-2.51777
-2.57595
-2.67201
-2.74126
-2.79099
-2.81993
-2.83251
-2.83902
-2.83913
-2.84062
-3.74081
-3.71739
-3.67173
-3.55269
-3.37566
-3.21361
-3.07829
-2.89375
-2.72325
-2.65665
-2.70538
-2.79853
-2.86667
-2.91711
-2.94757
-2.96413
-2.97459
-2.97937
-2.9816
-3.7146
-3.71755
-3.68918
-3.6129
-3.4887
-3.35798
-3.23822
-3.07966
-2.92184
-2.84017
-2.87564
-2.94639
-3.00997
-3.05765
-3.08822
-3.10593
-3.1165
-3.122
-3.1247
-3.73631
-3.77129
-3.7707
-3.71991
-3.62381
-3.51314
-3.39716
-3.27684
-3.1539
-3.07192
-3.08279
-3.13042
-3.1796
-3.21751
-3.24253
-3.25586
-3.26335
-3.26781
-3.27016
-3.79251
-3.86016
-3.88671
-3.85814
-3.78088
-3.67894
-3.56141
-3.48368
-3.41769
-3.33977
-3.31455
-3.33649
-3.36472
-3.38734
-3.40219
-3.40935
-3.41316
-3.41617
-3.41774
-3.87701
-3.99185
-4.04654
-4.02844
-3.95282
-3.84393
-3.74572
-3.72277
-3.706
-3.63202
-3.54766
-3.54524
-3.5514
-3.55794
-3.56231
-3.56364
-3.56464
-3.56609
-3.56682
-4.00697
-4.16762
-4.23075
-4.19375
-4.09247
-3.96458
-3.912
-3.95049
-3.95322
-3.87475
-3.76708
-3.74343
-3.73177
-3.72589
-3.72175
-3.71859
-3.71705
-3.71681
-3.71662
-4.18341
-4.35975
-4.38357
-4.3085
-4.18387
-4.06542
-4.08369
-4.17189
-4.14719
-4.04988
-3.96721
-3.92826
-3.9052
-3.89055
-3.88022
-3.87343
-3.86942
-3.86744
-3.86637
-4.39001
-4.51068
-4.44531
-4.35983
-4.26302
-4.26341
-4.30822
-4.3531
-4.29323
-4.21053
-4.15139
-4.10285
-4.07213
-4.05133
-4.03662
-4.02683
-4.0206
-4.01713
-4.01533
-4.53583
-4.53548
-4.47942
-4.41336
-4.40062
-4.4841
-4.60684
-4.55081
-4.44717
-4.3734
-4.31694
-4.26556
-4.23088
-4.20669
-4.18939
-4.17754
-4.16973
-4.1652
-4.16288
-4.59056
-4.70731
-4.67814
-4.68806
-4.61692
-4.73769
-4.78967
-4.69487
-4.58995
-4.52503
-4.46486
-4.41554
-4.38081
-4.35588
-4.33775
-4.32496
-4.31632
-4.31117
-4.30858
-4.57111
-4.67262
-4.77562
-4.79908
-4.83776
-4.91355
-4.916
-4.80709
-4.71168
-4.65012
-4.59672
-4.55453
-4.52298
-4.49936
-4.48175
-4.469
-4.46019
-4.45481
-4.45215
-4.77321
-4.79792
-4.78581
-4.87577
-5.02774
-5.16767
-5.10013
-4.92725
-4.81852
-4.76353
-4.72038
-4.68625
-4.65917
-4.63804
-4.62184
-4.60983
-4.60136
-4.59607
-4.59351
-4.89738
-4.98444
-5.06133
-5.12325
-5.16233
-5.19959
-5.16451
-5.01779
-4.92079
-4.87151
-4.84156
-4.81369
-4.79105
-4.7729
-4.7586
-4.74777
-4.74
-4.73503
-4.73268
-4.99884
-5.06717
-5.12648
-5.16663
-5.18728
-5.19225
-5.15489
-5.07025
-5.01661
-4.98342
-4.95925
-4.93793
-4.91974
-4.9048
-4.89258
-4.88322
-4.87636
-4.87191
-4.86979
-5.10413
-5.14758
-5.18516
-5.2107
-5.22238
-5.21388
-5.18603
-5.14114
-5.11524
-5.09433
-5.07663
-5.06056
-5.04639
-5.0343
-5.02424
-5.01663
-5.01076
-5.00694
-5.00506
-5.21426
-5.24396
-5.26796
-5.28341
-5.28866
-5.28256
-5.26073
-5.23613
-5.22045
-5.20645
-5.19399
-5.18226
-5.1716
-5.16225
-5.15437
-5.14816
-5.14346
-5.14036
-5.1388
-5.32709
-5.3462
-5.36096
-5.36978
-5.37195
-5.36753
-5.3545
-5.3406
-5.33005
-5.32055
-5.31189
-5.30362
-5.29594
-5.28907
-5.28319
-5.27846
-5.27487
-5.27248
-5.27127
-5.44339
-5.45432
-5.46223
-5.46641
-5.46664
-5.46321
-5.45602
-5.44836
-5.44189
-5.43595
-5.43035
-5.42493
-5.41981
-5.41516
-5.41111
-5.40782
-5.40529
-5.40362
-5.40277
-5.56259
-5.56666
-5.569
-5.5695
-5.56839
-5.56615
-5.56238
-5.55863
-5.55535
-5.55227
-5.54928
-5.54631
-5.54345
-5.54081
-5.53847
-5.53655
-5.53506
-5.53406
-5.53357
-5.68435
-5.68232
-5.67975
-5.67701
-5.67467
-5.67328
-5.67233
-5.67141
-5.67059
-5.66979
-5.66895
-5.66806
-5.66717
-5.66633
-5.66556
-5.66493
-5.66442
-5.66409
-5.66398
)
;

boundaryField
{
    leftWall
    {
        type            calculated;
        value           nonuniform List<scalar> 
50
(
666.124
610.158
554.296
497.645
438.939
378.157
316.933
257.777
167.445
60.4478
8.48706
1.71344
1.23195
1.04854
1.09059
1.11071
1.01063
0.839234
0.661553
0.472557
0.256738
-0.0119262
-0.294101
-0.53656
-0.739454
-0.906524
-1.06248
-1.22589
-1.39797
-1.574
-1.76334
-1.96136
-2.16924
-2.40241
-2.65533
-2.9094
-3.13991
-3.33557
-3.52472
-3.71216
-3.88479
-4.00884
-4.11503
-4.23003
-4.38702
-4.60433
-4.87313
-5.17779
-5.49513
-5.81125
)
;
    }
    rightWall
    {
        type            calculated;
        value           nonuniform List<scalar> 
50
(
797.844
740.89
685.204
633.428
584.736
527.425
454.762
371.178
231.455
82.0971
50.0511
46.0589
38.1655
25.8662
15.6291
12.0726
11.4797
9.48737
6.80809
4.74594
2.50255
0.196006
-1.3791
-1.89647
-2.09861
-2.26089
-2.4135
-2.55888
-2.70041
-2.84062
-2.9816
-3.1247
-3.27016
-3.41774
-3.56682
-3.71662
-3.86637
-4.01533
-4.16288
-4.30858
-4.45215
-4.59351
-4.73268
-4.86979
-5.00506
-5.1388
-5.27127
-5.40277
-5.53357
-5.66398
)
;
    }
    lowerWall
    {
        type            calculated;
        value           nonuniform List<scalar> 
62
(
695.553
683.368
663.615
648.123
633.303
610.124
609.149
641.39
651.79
658.638
669.664
680.158
692.766
706.368
718.169
727.687
734.277
735.373
735.372
740.543
749.31
757.988
763.348
733.924
674.441
615.445
557.223
500.446
444.696
385.119
335.072
293.195
288.874
285.793
277.62
643.069
587.433
530.013
471.893
416.008
362.87
312.611
253.841
672.359
653.765
616.997
605.52
644.457
716.238
772.976
802.769
812.978
818.499
823.21
830.766
839.655
842.785
846.555
855.224
849.681
818.005
824.86
)
;
    }
    atmosphere
    {
        type            calculated;
        value           nonuniform List<scalar> 
46
(
-5.96538
-6.05818
-6.16994
-6.43534
-6.32546
-8.13703
-8.17926
-7.44917
-6.82538
-5.73894
-5.7329
-5.74225
-5.75675
-5.7665
-5.77195
-5.7738
-5.77312
-5.77122
-5.76887
-5.76636
-5.76359
-5.76061
-5.7574
-5.75492
-5.7532
-5.7514
-5.74951
-5.74617
-5.74139
-5.73674
-5.73278
-5.73007
-5.72904
-5.72904
-5.72904
-5.72904
-5.72904
-5.72904
-5.72904
-5.72904
-5.72904
-5.72904
-5.72904
-5.72904
-5.72904
-5.72904
)
;
    }
    defaultFaces
    {
        type            empty;
    }
}


// ************************************************************************* //
